/*--------------------------------*- C++ -*----------------------------------*\
| =========                 |                                                 |
| \\      /  F ield         | OpenFOAM: The Open Source CFD Toolbox           |
|  \\    /   O peration     | Version:  4.1                                   |
|   \\  /    A nd           | Web:      www.OpenFOAM.org                      |
|    \\/     M anipulation  |                                                 |
\*---------------------------------------------------------------------------*/
FoamFile
{
    version     2.0;
    format      ascii;
    class       volVectorField;
    location    "7e-05";
    object      wallShearStress;
}
// * * * * * * * * * * * * * * * * * * * * * * * * * * * * * * * * * * * * * //

dimensions      [0 2 -2 0 0 0 0];

internalField   uniform (0 0 0);

boundaryField
{
    inlet
    {
        type            calculated;
        value           uniform (0 0 0);
    }
    outlet
    {
        type            calculated;
        value           uniform (0 0 0);
    }
    mantle
    {
        type            calculated;
        value           nonuniform List<vector> 
384
(
(-0.0481316 -0.0035203 0.000470799)
(-0.0468923 -0.00301281 0.00119381)
(-0.0462083 -0.00257565 0.00158104)
(-0.0459053 -0.00221823 0.00189942)
(-0.0459044 -0.00189956 0.00221798)
(-0.0462057 -0.00158109 0.00257518)
(-0.0468884 -0.00119361 0.00301223)
(-0.0481276 -0.000470841 0.00351945)
(-0.0481373 -0.000277671 0.000174722)
(-0.0472755 -0.000215088 0.000330228)
(-0.0467046 -0.000159373 0.000291634)
(-0.046423 -0.000165768 0.000216349)
(-0.0464223 -0.0002184 0.000164171)
(-0.0467024 -0.000294153 0.000158346)
(-0.0472721 -0.00033273 0.000214844)
(-0.0481335 -0.000176553 0.000278713)
(-0.0486577 5.00022e-05 4.06026e-06)
(-0.0477656 3.24427e-05 2.33762e-05)
(-0.0471545 2.57736e-05 2.42548e-05)
(-0.0468496 1.11814e-05 6.10466e-06)
(-0.0468491 -9.10892e-06 -1.35083e-05)
(-0.0471532 -2.79111e-05 -2.72013e-05)
(-0.047764 -2.66385e-05 -3.30454e-05)
(-0.0486561 -6.13971e-06 -4.93336e-05)
(-0.0483719 2.44998e-05 -8.31578e-06)
(-0.0475642 2.01856e-05 -2.87317e-06)
(-0.0470206 1.84109e-05 -2.08134e-06)
(-0.0467499 1.29202e-05 -8.74107e-06)
(-0.0467497 5.10982e-06 -1.57353e-05)
(-0.0470202 -1.99016e-06 -2.01079e-05)
(-0.0475638 -8.43782e-07 -2.06739e-05)
(-0.0483713 6.30305e-06 -2.34826e-05)
(-0.0483188 -2.40035e-06 -5.95749e-06)
(-0.0475199 -3.73183e-06 1.74058e-06)
(-0.0469879 -2.61554e-06 3.89444e-06)
(-0.0467242 -3.32233e-06 2.22867e-06)
(-0.0467243 -5.67732e-06 4.15084e-07)
(-0.0469887 -7.68644e-06 8.97392e-07)
(-0.0475211 -5.23645e-06 3.24849e-06)
(-0.0483203 4.65627e-06 3.46381e-06)
(-0.0483312 -5.97692e-06 -6.06323e-06)
(-0.0475332 -6.67436e-06 9.09715e-07)
(-0.0470036 -6.01948e-06 3.16758e-06)
(-0.0467414 -5.43755e-06 3.14173e-06)
(-0.0467418 -5.82492e-06 3.05941e-06)
(-0.0470051 -5.6445e-06 4.13729e-06)
(-0.0475353 -3.03972e-06 5.96797e-06)
(-0.0483338 5.85667e-06 6.39363e-06)
(-0.0483398 -5.4489e-06 -5.24963e-06)
(-0.0475442 -5.81721e-06 6.68745e-07)
(-0.047017 -5.14318e-06 2.29304e-06)
(-0.046756 -4.69218e-06 2.81609e-06)
(-0.0467565 -4.68603e-06 3.09944e-06)
(-0.0470185 -3.99079e-06 4.05038e-06)
(-0.0475464 -1.93285e-06 5.58732e-06)
(-0.0483423 5.70903e-06 5.85201e-06)
(-0.0483489 -5.09347e-06 -3.91996e-06)
(-0.0475553 -5.0125e-06 1.13419e-06)
(-0.0470295 -4.24859e-06 2.24598e-06)
(-0.0467692 -3.86139e-06 2.76883e-06)
(-0.0467696 -3.76876e-06 2.99306e-06)
(-0.0470308 -3.03336e-06 3.74491e-06)
(-0.0475571 -1.42544e-06 5.00291e-06)
(-0.048351 4.90988e-06 5.21887e-06)
(-0.0483575 -4.07003e-06 -2.7614e-06)
(-0.0475655 -3.91315e-06 1.21644e-06)
(-0.0470407 -3.25888e-06 2.02165e-06)
(-0.0467807 -2.95547e-06 2.48449e-06)
(-0.046781 -2.86191e-06 2.60978e-06)
(-0.0470416 -2.19551e-06 3.16616e-06)
(-0.0475668 -9.67097e-07 4.08369e-06)
(-0.0483588 3.94785e-06 4.19031e-06)
(-0.0483645 -3.28053e-06 -1.70259e-06)
(-0.0475738 -2.91544e-06 1.36137e-06)
(-0.0470498 -2.41094e-06 1.84277e-06)
(-0.04679 -2.13306e-06 2.1487e-06)
(-0.0467903 -2.08567e-06 2.18732e-06)
(-0.0470504 -1.55746e-06 2.53629e-06)
(-0.0475746 -6.86057e-07 3.17932e-06)
(-0.0483652 2.95845e-06 3.24602e-06)
(-0.0483698 -2.15563e-06 -1.00149e-06)
(-0.0475801 -1.96789e-06 1.08271e-06)
(-0.0470567 -1.646e-06 1.44483e-06)
(-0.0467972 -1.44049e-06 1.69242e-06)
(-0.0467973 -1.42157e-06 1.69264e-06)
(-0.0470571 -1.0345e-06 1.89773e-06)
(-0.0475805 -4.53749e-07 2.28659e-06)
(-0.04837 2.03682e-06 2.30813e-06)
(-0.0483737 -1.63174e-06 -3.52789e-07)
(-0.0475848 -1.36064e-06 1.09705e-06)
(-0.0470619 -1.0988e-06 1.29331e-06)
(-0.0468026 -9.44407e-07 1.40457e-06)
(-0.0468026 -9.59023e-07 1.34768e-06)
(-0.0470621 -7.51595e-07 1.42232e-06)
(-0.0475851 -4.42837e-07 1.66552e-06)
(-0.0483738 1.19424e-06 1.72346e-06)
(-0.0483766 -8.94435e-07 9.02458e-08)
(-0.0475883 -7.69332e-07 9.04677e-07)
(-0.0470658 -6.25014e-07 1.05669e-06)
(-0.0468066 -5.40182e-07 1.1035e-06)
(-0.0468067 -5.76421e-07 1.01707e-06)
(-0.047066 -4.97787e-07 1.00423e-06)
(-0.0475886 -4.01277e-07 1.07622e-06)
(-0.0483767 4.98918e-07 1.11335e-06)
(-0.0483785 -7.2266e-07 6.39303e-07)
(-0.0475908 -4.46717e-07 1.14859e-06)
(-0.0470685 -3.06067e-07 1.14448e-06)
(-0.0468096 -2.47155e-07 1.0452e-06)
(-0.0468097 -3.27653e-07 8.6985e-07)
(-0.0470689 -3.75556e-07 7.51158e-07)
(-0.0475912 -4.6176e-07 6.99127e-07)
(-0.0483789 -8.73879e-08 7.46548e-07)
(-0.0483801 -4.53037e-07 1.07865e-06)
(-0.0475928 -1.75959e-07 1.3124e-06)
(-0.0470708 -3.54249e-08 1.20666e-06)
(-0.046812 1.37745e-08 1.01553e-06)
(-0.0468121 -9.70045e-08 7.58104e-07)
(-0.0470712 -2.35846e-07 5.63197e-07)
(-0.0475934 -4.65395e-07 3.75628e-07)
(-0.0483807 -5.84101e-07 4.28197e-07)
(-0.0483815 -4.16422e-07 1.53572e-06)
(-0.0475945 7.58745e-08 1.5927e-06)
(-0.0470726 2.5275e-07 1.33246e-06)
(-0.0468139 2.99283e-07 1.02689e-06)
(-0.046814 1.42884e-07 6.8278e-07)
(-0.0470731 -8.45398e-08 4.03614e-07)
(-0.0475951 -4.76691e-07 1.37459e-07)
(-0.0483821 -9.49904e-07 2.80566e-07)
(-0.0483823 -6.87944e-09 1.81507e-06)
(-0.0475955 4.35255e-07 1.60877e-06)
(-0.0470738 5.95824e-07 1.29557e-06)
(-0.0468151 6.23773e-07 9.41911e-07)
(-0.0468153 4.55039e-07 5.55996e-07)
(-0.0470742 1.90302e-07 1.98639e-07)
(-0.0475961 -3.23908e-07 -1.75745e-07)
(-0.0483829 -1.12753e-06 -6.60564e-08)
(-0.0483828 1.30105e-08 2.10929e-06)
(-0.0475962 6.36226e-07 1.82718e-06)
(-0.0470746 8.1525e-07 1.4231e-06)
(-0.0468159 8.39891e-07 9.88504e-07)
(-0.0468161 6.42596e-07 5.35342e-07)
(-0.047075 2.75669e-07 1.1756e-07)
(-0.0475968 -3.33765e-07 -1.78335e-07)
(-0.0483836 -1.19773e-06 -6.96532e-08)
(-0.0483833 1.06876e-07 2.19876e-06)
(-0.0475966 7.44925e-07 1.93026e-06)
(-0.0470751 9.85906e-07 1.54846e-06)
(-0.0468165 1.03896e-06 1.07223e-06)
(-0.0468166 8.33025e-07 5.94594e-07)
(-0.0470756 4.43039e-07 1.13833e-07)
(-0.0475974 -1.46695e-07 -2.04436e-07)
(-0.0483842 -1.00488e-06 -1.99051e-07)
(-0.048384 -3.67734e-07 2.22924e-06)
(-0.0475974 4.99947e-07 2.36529e-06)
(-0.0470758 9.18141e-07 1.96673e-06)
(-0.0468172 1.02431e-06 1.41782e-06)
(-0.0468173 8.47451e-07 8.50477e-07)
(-0.0470762 4.76149e-07 3.08053e-07)
(-0.047598 -6.56212e-08 -1.22833e-08)
(-0.0483846 -7.11196e-07 -3.49269e-08)
(-0.0483857 -8.79903e-07 1.90099e-06)
(-0.0475991 6.98095e-08 2.598e-06)
(-0.0470774 6.56052e-07 2.26623e-06)
(-0.0468186 8.25505e-07 1.72196e-06)
(-0.0468186 6.45054e-07 1.17027e-06)
(-0.0470774 3.04796e-07 6.71955e-07)
(-0.047599 -1.05294e-07 3.11336e-07)
(-0.0483854 -4.02282e-07 2.54555e-07)
(-0.0483878 -1.21744e-06 1.19367e-06)
(-0.0476015 -4.29805e-07 2.53343e-06)
(-0.0470798 2.3636e-07 2.34024e-06)
(-0.046821 4.71727e-07 1.89145e-06)
(-0.0468208 3.41736e-07 1.35969e-06)
(-0.0470793 4.46053e-08 9.7948e-07)
(-0.0476006 -2.43671e-07 6.08114e-07)
(-0.0483867 -1.06483e-07 5.50885e-07)
(-0.0483906 -1.60705e-06 2.95045e-07)
(-0.0476048 -8.99556e-07 2.11766e-06)
(-0.0470833 -3.3796e-07 2.17038e-06)
(-0.0468245 -4.63e-08 1.92876e-06)
(-0.0468241 -1.61056e-07 1.48026e-06)
(-0.0470823 -3.57528e-07 1.18217e-06)
(-0.0476032 -5.80242e-07 9.91737e-07)
(-0.0483886 2.2531e-08 1.00842e-06)
(-0.048394 -1.88311e-06 -6.44208e-07)
(-0.0476089 -1.40991e-06 1.56589e-06)
(-0.0470878 -9.18734e-07 1.83921e-06)
(-0.046829 -6.48418e-07 1.83838e-06)
(-0.0468286 -7.71592e-07 1.5056e-06)
(-0.0470866 -9.02964e-07 1.30685e-06)
(-0.047607 -1.09246e-06 1.31425e-06)
(-0.0483917 -1.13495e-08 1.53073e-06)
(-0.0483975 -2.0001e-06 -1.32038e-06)
(-0.0476133 -1.81001e-06 1.08219e-06)
(-0.0470928 -1.35868e-06 1.48281e-06)
(-0.0468343 -1.13183e-06 1.63558e-06)
(-0.0468339 -1.26086e-06 1.40688e-06)
(-0.0470917 -1.36004e-06 1.31755e-06)
(-0.0476116 -1.5299e-06 1.45301e-06)
(-0.0483954 -1.53376e-07 1.77677e-06)
(-0.0484007 -1.97755e-06 -1.70921e-06)
(-0.0476176 -1.94771e-06 6.59559e-07)
(-0.0470978 -1.58167e-06 1.13619e-06)
(-0.0468397 -1.41486e-06 1.378e-06)
(-0.0468395 -1.57622e-06 1.21409e-06)
(-0.0470972 -1.71496e-06 1.22732e-06)
(-0.0476167 -1.90961e-06 1.47247e-06)
(-0.0483997 -3.36588e-07 2.02463e-06)
(-0.0484037 -1.73981e-06 -1.56155e-06)
(-0.0476216 -1.82066e-06 5.04772e-07)
(-0.0471026 -1.46036e-06 9.50145e-07)
(-0.046845 -1.32242e-06 1.16876e-06)
(-0.0468449 -1.45651e-06 1.02245e-06)
(-0.0471025 -1.57057e-06 1.02481e-06)
(-0.0476216 -1.70809e-06 1.23455e-06)
(-0.0484038 -3.66467e-07 1.63423e-06)
(-0.0484064 -1.33475e-06 -1.16714e-06)
(-0.0476252 -1.36539e-06 4.07682e-07)
(-0.0471068 -1.10179e-06 7.37292e-07)
(-0.0468494 -1.01843e-06 8.69022e-07)
(-0.0468495 -1.17216e-06 7.22203e-07)
(-0.047107 -1.33996e-06 7.23256e-07)
(-0.0476258 -1.50265e-06 9.03864e-07)
(-0.0484073 -4.66719e-07 1.34986e-06)
(-0.0484085 -9.86295e-07 -4.54186e-07)
(-0.0476279 -8.1067e-07 5.88512e-07)
(-0.0471098 -5.73474e-07 6.7149e-07)
(-0.0468526 -5.16185e-07 6.59673e-07)
(-0.0468528 -6.29358e-07 4.98297e-07)
(-0.0471103 -7.65133e-07 4.13318e-07)
(-0.0476288 -8.9814e-07 4.61578e-07)
(-0.0484097 -4.57678e-07 6.03811e-07)
(-0.0484098 -3.67144e-07 2.74129e-07)
(-0.0476294 -1.25439e-07 6.38223e-07)
(-0.0471114 2.11194e-08 5.27204e-07)
(-0.0468543 4.32297e-08 3.6348e-07)
(-0.0468545 -1.05727e-07 1.7174e-07)
(-0.047112 -3.03383e-07 5.27023e-08)
(-0.0476304 -5.69675e-07 2.08443e-08)
(-0.0484111 -6.32492e-07 3.14937e-07)
(-0.0484097 4.70425e-07 8.82651e-07)
(-0.0476292 8.19898e-07 4.75661e-07)
(-0.0471112 8.44047e-07 1.7371e-07)
(-0.0468541 7.59711e-07 -6.38951e-09)
(-0.0468542 6.71556e-07 -1.8692e-07)
(-0.0471117 5.41771e-07 -3.95475e-07)
(-0.0476302 2.51585e-07 -6.38825e-07)
(-0.048411 -5.85198e-07 -7.29651e-07)
(-0.0484079 1.5e-06 1.6006e-06)
(-0.047627 1.67058e-06 1.86939e-07)
(-0.0471088 1.55712e-06 -2.25075e-07)
(-0.0468515 1.45066e-06 -5.00702e-07)
(-0.0468517 1.36431e-06 -6.80803e-07)
(-0.0471092 1.17792e-06 -9.22499e-07)
(-0.0476277 8.33206e-07 -1.23199e-06)
(-0.048409 -6.64358e-07 -1.37557e-06)
(-0.0484045 2.47769e-06 2.19884e-06)
(-0.0476228 2.58705e-06 -1.57115e-07)
(-0.0471041 2.33031e-06 -7.07056e-07)
(-0.0468466 2.162e-06 -1.04804e-06)
(-0.0468467 2.16301e-06 -1.16904e-06)
(-0.0471044 1.99874e-06 -1.47242e-06)
(-0.0476233 1.74084e-06 -1.91757e-06)
(-0.0484053 -6.0368e-07 -2.48969e-06)
(-0.0483992 3.32929e-06 2.85111e-06)
(-0.0476164 3.49226e-06 -4.1332e-07)
(-0.0470971 3.05059e-06 -1.14043e-06)
(-0.0468393 2.7774e-06 -1.61939e-06)
(-0.0468393 2.7592e-06 -1.70043e-06)
(-0.0470973 2.48575e-06 -2.02121e-06)
(-0.0476169 2.15069e-06 -2.49031e-06)
(-0.0484 -7.55247e-07 -3.02883e-06)
(-0.0483925 3.91246e-06 3.52659e-06)
(-0.0476082 4.16895e-06 -3.73167e-07)
(-0.047088 3.66232e-06 -1.3087e-06)
(-0.0468299 3.30946e-06 -1.92253e-06)
(-0.04683 3.30822e-06 -2.01151e-06)
(-0.0470884 3.00876e-06 -2.39763e-06)
(-0.0476089 2.6603e-06 -3.0001e-06)
(-0.0483934 -8.36946e-07 -3.71727e-06)
(-0.048385 4.36565e-06 4.07685e-06)
(-0.047599 4.64007e-06 -2.8723e-07)
(-0.0470778 4.05224e-06 -1.34249e-06)
(-0.0468193 3.62832e-06 -2.04957e-06)
(-0.0468194 3.56409e-06 -2.18283e-06)
(-0.0470782 3.15352e-06 -2.59952e-06)
(-0.0475997 2.65952e-06 -3.21404e-06)
(-0.0483858 -1.06069e-06 -3.81451e-06)
(-0.0483769 4.58985e-06 4.61048e-06)
(-0.0475892 4.9155e-06 -4.15949e-09)
(-0.0470669 4.35292e-06 -1.18776e-06)
(-0.046808 3.88558e-06 -1.94749e-06)
(-0.0468083 3.79072e-06 -2.15353e-06)
(-0.0470676 3.33314e-06 -2.64354e-06)
(-0.0475902 2.76939e-06 -3.30906e-06)
(-0.0483782 -1.13902e-06 -3.96879e-06)
(-0.0483687 4.65817e-06 5.18346e-06)
(-0.0475792 5.12302e-06 4.04949e-07)
(-0.0470559 4.60764e-06 -8.99279e-07)
(-0.0467967 4.11118e-06 -1.70873e-06)
(-0.046797 3.97934e-06 -2.01885e-06)
(-0.0470568 3.47369e-06 -2.58164e-06)
(-0.0475805 2.84181e-06 -3.28826e-06)
(-0.0483703 -1.12253e-06 -3.97161e-06)
(-0.0483607 4.61615e-06 5.8635e-06)
(-0.0475694 5.31004e-06 9.75591e-07)
(-0.0470451 4.89751e-06 -5.01566e-07)
(-0.0467854 4.37092e-06 -1.39089e-06)
(-0.0467857 4.22166e-06 -1.81688e-06)
(-0.0470461 3.68885e-06 -2.49294e-06)
(-0.0475708 3.02027e-06 -3.26365e-06)
(-0.0483625 -1.05143e-06 -4.07532e-06)
(-0.0483529 4.61185e-06 6.55463e-06)
(-0.0475598 5.57564e-06 1.51018e-06)
(-0.0470344 5.22621e-06 -1.42875e-07)
(-0.0467742 4.6633e-06 -1.12767e-06)
(-0.0467745 4.48559e-06 -1.65429e-06)
(-0.0470353 3.93658e-06 -2.44743e-06)
(-0.047561 3.22647e-06 -3.31061e-06)
(-0.0483543 -1.033e-06 -4.27756e-06)
(-0.0483451 4.75792e-06 7.06818e-06)
(-0.04755 5.87336e-06 1.86684e-06)
(-0.0470237 5.52143e-06 1.20679e-07)
(-0.0467629 4.90984e-06 -9.26196e-07)
(-0.0467632 4.68155e-06 -1.5192e-06)
(-0.0470244 4.07333e-06 -2.44038e-06)
(-0.0475511 3.23431e-06 -3.34865e-06)
(-0.048346 -1.2763e-06 -4.41668e-06)
(-0.0483369 4.90379e-06 7.41931e-06)
(-0.0475402 6.05115e-06 2.21596e-06)
(-0.0470129 5.70945e-06 4.85771e-07)
(-0.0467518 5.07617e-06 -6.17397e-07)
(-0.0467522 4.77859e-06 -1.30061e-06)
(-0.0470138 4.05686e-06 -2.3592e-06)
(-0.0475415 3.02843e-06 -3.36206e-06)
(-0.0483381 -1.73663e-06 -4.35711e-06)
(-0.048329 4.51304e-06 7.72762e-06)
(-0.047531 5.80993e-06 3.04747e-06)
(-0.0470031 5.59124e-06 1.3827e-06)
(-0.0467419 4.9843e-06 1.72048e-07)
(-0.0467424 4.6157e-06 -6.82943e-07)
(-0.0470045 3.73346e-06 -1.9222e-06)
(-0.047533 2.45234e-06 -3.01253e-06)
(-0.0483311 -2.31413e-06 -3.80052e-06)
(-0.0483238 2.72959e-06 8.22477e-06)
(-0.0475248 4.70113e-06 5.03045e-06)
(-0.0469965 5.00171e-06 3.30889e-06)
(-0.0467353 4.39612e-06 1.91239e-06)
(-0.0467359 3.94586e-06 6.56805e-07)
(-0.0469982 2.93146e-06 -8.3442e-07)
(-0.0475274 1.40344e-06 -1.99185e-06)
(-0.0483264 -2.78844e-06 -2.54453e-06)
(-0.048325 -9.25472e-07 8.91002e-06)
(-0.0475254 1.83824e-06 8.47884e-06)
(-0.0469968 3.04087e-06 6.62066e-06)
(-0.0467352 2.98852e-06 4.46994e-06)
(-0.0467356 2.443e-06 2.69239e-06)
(-0.0469978 1.34412e-06 9.5325e-07)
(-0.047527 -3.81775e-07 -1.94545e-07)
(-0.0483264 -3.16917e-06 -2.33693e-07)
(-0.048334 -4.857e-06 9.0878e-06)
(-0.0475345 -8.84556e-07 1.12397e-05)
(-0.047005 1.17311e-06 9.07783e-06)
(-0.0467425 1.43439e-06 6.37311e-06)
(-0.046742 7.6889e-07 4.19739e-06)
(-0.0470035 -5.05297e-07 2.5993e-06)
(-0.0475322 -2.09776e-06 1.40412e-06)
(-0.048331 -3.42558e-06 1.68502e-06)
(-0.0483455 -5.17173e-06 7.19526e-06)
(-0.0475469 -1.45856e-06 9.99033e-06)
(-0.0470167 5.45459e-07 7.80526e-06)
(-0.0467532 7.5354e-07 5.29701e-06)
(-0.0467518 -1.51502e-08 3.27213e-06)
(-0.0470126 -1.16751e-06 1.99884e-06)
(-0.0475407 -2.76241e-06 1.3057e-06)
(-0.0483386 -2.95524e-06 2.22744e-06)
(-0.0483487 -1.1441e-06 2.3908e-06)
(-0.0475504 1.80126e-07 3.1505e-06)
(-0.0470196 7.61117e-07 2.17481e-06)
(-0.0467549 7.94038e-07 1.24846e-06)
(-0.0467524 5.89789e-07 5.3292e-07)
(-0.0470124 4.33949e-07 3.19856e-08)
(-0.0475391 -5.63532e-09 -5.11412e-07)
(-0.048336 -4.2646e-07 -6.80002e-07)
)
;
    }
    procBoundary1to0
    {
        type            processor;
        value           uniform (0 0 0);
    }
    procBoundary1to2
    {
        type            processor;
        value           uniform (0 0 0);
    }
    procBoundary1to3
    {
        type            processor;
        value           uniform (0 0 0);
    }
}


// ************************************************************************* //
