/*--------------------------------*- C++ -*----------------------------------*\
| =========                 |                                                 |
| \\      /  F ield         | OpenFOAM: The Open Source CFD Toolbox           |
|  \\    /   O peration     | Version:  4.1                                   |
|   \\  /    A nd           | Web:      www.OpenFOAM.org                      |
|    \\/     M anipulation  |                                                 |
\*---------------------------------------------------------------------------*/
FoamFile
{
    version     2.0;
    format      ascii;
    class       volVectorField;
    location    "0.0035";
    object      U;
}
// * * * * * * * * * * * * * * * * * * * * * * * * * * * * * * * * * * * * * //

dimensions      [0 1 -1 0 0 0 0];

internalField   nonuniform List<vector> 
1536
(
(0.22579 -0.0099269 1.779e-06)
(0.23317 -0.0017729 2.5334e-06)
(0.23577 0.0047532 2.491e-06)
(0.23334 0.010372 2.1871e-06)
(0.22598 0.015983 2.1718e-06)
(0.21438 0.02148 2.0025e-06)
(0.19812 0.027703 1.7995e-06)
(0.17651 0.034073 1.5884e-06)
(0.1499 0.037848 1.0429e-06)
(0.12176 0.035549 9.9937e-07)
(0.099067 0.024328 5.4624e-07)
(0.086438 0.0062887 4.2493e-07)
(0.22407 -0.0086239 -0.0015002)
(0.23142 -0.0037133 -0.0025196)
(0.23395 0.00044827 -0.0026675)
(0.23143 0.0047877 -0.0025366)
(0.22408 0.0089592 -0.0028446)
(0.21254 0.013195 -0.0032194)
(0.19633 0.017657 -0.0038595)
(0.17501 0.02199 -0.0045204)
(0.14921 0.024437 -0.0048359)
(0.12232 0.022816 -0.0044235)
(0.10098 0.015291 -0.0030709)
(0.089407 0.0032848 -0.0010977)
(0.22275 -0.0069273 0.0012971)
(0.22994 -0.0029289 -0.00018327)
(0.23232 0.00071205 -0.0011073)
(0.22992 0.0044849 -0.0018977)
(0.22279 0.0079263 -0.0031131)
(0.21126 0.01132 -0.0043266)
(0.19511 0.014935 -0.0056906)
(0.17406 0.018329 -0.007021)
(0.1489 0.020127 -0.0077255)
(0.12298 0.018631 -0.0071705)
(0.10262 0.012431 -0.0048379)
(0.091749 0.0028223 -0.0011662)
(0.22212 -0.0048372 0.0028308)
(0.22926 -0.0017726 0.00056546)
(0.23162 0.00085429 -0.0012398)
(0.22925 0.0034379 -0.0029921)
(0.22216 0.006002 -0.0048253)
(0.21066 0.0085069 -0.0066438)
(0.19453 0.011202 -0.0086329)
(0.17359 0.013735 -0.010503)
(0.14872 0.015054 -0.011474)
(0.1232 0.013931 -0.010596)
(0.10327 0.0092914 -0.0071139)
(0.092691 0.0020573 -0.0017518)
(0.22212 -0.0028264 0.0048417)
(0.22926 -0.00056105 0.0017771)
(0.23162 0.0012443 -0.0008497)
(0.22925 0.0029965 -0.0034331)
(0.22216 0.0048312 -0.0059957)
(0.21066 0.0066504 -0.0084998)
(0.19453 0.0086401 -0.011194)
(0.17359 0.01051 -0.013728)
(0.14872 0.01148 -0.015048)
(0.1232 0.010599 -0.013928)
(0.10327 0.0071152 -0.0092898)
(0.092691 0.0017523 -0.0020567)
(0.22275 -0.0012917 0.0069337)
(0.22994 0.00018797 0.0029343)
(0.23232 0.0011112 -0.00070718)
(0.22992 0.0019018 -0.0044801)
(0.22279 0.0031169 -0.0079219)
(0.21126 0.0043314 -0.011315)
(0.19511 0.0056961 -0.01493)
(0.17406 0.0070263 -0.018323)
(0.14891 0.0077299 -0.020122)
(0.12298 0.0071733 -0.018628)
(0.10262 0.0048387 -0.01243)
(0.09175 0.0011666 -0.0028216)
(0.22407 0.0015072 0.0086334)
(0.23142 0.0025244 0.0037197)
(0.23395 0.0026708 -0.00044335)
(0.23143 0.0025407 -0.0047831)
(0.22408 0.0028482 -0.0089568)
(0.21253 0.0032232 -0.013193)
(0.19633 0.0038637 -0.017655)
(0.17501 0.0045246 -0.021987)
(0.14921 0.0048392 -0.024435)
(0.12232 0.0044262 -0.022814)
(0.10098 0.0030721 -0.015289)
(0.089409 0.0010987 -0.0032838)
(0.22579 1.4913e-06 0.0099356)
(0.23317 9.2738e-07 0.0017796)
(0.23577 4.9063e-07 -0.0047482)
(0.23334 8.0622e-07 -0.010369)
(0.22598 6.6651e-07 -0.015981)
(0.21438 5.8484e-07 -0.021481)
(0.19812 5.2382e-07 -0.027705)
(0.17652 6.3793e-07 -0.034076)
(0.1499 3.2101e-07 -0.037852)
(0.12177 -4.174e-08 -0.035552)
(0.09907 -3.7556e-07 -0.024329)
(0.086441 -5.0858e-07 -0.006289)
(0.22407 -0.0086232 0.0015045)
(0.23141 -0.0037122 0.0025242)
(0.23394 0.00044967 0.0026722)
(0.23143 0.0047886 0.0025408)
(0.22407 0.0089611 0.0028487)
(0.21253 0.013197 0.0032229)
(0.19633 0.017659 0.0038623)
(0.175 0.021992 0.0045229)
(0.1492 0.024438 0.0048383)
(0.12231 0.022817 0.0044259)
(0.10098 0.015291 0.0030725)
(0.089406 0.0032847 0.001099)
(0.22343 -0.0081644 2.2835e-06)
(0.23089 -0.0044136 2.4604e-06)
(0.23338 -0.00077952 2.5473e-06)
(0.23069 0.0032886 2.6832e-06)
(0.22324 0.0068709 2.0923e-06)
(0.21159 0.010418 2.1631e-06)
(0.19531 0.01408 1.7463e-06)
(0.17421 0.017424 1.3754e-06)
(0.14918 0.019166 9.3331e-07)
(0.1234 0.017689 1.4707e-06)
(0.10303 0.011613 1.1714e-06)
(0.092148 0.0022634 1.0945e-06)
(0.22229 -0.0062511 0.0013944)
(0.22962 -0.0031914 0.0008737)
(0.23202 -0.0001704 0.00057911)
(0.22945 0.0030089 0.00013058)
(0.22218 0.0058187 -0.00052605)
(0.21053 0.0086 -0.0012586)
(0.19429 0.011485 -0.0019724)
(0.17347 0.014056 -0.0026181)
(0.14904 0.015323 -0.0029554)
(0.12415 0.014087 -0.0027359)
(0.10469 0.0092579 -0.0017324)
(0.094418 0.0018852 -0.00013571)
(0.22172 -0.0044512 0.0027775)
(0.229 -0.0022664 0.0014128)
(0.2314 -0.0002211 0.00020151)
(0.22888 0.0019218 -0.0011683)
(0.22165 0.0039848 -0.0025344)
(0.21001 0.0060322 -0.0039497)
(0.19378 0.0081406 -0.0053799)
(0.17307 0.010012 -0.0066392)
(0.14892 0.010932 -0.0072614)
(0.12443 0.010037 -0.0066641)
(0.10537 0.0065572 -0.0043518)
(0.095362 0.0012319 -0.00084386)
(0.22172 -0.0027722 0.0044559)
(0.229 -0.0014078 0.002271)
(0.2314 -0.00019683 0.00022557)
(0.22888 0.0011722 -0.0019174)
(0.22165 0.0025387 -0.0039797)
(0.21001 0.0039538 -0.0060268)
(0.19378 0.0053843 -0.0081347)
(0.17307 0.0066431 -0.010006)
(0.14892 0.0072645 -0.010928)
(0.12443 0.006666 -0.010034)
(0.10537 0.0043526 -0.006556)
(0.095362 0.00084413 -0.0012315)
(0.22229 -0.0013883 0.0062559)
(0.22962 -0.00086838 0.0031957)
(0.23202 -0.00057469 0.00017434)
(0.22945 -0.00012606 -0.0030048)
(0.22218 0.00052863 -0.0058138)
(0.21053 0.0012611 -0.0085939)
(0.19429 0.0019752 -0.011478)
(0.17347 0.0026202 -0.014049)
(0.14904 0.0029573 -0.015318)
(0.12415 0.002737 -0.014085)
(0.10469 0.0017327 -0.0092567)
(0.094418 0.00013581 -0.0018847)
(0.22343 3.4754e-06 0.0081707)
(0.2309 2.5995e-06 0.004418)
(0.23338 1.7501e-06 0.00078328)
(0.23069 1.7597e-06 -0.0032842)
(0.22324 7.6127e-07 -0.0068662)
(0.21159 5.7579e-07 -0.010412)
(0.19531 3.0192e-07 -0.014074)
(0.17421 2.2576e-07 -0.017417)
(0.14918 -3.0478e-07 -0.01916)
(0.1234 -7.3181e-07 -0.017685)
(0.10303 -1.1012e-06 -0.011611)
(0.09215 -1.2615e-06 -0.0022626)
(0.22407 -0.0015013 0.0086306)
(0.23141 -0.0025199 0.0037169)
(0.23394 -0.0026672 -0.00044581)
(0.23143 -0.0025372 -0.0047855)
(0.22407 -0.0028454 -0.0089572)
(0.21253 -0.0032215 -0.013194)
(0.19633 -0.0038628 -0.017657)
(0.175 -0.0045242 -0.021989)
(0.1492 -0.0048395 -0.024436)
(0.12232 -0.0044273 -0.022814)
(0.10098 -0.0030736 -0.015289)
(0.089408 -0.0011 -0.0032833)
(0.22274 -0.006926 -0.0012925)
(0.22993 -0.002928 0.00018832)
(0.23231 0.00071301 0.0011119)
(0.22991 0.0044859 0.0019013)
(0.22278 0.0079275 0.0031168)
(0.21125 0.011321 0.0043293)
(0.19511 0.014936 0.0056933)
(0.17405 0.01833 0.0070236)
(0.1489 0.020127 0.0077282)
(0.12298 0.018632 0.0071719)
(0.10262 0.012431 0.0048383)
(0.091749 0.0028223 0.001166)
(0.22228 -0.0062498 -0.0013897)
(0.22961 -0.0031903 -0.00086861)
(0.23201 -0.00016928 -0.00057417)
(0.22944 0.0030102 -0.00012571)
(0.22217 0.0058201 0.00052978)
(0.21052 0.0086014 0.0012624)
(0.19429 0.011486 0.0019757)
(0.17346 0.014057 0.0026211)
(0.14903 0.015324 0.0029583)
(0.12415 0.014089 0.0027386)
(0.10469 0.0092584 0.0017342)
(0.094417 0.0018855 0.00013688)
(0.22118 -0.004608 2.2108e-06)
(0.22843 -0.0022811 2.4811e-06)
(0.23077 7.003e-05 2.3649e-06)
(0.22826 0.0025092 2.4438e-06)
(0.22108 0.0045927 1.7578e-06)
(0.20941 0.0066987 1.8587e-06)
(0.19325 0.0088379 1.7954e-06)
(0.17271 0.010691 1.6103e-06)
(0.14888 0.011573 1.4862e-06)
(0.12484 0.010581 1.2906e-06)
(0.10621 0.0069458 8.7295e-07)
(0.096475 0.0014867 7.3215e-07)
(0.22058 -0.0029816 0.0014339)
(0.22779 -0.0014655 0.00069129)
(0.23014 4.9795e-05 -5.6763e-05)
(0.22765 0.0016087 -0.00089462)
(0.2205 0.0029969 -0.0015845)
(0.20886 0.0043794 -0.0023272)
(0.19272 0.0057593 -0.0030571)
(0.1723 0.0069578 -0.0036769)
(0.14874 0.0075211 -0.0039601)
(0.12509 0.0068647 -0.0036034)
(0.10686 0.0044883 -0.0023697)
(0.097376 0.00092498 -0.00055945)
(0.22058 -0.0014284 0.0029867)
(0.22779 -0.00068579 0.0014705)
(0.23014 6.1859e-05 -4.5099e-05)
(0.22765 0.00089935 -0.0016042)
(0.2205 0.0015891 -0.0029923)
(0.20886 0.0023313 -0.0043748)
(0.19272 0.0030609 -0.0057547)
(0.1723 0.0036802 -0.0069534)
(0.14874 0.0039628 -0.0075175)
(0.12509 0.0036049 -0.0068627)
(0.10686 0.0023703 -0.0044875)
(0.097376 0.00055969 -0.00092471)
(0.22118 3.6474e-06 0.004613)
(0.22843 3.3421e-06 0.0022856)
(0.23077 2.806e-06 -6.6044e-05)
(0.22826 2.7746e-06 -0.0025052)
(0.22108 1.6395e-06 -0.0045889)
(0.20941 1.3407e-06 -0.0066939)
(0.19325 1.0738e-06 -0.0088322)
(0.17271 6.5231e-07 -0.010686)
(0.14888 -2.7384e-08 -0.011569)
(0.12484 -5.4184e-07 -0.010578)
(0.10621 -7.1573e-07 -0.0069448)
(0.096476 -6.9591e-07 -0.0014864)
(0.22228 0.0013956 0.006255)
(0.22961 0.0008747 0.0031942)
(0.23201 0.00057979 0.00017247)
(0.22944 0.00013084 -0.0030066)
(0.22217 -0.00052613 -0.0058161)
(0.21052 -0.0012591 -0.0085962)
(0.19429 -0.0019739 -0.01148)
(0.17346 -0.0026199 -0.014051)
(0.14903 -0.0029576 -0.01532)
(0.12415 -0.0027382 -0.014086)
(0.10469 -0.0017342 -0.0092579)
(0.094418 -0.00013705 -0.0018854)
(0.22274 0.0012975 0.0069309)
(0.22993 -0.0001821 0.0029311)
(0.23231 -0.0011057 -0.00071064)
(0.22991 -0.0018969 -0.0044832)
(0.22278 -0.0031125 -0.0079241)
(0.21125 -0.004328 -0.011316)
(0.19511 -0.0056935 -0.014931)
(0.17405 -0.0070245 -0.018325)
(0.1489 -0.0077291 -0.020123)
(0.12298 -0.0071734 -0.018629)
(0.10262 -0.004839 -0.01243)
(0.091749 -0.0011664 -0.0028218)
(0.22212 -0.0048364 -0.0028268)
(0.22926 -0.0017723 -0.00056045)
(0.23161 0.00085451 0.0012451)
(0.22925 0.0034377 0.002996)
(0.22216 0.0060017 0.0048298)
(0.21065 0.0085066 0.0066465)
(0.19453 0.011201 0.0086354)
(0.17359 0.013735 0.010505)
(0.14871 0.015054 0.011476)
(0.1232 0.013931 0.010596)
(0.10326 0.0092915 0.0071142)
(0.09269 0.0020575 0.0017516)
(0.22171 -0.0044505 -0.0027733)
(0.22899 -0.0022658 -0.0014079)
(0.2314 -0.00022049 -0.00019657)
(0.22887 0.0019222 0.0011724)
(0.22164 0.0039855 0.0025385)
(0.21001 0.0060327 0.003953)
(0.19378 0.0081413 0.0053827)
(0.17307 0.010012 0.0066417)
(0.14892 0.010933 0.0072636)
(0.12442 0.010038 0.0066657)
(0.10537 0.0065576 0.0043527)
(0.095361 0.0012323 0.00084411)
(0.22057 -0.0029813 -0.0014298)
(0.22779 -0.0014652 -0.00068654)
(0.23013 5.0065e-05 6.1401e-05)
(0.22765 0.0016091 0.00089902)
(0.22049 0.0029968 0.0015882)
(0.20886 0.0043798 0.0023306)
(0.19272 0.0057597 0.0030601)
(0.1723 0.0069583 0.0036796)
(0.14873 0.0075217 0.0039625)
(0.12509 0.0068653 0.0036053)
(0.10686 0.0044889 0.0023709)
(0.097376 0.00092523 0.00056013)
(0.21992 -0.0014801 1.9225e-06)
(0.2271 -0.0007274 2.2577e-06)
(0.22944 1.9287e-05 2.2541e-06)
(0.22697 0.00075066 2.1398e-06)
(0.21985 0.0014416 1.9847e-06)
(0.20824 0.002093 1.6243e-06)
(0.19214 0.0027417 1.4082e-06)
(0.17185 0.0033183 1.2153e-06)
(0.14857 0.0035814 1.1305e-06)
(0.12533 0.0032624 7.607e-07)
(0.1075 0.0021188 3.6446e-07)
(0.098274 0.00038679 2.1363e-07)
(0.21992 3.9113e-06 0.0014855)
(0.2271 3.8121e-06 0.00073288)
(0.22944 3.3779e-06 -1.4172e-05)
(0.22697 2.9063e-06 -0.00074593)
(0.21985 2.5145e-06 -0.0014371)
(0.20824 1.9458e-06 -0.0020891)
(0.19214 1.5865e-06 -0.0027381)
(0.17185 1.3357e-06 -0.003315)
(0.14857 8.3105e-07 -0.0035789)
(0.12533 3.0279e-07 -0.0032608)
(0.1075 -8.2859e-09 -0.0021183)
(0.098274 -3.6882e-08 -0.00038654)
(0.22057 0.001436 0.0029864)
(0.22779 0.00069315 0.00147)
(0.23014 -5.535e-05 -4.5706e-05)
(0.22765 -0.00089346 -0.0016047)
(0.22049 -0.0015846 -0.0029933)
(0.20886 -0.0023276 -0.0043756)
(0.19272 -0.0030579 -0.0057554)
(0.1723 -0.0036782 -0.0069544)
(0.14874 -0.0039616 -0.0075185)
(0.12509 -0.0036047 -0.0068635)
(0.10686 -0.0023706 -0.004488)
(0.097376 -0.00055995 -0.00092507)
(0.22171 0.0027797 0.0044553)
(0.22899 0.0014151 0.0022698)
(0.2314 0.00020348 0.00022422)
(0.22887 -0.0011666 -0.0019188)
(0.22164 -0.002534 -0.0039813)
(0.21001 -0.0039502 -0.0060286)
(0.19378 -0.0053814 -0.0081367)
(0.17307 -0.0066409 -0.010008)
(0.14892 -0.0072632 -0.01093)
(0.12443 -0.0066656 -0.010036)
(0.10537 -0.0043526 -0.0065574)
(0.095362 -0.00084399 -0.0012324)
(0.22212 0.002833 0.0048409)
(0.22926 0.00056822 0.0017754)
(0.23161 -0.0012368 -0.0008516)
(0.22925 -0.0029901 -0.003435)
(0.22216 -0.0048242 -0.0059979)
(0.21065 -0.0066452 -0.008502)
(0.19453 -0.0086357 -0.011196)
(0.17359 -0.010505 -0.01373)
(0.14872 -0.011477 -0.01505)
(0.1232 -0.010597 -0.013929)
(0.10327 -0.0071146 -0.0092909)
(0.092691 -0.0017518 -0.0020574)
(0.22212 -0.0028259 -0.0048375)
(0.22926 -0.00056053 -0.0017719)
(0.23161 0.0012449 0.00085498)
(0.22925 0.0029965 0.0034376)
(0.22216 0.0048317 0.006)
(0.21065 0.0066503 0.0085029)
(0.19453 0.0086401 0.011197)
(0.17359 0.01051 0.01373)
(0.14871 0.01148 0.01505)
(0.1232 0.010599 0.013929)
(0.10326 0.0071149 0.0092906)
(0.092691 0.0017519 0.0020571)
(0.22171 -0.0027717 -0.0044516)
(0.22899 -0.0014072 -0.0022658)
(0.2314 -0.00019615 -0.00022041)
(0.22887 0.0011728 0.0019221)
(0.22164 0.0025392 0.0039844)
(0.21001 0.0039542 0.0060304)
(0.19378 0.0053846 0.0081381)
(0.17307 0.0066435 0.010009)
(0.14892 0.0072651 0.01093)
(0.12442 0.0066666 0.010036)
(0.10537 0.0043529 0.0065571)
(0.095362 0.00084413 0.0012321)
(0.22058 -0.001428 -0.0029827)
(0.22779 -0.00068537 -0.0014658)
(0.23014 6.2185e-05 4.9727e-05)
(0.22765 0.00089977 0.0016086)
(0.22049 0.0015889 0.002996)
(0.20886 0.0023316 0.0043783)
(0.19272 0.0030613 0.0057578)
(0.1723 0.0036807 0.0069562)
(0.14873 0.0039633 0.0075199)
(0.12509 0.0036057 0.0068643)
(0.10686 0.0023708 0.0044886)
(0.097376 0.00056012 0.00092521)
(0.21992 4.114e-06 -0.0014819)
(0.2271 4.0152e-06 -0.00072856)
(0.22944 3.5227e-06 1.8515e-05)
(0.22697 3.0527e-06 0.00074995)
(0.21985 2.6258e-06 0.0014409)
(0.20824 1.9942e-06 0.0020922)
(0.19214 1.6029e-06 0.0027408)
(0.17185 1.3812e-06 0.0033173)
(0.14857 1.0408e-06 0.0035808)
(0.12533 6.7053e-07 0.003262)
(0.1075 1.784e-07 0.0021188)
(0.098274 1.562e-07 0.00038678)
(0.21992 0.0014881 1.749e-06)
(0.2271 0.00073532 2.0959e-06)
(0.22944 -1.2253e-05 2.1504e-06)
(0.22697 -0.00074446 2.0373e-06)
(0.21985 -0.0014363 1.9261e-06)
(0.20824 -0.0020889 1.5906e-06)
(0.19214 -0.0027384 1.3703e-06)
(0.17185 -0.0033155 1.1855e-06)
(0.14857 -0.0035795 9.7797e-07)
(0.12533 -0.0032614 5.1405e-07)
(0.1075 -0.0021186 3.2117e-07)
(0.098274 -0.00038666 1.8082e-07)
(0.22058 0.0029896 0.0014334)
(0.22779 0.0014735 0.00069079)
(0.23014 -4.2666e-05 -5.7156e-05)
(0.22765 -0.0016022 -0.00089461)
(0.2205 -0.0029917 -0.0015854)
(0.20886 -0.004375 -0.0023275)
(0.19272 -0.0057556 -0.0030572)
(0.1723 -0.0069549 -0.0036776)
(0.14874 -0.0075191 -0.0039606)
(0.12509 -0.0068637 -0.0036041)
(0.10686 -0.004488 -0.0023701)
(0.097376 -0.00092492 -0.00055976)
(0.22172 0.004459 0.0027766)
(0.229 0.0022745 0.0014119)
(0.2314 0.00022873 0.00020099)
(0.22888 -0.0019149 -0.0011685)
(0.22165 -0.0039787 -0.0025348)
(0.21001 -0.0060271 -0.0039502)
(0.19379 -0.0081362 -0.0053804)
(0.17308 -0.010008 -0.0066396)
(0.14892 -0.01093 -0.007262)
(0.12443 -0.010036 -0.0066651)
(0.10537 -0.006557 -0.0043527)
(0.095362 -0.0012319 -0.0008446)
(0.22212 0.004845 0.0028302)
(0.22926 0.0017812 0.00056414)
(0.23162 -0.00084573 -0.0012411)
(0.22925 -0.0034307 -0.0029929)
(0.22216 -0.0059943 -0.0048262)
(0.21066 -0.0085007 -0.0066452)
(0.19453 -0.011196 -0.0086345)
(0.17359 -0.01373 -0.010504)
(0.14872 -0.015051 -0.011476)
(0.1232 -0.013929 -0.010597)
(0.10327 -0.0092907 -0.0071153)
(0.092691 -0.002057 -0.0017525)
(0.22274 -0.0012912 -0.006928)
(0.22993 0.00018881 -0.0029276)
(0.23231 0.0011125 0.0007139)
(0.22991 0.0019021 0.0044859)
(0.22278 0.0031189 0.007926)
(0.21125 0.0043318 0.011319)
(0.19511 0.0056965 0.014933)
(0.17405 0.0070268 0.018327)
(0.1489 0.0077308 0.020125)
(0.12298 0.0071736 0.01863)
(0.10262 0.0048387 0.012431)
(0.091749 0.0011664 0.0028219)
(0.22228 -0.0013878 -0.0062509)
(0.22961 -0.00086752 -0.0031899)
(0.23201 -0.00057342 -0.0001688)
(0.22944 -0.00012543 0.0030103)
(0.22217 0.00052969 0.0058186)
(0.21052 0.001262 0.0085979)
(0.19429 0.001976 0.011481)
(0.17346 0.0026206 0.014053)
(0.14903 0.0029582 0.015321)
(0.12415 0.0027384 0.014087)
(0.10469 0.0017336 0.0092578)
(0.094417 0.00013669 0.0018851)
(0.22118 4.2805e-06 -0.0046091)
(0.22843 4.0347e-06 -0.0022811)
(0.23077 3.3271e-06 7.0315e-05)
(0.22826 3.27e-06 0.0025093)
(0.22108 2.1272e-06 0.004592)
(0.20941 1.8661e-06 0.0066968)
(0.19325 1.7381e-06 0.0088346)
(0.17271 1.4317e-06 0.010688)
(0.14888 1.1897e-06 0.01157)
(0.12484 8.7713e-07 0.010579)
(0.10621 5.0431e-07 0.0069456)
(0.096475 5.6397e-07 0.0014867)
(0.22058 0.0014364 -0.002983)
(0.22779 0.00069348 -0.001466)
(0.23014 -5.5198e-05 4.9685e-05)
(0.22765 -0.00089361 0.0016085)
(0.2205 -0.0015842 0.0029963)
(0.20886 -0.0023277 0.0043782)
(0.19272 -0.0030581 0.0057576)
(0.1723 -0.0036781 0.006956)
(0.14874 -0.0039612 0.0075196)
(0.12509 -0.0036044 0.006864)
(0.10686 -0.0023703 0.0044882)
(0.097376 -0.0005597 0.00092494)
(0.22057 0.0029895 -0.0014301)
(0.22779 0.0014733 -0.00068668)
(0.23014 -4.2954e-05 6.1449e-05)
(0.22765 -0.0016028 0.00089887)
(0.2205 -0.0029919 0.001589)
(0.20886 -0.0043756 0.0023308)
(0.19272 -0.0057561 0.00306)
(0.1723 -0.0069553 0.0036799)
(0.14874 -0.0075195 0.0039624)
(0.12509 -0.0068642 0.0036052)
(0.10686 -0.0044884 0.0023708)
(0.097376 -0.00092515 0.00056002)
(0.22118 0.0046165 1.6781e-06)
(0.22843 0.0022895 2.0914e-06)
(0.23077 -6.2732e-05 2.2841e-06)
(0.22826 -0.0025027 2.5098e-06)
(0.22108 -0.0045877 1.909e-06)
(0.20942 -0.006694 1.9989e-06)
(0.19325 -0.0088338 1.8645e-06)
(0.17271 -0.010688 1.5114e-06)
(0.14888 -0.011571 1.1639e-06)
(0.12484 -0.010579 9.2874e-07)
(0.10621 -0.0069454 7.0469e-07)
(0.096475 -0.0014866 6.0057e-07)
(0.22229 0.0062597 0.0013931)
(0.22962 0.0032002 0.00087316)
(0.23202 0.00017797 0.00057986)
(0.22945 -0.0030017 0.00012995)
(0.22218 -0.0058127 -0.0005256)
(0.21053 -0.0085949 -0.0012582)
(0.19429 -0.011479 -0.0019728)
(0.17347 -0.014052 -0.0026179)
(0.14904 -0.01532 -0.0029554)
(0.12415 -0.014086 -0.0027362)
(0.10469 -0.0092578 -0.0017324)
(0.094418 -0.0018851 -0.00013591)
(0.22275 0.0069371 0.0012957)
(0.22994 0.0029391 -0.00018348)
(0.23232 -0.00070249 -0.0011055)
(0.22993 -0.0044768 -0.0018975)
(0.22279 -0.0079206 -0.0031109)
(0.21126 -0.011315 -0.0043256)
(0.19511 -0.014932 -0.00569)
(0.17406 -0.018326 -0.0070208)
(0.14891 -0.020125 -0.0077256)
(0.12298 -0.01863 -0.007171)
(0.10262 -0.012431 -0.0048385)
(0.09175 -0.0028219 -0.0011668)
(0.22407 0.0015071 -0.008626)
(0.23141 0.0025262 -0.003712)
(0.23394 0.0026733 0.00045101)
(0.23143 0.0025413 0.0047892)
(0.22407 0.00285 0.0089608)
(0.21253 0.0032239 0.013197)
(0.19633 0.0038642 0.01766)
(0.175 0.0045255 0.021991)
(0.1492 0.0048409 0.024438)
(0.12231 0.0044272 0.022817)
(0.10098 0.0030726 0.015291)
(0.089407 0.0010991 0.0032842)
(0.22343 3.9679e-06 -0.0081658)
(0.2309 3.7129e-06 -0.0044129)
(0.23338 3.0906e-06 -0.00077863)
(0.23068 2.9758e-06 0.0032885)
(0.22324 1.6984e-06 0.0068682)
(0.21159 1.4678e-06 0.010415)
(0.19531 1.0075e-06 0.014076)
(0.17421 1.2675e-06 0.017419)
(0.14918 1.2156e-06 0.019162)
(0.1234 8.1608e-07 0.017687)
(0.10303 5.7465e-07 0.011612)
(0.092149 4.4679e-07 0.002263)
(0.22229 0.0013966 -0.0062519)
(0.22962 0.00087556 -0.0031906)
(0.23202 0.00058005 -0.00016948)
(0.22945 0.0001315 0.0030093)
(0.22218 -0.00052584 0.0058179)
(0.21053 -0.0012587 0.0085974)
(0.19429 -0.0019735 0.011481)
(0.17347 -0.0026188 0.014052)
(0.14904 -0.0029564 0.01532)
(0.12415 -0.0027373 0.014086)
(0.10469 -0.0017333 0.009258)
(0.094418 -0.00013639 0.0018854)
(0.22172 0.0027804 -0.0044522)
(0.229 0.0014156 -0.0022661)
(0.2314 0.00020355 -0.0002205)
(0.22888 -0.0011672 0.0019223)
(0.22165 -0.0025341 0.0039842)
(0.21001 -0.0039504 0.0060307)
(0.19378 -0.0053816 0.0081382)
(0.17307 -0.0066409 0.010009)
(0.14892 -0.0072632 0.01093)
(0.12443 -0.0066657 0.010036)
(0.10537 -0.0043529 0.006557)
(0.095362 -0.00084448 0.0012319)
(0.22171 0.0044589 -0.0027733)
(0.22899 0.0022743 -0.0014079)
(0.2314 0.00022815 -0.00019667)
(0.22887 -0.0019159 0.0011728)
(0.22164 -0.0039795 0.0025386)
(0.21001 -0.0060282 0.0039534)
(0.19378 -0.0081374 0.0053831)
(0.17307 -0.010009 0.0066417)
(0.14892 -0.010931 0.0072633)
(0.12443 -0.010037 0.0066656)
(0.10537 -0.0065576 0.0043526)
(0.095362 -0.0012326 0.00084408)
(0.22228 0.0062591 -0.00139)
(0.22961 0.0031994 -0.00086917)
(0.23201 0.00017699 -0.00057533)
(0.22944 -0.0030028 -0.00012516)
(0.22217 -0.0058139 0.0005295)
(0.21052 -0.0085965 0.0012623)
(0.19429 -0.011481 0.0019764)
(0.17346 -0.014054 0.0026209)
(0.14903 -0.015322 0.0029579)
(0.12415 -0.014088 0.0027381)
(0.10469 -0.0092583 0.0017335)
(0.094418 -0.0018853 0.00013661)
(0.22343 0.0081746 1.3457e-06)
(0.2309 0.0044232 1.715e-06)
(0.23338 0.00078742 2.1345e-06)
(0.23069 -0.0032804 2.4403e-06)
(0.22324 -0.0068664 1.9049e-06)
(0.21159 -0.010415 2.3513e-06)
(0.19531 -0.014078 2.2179e-06)
(0.17422 -0.017421 1.4523e-06)
(0.14918 -0.019164 6.5644e-07)
(0.1234 -0.01769 1.619e-06)
(0.10303 -0.011613 1.0145e-06)
(0.092149 -0.0022631 7.9215e-07)
(0.22407 0.0086369 -0.0015009)
(0.23142 0.0037253 -0.0025178)
(0.23395 -0.00043824 -0.0026631)
(0.23144 -0.0047797 -0.0025354)
(0.22408 -0.008955 -0.0028414)
(0.21254 -0.013193 -0.0032167)
(0.19633 -0.017657 -0.0038582)
(0.17501 -0.02199 -0.0045193)
(0.14921 -0.024438 -0.004835)
(0.12232 -0.022819 -0.0044221)
(0.10098 -0.015293 -0.0030696)
(0.089407 -0.0032857 -0.0010976)
(0.22579 2.5723e-06 -0.0099288)
(0.23317 2.5646e-06 -0.001771)
(0.23577 2.3868e-06 0.0047567)
(0.23334 2.0523e-06 0.010374)
(0.22598 1.4213e-06 0.015986)
(0.21438 1.4906e-06 0.021483)
(0.19811 8.6294e-07 0.027707)
(0.17651 1.2474e-06 0.034079)
(0.1499 1.3039e-06 0.037853)
(0.12177 8.7459e-07 0.035553)
(0.099068 4.2536e-07 0.024329)
(0.086439 1.0782e-07 0.006289)
(0.22408 -0.0015001 -0.0086255)
(0.23142 -0.00252 -0.0037119)
(0.23395 -0.0026679 0.00045027)
(0.23143 -0.0025365 0.0047886)
(0.22408 -0.0028457 0.0089581)
(0.21253 -0.0032214 0.013195)
(0.19633 -0.0038624 0.017658)
(0.17501 -0.0045237 0.021988)
(0.14921 -0.0048389 0.024435)
(0.12232 -0.0044257 0.022815)
(0.10098 -0.003072 0.015289)
(0.089407 -0.0010989 0.0032838)
(0.22275 0.0012988 -0.0069271)
(0.22994 -0.00018176 -0.0029269)
(0.23232 -0.0011065 0.00071433)
(0.22992 -0.0018974 0.0044856)
(0.22279 -0.0031141 0.0079257)
(0.21126 -0.0043284 0.011318)
(0.19511 -0.0056935 0.014933)
(0.17406 -0.0070244 0.018325)
(0.14891 -0.007729 0.020123)
(0.12298 -0.0071723 0.018629)
(0.10262 -0.0048386 0.01243)
(0.091749 -0.0011665 0.0028221)
(0.22212 0.0028338 -0.0048373)
(0.22926 0.00056874 -0.0017711)
(0.23162 -0.001237 0.00085607)
(0.22925 -0.0029911 0.0034389)
(0.22216 -0.0048252 0.0060017)
(0.21066 -0.0066459 0.0085047)
(0.19453 -0.0086363 0.011199)
(0.17359 -0.010506 0.013731)
(0.14872 -0.011477 0.015051)
(0.1232 -0.010597 0.013929)
(0.10327 -0.0071144 0.0092909)
(0.092691 -0.0017521 0.0020572)
(0.22212 0.0048455 -0.0028269)
(0.22926 0.0017815 -0.00055996)
(0.23161 -0.00084593 0.0012457)
(0.22925 -0.0034306 0.0029973)
(0.22216 -0.005995 0.0048307)
(0.21065 -0.0085016 0.0066484)
(0.19453 -0.011197 0.0086373)
(0.17359 -0.013731 0.010506)
(0.14871 -0.015051 0.011476)
(0.1232 -0.013929 0.010597)
(0.10327 -0.0092907 0.0071146)
(0.092691 -0.0020573 0.0017519)
(0.22274 0.006937 -0.0012929)
(0.22993 0.0029387 0.00018736)
(0.23231 -0.00070358 0.0011102)
(0.22992 -0.0044778 0.0019022)
(0.22278 -0.0079222 0.0031154)
(0.21125 -0.011317 0.0043293)
(0.19511 -0.014934 0.0056932)
(0.17405 -0.018327 0.0070235)
(0.1489 -0.020126 0.0077277)
(0.12298 -0.018631 0.0071707)
(0.10262 -0.012431 0.004838)
(0.091749 -0.0028217 0.0011663)
(0.22406 0.0086361 0.0015033)
(0.23141 0.0037242 0.002521)
(0.23394 -0.00043987 0.0026676)
(0.23143 -0.0047811 0.0025398)
(0.22407 -0.0089578 0.0028464)
(0.21253 -0.013195 0.0032216)
(0.19633 -0.017659 0.0038623)
(0.175 -0.021991 0.0045223)
(0.1492 -0.024439 0.0048369)
(0.12231 -0.022819 0.0044238)
(0.10098 -0.015293 0.0030704)
(0.089407 -0.0032855 0.0010983)
(0.22579 0.0099438 7.81e-07)
(0.23317 0.0017901 1.4491e-06)
(0.23577 -0.0047362 1.9993e-06)
(0.23334 -0.010362 2.1201e-06)
(0.22599 -0.015974 1.9414e-06)
(0.21438 -0.021475 2.2235e-06)
(0.19812 -0.027699 2.4512e-06)
(0.17652 -0.034073 1.7014e-06)
(0.1499 -0.03785 6.795e-07)
(0.12177 -0.035551 8.4237e-07)
(0.099067 -0.02433 2.3692e-07)
(0.086437 -0.0062899 1.5003e-07)
(0.073386 0.0088508 -0.0023825)
(0.091093 0.035362 -0.0076774)
(0.11979 0.049739 -0.01069)
(0.15267 0.050319 -0.010951)
(0.18218 0.042495 -0.0094512)
(0.2047 0.032192 -0.0074541)
(0.22066 0.023265 -0.0058025)
(0.23212 0.015933 -0.0045799)
(0.2397 0.0077632 -0.0033527)
(0.24276 -0.002965 -0.0016628)
(0.24155 -0.015816 0.00048937)
(0.23446 -0.027384 0.0026476)
(0.079078 0.0077154 -0.0015444)
(0.094943 0.031116 -0.0064022)
(0.12147 0.044245 -0.0090535)
(0.15231 0.045335 -0.0091961)
(0.18056 0.038861 -0.0077133)
(0.20276 0.029887 -0.0057211)
(0.21887 0.021858 -0.0039779)
(0.23029 0.015129 -0.0025066)
(0.23754 0.0079011 -0.00090514)
(0.2402 -0.0011943 0.0012298)
(0.23876 -0.012131 0.0036559)
(0.23208 -0.022494 0.0052919)
(0.081135 0.006566 -0.0034201)
(0.096328 0.026895 -0.013914)
(0.12188 0.038485 -0.019849)
(0.152 0.039667 -0.020403)
(0.17982 0.034197 -0.01753)
(0.20192 0.026392 -0.013494)
(0.21814 0.019247 -0.0098136)
(0.22971 0.013161 -0.0066432)
(0.23707 0.0067358 -0.0030751)
(0.23965 -0.001216 0.0015777)
(0.23776 -0.010484 0.006979)
(0.23076 -0.019314 0.011435)
(0.082441 0.0055755 -0.004652)
(0.097228 0.023038 -0.018507)
(0.12225 0.033 -0.026404)
(0.15183 0.033997 -0.02719)
(0.17929 0.029267 -0.023469)
(0.20126 0.022543 -0.018219)
(0.21749 0.016402 -0.013477)
(0.22908 0.011149 -0.0094697)
(0.23643 0.0055161 -0.005153)
(0.23907 -0.0014713 0.00038458)
(0.23723 -0.0095151 0.0069258)
(0.23026 -0.016972 0.013019)
(0.082441 0.0046525 -0.0055751)
(0.097228 0.018509 -0.023037)
(0.12225 0.026406 -0.032999)
(0.15183 0.027192 -0.033996)
(0.17929 0.023472 -0.029266)
(0.20126 0.018221 -0.022542)
(0.21749 0.01348 -0.0164)
(0.22908 0.0094732 -0.011146)
(0.23643 0.005157 -0.0055122)
(0.23907 -0.00037992 0.0014759)
(0.23723 -0.0069209 0.0095202)
(0.23026 -0.013014 0.016978)
(0.081136 0.00342 -0.0065659)
(0.096328 0.013915 -0.026895)
(0.12188 0.01985 -0.038485)
(0.152 0.020405 -0.039666)
(0.17982 0.017533 -0.034197)
(0.20192 0.013497 -0.026391)
(0.21814 0.009816 -0.019246)
(0.22971 0.0066453 -0.01316)
(0.23707 0.0030789 -0.0067327)
(0.23965 -0.0015731 0.0012203)
(0.23776 -0.0069743 0.010489)
(0.23076 -0.01143 0.01932)
(0.079079 0.0015439 -0.0077157)
(0.094944 0.0064009 -0.031116)
(0.12147 0.0090527 -0.044246)
(0.15231 0.0091967 -0.045335)
(0.18056 0.0077152 -0.03886)
(0.20276 0.0057234 -0.029886)
(0.21887 0.0039812 -0.021856)
(0.23029 0.0025104 -0.015128)
(0.23754 0.00090863 -0.0078986)
(0.2402 -0.0012261 0.0011984)
(0.23876 -0.0036517 0.012137)
(0.23208 -0.0052867 0.022503)
(0.073386 0.0023828 -0.008851)
(0.091093 0.0076771 -0.035361)
(0.11979 0.010691 -0.049738)
(0.15267 0.010954 -0.050318)
(0.18218 0.0094559 -0.042493)
(0.2047 0.0074598 -0.032191)
(0.22067 0.0058086 -0.023265)
(0.23213 0.0045864 -0.015932)
(0.2397 0.0033571 -0.0077613)
(0.24276 0.0016665 0.0029685)
(0.24155 -0.00048505 0.015822)
(0.23447 -0.0026443 0.027392)
(0.025018 0.0046167 -0.0007784)
(0.059148 0.020267 -0.0032107)
(0.10704 0.027928 -0.0046196)
(0.15631 0.027724 -0.0049622)
(0.19441 0.022874 -0.0044937)
(0.21762 0.016576 -0.0035726)
(0.23134 0.011116 -0.0025246)
(0.24263 0.0066622 -0.0015572)
(0.25373 0.0017452 -0.00067334)
(0.26109 -0.0050269 0.00034344)
(0.25951 -0.012953 0.0016818)
(0.24769 -0.019414 0.002806)
(0.029315 0.0043966 -0.00080262)
(0.061588 0.018878 -0.0041662)
(0.10753 0.026147 -0.0061327)
(0.15551 0.026172 -0.0066776)
(0.19327 0.021857 -0.0061057)
(0.21675 0.016124 -0.0047783)
(0.23078 0.011048 -0.0031641)
(0.24195 0.0068605 -0.0016273)
(0.25252 0.0022784 -0.00020033)
(0.25953 -0.0038758 0.0013291)
(0.25807 -0.011232 0.003138)
(0.24659 -0.017421 0.0046556)
(0.031363 0.0037492 -0.001875)
(0.062833 0.016276 -0.0085884)
(0.10798 0.022736 -0.012049)
(0.15541 0.023033 -0.012196)
(0.19298 0.019519 -0.010312)
(0.2166 0.014595 -0.0076273)
(0.23083 0.010054 -0.0051108)
(0.24202 0.0062265 -0.0029609)
(0.25236 0.002191 -0.00069805)
(0.25904 -0.0030468 0.0021484)
(0.25742 -0.0093161 0.0053631)
(0.24601 -0.014789 0.0081264)
(0.031895 0.0031565 -0.0027444)
(0.063244 0.013995 -0.011763)
(0.10842 0.019613 -0.016368)
(0.15567 0.019904 -0.01645)
(0.19292 0.016878 -0.013796)
(0.21635 0.012588 -0.010199)
(0.23054 0.0085983 -0.0069974)
(0.24174 0.0052149 -0.0043782)
(0.25207 0.0016583 -0.001564)
(0.25867 -0.0028808 0.0021197)
(0.25705 -0.0082161 0.0064398)
(0.24573 -0.012867 0.010205)
(0.031895 0.0027448 -0.0031562)
(0.063244 0.011764 -0.013994)
(0.10842 0.01637 -0.019611)
(0.15567 0.016451 -0.019903)
(0.19292 0.013798 -0.016876)
(0.21635 0.010202 -0.012585)
(0.23054 0.0070005 -0.0085956)
(0.24174 0.0043814 -0.0052118)
(0.25207 0.0015676 -0.0016548)
(0.25867 -0.0021151 0.0028853)
(0.25705 -0.0064341 0.0082215)
(0.24573 -0.010197 0.012873)
(0.031365 0.0018752 -0.003749)
(0.062834 0.0085894 -0.016275)
(0.10798 0.012051 -0.022734)
(0.15541 0.012199 -0.023031)
(0.19298 0.010316 -0.019516)
(0.2166 0.0076311 -0.014592)
(0.23083 0.0051141 -0.010051)
(0.24202 0.0029636 -0.0062245)
(0.25236 0.00070179 -0.0021885)
(0.25904 -0.0021433 0.0030504)
(0.25742 -0.0053554 0.0093218)
(0.24601 -0.0081158 0.014796)
(0.029317 0.0008027 -0.0043964)
(0.06159 0.0041672 -0.018877)
(0.10753 0.006135 -0.026145)
(0.15551 0.0066812 -0.02617)
(0.19327 0.00611 -0.021853)
(0.21675 0.0047806 -0.016122)
(0.23078 0.0031658 -0.011046)
(0.24195 0.00163 -0.0068583)
(0.25252 0.00020387 -0.0022761)
(0.25953 -0.0013248 0.003879)
(0.25808 -0.0031321 0.011237)
(0.24659 -0.0046465 0.017429)
(0.025021 0.0007783 -0.0046163)
(0.059151 0.003211 -0.020266)