/*--------------------------------*- C++ -*----------------------------------*\
| =========                 |                                                 |
| \\      /  F ield         | foam-extend: Open Source CFD                    |
|  \\    /   O peration     | Version:     4.1-20200408                       |
|   \\  /    A nd           | Web:         http://www.foam-extend.org         |
|    \\/     M anipulation  |                                                 |
\*---------------------------------------------------------------------------*/
FoamFile
{
    version     2.0;
    format      ascii;
    class       volVectorField;
    location    "0.0475000";
    object      U;
}
// * * * * * * * * * * * * * * * * * * * * * * * * * * * * * * * * * * * * * //

dimensions      [0 1 0 0 0 0 0];

internalField   nonuniform List<vector> 
1952
(
(0.0465348 -2.20315e-06 0)
(0.0465345 -3.58362e-06 0)
(0.0465341 -4.98165e-06 0)
(0.0465336 -6.37632e-06 0)
(0.046533 -7.7736e-06 0)
(0.0465323 -9.15698e-06 0)
(0.0465315 -1.05418e-05 0)
(0.0465307 -1.19058e-05 0)
(0.0465299 -1.32709e-05 0)
(0.0465291 -1.46086e-05 0)
(0.0465283 -1.59412e-05 0)
(0.0465276 -1.72382e-05 0)
(0.0465271 -1.85127e-05 0)
(0.0465268 -1.97448e-05 0)
(0.0465268 -2.09408e-05 0)
(0.0465349 -9.43941e-07 0)
(0.046532 -2.20524e-06 0)
(0.0465317 -3.5871e-06 0)
(0.0465313 -4.98635e-06 0)
(0.0465308 -6.38245e-06 0)
(0.0465302 -7.78088e-06 0)
(0.0465295 -9.16569e-06 0)
(0.0465287 -1.05516e-05 0)
(0.0465279 -1.1917e-05 0)
(0.046527 -1.32833e-05 0)
(0.0465262 -1.46223e-05 0)
(0.0465255 -1.59561e-05 0)
(0.0465248 -1.72547e-05 0)
(0.0465243 -1.85306e-05 0)
(0.046524 -1.97644e-05 0)
(0.0465239 -2.09624e-05 0)
(0.0465321 -9.44848e-07 0)
(0.0465291 -2.20772e-06 0)
(0.0465288 -3.59115e-06 0)
(0.0465285 -4.99195e-06 0)
(0.0465279 -6.38967e-06 0)
(0.0465273 -7.78964e-06 0)
(0.0465266 -9.17609e-06 0)
(0.0465259 -1.05635e-05 0)
(0.046525 -1.19306e-05 0)
(0.0465242 -1.32985e-05 0)
(0.0465234 -1.46393e-05 0)
(0.0465226 -1.59746e-05 0)
(0.046522 -1.7275e-05 0)
(0.0465214 -1.85526e-05 0)
(0.0465211 -1.97884e-05 0)
(0.0465211 -2.09882e-05 0)
(0.0465292 -9.45911e-07 0)
(0.0465263 -2.21033e-06 0)
(0.046526 -3.59541e-06 0)
(0.0465256 -4.99787e-06 0)
(0.0465251 -6.39727e-06 0)
(0.0465245 -7.79892e-06 0)
(0.0465238 -9.18705e-06 0)
(0.046523 -1.05762e-05 0)
(0.0465222 -1.1945e-05 0)
(0.0465214 -1.33146e-05 0)
(0.0465205 -1.46572e-05 0)
(0.0465198 -1.59943e-05 0)
(0.0465191 -1.72965e-05 0)
(0.0465186 -1.8576e-05 0)
(0.0465183 -1.98136e-05 0)
(0.0465182 -2.10152e-05 0)
(0.0465264 -9.47032e-07 0)
(0.0465234 -2.21306e-06 0)
(0.0465231 -3.59985e-06 0)
(0.0465228 -5.00405e-06 0)
(0.0465222 -6.4052e-06 0)
(0.0465216 -7.80861e-06 0)
(0.0465209 -9.19851e-06 0)
(0.0465202 -1.05894e-05 0)
(0.0465193 -1.19601e-05 0)
(0.0465185 -1.33314e-05 0)
(0.0465177 -1.46759e-05 0)
(0.0465169 -1.60149e-05 0)
(0.0465162 -1.7319e-05 0)
(0.0465157 -1.86003e-05 0)
(0.0465154 -1.98398e-05 0)
(0.0465154 -2.10432e-05 0)
(0.0465235 -9.48202e-07 0)
(0.0465206 -2.2159e-06 0)
(0.0465203 -3.60447e-06 0)
(0.0465199 -5.01048e-06 0)
(0.0465194 -6.41344e-06 0)
(0.0465188 -7.81868e-06 0)
(0.0465181 -9.21041e-06 0)
(0.0465173 -1.06032e-05 0)
(0.0465165 -1.19757e-05 0)
(0.0465156 -1.3349e-05 0)
(0.0465148 -1.46954e-05 0)
(0.0465141 -1.60362e-05 0)
(0.0465134 -1.73422e-05 0)
(0.0465129 -1.86253e-05 0)
(0.0465126 -1.98667e-05 0)
(0.0465125 -2.10718e-05 0)
(0.0465207 -9.49417e-07 0)
(0.0465177 -2.21883e-06 0)
(0.0465174 -3.60924e-06 0)
(0.0465171 -5.01712e-06 0)
(0.0465165 -6.42196e-06 0)
(0.0465159 -7.82908e-06 0)
(0.0465152 -9.2227e-06 0)
(0.0465145 -1.06173e-05 0)
(0.0465136 -1.19918e-05 0)
(0.0465128 -1.33669e-05 0)
(0.046512 -1.47153e-05 0)
(0.0465112 -1.60579e-05 0)
(0.0465105 -1.73658e-05 0)
(0.04651 -1.86509e-05 0)
(0.0465097 -1.9894e-05 0)
(0.0465096 -2.11009e-05 0)
(0.0465178 -9.50672e-07 0)
(0.0465149 -2.22182e-06 0)
(0.0465146 -3.61411e-06 0)
(0.0465142 -5.0239e-06 0)
(0.0465137 -6.43063e-06 0)
(0.0465131 -7.83969e-06 0)
(0.0465124 -9.23521e-06 0)
(0.0465116 -1.06318e-05 0)
(0.0465108 -1.20082e-05 0)
(0.0465099 -1.33853e-05 0)
(0.0465091 -1.47356e-05 0)
(0.0465083 -1.60801e-05 0)
(0.0465077 -1.73899e-05 0)
(0.0465071 -1.86768e-05 0)
(0.0465068 -1.99218e-05 0)
(0.0465068 -2.11304e-05 0)
(0.046515 -9.51954e-07 0)
(0.046512 -2.22488e-06 0)
(0.0465117 -3.61909e-06 0)
(0.0465113 -5.03082e-06 0)
(0.0465108 -6.43952e-06 0)
(0.0465102 -7.85052e-06 0)
(0.0465095 -9.24801e-06 0)
(0.0465087 -1.06465e-05 0)
(0.0465079 -1.20249e-05 0)
(0.0465071 -1.34039e-05 0)
(0.0465062 -1.47561e-05 0)
(0.0465055 -1.61025e-05 0)
(0.0465048 -1.74142e-05 0)
(0.0465043 -1.87029e-05 0)
(0.046504 -1.99497e-05 0)
(0.0465039 -2.11601e-05 0)
(0.0465121 -9.53264e-07 0)
(0.0465091 -2.22796e-06 0)
(0.0465088 -3.6241e-06 0)
(0.0465085 -5.0378e-06 0)
(0.0465079 -6.44845e-06 0)
(0.0465073 -7.86141e-06 0)
(0.0465066 -9.26086e-06 0)
(0.0465058 -1.06613e-05 0)
(0.046505 -1.20417e-05 0)
(0.0465042 -1.34226e-05 0)
(0.0465033 -1.47768e-05 0)
(0.0465026 -1.61251e-05 0)
(0.0465019 -1.74387e-05 0)
(0.0465014 -1.87292e-05 0)
(0.0465011 -1.99778e-05 0)
(0.046501 -2.119e-05 0)
(0.0465092 -9.54585e-07 0)
(0.0465063 -2.23108e-06 0)
(0.046506 -3.62917e-06 0)
(0.0465056 -5.04485e-06 0)
(0.0465051 -6.45748e-06 0)
(0.0465045 -7.87242e-06 0)
(0.0465037 -9.27384e-06 0)
(0.046503 -1.06762e-05 0)
(0.0465021 -1.20586e-05 0)
(0.0465013 -1.34414e-05 0)
(0.0465005 -1.47976e-05 0)
(0.0464997 -1.61477e-05 0)
(0.046499 -1.74632e-05 0)
(0.0464985 -1.87555e-05 0)
(0.0464982 -2.0006e-05 0)
(0.0464981 -2.122e-05 0)
(0.0465064 -9.55921e-07 0)
(0.0465034 -2.2342e-06 0)
(0.0465031 -3.63425e-06 0)
(0.0465027 -5.0519e-06 0)
(0.0465022 -6.46651e-06 0)
(0.0465016 -7.88343e-06 0)
(0.0465009 -9.28682e-06 0)
(0.0465001 -1.06911e-05 0)
(0.0464993 -1.20755e-05 0)
(0.0464984 -1.34602e-05 0)
(0.0464976 -1.48184e-05 0)
(0.0464968 -1.61704e-05 0)
(0.0464961 -1.74878e-05 0)
(0.0464956 -1.87819e-05 0)
(0.0464953 -2.00343e-05 0)
(0.0464953 -2.125e-05 0)
(0.0465035 -9.57258e-07 0)
(0.0465005 -2.23732e-06 0)
(0.0465002 -3.63934e-06 0)
(0.0464998 -5.05897e-06 0)
(0.0464993 -6.47557e-06 0)
(0.0464987 -7.89446e-06 0)
(0.046498 -9.29982e-06 0)
(0.0464972 -1.07061e-05 0)
(0.0464964 -1.20924e-05 0)
(0.0464955 -1.34791e-05 0)
(0.0464947 -1.48392e-05 0)
(0.0464939 -1.61931e-05 0)
(0.0464933 -1.75123e-05 0)
(0.0464927 -1.88083e-05 0)
(0.0464924 -2.00625e-05 0)
(0.0464924 -2.12801e-05 0)
(0.0465006 -9.58598e-07 0)
(0.0464976 -2.24045e-06 0)
(0.0464973 -3.64441e-06 0)
(0.046497 -5.06603e-06 0)
(0.0464964 -6.48461e-06 0)
(0.0464958 -7.90548e-06 0)
(0.0464951 -9.31282e-06 0)
(0.0464943 -1.0721e-05 0)
(0.0464935 -1.21094e-05 0)
(0.0464926 -1.34979e-05 0)
(0.0464918 -1.486e-05 0)
(0.046491 -1.62157e-05 0)
(0.0464904 -1.75368e-05 0)
(0.0464898 -1.88347e-05 0)
(0.0464895 -2.00906e-05 0)
(0.0464895 -2.131e-05 0)
(0.0464977 -9.59935e-07 0)
(0.0464947 -2.24355e-06 0)
(0.0464944 -3.64947e-06 0)
(0.0464941 -5.07306e-06 0)
(0.0464935 -6.49361e-06 0)
(0.0464929 -7.91644e-06 0)
(0.0464922 -9.32575e-06 0)
(0.0464914 -1.07359e-05 0)
(0.0464906 -1.21262e-05 0)
(0.0464897 -1.35166e-05 0)
(0.0464889 -1.48807e-05 0)
(0.0464881 -1.62382e-05 0)
(0.0464875 -1.75613e-05 0)
(0.0464869 -1.88609e-05 0)
(0.0464866 -2.01187e-05 0)
(0.0464866 -2.134e-05 0)
(0.0464948 -9.61268e-07 0)
(0.0464918 -2.24665e-06 0)
(0.0464915 -3.65451e-06 0)
(0.0464912 -5.08005e-06 0)
(0.0464906 -6.50258e-06 0)
(0.04649 -7.92736e-06 0)
(0.0464893 -9.33863e-06 0)
(0.0464885 -1.07507e-05 0)
(0.0464877 -1.2143e-05 0)
(0.0464869 -1.35353e-05 0)
(0.046486 -1.49013e-05 0)
(0.0464852 -1.62607e-05 0)
(0.0464846 -1.75856e-05 0)
(0.046484 -1.88871e-05 0)
(0.0464837 -2.01467e-05 0)
(0.0464837 -2.13698e-05 0)
(0.0464919 -9.62594e-07 0)
(0.0464889 -2.24972e-06 0)
(0.0464887 -3.6595e-06 0)
(0.0464883 -5.08699e-06 0)
(0.0464877 -6.51146e-06 0)
(0.0464871 -7.93817e-06 0)
(0.0464864 -9.35139e-06 0)
(0.0464856 -1.07653e-05 0)
(0.0464848 -1.21596e-05 0)
(0.0464839 -1.35538e-05 0)
(0.0464831 -1.49217e-05 0)
(0.0464823 -1.62829e-05 0)
(0.0464817 -1.76097e-05 0)
(0.0464811 -1.89131e-05 0)
(0.0464808 -2.01746e-05 0)
(0.0464808 -2.13996e-05 0)
(0.046489 -9.63909e-07 0)
(0.046486 -2.25275e-06 0)
(0.0464857 -3.66443e-06 0)
(0.0464854 -5.09385e-06 0)
(0.0464848 -6.52024e-06 0)
(0.0464842 -7.94887e-06 0)
(0.0464835 -9.364e-06 0)
(0.0464827 -1.07798e-05 0)
(0.0464819 -1.21761e-05 0)
(0.046481 -1.35721e-05 0)
(0.0464802 -1.4942e-05 0)
(0.0464794 -1.63051e-05 0)
(0.0464787 -1.76339e-05 0)
(0.0464782 -1.89391e-05 0)
(0.0464779 -2.02025e-05 0)
(0.0464779 -2.14294e-05 0)
(0.0464861 -9.65209e-07 0)
(0.0464831 -2.25576e-06 0)
(0.0464828 -3.66933e-06 0)
(0.0464825 -5.10065e-06 0)
(0.0464819 -6.52897e-06 0)
(0.0464813 -7.9595e-06 0)
(0.0464806 -9.37658e-06 0)
(0.0464798 -1.07943e-05 0)
(0.046479 -1.21925e-05 0)
(0.0464781 -1.35904e-05 0)
(0.0464773 -1.49623e-05 0)
(0.0464765 -1.63272e-05 0)
(0.0464758 -1.76579e-05 0)
(0.0464753 -1.89649e-05 0)
(0.046475 -2.02302e-05 0)
(0.0464749 -2.1459e-05 0)
(0.0464832 -9.66497e-07 0)
(0.0464802 -2.25873e-06 0)
(0.0464799 -3.67417e-06 0)
(0.0464796 -5.10738e-06 0)
(0.046479 -6.53761e-06 0)
(0.0464784 -7.97003e-06 0)
(0.0464777 -9.38903e-06 0)
(0.0464769 -1.08086e-05 0)
(0.0464761 -1.22088e-05 0)
(0.0464752 -1.36086e-05 0)
(0.0464744 -1.49824e-05 0)
(0.0464736 -1.63492e-05 0)
(0.0464729 -1.76818e-05 0)
(0.0464724 -1.89907e-05 0)
(0.0464721 -2.02579e-05 0)
(0.046472 -2.14886e-05 0)
(0.0464803 -9.67772e-07 0)
(0.0464773 -2.26168e-06 0)
(0.046477 -3.67898e-06 0)
(0.0464766 -5.11406e-06 0)
(0.0464761 -6.54618e-06 0)
(0.0464755 -7.98047e-06 0)
(0.0464748 -9.40137e-06 0)
(0.046474 -1.08228e-05 0)
(0.0464731 -1.22249e-05 0)
(0.0464723 -1.36266e-05 0)
(0.0464715 -1.50024e-05 0)
(0.0464707 -1.6371e-05 0)
(0.04647 -1.77056e-05 0)
(0.0464695 -1.90164e-05 0)
(0.0464692 -2.02855e-05 0)
(0.0464691 -2.15181e-05 0)
(0.0464774 -9.69037e-07 0)
(0.0464744 -2.2646e-06 0)
(0.0464741 -3.68373e-06 0)
(0.0464737 -5.12067e-06 0)
(0.0464732 -6.55467e-06 0)
(0.0464726 -7.99083e-06 0)
(0.0464718 -9.41363e-06 0)
(0.0464711 -1.08369e-05 0)
(0.0464702 -1.2241e-05 0)
(0.0464694 -1.36445e-05 0)
(0.0464685 -1.50223e-05 0)
(0.0464677 -1.63927e-05 0)
(0.0464671 -1.77292e-05 0)
(0.0464665 -1.90419e-05 0)
(0.0464662 -2.03129e-05 0)
(0.0464662 -2.15474e-05 0)
(0.0464745 -9.70288e-07 0)
(0.0464715 -2.2675e-06 0)
(0.0464712 -3.68846e-06 0)
(0.0464708 -5.12724e-06 0)
(0.0464703 -6.56311e-06 0)
(0.0464696 -8.0011e-06 0)
(0.0464689 -9.4258e-06 0)
(0.0464681 -1.08509e-05 0)
(0.0464673 -1.22569e-05 0)
(0.0464664 -1.36622e-05 0)
(0.0464656 -1.5042e-05 0)
(0.0464648 -1.64143e-05 0)
(0.0464641 -1.77527e-05 0)
(0.0464636 -1.90673e-05 0)
(0.0464633 -2.03403e-05 0)
(0.0464632 -2.15768e-05 0)
(0.0464716 -9.71532e-07 0)
(0.0464686 -2.27037e-06 0)
(0.0464683 -3.69313e-06 0)
(0.0464679 -5.13373e-06 0)
(0.0464673 -6.57145e-06 0)
(0.0464667 -8.01125e-06 0)
(0.046466 -9.43782e-06 0)
(0.0464652 -1.08647e-05 0)
(0.0464644 -1.22727e-05 0)
(0.0464635 -1.36798e-05 0)
(0.0464627 -1.50615e-05 0)
(0.0464619 -1.64357e-05 0)
(0.0464612 -1.77761e-05 0)
(0.0464607 -1.90926e-05 0)
(0.0464604 -2.03676e-05 0)
(0.0464603 -2.1606e-05 0)
(0.0464686 -9.72762e-07 0)
(0.0464656 -2.27322e-06 0)
(0.0464653 -3.69777e-06 0)
(0.0464649 -5.14017e-06 0)
(0.0464644 -6.57973e-06 0)
(0.0464638 -8.02134e-06 0)
(0.0464631 -9.44979e-06 0)
(0.0464623 -1.08785e-05 0)
(0.0464614 -1.22884e-05 0)
(0.0464606 -1.36973e-05 0)
(0.0464597 -1.50811e-05 0)
(0.0464589 -1.64571e-05 0)
(0.0464583 -1.77995e-05 0)
(0.0464577 -1.91179e-05 0)
(0.0464574 -2.03948e-05 0)
(0.0464574 -2.16352e-05 0)
(0.0464657 -9.73981e-07 0)
(0.0464627 -2.27605e-06 0)
(0.0464624 -3.70239e-06 0)
(0.046462 -5.14657e-06 0)
(0.0464615 -6.58799e-06 0)
(0.0464609 -8.03138e-06 0)
(0.0464601 -9.46174e-06 0)
(0.0464593 -1.08922e-05 0)
(0.0464585 -1.2304e-05 0)
(0.0464576 -1.37147e-05 0)
(0.0464568 -1.51005e-05 0)
(0.046456 -1.64783e-05 0)
(0.0464553 -1.78227e-05 0)
(0.0464548 -1.9143e-05 0)
(0.0464545 -2.04219e-05 0)
(0.0464544 -2.16643e-05 0)
(0.0464628 -9.75196e-07 0)
(0.0464598 -2.27887e-06 0)
(0.0464595 -3.70698e-06 0)
(0.0464591 -5.15295e-06 0)
(0.0464585 -6.59619e-06 0)
(0.0464579 -8.04134e-06 0)
(0.0464572 -9.47357e-06 0)
(0.0464564 -1.09058e-05 0)
(0.0464555 -1.23196e-05 0)
(0.0464547 -1.37321e-05 0)
(0.0464538 -1.51198e-05 0)
(0.0464531 -1.64995e-05 0)
(0.0464524 -1.78459e-05 0)
(0.0464518 -1.91681e-05 0)
(0.0464515 -2.0449e-05 0)
(0.0464515 -2.16934e-05 0)
(0.0464599 -9.76403e-07 0)
(0.0464568 -2.2817e-06 0)
(0.0464565 -3.71159e-06 0)
(0.0464561 -5.15934e-06 0)
(0.0464556 -6.60444e-06 0)
(0.046455 -8.05133e-06 0)
(0.0464542 -9.48548e-06 0)
(0.0464535 -1.09194e-05 0)
(0.0464526 -1.23352e-05 0)
(0.0464517 -1.37494e-05 0)
(0.0464509 -1.51391e-05 0)
(0.0464501 -1.65206e-05 0)
(0.0464494 -1.7869e-05 0)
(0.0464489 -1.91932e-05 0)
(0.0464486 -2.04761e-05 0)
(0.0464485 -2.17226e-05 0)
(0.0464569 -9.77617e-07 0)
(0.0464539 -2.28454e-06 0)
(0.0464536 -3.71622e-06 0)
(0.0464532 -5.16576e-06 0)
(0.0464526 -6.61271e-06 0)
(0.046452 -8.06134e-06 0)
(0.0464513 -9.49739e-06 0)
(0.0464505 -1.0933e-05 0)
(0.0464497 -1.23508e-05 0)
(0.0464488 -1.37668e-05 0)
(0.0464479 -1.51585e-05 0)
(0.0464472 -1.65418e-05 0)
(0.0464465 -1.78922e-05 0)
(0.0464459 -1.92183e-05 0)
(0.0464456 -2.05033e-05 0)
(0.0464456 -2.17519e-05 0)
(0.046454 -9.78836e-07 0)
(0.0464509 -2.28744e-06 0)
(0.0464506 -3.72095e-06 0)
(0.0464502 -5.17229e-06 0)
(0.0464497 -6.62113e-06 0)
(0.0464491 -8.07151e-06 0)
(0.0464483 -9.50949e-06 0)
(0.0464476 -1.09468e-05 0)
(0.0464467 -1.23665e-05 0)
(0.0464458 -1.37843e-05 0)
(0.046445 -1.5178e-05 0)
(0.0464442 -1.65631e-05 0)
(0.0464435 -1.79155e-05 0)
(0.046443 -1.92437e-05 0)
(0.0464427 -2.05307e-05 0)
(0.0464426 -2.17814e-05 0)
(0.046451 -9.80081e-07 0)
(0.046448 -2.29043e-06 0)
(0.0464477 -3.72581e-06 0)
(0.0464473 -5.179e-06 0)
(0.0464467 -6.62976e-06 0)
(0.0464461 -8.08191e-06 0)
(0.0464454 -9.52185e-06 0)
(0.0464446 -1.09609e-05 0)
(0.0464437 -1.23826e-05 0)
(0.0464429 -1.38021e-05 0)
(0.046442 -1.51978e-05 0)
(0.0464412 -1.65847e-05 0)
(0.0464405 -1.79392e-05 0)
(0.04644 -1.92693e-05 0)
(0.0464397 -2.05584e-05 0)
(0.0464396 -2.18113e-05 0)
(0.0464481 -9.8136e-07 0)
(0.046445 -2.29355e-06 0)
(0.0464447 -3.73089e-06 0)
(0.0464443 -5.18599e-06 0)
(0.0464438 -6.63875e-06 0)
(0.0464432 -8.09272e-06 0)
(0.0464424 -9.53466e-06 0)
(0.0464416 -1.09754e-05 0)
(0.0464408 -1.23992e-05 0)
(0.0464399 -1.38203e-05 0)
(0.0464391 -1.52182e-05 0)
(0.0464383 -1.66069e-05 0)
(0.0464376 -1.79634e-05 0)
(0.046437 -1.92955e-05 0)
(0.0464367 -2.05867e-05 0)
(0.0464367 -2.18419e-05 0)
(0.0464451 -9.827e-07 0)
(0.0464421 -2.29687e-06 0)
(0.0464418 -3.73628e-06 0)
(0.0464414 -5.19342e-06 0)
(0.0464408 -6.64828e-06 0)
(0.0464402 -8.10415e-06 0)
(0.0464395 -9.54819e-06 0)
(0.0464387 -1.09907e-05 0)
(0.0464378 -1.24166e-05 0)
(0.0464369 -1.38394e-05 0)
(0.0464361 -1.52394e-05 0)
(0.0464353 -1.66298e-05 0)
(0.0464346 -1.79883e-05 0)
(0.0464341 -1.93225e-05 0)
(0.0464338 -2.06158e-05 0)
(0.0464337 -2.18731e-05 0)
(0.0464422 -9.84124e-07 0)
(0.0464391 -2.30049e-06 0)
(0.0464388 -3.74216e-06 0)
(0.0464384 -5.20149e-06 0)
(0.0464379 -6.65862e-06 0)
(0.0464372 -8.11648e-06 0)
(0.0464365 -9.56275e-06 0)
(0.0464357 -1.1007e-05 0)
(0.0464348 -1.24351e-05 0)
(0.046434 -1.38596e-05 0)
(0.0464331 -1.52616e-05 0)
(0.0464323 -1.66538e-05 0)
(0.0464316 -1.80143e-05 0)
(0.0464311 -1.93504e-05 0)
(0.0464308 -2.06458e-05 0)
(0.0464307 -2.19054e-05 0)
(0.0464392 -9.85677e-07 0)
(0.0464361 -2.30449e-06 0)
(0.0464358 -3.74865e-06 0)
(0.0464354 -5.21038e-06 0)
(0.0464349 -6.66997e-06 0)
(0.0464343 -8.12999e-06 0)
(0.0464335 -9.57861e-06 0)
(0.0464327 -1.10247e-05 0)
(0.0464319 -1.2455e-05 0)
(0.046431 -1.38813e-05 0)
(0.0464301 -1.52854e-05 0)
(0.0464293 -1.66793e-05 0)
(0.0464286 -1.80418e-05 0)
(0.0464281 -1.93798e-05 0)
(0.0464278 -2.06773e-05 0)
(0.0464277 -2.19392e-05 0)
(0.0464362 -9.87394e-07 0)
(0.0464332 -2.30903e-06 0)
(0.0464329 -3.75599e-06 0)
(0.0464325 -5.22041e-06 0)
(0.0464319 -6.68273e-06 0)
(0.0464313 -8.14512e-06 0)
(0.0464306 -9.59628e-06 0)
(0.0464298 -1.10444e-05 0)
(0.0464289 -1.2477e-05 0)
(0.046428 -1.3905e-05 0)
(0.0464272 -1.53112e-05 0)
(0.0464264 -1.67068e-05 0)
(0.0464257 -1.80713e-05 0)
(0.0464251 -1.94111e-05 0)
(0.0464248 -2.07107e-05 0)
(0.0464247 -2.1975e-05 0)
(0.0464333 -9.89338e-07 0)
(0.0464302 -2.31422e-06 0)
(0.0464299 -3.76438e-06 0)
(0.0464295 -5.23185e-06 0)
(0.046429 -6.69726e-06 0)
(0.0464283 -8.16229e-06 0)
(0.0464276 -9.61626e-06 0)
(0.0464268 -1.10666e-05 0)
(0.0464259 -1.25017e-05 0)
(0.046425 -1.39314e-05 0)
(0.0464242 -1.53398e-05 0)
(0.0464234 -1.6737e-05 0)
(0.0464227 -1.81035e-05 0)
(0.0464221 -1.94451e-05 0)
(0.0464218 -2.07467e-05 0)
(0.0464217 -2.20132e-05 0)
(0.0464303 -9.91565e-07 0)
(0.0464272 -2.32026e-06 0)
(0.0464269 -3.77415e-06 0)
(0.0464265 -5.24516e-06 0)
(0.046426 -6.71413e-06 0)
(0.0464253 -8.18217e-06 0)
(0.0464246 -9.63933e-06 0)
(0.0464238 -1.10921e-05 0)
(0.0464229 -1.25298e-05 0)
(0.0464221 -1.39615e-05 0)
(0.0464212 -1.5372e-05 0)
(0.0464204 -1.67708e-05 0)
(0.0464197 -1.81393e-05 0)
(0.0464191 -1.94825e-05 0)
(0.0464188 -2.07859e-05 0)
(0.0464187 -2.20548e-05 0)
(0.0464273 -9.9416e-07 0)
(0.0464242 -2.32738e-06 0)
(0.0464239 -3.78564e-06 0)
(0.0464235 -5.2608e-06 0)
(0.046423 -6.73392e-06 0)
(0.0464224 -8.20547e-06 0)
(0.0464216 -9.66628e-06 0)
(0.0464208 -1.11217e-05 0)
(0.0464199 -1.25624e-05 0)
(0.0464191 -1.39961e-05 0)
(0.0464182 -1.54088e-05 0)
(0.0464174 -1.68092e-05 0)
(0.0464167 -1.81795e-05 0)
(0.0464161 -1.95242e-05 0)
(0.0464158 -2.08294e-05 0)
(0.0464157 -2.21004e-05 0)
(0.0464243 -9.97212e-07 0)
(0.0464212 -2.3358e-06 0)
(0.0464209 -3.79925e-06 0)
(0.0464205 -5.27933e-06 0)
(0.04642 -6.75733e-06 0)
(0.0464194 -8.23302e-06 0)
(0.0464186 -9.69804e-06 0)
(0.0464178 -1.11567e-05 0)
(0.046417 -1.26007e-05 0)
(0.0464161 -1.40365e-05 0)
(0.0464152 -1.54517e-05 0)
(0.0464144 -1.68534e-05 0)
(0.0464137 -1.82254e-05 0)
(0.0464131 -1.95716e-05 0)
(0.0464128 -2.08783e-05 0)
(0.0464127 -2.21513e-05 0)
(0.0464213 -1.00083e-06 0)
(0.0464182 -2.34582e-06 0)
(0.0464179 -3.81542e-06 0)
(0.0464175 -5.30137e-06 0)
(0.046417 -6.78514e-06 0)
(0.0464164 -8.26578e-06 0)
(0.0464156 -9.73575e-06 0)
(0.0464148 -1.11981e-05 0)
(0.046414 -1.2646e-05 0)
(0.0464131 -1.40842e-05 0)
(0.0464122 -1.5502e-05 0)
(0.0464114 -1.69051e-05 0)
(0.0464107 -1.82788e-05 0)
(0.0464101 -1.9626e-05 0)
(0.0464098 -2.09339e-05 0)
(0.0464096 -2.22088e-05 0)
(0.0464183 -1.00513e-06 0)
(0.0464152 -2.3577e-06 0)
(0.0464149 -3.83461e-06 0)
(0.0464145 -5.32753e-06 0)
(0.046414 -6.81817e-06 0)
(0.0464134 -8.30475e-06 0)
(0.0464126 -9.7806e-06 0)
(0.0464118 -1.12475e-05 0)
(0.0464109 -1.26999e-05 0)
(0.0464101 -1.41409e-05 0)
(0.0464092 -1.55618e-05 0)
(0.0464084 -1.69662e-05 0)
(0.0464076 -1.83414e-05 0)
(0.0464071 -1.96892e-05 0)
(0.0464067 -2.0998e-05 0)
(0.0464066 -2.22745e-05 0)
(0.0464153 -1.01022e-06 0)
(0.0464122 -2.37175e-06 0)
(0.0464119 -3.85731e-06 0)
(0.0464115 -5.35855e-06 0)
(0.046411 -6.85732e-06 0)
(0.0464103 -8.35109e-06 0)
(0.0464096 -9.83394e-06 0)
(0.0464088 -1.13063e-05 0)
(0.0464079 -1.27642e-05 0)
(0.0464071 -1.42086e-05 0)
(0.0464062 -1.56329e-05 0)
(0.0464054 -1.70387e-05 0)
(0.0464046 -1.84155e-05 0)
(0.0464041 -1.97637e-05 0)
(0.0464037 -2.10729e-05 0)
(0.0464036 -2.23505e-05 0)
(0.0464123 -1.01625e-06 0)
(0.0464092 -2.38818e-06 0)
(0.0464089 -3.88388e-06 0)
(0.0464085 -5.39492e-06 0)
(0.0464079 -6.90329e-06 0)
(0.0464073 -8.40566e-06 0)
(0.0464066 -9.89687e-06 0)
(0.0464058 -1.1376e-05 0)
(0.0464049 -1.28405e-05 0)
(0.046404 -1.42892e-05 0)
(0.0464032 -1.57179e-05 0)
(0.0464023 -1.71254e-05 0)
(0.0464016 -1.85041e-05 0)
(0.046401 -1.98522e-05 0)
(0.0464007 -2.11615e-05 0)
(0.0464005 -2.24395e-05 0)
(0.0464093 -1.0233e-06 0)
(0.0464061 -2.40719e-06 0)
(0.0464058 -3.91465e-06 0)
(0.0464054 -5.43714e-06 0)
(0.0464049 -6.95677e-06 0)
(0.0464043 -8.46939e-06 0)
(0.0464035 -9.97062e-06 0)
(0.0464027 -1.14581e-05 0)
(0.0464019 -1.29308e-05 0)
(0.046401 -1.4385e-05 0)
(0.0464001 -1.58194e-05 0)
(0.0463993 -1.72293e-05 0)
(0.0463986 -1.86105e-05 0)
(0.046398 -1.99581e-05 0)
(0.0463976 -2.1267e-05 0)
(0.0463975 -2.25443e-05 0)
(0.0464062 -1.03145e-06 0)
(0.046403 -2.42885e-06 0)
(0.0464027 -3.94975e-06 0)
(0.0464023 -5.48546e-06 0)
(0.0464018 -7.0181e-06 0)
(0.0464012 -8.54287e-06 0)
(0.0464005 -1.00559e-05 0)
(0.0463997 -1.15536e-05 0)
(0.0463988 -1.30364e-05 0)
(0.046398 -1.44981e-05 0)
(0.0463971 -1.59401e-05 0)
(0.0463963 -1.73537e-05 0)
(0.0463956 -1.87388e-05 0)
(0.046395 -2.00864e-05 0)
(0.0463946 -2.13947e-05 0)
(0.0463944 -2.26699e-05 0)
(0.0464031 -1.04074e-06 0)
(0.0463999 -2.45305e-06 0)
(0.0463996 -3.98903e-06 0)
(0.0463992 -5.53967e-06 0)
(0.0463987 -7.08712e-06 0)
(0.0463981 -8.62594e-06 0)
(0.0463974 -1.01529e-05 0)
(0.0463966 -1.16631e-05 0)
(0.0463958 -1.31583e-05 0)
(0.0463949 -1.463e-05 0)
(0.0463941 -1.60822e-05 0)
(0.0463933 -1.75022e-05 0)
(0.0463925 -1.88943e-05 0)
(0.0463919 -2.02441e-05 0)
(0.0463916 -2.15541e-05 0)
(0.0463914 -2.2828e-05 0)
(0.0464 -1.05112e-06 0)
(0.0463967 -2.47952e-06 0)
(0.0463965 -4.03206e-06 0)
(0.0463961 -5.59924e-06 0)
(0.0463956 -7.16316e-06 0)
(0.046395 -8.71797e-06 0)
(0.0463943 -1.02608e-05 0)
(0.0463935 -1.17858e-05 0)
(0.0463927 -1.3296e-05 0)
(0.0463919 -1.47804e-05 0)
(0.046391 -1.62465e-05 0)
(0.0463902 -1.76765e-05 0)
(0.0463895 -1.90805e-05 0)
(0.0463889 -2.04376e-05 0)
(0.0463885 -2.17565e-05 0)
(0.0463883 -2.30359e-05 0)
(0.0463968 -1.06247e-06 0)
(0.0463935 -2.50769e-06 0)
(0.0463933 -4.07791e-06 0)
(0.0463929 -5.66287e-06 0)
(0.0463924 -7.24461e-06 0)
(0.0463918 -8.81702e-06 0)
(0.0463911 -1.03774e-05 0)
(0.0463904 -1.19194e-05 0)
(0.0463896 -1.34468e-05 0)
(0.0463888 -1.49469e-05 0)
(0.0463879 -1.64299e-05 0)
(0.0463872 -1.78734e-05 0)
(0.0463864 -1.92941e-05 0)
(0.0463859 -2.06634e-05 0)
(0.0463855 -2.19983e-05 0)
(0.0463853 -2.32907e-05 0)
(0.0463936 -1.07454e-06 0)
(0.0463903 -2.53675e-06 0)
(0.0463901 -4.12526e-06 0)
(0.0463897 -5.72876e-06 0)
(0.0463892 -7.32916e-06 0)
(0.0463886 -8.92028e-06 0)
(0.046388 -1.04994e-05 0)
(0.0463872 -1.206e-05 0)
(0.0463864 -1.36064e-05 0)
(0.0463856 -1.51243e-05 0)
(0.0463848 -1.66266e-05 0)
(0.0463841 -1.80858e-05 0)
(0.0463834 -1.95257e-05 0)
(0.0463828 -2.09082e-05 0)
(0.0463824 -2.22604e-05 0)
(0.0463822 -2.3565e-05 0)
(0.0463904 -1.08699e-06 0)
(0.0463871 -2.5656e-06 0)
(0.0463868 -4.17232e-06 0)
(0.0463864 -5.7944e-06 0)
(0.046386 -7.41354e-06 0)
(0.0463854 -9.0238e-06 0)
(0.0463848 -1.06221e-05 0)
(0.046384 -1.22022e-05 0)
(0.0463833 -1.37684e-05 0)
(0.0463825 -1.53055e-05 0)
(0.0463817 -1.68282e-05 0)
(0.046381 -1.83045e-05 0)
(0.0463803 -1.97653e-05 0)
(0.0463798 -2.11603e-05 0)
(0.0463794 -2.25305e-05 0)
(0.0463792 -2.38447e-05 0)
(0.0463872 -1.09935e-06 0)
(0.0463838 -2.59286e-06 0)
(0.0463835 -4.21683e-06 0)
(0.0463832 -5.85662e-06 0)
(0.0463827 -7.4937e-06 0)
(0.0463821 -9.1225e-06 0)
(0.0463815 -1.07394e-05 0)
(0.0463808 -1.23391e-05 0)
(0.0463801 -1.39248e-05 0)
(0.0463793 -1.54819e-05 0)
(0.0463786 -1.70253e-05 0)
(0.0463779 -1.85194e-05 0)
(0.0463772 -2.00016e-05 0)
(0.0463767 -2.1408e-05 0)
(0.0463763 -2.27977e-05 0)
(0.0463761 -2.41172e-05 0)
(0.0463838 -1.11103e-06 0)
(0.0463804 -2.61699e-06 0)
(0.0463802 -4.25626e-06 0)
(0.0463798 -5.91186e-06 0)
(0.0463794 -7.56499e-06 0)
(0.0463788 -9.21068e-06 0)
(0.0463782 -1.08444e-05 0)
(0.0463776 -1.24624e-05 0)
(0.0463768 -1.40662e-05 0)
(0.0463761 -1.56427e-05 0)
(0.0463754 -1.72057e-05 0)
(0.0463747 -1.87181e-05 0)
(0.0463741 -2.02211e-05 0)
(0.0463736 -2.16387e-05 0)
(0.0463733 -2.30502e-05 0)
(0.0463731 -2.43689e-05 0)
(0.0463805 -1.12136e-06 0)
(0.046377 -2.63619e-06 0)
(0.0463768 -4.28767e-06 0)
(0.0463764 -5.95595e-06 0)
(0.046376 -7.62196e-06 0)
(0.0463755 -9.28142e-06 0)
(0.0463749 -1.09288e-05 0)
(0.0463743 -1.25622e-05 0)
(0.0463736 -1.41811e-05 0)
(0.0463729 -1.57752e-05 0)
(0.0463722 -1.73552e-05 0)
(0.0463715 -1.88859e-05 0)
(0.046371 -2.04081e-05 0)
(0.0463706 -2.18398e-05 0)
(0.0463703 -2.32729e-05 0)
(0.0463701 -2.45797e-05 0)
(0.0463771 -1.12958e-06 0)
(0.0463736 -2.64856e-06 0)
(0.0463734 -4.30792e-06 0)
(0.046373 -5.98449e-06 0)
(0.0463726 -7.65892e-06 0)
(0.0463721 -9.32769e-06 0)
(0.0463715 -1.09842e-05 0)
(0.0463709 -1.26286e-05 0)
(0.0463703 -1.42583e-05 0)
(0.0463696 -1.58665e-05 0)
(0.0463689 -1.74599e-05 0)
(0.0463684 -1.90077e-05 0)
(0.0463678 -2.05456e-05 0)
(0.0463675 -2.19914e-05 0)
(0.0463673 -2.3436e-05 0)
(0.0463672 -2.47151e-05 0)
(0.0463737 -1.13487e-06 0)
(0.0463701 -2.65233e-06 0)
(0.0463699 -4.3142e-06 0)
(0.0463696 -5.99371e-06 0)
(0.0463692 -7.67131e-06 0)
(0.0463687 -9.34447e-06 0)
(0.0463682 -1.10054e-05 0)
(0.0463676 -1.26563e-05 0)
(0.0463669 -1.4291e-05 0)
(0.0463663 -1.59068e-05 0)
(0.0463657 -1.75057e-05 0)
(0.0463651 -1.90622e-05 0)
(0.0463647 -2.06028e-05 0)
(0.0463644 -2.20476e-05 0)
(0.0463643 -2.34805e-05 0)
(0.0463644 -2.47184e-05 0)
(0.0463702 -1.13648e-06 0)
(0.0463666 -2.64702e-06 0)
(0.0463664 -4.30563e-06 0)
(0.0463661 -5.98207e-06 0)
(0.0463657 -7.65655e-06 0)
(0.0463653 -9.32753e-06 0)
(0.0463647 -1.09857e-05 0)
(0.0463642 -1.26339e-05 0)
(0.0463636 -1.42615e-05 0)
(0.046363 -1.587e-05 0)
(0.0463624 -1.74547e-05 0)
(0.0463619 -1.89972e-05 0)
(0.0463616 -2.05141e-05 0)
(0.0463614 -2.19332e-05 0)
(0.0463614 -2.33298e-05 0)
(0.0463617 -2.45187e-05 0)
(0.0463667 -1.13418e-06 0)
(0.0463631 -2.63013e-06 0)
(0.0463629 -4.27763e-06 0)
(0.0463626 -5.94189e-06 0)
(0.0463623 -7.60231e-06 0)
(0.0463618 -9.25765e-06 0)
(0.0463613 -1.08962e-05 0)
(0.0463608 -1.25223e-05 0)
(0.0463602 -1.41216e-05 0)
(0.0463597 -1.56988e-05 0)
(0.0463592 -1.72432e-05 0)
(0.0463588 -1.87444e-05 0)
(0.0463585 -2.02096e-05 0)
(0.0463585 -2.15803e-05 0)
(0.0463586 -2.2919e-05 0)
(0.0463591 -2.40544e-05 0)
(0.0463632 -1.12695e-06 0)
(0.0463596 -2.59177e-06 0)
(0.0463595 -4.21367e-06 0)
(0.0463592 -5.84969e-06 0)
(0.0463588 -7.478e-06 0)
(0.0463584 -9.09736e-06 0)
(0.046358 -1.0694e-05 0)
(0.0463575 -1.2274e-05 0)
(0.046357 -1.38202e-05 0)
(0.0463565 -1.5341e-05 0)
(0.0463561 -1.682e-05 0)
(0.0463557 -1.82562e-05 0)
(0.0463556 -1.96468e-05 0)
(0.0463556 -2.09509e-05 0)
(0.046356 -2.22149e-05 0)
(0.0463566 -2.32947e-05 0)
(0.0463597 -1.11056e-06 0)
(0.0463562 -2.52029e-06 0)
(0.046356 -4.09529e-06 0)
(0.0463558 -5.68095e-06 0)
(0.0463555 -7.2543e-06 0)
(0.0463551 -8.8143e-06 0)
(0.0463547 -1.03456e-05 0)
(0.0463543 -1.18561e-05 0)
(0.0463538 -1.33263e-05 0)
(0.0463534 -1.47687e-05 0)
(0.0463531 -1.61619e-05 0)
(0.0463529 -1.75146e-05 0)
(0.0463528 -1.88143e-05 0)
(0.046353 -2.00403e-05 0)
(0.0463535 -2.12208e-05 0)
(0.0463544 -2.22485e-05 0)
(0.0463563 -1.08004e-06 0)
(0.0463529 -2.4079e-06 0)
(0.0463527 -3.91063e-06 0)
(0.0463525 -5.42085e-06 0)
(0.0463522 -6.915e-06 0)
(0.0463519 -8.3924e-06 0)
(0.0463516 -9.8366e-06 0)
(0.0463512 -1.12571e-05 0)
(0.0463508 -1.26325e-05 0)
(0.0463505 -1.39795e-05 0)
(0.0463503 -1.52723e-05 0)
(0.0463502 -1.65292e-05 0)
(0.0463502 -1.77284e-05 0)
(0.0463505 -1.88708e-05 0)
(0.0463512 -1.99655e-05 0)
(0.0463522 -2.09471e-05 0)
(0.0463529 -1.03201e-06 0)
(0.0463497 -2.25333e-06 0)
(0.0463496 -3.65824e-06 0)
(0.0463494 -5.06853e-06 0)
(0.0463492 -6.46087e-06 0)
(0.0463489 -7.83499e-06 0)
(0.0463486 -9.1739e-06 0)
(0.0463484 -1.04882e-05 0)
(0.0463481 -1.17551e-05 0)
(0.0463478 -1.29948e-05 0)
(0.0463477 -1.41781e-05 0)
(0.0463477 -1.5332e-05 0)
(0.0463479 -1.64265e-05 0)
(0.0463483 -1.74837e-05 0)
(0.0463491 -1.84935e-05 0)
(0.0463503 -1.94342e-05 0)
(0.0463498 -9.65878e-07 0)
(0.0463468 -2.06257e-06 0)
(0.0463467 -3.34798e-06 0)
(0.0463466 -4.63784e-06 0)
(0.0463464 -5.90988e-06 0)
(0.0463462 -7.1643e-06 0)
(0.046346 -8.384e-06 0)
(0.0463458 -9.58024e-06 0)
(0.0463456 -1.07294e-05 0)
(0.0463454 -1.18544e-05 0)
(0.0463454 -1.29232e-05 0)
(0.0463454 -1.39708e-05 0)
(0.0463457 -1.49597e-05 0)
(0.0463463 -1.59318e-05 0)
(0.0463472 -1.68587e-05 0)
(0.0463485 -1.77615e-05 0)
(0.0463469 -8.84162e-07 0)
(0.0463442 -1.84723e-06 0)
(0.0463442 -2.99844e-06 0)
(0.046344 -4.15387e-06 0)
(0.0463439 -5.29306e-06 0)
(0.0463438 -6.4166e-06 0)
(0.0463436 -7.50786e-06 0)
(0.0463434 -8.57841e-06 0)
(0.0463433 -9.60436e-06 0)
(0.0463433 -1.06105e-05 0)
(0.0463433 -1.15628e-05 0)
(0.0463435 -1.25028e-05 0)
(0.0463438 -1.33867e-05 0)
(0.0463445 -1.42742e-05 0)
(0.0463455 -1.51201e-05 0)
(0.0463469 -1.59858e-05 0)
(0.0463443 -7.91858e-07 0)
(0.046342 -1.62186e-06 0)
(0.0463419 -2.6327e-06 0)
(0.0463418 -3.64755e-06 0)
(0.0463417 -4.64813e-06 0)
(0.0463416 -5.63545e-06 0)
(0.0463415 -6.59384e-06 0)
(0.0463414 -7.53498e-06 0)
(0.0463414 -8.43537e-06 0)
(0.0463414 -9.32103e-06 0)
(0.0463415 -1.01568e-05 0)
(0.0463417 -1.0989e-05 0)
(0.0463422 -1.17697e-05 0)
(0.0463429 -1.25728e-05 0)
(0.0463439 -1.33386e-05 0)
(0.0463454 -1.41652e-05 0)
(0.046342 -6.95226e-07 0)
(0.04634 -1.40078e-06 0)
(0.04634 -2.27356e-06 0)
(0.0463399 -3.14954e-06 0)
(0.0463399 -4.01275e-06 0)
(0.0463398 -4.8645e-06 0)
(0.0463397 -5.69049e-06 0)
(0.0463397 -6.50249e-06 0)
(0.0463397 -7.27805e-06 0)
(0.0463398 -8.04379e-06 0)
(0.04634 -8.76448e-06 0)
(0.0463403 -9.48991e-06 0)
(0.0463407 -1.01692e-05 0)
(0.0463415 -1.08875e-05 0)
(0.0463426 -1.15739e-05 0)
(0.046344 -1.23574e-05 0)
(0.04634 -6.00444e-07 0)
(0.0463384 -1.19545e-06 0)
(0.0463384 -1.93949e-06 0)
(0.0463384 -2.68513e-06 0)
(0.0463383 -3.41854e-06 0)
(0.0463383 -4.14116e-06 0)
(0.0463383 -4.84029e-06 0)
(0.0463383 -5.52763e-06 0)
(0.0463383 -6.18239e-06 0)
(0.0463385 -6.83128e-06 0)
(0.0463387 -7.44007e-06 0)
(0.046339 -8.06054e-06 0)
(0.0463396 -8.64097e-06 0)
(0.0463403 -9.27386e-06 0)
(0.0463414 -9.88102e-06 0)
(0.0463428 -1.06157e-05 0)
(0.0463384 -5.12444e-07 0)
(0.0463371 -1.01285e-06 0)
(0.0463371 -1.64206e-06 0)
(0.0463371 -2.27078e-06 0)
(0.0463371 -2.88704e-06 0)
(0.0463371 -3.4921e-06 0)
(0.0463371 -4.07481e-06 0)
(0.0463371 -4.6465e-06 0)
(0.0463372 -5.18833e-06 0)
(0.0463374 -5.72647e-06 0)
(0.0463376 -6.22869e-06 0)
(0.046338 -6.74749e-06 0)
(0.0463386 -7.23229e-06 0)
(0.0463394 -7.77945e-06 0)
(0.0463404 -8.30772e-06 0)
(0.0463417 -8.98717e-06 0)