/*--------------------------------*- C++ -*----------------------------------*\
| =========                 |                                                 |
| \\      /  F ield         | foam-extend: Open Source CFD                    |
|  \\    /   O peration     | Version:     4.1-20200408                       |
|   \\  /    A nd           | Web:         http://www.foam-extend.org         |
|    \\/     M anipulation  |                                                 |
\*---------------------------------------------------------------------------*/
FoamFile
{
    version     2.0;
    format      ascii;
    class       volScalarField::DimensionedInternalField;
    location    "0.0475000";
    object      V0;
}
// * * * * * * * * * * * * * * * * * * * * * * * * * * * * * * * * * * * * * //

dimensions      [0 3 0 0 0 0 0];

value           nonuniform List<scalar> 
1952
(
1.35745e-14
2.26263e-14
3.16814e-14
4.07393e-14
4.98046e-14
5.88735e-14
6.7953e-14
7.70379e-14
8.61353e-14
9.52484e-14
1.04382e-13
1.13547e-13
1.22744e-13
1.31977e-13
1.41169e-13
4.52469e-15
1.35737e-14
2.26249e-14
3.16795e-14
4.07368e-14
4.98015e-14
5.88698e-14
6.79488e-14
7.70331e-14
8.613e-14
9.52425e-14
1.04375e-13
1.13539e-13
1.22736e-13
1.31969e-13
1.41159e-13
4.52441e-15
1.35725e-14
2.2623e-14
3.16768e-14
4.07334e-14
4.97974e-14
5.8865e-14
6.79431e-14
7.70267e-14
8.61228e-14
9.52346e-14
1.04366e-13
1.1353e-13
1.22726e-13
1.31957e-13
1.41146e-13
4.52403e-15
1.35718e-14
2.26217e-14
3.16751e-14
4.07312e-14
4.97947e-14
5.88618e-14
6.79394e-14
7.70225e-14
8.6118e-14
9.52293e-14
1.04361e-13
1.13523e-13
1.22718e-13
1.31949e-13
1.41137e-13
4.52378e-15
1.35703e-14
2.26193e-14
3.16716e-14
4.07267e-14
4.97892e-14
5.88554e-14
6.7932e-14
7.70141e-14
8.61086e-14
9.52188e-14
1.04349e-13
1.13511e-13
1.22705e-13
1.31934e-13
1.41121e-13
4.52328e-15
1.35693e-14
2.26176e-14
3.16693e-14
4.07237e-14
4.97855e-14
5.8851e-14
6.7927e-14
7.70084e-14
8.61022e-14
9.52117e-14
1.04341e-13
1.13502e-13
1.22695e-13
1.31924e-13
1.4111e-13
4.52295e-15
1.35685e-14
2.26162e-14
3.16674e-14
4.07213e-14
4.97826e-14
5.88475e-14
6.79229e-14
7.70037e-14
8.6097e-14
9.5206e-14
1.04335e-13
1.13495e-13
1.22688e-13
1.31916e-13
1.41101e-13
4.52268e-15
1.35673e-14
2.26142e-14
3.16646e-14
4.07176e-14
4.97782e-14
5.88423e-14
6.79169e-14
7.69969e-14
8.60894e-14
9.51976e-14
1.04326e-13
1.13485e-13
1.22677e-13
1.31904e-13
1.41088e-13
4.52227e-15
1.35658e-14
2.26117e-14
3.16611e-14
4.07132e-14
4.97727e-14
5.88359e-14
6.79094e-14
7.69885e-14
8.60799e-14
9.51872e-14
1.04314e-13
1.13473e-13
1.22664e-13
1.3189e-13
1.41073e-13
4.52178e-15
1.35648e-14
2.261e-14
3.16587e-14
4.07102e-14
4.9769e-14
5.88316e-14
6.79044e-14
7.69828e-14
8.60736e-14
9.51802e-14
1.04307e-13
1.13464e-13
1.22655e-13
1.3188e-13
1.41062e-13
4.52144e-15
1.35636e-14
2.2608e-14
3.16559e-14
4.07065e-14
4.97646e-14
5.88263e-14
6.78983e-14
7.69759e-14
8.60658e-14
9.51717e-14
1.04298e-13
1.13454e-13
1.22644e-13
1.31868e-13
1.4105e-13
4.52103e-15
1.35628e-14
2.26067e-14
3.16541e-14
4.07042e-14
4.97618e-14
5.8823e-14
6.78945e-14
7.69716e-14
8.60611e-14
9.51664e-14
1.04292e-13
1.13448e-13
1.22637e-13
1.31861e-13
1.41042e-13
4.52077e-15
1.35613e-14
2.26042e-14
3.16506e-14
4.06997e-14
4.97563e-14
5.88166e-14
6.78871e-14
7.69632e-14
8.60516e-14
9.5156e-14
1.0428e-13
1.13436e-13
1.22624e-13
1.31847e-13
1.41027e-13
4.52027e-15
1.35602e-14
2.26024e-14
3.16481e-14
4.06965e-14
4.97524e-14
5.8812e-14
6.78818e-14
7.69572e-14
8.6045e-14
9.51487e-14
1.04273e-13
1.13427e-13
1.22614e-13
1.31837e-13
1.41016e-13
4.51992e-15
1.35593e-14
2.26008e-14
3.16459e-14
4.06937e-14
4.97489e-14
5.88079e-14
6.78771e-14
7.69519e-14
8.60391e-14
9.51423e-14
1.04265e-13
1.1342e-13
1.22606e-13
1.31828e-13
1.41007e-13
4.5196e-15
1.35579e-14
2.25985e-14
3.16426e-14
4.06895e-14
4.97438e-14
5.88019e-14
6.78701e-14
7.69441e-14
8.60303e-14
9.51326e-14
1.04255e-13
1.13408e-13
1.22594e-13
1.31815e-13
1.40993e-13
4.51913e-15
1.35566e-14
2.25964e-14
3.16397e-14
4.06858e-14
4.97393e-14
5.87966e-14
6.7864e-14
7.69372e-14
8.60226e-14
9.51242e-14
1.04246e-13
1.13398e-13
1.22583e-13
1.31803e-13
1.4098e-13
4.51871e-15
1.35559e-14
2.25952e-14
3.1638e-14
4.06836e-14
4.97366e-14
5.87935e-14
6.78605e-14
7.69332e-14
8.60183e-14
9.51194e-14
1.04241e-13
1.13393e-13
1.22577e-13
1.31797e-13
1.40973e-13
4.51847e-15
1.35542e-14
2.25925e-14
3.16342e-14
4.06787e-14
4.97307e-14
5.87865e-14
6.78524e-14
7.69241e-14
8.6008e-14
9.51082e-14
1.04228e-13
1.13379e-13
1.22563e-13
1.31781e-13
1.40957e-13
4.51791e-15
1.35533e-14
2.2591e-14
3.16321e-14
4.06761e-14
4.97275e-14
5.87829e-14
6.78482e-14
7.69193e-14
8.60028e-14
9.51024e-14
1.04222e-13
1.13373e-13
1.22556e-13
1.31774e-13
1.40949e-13
4.51762e-15
1.35521e-14
2.2589e-14
3.16293e-14
4.06725e-14
4.97231e-14
5.87777e-14
6.78422e-14
7.69126e-14
8.59954e-14
9.50943e-14
1.04214e-13
1.13363e-13
1.22546e-13
1.31763e-13
1.40937e-13
4.51721e-15
1.3551e-14
2.25871e-14
3.16266e-14
4.06691e-14
4.97189e-14
5.87728e-14
6.78366e-14
7.69064e-14
8.59884e-14
9.50867e-14
1.04205e-13
1.13354e-13
1.22536e-13
1.31753e-13
1.40926e-13
4.51683e-15
1.35498e-14
2.2585e-14
3.16238e-14
4.06655e-14
4.97146e-14
5.87677e-14
6.78307e-14
7.68998e-14
8.59811e-14
9.50788e-14
1.04197e-13
1.13345e-13
1.22527e-13
1.31742e-13
1.40915e-13
4.51642e-15
1.35484e-14
2.25829e-14
3.16208e-14
4.06616e-14
4.97099e-14
5.87622e-14
6.78245e-14
7.68928e-14
8.59733e-14
9.50703e-14
1.04188e-13
1.13335e-13
1.22516e-13
1.31731e-13
1.40903e-13
4.51598e-15
1.35472e-14
2.25807e-14
3.16178e-14
4.06578e-14
4.97053e-14
5.87569e-14
6.78183e-14
7.68859e-14
8.59657e-14
9.5062e-14
1.04179e-13
1.13326e-13
1.22506e-13
1.3172e-13
1.40892e-13
4.51555e-15
1.35463e-14
2.25793e-14
3.16158e-14
4.06554e-14
4.97023e-14
5.87534e-14
6.78144e-14
7.68815e-14
8.5961e-14
9.50569e-14
1.04173e-13
1.1332e-13
1.225e-13
1.31714e-13
1.40885e-13
4.51527e-15
1.35444e-14
2.25762e-14
3.16115e-14
4.06498e-14
4.96956e-14
5.87456e-14
6.78054e-14
7.68714e-14
8.59498e-14
9.50447e-14
1.0416e-13
1.13306e-13
1.22485e-13
1.31698e-13
1.40868e-13
4.51464e-15
1.35436e-14
2.25749e-14
3.16096e-14
4.06475e-14
4.96927e-14
5.87423e-14
6.78017e-14
7.68674e-14
8.59455e-14
9.50401e-14
1.04155e-13
1.13301e-13
1.2248e-13
1.31692e-13
1.40863e-13
4.51437e-15
1.3542e-14
2.25722e-14
3.16058e-14
4.06427e-14
4.96869e-14
5.87355e-14
6.77939e-14
7.68587e-14
8.5936e-14
9.50298e-14
1.04144e-13
1.13289e-13
1.22467e-13
1.31679e-13
1.40849e-13
4.51382e-15
1.35412e-14
2.25708e-14
3.1604e-14
4.06404e-14
4.96841e-14
5.87324e-14
6.77904e-14
7.68549e-14
8.59319e-14
9.50255e-14
1.0414e-13
1.13285e-13
1.22463e-13
1.31675e-13
1.40845e-13
4.51355e-15
1.35393e-14
2.25677e-14
3.15996e-14
4.06348e-14
4.96774e-14
5.87246e-14
6.77815e-14
7.6845e-14
8.59211e-14
9.50138e-14
1.04128e-13
1.13271e-13
1.22449e-13
1.31661e-13
1.4083e-13
4.51292e-15
1.3538e-14
2.25657e-14
3.15968e-14
4.06313e-14
4.96731e-14
5.87197e-14
6.7776e-14
7.6839e-14
8.59147e-14
9.5007e-14
1.04121e-13
1.13264e-13
1.22442e-13
1.31653e-13
1.40823e-13
4.51251e-15
1.35364e-14
2.2563e-14
3.15931e-14
4.06267e-14
4.96675e-14
5.87133e-14
6.77687e-14
7.6831e-14
8.5906e-14
9.49978e-14
1.04111e-13
1.13254e-13
1.22432e-13
1.31643e-13
1.40813e-13
4.51198e-15
1.35347e-14
2.25601e-14
3.15891e-14
4.06215e-14
4.96613e-14
5.87062e-14
6.77606e-14
7.68221e-14
8.58964e-14
9.49875e-14
1.04101e-13
1.13243e-13
1.22421e-13
1.31632e-13
1.40802e-13
4.51139e-15
1.35328e-14
2.2557e-14
3.15847e-14
4.06161e-14
4.96547e-14
5.86985e-14
6.77519e-14
7.68125e-14
8.58862e-14
9.49766e-14
1.04089e-13
1.13231e-13
1.2241e-13
1.3162e-13
1.4079e-13
4.51077e-15
1.35317e-14
2.25553e-14
3.15822e-14
4.06129e-14
4.96509e-14
5.86942e-14
6.77471e-14
7.68074e-14
8.58809e-14
9.49713e-14
1.04084e-13
1.13227e-13
1.22406e-13
1.31616e-13
1.40788e-13
4.51041e-15
1.35293e-14
2.25513e-14
3.15766e-14
4.06059e-14
4.96423e-14
5.86843e-14
6.77357e-14
7.67949e-14
8.58673e-14
9.49568e-14
1.04069e-13
1.13211e-13
1.2239e-13
1.31601e-13
1.40773e-13
4.50961e-15
1.35276e-14
2.25485e-14
3.15727e-14
4.06009e-14
4.96362e-14
5.86773e-14
6.77278e-14
7.67862e-14
8.5858e-14
9.49471e-14
1.0406e-13
1.13201e-13
1.22381e-13
1.31593e-13
1.40767e-13
4.50905e-15
1.35254e-14
2.25448e-14
3.15675e-14
4.05943e-14
4.96281e-14
5.86678e-14
6.77169e-14
7.67742e-14
8.58449e-14
9.49333e-14
1.04045e-13
1.13187e-13
1.22368e-13
1.3158e-13
1.40755e-13
4.50832e-15
1.35232e-14
2.25411e-14
3.15623e-14
4.05876e-14
4.96198e-14
5.86581e-14
6.77056e-14
7.67617e-14
8.58312e-14
9.49186e-14
1.0403e-13
1.13172e-13
1.22354e-13
1.31566e-13
1.40744e-13
4.50758e-15
1.35206e-14
2.25368e-14
3.15561e-14
4.05797e-14
4.96099e-14
5.86464e-14
6.76919e-14
7.67463e-14
8.5814e-14
9.49002e-14
1.04011e-13
1.13152e-13
1.22335e-13
1.31548e-13
1.40729e-13
4.50672e-15
1.35182e-14
2.25327e-14
3.15503e-14
4.05721e-14
4.96004e-14
5.8635e-14
6.76783e-14
7.67309e-14
8.57965e-14
9.48812e-14
1.03991e-13
1.13131e-13
1.22315e-13
1.3153e-13
1.40715e-13
4.50592e-15
1.35162e-14
2.25294e-14
3.15455e-14
4.05657e-14
4.95922e-14
5.86249e-14
6.7666e-14
7.67166e-14
8.57798e-14
9.48628e-14
1.03971e-13
1.1311e-13
1.22296e-13
1.31512e-13
1.40705e-13
4.50528e-15
1.35132e-14
2.25243e-14
3.15381e-14
4.05559e-14
4.95796e-14
5.86096e-14
6.76473e-14
7.66947e-14
8.57538e-14
9.48334e-14
1.03938e-13
1.13074e-13
1.22259e-13
1.31477e-13
1.40681e-13
4.50429e-15
1.3511e-14
2.25206e-14
3.15327e-14
4.05485e-14
4.95699e-14
5.85973e-14
6.76316e-14
7.66758e-14
8.57304e-14
9.48061e-14
1.03905e-13
1.13037e-13
1.22219e-13
1.31435e-13
1.40649e-13
4.5036e-15
1.3509e-14
2.25171e-14
3.15274e-14
4.05413e-14
4.95601e-14
5.85846e-14
6.7615e-14
7.66553e-14
8.57044e-14
9.4775e-14
1.03867e-13
1.12992e-13
1.22166e-13
1.31373e-13
1.40579e-13
4.50294e-15
1.35071e-14
2.25138e-14
3.15223e-14
4.05341e-14
4.95502e-14
5.85715e-14
6.75977e-14
7.66334e-14
8.56758e-14
9.47402e-14
1.03822e-13
1.12938e-13
1.221e-13
1.3129e-13
1.40469e-13
4.50233e-15
1.3506e-14
2.25117e-14
3.1519e-14
4.0529e-14
4.95427e-14
5.85609e-14
6.75826e-14
7.66135e-14
8.56482e-14
9.47055e-14
1.03776e-13
1.1288e-13
1.22026e-13
1.31196e-13
1.40348e-13
4.50198e-15
1.35047e-14
2.25092e-14
3.1515e-14
4.05229e-14
4.95339e-14
5.85485e-14
6.75653e-14
7.65902e-14
8.56162e-14
9.46648e-14
1.0372e-13
1.12812e-13
1.21937e-13
1.31087e-13
1.40218e-13
4.50156e-15
1.35053e-14
2.25101e-14
3.15157e-14
4.05227e-14
4.95322e-14
5.85441e-14
6.75569e-14
7.65766e-14
8.55942e-14
9.46343e-14
1.03674e-13
1.12753e-13
1.21855e-13
1.30985e-13
1.401e-13
4.50181e-15
1.35058e-14
2.25105e-14
3.15158e-14
4.05218e-14
4.95295e-14
5.85384e-14
6.75469e-14
7.65606e-14
8.55692e-14
9.45992e-14
1.03621e-13
1.12686e-13
1.21757e-13
1.30869e-13
1.39965e-13
4.50198e-15
1.35084e-14
2.25146e-14
3.15209e-14
4.05272e-14
4.95346e-14
5.85417e-14
6.75473e-14
7.6556e-14
8.55571e-14
9.45771e-14
1.03583e-13
1.12632e-13
1.21668e-13
1.30763e-13
1.39828e-13
4.50287e-15
1.35118e-14
2.25199e-14
3.15278e-14
4.05348e-14
4.95423e-14
5.85483e-14
6.75526e-14
7.6558e-14
8.55544e-14
9.45658e-14
1.03557e-13
1.12588e-13
1.21585e-13
1.30654e-13
1.39664e-13
4.50404e-15
1.35165e-14
2.25275e-14
3.15381e-14
4.05473e-14
4.95564e-14
5.85625e-14
6.75666e-14
7.65697e-14
8.55627e-14
9.45659e-14
1.03543e-13
1.12553e-13
1.2151e-13
1.30546e-13
1.39479e-13
4.50561e-15
1.35241e-14
2.25401e-14
3.15551e-14
4.05681e-14
4.95802e-14
5.85873e-14
6.75909e-14
7.659e-14
8.55774e-14
9.457e-14
1.03534e-13
1.12524e-13
1.21449e-13
1.30452e-13
1.39308e-13
4.50819e-15
1.35324e-14
2.25532e-14
3.15721e-14
4.05874e-14
4.96004e-14
5.86063e-14
6.76074e-14
7.66009e-14
8.55814e-14
9.45622e-14
1.03514e-13
1.12485e-13
1.21388e-13
1.30361e-13
1.39157e-13
4.51104e-15
1.35396e-14
2.25643e-14
3.1586e-14
4.06024e-14
4.96151e-14
5.86189e-14
6.76169e-14
7.66049e-14
8.55801e-14
9.45511e-14
1.03495e-13
1.12449e-13
1.21338e-13
1.30285e-13
1.39046e-13
4.51356e-15
1.3544e-14
2.25709e-14
3.1594e-14
4.06105e-14
4.96224e-14
5.86238e-14
6.76189e-14
7.66019e-14
8.55728e-14
9.45355e-14
1.03474e-13
1.12415e-13
1.21298e-13
1.30225e-13
1.38975e-13
4.51513e-15
1.35454e-14
2.25727e-14
3.15958e-14
4.06115e-14
4.96219e-14
5.86209e-14
6.76133e-14
7.6592e-14
8.55598e-14
9.45162e-14
1.03453e-13
1.12384e-13
1.21268e-13
1.30181e-13
1.38935e-13
4.51566e-15
1.3545e-14
2.2572e-14
3.15944e-14
4.06093e-14
4.96186e-14
5.8616e-14
6.7607e-14
7.65832e-14
8.55501e-14
9.45029e-14
1.03441e-13
1.12367e-13
1.21259e-13
1.30163e-13
1.38935e-13
4.51557e-15
1.35413e-14
2.25658e-14
3.15859e-14
4.05986e-14
4.96059e-14
5.86012e-14
6.75907e-14
7.65648e-14
8.55315e-14
9.44821e-14
1.03424e-13
1.12347e-13
1.21251e-13
1.30151e-13
1.38951e-13
4.51431e-15
1.35366e-14
2.25582e-14
3.15757e-14
4.05863e-14
4.95919e-14
5.85859e-14
6.7575e-14
7.65485e-14
8.55167e-14
9.44678e-14
1.03416e-13
1.1234e-13
1.21261e-13
1.30163e-13
1.39001e-13
4.5127e-15
1.35299e-14
2.25473e-14
3.15613e-14
4.05689e-14
4.95724e-14
5.85648e-14
6.75533e-14
7.65267e-14
8.5497e-14
9.44499e-14
1.03405e-13
1.12334e-13
1.21274e-13
1.30185e-13
1.39066e-13
4.51041e-15
1.35217e-14
2.25342e-14
3.15439e-14
4.05478e-14
4.95485e-14
5.85392e-14
6.7527e-14
7.65007e-14
8.54735e-14
9.44294e-14
1.03393e-13
1.12329e-13
1.21291e-13
1.30215e-13
1.39143e-13
4.50764e-15
1.35129e-14
2.25199e-14
3.15246e-14
4.05245e-14
4.95221e-14
5.85107e-14
6.74978e-14
7.64722e-14
8.54479e-14
9.44083e-14
1.03381e-13
1.12328e-13
1.21314e-13
1.30254e-13
1.39232e-13
4.50465e-15
1.35036e-14
2.25047e-14
3.1504e-14
4.04992e-14
4.9493e-14
5.84791e-14
6.7465e-14
7.644e-14
8.54188e-14
9.43847e-14
1.03368e-13
1.12328e-13
1.2134e-13
1.303e-13
1.39326e-13
4.50152e-15
1.34944e-14
2.24896e-14
3.14832e-14
4.04733e-14
4.94627e-14
5.84458e-14
6.74299e-14
7.64053e-14
8.53869e-14
9.43591e-14
1.03353e-13
1.12331e-13
1.21369e-13
1.30354e-13
1.39423e-13
4.49846e-15
1.34849e-14
2.24737e-14
3.14611e-14
4.04454e-14
4.94295e-14
5.84084e-14
6.73895e-14
7.63641e-14
8.53468e-14
9.43246e-14
1.0333e-13
1.12327e-13
1.21392e-13
1.30403e-13
1.3951e-13
4.49528e-15
1.3476e-14
2.2459e-14
3.14406e-14
4.04192e-14
4.93981e-14
5.83725e-14
6.73498e-14
7.63226e-14
8.53043e-14
9.42853e-14
1.03301e-13
1.12319e-13
1.21409e-13
1.30449e-13
1.39587e-13
4.49231e-15
1.34673e-14
2.24445e-14
3.14204e-14
4.03934e-14
4.93665e-14
5.83355e-14
6.73077e-14
7.62777e-14
8.52591e-14
9.42456e-14
1.03271e-13
1.12306e-13
1.21413e-13
1.30479e-13
1.39638e-13
4.48939e-15
1.34572e-14
2.24282e-14
3.13987e-14
4.03677e-14
4.93381e-14
5.83067e-14
6.7281e-14
7.62578e-14
8.52492e-14
9.42489e-14
1.03281e-13
1.1232e-13
1.21421e-13
1.30496e-13
1.3965e-13
4.48594e-15
1.34523e-14
2.2421e-14
3.13909e-14
4.03614e-14
4.93362e-14
5.83129e-14
6.72986e-14
7.62897e-14
8.52939e-14
9.43051e-14
1.03339e-13
1.12374e-13
1.21453e-13
1.30517e-13
1.3964e-13
4.48419e-15
1.34577e-14
2.24303e-14
3.14046e-14
4.03803e-14
4.93609e-14
5.83444e-14
6.73366e-14
7.63338e-14
8.53417e-14
9.43573e-14
1.0339e-13
1.12425e-13
1.21489e-13
1.30546e-13
1.39636e-13
4.48593e-15
1.34654e-14
2.24431e-14
3.14225e-14
4.04033e-14
4.93887e-14
5.83766e-14
6.73721e-14
7.63722e-14
8.53818e-14
9.43999e-14
1.03431e-13
1.12467e-13
1.21523e-13
1.30579e-13
1.39654e-13
4.48847e-15
1.34704e-14
2.24516e-14
3.14346e-14
4.04192e-14
4.94083e-14
5.83999e-14
6.73986e-14
7.64016e-14
8.54124e-14
9.4431e-14
1.0346e-13
1.12493e-13
1.21543e-13
1.30596e-13
1.39663e-13
4.49014e-15
1.34766e-14
2.24619e-14
3.14489e-14
4.04374e-14
4.94302e-14
5.84251e-14
6.74265e-14
7.64318e-14
8.54437e-14
9.4463e-14
1.03491e-13
1.12523e-13
1.21569e-13
1.30616e-13
1.39674e-13
4.49219e-15
1.34806e-14
2.24685e-14
3.14581e-14
4.04491e-14
4.94441e-14
5.84411e-14
6.7444e-14
7.64503e-14
8.54622e-14
9.44807e-14
1.03506e-13
1.12535e-13
1.21576e-13
1.30618e-13
1.39667e-13
4.49351e-15
1.34851e-14
2.24761e-14
3.14686e-14
4.04623e-14
4.94598e-14
5.8459e-14
6.74635e-14
7.64709e-14
8.54831e-14
9.45013e-14
1.03525e-13
1.12552e-13
1.21589e-13
1.30626e-13
1.39668e-13
4.49504e-15
1.34882e-14
2.24811e-14
3.14754e-14
4.04708e-14
4.94697e-14
5.84701e-14
6.74752e-14
7.64828e-14
8.54945e-14
9.45115e-14
1.03533e-13
1.12557e-13
1.2159e-13
1.30622e-13
1.39658e-13
4.49605e-15
1.34916e-14
2.24867e-14
3.14831e-14
4.04804e-14
4.94809e-14
5.84826e-14
6.74886e-14
7.64967e-14
8.55082e-14
9.45245e-14
1.03545e-13
1.12566e-13
1.21596e-13
1.30624e-13
1.39654e-13
4.49718e-15
1.34941e-14
2.24908e-14
3.14887e-14
4.04874e-14
4.9489e-14
5.84915e-14
6.74979e-14
7.65061e-14
8.55171e-14
9.45324e-14
1.03551e-13
1.1257e-13
1.21597e-13
1.30621e-13
1.39646e-13
4.49804e-15
1.34963e-14
2.24944e-14
3.14936e-14
4.04933e-14
4.94958e-14
5.84989e-14
6.75056e-14
7.65137e-14
8.55241e-14
9.45384e-14
1.03555e-13
1.12572e-13
1.21596e-13
1.30618e-13
1.39638e-13
4.49877e-15
1.34982e-14
2.24976e-14
3.14978e-14
4.04986e-14
4.95018e-14
5.85055e-14
6.75123e-14
7.65203e-14
8.55301e-14
9.45435e-14
1.03559e-13
1.12574e-13
1.21595e-13
1.30614e-13
1.39631e-13
4.49942e-15
1.34996e-14
2.24998e-14
3.15008e-14
4.05022e-14
4.95058e-14
5.85097e-14
6.75165e-14
7.65242e-14
8.55333e-14
9.45456e-14
1.03559e-13
1.12573e-13
1.21592e-13
1.30608e-13
1.39622e-13
4.49989e-15
1.35001e-14
2.25006e-14
3.15018e-14
4.05032e-14
4.95068e-14
5.85104e-14
6.75166e-14
7.65235e-14
8.55314e-14
9.45424e-14
1.03554e-13
1.12566e-13
1.21582e-13
1.30596e-13
1.39607e-13
4.50006e-15
1.35015e-14
2.25028e-14
3.15048e-14
4.05069e-14
4.95109e-14
5.85149e-14
6.75213e-14
7.65281e-14
8.55356e-14
9.4546e-14
1.03557e-13
1.12568e-13
1.21582e-13
1.30595e-13
1.39603e-13
4.50052e-15
1.35019e-14
2.25035e-14
3.15056e-14
4.05078e-14
4.95118e-14
5.85155e-14
6.75215e-14
7.65277e-14
8.55344e-14
9.45438e-14
1.03554e-13
1.12563e-13
1.21576e-13
1.30586e-13
1.39593e-13
4.50067e-15
1.35024e-14
2.25044e-14
3.15068e-14
4.05091e-14
4.95131e-14
5.85168e-14
6.75225e-14
7.65283e-14
8.55344e-14
9.45431e-14
1.03552e-13
1.1256e-13
1.21571e-13
1.3058e-13
1.39585e-13
4.50086e-15
1.35028e-14
2.2505e-14
3.15075e-14
4.051e-14
4.9514e-14
5.85175e-14
6.7523e-14
7.65284e-14
8.55339e-14
9.45419e-14
1.0355e-13
1.12557e-13
1.21567e-13
1.30575e-13
1.39578e-13
4.501e-15
1.3503e-14
2.25051e-14
3.15077e-14
4.05101e-14
4.95139e-14
5.85172e-14
6.75222e-14
7.65272e-14
8.55321e-14
9.45392e-14
1.03546e-13
1.12552e-13
1.21561e-13
1.30568e-13
1.3957e-13
4.50104e-15
1.35025e-14
2.25044e-14
3.15066e-14
4.05085e-14
4.95119e-14
5.85146e-14
6.75189e-14
7.65231e-14
8.55271e-14
9.45333e-14
1.03539e-13
1.12544e-13
1.21551e-13
1.30557e-13
1.39557e-13
4.5009e-15
1.35026e-14
2.25044e-14
3.15066e-14
4.05085e-14
4.95117e-14
5.85141e-14
6.75182e-14
7.6522e-14
8.55255e-14
9.45311e-14
1.03536e-13
1.1254e-13
1.21547e-13
1.30551e-13
1.39551e-13
4.50092e-15
1.35028e-14
2.25049e-14
3.15071e-14
4.05091e-14
4.95123e-14
5.85148e-14
6.75187e-14
7.65223e-14
8.55255e-14
9.45308e-14
1.03535e-13
1.12539e-13
1.21545e-13
1.30549e-13
1.39548e-13
4.50101e-15
1.3502e-14
2.25034e-14
3.15051e-14
4.05063e-14
4.95089e-14
5.85106e-14
6.75137e-14
7.65164e-14
8.55187e-14
9.45229e-14
1.03526e-13
1.12529e-13
1.21534e-13
1.30537e-13
1.39534e-13
4.50072e-15
1.35021e-14
2.25037e-14
3.15054e-14
4.05067e-14
4.95092e-14
5.85109e-14
6.75139e-14
7.65165e-14
8.55185e-14
9.45225e-14
1.03526e-13
1.12528e-13
1.21533e-13
1.30535e-13
1.39532e-13
4.50078e-15
1.35013e-14
2.25022e-14
3.15033e-14
4.0504e-14
4.95058e-14
5.85068e-14
6.7509e-14
7.65108e-14
8.5512e-14
9.45151e-14
1.03517e-13
1.12518e-13
1.21522e-13
1.30523e-13
1.3952e-13
4.50049e-15
1.35012e-14
2.25021e-14
3.15032e-14
4.05038e-14
4.95055e-14
5.85063e-14
6.75084e-14
7.65099e-14
8.55109e-14
9.45138e-14
1.03516e-13
1.12516e-13
1.2152e-13
1.30521e-13
1.39516e-13
4.50048e-15
1.35003e-14
2.25005e-14
3.15009e-14
4.05009e-14
4.95019e-14
5.8502e-14
6.75034e-14
7.65041e-14
8.55043e-14
9.45063e-14
1.03507e-13
1.12507e-13
1.2151e-13
1.3051e-13
1.39505e-13
4.50017e-15
1.34997e-14
2.24995e-14
3.14995e-14
4.0499e-14
4.94996e-14
5.84992e-14
6.75001e-14
7.65003e-14
8.55e-14
9.45014e-14
1.03502e-13
1.12501e-13
1.21503e-13
1.30502e-13
1.39496e-13
4.49997e-15
1.3499e-14
2.24983e-14
3.14978e-14
4.04968e-14
4.94969e-14
5.8496e-14
6.74963e-14
7.64959e-14
8.5495e-14
9.44958e-14
1.03496e-13
1.12494e-13
1.21495e-13
1.30494e-13
1.39488e-13
4.49973e-15
1.34989e-14
2.24982e-14
3.14976e-14
4.04965e-14
4.94965e-14
5.84955e-14
6.74956e-14
7.64952e-14
8.5494e-14
9.44947e-14
1.03494e-13
1.12493e-13
1.21494e-13
1.30492e-13
1.39486e-13
4.4997e-15
1.34978e-14
2.24964e-14
3.14951e-14
4.04932e-14
4.94925e-14
5.84906e-14
6.749e-14
7.64888e-14
8.54869e-14
9.44867e-14
1.03486e-13
1.12483e-13
1.21483e-13
1.30481e-13
1.39473e-13
4.49934e-15
1.34976e-14
2.2496e-14
3.14945e-14
4.04925e-14
4.94916e-14
5.84896e-14
6.74888e-14
7.64874e-14
8.54852e-14
9.44848e-14
1.03483e-13
1.12481e-13
1.21481e-13
1.30478e-13
1.3947e-13
4.49927e-15
1.34963e-14
2.24938e-14
3.14915e-14
4.04886e-14
4.94868e-14
5.84839e-14
6.74822e-14
7.64799e-14
8.54768e-14
9.44755e-14
1.03473e-13
1.1247e-13
1.21469e-13
1.30465e-13
1.39456e-13
4.49884e-15
1.34958e-14
2.2493e-14
3.14903e-14
4.04871e-14
4.94849e-14
5.84817e-14
6.74796e-14
7.64769e-14
8.54735e-14
9.44718e-14
1.03469e-13
1.12465e-13
1.21464e-13
1.3046e-13
1.39451e-13
4.49867e-15
1.34949e-14
2.24916e-14
3.14883e-14
4.04845e-14
4.94818e-14
5.8478e-14
6.74753e-14
7.6472e-14
8.5468e-14
9.44658e-14
1.03463e-13
1.12458e-13
1.21456e-13
1.30452e-13
1.39442e-13
4.49839e-15
1.3494e-14
2.24901e-14
3.14862e-14
4.04818e-14
4.94784e-14
5.8474e-14
6.74708e-14
7.64669e-14
8.54622e-14
9.44594e-14
1.03456e-13
1.1245e-13
1.21448e-13
1.30443e-13
1.39432e-13
4.49809e-15
1.34931e-14
2.24885e-14
3.14841e-14
4.04791e-14
4.94751e-14
5.847e-14
6.74662e-14
7.64616e-14
8.54564e-14
9.44529e-14
1.03448e-13
1.12443e-13
1.2144e-13
1.30434e-13
1.39423e-13
4.49778e-15
1.34923e-14
2.24872e-14
3.14822e-14
4.04767e-14
4.94721e-14
5.84666e-14
6.74622e-14
7.64571e-14
8.54514e-14
9.44474e-14
1.03442e-13
1.12436e-13
1.21433e-13
1.30426e-13
1.39415e-13
4.49751e-15
1.34919e-14
2.24866e-14
3.14814e-14
4.04756e-14
4.94708e-14
5.84651e-14
6.74604e-14
7.64551e-14
8.54492e-14
9.4445e-14
1.0344e-13
1.12433e-13
1.2143e-13
1.30423e-13
1.39412e-13
4.4974e-15
1.34907e-14
2.24846e-14
3.14785e-14
4.0472e-14
4.94664e-14
5.84598e-14
6.74544e-14
7.64483e-14
8.54415e-14
9.44365e-14
1.03431e-13
1.12423e-13
1.21419e-13
1.30412e-13
1.394e-13
4.49699e-15
1.34897e-14
2.24829e-14
3.14762e-14
4.0469e-14
4.94627e-14
5.84555e-14
6.74494e-14
7.64426e-14
8.54352e-14
9.44296e-14
1.03423e-13
1.12415e-13
1.2141e-13
1.30402e-13
1.3939e-13
4.49666e-15
1.34892e-14
2.24821e-14
3.1475e-14
4.04675e-14
4.94609e-14
5.84533e-14
6.74469e-14
7.64398e-14
8.5432e-14
9.44261e-14
1.03419e-13
1.12411e-13
1.21406e-13
1.30398e-13
1.39385e-13
4.49649e-15
1.34877e-14
2.24796e-14
3.14715e-14
4.0463e-14
4.94554e-14
5.84468e-14
6.74394e-14
7.64313e-14
8.54226e-14
9.44157e-14
1.03408e-13
1.12399e-13
1.21393e-13
1.30384e-13
1.3937e-13
4.49599e-15
1.34872e-14
2.24788e-14
3.14703e-14
4.04614e-14
4.94535e-14
5.84446e-14
6.74368e-14
7.64284e-14
8.54193e-14
9.44121e-14
1.03404e-13
1.12395e-13
1.21388e-13
1.30379e-13
1.39366e-13
4.49582e-15
1.34858e-14
2.24763e-14
3.1467e-14
4.04571e-14
4.94482e-14
5.84383e-14
6.74295e-14
7.64201e-14
8.54101e-14
9.44019e-14
1.03393e-13
1.12383e-13
1.21375e-13
1.30366e-13
1.39352e-13
4.49534e-15
1.34849e-14
2.2475e-14
3.1465e-14
4.04546e-14
4.94451e-14
5.84347e-14
6.74253e-14
7.64154e-14
8.54047e-14
9.4396e-14
1.03386e-13
1.12376e-13
1.21368e-13
1.30358e-13
1.39344e-13
4.49507e-15
1.34845e-14
2.24742e-14
3.14639e-14
4.04531e-14
4.94433e-14
5.84325e-14
6.74229e-14
7.64126e-14
8.54015e-14
9.43924e-14
1.03382e-13
1.12371e-13
1.21363e-13
1.30353e-13
1.39339e-13
4.49491e-15
1.34827e-14
2.24713e-14
3.14599e-14
4.04479e-14
4.9437e-14
5.8425e-14
6.74142e-14
7.64027e-14
8.53904e-14
9.438e-14
1.03369e-13
1.12356e-13
1.21346e-13
1.30334e-13
1.39318e-13
4.49433e-15
1.34823e-14
2.24706e-14
3.14589e-14
4.04467e-14
4.94355e-14
5.84232e-14
6.74121e-14
7.64003e-14
8.53877e-14
9.4377e-14
1.03365e-13
1.12352e-13
1.21342e-13
1.30329e-13
1.39311e-13
4.4942e-15
1.34807e-14
2.24678e-14
3.1455e-14
4.04417e-14
4.94293e-14
5.84159e-14
6.74036e-14
7.63907e-14
8.5377e-14
9.43652e-14
1.03352e-13
1.12338e-13
1.21327e-13
1.30312e-13
1.39293e-13
4.49364e-15
1.26218e-29
-5.04871e-29
5.04871e-29
0
-5.04871e-29
0
-1.00974e-28
-1.00974e-28
1.00974e-28
1.00974e-28
1.51461e-28
5.04871e-29
2.01948e-28
-1.00974e-28
1.00974e-28
0
)
;


// ************************************************************************* //
