/*--------------------------------*- C++ -*----------------------------------*\
| =========                 |                                                 |
| \\      /  F ield         | foam-extend: Open Source CFD                    |
|  \\    /   O peration     | Version:     4.1-20200408                       |
|   \\  /    A nd           | Web:         http://www.foam-extend.org         |
|    \\/     M anipulation  |                                                 |
\*---------------------------------------------------------------------------*/
FoamFile
{
    version     2.0;
    format      ascii;
    class       volVectorField;
    location    "0.0475000";
    object      Velocity;
}
// * * * * * * * * * * * * * * * * * * * * * * * * * * * * * * * * * * * * * //

dimensions      [0 1 -1 0 0 0 0];

internalField   nonuniform List<vector> 
1952
(
(0.999993 -1.7458e-05 0)
(0.999993 -2.69655e-05 0)
(0.999994 -4.01124e-05 0)
(0.999995 -4.88598e-05 0)
(0.999996 -6.32803e-05 0)
(0.999997 -7.17925e-05 0)
(1 -8.6775e-05 0)
(1 -9.50906e-05 0)
(1.00001 -0.000109674 0)
(1.00001 -0.000117223 0)
(1.00002 -0.00012969 0)
(1.00003 -0.000134898 0)
(1.00004 -0.000142273 0)
(1.00007 -0.000141856 0)
(1.00014 -0.000137671 0)
(0.999993 -7.30077e-06 0)
(0.999991 -9.70203e-06 0)
(0.999992 -1.52604e-05 0)
(0.999993 -2.18739e-05 0)
(0.999994 -2.69479e-05 0)
(0.999997 -3.35958e-05 0)
(0.999999 -3.80369e-05 0)
(1 -4.42662e-05 0)
(1.00001 -4.75731e-05 0)
(1.00001 -5.27564e-05 0)
(1.00002 -5.45799e-05 0)
(1.00003 -5.80413e-05 0)
(1.00004 -5.77108e-05 0)
(1.00006 -5.85018e-05 0)
(1.00007 -5.55879e-05 0)
(1.0001 -5.52399e-05 0)
(0.999991 -4.10157e-06 0)
(0.999993 -7.14159e-06 0)
(0.999993 -1.14762e-05 0)
(0.999995 -1.58939e-05 0)
(0.999996 -1.98458e-05 0)
(0.999999 -2.39139e-05 0)
(1 -2.70962e-05 0)
(1.00001 -3.0449e-05 0)
(1.00001 -3.22846e-05 0)
(1.00002 -3.44561e-05 0)
(1.00002 -3.46848e-05 0)
(1.00003 -3.54227e-05 0)
(1.00005 -3.38866e-05 0)
(1.00006 -3.30715e-05 0)
(1.00008 -3.02854e-05 0)
(1.0001 -2.95197e-05 0)
(0.999992 -3.05569e-06 0)
(0.999997 -4.76444e-06 0)
(0.999997 -7.64559e-06 0)
(0.999999 -1.04103e-05 0)
(1 -1.28935e-05 0)
(1 -1.51626e-05 0)
(1.00001 -1.68302e-05 0)
(1.00001 -1.8301e-05 0)
(1.00002 -1.87182e-05 0)
(1.00002 -1.9101e-05 0)
(1.00003 -1.81031e-05 0)
(1.00004 -1.73559e-05 0)
(1.00005 -1.50811e-05 0)
(1.00007 -1.36428e-05 0)
(1.00008 -1.11225e-05 0)
(1.0001 -1.11553e-05 0)
(0.999996 -2.04363e-06 0)
(1 -2.67722e-06 0)
(1 -4.2564e-06 0)
(1.00001 -5.65795e-06 0)
(1.00001 -6.83346e-06 0)
(1.00001 -7.71252e-06 0)
(1.00001 -8.11659e-06 0)
(1.00002 -8.2497e-06 0)
(1.00002 -7.58242e-06 0)
(1.00003 -6.84226e-06 0)
(1.00004 -5.10832e-06 0)
(1.00005 -3.6663e-06 0)
(1.00006 -1.25253e-06 0)
(1.00007 2.45684e-07 0)
(1.00008 2.29128e-06 0)
(1.0001 2.31638e-06 0)
(1 -1.15243e-06 0)
(1.00001 -9.13076e-07 0)
(1.00001 -1.39061e-06 0)
(1.00001 -1.68956e-06 0)
(1.00001 -1.77845e-06 0)
(1.00002 -1.604e-06 0)
(1.00002 -1.01342e-06 0)
(1.00003 -2.2089e-07 0)
(1.00003 1.22029e-06 0)
(1.00004 2.64415e-06 0)
(1.00005 4.82088e-06 0)
(1.00006 6.60686e-06 0)
(1.00006 9.03759e-06 0)
(1.00008 1.04991e-05 0)
(1.00009 1.22272e-05 0)
(1.0001 1.21777e-05 0)
(1.00001 -3.96948e-07 0)
(1.00002 5.16586e-07 0)
(1.00002 9.26233e-07 0)
(1.00002 1.49483e-06 0)
(1.00002 2.25647e-06 0)
(1.00003 3.21358e-06 0)
(1.00003 4.53793e-06 0)
(1.00004 5.95521e-06 0)
(1.00004 7.91296e-06 0)
(1.00005 9.72362e-06 0)
(1.00005 1.212e-05 0)
(1.00006 1.40149e-05 0)
(1.00007 1.63529e-05 0)
(1.00008 1.77297e-05 0)
(1.00009 1.92495e-05 0)
(1.0001 1.93277e-05 0)
(1.00002 2.16055e-07 0)
(1.00003 1.61957e-06 0)
(1.00003 2.70831e-06 0)
(1.00003 3.92848e-06 0)
(1.00003 5.32202e-06 0)
(1.00004 6.83368e-06 0)
(1.00004 8.67321e-06 0)
(1.00005 1.04895e-05 0)
(1.00005 1.27745e-05 0)
(1.00006 1.4786e-05 0)
(1.00006 1.72845e-05 0)
(1.00007 1.91932e-05 0)
(1.00008 2.14435e-05 0)
(1.00009 2.27603e-05 0)
(1.00009 2.41766e-05 0)
(1.0001 2.43922e-05 0)
(1.00003 6.89535e-07 0)
(1.00004 2.42209e-06 0)
(1.00004 4.00075e-06 0)
(1.00004 5.68252e-06 0)
(1.00004 7.51766e-06 0)
(1.00005 9.39807e-06 0)
(1.00005 1.15766e-05 0)
(1.00006 1.36255e-05 0)
(1.00006 1.61012e-05 0)
(1.00007 1.81924e-05 0)
(1.00007 2.07221e-05 0)
(1.00008 2.25955e-05 0)
(1.00008 2.47737e-05 0)
(1.00009 2.60617e-05 0)
(1.0001 2.74556e-05 0)
(1.0001 2.7855e-05 0)
(1.00004 1.03435e-06 0)
(1.00005 2.95712e-06 0)
(1.00005 4.85973e-06 0)
(1.00005 6.83832e-06 0)
(1.00005 8.95593e-06 0)
(1.00006 1.10527e-05 0)
(1.00006 1.34345e-05 0)
(1.00007 1.55916e-05 0)
(1.00007 1.81662e-05 0)
(1.00008 2.02613e-05 0)
(1.00008 2.27916e-05 0)
(1.00009 2.4616e-05 0)
(1.00009 2.67555e-05 0)
(1.0001 2.80477e-05 0)
(1.0001 2.94776e-05 0)
(1.00011 3.00697e-05 0)
(1.00005 1.26455e-06 0)
(1.00006 3.26126e-06 0)
(1.00006 5.34573e-06 0)
(1.00006 7.48304e-06 0)
(1.00006 9.75176e-06 0)
(1.00007 1.19439e-05 0)
(1.00007 1.44243e-05 0)
(1.00008 1.65991e-05 0)
(1.00008 1.92093e-05 0)
(1.00009 2.12611e-05 0)
(1.00009 2.37793e-05 0)
(1.0001 2.5554e-05 0)
(1.0001 2.76863e-05 0)
(1.0001 2.90106e-05 0)
(1.00011 3.05195e-05 0)
(1.00011 3.13134e-05 0)
(1.00006 1.3957e-06 0)
(1.00007 3.36942e-06 0)
(1.00007 5.51671e-06 0)
(1.00007 7.69705e-06 0)
(1.00007 1.00115e-05 0)
(1.00008 1.22008e-05 0)
(1.00008 1.4702e-05 0)
(1.00009 1.68252e-05 0)
(1.00009 1.94312e-05 0)
(1.00009 2.14085e-05 0)
(1.0001 2.39151e-05 0)
(1.0001 2.56456e-05 0)
(1.0001 2.78008e-05 0)
(1.00011 2.91793e-05 0)
(1.00011 3.07983e-05 0)
(1.00011 3.17955e-05 0)
(1.00007 1.44276e-06 0)
(1.00008 3.31394e-06 0)
(1.00008 5.42499e-06 0)
(1.00008 7.55395e-06 0)
(1.00008 9.82845e-06 0)
(1.00009 1.1938e-05 0)
(1.00009 1.43999e-05 0)
(1.00009 1.64209e-05 0)
(1.0001 1.89953e-05 0)
(1.0001 2.08784e-05 0)
(1.0001 2.33781e-05 0)
(1.00011 2.5072e-05 0)
(1.00011 2.72753e-05 0)
(1.00012 2.87256e-05 0)
(1.00012 3.04776e-05 0)
(1.00012 3.1679e-05 0)
(1.00008 1.41954e-06 0)
(1.00009 3.12235e-06 0)
(1.00009 5.1158e-06 0)
(1.00009 7.11482e-06 0)
(1.00009 9.28187e-06 0)
(1.0001 1.12477e-05 0)
(1.0001 1.36267e-05 0)
(1.0001 1.55035e-05 0)
(1.0001 1.80305e-05 0)
(1.00011 1.98037e-05 0)
(1.00011 2.23055e-05 0)
(1.00012 2.39689e-05 0)
(1.00012 2.62427e-05 0)
(1.00012 2.77785e-05 0)
(1.00012 2.96819e-05 0)
(1.00013 3.10884e-05 0)
(1.00009 1.33791e-06 0)
(1.0001 2.81832e-06 0)
(1.0001 4.62681e-06 0)
(1.0001 6.43212e-06 0)
(1.0001 8.43637e-06 0)
(1.0001 1.02078e-05 0)
(1.00011 1.24691e-05 0)
(1.00011 1.41697e-05 0)
(1.00011 1.66377e-05 0)
(1.00012 1.829e-05 0)
(1.00012 2.08019e-05 0)
(1.00013 2.2441e-05 0)
(1.00013 2.48037e-05 0)
(1.00013 2.6437e-05 0)
(1.00013 2.85071e-05 0)
(1.00013 3.01214e-05 0)
(1.00009 1.20795e-06 0)
(1.0001 2.42112e-06 0)
(1.0001 3.98951e-06 0)
(1.00011 5.5473e-06 0)
(1.00011 7.34531e-06 0)
(1.00011 8.87787e-06 0)
(1.00011 1.09965e-05 0)
(1.00012 1.24912e-05 0)
(1.00012 1.48948e-05 0)
(1.00013 1.6414e-05 0)
(1.00013 1.89461e-05 0)
(1.00013 2.05641e-05 0)
(1.00013 2.3033e-05 0)
(1.00014 2.47743e-05 0)
(1.00014 2.7026e-05 0)
(1.00014 2.88544e-05 0)
(1.0001 1.038e-06 0)
(1.00011 1.94719e-06 0)
(1.00011 3.22969e-06 0)
(1.00011 4.49602e-06 0)
(1.00011 6.05155e-06 0)
(1.00012 7.30907e-06 0)
(1.00012 9.26427e-06 0)
(1.00013 1.05286e-05 0)
(1.00013 1.2863e-05 0)
(1.00013 1.42392e-05 0)
(1.00013 1.67993e-05 0)
(1.00014 1.83998e-05 0)
(1.00014 2.09897e-05 0)
(1.00014 2.28501e-05 0)
(1.00014 2.52982e-05 0)
(1.00015 2.73506e-05 0)
(1.00011 8.35065e-07 0)
(1.00012 1.41086e-06 0)
(1.00012 2.37064e-06 0)
(1.00012 3.30824e-06 0)
(1.00012 4.59358e-06 0)
(1.00013 5.54267e-06 0)
(1.00013 7.32043e-06 0)
(1.00013 8.32913e-06 0)
(1.00013 1.05937e-05 0)
(1.00014 1.18141e-05 0)
(1.00014 1.44117e-05 0)
(1.00015 1.59955e-05 0)
(1.00015 1.87214e-05 0)
(1.00015 2.07124e-05 0)
(1.00015 2.33733e-05 0)
(1.00015 2.56649e-05 0)
(1.00011 6.0535e-07 0)
(1.00012 8.25729e-07 0)
(1.00012 1.43357e-06 0)
(1.00012 2.01292e-06 0)
(1.00013 3.00593e-06 0)
(1.00013 3.61904e-06 0)
(1.00013 5.208e-06 0)
(1.00014 5.93926e-06 0)
(1.00014 8.13318e-06 0)
(1.00015 9.18619e-06 0)
(1.00015 1.18289e-05 0)
(1.00016 1.33972e-05 0)
(1.00016 1.6273e-05 0)
(1.00016 1.84077e-05 0)
(1.00016 2.12994e-05 0)
(1.00016 2.38506e-05 0)
(1.00012 3.5465e-07 0)
(1.00012 2.06747e-07 0)
(1.00012 4.42511e-07 0)
(1.00013 6.41051e-07 0)
(1.00013 1.32783e-06 0)
(1.00014 1.58034e-06 0)
(1.00014 2.97545e-06 0)
(1.00015 3.40664e-06 0)
(1.00015 5.53268e-06 0)
(1.00015 6.40397e-06 0)
(1.00016 9.10065e-06 0)
(1.00016 1.06528e-05 0)
(1.00016 1.36929e-05 0)
(1.00017 1.59856e-05 0)
(1.00017 1.91284e-05 0)
(1.00017 2.19657e-05 0)
(1.00012 8.94143e-08 0)
(1.00013 -4.29069e-07 0)
(1.00013 -5.75643e-07 0)
(1.00013 -7.71413e-07 0)
(1.00013 -3.96887e-07 0)
(1.00014 -5.23542e-07 0)
(1.00014 6.77318e-07 0)
(1.00015 7.88542e-07 0)
(1.00015 2.85094e-06 0)
(1.00016 3.52636e-06 0)
(1.00016 6.28543e-06 0)
(1.00017 7.82009e-06 0)
(1.00017 1.10385e-05 0)
(1.00018 1.35053e-05 0)
(1.00018 1.69217e-05 0)
(1.00018 2.00775e-05 0)
(1.00013 -1.83066e-07 0)
(1.00013 -1.05885e-06 0)
(1.00013 -1.58456e-06 0)
(1.00013 -2.17641e-06 0)
(1.00013 -2.10871e-06 0)
(1.00014 -2.62606e-06 0)
(1.00014 -1.61196e-06 0)
(1.00015 -1.83826e-06 0)
(1.00016 1.6843e-07 0)
(1.00017 6.33135e-07 0)
(1.00017 3.46335e-06 0)
(1.00018 4.97827e-06 0)
(1.00018 8.38848e-06 0)
(1.00019 1.10467e-05 0)
(1.00019 1.47605e-05 0)
(1.00019 1.82735e-05 0)
(1.00013 -4.52981e-07 0)
(1.00013 -1.6537e-06 0)
(1.00013 -2.53794e-06 0)
(1.00013 -3.51279e-06 0)
(1.00014 -3.73144e-06 0)
(1.00014 -4.64164e-06 0)
(1.00015 -3.79625e-06 0)
(1.00016 -4.37418e-06 0)
(1.00016 -2.40972e-06 0)
(1.00017 -2.17174e-06 0)
(1.00018 7.39877e-07 0)
(1.00019 2.23009e-06 0)
(1.00019 5.84533e-06 0)
(1.0002 8.71211e-06 0)
(1.0002 1.27487e-05 0)
(1.0002 1.66632e-05 0)
(1.00013 -7.07905e-07 0)
(1.00012 -2.17324e-06 0)
(1.00013 -3.37187e-06 0)
(1.00013 -4.69447e-06 0)
(1.00014 -5.15977e-06 0)
(1.00014 -6.44905e-06 0)
(1.00015 -5.74196e-06 0)
(1.00016 -6.67689e-06 0)
(1.00016 -4.73624e-06 0)
(1.00018 -4.73839e-06 0)
(1.00018 -1.73596e-06 0)
(1.00019 -2.76073e-07 0)
(1.0002 3.55428e-06 0)
(1.00021 6.64702e-06 0)
(1.00021 1.10308e-05 0)
(1.00021 1.53962e-05 0)
(1.00012 -9.3056e-07 0)
(1.00012 -2.56525e-06 0)
(1.00012 -4.00223e-06 0)
(1.00013 -5.61037e-06 0)
(1.00013 -6.25432e-06 0)
(1.00014 -7.8915e-06 0)
(1.00015 -7.2714e-06 0)
(1.00016 -8.56192e-06 0)
(1.00017 -6.61473e-06 0)
(1.00018 -6.87248e-06 0)
(1.00019 -3.76613e-06 0)
(1.0002 -2.3482e-06 0)
(1.00021 1.70591e-06 0)
(1.00022 5.0382e-06 0)
(1.00022 9.79218e-06 0)
(1.00022 1.46619e-05 0)
(1.00012 -1.09846e-06 0)
(1.00012 -2.75883e-06 0)
(1.00012 -4.31669e-06 0)
(1.00013 -6.10815e-06 0)
(1.00013 -6.82903e-06 0)
(1.00014 -8.75222e-06 0)
(1.00015 -8.14625e-06 0)
(1.00016 -9.77234e-06 0)
(1.00017 -7.77953e-06 0)
(1.00018 -8.30178e-06 0)
(1.00019 -5.08009e-06 0)
(1.00021 -3.71764e-06 0)
(1.00022 5.61806e-07 0)
(1.00023 4.14346e-06 0)
(1.00023 9.28516e-06 0)
(1.00024 1.47145e-05 0)
(1.00012 -1.18127e-06 0)
(1.00011 -2.66266e-06 0)
(1.00011 -4.16806e-06 0)
(1.00012 -5.99243e-06 0)
(1.00013 -6.63907e-06 0)
(1.00014 -8.75346e-06 0)
(1.00015 -8.05216e-06 0)
(1.00016 -9.97885e-06 0)
(1.00017 -7.88053e-06 0)
(1.00019 -8.67747e-06 0)
(1.0002 -5.32343e-06 0)
(1.00022 -4.04047e-06 0)
(1.00023 4.6062e-07 0)
(1.00024 4.29149e-06 0)
(1.00025 9.83095e-06 0)
(1.00025 1.58749e-05 0)
(1.00011 -1.1397e-06 0)
(1.0001 -2.15772e-06 0)
(1.00011 -3.36708e-06 0)
(1.00012 -5.00608e-06 0)
(1.00012 -5.36938e-06 0)
(1.00014 -7.52683e-06 0)
(1.00014 -6.58252e-06 0)
(1.00016 -8.74188e-06 0)
(1.00017 -6.46117e-06 0)
(1.00019 -7.53195e-06 0)
(1.0002 -4.02994e-06 0)
(1.00022 -2.8564e-06 0)
(1.00024 1.84984e-06 0)
(1.00025 5.91792e-06 0)
(1.00026 1.18516e-05 0)
(1.00027 1.85604e-05 0)
(1.0001 -9.22755e-07 0)
(1.0001 -1.09258e-06 0)
(1.0001 -1.66993e-06 0)
(1.00011 -2.8231e-06 0)
(1.00011 -2.61279e-06 0)
(1.00013 -4.60551e-06 0)
(1.00014 -3.21092e-06 0)
(1.00016 -5.50406e-06 0)
(1.00017 -2.93071e-06 0)
(1.00019 -4.27198e-06 0)
(1.00021 -5.99011e-07 0)
(1.00023 4.18465e-07 0)
(1.00025 5.30089e-06 0)
(1.00027 9.57355e-06 0)
(1.00028 1.58793e-05 0)
(1.00029 2.32942e-05 0)
(1.0001 -4.65328e-07 0)
(1.00009 7.22905e-07 0)
(1.00009 1.22704e-06 0)
(1.0001 9.6925e-07 0)
(1.00011 2.1391e-06 0)
(1.00013 6.05891e-07 0)
(1.00013 2.72419e-06 0)
(1.00016 4.50287e-07 0)
(1.00017 3.45927e-06 0)
(1.00019 1.86758e-06 0)
(1.00021 5.73591e-06 0)
(1.00024 6.53692e-06 0)
(1.00026 1.15452e-05 0)
(1.00028 1.59636e-05 0)
(1.0003 2.25919e-05 0)
(1.00031 3.07378e-05 0)
(1.00009 3.14094e-07 0)
(1.00008 3.52638e-06 0)
(1.00009 5.70626e-06 0)
(1.0001 6.88642e-06 0)
(1.0001 9.52861e-06 0)
(1.00012 8.85222e-06 0)
(1.00013 1.20609e-05 0)
(1.00015 1.00189e-05 0)
(1.00017 1.36586e-05 0)
(1.0002 1.18489e-05 0)
(1.00022 1.59469e-05 0)
(1.00024 1.64462e-05 0)
(1.00027 2.15059e-05 0)
(1.0003 2.59727e-05 0)
(1.00032 3.28366e-05 0)
(1.00034 4.17133e-05 0)
(1.00008 1.51763e-06 0)
(1.00008 7.60592e-06 0)
(1.00008 1.22299e-05 0)
(1.00009 1.55578e-05 0)
(1.0001 2.0336e-05 0)
(1.00011 2.10501e-05 0)
(1.00013 2.58264e-05 0)
(1.00015 2.43157e-05 0)
(1.00017 2.88428e-05 0)
(1.0002 2.68737e-05 0)
(1.00022 3.12463e-05 0)
(1.00025 3.1332e-05 0)
(1.00028 3.63364e-05 0)
(1.00031 4.07039e-05 0)
(1.00034 4.76667e-05 0)
(1.00037 5.7237e-05 0)
(1.00007 3.26888e-06 0)
(1.00007 1.33128e-05 0)
(1.00008 2.13638e-05 0)
(1.00009 2.77528e-05 0)
(1.00009 3.55209e-05 0)
(1.00011 3.83266e-05 0)
(1.00012 4.52909e-05 0)
(1.00015 4.47198e-05 0)
(1.00017 5.04738e-05 0)
(1.0002 4.8439e-05 0)
(1.00023 5.31483e-05 0)
(1.00026 5.26756e-05 0)
(1.00029 5.7477e-05 0)
(1.00033 6.15306e-05 0)
(1.00036 6.83877e-05 0)
(1.0004 7.85629e-05 0)
(1.00007 5.7187e-06 0)
(1.00008 2.10574e-05 0)
(1.00008 3.37696e-05 0)
(1.00009 4.43769e-05 0)
(1.00009 5.62151e-05 0)
(1.00011 6.20209e-05 0)
(1.00012 7.19719e-05 0)
(1.00014 7.28896e-05 0)
(1.00017 8.03229e-05 0)
(1.0002 7.83653e-05 0)
(1.00023 8.35074e-05 0)
(1.00027 8.22908e-05 0)
(1.00031 8.66984e-05 0)
(1.00035 9.0135e-05 0)
(1.00039 9.65959e-05 0)
(1.00043 0.000107216 0)
(1.00007 9.04321e-06 0)
(1.00009 3.13211e-05 0)
(1.00009 5.02254e-05 0)
(1.0001 6.64999e-05 0)
(1.0001 8.37601e-05 0)
(1.00011 9.37342e-05 0)
(1.00012 0.000107689 0)
(1.00014 0.000110836 0)
(1.00017 0.000120543 0)
(1.0002 0.000118889 0)
(1.00023 0.000124605 0)
(1.00027 0.000122423 0)
(1.00032 0.000126191 0)
(1.00037 0.000128596 0)
(1.00042 0.000134256 0)
(1.00047 0.000145064 0)
(1.00008 1.3449e-05 0)
(1.00011 4.46405e-05 0)
(1.0001 7.16022e-05 0)
(1.00011 9.53258e-05 0)
(1.00011 0.000119679 0)
(1.00012 0.000135296 0)
(1.00013 0.000154549 0)
(1.00015 0.0001609 0)
(1.00017 0.000173677 0)
(1.0002 0.000172669 0)
(1.00024 0.00017919 0)
(1.00028 0.000175787 0)
(1.00033 0.000178625 0)
(1.00039 0.000179441 0)
(1.00045 0.000183754 0)
(1.00051 0.000194366 0)
(1.00011 1.91663e-05 0)
(1.00014 6.16048e-05 0)
(1.00013 9.88597e-05 0)
(1.00014 0.000132195 0)
(1.00013 0.000165676 0)
(1.00014 0.000188788 0)
(1.00014 0.000214967 0)
(1.00016 0.000225822 0)
(1.00017 0.000242728 0)
(1.0002 0.000242897 0)
(1.00024 0.000250591 0)
(1.00028 0.000245703 0)
(1.00034 0.000247285 0)
(1.00041 0.000245786 0)
(1.00048 0.00024803 0)
(1.00055 0.000257891 0)
(1.00014 2.64479e-05 0)
(1.0002 8.28195e-05 0)
(1.00019 0.000132991 0)
(1.00019 0.000178508 0)
(1.00017 0.000223559 0)
(1.00018 0.000256448 0)
(1.00017 0.000291587 0)
(1.00018 0.00030865 0)
(1.00018 0.000331106 0)
(1.00021 0.000333264 0)
(1.00024 0.00034273 0)
(1.00029 0.000336142 0)
(1.00035 0.000336151 0)
(1.00042 0.000331411 0)
(1.00051 0.000330662 0)
(1.0006 0.000338987 0)
(1.0002 3.55532e-05 0)
(1.00028 0.000108865 0)
(1.00026 0.000174959 0)
(1.00026 0.00023565 0)
(1.00023 0.000295147 0)
(1.00023 0.000340591 0)
(1.0002 0.000387214 0)
(1.0002 0.000412718 0)
(1.0002 0.000442634 0)
(1.00022 0.000448026 0)
(1.00025 0.000460234 0)
(1.00029 0.000451877 0)
(1.00036 0.000450085 0)
(1.00044 0.000440959 0)
(1.00054 0.000436037 0)
(1.00065 0.000441712 0)
(1.00028 4.67308e-05 0)
(1.00039 0.000140228 0)
(1.00036 0.000225583 0)
(1.00036 0.000304837 0)
(1.00032 0.000382085 0)
(1.0003 0.000443402 0)
(1.00026 0.000504585 0)
(1.00025 0.000541426 0)
(1.00023 0.000581364 0)
(1.00023 0.000591886 0)
(1.00026 0.000608403 0)
(1.00029 0.000598568 0)
(1.00036 0.000595016 0)
(1.00045 0.000580163 0)
(1.00057 0.00056962 0)
(1.0007 0.000571063 0)
(1.00039 6.01884e-05 0)
(1.00054 0.000177187 0)
(1.00051 0.00028536 0)
(1.00049 0.000386872 0)
(1.00044 0.000485559 0)
(1.0004 0.000566602 0)
(1.00035 0.000646052 0)
(1.00031 0.000697931 0)
(1.00028 0.000751324 0)
(1.00026 0.000769828 0)
(1.00027 0.000793189 0)
(1.00029 0.000782917 0)
(1.00037 0.000778325 0)
(1.00046 0.000756468 0)
(1.00059 0.000738805 0)
(1.00075 0.000733932 0)
(1.00055 7.60438e-05 0)
(1.00074 0.000219692 0)
(1.0007 0.000354267 0)
(1.00067 0.000481874 0)
(1.0006 0.000605929 0)
(1.00055 0.000711031 0)
(1.00047 0.000813056 0)
(1.00041 0.000884606 0)
(1.00035 0.000955949 0)
(1.0003 0.000986617 0)
(1.00029 0.00102078 0)
(1.0003 0.00101246 0)
(1.00036 0.00100885 0)
(1.00045 0.000979299 0)
(1.00061 0.000953566 0)
(1.0008 0.000939824 0)
(1.00075 9.42737e-05 0)
(1.001 0.000267175 0)
(1.00095 0.000431449 0)
(1.0009 0.000588837 0)
(1.00081 0.00074218 0)
(1.00074 0.000875946 0)
(1.00063 0.00100535 0)
(1.00054 0.00110215 0)
(1.00045 0.00119716 0)
(1.00037 0.00124586 0)
(1.00032 0.00129671 0)
(1.0003 0.00129469 0)
(1.00035 0.00129596 0)
(1.00044 0.00125892 0)
(1.00061 0.00122466 0)
(1.00084 0.00119809 0)
(1.00101 0.000114632 0)
(1.00133 0.000318372 0)
(1.00126 0.000514916 0)
(1.0012 0.000705183 0)
(1.00108 0.000891315 0)
(1.00098 0.00105827 0)
(1.00084 0.00122009 0)
(1.00072 0.00134855 0)
(1.00058 0.00147422 0)
(1.00046 0.00154899 0)
(1.00038 0.00162512 0)
(1.00032 0.00163692 0)
(1.00034 0.00165005 0)
(1.00041 0.00160737 0)
(1.0006 0.00156335 0)
(1.00087 0.00151538 0)
(1.00134 0.000136573 0)
(1.00172 0.000371127 0)
(1.00164 0.000601212 0)
(1.00157 0.000826264 0)
(1.00143 0.00104762 0)
(1.0013 0.00125156 0)
(1.00112 0.00145039 0)
(1.00096 0.00161731 0)
(1.00077 0.00178173 0)
(1.0006 0.00189327 0)
(1.00046 0.00200753 0)
(1.00035 0.00204719 0)
(1.00033 0.00208806 0)
(1.00037 0.00205143 0)
(1.00055 0.00200419 0)
(1.00088 0.00192746 0)
(1.00174 0.000159169 0)
(1.0022 0.000422229 0)
(1.0021 0.000685125 0)
(1.00201 0.000944873 0)
(1.00185 0.00120198 0)
(1.00169 0.00144492 0)
(1.00147 0.00168383 0)
(1.00127 0.00189507 0)
(1.00103 0.00210606 0)
(1.00081 0.00226668 0)
(1.0006 0.00243609 0)
(1.00042 0.00252675 0)
(1.00033 0.00262861 0)
(1.00031 0.00263779 0)
(1.00047 0.00263662 0)
(1.00084 0.00257262 0)
(1.00222 0.000181043 0)
(1.00275 0.000467473 0)
(1.00265 0.000759742 0)
(1.00254 0.00105128 0)
(1.00235 0.00134168 0)
(1.00216 0.00162254 0)
(1.00191 0.00190113 0)
(1.00166 0.00215904 0)
(1.00137 0.00242032 0)
(1.00109 0.00263873 0)
(1.00082 0.00287647 0)
(1.00056 0.00303999 0)
(1.0004 0.00324041 0)
(1.0003 0.00335146 0)
(1.00039 0.00349161 0)
(1.00076 0.00356558 0)
(1.00278 0.000200393 0)
(1.00338 0.00050175 0)
(1.00326 0.000816638 0)
(1.00314 0.00113349 0)
(1.00293 0.00145087 0)
(1.00271 0.00176421 0)
(1.00242 0.00207702 0)
(1.00213 0.00237783 0)
(1.00179 0.00268481 0)
(1.00146 0.00295878 0)
(1.00112 0.0032607 0)
(1.0008 0.00349347 0)
(1.00056 0.00378865 0)
(1.00039 0.00399423 0)
(1.0004 0.00427692 0)
(1.00066 0.00450067 0)
(1.00341 0.000215034 0)
(1.00408 0.000519576 0)
(1.00395 0.000846751 0)
(1.00381 0.00117857 0)
(1.00358 0.00151248 0)
(1.00333 0.00184814 0)
(1.00301 0.0021844 0)
(1.00268 0.00251811 0)
(1.00229 0.0028583 0)
(1.0019 0.00317591 0)
(1.0015 0.00352266 0)
(1.0011 0.00379952 0)
(1.00078 0.00414794 0)
(1.0005 0.00437518 0)
(1.00041 0.00468675 0)
(1.00051 0.00489348 0)
(1.00411 0.000222622 0)
(1.00482 0.000515376 0)
(1.00468 0.000840903 0)
(1.00453 0.00117347 0)
(1.00428 0.00150944 0)
(1.00401 0.00185293 0)
(1.00366 0.00219748 0)
(1.0033 0.00254964 0)
(1.00286 0.00290654 0)
(1.00241 0.00325384 0)
(1.00192 0.0036257 0)
(1.00144 0.00393018 0)
(1.00101 0.00430874 0)
(1.00059 0.00452471 0)
(1.00036 0.00484608 0)
(1.00031 0.00500281 0)
(1.00485 0.00022077 0)
(1.00559 0.000484029 0)
(1.00544 0.000790674 0)
(1.00528 0.00110622 0)
(1.00502 0.00142616 0)
(1.00473 0.0017589 0)
(1.00435 0.00209262 0)
(1.00395 0.00244436 0)
(1.00346 0.00279779 0)
(1.00296 0.0031581 0)
(1.00238 0.00353364 0)
(1.0018 0.00385493 0)
(1.00123 0.00424421 0)
(1.00064 0.00443635 0)
(1.00025 0.00478899 0)
(1.00002 0.00486073 0)
(1.00563 0.000207289 0)
(1.00636 0.00042131 0)
(1.00621 0.000689009 0)
(1.00603 0.00096658 0)
(1.00576 0.0012489 0)
(1.00545 0.00154816 0)
(1.00505 0.00184743 0)
(1.00461 0.00217431 0)
(1.00409 0.00249894 0)
(1.00352 0.00285021 0)
(1.00286 0.00320417 0)
(1.00217 0.0035341 0)
(1.00142 0.0039121 0)
(1.00065 0.00410104 0)
(1.00008 0.00450016 0)
(0.999545 0.00444713 0)
(1.0064 0.000180373 0)
(1.0071 0.00032355 0)
(1.00694 0.000529699 0)
(1.00676 0.000745211 0)
(1.00647 0.000964596 0)
(1.00614 0.00120234 0)
(1.00572 0.00143752 0)
(1.00526 0.0017078 0)
(1.0047 0.00197245 0)
(1.00408 0.00228526 0)
(1.00333 0.00258969 0)
(1.00253 0.00291834 0)
(1.00161 0.00326634 0)
(1.00065 0.00351018 0)
(0.999805 0.00390754 0)
(0.998797 0.00363652 0)
(1.00714 0.000138469 0)
(1.00777 0.00018719 0)
(1.0076 0.000307145 0)
(1.00741 0.000435076 0)
(1.00711 0.000565442 0)
(1.00676 0.000714019 0)
(1.00632 0.000858014 0)
(1.00583 0.00104315 0)
(1.00524 0.00122069 0)
(1.00458 0.00146621 0)
(1.00377 0.00169812 0)
(1.00288 0.00200331 0)
(1.00182 0.00228025 0)
(1.00065 0.00252867 0)
(0.999271 0.00272341 0)
(0.997562 0.00214014 0)
(1.00781 8.0057e-05 0)
(1.00832 1.60252e-05 0)
(1.00815 2.89038e-05 0)
(1.00794 4.99906e-05 0)
(1.00763 7.60227e-05 0)
(1.00727 0.000126522 0)
(1.00682 0.000178663 0)
(1.00633 0.000269825 0)
(1.00574 0.000332603 0)
(1.00507 0.000451339 0)
(1.00423 0.000523834 0)
(1.00322 0.000664305 0)
(1.00193 0.000685599 0)
(1.00041 0.000631072 0)
(0.998293 0.000366027 0)
(0.995728 -0.000487348 0)
(1.00837 6.60501e-06 0)
(1.00876 -0.000165068 0)
(1.00859 -0.000266936 0)
(1.00839 -0.000365339 0)
(1.0081 -0.000464754 0)
(1.00774 -0.000545048 0)
(1.00727 -0.000636391 0)
(1.0067 -0.000726024 0)
(1.00603 -0.00090146 0)
(1.00524 -0.00108455 0)
(1.00427 -0.00140029 0)
(1.00307 -0.001714 0)
(1.00146 -0.00221991 0)
(0.999487 -0.0027619 0)
(0.996732 -0.00351734 0)
(0.993401 -0.00452196 0)
(1.0088 -7.11356e-05 0)
(1.00908 -0.000395313 0)
(1.00888 -0.00065358 0)
(1.00863 -0.000933647 0)
(1.00828 -0.00125059 0)
(1.00783 -0.00159923 0)
(1.00726 -0.00202537 0)
(1.00653 -0.00250089 0)
(1.00566 -0.00310196 0)
(1.00463 -0.00375865 0)
(1.0034 -0.00459638 0)
(1.00191 -0.00545056 0)
(1.00001 -0.00651223 0)
(0.997692 -0.00750781 0)
(0.994532 -0.00869062 0)
(0.990694 -0.00978242 0)
(1.00913 -0.000169424 0)
(1.00889 -0.000823084 0)
(1.00861 -0.00136958 0)
(1.00825 -0.00196915 0)
(1.00774 -0.00264569 0)
(1.0071 -0.00339876 0)
(1.00631 -0.00427092 0)
(1.00537 -0.00522307 0)
(1.00426 -0.0063156 0)
(1.00298 -0.00747248 0)
(1.00149 -0.00880763 0)
(0.999742 -0.010136 0)
(0.99761 -0.011653 0)
(0.995037 -0.0130079 0)
(0.991681 -0.0145257 0)
(0.987634 -0.0156593 0)
(1.00897 -0.00035158 0)
(1.00773 -0.00148232 0)
(1.00735 -0.00245307 0)
(1.00685 -0.00349278 0)
(1.00616 -0.00462384 0)
(1.00531 -0.00584199 0)
(1.00431 -0.00717839 0)
(1.00313 -0.00859728 0)
(1.0018 -0.0101451 0)
(1.00028 -0.01174 0)
(0.998581 -0.0134811 0)
(0.996627 -0.0151759 0)
(0.994353 -0.0170175 0)
(0.991662 -0.0186018 0)
(0.988326 -0.020293 0)
(0.984376 -0.0213559 0)
(1.00784 -0.000632935 0)
(1.00531 -0.0022963 0)
(1.00486 -0.00377186 0)
(1.00422 -0.00531046 0)
(1.00338 -0.00692352 0)
(1.00236 -0.00860385 0)
(1.00118 -0.0103723 0)
(0.999821 -0.0121992 0)
(0.998317 -0.0141187 0)
(0.996635 -0.0160519 0)
(0.994798 -0.018083 0)
(0.992733 -0.0200216 0)
(0.990435 -0.022052 0)
(0.987783 -0.023745 0)
(0.984679 -0.0254814 0)
(0.981089 -0.0264229 0)
(1.00547 -0.00098141 0)
(1.00153 -0.00313468 0)
(1.00103 -0.00511799 0)
(1.00032 -0.00714335 0)
(0.999399 -0.00920568 0)
(0.998283 -0.0112966 0)
(0.996996 -0.0134269 0)
(0.995541 -0.0155755 0)
(0.993949 -0.0177675 0)
(0.992194 -0.0199346 0)
(0.990319 -0.0221464 0)
(0.988254 -0.0242251 0)
(0.98605 -0.026339 0)
(0.983582 -0.0280636 0)
(0.980872 -0.0297809 0)
(0.977829 -0.0306191 0)
(1.00171 -0.00134136 0)
(0.996484 -0.00385303 0)
(0.995987 -0.00626627 0)
(0.995279 -0.00869831 0)
(0.994351 -0.0111269 0)
(0.993229 -0.0135435 0)
(0.991935 -0.0159491 0)
(0.990477 -0.018331 0)
(0.98889 -0.0207055 0)
(0.987158 -0.0230193 0)
(0.985341 -0.0253275 0)
(0.983377 -0.0274736 0)
(0.981372 -0.0296049 0)
(0.979205 -0.0313253 0)
(0.977001 -0.0330021 0)
(0.97463 -0.0337775 0)
(0.99667 -0.0016505 0)
(0.990479 -0.00433859 0)
(0.990023 -0.00704254 0)
(0.989367 -0.00975098 0)
(0.988504 -0.0124278 0)
(0.987452 -0.0150646 0)
(0.986233 -0.0176522 0)
(0.984854 -0.0201846 0)
(0.983356 -0.022667 0)
(0.98173 -0.0250619 0)
(0.980051 -0.0274089 0)
(0.978275 -0.0295791 0)
(0.976548 -0.0316933 0)
(0.974764 -0.0334025 0)
(0.973142 -0.0350418 0)
(0.971523 -0.0358043 0)
(0.990654 -0.00185978 0)
(0.983927 -0.00453372 0)
(0.98353 -0.00735769 0)
(0.982955 -0.010186 0)
(0.982193 -0.0129745 0)
(0.981256 -0.0157154 0)
(0.980162 -0.0183892 0)
(0.978918 -0.0209934 0)
(0.977567 -0.0235202 0)
(0.976108 -0.0259462 0)
(0.974625 -0.0282927 0)
(0.973096 -0.0304622 0)
(0.971701 -0.0325439 0)
(0.970356 -0.0342494 0)
(0.969355 -0.0358648 0)
(0.968527 -0.0366653 0)
(0.98408 -0.00194394 0)
(0.977264 -0.00444286 0)
(0.976922 -0.00721741 0)
(0.976427 -0.0100083 0)
(0.975767 -0.0127695 0)
(0.974952 -0.0154947 0)
(0.973998 -0.0181562 0)
(0.972913 -0.020753 0)
(0.971737 -0.0232633 0)
(0.970477 -0.0256754 0)
(0.969222 -0.0279901 0)
(0.967975 -0.0301409 0)
(0.966938 -0.0321814 0)
(0.96606 -0.0338927 0)
(0.965693 -0.0354964 0)
(0.965658 -0.0363764 0)
(0.977395 -0.00190476 0)
(0.970868 -0.0041235 0)
(0.970563 -0.00670891 0)
(0.970124 -0.00932655 0)
(0.969542 -0.0119335 0)
(0.968829 -0.0145272 0)
(0.968 -0.0170757 0)
(0.967064 -0.0195804 0)
(0.966062 -0.0220078 0)
(0.965005 -0.024357 0)
(0.963986 -0.0266067 0)
(0.963032 -0.0287187 0)
(0.962357 -0.0307086 0)
(0.961948 -0.0324303 0)
(0.962199 -0.0340293 0)
(0.962923 -0.0350218 0)
(0.970983 -0.00176722 0)
(0.965008 -0.00366525 0)
(0.964717 -0.00597025 0)
(0.964305 -0.00831694 0)
(0.963769 -0.0106687 0)
(0.963123 -0.0130286 0)
(0.962384 -0.0153661 0)
(0.961569 -0.0176882 0)
(0.960714 -0.0199565 0)
(0.95984 -0.0221819 0)
(0.95904 -0.0243233 0)
(0.958368 -0.0263676 0)
(0.958038 -0.0282909 0)
(0.958083 -0.0300179 0)
(0.958912 -0.031608 0)
(0.960324 -0.032728 0)
(0.965115 -0.00157024 0)
(0.959822 -0.00316217 0)
(0.959532 -0.00514972 0)
(0.959128 -0.00717504 0)
(0.95861 -0.00920871 0)
(0.958001 -0.0112596 0)
(0.957318 -0.0133036 0)
(0.956586 -0.0153559 0)
(0.955836 -0.0173806 0)
(0.955105 -0.0194049 0)
(0.954485 -0.0213762 0)
(0.954066 -0.0233079 0)
(0.954048 -0.025138 0)
(0.954518 -0.0268549 0)
(0.955862 -0.0284276 0)
(0.957856 -0.0296826 0)
(0.959926 -0.00135451 0)
(0.955327 -0.00268715 0)
(0.95504 -0.00436669 0)
(0.954643 -0.00606705 0)
(0.954138 -0.00776445 0)
(0.953551 -0.00947146 0)
(0.952902 -0.0111718 0)
(0.952222 -0.0128891 0)
(0.951538 -0.0145935 0)
(0.950903 -0.0163303 0)
(0.950412 -0.0180462 0)
(0.950195 -0.0197918 0)
(0.950439 -0.0214801 0)
(0.951284 -0.0231544 0)
(0.953055 -0.0246996 0)
(0.955501 -0.0260998 0)
(0.95543 -0.00115132 0)
(0.951464 -0.00227642 0)
(0.951197 -0.003686 0)
(0.950825 -0.00509381 0)
(0.950348 -0.00647823 0)
(0.949793 -0.00785079 0)
(0.949179 -0.00920158 0)
(0.948543 -0.0105607 0)
(0.947907 -0.0119044 0)
(0.947332 -0.0132888 0)
(0.946916 -0.014653 0)
(0.946833 -0.0160974 0)
(0.947265 -0.0175519 0)
(0.9484 -0.0191182 0)
(0.950465 -0.0206171 0)
(0.953212 -0.0221802 0)
(0.951559 -0.000975992 0)
(0.948158 -0.00193142 0)
(0.947932 -0.00311779 0)
(0.947613 -0.0042845 0)
(0.947193 -0.00540894 0)
(0.946694 -0.00649528 0)
(0.946131 -0.00753538 0)
(0.945543 -0.0085625 0)
(0.944944 -0.00955984 0)
(0.944421 -0.0105807 0)
(0.944062 -0.0115293 0)
(0.944067 -0.012543 0)
(0.944591 -0.0136216 0)
(0.945872 -0.0149584 0)
(0.948034 -0.016357 0)
(0.950894 -0.0180799 0)
(0.948236 -0.000828636 0)
(0.945271 -0.00163073 0)
(0.94509 -0.00263418 0)
(0.944831 -0.0036145 0)
(0.94448 -0.00455025 0)
(0.944053 -0.00543356 0)
(0.943554 -0.00624924 0)
(0.943025 -0.00701878 0)
(0.942496 -0.00772216 0)
(0.942115 -0.00840149 0)
(0.941996 -0.00898654 0)
(0.942144 -0.00959278 0)
(0.94261 -0.0101854 0)
(0.943788 -0.0110946 0)
(0.945759 -0.012234 0)
(0.948484 -0.0140064 0)
(0.945333 -0.000699292 0)
(0.942616 -0.00132768 0)
(0.94251 -0.00215641 0)
(0.942362 -0.00297806 0)
(0.942165 -0.00377997 0)
(0.941935 -0.00454641 0)
(0.941678 -0.00525413 0)
(0.941433 -0.00589786 0)
(0.941235 -0.00643385 0)
(0.941182 -0.00688813 0)
(0.941265 -0.00726858 0)
(0.94149 -0.00768946 0)
(0.941889 -0.0079232 0)
(0.94265 -0.00833835 0)
(0.943903 -0.00892745 0)
(0.94617 -0.010414 0)
(0.942659 -0.000568566 0)
(0.941229 -0.0010681 0)
(0.941174 -0.00173473 0)
(0.941103 -0.00240442 0)
(0.941019 -0.00306641 0)
(0.940934 -0.00371193 0)
(0.940861 -0.00432302 0)
(0.940823 -0.00489577 0)
(0.94083 -0.00538745 0)
(0.940904 -0.00582468 0)
(0.941014 -0.00614633 0)
(0.941303 -0.0064704 0)
(0.941724 -0.0066323 0)
(0.942277 -0.00689071 0)
(0.942953 -0.0069422 0)
(0.944389 -0.00779111 0)
(0.94125 -0.000458408 0)
(0.940689 -0.000940874 0)
(0.940637 -0.00152224 0)
(0.940567 -0.00209819 0)
(0.940485 -0.00265315 0)
(0.940404 -0.0031835 0)
(0.940338 -0.0036703 0)
(0.940313 -0.00412203 0)
(0.940341 -0.0045069 0)
(0.940469 -0.00486219 0)
(0.940666 -0.0051257 0)
(0.941006 -0.00538286 0)
(0.941436 -0.00553638 0)
(0.942053 -0.00577332 0)
(0.942644 -0.00580665 0)
(0.94343 -0.00617159 0)
(0.940706 -0.000403618 0)
(0.939973 -0.000801892 0)
(0.93995 -0.00129601 0)
(0.939921 -0.00178253 0)
(0.939895 -0.00224707 0)
(0.939882 -0.00268723 0)
(0.939893 -0.00308595 0)
(0.939947 -0.0034526 0)
(0.940048 -0.00376088 0)
(0.940228 -0.00404397 0)
(0.940461 -0.0042605 0)
(0.940817 -0.00447304 0)
(0.941239 -0.00461726 0)
(0.941798 -0.00480883 0)
(0.94237 -0.00493439 0)
(0.943046 -0.00512762 0)
(0.939983 -0.000343897 0)
(0.939534 -0.000672085 0)
(0.939525 -0.00108436 0)