# Wall shear stress
# Time         	patch          	min            	max            
6.70000000e-04	mantle	(-7.11898267e-01 -1.11230708e-01 -4.31284610e-02)	(-1.57928947e-01 1.11347515e-01 4.30945187e-02)
