/*--------------------------------*- C++ -*----------------------------------*\
| =========                 |                                                 |
| \\      /  F ield         | foam-extend: Open Source CFD                    |
|  \\    /   O peration     | Version:     4.1-20200408                       |
|   \\  /    A nd           | Web:         http://www.foam-extend.org         |
|    \\/     M anipulation  |                                                 |
\*---------------------------------------------------------------------------*/
FoamFile
{
    version     2.0;
    format      ascii;
    class       volScalarField;
    location    "0.0280000";
    object      ccz;
}
// * * * * * * * * * * * * * * * * * * * * * * * * * * * * * * * * * * * * * //

dimensions      [0 1 0 0 0 0 0];

internalField   nonuniform List<scalar> 
1952
(
8.32988e-13
2.83435e-12
-2.97845e-12
-6.0165e-12
3.69325e-22
1.2826e-11
1.22156e-11
-2.55039e-11
-2.45467e-11
-1.29493e-21
3.46475e-22
-2.53475e-11
-1.20195e-11
1.2352e-11
0
3.28468e-12
8.33308e-13
1.49998e-12
-4.16669e-12
-6.01855e-12
8.65483e-23
1.28204e-11
1.22225e-11
-2.54902e-11
-2.45606e-11
9.06475e-22
-2.20688e-22
-1.26669e-11
-1.23458e-11
1.04925e-21
1.79887e-21
3.28461e-12
2.22223e-12
3.99997e-12
-2.97618e-12
-6.01829e-12
1.15412e-22
1.28203e-11
1.22216e-11
-2.54902e-11
-1.18435e-11
1.23009e-11
-1.2681e-11
-2.49996e-11
-1.23455e-11
1.26436e-11
1.23653e-11
3.28461e-12
1.11113e-12
5.33333e-12
-3.09564e-12
-7.22247e-12
1.28786e-11
3.78207e-11
2.44453e-11
-1.27457e-11
1.31578e-11
3.73018e-11
-3.6361e-13
-2.50003e-11
-1.23458e-11
2.52876e-11
2.47308e-11
1.61798e-12
1.11109e-12
5.33333e-12
-1.78572e-12
-6.01854e-12
2.57584e-11
5e-11
2.44436e-11
-4.10757e-22
1.27195e-11
2.50004e-11
1.23189e-11
-1.01521e-21
1.26543e-11
2.5e-11
1.2366e-11
1.61792e-12
-2.77734e-13
4.16648e-12
-4.76182e-13
-1.77778e-11
7.5713e-13
2.50004e-11
1.22224e-11
8.21671e-22
2.67332e-22
-3.02277e-22
-1.10382e-22
3.85815e-21
1.26545e-11
1.23563e-11
9.81302e-22
1.61801e-12
-1.38891e-12
2.8335e-12
-1.66665e-12
-1.77777e-11
7.58051e-13
1.21794e-11
8.04347e-22
-1.27453e-11
-1.22805e-11
0
-1.2681e-11
-1.23331e-11
1.26543e-11
2.49998e-11
1.23653e-11
-4.8712e-14
-2.77771e-13
2.83333e-12
-1.66668e-12
-4.81465e-12
1.28785e-11
2.5e-11
1.22216e-11
-2.54902e-11
-1.18422e-11
1.23014e-11
-2.53624e-11
-2.46665e-11
1.26545e-11
3.7644e-11
2.47308e-11
1.61791e-12
-2.77778e-13
4.16665e-12
-1.78569e-12
-6.01851e-12
1.73213e-22
1.28207e-11
1.22223e-11
-1.27453e-11
4.38649e-13
1.23017e-11
-1.26814e-11
-1.23334e-11
1.26543e-11
2.5e-11
1.23656e-11
1.61798e-12
1.1111e-12
5.33334e-12
-1.78572e-12
-1.89811e-11
-1.21211e-11
-5.86365e-22
6.77555e-22
-1.2745e-11
-1.22805e-11
-3.62863e-22
-1.26811e-11
-1.23331e-11
1.26546e-11
1.23563e-11
-3.27186e-22
1.61797e-12
2.22223e-12
5.33334e-12
-4.76183e-13
-1.77781e-11
7.57263e-13
1.21794e-11
5.08099e-22
-1.27452e-11
-1.22808e-11
8.46662e-22
-2.53624e-11
-3.73331e-11
3.08843e-13
1.2356e-11
-4.09009e-22
3.28463e-12
1.11112e-12
4.00002e-12
-2.97616e-12
-6.01851e-12
2.57576e-11
3.71793e-11
1.22221e-11
1.27041e-21
1.27192e-11
1.23014e-11
-2.53624e-11
-3.73334e-11
1.29644e-11
2.47132e-11
1.22711e-21
1.61798e-12
1.1111e-12
3.99999e-12
-2.97622e-12
-1.89813e-11
7.57805e-13
2.50002e-11
1.22224e-11
4.11006e-22
1.27194e-11
1.23017e-11
-1.26814e-11
-2.5e-11
3.09161e-13
1.23559e-11
-1.30874e-21
1.61795e-12
1.11112e-12
4.00002e-12
-2.97649e-12
-1.89814e-11
-1.21209e-11
1.28199e-11
1.22221e-11
-1.2745e-11
4.39475e-13
1.23014e-11
3.86546e-22
-1.26673e-11
3.07798e-13
1.2356e-11
-7.36358e-22
1.61799e-12
1.1111e-12
2.66667e-12
-4.16668e-12
-6.01832e-12
1.44405e-22
1.2821e-11
1.22224e-11
-2.54902e-11
-1.18431e-11
1.23012e-11
-1.54627e-21
1.62541e-21
2.53088e-11
2.47123e-11
-1.71826e-21
1.61795e-12
-2.77748e-13
2.83333e-12
-1.66667e-12
-4.81481e-12
-5.77707e-23
1.28204e-11
1.22221e-11
-1.27453e-11
4.39258e-13
1.23014e-11
-8.83636e-22
-9.1435e-22
1.26545e-11
2.5e-11
1.23653e-11
1.61799e-12
-1.3889e-12
4.16666e-12
-1.78569e-12
-6.01851e-12
1.28786e-11
2.5e-11
1.2222e-11
-1.2745e-11
1.31581e-11
2.46031e-11
4.41851e-22
-1.26666e-11
-1.23451e-11
1.2644e-11
1.23655e-11
-4.86895e-14
-2.52568e-22
5.3335e-12
-1.78572e-12
-6.01853e-12
1.28789e-11
1.21796e-11
-7.62641e-22
-1.27453e-11
1.31579e-11
2.46031e-11
1.65721e-22
-2.53335e-11
-1.20369e-11
1.23561e-11
-9.82027e-22
-4.86888e-14
-1.32077e-22
5.33333e-12
-4.75854e-13
-4.81465e-12
-3.17795e-22
1.28209e-11
1.22221e-11
-1.2745e-11
4.38954e-13
1.23017e-11
-1.26811e-11
-3.76666e-11
-1.20367e-11
2.5e-11
1.23653e-11
-4.86834e-14
-1.46877e-22
5.33317e-12
-4.76514e-13
-4.81481e-12
1.28787e-11
3.78204e-11
2.44444e-11
-1.27453e-11
-1.22804e-11
2.42042e-22
-1.26814e-11
-3.76669e-11
-2.46911e-11
2.52877e-11
2.47308e-11
-4.86828e-14
-1.38887e-12
2.83352e-12
-2.97616e-12
-6.01871e-12
1.28794e-11
2.50003e-11
1.22223e-11
-1.27454e-11
-1.22809e-11
1.21039e-22
1.76785e-21
-2.53335e-11
-1.20368e-11
2.5e-11
1.23655e-11
-4.86803e-14
-2.77879e-13
2.83315e-12
-2.9762e-12
-6.01832e-12
1.28787e-11
1.21794e-11
8.47581e-23
-1.27453e-11
-1.22804e-11
-1.21047e-22
-1.26816e-11
-3.76666e-11
-1.20366e-11
1.23563e-11
1.06401e-21
1.61794e-12
8.33471e-13
4.16688e-12
-4.76183e-13
-4.81481e-12
1.28789e-11
1.218e-11
-8.47715e-23
-1.2745e-11
-1.22806e-11
1.26987e-11
-3.62713e-13
-2.50002e-11
-1.23457e-11
1.31318e-21
1.71906e-21
3.28471e-12
-2.77777e-13
4.16666e-12
-1.78569e-12
-6.01851e-12
1.28786e-11
1.2179e-11
7.62916e-22
-2.54902e-11
-2.45614e-11
1.26986e-11
1.23189e-11
-2.03308e-22
-1.88173e-21
-1.13815e-21
1.06425e-21
1.61801e-12
1.1111e-12
4.00001e-12
-2.97618e-12
-6.01854e-12
1.28793e-11
1.21796e-11
3.39094e-22
-1.27453e-11
-1.22804e-11
1.26983e-11
1.23186e-11
0
1.88204e-22
-8.75546e-22
-6.55028e-22
1.61798e-12
-2.77752e-13
2.83333e-12
-2.97618e-12
-1.89816e-11
-1.21215e-11
-8.80589e-22
-4.66328e-22
3.3661e-22
1.27192e-11
2.5e-11
1.23189e-11
-8.13325e-22
3.76389e-22
1.26436e-11
1.23649e-11
1.61801e-12
-2.77877e-13
4.16666e-12
-1.78572e-12
-1.89816e-11
7.58119e-13
1.21794e-11
6.35943e-22
5.23692e-22
2.54386e-11
2.46031e-11
-9.39608e-22
-6.09964e-22
1.26543e-11
2.5e-11
1.2366e-11
1.61796e-12
2.22223e-12
5.33333e-12
-1.78569e-12
-6.01851e-12
2.57576e-11
3.71793e-11
1.22217e-11
2.24431e-22
1.27194e-11
1.23013e-11
-1.16075e-21
-3.05061e-22
2.53088e-11
2.47115e-11
0
3.28473e-12
8.33352e-13
4.16668e-12
-3.09564e-12
-2.01849e-11
7.58705e-13
3.78206e-11
2.44445e-11
-2.24466e-22
1.27192e-11
2.49998e-11
-3.63228e-13
-1.23332e-11
2.53088e-11
2.47123e-11
0
3.28467e-12
-2.77696e-13
2.83334e-12
-4.2857e-12
-2.01855e-11
-1.21217e-11
1.28211e-11
1.22223e-11
-4.11583e-22
1.27198e-11
2.50003e-11
-3.6241e-13
-1.23334e-11
2.53097e-11
3.7356e-11
1.23653e-11
1.61802e-12
-2.77772e-13
2.8335e-12
-2.9762e-12
-6.01853e-12
3.46993e-22
1.46805e-22
4.66461e-22
-1.2745e-11
4.37797e-13
1.2301e-11
-1.65864e-22
-1.2667e-11
1.29622e-11
3.73563e-11
1.23651e-11
1.618e-12
8.33206e-13
2.83334e-12
-2.97615e-12
-1.89813e-11
7.58406e-13
2.49998e-11
1.22221e-11
-2.54902e-11
-1.18407e-11
1.23017e-11
4.42332e-22
-1.26668e-11
1.29644e-11
2.47123e-11
-9.00947e-22
3.28468e-12
8.33352e-13
2.83333e-12
-2.9762e-12
-1.89816e-11
7.57584e-13
3.7821e-11
1.16668e-11
-2.5e-11
4.38338e-13
1.23015e-11
-3.31771e-22
0
1.26546e-11
2.5e-11
1.23653e-11
3.28468e-12
8.33324e-13
4.16645e-12
-1.78607e-12
-6.01851e-12
1.28787e-11
2.5e-11
-5.55556e-13
-1.22546e-11
2.54395e-11
2.46031e-11
-8.29482e-22
3.05172e-22
-9.41616e-23
1.26444e-11
1.23656e-11
3.28469e-12
8.33354e-13
4.16688e-12
-3.09481e-12
-7.22198e-12
2.57576e-11
3.71794e-11
1.22217e-11
1.4971e-21
2.54386e-11
2.46023e-11
1.43784e-21
-6.10326e-22
-9.41487e-23
1.26437e-11
1.23653e-11
3.28469e-12
-2.77778e-13
4.16665e-12
-3.09564e-12
-7.22247e-12
1.28794e-11
3.78211e-11
2.44453e-11
-7.48663e-23
2.54386e-11
2.46031e-11
-1.26815e-11
-1.23331e-11
1.26547e-11
2.5e-11
1.23656e-11
1.61804e-12
-2.53163e-23
5.33333e-12
-1.78572e-12
-6.01833e-12
-9.54766e-22
1.28203e-11
-5.56962e-13
-1.22551e-11
2.54395e-11
2.46023e-11
-1.26809e-11
-2.5e-11
3.0908e-13
2.5e-11
1.23653e-11
-4.86403e-14
0
5.33334e-12
-1.78568e-12
-6.0185e-12
-9.26091e-22
2.93828e-22
-1.2778e-11
-1.22547e-11
1.27195e-11
1.23017e-11
3.87227e-22
-1.26669e-11
-1.23453e-11
2.52877e-11
2.473e-11
-4.86378e-14
1.11105e-12
5.33334e-12
-3.09523e-12
-7.22222e-12
4.63043e-22
4.89707e-23
-3.39521e-22
-1.2745e-11
-1.22801e-11
-2.42417e-22
-1.26815e-11
-1.23327e-11
1.26542e-11
2.5e-11
1.23656e-11
1.61799e-12
-2.77645e-13
4.16674e-12
-3.09532e-12
-7.22207e-12
1.28783e-11
2.49995e-11
1.22219e-11
-1.27458e-11
-1.22808e-11
-4.8487e-22
-1.26814e-11
-1.23333e-11
1.26549e-11
1.2356e-11
0
1.61808e-12
-2.77862e-13
4.16664e-12
-1.78579e-12
-6.01852e-12
1.28793e-11
2.50006e-11
1.22224e-11
-1.2745e-11
4.39001e-13
1.23011e-11
-1.26813e-11
-1.23328e-11
-1.88396e-22
-6.13529e-22
1.63892e-22
1.61798e-12
1.11116e-12
5.33336e-12
-4.76196e-13
-4.81479e-12
-1.15818e-22
1.28202e-11
1.22217e-11
-2.54905e-11
8.78044e-13
2.46027e-11
-2.53629e-11
-2.4666e-11
-6.59449e-22
1.2644e-11
1.23649e-11
1.6181e-12
-2.77771e-13
4.16671e-12
-1.78567e-12
-6.01845e-12
1.28784e-11
2.5e-11
1.22225e-11
-1.27457e-11
4.39051e-13
1.23016e-11
-2.5363e-11
-2.46659e-11
1.26546e-11
3.7644e-11
2.473e-11
1.61796e-12
8.33269e-13
4.16662e-12
-1.78577e-12
-6.01857e-12
2.57576e-11
3.71789e-11
1.22216e-11
-1.27448e-11
4.38986e-13
1.2301e-11
-2.5363e-11
-3.73327e-11
3.10095e-13
3.76446e-11
2.47299e-11
3.28471e-12
2.22223e-12
5.33333e-12
-4.76176e-13
-4.81483e-12
2.57576e-11
5e-11
2.44444e-11
-2.54903e-11
-1.18412e-11
1.23018e-11
-1.26818e-11
-2.50007e-11
-1.23454e-11
2.52887e-11
2.47295e-11
3.28471e-12
8.33457e-13
4.16673e-12
-4.76148e-13
-4.81483e-12
1.28797e-11
2.50017e-11
1.2223e-11
-2.54903e-11
-1.18425e-11
1.23009e-11
6.09112e-22
4.07383e-22
1.26547e-11
2.5e-11
1.2365e-11
3.28472e-12
8.3322e-13
4.16654e-12
-4.76152e-13
-4.81486e-12
-2.89823e-22
-3.92346e-22
0
-1.27459e-11
4.38632e-13
2.5e-11
1.2318e-11
-1.26666e-11
3.10766e-13
1.23558e-11
-4.09882e-22
3.28471e-12
8.3349e-13
4.16674e-12
-1.78547e-12
-6.01845e-12
1.28774e-11
2.49976e-11
1.22212e-11
-1.27439e-11
-1.22797e-11
1.26994e-11
1.23195e-11
-1.26677e-11
3.08674e-13
1.23548e-11
8.1984e-23
3.28472e-12
-2.77793e-13
4.16652e-12
-1.78575e-12
-1.898e-11
7.60111e-13
3.78217e-11
2.44449e-11
-2.54899e-11
-2.45617e-11
6.07173e-22
-1.268e-11
-1.23321e-11
1.26559e-11
1.23563e-11
-1.06611e-21
1.61825e-12
-1.38871e-12
4.16675e-12
-4.76058e-13
-1.77793e-11
-1.21229e-11
1.28219e-11
1.2224e-11
-1.27464e-11
-1.22824e-11
-4.85931e-22
-1.26826e-11
-2.5e-11
-1.23439e-11
1.84368e-21
-9.02631e-22
-4.86045e-14
-2.77776e-12
2.99993e-12
-1.78539e-12
-1.89795e-11
7.57065e-13
1.21781e-11
2.55289e-22
-4.50488e-22
1.27173e-11
1.23002e-11
-1.26792e-11
-2.5e-11
3.05737e-13
1.23542e-11
2.46364e-22
-4.86017e-14
-2.78085e-13
4.16645e-12
-1.78574e-12
-1.89833e-11
1.36338e-11
2.43596e-11
-2.12803e-22
-1.50211e-22
1.27208e-11
1.23038e-11
-1.26827e-11
-1.23354e-11
1.26561e-11
1.23577e-11
4.10968e-22
1.61785e-12
2.22224e-12
5.33328e-12
-1.78538e-12
-6.0185e-12
1.28802e-11
2.49999e-11
1.22208e-11
-6.76162e-22
-3.3612e-22
2.43274e-22
0
2.04296e-22
1.26522e-11
2.49964e-11
1.23639e-11
3.28473e-12
1.11125e-12
5.33329e-12
-1.78567e-12
-6.01877e-12
0
1.28218e-11
1.22244e-11
-8.26679e-22
0
1.03435e-21
-1.11111e-22
-1.2664e-11
3.11089e-13
2.50034e-11
-2.65072e-13
1.61826e-12
-2.77732e-13
4.16671e-12
-4.76032e-13
-1.77762e-11
-1.21203e-11
-2.9483e-22
-2.1296e-22
7.51705e-23
-6.72695e-23
1.21733e-22
2.22333e-22
-1.26676e-11
-1.23486e-11
1.26409e-11
-2.703e-13
1.61792e-12
8.33253e-13
4.16653e-12
-1.78546e-12
-3.19439e-11
-2.42431e-11
-4.42291e-22
-4.25975e-22
-1.27431e-11
-1.22801e-11
1.82661e-22
1.66819e-22
-6.13957e-22
1.2651e-11
2.5e-11
1.23686e-11
3.28474e-12
-2.77663e-13
4.16667e-12
-3.09502e-12
-2.01857e-11
-1.21221e-11
1.28193e-11
1.22219e-11
-1.27454e-11
-1.22826e-11
3.65402e-22
-1.26785e-11
-1.23336e-11
1.2654e-11
1.236e-11
1.15667e-21
1.61815e-12
-2.77776e-12
2.99992e-12
-3.0951e-12
-2.0185e-11
7.56982e-13
2.5e-11
1.2223e-11
3.00758e-22
1.34596e-22
-6.09058e-23
-1.26805e-11
-2.5e-11
-1.23471e-11
7.06774e-22
9.92554e-22
-4.85762e-14
-2.77652e-13
4.16667e-12
-1.78552e-12
-3.19441e-11
-1.1365e-11
1.21794e-11
-2.98147e-22
-1.27448e-11
-1.2282e-11
1.15719e-21
-6.67635e-22
-1.26644e-11
-1.23481e-11
1.26403e-11
1.23713e-11
1.61817e-12
1.11101e-12
5.33329e-12
-4.76064e-13
-1.77764e-11
-1.21203e-11
1.28214e-11
1.22241e-11
-2.54887e-11
-1.18436e-11
2.50029e-11
-3.59043e-13
-1.23372e-11
1.26532e-11
2.49999e-11
1.23696e-11
1.61794e-12
1.11128e-12
3.99977e-12
-1.66672e-12
-1.77796e-11
-1.21236e-11
2.56401e-11
2.44457e-11
-1.27419e-11
1.3157e-11
3.73004e-11
-3.58495e-13
-1.23328e-11
1.2648e-11
1.23573e-11
-4.14261e-22
1.61835e-12
1.1109e-12
4.00023e-12
-2.97603e-12
-1.89788e-11
7.62347e-13
2.49998e-11
1.222e-11
-1.27474e-11
1.31509e-11
3.73069e-11
-3.58587e-13
-1.23395e-11
1.23427e-21
-8.8447e-23
2.48494e-22
1.61778e-12
1.11138e-12
5.33324e-12
-3.09492e-12
-7.22246e-12
1.28748e-11
2.50002e-11
1.22268e-11
-1.27399e-11
4.35673e-13
2.49913e-11
-3.5837e-13
-1.23312e-11
1.26564e-11
1.23621e-11
-1.07632e-21
1.6185e-12
2.22226e-12
5.33323e-12
-3.09486e-12
-7.22254e-12
1.28821e-11
2.49998e-11
1.22192e-11
-1.27484e-11
4.36052e-13
2.50093e-11
1.23252e-11
-1.43474e-21
2.53054e-11
2.47151e-11
4.13733e-22
3.28477e-12
8.32986e-13
4.16617e-12
-3.09476e-12
-7.22256e-12
1.28739e-11
1.21764e-11
1.70551e-22
-1.27393e-11
4.35797e-13
2.49907e-11
1.23156e-11
-1.22983e-21
2.53073e-11
3.73602e-11
1.23683e-11
3.28476e-12
-2.77651e-13
4.16681e-12
-1.78488e-12
-6.01849e-12
5.52378e-22
1.47629e-22
-8.53145e-23
-1.27482e-11
4.36215e-13
1.23071e-11
-1.00245e-21
9.22426e-22
2.53089e-11
3.73519e-11
1.23611e-11
1.61763e-12
1.11145e-12
3.99951e-12
-1.66665e-12
-4.8151e-12
2.03611e-22
1.28233e-11
1.2227e-11
-1.274e-11
1.31581e-11
2.46053e-11
-1.26842e-11
-2.50071e-11
3.03299e-13
1.23514e-11
-1.26401e-11
1.61858e-12
1.11084e-12
4.00025e-12
-1.66595e-12
-4.81508e-12
5.52938e-22
1.2816e-11
1.222e-11
-1.27472e-11
4.30271e-13
1.22994e-11
-1.2678e-11
-2.49946e-11
-1.23419e-11
-2.47231e-21
-1.26346e-11
1.61766e-12
-2.77812e-13
4.16616e-12
-4.75771e-13
-4.81511e-12
-2.62076e-22
-2.46427e-22
-3.84477e-22
-2.54888e-11
-2.45626e-11
3.66188e-22
1.67142e-22
-1.26693e-11
-1.23464e-11
-1.76543e-22
-8.25211e-22
1.61854e-12
-1.66686e-12
2.99981e-12
-4.75859e-13
-4.81502e-12
1.28809e-11
2.50051e-11
1.2225e-11
-2.54897e-11
-1.184e-11
1.23032e-11
-1.26833e-11
-2.5e-11
-1.23434e-11
1.26465e-11
1.23652e-11
1.61772e-12
-2.77776e-12
2.99991e-12
-1.78581e-12
-6.01887e-12
2.57572e-11
3.71775e-11
1.22203e-11
-1.27432e-11
1.31602e-11
3.7303e-11
-3.60208e-13
-1.23313e-11
1.32682e-21
2.52897e-11
2.47281e-11
-4.85422e-14
-1.38864e-12
2.83329e-12
-2.97605e-12
-1.89834e-11
7.53481e-13
2.50001e-11
1.22239e-11
5.27287e-22
1.2718e-11
2.49971e-11
-3.65847e-13
-2.50023e-11
-1.23459e-11
1.26437e-11
1.23632e-11
-4.85417e-14
-1.38909e-12
2.83332e-12
-1.66647e-12
-1.77759e-11
-1.21196e-11
2.5641e-11
2.44443e-11
-1.27466e-11
4.39148e-13
1.23023e-11
-1.26805e-11
-2.49979e-11
3.12336e-13
1.23563e-11
5.77186e-22
-4.85413e-14
-1.38871e-12
4.16681e-12
-4.76183e-13
-4.81481e-12
-8.72857e-22
2.56412e-11
1.16651e-11
-3.77465e-11
8.78446e-13
3.73022e-11
1.23193e-11
-2.04618e-22
1.26543e-11
1.23546e-11
3.2979e-22
-4.85408e-14
-1.38904e-12
4.16655e-12
-1.78587e-12
-6.01863e-12
4.0722e-22
2.56412e-11
1.16673e-11
-2.4998e-11
4.39235e-13
2.49983e-11
-3.64937e-13
-2.50015e-11
-1.23458e-11
1.26452e-11
1.23656e-11
-4.85407e-14
-2.77547e-13
4.16678e-12
-1.78565e-12
-6.01839e-12
1.288e-11
2.5e-11
1.22211e-11
1.01583e-21
-4.71224e-22
6.08989e-23
-2.53632e-11
-3.7332e-11
3.11237e-13
2.5e-11
1.23642e-11
1.61828e-12
1.11102e-12
5.33335e-12
-4.76193e-13
-1.77788e-11
7.56236e-13
2.5e-11
1.22227e-11
-4.13782e-22
1.27203e-11
2.50013e-11
-3.61903e-13
-2.5e-11
1.29639e-11
2.47115e-11
-1.6487e-22
1.618e-12
-1.38898e-12
2.83319e-12
-1.6668e-12
-3.07409e-11
-1.13626e-11
2.5e-11
1.22214e-11
-7.52214e-23
1.2719e-11
3.76982e-11
2.46369e-11
-2.53342e-11
-1.20361e-11
2.5e-11
1.23658e-11
-4.85398e-14
-2.77648e-13
2.83349e-12
-1.66666e-12
-3.07409e-11
-1.13637e-11
2.5e-11
1.22226e-11
-1.27458e-11
-1.22809e-11
1.26982e-11
1.2318e-11
-2.53341e-11
-1.20352e-11
3.76446e-11
2.47304e-11
1.61822e-12
2.2222e-12
5.33338e-12
-4.76216e-13
-1.77772e-11
-1.21204e-11
1.28198e-11
1.22216e-11
-1.2745e-11
-1.228e-11
-6.0868e-22
-2.22276e-22
-1.26665e-11
3.09131e-13
2.4999e-11
1.23651e-11
3.28477e-12
1.11107e-12
5.33333e-12
-4.7618e-13
-1.77783e-11
-1.21217e-11
1.28218e-11
1.22226e-11
-1.50397e-22
1.27201e-11
1.23021e-11
-2.22304e-22
-1.26675e-11
-1.23458e-11
-7.93134e-22
6.5947e-22
1.61809e-12
-2.77783e-13
4.16663e-12
-1.78574e-12
-3.19451e-11
-1.13633e-11
2.5e-11
1.22215e-11
3.00766e-22
2.54385e-11
2.46024e-11
-1.26819e-11
-2.5e-11
-1.23449e-11
1.40985e-21
1.64865e-21
1.61818e-12
8.33378e-13
4.16691e-12
-3.09522e-12
-2.01849e-11
7.58369e-13
2.5e-11
1.22222e-11
6.39089e-22
1.27193e-11
1.23013e-11
-1.26812e-11
-1.2333e-11
-9.46642e-22
1.2644e-11
1.23657e-11
3.28474e-12
2.22223e-12
5.33333e-12
-1.78605e-12
-6.01849e-12
1.28791e-11
2.5e-11
-5.56161e-13
-1.22553e-11
2.01821e-22
-3.65146e-22
0
-6.13403e-22
9.46573e-22
1.26437e-11
1.23653e-11
3.28479e-12
2.22223e-12
5.33333e-12
-4.76177e-13
-4.81465e-12
2.57576e-11
2.4359e-11
-1.27775e-11
-1.22542e-11
2.01815e-22
-1.82584e-21
-1.44471e-21
1.0224e-22
1.26546e-11
1.23563e-11
-3.21496e-21
3.28485e-12
1.11105e-12
5.33316e-12
-4.76513e-13
-1.77778e-11
1.36374e-11
3.71798e-11
1.22221e-11
3.00747e-22
1.272e-11
1.23019e-11
1.11127e-22
9.20124e-22
1.26544e-11
1.2356e-11
8.24465e-23
1.61807e-12
-2.77697e-13
4.16685e-12
-4.76177e-13
-1.77778e-11
7.57545e-13
2.49995e-11
1.22221e-11
-1.27458e-11
1.31576e-11
3.73019e-11
1.23187e-11
-2.04486e-22
-4.73359e-22
1.26444e-11
1.23659e-11
1.61819e-12
8.3336e-13
4.16668e-12
-4.76178e-13
-1.7778e-11
7.57571e-13
2.50004e-11
1.22224e-11
-1.27448e-11
1.3158e-11
3.7301e-11
1.23186e-11
-1.32912e-21
1.26545e-11
3.76439e-11
2.47304e-11
3.28479e-12
8.33319e-13
4.16665e-12
-1.78572e-12
-1.89815e-11
7.57549e-13
2.49996e-11
1.2222e-11
0
1.2719e-11
1.23014e-11
-5.55727e-22
-1.26669e-11
3.08963e-13
2.49994e-11
1.23654e-11
3.28479e-12
-5.5571e-13
1.66664e-12
-2.97618e-12
-6.01851e-12
2.90519e-23
1.18e-21
-4.26075e-23
-2.63147e-22
-1.34548e-22
8.52067e-22
-1.66701e-22
-1.26668e-11
-1.23455e-11
-1.0577e-21
-4.94819e-22
3.28474e-12
-1.66655e-12
1.66689e-12
-1.66664e-12
-4.81482e-12
1.2879e-11
2.50003e-11
1.22224e-11
-1.27453e-11
4.3942e-13
1.23018e-11
-7.77942e-22
8.1797e-22
1.89352e-22
3.52563e-22
-2.47354e-22
1.61814e-12
-1.38887e-12
4.16668e-12
-4.76179e-13
-4.81482e-12
1.2879e-11
2.49997e-11
1.22221e-11
-2.54902e-11
8.78832e-13
2.46041e-11
-6.66948e-22
-2.04514e-22
1.89351e-21
1.26443e-11
1.23662e-11
-4.85383e-14
-2.77859e-13
2.8333e-12
-2.97621e-12
-6.01853e-12
1.39444e-21
9.83295e-23
8.52106e-23
-2.54902e-11
8.75459e-13
2.46024e-11
1.66704e-22
-1.26669e-11
3.07766e-13
2.5e-11
1.2365e-11
1.61812e-12
8.33476e-13
2.83335e-12
-2.97615e-12
-1.89816e-11
7.57578e-13
2.50004e-11
1.22223e-11
-1.27449e-11
1.31592e-11
2.46032e-11
-1.26809e-11
-2.5e-11
3.09451e-13
2.5e-11
1.23658e-11
3.28485e-12
8.33324e-13
4.16665e-12
-4.76181e-13
-1.77776e-11
1.36365e-11
5e-11
2.44445e-11
-3.38363e-22
2.54377e-11
2.46024e-11
-1.26809e-11
-1.23332e-11
1.26549e-11
2.5e-11
1.23654e-11
3.2848e-12
8.33229e-13
4.16647e-12
-4.76518e-13
-4.81482e-12
1.28786e-11
2.49997e-11
1.22221e-11
-7.51946e-23
2.54394e-11
2.4604e-11
5.55763e-23
-8.18042e-22
2.53078e-11
2.47118e-11
-3.29887e-22
3.2848e-12
8.33325e-13
4.16665e-12
-4.76181e-13
-4.81482e-12
-1.16221e-22
4.9171e-23
-5.54002e-22
-1.5041e-22
1.27191e-11
1.2301e-11
4.44627e-22
-1.26669e-11
1.2964e-11
3.73569e-11
1.23658e-11
3.2848e-12
8.33352e-13
2.8335e-12
-1.66637e-12
-4.81465e-12
1.28789e-11
2.50002e-11
1.22224e-11
-1.27452e-11
4.38594e-13
1.23017e-11
3.33517e-22
-1.2667e-11
3.07776e-13
2.49997e-11
1.23655e-11
3.2848e-12
-2.77798e-13
2.83334e-12
-2.97652e-12
-6.01874e-12
1.28786e-11
3.78208e-11
2.44445e-11
-1.2745e-11
1.3158e-11
2.46032e-11
-3.89074e-22
-1.26668e-11
-1.23458e-11
1.26438e-11
1.23657e-11
1.61811e-12
-2.77753e-13
4.16668e-12
-1.78532e-12
-6.01829e-12
1.28789e-11
3.78206e-11
1.16666e-11
-1.22551e-11
2.54386e-11
3.73018e-11
-3.62298e-13
-3.76669e-11
-1.20357e-11
2.5e-11
1.2365e-11
1.61814e-12
-2.77797e-13
2.83331e-12
-1.66696e-12
-1.77776e-11
1.36375e-11
5e-11
1.16656e-11
-1.22548e-11
1.27192e-11
2.49997e-11
-1.30435e-11
-3.73332e-11
3.08624e-13
1.23558e-11
-1.5672e-21
1.61811e-12
-2.77753e-13
2.83335e-12
-1.66665e-12
-1.77776e-11
7.57562e-13
2.49998e-11
1.22221e-11
5.26495e-22
1.27194e-11
1.23017e-11
-1.26814e-11
-2.5e-11
-1.23458e-11
1.14633e-21
-1.64992e-22
1.61814e-12
2.22231e-12
5.33333e-12
-1.78572e-12
-6.01832e-12
8.71797e-23
3.93434e-22
1.19343e-21
6.7695e-22
1.27192e-11
1.23015e-11
2.22365e-22
-1.26665e-11
3.08829e-13
1.23564e-11
-1.64999e-21
3.2848e-12
2.22214e-12
3.99999e-12
-4.28572e-12
-7.22222e-12
0
1.28206e-11
1.22224e-11
-1.27452e-11
-1.22808e-11
3.04439e-22
0
-1.26668e-11
3.08342e-13
1.23558e-11
1.31993e-21
3.28474e-12
1.1111e-12
4.00001e-12
-2.97583e-12
-1.89816e-11
-1.21209e-11
1.282e-11
1.22217e-11
-1.2745e-11
-1.22806e-11
6.08976e-23
1.55686e-21
-1.26665e-11
3.08828e-13
1.23564e-11
-3.3003e-22
1.61815e-12
0
5.33333e-12
-1.78571e-12
-1.89813e-11
-1.21212e-11
1.28211e-11
1.22227e-11
-1.27452e-11
-1.22808e-11
4.26258e-22
-6.11598e-22
9.20839e-22
1.26546e-11
2.5e-11
1.23661e-11
-4.85377e-14
1.11112e-12
3.99999e-12
-4.2861e-12
-7.22222e-12
1.28785e-11
3.78206e-11
2.44436e-11
-2.54893e-11
-1.18408e-11
1.23017e-11
-1.11205e-21
-7.16183e-22
-2.84194e-22
2.52873e-11
2.47312e-11
1.61814e-12
8.33329e-13
2.83333e-12
-2.97617e-12
-6.01851e-12
1.28787e-11
3.78204e-11
2.44445e-11
-2.5491e-11
-1.18435e-11
1.23015e-11
-2.22445e-22
8.18532e-22
1.2654e-11
3.76438e-11
2.47304e-11
3.2848e-12
8.33347e-13
4.16668e-12
-4.75847e-13
-1.77779e-11
7.58429e-13
3.78206e-11
2.44445e-11
-2.54893e-11
-1.18407e-11
2.50002e-11
-3.62304e-13
-2.50002e-11
1.29629e-11
3.73562e-11
1.23655e-11
3.2848e-12
8.33329e-13
4.16666e-12
-4.76184e-13
-3.07407e-11
-1.13637e-11
2.49998e-11
1.22221e-11
-1.27454e-11
1.31567e-11
3.73015e-11
-1.30449e-11
-3.73337e-11
1.29643e-11
3.73564e-11
1.23657e-11
3.2848e-12
-1.66667e-12
3e-12
-1.78609e-12
-1.89814e-11
-1.21211e-11
-6.3955e-22
-3.41094e-22
-1.27448e-11
1.31591e-11
2.46032e-11
-1.26807e-11
-1.23328e-11
1.26542e-11
3.76436e-11
1.20967e-11
1.61812e-12
-2.7776e-13
4.16667e-12
-1.7857e-12
-6.01851e-12
-4.9428e-22
1.28206e-11
1.22223e-11
-2.5491e-11
-1.18434e-11
1.23015e-11
-1.26817e-11
-1.23334e-11
0
1.26436e-11
-2.68787e-13
1.61814e-12
2.22223e-12
5.33333e-12
-4.76185e-13
-1.77779e-11
-1.21212e-11
2.5641e-11
2.44453e-11
-2.54902e-11
-1.18408e-11
1.23017e-11
-1.26811e-11
-1.23336e-11
-1.89552e-22
1.26442e-11
1.23657e-11
3.2848e-12
1.11111e-12
3.99999e-12
-1.66667e-12
-1.77777e-11
-1.21211e-11
2.5641e-11
2.44436e-11
-1.27451e-11
4.38605e-13
1.23019e-11
-1.26812e-11
-2.50002e-11
-1.23458e-11
2.52865e-11
2.47312e-11
1.61812e-12
-2.77776e-13
1.49999e-12
-4.16666e-12
-6.01852e-12
-5.81567e-23
1.28205e-11
1.22222e-11
-1.27447e-11
-1.22808e-11
-3.65599e-22
-1.26811e-11
-2.49999e-11
-1.23457e-11
1.26436e-11
-2.69786e-13
1.61814e-12
8.33342e-13
2.83334e-12
-2.97617e-12
-6.01851e-12
1.28788e-11
2.50001e-11
1.22223e-11
-2.5491e-11
-2.45614e-11
-3.6555e-22
-1.26812e-11
-2.5e-11
3.08643e-13
1.2356e-11
-1.26339e-11
3.2848e-12
1.11111e-12
5.33333e-12
-1.78571e-12
-6.01852e-12
2.57576e-11
3.71795e-11
1.22222e-11
-1.2745e-11
-1.22807e-11
-3.65616e-22
-1.26811e-11
-2.49999e-11
1.29618e-11
2.47127e-11
2.97211e-21
1.61813e-12
-1.38889e-12
4.16666e-12
-1.78571e-12
-6.01852e-12
1.28788e-11
2.5e-11
1.22222e-11
-1.39283e-21
-2.02095e-22
-9.14211e-22
-1.26812e-11
-1.23333e-11
2.53095e-11
2.47126e-11
1.1559e-21
-4.85373e-14
-2.77772e-13
4.16667e-12
-1.78571e-12
-6.01852e-12
1.28788e-11
2.5e-11
-5.55657e-13
-1.22549e-11
6.7364e-23
-8.5325e-22
-2.53623e-11
-2.46667e-11
1.26543e-11
2.5e-11
1.23657e-11
1.61813e-12
1.11111e-12
5.33333e-12
-3.09523e-12
-7.22222e-12
1.28788e-11
1.21795e-11
-1.27778e-11
-1.22549e-11
2.69452e-22
1.26984e-11
-3.6222e-13
-2.5e-11
3.08648e-13
2.5e-11
1.23656e-11
1.61813e-12
-1.24635e-23
5.33333e-12
-3.09523e-12
-7.22222e-12
-3.20039e-22
-2.95418e-22
-6.82744e-22
-3.76509e-22
-5.39015e-22
2.53968e-11
2.46377e-11
-2.53333e-11
6.17296e-13
2.47126e-11
-6.60757e-22
-4.85373e-14
-2.57984e-23
5.33333e-12
-3.09523e-12
-7.22222e-12
-2.6185e-22
9.84716e-23
5.97407e-22
-2.25906e-22
-6.73768e-22
2.53968e-11
2.46377e-11
-2.53333e-11
6.17296e-13
2.47126e-11
-6.60757e-22
-4.85373e-14
)
;

boundaryField
{
    wireUpstream
    {
        type            calculated;
        value           nonuniform List<scalar> 
16
(
0
5.33333e-12
-3.09523e-12
-7.22222e-12
0
0
0
-2.48339e-22
0
2.53968e-11
2.46377e-11
-2.53333e-11
6.17296e-13
2.47126e-11
5.63006e-22
-4.85373e-14
)
;
    }
    wireDownstream
    {
        type            calculated;
        value           nonuniform List<scalar> 
16
(
2.22223e-12
5.33333e-12
-4.76179e-13
-4.81482e-12
0
0
0
-2.54902e-11
-2.45614e-11
0
4.83843e-22
-2.53334e-11
6.176e-13
2.47124e-11
0
3.28461e-12
)
;
    }
    wireTopContact
    {
        type            calculated;
        value           nonuniform List<scalar> 
122
(
6.4487e-22
-6.44774e-22
-6.44804e-22
0
6.44858e-22
0
0
0
6.4495e-22
-1.28994e-21
0
6.44884e-22
-6.45032e-22
0
-6.45072e-22
0
-6.45112e-22
0
0
0
0
0
0
-6.45375e-22
6.45136e-22
0
0
-6.4532e-22
0
6.45357e-22
-6.45376e-22
0
0
0
0
0
6.45375e-22
0
0
0
0
0
-6.45426e-22
0
1.2909e-21
0
0
0
6.45923e-22
0
0
-6.47187e-22
-2.49982e-11
-2.50017e-11
0
-6.49497e-22
-1.30058e-21
6.51083e-22
0
6.52003e-22
0
-1.30378e-21
-6.51629e-22
6.51304e-22
0
-2.50035e-11
-2.4997e-11
-6.51089e-22
0
0
0
0
6.51618e-22
6.51712e-22
0
0
0
0
6.52284e-22
0
1.30474e-21
1.30515e-21
-6.52652e-22
6.52603e-22
-6.52823e-22
0
0
0
0
6.53037e-22
0
0
-6.5335e-22
0
-6.53431e-22
1.30708e-21
1.30704e-21
-6.5363e-22
0
6.53722e-22
-1.30741e-21
0
-6.538e-22
0
1.30807e-21
0
0
0
-6.54107e-22
-2.50001e-11
-2.49999e-11
0
6.54457e-22
-2.50001e-11
-2.49999e-11
0
0
0
0
0
0
0
)
;
    }
    front
    {
        type            wedge;
    }
    back
    {
        type            wedge;
    }
}


// ************************************************************************* //
