/*--------------------------------*- C++ -*----------------------------------*\
| =========                 |                                                 |
| \\      /  F ield         | foam-extend: Open Source CFD                    |
|  \\    /   O peration     | Version:     4.1-20200408                       |
|   \\  /    A nd           | Web:         http://www.foam-extend.org         |
|    \\/     M anipulation  |                                                 |
\*---------------------------------------------------------------------------*/
FoamFile
{
    version     2.0;
    format      ascii;
    class       volVectorField;
    location    "0.0100000";
    object      DU_0;
}
// * * * * * * * * * * * * * * * * * * * * * * * * * * * * * * * * * * * * * //

dimensions      [0 1 0 0 0 0 0];

internalField   nonuniform List<vector> 
1952
(
(5.00028e-05 3.03987e-09 0)
(5.00028e-05 4.91959e-09 0)
(5.00028e-05 6.88549e-09 0)
(5.00028e-05 8.7606e-09 0)
(5.00028e-05 1.07579e-08 0)
(5.00028e-05 1.26072e-08 0)
(5.00028e-05 1.46219e-08 0)
(5.00028e-05 1.64421e-08 0)
(5.00028e-05 1.84513e-08 0)
(5.00027e-05 2.01997e-08 0)
(5.00026e-05 2.20882e-08 0)
(5.00022e-05 2.35539e-08 0)
(5.00013e-05 2.48572e-08 0)
(4.99993e-05 2.53009e-08 0)
(4.99952e-05 2.46521e-08 0)
(5.00028e-05 1.29983e-09 0)
(5.00039e-05 2.5079e-09 0)
(5.00039e-05 4.06826e-09 0)
(5.00039e-05 5.65996e-09 0)
(5.00039e-05 7.20736e-09 0)
(5.00038e-05 8.78277e-09 0)
(5.00038e-05 1.02667e-08 0)
(5.00037e-05 1.17816e-08 0)
(5.00036e-05 1.31458e-08 0)
(5.00035e-05 1.45173e-08 0)
(5.00032e-05 1.56378e-08 0)
(5.00027e-05 1.66757e-08 0)
(5.00018e-05 1.72758e-08 0)
(5.00002e-05 1.75834e-08 0)
(4.99976e-05 1.72102e-08 0)
(4.99931e-05 1.63615e-08 0)
(5.00039e-05 1.07389e-09 0)
(5.00046e-05 2.00463e-09 0)
(5.00045e-05 3.24828e-09 0)
(5.00045e-05 4.49937e-09 0)
(5.00044e-05 5.71057e-09 0)
(5.00044e-05 6.90758e-09 0)
(5.00042e-05 8.01785e-09 0)
(5.00041e-05 9.09585e-09 0)
(5.00038e-05 1.00217e-08 0)
(5.00035e-05 1.08752e-08 0)
(5.0003e-05 1.14754e-08 0)
(5.00022e-05 1.19299e-08 0)
(5.0001e-05 1.19893e-08 0)
(4.99992e-05 1.18379e-08 0)
(4.99965e-05 1.12136e-08 0)
(4.99927e-05 1.06349e-08 0)
(5.00046e-05 8.58898e-10 0)
(5.00047e-05 1.52551e-09 0)
(5.00047e-05 2.46586e-09 0)
(5.00046e-05 3.39935e-09 0)
(5.00045e-05 4.28971e-09 0)
(5.00043e-05 5.14464e-09 0)
(5.00041e-05 5.91024e-09 0)
(5.00039e-05 6.61503e-09 0)
(5.00035e-05 7.16855e-09 0)
(5.0003e-05 7.62448e-09 0)
(5.00023e-05 7.84742e-09 0)
(5.00012e-05 7.9344e-09 0)
(4.99998e-05 7.70695e-09 0)
(4.99979e-05 7.374e-09 0)
(4.99953e-05 6.74763e-09 0)
(4.9992e-05 6.32903e-09 0)
(5.00047e-05 6.53973e-10 0)
(5.00045e-05 1.08555e-09 0)
(5.00044e-05 1.74785e-09 0)
(5.00043e-05 2.3949e-09 0)
(5.00041e-05 2.99567e-09 0)
(5.00039e-05 3.55246e-09 0)
(5.00036e-05 4.01964e-09 0)
(5.00032e-05 4.41844e-09 0)
(5.00027e-05 4.67493e-09 0)
(5.00021e-05 4.83758e-09 0)
(5.00012e-05 4.80111e-09 0)
(5.00001e-05 4.66465e-09 0)
(4.99986e-05 4.29599e-09 0)
(4.99967e-05 3.90789e-09 0)
(4.99944e-05 3.34967e-09 0)
(4.99917e-05 3.06283e-09 0)
(5.00045e-05 4.65659e-10 0)
(5.00038e-05 6.92838e-10 0)
(5.00037e-05 1.10827e-09 0)
(5.00035e-05 1.50424e-09 0)
(5.00033e-05 1.85381e-09 0)
(5.0003e-05 2.15899e-09 0)
(5.00027e-05 2.37968e-09 0)
(5.00022e-05 2.53693e-09 0)
(5.00016e-05 2.56879e-09 0)
(5.00009e-05 2.52481e-09 0)
(4.99999e-05 2.32159e-09 0)
(4.99987e-05 2.05868e-09 0)
(4.99973e-05 1.63496e-09 0)
(4.99955e-05 1.24578e-09 0)
(4.99935e-05 7.65112e-10 0)
(4.99912e-05 5.44286e-10 0)
(5.00038e-05 2.97471e-10 0)
(5.00028e-05 3.51937e-10 0)
(5.00027e-05 5.54438e-10 0)
(5.00025e-05 7.36345e-10 0)
(5.00022e-05 8.74697e-10 0)
(5.00019e-05 9.73369e-10 0)
(5.00015e-05 9.96846e-10 0)
(5.0001e-05 9.68428e-10 0)
(5.00003e-05 8.35451e-10 0)
(4.99995e-05 6.49318e-10 0)
(4.99985e-05 3.42465e-10 0)
(4.99973e-05 1.10202e-11 0)
(4.99959e-05 -4.25558e-10 0)
(4.99943e-05 -7.96621e-10 0)
(4.99926e-05 -1.21081e-09 0)
(4.99908e-05 -1.39285e-09 0)
(5.00028e-05 1.514e-10 0)
(5.00015e-05 6.36537e-11 0)
(5.00014e-05 8.73224e-11 0)
(5.00012e-05 9.14511e-11 0)
(5.00009e-05 5.70404e-11 0)
(5.00005e-05 -9.40013e-12 0)
(5.00001e-05 -1.39302e-10 0)
(4.99995e-05 -3.06721e-10 0)
(4.99988e-05 -5.57079e-10 0)
(4.9998e-05 -8.38113e-10 0)
(4.9997e-05 -1.20616e-09 0)
(4.99959e-05 -1.57164e-09 0)
(4.99946e-05 -2.0014e-09 0)
(4.99932e-05 -2.35145e-09 0)
(4.99917e-05 -2.71647e-09 0)
(4.99902e-05 -2.88434e-09 0)
(5.00016e-05 2.78201e-11 0)
(5e-05 -1.74211e-10 0)
(4.99999e-05 -2.97094e-10 0)
(4.99997e-05 -4.37086e-10 0)
(4.99994e-05 -6.09448e-10 0)
(4.9999e-05 -8.04892e-10 0)
(4.99985e-05 -1.05139e-09 0)
(4.99979e-05 -1.3207e-09 0)
(4.99972e-05 -1.65283e-09 0)
(4.99964e-05 -1.99585e-09 0)
(4.99955e-05 -2.3984e-09 0)
(4.99944e-05 -2.77892e-09 0)
(4.99933e-05 -3.19504e-09 0)
(4.9992e-05 -3.52724e-09 0)
(4.99908e-05 -3.85845e-09 0)
(4.99896e-05 -4.02539e-09 0)
(5.00001e-05 -7.41886e-11 0)
(4.99984e-05 -3.65891e-10 0)
(4.99982e-05 -6.06068e-10 0)
(4.9998e-05 -8.60218e-10 0)
(4.99977e-05 -1.14022e-09 0)
(4.99973e-05 -1.43421e-09 0)
(4.99968e-05 -1.7674e-09 0)
(4.99963e-05 -2.10974e-09 0)
(4.99956e-05 -2.49748e-09 0)
(4.99948e-05 -2.87983e-09 0)
(4.99939e-05 -3.30044e-09 0)
(4.9993e-05 -3.68594e-09 0)
(4.99919e-05 -4.08772e-09 0)
(4.99909e-05 -4.40733e-09 0)
(4.99898e-05 -4.71764e-09 0)
(4.99889e-05 -4.89311e-09 0)
(4.99985e-05 -1.56422e-10 0)
(4.99967e-05 -5.16864e-10 0)
(4.99965e-05 -8.48814e-10 0)
(4.99963e-05 -1.19137e-09 0)
(4.9996e-05 -1.55353e-09 0)
(4.99956e-05 -1.92117e-09 0)
(4.99951e-05 -2.31742e-09 0)
(4.99945e-05 -2.71097e-09 0)
(4.99939e-05 -3.1356e-09 0)
(4.99932e-05 -3.54213e-09 0)
(4.99924e-05 -3.97111e-09 0)
(4.99915e-05 -4.35679e-09 0)
(4.99906e-05 -4.74625e-09 0)
(4.99897e-05 -5.05839e-09 0)
(4.99888e-05 -5.35739e-09 0)
(4.99881e-05 -5.54669e-09 0)
(4.99967e-05 -2.21216e-10 0)
(4.99948e-05 -6.33163e-10 0)
(4.99947e-05 -1.03533e-09 0)
(4.99944e-05 -1.44486e-09 0)
(4.99941e-05 -1.86835e-09 0)
(4.99938e-05 -2.28979e-09 0)
(4.99933e-05 -2.73089e-09 0)
(4.99928e-05 -3.1594e-09 0)
(4.99922e-05 -3.60777e-09 0)
(4.99915e-05 -4.02843e-09 0)
(4.99908e-05 -4.46032e-09 0)
(4.999e-05 -4.84419e-09 0)
(4.99893e-05 -5.22423e-09 0)
(4.99885e-05 -5.53319e-09 0)
(4.99878e-05 -5.82789e-09 0)
(4.99872e-05 -6.03406e-09 0)
(4.99949e-05 -2.71145e-10 0)
(4.99929e-05 -7.20842e-10 0)
(4.99928e-05 -1.17559e-09 0)
(4.99926e-05 -1.63474e-09 0)
(4.99923e-05 -2.10301e-09 0)
(4.99919e-05 -2.56281e-09 0)
(4.99915e-05 -3.03502e-09 0)
(4.9991e-05 -3.48669e-09 0)
(4.99905e-05 -3.94971e-09 0)
(4.99899e-05 -4.37804e-09 0)
(4.99892e-05 -4.80989e-09 0)
(4.99886e-05 -5.19145e-09 0)
(4.99879e-05 -5.56491e-09 0)
(4.99873e-05 -5.87391e-09 0)
(4.99867e-05 -6.16906e-09 0)
(4.99862e-05 -6.39325e-09 0)
(4.9993e-05 -3.08801e-10 0)
(4.9991e-05 -7.85688e-10 0)
(4.99909e-05 -1.27904e-09 0)
(4.99907e-05 -1.77421e-09 0)
(4.99904e-05 -2.27451e-09 0)
(4.99901e-05 -2.76102e-09 0)
(4.99897e-05 -3.25426e-09 0)
(4.99893e-05 -3.72066e-09 0)
(4.99888e-05 -4.19225e-09 0)
(4.99883e-05 -4.62412e-09 0)
(4.99877e-05 -5.05457e-09 0)
(4.99871e-05 -5.43393e-09 0)
(4.99866e-05 -5.80325e-09 0)
(4.9986e-05 -6.11445e-09 0)
(4.99855e-05 -6.41308e-09 0)
(4.99851e-05 -6.65522e-09 0)
(4.99911e-05 -3.36661e-10 0)
(4.99891e-05 -8.32961e-10 0)
(4.9989e-05 -1.35423e-09 0)
(4.99888e-05 -1.87515e-09 0)
(4.99886e-05 -2.39796e-09 0)
(4.99883e-05 -2.90266e-09 0)
(4.99879e-05 -3.40973e-09 0)
(4.99876e-05 -3.8851e-09 0)
(4.99871e-05 -4.36127e-09 0)
(4.99867e-05 -4.79419e-09 0)
(4.99862e-05 -5.22271e-09 0)
(4.99857e-05 -5.60023e-09 0)
(4.99852e-05 -5.96723e-09 0)
(4.99847e-05 -6.28187e-09 0)
(4.99843e-05 -6.58565e-09 0)
(4.9984e-05 -6.84477e-09 0)
(4.99891e-05 -3.56977e-10 0)
(4.99872e-05 -8.6736e-10 0)
(4.99871e-05 -1.40879e-09 0)
(4.99869e-05 -1.94802e-09 0)
(4.99867e-05 -2.48662e-09 0)
(4.99865e-05 -3.00356e-09 0)
(4.99862e-05 -3.51966e-09 0)
(4.99858e-05 -4.00017e-09 0)
(4.99855e-05 -4.47856e-09 0)
(4.99851e-05 -4.91108e-09 0)
(4.99846e-05 -5.33764e-09 0)
(4.99842e-05 -5.71363e-09 0)
(4.99838e-05 -6.07962e-09 0)
(4.99835e-05 -6.39812e-09 0)
(4.99831e-05 -6.7077e-09 0)
(4.99829e-05 -6.98218e-09 0)
(4.99872e-05 -3.71766e-10 0)
(4.99853e-05 -8.92924e-10 0)
(4.99852e-05 -1.44922e-09 0)
(4.9985e-05 -2.00178e-09 0)
(4.99849e-05 -2.5517e-09 0)
(4.99847e-05 -3.07706e-09 0)
(4.99844e-05 -3.59915e-09 0)
(4.99841e-05 -4.08258e-09 0)
(4.99838e-05 -4.56187e-09 0)
(4.99835e-05 -4.99331e-09 0)
(4.99831e-05 -5.4181e-09 0)
(4.99828e-05 -5.79278e-09 0)
(4.99824e-05 -6.15848e-09 0)
(4.99821e-05 -6.48067e-09 0)
(4.99819e-05 -6.79588e-09 0)
(4.99817e-05 -7.08363e-09 0)
(4.99853e-05 -3.8276e-10 0)
(4.99833e-05 -9.13133e-10 0)
(4.99833e-05 -1.48114e-09 0)
(4.99832e-05 -2.04407e-09 0)
(4.9983e-05 -2.60278e-09 0)
(4.99829e-05 -3.13443e-09 0)
(4.99827e-05 -3.66099e-09 0)
(4.99824e-05 -4.14624e-09 0)
(4.99822e-05 -4.626e-09 0)
(4.99819e-05 -5.05615e-09 0)
(4.99816e-05 -5.47951e-09 0)
(4.99813e-05 -5.8529e-09 0)
(4.99811e-05 -6.21863e-09 0)
(4.99808e-05 -6.54379e-09 0)
(4.99806e-05 -6.86385e-09 0)
(4.99804e-05 -7.16242e-09 0)
(4.99834e-05 -3.91451e-10 0)
(4.99814e-05 -9.30863e-10 0)
(4.99814e-05 -1.50916e-09 0)
(4.99813e-05 -2.08119e-09 0)
(4.99812e-05 -2.64768e-09 0)
(4.99811e-05 -3.18489e-09 0)
(4.99809e-05 -3.7155e-09 0)
(4.99807e-05 -4.20243e-09 0)
(4.99805e-05 -4.68279e-09 0)
(4.99803e-05 -5.1118e-09 0)
(4.99801e-05 -5.53408e-09 0)
(4.99799e-05 -5.90607e-09 0)
(4.99797e-05 -6.27175e-09 0)
(4.99795e-05 -6.59872e-09 0)
(4.99793e-05 -6.92239e-09 0)
(4.99792e-05 -7.22904e-09 0)
(4.99815e-05 -3.99075e-10 0)
(4.99795e-05 -9.48531e-10 0)
(4.99795e-05 -1.53717e-09 0)
(4.99794e-05 -2.11841e-09 0)
(4.99794e-05 -2.69296e-09 0)
(4.99793e-05 -3.23611e-09 0)
(4.99792e-05 -3.77128e-09 0)
(4.99791e-05 -4.26044e-09 0)
(4.99789e-05 -4.74203e-09 0)
(4.99788e-05 -5.17029e-09 0)
(4.99786e-05 -5.59189e-09 0)
(4.99785e-05 -5.96219e-09 0)
(4.99783e-05 -6.32742e-09 0)
(4.99781e-05 -6.65471e-09 0)
(4.9978e-05 -6.98033e-09 0)
(4.99779e-05 -7.29208e-09 0)
(4.99796e-05 -4.06669e-10 0)
(4.99776e-05 -9.68063e-10 0)
(4.99776e-05 -1.56824e-09 0)
(4.99776e-05 -2.15993e-09 0)
(4.99776e-05 -2.7438e-09 0)
(4.99775e-05 -3.29416e-09 0)
(4.99775e-05 -3.83511e-09 0)
(4.99774e-05 -4.32762e-09 0)
(4.99773e-05 -4.81141e-09 0)
(4.99772e-05 -5.23951e-09 0)
(4.99771e-05 -5.66081e-09 0)
(4.9977e-05 -6.02898e-09 0)
(4.99769e-05 -6.39314e-09 0)
(4.99768e-05 -6.71893e-09 0)
(4.99767e-05 -7.04453e-09 0)
(4.99766e-05 -7.35818e-09 0)
(4.99776e-05 -4.15061e-10 0)
(4.99757e-05 -9.91008e-10 0)
(4.99757e-05 -1.60489e-09 0)
(4.99757e-05 -2.20911e-09 0)
(4.99757e-05 -2.80439e-09 0)
(4.99757e-05 -3.36393e-09 0)
(4.99757e-05 -3.91246e-09 0)
(4.99757e-05 -4.40989e-09 0)
(4.99757e-05 -4.89714e-09 0)
(4.99757e-05 -5.32581e-09 0)
(4.99756e-05 -5.74719e-09 0)
(4.99756e-05 -6.11269e-09 0)
(4.99755e-05 -6.47492e-09 0)
(4.99754e-05 -6.79712e-09 0)
(4.99753e-05 -7.12046e-09 0)
(4.99752e-05 -7.43254e-09 0)
(4.99757e-05 -4.24916e-10 0)
(4.99737e-05 -1.01851e-09 0)
(4.99738e-05 -1.64893e-09 0)
(4.99738e-05 -2.26847e-09 0)
(4.99739e-05 -2.87783e-09 0)
(4.99739e-05 -3.44908e-09 0)
(4.9974e-05 -4.00741e-09 0)
(4.9974e-05 -4.51168e-09 0)
(4.99741e-05 -5.00388e-09 0)
(4.99741e-05 -5.43396e-09 0)
(4.99741e-05 -5.85584e-09 0)
(4.99742e-05 -6.21799e-09 0)
(4.99741e-05 -6.57732e-09 0)
(4.99741e-05 -6.89357e-09 0)
(4.9974e-05 -7.21216e-09 0)
(4.99739e-05 -7.51895e-09 0)
(4.99737e-05 -4.36727e-10 0)
(4.99718e-05 -1.05136e-09 0)
(4.99718e-05 -1.70165e-09 0)
(4.99719e-05 -2.33974e-09 0)
(4.9972e-05 -2.96628e-09 0)
(4.99721e-05 -3.55217e-09 0)
(4.99722e-05 -4.12282e-09 0)
(4.99723e-05 -4.63615e-09 0)
(4.99724e-05 -5.13493e-09 0)
(4.99726e-05 -5.5674e-09 0)
(4.99726e-05 -5.99017e-09 0)
(4.99727e-05 -6.34825e-09 0)
(4.99727e-05 -6.70352e-09 0)
(4.99727e-05 -7.01125e-09 0)
(4.99727e-05 -7.32236e-09 0)
(4.99726e-05 -7.61984e-09 0)
(4.99717e-05 -4.50833e-10 0)
(4.99697e-05 -1.08996e-09 0)
(4.99698e-05 -1.76369e-09 0)
(4.99699e-05 -2.42384e-09 0)
(4.99701e-05 -3.07089e-09 0)
(4.99702e-05 -3.67459e-09 0)
(4.99704e-05 -4.26031e-09 0)
(4.99706e-05 -4.78508e-09 0)
(4.99708e-05 -5.29229e-09 0)
(4.9971e-05 -5.72814e-09 0)
(4.99711e-05 -6.15233e-09 0)
(4.99713e-05 -6.50548e-09 0)
(4.99713e-05 -6.85555e-09 0)
(4.99714e-05 -7.15191e-09 0)
(4.99714e-05 -7.45261e-09 0)
(4.99713e-05 -7.73638e-09 0)
(4.99697e-05 -4.67406e-10 0)
(4.99676e-05 -1.13428e-09 0)
(4.99678e-05 -1.83503e-09 0)
(4.99679e-05 -2.52074e-09 0)
(4.99681e-05 -3.19166e-09 0)
(4.99683e-05 -3.81646e-09 0)
(4.99686e-05 -4.42001e-09 0)
(4.99688e-05 -4.95878e-09 0)
(4.99691e-05 -5.47622e-09 0)
(4.99694e-05 -5.91666e-09 0)
(4.99696e-05 -6.34272e-09 0)
(4.99699e-05 -6.69015e-09 0)
(4.997e-05 -7.03371e-09 0)
(4.99701e-05 -7.3157e-09 0)
(4.99701e-05 -7.60283e-09 0)
(4.99701e-05 -7.86811e-09 0)
(4.99676e-05 -4.86432e-10 0)
(4.99654e-05 -1.1838e-09 0)
(4.99656e-05 -1.91486e-09 0)
(4.99658e-05 -2.62944e-09 0)
(4.99661e-05 -3.32739e-09 0)
(4.99663e-05 -3.97643e-09 0)
(4.99667e-05 -4.60058e-09 0)
(4.9967e-05 -5.15586e-09 0)
(4.99674e-05 -5.68553e-09 0)
(4.99678e-05 -6.13168e-09 0)
(4.99681e-05 -6.5603e-09 0)
(4.99684e-05 -6.90109e-09 0)
(4.99686e-05 -7.23699e-09 0)
(4.99688e-05 -7.50133e-09 0)
(4.99689e-05 -7.7716e-09 0)
(4.99688e-05 -8.01314e-09 0)
(4.99654e-05 -5.07694e-10 0)
(4.99632e-05 -1.23738e-09 0)
(4.99634e-05 -2.00138e-09 0)
(4.99636e-05 -2.74755e-09 0)
(4.99639e-05 -3.47515e-09 0)
(4.99643e-05 -4.15133e-09 0)
(4.99647e-05 -4.79846e-09 0)
(4.99652e-05 -5.37279e-09 0)
(4.99657e-05 -5.91646e-09 0)
(4.99662e-05 -6.3697e-09 0)
(4.99666e-05 -6.80147e-09 0)
(4.9967e-05 -7.1349e-09 0)
(4.99673e-05 -7.4619e-09 0)
(4.99676e-05 -7.70523e-09 0)
(4.99677e-05 -7.95514e-09 0)
(4.99677e-05 -8.16723e-09 0)
(4.99631e-05 -5.30702e-10 0)
(4.99608e-05 -1.29321e-09 0)
(4.9961e-05 -2.09171e-09 0)
(4.99613e-05 -2.87124e-09 0)
(4.99617e-05 -3.6303e-09 0)
(4.99622e-05 -4.33581e-09 0)
(4.99627e-05 -5.00793e-09 0)
(4.99633e-05 -5.6035e-09 0)
(4.99639e-05 -6.163e-09 0)
(4.99645e-05 -6.62458e-09 0)
(4.9965e-05 -7.0604e-09 0)
(4.99656e-05 -7.38571e-09 0)
(4.9966e-05 -7.70285e-09 0)
(4.99664e-05 -7.92163e-09 0)
(4.99665e-05 -8.14765e-09 0)
(4.99666e-05 -8.32404e-09 0)
(4.99607e-05 -5.54673e-10 0)
(4.99583e-05 -1.34847e-09 0)
(4.99586e-05 -2.18137e-09 0)
(4.99589e-05 -2.99456e-09 0)
(4.99594e-05 -3.7855e-09 0)
(4.99599e-05 -4.52166e-09 0)
(4.99606e-05 -5.21983e-09 0)
(4.99613e-05 -5.83854e-09 0)
(4.9962e-05 -6.41522e-09 0)
(4.99628e-05 -6.88661e-09 0)
(4.99635e-05 -7.32732e-09 0)
(4.99642e-05 -7.64412e-09 0)
(4.99647e-05 -7.95054e-09 0)
(4.99652e-05 -8.1413e-09 0)
(4.99654e-05 -8.33986e-09 0)
(4.99656e-05 -8.47378e-09 0)
(4.99582e-05 -5.78402e-10 0)
(4.99556e-05 -1.39931e-09 0)
(4.9956e-05 -2.26422e-09 0)
(4.99564e-05 -3.10927e-09 0)
(4.9957e-05 -3.9307e-09 0)
(4.99576e-05 -4.69727e-09 0)
(4.99584e-05 -5.42149e-09 0)
(4.99592e-05 -6.06441e-09 0)
(4.99601e-05 -6.65938e-09 0)
(4.9961e-05 -7.14187e-09 0)
(4.99619e-05 -7.58859e-09 0)
(4.99628e-05 -7.89666e-09 0)
(4.99634e-05 -8.19201e-09 0)
(4.99641e-05 -8.35132e-09 0)
(4.99644e-05 -8.519e-09 0)
(4.99646e-05 -8.60317e-09 0)
(4.99555e-05 -6.0023e-10 0)
(4.99528e-05 -1.44037e-09 0)
(4.99532e-05 -2.33171e-09 0)
(4.99537e-05 -3.20395e-09 0)
(4.99544e-05 -4.05176e-09 0)
(4.99552e-05 -4.84651e-09 0)
(4.99561e-05 -5.59494e-09 0)
(4.99571e-05 -6.26224e-09 0)
(4.99581e-05 -6.87571e-09 0)
(4.99593e-05 -7.3707e-09 0)
(4.99603e-05 -7.82454e-09 0)
(4.99614e-05 -8.12428e-09 0)
(4.99622e-05 -8.40862e-09 0)
(4.9963e-05 -8.53344e-09 0)
(4.99635e-05 -8.66711e-09 0)
(4.99638e-05 -8.69383e-09 0)
(4.99527e-05 -6.17862e-10 0)
(4.99499e-05 -1.46471e-09 0)
(4.99504e-05 -2.37272e-09 0)
(4.99509e-05 -3.26361e-09 0)
(4.99517e-05 -4.13025e-09 0)
(4.99526e-05 -4.94805e-09 0)
(4.99537e-05 -5.71659e-09 0)
(4.99548e-05 -6.40684e-09 0)
(4.99561e-05 -7.03811e-09 0)
(4.99574e-05 -7.54669e-09 0)
(4.99587e-05 -8.00896e-09 0)
(4.996e-05 -8.3013e-09 0)
(4.9961e-05 -8.57552e-09 0)
(4.9962e-05 -8.66334e-09 0)
(4.99627e-05 -8.76048e-09 0)
(4.99631e-05 -8.72167e-09 0)
(4.99498e-05 -6.28307e-10 0)
(4.99468e-05 -1.46321e-09 0)
(4.99474e-05 -2.37264e-09 0)
(4.9948e-05 -3.26858e-09 0)
(4.99489e-05 -4.14181e-09 0)
(4.99499e-05 -4.97372e-09 0)
(4.99511e-05 -5.75499e-09 0)
(4.99525e-05 -6.46468e-09 0)
(4.9954e-05 -7.11143e-09 0)
(4.99555e-05 -7.6344e-09 0)
(4.9957e-05 -8.1064e-09 0)
(4.99586e-05 -8.39319e-09 0)
(4.99599e-05 -8.65913e-09 0)
(4.99611e-05 -8.70843e-09 0)
(4.9962e-05 -8.76741e-09 0)
(4.99626e-05 -8.65489e-09 0)
(4.99467e-05 -6.27654e-10 0)
(4.99436e-05 -1.42446e-09 0)
(4.99442e-05 -2.31316e-09 0)
(4.99449e-05 -3.19408e-09 0)
(4.99459e-05 -4.05567e-09 0)
(4.99471e-05 -4.88769e-09 0)
(4.99485e-05 -5.67006e-09 0)
(4.995e-05 -6.39266e-09 0)
(4.99517e-05 -7.05045e-09 0)
(4.99535e-05 -7.58792e-09 0)
(4.99553e-05 -8.07081e-09 0)
(4.99572e-05 -8.355e-09 0)
(4.99588e-05 -8.61579e-09 0)
(4.99603e-05 -8.62647e-09 0)
(4.99615e-05 -8.64707e-09 0)
(4.99623e-05 -8.45279e-09 0)
(4.99435e-05 -6.11001e-10 0)
(4.99404e-05 -1.33419e-09 0)
(4.9941e-05 -2.1713e-09 0)
(4.99417e-05 -3.00887e-09 0)
(4.99428e-05 -3.83298e-09 0)
(4.99441e-05 -4.64444e-09 0)
(4.99457e-05 -5.41066e-09 0)
(4.99475e-05 -6.13544e-09 0)
(4.99494e-05 -6.79676e-09 0)
(4.99515e-05 -7.34761e-09 0)
(4.99536e-05 -7.8422e-09 0)
(4.99557e-05 -8.12801e-09 0)
(4.99577e-05 -8.38842e-09 0)
(4.99596e-05 -8.36241e-09 0)
(4.99611e-05 -8.34645e-09 0)
(4.99623e-05 -8.06289e-09 0)
(4.99402e-05 -5.72212e-10 0)
(4.9937e-05 -1.17509e-09 0)
(4.99377e-05 -1.91918e-09 0)
(4.99385e-05 -2.67494e-09 0)
(4.99397e-05 -3.42614e-09 0)
(4.99411e-05 -4.18794e-09 0)
(4.99428e-05 -4.9133e-09 0)
(4.99448e-05 -5.62399e-09 0)
(4.9947e-05 -6.27688e-09 0)
(4.99493e-05 -6.83813e-09 0)
(4.99518e-05 -7.34418e-09 0)
(4.99543e-05 -7.63736e-09 0)
(4.99567e-05 -7.90404e-09 0)
(4.99591e-05 -7.84616e-09 0)
(4.99609e-05 -7.79826e-09 0)
(4.99624e-05 -7.41909e-09 0)
(4.99368e-05 -5.03867e-10 0)
(4.99336e-05 -9.2655e-10 0)
(4.99343e-05 -1.52342e-09 0)
(4.99352e-05 -2.14648e-09 0)
(4.99365e-05 -2.77763e-09 0)
(4.9938e-05 -3.44976e-09 0)
(4.99399e-05 -4.10011e-09 0)
(4.99421e-05 -4.77253e-09 0)
(4.99445e-05 -5.39904e-09 0)
(4.99472e-05 -5.96421e-09 0)
(4.995e-05 -6.47981e-09 0)
(4.99529e-05 -6.78735e-09 0)
(4.99558e-05 -7.06916e-09 0)
(4.99586e-05 -6.98795e-09 0)
(4.99609e-05 -6.91663e-09 0)
(4.99629e-05 -6.43747e-09 0)
(4.99334e-05 -3.97102e-10 0)
(4.99304e-05 -5.64649e-10 0)
(4.99311e-05 -9.45191e-10 0)
(4.9932e-05 -1.36994e-09 0)
(4.99333e-05 -1.81958e-09 0)
(4.9935e-05 -2.34865e-09 0)
(4.9937e-05 -2.87745e-09 0)
(4.99393e-05 -3.47716e-09 0)
(4.9942e-05 -4.05056e-09 0)
(4.99449e-05 -4.60811e-09 0)
(4.99481e-05 -5.12771e-09 0)
(4.99515e-05 -5.4577e-09 0)
(4.99549e-05 -5.76544e-09 0)
(4.99582e-05 -5.67449e-09 0)
(4.99611e-05 -5.59325e-09 0)
(4.99637e-05 -5.01285e-09 0)
(4.99302e-05 -2.41656e-10 0)
(4.99273e-05 -6.24938e-11 0)
(4.9928e-05 -1.4065e-10 0)
(4.9929e-05 -2.84294e-10 0)
(4.99303e-05 -4.74169e-10 0)
(4.9932e-05 -7.90072e-10 0)
(4.9934e-05 -1.13543e-09 0)
(4.99365e-05 -1.61375e-09 0)
(4.99394e-05 -2.09547e-09 0)
(4.99426e-05 -2.62512e-09 0)
(4.99462e-05 -3.13742e-09 0)
(4.995e-05 -3.4973e-09 0)
(4.9954e-05 -3.84332e-09 0)
(4.9958e-05 -3.76215e-09 0)
(4.99616e-05 -3.69093e-09 0)
(4.99649e-05 -3.01272e-09 0)
(4.99271e-05 -2.59905e-11 0)
(4.99246e-05 6.09015e-10 0)
(4.99253e-05 9.37934e-10 0)
(4.99262e-05 1.17746e-09 0)
(4.99275e-05 1.34519e-09 0)
(4.99292e-05 1.33245e-09 0)
(4.99313e-05 1.25201e-09 0)
(4.99338e-05 9.6212e-10 0)
(4.99368e-05 6.27634e-10 0)
(4.99403e-05 1.59039e-10 0)
(4.99443e-05 -3.24297e-10 0)
(4.99486e-05 -7.18693e-10 0)
(4.99531e-05 -1.11488e-09 0)
(4.99579e-05 -1.0703e-09 0)
(4.99623e-05 -1.03692e-09 0)
(4.99665e-05 -2.716e-10 0)
(4.99244e-05 2.6237e-10 0)
(4.99224e-05 1.47959e-09 0)
(4.9923e-05 2.33969e-09 0)
(4.99239e-05 3.08526e-09 0)
(4.99251e-05 3.7302e-09 0)
(4.99267e-05 4.13406e-09 0)
(4.99288e-05 4.42375e-09 0)
(4.99313e-05 4.41373e-09 0)
(4.99344e-05 4.30495e-09 0)
(4.9938e-05 3.95088e-09 0)
(4.99423e-05 3.53467e-09 0)
(4.99471e-05 3.10955e-09 0)
(4.99523e-05 2.65509e-09 0)
(4.99579e-05 2.62873e-09 0)
(4.99632e-05 2.58664e-09 0)
(4.99685e-05 3.41711e-09 0)
(4.99222e-05 6.36154e-10 0)
(4.9921e-05 2.5773e-09 0)
(4.99215e-05 4.11154e-09 0)
(4.99223e-05 5.50718e-09 0)
(4.99233e-05 6.77211e-09 0)
(4.99248e-05 7.73244e-09 0)
(4.99267e-05 8.52599e-09 0)
(4.99291e-05 8.91821e-09 0)
(4.99322e-05 9.14515e-09 0)
(4.99359e-05 8.98905e-09 0)
(4.99404e-05 8.70547e-09 0)
(4.99456e-05 8.27125e-09 0)
(4.99515e-05 7.76282e-09 0)
(4.99579e-05 7.6261e-09 0)
(4.99644e-05 7.46199e-09 0)
(4.99711e-05 8.31987e-09 0)
(4.99209e-05 1.10735e-09 0)
(4.99206e-05 3.92488e-09 0)
(4.9921e-05 6.29238e-09 0)
(4.99216e-05 8.50155e-09 0)
(4.99224e-05 1.05522e-08 0)
(4.99236e-05 1.2237e-08 0)
(4.99253e-05 1.37007e-08 0)
(4.99275e-05 1.46558e-08 0)
(4.99304e-05 1.53697e-08 0)
(4.9934e-05 1.55388e-08 0)
(4.99386e-05 1.54957e-08 0)
(4.9944e-05 1.51089e-08 0)
(4.99506e-05 1.4579e-08 0)
(4.9958e-05 1.42984e-08 0)
(4.99658e-05 1.39661e-08 0)
(4.99741e-05 1.47964e-08 0)
(4.99205e-05 1.68567e-09 0)
(4.99216e-05 5.5352e-09 0)
(4.99217e-05 8.90556e-09 0)
(4.99221e-05 1.21066e-08 0)
(4.99226e-05 1.51284e-08 0)
(4.99235e-05 1.77333e-08 0)
(4.99248e-05 2.00682e-08 0)
(4.99266e-05 2.17912e-08 0)
(4.99291e-05 2.31954e-08 0)
(4.99325e-05 2.38763e-08 0)
(4.9937e-05 2.42435e-08 0)
(4.99426e-05 2.40184e-08 0)
(4.99497e-05 2.35498e-08 0)
(4.9958e-05 2.31134e-08 0)
(4.99673e-05 2.25814e-08 0)
(4.99775e-05 2.33036e-08 0)
(4.99215e-05 2.37653e-09 0)
(4.99242e-05 7.40535e-09 0)
(4.99241e-05 1.19492e-08 0)
(4.99242e-05 1.63265e-08 0)
(4.99243e-05 2.05177e-08 0)
(4.99248e-05 2.42609e-08 0)
(4.99255e-05 2.77015e-08 0)
(4.99268e-05 3.04459e-08 0)
(4.99288e-05 3.28055e-08 0)
(4.99317e-05 3.42628e-08 0)
(4.99359e-05 3.52973e-08 0)
(4.99414e-05 3.54373e-08 0)
(4.99488e-05 3.51891e-08 0)
(4.99579e-05 3.46217e-08 0)
(4.99688e-05 3.38594e-08 0)
(4.99814e-05 3.43159e-08 0)
(4.99241e-05 3.17856e-09 0)
(4.99287e-05 9.51e-09 0)
(4.99284e-05 1.53851e-08 0)
(4.99282e-05 2.11155e-08 0)
(4.99279e-05 2.66738e-08 0)
(4.99279e-05 3.17846e-08 0)
(4.9928e-05 3.65909e-08 0)
(4.99286e-05 4.06564e-08 0)
(4.99298e-05 4.43052e-08 0)
(4.99319e-05 4.69038e-08 0)
(4.99355e-05 4.89906e-08 0)
(4.99405e-05 4.98547e-08 0)
(4.99479e-05 5.01466e-08 0)
(4.99576e-05 4.95967e-08 0)
(4.99702e-05 4.8601e-08 0)
(4.99855e-05 4.85043e-08 0)
(4.99287e-05 4.08078e-09 0)
(4.99354e-05 1.17952e-08 0)
(4.99349e-05 1.91276e-08 0)
(4.99344e-05 2.63606e-08 0)
(4.99337e-05 3.3463e-08 0)
(4.99331e-05 4.01614e-08 0)
(4.99325e-05 4.65978e-08 0)
(4.99323e-05 5.23135e-08 0)
(4.99326e-05 5.76452e-08 0)
(4.99338e-05 6.18602e-08 0)
(4.99364e-05 6.55574e-08 0)
(4.99405e-05 6.77695e-08 0)
(4.99474e-05 6.92952e-08 0)
(4.99571e-05 6.93834e-08 0)
(4.99711e-05 6.86516e-08 0)
(4.99895e-05 6.80422e-08 0)
(4.99355e-05 5.0599e-09 0)
(4.99446e-05 1.41735e-08 0)
(4.99439e-05 2.30353e-08 0)
(4.99431e-05 3.1868e-08 0)
(4.99419e-05 4.06424e-08 0)
(4.99408e-05 4.91051e-08 0)
(4.99395e-05 5.74029e-08 0)
(4.99385e-05 6.50816e-08 0)
(4.99378e-05 7.24972e-08 0)
(4.99379e-05 7.88597e-08 0)
(4.99392e-05 8.48494e-08 0)
(4.99422e-05 8.92932e-08 0)
(4.9948e-05 9.32246e-08 0)
(4.9957e-05 9.53998e-08 0)
(4.99715e-05 9.6832e-08 0)
(4.99928e-05 9.75775e-08 0)
(4.99448e-05 6.07835e-09 0)
(4.99564e-05 1.65239e-08 0)
(4.99555e-05 2.69099e-08 0)
(4.99545e-05 3.73602e-08 0)
(4.99529e-05 4.78528e-08 0)
(4.99513e-05 5.81734e-08 0)
(4.99493e-05 6.84775e-08 0)
(4.99475e-05 7.8345e-08 0)
(4.99459e-05 8.81524e-08 0)
(4.99449e-05 9.71004e-08 0)
(4.9945e-05 1.05957e-07 0)
(4.99466e-05 1.13417e-07 0)
(4.99512e-05 1.20825e-07 0)
(4.99593e-05 1.26542e-07 0)
(4.99735e-05 1.32413e-07 0)
(4.99959e-05 1.37558e-07 0)
(4.99567e-05 7.08425e-09 0)
(4.99707e-05 1.86961e-08 0)
(4.99697e-05 3.05036e-08 0)
(4.99685e-05 4.24853e-08 0)
(4.99667e-05 5.46318e-08 0)
(4.99647e-05 6.67833e-08 0)
(4.99622e-05 7.9105e-08 0)
(4.99598e-05 9.12359e-08 0)
(4.99573e-05 1.03561e-07 0)
(4.99553e-05 1.15306e-07 0)
(4.99541e-05 1.27277e-07 0)
(4.99543e-05 1.38053e-07 0)
(4.99574e-05 1.49144e-07 0)
(4.99641e-05 1.58396e-07 0)
(4.99773e-05 1.68108e-07 0)
(4.99989e-05 1.76072e-07 0)
(4.9971e-05 8.01323e-09 0)
(4.99874e-05 2.05214e-08 0)
(4.99863e-05 3.35367e-08 0)
(4.9985e-05 4.68441e-08 0)
(4.99831e-05 6.04501e-08 0)
(4.99809e-05 7.42623e-08 0)
(4.99781e-05 8.84548e-08 0)
(4.99752e-05 1.0275e-07 0)
(4.99721e-05 1.17529e-07 0)
(4.99691e-05 1.32086e-07 0)
(4.99667e-05 1.47221e-07 0)
(4.99655e-05 1.61469e-07 0)
(4.99666e-05 1.76404e-07 0)
(4.99711e-05 1.89428e-07 0)
(4.9982e-05 2.03213e-07 0)
(5.0001e-05 2.14253e-07 0)
(4.99877e-05 8.79314e-09 0)
(5.0006e-05 2.18259e-08 0)
(5.0005e-05 3.57195e-08 0)
(5.00037e-05 5.00197e-08 0)
(5.00018e-05 6.47496e-08 0)
(4.99996e-05 7.9892e-08 0)
(4.99967e-05 9.5627e-08 0)
(4.99936e-05 1.11781e-07 0)
(4.999e-05 1.28715e-07 0)
(4.99864e-05 1.45838e-07 0)
(4.99828e-05 1.63895e-07 0)
(4.99801e-05 1.81457e-07 0)
(4.9979e-05 2.0004e-07 0)
(4.99808e-05 2.16725e-07 0)
(4.9988e-05 2.3437e-07 0)
(5.00026e-05 2.48316e-07 0)
(5.00062e-05 9.34963e-09 0)
(5.00258e-05 2.24486e-08 0)
(5.0025e-05 3.67826e-08 0)
(5.00239e-05 5.16206e-08 0)
(5.00222e-05 6.70008e-08 0)
(5.00202e-05 8.29835e-08 0)
(5.00175e-05 9.97494e-08 0)
(5.00144e-05 1.17245e-07 0)
(5.00107e-05 1.35804e-07 0)
(5.00066e-05 1.54993e-07 0)
(5.00021e-05 1.75474e-07 0)
(4.99979e-05 1.95968e-07 0)
(4.99943e-05 2.17816e-07 0)
(4.99926e-05 2.37962e-07 0)
(4.9995e-05 2.59189e-07 0)
(5.00033e-05 2.75826e-07 0)
(5.00261e-05 9.61395e-09 0)
(5.00462e-05 2.22603e-08 0)
(5.00456e-05 3.65077e-08 0)
(5.00448e-05 5.13249e-08 0)
(5.00434e-05 6.676e-08 0)
(5.00418e-05 8.29455e-08 0)
(5.00395e-05 1.00053e-07 0)
(5.00368e-05 1.1816e-07 0)
(5.00332e-05 1.37557e-07 0)
(5.00291e-05 1.58021e-07 0)
(5.0024e-05 1.8012e-07 0)
(5.00185e-05 2.02863e-07 0)
(5.00123e-05 2.27372e-07 0)
(5.00067e-05 2.50748e-07 0)
(5.0003e-05 2.75504e-07 0)
(5.00032e-05 2.95169e-07 0)
(5.00464e-05 9.53114e-09 0)
(5.00662e-05 2.11855e-08 0)
(5.00659e-05 3.47638e-08 0)
(5.00654e-05 4.89323e-08 0)
(5.00645e-05 6.37387e-08 0)
(5.00634e-05 7.9374e-08 0)
(5.00617e-05 9.59833e-08 0)
(5.00596e-05 1.13775e-07 0)
(5.00565e-05 1.32971e-07 0)
(5.00527e-05 1.53594e-07 0)
(5.00474e-05 1.76104e-07 0)
(5.00411e-05 1.99939e-07 0)
(5.00328e-05 2.25986e-07 0)
(5.00234e-05 2.51908e-07 0)
(5.0013e-05 2.79971e-07 0)
(5.00031e-05 3.03631e-07 0)
(5.00664e-05 9.0691e-09 0)
(5.00849e-05 1.92214e-08 0)
(5.00848e-05 3.15412e-08 0)
(5.00846e-05 4.44154e-08 0)
(5.00843e-05 5.78764e-08 0)
(5.00838e-05 7.21487e-08 0)
(5.00828e-05 8.73258e-08 0)
(5.00814e-05 1.03725e-07 0)
(5.00791e-05 1.21459e-07 0)
(5.00758e-05 1.40789e-07 0)
(5.00709e-05 1.62026e-07 0)
(5.00643e-05 1.85098e-07 0)
(5.00544e-05 2.10555e-07 0)
(5.00417e-05 2.36844e-07 0)
(5.00247e-05 2.65568e-07 0)
(5.00035e-05 2.90675e-07 0)
(5.00849e-05 8.22703e-09 0)
(5.01012e-05 1.64475e-08 0)
(5.01013e-05 2.69682e-08 0)
(5.01015e-05 3.79474e-08 0)
(5.01016e-05 4.9385e-08 0)
(5.01017e-05 6.1505e-08 0)
(5.01014e-05 7.43189e-08 0)
(5.01008e-05 8.82081e-08 0)
(5.00992e-05 1.03116e-07 0)
(5.00966e-05 1.195e-07 0)
(5.00924e-05 1.37509e-07 0)
(5.00858e-05 1.57561e-07 0)
(5.00749e-05 1.79845e-07 0)
(5.00595e-05 2.03914e-07 0)
(5.0036e-05 2.30798e-07 0)
(5.00026e-05 2.55703e-07 0)
(5.01011e-05 7.03915e-09 0)
(5.01143e-05 1.30219e-08 0)
(5.01146e-05 2.1302e-08 0)
(5.0115e-05 2.98885e-08 0)
(5.01155e-05 3.87376e-08 0)
(5.0116e-05 4.80421e-08 0)
(5.01162e-05 5.771e-08 0)
(5.0116e-05 6.81207e-08 0)
(5.0115e-05 7.89657e-08 0)
(5.0113e-05 9.08321e-08 0)
(5.01096e-05 1.03594e-07 0)
(5.01035e-05 1.17907e-07 0)
(5.00929e-05 1.33499e-07 0)
(5.00771e-05 1.51309e-07 0)
(5.00512e-05 1.72599e-07 0)
(5.00082e-05 1.96627e-07 0)
(5.01142e-05 5.57369e-09 0)
(5.01236e-05 9.20635e-09 0)
(5.01239e-05 1.4981e-08 0)
(5.01244e-05 2.08715e-08 0)
(5.0125e-05 2.67849e-08 0)
(5.01256e-05 3.28635e-08 0)
(5.0126e-05 3.89281e-08 0)
(5.01259e-05 4.52988e-08 0)
(5.01248e-05 5.14063e-08 0)
(5.01228e-05 5.79106e-08 0)
(5.01197e-05 6.37254e-08 0)
(5.01132e-05 6.88838e-08 0)
(5.01015e-05 7.27007e-08 0)
(5.00843e-05 7.66149e-08 0)
(5.00572e-05 7.81037e-08 0)
(5.00099e-05 7.8089e-08 0)
(5.01235e-05 3.94352e-09 0)
(5.01287e-05 5.39826e-09 0)
(5.01289e-05 8.7366e-09 0)
(5.01294e-05 1.20387e-08 0)
(5.013e-05 1.51045e-08 0)
(5.01307e-05 1.79609e-08 0)
(5.01312e-05 2.03158e-08 0)
(5.01311e-05 2.23538e-08 0)
(5.01298e-05 2.35082e-08 0)
(5.01269e-05 2.44436e-08 0)
(5.01211e-05 2.30197e-08 0)
(5.01113e-05 1.93866e-08 0)
(5.00975e-05 1.43752e-08 0)
(5.00792e-05 9.8651e-09 0)
(5.00515e-05 7.9717e-10 0)
(5.00082e-05 -9.5369e-09 0)
(5.01286e-05 2.31397e-09 0)
(5.01312e-05 1.72961e-09 0)
(5.01313e-05 2.76034e-09 0)
(5.01315e-05 3.62753e-09 0)
(5.01314e-05 4.00468e-09 0)
(5.01312e-05 3.72856e-09 0)
(5.01304e-05 2.27894e-09 0)
(5.01287e-05 -4.11092e-10 0)
(5.01254e-05 -4.52469e-09 0)
(5.01197e-05 -9.65937e-09 0)
(5.01104e-05 -1.70311e-08 0)
(5.01e-05 -2.47835e-08 0)
(5.00887e-05 -3.29819e-08 0)
(5.00711e-05 -4.11612e-08 0)
(5.00456e-05 -5.40209e-08 0)
(5.00095e-05 -6.51657e-08 0)
(5.01311e-05 7.401e-10 0)
(5.01272e-05 -2.20606e-09 0)
(5.01268e-05 -3.83349e-09 0)
(5.01261e-05 -5.87819e-09 0)
(5.01245e-05 -8.56652e-09 0)
(5.01223e-05 -1.20258e-08 0)
(5.01189e-05 -1.67773e-08 0)
(5.01147e-05 -2.27155e-08 0)
(5.01102e-05 -3.01011e-08 0)
(5.01043e-05 -3.82277e-08 0)
(5.00971e-05 -4.68885e-08 0)
(5.0089e-05 -5.4914e-08 0)
(5.00788e-05 -6.58184e-08 0)
(5.00617e-05 -7.72429e-08 0)
(5.00396e-05 -9.14706e-08 0)
(5.00116e-05 -1.02593e-07 0)
(5.01272e-05 -9.39209e-10 0)
(5.01163e-05 -6.09406e-09 0)
(5.01154e-05 -1.02505e-08 0)
(5.01141e-05 -1.49026e-08 0)
(5.01122e-05 -2.01802e-08 0)
(5.01095e-05 -2.59784e-08 0)
(5.01061e-05 -3.24938e-08 0)
(5.01021e-05 -3.91299e-08 0)
(5.00979e-05 -4.69607e-08 0)
(5.00928e-05 -5.57338e-08 0)
(5.0087e-05 -6.58709e-08 0)
(5.00783e-05 -7.63335e-08 0)
(5.00671e-05 -8.91077e-08 0)
(5.00518e-05 -1.01631e-07 0)
(5.0034e-05 -1.1556e-07 0)
(5.00135e-05 -1.26072e-07 0)
(5.01165e-05 -2.59395e-09 0)
(5.0106e-05 -8.88141e-09 0)
(5.01049e-05 -1.47013e-08 0)
(5.01035e-05 -2.08895e-08 0)
(5.01015e-05 -2.75753e-08 0)