/*--------------------------------*- C++ -*----------------------------------*\
| =========                 |                                                 |
| \\      /  F ield         | foam-extend: Open Source CFD                    |
|  \\    /   O peration     | Version:     4.1-20200408                       |
|   \\  /    A nd           | Web:         http://www.foam-extend.org         |
|    \\/     M anipulation  |                                                 |
\*---------------------------------------------------------------------------*/
FoamFile
{
    version     2.0;
    format      ascii;
    class       volScalarField;
    location    "0.0100000";
    object      sigmaHyd;
}
// * * * * * * * * * * * * * * * * * * * * * * * * * * * * * * * * * * * * * //

dimensions      [1 -1 -2 0 0 0 0];

internalField   nonuniform List<scalar> 
1952
(
2.28756e+08
2.28107e+08
2.27059e+08
2.25683e+08
2.23955e+08
2.2191e+08
2.19491e+08
2.16799e+08
2.1363e+08
2.10204e+08
2.06054e+08
2.01441e+08
1.95457e+08
1.88001e+08
1.7623e+08
2.29115e+08
2.18849e+08
2.18176e+08
2.17111e+08
2.15717e+08
2.13911e+08
2.11788e+08
2.09175e+08
2.06245e+08
2.02642e+08
1.98638e+08
1.9356e+08
1.877e+08
1.7987e+08
1.69842e+08
1.54904e+08
2.19155e+08
2.09822e+08
2.0913e+08
2.08069e+08
2.06659e+08
2.04827e+08
2.02664e+08
1.99971e+08
1.96941e+08
1.93176e+08
1.88996e+08
1.83678e+08
1.77698e+08
1.69826e+08
1.60784e+08
1.48864e+08
2.101e+08
2.01398e+08
2.00694e+08
1.99651e+08
1.98239e+08
1.96412e+08
1.94244e+08
1.91541e+08
1.88496e+08
1.84718e+08
1.80549e+08
1.75285e+08
1.69535e+08
1.6213e+08
1.5433e+08
1.44468e+08
2.01659e+08
1.93664e+08
1.92961e+08
1.91949e+08
1.9056e+08
1.88776e+08
1.86656e+08
1.84023e+08
1.81073e+08
1.77441e+08
1.73482e+08
1.68551e+08
1.63328e+08
1.56768e+08
1.50301e+08
1.42541e+08
1.93912e+08
1.86572e+08
1.85882e+08
1.84912e+08
1.83568e+08
1.81854e+08
1.7982e+08
1.7731e+08
1.74511e+08
1.71125e+08
1.67475e+08
1.62983e+08
1.58361e+08
1.52661e+08
1.47344e+08
1.41185e+08
1.86807e+08
1.80113e+08
1.79444e+08
1.78527e+08
1.77244e+08
1.75623e+08
1.73707e+08
1.7135e+08
1.68765e+08
1.65696e+08
1.62419e+08
1.58434e+08
1.54435e+08
1.49582e+08
1.4526e+08
1.40432e+08
1.80334e+08
1.74251e+08
1.73612e+08
1.72754e+08
1.71548e+08
1.70027e+08
1.68248e+08
1.6605e+08
1.63655e+08
1.60967e+08
1.58113e+08
1.54623e+08
1.51229e+08
1.47126e+08
1.43646e+08
1.39874e+08
1.74458e+08
1.68946e+08
1.68338e+08
1.67549e+08
1.66419e+08
1.65007e+08
1.63363e+08
1.6127e+08
1.59107e+08
1.56857e+08
1.54418e+08
1.51413e+08
1.48571e+08
1.45134e+08
1.42356e+08
1.39446e+08
1.69135e+08
1.64159e+08
1.63588e+08
1.6287e+08
1.61829e+08
1.6052e+08
1.59058e+08
1.56982e+08
1.55139e+08
1.53139e+08
1.51278e+08
1.48641e+08
1.46316e+08
1.43437e+08
1.4124e+08
1.39022e+08
1.64329e+08
1.59837e+08
1.59303e+08
1.58669e+08
1.57709e+08
1.56567e+08
1.55231e+08
1.5324e+08
1.51624e+08
1.49881e+08
1.48559e+08
1.46228e+08
1.44348e+08
1.41945e+08
1.40222e+08
1.38569e+08
1.59984e+08
1.55937e+08
1.55441e+08
1.54896e+08
1.54008e+08
1.53071e+08
1.51784e+08
1.50008e+08
1.48406e+08
1.47103e+08
1.46124e+08
1.4418e+08
1.42567e+08
1.40603e+08
1.39223e+08
1.38046e+08
1.56056e+08
1.52393e+08
1.51939e+08
1.51466e+08
1.50643e+08
1.49875e+08
1.48554e+08
1.46983e+08
1.45419e+08
1.44584e+08
1.43886e+08
1.42339e+08
1.40913e+08
1.39341e+08
1.38223e+08
1.37446e+08
1.52491e+08
1.49163e+08
1.48754e+08
1.48342e+08
1.47596e+08
1.46958e+08
1.456e+08
1.44149e+08
1.42647e+08
1.42148e+08
1.41811e+08
1.40614e+08
1.39342e+08
1.38116e+08
1.37196e+08
1.36759e+08
1.49244e+08
1.46203e+08
1.45854e+08
1.45477e+08
1.44882e+08
1.44269e+08
1.4298e+08
1.41502e+08
1.40136e+08
1.39846e+08
1.39853e+08
1.38983e+08
1.37823e+08
1.36902e+08
1.36134e+08
1.35983e+08
1.46281e+08
1.43464e+08
1.43172e+08
1.42817e+08
1.42363e+08
1.41738e+08
1.40505e+08
1.38978e+08
1.37757e+08
1.37631e+08
1.37975e+08
1.37402e+08
1.36334e+08
1.35679e+08
1.35034e+08
1.35124e+08
1.43542e+08
1.40915e+08
1.40664e+08
1.40319e+08
1.39965e+08
1.39231e+08
1.38038e+08
1.36541e+08
1.35447e+08
1.35468e+08
1.3604e+08
1.35854e+08
1.34862e+08
1.34434e+08
1.33898e+08
1.34172e+08
1.40994e+08
1.38523e+08
1.38304e+08
1.37973e+08
1.37692e+08
1.36838e+08
1.35652e+08
1.34187e+08
1.33201e+08
1.33341e+08
1.341e+08
1.34331e+08
1.334e+08
1.33164e+08
1.3273e+08
1.33147e+08
1.38598e+08
1.36295e+08
1.36083e+08
1.35846e+08
1.35531e+08
1.34673e+08
1.33357e+08
1.32037e+08
1.31147e+08
1.31333e+08
1.32353e+08
1.32833e+08
1.32072e+08
1.31858e+08
1.31553e+08
1.32015e+08
1.3634e+08
1.34172e+08
1.3396e+08
1.33818e+08
1.33458e+08
1.32574e+08
1.31146e+08
1.29963e+08
1.29207e+08
1.29393e+08
1.30696e+08
1.31327e+08
1.30806e+08
1.30518e+08
1.30367e+08
1.30815e+08
1.34186e+08
1.32127e+08
1.31913e+08
1.31821e+08
1.31329e+08
1.30409e+08
1.28997e+08
1.27914e+08
1.273e+08
1.27468e+08
1.28923e+08
1.2983e+08
1.29517e+08
1.29159e+08
1.29158e+08
1.29568e+08
1.32127e+08
1.30144e+08
1.2993e+08
1.29879e+08
1.29221e+08
1.28307e+08
1.26893e+08
1.25912e+08
1.25423e+08
1.25555e+08
1.27135e+08
1.28301e+08
1.28238e+08
1.27778e+08
1.27944e+08
1.28292e+08
1.30134e+08
1.28237e+08
1.28124e+08
1.27954e+08
1.27364e+08
1.26261e+08
1.24977e+08
1.23974e+08
1.23598e+08
1.23696e+08
1.25367e+08
1.2679e+08
1.26959e+08
1.26398e+08
1.26724e+08
1.27004e+08
1.28267e+08
1.26363e+08
1.26389e+08
1.26035e+08
1.25615e+08
1.24247e+08
1.23139e+08
1.22073e+08
1.21785e+08
1.2187e+08
1.23544e+08
1.25148e+08
1.25664e+08
1.25023e+08
1.25496e+08
1.25727e+08
1.26453e+08
1.24552e+08
1.24559e+08
1.24179e+08
1.23653e+08
1.22236e+08
1.21231e+08
1.20113e+08
1.19943e+08
1.19998e+08
1.21716e+08
1.23473e+08
1.24386e+08
1.23663e+08
1.24286e+08
1.24469e+08
1.24612e+08
1.22746e+08
1.22679e+08
1.22394e+08
1.2162e+08
1.20285e+08
1.19326e+08
1.18204e+08
1.18144e+08
1.18283e+08
1.19997e+08
1.22013e+08
1.23141e+08
1.22486e+08
1.23056e+08
1.23245e+08
1.22763e+08
1.20839e+08
1.20893e+08
1.20497e+08
1.19713e+08
1.18405e+08
1.17498e+08
1.16396e+08
1.16414e+08
1.16676e+08
1.18337e+08
1.20632e+08
1.21942e+08
1.21386e+08
1.21864e+08
1.2207e+08
1.20884e+08
1.19072e+08
1.19179e+08
1.18565e+08
1.17855e+08
1.16553e+08
1.15676e+08
1.14624e+08
1.14669e+08
1.15043e+08
1.16614e+08
1.19065e+08
1.20773e+08
1.2029e+08
1.20737e+08
1.20968e+08
1.19168e+08
1.17362e+08
1.17352e+08
1.16624e+08
1.15894e+08
1.14609e+08
1.13752e+08
1.12775e+08
1.1285e+08
1.13349e+08
1.14882e+08
1.17482e+08
1.19656e+08
1.19264e+08
1.19687e+08
1.19957e+08
1.17478e+08
1.15477e+08
1.15356e+08
1.14621e+08
1.13864e+08
1.12632e+08
1.11796e+08
1.10914e+08
1.11026e+08
1.11675e+08
1.13218e+08
1.15965e+08
1.18636e+08
1.18326e+08
1.18741e+08
1.19054e+08
1.15637e+08
1.13358e+08
1.13237e+08
1.12558e+08
1.11786e+08
1.1066e+08
1.09844e+08
1.09093e+08
1.09226e+08
1.10077e+08
1.1158e+08
1.14534e+08
1.1769e+08
1.17503e+08
1.17908e+08
1.18291e+08
1.13483e+08
1.11062e+08
1.10961e+08
1.10328e+08
1.09571e+08
1.08565e+08
1.07793e+08
1.07194e+08
1.07379e+08
1.08449e+08
1.09923e+08
1.13132e+08
1.168e+08
1.16791e+08
1.1721e+08
1.177e+08
1.11141e+08
1.08533e+08
1.0847e+08
1.07881e+08
1.07168e+08
1.06312e+08
1.05602e+08
1.05193e+08
1.05454e+08
1.06754e+08
1.08269e+08
1.11757e+08
1.15988e+08
1.16205e+08
1.16672e+08
1.1731e+08
1.08564e+08
1.05716e+08
1.05697e+08
1.05192e+08
1.04542e+08
1.03855e+08
1.03244e+08
1.03053e+08
1.03429e+08
1.04993e+08
1.06592e+08
1.10405e+08
1.15242e+08
1.15754e+08
1.16311e+08
1.1716e+08
1.05697e+08
1.02541e+08
1.02599e+08
1.02205e+08
1.01637e+08
1.01139e+08
1.00655e+08
1.00728e+08
1.01262e+08
1.03147e+08
1.04874e+08
1.09079e+08
1.14576e+08
1.15455e+08
1.16153e+08
1.17278e+08
1.02466e+08
9.8949e+07
9.91403e+07
9.88523e+07
9.84395e+07
9.81212e+07
9.78098e+07
9.81757e+07
9.89181e+07
1.01171e+08
1.03079e+08
1.07748e+08
1.13933e+08
1.15309e+08
1.16207e+08
1.17709e+08
9.88384e+07
9.48982e+07
9.51864e+07
9.50511e+07
9.48165e+07
9.47258e+07
9.46117e+07
9.53151e+07
9.63241e+07
9.89919e+07
1.01151e+08
1.06374e+08
1.1333e+08
1.15319e+08
1.16497e+08
1.18481e+08
9.47455e+07
9.03103e+07
9.0651e+07
9.0706e+07
9.06457e+07
9.08465e+07
9.09646e+07
9.20556e+07
9.3412e+07
9.65638e+07
9.90635e+07
1.04905e+08
1.12581e+08
1.15471e+08
1.17031e+08
1.1962e+08
9.01114e+07
8.49894e+07
8.54408e+07
8.56779e+07
8.58469e+07
8.6345e+07
8.67775e+07
8.83021e+07
9.00941e+07
9.38387e+07
9.67677e+07
1.03331e+08
1.11768e+08
1.15767e+08
1.17815e+08
1.21156e+08
8.47555e+07
7.88002e+07
7.94027e+07
7.98712e+07
8.03182e+07
8.11464e+07
8.19948e+07
8.39708e+07
8.63064e+07
9.07009e+07
9.42906e+07
1.01592e+08
1.11072e+08
1.16131e+08
1.18996e+08
1.23e+08
7.85143e+07
7.16388e+07
7.23803e+07
7.30976e+07
7.38567e+07
7.50814e+07
7.63836e+07
7.8858e+07
8.1818e+07
8.69097e+07
9.13403e+07
9.95007e+07
1.10249e+08
1.16505e+08
1.20455e+08
1.25245e+08
7.13039e+07
6.32889e+07
6.41706e+07
6.51054e+07
6.61969e+07
6.78606e+07
6.96371e+07
7.27218e+07
7.63978e+07
8.23265e+07
8.77432e+07
9.69129e+07
1.0896e+08
1.16827e+08
1.22058e+08
1.27952e+08
6.2919e+07
5.35296e+07
5.4551e+07
5.57538e+07
5.71853e+07
5.93164e+07
6.16279e+07
6.54285e+07
6.99027e+07
7.68481e+07
8.33811e+07
9.37207e+07
1.07212e+08
1.16989e+08
1.23756e+08
1.31077e+08
5.31049e+07
4.22262e+07
4.33916e+07
4.49149e+07
4.67029e+07
4.93277e+07
5.2248e+07
5.67705e+07
6.21109e+07
7.01245e+07
7.78755e+07
8.9607e+07
1.04738e+08
1.16794e+08
1.25391e+08
1.34611e+08
4.17292e+07
2.92288e+07
3.05214e+07
3.23122e+07
3.44616e+07
3.75707e+07
4.11317e+07
4.637e+07
5.26209e+07
6.17198e+07
7.08097e+07
8.41492e+07
1.01177e+08
1.15952e+08
1.26764e+08
1.38469e+08
2.86787e+07
1.42902e+07
1.56795e+07
1.76576e+07
2.01428e+07
2.36876e+07
2.78574e+07
3.38077e+07
4.09923e+07
5.12728e+07
6.18064e+07
7.69765e+07
9.61634e+07
1.14104e+08
1.27582e+08
1.42485e+08
1.37121e+07
-2.818e+06
-1.36113e+06
793667
3.55015e+06
7.4621e+06
1.21725e+07
1.87769e+07
2.69008e+07
3.84032e+07
5.04512e+07
6.7621e+07
8.91932e+07
1.10728e+08
1.27405e+08
1.46361e+08
-3.42288e+06
-2.21846e+07
-2.06997e+07
-1.83906e+07
-1.54605e+07
-1.12789e+07
-6.1532e+06
985284
9.94076e+06
2.25057e+07
3.60447e+07
5.52615e+07
7.94069e+07
1.05032e+08
1.25568e+08
1.49737e+08
-2.28148e+07
-4.38652e+07
-4.24184e+07
-4.0111e+07
-3.71275e+07
-3.28485e+07
-2.74835e+07
-2.00169e+07
-1.04793e+07
2.90113e+06
1.77687e+07
3.89228e+07
6.57213e+07
9.58787e+07
1.21055e+08
1.52084e+08
-4.44775e+07
-6.79619e+07
-6.66405e+07
-6.44933e+07
-6.16201e+07
-5.74727e+07
-5.21197e+07
-4.46328e+07
-3.48538e+07
-2.10044e+07
-5.17367e+06
1.75551e+07
4.68223e+07
8.15876e+07
1.11953e+08
1.51708e+08
-6.85093e+07
-9.43973e+07
-9.32871e+07
-9.14208e+07
-8.88764e+07
-8.51299e+07
-8.01341e+07
-7.30786e+07
-6.35331e+07
-4.98208e+07
-3.36621e+07
-1.01464e+07
2.08587e+07
5.94872e+07
9.45473e+07
1.4356e+08
-9.48616e+07
-1.22955e+08
-1.22157e+08
-1.20739e+08
-1.1876e+08
-1.15752e+08
-1.11522e+08
-1.05436e+08
-9.67501e+07
-8.40746e+07
-6.85718e+07
-4.55751e+07
-1.43711e+07
2.60027e+07
6.304e+07
1.16992e+08
-1.23293e+08
-1.53291e+08
-1.52911e+08
-1.52153e+08
-1.50995e+08
-1.49088e+08
-1.46077e+08
-1.41567e+08
-1.34483e+08
-1.23844e+08
-1.10169e+08
-8.92981e+07
-5.97229e+07
-2.00772e+07
1.61526e+07
7.13078e+07
-1.53456e+08
-1.84938e+08
-1.85064e+08
-1.85147e+08
-1.85058e+08
-1.84621e+08
-1.83314e+08
-1.81021e+08
-1.76376e+08
-1.68844e+08
-1.5836e+08
-1.41486e+08
-1.15751e+08
-8.00151e+07
-4.82022e+07
2.93034e+06
-1.84892e+08
-2.17284e+08
-2.17998e+08
-2.19078e+08
-2.20285e+08
-2.21642e+08
-2.22478e+08
-2.23011e+08
-2.21572e+08
-2.18224e+08
-2.12294e+08
-2.01324e+08
-1.81694e+08
-1.53127e+08
-1.2928e+08
-8.71451e+07
-2.16996e+08
-2.49591e+08
-2.50963e+08
-2.53143e+08
-2.55826e+08
-2.5921e+08
-2.62533e+08
-2.66373e+08
-2.68778e+08
-2.7061e+08
-2.70477e+08
-2.67268e+08
-2.56041e+08
-2.38132e+08
-2.26249e+08
-1.99273e+08
-2.49047e+08
-2.81022e+08
-2.83082e+08
-2.86407e+08
-2.90653e+08
-2.96182e+08
-3.02197e+08
-3.09614e+08
-3.16338e+08
-3.24028e+08
-3.30645e+08
-3.36702e+08
-3.35804e+08
-3.31687e+08
-3.35304e+08
-3.28925e+08
-2.8022e+08
-3.1071e+08
-3.13443e+08
-3.17875e+08
-3.23663e+08
-3.31298e+08
-3.40014e+08
-3.51029e+08
-3.6223e+08
-3.76009e+08
-3.89903e+08
-4.06145e+08
-4.17056e+08
-4.29497e+08
-4.5239e+08
-4.73127e+08
-3.09667e+08
-3.37789e+08
-3.41149e+08
-3.46566e+08
-3.53751e+08
-3.63273e+08
-3.7446e+08
-3.88758e+08
-4.04156e+08
-4.23676e+08
-4.44681e+08
-4.71078e+08
-4.94412e+08
-5.25334e+08
-5.70505e+08
-6.25777e+08
-3.36534e+08
-3.61506e+08
-3.65373e+08
-3.7156e+08
-3.79873e+08
-3.90879e+08
-4.04067e+08
-4.20989e+08
-4.39855e+08
-4.64121e+08
-4.91186e+08
-5.2633e+08
-5.60803e+08
-6.08996e+08
-6.75205e+08
-7.65907e+08
-3.601e+08
-3.81297e+08
-3.85503e+08
-3.92184e+08
-4.01281e+08
-4.13263e+08
-4.27829e+08
-4.46455e+08
-4.67624e+08
-4.94737e+08
-5.25281e+08
-5.65518e+08
-6.08332e+08
-6.7118e+08
-7.55167e+08
-8.81191e+08
-3.79809e+08
-3.97071e+08
-4.01359e+08
-4.08075e+08
-4.1735e+08
-4.29434e+08
-4.44203e+08
-4.62944e+08
-4.84468e+08
-5.12077e+08
-5.44085e+08
-5.85781e+08
-6.31718e+08
-6.95744e+08
-7.75624e+08
-8.91917e+08
-3.95586e+08
-4.07127e+08
-4.11375e+08
-4.17835e+08
-4.27107e+08
-4.39093e+08
-4.53933e+08
-4.72772e+08
-4.94964e+08
-5.23495e+08
-5.57251e+08
-5.98787e+08
-6.42258e+08
-6.98341e+08
-7.63923e+08
-8.5406e+08
-4.05746e+08
-4.14888e+08
-4.19495e+08
-4.2629e+08
-4.36365e+08
-4.49531e+08
-4.65967e+08
-4.86463e+08
-5.09941e+08
-5.38709e+08
-5.69159e+08
-6.04659e+08
-6.39263e+08
-6.82994e+08
-7.31066e+08
-7.95217e+08
-4.13468e+08
-4.31992e+08
-4.37172e+08
-4.44423e+08
-4.54791e+08
-4.67897e+08
-4.83828e+08
-5.02801e+08
-5.23072e+08
-5.46024e+08
-5.68602e+08
-5.94423e+08
-6.1926e+08
-6.52256e+08
-6.86039e+08
-7.29342e+08
-4.30347e+08
-4.49029e+08
-4.53749e+08
-4.59864e+08
-4.68366e+08
-4.78522e+08
-4.90462e+08
-5.03993e+08
-5.18441e+08
-5.34125e+08
-5.50188e+08
-5.68863e+08
-5.88578e+08
-6.13518e+08
-6.36033e+08
-6.63432e+08
-4.47468e+08
-4.4759e+08
-4.51214e+08
-4.55802e+08
-4.62399e+08
-4.70075e+08
-4.79071e+08
-4.89026e+08
-4.99619e+08
-5.11394e+08
-5.24749e+08
-5.39824e+08
-5.54375e+08
-5.71519e+08
-5.85273e+08
-6.00724e+08
-4.46459e+08
-4.36709e+08
-4.39504e+08
-4.42891e+08
-4.48114e+08
-4.54253e+08
-4.61611e+08
-4.69737e+08
-4.78534e+08
-4.88025e+08
-4.97752e+08
-5.08339e+08
-5.18133e+08
-5.28904e+08
-5.36027e+08
-5.4285e+08
-4.35901e+08
-4.23872e+08
-4.26286e+08
-4.29008e+08
-4.33137e+08
-4.37713e+08
-4.43219e+08
-4.49122e+08
-4.55492e+08
-4.62179e+08
-4.68952e+08
-4.75888e+08
-4.817e+08
-4.87308e+08
-4.89438e+08
-4.89942e+08
-4.23218e+08
-4.08418e+08
-4.10298e+08
-4.12258e+08
-4.15351e+08
-4.18667e+08
-4.22698e+08
-4.26865e+08
-4.31312e+08
-4.35696e+08
-4.39832e+08
-4.43589e+08
-4.46138e+08
-4.47746e+08
-4.46239e+08
-4.42361e+08
-4.0795e+08
-3.91554e+08
-3.92994e+08
-3.94333e+08
-3.96526e+08
-3.98713e+08
-4.0139e+08
-4.03962e+08
-4.06637e+08
-4.08963e+08
-4.10913e+08
-4.12102e+08
-4.12087e+08
-4.10656e+08
-4.06525e+08
-3.99581e+08
-3.91228e+08
-3.73467e+08
-3.74489e+08
-3.7528e+08
-3.76688e+08
-3.77935e+08
-3.7948e+08
-3.80741e+08
-3.81957e+08
-3.82606e+08
-3.82778e+08
-3.81935e+08
-3.79959e+08
-3.76302e+08
-3.70358e+08
-3.61394e+08
-3.73271e+08
-3.54738e+08
-3.554e+08
-3.55735e+08
-3.56476e+08
-3.56931e+08
-3.57519e+08
-3.57685e+08
-3.57691e+08
-3.56983e+08
-3.55755e+08
-3.53361e+08
-3.4994e+08
-3.44712e+08
-3.37581e+08
-3.2738e+08
-3.5465e+08
-3.35669e+08
-3.36016e+08
-3.35978e+08
-3.36162e+08
-3.35977e+08
-3.35787e+08
-3.35081e+08
-3.34128e+08
-3.32369e+08
-3.30076e+08
-3.26541e+08
-3.22097e+08
-3.15811e+08
-3.07955e+08
-2.9705e+08
-3.35669e+08
-3.16595e+08
-3.16678e+08
-3.16342e+08
-3.16072e+08
-3.15378e+08
-3.14567e+08
-3.13182e+08
-3.11487e+08
-3.08941e+08
-3.05868e+08
-3.01538e+08
-2.96419e+08
-2.89495e+08
-2.81298e+08
-2.70171e+08
-3.16666e+08
-2.97749e+08
-2.97614e+08
-2.97048e+08
-2.96417e+08
-2.95333e+08
-2.94043e+08
-2.9215e+08
-2.89906e+08
-2.86798e+08
-2.83185e+08
-2.78337e+08
-2.72812e+08
-2.65555e+08
-2.57263e+08
-2.46163e+08
-2.97876e+08
-2.79332e+08
-2.7902e+08
-2.78283e+08
-2.77375e+08
-2.76003e+08
-2.74357e+08
-2.72102e+08
-2.69472e+08
-2.6599e+08
-2.62034e+08
-2.56892e+08
-2.5118e+08
-2.43838e+08
-2.35669e+08
-2.24859e+08
-2.795e+08
-2.61487e+08
-2.61038e+08
-2.60179e+08
-2.59067e+08
-2.57494e+08
-2.55599e+08
-2.53104e+08
-2.50221e+08
-2.46519e+08
-2.42376e+08
-2.37115e+08
-2.31375e+08
-2.24118e+08
-2.16199e+08
-2.05798e+08
-2.61685e+08
-2.44323e+08
-2.43772e+08
-2.42834e+08
-2.41578e+08
-2.39877e+08
-2.3782e+08
-2.35185e+08
-2.32161e+08
-2.28361e+08
-2.24156e+08
-2.18909e+08
-2.13265e+08
-2.06223e+08
-1.98651e+08
-1.88761e+08
-2.44542e+08
-2.27914e+08
-2.27288e+08
-2.26306e+08
-2.24959e+08
-2.2319e+08
-2.21043e+08
-2.18349e+08
-2.15271e+08
-2.11468e+08
-2.07295e+08
-2.02162e+08
-1.96702e+08
-1.89963e+08
-1.82801e+08
-1.73483e+08
-2.28144e+08
-2.12304e+08
-2.11629e+08
-2.1063e+08
-2.09235e+08
-2.07445e+08
-2.05266e+08
-2.02575e+08
-1.99513e+08
-1.95779e+08
-1.9171e+08
-1.86762e+08
-1.81546e+08
-1.75164e+08
-1.6844e+08
-1.597e+08
-2.12539e+08
-1.97515e+08
-1.96812e+08
-1.95818e+08
-1.94409e+08
-1.92634e+08
-1.90469e+08
-1.87831e+08
-1.84836e+08
-1.81224e+08
-1.77311e+08
-1.72598e+08
-1.67669e+08
-1.61684e+08
-1.55422e+08
-1.47293e+08
-1.9775e+08
-1.8355e+08
-1.82837e+08
-1.81864e+08
-1.80468e+08
-1.78737e+08
-1.76621e+08
-1.7407e+08
-1.7118e+08
-1.67728e+08
-1.64006e+08
-1.59559e+08
-1.54938e+08
-1.49359e+08
-1.4355e+08
-1.35994e+08
-1.83781e+08
-1.70399e+08
-1.69688e+08
-1.6875e+08
-1.67387e+08
-1.65721e+08
-1.63679e+08
-1.61241e+08
-1.58484e+08
-1.55217e+08
-1.51708e+08
-1.47546e+08
-1.43244e+08
-1.3808e+08
-1.32722e+08
-1.25741e+08
-1.70622e+08
-1.58039e+08
-1.57341e+08
-1.56447e+08
-1.55132e+08
-1.53545e+08
-1.51596e+08
-1.49287e+08
-1.4668e+08
-1.43613e+08
-1.4033e+08
-1.36458e+08
-1.32475e+08
-1.27714e+08
-1.22783e+08
-1.16333e+08
-1.58253e+08
-1.46441e+08
-1.45765e+08
-1.44919e+08
-1.43664e+08
-1.42166e+08
-1.40321e+08
-1.38152e+08
-1.35705e+08
-1.32845e+08
-1.29791e+08
-1.2621e+08
-1.22539e+08
-1.18167e+08
-1.13641e+08
-1.07691e+08
-1.46644e+08
-1.3557e+08
-1.34922e+08
-1.34128e+08
-1.3294e+08
-1.31534e+08
-1.29801e+08
-1.27777e+08
-1.25495e+08
-1.22841e+08
-1.20016e+08
-1.16717e+08
-1.13347e+08
-1.09345e+08
-1.05199e+08
-9.97158e+07
-1.35761e+08
-1.25388e+08
-1.2477e+08
-1.2403e+08
-1.22913e+08
-1.21603e+08
-1.19984e+08
-1.18105e+08
-1.15988e+08
-1.13538e+08
-1.10935e+08
-1.07907e+08
-1.04822e+08
-1.01165e+08
-9.73676e+07
-9.23046e+07
-1.25566e+08
-1.15853e+08
-1.1527e+08
-1.14583e+08
-1.13538e+08
-1.12324e+08
-1.1082e+08
-1.09083e+08
-1.07127e+08
-1.04873e+08
-1.02483e+08
-9.97129e+07
-9.68967e+07
-9.3565e+07
-9.00935e+07
-8.54292e+07
-1.16019e+08
-1.06925e+08
-1.06377e+08
-1.05743e+08
-1.04771e+08
-1.0365e+08
-1.02258e+08
-1.00658e+08
-9.88582e+07
-9.67914e+07
-9.46029e+07
-9.20735e+07
-8.95064e+07
-8.64718e+07
-8.32935e+07
-7.89783e+07
-1.07078e+08
-9.85634e+07
-9.8051e+07
-9.74672e+07
-9.65664e+07
-9.55346e+07
-9.4251e+07
-9.27829e+07
-9.11307e+07
-8.92404e+07
-8.72413e+07
-8.49366e+07
-8.2601e+07
-7.98417e+07
-7.69353e+07
-7.29484e+07
-9.87048e+07
-9.07282e+07
-9.02509e+07
-8.97153e+07
-8.88831e+07
-8.79361e+07
-8.67558e+07
-8.54114e+07
-8.38984e+07
-8.21727e+07
-8.03497e+07
-7.8252e+07
-7.61282e+07
-7.36187e+07
-7.09556e+07
-6.72581e+07
-9.08581e+07
-8.33816e+07
-8.29384e+07
-8.2448e+07
-8.16811e+07
-8.0814e+07
-7.97309e+07
-7.8502e+07
-7.71191e+07
-7.55459e+07
-7.38855e+07
-7.19782e+07
-7.00481e+07
-6.77662e+07
-6.53237e+07
-6.1888e+07
-8.35007e+07
-7.64874e+07
-7.60769e+07
-7.56288e+07
-7.49233e+07
-7.41305e+07
-7.31382e+07
-7.20164e+07
-7.07538e+07
-6.93209e+07
-6.78098e+07
-6.60763e+07
-6.43222e+07
-6.22466e+07
-6.00029e+07
-5.68043e+07
-7.65964e+07
-7.0012e+07
-6.96324e+07
-6.92232e+07
-6.85752e+07
-6.7851e+07
-6.69429e+07
-6.59195e+07
-6.47675e+07
-6.34631e+07
-6.20881e+07
-6.05124e+07
-5.89174e+07
-5.70269e+07
-5.49598e+07
-5.19678e+07
-7.01116e+07
-6.39238e+07
-6.35733e+07
-6.31998e+07
-6.2605e+07
-6.19436e+07
-6.11128e+07
-6.01794e+07
-5.91286e+07
-5.7941e+07
-5.66898e+07
-5.52572e+07
-5.38063e+07
-5.2084e+07
-5.01782e+07
-4.73795e+07
-6.40148e+07
-5.8194e+07
-5.78704e+07
-5.75294e+07
-5.69834e+07
-5.63792e+07
-5.56191e+07
-5.47674e+07
-5.38084e+07
-5.27265e+07
-5.15869e+07
-5.02828e+07
-4.89607e+07
-4.73877e+07
-4.5623e+07
-4.29888e+07
-5.82772e+07
-5.27961e+07
-5.24972e+07
-5.21856e+07
-5.16841e+07
-5.11316e+07
-5.04355e+07
-4.96574e+07
-4.87814e+07
-4.77945e+07
-4.67555e+07
-4.5567e+07
-4.43608e+07
-4.29229e+07
-4.12866e+07
-3.88064e+07
-5.28722e+07
-4.77059e+07
-4.74296e+07
-4.71443e+07
-4.6683e+07
-4.61768e+07
-4.55383e+07
-4.48262e+07
-4.40245e+07
-4.31226e+07
-4.21731e+07
-4.10876e+07
-3.9984e+07
-3.86654e+07
-3.71413e+07
-3.47939e+07
-4.77757e+07
-4.29019e+07
-4.2646e+07
-4.23839e+07
-4.19588e+07
-4.14937e+07
-4.09067e+07
-4.02531e+07
-3.95175e+07
-3.86909e+07
-3.7821e+07
-3.68268e+07
-3.58142e+07
-3.46016e+07
-3.3177e+07
-3.09483e+07
-4.2966e+07
-3.83646e+07
-3.81271e+07
-3.78854e+07
-3.74923e+07
-3.70633e+07
-3.65218e+07
-3.59196e+07
-3.52423e+07
-3.4482e+07
-3.36819e+07
-3.27679e+07
-3.18351e+07
-3.0716e+07
-2.93788e+07
-2.7256e+07
-3.84239e+07
-3.40771e+07
-3.38558e+07
-3.36317e+07
-3.32668e+07
-3.28691e+07
-3.23674e+07
-3.18098e+07
-3.11832e+07
-3.04804e+07
-2.97409e+07
-2.88966e+07
-2.80327e+07
-2.69945e+07
-2.57321e+07
-2.36984e+07
-3.41321e+07
-3.00243e+07
-2.98172e+07
-2.9608e+07
-2.92676e+07
-2.88965e+07
-2.8429e+07
-2.79096e+07
-2.73264e+07
-2.66727e+07
-2.59851e+07
-2.52008e+07
-2.43962e+07
-2.34286e+07
-2.22321e+07
-2.02811e+07
-3.00757e+07
-2.61934e+07
-2.59987e+07
-2.58018e+07
-2.54822e+07
-2.51333e+07
-2.46947e+07
-2.4207e+07
-2.36603e+07
-2.30476e+07
-2.24033e+07
-2.16689e+07
-2.09134e+07
-2.00044e+07
-1.88612e+07
-1.69758e+07
-2.6242e+07
-2.25737e+07
-2.23896e+07
-2.22025e+07
-2.19002e+07
-2.15691e+07
-2.11543e+07
-2.06922e+07
-2.01751e+07
-1.95956e+07
-1.89863e+07
-1.82926e+07
-1.75771e+07
-1.6717e+07
-1.56187e+07
-1.37922e+07
-2.262e+07
-1.91563e+07
-1.89811e+07
-1.88013e+07
-1.85131e+07
-1.81955e+07
-1.77995e+07
-1.7357e+07
-1.6863e+07
-1.63088e+07
-1.57262e+07
-1.50637e+07
-1.43782e+07
-1.35555e+07
-1.24902e+07
-1.07083e+07
-1.9201e+07
-1.59343e+07
-1.57664e+07
-1.55915e+07
-1.53142e+07
-1.50063e+07
-1.46242e+07
-1.41955e+07
-1.37179e+07
-1.31815e+07
-1.26174e+07
-1.19766e+07
-1.13116e+07
-1.05155e+07
-9.47302e+06
-7.72432e+06
-1.59779e+07
-1.29025e+07
-1.27404e+07
-1.25683e+07
-1.22989e+07
-1.19967e+07
-1.1624e+07
-1.12035e+07
-1.07359e+07
-1.02097e+07
-9.65581e+06
-9.02726e+06
-8.37267e+06
-7.59194e+06
-6.56101e+06
-4.8338e+06
-1.29456e+07
-1.00573e+07
-9.8999e+06
-9.7285e+06
-9.46428e+06
-9.16423e+06
-8.79638e+06
-8.37879e+06
-7.91501e+06
-7.39156e+06
-6.83961e+06
-6.21341e+06
-5.5588e+06
-4.7809e+06
-3.74859e+06
-2.02652e+06
-1.01004e+07
-7.39692e+06
-7.24307e+06
-7.07056e+06
-6.80904e+06
-6.50791e+06
-6.14092e+06
-5.72119e+06
-5.25526e+06
-4.72736e+06
-4.16919e+06
-3.53557e+06
-2.87045e+06
-2.08327e+06
-1.03797e+06
690270
-7.44047e+06
-4.92076e+06
-4.76962e+06
-4.59449e+06
-4.33356e+06
-4.02858e+06
-3.65886e+06
-3.23249e+06
-2.75886e+06
-2.21962e+06
-1.64704e+06
-995845
-308647
502319
1.57643e+06
3.33189e+06
-4.96509e+06
-2.62947e+06
-2.48046e+06
-2.30157e+06
-2.03963e+06
-1.72862e+06
-1.35325e+06
-916492
-430332
126436
721092
1.39958e+06
2.12022e+06
2.96898e+06
4.08653e+06
5.88562e+06
-2.67482e+06
-524571
-377407
-194153
69798.8
388184
771237
1.2211e+06
1.72364e+06
2.30313e+06
2.92688e+06
3.64211e+06
4.4083e+06
5.31098e+06
6.4908e+06
8.35867e+06
-571044
1.39185e+06
1.53711e+06
1.72474e+06
1.99093e+06
2.31701e+06
2.70857e+06
3.17282e+06
3.69402e+06
4.29974e+06
4.9581e+06
5.7181e+06
6.54134e+06
7.51394e+06
8.77611e+06
1.07401e+07
1.34432e+06
3.11766e+06
3.26058e+06
3.45185e+06
3.7196e+06
4.05242e+06
4.45178e+06
4.92982e+06
5.46983e+06
6.10288e+06
6.79897e+06
7.60945e+06
8.49997e+06
9.55811e+06
1.09249e+07
1.30172e+07
3.06932e+06
4.65117e+06
4.79094e+06
4.98434e+06
5.25191e+06
5.58907e+06
5.99364e+06
6.48249e+06
7.03854e+06
7.69653e+06
8.42962e+06
9.29213e+06
1.0257e+07
1.14137e+07
1.29093e+07
1.51669e+07
4.60247e+06
5.99145e+06
6.12686e+06
6.32008e+06
6.58466e+06
6.92219e+06
7.32731e+06
7.82123e+06
8.38689e+06
9.06289e+06
9.82657e+06
1.07361e+07
1.17762e+07
1.3038e+07
1.46886e+07
1.71466e+07
5.94299e+06
7.14027e+06
7.26977e+06
7.45974e+06
7.71746e+06
8.04982e+06
8.44861e+06
8.9388e+06
9.50328e+06
1.01845e+07
1.09643e+07
1.19063e+07
1.30113e+07
1.43767e+07
1.62178e+07
1.89424e+07
7.09282e+06
8.10104e+06
8.22284e+06
8.4059e+06
8.65202e+06
8.97237e+06
9.35597e+06
9.83063e+06
1.03785e+07
1.10452e+07
1.18155e+07
1.27596e+07
1.38951e+07
1.53368e+07
1.7377e+07
2.04559e+07
8.05548e+06
8.8618e+06
8.97449e+06
9.14752e+06
9.37802e+06
9.6803e+06
1.00407e+07
1.04887e+07
1.10045e+07
1.16353e+07
1.23651e+07
1.32699e+07
1.43749e+07
1.58229e+07
1.79749e+07
2.14097e+07
8.81879e+06
9.54347e+06
9.64315e+06
9.79939e+06
1.00051e+07
1.02766e+07
1.05969e+07
1.0995e+07
1.14464e+07
1.19942e+07
1.26105e+07
1.33594e+07
1.4232e+07
1.53421e+07
1.69694e+07
1.95542e+07
9.50467e+06
9.7813e+06
9.87156e+06
1.00148e+07
1.02023e+07
1.04507e+07
1.07418e+07
1.11041e+07
1.15106e+07
1.20019e+07
1.25428e+07
1.31871e+07
1.38928e+07
1.47232e+07
1.57248e+07
1.76372e+07
9.74576e+06
)
;

boundaryField
{
    wireUpstream
    {
        type            zeroGradient;
    }
    wireDownstream
    {
        type            zeroGradient;
    }
    wireTopContact
    {
        type            zeroGradient;
    }
    front
    {
        type            wedge;
    }
    back
    {
        type            wedge;
    }
}


// ************************************************************************* //
