/*--------------------------------*- C++ -*----------------------------------*\
| =========                 |                                                 |
| \\      /  F ield         | foam-extend: Open Source CFD                    |
|  \\    /   O peration     | Version:     4.1-20200408                       |
|   \\  /    A nd           | Web:         http://www.foam-extend.org         |
|    \\/     M anipulation  |                                                 |
\*---------------------------------------------------------------------------*/
FoamFile
{
    version     2.0;
    format      ascii;
    class       volVectorField;
    location    "0.0100000";
    object      U_0;
}
// * * * * * * * * * * * * * * * * * * * * * * * * * * * * * * * * * * * * * //

dimensions      [0 1 0 0 0 0 0];

internalField   nonuniform List<vector> 
1952
(
(0.00992887 -4.5662e-08 0)
(0.0099289 -7.45118e-08 0)
(0.00992892 -1.0372e-07 0)
(0.00992897 -1.33487e-07 0)
(0.00992901 -1.63239e-07 0)
(0.00992908 -1.93765e-07 0)
(0.00992914 -2.24194e-07 0)
(0.00992922 -2.5572e-07 0)
(0.00992931 -2.87114e-07 0)
(0.0099294 -3.20013e-07 0)
(0.0099295 -3.52773e-07 0)
(0.00992961 -3.87559e-07 0)
(0.00992972 -4.22207e-07 0)
(0.00992984 -4.59402e-07 0)
(0.00992996 -4.96091e-07 0)
(0.00992887 -1.95708e-08 0)
(0.00992875 -4.90052e-08 0)
(0.00992878 -7.99278e-08 0)
(0.00992881 -1.11296e-07 0)
(0.00992885 -1.4314e-07 0)
(0.0099289 -1.7509e-07 0)
(0.00992896 -2.07674e-07 0)
(0.00992902 -2.40328e-07 0)
(0.0099291 -2.73892e-07 0)
(0.00992919 -3.07519e-07 0)
(0.00992928 -3.42392e-07 0)
(0.00992938 -3.77266e-07 0)
(0.00992949 -4.13725e-07 0)
(0.00992961 -4.49853e-07 0)
(0.00992973 -4.87591e-07 0)
(0.00992985 -5.23617e-07 0)
(0.00992875 -2.10008e-08 0)
(0.00992863 -5.17643e-08 0)
(0.00992866 -8.44057e-08 0)
(0.00992868 -1.17526e-07 0)
(0.00992873 -1.51078e-07 0)
(0.00992878 -1.84764e-07 0)
(0.00992884 -2.18993e-07 0)
(0.0099289 -2.53325e-07 0)
(0.00992898 -2.88409e-07 0)
(0.00992907 -3.23568e-07 0)
(0.00992916 -3.59709e-07 0)
(0.00992927 -3.95763e-07 0)
(0.00992937 -4.32926e-07 0)
(0.00992949 -4.69442e-07 0)
(0.00992961 -5.06816e-07 0)
(0.00992975 -5.41968e-07 0)
(0.00992863 -2.21824e-08 0)
(0.00992851 -5.39717e-08 0)
(0.00992854 -8.79837e-08 0)
(0.00992856 -1.22481e-07 0)
(0.00992861 -1.57371e-07 0)
(0.00992865 -1.92377e-07 0)
(0.00992872 -2.27833e-07 0)
(0.00992878 -2.63358e-07 0)
(0.00992886 -2.99472e-07 0)
(0.00992895 -3.35585e-07 0)
(0.00992904 -3.72415e-07 0)
(0.00992915 -4.09003e-07 0)
(0.00992926 -4.4627e-07 0)
(0.00992938 -4.82669e-07 0)
(0.0099295 -5.19401e-07 0)
(0.00992964 -5.53981e-07 0)
(0.00992851 -2.31283e-08 0)
(0.00992839 -5.56527e-08 0)
(0.00992842 -9.07014e-08 0)
(0.00992844 -1.26227e-07 0)
(0.00992849 -1.62099e-07 0)
(0.00992853 -1.98045e-07 0)
(0.0099286 -2.34346e-07 0)
(0.00992866 -2.70648e-07 0)
(0.00992874 -3.07371e-07 0)
(0.00992883 -3.44e-07 0)
(0.00992893 -3.81098e-07 0)
(0.00992903 -4.17815e-07 0)
(0.00992914 -4.54869e-07 0)
(0.00992927 -4.90952e-07 0)
(0.00992939 -5.27042e-07 0)
(0.00992954 -5.61227e-07 0)
(0.00992838 -2.3849e-08 0)
(0.00992827 -5.68523e-08 0)
(0.00992829 -9.26341e-08 0)
(0.00992832 -1.28873e-07 0)
(0.00992837 -1.65412e-07 0)
(0.00992841 -2.01969e-07 0)
(0.00992848 -2.38787e-07 0)
(0.00992854 -2.75524e-07 0)
(0.00992862 -3.12525e-07 0)
(0.00992871 -3.49332e-07 0)
(0.00992881 -3.86414e-07 0)
(0.00992892 -4.23016e-07 0)
(0.00992903 -4.59698e-07 0)
(0.00992916 -4.95411e-07 0)
(0.00992929 -5.30932e-07 0)
(0.00992943 -5.64872e-07 0)
(0.00992826 -2.43637e-08 0)
(0.00992815 -5.76223e-08 0)
(0.00992817 -9.38659e-08 0)
(0.0099282 -1.30544e-07 0)
(0.00992825 -1.67474e-07 0)
(0.00992829 -2.04365e-07 0)
(0.00992836 -2.41429e-07 0)
(0.00992843 -2.7833e-07 0)
(0.00992851 -3.15346e-07 0)
(0.0099286 -3.52108e-07 0)
(0.0099287 -3.88989e-07 0)
(0.0099288 -4.25338e-07 0)
(0.00992892 -4.61591e-07 0)
(0.00992905 -4.96933e-07 0)
(0.00992918 -5.31973e-07 0)
(0.00992933 -5.65741e-07 0)
(0.00992814 -2.46942e-08 0)
(0.00992803 -5.80188e-08 0)
(0.00992806 -9.44929e-08 0)
(0.00992808 -1.31374e-07 0)
(0.00992813 -1.68471e-07 0)
(0.00992818 -2.05463e-07 0)
(0.00992824 -2.42573e-07 0)
(0.00992831 -2.79429e-07 0)
(0.00992839 -3.16283e-07 0)
(0.00992848 -3.52825e-07 0)
(0.00992858 -3.89393e-07 0)
(0.00992869 -4.25432e-07 0)
(0.00992881 -4.61231e-07 0)
(0.00992894 -4.96236e-07 0)
(0.00992907 -5.30864e-07 0)
(0.00992922 -5.64505e-07 0)
(0.00992802 -2.48648e-08 0)
(0.00992791 -5.80998e-08 0)
(0.00992794 -9.46054e-08 0)
(0.00992797 -1.31502e-07 0)
(0.00992801 -1.6857e-07 0)
(0.00992806 -2.05496e-07 0)
(0.00992812 -2.42484e-07 0)
(0.0099282 -2.79142e-07 0)
(0.00992828 -3.15696e-07 0)
(0.00992837 -3.51916e-07 0)
(0.00992847 -3.88113e-07 0)
(0.00992858 -4.23804e-07 0)
(0.0099287 -4.59162e-07 0)
(0.00992883 -4.9385e-07 0)
(0.00992897 -5.28122e-07 0)
(0.00992912 -5.61651e-07 0)
(0.00992791 -2.48999e-08 0)
(0.0099278 -5.79156e-08 0)
(0.00992782 -9.42908e-08 0)
(0.00992785 -1.31037e-07 0)
(0.0099279 -1.67933e-07 0)
(0.00992795 -2.04626e-07 0)
(0.00992801 -2.41408e-07 0)
(0.00992808 -2.77679e-07 0)
(0.00992817 -3.13961e-07 0)
(0.00992826 -3.49862e-07 0)
(0.00992836 -3.85559e-07 0)
(0.00992847 -4.20944e-07 0)
(0.00992859 -4.55839e-07 0)
(0.00992872 -4.90247e-07 0)
(0.00992886 -5.2419e-07 0)
(0.00992902 -5.57607e-07 0)
(0.00992779 -2.48213e-08 0)
(0.00992768 -5.7518e-08 0)
(0.00992771 -9.36228e-08 0)
(0.00992774 -1.30108e-07 0)
(0.00992778 -1.66668e-07 0)
(0.00992783 -2.03067e-07 0)
(0.0099279 -2.39453e-07 0)
(0.00992797 -2.75343e-07 0)
(0.00992806 -3.11434e-07 0)
(0.00992815 -3.46935e-07 0)
(0.00992825 -3.82097e-07 0)
(0.00992836 -4.17157e-07 0)
(0.00992848 -4.51597e-07 0)
(0.00992862 -4.85729e-07 0)
(0.00992876 -5.19368e-07 0)
(0.00992891 -5.5266e-07 0)
(0.00992768 -2.46507e-08 0)
(0.00992757 -5.6951e-08 0)
(0.0099276 -9.26757e-08 0)
(0.00992762 -1.28813e-07 0)
(0.00992767 -1.64909e-07 0)
(0.00992772 -2.0099e-07 0)
(0.00992779 -2.36801e-07 0)
(0.00992786 -2.72395e-07 0)
(0.00992795 -3.08144e-07 0)
(0.00992804 -3.43365e-07 0)
(0.00992814 -3.78104e-07 0)
(0.00992826 -4.1271e-07 0)
(0.00992838 -4.46772e-07 0)
(0.00992852 -4.80575e-07 0)
(0.00992865 -5.13943e-07 0)
(0.00992881 -5.4708e-07 0)
(0.00992756 -2.4407e-08 0)
(0.00992746 -5.62602e-08 0)
(0.00992749 -9.15357e-08 0)
(0.00992751 -1.27252e-07 0)
(0.00992756 -1.62834e-07 0)
(0.00992761 -1.98547e-07 0)
(0.00992768 -2.33741e-07 0)
(0.00992775 -2.69e-07 0)
(0.00992784 -3.04316e-07 0)
(0.00992793 -3.39309e-07 0)
(0.00992804 -3.73643e-07 0)
(0.00992815 -4.07782e-07 0)
(0.00992828 -4.41495e-07 0)
(0.00992841 -4.74959e-07 0)
(0.00992855 -5.08071e-07 0)
(0.00992871 -5.4103e-07 0)
(0.00992745 -2.41106e-08 0)
(0.00992735 -5.54762e-08 0)
(0.00992738 -9.02501e-08 0)
(0.00992741 -1.25486e-07 0)
(0.00992745 -1.60522e-07 0)
(0.00992751 -1.95812e-07 0)
(0.00992757 -2.30394e-07 0)
(0.00992765 -2.65344e-07 0)
(0.00992773 -3.00185e-07 0)
(0.00992783 -3.34924e-07 0)
(0.00992793 -3.68825e-07 0)
(0.00992805 -4.02528e-07 0)
(0.00992817 -4.35903e-07 0)
(0.00992831 -4.69029e-07 0)
(0.00992845 -5.01891e-07 0)
(0.00992861 -5.34649e-07 0)
(0.00992734 -2.37743e-08 0)
(0.00992724 -5.46184e-08 0)
(0.00992727 -8.88665e-08 0)
(0.0099273 -1.23535e-07 0)
(0.00992735 -1.58064e-07 0)
(0.0099274 -1.92772e-07 0)
(0.00992747 -2.26865e-07 0)
(0.00992754 -2.61598e-07 0)
(0.00992763 -2.95862e-07 0)
(0.00992773 -3.30398e-07 0)
(0.00992783 -3.63806e-07 0)
(0.00992795 -3.97086e-07 0)
(0.00992807 -4.30127e-07 0)
(0.00992821 -4.62912e-07 0)
(0.00992835 -4.95525e-07 0)
(0.00992851 -5.28062e-07 0)
(0.00992724 -2.34078e-08 0)
(0.00992714 -5.37208e-08 0)
(0.00992717 -8.74221e-08 0)
(0.0099272 -1.21499e-07 0)
(0.00992724 -1.55515e-07 0)
(0.0099273 -1.89617e-07 0)
(0.00992737 -2.23222e-07 0)
(0.00992744 -2.57716e-07 0)
(0.00992753 -2.91417e-07 0)
(0.00992763 -3.25736e-07 0)
(0.00992773 -3.58639e-07 0)
(0.00992785 -3.91506e-07 0)
(0.00992797 -4.24217e-07 0)
(0.00992811 -4.56662e-07 0)
(0.00992825 -4.89023e-07 0)
(0.00992841 -5.21324e-07 0)
(0.00992713 -2.30242e-08 0)
(0.00992704 -5.28017e-08 0)
(0.00992707 -8.59442e-08 0)
(0.0099271 -1.19426e-07 0)
(0.00992714 -1.52934e-07 0)
(0.0099272 -1.86422e-07 0)
(0.00992727 -2.19527e-07 0)
(0.00992734 -2.53713e-07 0)
(0.00992743 -2.86929e-07 0)
(0.00992753 -3.21008e-07 0)
(0.00992763 -3.53431e-07 0)
(0.00992775 -3.85875e-07 0)
(0.00992787 -4.18287e-07 0)
(0.00992801 -4.50394e-07 0)
(0.00992815 -4.82496e-07 0)
(0.00992831 -5.14546e-07 0)
(0.00992703 -2.2631e-08 0)
(0.00992694 -5.18674e-08 0)
(0.00992697 -8.44382e-08 0)
(0.009927 -1.17327e-07 0)
(0.00992704 -1.50309e-07 0)
(0.0099271 -1.83197e-07 0)
(0.00992717 -2.15834e-07 0)
(0.00992724 -2.49658e-07 0)
(0.00992733 -2.8243e-07 0)
(0.00992743 -3.16239e-07 0)
(0.00992753 -3.48205e-07 0)
(0.00992765 -3.80206e-07 0)
(0.00992778 -4.12336e-07 0)
(0.00992792 -4.441e-07 0)
(0.00992806 -4.75938e-07 0)
(0.00992822 -5.07728e-07 0)
(0.00992693 -2.22309e-08 0)
(0.00992684 -5.09165e-08 0)
(0.00992687 -8.28692e-08 0)
(0.0099269 -1.15214e-07 0)
(0.00992695 -1.47539e-07 0)
(0.009927 -1.79952e-07 0)
(0.00992707 -2.12264e-07 0)
(0.00992715 -2.45513e-07 0)
(0.00992723 -2.78013e-07 0)
(0.00992733 -3.11319e-07 0)
(0.00992744 -3.43105e-07 0)
(0.00992756 -3.7474e-07 0)
(0.00992768 -4.06471e-07 0)
(0.00992782 -4.37942e-07 0)
(0.00992796 -4.69452e-07 0)
(0.00992812 -5.00983e-07 0)
(0.00992683 -2.18214e-08 0)
(0.00992674 -4.99564e-08 0)
(0.00992677 -8.12839e-08 0)
(0.0099268 -1.13081e-07 0)
(0.00992685 -1.44744e-07 0)
(0.00992691 -1.76666e-07 0)
(0.00992697 -2.08696e-07 0)
(0.00992705 -2.41331e-07 0)
(0.00992714 -2.73617e-07 0)
(0.00992724 -3.06345e-07 0)
(0.00992734 -3.38064e-07 0)
(0.00992746 -3.69364e-07 0)
(0.00992759 -4.00638e-07 0)
(0.00992773 -4.31843e-07 0)
(0.00992787 -4.6299e-07 0)
(0.00992803 -4.94264e-07 0)
(0.00992674 -2.14078e-08 0)
(0.00992665 -4.89962e-08 0)
(0.00992668 -7.97111e-08 0)
(0.00992671 -1.10957e-07 0)
(0.00992676 -1.41977e-07 0)
(0.00992681 -1.73366e-07 0)
(0.00992688 -2.05128e-07 0)
(0.00992696 -2.37215e-07 0)
(0.00992705 -2.69292e-07 0)
(0.00992714 -3.01484e-07 0)
(0.00992725 -3.33084e-07 0)
(0.00992737 -3.64012e-07 0)
(0.00992749 -3.94874e-07 0)
(0.00992763 -4.25802e-07 0)
(0.00992778 -4.56593e-07 0)
(0.00992794 -4.87605e-07 0)
(0.00992664 -2.09949e-08 0)
(0.00992656 -4.80251e-08 0)
(0.00992659 -7.81206e-08 0)
(0.00992662 -1.08815e-07 0)
(0.00992667 -1.39173e-07 0)
(0.00992672 -1.70045e-07 0)
(0.00992679 -2.01551e-07 0)
(0.00992687 -2.33121e-07 0)
(0.00992695 -2.65022e-07 0)
(0.00992705 -2.96663e-07 0)
(0.00992716 -3.28164e-07 0)
(0.00992728 -3.58696e-07 0)
(0.0099274 -3.89139e-07 0)
(0.00992754 -4.19805e-07 0)
(0.00992768 -4.50231e-07 0)
(0.00992784 -4.80983e-07 0)
(0.00992655 -2.05775e-08 0)
(0.00992647 -4.70058e-08 0)
(0.0099265 -7.65293e-08 0)
(0.00992653 -1.065e-07 0)
(0.00992658 -1.36408e-07 0)
(0.00992663 -1.66896e-07 0)
(0.0099267 -1.98005e-07 0)
(0.00992677 -2.29144e-07 0)
(0.00992686 -2.60791e-07 0)
(0.00992696 -2.9193e-07 0)
(0.00992707 -3.23295e-07 0)
(0.00992719 -3.53414e-07 0)
(0.00992731 -3.83438e-07 0)
(0.00992745 -4.13839e-07 0)
(0.00992759 -4.43903e-07 0)
(0.00992775 -4.74396e-07 0)
(0.00992646 -2.01447e-08 0)
(0.00992638 -4.59568e-08 0)
(0.00992641 -7.49107e-08 0)
(0.00992644 -1.04098e-07 0)
(0.00992649 -1.33608e-07 0)
(0.00992654 -1.63792e-07 0)
(0.00992661 -1.94429e-07 0)
(0.00992669 -2.25204e-07 0)
(0.00992677 -2.56539e-07 0)
(0.00992687 -2.87268e-07 0)
(0.00992698 -3.18447e-07 0)
(0.0099271 -3.48135e-07 0)
(0.00992722 -3.77749e-07 0)
(0.00992736 -4.07906e-07 0)
(0.0099275 -4.37626e-07 0)
(0.00992766 -4.6786e-07 0)
(0.00992637 -1.9701e-08 0)
(0.00992629 -4.49146e-08 0)
(0.00992632 -7.32127e-08 0)
(0.00992635 -1.01791e-07 0)
(0.0099264 -1.30932e-07 0)
(0.00992646 -1.60637e-07 0)
(0.00992652 -1.90865e-07 0)
(0.0099266 -2.21215e-07 0)
(0.00992669 -2.52253e-07 0)
(0.00992678 -2.82582e-07 0)
(0.00992689 -3.13542e-07 0)
(0.00992701 -3.42832e-07 0)
(0.00992713 -3.72025e-07 0)
(0.00992727 -4.01965e-07 0)
(0.00992742 -4.31345e-07 0)
(0.00992758 -4.61331e-07 0)
(0.00992629 -1.92522e-08 0)
(0.00992621 -4.38634e-08 0)
(0.00992624 -7.14298e-08 0)
(0.00992627 -9.94944e-08 0)
(0.00992632 -1.28287e-07 0)
(0.00992637 -1.57431e-07 0)
(0.00992644 -1.87235e-07 0)
(0.00992651 -2.17159e-07 0)
(0.0099266 -2.47786e-07 0)
(0.0099267 -2.77816e-07 0)
(0.00992681 -3.08364e-07 0)
(0.00992692 -3.37605e-07 0)
(0.00992705 -3.66492e-07 0)
(0.00992719 -3.96082e-07 0)
(0.00992733 -4.25192e-07 0)
(0.00992749 -4.54896e-07 0)
(0.0099262 -1.87969e-08 0)
(0.00992613 -4.27345e-08 0)
(0.00992616 -6.96781e-08 0)
(0.00992619 -9.7262e-08 0)
(0.00992623 -1.25535e-07 0)
(0.00992629 -1.54197e-07 0)
(0.00992635 -1.8352e-07 0)
(0.00992643 -2.13041e-07 0)
(0.00992652 -2.43215e-07 0)
(0.00992661 -2.72981e-07 0)
(0.00992672 -3.03089e-07 0)
(0.00992684 -3.3234e-07 0)
(0.00992696 -3.60937e-07 0)
(0.0099271 -3.90163e-07 0)
(0.00992724 -4.19024e-07 0)
(0.0099274 -4.48454e-07 0)
(0.00992612 -1.83185e-08 0)
(0.00992605 -4.1586e-08 0)
(0.00992608 -6.80276e-08 0)
(0.00992611 -9.50998e-08 0)
(0.00992615 -1.22735e-07 0)
(0.00992621 -1.50921e-07 0)
(0.00992627 -1.79706e-07 0)
(0.00992635 -2.08843e-07 0)
(0.00992643 -2.38554e-07 0)
(0.00992653 -2.68098e-07 0)
(0.00992664 -2.97786e-07 0)
(0.00992675 -3.26956e-07 0)
(0.00992688 -3.55223e-07 0)
(0.00992702 -3.84176e-07 0)
(0.00992716 -4.12788e-07 0)
(0.00992732 -4.41978e-07 0)
(0.00992604 -1.78217e-08 0)
(0.00992597 -4.06459e-08 0)
(0.009926 -6.65124e-08 0)
(0.00992603 -9.2951e-08 0)
(0.00992607 -1.19917e-07 0)
(0.00992613 -1.47566e-07 0)
(0.00992619 -1.75761e-07 0)
(0.00992627 -2.04504e-07 0)
(0.00992635 -2.33725e-07 0)
(0.00992645 -2.63038e-07 0)
(0.00992655 -2.923e-07 0)
(0.00992667 -3.21429e-07 0)
(0.00992679 -3.4937e-07 0)
(0.00992693 -3.78085e-07 0)
(0.00992708 -4.06469e-07 0)
(0.00992724 -4.35448e-07 0)
(0.00992597 -1.74152e-08 0)
(0.0099259 -3.96973e-08 0)
(0.00992592 -6.48975e-08 0)
(0.00992595 -9.06839e-08 0)
(0.009926 -1.16993e-07 0)
(0.00992605 -1.44085e-07 0)
(0.00992612 -1.71672e-07 0)
(0.00992619 -2.00014e-07 0)
(0.00992627 -2.28727e-07 0)
(0.00992637 -2.57798e-07 0)
(0.00992647 -2.8665e-07 0)
(0.00992659 -3.15789e-07 0)
(0.00992671 -3.43383e-07 0)
(0.00992685 -3.71885e-07 0)
(0.00992699 -4.00049e-07 0)
(0.00992715 -4.28854e-07 0)
(0.00992589 -1.70099e-08 0)
(0.00992582 -3.86229e-08 0)
(0.00992585 -6.31062e-08 0)
(0.00992588 -8.82595e-08 0)
(0.00992592 -1.13923e-07 0)
(0.00992597 -1.40451e-07 0)
(0.00992604 -1.67415e-07 0)
(0.00992611 -1.95368e-07 0)
(0.0099262 -2.23526e-07 0)
(0.00992629 -2.52422e-07 0)
(0.00992639 -2.80843e-07 0)
(0.00992651 -3.09989e-07 0)
(0.00992663 -3.37256e-07 0)
(0.00992677 -3.65554e-07 0)
(0.00992691 -3.9353e-07 0)
(0.00992707 -4.22198e-07 0)
(0.00992582 -1.65473e-08 0)
(0.00992575 -3.74952e-08 0)
(0.00992578 -6.12463e-08 0)
(0.00992581 -8.57375e-08 0)
(0.00992585 -1.1072e-07 0)
(0.0099259 -1.36669e-07 0)
(0.00992596 -1.62993e-07 0)
(0.00992604 -1.90542e-07 0)
(0.00992612 -2.18134e-07 0)
(0.00992621 -2.46846e-07 0)
(0.00992632 -2.74824e-07 0)
(0.00992643 -3.03976e-07 0)
(0.00992655 -3.30939e-07 0)
(0.00992669 -3.59056e-07 0)
(0.00992683 -3.8688e-07 0)
(0.00992699 -4.15459e-07 0)
(0.00992575 -1.60614e-08 0)
(0.00992568 -3.62987e-08 0)
(0.00992571 -5.92893e-08 0)
(0.00992574 -8.31007e-08 0)
(0.00992578 -1.07373e-07 0)
(0.00992583 -1.32741e-07 0)
(0.00992589 -1.58414e-07 0)
(0.00992596 -1.85551e-07 0)
(0.00992605 -2.12578e-07 0)
(0.00992614 -2.41082e-07 0)
(0.00992624 -2.68617e-07 0)
(0.00992635 -2.97787e-07 0)
(0.00992647 -3.24454e-07 0)
(0.00992661 -3.52429e-07 0)
(0.00992675 -3.80136e-07 0)
(0.00992691 -4.08684e-07 0)
(0.00992568 -1.55457e-08 0)
(0.00992562 -3.5072e-08 0)
(0.00992564 -5.7283e-08 0)
(0.00992567 -8.03968e-08 0)
(0.00992571 -1.03955e-07 0)
(0.00992576 -1.28727e-07 0)
(0.00992582 -1.53737e-07 0)
(0.00992589 -1.80445e-07 0)
(0.00992597 -2.069e-07 0)
(0.00992606 -2.35184e-07 0)
(0.00992616 -2.62264e-07 0)
(0.00992628 -2.91457e-07 0)
(0.0099264 -3.1782e-07 0)
(0.00992653 -3.45689e-07 0)
(0.00992667 -3.73318e-07 0)
(0.00992683 -4.01899e-07 0)
(0.00992561 -1.50171e-08 0)
(0.00992555 -3.38394e-08 0)
(0.00992558 -5.52691e-08 0)
(0.0099256 -7.76819e-08 0)
(0.00992565 -1.00517e-07 0)
(0.00992569 -1.24685e-07 0)
(0.00992575 -1.49022e-07 0)
(0.00992582 -1.75283e-07 0)
(0.0099259 -2.01153e-07 0)
(0.00992599 -2.29208e-07 0)
(0.00992609 -2.55841e-07 0)
(0.0099262 -2.85063e-07 0)
(0.00992632 -3.11132e-07 0)
(0.00992645 -3.38931e-07 0)
(0.00992659 -3.66523e-07 0)
(0.00992675 -3.95212e-07 0)
(0.00992555 -1.44864e-08 0)
(0.00992549 -3.26283e-08 0)
(0.00992552 -5.33191e-08 0)
(0.00992554 -7.50455e-08 0)
(0.00992558 -9.71655e-08 0)
(0.00992563 -1.20747e-07 0)
(0.00992569 -1.44414e-07 0)
(0.00992576 -1.7021e-07 0)
(0.00992583 -1.95494e-07 0)
(0.00992592 -2.23305e-07 0)
(0.00992602 -2.49483e-07 0)
(0.00992613 -2.78744e-07 0)
(0.00992624 -3.04503e-07 0)
(0.00992638 -3.32257e-07 0)
(0.00992651 -3.59865e-07 0)
(0.00992667 -3.8874e-07 0)
(0.00992549 -1.39675e-08 0)
(0.00992544 -3.15573e-08 0)
(0.00992546 -5.15629e-08 0)
(0.00992548 -7.25999e-08 0)
(0.00992552 -9.40216e-08 0)
(0.00992557 -1.17029e-07 0)
(0.00992563 -1.4006e-07 0)
(0.00992569 -1.65384e-07 0)
(0.00992577 -1.9009e-07 0)
(0.00992585 -2.17638e-07 0)
(0.00992595 -2.43354e-07 0)
(0.00992605 -2.72657e-07 0)
(0.00992617 -2.98107e-07 0)
(0.0099263 -3.25851e-07 0)
(0.00992644 -3.53522e-07 0)
(0.00992659 -3.82671e-07 0)
(0.00992543 -1.35077e-08 0)
(0.00992538 -3.06883e-08 0)
(0.0099254 -5.01052e-08 0)
(0.00992543 -7.05196e-08 0)
(0.00992547 -9.12926e-08 0)
(0.00992551 -1.13719e-07 0)
(0.00992557 -1.36198e-07 0)
(0.00992563 -1.61026e-07 0)
(0.0099257 -1.852e-07 0)
(0.00992579 -2.12444e-07 0)
(0.00992588 -2.37741e-07 0)
(0.00992598 -2.67078e-07 0)
(0.00992609 -2.92229e-07 0)
(0.00992622 -3.19965e-07 0)
(0.00992636 -3.47774e-07 0)
(0.00992651 -3.77291e-07 0)
(0.00992538 -1.31332e-08 0)
(0.00992533 -3.00208e-08 0)
(0.00992535 -4.9008e-08 0)
(0.00992537 -6.89582e-08 0)
(0.00992541 -8.9225e-08 0)
(0.00992545 -1.11112e-07 0)
(0.00992551 -1.33088e-07 0)
(0.00992557 -1.57467e-07 0)
(0.00992564 -1.81132e-07 0)
(0.00992572 -2.08067e-07 0)
(0.00992581 -2.32978e-07 0)
(0.00992591 -2.62353e-07 0)
(0.00992602 -2.87205e-07 0)
(0.00992615 -3.1493e-07 0)
(0.00992628 -3.42926e-07 0)
(0.00992643 -3.72905e-07 0)
(0.00992533 -1.28476e-08 0)
(0.00992528 -2.96741e-08 0)
(0.0099253 -4.84279e-08 0)
(0.00992533 -6.80928e-08 0)
(0.00992536 -8.80803e-08 0)
(0.0099254 -1.09537e-07 0)
(0.00992545 -1.31143e-07 0)
(0.00992551 -1.55103e-07 0)
(0.00992558 -1.78383e-07 0)
(0.00992566 -2.04899e-07 0)
(0.00992574 -2.29531e-07 0)
(0.00992584 -2.58673e-07 0)
(0.00992595 -2.83582e-07 0)
(0.00992607 -3.11448e-07 0)
(0.0099262 -3.39507e-07 0)
(0.00992635 -3.70099e-07 0)
(0.00992528 -1.26997e-08 0)
(0.00992524 -2.98157e-08 0)
(0.00992526 -4.86285e-08 0)
(0.00992528 -6.82705e-08 0)
(0.00992531 -8.82014e-08 0)
(0.00992535 -1.09454e-07 0)
(0.0099254 -1.30899e-07 0)
(0.00992546 -1.5451e-07 0)
(0.00992552 -1.77564e-07 0)
(0.0099256 -2.03626e-07 0)
(0.00992568 -2.27996e-07 0)
(0.00992577 -2.5676e-07 0)
(0.00992588 -2.81835e-07 0)
(0.00992599 -3.09898e-07 0)
(0.00992612 -3.37973e-07 0)
(0.00992627 -3.69298e-07 0)
(0.00992523 -1.27617e-08 0)
(0.00992519 -3.0614e-08 0)
(0.00992521 -4.9897e-08 0)
(0.00992523 -6.98839e-08 0)
(0.00992527 -9.00832e-08 0)
(0.0099253 -1.11427e-07 0)
(0.00992535 -1.32945e-07 0)
(0.00992541 -1.56321e-07 0)
(0.00992547 -1.79336e-07 0)
(0.00992554 -2.04958e-07 0)
(0.00992562 -2.29202e-07 0)
(0.00992571 -2.57609e-07 0)
(0.00992581 -2.82737e-07 0)
(0.00992592 -3.10924e-07 0)
(0.00992604 -3.39035e-07 0)
(0.00992618 -3.71172e-07 0)
(0.00992519 -1.31066e-08 0)
(0.00992515 -3.22459e-08 0)
(0.00992517 -5.24935e-08 0)
(0.00992519 -7.33175e-08 0)
(0.00992522 -9.4279e-08 0)
(0.00992526 -1.16103e-07 0)
(0.0099253 -1.38038e-07 0)
(0.00992536 -1.61425e-07 0)
(0.00992541 -1.84606e-07 0)
(0.00992548 -2.09883e-07 0)
(0.00992556 -2.34142e-07 0)
(0.00992564 -2.62202e-07 0)
(0.00992573 -2.87321e-07 0)
(0.00992584 -3.15548e-07 0)
(0.00992596 -3.43626e-07 0)
(0.00992609 -3.76645e-07 0)
(0.00992515 -1.38086e-08 0)
(0.00992511 -3.49303e-08 0)
(0.00992513 -5.67753e-08 0)
(0.00992515 -7.9067e-08 0)
(0.00992518 -1.01432e-07 0)
(0.00992521 -1.2425e-07 0)
(0.00992526 -1.47144e-07 0)
(0.00992531 -1.70945e-07 0)
(0.00992536 -1.94628e-07 0)
(0.00992543 -2.19775e-07 0)
(0.0099255 -2.44095e-07 0)
(0.00992558 -2.71812e-07 0)
(0.00992566 -2.96806e-07 0)
(0.00992576 -3.2495e-07 0)
(0.00992587 -3.52892e-07 0)
(0.009926 -3.86822e-07 0)
(0.00992511 -1.49616e-08 0)
(0.00992507 -3.89563e-08 0)
(0.00992509 -6.324e-08 0)
(0.00992511 -8.77885e-08 0)
(0.00992514 -1.12307e-07 0)
(0.00992517 -1.36807e-07 0)
(0.00992521 -1.6132e-07 0)
(0.00992526 -1.86089e-07 0)
(0.00992531 -2.10748e-07 0)
(0.00992537 -2.36078e-07 0)
(0.00992544 -2.60612e-07 0)
(0.00992551 -2.88007e-07 0)
(0.00992559 -3.12784e-07 0)
(0.00992569 -3.40705e-07 0)
(0.00992579 -3.68372e-07 0)
(0.00992591 -4.03194e-07 0)
(0.00992507 -1.66911e-08 0)
(0.00992503 -4.45952e-08 0)
(0.00992505 -7.23342e-08 0)
(0.00992507 -1.00116e-07 0)
(0.0099251 -1.27721e-07 0)
(0.00992513 -1.54814e-07 0)
(0.00992517 -1.81778e-07 0)
(0.00992521 -2.08247e-07 0)
(0.00992527 -2.34479e-07 0)
(0.00992532 -2.60482e-07 0)
(0.00992538 -2.85583e-07 0)
(0.00992545 -3.12788e-07 0)
(0.00992552 -3.37356e-07 0)
(0.00992561 -3.6489e-07 0)
(0.0099257 -3.92076e-07 0)
(0.00992582 -4.27695e-07 0)
(0.00992503 -1.91132e-08 0)
(0.00992499 -5.20952e-08 0)
(0.00992501 -8.44423e-08 0)
(0.00992503 -1.16634e-07 0)
(0.00992506 -1.48506e-07 0)
(0.00992509 -1.79324e-07 0)
(0.00992513 -2.09818e-07 0)
(0.00992517 -2.38939e-07 0)
(0.00992522 -2.67576e-07 0)
(0.00992527 -2.95004e-07 0)
(0.00992533 -3.21286e-07 0)
(0.00992539 -3.48622e-07 0)
(0.00992546 -3.73165e-07 0)
(0.00992553 -4.00145e-07 0)
(0.00992561 -4.26591e-07 0)
(0.00992571 -4.62776e-07 0)
(0.00992499 -2.23329e-08 0)
(0.00992494 -6.17026e-08 0)
(0.00992496 -9.99724e-08 0)
(0.00992498 -1.37943e-07 0)
(0.00992501 -1.75468e-07 0)
(0.00992504 -2.11385e-07 0)
(0.00992508 -2.46732e-07 0)
(0.00992512 -2.79799e-07 0)
(0.00992517 -3.12089e-07 0)
(0.00992522 -3.41999e-07 0)
(0.00992527 -3.70373e-07 0)
(0.00992533 -3.98448e-07 0)
(0.00992539 -4.2338e-07 0)
(0.00992545 -4.49751e-07 0)
(0.00992552 -4.75207e-07 0)
(0.00992561 -5.11487e-07 0)
(0.00992494 -2.64552e-08 0)
(0.00992489 -7.36511e-08 0)
(0.00992491 -1.19346e-07 0)
(0.00992492 -1.64615e-07 0)
(0.00992495 -2.09318e-07 0)
(0.00992499 -2.51928e-07 0)
(0.00992503 -2.93714e-07 0)
(0.00992507 -3.3238e-07 0)
(0.00992512 -3.6997e-07 0)
(0.00992516 -4.03841e-07 0)
(0.00992521 -4.35737e-07 0)
(0.00992527 -4.65677e-07 0)
(0.00992532 -4.91972e-07 0)
(0.00992537 -5.18136e-07 0)
(0.00992543 -5.42688e-07 0)
(0.0099255 -5.7853e-07 0)
(0.00992488 -3.15815e-08 0)
(0.00992482 -8.80666e-08 0)
(0.00992484 -1.42775e-07 0)
(0.00992486 -1.9698e-07 0)
(0.00992489 -2.50526e-07 0)
(0.00992493 -3.0162e-07 0)
(0.00992497 -3.51684e-07 0)
(0.00992501 -3.97903e-07 0)
(0.00992506 -4.42776e-07 0)
(0.00992511 -4.82654e-07 0)
(0.00992516 -5.20253e-07 0)
(0.00992521 -5.54004e-07 0)
(0.00992525 -5.83734e-07 0)
(0.0099253 -6.112e-07 0)
(0.00992534 -6.36244e-07 0)
(0.00992539 -6.72245e-07 0)
(0.00992482 -3.77648e-08 0)
(0.00992475 -1.04915e-07 0)
(0.00992477 -1.70196e-07 0)
(0.00992479 -2.35027e-07 0)
(0.00992482 -2.99223e-07 0)
(0.00992486 -3.60728e-07 0)
(0.0099249 -4.21138e-07 0)
(0.00992494 -4.77139e-07 0)
(0.00992499 -5.31699e-07 0)
(0.00992504 -5.80153e-07 0)
(0.00992509 -6.26234e-07 0)
(0.00992514 -6.66592e-07 0)
(0.00992518 -7.02912e-07 0)
(0.00992522 -7.34613e-07 0)
(0.00992525 -7.63531e-07 0)
(0.00992527 -8.02661e-07 0)
(0.00992474 -4.49881e-08 0)
(0.00992466 -1.24065e-07 0)
(0.00992468 -2.01425e-07 0)
(0.0099247 -2.78503e-07 0)
(0.00992473 -3.55088e-07 0)
(0.00992477 -4.28944e-07 0)
(0.00992482 -5.01812e-07 0)
(0.00992486 -5.69991e-07 0)
(0.00992492 -6.36878e-07 0)
(0.00992497 -6.96854e-07 0)
(0.00992502 -7.54635e-07 0)
(0.00992507 -8.05043e-07 0)
(0.0099251 -8.51728e-07 0)
(0.00992513 -8.91311e-07 0)
(0.00992515 -9.28134e-07 0)
(0.00992515 -9.73508e-07 0)
(0.00992465 -5.31965e-08 0)
(0.00992455 -1.45189e-07 0)
(0.00992457 -2.35935e-07 0)
(0.00992459 -3.26694e-07 0)
(0.00992463 -4.17234e-07 0)
(0.00992467 -5.05242e-07 0)
(0.00992472 -5.92589e-07 0)
(0.00992477 -6.75312e-07 0)
(0.00992482 -7.57188e-07 0)
(0.00992488 -8.3178e-07 0)
(0.00992493 -9.0474e-07 0)
(0.00992498 -9.6906e-07 0)
(0.00992502 -1.03038e-06 0)
(0.00992505 -1.08208e-06 0)
(0.00992505 -1.13148e-06 0)
(0.00992503 -1.18676e-06 0)
(0.00992454 -6.22477e-08 0)
(0.00992442 -1.67751e-07 0)
(0.00992444 -2.72861e-07 0)
(0.00992447 -3.78413e-07 0)
(0.00992451 -4.84163e-07 0)
(0.00992455 -5.87834e-07 0)
(0.0099246 -6.91393e-07 0)
(0.00992466 -7.90799e-07 0)
(0.00992471 -8.90053e-07 0)
(0.00992477 -9.82196e-07 0)
(0.00992483 -1.07372e-06 0)
(0.00992488 -1.15584e-06 0)
(0.00992492 -1.23613e-06 0)
(0.00992495 -1.30438e-06 0)
(0.00992494 -1.37109e-06 0)
(0.0099249 -1.43993e-06 0)
(0.00992441 -7.19129e-08 0)
(0.00992427 -1.91063e-07 0)
(0.0099243 -3.11066e-07 0)
(0.00992432 -4.32055e-07 0)
(0.00992436 -5.53783e-07 0)
(0.00992441 -6.74116e-07 0)
(0.00992446 -7.95106e-07 0)
(0.00992452 -9.12789e-07 0)
(0.00992458 -1.03134e-06 0)
(0.00992465 -1.14353e-06 0)
(0.00992471 -1.25652e-06 0)
(0.00992477 -1.36001e-06 0)
(0.00992481 -1.46332e-06 0)
(0.00992484 -1.55252e-06 0)
(0.00992483 -1.64132e-06 0)
(0.00992478 -1.72761e-06 0)
(0.00992427 -8.1897e-08 0)
(0.0099241 -2.14276e-07 0)
(0.00992413 -3.49147e-07 0)
(0.00992415 -4.85626e-07 0)
(0.0099242 -6.23478e-07 0)
(0.00992424 -7.60786e-07 0)
(0.0099243 -8.99703e-07 0)
(0.00992436 -1.03646e-06 0)
(0.00992443 -1.17543e-06 0)
(0.0099245 -1.30933e-06 0)
(0.00992456 -1.44577e-06 0)
(0.00992463 -1.57347e-06 0)
(0.00992468 -1.70303e-06 0)
(0.00992471 -1.81705e-06 0)
(0.0099247 -1.93206e-06 0)
(0.00992465 -2.03933e-06 0)
(0.0099241 -9.18362e-08 0)
(0.00992391 -2.36451e-07 0)
(0.00992393 -3.85543e-07 0)
(0.00992396 -5.36897e-07 0)
(0.00992401 -6.90284e-07 0)
(0.00992405 -8.44079e-07 0)
(0.00992411 -1.00049e-06 0)
(0.00992418 -1.15613e-06 0)
(0.00992425 -1.31547e-06 0)
(0.00992432 -1.47152e-06 0)
(0.00992439 -1.6321e-06 0)
(0.00992446 -1.78553e-06 0)
(0.00992452 -1.94333e-06 0)
(0.00992457 -2.08521e-06 0)
(0.00992457 -2.22991e-06 0)
(0.00992453 -2.36194e-06 0)
(0.0099239 -1.01328e-07 0)
(0.0099237 -2.56625e-07 0)
(0.00992372 -4.18661e-07 0)
(0.00992375 -5.83575e-07 0)
(0.0099238 -7.51137e-07 0)
(0.00992384 -9.20032e-07 0)
(0.0099239 -1.09249e-06 0)
(0.00992397 -1.26564e-06 0)
(0.00992404 -1.44387e-06 0)
(0.00992412 -1.62088e-06 0)
(0.0099242 -1.80444e-06 0)
(0.00992428 -1.98316e-06 0)
(0.00992434 -2.16904e-06 0)
(0.0099244 -2.34003e-06 0)
(0.00992442 -2.51636e-06 0)
(0.00992441 -2.67643e-06 0)
(0.00992369 -1.09963e-07 0)
(0.00992347 -2.73922e-07 0)
(0.00992349 -4.47038e-07 0)
(0.00992352 -6.23546e-07 0)
(0.00992357 -8.03179e-07 0)
(0.00992361 -9.84924e-07 0)
(0.00992367 -1.17094e-06 0)
(0.00992374 -1.35892e-06 0)
(0.00992381 -1.55301e-06 0)
(0.00992389 -1.74786e-06 0)
(0.00992398 -1.9508e-06 0)
(0.00992406 -2.15167e-06 0)
(0.00992414 -2.36223e-06 0)
(0.00992422 -2.56002e-06 0)
(0.00992426 -2.76632e-06 0)
(0.00992428 -2.95545e-06 0)
(0.00992346 -1.17366e-07 0)
(0.00992323 -2.8763e-07 0)
(0.00992325 -4.69482e-07 0)
(0.00992328 -6.55081e-07 0)
(0.00992332 -8.44081e-07 0)
(0.00992337 -1.03569e-06 0)
(0.00992343 -1.23191e-06 0)
(0.00992349 -1.43094e-06 0)
(0.00992357 -1.63646e-06 0)
(0.00992365 -1.84412e-06 0)
(0.00992374 -2.06046e-06 0)
(0.00992383 -2.27705e-06 0)
(0.00992392 -2.5042e-06 0)
(0.00992401 -2.72064e-06 0)
(0.00992409 -2.94792e-06 0)
(0.00992415 -3.16029e-06 0)
(0.00992322 -1.23232e-07 0)
(0.00992297 -2.97275e-07 0)
(0.009923 -4.85236e-07 0)
(0.00992302 -6.7713e-07 0)
(0.00992307 -8.72437e-07 0)
(0.00992311 -1.07052e-06 0)
(0.00992317 -1.27312e-06 0)
(0.00992324 -1.47887e-06 0)
(0.00992331 -1.69082e-06 0)
(0.0099234 -1.90553e-06 0)
(0.00992349 -2.12782e-06 0)
(0.00992358 -2.35029e-06 0)
(0.00992369 -2.58024e-06 0)
(0.0099238 -2.80053e-06 0)
(0.00992391 -3.029e-06 0)
(0.00992403 -3.24042e-06 0)
(0.00992297 -1.27363e-07 0)
(0.00992271 -3.0289e-07 0)
(0.00992274 -4.94358e-07 0)
(0.00992276 -6.89798e-07 0)
(0.00992281 -8.88469e-07 0)
(0.00992285 -1.08974e-06 0)
(0.00992291 -1.29499e-06 0)
(0.00992298 -1.50311e-06 0)
(0.00992305 -1.71641e-06 0)
(0.00992314 -1.93206e-06 0)
(0.00992323 -2.15269e-06 0)
(0.00992334 -2.37072e-06 0)
(0.00992346 -2.59163e-06 0)
(0.0099236 -2.80607e-06 0)
(0.00992373 -3.02613e-06 0)
(0.0099239 -3.22734e-06 0)
(0.00992271 -1.29766e-07 0)
(0.00992245 -3.04723e-07 0)
(0.00992247 -4.97201e-07 0)
(0.0099225 -6.93456e-07 0)
(0.00992254 -8.92604e-07 0)
(0.00992259 -1.09384e-06 0)
(0.00992265 -1.29807e-06 0)
(0.00992272 -1.50406e-06 0)
(0.0099228 -1.71297e-06 0)
(0.00992289 -1.9219e-06 0)
(0.00992299 -2.13307e-06 0)
(0.00992311 -2.34097e-06 0)
(0.00992325 -2.55031e-06 0)
(0.0099234 -2.75587e-06 0)
(0.00992357 -2.96343e-06 0)
(0.00992377 -3.15312e-06 0)
(0.00992245 -1.30544e-07 0)
(0.00992219 -3.02607e-07 0)
(0.00992222 -4.93349e-07 0)
(0.00992224 -6.87149e-07 0)
(0.00992229 -8.83146e-07 0)
(0.00992233 -1.08056e-06 0)
(0.0099224 -1.27972e-06 0)
(0.00992247 -1.47946e-06 0)
(0.00992256 -1.67995e-06 0)
(0.00992266 -1.8788e-06 0)
(0.00992277 -2.07824e-06 0)
(0.0099229 -2.27666e-06 0)
(0.00992305 -2.47559e-06 0)
(0.00992322 -2.66967e-06 0)
(0.00992341 -2.86253e-06 0)
(0.00992364 -3.04078e-06 0)
(0.00992219 -1.29648e-07 0)
(0.00992195 -2.96303e-07 0)
(0.00992197 -4.8267e-07 0)
(0.009922 -6.71302e-07 0)
(0.00992205 -8.61228e-07 0)
(0.0099221 -1.05185e-06 0)
(0.00992217 -1.24307e-06 0)
(0.00992224 -1.43425e-06 0)
(0.00992234 -1.6253e-06 0)
(0.00992244 -1.81549e-06 0)
(0.00992256 -2.00491e-06 0)
(0.00992271 -2.19248e-06 0)
(0.00992286 -2.37879e-06 0)
(0.00992305 -2.55995e-06 0)
(0.00992325 -2.73822e-06 0)
(0.0099235 -2.90585e-06 0)
(0.00992194 -1.2697e-07 0)
(0.00992172 -2.86443e-07 0)
(0.00992175 -4.66452e-07 0)
(0.00992177 -6.48634e-07 0)
(0.00992182 -8.31484e-07 0)
(0.00992188 -1.01432e-06 0)
(0.00992195 -1.1969e-06 0)
(0.00992203 -1.37888e-06 0)