/*--------------------------------*- C++ -*----------------------------------*\
  =========                 |
  \\      /  F ield         | OpenFOAM: The Open Source CFD Toolbox
   \\    /   O peration     | Website:  https://openfoam.org
    \\  /    A nd           | Version:  8
     \\/     M anipulation  |
\*---------------------------------------------------------------------------*/
FoamFile
{
    version     2.0;
    format      ascii;
    class       volScalarField::Internal;
    location    "0.0460000";
    object      V0;
}
// * * * * * * * * * * * * * * * * * * * * * * * * * * * * * * * * * * * * * //

dimensions      [0 3 0 0 0 0 0];

value           nonuniform List<scalar> 
600
(
5.97031041785782e-14
5.89885517971395e-14
5.82735884162378e-14
5.75590007187794e-14
5.68448679179626e-14
5.61311457097792e-14
5.54179707992392e-14
5.47053781708955e-14
5.39932260956896e-14
5.32814613447684e-14
5.25701919533784e-14
5.18594360817086e-14
5.11490825862038e-14
5.04390983405561e-14
4.97295939854951e-14
4.90205805304751e-14
4.83119500442345e-14
4.76036873446667e-14
4.68959083024147e-14
4.61886189286128e-14
4.5481706710383e-14
4.47751783658816e-14
4.40691485744025e-14
4.33636170774496e-14
4.26584713471191e-14
4.19537337651144e-14
4.12495299674243e-14
4.05458490504767e-14
3.98425684897094e-14
3.91397417121659e-14
3.84375145458448e-14
3.77358589963959e-14
3.70346361040079e-14
3.63339515955304e-14
3.56339924514815e-14
3.4934699647277e-14
3.42358945786276e-14
3.35377982294642e-14
3.28406601273581e-14
3.214435168474e-14
3.14486342770837e-14
3.07539551063219e-14
3.00606704880213e-14
2.93685070293852e-14
2.86770934048929e-14
2.79873979383413e-14
2.72999123422952e-14
2.66139852617321e-14
2.59290511143001e-14
2.52471397260531e-14
2.45688532873745e-14
2.38925623362866e-14
2.32183108404885e-14
2.25491138431175e-14
2.18854957005328e-14
2.12248370543634e-14
2.05682821827953e-14
1.99201891001613e-14
1.9280369922055e-14
1.86444331365972e-14
1.80147233508838e-14
1.74031199116669e-14
1.68151462937517e-14
1.6239911572738e-14
1.57042224758984e-14
1.52247611517279e-14
1.47783723350401e-14
1.43524344517141e-14
1.39815974664603e-14
1.36615811651712e-14
1.33547874126836e-14
1.30791359865756e-14
1.284045027748e-14
1.26190160772954e-14
1.24054276854376e-14
1.22036361239449e-14
1.19973946796538e-14
1.17803022275732e-14
1.15595503092057e-14
1.13027838630828e-14
1.10029626521045e-14
1.06935918989018e-14
1.03329078289839e-14
9.89621091246303e-15
9.42386758319381e-15
8.95260388650556e-15
8.73529477853158e-15
8.75447790601305e-15
8.75982092947863e-15
8.72395985265372e-15
8.66086542557498e-15
8.59915780427904e-15
8.52892672735247e-15
8.45101190408246e-15
8.37222257475243e-15
8.29192934791052e-15
8.21128152099261e-15
8.1324098884367e-15
8.04279312163307e-15
7.91250720753214e-15
6.18781000817771e-14
6.11140710387946e-14
6.03498465163953e-14
5.95868178805271e-14
5.88249368350035e-14
5.80641485267725e-14
5.73044478399563e-14
5.6545825566254e-14
5.57882505082954e-14
5.50317030319279e-14
5.42761864679464e-14
5.35216964314655e-14
5.27682120791085e-14
5.20157251229925e-14
5.12642456612505e-14
5.0513773094883e-14
4.97642916361049e-14
4.90157996675972e-14
4.82683121802871e-14
4.75218309288021e-14
4.67763434048575e-14
4.60318529077912e-14
4.52883776887692e-14
4.45459209620007e-14
4.38044735622341e-14
4.30640445803506e-14
4.23246568294659e-14
4.1586315381655e-14
4.08490154633904e-14
4.01127758018394e-14
3.93776278499735e-14
3.86435807597055e-14
3.79106380968535e-14
3.71788362592684e-14
3.64482226804079e-14
3.5718813729936e-14
3.49906285181156e-14
3.42637361889439e-14
3.35382117669885e-14
3.28140833117925e-14
3.20914007254312e-14
3.13702955473751e-14
3.06508914793484e-14
2.99332339914835e-14
2.92174332835588e-14
2.85037385444507e-14
2.77923469596672e-14
2.70833131680319e-14
2.63768549980028e-14
2.56734327535585e-14
2.49733516570061e-14
2.42767017252955e-14
2.35839016586729e-14
2.28957028607379e-14
2.22125486528345e-14
2.15346609419696e-14
2.08628311619799e-14
2.01982329563856e-14
1.95415534840448e-14
1.88936743952163e-14
1.82575550019113e-14
1.76380315779052e-14
1.70395929242622e-14
1.64677405761227e-14
1.59301142379628e-14
1.54314476108366e-14
1.49704978668345e-14
1.45467541102827e-14
1.41625895294943e-14
1.3815948742756e-14
1.35007977125654e-14
1.32138142381737e-14
1.29522232740587e-14
1.27093698087728e-14
1.24779551707971e-14
1.22515102878053e-14
1.20226726150713e-14
1.17845096321284e-14
1.15298572764654e-14
1.1249069150657e-14
1.09363076425587e-14
1.05887880094414e-14
1.01971121063632e-14
9.75445210960773e-15
9.26311381984892e-15
8.76552140226205e-15
8.56150904463163e-15
8.60597482914303e-15
8.61579474707045e-15
8.5962597560063e-15
8.55472536475542e-15
8.50039913066126e-15
8.4371093784083e-15
8.36732769077157e-15
8.29395693079072e-15
8.21897599992648e-15
8.14408525913103e-15
8.07077085840758e-15
8.00081021632593e-15
7.9487710629495e-15
6.40424199555205e-14
6.32294157488964e-14
6.24163706071999e-14
6.16051533505171e-14
6.07956582802822e-14
5.99878300769118e-14
5.91816643301401e-14
5.83771512855502e-14
5.75742572699213e-14
5.67729615046003e-14
5.59732681062482e-14
5.51751723114102e-14
5.43786514378339e-14
5.3583696636394e-14
5.27903191084454e-14
5.19985179797777e-14
5.12082757978786e-14
5.04195907374071e-14
4.96324791551413e-14
4.8846942546061e-14
4.80629667431251e-14
4.72805551533349e-14
4.64997275532219e-14
4.57204868441411e-14
4.49428221639822e-14
4.41667429843719e-14
4.33922739444207e-14
4.26194196589112e-14
4.18481734844017e-14
4.10785550859874e-14
4.03105981909669e-14
3.95443111625776e-14
3.87796954369042e-14
3.80167893419347e-14
3.72556433996372e-14
3.64962724860143e-14
3.57386929649238e-14
3.49829779964764e-14
3.42292068839752e-14
3.3477404449329e-14
3.27276168221169e-14
3.19799839365509e-14
3.12346357213541e-14
3.04916102434033e-14
2.97510115402043e-14
2.90131075370413e-14
2.82781039416411e-14
2.75460370606368e-14
2.68171145593678e-14
2.60918380602678e-14
2.53705212010858e-14
2.46532109343917e-14
2.39403243258699e-14
2.32326795092459e-14
2.25307205582483e-14
2.18345949796653e-14
2.11451127175023e-14
2.04635460936405e-14
1.97905468258687e-14
1.91268379908891e-14
1.84754030746607e-14
1.78413492803187e-14
1.72291757610528e-14
1.66440653950323e-14
1.60942662793877e-14
1.55848627152179e-14
1.51138872087272e-14
1.46805056057467e-14
1.42877269077178e-14
1.39333462881123e-14
1.36105938989911e-14
1.33162863920277e-14
1.3047582462179e-14
1.27975611017139e-14
1.25587255566831e-14
1.23244086561828e-14
1.20871941031873e-14
1.18399406735598e-14
1.15751002463134e-14
1.12837352271241e-14
1.09598420396764e-14
1.05991333735713e-14
1.01938818521237e-14
9.73849474429961e-15
9.23315836769274e-15
8.72261100661069e-15
8.51717170211596e-15
8.56377318779644e-15
8.57559069652391e-15
8.55932113529322e-15
8.52182061171085e-15
8.47033262987973e-15
8.40942659094514e-15
8.34202600799745e-15
8.27079106362352e-15
8.19786015027944e-15
8.1250803836438e-15
8.05448537322093e-15
7.99031261576281e-15
7.94688540405169e-15
6.62122922340542e-14
6.5350111552739e-14
6.44880946619649e-14
6.36285675380409e-14
6.27713412463697e-14
6.19163584518751e-14
6.10636139106818e-14
6.02130970524161e-14
5.9364772815427e-14
5.85186194585146e-14
5.76746408431983e-14
5.68328317340951e-14
5.59931685560533e-14
5.51556419904918e-14
5.43202632955094e-14
5.34870313317519e-14
5.26559279967463e-14
5.18269512585474e-14
5.10001177075365e-14
5.01754286784622e-14
4.93528694937097e-14
4.85324435135514e-14
4.77141708358222e-14
4.68980542497404e-14
4.60840824920677e-14
4.5272265138307e-14
4.44626272418982e-14
4.36551733423939e-14
4.2849896514325e-14
4.20468167530965e-14
4.12459683597316e-14
4.04473596856397e-14
3.96509920766893e-14
3.88569045635621e-14
3.80651485142552e-14
3.7275738883333e-14
3.64886922532774e-14
3.57040830983817e-14
3.49219919608972e-14
3.41424438360328e-14
3.33654856173215e-14
3.25912596112755e-14
3.1819897568373e-14
3.10514377564869e-14
3.02859859248561e-14
2.95238140652503e-14
2.87651302649675e-14
2.80099706246401e-14
2.72585459215649e-14
2.65113643893782e-14
2.57687423942595e-14
2.50307263365737e-14
2.42977383489047e-14
2.35706053600674e-14
2.28497740373252e-14
2.21353916674683e-14
2.1428275826577e-14
2.07297089529963e-14
2.0040345450127e-14
1.93609150761673e-14
1.86944319217232e-14
1.80460497666742e-14
1.74203020839195e-14
1.68224096568351e-14
1.6260661854767e-14
1.57401484086965e-14
1.52588445243485e-14
1.48158369340765e-14
1.44140794917858e-14
1.40512932326501e-14
1.37205866275123e-14
1.34186543929393e-14
1.31425618039075e-14
1.28852817566287e-14
1.26391962123806e-14
1.23975276773656e-14
1.21527628081322e-14
1.18976793841213e-14
1.16246668226958e-14
1.13247581321357e-14
1.09919007573444e-14
1.06217410443452e-14
1.02066443779596e-14
9.74110985371863e-15
9.22529968055761e-15
8.70545037757525e-15
8.49832157236139e-15
8.54431153276881e-15
8.55633575870509e-15
8.5408451539938e-15
8.50449097240059e-15
8.45420973848676e-15
8.39451383643463e-15
8.32834783921945e-15
8.25834681804908e-15
8.18663760330372e-15
8.1150846579357e-15
8.04583005163201e-15
7.98326385619459e-15
7.94122811917359e-15
6.8387291357947e-14
6.7475848155143e-14
6.65647482753745e-14
6.56568043617048e-14
6.47517430699584e-14
6.38495032403994e-14
6.29500786380302e-14
6.20534581124991e-14
6.1159605262602e-14
6.02684971702998e-14
5.93801374157574e-14
5.84945204790781e-14
5.76116218953403e-14
5.67314316989172e-14
5.58539612225641e-14
5.49792092401352e-14
5.41071569817957e-14
5.32378020440213e-14
5.23711612948398e-14
5.15072360835566e-14
5.06460111870304e-14
4.97874897687578e-14
4.89316923040046e-14
4.80786216350292e-14
4.72282660591628e-14
4.63806351140457e-14
4.5535754336103e-14
4.46936283433151e-14
4.38542498490498e-14
4.30176390423316e-14
4.21838309076126e-14
4.13528339269048e-14
4.05246492195822e-14
3.96993163800884e-14
3.88768877898176e-14
3.80573786090902e-14
3.72408054018987e-14
3.64272438234107e-14
3.56167759459445e-14
3.48094270174005e-14
3.4005244257363e-14
3.32043722508548e-14
3.24069450841751e-14
3.16130011916622e-14
3.08226472278477e-14
3.00361593912668e-14
2.92537490777282e-14
2.84754517737737e-14
2.7701479957823e-14
2.69323491557113e-14
2.61683799149553e-14
2.54096169026691e-14
2.46564855001292e-14
2.39098229731115e-14
2.31700801303874e-14
2.24374015525854e-14
2.17126106390534e-14
2.09970029108913e-14
2.02912352252117e-14
1.95960351766788e-14
1.89144415101899e-14
1.82516601432543e-14
1.76122587218415e-14
1.70014865240677e-14
1.64276917110243e-14
1.58959851790604e-14
1.54042667904196e-14
1.49515316230799e-14
1.4540686802559e-14
1.4169372182617e-14
1.38305580811861e-14
1.35208160871434e-14
1.32371152419938e-14
1.29723217091817e-14
1.27187037594461e-14
1.24693871715823e-14
1.22167799658243e-14
1.19536088930957e-14
1.1672235482517e-14
1.13636727393376e-14
1.10218716222095e-14
1.06425094200795e-14
1.0217999002447e-14
9.74290953880276e-15
9.21760139759832e-15
8.68966606894868e-15
8.48121039583623e-15
8.52605906093974e-15
8.53778128675799e-15
8.52255585280036e-15
8.48680376541618e-15
8.43731503255291e-15
8.37851916282582e-15
8.31331787821891e-15
8.24431073481537e-15
8.17359613999362e-15
8.10301692009558e-15
8.03467463265322e-15
7.97275931947963e-15
7.93082511354995e-15
7.05644514254644e-14
6.95894566188765e-14
6.86291601657386e-14
6.76726375040593e-14
6.67195820661856e-14
6.57699260042111e-14
6.48236622915964e-14
6.38807796261552e-14
6.29412408294029e-14
6.20050211406267e-14
6.10721233468918e-14
6.01425424393327e-14
5.92162534462891e-14
5.82932451956988e-14
5.73735284641288e-14
5.64571027077048e-14
5.55439488692757e-14
5.46340637457628e-14
5.37274640460536e-14
5.28241516488467e-14
5.19241110401709e-14
5.10273445539946e-14
5.01338733470239e-14
4.92437009122199e-14
4.83568141440801e-14
4.74732222943364e-14
4.65929520077538e-14
4.57160081229832e-14
4.48423831940384e-14
4.39720968814955e-14
4.31051849292963e-14
4.22416564019816e-14
4.13815120716332e-14
4.05247913082534e-14
3.96715478546705e-14
3.88217974941434e-14
3.79755561381168e-14
3.71329004304617e-14
3.62939139401862e-14
3.54586224957669e-14
3.46270729929123e-14
3.37994115325827e-14
3.29757750638316e-14
3.21562027015437e-14
3.13408007518849e-14
3.05298478797956e-14
2.97235602384844e-14
2.89219739770071e-14
2.81252997661761e-14
2.73340589138942e-14
2.65485794789649e-14
2.57689045713989e-14
2.49954578263932e-14
2.42290852701737e-14
2.34702471142319e-14
2.27190840433885e-14
2.19764178566379e-14
2.12435578431918e-14
2.05211673752319e-14
1.98099644051095e-14
1.91129919195622e-14
1.84354971250655e-14
1.77820876935459e-14
1.71580236796003e-14
1.65716967921693e-14
1.60282746326701e-14
1.55256095597214e-14
1.50625844686409e-14
1.46420570804824e-14
1.42616265205264e-14
1.39141351225903e-14
1.35960249770591e-14
1.33041929615569e-14
1.30314245411878e-14
1.27698889314796e-14
1.25126354914375e-14
1.22520174850407e-14
1.19807269170433e-14
1.16911228591251e-14
1.13742181480011e-14
1.10239713783128e-14
1.0636113527291e-14
1.02031221520929e-14
9.71965346555002e-15
9.18679617191597e-15
8.65504394222464e-15
8.44588633078837e-15
8.48714580752154e-15
8.4983828503597e-15
8.48327330129407e-15
8.447895760704e-15
8.39893140298724e-15
8.34075003534224e-15
8.27621828634933e-15
8.20790697635992e-15
8.13789119617932e-15
8.06798950416908e-15
8.00023584766785e-15
7.9383672067876e-15
7.89177137846597e-15
)
;


// ************************************************************************* //
