/*--------------------------------*- C++ -*----------------------------------*\
| =========                 |                                                 |
| \\      /  F ield         | foam-extend: Open Source CFD                    |
|  \\    /   O peration     | Version:     4.1-20200408                       |
|   \\  /    A nd           | Web:         http://www.foam-extend.org         |
|    \\/     M anipulation  |                                                 |
\*---------------------------------------------------------------------------*/
FoamFile
{
    version     2.0;
    format      ascii;
    class       volScalarField;
    location    "0.0150000";
    object      J;
}
// * * * * * * * * * * * * * * * * * * * * * * * * * * * * * * * * * * * * * //

dimensions      [0 0 0 0 0 0 0];

internalField   nonuniform List<scalar> 
1952
(
1.00152
1.00151
1.0015
1.00148
1.00146
1.00144
1.00142
1.0014
1.00138
1.00137
1.00136
1.00138
1.00143
1.00144
1.00137
1.00152
1.00145
1.00144
1.00143
1.00141
1.00139
1.00137
1.00135
1.00133
1.0013
1.00128
1.00127
1.00128
1.00132
1.00132
1.00122
1.00145
1.00139
1.00138
1.00137
1.00135
1.00133
1.00131
1.00128
1.00126
1.00124
1.00121
1.00119
1.00121
1.00125
1.00126
1.00118
1.00139
1.00133
1.00132
1.00131
1.00129
1.00127
1.00125
1.00122
1.0012
1.00118
1.00115
1.00113
1.00115
1.0012
1.00122
1.00116
1.00133
1.00128
1.00127
1.00126
1.00124
1.00122
1.0012
1.00117
1.00115
1.00112
1.0011
1.00109
1.00111
1.00116
1.00119
1.00114
1.00128
1.00123
1.00122
1.00121
1.00119
1.00117
1.00115
1.00112
1.0011
1.00108
1.00106
1.00105
1.00107
1.00113
1.00117
1.00114
1.00123
1.00119
1.00118
1.00117
1.00115
1.00113
1.00111
1.00108
1.00106
1.00104
1.00102
1.00101
1.00104
1.00111
1.00116
1.00113
1.00119
1.00115
1.00114
1.00113
1.00111
1.00109
1.00107
1.00105
1.00103
1.00101
1.00099
1.00099
1.00102
1.00109
1.00115
1.00113
1.00115
1.00111
1.0011
1.00109
1.00107
1.00106
1.00103
1.00101
1.001
1.00098
1.00096
1.00096
1.001
1.00107
1.00115
1.00113
1.00111
1.00108
1.00107
1.00106
1.00104
1.00103
1.001
1.00099
1.00097
1.00095
1.00094
1.00094
1.00098
1.00106
1.00114
1.00113
1.00108
1.00105
1.00104
1.00103
1.00101
1.001
1.00098
1.00096
1.00094
1.00093
1.00092
1.00092
1.00096
1.00105
1.00114
1.00113
1.00105
1.00102
1.00101
1.001
1.00099
1.00097
1.00095
1.00094
1.00092
1.00091
1.0009
1.00091
1.00095
1.00104
1.00113
1.00113
1.00102
1.001
1.00099
1.00098
1.00097
1.00095
1.00093
1.00092
1.0009
1.00089
1.00088
1.00089
1.00094
1.00103
1.00113
1.00113
1.001
1.00097
1.00097
1.00096
1.00094
1.00093
1.00091
1.0009
1.00089
1.00088
1.00087
1.00088
1.00093
1.00102
1.00112
1.00113
1.00097
1.00095
1.00095
1.00094
1.00093
1.00091
1.00089
1.00088
1.00087
1.00086
1.00086
1.00087
1.00091
1.00101
1.00112
1.00112
1.00095
1.00093
1.00093
1.00092
1.00091
1.0009
1.00088
1.00087
1.00085
1.00085
1.00084
1.00085
1.0009
1.001
1.00111
1.00112
1.00093
1.00092
1.00091
1.0009
1.00089
1.00088
1.00086
1.00085
1.00084
1.00083
1.00083
1.00084
1.00089
1.00099
1.00111
1.00112
1.00092
1.0009
1.00089
1.00089
1.00087
1.00086
1.00085
1.00084
1.00082
1.00082
1.00082
1.00083
1.00088
1.00097
1.0011
1.00111
1.0009
1.00088
1.00088
1.00087
1.00086
1.00085
1.00083
1.00082
1.00081
1.00081
1.0008
1.00082
1.00087
1.00096
1.0011
1.0011
1.00088
1.00087
1.00086
1.00086
1.00084
1.00084
1.00082
1.00081
1.0008
1.0008
1.00079
1.00081
1.00085
1.00095
1.00109
1.0011
1.00087
1.00085
1.00085
1.00084
1.00083
1.00082
1.00081
1.0008
1.00079
1.00078
1.00078
1.00079
1.00084
1.00094
1.00108
1.00109
1.00085
1.00084
1.00083
1.00083
1.00082
1.00081
1.00079
1.00078
1.00077
1.00077
1.00077
1.00078
1.00083
1.00093
1.00108
1.00109
1.00084
1.00083
1.00082
1.00082
1.0008
1.0008
1.00078
1.00077
1.00076
1.00076
1.00075
1.00077
1.00082
1.00092
1.00107
1.00108
1.00083
1.00081
1.00081
1.0008
1.00079
1.00078
1.00077
1.00076
1.00075
1.00075
1.00074
1.00076
1.00081
1.00091
1.00106
1.00107
1.00081
1.0008
1.00079
1.00079
1.00078
1.00077
1.00076
1.00075
1.00074
1.00074
1.00073
1.00075
1.0008
1.0009
1.00105
1.00107
1.0008
1.00079
1.00078
1.00078
1.00077
1.00076
1.00074
1.00074
1.00073
1.00072
1.00072
1.00074
1.00078
1.00089
1.00104
1.00106
1.00079
1.00077
1.00077
1.00076
1.00075
1.00075
1.00073
1.00072
1.00071
1.00071
1.00071
1.00073
1.00077
1.00088
1.00104
1.00106
1.00077
1.00076
1.00075
1.00075
1.00074
1.00073
1.00072
1.00071
1.0007
1.0007
1.0007
1.00072
1.00076
1.00087
1.00103
1.00105
1.00076
1.00075
1.00074
1.00074
1.00073
1.00072
1.00071
1.0007
1.00069
1.00069
1.00069
1.00071
1.00076
1.00086
1.00102
1.00105
1.00075
1.00073
1.00073
1.00072
1.00071
1.00071
1.0007
1.00069
1.00068
1.00068
1.00068
1.0007
1.00075
1.00085
1.00102
1.00105
1.00073
1.00072
1.00071
1.00071
1.0007
1.00069
1.00068
1.00068
1.00067
1.00067
1.00067
1.00069
1.00074
1.00084
1.00101
1.00104
1.00072
1.0007
1.0007
1.00069
1.00068
1.00068
1.00067
1.00066
1.00066
1.00066
1.00066
1.00068
1.00073
1.00083
1.001
1.00104
1.0007
1.00068
1.00068
1.00068
1.00067
1.00066
1.00066
1.00065
1.00065
1.00065
1.00065
1.00067
1.00072
1.00083
1.001
1.00104
1.00068
1.00066
1.00066
1.00066
1.00065
1.00065
1.00064
1.00064
1.00063
1.00064
1.00064
1.00066
1.00072
1.00082
1.00099
1.00105
1.00066
1.00064
1.00064
1.00064
1.00063
1.00063
1.00062
1.00062
1.00062
1.00062
1.00063
1.00065
1.00071
1.00082
1.00099
1.00105
1.00064
1.00062
1.00062
1.00061
1.00061
1.00061
1.0006
1.00061
1.00061
1.00061
1.00062
1.00065
1.00071
1.00081
1.00099
1.00106
1.00062
1.00059
1.00059
1.00059
1.00058
1.00059
1.00058
1.00059
1.00059
1.0006
1.00061
1.00064
1.0007
1.00081
1.00099
1.00106
1.00059
1.00056
1.00056
1.00056
1.00056
1.00056
1.00056
1.00056
1.00057
1.00058
1.00059
1.00063
1.00069
1.00081
1.00099
1.00107
1.00056
1.00052
1.00052
1.00052
1.00052
1.00053
1.00053
1.00054
1.00055
1.00056
1.00058
1.00062
1.00069
1.00081
1.001
1.00109
1.00052
1.00048
1.00048
1.00048
1.00049
1.00049
1.0005
1.00051
1.00052
1.00054
1.00056
1.00061
1.00068
1.0008
1.001
1.0011
1.00048
1.00043
1.00043
1.00044
1.00044
1.00045
1.00046
1.00048
1.00049
1.00052
1.00054
1.00059
1.00068
1.0008
1.00101
1.00112
1.00043
1.00037
1.00037
1.00038
1.00039
1.0004
1.00041
1.00043
1.00045
1.00048
1.00052
1.00058
1.00067
1.0008
1.00102
1.00114
1.00037
1.0003
1.00031
1.00032
1.00032
1.00034
1.00036
1.00038
1.00041
1.00045
1.00049
1.00055
1.00065
1.0008
1.00102
1.00117
1.0003
1.00023
1.00023
1.00024
1.00025
1.00027
1.00029
1.00032
1.00035
1.0004
1.00045
1.00053
1.00063
1.00079
1.00103
1.0012
1.00022
1.00013
1.00014
1.00015
1.00017
1.00019
1.00021
1.00025
1.00029
1.00034
1.0004
1.00049
1.00061
1.00078
1.00104
1.00122
1.00013
1.00003
1.00004
1.00005
1.00007
1.00009
1.00012
1.00016
1.00021
1.00026
1.00033
1.00044
1.00057
1.00076
1.00104
1.00125
1.00003
0.999911
0.999919
0.999933
0.99995
0.999977
1.00001
1.00005
1.00011
1.00017
1.00025
1.00037
1.00052
1.00073
1.00103
1.00128
0.999908
0.999777
0.999785
0.999799
0.999817
0.999845
0.999879
0.99993
0.999987
1.00006
1.00015
1.00028
1.00045
1.00069
1.00101
1.0013
0.999773
0.999627
0.999634
0.999649
0.999667
0.999695
0.99973
0.999782
0.999843
0.999923
1.00002
1.00017
1.00035
1.00061
1.00097
1.00132
0.999623
0.99946
0.999466
0.99948
0.999496
0.999523
0.999557
0.999609
0.999671
0.999754
0.999857
1.00001
1.00021
1.0005
1.0009
1.00131
0.999457
0.999277
0.999282
0.999293
0.999308
0.999331
0.999362
0.99941
0.99947
0.999551
0.999655
0.999815
1.00003
1.00034
1.00076
1.00125
0.999275
0.999082
0.999084
0.999092
0.999102
0.99912
0.999144
0.999185
0.999237
0.999309
0.999407
0.999562
0.999773
1.00009
1.00053
1.00105
0.99908
0.998875
0.998875
0.998877
0.998881
0.99889
0.998905
0.998933
0.998973
0.99903
0.999113
0.999251
0.999447
0.999752
1.00018
1.00072
0.998875
0.998661
0.998657
0.998653
0.998649
0.998647
0.998649
0.998661
0.998681
0.998715
0.998773
0.998881
0.999046
0.999315
0.999712
1.00022
0.998662
0.998444
0.998435
0.998425
0.998411
0.998396
0.998382
0.998372
0.998369
0.998371
0.998395
0.998457
0.998575
0.998784
0.99912
0.999558
0.998447
0.998229
0.998216
0.998198
0.998173
0.998143
0.998111
0.998077
0.998044
0.998009
0.997989
0.997994
0.998048
0.998173
0.998419
0.99875
0.998234
0.998024
0.998006
0.997979
0.997943
0.997898
0.997846
0.997786
0.997722
0.997643
0.997574
0.997511
0.997487
0.997504
0.997634
0.997815
0.99803
0.997833
0.997811
0.997776
0.99773
0.997669
0.997598
0.997512
0.997415
0.997294
0.99717
0.997033
0.996919
0.996807
0.996787
0.996753
0.997842
0.997664
0.997638
0.997596
0.99754
0.997466
0.997378
0.997268
0.997142
0.996981
0.996807
0.996596
0.996391
0.996142
0.995953
0.99566
0.997674
0.997522
0.997492
0.997446
0.997382
0.997298
0.997195
0.997068
0.996919
0.996725
0.99651
0.996239
0.995954
0.995588
0.995243
0.994687
0.997533
0.99741
0.997377
0.997328
0.997259
0.997169
0.997058
0.99692
0.996758
0.99655
0.996315
0.996009
0.99567
0.9952
0.994688
0.993793
0.997421
0.997334
0.997302
0.997252
0.997182
0.997091
0.996979
0.996839
0.996676
0.996467
0.996229
0.995912
0.995561
0.995074
0.994543
0.993694
0.997345
0.99729
0.997257
0.997209
0.997139
0.997049
0.996936
0.996794
0.996624
0.996406
0.996156
0.995829
0.995483
0.995026
0.994592
0.993987
0.997301
0.997235
0.9972
0.99715
0.997077
0.996984
0.996865
0.996715
0.99653
0.996301
0.996041
0.995718
0.995406
0.995063
0.9948
0.994416
0.997247
0.997135
0.997095
0.99704
0.99696
0.996858
0.996728
0.996563
0.996362
0.996134
0.995893
0.995652
0.995452
0.995266
0.995132
0.994907
0.997148
0.996964
0.996917
0.996853
0.996761
0.996649
0.996512
0.996355
0.996188
0.996025
0.995881
0.995755
0.995671
0.995581
0.995512
0.995395
0.996979
0.996729
0.996687
0.996631
0.996553
0.996464
0.99637
0.996275
0.996189
0.99611
0.99606
0.996009
0.995978
0.995917
0.995891
0.995849
0.996744
0.996619
0.996595
0.996567
0.996528
0.996488
0.996445
0.996408
0.996374
0.996343
0.996322
0.996284
0.996266
0.996244
0.996252
0.996262
0.996627
0.996721
0.996707
0.996694
0.996675
0.996657
0.996639
0.99662
0.996595
0.996573
0.996559
0.996548
0.996552
0.996557
0.99659
0.996636
0.996725
0.996885
0.996874
0.996864
0.996849
0.996836
0.996822
0.996811
0.996802
0.996797
0.996799
0.996804
0.996823
0.99685
0.996899
0.996968
0.996887
0.997035
0.997028
0.997025
0.997018
0.997014
0.99701
0.997009
0.99701
0.997016
0.997028
0.997047
0.997078
0.99712
0.997181
0.997264
0.997036
0.997197
0.997194
0.997193
0.997191
0.997193
0.997194
0.9972
0.997209
0.997225
0.997246
0.997276
0.997315
0.997368
0.997435
0.997526
0.997198
0.997357
0.997356
0.997359
0.997361
0.997367
0.997374
0.997387
0.997402
0.997424
0.997451
0.997489
0.997534
0.997593
0.997664
0.997759
0.997356
0.997516
0.997517
0.997522
0.997527
0.997537
0.997548
0.997565
0.997585
0.997612
0.997644
0.997686
0.997735
0.997797
0.99787
0.997965
0.997515
0.997671
0.997674
0.99768
0.997688
0.9977
0.997715
0.997735
0.997758
0.997788
0.997823
0.997868
0.997918
0.997982
0.998054
0.998147
0.99767
0.997822
0.997825
0.997833
0.997843
0.997856
0.997873
0.997895
0.99792
0.997953
0.99799
0.998036
0.998086
0.99815
0.998219
0.998309
0.99782
0.997966
0.997971
0.997979
0.99799
0.998005
0.998023
0.998046
0.998073
0.998106
0.998143
0.998189
0.998239
0.998301
0.998367
0.998453
0.997964
0.998104
0.998109
0.998118
0.99813
0.998145
0.998164
0.998188
0.998215
0.998248
0.998285
0.99833
0.998378
0.998438
0.9985
0.998581
0.998102
0.998235
0.998241
0.998249
0.998262
0.998277
0.998296
0.99832
0.998347
0.99838
0.998416
0.998459
0.998505
0.998561
0.99862
0.998695
0.998233
0.998358
0.998365
0.998373
0.998386
0.998401
0.99842
0.998444
0.99847
0.998502
0.998536
0.998578
0.998621
0.998674
0.998728
0.998798
0.998356
0.998475
0.998481
0.99849
0.998502
0.998517
0.998536
0.998558
0.998584
0.998614
0.998647
0.998686
0.998727
0.998776
0.998826
0.998891
0.998473
0.998584
0.998591
0.998599
0.998611
0.998626
0.998643
0.998665
0.998689
0.998718
0.998749
0.998785
0.998823
0.998868
0.998915
0.998975
0.998583
0.998687
0.998693
0.998701
0.998713
0.998727
0.998744
0.998764
0.998787
0.998814
0.998843
0.998877
0.998912
0.998953
0.998996
0.999051
0.998685
0.998783
0.998789
0.998797
0.998807
0.998821
0.998837
0.998856
0.998877
0.998902
0.998929
0.998961
0.998993
0.999031
0.99907
0.999121
0.998781
0.998873
0.998879
0.998886
0.998896
0.998908
0.998923
0.998941
0.998961
0.998985
0.999009
0.999038
0.999068
0.999103
0.999138
0.999185
0.998871
0.998957
0.998962
0.998969
0.998978
0.99899
0.999004
0.99902
0.999039
0.99906
0.999083
0.99911
0.999137
0.999168
0.999201
0.999244
0.998955
0.999035
0.99904
0.999046
0.999055
0.999066
0.999079
0.999094
0.999111
0.999131
0.999152
0.999176
0.999201
0.999229
0.999259
0.999298
0.999033
0.999108
0.999113
0.999118
0.999127
0.999136
0.999149
0.999163
0.999178
0.999196
0.999215
0.999237
0.99926
0.999286
0.999313
0.999349
0.999107
0.999176
0.99918
0.999186
0.999193
0.999202
0.999214
0.999226
0.999241
0.999257
0.999275
0.999295
0.999315
0.999339
0.999363
0.999396
0.999175
0.99924
0.999244
0.999248
0.999256
0.999264
0.999274
0.999286
0.999299
0.999314
0.99933
0.999348
0.999366
0.999388
0.99941
0.999441
0.999238
0.999299
0.999303
0.999307
0.999314
0.999321
0.999331
0.999341
0.999353
0.999367
0.999381
0.999398
0.999415
0.999434
0.999455
0.999483
0.999298
0.999355
0.999358
0.999362
0.999368
0.999375
0.999384
0.999393
0.999404
0.999417
0.99943
0.999445
0.99946
0.999478
0.999496
0.999522
0.999354
0.999407
0.99941
0.999413
0.999419
0.999425
0.999433
0.999442
0.999452
0.999463
0.999475
0.999489
0.999502
0.999518
0.999536
0.99956
0.999406
0.999455
0.999458
0.999462
0.999467
0.999472
0.99948
0.999488
0.999497
0.999507
0.999518
0.99953
0.999542
0.999557
0.999573
0.999595
0.999455
0.999501
0.999504
0.999507
0.999511
0.999517
0.999523
0.99953
0.999539
0.999548
0.999558
0.999569
0.99958
0.999593
0.999608
0.999629
0.9995
0.999544
0.999547
0.999549
0.999554
0.999558
0.999564
0.999571
0.999578
0.999587
0.999596
0.999606
0.999616
0.999628
0.999641
0.999661
0.999543
0.999584
0.999587
0.999589
0.999593
0.999597
0.999603
0.999609
0.999616
0.999623
0.999631
0.999641
0.99965
0.999661
0.999673
0.999692
0.999584
0.999623
0.999625
0.999627
0.99963
0.999634
0.999639
0.999645
0.999651
0.999658
0.999665
0.999674
0.999682
0.999692
0.999704
0.999721
0.999622
0.999658
0.99966
0.999662
0.999666
0.999669
0.999674
0.999679
0.999685
0.999691
0.999698
0.999705
0.999713
0.999722
0.999733
0.99975
0.999658
0.999692
0.999694
0.999696
0.999699
0.999702
0.999706
0.999711
0.999716
0.999722
0.999728
0.999735
0.999742
0.999751
0.999761
0.999777
0.999692
0.999724
0.999726
0.999728
0.99973
0.999733
0.999737
0.999742
0.999746
0.999752
0.999757
0.999764
0.99977
0.999778
0.999788
0.999803
0.999724
0.999754
0.999756
0.999758
0.99976
0.999763
0.999767
0.999771
0.999775
0.99978
0.999785
0.999791
0.999797
0.999805
0.999813
0.999828
0.999754
0.999783
0.999784
0.999786
0.999788
0.999791
0.999794
0.999798
0.999802
0.999807
0.999812
0.999817
0.999823
0.99983
0.999838
0.999852
0.999783
0.99981
0.999811
0.999813
0.999815
0.999818
0.999821
0.999824
0.999828
0.999832
0.999837
0.999842
0.999847
0.999854
0.999862
0.999875
0.99981
0.999835
0.999837
0.999838
0.99984
0.999843
0.999846
0.999849
0.999852
0.999857
0.999861
0.999866
0.999871
0.999877
0.999885
0.999898
0.999835
0.99986
0.999861
0.999862
0.999864
0.999866
0.999869
0.999872
0.999876
0.99988
0.999884
0.999889
0.999893
0.999899
0.999907
0.999919
0.999859
0.999882
0.999883
0.999885
0.999887
0.999889
0.999892
0.999895
0.999898
0.999902
0.999906
0.99991
0.999915
0.999921
0.999928
0.99994
0.999882
0.999904
0.999905
0.999906
0.999908
0.99991
0.999913
0.999916
0.999919
0.999923
0.999927
0.999931
0.999936
0.999941
0.999949
0.999961
0.999903
0.999924
0.999925
0.999926
0.999928
0.99993
0.999933
0.999936
0.999939
0.999943
0.999947
0.999951
0.999956
0.999961
0.999968
0.999981
0.999923
0.999942
0.999944
0.999945
0.999947
0.999949
0.999951
0.999954
0.999958
0.999961
0.999965
0.99997
0.999975
0.99998
0.999988
1
0.999942
0.99996
0.999961
0.999962
0.999964
0.999966
0.999969
0.999972
0.999975
0.999979
0.999983
0.999988
0.999993
0.999998
1.00001
1.00002
0.99996
0.999976
0.999977
0.999978
0.99998
0.999982
0.999985
0.999988
0.999992
0.999996
1
1
1.00001
1.00002
1.00002
1.00004
0.999976
0.999991
0.999992
0.999993
0.999995
0.999997
1
1
1.00001
1.00001
1.00002
1.00002
1.00003
1.00003
1.00004
1.00005
0.999991
1
1.00001
1.00001
1.00001
1.00001
1.00001
1.00002
1.00002
1.00003
1.00003
1.00004
1.00004
1.00005
1.00006
1.00007
1
1.00002
1.00002
1.00002
1.00002
1.00002
1.00003
1.00003
1.00003
1.00004
1.00004
1.00005
1.00005
1.00006
1.00007
1.00009
1.00002
1.00003
1.00003
1.00003
1.00003
1.00003
1.00004
1.00004
1.00004
1.00005
1.00005
1.00006
1.00007
1.00008
1.00009
1.0001
1.00003
1.00004
1.00004
1.00004
1.00004
1.00004
1.00005
1.00005
1.00005
1.00006
1.00006
1.00007
1.00008
1.00009
1.0001
1.00012
1.00004
1.00005
1.00005
1.00005
1.00005
1.00005
1.00005
1.00006
1.00006
1.00007
1.00007
1.00008
1.00009
1.0001
1.00011
1.00013
1.00004
1.00005
1.00005
1.00005
1.00006
1.00006
1.00006
1.00006
1.00007
1.00007
1.00008
1.00008
1.00009
1.0001
1.00012
1.00014
1.00005
1.00006
1.00006
1.00006
1.00006
1.00006
1.00007
1.00007
1.00007
1.00008
1.00008
1.00009
1.0001
1.00011
1.00012
1.00015
1.00006
1.00006
1.00006
1.00006
1.00007
1.00007
1.00007
1.00007
1.00008
1.00008
1.00008
1.00009
1.0001
1.0001
1.00011
1.00013
1.00006
1.00006
1.00006
1.00007
1.00007
1.00007
1.00007
1.00007
1.00008
1.00008
1.00008
1.00009
1.00009
1.0001
1.00011
1.00012
1.00006
)
;

boundaryField
{
    wireUpstream
    {
        type            calculated;
        value           nonuniform List<scalar> 
16
(
1.00007
1.00007
1.00007
1.00007
1.00007
1.00007
1.00007
1.00008
1.00008
1.00008
1.00009
1.00009
1.0001
1.0001
1.0001
1.00007
)
;
    }
    wireDownstream
    {
        type            calculated;
        value           nonuniform List<scalar> 
16
(
1.00151
1.00151
1.0015
1.00148
1.00146
1.00144
1.00142
1.0014
1.00138
1.00136
1.00135
1.00138
1.00143
1.00144
1.00146
1.00152
)
;
    }
    wireTopContact
    {
        type            calculated;
        value           nonuniform List<scalar> 
122
(
1.00122
1.00118
1.00116
1.00114
1.00114
1.00113
1.00113
1.00113
1.00113
1.00113
1.00113
1.00112
1.00112
1.00112
1.00111
1.00111
1.0011
1.0011
1.00109
1.00109
1.00108
1.00107
1.00107
1.00106
1.00106
1.00105
1.00105
1.00104
1.00104
1.00104
1.00104
1.00104
1.00104
1.00105
1.00105
1.00106
1.00107
1.00108
1.0011
1.00112
1.00114
1.00117
1.00119
1.00122
1.00125
1.00128
1.0013
1.00131
1.0013
1.00124
1.00104
1.0007
1.0002
0.999536
0.998728
0.997801
0.996738
0.99565
0.994714
0.993757
0.993683
0.993984
0.994421
0.994915
0.995401
0.995853
0.996264
0.996636
0.996968
0.997264
0.997526
0.997759
0.997965
0.998148
0.99831
0.998454
0.998582
0.998697
0.9988
0.998893
0.998977
0.999053
0.999123
0.999187
0.999245
0.9993
0.999351
0.999398
0.999443
0.999484
0.999524
0.999561
0.999597
0.99963
0.999662
0.999693
0.999723
0.999751
0.999778
0.999804
0.999829
0.999853
0.999876
0.999899
0.99992
0.999941
0.999962
0.999981
1
1.00002
1.00004
1.00005
1.00007
1.00009
1.0001
1.00012
1.00013
1.00014
1.00015
1.00013
1.00012
1.0013
)
;
    }
    front
    {
        type            wedge;
    }
    back
    {
        type            wedge;
    }
}


// ************************************************************************* //
