/*--------------------------------*- C++ -*----------------------------------*\
| =========                 |                                                 |
| \\      /  F ield         | OpenFOAM: The Open Source CFD Toolbox           |
|  \\    /   O peration     | Version:  4.1                                   |
|   \\  /    A nd           | Web:      www.OpenFOAM.org                      |
|    \\/     M anipulation  |                                                 |
\*---------------------------------------------------------------------------*/
FoamFile
{
    version     2.0;
    format      ascii;
    class       volScalarField;
    location    "0.000100";
    object      epsilon;
}
// * * * * * * * * * * * * * * * * * * * * * * * * * * * * * * * * * * * * * //

dimensions      [0 2 -3 0 0 0 0];

internalField   nonuniform List<scalar> 
6144
(
15.163569
15.542796
15.878244
16.167098
16.424711
16.651265
16.843265
16.995634
17.104815
17.170498
17.19351
17.170755
17.101503
16.985478
16.824869
16.625026
16.389603
16.122451
15.829167
15.516508
15.196838
14.948654
15.284516
15.962963
16.72894
17.50987
18.249107
18.912933
19.481611
19.939253
20.283379
20.521738
20.658929
20.693115
20.624584
20.45323
20.177646
19.79607
19.309995
18.732395
18.061483
17.312971
16.516268
15.728283
15.030613
14.541984
14.492084
14.532711
15.219322
15.675229
16.040456
16.347307
16.616796
16.852715
17.052319
17.211076
17.326526
17.398933
17.427608
17.410791
17.347572
17.237338
17.082556
16.8874
16.65492
16.388425
16.093371
15.775783
15.443268
15.133867
15.07637
15.273897
15.566103
15.902096
16.246392
16.57204
16.862899
17.106277
17.299462
17.441004
17.521379
17.537222
17.497067
17.404748
17.257381
17.052078
16.791886
16.484765
16.135706
15.758188
15.374295
15.021996
14.747256
14.596841
14.648336
14.744313
15.284872
15.773595
16.171783
16.505741
16.797509
17.052496
17.268065
17.439619
17.565109
17.644817
17.677277
17.66053
17.592946
17.475095
17.310212
17.102347
16.855168
16.572335
16.259838
15.923825
15.569145
15.219494
14.991215
15.006698
15.127145
15.307566
15.516197
15.728432
15.927062
16.101074
16.245864
16.356895
16.426343
16.452121
16.438296
16.388314
16.29932
16.16908
16.00071
15.801452
15.573364
15.329554
15.088866
14.877905
14.727674
14.661487
14.70446
14.811714
15.301041
15.815093
16.241183
16.598889
16.910047
17.181295
17.410107
17.592115
17.72512
17.809089
17.842238
17.822111
17.745512
17.614322
17.433933
17.210267
16.94744
16.649901
16.323997
15.976161
15.61059
15.243517
14.929876
14.853729
14.901216
15.023004
15.184855
15.361257
15.534591
15.693849
15.832769
15.94458
16.023085
16.066628
16.076342
16.054174
15.996217
15.902719
15.776816
15.625154
15.449337
15.259212
15.071638
14.906872
14.788258
14.73185
14.755953
14.8314
15.290273
15.816038
16.255679
16.623188
16.93921
17.211696
17.440052
17.619954
17.74865
17.82553
17.850173
17.822071
17.738609
17.601316
17.416111
17.188962
16.924013
16.627087
16.304112
15.960921
15.602717
15.238807
14.900357
14.745447
14.764821
14.874289
15.035042
15.218665
15.404889
15.581581
15.741456
15.874069
15.974171
16.040717
16.073559
16.073569
16.037709
15.966274
15.861892
15.730409
15.573975
15.398159
15.217928
15.050787
14.916778
14.830217
14.816635
14.844449
15.249823
15.765743
16.196045
16.553152
16.856954
17.116006
17.330808
17.497656
17.613162
17.67764
17.693186
17.660632
17.579388
17.449618
17.274864
17.060031
16.809389
16.528142
16.22191
15.895695
15.554181
15.204178
14.866267
14.65571
14.688871
14.834474
15.043095
15.280403
15.520392
15.748787
15.957073
16.133321
16.272233
16.371357
16.431124
16.452191
16.433437
16.372764
16.272146
16.136323
15.966468
15.766785
15.550702
15.335252
15.140187
14.981327
14.895151
14.853402
15.152912
15.639387
16.042909
16.377978
16.663331
16.90632
17.107484
17.263286
17.37033
17.429601
17.44344
17.412355
17.337177
17.217503
17.056097
16.857187
16.624182
16.361224
16.07391
15.767289
15.445433
15.114136
14.788046
14.552863
14.67943
14.957209
15.309558
15.69009
16.064375
16.413602
16.72655
16.995777
17.214708
17.379112
17.487246
17.538177
17.531905
17.464771
17.337841
17.154458
16.914852
16.6232
16.292171
15.939719
15.58906
15.262534
15.012634
14.836186
14.997381
15.437222
15.812909
16.132803
16.410905
16.651197
16.852281
17.009581
17.119716
17.182425
17.19864
17.169414
17.098625
16.983926
16.827751
16.634265
16.406716
16.148963
15.866978
15.566905
15.253134
14.931561
14.617183
14.413443
14.885342
15.604696
16.403158
17.200644
17.95636
18.647584
19.250988
19.761413
20.175657
20.487309
20.690679
20.7875
20.774999
20.649906
20.411137
20.060741
19.595673
19.019491
18.345928
17.59656
16.804889
16.012865
15.295732
14.756986
15.220354
15.678328
16.04645
16.356435
16.627441
16.863665
17.063851
17.223751
17.340412
17.413785
17.443023
17.426228
17.363114
17.252394
17.096119
16.898867
16.663479
16.394266
16.096971
15.777264
15.443754
15.133086
15.073119
15.272938
15.567599
15.899479
16.237228
16.556693
16.836867
17.067791
17.244057
17.373689
17.449482
17.464034
17.421269
17.326508
17.18127
16.985035
16.739729
16.449401
16.114397
15.747781
15.37289
15.025704
14.752735
14.601138
14.649093
14.744689
15.148747
15.625019
16.001544
16.316022
16.59005
16.829548
17.032595
17.194653
17.313728
17.390683
17.424218
17.412612
17.355467
17.251413
17.102477
16.912719
16.684862
16.423158
16.133573
15.821669
15.493526
15.163774
14.895621
14.734597
14.64518
14.60468
14.596565
14.606374
14.623921
14.646055
14.668793
14.683449
14.681633
14.663018
14.632459
14.59329
14.545167
14.487255
14.424766
14.36222
14.301076
14.250523
14.224873
14.242472
14.319309
14.45354
14.646557
14.770987
15.155781
15.646804
16.047648
16.382837
16.674109
16.928187
17.14281
17.313287
17.438276
17.518955
17.553581
17.539726
17.477085
17.365297
17.20653
17.005033
16.764508
16.489915
16.187843
15.864351
15.52495
15.179698
14.857336
14.602957
14.405393
14.254631
14.141298
14.054862
13.988678
13.942172
13.910786
13.884335
13.858592
13.835517
13.816587
13.802934
13.793985
13.789339
13.793392
13.809899
13.839851
13.890006
13.969112
14.085537
14.243984
14.430807
14.637539
14.771426
15.162845
15.671976
16.097581
16.454273
16.762909
17.030927
17.256493
17.43496
17.565022
17.647921
17.681373
17.662199
17.59039
17.466139
17.29212
17.07379
16.81662
16.52697
16.211962
15.878034
15.530744
15.178693
14.839207
14.553358
14.321093
14.136118
13.99061
13.87574
13.785738
13.720124
13.673706
13.636865
13.607837
13.588632
13.578908
13.578847
13.587163
13.604309
13.633655
13.677884
13.73793
13.819482
13.929042
14.070224
14.244256
14.435133
14.638348
14.771706
15.163891
15.682723
16.120806
16.486374
16.799022
17.067665
17.29214
17.467961
17.593225
17.668341
17.692047
17.663556
17.583566
17.45207
17.271608
17.047679
16.787051
16.497081
16.184197
15.854124
15.512461
15.165972
14.825777
14.523694
14.278944
14.085763
13.936106
13.820957
13.733531
13.672237
13.631457
13.601137
13.580075
13.569993
13.569949
13.579616
13.597623
13.624625
13.66324
13.715092
13.781632
13.867794
13.978556
14.116241
14.281828
14.459617
14.65377
14.778405
15.156475
15.669959
16.100458
16.456036
16.756142
17.010825
17.221519
17.384309
17.496376
17.558334
17.571745
17.537511
17.456429
17.32871
17.155954
16.942809
16.69535
16.41994
16.122269
15.807109
15.479365
15.144887
14.812196
14.505813
14.268508
14.092518
13.967215
13.881
13.823952
13.791968
13.778489
13.773436
13.774482
13.78277
13.796733
13.815962
13.838603
13.865092
13.89782
13.937165
13.985595
14.048777
14.130826
14.235715
14.367019
14.512062
14.68543
14.78812
15.141162
15.641502
16.05384
16.392193
16.676594
16.916729
17.114532
17.266472
17.369526
17.425378
17.436636
17.403045
17.325094
17.203636
17.04067
16.840463
16.607238
16.345598
16.061292
15.759126
15.44335
15.119445
14.795848
14.501013
14.322721
14.232045
14.205443
14.22164
14.263465
14.321877
14.387189
14.451219
14.511982
14.565829
14.610312
14.645495
14.667584
14.675831
14.672918
14.658467
14.636389
14.614266
14.597494
14.594814
14.616716
14.660442
14.754583
14.800604
15.151342
15.637516
16.040529
16.375118
16.66
16.902665
17.103731
17.259591
17.36757
17.428262
17.443015
17.412052
17.337286
17.21863
17.058291
16.860273
16.627873
16.364643
16.076493
15.768803
15.445783
15.113458
14.787346
14.556986
14.686184
14.959517
15.303468
15.671284
16.034024
16.380089
16.688731
16.956056
17.180518
17.351971
17.46848
17.530075
17.532157
17.470351
17.347612
17.163743
16.92091
16.628016
16.295524
15.941195
15.589939
15.263412
15.012638
14.835807
15.28605
15.777125
16.17953
16.519622
16.814963
17.071491
17.289273
17.464315
17.593651
17.676263
17.710033
17.693121
17.624618
17.50434
17.335114
17.122298
16.869665
16.581825
16.264936
15.924429
15.568774
15.218457
14.988184
15.005945
15.129733
15.30746
15.510601
15.717546
15.908822
16.073868
16.204303
16.309679
16.376411
16.399146
16.380681
16.327243
16.240964
16.120024
15.96468
15.780368
15.567543
15.335757
15.102276
14.89322
14.741573
14.66952
14.70689
14.813303
15.156005
15.647839
16.05004
16.386965
16.679554
16.934675
17.150288
17.32181
17.447482
17.527966
17.561858
17.547068
17.483064
17.369943
17.21024
17.008301
16.767385
16.492118
16.189156
15.86461
15.524365
15.179072
14.856924
14.602974
14.406274
14.255205
14.140702
14.053715
13.986949
13.938892
13.90723
13.883483
13.858917
13.834422
13.814073
13.800389
13.793134
13.791312
13.799384
13.820046
13.852557
13.902919
13.979949
14.093619
14.250132
14.433916
14.6396
14.772781
15.148557
15.654419
16.080684
16.438549
16.748738
17.018661
17.246142
17.426292
17.557598
17.641572
17.676713
17.659865
17.590774
17.470058
17.300076
17.085772
16.831507
16.542775
16.226936
15.89101
15.541586
15.186353
14.839197
14.523796
14.244737
14.001422
13.792288
13.613558
13.463264
13.343462
13.251576
13.178819
13.121914
13.083582
13.065516
13.068111
13.090624
13.133152
13.19921
13.289585
13.403553
13.544704
13.716294
13.919335
14.150041
14.385098
14.615133
14.760003
15.154692
15.679823
16.131409
16.511628
16.84025
17.125353
17.365261
17.554893
17.692587
17.780089
17.81521
17.793827
17.716466
17.584297
17.399142
17.16695
16.894336
16.588671
16.257877
15.909411
15.550225
15.187702
14.8319
14.499164
14.197179
13.927778
13.691153
13.48567
13.310813
13.168745
13.056693
12.967969
12.901827
12.860526
12.844755
12.854543
12.888565
12.9475
13.033959
13.14721
13.286574
13.455002
13.653475
13.880023
14.128162
14.372335
14.605584
14.755875
15.157242
15.690597
16.15234
16.540105
16.872213
17.158092
17.397675
17.586096
17.721061
17.802682
17.829216
17.799439
17.714793
17.576128
17.384881
17.146901
16.870423
16.563951
16.234638
15.889237
15.534149
15.176093
14.822984
14.48675
14.180719
13.908371
13.669933
13.463947
13.289287
13.147489
13.035685
12.947808
12.88347
12.844546
12.8314
12.843866
12.881122
12.944264
13.03514
13.152014
13.294854
13.466909
13.66787
13.894548
14.140557
14.380438
14.612512
14.761436
15.153711
15.678756
16.128719
16.503332
16.820686
17.091109
17.316007
17.491298
17.614138
17.683797
17.700611
17.665769
17.580664
17.445918
17.262643
17.036207
16.774135
16.483653
16.171036
15.842008
15.501992
15.156994
14.814293
14.485818
14.192573
13.938952
13.723662
13.543333
13.394328
13.276425
13.186531
13.118211
13.070363
13.043652
13.037979
13.052631
13.086874
13.142566
13.221603
13.321523
13.443731
13.593086
13.76922
13.969852
14.191403
14.411209
14.634684
14.77175
15.156913
15.670454
16.101013
16.456693
16.756745
17.011245
17.221979
17.385292
17.498328
17.561182
17.575148
17.54051
17.458602
17.330538
17.157998
16.945542
16.698597
16.422726
16.124112
15.808314
15.48007
15.145146
14.812518
14.507782
14.271796
14.095288
13.9688
13.880234
13.819883
13.783075
13.764139
13.757558
13.760916
13.77126
13.787237
13.808056
13.831535
13.859242
13.89424
13.934227
13.982441
14.046775
14.129785
14.23501
14.366597
14.51176
14.684701
14.787812
15.249617
15.765471
16.19547
16.552326
16.855898
17.114881
17.330024
17.497529
17.614451
17.681034
17.697623
17.663977
17.582655
17.454461
17.281186
17.067201
16.816927
16.534654
16.226636
15.898792
15.555895
15.204574
14.866644
14.662305
14.699817
14.841738
15.041607
15.266527
15.495899
15.719804
15.918964
16.09106
16.23535
16.344732
16.415616
16.44687
16.435239
16.379298
16.283761
16.147297
15.973109
15.772492
15.55514
15.337162
15.141149
14.982013
14.894087
14.851977
15.302635
15.818535
16.250751
16.614915
16.930282
17.203245
17.433469
17.617887
17.753639
17.838264
17.869233
17.845777
17.767214
17.634523
17.451827
17.225245
16.959161
16.658145
16.328578
15.976051
15.609118
15.242572
14.928068
14.85394
14.905017
15.023849
15.182462
15.356237
15.525826
15.678593
15.807672
15.913997
15.990262
16.030222
16.033721
16.004037
15.947508
15.863766
15.752341
15.616007
15.455894
15.279629
15.098841
14.933278
14.809402
14.743825
14.761157
14.834158
15.162948
15.672406
16.098819
16.456486
16.765808
17.033777
17.258031
17.436267
17.566504
17.647692
17.678312
17.656269
17.581215
17.455107
17.281878
17.066531
16.81278
16.525201
16.210714
15.876472
15.52898
15.17788
14.839035
14.553811
14.322621
14.137174
13.990915
13.876198
13.787051
13.72042
13.673041
13.640265
13.613574
13.593519
13.583153
13.583966
13.596034
13.618659
13.654728
13.704502
13.767137
13.848185
13.953302
14.088302
14.256603
14.441085
14.642305
14.774568
15.154546
15.679274
16.130029
16.509178
16.836182
17.118859
17.356072
17.544723
17.68234
17.768822
17.802576
17.779929
17.700683
17.567341
17.383964
17.156158
16.888148
16.585485
16.255908
15.907904
15.549182
15.18713
14.831955
14.499458
14.197742
13.928294
13.691336
13.486137
13.312112
13.169863
13.057873
12.971097
12.906068
12.86508
12.849823
12.861388
12.898252
12.960218
13.04937
13.164378
13.303962
13.471225
13.667229
13.890259
14.13464
14.375528
14.608376
14.758416
15.161558
15.70579
16.181183
16.582719
16.929133
17.228559
17.480611
17.681848
17.829154
17.922479
17.959501
17.935146
17.849607
17.705876
17.508333
17.263413
16.976205
16.654763
16.307525
15.943437
15.570821
15.197362
14.831088
14.48297
14.160587
13.866609
13.602899
13.370521
13.170064
13.003087
12.868427
12.762865
12.68537
12.637636
12.620886
12.63637
12.682048
12.758047
12.865969
13.003112
13.167795
13.362352
13.585828
13.833854
14.098635
14.353548
14.591952
14.749744
15.16286
15.710889
16.191676
16.598073
16.947208
17.247932
17.501313
17.704208
17.852785
17.944749
17.977591
17.948747
17.858894
17.710874
17.508829
17.259035
16.968067
16.645243
16.298359
15.935616
15.564617
15.192748
14.827671
14.478891
14.155705
13.861108
13.597167
13.364629
13.16328
12.995406
12.859734
12.752951
12.674238
12.625603
12.608104
12.622021
12.666783
12.743129
12.852237
12.990808
13.157827
13.355841
13.582723
13.833111
14.099315
14.354699
14.593286
14.751015
15.157203
15.690366
16.152546
16.54127
16.873267
17.157604
17.396387
17.587128
17.725879
17.808925
17.834773
17.80332
17.715443
17.573707
17.380642
17.142733
16.867317
16.561738
16.233018
15.888279
15.533783
15.176069
14.823186
14.48776
14.182248
13.909968
13.671496
13.465803
13.290803
13.147097
13.032934
12.944178
12.879105
12.839553
12.82589
12.836944
12.872963
12.936332
13.028561
13.146199
13.289896
13.463923
13.666642
13.893872
14.140097
14.380118
14.612089
14.761218
15.164258
15.682985
16.121565
16.488071
16.800619
17.068005
17.292163
17.470462
17.599208
17.675422
17.698278
17.666523
17.582962
17.449566
17.268788
17.046032
16.787084
16.497595
16.184326
15.854116
15.512633
15.166169
14.826254
14.526012
14.283474
14.089979
13.93921
13.822303
13.732931
13.6679
13.621049
13.589423
13.57018
13.561779
13.563297
13.572979
13.590273
13.618077
13.659276
13.711389
13.777673
13.865679
13.977563
14.115385
14.281149
14.459052
14.652835
14.778032
15.290189
15.815878
16.255746
16.623711
16.939537
17.211606
17.440412
17.62269
17.755057
17.834475
17.859176
17.826843
17.742463
17.60764
17.424441
17.197683
16.932339
16.633603
16.308266
15.962833
15.603897
15.239287
14.901096
14.752073
14.776499
14.883009
15.035396
15.207499
15.386499
15.558261
15.70992
15.840562
15.946982
16.02348
16.066114
16.071295
16.039222
15.970766
15.870544
15.737932
15.577726
15.401826
15.220856
15.051594
14.916769
14.829978
14.815222
14.843362
15.291257
15.816273
16.25795
16.627715
16.94502
17.216665
17.443503
17.624271
17.756506
17.836233
17.860924
17.830604
17.745469
17.607833
17.422783
17.195442
16.930008
16.631409
16.306048
15.960302
15.601311
15.23818
14.900003
14.746365
14.767564
14.874163
15.032696
15.214827
15.399319
15.570485
15.720985
15.844294
15.937507
15.999961
16.026835
16.019423
15.9857
15.925267
15.837366
15.721971
15.581157
15.420711
15.248516
15.080703
14.94102
14.845475
14.823475
14.847619
15.16319
15.679252
16.113188
16.474545
16.783528
17.047581
17.26646
17.440611
17.567677
17.644357
17.668889
17.639771
17.557312
17.425445
17.249007
17.032052
16.77821
16.492263
16.180775
15.851219
15.51046
15.165217
14.825794
14.524368
14.280251
14.085806
13.935025
13.820171
13.734129
13.671705
13.62991
13.601932
13.584124
13.576134
13.578659
13.591939
13.616585
13.651793
13.698559
13.755455
13.823234
13.907576
14.012016
14.140772
14.297179
14.466736
14.658642
14.781591
15.15622
15.685901
16.141358
16.522222
16.847648
17.12573
17.357636
17.543187
17.679221
17.762869
17.791997
17.763507
17.677857
17.539732
17.354195
17.125943
16.858855
16.557997
16.230801
15.886145
15.532162
15.175357
14.823056
14.487117
14.18095
13.907871
13.668422
13.462713
13.289322
13.14728
13.035822
12.950918
12.889819
12.854386
12.845228
12.863255
12.907408
12.976843
13.071961
13.190517
13.332072
13.500049
13.694584
13.913585
14.151917
14.385316
14.617024
14.76494
15.162173
15.707655
16.183673
16.584719
16.928943
17.223806
17.47126
17.671258
17.819695
17.913224
17.948763
17.92162
17.832112
17.685403
17.487458
17.244236
16.960233
16.641438
16.29597
15.933462
15.563058
15.192164
14.827678
14.478973
14.155733
13.860918
13.596612
13.364351
13.163818
12.995522
12.859684
12.754246
12.678316
12.633131
12.619207
12.637862
12.687499
12.767785
12.87936
13.018721
13.18429
13.378843
13.601016
13.846298
14.107493
14.358327
14.596314
14.754221
15.161302
15.704934
16.180499
16.583069
16.929116
17.225791
17.476126
17.68058
17.834364
17.931759
17.969083
17.942985
17.853316
17.70532
17.50526
17.259025
16.972229
16.651885
16.305653
15.942278
15.570295
15.197327
14.831244
14.483724
14.162108
13.86853
13.605284
13.373271
13.171348
13.001351
12.863333
12.754608
12.674622
12.625454
12.60797
12.622229
12.667631
12.744757
12.85484
12.993926
13.160721
13.358277
13.584358
13.833515
14.098559
14.353444
14.591754
14.749633
15.154486
15.679137
16.131464
16.513498
16.841602
17.122809
17.360466
17.555049
17.701885
17.794232
17.82889
17.804309
17.720192
17.581104
17.391596
17.157696
16.885578
16.581662
16.2528
15.906259
15.548905
15.187591
14.832111
14.500093
14.199001
13.929746
13.693215
13.488474
13.312987
13.167311
13.050161
12.957928
12.888761
12.845007
12.827489
12.835004
12.867727
12.92806
13.017646
13.133041
13.275019
13.448056
13.650748
13.879096
14.127753
14.372011
14.6051
14.755601
15.163137
15.672086
16.098647
16.457
16.765149
17.030138
17.254458
17.437358
17.574607
17.660712
17.693303
17.669919
17.592178
17.463113
17.286642
17.067742
16.811414
16.522926
16.208767
15.875792
15.530042
15.178772
14.839716
14.555245
14.324933
14.139813
13.993085
13.877001
13.786545
13.716652
13.663112
13.623573
13.594884
13.576099
13.567012
13.566239
13.573722
13.592417
13.624702
13.669004
13.729868
13.81476
13.92682
14.069009
14.243494
14.434497
14.637592
14.771422
15.301034
15.815106
16.242025
16.600894
16.911544
17.180755
17.409252
17.594769
17.73384
17.821386
17.854631
17.83021
17.751254
17.620417
17.44066
17.216412
16.952197
16.65301
16.325589
15.976294
15.610803
15.243862
14.930904
14.859396
14.911314
15.02913
15.181979
15.347404
15.517169
15.671377
15.803397
15.913147
15.997168
16.050489
16.069352
16.050674
15.99519
15.904143
15.781172
15.62635
15.448123
15.25885
15.071519
14.905866
14.787166
14.730854
14.754829
14.830871
15.249528
15.761888
16.189826
16.545535
16.848055
17.104109
17.316146
17.483944
17.605359
17.676831
17.696588
17.664727
17.582198
17.451613
17.277144
17.062323
16.810872
16.528288
16.22117
15.89468
15.553346
15.203775
14.866104
14.656713
14.688889
14.83098
15.036854
15.2722
15.511125
15.73372
15.932701
16.099004
16.228552
16.318542
16.368561
16.379976
16.364173
16.3148
16.230735
16.111223
15.959341
15.778818
15.575075
15.362649
15.164487
14.998306
14.903359
14.856586
15.15505
15.663504
16.086529
16.434846
16.729221
16.977946
17.182931
17.344518
17.4604
17.527991
17.546449
17.514636
17.433351
17.306655
17.1384
16.931312
16.688756
16.416154
16.11948
15.804747
15.47786
15.144349
14.812173
14.506145
14.268202
14.089939
13.962594
13.876161
13.820127
13.786464
13.771979
13.768948
13.772741
13.784586
13.802221
13.824485
13.853568
13.888442
13.928208
13.971932
14.023295
14.086666
14.164065
14.260964
14.383044
14.519776
14.690728
14.791152
15.151956
15.671057
16.11145
16.476144
16.78525
17.04737
17.264541
17.436698
17.561122
17.635703
17.658725
17.627674
17.543847
17.41183
17.235659
17.018795
16.764734
16.478852
16.167904
15.839306
15.500237
15.156429
14.814355
14.485796
14.191674
13.936457
13.719581
13.539578
13.392207
13.274406
13.185234
13.119912
13.075608
13.053997
13.053608
13.073697
13.114573
13.176096
13.258247
13.359666
13.482004
13.627906
13.797052
13.989565
14.203128
14.416289
14.639878
14.774754
15.156003
15.685211
16.14074
16.522397
16.848421
17.126077
17.357803
17.54417
17.681386
17.766483
17.796513
17.767917
17.681819
17.54312
17.356795
17.127576
16.85955
16.558193
16.230913
15.886174
15.532168
15.175478
14.823242
14.48768
14.18162
13.90851
13.669459
13.464496
13.290601
13.146616
13.032562
12.944798
12.882887
12.84863
12.840103
12.857156
12.899636
12.967696
13.062207
13.181376
13.32506
13.495625
13.692004
13.911999
14.150965
14.384867
14.616859
14.764921
15.154193
15.678059
16.129001
16.509555
16.836472
17.116247
17.351855
17.544181
17.688744
17.780188
17.814826
17.790194
17.706675
17.568989
17.382666
17.152434
16.883092
16.580682
16.252254
15.90554
15.548204
15.187168
14.83218
14.500124
14.198794
13.929323
13.692961
13.489029
13.31395
13.167619
13.049911
12.956934
12.888554
12.84706
12.831524
12.841619
12.877431
12.940127
13.030222
13.147018
13.290355
13.462797
13.66318
13.888432
14.133665
14.374953
14.608108
14.758342
15.148457
15.65404
16.081124
16.440663
16.750189
17.016356
17.241856
17.426745
17.566821
17.65605
17.691048
17.671055
17.59595
17.468705
17.293964
17.076379
16.820918
16.533381
16.219797
15.886439
15.539699
15.186287
14.8394
14.524338
14.245618
14.00206
13.793188
13.616038
13.465846
13.341881
13.24246
13.163681
13.103525
13.063165
13.043456
13.044007
13.065118
13.109185
13.176962
13.268586
13.386134
13.533516
13.711029
13.91733
14.149267
14.384657
14.61476
14.759835
15.156351
15.647422
16.049327
16.385997
16.67659
16.927822
17.1414
17.315966
17.447685
17.531756
17.565906
17.5496
17.482505
17.365908
17.203625
16.999734
16.758263
16.484161
16.183148
15.861037
15.523726
15.179815
14.857861
14.604399
14.407978
14.256818
14.142392
14.055712
13.989318
13.938253
13.898358
13.86667
13.840244
13.817854
13.799748
13.785918
13.776191
13.772929
13.778538
13.794108
13.825516
13.880245
13.963966
14.083206
14.243033
14.430341
14.637069
14.7713
15.285282
15.774221
16.173489
16.508785
16.80036
17.05371
17.268863
17.44341
17.573831
17.656048
17.688731
17.670691
17.601107
17.481338
17.31475
17.105338
16.856468
16.572128
16.259059
15.922833
15.568865
15.219837
14.992181
15.011125
15.133809
15.309553
15.508388
15.713354
15.908592
16.077846
16.216399
16.324081
16.397857
16.434018
16.429585
16.384055
16.296105
16.166785
15.999335
15.795583
15.566119
15.323883
15.08476
14.874976
14.725932
14.660508
14.703869
14.811495
15.152015
15.635389
16.035308
16.367568
16.650756
16.890369
17.088142
17.243827
17.354697
17.418572
17.435702
17.406869
17.33299
17.214
17.052995
16.85429
16.621679
16.359708
16.07333
15.76692
15.445055
15.113841
14.787767
14.553085
14.675455
14.948641
15.297626
15.675589
16.049535
16.395802
16.70457
16.966076
17.174268
17.324274
17.416076
17.450276
17.432361
17.367678
17.255917
17.090954
16.875838
16.611982
16.303145
15.961817
15.612589
15.280768
15.022601
14.841531
15.139837
15.63632
16.042818
16.375526
16.655712
16.891465
17.084895
17.235591
17.340733
17.39964
17.414037
17.383928
17.308909
17.189611
17.028948
16.831382
16.6008
16.341851
16.059326
15.757801
15.442484
15.119122
14.795748
14.500302
14.319558
14.225714
14.196711
14.212838
14.256817
14.316326
14.384638
14.453315
14.516184
14.571482
14.615983
14.64722
14.665965
14.67702
14.678744
14.66995
14.656721
14.642733
14.628734
14.622723
14.636418
14.671017
14.761008
14.804679
15.155382
15.66417
16.087058
16.434915
16.728953
16.977619
17.182768
17.343437
17.456592
17.522158
17.540695
17.511206
17.433436
17.308455
17.139734
16.932408
16.690438
16.418476
16.122005
15.806857
15.479148
15.144913
14.812582
14.506879
14.268592
14.089672
13.961792
13.87455
13.817353
13.783629
13.768816
13.765196
13.769978
13.782569
13.799515
13.819495
13.842774
13.871029
13.905367
13.948763
14.00365
14.07265
14.155455
14.25653
14.381033
14.519007
14.690671
14.791624
15.163349
15.679112
16.112641
16.473828
16.782238
17.045158
17.264496
17.439613
17.565742
17.641625
17.666731
17.639627
17.559988
17.429534
17.252499
17.034733
16.780662
16.494706
16.183107
15.85319
15.51185
15.165906
14.826315
14.525204
14.280653
14.085485
13.934524
13.819599
13.732231
13.668319
13.624039
13.593218
13.574703
13.568923
13.571203
13.581604
13.601034
13.6304
13.670696
13.72553
13.797984
13.890013
14.001454
14.135199
14.29441
14.465607
14.65838
14.781833
15.163031
15.671776
16.097632
16.455265
16.763199
17.028046
17.251678
17.433113
17.567046
17.650237
17.681145
17.658991
17.583033
17.45532
17.280344
17.063344
16.809025
16.522046
16.208568
15.875679
15.529531
15.17846
14.839665
14.554467
14.322487
14.136548
13.990656
13.876878
13.787145
13.718006
13.665646
13.62536
13.59603
13.577696
13.567187
13.565433
13.573549
13.592758
13.624123
13.670329
13.737562
13.827762
13.942032
14.082804
14.253797
14.439955
14.641987
14.774658
15.156462
15.647968
16.050289
16.387411
16.678759
16.931094
17.145512
17.319746
17.449904
17.532512
17.565636
17.549361
17.482774
17.366291
17.203525
16.999149
16.757833
16.484102
16.183294
15.861426
15.523781
15.179604
14.857685
14.603519
14.405738
14.254236
14.140877
14.055635
13.989896
13.939734
13.900577
13.868577
13.841968
13.818435
13.79776
13.781602
13.770451
13.765949
13.76994
13.786186
13.821643
13.880573
13.967999
14.088405
14.247913
14.433209
14.639325
14.772807
15.150362
15.626265
16.003171
16.318058
16.591264
16.829097
17.031583
17.195819
17.318673
17.39723
17.430354
17.418201
17.359068
17.252227
17.100776
16.908782
16.680036
16.418771
16.130107
15.819541
15.493107
15.164686
14.896946
14.736035
14.646128
14.605255
14.597715
14.608228
14.625422
14.644766
14.659714
14.666795
14.664473
14.64906
14.620678
14.580941
14.529823
14.469101
14.401985
14.334317
14.274943
14.23035
14.213088
14.237281
14.317555
14.453351
14.646522
14.771238
15.221601
15.677272
16.043252
16.351034
16.620532
16.855484
17.054479
17.214876
17.333798
17.407889
17.43675
17.420001
17.355714
17.243999
17.088002
16.891367
16.657237
16.389546
16.094069
15.776261
15.444113
15.135326
15.078147
15.277422
15.57025
15.89945
16.23508
16.556473
16.845319
17.08636
17.274436
17.412495
17.497857
17.52626
17.495627
17.404968
17.25446
17.044777
16.78013
16.468494
16.119147
15.744
15.363714
15.016341
14.745169
14.596768
14.64873
14.744919
14.996488
15.433955
15.806663
16.124154
16.400497
16.638023
16.836347
16.993297
17.105195
17.170431
17.18989
17.164804
17.09685
16.982518
16.824621
16.629463
16.401968
16.146028
15.865871
15.566334
15.252583
14.931187
14.616769
14.411207
14.874823
15.591952
16.398584
17.206471
17.970649
18.662272
19.26453
19.7672
20.163783
20.446835
20.61909
20.682826
20.637845
20.487428
20.23535
19.886718
19.447221
18.914759
18.294057
17.583946
16.814783
16.029449
15.306644
14.761812
15.150623
15.634335
16.033408
16.364298
16.646458
16.885721
17.083299
17.237499
17.345289
17.406824
17.423856
17.397267
17.326335
17.208992
17.048387
16.850584
16.619777
16.359621
16.074141
15.767624
15.44509
15.113199
14.787029
14.552921
14.674842
14.948165
15.297081
15.674512
16.049617
16.402291
16.719193
16.988917
17.206877
17.367744
17.468495
17.50684
17.482768
17.400883
17.263626
17.077044
16.851878
16.591952
16.289536
15.954244
15.608447
15.277843
15.019885
14.839922
15.249116
15.761816
16.186855
16.539125
16.839378
17.094225
17.305157
17.470416
17.587243
17.656362
17.677123
17.649528
17.571525
17.442582
17.268742
17.056562
16.809066
16.530252
16.224854
15.898094
15.555583
15.204606
14.866426
14.657585
14.687437
14.828965
15.033387
15.267084
15.506313
15.736511
15.945845
16.121121
16.26138
16.361947
16.418761
16.431122
16.400074
16.328531
16.219786
16.078227
15.919015
15.746349
15.553394
15.350499
15.157752
14.994036
14.901128
14.856872
15.290617
15.814388
16.251845
16.617783
16.932132
17.20095
17.426189
17.606786
17.738036
17.816887
17.842523
17.815451
17.733414
17.597487
17.413565
17.188367
16.926189
16.630693
16.307114
15.962676
15.603866
15.239401
14.900723
14.747259
14.764736
14.87055
15.027901
15.208481
15.393394
15.571251
15.730899
15.862713
15.966043
16.034803
16.062969
16.052607
16.006512
15.927039
15.816151
15.681143
15.531497
15.380745
15.221802
15.065865
14.933224
14.841122
14.821526
14.847562
15.301889
15.816466
16.243984
16.604229
16.916305
17.185673
17.413725
17.598884
17.736098
17.8207
17.85137
17.828803
17.750432
17.618006
17.436754
17.212304
16.949468
16.652039
16.325447
15.976518
15.610808
15.243808
14.929839
14.854651
14.900759
15.019605
15.178966
15.352922
15.525412
15.685256
15.822403
15.932551
16.014255
16.059864
16.064496
16.032201
15.964976
15.86459
15.730819
15.576416
15.406065
15.236249
15.070831
14.918348
14.802013
14.740288
14.759782
14.833989
15.286097
15.776428
16.177266
16.51429
16.807522
17.062213
17.27814
17.452301
17.581243
17.66171
17.692536
17.674058
17.604642
17.483797
17.315418
17.104288
16.855199
16.571766