/*--------------------------------*- C++ -*----------------------------------*\
  =========                 |
  \\      /  F ield         | OpenFOAM: The Open Source CFD Toolbox
   \\    /   O peration     | Website:  https://openfoam.org
    \\  /    A nd           | Version:  8
     \\/     M anipulation  |
\*---------------------------------------------------------------------------*/
FoamFile
{
    version     2.0;
    format      ascii;
    class       volVectorField;
    location    "0.0635000";
    object      U_0;
}
// * * * * * * * * * * * * * * * * * * * * * * * * * * * * * * * * * * * * * //

dimensions      [0 1 -1 0 0 0 0];

internalField   nonuniform List<vector> 
600
(
(0.59872052226888 0.000660296858283716 -4.12301043344718e-19)
(0.599667510984132 0.000416041650834791 4.1494278586005e-19)
(0.59967370174288 0.000357387058486897 -1.05089891520101e-18)
(0.599661004638536 0.000400250475902464 -2.44501740457143e-18)
(0.599507069561904 0.000424109888569325 -3.08690115524527e-18)
(0.599271434631669 0.000435725858584603 -1.05332126304627e-17)
(0.599005402607588 0.000443185699948247 3.76526967749663e-18)
(0.598728552480102 0.000449376469697403 -1.96874522054146e-17)
(0.598446249654953 0.000454257966616054 8.88503728644168e-19)
(0.598158274127759 0.000458612385191893 1.51135120224693e-17)
(0.597863225887934 0.00046316851521264 1.28426894602829e-17)
(0.597561136954216 0.000468003566785896 -1.62586219478592e-17)
(0.597252089990421 0.000472551515852099 -3.41184856568523e-17)
(0.596934869498194 0.0004766952204054 -8.15986767078121e-17)
(0.596608514381998 0.000480693107013269 -1.82135786526301e-17)
(0.596273475943635 0.000484785354162161 -2.64023436181422e-17)
(0.595930212141895 0.000488840448123295 4.0798787343824e-17)
(0.595578112186581 0.000492486534080919 -9.74081267785737e-17)
(0.595216097765988 0.000496223193767443 2.52243476517472e-17)
(0.59484294505363 0.000500400750207769 6.4702405022286e-18)
(0.594459209444366 0.000504814339470454 5.12566579802475e-18)
(0.594064920700683 0.000508738947521872 7.57585850705728e-18)
(0.593658527625557 0.000512574957821628 7.02049028306597e-17)
(0.593239506928585 0.000516840923897488 6.54831405646115e-17)
(0.592808116781898 0.000521802462457991 -1.37817306349687e-16)
(0.592364728340383 0.000526236247070114 1.71322338507371e-17)
(0.591907937267182 0.000530740923924578 -6.64033819960565e-17)
(0.591435600133221 0.000535817470781571 -1.65820869078621e-16)
(0.590949007771025 0.000541679581485986 6.32212837518651e-17)
(0.590449768799964 0.000547609515577001 8.49577846809471e-18)
(0.58993530734575 0.000553748667292472 -1.10378854933053e-16)
(0.589402840622107 0.000560417762408664 -1.2068951567536e-16)
(0.588854277931564 0.000568254085328702 -3.58263298200641e-17)
(0.588292422380639 0.000577103806954249 -3.10874233279338e-17)
(0.587714761455313 0.000586114092880007 -5.23100556622593e-17)
(0.587117934859519 0.000595967912043879 -6.89527513834425e-17)
(0.586503229904709 0.000608259175346204 1.28515564108623e-16)
(0.585874112850633 0.000623656315494266 5.92769987029993e-17)
(0.585230337253279 0.000638516243372995 -1.06047388025947e-16)
(0.584569403544127 0.000654233932887091 -7.49226086304009e-17)
(0.583892080168635 0.000674187311828808 -8.81421840105091e-17)
(0.583203656903815 0.000702460988845182 1.72850037873708e-17)
(0.582506059467455 0.00072916376119401 -1.28383583857422e-17)
(0.581797130360087 0.000756921797926582 -6.87978645528566e-17)
(0.581078357161271 0.000790873743958544 -8.17863824162558e-17)
(0.580363196049081 0.000840894956817969 -9.20851190245531e-17)
(0.579658050023781 0.000890206491718502 2.56240691755087e-16)
(0.578959208547586 0.000940439378693603 2.14749121260047e-16)
(0.578271337437558 0.00099958641260018 -6.14614401869385e-17)
(0.577614359888863 0.00108494303461047 -1.47487091346298e-17)
(0.57700577547537 0.00117478146913398 -5.91969045020427e-17)
(0.576451720343114 0.00126438520923323 5.49848044479334e-17)
(0.575962222605503 0.00136673781290569 5.79543634549986e-17)
(0.575570967943637 0.00150909377744817 3.20648691996324e-17)
(0.575318350198836 0.001671622839229 5.26459108934055e-17)
(0.575227789653451 0.00183067226502108 -1.33363498685143e-16)
(0.575347124207298 0.0020191792592061 2.33393396444011e-17)
(0.575868852366285 0.00232343801812248 9.45963753897408e-17)
(0.577184314013217 0.00281428856667796 1.22723190075985e-16)
(0.579617704958719 0.00336931706617693 1.74922219512107e-16)
(0.583373069832548 0.00402588934572742 -8.14381994657404e-17)
(0.588764883797636 0.00493690860449378 1.76340757122361e-16)
(0.595941467449039 0.00603465564546235 2.0726352998916e-16)
(0.604895810409957 0.00683027348667835 2.92871375768097e-17)
(0.615688386615299 0.00751888074191483 4.15580155448005e-17)
(0.628396820659287 0.00826400234771352 -5.06711758454504e-17)
(0.643053552322272 0.00893450957902617 5.46754484034611e-17)
(0.659537404669155 0.00916986873476007 -4.83487169114659e-17)
(0.677723694587416 0.00921750852671909 1.28628146279442e-16)
(0.697391109866902 0.00919979011623565 2.73798749233954e-17)
(0.718319893383193 0.00888918468890653 2.43386006412266e-16)
(0.740246604176797 0.0082929456731585 8.60531538140072e-17)
(0.762891965918867 0.00756619057112368 1.27224830667474e-16)
(0.786021514915835 0.00670855978850032 2.20438593337392e-16)
(0.809452669337259 0.00570289716559831 -2.43946772576695e-16)
(0.833049132677456 0.004672337616165 -5.20342989282395e-17)
(0.856690107320077 0.00362512182904133 -1.81938111519644e-17)
(0.880311412485347 0.00253345321312226 4.16253245012705e-16)
(0.903921235907729 0.00156212753842932 1.40280832526249e-16)
(0.927701068787967 0.000676863219186537 2.21164996534106e-16)
(0.951663499939862 -0.000106138559960266 8.26245133227279e-17)
(0.976093256771473 -0.000744600853039723 -3.20473512937165e-19)
(1.00087159999875 -0.00122491753057267 6.08007743794734e-17)
(1.0277866829999 -0.001669977032556 -1.2215204741182e-16)
(1.05387253028458 -0.00152116192893519 -1.51944301641745e-16)
(1.0859030646725 -0.00185634011316374 -1.24097310541002e-16)
(1.09981089613599 -9.53206942052622e-06 1.26564503353275e-16)
(1.09771917321622 -0.000112303184207645 1.4198150706175e-16)
(1.1011209992522 0.000301054995142066 2.87163984499253e-17)
(1.1013455470741 0.000333489227493375 4.52076004239262e-18)
(1.10250007759416 0.000464367346994224 -4.10824979645107e-18)
(1.10268726738337 0.000562393155666697 -3.01017035672136e-17)
(1.10274212501307 0.000574540822956716 -7.62189057336205e-19)
(1.10260599072162 0.000579313786905893 8.78745718868636e-17)
(1.10234578965683 0.000580082274718494 -7.72912199079534e-18)
(1.10198015417773 0.000552986137782955 4.0460307734398e-18)
(1.10161451250264 0.000523273579234497 -3.16240529565068e-17)
(1.10119521170195 0.000490680985322564 -3.62443955840283e-19)
(1.10078284216655 0.000448280234289956 1.68348232547006e-17)
(1.09980668350579 0.000480063450358422 -2.55480895265222e-18)
(0.13358589819604 0.00312739992300883 -2.61258347981354e-18)
(0.136416524812957 0.00372560970360687 2.14232597184994e-18)
(0.13658163616114 0.00412436970957258 -3.17039007074435e-18)
(0.136422644227853 0.00444165651333022 -3.13284206663044e-18)
(0.135923198269538 0.00461763390066992 -5.26140367188071e-18)
(0.135248117840696 0.0047015385986953 -3.78491334783575e-17)
(0.134503063082937 0.00474327294123031 1.14047184501505e-17)
(0.13372910584582 0.00476970582968195 -3.13475403257915e-18)
(0.132937799722102 0.00479054382591777 1.67562954256829e-17)
(0.132130259440597 0.00481003340853469 3.11844602451945e-17)
(0.131305605510105 0.00482993725636927 4.77468305162645e-17)
(0.130463574032517 0.0048505820842699 -5.15433392974091e-17)
(0.129603460577201 0.00487114881477254 -9.57032966005474e-17)
(0.128723605735278 0.00489139413043999 -7.94531637799734e-17)
(0.127822569961854 0.00491166797414442 -4.2400146970928e-17)
(0.126899930458519 0.00493233269831522 -9.52651285770168e-17)
(0.125955317858759 0.00495324601686979 1.05251572318718e-17)
(0.124987368222902 0.00497392283423988 -1.99339140892627e-16)
(0.123994393765745 0.00499509774327302 -4.19258557180689e-17)
(0.122975336811654 0.00501728734314721 7.6395604616008e-18)
(0.121929961100244 0.00504029663249262 1.46748524074419e-17)
(0.120857044575123 0.00506302327906601 1.20746487082909e-17)
(0.11975433321456 0.00508610097237966 -6.5340461787523e-17)
(0.118620632598026 0.00511029871829896 5.67732986960028e-17)
(0.117455753128791 0.00513613727903317 -1.90805872927263e-16)
(0.116258575406803 0.00516177710012181 1.35949674325792e-16)
(0.115026577087956 0.00518812915429152 -1.90848244901719e-16)
(0.113757750543689 0.00521599805531681 -2.61539692755159e-16)
(0.112452128116364 0.00524591425697444 2.51981869645664e-16)
(0.111109249851352 0.0052767185564865 3.91969302698057e-17)
(0.109726268164015 0.0053086095806197 -3.31388742854511e-16)
(0.108300400734512 0.00534222394912842 -3.68731116940993e-16)
(0.106831747230785 0.00537875456980485 -7.79019894307494e-17)
(0.105321076482679 0.00541796453228837 -8.692764632118e-17)
(0.10376579325384 0.00545846240936717 -1.99607254193469e-16)
(0.102162256114826 0.00550157679086512 1.96387865911476e-16)
(0.100510890696645 0.00555005957541697 4.31219039575071e-16)
(0.098815131698963 0.00560514592391035 1.46219022866082e-16)
(0.0970742127205801 0.00566068438797229 -3.31072456267261e-16)
(0.0952836255272679 0.00571930739869963 -2.1957477933677e-16)
(0.0934445794716974 0.00578683752977089 -5.69183267417805e-17)
(0.0915672354060647 0.00587062149440304 7.22740646394103e-17)
(0.0896551644693463 0.00595343530681292 -3.38720266230201e-17)
(0.0877032263394509 0.0060400538036709 -2.07301671845906e-16)
(0.0857149485571516 0.00613963323899828 -2.44488949003924e-16)
(0.0837144968898152 0.0062700358625746 4.60257365695719e-17)
(0.0817164584049887 0.00640131966344433 4.88833211293211e-16)
(0.0797173716272451 0.00653628344930259 5.16637164344154e-16)
(0.0777265164075042 0.00668962537625078 1.49375006042282e-16)
(0.0757882770577376 0.00689287161838274 -3.36095729680041e-17)
(0.0739426142037016 0.00710660198848418 -1.89371036101428e-16)
(0.0722015247024948 0.00732150739294225 1.07959684331238e-16)
(0.0705874530421761 0.00756182366541522 1.66362377347476e-16)
(0.0691826807039801 0.00787782059933261 9.11714221134077e-17)
(0.0680847680000261 0.00823275940573753 1.69720492378395e-16)
(0.0673471581740838 0.00858252280447922 -4.10440665857475e-16)
(0.0670496747066575 0.00899077505435818 7.19107149732868e-17)
(0.067497222191934 0.0096236828707423 2.8180049621856e-16)
(0.0693049250872077 0.0106111631825578 3.62324904299825e-16)
(0.073039260907123 0.0117225119506038 5.33977802233979e-16)
(0.0791584795947604 0.0130195852266571 3.39409212197874e-17)
(0.0884864349247188 0.0147844790606791 1.39050107578312e-16)
(0.101923348441955 0.0168569581629916 1.46541093586834e-16)
(0.119636569010919 0.0183123922781337 1.26041164288547e-16)
(0.141507464268521 0.0194994563312459 1.25361073456085e-16)
(0.167862671784868 0.0207329062385179 2.89109569119485e-16)
(0.199036441100651 0.021735516647113 -4.82038834230662e-17)
(0.234570670362777 0.0218388795973589 1.52514800011615e-17)
(0.273863298805134 0.0215123893129417 3.90758858879309e-16)
(0.316658477453019 0.0209838224837678 6.9087476219495e-17)
(0.362501597189578 0.0198297213628782 6.90776927975451e-16)
(0.41055463830034 0.0180805750068588 2.5359586092552e-16)
(0.460148365832338 0.0160415680342497 1.60771698220824e-16)
(0.5107987961368 0.0137204427535721 6.77316238449516e-16)
(0.561984440850342 0.0111041232743576 -6.55375041691268e-16)
(0.613350399676904 0.0084360997351295 -1.53658006072005e-16)
(0.664666280146847 0.0057324241804945 -6.92285703999468e-17)
(0.715702591892392 0.00295724404356968 8.22237098857493e-16)
(0.766446787869323 0.000433858988579468 4.1337172310657e-16)
(0.817324047912711 -0.00191924566420437 2.44935549060303e-16)
(0.868354523253787 -0.00407380172334483 2.42404251547701e-16)
(0.920278449430452 -0.00593878445580249 2.39228898101971e-16)
(0.972766261434891 -0.00751149591906197 -1.06318230173573e-17)
(1.02945133586949 -0.00899078073914853 -1.92518984172268e-17)
(1.08445182928158 -0.00941313030384133 -2.64082957524524e-16)
(1.15319679985021 -0.00955977566433207 -1.93253402404554e-16)
(1.18112668463881 -0.0010276800931864 2.04230946326949e-16)
(1.17294205601043 -0.000774698572110424 4.20755657093731e-16)
(1.17784257645475 3.03960739996823e-05 8.33780295843321e-17)
(1.17609875813707 0.000225537089205553 1.35536567852095e-16)
(1.17667893800257 0.000519378053515955 -1.12219752907662e-17)
(1.17586961016543 0.000760651405178948 -9.00092052120278e-17)
(1.17529285642471 0.000842230108662965 -3.24091818225139e-18)
(1.17443689481611 0.000898825308769111 1.76626611165027e-16)
(1.17356843905457 0.000943379122744262 -7.79194617830053e-18)
(1.17260879100857 0.000937881639641898 4.94664999795269e-18)
(1.17167286472481 0.000923103985305443 -9.44347851809055e-17)
(1.17068485636003 0.000898243732710399 -8.15192810665706e-19)
(1.16986244802459 0.000857957320183569 4.96363820165283e-17)
(1.16879374264615 0.000842755881758395 -2.56703898150746e-18)
(-0.168541950534095 0.00734036735327655 -2.90506154563768e-18)
(-0.165758248965371 0.00785031951835325 -9.13421131114829e-19)
(-0.165922259309396 0.00894755550360366 -7.10450923721254e-18)
(-0.166463321526609 0.00967684329293857 -5.12495948300623e-19)
(-0.167314612534543 0.010042977762463 -3.07703721335107e-17)
(-0.168314786021445 0.0102085077358762 -5.30041331846499e-17)
(-0.16937649709726 0.0102865377412783 -5.39087149026081e-17)
(-0.170468620626547 0.0103325695684126 -4.04703083124907e-18)
(-0.171583024669989 0.0103682776124665 -6.78941999512106e-18)
(-0.172719151199041 0.0104017054094087 5.3898650123791e-17)
(-0.173877769003742 0.0104356171091013 2.57377016067483e-17)
(-0.175059364009997 0.0104705161528452 -1.96083988113651e-17)
(-0.176264885017314 0.0105057733379511 -1.61136823215018e-16)
(-0.17749601482101 0.0105411285759366 -9.77838353692418e-17)
(-0.178754331623136 0.0105768522560672 -2.39582951376782e-17)
(-0.180040788239209 0.0106132566545985 -5.95734601561486e-17)
(-0.181356287633682 0.0106502425581415 -8.28622653972475e-17)
(-0.182702467345286 0.0106874924384103 -9.05650893513184e-17)
(-0.184081151545527 0.0107256092700799 -7.19621099017131e-17)
(-0.185493508266603 0.0107650832764022 2.06590307287347e-17)
(-0.186940309312555 0.0108057215039655 2.70099107872616e-17)
(-0.188423270920538 0.0108466952805823 3.25806087007367e-17)
(-0.189944825069834 0.0108884915510377 4.08954918432406e-17)
(-0.191506558867019 0.0109318766177069 -1.14159757989365e-16)
(-0.193109185740698 0.0109772134898238 -1.04244419392211e-16)
(-0.19475445755595 0.0110231193360283 1.26564997861114e-16)
(-0.196445229349432 0.0110702818036757 -2.87526758207437e-16)
(-0.198183560142293 0.0111195328898317 -2.09047471872056e-16)
(-0.199970249482987 0.0111712871176138 3.25856086346167e-16)
(-0.201806703083949 0.0112246757184045 1.03060710160506e-16)
(-0.20369584614951 0.0112798530735689 -3.52427869149057e-16)
(-0.205640438685079 0.0113374779623217 -3.32706762353577e-16)
(-0.20764142479639 0.0113986098899643 -2.16666555297335e-17)
(-0.209699120175583 0.0114630887576181 -1.34568851686749e-16)
(-0.211816138835872 0.0115298310773728 -4.46078791482165e-16)
(-0.21399600120664 0.0116000319034513 2.28159092222169e-16)
(-0.216238921478854 0.011676336756537 4.41056401399317e-16)
(-0.218541759013791 0.0117595918332477 -1.26396618009749e-16)
(-0.220905503521291 0.0118447363651579 -2.02572290141605e-16)
(-0.223335097701569 0.0119338351962406 -1.4775820527616e-16)
(-0.22582958806087 0.0120329497683933 -2.19106139063849e-17)
(-0.228376699268556 0.0121476455812022 1.57493990847636e-16)
(-0.23097177772682 0.0122635823003964 -4.58322812347938e-17)
(-0.233621018744169 0.0123838876144531 -1.57043302465446e-16)
(-0.236320674795226 0.0125187416372603 -2.48611137800523e-16)
(-0.239041402194169 0.0126822412090741 -2.17423666325989e-17)
(-0.241763500976816 0.0128491593294608 3.61511104243048e-16)
(-0.244490715672682 0.0130198696769944 8.47753287023446e-16)
(-0.247212674078197 0.0132105580749606 3.23197150289542e-16)
(-0.249872513985013 0.013447174176083 1.38007684239889e-17)
(-0.252416112669166 0.0136955409376373 -3.64964882516225e-16)
(-0.254830551160033 0.0139445708228974 1.71478929751679e-16)
(-0.25709022483133 0.0142193572034765 2.75311808765158e-16)
(-0.25908849344132 0.0145635693729761 2.08787912181844e-17)
(-0.260690935167512 0.0149429379672348 1.40452286201115e-16)
(-0.261833835213792 0.0153167939296139 -1.67350520696657e-16)
(-0.262436678115027 0.0157470489875378 1.34501753874677e-16)
(-0.262167844813585 0.0163958566506559 4.7434663824077e-16)
(-0.260281680101 0.0173650131262241 3.29153610003291e-16)
(-0.256081172857582 0.0184522556369527 9.24238009479746e-16)
(-0.249043703953395 0.0197054445118739 1.37677432405374e-16)
(-0.238104399439509 0.0213786803985568 -2.20336764164191e-16)
(-0.221806912655189 0.0232526740263123 9.4509409343036e-17)
(-0.199911644899211 0.0245145639103404 2.24625856069569e-16)
(-0.17280398363806 0.0254309538199971 -1.97100637403771e-17)
(-0.139955194164172 0.0263089413093509 2.02348634638319e-16)
(-0.100714113497265 0.0268426790980857 -1.66802136659684e-16)
(-0.0557895208067543 0.0264672055134364 6.23459749811268e-17)
(-0.00619835446838227 0.0255858438832984 4.56431287002904e-16)
(0.0479538063645701 0.0244072037304145 2.88266307170058e-16)
(0.106138085824234 0.0225705638273299 1.12195301471698e-15)
(0.167091420420026 0.0201122159370845 4.11903489943744e-16)
(0.229947344847892 0.017321824318074 1.74978337477141e-16)
(0.294157096217734 0.0142261856515293 7.69882523573744e-16)
(0.358956647913133 0.0108407962377175 -5.99022323617972e-16)
(0.423851686307656 0.0073937964564629 -3.27939876565523e-16)
(0.488640947834905 0.00390529987706448 -2.36227818468933e-16)
(0.552880004083425 0.000369835315069356 1.25738888287261e-15)
(0.616534706241433 -0.00291471216581411 1.86845096255638e-16)
(0.680237598458361 -0.00601910797791836 2.64474905287648e-16)
(0.743933319109251 -0.00893303880800943 1.99026965659432e-16)
(0.808531878801442 -0.0115725955468334 2.86529863351697e-16)
(0.873636593995235 -0.0139141191924579 -8.62843984497097e-17)
(0.943673627442065 -0.0161402332119789 8.3707118707852e-17)
(1.01148203156523 -0.0174448112940991 -3.79447012016197e-16)
(1.09727247674189 -0.0171059943160526 -2.67206546845058e-16)
(1.13157562477138 -0.00135972763592716 2.84683120324446e-16)
(1.11983631909567 -0.000880468375158888 5.68486179417349e-16)
(1.12534123281756 -0.0001206432703315 1.28771676714551e-16)
(1.12267913729493 0.000147385172980435 2.62283762548012e-16)
(1.12295650040936 0.00043483699138092 6.16161235302493e-17)
(1.12173295413683 0.000664776431495174 -6.57911435732168e-17)
(1.12094656108477 0.00077216720438619 -5.08705197404524e-18)
(1.11982760531862 0.000836241499162795 2.36712925980478e-16)
(1.11876551501978 0.000883103506791289 -1.11513636958625e-17)
(1.11762779363771 0.000889012676008034 7.33967483163349e-17)
(1.11652732244212 0.000878271478304398 -1.17886133540724e-16)
(1.11540094430754 0.000850688519648337 2.50143182496239e-18)
(1.1145620584831 0.000804390626490458 4.33644568370775e-17)
(1.11380223815962 0.000626094518727325 -5.56946238134701e-18)
(-0.310480739640082 0.00995312977487797 -3.82723760087157e-18)
(-0.310272389070179 0.0111311968364851 -4.68365030533744e-18)
(-0.311432153195234 0.0128162320331401 -1.75405745651313e-17)
(-0.312582750399013 0.0137978470065828 -1.95376988273601e-17)
(-0.313731689168219 0.0142548571498133 -5.8855297198122e-17)
(-0.314884627572485 0.0144546667803968 -7.04211358559766e-17)
(-0.316046979536975 0.0145487822485946 -4.93600867630119e-17)
(-0.317224716464803 0.0146053072999948 -2.38570808724933e-18)
(-0.318421800707782 0.0146504676103804 3.54727691074854e-17)
(-0.319640582640979 0.0146933598244817 7.35900232896134e-17)
(-0.32088225212452 0.0147368209895001 1.7052280163776e-17)
(-0.322147433114226 0.0147813594523055 -3.48282040329888e-17)
(-0.323437021041397 0.0148266095611878 -1.25249377544383e-16)
(-0.324752407983403 0.0148723762659365 -7.19715760493605e-17)
(-0.326095010038005 0.0149188210226444 -2.37460678709721e-17)
(-0.327465963033062 0.0149661551248071 -4.27779099599565e-17)
(-0.328866387415461 0.0150143412986015 -2.05823249034571e-17)
(-0.330297828717134 0.0150632347657065 1.02297641140938e-17)
(-0.331761902640347 0.0151132209662973 3.41171004158713e-17)
(-0.333259782420925 0.0151646527106586 5.67864778324857e-17)
(-0.334792495608411 0.0152174102608941 3.81180988702429e-17)
(-0.33636175551251 0.0152710355693431 4.59175326148455e-17)
(-0.337969716201231 0.0153258250095682 1.59036505528575e-17)
(-0.339617995257455 0.0153823416872419 -8.05561243891186e-17)
(-0.341307642632899 0.0154407999354346 -7.06800798790851e-17)
(-0.343040491652578 0.0155004200305158 1.30798765907507e-17)
(-0.344819091025925 0.0155616173110677 -2.16832569306721e-16)
(-0.346645352758813 0.0156250130391431 -2.49262747359022e-16)
(-0.348520503192165 0.0156908715103217 2.95550297365045e-16)
(-0.350446249828033 0.0157587187880663 2.18050853397294e-16)
(-0.352425150375815 0.0158286659496629 -1.94967174251598e-16)
(-0.354459611758575 0.0159012021289973 -3.36877949578435e-16)
(-0.356551046318293 0.0159770442893808 1.34061232088627e-16)
(-0.358700376665405 0.0160561367995652 -1.27199415769045e-16)
(-0.360909875109843 0.0161378484800413 -4.32745097420451e-16)
(-0.363182402148137 0.0162229698786162 3.18028217422815e-16)
(-0.365518507581899 0.0163133482997107 5.82609172101671e-16)
(-0.367915915026018 0.0164094478552645 -8.95760543878109e-17)
(-0.370375547912854 0.0165081039517291 -5.12699660068237e-17)
(-0.372901461045577 0.0166105236908596 -8.76909141897162e-17)
(-0.375492891515967 0.0167210921370316 4.31229988876828e-18)
(-0.378138735124511 0.0168430596609723 8.27235932631032e-17)
(-0.380834327641012 0.0169672699460321 -6.81198793372998e-17)
(-0.383584599335014 0.0170952394405984 -1.08339450343399e-16)
(-0.386385946105662 0.0172345027911356 -2.87278418033747e-16)
(-0.389211066529809 0.0173935644175841 -1.31948082517583e-16)
(-0.392040188424744 0.0175560130009964 2.6853343066697e-16)
(-0.394875121464671 0.017721038319849 6.41110906116678e-16)
(-0.397705544942714 0.0179004538311441 5.54125417861361e-16)
(-0.400476520198643 0.0181103735423901 7.71036645360053e-17)
(-0.403133648785135 0.0183277835484259 -2.68743707595771e-16)
(-0.405662868698767 0.018543729831804 4.50000456123536e-16)
(-0.408038680439809 0.0187758190515353 4.02893933885471e-16)
(-0.4101563643171 0.0190520218442546 -7.31155515344284e-17)
(-0.411879545279725 0.0193473917336688 1.32290566967638e-16)
(-0.41314339936999 0.0196327484825053 4.32003099791296e-17)
(-0.413872172687354 0.0199493066665611 1.94841241248845e-16)
(-0.413762850999917 0.0204073486738266 4.20512921590027e-16)
(-0.412099053605674 0.0210640097743277 2.58915970108031e-16)
(-0.408196672281848 0.0217754587420432 6.10874151003952e-16)
(-0.401552358085051 0.0225632920853564 -4.03429881539447e-17)
(-0.391110545124056 0.0235915738964574 -2.22919751325468e-16)
(-0.37530520569577 0.0246723858952154 4.46503637446085e-17)
(-0.353864379713942 0.0252511513705064 -1.6247871598769e-17)
(-0.327252168090724 0.0254997514825862 4.35105330158575e-17)
(-0.294914347590466 0.0256329698912054 1.35347918312165e-16)
(-0.256116182775612 0.0254164851881375 -8.9804814533012e-17)
(-0.211594633571233 0.0244820657927534 4.32413347433567e-16)
(-0.162465610422866 0.0231141683971277 3.29107167887311e-16)
(-0.108759412692908 0.0214584734636493 2.60876114315656e-16)
(-0.0509789484044523 0.0192791247023435 1.0805613437859e-15)
(0.00954145998627284 0.016619456734626 3.46167227370425e-16)
(0.0719229348386957 0.0136925414789916 1.66090729249059e-16)
(0.135640029910258 0.0105280038708894 5.96549380424352e-16)
(0.199886787819251 0.00715399347359016 -5.31234315232554e-16)
(0.264143297435087 0.00373507939166801 -9.1579254773291e-17)
(0.328242821203242 0.000286560732867423 -3.74986036977138e-17)
(0.391674342202462 -0.00317870169295459 1.29616942585019e-15)
(0.454383271972855 -0.00645906133006169 -6.69921337241864e-17)
(0.517033012644451 -0.00960685723829479 2.8254831174885e-16)
(0.579524796979938 -0.0126244943304797 1.51985738868372e-16)
(0.642741822689825 -0.0154524002277014 3.74240944946618e-16)
(0.706272379061192 -0.0180936810798534 -1.73305282535246e-16)
(0.774440304980709 -0.0206487517573374 1.70140040399324e-16)
(0.840277700270728 -0.0226163558960436 -3.2883061468705e-16)
(0.925023683723866 -0.0217897949580375 -1.79024115091014e-16)
(0.958503559431523 -0.00131572530740878 3.73425215587879e-16)
(0.945497770539424 -0.000597615523275327 5.64243823568137e-16)
(0.950642785819977 -0.000145876112414191 1.6630927252357e-16)
(0.947821361792251 9.74679947526397e-05 2.47169060667552e-16)
(0.947931080674234 0.000276683024837084 4.71837297025203e-17)
(0.946678088934573 0.000439219445452264 -4.53312699377603e-17)
(0.94592711579143 0.000516019272838842 -9.0907571196995e-17)
(0.944860401740378 0.000562925765442657 1.38733973477273e-16)
(0.943883432755377 0.000594794702508455 1.85830993497948e-17)
(0.942849314755853 0.000600883191899872 8.74705775150041e-17)
(0.941854743872722 0.000593535636645883 -1.06270110274151e-16)
(0.940848490102474 0.00057067804254285 7.85064133770423e-18)
(0.940143024734488 0.000530909067519368 3.79330812709291e-17)
(0.939618791679731 0.000380694461244263 -2.77275854050779e-18)
(-0.298831094547673 0.00981970966768612 -2.43801163081941e-18)
(-0.302135656177529 0.0114078814825066 -3.48342381137122e-18)
(-0.304252483399813 0.0129638614415463 -3.73349945833767e-18)
(-0.305780195460434 0.013778765814992 -2.37959749282904e-17)
(-0.306946189115694 0.0141318945625551 -4.11652086532697e-17)
(-0.307966895603424 0.0142823930786436 -6.43466801532058e-17)
(-0.308946255913314 0.0143555899164732 -6.35572327708259e-17)
(-0.309924377367033 0.0144027855187682 2.7831663743715e-18)
(-0.310915058551566 0.0144427527021773 5.84183696043233e-17)
(-0.311922690240857 0.0144816224171917 7.02461751472721e-17)
(-0.312948548316896 0.0145211459290077 -1.68652534482659e-18)
(-0.31399310387513 0.014561613090844 -3.52746239632787e-17)
(-0.315056958938546 0.0146028482708305 -1.30532383468328e-16)
(-0.316141043884652 0.0146447544136903 -5.58272379867689e-17)
(-0.317246384493744 0.0146874126583373 -1.57282690048162e-17)
(-0.318373933270934 0.0147309378493415 -5.69328229416584e-17)
(-0.319524648195559 0.0147753369008706 2.3667730796194e-17)
(-0.320699693971342 0.0148205646116721 1.06519003073443e-16)
(-0.321900241322933 0.0148668192218175 -1.37290301447039e-17)
(-0.323127212729323 0.0149142880771453 1.11194470309064e-16)
(-0.324381501254017 0.0149629394354484 4.18302172837612e-17)
(-0.325664429187185 0.0150125844997717 5.88316897879328e-17)
(-0.326977564040508 0.0150633813523203 -8.73222390746727e-18)
(-0.328322179686298 0.0151156256895784 -2.12930741767566e-16)
(-0.329699228403761 0.0151694484585544 -6.27498573766593e-17)
(-0.331110156531828 0.0152245062825304 -2.32593779563619e-17)
(-0.332556818156006 0.0152810231889425 -1.2708938115276e-16)
(-0.334040659864952 0.0153393228915275 -1.54522225146377e-16)
(-0.335562799800224 0.0153995576019836 1.3228013032328e-16)
(-0.337124669571414 0.0154615372605792 1.42049027601606e-16)
(-0.338728112349366 0.0155253439938063 -8.95744613991038e-17)
(-0.340374870615563 0.0155912328122062 -1.731060427744e-16)
(-0.342066228701472 0.0156595723103923 2.63642124049379e-17)
(-0.343803131291645 0.015730372335214 -1.03291740075315e-16)
(-0.345587207369453 0.0158033541797146 -3.56102319792551e-16)
(-0.347420426621253 0.0158788998063538 2.07126181758462e-17)
(-0.349303367463757 0.0159579062538389 5.61007316742431e-16)
(-0.351234576855358 0.0160406124554119 -1.12276844779128e-16)
(-0.353214716804018 0.0161254962973295 8.41345563601692e-17)
(-0.355246604542013 0.0162131096682108 -3.53139406414027e-17)
(-0.357329820475183 0.0163055362973077 3.3106430707613e-17)
(-0.359456127715093 0.016404305703159 3.92383376702751e-17)
(-0.361621789494539 0.0165048769241432 -1.04794436799968e-16)
(-0.363830158737888 0.0166079255213606 -4.2156625853449e-17)
(-0.366078743966595 0.0167169518139011 -1.68733918188105e-16)
(-0.368347020325456 0.0168358990064777 -3.13335706325562e-16)
(-0.370619342689299 0.016956454860554 1.53069629815944e-16)
(-0.372896375051683 0.0170780698402064 4.76102258617672e-16)
(-0.375170542965785 0.0172061162014769 4.51276406746814e-16)
(-0.377399818624538 0.0173478993655973 2.46607459347814e-16)
(-0.379541312848979 0.0174913864041584 6.10504779088941e-17)
(-0.381583633969291 0.0176317742121732 4.59922920102514e-16)
(-0.383507724562884 0.017776879345067 2.42462254511656e-16)
(-0.385233104046029 0.0179390183826573 2.98324211442293e-17)
(-0.386652029051257 0.0181040889238025 1.96957630449745e-16)
(-0.387713656515226 0.0182562963954261 2.36880600703663e-16)
(-0.388363074602463 0.0184129849574264 -2.45816512943046e-17)
(-0.388380379555445 0.018622222693984 3.88270465958088e-16)
(-0.387220003137452 0.0189026470363155 1.66257149094617e-16)
(-0.384353577994784 0.0191730891998873 3.42336041941673e-16)
(-0.379401786232601 0.0194344616323553 -2.40599878285377e-16)
(-0.371551218523676 0.019753578172004 -2.94114314034993e-16)
(-0.359526153937129 0.0200200935683028 1.69230703105578e-17)
(-0.343094899078401 0.0199559476211357 -3.14360125902536e-17)
(-0.322659966545249 0.0196541621268017 1.07106977448298e-16)
(-0.297783202189547 0.0192136036953475 7.96036744514049e-17)
(-0.267847900586589 0.0185104792741967 -4.26513826961745e-17)
(-0.233436869125521 0.0173741595129199 3.95588158891392e-16)
(-0.195470394472745 0.015963620488308 2.01186637881213e-16)
(-0.153940541272035 0.0143510249503018 2.05607179848884e-16)
(-0.109223502416442 0.0124266412251467 7.81671471139955e-16)
(-0.0623925239651332 0.0102327573564925 2.59736718978407e-16)
(-0.0141425424308742 0.00788681004290411 1.46167211847085e-16)
(0.0351264392253953 0.00540923720460406 4.78292342575232e-16)
(0.0847658553054812 0.00282465798830437 -3.1446345012159e-16)
(0.134354896531346 0.000221893258167146 -4.12643450915646e-17)
(0.183778056893498 -0.00239152960276874 -6.18527203134423e-17)