/*--------------------------------*- C++ -*----------------------------------*\
| =========                 |                                                 |
| \\      /  F ield         | foam-extend: Open Source CFD                    |
|  \\    /   O peration     | Version:     4.1-20200408                       |
|   \\  /    A nd           | Web:         http://www.foam-extend.org         |
|    \\/     M anipulation  |                                                 |
\*---------------------------------------------------------------------------*/
FoamFile
{
    version     2.0;
    format      ascii;
    class       volScalarField;
    location    "0.0585000";
    object      ccx;
}
// * * * * * * * * * * * * * * * * * * * * * * * * * * * * * * * * * * * * * //

dimensions      [0 1 0 0 0 0 0];

internalField   nonuniform List<scalar> 
1952
(
0.00287754
0.00287737
0.00287712
0.00287678
0.00287639
0.00287593
0.00287544
0.0028749
0.00287436
0.00287381
0.0028733
0.00287284
0.00287247
0.00287221
0.00287206
0.00287763
0.00272998
0.00272963
0.00272912
0.00272846
0.00272766
0.00272676
0.00272576
0.00272469
0.0027236
0.00272251
0.00272148
0.00272057
0.00271982
0.00271931
0.00271901
0.00273016
0.00267976
0.00267942
0.0026789
0.00267824
0.00267745
0.00267654
0.00267554
0.00267447
0.00267338
0.00267229
0.00267126
0.00267034
0.0026696
0.00266908
0.00266878
0.00267995
0.00262955
0.0026292
0.00262869
0.00262802
0.00262723
0.00262632
0.00262532
0.00262425
0.00262316
0.00262207
0.00262104
0.00262012
0.00261937
0.00261886
0.00261855
0.00262973
0.00257933
0.00257899
0.00257847
0.00257781
0.00257701
0.0025761
0.0025751
0.00257403
0.00257294
0.00257184
0.00257081
0.00256989
0.00256914
0.00256863
0.00256832
0.00257952
0.00252911
0.00252877
0.00252826
0.00252759
0.0025268
0.00252589
0.00252488
0.00252381
0.00252272
0.00252162
0.00252059
0.00251967
0.00251892
0.0025184
0.0025181
0.0025293
0.0024789
0.00247855
0.00247804
0.00247738
0.00247658
0.00247567
0.00247466
0.00247359
0.00247249
0.0024714
0.00247036
0.00246944
0.00246869
0.00246817
0.00246787
0.00247909
0.00242868
0.00242834
0.00242782
0.00242716
0.00242636
0.00242545
0.00242444
0.00242337
0.00242227
0.00242117
0.00242014
0.00241922
0.00241847
0.00241795
0.00241764
0.00242887
0.00237846
0.00237812
0.0023776
0.00237694
0.00237614
0.00237523
0.00237422
0.00237315
0.00237205
0.00237095
0.00236991
0.00236899
0.00236824
0.00236772
0.00236741
0.00237865
0.00232824
0.0023279
0.00232738
0.00232672
0.00232592
0.002325
0.002324
0.00232293
0.00232183
0.00232073
0.00231969
0.00231876
0.00231801
0.00231749
0.00231719
0.00232843
0.00227802
0.00227768
0.00227716
0.0022765
0.0022757
0.00227478
0.00227378
0.0022727
0.0022716
0.0022705
0.00226946
0.00226854
0.00226779
0.00226726
0.00226696
0.00227821
0.0022278
0.00222746
0.00222694
0.00222628
0.00222547
0.00222456
0.00222355
0.00222248
0.00222138
0.00222028
0.00221924
0.00221831
0.00221756
0.00221703
0.00221673
0.00222799
0.00217758
0.00217724
0.00217672
0.00217606
0.00217525
0.00217434
0.00217333
0.00217226
0.00217115
0.00217005
0.00216901
0.00216808
0.00216733
0.00216681
0.0021665
0.00217777
0.00212736
0.00212702
0.0021265
0.00212583
0.00212503
0.00212411
0.00212311
0.00212203
0.00212092
0.00211982
0.00211879
0.00211786
0.0021171
0.00211658
0.00211627
0.00212755
0.00207714
0.0020768
0.00207628
0.00207561
0.00207481
0.00207389
0.00207288
0.00207181
0.0020707
0.0020696
0.00206856
0.00206763
0.00206688
0.00206635
0.00206604
0.00207733
0.00202692
0.00202658
0.00202606
0.00202539
0.00202458
0.00202367
0.00202266
0.00202158
0.00202047
0.00201937
0.00201833
0.0020174
0.00201665
0.00201612
0.00201581
0.00202711
0.0019767
0.00197635
0.00197583
0.00197516
0.00197436
0.00197344
0.00197243
0.00197136
0.00197025
0.00196914
0.0019681
0.00196717
0.00196642
0.00196589
0.00196558
0.00197689
0.00192648
0.00192613
0.00192561
0.00192494
0.00192413
0.00192322
0.00192221
0.00192113
0.00192002
0.00191892
0.00191787
0.00191694
0.00191619
0.00191566
0.00191535
0.00192667
0.00187625
0.00187591
0.00187539
0.00187472
0.00187391
0.00187299
0.00187198
0.0018709
0.00186979
0.00186869
0.00186765
0.00186671
0.00186596
0.00186543
0.00186512
0.00187644
0.00182603
0.00182569
0.00182517
0.00182449
0.00182369
0.00182277
0.00182176
0.00182068
0.00181957
0.00181846
0.00181742
0.00181648
0.00181573
0.0018152
0.00181489
0.00182622
0.00177581
0.00177546
0.00177494
0.00177427
0.00177346
0.00177254
0.00177153
0.00177045
0.00176934
0.00176823
0.00176719
0.00176625
0.0017655
0.00176497
0.00176466
0.001776
0.00172559
0.00172524
0.00172472
0.00172404
0.00172324
0.00172232
0.0017213
0.00172022
0.00171911
0.001718
0.00171696
0.00171602
0.00171527
0.00171474
0.00171443
0.00172578
0.00167536
0.00167501
0.00167449
0.00167382
0.00167301
0.00167209
0.00167108
0.00166999
0.00166888
0.00166778
0.00166673
0.00166579
0.00166504
0.00166451
0.0016642
0.00167555
0.00162514
0.00162479
0.00162427
0.0016236
0.00162279
0.00162187
0.00162085
0.00161977
0.00161866
0.00161755
0.0016165
0.00161556
0.0016148
0.00161428
0.00161397
0.00162533
0.00157492
0.00157457
0.00157405
0.00157337
0.00157256
0.00157164
0.00157062
0.00156954
0.00156843
0.00156732
0.00156627
0.00156533
0.00156457
0.00156404
0.00156373
0.00157511
0.0015247
0.00152434
0.00152382
0.00152315
0.00152234
0.00152141
0.0015204
0.00151931
0.0015182
0.00151709
0.00151603
0.00151509
0.00151434
0.00151381
0.0015135
0.00152489
0.00147447
0.00147412
0.0014736
0.00147293
0.00147211
0.00147119
0.00147017
0.00146908
0.00146797
0.00146686
0.0014658
0.00146486
0.0014641
0.00146358
0.00146326
0.00147466
0.00142425
0.0014239
0.00142338
0.0014227
0.00142189
0.00142096
0.00141994
0.00141885
0.00141774
0.00141663
0.00141557
0.00141463
0.00141387
0.00141334
0.00141303
0.00142444
0.00137403
0.00137368
0.00137316
0.00137248
0.00137167
0.00137074
0.00136972
0.00136863
0.00136751
0.0013664
0.00136534
0.0013644
0.00136363
0.0013631
0.00136279
0.00137422
0.00132381
0.00132346
0.00132294
0.00132226
0.00132144
0.00132052
0.00131949
0.0013184
0.00131728
0.00131616
0.00131511
0.00131416
0.0013134
0.00131287
0.00131255
0.001324
0.00127359
0.00127324
0.00127271
0.00127203
0.00127122
0.00127029
0.00126927
0.00126817
0.00126705
0.00126593
0.00126487
0.00126393
0.00126316
0.00126263
0.00126232
0.00127378
0.00122337
0.00122302
0.00122249
0.00122181
0.001221
0.00122007
0.00121904
0.00121794
0.00121682
0.0012157
0.00121464
0.00121369
0.00121293
0.00121239
0.00121208
0.00122356
0.00117315
0.00117279
0.00117227
0.00117159
0.00117077
0.00116984
0.00116881
0.00116772
0.00116659
0.00116547
0.00116441
0.00116346
0.00116269
0.00116215
0.00116183
0.00117334
0.00112293
0.00112257
0.00112205
0.00112137
0.00112055
0.00111962
0.00111859
0.00111749
0.00111636
0.00111524
0.00111417
0.00111322
0.00111245
0.00111191
0.00111159
0.00112312
0.00107271
0.00107235
0.00107182
0.00107114
0.00107033
0.00106939
0.00106836
0.00106726
0.00106613
0.00106501
0.00106394
0.00106298
0.00106221
0.00106166
0.00106134
0.0010729
0.00102248
0.00102213
0.0010216
0.00102092
0.0010201
0.00101917
0.00101813
0.00101704
0.0010159
0.00101478
0.0010137
0.00101275
0.00101197
0.00101142
0.00101109
0.00102267
0.000972257
0.000971903
0.000971375
0.000970695
0.000969876
0.000968939
0.000967907
0.000966807
0.000965671
0.000964542
0.000963468
0.000962507
0.000961723
0.000961173
0.000960844
0.000972447
0.000922027
0.000921673
0.000921146
0.000920466
0.000919647
0.000918711
0.000917679
0.000916577
0.000915441
0.000914309
0.000913232
0.000912268
0.00091148
0.000910925
0.00091059
0.000922218
0.000871793
0.000871439
0.000870914
0.000870234
0.000869416
0.00086848
0.000867449
0.000866347
0.000865209
0.000864076
0.000862997
0.000862029
0.000861236
0.000860675
0.000860334
0.000871983
0.000821552
0.000821199
0.000820674
0.000819996
0.00081918
0.000818245
0.000817215
0.000816115
0.000814977
0.000813843
0.000812761
0.00081179
0.000810992
0.000810425
0.000810076
0.000821741
0.000771301
0.00077095
0.000770427
0.000769751
0.000768937
0.000768006
0.000766977
0.000765878
0.000764742
0.000763608
0.000762525
0.00076155
0.000760747
0.000760172
0.000759814
0.00077149
0.000721038
0.000720689
0.000720168
0.000719496
0.000718686
0.000717758
0.000716733
0.000715638
0.000714505
0.000713372
0.000712289
0.000711311
0.000710502
0.00070992
0.000709551
0.000721226
0.000670761
0.000670414
0.000669897
0.000669229
0.000668423
0.000667501
0.000666482
0.000665392
0.000664264
0.000663134
0.000662053
0.000661073
0.00066026
0.000659668
0.000659286
0.000670948
0.000620465
0.00062012
0.000619607
0.000618945
0.000618145
0.00061723
0.000616219
0.000615137
0.000614015
0.000612892
0.000611814
0.000610835
0.000610018
0.000609417
0.000609019
0.00062065
0.000570145
0.000569804
0.000569296
0.00056864
0.000567849
0.000566942
0.000565941
0.000564869
0.000563757
0.000562643
0.000561572
0.000560597
0.000559779
0.000559169
0.000558751
0.000570329
0.000519799
0.000519462
0.00051896
0.000518312
0.00051753
0.000516635
0.000515645
0.000514586
0.000513486
0.000512384
0.000511323
0.000510355
0.00050954
0.000508924
0.000508486
0.00051998
0.000469422
0.00046909
0.000468595
0.000467955
0.000467185
0.000466302
0.000465327
0.000464282
0.000463199
0.000462111
0.000461064
0.000460107
0.000459297
0.000458678
0.000458227
0.000469601
0.000419011
0.000418685
0.000418197
0.000417568
0.000416809
0.000415941
0.000414982
0.000413955
0.000412891
0.000411822
0.000410792
0.000409849
0.000409049
0.000408433
0.000407976
0.000419188
0.000368563
0.000368242
0.000367763
0.000367145
0.0003664
0.000365549
0.000364608
0.000363602
0.000362558
0.000361511
0.000360503
0.00035958
0.000358797
0.00035819
0.000357734
0.000368736
0.000318076
0.000317762
0.000317292
0.000316686
0.000315956
0.000315122
0.000314203
0.000313219
0.0003122
0.00031118
0.000310199
0.000309303
0.000308543
0.000307952
0.000307508
0.000318247
0.00026755
0.000267242
0.000266782
0.000266189
0.000265476
0.000264662
0.000263764
0.000262806
0.000261816
0.000260828
0.00025988
0.000259018
0.00025829
0.000257725
0.000257305
0.000267717
0.000216986
0.000216685
0.000216235
0.000215656
0.00021496
0.000214167
0.000213294
0.000212364
0.000211406
0.000210453
0.000209545
0.000208726
0.00020804
0.000207516
0.000207141
0.000217149
0.000166385
0.000166092
0.000165653
0.000165089
0.000164412
0.00016364
0.000162794
0.000161895
0.00016097
0.000160056
0.000159194
0.000158426
0.000157797
0.00015734
0.000157048
0.000166544
0.000115753
0.000115467
0.000115041
0.000114492
0.000113834
0.000113086
0.000112267
0.0001114
0.000110512
0.000109641
0.00010883
0.000108127
0.000107579
0.000107225
0.000107061
0.000115908
6.50945e-05
6.48177e-05
6.44035e-05
6.3871e-05
6.32334e-05
6.25099e-05
6.17212e-05
6.08895e-05
6.00451e-05
5.92262e-05
5.84798e-05
5.78584e-05
5.74179e-05
5.72039e-05
5.72138e-05
6.52452e-05
1.44166e-05
1.41494e-05
1.375e-05
1.3237e-05
1.26239e-05
1.19308e-05
1.11795e-05
1.0394e-05
9.60505e-06
8.85249e-06
8.18761e-06
7.66834e-06
7.3587e-06
7.31257e-06
7.53177e-06
1.45625e-05
-3.6262e-05
-3.6516e-05
-3.68952e-05
-3.73809e-05
-3.79594e-05
-3.86104e-05
-3.93116e-05
-4.00371e-05
-4.07558e-05
-4.14255e-05
-4.19926e-05
-4.23927e-05
-4.25545e-05
-4.24162e-05
-4.19682e-05
-3.61225e-05
-8.68975e-05
-8.71326e-05
-8.7483e-05
-8.79308e-05
-8.8462e-05
-8.90571e-05
-8.96934e-05
-9.03449e-05
-9.09787e-05
-9.15523e-05
-9.20083e-05
-9.22784e-05
-9.22836e-05
-9.19554e-05
-9.12761e-05
-8.67677e-05
-0.000137423
-0.000137633
-0.000137946
-0.000138345
-0.000138818
-0.000139345
-0.000139904
-0.000140469
-0.000141008
-0.000141476
-0.000141813
-0.000141949
-0.000141798
-0.000141285
-0.000140387
-0.000137306
-0.00018776
-0.000187941
-0.000188211
-0.000188554
-0.00018896
-0.000189411
-0.000189885
-0.000190357
-0.000190795
-0.000191153
-0.000191371
-0.000191375
-0.000191076
-0.000190395
-0.000189302
-0.000187659
-0.00023783
-0.000237981
-0.000238205
-0.000238491
-0.000238828
-0.0002392
-0.000239587
-0.000239965
-0.000240301
-0.000240552
-0.000240656
-0.000240537
-0.000240105
-0.000239279
-0.000238024
-0.000237745
-0.000287565
-0.000287687
-0.000287869
-0.0002881
-0.000288371
-0.000288667
-0.000288971
-0.000289259
-0.0002895
-0.00028965
-0.000289649
-0.000289421
-0.000288876
-0.000287934
-0.000286556
-0.000287496
-0.000336918
-0.000337015
-0.000337159
-0.000337342
-0.000337554
-0.000337783
-0.000338012
-0.000338218
-0.000338373
-0.000338433
-0.00033834
-0.000338021
-0.000337388
-0.000336362
-0.000334903
-0.000336864
-0.000385867
-0.000385944
-0.000386057
-0.000386199
-0.000386362
-0.000386533
-0.000386697
-0.000386833
-0.000386913
-0.000386896
-0.000386728
-0.000386338
-0.000385642
-0.000384566
-0.000383072
-0.000385824
-0.000434413
-0.000434474
-0.000434562
-0.000434672
-0.000434794
-0.000434918
-0.000435028
-0.000435104
-0.000435122
-0.000435044
-0.000434817
-0.000434377
-0.000433645
-0.000432554
-0.000431067
-0.000434379
-0.000482578
-0.000482625
-0.000482693
-0.000482776
-0.000482865
-0.000482949
-0.000483015
-0.000483044
-0.000483012
-0.000482885
-0.000482617
-0.000482147
-0.000481407
-0.000480333
-0.000478896
-0.000482552
-0.000530397
-0.000530432
-0.000530483
-0.000530541
-0.000530602
-0.000530653
-0.000530681
-0.000530671
-0.0005306
-0.000530439
-0.000530144
-0.000529664
-0.000528938
-0.000527914
-0.000526563
-0.000530377
-0.000577914
-0.000577938
-0.00057797
-0.000578007
-0.000578041
-0.000578062
-0.000578059
-0.000578015
-0.000577914
-0.000577727
-0.000577419
-0.000576945
-0.000576257
-0.000575309
-0.000574076
-0.0005779
-0.000625171
-0.000625183
-0.0006252
-0.000625215
-0.000625223
-0.000625216
-0.000625182
-0.000625109
-0.000624982
-0.000624777
-0.000624466
-0.000624014
-0.000623382
-0.000622532
-0.00062144
-0.000625163
-0.00067221
-0.000672211
-0.000672212
-0.000672206
-0.00067219
-0.000672155
-0.000672092
-0.000671991
-0.000671841
-0.000671623
-0.000671316
-0.000670896
-0.000670332
-0.000669596
-0.000668661
-0.000672208
-0.000719064
-0.000719055
-0.00071904
-0.000719015
-0.000718976
-0.000718915
-0.000718825
-0.000718698
-0.000718526
-0.000718296
-0.000717998
-0.000717615
-0.000717128
-0.000716512
-0.000715739
-0.000719067
-0.000765761
-0.000765743
-0.000765715
-0.000765673
-0.000765612
-0.000765528
-0.000765415
-0.000765265
-0.000765076
-0.000764839
-0.00076455
-0.000764203
-0.00076379
-0.00076329
-0.000762674
-0.00076577
-0.000812326
-0.000812301
-0.000812261
-0.000812204
-0.000812127
-0.000812025
-0.000811896
-0.000811735
-0.000811538
-0.000811302
-0.000811024
-0.000810707
-0.000810351
-0.000809947
-0.00080947
-0.000812339
-0.000858793
-0.000858763
-0.000858715
-0.000858649
-0.000858562
-0.000858452
-0.000858316
-0.000858152
-0.000857956
-0.000857726
-0.000857463
-0.000857169
-0.000856852
-0.000856514
-0.000856141
-0.000858808
-0.000905199
-0.000905166
-0.000905116
-0.000905046
-0.000904955
-0.000904841
-0.000904704
-0.000904541
-0.000904349
-0.000904129
-0.000903882
-0.000903612
-0.000903325
-0.00090303
-0.000902724
-0.000905216
-0.000951567
-0.000951533
-0.00095148
-0.000951408
-0.000951316
-0.000951202
-0.000951066
-0.000950907
-0.000950723
-0.000950515
-0.000950286
-0.000950039
-0.000949781
-0.000949518
-0.000949257
-0.000951585
-0.000997905
-0.00099787
-0.000997818
-0.000997745
-0.000997651
-0.000997539
-0.000997407
-0.000997253
-0.000997081
-0.000996888
-0.000996675
-0.000996452
-0.000996223
-0.00099599
-0.00099576
-0.000997924
-0.00104422
-0.00104418
-0.00104413
-0.00104406
-0.00104397
-0.00104386
-0.00104373
-0.00104359
-0.00104343
-0.00104325
-0.00104305
-0.00104285
-0.00104265
-0.00104244
-0.00104224
-0.00104424
-0.00109051
-0.00109048
-0.00109043
-0.00109036
-0.00109027
-0.00109017
-0.00109005
-0.00108991
-0.00108976
-0.0010896
-0.00108942
-0.00108924
-0.00108906
-0.00108888
-0.00108871
-0.00109053
-0.00113679
-0.00113676
-0.00113671
-0.00113664
-0.00113656
-0.00113646
-0.00113635
-0.00113623
-0.00113609
-0.00113594
-0.00113578
-0.00113562
-0.00113545
-0.0011353
-0.00113515
-0.00113681
-0.00118306
-0.00118303
-0.00118298
-0.00118292
-0.00118284
-0.00118275
-0.00118265
-0.00118253
-0.0011824
-0.00118227
-0.00118213
-0.00118198
-0.00118184
-0.0011817
-0.00118158
-0.00118307
-0.00122932
-0.00122929
-0.00122925
-0.00122919
-0.00122911
-0.00122903
-0.00122893
-0.00122883
-0.00122871
-0.00122859
-0.00122846
-0.00122834
-0.00122821
-0.00122809
-0.00122798
-0.00122933
-0.00127556
-0.00127554
-0.0012755
-0.00127545
-0.00127538
-0.0012753
-0.00127521
-0.00127512
-0.00127501
-0.0012749
-0.00127479
-0.00127468
-0.00127457
-0.00127446
-0.00127437
-0.00127558
-0.00132181
-0.00132179
-0.00132175
-0.0013217
-0.00132164
-0.00132157
-0.00132149
-0.0013214
-0.00132131
-0.00132121
-0.00132111
-0.00132101
-0.00132091
-0.00132082
-0.00132074
-0.00132182
-0.00136806
-0.00136803
-0.001368
-0.00136795
-0.0013679
-0.00136783
-0.00136776
-0.00136768
-0.0013676
-0.00136751
-0.00136743
-0.00136734
-0.00136725
-0.00136717
-0.0013671
-0.00136806
-0.00141429
-0.00141427
-0.00141424
-0.0014142
-0.00141416
-0.0014141
-0.00141403
-0.00141396
-0.00141389
-0.00141381
-0.00141373
-0.00141366
-0.00141358
-0.00141351
-0.00141345
-0.0014143
-0.00146053
-0.00146051
-0.00146048
-0.00146045
-0.00146041
-0.00146036
-0.0014603
-0.00146023
-0.00146017
-0.0014601
-0.00146003
-0.00145996
-0.0014599
-0.00145984
-0.00145978
-0.00146054
-0.00150677
-0.00150675
-0.00150673
-0.00150669
-0.00150665
-0.00150661
-0.00150656
-0.0015065
-0.00150645
-0.00150638
-0.00150633
-0.00150626
-0.0015062
-0.00150615
-0.0015061
-0.00150678
-0.001553
-0.00155299
-0.00155297
-0.00155294
-0.0015529
-0.00155286
-0.00155281
-0.00155276
-0.00155271
-0.00155266
-0.00155261
-0.00155255
-0.0015525
-0.00155246
-0.00155242
-0.00155301
-0.00159924
-0.00159922
-0.0015992
-0.00159917
-0.00159914
-0.00159911
-0.00159907
-0.00159902
-0.00159898
-0.00159893
-0.00159888
-0.00159884
-0.0015988
-0.00159876
-0.00159872
-0.00159925
-0.00164547
-0.00164545
-0.00164543
-0.00164541
-0.00164538
-0.00164535
-0.00164531
-0.00164528
-0.00164524
-0.0016452
-0.00164516
-0.00164512
-0.00164508
-0.00164504
-0.001645
-0.00164548
-0.00169169
-0.00169168
-0.00169167
-0.00169165
-0.00169162
-0.00169159
-0.00169156
-0.00169153
-0.00169149
-0.00169146
-0.00169142
-0.00169138
-0.00169135
-0.00169132
-0.00169129
-0.0016917
-0.00173792
-0.00173791
-0.0017379
-0.00173788
-0.00173786
-0.00173783
-0.0017378
-0.00173777
-0.00173774
-0.00173771
-0.00173768
-0.00173765
-0.00173762
-0.00173759
-0.00173756
-0.00173793
-0.00178414
-0.00178413
-0.00178413
-0.00178411
-0.00178409
-0.00178407
-0.00178404
-0.00178401
-0.00178399
-0.00178396
-0.00178393
-0.0017839
-0.00178388
-0.00178385
-0.00178383
-0.00178415
-0.00183036
-0.00183035
-0.00183034
-0.00183033
-0.00183032
-0.0018303
-0.00183028
-0.00183025
-0.00183023
-0.00183021
-0.00183018
-0.00183015
-0.00183013
-0.00183011
-0.00183008
-0.00183037
-0.00187658
-0.00187657
-0.00187656
-0.00187655
-0.00187654
-0.00187653
-0.00187651
-0.00187649
-0.00187647
-0.00187644
-0.00187642
-0.0018764
-0.00187638
-0.00187635
-0.00187633
-0.00187659
-0.0019228
-0.00192279
-0.00192278
-0.00192278
-0.00192277
-0.00192275
-0.00192273
-0.00192272
-0.0019227
-0.00192268
-0.00192266
-0.00192264
-0.00192262
-0.00192259
-0.00192257
-0.00192281
-0.00196902
-0.00196901
-0.001969
-0.00196899
-0.00196898
-0.00196897
-0.00196896
-0.00196894
-0.00196892
-0.0019689
-0.00196889
-0.00196887
-0.00196885
-0.00196883
-0.00196881
-0.00196902
-0.00201523
-0.00201522
-0.00201521
-0.0020152
-0.0020152
-0.00201518
-0.00201517
-0.00201516
-0.00201514
-0.00201513
-0.00201511
-0.00201509
-0.00201508
-0.00201506
-0.00201504
-0.00201523
-0.00206143
-0.00206142
-0.00206142
-0.00206141
-0.00206141
-0.00206139
-0.00206138
-0.00206137
-0.00206136
-0.00206134
-0.00206133
-0.00206132
-0.0020613
-0.00206128
-0.00206127
-0.00206143
-0.00210763
-0.00210763
-0.00210762
-0.00210761
-0.00210761
-0.0021076
-0.00210759
-0.00210758
-0.00210757
-0.00210756
-0.00210754
-0.00210753
-0.00210752
-0.0021075
-0.00210749
-0.00210763
-0.00215383
-0.00215383
-0.00215382
-0.00215381
-0.00215381
-0.00215381
-0.00215379
-0.00215379
-0.00215378
-0.00215376
-0.00215375
-0.00215374
-0.00215373
-0.00215372
-0.0021537
-0.00215383
-0.00220003
-0.00220002
-0.00220002
-0.00220001
-0.00220001
-0.0022
-0.0022
-0.00219999
-0.00219998
-0.00219997
-0.00219996
-0.00219995
-0.00219994
-0.00219992
-0.00219991
-0.00220003
-0.00224622
-0.00224622
-0.00224621
-0.00224621
-0.0022462
-0.0022462
-0.00224619
-0.00224618
-0.00224618
-0.00224617
-0.00224616
-0.00224615
-0.00224614
-0.00224613
-0.00224611
-0.00224622
-0.0022924
-0.0022924
-0.0022924
-0.0022924
-0.00229239
-0.00229239
-0.00229238
-0.00229237
-0.00229237
-0.00229236
-0.00229235
-0.00229234
-0.00229233
-0.00229232
-0.00229231
-0.00229241
-0.00233858
-0.00233858
-0.00233858
-0.00233858
-0.00233858
-0.00233857
-0.00233857
-0.00233856
-0.00233855
-0.00233855
-0.00233854
-0.00233853
-0.00233852
-0.00233851
-0.0023385
-0.00233859
-0.00238476
-0.00238476
-0.00238476
-0.00238476
-0.00238475
-0.00238475
-0.00238475
-0.00238474
-0.00238474
-0.00238473
-0.00238473
-0.00238472
-0.00238471
-0.0023847
-0.00238469
-0.00238477
-0.00243094
-0.00243094
-0.00243094
-0.00243093
-0.00243093
-0.00243093
-0.00243092
-0.00243092
-0.00243091
-0.00243091
-0.0024309
-0.0024309
-0.00243089
-0.00243088
-0.00243087
-0.00243094
-0.00247711
-0.00247711
-0.00247711
-0.0024771
-0.0024771
-0.0024771
-0.0024771
-0.00247709
-0.00247709
-0.00247708
-0.00247708
-0.00247707
-0.00247706
-0.00247706
-0.00247705
-0.00247711
-0.00252327
-0.00252327
-0.00252327
-0.00252327
-0.00252327
-0.00252326
-0.00252326
-0.00252326
-0.00252326
-0.00252325
-0.00252325
-0.00252324
-0.00252324
-0.00252323
-0.00252322
-0.00252327
-0.00256943
-0.00256943
-0.00256943
-0.00256943
-0.00256943
-0.00256943
-0.00256942
-0.00256942
-0.00256942
-0.00256942
-0.00256941
-0.00256941
-0.0025694
-0.0025694
-0.00256939
-0.00256943
-0.00261559
-0.00261559
-0.00261559
-0.00261559
-0.00261559
-0.00261559
-0.00261558
-0.00261558
-0.00261558
-0.00261558
-0.00261557
-0.00261557
-0.00261557
-0.00261556
-0.00261555
-0.00261559
-0.00266175
-0.00266175
-0.00266174
-0.00266174
-0.00266174
-0.00266174
-0.00266174
-0.00266174
-0.00266174
-0.00266173
-0.00266173
-0.00266173
-0.00266172
-0.00266172
-0.00266171
-0.00266175
-0.00270789
-0.00270789
-0.00270789
-0.00270789
-0.00270789
-0.00270789
-0.00270789
-0.00270789
-0.00270789
-0.00270789
-0.00270789
-0.00270788
-0.00270788
-0.00270787
-0.00270787
-0.00270789
-0.00275404
-0.00275404
-0.00275403
-0.00275403
-0.00275403
-0.00275403
-0.00275403
-0.00275403
-0.00275403
-0.00275403
-0.00275403
-0.00275403
-0.00275403
-0.00275402
-0.00275402
-0.00275404
-0.00280018
-0.00280018
-0.00280017
-0.00280017
-0.00280017
-0.00280017
-0.00280017
-0.00280017
-0.00280017
-0.00280017
-0.00280017
-0.00280017
-0.00280017
-0.00280017
-0.00280016
-0.00280018
-0.00284631
-0.00284631
-0.00284631
-0.00284631
-0.00284631
-0.00284631
-0.00284631
-0.00284631
-0.00284631
-0.00284631
-0.00284631
-0.00284631
-0.00284631
-0.0028463
-0.0028463
-0.00284631
-0.00289245
-0.00289245
-0.00289245
-0.00289245
-0.00289245
-0.00289245
-0.00289245
-0.00289245
-0.00289244
-0.00289245
-0.00289245
-0.00289245
-0.00289244
-0.00289244
-0.00289244
-0.00289245
-0.00293858
-0.00293857
-0.00293858
-0.00293858
-0.00293858
-0.00293858
-0.00293858
-0.00293857
-0.00293858
-0.00293858
-0.00293858
-0.00293858
-0.00293858
-0.00293858
-0.00293857
-0.00293858
-0.0029847
-0.0029847
-0.0029847
-0.0029847
-0.0029847
-0.0029847
-0.0029847
-0.0029847
-0.0029847
-0.0029847
-0.0029847
-0.0029847
-0.0029847
-0.0029847
-0.0029847
-0.0029847
-0.00303082
-0.00303082
-0.00303082
-0.00303082
-0.00303082
-0.00303082
-0.00303082
-0.00303082
-0.00303082
-0.00303082
-0.00303082
-0.00303082
-0.00303082
-0.00303082
-0.00303082
-0.00303082
-0.00307694
-0.00307694
-0.00307694
-0.00307694
-0.00307694
-0.00307694
-0.00307694
-0.00307694
-0.00307694
-0.00307694
-0.00307694
-0.00307694
-0.00307694
-0.00307694
-0.00307694
-0.00307694
)
;

boundaryField
{
    wireUpstream
    {
        type            calculated;
        value           nonuniform List<scalar> 
16
(
-0.0031
-0.0031
-0.0031
-0.0031
-0.0031
-0.0031
-0.0031
-0.0031
-0.0031
-0.0031
-0.0031
-0.0031
-0.0031
-0.0031
-0.0031
-0.0031
)
;
    }
    wireDownstream
    {
        type            calculated;
        value           nonuniform List<scalar> 
16
(
0.003
0.003
0.003
0.003
0.003
0.003
0.003
0.003
0.003
0.003
0.003
0.003
0.003
0.003
0.003
0.003
)
;
    }
    wireTopContact
    {
        type            calculated;
        value           nonuniform List<scalar> 
122
(
0.00271891
0.00266868
0.00261845
0.00256822
0.00251799
0.00246777
0.00241754
0.00236731
0.00231708
0.00226686
0.00221663
0.0021664
0.00211617
0.00206594
0.00201571
0.00196548
0.00191525
0.00186502
0.00181479
0.00176456
0.00171433
0.0016641
0.00161386
0.00156363
0.00151339
0.00146316
0.00141292
0.00136268
0.00131245
0.00126221
0.00121197
0.00116172
0.00111148
0.00106123
0.00101098
0.000960726
0.00091047
0.000860211
0.000809949
0.000759683
0.000709414
0.000659142
0.000608865
0.000558584
0.000508305
0.000458035
0.000407779
0.000357538
0.000307317
0.000257128
0.000206991
0.000156944
0.000107027
5.72753e-05
7.70808e-06
-4.16669e-05
-9.08496e-05
-0.000139844
-0.000188656
-0.000237293
-0.000285761
-0.000334069
-0.000382223
-0.000430228
-0.000478089
-0.000525808
-0.000573389
-0.000620833
-0.00066814
-0.000715308
-0.000762331
-0.000809205
-0.000855939
-0.000902566
-0.000949126
-0.000995648
-0.00104215
-0.00108863
-0.00113508
-0.00118152
-0.00122793
-0.00127433
-0.00132071
-0.00136707
-0.00141342
-0.00145976
-0.00150608
-0.0015524
-0.0015987
-0.00164499
-0.00169127
-0.00173755
-0.00178381
-0.00183007
-0.00187632
-0.00192256
-0.0019688
-0.00201504
-0.00206126
-0.00210748
-0.00215369
-0.0021999
-0.0022461
-0.0022923
-0.0023385
-0.00238468
-0.00243086
-0.00247704
-0.00252322
-0.00256938
-0.00261554
-0.0026617
-0.00270786
-0.00275401
-0.00280016
-0.0028463
-0.00289244
-0.00293857
-0.00298469
-0.00303082
-0.00307694
0.00287201
)
;
    }
    front
    {
        type            wedge;
    }
    back
    {
        type            wedge;
    }
}


// ************************************************************************* //
