/*--------------------------------*- C++ -*----------------------------------*\
| =========                 |                                                 |
| \\      /  F ield         | foam-extend: Open Source CFD                    |
|  \\    /   O peration     | Version:     4.1-20200408                       |
|   \\  /    A nd           | Web:         http://www.foam-extend.org         |
|    \\/     M anipulation  |                                                 |
\*---------------------------------------------------------------------------*/
FoamFile
{
    version     2.0;
    format      ascii;
    class       volScalarField;
    location    "0.0585000";
    object      ccy;
}
// * * * * * * * * * * * * * * * * * * * * * * * * * * * * * * * * * * * * * //

dimensions      [0 1 0 0 0 0 0];

internalField   nonuniform List<scalar> 
1952
(
7.00175e-05
0.000114032
0.000158624
0.000203413
0.000248295
0.000293233
0.00033821
0.000383217
0.00042825
0.000473309
0.000518394
0.000563511
0.000608665
0.000653857
0.000699078
3.00069e-05
7.00117e-05
0.000114023
0.00015861
0.000203395
0.000248276
0.00029321
0.000338184
0.000383189
0.00042822
0.000473278
0.000518363
0.000563482
0.000608635
0.000653831
0.000699052
3.00045e-05
7.00094e-05
0.000114019
0.000158605
0.000203389
0.000248267
0.0002932
0.000338172
0.000383176
0.000428207
0.000473261
0.000518346
0.000563461
0.000608616
0.000653807
0.000699027
3.00036e-05
7.0007e-05
0.000114015
0.0001586
0.000203382
0.000248257
0.00029319
0.00033816
0.000383162
0.00042819
0.000473244
0.000518326
0.000563441
0.000608592
0.000653781
0.000699002
3.00025e-05
7.00044e-05
0.000114011
0.000158594
0.000203373
0.000248249
0.000293178
0.000338148
0.000383148
0.000428174
0.000473227
0.000518306
0.000563417
0.000608569
0.000653756
0.000698974
3.00014e-05
7.00023e-05
0.000114005
0.000158587
0.000203366
0.000248239
0.000293166
0.000338135
0.000383132
0.000428157
0.000473208
0.000518286
0.000563396
0.000608543
0.000653731
0.000698945
3.00002e-05
6.9998e-05
0.000114002
0.000158581
0.000203357
0.000248228
0.000293155
0.00033812
0.000383117
0.000428139
0.000473189
0.000518264
0.000563372
0.000608519
0.000653704
0.000698917
2.9999e-05
6.99959e-05
0.000113997
0.000158574
0.000203349
0.000248218
0.000293143
0.000338106
0.000383101
0.000428123
0.000473168
0.000518243
0.00056335
0.000608493
0.000653676
0.000698889
2.99978e-05
6.99928e-05
0.000113992
0.000158568
0.00020334
0.000248207
0.000293131
0.000338091
0.000383084
0.000428103
0.000473149
0.00051822
0.000563325
0.000608467
0.00065365
0.00069886
2.99965e-05
6.99898e-05
0.000113987
0.000158561
0.000203332
0.000248197
0.000293118
0.000338077
0.000383068
0.000428085
0.000473128
0.000518198
0.000563302
0.000608443
0.000653622
0.00069883
2.99952e-05
6.99868e-05
0.000113982
0.000158554
0.000203323
0.000248186
0.000293105
0.000338064
0.000383052
0.000428067
0.000473108
0.000518176
0.000563278
0.000608417
0.000653595
0.000698801
2.99939e-05
6.99837e-05
0.000113977
0.000158547
0.000203314
0.000248176
0.000293092
0.000338048
0.000383035
0.000428048
0.000473088
0.000518155
0.000563254
0.000608391
0.000653567
0.000698772
2.99926e-05
6.99807e-05
0.000113972
0.00015854
0.000203305
0.000248164
0.00029308
0.000338033
0.000383019
0.00042803
0.000473067
0.000518132
0.000563231
0.000608365
0.00065354
0.000698744
2.99913e-05
6.99777e-05
0.000113967
0.000158533
0.000203297
0.000248153
0.000293067
0.00033802
0.000383002
0.000428013
0.000473047
0.000518111
0.000563206
0.000608341
0.000653512
0.000698714
2.999e-05
6.99747e-05
0.000113962
0.000158527
0.000203287
0.000248143
0.000293055
0.000338005
0.000382987
0.000427993
0.000473028
0.000518089
0.000563183
0.000608314
0.000653485
0.000698685
2.99887e-05
6.99717e-05
0.000113957
0.000158519
0.000203279
0.000248134
0.000293042
0.00033799
0.000382969
0.000427976
0.000473007
0.000518067
0.000563159
0.000608289
0.000653458
0.000698656
2.99874e-05
6.99687e-05
0.000113953
0.000158512
0.000203271
0.000248121
0.00029303
0.000337976
0.000382955
0.000427958
0.000472988
0.000518045
0.000563136
0.000608264
0.000653431
0.000698627
2.99861e-05
6.99665e-05
0.000113947
0.000158506
0.000203262
0.000248112
0.000293017
0.000337962
0.000382938
0.000427939
0.000472968
0.000518024
0.000563113
0.000608239
0.000653404
0.000698598
2.99849e-05
6.99622e-05
0.000113943
0.000158501
0.000203253
0.000248102
0.000293005
0.000337949
0.000382921
0.000427923
0.000472949
0.000518003
0.00056309
0.000608214
0.000653377
0.000698569
2.99841e-05
6.996e-05
0.000113939
0.000158494
0.000203246
0.000248091
0.000292994
0.000337934
0.000382907
0.000427905
0.000472929
0.000517982
0.000563067
0.000608189
0.00065335
0.000698541
2.99819e-05
6.9958e-05
0.000113934
0.000158487
0.000203237
0.000248082
0.000292982
0.000337921
0.000382891
0.000427888
0.00047291
0.000517961
0.000563044
0.000608164
0.000653324
0.000698512
2.99812e-05
6.99545e-05
0.00011393
0.000158481
0.00020323
0.000248072
0.000292969
0.000337908
0.000382876
0.00042787
0.000472892
0.00051794
0.000563021
0.00060814
0.000653298
0.000698484
2.998e-05
6.99511e-05
0.000113926
0.000158474
0.000203221
0.000248062
0.000292959
0.000337893
0.000382861
0.000427854
0.000472872
0.000517919
0.000562999
0.000608115
0.000653272
0.000698455
2.99789e-05
6.99491e-05
0.00011392
0.000158469
0.000203213
0.000248052
0.000292947
0.000337882
0.000382846
0.000427837
0.000472854
0.000517899
0.000562976
0.000608092
0.000653244
0.000698428
2.99777e-05
6.99471e-05
0.000113915
0.000158462
0.000203205
0.000248043
0.000292937
0.000337868
0.000382831
0.00042782
0.000472835
0.000517879
0.000562953
0.000608066
0.000653219
0.000698399
2.99765e-05
6.99436e-05
0.000113913
0.000158456
0.000203197
0.000248034
0.000292924
0.000337854
0.000382817
0.000427803
0.000472816
0.000517858
0.000562931
0.000608042
0.000653193
0.000698371
2.99754e-05
6.99401e-05
0.000113907
0.00015845
0.000203189
0.000248023
0.000292913
0.000337842
0.000382801
0.000427786
0.000472798
0.000517837
0.000562908
0.000608018
0.000653165
0.000698342
2.99747e-05
6.99381e-05
0.000113903
0.000158443
0.000203181
0.000248014
0.000292901
0.000337828
0.000382786
0.000427769
0.000472779
0.000517816
0.000562887
0.000607992
0.00065314
0.000698313
2.99725e-05
6.99352e-05
0.000113898
0.000158437
0.000203173
0.000248003
0.000292889
0.000337815
0.000382769
0.000427753
0.00047276
0.000517796
0.000562862
0.000607969
0.000653112
0.000698284
2.99718e-05
6.99322e-05
0.000113893
0.00015843
0.000203165
0.000247992
0.000292878
0.000337799
0.000382755
0.000427734
0.000472741
0.000517773
0.00056284
0.000607942
0.000653084
0.000698255
2.99705e-05
6.9929e-05
0.000113888
0.000158424
0.000203155
0.000247983
0.000292863
0.000337786
0.000382737
0.000427716
0.00047272
0.000517751
0.000562815
0.000607916
0.000653057
0.000698224
2.99696e-05
6.99263e-05
0.000113882
0.000158415
0.000203146
0.00024797
0.000292851
0.00033777
0.00038272
0.000427696
0.000472699
0.000517729
0.000562791
0.00060789
0.000653028
0.000698194
2.99671e-05
6.99219e-05
0.000113876
0.000158407
0.000203136
0.000247957
0.000292835
0.000337753
0.000382702
0.000427676
0.000472676
0.000517704
0.000562765
0.000607862
0.000652998
0.00069816
2.9966e-05
6.99177e-05
0.00011387
0.000158398
0.000203123
0.000247943
0.00029282
0.000337735
0.000382681
0.000427653
0.000472653
0.000517678
0.000562736
0.000607833
0.000652966
0.000698128
2.99642e-05
6.99128e-05
0.000113862
0.000158388
0.000203109
0.000247927
0.000292802
0.000337714
0.000382657
0.000427629
0.000472625
0.00051765
0.000562706
0.0006078
0.000652931
0.00069809
2.99621e-05
6.9907e-05
0.000113853
0.000158374
0.000203094
0.000247909
0.000292779
0.00033769
0.000382632
0.0004276
0.000472595
0.000517617
0.000562673
0.000607764
0.000652894
0.000698051
2.99599e-05
6.99005e-05
0.000113842
0.00015836
0.000203076
0.000247887
0.000292754
0.000337662
0.000382601
0.000427568
0.000472561
0.000517582
0.000562635
0.000607725
0.000652853
0.000698008
2.99569e-05
6.98928e-05
0.000113829
0.000158343
0.000203054
0.000247861
0.000292725
0.00033763
0.000382566
0.00042753
0.000472521
0.000517541
0.000562592
0.000607681
0.000652807
0.00069796
2.99535e-05
6.98835e-05
0.000113814
0.000158323
0.000203029
0.00024783
0.00029269
0.000337591
0.000382524
0.000427486
0.000472474
0.000517492
0.000562543
0.00060763
0.000652755
0.000697906
2.99496e-05
6.98724e-05
0.000113797
0.000158299
0.000202998
0.000247794
0.000292649
0.000337545
0.000382475
0.000427433
0.000472419
0.000517435
0.000562484
0.000607571
0.000652695
0.000697844
2.99448e-05
6.98594e-05
0.000113776
0.000158269
0.000202961
0.000247751
0.000292599
0.00033749
0.000382415
0.00042737
0.000472353
0.000517367
0.000562415
0.000607501
0.000652624
0.000697773
2.99392e-05
6.9844e-05
0.000113751
0.000158235
0.000202919
0.0002477
0.000292541
0.000337425
0.000382344
0.000427294
0.000472274
0.000517285
0.000562332
0.000607418
0.000652541
0.000697689
2.99325e-05
6.98261e-05
0.000113722
0.000158196
0.000202869
0.00024764
0.000292472
0.000337347
0.000382259
0.000427204
0.000472179
0.000517188
0.000562232
0.000607318
0.000652441
0.00069759
2.99249e-05
6.98057e-05
0.000113689
0.00015815
0.000202811
0.000247571
0.000292391
0.000337257
0.00038216
0.000427097
0.000472066
0.00051707
0.000562112
0.000607196
0.00065232
0.00069747
2.9916e-05
6.97827e-05
0.000113651
0.000158098
0.000202745
0.000247491
0.000292299
0.000337153
0.000382046
0.000426972
0.000471933
0.00051693
0.000561966
0.000607047
0.000652169
0.000697318
2.99062e-05
6.97572e-05
0.00011361
0.000158041
0.000202673
0.000247404
0.000292197
0.000337037
0.000381916
0.000426829
0.000471778
0.000516765
0.000561793
0.000606865
0.000651981
0.000697124
2.98953e-05
6.973e-05
0.000113566
0.00015798
0.000202594
0.000247309
0.000292085
0.000336909
0.000381772
0.000426671
0.000471606
0.000516579
0.000561593
0.000606654
0.000651757
0.000696889
2.98837e-05
6.97017e-05
0.00011352
0.000157916
0.000202512
0.000247208
0.000291967
0.000336773
0.000381619
0.000426501
0.00047142
0.000516377
0.000561376
0.000606422
0.000651513
0.000696631
2.98715e-05
6.96733e-05
0.000113474
0.000157851
0.000202429
0.000247107
0.000291848
0.000336635
0.000381463
0.000426327
0.000471227
0.000516168
0.000561151
0.000606183
0.000651259
0.000696367
2.98593e-05
6.96459e-05
0.000113429
0.000157789
0.00020235
0.000247009
0.000291732
0.000336501
0.00038131
0.000426155
0.000471037
0.00051596
0.000560927
0.000605945
0.000651009
0.000696108
2.98476e-05
6.96212e-05
0.000113389
0.000157733
0.000202277
0.00024692
0.000291626
0.000336377
0.000381169
0.000425996
0.00047086
0.000515765
0.000560716
0.00060572
0.000650772
0.00069587
2.9837e-05
6.96007e-05
0.000113355
0.000157686
0.000202217
0.000246846
0.000291537
0.000336274
0.00038105
0.000425861
0.000470709
0.000515597
0.000560532
0.000605521
0.000650566
0.000695674
2.98283e-05
6.95864e-05
0.000113332
0.000157654
0.000202175
0.000246794
0.000291474
0.0003362
0.000380964
0.000425763
0.000470597
0.000515471
0.000560393
0.000605371
0.00065042
0.000695555
2.98221e-05
6.95799e-05
0.000113321
0.000157638
0.000202154
0.000246769
0.000291444
0.000336163
0.000380921
0.000425713
0.000470542
0.000515412
0.000560333
0.000605318
0.000650391
0.000695571
2.98193e-05
6.95822e-05
0.000113325
0.000157644
0.000202161
0.000246778
0.000291455
0.000336178
0.00038094
0.000425741
0.000470582
0.000515469
0.000560415
0.000605432
0.000650551
0.000695792
2.98204e-05
6.95965e-05
0.000113348
0.000157677
0.000202207
0.000246838
0.000291532
0.000336276
0.000381065
0.000425897
0.000470777
0.00051571
0.000560708
0.000605784
0.000650968
0.00069628
2.98265e-05
6.96305e-05
0.000113405
0.00015776
0.000202319
0.000246984
0.000291718
0.000336509
0.000381351
0.000426242
0.000471189
0.000516193
0.000561268
0.000606424
0.000651688
0.000697074
2.98409e-05
6.96971e-05
0.000113516
0.000157919
0.000202532
0.000247256
0.000292057
0.00033692
0.000381841
0.000426818
0.000471855
0.000516953
0.000562123
0.000607371
0.000652721
0.000698181
2.98691e-05
6.98081e-05
0.000113699
0.000158179
0.000202873
0.000247683
0.000292576
0.000337536
0.00038256
0.000427642
0.000472787
0.000517994
0.000563269
0.000608617
0.000654054
0.000699582
2.99162e-05
6.99691e-05
0.000113962
0.000158548
0.000203351
0.000248273
0.00029328
0.000338359
0.000383501
0.000428704
0.000473968
0.000519293
0.00056468
0.00061013
0.000655652
0.000701242
2.9985e-05
7.0178e-05
0.000114303
0.000159021
0.000203957
0.000249013
0.000294153
0.000339364
0.000384638
0.000429972
0.000475363
0.00052081
0.000566312
0.000611863
0.000657468
0.000703115
3.00746e-05
7.04253e-05
0.000114704
0.000159577
0.000204665
0.00024987
0.000295158
0.000340512
0.000385926
0.000431396
0.000476918
0.00052249
0.000568106
0.000613759
0.000659444
0.000705147
3.01807e-05
7.06964e-05
0.000115144
0.000160183
0.000205436
0.000250802
0.000296244
0.000341749
0.000387308
0.000432917
0.000478572
0.000524269
0.000569999
0.000615753
0.000661519
0.000707276
3.02972e-05
7.09745e-05
0.000115594
0.000160806
0.000206227
0.000251757
0.000297358
0.000343015
0.000388721
0.000434471
0.00048026
0.000526081
0.000571926
0.000617781
0.000663628
0.000709442
3.04167e-05
7.12437e-05
0.000116031
0.00016141
0.000206996
0.000252687
0.000298445
0.000344254
0.000390105
0.000435995
0.000481916
0.000527862
0.00057382
0.000619777
0.000665707
0.000711583
3.05322e-05
7.14915e-05
0.000116434
0.000161969
0.00020771
0.000253553
0.00029946
0.000345415
0.000391408
0.000437433
0.000483484
0.000529552
0.000575623
0.000621682
0.000667699
0.000713642
3.06386e-05
7.17103e-05
0.00011679
0.000162464
0.000208344
0.000254326
0.000300371
0.000346461
0.000392587
0.000438741
0.000484916
0.000531103
0.000577285
0.000623446
0.000669552
0.000715569
3.07324e-05
7.18974e-05
0.000117095
0.000162889
0.000208889
0.000254991
0.000301157
0.000347369
0.000393614
0.000439887
0.000486177
0.000532477
0.000578767
0.000625029
0.000671225
0.000717323
3.08126e-05
7.2054e-05
0.000117351
0.000163244
0.000209344
0.000255548
0.000301815
0.000348129
0.000394478
0.000440855
0.000487249
0.000533652
0.000580043
0.000626403
0.000672691
0.000718874
3.08798e-05
7.21838e-05
0.000117561
0.000163537
0.00020972
0.000256006
0.000302355
0.000348751
0.000395184
0.000441645
0.000488126
0.000534618
0.0005811
0.000627552
0.000673932
0.000720206
3.09353e-05
7.22906e-05
0.000117735
0.000163778
0.000210027
0.000256379
0.000302794
0.000349254
0.000395749
0.000442274
0.000488821
0.000535382
0.00058194
0.000628473
0.000674942
0.000721311
3.09812e-05
7.23789e-05
0.000117878
0.000163975
0.000210278
0.000256683
0.00030315
0.000349659
0.000396202
0.000442771
0.000489362
0.000535969
0.000582579
0.000629177
0.000675727
0.000722192
3.10191e-05
7.24526e-05
0.000117998
0.00016414
0.000210487
0.000256934
0.000303441
0.000349989
0.000396566
0.000443167
0.000489787
0.000536422
0.000583063
0.000629702
0.000676314
0.000722865
3.10508e-05
7.25151e-05
0.000118099
0.000164279
0.000210663
0.000257145
0.000303684
0.000350261
0.000396866
0.000443492
0.000490134
0.000536787
0.000583445
0.000630104
0.000676751
0.000723364
3.10776e-05
7.25677e-05
0.000118184
0.000164397
0.000210812
0.000257322
0.000303888
0.00035049
0.000397118
0.000443764
0.000490423
0.00053709
0.00058376
0.000630429
0.000677091
0.000723738
3.11003e-05
7.26124e-05
0.000118256
0.000164496
0.000210937
0.000257472
0.000304061
0.000350684
0.00039733
0.000443992
0.000490664
0.000537343
0.000584023
0.0006307
0.000677371
0.000724034
3.11194e-05
7.26499e-05
0.000118318
0.00016458
0.000211042
0.000257599
0.000304206
0.000350846
0.000397507
0.000444183
0.000490865
0.000537553
0.000584242
0.000630927
0.000677606
0.000724277
3.11359e-05
7.26827e-05
0.000118368
0.00016465
0.000211131
0.000257704
0.000304326
0.00035098
0.000397654
0.000444338
0.000491032
0.000537729
0.000584423
0.000631117
0.000677804
0.000724484
3.11494e-05
7.27079e-05
0.000118411
0.000164707
0.000211203
0.00025779
0.000304426
0.000351091
0.000397774
0.000444469
0.00049117
0.000537872
0.000584576
0.000631275
0.000677971
0.000724659
3.116e-05
7.27285e-05
0.000118445
0.000164756
0.000211263
0.00025786
0.000304507
0.00035118
0.000397874
0.000444575
0.000491283
0.000537993
0.000584702
0.000631408
0.000678111
0.000724807
3.11704e-05
7.27476e-05
0.000118473
0.000164793
0.000211311
0.000257919
0.000304573
0.000351256
0.000397954
0.000444663
0.000491376
0.000538093
0.000584808
0.000631521
0.00067823
0.000724934
3.11774e-05
7.27609e-05
0.000118497
0.000164824
0.000211351
0.000257965
0.000304627
0.000351316
0.000398021
0.000444735
0.000491455
0.000538175
0.000584897
0.000631615
0.000678331
0.000725042
3.11834e-05
7.27722e-05
0.000118514
0.00016485
0.000211383
0.000258004
0.000304671
0.000351364
0.000398075
0.000444794
0.000491519
0.000538245
0.00058497
0.000631696
0.000678417
0.000725137
3.11883e-05
7.27821e-05
0.000118529
0.000164871
0.000211407
0.000258034
0.000304707
0.000351405
0.00039812
0.000444843
0.000491572
0.000538303
0.000585034
0.000631764
0.000678492
0.000725217
3.11922e-05
7.27886e-05
0.000118541
0.000164886
0.00021143
0.000258058
0.000304734
0.000351438
0.000398158
0.000444884
0.000491616
0.000538353
0.000585087
0.000631823
0.000678557
0.000725289
3.11953e-05
7.27944e-05
0.00011855
0.0001649
0.000211444
0.000258079
0.000304759
0.000351464
0.000398186
0.000444918
0.000491655
0.000538394
0.000585133
0.000631874
0.000678613
0.000725351
3.11978e-05
7.27991e-05
0.000118558
0.00016491
0.000211458
0.000258095
0.000304778
0.000351487
0.000398213
0.000444947
0.000491686
0.00053843
0.000585174
0.000631918
0.000678664
0.000725406
3.11998e-05
7.28029e-05
0.000118565
0.000164919
0.000211469
0.000258108
0.000304793
0.000351506
0.000398234
0.000444971
0.000491716
0.000538461
0.00058521
0.000631959
0.000678707
0.000725457
3.12015e-05
7.28061e-05
0.000118569
0.000164924
0.000211479
0.00025812
0.000304808
0.000351521
0.000398252
0.000444993
0.000491739
0.000538489
0.000585242
0.000631995
0.000678749
0.000725501
3.12034e-05
7.28087e-05
0.000118573
0.000164932
0.000211486
0.000258129
0.000304819
0.000351536
0.000398269
0.000445012
0.00049176
0.000538515
0.00058527
0.000632027
0.000678784
0.000725542
3.1204e-05
7.28109e-05
0.000118577
0.000164937
0.000211494
0.000258138
0.00030483
0.000351548
0.000398284
0.000445028
0.000491781
0.000538537
0.000585296
0.000632057
0.000678818
0.00072558
3.12049e-05
7.28129e-05
0.000118581
0.000164942
0.000211499
0.000258146
0.000304839
0.00035156
0.000398296
0.000445044
0.000491799
0.000538558
0.00058532
0.000632083
0.00067885
0.000725615
3.12052e-05
7.28147e-05
0.000118583
0.000164946
0.000211506
0.000258152
0.000304848
0.000351569
0.000398309
0.000445059
0.000491816
0.000538578
0.000585342
0.000632109
0.000678879
0.000725647
3.12071e-05
7.28164e-05
0.000118586
0.000164949
0.00021151
0.000258161
0.000304855
0.00035158
0.00039832
0.000445073
0.000491832
0.000538596
0.000585364
0.000632133
0.000678905
0.000725678
3.12072e-05
7.2818e-05
0.000118589
0.000164953
0.000211516
0.000258165
0.000304864
0.000351589
0.000398332
0.000445085
0.000491847
0.000538614
0.000585383
0.000632157
0.000678931
0.000725706
3.12079e-05
7.28195e-05
0.000118591
0.000164957
0.00021152
0.000258172
0.000304871
0.000351598
0.000398342
0.000445098
0.000491862
0.00053863
0.000585404
0.000632178
0.000678955
0.000725735
3.12086e-05
7.28218e-05
0.000118594
0.00016496
0.000211524
0.000258177
0.000304878
0.000351607
0.000398353
0.000445111
0.000491876
0.000538647
0.000585421
0.000632199
0.00067898
0.00072576
3.12092e-05
7.28225e-05
0.000118596
0.000164964
0.000211529
0.000258183
0.000304886
0.000351615
0.000398363
0.000445122
0.00049189
0.000538663
0.000585439
0.00063222
0.000679001
0.000725785
3.12099e-05
7.2824e-05
0.000118599
0.000164967
0.000211534
0.000258189
0.000304892
0.000351624
0.000398374
0.000445134
0.000491903
0.000538678
0.000585458
0.000632238
0.000679023
0.000725809
3.12105e-05
7.28255e-05
0.000118601
0.000164972
0.000211537
0.000258195
0.0003049
0.000351632
0.000398383
0.000445146
0.000491915
0.000538693
0.000585474
0.000632258
0.000679045
0.00072583
3.12111e-05
7.2827e-05
0.000118604
0.000164974
0.000211543
0.000258201
0.000304906
0.00035164
0.000398393
0.000445157
0.000491929
0.000538707
0.00058549
0.000632277
0.000679064
0.000725854
3.12118e-05
7.28285e-05
0.000118605
0.000164979
0.000211547
0.000258206
0.000304913
0.000351649
0.000398402
0.000445168
0.000491943
0.000538722
0.000585506
0.000632294
0.000679084
0.000725876
3.12124e-05
7.28301e-05
0.000118609
0.000164981
0.000211553
0.000258211
0.000304921
0.000351657
0.000398412
0.000445179
0.000491954
0.000538735
0.000585522
0.000632311
0.000679104
0.000725895
3.12131e-05
7.28316e-05
0.000118611
0.000164985
0.000211556
0.000258218
0.000304927
0.000351665
0.000398422
0.000445189
0.000491966
0.000538749
0.000585537
0.000632327
0.000679121
0.000725915
3.12137e-05
7.28323e-05
0.000118614
0.000164989
0.000211561
0.000258223
0.000304934
0.000351673
0.000398429
0.000445201
0.000491978
0.000538762
0.000585551
0.000632343
0.000679139
0.000725935
3.12144e-05
7.28346e-05
0.000118616
0.000164992
0.000211565
0.000258229
0.00030494
0.00035168
0.00039844
0.000445209
0.00049199
0.000538775
0.000585565
0.000632359
0.000679156
0.000725953
3.1215e-05
7.28368e-05
0.000118618
0.000164995
0.000211569
0.000258235
0.000304947
0.000351688
0.000398448
0.00044522
0.000492001
0.000538788
0.000585579
0.000632375
0.000679172
0.00072597
3.12156e-05
7.28375e-05
0.000118621
0.000164998
0.000211575
0.000258239
0.000304953
0.000351696
0.000398455
0.00044523
0.00049201
0.000538801
0.000585593
0.000632388
0.000679188
0.000725989
3.12162e-05
7.28388e-05
0.000118623
0.000165002
0.000211577
0.000258245
0.000304959
0.000351703
0.000398465
0.000445239
0.000492023
0.000538811
0.000585605
0.000632404
0.000679203
0.000726004
3.12168e-05
7.28401e-05
0.000118625
0.000165005
0.000211583
0.000258249
0.000304964
0.00035171
0.000398473
0.000445247
0.000492031
0.000538823
0.000585618
0.000632416
0.000679218
0.00072602
3.12173e-05
7.28413e-05
0.000118627
0.000165007
0.000211585
0.000258254
0.000304971
0.000351715
0.00039848
0.000445256
0.000492042
0.000538832
0.00058563
0.000632428
0.000679232
0.000726035
3.12179e-05
7.28425e-05
0.000118629
0.000165009
0.000211589
0.000258258
0.000304975
0.000351722
0.000398486
0.000445264
0.00049205
0.000538844
0.00058564
0.000632441
0.000679246
0.000726049
3.12184e-05
7.28435e-05
0.000118631
0.000165014
0.000211592
0.000258261
0.00030498
0.000351727
0.000398493
0.000445271
0.000492059
0.000538852
0.00058565
0.000632453
0.000679256
0.000726063
3.12188e-05
7.28445e-05
0.000118632
0.000165015
0.000211595
0.000258266
0.000304984
0.000351732
0.000398499
0.000445278
0.000492066
0.000538861
0.00058566
0.000632463
0.000679269
0.000726075
3.12192e-05
7.28453e-05
0.000118634
0.000165016
0.000211597
0.000258269
0.000304988
0.000351737
0.000398504
0.000445284
0.000492073
0.000538868
0.000585669
0.000632472
0.000679278
0.000726086
3.12196e-05
7.2846e-05
0.000118635
0.000165019
0.0002116
0.000258271
0.000304991
0.00035174
0.000398508
0.000445289
0.000492078
0.000538875
0.000585676
0.000632481
0.000679288
0.000726097
3.12199e-05
7.28466e-05
0.000118636
0.000165019
0.000211601
0.000258274
0.000304994
0.000351743
0.000398512
0.000445293
0.000492083
0.00053888
0.000585682
0.000632487
0.000679297
0.000726105
3.12201e-05
7.28471e-05
0.000118636
0.00016502
0.000211603
0.000258275
0.000304996
0.000351745
0.000398514
0.000445296
0.000492087
0.000538884
0.000585687
0.000632494
0.000679303
0.000726112
3.12203e-05
7.28473e-05
0.000118637
0.000165021
0.000211604
0.000258276
0.000304997
0.000351747
0.000398516
0.000445298
0.000492089
0.000538887
0.00058569
0.000632497
0.000679307
0.000726118
3.12204e-05
7.28475e-05
0.000118637
0.000165022
0.000211604
0.000258277
0.000304997
0.000351748
0.000398517
0.000445299
0.00049209
0.000538889
0.000585692
0.000632499
0.000679309
0.000726122
3.12205e-05
7.28475e-05
0.000118637
0.000165022
0.000211604
0.000258277
0.000304998
0.000351748
0.000398518
0.0004453
0.000492091
0.000538889
0.000585692
0.000632499
0.00067931
0.000726122
3.12205e-05
7.28475e-05
0.000118637
0.000165022
0.000211604
0.000258277
0.000304998
0.000351748
0.000398518
0.0004453
0.000492091
0.000538889
0.000585692
0.000632499
0.00067931
0.000726122
3.12205e-05
)
;

boundaryField
{
    wireUpstream
    {
        type            calculated;
        value           nonuniform List<scalar> 
16
(
7.28475e-05
0.000118637
0.000165022
0.000211604
0.000258277
0.000304998
0.000351748
0.000398518
0.0004453
0.000492091
0.000538889
0.000585692
0.000632499
0.00067931
0.000726122
3.12205e-05
)
;
    }
    wireDownstream
    {
        type            calculated;
        value           nonuniform List<scalar> 
16
(
7.00147e-05
0.000114027
0.000158617
0.000203404
0.000248286
0.000293223
0.000338199
0.000383206
0.00042824
0.0004733
0.000518388
0.000563507
0.000608665
0.000653861
0.000699086
3.00059e-05
)
;
    }
    wireTopContact
    {
        type            calculated;
        value           nonuniform List<scalar> 
122
(
0.000721432
0.000721406
0.000721379
0.000721351
0.000721322
0.000721293
0.000721263
0.000721233
0.000721203
0.000721173
0.000721143
0.000721113
0.000721083
0.000721053
0.000721023
0.000720993
0.000720964
0.000720934
0.000720905
0.000720875
0.000720846
0.000720817
0.000720787
0.000720758
0.000720729
0.000720699
0.000720669
0.000720639
0.000720609
0.000720577
0.000720545
0.000720511
0.000720476
0.000720439
0.000720398
0.000720354
0.000720305
0.00072025
0.000720187
0.000720114
0.00072003
0.000719931
0.000719811
0.000719659
0.000719461
0.000719222
0.000718959
0.000718691
0.000718431
0.000718196
0.000718011
0.000717915
0.000717963
0.000718221
0.000718747
0.000719577
0.000720717
0.000722145
0.000723827
0.000725719
0.000727768
0.000729914
0.000732099
0.000734262
0.000736347
0.000738304
0.000740093
0.000741684
0.00074306
0.000744214
0.000745146
0.000745868
0.000746408
0.000746808
0.000747116
0.000747366
0.000747576
0.000747756
0.000747909
0.00074804
0.000748153
0.000748251
0.000748336
0.00074841
0.000748476
0.000748534
0.000748587
0.000748634
0.000748678
0.000748717
0.000748754
0.000748789
0.000748821
0.000748851
0.000748879
0.000748907
0.000748933
0.000748958
0.000748982
0.000749005
0.000749027
0.000749049
0.000749069
0.000749089
0.000749108
0.000749126
0.000749144
0.000749161
0.000749177
0.000749193
0.000749208
0.000749222
0.000749235
0.000749247
0.000749257
0.000749267
0.000749275
0.00074928
0.000749283
0.000749284
0.000749284
0.000721456
)
;
    }
    front
    {
        type            wedge;
    }
    back
    {
        type            wedge;
    }
}


// ************************************************************************* //
