/*--------------------------------*- C++ -*----------------------------------*\
| =========                 |                                                 |
| \\      /  F ield         | foam-extend: Open Source CFD                    |
|  \\    /   O peration     | Version:     4.1-20200408                       |
|   \\  /    A nd           | Web:         http://www.foam-extend.org         |
|    \\/     M anipulation  |                                                 |
\*---------------------------------------------------------------------------*/
FoamFile
{
    version     2.0;
    format      ascii;
    class       volVectorField;
    location    "0.0585000";
    object      DU_0;
}
// * * * * * * * * * * * * * * * * * * * * * * * * * * * * * * * * * * * * * //

dimensions      [0 1 0 0 0 0 0];

internalField   nonuniform List<vector> 
1952
(
(5.00004e-05 -7.24111e-10 0)
(5.00005e-05 -1.13958e-09 0)
(5.00006e-05 -1.61791e-09 0)
(5.00008e-05 -1.97986e-09 0)
(5.0001e-05 -2.43934e-09 0)
(5.00013e-05 -2.72773e-09 0)
(5.00017e-05 -3.13295e-09 0)
(5.0002e-05 -3.31997e-09 0)
(5.00026e-05 -3.62242e-09 0)
(5.00032e-05 -3.67588e-09 0)
(5.00041e-05 -3.84886e-09 0)
(5.0005e-05 -3.74499e-09 0)
(5.00061e-05 -3.76617e-09 0)
(5.00074e-05 -3.53133e-09 0)
(5.00091e-05 -3.55607e-09 0)
(5.00004e-05 -3.06981e-10 0)
(5.00005e-05 -5.03458e-10 0)
(5.00006e-05 -8.04982e-10 0)
(5.00008e-05 -1.11099e-09 0)
(5.00009e-05 -1.36958e-09 0)
(5.00012e-05 -1.63889e-09 0)
(5.00015e-05 -1.82717e-09 0)
(5.00019e-05 -2.0341e-09 0)
(5.00023e-05 -2.12453e-09 0)
(5.00029e-05 -2.23394e-09 0)
(5.00035e-05 -2.20492e-09 0)
(5.00044e-05 -2.21539e-09 0)
(5.00053e-05 -2.07775e-09 0)
(5.00065e-05 -2.01107e-09 0)
(5.00078e-05 -1.82377e-09 0)
(5.00093e-05 -1.80049e-09 0)
(5.00005e-05 -2.15498e-10 0)
(5.00009e-05 -3.10001e-10 0)
(5.0001e-05 -4.93131e-10 0)
(5.00012e-05 -6.7012e-10 0)
(5.00014e-05 -8.15215e-10 0)
(5.00017e-05 -9.52734e-10 0)
(5.0002e-05 -1.03358e-09 0)
(5.00024e-05 -1.11117e-09 0)
(5.00028e-05 -1.10683e-09 0)
(5.00035e-05 -1.10528e-09 0)
(5.00041e-05 -1.007e-09 0)
(5.00049e-05 -9.34157e-10 0)
(5.00057e-05 -7.66124e-10 0)
(5.00068e-05 -6.69466e-10 0)
(5.00078e-05 -5.14779e-10 0)
(5.0009e-05 -5.45913e-10 0)
(5.00009e-05 -1.3295e-10 0)
(5.00014e-05 -1.47037e-10 0)
(5.00015e-05 -2.2962e-10 0)
(5.00017e-05 -3.03308e-10 0)
(5.00019e-05 -3.52015e-10 0)
(5.00022e-05 -3.89578e-10 0)
(5.00025e-05 -3.83159e-10 0)
(5.0003e-05 -3.70738e-10 0)
(5.00034e-05 -2.96345e-10 0)
(5.0004e-05 -2.26419e-10 0)
(5.00046e-05 -8.82609e-11 0)
(5.00054e-05 2.03042e-11 0)
(5.00062e-05 1.8692e-10 0)
(5.00071e-05 2.81572e-10 0)
(5.0008e-05 4.03282e-10 0)
(5.00089e-05 3.84345e-10 0)
(5.00014e-05 -6.32849e-11 0)
(5.00021e-05 -1.42203e-11 0)
(5.00022e-05 -1.47418e-11 0)
(5.00024e-05 -7.05252e-12 0)
(5.00026e-05 2.19546e-11 0)
(5.00029e-05 5.89981e-11 0)
(5.00032e-05 1.32921e-10 0)
(5.00036e-05 2.07372e-10 0)
(5.00041e-05 3.31668e-10 0)
(5.00047e-05 4.42797e-10 0)
(5.00052e-05 6.05523e-10 0)
(5.0006e-05 7.31043e-10 0)
(5.00066e-05 8.94641e-10 0)
(5.00074e-05 9.84743e-10 0)
(5.00082e-05 1.08581e-09 0)
(5.00089e-05 1.0648e-09 0)
(5.0002e-05 -6.37247e-12 0)
(5.00028e-05 9.00988e-11 0)
(5.00029e-05 1.53637e-10 0)
(5.00031e-05 2.23529e-10 0)
(5.00033e-05 3.11871e-10 0)
(5.00036e-05 4.03063e-10 0)
(5.00039e-05 5.25941e-10 0)
(5.00044e-05 6.41381e-10 0)
(5.00047e-05 7.98381e-10 0)
(5.00053e-05 9.32278e-10 0)
(5.00058e-05 1.10669e-09 0)
(5.00065e-05 1.23629e-09 0)
(5.00071e-05 1.39231e-09 0)
(5.00078e-05 1.4768e-09 0)
(5.00084e-05 1.56656e-09 0)
(5.00089e-05 1.55828e-09 0)
(5.00028e-05 3.83764e-11 0)
(5.00036e-05 1.68387e-10 0)
(5.00037e-05 2.7969e-10 0)
(5.00039e-05 3.95186e-10 0)
(5.0004e-05 5.26711e-10 0)
(5.00044e-05 6.55562e-10 0)
(5.00046e-05 8.12336e-10 0)
(5.00051e-05 9.53576e-10 0)
(5.00055e-05 1.13113e-09 0)
(5.0006e-05 1.27651e-09 0)
(5.00065e-05 1.45634e-09 0)
(5.00071e-05 1.58549e-09 0)
(5.00076e-05 1.73582e-09 0)
(5.00081e-05 1.81729e-09 0)
(5.00086e-05 1.90264e-09 0)
(5.0009e-05 1.9066e-09 0)
(5.00035e-05 7.19933e-11 0)
(5.00044e-05 2.23838e-10 0)
(5.00045e-05 3.68722e-10 0)
(5.00047e-05 5.15659e-10 0)
(5.00048e-05 6.76699e-10 0)
(5.00051e-05 8.29915e-10 0)
(5.00054e-05 1.00858e-09 0)
(5.00058e-05 1.16437e-09 0)
(5.00062e-05 1.35367e-09 0)
(5.00067e-05 1.50317e-09 0)
(5.00071e-05 1.68451e-09 0)
(5.00076e-05 1.81093e-09 0)
(5.0008e-05 1.95728e-09 0)
(5.00085e-05 2.03829e-09 0)
(5.00089e-05 2.12465e-09 0)
(5.00092e-05 2.14389e-09 0)
(5.00043e-05 9.58275e-11 0)
(5.00052e-05 2.59817e-10 0)
(5.00053e-05 4.26311e-10 0)
(5.00055e-05 5.92918e-10 0)
(5.00056e-05 7.72351e-10 0)
(5.00059e-05 9.39408e-10 0)
(5.00062e-05 1.13087e-09 0)
(5.00066e-05 1.29301e-09 0)
(5.00069e-05 1.48826e-09 0)
(5.00073e-05 1.6373e-09 0)
(5.00077e-05 1.81864e-09 0)
(5.00082e-05 1.94192e-09 0)
(5.00085e-05 2.08681e-09 0)
(5.00089e-05 2.16959e-09 0)
(5.00092e-05 2.26055e-09 0)
(5.00095e-05 2.29521e-09 0)
(5.00051e-05 1.11313e-10 0)
(5.0006e-05 2.79549e-10 0)
(5.00061e-05 4.57749e-10 0)
(5.00062e-05 6.34396e-10 0)
(5.00064e-05 8.23301e-10 0)
(5.00067e-05 9.95954e-10 0)
(5.00069e-05 1.19334e-09 0)
(5.00073e-05 1.35589e-09 0)
(5.00076e-05 1.55314e-09 0)
(5.0008e-05 1.69886e-09 0)
(5.00083e-05 1.87964e-09 0)
(5.00087e-05 1.99998e-09 0)
(5.0009e-05 2.14551e-09 0)
(5.00093e-05 2.23185e-09 0)
(5.00096e-05 2.32998e-09 0)
(5.00098e-05 2.38034e-09 0)
(5.00059e-05 1.19828e-10 0)
(5.00068e-05 2.8602e-10 0)
(5.00068e-05 4.67904e-10 0)
(5.0007e-05 6.46863e-10 0)
(5.00072e-05 8.38253e-10 0)
(5.00074e-05 1.01008e-09 0)
(5.00076e-05 1.20838e-09 0)
(5.0008e-05 1.36695e-09 0)
(5.00082e-05 1.56377e-09 0)
(5.00086e-05 1.70431e-09 0)
(5.00089e-05 1.88472e-09 0)
(5.00092e-05 2.00252e-09 0)
(5.00095e-05 2.15065e-09 0)
(5.00098e-05 2.24179e-09 0)
(5.00099e-05 2.34883e-09 0)
(5.00101e-05 2.41455e-09 0)
(5.00067e-05 1.22652e-10 0)
(5.00075e-05 2.81781e-10 0)
(5.00076e-05 4.60923e-10 0)
(5.00077e-05 6.3603e-10 0)
(5.00079e-05 8.24461e-10 0)
(5.00082e-05 9.90504e-10 0)
(5.00083e-05 1.186e-09 0)
(5.00087e-05 1.33739e-09 0)
(5.00089e-05 1.53219e-09 0)
(5.00092e-05 1.66638e-09 0)
(5.00095e-05 1.84681e-09 0)
(5.00098e-05 1.96258e-09 0)
(5.001e-05 2.11481e-09 0)
(5.00102e-05 2.21168e-09 0)
(5.00104e-05 2.3288e-09 0)
(5.00105e-05 2.40955e-09 0)
(5.00075e-05 1.20877e-10 0)
(5.00082e-05 2.69038e-10 0)
(5.00083e-05 4.40358e-10 0)
(5.00085e-05 6.0677e-10 0)
(5.00086e-05 7.8807e-10 0)
(5.00088e-05 9.44462e-10 0)
(5.0009e-05 1.13454e-09 0)
(5.00093e-05 1.27628e-09 0)
(5.00095e-05 1.4682e-09 0)
(5.00098e-05 1.59513e-09 0)
(5.001e-05 1.77623e-09 0)
(5.00103e-05 1.89026e-09 0)
(5.00105e-05 2.04794e-09 0)
(5.00107e-05 2.15113e-09 0)
(5.00108e-05 2.27921e-09 0)
(5.00109e-05 2.37459e-09 0)
(5.00082e-05 1.15449e-10 0)
(5.00089e-05 2.49551e-10 0)
(5.00089e-05 4.09054e-10 0)
(5.00091e-05 5.62935e-10 0)
(5.00092e-05 7.33911e-10 0)
(5.00095e-05 8.77615e-10 0)
(5.00096e-05 1.06036e-09 0)
(5.00099e-05 1.19056e-09 0)
(5.00101e-05 1.37908e-09 0)
(5.00104e-05 1.49811e-09 0)
(5.00106e-05 1.68044e-09 0)
(5.00109e-05 1.79304e-09 0)
(5.0011e-05 1.95718e-09 0)
(5.00112e-05 2.06719e-09 0)
(5.00113e-05 2.20687e-09 0)
(5.00113e-05 2.31664e-09 0)
(5.00088e-05 1.07124e-10 0)
(5.00095e-05 2.24814e-10 0)
(5.00096e-05 3.6939e-10 0)
(5.00097e-05 5.0776e-10 0)
(5.00098e-05 6.65995e-10 0)
(5.00101e-05 7.94607e-10 0)
(5.00102e-05 9.68713e-10 0)
(5.00105e-05 1.08578e-09 0)
(5.00107e-05 1.27074e-09 0)
(5.0011e-05 1.38121e-09 0)
(5.00112e-05 1.56545e-09 0)
(5.00114e-05 1.67672e-09 0)
(5.00115e-05 1.8483e-09 0)
(5.00117e-05 1.96545e-09 0)
(5.00118e-05 2.11737e-09 0)
(5.00118e-05 2.24144e-09 0)
(5.00095e-05 9.6543e-11 0)
(5.001e-05 1.95995e-10 0)
(5.00101e-05 3.23249e-10 0)
(5.00103e-05 4.43748e-10 0)
(5.00104e-05 5.87444e-10 0)
(5.00106e-05 6.98997e-10 0)
(5.00108e-05 8.63557e-10 0)
(5.00111e-05 9.66149e-10 0)
(5.00112e-05 1.1475e-09 0)
(5.00115e-05 1.24884e-09 0)
(5.00117e-05 1.43555e-09 0)
(5.0012e-05 1.54557e-09 0)
(5.00121e-05 1.72535e-09 0)
(5.00122e-05 1.85005e-09 0)
(5.00123e-05 2.01478e-09 0)
(5.00123e-05 2.15334e-09 0)
(5.001e-05 8.4209e-11 0)
(5.00105e-05 1.64153e-10 0)
(5.00106e-05 2.72299e-10 0)
(5.00108e-05 3.73151e-10 0)
(5.00109e-05 5.01015e-10 0)
(5.00112e-05 5.93926e-10 0)
(5.00113e-05 7.48393e-10 0)
(5.00116e-05 8.35297e-10 0)
(5.00118e-05 1.01321e-09 0)
(5.00121e-05 1.10474e-09 0)
(5.00122e-05 1.29457e-09 0)
(5.00125e-05 1.40326e-09 0)
(5.00126e-05 1.59206e-09 0)
(5.00128e-05 1.72466e-09 0)
(5.00128e-05 1.90291e-09 0)
(5.00129e-05 2.0564e-09 0)
(5.00105e-05 7.05751e-11 0)
(5.0011e-05 1.30209e-10 0)
(5.0011e-05 2.18022e-10 0)
(5.00112e-05 2.97903e-10 0)
(5.00113e-05 4.09122e-10 0)
(5.00116e-05 4.82073e-10 0)
(5.00118e-05 6.26205e-10 0)
(5.00121e-05 6.96297e-10 0)
(5.00123e-05 8.71015e-10 0)
(5.00126e-05 9.5206e-10 0)
(5.00128e-05 1.14557e-09 0)
(5.0013e-05 1.25284e-09 0)
(5.00132e-05 1.45137e-09 0)
(5.00134e-05 1.59234e-09 0)
(5.00134e-05 1.78486e-09 0)
(5.00134e-05 1.9541e-09 0)
(5.00109e-05 5.60381e-11 0)
(5.00113e-05 9.51602e-11 0)
(5.00114e-05 1.61986e-10 0)
(5.00116e-05 2.20112e-10 0)
(5.00117e-05 3.14331e-10 0)
(5.0012e-05 3.66347e-10 0)
(5.00122e-05 5.00204e-10 0)
(5.00126e-05 5.52475e-10 0)
(5.00127e-05 7.24402e-10 0)
(5.00131e-05 7.94216e-10 0)
(5.00133e-05 9.92017e-10 0)
(5.00136e-05 1.09769e-09 0)
(5.00138e-05 1.3067e-09 0)
(5.00139e-05 1.45655e-09 0)
(5.0014e-05 1.66426e-09 0)
(5.0014e-05 1.85036e-09 0)
(5.00113e-05 4.10253e-11 0)
(5.00116e-05 6.01053e-11 0)
(5.00117e-05 1.05954e-10 0)
(5.00119e-05 1.4208e-10 0)
(5.00121e-05 2.19522e-10 0)
(5.00124e-05 2.49932e-10 0)
(5.00126e-05 3.73975e-10 0)
(5.0013e-05 4.0749e-10 0)
(5.00132e-05 5.77209e-10 0)
(5.00136e-05 6.34982e-10 0)
(5.00138e-05 8.37701e-10 0)
(5.00141e-05 9.41513e-10 0)
(5.00143e-05 1.16172e-09 0)
(5.00145e-05 1.32106e-09 0)
(5.00146e-05 1.54497e-09 0)
(5.00147e-05 1.74941e-09 0)
(5.00116e-05 2.60094e-11 0)
(5.00119e-05 2.64374e-11 0)
(5.0012e-05 5.21257e-11 0)
(5.00122e-05 6.67588e-11 0)
(5.00123e-05 1.28305e-10 0)
(5.00127e-05 1.36947e-10 0)
(5.00129e-05 2.52056e-10 0)
(5.00134e-05 2.66116e-10 0)
(5.00136e-05 4.34393e-10 0)
(5.0014e-05 4.7933e-10 0)
(5.00143e-05 6.87607e-10 0)
(5.00147e-05 7.89242e-10 0)
(5.00149e-05 1.02136e-09 0)
(5.00152e-05 1.19082e-09 0)
(5.00153e-05 1.43202e-09 0)
(5.00154e-05 1.65663e-09 0)
(5.00118e-05 1.15868e-11 0)
(5.0012e-05 -4.04677e-12 0)
(5.00121e-05 3.38231e-12 0)
(5.00124e-05 -2.0447e-12 0)
(5.00125e-05 4.54322e-11 0)
(5.0013e-05 3.27268e-11 0)
(5.00132e-05 1.40471e-10 0)
(5.00137e-05 1.34586e-10 0)
(5.0014e-05 3.02566e-10 0)
(5.00145e-05 3.33797e-10 0)
(5.00148e-05 5.48383e-10 0)
(5.00152e-05 6.47357e-10 0)
(5.00155e-05 8.92048e-10 0)
(5.00158e-05 1.07226e-09 0)
(5.0016e-05 1.33191e-09 0)
(5.00161e-05 1.57879e-09 0)
(5.0012e-05 -1.47003e-12 0)
(5.00121e-05 -2.89745e-11 0)
(5.00122e-05 -3.65053e-11 0)
(5.00125e-05 -5.92669e-11 0)
(5.00127e-05 -2.28735e-11 0)
(5.00132e-05 -5.55788e-11 0)
(5.00134e-05 4.71243e-11 0)
(5.0014e-05 2.13044e-11 0)
(5.00143e-05 1.90459e-10 0)
(5.00149e-05 2.07229e-10 0)
(5.00153e-05 4.28869e-10 0)
(5.00158e-05 5.246e-10 0)
(5.00162e-05 7.82388e-10 0)
(5.00165e-05 9.73912e-10 0)
(5.00167e-05 1.2531e-09 0)
(5.00169e-05 1.52463e-09 0)
(5.0012e-05 -1.21442e-11 0)
(5.00121e-05 -4.51859e-11 0)
(5.00122e-05 -6.24745e-11 0)
(5.00126e-05 -9.81541e-11 0)
(5.00127e-05 -6.82039e-11 0)
(5.00133e-05 -1.18394e-10 0)
(5.00136e-05 -1.72038e-11 0)
(5.00142e-05 -6.24038e-11 0)
(5.00146e-05 1.10073e-10 0)
(5.00153e-05 1.11625e-10 0)
(5.00158e-05 3.41252e-10 0)
(5.00163e-05 4.3286e-10 0)
(5.00168e-05 7.04143e-10 0)
(5.00172e-05 9.07316e-10 0)
(5.00175e-05 1.207e-09 0)
(5.00177e-05 1.50573e-09 0)
(5.0012e-05 -1.90787e-11 0)
(5.0012e-05 -4.85541e-11 0)
(5.00122e-05 -6.79422e-11 0)
(5.00125e-05 -1.09846e-10 0)
(5.00127e-05 -7.9639e-11 0)
(5.00134e-05 -1.43106e-10 0)
(5.00137e-05 -3.85154e-11 0)
(5.00144e-05 -1.01589e-10 0)
(5.00149e-05 7.70055e-11 0)
(5.00156e-05 6.28061e-11 0)
(5.00162e-05 3.01374e-10 0)
(5.00169e-05 3.87722e-10 0)
(5.00175e-05 6.72544e-10 0)
(5.0018e-05 8.8738e-10 0)
(5.00184e-05 1.20818e-09 0)
(5.00187e-05 1.5367e-09 0)
(5.0012e-05 -2.05036e-11 0)
(5.00119e-05 -3.3679e-11 0)
(5.00121e-05 -4.42522e-11 0)
(5.00125e-05 -8.27259e-11 0)
(5.00127e-05 -4.27432e-11 0)
(5.00134e-05 -1.13108e-10 0)
(5.00137e-05 1.82845e-12 0)
(5.00145e-05 -7.64456e-11 0)
(5.00151e-05 1.12174e-10 0)
(5.00159e-05 8.18652e-11 0)
(5.00167e-05 3.30573e-10 0)
(5.00174e-05 4.10041e-10 0)
(5.00182e-05 7.08076e-10 0)
(5.00188e-05 9.33996e-10 0)
(5.00193e-05 1.27603e-09 0)
(5.00197e-05 1.63683e-09 0)
(5.00118e-05 -1.41002e-11 0)
(5.00117e-05 6.35007e-12 0)
(5.00119e-05 1.96447e-11 0)
(5.00124e-05 -1.87645e-12 0)
(5.00126e-05 6.09074e-11 0)
(5.00133e-05 -7.02076e-12 0)
(5.00138e-05 1.27637e-10 0)
(5.00146e-05 3.85444e-11 0)
(5.00153e-05 2.42319e-10 0)
(5.00162e-05 1.95938e-10 0)
(5.00171e-05 4.56101e-10 0)
(5.0018e-05 5.26497e-10 0)
(5.00189e-05 8.36758e-10 0)
(5.00196e-05 1.07234e-09 0)
(5.00203e-05 1.4349e-09 0)
(5.00208e-05 1.83009e-09 0)
(5.00116e-05 3.096e-12 0)
(5.00115e-05 8.03157e-11 0)
(5.00117e-05 1.37841e-10 0)
(5.00122e-05 1.5171e-10 0)
(5.00124e-05 2.54918e-10 0)
(5.00133e-05 2.02532e-10 0)
(5.00137e-05 3.69602e-10 0)
(5.00147e-05 2.76268e-10 0)
(5.00155e-05 5.02129e-10 0)
(5.00165e-05 4.40213e-10 0)
(5.00175e-05 7.1347e-10 0)
(5.00185e-05 7.71813e-10 0)
(5.00196e-05 1.09251e-09 0)
(5.00205e-05 1.33512e-09 0)
(5.00214e-05 1.71633e-09 0)
(5.0022e-05 2.14738e-09 0)
(5.00114e-05 3.48559e-11 0)
(5.00114e-05 1.99201e-10 0)
(5.00115e-05 3.27939e-10 0)
(5.00121e-05 4.01886e-10 0)
(5.00123e-05 5.68826e-10 0)
(5.00132e-05 5.50021e-10 0)
(5.00137e-05 7.6626e-10 0)
(5.00147e-05 6.78243e-10 0)
(5.00156e-05 9.35302e-10 0)
(5.00167e-05 8.59138e-10 0)
(5.00179e-05 1.14746e-09 0)
(5.0019e-05 1.18972e-09 0)
(5.00203e-05 1.51794e-09 0)
(5.00214e-05 1.7632e-09 0)
(5.00225e-05 2.15953e-09 0)
(5.00234e-05 2.62679e-09 0)
(5.00112e-05 8.58926e-11 0)
(5.00112e-05 3.76544e-10 0)
(5.00114e-05 6.11695e-10 0)
(5.00119e-05 7.78159e-10 0)
(5.00122e-05 1.03932e-09 0)
(5.00131e-05 1.07834e-09 0)
(5.00136e-05 1.3658e-09 0)
(5.00147e-05 1.29652e-09 0)
(5.00157e-05 1.59687e-09 0)
(5.00169e-05 1.50884e-09 0)
(5.00183e-05 1.81478e-09 0)
(5.00196e-05 1.83565e-09 0)
(5.00211e-05 2.16704e-09 0)
(5.00224e-05 2.4083e-09 0)
(5.00237e-05 2.81394e-09 0)
(5.00248e-05 3.31617e-09 0)
(5.00111e-05 1.62018e-10 0)
(5.00112e-05 6.28809e-10 0)
(5.00113e-05 1.01558e-09 0)
(5.00119e-05 1.31659e-09 0)
(5.00121e-05 1.71124e-09 0)
(5.00131e-05 1.84024e-09 0)
(5.00136e-05 2.22751e-09 0)
(5.00148e-05 2.19552e-09 0)
(5.00158e-05 2.55504e-09 0)
(5.00171e-05 2.45911e-09 0)
(5.00186e-05 2.78605e-09 0)
(5.00201e-05 2.77862e-09 0)
(5.00219e-05 3.10706e-09 0)
(5.00234e-05 3.33451e-09 0)
(5.00251e-05 3.74063e-09 0)
(5.00265e-05 4.27423e-09 0)
(5.00111e-05 2.70297e-10 0)
(5.00114e-05 9.75623e-10 0)
(5.00115e-05 1.57122e-09 0)
(5.00121e-05 2.06037e-09 0)
(5.00122e-05 2.63853e-09 0)
(5.00132e-05 2.89946e-09 0)
(5.00136e-05 3.42346e-09 0)
(5.00148e-05 3.45393e-09 0)
(5.00159e-05 3.89359e-09 0)
(5.00173e-05 3.7961e-09 0)
(5.0019e-05 4.14883e-09 0)
(5.00206e-05 4.10434e-09 0)
(5.00227e-05 4.42157e-09 0)
(5.00245e-05 4.62135e-09 0)
(5.00265e-05 5.01512e-09 0)
(5.00283e-05 5.57328e-09 0)
(5.00113e-05 4.19155e-10 0)
(5.0012e-05 1.43996e-09 0)
(5.00119e-05 2.31571e-09 0)
(5.00125e-05 3.06047e-09 0)
(5.00125e-05 3.885e-09 0)
(5.00134e-05 4.33196e-09 0)
(5.00138e-05 5.0399e-09 0)
(5.0015e-05 5.16676e-09 0)
(5.00161e-05 5.71422e-09 0)
(5.00175e-05 5.6251e-09 0)
(5.00193e-05 6.01061e-09 0)
(5.00211e-05 5.91836e-09 0)
(5.00235e-05 6.21373e-09 0)
(5.00256e-05 6.36667e-09 0)
(5.0028e-05 6.73003e-09 0)
(5.00302e-05 7.30149e-09 0)
(5.00119e-05 6.18449e-10 0)
(5.0013e-05 2.04796e-09 0)
(5.00128e-05 3.2914e-09 0)
(5.00134e-05 4.37534e-09 0)
(5.00132e-05 5.52432e-09 0)
(5.0014e-05 6.22618e-09 0)
(5.00142e-05 7.1781e-09 0)
(5.00153e-05 7.44657e-09 0)
(5.00163e-05 8.13855e-09 0)
(5.00177e-05 8.0731e-09 0)
(5.00197e-05 8.50221e-09 0)
(5.00216e-05 8.3497e-09 0)
(5.00243e-05 8.61025e-09 0)
(5.00268e-05 8.69049e-09 0)
(5.00297e-05 8.99879e-09 0)
(5.00324e-05 9.56637e-09 0)
(5.00129e-05 8.79397e-10 0)
(5.00147e-05 2.82849e-09 0)
(5.00144e-05 4.54525e-09 0)
(5.00148e-05 6.07035e-09 0)
(5.00143e-05 7.63943e-09 0)
(5.0015e-05 8.68288e-09 0)
(5.0015e-05 9.95456e-09 0)
(5.00159e-05 1.04248e-08 0)
(5.00167e-05 1.13101e-08 0)
(5.0018e-05 1.12921e-08 0)
(5.002e-05 1.17817e-08 0)
(5.0022e-05 1.15558e-08 0)
(5.0025e-05 1.17668e-08 0)
(5.00279e-05 1.17403e-08 0)
(5.00314e-05 1.19607e-08 0)
(5.00347e-05 1.24993e-08 0)
(5.00146e-05 1.21438e-09 0)
(5.00173e-05 3.81199e-09 0)
(5.00167e-05 6.12701e-09 0)
(5.0017e-05 8.21546e-09 0)
(5.00162e-05 1.03201e-08 0)
(5.00166e-05 1.18127e-08 0)
(5.00162e-05 1.34992e-08 0)
(5.00168e-05 1.42503e-08 0)
(5.00174e-05 1.53945e-08 0)
(5.00184e-05 1.54603e-08 0)
(5.00204e-05 1.60377e-08 0)
(5.00224e-05 1.57265e-08 0)
(5.00257e-05 1.58734e-08 0)
(5.0029e-05 1.56964e-08 0)
(5.00331e-05 1.57865e-08 0)
(5.00372e-05 1.62605e-08 0)
(5.00173e-05 1.63644e-09 0)
(5.00211e-05 5.02841e-09 0)
(5.00202e-05 8.08609e-09 0)
(5.00202e-05 1.08812e-08 0)
(5.0019e-05 1.36581e-08 0)
(5.0019e-05 1.57316e-08 0)
(5.00181e-05 1.79509e-08 0)
(5.00182e-05 1.90871e-08 0)
(5.00184e-05 2.05777e-08 0)
(5.00191e-05 2.07835e-08 0)
(5.00209e-05 2.14924e-08 0)
(5.00228e-05 2.10901e-08 0)
(5.00263e-05 2.11616e-08 0)
(5.003e-05 2.07795e-08 0)
(5.00348e-05 2.06848e-08 0)
(5.00398e-05 2.10429e-08 0)
(5.00211e-05 2.15841e-09 0)
(5.00264e-05 6.50416e-09 0)
(5.00252e-05 1.04666e-08 0)
(5.00248e-05 1.41323e-08 0)
(5.00231e-05 1.77401e-08 0)
(5.00225e-05 2.05524e-08 0)
(5.00209e-05 2.34493e-08 0)
(5.00204e-05 2.51058e-08 0)
(5.00199e-05 2.70609e-08 0)
(5.002e-05 2.7492e-08 0)
(5.00214e-05 2.84029e-08 0)
(5.00231e-05 2.79185e-08 0)
(5.00268e-05 2.79151e-08 0)
(5.00308e-05 2.72629e-08 0)
(5.00364e-05 2.69159e-08 0)
(5.00425e-05 2.70857e-08 0)
(5.00265e-05 2.79157e-09 0)
(5.00335e-05 8.25708e-09 0)
(5.00319e-05 1.32996e-08 0)
(5.00312e-05 1.80166e-08 0)
(5.00287e-05 2.26337e-08 0)
(5.00274e-05 2.63701e-08 0)
(5.00249e-05 3.01194e-08 0)
(5.00235e-05 3.247e-08 0)
(5.00221e-05 3.50473e-08 0)
(5.00214e-05 3.58332e-08 0)
(5.00222e-05 3.70602e-08 0)
(5.00233e-05 3.65355e-08 0)
(5.00271e-05 3.64872e-08 0)
(5.00313e-05 3.55004e-08 0)
(5.00378e-05 3.48297e-08 0)
(5.00453e-05 3.47143e-08 0)
(5.00337e-05 3.54351e-09 0)
(5.0043e-05 1.02906e-08 0)
(5.00409e-05 1.6593e-08 0)
(5.00396e-05 2.25523e-08 0)
(5.00363e-05 2.83713e-08 0)
(5.00341e-05 3.32418e-08 0)
(5.00305e-05 3.80483e-08 0)
(5.0028e-05 4.13112e-08 0)
(5.00254e-05 4.47182e-08 0)
(5.00235e-05 4.60491e-08 0)
(5.00233e-05 4.7771e-08 0)
(5.00236e-05 4.73076e-08 0)
(5.00271e-05 4.73037e-08 0)
(5.00314e-05 4.59421e-08 0)
(5.00389e-05 4.49005e-08 0)
(5.00479e-05 4.43813e-08 0)
(5.00433e-05 4.41559e-09 0)
(5.00552e-05 1.25848e-08 0)
(5.00526e-05 2.03175e-08 0)
(5.00507e-05 2.77068e-08 0)
(5.00463e-05 3.49235e-08 0)
(5.00431e-05 4.11545e-08 0)
(5.00381e-05 4.72487e-08 0)
(5.00342e-05 5.16888e-08 0)
(5.003e-05 5.61901e-08 0)
(5.00266e-05 5.83357e-08 0)
(5.0025e-05 6.0819e-08 0)
(5.0024e-05 6.06071e-08 0)
(5.00269e-05 6.08207e-08 0)
(5.00311e-05 5.90822e-08 0)
(5.00395e-05 5.76446e-08 0)
(5.00503e-05 5.65401e-08 0)
(5.00557e-05 5.39917e-09 0)
(5.00707e-05 1.5088e-08 0)
(5.00674e-05 2.43923e-08 0)
(5.00647e-05 3.33769e-08 0)
(5.00593e-05 4.21717e-08 0)
(5.00548e-05 4.99902e-08 0)
(5.00482e-05 5.76159e-08 0)
(5.00426e-05 6.35404e-08 0)
(5.00365e-05 6.94617e-08 0)
(5.00311e-05 7.27913e-08 0)
(5.00276e-05 7.64271e-08 0)
(5.00248e-05 7.67983e-08 0)
(5.00266e-05 7.75407e-08 0)
(5.003e-05 7.54901e-08 0)
(5.00392e-05 7.35943e-08 0)
(5.00521e-05 7.15128e-08 0)
(5.00713e-05 6.47192e-09 0)
(5.00897e-05 1.77061e-08 0)
(5.00857e-05 2.86668e-08 0)
(5.00822e-05 3.93605e-08 0)
(5.00756e-05 4.98695e-08 0)
(5.00697e-05 5.9474e-08 0)
(5.00614e-05 6.88612e-08 0)
(5.00538e-05 7.66011e-08 0)
(5.00454e-05 8.43236e-08 0)
(5.00377e-05 8.93353e-08 0)
(5.00317e-05 9.47124e-08 0)
(5.00264e-05 9.62959e-08 0)
(5.00261e-05 9.82793e-08 0)
(5.0028e-05 9.6411e-08 0)
(5.00376e-05 9.4322e-08 0)
(5.00529e-05 9.08933e-08 0)
(5.00904e-05 7.59337e-09 0)
(5.01125e-05 2.0296e-08 0)
(5.01079e-05 3.29087e-08 0)
(5.01036e-05 4.53381e-08 0)
(5.00957e-05 5.76123e-08 0)
(5.00883e-05 6.91259e-08 0)
(5.00781e-05 8.04374e-08 0)
(5.00684e-05 9.02888e-08 0)
(5.00575e-05 1.00187e-07 0)
(5.00471e-05 1.07466e-07 0)
(5.0038e-05 1.15376e-07 0)
(5.00295e-05 1.19237e-07 0)
(5.00263e-05 1.23989e-07 0)
(5.00254e-05 1.24088e-07 0)
(5.0034e-05 1.24011e-07 0)
(5.00517e-05 1.21027e-07 0)
(5.01135e-05 8.70205e-09 0)
(5.01394e-05 2.26631e-08 0)
(5.01341e-05 3.67985e-08 0)
(5.01289e-05 5.08603e-08 0)
(5.01198e-05 6.48152e-08 0)
(5.01108e-05 7.82199e-08 0)
(5.00988e-05 9.14653e-08 0)
(5.00869e-05 1.0357e-07 0)
(5.00734e-05 1.15839e-07 0)
(5.00602e-05 1.25818e-07 0)
(5.0048e-05 1.36899e-07 0)
(5.00361e-05 1.44079e-07 0)
(5.00295e-05 1.53388e-07 0)
(5.0025e-05 1.58088e-07 0)
(5.00308e-05 1.64491e-07 0)
(5.00483e-05 1.67737e-07 0)
(5.01405e-05 9.7146e-09 0)
(5.01701e-05 2.45696e-08 0)
(5.01642e-05 3.99444e-08 0)
(5.01582e-05 5.53706e-08 0)
(5.01478e-05 7.0744e-08 0)
(5.01374e-05 8.58221e-08 0)
(5.01235e-05 1.00776e-07 0)
(5.01096e-05 1.14993e-07 0)
(5.00934e-05 1.29439e-07 0)
(5.00776e-05 1.42043e-07 0)
(5.00621e-05 1.56123e-07 0)
(5.0047e-05 1.66486e-07 0)
(5.00372e-05 1.80245e-07 0)
(5.00291e-05 1.893e-07 0)
(5.00316e-05 2.0252e-07 0)
(5.00443e-05 2.1299e-07 0)
(5.01714e-05 1.05293e-08 0)
(5.02044e-05 2.57525e-08 0)
(5.01978e-05 4.19119e-08 0)
(5.0191e-05 5.82504e-08 0)
(5.01796e-05 7.45831e-08 0)
(5.01677e-05 9.08976e-08 0)
(5.0152e-05 1.07088e-07 0)
(5.0136e-05 1.22986e-07 0)
(5.01172e-05 1.39041e-07 0)
(5.00986e-05 1.53731e-07 0)
(5.00796e-05 1.69888e-07 0)
(5.0061e-05 1.82228e-07 0)
(5.00473e-05 1.98421e-07 0)
(5.00346e-05 2.08261e-07 0)
(5.00325e-05 2.228e-07 0)
(5.00381e-05 2.32408e-07 0)
(5.02059e-05 1.10336e-08 0)
(5.02415e-05 2.59396e-08 0)
(5.02344e-05 4.22538e-08 0)
(5.02268e-05 5.88664e-08 0)
(5.02143e-05 7.5509e-08 0)
(5.02011e-05 9.24193e-08 0)
(5.01837e-05 1.09173e-07 0)
(5.01655e-05 1.26123e-07 0)
(5.01441e-05 1.43044e-07 0)
(5.01225e-05 1.59202e-07 0)
(5.00994e-05 1.76524e-07 0)
(5.00766e-05 1.90083e-07 0)
(5.00575e-05 2.07592e-07 0)
(5.00383e-05 2.16545e-07 0)
(5.00304e-05 2.31476e-07 0)
(5.00293e-05 2.38663e-07 0)
(5.02431e-05 1.11112e-08 0)
(5.02805e-05 2.48725e-08 0)
(5.02728e-05 4.0544e-08 0)
(5.02646e-05 5.66133e-08 0)
(5.02512e-05 7.27327e-08 0)
(5.02366e-05 8.94047e-08 0)
(5.02176e-05 1.05867e-07 0)
(5.01973e-05 1.2305e-07 0)
(5.01731e-05 1.39947e-07 0)
(5.01484e-05 1.5687e-07 0)
(5.01208e-05 1.74413e-07 0)
(5.00931e-05 1.88773e-07 0)
(5.0067e-05 2.06664e-07 0)
(5.004e-05 2.14046e-07 0)
(5.00255e-05 2.3055e-07 0)
(5.00168e-05 2.33637e-07 0)
(5.02823e-05 1.06514e-08 0)
(5.03201e-05 2.2325e-08 0)
(5.0312e-05 3.64094e-08 0)
(5.03031e-05 5.09554e-08 0)
(5.02888e-05 6.55464e-08 0)
(5.0273e-05 8.0946e-08 0)
(5.02526e-05 9.60615e-08 0)
(5.02302e-05 1.12415e-07 0)
(5.02035e-05 1.28189e-07 0)
(5.01755e-05 1.44962e-07 0)
(5.01431e-05 1.6168e-07 0)
(5.01098e-05 1.76638e-07 0)
(5.00752e-05 1.93912e-07 0)
(5.00397e-05 2.00949e-07 0)
(5.0018e-05 2.19932e-07 0)
(4.99961e-05 2.1578e-07 0)
(5.03221e-05 9.55757e-09 0)
(5.03589e-05 1.81042e-08 0)
(5.03503e-05 2.95242e-08 0)
(5.03408e-05 4.14057e-08 0)
(5.03258e-05 5.32664e-08 0)
(5.03088e-05 6.6109e-08 0)
(5.0287e-05 7.85088e-08 0)
(5.02627e-05 9.25431e-08 0)
(5.02336e-05 1.05703e-07 0)
(5.02025e-05 1.20975e-07 0)
(5.01655e-05 1.35653e-07 0)
(5.01263e-05 1.50901e-07 0)
(5.00823e-05 1.66966e-07 0)
(5.0038e-05 1.77364e-07 0)
(5.00041e-05 1.96041e-07 0)
(4.99598e-05 1.77836e-07 0)
(5.0361e-05 7.74714e-09 0)
(5.03951e-05 1.20028e-08 0)
(5.0386e-05 1.95194e-08 0)
(5.03759e-05 2.74092e-08 0)
(5.036e-05 3.51683e-08 0)
(5.03419e-05 4.40339e-08 0)
(5.03188e-05 5.22692e-08 0)
(5.02924e-05 6.24779e-08 0)
(5.02612e-05 7.17083e-08 0)
(5.02273e-05 8.41685e-08 0)
(5.01867e-05 9.57621e-08 0)
(5.01423e-05 1.10612e-07 0)
(5.0091e-05 1.24672e-07 0)
(5.0037e-05 1.36288e-07 0)
(4.99744e-05 1.44072e-07 0)
(4.98947e-05 1.05631e-07 0)
(5.03974e-05 5.1349e-09 0)
(5.04268e-05 4.02707e-09 0)
(5.04169e-05 6.46222e-09 0)
(5.04059e-05 9.1992e-09 0)
(5.03892e-05 1.18012e-08 0)
(5.03699e-05 1.58031e-08 0)
(5.03455e-05 1.92902e-08 0)
(5.03178e-05 2.55937e-08 0)
(5.0286e-05 3.08471e-08 0)
(5.02517e-05 3.88016e-08 0)
(5.02098e-05 4.37135e-08 0)
(5.01604e-05 5.20656e-08 0)
(5.00963e-05 5.5216e-08 0)
(5.00221e-05 5.08892e-08 0)
(4.99185e-05 3.28097e-08 0)
(4.97924e-05 -2.45142e-08 0)
(5.04292e-05 1.72645e-09 0)
(5.04517e-05 -4.88968e-09 0)
(5.04412e-05 -7.72152e-09 0)
(5.04301e-05 -1.01869e-08 0)
(5.04138e-05 -1.30147e-08 0)
(5.0395e-05 -1.47944e-08 0)
(5.03714e-05 -1.78716e-08 0)
(5.03429e-05 -1.85402e-08 0)
(5.03067e-05 -2.25675e-08 0)
(5.02655e-05 -2.74401e-08 0)
(5.02157e-05 -4.06324e-08 0)
(5.01558e-05 -5.50725e-08 0)
(5.00735e-05 -8.12252e-08 0)
(4.99708e-05 -1.13808e-07 0)
(4.9828e-05 -1.60101e-07 0)
(4.96573e-05 -2.29216e-07 0)
(5.04544e-05 -2.11041e-09 0)
(5.04747e-05 -1.50328e-08 0)
(5.04641e-05 -2.41769e-08 0)
(5.04512e-05 -3.37686e-08 0)
(5.04319e-05 -4.52967e-08 0)
(5.04086e-05 -5.83148e-08 0)
(5.03797e-05 -7.5767e-08 0)
(5.03447e-05 -9.57046e-08 0)
(5.02991e-05 -1.2316e-07 0)
(5.02443e-05 -1.53674e-07 0)
(5.01782e-05 -1.95538e-07 0)
(5.00993e-05 -2.40319e-07 0)
(4.9997e-05 -2.98608e-07 0)
(4.98715e-05 -3.57193e-07 0)
(4.9701e-05 -4.27295e-07 0)
(4.94974e-05 -5.01815e-07 0)
(5.04772e-05 -6.47377e-09 0)
(5.04814e-05 -3.27766e-08 0)
(5.04675e-05 -5.49623e-08 0)
(5.04486e-05 -7.99735e-08 0)
(5.04212e-05 -1.09298e-07 0)
(5.0387e-05 -1.42975e-07 0)
(5.03452e-05 -1.83919e-07 0)
(5.02953e-05 -2.30693e-07 0)
(5.02356e-05 -2.86777e-07 0)
(5.01655e-05 -3.46689e-07 0)
(5.00833e-05 -4.17771e-07 0)
(4.9987e-05 -4.89871e-07 0)
(4.98685e-05 -5.74032e-07 0)
(4.97255e-05 -6.5209e-07 0)
(4.95385e-05 -7.39822e-07 0)
(4.93164e-05 -8.14973e-07 0)
(5.0485e-05 -1.40047e-08 0)
(5.04429e-05 -6.54395e-08 0)
(5.04222e-05 -1.09436e-07 0)
(5.0394e-05 -1.5788e-07 0)
(5.03555e-05 -2.12234e-07 0)
(5.03081e-05 -2.72308e-07 0)
(5.02519e-05 -3.40375e-07 0)
(5.01868e-05 -4.14548e-07 0)
(5.01126e-05 -4.97549e-07 0)
(5.00278e-05 -5.83719e-07 0)
(4.99318e-05 -6.7917e-07 0)
(4.98217e-05 -7.7261e-07 0)
(4.96923e-05 -8.75359e-07 0)
(4.95393e-05 -9.65674e-07 0)
(4.93477e-05 -1.06243e-06 0)
(4.9123e-05 -1.13167e-06 0)
(5.04492e-05 -2.79004e-08 0)
(5.03372e-05 -1.11337e-07 0)
(5.03101e-05 -1.84001e-07 0)
(5.02727e-05 -2.61114e-07 0)
(5.02233e-05 -3.43804e-07 0)
(5.01635e-05 -4.31579e-07 0)
(5.00943e-05 -5.25899e-07 0)
(5.00161e-05 -6.24791e-07 0)
(4.99299e-05 -7.30418e-07 0)
(4.98339e-05 -8.37313e-07 0)
(4.97286e-05 -9.50621e-07 0)
(4.96105e-05 -1.05868e-06 0)
(4.94771e-05 -1.17266e-06 0)
(4.93229e-05 -1.26874e-06 0)
(4.91387e-05 -1.36774e-06 0)
(4.89256e-05 -1.42804e-06 0)
(5.03463e-05 -4.75208e-08 0)
(5.01505e-05 -1.63467e-07 0)
(5.01193e-05 -2.67735e-07 0)
(5.00755e-05 -3.75223e-07 0)
(5.00186e-05 -4.86147e-07 0)
(4.99508e-05 -5.99847e-07 0)
(4.98733e-05 -7.17101e-07 0)
(4.9787e-05 -8.36218e-07 0)
(4.96935e-05 -9.58906e-07 0)
(4.95915e-05 -1.08042e-06 0)
(4.94825e-05 -1.20518e-06 0)
(4.93626e-05 -1.32197e-06 0)
(4.92323e-05 -1.4414e-06 0)
(4.90852e-05 -1.53905e-06 0)
(4.89178e-05 -1.63684e-06 0)
(4.87277e-05 -1.68891e-06 0)
(5.01618e-05 -6.98849e-08 0)
(4.98824e-05 -2.13309e-07 0)
(4.98502e-05 -3.47262e-07 0)
(4.98046e-05 -4.82643e-07 0)
(4.97456e-05 -6.18514e-07 0)
(4.96754e-05 -7.54166e-07 0)
(4.95957e-05 -8.89823e-07 0)
(4.95075e-05 -1.02432e-06 0)
(4.94128e-05 -1.15896e-06 0)
(4.93106e-05 -1.29e-06 0)
(4.92035e-05 -1.42125e-06 0)
(4.90878e-05 -1.54258e-06 0)
(4.89667e-05 -1.66373e-06 0)
(4.88334e-05 -1.761e-06 0)
(4.86901e-05 -1.85642e-06 0)
(4.85312e-05 -1.90246e-06 0)
(4.98946e-05 -9.13328e-08 0)
(4.9545e-05 -2.53001e-07 0)
(4.95149e-05 -4.10435e-07 0)
(4.94718e-05 -5.67718e-07 0)
(4.94161e-05 -7.22835e-07 0)
(4.93493e-05 -8.75086e-07 0)
(4.92734e-05 -1.02418e-06 0)
(4.9189e-05 -1.16952e-06 0)
(4.90987e-05 -1.31196e-06 0)
(4.90017e-05 -1.44887e-06 0)
(4.89016e-05 -1.58331e-06 0)
(4.87951e-05 -1.70675e-06 0)
(4.8688e-05 -1.82768e-06 0)
(4.85739e-05 -1.92424e-06 0)
(4.84598e-05 -2.01751e-06 0)
(4.83381e-05 -2.06043e-06 0)
(4.95568e-05 -1.08453e-07 0)
(4.91596e-05 -2.77166e-07 0)
(4.91338e-05 -4.48969e-07 0)
(4.90964e-05 -6.19805e-07 0)
(4.90475e-05 -7.86896e-07 0)
(4.89885e-05 -9.49565e-07 0)
(4.89206e-05 -1.107e-06 0)
(4.88447e-05 -1.25905e-06 0)
(4.87631e-05 -1.40601e-06 0)
(4.86754e-05 -1.54624e-06 0)
(4.85861e-05 -1.6819e-06 0)
(4.84927e-05 -1.80626e-06 0)
(4.84033e-05 -1.92625e-06 0)
(4.83119e-05 -2.02268e-06 0)
(4.82304e-05 -2.11475e-06 0)
(4.81497e-05 -2.15774e-06 0)
(4.917e-05 -1.18891e-07 0)
(4.87519e-05 -2.83657e-07 0)
(4.87311e-05 -4.59539e-07 0)
(4.87005e-05 -6.34597e-07 0)
(4.86602e-05 -8.05699e-07 0)
(4.86108e-05 -9.72229e-07 0)
(4.85533e-05 -1.13285e-06 0)
(4.84881e-05 -1.28767e-06 0)
(4.84178e-05 -1.43626e-06 0)
(4.83421e-05 -1.57779e-06 0)
(4.82661e-05 -1.71335e-06 0)
(4.81883e-05 -1.83804e-06 0)
(4.81186e-05 -1.95692e-06 0)
(4.80522e-05 -2.05412e-06 0)
(4.80051e-05 -2.14603e-06 0)
(4.79674e-05 -2.19202e-06 0)
(4.87604e-05 -1.21697e-07 0)
(4.8347e-05 -2.73556e-07 0)
(4.83305e-05 -4.43744e-07 0)
(4.83062e-05 -6.14013e-07 0)
(4.82739e-05 -7.81294e-07 0)
(4.82338e-05 -9.45112e-07 0)
(4.81866e-05 -1.10369e-06 0)
(4.81327e-05 -1.25724e-06 0)
(4.80742e-05 -1.40452e-06 0)
(4.80115e-05 -1.5453e-06 0)
(4.79497e-05 -1.67944e-06 0)
(4.78886e-05 -1.80383e-06 0)
(4.78395e-05 -1.92148e-06 0)
(4.77991e-05 -2.02025e-06 0)
(4.77867e-05 -2.11297e-06 0)
(4.77919e-05 -2.16468e-06 0)
(4.83537e-05 -1.17336e-07 0)
(4.79657e-05 -2.50587e-07 0)
(4.79522e-05 -4.07232e-07 0)
(4.79323e-05 -5.65129e-07 0)
(4.79058e-05 -7.21596e-07 0)
(4.7873e-05 -8.76446e-07 0)
(4.78345e-05 -1.0277e-06 0)
(4.77904e-05 -1.17564e-06 0)
(4.77428e-05 -1.31828e-06 0)
(4.76924e-05 -1.4558e-06 0)
(4.76445e-05 -1.58679e-06 0)
(4.76001e-05 -1.70985e-06 0)
(4.7571e-05 -1.82573e-06 0)
(4.75563e-05 -1.92632e-06 0)
(4.75775e-05 -2.02017e-06 0)