/*--------------------------------*- C++ -*----------------------------------*\
| =========                 |                                                 |
| \\      /  F ield         | foam-extend: Open Source CFD                    |
|  \\    /   O peration     | Version:     4.1-20200408                       |
|   \\  /    A nd           | Web:         http://www.foam-extend.org         |
|    \\/     M anipulation  |                                                 |
\*---------------------------------------------------------------------------*/
FoamFile
{
    version     2.0;
    format      ascii;
    class       volScalarField;
    location    "0.0585000";
    object      sigmaHyd;
}
// * * * * * * * * * * * * * * * * * * * * * * * * * * * * * * * * * * * * * //

dimensions      [1 -1 -2 0 0 0 0];

internalField   nonuniform List<scalar> 
1952
(
-4.06214e+08
-3.93037e+08
-3.74808e+08
-3.51962e+08
-3.22345e+08
-2.88442e+08
-2.46941e+08
-1.98512e+08
-1.44126e+08
-7.51956e+07
4.64123e+06
1.18796e+08
2.48511e+08
4.08862e+08
5.1504e+08
-4.12146e+08
-4.03933e+08
-3.90692e+08
-3.72319e+08
-3.49437e+08
-3.19558e+08
-2.85613e+08
-2.43759e+08
-1.95325e+08
-1.40653e+08
-7.16784e+07
8.42951e+06
1.22614e+08
2.52444e+08
4.12605e+08
5.18638e+08
-4.09811e+08
-4.02545e+08
-3.89295e+08
-3.70859e+08
-3.47971e+08
-3.18002e+08
-2.84055e+08
-2.42098e+08
-1.93714e+08
-1.38959e+08
-7.00321e+07
1.00823e+07
1.24167e+08
2.53783e+08
4.13488e+08
5.18636e+08
-4.08412e+08
-4.01299e+08
-3.8804e+08
-3.69566e+08
-3.46672e+08
-3.1665e+08
-2.82719e+08
-2.40699e+08
-1.92386e+08
-1.37629e+08
-6.87846e+07
1.12979e+07
1.25286e+08
2.54741e+08
4.14214e+08
5.1902e+08
-4.07158e+08
-4.00232e+08
-3.8696e+08
-3.68464e+08
-3.45561e+08
-3.15508e+08
-2.81573e+08
-2.39514e+08
-1.91276e+08
-1.36544e+08
-6.77561e+07
1.22661e+07
1.26189e+08
2.55481e+08
4.14709e+08
5.19137e+08
-4.06082e+08
-3.99297e+08
-3.86036e+08
-3.67514e+08
-3.44618e+08
-3.14538e+08
-2.80621e+08
-2.38524e+08
-1.90339e+08
-1.35636e+08
-6.69233e+07
1.30632e+07
1.26913e+08
2.56065e+08
4.15139e+08
5.1934e+08
-4.05134e+08
-3.98513e+08
-3.85244e+08
-3.66707e+08
-3.43802e+08
-3.13705e+08
-2.79779e+08
-2.37662e+08
-1.89548e+08
-1.34881e+08
-6.62098e+07
1.37166e+07
1.27539e+08
2.56579e+08
4.15531e+08
5.19506e+08
-4.04355e+08
-3.97814e+08
-3.84561e+08
-3.65999e+08
-3.43104e+08
-3.12989e+08
-2.79085e+08
-2.36947e+08
-1.88894e+08
-1.3425e+08
-6.56359e+07
1.42755e+07
1.2808e+08
2.57033e+08
4.15893e+08
5.19739e+08
-4.03638e+08
-3.97268e+08
-3.84008e+08
-3.65432e+08
-3.4253e+08
-3.12396e+08
-2.7848e+08
-2.36309e+08
-1.88305e+08
-1.33693e+08
-6.51059e+07
1.47796e+07
1.28564e+08
2.57463e+08
4.1627e+08
5.19984e+08
-4.03092e+08
-3.96764e+08
-3.83518e+08
-3.64915e+08
-3.42017e+08
-3.11866e+08
-2.77957e+08
-2.35771e+08
-1.87816e+08
-1.33202e+08
-6.46398e+07
1.52435e+07
1.2905e+08
2.5789e+08
4.16647e+08
5.20265e+08
-4.02578e+08
-3.96361e+08
-3.8311e+08
-3.64488e+08
-3.41583e+08
-3.11407e+08
-2.77498e+08
-2.35273e+08
-1.87379e+08
-1.32778e+08
-6.4237e+07
1.56559e+07
1.29489e+08
2.58317e+08
4.17052e+08
5.20597e+08
-4.02175e+08
-3.96036e+08
-3.82788e+08
-3.64145e+08
-3.41238e+08
-3.11041e+08
-2.77124e+08
-2.34862e+08
-1.86998e+08
-1.32398e+08
-6.38582e+07
1.60576e+07
1.29935e+08
2.5876e+08
4.17473e+08
5.20968e+08
-4.01837e+08
-3.95764e+08
-3.82517e+08
-3.63849e+08
-3.40934e+08
-3.10707e+08
-2.76782e+08
-2.34473e+08
-1.86639e+08
-1.32027e+08
-6.34897e+07
1.64615e+07
1.30379e+08
2.5921e+08
4.17921e+08
5.21384e+08
-4.01575e+08
-3.95549e+08
-3.82297e+08
-3.63603e+08
-3.40674e+08
-3.10416e+08
-2.76473e+08
-2.34119e+08
-1.8632e+08
-1.3169e+08
-6.31376e+07
1.68506e+07
1.30848e+08
2.59696e+08
4.18415e+08
5.21834e+08
-4.01361e+08
-3.95371e+08
-3.82109e+08
-3.63391e+08
-3.40452e+08
-3.1016e+08
-2.76204e+08
-2.33788e+08
-1.86011e+08
-1.31361e+08
-6.2803e+07
1.72478e+07
1.31303e+08
2.6019e+08
4.18911e+08
5.22344e+08
-4.01184e+08
-3.95254e+08
-3.81977e+08
-3.63235e+08
-3.40275e+08
-3.09942e+08
-2.75948e+08
-2.33465e+08
-1.85682e+08
-1.31e+08
-6.24128e+07
1.76926e+07
1.31797e+08
2.60717e+08
4.19471e+08
5.22877e+08
-4.01068e+08
-3.95111e+08
-3.81817e+08
-3.63047e+08
-3.40065e+08
-3.09691e+08
-2.75674e+08
-2.33138e+08
-1.8538e+08
-1.30646e+08
-6.20321e+07
1.81377e+07
1.32338e+08
2.61293e+08
4.20053e+08
5.23443e+08
-4.00936e+08
-3.9503e+08
-3.81716e+08
-3.62915e+08
-3.39907e+08
-3.09484e+08
-2.75435e+08
-2.32814e+08
-1.85058e+08
-1.30282e+08
-6.16464e+07
1.86085e+07
1.32862e+08
2.61879e+08
4.2066e+08
5.24079e+08
-4.00866e+08
-3.9497e+08
-3.81636e+08
-3.628e+08
-3.39761e+08
-3.09286e+08
-2.75191e+08
-2.32499e+08
-1.84737e+08
-1.29898e+08
-6.12146e+07
1.91118e+07
1.33456e+08
2.62518e+08
4.21331e+08
5.24721e+08
-4.00818e+08
-3.94917e+08
-3.8156e+08
-3.62689e+08
-3.39621e+08
-3.09092e+08
-2.74972e+08
-2.32196e+08
-1.84451e+08
-1.29544e+08
-6.08289e+07
1.96048e+07
1.34051e+08
2.63197e+08
4.2201e+08
5.25454e+08
-4.00776e+08
-3.94968e+08
-3.81588e+08
-3.62675e+08
-3.3957e+08
-3.08971e+08
-2.7479e+08
-2.31898e+08
-1.84111e+08
-1.29139e+08
-6.03689e+07
2.01685e+07
1.34683e+08
2.63903e+08
4.22771e+08
5.26223e+08
-4.0084e+08
-3.95002e+08
-3.81594e+08
-3.6264e+08
-3.39493e+08
-3.0883e+08
-2.74596e+08
-2.31621e+08
-1.83822e+08
-1.28746e+08
-5.99066e+07
2.07451e+07
1.35391e+08
2.64693e+08
4.23569e+08
5.27051e+08
-4.00886e+08
-3.9512e+08
-3.81683e+08
-3.62676e+08
-3.39487e+08
-3.08737e+08
-2.74452e+08
-2.31345e+08
-1.8352e+08
-1.28345e+08
-5.94531e+07
2.13476e+07
1.36093e+08
2.65502e+08
4.24418e+08
5.27969e+08
-4.0102e+08
-3.9532e+08
-3.81847e+08
-3.6279e+08
-3.39545e+08
-3.08713e+08
-2.74347e+08
-2.31116e+08
-1.83248e+08
-1.27957e+08
-5.89706e+07
2.19725e+07
1.3685e+08
2.66383e+08
4.25347e+08
5.28947e+08
-4.01233e+08
-3.95586e+08
-3.82078e+08
-3.62958e+08
-3.39662e+08
-3.08729e+08
-2.74299e+08
-2.30924e+08
-1.83005e+08
-1.27569e+08
-5.8502e+07
2.26298e+07
1.37648e+08
2.67319e+08
4.26343e+08
5.30041e+08
-4.01517e+08
-3.96002e+08
-3.82451e+08
-3.63264e+08
-3.39899e+08
-3.08855e+08
-2.74324e+08
-2.30782e+08
-1.82794e+08
-1.27207e+08
-5.80235e+07
2.33058e+07
1.38465e+08
2.68322e+08
4.2741e+08
5.3123e+08
-4.01949e+08
-3.96536e+08
-3.82941e+08
-3.63678e+08
-3.40243e+08
-3.09073e+08
-2.74446e+08
-2.3073e+08
-1.82647e+08
-1.26858e+08
-5.75492e+07
2.40181e+07
1.39345e+08
2.69384e+08
4.28564e+08
5.32528e+08
-4.02503e+08
-3.97252e+08
-3.83604e+08
-3.64254e+08
-3.40734e+08
-3.09422e+08
-2.74683e+08
-2.30767e+08
-1.82617e+08
-1.26617e+08
-5.71564e+07
2.46745e+07
1.40229e+08
2.70525e+08
4.2981e+08
5.33959e+08
-4.0324e+08
-3.98231e+08
-3.84532e+08
-3.65087e+08
-3.41481e+08
-3.10012e+08
-2.75148e+08
-2.30991e+08
-1.82702e+08
-1.26463e+08
-5.6829e+07
2.53315e+07
1.41114e+08
2.71724e+08
4.31141e+08
5.35565e+08
-4.04243e+08
-3.99494e+08
-3.85737e+08
-3.66184e+08
-3.42471e+08
-3.10821e+08
-2.75789e+08
-2.31369e+08
-1.82907e+08
-1.2638e+08
-5.65214e+07
2.59913e+07
1.42029e+08
2.72984e+08
4.32587e+08
5.37286e+08
-4.05532e+08
-4.01038e+08
-3.8722e+08
-3.67543e+08
-3.43717e+08
-3.11867e+08
-2.7667e+08
-2.31977e+08
-1.83347e+08
-1.26473e+08
-5.63605e+07
2.65671e+07
1.42956e+08
2.74306e+08
4.34133e+08
5.39181e+08
-4.07105e+08
-4.0302e+08
-3.89135e+08
-3.6932e+08
-3.45367e+08
-3.13288e+08
-2.77902e+08
-2.32872e+08
-1.84042e+08
-1.26801e+08
-5.64002e+07
2.70119e+07
1.4378e+08
2.75629e+08
4.35746e+08
5.41252e+08
-4.09119e+08
-4.05491e+08
-3.91541e+08
-3.71579e+08
-3.4749e+08
-3.1517e+08
-2.79561e+08
-2.34173e+08
-1.85078e+08
-1.27404e+08
-5.66513e+07
2.73155e+07
1.44523e+08
2.76951e+08
4.3744e+08
5.43493e+08
-4.11625e+08
-4.08506e+08
-3.94492e+08
-3.74363e+08
-3.50127e+08
-3.17535e+08
-2.81688e+08
-2.35906e+08
-1.86523e+08
-1.28355e+08
-5.72085e+07
2.73925e+07
1.45107e+08
2.7821e+08
4.39146e+08
5.45884e+08
-4.14678e+08
-4.12181e+08
-3.98106e+08
-3.77804e+08
-3.53413e+08
-3.20538e+08
-2.84431e+08
-2.38222e+08
-1.88524e+08
-1.29805e+08
-5.82062e+07
2.7132e+07
1.4543e+08
2.7937e+08
4.40845e+08
5.48429e+08
-4.18393e+08
-4.16636e+08
-4.02509e+08
-3.82021e+08
-3.57474e+08
-3.24294e+08
-2.87906e+08
-2.41233e+08
-1.91155e+08
-1.31823e+08
-5.97123e+07
2.64639e+07
1.45413e+08
2.80309e+08
4.42465e+08
5.51056e+08
-4.2289e+08
-4.21929e+08
-4.07762e+08
-3.8709e+08
-3.62392e+08
-3.28913e+08
-2.92242e+08
-2.45105e+08
-1.94664e+08
-1.34656e+08
-6.19676e+07
2.5162e+07
1.449e+08
2.80954e+08
4.4392e+08
5.53738e+08
-4.28222e+08
-4.28245e+08
-4.14062e+08
-3.93211e+08
-3.68379e+08
-3.34601e+08
-2.97646e+08
-2.50008e+08
-1.99124e+08
-1.38413e+08
-6.51036e+07
2.31084e+07
1.43664e+08
2.81098e+08
4.45055e+08
5.564e+08
-4.34578e+08
-4.35623e+08
-4.21452e+08
-4.00446e+08
-3.75502e+08
-3.41465e+08
-3.04232e+08
-2.56137e+08
-2.04847e+08
-1.43381e+08
-6.93758e+07
2.00462e+07
1.4157e+08
2.8056e+08
4.45745e+08
5.58892e+08
-4.41985e+08
-4.44165e+08
-4.3005e+08
-4.0892e+08
-3.83922e+08
-3.49674e+08
-3.12223e+08
-2.63708e+08
-2.11983e+08
-1.49785e+08
-7.50504e+07
1.56639e+07
1.38239e+08
2.79048e+08
4.45687e+08
5.61073e+08
-4.50549e+08
-4.53937e+08
-4.39928e+08
-4.18737e+08
-3.93747e+08
-3.59389e+08
-3.21775e+08
-2.72951e+08
-2.20896e+08
-1.5802e+08
-8.25406e+07
9.54215e+06
1.33322e+08
2.76229e+08
4.4458e+08
5.62708e+08
-4.60323e+08
-4.64914e+08
-4.51088e+08
-4.29921e+08
-4.05059e+08
-3.70734e+08
-3.33107e+08
-2.84142e+08
-2.31816e+08
-1.6839e+08
-9.22187e+07
1.22666e+06
1.26248e+08
2.71574e+08
4.41931e+08
5.6348e+08
-4.7128e+08
-4.7706e+08
-4.63503e+08
-4.4248e+08
-4.17884e+08
-3.83792e+08
-3.46324e+08
-2.97492e+08
-2.45144e+08
-1.81411e+08
-1.04702e+08
-9.98146e+06
1.16326e+08
2.64412e+08
4.37072e+08
5.62908e+08
-4.83375e+08
-4.90168e+08
-4.76995e+08
-4.56281e+08
-4.32163e+08
-3.98588e+08
-3.61576e+08
-3.13264e+08
-2.61212e+08
-1.97538e+08
-1.20592e+08
-2.48106e+07
1.02646e+08
2.53679e+08
4.29069e+08
5.60262e+08
-4.96391e+08
-5.04016e+08
-4.91361e+08
-4.71155e+08
-4.47771e+08
-4.15046e+08
-3.78862e+08
-3.3155e+08
-2.80292e+08
-2.17305e+08
-1.40621e+08
-4.43339e+07
8.39946e+07
2.38093e+08
4.16719e+08
5.5492e+08
-5.10099e+08
-5.18084e+08
-5.06108e+08
-4.86664e+08
-4.64339e+08
-4.32928e+08
-3.98069e+08
-3.52457e+08
-3.02634e+08
-2.41188e+08
-1.65576e+08
-6.96863e+07
5.8752e+07
2.15574e+08
3.97889e+08
5.45794e+08
-5.23966e+08
-5.3174e+08
-5.2062e+08
-5.02218e+08
-4.81329e+08
-4.51734e+08
-4.18808e+08
-3.75695e+08
-3.28213e+08
-2.69541e+08
-1.96214e+08
-1.02364e+08
2.4637e+07
1.82733e+08
3.67541e+08
5.27053e+08
-5.37359e+08
-5.44086e+08
-5.34016e+08
-5.16972e+08
-4.9794e+08
-4.70756e+08
-4.40462e+08
-4.00832e+08
-3.56706e+08
-3.02374e+08
-2.33008e+08
-1.43719e+08
-2.10925e+07
1.34058e+08
3.15393e+08
4.79606e+08
-5.49371e+08
-5.53902e+08
-5.45077e+08
-5.29712e+08
-5.1298e+08
-4.88831e+08
-4.61918e+08
-4.26852e+08
-3.87292e+08
-3.39114e+08
-2.75725e+08
-1.94339e+08
-8.0261e+07
6.44299e+07
2.30502e+08
3.76034e+08
-5.58784e+08
-5.59826e+08
-5.52436e+08
-5.39054e+08
-5.25046e+08
-5.04501e+08
-4.81668e+08
-4.52113e+08
-4.18199e+08
-3.77755e+08
-3.21858e+08
-2.50772e+08
-1.47094e+08
-1.53341e+07
1.34302e+08
2.63095e+08
-5.64242e+08
-5.60037e+08
-5.54252e+08
-5.43119e+08
-5.32227e+08
-5.15809e+08
-4.97743e+08
-4.74616e+08
-4.47355e+08
-4.16134e+08
-3.69154e+08
-3.10768e+08
-2.19072e+08
-1.03078e+08
2.95385e+07
1.44797e+08
-5.63933e+08
-5.52636e+08
-5.48591e+08
-5.39916e+08
-5.32458e+08
-5.20583e+08
-5.07832e+08
-4.91852e+08
-4.72108e+08
-4.51333e+08
-4.1445e+08
-3.71011e+08
-2.92474e+08
-1.96098e+08
-8.03342e+07
2.26551e+07
-5.55972e+08
-5.35477e+08
-5.3327e+08
-5.27175e+08
-5.23368e+08
-5.16274e+08
-5.09228e+08
-5.00834e+08
-4.89283e+08
-4.79799e+08
-4.54148e+08
-4.27839e+08
-3.63988e+08
-2.92573e+08
-1.92271e+08
-1.04464e+08
-5.38232e+08
-5.06166e+08
-5.05835e+08
-5.02343e+08
-5.02283e+08
-5.00062e+08
-4.98994e+08
-4.98465e+08
-4.95641e+08
-4.97928e+08
-4.84632e+08
-4.77013e+08
-4.30148e+08
-3.89169e+08
-3.05886e+08
-2.39835e+08
-5.08342e+08
-4.62523e+08
-4.64135e+08
-4.63286e+08
-4.67048e+08
-4.69676e+08
-4.74539e+08
-4.81367e+08
-4.86213e+08
-4.98541e+08
-4.96968e+08
-5.08059e+08
-4.83691e+08
-4.78839e+08
-4.19653e+08
-3.86934e+08
-4.64099e+08
-4.02083e+08
-4.05131e+08
-4.06074e+08
-4.12641e+08
-4.18895e+08
-4.28907e+08
-4.43197e+08
-4.57564e+08
-4.8085e+08
-4.92118e+08
-5.22401e+08
-5.21079e+08
-5.51217e+08
-5.24436e+08
-5.43323e+08
-4.03288e+08
-3.20134e+08
-3.25547e+08
-3.29597e+08
-3.40585e+08
-3.52582e+08
-3.70346e+08
-3.94121e+08
-4.2025e+08
-4.56912e+08
-4.8358e+08
-5.32209e+08
-5.5093e+08
-6.11708e+08
-6.18137e+08
-6.97512e+08
-3.20648e+08
-2.2912e+08
-2.39039e+08
-2.4942e+08
-2.68329e+08
-2.89901e+08
-3.18072e+08
-3.52442e+08
-3.89917e+08
-4.39509e+08
-4.81171e+08
-5.46455e+08
-5.84601e+08
-6.71165e+08
-7.05235e+08
-8.41635e+08
-2.27892e+08
-1.51973e+08
-1.66507e+08
-1.8359e+08
-2.10452e+08
-2.41453e+08
-2.79744e+08
-3.24473e+08
-3.7228e+08
-4.31962e+08
-4.8566e+08
-5.63187e+08
-6.16666e+08
-7.21759e+08
-7.75913e+08
-9.48026e+08
-1.48635e+08
-9.76765e+07
-1.15624e+08
-1.37895e+08
-1.7069e+08
-2.08558e+08
-2.5429e+08
-3.06421e+08
-3.625e+08
-4.29524e+08
-4.92692e+08
-5.78443e+08
-6.43753e+08
-7.60132e+08
-8.2845e+08
-1.01798e+09
-9.24079e+07
-6.55346e+07
-8.54605e+07
-1.11177e+08
-1.47769e+08
-1.90119e+08
-2.40877e+08
-2.97796e+08
-3.59703e+08
-4.3111e+08
-5.00831e+08
-5.9051e+08
-6.63746e+08
-7.84214e+08
-8.61338e+08
-1.05502e+09
-5.87423e+07
-5.53951e+07
-7.59811e+07
-1.03389e+08
-1.41679e+08
-1.86084e+08
-2.39367e+08
-2.98355e+08
-3.63438e+08
-4.3623e+08
-5.09532e+08
-5.99074e+08
-6.7642e+08
-7.94277e+08
-8.7495e+08
-1.06104e+09
-4.76309e+07
-6.57668e+07
-8.59899e+07
-1.13568e+08
-1.51762e+08
-1.96082e+08
-2.49601e+08
-3.08147e+08
-3.73786e+08
-4.45076e+08
-5.18987e+08
-6.04639e+08
-6.82386e+08
-7.91697e+08
-8.70922e+08
-1.03926e+09
-5.76253e+07
-9.52776e+07
-1.1428e+08
-1.4063e+08
-1.77123e+08
-2.19434e+08
-2.71112e+08
-3.26975e+08
-3.90756e+08
-4.5795e+08
-5.29674e+08
-6.08115e+08
-6.82691e+08
-7.78222e+08
-8.51149e+08
-9.93179e+08
-8.73607e+07
-1.42405e+08
-1.59447e+08
-1.83294e+08
-2.16656e+08
-2.55258e+08
-3.03251e+08
-3.54487e+08
-4.14245e+08
-4.75108e+08
-5.42096e+08
-6.10467e+08
-6.78411e+08
-7.55484e+08
-8.17234e+08
-9.25305e+08
-1.35244e+08
-2.05246e+08
-2.19799e+08
-2.40146e+08
-2.69248e+08
-3.02761e+08
-3.45504e+08
-3.90445e+08
-4.44236e+08
-4.96849e+08
-5.56781e+08
-6.12645e+08
-6.70649e+08
-7.25278e+08
-7.71465e+08
-8.4027e+08
-1.99193e+08
-2.81082e+08
-2.9306e+08
-3.09473e+08
-3.33762e+08
-3.61357e+08
-3.97729e+08
-4.35059e+08
-4.81168e+08
-5.2385e+08
-5.7452e+08
-6.15662e+08
-6.6038e+08
-6.89028e+08
-7.15637e+08
-7.42022e+08
-2.76205e+08
-3.66217e+08
-3.76116e+08
-3.88964e+08
-4.08721e+08
-4.30418e+08
-4.60051e+08
-4.89079e+08
-5.26243e+08
-5.57616e+08
-5.96854e+08
-6.21042e+08
-6.48903e+08
-6.48407e+08
-6.52136e+08
-6.36072e+08
-3.6227e+08
-4.565e+08
-4.6526e+08
-4.7564e+08
-4.91973e+08
-5.08744e+08
-5.3224e+08
-5.5323e+08
-5.8102e+08
-6.00278e+08
-6.26036e+08
-6.3089e+08
-6.37974e+08
-6.05426e+08
-5.83809e+08
-5.28059e+08
-4.53027e+08
-5.47888e+08
-5.56347e+08
-5.65475e+08
-5.79701e+08
-5.92943e+08
-6.11493e+08
-6.25586e+08
-6.44786e+08
-6.52656e+08
-6.64115e+08
-6.47855e+08
-6.30362e+08
-5.63544e+08
-5.15441e+08
-4.24518e+08
-5.44509e+08
-6.36068e+08
-6.44449e+08
-6.53017e+08
-6.6609e+08
-6.77216e+08
-6.92513e+08
-7.02005e+08
-7.15566e+08
-7.15826e+08
-7.14518e+08
-6.76157e+08
-6.30468e+08
-5.28875e+08
-4.5499e+08
-3.34017e+08
-6.32736e+08
-7.2328e+08
-7.31796e+08
-7.40673e+08
-7.54001e+08
-7.65218e+08
-7.79819e+08
-7.86955e+08
-7.95948e+08
-7.84537e+08
-7.63732e+08
-7.0086e+08
-6.30773e+08
-5.05471e+08
-4.10356e+08
-2.66538e+08
-7.19977e+08
-8.18188e+08
-8.23459e+08
-8.28099e+08
-8.35126e+08
-8.38558e+08
-8.41912e+08
-8.34203e+08
-8.217e+08
-7.86569e+08
-7.45099e+08
-6.70111e+08
-5.93943e+08
-4.69846e+08
-3.78923e+08
-2.2615e+08
-8.16049e+08
-8.54431e+08
-8.52174e+08
-8.4652e+08
-8.3905e+08
-8.25865e+08
-8.09101e+08
-7.81898e+08
-7.4797e+08
-6.99229e+08
-6.50459e+08
-5.80965e+08
-5.16136e+08
-4.13869e+08
-3.41568e+08
-2.08212e+08
-8.55175e+08
-7.87982e+08
-7.825e+08
-7.72644e+08
-7.59269e+08
-7.39895e+08
-7.16311e+08
-6.84433e+08
-6.48861e+08
-6.04616e+08
-5.59499e+08
-4.97412e+08
-4.38334e+08
-3.57566e+08
-2.93996e+08
-1.95992e+08
-7.90003e+08
-6.99275e+08
-6.93872e+08
-6.84701e+08
-6.72173e+08
-6.5459e+08
-6.33194e+08
-6.04634e+08
-5.72314e+08
-5.30705e+08
-4.87747e+08
-4.32093e+08
-3.78463e+08
-3.08955e+08
-2.46927e+08
-1.73712e+08
-7.01267e+08
-6.29267e+08
-6.23047e+08
-6.1327e+08
-5.99797e+08
-5.8179e+08
-5.60095e+08
-5.32493e+08
-5.01823e+08
-4.63892e+08
-4.24571e+08
-3.75347e+08
-3.27384e+08
-2.67854e+08
-2.13114e+08
-1.47184e+08
-6.31488e+08
-5.60774e+08
-5.54572e+08
-5.45345e+08
-5.32462e+08
-5.15711e+08
-4.95492e+08
-4.70255e+08
-4.42151e+08
-4.07801e+08
-3.72053e+08
-3.28531e+08
-2.85859e+08
-2.34245e+08
-1.86174e+08
-1.28711e+08
-5.62902e+08
-5.01009e+08
-4.94788e+08
-4.85982e+08
-4.73541e+08
-4.57793e+08
-4.38791e+08
-4.15616e+08
-3.89894e+08
-3.59102e+08
-3.2704e+08
-2.88829e+08
-2.51289e+08
-2.0677e+08
-1.653e+08
-1.15849e+08
-5.03068e+08
-4.46524e+08
-4.40539e+08
-4.32433e+08
-4.20822e+08
-4.06434e+08
-3.89021e+08
-3.68121e+08
-3.44914e+08
-3.17522e+08
-2.88998e+08
-2.55571e+08
-2.22741e+08
-1.8439e+08
-1.48777e+08
-1.06574e+08
-4.48434e+08
-3.98246e+08
-3.92552e+08
-3.85142e+08
-3.74388e+08
-3.6132e+08
-3.45463e+08
-3.26721e+08
-3.05923e+08
-2.81719e+08
-2.56541e+08
-2.27449e+08
-1.98938e+08
-1.66038e+08
-1.35641e+08
-9.97701e+07
-4.00005e+08
-3.55145e+08
-3.49828e+08
-3.43157e+08
-3.33344e+08
-3.21625e+08
-3.07354e+08
-2.90703e+08
-2.72223e+08
-2.50966e+08
-2.28884e+08
-2.03669e+08
-1.79033e+08
-1.50899e+08
-1.25052e+08
-9.46798e+07
-3.56736e+08
-3.16981e+08
-3.12069e+08
-3.0611e+08
-2.9723e+08
-2.86795e+08
-2.74041e+08
-2.59337e+08
-2.43018e+08
-2.24446e+08
-2.05189e+08
-1.83425e+08
-1.62236e+08
-1.38254e+08
-1.1634e+08
-9.06551e+07
-3.18409e+08
-2.8317e+08
-2.78682e+08
-2.73406e+08
-2.65441e+08
-2.5622e+08
-2.44907e+08
-2.32003e+08
-2.17679e+08
-2.01532e+08
-1.8482e+08
-1.66103e+08
-1.47948e+08
-1.27562e+08
-1.09026e+08
-8.73282e+07
-2.84439e+08
-2.53288e+08
-2.49222e+08
-2.44581e+08
-2.37485e+08
-2.29384e+08
-2.19408e+08
-2.08141e+08
-1.95631e+08
-1.81651e+08
-1.6721e+08
-1.51166e+08
-1.35665e+08
-1.18377e+08
-1.02726e+08
-8.44051e+07
-2.5441e+08
-2.2688e+08
-2.23224e+08
-2.19165e+08
-2.12884e+08
-2.05806e+08
-1.97056e+08
-1.87262e+08
-1.76387e+08
-1.64329e+08
-1.51896e+08
-1.38184e+08
-1.24984e+08
-1.10351e+08
-9.71437e+07
-8.16454e+07
-2.27864e+08
-2.03544e+08
-2.00278e+08
-1.96745e+08
-1.91214e+08
-1.85058e+08
-1.77418e+08
-1.6894e+08
-1.59523e+08
-1.49157e+08
-1.38488e+08
-1.268e+08
-1.1559e+08
-1.03231e+08
-9.21069e+07
-7.90189e+07
-2.04403e+08
-1.82903e+08
-1.80002e+08
-1.76941e+08
-1.72093e+08
-1.6676e+08
-1.60116e+08
-1.52802e+08
-1.44676e+08
-1.35789e+08
-1.2666e+08
-1.16718e+08
-1.07214e+08
-9.67844e+07
-8.74073e+07
-7.63131e+07
-1.8365e+08
-1.64622e+08
-1.62057e+08
-1.59415e+08
-1.55182e+08
-1.50578e+08
-1.44821e+08
-1.3853e+08
-1.31537e+08
-1.23937e+08
-1.16143e+08
-1.07701e+08
-9.96561e+07
-9.08651e+07
-8.29607e+07
-7.35449e+07
-1.65268e+08
-1.48396e+08
-1.46138e+08
-1.43865e+08
-1.40182e+08
-1.36218e+08
-1.31243e+08
-1.25846e+08
-1.19842e+08
-1.13356e+08
-1.06712e+08
-9.95528e+07
-9.27479e+07
-8.5336e+07
-7.86579e+07
-7.0626e+07
-1.48954e+08
-1.33957e+08
-1.31977e+08
-1.30026e+08
-1.2683e+08
-1.23426e+08
-1.19137e+08
-1.14515e+08
-1.09371e+08
-1.03842e+08
-9.81869e+07
-9.21186e+07
-8.63638e+07
-8.01109e+07
-7.44534e+07
-6.7565e+07
-1.34438e+08
-1.21069e+08
-1.19337e+08
-1.17665e+08
-1.14899e+08
-1.1198e+08
-1.0829e+08
-1.04337e+08
-9.99354e+07
-9.52269e+07
-9.04154e+07
-8.52721e+07
-8.04028e+07
-7.51204e+07
-7.031e+07
-6.43677e+07
-1.21481e+08
-1.09522e+08
-1.08012e+08
-1.06581e+08
-1.0419e+08
-1.01691e+08
-9.85197e+07
-9.51419e+07
-9.13779e+07
-8.73687e+07
-8.32751e+07
-7.89129e+07
-7.47873e+07
-7.03137e+07
-6.62013e+07
-6.10299e+07
-1.09876e+08
-9.91374e+07
-9.78217e+07
-9.65988e+07
-9.45346e+07
-9.23954e+07
-8.96715e+07
-8.67856e+07
-8.35671e+07
-8.01519e+07
-7.66667e+07
-7.2962e+07
-6.94595e+07
-6.56597e+07
-6.21248e+07
-5.75909e+07
-9.94405e+07
-8.97568e+07
-8.86123e+07
-8.75667e+07
-8.57854e+07
-8.3954e+07
-8.16143e+07
-7.91472e+07
-7.63934e+07
-7.34806e+07
-7.05089e+07
-6.73554e+07
-6.43727e+07
-6.11314e+07
-5.80702e+07
-5.40558e+07
-9.00166e+07
-8.12459e+07
-8.02508e+07
-7.93559e+07
-7.78183e+07
-7.62488e+07
-7.42375e+07
-7.21253e+07
-6.97657e+07
-6.72762e+07
-6.47364e+07
-6.20437e+07
-5.94936e+07
-5.67144e+07
-5.40415e+07
-5.04506e+07
-8.14687e+07
-7.34891e+07
-7.26236e+07
-7.18562e+07
-7.05275e+07
-6.91799e+07
-6.74479e+07
-6.56354e+07
-6.36088e+07
-6.14746e+07
-5.92966e+07
-5.69878e+07
-5.47964e+07
-5.23988e+07
-5.00443e+07
-4.68014e+07
-7.36805e+07
-6.63875e+07
-6.56339e+07
-6.4974e+07
-6.38235e+07
-6.26628e+07
-6.11674e+07
-5.96067e+07
-5.78602e+07
-5.6023e+07
-5.41468e+07
-5.21565e+07
-5.02611e+07
-4.81768e+07
-4.60804e+07
-4.3117e+07
-6.65524e+07
-5.98572e+07
-5.91998e+07
-5.86298e+07
-5.76306e+07
-5.66266e+07
-5.53308e+07
-5.39805e+07
-5.24685e+07
-5.08785e+07
-4.92531e+07
-4.75261e+07
-4.58744e+07
-4.40471e+07
-4.21606e+07
-3.94252e+07
-5.99999e+07
-5.38276e+07
-5.32524e+07
-5.27572e+07
-5.18858e+07
-5.10125e+07
-4.9884e+07
-4.87088e+07
-4.73921e+07
-4.60066e+07
-4.45885e+07
-4.3078e+07
-4.16257e+07
-4.00079e+07
-3.82907e+07
-3.57392e+07
-5.39517e+07
-4.82391e+07
-4.77338e+07
-4.73004e+07
-4.65364e+07
-4.57713e+07
-4.47822e+07
-4.37516e+07
-4.25967e+07
-4.13794e+07
-4.01314e+07
-3.87979e+07
-3.75074e+07
-3.60592e+07
-3.44769e+07
-3.20706e+07
-4.83479e+07
-4.30421e+07
-4.25959e+07
-4.22131e+07
-4.15387e+07
-4.08624e+07
-3.99888e+07
-3.90767e+07
-3.80545e+07
-3.69745e+07
-3.5865e+07
-3.46751e+07
-3.35154e+07
-3.22045e+07
-3.0731e+07
-2.8446e+07
-4.31383e+07
-3.81953e+07
-3.77987e+07
-3.74568e+07
-3.68567e+07
-3.62525e+07
-3.54737e+07
-3.46576e+07
-3.37434e+07
-3.2774e+07
-3.1776e+07
-3.07009e+07
-2.96446e+07
-2.84417e+07
-2.70509e+07
-2.48551e+07
-3.82813e+07
-3.36648e+07
-3.33098e+07
-3.30005e+07
-3.24614e+07
-3.19149e+07
-3.12129e+07
-3.04735e+07
-2.96459e+07
-2.87643e+07
-2.78545e+07
-2.68699e+07
-2.58946e+07
-2.4777e+07
-2.34512e+07
-2.133e+07
-3.37428e+07
-2.94232e+07
-2.91026e+07
-2.88187e+07
-2.8329e+07
-2.78279e+07
-2.71872e+07
-2.65078e+07
-2.57482e+07
-2.49346e+07
-2.40927e+07
-2.31772e+07
-2.22625e+07
-2.12088e+07
-1.99291e+07
-1.78609e+07
-2.94949e+07
-2.54484e+07
-2.51562e+07
-2.48915e+07
-2.44414e+07
-2.39749e+07
-2.33821e+07
-2.27482e+07
-2.20404e+07
-2.12775e+07
-2.0486e+07
-1.9621e+07
-1.87494e+07
-1.77417e+07
-1.64937e+07
-1.44655e+07
-2.55154e+07
-2.17232e+07
-2.14541e+07
-2.12032e+07
-2.07841e+07
-2.0343e+07
-1.97865e+07
-1.91855e+07
-1.85154e+07
-1.7788e+07
-1.70309e+07
-1.61994e+07
-1.53548e+07
-1.43757e+07
-1.31444e+07
-1.1141e+07
-2.17868e+07
-1.82344e+07
-1.7984e+07
-1.77424e+07
-1.7347e+07
-1.69233e+07
-1.6393e+07
-1.58139e+07
-1.5169e+07
-1.44636e+07
-1.37266e+07
-1.29132e+07
-1.208e+07
-1.11126e+07
-9.88167e+06
-7.88301e+06
-1.82957e+07
-1.49721e+07
-1.47369e+07
-1.45007e+07
-1.41227e+07
-1.37097e+07
-1.31971e+07
-1.26303e+07
-1.19997e+07
-1.13042e+07
-1.05745e+07
-9.76479e+06
-8.92882e+06
-7.95757e+06
-6.71344e+06
-4.70672e+06
-1.50322e+07
-1.19297e+07
-1.17066e+07
-1.14727e+07
-1.11071e+07
-1.06991e+07
-1.01968e+07
-9.63429e+06
-9.00851e+06
-8.31218e+06
-7.57778e+06
-6.75831e+06
-5.90523e+06
-4.91339e+06
-3.63917e+06
-1.60322e+06
-1.19893e+07
-9.10266e+06
-8.88931e+06
-8.6553e+06
-8.29799e+06
-7.89071e+06
-7.39269e+06
-6.8279e+06
-6.19879e+06
-5.49243e+06
-4.74268e+06
-3.90095e+06
-3.01712e+06
-1.98863e+06
-668436
1.41484e+06
-9.16233e+06
-6.48851e+06
-6.28322e+06
-6.04743e+06
-5.69538e+06
-5.28559e+06
-4.78743e+06
-4.21526e+06
-3.57635e+06
-2.85226e+06
-2.07772e+06
-1.20217e+06
-273977
808196
2.19269e+06
4.34625e+06
-6.54863e+06
-4.08616e+06
-3.88782e+06
-3.64939e+06
-3.30074e+06
-2.88661e+06
-2.38542e+06
-1.80262e+06
-1.14931e+06
-401804
405236
1.32468e+06
2.31031e+06
3.46346e+06
4.93257e+06
7.18364e+06
-4.14689e+06
-1.89528e+06
-1.7034e+06
-1.46236e+06
-1.11641e+06
-697634
-192358
402208
1.07214e+06
1.84622e+06
2.69109e+06
3.66221e+06
4.71717e+06
5.95823e+06
7.53415e+06
9.91348e+06
-1.95657e+06
84140.9
269487
512174
854804
1.27689e+06
1.78522e+06
2.39018e+06
3.07603e+06
3.87652e+06
4.76106e+06
5.78812e+06
6.92198e+06
8.26648e+06
9.97383e+06
1.25188e+07
22599.6
1.85281e+06
2.03098e+06
2.27339e+06
2.61077e+06
3.03302e+06
3.54108e+06
4.15215e+06
4.84958e+06
5.67191e+06
6.59297e+06
7.67457e+06
8.89207e+06
1.03509e+07
1.22151e+07
1.4965e+07
1.79154e+06
3.41196e+06
3.58181e+06
3.82112e+06
4.15002e+06
4.56755e+06
5.06958e+06
5.67934e+06
6.37978e+06
7.21406e+06
8.16162e+06
9.28838e+06
1.05862e+07
1.21625e+07
1.42125e+07
1.72119e+07
3.35168e+06
4.76606e+06
4.92599e+06
5.15856e+06
5.47455e+06
5.88077e+06
6.36863e+06
6.96634e+06
7.65644e+06
8.48624e+06
9.44084e+06
1.05915e+07
1.19513e+07
1.36343e+07
1.59025e+07
1.9222e+07
4.70766e+06
5.92142e+06
6.06949e+06
6.29103e+06
6.58877e+06
6.97574e+06
7.43927e+06
8.01123e+06
8.67296e+06
9.47476e+06
1.04051e+07
1.15412e+07
1.29164e+07
1.46628e+07
1.714e+07
2.08627e+07
5.86591e+06
6.86146e+06
6.99625e+06
7.20323e+06
7.47837e+06
7.8394e+06
8.26984e+06
8.80372e+06
9.41988e+06
1.01695e+07
1.10396e+07
1.21103e+07
1.34216e+07
1.51266e+07
1.76579e+07
2.16517e+07
6.80958e+06
7.74956e+06
7.86612e+06
8.05002e+06
8.29126e+06
8.61087e+06
8.98829e+06
9.45747e+06
9.99191e+06
1.0638e+07
1.13697e+07
1.22521e+07
1.32865e+07
1.4589e+07
1.64924e+07
1.94702e+07
7.70345e+06
8.10652e+06
8.20993e+06
8.37617e+06
8.59254e+06
8.88143e+06
9.2205e+06
9.64344e+06
1.01212e+07
1.0697e+07
1.13373e+07
1.20949e+07
1.29343e+07
1.39133e+07
1.50971e+07
1.72883e+07
8.06482e+06
)
;

boundaryField
{
    wireUpstream
    {
        type            zeroGradient;
    }
    wireDownstream
    {
        type            zeroGradient;
    }
    wireTopContact
    {
        type            zeroGradient;
    }
    front
    {
        type            wedge;
    }
    back
    {
        type            wedge;
    }
}


// ************************************************************************* //
