/*--------------------------------*- C++ -*----------------------------------*\
| =========                 |                                                 |
| \\      /  F ield         | foam-extend: Open Source CFD                    |
|  \\    /   O peration     | Version:     4.1-20200408                       |
|   \\  /    A nd           | Web:         http://www.foam-extend.org         |
|    \\/     M anipulation  |                                                 |
\*---------------------------------------------------------------------------*/
FoamFile
{
    version     2.0;
    format      ascii;
    class       volVectorField;
    location    "0.0860000";
    object      U;
}
// * * * * * * * * * * * * * * * * * * * * * * * * * * * * * * * * * * * * * //

dimensions      [0 1 0 0 0 0 0];

internalField   nonuniform List<vector> 
1952
(
(0.0829697 -3.23581e-06 0)
(0.0829693 -5.26318e-06 0)
(0.0829688 -7.31517e-06 0)
(0.0829682 -9.36279e-06 0)
(0.0829674 -1.14127e-05 0)
(0.0829665 -1.34443e-05 0)
(0.0829656 -1.54759e-05 0)
(0.0829646 -1.74823e-05 0)
(0.0829635 -1.94877e-05 0)
(0.0829625 -2.14608e-05 0)
(0.0829615 -2.34236e-05 0)
(0.0829607 -2.53489e-05 0)
(0.0829601 -2.72446e-05 0)
(0.0829598 -2.90998e-05 0)
(0.0829597 -3.09254e-05 0)
(0.0829698 -1.38664e-06 0)
(0.0829655 -3.23602e-06 0)
(0.0829652 -5.26362e-06 0)
(0.0829647 -7.31565e-06 0)
(0.082964 -9.36362e-06 0)
(0.0829633 -1.14135e-05 0)
(0.0829624 -1.34456e-05 0)
(0.0829614 -1.54773e-05 0)
(0.0829604 -1.74843e-05 0)
(0.0829594 -1.94899e-05 0)
(0.0829583 -2.14639e-05 0)
(0.0829574 -2.34271e-05 0)
(0.0829566 -2.53535e-05 0)
(0.0829559 -2.725e-05 0)
(0.0829556 -2.9107e-05 0)
(0.0829555 -3.09343e-05 0)
(0.0829656 -1.38674e-06 0)
(0.0829614 -3.23726e-06 0)
(0.082961 -5.26569e-06 0)
(0.0829605 -7.31851e-06 0)
(0.0829599 -9.36739e-06 0)
(0.0829591 -1.14181e-05 0)
(0.0829582 -1.34512e-05 0)
(0.0829573 -1.54837e-05 0)
(0.0829562 -1.74919e-05 0)
(0.0829552 -1.94984e-05 0)
(0.0829542 -2.14737e-05 0)
(0.0829532 -2.3438e-05 0)
(0.0829524 -2.53658e-05 0)
(0.0829518 -2.72635e-05 0)
(0.0829514 -2.9122e-05 0)
(0.0829513 -3.09506e-05 0)
(0.0829615 -1.38727e-06 0)
(0.0829572 -3.23878e-06 0)
(0.0829568 -5.26818e-06 0)
(0.0829564 -7.32197e-06 0)
(0.0829557 -9.37187e-06 0)
(0.0829549 -1.14236e-05 0)
(0.082954 -1.34577e-05 0)
(0.0829531 -1.54914e-05 0)
(0.0829521 -1.75007e-05 0)
(0.082951 -1.95085e-05 0)
(0.08295 -2.1485e-05 0)
(0.082949 -2.34506e-05 0)
(0.0829482 -2.53799e-05 0)
(0.0829476 -2.72789e-05 0)
(0.0829472 -2.91389e-05 0)
(0.0829471 -3.09687e-05 0)
(0.0829573 -1.38792e-06 0)
(0.082953 -3.24051e-06 0)
(0.0829527 -5.27101e-06 0)
(0.0829522 -7.32593e-06 0)
(0.0829515 -9.37698e-06 0)
(0.0829508 -1.14299e-05 0)
(0.0829499 -1.34652e-05 0)
(0.0829489 -1.55001e-05 0)
(0.0829479 -1.75108e-05 0)
(0.0829469 -1.95198e-05 0)
(0.0829458 -2.14977e-05 0)
(0.0829449 -2.34646e-05 0)
(0.0829441 -2.53954e-05 0)
(0.0829434 -2.72957e-05 0)
(0.0829431 -2.91571e-05 0)
(0.082943 -3.09881e-05 0)
(0.0829532 -1.38866e-06 0)
(0.0829489 -3.24242e-06 0)
(0.0829485 -5.27415e-06 0)
(0.082948 -7.33031e-06 0)
(0.0829474 -9.38262e-06 0)
(0.0829466 -1.14368e-05 0)
(0.0829457 -1.34734e-05 0)
(0.0829447 -1.55096e-05 0)
(0.0829437 -1.75217e-05 0)
(0.0829427 -1.95321e-05 0)
(0.0829417 -2.15114e-05 0)
(0.0829407 -2.34797e-05 0)
(0.0829399 -2.54118e-05 0)
(0.0829392 -2.73135e-05 0)
(0.0829389 -2.91763e-05 0)
(0.0829388 -3.10085e-05 0)
(0.082949 -1.38948e-06 0)
(0.0829447 -3.24449e-06 0)
(0.0829443 -5.27751e-06 0)
(0.0829438 -7.33499e-06 0)
(0.0829432 -9.38864e-06 0)
(0.0829424 -1.14442e-05 0)
(0.0829415 -1.34822e-05 0)
(0.0829406 -1.55198e-05 0)
(0.0829395 -1.75332e-05 0)
(0.0829385 -1.9545e-05 0)
(0.0829375 -2.15258e-05 0)
(0.0829365 -2.34955e-05 0)
(0.0829357 -2.5429e-05 0)
(0.0829351 -2.73321e-05 0)
(0.0829347 -2.91962e-05 0)
(0.0829346 -3.10297e-05 0)
(0.0829448 -1.39037e-06 0)
(0.0829405 -3.24666e-06 0)
(0.0829401 -5.28106e-06 0)
(0.0829397 -7.33993e-06 0)
(0.082939 -9.39499e-06 0)
(0.0829382 -1.1452e-05 0)
(0.0829373 -1.34914e-05 0)
(0.0829364 -1.55304e-05 0)
(0.0829354 -1.75453e-05 0)
(0.0829343 -1.95585e-05 0)
(0.0829333 -2.15407e-05 0)
(0.0829323 -2.35117e-05 0)
(0.0829315 -2.54468e-05 0)
(0.0829309 -2.73511e-05 0)
(0.0829305 -2.92166e-05 0)
(0.0829304 -3.10513e-05 0)
(0.0829406 -1.3913e-06 0)
(0.0829363 -3.24891e-06 0)
(0.082936 -5.28472e-06 0)
(0.0829355 -7.34503e-06 0)
(0.0829348 -9.40152e-06 0)
(0.0829341 -1.14599e-05 0)
(0.0829332 -1.35008e-05 0)
(0.0829322 -1.55413e-05 0)
(0.0829312 -1.75576e-05 0)
(0.0829301 -1.95723e-05 0)
(0.0829291 -2.15559e-05 0)
(0.0829281 -2.35284e-05 0)
(0.0829273 -2.54648e-05 0)
(0.0829267 -2.73704e-05 0)
(0.0829263 -2.92373e-05 0)
(0.0829262 -3.10733e-05 0)
(0.0829365 -1.39226e-06 0)
(0.0829321 -3.2512e-06 0)
(0.0829318 -5.28848e-06 0)
(0.0829313 -7.35025e-06 0)
(0.0829306 -9.40823e-06 0)
(0.0829299 -1.14681e-05 0)
(0.082929 -1.35105e-05 0)
(0.082928 -1.55524e-05 0)
(0.082927 -1.75702e-05 0)
(0.0829259 -1.95863e-05 0)
(0.0829249 -2.15714e-05 0)
(0.082924 -2.35452e-05 0)
(0.0829231 -2.54831e-05 0)
(0.0829225 -2.739e-05 0)
(0.0829221 -2.92582e-05 0)
(0.082922 -3.10955e-05 0)
(0.0829323 -1.39324e-06 0)
(0.082928 -3.25353e-06 0)
(0.0829276 -5.29226e-06 0)
(0.0829271 -7.35552e-06 0)
(0.0829264 -9.41498e-06 0)
(0.0829257 -1.14764e-05 0)
(0.0829248 -1.35202e-05 0)
(0.0829238 -1.55636e-05 0)
(0.0829228 -1.75829e-05 0)
(0.0829218 -1.96004e-05 0)
(0.0829207 -2.1587e-05 0)
(0.0829198 -2.35622e-05 0)
(0.0829189 -2.55014e-05 0)
(0.0829183 -2.74097e-05 0)
(0.0829179 -2.92793e-05 0)
(0.0829178 -3.11178e-05 0)
(0.0829281 -1.39424e-06 0)
(0.0829238 -3.25588e-06 0)
(0.0829234 -5.29609e-06 0)
(0.0829229 -7.36084e-06 0)
(0.0829223 -9.4218e-06 0)
(0.0829215 -1.14847e-05 0)
(0.0829206 -1.353e-05 0)
(0.0829196 -1.55748e-05 0)
(0.0829186 -1.75956e-05 0)
(0.0829176 -1.96146e-05 0)
(0.0829165 -2.16026e-05 0)
(0.0829156 -2.35792e-05 0)
(0.0829147 -2.55199e-05 0)
(0.0829141 -2.74295e-05 0)
(0.0829137 -2.93004e-05 0)
(0.0829136 -3.11403e-05 0)
(0.0829239 -1.39524e-06 0)
(0.0829196 -3.25823e-06 0)
(0.0829192 -5.29991e-06 0)
(0.0829187 -7.36615e-06 0)
(0.0829181 -9.4286e-06 0)
(0.0829173 -1.1493e-05 0)
(0.0829164 -1.35398e-05 0)
(0.0829154 -1.55861e-05 0)
(0.0829144 -1.76084e-05 0)
(0.0829134 -1.96288e-05 0)
(0.0829123 -2.16183e-05 0)
(0.0829114 -2.35962e-05 0)
(0.0829105 -2.55383e-05 0)
(0.0829099 -2.74493e-05 0)
(0.0829095 -2.93216e-05 0)
(0.0829094 -3.11628e-05 0)
(0.0829197 -1.39625e-06 0)
(0.0829154 -3.26057e-06 0)
(0.082915 -5.30374e-06 0)
(0.0829145 -7.37146e-06 0)
(0.0829139 -9.43541e-06 0)
(0.0829131 -1.15012e-05 0)
(0.0829122 -1.35495e-05 0)
(0.0829112 -1.55973e-05 0)
(0.0829102 -1.76211e-05 0)
(0.0829092 -1.9643e-05 0)
(0.0829081 -2.16339e-05 0)
(0.0829072 -2.36132e-05 0)
(0.0829063 -2.55567e-05 0)
(0.0829057 -2.7469e-05 0)
(0.0829053 -2.93427e-05 0)
(0.0829052 -3.11854e-05 0)
(0.0829155 -1.39725e-06 0)
(0.0829112 -3.26291e-06 0)
(0.0829108 -5.30755e-06 0)
(0.0829103 -7.37675e-06 0)
(0.0829097 -9.4422e-06 0)
(0.0829089 -1.15095e-05 0)
(0.082908 -1.35593e-05 0)
(0.082907 -1.56085e-05 0)
(0.082906 -1.76338e-05 0)
(0.082905 -1.96571e-05 0)
(0.0829039 -2.16494e-05 0)
(0.082903 -2.36301e-05 0)
(0.0829021 -2.55751e-05 0)
(0.0829015 -2.74887e-05 0)
(0.0829011 -2.93638e-05 0)
(0.082901 -3.12079e-05 0)
(0.0829113 -1.39826e-06 0)
(0.082907 -3.26523e-06 0)
(0.0829066 -5.31132e-06 0)
(0.0829061 -7.382e-06 0)
(0.0829055 -9.44891e-06 0)
(0.0829047 -1.15177e-05 0)
(0.0829038 -1.35689e-05 0)
(0.0829028 -1.56195e-05 0)
(0.0829018 -1.76463e-05 0)
(0.0829008 -1.9671e-05 0)
(0.0828997 -2.16648e-05 0)
(0.0828987 -2.3647e-05 0)
(0.0828979 -2.55933e-05 0)
(0.0828973 -2.75084e-05 0)
(0.0828969 -2.93849e-05 0)
(0.0828968 -3.12304e-05 0)
(0.0829071 -1.39925e-06 0)
(0.0829028 -3.26752e-06 0)
(0.0829024 -5.31507e-06 0)
(0.0829019 -7.3872e-06 0)
(0.0829012 -9.4556e-06 0)
(0.0829005 -1.15258e-05 0)
(0.0828996 -1.35785e-05 0)
(0.0828986 -1.56306e-05 0)
(0.0828976 -1.76588e-05 0)
(0.0828965 -1.96849e-05 0)
(0.0828955 -2.16802e-05 0)
(0.0828945 -2.36637e-05 0)
(0.0828937 -2.56116e-05 0)
(0.0828931 -2.7528e-05 0)
(0.0828927 -2.94059e-05 0)
(0.0828926 -3.12528e-05 0)
(0.0829029 -1.40023e-06 0)
(0.0828986 -3.26979e-06 0)
(0.0828982 -5.31876e-06 0)
(0.0828977 -7.39233e-06 0)
(0.082897 -9.46217e-06 0)
(0.0828963 -1.15338e-05 0)
(0.0828954 -1.3588e-05 0)
(0.0828944 -1.56415e-05 0)
(0.0828934 -1.76712e-05 0)
(0.0828923 -1.96987e-05 0)
(0.0828913 -2.16955e-05 0)
(0.0828903 -2.36804e-05 0)
(0.0828895 -2.56297e-05 0)
(0.0828888 -2.75475e-05 0)
(0.0828885 -2.94269e-05 0)
(0.0828884 -3.12752e-05 0)
(0.0828987 -1.4012e-06 0)
(0.0828943 -3.27203e-06 0)
(0.082894 -5.32243e-06 0)
(0.0828935 -7.39742e-06 0)
(0.0828928 -9.46873e-06 0)
(0.0828921 -1.15418e-05 0)
(0.0828912 -1.35975e-05 0)
(0.0828902 -1.56523e-05 0)
(0.0828892 -1.76835e-05 0)
(0.0828881 -1.97124e-05 0)
(0.0828871 -2.17107e-05 0)
(0.0828861 -2.36969e-05 0)
(0.0828853 -2.56477e-05 0)
(0.0828846 -2.75669e-05 0)
(0.0828843 -2.94478e-05 0)
(0.0828842 -3.12975e-05 0)
(0.0828945 -1.40216e-06 0)
(0.0828901 -3.27426e-06 0)
(0.0828898 -5.32605e-06 0)
(0.0828893 -7.40245e-06 0)
(0.0828886 -9.47517e-06 0)
(0.0828878 -1.15496e-05 0)
(0.0828869 -1.36067e-05 0)
(0.082886 -1.5663e-05 0)
(0.0828849 -1.76957e-05 0)
(0.0828839 -1.9726e-05 0)
(0.0828829 -2.17257e-05 0)
(0.0828819 -2.37133e-05 0)
(0.0828811 -2.56656e-05 0)
(0.0828804 -2.75862e-05 0)
(0.08288 -2.94685e-05 0)
(0.0828799 -3.13197e-05 0)
(0.0828903 -1.40312e-06 0)
(0.0828859 -3.27645e-06 0)
(0.0828855 -5.32962e-06 0)
(0.0828851 -7.40741e-06 0)
(0.0828844 -9.48155e-06 0)
(0.0828836 -1.15574e-05 0)
(0.0828827 -1.36159e-05 0)
(0.0828817 -1.56735e-05 0)
(0.0828807 -1.77077e-05 0)
(0.0828797 -1.97394e-05 0)
(0.0828786 -2.17406e-05 0)
(0.0828777 -2.37296e-05 0)
(0.0828768 -2.56834e-05 0)
(0.0828762 -2.76053e-05 0)
(0.0828758 -2.94892e-05 0)
(0.0828757 -3.13418e-05 0)
(0.082886 -1.40406e-06 0)
(0.0828817 -3.27861e-06 0)
(0.0828813 -5.33314e-06 0)
(0.0828808 -7.4123e-06 0)
(0.0828802 -9.48785e-06 0)
(0.0828794 -1.15651e-05 0)
(0.0828785 -1.3625e-05 0)
(0.0828775 -1.5684e-05 0)
(0.0828765 -1.77196e-05 0)
(0.0828754 -1.97526e-05 0)
(0.0828744 -2.17553e-05 0)
(0.0828734 -2.37457e-05 0)
(0.0828726 -2.5701e-05 0)
(0.0828719 -2.76243e-05 0)
(0.0828716 -2.95097e-05 0)
(0.0828715 -3.13639e-05 0)
(0.0828818 -1.40498e-06 0)
(0.0828775 -3.28074e-06 0)
(0.0828771 -5.3366e-06 0)
(0.0828766 -7.4171e-06 0)
(0.0828759 -9.49402e-06 0)
(0.0828752 -1.15726e-05 0)
(0.0828743 -1.36339e-05 0)
(0.0828733 -1.56942e-05 0)
(0.0828723 -1.77314e-05 0)
(0.0828712 -1.97657e-05 0)
(0.0828702 -2.17699e-05 0)
(0.0828692 -2.37616e-05 0)
(0.0828684 -2.57184e-05 0)
(0.0828677 -2.76432e-05 0)
(0.0828674 -2.95302e-05 0)
(0.0828672 -3.13858e-05 0)
(0.0828776 -1.4059e-06 0)
(0.0828732 -3.28284e-06 0)
(0.0828729 -5.34002e-06 0)
(0.0828724 -7.42185e-06 0)
(0.0828717 -9.50014e-06 0)
(0.0828709 -1.158e-05 0)
(0.08287 -1.36428e-05 0)
(0.0828691 -1.57044e-05 0)
(0.082868 -1.7743e-05 0)
(0.082867 -1.97786e-05 0)
(0.0828659 -2.17843e-05 0)
(0.082865 -2.37774e-05 0)
(0.0828641 -2.57358e-05 0)
(0.0828635 -2.7662e-05 0)
(0.0828631 -2.95505e-05 0)
(0.082863 -3.14076e-05 0)
(0.0828734 -1.4068e-06 0)
(0.082869 -3.28489e-06 0)
(0.0828686 -5.34337e-06 0)
(0.0828681 -7.4265e-06 0)
(0.0828675 -9.50613e-06 0)
(0.0828667 -1.15873e-05 0)
(0.0828658 -1.36515e-05 0)
(0.0828648 -1.57143e-05 0)
(0.0828638 -1.77544e-05 0)
(0.0828627 -1.97914e-05 0)
(0.0828617 -2.17986e-05 0)
(0.0828607 -2.37931e-05 0)
(0.0828599 -2.5753e-05 0)
(0.0828592 -2.76806e-05 0)
(0.0828589 -2.95707e-05 0)
(0.0828588 -3.14294e-05 0)
(0.0828691 -1.40768e-06 0)
(0.0828648 -3.28694e-06 0)
(0.0828644 -5.34671e-06 0)
(0.0828639 -7.43113e-06 0)
(0.0828632 -9.51211e-06 0)
(0.0828625 -1.15945e-05 0)
(0.0828616 -1.36602e-05 0)
(0.0828606 -1.57243e-05 0)
(0.0828595 -1.77658e-05 0)
(0.0828585 -1.98041e-05 0)
(0.0828575 -2.18128e-05 0)
(0.0828565 -2.38086e-05 0)
(0.0828556 -2.57701e-05 0)
(0.082855 -2.76992e-05 0)
(0.0828546 -2.95908e-05 0)
(0.0828545 -3.14512e-05 0)
(0.0828649 -1.40855e-06 0)
(0.0828605 -3.28897e-06 0)
(0.0828602 -5.35002e-06 0)
(0.0828597 -7.43573e-06 0)
(0.082859 -9.51805e-06 0)
(0.0828582 -1.16017e-05 0)
(0.0828573 -1.36687e-05 0)
(0.0828563 -1.57341e-05 0)
(0.0828553 -1.77771e-05 0)
(0.0828543 -1.98167e-05 0)
(0.0828532 -2.1827e-05 0)
(0.0828522 -2.38241e-05 0)
(0.0828514 -2.57871e-05 0)
(0.0828507 -2.77177e-05 0)
(0.0828504 -2.9611e-05 0)
(0.0828503 -3.1473e-05 0)
(0.0828606 -1.40942e-06 0)
(0.0828563 -3.29102e-06 0)
(0.0828559 -5.35337e-06 0)
(0.0828554 -7.44037e-06 0)
(0.0828548 -9.52405e-06 0)
(0.082854 -1.1609e-05 0)
(0.0828531 -1.36774e-05 0)
(0.0828521 -1.5744e-05 0)
(0.0828511 -1.77885e-05 0)
(0.08285 -1.98293e-05 0)
(0.082849 -2.18411e-05 0)
(0.082848 -2.38397e-05 0)
(0.0828472 -2.58042e-05 0)
(0.0828465 -2.77363e-05 0)
(0.0828461 -2.96312e-05 0)
(0.082846 -3.14949e-05 0)
(0.0828564 -1.41031e-06 0)
(0.082852 -3.29312e-06 0)
(0.0828517 -5.35678e-06 0)
(0.0828512 -7.44508e-06 0)
(0.0828505 -9.53014e-06 0)
(0.0828497 -1.16163e-05 0)
(0.0828488 -1.36862e-05 0)
(0.0828479 -1.57539e-05 0)
(0.0828468 -1.78e-05 0)
(0.0828458 -1.98421e-05 0)
(0.0828447 -2.18554e-05 0)
(0.0828437 -2.38553e-05 0)
(0.0828429 -2.58215e-05 0)
(0.0828422 -2.77551e-05 0)
(0.0828419 -2.96517e-05 0)
(0.0828418 -3.15171e-05 0)
(0.0828522 -1.4112e-06 0)
(0.0828478 -3.29529e-06 0)
(0.0828474 -5.36032e-06 0)
(0.0828469 -7.44996e-06 0)
(0.0828463 -9.53644e-06 0)
(0.0828455 -1.16239e-05 0)
(0.0828446 -1.36952e-05 0)
(0.0828436 -1.57642e-05 0)
(0.0828426 -1.78118e-05 0)
(0.0828415 -1.98551e-05 0)
(0.0828405 -2.18701e-05 0)
(0.0828395 -2.38714e-05 0)
(0.0828386 -2.58392e-05 0)
(0.082838 -2.77743e-05 0)
(0.0828376 -2.96725e-05 0)
(0.0828375 -3.15396e-05 0)
(0.0828479 -1.41213e-06 0)
(0.0828435 -3.2976e-06 0)
(0.0828432 -5.36408e-06 0)
(0.0828427 -7.45512e-06 0)
(0.082842 -9.54312e-06 0)
(0.0828412 -1.16319e-05 0)
(0.0828403 -1.37048e-05 0)
(0.0828394 -1.5775e-05 0)
(0.0828383 -1.78242e-05 0)
(0.0828372 -1.98687e-05 0)
(0.0828362 -2.18853e-05 0)
(0.0828352 -2.38879e-05 0)
(0.0828344 -2.58573e-05 0)
(0.0828337 -2.77939e-05 0)
(0.0828334 -2.96939e-05 0)
(0.0828332 -3.15627e-05 0)
(0.0828437 -1.41312e-06 0)
(0.0828393 -3.3001e-06 0)
(0.0828389 -5.36816e-06 0)
(0.0828384 -7.46071e-06 0)
(0.0828378 -9.55033e-06 0)
(0.082837 -1.16404e-05 0)
(0.0828361 -1.3715e-05 0)
(0.0828351 -1.57865e-05 0)
(0.082834 -1.78374e-05 0)
(0.082833 -1.9883e-05 0)
(0.0828319 -2.19012e-05 0)
(0.082831 -2.39051e-05 0)
(0.0828301 -2.58762e-05 0)
(0.0828295 -2.78143e-05 0)
(0.0828291 -2.97159e-05 0)
(0.082829 -3.15866e-05 0)
(0.0828394 -1.4142e-06 0)
(0.082835 -3.30291e-06 0)
(0.0828347 -5.37272e-06 0)
(0.0828342 -7.46694e-06 0)
(0.0828335 -9.55835e-06 0)
(0.0828327 -1.16499e-05 0)
(0.0828318 -1.37263e-05 0)
(0.0828308 -1.5799e-05 0)
(0.0828298 -1.78516e-05 0)
(0.0828287 -1.98984e-05 0)
(0.0828277 -2.19183e-05 0)
(0.0828267 -2.39234e-05 0)
(0.0828259 -2.58961e-05 0)
(0.0828252 -2.78357e-05 0)
(0.0828248 -2.9739e-05 0)
(0.0828247 -3.16115e-05 0)
(0.0828352 -1.4154e-06 0)
(0.0828308 -3.3061e-06 0)
(0.0828304 -5.37789e-06 0)
(0.0828299 -7.47398e-06 0)
(0.0828293 -9.56738e-06 0)
(0.0828285 -1.16606e-05 0)
(0.0828276 -1.37388e-05 0)
(0.0828266 -1.58129e-05 0)
(0.0828255 -1.78673e-05 0)
(0.0828245 -1.99153e-05 0)
(0.0828234 -2.19368e-05 0)
(0.0828224 -2.39431e-05 0)
(0.0828216 -2.59174e-05 0)
(0.0828209 -2.78585e-05 0)
(0.0828205 -2.97635e-05 0)
(0.0828204 -3.16378e-05 0)
(0.0828309 -1.41677e-06 0)
(0.0828265 -3.30981e-06 0)
(0.0828262 -5.3839e-06 0)
(0.0828257 -7.48215e-06 0)
(0.082825 -9.5778e-06 0)
(0.0828242 -1.16728e-05 0)
(0.0828233 -1.37532e-05 0)
(0.0828223 -1.58287e-05 0)
(0.0828213 -1.7885e-05 0)
(0.0828202 -1.99341e-05 0)
(0.0828191 -2.19574e-05 0)
(0.0828182 -2.39649e-05 0)
(0.0828173 -2.59408e-05 0)
(0.0828166 -2.78832e-05 0)
(0.0828163 -2.97899e-05 0)
(0.0828161 -3.16661e-05 0)
(0.0828267 -1.41836e-06 0)
(0.0828223 -3.31417e-06 0)
(0.0828219 -5.39096e-06 0)
(0.0828214 -7.49173e-06 0)
(0.0828207 -9.58998e-06 0)
(0.0828199 -1.16871e-05 0)
(0.082819 -1.37698e-05 0)
(0.082818 -1.5847e-05 0)
(0.082817 -1.79054e-05 0)
(0.0828159 -1.99557e-05 0)
(0.0828149 -2.19807e-05 0)
(0.0828139 -2.39893e-05 0)
(0.082813 -2.59668e-05 0)
(0.0828124 -2.79105e-05 0)
(0.082812 -2.98187e-05 0)
(0.0828119 -3.16968e-05 0)
(0.0828224 -1.42024e-06 0)
(0.082818 -3.31938e-06 0)
(0.0828176 -5.39937e-06 0)
(0.0828171 -7.50316e-06 0)
(0.0828165 -9.60447e-06 0)
(0.0828157 -1.17041e-05 0)
(0.0828148 -1.37895e-05 0)
(0.0828138 -1.58685e-05 0)
(0.0828127 -1.79292e-05 0)
(0.0828117 -1.99808e-05 0)
(0.0828106 -2.20077e-05 0)
(0.0828096 -2.40173e-05 0)
(0.0828087 -2.59962e-05 0)
(0.0828081 -2.79411e-05 0)
(0.0828077 -2.98509e-05 0)
(0.0828076 -3.17308e-05 0)
(0.0828181 -1.42247e-06 0)
(0.0828137 -3.32565e-06 0)
(0.0828134 -5.40949e-06 0)
(0.0828129 -7.51689e-06 0)
(0.0828122 -9.62185e-06 0)
(0.0828114 -1.17244e-05 0)
(0.0828105 -1.38131e-05 0)
(0.0828095 -1.58942e-05 0)
(0.0828084 -1.79575e-05 0)
(0.0828074 -2.00105e-05 0)
(0.0828063 -2.20393e-05 0)
(0.0828053 -2.40498e-05 0)
(0.0828045 -2.60302e-05 0)
(0.0828038 -2.79761e-05 0)
(0.0828034 -2.98872e-05 0)
(0.0828033 -3.17688e-05 0)
(0.0828139 -1.42516e-06 0)
(0.0828094 -3.3332e-06 0)
(0.0828091 -5.42169e-06 0)
(0.0828086 -7.53347e-06 0)
(0.0828079 -9.64278e-06 0)
(0.0828071 -1.17489e-05 0)
(0.0828062 -1.38414e-05 0)
(0.0828052 -1.59251e-05 0)
(0.0828042 -1.79914e-05 0)
(0.0828031 -2.00459e-05 0)
(0.082802 -2.20768e-05 0)
(0.082801 -2.40882e-05 0)
(0.0828002 -2.607e-05 0)
(0.0827995 -2.80167e-05 0)
(0.0827991 -2.99289e-05 0)
(0.082799 -3.18121e-05 0)
(0.0828096 -1.4284e-06 0)
(0.0828052 -3.34234e-06 0)
(0.0828048 -5.43643e-06 0)
(0.0828043 -7.55353e-06 0)
(0.0828036 -9.66811e-06 0)
(0.0828028 -1.17787e-05 0)
(0.0828019 -1.38756e-05 0)
(0.0828009 -1.59625e-05 0)
(0.0827999 -1.80323e-05 0)
(0.0827988 -2.00887e-05 0)
(0.0827978 -2.21219e-05 0)
(0.0827967 -2.41341e-05 0)
(0.0827959 -2.61171e-05 0)
(0.0827952 -2.80643e-05 0)
(0.0827948 -2.99774e-05 0)
(0.0827947 -3.1862e-05 0)
(0.0828053 -1.43232e-06 0)
(0.0828009 -3.35332e-06 0)
(0.0828005 -5.45416e-06 0)
(0.0828 -7.57768e-06 0)
(0.0827993 -9.69859e-06 0)
(0.0827985 -1.18146e-05 0)
(0.0827976 -1.39169e-05 0)
(0.0827967 -1.60078e-05 0)
(0.0827956 -1.80818e-05 0)
(0.0827945 -2.01404e-05 0)
(0.0827935 -2.21764e-05 0)
(0.0827925 -2.41893e-05 0)
(0.0827916 -2.61737e-05 0)
(0.0827909 -2.8121e-05 0)
(0.0827905 -3.00346e-05 0)
(0.0827903 -3.19203e-05 0)
(0.082801 -1.43703e-06 0)
(0.0827965 -3.36643e-06 0)
(0.0827962 -5.47534e-06 0)
(0.0827957 -7.60661e-06 0)
(0.082795 -9.73512e-06 0)
(0.0827942 -1.18577e-05 0)
(0.0827933 -1.39667e-05 0)
(0.0827924 -1.60625e-05 0)
(0.0827913 -1.81416e-05 0)
(0.0827902 -2.02031e-05 0)
(0.0827892 -2.22424e-05 0)
(0.0827882 -2.42563e-05 0)
(0.0827873 -2.62421e-05 0)
(0.0827866 -2.81891e-05 0)
(0.0827862 -3.01029e-05 0)
(0.082786 -3.19892e-05 0)
(0.0827967 -1.44266e-06 0)
(0.0827922 -3.38191e-06 0)
(0.0827918 -5.50039e-06 0)
(0.0827914 -7.64089e-06 0)
(0.0827907 -9.77847e-06 0)
(0.0827899 -1.19091e-05 0)
(0.082789 -1.4026e-05 0)
(0.082788 -1.61281e-05 0)
(0.082787 -1.82135e-05 0)
(0.0827859 -2.02789e-05 0)
(0.0827849 -2.23224e-05 0)
(0.0827839 -2.43376e-05 0)
(0.082783 -2.63252e-05 0)
(0.0827823 -2.82716e-05 0)
(0.0827819 -3.01852e-05 0)
(0.0827817 -3.20714e-05 0)
(0.0827923 -1.4493e-06 0)
(0.0827879 -3.39995e-06 0)
(0.0827875 -5.52958e-06 0)
(0.082787 -7.68095e-06 0)
(0.0827864 -9.82923e-06 0)
(0.0827856 -1.19696e-05 0)
(0.0827847 -1.40961e-05 0)
(0.0827837 -1.62061e-05 0)
(0.0827827 -1.82994e-05 0)
(0.0827816 -2.037e-05 0)
(0.0827806 -2.24192e-05 0)
(0.0827796 -2.44363e-05 0)
(0.0827787 -2.64264e-05 0)
(0.082778 -2.83721e-05 0)
(0.0827776 -3.02849e-05 0)
(0.0827774 -3.21697e-05 0)
(0.082788 -1.45704e-06 0)
(0.0827835 -3.42061e-06 0)
(0.0827831 -5.56307e-06 0)
(0.0827827 -7.72705e-06 0)
(0.082782 -9.88777e-06 0)
(0.0827812 -1.20398e-05 0)
(0.0827804 -1.41776e-05 0)
(0.0827794 -1.62974e-05 0)
(0.0827784 -1.84005e-05 0)
(0.0827773 -2.04783e-05 0)
(0.0827763 -2.25351e-05 0)
(0.0827753 -2.4556e-05 0)
(0.0827744 -2.65505e-05 0)
(0.0827737 -2.8496e-05 0)
(0.0827732 -3.04085e-05 0)
(0.082773 -3.22908e-05 0)
(0.0827836 -1.4659e-06 0)
(0.0827791 -3.4438e-06 0)
(0.0827787 -5.6007e-06 0)
(0.0827783 -7.77897e-06 0)
(0.0827776 -9.95387e-06 0)
(0.0827769 -1.21193e-05 0)
(0.082776 -1.42705e-05 0)
(0.082775 -1.64022e-05 0)
(0.082774 -1.85175e-05 0)
(0.082773 -2.06049e-05 0)
(0.0827719 -2.26723e-05 0)
(0.082771 -2.46998e-05 0)
(0.0827701 -2.67024e-05 0)
(0.0827694 -2.86514e-05 0)
(0.0827689 -3.0568e-05 0)
(0.0827687 -3.2451e-05 0)
(0.0827792 -1.47584e-06 0)
(0.0827747 -3.46921e-06 0)
(0.0827743 -5.64198e-06 0)
(0.0827738 -7.83609e-06 0)
(0.0827732 -1.00267e-05 0)
(0.0827725 -1.22075e-05 0)
(0.0827716 -1.43738e-05 0)
(0.0827707 -1.65197e-05 0)
(0.0827697 -1.86494e-05 0)
(0.0827686 -2.0749e-05 0)
(0.0827676 -2.28301e-05 0)
(0.0827666 -2.48677e-05 0)
(0.0827658 -2.68834e-05 0)
(0.0827651 -2.88413e-05 0)
(0.0827646 -3.07705e-05 0)
(0.0827644 -3.26639e-05 0)
(0.0827748 -1.48673e-06 0)
(0.0827702 -3.49628e-06 0)
(0.0827699 -5.68601e-06 0)
(0.0827694 -7.89717e-06 0)
(0.0827688 -1.01048e-05 0)
(0.082768 -1.23023e-05 0)
(0.0827672 -1.44853e-05 0)
(0.0827663 -1.66472e-05 0)
(0.0827653 -1.87931e-05 0)
(0.0827643 -2.09074e-05 0)
(0.0827632 -2.30045e-05 0)
(0.0827623 -2.50543e-05 0)
(0.0827614 -2.70861e-05 0)
(0.0827607 -2.90546e-05 0)
(0.0827603 -3.09989e-05 0)
(0.08276 -3.29035e-05 0)
(0.0827703 -1.49833e-06 0)
(0.0827657 -3.52422e-06 0)
(0.0827654 -5.73149e-06 0)
(0.0827649 -7.96039e-06 0)
(0.0827643 -1.01858e-05 0)
(0.0827636 -1.2401e-05 0)
(0.0827627 -1.46016e-05 0)
(0.0827618 -1.67809e-05 0)
(0.0827609 -1.89443e-05 0)
(0.0827599 -2.10748e-05 0)
(0.0827589 -2.31895e-05 0)
(0.0827579 -2.52529e-05 0)
(0.0827571 -2.73023e-05 0)
(0.0827564 -2.9281e-05 0)
(0.082756 -3.12407e-05 0)
(0.0827557 -3.31547e-05 0)
(0.0827658 -1.5103e-06 0)
(0.0827612 -3.55196e-06 0)
(0.0827608 -5.77667e-06 0)
(0.0827604 -8.02332e-06 0)
(0.0827598 -1.02665e-05 0)
(0.0827591 -1.24998e-05 0)
(0.0827583 -1.47181e-05 0)
(0.0827574 -1.69155e-05 0)
(0.0827564 -1.90968e-05 0)
(0.0827554 -2.12446e-05 0)
(0.0827545 -2.33774e-05 0)
(0.0827536 -2.54553e-05 0)
(0.0827527 -2.75229e-05 0)
(0.0827521 -2.95103e-05 0)
(0.0827516 -3.14859e-05 0)
(0.0827514 -3.34066e-05 0)
(0.0827613 -1.52219e-06 0)
(0.0827566 -3.57817e-06 0)
(0.0827563 -5.81939e-06 0)
(0.0827558 -8.08293e-06 0)
(0.0827552 -1.0343e-05 0)
(0.0827545 -1.25937e-05 0)
(0.0827537 -1.48292e-05 0)
(0.0827529 -1.70445e-05 0)
(0.0827519 -1.92434e-05 0)
(0.082751 -2.14089e-05 0)
(0.0827501 -2.35595e-05 0)
(0.0827492 -2.56524e-05 0)
(0.0827484 -2.7738e-05 0)
(0.0827478 -2.97327e-05 0)
(0.0827473 -3.17264e-05 0)
(0.0827471 -3.36484e-05 0)
(0.0827567 -1.53341e-06 0)
(0.0827519 -3.60134e-06 0)
(0.0827516 -5.85717e-06 0)
(0.0827512 -8.13573e-06 0)
(0.0827506 -1.04109e-05 0)
(0.0827499 -1.26774e-05 0)
(0.0827492 -1.49282e-05 0)
(0.0827483 -1.71601e-05 0)
(0.0827474 -1.93749e-05 0)
(0.0827465 -2.15576e-05 0)
(0.0827456 -2.37247e-05 0)
(0.0827448 -2.58331e-05 0)
(0.082744 -2.79356e-05 0)
(0.0827434 -2.99389e-05 0)
(0.082743 -3.19524e-05 0)
(0.0827428 -3.38654e-05 0)
(0.0827521 -1.54333e-06 0)
(0.0827473 -3.61974e-06 0)
(0.082747 -5.88716e-06 0)
(0.0827465 -8.17769e-06 0)
(0.082746 -1.04647e-05 0)
(0.0827453 -1.27439e-05 0)
(0.0827446 -1.50069e-05 0)
(0.0827438 -1.72526e-05 0)
(0.0827429 -1.94803e-05 0)
(0.082742 -2.1678e-05 0)
(0.0827411 -2.38593e-05 0)
(0.0827403 -2.59833e-05 0)
(0.0827396 -2.81019e-05 0)
(0.0827391 -3.0118e-05 0)
(0.0827387 -3.2147e-05 0)
(0.0827386 -3.40316e-05 0)
(0.0827474 -1.55121e-06 0)
(0.0827426 -3.63139e-06 0)
(0.0827423 -5.90613e-06 0)
(0.0827419 -8.20428e-06 0)
(0.0827413 -1.04988e-05 0)
(0.0827407 -1.27863e-05 0)
(0.08274 -1.50568e-05 0)
(0.0827392 -1.73122e-05 0)
(0.0827383 -1.95488e-05 0)
(0.0827375 -2.17588e-05 0)
(0.0827366 -2.39515e-05 0)
(0.0827359 -2.60895e-05 0)
(0.0827352 -2.82199e-05 0)
(0.0827347 -3.02435e-05 0)
(0.0827345 -3.22693e-05 0)
(0.0827344 -3.41018e-05 0)
(0.0827427 -1.5562e-06 0)
(0.0827378 -3.63447e-06 0)
(0.0827375 -5.91118e-06 0)
(0.0827371 -8.21163e-06 0)
(0.0827366 -1.05085e-05 0)
(0.082736 -1.27996e-05 0)
(0.0827353 -1.50735e-05 0)
(0.0827345 -1.73345e-05 0)
(0.0827337 -1.95743e-05 0)
(0.0827329 -2.17902e-05 0)
(0.0827321 -2.39854e-05 0)
(0.0827314 -2.6126e-05 0)
(0.0827308 -2.82482e-05 0)
(0.0827304 -3.02533e-05 0)
(0.0827303 -3.22454e-05 0)
(0.0827304 -3.40069e-05 0)
(0.0827379 -1.55751e-06 0)
(0.0827331 -3.62881e-06 0)
(0.0827328 -5.90197e-06 0)
(0.0827324 -8.19897e-06 0)
(0.0827319 -1.04921e-05 0)
(0.0827313 -1.27803e-05 0)
(0.0827306 -1.50503e-05 0)
(0.0827299 -1.7307e-05 0)
(0.0827291 -1.95358e-05 0)
(0.0827283 -2.17386e-05 0)
(0.0827276 -2.39104e-05 0)
(0.082727 -2.60244e-05 0)
(0.0827265 -2.81055e-05 0)
(0.0827262 -3.00619e-05 0)
(0.0827262 -3.19915e-05 0)
(0.0827265 -3.36716e-05 0)
(0.0827332 -1.55506e-06 0)
(0.0827283 -3.61233e-06 0)
(0.082728 -5.87439e-06 0)
(0.0827276 -8.15873e-06 0)
(0.0827272 -1.04364e-05 0)
(0.0827266 -1.27066e-05 0)
(0.0827259 -1.49526e-05 0)
(0.0827252 -1.71812e-05 0)
(0.0827245 -1.93723e-05 0)
(0.0827238 -2.15323e-05 0)
(0.0827232 -2.36481e-05 0)
(0.0827226 -2.57035e-05 0)
(0.0827222 -2.77116e-05 0)
(0.0827221 -2.9595e-05 0)
(0.0827223 -3.14392e-05 0)
(0.0827228 -3.30327e-05 0)
(0.0827284 -1.54799e-06 0)
(0.0827235 -3.57286e-06 0)
(0.0827232 -5.80788e-06 0)
(0.0827229 -8.06138e-06 0)
(0.0827224 -1.03024e-05 0)
(0.0827219 -1.25301e-05 0)
(0.0827213 -1.47245e-05 0)
(0.0827207 -1.68953e-05 0)
(0.08272 -1.90184e-05 0)
(0.0827194 -2.11054e-05 0)
(0.0827188 -2.31359e-05 0)
(0.0827184 -2.51059e-05 0)
(0.0827182 -2.70167e-05 0)
(0.0827182 -2.88104e-05 0)
(0.0827186 -3.05556e-05 0)
(0.0827193 -3.2066e-05 0)
(0.0827236 -1.53116e-06 0)
(0.0827187 -3.49411e-06 0)
(0.0827185 -5.67651e-06 0)
(0.0827182 -7.87233e-06 0)
(0.0827178 -1.00485e-05 0)
(0.0827173 -1.22048e-05 0)
(0.0827168 -1.43188e-05 0)
(0.0827162 -1.6403e-05 0)
(0.0827157 -1.84304e-05 0)
(0.0827151 -2.04185e-05 0)
(0.0827147 -2.23406e-05 0)
(0.0827144 -2.42055e-05 0)
(0.0827143 -2.60027e-05 0)
(0.0827145 -2.76976e-05 0)
(0.082715 -2.93388e-05 0)
(0.082716 -3.07758e-05 0)
(0.0827188 -1.49759e-06 0)
(0.0827141 -3.36332e-06 0)
(0.0827139 -5.46076e-06 0)
(0.0827137 -7.56691e-06 0)
(0.0827133 -9.64752e-06 0)
(0.0827129 -1.17029e-05 0)
(0.0827125 -1.37094e-05 0)
(0.082712 -1.56818e-05 0)
(0.0827115 -1.75911e-05 0)
(0.0827111 -1.94607e-05 0)
(0.0827108 -2.12583e-05 0)
(0.0827106 -2.30054e-05 0)
(0.0827106 -2.468e-05 0)
(0.082711 -2.62726e-05 0)
(0.0827117 -2.78098e-05 0)
(0.0827129 -2.9184e-05 0)
(0.0827142 -1.44176e-06 0)
(0.0827097 -3.17533e-06 0)
(0.0827096 -5.15331e-06 0)
(0.0827094 -7.13695e-06 0)
(0.0827091 -9.09198e-06 0)
(0.0827088 -1.10196e-05 0)
(0.0827084 -1.28952e-05 0)
(0.082708 -1.47358e-05 0)
(0.0827077 -1.65106e-05 0)
(0.0827073 -1.8248e-05 0)
(0.0827071 -1.99111e-05 0)
(0.0827071 -2.15333e-05 0)
(0.0827072 -2.30814e-05 0)
(0.0827077 -2.45715e-05 0)
(0.0827087 -2.6007e-05 0)
(0.0827101 -2.73271e-05 0)
(0.0827098 -1.36138e-06 0)
(0.0827057 -2.93416e-06 0)
(0.0827056 -4.76116e-06 0)
(0.0827054 -6.59285e-06 0)
(0.0827052 -8.39631e-06 0)
(0.0827049 -1.01736e-05 0)
(0.0827046 -1.19e-05 0)
(0.0827043 -1.35936e-05 0)
(0.0827041 -1.52224e-05 0)
(0.0827039 -1.6819e-05 0)
(0.0827038 -1.83421e-05 0)
(0.0827038 -1.98357e-05 0)
(0.0827041 -2.12563e-05 0)
(0.0827048 -2.26448e-05 0)
(0.0827059 -2.39811e-05 0)
(0.0827074 -2.52536e-05 0)
(0.0827057 -1.25809e-06 0)
(0.082702 -2.65172e-06 0)
(0.0827019 -4.30343e-06 0)
(0.0827018 -5.9606e-06 0)
(0.0827016 -7.59282e-06 0)
(0.0827014 -9.20295e-06 0)
(0.0827012 -1.07667e-05 0)
(0.082701 -1.23028e-05 0)
(0.0827009 -1.37783e-05 0)
(0.0827008 -1.52285e-05 0)
(0.0827008 -1.66087e-05 0)
(0.0827009 -1.7972e-05 0)
(0.0827013 -1.92655e-05 0)
(0.0827021 -2.05531e-05 0)
(0.0827033 -2.17922e-05 0)
(0.082705 -2.30201e-05 0)
(0.082702 -1.13698e-06 0)
(0.0826987 -2.34505e-06 0)
(0.0826986 -3.80712e-06 0)
(0.0826986 -5.27628e-06 0)
(0.0826984 -6.72541e-06 0)
(0.0826983 -8.15812e-06 0)
(0.0826982 -9.5511e-06 0)
(0.0826981 -1.09231e-05 0)
(0.082698 -1.22409e-05 0)
(0.082698 -1.35415e-05 0)
(0.0826981 -1.47776e-05 0)
(0.0826983 -1.60095e-05 0)
(0.0826988 -1.71767e-05 0)
(0.0826997 -1.83632e-05 0)
(0.082701 -1.95058e-05 0)
(0.0827028 -2.06888e-05 0)
(0.0826987 -1.00539e-06 0)
(0.0826959 -2.03306e-06 0)
(0.0826958 -3.30209e-06 0)
(0.0826958 -4.57966e-06 0)
(0.0826957 -5.84223e-06 0)
(0.0826956 -7.09408e-06 0)
(0.0826956 -8.31337e-06 0)
(0.0826955 -9.5187e-06 0)
(0.0826955 -1.06772e-05 0)
(0.0826956 -1.18267e-05 0)
(0.0826957 -1.29187e-05 0)
(0.0826961 -1.40185e-05 0)
(0.0826966 -1.50599e-05 0)
(0.0826976 -1.61439e-05 0)
(0.0826989 -1.71897e-05 0)
(0.0827007 -1.83241e-05 0)
(0.0826959 -8.71493e-07 0)
(0.0826935 -1.73336e-06 0)
(0.0826935 -2.81627e-06 0)
(0.0826934 -3.90807e-06 0)
(0.0826934 -4.98874e-06 0)
(0.0826934 -6.06303e-06 0)
(0.0826933 -7.11105e-06 0)
(0.0826933 -8.15112e-06 0)
(0.0826934 -9.15173e-06 0)
(0.0826935 -1.01507e-05 0)
(0.0826937 -1.10996e-05 0)
(0.0826941 -1.2067e-05 0)
(0.0826948 -1.29834e-05 0)
(0.0826957 -1.39626e-05 0)
(0.0826971 -1.491e-05 0)
(0.0826989 -1.59896e-05 0)
(0.0826935 -7.42912e-07 0)
(0.0826915 -1.45973e-06 0)
(0.0826915 -2.37172e-06 0)
(0.0826915 -3.29146e-06 0)
(0.0826915 -4.20205e-06 0)
(0.0826915 -5.10843e-06 0)
(0.0826915 -5.99296e-06 0)
(0.0826915 -6.87361e-06 0)
(0.0826916 -7.72101e-06 0)
(0.0826918 -8.57256e-06 0)
(0.0826921 -9.38116e-06 0)
(0.0826925 -1.02169e-05 0)
(0.0826932 -1.10094e-05 0)
(0.0826941 -1.18813e-05 0)
(0.0826955 -1.27284e-05 0)
(0.0826972 -1.37448e-05 0)
(0.0826915 -6.2558e-07 0)
(0.0826899 -1.22046e-06 0)
(0.0826899 -1.9821e-06 0)
(0.0826899 -2.74908e-06 0)
(0.0826899 -3.50702e-06 0)
(0.0826899 -4.2607e-06 0)
(0.08269 -4.9947e-06 0)
(0.0826901 -5.72648e-06 0)
(0.0826902 -6.42928e-06 0)
(0.0826904 -7.13964e-06 0)
(0.0826907 -7.81307e-06 0)
(0.0826912 -8.51983e-06 0)
(0.0826918 -9.19074e-06 0)
(0.0826928 -9.95318e-06 0)
(0.0826941 -1.06982e-05 0)
(0.0826957 -1.16422e-05 0)
(0.0826899 -5.23051e-07 0)