/*--------------------------------*- C++ -*----------------------------------*\
  =========                 |
  \\      /  F ield         | OpenFOAM: The Open Source CFD Toolbox
   \\    /   O peration     | Website:  https://openfoam.org
    \\  /    A nd           | Version:  8
     \\/     M anipulation  |
\*---------------------------------------------------------------------------*/
FoamFile
{
    version     2.0;
    format      ascii;
    class       surfaceVectorField;
    location    "0.0490000";
    object      Uf_0;
}
// * * * * * * * * * * * * * * * * * * * * * * * * * * * * * * * * * * * * * //

dimensions      [0 1 -1 0 0 0 0];

internalField   nonuniform List<vector> 
1094
(
(0.618011094119607 0.000526530828480447 9.77610675316877e-19)
(0.38457109148044 0.0017389072405714 6.57593819495385e-19)
(0.618289707032177 0.000377378336783213 6.1307062028139e-18)
(0.386539279841267 0.00187089260496405 8.42978345001939e-18)
(0.618468299027912 0.00036625971196678 1.44747056930164e-17)
(0.386727761407164 0.00196439040454318 1.89227444668265e-17)
(0.618460711685008 0.000398656183156728 1.67464733161849e-17)
(0.386754725653732 0.00210859324092457 3.03172920195907e-17)
(0.618339614037436 0.000416613710879803 1.35779789217278e-17)
(0.386546679941546 0.00219691608563428 2.76363034726402e-17)
(0.61816800825515 0.000426398199562955 2.45126193449439e-17)
(0.386209608543289 0.00224052038757386 2.35595626452744e-17)
(0.617978301325492 0.000433040055305183 2.5106842186179e-17)
(0.385823208957532 0.00226287600731721 3.3835412248518e-17)
(0.617781723285502 0.000438038930081093 1.02244454354986e-17)
(0.385418981165261 0.00227652629806097 1.50474521447824e-17)
(0.617580522540491 0.000442267544638332 1.29807206835198e-17)
(0.385005524423876 0.0022866749087621 1.0573798265155e-17)
(0.617375194070715 0.000446546687375807 5.65410868224339e-18)
(0.384584543612946 0.00229616025497515 3.90164148114924e-17)
(0.617166431435257 0.000450864593086371 -4.7807444086848e-19)
(0.38415634380764 0.00230620909976419 -1.54941460210973e-17)
(0.616953306986543 0.00045478078419186 2.70242369125625e-17)
(0.383720588814683 0.00231601942630845 -2.6530389212957e-17)
(0.616734691441383 0.000458429326350383 2.0475933506259e-17)
(0.383276084224941 0.00232525856799483 5.46301960292919e-18)
(0.616510279591946 0.000462268394916891 -1.25343422253829e-17)
(0.382821904185333 0.00233458462455601 -3.36511206030714e-17)
(0.616280878182455 0.0004661680263048 -1.89815607831962e-17)
(0.382358158032488 0.00234458507932212 -3.78372612460537e-17)
(0.61604575610962 0.000469668728538071 -2.69813477962683e-17)
(0.381884608732259 0.00235431549737315 -3.57027651082156e-17)
(0.615804384636139 0.000472933113511671 -8.24909773407215e-17)
(0.381400364133009 0.00236348470683955 -6.0060838476291e-17)
(0.615556502663181 0.000476525559693273 -9.22827313811616e-17)
(0.380904987355509 0.00237284784104242 -1.25737816555004e-16)
(0.615302569460079 0.000480338308574094 -3.07253878189598e-17)
(0.380398318151247 0.00238320902498334 -9.56981246188274e-17)
(0.615041616451213 0.000483837761869339 1.46783148424546e-17)
(0.379879828814667 0.00239348665770473 -7.87183328353391e-18)
(0.614773058945318 0.000487171318532664 3.09974451441103e-17)
(0.379348586782121 0.00240332534715198 2.71481559592272e-18)
(0.614496548444264 0.000490885527676729 5.10474554595292e-18)
(0.378804038291617 0.0024134863235333 6.2412677667895e-17)
(0.614213075107169 0.000494761210024558 -2.60703663449265e-17)
(0.378246045419606 0.00242477442880354 5.81553011485743e-17)
(0.613921731302209 0.000498306258025315 -7.22706121738047e-18)
(0.377674396538311 0.00243580287017662 -7.18338364643024e-17)
(0.613621871822441 0.000501799989358635 -7.18762563287907e-19)
(0.377088146390601 0.00244657803283713 -8.97272925186025e-17)
(0.613313123152425 0.000505817100220532 -2.74903553412641e-17)
(0.376486324833351 0.00245787412754558 -5.84807061915626e-17)
(0.612997001232983 0.000510114555583112 -1.16394714723741e-16)
(0.375869350629314 0.00247066129714085 -4.73666151380192e-17)
(0.612671715087647 0.000514185629034414 -1.71012604108016e-16)
(0.375236798614576 0.00248328847747395 -2.75355135998637e-16)
(0.61233634484575 0.00051839402248407 -1.77711855776473e-16)
(0.374586908220329 0.00249593949976792 -2.61881663714101e-16)
(0.611990356141124 0.000523463278057694 -1.7433392812435e-16)
(0.373918890760371 0.00250948168229166 -2.97816414869559e-16)
(0.611636259732444 0.000528900736696419 -6.76754845880623e-17)
(0.373233260119247 0.00252529649920913 -1.29676382630535e-16)
(0.611272205465423 0.00053398334505119 -5.78061647004554e-17)
(0.372530033638726 0.00254060183103431 2.48947400019936e-17)
(0.610897411829387 0.000539425977448774 -8.622579921502e-17)
(0.371807553409892 0.00255605428861099 -1.07739818951509e-16)
(0.610511020360676 0.000546457085805039 -1.35632845754021e-16)
(0.37106471603418 0.00257304507135365 -9.32700934759002e-17)
(0.610116944165345 0.000554294547142481 -1.74997863224135e-16)
(0.370302934823164 0.00259404346848195 -3.03336957858489e-16)
(0.609711826341337 0.000561713682993858 -9.42881806418832e-17)
(0.369522120396525 0.00261428674094046 -2.67092349475299e-16)
(0.609295733279522 0.000569830162326409 -3.29119786107105e-17)
(0.368720024481362 0.00263490499472331 -9.14426363608378e-17)
(0.608868436582606 0.000580785829851406 9.23316360104439e-17)
(0.367896984364188 0.00265804235323865 -4.21485353957643e-17)
(0.608436530660774 0.000593265244356837 1.65750470668166e-16)
(0.367055977146789 0.00268829460850951 1.78137371492121e-16)
(0.607994470531835 0.000605328861453905 8.37996715477368e-17)
(0.366197186694632 0.00271711727305213 2.4468620526321e-16)
(0.607542629414959 0.000619068250793983 -5.18275351520108e-19)
(0.365318195458716 0.00274716148548599 7.09486794024989e-17)
(0.607081784718783 0.000637713429916707 2.78013304834762e-17)
(0.364420214184737 0.00278205702219908 2.75182444770982e-17)
(0.606622904406697 0.000658887089428771 4.00121959790002e-17)
(0.363509780333764 0.00282842712489636 1.91528987804856e-16)
(0.606158485702232 0.000679656279015127 5.46068883564596e-17)
(0.362588649432961 0.00287243813778379 5.36567165567757e-17)
(0.605690081395147 0.000703910793838661 3.00169611100307e-17)
(0.361654604085397 0.00291880529292373 1.50253087170713e-16)
(0.605221425389912 0.000736658801406305 3.65822760153832e-17)
(0.360713045133841 0.0029746577304809 -3.40103470828056e-17)
(0.604769198168527 0.000773274392193652 7.19933822342221e-17)
(0.359775508748763 0.00304881917251758 1.57049326738111e-16)
(0.60432474383978 0.000809454109860372 -2.97863930984987e-17)
(0.358846771007298 0.00311831215637937 2.03413211694558e-17)
(0.603892729014279 0.00085304018228282 -1.04547048456855e-16)
(0.357928992937554 0.0031924768747465 -1.546206564727e-16)
(0.603483754141659 0.000911206788991597 -4.62762200732043e-17)
(0.357035290878823 0.00328612442235588 -2.83706166439933e-16)
(0.603121864912768 0.000974883498834458 4.78508110717694e-17)
(0.356187037049472 0.00340728325801062 5.67258576355806e-17)
(0.602798286743531 0.00103815583322698 -4.39578389592308e-17)
(0.355395060529685 0.00351995526379964 1.51409209076081e-16)
(0.602524307579329 0.00111598462162955 -7.78811326317856e-17)
(0.354671514709338 0.00364106940852634 -1.52319300894046e-16)
(0.602327008535014 0.0012175178954482 -1.75762778683169e-17)
(0.354047335108435 0.00380007409982961 5.72340041240933e-18)
(0.602239523557496 0.00132577551958782 2.05255925107571e-17)
(0.353562168723864 0.00399645701505081 -1.70874410811196e-16)
(0.602258809215143 0.0014337671841914 -1.52694239672001e-17)
(0.353239390453316 0.00417812782567166 -3.10969948262271e-17)
(0.602411330799706 0.00156966888396158 -3.34329116317239e-18)
(0.353117043843292 0.00437436869075028 -1.87620260596138e-16)
(0.602761620941314 0.00174524371273255 8.31688569876577e-17)
(0.353263801563192 0.0046434165265743 4.76531716641391e-17)
(0.603374881274887 0.00194206444199383 4.81240009137971e-17)
(0.353767877479893 0.00496394436222368 1.67567150312379e-16)
(0.604374079119611 0.00216845517491885 2.04119042195134e-17)
(0.354738945931407 0.00530231517699555 2.19539147789039e-17)
(0.605982999038836 0.00252959803573215 -5.1144369839417e-17)
(0.356428447474164 0.00571908433544041 5.92985635702566e-17)
(0.608639614003902 0.0030706835072307 6.92529232700862e-17)
(0.359299352355 0.00647631649759837 -3.731305209693e-17)
(0.612598038204922 0.00367457199148877 1.74183846042966e-16)
(0.363813526023979 0.00744874454911543 3.15518225608134e-16)
(0.617952278710106 0.00430703009600268 5.82497264365445e-17)
(0.370250948532581 0.00839841366479629 1.63564656870357e-16)
(0.624747607244602 0.00512552623742634 -2.44597339327103e-17)
(0.379059299438316 0.00945168725935928 9.43130002047936e-17)
(0.633324238793512 0.00593803198803705 -3.30504488398331e-17)
(0.390482204184661 0.010931459096919 -1.42807510935818e-16)
(0.643460555127198 0.00649608308061397 4.70262731536571e-17)
(0.40459599877158 0.011923240086124 3.06750341337849e-17)
(0.655240220044372 0.00693828219712056 7.35197242288033e-17)
(0.421548543381657 0.0125841193090465 7.03539949244305e-17)
(0.668662150102843 0.00738411364816318 -5.24310399940568e-17)
(0.441356581300216 0.0131574536574146 1.41042573906835e-16)
(0.683888077351762 0.00763616686845592 -8.54516545767e-17)
(0.463989226327646 0.0137426861408338 -1.38521016961563e-16)
(0.700576353869539 0.00758848541492193 2.95542863946288e-17)
(0.489277344797425 0.0136514538154034 4.09869496351451e-18)
(0.718641753961002 0.00742196470516237 3.91549557526361e-17)
(0.51709567782115 0.0132680558641057 1.15500012230265e-16)
(0.737958337160843 0.00710436855434756 -3.83679368513976e-17)
(0.547007933960485 0.0127254039211167 4.28755425598081e-17)
(0.758302219929545 0.00658091394618594 -1.118860343713e-16)
(0.578757561076932 0.0118117764061524 -9.42047242542486e-17)
(0.779459690484001 0.00592291776826341 -1.81774599066899e-17)
(0.612065645300747 0.0105917405967874 -2.55469228847683e-16)
(0.80130688832762 0.00515310668855616 1.76593055366912e-16)
(0.64654858672515 0.00921696865668622 8.01457566019329e-17)
(0.823662066018288 0.0042909327999316 1.8648674765311e-16)
(0.681933085277672 0.0076160670042188 3.16753328905742e-16)
(0.846462578606749 0.00341767281198426 7.52710187714664e-17)
(0.718089354448631 0.0059401006543781 4.81041473078537e-17)
(0.869701138951761 0.00254423742397815 3.13110166091674e-17)
(0.754867859896788 0.0042885717993137 8.02401462866854e-17)
(0.893395382491721 0.00167560347199789 -8.75172397345688e-17)
(0.792289735476375 0.00260346385315271 -6.11918865245252e-17)
(0.917526568703951 0.000876388553297962 -1.54590569873974e-16)
(0.830274993264477 0.00095047454698482 -3.94400348118512e-16)
(0.942535033233692 0.00020263849542907 -9.53617574294988e-18)
(0.869534961868685 -0.000503441820698788 -2.26435691658716e-16)
(0.968449870035343 -0.000377355732150488 1.14767295624756e-16)
(0.909409199761384 -0.00176421173417526 1.02478359071775e-16)
(0.996091408563491 -0.000724501712330193 8.10049996782142e-17)
(0.952954785835222 -0.00296359914128845 4.22155247414541e-17)
(1.02462144297924 -0.00110728771682575 3.80492525833109e-17)
(0.994973431235213 -0.00360817221654765 5.12129202860334e-17)
(1.05460059359578 -0.000442292685386656 2.97093564791483e-17)
(1.04925084269988 -0.00421601733424097 9.84657830226817e-17)
(1.05443672932904 0.000108579353947829 4.42609498560429e-18)
(1.0717153501258 -0.000399423859176224 2.09770200152271e-17)
(1.05699465835021 0.000168969006619896 -4.47324905821091e-17)
(1.06579928069955 -0.000416088221868114 -7.60736173119145e-17)
(1.05777408489817 0.000247663453895107 -4.84456311621075e-17)
(1.07023172854727 -6.35362490677627e-05 -1.10962029018882e-16)
(1.05866234577968 0.000327860632665292 1.36169369991959e-17)
(1.06916762709622 4.57175249494086e-05 -1.73690417517463e-17)
(1.0588321549786 0.000386492588455978 6.10601391443807e-17)
(1.06968123274227 0.000248321888658011 6.45475082107881e-17)
(1.05874835188389 0.000384165278398717 4.8384194035002e-17)
(1.0687808867493 0.000314863541656632 1.36497635798712e-16)
(1.05839793439297 0.000392480574427754 9.52139680331417e-18)
(1.0680532710744 0.000372704461759838 2.1198016700359e-17)
(1.05785014163233 0.00038864869012321 5.87836049969346e-18)
(1.06691178084167 0.000415735763412977 1.61282263888635e-17)
(1.05716208609378 0.000368796295098564 -7.51334389975983e-18)
(1.06566713296028 0.000433540320417294 3.29334149243408e-18)
(1.05640346630082 0.000345784629647722 -2.01313697064629e-17)
(1.06430276337045 0.000434784558397143 -1.68295107098279e-17)
(1.05560610187445 0.00031636941217195 -1.36955034053997e-17)
(1.06291041603391 0.000426866432723765 -2.55473915640884e-17)
(1.05478324561356 0.000290793063148323 -4.58425880195952e-18)
(1.0614792398278 0.000403572099070589 -1.11250682888773e-17)
(1.05379360877028 0.000347528699635467 -6.29417444720954e-19)
(1.06017265227733 0.000387038841261901 -4.93193705118886e-18)
(1.05857462121974 0.00030318818686647 4.17912319172914e-18)
(0.150394209153182 0.0033545838034737 8.17518379682947e-18)
(-0.00299275793217512 0.00510668366100801 2.58895282702678e-18)
(0.151550796777466 0.00385129921140737 2.13472241580549e-17)
(-3.97294320526549e-05 0.00561679001644846 1.59014105072611e-17)
(0.151911562379697 0.00420405035121944 3.49271617057926e-17)
(0.000147027191935759 0.00629622471970942 3.21330551737842e-17)
(0.151757657833724 0.00445134080786905 4.13658144762598e-17)
(-7.67535725768169e-06 0.00680922760347807 5.18560082227948e-17)
(0.151343596493685 0.00458404216236725 3.77690184151414e-17)
(-0.000482892467956834 0.00708313146194961 5.26757810580263e-17)
(0.150816258478289 0.00464820392243261 3.29599736522331e-17)
(-0.00112075775178751 0.00720946489639782 4.63794181006326e-17)
(0.150243855369095 0.00468139487571575 2.37257250824168e-17)
(-0.0018223560736738 0.00726787132758863 2.92922024517926e-17)
(0.149651961582582 0.00470261547801564 1.54201250831851e-17)
(-0.00254968714717583 0.00729975695594182 1.1645184126168e-17)
(0.149047447398425 0.00472005190390628 3.68249850554655e-17)
(-0.00329225736920789 0.00732262995657713 3.60467690978099e-18)
(0.148431834314801 0.00473708691751953 1.78200813745387e-17)
(-0.00404801110615954 0.0073435499916711 5.71754060193566e-17)
(0.147805590458596 0.00475431844083025 -4.18291126579966e-17)
(-0.00481645254809425 0.00736484589811559 -1.25033414834327e-18)
(0.147167614527305 0.00477127438860211 -4.84810416689092e-17)
(-0.00559797189188998 0.00738621899452995 -1.0461681282298e-16)
(0.146516339831866 0.00478809103338878 -4.91807225802173e-17)
(-0.00639407581006645 0.00740732908516286 -8.05661020689403e-17)
(0.145851215119547 0.00480533932358938 -5.92451959475594e-17)
(-0.00720596205568499 0.00742873373986336 -9.49034637247042e-17)
(0.145172476857865 0.00482284680314087 -5.47662395919919e-17)
(-0.00803370886540067 0.00745083439969051 -7.63667172858923e-17)
(0.144479178956176 0.0048400296317087 -6.90903381353152e-17)
(-0.00887771454940808 0.00747293388628838 -5.97161656437069e-17)
(0.143769997567644 0.00485713165612602 -1.03595280859698e-16)
(-0.00973937617226846 0.00749471750498592 -1.15209294490985e-16)
(0.143044420249234 0.00487492768968515 -1.2928956948113e-16)
(-0.0106197448686795 0.00751694951311132 -1.21541239283161e-16)
(0.142302629302279 0.00489329502469076 -7.28573839983898e-17)
(-0.0115189504783057 0.00754026299418191 -1.23780632977694e-16)
(0.141543515176292 0.00491153768243576 -2.00023040282208e-17)
(-0.0124374902751213 0.00756384408599276 1.45850406973552e-17)
(0.140765611371938 0.00492986657186216 3.43070315526219e-17)
(-0.0133768992557691 0.00758728587830351 6.75202415730156e-19)
(0.139968360507598 0.00494905648295518 1.16060006081101e-16)
(-0.0143383636607289 0.00761138652723936 1.99136037649117e-17)
(0.139152069838117 0.00496882843547363 1.22432611264133e-17)
(-0.0153220113585326 0.007636730642651 1.15576147279653e-16)
(0.138315402292332 0.00498850503919167 -1.5517481976946e-16)
(-0.0163284031515967 0.00766226986663747 -6.2412005147428e-17)
(0.13745680275428 0.00500850578200293 -1.48179463193242e-16)
(-0.0173593056432577 0.00768786713396411 -1.83223481263618e-16)
(0.136575713352488 0.00502972691500493 -7.85913886289423e-17)
(-0.0184161088402418 0.00771445422893864 -1.16325896442285e-16)
(0.135672597498989 0.00505184069986361 -2.07461217696434e-16)
(-0.0194986878803194 0.00774271798399471 -3.62195493103225e-17)
(0.13474564370808 0.00507411778426082 -3.67179700940311e-16)
(-0.0206077506497928 0.0077714384911952 -3.12025330143059e-16)
(0.133793005290057 0.00509714298117555 -3.83123418728076e-16)
(-0.021745611124541 0.00780056156461571 -3.64856674156834e-16)
(0.132814197424561 0.00512207729276191 -2.53031210752858e-16)
(-0.0229136710128145 0.00783126336747924 -3.55382458984833e-16)
(0.131810373723792 0.00514819547844385 -3.64709445641227e-17)
(-0.0241113850029157 0.00786445031768446 -1.08124780105028e-16)
(0.130779313741773 0.00517441521882261 -2.53048937627727e-17)
(-0.0253393125738227 0.00789794271730313 -2.37017926270021e-17)
(0.129718941078256 0.00520190419228268 -1.14872780838688e-16)
(-0.0266002815112758 0.00793199889198918 -1.07786817174745e-16)
(0.128629090222317 0.00523271136805933 -2.62258364105876e-16)
(-0.0278958642272024 0.00796863699917546 -1.40235610839118e-16)
(0.127512301395517 0.00526562222086645 -3.96326803877244e-16)
(-0.0292241623922503 0.00800955070850174 -3.82124846683796e-16)
(0.126365546651513 0.00529872635112001 -2.64414994521735e-16)
(-0.0305853660146316 0.00805089907562583 -3.83683693492398e-16)
(0.125186794285282 0.00533391987928444 -1.0080968086477e-16)
(-0.0319832116737166 0.00809305344144505 -1.53761408258611e-16)
(0.123977185056696 0.00537485192815548 4.42310300231374e-17)
(-0.0334185673915276 0.00813934343296077 -9.170282053134e-17)
(0.122742313970142 0.0054193852262889 2.57712138898253e-16)
(-0.0348866416277115 0.00819308955990595 1.32840779283972e-16)
(0.121478000045792 0.00546436835720272 2.31819997607295e-16)
(-0.0363865350253749 0.00824716614579401 3.26200005332436e-16)
(0.120182653446601 0.00551341651893721 9.92380715018091e-17)
(-0.0379228605876802 0.008302949813703 1.1899951974443e-16)
(0.118860432043952 0.00557219597508834 1.92558912708519e-16)
(-0.0394948568627249 0.00836603236025014 1.37586332330114e-16)
(0.117522225775865 0.00563668100207019 2.05298140267036e-16)
(-0.0410918998692644 0.00844117589706363 3.0445082378903e-16)
(0.116163327973349 0.00570190041681456 1.50072643427334e-16)
(-0.0427104245358304 0.00851629886419573 1.63253287372504e-16)
(0.114784138673684 0.00577471183732459 8.56829641864281e-17)
(-0.0443556704596565 0.0085943944605671 2.2403816026405e-16)
(0.113395830094753 0.00586407981162309 8.7458680850021e-17)
(-0.0460216547286186 0.00868561678054229 -1.03735100909213e-17)
(0.112018655059128 0.00596190117659694 1.04932155937777e-16)
(-0.047686626804177 0.00879618308499945 2.11001664468551e-16)
(0.110648411867327 0.00606062599183221 -1.055462937065e-16)
(-0.0493420120512287 0.00890491711611788 3.64386383015632e-17)
(0.10929178350703 0.00617431123620783 -3.35205682276399e-16)
(-0.0509915233736982 0.00901925381551192 -2.00738053893842e-16)
(0.10797616773851 0.00631601019251529 -1.79610995625601e-16)
(-0.0526160356686368 0.00915846730910281 -5.04344834965587e-16)
(0.10673792264221 0.00646931933875605 1.61129933246925e-16)
(-0.0541714140909373 0.00932705393837814 1.68999574359766e-16)
(0.105576590295774 0.00662347424133362 4.18743606897427e-17)
(-0.0556394584866143 0.00948986873429765 3.65515488303541e-16)
(0.104514195455144 0.00680572128448332 -6.78974353409118e-17)
(-0.0570178077109267 0.00966267434926918 -1.93647712576126e-16)
(0.103612968188651 0.00703282325752643 -1.48909632564688e-16)
(-0.0582563440075049 0.00988083934863916 1.00952995708706e-16)
(0.102936653447263 0.00727322674418662 -2.22573591007576e-16)
(-0.0592685507889386 0.0101392203959366 -3.2806020540889e-16)
(0.102498140573072 0.00751382778688848 -2.04890013942308e-16)
(-0.0600180284182778 0.0103835987986289 -1.97529406798098e-16)
(0.102355710412877 0.00780674334805933 -1.35774563429102e-16)
(-0.0604830373739676 0.0106455201192166 -3.95238279625587e-16)
(0.102649627605646 0.00817410150931494 1.32873116238523e-16)
(-0.0605433225113352 0.0109897264593425 -1.83205681511151e-17)
(0.103522129854696 0.00858191446987118 1.40873380844491e-16)
(-0.0600242307862531 0.011394320931821 2.07068893439036e-16)
(0.105137297387228 0.00904839684741109 6.11895906740418e-17)
(-0.0587863811887206 0.011816451275368 3.37250413046952e-17)
(0.107849358383367 0.0097718076790449 7.30221733321025e-17)
(-0.0566276211138169 0.0123505183518379 1.2135123578001e-16)
(0.112402726153388 0.0108325759901742 2.11476792909918e-16)
(-0.0528979450664492 0.0132734823417824 1.40325306254228e-16)
(0.119399455530063 0.0120019526153594 3.04555360192711e-16)
(-0.0467144911617033 0.0144450675256288 2.9995258891915e-16)
(0.12917287551306 0.0132102785754032 1.99816760310242e-16)
(-0.0376302979738261 0.0155752640101004 3.27091356577773e-16)
(0.142250954794426 0.0147356082001262 -2.52418185320483e-17)
(-0.0252246704467237 0.016846551871382 3.76369558266376e-17)
(0.159505025750754 0.0161986802267302 -7.84730646184797e-17)
(-0.008404473631347 0.018502009259394 -1.60766551488041e-16)
(0.180679679861104 0.0171238957769246 5.42038689748093e-17)
(0.0132200599293355 0.0195807938597699 -4.23280470667393e-17)
(0.205664908614639 0.0177691116378805 1.38412618248016e-16)
(0.0391942922344142 0.0201664078944094 5.31131114290732e-17)
(0.234651570997069 0.0183521783118665 5.43116617120866e-17)
(0.0695497163568407 0.0206162948094057 2.95297890579975e-16)
(0.267872130364446 0.0184923945481192 -4.8386943093571e-17)
(0.104815997405505 0.0209435020607165 -1.38455583262966e-16)
(0.304576182531851 0.0180014391657734 9.05307447238937e-17)
(0.144580810375191 0.0204464689327088 8.3137451848965e-18)
(0.344408393649105 0.0172178187266159 1.19185229392112e-16)
(0.188026069336661 0.0195085463614322 2.34520430312144e-16)
(0.387138002547782 0.0160871687962023 -1.32727544905925e-17)
(0.234930961461207 0.0183084589741642 8.82105351538994e-17)
(0.43221714428781 0.0145172685749372 -2.38223530420529e-16)
(0.284894285205888 0.0166169714379038 -8.54642303077773e-17)
(0.479113711656871 0.012650666404947 -1.56314491728333e-16)
(0.337187329206886 0.0145177550166634 -4.05142732143722e-16)
(0.527475452914903 0.0105394139239417 2.20828992411278e-16)
(0.391322103187979 0.0121794840362706 6.11658991514251e-17)
(0.576873777316456 0.00823540666004837 1.77665342746033e-16)
(0.446828654637566 0.00955839068092237 4.10648965310939e-16)
(0.627132029741341 0.00589766019585519 5.32072950093752e-17)
(0.503316869100448 0.00683166305915152 -7.94052919351746e-17)
(0.678243315853524 0.00354849093732405 -1.24910996793836e-17)
(0.560699918928046 0.00411808376964969 7.25653176074143e-17)
(0.730144903778886 0.00120266634694465 -3.67816992575703e-16)
(0.619053848233672 0.00135363886693098 -2.23049687034237e-16)
(0.782943150095821 -0.00100663119098167 -4.63411930587782e-16)
(0.677966975498924 -0.00135430152282721 -5.63902369797319e-16)
(0.837305347496586 -0.00298991059727196 -1.1188024746613e-16)
(0.738624944588962 -0.00384152319689561 -3.30240369521923e-16)
(0.893829716220649 -0.004813564183631 3.03948252804477e-17)
(0.800165886438538 -0.0060986643439098 4.53183685676527e-17)
(0.953265360581034 -0.00621215291364099 1.32090231025248e-17)
(0.86713155972468 -0.00830527205247378 -1.42508105228905e-16)
(1.01664298119726 -0.00720440325413852 1.11194040835676e-16)
(0.931564316189737 -0.00978386373037053 9.98822628597368e-17)
(1.07682979857252 -0.00382776068981273 8.8764083606515e-17)
(1.01522312647512 -0.0105044921987471 1.23152743270601e-16)
(1.078966381376 -0.000464058246299676 -5.87294738814855e-17)
(1.04918306011348 -0.000577916982834662 4.16795985881681e-17)
(1.08037688272029 -0.000181222967995788 -1.41248099626086e-16)
(1.0385924211616 -0.000541263166765996 -1.51745611266271e-16)
(1.08059845567657 4.44515831248804e-05 -7.95431386423022e-17)
(1.04443777365781 -9.11749310472205e-05 -1.56610041883963e-16)
(1.08022116674779 0.000259243196961979 3.34588537031689e-17)
(1.04169977962616 5.68955392538586e-05 -3.43332310292657e-17)
(1.07928946252575 0.000419977082124049 1.39421371734969e-16)
(1.04172129924089 0.000297295510023735 1.19944204239259e-16)
(1.07796675763687 0.000474379690717354 1.08698278871054e-16)
(1.03982562826358 0.000389102188307546 1.81339235779607e-16)
(1.07638685624002 0.000532736111679775 2.76626623753007e-17)
(1.03825854796417 0.000461337315334297 4.00781164448831e-17)
(1.07460909342802 0.000567963111435374 1.34696626163487e-17)
(1.03620489012587 0.000514283773983447 3.19064739663277e-17)
(1.07269677186672 0.000572444595162061 -6.06217517694412e-18)
(1.03410731422827 0.00053767038718157 2.20691649543117e-18)
(1.07071541979239 0.00056697489478692 -2.22455778546968e-17)
(1.03186133621845 0.000539823095600618 -1.3185055109758e-17)
(1.06872359987177 0.000547997985512851 -2.2899609424036e-17)
(1.02962054792679 0.000529541478455248 -3.33513035936435e-17)
(1.06679134110249 0.000535998832290959 -1.14250904331229e-17)
(1.02735664576959 0.000501183382318136 -2.1419005886354e-17)
(1.06503561646408 0.000606559443574444 -1.01837713221431e-19)
(1.0253698075399 0.000477087830265713 -7.67638814104849e-18)
(1.02352757452053 0.000348452924746587 6.73024775588882e-18)
(-0.154801321085717 0.00745793517376927 1.03574326465842e-17)
(-0.228507838548412 0.00833647188382037 2.97276420043989e-18)
(-0.153713995212653 0.00823689031240345 2.67567595289125e-17)
(-0.226807938155538 0.00916581011484984 1.38259726167026e-17)
(-0.153665500448399 0.00914106579302561 4.91955273087379e-17)
(-0.227249271729741 0.0105949667166387 3.65966705324371e-17)
(-0.154144857132971 0.00969473839547197 6.33063651963901e-17)
(-0.227876326915619 0.011478693167711 5.05096767321099e-17)
(-0.154850331105951 0.00996751051614403 6.14202764184068e-17)
(-0.228654966870733 0.0119085891171016 5.39479185912739e-17)
(-0.155649746659546 0.0100919231331158 4.27339931201808e-17)
(-0.229507490620497 0.0120993410585778 4.96769790986159e-17)
(-0.156489283802132 0.0101522323547412 1.7131263776869e-17)
(-0.23039072465107 0.0121857445029377 2.44335391805845e-17)
(-0.157349720669318 0.0101886796940214 -2.84097848158008e-19)
(-0.231291029506678 0.0122325455765518 -2.95463666589126e-18)
(-0.15822601540888 0.0102178428062776 2.40020827929914e-17)
(-0.232206053416647 0.0122665247594804 4.80726798830013e-18)
(-0.159117196226549 0.0102458286074533 3.8088515192153e-17)
(-0.233135960527503 0.012297670701232 5.57774465520097e-17)
(-0.160023195179252 0.0102740803154224 -6.44166584149978e-17)
(-0.234080891147894 0.0123290638711274 3.2022597051098e-17)
(-0.160944988190376 0.0103024201072826 -1.37160971479876e-16)
(-0.235041319369535 0.0123608325696464 -1.52305958434189e-16)
(-0.161883979678422 0.0103309404896127 -1.26771344653434e-16)
(-0.23601846478775 0.0123927512798028 -1.59632810711817e-16)
(-0.162840876946579 0.0103600564614644 -1.12281846324776e-16)
(-0.237013394620123 0.0124251648838497 -1.77240688035851e-16)
(-0.163815943181796 0.0103896317442523 -8.14254429300742e-17)
(-0.238026471124661 0.0124583318028983 -1.13621735956169e-16)
(-0.164810192335849 0.0104192211921323 -1.06182832822698e-16)
(-0.239058276626192 0.0124917876490545 -1.28700324864351e-16)
(-0.16582504024612 0.0104490370069776 -1.33335641506431e-16)
(-0.240110137052143 0.0125253262796224 -1.88998038892142e-16)
(-0.166861205284319 0.0104797163877497 -1.15965454960521e-16)
(-0.241183180965924 0.0125594986321652 -1.28860782935891e-16)
(-0.167918936285451 0.0105111880828494 -3.57723645580932e-17)
(-0.242277782290522 0.0125947622799748 -1.20563194849892e-16)
(-0.16899935661446 0.0105429138297386 3.5521181952695e-17)
(-0.243394548984 0.0126305810550569 5.21952478045207e-18)
(-0.170104052404622 0.0105750764572358 -1.39197382472302e-17)
(-0.244534951687023 0.0126666752409575 8.40546410722913e-18)
(-0.171233818081543 0.0106083126911758 1.91898667186858e-17)
(-0.245700264544835 0.0127036241371966 -6.68328478416386e-17)
(-0.172388961581295 0.0106424223714312 4.0567455241664e-17)
(-0.24689091309039 0.0127418540177785 5.53431507528023e-17)
(-0.173570909927044 0.0106768767605327 -9.04760641006469e-17)
(-0.248107699306992 0.0127806588308892 -3.50185302246549e-17)
(-0.174781436888541 0.0107120487727684 -1.51191510731617e-16)
(-0.249352390807915 0.0128199423658935 -1.687391907433e-16)
(-0.17602135657135 0.0107487030274896 -7.36945480148869e-17)
(-0.250626423410883 0.0128604151344656 -1.40124869724011e-16)
(-0.177290940914236 0.0107866061224959 -1.41283548910016e-16)
(-0.251930124266789 0.0129025903126637 -5.6873783332998e-17)
(-0.178591902246359 0.0108251834935643 -3.09584926940658e-16)
(-0.253264392540103 0.0129456323938848 -2.56783070520143e-16)
(-0.179926271717068 0.0108649662551914 -3.36866522312339e-16)
(-0.254631345136148 0.0129895003054044 -3.38468941859575e-16)
(-0.181294708855584 0.0109069433106338 -2.09496267412156e-16)
(-0.256032467802025 0.0130351136301358 -3.26131817803385e-16)
(-0.182697054062432 0.0109505314767458 -9.53585719135846e-17)
(-0.25746769106316 0.013083130413825 -1.82534564418928e-16)
(-0.18413547943003 0.0109948525231899 -1.06828685906359e-16)
(-0.258937914592024 0.0131320061775393 -1.7102465726238e-16)
(-0.185612389289247 0.0110409844217748 -1.33340013769253e-16)
(-0.260445864354135 0.0131819181782885 -1.20589751265101e-16)
(-0.187127880655226 0.0110907037699496 -2.60910195563869e-16)
(-0.261993108689731 0.0132344803140218 -1.45934249916846e-16)
(-0.188680530393183 0.0111430044855974 -3.69369484840343e-16)
(-0.26357829403983 0.0132909261073052 -3.51674096627672e-16)
(-0.190272902863216 0.0111962727613207 -2.72260919329725e-16)
(-0.265201782899749 0.0133484638495312 -3.71834186107927e-16)
(-0.191907640958115 0.011252271125868 -1.44619134528293e-16)
(-0.266867054498646 0.0134073093118135 -1.72379078498086e-16)
(-0.193583257573734 0.0113141944359392 -2.47291650894188e-18)
(-0.268575265683867 0.0134701687060139 -1.29406413138035e-16)
(-0.195295342799615 0.0113802266924413 2.01815030407736e-16)