/*--------------------------------*- C++ -*----------------------------------*\
| =========                 |                                                 |
| \\      /  F ield         | OpenFOAM: The Open Source CFD Toolbox           |
|  \\    /   O peration     | Version:  4.1                                   |
|   \\  /    A nd           | Web:      www.OpenFOAM.org                      |
|    \\/     M anipulation  |                                                 |
\*---------------------------------------------------------------------------*/
FoamFile
{
    version     2.0;
    format      ascii;
    class       surfaceScalarField;
    location    "0.0063";
    object      phi;
}
// * * * * * * * * * * * * * * * * * * * * * * * * * * * * * * * * * * * * * //

dimensions      [0 3 -1 0 0 0 0];

internalField   nonuniform List<scalar> 
4288
(
-5.3198e-09
-1.0851e-11
-1.0453e-11
1.9389e-11
1.9332e-11
-4.825e-09
6.716e-12
7.5008e-12
-5.3014e-13
-7.3145e-14
-4.4883e-09
4.2545e-11
4.331e-11
-3.641e-11
-3.6043e-11
-4.307e-09
1.0417e-10
1.0509e-10
-1.3562e-10
-1.351e-10
-4.3016e-09
1.6426e-10
1.6537e-10
-2.2831e-10
-2.2741e-10
-4.4542e-09
2.2839e-10
2.294e-10
-3.2159e-10
-3.2076e-10
-4.7515e-09
2.941e-10
2.9479e-10
-4.112e-10
-4.1036e-10
-5.1839e-09
3.6237e-10
3.6303e-10
-5.024e-10
-5.0137e-10
-5.7462e-09
4.2964e-10
4.3016e-10
-5.946e-10
-5.9369e-10
-6.4459e-09
4.9813e-10
4.9848e-10
-6.918e-10
-6.9081e-10
-7.3078e-09
5.7074e-10
5.709e-10
-7.9768e-10
-7.9708e-10
6.5007e-10
6.5038e-10
-9.162e-10
-9.166e-10
-5.3354e-09
-9.7931e-12
-1.3139e-11
3.0167e-11
-4.8625e-09
3.051e-13
3.2115e-12
1.4913e-11
-4.5284e-09
2.887e-11
4.5885e-11
-4.2112e-11
-4.3503e-09
9.0111e-11
1.2284e-10
-1.9551e-10
-4.3439e-09
1.545e-10
2.0665e-10
-3.6109e-10
-4.4957e-09
2.1754e-10
2.9153e-10
-5.1809e-10
-4.7921e-09
2.7813e-10
3.7561e-10
-6.6281e-10
-5.2252e-09
3.3869e-10
4.6211e-10
-8.0458e-10
-5.7906e-09
3.9928e-10
5.5234e-10
-9.5636e-10
-6.4973e-09
4.6262e-10
6.509e-10
-1.126e-09
-7.3689e-09
5.3278e-10
7.6158e-10
-1.3222e-09
6.1178e-10
8.8658e-10
-1.5493e-09
-5.344e-09
-4.8625e-12
-1.225e-11
2.4494e-11
-4.8848e-09
7.4952e-13
5.804e-12
2.6749e-12
-4.5568e-09
1.4765e-11
4.694e-11
-5.6797e-11
-4.3819e-09
4.7388e-11
1.363e-10
-2.0144e-10
-4.3731e-09
8.1285e-11
2.3647e-10
-3.6246e-10
-4.5216e-09
1.1525e-10
3.3439e-10
-5.1745e-10
-4.8171e-09
1.4782e-10
4.2856e-10
-6.6138e-10
-5.2515e-09
1.7928e-10
5.2192e-10
-8.0159e-10
-5.8196e-09
2.0982e-10
6.2194e-10
-9.5481e-10
-6.5309e-09
2.4165e-10
7.3413e-10
-1.1274e-09
-7.4085e-09
2.7703e-10
8.6176e-10
-1.3254e-09
3.1708e-10
1.0065e-09
-1.5525e-09
-5.3497e-09
-1.2996e-13
-1.1388e-11
2.2723e-11
-4.8951e-09
-3.7916e-13
8.6095e-12
-2.4464e-12
-4.5701e-09
-6.0691e-13
5.2973e-11
-6.9185e-11
-4.3967e-09
-7.187e-13
1.4333e-10
-2.1447e-10
-4.3874e-09
-8.5415e-13
2.4841e-10
-3.8306e-10
-4.5353e-09
-9.9689e-13
3.5223e-10
-5.453e-10
-4.8303e-09
-1.068e-12
4.5165e-10
-6.9715e-10
-5.2651e-09
-9.6469e-13
5.4964e-10
-8.4674e-10
-5.8347e-09
-8.7071e-13
6.5642e-10
-1.0138e-09
-6.5483e-09
-6.8036e-13
7.7837e-10
-1.2044e-09
-7.4291e-09
-3.7368e-13
9.1755e-10
-1.4226e-09
-5.6103e-14
1.0753e-09
-1.6715e-09
-5.3498e-09
4.6179e-12
-1.1429e-11
2.2764e-11
-4.8952e-09
-1.4915e-12
8.4984e-12
-2.3212e-12
-4.5702e-09
-1.6005e-11
5.2787e-11
-6.8919e-11
-4.3969e-09
-4.8884e-11
1.4302e-10
-2.1399e-10
-4.3875e-09
-8.3051e-11
2.4812e-10
-3.8263e-10
-4.5354e-09
-1.173e-10
3.5195e-10
-5.4485e-10
-4.8303e-09
-1.5003e-10
4.5137e-10
-6.967e-10
-5.265e-09
-1.8138e-10
5.4935e-10
-8.4617e-10
-5.8346e-09
-2.1165e-10
6.5616e-10
-1.0134e-09
-6.5483e-09
-2.43e-10
7.7817e-10
-1.2042e-09
-7.429e-09
-2.7774e-10
9.1735e-10
-1.4224e-09
-3.1708e-10
1.0751e-09
-1.6714e-09
-5.3444e-09
9.5409e-12
-1.2371e-11
2.4666e-11
-4.8852e-09
-1.0908e-12
5.4805e-12
3.1233e-12
-4.5572e-09
-3.0229e-11
4.6389e-11
-5.5992e-11
-4.3823e-09
-9.1945e-11
1.3544e-10
-2.0001e-10
-4.3734e-09
-1.5654e-10
2.3549e-10
-3.6089e-10
-4.5218e-09
-2.1975e-10
3.334e-10
-5.16e-10
-4.8171e-09
-2.8031e-10
4.2771e-10
-6.6035e-10
-5.2514e-09
-3.407e-10
5.2129e-10
-8.0076e-10
-5.8194e-09
-4.0101e-10
6.2129e-10
-9.5409e-10
-6.5307e-09
-4.6376e-10
7.3359e-10
-1.127e-09
-7.4084e-09
-5.3319e-10
8.6124e-10
-1.3251e-09
-6.1143e-10
1.0059e-09
-1.5521e-09
-5.3361e-09
1.0571e-11
-1.3318e-11
3.0411e-11
-4.8632e-09
-7.7688e-12
2.6883e-12
1.5774e-11
-4.529e-09
-4.4035e-11
4.5068e-11
-4.1005e-11
-4.3509e-09
-1.0607e-10
1.217e-10
-1.9404e-10
-4.3445e-09
-1.6653e-10
2.0544e-10
-3.593e-10
-4.496e-09
-2.3073e-10
2.9022e-10
-5.1635e-10
-4.7921e-09
-2.9621e-10
3.7441e-10
-6.6141e-10
-5.225e-09
-3.6421e-10
4.6101e-10
-8.034e-10
-5.7903e-09
-4.3132e-10
5.5136e-10
-9.5526e-10
-6.4969e-09
-4.9943e-10
6.5002e-10
-1.1249e-09
-7.3686e-09
-5.7143e-10
7.607e-10
-1.321e-09
-6.4993e-10
8.855e-10
-1.5478e-09
-5.3208e-09
-1.1089e-11
1.9601e-11
1.9664e-11
-4.8261e-09
6.2855e-12
5.5347e-15
-3.4923e-13
-4.4893e-09
4.2119e-11
-3.5886e-11
-3.6775e-11
-4.3079e-09
1.0353e-10
-1.3464e-10
-1.3621e-10
-4.3023e-09
1.6349e-10
-2.2679e-10
-2.2904e-10
-4.4545e-09
2.2747e-10
-3.199e-10
-3.2262e-10
-4.7515e-09
2.9297e-10
-4.0939e-10
-4.1218e-10
-5.1836e-09
3.6132e-10
-5.0048e-10
-5.0317e-10
-5.7458e-09
4.2869e-10
-5.927e-10
-5.9568e-10
-6.4454e-09
4.9732e-10
-6.8974e-10
-6.9299e-10
-7.3074e-09
5.7001e-10
-7.9612e-10
-7.9848e-10
6.4929e-10
-9.1524e-10
-9.1579e-10
-5.3354e-09
-1.3243e-11
-9.59e-12
3.0439e-11
-4.8625e-09
2.8475e-12
7.2739e-13
1.5634e-11
-4.5284e-09
4.5253e-11
2.9576e-11
-4.1621e-11
-4.3503e-09
1.2204e-10
9.0992e-11
-1.9504e-10
-4.344e-09
2.0581e-10
1.5545e-10
-3.6055e-10
-4.4957e-09
2.9058e-10
2.1839e-10
-5.1779e-10
-4.7922e-09
3.7465e-10
2.7888e-10
-6.6294e-10
-5.2252e-09
4.6128e-10
3.3933e-10
-8.0508e-10
-5.7907e-09
5.5154e-10
3.9966e-10
-9.5692e-10
-6.4973e-09
6.5016e-10
4.6275e-10
-1.1268e-09
-7.3688e-09
7.6092e-10
5.3271e-10
-1.3235e-09
8.8569e-10
6.1166e-10
-1.5505e-09
-5.3524e-09
-8.282e-12
-8.1293e-12
-4.896e-09
3.4513e-12
3.8811e-12
-4.5663e-09
3.6589e-11
3.7284e-11
-4.3912e-09
8.9173e-11
9.008e-11
-4.3845e-09
1.4775e-10
1.489e-10
-4.5353e-09
2.0759e-10
2.0884e-10
-4.8302e-09
2.6778e-10
2.6895e-10
-5.2613e-09
3.3077e-10
3.3186e-10
-5.8283e-09
3.9625e-10
3.9742e-10
-6.5398e-09
4.6662e-10
4.6778e-10
-7.4185e-09
5.449e-10
5.4608e-10
6.3261e-10
6.3401e-10
-5.3617e-09
-3.4951e-12
-7.5402e-12
-4.917e-09
3.2867e-12
5.8223e-12
-4.5944e-09
1.8891e-11
4.0105e-11
-4.4221e-09
4.7005e-11
1.0098e-10
-4.4133e-09
7.7666e-11
1.7088e-10
-4.5613e-09
1.0901e-10
2.4037e-10
-4.8549e-09
1.4103e-10
3.0819e-10
-5.2869e-09
1.7436e-10
3.7716e-10
-5.8562e-09
2.0842e-10
4.5058e-10
-6.572e-09
2.4463e-10
5.3169e-10
-7.4563e-09
2.8475e-10
6.2309e-10
3.2963e-10
7.261e-10
-5.3674e-09
-1.3401e-13
-6.1036e-12
-4.9268e-09
-3.8159e-13
9.5017e-12
-4.6077e-09
-6.3645e-13
4.3978e-11
-4.4368e-09
-7.9301e-13
1.0712e-10
-4.4277e-09
-9.6644e-13
1.8124e-10
-4.5747e-09
-1.0442e-12
2.5549e-10
-4.8676e-09
-1.066e-12
3.2834e-10
-5.2998e-09
-1.0171e-12
4.0156e-10
-5.8704e-09
-8.7333e-13
4.7994e-10
-6.5884e-09
-6.9443e-13
5.6772e-10
-7.4755e-09
-4.4523e-13
6.6708e-10
-2.1187e-13
7.7912e-10
-5.3676e-09
3.2293e-12
-6.1324e-12
-4.9269e-09
-4.0521e-12
9.425e-12
-4.6078e-09
-2.0168e-11
4.3847e-11
-4.437e-09
-4.8619e-11
1.0693e-10
-4.4278e-09
-7.9588e-11
1.8103e-10
-4.5748e-09
-1.1108e-10
2.5529e-10
-4.8676e-09
-1.4315e-10
3.2815e-10
-5.2997e-09
-1.7645e-10
4.0139e-10
-5.8703e-09
-2.1018e-10
4.7976e-10
-6.5883e-09
-2.46e-10
5.6755e-10
-7.4754e-09
-2.856e-10
6.6689e-10
-3.2998e-10
7.7889e-10
-5.3622e-09
8.0337e-12
-7.6378e-12
-4.9174e-09
-4.195e-12
5.5731e-12
-4.5947e-09
-3.789e-11
3.9712e-11
-4.4224e-09
-9.0879e-11
1.0043e-10
-4.4135e-09
-1.4976e-10
1.702e-10
-4.5614e-09
-2.0973e-10
2.397e-10
-4.8549e-09
-2.6993e-10
3.0761e-10
-5.2868e-09
-3.3268e-10
3.7659e-10
-5.856e-09
-3.9798e-10
4.5009e-10
-6.5719e-09
-4.6791e-10
5.3121e-10
-7.4562e-09
-5.4559e-10
6.2253e-10
-6.3272e-10
7.254e-10
-5.3531e-09
1.3035e-11
-8.2955e-12
-4.8966e-09
-3.6139e-12
3.4719e-12
-4.567e-09
-4.6597e-11
3.6687e-11
-4.3918e-09
-1.2382e-10
8.9285e-11
-4.3849e-09
-2.0781e-10
1.4797e-10
-4.5355e-09
-2.928e-10
2.0789e-10
-4.8302e-09
-3.7688e-10
2.6814e-10
-5.2611e-09
-4.6335e-10
3.3117e-10
-5.828e-09
-5.5336e-10
3.9673e-10
-6.5395e-09
-6.5152e-10
4.6709e-10
-7.4183e-09
-7.6151e-10
5.4523e-10
-8.8549e-10
6.3286e-10
-5.3364e-09
-9.9237e-12
3.0048e-11
-4.8635e-09
9.9698e-14
1.4425e-11
-4.5293e-09
2.8791e-11
-4.3125e-11
-4.3511e-09
8.9981e-11
-1.9699e-10
-4.3446e-09
1.5431e-10
-3.6294e-10
-4.4961e-09
2.1738e-10
-5.2046e-10
-4.7922e-09
2.7796e-10
-6.6566e-10
-5.225e-09
3.3853e-10
-8.0753e-10
-5.7903e-09
3.9904e-10
-9.5932e-10
-6.4968e-09
4.6218e-10
-1.1286e-09
-7.3684e-09
5.3184e-10
-1.3239e-09
6.101e-10
-1.5493e-09
-5.3441e-09
-1.2383e-11
-4.6994e-12
2.4651e-11
-4.8849e-09
5.4313e-12
1.1475e-12
3.0246e-12
-4.5569e-09
4.6372e-11
1.5352e-11
-5.6381e-11
-4.382e-09
1.3564e-10
4.8004e-11
-2.0099e-10
-4.3731e-09
2.3574e-10
8.1855e-11
-3.6198e-10
-4.5218e-09
3.3364e-10
1.1576e-10
-5.1719e-10
-4.8171e-09
4.2791e-10
1.4802e-10
-6.6156e-10
-5.2516e-09
5.2153e-10
1.793e-10
-8.0196e-10
-5.8197e-09
6.2157e-10
2.0942e-10
-9.5538e-10
-6.5309e-09
7.3387e-10
2.409e-10
-1.1283e-09
-7.4084e-09
8.6167e-10
2.7605e-10
-1.3268e-09
1.0063e-09
3.1583e-10
-1.5539e-09
-5.3618e-09
-7.6777e-12
-3.3537e-12
-4.9171e-09
5.4238e-12
3.6582e-12
-4.5944e-09
3.9412e-11
1.9439e-11
-4.4221e-09
1.001e-10
4.7643e-11
-4.4133e-09
1.6976e-10
7.8328e-11
-4.5613e-09
2.3915e-10
1.096e-10
-4.8549e-09
3.0691e-10
1.4145e-10
-5.287e-09
3.7579e-10
1.7468e-10
-5.8563e-09
4.4921e-10
2.0853e-10
-6.5721e-09
5.3027e-10
2.4454e-10
-7.4563e-09
6.2158e-10
2.8451e-10
7.2434e-10
3.2932e-10
-5.3724e-09
-3.6717e-12
-3.545e-12
-4.9378e-09
3.3353e-12
3.696e-12
-4.6208e-09
2.173e-11
2.2314e-11
-4.451e-09
5.3389e-11
5.412e-11
-4.441e-09
8.9663e-11
9.0545e-11
-4.5871e-09
1.2615e-10
1.2704e-10
-4.8798e-09
1.6203e-10
1.6287e-10
-5.3121e-09
1.9879e-10
1.9958e-10
-5.8834e-09
2.378e-10
2.3853e-10
-6.6032e-09
2.8054e-10
2.8122e-10
-7.4927e-09
3.2846e-10
3.2912e-10
3.822e-10
3.8297e-10
-5.3782e-09
-1.3272e-13
-2.788e-12
-4.9478e-09
-3.7355e-13
5.6872e-12
-4.6338e-09
-6.3114e-13
2.4779e-11
-4.4652e-09
-8.0989e-13
5.8089e-11
-4.4549e-09
-9.5274e-13
9.7047e-11
-4.6003e-09
-1.0362e-12
1.3647e-10
-4.8924e-09
-1.0572e-12
1.7538e-10
-5.3248e-09
-1.0106e-12
2.1482e-10
-5.8971e-09
-9.0763e-13
2.5686e-10
-6.6189e-09
-7.58e-13
3.0352e-10
-7.5111e-09
-5.7387e-13
3.561e-10
-4.0713e-13
4.1524e-10
-5.3783e-09
3.4077e-12
-2.8043e-12
-4.948e-09
-4.0842e-12
5.645e-12
-4.634e-09
-2.2997e-11
2.4704e-11
-4.4654e-09
-5.5021e-11
5.7982e-11
-4.455e-09
-9.1558e-11
9.6909e-11
-4.6003e-09
-1.2821e-10
1.3635e-10
-4.8924e-09
-1.6413e-10
1.7526e-10
-5.3247e-09
-2.0077e-10
2.1468e-10
-5.897e-09
-2.396e-10
2.5673e-10
-6.6188e-09
-2.8204e-10
3.0337e-10
-7.5111e-09
-3.2958e-10
3.5591e-10
-3.8298e-10
4.15e-10
-5.3728e-09
7.41e-12
-3.5993e-12
-4.9382e-09
-6.1888e-12
3.5578e-12
-4.6212e-09
-4.0704e-11
2.209e-11
-4.4513e-09
-1.0175e-10
5.3804e-11
-4.4412e-09
-1.7169e-10
9.0136e-11
-4.5872e-09
-2.4122e-10
1.2662e-10
-4.8798e-09
-3.0899e-10
1.625e-10
-5.312e-09
-3.7777e-10
1.9923e-10
-5.8833e-09
-4.5095e-10
2.3814e-10
-6.603e-09
-5.3166e-10
2.8075e-10
-7.4927e-09
-6.2254e-10
3.285e-10
-7.2494e-10
3.8217e-10
-5.3625e-09
1.2097e-11
-3.445e-12
-4.9177e-09
-6.2689e-12
3.4404e-12
-4.595e-09
-4.7689e-11
1.9096e-11
-4.4226e-09
-1.3733e-10
4.7162e-11
-4.4137e-09
-2.3764e-10
7.7766e-11
-4.5615e-09
-3.3572e-10
1.0902e-10
-4.8549e-09
-4.299e-10
1.4088e-10
-5.2868e-09
-5.2337e-10
1.7419e-10
-5.856e-09
-6.2313e-10
2.079e-10
-6.5718e-09
-7.3501e-10
2.4376e-10
-7.4561e-09
-8.6227e-10
2.8345e-10
-1.0066e-09
3.2798e-10
-5.3451e-09
-4.8547e-12
2.4306e-11
-4.8858e-09
8.6132e-13
2.027e-12
-4.5578e-09
1.4917e-11
-5.7627e-11
-4.3827e-09
4.7421e-11
-2.0259e-10
-4.3737e-09
8.1081e-11
-3.6367e-10
-4.522e-09
1.1495e-10
-5.1886e-10
-4.8171e-09
1.4739e-10
-6.6314e-10
-5.2513e-09
1.7866e-10
-8.0331e-10
-5.8193e-09
2.0875e-10
-9.5644e-10
-6.5305e-09
2.3999e-10
-1.1288e-09
-7.4082e-09
2.7466e-10
-1.3265e-09
3.141e-10
-1.5537e-09
-5.3498e-09
-1.1534e-11
-4.668e-15
2.2905e-11
-4.8952e-09
8.2499e-12
-2.3899e-14
-2.0572e-12
-4.5701e-09
5.2496e-11
-4.7847e-14
-6.8825e-11
-4.3967e-09
1.428e-10
-1.0886e-13
-2.1414e-10
-4.3875e-09
2.4789e-10
-2.3315e-13
-3.8276e-10
-4.5355e-09
3.5183e-10
-4.8084e-13
-5.451e-10
-4.8303e-09
4.513e-10
-7.2682e-13
-6.974e-10
-5.2652e-09
5.4943e-10
-8.9989e-13
-8.4682e-10
-5.8348e-09
6.5628e-10
-1.0883e-12
-1.0142e-09
-6.5484e-09
7.7836e-10
-1.1664e-12
-1.205e-09
-7.429e-09
9.1767e-10
-1.1167e-12
-1.4234e-09
1.0755e-09
-9.6954e-13
-1.6725e-09
-5.3675e-09
-6.2338e-12
-1.7146e-14
-4.9269e-09
9.1385e-12
-5.8497e-14
-4.6077e-09
4.3381e-11
-1.3082e-13
-4.4369e-09
1.0639e-10
-2.2847e-13
-4.4278e-09
1.8031e-10
-3.6775e-13
-4.5748e-09
2.5455e-10
-5.2349e-13
-4.8677e-09
3.2737e-10
-7.3917e-13
-5.2999e-09
4.0059e-10
-8.6407e-13
-5.8705e-09
4.7893e-10
-9.5674e-13
-6.5884e-09
5.6671e-10
-9.9274e-13
-7.4754e-09
6.6602e-10
-9.3051e-13
7.7791e-10
-8.0125e-13
-5.3782e-09
-2.9089e-12
-2.1199e-14
-4.9478e-09
5.3453e-12
-6.8469e-14
-4.6339e-09
2.4212e-11
-1.5677e-13
-4.4653e-09
5.737e-11
-2.5966e-13
-4.455e-09
9.6206e-11
-3.6453e-13
-4.6003e-09
1.3557e-10
-5.0925e-13
-4.8924e-09
1.7447e-10
-6.774e-13
-5.3248e-09
2.1394e-10
-7.8444e-13
-5.8971e-09
2.5601e-10
-8.6341e-13
-6.6189e-09
3.0269e-10
-8.9065e-13
-7.5111e-09
3.5526e-10
-8.4725e-13
4.1428e-10
-7.4038e-13
-5.384e-09
-1.3567e-13
-2.4281e-14
-4.958e-09
-3.7712e-13
-7.8165e-14
-4.6468e-09
-6.3795e-13
-1.7035e-13
-4.4793e-09
-8.2993e-13
-2.7427e-13
-4.4687e-09
-9.8208e-13
-3.7742e-13
-4.6133e-09
-1.0647e-12
-5.0034e-13
-4.9049e-09
-1.0774e-12
-6.3203e-13
-5.3373e-09
-1.0434e-12
-7.1786e-13
-5.9106e-09
-9.6277e-13
-7.9426e-13
-6.6343e-09
-8.5926e-13
-8.3034e-13
-7.5291e-09
-7.4181e-13
-8.2186e-13
-6.4474e-13
-7.4714e-13
-5.3842e-09
2.6366e-12
-2.5529e-14
-4.9581e-09
-6.102e-12
-8.2875e-14
-4.6469e-09
-2.5496e-11
-1.8093e-13
-4.4794e-09
-5.9046e-11
-2.914e-13
-4.4688e-09
-9.8196e-11
-4.0086e-13
-4.6133e-09
-1.3772e-10
-5.1808e-13
-4.9049e-09
-1.7665e-10
-6.3595e-13
-5.3372e-09
-2.1609e-10
-7.2334e-13
-5.9105e-09
-2.5798e-10
-8.1386e-13
-6.6342e-09
-3.0446e-10
-8.8306e-13
-7.5291e-09
-3.568e-10
-9.2862e-13
-4.1564e-10
-9.0469e-13
-5.3786e-09
5.9527e-12
-2.6351e-14
-4.9482e-09
-9.9047e-12
-9.4054e-14
-4.6342e-09
-4.4663e-11
-2.2197e-13
-4.4655e-09
-1.0805e-10
-3.7097e-13
-4.4552e-09
-1.823e-10
-5.3676e-13
-4.6004e-09
-2.5667e-10
-6.9516e-13
-4.8924e-09
-3.295e-10
-8.5532e-13
-5.3247e-09
-4.0262e-10
-1.0061e-12
-5.897e-09
-4.8083e-10
-1.1657e-12
-6.6187e-09
-5.6839e-10
-1.3331e-12
-7.511e-09
-6.6747e-10
-1.5004e-12
-7.7917e-10
-1.5993e-12
-5.3682e-09
1.1232e-11
-2.8356e-14
-4.9275e-09
-9.0355e-12
-1.1083e-13
-4.6083e-09
-5.3715e-11
-2.7113e-13
-4.4374e-09
-1.4439e-10
-4.5352e-13
-4.4281e-09
-2.4969e-10
-7.0343e-13
-4.5749e-09
-3.5373e-10
-9.3762e-13
-4.8676e-09
-4.5322e-10
-1.1782e-12
-5.2997e-09
-5.5102e-10
-1.3972e-12
-5.8702e-09
-6.5784e-10
-1.6628e-12
-6.5882e-09
-7.7966e-10
-1.9643e-12
-7.4753e-09
-9.1868e-10
-2.2908e-12
-1.0763e-09
-2.5485e-12
-5.3508e-09
-2.6391e-14
2.2575e-11
-4.8961e-09
-1.0544e-13
-2.8075e-12
-4.5709e-09
-2.1207e-13
-6.9803e-11
-4.3975e-09
-3.7446e-13
-2.1541e-10
-4.3879e-09
-6.8e-13
-3.8424e-10
-4.5357e-09
-9.7017e-13
-5.466e-10
-4.8303e-09
-1.1978e-12
-6.9869e-10
-5.2649e-09
-1.5215e-12
-8.4772e-10
-5.8344e-09
-1.8734e-12
-1.0151e-09
-6.548e-09
-2.2663e-12
-1.2057e-09
-7.4288e-09
-2.675e-12
-1.4239e-09
-3.049e-12
-1.6728e-09
-5.3499e-09
-1.1563e-11
4.7225e-12
2.2906e-11
-4.8953e-09
8.1635e-12
-1.1201e-12
-2.0413e-12
-4.5703e-09
5.2302e-11
-1.5491e-11
-6.8553e-11
-4.3969e-09
1.425e-10
-4.8351e-11
-2.1364e-10
-4.3876e-09
2.4761e-10
-8.2548e-11
-3.822e-10
-4.5356e-09
3.5149e-10
-1.1677e-10
-5.4458e-10
-4.8304e-09
4.51e-10
-1.4948e-10
-6.9703e-10
-5.2653e-09
5.4907e-10
-1.8113e-10
-8.4628e-10
-5.8348e-09
6.5591e-10
-2.1167e-10
-1.0136e-09
-6.5483e-09
7.7799e-10
-2.4322e-10
-1.2045e-09
-7.4289e-09
9.1729e-10
-2.7812e-10
-1.423e-09
1.0751e-09
-3.1756e-10
-1.6721e-09
-5.3677e-09
-6.2563e-12
3.3229e-12
-4.927e-09
9.0723e-12
-3.768e-12
-4.6078e-09
4.3264e-11
-1.973e-11
-4.437e-09
1.0622e-10
-4.8147e-11
-4.4279e-09
1.8015e-10
-7.91e-11
-4.5749e-09
2.5436e-10
-1.1068e-10
-4.8677e-09
3.2719e-10
-1.4294e-10
-5.2999e-09
4.0037e-10
-1.7641e-10
-5.8705e-09
4.7873e-10
-2.1044e-10
-6.5884e-09
5.6649e-10
-2.4651e-10
-7.4753e-09
6.6577e-10
-2.863e-10
7.7762e-10
-3.3083e-10
-5.3784e-09
-2.9194e-12
3.4992e-12
-4.948e-09
5.3127e-12
-3.8405e-12
-4.634e-09
2.4157e-11
-2.2648e-11
-4.4654e-09
5.7292e-11
-5.4666e-11
-4.4551e-09
9.6109e-11
-9.1255e-11
-4.6004e-09
1.3547e-10
-1.2804e-10
-4.8925e-09
1.7439e-10
-1.6422e-10
-5.3248e-09
2.1387e-10
-2.0116e-10
-5.8971e-09
2.5593e-10
-2.4025e-10
-6.6188e-09
3.0259e-10
-2.8298e-10
-7.511e-09
3.5512e-10
-3.3077e-10
4.141e-10
-3.8438e-10
-5.3842e-09
-1.3594e-13
2.7387e-12
-4.9582e-09
-3.7874e-13
-5.8465e-12
-4.647e-09
-6.4764e-13
-2.5121e-11
-4.4794e-09
-8.4532e-13
-5.8637e-11
-4.4688e-09
-1.0071e-12
-9.7791e-11
-4.6134e-09
-1.0868e-12
-1.3745e-10
-4.9049e-09
-1.0867e-12
-1.766e-10
-5.3373e-09
-1.0516e-12
-2.1619e-10
-5.9106e-09
-9.8701e-13
-2.5837e-10
-6.6342e-09
-9.1576e-13
-3.0508e-10
-7.5291e-09
-8.5608e-13
-3.5762e-10
-8.0859e-13
-4.1659e-10
-5.3843e-09
2.6444e-12
2.7552e-12
-4.9583e-09
-6.0863e-12
-5.7985e-12
-4.6471e-09
-2.5491e-11
-2.5035e-11
-4.4795e-09
-5.9059e-11
-5.8501e-11
-4.4688e-09
-9.8238e-11
-9.7615e-11
-4.6134e-09
-1.378e-10
-1.3722e-10
-4.9049e-09
-1.7676e-10
-1.7631e-10
-5.3372e-09
-2.1625e-10
-2.1585e-10
-5.9105e-09
-2.5821e-10
-2.5802e-10
-6.6342e-09
-3.0479e-10
-3.0473e-10
-7.529e-09
-3.5725e-10
-3.5729e-10
-4.1622e-10
-4.1626e-10
-5.3788e-09
5.9679e-12
3.5524e-12
-4.9484e-09
-9.8659e-12
-3.7126e-12
-4.6343e-09
-4.4622e-11
-2.2454e-11
-4.4656e-09
-1.0801e-10
-5.4387e-11
-4.4552e-09
-1.8233e-10
-9.091e-11
-4.6004e-09
-2.5674e-10
-1.2759e-10
-4.8924e-09
-3.2962e-10
-1.6366e-10
-5.3247e-09
-4.0279e-10
-2.0059e-10
-5.897e-09
-4.8113e-10
-2.3965e-10
-6.6187e-09
-5.6882e-10
-2.8245e-10
-7.511e-09
-6.6807e-10
-3.3037e-10
-7.7995e-10
-3.8407e-10
-5.3683e-09
1.1253e-11
3.4018e-12
-4.9276e-09
-8.9624e-12
-3.6107e-12
-4.6084e-09
-5.3565e-11
-1.9551e-11
-4.4374e-09
-1.4412e-10
-4.7922e-11
-4.4282e-09
-2.4948e-10
-7.886e-11
-4.575e-09
-3.535e-10
-1.1042e-10
-4.8676e-09
-4.5302e-10
-1.4259e-10
-5.2997e-09
-5.5087e-10
-1.7613e-10
-5.8702e-09
-6.5774e-10
-2.1024e-10
-6.5881e-09
-7.7964e-10
-2.4654e-10
-7.4752e-09
-9.1878e-10
-2.867e-10
-1.0765e-09
-3.3155e-10
-5.3509e-09
4.8432e-12
2.2571e-11
-4.8962e-09
-9.7492e-13
-2.7851e-12
-4.571e-09
-1.5349e-11
-6.9526e-11
-4.3975e-09
-4.8233e-11
-2.1484e-10
-4.388e-09
-8.2443e-11
-3.8375e-10
-4.5357e-09
-1.1659e-10
-5.4624e-10
-4.8303e-09
-1.492e-10
-6.9853e-10
-5.265e-09
-1.8088e-10
-8.4775e-10
-5.8344e-09
-2.1163e-10
-1.0151e-09
-6.548e-09
-2.4363e-10
-1.2057e-09
-7.4288e-09
-2.7914e-10
-1.4239e-09
-3.1912e-10
-1.6731e-09
-5.3446e-09
-1.2499e-11
9.5289e-12
2.4856e-11
-4.8854e-09
5.0939e-12
-8.986e-13
3.5863e-12
-4.5573e-09
4.5887e-11
-2.99e-11
-5.5666e-11
-4.3823e-09
1.349e-10
-9.1607e-11
-1.999e-10
-4.3735e-09
2.3494e-10
-1.5628e-10
-3.6082e-10
-4.522e-09
3.3277e-10
-2.1956e-10
-5.1602e-10
-4.8173e-09
4.269e-10
-2.801e-10
-6.6051e-10
-5.2517e-09
5.2061e-10
-3.4106e-10
-8.0085e-10
-5.8197e-09
6.2058e-10
-4.0174e-10
-9.5424e-10
-6.5307e-09
7.3286e-10
-4.6484e-10
-1.1272e-09
-7.4082e-09
8.6054e-10
-5.3447e-10
-1.3255e-09
1.0051e-09
-6.1305e-10
-1.5525e-09
-5.3623e-09
-7.7427e-12
8.068e-12
-4.9175e-09
5.2219e-12
-4.0667e-12
-4.5948e-09
3.9107e-11
-3.7645e-11
-4.4224e-09
9.9663e-11
-9.0724e-11
-4.4136e-09
1.692e-10
-1.4964e-10
-4.5616e-09
2.3857e-10
-2.0991e-10
-4.8551e-09
3.0639e-10
-2.7064e-10
-5.287e-09
3.7523e-10
-3.3358e-10
-5.8562e-09
4.4865e-10
-3.9938e-10
-6.5719e-09
5.2967e-10
-4.6975e-10
-7.4561e-09
6.2086e-10
-5.4778e-10
7.235e-10
-6.3533e-10
-5.3729e-09
-3.6995e-12
7.4798e-12
-4.9383e-09
3.2485e-12
-6.0205e-12
-4.6212e-09
2.1585e-11
-4.0487e-11
-4.4513e-09
5.3186e-11
-1.0161e-10
-4.4413e-09
8.9406e-11
-1.7164e-10
-4.5873e-09
1.2588e-10
-2.4143e-10
-4.8799e-09
1.6183e-10
-3.0957e-10
-5.3122e-09
1.986e-10
-3.7874e-10
-5.8834e-09
2.3763e-10
-4.5232e-10
-6.603e-09
2.8033e-10
-5.3344e-10
-7.4925e-09
3.2812e-10
-6.2468e-10
3.8176e-10
-7.2741e-10
-5.3787e-09
-1.3162e-13
6.0539e-12
-4.9483e-09
-3.6787e-13
-9.6806e-12
-4.6342e-09
-6.2532e-13
-4.4342e-11
-4.4655e-09
-7.963e-13
-1.0772e-10
-4.4552e-09
-9.32e-13
-1.8199e-10
-4.6005e-09
-9.6427e-13
-2.5654e-10
-4.8925e-09
-9.0527e-13
-3.296e-10
-5.3248e-09
-8.2149e-13
-4.0293e-10
-5.8971e-09
-7.1002e-13
-4.8142e-10
-6.6187e-09
-6.1262e-13
-5.6924e-10
-7.5109e-09
-5.436e-13
-6.6853e-10
-4.7796e-13
-7.804e-10
-5.3788e-09
3.435e-12
6.0863e-12
-4.9484e-09
-4.0176e-12
-9.5825e-12
-4.6343e-09
-2.293e-11
-4.4175e-11
-4.4656e-09
-5.4969e-11
-1.0746e-10
-4.4552e-09
-9.1572e-11
-1.8166e-10
-4.6005e-09
-1.282e-10
-2.5615e-10
-4.8925e-09
-1.6413e-10
-3.2915e-10
-5.3248e-09
-2.0084e-10
-4.0244e-10
-5.897e-09
-2.3978e-10
-4.809e-10
-6.6187e-09
-2.8242e-10
-5.6872e-10
-7.5109e-09
-3.3023e-10
-6.6802e-10
-3.8391e-10
-7.7989e-10
-5.3732e-09
7.4666e-12
7.5929e-12
-4.9387e-09
-6.0455e-12
-5.7218e-12
-4.6215e-09
-4.0578e-11
-4.0005e-11
-4.4516e-09
-1.0166e-10
-1.0089e-10
-4.4414e-09
-1.7171e-10
-1.7073e-10
-4.5873e-09
-2.4133e-10
-2.4029e-10
-4.8798e-09
-3.0923e-10
-3.0823e-10
-5.3121e-09
-3.782e-10
-3.7723e-10
-5.8832e-09
-4.5162e-10
-4.5075e-10
-6.6029e-09
-5.3272e-10
-5.3186e-10
-7.4925e-09
-6.2409e-10
-6.2316e-10
-7.2698e-10
-7.2588e-10
-5.3629e-09
1.2208e-11
8.2467e-12
-4.9181e-09
-5.963e-12
-3.6154e-12
-4.5953e-09
-4.7298e-11
-3.7019e-11
-4.4228e-09
-1.3677e-10
-8.9806e-11
-4.4138e-09
-2.3716e-10
-1.485e-10
-4.5616e-09
-3.3525e-10
-2.0846e-10
-4.8549e-09
-4.2941e-10
-2.6883e-10
-5.2868e-09
-5.2297e-10
-3.3179e-10
-5.8559e-09
-6.2291e-10
-3.9745e-10
-6.5717e-09
-7.3519e-10
-4.6787e-10
-7.456e-09
-8.6294e-10
-5.4608e-10
-1.0077e-09
-6.337e-10
-5.3455e-09
9.8549e-12
2.4516e-11
-4.8862e-09
-3.3401e-13
2.5968e-12
-4.558e-09
-2.9271e-11
-5.6871e-11
-4.3829e-09
-9.0773e-11
-2.0147e-10
-4.3738e-09
-1.5518e-10
-3.6284e-10
-4.522e-09
-2.1823e-10
-5.1806e-10
-4.8171e-09
-2.787e-10
-6.6217e-10
-5.2513e-09
-3.3961e-10
-8.0224e-10
-5.8193e-09
-4.0032e-10
-9.5568e-10
-6.5304e-09
-4.6367e-10
-1.1286e-09
-7.4081e-09
-5.3367e-10
-1.3271e-09
-6.1243e-10
-1.5544e-09
-5.3362e-09
-1.3343e-11
1.0369e-11
3.0554e-11
-4.8633e-09
2.4756e-12
-7.7854e-12
1.6006e-11
-4.5291e-09
4.454e-11
-4.3766e-11
-4.0777e-11
-4.3509e-09
1.2103e-10
-1.0597e-10
-1.9377e-10
-4.3445e-09
2.0446e-10
-1.6659e-10
-3.5879e-10
-4.4962e-09
2.8915e-10
-2.309e-10
-5.159e-10
-4.7925e-09
3.7336e-10
-2.9649e-10
-6.6115e-10
-5.2254e-09
4.5972e-10
-3.6483e-10
-8.032e-10
-5.7906e-09
5.4996e-10
-4.3222e-10
-9.5519e-10
-6.497e-09
6.4852e-10
-5.007e-10
-1.1248e-09
-7.3684e-09
7.5907e-10
-5.7299e-10
-1.3209e-09
8.8372e-10
-6.5212e-10
-1.5476e-09
-5.3532e-09
-8.3428e-12
1.3046e-11
-4.8967e-09
3.2184e-12
-3.5069e-12
-4.567e-09
3.6116e-11
-4.6378e-11
-4.3918e-09
8.8553e-11
-1.2367e-10
-4.385e-09
1.4692e-10
-2.0776e-10
-4.5357e-09
2.0676e-10
-2.9296e-10
-4.8305e-09
2.6708e-10
-3.775e-10
-5.2614e-09
3.2994e-10
-4.6418e-10
-5.8282e-09
3.9543e-10
-5.5461e-10
-6.5396e-09
4.6574e-10
-6.5319e-10
-7.4181e-09
5.4379e-10
-7.6343e-10
6.3127e-10
-8.8776e-10
-5.3626e-09
-3.5256e-12
1.2189e-11
-4.9178e-09
3.1741e-12
-6.0343e-12
-4.595e-09
1.8671e-11
-4.7417e-11
-4.4226e-09
4.6707e-11
-1.37e-10
-4.4137e-09
7.7284e-11
-2.3742e-10
-4.5616e-09
1.0862e-10
-3.3552e-10
-4.8551e-09
1.4067e-10
-4.2976e-10
-5.287e-09
1.742e-10
-5.2369e-10
-5.8561e-09
2.0825e-10
-6.2379e-10
-6.5718e-09
2.4437e-10
-7.3592e-10
-7.456e-09
2.8426e-10
-8.6329e-10
3.2895e-10
-1.0077e-09
-5.3683e-09
-1.2971e-13
1.1353e-11
-4.9276e-09
-3.6228e-13
-8.7895e-12
-4.6083e-09
-6.0208e-13
-5.338e-11
-4.4374e-09
-7.2058e-13
-1.4396e-10
-4.4281e-09
-8.2346e-13
-2.4935e-10
-4.575e-09
-8.0556e-13
-3.5344e-10
-4.8678e-09
-6.7924e-13
-4.5307e-10
-5.2998e-09
-5.1079e-13
-5.511e-10
-5.8703e-09
-3.2781e-13
-6.5799e-10
-6.5882e-09
-1.8395e-13
-7.7997e-10
-7.4751e-09
-8.7568e-14
-9.1911e-10
3.6285e-14
-1.0768e-09
-5.3684e-09
3.2681e-12
1.1396e-11
-4.9277e-09
-3.9276e-12
-8.6682e-12
-4.6084e-09
-1.9977e-11
-5.3197e-11
-4.4375e-09
-4.8371e-11
-1.4367e-10
-4.4282e-09
-7.9232e-11
-2.4909e-10
-4.575e-09
-1.1063e-10
-3.5322e-10
-4.8677e-09
-1.4251e-10
-4.5287e-10
-5.2998e-09
-1.7581e-10
-5.5098e-10
-5.8703e-09
-2.096e-10
-6.5794e-10
-6.5881e-09
-2.4557e-10
-7.8004e-10
-7.4751e-09
-2.8545e-10
-9.193e-10
-3.3008e-10
-1.0771e-09
-5.363e-09
8.1024e-12
1.2331e-11
-4.9181e-09
-3.9993e-12
-5.6651e-12
-4.5953e-09
-3.7623e-11
-4.6824e-11
-4.4229e-09
-9.0618e-11
-1.3613e-10
-4.4138e-09
-1.4952e-10
-2.3645e-10
-4.5616e-09
-2.0957e-10
-3.3446e-10
-4.855e-09
-2.698e-10
-4.2874e-10
-5.2868e-09
-3.3269e-10
-5.2259e-10
-5.856e-09
-3.9825e-10
-6.2272e-10
-6.5717e-09
-4.6857e-10
-7.3515e-10
-7.4559e-09
-5.4683e-10
-8.6291e-10
-6.346e-10
-1.0076e-09
-5.3538e-09
1.3151e-11
1.3258e-11
-4.8973e-09
-3.257e-12
-2.8816e-12
-4.5675e-09
-4.6101e-11
-4.5475e-11
-4.3922e-09
-1.2321e-10
-1.2234e-10
-4.3851e-09
-2.0708e-10
-2.0625e-10
-4.5357e-09
-2.921e-10
-2.9104e-10
-4.8303e-09
-3.7629e-10
-3.7515e-10
-5.2611e-09
-4.6277e-10
-4.6181e-10
-5.8279e-09
-5.5307e-10
-5.522e-10
-6.5394e-09
-6.517e-10
-6.5085e-10
-7.4181e-09
-7.6245e-10
-7.615e-10
-8.8734e-10
-8.8615e-10
-5.3372e-09
1.1015e-11
3.0209e-11
-4.8641e-09
-6.5113e-12
1.4798e-11
-4.5298e-09
-4.2552e-11
-4.2451e-11
-4.3514e-09
-1.0413e-10
-1.9619e-10
-4.3447e-09
-1.6417e-10
-3.6183e-10
-4.4961e-09
-2.2828e-10
-5.1888e-10
-4.7922e-09
-2.94e-10
-6.6362e-10
-5.225e-09
-3.6243e-10
-8.0538e-10
-5.7902e-09
-4.2969e-10
-9.576e-10
-6.4967e-09
-4.9806e-10
-1.1275e-09
-7.3683e-09
-5.7056e-10
-1.3238e-09
-6.498e-10
-1.5507e-09
-5.3209e-09
-1.086e-11
1.9328e-11
1.9207e-11
-4.8263e-09
6.3082e-12
-3.3942e-13
-6.4216e-15
-4.4894e-09
4.163e-11
-3.6602e-11
-3.5574e-11
-4.3079e-09
1.0305e-10
-1.3627e-10
-1.3436e-10
-4.3024e-09
1.6297e-10
-2.2921e-10
-2.2647e-10
-4.4548e-09
2.2673e-10
-3.2274e-10
-3.1949e-10
-4.7519e-09
2.9188e-10
-4.1225e-10
-4.0886e-10
-5.1841e-09
3.602e-10
-5.0327e-10
-5.0014e-10
-5.7461e-09
4.2747e-10
-5.9562e-10
-5.9261e-10
-6.4454e-09
4.9603e-10
-6.93e-10
-6.8985e-10
-7.3072e-09
5.6869e-10
-7.9908e-10
-7.9569e-10
6.4815e-10
-9.1751e-10
-9.147e-10
-5.3365e-09
-9.9183e-12
3.0227e-11
-4.8637e-09
-1.8846e-13
1.4808e-11
-4.5294e-09
2.8288e-11
-4.286e-11
-4.3511e-09
8.9469e-11
-1.9672e-10
-4.3447e-09
1.5384e-10
-3.6249e-10
-4.4963e-09
2.1678e-10
-5.2005e-10
-4.7925e-09
2.7694e-10
-6.6549e-10
-5.2254e-09
3.3797e-10
-8.0761e-10
-5.7906e-09
3.9859e-10
-9.5964e-10
-6.4968e-09
4.6187e-10
-1.1292e-09
-7.3682e-09
5.3156e-10
-1.3243e-09
6.0996e-10
-1.5496e-09
-5.3452e-09
-4.9295e-12
2.4447e-11
-4.886e-09
5.4657e-13
2.3273e-12
-4.5578e-09
1.4489e-11
-5.7359e-11
-4.3826e-09
4.6988e-11
-2.0211e-10
-4.3737e-09
8.0843e-11
-3.6297e-10
-4.5222e-09
1.1478e-10
-5.1815e-10
-4.8173e-09
1.4724e-10
-6.6273e-10
-5.2516e-09
1.7918e-10
-8.0309e-10
-5.8195e-09
2.0967e-10
-9.5638e-10
-6.5305e-09
2.4128e-10
-1.1288e-09
-7.408e-09
2.7621e-10
-1.3264e-09
3.1586e-10
-1.5532e-09
-5.3509e-09
-1.327e-13
2.2723e-11
-4.8962e-09
-3.8269e-13
-2.5983e-12
-4.571e-09
-6.1151e-13
-6.9539e-11
-4.3974e-09
-7.3249e-13
-2.1508e-10
-4.388e-09
-9.0194e-13
-3.8363e-10
-4.5359e-09
-9.3879e-13
-5.4611e-10
-4.8303e-09
-8.2754e-13
-6.9886e-10
-5.2652e-09
-6.4903e-13
-8.4742e-10
-5.8346e-09
-5.1708e-13
-1.0149e-09
-6.548e-09
-4.213e-13
-1.2056e-09
-7.4286e-09
-3.5631e-13
-1.4239e-09
-3.1021e-13
-1.6728e-09
-5.351e-09
4.6789e-12
2.2767e-11
-4.8963e-09
-1.3023e-12
-2.4718e-12
-4.571e-09
-1.58e-11
-6.9278e-11
-4.3974e-09
-4.8646e-11
-2.1462e-10
-4.388e-09
-8.2749e-11
-3.834e-10
-4.5359e-09
-1.1677e-10
-5.4602e-10
-4.8303e-09
-1.4893e-10
-6.9895e-10
-5.2651e-09
-1.803e-10
-8.4792e-10
-5.8345e-09
-2.1053e-10
-1.0156e-09
-6.548e-09
-2.4204e-10
-1.2064e-09
-7.4286e-09
-2.7709e-10
-1.4248e-09
-3.1669e-10
-1.674e-09
-5.3456e-09
9.6661e-12
2.4642e-11
-4.8862e-09
-6.3936e-13
2.8036e-12
-4.558e-09
-2.982e-11
-5.6595e-11
-4.3828e-09
-9.1518e-11
-2.0101e-10
-4.3738e-09
-1.5608e-10
-3.6216e-10
-4.5222e-09
-2.1902e-10
-5.1753e-10
-4.8172e-09
-2.7922e-10
-6.6216e-10
-5.2514e-09
-3.399e-10
-8.0247e-10
-5.8193e-09
-4.0026e-10
-9.5623e-10
-6.5304e-09
-4.6324e-10
-1.1296e-09
-7.408e-09
-5.3312e-10
-1.3281e-09
-6.1183e-10
-1.5553e-09
-5.3372e-09
1.0613e-11
3.0484e-11
-4.8641e-09
-7.2755e-12
1.5643e-11
-4.5298e-09
-4.3353e-11
-4.1786e-11
-4.3514e-09
-1.0516e-10
-1.9544e-10
-4.3448e-09
-1.655e-10
-3.6101e-10
-4.4962e-09
-2.2955e-10
-5.1817e-10
-4.7922e-09
-2.9495e-10
-6.6309e-10
-5.225e-09
-3.6336e-10
-8.0513e-10
-5.7902e-09
-4.304e-10
-9.5749e-10
-6.4967e-09
-4.9861e-10
-1.1275e-09
-7.3682e-09
-5.7113e-10
-1.3239e-09
-6.5055e-10
-1.5506e-09
-5.3218e-09
1.9611e-11
1.9547e-11
-4.8271e-09
-1.3059e-13
1.6215e-13
-4.4899e-09
-3.6622e-11
-3.6044e-11
-4.3083e-09
-1.3581e-10
-1.3499e-10
-4.3025e-09
-2.2843e-10
-2.2727e-10
-4.4547e-09
-3.2178e-10
-3.2054e-10
-4.7516e-09
-4.1138e-10
-4.1009e-10
-5.1835e-09
-5.026e-10
-5.0159e-10
-5.7456e-09
-5.9463e-10
-5.9393e-10
-6.4451e-09
-6.9165e-10
-6.9111e-10
-7.3071e-09
-7.9788e-10
-7.9714e-10
-9.1683e-10
-9.1598e-10
2.4393e-08
2.9591e-10
-7.8031e-10
-2.1655e-12
2.1541e-08
2.4856e-10
-6.6115e-10
-1.4951e-12
1.9207e-08
2.1163e-10
-5.5412e-10
-8.3118e-13
1.7299e-08
1.8325e-10
-4.6472e-10
-4.9851e-13
1.58e-08
1.6026e-10
-3.9776e-10
4.382e-13
1.4735e-08
1.422e-10
-3.4269e-10
1.2674e-12
1.4147e-08
1.1981e-10
-2.8737e-10
1.6059e-12
1.4105e-08
8.2302e-11
-1.9883e-10
1.6564e-12
1.4748e-08
2.5341e-11
-1.0157e-10
1.6032e-12
1.6124e-08
-3.7689e-11
1.6349e-11
1.4187e-12
1.7985e-08
-5.0442e-11
8.9628e-11
3.1533e-13
-3.5055e-11
9.5966e-11
2.6191e-13
2.9266e-08
2.9306e-10
-1.6016e-09
2.5825e-08
2.4825e-10
-1.3444e-09
2.3013e-08
2.1127e-10
-1.1226e-09
2.0725e-08
1.8031e-10
-9.3884e-10
1.8942e-08
1.5376e-10
-7.8923e-10
1.7688e-08
1.3243e-10
-6.5851e-10
1.701e-08
1.0948e-10
-5.3004e-10
1.6979e-08
7.6474e-11
-3.6809e-10
1.7716e-08
3.1262e-11
-1.8541e-10
1.9251e-08