/*--------------------------------*- C++ -*----------------------------------*\
| =========                 |                                                 |
| \\      /  F ield         | OpenFOAM: The Open Source CFD Toolbox           |
|  \\    /   O peration     | Version:  4.1                                   |
|   \\  /    A nd           | Web:      www.OpenFOAM.org                      |
|    \\/     M anipulation  |                                                 |
\*---------------------------------------------------------------------------*/
FoamFile
{
    version     2.0;
    format      ascii;
    class       pointVectorField;
    location    "0.0037";
    object      pointDisplacement_Next;
}
// * * * * * * * * * * * * * * * * * * * * * * * * * * * * * * * * * * * * * //

dimensions      [0 1 0 0 0 0 0];

internalField   uniform (0 0 0);

boundaryField
{
    inlet
    {
        type            fixedValue;
        value           nonuniform 0();
    }
    outlet
    {
        type            fixedValue;
        value           nonuniform 0();
    }
    mantle
    {
        type            fixedValue;
        value           nonuniform List<vector> 
416
(
(-4.5677e-05 -1.8074e-05 1.9487e-10)
(-4.4709e-05 -1.4301e-05 4.4714e-10)
(-4.4709e-05 -1.4038e-05 2.7713e-06)
(-4.5692e-05 -1.7723e-05 3.4865e-06)
(-4.4707e-05 -1.3281e-05 5.4938e-06)
(-4.5706e-05 -1.6736e-05 6.9153e-06)
(-4.4693e-05 -1.2054e-05 8.0717e-06)
(-4.5683e-05 -1.519e-05 1.0178e-05)
(-4.4686e-05 -1.0314e-05 1.0314e-05)
(-4.5665e-05 -1.301e-05 1.301e-05)
(-4.4693e-05 -8.0721e-06 1.2054e-05)
(-4.5683e-05 -1.0178e-05 1.5191e-05)
(-4.4707e-05 -5.4944e-06 1.3283e-05)
(-4.5706e-05 -6.9157e-06 1.6738e-05)
(-4.4709e-05 -2.7716e-06 1.404e-05)
(-4.5691e-05 -3.4868e-06 1.7724e-05)
(-4.4708e-05 -4.9174e-10 1.4304e-05)
(-4.5677e-05 -2.3871e-10 1.8075e-05)
(-4.3398e-05 -1.1425e-05 1.4904e-10)
(-4.339e-05 -1.1231e-05 2.2268e-06)
(-4.3376e-05 -1.0636e-05 4.4131e-06)
(-4.3372e-05 -9.6608e-06 6.4645e-06)
(-4.3371e-05 -8.2474e-06 8.2474e-06)
(-4.3372e-05 -6.4651e-06 9.6617e-06)
(-4.3376e-05 -4.4138e-06 1.0637e-05)
(-4.3389e-05 -2.2273e-06 1.1234e-05)
(-4.3398e-05 -1.7255e-10 1.1428e-05)
(-4.1762e-05 -9.2906e-06 1.3033e-10)
(-4.1757e-05 -9.1189e-06 1.8036e-06)
(-4.1751e-05 -8.6255e-06 3.572e-06)
(-4.1742e-05 -7.8333e-06 5.2469e-06)
(-4.1741e-05 -6.7038e-06 6.7039e-06)
(-4.1742e-05 -5.2474e-06 7.8342e-06)
(-4.1751e-05 -3.5727e-06 8.6275e-06)
(-4.1757e-05 -1.8041e-06 9.1218e-06)
(-4.1761e-05 -1.1585e-10 9.2942e-06)
(-3.9893e-05 -7.5312e-06 1.1066e-10)
(-3.9899e-05 -7.3676e-06 1.4426e-06)
(-3.9903e-05 -6.9517e-06 2.8717e-06)
(-3.9889e-05 -6.3212e-06 4.2421e-06)
(-3.988e-05 -5.4329e-06 5.4331e-06)
(-3.9889e-05 -4.2426e-06 6.3222e-06)
(-3.9903e-05 -2.8724e-06 6.9537e-06)
(-3.9899e-05 -1.4431e-06 7.3706e-06)
(-3.9893e-05 -5.5702e-11 7.5349e-06)
(-3.7902e-05 -5.9069e-06 6.8235e-11)
(-3.7903e-05 -5.7957e-06 1.1421e-06)
(-3.7904e-05 -5.4832e-06 2.2671e-06)
(-3.7895e-05 -4.9805e-06 3.3357e-06)
(-3.7891e-05 -4.2655e-06 4.2656e-06)
(-3.7895e-05 -3.3361e-06 4.9815e-06)
(-3.7904e-05 -2.2678e-06 5.4852e-06)
(-3.7903e-05 -1.1425e-06 5.7985e-06)
(-3.7902e-05 -2.2755e-12 5.9104e-06)
(-3.5854e-05 -4.494e-06 5.5471e-11)
(-3.5856e-05 -4.4318e-06 8.8383e-07)
(-3.5853e-05 -4.2065e-06 1.7435e-06)
(-3.585e-05 -3.8247e-06 2.5527e-06)
(-3.5843e-05 -3.2541e-06 3.2543e-06)
(-3.585e-05 -2.5531e-06 3.8256e-06)
(-3.5852e-05 -1.7441e-06 4.2083e-06)
(-3.5856e-05 -8.8423e-07 4.4344e-06)
(-3.5854e-05 6.6798e-12 4.4972e-06)
(-3.3784e-05 -3.4615e-06 -3.2026e-10)
(-3.3783e-05 -3.4065e-06 6.782e-07)
(-3.3783e-05 -3.2338e-06 1.3397e-06)
(-3.3777e-05 -2.9389e-06 1.9644e-06)
(-3.3775e-05 -2.51e-06 2.5107e-06)
(-3.3776e-05 -1.9647e-06 2.9397e-06)
(-3.3783e-05 -1.3402e-06 3.2353e-06)
(-3.3783e-05 -6.7851e-07 3.4086e-06)
(-3.3784e-05 3.8267e-10 3.4643e-06)
(-3.167e-05 -2.7372e-06 -1.0246e-11)
(-3.1672e-05 -2.6795e-06 5.2402e-07)
(-3.1675e-05 -2.5305e-06 1.0452e-06)
(-3.1667e-05 -2.3071e-06 1.5493e-06)
(-3.1663e-05 -1.9854e-06 1.9855e-06)
(-3.1667e-05 -1.5494e-06 2.3076e-06)
(-3.1675e-05 -1.0455e-06 2.5314e-06)
(-3.1671e-05 -5.2423e-07 2.681e-06)
(-3.167e-05 6.8979e-11 2.7392e-06)
(-2.9499e-05 -2.2157e-06 -8.3656e-11)
(-2.9497e-05 -2.1676e-06 4.2289e-07)
(-2.9496e-05 -2.0451e-06 8.4532e-07)
(-2.9493e-05 -1.8646e-06 1.2535e-06)
(-2.9493e-05 -1.6056e-06 1.6057e-06)
(-2.9493e-05 -1.2535e-06 1.8648e-06)
(-2.9496e-05 -8.4542e-07 2.0455e-06)
(-2.9497e-05 -4.2296e-07 2.1682e-06)
(-2.9499e-05 1.3911e-10 2.2166e-06)
(-2.7302e-05 -1.8056e-06 -1.4311e-10)
(-2.7302e-05 -1.7659e-06 3.4526e-07)
(-2.73e-05 -1.665e-06 6.9e-07)
(-2.7298e-05 -1.5178e-06 1.0217e-06)
(-2.7296e-05 -1.3075e-06 1.3075e-06)
(-2.7298e-05 -1.0216e-06 1.5176e-06)
(-2.73e-05 -6.8987e-07 1.6647e-06)
(-2.7302e-05 -3.4517e-07 1.7655e-06)
(-2.7302e-05 1.9785e-10 1.8054e-06)
(-2.5135e-05 -1.4557e-06 -1.8212e-10)
(-2.5134e-05 -1.4247e-06 2.7901e-07)
(-2.5136e-05 -1.3439e-06 5.564e-07)
(-2.5132e-05 -1.2245e-06 8.2323e-07)
(-2.5131e-05 -1.0531e-06 1.0531e-06)
(-2.5132e-05 -8.2296e-07 1.2241e-06)
(-2.5135e-05 -5.5604e-07 1.3431e-06)
(-2.5134e-05 -2.7875e-07 1.4236e-06)
(-2.5135e-05 2.4765e-10 1.4545e-06)
(-2.3019e-05 -1.1383e-06 -2.2371e-10)
(-2.3023e-05 -1.113e-06 2.1685e-07)
(-2.3029e-05 -1.0494e-06 4.3336e-07)
(-2.3022e-05 -9.5603e-07 6.4265e-07)
(-2.3017e-05 -8.2304e-07 8.2304e-07)
(-2.3022e-05 -6.4221e-07 9.5539e-07)
(-2.3029e-05 -4.3279e-07 1.0481e-06)
(-2.3023e-05 -2.1643e-07 1.1112e-06)
(-2.3019e-05 3.1508e-10 1.1363e-06)
(-4.4709e-05 2.7712e-06 1.404e-05)
(-4.5691e-05 3.4862e-06 1.7724e-05)
(-4.4707e-05 5.4938e-06 1.3282e-05)
(-4.5706e-05 6.9149e-06 1.6737e-05)
(-4.4693e-05 8.0717e-06 1.2054e-05)
(-4.5682e-05 1.0177e-05 1.519e-05)
(-4.4686e-05 1.0314e-05 1.0314e-05)
(-4.5664e-05 1.3009e-05 1.3009e-05)
(-4.4693e-05 1.2054e-05 8.0721e-06)
(-4.5682e-05 1.519e-05 1.0178e-05)
(-4.4707e-05 1.3282e-05 5.4943e-06)
(-4.5706e-05 1.6737e-05 6.9156e-06)
(-4.4709e-05 1.404e-05 2.7715e-06)
(-4.5691e-05 1.7724e-05 3.4867e-06)
(-4.4708e-05 1.4303e-05 3.6075e-10)
(-4.5677e-05 1.8075e-05 7.1993e-11)
(-4.3389e-05 2.227e-06 1.1234e-05)
(-4.3376e-05 4.4135e-06 1.0637e-05)
(-4.3372e-05 6.4649e-06 9.6619e-06)
(-4.3371e-05 8.2476e-06 8.2478e-06)
(-4.3372e-05 9.6615e-06 6.4651e-06)
(-4.3376e-05 1.0637e-05 4.4137e-06)
(-4.3389e-05 1.1233e-05 2.2272e-06)
(-4.3398e-05 1.1427e-05 9.2909e-11)
(-4.1757e-05 1.804e-06 9.122e-06)
(-4.1751e-05 3.5726e-06 8.6278e-06)
(-4.1742e-05 5.2475e-06 7.8347e-06)
(-4.1741e-05 6.7042e-06 6.7045e-06)
(-4.1742e-05 7.8341e-06 5.2475e-06)
(-4.1751e-05 8.6268e-06 3.5725e-06)
(-4.1757e-05 9.1206e-06 1.804e-06)
(-4.1762e-05 9.2926e-06 1.0231e-10)
(-3.9899e-05 1.4431e-06 7.3708e-06)
(-3.9903e-05 2.8724e-06 6.9541e-06)
(-3.9889e-05 4.2428e-06 6.3227e-06)
(-3.988e-05 5.4333e-06 5.4336e-06)
(-3.9889e-05 6.3219e-06 4.2426e-06)
(-3.9903e-05 6.9528e-06 2.8721e-06)
(-3.9899e-05 7.3691e-06 1.4429e-06)
(-3.9893e-05 7.533e-06 9.9607e-11)
(-3.7903e-05 1.1425e-06 5.7988e-06)
(-3.7903e-05 2.2679e-06 5.4856e-06)
(-3.7895e-05 3.3364e-06 4.9819e-06)
(-3.7891e-05 4.2659e-06 4.2661e-06)
(-3.7895e-05 4.9811e-06 3.3361e-06)
(-3.7904e-05 5.4841e-06 2.2674e-06)
(-3.7903e-05 5.7968e-06 1.1423e-06)
(-3.7902e-05 5.9082e-06 9.5203e-11)
(-3.5856e-05 8.8429e-07 4.4346e-06)
(-3.5852e-05 1.7442e-06 4.2086e-06)
(-3.585e-05 2.5534e-06 3.826e-06)
(-3.5843e-05 3.2545e-06 3.2546e-06)
(-3.585e-05 3.8252e-06 2.553e-06)
(-3.5853e-05 4.2072e-06 1.7437e-06)
(-3.5856e-05 4.4326e-06 8.8397e-07)
(-3.5854e-05 4.4949e-06 5.5276e-11)
(-3.3783e-05 6.7864e-07 3.4089e-06)
(-3.3783e-05 1.3404e-06 3.2356e-06)
(-3.3776e-05 1.965e-06 2.9401e-06)
(-3.3775e-05 2.511e-06 2.5105e-06)
(-3.3777e-05 2.9394e-06 1.9647e-06)
(-3.3783e-05 3.2344e-06 1.3399e-06)
(-3.3783e-05 3.4071e-06 6.7829e-07)
(-3.3784e-05 3.4622e-06 3.7558e-10)
(-3.1671e-05 5.2444e-07 2.6813e-06)
(-3.1675e-05 1.0459e-06 2.5319e-06)
(-3.1666e-05 1.5499e-06 2.3081e-06)
(-3.1663e-05 1.986e-06 1.9859e-06)
(-3.1667e-05 2.3077e-06 1.5496e-06)
(-3.1675e-05 2.5311e-06 1.0454e-06)
(-3.1672e-05 2.6802e-06 5.2409e-07)
(-3.167e-05 2.7379e-06 -1.709e-11)
(-2.9497e-05 4.233e-07 2.1685e-06)
(-2.9496e-05 8.4591e-07 2.046e-06)
(-2.9493e-05 1.2542e-06 1.8654e-06)
(-2.9493e-05 1.6064e-06 1.6062e-06)
(-2.9493e-05 1.8654e-06 1.2538e-06)
(-2.9496e-05 2.0459e-06 8.4555e-07)
(-2.9497e-05 2.1683e-06 4.2299e-07)
(-2.9499e-05 2.2164e-06 -8.2257e-11)
(-2.7302e-05 3.4563e-07 1.7659e-06)
(-2.73e-05 6.9051e-07 1.6653e-06)
(-2.7298e-05 1.0224e-06 1.5183e-06)
(-2.7296e-05 1.3085e-06 1.3081e-06)
(-2.7298e-05 1.5188e-06 1.0222e-06)
(-2.73e-05 1.666e-06 6.9033e-07)
(-2.7302e-05 1.7669e-06 3.4542e-07)
(-2.7302e-05 1.8065e-06 -1.3165e-10)
(-2.5134e-05 2.7936e-07 1.4241e-06)
(-2.5135e-05 5.5686e-07 1.3439e-06)
(-2.5132e-05 8.2406e-07 1.2251e-06)
(-2.5131e-05 1.0545e-06 1.054e-06)
(-2.5132e-05 1.2261e-06 8.2394e-07)
(-2.5136e-05 1.3455e-06 5.5689e-07)
(-2.5135e-05 1.4263e-06 2.7926e-07)
(-2.5135e-05 1.4571e-06 -1.8792e-10)
(-2.3023e-05 2.1717e-07 1.1118e-06)
(-2.3029e-05 4.338e-07 1.0491e-06)
(-2.3022e-05 6.436e-07 9.5657e-07)
(-2.3017e-05 8.2479e-07 8.2417e-07)
(-2.3022e-05 9.5804e-07 6.4359e-07)
(-2.3029e-05 1.0516e-06 4.3403e-07)
(-2.3023e-05 1.1151e-06 2.172e-07)
(-2.3019e-05 1.1403e-06 -1.9651e-10)
(-4.4709e-05 1.404e-05 -2.7713e-06)
(-4.5691e-05 1.7724e-05 -3.4865e-06)
(-4.4707e-05 1.3282e-05 -5.4939e-06)
(-4.5706e-05 1.6737e-05 -6.9152e-06)
(-4.4693e-05 1.2054e-05 -8.0716e-06)
(-4.5683e-05 1.519e-05 -1.0178e-05)
(-4.4686e-05 1.0314e-05 -1.0313e-05)
(-4.5665e-05 1.3009e-05 -1.3009e-05)
(-4.4693e-05 8.0714e-06 -1.2054e-05)
(-4.5683e-05 1.0177e-05 -1.519e-05)
(-4.4707e-05 5.4936e-06 -1.3281e-05)
(-4.5706e-05 6.9149e-06 -1.6736e-05)
(-4.4709e-05 2.7711e-06 -1.4039e-05)
(-4.5692e-05 3.4862e-06 -1.7723e-05)
(-4.4709e-05 1.4644e-10 -1.4302e-05)
(-4.5677e-05 -1.7266e-10 -1.8074e-05)
(-4.339e-05 1.1233e-05 -2.2269e-06)
(-4.3376e-05 1.0636e-05 -4.4132e-06)
(-4.3372e-05 9.6608e-06 -6.4645e-06)
(-4.3372e-05 8.2469e-06 -8.247e-06)
(-4.3372e-05 6.4643e-06 -9.6609e-06)
(-4.3376e-05 4.4131e-06 -1.0636e-05)
(-4.339e-05 2.2268e-06 -1.1233e-05)
(-4.3398e-05 -1.0281e-10 -1.1426e-05)
(-4.1757e-05 9.1203e-06 -1.8037e-06)
(-4.1751e-05 8.6261e-06 -3.5721e-06)
(-4.1742e-05 7.8331e-06 -5.2467e-06)
(-4.1741e-05 6.7032e-06 -6.7033e-06)
(-4.1743e-05 5.2466e-06 -7.8332e-06)
(-4.1751e-05 3.572e-06 -8.6261e-06)
(-4.1757e-05 1.8036e-06 -9.12e-06)
(-4.1762e-05 -7.5159e-11 -9.292e-06)
(-3.9899e-05 7.3687e-06 -1.4427e-06)
(-3.9903e-05 6.9519e-06 -2.8716e-06)
(-3.9889e-05 6.3208e-06 -4.2417e-06)
(-3.988e-05 5.432e-06 -5.4321e-06)
(-3.9889e-05 4.2416e-06 -6.3208e-06)
(-3.9903e-05 2.8716e-06 -6.9519e-06)
(-3.9899e-05 1.4426e-06 -7.3684e-06)
(-3.9893e-05 -6.4116e-11 -7.5322e-06)
(-3.7903e-05 5.7963e-06 -1.142e-06)
(-3.7904e-05 5.4831e-06 -2.2669e-06)
(-3.7895e-05 4.9797e-06 -3.335e-06)
(-3.7891e-05 4.2644e-06 -4.2644e-06)
(-3.7895e-05 3.335e-06 -4.9797e-06)
(-3.7904e-05 2.2668e-06 -5.4829e-06)
(-3.7904e-05 1.142e-06 -5.7958e-06)
(-3.7902e-05 -4.7882e-11 -5.9072e-06)
(-3.5856e-05 4.432e-06 -8.8376e-07)
(-3.5853e-05 4.2061e-06 -1.7432e-06)
(-3.585e-05 3.8237e-06 -2.552e-06)
(-3.5843e-05 3.2529e-06 -3.2529e-06)
(-3.585e-05 2.5519e-06 -3.8236e-06)
(-3.5853e-05 1.7431e-06 -4.2057e-06)
(-3.5856e-05 8.8366e-07 -4.4313e-06)
(-3.5854e-05 -1.0453e-12 -4.4937e-06)
(-3.3783e-05 3.4065e-06 -6.7813e-07)
(-3.3783e-05 3.2333e-06 -1.3394e-06)
(-3.3777e-05 2.938e-06 -1.9637e-06)
(-3.3775e-05 2.5094e-06 -2.5089e-06)
(-3.3777e-05 1.9636e-06 -2.9378e-06)
(-3.3783e-05 1.3393e-06 -3.2328e-06)
(-3.3783e-05 6.78e-07 -3.4056e-06)
(-3.3784e-05 -3.1778e-10 -3.4608e-06)
(-3.1672e-05 2.6797e-06 -5.2404e-07)
(-3.1676e-05 2.5302e-06 -1.0451e-06)
(-3.1667e-05 2.3065e-06 -1.5488e-06)
(-3.1663e-05 1.9847e-06 -1.9847e-06)
(-3.1667e-05 1.5487e-06 -2.3062e-06)
(-3.1676e-05 1.0449e-06 -2.5295e-06)
(-3.1672e-05 5.2388e-07 -2.6786e-06)
(-3.167e-05 7.0062e-11 -2.7364e-06)
(-2.9497e-05 2.168e-06 -4.2307e-07)
(-2.9496e-05 2.0452e-06 -8.4544e-07)
(-2.9493e-05 1.8645e-06 -1.2534e-06)
(-2.9493e-05 1.6055e-06 -1.6054e-06)
(-2.9493e-05 1.2533e-06 -1.8642e-06)
(-2.9496e-05 8.4519e-07 -2.0445e-06)
(-2.9497e-05 4.229e-07 -2.1668e-06)
(-2.9499e-05 1.3102e-10 -2.215e-06)
(-2.7302e-05 1.7667e-06 -3.4565e-07)
(-2.73e-05 1.6658e-06 -6.9048e-07)
(-2.7298e-05 1.5185e-06 -1.0222e-06)
(-2.7296e-05 1.3081e-06 -1.308e-06)
(-2.7298e-05 1.022e-06 -1.5181e-06)
(-2.73e-05 6.9023e-07 -1.665e-06)
(-2.7302e-05 3.4549e-07 -1.7656e-06)
(-2.7302e-05 1.8053e-10 -1.8052e-06)
(-2.5135e-05 1.4263e-06 -2.7963e-07)
(-2.5136e-05 1.3456e-06 -5.573e-07)
(-2.5132e-05 1.2262e-06 -8.2441e-07)
(-2.5131e-05 1.0546e-06 -1.0545e-06)
(-2.5132e-05 8.2427e-07 -1.2258e-06)
(-2.5136e-05 5.5708e-07 -1.3448e-06)
(-2.5135e-05 2.7949e-07 -1.4253e-06)
(-2.5135e-05 2.5004e-10 -1.4559e-06)
(-2.3023e-05 1.1154e-06 -2.1766e-07)
(-2.3029e-05 1.0521e-06 -4.3468e-07)
(-2.3022e-05 9.5877e-07 -6.4451e-07)
(-2.3017e-05 8.256e-07 -8.2545e-07)
(-2.3022e-05 6.4443e-07 -9.5829e-07)
(-2.3029e-05 4.3451e-07 -1.0513e-06)
(-2.3023e-05 2.1758e-07 -1.1144e-06)
(-2.3019e-05 2.8985e-10 -1.1392e-06)
(-4.4709e-05 -2.7713e-06 -1.4039e-05)
(-4.5692e-05 -3.4865e-06 -1.7722e-05)
(-4.4707e-05 -5.4936e-06 -1.3281e-05)
(-4.5706e-05 -6.9151e-06 -1.6736e-05)
(-4.4694e-05 -8.0709e-06 -1.2052e-05)
(-4.5683e-05 -1.0177e-05 -1.5189e-05)
(-4.4686e-05 -1.0313e-05 -1.0312e-05)
(-4.5665e-05 -1.3008e-05 -1.3008e-05)
(-4.4694e-05 -1.2052e-05 -8.0703e-06)
(-4.5683e-05 -1.5189e-05 -1.0177e-05)
(-4.4707e-05 -1.328e-05 -5.493e-06)
(-4.5706e-05 -1.6736e-05 -6.9146e-06)
(-4.4709e-05 -1.4038e-05 -2.7708e-06)
(-4.5692e-05 -1.7722e-05 -3.4861e-06)
(-4.339e-05 -2.2269e-06 -1.1232e-05)
(-4.3377e-05 -4.4129e-06 -1.0635e-05)
(-4.3372e-05 -6.4637e-06 -9.6595e-06)
(-4.3372e-05 -8.2457e-06 -8.2454e-06)
(-4.3372e-05 -9.6591e-06 -6.4631e-06)
(-4.3377e-05 -1.0634e-05 -4.4122e-06)
(-4.339e-05 -1.1231e-05 -2.2264e-06)
(-4.1757e-05 -1.8036e-06 -9.1193e-06)
(-4.1751e-05 -3.5717e-06 -8.6249e-06)
(-4.1743e-05 -5.2459e-06 -7.8318e-06)
(-4.1741e-05 -6.702e-06 -6.7019e-06)
(-4.1743e-05 -7.8315e-06 -5.2454e-06)
(-4.1751e-05 -8.6241e-06 -3.5711e-06)
(-4.1757e-05 -9.1181e-06 -1.8032e-06)
(-3.9899e-05 -1.4426e-06 -7.3677e-06)
(-3.9904e-05 -2.8712e-06 -6.9508e-06)
(-3.989e-05 -4.2409e-06 -6.3196e-06)
(-3.988e-05 -5.431e-06 -5.431e-06)
(-3.989e-05 -6.3194e-06 -4.2407e-06)
(-3.9904e-05 -6.9502e-06 -2.8708e-06)
(-3.9899e-05 -7.3669e-06 -1.4423e-06)
(-3.7904e-05 -1.1419e-06 -5.7953e-06)
(-3.7904e-05 -2.2665e-06 -5.4821e-06)
(-3.7896e-05 -3.3344e-06 -4.9788e-06)
(-3.7891e-05 -4.2636e-06 -4.2636e-06)
(-3.7896e-05 -4.9786e-06 -3.3344e-06)
(-3.7904e-05 -5.4818e-06 -2.2664e-06)
(-3.7904e-05 -5.7949e-06 -1.1417e-06)
(-3.5856e-05 -8.8358e-07 -4.431e-06)
(-3.5853e-05 -1.7428e-06 -4.2052e-06)
(-3.585e-05 -2.5514e-06 -3.823e-06)
(-3.5843e-05 -3.2523e-06 -3.2524e-06)
(-3.585e-05 -3.823e-06 -2.5515e-06)
(-3.5853e-05 -4.2052e-06 -1.7429e-06)
(-3.5856e-05 -4.4311e-06 -8.8358e-07)
(-3.3783e-05 -6.7787e-07 -3.4054e-06)
(-3.3783e-05 -1.339e-06 -3.2325e-06)
(-3.3777e-05 -1.9632e-06 -2.9374e-06)
(-3.3775e-05 -2.5085e-06 -2.5091e-06)
(-3.3777e-05 -2.9375e-06 -1.9634e-06)
(-3.3783e-05 -3.2328e-06 -1.3393e-06)
(-3.3783e-05 -3.4059e-06 -6.7804e-07)
(-3.1672e-05 -5.2369e-07 -2.6785e-06)
(-3.1676e-05 -1.0446e-06 -2.5293e-06)
(-3.1667e-05 -1.5483e-06 -2.306e-06)
(-3.1663e-05 -1.9843e-06 -1.9844e-06)
(-3.1667e-05 -2.3061e-06 -1.5486e-06)
(-3.1676e-05 -2.5297e-06 -1.045e-06)
(-3.1672e-05 -2.6791e-06 -5.2398e-07)
(-2.9497e-05 -4.2263e-07 -2.1668e-06)
(-2.9496e-05 -8.4487e-07 -2.0443e-06)
(-2.9493e-05 -1.2529e-06 -1.864e-06)
(-2.9493e-05 -1.6051e-06 -1.6052e-06)
(-2.9493e-05 -1.8641e-06 -1.2533e-06)
(-2.9496e-05 -2.0447e-06 -8.4534e-07)
(-2.9497e-05 -2.1674e-06 -4.2302e-07)
(-2.7302e-05 -3.4511e-07 -1.7655e-06)
(-2.73e-05 -6.898e-07 -1.6648e-06)
(-2.7298e-05 -1.0215e-06 -1.5178e-06)
(-2.7296e-05 -1.3075e-06 -1.3078e-06)
(-2.7298e-05 -1.5178e-06 -1.022e-06)
(-2.73e-05 -1.665e-06 -6.903e-07)
(-2.7302e-05 -1.7659e-06 -3.4555e-07)
(-2.5135e-05 -2.7899e-07 -1.4251e-06)
(-2.5136e-05 -5.5649e-07 -1.3445e-06)
(-2.5132e-05 -8.2354e-07 -1.2254e-06)
(-2.5131e-05 -1.0537e-06 -1.0541e-06)
(-2.5132e-05 -1.2251e-06 -8.24e-07)
(-2.5136e-05 -1.3444e-06 -5.5697e-07)
(-2.5134e-05 -1.425e-06 -2.7945e-07)
(-2.3023e-05 -2.1696e-07 -1.1141e-06)
(-2.3029e-05 -4.3375e-07 -1.0508e-06)
(-2.3022e-05 -6.4343e-07 -9.5765e-07)
(-2.3017e-05 -8.2432e-07 -8.2477e-07)
(-2.3022e-05 -9.5722e-07 -6.4388e-07)
(-2.3029e-05 -1.0504e-06 -4.3418e-07)
(-2.3023e-05 -1.1135e-06 -2.1739e-07)
)
;
    }
    procBoundary2to1
    {
        type            processor;
    }
    procBoundary2to3
    {
        type            processor;
    }
}


// ************************************************************************* //
