/*--------------------------------*- C++ -*----------------------------------*\
| =========                 |                                                 |
| \\      /  F ield         | OpenFOAM: The Open Source CFD Toolbox           |
|  \\    /   O peration     | Version:  4.1                                   |
|   \\  /    A nd           | Web:      www.OpenFOAM.org                      |
|    \\/     M anipulation  |                                                 |
\*---------------------------------------------------------------------------*/
FoamFile
{
    version     2.0;
    format      ascii;
    class       pointVectorField;
    location    "0.000140";
    object      pointDisplacement;
}
// * * * * * * * * * * * * * * * * * * * * * * * * * * * * * * * * * * * * * //

dimensions      [0 1 0 0 0 0 0];

internalField   nonuniform List<vector> 
3625
(
(0 0 0)
(0 -0.00017671333 -1.9413453e-09)
(0 -0.00026682349 1.9350746e-08)
(0 -0.0003051257 6.8690827e-08)
(0 -0.00031674557 1.4314558e-07)
(0 -0.00031310034 2.4811362e-07)
(0 -0.00029963866 3.7267491e-07)
(0 -0.00027890002 4.7591082e-07)
(0 -0.00025233462 5.2077233e-07)
(0 -0.00022092145 5.1188314e-07)
(0 -0.00018544918 4.5239272e-07)
(0 -0.00014668161 3.7175731e-07)
(0 -0.00010537882 3.0664732e-07)
(0 -6.2439412e-05 2.6100201e-07)
(0 -1.8591615e-05 2.2902743e-07)
(0 2.5435752e-05 1.9175078e-07)
(0 6.8827629e-05 1.5515743e-07)
(0 0.00011075957 1.3193782e-07)
(0 0.00015053244 7.2459523e-08)
(0 0.00018760502 -1.6322096e-08)
(0 0.00022130479 -4.7099085e-08)
(0 0.00025091903 -2.200153e-08)
(0 0.00027599392 2.8762784e-08)
(0 0.00029623223 8.2712281e-08)
(0 0.00031145784 1.2356366e-07)
(0 0 0)
(0 -0.00015054856 1.9178785e-05)
(0 -0.00023300103 2.9082893e-05)
(0 -0.00027008355 3.3580335e-05)
(0 -0.00028215384 3.5165964e-05)
(0 -0.00027967435 3.5038943e-05)
(0 -0.0002679184 3.3785377e-05)
(0 -0.00024935941 3.16674e-05)
(0 -0.00022542658 2.8815621e-05)
(0 -0.00019706467 2.5356208e-05)
(0 -0.00016501207 2.1392983e-05)
(0 -0.0001299956 1.7038442e-05)
(0 -9.2719994e-05 1.2423217e-05)
(0 -5.401875e-05 7.6516191e-06)
(0 -1.4627491e-05 2.7545685e-06)
(0 2.4825023e-05 -2.1863488e-06)
(0 6.3698856e-05 -7.0375502e-06)
(0 0.00010121076 -1.1693338e-05)
(0 0.00013674681 -1.620547e-05)
(0 0.00016986453 -2.0521342e-05)
(0 0.00019990018 -2.4376793e-05)
(0 0.00022613638 -2.7700189e-05)
(0 0.00024819912 -3.0520328e-05)
(0 0.00026588688 -3.2836034e-05)
(0 0.00027908174 -3.4617273e-05)
(0 0 0)
(0 -0.00012787951 4.1737908e-05)
(0 -0.00020121555 6.4805829e-05)
(0 -0.00023552709 7.5647309e-05)
(0 -0.00024732275 7.9541335e-05)
(0 -0.00024578689 7.9264641e-05)
(0 -0.00023575944 7.6262474e-05)
(0 -0.00021955577 7.1253408e-05)
(0 -0.00019850892 6.4627177e-05)
(0 -0.00017349307 5.6682748e-05)
(0 -0.0001451734 4.766429e-05)
(0 -0.0001142252 3.7833123e-05)
(0 -8.1294787e-05 2.7400456e-05)
(0 -4.7126604e-05 1.6534169e-05)
(0 -1.2423746e-05 5.3817561e-06)
(0 2.227832e-05 -5.8153861e-06)
(0 5.6482646e-05 -1.6773899e-05)
(0 8.9492229e-05 -2.7294389e-05)
(0 0.0001207859 -3.7405834e-05)
(0 0.00014997188 -4.6970871e-05)
(0 0.00017641238 -5.5573732e-05)
(0 0.00019943597 -6.3049175e-05)
(0 0.00021873585 -6.9397089e-05)
(0 0.00023416864 -7.4582177e-05)
(0 0.00024563953 -7.8517855e-05)
(0 0 0)
(0 -0.00010618178 6.3547886e-05)
(0 -0.00016835399 0.00010008485)
(0 -0.00019817231 0.00011763128)
(0 -0.00020880454 0.00012399992)
(0 -0.00020792073 0.00012358956)
(0 -0.00019967824 0.00011876066)
(0 -0.00018609615 0.00011073513)
(0 -0.00016834091 0.00010019325)
(0 -0.00014717122 8.7617703e-05)
(0 -0.00012315831 7.3402994e-05)
(0 -9.6887166e-05 5.7975982e-05)
(0 -6.8906314e-05 4.1648249e-05)
(0 -3.9921539e-05 2.4598608e-05)
(0 -1.0536037e-05 7.1157217e-06)
(0 1.8841634e-05 -1.0364077e-05)
(0 4.7770884e-05 -2.745797e-05)
(0 7.5707432e-05 -4.386797e-05)
(0 0.00010224173 -5.9534043e-05)
(0 0.0001269948 -7.4271385e-05)
(0 0.00014938671 -8.7573464e-05)
(0 0.00016884454 -9.9145502e-05)
(0 0.00018513376 -0.00010892921)
(0 0.00019814611 -0.00011685665)
(0 0.00020778803 -0.00012280773)
(0 0 0)
(0 -8.4844517e-05 8.4933035e-05)
(0 -0.00013455231 0.000134682)
(0 -0.00015860402 0.00015874489)
(0 -0.00016734265 0.00016746407)
(0 -0.00016683163 0.00016686395)
(0 -0.00016036892 0.00016020457)
(0 -0.00014958632 0.0001492015)
(0 -0.00013542258 0.0001348186)
(0 -0.00011848342 0.00011771054)
(0 -9.923182e-05 9.8412253e-05)
(0 -7.8139955e-05 7.7469586e-05)
(0 -5.565693e-05 5.5316079e-05)
(0 -3.2362602e-05 3.2228272e-05)
(0 -8.7485532e-06 8.6243265e-06)
(0 1.4842012e-05 -1.4947791e-05)
(0 3.8028338e-05 -3.8034757e-05)
(0 6.0413156e-05 -6.0227558e-05)
(0 8.1742238e-05 -8.1349954e-05)
(0 0.00010168319 -0.00010115041)
(0 0.00011969209 -0.00011903704)
(0 0.00013532637 -0.00013460382)
(0 0.00014843048 -0.00014772454)
(0 0.00015891006 -0.00015829521)
(0 0.00016667135 -0.00016618772)
(0 0 0)
(0 -6.3451261e-05 0.00010624156)
(0 -9.9941209e-05 0.00016845157)
(0 -0.00011747267 0.00019828773)
(0 -0.00012385111 0.00020891314)
(0 -0.00012350422 0.00020795481)
(0 -0.00011880132 0.00019948994)
(0 -0.00011091601 0.00018565945)
(0 -0.0001005205 0.00016766795)
(0 -8.8052049e-05 0.00014631486)
(0 -7.3854607e-05 0.0001222419)
(0 -5.8280201e-05 9.6086063e-05)
(0 -4.168646e-05 6.8382532e-05)
(0 -2.4458767e-05 3.9581014e-05)
(0 -6.9185035e-06 1.0248756e-05)
(0 1.0584393e-05 -1.9061291e-05)
(0 2.7707689e-05 -4.7839975e-05)
(0 4.4216133e-05 -7.5597989e-05)
(0 6.0018862e-05 -0.00010199192)
(0 7.485393e-05 -0.00012660277)
(0 8.8244093e-05 -0.00014882278)
(0 9.9883145e-05 -0.00016819643)
(0 0.00010967433 -0.00018451638)
(0 0.0001175305 -0.00019763206)
(0 0.00012336281 -0.00020740709)
(0 0 0)
(0 -4.1649743e-05 0.00012791406)
(0 -6.4669129e-05 0.00020128868)
(0 -7.5485424e-05 0.00023562764)
(0 -7.9364478e-05 0.0002474331)
(0 -7.9097138e-05 0.00024584174)
(0 -7.6127411e-05 0.00023558977)
(0 -7.1154786e-05 0.00021913914)
(0 -6.4573353e-05 0.00019786763)
(0 -5.6649978e-05 0.00017268144)
(0 -4.7605277e-05 0.00014430018)
(0 -3.7673874e-05 0.00011341998)
(0 -2.7091198e-05 8.0684652e-05)
(0 -1.6065972e-05 4.6698593e-05)
(0 -4.7903639e-06 1.2099266e-05)
(0 6.4437585e-06 -2.2514855e-05)
(0 1.7363857e-05 -5.6547309e-05)
(0 2.7866991e-05 -8.9439495e-05)
(0 3.798138e-05 -0.00012068332)
(0 4.7522398e-05 -0.00014973148)
(0 5.6156525e-05 -0.00017596925)
(0 6.3701246e-05 -0.00019890072)
(0 7.0083306e-05 -0.00021824535)
(0 7.5233293e-05 -0.00023379413)
(0 7.9076289e-05 -0.00024539218)
(0 0 0)
(0 -1.9107135e-05 0.00015058584)
(0 -2.8963962e-05 0.00023308439)
(0 -3.3427995e-05 0.00027019485)
(0 -3.4982131e-05 0.00028227358)
(0 -3.481918e-05 0.00027973365)
(0 -3.3527994e-05 0.00026774192)
(0 -3.1372768e-05 0.00024893219)
(0 -2.8493145e-05 0.00022477806)
(0 -2.4997535e-05 0.00019625163)
(0 -2.0987505e-05 0.00016412688)
(0 -1.6578081e-05 0.00012914526)
(0 -1.188294e-05 9.2030152e-05)
(0 -6.9758784e-06 5.3483912e-05)
(0 -1.9327094e-06 1.4208893e-05)
(0 3.0618058e-06 -2.5116596e-05)
(0 7.8365751e-06 -6.3809586e-05)
(0 1.2382999e-05 -0.00010123399)
(0 1.6801286e-05 -0.00013676749)
(0 2.1015066e-05 -0.00016977503)
(0 2.4840871e-05 -0.00019961735)
(0 2.819849e-05 -0.00022577259)
(0 3.1051994e-05 -0.00024789111)
(0 3.3363518e-05 -0.00026569517)
(0 3.5088338e-05 -0.000279002)
(0 0 0)
(0 5.9089648e-08 0.00017675668)
(0 8.1795157e-08 0.00026691089)
(0 6.6833185e-08 0.0003052344)
(0 2.726995e-08 0.00031685255)
(0 -3.1460904e-08 0.00031314759)
(0 -1.0146863e-07 0.00029948085)
(0 -1.4851145e-07 0.00027851837)
(0 -1.4482706e-07 0.0002517565)
(0 -8.5505068e-08 0.00022019649)
(0 1.7788919e-08 0.00018465084)
(0 1.4179513e-07 0.00014589842)
(0 2.6715889e-07 0.00010471664)
(0 4.0353573e-07 6.1876027e-05)
(0 5.5216675e-07 1.8143726e-05)
(0 6.3910643e-07 -2.571604e-05)
(0 5.995456e-07 -6.8931804e-05)
(0 4.9329289e-07 -0.00011077981)
(0 4.4364398e-07 -0.00015055333)
(0 4.5087974e-07 -0.00018755049)
(0 4.4894479e-07 -0.00022109706)
(0 4.2958875e-07 -0.00025063729)
(0 4.012627e-07 -0.00027575)
(0 3.5812316e-07 -0.00029607972)
(0 2.8448147e-07 -0.00031139458)
(0 0 0)
(0 -0.000150551 -1.9193675e-05)
(0 -0.00023300034 -2.905985e-05)
(0 -0.00027008073 -3.3443875e-05)
(0 -0.00028215099 -3.4852745e-05)
(0 -0.00027966098 -3.4496694e-05)
(0 -0.00026788531 -3.2986287e-05)
(0 -0.00024931191 -3.0670716e-05)
(0 -0.0002253699 -2.7767492e-05)
(0 -0.000197008 -2.4380627e-05)
(0 -0.00016495979 -2.0591429e-05)
(0 -0.00012994616 -1.6447082e-05)
(0 -9.2656943e-05 -1.198141e-05)
(0 -5.393803e-05 -7.2730153e-06)
(0 -1.4543406e-05 -2.407464e-06)
(0 2.490404e-05 2.4919358e-06)
(0 6.3765999e-05 7.310085e-06)
(0 0.00010126787 1.1996863e-05)
(0 0.00013680233 1.6399412e-05)
(0 0.00016992322 2.0461493e-05)
(0 0.0001999492 2.4270249e-05)
(0 0.00022615552 2.7749025e-05)
(0 0.00024818603 3.0764088e-05)
(0 0.00026586097 3.3228586e-05)
(0 0.0002790617 3.5099351e-05)
(0 0 0)
(0 -0.00011311631 -7.8054769e-10)
(0 -0.0001839632 3.0342594e-08)
(0 -0.00021859469 1.0932142e-07)
(0 -0.00023104995 2.2134346e-07)
(0 -0.00023024196 3.4684898e-07)
(0 -0.00022107499 4.7568401e-07)
(0 -0.00020586031 5.5585526e-07)
(0 -0.00018596355 5.3410909e-07)
(0 -0.00016226687 4.3505014e-07)
(0 -0.00013542253 2.8422458e-07)
(0 -0.00010608834 1.4930625e-07)
(0 -7.4872462e-05 7.5876791e-08)
(0 -4.2568539e-05 4.826688e-08)
(0 -9.9315623e-06 4.7144356e-08)
(0 2.2597508e-05 5.9563315e-08)
(0 5.4634212e-05 7.6928615e-08)
(0 8.5475197e-05 1.3824083e-07)
(0 0.00011463279 6.3802208e-08)
(0 0.00014181698 -1.31854e-07)
(0 0.0001663531 -1.3919737e-07)
(0 0.00018747368 2.8196277e-08)
(0 0.00020495927 2.0310124e-07)
(0 0.00021879953 3.0906024e-07)
(0 0.00022897369 3.6631005e-07)
(0 0 0)
(0 -9.2580175e-05 1.8786012e-05)
(0 -0.00015318397 3.074392e-05)
(0 -0.0001840594 3.6934859e-05)
(0 -0.00019579375 3.9463575e-05)
(0 -0.00019583401 3.97067e-05)
(0 -0.00018848834 3.8452983e-05)
(0 -0.00017581392 3.6080762e-05)
(0 -0.00015903252 3.278962e-05)
(0 -0.00013892722 2.8766882e-05)
(0 -0.00011606661 2.4177642e-05)
(0 -9.104431e-05 1.9255605e-05)
(0 -6.4406806e-05 1.4082328e-05)
(0 -3.6872158e-05 8.6577291e-06)
(0 -9.1414727e-06 3.0868234e-06)
(0 1.8466588e-05 -2.4578126e-06)
(0 4.5713586e-05 -7.8380331e-06)
(0 7.1995046e-05 -1.2948984e-05)
(0 9.6905831e-05 -1.7970538e-05)
(0 0.00012019133 -2.2844538e-05)
(0 0.00014119778 -2.7090182e-05)
(0 0.00015919884 -3.0611744e-05)
(0 0.00017404194 -3.3575848e-05)
(0 0.00018576852 -3.6031049e-05)
(0 0.00019437763 -3.7904945e-05)
(0 0 0)
(0 -7.3543733e-05 3.708721e-05)
(0 -0.00012270432 6.151693e-05)
(0 -0.00014839185 7.4339412e-05)
(0 -0.00015852276 7.9519443e-05)
(0 -0.00015900723 7.9890582e-05)
(0 -0.00015336179 7.7120934e-05)
(0 -0.00014328541 7.208828e-05)
(0 -0.00012979641 6.5283706e-05)
(0 -0.00011354014 5.7074529e-05)
(0 -9.4984736e-05 4.7779449e-05)
(0 -7.4637895e-05 3.7786391e-05)
(0 -5.2942571e-05 2.726666e-05)
(0 -3.0562572e-05 1.6222873e-05)
(0 -8.0802714e-06 4.8993706e-06)
(0 1.430109e-05 -6.3351749e-06)
(0 3.637772e-05 -1.7258195e-05)
(0 5.7712089e-05 -2.767289e-05)
(0 7.8022635e-05 -3.7697265e-05)
(0 9.7048345e-05 -4.7257087e-05)
(0 0.00011416294 -5.5761215e-05)
(0 0.00012875908 -6.297608e-05)
(0 0.0001407655 -6.9019558e-05)
(0 0.00015023684 -7.3918678e-05)
(0 0.00015716496 -7.7583759e-05)
(0 0 0)
(0 -5.5139079e-05 5.5289949e-05)
(0 -9.2077564e-05 9.2292418e-05)
(0 -0.0001115804 0.00011179337)
(0 -0.00011944826 0.00011959959)
(0 -0.00012005435 0.00012004342)
(0 -0.00011600071 0.00011569552)
(0 -0.00010856553 0.00010794739)
(0 -9.8513293e-05 9.7583063e-05)
(0 -8.6323671e-05 8.5146892e-05)
(0 -7.2355942e-05 7.1094986e-05)
(0 -5.700728e-05 5.5921415e-05)
(0 -4.0619211e-05 3.9934543e-05)
(0 -2.3707083e-05 2.326068e-05)
(0 -6.704735e-06 6.2644532e-06)
(0 1.0202631e-05 -1.0614126e-05)
(0 2.6812461e-05 -2.70882e-05)
(0 4.2873379e-05 -4.287763e-05)
(0 5.8274252e-05 -5.7972934e-05)
(0 7.2753914e-05 -7.21974e-05)
(0 8.5719989e-05 -8.4914155e-05)
(0 9.6736994e-05 -9.5789828e-05)
(0 0.00010580992 -0.00010486681)
(0 0.0001129759 -0.00011215091)
(0 0.00011820376 -0.00011755289)
(0 0 0)
(0 -3.6930002e-05 7.3658343e-05)
(0 -6.1293069e-05 0.0001228815)
(0 -7.4112719e-05 0.00014857902)
(0 -7.9342299e-05 0.00015867133)
(0 -7.9842622e-05 0.00015902267)
(0 -7.728081e-05 0.00015306291)
(0 -7.2469539e-05 0.00014265501)
(0 -6.5891963e-05 0.00012884832)
(0 -5.7855969e-05 0.00011234195)
(0 -4.8606884e-05 9.3695082e-05)
(0 -3.8424349e-05 7.3481975e-05)
(0 -2.756085e-05 5.2136057e-05)
(0 -1.6307304e-05 2.9996916e-05)
(0 -4.9122007e-06 7.5476934e-06)
(0 6.3769045e-06 -1.4803057e-05)
(0 1.734641e-05 -3.6707619e-05)
(0 2.7923318e-05 -5.7829333e-05)
(0 3.818727e-05 -7.794387e-05)
(0 4.7915628e-05 -9.6694742e-05)
(0 5.6582298e-05 -0.0001134751)
(0 6.393099e-05 -0.000127904)
(0 7.0008441e-05 -0.00013994269)
(0 7.4824259e-05 -0.00014955888)
(0 7.8332972e-05 -0.0001566666)
(0 0 0)
(0 -1.8648659e-05 9.2655318e-05)
(0 -3.0539195e-05 0.00015332283)
(0 -3.6711762e-05 0.00018422416)
(0 -3.9252266e-05 0.00019595113)
(0 -3.9553087e-05 0.00019590443)
(0 -3.8389475e-05 0.00018826445)
(0 -3.6108957e-05 0.00017528215)
(0 -3.2918165e-05 0.00015822138)
(0 -2.8960537e-05 0.00013790428)
(0 -2.4365886e-05 0.00011496961)
(0 -1.930195e-05 9.0043729e-05)
(0 -1.3907841e-05 6.3685595e-05)
(0 -8.2826232e-06 3.6406949e-05)
(0 -2.5376868e-06 8.7494833e-06)
(0 3.0953023e-06 -1.8839019e-05)
(0 8.4293849e-06 -4.5932235e-05)
(0 1.3529727e-05 -7.2128321e-05)
(0 1.8597993e-05 -9.6992061e-05)
(0 2.3479516e-05 -0.00012002703)
(0 2.7806664e-05 -0.00014065981)
(0 3.1464807e-05 -0.00015849004)
(0 3.450183e-05 -0.00017339944)
(0 3.6916125e-05 -0.0001852943)
(0 3.8667037e-05 -0.00019407953)
(0 0 0)
(0 1.0794922e-07 0.00011318098)
(0 1.3869941e-07 0.00018409797)
(0 9.1468777e-08 0.00021875763)
(0 -1.8224955e-09 0.00023120903)
(0 -1.212009e-07 0.00023032253)
(0 -2.4735429e-07 0.00022086595)
(0 -3.2040159e-07 0.00020535487)
(0 -3.0318215e-07 0.00018519909)
(0 -1.9307286e-07 0.0001613111)
(0 -1.0465677e-08 0.00013439534)
(0 1.9356801e-07 0.00010512541)
(0 3.8905687e-07 7.4150825e-05)
(0 6.0410055e-07 4.2091287e-05)
(0 8.4056791e-07 9.5515624e-06)
(0 9.5850235e-07 -2.2929613e-05)
(0 8.4975904e-07 -5.4826779e-05)
(0 6.5935531e-07 -8.5649691e-05)
(0 6.2547086e-07 -0.00011483284)
(0 6.9285608e-07 -0.00014180007)
(0 6.8941032e-07 -0.00016599085)
(0 6.0935636e-07 -0.00018698627)
(0 5.0777579e-07 -0.00020457803)
(0 3.9887487e-07 -0.00021859765)
(0 2.6489424e-07 -0.00022892924)
(0 0 0)
(0 1.9268503e-05 0.00015061497)
(0 2.9183658e-05 0.0002331252)
(0 3.36002e-05 0.00027022441)
(0 3.5038595e-05 0.00028227788)
(0 3.4717065e-05 0.00027971068)
(0 3.3247766e-05 0.0002676989)
(0 3.0977664e-05 0.00024887701)
(0 2.8111332e-05 0.00022471927)
(0 2.4765652e-05 0.00019619651)
(0 2.1014285e-05 0.00016407735)
(0 1.6907936e-05 0.00012909093)
(0 1.2511568e-05 9.1962931e-05)
(0 7.9284423e-06 5.3406699e-05)
(0 3.241289e-06 1.4121692e-05)
(0 -1.5568298e-06 -2.5215651e-05)
(0 -6.4568741e-06 -6.393255e-05)
(0 -1.1281853e-05 -0.00010139276)
(0 -1.5808894e-05 -0.00013693102)
(0 -1.9991545e-05 -0.00016990071)
(0 -2.3842359e-05 -0.00019969755)
(0 -2.729559e-05 -0.00022582752)
(0 -3.0270135e-05 -0.00024794357)
(0 -3.2719336e-05 -0.00026575549)
(0 -3.4628847e-05 -0.00027907059)
(0 0 0)
(0 -0.00012788813 -4.1788163e-05)
(0 -0.0002012171 -6.4844294e-05)
(0 -0.00023552141 -7.5585117e-05)
(0 -0.00024731081 -7.9312356e-05)
(0 -0.00024576136 -7.8836568e-05)
(0 -0.00023570241 -7.5618671e-05)
(0 -0.00021947961 -7.0465797e-05)
(0 -0.00019843006 -6.3847909e-05)
(0 -0.00017342929 -5.6033266e-05)
(0 -0.00014514229 -4.7216656e-05)
(0 -0.00011421662 -3.752666e-05)
(0 -8.1253656e-05 -2.7142659e-05)
(0 -4.7016138e-05 -1.6304305e-05)
(0 -1.229889e-05 -5.1832281e-06)
(0 2.2389396e-05 5.9944373e-06)
(0 5.6593452e-05 1.6967384e-05)
(0 8.9619093e-05 2.7573169e-05)
(0 0.00012091893 3.7575305e-05)
(0 0.00015009153 4.6858463e-05)
(0 0.00017651006 5.5449375e-05)
(0 0.0001994754 6.3172614e-05)
(0 0.00021869861 6.9790796e-05)
(0 0.00023409054 7.5158085e-05)
(0 0.00024557223 7.9200902e-05)
(0 0 0)
(0 -9.2590977e-05 -1.8805393e-05)
(0 -0.00015318678 -3.0715239e-05)
(0 -0.0001840496 -3.6758478e-05)
(0 -0.00019577005 -3.908501e-05)
(0 -0.00019579215 -3.9126498e-05)
(0 -0.00018841086 -3.7682596e-05)
(0 -0.000175718 -3.5242666e-05)
(0 -0.00015893233 -3.209515e-05)
(0 -0.00013883412 -2.8370988e-05)
(0 -0.00011599122 -2.4136564e-05)
(0 -9.0970612e-05 -1.9359128e-05)
(0 -6.429169e-05 -1.4170147e-05)
(0 -3.6692093e-05 -8.7902795e-06)
(0 -8.9554006e-06 -3.2517908e-06)
(0 1.8636823e-05 2.3438711e-06)
(0 4.5888252e-05 7.811358e-06)
(0 7.217895e-05 1.3092073e-05)
(0 9.7079001e-05 1.7963126e-05)
(0 0.00012034336 2.240157e-05)
(0 0.00014132848 2.6657227e-05)
(0 0.00015928269 3.0617059e-05)
(0 0.00017405979 3.4016521e-05)
(0 0.00018574517 3.6735603e-05)
(0 0.00019435703 3.8764268e-05)
(0 0 0)
(0 -7.269553e-05 1.6609589e-08)
(0 -0.00012259386 5.2910057e-08)
(0 -0.0001490931 1.2941033e-07)
(0 -0.00015970295 2.2231855e-07)
(0 -0.0001603893 3.0397895e-07)
(0 -0.00015477431 3.6868275e-07)
(0 -0.00014463786 3.5800103e-07)
(0 -0.00013102624 2.3443659e-07)
(0 -0.00011460332 2.7560637e-08)
(0 -9.5849101e-05 -1.8069793e-07)
(0 -7.525811e-05 -2.0886948e-07)
(0 -5.3301366e-05 -1.4249266e-07)
(0 -3.0660047e-05 -1.7064103e-07)
(0 -7.9997909e-06 -2.0940913e-07)
(0 1.4547111e-05 -1.7451915e-07)
(0 3.6897786e-05 -1.1703931e-07)
(0 5.8541769e-05 -2.4642228e-08)
(0 7.9121548e-05 -1.0620736e-07)
(0 9.841411e-05 -3.545566e-07)
(0 0.00011578948 -3.484026e-07)
(0 0.00013054751 -9.3655158e-08)
(0 0.00014260673 1.6213918e-07)
(0 0.00015210095 3.2929758e-07)
(0 0.00015908162 4.2959661e-07)
(0 0 0)
(0 -5.4206398e-05 1.8267344e-05)
(0 -9.2322842e-05 3.0975628e-05)
(0 -0.0001130972 3.7929998e-05)
(0 -0.00012171972 4.0866549e-05)
(0 -0.00012263738 4.1211178e-05)
(0 -0.00011862564 3.98559e-05)
(0 -0.0001110595 3.7251278e-05)
(0 -0.00010075753 3.3649284e-05)
(0 -8.8233995e-05 2.926407e-05)
(0 -7.3869769e-05 2.4327688e-05)
(0 -5.8079603e-05 1.9138267e-05)
(0 -4.1241534e-05 1.3728485e-05)
(0 -2.3924926e-05 8.0075538e-06)
(0 -6.6391923e-06 2.1657779e-06)
(0 1.0562262e-05 -3.5781321e-06)
(0 2.7631445e-05 -9.1620881e-06)
(0 4.4229462e-05 -1.4501656e-05)
(0 6.0102487e-05 -1.9738032e-05)
(0 7.5018714e-05 -2.4799135e-05)
(0 8.8388506e-05 -2.9165029e-05)
(0 9.9645649e-05 -3.2721255e-05)
(0 0.00010878428 -3.5652883e-05)
(0 0.00011594144 -3.8026959e-05)
(0 0.00012117016 -3.9811401e-05)
(0 0 0)
(0 -3.6128755e-05 3.6340121e-05)
(0 -6.167025e-05 6.1964027e-05)
(0 -7.5752309e-05 7.6026842e-05)
(0 -8.1736964e-05 8.1910108e-05)
(0 -8.2553368e-05 8.2527282e-05)
(0 -8.0027858e-05 7.9710472e-05)
(0 -7.5065545e-05 7.444955e-05)
(0 -6.8213299e-05 6.7297007e-05)
(0 -5.9811323e-05 5.8653871e-05)
(0 -5.0129295e-05 4.8878729e-05)
(0 -3.9485758e-05 3.8366269e-05)
(0 -2.8131408e-05 2.7317448e-05)
(0 -1.6445834e-05 1.5829479e-05)
(0 -4.7745453e-06 4.1867122e-06)
(0 6.815722e-06 -7.3608279e-06)
(0 1.8270736e-05 -1.8659374e-05)
(0 2.9451939e-05 -2.9565893e-05)
(0 4.0259525e-05 -4.0055997e-05)
(0 5.0463182e-05 -4.993183e-05)
(0 5.9531525e-05 -5.8659977e-05)
(0 6.7083658e-05 -6.6017598e-05)
(0 7.3185934e-05 -7.2114149e-05)
(0 7.7942754e-05 -7.6995317e-05)
(0 8.1383342e-05 -8.0626134e-05)
(0 0 0)
(0 -1.8053141e-05 5.4381611e-05)
(0 -3.0679426e-05 9.258155e-05)
(0 -3.7647502e-05 0.00011334985)
(0 -4.0671616e-05 0.00012189841)
(0 -4.1183189e-05 0.00012264947)
(0 -4.0047644e-05 0.00011833797)
(0 -3.7669342e-05 0.00011046457)
(0 -3.4298469e-05 9.9865841e-05)
(0 -3.0096066e-05 8.7110656e-05)
(0 -2.521302e-05 7.2658456e-05)
(0 -1.985316e-05 5.6976977e-05)
(0 -1.4141874e-05 4.0437284e-05)
(0 -8.2376492e-06 2.3348111e-05)
(0 -2.3229593e-06 6.064486e-06)
(0 3.490453e-06 -1.1148924e-05)
(0 9.1360316e-06 -2.8065334e-05)
(0 1.4661837e-05 -4.4475247e-05)
(0 2.0153056e-05 -6.0121521e-05)
(0 2.5414673e-05 -7.4659691e-05)
(0 3.0014021e-05 -8.7585795e-05)
(0 3.3756712e-05 -9.8619127e-05)
(0 3.6744996e-05 -0.00010779655)
(0 3.9046035e-05 -0.00011512534)
(0 4.0666231e-05 -0.00012056229)
(0 0 0)
(0 1.7091897e-07 7.2823507e-05)
(0 2.163431e-07 0.0001228066)
(0 1.4525003e-07 0.00014931812)
(0 5.4339986e-09 0.00015989214)
(0 -1.7113649e-07 0.00016046558)
(0 -3.5138681e-07 0.00015457587)
(0 -4.6017262e-07 0.0001441574)
(0 -4.5988583e-07 0.00013028895)
(0 -3.4404243e-07 0.0001136773)
(0 -1.4318821e-07 9.4864977e-05)
(0 6.1879412e-08 7.4379014e-05)
(0 2.604746e-07 5.2722366e-05)
(0 4.7403374e-07 3.0355522e-05)
(0 6.6846577e-07 7.7040835e-06)
(0 7.3997769e-07 -1.4903135e-05)
(0 6.302711e-07 -3.7164545e-05)
(0 5.2868455e-07 -5.8781901e-05)
(0 6.7380895e-07 -7.9287334e-05)
(0 9.5620223e-07 -9.8206755e-05)
(0 1.0909535e-06 -0.00011507778)
(0 1.0271502e-06 -0.00012960868)
(0 8.7534246e-07 -0.00014175663)
(0 6.8526945e-07 -0.00015146227)
(0 4.5796273e-07 -0.00015865829)
(0 0 0)
(0 1.895123e-05 9.2690635e-05)
(0 3.0937133e-05 0.00015337177)
(0 3.7003444e-05 0.00018425304)
(0 3.9319257e-05 0.00019594568)
(0 3.9327882e-05 0.00019587038)
(0 3.7851923e-05 0.00018822211)
(0 3.537866e-05 0.00017525519)
(0 3.2190129e-05 0.00015822893)
(0 2.844069e-05 0.00013795697)
(0 2.4215984e-05 0.00011505791)
(0 1.955907e-05 9.0118132e-05)
(0 1.456252e-05 6.3725367e-05)
(0 9.3688946e-06 3.6436849e-05)
(0 4.0652845e-06 8.756824e-06)
(0 -1.3742679e-06 -1.8883103e-05)
(0 -6.942537e-06 -4.6077385e-05)
(0 -1.2365588e-05 -7.2415771e-05)
(0 -1.7339835e-05 -9.7313168e-05)
(0 -2.1874257e-05 -0.0001202423)
(0 -2.607385e-05 -0.00014075881)
(0 -2.9876823e-05 -0.00015854034)
(0 -3.3158914e-05 -0.00017345122)
(0 -3.5861413e-05 -0.00018536022)
(0 -3.7972188e-05 -0.00019416918)
(0 0 0)
(0 4.188304e-05 0.0001279742)
(0 6.4994922e-05 0.00020137553)
(0 7.5763146e-05 0.0002356916)
(0 7.9503984e-05 0.00024744263)
(0 7.9039394e-05 0.00024579567)
(0 7.5841229e-05 0.00023550884)
(0 7.0709072e-05 0.00021904804)
(0 6.4104359e-05 0.00019779037)
(0 5.6307476e-05 0.00017263547)
(0 4.7513792e-05 0.0001442836)
(0 3.7884911e-05 0.0001133899)
(0 2.7609531e-05 8.0615757e-05)
(0 1.6910809e-05 4.6609521e-05)
(0 5.9779087e-06 1.1986936e-05)
(0 -5.0812984e-06 -2.2667457e-05)
(0 -1.6137825e-05 -5.6785459e-05)
(0 -2.6886704e-05 -8.9800296e-05)
(0 -3.7015548e-05 -0.00012106836)
(0 -4.6408943e-05 -0.00015001268)
(0 -5.5003478e-05 -0.00017612978)
(0 -6.265403e-05 -0.00019900383)
(0 -6.9201195e-05 -0.000218348)
(0 -7.4541995e-05 -0.00023391724)
(0 -7.8628224e-05 -0.00024554215)
(0 0 0)
(0 -0.0001062125 -6.3617287e-05)
(0 -0.00016837686 -0.00010016222)
(0 -0.00019817266 -0.0001176292)
(0 -0.00020877921 -0.00012385952)
(0 -0.00020786345 -0.0001232927)
(0 -0.0001995634 -0.00011830036)
(0 -0.00018595041 -0.00011019182)
(0 -0.00016819343 -9.971396e-05)
(0 -0.00014705011 -8.7317254e-05)
(0 -0.00012310028 -7.3312716e-05)
(0 -9.6871576e-05 -5.7915303e-05)
(0 -6.8886266e-05 -4.1473261e-05)
(0 -3.9823828e-05 -2.4412366e-05)
(0 -1.0382232e-05 -6.997986e-06)
(0 1.9010111e-05 1.0464334e-05)
(0 4.7982463e-05 2.7582352e-05)
(0 7.5966232e-05 4.4072358e-05)
(0 0.00010249737 5.964082e-05)
(0 0.00012721978 7.4111039e-05)
(0 0.00014957768 8.742098e-05)
(0 0.0001689567 9.9284822e-05)
(0 0.00018512418 0.00010938381)
(0 0.00019805102 0.00011753243)
(0 0.00020769841 0.00012361808)
(0 0 0)
(0 -7.3576539e-05 -3.7137906e-05)
(0 -0.00012272047 -6.1559644e-05)
(0 -0.00014836884 -7.4277656e-05)
(0 -0.00015845435 -7.9306456e-05)
(0 -0.00015888878 -7.9532746e-05)
(0 -0.00015317346 -7.6629932e-05)
(0 -0.00014307061 -7.1594557e-05)
(0 -0.00012958179 -6.4992923e-05)
(0 -0.00011334753 -5.7137057e-05)
(0 -9.4839587e-05 -4.819214e-05)
(0 -7.4486746e-05 -3.8207309e-05)
(0 -5.2744721e-05 -2.7482674e-05)
(0 -3.0281769e-05 -1.6427094e-05)
(0 -7.7566342e-06 -5.1803394e-06)
(0 1.4636264e-05 6.1035847e-06)
(0 3.6767118e-05 1.712329e-05)
(0 5.8158603e-05 2.769194e-05)
(0 7.844684e-05 3.7576839e-05)
(0 9.7395215e-05 4.6717712e-05)
(0 0.00011444562 5.5254447e-05)
(0 0.00012895627 6.2948658e-05)
(0 0.00014082246 6.9482462e-05)
(0 0.00015018499 7.4716654e-05)
(0 0.00015710552 7.8585815e-05)
(0 0 0)
(0 -5.4221403e-05 -1.8238816e-05)
(0 -9.2321464e-05 -3.0906337e-05)
(0 -0.00011306462 -3.7754294e-05)
(0 -0.00012165091 -4.055842e-05)
(0 -0.00012253517 -4.0783286e-05)
(0 -0.00011849731 -3.9321816e-05)
(0 -0.00011093465 -3.675964e-05)
(0 -0.00010064586 -3.3431285e-05)
(0 -8.814361e-05 -2.9491817e-05)
(0 -7.3799032e-05 -2.4965075e-05)
(0 -5.7974281e-05 -1.9786522e-05)
(0 -4.108757e-05 -1.4180176e-05)
(0 -2.3739097e-05 -8.4637705e-06)
(0 -6.4388911e-06 -2.6840994e-06)
(0 1.0779543e-05 3.1450771e-06)
(0 2.7894191e-05 8.8517316e-06)
(0 4.4540335e-05 1.4311262e-05)
(0 6.0395136e-05 1.9339386e-05)
(0 7.5237799e-05 2.3940047e-05)
(0 8.855242e-05 2.8363057e-05)
(0 9.9758474e-05 3.2454939e-05)
(0 0.00010880806 3.5953928e-05)
(0 0.00011588902 3.8746406e-05)
(0 0.00012110708 4.0779264e-05)
(0 0 0)
(0 -3.5991055e-05 3.7265266e-08)
(0 -6.2001305e-05 5.8358062e-08)
(0 -7.6555681e-05 9.5105522e-08)
(0 -8.2806571e-05 1.3804025e-07)
(0 -8.3721612e-05 1.8454602e-07)
(0 -8.1202487e-05 2.4421674e-07)
(0 -7.6193113e-05 2.3694707e-07)
(0 -6.9241927e-05 1.0488526e-07)
(0 -6.0703674e-05 -1.2373679e-07)
(0 -5.0845989e-05 -3.4052539e-07)
(0 -3.9958668e-05 -3.8249166e-07)
(0 -2.8364263e-05 -3.3195746e-07)
(0 -1.6518416e-05 -3.3379659e-07)
(0 -4.7598566e-06 -3.3390844e-07)
(0 6.957047e-06 -2.7708381e-07)
(0 1.8668519e-05 -2.1790833e-07)
(0 3.0161911e-05 -2.1147813e-07)
(0 4.1176122e-05 -3.4627682e-07)
(0 5.1498317e-05 -5.4102287e-07)
(0 6.0688969e-05 -4.8097294e-07)
(0 6.8300946e-05 -2.0180375e-07)
(0 7.4346142e-05 1.0894075e-07)
(0 7.9013237e-05 3.5820158e-07)
(0 8.2419268e-05 4.9919018e-07)
(0 0 0)
(0 -1.7926463e-05 1.8191538e-05)
(0 -3.1024145e-05 3.1384417e-05)
(0 -3.8474081e-05 3.8798951e-05)
(0 -4.1786869e-05 4.1979519e-05)
(0 -4.2428697e-05 4.2406577e-05)
(0 -4.1328767e-05 4.1055753e-05)
(0 -3.8920311e-05 3.8406417e-05)
(0 -3.5462826e-05 3.4702937e-05)
(0 -3.1130314e-05 3.0166121e-05)
(0 -2.6078119e-05 2.5021603e-05)
(0 -2.0506258e-05 1.9513757e-05)
(0 -1.4581699e-05 1.3767968e-05)
(0 -8.5465636e-06 7.8649065e-06)
(0 -2.595086e-06 1.9300973e-06)
(0 3.3226863e-06 -3.9501427e-06)
(0 9.272653e-06 -9.7372123e-06)
(0 1.5208907e-05 -1.5397157e-05)
(0 2.1005034e-05 -2.0860477e-05)
(0 2.6473332e-05 -2.5957273e-05)
(0 3.1251365e-05 -3.0337776e-05)
(0 3.5070933e-05 -3.3926977e-05)
(0 3.8002816e-05 -3.6846779e-05)
(0 4.0200949e-05 -3.9169676e-05)
(0 4.1761068e-05 -4.0930103e-05)
(0 0 0)
(0 2.2978067e-07 3.6217366e-05)
(0 3.0348605e-07 6.2324178e-05)
(0 2.3707191e-07 7.6856679e-05)
(0 7.4923983e-08 8.3005838e-05)
(0 -1.5074113e-07 8.3735699e-05)
(0 -3.9591597e-07 8.0959443e-05)
(0 -5.7117946e-07 7.5703307e-05)
(0 -6.2934605e-07 6.851272e-05)
(0 -5.6041514e-07 5.9788158e-05)
(0 -3.9779778e-07 4.9856634e-05)
(0 -2.299395e-07 3.9036456e-05)
(0 -6.771752e-08 2.764784e-05)
(0 6.5050304e-08 1.5967422e-05)
(0 1.1520075e-07 4.1927959e-06)
(0 1.1380684e-07 -7.5405559e-06)
(0 1.2535731e-07 -1.9122505e-05)
(0 2.641467e-07 -3.042093e-05)
(0 6.0865317e-07 -4.1156398e-05)
(0 1.0411002e-06 -5.1036132e-05)
(0 1.2833851e-06 -5.9723082e-05)
(0 1.2317682e-06 -6.7084524e-05)
(0 9.9763818e-07 -7.3183503e-05)
(0 6.977464e-07 -7.8051939e-05)
(0 3.9662648e-07 -8.1692947e-05)
(0 0 0)
(0 1.847458e-05 5.4388753e-05)
(0 3.123661e-05 9.2582897e-05)
(0 3.8076923e-05 0.00011332329)
(0 4.0805581e-05 0.0001218475)
(0 4.0922415e-05 0.00012260061)
(0 3.9362284e-05 0.00011833197)
(0 3.669671e-05 0.00011054107)
(0 3.3259762e-05 0.00010004649)
(0 2.9229833e-05 8.7400294e-05)
(0 2.4696253e-05 7.3019956e-05)
(0 1.9698265e-05 5.7303529e-05)
(0 1.435055e-05 4.0693935e-05)
(0 8.7968693e-06 2.3593093e-05)
(0 3.1212475e-06 6.2914681e-06)
(0 -2.6387437e-06 -1.099289e-05)
(0 -8.4140301e-06 -2.8072885e-05)
(0 -1.3949819e-05 -4.4707512e-05)
(0 -1.8974084e-05 -6.0413285e-05)
(0 -2.35077e-05 -7.4796899e-05)
(0 -2.7714928e-05 -8.7559075e-05)
(0 -3.157077e-05 -9.8530544e-05)
(0 -3.4939216e-05 -0.00010770519)
(0 -3.7720152e-05 -0.00011504795)
(0 -3.9869788e-05 -0.00012052018)
(0 0 0)
(0 3.7317274e-05 7.3695834e-05)
(0 6.182664e-05 0.00012292823)
(0 7.4558324e-05 0.00014858376)
(0 7.955184e-05 0.00015861941)
(0 7.972511e-05 0.00015894276)
(0 7.6783934e-05 0.00015300663)
(0 7.1702328e-05 0.00014267826)
(0 6.5047634e-05 0.00012899193)
(0 5.7144867e-05 0.00011262256)
(0 4.8202271e-05 9.4075947e-05)
(0 3.8383429e-05 7.3825649e-05)
(0 2.7906908e-05 5.2386638e-05)
(0 1.7031896e-05 3.0242578e-05)
(0 5.9567494e-06 7.7833889e-06)
(0 -5.2186496e-06 -1.4659505e-05)
(0 -1.636662e-05 -3.6794283e-05)
(0 -2.714038e-05 -5.8252714e-05)
(0 -3.7166541e-05 -7.8461331e-05)
(0 -4.6366076e-05 -9.6993326e-05)
(0 -5.4768982e-05 -0.0001135411)
(0 -6.2247066e-05 -0.00012788464)
(0 -6.8632481e-05 -0.00013992782)
(0 -7.3818975e-05 -0.00014956862)
(0 -7.7762354e-05 -0.00015672935)
(0 0 0)
(0 6.3725935e-05 0.0001063046)
(0 0.00010033215 0.00016854142)
(0 0.00011782075 0.00019834214)
(0 0.00012404994 0.00020889672)
(0 0.00012347858 0.00020787465)
(0 0.00011849537 0.00019938099)
(0 0.00011039127 0.00018556826)
(0 9.9910572e-05 0.0001676356)
(0 8.7509975e-05 0.00014636581)
(0 7.3517221e-05 0.00012236061)
(0 5.822064e-05 9.6176507e-05)
(0 4.1936977e-05 6.8393124e-05)
(0 2.50114e-05 3.9576767e-05)
(0 7.7509313e-06 1.0243341e-05)
(0 -9.6139736e-06 -1.9119168e-05)
(0 -2.6830383e-05 -4.8046495e-05)
(0 -4.3503234e-05 -7.6033183e-05)
(0 -5.9223592e-05 -0.00010248897)
(0 -7.3777477e-05 -0.00012693196)
(0 -8.703487e-05 -0.00014896544)
(0 -9.8777015e-05 -0.0001682635)
(0 -0.00010878031 -0.00018458899)
(0 -0.00011688718 -0.00019773555)
(0 -0.00012301472 -0.00020755798)
(0 0 0)
(0 -8.4899148e-05 -8.4983925e-05)
(0 -0.00013460448 -0.00013474332)
(0 -0.00015861745 -0.00015874637)
(0 -0.00016730385 -0.00016736387)
(0 -0.00016673045 -0.00016664603)
(0 -0.00016019452 -0.0001598587)
(0 -0.00014937899 -0.00014880521)
(0 -0.00013521938 -0.00013450799)
(0 -0.00011832421 -0.00011759334)
(0 -9.9159163e-05 -9.8490284e-05)
(0 -7.8135668e-05 -7.7537258e-05)
(0 -5.5685593e-05 -5.5195006e-05)
(0 -3.2344961e-05 -3.2033651e-05)
(0 -8.6585498e-06 -8.5035322e-06)
(0 1.4988723e-05 1.503422e-05)
(0 3.8273664e-05 3.8123606e-05)