/*--------------------------------*- C++ -*----------------------------------*\
  =========                 |
  \\      /  F ield         | OpenFOAM: The Open Source CFD Toolbox
   \\    /   O peration     | Website:  https://openfoam.org
    \\  /    A nd           | Version:  8
     \\/     M anipulation  |
\*---------------------------------------------------------------------------*/
FoamFile
{
    version     2.0;
    format      ascii;
    class       surfaceScalarField;
    location    "0.0040000";
    object      meshPhi;
}
// * * * * * * * * * * * * * * * * * * * * * * * * * * * * * * * * * * * * * //

dimensions      [0 3 -1 0 0 0 0];

internalField   nonuniform List<scalar> 
1691
(
-7.2522567471013e-19
-6.05653064015957e-14
-1.43303858531256e-18
-6.02881747914433e-14
-2.12184519467403e-18
-5.98768865719094e-14
-2.79251719293226e-18
-5.94342846701617e-14
-3.44495602814796e-18
-5.89949826627304e-14
-4.07965854463709e-18
-5.85590552958812e-14
-4.69848785404696e-18
-5.81319901816643e-14
-5.30294525266594e-18
-5.77203801944803e-14
-5.89531804524791e-18
-5.7326947845541e-14
-6.47380843704584e-18
-5.69495974430279e-14
-7.04364543218438e-18
-5.65931915150085e-14
-7.61262958921208e-18
-5.6270945813828e-14
-8.18007548496883e-18
-5.59919994012825e-14
-8.75975120253007e-18
-5.5768730420743e-14
-9.35151097193636e-18
-5.55901305871736e-14
-9.90617826887576e-18
-5.54116841145486e-14
-1.0482542782776e-17
-5.5239109932784e-14
-1.1070765120579e-17
-5.50972184535636e-14
-1.1624265905565e-17
-5.49585639843173e-14
-1.22048689661901e-17
-5.48285305310614e-14
-1.2809587259748e-17
-5.47479661943065e-14
-1.34324952528246e-17
-5.47176478369174e-14
-1.40711870512911e-17
-5.47201730287935e-14
-1.47215524515298e-17
-5.47456216210645e-14
-1.53846870931801e-17
-5.47897929451568e-14
-1.60713378637307e-17
-5.4861620832458e-14
-1.67995382376893e-17
-5.49748065685895e-14
-1.75379992534391e-17
-5.51057791882187e-14
-1.82250585454335e-17
-5.52151980381008e-14
-1.8978979701039e-17
-5.5328473920013e-14
-1.97637307353315e-17
-5.54812931251774e-14
-2.05499309392525e-17
-5.56592874025897e-14
-2.13913584524947e-17
-5.58608081545341e-14
-2.22566570261982e-17
-5.6092901246813e-14
-2.31463308561895e-17
-5.63501348339891e-14
-2.40984257218297e-17
-5.66374325670944e-14
-2.50586995146059e-17
-5.69470577072389e-14
-2.60479395976559e-17
-5.72722317768619e-14
-2.71141676160962e-17
-5.76280159023329e-14
-2.81929846533972e-17
-5.80179515876306e-14
-2.93804876044214e-17
-5.84680787857473e-14
-3.0756674694961e-17
-5.9032603543603e-14
-3.21918830939746e-17
-5.96713493107886e-14
-3.34535702372317e-17
-6.02320423286232e-14
-3.45662200173387e-17
-6.06602199151881e-14
-3.59297116268655e-17
-6.1105948639727e-14
-3.74840633644685e-17
-6.16995278863393e-14
-3.912592301471e-17
-6.23962954427638e-14
-4.07975035723313e-17
-6.31561560212857e-14
-4.28806590422583e-17
-6.40637231744959e-14
-4.51078465060623e-17
-6.51279954405343e-14
-4.72334917269997e-17
-6.61886171570723e-14
-4.92114118236845e-17
-6.71302802106628e-14
-5.122773020107e-17
-6.79991569049488e-14
-5.34782887958577e-17
-6.89686639997895e-14
-5.64278569855213e-17
-7.02217662501792e-14
-5.9554738630931e-17
-7.17383811713411e-14
-6.2836944640624e-17
-7.337352828481e-14
-6.63203781362013e-17
-7.50689709292796e-14
-6.98805388584449e-17
-7.68265051092677e-14
-7.3854640419837e-17
-7.87272069757818e-14
-7.83864830939533e-17
-8.08353562604552e-14
-8.27399500777161e-17
-8.30402957515145e-14
-8.74924529910582e-17
-8.52943935172881e-14
-9.22548856075957e-17
-8.74411584887571e-14
-9.55882105028835e-17
-8.94049937259135e-14
-1.02782166441189e-16
-9.20962149874469e-14
-1.11872476994462e-16
-9.60290905785308e-14
-1.1920866193021e-16
-1.00165106355285e-13
-1.26568654918982e-16
-1.0381599930254e-13
-1.33859480968004e-16
-1.07202195769747e-13
-1.40919150850012e-16
-1.104766831462e-13
-1.48866649117566e-16
-1.13950263845576e-13
-1.5909979556139e-16
-1.18162792549652e-13
-1.6995109771737e-16
-1.22582815105632e-13
-1.75768287627868e-16
-1.273027083072e-13
-2.04491816173064e-16
-1.37105470567015e-13
-2.44154810244498e-16
-1.52228779617012e-13
-2.35384736848061e-16
-1.47530115324883e-13
-3.78206627561579e-17
-9.85769167289317e-14
2.04411024392825e-17
-4.20401955310194e-14
-4.57181064893484e-18
-2.65848958918909e-14
-6.34984555381283e-17
-4.41628589893272e-14
-9.9327555118278e-17
-6.68432540014722e-14
-1.23238339982997e-16
-8.36994612544104e-14
-1.53096813744991e-16
-9.64705725444904e-14
-1.4738245709811e-16
-1.04818524376878e-13
-1.37125685204917e-16
-1.07785239777536e-13
-1.26380387211153e-16
-1.08162700412436e-13
-1.11922638407798e-16
-1.0729226740404e-13
-9.82729218103862e-17
-1.05545425291155e-13
-8.5956167769184e-17
-1.03809535240184e-13
-7.32647477711302e-17
-1.01939295114865e-13
-6.00647266469173e-17
-9.9382390941306e-14
-4.8173864682224e-17
-9.66174326113284e-14
-3.78607155790022e-17
-9.47143977705668e-14
-2.85118451860136e-17
-9.41264153515513e-14
-1.90847090684411e-17
-9.40883352007539e-14
-9.40585368579507e-18
-9.41676373463142e-14
-9.46597104747838e-14
-1.87551030015071e-18
-1.14806863265693e-13
-3.73393306569647e-18
-1.14470291062828e-13
-5.57127635081874e-18
-1.14019053120593e-13
-7.38927366567314e-18
-1.13541943324438e-13
-9.18789037766668e-18
-1.13067794234075e-13
-1.09676762961516e-17
-1.12596740123271e-13
-1.27299586532255e-17
-1.12133625001826e-13
-1.44764800510066e-17
-1.11684274797367e-13
-1.62082600283793e-17
-1.11251106943295e-13
-1.79256585575025e-17
-1.10832270213307e-13
-1.96325004732985e-17
-1.10432065316719e-13
-2.13336732805104e-17
-1.10062171367277e-13
-2.30329830935243e-17
-1.09730680429287e-13
-2.47387658724147e-17
-1.09448474701316e-13
-2.64423517446686e-17
-1.09205727387823e-13
-2.81298695801801e-17
-1.08963136943616e-13
-2.98201153072038e-17
-1.08725797212142e-13
-3.15118627205821e-17
-1.08515576089889e-13
-3.31891640331431e-17
-1.0830824677685e-13
-3.48736753713979e-17
-1.08108654009478e-13
-3.65783158874105e-17
-1.07952820983724e-13
-3.82963099994834e-17
-1.07841321979438e-13
-4.00248280622852e-17
-1.07758803308312e-13
-4.17612842551514e-17
-1.07696530820945e-13
-4.35069576813196e-17
-1.0765077550778e-13
-4.52722371422095e-17
-1.07629432131523e-13
-4.7064673664924e-17
-1.07644577436373e-13
-4.88548328634054e-17
-1.07675361978915e-13
-5.06293396831845e-17
-1.07687091208064e-13
-5.24302409963078e-17
-1.07702249043509e-13
-5.42591890240701e-17
-1.07752277954568e-13
-5.61007196968008e-17
-1.07824441455257e-13
-5.79717228675156e-17
-1.07917321831179e-13
-5.98673513249186e-17
-1.08037139264685e-13
-6.17886681052312e-17
-1.0817908628239e-13
-6.37448269013874e-17
-1.08347496572305e-13
-6.57184930152974e-17
-1.08535490543695e-13
-6.77197979516807e-17
-1.08737083116745e-13
-6.97640076609577e-17
-1.08965600081995e-13
-7.18449658939882e-17
-1.09224202357933e-13
-7.40163027991892e-17
-1.09535843283284e-13
-7.63221830893516e-17
-1.09948078589291e-13
-7.86615181056441e-17
-1.10425416476424e-13
-8.08765782739631e-17
-1.108339743063e-13
-8.30203179210898e-17
-1.11125866940289e-13
-8.53009336172826e-17
-1.11433128956933e-13
-8.77549252743797e-17
-1.11870432292964e-13
-9.02764788566539e-17
-1.12398385326034e-13
-9.29071491641092e-17
-1.12981873699785e-13
-9.57827635701661e-17
-1.13695156337486e-13
-9.88009838020634e-17
-1.14545855480411e-13
-1.0174925803202e-16
-1.15393285737679e-13
-1.04597367467895e-16
-1.16136136372288e-13
-1.0746200814187e-16
-1.16814872641141e-13
-1.10600210655653e-16
-1.17582002894114e-13
-1.14175173252343e-16
-1.1859784746507e-13
-1.1800938580085e-16
-1.1984493999932e-13
-1.21976933485718e-16
-1.21196221684418e-13
-1.2608126375499e-16
-1.22600079967862e-13
-1.30331141727573e-16
-1.24058561325712e-13
-1.3492428936932e-16
-1.25642611299631e-13
-1.39836189298466e-16
-1.27407435387512e-13
-1.44837794536653e-16
-1.29257269420341e-13
-1.50051721343643e-16
-1.31151031315762e-13
-1.54947813609055e-16
-1.32950168109931e-13
-1.59852913537813e-16
-1.34590249427331e-13
-1.66864517180395e-16
-1.36865555286095e-13
-1.75345983313278e-16
-1.40223581186524e-13
-1.83221111752134e-16
-1.43763082695756e-13
-1.90681341115642e-16
-1.46881315219752e-13
-1.98093999593373e-16
-1.49764845827771e-13
-2.05502232919165e-16
-1.52550590340479e-13
-2.1377105734169e-16
-1.55516405978625e-13
-2.23631330823832e-16
-1.5911911604807e-13
-2.32825325765753e-16
-1.6289240220573e-13
-2.44157511896411e-16
-1.67045892075251e-13
-2.69474534391069e-16
-1.75656895536273e-13
-2.97574291158235e-16
-1.88594353039552e-13
-2.59639398959634e-16
-1.83355412531223e-13
-1.48355032113631e-16
-1.40967210469671e-13
-8.41165162250192e-17
-9.2781617310527e-14
-1.00352438472122e-16
-7.88620489213139e-14
-1.43834670329645e-16
-9.36324170272635e-14
-1.79077458659143e-16
-1.13248257190792e-13
-2.05090904660596e-16
-1.28059407261123e-13
-2.24965649903531e-16
-1.39118242517551e-13
-2.16971960411996e-16
-1.46319465420167e-13
-2.01621144866048e-16
-1.48969495350957e-13
-1.84581448449151e-16
-1.49281434327629e-13
-1.6585949056977e-16
-1.48497351053032e-13
-1.47180386862914e-16
-1.46972729683125e-13
-1.29254182138795e-16
-1.45418527727068e-13
-1.11228594568751e-16
-1.43735043915025e-13
-9.31800260912333e-17
-1.41487395583604e-13
-7.60740217426104e-17
-1.39078098782638e-13
-6.02499033030293e-17
-1.3739707140466e-13
-4.52045317125261e-17
-1.36860758891397e-13
-3.01039762910682e-17
-1.36818176889225e-13
-1.50823777559442e-17
-1.36847442190778e-13
-1.37181254920354e-13
-3.05234393043546e-18
-1.70283584505797e-13
-6.08534543486669e-18
-1.69871317109639e-13
-9.0957775669026e-18
-1.69367259559734e-13
-1.20850590141706e-17
-1.68842508162829e-13
-1.50531493717053e-17
-1.68320372712259e-13
-1.8000573992712e-17
-1.67801045635207e-13
-2.09284814818308e-17
-1.67288699895162e-13
-2.38384086540539e-17
-1.66788370074646e-13
-2.67312438940936e-17
-1.66302150656771e-13
-2.96073487043446e-17
-1.65828446074914e-13
-3.24700389765302e-17
-1.65370968120603e-13
-3.53235877067993e-17
-1.64939808370358e-13
-3.81713752875234e-17
-1.64541972953697e-13
-4.10206550770383e-17
-1.64186842214164e-13
-4.38638422691835e-17
-1.63865925131305e-13
-4.66888404280882e-17
-1.63545274683731e-13
-4.95120435489087e-17
-1.63229213290655e-13
-5.2332408347384e-17
-1.62936620772851e-13
-5.5135988313008e-17
-1.62646594956996e-13
-5.7941740747337e-17
-1.6236327879552e-13
-6.07609259291138e-17
-1.62117817341294e-13
-6.35876282279921e-17
-1.6191074628563e-13
-6.64193690285591e-17
-1.61728771228167e-13
-6.92538994730888e-17
-1.61564326389136e-13
-7.20923164080814e-17
-1.61414182583802e-13
-7.49437035884594e-17
-1.61285126735989e-13
-7.78146463511072e-17
-1.61187584086272e-13
-8.0679432410539e-17
-1.61103597184874e-13
-8.352637867678e-17
-1.61003168905193e-13
-8.6392184748159e-17
-1.60905633369991e-13
-8.92783247878887e-17
-1.60838199174851e-13
-9.21712749322548e-17
-1.60789928743635e-13
-9.50857767581174e-17
-1.60759526229139e-13
-9.8017570516888e-17
-1.60752309436807e-13
-1.00967614779817e-16
-1.6076416403108e-13
-1.0394389688663e-16
-1.60798878077834e-13
-1.06931243881296e-16
-1.60850526585696e-13
-1.09938510819299e-16
-1.60913908456059e-13
-1.12978990738757e-16
-1.61000454140068e-13
-1.16047308155417e-16
-1.61112829469411e-13
-1.19190254788166e-16
-1.61270842763226e-13
-1.22446231816484e-16
-1.61515570623115e-13
-1.25727216572477e-16
-1.61816536201894e-13
-1.28895770876519e-16
-1.62058367481616e-13
-1.31997701491652e-16
-1.62199436860481e-13
-1.35214585043363e-16
-1.62353357751488e-13
-1.38578465459863e-16
-1.62619322157635e-13
-1.41996938811161e-16
-1.62963520563617e-13
-1.45506308533212e-16
-1.63355437513775e-13
-1.49224485212159e-16
-1.63858932987558e-13
-1.5306272331399e-16
-1.64480857609958e-13
-1.56836090265889e-16
-1.65100251522957e-13
-1.6051775200843e-16
-1.65629485159548e-13
-1.64209321986184e-16
-1.6610308324079e-13
-1.68134616154092e-16
-1.66652369594077e-13
-1.72435097961345e-16
-1.67415420198762e-13
-1.76957500443028e-16
-1.68377567827141e-13
-1.81591521191271e-16
-1.69429561430895e-13
-1.86339921819476e-16
-1.70526651514136e-13
-1.91210843009423e-16
-1.71670372043856e-13
-1.96375364789787e-16
-1.729217383416e-13
-2.01811918315553e-16
-1.74328615434216e-13
-2.07323463878851e-16
-1.75808716909087e-13
-2.13015202552992e-16
-1.77326538579281e-13
-2.18425099002514e-16
-1.7876224518817e-13
-2.2383895586841e-16
-1.80058983859143e-13
-2.31073246573301e-16
-1.81900752387179e-13
-2.39579204668268e-16
-1.8467455825324e-13
-2.475614235883e-16
-1.87605214636391e-13
-2.55177450621744e-16
-1.90173641944258e-13
-2.62744530919821e-16
-1.92539625846109e-13
-2.70305483824484e-16
-1.94820436855137e-13
-2.78613788384886e-16
-1.97254392158171e-13
-2.88278726413667e-16
-2.00235490419332e-13
-2.97362543685553e-16
-2.03362124631455e-13
-3.08458730812666e-16
-2.06798537802661e-13
-3.31498866936832e-16
-2.14039561879337e-13
-3.56619963846597e-16
-2.25013116536206e-13
-3.23494423803049e-16
-2.20443571702047e-13
-2.30447441201313e-16
-1.84028878987638e-13
-1.7584721223524e-16
-1.42596368699348e-13
-1.9041285854863e-16
-1.30505462213559e-13
-2.28835667030922e-16
-1.43035799298125e-13
-2.60576452784861e-16
-1.59748928765563e-13
-2.84369305952382e-16
-1.72345111455397e-13
-3.01330995284502e-16
-1.81726583538755e-13
-2.86857938558725e-16
-1.87881944588596e-13
-2.65970517868852e-16
-1.90142311139078e-13
-2.43544979337814e-16
-1.90400853320252e-13
-2.1973047765802e-16
-1.89719177263048e-13
-1.95928434826339e-16
-1.88402203267037e-13
-1.72762306559964e-16
-1.87060093723275e-13
-1.49525587720468e-16
-1.85607606172532e-13
-1.26298257576873e-16
-1.83672497750426e-13
-1.03880673063406e-16
-1.81599375215965e-13
-8.25661453721754e-17
-1.80150941718816e-13
-6.19363899254879e-17
-1.79685164721348e-13
-4.12611932460874e-17
-1.7964361094572e-13
-2.06520594485174e-17
-1.79664659210344e-13
-1.79938871368575e-13
-4.25521748442894e-18
-2.2696635524064e-13
-8.48834373078867e-18
-2.26463077561134e-13
-1.26967969881948e-17
-2.25894094251664e-13
-1.68817462658358e-17
-2.2530919790424e-13
-2.10431845758405e-17
-2.2472653154967e-13
-2.51815397737076e-17
-2.24146369175143e-13
-2.9297804183152e-17
-2.2357218959776e-13
-3.33933066914007e-17
-2.23008198492278e-13
-3.74688088156972e-17
-2.22456172786546e-13
-4.15246104318376e-17
-2.2191478040637e-13
-4.55635686885333e-17
-2.21387107766182e-13
-4.95893344638323e-17
-2.20881627628047e-13
-5.36047832922005e-17
-2.20404227454835e-13
-5.76161007740178e-17
-2.19962775816125e-13
-6.16169006186925e-17
-2.19550240234786e-13
-6.55967949138014e-17
-2.19138120168066e-13
-6.95697355832419e-17
-2.18729881579793e-13
-7.35349049383674e-17
-2.18341397095094e-13
-7.74803637345046e-17
-2.17955135387125e-13
-8.14222499161588e-17
-2.17574452105334e-13
-8.53702468513798e-17
-2.17225569110366e-13
-8.93193011183176e-17
-2.16909058221574e-13
-9.32672781509642e-17
-2.16613716759898e-13
-9.72122694435623e-17
-2.16333146510197e-13
-1.01155201714353e-16
-2.16064625046753e-13
-1.0510377683304e-16
-2.15813794385815e-13
-1.09063651656165e-16
-2.15589418734101e-13
-1.1301297339939e-16
-2.15376541218382e-13
-1.16941643236441e-16
-2.15149899666568e-13
-1.20880935678017e-16
-2.14925557933436e-13
-1.24832232935305e-16
-2.14726475041151e-13
-1.28783987527134e-16
-2.14543586387061e-13
-1.32748660254304e-16
-2.14375685582242e-13
-1.3672262446022e-16
-2.14227141810292e-13
-1.40706734556165e-16
-2.14094544655313e-13
-1.44707879830762e-16
-2.13981194440714e-13
-1.487131333827e-16
-2.1388218944849e-13
-1.52729933928863e-16
-2.13793070533574e-13
-1.56769537892133e-16
-2.13723289437919e-13
-1.60827293079342e-16
-2.13674983031513e-13
-1.64943081442765e-16
-2.1366473493516e-13
-1.69149751879905e-16
-2.13727170231717e-13
-1.73372658641104e-16
-2.13837093639321e-13
-1.77494655906945e-16
-2.13897819296826e-13
-1.81553976937257e-16
-2.13873817254227e-13
-1.85705347272837e-16
-2.13859977341116e-13
-1.89976660992119e-16
-2.13939969735053e-13
-1.94289087875467e-16
-2.14085750495089e-13
-1.98673059940481e-16
-2.14271345285755e-13
-2.03228987563061e-16
-2.14550075407415e-13
-2.07882104233458e-16
-2.14928189716017e-13
-2.12475044495312e-16
-2.15304691138706e-13
-2.16984164406782e-16
-2.15605698572134e-13
-2.21495745421475e-16
-2.15859628995005e-13
-2.26199933021146e-16
-2.161762950634e-13
-2.31217251241371e-16
-2.16671443675545e-13
-2.36418269164738e-16
-2.17333385043606e-13
-2.41708769633148e-16
-2.18070839106908e-13
-2.47090741431734e-16
-2.18845983656163e-13
-2.52570770813794e-16
-2.19659798129642e-13
-2.58294306712051e-16
-2.20563239534705e-13
-2.64243966851399e-16
-2.21596823265393e-13
-2.70251917885444e-16
-2.22691958266164e-13
-2.76407415036734e-16
-2.23818676816483e-13
-2.82316184361541e-16
-2.24875944264493e-13
-2.88218550153087e-16
-2.25814679209091e-13
-2.95661236565162e-16
-2.27207672288523e-13
-3.04180728757556e-16
-2.2938117400721e-13
-3.12250663131467e-16
-2.31687248353199e-13
-3.20004008572815e-16
-2.33690672162312e-13
-3.27708601972613e-16
-2.35524181053854e-13
-3.35400894548991e-16
-2.37285413650462e-13
-3.4371807654027e-16
-2.39172843046374e-13
-3.53183723519519e-16
-2.41517286788093e-13
-3.62144688501765e-16
-2.43982444504807e-13
-3.72757248380544e-16
-2.46688835474531e-13
-3.93458647974696e-16
-2.52547078137088e-13
-4.16013092415538e-16
-2.61543820671152e-13
-3.89336341427201e-16
-2.57644213149517e-13
-3.11867356870623e-16
-2.2719616480113e-13
-2.66795768512548e-16
-1.9249402340489e-13
-2.80277646226654e-16
-1.82217739292189e-13
-3.14028305014915e-16
-1.92497118024892e-13
-3.42138123781019e-16
-2.06291764132214e-13
-3.6349927509732e-16
-2.16654398976071e-13
-3.77796558004552e-16
-2.24347183172862e-13
-3.56758342925215e-16
-2.2946791805439e-13
-3.30301013477589e-16
-2.31344522778742e-13
-3.02544292959714e-16
-2.31553937032785e-13
-2.73612425516044e-16
-2.30979123175916e-13
-2.44693565112886e-16
-2.2987410288775e-13
-2.16315403008288e-16
-2.28748462652121e-13
-1.8788004997267e-16
-2.27531212211043e-13
-1.59455350493231e-16
-2.2591208420908e-13
-1.31717450566056e-16
-2.24178065078114e-13
-1.04915261604477e-16
-2.22965102741574e-13
-7.86946191004597e-17
-2.22572217775896e-13
-5.2436793476318e-17
-2.2253362128326e-13
-2.62362164304477e-17
-2.22548181806766e-13
-2.22763556900907e-13
-5.48353419431679e-18
-2.84827578660419e-13
-1.0941720665414e-17
-2.84218780466476e-13
-1.63726257968121e-17
-2.83573381826924e-13
-2.17771341170981e-17
-2.82916383226017e-13
-2.71552612848608e-17
-2.82261194717336e-13
-3.25073715138852e-17
-2.81608166925895e-13
-3.7834278646999e-17
-2.80960071869432e-13
-4.31370962992675e-17
-2.80320262010375e-13
-4.84164508869992e-17
-2.79690194481906e-13
-5.36726143214263e-17
-2.79068806097292e-13
-5.89079094273345e-17
-2.78458537156419e-13
-6.41253700507962e-17
-2.77866212731113e-13
-6.93273722324577e-17
-2.77296574197242e-13
-7.4519030685733e-17
-2.76755963843255e-13
-7.96951152168708e-17
-2.76238873300934e-13
-8.48470731210118e-17
-2.75722338569749e-13
-8.99863211833019e-17
-2.75208940517008e-13
-9.51122512265525e-17
-2.74711509287092e-13
-1.00214988043339e-16
-2.74215933062155e-13
-1.05307763687631e-16
-2.73724744723269e-13
-1.10398688558797e-16
-2.73259168514345e-13
-1.15483613309092e-16
-2.72819837999078e-13
-1.20560730711225e-16
-2.72397683877214e-13
-1.25628472281201e-16
-2.71987489066933e-13
-1.30687589297559e-16
-2.71587047058702e-13
-1.3574437923699e-16
-2.71200836270899e-13
-1.40803589744508e-16
-2.70835939529389e-13
-1.45847280317266e-16
-2.70480463061731e-13
-1.50866950269899e-16
-2.70113949697349e-13
-1.55888329698752e-16
-2.69749128178752e-13
-1.60912764746061e-16
-2.69404647771022e-13
-1.65930702187911e-16
-2.69073353985087e-13
-1.70952281461755e-16
-2.68754134069184e-13
-1.75974492380929e-16
-2.68450392120197e-13
-1.80998110799146e-16
-2.68159421759908e-13
-1.8602895810552e-16
-2.67884044563278e-13
-1.91056370099404e-16
-2.67620420831908e-13
-1.9608633091765e-16
-2.67364828485526e-13
-2.01128014048611e-16
-2.67124702836908e-13
-2.06177490630533e-16
-2.6690164925333e-13
-2.11267598583652e-16
-2.66708960719643e-13
-2.16425725843032e-16
-2.66574759984698e-13
-2.21590862757477e-16
-2.66479263676836e-13
-2.26666226439684e-16
-2.66344663078103e-13
-2.31682339635057e-16
-2.66141576238074e-13
-2.36766736131384e-16
-2.65945954793656e-13
-2.41943233628362e-16
-2.65825742372479e-13
-2.47146769221452e-16
-2.65758755091183e-13
-2.52401691945766e-16
-2.65723620627903e-13
-2.57790861080227e-16
-2.65763017595119e-13
-2.63253707958459e-16
-2.65882600664261e-13
-2.68660639764612e-16
-2.66001502971003e-13
-2.73991323281482e-16
-2.66059791014038e-13
-2.79316380911808e-16
-2.66079737902194e-13
-2.8479192243565e-16
-2.6614936997819e-13
-2.9051759147393e-16
-2.66361947607953e-13
-2.96387921413144e-16
-2.66708773274614e-13
-3.02324993787965e-16
-2.67116668245305e-13
-3.08330061867265e-16
-2.67554877183817e-13
-3.14408107896848e-16
-2.68023853147006e-13
-3.20678702424126e-16
-2.68564386650559e-13
-3.27128710462725e-16
-2.69209521657431e-13
-3.33619928948348e-16
-2.69904521100996e-13
-3.40225238369132e-16
-2.70624985881013e-13
-3.46619025947755e-16
-2.71288936151724e-13
-3.52996175508745e-16
-2.71855505822193e-13
-3.60630761533022e-16
-2.72785145560815e-13
-3.69145753209088e-16
-2.74342537423446e-13
-3.77285939757305e-16
-2.76008174698013e-13
-3.85158722901257e-16
-2.77431212418673e-13
-3.92983014038288e-16
-2.78717219532941e-13
-4.00788549716898e-16
-2.79944261691009e-13
-4.09095876727634e-16
-2.81270784723146e-13
-4.18341457428021e-16
-2.82963669177455e-13
-4.27160484710056e-16
-2.84752830074626e-13
-4.37279109243674e-16
-2.86719974877253e-13
-4.55626992242583e-16
-2.91189226663152e-13
-4.75587460405034e-16
-2.98193554815677e-13
-4.5535422506594e-16
-2.949417713228e-13
-3.93440268775101e-16
-2.70448475206013e-13
-3.57884933974955e-16
-2.42475334599425e-13
-3.70270529867896e-16
-2.34010166250669e-13
-3.99323636842103e-16
-2.42026111113059e-13
-4.23769991409568e-16
-2.52884558381683e-13
-4.42669893362289e-16
-2.60997182784705e-13
-4.54285150078257e-16
-2.6698978921966e-13
-4.26691814818641e-16
-2.71084190230897e-13
-3.94667598552382e-16
-2.72581384158482e-13
-3.61581960329981e-16
-2.72744607886386e-13
-3.27534348916815e-16
-2.72279850541468e-13
-2.9349910575045e-16
-2.71390281321549e-13
-2.59908379193557e-16
-2.70484415796148e-13
-2.26272669824807e-16
-2.69505653462329e-13
-1.92647385018013e-16
-2.68205661816809e-13
-1.59585258261925e-16
-2.66813781652584e-13
-1.2729056378019e-16
-2.6583907552723e-13
-9.54732670009596e-17
-2.65521363087698e-13
-6.36265047570295e-17
-2.65487699664283e-13
-3.18276076921872e-17
-2.65497320413155e-13
-2.65654561250999e-13
-6.73670843788355e-18
-3.43840761057885e-13
-1.34443843232723e-17
-3.43112684603503e-13
-2.01216314402222e-17
-3.42379955092451e-13
-2.67690861069659e-17
-3.41639409830069e-13
-3.3386781449353e-17
-3.40900230727108e-13
-3.99750185151486e-17
-3.40162809627827e-13
-4.65344308537248e-17
-3.39429208677874e-13
-5.30658841727865e-17
-3.38701917150294e-13
-5.95699015704289e-17
-3.37982062457053e-13
-6.60466768280605e-17
-3.37268852898546e-13
-7.24980354576029e-17
-3.36564078370549e-13
-7.89263665948482e-17
-3.35872889853165e-13
-8.53335222290468e-17
-3.35198861076572e-13
-9.17235063863596e-17
-3.34546788275478e-13
-9.80923430752794e-17
-3.33912693966552e-13
-1.04433257887864e-16
-3.33279238239866e-13
-1.10755125751688e-16
-3.32648145854094e-13
-1.17057581639418e-16
-3.32029154738545e-13
-1.23332792543561e-16
-3.31411621435394e-13
-1.29591068103999e-16
-3.30797271785173e-13
-1.35838902315016e-16
-3.30202232097622e-13
-1.42073057756722e-16
-3.29627170487527e-13
-1.48292097693663e-16
-3.29065199888208e-13
-1.54494767313094e-16
-3.2851231436433e-13
-1.60681662971042e-16
-3.27966834819725e-13
-1.668576486257e-16
-3.27432075089879e-13
-1.73026528665708e-16
-3.26913407533517e-13
-1.79174367490782e-16
-3.26402017490843e-13
-1.85294275946629e-16
-3.2588235121349e-13
-1.91406361954222e-16
-3.2536379576889e-13
-1.97511911558793e-16
-3.24860589712147e-13
-2.03603408843704e-16
-3.24367485979177e-13
-2.09688651175947e-16
-3.23883504218273e-13
-2.1576526939939e-16
-3.23411097791945e-13
-2.21833921774609e-16
-3.22948256868333e-13
-2.2789935286093e-16
-3.22497283635139e-13
-2.33953224063539e-16
-3.22055403737258e-13
-2.40000011359705e-16
-3.21619666796793e-13
-2.46046825864107e-16
-3.21195502150821e-13
-2.5209046056212e-16
-3.20784009877718e-13
-2.58156604017035e-16
-3.20395147279885e-13
-2.64267135104036e-16
-3.20050403909293e-13
-2.70374792145257e-16
-3.19735391461323e-13
-2.7640341506161e-16
-3.19391390153693e-13
-2.82375869791745e-16
-3.18995424198914e-13
-2.88392130277559e-16
-3.18604382654167e-13
-2.94471759697146e-16
-3.18270126875796e-13
-3.0056370219198e-16
-3.17976327501477e-13
-3.06686220679956e-16
-3.1770639125771e-13
-3.12904436738582e-16
-3.1749229043771e-13
-3.19171983541235e-16
-3.17338931175921e-13
-3.25387321322196e-16
-3.17185679651129e-13
-3.31533709999808e-16
-3.16986861133806e-13
-3.37665924775242e-16
-3.16758699159126e-13
-3.4390570415511e-16
-3.16567236250078e-13
-3.50331660393918e-16
-3.16483006253925e-13
-3.56862253666447e-16
-3.16500155656475e-13
-3.63436156725169e-16
-3.16563708683501e-13
-3.70054001157886e-16
-3.1665017596786e-13
-3.76719210175466e-16
-3.16759580641799e-13
-3.83525202595091e-16
-3.1692247579505e-13
-3.90462905071178e-16
-3.17164213097862e-13
-3.97424211227373e-16
-3.17443972451569e-13
-4.04465347548296e-16
-3.17743037699429e-13
-4.11330572607836e-16
-3.17998905415066e-13
-4.1816969631119e-16
-3.18179561855049e-13
-4.25980556393029e-16
-3.18631920354829e-13
-4.34473037643818e-16
-3.19557779212479e-13
-4.42665638625309e-16
-3.20567034182982e-13
-4.5063974147606e-16
-3.21394106051114e-13
-4.58565783811381e-16
-3.22117473718711e-13
-4.66466555363437e-16
-3.22795690614868e-13
-4.74745916477685e-16
-3.23547133634918e-13
-4.83750560542864e-16
-3.24573781471913e-13
-4.92409346176968e-16
-3.25672570559491e-13
-5.02031403429922e-16
-3.26892732459338e-13
-5.18021649462103e-16
-3.29971294596851e-13
-5.35349907004078e-16
-3.34970038221127e-13
-5.2151336980038e-16
-3.32335421083488e-13
-4.75144143368758e-16
-3.13773095147644e-13
-4.49117607978617e-16
-2.92528364872865e-13
-4.6040357387725e-16
-2.85879963290585e-13
-4.84730664681152e-16
-2.91624937831896e-13
-5.05481435056e-16
-2.99529764550952e-13
-5.21893440237202e-16
-3.05375476011514e-13
-5.30805107608027e-16
-3.09655944958763e-13
-4.96663514878473e-16
-3.12731576332346e-13
-4.59074220644981e-16
-3.13853222102869e-13
-4.20660262919192e-16
-3.13973074047735e-13
-3.81497791563405e-16
-3.1362149304e-13
-3.42345914908295e-16
-3.1295082542708e-13
-3.03541337011853e-16
-3.12268028931641e-13
-2.64703163944133e-16
-3.11530957420266e-13
-2.25874167395124e-16
-3.10553199516989e-13
-1.87483947768255e-16
-3.09506472209017e-13
-1.49691874860376e-16
-3.08772810540389e-13
-1.12272212783287e-16
-3.08532548075543e-13
-7.48302457402528e-17
-3.08505775479146e-13
-3.74261687525557e-17
-3.08512003669207e-13
-3.08611830190392e-13
-8.01423655385069e-18
-4.03980464666238e-13
-1.5995267187414e-17
-4.03120056449369e-13
-2.39422438998505e-17
-4.02289615083925e-13
-3.18555532368321e-17
-4.01454560804211e-13
-3.97352449166155e-17
-4.00620417695051e-13
-4.75815296432782e-17
-3.99787550649187e-13
-5.53948868153606e-17
-3.9895731671427e-13
-6.31759165850595e-17
-3.98131347700008e-13
-7.09250092527179e-17
-3.97310423911073e-13
-7.86423104475653e-17
-3.96494024314098e-13
-8.63291168874963e-17
-3.95683301419464e-13
-9.3987174479322e-17
-3.94881708178986e-13
-1.01617777405445e-16
-3.94091635553349e-13
-1.09223856328009e-16
-3.93316308268447e-13
-1.16802612122154e-16
-3.92553226383718e-13
-1.24349120290485e-16
-3.91790758205464e-13
-1.3186971451384e-16
-3.91029859581734e-13
-1.39364210578533e-16
-3.90277114682549e-13
-1.46826905116398e-16
-3.89525394346637e-13
-1.5426514597149e-16
-3.88775684559339e-13
-1.616837409305e-16
-3.88038893398243e-13
-1.69080388550851e-16
-3.87315639662185e-13
-1.76453998147451e-16
-3.86601270824521e-13
-1.83803676268064e-16
-3.85893041463166e-13
-1.91129844772386e-16
-3.85189813623342e-13
-1.98435945938541e-16
-3.84493752184412e-13
-2.05724791327837e-16
-3.83808484130358e-13
-2.1298646281257e-16
-3.83128244065718e-13
-2.2021580572775e-16
-3.82442502079663e-13
-2.27427227166599e-16
-3.81757356968003e-13
-2.34621867658639e-16
-3.81082501688681e-13
-2.41794307336231e-16
-3.80414550942121e-13
-2.48950000109561e-16
-3.79752726000708e-13
-2.56087234932188e-16
-3.7909857577698e-13
-2.63206546657394e-16
-3.78450776530492e-13
-2.70311503753654e-16
-3.77811020737688e-13
-2.7739613940191e-16
-3.77177560019868e-13
-2.84463465626651e-16
-3.76548291666892e-13
-2.9151853277518e-16
-3.75926701300447e-13
-2.98558921242234e-16
-3.75313434697135e-13
-3.05603058538218e-16
-3.74715098220652e-13
-3.12667110459362e-16
-3.74146337925295e-13
-3.19717574197168e-16
-3.73597982156391e-13
-3.26699291796121e-16
-3.73030638810778e-13
-3.33627768641349e-16
-3.72428200580006e-13
-3.40575014501969e-16
-3.71828459231026e-13
-3.47555927614772e-16
-3.71266706476731e-13
-3.5453371518035e-16
-3.707323496109e-13
-3.61520749876213e-16
-3.70213860493677e-13
-3.68564128807125e-16
-3.69732488593515e-13
-3.7563146357023e-16
-3.6929207658193e-13
-3.82649617715452e-16
-3.68852270298071e-13
-3.89605867018028e-16
-3.68382050878446e-13
-3.96539094011637e-16
-3.67891811338354e-13
-4.03536418119217e-16
-3.6742552633358e-13
-4.10655001335155e-16
-3.67030669656452e-13
-4.17837068054497e-16
-3.66703918857789e-13
-4.25038230811901e-16
-3.66408582827416e-13
-4.32258659988338e-16
-3.6612867411317e-13
-4.39500386408447e-16
-3.65863948549593e-13
-4.46830413031127e-16
-3.65634708978466e-13
-4.5424329379697e-16
-3.65458310260684e-13
-4.61661408489987e-16
-3.65307775018653e-13
-4.69124358821979e-16
-3.65170278382478e-13
-4.76447633962095e-16
-3.65003382746415e-13
-4.83736620690335e-16
-3.64784671949879e-13
-4.91709133289871e-16
-3.64746423730094e-13
-5.00161259904545e-16
-3.6502579798955e-13
-5.08387953914194e-16
-3.65362632952954e-13
-5.16445041391041e-16
-3.65577918351767e-13
-5.24454649007731e-16
-3.65723357057493e-13
-5.3243261626529e-16
-3.65837998082685e-13
-5.40666404527491e-16