/*--------------------------------*- C++ -*----------------------------------*\
  =========                 |
  \\      /  F ield         | OpenFOAM: The Open Source CFD Toolbox
   \\    /   O peration     | Website:  https://openfoam.org
    \\  /    A nd           | Version:  8
     \\/     M anipulation  |
\*---------------------------------------------------------------------------*/
FoamFile
{
    version     2.0;
    format      ascii;
    class       surfaceVectorField;
    location    "0.0040000";
    object      Uf_0;
}
// * * * * * * * * * * * * * * * * * * * * * * * * * * * * * * * * * * * * * //

dimensions      [0 1 -1 0 0 0 0];

internalField   nonuniform List<vector> 
1094
(
(0.687881399976121 0.000445782237281979 5.42596561244712e-18)
(0.458510383378702 0.00146394073597574 4.97164877587178e-18)
(0.688446847285106 0.000308767835838801 1.1220569603298e-17)
(0.460893046179192 0.00159925286775969 1.58926800536341e-17)
(0.688965255611837 0.000285334141204117 1.2785978306688e-17)
(0.461628106107253 0.00165495815101598 3.03242818727684e-17)
(0.689341093766174 0.000311025496426542 -1.05411730437267e-18)
(0.462261290091584 0.00177282333119657 2.01013879409594e-17)
(0.689621572450893 0.000327224050515508 -1.00261561156423e-17)
(0.462709116975138 0.00185288289051185 -7.24330204936033e-18)
(0.689862196326953 0.000335110392107391 3.26743027276818e-18)
(0.463046483186407 0.0018931508756915 -8.41912152466093e-18)
(0.690090546340017 0.000339082056869822 9.84937392430606e-18)
(0.463345488935652 0.00190938298519108 5.71804814537063e-18)
(0.690319111731506 0.000342290972980398 1.95391734092861e-17)
(0.463638498119257 0.00191592477627679 4.36635673472104e-18)
(0.690552732907349 0.00034543441211627 1.93360865824862e-17)
(0.463937034998352 0.00192020288742749 2.38135951365249e-17)
(0.690791901086285 0.000347729277945211 2.78963613838783e-18)
(0.464244703730943 0.00192304905407499 7.45480362752136e-18)
(0.691037354354815 0.000349193148408063 -3.03909907772909e-18)
(0.464562422019806 0.00192425134536174 -1.75475443431065e-18)
(0.691290738472962 0.000350461827121803 -2.42316616512801e-18)
(0.464891374125509 0.00192486411304716 -1.29054179571032e-17)
(0.691553056651272 0.000351571427393112 1.44302528430413e-17)
(0.465232472326639 0.00192555778030898 -3.92113800449305e-18)
(0.691822872813444 0.000352786130411134 -1.29281335724021e-17)
(0.46558542653111 0.00192571802556148 1.53645523301821e-17)
(0.692099279643948 0.000354628972149546 -4.21337752952884e-17)
(0.465950409593333 0.00192653808264676 -3.03347933897176e-17)
(0.692383442677819 0.000356188965815391 -5.33886128704752e-17)
(0.46632674967834 0.00192826163719501 -3.73004804915599e-17)
(0.692675616632759 0.000356995469358824 -5.30597092300141e-17)
(0.466715374434087 0.00192840198613092 -7.96471069367606e-17)
(0.692976145735344 0.000358251271630675 -1.40336974241771e-17)
(0.46711792535102 0.00192819179210361 -4.84097668780455e-17)
(0.693284794586828 0.000360054024881916 1.71842844892912e-17)
(0.46753378374655 0.00192937795747754 1.03272727323999e-17)
(0.693601619181377 0.000361233542970343 3.93802613818272e-17)
(0.46796306267087 0.00193042526468469 6.64928484185413e-17)
(0.693927893083495 0.000361919393628134 2.79430343242357e-17)
(0.468406642162674 0.00192999707863684 9.96425382707697e-17)
(0.694264520566135 0.00036314166824185 5.27467577306886e-19)
(0.46886679374935 0.00192973844189119 1.59667940296824e-17)
(0.694611836350058 0.00036436329708162 1.39639660490734e-18)
(0.469343290671687 0.001930607905775 -1.67842824253677e-17)
(0.694969682635673 0.000365160924076065 -2.75456616254444e-18)
(0.469836074924247 0.00193028191599202 -5.59403369261124e-17)
(0.695338476440983 0.00036650803705366 -1.96667574594574e-17)
(0.470347737685897 0.00192995910485196 -4.30057909734494e-17)
(0.695719672937027 0.000367912382601118 1.74233578672981e-17)
(0.470877643477425 0.00193108928858161 -5.13542839151641e-17)
(0.696113417334642 0.000368812859706971 5.87841412260149e-17)
(0.471427079859751 0.00193089679925415 4.03274352738448e-17)
(0.696519751173134 0.000370088263269816 7.60109535797501e-17)
(0.471998332499528 0.00193055269524611 1.04434960375968e-16)
(0.696940017411287 0.000371460235041322 1.40469606694451e-16)
(0.472590317627704 0.00193127485937399 2.52390258318646e-16)
(0.697376371299994 0.000372374177332524 1.00421478263968e-16)
(0.473205928565941 0.00193122722347165 2.50912925695118e-16)
(0.697827946846552 0.00037373110704086 4.15972247934074e-17)
(0.473847201947317 0.00193069054848068 1.44308361067665e-16)
(0.698293962695563 0.000376009099001276 1.0817834597498e-17)
(0.474513222823253 0.00193163393595844 1.62665510150959e-16)
(0.698777174675225 0.000377889332292594 3.93751168461114e-17)
(0.475205633325844 0.0019336373142702 2.27370036140731e-17)
(0.699277925076163 0.000378935411216215 6.73369363413855e-17)
(0.47592652386426 0.00193347004570017 1.4038669030465e-16)
(0.699797954955059 0.000380547432985009 -5.07608654169894e-18)
(0.476678123550815 0.00193289605555268 -9.82805391229799e-19)
(0.70034093572772 0.00038252972518177 -3.47706630061683e-17)
(0.477463049276606 0.00193434299398321 -3.41603409808454e-17)
(0.700905502635117 0.000384072653217765 -4.79922622831077e-17)
(0.478283144456683 0.00193470313424853 -1.05470110260352e-16)
(0.701492217256408 0.000386030825667845 -3.56889259212423e-17)
(0.47913947108769 0.00193460584663854 -8.86082693639444e-17)
(0.702104435906098 0.000388626675032389 -2.15178832513989e-17)
(0.480034731800035 0.00193609438327795 -5.21806459242623e-17)
(0.702743962478506 0.000390825407643727 1.72628236137585e-17)
(0.480972447251249 0.00193778414611831 -3.7583310370034e-17)
(0.703410377685385 0.000392871050589984 3.31367041545742e-17)
(0.481954345539371 0.00193790847309227 1.08643973719461e-16)
(0.704106022600007 0.000396046653386061 -5.53081616717491e-17)
(0.482983022802026 0.00193879273229197 3.68221452193364e-17)
(0.704836739506853 0.000399176295406291 -1.48158081755522e-16)
(0.484063536921199 0.00194222009882248 -1.32431090027738e-16)
(0.705600812265932 0.000401402381841097 -9.70856329183366e-17)
(0.485198984976259 0.00194277270831503 -2.22727596813435e-16)
(0.706400945444823 0.00040484180510449 1.45184227232493e-19)
(0.486391922344416 0.00194297639772792 -3.86039642473677e-17)
(0.707243984995403 0.000409208665820983 1.45065704870461e-16)
(0.487649202559321 0.00194708962951364 3.75342624227982e-17)
(0.708127606562893 0.000412774170519411 4.42722457168608e-17)
(0.488974468853627 0.00194973920728434 3.35628272997686e-16)
(0.709054178822577 0.000416647074862885 -7.61872563742799e-17)
(0.490369635691823 0.00195080630872002 -1.63308940679426e-16)
(0.710032158134984 0.000421605153460617 -1.47898220024265e-18)
(0.491843471953205 0.00195404389056591 -4.86512978201423e-17)
(0.711066835344051 0.000425762742521568 -3.7959568174603e-17)
(0.493404227816323 0.00195809466623845 -5.04272206865372e-17)
(0.712158839407189 0.000429544773560007 -2.89550094567331e-17)
(0.495056529421941 0.00195834939593782 -1.06655341837171e-16)
(0.713311716528998 0.000436123859147741 -7.14595390440343e-18)
(0.496808893656424 0.00196032374470561 -9.82084017895868e-18)
(0.714535097348279 0.000442625521240099 4.25436617261228e-17)
(0.498668955877466 0.00196865101732881 -2.19174791465624e-17)
(0.715829654968361 0.000446757517851425 4.69571995263128e-17)
(0.50064433205643 0.00196971742200497 1.92830554505692e-16)
(0.71720315811352 0.00045317658319739 7.12073941557658e-17)
(0.5027476827999 0.00196951914773647 8.76143530276056e-17)
(0.718669596302189 0.000460695499204487 1.19760854746101e-17)
(0.504991284206763 0.00197691684588115 2.00369263335076e-16)
(0.720231337702415 0.000465819087898579 -7.71806787214243e-17)
(0.507387568807703 0.00197906035358373 -6.1542975767352e-17)
(0.721895269935058 0.000471698112190267 -3.50831825190886e-17)
(0.509949419071913 0.00197751892443279 1.48426474204008e-17)
(0.723676091589734 0.000479619388101076 -1.66267573450051e-17)
(0.512692992294645 0.00198058565260592 -5.93721982549704e-17)
(0.725586714939617 0.000485563306342624 1.78786387519466e-19)
(0.515638232521454 0.00198390659765493 -5.09211501458394e-18)
(0.727632977678928 0.000490010816228873 -1.74451603652386e-17)
(0.518802574821927 0.00197901526690673 9.86917015389493e-18)
(0.729827000810648 0.000498015365323407 7.19815288786667e-17)
(0.522207701559596 0.00197524736435788 -8.35935604926897e-17)
(0.732192964824082 0.000504482537933322 1.23844137545592e-16)
(0.525878110347071 0.00197917739102692 2.13859346226464e-16)
(0.734741962728346 0.000505880567809846 8.47080979876674e-17)
(0.529840763956036 0.00196805340246171 1.28700696509043e-16)
(0.737495336172793 0.000509131254254071 5.0906323805113e-17)
(0.534132010555602 0.00195284331074432 2.05134741962065e-16)
(0.740489549788434 0.000511305516301889 -7.20779962234147e-17)
(0.538785166298024 0.00194404041396541 2.10705577476292e-18)
(0.743747954517679 0.000509053736825253 -6.71128593043072e-17)
(0.543847635863643 0.0019215242840178 -1.6095152382084e-16)
(0.747275817610518 0.000507878576333572 -4.79198202127026e-17)
(0.549368349818039 0.0018941672218391 1.5117698868334e-16)
(0.751097560565843 0.000505033078084837 -9.3059160534127e-17)
(0.55536549732242 0.00186931966576532 -8.48943724869562e-17)
(0.75527665556967 0.000493940694550473 -7.20258401989297e-17)
(0.561910921892765 0.00183039750325778 -1.61545341065327e-16)
(0.759865451335332 0.000477482395869671 -4.65989201545239e-17)
(0.569100581231609 0.00177295895751415 -1.23715746375636e-16)
(0.764908621393213 0.000458584268578348 2.32081337884992e-17)
(0.577004104133944 0.00170893797226881 -6.485381001908e-17)
(0.770464794126928 0.000432735059803109 2.66369447685699e-17)
(0.585709384206007 0.0016336644577154 1.56572572245534e-16)
(0.776603027773023 0.000399194790625129 -8.31824043678038e-18)
(0.595329954711803 0.00153671744466443 -4.7123719710013e-17)
(0.783410408509601 0.000356901796109206 -6.66829812155797e-17)
(0.60599303348003 0.00142363409950927 1.39623948907837e-17)
(0.790987940212746 0.000304115735638542 -7.86607048451633e-17)
(0.6178589856582 0.00128336155468484 -1.88853061755185e-16)
(0.79945790226601 0.000242280390814709 -2.42750290713402e-17)
(0.631096556777105 0.00111832951362817 -3.90655946336152e-17)
(0.808996298624018 0.000170152634923344 -5.49182441029893e-18)
(0.646000867401536 0.000926619295229973 -5.65202996384181e-17)
(0.819767537536801 7.80517887729873e-05 4.03325485172071e-17)
(0.662724567245955 0.000697920403917911 3.31335034479805e-17)
(0.832096627644795 -1.64054886145669e-05 8.0626668486156e-17)
(0.681944329163083 0.000416008711235954 5.79925232287161e-17)
(0.846197975017301 -0.000125140194859631 3.28642153938891e-17)
(0.703498904371943 0.000123863010201582 1.3131555078765e-16)
(0.862863577172134 -0.00021795220349078 -1.38260926420363e-17)
(0.729531589371962 -0.000241541858332023 -6.02415326938341e-17)
(0.882110419635638 -0.000389890966298701 1.84533121100216e-17)
(0.757757701101924 -0.000619519449091612 3.37990647291506e-18)
(0.906286748128894 -0.000396761334005822 1.02631745110758e-17)
(0.796265897089253 -0.00119515929544019 4.52889938569489e-17)
(0.934412782967403 -0.000587840936978832 -2.32086523849162e-17)
(0.833260395413219 -0.00148951410066306 -2.64631786867603e-17)
(0.969676096109034 0.000137853563408079 -1.42901582122686e-17)
(0.900508932145844 -0.00206830442078587 -2.81377143611615e-17)
(0.964458814812804 4.03005529166973e-05 -2.9567646654308e-18)
(0.923891385703479 9.77319330864947e-06 7.84538548521127e-18)
(0.96294860411856 3.33911213849928e-05 -1.06854726157991e-18)
(0.908616701566718 -0.000305593685058989 -1.93225502831208e-17)
(0.959554604006513 -3.42830885080903e-05 3.12306820461853e-18)
(0.909062795119988 -0.000234246237193038 6.62789737417896e-18)
(0.956620996533971 -6.88346177336223e-05 -5.30497468089866e-18)
(0.901656048762762 -0.000319424680855383 -2.54881122837105e-18)
(0.953227801311449 -0.000110888296049011 -1.09851621315623e-17)
(0.897268095877616 -0.000322726904340546 -1.86908934077742e-17)
(0.949889873421679 -0.000139374366387944 -5.69605650779711e-18)
(0.891194761369435 -0.000354377477950703 -1.72594827379397e-17)
(0.94647319022597 -0.000165880608514281 -2.6047273439586e-18)
(0.885726609784174 -0.000363378325957895 2.40426318788602e-18)
(0.94313301244898 -0.000183826681387351 -3.86516556924117e-18)
(0.879985056649318 -0.000370250698293953 -8.89438047983582e-18)
(0.939864512726338 -0.00019298681600466 8.94836044237971e-20)
(0.874489355552621 -0.000371704011174302 -2.6552797027708e-18)
(0.936761346674602 -0.00019635575430476 -4.89388149561895e-19)
(0.869156123433202 -0.000362491008846683 3.00111102497267e-18)
(0.933890539240215 -0.00019328080757138 -1.0949362845572e-18)
(0.864169058652514 -0.000336540989444735 -3.13625659215101e-18)
(0.93127504424115 -0.000182687617828888 1.7748092400803e-19)
(0.859589671503483 -0.000316707884004237 -1.12185046592004e-18)
(0.929112348945483 -0.000120848435571092 -2.52236135515884e-20)
(0.855443895592369 -0.000294642765449887 6.22142819983154e-20)
(0.852777511861246 -0.000188367179859241 -1.93179903117714e-19)
(0.229333241468942 0.00283663865715842 1.55195360813781e-17)
(0.0758217487373322 0.00439375230403171 1.32378670804202e-17)
(0.231120543054157 0.00325685820846661 3.51656518541599e-17)
(0.079432443355243 0.00477094857382856 2.63484392398141e-17)
(0.232287478998974 0.00354837740881599 3.7765536407743e-17)
(0.0805181535070577 0.00532298041349759 4.28474011165744e-17)
(0.23302714225039 0.0037654467047126 1.39447778406396e-17)
(0.0813441334089641 0.00577319676071772 3.70104863351735e-17)
(0.233543539674876 0.00388725074601138 -5.61341938965409e-18)
(0.0819114297591209 0.00602776676454582 -6.76073981172054e-19)
(0.233966622434031 0.00394317139435218 -5.99226414382122e-18)
(0.0823427244297989 0.0061451011362105 -1.6855331152035e-17)
(0.23436022272382 0.00396526316866908 1.78226933508151e-19)
(0.0827292425609748 0.00619038130244047 -7.7295286349512e-18)
(0.234752773086903 0.00397404251572758 8.62067791392003e-18)
(0.0831104997604159 0.00620482735703404 -2.4378126436592e-18)
(0.235156204999773 0.00397833424082389 1.18573671609779e-17)
(0.0835015724683744 0.0062087748376766 1.14913879708774e-17)
(0.235573622239597 0.00398036563532417 2.89149875051488e-18)
(0.0839078574281613 0.00620890426122978 1.07341515017702e-17)
(0.236005328356965 0.00398104476670671 -1.16910024631542e-17)
(0.0843302263623373 0.00620689038756965 -2.25862867205154e-18)
(0.236452247667013 0.00398126835505262 -1.44471983518821e-17)
(0.0847691002537856 0.00620398255270684 -3.48530959543882e-17)
(0.236915281110339 0.00398120071252146 -3.03526577412727e-18)
(0.0852254334271985 0.00620081451168338 -1.23432405896109e-17)
(0.23739390085515 0.00398119238379005 -2.08790451530321e-18)
(0.085699389433178 0.00619722288512132 -3.99981458930019e-18)
(0.237888734847025 0.00398178867943848 -2.5432535947533e-17)
(0.0861913460680102 0.00619406542319537 -2.4419106776364e-17)
(0.23840136913195 0.00398195138542897 -6.37068509412184e-17)
(0.0867024592190377 0.00619127777762451 -5.27010591400775e-17)
(0.238931418379497 0.0039811366879252 -7.50336101098681e-17)
(0.0872334474810693 0.00618710121473183 -9.74930238027044e-17)
(0.23947934697124 0.00398066589355006 -2.39600345776961e-17)
(0.0877845914616506 0.00618236845449862 -9.93268174619415e-17)
(0.240046889851323 0.00398064021100944 5.99741084195357e-17)
(0.0883569768436033 0.00617848638363283 2.95735914911805e-17)
(0.24063475844762 0.00397972183582287 1.27250779277575e-16)
(0.0889520585365252 0.00617424515995432 5.42302042359967e-17)
(0.241243105342625 0.00397803581874597 8.77423596936656e-17)
(0.0895701983950243 0.00616848552063109 6.25908954860455e-17)
(0.24187342139958 0.00397677216507666 -1.43468585663852e-18)
(0.0902125360059113 0.00616254513213793 9.6457646330915e-18)
(0.242527593774381 0.00397534450939909 -7.45635968075916e-17)
(0.0908807896822944 0.00615714666730242 -2.51892633298935e-17)
(0.243205536357323 0.00397327887012036 -9.65785939794797e-17)
(0.0915757932614052 0.0061506056508248 -1.31377502731343e-16)
(0.243908469308216 0.00397173273069172 -7.49585325946977e-17)
(0.0922987073823829 0.00614382182184745 -8.23953036716751e-17)
(0.244639076204956 0.00397008968999342 -2.84102183382887e-17)
(0.0930513529337861 0.00613779157541453 -1.2708748658079e-16)
(0.245397596907569 0.00396761443276286 8.6265381757011e-17)
(0.0938354394958397 0.00613046153253866 3.13106965775586e-18)
(0.246185166439837 0.00396537490539102 2.82079303055618e-16)
(0.0946521185215554 0.00612262241796347 1.73082565018876e-16)
(0.247004556874322 0.00396307901550448 3.63755020613768e-16)
(0.0955029980147832 0.00611525665666852 3.90325739275007e-16)
(0.247857311110183 0.00396002684547939 2.952991304482e-16)
(0.0963908678681668 0.00610684502324184 3.62805121033376e-16)
(0.248744141639097 0.00395736721286386 2.66329889934737e-16)
(0.0973171423051385 0.00609772448955547 2.54678669239746e-16)
(0.249667539374976 0.00395578491196929 1.74831794448478e-16)
(0.098283404580951 0.00608968704389365 2.12164328037811e-16)
(0.250630855322162 0.00395339875257796 1.24420369861308e-16)
(0.0992934060773387 0.00608201055075754 1.35276114841701e-16)
(0.251634697754448 0.00394948652935241 7.16657873588357e-17)
(0.100349238962818 0.00607195995119613 1.94905136137232e-16)
(0.252681716840081 0.00394607708473794 -3.02610727749456e-17)
(0.101452432752304 0.00606099882213675 -3.30168324561665e-17)
(0.253776879758611 0.00394288985986387 -1.05337231110296e-16)
(0.102607411314532 0.00605112628975814 -6.00400114866125e-17)
(0.2549213601191 0.00393872379542202 -1.4638903320925e-16)
(0.103817765046717 0.0060399616909178 -9.18908937026299e-17)
(0.256117440030002 0.00393486471453852 -1.05231229834873e-16)
(0.105085191166742 0.00602780538027189 -4.2402478637272e-17)
(0.257370416590328 0.00393162140235811 -6.83619184723723e-17)
(0.106414140071168 0.00601648198281724 -9.69130114714656e-17)
(0.258684115922651 0.00392735865945248 5.44042708538095e-17)
(0.107810216909152 0.00600467324943022 -1.01950034827629e-16)
(0.26006042684463 0.00392240379091094 1.12354100775234e-16)
(0.109276262262229 0.00599074504550397 2.5627717278126e-16)
(0.261504708153097 0.00391878318909416 -4.08300089430614e-17)
(0.110816124333344 0.00597695572230637 8.70910035631456e-17)
(0.263024690394313 0.00391456633709261 -2.07504492103663e-16)
(0.112438005078518 0.00596443790634591 -1.51414460946138e-16)
(0.264622115050702 0.00390831533986481 -1.638028804349e-16)
(0.114147054107712 0.00594857312414764 -2.37079345049087e-16)
(0.266302526529438 0.00390348634464996 -9.42965059813541e-19)
(0.115946432702983 0.00593150118766441 -5.54972387767781e-17)
(0.26807627800722 0.00389950855569861 2.29449917644415e-16)
(0.117846377564908 0.00591697166186335 4.42361225103084e-17)
(0.26994722666841 0.00389343969279349 1.26408174279672e-16)
(0.119855364792719 0.00590032692950879 3.18099304310153e-16)
(0.27192117222406 0.00388709692466385 -1.35501629918704e-16)
(0.121977560503647 0.00588087120784561 -1.86234757855056e-16)
(0.274010218592687 0.00388169871188473 -9.78763701620873e-17)
(0.124223754922581 0.0058622015579062 -7.93521447560601e-17)
(0.276224626818788 0.00387396926951535 -1.19571661517974e-16)
(0.126607448152537 0.00584278327373731 -9.36631597179694e-17)
(0.278570011911459 0.00386453068077107 -8.72777775410909e-17)
(0.12913616871556 0.00581816115909223 -1.27197403372107e-16)
(0.281058779657618 0.00385875826845783 -2.46887747282501e-17)
(0.131820208706127 0.00579412865967027 -6.3715914011247e-18)
(0.283709099193408 0.00385154976875974 1.29514112779162e-16)
(0.134678969828303 0.00577415893425664 -6.848524917233e-17)
(0.286527646387704 0.00383874648119655 2.33479705943104e-16)
(0.137725836101207 0.00574526907381612 3.18874495186846e-16)
(0.289529585564274 0.00382836975838049 2.17636148506615e-16)
(0.140971497521889 0.00571292578594554 2.47051182754089e-16)
(0.292740241202748 0.00381813793458067 1.25896736551248e-16)
(0.14444067209848 0.00568550774771616 3.37056767101908e-16)
(0.296172881219685 0.00380163798065395 3.10871299773251e-17)
(0.148156241403157 0.00565055325645299 1.18677259398645e-16)
(0.299844915967949 0.00378426907370785 -9.75508619413603e-18)
(0.152133017228409 0.00560868242084064 1.34003345441913e-16)
(0.303786249103266 0.0037681299968753 -4.76293496617331e-17)
(0.156398410033373 0.00556847697112294 -4.07927090764576e-17)
(0.308024588859658 0.0037456590547835 4.68488763137339e-18)
(0.160988321405549 0.00552476585998648 -8.90613073095699e-17)
(0.31258085080609 0.00371736290960565 -5.6855062370103e-17)
(0.165927795428583 0.00546853791990878 2.76641871426085e-17)
(0.317490297455328 0.00369211538404466 5.98965075749086e-17)
(0.171247091975477 0.00540982493102434 -3.75595788948702e-17)
(0.322800581164171 0.00366013298931212 2.18403560530282e-16)
(0.176999002483423 0.00535331920755147 2.94298217758111e-16)
(0.328541323116659 0.00361441759215632 2.49860562845979e-16)
(0.183225498439653 0.00527589782116279 2.45749257404986e-16)
(0.334759734351808 0.00356719201886787 1.55280079844123e-16)
(0.189965722526814 0.00518786252492443 2.8271061256343e-16)
(0.341523724858982 0.00351249166691135 -8.78120885740848e-17)
(0.197288000918812 0.00509900611174388 1.44645283699626e-18)
(0.348885996292073 0.00344331586211191 5.95531732878464e-17)
(0.205261842182641 0.00498830694868845 -2.10508585546081e-16)
(0.356905393590396 0.00336891613857714 1.12840449543646e-16)
(0.213952150781688 0.00486409053427736 3.26792014118559e-16)
(0.365665996250237 0.00328323729218122 -1.53997576694767e-16)
(0.223437800438646 0.00473305746563885 -5.10087128883255e-17)
(0.375265277073899 0.0031729141588937 -2.13135045076715e-16)
(0.23382786338033 0.00457473184383871 -2.07290985345422e-16)
(0.385804373949736 0.00304198914986328 -1.4163271653378e-16)
(0.245231643673248 0.00438348533686836 -1.3524338845199e-16)
(0.397407644612716 0.00289431169994381 7.03201969315211e-17)
(0.257770704907669 0.00417094335631397 -1.34917336260164e-16)
(0.410220867273673 0.00271969808999916 8.11671289784424e-17)
(0.271604613129392 0.00392984051847025 2.22268698362648e-16)
(0.424407555726931 0.00251435384725832 -2.43216612902577e-17)
(0.286909300021301 0.00364712272139884 -1.00674437410835e-16)
(0.440172058219374 0.00227363804227033 -1.10112384644966e-16)
(0.303887976220274 0.00332447561695591 3.35184035293907e-17)
(0.457751065057005 0.00199104783538894 -1.47832073713793e-16)
(0.322805247716993 0.00294785503647238 -2.06824205049528e-16)
(0.477444149431335 0.00166534150724843 -7.15125760716683e-17)
(0.34392053537724 0.00251638492128923 -7.41701694486418e-17)
(0.499631664697337 0.00128799956151976 -1.6902633839341e-17)
(0.367717189896852 0.00202169977848043 -1.14612155085877e-16)
(0.524764068898422 0.000836348129479567 5.10923547379849e-17)
(0.39445076165915 0.00144869436707534 6.68607360775002e-17)
(0.553444601624819 0.000331679389800445 1.0962505128755e-16)
(0.425170657936263 0.000768140456478348 4.67877344766784e-17)
(0.586514576244677 -0.000256378803921505 3.55065379062192e-17)
(0.459615239040763 3.25304527172955e-05 1.38023817409866e-16)
(0.625125312601535 -0.000900886001859964 -4.20160981047626e-17)
(0.501277729618322 -0.000871097335124199 -1.2262199472266e-16)
(0.670725556418504 -0.00177816934398266 3.09280148048457e-17)
(0.546527004670814 -0.00183741378568063 6.71939256633556e-18)
(0.725757865151663 -0.00251275330783442 7.13701707418872e-18)
(0.608004407507777 -0.00319767234633569 6.6991295358077e-17)
(0.793991487172571 -0.00351252166823613 -3.14060059163373e-17)
(0.667085848159548 -0.00421647591673183 -5.312944536217e-17)
(0.868868613107538 -0.00143620847451593 -5.60444639268067e-18)
(0.774285378165086 -0.00555072365870185 -1.88723326320739e-17)
(0.863258827257335 -0.000253676502984341 -8.57733435918376e-18)
(0.811765589083149 -2.01377812884558e-05 1.59890398689692e-17)
(0.857194255666167 -0.000237943756103159 -1.15450438385134e-17)
(0.787295998827544 -0.000386090134357987 -3.85688886048734e-17)
(0.850264612902552 -0.000327964083867149 9.33116585938426e-19)
(0.787878699367044 -0.000311022147144132 4.90802972373273e-18)
(0.842832764548025 -0.000355791399343983 -1.59759592345305e-17)
(0.775957198193832 -0.000411050286616759 -5.17982414643841e-18)
(0.835055135411842 -0.000399728853803306 -2.49582705849737e-17)
(0.76884219571146 -0.000420182856936827 -2.93051775074992e-17)
(0.827106374414926 -0.000422152057621891 -9.10292479545799e-18)
(0.759068929887078 -0.000458356331188182 -2.64806677856186e-17)
(0.819132813923049 -0.000441647963732222 -3.91728988305923e-18)
(0.750251505070845 -0.00047063471633823 4.8005981753095e-18)
(0.811277126893142 -0.000449266568372866 -7.67010999344262e-18)
(0.741026520762694 -0.000479366432423393 -1.00325802095843e-17)
(0.803631001330855 -0.000444928654810734 2.7135273404229e-19)
(0.732193209094161 -0.000480742924058088 -8.94869881813125e-18)
(0.796370011948073 -0.000429390895596692 3.40949205604277e-19)
(0.723584407646352 -0.000468129424545816 5.95650944896331e-18)
(0.789668301965233 -0.000405479201140596 -3.16136868022578e-18)
(0.715584019180373 -0.000435885097690798 -6.3189431457653e-18)
(0.783545310826673 -0.000375564061393853 -1.23651458789455e-18)
(0.708276077900823 -0.000409858805063902 -2.23533776991221e-18)
(0.77839418366976 -0.000262997258712773 -1.06845119623194e-19)
(0.701512505464669 -0.00038636751790832 1.24236746203996e-19)
(0.69624279533846 -0.000224526078232204 -3.07820462502891e-19)
(-0.0751434324044312 0.00637773815298555 2.41422614914325e-17)
(-0.153941061045654 0.00717231271622097 2.20064605038457e-17)
(-0.0732137885020629 0.00696787326739727 3.40567932682375e-17)
(-0.151279544264652 0.00775049110850827 3.1599317022789e-17)
(-0.0721006016590235 0.00773516263124377 4.21050277959566e-17)
(-0.150641995547472 0.00894352108704549 3.52188895496113e-17)
(-0.0714326571880395 0.00823568198874087 2.23597842144069e-17)
(-0.150149944666494 0.00973710786469064 4.2011326469579e-17)
(-0.0709554251535396 0.00849008608110109 -1.19864204767003e-17)
(-0.149768285387869 0.0101405383397523 -5.06489272324183e-18)
(-0.0705471336046439 0.00859967154440629 -1.86425688808765e-17)
(-0.149433801532565 0.0103165519642049 -3.90043790799786e-17)
(-0.0701551436086557 0.00863951744315615 -1.03914169741685e-17)
(-0.149104776418327 0.0103820815555739 -1.91296483411544e-17)
(-0.0697574416016839 0.00865106819429655 4.18774363103523e-19)
(-0.148765783482674 0.0104010725846503 -1.3781139243024e-17)
(-0.0693448616943684 0.00865264133250472 1.03586071197647e-17)
(-0.148411484896569 0.0104034761818933 6.74422218485245e-18)
(-0.0689146483360771 0.00865043741220579 5.56969292150701e-18)
(-0.148039702352521 0.0104002834629716 1.94352590812962e-17)
(-0.068466421284298 0.00864655140077081 -2.55638890600188e-17)
(-0.147650135443519 0.0103947818345592 7.15977909966458e-18)
(-0.0679995394680756 0.00864200090235871 -3.27924127377143e-17)
(-0.147242580016679 0.0103883223582845 -3.44003682705303e-17)
(-0.0675132303615563 0.00863703337887048 -1.33408779014497e-17)
(-0.146816273369308 0.01038142488245 -1.43806657368624e-17)
(-0.0670072446456956 0.00863194355787806 -2.64989419712571e-17)
(-0.146370726616998 0.0103740371850893 -7.89268207058171e-18)
(-0.066480494283142 0.00862706254541794 -5.18827725025019e-17)
(-0.145905228175264 0.0103666679382108 -1.71499302515989e-17)
(-0.065931564251031 0.00862159098725631 -8.67033955386764e-17)
(-0.145418377251297 0.0103592184068845 -6.26812790972117e-17)
(-0.0653603668345372 0.00861511387074835 -1.22015499810365e-16)
(-0.144909424618929 0.0103505560808066 -1.32397247061555e-16)
(-0.0647661796952622 0.00860858001689268 -4.55865557232918e-17)
(-0.144378079409696 0.0103411732340405 -1.13729964912155e-16)
(-0.0641471097537787 0.00860205990899865 2.37204282096412e-17)
(-0.143822969405502 0.0103319621618198 3.1595254714681e-18)
(-0.063502112675927 0.00859452692460327 -1.10458147196638e-17)
(-0.143242473216822 0.0103221322654467 -3.62762325990488e-17)
(-0.0628308349276263 0.00858604395862036 -1.61094111348402e-17)
(-0.142636080327901 0.0103108929867543 -4.5013638674175e-17)
(-0.0621317205158237 0.0085774968707206 -1.42542686991591e-17)
(-0.142002887488135 0.010299092034025 -7.72254654073772e-18)
(-0.0614027605277271 0.00856847044045897 -8.23092861848662e-17)
(-0.141340974021417 0.0102872031400692 -9.90220414413635e-18)
(-0.0606433261821683 0.00855861686339862 -1.1715671338935e-16)
(-0.140649110581994 0.0102741398788654 -9.07062045544004e-17)
(-0.0598518052469132 0.00854876220370522 -1.3489935469315e-16)
(-0.139926234507186 0.0102604606634363 -8.73731343434778e-17)
(-0.0590255737044766 0.00853842252954832 -9.54824158920272e-17)
(-0.139170122872261 0.0102467916776149 -1.77544668138486e-16)
(-0.0581636796105674 0.00852701663813895 9.04260049004828e-17)
(-0.138378956211219 0.0102317551325289 -4.64043760539464e-17)
(-0.0572644659591875 0.00851531629542215 2.81925650232275e-16)
(-0.137551564284315 0.0102158207368026 7.29238837377506e-17)
(-0.0563250356257481 0.00850308321344957 3.89402751112163e-16)
(-0.136685704259238 0.0101996326557121 3.59377797340294e-16)
(-0.0553435892725581 0.00848978325403376 3.21984673905335e-16)
(-0.135778831432434 0.0101821522148293 3.43689401475286e-16)
(-0.0543184023608703 0.00847634589518009 2.0013140085651e-16)
(-0.134829385447851 0.0101635918150358 1.93306347078942e-16)
(-0.0532459492357249 0.00846325142071216 1.72374453108181e-16)
(-0.133834836915525 0.0101451846218427 1.16283986887269e-16)
(-0.0521227094242611 0.00844889451605221 2.06248362249836e-16)
(-0.132791148317411 0.0101263511089231 2.07786855424927e-16)
(-0.0509473239814115 0.00843264443166813 8.96016321315682e-17)
(-0.131696065081823 0.0101050829020676 1.79877577691592e-16)
(-0.0497167298711582 0.00841609236129221 -6.29986919523687e-17)
(-0.130547936925055 0.0100823589365369 -1.12141331477715e-16)
(-0.0484258691232231 0.0083990375092792 -4.64809662064919e-17)
(-0.129342305178733 0.0100595879723949 -8.72371483338494e-17)
(-0.0470720261204851 0.00838049237588441 1.28162298073747e-17)
(-0.128075111546987 0.0100350651838124 3.94946804281871e-17)
(-0.0456518339396965 0.00836143201996918 -3.40126299194131e-17)