/*--------------------------------*- C++ -*----------------------------------*\
| =========                 |                                                 |
| \\      /  F ield         | OpenFOAM: The Open Source CFD Toolbox           |
|  \\    /   O peration     | Version:  4.1                                   |
|   \\  /    A nd           | Web:      www.OpenFOAM.org                      |
|    \\/     M anipulation  |                                                 |
\*---------------------------------------------------------------------------*/
FoamFile
{
    version     2.0;
    format      ascii;
    class       volVectorField;
    location    "0.0034";
    object      U;
}
// * * * * * * * * * * * * * * * * * * * * * * * * * * * * * * * * * * * * * //

dimensions      [0 1 -1 0 0 0 0];

internalField   nonuniform List<vector> 
6144
(
(0.0013838 -0.00010087 1.577e-07)
(0.0015582 -0.00021902 4.3531e-07)
(0.0017677 -0.00018697 6.7642e-07)
(0.0018736 -5.4447e-05 9.4773e-07)
(0.0018451 3.9757e-05 1.1619e-06)
(0.0017723 3.1716e-05 1.2367e-06)
(0.0017522 -4.6172e-05 1.3534e-06)
(0.001815 -0.00014063 1.3482e-06)
(0.0019488 -0.00022731 1.2204e-06)
(0.0021434 -0.00031339 1.0261e-06)
(0.0024016 -0.00041457 7.7706e-07)
(0.0027398 -0.00054343 4.3603e-07)
(0.0031822 -0.00070343 7.7021e-08)
(0.0037509 -0.00088795 -2.1322e-07)
(0.0044607 -0.0010945 -4.4876e-07)
(0.0053301 -0.0013452 -5.9732e-07)
(0.0064029 -0.0016848 -5.3937e-07)
(0.007763 -0.0021592 -3.4697e-07)
(0.0095246 -0.0027821 -7.0365e-08)
(0.011795 -0.0035238 2.6533e-07)
(0.014646 -0.00435 5.2588e-07)
(0.018133 -0.0052871 6.3122e-07)
(0.022361 -0.0064388 6.6599e-07)
(0.027537 -0.0079298 5.5233e-07)
(0.033953 -0.009809 3.9327e-07)
(0.041902 -0.011986 3.2917e-07)
(0.051566 -0.014266 3.321e-07)
(0.062966 -0.016479 2.8515e-07)
(0.076026 -0.018594 1.4249e-07)
(0.090705 -0.020714 -7.9474e-08)
(0.10708 -0.02292 -3.1812e-07)
(0.12525 -0.025028 -5.9819e-07)
(0.14508 -0.026513 -9.2091e-07)
(0.16597 -0.026648 -1.131e-06)
(0.18674 -0.02475 -1.2918e-06)
(0.20572 -0.020455 -1.4272e-06)
(0.22098 -0.01383 -1.8394e-06)
(0.23095 -0.005669 -2.2694e-06)
(0.23601 0.0017286 -2.5866e-06)
(0.23614 0.0073414 -1.8172e-06)
(0.23114 0.01289 -1.0992e-06)
(0.22185 0.018058 -1.3546e-06)
(0.20831 0.02355 -1.9134e-06)
(0.19005 0.029377 -2.0523e-06)
(0.16707 0.033359 -2.2026e-06)
(0.14219 0.032099 -1.5936e-06)
(0.12189 0.02232 -1.1453e-06)
(0.11055 0.0055612 -2.0584e-07)
(0.0014175 -6.6494e-05 9.2045e-06)
(0.001567 -0.00014471 2.0453e-05)
(0.0017496 -0.00012501 1.8347e-05)
(0.0018482 -3.9137e-05 7.5901e-06)
(0.001835 2.4628e-05 -1.1266e-06)
(0.0017809 2.0646e-05 -3.7809e-07)
(0.0017699 -3.1764e-05 9.1849e-06)
(0.001834 -9.7184e-05 1.9817e-05)
(0.0019671 -0.00015941 2.9657e-05)
(0.0021629 -0.00022184 3.9939e-05)
(0.0024249 -0.00029434 5.3191e-05)
(0.0027689 -0.00038506 7.0556e-05)
(0.0032176 -0.00049694 9.1238e-05)
(0.0037922 -0.00062685 0.00011362)
(0.0045097 -0.00077544 0.0001377)
(0.0053924 -0.00095772 0.00016823)
(0.0064867 -0.0012019 0.00021279)
(0.0078749 -0.0015371 0.00027617)
(0.0096652 -0.0019727 0.00035627)
(0.01196 -0.0024932 0.00044569)
(0.014835 -0.0030823 0.00053968)
(0.018357 -0.0037599 0.00064495)
(0.02264 -0.0045912 0.00077836)
(0.027887 -0.0056539 0.00095384)
(0.034374 -0.0069786 0.0011674)
(0.042372 -0.0085107 0.0013953)
(0.05205 -0.010133 0.0016013)
(0.063438 -0.011741 0.0017675)
(0.076479 -0.013308 0.0019038)
(0.091146 -0.014887 0.0020319)
(0.10749 -0.01651 0.0021524)
(0.12557 -0.018048 0.002217)
(0.14518 -0.019158 0.0021322)
(0.1657 -0.019359 0.0018024)
(0.18598 -0.018192 0.0011698)
(0.20445 -0.015408 0.00022843)
(0.21934 -0.011115 -0.00094002)
(0.22923 -0.0060635 -0.0021225)
(0.23424 -0.0017153 -0.0027398)
(0.23425 0.0025224 -0.0024152)
(0.22925 0.0066918 -0.0026413)
(0.22007 0.010699 -0.0029168)
(0.20662 0.014705 -0.0034738)
(0.18858 0.018703 -0.0041323)
(0.16627 0.021284 -0.0045713)
(0.14251 0.020334 -0.0043515)
(0.12346 0.013788 -0.0031361)
(0.11312 0.0027064 -0.0011602)
(0.0014373 -5.0461e-05 1.9817e-05)
(0.0015726 -0.00011025 4.3684e-05)
(0.0017398 -9.6299e-05 3.8535e-05)
(0.0018345 -3.2453e-05 1.4193e-05)
(0.0018293 1.515e-05 -4.7557e-06)
(0.0017856 1.3186e-05 -3.1204e-06)
(0.0017809 -2.715e-05 1.3615e-05)
(0.0018465 -7.8719e-05 3.3592e-05)
(0.0019796 -0.00012901 5.2449e-05)
(0.0021762 -0.00017992 7.1777e-05)
(0.0024407 -0.00023883 9.4921e-05)
(0.0027884 -0.00031201 0.00012421)
(0.003241 -0.00040188 0.00016008)
(0.0038195 -0.0005066 0.00020124)
(0.0045423 -0.00062724 0.00024786)
(0.0054339 -0.00077548 0.00030563)
(0.0065423 -0.00097362 0.00038461)
(0.0079483 -0.0012436 0.00049362)
(0.0097567 -0.0015934 0.00063419)
(0.012068 -0.0020118 0.00079941)
(0.014959 -0.002488 0.00098334)
(0.018504 -0.0030381 0.0011934)
(0.022822 -0.0037122 0.0014523)
(0.028115 -0.004569 0.0017833)
(0.034646 -0.0056306 0.0021916)
(0.042674 -0.0068558 0.0026531)
(0.052359 -0.0081548 0.0031245)
(0.063738 -0.0094468 0.0035732)
(0.076766 -0.01071 0.0039973)
(0.091419 -0.011981 0.004418)
(0.10774 -0.013276 0.004843)
(0.12573 -0.01449 0.0052189)
(0.14519 -0.015354 0.0054234)
(0.16546 -0.015496 0.0053008)
(0.18542 -0.014559 0.0047196)
(0.20353 -0.012343 0.0036283)
(0.21811 -0.0089262 0.002107)
(0.22784 -0.0048759 0.00047184)
(0.23263 -0.0011919 -0.00070183)
(0.23265 0.0025771 -0.0012795)
(0.22792 0.0060606 -0.0024464)
(0.21881 0.0092873 -0.0035818)
(0.20544 0.012574 -0.0048108)
(0.18763 0.015729 -0.0060723)
(0.1659 0.017647 -0.0068749)
(0.14302 0.016681 -0.0065751)
(0.1249 0.011249 -0.0045398)
(0.11521 0.0023622 -0.0010765)
(0.0014466 -3.7979e-05 2.8344e-05)
(0.0015752 -8.3289e-05 6.2567e-05)
(0.0017352 -7.316e-05 5.5497e-05)
(0.0018279 -2.5565e-05 2.0668e-05)
(0.0018265 1.0571e-05 -5.816e-06)
(0.0017881 8.6371e-06 -4.1995e-06)
(0.0017864 -2.248e-05 1.8649e-05)
(0.0018529 -6.1745e-05 4.6916e-05)
(0.001986 -0.00010025 7.4379e-05)
(0.002183 -0.00013958 0.0001026)
(0.0024488 -0.00018536 0.00013591)
(0.0027982 -0.00024222 0.00017762)
(0.0032527 -0.00031173 0.00022884)
(0.0038333 -0.00039267 0.00028831)
(0.0045588 -0.00048582 0.00035671)
(0.0054549 -0.00060043 0.00044141)
(0.0065701 -0.00075396 0.00055553)
(0.007985 -0.00096288 0.00071143)
(0.0098025 -0.0012328 0.00091243)
(0.012122 -0.001555 0.0011508)
(0.015021 -0.0019212 0.0014197)
(0.018579 -0.0023445 0.0017291)
(0.022915 -0.0028638 0.0021085)
(0.02823 -0.0035228 0.0025904)
(0.034784 -0.004336 0.0031844)
(0.042826 -0.0052698 0.0038616)
(0.052517 -0.0062542 0.0045673)
(0.063893 -0.0072287 0.0052566)
(0.076915 -0.0081787 0.0059213)
(0.091561 -0.0091324 0.006585)
(0.10787 -0.010101 0.0072562)
(0.12583 -0.010996 0.0078651)
(0.1452 -0.011608 0.0082484)
(0.16535 -0.011651 0.0081913)
(0.18515 -0.010856 0.0075006)
(0.20309 -0.0090779 0.0060803)
(0.21752 -0.0063899 0.0039981)
(0.22718 -0.0032496 0.0016264)
(0.23192 -0.00048785 -0.00034349)
(0.23196 0.0020409 -0.0019724)
(0.2273 0.0045925 -0.0038225)
(0.21823 0.006961 -0.0055409)
(0.20487 0.0094056 -0.007344)
(0.18716 0.011774 -0.0091031)
(0.16567 0.013207 -0.010181)
(0.14317 0.012505 -0.0096305)
(0.12544 0.0084498 -0.0065734)
(0.11603 0.0017397 -0.001559)
(0.0014463 -2.8003e-05 3.8376e-05)
(0.001575 -6.1538e-05 8.4472e-05)
(0.0017351 -5.4087e-05 7.4801e-05)
(0.0018279 -1.9071e-05 2.744e-05)
(0.0018266 7.4578e-06 -8.6392e-06)
(0.0017882 5.5234e-06 -7.0642e-06)
(0.0017866 -1.785e-05 2.3478e-05)
(0.0018531 -4.6702e-05 6.2018e-05)
(0.0019862 -7.477e-05 9.9782e-05)
(0.0021833 -0.00010368 0.00013834)
(0.002449 -0.00013763 0.00018337)
(0.0027984 -0.00017997 0.0002395)
(0.0032528 -0.00023162 0.00030854)
(0.0038333 -0.00029134 0.00038915)
(0.0045586 -0.00035967 0.00048241)
(0.0054546 -0.0004438 0.00059771)
(0.0065698 -0.00055712 0.00075213)
(0.0079846 -0.00071189 0.00096233)
(0.0098021 -0.00091166 0.0012337)
(0.012121 -0.0011489 0.0015572)
(0.015021 -0.0014169 0.0019244)
(0.018578 -0.0017258 0.0023483)
(0.022915 -0.0021054 0.0028675)
(0.02823 -0.002588 0.0035255)
(0.034784 -0.0031825 0.0043382)
(0.042826 -0.0038603 0.0052712)
(0.052517 -0.0045664 0.0062552)
(0.063893 -0.0052559 0.0072295)
(0.076915 -0.0059206 0.0081795)
(0.091561 -0.0065845 0.0091332)
(0.10787 -0.0072559 0.010102)
(0.12583 -0.0078648 0.010997)
(0.1452 -0.008248 0.01161)
(0.16535 -0.0081908 0.011652)
(0.18515 -0.0075003 0.010857)
(0.20309 -0.0060804 0.0090785)
(0.21752 -0.003999 0.0063895)
(0.22718 -0.0016285 0.0032482)
(0.23192 0.00033964 0.00048422)
(0.23196 0.0019666 -0.0020471)
(0.2273 0.0038161 -0.0045996)
(0.21823 0.0055338 -0.0069691)
(0.20487 0.0073368 -0.0094145)
(0.18716 0.0090961 -0.011782)
(0.16567 0.010174 -0.013215)
(0.14317 0.0096245 -0.012512)
(0.12544 0.0065692 -0.0084549)
(0.11603 0.0015577 -0.0017414)
(0.0014366 -1.9518e-05 5.0928e-05)
(0.0015721 -4.2785e-05 0.00011162)
(0.0017395 -3.7343e-05 9.8236e-05)
(0.0018344 -1.2796e-05 3.4706e-05)
(0.0018295 6.0926e-06 -1.298e-05)
(0.001786 4.3086e-06 -1.1342e-05)
(0.0017814 -1.2989e-05 2.8397e-05)
(0.0018471 -3.3355e-05 7.9254e-05)
(0.0019802 -5.2733e-05 0.00012869)
(0.0021768 -7.2575e-05 0.0001787)
(0.0024413 -9.6267e-05 0.00023676)
(0.0027889 -0.00012608 0.00030912)
(0.0032413 -0.00016237 0.00039829)
(0.0038196 -0.00020375 0.00050269)
(0.004542 -0.00025044 0.0006234)
(0.0054333 -0.00030794 0.0007722)
(0.0065413 -0.00038632 0.00097133)
(0.0079472 -0.00049456 0.0012426)
(0.0097556 -0.00063418 0.0015939)
(0.012067 -0.0007984 0.0020138)
(0.014958 -0.00098152 0.0024911)
(0.018504 -0.0011912 0.0030417)
(0.022823 -0.0014499 0.003716)
(0.028116 -0.0017815 0.0045719)
(0.034647 -0.0021902 0.0056326)
(0.042674 -0.0026524 0.0068567)
(0.05236 -0.0031243 0.0081549)
(0.063738 -0.0035735 0.0094466)
(0.076766 -0.0039978 0.01071)
(0.091419 -0.0044188 0.011981)
(0.10774 -0.0048438 0.013277)
(0.12573 -0.0052194 0.014491)
(0.14519 -0.0054234 0.015356)
(0.16546 -0.0053007 0.015498)
(0.18542 -0.0047195 0.014561)
(0.20353 -0.0036288 0.012345)
(0.21811 -0.0021074 0.008928)
(0.22784 -0.0004739 0.0048761)
(0.23263 0.00069836 0.0011888)
(0.23266 0.0012745 -0.0025833)
(0.22792 0.0024397 -0.0060703)
(0.21881 0.003575 -0.0092984)
(0.20544 0.0048044 -0.012586)
(0.18763 0.0060663 -0.015742)
(0.1659 0.0068698 -0.017659)
(0.14302 0.006571 -0.016691)
(0.1249 0.0045365 -0.011255)
(0.11521 0.0010754 -0.0023643)
(0.0014164 -8.9577e-06 6.7009e-05)
(0.0015661 -1.9708e-05 0.00014621)
(0.0017491 -1.7348e-05 0.00012718)
(0.0018481 -6.4035e-06 4.1797e-05)
(0.0018352 2.0632e-06 -2.2061e-05)
(0.0017815 1.1809e-06 -1.8496e-05)
(0.0017708 -8.6635e-06 3.3168e-05)
(0.001835 -1.9588e-05 9.7852e-05)
(0.0019682 -2.9855e-05 0.00015918)
(0.0021639 -4.0542e-05 0.00022064)
(0.002426 -5.4242e-05 0.0002922)
(0.0027698 -7.2067e-05 0.00038202)
(0.0032182 -9.3117e-05 0.00049308)
(0.0037924 -0.00011574 0.00062263)
(0.0045093 -0.00013997 0.00077135)
(0.0053914 -0.0001704 0.00095399)
(0.0064853 -0.00021458 0.0011994)
(0.0078732 -0.00027742 0.0015358)
(0.0096634 -0.00035676 0.0019731)
(0.011959 -0.00044525 0.0024952)
(0.014834 -0.00053852 0.0030854)
(0.018356 -0.00064342 0.0037634)
(0.02264 -0.00077629 0.0045951)
(0.027888 -0.00095214 0.0056569)
(0.034375 -0.0011664 0.0069804)
(0.042373 -0.001395 0.008511)
(0.052051 -0.0016017 0.010133)
(0.063438 -0.0017686 0.011741)
(0.07648 -0.0019053 0.013308)
(0.091146 -0.0020335 0.014887)
(0.10749 -0.002154 0.016512)
(0.12557 -0.0022181 0.018051)
(0.14518 -0.0021328 0.019161)
(0.1657 -0.0018026 0.019362)
(0.18598 -0.0011698 0.018196)
(0.20445 -0.00022925 0.01541)
(0.21934 0.0009408 0.011119)
(0.22923 0.0021204 0.0060655)
(0.23425 0.002736 0.001713)
(0.23426 0.0024101 -0.002529)
(0.22925 0.0026347 -0.0067027)
(0.22007 0.0029102 -0.010712)
(0.20662 0.0034674 -0.014721)
(0.18858 0.0041266 -0.018721)
(0.16627 0.0045665 -0.021301)
(0.14251 0.0043482 -0.020345)
(0.12346 0.0031336 -0.013795)
(0.11311 0.0011597 -0.0027084)
(0.0013822 6.204e-08 0.00010153)
(0.0015569 2.6275e-07 0.00022089)
(0.0017669 2.8206e-07 0.00018985)
(0.0018733 2.339e-07 5.7861e-05)
(0.0018455 8.7948e-08 -3.6534e-05)
(0.0017732 -2.4473e-07 -2.9032e-05)
(0.0017533 -6.4445e-07 4.8041e-05)
(0.0018163 -9.5828e-07 0.00014146)
(0.0019503 -1.1654e-06 0.00022697)
(0.0021449 -1.3476e-06 0.00031177)
(0.002403 -1.5106e-06 0.00041169)
(0.002741 -1.5991e-06 0.00053933)
(0.0031831 -1.6331e-06 0.0006983)
(0.0037512 -1.678e-06 0.00088223)
(0.0044603 -1.6372e-06 0.0010889)
(0.0053288 -1.4989e-06 0.00134)
(0.0064009 -1.1785e-06 0.0016812)
(0.0077606 -8.2186e-07 0.0021574)
(0.009522 -5.1546e-07 0.0027822)
(0.011793 -1.9911e-07 0.0035255)
(0.014644 3.7139e-08 0.0043527)
(0.018132 8.812e-08 0.0052897)
(0.022362 -8.9576e-08 0.0064407)
(0.027538 -5.0721e-07 0.0079303)
(0.033954 -9.3702e-07 0.0098071)
(0.041904 -1.4178e-06 0.011984)
(0.051567 -1.7455e-06 0.014263)
(0.062966 -1.8478e-06 0.016476)
(0.076026 -1.6162e-06 0.018592)
(0.090704 -1.0986e-06 0.020715)
(0.10708 -5.1383e-07 0.022923)
(0.12525 1.4824e-07 0.025032)
(0.14508 8.077e-07 0.026518)
(0.16597 1.2558e-06 0.026653)
(0.18674 1.4004e-06 0.024753)
(0.20572 9.2865e-07 0.020458)
(0.22098 9.686e-08 0.013834)
(0.23096 -4.0206e-07 0.0056711)
(0.23602 -1.3525e-06 -0.0017304)
(0.23615 -3.4373e-06 -0.0073486)
(0.23115 -4.0066e-06 -0.012902)
(0.22185 -4.4444e-06 -0.018075)
(0.20831 -4.4199e-06 -0.023572)
(0.19005 -3.6062e-06 -0.029404)
(0.16707 -3.0092e-06 -0.033384)
(0.14219 -2.5404e-06 -0.032118)
(0.12188 -1.817e-06 -0.022331)
(0.11054 -9.4417e-07 -0.0055651)
(0.0014178 -6.6509e-05 -8.8095e-06)
(0.0015672 -0.00014479 -1.9304e-05)
(0.0017498 -0.00012504 -1.6583e-05)
(0.0018484 -3.933e-05 -5.252e-06)
(0.0018351 2.4433e-05 3.9362e-06)
(0.001781 2.0392e-05 3.5136e-06)
(0.0017699 -3.1883e-05 -5.7689e-06)
(0.0018339 -9.7349e-05 -1.6476e-05)
(0.001967 -0.00015962 -2.6597e-05)
(0.0021627 -0.00022204 -3.7345e-05)
(0.0024247 -0.00029451 -5.1251e-05)
(0.0027687 -0.0003852 -6.9453e-05)
(0.0032173 -0.00049703 -9.1065e-05)
(0.003792 -0.00062696 -0.0001142)
(0.0045096 -0.00077549 -0.00013887)
(0.0053924 -0.00095778 -0.00016974)
(0.0064868 -0.001202 -0.00021417)
(0.0078751 -0.0015371 -0.00027715)
(0.0096655 -0.0019727 -0.00035659)
(0.01196 -0.0024933 -0.00044523)
(0.014835 -0.0030824 -0.00053859)
(0.018357 -0.0037599 -0.00064348)
(0.02264 -0.0045912 -0.00077675)
(0.027887 -0.0056539 -0.00095239)
(0.034374 -0.0069785 -0.0011665)
(0.042372 -0.0085105 -0.0013945)
(0.05205 -0.010133 -0.0016006)
(0.063437 -0.011741 -0.0017669)
(0.076479 -0.013308 -0.0019035)
(0.091145 -0.014886 -0.0020319)
(0.10749 -0.01651 -0.0021529)
(0.12557 -0.018048 -0.002218)
(0.14518 -0.019157 -0.0021339)
(0.16569 -0.019358 -0.0018045)
(0.18597 -0.018192 -0.0011726)
(0.20444 -0.015407 -0.00023223)
(0.21933 -0.011114 0.00093624)
(0.22922 -0.0060622 0.0021173)
(0.23424 -0.0017135 0.0027337)
(0.23424 0.0025248 0.0024094)
(0.22924 0.006695 0.0026361)
(0.22006 0.010702 0.002911)
(0.20661 0.014707 0.0034667)
(0.18857 0.018706 0.0041251)
(0.16627 0.021286 0.004565)
(0.14251 0.020335 0.0043471)
(0.12346 0.013788 0.0031333)
(0.11312 0.0027063 0.0011599)
(0.0014464 -5.0079e-05 2.074e-07)
(0.0015748 -0.00010939 6.1549e-07)
(0.0017347 -9.5631e-05 9.2032e-07)
(0.0018264 -3.2362e-05 1.2552e-06)
(0.0018254 1.6828e-05 1.3948e-06)
(0.0017888 1.5207e-05 1.5251e-06)
(0.0017865 -2.6246e-05 1.8504e-06)
(0.0018514 -7.6948e-05 1.7409e-06)
(0.0019843 -0.00012685 1.5958e-06)
(0.0021814 -0.00017737 1.3606e-06)
(0.0024473 -0.00023532 1.0238e-06)
(0.0027967 -0.0003068 5.8325e-07)
(0.003251 -0.00039472 1.1543e-07)
(0.0038312 -0.00049788 -2.6798e-07)
(0.0045565 -0.00061785 -5.4474e-07)
(0.0054528 -0.00076542 -7.1926e-07)
(0.0065682 -0.00096104 -6.4316e-07)
(0.0079829 -0.0012258 -3.9814e-07)
(0.0097995 -0.0015685 -7.1564e-08)
(0.012117 -0.0019806 3.2338e-07)
(0.015016 -0.0024533 6.3954e-07)
(0.018573 -0.0030019 8.2517e-07)
(0.022911 -0.0036728 8.7693e-07)
(0.028227 -0.0045208 7.6944e-07)
(0.034782 -0.0055694 4.1648e-07)
(0.042828 -0.006784 3.1454e-07)
(0.052528 -0.0080851 2.3239e-07)
(0.063923 -0.0093965 1.2591e-07)
(0.076977 -0.010692 -5.8346e-09)
(0.091668 -0.011997 -1.2343e-07)
(0.10803 -0.013328 -2.4374e-07)
(0.12607 -0.014586 -4.1207e-07)
(0.14556 -0.015525 -6.4001e-07)
(0.16585 -0.015796 -8.1411e-07)
(0.18584 -0.015059 -1.2052e-06)
(0.204 -0.013113 -1.7466e-06)
(0.2187 -0.010017 -1.8568e-06)
(0.22866 -0.0062782 -2.5636e-06)
(0.23374 -0.0027333 -3.0739e-06)
(0.2336 0.0012908 -3.1168e-06)
(0.22846 0.0049577 -3.3995e-06)
(0.21924 0.0083604 -3.1203e-06)
(0.20575 0.011712 -3.6317e-06)
(0.18788 0.014814 -3.8435e-06)
(0.16623 0.016641 -3.7071e-06)
(0.14347 0.015646 -2.1202e-06)
(0.1253 0.01032 -1.0855e-06)
(0.11556 0.0017271 3.0627e-07)
(0.0014645 -3.7729e-05 9.6523e-06)
(0.0015801 -8.2777e-05 2.134e-05)
(0.0017261 -7.3175e-05 1.9036e-05)
(0.0018141 -2.6528e-05 7.4926e-06)
(0.0018202 9.722e-06 -2.8115e-06)
(0.0017931 8.8319e-06 -1.9587e-06)
(0.0017968 -2.2272e-05 7.1544e-06)
(0.0018635 -6.2006e-05 1.6594e-05)
(0.0019966 -0.00010178 2.5662e-05)
(0.0021948 -0.00014248 3.4928e-05)
(0.0024631 -0.00018917 4.5769e-05)
(0.0028161 -0.00024653 5.9252e-05)
(0.0032742 -0.00031665 7.5826e-05)
(0.0038584 -0.0003991 9.5253e-05)
(0.0045892 -0.00049533 0.00011786)
(0.0054945 -0.00061402 0.00014605)
(0.0066238 -0.0007712 0.00018407)
(0.008056 -0.00098295 0.00023566)
(0.0098903 -0.0012559 0.00030189)
(0.012224 -0.0015839 0.00038063)
(0.01514 -0.0019612 0.00047007)
(0.018721 -0.0024005 0.00057358)
(0.023093 -0.0029378 0.00070051)
(0.028453 -0.0036141 0.00086052)
(0.035051 -0.0044461 0.0010564)
(0.043125 -0.0054061 0.0012802)
(0.052835 -0.0064327 0.0015155)
(0.064225 -0.0074678 0.001749)
(0.077272 -0.0084917 0.0019776)
(0.091956 -0.0095233 0.0022077)
(0.1083 -0.010568 0.0024408)
(0.12627 -0.011545 0.0026551)
(0.14562 -0.012259 0.0028011)
(0.16569 -0.012437 0.0028143)
(0.18537 -0.011814 0.0026384)
(0.20322 -0.010232 0.0022516)
(0.21765 -0.0077421 0.0016946)
(0.22745 -0.0047246 0.0011072)
(0.23237 -0.0017612 0.00070778)
(0.23228 0.0014663 0.00045101)
(0.22739 0.0042936 -0.0001683)
(0.21821 0.006961 -0.00087191)
(0.20477 0.0096132 -0.0015301)
(0.18714 0.012013 -0.0021415)
(0.16603 0.013362 -0.0025119)
(0.14408 0.012512 -0.0023965)
(0.12678 0.0082725 -0.0015331)
(0.11762 0.0014835 -5.5392e-05)
(0.0014731 -2.7444e-05 1.8599e-05)
(0.0015827 -6.0356e-05 4.1153e-05)
(0.001722 -5.3566e-05 3.6874e-05)
(0.0018081 -1.9901e-05 1.4586e-05)
(0.0018176 7.1671e-06 -3.6312e-06)
(0.0017954 6.1929e-06 -2.8747e-06)
(0.0018021 -1.7465e-05 1.2948e-05)
(0.0018696 -4.6816e-05 3.1884e-05)
(0.0020029 -7.6304e-05 5.0665e-05)
(0.0022016 -0.00010668 7.003e-05)
(0.0024711 -0.00014164 9.2525e-05)
(0.0028258 -0.00018453 0.00012032)
(0.0032859 -0.00023679 0.00015441)
(0.0038721 -0.00029814 0.00019447)
(0.0046056 -0.00036974 0.00024134)
(0.0055155 -0.00045818 0.00029965)
(0.0066517 -0.00057538 0.00037742)
(0.0080925 -0.00073308 0.00048226)
(0.0099356 -0.00093584 0.00061683)
(0.012278 -0.001179 0.00077757)
(0.015202 -0.0014587 0.00096141)
(0.018795 -0.0017847 0.0011749)
(0.023185 -0.0021836 0.0014361)
(0.028567 -0.0026851 0.0017643)
(0.035185 -0.0032998 0.0021662)
(0.043274 -0.0040063 0.0026262)
(0.052989 -0.0047586 0.0031136)
(0.064377 -0.0055148 0.0036007)
(0.07742 -0.0062614 0.0040797)
(0.0921 -0.0070126 0.004561)
(0.10843 -0.0077705 0.0050463)
(0.12637 -0.0084718 0.0054922)
(0.14564 -0.0089704 0.0058005)
(0.1656 -0.0090665 0.0058395)
(0.18514 -0.0085707 0.0054879)
(0.20282 -0.007377 0.0046833)
(0.21711 -0.0055374 0.003472)
(0.22685 -0.0033534 0.0020745)
(0.23175 -0.0012793 0.00081856)
(0.23169 0.00079729 -0.00043014)
(0.22686 0.0028584 -0.0018)
(0.21772 0.0048178 -0.0031632)
(0.20429 0.0067564 -0.0044831)
(0.18675 0.0085101 -0.00567)
(0.16587 0.0095033 -0.0063483)
(0.14429 0.0089015 -0.00595)
(0.12736 0.0058565 -0.0039207)
(0.11845 0.00094968 -0.0006708)
(0.0014729 -1.8266e-05 2.7802e-05)
(0.0015825 -4.0133e-05 6.1436e-05)
(0.0017219 -3.5485e-05 5.5046e-05)
(0.0018081 -1.2963e-05 2.1605e-05)
(0.0018176 5.2886e-06 -5.4222e-06)
(0.0017955 4.305e-06 -4.7063e-06)
(0.0018023 -1.2055e-05 1.8374e-05)
(0.0018698 -3.1517e-05 4.7118e-05)
(0.0020031 -5.0903e-05 7.5947e-05)
(0.0022018 -7.0909e-05 0.00010563)
(0.0024713 -9.4064e-05 0.00013989)
(0.002826 -0.00012248 0.0001821)
(0.003286 -0.00015706 0.00023389)
(0.0038721 -0.00019746 0.00029492)
(0.0046056 -0.00024444 0.0003665)
(0.0055153 -0.00030247 0.00045542)
(0.0066514 -0.0003795 0.00057346)
(0.0080921 -0.00048343 0.00073228)
(0.0099352 -0.00061693 0.00093629)
(0.012277 -0.00077659 0.0011807)
(0.015202 -0.00095963 0.0014613)
(0.018795 -0.0011727 0.0017877)
(0.023185 -0.001434 0.0021866)
(0.028567 -0.0017627 0.0026873)
(0.035186 -0.0021653 0.0033014)
(0.043274 -0.002626 0.0040072)
(0.052989 -0.0031139 0.004759)
(0.064377 -0.0036013 0.0055151)
(0.07742 -0.0040804 0.0062617)
(0.0921 -0.0045615 0.0070129)
(0.10843 -0.0050465 0.0077708)
(0.12637 -0.005492 0.0084723)
(0.14564 -0.0057999 0.0089711)
(0.1656 -0.0058388 0.0090673)
(0.18514 -0.0054874 0.0085713)
(0.20282 -0.0046835 0.0073771)
(0.21712 -0.0034731 0.0055366)
(0.22685 -0.0020772 0.0033513)
(0.23175 -0.00082346 0.0012751)
(0.23169 0.00042302 -0.00080384)
(0.22686 0.0017915 -0.002866)
(0.21772 0.0031536 -0.0048264)
(0.20429 0.0044734 -0.0067653)
(0.18675 0.0056603 -0.0085189)
(0.16587 0.0063397 -0.0095113)
(0.14429 0.0059432 -0.0089081)
(0.12736 0.0039161 -0.0058612)
(0.11845 0.00066923 -0.00095118)
(0.0014639 -9.3358e-06 3.8125e-05)
(0.0015797 -2.0346e-05 8.395e-05)
(0.0017258 -1.7704e-05 7.4789e-05)
(0.001814 -5.8948e-06 2.8379e-05)
(0.0018203 4.2933e-06 -7.9369e-06)
(0.0017935 3.25e-06 -7.3411e-06)
(0.0017973 -6.2518e-06 2.3239e-05)
(0.001864 -1.6148e-05 6.2341e-05)
(0.0019972 -2.579e-05 0.00010142)
(0.0021954 -3.5619e-05 0.00014137)
(0.0024637 -4.7099e-05 0.00018732)
(0.0028166 -6.1184e-05 0.00024394)
(0.0032746 -7.8286e-05 0.00031355)
(0.0038586 -9.8083e-05 0.00039569)
(0.004589 -0.00012089 0.00049196)
(0.005494 -0.00014896 0.0006112)
(0.006623 -0.0001864 0.00076924)
(0.008055 -0.00023724 0.0009822)
(0.0098893 -0.00030258 0.0012565)
(0.012223 -0.00038038 0.0015858)
(0.015139 -0.0004691 0.0019642)
(0.01872 -0.00057226 0.002404)
(0.023094 -0.00069921 0.0029413)
(0.028454 -0.00085968 0.0036168)
(0.035051 -0.0010564 0.0044481)
(0.043126 -0.0012809 0.0054074)
(0.052835 -0.0015168 0.0064335)
(0.064225 -0.0017506 0.0074683)
(0.077272 -0.0019791 0.008492)
(0.091956 -0.0022089 0.0095236)
(0.1083 -0.0024414 0.010569)
(0.12627 -0.0026551 0.011546)
(0.14562 -0.0028005 0.01226)
(0.16569 -0.0028135 0.012438)
(0.18537 -0.0026378 0.011815)
(0.20322 -0.002252 0.010233)
(0.21765 -0.0016958 0.0077424)
(0.22745 -0.0011107 0.0047235)
(0.23237 -0.00071331 0.0017579)
(0.23228 -0.00045845 -0.0014721)
(0.22739 0.0001582 -0.0043012)
(0.21821 0.00086125 -0.006969)
(0.20477 0.0015196 -0.0096212)
(0.18714 0.0021309 -0.012021)
(0.16602 0.0025029 -0.01337)
(0.14408 0.0023896 -0.012519)
(0.12677 0.0015284 -0.0082774)
(0.11762 5.3799e-05 -0.0014851)
(0.0014453 8.5564e-08 5.051e-05)
(0.001574 3.2973e-07 0.00011063)
(0.0017343 3.5694e-07 9.7386e-05)
(0.0018263 2.9671e-07 3.441e-05)
(0.0018256 2.1319e-07 -1.4813e-05)
(0.0017894 -3.1602e-07 -1.3497e-05)
(0.0017872 -8.8763e-07 2.7294e-05)
(0.0018523 -1.2958e-06 7.7375e-05)
(0.0019853 -1.6423e-06 0.00012652)
(0.0021825 -1.9202e-06 0.00017629)
(0.0024483 -2.1536e-06 0.00023349)
(0.0027976 -2.2851e-06 0.00030423)
(0.0032516 -2.3552e-06 0.00039147)
(0.0038315 -2.3994e-06 0.00049435)
(0.0045563 -2.3445e-06 0.00061439)
(0.005452 -2.1175e-06 0.00076243)
(0.0065669 -1.7301e-06 0.00095893)
(0.0079813 -1.2714e-06 0.0012249)
(0.0097978 -7.7501e-07 0.001569)
(0.012116 -2.7213e-07 0.0019826)
(0.015015 9.957e-08 0.0024565)
(0.018573 2.5612e-07 0.0030057)
(0.022911 6.7304e-08 0.0036769)
(0.028228 -4.2758e-07 0.0045239)
(0.034783 -9.4338e-07 0.0055717)
(0.042829 -1.5195e-06 0.0067853)
(0.052528 -1.902e-06 0.0080858)
(0.063923 -1.9415e-06 0.0093968)
(0.076977 -1.6302e-06 0.010692)
(0.091668 -1.0724e-06 0.011997)
(0.10803 -3.8199e-07 0.013328)
(0.12607 4.0346e-07 0.014587)
(0.14556 1.1934e-06 0.015526)
(0.16585 1.7734e-06 0.015798)
(0.18584 1.8732e-06 0.015062)
(0.204 1.1651e-06 0.013115)
(0.2187 -2.498e-08 0.010019)
(0.22866 -1.5851e-06 0.0062791)
(0.23375 -3.1391e-06 0.0027314)
(0.2336 -5.2991e-06 -0.0012955)
(0.22846 -6.829e-06 -0.0049648)
(0.21924 -7.0705e-06 -0.0083682)
(0.20575 -7.1267e-06 -0.011721)
(0.18788 -6.4633e-06 -0.014823)
(0.16623 -5.7704e-06 -0.016649)
(0.14346 -4.6122e-06 -0.015653)
(0.12529 -3.3342e-06 -0.010325)
(0.11556 -2.0112e-06 -0.0017287)
(0.0014163 9.1275e-06 6.6999e-05)
(0.001566 2.0323e-05 0.00014615)
(0.0017491 1.8032e-05 0.00012713)
(0.0018481 6.9577e-06 4.1764e-05)
(0.0018354 -2.0832e-06 -2.2001e-05)
(0.0017818 -1.9311e-06 -1.8488e-05)
(0.0017711 6.9585e-06 3.3193e-05)
(0.0018352 1.7044e-05 9.7897e-05)
(0.0019683 2.6571e-05 0.00015927)
(0.0021641 3.673e-05 0.00022075)
(0.0024261 5.0002e-05 0.00029236)
(0.0027699 6.7615e-05 0.00038217)
(0.0032183 8.8564e-05 0.00049328)
(0.0037924 0.00011119 0.00062286)
(0.0045093 0.0001356 0.00077164)
(0.0053913 0.00016651 0.00095429)
(0.006485 0.00021153 0.0011996)
(0.0078729 0.00027533 0.0015361)
(0.009663 0.00035561 0.0019733)
(0.011958 0.00044505 0.0024954)
(0.014834 0.00053897 0.0030856)
(0.018356 0.00064407 0.0037634)
(0.02264 0.00077652 0.0045951)
(0.027888 0.0009515 0.0056569)
(0.034376 0.0011646 0.0069804)
(0.042374 0.0013922 0.008511)
(0.052051 0.0015981 0.010133)
(0.063437 0.0017647 0.01174)
(0.076478 0.001902 0.013308)
(0.091144 0.0020314 0.014887)
(0.10749 0.0021533 0.016511)
(0.12556 0.0022191 0.01805)
(0.14518 0.0021353 0.01916)
(0.16569 0.0018062 0.019361)
(0.18598 0.0011735 0.018194)
(0.20444 0.00023198 0.015409)
(0.21933 -0.00093996 0.011119)
(0.22922 -0.0021219 0.0060654)
(0.23424 -0.0027393 0.001714)
(0.23425 -0.0024178 -0.0025288)
(0.22924 -0.0026451 -0.0067014)
(0.22006 -0.0029218 -0.010712)
(0.20661 -0.0034794 -0.014721)
(0.18857 -0.0041375 -0.01872)
(0.16627 -0.0045756 -0.0213)
(0.1425 -0.0043557 -0.020344)
(0.12346 -0.003139 -0.013794)
(0.11311 -0.0011623 -0.0027078)
(0.0014378 -5.0472e-05 -1.9422e-05)
(0.001573 -0.00011032 -4.2508e-05)
(0.0017402 -9.6371e-05 -3.6802e-05)
(0.0018349 -3.2522e-05 -1.1779e-05)
(0.0018296 1.5252e-05 7.7394e-06)
(0.0017858 1.311e-05 6.53e-06)
(0.0017809 -2.7269e-05 -1.0307e-05)
(0.0018464 -7.8825e-05 -3.0171e-05)
(0.0019794 -0.00012915 -4.9224e-05)
(0.0021758 -0.00018002 -6.8993e-05)
(0.0024403 -0.00023894 -9.2767e-05)
(0.0027878 -0.00031212 -0.00012292)
(0.0032404 -0.00040205 -0.0001597)
(0.0038191 -0.00050674 -0.00020167)
(0.004542 -0.00062729 -0.00024892)
(0.0054339 -0.00077567 -0.00030706)
(0.0065424 -0.00097373 -0.00038596)
(0.0079486 -0.0012437 -0.00049467)
(0.0097572 -0.0015934 -0.00063459)
(0.012068 -0.0020117 -0.00079913)
(0.014959 -0.0024879 -0.00098248)
(0.018504 -0.003038 -0.0011923)
(0.022822 -0.0037121 -0.001451)
(0.028115 -0.0045688 -0.0017821)
(0.034646 -0.0056304 -0.0021907)
(0.042673 -0.0068554 -0.0026525)
(0.052359 -0.0081542 -0.003124)
(0.063738 -0.0094463 -0.0035727)
(0.076765 -0.01071 -0.003997)
(0.091417 -0.01198 -0.0044181)
(0.10774 -0.013276 -0.0048435)
(0.12573 -0.01449 -0.0052198)
(0.14519 -0.015354 -0.0054247)
(0.16546 -0.015496 -0.0053026)
(0.18541 -0.014559 -0.0047218)
(0.20352 -0.012343 -0.0036312)
(0.2181 -0.0089257 -0.0021103)
(0.22783 -0.0048754 -0.00047647)
(0.23262 -0.001191 0.00069581)
(0.23264 0.0025788 0.0012733)
(0.22791 0.0060632 0.0024408)
(0.2188 0.0092901 0.0035748)
(0.20543 0.012576 0.0048033)
(0.18762 0.015731 0.0060649)
(0.16589 0.017648 0.0068688)
(0.14302 0.016682 0.0065696)
(0.1249 0.011249 0.0045358)
(0.11522 0.0023623 0.0010749)
(0.0014648 -3.7725e-05 -9.2447e-06)
(0.0015804 -8.2778e-05 -2.0109e-05)
(0.0017263 -7.3183e-05 -1.7225e-05)
(0.0018142 -2.6495e-05 -4.9892e-06)
(0.0018202 9.8513e-06 5.6936e-06)
(0.0017933 8.9649e-06 5.2245e-06)
(0.0017969 -2.2269e-05 -3.6131e-06)
(0.0018634 -6.1985e-05 -1.3101e-05)
(0.0019965 -0.00010176 -2.2407e-05)
(0.0021946 -0.00014247 -3.2143e-05)
(0.0024629 -0.00018918 -4.3637e-05)
(0.0028158 -0.00024654 -5.7987e-05)
(0.0032739 -0.00031674 -7.5463e-05)
(0.0038582 -0.00039916 -9.5662e-05)
(0.004589 -0.00049541 -0.00011889)
(0.0054944 -0.00061412 -0.00014738)
(0.0066239 -0.00077127 -0.00018531)
(0.0080561 -0.00098301 -0.00023653)
(0.0098905 -0.0012559 -0.00030212)
(0.012224 -0.0015839 -0.00038015)
(0.01514 -0.0019611 -0.000469)
(0.018721 -0.0024004 -0.00057218)
(0.023093 -0.0029376 -0.00069902)
(0.028453 -0.0036139 -0.00085922)
(0.03505 -0.004446 -0.0010557)
(0.043125 -0.005406 -0.0012798)
(0.052834 -0.0064325 -0.0015153)
(0.064224 -0.0074676 -0.0017489)
(0.077271 -0.0084915 -0.0019776)
(0.091955 -0.0095232 -0.0022079)
(0.1083 -0.010568 -0.0024412)
(0.12627 -0.011545 -0.0026557)
(0.14561 -0.012259 -0.002802)
(0.16568 -0.012437 -0.0028155)
(0.18537 -0.011814 -0.0026402)
(0.20321 -0.010232 -0.0022544)
(0.21764 -0.0077415 -0.0016977)
(0.22744 -0.004724 -0.0011117)
(0.23236 -0.0017606 -0.00071356)
(0.23227 0.0014672 -0.00045734)
(0.22738 0.0042952 0.00016127)
(0.2182 0.0069625 0.00086498)
(0.20476 0.0096147 0.0015226)
(0.18713 0.012014 0.0021341)
(0.16602 0.013363 0.0025057)
(0.14408 0.012513 0.0023922)
(0.12678 0.0082728 0.0015304)
(0.11762 0.0014837 5.5088e-05)
(0.0014819 -2.6605e-05 2.0263e-07)
(0.0015855 -5.8697e-05 6.1893e-07)
(0.0017183 -5.2584e-05 9.1339e-07)
(0.0018026 -2.0398e-05 1.2422e-06)
(0.0018153 4.3788e-06 1.3545e-06)
(0.0017975 3.9111e-06 1.5176e-06)
(0.001807 -1.7661e-05 1.7813e-06)
(0.0018752 -4.6938e-05 1.7398e-06)
(0.0020086 -7.6807e-05 1.6229e-06)
(0.0022078 -0.00010766 1.3885e-06)
(0.0024786 -0.00014301 1.0712e-06)
(0.002835 -0.00018617 6.4088e-07)
(0.0032968 -0.00023873 2.2414e-07)
(0.003885 -0.00030062 -1.6705e-07)
(0.0046213 -0.00037323 -4.6577e-07)
(0.0055359 -0.00046304 -6.16e-07)
(0.0066791 -0.00058167 -5.8731e-07)
(0.0081283 -0.0007406 -4.0495e-07)
(0.0099797 -0.00094465 -1.1361e-07)
(0.012329 -0.0011899 2.017e-07)
(0.015261 -0.0014732 4.6955e-07)
(0.018866 -0.0018043 6.4301e-07)
(0.023273 -0.0022092 6.6061e-07)
(0.028675 -0.0027167 5.5413e-07)
(0.035311 -0.0033382 3.0957e-07)
(0.043411 -0.0040533 1.2875e-07)
(0.053128 -0.0048183 4.3869e-08)
(0.064512 -0.0055916 -8.6522e-10)
(0.077549 -0.0063588 -4.143e-08)
(0.092223 -0.007131 -9.1303e-08)