/*--------------------------------*- C++ -*----------------------------------*\
| =========                 |                                                 |
| \\      /  F ield         | OpenFOAM: The Open Source CFD Toolbox           |
|  \\    /   O peration     | Version:  4.1                                   |
|   \\  /    A nd           | Web:      www.OpenFOAM.org                      |
|    \\/     M anipulation  |                                                 |
\*---------------------------------------------------------------------------*/
FoamFile
{
    version     2.0;
    format      ascii;
    class       volScalarField;
    location    "0.000470";
    object      epsilon;
}
// * * * * * * * * * * * * * * * * * * * * * * * * * * * * * * * * * * * * * //

dimensions      [0 2 -3 0 0 0 0];

internalField   nonuniform List<scalar> 
3072
(
85.690608
78.051006
79.9332
80.266248
81.592788
82.532288
83.469427
84.270652
84.715276
85.08282
84.889774
84.590685
84.040498
83.345999
82.621119
81.654874
80.697589
79.528064
78.31766
77.09169
75.925757
75.565779
75.279628
75.347112
56.682992
58.973544
60.459081
60.836701
61.4782
62.043499
62.784033
63.531812
64.164577
64.744597
64.930162
65.033472
64.913214
64.662719
64.3468
63.822543
63.314714
62.626304
61.952925
61.33073
60.855232
60.865112
60.954816
61.305193
42.069296
44.244344
45.265828
45.667047
46.117441
46.506155
47.014102
47.51329
47.954263
48.318175
48.444594
48.508126
48.394952
48.188254
47.892372
47.463818
47.02224
46.44641
45.872934
45.325487
44.905613
44.906842
45.025758
45.405592
34.486755
35.69291
36.289187
36.587739
36.889179
37.200309
37.599324
37.966092
38.312913
38.5489
38.633017
38.611888
38.446498
38.205399
37.847887
37.404021
36.908666
36.330532
35.756433
35.192726
34.752535
34.661349
34.7448
35.0981
30.339605
30.091747
30.415604
30.635346
30.920308
31.297647
31.712634
32.117391
32.50051
32.759834
32.902615
32.889514
32.743075
32.485382
32.09841
31.629742
31.065076
30.437224
29.791463
29.148979
28.622521
28.383485
28.36
28.619775
29.288176
26.455597
26.537782
26.700292
27.096828
27.631454
28.224625
28.825515
29.369083
29.784509
30.042416
30.111061
30.012219
29.743401
29.315627
28.757562
28.078328
27.317337
26.50715
25.700667
24.997637
24.548767
24.357148
24.464341
33.419501
25.743713
25.413632
25.633891
26.376738
27.339098
28.397268
29.451662
30.405476
31.143974
31.603005
31.768838
31.642363
31.241526
30.587033
29.720842
28.67113
27.491135
26.252949
25.042547
23.968061
23.156352
22.684481
22.562269
47.551671
31.465322
30.155325
30.683747
32.197706
34.062417
36.051507
37.98526
39.697567
41.040577
41.921637
42.306847
42.197778
41.583703
40.508368
39.029959
37.217072
35.127011
32.828292
30.454931
28.260033
26.501154
25.312715
24.720924
56.684802
58.992856
60.484191
60.862026
61.504672
62.077866
62.828583
63.583993
64.216072
64.789015
64.965279
65.059788
64.932001
64.677958
64.359991
63.834147
63.324709
62.636142
61.964564
61.345342
60.871917
60.880438
60.96906
61.319642
36.018967
40.875444
42.37579
42.866931
43.140649
43.390438
43.81792
44.323631
44.839226
45.334683
45.610776
45.85306
45.957646
45.990399
45.968409
45.80014
45.624484
45.286633
44.943303
44.61333
44.38717
44.472238
44.573117
44.861873
26.68689
29.444242
30.338645
30.645366
30.776247
30.865993
31.035486
31.240407
31.448067
31.624452
31.682811
31.709559
31.644338
31.532675
31.370401
31.129333
30.866194
30.50996
30.147436
29.795682
29.526965
29.517024
29.574918
29.808173
22.769594
24.336176
24.74094
24.797385
24.764462
24.733584
24.750451
24.780313
24.819139
24.82163
24.75907
24.650789
24.481298
24.279745
24.029222
23.739213
23.424169
23.073635
22.731579
22.408147
22.16641
22.117387
22.17814
22.399471
20.871989
21.547982
21.668332
21.57946
21.493883
21.454534
21.447837
21.452347
21.462735
21.431793
21.355402
21.219199
21.031561
20.803093
20.524705
20.214593
19.872429
19.516118
19.168951
18.846228
18.60059
18.509451
18.548747
18.743849
20.489459
20.11326
20.062217
19.903655
19.851547
19.876759
19.949648
20.038995
20.114958
20.146221
20.113423
20.003936
19.823416
19.572581
19.258576
18.894477
18.493358
18.079458
17.671391
17.297681
17.003067
16.849233
16.851541
17.023861
23.169027
20.740677
20.587682
20.484535
20.640424
20.923935
21.294251
21.687797
22.0413
22.29873
22.426606
22.409897
22.245693
21.931826
21.482616
20.929314
20.300309
19.631661
18.962039
18.337051
17.816354
17.470635
17.352355
17.460548
33.453018
25.798348
25.5041
25.750815
26.49965
27.462421
28.543478
29.607052
30.531551
31.240491
31.692119
31.85316
31.716793
31.297693
30.619996
29.730105
28.670217
27.484807
26.245427
25.040347
23.957727
23.145574
22.668697
22.54136
42.054273
44.238784
45.269546
45.6796
46.145022
46.559961
47.100612
47.622811
48.068767
48.42115
48.526715
48.568324
48.434479
48.212049
47.904221
47.465724
47.016017
46.434572
45.859676
45.314384
44.895953
44.896839
45.013133
45.385979
26.675278
29.42817
30.324558
30.636884
30.778823
30.885264
31.075858
31.294452
31.506846
31.67897
31.726274
31.742033
31.664724
31.542535
31.371629
31.122657
30.85255
30.489896
30.124246
29.77296
29.50573
29.497202
29.554301
29.783963
20.299976
21.597996
21.998575
22.076898
22.047083
21.988714
21.955644
21.934545
21.912015
21.86925
21.770279
21.653241
21.489677
21.305141
21.09999
20.86314
20.617879
20.339352
20.072956
19.834356
19.665722
19.668648
19.751581
19.964377
18.156639
18.88187
18.971069
18.851759
18.672391
18.492341
18.326924
18.168759
18.015552
17.85533
17.674539
17.482547
17.272256
17.056742
16.836391
16.613363
16.396078
16.183259
15.99585
15.844538
15.757698
15.785402
15.899086
16.118041
17.465488
17.929781
17.872609
17.658048
17.42213
17.205824
17.004115
16.807389
16.61361
16.412435
16.202511
15.982205
15.753324
15.52137
15.289188
15.06451
14.850485
14.655438
14.490384
14.365823
14.303564
14.33111
14.447435
14.66186
17.791804
18.035104
17.932319
17.704924
17.500926
17.33094
17.184518
17.043411
16.894374
16.727445
16.538869
16.327311
16.093843
15.840799
15.575443
15.30689
15.043648
14.798094
14.581972
14.410099
14.305245
14.294198
14.391459
14.599824
20.475033
20.127414
20.109057
19.98294
19.954215
19.983334
20.062096
20.152826
20.218977
20.237312
20.186919
20.059794
19.865829
19.599859
19.268493
18.890706
18.479924
18.060124
17.653965
17.284188
16.992272
16.840393
16.844348
17.017337
29.286179
26.482878
26.636042
26.858633
27.308007
27.853373
28.461116
29.059519
29.579407
29.980656
30.214689
30.257068
30.130936
29.832913
29.372587
28.787263
28.087743
27.311855
26.498603
25.694873
24.991736
24.54372
24.35153
24.455807
34.463888
35.673597
36.282284
36.59699
36.920467
37.260836
37.707842
38.109235
38.46589
38.690878
38.753335
38.708968
38.520294
38.260186
37.884525
37.42551
36.917519
36.328406
35.746188
35.178711
34.733539
34.639304
34.715582
35.058021
22.752503
24.313837
24.725056
24.791828
24.774591
24.763487
24.80842
24.860725
24.90758
24.905692
24.832363
24.711915
24.528825
24.31534
24.052512
23.751613
23.426635
23.066262
22.716834
22.390021
22.14529
22.095046
22.152434
22.369423
18.151896
18.876357
18.967788
18.851149
18.675781
18.499802
18.340455
18.187292
18.03564
17.875121
17.692955
17.499018
17.286213
17.069132
16.846827
16.621261
16.401065
16.184797
15.994421
15.841553
15.753349
15.78058
15.893725
16.112704
16.803308
17.218826
17.134881
16.894341
16.615178
16.345425
16.086638
15.835142
15.590316
15.352387
15.11715
14.887405
14.660561
14.443516
14.239788
14.052161
13.885321
13.741916
13.632671
13.565363
13.554322
13.620864
13.761632
13.984762
16.633384
16.995687
16.871798
16.602449
16.301884
16.01621
15.741722
15.471153
15.204441
14.943554
14.690605
14.445241
14.207132
13.98053
13.770091
13.581071
13.417172
13.283003
13.18585
13.132533
13.133943
13.202538
13.344328
13.564277
17.469277
17.953798
17.917525
17.720204
17.494552
17.283372
17.084099
16.884575
16.680775
16.46931
16.249756
16.018262
15.778425
15.536519
15.293533
15.059602
14.840905
14.644526
14.481762
14.361571
14.301844
14.330841
14.448788
14.662838
20.838032
21.54667
21.722051
21.679437
21.625739
21.607477
21.612616
21.615611
21.606809
21.558962
21.468977
21.310379
21.09949
20.848353
20.544998
20.212566
19.856385
19.493384
19.148986
18.835093
18.597696
18.512803
18.557144
18.751537
30.313572
30.116129
30.537792
30.822571
31.138668
31.550007
31.977805
32.374297
32.728005
32.964989
33.095579
33.055096
32.877341
32.587318
32.164164
31.661509
31.073001
30.430329
29.782801
29.146257
28.624579
28.392186
28.370791
28.624189
30.316059
30.068147
30.408077
30.648024
30.957057
31.364938
31.827173
32.267532
32.661615
32.912768
33.038907
33.005805
32.839883
32.562115
32.156695
31.672609
31.094187
30.452943
29.797836
29.148743
28.614272
28.369724
28.337193
28.585809
20.855594
21.529871
21.658825
21.582125
21.510599
21.488604
21.507636
21.533088
21.549965
21.516124
21.433571
21.287805
21.089887
20.849502
20.559628
20.240161
19.888586
19.52267
19.168019
18.839777
18.588225
18.493655
18.528323
18.721251
17.458557
17.921808
17.867414
17.656288
17.423184
17.209534
17.013639
16.820708
16.627248
16.427096
16.218693
15.99709
15.766444
15.533363
15.300613
15.074863
14.858337
14.659762
14.491316
14.363854
14.298455
14.324337
14.440371
14.654994
16.630216
16.991003
16.866716
16.596587
16.294108
16.006188
15.730409
15.458941
15.192267
14.933659
14.683209
14.439317
14.202753
13.978102
13.769427
13.581425
13.418103
13.284022
13.186561
13.133066
13.134371
13.202884
13.345211
13.565146
16.818034
17.245541
17.175648
16.944696
16.668402
16.400616
16.141468
15.884457
15.63216
15.386084
15.144534
14.90722
14.673167
14.449105
14.237642
14.043753
13.875092
13.733563
13.627938
13.565736
13.558315
13.626397
13.768146
13.990077
18.171012
18.922657
19.048704
18.954414
18.786818
18.614679
18.450431
18.281729
18.112517
17.938223
17.746562
17.538229
17.310647
17.077906
16.838553
16.598841
16.373525
16.161048
15.979697
15.839367
15.761515
15.796107
15.915182
16.133682
22.726335
24.325117
24.807982
24.921354
24.921943
24.91737
24.947129
24.96726
24.983536
24.972899
24.904216
24.776573
24.57969
24.346138
24.056945
23.729723
23.391223
23.03283
22.695951
22.388385
22.161445
22.128376
22.200711
22.423092
34.457934
35.727115
36.440591
36.816205
37.152696
37.482916
37.887079
38.235691
38.546653
38.766823
38.847844
38.807161
38.60834
38.325293
37.918272
37.427556
36.900398
36.307227
35.73208
35.179236
34.750645
34.669044
34.758379
35.106939
29.269022
26.436847
26.535988
26.719751
27.136662
27.695235
28.325968
28.961322
29.516234
29.930192
30.176224
30.228781
30.112918
29.825443
29.381887
28.807352
28.113314
27.3381
26.519029
25.706079
24.99367
24.537923
24.339648
24.439619
20.477353
20.10152
20.057271
19.90827
19.864187
19.898542
19.988059
20.094023
20.17732
20.210926
20.174936
20.060793
19.873983
19.614784
19.291458
18.918361
18.508953
18.086863
17.673133
17.294433
16.994013
16.836628
16.837737
17.007837
17.78553
18.026492
17.922825
17.692599
17.4839
17.310157
17.163095
17.022508
16.87582
16.715095
16.532877
16.324811
16.092996
15.841469
15.578168
15.311512
15.049028
14.802745
14.584983
14.411321
14.303917
14.291582
14.389478
14.597736
17.46656
17.947388
17.906252
17.701215
17.466322
17.247084
17.04143
16.840514
16.640489
16.435255
16.222241
15.997478
15.763531
15.525911
15.286808
15.05577
14.839899
14.645802
14.484353
14.365081
14.30638
14.335812
14.453385
14.667659
18.172813
18.923441
19.045273
18.943938
18.768193
18.589185
18.419235
18.250427
18.0865
17.915894
17.726831
17.523236
17.299638
17.069395
16.831301
16.592439
16.368547
16.157603
15.977787
15.839106
15.763178
15.798939
15.918921
16.138724
20.31666
21.652328
22.113988
22.231595
22.21018
22.149711
22.10712
22.062989
22.020138
21.968543
21.868304
21.740067
21.556498
21.342325
21.100769
20.831011
20.568273
20.290305
20.036292
19.819169
19.670059
19.691446
19.789932
20.007182
26.626122
29.415816
30.413541
30.791963
30.958328
31.059922
31.235458
31.421126
31.60493
31.784156
31.861121
31.887757
31.798352
31.638718
31.413532
31.111794
30.809283
30.441005
30.087155
29.758904
29.51382
29.530108
29.60963
29.849975
42.042161
44.29336
45.450852
45.933214
46.410335
46.792465
47.294445
47.760453
48.16305
48.52653
48.676157
48.741766
48.599231
48.337332
47.975586
47.487617
47.00643
46.414536
45.843666
45.311324
44.904704
44.920054
45.045533
45.420262
33.411408
25.728344
25.404505
25.631125
26.379682
27.35435
28.440464
29.525871
30.488686
31.229649
31.689709
31.853256
31.721784
31.307812
30.636451
29.751711
28.692085
27.506281
26.262978
25.050733
23.96576
23.146784
22.672011
22.544236
23.164146
20.731993
20.574697
20.466095
20.618336
20.903067
21.278998
21.684774
22.049773
22.316762
22.450084
22.435422
22.269769
21.950928
21.495961
20.93954
20.309493
19.639819
18.968614
18.341877
17.817493
17.471204
17.352385
17.459514
20.477213
20.124575
20.094332
19.951233
19.905976
19.923257
19.99372
20.085394
20.161917
20.190494
20.152137
20.038985
19.853457
19.590341
19.260995
18.88755
18.482474
18.068039
17.663989
17.294872
17.003352
16.851852
16.855547
17.027456
20.849892
21.558793
21.721379
21.657533
21.581087
21.544368
21.535383
21.540497
21.545468
21.507721
21.426641
21.28177
21.080972
20.832105
20.53
20.200427
19.849295
19.491688
19.151248
18.839473
18.603522
18.519324
18.563762
18.75852
22.747582
24.356115
24.826295
24.918417
24.898278
24.870971
24.884878
24.906845
24.939006
24.936674
24.87287
24.755486
24.564607
24.330233
24.039045
23.712515
23.376447
23.020937
22.687587
22.383202
22.158968
22.129081
22.204084
22.43005
26.646372
29.450593
30.441803
30.805938
30.956235
31.04098
31.203565
31.388214
31.581044
31.764054
31.843224
31.875321
31.787852
31.625677
31.39849
31.097056
30.795543
30.428121
30.076689
29.752162
29.512445
29.532909
29.616458
29.860016
35.885267
40.761261
42.395608
42.974044
43.283109
43.52413
43.934032
44.423061
44.923129
45.451469
45.793589
46.079593
46.178575
46.15716
46.058922
45.818638
45.594606
45.238221
44.901639
44.592977
44.393636
44.498907
44.618476
44.914488
56.649116
58.984644
60.620173
61.079296
61.742638
62.280432
62.984687
63.690745
64.288548
64.894441
65.141173
65.278476
65.141437
64.835032
64.453117
63.873883
63.329809
62.625352
61.953257
61.343353
60.882983
60.897575
60.983842
61.321327
47.543705
31.453506
30.138859
30.66051
32.167265
34.030065
36.026937
37.979421
39.713366
41.07104
41.960632
42.350129
42.239556
41.618133
40.533349
39.047115
37.229147
35.136986
32.839361
30.467842
28.266201
26.506076
25.315384
24.720799
33.447783
25.790063
25.477219
25.702996
26.435485
27.388421
28.455526
29.528777
30.481532
31.215955
31.679868
31.845154
31.708232
31.288778
30.612666
29.727873
28.671229
27.489851
26.255836
25.050635
23.970126
23.157425
22.682302
22.555063
29.294676
26.487098
26.61738
26.808137
27.223668
27.744926
28.334203
28.943825
29.488423
29.905394
30.156081
30.215052
30.10063
29.804257
29.345553
28.76728
28.07688
27.309931
26.502676
25.702048
25.001044
24.555126
24.363862
24.468455
30.333855
30.137636
30.533355
30.786248
31.072497
31.451672
31.860563
32.269032
32.650421
32.906623
33.046086
33.021224
32.852593
32.560869
32.13666
31.637487
31.055434
30.419752
29.777898
29.144339
28.624552
28.393872
28.373425
28.628385
34.483888
35.757467
36.448558
36.794354
37.10275
37.405067
37.790833
38.147027
38.485358
38.721318
38.8103
38.78153
38.587395
38.300901
37.890714
37.401843
36.87898
36.290501
35.720132
35.170553
34.744721
34.66774
34.760282
35.112358
42.060679
44.314988
45.455663
45.918275
46.376428
46.73919
47.227699
47.697297
48.116556
48.490979
48.646886
48.719664
48.579458
48.315223
47.952479
47.466686
46.988618
46.399652
45.832278
45.303626
44.904059
44.922459
45.052496
45.43053
56.645708
58.97011
60.592912
61.045943
61.706781
62.242784
62.94561
63.657208
64.262308
64.873346
65.124198
65.264385
65.129529
64.825186
64.445709
63.868778
63.326265
62.622948
61.95174
61.342064
60.881652
60.895679
60.982185
61.321062
85.847562
78.202327
80.205997
80.590181
81.903266
82.793929
83.696491
84.412359
84.810937
85.211672
85.087022
84.821842
84.254678
83.50815
82.722218
81.705237
80.713034
79.526753
78.312294
77.093091
75.939062
75.574445
75.271975
75.312869
118.23523
116.79296
115.6411
114.67257
114.05328
113.66946
113.46586
113.39812
113.32537
113.38647
113.38044
113.48181
113.58824
113.67103
113.80841
113.77021
113.92268
114.10056
114.5387
115.33584
116.5644
119.32194
121.36673
147.75759
89.386789
88.401433
87.739896
87.283085
87.315887
87.554147
87.924171
88.384828
88.800342
89.30473
89.714199
90.153395
90.539708
90.837294
91.121583
91.154469
91.258801
91.285131
91.399654
91.679149
92.07865
93.318986
93.928189
106.3678
71.275485
70.562529
70.187254
70.052785
70.401693
70.935648
71.56478
72.253345
72.882132
73.553421
74.133007
74.656469
75.094822
75.371864
75.599745
75.592902
75.522483
75.346403
75.143003
75.017289
74.872613
75.201276
75.308967
81.813914
59.218749
58.716014
58.589741
58.759158
59.365714
60.157556
60.994315
61.873976
62.696478
63.484907
64.18833
64.75136
65.215348
65.48115
65.596247
65.491028
65.193744
64.787016
64.229992
63.709272
63.154472
62.788708
62.573456
67.367013
50.718777
50.439718
50.611001
51.147586
52.083041
53.199253
54.338152
55.460681
56.522846
57.463709
58.298232
58.943262
59.390254
59.604924
59.529608
59.216556
58.61482
57.824005
56.860536
55.795853
54.75933
53.799352
53.332458
59.554708
44.759115
44.852038
45.474505
46.572883
48.057048
49.692003
51.337928
52.901715
54.340741
55.6064
56.659923
57.431799
57.906061
58.009683
57.710599
57.013601
55.916005
54.513935
52.847844
51.072859
49.287498
47.864281
47.408563
58.780787
41.424746
42.263029
43.772422
45.903472
48.429642
51.074774
53.674396
56.12793
58.359278
60.2903
61.865323
63.010146
63.668458
63.75963
63.221327
62.015238
60.156546
57.760275
54.981894
52.045033
49.2075
47.210222
47.4991
67.08086
43.588876
45.722785
48.992065
53.086063
57.597387
62.162333
66.573525
70.709085
74.460474
77.735462
80.410341
82.386
83.545081
83.802887
83.056511
81.225161
78.324785
74.508214
70.062261
65.379693
60.972391
58.385413
59.408301
90.029399
133.48594
131.55091
130.4573
130.05363
130.20849
130.84317
131.92992
133.44711
135.38881
137.75065
140.52962
143.73586
147.35849
151.40455
155.86202
160.70872
165.94147
171.52692
177.5077
184.00939
191.49177
201.51424
217.82453
288.82912
118.14342
116.33603
115.22987
114.73952
114.76268
115.23387
116.12581
117.41327
119.0913
121.14641
123.57415
126.37242
129.52969
133.04934
136.91428
141.11532
145.64107
150.47181
155.63277
161.22093
167.60628
175.95738
189.19037
240.18809
108.54461
106.78433
105.65785
105.10804
105.04798
105.42055
106.20051
107.36412
108.90701
110.81585
113.08344
115.70432
118.6647
121.96264
125.57693
129.49977
133.71887
138.21852
143.01067
148.16545
153.97521
161.31945
172.48503
210.91757
103.61993
101.84842
100.68583
100.08135
99.95672
100.25856
100.96321
102.05115
103.51684
105.35239
107.54919
110.10255
113.00015
116.23361
119.78416
123.63539
127.77351
132.17959
136.8515
141.83834
147.35581
154.07097
163.8184
194.24995
102.61115
100.75974
99.526787
98.852439
98.659588
98.896931
99.540567
100.57763
102.0025
103.80891
105.99322
108.54812
111.47082
114.75023
118.36706
122.30453
126.53476
131.03926
135.79534
140.83499
146.31238
152.74243
161.71306
187.20471
105.33818
103.31661
101.95563
101.17651
100.89465
101.05947
101.64494
102.64201
104.04905
105.86311
108.08255
110.70363
113.72803
117.14712
120.94912
125.11202
129.60223
134.39208
139.44266
144.76791
150.47623
156.99906
165.86436
188.7712
112.15892
109.8262
108.23323
107.277
106.85375
106.90599
107.40213
108.34
109.72767
111.56563
113.85748
116.60178
119.80207
123.45903
127.56227
132.09401
137.01955
142.30393
147.90037
153.79662
160.08699
167.17044
176.73528
199.39561
123.76302
120.84197
118.76686
117.44544
116.77107
116.66769
117.09246
118.02635
119.47268
121.43002
123.90474
126.89786
130.41768
134.47226
139.06547
144.19803
149.84977
155.98072
162.52004
169.42454
176.77158
184.98974
196.17358
221.49155
43.584927
45.720208
48.993824
53.090388
57.604641
62.172553
66.586091
70.721843
74.471833
77.741889
80.40723
82.37036
83.514548
83.758466
83.00143
81.157968
78.253201
74.442694
70.003351
65.322825
60.923482
58.345628
59.377488
90.005104
41.414251
42.251819
43.762011
45.897218
48.428528
51.0821
53.68915
56.150866
58.391327
60.327176
61.909758
63.061788
63.721805
63.80966
63.268954
62.066209
60.214944
57.819109
55.022674
52.075251
49.227212
47.224046
47.493424
67.070015
44.756441
44.849908
45.474042
46.573506
48.060251
49.698597
51.348903
52.918596
54.369321
55.64673
56.712124
57.494719
57.976512
58.085242
57.799326
57.119963
56.027684
54.615987
52.937266
51.149311
49.345347
47.899052
47.413197
58.776799
50.724379
50.449558
50.621116
51.154089
52.086669
53.201609
54.342216
55.471564
56.543065
57.495637
58.344489
59.003872
59.465414
59.694918
59.637378
59.336815
58.748617
57.960945
56.982166
55.901322
54.846046
53.859019
53.352089
59.561201
59.231849
58.734089
58.605601
58.767407
59.365412
60.15014
60.985382
61.867969
62.699781
63.50471
64.228504
64.812479
65.297447
65.581187
65.708915
65.62201
65.351084
64.951251
64.383933
63.853635
63.282017
62.881769
62.619213
67.388292
71.301032
70.591732
70.211125
70.06386
70.396997
70.916651
71.538047
72.226783
72.868294
73.563243
74.173473
74.728568
75.19331
75.483622
75.718602
75.729021
75.689829
75.532647
75.327742
75.205796
75.050023
75.344841
75.395382
81.863813
89.428257
88.445277
87.775466
87.301147
87.310315
87.52803
87.886469
88.347471
88.781625
89.317146
89.766978
90.2455
90.657697
90.958679
91.234215
91.275648
91.414678
91.475855
91.608554
91.900298
92.289876
93.494407
94.041697
106.42518
118.28165
116.84494
115.68247
114.68983
114.04522
113.63851
113.42211
113.35564
113.30305
113.40048
113.43853
113.57916
113.70498
113.77981
113.89493
113.86228
114.05108
114.27996
114.75277
115.57473
116.80532
119.52915
121.50839
147.84952
123.76034
120.84277
118.76795
117.446
116.77058
116.66634
117.09041
118.02385
119.47039
121.42887
123.90559
126.90072
130.42113
134.47587
139.07095
144.20714
149.86278
155.99627
162.53667
169.43992
176.78231
184.99495
196.17479
221.4914
112.15452
109.82714
108.23435
107.27591
106.84945
106.89818
107.39077
108.32588
109.71325
111.55459
113.85417
116.60772
119.81455
123.47513
127.58358
132.12488
137.0614
142.35301
147.95116
153.84243
160.12175
167.19217
176.74713
199.40283
105.33253
103.31654
101.95487
101.17162
100.88373
101.0417
101.62031
102.61179
104.01743
105.83647
108.06803
110.70389
113.73885
117.16465
120.97691
125.15669
129.66418
134.46362
139.51414
144.83098
150.52532
157.03218
165.88417
188.78254
102.60478
100.7588
99.524221
98.843973
98.642448
98.869823
99.503669
100.53328
101.95612
103.76859
105.96772
108.54112
111.47841
114.76915
118.40147
122.36166
126.61329
131.12712
135.88071
140.91094
146.3739
152.78696
161.74059
187.21895
103.61219
101.84612
100.68138
100.06951
99.933592
100.22234
100.91481
101.99484
103.45979
105.30365
107.51888
110.09507
113.01172
116.2614
119.83207
123.70906
127.86825
132.28151
136.94985
141.92778
147.432
154.1291
163.85388
194.26441
108.53523
106.78087
105.65259
105.09473
105.02121
105.37799
106.14426
107.30096
108.84628
110.76791
113.05935
115.70736
118.69015
122.00803
125.6439
129.59048
133.82677
138.33076
143.12024
148.26864
154.06583
161.38794
172.52136
210.92281
118.13263
116.33224
115.22595
114.72842
114.73761
115.1923
116.0713
117.35467
119.03958
121.11367
123.57054
126.39701
129.57591
133.11429
136.9966
141.21381
145.74999
150.58283
155.7427
161.32607
167.69577
176.01502
189.20248
240.16297
133.47411
131.54645
130.45439
130.04521
130.1873
130.80748
131.88474
133.40197
135.3547
137.7389
140.54716
143.77715
147.4134
151.46746
155.92998
160.78155
166.01809
171.60503
177.58667
184.08483
191.54699
201.52617
217.77761
288.74338
118.27354
116.83263
115.67053
114.68216
114.03891
113.63292
113.41727
113.3515
113.2993
113.39619
113.43171
113.56943
113.69281
113.76497
113.87652
113.84358
114.02955
114.25892
114.73079
115.55251
116.78542
119.51173
121.49517
147.84835
89.431723
88.444667
87.769314
87.291097
87.298773
87.515852
87.873113
88.332712
88.765647
89.298636
89.744202
90.217847
90.625098
90.92167
91.192068
91.228095
91.363755
91.424635
91.560858
91.855789
92.247908
93.453707
94.008885
106.40867
71.304231
70.591103
70.205318
70.053906
70.384561
70.902527
71.521299
72.206745
72.844762
73.53612
74.142684
74.693654
75.152756
75.438105
75.66575
75.666066
75.616843
75.456551
75.260556
75.146215
74.997575
75.300082
75.36402
81.842641
59.233415
58.733136
58.601676
58.761177
59.35707
60.139723
60.970925
61.848286
62.674388
63.474111
64.193857
64.774363
65.254378
65.531515
65.652784
65.553937
65.266399
64.860218
64.302393
63.785877
63.227786
62.843514
62.597143
67.376921
50.726154
50.45131
50.621517
51.153695
52.084289
53.196264
54.332371
55.454639
56.518159
57.462383
58.305584
58.961751
59.419404
59.643358
59.577374
59.265328
58.6605
57.863427
56.89355
55.827783
54.790856
53.823117
53.335675
59.55327
44.760433
44.856097
45.480311
46.578891
48.062618
49.69686
51.34166
52.904709
54.345652
55.613241
56.670757
57.449907
57.930992
58.037719
57.74248
57.046444
55.93871
54.521367
52.847178
51.072548
49.289025
47.863382
47.396139
58.765825
41.422558
42.261903
43.771939
45.905963
48.434337
51.082408
53.683757
56.139797
58.373104
60.303588
61.880022
63.028033
63.688307
63.775543
63.22938
62.013068
60.142268
57.734065
54.943733
52.007332
49.178999
47.192678
47.472978
67.054186
43.583791
45.724415
48.999859
53.097115
57.612194
62.178724
66.591503
70.72811
74.480651
77.753955
80.423505
82.391404
83.537435
83.782074
83.022245
81.174643
78.259816
74.430837
69.976834
65.291909
60.895265
58.322355
59.358907
89.991189
133.47343
131.54372
130.45141
130.04249
130.18534
130.80695
131.8855
133.40222
135.35229
137.7321
140.53395
143.75707
147.3873
151.43574
155.89306
160.74132
165.97718
171.56401
177.54427
184.04179
191.50497
201.48606
217.74384
288.7209
118.13755
116.33336
115.22605
114.72857
114.73891
115.19584
116.07624
117.35753
119.03689
121.10164
123.54445
126.35647
129.52347
133.05019
136.92063
141.12776
145.65803
150.48769
155.64499
161.22859
167.60195
175.92624
189.12766
240.11386
108.54201
106.78256
105.65311
105.09558
105.02352
105.38271
106.15045
107.30485
108.84353
110.75415
113.02919
115.65977
118.62872
121.93455
125.55708
129.48839
133.71222
138.20894
142.9953
148.14689
153.9524
161.28419
172.43598
210.86754
103.61762
101.84588
100.68014
100.06908
99.934825
100.22578
100.91961
101.99796
103.45698
105.28932
107.48704
110.04449
112.94724
116.187
119.74453
123.60206
127.74143
132.14153
136.80693
141.79264
147.31147
154.02507
163.77167
194.20978
102.60736
100.7558
99.520728
98.841813
98.642141
98.871489
99.506719
100.53557
101.95324
103.75391
105.93491
108.48936
111.41327
114.69463
118.31306
122.25056
126.47693
130.97363
135.7236
140.76452
146.24779
152.68365
161.66224
187.16607
105.3326
103.31132
101.94946
101.16778
100.88177
101.04146
101.62136
102.61257
104.01358
105.82078
108.03369
110.65105
113.67413
117.0911
120.88818
125.04346
129.52296
134.30202
139.34734
144.67598
150.39348
156.92752
165.80718
188.72998
112.15295
109.8207
108.22788
107.27094
106.84605
106.89614
107.38995
108.32508
109.70828
111.53869
113.82181
116.55955
119.75567
123.40694
127.50011
132.01791
136.92812
142.20044
147.79226
153.69272
159.99311
167.08916
176.67058
199.35002
123.75748
120.83691
118.76235
117.44128
116.76696
116.66352
117.08837
118.0218
119.46478
121.41421
123.87819
126.86172
130.37442
134.42145
139.0038
144.12185
149.75843
155.87806
162.41277
169.32065
176.67608
184.90596
196.10595
221.44294
43.590139
45.727868
49.002084
53.097904
57.612966
62.17969
66.591901
70.73079
74.487361
77.766438
80.443033
82.414266
83.564121
83.805927
83.043915
81.194131
78.274585
74.44665
70.00006
65.322158
60.924173
58.347863
59.380328
90.00664
41.412821
42.256416
43.773116
45.912095
48.446588
51.099799
53.708729
56.171786
58.414594
60.355263
61.943871
63.099402
63.761112
63.846862
63.297889
62.078295
60.202228
57.784063
54.985401
52.031337
49.181425
47.179239
47.472546
67.064787
44.746327
44.84614
45.478052
46.584857
48.077641
49.720014
51.375141
52.949821
54.402429
55.681918
56.75098
57.53626
58.018943
58.126762
57.827201
57.123581
56.005785
54.571932
52.87431
51.072109
49.275585
47.841908
47.380844
58.761143
50.704888
50.435206
50.614048
51.156379
52.097598
53.219944
54.367141
55.500339
56.573263
57.526275
58.375675
59.036076
59.49514
59.720039
59.653487
59.339402
58.723087
57.901832
56.897999
55.805609
54.748437
53.774873
53.301702
59.528551
59.202694
58.708713
58.5886
58.761511
59.370794
60.165702
61.008328
61.894668
62.724696
63.522955
64.240225
64.818818
65.299166
65.581066
65.70953
65.609964
65.303517
64.867437
64.272151
63.721949
63.145855
62.767943
62.546144
67.341152
71.265939
70.559247
70.187213
70.052913
70.400476
70.933007
71.562915
72.253857
72.887381
73.565602
74.15682
74.69619
75.154186
75.450271
75.693307
75.693977
75.617273
75.416983
75.182987
75.029326
74.867506
75.187952
75.29074
81.792604
89.392209
88.409966
87.749157
87.290709
87.318398
87.552536
87.91992
88.379963
88.79863
89.307528
89.725004
90.177328
90.581949
90.894051
91.189615
91.227968
91.327978
91.338344
91.431098
91.692517
92.082365
93.317969
93.923685
106.36387
118.24232
116.79952
115.64735
114.6799
114.05956
113.6741
113.46882
113.40036
113.32927
113.3935
113.38861
113.49447
113.60754
113.69829
113.84175
113.80278
113.95155
114.12537
114.55729
115.35027
116.57825
119.33527
121.37712
147.76441
123.75642
120.83793
118.7628
117.44065
116.76503
116.66024
117.08375
118.01568
119.45732
121.40661
123.87299
126.86132
130.38004
134.43307
139.02004
144.14119
149.77855
155.89728
162.43132
169.33704
176.68836
184.91368
196.10996
221.4429
112.15203
109.82393
108.23038
107.2719
106.84576
106.89495
107.38751
108.32009
109.70039
111.53098
113.81933
116.56436
119.76653
123.42288
127.52153
132.04666
136.96538
142.24415
147.83769
153.7332
160.02363
167.10925
176.68197
199.35464
105.32869
103.31258
101.95043
101.16777
100.88142
101.04117
101.62038
102.60926
104.00712
105.81394
108.03248
110.65839
113.68853
117.11058
120.91234