/*--------------------------------*- C++ -*----------------------------------*\
| =========                 |                                                 |
| \\      /  F ield         | foam-extend: Open Source CFD                    |
|  \\    /   O peration     | Version:     4.1-20200408                       |
|   \\  /    A nd           | Web:         http://www.foam-extend.org         |
|    \\/     M anipulation  |                                                 |
\*---------------------------------------------------------------------------*/
FoamFile
{
    version     2.0;
    format      ascii;
    class       volScalarField;
    location    "0.0210000";
    object      epsilonTrueEq;
}
// * * * * * * * * * * * * * * * * * * * * * * * * * * * * * * * * * * * * * //

dimensions      [0 0 0 0 0 0 0];

internalField   nonuniform List<scalar> 
1952
(
0.00514535
0.00515293
0.00516545
0.00518068
0.00520054
0.0052224
0.00524885
0.00527164
0.00529822
0.00531449
0.00532748
0.00531984
0.00530171
0.00523536
0.00514995
0.00514156
0.00525224
0.00526004
0.00527308
0.00528857
0.00530958
0.00533216
0.00536006
0.00538383
0.00541214
0.00542771
0.00544267
0.00543057
0.00540297
0.00531049
0.00515849
0.00524848
0.00534801
0.00535583
0.00536911
0.00538451
0.00540606
0.00542846
0.00545606
0.00547989
0.00550736
0.00552002
0.00553245
0.00551163
0.00547083
0.00535894
0.00519938
0.00534424
0.00543077
0.0054385
0.00545183
0.00546693
0.00548846
0.00550988
0.00553636
0.00555934
0.00558455
0.00559311
0.00560069
0.00557098
0.00551926
0.00539583
0.00523353
0.00542697
0.00550181
0.00550932
0.00552239
0.00553714
0.00555801
0.00557825
0.00560371
0.00562447
0.00564701
0.00565137
0.00565427
0.0056181
0.00555966
0.00543292
0.0052767
0.00549803
0.00556179
0.00556899
0.00558164
0.00559586
0.00561585
0.00563479
0.00565905
0.00567736
0.00569724
0.00569783
0.00569742
0.0056572
0.00559519
0.00546894
0.00531964
0.00555804
0.00561195
0.00561894
0.00563114
0.00564483
0.00566405
0.00568177
0.00570488
0.00572131
0.0057389
0.00573616
0.00573397
0.00569189
0.00562899
0.00550532
0.00536289
0.00560825
0.0056535
0.00566057
0.00567228
0.00568548
0.00570409
0.00572078
0.00574308
0.005758
0.00577409
0.00576945
0.00576582
0.00572312
0.00566096
0.00554051
0.00540413
0.00564956
0.00568746
0.00569496
0.00570646
0.00571906
0.00573737
0.00575318
0.005775
0.00578907
0.00580432
0.00580051
0.005795
0.00575237
0.00569187
0.00557467
0.00544374
0.00568335
0.00571586
0.00572355
0.00573515
0.0057472
0.00576555
0.00578082
0.00580246
0.00581622
0.00583117
0.00582889
0.00582264
0.00578079
0.00572224
0.00560806
0.00548167
0.0057118
0.00574025
0.00574768
0.00575951
0.00577134
0.00578979
0.00580494
0.00582657
0.00584075
0.00585556
0.00585553
0.00584987
0.00580969
0.00575324
0.00564171
0.00551884
0.00573617
0.00576147
0.00576845
0.00578117
0.00579313
0.00581161
0.00582712
0.00584898
0.005864
0.00587921
0.00588108
0.00587655
0.00583844
0.00578416
0.00567487
0.00555461
0.00575756
0.0057807
0.00578739
0.00580098
0.00581309
0.00583177
0.00584796
0.00587027
0.00588634
0.00590191
0.00590588
0.00590286
0.00586678
0.00581456
0.00570713
0.00558895
0.00577695
0.00579871
0.0058057
0.00581925
0.00583176
0.005851
0.0058679
0.00589109
0.00590811
0.00592435
0.00593057
0.00592926
0.00589506
0.0058446
0.00573879
0.00562213
0.00579485
0.00581577
0.00582323
0.00583689
0.00585018
0.00587013
0.00588798
0.00591246
0.00593023
0.00594689
0.00595416
0.0059547
0.00592204
0.00587298
0.00576872
0.00565326
0.00581175
0.00583219
0.00583988
0.00585353
0.00586795
0.00588851
0.00590737
0.00593315
0.00595165
0.00596903
0.00597776
0.00598022
0.00594841
0.00590014
0.0057977
0.00568348
0.00582804
0.00584854
0.00585632
0.00586962
0.00588575
0.00590676
0.00592665
0.00595354
0.00597211
0.00599432
0.0060037
0.00600731
0.00597615
0.00592822
0.00582764
0.00571391
0.00584424
0.00586526
0.00587336
0.00588699
0.00590437
0.00592609
0.005947
0.00597494
0.00599411
0.00602063
0.00603014
0.00603436
0.00600432
0.00595705
0.00585731
0.00574341
0.00586087
0.0058816
0.00589026
0.00590475
0.00592274
0.00594563
0.00596757
0.0059971
0.00601779
0.00604632
0.00605668
0.00606224
0.006033
0.00598656
0.00588663
0.00577193
0.00587714
0.00589808
0.00590733
0.00592266
0.00594145
0.00596543
0.00598856
0.00601969
0.00604151
0.00607269
0.00608395
0.00609064
0.00606241
0.00601656
0.00591598
0.00580015
0.00589352
0.00591479
0.00592462
0.00594087
0.00596045
0.00598572
0.00601013
0.00604281
0.00606584
0.00609925
0.00611135
0.00611891
0.00609201
0.00604649
0.00594513
0.0058288
0.00591008
0.00593153
0.005942
0.00595914
0.00597959
0.00600628
0.00603207
0.00606625
0.00609031
0.00612584
0.00613915
0.00614787
0.00612156
0.00607625
0.00597426
0.00585762
0.00592668
0.00594835
0.00595953
0.00597738
0.00599854
0.00602704
0.00605427
0.00608967
0.00611469
0.0061525
0.00616721
0.00617712
0.00615113
0.00610608
0.00600355
0.00588643
0.00594337
0.00596498
0.00597684
0.00599527
0.0060169
0.0060477
0.00607642
0.00611304
0.00614149
0.00617963
0.00619532
0.00620658
0.00618081
0.00613614
0.00603292
0.00591542
0.00595985
0.00598109
0.00599352
0.0060127
0.00603534
0.00606783
0.00609812
0.00613619
0.00616901
0.00620747
0.00622414
0.00623689
0.0062113
0.00616711
0.00606319
0.00594517
0.00597572
0.00599654
0.00600958
0.00602978
0.00605402
0.00608782
0.00612006
0.00615955
0.00619563
0.00623551
0.0062538
0.00626799
0.00624286
0.0061992
0.0060945
0.00597577
0.00599085
0.00601109
0.00602491
0.00604624
0.00607212
0.00610765
0.00614186
0.0061826
0.00622198
0.00626378
0.00628397
0.00629974
0.00627526
0.00623206
0.00612653
0.00600695
0.00600508
0.00602443
0.00603922
0.00606179
0.00608952
0.00612686
0.00616317
0.00620565
0.00624815
0.00629219
0.00631435
0.00633178
0.00630809
0.0062653
0.00615904
0.00603884
0.00601808
0.00603679
0.00605267
0.00607645
0.00610616
0.00614534
0.00618373
0.00623064
0.00627457
0.00632051
0.00634489
0.00636373
0.00634125
0.00629887
0.00619208
0.00607165
0.00603012
0.00604794
0.00606486
0.00608982
0.00612157
0.00616272
0.0062036
0.00625538
0.00630106
0.00634915
0.00637585
0.00639641
0.00637558
0.00633388
0.00622682
0.00610624
0.00604094
0.00605803
0.00607602
0.00610243
0.00613634
0.00617975
0.00622268
0.00627849
0.00632713
0.00637776
0.00640712
0.00642964
0.00641084
0.00636968
0.00626207
0.00614203
0.00605067
0.00606669
0.00608575
0.00611384
0.00614968
0.00619487
0.00624062
0.00630086
0.0063526
0.00640644
0.00643886
0.00646383
0.00644713
0.0064066
0.00629879
0.00617955
0.00605895
0.00607399
0.00609403
0.00612399
0.00616148
0.00620862
0.00626004
0.0063229
0.0063774
0.00643459
0.00647073
0.00649911
0.00648436
0.00644542
0.00633823
0.00621941
0.00606578
0.00607988
0.00610103
0.00613277
0.00617216
0.00622201
0.00627912
0.00634459
0.00640197
0.00646285
0.00650319
0.00653514
0.00652266
0.00648579
0.00637955
0.0062616
0.00607123
0.00608502
0.00610726
0.00614063
0.006182
0.00623545
0.00629708
0.00636578
0.00642715
0.00649232
0.00653637
0.00657218
0.00656265
0.00652817
0.00642348
0.00630692
0.00607599
0.00609057
0.00611391
0.00614881
0.00619217
0.0062508
0.00631462
0.00638628
0.00645192
0.00652137
0.00656976
0.0066099
0.00660402
0.00657263
0.00647035
0.00635578
0.00608126
0.00609763
0.00612209
0.00615842
0.00620316
0.00626562
0.00633097
0.00640586
0.00647569
0.00654958
0.00660301
0.00664782
0.00664618
0.00661875
0.0065195
0.00640777
0.00608802
0.00610711
0.006132
0.00616923
0.00621585
0.0062806
0.00634763
0.00642569
0.0064992
0.00657747
0.00663612
0.00668605
0.00668952
0.00666688
0.00657173
0.00646433
0.00609724
0.00612046
0.00614528
0.00618297
0.00623294
0.00629857
0.00636632
0.00644697
0.0065234
0.00660581
0.00666997
0.00672509
0.00673431
0.0067179
0.00662843
0.00652716
0.00611041
0.00614174
0.00616573
0.0062049
0.00625487
0.00631974
0.00638774
0.00646981
0.00654867
0.00663494
0.00670439
0.00676484
0.00678053
0.00677175
0.00668943
0.00659573
0.00613189
0.00617377
0.00619705
0.00623626
0.00628294
0.00634598
0.00641293
0.00649499
0.00657512
0.00666459
0.0067387
0.00680469
0.00682825
0.0068275
0.00675416
0.00667032
0.00616432
0.00622066
0.00624354
0.00627946
0.00632163
0.0063814
0.00644494
0.00652524
0.00660469
0.00669592
0.0067737
0.00684496
0.00687728
0.00688545
0.00682339
0.00675219
0.00621135
0.00628953
0.00630848
0.00633912
0.00637518
0.00642933
0.00648657
0.00656292
0.00663922
0.00672976
0.00680976
0.00688536
0.00692688
0.00694526
0.00689714
0.00684168
0.00628123
0.00638385
0.00639671
0.00642075
0.00644901
0.00649441
0.00654218
0.00661153
0.00668123
0.00676771
0.00684757
0.00692588
0.00697643
0.00700593
0.00697479
0.00693904
0.00637746
0.00650862
0.0065151
0.00653142
0.00654931
0.00658309
0.00661831
0.00667601
0.0067347
0.00681292
0.00688884
0.00696713
0.00702553
0.00706661
0.00705582
0.00704456
0.0065043
0.00667165
0.0066708
0.00667803
0.00668327
0.00670249
0.00672191
0.00676273
0.00680534
0.00686999
0.0069365
0.00701057
0.00707409
0.0071263
0.00713923
0.00715778
0.00666962
0.00687986
0.00687121
0.00686811
0.00685898
0.00686093
0.00686087
0.00688022
0.00690095
0.00694549
0.00699548
0.00705887
0.00712241
0.00718338
0.00722263
0.00727674
0.00688032
0.00714067
0.00712401
0.00710995
0.00708546
0.0070683
0.00704591
0.00703965
0.00703289
0.00705005
0.00707486
0.00711854
0.00717341
0.00723724
0.00730282
0.00739914
0.00714365
0.00746078
0.00743653
0.00741171
0.00737208
0.00733544
0.00728948
0.00725507
0.00721655
0.00719984
0.00719035
0.00720345
0.00723686
0.00729184
0.00737664
0.00752014
0.00746618
0.0078436
0.0078129
0.0077786
0.00772549
0.00767083
0.00760238
0.00754004
0.00746846
0.00741436
0.00736421
0.00733761
0.00733623
0.00736718
0.00745488
0.00763695
0.00785105
0.00828919
0.00825388
0.00821242
0.00814901
0.00807988
0.00799267
0.00790592
0.0078042
0.0077141
0.00762242
0.0075537
0.00751071
0.00750818
0.00758242
0.00777547
0.00829811
0.00879435
0.00875682
0.00871142
0.00864212
0.00856377
0.00846382
0.00835915
0.00823365
0.00811319
0.00798385
0.00787571
0.00778929
0.00774795
0.00779364
0.00796381
0.008804
0.00935052
0.00931347
0.00926783
0.00919777
0.00911655
0.00901122
0.00889701
0.00875609
0.00861367
0.00845327
0.00830853
0.00817476
0.008083
0.00807375
0.00817815
0.00936006
0.00994298
0.00990912
0.00986712
0.00980164
0.00972428
0.00962157
0.00950696
0.0093603
0.00920588
0.00902241
0.00884526
0.00866035
0.00850562
0.0084132
0.00841154
0.0099516
0.0105514
0.0105232
0.0104885
0.0104326
0.0103655
0.0102733
0.0101672
0.0100252
0.00986903
0.00967129
0.00946795
0.00923
0.00900203
0.00880052
0.00865752
0.0105583
0.0111514
0.0111308
0.0111064
0.0110642
0.011013
0.0109386
0.0108494
0.0107224
0.0105751
0.0103736
0.010153
0.00986394
0.00955773
0.00922465
0.00890466
0.011156
0.0117152
0.0117036
0.0116916
0.0116662
0.0116352
0.0115839
0.0115183
0.011416
0.0112884
0.0110952
0.0108699
0.0105388
0.0101603
0.00968175
0.00915176
0.0117171
0.0122132
0.0122109
0.0122122
0.0122049
0.0121963
0.0121714
0.0121338
0.0120637
0.0119642
0.0117922
0.0115757
0.0112177
0.0107809
0.0101514
0.00939087
0.0122121
0.0126158
0.0126219
0.0126356
0.0126455
0.0126581
0.0126595
0.0126513
0.0126152
0.0125486
0.0124081
0.0122128
0.0118479
0.0113737
0.0106017
0.00959556
0.012612
0.0129028
0.0129153
0.012939
0.0129627
0.0129928
0.0130167
0.0130344
0.0130294
0.0129948
0.0128912
0.0127267
0.0123817
0.0119088
0.0110363
0.00980309
0.0128967
0.0130584
0.0130738
0.0131025
0.0131334
0.0131723
0.0132084
0.0132403
0.0132538
0.0132365
0.0131554
0.0130007
0.0126651
0.0121722
0.0112119
0.00982977
0.0130509
0.01304
0.0130524
0.0130779
0.0131043
0.0131363
0.0131651
0.0131876
0.0131908
0.0131562
0.0130547
0.0128504
0.0124598
0.0118467
0.0107778
0.00934852
0.0130327
0.0127995
0.0128027
0.0128159
0.0128249
0.0128326
0.012831
0.012815
0.0127712
0.0126766
0.0125062
0.012206
0.0117267
0.0109956
0.00993651
0.00866891
0.0127942
0.0123303
0.0123187
0.0123108
0.0122918
0.012262
0.0122123
0.0121349
0.0120137
0.0118272
0.0115564
0.0111482
0.0105966
0.0098485
0.00897097
0.00803917
0.0123289
0.0116477
0.0116174
0.0115819
0.0115271
0.0114533
0.011349
0.0112023
0.0109925
0.0107052
0.0103301
0.00983022
0.00923751
0.00855604
0.00794491
0.00742832
0.011652
0.0107747
0.0107274
0.010663
0.0105697
0.010452
0.0102969
0.0100886
0.00979908
0.00942369
0.00896335
0.00841535
0.00783093
0.00727138
0.00692561
0.00681065
0.0107845
0.00974947
0.00969285
0.00960566
0.00947678
0.00931581
0.00910934
0.0088438
0.00849298
0.00806048
0.00755873
0.00704847
0.00661006
0.00627045
0.00614917
0.00628033
0.00976101
0.00859597
0.00853295
0.0084307
0.00827453
0.00807175
0.00780786
0.00748593
0.00712173
0.00675106
0.00635811
0.00602493
0.00581714
0.00570345
0.00572249
0.00592557
0.0086081
0.00730411
0.00722724
0.00713171
0.00699055
0.00680306
0.0065571
0.00627566
0.00600683
0.00579816
0.00560133
0.00544477
0.00533859
0.00531773
0.00541179
0.00565404
0.00732472
0.00614442
0.00607043
0.00600125
0.00590768
0.00579063
0.00564608
0.00549401
0.00533969
0.00519788
0.00507296
0.00498647
0.00493204
0.00496535
0.0051084
0.00537798
0.00616956
0.00538628
0.00534214
0.00528501
0.00520688
0.00511814
0.00501664
0.00491694
0.004808
0.00469768
0.00460932
0.00457023
0.00457623
0.00465742
0.00482579
0.00509515
0.0053996
0.00479868
0.00476672
0.00471619
0.00464652
0.00456929
0.00448298
0.00440255
0.00432579
0.00426383
0.00422299
0.00422423
0.00426633
0.00437428
0.00455379
0.0048153
0.00480681
0.00425712
0.00422894
0.00419058
0.00413953
0.00408492
0.00402623
0.00397459
0.00392772
0.00389677
0.00388817
0.00391883
0.00398854
0.00411322
0.00429479
0.00454214
0.00426523
0.00380046
0.00377969
0.00375086
0.00371365
0.0036751
0.00363596
0.00360542
0.00358364
0.00358052
0.00359915
0.00365185
0.00373867
0.00387077
0.0040482
0.00427882
0.00380654
0.00340229
0.00338795
0.00336882
0.00334561
0.00332314
0.00330305
0.00329209
0.00329135
0.00330866
0.00334666
0.00341409
0.00351106
0.0036448
0.00381448
0.00402725
0.00340683
0.00306465
0.0030565
0.00304544
0.0030337
0.00302407
0.00301916
0.00302361
0.00303946
0.0030723
0.00312423
0.00320098
0.00330263
0.00343385
0.00359347
0.00378822
0.00306755
0.00277618
0.0027734
0.00276936
0.00276747
0.00276872
0.00277641
0.00279323
0.00282179
0.00286553
0.00292657
0.00300822
0.0031107
0.00323675
0.0033852
0.00356249
0.00277762
0.00253165
0.00253339
0.00253502
0.00254102
0.00255077
0.0025682
0.00259423
0.00263198
0.00268295
0.00274941
0.0028327
0.00293325
0.00305247
0.00318927
0.00334994
0.00253182
0.0023238
0.00232917
0.00233533
0.00234755
0.00236384
0.00238859
0.00242123
0.00246522
0.00252047
0.00258941
0.00267196
0.00276871
0.00288016
0.00300538
0.00315055
0.00232291
0.00214715
0.00215531
0.0021649
0.00218176
0.00220278
0.00223268
0.00226967
0.00231745
0.00237467
0.00244392
0.00252404
0.0026158
0.00271906
0.00283305
0.00296394
0.00214542
0.0019964
0.00200661
0.00201868
0.00203882
0.00206306
0.00209632
0.00213583
0.00218545
0.00224288
0.00231084
0.00238739
0.00247344
0.00256844
0.00267177
0.00278961
0.00199403
0.00186719
0.00187878
0.00189252
0.00191477
0.00194096
0.00197607
0.00201664
0.0020666
0.00212294
0.00218847
0.00226073
0.00234072
0.00242766
0.00252104
0.00262709
0.00186437
0.00175568
0.0017681
0.00178282
0.00180623
0.00183334
0.00186912
0.00190962
0.00195877
0.0020131
0.00207543
0.00214299
0.00221681
0.00229602
0.00238018
0.00247557
0.00175256
0.00165866
0.00167146
0.00168661
0.0017104
0.00173763
0.00177316
0.00181275
0.00186025
0.00191194
0.00197059
0.00203327
0.00210101
0.00217294
0.00224866
0.00233455
0.00165539
0.00157345
0.00158626
0.00160141
0.00162498
0.00165172
0.00168631
0.00172437
0.00176965
0.00181829
0.00187299
0.00193078
0.00199264
0.00205776
0.0021258
0.0022032
0.00157013
0.0014978
0.00151034
0.00152517
0.00154808
0.00157387
0.00160703
0.00164315
0.00168582
0.0017312
0.00178183
0.00183484
0.0018911
0.00194995
0.00201104
0.00208092
0.00149452
0.00142988
0.00144196
0.00145621
0.00147813
0.00150267
0.00153406
0.00156799
0.00160783
0.00164986
0.00169644
0.00174485
0.00179585
0.00184894
0.00190377
0.001967
0.0014267
0.00136818
0.00137965
0.00139317
0.0014139
0.00143698
0.00146639
0.00149798
0.0015349
0.00157359
0.00161623
0.00166029
0.00170638
0.00175423
0.00180345
0.00186079
0.00136514
0.00131148
0.00132226
0.00133495
0.00135434
0.00137586
0.00140318
0.00143239
0.00146639
0.00150183
0.00154069
0.00158068
0.00162226
0.00166536
0.00170957
0.00176174
0.00130862
0.00125881
0.00126885
0.00128065
0.00129864
0.00131855
0.00134376
0.00137061
0.00140175
0.00143409
0.00146938
0.0015056
0.00154303
0.00158184
0.00162157
0.00166918
0.00125614
0.00120938
0.00121866
0.00122955
0.00124614
0.00126445
0.00128758
0.00131215
0.00134054
0.00136996
0.00140191
0.00143467
0.00146831
0.00150328
0.00153905
0.00158266
0.00120691
0.00116257
0.0011711
0.0011811
0.00119631
0.00121307
0.00123419
0.00125659
0.00128238
0.00130908
0.00133794
0.00136753
0.00139774
0.00142927
0.0014615
0.0015016
0.00116031
0.0011179
0.00112571
0.00113485
0.00114872
0.00116401
0.00118322
0.00120358
0.00122695
0.00125114
0.00127715
0.00130387
0.00133099
0.00135944
0.00138855
0.00142558
0.00111583
0.001075
0.00108211
0.00109044
0.00110305
0.00111696
0.00113438
0.00115286
0.00117398
0.00119587
0.00121929
0.00124342
0.00126775
0.00129348
0.00131982
0.00135415
0.00107311
0.00103356
0.00104002
0.00104759
0.00105904
0.00107166
0.00108743
0.00110418
0.00112325
0.00114305
0.00116412
0.00118593
0.00120777
0.00123107
0.00125496
0.00128693
0.00103185
0.000993366
0.000999233
0.0010061
0.00101647
0.00102792
0.00104218
0.00105736
0.00107455
0.00109248
0.00111144
0.00113117
0.00115078
0.00117195
0.00119369
0.00122361
0.000991813
0.000954252
0.000959572
0.000965807
0.000975185
0.000985581
0.000998455
0.00101223
0.00102773
0.00104399
0.00106104
0.00107894
0.00109658
0.00111586
0.00113569
0.0011638
0.000952844
0.000916091
0.000920915
0.000926578
0.000935062
0.000944508
0.000956139
0.000968654
0.000982639
0.000997412
0.00101278
0.00102906
0.00104495
0.00106259
0.00108075
0.00110729
0.000914813
0.00087879
0.000883167
0.00088832
0.000896
0.000904603
0.00091512
0.000926523
0.000939156
0.000952622
0.00096649
0.000981356
0.000995705
0.00101191
0.0010286
0.00105376
0.000877629
0.000842285
0.000846262
0.000850964
0.000857926
0.000865786
0.000875311
0.000885738
0.000897175
0.000909501
0.00092205
0.000935685
0.000948685
0.000963639
0.000979051
0.00100301
0.000841227
0.000806531
0.000810152
0.000814459
0.000820783
0.000827994
0.000836642
0.00084622
0.000856603
0.000867942
0.000879337
0.000891911
0.000903736
0.000917618
0.000931913
0.000954844
0.000805563
0.000771504
0.000774809
0.000778771
0.000784531
0.000791178
0.000799053
0.000807899
0.000817361
0.000827853
0.000838246
0.000849916
0.000860725
0.000873692
0.000887019
0.00090906
0.000770614
0.000737192
0.000740217
0.000743882
0.000749142
0.000755304
0.0007625
0.00077072
0.000779378
0.000789154
0.000798682
0.000809592
0.000819534
0.000831737
0.000844241
0.000865534
0.00073637
0.000703601
0.000706378
0.000709785
0.000714603
0.000720348
0.000726947
0.000734635
0.000742594
0.000751771
0.000760558
0.000770839
0.000780047
0.00079162
0.000803423
0.000824084
0.000702837
0.000670751
0.000673305
0.000676488
0.000680913
0.000686299
0.000692371
0.000699609
0.000706961
0.000715641
0.000723798
0.000733571
0.000742171
0.000753243
0.000764474
0.000784633
0.000670038
0.000638678
0.000641031
0.000644016
0.000648086
0.000653159
0.000658762
0.000665617
0.000672439
0.000680709
0.000688332
0.000697703
0.000705807
0.000716496
0.000727269
0.000747036
0.00063801
0.000607438
0.000609604
0.00061241
0.000616153
0.000620947
0.000626124
0.000632647
0.000638998
0.000646932
0.000654101
0.000663164
0.000670875
0.000681292
0.000691725
0.00071122
0.000606811
0.000577107
0.000579094
0.000581732
0.000585165
0.000589699
0.000594477
0.0006007
0.000606623
0.000614274
0.000621053
0.000629889
0.000637298
0.000647547
0.000657755
0.0006771
0.000576518
0.000547786
0.000549597
0.000552065
0.000555195
0.00055947
0.000563862
0.000569798
0.000575315
0.000582715
0.000589149
0.000597818
0.000605005
0.000615182
0.00062528
0.000644594
0.000547235
0.000519601
0.000521233
0.000523522
0.000526343
0.000530345
0.000534344
0.000539982
0.000545093
0.000552249
0.000558358
0.000566901
0.000573934
0.000584127
0.00059424
0.000613663
0.000519092
0.000492712
0.000494155
0.000496243
0.000498739
0.000502435
0.000506018
0.000511319
0.000516001
0.000522887
0.000528666
0.000537095
0.000544018
0.000554297
0.000564545
0.000584209
0.000492248
0.000467306
0.000468548
0.000470406
0.000472551
0.000475888
0.000479015
0.000483913
0.000488115
0.000494668
0.000500079
0.00050837
0.000515203
0.000525621
0.000536136
0.000556201
0.000466896
0.000443605
0.00044463
0.00044622
0.000447981
0.000450892
0.000453509
0.000457906
0.000461555
0.000467666
0.000472631
0.000480709
0.000487431
0.000498007
0.000508912
0.000529538
0.000443257
0.000421855
0.000422649
0.000423928
0.000425275
0.000427679
0.000429725
0.000433496
0.000436494
0.000442005
0.000446402
0.000454127
0.000460662
0.00047136
0.000482773
0.000504138
0.00042158
0.000402323
0.000402876
0.000403805
0.00040471
0.000406524
0.000407942
0.000410943
0.000413181
0.000417883
0.000421546
0.000428692
0.000434884
0.000445592
0.000457591
0.000479869
0.000402129
0.000385286
0.000385597
0.000386145
0.0003866
0.00038775
0.0003885
0.000390584
0.000391955
0.000395599
0.000398325
0.000404571
0.000410167
0.000420654
0.000433238
0.000456528
0.00038518
0.000371013
0.000371097
0.000371251
0.000371274
0.000371715
0.000371794
0.000372838
0.000373269
0.000375586
0.000377153
0.000382062
0.00038668
0.000396546
0.000409576
0.000433878
0.000370998
0.000359738
0.000359623
0.000359396
0.00035904
0.000358775
0.000358239
0.000358183
0.000357672
0.000358431
0.000358639
0.000361649
0.000364706
0.000373181
0.000386124
0.000411444
0.000359808
0.000351587
0.00035132
0.000350755
0.000350109
0.0003492
0.000348179
0.000347073
0.000345753
0.000344871
0.000343692
0.00034427
0.00034512
0.000350852
0.000362288
0.000388293
0.000351734
0.000346613
0.000346255
0.000345419
0.000344615
0.000343185
0.000341903
0.000339931
0.000338144
0.000335849
0.000333723
0.000331911
0.000330667
0.000332568
0.000340572
0.000364747
0.000346819
0.00034581
0.000345415
0.000344381
0.000343531
0.000341716
0.000340369
0.000337758
0.000335837
0.000332509
0.000330002
0.000326376
0.00032379
0.000321861
0.000324543
0.000340251
0.00034606
0.000346973
0.000346573
0.000345461
0.000344616
0.000342646
0.000341308
0.000338436
0.000336505
0.000332741
0.000330124
0.000325694
0.000322553
0.000318681
0.000318349
0.000326582
0.00034724
)
;

boundaryField
{
    wireUpstream
    {
        type            calculated;
        value           nonuniform List<scalar> 
16
(
0.000348522
0.000348144
0.000346963
0.000346183
0.000344065
0.000342835
0.0003397
0.000337897
0.000333673
0.00033111
0.000325816
0.000322296
0.000316542
0.000313407
0.000311673
0.000348801
)
;
    }
    wireDownstream
    {
        type            calculated;
        value           nonuniform List<scalar> 
16
(
0.00514386
0.00515136
0.00516366
0.00517877
0.00519822
0.00521994
0.00524576
0.0052684
0.00529406
0.00531017
0.00532194
0.00531377
0.00529548
0.00523597
0.0052027
0.00514012
)
;
    }
    wireTopContact
    {
        type            calculated;
        value           nonuniform List<scalar> 
122
(
0.00516419
0.00520155
0.00523441
0.00527729
0.00532013
0.00536336
0.00540456
0.00544412
0.00548201
0.00551912
0.00555481
0.00558905
0.00562209
0.00565307
0.00568315
0.00571346
0.00574281
0.00577117
0.00579923
0.00582768
0.00585627
0.00588484
0.00591356
0.00594304
0.00597334
0.00600418
0.00603571
0.00606815
0.00610234
0.0061377
0.00617476
0.00621411
0.00625575
0.00630049
0.00634872
0.00640002
0.0064559
0.00651802
0.00658586
0.00665969
0.00674083
0.00682962
0.00692638
0.00703151
0.00714464
0.0072639
0.0073876
0.00751177
0.00763297
0.00777682
0.00797231
0.00819009
0.00842501
0.00867043
0.00891476
0.00915757
0.00939443
0.00959334
0.00980029
0.00984085
0.00932867
0.00862131
0.007982
0.00737424
0.00676984
0.00625464
0.00591288
0.00564947
0.00537654
0.00509512
0.00481604
0.00454324
0.00428009
0.00402861
0.00378955
0.00356381
0.00335118
0.00315173
0.00296505
0.00279063
0.00262806
0.00247645
0.00233538
0.00220395
0.00208159
0.00196761
0.00186132
0.00176222
0.00166959
0.00158302
0.00150189
0.00142581
0.00135434
0.00128706
0.00122368
0.00116382
0.00110726
0.00105368
0.00100289
0.000954673
0.000908836
0.000865264
0.000823757
0.000784254
0.000746596
0.000710718
0.000676533
0.000643957
0.000612959
0.000583432
0.000555359
0.000528636
0.000503196
0.000478922
0.000455625
0.000433089
0.000410938
0.000388533
0.000366221
0.000343109
0.000329507
0.00517615
)
;
    }
    front
    {
        type            wedge;
    }
    back
    {
        type            wedge;
    }
}


// ************************************************************************* //
