/*--------------------------------*- C++ -*----------------------------------*\
| =========                 |                                                 |
| \\      /  F ield         | foam-extend: Open Source CFD                    |
|  \\    /   O peration     | Version:     4.1-20200408                       |
|   \\  /    A nd           | Web:         http://www.foam-extend.org         |
|    \\/     M anipulation  |                                                 |
\*---------------------------------------------------------------------------*/
FoamFile
{
    version     2.0;
    format      ascii;
    class       volScalarField;
    location    "0.0210000";
    object      rho;
}
// * * * * * * * * * * * * * * * * * * * * * * * * * * * * * * * * * * * * * //

dimensions      [1 -3 0 0 0 0 0];

internalField   nonuniform List<scalar> 
1952
(
7823.35
7823.38
7823.48
7823.57
7823.72
7823.84
7824.02
7824.13
7824.27
7824.27
7824.26
7823.91
7823.4
7821.78
7819.65
7823.31
7823.87
7823.9
7824
7824.09
7824.24
7824.36
7824.55
7824.67
7824.83
7824.85
7824.88
7824.57
7824.13
7822.6
7820.59
7823.83
7824.33
7824.36
7824.47
7824.55
7824.7
7824.83
7825.01
7825.14
7825.3
7825.31
7825.35
7825.04
7824.59
7823
7820.83
7824.3
7824.76
7824.8
7824.9
7824.98
7825.13
7825.25
7825.43
7825.56
7825.71
7825.72
7825.76
7825.42
7824.93
7823.27
7821
7824.73
7825.16
7825.19
7825.29
7825.37
7825.52
7825.64
7825.81
7825.93
7826.06
7826.06
7826.08
7825.71
7825.17
7823.44
7821.05
7825.13
7825.52
7825.55
7825.65
7825.73
7825.86
7825.98
7826.14
7826.25
7826.37
7826.35
7826.35
7825.95
7825.36
7823.55
7821.08
7825.49
7825.85
7825.88
7825.97
7826.05
7826.18
7826.28
7826.43
7826.53
7826.63
7826.59
7826.56
7826.13
7825.49
7823.63
7821.08
7825.82
7826.15
7826.18
7826.26
7826.33
7826.45
7826.55
7826.69
7826.77
7826.86
7826.8
7826.75
7826.28
7825.59
7823.68
7821.07
7826.12
7826.42
7826.44
7826.53
7826.59
7826.71
7826.79
7826.92
7826.99
7827.05
7826.98
7826.91
7826.4
7825.68
7823.72
7821.05
7826.39
7826.67
7826.69
7826.77
7826.83
7826.93
7827.01
7827.13
7827.18
7827.23
7827.13
7827.04
7826.51
7825.75
7823.75
7821.04
7826.64
7826.89
7826.91
7826.99
7827.04
7827.14
7827.21
7827.31
7827.34
7827.38
7827.27
7827.16
7826.6
7825.81
7823.78
7821.03
7826.86
7827.09
7827.11
7827.18
7827.23
7827.32
7827.38
7827.47
7827.49
7827.52
7827.39
7827.26
7826.67
7825.87
7823.8
7821.02
7827.07
7827.28
7827.29
7827.36
7827.4
7827.49
7827.54
7827.62
7827.63
7827.64
7827.5
7827.36
7826.75
7825.92
7823.82
7821.01
7827.25
7827.45
7827.46
7827.52
7827.56
7827.64
7827.68
7827.76
7827.75
7827.76
7827.61
7827.45
7826.81
7825.96
7823.85
7821.01
7827.42
7827.61
7827.61
7827.67
7827.71
7827.78
7827.81
7827.89
7827.87
7827.87
7827.71
7827.54
7826.89
7826.02
7823.88
7821.01
7827.58
7827.76
7827.76
7827.82
7827.85
7827.92
7827.95
7828.01
7827.98
7827.98
7827.81
7827.63
7826.96
7826.07
7823.91
7821.02
7827.73
7827.9
7827.9
7827.96
7827.98
7828.05
7828.07
7828.12
7828.09
7828.08
7827.9
7827.7
7827.02
7826.12
7823.94
7821.03
7827.87
7828.03
7828.03
7828.08
7828.1
7828.16
7828.18
7828.23
7828.19
7828.17
7827.99
7827.78
7827.09
7826.17
7823.97
7821.05
7828
7828.15
7828.15
7828.2
7828.22
7828.28
7828.29
7828.33
7828.28
7828.26
7828.08
7827.86
7827.16
7826.22
7824.01
7821.06
7828.13
7828.27
7828.27
7828.32
7828.33
7828.39
7828.39
7828.43
7828.37
7828.35
7828.16
7827.93
7827.22
7826.27
7824.04
7821.09
7828.25
7828.39
7828.38
7828.43
7828.44
7828.49
7828.49
7828.52
7828.47
7828.44
7828.25
7828
7827.28
7826.32
7824.08
7821.11
7828.37
7828.5
7828.49
7828.54
7828.55
7828.6
7828.6
7828.62
7828.56
7828.53
7828.33
7828.08
7827.35
7826.37
7824.12
7821.13
7828.48
7828.61
7828.61
7828.65
7828.66
7828.7
7828.7
7828.71
7828.66
7828.62
7828.42
7828.15
7827.41
7826.42
7824.15
7821.15
7828.6
7828.73
7828.72
7828.76
7828.76
7828.8
7828.79
7828.8
7828.75
7828.71
7828.5
7828.23
7827.48
7826.48
7824.19
7821.17
7828.71
7828.84
7828.83
7828.87
7828.87
7828.91
7828.89
7828.9
7828.83
7828.8
7828.58
7828.3
7827.54
7826.53
7824.22
7821.19
7828.82
7828.95
7828.94
7828.98
7828.97
7829.01
7828.99
7828.99
7828.93
7828.89
7828.65
7828.37
7827.6
7826.57
7824.25
7821.21
7828.94
7829.07
7829.05
7829.09
7829.08
7829.11
7829.09
7829.09
7829.02
7828.97
7828.73
7828.43
7827.65
7826.61
7824.28
7821.22
7829.05
7829.19
7829.17
7829.2
7829.19
7829.22
7829.19
7829.19
7829.11
7829.06
7828.81
7828.5
7827.7
7826.66
7824.31
7821.23
7829.18
7829.32
7829.29
7829.32
7829.31
7829.33
7829.29
7829.29
7829.21
7829.14
7828.88
7828.57
7827.76
7826.69
7824.32
7821.24
7829.3
7829.45
7829.42
7829.45
7829.43
7829.44
7829.4
7829.38
7829.31
7829.23
7828.96
7828.63
7827.8
7826.72
7824.34
7821.23
7829.43
7829.59
7829.56
7829.58
7829.55
7829.56
7829.52
7829.49
7829.41
7829.31
7829.03
7828.69
7827.85
7826.75
7824.34
7821.22
7829.57
7829.74
7829.7
7829.72
7829.69
7829.69
7829.64
7829.61
7829.51
7829.41
7829.11
7828.75
7827.89
7826.77
7824.34
7821.2
7829.73
7829.9
7829.87
7829.88
7829.84
7829.83
7829.77
7829.73
7829.62
7829.5
7829.19
7828.8
7827.93
7826.79
7824.33
7821.17
7829.89
7830.09
7830.05
7830.05
7830
7829.98
7829.92
7829.87
7829.74
7829.6
7829.27
7828.86
7827.96
7826.8
7824.32
7821.13
7830.08
7830.29
7830.24
7830.24
7830.18
7830.15
7830.07
7830.01
7829.86
7829.7
7829.35
7828.92
7827.99
7826.8
7824.29
7821.07
7830.29
7830.52
7830.47
7830.45
7830.38
7830.34
7830.25
7830.17
7830
7829.81
7829.44
7828.98
7828.02
7826.8
7824.24
7821
7830.51
7830.78
7830.72
7830.69
7830.62
7830.56
7830.46
7830.35
7830.16
7829.95
7829.54
7829.05
7828.05
7826.79
7824.2
7820.91
7830.78
7831.08
7831.01
7830.98
7830.89
7830.82
7830.7
7830.56
7830.35
7830.1
7829.66
7829.13
7828.09
7826.78
7824.14
7820.81
7831.08
7831.42
7831.35
7831.3
7831.2
7831.11
7830.97
7830.81
7830.56
7830.27
7829.8
7829.21
7828.13
7826.77
7824.07
7820.68
7831.43
7831.81
7831.74
7831.68
7831.56
7831.45
7831.28
7831.09
7830.81
7830.48
7829.96
7829.32
7828.18
7826.75
7823.99
7820.54
7831.82
7832.27
7832.19
7832.11
7831.99
7831.85
7831.66
7831.43
7831.11
7830.73
7830.16
7829.46
7828.26
7826.75
7823.91
7820.38
7832.28
7832.79
7832.7
7832.62
7832.48
7832.32
7832.1
7831.83
7831.47
7831.04
7830.41
7829.64
7828.36
7826.76
7823.83
7820.2
7832.81
7833.39
7833.3
7833.2
7833.05
7832.86
7832.61
7832.31
7831.9
7831.42
7830.72
7829.87
7828.5
7826.8
7823.76
7820.01
7833.41
7834.08
7833.99
7833.87
7833.71
7833.5
7833.22
7832.88
7832.43
7831.88
7831.12
7830.17
7828.7
7826.88
7823.71
7819.82
7834.1
7834.87
7834.77
7834.65
7834.47
7834.24
7833.94
7833.56
7833.06
7832.45
7831.62
7830.57
7828.99
7827.02
7823.7
7819.63
7834.89
7835.76
7835.67
7835.53
7835.35
7835.1
7834.78
7834.37
7833.83
7833.15
7832.24
7831.09
7829.39
7827.25
7823.75
7819.45
7835.79
7836.76
7836.68
7836.54
7836.35
7836.09
7835.76
7835.33
7834.75
7834.03
7833.04
7831.78
7829.95
7827.62
7823.91
7819.33
7836.79
7837.88
7837.8
7837.67
7837.48
7837.23
7836.89
7836.45
7835.86
7835.09
7834.05
7832.69
7830.72
7828.18
7824.23
7819.27
7837.91
7839.1
7839.03
7838.91
7838.74
7838.51
7838.18
7837.76
7837.16
7836.39
7835.31
7833.87
7831.78
7829.03
7824.78
7819.35
7839.12
7840.41
7840.36
7840.26
7840.13
7839.92
7839.64
7839.25
7838.69
7837.94
7836.86
7835.4
7833.23
7830.3
7825.78
7819.79
7840.43
7841.81
7841.78
7841.72
7841.62
7841.48
7841.26
7840.94
7840.46
7839.78
7838.77
7837.35
7835.2
7832.21
7827.57
7821.23
7841.82
7843.26
7843.26
7843.24
7843.21
7843.14
7843.01
7842.81
7842.44
7841.91
7841.04
7839.78
7837.77
7834.92
7830.43
7824.19
7843.25
7844.72
7844.76
7844.8
7844.84
7844.88
7844.87
7844.82
7844.62
7844.3
7843.64
7842.65
7840.91
7838.37
7834.2
7828.3
7844.7
7846.15
7846.23
7846.34
7846.47
7846.63
7846.77
7846.91
7846.93
7846.88
7846.53
7845.92
7844.57
7842.53
7838.87
7833.58
7846.11
7847.5
7847.63
7847.81
7848.05
7848.34
7848.65
7849.02
7849.3
7849.58
7849.6
7849.48
7848.65
7847.28
7844.3
7839.87
7847.45
7848.71
7848.89
7849.15
7849.49
7849.94
7850.43
7851.04
7851.61
7852.27
7852.73
7853.18
7852.99
7852.46
7850.35
7847.03
7848.64
7849.72
7849.94
7850.28
7850.73
7851.31
7852
7852.85
7853.72
7854.79
7855.72
7856.83
7857.36
7857.84
7856.82
7854.94
7849.63
7850.46
7850.72
7851.12
7851.67
7852.39
7853.25
7854.33
7855.5
7856.96
7858.38
7860.16
7861.51
7863.14
7863.42
7863.46
7850.36
7850.89
7851.18
7851.64
7852.27
7853.09
7854.09
7855.37
7856.8
7858.61
7860.49
7862.91
7865.06
7867.88
7869.6
7871.81
7850.78
7850.93
7851.24
7851.73
7852.4
7853.28
7854.38
7855.77
7857.38
7859.44
7861.65
7864.57
7867.4
7871.32
7874.49
7879.31
7850.82
7850.6
7850.92
7851.4
7852.1
7853
7854.13
7855.57
7857.26
7859.44
7861.86
7865.08
7868.4
7873.18
7877.57
7885.05
7850.48
7850.32
7850.65
7851.14
7851.86
7852.78
7853.94
7855.41
7857.15
7859.39
7861.9
7865.26
7868.78
7873.76
7878.33
7885.94
7850.2
7850.57
7850.92
7851.43
7852.18
7853.13
7854.33
7855.83
7857.61
7859.86
7862.39
7865.71
7869.15
7873.84
7877.95
7884.17
7850.45
7851.42
7851.81
7852.34
7853.12
7854.1
7855.35
7856.87
7858.66
7860.86
7863.31
7866.38
7869.47
7873.35
7876.45
7880.67
7851.3
7852.82
7853.23
7853.79
7854.6
7855.6
7856.88
7858.4
7860.17
7862.27
7864.55
7867.21
7869.78
7872.52
7874.29
7876.16
7852.68
7854.69
7855.14
7855.71
7856.54
7857.54
7858.81
7860.28
7862.01
7863.98
7866.07
7868.29
7870.28
7871.74
7872.02
7871.42
7854.54
7856.92
7857.38
7857.97
7858.82
7859.82
7861.08
7862.51
7864.23
7866.11
7867.94
7869.51
7870.39
7870.26
7869.08
7866.85
7856.76
7859.56
7860.03
7860.68
7861.6
7862.66
7863.94
7865.3
7866.76
7867.97
7868.75
7868.9
7868.35
7867.09
7865.18
7862.68
7859.4
7863.06
7863.48
7863.98
7864.7
7865.44
7866.23
7866.83
7867.25
7867.24
7866.87
7865.9
7864.69
7863.12
7861.29
7859.02
7862.92
7865.15
7865.3
7865.39
7865.55
7865.61
7865.61
7865.38
7864.94
7864.27
7863.47
7862.4
7861.3
7859.81
7858.12
7855.95
7865.11
7863.7
7863.69
7863.6
7863.48
7863.25
7862.92
7862.45
7861.92
7861.32
7860.57
7859.55
7858.41
7856.95
7855.37
7853.38
7863.7
7861.2
7861.13
7861.04
7860.91
7860.69
7860.4
7859.97
7859.44
7858.75
7857.95
7856.94
7855.85
7854.48
7853.03
7851.2
7861.23
7859.16
7859.08
7858.94
7858.74
7858.45
7858.1
7857.62
7857.07
7856.39
7855.62
7854.65
7853.62
7852.34
7851.01
7849.35
7859.19
7857.07
7856.98
7856.82
7856.61
7856.32
7855.96
7855.49
7854.95
7854.28
7853.53
7852.62
7851.65
7850.47
7849.27
7847.77
7857.1
7855.17
7855.07
7854.91
7854.68
7854.38
7854.01
7853.55
7853.02
7852.38
7851.67
7850.82
7849.93
7848.85
7847.76
7846.41
7855.21
7853.37
7853.27
7853.1
7852.88
7852.58
7852.23
7851.78
7851.28
7850.67
7850.01
7849.22
7848.4
7847.42
7846.44
7845.24
7853.41
7851.72
7851.61
7851.45
7851.23
7850.94
7850.6
7850.18
7849.7
7849.13
7848.52
7847.8
7847.06
7846.17
7845.29
7844.22
7851.76
7850.19
7850.08
7849.93
7849.71
7849.44
7849.11
7848.72
7848.28
7847.75
7847.19
7846.53
7845.86
7845.07
7844.28
7843.32
7850.22
7848.78
7848.67
7848.53
7848.32
7848.07
7847.77
7847.4
7846.99
7846.51
7846
7845.4
7844.8
7844.09
7843.39
7842.53
7848.81
7847.48
7847.38
7847.25
7847.06
7846.82
7846.54
7846.2
7845.83
7845.39
7844.93
7844.39
7843.85
7843.21
7842.59
7841.83
7847.51
7846.3
7846.2
7846.08
7845.9
7845.69
7845.42
7845.12
7844.78
7844.38
7843.96
7843.48
7842.99
7842.43
7841.88
7841.2
7846.33
7845.21
7845.12
7845.01
7844.84
7844.65
7844.41
7844.13
7843.82
7843.46
7843.09
7842.66
7842.22
7841.72
7841.24
7840.63
7845.24
7844.22
7844.13
7844.03
7843.88
7843.7
7843.49
7843.23
7842.95
7842.63
7842.3
7841.91
7841.53
7841.08
7840.65
7840.11
7844.24
7843.31
7843.23
7843.14
7843
7842.84
7842.64
7842.42
7842.16
7841.88
7841.58
7841.23
7840.89
7840.5
7840.12
7839.64
7843.33
7842.47
7842.4
7842.32
7842.19
7842.05
7841.87
7841.67
7841.44
7841.19
7840.92
7840.62
7840.31
7839.97
7839.63
7839.2
7842.49
7841.71
7841.65
7841.57
7841.46
7841.33
7841.17
7840.99
7840.79
7840.56
7840.32
7840.05
7839.78
7839.47
7839.17
7838.79
7841.73
7841.01
7840.95
7840.89
7840.78
7840.67
7840.52
7840.36
7840.18
7839.98
7839.77
7839.53
7839.29
7839.02
7838.75
7838.41
7841.03
7840.37
7840.31
7840.25
7840.16
7840.06
7839.93
7839.79
7839.63
7839.45
7839.26
7839.04
7838.83
7838.59
7838.35
7838.05
7840.38
7839.78
7839.73
7839.67
7839.59
7839.5
7839.39
7839.26
7839.11
7838.95
7838.79
7838.6
7838.41
7838.2
7837.98
7837.71
7839.79
7839.23
7839.19
7839.14
7839.06
7838.98
7838.88
7838.77
7838.64
7838.5
7838.35
7838.18
7838.01
7837.82
7837.63
7837.38
7839.24
7838.73
7838.69
7838.64
7838.58
7838.5
7838.41
7838.31
7838.2
7838.07
7837.94
7837.79
7837.64
7837.47
7837.3
7837.07
7838.74
7838.26
7838.22
7838.19
7838.13
7838.06
7837.98
7837.89
7837.79
7837.67
7837.56
7837.43
7837.29
7837.14
7836.99
7836.78
7838.27
7837.82
7837.79
7837.76
7837.71
7837.65
7837.58
7837.49
7837.4
7837.3
7837.2
7837.08
7836.96
7836.83
7836.69
7836.5
7837.83
7837.42
7837.39
7837.36
7837.32
7837.26
7837.2
7837.13
7837.05
7836.96
7836.86
7836.76
7836.65
7836.53
7836.41
7836.23
7837.43
7837.05
7837.02
7836.99
7836.95
7836.9
7836.85
7836.78
7836.71
7836.63
7836.55
7836.45
7836.36
7836.25
7836.13
7835.97
7837.05
7836.69
7836.67
7836.65
7836.61
7836.57
7836.51
7836.46
7836.39
7836.32
7836.25
7836.16
7836.08
7835.98
7835.87
7835.72
7836.7
7836.36
7836.34
7836.32
7836.29
7836.25
7836.2
7836.15
7836.09
7836.03
7835.96
7835.89
7835.81
7835.72
7835.62
7835.48
7836.37
7836.06
7836.04
7836.02
7835.99
7835.95
7835.91
7835.86
7835.81
7835.75
7835.69
7835.62
7835.56
7835.48
7835.38
7835.25
7836.06
7835.77
7835.75
7835.73
7835.7
7835.67
7835.63
7835.59
7835.55
7835.49
7835.44
7835.38
7835.31
7835.24
7835.15
7835.02
7835.77
7835.49
7835.48
7835.46
7835.44
7835.41
7835.37
7835.34
7835.29
7835.24
7835.19
7835.14
7835.08
7835.01
7834.93
7834.81
7835.5
7835.24
7835.22
7835.21
7835.18
7835.16
7835.13
7835.09
7835.05
7835.01
7834.96
7834.91
7834.86
7834.8
7834.72
7834.6
7835.24
7834.99
7834.98
7834.97
7834.95
7834.92
7834.89
7834.86
7834.82
7834.78
7834.74
7834.69
7834.65
7834.59
7834.52
7834.4
7835
7834.76
7834.75
7834.74
7834.72
7834.7
7834.67
7834.64
7834.61
7834.57
7834.53
7834.49
7834.44
7834.39
7834.32
7834.21
7834.77
7834.55
7834.54
7834.52
7834.51
7834.49
7834.46
7834.43
7834.4
7834.37
7834.33
7834.29
7834.25
7834.2
7834.13
7834.03
7834.55
7834.34
7834.33
7834.32
7834.3
7834.28
7834.26
7834.23
7834.21
7834.17
7834.14
7834.1
7834.06
7834.01
7833.95
7833.85
7834.35
7834.15
7834.14
7834.13
7834.11
7834.09
7834.07
7834.05
7834.02
7833.99
7833.95
7833.92
7833.88
7833.83
7833.77
7833.67
7834.15
7833.97
7833.96
7833.95
7833.93
7833.91
7833.89
7833.87
7833.84
7833.81
7833.78
7833.74
7833.7
7833.66
7833.6
7833.5
7833.97
7833.8
7833.79
7833.78
7833.76
7833.74
7833.72
7833.7
7833.67
7833.64
7833.61
7833.58
7833.54
7833.49
7833.44
7833.34
7833.8
7833.64
7833.63
7833.62
7833.6
7833.59
7833.56
7833.54
7833.51
7833.48
7833.45
7833.42
7833.38
7833.34
7833.28
7833.18
7833.64
7833.49
7833.48
7833.47
7833.45
7833.44
7833.41
7833.39
7833.36
7833.33
7833.3
7833.27
7833.23
7833.18
7833.12
7833.03
7833.49
7833.35
7833.34
7833.33
7833.31
7833.3
7833.27
7833.25
7833.22
7833.19
7833.16
7833.12
7833.08
7833.04
7832.98
7832.88
7833.35
7833.22
7833.21
7833.2
7833.18
7833.17
7833.14
7833.12
7833.09
7833.06
7833.03
7832.99
7832.95
7832.9
7832.83
7832.73
7833.22
7833.1
7833.09
7833.08
7833.06
7833.05
7833.02
7833
7832.97
7832.94
7832.9
7832.86
7832.82
7832.76
7832.7
7832.59
7833.1
7832.99
7832.98
7832.97
7832.96
7832.94
7832.91
7832.89
7832.86
7832.82
7832.79
7832.74
7832.7
7832.64
7832.57
7832.46
7832.99
7832.89
7832.88
7832.87
7832.86
7832.84
7832.82
7832.79
7832.76
7832.72
7832.68
7832.64
7832.58
7832.52
7832.45
7832.33
7832.89
7832.8
7832.8
7832.79
7832.77
7832.75
7832.73
7832.7
7832.67
7832.63
7832.59
7832.54
7832.49
7832.42
7832.33
7832.21
7832.81
7832.73
7832.72
7832.71
7832.7
7832.68
7832.65
7832.63
7832.59
7832.55
7832.51
7832.46
7832.4
7832.33
7832.23
7832.09
7832.73
7832.66
7832.66
7832.65
7832.63
7832.61
7832.59
7832.56
7832.53
7832.49
7832.45
7832.39
7832.33
7832.25
7832.15
7831.99
7832.67
7832.61
7832.6
7832.59
7832.58
7832.56
7832.54
7832.51
7832.48
7832.44
7832.4
7832.34
7832.28
7832.2
7832.08
7831.91
7832.61
7832.57
7832.56
7832.55
7832.54
7832.52
7832.5
7832.47
7832.44
7832.41
7832.37
7832.32
7832.25
7832.17
7832.05
7831.86
7832.57
7832.53
7832.52
7832.51
7832.5
7832.48
7832.47
7832.44
7832.42
7832.39
7832.35
7832.31
7832.26
7832.2
7832.11
7831.96
7832.53
7832.51
7832.51
7832.5
7832.49
7832.47
7832.46
7832.44
7832.41
7832.39
7832.36
7832.32
7832.28
7832.23
7832.18
7832.07
7832.51
)
;

boundaryField
{
    wireUpstream
    {
        type            calculated;
        value           nonuniform List<scalar> 
16
(
7832.49
7832.49
7832.48
7832.47
7832.46
7832.44
7832.43
7832.4
7832.38
7832.35
7832.32
7832.29
7832.26
7832.24
7832.22
7832.5
)
;
    }
    wireDownstream
    {
        type            calculated;
        value           nonuniform List<scalar> 
16
(
7823.37
7823.4
7823.5
7823.58
7823.74
7823.86
7824.04
7824.15
7824.3
7824.3
7824.3
7823.95
7823.45
7821.75
7818.99
7823.33
)
;
    }
    wireTopContact
    {
        type            calculated;
        value           nonuniform List<scalar> 
122
(
7820.71
7820.91
7821.07
7821.13
7821.16
7821.17
7821.16
7821.15
7821.13
7821.12
7821.11
7821.1
7821.1
7821.1
7821.1
7821.11
7821.13
7821.15
7821.17
7821.19
7821.21
7821.23
7821.25
7821.26
7821.28
7821.29
7821.3
7821.3
7821.29
7821.28
7821.26
7821.22
7821.18
7821.12
7821.04
7820.95
7820.84
7820.71
7820.57
7820.4
7820.22
7820.03
7819.84
7819.65
7819.49
7819.38
7819.36
7819.48
7819.92
7821.32
7824.35
7828.48
7833.77
7840.07
7847.21
7855.07
7863.57
7871.79
7879.19
7885.27
7885.78
7883.76
7880.3
7875.97
7871.42
7866.89
7862.73
7859.09
7856.01
7853.42
7851.23
7849.37
7847.77
7846.4
7845.22
7844.2
7843.3
7842.51
7841.8
7841.17
7840.61
7840.09
7839.62
7839.18
7838.77
7838.39
7838.03
7837.69
7837.36
7837.06
7836.76
7836.48
7836.21
7835.95
7835.71
7835.47
7835.24
7835.01
7834.8
7834.59
7834.4
7834.2
7834.02
7833.84
7833.66
7833.49
7833.33
7833.17
7833.02
7832.87
7832.72
7832.59
7832.45
7832.32
7832.2
7832.09
7831.99
7831.91
7831.86
7831.95
7832.03
7820.13
)
;
    }
    front
    {
        type            wedge;
    }
    back
    {
        type            wedge;
    }
}


// ************************************************************************* //
