/*--------------------------------*- C++ -*----------------------------------*\
| =========                 |                                                 |
| \\      /  F ield         | foam-extend: Open Source CFD                    |
|  \\    /   O peration     | Version:     4.1-20200408                       |
|   \\  /    A nd           | Web:         http://www.foam-extend.org         |
|    \\/     M anipulation  |                                                 |
\*---------------------------------------------------------------------------*/
FoamFile
{
    version     2.0;
    format      ascii;
    class       volVectorField;
    location    "0.0210000";
    object      Velocity;
}
// * * * * * * * * * * * * * * * * * * * * * * * * * * * * * * * * * * * * * //

dimensions      [0 1 -1 0 0 0 0];

internalField   nonuniform List<vector> 
1952
(
(1.00003 7.70174e-05 0)
(1.00003 0.000124031 0)
(1.00003 0.000174702 0)
(1.00003 0.000221124 0)
(1.00003 0.000273514 0)
(1.00003 0.000319123 0)
(1.00003 0.000373385 0)
(1.00003 0.000418876 0)
(1.00003 0.000475943 0)
(1.00003 0.000522804 0)
(1.00003 0.00058338 0)
(1.00002 0.0006338 0)
(1.00002 0.000694416 0)
(0.999992 0.000738525 0)
(0.999899 0.000770988 0)
(1.00003 3.28635e-05 0)
(1.00008 6.51837e-05 0)
(1.00007 0.000105474 0)
(1.00007 0.000147448 0)
(1.00007 0.000187371 0)
(1.00007 0.000229727 0)
(1.00007 0.000268468 0)
(1.00007 0.000310632 0)
(1.00007 0.000347656 0)
(1.00007 0.00038873 0)
(1.00007 0.000422712 0)
(1.00006 0.000459783 0)
(1.00005 0.000486567 0)
(1.00003 0.000510142 0)
(0.999988 0.000515467 0)
(0.999904 0.000502411 0)
(1.00008 2.78798e-05 0)
(1.0001 5.35362e-05 0)
(1.0001 8.67674e-05 0)
(1.0001 0.000120632 0)
(1.0001 0.00015334 0)
(1.0001 0.000186583 0)
(1.0001 0.000217512 0)
(1.0001 0.000249005 0)
(1.00009 0.000276796 0)
(1.00009 0.000304641 0)
(1.00008 0.000326671 0)
(1.00007 0.000347002 0)
(1.00005 0.000358011 0)
(1.00002 0.000363657 0)
(0.999961 0.000356021 0)
(0.999872 0.000340913 0)
(1.0001 2.29257e-05 0)
(1.00012 4.26283e-05 0)
(1.00012 6.9005e-05 0)
(1.00012 9.55389e-05 0)
(1.00012 0.000121045 0)
(1.00012 0.000146245 0)
(1.00011 0.000169362 0)
(1.00011 0.000191773 0)
(1.0001 0.000210744 0)
(1.0001 0.000228187 0)
(1.00008 0.000240241 0)
(1.00007 0.000249409 0)
(1.00004 0.00025062 0)
(1 0.000248118 0)
(0.999947 0.000236606 0)
(0.999872 0.000226991 0)
(1.00012 1.82645e-05 0)
(1.00013 3.24019e-05 0)
(1.00013 5.2326e-05 0)
(1.00013 7.21256e-05 0)
(1.00013 9.08849e-05 0)
(1.00012 0.000108932 0)
(1.00012 0.000124954 0)
(1.00011 0.000139736 0)
(1.0001 0.000151277 0)
(1.00009 0.000160849 0)
(1.00007 0.000165677 0)
(1.00005 0.000167885 0)
(1.00002 0.000163964 0)
(0.999984 0.000158328 0)
(0.999932 0.000147233 0)
(0.999867 0.000140688 0)
(1.00013 1.38899e-05 0)
(1.00013 2.31253e-05 0)
(1.00013 3.72077e-05 0)
(1.00013 5.10066e-05 0)
(1.00012 6.37511e-05 0)
(1.00012 7.56393e-05 0)
(1.00011 8.55801e-05 0)
(1.0001 9.41775e-05 0)
(1.00009 9.98257e-05 0)
(1.00008 0.000103646 0)
(1.00006 0.000103513 0)
(1.00004 0.000101521 0)
(1 9.50881e-05 0)
(0.999967 8.85516e-05 0)
(0.999921 7.89016e-05 0)
(0.999868 7.48327e-05 0)
(1.00013 9.91879e-06 0)
(1.00012 1.49331e-05 0)
(1.00012 2.38823e-05 0)
(1.00012 3.24748e-05 0)
(1.00011 4.00496e-05 0)
(1.00011 4.67867e-05 0)
(1.0001 5.17381e-05 0)
(1.00009 5.54853e-05 0)
(1.00007 5.66892e-05 0)
(1.00006 5.6469e-05 0)
(1.00004 5.31421e-05 0)
(1.00001 4.8773e-05 0)
(0.999985 4.13828e-05 0)
(0.999949 3.4885e-05 0)
(0.99991 2.67596e-05 0)
(0.999866 2.38894e-05 0)
(1.00012 6.40988e-06 0)
(1.00011 7.88494e-06 0)
(1.0001 1.24443e-05 0)
(1.0001 1.6635e-05 0)
(1.00009 1.98946e-05 0)
(1.00009 2.24323e-05 0)
(1.00008 2.34118e-05 0)
(1.00007 2.34464e-05 0)
(1.00005 2.13945e-05 0)
(1.00004 1.83956e-05 0)
(1.00002 1.30773e-05 0)
(0.999992 7.41233e-06 0)
(0.999964 -1.88727e-07 0)
(0.999933 -6.33583e-06 0)
(0.999899 -1.32067e-05 0)
(0.999864 -1.5411e-05 0)
(1.00011 3.38956e-06 0)
(1.00009 1.96993e-06 0)
(1.00008 2.86845e-06 0)
(1.00008 3.42886e-06 0)
(1.00007 3.17846e-06 0)
(1.00006 2.37613e-06 0)
(1.00005 2.7623e-07 0)
(1.00004 -2.46291e-06 0)
(1.00003 -6.83514e-06 0)
(1.00001 -1.16956e-05 0)
(0.999992 -1.82004e-05 0)
(0.999969 -2.45223e-05 0)
(0.999944 -3.19917e-05 0)
(0.999916 -3.77624e-05 0)
(0.999888 -4.37327e-05 0)
(0.99986 -4.57494e-05 0)
(1.00009 8.53695e-07 0)
(1.00006 -2.87961e-06 0)
(1.00006 -4.96336e-06 0)
(1.00005 -7.3296e-06 0)
(1.00005 -1.037e-05 0)
(1.00004 -1.37723e-05 0)
(1.00003 -1.82082e-05 0)
(1.00002 -2.29798e-05 0)
(1 -2.89723e-05 0)
(0.999986 -3.50573e-05 0)
(0.999966 -4.22429e-05 0)
(0.999946 -4.88722e-05 0)
(0.999923 -5.60995e-05 0)
(0.999899 -6.15706e-05 0)
(0.999876 -6.69473e-05 0)
(0.999854 -6.90335e-05 0)
(1.00006 -1.22623e-06 0)
(1.00003 -6.76717e-06 0)
(1.00003 -1.12267e-05 0)
(1.00002 -1.59007e-05 0)
(1.00002 -2.11112e-05 0)
(1.00001 -2.64948e-05 0)
(0.999999 -3.26665e-05 0)
(0.999988 -3.88976e-05 0)
(0.999973 -4.59981e-05 0)
(0.999959 -5.28707e-05 0)
(0.999941 -6.04263e-05 0)
(0.999922 -6.71797e-05 0)
(0.999902 -7.4163e-05 0)
(0.999882 -7.94442e-05 0)
(0.999863 -8.44795e-05 0)
(0.999845 -8.68168e-05 0)
(1.00003 -2.89422e-06 0)
(1 -9.81699e-06 0)
(0.999997 -1.61288e-05 0)
(0.999992 -2.25845e-05 0)
(0.999986 -2.94483e-05 0)
(0.999979 -3.6311e-05 0)
(0.999969 -4.37475e-05 0)
(0.999958 -5.10059e-05 0)
(0.999945 -5.88489e-05 0)
(0.999931 -6.62165e-05 0)
(0.999915 -7.39595e-05 0)
(0.999899 -8.07501e-05 0)
(0.999881 -8.75343e-05 0)
(0.999864 -9.27272e-05 0)
(0.999848 -9.76071e-05 0)
(0.999835 -0.000100295 0)
(1 -4.20326e-06 0)
(0.999967 -1.21604e-05 0)
(0.999964 -1.98869e-05 0)
(0.99996 -2.769e-05 0)
(0.999954 -3.57879e-05 0)
(0.999947 -4.37325e-05 0)
(0.999937 -5.2072e-05 0)
(0.999928 -6.00384e-05 0)
(0.999915 -6.83673e-05 0)
(0.999903 -7.60373e-05 0)
(0.999889 -8.38647e-05 0)
(0.999875 -9.0658e-05 0)
(0.99986 -9.73019e-05 0)
(0.999846 -0.00010249 0)
(0.999833 -0.000107348 0)
(0.999822 -0.00011044 0)
(0.999968 -5.20946e-06 0)
(0.999934 -1.39266e-05 0)
(0.999931 -2.27131e-05 0)
(0.999927 -3.15151e-05 0)
(0.999921 -4.05172e-05 0)
(0.999915 -4.92366e-05 0)
(0.999906 -5.82084e-05 0)
(0.999897 -6.66507e-05 0)
(0.999886 -7.52899e-05 0)
(0.999876 -8.31372e-05 0)
(0.999863 -9.09949e-05 0)
(0.999851 -9.77818e-05 0)
(0.999838 -0.000104342 0)
(0.999827 -0.000109585 0)
(0.999816 -0.000114511 0)
(0.999808 -0.000118023 0)
(0.999935 -5.96811e-06 0)
(0.999899 -1.52364e-05 0)
(0.999897 -2.48042e-05 0)
(0.999893 -3.43348e-05 0)
(0.999888 -4.39882e-05 0)
(0.999882 -5.32528e-05 0)
(0.999875 -6.26591e-05 0)
(0.999867 -7.14141e-05 0)
(0.999857 -8.02457e-05 0)
(0.999848 -8.81923e-05 0)
(0.999837 -9.60547e-05 0)
(0.999827 -0.000102838 0)
(0.999816 -0.000109361 0)
(0.999807 -0.000114698 0)
(0.999799 -0.000119747 0)
(0.999793 -0.000123672 0)
(0.9999 -6.53094e-06 0)
(0.999865 -1.61989e-05 0)
(0.999862 -2.63376e-05 0)
(0.999859 -3.63938e-05 0)
(0.999855 -4.6513e-05 0)
(0.99985 -5.61555e-05 0)
(0.999843 -6.58581e-05 0)
(0.999837 -7.48132e-05 0)
(0.999828 -8.37625e-05 0)
(0.99982 -9.17603e-05 0)
(0.999811 -9.96187e-05 0)
(0.999803 -0.000106405 0)
(0.999794 -0.000112924 0)
(0.999787 -0.000118376 0)
(0.99978 -0.000123576 0)
(0.999775 -0.000127888 0)
(0.999866 -6.9447e-06 0)
(0.99983 -1.69094e-05 0)
(0.999828 -2.74674e-05 0)
(0.999826 -3.7905e-05 0)
(0.999822 -4.83589e-05 0)
(0.999818 -5.82655e-05 0)
(0.999812 -6.81713e-05 0)
(0.999806 -7.72554e-05 0)
(0.999799 -8.62771e-05 0)
(0.999793 -9.43001e-05 0)
(0.999785 -0.000102155 0)
(0.999779 -0.000108949 0)
(0.999771 -0.000115489 0)
(0.999766 -0.00012106 0)
(0.99976 -0.000126419 0)
(0.999757 -0.000131078 0)
(0.999831 -7.25028e-06 0)
(0.999796 -1.74501e-05 0)
(0.999794 -2.83264e-05 0)
(0.999792 -3.90493e-05 0)
(0.999789 -4.97543e-05 0)
(0.999785 -5.98517e-05 0)
(0.999781 -6.99056e-05 0)
(0.999777 -7.90761e-05 0)
(0.99977 -8.81482e-05 0)
(0.999766 -9.61831e-05 0)
(0.999759 -0.000104039 0)
(0.999754 -0.000110844 0)
(0.999748 -0.000117418 0)
(0.999744 -0.000123099 0)
(0.99974 -0.000128609 0)
(0.999738 -0.000133568 0)
(0.999796 -7.4829e-06 0)
(0.999761 -1.78895e-05 0)
(0.99976 -2.90244e-05 0)
(0.999758 -3.99777e-05 0)
(0.999756 -5.08864e-05 0)
(0.999753 -6.11367e-05 0)
(0.99975 -7.13106e-05 0)
(0.999747 -8.05499e-05 0)
(0.999742 -8.96652e-05 0)
(0.999739 -9.77101e-05 0)
(0.999733 -0.000105574 0)
(0.99973 -0.00011239 0)
(0.999725 -0.000119001 0)
(0.999722 -0.000124775 0)
(0.999719 -0.000130416 0)
(0.999718 -0.000135619 0)
(0.999761 -7.67196e-06 0)
(0.999726 -1.82843e-05 0)
(0.999726 -2.96533e-05 0)
(0.999725 -4.08141e-05 0)
(0.999723 -5.19106e-05 0)
(0.999721 -6.23014e-05 0)
(0.999719 -7.25913e-05 0)
(0.999717 -8.18977e-05 0)
(0.999713 -9.10623e-05 0)
(0.999711 -9.91203e-05 0)
(0.999707 -0.000107001 0)
(0.999706 -0.000113823 0)
(0.999702 -0.000120469 0)
(0.9997 -0.000126308 0)
(0.999698 -0.000132051 0)
(0.999697 -0.000137438 0)
(0.999727 -7.84187e-06 0)
(0.999692 -1.86801e-05 0)
(0.999691 -3.02853e-05 0)
(0.999691 -4.16581e-05 0)
(0.99969 -5.29491e-05 0)
(0.999689 -6.34908e-05 0)
(0.999688 -7.3908e-05 0)
(0.999687 -8.32953e-05 0)
(0.999685 -9.25229e-05 0)
(0.999684 -0.000100603 0)
(0.999681 -0.000108508 0)
(0.999681 -0.00011533 0)
(0.999678 -0.000122002 0)
(0.999678 -0.000127872 0)
(0.999676 -0.000133681 0)
(0.999676 -0.000139185 0)
(0.999692 -8.01211e-06 0)
(0.999657 -1.91123e-05 0)
(0.999657 -3.09782e-05 0)
(0.999657 -4.25868e-05 0)
(0.999657 -5.40988e-05 0)
(0.999657 -6.48167e-05 0)
(0.999657 -7.53875e-05 0)
(0.999657 -8.48785e-05 0)
(0.999656 -9.41902e-05 0)
(0.999657 -0.000102305 0)
(0.999655 -0.000110243 0)
(0.999656 -0.000117054 0)
(0.999655 -0.000123738 0)
(0.999655 -0.000129601 0)
(0.999654 -0.000135432 0)
(0.999654 -0.000140984 0)
(0.999657 -8.19799e-06 0)
(0.999621 -1.96072e-05 0)
(0.999622 -3.17734e-05 0)
(0.999623 -4.36579e-05 0)
(0.999623 -5.54296e-05 0)
(0.999625 -6.63631e-05 0)
(0.999625 -7.71216e-05 0)
(0.999627 -8.67487e-05 0)
(0.999627 -9.61695e-05 0)
(0.99963 -0.000104333 0)
(0.999629 -0.000112313 0)
(0.999632 -0.000119103 0)
(0.999631 -0.000125782 0)
(0.999632 -0.000131591 0)
(0.999632 -0.000137399 0)
(0.999632 -0.000142922 0)
(0.999621 -8.41074e-06 0)
(0.999585 -2.01818e-05 0)
(0.999586 -3.26991e-05 0)
(0.999588 -4.49085e-05 0)
(0.999589 -5.69889e-05 0)
(0.999592 -6.81843e-05 0)
(0.999594 -7.91726e-05 0)
(0.999597 -8.89726e-05 0)
(0.999598 -9.85317e-05 0)
(0.999602 -0.000106762 0)
(0.999603 -0.000114792 0)
(0.999607 -0.000121546 0)
(0.999607 -0.000128201 0)
(0.99961 -0.000133908 0)
(0.999609 -0.000139639 0)
(0.99961 -0.000145055 0)
(0.999585 -8.65773e-06 0)
(0.999548 -2.08447e-05 0)
(0.99955 -3.37681e-05 0)
(0.999552 -4.63581e-05 0)
(0.999554 -5.87996e-05 0)
(0.999558 -7.03099e-05 0)
(0.999561 -8.15725e-05 0)
(0.999566 -9.15873e-05 0)
(0.999569 -0.000101316 0)
(0.999574 -0.000109632 0)
(0.999577 -0.000117721 0)
(0.999582 -0.000124425 0)
(0.999583 -0.000131034 0)
(0.999587 -0.000136585 0)
(0.999587 -0.000142185 0)
(0.999588 -0.000147406 0)
(0.999547 -8.94256e-06 0)
(0.99951 -2.15937e-05 0)
(0.999512 -3.49783e-05 0)
(0.999515 -4.80031e-05 0)
(0.999519 -6.08586e-05 0)
(0.999524 -7.27367e-05 0)
(0.999528 -8.43194e-05 0)
(0.999535 -9.4592e-05 0)
(0.999539 -0.000104521 0)
(0.999546 -0.000112943 0)
(0.99955 -0.000121101 0)
(0.999557 -0.000127741 0)
(0.99956 -0.000134282 0)
(0.999564 -0.00013962 0)
(0.999566 -0.00014503 0)
(0.999567 -0.000149964 0)
(0.999509 -9.2644e-06 0)
(0.99947 -2.24171e-05 0)
(0.999473 -3.63104e-05 0)
(0.999477 -4.98195e-05 0)
(0.999481 -6.3136e-05 0)
(0.999488 -7.5433e-05 0)
(0.999494 -8.73779e-05 0)
(0.999502 -9.79518e-05 0)
(0.999509 -0.000108114 0)
(0.999518 -0.000116664 0)
(0.999523 -0.000124901 0)
(0.999532 -0.000131461 0)
(0.999536 -0.000137913 0)
(0.999542 -0.000142979 0)
(0.999544 -0.000148138 0)
(0.999546 -0.000152685 0)
(0.999469 -9.61817e-06 0)
(0.999428 -2.32888e-05 0)
(0.999432 -3.77237e-05 0)
(0.999437 -5.17526e-05 0)
(0.999443 -6.55651e-05 0)
(0.999451 -7.83233e-05 0)
(0.999459 -9.06659e-05 0)
(0.999469 -0.000101581 0)
(0.999477 -0.000112005 0)
(0.999488 -0.000120705 0)
(0.999496 -0.000129034 0)
(0.999507 -0.000135501 0)
(0.999513 -0.000141842 0)
(0.99952 -0.000146575 0)
(0.999523 -0.00015142 0)
(0.999526 -0.000155474 0)
(0.999427 -9.99272e-06 0)
(0.999385 -2.41691e-05 0)
(0.99939 -3.91546e-05 0)
(0.999395 -5.37184e-05 0)
(0.999403 -6.80429e-05 0)
(0.999412 -8.1291e-05 0)
(0.999422 -9.40548e-05 0)
(0.999434 -0.000105346 0)
(0.999445 -0.000116058 0)
(0.999459 -0.000124931 0)
(0.999469 -0.000133364 0)
(0.999481 -0.000139727 0)
(0.99949 -0.000145942 0)
(0.999499 -0.000150279 0)
(0.999504 -0.000154748 0)
(0.999507 -0.000158192 0)
(0.999384 -1.0371e-05 0)
(0.99934 -2.49975e-05 0)
(0.999345 -4.0507e-05 0)
(0.999352 -5.55884e-05 0)
(0.999361 -7.04114e-05 0)
(0.999372 -8.41562e-05 0)
(0.999384 -9.73461e-05 0)
(0.999398 -0.000109038 0)
(0.999412 -0.000120055 0)
(0.999428 -0.000129123 0)
(0.999441 -0.000137676 0)
(0.999456 -0.000143929 0)
(0.999467 -0.000150006 0)
(0.999479 -0.000153887 0)
(0.999485 -0.000157918 0)
(0.99949 -0.000160631 0)
(0.999338 -1.0727e-05 0)
(0.999292 -2.56925e-05 0)
(0.999298 -4.16509e-05 0)
(0.999306 -5.71882e-05 0)
(0.999316 -7.24569e-05 0)
(0.99933 -8.6673e-05 0)
(0.999344 -0.000100269 0)
(0.999361 -0.000112369 0)
(0.999377 -0.0001237 0)
(0.999396 -0.000132986 0)
(0.999412 -0.000141674 0)
(0.999431 -0.000147817 0)
(0.999444 -0.000153752 0)
(0.999459 -0.000157122 0)
(0.999467 -0.000160659 0)
(0.999474 -0.000162511 0)
(0.99929 -1.10257e-05 0)
(0.999242 -2.61425e-05 0)
(0.999249 -4.24079e-05 0)
(0.999258 -5.82792e-05 0)
(0.99927 -7.38843e-05 0)
(0.999286 -8.85032e-05 0)
(0.999302 -0.000102448 0)
(0.999322 -0.000114942 0)
(0.999341 -0.000126579 0)
(0.999364 -0.0001361 0)
(0.999383 -0.000144945 0)
(0.999406 -0.000150987 0)
(0.999423 -0.000156788 0)
(0.99944 -0.000159597 0)
(0.999451 -0.000162593 0)
(0.99946 -0.00016345 0)
(0.99924 -1.12192e-05 0)
(0.999189 -2.6203e-05 0)
(0.999197 -4.25474e-05 0)
(0.999208 -5.85499e-05 0)
(0.999221 -7.4311e-05 0)
(0.999239 -8.92035e-05 0)
(0.999258 -0.000103392 0)
(0.999281 -0.000116233 0)
(0.999304 -0.000128147 0)
(0.99933 -0.000137916 0)
(0.999354 -0.000146939 0)
(0.99938 -0.000152902 0)
(0.999401 -0.000158592 0)
(0.999423 -0.000160807 0)
(0.999437 -0.000163227 0)
(0.999449 -0.000162952 0)
(0.999187 -1.12455e-05 0)
(0.999134 -2.56881e-05 0)
(0.999143 -4.17709e-05 0)
(0.999155 -5.75988e-05 0)
(0.99917 -7.32394e-05 0)
(0.999191 -8.8198e-05 0)
(0.999212 -0.000102459 0)
(0.999239 -0.000115554 0)
(0.999265 -0.000127687 0)
(0.999295 -0.000137708 0)
(0.999324 -0.000146932 0)
(0.999355 -0.000152853 0)
(0.99938 -0.000158478 0)
(0.999407 -0.000160084 0)
(0.999425 -0.000161917 0)
(0.999441 -0.000160376 0)
(0.999132 -1.10247e-05 0)
(0.999078 -2.43634e-05 0)
(0.999087 -3.97031e-05 0)
(0.999101 -5.49168e-05 0)
(0.999117 -7.004e-05 0)
(0.99914 -8.47527e-05 0)
(0.999164 -9.88308e-05 0)
(0.999194 -0.000112026 0)
(0.999224 -0.000124274 0)
(0.999259 -0.000134538 0)
(0.999293 -0.000143981 0)
(0.999329 -0.000149923 0)
(0.99936 -0.000155553 0)
(0.999392 -0.000156567 0)
(0.999416 -0.000157831 0)
(0.999436 -0.000154898 0)
(0.999075 -1.04561e-05 0)
(0.99902 -2.19401e-05 0)
(0.99903 -3.58791e-05 0)
(0.999045 -4.98739e-05 0)
(0.999063 -6.39286e-05 0)
(0.999088 -7.79503e-05 0)
(0.999114 -9.14778e-05 0)
(0.999148 -0.000104535 0)
(0.999182 -0.000116739 0)
(0.999222 -0.000127208 0)
(0.999261 -0.000136888 0)
(0.999303 -0.000142935 0)
(0.999341 -0.000148677 0)
(0.99938 -0.000149159 0)
(0.999409 -0.000149915 0)
(0.999435 -0.000145483 0)
(0.999017 -9.41571e-06 0)
(0.998962 -1.80658e-05 0)
(0.998972 -2.97316e-05 0)
(0.998988 -4.16957e-05 0)
(0.999008 -5.394e-05 0)
(0.999035 -6.66537e-05 0)
(0.999064 -7.91169e-05 0)
(0.999101 -9.16868e-05 0)
(0.999139 -0.000103599 0)
(0.999184 -0.000114203 0)
(0.999228 -0.000124117 0)
(0.999277 -0.000130386 0)
(0.999322 -0.000136385 0)
(0.999369 -0.000136453 0)
(0.999406 -0.000136823 0)
(0.999439 -0.000130812 0)
(0.998958 -7.75216e-06 0)
(0.998905 -1.23236e-05 0)
(0.998916 -2.05867e-05 0)
(0.998932 -2.94599e-05 0)
(0.998952 -3.89175e-05 0)
(0.998981 -4.94915e-05 0)
(0.999012 -6.01926e-05 0)
(0.999052 -7.17723e-05 0)
(0.999094 -8.30359e-05 0)
(0.999144 -9.36388e-05 0)
(0.999195 -0.00010376 0)
(0.999251 -0.000110397 0)
(0.999304 -0.000116848 0)
(0.999359 -0.000116698 0)
(0.999405 -0.000116882 0)
(0.999448 -0.000109261 0)
(0.998901 -5.28648e-06 0)
(0.998851 -4.22654e-06 0)
(0.998862 -7.65535e-06 0)
(0.998879 -1.20786e-05 0)
(0.998899 -1.74887e-05 0)
(0.998929 -2.48222e-05 0)
(0.998961 -3.28238e-05 0)
(0.999003 -4.27091e-05 0)
(0.999049 -5.28028e-05 0)
(0.999103 -6.31738e-05 0)
(0.99916 -7.34145e-05 0)
(0.999224 -8.05911e-05 0)
(0.999287 -8.77358e-05 0)
(0.999352 -8.76639e-05 0)
(0.999409 -8.79667e-05 0)
(0.999462 -7.87729e-05 0)
(0.998848 -1.80961e-06 0)
(0.998803 6.77127e-06 0)
(0.998813 9.95174e-06 0)
(0.99883 1.16816e-05 0)
(0.998849 1.19156e-05 0)
(0.998879 9.2507e-06 0)
(0.998911 5.18528e-06 0)
(0.998955 -2.0323e-06 0)
(0.999003 -1.02144e-05 0)
(0.999062 -1.99698e-05 0)
(0.999125 -3.01447e-05 0)
(0.999197 -3.80398e-05 0)
(0.99927 -4.61624e-05 0)
(0.999347 -4.65923e-05 0)
(0.999417 -4.74521e-05 0)
(0.999483 -3.68241e-05 0)
(0.9988 2.91273e-06 0)
(0.998764 2.12667e-05 0)
(0.998773 3.32112e-05 0)
(0.998788 4.31897e-05 0)
(0.998806 5.10546e-05 0)
(0.998834 5.48851e-05 0)
(0.998866 5.63692e-05 0)
(0.99891 5.31503e-05 0)
(0.998959 4.79333e-05 0)
(0.999021 3.94141e-05 0)
(0.99909 2.96638e-05 0)
(0.999169 2.09084e-05 0)
(0.999253 1.15087e-05 0)
(0.999343 1.00041e-05 0)
(0.999428 7.98739e-06 0)
(0.999512 1.97666e-05 0)
(0.998761 9.13644e-06 0)
(0.998738 3.98717e-05 0)
(0.998744 6.31333e-05 0)
(0.998758 8.38784e-05 0)
(0.998772 0.000101799 0)
(0.998798 0.000114415 0)
(0.998827 0.000123526 0)
(0.998869 0.000126098 0)
(0.998918 0.000125328 0)
(0.99898 0.000119024 0)
(0.999054 0.000110343 0)
(0.99914 0.000100699 0)
(0.999236 8.97622e-05 0)
(0.99934 8.64385e-05 0)
(0.999443 8.24653e-05 0)
(0.999547 9.48968e-05 0)
(0.998735 1.71238e-05 0)
(0.99873 6.31733e-05 0)
(0.998733 0.000100697 0)
(0.998743 0.000135164 0)
(0.998753 0.000166036 0)
(0.998774 0.000190261 0)
(0.998797 0.000209633 0)
(0.998835 0.000220391 0)
(0.998881 0.000226134 0)
(0.998943 0.00022357 0)
(0.999019 0.000217067 0)
(0.999111 0.000206785 0)
(0.999218 0.000194208 0)
(0.999338 0.000188165 0)
(0.999462 0.000181211 0)
(0.99959 0.000193478 0)
(0.998728 2.71259e-05 0)
(0.998745 9.16564e-05 0)
(0.998744 0.000146731 0)
(0.99875 0.000198282 0)
(0.998753 0.000245474 0)
(0.998767 0.000284705 0)
(0.998783 0.000317624 0)
(0.998813 0.000339708 0)
(0.998853 0.000354816 0)
(0.998911 0.000358318 0)
(0.998986 0.000355851 0)
(0.999081 0.00034573 0)
(0.999199 0.000331828 0)
(0.999335 0.000322127 0)
(0.999483 0.000311025 0)
(0.999641 0.000321905 0)
(0.998744 3.93497e-05 0)
(0.998791 0.000125611 0)
(0.998785 0.000201756 0)
(0.998785 0.000274078 0)
(0.998779 0.000341384 0)
(0.998784 0.000399601 0)
(0.998789 0.000450064 0)
(0.998808 0.000487514 0)
(0.998837 0.000515848 0)
(0.998887 0.000528876 0)
(0.998957 0.000533434 0)
(0.999052 0.000525291 0)
(0.999178 0.000511227 0)
(0.999329 0.000497221 0)
(0.999504 0.000480955 0)
(0.999699 0.000488774 0)
(0.998791 5.39177e-05 0)
(0.998873 0.000165001 0)
(0.998861 0.00026578 0)
(0.998854 0.000362718 0)
(0.998838 0.000454224 0)
(0.998831 0.000535907 0)
(0.998822 0.000608631 0)
(0.998827 0.000666492 0)
(0.998841 0.000713151 0)
(0.998876 0.000740676 0)
(0.998936 0.000756869 0)
(0.999026 0.000754121 0)
(0.999155 0.000742453 0)
(0.99932 0.000724156 0)
(0.999525 0.00070205 0)
(0.999763 0.000704229 0)
(0.998875 7.08124e-05 0)
(0.999 0.000209321 0)
(0.998981 0.000338051 0)
(0.998965 0.000463327 0)
(0.998938 0.000583169 0)
(0.998916 0.00069311 0)
(0.99889 0.000793413 0)
(0.998877 0.000877754 0)
(0.998871 0.000949257 0)
(0.998887 0.000998199 0)
(0.998929 0.00103292 0)
(0.999005 0.00104154 0)
(0.999132 0.00103714 0)
(0.999305 0.00101593 0)
(0.999541 0.000987362 0)
(0.999828 0.000978924 0)
(0.999003 8.98135e-05 0)
(0.999176 0.000257431 0)
(0.999151 0.000416781 0)
(0.999127 0.00057359 0)
(0.999086 0.000725554 0)
(0.999049 0.000868475 0)
(0.999004 0.00100196 0)
(0.998969 0.00111969 0)
(0.998937 0.00122401 0)
(0.998928 0.00130368 0)
(0.998944 0.00136716 0)
(0.998998 0.00139758 0)
(0.99911 0.00141059 0)
(0.999283 0.00139311 0)
(0.999546 0.00136087 0)
(0.999891 0.001336 0)
(0.999182 0.000110429 0)
(0.999409 0.000307423 0)
(0.999378 0.000498911 0)
(0.999344 0.000689374 0)
(0.999291 0.000876308 0)
(0.999238 0.00105622 0)
(0.999172 0.00122812 0)
(0.999113 0.00138631 0)
(0.999053 0.0015323 0)
(0.999013 0.00165419 0)
(0.998995 0.00176044 0)
(0.999016 0.00182969 0)
(0.9991 0.00188045 0)
(0.999255 0.00188802 0)
(0.999532 0.00187428 0)
(0.999939 0.0018462 0)
(0.999417 0.000131839 0)
(0.9997 0.000356547 0)
(0.999663 0.000579963 0)
(0.999622 0.000804476 0)
(0.999557 0.00102754 0)
(0.999489 0.00124684 0)
(0.999404 0.0014609 0)
(0.999321 0.00166542 0)
(0.999232 0.00186109 0)
(0.999158 0.0020367 0)
(0.999101 0.00220086 0)
(0.999082 0.00232974 0)
(0.999126 0.00244654 0)
(0.999249 0.00251628 0)
(0.999516 0.00257347 0)
(0.999962 0.00260114 0)
(0.99971 0.000152862 0)
(1.00005 0.000401262 0)
(1.00001 0.000654122 0)
(0.999961 0.000910701 0)
(0.999887 0.00116857 0)
(0.999806 0.00142703 0)
(0.999704 0.00168421 0)
(0.9996 0.00193793 0)
(0.999483 0.00218786 0)
(0.999378 0.0024248 0)
(0.999281 0.00265685 0)
(0.999221 0.00285964 0)
(0.99922 0.00306082 0)
(0.999302 0.00321681 0)
(0.999539 0.00337973 0)
(0.999973 0.0035061 0)
(1.00006 0.000171981 0)
(1.00045 0.000437421 0)
(1.00041 0.000714533 0)
(1.00036 0.000998297 0)
(1.00028 0.00128656 0)
(1.00019 0.00158054 0)
(1.00007 0.00187802 0)
(0.999952 0.00217953 0)
(0.999812 0.00248332 0)
(0.999677 0.0027832 0)
(0.999542 0.00308503 0)
(0.999438 0.00336508 0)
(0.999384 0.00365092 0)
(0.999411 0.00388915 0)
(0.999593 0.00414049 0)
(0.999968 0.00432894 0)
(1.00046 0.00018742 0)
(1.0009 0.000460592 0)
(1.00086 0.000753844 0)
(1.0008 0.00105673 0)
(1.00072 0.00136749 0)
(1.00063 0.00168947 0)
(1.00051 0.0020202 0)
(1.00037 0.00236333 0)
(1.00022 0.00271541 0)
(1.00006 0.00307441 0)
(0.999884 0.0034424 0)
(0.999734 0.00379849 0)
(0.999616 0.00416655 0)
(0.999569 0.00448628 0)
(0.999661 0.00482312 0)
(0.99993 0.00507138 0)
(1.00091 0.000197286 0)
(1.00138 0.000466457 0)
(1.00134 0.000764844 0)
(1.00129 0.00107556 0)
(1.00121 0.00139737 0)
(1.00112 0.00173573 0)
(1.00099 0.00208802 0)
(1.00086 0.00246134 0)
(1.00069 0.00285035 0)
(1.00051 0.0032583 0)
(1.0003 0.00368209 0)
(1.0001 0.00410647 0)
(0.999914 0.0045475 0)
(0.999776 0.00494266 0)
(0.999747 0.00535584 0)
(0.999864 0.00565613 0)
(1.00139 0.000199732 0)
(1.00186 0.000451323 0)
(1.00183 0.000741318 0)
(1.00178 0.00104569 0)
(1.00171 0.00136375 0)
(1.00163 0.0017029 0)
(1.00151 0.00206054 0)
(1.00138 0.00244728 0)
(1.00121 0.00285605 0)
(1.00101 0.0032964 0)
(1.00078 0.00375946 0)
(1.00054 0.00423899 0)
(1.00027 0.00473991 0)
(1.00002 0.00520389 0)
(0.999842 0.0056856 0)
(0.999762 0.00603281 0)
(1.00187 0.000193184 0)
(1.00233 0.00041267 0)
(1.0023 0.00067894 0)
(1.00227 0.000960577 0)
(1.00221 0.00125739 0)
(1.00214 0.0015783 0)
(1.00204 0.00192082 0)
(1.00191 0.00229887 0)
(1.00175 0.00270399 0)
(1.00156 0.00315282 0)
(1.00131 0.00363088 0)
(1.00102 0.00414468 0)
(1.00068 0.00468601 0)
(1.00032 0.00521014 0)
(0.999951 0.00575587 0)
(0.999628 0.0061583 0)
(1.00234 0.000176571 0)
(1.00276 0.000349668 0)
(1.00274 0.000576152 0)
(1.00272 0.000817536 0)
(1.00267 0.00107395 0)
(1.00262 0.00135511 0)
(1.00254 0.00165858 0)
(1.00243 0.00200095 0)
(1.00228 0.00237271 0)
(1.0021 0.00279763 0)
(1.00185 0.00325638 0)
(1.00154 0.00377124 0)
(1.00113 0.00431971 0)
(1.00065 0.00488122 0)
(1.00009 0.00547075 0)
(0.999474 0.0059274 0)
(1.00277 0.000149548 0)
(1.00312 0.00026358 0)
(1.00311 0.000434848 0)
(1.0031 0.000618796 0)
(1.00307 0.00081553 0)
(1.00303 0.00103456 0)
(1.00297 0.00127317 0)
(1.00289 0.00154931 0)
(1.00277 0.00185248 0)
(1.0026 0.00221239 0)
(1.00236 0.00260584 0)
(1.00205 0.00307249 0)
(1.00158 0.00357578 0)
(1.00101 0.00413061 0)
(1.00023 0.00471774 0)
(0.999292 0.00519704 0)
(1.00313 0.000112666 0)
(1.00339 0.000158667 0)
(1.00338 0.00026194 0)
(1.00338 0.000373857 0)
(1.00336 0.00049405 0)
(1.00334 0.000630614 0)
(1.0033 0.000779872 0)
(1.00324 0.000959307 0)
(1.00315 0.00115689 0)
(1.00301 0.00140523 0)
(1.00279 0.00167804 0)
(1.00248 0.00203048 0)
(1.002 0.00241517 0)
(1.00136 0.00289705 0)
(1.00039 0.00342889 0)
(0.999098 0.00392928 0)
(1.00339 6.7758e-05 0)
(1.00355 4.3824e-05 0)
(1.00355 7.21035e-05 0)
(1.00355 0.000103477 0)
(1.00355 0.000136772 0)
(1.00354 0.000177185 0)
(1.00351 0.000219232 0)
(1.00347 0.000277857 0)
(1.0034 0.000338479 0)
(1.00328 0.000431485 0)
(1.00309 0.00052609 0)
(1.00281 0.000680262 0)
(1.00235 0.000829366 0)
(1.00171 0.00107694 0)
(1.00063 0.00132239 0)
(0.999017 0.00161505 0)
(1.00355 1.86211e-05 0)
(1.00359 -7.44323e-05 0)
(1.00358 -0.000123705 0)
(1.00359 -0.000176399 0)
(1.00358 -0.000234698 0)
(1.00357 -0.000297551 0)
(1.00354 -0.000373432 0)
(1.0035 -0.00045175 0)
(1.00343 -0.0005514 0)
(1.00331 -0.000649173 0)
(1.00312 -0.000782647 0)
(1.00281 -0.000906827 0)
(1.00233 -0.00111012 0)
(1.0016 -0.00128762 0)
(1.0004 -0.00164424 0)
(0.9986 -0.00192373 0)
(1.00359 -3.19905e-05 0)
(1.0034 -0.000197757 0)
(1.00339 -0.000327732 0)
(1.00338 -0.000467829 0)
(1.00335 -0.000621603 0)
(1.00332 -0.000791282 0)
(1.00326 -0.000989351 0)
(1.00319 -0.0012103 0)
(1.00307 -0.00148024 0)
(1.0029 -0.00178278 0)
(1.00264 -0.00216386 0)
(1.00224 -0.00258285 0)
(1.00166 -0.00313033 0)
(1.00078 -0.00368124 0)
(0.999509 -0.00442172 0)
(0.99783 -0.0049143 0)
(1.00341 -8.47418e-05 0)
(1.00296 -0.000321212 0)
(1.00293 -0.000531773 0)
(1.0029 -0.000758716 0)
(1.00284 -0.00100656 0)
(1.00276 -0.00127904 0)
(1.00265 -0.00159088 0)
(1.00251 -0.00194086 0)
(1.00231 -0.00236113 0)
(1.00204 -0.00284027 0)
(1.00168 -0.00342707 0)
(1.00116 -0.00407752 0)
(1.0005 -0.00486808 0)
(0.99959 -0.00563769 0)
(0.998497 -0.00649842 0)
(0.997224 -0.00696328 0)
(1.00296 -0.000137497 0)
(1.00227 -0.000437406 0)
(1.00222 -0.000723085 0)
(1.00216 -0.00102985 0)
(1.00206 -0.0013629 0)
(1.00193 -0.00172542 0)
(1.00175 -0.00213045 0)
(1.00152 -0.00257807 0)
(1.00123 -0.00310113 0)
(1.00084 -0.00369077 0)
(1.00036 -0.00438923 0)
(0.999748 -0.00514998 0)
(0.999049 -0.00602787 0)
(0.998236 -0.00686391 0)
(0.997479 -0.00772235 0)
(0.996745 -0.00817159 0)
(1.00229 -0.000187099 0)
(1.00137 -0.00054104 0)
(1.00129 -0.00089102 0)
(1.00119 -0.00126305 0)
(1.00105 -0.00166348 0)
(1.00086 -0.00209438 0)
(1.00063 -0.00256494 0)
(1.00032 -0.00307353 0)
(0.999931 -0.00364649 0)
(0.999447 -0.00427495 0)
(0.998881 -0.00499075 0)
(0.998211 -0.00574516 0)
(0.997525 -0.00655341 0)
(0.996871 -0.00730133 0)
(0.99648 -0.00803862 0)
(0.996307 -0.0084787 0)
(1.00139 -0.000231421 0)
(1.00028 -0.000626695 0)
(1.00018 -0.0010261 0)
(1.00005 -0.00144324 0)
(0.999863 -0.00188554 0)
(0.999633 -0.00235605 0)
(0.99935 -0.00286432 0)
(0.998989 -0.00340961 0)
(0.998532 -0.00400271 0)
(0.99798 -0.00462122 0)
(0.997362 -0.00528687 0)
(0.996705 -0.00595363 0)
(0.99611 -0.00657357 0)
(0.995671 -0.00707793 0)
(0.995598 -0.00753509 0)
(0.995875 -0.0078893 0)
(1.0003 -0.000268357 0)
(0.999052 -0.000691639 0)
(0.998947 -0.00113037 0)
(0.998794 -0.00158026 0)
(0.998575 -0.00204515 0)
(0.9983 -0.00252977 0)
(0.997961 -0.00305021 0)
(0.997544 -0.00361364 0)
(0.997041 -0.00421044 0)
(0.99647 -0.00477683 0)
(0.995883 -0.00530853 0)
(0.995401 -0.005782 0)
(0.995161 -0.00617591 0)
(0.995095 -0.00644552 0)
(0.995255 -0.0066406 0)
(0.995645 -0.00684994 0)
(0.999081 -0.00029637 0)
(0.997683 -0.000733661 0)
(0.997567 -0.0012084 0)
(0.997397 -0.00169112 0)
(0.997152 -0.00217414 0)
(0.996836 -0.00265644 0)
(0.996443 -0.00314829 0)
(0.995994 -0.00365044 0)
(0.995574 -0.00414856 0)
(0.995253 -0.00459654 0)
(0.995 -0.00495925 0)
(0.994866 -0.00521854 0)
(0.994874 -0.00545762 0)
(0.994975 -0.00568255 0)
(0.995195 -0.00586032 0)
(0.995559 -0.00601219 0)
(0.997716 -0.000313534 0)
(0.996119 -0.000723097 0)
(0.996002 -0.00118806 0)
(0.99588 -0.00165984 0)
(0.995717 -0.0021322 0)
(0.995515 -0.00259026 0)
(0.99528 -0.0030246 0)
(0.995044 -0.00340533 0)
(0.994869 -0.00372536 0)
(0.994763 -0.00403885 0)
(0.994702 -0.00434795 0)
(0.994678 -0.00461141 0)
(0.994679 -0.00483513 0)
(0.994791 -0.00503635 0)
(0.995043 -0.0052065 0)
(0.995437 -0.00536243 0)
(0.996162 -0.000308461 0)
(0.995158 -0.000655372 0)
(0.995094 -0.00104848 0)
(0.995025 -0.00144142 0)
(0.994939 -0.00184567 0)
(0.994844 -0.00224188 0)
(0.99475 -0.00262626 0)
(0.994661 -0.00298112 0)
(0.994565 -0.00330087 0)
(0.994449 -0.00358905 0)
(0.994382 -0.00385307 0)
(0.994388 -0.00409105 0)
(0.994466 -0.00429313 0)
(0.994632 -0.00446882 0)
(0.994898 -0.00462249 0)
(0.995273 -0.00478262 0)
(0.995184 -0.000281051 0)
(0.994724 -0.00058883 0)
(0.994689 -0.0009523 0)
(0.994619 -0.00131285 0)
(0.994528 -0.00166804 0)
(0.994427 -0.00201064 0)
(0.994324 -0.00233766 0)
(0.994235 -0.00264555 0)
(0.994169 -0.00293181 0)
(0.99413 -0.00319014 0)
(0.994131 -0.00341427 0)
(0.994184 -0.0036169 0)
(0.994287 -0.00379335 0)
(0.994469 -0.0039583 0)
(0.994732 -0.00410767 0)
(0.995088 -0.00426904 0)
(0.994734 -0.000252743 0)
(0.994199 -0.000524432 0)
(0.994166 -0.000851642 0)
(0.994121 -0.00117666 0)
(0.994067 -0.00149167 0)
(0.99401 -0.00179325 0)
(0.993958 -0.00207745 0)
(0.993916 -0.0023422 0)
(0.993889 -0.00258553 0)
(0.99388 -0.00280914 0)
(0.993908 -0.00300815 0)
(0.993985 -0.00319246 0)
(0.994112 -0.00335447 0)
(0.994305 -0.00350954 0)
(0.994562 -0.00365284 0)
(0.994892 -0.00381221 0)
(0.99421 -0.000224836 0)
(0.993819 -0.000465053 0)
(0.993797 -0.000752934 0)
(0.993764 -0.00103761 0)
(0.993725 -0.00131324 0)
(0.993686 -0.00157698 0)
(0.993653 -0.00182588 0)
(0.993634 -0.00205968 0)
(0.993633 -0.00227556 0)
(0.993657 -0.00247453 0)
(0.993713 -0.00265151 0)
(0.99381 -0.00281708 0)
(0.99395 -0.00296536 0)
(0.994145 -0.00311226 0)
(0.994388 -0.00325065 0)
(0.994691 -0.00340617 0)
(0.993826 -0.000199478 0)
(0.99347 -0.000409557 0)
(0.993456 -0.000663236 0)
(0.993438 -0.00091392 0)
(0.993419 -0.00115605 0)
(0.993403 -0.00138748 0)