/*--------------------------------*- C++ -*----------------------------------*\
  =========                 |
  \\      /  F ield         | OpenFOAM: The Open Source CFD Toolbox
   \\    /   O peration     | Website:  https://openfoam.org
    \\  /    A nd           | Version:  8
     \\/     M anipulation  |
\*---------------------------------------------------------------------------*/
FoamFile
{
    version     2.0;
    format      ascii;
    class       surfaceScalarField;
    location    "0.0865000";
    object      phi;
}
// * * * * * * * * * * * * * * * * * * * * * * * * * * * * * * * * * * * * * //

dimensions      [0 3 -1 0 0 0 0];

internalField   nonuniform List<scalar> 
1691
(
7.59880843498794e-10
9.51207176606195e-12
7.5059121124294e-10
9.64043222240822e-12
7.41277119375943e-10
9.740556436555e-12
7.31833145937513e-10
9.94163543476834e-12
7.2232081256295e-10
1.00516151310357e-11
7.12786683922886e-10
1.0112570658039e-11
7.03250045361904e-10
1.01519525270911e-11
6.93724062574237e-10
1.01861676040884e-11
6.8420343608272e-10
1.02140357754374e-11
6.74687989576238e-10
1.02374065550159e-11
6.65177411424914e-10
1.02599249104997e-11
6.55674755936072e-10
1.0284047762934e-11
6.46178964915931e-10
1.03075424505247e-11
6.36687155208496e-10
1.03276989117816e-11
6.27200115792828e-10
1.03465625352543e-11
6.17717962527256e-10
1.03671867797497e-11
6.08244369485069e-10
1.03894125045998e-11
5.98774476718532e-10
1.04085680615699e-11
5.893098697096e-10
1.04263306982877e-11
5.79848781646169e-10
1.04461682941363e-11
5.70397946465407e-10
1.04699595354174e-11
5.60951268402415e-10
1.04912497306136e-11
5.51510183990037e-10
1.05110528331908e-11
5.42073032110792e-10
1.0533016208117e-11
5.32645240151063e-10
1.0560154868799e-11
5.23224077085057e-10
1.05874986634709e-11
5.13809360142727e-10
1.06135058644089e-11
5.04400658173387e-10
1.06418722504682e-11
4.95000490343235e-10
1.06771169392525e-11
4.85611772168835e-10
1.07168555112038e-11
4.76229928436118e-10
1.07552159688878e-11
4.66856322769899e-10
1.07954307566621e-11
4.57489691815329e-10
1.08451641472761e-11
4.48143318435857e-10
1.09083461917232e-11
4.38805420224576e-10
1.09707356697355e-11
4.29480575604234e-10
1.10353518628905e-11
4.20160613838302e-10
1.11149589807204e-11
4.10874209513641e-10
1.12229778020338e-11
4.01600886893394e-10
1.1331592082727e-11
3.92347406437577e-10
1.14439860774622e-11
3.83104512426121e-10
1.15794274583345e-11
3.73903917376119e-10
1.17615184353427e-11
3.64735271887854e-10
1.19618757823609e-11
3.55595582575087e-10
1.21682799687217e-11
3.46479604747716e-10
1.24045593274279e-11
3.3741200849819e-10
1.27132430246879e-11
3.28417762759939e-10
1.30794335558679e-11
3.19464205598974e-10
1.3449492005744e-11
3.1055974933128e-10
1.38547608380775e-11
3.0170485350238e-10
1.43761744402983e-11
2.93002688695536e-10
1.50373171958112e-11
2.84357869787068e-10
1.5693728105263e-11
2.75813052543823e-10
1.63839388459831e-11
2.67299463275192e-10
1.7249665879361e-11
2.59089621193405e-10
1.84261412955707e-11
2.50931281163405e-10
1.96570134291305e-11
2.43042689403114e-10
2.11408513049311e-11
2.35179991748653e-10
2.3377214026349e-11
2.28350783784421e-10
2.72403162392796e-11
2.22233209871785e-10
3.19317225250175e-11
2.16904440662318e-10
3.70633815294729e-11
2.11949478016024e-10
4.32132407896393e-11
2.08828622105207e-10
5.10163269441529e-11
2.06448961357773e-10
5.82583034805735e-11
2.04835796111084e-10
6.46217534021472e-11
2.03610401320059e-10
7.12754573872405e-11
2.04350420309052e-10
7.8858259237214e-11
2.05632652942965e-10
8.51275495399793e-11
2.07507705543981e-10
9.00692588521364e-11
2.09786234370809e-10
9.4703643001741e-11
2.13569562793366e-10
9.90144833659087e-11
2.17187642080579e-10
1.01450387981763e-10
2.21069880467299e-10
1.02639133793366e-10
2.25458939242288e-10
1.0283125574554e-10
2.29414200321238e-10
1.01466862773125e-10
2.33133473571319e-10
9.90243745676902e-11
2.36974311894457e-10
9.55706745069046e-11
2.40057991683483e-10
9.0434558348938e-11
2.41680083796311e-10
8.41702129557442e-11
2.43045599552859e-10
7.76869766895052e-11
2.44701318780174e-10
7.02340609100788e-11
2.4288781127022e-10
6.108736527358e-11
2.40609409068811e-10
5.25013932079145e-11
2.38387799936216e-10
4.3867559260429e-11
2.34116619130839e-10
3.5338080212804e-11
2.28426976312511e-10
2.51203215036276e-11
2.29859522108694e-10
1.12026615395954e-11
2.31368589190033e-10
4.91898970095607e-12
2.29935006398824e-10
5.90761722002147e-13
2.290880892356e-10
-3.07430237062776e-12
2.28021034112839e-10
-5.1733869213999e-12
2.26509414839037e-10
-6.84628524803537e-12
2.24880997727726e-10
-7.82450143936649e-12
2.23346968269717e-10
-8.42170801608097e-12
2.21697181972574e-10
-8.68309213212332e-12
2.2007083787727e-10
-8.73151615024933e-12
2.18470297969642e-10
-8.53787815579817e-12
2.16624827377309e-10
-8.00144603987792e-12
2.14488072305736e-10
-6.673795803082e-12
-3.03009877180299e-12
3.86326919943061e-10
1.33722828655879e-11
3.82021427295727e-10
1.39992824188459e-11
3.77258903891792e-10
1.45563568501477e-11
3.72131803458078e-10
1.51219323793874e-11
3.66817472958189e-10
1.54190613901e-11
3.61436813205952e-10
1.55462670182298e-11
3.56043437227789e-10
1.55982861140797e-11
3.50656433643314e-10
1.56260462036706e-11
3.45279047517792e-10
1.56442101493426e-11
3.39910705968201e-10
1.56584525358496e-11
3.34551253115415e-10
1.56720034508636e-11
3.29201141923007e-10
1.56867001377421e-11
3.23859948875045e-10
1.57011865491568e-11
3.18526713203442e-10
1.57133044879873e-11
3.13201281253007e-10
1.57242935878943e-11
3.07884205456043e-10
1.57364884810918e-11
3.02575937163373e-10
1.57498262197032e-11
2.97275711211516e-10
1.57608586774756e-11
2.91983262057789e-10
1.5770764360109e-11
2.86699120057221e-10
1.57822082742984e-11
2.81424242490612e-10
1.57966429727324e-11
2.76157958887402e-10
1.58092447975246e-11
2.70899888624217e-10
1.58207467154267e-11
2.65650472835604e-10
1.5833983501105e-11
2.60410788081231e-10
1.5851324344074e-11
2.55180835563705e-10
1.58688570870569e-11
2.49960441431484e-10
1.58852110469079e-11
2.44750031968807e-10
1.59034884299219e-11
2.39550769424667e-10
1.59274811628053e-11
2.34363407781491e-10
1.59552184389783e-11
2.29187557114257e-10
1.59819769232283e-11
2.24023535708483e-10
1.60102854739986e-11
2.18873137727394e-10
1.60463219482327e-11
2.13738683868908e-10
1.60934690620352e-11
2.08619743409195e-10
1.61402285941331e-11
2.03516563087735e-10
1.61889592256634e-11
1.98431656462624e-10
1.62501799402776e-11
1.93369674187217e-10
1.6335170193612e-11
1.88330690667122e-10
1.6420671633079e-11
1.83315306043232e-10
1.65093348891785e-11
1.78327234734744e-10
1.66173165514784e-11
1.73373553418255e-10
1.67648578902479e-11
1.68456900060992e-10
1.69279997766812e-11
1.63578371770573e-10
1.70960424673314e-11
1.58743052254158e-10
1.72888808083554e-11
1.5396156630799e-10
1.75435555187504e-11
1.49241867150218e-10
1.78477458071064e-11
1.44585346195372e-10
1.81542929460347e-11
1.39999140788179e-10
1.84888674482832e-11
1.35499660044725e-10
1.89231862947875e-11
1.31104568096868e-10
1.94795640003392e-11
1.26815863239877e-10
2.00291528137458e-11
1.22643302992666e-10
2.06027013679448e-11
1.18612676354603e-10
2.13259232368225e-11
1.14763716729977e-10
2.23201029079175e-11
1.11117067164086e-10
2.33478730980842e-11
1.07745661395132e-10
2.4555294197954e-11
1.04807763990113e-10
2.63566062187271e-11
1.02532820932757e-10
2.95547369862149e-11
1.01038511835261e-10
3.34627034880594e-11
1.00408750499226e-10
3.77259436578727e-11
1.00760926115713e-10
4.28895622560638e-11
1.02227930539369e-10
4.95736978355166e-11
1.04766963204825e-10
5.57391776015706e-11
1.08324117566344e-10
6.10790513307293e-11
1.12916308350658e-10
6.66919129869345e-11
1.1859431948151e-10
7.31834492181271e-11
1.2523092030537e-10
7.84885668616147e-11
1.3268273539429e-10
8.26091139018825e-11
1.40863206765342e-10
8.65093150817775e-11
1.49694527835258e-10
9.01650021836141e-11
1.58956300200554e-10
9.21668528339854e-11
1.68463373817346e-10
9.31062735999692e-11
1.78056958351164e-10
9.32070300700507e-11
1.87522525538613e-10
9.19657113241481e-11
1.96703095940217e-10
8.98043151557883e-11
2.05447684598592e-10
8.67838616164833e-11
2.13513194796848e-10
8.2323989249003e-11
2.20691716197175e-10
7.69441543863461e-11
2.27034404510545e-10
7.12957883997014e-11
2.32361514392139e-10
6.48577088199003e-11
2.36330189975217e-10
5.70670233878886e-11
2.39024483602156e-10
4.9753402390338e-11
2.40790261201711e-10
4.20478726103846e-11
2.40870809904797e-10
3.52021311377208e-11
2.40206934548727e-10
2.57277428319758e-11
2.42050734194708e-10
9.30380526040184e-12
2.4324331419243e-10
3.67252384566436e-12
2.43030386207802e-10
7.49396919981164e-13
2.42384982058584e-10
-2.48393933255291e-12
2.4131383503287e-10
-4.15744636021601e-12
2.3997196129551e-10
-5.55965769345935e-12
2.38416093722885e-10
-6.32357638536758e-12
2.36795275925952e-10
-6.8552062315258e-12
2.35114383271956e-10
-7.05609042729732e-12
2.33428396017529e-10
-7.09923280586374e-12
2.31751496264144e-10
-6.91479562790245e-12
2.30084642619359e-10
-6.38859854134047e-12
2.28463209358076e-10
-5.10597229480413e-12
-2.10513733230842e-12
7.83546141513085e-11
1.2726384141263e-11
7.86456907884248e-11
1.37629882502739e-11
7.77204572256844e-11
1.55362779559558e-11
7.62241585610538e-11
1.66728229915588e-11
7.4467013358461e-11
1.72307024649518e-11
7.26195886151105e-11
1.7448093850968e-11
7.07514453818199e-11
1.75207379800802e-11
6.88871433733564e-11
1.75445588626694e-11
6.70319725949086e-11
1.75534893289891e-11
6.51859047994629e-11
1.75585302780305e-11
6.3348767341403e-11
1.75630571310072e-11
6.15208623776843e-11
1.75684211246965e-11
5.97018938867781e-11
1.75738655857884e-11
5.78909993449795e-11
1.75778142212512e-11
5.60879348759359e-11
1.75808886196982e-11
5.42932440852985e-11
1.75846213630888e-11
5.25073144460425e-11
1.75891019489213e-11
5.07294458363441e-11
1.75919778858079e-11
4.89592855719031e-11
1.75940801955758e-11
4.71974122136064e-11
1.75971363956536e-11
4.54446901120415e-11
1.7602312183579e-11
4.37005265117214e-11
1.76062439984822e-11
4.19644837174074e-11
1.76095217831919e-11
4.02370911963747e-11
1.76140236172668e-11
3.85194306095969e-11
1.76215523060255e-11
3.68114914776335e-11
1.76292692234338e-11
3.51129131931357e-11
1.76361522004405e-11
3.34241322738093e-11
1.76445119102166e-11
3.17464818544331e-11
1.7657252038635e-11
3.0080749701795e-11
1.76729546229109e-11
2.84265110878364e-11
1.76881139628197e-11
2.67839869013669e-11
1.77046166138358e-11
2.51551164132615e-11
1.77269129900031e-11
2.35423069361594e-11
1.77578951365291e-11
2.19451394330777e-11
1.77888788418125e-11
2.03636221051364e-11
1.78218143164574e-11
1.88006715456221e-11
1.78643391919747e-11
1.72612927904065e-11
1.79256404322905e-11
1.57454217394399e-11
1.79875058924046e-11
1.42532085040039e-11
1.80523648647339e-11
1.27888343926561e-11
1.81323460255799e-11
1.13602830552732e-11
1.82438866832043e-11
9.97038737845481e-12
1.83681659321552e-11
8.619600824437e-12
1.84968448557274e-11
7.31311050477196e-12
1.86451379994714e-11
6.06334849093385e-12
1.88429019485502e-11
4.8794357643225e-12
1.90810150668576e-11
3.76153558545415e-12
1.93211873020471e-11
2.71567192627402e-12
1.95833198504309e-11
1.76161230495323e-12
1.99254518855669e-11
9.21021010949888e-13
2.0367976457967e-11
1.93427346489068e-13
2.08041144668263e-11
-4.15136284842092e-13
2.12580848386207e-11
-8.74303686142527e-13
2.18313253751971e-11
-1.13620542084817e-12
2.26276058851942e-11
-1.18773469767663e-12
2.34441986443533e-11
-9.76076990173096e-13
2.43872417717742e-11
-3.53235018941153e-13
2.5775755979711e-11
9.45446286064785e-13
2.82961120303881e-11
3.05027807149782e-12
3.13951748985698e-11
6.03200720487484e-12
3.47774639598801e-11
1.00457939533788e-11
3.89045033935325e-11
1.53146679227574e-11
4.43295230373968e-11
2.17579455820062e-11
4.93162247983707e-11
2.92581554745855e-11
5.35935022174371e-11
3.78589634359253e-11
5.80997727177986e-11
4.76778852613642e-11
6.33677820799501e-11
5.85257333766179e-11
6.76384336070489e-11
7.02076456204747e-11
7.09188517830851e-11
8.26632699325154e-11
7.40397753053646e-11
9.58255492219299e-11
7.69845109822123e-11
1.0941859482455e-10
7.8552013387242e-11
1.23240624132768e-10
7.92584604318674e-11
1.37122776029522e-10
7.92942889135415e-11
1.50829044859938e-10
7.82239961507244e-11
1.64183537601263e-10
7.64105743343832e-11
1.77018525438766e-10
7.39068858910637e-11
1.890720587746e-10
7.02259405475417e-11
2.00171893180616e-10
6.57977357766673e-11
2.10265046774126e-10
6.11549820302068e-11
2.1920287850893e-10
5.58711893052217e-11
2.26715533487954e-10
4.95038901647736e-11
2.32913913967084e-10
4.35029162534446e-11
2.3775257708398e-10
3.71562675188078e-11
2.41146635591886e-10
3.17545021299555e-11
2.42983291688137e-10
2.38372456350274e-11
2.45162702677714e-10
7.07114413960771e-12
2.46111585105309e-10
2.67124056500843e-12
2.46160673761367e-10
6.48034658404813e-13
2.45518060970314e-10
-1.89419101707097e-12
2.4449661135162e-10
-3.18942475047033e-12
2.43156381304805e-10
-4.2728652223227e-12
2.41633578233804e-10
-4.85375320067941e-12
2.39999075696337e-10
-5.27314108030335e-12
2.38317062688616e-10
-5.42606622525267e-12
2.36623462772878e-10
-5.45747569903286e-12
2.34959703298729e-10
-5.3031922457231e-12
2.33383397041835e-10
-4.86475645075901e-12
2.32041501431171e-10
-3.81630004326055e-12
-1.50306106520002e-12
-1.58041654950431e-10
9.18864767020674e-12
-1.54685335041214e-10
1.04628464814188e-11
-1.52807523108748e-10
1.37145352907683e-11
-1.51523845326194e-10
1.54451044772014e-11
-1.50479941261021e-10
1.6242647216685e-11
-1.49513994937691e-10
1.65378882524404e-11
-1.48565849522275e-10
1.66282254659202e-11
-1.47615172093913e-10
1.66494018123907e-11
-1.46657463590882e-10
1.66511843807589e-11
-1.45692585144779e-10
1.66489424803063e-11
-1.44720712479598e-10
1.66463669195815e-11
-1.43741668388682e-10
1.66444446594889e-11
-1.42755642965809e-10
1.66427877821597e-11
-1.41763291579966e-10
1.66403008727028e-11
-1.40764850322595e-10
1.66371865399619e-11
-1.39759931872933e-10
1.66343392036989e-11
-1.38748240074375e-10
1.66319359926529e-11
-1.37730341856048e-10
1.66284955539569e-11
-1.36706525638079e-10
1.66245703441899e-11
-1.35676345606803e-10
1.66211473637438e-11
-1.34639093394321e-10
1.66191284771087e-11
-1.33595237348534e-10
1.66163300411862e-11
-1.32545097858852e-10
1.66132065820229e-11
-1.31488210362884e-10
1.66108616196573e-11
-1.30423629268393e-10
1.66106022358365e-11
-1.29351354391007e-10
1.66105163523767e-11
-1.28271714847815e-10
1.6609909581991e-11
-1.27184301159334e-10
1.6610359730212e-11
-1.26087865015051e-10
1.66139401399424e-11
-1.24981645682494e-10
1.66197280979534e-11
-1.2386594636913e-10
1.66252871095222e-11
-1.22740497972645e-10
1.66319347230209e-11
-1.21603541085989e-10
1.66426218351666e-11
-1.2045281827753e-10
1.66597192810471e-11
-1.19288587517116e-10
1.66770456100403e-11
-1.18110683232552e-10
1.66961468322286e-11
-1.16916322231452e-10
1.67220706781452e-11
-1.15700708840626e-10
1.67619871701942e-11
-1.14463819936891e-10
1.68024334510758e-11
-1.13205340243099e-10
1.68455398457637e-11
-1.11921178855852e-10
1.68996622057084e-11
-1.10603473739164e-10
1.69774645021509e-11
-1.09249282700981e-10
1.70650338846447e-11
-1.0785799508174e-10
1.7156344817185e-11
-1.06424494178635e-10
1.72621587865653e-11
-1.04936305284451e-10
1.74050355545014e-11
-1.03384070885373e-10
1.75788577396013e-11
-1.01767611003269e-10
1.77544230357785e-11
-1.00081265349808e-10
1.79462451712849e-11
-9.83048340172088e-11
1.81978895590317e-11
-9.64156454985084e-11
1.85272529325119e-11
-9.44145475560218e-11
1.88510086349132e-11
-9.22967639157674e-11
1.91877245041278e-11
-9.00312537976698e-11
1.96126320729113e-11
-8.75681592615577e-11
2.02106718526633e-11
-8.4897350124925e-11
2.08187182452574e-11
-8.19782270223068e-11
2.15122259262217e-11
-7.86773459281212e-11
2.25173386235893e-11
-7.47267916092096e-11
2.43860489215027e-11
-6.99899980653956e-11
2.66960741826169e-11
-6.43993862363478e-11
2.92204446101616e-11
-5.77813827005072e-11
3.23155246010948e-11
-4.98740968131372e-11
3.64471833605103e-11
-4.07687175001206e-11
4.02313691219228e-11
-3.06125209552733e-11
4.34521218402376e-11
-1.93509325641201e-11
4.68469603172208e-11
-6.83927863867775e-12
5.08594447464329e-11
6.71066134233427e-12
5.40862355674558e-11
2.1079679005447e-11
5.65414824099147e-11
3.62214093367208e-11
5.88841054660259e-11
5.20782546110681e-11
6.11094178073407e-11
6.8349820629308e-11
6.22586056163072e-11
8.48296915491941e-11
6.27527592626284e-11
1.01350989776374e-10
6.2742371006623e-11
1.17664695020226e-10
6.18748373577874e-11
1.33590799728346e-10
6.04452577443347e-11
1.48966069195268e-10
5.84897319932209e-11
1.6350932093595e-10
5.56383720589657e-11
1.77057390506855e-10
5.22033747122608e-11
1.89533707338941e-10
4.86313793889288e-11
2.00821928776393e-10
4.45347463524292e-11
2.10598419820522e-10
3.96775447411717e-11
2.19060443860216e-10
3.49895497024092e-11
2.25971696933138e-10
3.01929616558923e-11
2.31593019710972e-10
2.60807753945298e-11
2.35113506889708e-10
2.0264328524166e-11
2.37302719371003e-10
4.8300879192065e-12
2.3800125908598e-10
1.92166596719615e-12
2.38099163816356e-10
4.99313678385426e-13
2.37430567481292e-10
-1.27694355386576e-12
2.36457098921381e-10
-2.26794357468354e-12
2.35151046520935e-10
-3.01883016005458e-12
2.33697508806977e-10
-3.4517482203961e-12
2.32121891525979e-10
-3.74854250566403e-12
2.30508958119931e-10
-3.86374533386919e-12
2.28883238630576e-10
-3.88225563305947e-12
2.27296461686744e-10
-3.76726978144001e-12
2.25818131992914e-10
-3.4376602651431e-12
2.24609607128039e-10
-2.65885395679091e-12
-9.8198793234512e-13
-3.18021550127439e-10
4.37371499351127e-12
-3.13634791070413e-10
6.13363824942983e-12
-3.10187163064132e-10
1.0324335941052e-11
-3.07076561775495e-10
1.2391808009406e-11
-3.04075451282109e-10
1.32987172745614e-11
-3.01101729228963e-10
1.36212249116251e-11
-2.98131268418389e-10
1.37147017257341e-11
-2.95157255111553e-10
1.37321990439871e-11
-2.92178750760849e-10
1.37293597293181e-11
-2.89196077385316e-10
1.37228220179679e-11
-2.86209441258231e-10
1.37161615655955e-11
-2.83218742271553e-10
1.37100474713596e-11
-2.80224065545278e-10
1.37042787977451e-11
-2.77225839205254e-10
1.36981189616944e-11
-2.74224261724024e-10
1.36915409109149e-11
-2.71219114943331e-10
1.36850074499406e-11
-2.68210206285265e-10
1.36787179494937e-11
-2.65197945897796e-10
1.36718018659464e-11
-2.62182537820398e-10
1.36646054399666e-11
-2.59163693395849e-10
1.3657616692524e-11
-2.56140889543599e-10
1.36515015685773e-11
-2.53114450534501e-10
1.36449270870966e-11
-2.50084562562626e-10
1.36382227265486e-11
-2.47050863034537e-10
1.36319536540262e-11
-2.44012600841201e-10
1.36270233354238e-11
-2.40969752906434e-10
1.36222285649095e-11
-2.37922556762626e-10
1.36171340611282e-11
-2.3487065312517e-10
1.36127266663676e-11
-2.31812981534745e-10
1.36103871182256e-11
-2.28748851380649e-10
1.36095704613795e-11
-2.25678409281029e-10
1.36086828217319e-11
-2.22601337248127e-10
1.36085803560799e-11
-2.19516164060111e-10
1.36110514209781e-11
-2.16420913457977e-10
1.36179382166439e-11
-2.13315645754933e-10
1.36250830148458e-11
-2.10200009504108e-10
1.36336397951135e-11
-2.07071565021233e-10
1.36465961056941e-11
-2.0392602985297e-10
1.36692746573405e-11
-2.00763226395418e-10
1.36922940100315e-11
-1.97582602150577e-10
1.37174027909507e-11
-1.9438044793289e-10
1.37498026236389e-11
-1.91149573629299e-10
1.37986740381573e-11
-1.87887070341854e-10
1.38543740711864e-11
-1.84592052631373e-10
1.39128828759802e-11
-1.81259752002293e-10
1.39811315884047e-11
-1.77878595279558e-10
1.40749362239897e-11
-1.74439605895961e-10
1.41906630370699e-11
-1.70942318961002e-10
1.43075310506347e-11
-1.67381505873792e-10
1.44353834974508e-11
-1.6373819357605e-10
1.46041084606712e-11
-1.59990410609457e-10
1.48285785819879e-11
-1.56138848831035e-10
1.50480623933901e-11
-1.52179481412157e-10
1.5276383058419e-11
-1.48083126865721e-10
1.5563676649972e-11
-1.43801430229197e-10
1.59756965961975e-11
-1.39326383441011e-10
1.63895366628433e-11
-1.34627065023823e-10
1.68575234437983e-11
-1.29589084126469e-10
1.75222984063877e-11
-1.23958294845206e-10
1.87961948693643e-11
-1.17600822533391e-10
2.03767002597457e-11
-1.104531529484e-10
2.21067227819825e-11
-1.02340572541392e-10
2.42322715165089e-11
-9.29885991560995e-11
2.71204125566091e-11
-8.24888072842825e-11
2.97523123596473e-11
-7.09992039595517e-11
3.19774954261018e-11
-5.84633921666171e-11
3.43200316346784e-11
-4.47257696704408e-11
3.71252013794682e-11
-3.00014064325875e-11
3.93596444694097e-11
-1.4513974934776e-11
4.10456982784099e-11
1.69988615114158e-12
4.26562822779071e-11
1.85919907321333e-11
4.41990303866921e-11
3.58606560280225e-11
4.4968048198035e-11
5.33064298348305e-11
4.52811042821715e-11
7.07717598291006e-11
4.52463860403473e-11
8.80107470473473e-11
4.4600382377223e-11
1.0485012168181e-10
4.3566695685813e-11
1.21137299232125e-10
4.21607484929212e-11
1.36594644374683e-10
4.0136851877553e-11
1.51069348986767e-10
3.7682588411902e-11
1.64481334850831e-10
3.51723878469704e-11
1.76733140938475e-10
3.22350923811605e-11
1.87491534991328e-10
2.88697864794779e-11
1.96977769515909e-10
2.54525883710028e-11
2.04893681384712e-10
2.22257608000975e-11
2.11675598273526e-10
1.92473912401214e-11
2.16205483884215e-10
1.56831066672229e-11
2.18160572297766e-10
2.82433050905504e-12
2.18626607219889e-10
1.40579383385989e-12
2.18709095940365e-10
3.67227907815537e-13
2.18056154233545e-10
-6.74111578042657e-13
2.17159265636301e-10
-1.42181103370974e-12
2.15954130661076e-10
-1.86449294048841e-12
2.14631443678429e-10
-2.17938629438749e-12
2.13193500466972e-10
-2.36043304552781e-12
2.11726631705439e-10
-2.44632895592875e-12
2.10247734828394e-10
-2.45272387237096e-12
2.08808023499457e-10
-2.37730267400279e-12
2.07474541726124e-10
-2.1543262600899e-12
2.064019055871e-10
-1.63624464524358e-12
-5.27720560528418e-13
-3.98337488016189e-10
-1.02525301549158e-13
-3.94341087872542e-10
2.19613893785207e-12
-3.90463167668825e-10
6.50518173550395e-12
-3.86493828351989e-10
8.48109756328591e-12
-3.82436163472314e-10
9.29954370235716e-12
-3.78334800117853e-10
9.57821779406565e-12
-3.74216689076619e-10
9.65481199712785e-12
-3.70092840040165e-10
9.66643131882564e-12
-3.65967022514741e-10
9.66147916871167e-12
-3.61840286526382e-10
9.65388282816481e-12
-3.57712851824025e-10
9.64638808857351e-12
-3.535846356519e-10
9.63934989348254e-12
-3.49455622967467e-10
9.63263704360386e-12
-3.45326043460365e-10
9.62577378213076e-12
-3.41196050562499e-10
9.61865653652517e-12
-3.37065563032036e-10
9.61149818394569e-12
-3.3293447671071e-10
9.60447197921001e-12
-3.28803063255531e-10
9.59709133463146e-12
-3.24671453947907e-10
9.58956198076169e-12
-3.20539497276618e-10
9.58208286184856e-12
-3.16406838877123e-10
9.57511535579431e-12
-3.12273679916584e-10
9.56788537569714e-12
-3.08140099741602e-10
9.56061407873999e-12
-3.04005841525732e-10
9.55354102645255e-12
-2.99870349370176e-10
9.54725514517694e-12
-2.95733584398759e-10
9.54105074779033e-12
-2.91595696554284e-10
9.53467985523308e-12
-2.87456394599336e-10
9.52869409385703e-12
-2.83314838583716e-10
9.52393412350202e-12
-2.79170436843723e-10
9.52011141607633e-12
-2.75023213373506e-10
9.51625330562513e-12
-2.70872841529561e-10
9.5128684704936e-12
-2.66718175499972e-10
9.51091671019103e-12
-2.625575752365e-10
9.511721996994e-12
-2.58390959554766e-10
9.51267235708288e-12
-2.54217868614646e-10
9.51456315484614e-12
-2.50036322309969e-10
9.51889008750321e-12
-2.45842695254532e-10
9.52932603184172e-12
-2.41636718977363e-10
9.53982288554891e-12
-2.37417701097612e-10
9.55169855132063e-12
-2.33182528314624e-10
9.56773584970607e-12
-2.28925008400684e-10
9.59403354133616e-12
-2.24642472327483e-10
9.62446092412118e-12
-2.20333892100459e-10
9.65662175366318e-12
-2.15995149614356e-10
9.69440963422765e-12
-2.11616209818123e-10
9.74778449305001e-12
-2.07188993768409e-10
9.81495548899725e-12
-2.02712874964914e-10
9.88250301403007e-12
-1.98183332351377e-10
9.95646936941107e-12
-1.93583859129672e-10
1.00548253356263e-11
-1.88894466973852e-10
1.01889355939358e-11
-1.84115770171153e-10
1.03186018828335e-11
-1.79244446272781e-10
1.04536854041387e-11
-1.74255305938074e-10
1.06225154587045e-11
-1.69104204828474e-10
1.08718756646506e-11
-1.6378557585758e-10
1.11173076747303e-11
-1.58276745767491e-10
1.13938165615576e-11
-1.52486527066198e-10
1.17754962328733e-11
-1.46188274099178e-10
1.25393202532522e-11
-1.39260693910744e-10
1.34876234330929e-11
-1.31647347364294e-10
1.45276790174429e-11
-1.23188804657066e-10
1.58033580698499e-11
-1.13620470295345e-10
1.75775357850118e-11
-1.03027977497983e-10
1.91807644798463e-11
-9.15634676286071e-11
2.0528121497228e-11
-7.91760821306396e-11
2.194163453733e-11
-6.5712312102702e-11
2.36648706879808e-11
-5.13742218201474e-11
2.50193531518026e-11
-3.63707800665798e-11
2.60338988647534e-11
-2.0731058846495e-11
2.70025713334089e-11
-4.49214744092382e-12
2.79417957921641e-11
1.2064786419936e-11
2.83891676627183e-11
2.87599716019275e-11
2.85599830503576e-11
4.54537224247673e-11
2.85219401484951e-11
6.19194063241514e-11
2.80992114399808e-11
7.80019609231793e-11
2.74449721900559e-11
9.35654459924904e-11
2.65555279432505e-11
1.08358763309062e-10
2.52994896283901e-11
1.22242103435573e-10
2.37533611462662e-11
1.35148442973613e-10
2.22193047628825e-11
1.46985416232613e-10
2.03506205938336e-11
1.57464199521125e-10
1.83420936559319e-11
1.66763522279521e-10
1.61031086746051e-11
1.74639257339566e-10
1.4299441390962e-11
1.81542246802358e-10
1.22937844545599e-11
1.86434031573072e-10
1.0740969272325e-11
1.87945539948533e-10
1.26322087005339e-12
1.88226621264735e-10
1.07597572379587e-12
1.88262917029764e-10
2.82451529431466e-13
1.87686132165705e-10
-1.46304595454318e-13
1.86904582888896e-10
-6.89884874945127e-13
1.85871422201539e-10
-8.81004522664873e-13
1.84742831564635e-10
-1.10000869279856e-12
1.8351840013994e-10
-1.18474278055716e-12
1.82270498887189e-10
-1.24680724910106e-12
1.81013180318866e-10
-1.24371952658527e-12
1.79789826529174e-10
-1.20266122656023e-12
1.78659124097503e-10
-1.07275471937211e-12
1.7775547391894e-10
-7.81625879303888e-13
-1.5189571489794e-13
-3.95570537728061e-10
-2.65553431222217e-12
-3.93171762063589e-10
-1.42407624118017e-13
-3.89824072235292e-10
3.21757415408193e-12
-3.85920969596224e-10
4.6379272947164e-12
-3.81742859004102e-10
5.1812151382333e-12
-3.77461274845776e-10
5.35626785606973e-12
-3.73147997600435e-10
5.4010212995253e-12
-3.68828038834476e-10
5.40580619221037e-12
-3.64508474701256e-10
5.4010913223379e-12
-3.60190728595151e-10
5.3951599258519e-12
-3.5587492783643e-10
5.38946205035328e-12
-3.51560949451395e-10
5.38409047576808e-12
-3.47248698205913e-10
5.37894392804337e-12
-3.42938263887802e-10
5.37374809152858e-12
-3.38629758036846e-10
5.36842078143987e-12
-3.34323184253701e-10
5.36305136652784e-12
-3.30018494092165e-10
5.35775784591852e-12
-3.25715860801854e-10
5.35228358538392e-12
-3.21415364722394e-10
5.34674128829456e-12
-3.17116952702942e-10
5.34119007762768e-12
-3.1282039364001e-10
5.33591151529614e-12
-3.08525809973825e-10
5.33048842348609e-12
-3.04233218097884e-10
5.32504978522024e-12
-2.99942456345212e-10
5.31966791999234e-12
-2.95653131896043e-10
5.31468484210674e-12
-2.91365208377502e-10
5.30973140291435e-12
-2.87078781310694e-10
5.30468993415675e-12
-2.82793641759825e-10
5.2998136650224e-12
-2.78509166770157e-10
5.29553796081255e-12
-2.74224883663925e-10
5.29173291525867e-12
-2.6994076415686e-10
5.2878759883658e-12
-2.65656528565968e-10
5.28422763903178e-12
-2.61371361697934e-10
5.28120265272229e-12
-2.57083969326312e-10
5.27962158909062e-12
-2.52794240275149e-10
5.27804212455897e-12
-2.48501725788065e-10
5.27694231290279e-12
-2.4420498292564e-10
5.27685250020156e-12
-2.39901094301816e-10
5.27996662979831e-12
-2.35589846533695e-10
5.28291683019235e-12
-2.31270575618343e-10
5.28656347773376e-12
-2.26940944804978e-10
5.29201855267572e-12
-2.22595964486953e-10
5.30272489079822e-12
-2.18233458904117e-10
5.31535479113664e-12
-2.1385250962554e-10
5.3287520139058e-12
-2.09449956312782e-10
5.34462127028694e-12
-2.05017783964006e-10
5.36812900019608e-12
-2.00549285735078e-10
5.39867833541394e-12
-1.9604400637089e-10
5.42900924968142e-12
-1.91498480007266e-10
5.46224780711316e-12
-1.86899701917252e-10
5.50689555891102e-12
-1.8223074199784e-10
5.57036503919711e-12
-1.77492569198619e-10
5.63028645749695e-12
-1.72682675900893e-10
5.69301934696065e-12
-1.6778180107214e-10
5.77020060205869e-12
-1.62752324628076e-10
5.89023939262937e-12
-1.57592096643407e-10
6.00401663044298e-12
-1.52285618611874e-10
6.13297175681049e-12
-1.46768715605142e-10
6.3024887102444e-12
-1.4085445416489e-10
6.66688357993388e-12
-1.34444836300859e-10
7.11691718505123e-12
-1.27494517854256e-10
7.61202123843144e-12
-1.19875287739529e-10
8.21406016195468e-12
-1.11353533230456e-10
9.08149337007785e-12
-1.02004851867008e-10
9.85323659708553e-12
-9.1959840285114e-11
1.04984021482404e-11
-8.11792966885186e-11
1.11701804298722e-11
-6.95234627204697e-11
1.20125305248417e-11
-5.71667211799136e-11
1.26604286964493e-11
-4.42840470547421e-11
1.31428513878291e-11
-3.08976385018527e-11
1.36021317862564e-11
-1.70308483167597e-11
1.40566282073353e-11
-2.92277467156048e-12
1.42590864201885e-11
1.12805082928081e-11
1.43307055655695e-11
2.54669878962119e-11
1.43047190054388e-11
3.94460821897036e-11
1.40846047688835e-11
5.30936512895563e-11
1.37582470734657e-11
6.62970225971297e-11
1.33104874055844e-11
7.88550415461128e-11
1.26975544781778e-11
9.06437908603073e-11
1.1918920655823e-11
1.01626487609467e-10
1.11901321821592e-11
1.11701107869868e-10
1.02288568898559e-11
1.20678638888408e-10
9.31611055783965e-12
1.28627957867868e-10
8.10420214216035e-12
1.35471674240789e-10
7.40583648075294e-12
1.41489340485394e-10
6.22633180596227e-12
1.46107666759706e-10
6.07324612236365e-12
1.46998730639176e-10
3.23590878058198e-13
1.47171038213006e-10
8.56002189939911e-13
1.47138587888504e-10
2.67508515030369e-13
1.46700810496353e-10
2.43594037611759e-13
1.46072597722375e-10
-1.10193396972567e-13
1.45278360450512e-10
-1.35342776714683e-13
1.44401613732602e-10
-2.7138982058462e-13
1.43459441229523e-10
-2.90241986888553e-13
1.4249592332864e-10
-3.30616390629118e-13
1.41527651534761e-10