/*--------------------------------*- C++ -*----------------------------------*\
| =========                 |                                                 |
| \\      /  F ield         | OpenFOAM: The Open Source CFD Toolbox           |
|  \\    /   O peration     | Version:  4.1                                   |
|   \\  /    A nd           | Web:      www.OpenFOAM.org                      |
|    \\/     M anipulation  |                                                 |
\*---------------------------------------------------------------------------*/
FoamFile
{
    version     2.0;
    format      ascii;
    class       pointVectorField;
    location    "0.0076";
    object      pointDisplacement_Next;
}
// * * * * * * * * * * * * * * * * * * * * * * * * * * * * * * * * * * * * * //

dimensions      [0 1 0 0 0 0 0];

internalField   uniform (0 0 0);

boundaryField
{
    inlet
    {
        type            fixedValue;
        value           nonuniform 0();
    }
    outlet
    {
        type            fixedValue;
        value           nonuniform 0();
    }
    mantle
    {
        type            fixedValue;
        value           nonuniform List<vector> 
416
(
(5.8088e-05 -6.2416e-05 4.0767e-10)
(5.6063e-05 -7.3252e-05 4.0721e-10)
(5.6095e-05 -7.1702e-05 1.4213e-05)
(5.8142e-05 -6.112e-05 1.2134e-05)
(5.6142e-05 -6.7312e-05 2.7881e-05)
(5.8207e-05 -5.7402e-05 2.3797e-05)
(5.614e-05 -6.0496e-05 4.0475e-05)
(5.8182e-05 -5.1601e-05 3.453e-05)
(5.6126e-05 -5.1483e-05 5.1483e-05)
(5.8145e-05 -4.3905e-05 4.3905e-05)
(5.614e-05 -4.0475e-05 6.0496e-05)
(5.8182e-05 -3.453e-05 5.1602e-05)
(5.6143e-05 -2.7881e-05 6.7312e-05)
(5.8207e-05 -2.3797e-05 5.7403e-05)
(5.6096e-05 -1.4213e-05 7.1704e-05)
(5.8142e-05 -1.2134e-05 6.1122e-05)
(5.6063e-05 -8.5646e-11 7.3255e-05)
(5.8088e-05 -2.7667e-10 6.242e-05)
(5.3708e-05 -8.2631e-05 6.5055e-10)
(5.3727e-05 -8.0843e-05 1.6016e-05)
(5.3754e-05 -7.5862e-05 3.1414e-05)
(5.3774e-05 -6.8169e-05 4.5608e-05)
(5.3775e-05 -5.8028e-05 5.8028e-05)
(5.3775e-05 -4.5608e-05 6.8169e-05)
(5.3755e-05 -3.1413e-05 7.5862e-05)
(5.3728e-05 -1.6016e-05 8.0844e-05)
(5.3709e-05 -1.9049e-10 8.2633e-05)
(5.1023e-05 -8.9592e-05 8.6322e-10)
(5.1033e-05 -8.7706e-05 1.7411e-05)
(5.1055e-05 -8.2332e-05 3.412e-05)
(5.1064e-05 -7.3937e-05 4.946e-05)
(5.1068e-05 -6.2879e-05 6.2879e-05)
(5.1064e-05 -4.946e-05 7.3937e-05)
(5.1055e-05 -3.4119e-05 8.2332e-05)
(5.1034e-05 -1.741e-05 8.7706e-05)
(5.1024e-05 2.1253e-11 8.9592e-05)
(4.7983e-05 -9.4078e-05 6.7702e-10)
(4.7992e-05 -9.2129e-05 1.8318e-05)
(4.8005e-05 -8.6508e-05 3.5877e-05)
(4.7997e-05 -7.7661e-05 5.1946e-05)
(4.7991e-05 -6.6004e-05 6.6005e-05)
(4.7997e-05 -5.1945e-05 7.7661e-05)
(4.8005e-05 -3.5876e-05 8.6507e-05)
(4.7992e-05 -1.8318e-05 9.2127e-05)
(4.7983e-05 -1.3508e-10 9.4076e-05)
(4.4585e-05 -9.6205e-05 9.1089e-10)
(4.4577e-05 -9.4201e-05 1.8708e-05)
(4.4565e-05 -8.8453e-05 3.6652e-05)
(4.4555e-05 -7.9434e-05 5.3123e-05)
(4.4554e-05 -6.7537e-05 6.7538e-05)
(4.4555e-05 -5.3123e-05 7.9434e-05)
(4.4564e-05 -3.6652e-05 8.8452e-05)
(4.4576e-05 -1.8707e-05 9.4199e-05)
(4.4585e-05 -2.8405e-10 9.6203e-05)
(4.0853e-05 -9.6015e-05 6.6813e-10)
(4.0833e-05 -9.398e-05 1.8634e-05)
(4.0801e-05 -8.8242e-05 3.6542e-05)
(4.0796e-05 -7.9285e-05 5.3027e-05)
(4.0796e-05 -6.746e-05 6.7461e-05)
(4.0796e-05 -5.3026e-05 7.9285e-05)
(4.0801e-05 -3.6541e-05 8.8242e-05)
(4.0832e-05 -1.8633e-05 9.3979e-05)
(4.0853e-05 4.1207e-11 9.6014e-05)
(3.6867e-05 -9.3621e-05 7.1652e-10)
(3.6838e-05 -9.1674e-05 1.8184e-05)
(3.6802e-05 -8.6107e-05 3.5668e-05)
(3.6799e-05 -7.7392e-05 5.1769e-05)
(3.6811e-05 -6.5845e-05 6.5846e-05)
(3.6799e-05 -5.1768e-05 7.7392e-05)
(3.6801e-05 -3.5667e-05 8.6107e-05)
(3.6838e-05 -1.8183e-05 9.1674e-05)
(3.6866e-05 5.2391e-11 9.3621e-05)
(3.2769e-05 -8.9797e-05 5.3007e-10)
(3.2738e-05 -8.7952e-05 1.7462e-05)
(3.2699e-05 -8.2633e-05 3.4253e-05)
(3.2703e-05 -7.4296e-05 4.9711e-05)
(3.272e-05 -6.3213e-05 6.3214e-05)
(3.2703e-05 -4.971e-05 7.4297e-05)
(3.2699e-05 -3.4252e-05 8.2633e-05)
(3.2738e-05 -1.7461e-05 8.7951e-05)
(3.2769e-05 2.8888e-10 8.9797e-05)
(2.8704e-05 -8.5139e-05 3.4465e-10)
(2.8678e-05 -8.3385e-05 1.6546e-05)
(2.8643e-05 -7.8364e-05 3.2475e-05)
(2.8641e-05 -7.0478e-05 4.7161e-05)
(2.8651e-05 -5.9989e-05 5.9989e-05)
(2.8641e-05 -4.716e-05 7.0479e-05)
(2.8643e-05 -3.2474e-05 7.8364e-05)
(2.8678e-05 -1.6545e-05 8.3385e-05)
(2.8704e-05 4.6334e-10 8.5138e-05)
(2.4812e-05 -7.9668e-05 3.1831e-10)
(2.4793e-05 -7.8007e-05 1.546e-05)
(2.4761e-05 -7.3311e-05 3.0367e-05)
(2.4754e-05 -6.5966e-05 4.4143e-05)
(2.4755e-05 -5.618e-05 5.6181e-05)
(2.4754e-05 -4.4142e-05 6.5967e-05)
(2.4761e-05 -3.0366e-05 7.3311e-05)
(2.4793e-05 -1.5459e-05 7.8007e-05)
(2.4812e-05 4.4831e-10 7.9668e-05)
(2.1185e-05 -7.3206e-05 1.8858e-10)
(2.1152e-05 -7.1703e-05 1.4209e-05)
(2.1112e-05 -6.7412e-05 2.7919e-05)
(2.1118e-05 -6.0678e-05 4.06e-05)
(2.1137e-05 -5.1674e-05 5.1675e-05)
(2.1118e-05 -4.0599e-05 6.0678e-05)
(2.1112e-05 -2.7918e-05 6.7412e-05)
(2.1152e-05 -1.4208e-05 7.1703e-05)
(2.1185e-05 5.0534e-10 7.3206e-05)
(1.7791e-05 -6.607e-05 6.2033e-11)
(1.7747e-05 -6.4718e-05 1.2825e-05)
(1.7699e-05 -6.0858e-05 2.5209e-05)
(1.7721e-05 -5.4806e-05 3.6678e-05)
(1.7754e-05 -4.6689e-05 4.6689e-05)
(1.7721e-05 -3.6677e-05 5.4806e-05)
(1.7699e-05 -2.5208e-05 6.0858e-05)
(1.7747e-05 -1.2824e-05 6.4718e-05)
(1.7791e-05 5.3891e-10 6.607e-05)
(5.6096e-05 1.4212e-05 7.1705e-05)
(5.8142e-05 1.2133e-05 6.1123e-05)
(5.6142e-05 2.788e-05 6.7313e-05)
(5.8207e-05 2.3797e-05 5.7404e-05)
(5.614e-05 4.0475e-05 6.0497e-05)
(5.8182e-05 3.453e-05 5.1603e-05)
(5.6126e-05 5.1482e-05 5.1484e-05)
(5.8145e-05 4.3904e-05 4.3906e-05)
(5.614e-05 6.0495e-05 4.0476e-05)
(5.8182e-05 5.1601e-05 3.4531e-05)
(5.6142e-05 6.731e-05 2.7881e-05)
(5.8207e-05 5.7401e-05 2.3797e-05)
(5.6095e-05 7.17e-05 1.4213e-05)
(5.8142e-05 6.1118e-05 1.2134e-05)
(5.6062e-05 7.3249e-05 7.283e-10)
(5.8088e-05 6.2414e-05 7.4918e-10)
(5.3727e-05 1.6016e-05 8.0845e-05)
(5.3755e-05 3.1413e-05 7.5864e-05)
(5.3774e-05 4.5608e-05 6.817e-05)
(5.3775e-05 5.8028e-05 5.8029e-05)
(5.3774e-05 6.8168e-05 4.5608e-05)
(5.3754e-05 7.586e-05 3.1414e-05)
(5.3727e-05 8.0841e-05 1.6016e-05)
(5.3708e-05 8.2628e-05 9.5607e-10)
(5.1034e-05 1.741e-05 8.7707e-05)
(5.1055e-05 3.4119e-05 8.2333e-05)
(5.1064e-05 4.946e-05 7.3938e-05)
(5.1067e-05 6.2879e-05 6.288e-05)
(5.1064e-05 7.3937e-05 4.9461e-05)
(5.1055e-05 8.2331e-05 3.412e-05)
(5.1033e-05 8.7704e-05 1.7411e-05)
(5.1023e-05 8.9589e-05 7.1693e-10)
(4.7992e-05 1.8317e-05 9.2128e-05)
(4.8005e-05 3.5876e-05 8.6509e-05)
(4.7997e-05 5.1946e-05 7.7662e-05)
(4.7991e-05 6.6005e-05 6.6006e-05)
(4.7997e-05 7.7661e-05 5.1946e-05)
(4.8005e-05 8.6507e-05 3.5877e-05)
(4.7991e-05 9.2127e-05 1.8318e-05)
(4.7982e-05 9.4075e-05 7.8628e-10)
(4.4576e-05 1.8707e-05 9.42e-05)
(4.4564e-05 3.6652e-05 8.8453e-05)
(4.4555e-05 5.3123e-05 7.9435e-05)
(4.4554e-05 6.7538e-05 6.7539e-05)
(4.4555e-05 7.9434e-05 5.3124e-05)
(4.4564e-05 8.8452e-05 3.6652e-05)
(4.4576e-05 9.4199e-05 1.8707e-05)
(4.4584e-05 9.6203e-05 5.0137e-10)
(4.0832e-05 1.8633e-05 9.398e-05)
(4.0801e-05 3.6541e-05 8.8242e-05)
(4.0796e-05 5.3026e-05 7.9286e-05)
(4.0796e-05 6.7461e-05 6.7461e-05)
(4.0796e-05 7.9285e-05 5.3027e-05)
(4.08e-05 8.8242e-05 3.6542e-05)
(4.0832e-05 9.3979e-05 1.8634e-05)
(4.0852e-05 9.6014e-05 6.8966e-10)
(3.6838e-05 1.8183e-05 9.1674e-05)
(3.6801e-05 3.5667e-05 8.6107e-05)
(3.6799e-05 5.1768e-05 7.7392e-05)
(3.6811e-05 6.5845e-05 6.5846e-05)
(3.6799e-05 7.7392e-05 5.1769e-05)
(3.6801e-05 8.6107e-05 3.5668e-05)
(3.6837e-05 9.1673e-05 1.8184e-05)
(3.6866e-05 9.3621e-05 5.4878e-10)
(3.2738e-05 1.7461e-05 8.7951e-05)
(3.2699e-05 3.4252e-05 8.2633e-05)
(3.2703e-05 4.971e-05 7.4297e-05)
(3.272e-05 6.3214e-05 6.3214e-05)
(3.2703e-05 7.4297e-05 4.9711e-05)
(3.2699e-05 8.2633e-05 3.4253e-05)
(3.2738e-05 8.7952e-05 1.7462e-05)
(3.2768e-05 8.9797e-05 6.3033e-10)
(2.8678e-05 1.6546e-05 8.3385e-05)
(2.8643e-05 3.2475e-05 7.8364e-05)
(2.8641e-05 4.716e-05 7.0479e-05)
(2.8651e-05 5.9989e-05 5.9989e-05)
(2.864e-05 7.0479e-05 4.7161e-05)
(2.8642e-05 7.8364e-05 3.2475e-05)
(2.8677e-05 8.3385e-05 1.6546e-05)
(2.8703e-05 8.5139e-05 4.9294e-10)
(2.4793e-05 1.546e-05 7.8007e-05)
(2.4761e-05 3.0367e-05 7.3311e-05)
(2.4753e-05 4.4143e-05 6.5967e-05)
(2.4755e-05 5.6181e-05 5.6181e-05)
(2.4753e-05 6.5967e-05 4.4143e-05)
(2.476e-05 7.3311e-05 3.0367e-05)
(2.4792e-05 7.8007e-05 1.546e-05)
(2.4811e-05 7.9668e-05 4.8465e-10)
(2.1152e-05 1.4209e-05 7.1703e-05)
(2.1112e-05 2.7919e-05 6.7412e-05)
(2.1118e-05 4.06e-05 6.0678e-05)
(2.1137e-05 5.1675e-05 5.1675e-05)
(2.1118e-05 6.0678e-05 4.06e-05)
(2.1112e-05 6.7412e-05 2.7919e-05)
(2.1151e-05 7.1703e-05 1.4209e-05)
(2.1184e-05 7.3206e-05 3.7009e-10)
(1.7747e-05 1.2825e-05 6.4718e-05)
(1.7699e-05 2.5209e-05 6.0858e-05)
(1.772e-05 3.6678e-05 5.4806e-05)
(1.7754e-05 4.6689e-05 4.6689e-05)
(1.772e-05 5.4806e-05 3.6677e-05)
(1.7699e-05 6.0859e-05 2.5208e-05)
(1.7747e-05 6.4718e-05 1.2825e-05)
(1.7791e-05 6.6071e-05 2.4953e-10)
(5.6095e-05 7.17e-05 -1.4211e-05)
(5.8142e-05 6.1118e-05 -1.2132e-05)
(5.6142e-05 6.7309e-05 -2.7879e-05)
(5.8207e-05 5.74e-05 -2.3795e-05)
(5.6139e-05 6.0494e-05 -4.0473e-05)
(5.8182e-05 5.16e-05 -3.4528e-05)
(5.6126e-05 5.1482e-05 -5.1482e-05)
(5.8145e-05 4.3903e-05 -4.3903e-05)
(5.614e-05 4.0474e-05 -6.0494e-05)
(5.8182e-05 3.4528e-05 -5.16e-05)
(5.6142e-05 2.7879e-05 -6.7309e-05)
(5.8208e-05 2.3795e-05 -5.74e-05)
(5.6096e-05 1.4211e-05 -7.17e-05)
(5.8142e-05 1.2132e-05 -6.1118e-05)
(5.6063e-05 -7.5616e-10 -7.3249e-05)
(5.8089e-05 -7.5236e-10 -6.2414e-05)
(5.3727e-05 8.0841e-05 -1.6015e-05)
(5.3754e-05 7.586e-05 -3.1412e-05)
(5.3774e-05 6.8168e-05 -4.5607e-05)
(5.3775e-05 5.8028e-05 -5.8028e-05)
(5.3774e-05 4.5607e-05 -6.8168e-05)
(5.3754e-05 3.1412e-05 -7.586e-05)
(5.3727e-05 1.6015e-05 -8.084e-05)
(5.3709e-05 -4.3945e-10 -8.2628e-05)
(5.1033e-05 8.7704e-05 -1.7409e-05)
(5.1055e-05 8.2331e-05 -3.4118e-05)
(5.1063e-05 7.3937e-05 -4.946e-05)
(5.1067e-05 6.288e-05 -6.2879e-05)
(5.1064e-05 4.946e-05 -7.3936e-05)
(5.1055e-05 3.4119e-05 -8.233e-05)
(5.1033e-05 1.741e-05 -8.7703e-05)
(5.1023e-05 -5.1069e-10 -8.9588e-05)
(4.7991e-05 9.2127e-05 -1.8317e-05)
(4.8005e-05 8.6508e-05 -3.5875e-05)
(4.7996e-05 7.7662e-05 -5.1945e-05)
(4.799e-05 6.6006e-05 -6.6005e-05)
(4.7997e-05 5.1946e-05 -7.7661e-05)
(4.8005e-05 3.5876e-05 -8.6507e-05)
(4.7992e-05 1.8317e-05 -9.2126e-05)
(4.7983e-05 -2.0932e-10 -9.4074e-05)
(4.4576e-05 9.42e-05 -1.8706e-05)
(4.4564e-05 8.8453e-05 -3.6651e-05)
(4.4555e-05 7.9435e-05 -5.3123e-05)
(4.4554e-05 6.7539e-05 -6.7538e-05)
(4.4555e-05 5.3124e-05 -7.9434e-05)
(4.4564e-05 3.6652e-05 -8.8452e-05)
(4.4576e-05 1.8707e-05 -9.4199e-05)
(4.4585e-05 1.6051e-10 -9.6202e-05)
(4.0832e-05 9.398e-05 -1.8633e-05)
(4.08e-05 8.8243e-05 -3.6541e-05)
(4.0796e-05 7.9286e-05 -5.3026e-05)
(4.0796e-05 6.7462e-05 -6.7461e-05)
(4.0796e-05 5.3027e-05 -7.9286e-05)
(4.08e-05 3.6542e-05 -8.8242e-05)
(4.0832e-05 1.8634e-05 -9.3979e-05)
(4.0852e-05 7.0934e-11 -9.6013e-05)
(3.6837e-05 9.1674e-05 -1.8183e-05)
(3.6801e-05 8.6108e-05 -3.5667e-05)
(3.6799e-05 7.7393e-05 -5.1768e-05)
(3.6811e-05 6.5846e-05 -6.5845e-05)
(3.6799e-05 5.1769e-05 -7.7392e-05)
(3.6801e-05 3.5668e-05 -8.6107e-05)
(3.6837e-05 1.8184e-05 -9.1673e-05)
(3.6866e-05 2.4215e-10 -9.362e-05)
(3.2738e-05 8.7952e-05 -1.746e-05)
(3.2699e-05 8.2633e-05 -3.4251e-05)
(3.2703e-05 7.4297e-05 -4.971e-05)
(3.272e-05 6.3214e-05 -6.3213e-05)
(3.2703e-05 4.9711e-05 -7.4296e-05)
(3.2699e-05 3.4252e-05 -8.2633e-05)
(3.2738e-05 1.7461e-05 -8.7952e-05)
(3.2768e-05 1.4803e-10 -8.9797e-05)
(2.8677e-05 8.3385e-05 -1.6545e-05)
(2.8642e-05 7.8364e-05 -3.2474e-05)
(2.864e-05 7.0479e-05 -4.7159e-05)
(2.8651e-05 5.9989e-05 -5.9988e-05)
(2.864e-05 4.7161e-05 -7.0478e-05)
(2.8642e-05 3.2475e-05 -7.8364e-05)
(2.8677e-05 1.6546e-05 -8.3386e-05)
(2.8703e-05 2.4339e-10 -8.5139e-05)
(2.4792e-05 7.8007e-05 -1.5459e-05)
(2.476e-05 7.3311e-05 -3.0366e-05)
(2.4753e-05 6.5967e-05 -4.4142e-05)
(2.4754e-05 5.6181e-05 -5.618e-05)
(2.4753e-05 4.4143e-05 -6.5966e-05)
(2.476e-05 3.0367e-05 -7.3311e-05)
(2.4792e-05 1.546e-05 -7.8008e-05)
(2.4811e-05 2.0504e-10 -7.9669e-05)
(2.1151e-05 7.1703e-05 -1.4208e-05)
(2.1112e-05 6.7413e-05 -2.7918e-05)
(2.1118e-05 6.0678e-05 -4.06e-05)
(2.1136e-05 5.1675e-05 -5.1674e-05)
(2.1117e-05 4.06e-05 -6.0678e-05)
(2.1112e-05 2.7919e-05 -6.7413e-05)
(2.1151e-05 1.4209e-05 -7.1704e-05)
(2.1184e-05 2.9101e-10 -7.3207e-05)
(1.7746e-05 6.4718e-05 -1.2824e-05)
(1.7698e-05 6.0859e-05 -2.5208e-05)
(1.772e-05 5.4806e-05 -3.6677e-05)
(1.7754e-05 4.669e-05 -4.6689e-05)
(1.772e-05 3.6678e-05 -5.4806e-05)
(1.7698e-05 2.5209e-05 -6.0859e-05)
(1.7746e-05 1.2825e-05 -6.4719e-05)
(1.7791e-05 3.829e-10 -6.6072e-05)
(5.6096e-05 -1.4213e-05 -7.17e-05)
(5.8142e-05 -1.2134e-05 -6.1118e-05)
(5.6143e-05 -2.7881e-05 -6.731e-05)
(5.8208e-05 -2.3797e-05 -5.7401e-05)
(5.614e-05 -4.0475e-05 -6.0495e-05)
(5.8183e-05 -3.453e-05 -5.1601e-05)
(5.6126e-05 -5.1483e-05 -5.1482e-05)
(5.8145e-05 -4.3905e-05 -4.3904e-05)
(5.614e-05 -6.0497e-05 -4.0474e-05)
(5.8183e-05 -5.1602e-05 -3.4529e-05)
(5.6143e-05 -6.7312e-05 -2.788e-05)
(5.8207e-05 -5.7403e-05 -2.3796e-05)
(5.6096e-05 -7.1703e-05 -1.4212e-05)
(5.8142e-05 -6.112e-05 -1.2133e-05)
(5.3728e-05 -1.6016e-05 -8.084e-05)
(5.3755e-05 -3.1413e-05 -7.586e-05)
(5.3775e-05 -4.5608e-05 -6.8168e-05)
(5.3776e-05 -5.8029e-05 -5.8028e-05)
(5.3775e-05 -6.817e-05 -4.5607e-05)
(5.3755e-05 -7.5863e-05 -3.1412e-05)
(5.3727e-05 -8.0844e-05 -1.6015e-05)
(5.1033e-05 -1.741e-05 -8.7703e-05)
(5.1056e-05 -3.4119e-05 -8.233e-05)
(5.1064e-05 -4.946e-05 -7.3936e-05)
(5.1068e-05 -6.288e-05 -6.2878e-05)
(5.1064e-05 -7.3938e-05 -4.9459e-05)
(5.1055e-05 -8.2333e-05 -3.4118e-05)
(5.1033e-05 -8.7707e-05 -1.7409e-05)
(4.7992e-05 -1.8318e-05 -9.2126e-05)
(4.8005e-05 -3.5876e-05 -8.6506e-05)
(4.7997e-05 -5.1946e-05 -7.766e-05)
(4.7991e-05 -6.6005e-05 -6.6004e-05)
(4.7997e-05 -7.7662e-05 -5.1945e-05)
(4.8006e-05 -8.6509e-05 -3.5875e-05)
(4.7992e-05 -9.2129e-05 -1.8317e-05)
(4.4576e-05 -1.8707e-05 -9.4198e-05)
(4.4564e-05 -3.6652e-05 -8.8451e-05)
(4.4555e-05 -5.3123e-05 -7.9433e-05)
(4.4554e-05 -6.7538e-05 -6.7537e-05)
(4.4555e-05 -7.9435e-05 -5.3123e-05)
(4.4565e-05 -8.8454e-05 -3.6651e-05)
(4.4577e-05 -9.4201e-05 -1.8706e-05)
(4.0832e-05 -1.8634e-05 -9.3979e-05)
(4.08e-05 -3.6542e-05 -8.8241e-05)
(4.0796e-05 -5.3027e-05 -7.9285e-05)
(4.0796e-05 -6.7461e-05 -6.746e-05)
(4.0796e-05 -7.9286e-05 -5.3026e-05)
(4.0801e-05 -8.8243e-05 -3.6541e-05)
(4.0833e-05 -9.3981e-05 -1.8633e-05)
(3.6837e-05 -1.8183e-05 -9.1673e-05)
(3.6801e-05 -3.5668e-05 -8.6107e-05)
(3.6799e-05 -5.1769e-05 -7.7392e-05)
(3.6811e-05 -6.5846e-05 -6.5845e-05)
(3.6799e-05 -7.7393e-05 -5.1768e-05)
(3.6802e-05 -8.6108e-05 -3.5667e-05)
(3.6838e-05 -9.1674e-05 -1.8183e-05)
(3.2737e-05 -1.7461e-05 -8.7952e-05)
(3.2698e-05 -3.4252e-05 -8.2633e-05)
(3.2703e-05 -4.9711e-05 -7.4297e-05)
(3.272e-05 -6.3215e-05 -6.3214e-05)
(3.2703e-05 -7.4298e-05 -4.971e-05)
(3.2699e-05 -8.2634e-05 -3.4252e-05)
(3.2738e-05 -8.7952e-05 -1.7461e-05)
(2.8677e-05 -1.6546e-05 -8.3386e-05)
(2.8642e-05 -3.2475e-05 -7.8365e-05)
(2.864e-05 -4.7161e-05 -7.0479e-05)
(2.8651e-05 -5.999e-05 -5.999e-05)
(2.8641e-05 -7.0479e-05 -4.716e-05)
(2.8643e-05 -7.8365e-05 -3.2475e-05)
(2.8678e-05 -8.3386e-05 -1.6545e-05)
(2.4792e-05 -1.546e-05 -7.8008e-05)
(2.476e-05 -3.0367e-05 -7.3312e-05)
(2.4753e-05 -4.4143e-05 -6.5968e-05)
(2.4755e-05 -5.6181e-05 -5.6181e-05)
(2.4754e-05 -6.5967e-05 -4.4143e-05)
(2.4761e-05 -7.3311e-05 -3.0367e-05)
(2.4793e-05 -7.8007e-05 -1.5459e-05)
(2.1151e-05 -1.4208e-05 -7.1705e-05)
(2.1112e-05 -2.7919e-05 -6.7413e-05)
(2.1118e-05 -4.06e-05 -6.0679e-05)
(2.1137e-05 -5.1675e-05 -5.1675e-05)
(2.1118e-05 -6.0678e-05 -4.06e-05)
(2.1112e-05 -6.7413e-05 -2.7919e-05)
(2.1152e-05 -7.1703e-05 -1.4208e-05)
(1.7747e-05 -1.2824e-05 -6.4719e-05)
(1.7698e-05 -2.5208e-05 -6.086e-05)
(1.772e-05 -3.6678e-05 -5.4807e-05)
(1.7754e-05 -4.6689e-05 -4.669e-05)
(1.772e-05 -5.4806e-05 -3.6678e-05)
(1.7699e-05 -6.0859e-05 -2.5208e-05)
(1.7747e-05 -6.4718e-05 -1.2824e-05)
)
;
    }
    procBoundary2to1
    {
        type            processor;
    }
    procBoundary2to3
    {
        type            processor;
    }
}


// ************************************************************************* //
