/*--------------------------------*- C++ -*----------------------------------*\
| =========                 |                                                 |
| \\      /  F ield         | OpenFOAM: The Open Source CFD Toolbox           |
|  \\    /   O peration     | Version:  4.1                                   |
|   \\  /    A nd           | Web:      www.OpenFOAM.org                      |
|    \\/     M anipulation  |                                                 |
\*---------------------------------------------------------------------------*/
FoamFile
{
    version     2.0;
    format      ascii;
    class       pointVectorField;
    location    "0.0047";
    object      pointDisplacement_Next_Iter4;
}
// * * * * * * * * * * * * * * * * * * * * * * * * * * * * * * * * * * * * * //

dimensions      [0 1 0 0 0 0 0];

internalField   uniform (0 0 0);

boundaryField
{
    inlet
    {
        type            fixedValue;
        value           uniform (0 0 0);
    }
    outlet
    {
        type            fixedValue;
        value           uniform (0 0 0);
    }
    mantle
    {
        type            fixedValue;
        value           nonuniform List<vector> 
1568
(
(-1.7976e-13 3.2821e-12 3.1328e-17)
(-5.9773e-07 8.6759e-06 8.8833e-11)
(-6.1876e-07 8.3719e-06 -1.597e-06)
(2.534e-09 3.2772e-08 -6.4583e-11)
(-6.6415e-07 7.6606e-06 -3.1402e-06)
(-3.3327e-13 2.7523e-12 -1.0816e-12)
(-7.0691e-07 6.8308e-06 -4.5947e-06)
(-1.8494e-09 8.7032e-09 -2.1621e-08)
(-7.2469e-07 5.8463e-06 -5.8464e-06)
(-2.9459e-14 2.3866e-12 -2.3862e-12)
(-7.0694e-07 4.5947e-06 -6.8313e-06)
(-1.8514e-09 2.1625e-08 -8.6986e-09)
(-6.6419e-07 3.1404e-06 -7.6613e-06)
(-3.332e-13 1.0813e-12 -2.7527e-12)
(-6.1878e-07 1.5972e-06 -8.373e-06)
(2.5342e-09 6.765e-11 -3.278e-08)
(-5.9771e-07 -1.1666e-11 -8.6772e-06)
(-1.7976e-13 -2.3493e-17 -3.2826e-12)
(-1.5348e-06 1.5369e-05 1.4853e-10)
(-1.5692e-06 1.4772e-05 -2.8627e-06)
(-1.6362e-06 1.3501e-05 -5.5627e-06)
(-1.7077e-06 1.1966e-05 -8.031e-06)
(-1.7436e-06 1.0221e-05 -1.0221e-05)
(-1.7078e-06 8.0313e-06 -1.1966e-05)
(-1.6363e-06 5.5632e-06 -1.3502e-05)
(-1.5694e-06 2.8632e-06 -1.4774e-05)
(-1.5348e-06 5.888e-11 -1.5371e-05)
(-2.9049e-06 1.7014e-05 1.2985e-10)
(-2.9085e-06 1.6512e-05 -3.3229e-06)
(-2.9342e-06 1.5168e-05 -6.3216e-06)
(-2.9906e-06 1.324e-05 -8.8358e-06)
(-3.0248e-06 1.1081e-05 -1.1081e-05)
(-2.9907e-06 8.8362e-06 -1.3241e-05)
(-2.9344e-06 6.3222e-06 -1.517e-05)
(-2.9088e-06 3.3235e-06 -1.6514e-05)
(-2.9051e-06 1.5764e-10 -1.7017e-05)
(-4.5931e-06 1.2958e-05 8.5468e-11)
(-4.5547e-06 1.2664e-05 -2.6598e-06)
(-4.5081e-06 1.1658e-05 -4.9423e-06)
(-4.5222e-06 9.924e-06 -6.5829e-06)
(-4.5449e-06 8.0776e-06 -8.0775e-06)
(-4.5225e-06 6.5834e-06 -9.9246e-06)
(-4.5085e-06 4.9431e-06 -1.166e-05)
(-4.5551e-06 2.6605e-06 -1.2666e-05)
(-4.5934e-06 2.8243e-10 -1.2961e-05)
(-6.4275e-06 3.6459e-06 6.4274e-11)
(-6.3742e-06 3.4789e-06 -7.7496e-07)
(-6.2814e-06 2.9917e-06 -1.2924e-06)
(-6.2379e-06 2.2826e-06 -1.49e-06)
(-6.2309e-06 1.7178e-06 -1.7176e-06)
(-6.2382e-06 1.4905e-06 -2.2828e-06)
(-6.2818e-06 1.2931e-06 -2.9923e-06)
(-6.3746e-06 7.757e-07 -3.48e-06)
(-6.4278e-06 4.3572e-10 -3.6477e-06)
(-8.3e-06 -1.0212e-05 7.2341e-11)
(-8.2324e-06 -1.0172e-05 2.0287e-06)
(-8.1137e-06 -9.8118e-06 4.075e-06)
(-8.0428e-06 -9.0169e-06 6.0405e-06)
(-8.0233e-06 -7.7079e-06 7.7082e-06)
(-8.043e-06 -6.0402e-06 9.0173e-06)
(-8.1141e-06 -4.0745e-06 9.812e-06)
(-8.2327e-06 -2.028e-06 1.0172e-05)
(-8.3003e-06 5.8856e-10 1.0211e-05)
(-1.0108e-05 -2.7234e-05 8.0159e-11)
(-1.0015e-05 -2.6741e-05 5.3432e-06)
(-9.8762e-06 -2.5243e-05 1.0489e-05)
(-9.8438e-06 -2.2745e-05 1.5216e-05)
(-9.8631e-06 -1.9348e-05 1.9348e-05)
(-9.844e-06 -1.5216e-05 2.2746e-05)
(-9.8765e-06 -1.0488e-05 2.5244e-05)
(-1.0015e-05 -5.3426e-06 2.6742e-05)
(-1.0109e-05 7.0239e-10 2.7234e-05)
(-1.1784e-05 -4.4775e-05 9.5506e-11)
(-1.1672e-05 -4.3789e-05 8.6846e-06)
(-1.1536e-05 -4.1099e-05 1.7045e-05)
(-1.1551e-05 -3.6916e-05 2.4714e-05)
(-1.1612e-05 -3.1426e-05 3.1426e-05)
(-1.1551e-05 -2.4714e-05 3.6917e-05)
(-1.1537e-05 -1.7045e-05 4.1101e-05)
(-1.1673e-05 -8.684e-06 4.3791e-05)
(-1.1784e-05 7.7039e-10 4.4775e-05)
(-1.3418e-05 -6.0436e-05 2.4341e-10)
(-1.3366e-05 -5.9099e-05 1.1692e-05)
(-1.3294e-05 -5.5396e-05 2.293e-05)
(-1.3288e-05 -4.9746e-05 3.3282e-05)
(-1.3308e-05 -4.2334e-05 4.2335e-05)
(-1.3288e-05 -3.3282e-05 4.9747e-05)
(-1.3294e-05 -2.293e-05 5.5397e-05)
(-1.3366e-05 -1.1691e-05 5.91e-05)
(-1.3418e-05 5.8932e-10 6.0436e-05)
(-1.5587e-05 -7.3387e-05 7.3605e-11)
(-1.5593e-05 -7.1736e-05 1.4191e-05)
(-1.5567e-05 -6.7236e-05 2.7836e-05)
(-1.555e-05 -6.0385e-05 4.0405e-05)
(-1.552e-05 -5.1414e-05 5.1414e-05)
(-1.555e-05 -4.0404e-05 6.0386e-05)
(-1.5567e-05 -2.7836e-05 6.7237e-05)
(-1.5593e-05 -1.419e-05 7.1737e-05)
(-1.5587e-05 6.8976e-10 7.3387e-05)
(-1.88e-05 -8.3781e-05 -4.3179e-12)
(-1.8781e-05 -8.1991e-05 1.6277e-05)
(-1.8752e-05 -7.6914e-05 3.1883e-05)
(-1.8754e-05 -6.9052e-05 4.6204e-05)
(-1.8762e-05 -5.8725e-05 5.8726e-05)
(-1.8754e-05 -4.6203e-05 6.9053e-05)
(-1.8752e-05 -3.1883e-05 7.6915e-05)
(-1.8781e-05 -1.6277e-05 8.1991e-05)
(-1.88e-05 6.61e-10 8.378e-05)
(-2.2937e-05 -9.2959e-05 8.0762e-11)
(-2.2889e-05 -9.1053e-05 1.8121e-05)
(-2.2835e-05 -8.5464e-05 3.5463e-05)
(-2.2872e-05 -7.6713e-05 5.1321e-05)
(-2.2914e-05 -6.5174e-05 6.5174e-05)
(-2.2872e-05 -5.132e-05 7.6714e-05)
(-2.2835e-05 -3.5462e-05 8.5465e-05)
(-2.2889e-05 -1.812e-05 9.1053e-05)
(-2.2936e-05 4.3195e-10 9.2958e-05)
(-2.7571e-05 -0.00010184 -3.9653e-10)
(-2.7511e-05 -9.9709e-05 1.9811e-05)
(-2.7451e-05 -9.3591e-05 3.8791e-05)
(-2.7495e-05 -8.402e-05 5.6194e-05)
(-2.7548e-05 -7.1423e-05 7.1424e-05)
(-2.7495e-05 -5.6194e-05 8.402e-05)
(-2.7451e-05 -3.8791e-05 9.3591e-05)
(-2.751e-05 -1.981e-05 9.9709e-05)
(-2.7571e-05 7.3404e-10 0.00010184)
(-3.2164e-05 -0.00010947 -2.3015e-11)
(-3.2096e-05 -0.00010713 2.1245e-05)
(-3.2037e-05 -0.00010053 4.1627e-05)
(-3.2085e-05 -9.0272e-05 6.037e-05)
(-3.2146e-05 -7.6781e-05 7.6782e-05)
(-3.2085e-05 -6.037e-05 9.0272e-05)
(-3.2037e-05 -4.1627e-05 0.00010053)
(-3.2096e-05 -2.1245e-05 0.00010713)
(-3.2163e-05 1.8787e-10 0.00010947)
(-3.6293e-05 -0.00011426 3.7268e-10)
(-3.6261e-05 -0.00011186 2.2201e-05)
(-3.6237e-05 -0.000105 4.3501e-05)
(-3.6272e-05 -9.4279e-05 6.3052e-05)
(-3.6307e-05 -8.0162e-05 8.0163e-05)
(-3.6271e-05 -6.3052e-05 9.4279e-05)
(-3.6237e-05 -4.3502e-05 0.00010501)
(-3.6261e-05 -2.2201e-05 0.00011186)
(-3.6293e-05 -3.446e-10 0.00011426)
(-4.0076e-05 -0.00011541 -1.2586e-10)
(-4.0084e-05 -0.000113 2.246e-05)
(-4.0104e-05 -0.00010612 4.4002e-05)
(-4.0126e-05 -9.5285e-05 6.373e-05)
(-4.0135e-05 -8.1004e-05 8.1004e-05)
(-4.0126e-05 -6.373e-05 9.5285e-05)
(-4.0103e-05 -4.4002e-05 0.00010612)
(-4.0084e-05 -2.246e-05 0.000113)
(-4.0076e-05 6.3204e-11 0.00011541)
(-4.3804e-05 -0.00011259 1.562e-11)
(-4.3824e-05 -0.00011027 2.1902e-05)
(-4.3868e-05 -0.00010359 4.2928e-05)
(-4.3894e-05 -9.3058e-05 6.2238e-05)
(-4.3904e-05 -7.9136e-05 7.9136e-05)
(-4.3894e-05 -6.2238e-05 9.3058e-05)
(-4.3867e-05 -4.2928e-05 0.00010358)
(-4.3824e-05 -2.1903e-05 0.00011027)
(-4.3803e-05 -1.2502e-10 0.00011259)
(-4.7641e-05 -0.00010637 -2.6344e-10)
(-4.7681e-05 -0.00010417 2.0664e-05)
(-4.7736e-05 -9.7881e-05 4.0539e-05)
(-4.7765e-05 -8.8001e-05 5.8853e-05)
(-4.7759e-05 -7.4882e-05 7.4882e-05)
(-4.7765e-05 -5.8853e-05 8.8e-05)
(-4.7736e-05 -4.0539e-05 9.788e-05)
(-4.7681e-05 -2.0664e-05 0.00010417)
(-4.764e-05 1.1303e-10 0.00010637)
(-5.1617e-05 -9.7709e-05 -5.3898e-10)
(-5.1655e-05 -9.5714e-05 1.898e-05)
(-5.1715e-05 -8.9979e-05 3.7262e-05)
(-5.1721e-05 -8.0946e-05 5.4141e-05)
(-5.171e-05 -6.8896e-05 6.8896e-05)
(-5.1721e-05 -5.4141e-05 8.0946e-05)
(-5.1715e-05 -3.7262e-05 8.9978e-05)
(-5.1655e-05 -1.898e-05 9.5713e-05)
(-5.1616e-05 3.3322e-10 9.7708e-05)
(-5.5498e-05 -8.8119e-05 -4.3709e-10)
(-5.5543e-05 -8.6338e-05 1.7122e-05)
(-5.5606e-05 -8.1184e-05 3.363e-05)
(-5.5587e-05 -7.3088e-05 4.8901e-05)
(-5.5559e-05 -6.223e-05 6.223e-05)
(-5.5587e-05 -4.8901e-05 7.3088e-05)
(-5.5606e-05 -3.363e-05 8.1183e-05)
(-5.5543e-05 -1.7122e-05 8.6336e-05)
(-5.5498e-05 1.662e-10 8.8118e-05)
(-5.9039e-05 -7.8751e-05 -3.8329e-10)
(-5.906e-05 -7.7164e-05 1.5303e-05)
(-5.9098e-05 -7.2597e-05 3.0078e-05)
(-5.9098e-05 -6.5377e-05 4.375e-05)
(-5.9092e-05 -5.5684e-05 5.5684e-05)
(-5.9098e-05 -4.375e-05 6.5376e-05)
(-5.9098e-05 -3.0078e-05 7.2596e-05)
(-5.9061e-05 -1.5303e-05 7.7163e-05)
(-5.9039e-05 6.6012e-11 7.875e-05)
(-6.2022e-05 -6.9869e-05 -5.5323e-10)
(-6.2032e-05 -6.8454e-05 1.3563e-05)
(-6.205e-05 -6.4411e-05 2.6683e-05)
(-6.207e-05 -5.8038e-05 3.8847e-05)
(-6.2074e-05 -4.946e-05 4.946e-05)
(-6.207e-05 -3.8847e-05 5.8037e-05)
(-6.205e-05 -2.6683e-05 6.441e-05)
(-6.2032e-05 -1.3563e-05 6.8453e-05)
(-6.2022e-05 1.9735e-10 6.9868e-05)
(-6.4355e-05 -6.1313e-05 -5.745e-10)
(-6.4371e-05 -6.0071e-05 1.1888e-05)
(-6.4398e-05 -5.6533e-05 2.3408e-05)
(-6.4397e-05 -5.0973e-05 3.412e-05)
(-6.4392e-05 -4.3459e-05 4.3459e-05)
(-6.4397e-05 -3.412e-05 5.0972e-05)
(-6.4398e-05 -2.3408e-05 5.6532e-05)
(-6.4371e-05 -1.1888e-05 6.0071e-05)
(-6.4355e-05 1.9087e-10 6.1312e-05)
(-6.6076e-05 -5.3062e-05 -5.4176e-10)
(-6.6111e-05 -5.1963e-05 1.0264e-05)
(-6.6152e-05 -4.8893e-05 2.0237e-05)
(-6.6126e-05 -4.413e-05 2.9554e-05)
(-6.6097e-05 -3.7671e-05 3.767e-05)
(-6.6126e-05 -2.9554e-05 4.413e-05)
(-6.6153e-05 -2.0237e-05 4.8893e-05)
(-6.6111e-05 -1.0264e-05 5.1963e-05)
(-6.6077e-05 1.4384e-10 5.3062e-05)
(-6.7286e-05 -4.5147e-05 5.9963e-11)
(-6.7303e-05 -4.4251e-05 8.7575e-06)
(-6.7326e-05 -4.1689e-05 1.7264e-05)
(-6.7314e-05 -3.7628e-05 2.5192e-05)
(-6.7302e-05 -3.21e-05 3.2099e-05)
(-6.7314e-05 -2.5193e-05 3.7628e-05)
(-6.7326e-05 -1.7265e-05 4.1689e-05)
(-6.7303e-05 -8.758e-06 4.4252e-05)
(-6.7286e-05 -4.6122e-10 4.5147e-05)
(-6.8013e-05 -3.7852e-05 -4.2863e-10)
(-6.8022e-05 -3.7134e-05 7.3639e-06)
(-6.8031e-05 -3.5026e-05 1.4519e-05)
(-6.8033e-05 -3.1627e-05 2.1163e-05)
(-6.8028e-05 -2.6962e-05 2.6962e-05)
(-6.8033e-05 -2.1164e-05 3.1627e-05)
(-6.8031e-05 -1.452e-05 3.5027e-05)
(-6.8022e-05 -7.3644e-06 3.7135e-05)
(-6.8013e-05 6.5148e-11 3.7852e-05)
(-6.8289e-05 -3.1424e-05 -3.5855e-10)
(-6.8297e-05 -3.0824e-05 6.1038e-06)
(-6.8309e-05 -2.9079e-05 1.2038e-05)
(-6.8302e-05 -2.6286e-05 1.759e-05)
(-6.8296e-05 -2.243e-05 2.243e-05)
(-6.8302e-05 -1.7591e-05 2.6286e-05)
(-6.831e-05 -1.2039e-05 2.9079e-05)
(-6.8297e-05 -6.1042e-06 3.0825e-05)
(-6.8289e-05 3.6935e-11 3.1425e-05)
(-6.8122e-05 -2.5881e-05 -2.1928e-10)
(-6.8138e-05 -2.5359e-05 4.9966e-06)
(-6.8157e-05 -2.3907e-05 9.8846e-06)
(-6.8135e-05 -2.1648e-05 1.4502e-05)
(-6.8118e-05 -1.8517e-05 1.8518e-05)
(-6.8135e-05 -1.4502e-05 2.1648e-05)
(-6.8157e-05 -9.8848e-06 2.3908e-05)
(-6.8138e-05 -4.9968e-06 2.536e-05)
(-6.8122e-05 8.303e-11 2.5882e-05)
(-6.7527e-05 -2.1174e-05 -9.9939e-11)
(-6.7529e-05 -2.0768e-05 4.1032e-06)
(-6.7531e-05 -1.9609e-05 8.1152e-06)
(-6.752e-05 -1.7754e-05 1.1889e-05)
(-6.7514e-05 -1.5173e-05 1.5173e-05)
(-6.752e-05 -1.1889e-05 1.7754e-05)
(-6.7531e-05 -8.1152e-06 1.9609e-05)
(-6.7529e-05 -4.1033e-06 2.0769e-05)
(-6.7527e-05 1.2154e-10 2.1175e-05)
(-6.6502e-05 -1.7294e-05 2.3665e-11)
(-6.6497e-05 -1.6987e-05 3.3688e-06)
(-6.6486e-05 -1.6052e-05 6.652e-06)
(-6.6485e-05 -1.4546e-05 9.7336e-06)
(-6.6484e-05 -1.2408e-05 1.2409e-05)
(-6.6486e-05 -9.7334e-06 1.4546e-05)
(-6.6487e-05 -6.6519e-06 1.6053e-05)
(-6.6497e-05 -3.3687e-06 1.6988e-05)
(-6.6503e-05 1.6239e-10 1.7295e-05)
(-6.5067e-05 -1.4198e-05 -7.0788e-10)
(-6.5062e-05 -1.3932e-05 2.7577e-06)
(-6.5057e-05 -1.3163e-05 5.4506e-06)
(-6.505e-05 -1.1927e-05 7.9855e-06)
(-6.505e-05 -1.0192e-05 1.0194e-05)
(-6.505e-05 -7.9852e-06 1.1928e-05)
(-6.5057e-05 -5.4503e-06 1.3164e-05)
(-6.5062e-05 -2.7574e-06 1.3933e-05)
(-6.5067e-05 1.054e-09 1.4199e-05)
(-6.3271e-05 -1.1586e-05 2.1974e-10)
(-6.3274e-05 -1.1342e-05 2.2268e-06)
(-6.3277e-05 -1.0696e-05 4.4201e-06)
(-6.3264e-05 -9.706e-06 6.5091e-06)
(-6.3258e-05 -8.3237e-06 8.3243e-06)
(-6.3264e-05 -6.5086e-06 9.7068e-06)
(-6.3277e-05 -4.4197e-06 1.0697e-05)
(-6.3274e-05 -2.2264e-06 1.1343e-05)
(-6.3272e-05 2.7306e-10 1.1588e-05)
(-6.1177e-05 -9.2358e-06 3.1031e-10)
(-6.1174e-05 -9.0562e-06 1.7848e-06)
(-6.117e-05 -8.5545e-06 3.5384e-06)
(-6.1164e-05 -7.7583e-06 5.1982e-06)
(-6.1163e-05 -6.6405e-06 6.6412e-06)
(-6.1164e-05 -5.1976e-06 7.7591e-06)
(-6.117e-05 -3.5379e-06 8.5554e-06)
(-6.1174e-05 -1.7842e-06 9.0573e-06)
(-6.1177e-05 3.0665e-10 9.2369e-06)
(-5.8844e-05 -7.1883e-06 3.3356e-10)
(-5.8841e-05 -7.0665e-06 1.4038e-06)
(-5.8833e-05 -6.689e-06 2.7726e-06)
(-5.8831e-05 -6.0645e-06 4.0582e-06)
(-5.8829e-05 -5.176e-06 5.1768e-06)
(-5.8831e-05 -4.0575e-06 6.0654e-06)
(-5.8833e-05 -2.7719e-06 6.69e-06)
(-5.8841e-05 -1.4031e-06 7.0676e-06)
(-5.8844e-05 3.7176e-10 7.1894e-06)
(-5.6319e-05 -5.5722e-06 4.1826e-10)
(-5.6312e-05 -5.4776e-06 1.0906e-06)
(-5.6306e-05 -5.1887e-06 2.1503e-06)
(-5.6303e-05 -4.7046e-06 3.1454e-06)
(-5.6306e-05 -4.0148e-06 4.0157e-06)
(-5.6303e-05 -3.1447e-06 4.7054e-06)
(-5.6306e-05 -2.1496e-06 5.1897e-06)
(-5.6312e-05 -1.0898e-06 5.4785e-06)
(-5.6319e-05 3.3098e-10 5.5732e-06)
(-5.3584e-05 -4.3236e-06 3.1438e-10)
(-5.3581e-05 -4.2417e-06 8.3787e-07)
(-5.3579e-05 -4.0108e-06 1.6584e-06)
(-5.3573e-05 -3.6392e-06 2.4363e-06)
(-5.3573e-05 -3.1141e-06 3.1149e-06)
(-5.3573e-05 -2.4355e-06 3.64e-06)
(-5.3579e-05 -1.6576e-06 4.0116e-06)
(-5.3581e-05 -8.371e-07 4.2424e-06)
(-5.3584e-05 4.3503e-10 4.3243e-06)
(-5.062e-05 -3.3834e-06 1.9165e-10)
(-5.0612e-05 -3.3177e-06 6.5638e-07)
(-5.0605e-05 -3.1344e-06 1.2964e-06)
(-5.0604e-05 -2.8428e-06 1.9017e-06)
(-5.0608e-05 -2.4311e-06 2.4317e-06)
(-5.0604e-05 -1.9009e-06 2.8435e-06)
(-5.0605e-05 -1.2956e-06 3.135e-06)
(-5.0612e-05 -6.556e-07 3.3182e-06)
(-5.062e-05 5.2608e-10 3.3838e-06)
(-4.7428e-05 -2.5998e-06 2.0373e-10)
(-4.7426e-05 -2.5458e-06 5.0773e-07)
(-4.7413e-05 -2.3985e-06 9.9573e-07)
(-4.742e-05 -2.1808e-06 1.4549e-06)
(-4.7416e-05 -1.8605e-06 1.8612e-06)
(-4.742e-05 -1.4541e-06 2.1813e-06)
(-4.7413e-05 -9.9492e-07 2.3989e-06)
(-4.7426e-05 -5.0696e-07 2.5461e-06)
(-4.7428e-05 4.5435e-10 2.5998e-06)
(-4.4e-05 -1.7943e-06 7.2418e-10)
(-4.4003e-05 -1.7537e-06 3.3339e-07)
(-4.4005e-05 -1.6361e-06 6.7905e-07)
(-4.3997e-05 -1.4811e-06 1.01e-06)
(-4.3992e-05 -1.2763e-06 1.2761e-06)
(-4.3997e-05 -1.0093e-06 1.4816e-06)
(-4.4005e-05 -6.7825e-07 1.6364e-06)
(-4.4003e-05 -3.3266e-07 1.7536e-06)
(-4.4e-05 -1.4717e-10 1.794e-06)
(-4.0409e-05 -9.0002e-07 6.2651e-11)
(-4.0409e-05 -8.4055e-07 1.2255e-07)
(-4.0405e-05 -7.2212e-07 3.0041e-07)
(-4.0407e-05 -6.78e-07 5.0732e-07)
(-4.0406e-05 -6.3267e-07 6.3323e-07)
(-4.0407e-05 -5.066e-07 6.7834e-07)
(-4.0405e-05 -2.9965e-07 7.2219e-07)
(-4.0409e-05 -1.2187e-07 8.4031e-07)
(-4.0409e-05 4.2115e-10 8.9951e-07)
(-3.6713e-05 2.1572e-07 -9.4834e-12)
(-3.6663e-05 3.9461e-07 -1.8487e-07)
(-3.6615e-05 5.6772e-07 -2.3473e-07)
(-3.6663e-05 4.1475e-07 -1.5116e-07)
(-3.6713e-05 1.5886e-07 -1.5839e-07)
(-3.6663e-05 1.518e-07 -4.1453e-07)
(-3.6615e-05 2.3541e-07 -5.6782e-07)
(-3.6663e-05 1.8546e-07 -3.9503e-07)
(-3.6713e-05 3.908e-10 -2.1641e-07)
(-3.2796e-05 2.0606e-06 -7.4405e-11)
(-3.2695e-05 2.3274e-06 -5.7915e-07)
(-3.2613e-05 2.442e-06 -1.0115e-06)
(-3.2695e-05 2.0591e-06 -1.2386e-06)
(-3.2797e-05 1.4618e-06 -1.4614e-06)
(-3.2695e-05 1.2392e-06 -2.059e-06)
(-3.2613e-05 1.0121e-06 -2.4422e-06)
(-3.2695e-05 5.7963e-07 -2.3279e-06)
(-3.2796e-05 3.439e-10 -2.0614e-06)
(-2.8807e-05 4.2333e-06 -1.2381e-10)
(-2.8791e-05 4.1592e-06 -8.6062e-07)
(-2.8764e-05 3.9589e-06 -1.6392e-06)
(-2.8792e-05 3.5515e-06 -2.3332e-06)
(-2.8808e-05 2.9956e-06 -2.9953e-06)
(-2.8792e-05 2.3336e-06 -3.5515e-06)
(-2.8764e-05 1.6397e-06 -3.9592e-06)
(-2.8791e-05 8.6099e-07 -4.1599e-06)
(-2.8807e-05 2.7497e-10 -4.2342e-06)
(-2.572e-05 3.2533e-06 -1.5394e-10)
(-2.5769e-05 2.9518e-06 -5.8916e-07)
(-2.5746e-05 2.7356e-06 -1.1326e-06)
(-2.577e-05 2.5045e-06 -1.6703e-06)
(-2.572e-05 2.3009e-06 -2.3007e-06)
(-2.577e-05 1.6706e-06 -2.5046e-06)
(-2.5746e-05 1.133e-06 -2.736e-06)
(-2.5769e-05 5.8942e-07 -2.9525e-06)
(-2.5719e-05 2.0143e-10 -3.2542e-06)
(-2.3546e-05 -2.5685e-06 -1.5713e-10)
(-2.3385e-05 -2.2529e-06 2.7551e-07)
(-2.3233e-05 -1.8114e-06 7.5058e-07)
(-2.3385e-05 -1.7872e-06 1.3982e-06)
(-2.3546e-05 -1.8156e-06 1.8156e-06)
(-2.3385e-05 -1.398e-06 1.7871e-06)
(-2.3233e-05 -7.5034e-07 1.811e-06)
(-2.3385e-05 -2.7536e-07 2.2522e-06)
(-2.3546e-05 1.3994e-10 2.5676e-06)
(-1.9469e-05 -7.5323e-06 -1.3081e-10)
(-1.9102e-05 -6.6039e-06 9.889e-07)
(-1.882e-05 -5.549e-06 2.2984e-06)
(-1.9102e-05 -5.3681e-06 3.9696e-06)
(-1.9469e-05 -5.3249e-06 5.3249e-06)
(-1.9102e-05 -3.9695e-06 5.3679e-06)
(-1.882e-05 -2.2983e-06 5.5486e-06)
(-1.9102e-05 -9.8883e-07 6.6032e-06)
(-1.9469e-05 8.4467e-11 7.5315e-06)
(-1.1106e-05 -5.8884e-06 -7.7449e-11)
(-1.0944e-05 -5.4062e-06 8.5799e-07)
(-1.0785e-05 -4.6905e-06 1.9427e-06)
(-1.0944e-05 -4.429e-06 3.2154e-06)
(-1.1106e-05 -4.1629e-06 4.1629e-06)
(-1.0944e-05 -3.2154e-06 4.4288e-06)
(-1.0785e-05 -1.9427e-06 4.6902e-06)
(-1.0944e-05 -8.5798e-07 5.4059e-06)
(-1.1106e-05 2.8028e-11 5.8879e-06)
(-4.4362e-12 -2.4019e-12 -3.3757e-17)
(-1.8136e-08 -4.6615e-08 -3.6819e-08)
(-5.3056e-12 -4.6485e-12 1.764e-12)
(-1.8133e-08 -6.8855e-09 5.8984e-08)
(-3.1126e-12 1.0662e-12 -1.0661e-12)
(-1.8134e-08 -5.8983e-08 6.8876e-09)
(-5.3055e-12 -1.7641e-12 4.6484e-12)
(-1.8135e-08 3.682e-08 4.6611e-08)
(-4.4362e-12 3.1215e-18 2.4017e-12)
(-6.1883e-07 -1.5973e-06 -8.3731e-06)
(2.5358e-09 -6.3391e-11 -3.2779e-08)
(-6.643e-07 -3.1406e-06 -7.6616e-06)
(-3.3326e-13 -1.0815e-12 -2.7526e-12)
(-7.0712e-07 -4.5951e-06 -6.8316e-06)
(-1.8524e-09 -2.1628e-08 -8.704e-09)
(-7.2494e-07 -5.8468e-06 -5.8468e-06)
(-2.9577e-14 -2.3867e-12 -2.3866e-12)
(-7.0719e-07 -6.8315e-06 -4.595e-06)
(-1.8518e-09 -8.7067e-09 -2.1625e-08)
(-6.6443e-07 -7.6612e-06 -3.1404e-06)
(-3.3332e-13 -2.7526e-12 -1.0816e-12)
(-6.1903e-07 -8.3726e-06 -1.5972e-06)
(2.5342e-09 -3.2771e-08 -6.3186e-11)
(-5.9797e-07 -8.6767e-06 1.0709e-10)
(-1.7985e-13 -3.2824e-12 3.9969e-17)
(-1.5694e-06 -2.8631e-06 -1.4774e-05)
(-1.6365e-06 -5.5634e-06 -1.3503e-05)
(-1.7081e-06 -8.0318e-06 -1.1967e-05)
(-1.7441e-06 -1.0222e-05 -1.0222e-05)
(-1.7082e-06 -1.1967e-05 -8.0317e-06)
(-1.6367e-06 -1.3502e-05 -5.5632e-06)
(-1.5698e-06 -1.4773e-05 -2.8629e-06)
(-1.5353e-06 -1.537e-05 1.9547e-10)
(-2.9088e-06 -3.3233e-06 -1.6514e-05)
(-2.9346e-06 -6.3223e-06 -1.5171e-05)
(-2.9911e-06 -8.8366e-06 -1.3241e-05)
(-3.0253e-06 -1.1082e-05 -1.1082e-05)
(-2.9912e-06 -1.3241e-05 -8.8365e-06)
(-2.9349e-06 -1.517e-05 -6.322e-06)
(-2.9092e-06 -1.6513e-05 -3.3231e-06)
(-2.9056e-06 -1.7015e-05 2.2991e-10)
(-4.5552e-06 -2.66e-06 -1.2666e-05)
(-4.5086e-06 -4.9428e-06 -1.166e-05)
(-4.5228e-06 -6.5836e-06 -9.9255e-06)
(-4.5454e-06 -8.0782e-06 -8.0784e-06)
(-4.5229e-06 -9.9248e-06 -6.5835e-06)
(-4.5089e-06 -1.1659e-05 -4.9426e-06)
(-4.5556e-06 -1.2665e-05 -2.6599e-06)
(-4.594e-06 -1.2959e-05 2.4199e-10)
(-6.3746e-06 -7.7492e-07 -3.4805e-06)
(-6.2819e-06 -1.2927e-06 -2.9931e-06)
(-6.2384e-06 -1.4904e-06 -2.2837e-06)
(-6.2314e-06 -1.7181e-06 -1.7184e-06)
(-6.2386e-06 -2.2831e-06 -1.4905e-06)
(-6.2823e-06 -2.9922e-06 -1.2927e-06)
(-6.3751e-06 -3.4795e-06 -7.75e-07)
(-6.4284e-06 -3.6467e-06 2.8329e-10)
(-8.2327e-06 2.029e-06 1.0171e-05)
(-8.1142e-06 4.0752e-06 9.8111e-06)
(-8.0433e-06 6.0404e-06 9.0163e-06)
(-8.0238e-06 7.7079e-06 7.7075e-06)
(-8.0434e-06 9.0168e-06 6.0402e-06)
(-8.1146e-06 9.8117e-06 4.0749e-06)
(-8.2333e-06 1.0172e-05 2.0288e-06)
(-8.301e-06 1.0211e-05 3.3475e-10)
(-1.0015e-05 5.3438e-06 2.6741e-05)
(-9.8766e-06 1.0489e-05 2.5243e-05)
(-9.8442e-06 1.5216e-05 2.2745e-05)
(-9.8635e-06 1.9348e-05 1.9348e-05)
(-9.8444e-06 2.2745e-05 1.5216e-05)
(-9.8769e-06 2.5243e-05 1.0489e-05)
(-1.0016e-05 2.6741e-05 5.3433e-06)
(-1.0109e-05 2.7233e-05 3.5145e-10)
(-1.1672e-05 8.6854e-06 4.379e-05)
(-1.1537e-05 1.7046e-05 4.11e-05)
(-1.1551e-05 2.4714e-05 3.6916e-05)
(-1.1612e-05 3.1426e-05 3.1426e-05)
(-1.1551e-05 3.6917e-05 2.4714e-05)
(-1.1537e-05 4.11e-05 1.7045e-05)
(-1.1673e-05 4.3789e-05 8.6847e-06)
(-1.1785e-05 4.4774e-05 3.3612e-10)
(-1.3366e-05 1.1692e-05 5.91e-05)
(-1.3294e-05 2.2931e-05 5.5396e-05)
(-1.3288e-05 3.3283e-05 4.9747e-05)
(-1.3308e-05 4.2335e-05 4.2334e-05)
(-1.3288e-05 4.9747e-05 3.3282e-05)
(-1.3294e-05 5.5396e-05 2.293e-05)
(-1.3366e-05 5.9099e-05 1.1692e-05)
(-1.3418e-05 6.0435e-05 4.728e-10)
(-1.5593e-05 1.4191e-05 7.1736e-05)
(-1.5567e-05 2.7837e-05 6.7237e-05)
(-1.555e-05 4.0405e-05 6.0386e-05)
(-1.552e-05 5.1414e-05 5.1414e-05)
(-1.555e-05 6.0386e-05 4.0404e-05)
(-1.5567e-05 6.7236e-05 2.7836e-05)
(-1.5593e-05 7.1736e-05 1.4191e-05)
(-1.5588e-05 7.3387e-05 2.4399e-10)
(-1.8781e-05 1.6278e-05 8.1991e-05)
(-1.8752e-05 3.1883e-05 7.6915e-05)
(-1.8754e-05 4.6204e-05 6.9052e-05)
(-1.8762e-05 5.8726e-05 5.8725e-05)
(-1.8754e-05 6.9052e-05 4.6203e-05)
(-1.8752e-05 7.6914e-05 3.1882e-05)
(-1.8781e-05 8.199e-05 1.6277e-05)
(-1.88e-05 8.378e-05 2.2717e-10)
(-2.2889e-05 1.8121e-05 9.1053e-05)
(-2.2835e-05 3.5463e-05 8.5464e-05)
(-2.2872e-05 5.1321e-05 7.6713e-05)
(-2.2914e-05 6.5174e-05 6.5173e-05)
(-2.2872e-05 7.6713e-05 5.132e-05)
(-2.2835e-05 8.5463e-05 3.5462e-05)
(-2.2889e-05 9.1052e-05 1.812e-05)
(-2.2937e-05 9.2957e-05 2.3325e-11)
(-2.751e-05 1.9811e-05 9.9709e-05)
(-2.7451e-05 3.8791e-05 9.3591e-05)
(-2.7495e-05 5.6194e-05 8.4019e-05)
(-2.7548e-05 7.1422e-05 7.1422e-05)
(-2.7495e-05 8.4019e-05 5.6193e-05)
(-2.7451e-05 9.359e-05 3.879e-05)
(-2.7511e-05 9.9707e-05 1.981e-05)
(-2.7571e-05 0.00010184 -5.203e-10)
(-3.2096e-05 2.1245e-05 0.00010713)
(-3.2037e-05 4.1627e-05 0.00010053)
(-3.2085e-05 6.037e-05 9.0271e-05)
(-3.2146e-05 7.678e-05 7.678e-05)
(-3.2085e-05 9.027e-05 6.0369e-05)
(-3.2037e-05 0.00010053 4.1626e-05)
(-3.2096e-05 0.00010712 2.1244e-05)
(-3.2164e-05 0.00010947 -2.2123e-10)
(-3.6261e-05 2.2201e-05 0.00011186)
(-3.6237e-05 4.3501e-05 0.000105)
(-3.6271e-05 6.3051e-05 9.4278e-05)
(-3.6307e-05 8.0162e-05 8.0161e-05)
(-3.6272e-05 9.4277e-05 6.305e-05)
(-3.6237e-05 0.000105 4.35e-05)
(-3.6261e-05 0.00011186 2.22e-05)
(-3.6294e-05 0.00011426 8.6342e-11)
(-4.0084e-05 2.246e-05 0.000113)
(-4.0104e-05 4.4001e-05 0.00010612)
(-4.0126e-05 6.3729e-05 9.5283e-05)
(-4.0136e-05 8.1002e-05 8.1002e-05)
(-4.0126e-05 9.5283e-05 6.3728e-05)
(-4.0104e-05 0.00010612 4.4e-05)
(-4.0085e-05 0.000113 2.2459e-05)
(-4.0077e-05 0.00011541 -4.7384e-10)
(-4.3824e-05 2.1903e-05 0.00011027)
(-4.3867e-05 4.2927e-05 0.00010358)
(-4.3894e-05 6.2237e-05 9.3055e-05)
(-4.3904e-05 7.9134e-05 7.9134e-05)
(-4.3895e-05 9.3055e-05 6.2236e-05)
(-4.3868e-05 0.00010358 4.2926e-05)
(-4.3825e-05 0.00011027 2.1902e-05)
(-4.3804e-05 0.00011259 -3.2334e-10)
(-4.7681e-05 2.0664e-05 0.00010417)
(-4.7736e-05 4.0538e-05 9.7878e-05)
(-4.7765e-05 5.8852e-05 8.7998e-05)
(-4.776e-05 7.4881e-05 7.488e-05)
(-4.7765e-05 8.7999e-05 5.8852e-05)
(-4.7736e-05 9.7878e-05 4.0537e-05)
(-4.7681e-05 0.00010417 2.0664e-05)
(-4.7641e-05 0.00010637 -5.3083e-10)
(-5.1655e-05 1.898e-05 9.5712e-05)
(-5.1715e-05 3.7262e-05 8.9976e-05)
(-5.1721e-05 5.414e-05 8.0944e-05)
(-5.171e-05 6.8895e-05 6.8894e-05)
(-5.1721e-05 8.0944e-05 5.414e-05)
(-5.1715e-05 8.9977e-05 3.7261e-05)
(-5.1656e-05 9.5712e-05 1.898e-05)
(-5.1617e-05 9.7708e-05 -7.0394e-10)
(-5.5543e-05 1.7122e-05 8.6335e-05)
(-5.5606e-05 3.363e-05 8.1181e-05)
(-5.5587e-05 4.89e-05 7.3086e-05)
(-5.556e-05 6.2229e-05 6.2229e-05)
(-5.5587e-05 7.3087e-05 4.8899e-05)
(-5.5606e-05 8.1182e-05 3.3629e-05)
(-5.5543e-05 8.6336e-05 1.7121e-05)
(-5.5498e-05 8.8118e-05 -4.8745e-10)
(-5.9061e-05 1.5303e-05 7.7162e-05)
(-5.9098e-05 3.0078e-05 7.2595e-05)
(-5.9098e-05 4.3749e-05 6.5375e-05)
(-5.9092e-05 5.5683e-05 5.5683e-05)
(-5.9098e-05 6.5376e-05 4.3748e-05)
(-5.9098e-05 7.2595e-05 3.0077e-05)
(-5.9061e-05 7.7163e-05 1.5302e-05)
(-5.9039e-05 7.875e-05 -3.5236e-10)
(-6.2033e-05 1.3563e-05 6.8453e-05)
(-6.205e-05 2.6683e-05 6.4409e-05)
(-6.207e-05 3.8847e-05 5.8036e-05)
(-6.2074e-05 4.9459e-05 4.9459e-05)
(-6.207e-05 5.8037e-05 3.8846e-05)
(-6.205e-05 6.441e-05 2.6682e-05)
(-6.2032e-05 6.8453e-05 1.3562e-05)
(-6.2022e-05 6.9868e-05 -4.7617e-10)
(-6.4371e-05 1.1888e-05 6.007e-05)
(-6.4398e-05 2.3408e-05 5.6532e-05)
(-6.4397e-05 3.412e-05 5.0971e-05)
(-6.4392e-05 4.3459e-05 4.3458e-05)
(-6.4397e-05 5.0972e-05 3.4119e-05)
(-6.4398e-05 5.6532e-05 2.3407e-05)
(-6.4371e-05 6.007e-05 1.1887e-05)
(-6.4355e-05 6.1312e-05 -4.6089e-10)
(-6.6111e-05 1.0265e-05 5.1963e-05)
(-6.6153e-05 2.0237e-05 4.8892e-05)
(-6.6126e-05 2.9554e-05 4.4129e-05)
(-6.6097e-05 3.767e-05 3.767e-05)
(-6.6126e-05 4.4129e-05 2.9553e-05)
(-6.6152e-05 4.8892e-05 2.0236e-05)
(-6.6111e-05 5.1963e-05 1.0264e-05)
(-6.6076e-05 5.3062e-05 -4.5773e-10)
(-6.7303e-05 8.7581e-06 4.4251e-05)
(-6.7326e-05 1.7265e-05 4.1688e-05)
(-6.7314e-05 2.5192e-05 3.7628e-05)
(-6.7302e-05 3.21e-05 3.2099e-05)
(-6.7314e-05 3.7628e-05 2.5192e-05)
(-6.7326e-05 4.1688e-05 1.7264e-05)
(-6.7303e-05 4.4251e-05 8.7574e-06)
(-6.7286e-05 4.5146e-05 1.3963e-10)
(-6.8022e-05 7.3645e-06 3.7134e-05)
(-6.8031e-05 1.452e-05 3.5027e-05)
(-6.8033e-05 2.1164e-05 3.1627e-05)
(-6.8028e-05 2.6962e-05 2.6962e-05)
(-6.8033e-05 3.1627e-05 2.1163e-05)
(-6.8031e-05 3.5026e-05 1.4519e-05)
(-6.8022e-05 3.7134e-05 7.364e-06)
(-6.8013e-05 3.7851e-05 -3.551e-10)
(-6.8297e-05 6.1043e-06 3.0824e-05)
(-6.831e-05 1.2039e-05 2.9079e-05)
(-6.8302e-05 1.759e-05 2.6286e-05)
(-6.8296e-05 2.243e-05 2.243e-05)
(-6.8302e-05 2.6286e-05 1.759e-05)
(-6.8309e-05 2.9079e-05 1.2038e-05)
(-6.8297e-05 3.0824e-05 6.1039e-06)
(-6.8289e-05 3.1424e-05 -2.4028e-10)
(-6.8138e-05 4.9969e-06 2.536e-05)
(-6.8157e-05 9.8849e-06 2.3908e-05)
(-6.8135e-05 1.4502e-05 2.1648e-05)
(-6.8118e-05 1.8518e-05 1.8518e-05)
(-6.8135e-05 2.1648e-05 1.4502e-05)
(-6.8157e-05 2.3907e-05 9.8846e-06)
(-6.8138e-05 2.5359e-05 4.9966e-06)
(-6.8122e-05 2.5881e-05 -1.5743e-10)
(-6.7529e-05 4.1035e-06 2.0769e-05)
(-6.7531e-05 8.1154e-06 1.961e-05)
(-6.752e-05 1.1889e-05 1.7754e-05)
(-6.7514e-05 1.5173e-05 1.5173e-05)
(-6.752e-05 1.7754e-05 1.1889e-05)
(-6.7531e-05 1.9609e-05 8.1153e-06)
(-6.7529e-05 2.0769e-05 4.1033e-06)
(-6.7527e-05 2.1174e-05 -3.1347e-11)
(-6.6497e-05 3.369e-06 1.6988e-05)
(-6.6487e-05 6.6522e-06 1.6053e-05)
(-6.6486e-05 9.7338e-06 1.4546e-05)
(-6.6484e-05 1.2409e-05 1.2409e-05)
(-6.6486e-05 1.4546e-05 9.7337e-06)
(-6.6487e-05 1.6053e-05 6.6521e-06)
(-6.6497e-05 1.6988e-05 3.3689e-06)
(-6.6503e-05 1.7295e-05 8.1792e-11)
(-6.5062e-05 2.7578e-06 1.3933e-05)
(-6.5057e-05 5.4507e-06 1.3164e-05)
(-6.505e-05 7.9856e-06 1.1928e-05)
(-6.5051e-05 1.0194e-05 1.0193e-05)
(-6.505e-05 1.1927e-05 7.9856e-06)
(-6.5057e-05 1.3163e-05 5.4506e-06)
(-6.5062e-05 1.3932e-05 2.7577e-06)
(-6.5067e-05 1.4198e-05 1.0146e-09)
(-6.3274e-05 2.2269e-06 1.1343e-05)
(-6.3277e-05 4.4202e-06 1.0697e-05)
(-6.3264e-05 6.5091e-06 9.7067e-06)
(-6.3258e-05 8.3242e-06 8.3243e-06)
(-6.3265e-05 9.7065e-06 6.509e-06)
(-6.3278e-05 1.0696e-05 4.4201e-06)
(-6.3274e-05 1.1343e-05 2.2268e-06)
(-6.3272e-05 1.1587e-05 2.5376e-10)
(-6.1174e-05 1.7848e-06 9.0573e-06)
(-6.117e-05 3.5385e-06 8.5553e-06)
(-6.1164e-05 5.1981e-06 7.7589e-06)
(-6.1163e-05 6.6409e-06 6.641e-06)
(-6.1164e-05 7.7587e-06 5.198e-06)
(-6.117e-05 8.5549e-06 3.5383e-06)
(-6.1174e-05 9.0566e-06 1.7847e-06)
(-6.1178e-05 9.2362e-06 3.2979e-10)
(-5.8841e-05 1.4039e-06 7.0674e-06)
(-5.8833e-05 2.7726e-06 6.6898e-06)
(-5.8831e-05 4.058e-06 6.0651e-06)
(-5.8829e-05 5.1764e-06 5.1764e-06)
(-5.8831e-05 6.0648e-06 4.0579e-06)
(-5.8833e-05 6.6893e-06 2.7724e-06)
(-5.8841e-05 7.0667e-06 1.4037e-06)
(-5.8844e-05 7.1885e-06 3.4139e-10)
(-5.6312e-05 1.0906e-06 5.4783e-06)
(-5.6306e-05 2.1503e-06 5.1893e-06)
(-5.6303e-05 3.1451e-06 4.7049e-06)
(-5.6306e-05 4.0152e-06 4.0151e-06)
(-5.6303e-05 4.7047e-06 3.1449e-06)
(-5.6306e-05 5.1887e-06 2.15e-06)
(-5.6312e-05 5.4775e-06 1.0904e-06)
(-5.6319e-05 5.5722e-06 2.619e-10)
(-5.3581e-05 8.3791e-07 4.2421e-06)
(-5.3579e-05 1.6583e-06 4.0111e-06)
(-5.3573e-05 2.4359e-06 3.6393e-06)
(-5.3573e-05 3.1142e-06 3.1142e-06)
(-5.3573e-05 3.6391e-06 2.4356e-06)
(-5.3579e-05 4.0104e-06 1.6579e-06)
(-5.3581e-05 4.2412e-06 8.3759e-07)
(-5.3584e-05 4.3231e-06 3.0818e-10)
(-5.0612e-05 6.5643e-07 3.3178e-06)
(-5.0605e-05 1.2962e-06 3.1344e-06)
(-5.0604e-05 1.9012e-06 2.8427e-06)
(-5.0608e-05 2.4311e-06 2.4308e-06)
(-5.0604e-05 2.8425e-06 1.9008e-06)
(-5.0605e-05 3.1338e-06 1.2957e-06)
(-5.0612e-05 3.3168e-06 6.5602e-07)
(-5.062e-05 3.3825e-06 3.2796e-10)
(-4.7426e-05 5.0779e-07 2.5457e-06)
(-4.7413e-05 9.9551e-07 2.3982e-06)
(-4.742e-05 1.4543e-06 2.1804e-06)
(-4.7416e-05 1.8604e-06 1.8601e-06)
(-4.742e-05 2.1802e-06 1.4539e-06)
(-4.7413e-05 2.3976e-06 9.9498e-07)
(-4.7426e-05 2.5447e-06 5.0732e-07)
(-4.7428e-05 2.5986e-06 1.8297e-10)
(-4.4003e-05 3.3346e-07 1.7532e-06)
(-4.4005e-05 6.7881e-07 1.6356e-06)
(-4.3997e-05 1.0095e-06 1.4805e-06)
(-4.3992e-05 1.276e-06 1.2749e-06)
(-4.3997e-05 1.4805e-06 1.009e-06)
(-4.4005e-05 1.6351e-06 6.7824e-07)
(-4.4003e-05 1.7524e-06 3.3294e-07)
(-4.4e-05 1.7929e-06 6.9779e-10)
(-4.0409e-05 1.2263e-07 8.3987e-07)
(-4.0405e-05 3.0017e-07 7.2139e-07)
(-4.0406e-05 5.0677e-07 6.773e-07)
(-4.0405e-05 6.3241e-07 6.321e-07)
(-4.0406e-05 6.7733e-07 5.0626e-07)
(-4.0405e-05 7.2109e-07 2.9958e-07)
(-4.0409e-05 8.3926e-07 1.2209e-07)
(-4.0409e-05 8.9864e-07 3.2722e-11)
(-3.6663e-05 -1.8476e-07 -3.9545e-07)
(-3.6615e-05 -2.3494e-07 -5.6859e-07)
(-3.6663e-05 -1.5166e-07 -4.1553e-07)
(-3.6712e-05 -1.5913e-07 -1.5947e-07)
(-3.6663e-05 -4.1542e-07 -1.5217e-07)
(-3.6615e-05 -5.6875e-07 -2.3552e-07)
(-3.6663e-05 -3.9587e-07 -1.8531e-07)
(-3.6713e-05 -2.1706e-07 -3.9244e-11)
(-3.2695e-05 -5.7902e-07 -2.3283e-06)
(-3.2613e-05 -1.0117e-06 -2.4429e-06)
(-3.2695e-05 -1.2391e-06 -2.0599e-06)
(-3.2797e-05 -1.4621e-06 -1.4624e-06)
(-3.2695e-05 -2.0597e-06 -1.2396e-06)
(-3.2613e-05 -2.4429e-06 -1.0122e-06)
(-3.2694e-05 -2.3286e-06 -5.7956e-07)
(-3.2796e-05 -2.0618e-06 -1.0118e-10)
(-2.8791e-05 -8.6051e-07 -4.1602e-06)
(-2.8764e-05 -1.6394e-06 -3.9598e-06)
(-2.8792e-05 -2.3336e-06 -3.5523e-06)
(-2.8808e-05 -2.9959e-06 -2.9962e-06)
(-2.8792e-05 -3.5521e-06 -2.334e-06)
(-2.8764e-05 -3.9598e-06 -1.6398e-06)