/*--------------------------------*- C++ -*----------------------------------*\
| =========                 |                                                 |
| \\      /  F ield         | OpenFOAM: The Open Source CFD Toolbox           |
|  \\    /   O peration     | Version:  4.1                                   |
|   \\  /    A nd           | Web:      www.OpenFOAM.org                      |
|    \\/     M anipulation  |                                                 |
\*---------------------------------------------------------------------------*/
FoamFile
{
    version     2.0;
    format      ascii;
    class       pointVectorField;
    location    "0.0081";
    object      pointDisplacement;
}
// * * * * * * * * * * * * * * * * * * * * * * * * * * * * * * * * * * * * * //

dimensions      [0 1 0 0 0 0 0];

internalField   nonuniform List<vector> 
1885
(
(3.6228e-05 -5.1864e-05 6.6688e-09)
(4.044e-05 -5.52e-05 7.1456e-09)
(4.4699e-05 -5.7824e-05 7.5365e-09)
(4.8932e-05 -5.9617e-05 7.834e-09)
(5.3047e-05 -6.047e-05 8.016e-09)
(5.6951e-05 -6.0248e-05 8.047e-09)
(6.0565e-05 -5.8801e-05 7.9179e-09)
(6.3836e-05 -5.603e-05 7.624e-09)
(6.673e-05 -5.196e-05 7.1584e-09)
(6.9217e-05 -4.6749e-05 6.5441e-09)
(7.1261e-05 -4.0646e-05 5.8135e-09)
(7.2823e-05 -3.3963e-05 4.995e-09)
(7.3857e-05 -2.7034e-05 4.1253e-09)
(3.6249e-05 -4.6458e-05 5.8046e-06)
(4.0447e-05 -4.9432e-05 6.1746e-06)
(4.4687e-05 -5.177e-05 6.4652e-06)
(4.8897e-05 -5.3363e-05 6.6631e-06)
(5.2989e-05 -5.411e-05 6.7556e-06)
(5.6873e-05 -5.3892e-05 6.7277e-06)
(6.0473e-05 -5.2582e-05 6.5641e-06)
(6.3734e-05 -5.0097e-05 6.2549e-06)
(6.662e-05 -4.6464e-05 5.8027e-06)
(6.9097e-05 -4.1819e-05 5.2242e-06)
(7.1132e-05 -3.6382e-05 4.5466e-06)
(7.2683e-05 -3.0428e-05 3.8045e-06)
(7.371e-05 -2.4253e-05 3.0346e-06)
(3.6264e-05 -4.0919e-05 1.3169e-05)
(4.0451e-05 -4.3529e-05 1.4007e-05)
(4.4677e-05 -4.5579e-05 1.4664e-05)
(4.8872e-05 -4.6972e-05 1.511e-05)
(5.2949e-05 -4.7618e-05 1.5316e-05)
(5.6819e-05 -4.7413e-05 1.5249e-05)
(6.0409e-05 -4.6249e-05 1.4874e-05)
(6.3663e-05 -4.406e-05 1.4171e-05)
(6.6543e-05 -4.0868e-05 1.3146e-05)
(6.9014e-05 -3.6793e-05 1.1838e-05)
(7.1042e-05 -3.2026e-05 1.0306e-05)
(7.2587e-05 -2.6805e-05 8.6294e-06)
(7.3608e-05 -2.1388e-05 6.8891e-06)
(3.6273e-05 -3.4645e-05 2.0571e-05)
(4.0454e-05 -3.6848e-05 2.1877e-05)
(4.4671e-05 -3.8578e-05 2.2902e-05)
(4.8856e-05 -3.9751e-05 2.3596e-05)
(5.2923e-05 -4.0291e-05 2.3915e-05)
(5.6785e-05 -4.011e-05 2.3807e-05)
(6.0369e-05 -3.912e-05 2.3219e-05)
(6.3618e-05 -3.7266e-05 2.2119e-05)
(6.6494e-05 -3.4569e-05 2.052e-05)
(6.8962e-05 -3.1128e-05 1.8479e-05)
(7.0986e-05 -2.7104e-05 1.6092e-05)
(7.2526e-05 -2.2696e-05 1.3478e-05)
(7.3543e-05 -1.8122e-05 1.0765e-05)
(3.6276e-05 -2.7799e-05 2.78e-05)
(4.0454e-05 -2.9564e-05 2.9566e-05)
(4.4669e-05 -3.095e-05 3.0951e-05)
(4.8851e-05 -3.1888e-05 3.189e-05)
(5.2914e-05 -3.2319e-05 3.232e-05)
(5.6774e-05 -3.2171e-05 3.2173e-05)
(6.0355e-05 -3.1375e-05 3.1377e-05)
(6.3603e-05 -2.9888e-05 2.989e-05)
(6.6477e-05 -2.7726e-05 2.7728e-05)
(6.8944e-05 -2.4968e-05 2.497e-05)
(7.0966e-05 -2.1744e-05 2.1746e-05)
(7.2505e-05 -1.8212e-05 1.8214e-05)
(7.3521e-05 -1.4547e-05 1.4548e-05)
(3.6273e-05 -2.0569e-05 3.4646e-05)
(4.0454e-05 -2.1875e-05 3.6849e-05)
(4.4671e-05 -2.29e-05 3.8579e-05)
(4.8856e-05 -2.3595e-05 3.9752e-05)
(5.2923e-05 -2.3914e-05 4.0292e-05)
(5.6785e-05 -2.3805e-05 4.0111e-05)
(6.0369e-05 -2.3217e-05 3.9121e-05)
(6.3618e-05 -2.2117e-05 3.7267e-05)
(6.6494e-05 -2.0518e-05 3.457e-05)
(6.8962e-05 -1.8477e-05 3.1129e-05)
(7.0986e-05 -1.609e-05 2.7105e-05)
(7.2526e-05 -1.3476e-05 2.2698e-05)
(7.3543e-05 -1.0763e-05 1.8124e-05)
(3.6264e-05 -1.3168e-05 4.092e-05)
(4.0451e-05 -1.4005e-05 4.3529e-05)
(4.4677e-05 -1.4662e-05 4.5579e-05)
(4.8872e-05 -1.5108e-05 4.6972e-05)
(5.2949e-05 -1.5314e-05 4.7618e-05)
(5.6819e-05 -1.5247e-05 4.7413e-05)
(6.0409e-05 -1.4872e-05 4.6249e-05)
(6.3663e-05 -1.4169e-05 4.406e-05)
(6.6543e-05 -1.3144e-05 4.0869e-05)
(6.9014e-05 -1.1836e-05 3.6795e-05)
(7.1042e-05 -1.0305e-05 3.2028e-05)
(7.2587e-05 -8.6277e-06 2.6807e-05)
(7.3608e-05 -6.8875e-06 2.1389e-05)
(3.625e-05 -5.8032e-06 4.6458e-05)
(4.0447e-05 -6.173e-06 4.9432e-05)
(4.4686e-05 -6.4635e-06 5.177e-05)
(4.8897e-05 -6.6614e-06 5.3363e-05)
(5.2989e-05 -6.7537e-06 5.411e-05)
(5.6873e-05 -6.7258e-06 5.3892e-05)
(6.0473e-05 -6.5622e-06 5.2582e-05)
(6.3734e-05 -6.253e-06 5.0097e-05)
(6.6619e-05 -5.8009e-06 4.6464e-05)
(6.9097e-05 -5.2224e-06 4.182e-05)
(7.1132e-05 -4.5449e-06 3.6384e-05)
(7.2683e-05 -3.8029e-06 3.043e-05)
(7.371e-05 -3.0331e-06 2.4254e-05)
(3.6228e-05 -5.5731e-09 5.1864e-05)
(4.044e-05 -5.9788e-09 5.52e-05)
(4.4699e-05 -6.298e-09 5.7823e-05)
(4.8932e-05 -6.5284e-09 5.9616e-05)
(5.3047e-05 -6.6461e-09 6.0469e-05)
(5.6951e-05 -6.6223e-09 6.0248e-05)
(6.0565e-05 -6.452e-09 5.8801e-05)
(6.3836e-05 -6.1394e-09 5.603e-05)
(6.673e-05 -5.6842e-09 5.196e-05)
(6.9217e-05 -5.1016e-09 4.6749e-05)
(7.1261e-05 -4.4145e-09 4.0647e-05)
(7.2823e-05 -3.6513e-09 3.3964e-05)
(7.3857e-05 -2.8629e-09 2.7036e-05)
(3.6249e-05 -4.6459e-05 -5.7868e-06)
(4.0447e-05 -4.9433e-05 -6.1555e-06)
(4.4686e-05 -5.1771e-05 -6.4451e-06)
(4.8897e-05 -5.3364e-05 -6.6423e-06)
(5.2989e-05 -5.4111e-05 -6.7343e-06)
(5.6874e-05 -5.3893e-05 -6.7064e-06)
(6.0473e-05 -5.2583e-05 -6.5432e-06)
(6.3734e-05 -5.0098e-05 -6.2348e-06)
(6.662e-05 -4.6465e-05 -5.7839e-06)
(6.9097e-05 -4.182e-05 -5.207e-06)
(7.1132e-05 -3.6383e-05 -4.5315e-06)
(7.2684e-05 -3.0429e-05 -3.7915e-06)
(7.371e-05 -2.4253e-05 -3.024e-06)
(3.6282e-05 -3.832e-05 1.7973e-08)
(4.0457e-05 -4.0758e-05 1.9154e-08)
(4.4668e-05 -4.2672e-05 2.0099e-08)
(4.8845e-05 -4.397e-05 2.0762e-08)
(5.2903e-05 -4.4565e-05 2.1088e-08)
(5.6758e-05 -4.436e-05 2.1022e-08)
(6.0335e-05 -4.3259e-05 2.0543e-08)
(6.358e-05 -4.1205e-05 1.9647e-08)
(6.6452e-05 -3.8221e-05 1.833e-08)
(6.8915e-05 -3.4416e-05 1.6629e-08)
(7.0935e-05 -2.9968e-05 1.4624e-08)
(7.2471e-05 -2.5098e-05 1.2411e-08)
(7.3486e-05 -2.0043e-05 1.0095e-08)
(3.6296e-05 -3.2642e-05 6.543e-06)
(4.0461e-05 -3.4711e-05 6.9572e-06)
(4.4659e-05 -3.6335e-05 7.2821e-06)
(4.882e-05 -3.7433e-05 7.5017e-06)
(5.2863e-05 -3.7931e-05 7.601e-06)
(5.6705e-05 -3.7748e-05 7.5638e-06)
(6.0272e-05 -3.6804e-05 7.3744e-06)
(6.3509e-05 -3.5053e-05 7.0238e-06)
(6.6374e-05 -3.2517e-05 6.516e-06)
(6.8831e-05 -2.9288e-05 5.8692e-06)
(7.0844e-05 -2.5514e-05 5.1135e-06)
(7.2374e-05 -2.1381e-05 4.2861e-06)
(7.3383e-05 -1.7091e-05 3.4272e-06)
(3.6306e-05 -2.6484e-05 1.3245e-05)
(4.0464e-05 -2.816e-05 1.4083e-05)
(4.4654e-05 -2.9473e-05 1.4739e-05)
(4.8805e-05 -3.0361e-05 1.5182e-05)
(5.2839e-05 -3.076e-05 1.5381e-05)
(5.6672e-05 -3.0607e-05 1.5304e-05)
(6.0233e-05 -2.9837e-05 1.4919e-05)
(6.3465e-05 -2.8417e-05 1.4209e-05)
(6.6326e-05 -2.6362e-05 1.3182e-05)
(6.8779e-05 -2.3747e-05 1.1875e-05)
(7.0788e-05 -2.0692e-05 1.0348e-05)
(7.2313e-05 -1.7347e-05 8.676e-06)
(7.332e-05 -1.3875e-05 6.9403e-06)
(3.6309e-05 -1.9961e-05 1.9963e-05)
(4.0465e-05 -2.1223e-05 2.1225e-05)
(4.4652e-05 -2.2212e-05 2.2214e-05)
(4.88e-05 -2.2879e-05 2.2882e-05)
(5.2831e-05 -2.3179e-05 2.3181e-05)
(5.6661e-05 -2.3062e-05 2.3064e-05)
(6.0219e-05 -2.2481e-05 2.2483e-05)
(6.345e-05 -2.141e-05 2.1412e-05)
(6.6309e-05 -1.9862e-05 1.9864e-05)
(6.8761e-05 -1.7893e-05 1.7895e-05)
(7.0768e-05 -1.5593e-05 1.5595e-05)
(7.2293e-05 -1.3074e-05 1.3077e-05)
(7.3298e-05 -1.0459e-05 1.0461e-05)
(3.6306e-05 -1.3243e-05 2.6485e-05)
(4.0464e-05 -1.408e-05 2.8161e-05)
(4.4654e-05 -1.4736e-05 2.9475e-05)
(4.8805e-05 -1.5179e-05 3.0362e-05)
(5.2839e-05 -1.5379e-05 3.0762e-05)
(5.6672e-05 -1.5301e-05 3.0608e-05)
(6.0233e-05 -1.4916e-05 2.9839e-05)
(6.3465e-05 -1.4206e-05 2.8418e-05)
(6.6326e-05 -1.3179e-05 2.6363e-05)
(6.8779e-05 -1.1872e-05 2.3749e-05)
(7.0787e-05 -1.0345e-05 2.0694e-05)
(7.2313e-05 -8.6737e-06 1.7349e-05)
(7.332e-05 -6.9381e-06 1.3876e-05)
(3.6297e-05 -6.5404e-06 3.2642e-05)
(4.0461e-05 -6.9544e-06 3.4712e-05)
(4.4659e-05 -7.2791e-06 3.6336e-05)
(4.882e-05 -7.4986e-06 3.7434e-05)
(5.2863e-05 -7.5978e-06 3.7932e-05)
(5.6705e-05 -7.5606e-06 3.7748e-05)
(6.0272e-05 -7.3713e-06 3.6804e-05)
(6.3509e-05 -7.0207e-06 3.5054e-05)
(6.6374e-05 -6.5129e-06 3.2518e-05)
(6.8831e-05 -5.8664e-06 2.9289e-05)
(7.0844e-05 -5.1108e-06 2.5515e-05)
(7.2374e-05 -4.2837e-06 2.1383e-05)
(7.3383e-05 -3.425e-06 1.7093e-05)
(3.6282e-05 -1.5482e-08 3.832e-05)
(4.0457e-05 -1.6517e-08 4.0758e-05)
(4.4668e-05 -1.7333e-08 4.2672e-05)
(4.8845e-05 -1.7892e-08 4.397e-05)
(5.2903e-05 -1.8143e-08 4.4564e-05)
(5.6758e-05 -1.8038e-08 4.436e-05)
(6.0335e-05 -1.756e-08 4.3259e-05)
(6.358e-05 -1.6709e-08 4.1205e-05)
(6.6452e-05 -1.5489e-08 3.8221e-05)
(6.8915e-05 -1.3936e-08 3.4417e-05)
(7.0935e-05 -1.2119e-08 2.9969e-05)
(7.2471e-05 -1.0133e-08 2.5099e-05)
(7.3486e-05 -8.0796e-09 2.0045e-05)
(3.6249e-05 5.7884e-06 4.6458e-05)
(4.0447e-05 6.1572e-06 4.9433e-05)
(4.4686e-05 6.4469e-06 5.177e-05)
(4.8897e-05 6.6442e-06 5.3363e-05)
(5.2989e-05 6.7362e-06 5.411e-05)
(5.6873e-05 6.7084e-06 5.3893e-05)
(6.0473e-05 6.5452e-06 5.2582e-05)
(6.3734e-05 6.2368e-06 5.0098e-05)
(6.6619e-05 5.7859e-06 4.6465e-05)
(6.9097e-05 5.2089e-06 4.182e-05)
(7.1132e-05 4.5333e-06 3.6384e-05)
(7.2683e-05 3.7932e-06 3.043e-05)
(7.371e-05 3.0255e-06 2.4255e-05)
(3.6264e-05 -4.0922e-05 -1.3162e-05)
(4.0451e-05 -4.3532e-05 -1.3999e-05)
(4.4677e-05 -4.5581e-05 -1.4655e-05)
(4.8872e-05 -4.6975e-05 -1.5101e-05)
(5.2949e-05 -4.762e-05 -1.5307e-05)
(5.6819e-05 -4.7415e-05 -1.524e-05)
(6.0409e-05 -4.6252e-05 -1.4865e-05)
(6.3663e-05 -4.4063e-05 -1.4162e-05)
(6.6543e-05 -4.0871e-05 -1.3138e-05)
(6.9014e-05 -3.6796e-05 -1.183e-05)
(7.1042e-05 -3.2028e-05 -1.0299e-05)
(7.2587e-05 -2.6807e-05 -8.6232e-06)
(7.3608e-05 -2.1389e-05 -6.8838e-06)
(3.6296e-05 -3.2641e-05 -6.5154e-06)
(4.0461e-05 -3.4711e-05 -6.9278e-06)
(4.4659e-05 -3.6335e-05 -7.2512e-06)
(4.882e-05 -3.7433e-05 -7.4697e-06)
(5.2863e-05 -3.7931e-05 -7.5685e-06)
(5.6705e-05 -3.7748e-05 -7.5314e-06)
(6.0272e-05 -3.6803e-05 -7.3427e-06)
(6.3509e-05 -3.5053e-05 -6.9935e-06)
(6.6374e-05 -3.2517e-05 -6.4876e-06)
(6.8831e-05 -2.9288e-05 -5.8434e-06)
(7.0844e-05 -2.5514e-05 -5.0908e-06)
(7.2374e-05 -2.1381e-05 -4.2667e-06)
(7.3383e-05 -1.7091e-05 -3.4113e-06)
(3.6312e-05 -2.6784e-05 1.9967e-08)
(4.0466e-05 -2.8476e-05 2.1272e-08)
(4.465e-05 -2.9803e-05 2.2313e-08)
(4.8795e-05 -3.0699e-05 2.3038e-08)
(5.2822e-05 -3.11e-05 2.3388e-08)
(5.6649e-05 -3.0942e-05 2.331e-08)
(6.0205e-05 -3.0162e-05 2.2772e-08)
(6.3433e-05 -2.8725e-05 2.1764e-08)
(6.6291e-05 -2.6649e-05 2.0294e-08)
(6.8741e-05 -2.4008e-05 1.8406e-08)
(7.0747e-05 -2.0924e-05 1.6185e-08)
(7.227e-05 -1.7547e-05 1.3737e-08)
(7.3274e-05 -1.4039e-05 1.1177e-08)
(3.6322e-05 -2.0461e-05 6.843e-06)
(4.0469e-05 -2.1751e-05 7.2744e-06)
(4.4644e-05 -2.2762e-05 7.6124e-06)
(4.878e-05 -2.3444e-05 7.8401e-06)
(5.2796e-05 -2.3747e-05 7.9414e-06)
(5.6615e-05 -2.3623e-05 7.8997e-06)
(6.0164e-05 -2.3024e-05 7.6995e-06)
(6.3387e-05 -2.1926e-05 7.3324e-06)
(6.624e-05 -2.0342e-05 6.8028e-06)
(6.8686e-05 -1.8329e-05 6.1298e-06)
(7.0687e-05 -1.5978e-05 5.3439e-06)
(7.2206e-05 -1.3404e-05 4.4835e-06)
(7.3207e-05 -1.073e-05 3.5897e-06)
(3.6325e-05 -1.3748e-05 1.375e-05)
(4.047e-05 -1.4614e-05 1.4617e-05)
(4.4642e-05 -1.5293e-05 1.5296e-05)
(4.8774e-05 -1.575e-05 1.5753e-05)
(5.2788e-05 -1.5953e-05 1.5956e-05)
(5.6603e-05 -1.5868e-05 1.5872e-05)
(6.015e-05 -1.5466e-05 1.5469e-05)
(6.3371e-05 -1.4728e-05 1.4731e-05)
(6.6223e-05 -1.3664e-05 1.3667e-05)
(6.8667e-05 -1.2312e-05 1.2315e-05)
(7.0667e-05 -1.0734e-05 1.0737e-05)
(7.2185e-05 -9.006e-06 9.0087e-06)
(7.3185e-05 -7.2111e-06 7.2136e-06)
(3.6322e-05 -6.8394e-06 2.0463e-05)
(4.0469e-05 -7.2706e-06 2.1753e-05)
(4.4644e-05 -7.6085e-06 2.2765e-05)
(4.878e-05 -7.836e-06 2.3446e-05)
(5.2796e-05 -7.9373e-06 2.375e-05)
(5.6615e-05 -7.8956e-06 2.3625e-05)
(6.0164e-05 -7.6954e-06 2.3027e-05)
(6.3387e-05 -7.3283e-06 2.1929e-05)
(6.624e-05 -6.7989e-06 2.0345e-05)
(6.8686e-05 -6.1261e-06 1.8331e-05)
(7.0687e-05 -5.3405e-06 1.598e-05)
(7.2206e-05 -4.4804e-06 1.3406e-05)
(7.3207e-05 -3.587e-06 1.0733e-05)
(3.6312e-05 -1.5941e-08 2.6784e-05)
(4.0466e-05 -1.7016e-08 2.8477e-05)
(4.465e-05 -1.7864e-08 2.9804e-05)
(4.8795e-05 -1.8438e-08 3.0699e-05)
(5.2822e-05 -1.8693e-08 3.1101e-05)
(5.6649e-05 -1.8584e-08 3.0943e-05)
(6.0205e-05 -1.8087e-08 3.0163e-05)
(6.3433e-05 -1.7197e-08 2.8726e-05)
(6.6291e-05 -1.593e-08 2.665e-05)
(6.8741e-05 -1.4328e-08 2.401e-05)
(7.0747e-05 -1.2464e-08 2.0926e-05)
(7.227e-05 -1.043e-08 1.7548e-05)
(7.3274e-05 -8.3269e-09 1.4041e-05)
(3.6296e-05 6.5192e-06 3.2641e-05)
(4.0461e-05 6.9318e-06 3.4711e-05)
(4.4659e-05 7.2553e-06 3.6334e-05)
(4.882e-05 7.474e-06 3.7433e-05)
(5.2863e-05 7.5729e-06 3.7931e-05)
(5.6705e-05 7.5358e-06 3.7747e-05)
(6.0272e-05 7.3471e-06 3.6803e-05)
(6.3509e-05 6.9977e-06 3.5053e-05)
(6.6374e-05 6.4917e-06 3.2517e-05)
(6.8831e-05 5.8472e-06 2.9288e-05)
(7.0844e-05 5.0942e-06 2.5514e-05)
(7.2374e-05 4.2698e-06 2.1382e-05)
(7.3383e-05 3.414e-06 1.7092e-05)
(3.6264e-05 1.3164e-05 4.0921e-05)
(4.0451e-05 1.4001e-05 4.3531e-05)
(4.4677e-05 1.4658e-05 4.558e-05)
(4.8872e-05 1.5104e-05 4.6974e-05)
(5.2949e-05 1.531e-05 4.7619e-05)
(5.6819e-05 1.5243e-05 4.7414e-05)
(6.0409e-05 1.4868e-05 4.6251e-05)
(6.3663e-05 1.4165e-05 4.4062e-05)
(6.6543e-05 1.3141e-05 4.0871e-05)
(6.9014e-05 1.1832e-05 3.6796e-05)
(7.1042e-05 1.0302e-05 3.2029e-05)
(7.2587e-05 8.6253e-06 2.6808e-05)
(7.3608e-05 6.8857e-06 2.139e-05)
(3.6273e-05 -3.4647e-05 -2.0571e-05)
(4.0453e-05 -3.685e-05 -2.1877e-05)
(4.4671e-05 -3.858e-05 -2.2902e-05)
(4.8856e-05 -3.9753e-05 -2.3597e-05)
(5.2923e-05 -4.0293e-05 -2.3915e-05)
(5.6785e-05 -4.0112e-05 -2.3807e-05)
(6.0369e-05 -3.9122e-05 -2.3219e-05)
(6.3619e-05 -3.7268e-05 -2.2119e-05)
(6.6494e-05 -3.4571e-05 -2.0519e-05)
(6.8962e-05 -3.113e-05 -1.8478e-05)
(7.0986e-05 -2.7105e-05 -1.6091e-05)
(7.2526e-05 -2.2698e-05 -1.3477e-05)
(7.3544e-05 -1.8123e-05 -1.0763e-05)
(3.6305e-05 -2.648e-05 -1.3237e-05)
(4.0464e-05 -2.8156e-05 -1.4074e-05)
(4.4653e-05 -2.9469e-05 -1.473e-05)
(4.8805e-05 -3.0357e-05 -1.5173e-05)
(5.2839e-05 -3.0756e-05 -1.5372e-05)
(5.6672e-05 -3.0603e-05 -1.5295e-05)
(6.0233e-05 -2.9833e-05 -1.491e-05)
(6.3465e-05 -2.8413e-05 -1.42e-05)
(6.6326e-05 -2.6358e-05 -1.3173e-05)
(6.8779e-05 -2.3744e-05 -1.1866e-05)
(7.0788e-05 -2.0689e-05 -1.034e-05)
(7.2314e-05 -1.7345e-05 -8.6695e-06)
(7.332e-05 -1.3873e-05 -6.9347e-06)
(3.6322e-05 -2.0455e-05 -6.8186e-06)
(4.0469e-05 -2.1745e-05 -7.2483e-06)
(4.4644e-05 -2.2756e-05 -7.585e-06)
(4.878e-05 -2.3437e-05 -7.8118e-06)
(5.2796e-05 -2.374e-05 -7.9126e-06)
(5.6615e-05 -2.3616e-05 -7.871e-06)
(6.0164e-05 -2.3018e-05 -7.6714e-06)
(6.3387e-05 -2.192e-05 -7.3054e-06)
(6.624e-05 -2.0336e-05 -6.7776e-06)
(6.8686e-05 -1.8324e-05 -6.1068e-06)
(7.0687e-05 -1.5973e-05 -5.3235e-06)
(7.2206e-05 -1.34e-05 -4.4661e-06)
(7.3207e-05 -1.0727e-05 -3.5754e-06)
(3.6332e-05 -1.3957e-05 1.2464e-08)
(4.0472e-05 -1.4836e-05 1.3294e-08)
(4.4638e-05 -1.5525e-05 1.3965e-08)
(4.8764e-05 -1.5988e-05 1.4442e-08)
(5.277e-05 -1.6193e-05 1.4688e-08)
(5.658e-05 -1.6106e-05 1.4671e-08)
(6.0121e-05 -1.5696e-05 1.437e-08)
(6.3339e-05 -1.4946e-05 1.3774e-08)
(6.6188e-05 -1.3867e-05 1.2892e-08)
(6.8629e-05 -1.2496e-05 1.1749e-08)
(7.0625e-05 -1.0895e-05 1.0397e-08)
(7.214e-05 -9.1435e-06 8.8975e-09)
(7.3138e-05 -7.3234e-06 7.3202e-09)
(3.6335e-05 -7.0547e-06 7.0587e-06)
(4.0473e-05 -7.4987e-06 7.5029e-06)
(4.4636e-05 -7.8464e-06 7.8508e-06)
(4.8758e-05 -8.0803e-06 8.0848e-06)
(5.2761e-05 -8.1835e-06 8.1881e-06)
(5.6568e-05 -8.1391e-06 8.1437e-06)
(6.0107e-05 -7.9314e-06 7.936e-06)
(6.3323e-05 -7.5524e-06 7.5569e-06)
(6.617e-05 -7.0069e-06 7.0112e-06)
(6.8609e-05 -6.3144e-06 6.3185e-06)
(7.0604e-05 -5.5062e-06 5.5099e-06)
(7.2118e-05 -4.6213e-06 4.6247e-06)
(7.3115e-05 -3.7021e-06 3.705e-06)
(3.6332e-05 -7.5104e-09 1.3961e-05)
(4.0472e-05 -8.0596e-09 1.484e-05)
(4.4638e-05 -8.4968e-09 1.5528e-05)
(4.8764e-05 -8.7958e-09 1.5992e-05)
(5.277e-05 -8.9339e-09 1.6197e-05)
(5.658e-05 -8.8899e-09 1.611e-05)
(6.0121e-05 -8.6506e-09 1.5699e-05)
(6.3339e-05 -8.2165e-09 1.495e-05)
(6.6188e-05 -7.6018e-09 1.387e-05)
(6.8629e-05 -6.8318e-09 1.2499e-05)
(7.0625e-05 -5.9403e-09 1.0899e-05)
(7.214e-05 -4.9691e-09 9.1464e-06)
(7.3138e-05 -3.9641e-09 7.3261e-06)
(3.6322e-05 6.8249e-06 2.0456e-05)
(4.0469e-05 7.255e-06 2.1746e-05)
(4.4644e-05 7.592e-06 2.2757e-05)
(4.878e-05 7.819e-06 2.3438e-05)
(5.2796e-05 7.92e-06 2.3741e-05)
(5.6615e-05 7.8783e-06 2.3617e-05)
(6.0164e-05 7.6786e-06 2.3019e-05)
(6.3387e-05 7.3124e-06 2.1921e-05)
(6.624e-05 6.7841e-06 2.0338e-05)
(6.8686e-05 6.1128e-06 1.8325e-05)
(7.0687e-05 5.329e-06 1.5975e-05)
(7.2206e-05 4.4708e-06 1.3402e-05)
(7.3207e-05 3.5794e-06 1.0729e-05)
(3.6305e-05 1.3243e-05 2.6479e-05)
(4.0464e-05 1.408e-05 2.8154e-05)
(4.4653e-05 1.4737e-05 2.9468e-05)
(4.8805e-05 1.518e-05 3.0355e-05)
(5.2839e-05 1.5379e-05 3.0755e-05)
(5.6672e-05 1.5301e-05 3.0601e-05)
(6.0233e-05 1.4916e-05 2.9832e-05)
(6.3465e-05 1.4206e-05 2.8412e-05)
(6.6326e-05 1.3179e-05 2.6357e-05)
(6.8779e-05 1.1872e-05 2.3743e-05)
(7.0787e-05 1.0345e-05 2.0689e-05)
(7.2313e-05 8.6739e-06 1.7345e-05)
(7.332e-05 6.9384e-06 1.3873e-05)
(3.6273e-05 2.0574e-05 3.4645e-05)
(4.0453e-05 2.188e-05 3.6849e-05)
(4.4671e-05 2.2905e-05 3.8578e-05)
(4.8856e-05 2.36e-05 3.9751e-05)
(5.2923e-05 2.3919e-05 4.0291e-05)
(5.6785e-05 2.3811e-05 4.0111e-05)
(6.0369e-05 2.3222e-05 3.912e-05)
(6.3618e-05 2.2122e-05 3.7267e-05)
(6.6494e-05 2.0522e-05 3.457e-05)
(6.8962e-05 1.8481e-05 3.1129e-05)
(7.0986e-05 1.6094e-05 2.7105e-05)
(7.2526e-05 1.3479e-05 2.2698e-05)
(7.3543e-05 1.0766e-05 1.8124e-05)
(3.6276e-05 -2.78e-05 -2.7798e-05)
(4.0454e-05 -2.9565e-05 -2.9564e-05)
(4.4669e-05 -3.095e-05 -3.0948e-05)
(4.8851e-05 -3.1889e-05 -3.1887e-05)
(5.2914e-05 -3.232e-05 -3.2317e-05)
(5.6774e-05 -3.2172e-05 -3.217e-05)
(6.0355e-05 -3.1376e-05 -3.1374e-05)
(6.3603e-05 -2.9889e-05 -2.9887e-05)
(6.6478e-05 -2.7727e-05 -2.7724e-05)
(6.8944e-05 -2.4969e-05 -2.4967e-05)
(7.0967e-05 -2.1745e-05 -2.1743e-05)
(7.2505e-05 -1.8213e-05 -1.8211e-05)
(7.3522e-05 -1.4547e-05 -1.4546e-05)
(3.6308e-05 -1.9958e-05 -1.9956e-05)
(4.0465e-05 -2.1219e-05 -2.1217e-05)
(4.4651e-05 -2.2208e-05 -2.2206e-05)
(4.88e-05 -2.2876e-05 -2.2873e-05)
(5.2831e-05 -2.3176e-05 -2.3172e-05)
(5.6661e-05 -2.3058e-05 -2.3055e-05)
(6.0219e-05 -2.2478e-05 -2.2474e-05)
(6.345e-05 -2.1407e-05 -2.1404e-05)
(6.631e-05 -1.9859e-05 -1.9856e-05)
(6.8761e-05 -1.789e-05 -1.7887e-05)
(7.0769e-05 -1.559e-05 -1.5588e-05)
(7.2293e-05 -1.3073e-05 -1.307e-05)
(7.3299e-05 -1.0458e-05 -1.0456e-05)
(3.6325e-05 -1.374e-05 -1.3737e-05)
(4.047e-05 -1.4606e-05 -1.4602e-05)
(4.4642e-05 -1.5284e-05 -1.528e-05)
(4.8774e-05 -1.5741e-05 -1.5737e-05)
(5.2788e-05 -1.5944e-05 -1.594e-05)
(5.6603e-05 -1.5859e-05 -1.5855e-05)
(6.015e-05 -1.5457e-05 -1.5453e-05)
(6.3371e-05 -1.4719e-05 -1.4715e-05)
(6.6223e-05 -1.3656e-05 -1.3652e-05)
(6.8667e-05 -1.2305e-05 -1.2301e-05)
(7.0667e-05 -1.0728e-05 -1.0725e-05)
(7.2185e-05 -9.001e-06 -8.9981e-06)
(7.3185e-05 -7.2071e-06 -7.2047e-06)
(3.6335e-05 -7.0489e-06 -7.0447e-06)
(4.0473e-05 -7.4926e-06 -7.488e-06)
(4.4636e-05 -7.84e-06 -7.8351e-06)
(4.8758e-05 -8.0737e-06 -8.0685e-06)
(5.2761e-05 -8.1768e-06 -8.1715e-06)
(5.6568e-05 -8.1324e-06 -8.127e-06)
(6.0107e-05 -7.9249e-06 -7.9196e-06)
(6.3323e-05 -7.5462e-06 -7.541e-06)
(6.617e-05 -7.0012e-06 -6.9963e-06)
(6.8609e-05 -6.3093e-06 -6.3047e-06)
(7.0604e-05 -5.5017e-06 -5.4976e-06)
(7.2118e-05 -4.6176e-06 -4.614e-06)
(7.3115e-05 -3.6991e-06 -3.696e-06)
(3.6339e-05 -5.8918e-11 5.106e-09)
(4.0474e-05 -1.3738e-10 5.4694e-09)
(4.4634e-05 -2.0675e-10 5.7762e-09)
(4.8753e-05 -2.5997e-10 6.0099e-09)
(5.2752e-05 -2.9416e-10 6.1543e-09)
(5.6556e-05 -3.0758e-10 6.1956e-09)
(6.0092e-05 -3.0073e-10 6.1252e-09)
(6.3306e-05 -2.7919e-10 5.9393e-09)
(6.6152e-05 -2.5176e-10 5.6389e-09)
(6.859e-05 -2.2459e-10 5.2319e-09)
(7.0583e-05 -1.9821e-10 4.7335e-09)
(7.2095e-05 -1.7044e-10 4.1654e-09)
(7.3091e-05 -1.3929e-10 3.5522e-09)
(3.6335e-05 7.0507e-06 7.0549e-06)
(4.0473e-05 7.4943e-06 7.4989e-06)
(4.4636e-05 7.8417e-06 7.8466e-06)
(4.8758e-05 8.0753e-06 8.0805e-06)
(5.2761e-05 8.1785e-06 8.1838e-06)
(5.6568e-05 8.134e-06 8.1394e-06)
(6.0107e-05 7.9264e-06 7.9318e-06)
(6.3323e-05 7.5477e-06 7.5529e-06)
(6.617e-05 7.0026e-06 7.0076e-06)
(6.8609e-05 6.3105e-06 6.3152e-06)
(7.0604e-05 5.5028e-06 5.5071e-06)
(7.2118e-05 4.6185e-06 4.6224e-06)
(7.3114e-05 3.6999e-06 3.7032e-06)
(3.6325e-05 1.3747e-05 1.3741e-05)
(4.047e-05 1.4613e-05 1.4607e-05)
(4.4642e-05 1.5292e-05 1.5285e-05)
(4.8774e-05 1.5749e-05 1.5742e-05)
(5.2788e-05 1.5952e-05 1.5945e-05)
(5.6603e-05 1.5867e-05 1.5861e-05)
(6.015e-05 1.5464e-05 1.5458e-05)
(6.3371e-05 1.4727e-05 1.4721e-05)
(6.6223e-05 1.3663e-05 1.3658e-05)
(6.8667e-05 1.2311e-05 1.2307e-05)
(7.0667e-05 1.0733e-05 1.073e-05)
(7.2185e-05 9.0055e-06 9.0027e-06)
(7.3185e-05 7.2107e-06 7.2088e-06)
(3.6308e-05 1.9965e-05 1.9954e-05)
(4.0465e-05 2.1227e-05 2.1215e-05)
(4.4651e-05 2.2216e-05 2.2204e-05)
(4.88e-05 2.2884e-05 2.2871e-05)
(5.2831e-05 2.3184e-05 2.3171e-05)
(5.6661e-05 2.3066e-05 2.3054e-05)
(6.0219e-05 2.2485e-05 2.2473e-05)
(6.345e-05 2.1414e-05 2.1403e-05)
(6.6309e-05 1.9866e-05 1.9855e-05)
(6.8761e-05 1.7896e-05 1.7887e-05)
(7.0768e-05 1.5596e-05 1.5588e-05)
(7.2293e-05 1.3077e-05 1.3071e-05)
(7.3298e-05 1.0462e-05 1.0457e-05)
(3.6276e-05 2.7802e-05 2.7797e-05)
(4.0454e-05 2.9567e-05 2.9562e-05)
(4.4669e-05 3.0952e-05 3.0947e-05)
(4.885e-05 3.1891e-05 3.1886e-05)
(5.2914e-05 3.2322e-05 3.2316e-05)
(5.6774e-05 3.2174e-05 3.2169e-05)
(6.0355e-05 3.1378e-05 3.1373e-05)
(6.3603e-05 2.9891e-05 2.9886e-05)
(6.6477e-05 2.7728e-05 2.7724e-05)
(6.8944e-05 2.4971e-05 2.4967e-05)
(7.0966e-05 2.1746e-05 2.1743e-05)
(7.2505e-05 1.8214e-05 1.8212e-05)
(7.3521e-05 1.4548e-05 1.4547e-05)
(3.6273e-05 -2.0573e-05 -3.4646e-05)
(4.0453e-05 -2.1879e-05 -3.6849e-05)
(4.4671e-05 -2.2904e-05 -3.8578e-05)
(4.8856e-05 -2.3599e-05 -3.9751e-05)
(5.2923e-05 -2.3918e-05 -4.0291e-05)
(5.6785e-05 -2.3809e-05 -4.011e-05)
(6.0369e-05 -2.3221e-05 -3.912e-05)
(6.3618e-05 -2.2121e-05 -3.7266e-05)
(6.6494e-05 -2.0521e-05 -3.4569e-05)
(6.8962e-05 -1.848e-05 -3.1128e-05)
(7.0986e-05 -1.6093e-05 -2.7104e-05)
(7.2526e-05 -1.3479e-05 -2.2696e-05)
(7.3544e-05 -1.0765e-05 -1.8122e-05)
(3.6305e-05 -1.324e-05 -2.6478e-05)
(4.0464e-05 -1.4077e-05 -2.8154e-05)
(4.4653e-05 -1.4733e-05 -2.9467e-05)
(4.8805e-05 -1.5176e-05 -3.0354e-05)
(5.2839e-05 -1.5375e-05 -3.0754e-05)
(5.6672e-05 -1.5298e-05 -3.06e-05)
(6.0233e-05 -1.4913e-05 -2.9831e-05)
(6.3465e-05 -1.4203e-05 -2.841e-05)
(6.6326e-05 -1.3176e-05 -2.6356e-05)
(6.8779e-05 -1.187e-05 -2.3741e-05)
(7.0788e-05 -1.0343e-05 -2.0687e-05)
(7.2314e-05 -8.6721e-06 -1.7343e-05)
(7.332e-05 -6.9369e-06 -1.3871e-05)
(3.6322e-05 -6.8222e-06 -2.0452e-05)
(4.0469e-05 -7.2524e-06 -2.1742e-05)
(4.4644e-05 -7.5893e-06 -2.2753e-05)
(4.8779e-05 -7.8163e-06 -2.3434e-05)
(5.2796e-05 -7.9174e-06 -2.3737e-05)
(5.6615e-05 -7.8758e-06 -2.3613e-05)
(6.0164e-05 -7.6761e-06 -2.3014e-05)
(6.3387e-05 -7.31e-06 -2.1917e-05)
(6.624e-05 -6.782e-06 -2.0333e-05)
(6.8686e-05 -6.1109e-06 -1.8321e-05)
(7.0687e-05 -5.3273e-06 -1.5971e-05)
(7.2206e-05 -4.4694e-06 -1.3398e-05)
(7.3207e-05 -3.5782e-06 -1.0725e-05)
(3.6332e-05 7.4123e-09 -1.3954e-05)
(4.0472e-05 7.8113e-09 -1.4833e-05)
(4.4638e-05 8.1161e-09 -1.5521e-05)
(4.8764e-05 8.3129e-09 -1.5984e-05)
(5.277e-05 8.3843e-09 -1.6189e-05)
(5.6579e-05 8.3129e-09 -1.6101e-05)
(6.0121e-05 8.0842e-09 -1.5691e-05)
(6.3339e-05 7.688e-09 -1.4942e-05)
(6.6188e-05 7.1218e-09 -1.3862e-05)
(6.8629e-05 6.3997e-09 -1.2492e-05)
(7.0625e-05 5.5546e-09 -1.0892e-05)
(7.214e-05 4.6327e-09 -9.1404e-06)
(7.3138e-05 3.6837e-09 -7.3208e-06)
(3.6335e-05 7.0526e-06 -7.0485e-06)
(4.0473e-05 7.4964e-06 -7.492e-06)
(4.4636e-05 7.8439e-06 -7.8393e-06)
(4.8758e-05 8.0776e-06 -8.0728e-06)
(5.2761e-05 8.1807e-06 -8.1758e-06)
(5.6568e-05 8.1362e-06 -8.1313e-06)
(6.0107e-05 7.9286e-06 -7.9238e-06)
(6.3323e-05 7.5498e-06 -7.545e-06)
(6.617e-05 7.0045e-06 -7e-06)
(6.8609e-05 6.3122e-06 -6.308e-06)
(7.0604e-05 5.5043e-06 -5.5005e-06)
(7.2118e-05 4.6198e-06 -4.6164e-06)
(7.3115e-05 3.7008e-06 -3.6979e-06)
(3.6332e-05 1.3957e-05 7.2792e-09)
(4.0472e-05 1.4836e-05 7.781e-09)
(4.4638e-05 1.5524e-05 8.1944e-09)
(4.8763e-05 1.5988e-05 8.4983e-09)
(5.277e-05 1.6192e-05 8.6726e-09)
(5.6579e-05 1.6105e-05 8.6996e-09)
(6.0121e-05 1.5695e-05 8.5664e-09)
(6.3339e-05 1.4945e-05 8.2673e-09)
(6.6187e-05 1.3866e-05 7.805e-09)
(6.8629e-05 1.2495e-05 7.1933e-09)
(7.0625e-05 1.0895e-05 6.4569e-09)
(7.214e-05 9.1432e-06 5.6284e-09)
(7.3138e-05 7.3231e-06 4.7434e-09)
(3.6322e-05 2.0461e-05 6.8365e-06)
(4.0469e-05 2.1751e-05 7.2675e-06)
(4.4644e-05 2.2762e-05 7.6051e-06)
(4.8779e-05 2.3444e-05 7.8326e-06)
(5.2796e-05 2.3747e-05 7.9339e-06)
(5.6615e-05 2.3623e-05 7.8922e-06)
(6.0164e-05 2.3024e-05 7.6922e-06)
(6.3387e-05 2.1926e-05 7.3255e-06)
(6.624e-05 2.0342e-05 6.7964e-06)
(6.8686e-05 1.8329e-05 6.1241e-06)
(7.0687e-05 1.5978e-05 5.339e-06)
(7.2206e-05 1.3404e-05 4.4794e-06)
(7.3207e-05 1.073e-05 3.5865e-06)
(3.6305e-05 2.6485e-05 1.3239e-05)
(4.0464e-05 2.8161e-05 1.4076e-05)
(4.4653e-05 2.9475e-05 1.4732e-05)
(4.8805e-05 3.0362e-05 1.5175e-05)
(5.2839e-05 3.0762e-05 1.5375e-05)
(5.6672e-05 3.0608e-05 1.5297e-05)
(6.0232e-05 2.9839e-05 1.4913e-05)
(6.3465e-05 2.8418e-05 1.4203e-05)
(6.6326e-05 2.6363e-05 1.3176e-05)
(6.8779e-05 2.3748e-05 1.1869e-05)
(7.0787e-05 2.0693e-05 1.0343e-05)
(7.2313e-05 1.7348e-05 8.6724e-06)
(7.332e-05 1.3875e-05 6.9374e-06)
(3.6273e-05 3.4646e-05 2.0567e-05)
(4.0453e-05 3.685e-05 2.1873e-05)
(4.4671e-05 3.8579e-05 2.2898e-05)
(4.8856e-05 3.9752e-05 2.3593e-05)
(5.2923e-05 4.0292e-05 2.3912e-05)
(5.6785e-05 4.0111e-05 2.3803e-05)
(6.0369e-05 3.9121e-05 2.3215e-05)
(6.3618e-05 3.7267e-05 2.2116e-05)
(6.6494e-05 3.457e-05 2.0516e-05)
(6.8961e-05 3.1129e-05 1.8476e-05)
(7.0985e-05 2.7105e-05 1.609e-05)
(7.2526e-05 2.2697e-05 1.3476e-05)
(7.3543e-05 1.8123e-05 1.0763e-05)
(3.6263e-05 -1.3164e-05 -4.0921e-05)
(4.0451e-05 -1.4e-05 -4.353e-05)
(4.4677e-05 -1.4657e-05 -4.558e-05)
(4.8872e-05 -1.5103e-05 -4.6973e-05)
(5.2948e-05 -1.5309e-05 -4.7618e-05)
(5.6819e-05 -1.5242e-05 -4.7413e-05)
(6.0409e-05 -1.4868e-05 -4.6249e-05)
(6.3663e-05 -1.4165e-05 -4.406e-05)
(6.6543e-05 -1.314e-05 -4.0869e-05)
(6.9014e-05 -1.1832e-05 -3.6794e-05)
(7.1043e-05 -1.0302e-05 -3.2027e-05)
(7.2587e-05 -8.6252e-06 -2.6806e-05)
(7.3608e-05 -6.8856e-06 -2.1388e-05)
(3.6296e-05 -6.5182e-06 -3.264e-05)
(4.0461e-05 -6.9308e-06 -3.471e-05)
(4.4659e-05 -7.2544e-06 -3.6333e-05)
(4.882e-05 -7.4732e-06 -3.7431e-05)
(5.2863e-05 -7.5721e-06 -3.7929e-05)
(5.6705e-05 -7.5351e-06 -3.7745e-05)
(6.0272e-05 -7.3464e-06 -3.6801e-05)
(6.3509e-05 -6.9971e-06 -3.5051e-05)
(6.6374e-05 -6.4911e-06 -3.2515e-05)
(6.8831e-05 -5.8467e-06 -2.9286e-05)
(7.0844e-05 -5.0938e-06 -2.5512e-05)
(7.2374e-05 -4.2695e-06 -2.138e-05)
(7.3383e-05 -3.4137e-06 -1.709e-05)
(3.6312e-05 1.5896e-08 -2.6782e-05)
(4.0466e-05 1.684e-08 -2.8475e-05)
(4.465e-05 1.7573e-08 -2.9801e-05)
(4.8795e-05 1.8056e-08 -3.0697e-05)
(5.2822e-05 1.8249e-08 -3.1098e-05)
(5.6649e-05 1.811e-08 -3.094e-05)
(6.0205e-05 1.7614e-08 -3.016e-05)
(6.3433e-05 1.6747e-08 -2.8723e-05)
(6.6291e-05 1.5512e-08 -2.6647e-05)
(6.8741e-05 1.394e-08 -2.4006e-05)
(7.0747e-05 1.2104e-08 -2.0922e-05)
(7.227e-05 1.0103e-08 -1.7545e-05)
(7.3274e-05 8.0384e-09 -1.4038e-05)
(3.6322e-05 6.8367e-06 -2.0459e-05)
(4.0469e-05 7.2676e-06 -2.175e-05)
(4.4644e-05 7.6051e-06 -2.2761e-05)
(4.8779e-05 7.8325e-06 -2.3442e-05)
(5.2796e-05 7.9337e-06 -2.3745e-05)
(5.6615e-05 7.892e-06 -2.3621e-05)
(6.0164e-05 7.6919e-06 -2.3022e-05)
(6.3387e-05 7.325e-06 -2.1924e-05)
(6.624e-05 6.7958e-06 -2.034e-05)
(6.8686e-05 6.1233e-06 -1.8327e-05)
(7.0687e-05 5.338e-06 -1.5976e-05)
(7.2206e-05 4.4783e-06 -1.3403e-05)
(7.3207e-05 3.5853e-06 -1.0729e-05)
(3.6325e-05 1.374e-05 -1.3746e-05)
(4.047e-05 1.4606e-05 -1.4612e-05)
(4.4642e-05 1.5284e-05 -1.5291e-05)
(4.8774e-05 1.5741e-05 -1.5748e-05)
(5.2788e-05 1.5944e-05 -1.5951e-05)
(5.6603e-05 1.5859e-05 -1.5866e-05)
(6.015e-05 1.5457e-05 -1.5463e-05)
(6.3371e-05 1.4719e-05 -1.4725e-05)
(6.6223e-05 1.3656e-05 -1.3661e-05)
(6.8667e-05 1.2305e-05 -1.231e-05)
(7.0667e-05 1.0728e-05 -1.0732e-05)
(7.2185e-05 9.0009e-06 -9.0042e-06)
(7.3185e-05 7.207e-06 -7.2095e-06)
(3.6322e-05 2.0454e-05 -6.8251e-06)
(4.0469e-05 2.1744e-05 -7.2552e-06)
(4.4644e-05 2.2755e-05 -7.5922e-06)
(4.8779e-05 2.3436e-05 -7.8192e-06)
(5.2796e-05 2.3739e-05 -7.9202e-06)
(5.6615e-05 2.3615e-05 -7.8785e-06)
(6.0164e-05 2.3017e-05 -7.6787e-06)
(6.3387e-05 2.1919e-05 -7.3123e-06)
(6.624e-05 2.0335e-05 -6.7839e-06)
(6.8686e-05 1.8323e-05 -6.1125e-06)
(7.0687e-05 1.5973e-05 -5.3285e-06)
(7.2206e-05 1.34e-05 -4.4702e-06)
(7.3207e-05 1.0727e-05 -3.5786e-06)
(3.6312e-05 2.6783e-05 1.4547e-08)
(4.0466e-05 2.8476e-05 1.5509e-08)
(4.465e-05 2.9802e-05 1.6279e-08)
(4.8795e-05 3.0698e-05 1.682e-08)
(5.2822e-05 3.1099e-05 1.7091e-08)
(5.6649e-05 3.0941e-05 1.7057e-08)
(6.0205e-05 3.0161e-05 1.6698e-08)
(6.3433e-05 2.8724e-05 1.6006e-08)
(6.6291e-05 2.6648e-05 1.4987e-08)
(6.8741e-05 2.4008e-05 1.367e-08)
(7.0747e-05 2.0924e-05 1.2113e-08)
(7.227e-05 1.7546e-05 1.0391e-08)
(7.3274e-05 1.4039e-05 8.5773e-09)
(3.6296e-05 3.2642e-05 6.5386e-06)
(4.0461e-05 3.4712e-05 6.9525e-06)
(4.4659e-05 3.6335e-05 7.2771e-06)
(4.882e-05 3.7433e-05 7.4966e-06)
(5.2863e-05 3.7931e-05 7.5958e-06)
(5.6704e-05 3.7748e-05 7.5587e-06)
(6.0271e-05 3.6803e-05 7.3695e-06)
(6.3509e-05 3.5053e-05 7.0191e-06)
(6.6374e-05 3.2517e-05 6.5117e-06)
(6.8831e-05 2.9288e-05 5.8654e-06)
(7.0844e-05 2.5514e-05 5.1103e-06)
(7.2373e-05 2.1382e-05 4.2835e-06)
(7.3383e-05 1.7091e-05 3.4252e-06)
(3.6264e-05 4.092e-05 1.3167e-05)
(4.0451e-05 4.3529e-05 1.4004e-05)
(4.4677e-05 4.5579e-05 1.4661e-05)
(4.8871e-05 4.6972e-05 1.5107e-05)
(5.2948e-05 4.7617e-05 1.5313e-05)
(5.6819e-05 4.7412e-05 1.5246e-05)
(6.0409e-05 4.6249e-05 1.4871e-05)
(6.3663e-05 4.406e-05 1.4168e-05)
(6.6542e-05 4.0868e-05 1.3144e-05)
(6.9014e-05 3.6793e-05 1.1836e-05)
(7.1042e-05 3.2026e-05 1.0305e-05)