/*--------------------------------*- C++ -*----------------------------------*\
| =========                 |                                                 |
| \\      /  F ield         | foam-extend: Open Source CFD                    |
|  \\    /   O peration     | Version:     4.1-20200408                       |
|   \\  /    A nd           | Web:         http://www.foam-extend.org         |
|    \\/     M anipulation  |                                                 |
\*---------------------------------------------------------------------------*/
FoamFile
{
    version     2.0;
    format      ascii;
    class       volScalarField;
    location    "0.0915000";
    object      epsilonTrueEq;
}
// * * * * * * * * * * * * * * * * * * * * * * * * * * * * * * * * * * * * * //

dimensions      [0 0 0 0 0 0 0];

internalField   nonuniform List<scalar> 
1952
(
0.0945145
0.0945712
0.0946453
0.094728
0.0948022
0.0948565
0.0948695
0.09482
0.0946827
0.09443
0.0940467
0.0935073
0.0929125
0.0923772
0.0921005
0.0944882
0.0945591
0.0946161
0.0946889
0.0947726
0.0948447
0.0949008
0.0949115
0.0948654
0.0947267
0.0944791
0.0940969
0.0935658
0.092977
0.0924544
0.0921884
0.094533
0.094612
0.094669
0.0947419
0.0948259
0.0948982
0.094955
0.0949663
0.094921
0.0947831
0.0945367
0.0941554
0.0936247
0.0930351
0.0925084
0.092231
0.0945858
0.0946687
0.0947259
0.0947989
0.094883
0.0949556
0.095013
0.0950248
0.0949802
0.094843
0.0945973
0.0942164
0.0936856
0.093095
0.0925662
0.0922845
0.0946426
0.0947303
0.0947876
0.0948608
0.0949451
0.095018
0.0950758
0.0950881
0.0950439
0.0949071
0.0946614
0.0942803
0.0937482
0.0931557
0.0926233
0.0923361
0.0947041
0.0947952
0.0948525
0.0949258
0.0950103
0.0950834
0.0951413
0.0951539
0.0951099
0.0949731
0.0947272
0.0943453
0.0938118
0.093217
0.0926819
0.0923911
0.094769
0.0948626
0.0949199
0.0949934
0.095078
0.0951512
0.0952093
0.0952219
0.0951778
0.0950406
0.094794
0.0944109
0.0938758
0.0932791
0.0927412
0.0924472
0.0948364
0.094932
0.0949894
0.0950628
0.0951474
0.0952206
0.0952784
0.0952909
0.0952465
0.0951089
0.0948616
0.0944773
0.0939406
0.0933418
0.0928016
0.0925052
0.0949058
0.0950025
0.0950598
0.0951333
0.0952177
0.0952909
0.0953488
0.095361
0.0953161
0.0951778
0.0949295
0.094544
0.0940057
0.0934048
0.0928628
0.0925643
0.0949763
0.0950741
0.0951313
0.0952047
0.095289
0.095362
0.0954195
0.0954314
0.095386
0.0952471
0.0949976
0.0946107
0.0940709
0.0934684
0.0929249
0.0926248
0.0950478
0.0951459
0.0952031
0.0952764
0.0953605
0.0954334
0.0954904
0.0955018
0.0954558
0.095316
0.0950657
0.0946776
0.0941365
0.0935326
0.0929879
0.0926864
0.0951197
0.0952178
0.0952748
0.0953481
0.0954319
0.0955045
0.0955611
0.0955722
0.0955256
0.0953852
0.0951339
0.0947447
0.0942024
0.0935973
0.0930516
0.0927489
0.0951916
0.0952895
0.0953464
0.0954195
0.0955031
0.0955754
0.0956317
0.0956424
0.0955952
0.0954541
0.0952021
0.094812
0.0942687
0.0936625
0.0931157
0.092812
0.0952633
0.0953607
0.0954175
0.0954905
0.0955738
0.095646
0.0957019
0.0957123
0.0956646
0.095523
0.0952703
0.0948793
0.0943352
0.093728
0.0931804
0.0928756
0.0953346
0.0954313
0.095488
0.0955609
0.095644
0.095716
0.0957716
0.0957817
0.0957337
0.0955915
0.0953383
0.0949465
0.0944018
0.0937935
0.0932452
0.0929398
0.0954052
0.095501
0.0955576
0.0956306
0.0957135
0.0957855
0.0958408
0.0958507
0.0958024
0.0956598
0.0954059
0.0950134
0.094468
0.0938593
0.0933104
0.0930043
0.0954748
0.0955699
0.0956264
0.0956994
0.0957821
0.0958541
0.095909
0.0959188
0.0958702
0.0957274
0.0954733
0.0950803
0.0945345
0.0939249
0.0933761
0.0930696
0.0955437
0.0956372
0.0956938
0.0957668
0.0958494
0.0959215
0.0959766
0.0959863
0.0959377
0.0957947
0.0955401
0.0951466
0.0946007
0.0939908
0.0934421
0.0931353
0.0956111
0.0957036
0.0957601
0.0958333
0.0959159
0.0959881
0.0960428
0.0960526
0.096004
0.095861
0.0956067
0.095213
0.094667
0.0940574
0.0935087
0.0932018
0.0956774
0.095768
0.0958245
0.0958978
0.0959804
0.096053
0.096108
0.0961182
0.0960697
0.0959268
0.0956732
0.0952798
0.0947343
0.0941241
0.0935755
0.0932687
0.0957418
0.0958309
0.0958875
0.0959611
0.0960438
0.0961168
0.0961723
0.0961833
0.0961354
0.0959929
0.0957393
0.0953459
0.0948009
0.0941907
0.0936428
0.0933361
0.0958046
0.0958923
0.0959491
0.0960232
0.0961062
0.09618
0.0962354
0.096247
0.0961997
0.0960578
0.0958051
0.0954119
0.0948676
0.094258
0.0937111
0.0934049
0.0958659
0.0959518
0.0960089
0.0960835
0.0961669
0.0962414
0.0962974
0.09631
0.0962633
0.096122
0.0958707
0.0954782
0.0949349
0.0943259
0.0937802
0.0934745
0.0959253
0.09601
0.0960672
0.0961425
0.0962261
0.0963016
0.0963584
0.0963722
0.0963264
0.0961859
0.0959362
0.0955446
0.0950025
0.0943946
0.0938501
0.0935449
0.0959834
0.0960668
0.0961242
0.0962002
0.0962843
0.0963609
0.0964185
0.0964335
0.0963889
0.0962497
0.0960018
0.0956114
0.0950709
0.0944638
0.0939207
0.0936163
0.09604
0.0961225
0.0961802
0.0962569
0.0963414
0.0964192
0.0964779
0.0964945
0.0964513
0.0963137
0.0960673
0.0956781
0.0951397
0.0945336
0.093992
0.0936885
0.0960955
0.0961776
0.0962356
0.0963131
0.0963982
0.0964772
0.0965366
0.0965547
0.096513
0.0963771
0.0961328
0.095745
0.0952088
0.0946041
0.0940644
0.093762
0.0961505
0.0962325
0.0962906
0.096369
0.0964543
0.0965347
0.0965949
0.0966145
0.0965743
0.0964401
0.0961981
0.0958119
0.0952784
0.0946749
0.0941377
0.093837
0.0962052
0.096288
0.0963461
0.0964251
0.0965106
0.096592
0.0966529
0.0966741
0.0966354
0.0965031
0.0962631
0.0958785
0.0953478
0.0947463
0.0942124
0.0939138
0.0962605
0.0963447
0.0964026
0.0964822
0.0965675
0.0966499
0.0967109
0.0967332
0.0966958
0.0965651
0.0963279
0.0959451
0.0954177
0.0948189
0.0942887
0.093993
0.0963172
0.0964035
0.0964609
0.0965406
0.0966252
0.0967082
0.0967692
0.0967926
0.0967562
0.0966271
0.0963928
0.0960122
0.0954887
0.0948928
0.0943668
0.0940745
0.096376
0.0964659
0.0965223
0.096602
0.0966852
0.0967682
0.0968288
0.0968528
0.0968172
0.0966894
0.0964579
0.0960794
0.0955603
0.0949673
0.0944466
0.0941586
0.0964385
0.0965337
0.0965887
0.0966679
0.0967491
0.0968316
0.0968907
0.0969146
0.0968792
0.0967523
0.096523
0.0961465
0.0956322
0.0950429
0.0945285
0.094246
0.0965064
0.0966095
0.0966626
0.0967406
0.0968189
0.0968998
0.096956
0.0969787
0.0969425
0.0968156
0.0965885
0.0962137
0.0957046
0.0951198
0.0946128
0.0943367
0.0965827
0.0966966
0.0967469
0.0968228
0.0968968
0.0969747
0.0970267
0.0970468
0.0970082
0.0968803
0.0966548
0.0962814
0.0957779
0.0951976
0.0946991
0.0944309
0.0966703
0.0967991
0.0968456
0.0969181
0.0969861
0.0970593
0.0971053
0.0971209
0.0970781
0.0969475
0.0967221
0.0963492
0.0958513
0.095276
0.0947872
0.0945286
0.0967737
0.0969222
0.0969638
0.0970315
0.0970915
0.0971577
0.0971946
0.0972032
0.0971535
0.0970179
0.0967909
0.096417
0.0959245
0.0953544
0.0948769
0.0946298
0.0968981
0.0970717
0.0971069
0.0971681
0.0972175
0.097274
0.0972988
0.097297
0.097237
0.0970934
0.0968621
0.0964853
0.0959975
0.0954319
0.0949675
0.0947345
0.0970493
0.0972546
0.0972818
0.0973344
0.0973706
0.097414
0.0974229
0.0974068
0.0973321
0.0971764
0.0969366
0.0965537
0.096069
0.0955074
0.0950581
0.0948422
0.0972343
0.0974787
0.0974963
0.097538
0.0975578
0.0975845
0.0975727
0.0975375
0.0974426
0.0972699
0.0970167
0.0966235
0.096139
0.09558
0.095148
0.0949525
0.0974611
0.097752
0.0977581
0.0977866
0.0977867
0.0977928
0.0977558
0.0976963
0.097575
0.097379
0.0971061
0.0966969
0.0962083
0.0956487
0.0952353
0.0950632
0.0977376
0.0980829
0.0980761
0.098089
0.0980665
0.0980477
0.0979809
0.0978918
0.0977372
0.0975111
0.0972102
0.0967777
0.096278
0.0957129
0.0953176
0.0951711
0.0980723
0.0984792
0.0984582
0.0984537
0.0984059
0.0983591
0.0982579
0.098134
0.0979394
0.0976758
0.0973377
0.0968722
0.0963511
0.0957704
0.0953889
0.0952709
0.0984729
0.0989473
0.0989114
0.0988882
0.0988135
0.0987364
0.0985977
0.0984351
0.0981948
0.0978876
0.0975015
0.096992
0.096435
0.0958221
0.0954407
0.0953526
0.0989456
0.0994917
0.0994406
0.0993983
0.0992962
0.0991876
0.0990097
0.0988064
0.0985171
0.0981634
0.0977229
0.0971628
0.0965585
0.0958965
0.0954936
0.0954155
0.0994947
0.100112
0.100046
0.099985
0.0998561
0.0997164
0.0994997
0.0992561
0.098918
0.0985187
0.0980242
0.0974175
0.0967682
0.0960592
0.0956261
0.0955135
0.10012
0.100804
0.100724
0.100644
0.10049
0.100319
0.100066
0.0997832
0.0993976
0.0989557
0.0984085
0.0977616
0.0970721
0.0963234
0.0958628
0.0956836
0.100816
0.101556
0.101462
0.101365
0.101187
0.100987
0.100698
0.100378
0.0999451
0.0994601
0.0988551
0.0981639
0.0974186
0.096609
0.0960995
0.0958213
0.101572
0.102349
0.102243
0.10213
0.10193
0.101703
0.101382
0.101024
0.100544
0.100013
0.0993411
0.0985965
0.0977686
0.0968733
0.0962986
0.0959143
0.102369
0.10316
0.103044
0.102916
0.102696
0.102444
0.102093
0.101701
0.101175
0.100593
0.0998486
0.0990408
0.0980992
0.0971053
0.0964569
0.0959326
0.103184
0.103958
0.103833
0.103692
0.103456
0.103181
0.102805
0.102381
0.101814
0.101181
0.100362
0.09948
0.0983984
0.0973082
0.0965481
0.09577
0.103985
0.104709
0.104575
0.104423
0.104173
0.103878
0.103482
0.103031
0.102427
0.101745
0.100858
0.0998994
0.0986825
0.0974995
0.0964613
0.0952274
0.104739
0.105373
0.10523
0.105067
0.104803
0.104487
0.104073
0.1036
0.102968
0.102251
0.101322
0.100312
0.0989847
0.0976037
0.0959739
0.0940384
0.105406
0.105902
0.105751
0.105575
0.105297
0.104964
0.104546
0.104072
0.10344
0.102702
0.101709
0.100603
0.0990848
0.0972951
0.0948499
0.0920659
0.105937
0.106265
0.106114
0.105939
0.105667
0.105331
0.104894
0.104385
0.103718
0.102906
0.101745
0.100373
0.0984705
0.0961706
0.0929665
0.0893963
0.106301
0.106471
0.106307
0.106114
0.105823
0.105444
0.104906
0.104241
0.103395
0.10236
0.100941
0.0992121
0.0968709
0.0940937
0.0903186
0.0861661
0.106508
0.106337
0.106107
0.10581
0.105386
0.104836
0.104103
0.103199
0.102084
0.100752
0.099052
0.0969923
0.0943017
0.091138
0.0869858
0.0824837
0.106395
0.105352
0.105011
0.104544
0.103909
0.103115
0.102141
0.100987
0.0996211
0.0980278
0.0960944
0.0937795
0.0908583
0.0874416
0.0831261
0.0785224
0.105452
0.103
0.102546
0.101912
0.10108
0.100073
0.0988926
0.0975391
0.0959938
0.0942247
0.0921502
0.0896879
0.0866704
0.0831519
0.0788775
0.074399
0.103147
0.0989515
0.0984295
0.0976936
0.0967466
0.0956214
0.094335
0.0928904
0.0912776
0.0894489
0.0873461
0.0848524
0.0818652
0.0783837
0.074318
0.0701503
0.0991319
0.0931207
0.0926032
0.0918684
0.0909287
0.0898196
0.0885613
0.0871572
0.085602
0.0838351
0.0818163
0.0794013
0.0765542
0.0732279
0.0695059
0.0658024
0.093307
0.0856894
0.0852499
0.0846195
0.0838091
0.082847
0.0817474
0.0805088
0.0791253
0.0775281
0.0756901
0.073449
0.0708328
0.0677616
0.0644952
0.0613851
0.0858499
0.0770498
0.0767411
0.0762898
0.0756972
0.0749776
0.074132
0.0731513
0.0720239
0.0706769
0.0690923
0.0671005
0.0647873
0.0620557
0.0593385
0.056929
0.0771593
0.067719
0.0675605
0.0673176
0.0669787
0.0665422
0.0659934
0.0653153
0.0644871
0.0634361
0.0621487
0.0604592
0.0585024
0.0561813
0.0540911
0.0524675
0.0677665
0.0582474
0.0582224
0.0581683
0.0580627
0.0578918
0.0576266
0.057245
0.0567152
0.0559689
0.0549916
0.0536336
0.0520672
0.0502131
0.0488092
0.04803
0.058238
0.0491354
0.0491986
0.0492745
0.0493355
0.0493641
0.0493221
0.0491866
0.0489149
0.0484472
0.0477644
0.0467429
0.0455806
0.0442341
0.0435546
0.0436466
0.0490878
0.0407709
0.040863
0.0409897
0.0411258
0.041259
0.0413488
0.0413776
0.0412934
0.0410501
0.0406205
0.0399182
0.0391532
0.0383359
0.0383916
0.0393416
0.0407102
0.0333922
0.0334592
0.0335613
0.0336817
0.0338201
0.0339404
0.0340363
0.0340507
0.0339569
0.0337198
0.0332996
0.0329065
0.0326197
0.033388
0.0351367
0.0333414
0.0270829
0.0270917
0.0271196
0.0271583
0.027222
0.0272831
0.0273515
0.0273703
0.0273397
0.0272209
0.0270296
0.0269675
0.0271912
0.0286132
0.0310525
0.0270559
0.0217951
0.0217416
0.0216825
0.0216136
0.0215599
0.0215027
0.0214697
0.0214099
0.0213568
0.0212759
0.0212478
0.0214606
0.0221488
0.024125
0.0271034
0.021794
0.0173968
0.0173009
0.0171763
0.0170152
0.0168464
0.0166557
0.016486
0.0162945
0.0161508
0.0160319
0.0160913
0.0165051
0.0175736
0.0199546
0.0232888
0.0174138
0.0137331
0.0136247
0.0134737
0.0132641
0.0130201
0.0127254
0.0124298
0.0120979
0.0118321
0.0116234
0.0116948
0.0122135
0.0135243
0.0160975
0.0195791
0.0137567
0.0106468
0.0105466
0.0104016
0.0101881
0.00992279
0.00958217
0.00921426
0.00878995
0.00843767
0.00817117
0.00821505
0.0087308
0.0100724
0.0125502
0.0159405
0.0106694
0.0079832
0.00790565
0.00779399
0.00762535
0.00741326
0.00713299
0.00682546
0.00647179
0.00619499
0.00600333
0.00605779
0.00645109
0.00745138
0.00944655
0.0124665
0.00800153
0.00599655
0.00594274
0.00586919
0.0057617
0.00563588
0.00547616
0.00531747
0.00514818
0.00504751
0.00499646
0.00511818
0.00538104
0.0059336
0.00715444
0.00947636
0.00601073
0.00483142
0.00478464
0.0047221
0.00463605
0.0045438
0.00443765
0.00435313
0.00428243
0.00428799
0.00434556
0.00455318
0.00484599
0.00530293
0.00591603
0.0072984
0.00484496
0.00394636
0.00390712
0.00385438
0.00378557
0.0037164
0.00364535
0.00360577
0.00359581
0.00366907
0.00380565
0.00407517
0.00441807
0.00491888
0.0053777
0.00609198
0.00395851
0.00316198
0.00313706
0.00310352
0.00306552
0.00303442
0.0030156
0.00303372
0.00309218
0.003225
0.00341891
0.00371647
0.0040669
0.00454052
0.00501663
0.0056017
0.00317078
0.00254855
0.00253756
0.00252165
0.00251207
0.00251378
0.00253914
0.00260188
0.0027111
0.00288318
0.00311309
0.00342038
0.00377412
0.00421376
0.0046679
0.00522487
0.00255416
0.0020504
0.002055
0.00205856
0.00207923
0.002114
0.00218119
0.00228225
0.00243105
0.00262818
0.00287631
0.00317902
0.00352076
0.00392166
0.00434554
0.00483029
0.00205195
0.00166661
0.00168634
0.00170806
0.00175615
0.00181869
0.00191891
0.00204671
0.00222033
0.00242864
0.00268133
0.00297083
0.0032939
0.003656
0.00404025
0.00446892
0.00166389
0.00137197
0.00140617
0.00144468
0.00151679
0.00160179
0.00172658
0.00187151
0.00205853
0.00226839
0.00251626
0.00278735
0.00308672
0.00341035
0.00375305
0.00412431
0.00136475
0.00115322
0.00120013
0.00125268
0.00134356
0.00144435
0.00158462
0.00173781
0.00192883
0.00213333
0.00237036
0.00262062
0.00289447
0.00318207
0.00348435
0.00380571
0.00114168
0.000994048
0.00105114
0.0011144
0.00121831
0.00132871
0.00147682
0.00163172
0.00182032
0.0020153
0.00223811
0.00246682
0.00271489
0.00296911
0.00323381
0.0035105
0.000978679
0.000881997
0.000946113
0.00101634
0.00112759
0.00124218
0.00139201
0.00154394
0.00172579
0.00190889
0.00211582
0.0023234
0.00254664
0.00277069
0.0030015
0.00323955
0.000863672
0.000805763
0.000873583
0.000947195
0.00106086
0.00117543
0.00132258
0.00146848
0.00164097
0.00181109
0.00200162
0.00218909
0.00238903
0.00258606
0.00278677
0.00299148
0.00078558
0.000756397
0.000824845
0.000898743
0.0010109
0.00112236
0.00126378
0.00140173
0.00156336
0.00172017
0.00189447
0.00206317
0.00224162
0.00241464
0.00258891
0.00276504
0.000735503
0.000726618
0.000793194
0.000864965
0.000972737
0.00107895
0.00121263
0.00134153
0.00149156
0.00163519
0.00179384
0.00194521
0.00210407
0.00225588
0.00240712
0.00255889
0.000706018
0.000710759
0.000773666
0.000841597
0.000943024
0.00104259
0.00116729
0.00128657
0.00142474
0.00155562
0.00169938
0.00183489
0.00197601
0.00210915
0.00224034
0.00237133
0.000691211
0.000704372
0.000762496
0.0008255
0.000919383
0.00101147
0.00112652
0.00123599
0.00136236
0.00148106
0.00161083
0.00173188
0.00185704
0.0019738
0.00208767
0.00220101
0.000686356
0.000704007
0.000756801
0.000814309
0.000900043
0.00098426
0.00108941
0.00118912
0.00130399
0.00141117
0.00152789
0.0016358
0.00174663
0.00184903
0.00194793
0.00204631
0.000687762
0.000706995
0.00075433
0.000806166
0.000883603
0.000959889
0.00105519
0.00114542
0.00124923
0.00134561
0.00145021
0.00154622
0.0016442
0.00173398
0.00181993
0.0019056
0.000692579
0.000711305
0.000753337
0.000799601
0.000868919
0.000937462
0.00102321
0.00110438
0.00119769
0.00128402
0.00137744
0.00146269
0.00154917
0.00162791
0.0017027
0.00177764
0.000698658
0.000715426
0.000752482
0.000793457
0.000855057
0.000916224
0.000992889
0.00106551
0.00114899
0.00122603
0.00130919
0.00138473
0.00146095
0.00153002
0.00159516
0.00166104
0.000704421
0.000718274
0.00075077
0.000786847
0.00084127
0.000895542
0.000963712
0.00102837
0.00110272
0.00117124
0.00124505
0.00131189
0.00137897
0.00143957
0.00149642
0.00155466
0.000708751
0.000719112
0.000747499
0.000779122
0.00082698
0.000874912
0.000935245
0.000992586
0.00105854
0.00111931
0.00118463
0.00124369
0.00130265
0.00135589
0.00140561
0.00145742
0.000710904
0.000717481
0.00074221
0.000769837
0.000811768
0.000853945
0.000907136
0.000957818
0.00101613
0.00106989
0.00112757
0.0011797
0.00123148
0.0012783
0.00132189
0.00136829
0.000710423
0.00071314
0.00073464
0.000758722
0.000795357
0.000832368
0.000879113
0.000923796
0.000975207
0.00102269
0.00107351
0.0011195
0.00116496
0.00120622
0.00124456
0.00128643
0.000707078
0.000706014
0.000724685
0.000745646
0.00077759
0.000810007
0.000850988
0.000890311
0.000935537
0.000977424
0.00102215
0.00106274
0.00110264
0.00113909
0.00117293
0.00121103
0.00070081
0.000696157
0.000712359
0.000730593
0.000758408
0.000786774
0.000822638
0.000857215
0.000896939
0.000933888
0.000973216
0.00100908
0.00104414
0.00107644
0.00110644
0.00114136
0.000691688
0.000683713
0.000697771
0.000713635
0.000737835
0.000762652
0.000794004
0.000824408
0.000859269
0.000891888
0.000926474
0.000958243
0.000989092
0.00101788
0.00104464
0.00107693
0.000679871
0.000668893
0.000681094
0.000694907
0.000715956
0.000737682
0.000765074
0.000791833
0.000822421
0.000851268
0.000881708
0.000909941
0.000937163
0.000962961
0.000986975
0.00101708
0.000665584
0.000651951
0.000662546
0.000674591
0.000692901
0.000711947
0.000735881
0.000759472
0.000786323
0.000811904
0.000838737
0.00086394
0.000888052
0.00091134
0.000933057
0.000961377
0.000649095
0.000633176
0.000642382
0.000652905
0.000668837
0.000685568
0.000706487
0.000727337
0.00075093
0.000773698
0.000797408
0.000820031
0.000841487
0.00086268
0.000882485
0.000909363
0.000630703
0.000612872
0.000620876
0.000630089
0.000643959
0.000658688
0.000676983
0.000695468
0.000716227
0.000736581
0.000757595
0.000778034
0.000797241
0.000816705
0.000834944
0.000860689
0.000610725
0.000591358
0.000598319
0.000606402
0.000618477
0.000631476
0.000647484
0.000663925
0.000682218
0.000700504
0.000719197
0.000737801
0.000755117
0.000773181
0.000790167
0.000815061
0.000589488
0.000568962
0.000575014
0.000582115
0.000592623
0.000604116
0.000618121
0.000632789
0.00064893
0.000665443
0.000682135
0.000699204
0.000714942
0.000731892
0.000747904
0.000772196
0.000567331
0.00054602
0.000551272
0.00055751
0.000566637
0.000576806
0.000589045
0.00060216
0.000616408
0.000631389
0.000646349
0.000662136
0.000676569
0.000692659
0.000707953
0.000731873
0.000544596
0.000522874
0.000527414
0.000532882
0.00054078
0.000549764
0.000560426
0.000572157
0.000584718
0.000598354
0.000611799
0.000626508
0.000639866
0.000655313
0.000670127
0.0006939
0.000521632
0.000499872
0.000503771
0.000508537
0.000515324
0.000523222
0.000532454
0.000542918
0.00055395
0.000566372
0.000578465
0.000592246
0.000604713
0.000619695
0.000634242
0.000658067
0.000498795
0.000477372
0.000480684
0.000484793
0.000490559
0.000497436
0.000505343
0.000514608
0.000524217
0.000535499
0.000546348
0.000559297
0.000571015
0.000585678
0.000600165
0.000624253
0.000476448
0.000455736
0.000458503
0.000461981
0.000466794
0.000472679
0.000479336
0.000487422
0.000495668
0.000505821
0.000515476
0.000527626
0.000538681
0.000553123
0.00056774
0.000592285
0.000454958
0.000435329
0.000437587
0.000440446
0.000444358
0.000449254
0.000454707
0.00046159
0.000468493
0.000477463
0.000485915
0.00049722
0.000507631
0.000521894
0.000536815
0.000562023
0.000434695
0.000416518
0.000418296
0.000420541
0.000423595
0.000427489
0.000431771
0.00043739
0.000442939
0.000450608
0.000457786
0.000468107
0.000477805
0.000491841
0.0005072
0.000533273
0.000416025
0.000399657
0.000400987
0.000402622
0.000404866
0.000407738
0.000410881
0.000415158
0.000419327
0.00042552
0.000431298
0.000440394
0.000449202
0.000462845
0.0004787
0.000505805
0.000399303
0.000385083
0.000386003
0.00038704
0.000388535
0.000390379
0.000392435
0.000395292
0.000398065
0.000402573
0.000406794
0.000414307
0.000421927
0.000434858
0.000451155
0.000479375
0.000384865
0.000373097
0.000373657
0.000374126
0.000374956
0.000375795
0.000376854
0.000378253
0.000379661
0.000382279
0.000384785
0.000390247
0.000396225
0.000407876
0.000424312
0.000453613
0.000373007
0.00036394
0.0003642
0.000364154
0.000364432
0.000364338
0.000364548
0.000364526
0.000364689
0.000365293
0.000366005
0.000368883
0.000372612
0.000381978
0.000397666
0.000427841
0.000363964
0.000357739
0.000357769
0.000357284
0.000357148
0.000356244
0.000355814
0.000354518
0.000353692
0.000352351
0.00035143
0.000351371
0.000352383
0.000358078
0.000371301
0.000401368
0.00035786
0.000354479
0.000354364
0.000353538
0.00035316
0.000351623
0.000350836
0.000348531
0.000347153
0.000344224
0.00034228
0.000339568
0.000338293
0.000339545
0.000348513
0.000375698
0.000354672
0.000355321
0.000355127
0.000354052
0.000353565
0.000351563
0.000350639
0.000347593
0.000346014
0.000341918
0.000339529
0.000334791
0.000332016
0.000328883
0.000331587
0.000348417
0.000355566
0.000357321
0.000357103
0.000355931
0.00035542
0.000353232
0.000352286
0.000348936
0.000347318
0.000342725
0.000340189
0.000334539
0.000331119
0.00032577
0.000325008
0.000333116
0.000357586
)
;

boundaryField
{
    wireUpstream
    {
        type            calculated;
        value           nonuniform List<scalar> 
16
(
0.000359664
0.000359456
0.000358207
0.000357746
0.000355398
0.000354549
0.000350919
0.000349428
0.000344345
0.000341861
0.000335254
0.000331377
0.00032381
0.000319847
0.000316857
0.000359943
)
;
    }
    wireDownstream
    {
        type            calculated;
        value           nonuniform List<scalar> 
16
(
0.0945134
0.0945699
0.0946454
0.0947273
0.0948038
0.0948569
0.0948727
0.0948211
0.0946864
0.0944305
0.0940476
0.0935019
0.0929009
0.0923493
0.0920476
0.0944868
)
;
    }
    wireTopContact
    {
        type            calculated;
        value           nonuniform List<scalar> 
122
(
0.0921444
0.0921866
0.0922402
0.0922917
0.0923466
0.0924027
0.0924607
0.0925198
0.0925803
0.0926419
0.0927044
0.0927674
0.0928311
0.0928953
0.0929598
0.093025
0.0930908
0.0931573
0.0932242
0.0932917
0.0933604
0.0934301
0.0935005
0.0935719
0.0936441
0.0937176
0.0937925
0.0938693
0.0939485
0.09403
0.0941142
0.0942016
0.0942924
0.0943868
0.0944846
0.0945861
0.0946912
0.0947996
0.0949108
0.0950227
0.0951322
0.0952347
0.0953207
0.095387
0.0954871
0.0956683
0.0958113
0.0959108
0.0959371
0.095777
0.0952293
0.0940269
0.0920339
0.0893423
0.086091
0.0823812
0.0783916
0.0742412
0.0699654
0.0655918
0.0611524
0.0566798
0.0522103
0.0477742
0.0434031
0.0391209
0.0349478
0.0309022
0.0269956
0.0232253
0.0195589
0.0159568
0.0125068
0.00952214
0.00732103
0.00608426
0.00560241
0.00522999
0.00483442
0.00447256
0.0041272
0.00380819
0.00351266
0.00324152
0.00299334
0.00276681
0.00256064
0.00237301
0.00220265
0.00204791
0.0019071
0.00177906
0.00166234
0.00155584
0.00145847
0.0013692
0.0012872
0.00121166
0.00114185
0.0010773
0.00101731
0.000961484
0.00090934
0.000860539
0.000814791
0.000771806
0.000731367
0.000693286
0.000657344
0.000623437
0.000591384
0.00056106
0.000532276
0.000504825
0.000478484
0.000452922
0.000427611
0.000402104
0.000378078
0.000352326
0.000337145
0.0920528
)
;
    }
    front
    {
        type            wedge;
    }
    back
    {
        type            wedge;
    }
}


// ************************************************************************* //
