/*--------------------------------*- C++ -*----------------------------------*\
| =========                 |                                                 |
| \\      /  F ield         | foam-extend: Open Source CFD                    |
|  \\    /   O peration     | Version:     4.1-20200408                       |
|   \\  /    A nd           | Web:         http://www.foam-extend.org         |
|    \\/     M anipulation  |                                                 |
\*---------------------------------------------------------------------------*/
FoamFile
{
    version     2.0;
    format      ascii;
    class       volScalarField::DimensionedInternalField;
    location    "0.0555000";
    object      V0;
}
// * * * * * * * * * * * * * * * * * * * * * * * * * * * * * * * * * * * * * //

dimensions      [0 3 0 0 0 0 0];

value           nonuniform List<scalar> 
1952
(
1.33913e-14
2.23215e-14
3.1256e-14
4.01943e-14
4.91406e-14
5.80909e-14
6.7053e-14
7.60225e-14
8.50062e-14
9.40059e-14
1.03026e-13
1.12082e-13
1.2117e-13
1.30285e-13
1.39358e-13
4.46354e-15
1.33905e-14
2.23202e-14
3.12542e-14
4.01919e-14
4.91377e-14
5.80875e-14
6.7049e-14
7.6018e-14
8.50011e-14
9.40002e-14
1.0302e-13
1.12075e-13
1.21162e-13
1.30276e-13
1.39348e-13
4.46328e-15
1.33901e-14
2.23194e-14
3.12531e-14
4.01905e-14
4.9136e-14
5.80854e-14
6.70467e-14
7.60153e-14
8.4998e-14
9.39967e-14
1.03016e-13
1.12071e-13
1.21157e-13
1.3027e-13
1.39341e-13
4.46313e-15
1.33886e-14
2.23169e-14
3.12496e-14
4.0186e-14
4.91305e-14
5.80789e-14
6.70391e-14
7.60067e-14
8.49883e-14
9.39858e-14
1.03004e-13
1.12058e-13
1.21143e-13
1.30255e-13
1.39324e-13
4.46263e-15
1.33882e-14
2.23163e-14
3.12487e-14
4.01849e-14
4.91291e-14
5.80772e-14
6.70371e-14
7.60045e-14
8.49857e-14
9.39829e-14
1.03001e-13
1.12054e-13
1.21139e-13
1.3025e-13
1.39319e-13
4.4625e-15
1.33873e-14
2.23148e-14
3.12467e-14
4.01823e-14
4.91259e-14
5.80734e-14
6.70327e-14
7.59994e-14
8.498e-14
9.39765e-14
1.02994e-13
1.12046e-13
1.2113e-13
1.30241e-13
1.39309e-13
4.46221e-15
1.33859e-14
2.23124e-14
3.12434e-14
4.0178e-14
4.91206e-14
5.80672e-14
6.70255e-14
7.59912e-14
8.49707e-14
9.39662e-14
1.02982e-13
1.12034e-13
1.21117e-13
1.30226e-13
1.39293e-13
4.46173e-15
1.33852e-14
2.23113e-14
3.12418e-14
4.01759e-14
4.91181e-14
5.80642e-14
6.70221e-14
7.59874e-14
8.49664e-14
9.39614e-14
1.02977e-13
1.12028e-13
1.2111e-13
1.30219e-13
1.39285e-13
4.46151e-15
1.33842e-14
2.23096e-14
3.12394e-14
4.01729e-14
4.91143e-14
5.80598e-14
6.7017e-14
7.59816e-14
8.49598e-14
9.39541e-14
1.02969e-13
1.12019e-13
1.21101e-13
1.30209e-13
1.39274e-13
4.46117e-15
1.33827e-14
2.23071e-14
3.12359e-14
4.01683e-14
4.91088e-14
5.80532e-14
6.70093e-14
7.59729e-14
8.49501e-14
9.39433e-14
1.02957e-13
1.12006e-13
1.21087e-13
1.30193e-13
1.39258e-13
4.46066e-15
1.3382e-14
2.2306e-14
3.12343e-14
4.01663e-14
4.91063e-14
5.80503e-14
6.7006e-14
7.59691e-14
8.49458e-14
9.39386e-14
1.02952e-13
1.12001e-13
1.21081e-13
1.30187e-13
1.39251e-13
4.46044e-15
1.33809e-14
2.23041e-14
3.12317e-14
4.0163e-14
4.91022e-14
5.80455e-14
6.70005e-14
7.59629e-14
8.49389e-14
9.39309e-14
1.02943e-13
1.11992e-13
1.21071e-13
1.30176e-13
1.39239e-13
4.46007e-15
1.338e-14
2.23027e-14
3.12298e-14
4.01604e-14
4.90991e-14
5.80419e-14
6.69962e-14
7.59581e-14
8.49335e-14
9.3925e-14
1.02937e-13
1.11985e-13
1.21063e-13
1.30168e-13
1.3923e-13
4.45978e-15
1.3379e-14
2.2301e-14
3.12273e-14
4.01573e-14
4.90953e-14
5.80373e-14
6.6991e-14
7.59522e-14
8.49269e-14
9.39177e-14
1.02929e-13
1.11976e-13
1.21054e-13
1.30158e-13
1.39219e-13
4.45943e-15
1.33775e-14
2.22985e-14
3.12239e-14
4.01529e-14
4.909e-14
5.8031e-14
6.69838e-14
7.59441e-14
8.49178e-14
9.39076e-14
1.02918e-13
1.11964e-13
1.21041e-13
1.30144e-13
1.39205e-13
4.45895e-15
1.3377e-14
2.22977e-14
3.12228e-14
4.01515e-14
4.90882e-14
5.8029e-14
6.69815e-14
7.59415e-14
8.49149e-14
9.39044e-14
1.02914e-13
1.1196e-13
1.21037e-13
1.3014e-13
1.392e-13
4.45878e-15
1.33753e-14
2.22949e-14
3.12188e-14
4.01464e-14
4.9082e-14
5.80216e-14
6.69729e-14
7.59318e-14
8.49041e-14
9.38925e-14
1.02901e-13
1.11946e-13
1.21022e-13
1.30123e-13
1.39183e-13
4.45821e-15
1.33748e-14
2.2294e-14
3.12176e-14
4.01449e-14
4.90801e-14
5.80195e-14
6.69705e-14
7.59291e-14
8.49011e-14
9.38892e-14
1.02898e-13
1.11943e-13
1.21018e-13
1.30119e-13
1.39178e-13
4.45804e-15
1.33735e-14
2.22919e-14
3.12146e-14
4.0141e-14
4.90754e-14
5.80139e-14
6.69641e-14
7.59219e-14
8.48931e-14
9.38804e-14
1.02888e-13
1.11932e-13
1.21007e-13
1.30107e-13
1.39165e-13
4.4576e-15
1.33723e-14
2.22899e-14
3.12118e-14
4.01374e-14
4.90711e-14
5.80088e-14
6.69583e-14
7.59154e-14
8.48858e-14
9.38723e-14
1.0288e-13
1.11923e-13
1.20997e-13
1.30096e-13
1.39153e-13
4.45721e-15
1.33713e-14
2.22882e-14
3.12095e-14
4.01345e-14
4.90675e-14
5.80046e-14
6.69534e-14
7.591e-14
8.48798e-14
9.38658e-14
1.02872e-13
1.11915e-13
1.20988e-13
1.30087e-13
1.39144e-13
4.45687e-15
1.33702e-14
2.22863e-14
3.12069e-14
4.01311e-14
4.90634e-14
5.79998e-14
6.69479e-14
7.59038e-14
8.48729e-14
9.38582e-14
1.02864e-13
1.11906e-13
1.20979e-13
1.30077e-13
1.39133e-13
4.45649e-15
1.33691e-14
2.22846e-14
3.12045e-14
4.01281e-14
4.90596e-14
5.79955e-14
6.6943e-14
7.58983e-14
8.48668e-14
9.38515e-14
1.02857e-13
1.11899e-13
1.20971e-13
1.30068e-13
1.39124e-13
4.45615e-15
1.33685e-14
2.22835e-14
3.1203e-14
4.01262e-14
4.90574e-14
5.79929e-14
6.694e-14
7.5895e-14
8.48632e-14
9.38476e-14
1.02853e-13
1.11894e-13
1.20966e-13
1.30063e-13
1.39119e-13
4.45593e-15
1.33669e-14
2.22809e-14
3.11993e-14
4.01215e-14
4.90516e-14
5.79861e-14
6.69323e-14
7.58863e-14
8.48536e-14
9.38371e-14
1.02842e-13
1.11882e-13
1.20953e-13
1.30049e-13
1.39104e-13
4.4554e-15
1.3366e-14
2.22794e-14
3.11972e-14
4.01188e-14
4.90484e-14
5.79824e-14
6.6928e-14
7.58816e-14
8.48484e-14
9.38315e-14
1.02836e-13
1.11876e-13
1.20947e-13
1.30042e-13
1.39097e-13
4.45509e-15
1.33648e-14
2.22775e-14
3.11946e-14
4.01155e-14
4.90444e-14
5.79777e-14
6.69228e-14
7.58758e-14
8.4842e-14
9.38245e-14
1.02828e-13
1.11868e-13
1.20938e-13
1.30033e-13
1.39088e-13
4.45471e-15
1.33631e-14
2.22745e-14
3.11904e-14
4.01102e-14
4.90379e-14
5.79702e-14
6.69142e-14
7.58662e-14
8.48314e-14
9.3813e-14
1.02816e-13
1.11855e-13
1.20924e-13
1.30018e-13
1.39072e-13
4.45412e-15
1.33622e-14
2.22731e-14
3.11885e-14
4.01077e-14
4.9035e-14
5.79668e-14
6.69103e-14
7.58621e-14
8.48269e-14
9.38082e-14
1.02811e-13
1.1185e-13
1.20919e-13
1.30013e-13
1.39067e-13
4.45383e-15
1.33608e-14
2.22709e-14
3.11854e-14
4.01038e-14
4.90301e-14
5.79613e-14
6.69041e-14
7.58551e-14
8.48194e-14
9.38001e-14
1.02802e-13
1.11841e-13
1.2091e-13
1.30003e-13
1.39057e-13
4.45337e-15
1.336e-14
2.22696e-14
3.11836e-14
4.01016e-14
4.90275e-14
5.79583e-14
6.69007e-14
7.58515e-14
8.48156e-14
9.37961e-14
1.02799e-13
1.11837e-13
1.20906e-13
1.3e-13
1.39053e-13
4.45311e-15
1.33581e-14
2.22663e-14
3.1179e-14
4.00958e-14
4.90204e-14
5.79501e-14
6.68914e-14
7.58412e-14
8.48043e-14
9.3784e-14
1.02786e-13
1.11823e-13
1.20892e-13
1.29985e-13
1.39038e-13
4.45245e-15
1.33572e-14
2.22649e-14
3.1177e-14
4.00933e-14
4.90175e-14
5.79468e-14
6.68878e-14
7.58374e-14
8.48003e-14
9.37799e-14
1.02782e-13
1.11819e-13
1.20889e-13
1.29982e-13
1.39036e-13
4.45217e-15
1.33551e-14
2.22615e-14
3.11722e-14
4.00872e-14
4.901e-14
5.79382e-14
6.6878e-14
7.58266e-14
8.47886e-14
9.37673e-14
1.02769e-13
1.11806e-13
1.20875e-13
1.29967e-13
1.39021e-13
4.45147e-15
1.33539e-14
2.22595e-14
3.11694e-14
4.00837e-14
4.90058e-14
5.79334e-14
6.68726e-14
7.58208e-14
8.47825e-14
9.37609e-14
1.02762e-13
1.11799e-13
1.20869e-13
1.29962e-13
1.39017e-13
4.45106e-15
1.33516e-14
2.22558e-14
3.11642e-14
4.00771e-14
4.89977e-14
5.79241e-14
6.68619e-14
7.58091e-14
8.47697e-14
9.37473e-14
1.02748e-13
1.11785e-13
1.20855e-13
1.29947e-13
1.39003e-13
4.45032e-15
1.33503e-14
2.22536e-14
3.11611e-14
4.00733e-14
4.89931e-14
5.79187e-14
6.68559e-14
7.58026e-14
8.47628e-14
9.37402e-14
1.02741e-13
1.11778e-13
1.20849e-13
1.29942e-13
1.38999e-13
4.44988e-15
1.33477e-14
2.22493e-14
3.11551e-14
4.00655e-14
4.89836e-14
5.79077e-14
6.68432e-14
7.57886e-14
8.47474e-14
9.37238e-14
1.02724e-13
1.1176e-13
1.20832e-13
1.29925e-13
1.38983e-13
4.44902e-15
1.33465e-14
2.22473e-14
3.11522e-14
4.00619e-14
4.8979e-14
5.79025e-14
6.68371e-14
7.5782e-14
8.47403e-14
9.37165e-14
1.02717e-13
1.11754e-13
1.20827e-13
1.29921e-13
1.38982e-13
4.44862e-15
1.33437e-14
2.22426e-14
3.11456e-14
4.00535e-14
4.89686e-14
5.78902e-14
6.68227e-14
7.5766e-14
8.47225e-14
9.36973e-14
1.02697e-13
1.11733e-13
1.20807e-13
1.29901e-13
1.38965e-13
4.4477e-15
1.33419e-14
2.22395e-14
3.11411e-14
4.00476e-14
4.89612e-14
5.78814e-14
6.68122e-14
7.57542e-14
8.47091e-14
9.3683e-14
1.02682e-13
1.11718e-13
1.20793e-13
1.29889e-13
1.38956e-13
4.44709e-15
1.3339e-14
2.22347e-14
3.11342e-14
4.00386e-14
4.89497e-14
5.78676e-14
6.67958e-14
7.57355e-14
8.46876e-14
9.36594e-14
1.02657e-13
1.11691e-13
1.20767e-13
1.29864e-13
1.38936e-13
4.44614e-15
1.33372e-14
2.22316e-14
3.11297e-14
4.00325e-14
4.89418e-14
5.78579e-14
6.67836e-14
7.57212e-14
8.46704e-14
9.36401e-14
1.02635e-13
1.11668e-13
1.20745e-13
1.29844e-13
1.38927e-13
4.44554e-15
1.33349e-14
2.22277e-14
3.1124e-14
4.00249e-14
4.89318e-14
5.78455e-14
6.6768e-14
7.57026e-14
8.46477e-14
9.36139e-14
1.02605e-13
1.11634e-13
1.20709e-13
1.29808e-13
1.38904e-13
4.44481e-15
1.33328e-14
2.22241e-14
3.11186e-14
4.00174e-14
4.89219e-14
5.78328e-14
6.67517e-14
7.56828e-14
8.46226e-14
9.35844e-14
1.02569e-13
1.11592e-13
1.20662e-13
1.29754e-13
1.38849e-13
4.44412e-15
1.33311e-14
2.22211e-14
3.11141e-14
4.0011e-14
4.8913e-14
5.78211e-14
6.67361e-14
7.56632e-14
8.4597e-14
9.35535e-14
1.0253e-13
1.11545e-13
1.20604e-13
1.29682e-13
1.38754e-13
4.44358e-15
1.33293e-14
2.22179e-14
3.11091e-14
4.00039e-14
4.89031e-14
5.78079e-14
6.67183e-14
7.56404e-14
8.45668e-14
9.35165e-14
1.02482e-13
1.11487e-13
1.20531e-13
1.2959e-13
1.38635e-13
4.44299e-15
1.33281e-14
2.22157e-14
3.11056e-14
3.99985e-14
4.88952e-14
5.77966e-14
6.67024e-14
7.56192e-14
8.45375e-14
9.34794e-14
1.02431e-13
1.11425e-13
1.20451e-13
1.29491e-13
1.38516e-13
4.44263e-15
1.33281e-14
2.22155e-14
3.11048e-14
3.99964e-14
4.88912e-14
5.77897e-14
6.66912e-14
7.56027e-14
8.45125e-14
9.34462e-14
1.02383e-13
1.11365e-13
1.2037e-13
1.29392e-13
1.38403e-13
4.44266e-15
1.33283e-14
2.22155e-14
3.11043e-14
3.99947e-14
4.88876e-14
5.7783e-14
6.66801e-14
7.55857e-14
8.44867e-14
9.34107e-14
1.0233e-13
1.113e-13
1.20277e-13
1.29284e-13
1.3828e-13
4.44275e-15
1.33303e-14
2.22185e-14
3.11079e-14
3.99983e-14
4.88904e-14
5.77837e-14
6.66774e-14
7.55777e-14
8.44706e-14
9.33846e-14
1.02287e-13
1.11242e-13
1.20187e-13
1.29181e-13
1.38156e-13
4.44344e-15
1.33334e-14
2.22233e-14
3.1114e-14
4.00049e-14
4.88968e-14
5.77885e-14
6.66795e-14
7.55751e-14
8.44621e-14
9.33681e-14
1.02256e-13
1.11192e-13
1.201e-13
1.29076e-13
1.38009e-13
4.44449e-15
1.33378e-14
2.22304e-14
3.11234e-14
4.0016e-14
4.89094e-14
5.78015e-14
6.66922e-14
7.55847e-14
8.44675e-14
9.33663e-14
1.02241e-13
1.11157e-13
1.20024e-13
1.28974e-13
1.37838e-13
4.44601e-15
1.33446e-14
2.22413e-14
3.11381e-14
4.00339e-14
4.89301e-14
5.78237e-14
6.67151e-14
7.56046e-14
8.44826e-14
9.33709e-14
1.02231e-13
1.11125e-13
1.19957e-13
1.28876e-13
1.37662e-13
4.44827e-15
1.33537e-14
2.22562e-14
3.11579e-14
4.00572e-14
4.89555e-14
5.78486e-14
6.67379e-14
7.56223e-14
8.44941e-14
9.33707e-14
1.02216e-13
1.1109e-13
1.19894e-13
1.28785e-13
1.37503e-13
4.45136e-15
1.3362e-14
2.22689e-14
3.11739e-14
4.00747e-14
4.89729e-14
5.78634e-14
6.67487e-14
7.56261e-14
8.4491e-14
9.33561e-14
1.02191e-13
1.11046e-13
1.19831e-13
1.28693e-13
1.37363e-13
4.45423e-15
1.33688e-14
2.22793e-14
3.11865e-14
4.0088e-14
4.89857e-14
5.78739e-14
6.67562e-14
7.5628e-14
8.44876e-14
9.33431e-14
1.02171e-13
1.11011e-13
1.19784e-13
1.28622e-13
1.37267e-13
4.45666e-15
1.33727e-14
2.22851e-14
3.11935e-14
4.00949e-14
4.89916e-14
5.78774e-14
6.67569e-14
7.56239e-14
8.44797e-14
9.33272e-14
1.02152e-13
1.10979e-13
1.19748e-13
1.28567e-13
1.37204e-13
4.45808e-15
1.33738e-14
2.22866e-14
3.11949e-14
4.00956e-14
4.89911e-14
5.78747e-14
6.67522e-14
7.56154e-14
8.44689e-14
9.33105e-14
1.02134e-13
1.10952e-13
1.19724e-13
1.28527e-13
1.37169e-13
4.45851e-15
1.33724e-14
2.22843e-14
3.11916e-14
4.0091e-14
4.89851e-14
5.7867e-14
6.6743e-14
7.56038e-14
8.44565e-14
9.32945e-14
1.0212e-13
1.10932e-13
1.19711e-13
1.28505e-13
1.37163e-13
4.45809e-15
1.33693e-14
2.22792e-14
3.11847e-14
4.00826e-14
4.89753e-14
5.78558e-14
6.67312e-14
7.55907e-14
8.44441e-14
9.32806e-14
1.0211e-13
1.1092e-13
1.19712e-13
1.285e-13
1.37186e-13
4.45703e-15
1.33636e-14
2.22698e-14
3.11721e-14
4.00672e-14
4.89577e-14
5.78363e-14
6.67107e-14
7.55692e-14
8.44237e-14
9.32599e-14
1.02095e-13
1.10905e-13
1.19712e-13
1.28501e-13
1.37222e-13
4.45505e-15
1.33573e-14
2.22597e-14
3.11587e-14
4.00512e-14
4.89398e-14
5.78172e-14
6.66914e-14
7.55501e-14
8.44069e-14
9.3245e-14
1.02088e-13
1.10902e-13
1.19729e-13
1.28522e-13
1.37287e-13
4.4529e-15
1.33488e-14
2.22459e-14
3.11402e-14
4.00288e-14
4.89143e-14
5.77896e-14
6.66629e-14
7.55214e-14
8.43802e-14
9.32206e-14
1.02071e-13
1.10891e-13
1.19739e-13
1.28543e-13
1.37354e-13
4.44998e-15
1.33407e-14
2.22329e-14
3.11228e-14
4.00078e-14
4.88908e-14
5.77647e-14
6.66378e-14
7.54974e-14
8.43592e-14
9.3204e-14
1.02064e-13
1.10894e-13
1.19766e-13
1.28584e-13
1.37445e-13
4.44724e-15
1.3331e-14
2.22171e-14
3.11014e-14
3.99816e-14
4.88607e-14
5.77321e-14
6.6604e-14
7.54641e-14
8.43284e-14
9.31781e-14
1.02048e-13
1.10889e-13
1.19785e-13
1.28621e-13
1.3753e-13
4.444e-15
1.33224e-14
2.2203e-14
3.10821e-14
3.99577e-14
4.8833e-14
5.7702e-14
6.65728e-14
7.5434e-14
8.43015e-14
9.3158e-14
1.02039e-13
1.10896e-13
1.19818e-13
1.28676e-13
1.37628e-13
4.44111e-15
1.33127e-14
2.2187e-14
3.106e-14
3.99298e-14
4.88e-14
5.76648e-14
6.65327e-14
7.53934e-14
8.42626e-14
9.31256e-14
1.02017e-13
1.10893e-13
1.1984e-13
1.28723e-13
1.37712e-13
4.43785e-15
1.33042e-14
2.21729e-14
3.10406e-14
3.99056e-14
4.87711e-14
5.76317e-14
6.6496e-14
7.53552e-14
8.4225e-14
9.3094e-14
1.01996e-13
1.10893e-13
1.19866e-13
1.28777e-13
1.37797e-13
4.43498e-15
1.32947e-14
2.21572e-14
3.1019e-14
3.98785e-14
4.87385e-14
5.75933e-14
6.64516e-14
7.53066e-14
8.41735e-14
9.30454e-14
1.01955e-13
1.10872e-13
1.19869e-13
1.28806e-13
1.37848e-13
4.43181e-15
1.32859e-14
2.21425e-14
3.09983e-14
3.98522e-14
4.87073e-14
5.75593e-14
6.64172e-14
7.52757e-14
8.41484e-14
9.303e-14
1.01947e-13
1.10873e-13
1.19874e-13
1.2883e-13
1.37879e-13
4.42889e-15
1.32791e-14
2.21316e-14
3.09841e-14
3.98363e-14
4.86921e-14
5.75489e-14
6.6415e-14
7.52858e-14
8.41717e-14
9.30661e-14
1.01986e-13
1.10907e-13
1.19887e-13
1.28841e-13
1.37873e-13
4.42656e-15
1.32808e-14
2.21355e-14
3.09919e-14
3.98499e-14
4.8713e-14
5.75782e-14
6.64519e-14
7.53305e-14
8.42222e-14
9.31218e-14
1.02041e-13
1.10961e-13
1.1992e-13
1.28864e-13
1.37857e-13
4.42699e-15
1.32879e-14
2.21477e-14
3.10095e-14
3.98731e-14
4.87416e-14
5.76123e-14
6.64905e-14
7.53732e-14
8.42666e-14
9.31683e-14
1.02086e-13
1.11008e-13
1.19955e-13
1.28896e-13
1.37862e-13
4.42931e-15
1.32944e-14
2.21583e-14
3.10241e-14
3.98915e-14
4.87636e-14
5.76383e-14
6.65205e-14
7.54071e-14
8.43027e-14
9.32061e-14
1.02122e-13
1.11042e-13
1.19981e-13
1.28922e-13
1.3788e-13
4.43146e-15
1.32997e-14
2.21673e-14
3.10367e-14
3.99078e-14
4.87833e-14
5.76612e-14
6.65458e-14
7.54344e-14
8.43307e-14
9.32343e-14
1.02148e-13
1.11066e-13
1.19999e-13
1.28936e-13
1.37885e-13
4.43324e-15
1.33054e-14
2.21766e-14
3.10496e-14
3.99241e-14
4.88028e-14
5.76837e-14
6.65708e-14
7.54616e-14
8.43588e-14
9.32629e-14
1.02175e-13
1.11091e-13
1.2002e-13
1.28951e-13
1.3789e-13
4.43511e-15
1.33093e-14
2.21832e-14
3.10587e-14
3.99355e-14
4.88163e-14
5.7699e-14
6.65873e-14
7.54789e-14
8.43759e-14
9.32792e-14
1.02189e-13
1.11102e-13
1.20027e-13
1.28951e-13
1.37883e-13
4.43643e-15
1.33132e-14
2.21896e-14
3.10675e-14
3.99466e-14
4.88293e-14
5.77137e-14
6.66032e-14
7.54955e-14
8.43924e-14
9.3295e-14
1.02203e-13
1.11113e-13
1.20034e-13
1.28954e-13
1.37878e-13
4.43773e-15
1.33165e-14
2.21949e-14
3.10747e-14
3.99556e-14
4.88399e-14
5.77255e-14
6.66157e-14
7.55084e-14
8.44049e-14
9.33065e-14
1.02212e-13
1.1112e-13
1.20037e-13
1.28952e-13
1.3787e-13
4.43881e-15
1.33197e-14
2.22002e-14
3.1082e-14
3.99647e-14
4.88504e-14
5.77373e-14
6.66284e-14
7.55214e-14
8.44177e-14
9.33185e-14
1.02223e-13
1.11129e-13
1.20042e-13
1.28954e-13
1.37867e-13
4.4399e-15
1.33217e-14
2.22035e-14
3.10865e-14
3.99701e-14
4.88566e-14
5.7744e-14
6.66351e-14
7.55279e-14
8.44233e-14
9.33229e-14
1.02225e-13
1.11128e-13
1.20039e-13
1.28947e-13
1.37854e-13
4.44058e-15
1.3324e-14
2.22072e-14
3.10914e-14
3.99762e-14
4.88637e-14
5.77517e-14
6.66432e-14
7.5536e-14
8.44309e-14
9.33296e-14
1.0223e-13
1.11132e-13
1.20039e-13
1.28944e-13
1.37848e-13
4.44133e-15
1.33252e-14
2.22092e-14
3.10942e-14
3.99795e-14
4.88673e-14
5.77554e-14
6.66466e-14
7.55389e-14
8.44329e-14
9.33303e-14
1.02229e-13
1.11129e-13
1.20033e-13
1.28935e-13
1.37836e-13
4.44176e-15
1.33269e-14
2.2212e-14
3.10979e-14
3.99841e-14
4.88725e-14
5.77611e-14
6.66525e-14
7.55447e-14
8.44382e-14
9.33349e-14
1.02233e-13
1.11131e-13
1.20033e-13
1.28933e-13
1.37831e-13
4.44234e-15
1.33274e-14
2.22127e-14
3.10987e-14
3.99849e-14
4.88732e-14
5.77615e-14
6.66523e-14
7.55438e-14
8.44361e-14
9.33315e-14
1.02228e-13
1.11123e-13
1.20024e-13
1.28921e-13
1.37816e-13
4.44249e-15
1.33286e-14
2.22147e-14
3.11014e-14
3.99882e-14
4.88769e-14
5.77655e-14
6.66564e-14
7.55477e-14
8.44396e-14
9.33344e-14
1.0223e-13
1.11124e-13
1.20023e-13
1.28919e-13
1.37812e-13
4.4429e-15
1.33289e-14
2.22152e-14
3.1102e-14
3.99887e-14
4.88773e-14
5.77656e-14
6.6656e-14
7.55467e-14
8.44378e-14
9.33315e-14
1.02225e-13
1.11119e-13
1.20015e-13
1.2891e-13
1.378e-13
4.44301e-15
1.33291e-14
2.22155e-14
3.11023e-14
3.9989e-14
4.88774e-14
5.77654e-14
6.66554e-14
7.55454e-14
8.44357e-14
9.33285e-14
1.02221e-13
1.11113e-13
1.20009e-13
1.28901e-13
1.3779e-13
4.44308e-15
1.33293e-14
2.22158e-14
3.11027e-14
3.99894e-14
4.88777e-14
5.77655e-14
6.66551e-14
7.55447e-14
8.44343e-14
9.33263e-14
1.02218e-13
1.11109e-13
1.20003e-13
1.28895e-13
1.37782e-13
4.44316e-15
1.33293e-14
2.22157e-14
3.11025e-14
3.9989e-14
4.8877e-14
5.77644e-14
6.66536e-14
7.55426e-14
8.44315e-14
9.33227e-14
1.02213e-13
1.11103e-13
1.19996e-13
1.28887e-13
1.37772e-13
4.44315e-15
1.33298e-14
2.22165e-14
3.11035e-14
3.99903e-14
4.88784e-14
5.77659e-14
6.6655e-14
7.55439e-14
8.44325e-14
9.33233e-14
1.02214e-13
1.11103e-13
1.19995e-13
1.28885e-13
1.3777e-13
4.44332e-15
1.33293e-14
2.22156e-14
3.11022e-14
3.99886e-14
4.88762e-14
5.77631e-14
6.66516e-14
7.55397e-14
8.44275e-14
9.33174e-14
1.02207e-13
1.11095e-13
1.19986e-13
1.28875e-13
1.37758e-13
4.44315e-15
1.33289e-14
2.2215e-14
3.11013e-14
3.99873e-14
4.88745e-14
5.7761e-14
6.66489e-14
7.55365e-14
8.44236e-14
9.33128e-14
1.02201e-13
1.11089e-13
1.19979e-13
1.28866e-13
1.37749e-13
4.44304e-15
1.33289e-14
2.2215e-14
3.11013e-14
3.99872e-14
4.88743e-14
5.77606e-14
6.66483e-14
7.55355e-14
8.44223e-14
9.33111e-14
1.02199e-13
1.11086e-13
1.19976e-13
1.28863e-13
1.37745e-13
4.44304e-15
1.3328e-14
2.22134e-14
3.1099e-14
3.99843e-14
4.88707e-14
5.77562e-14
6.66431e-14
7.55295e-14
8.44154e-14
9.33032e-14
1.0219e-13
1.11076e-13
1.19965e-13
1.2885e-13
1.37731e-13
4.44273e-15
1.33283e-14
2.22139e-14
3.10997e-14
3.99851e-14
4.88716e-14
5.77572e-14
6.66442e-14
7.55306e-14
8.44164e-14
9.33042e-14
1.02191e-13
1.11077e-13
1.19965e-13
1.28851e-13
1.37732e-13
4.44284e-15
1.33271e-14
2.22119e-14
3.10968e-14
3.99814e-14
4.8867e-14
5.77517e-14
6.66377e-14
7.55231e-14
8.44079e-14
9.32946e-14
1.0218e-13
1.11065e-13
1.19952e-13
1.28837e-13
1.37716e-13
4.44243e-15
1.3327e-14
2.22117e-14
3.10966e-14
3.9981e-14
4.88665e-14
5.7751e-14
6.66368e-14
7.5522e-14
8.44066e-14
9.3293e-14
1.02178e-13
1.11063e-13
1.1995e-13
1.28834e-13
1.37713e-13
4.4424e-15
1.33261e-14
2.22102e-14
3.10944e-14
3.99782e-14
4.8863e-14
5.77468e-14
6.66319e-14
7.55164e-14
8.44003e-14
9.32859e-14
1.02171e-13
1.11054e-13
1.1994e-13
1.28824e-13
1.37702e-13
4.4421e-15
1.33259e-14
2.22099e-14
3.10941e-14
3.99777e-14
4.88624e-14
5.77461e-14
6.6631e-14
7.55153e-14
8.4399e-14
9.32844e-14
1.02169e-13
1.11052e-13
1.19938e-13
1.28821e-13
1.37699e-13
4.44205e-15
1.33246e-14
2.22077e-14
3.1091e-14
3.99737e-14
4.88575e-14
5.77403e-14
6.66242e-14
7.55076e-14
8.43902e-14
9.32747e-14
1.02158e-13
1.1104e-13
1.19925e-13
1.28807e-13
1.37684e-13
4.44161e-15
1.33243e-14
2.22073e-14
3.10903e-14
3.99729e-14
4.88564e-14
5.7739e-14
6.66228e-14
7.55059e-14
8.43883e-14
9.32725e-14
1.02156e-13
1.11038e-13
1.19922e-13
1.28804e-13
1.37681e-13
4.44152e-15
1.33236e-14
2.2206e-14
3.10886e-14
3.99706e-14
4.88537e-14
5.77357e-14
6.66189e-14
7.55015e-14
8.43834e-14
9.3267e-14
1.0215e-13
1.11031e-13
1.19915e-13
1.28796e-13
1.37673e-13
4.44128e-15
1.3323e-14
2.2205e-14
3.10872e-14
3.99688e-14
4.88515e-14
5.77331e-14
6.66159e-14
7.5498e-14
8.43795e-14
9.32626e-14
1.02145e-13
1.11026e-13
1.19909e-13
1.2879e-13
1.37666e-13
4.44108e-15
1.33221e-14
2.22035e-14
3.1085e-14
3.99661e-14
4.88481e-14
5.77291e-14
6.66112e-14
7.54927e-14
8.43736e-14
9.32561e-14
1.02138e-13
1.11018e-13
1.19901e-13
1.28781e-13
1.37656e-13
4.44077e-15
1.33214e-14
2.22024e-14
3.10834e-14
3.9964e-14
4.88455e-14
5.77261e-14
6.66078e-14
7.54888e-14
8.43691e-14
9.32512e-14
1.02132e-13
1.11012e-13
1.19895e-13
1.28774e-13
1.37649e-13
4.44055e-15
1.33206e-14
2.22011e-14
3.10816e-14
3.99617e-14
4.88427e-14
5.77227e-14
6.66039e-14
7.54844e-14
8.43642e-14
9.32458e-14
1.02126e-13
1.11006e-13
1.19888e-13
1.28767e-13
1.37641e-13
4.44029e-15
1.33201e-14
2.22001e-14
3.10803e-14
3.996e-14
4.88406e-14
5.77202e-14
6.6601e-14
7.54812e-14
8.43606e-14
9.32418e-14
1.02122e-13
1.11001e-13
1.19883e-13
1.28762e-13
1.37636e-13
4.4401e-15
1.3319e-14
2.21983e-14
3.10778e-14
3.99567e-14
4.88366e-14
5.77155e-14
6.65956e-14
7.5475e-14
8.43538e-14
9.32343e-14
1.02114e-13
1.10992e-13
1.19873e-13
1.28751e-13
1.37625e-13
4.43974e-15
1.33183e-14
2.21972e-14
3.10762e-14
3.99547e-14
4.88342e-14
5.77126e-14
6.65922e-14
7.54712e-14
8.43495e-14
9.32296e-14
1.02109e-13
1.10987e-13
1.19867e-13
1.28745e-13
1.37618e-13
4.43951e-15
1.33174e-14
2.21957e-14
3.1074e-14
3.99519e-14
4.88308e-14
5.77086e-14
6.65876e-14
7.5466e-14
8.43437e-14
9.32232e-14
1.02102e-13
1.10979e-13
1.19859e-13
1.28737e-13
1.37609e-13
4.43921e-15
1.33167e-14
2.21945e-14
3.10724e-14
3.99498e-14
4.88281e-14
5.77055e-14
6.6584e-14
7.54619e-14
8.43392e-14
9.32182e-14
1.02096e-13
1.10973e-13
1.19853e-13
1.2873e-13
1.37602e-13
4.43897e-15
1.33158e-14
2.21931e-14
3.10704e-14
3.99472e-14
4.8825e-14
5.77018e-14
6.65797e-14
7.54571e-14
8.43337e-14
9.32122e-14
1.0209e-13
1.10966e-13
1.19845e-13
1.28722e-13
1.37594e-13
4.43868e-15
1.33149e-14
2.21915e-14
3.10682e-14
3.99443e-14
4.88215e-14
5.76977e-14
6.6575e-14
7.54517e-14
8.43277e-14
9.32056e-14
1.02083e-13
1.10958e-13
1.19837e-13
1.28713e-13
1.37585e-13
4.43837e-15
1.33139e-14
2.21898e-14
3.10659e-14
3.99414e-14
4.88179e-14
5.76934e-14
6.657e-14
7.5446e-14
8.43214e-14
9.31986e-14
1.02075e-13
1.1095e-13
1.19828e-13
1.28704e-13
1.37576e-13
4.43804e-15
1.33132e-14
2.21887e-14
3.10642e-14
3.99393e-14
4.88153e-14
5.76904e-14
6.65665e-14
7.54421e-14
8.43169e-14
9.31937e-14
1.02069e-13
1.10944e-13
1.19822e-13
1.28698e-13
1.37569e-13
4.43781e-15
1.33122e-14
2.2187e-14
3.10619e-14
3.99363e-14
4.88117e-14
5.7686e-14
6.65615e-14
7.54364e-14
8.43105e-14
9.31865e-14
1.02062e-13
1.10936e-13
1.19813e-13
1.28687e-13
1.37559e-13
4.43748e-15
1.3311e-14
2.2185e-14
3.10591e-14
3.99326e-14
4.88072e-14
5.76807e-14
6.65553e-14
7.54293e-14
8.43025e-14
9.31776e-14
1.02052e-13
1.10925e-13
1.198e-13
1.28674e-13
1.37543e-13
4.43707e-15
1.331e-14
2.21833e-14
3.10567e-14
3.99296e-14
4.88034e-14
5.76762e-14
6.65501e-14
7.54234e-14
8.42959e-14
9.31702e-14
1.02043e-13
1.10916e-13
1.1979e-13
1.28662e-13
1.3753e-13
4.43673e-15
1.3309e-14
2.21818e-14
3.10545e-14
3.99268e-14
4.88e-14
5.76722e-14
6.65455e-14
7.54182e-14
8.42901e-14
9.31638e-14
1.02036e-13
1.10908e-13
1.19782e-13
1.28653e-13
1.3752e-13
4.43643e-15
6.31089e-30
1.26218e-29
7.57306e-29
2.52435e-29
5.04871e-29
-5.04871e-29
-5.04871e-29
0
1.51461e-28
5.04871e-29
0
-5.04871e-29
0
-1.00974e-28
-1.00974e-28
6.31089e-30
)
;


// ************************************************************************* //
