/*--------------------------------*- C++ -*----------------------------------*\
| =========                 |                                                 |
| \\      /  F ield         | foam-extend: Open Source CFD                    |
|  \\    /   O peration     | Version:     4.1-20200408                       |
|   \\  /    A nd           | Web:         http://www.foam-extend.org         |
|    \\/     M anipulation  |                                                 |
\*---------------------------------------------------------------------------*/
FoamFile
{
    version     2.0;
    format      ascii;
    class       volScalarField;
    location    "0.0480000";
    object      ccz;
}
// * * * * * * * * * * * * * * * * * * * * * * * * * * * * * * * * * * * * * //

dimensions      [0 1 0 0 0 0 0];

internalField   nonuniform List<scalar> 
1952
(
-2.78172e-13
4.16865e-12
-4.80346e-13
-4.81219e-12
2.57732e-11
3.71707e-11
1.22127e-11
-1.27553e-11
4.59441e-13
1.22915e-11
-1.44376e-22
2.64389e-22
9.75111e-22
2.26202e-22
-1.16144e-21
1.57143e-12
-2.77806e-13
4.16647e-12
-1.78611e-12
-6.01848e-12
2.57577e-11
2.43588e-11
1.74271e-22
-2.54896e-11
-1.18405e-11
1.23013e-11
-3.40519e-22
1.04364e-22
-1.93098e-21
1.26435e-11
1.23651e-11
1.57135e-12
2.22222e-12
5.33351e-12
-1.78539e-12
-6.01829e-12
1.2879e-11
2.5e-11
1.2222e-11
-2.54904e-11
-1.18415e-11
1.23015e-11
2.83756e-22
6.26159e-22
1.9313e-22
1.26446e-11
1.23658e-11
3.23795e-12
-2.7775e-13
4.16649e-12
-1.78611e-12
-1.89811e-11
-1.21206e-11
1.28208e-11
1.22222e-11
-2.54904e-11
-1.18418e-11
1.23013e-11
-1.26812e-11
-2.49998e-11
-1.23452e-11
2.69481e-22
4.19867e-22
1.57139e-12
-1.3889e-12
4.16687e-12
-1.78539e-12
-1.89818e-11
-1.21217e-11
1.28204e-11
1.22216e-11
-2.54904e-11
8.77796e-13
3.73013e-11
-1.30442e-11
-3.73328e-11
-1.23455e-11
1.26435e-11
1.23651e-11
-9.53187e-14
-2.77855e-13
4.16649e-12
-4.76554e-13
-4.81479e-12
-5.05297e-22
1.28207e-11
1.22223e-11
-2.54904e-11
-1.18415e-11
2.50003e-11
-1.3044e-11
-3.7333e-11
-1.23452e-11
1.26446e-11
1.23653e-11
1.5713e-12
8.33436e-13
4.16688e-12
-4.75893e-13
-4.81479e-12
-5.94564e-23
-5.02974e-23
-4.35869e-22
-2.54913e-11
-1.18418e-11
1.23009e-11
-1.26811e-11
-2.50003e-11
3.09034e-13
1.23558e-11
-2.09991e-21
3.23808e-12
-2.77831e-13
4.16649e-12
-4.76552e-13
-4.81479e-12
-5.94614e-23
1.28208e-11
1.2222e-11
-2.54904e-11
8.77798e-13
2.46028e-11
-5.67754e-23
-2.08806e-22
2.53101e-11
2.47127e-11
4.20009e-22
1.57135e-12
-1.38887e-12
2.83351e-12
-1.66668e-12
-4.81496e-12
3.56789e-22
2.56404e-11
1.16653e-11
-3.77451e-11
-1.18415e-11
1.23016e-11
-1.70318e-21
-1.25267e-21
1.26543e-11
2.5e-11
-2.6958e-13
-9.52992e-14
-2.77775e-13
2.83334e-12
-2.97622e-12
-6.01827e-12
-5.94624e-23
1.28208e-11
-5.55769e-13
-3.77454e-11
-1.18418e-11
1.23013e-11
-4.54258e-22
1.04416e-22
-8.69482e-22
1.26442e-11
-2.69583e-13
1.57135e-12
8.33196e-13
4.16667e-12
-3.09528e-12
-7.22244e-12
1.28787e-11
1.21788e-11
-7.84683e-22
-2.54904e-11
-1.18415e-11
1.23015e-11
3.4072e-22
4.17685e-22
-1.93231e-22
3.59464e-22
-2.52052e-21
3.23798e-12
1.11116e-12
5.33335e-12
-1.78577e-12
-6.0183e-12
1.2879e-11
2.5e-11
1.22224e-11
-2.54913e-11
-2.45611e-11
1.26984e-11
1.23185e-11
-4.17713e-22
-4.8306e-22
7.18904e-22
-1.26346e-11
1.57143e-12
-2.77855e-13
4.16649e-12
-1.78574e-12
-6.01827e-12
-1.18962e-22
1.28207e-11
1.22219e-11
-1.27449e-11
4.39412e-13
2.5e-11
1.23188e-11
-8.3548e-22
1.93256e-22
1.26444e-11
-2.6981e-13
1.57136e-12
8.33437e-13
4.16688e-12
-1.78577e-12
-6.01871e-12
-2.97423e-23
1.28204e-11
1.2222e-11
9.23138e-22
1.27196e-11
1.23016e-11
5.11181e-22
3.13294e-22
1.26541e-11
2.5e-11
1.23654e-11
3.23805e-12
1.11112e-12
4.00003e-12
-2.9762e-12
-6.01827e-12
5.94827e-23
1.28207e-11
1.22223e-11
-6.92399e-22
1.27193e-11
1.23013e-11
-1.26812e-11
-1.23329e-11
2.53093e-11
2.47119e-11
-9.2443e-22
1.57141e-12
1.11106e-12
4e-12
-4.28577e-12
-2.01849e-11
-1.2121e-11
5.03373e-23
-1.27778e-11
-1.22542e-11
1.27196e-11
1.23016e-11
-1.26815e-11
-1.23332e-11
2.53093e-11
3.73558e-11
1.23651e-11
1.57137e-12
1.11112e-12
5.33335e-12
-3.09528e-12
-2.01855e-11
-1.21212e-11
2.01322e-22
-1.2778e-11
-1.22549e-11
1.27193e-11
2.49998e-11
1.23185e-11
-1.04461e-22
2.53093e-11
3.73561e-11
1.23654e-11
1.57138e-12
1.11114e-12
5.33335e-12
-3.09528e-12
-9.81477e-12
-2.4242e-12
-1.51032e-22
6.97892e-22
-1.27451e-11
4.39214e-13
3.76987e-11
2.46373e-11
-1.26667e-11
1.29653e-11
2.47119e-11
1.68076e-22
1.57141e-12
8.33347e-13
4.1667e-12
-1.78613e-12
-1.12037e-11
8.03084e-12
1.21793e-11
-2.18082e-22
-2.54896e-11
-1.18405e-11
2.5e-11
-3.62503e-13
-2.5e-11
1.29638e-11
3.73558e-11
1.2365e-11
3.23807e-12
-2.77861e-13
4.16667e-12
-4.75894e-13
-1e-11
2.09083e-11
2.4358e-11
4.36231e-23
-1.27457e-11
1.31582e-11
2.46028e-11
-1.26815e-11
-1.23332e-11
2.53093e-11
3.73561e-11
1.23653e-11
1.57143e-12
-1.38887e-12
2.83337e-12
-1.66669e-12
-1.12963e-11
6.81905e-12
1.218e-11
3.92636e-22
-1.27451e-11
4.38383e-13
1.23011e-11
-1.0227e-21
-1.26664e-11
1.2964e-11
2.47119e-11
1.34513e-21
-9.52537e-14
-2.77804e-13
2.83332e-12
-2.97655e-12
-1.25e-11
-6.06058e-12
1.28209e-11
1.2222e-11
-2.54904e-11
-1.18418e-11
2.49997e-11
-3.62722e-13
-2.5e-11
1.29626e-11
2.47119e-11
5.88534e-22
1.5714e-12
2.22222e-12
5.33335e-12
-1.78576e-12
-1.12037e-11
8.03031e-12
2.5e-11
1.22222e-11
-1.27453e-11
1.31594e-11
3.73015e-11
-3.62728e-13
-1.23332e-11
1.26548e-11
1.23556e-11
4.2032e-22
3.23809e-12
2.22222e-12
5.33335e-12
-4.76223e-13
-1e-11
8.03058e-12
1.21791e-11
-3.92669e-22
-1.27451e-11
1.31585e-11
2.46028e-11
-1.26812e-11
-1.2333e-11
-3.86744e-22
-1.79862e-22
-1.84992e-21
3.23803e-12
2.2223e-12
5.33351e-12
-4.75893e-13
-1e-11
-4.84845e-12
-4.02927e-22
-3.05461e-22
-1.27453e-11
4.38904e-13
1.23015e-11
-1.26815e-11
-1.23332e-11
1.93402e-22
6.29619e-22
5.88654e-22
3.23815e-12
2.22214e-12
5.33335e-12
-4.76553e-13
-1e-11
8.03026e-12
2.49997e-11
1.22224e-11
-1.27455e-11
-1.22804e-11
6.2282e-22
-6.25261e-22
-6.27137e-22
1.26545e-11
1.23554e-11
-8.40812e-23
3.23804e-12
2.22222e-12
5.33335e-12
-4.76223e-13
-1e-11
8.03053e-12
3.78207e-11
2.44434e-11
-1.2745e-11
-1.22802e-11
1.26985e-11
1.23185e-11
5.22594e-22
2.53093e-11
3.73562e-11
1.23651e-11
3.23816e-12
2.22222e-12
5.33335e-12
-4.76223e-13
-1e-11
8.03026e-12
2.5e-11
1.22226e-11
-1.27455e-11
-1.22804e-11
1.26987e-11
1.23183e-11
-1.26664e-11
3.09578e-13
2.50003e-11
1.23654e-11
3.23811e-12
8.33347e-13
4.1667e-12
-1.78574e-12
-1.12037e-11
2.09103e-11
2.43596e-11
-7.8566e-22
-1.27454e-11
4.38674e-13
1.23013e-11
-1.26812e-11
-3.76672e-11
-2.46907e-11
9.89568e-22
-1.26347e-11
3.23811e-12
-2.77781e-13
4.16667e-12
-1.78576e-12
-1.12037e-11
8.03057e-12
2.5e-11
1.2222e-11
-1.27451e-11
1.31584e-11
2.46028e-11
-1.26815e-11
-2.50003e-11
-1.23455e-11
1.26443e-11
-2.699e-13
1.57147e-12
-2.77775e-13
2.83321e-12
-2.97652e-12
-1.12037e-11
-4.84845e-12
1.28207e-11
1.22223e-11
-1.27453e-11
4.39729e-13
1.23015e-11
-3.9802e-22
-1.04547e-21
-1.9344e-22
1.26442e-11
1.23653e-11
1.57143e-12
-2.77782e-13
2.83348e-12
-4.2854e-12
-1.24073e-11
-4.84845e-12
-3.52714e-22
1.74643e-22
-1.27455e-11
4.38064e-13
1.23008e-11
1.99003e-21
9.40986e-22
1.26549e-11
2.49997e-11
-2.69574e-13
1.57148e-12
-2.77775e-13
4.1667e-12
-3.09528e-12
-1.24074e-11
8.03025e-12
1.21789e-11
2.6193e-22
-1.27454e-11
4.38905e-13
1.23012e-11
1.13722e-22
-6.27371e-22
1.26548e-11
2.50002e-11
-2.69582e-13
1.57144e-12
8.33312e-13
2.83335e-12
-2.97656e-12
-1.25e-11
1.96972e-11
2.43588e-11
-1.00434e-21
-3.85212e-22
1.27197e-11
2.49998e-11
1.23181e-11
-1.26664e-11
3.0926e-13
1.23554e-11
1.85084e-21
3.23813e-12
-2.77737e-13
2.83334e-12
-1.66672e-12
-1.12963e-11
1.96972e-11
2.43588e-11
-2.61994e-22
-5.00712e-22
1.27196e-11
2.50004e-11
1.23188e-11
-1.26675e-11
3.09265e-13
1.23561e-11
5.04759e-22
1.5715e-12
-2.77778e-12
3.00002e-12
-4.76228e-13
-1e-11
8.03064e-12
2.5e-11
1.22219e-11
-1.27455e-11
4.38904e-13
1.23012e-11
9.10057e-22
-1.26672e-11
-1.23448e-11
8.99885e-23
1.68267e-22
-9.51923e-14
-1.38892e-12
2.83352e-12
-2.97584e-12
-1.12036e-11
8.0302e-12
3.78204e-11
2.44442e-11
-1.27454e-11
1.31594e-11
3.73013e-11
1.2318e-11
-1.26671e-11
-1.23456e-11
1.25993e-21
0
-9.5195e-14
-1.38885e-12
2.83323e-12
-2.97652e-12
-1.12037e-11
8.03116e-12
2.50006e-11
1.22222e-11
-3.08235e-22
2.54388e-11
3.73014e-11
1.23187e-11
7.32216e-22
1.26547e-11
1.23555e-11
9.2561e-22
-9.51874e-14
-2.77864e-13
4.16664e-12
-4.76267e-13
-1e-11
-4.84844e-12
-2.01675e-22
1.31052e-22
-1.9267e-22
1.27198e-11
1.23015e-11
-1.26814e-11
-1.23328e-11
1.26551e-11
1.23559e-11
-8.41438e-23
1.57143e-12
1.11116e-12
5.33335e-12
-1.78568e-12
-1.12037e-11
-4.84844e-12
-5.04248e-22
3.93212e-22
1.50304e-21
-6.89404e-22
-4.98785e-22
-1.26818e-11
-2.5e-11
-1.23449e-11
1.26441e-11
1.23646e-11
1.57155e-12
1.11106e-12
4.00008e-12
-2.97622e-12
-1.12038e-11
8.02984e-12
1.21789e-11
-1.31089e-22
1.92725e-22
-1.03424e-21
1.26984e-11
1.23182e-11
-1.26674e-11
3.09367e-13
3.76441e-11
2.47298e-11
1.57141e-12
1.11117e-12
2.66666e-12
-4.16659e-12
-1.12036e-11
2.09092e-11
2.43589e-11
6.55559e-22
-1.27448e-11
4.39014e-13
2.5e-11
1.23188e-11
5.23194e-22
1.26552e-11
2.50003e-11
1.2365e-11
1.57159e-12
-1.38879e-12
2.83332e-12
-2.97636e-12
-1.25e-11
6.81903e-12
1.21802e-11
2.18547e-22
-1.27458e-11
1.31578e-11
2.46027e-11
-1.26812e-11
-1.23326e-11
1.26547e-11
1.23552e-11
-1.26351e-11
-9.5169e-14
-2.77976e-13
4.16657e-12
-4.76128e-13
-1.25926e-11
-7.27276e-12
1.28196e-11
1.22214e-11
-1.27444e-11
1.31589e-11
2.46028e-11
-2.5363e-11
-2.46656e-11
2.531e-11
2.47108e-11
-1.26357e-11
1.57136e-12
1.11122e-12
5.3333e-12
-4.76134e-13
-1.12964e-11
-6.06075e-12
1.28214e-11
1.22233e-11
-2.54902e-11
-1.18411e-11
1.23022e-11
-1.2682e-11
-2.5e-11
1.29656e-11
3.7355e-11
1.23641e-11
1.57166e-12
-2.77737e-13
2.83356e-12
-2.97585e-12
-1.12036e-11
8.02882e-12
2.49977e-11
1.22212e-11
-2.54899e-11
-2.45616e-11
1.24831e-22
-1.26806e-11
-2.5e-11
1.29645e-11
3.73555e-11
1.23644e-11
1.57133e-12
-5.55517e-13
1.66645e-12
-2.97636e-12
-1.12039e-11
2.09086e-11
3.71812e-11
-5.52439e-13
-3.77437e-11
-2.45618e-11
-3.74599e-22
-1.26823e-11
-1.2334e-11
2.53098e-11
2.47104e-11
3.36816e-22
3.23817e-12
-2.77786e-13
2.83332e-12
-2.9757e-12
-1.12036e-11
8.03153e-12
1.21813e-11
-1.2779e-11
-3.77462e-11
-1.18442e-11
1.23005e-11
-6.83944e-22
1.15275e-21
1.2656e-11
1.23565e-11
-1.60075e-21
1.57172e-12
1.11097e-12
2.66663e-12
-5.47605e-12
-1.24075e-11
8.02818e-12
1.21783e-11
-5.2524e-22
-2.54895e-11
8.75553e-13
2.46038e-11
1.65354e-21
-1.26651e-11
-1.23439e-11
0
-1.26342e-11
1.5713e-12
8.33546e-13
1.50011e-12
-4.16666e-12
-1.12039e-11
8.03152e-12
1.21816e-11
8.75575e-22
-1.27464e-11
1.31547e-11
2.46042e-11
-1.2679e-11
-3.76646e-11
-1.20385e-11
1.23544e-11
-1.26365e-11
3.23818e-12
-5.55501e-13
1.66639e-12
-2.97596e-12
-1.24997e-11
-6.06064e-12
1.28183e-11
1.22211e-11
-1.54529e-22
2.54372e-11
2.46044e-11
-1.26823e-11
-2.50034e-11
3.07926e-13
1.23577e-11
-1.26334e-11
3.23819e-12
-2.77774e-13
2.83329e-12
-2.97595e-12
-1.25003e-11
-6.06098e-12
2.56399e-11
2.44457e-11
2.70487e-22
2.54371e-11
2.46049e-11
-8.56493e-22
-1.05021e-21
8.74725e-22
-1.80851e-22
-1.26352e-11
1.57172e-12
1.11102e-12
2.66662e-12
-2.85697e-12
-1e-11
-4.84869e-12
2.56398e-11
2.44458e-11
-1.27428e-11
4.39811e-13
1.23042e-11
1.14251e-22
-9.4569e-22
1.94527e-22
2.71506e-22
-1.6926e-22
1.57137e-12
-2.77582e-13
1.50002e-12
-2.85695e-12
-1e-11
8.02861e-12
3.78189e-11
2.4446e-11
-2.54884e-11
-2.45635e-11
1.25166e-22
2.28586e-22
1.05131e-21
9.73346e-22
1.26409e-11
1.23674e-11
1.57165e-12
-1.38892e-12
1.49988e-12
-2.85692e-12
-1.12962e-11
1.96957e-11
5e-11
2.44461e-11
-1.27449e-11
-1.22826e-11
4.38125e-22
-5.71592e-23
0
1.36352e-21
1.26408e-11
1.23686e-11
-9.51201e-14
1.11114e-12
3.99994e-12
-1.66642e-12
-1.12962e-11
6.81731e-12
2.49999e-11
1.2223e-11
5.79623e-22
1.27181e-11
1.23032e-11
-1.26792e-11
-1.23361e-11
1.26513e-11
1.23615e-11
-1.26304e-11
1.57157e-12
2.22226e-12
5.33322e-12
-4.75882e-13
-1.12963e-11
-6.06103e-12
-3.53489e-22
0
-1.27451e-11
1.31521e-11
2.46069e-11
-1.26771e-11
-1.23346e-11
2.53005e-11
2.47232e-11
-1.26254e-11
3.23821e-12
2.22227e-12
5.33319e-12
-1.78546e-12
-1.37964e-11
-7.27325e-12
2.0194e-22
3.50117e-22
-2.54871e-11
8.69808e-13
3.7307e-11
1.23249e-11
-9.47227e-22
2.52997e-11
2.47241e-11
1.02125e-21
3.23821e-12
2.22228e-12
5.33314e-12
-1.78475e-12
-1.24993e-11
6.82068e-12
1.21846e-11
3.93853e-22
-2.54865e-11
-1.18532e-11
2.49903e-11
-3.66366e-13
-1.2342e-11
2.52995e-11
3.73667e-11
-2.54187e-13
3.23821e-12
-2.78678e-13
2.8321e-12
-1.66655e-12
-1.12967e-11
1.96932e-11
2.43622e-11
-1.31282e-22
-1.27369e-11
4.46109e-13
1.23106e-11
-2.5356e-11
-2.4674e-11
1.26437e-11
3.76331e-11
-5.11838e-13
1.57091e-12
-2.7777e-12
1.66704e-12
-1.66539e-12
-1.12955e-11
1.96939e-11
3.71884e-11
1.22313e-11
-1.27503e-11
4.18593e-13
1.22972e-11
-1.26704e-11
-2.50002e-11
3.00866e-13
2.49999e-11
-2.58331e-13
-9.50952e-14
-1.38795e-12
4.16706e-12
-1.78566e-12
-8.61059e-12
1.04459e-11
2.49836e-11
1.22162e-11
-1.27343e-11
4.50151e-13
1.23124e-11
-2.28853e-22
-1.26557e-11
3.02044e-13
1.23534e-11
-9.36825e-22
-9.50909e-14
-2.77897e-13
4.16548e-12
-3.09424e-12
-7.22296e-12
-3.57983e-22
-9.09041e-22
1.75136e-22
-7.73018e-23
2.54338e-11
2.46083e-11
4.00534e-22
2.10689e-22
4.87988e-22
5.45511e-22
-1.26378e-11
1.57275e-12
-2.77498e-13
4.16719e-12
-1.78391e-12
-1.89897e-11
-1.21317e-11
2.02075e-22
-5.25561e-22
-2.31964e-22
2.54342e-11
2.46077e-11
4.57785e-22
-2.10695e-22
-9.7583e-23
1.26493e-11
-2.56272e-13
1.57032e-12
1.11196e-12
5.33309e-12
-4.75493e-13
-1.77676e-11
-1.21136e-11
1.28283e-11
-5.52464e-13
-2.5018e-11
1.31435e-11
2.46069e-11
9.72873e-22
2.10695e-22
-8.78087e-22
1.26374e-11
1.2359e-11
1.57278e-12
8.32494e-13
2.83136e-12
-1.66687e-12
-1.77861e-11
7.55541e-13
3.78275e-11
1.168e-11
-2.4983e-11
4.35165e-13
1.2295e-11
-4.57875e-22
-7.37434e-22
1.26618e-11
1.23612e-11
-1.26423e-11
3.23822e-12
-2.77527e-13
2.83463e-12
-1.66532e-12
-1.77692e-11
7.5482e-13
2.49846e-11
1.22161e-11
-3.0963e-22
-6.92701e-23
-3.76138e-22
-3.43448e-22
-1.26739e-11
2.97918e-13
1.2348e-11
-1.26325e-11
1.57055e-12
1.11174e-12
5.33308e-12
-4.75588e-13
-4.81522e-12
1.49532e-22
5.06198e-23
2.63252e-22
-2.32329e-22
1.27249e-11
1.23087e-11
0
-2.53348e-11
-2.46872e-11
8.16896e-22
0
1.57248e-12
8.32784e-13
4.16587e-12
-4.75611e-13
-1.77831e-11
-1.21277e-11
3.03894e-22
8.78007e-23
-1.27495e-11
1.31501e-11
2.46042e-11
2.29054e-22
-2.5336e-11
-1.20233e-11
1.23574e-11
-2.5442e-22
3.23823e-12
8.33962e-13
4.16689e-12
-4.75699e-13
-3.07394e-11
-1.13616e-11
1.21849e-11
-4.39272e-23
-2.54882e-11
-1.18484e-11
1.22979e-11
9.16519e-22
-1.26641e-11
1.29765e-11
2.47039e-11
-1.3563e-21
3.23823e-12
1.11077e-12
5.33315e-12
-4.75719e-13
-1.77731e-11
1.36379e-11
2.43604e-11
-4.39491e-22
-1.27412e-11
4.43912e-13
1.23043e-11
-1.26846e-11
-1.23345e-11
1.26538e-11
2.50001e-11
1.23649e-11
1.57102e-12
1.11145e-12
5.33321e-12
-4.75803e-13
-4.81499e-12
2.57568e-11
2.43596e-11
5.71361e-22
-1.55092e-22
2.5439e-11
2.46022e-11
-1.26799e-11
-2.5e-11
-1.23459e-11
2.52932e-11
2.47229e-11
1.57207e-12
1.11085e-12
5.33328e-12
-4.76056e-13
-4.81487e-12
1.2876e-11
2.50001e-11
1.22245e-11
2.325e-22
2.54394e-11
2.4602e-11
-2.86113e-22
-1.26662e-11
-1.2343e-11
1.26438e-11
1.23605e-11
1.57118e-12
1.11134e-12
5.3333e-12
-4.76177e-13
-1.77802e-11
7.57767e-13
3.78226e-11
2.44443e-11
-2.32381e-22
2.54395e-11
2.46019e-11
-9.15205e-22
2.10419e-22
1.26567e-11
2.50024e-11
1.23651e-11
1.57194e-12
2.22223e-12
5.33333e-12
-1.7859e-12
-1.89796e-11
1.36382e-11
5e-11
2.44441e-11
8.12991e-22
2.54396e-11
2.46018e-11
-1.71538e-22
-1.99838e-21
1.26544e-11
2.49979e-11
1.2363e-11
3.23826e-12
-2.7814e-13
2.83298e-12
-2.97624e-12
-6.01833e-12
1.28774e-11
2.4997e-11
1.22206e-11
-4.257e-22
1.27186e-11
1.22999e-11
1.08613e-21
-3.15468e-22
7.78658e-22
2.35536e-21
-3.38862e-22
1.57135e-12
-1.38872e-12
2.83365e-12
-1.66654e-12
-4.81477e-12
1.28803e-11
1.21804e-11
1.75412e-22
1.58618e-21
1.27208e-11
1.23019e-11
-1.26828e-11
-1.23333e-11
2.91947e-22
6.34064e-22
-5.92984e-22
-9.5069e-14
1.11122e-12
5.33336e-12
-1.78592e-12
-6.01855e-12
1.28779e-11
1.21783e-11
-6.57617e-22
7.73544e-23
1.2719e-11
1.23002e-11
-1.26811e-11
-1.23318e-11
1.26498e-21
4.52875e-22
-2.54137e-22
1.57176e-12
8.331e-13
4.16651e-12
-1.78562e-12
-6.01832e-12
1.288e-11
1.21802e-11
0
-1.27462e-11
-1.2281e-11
-1.8776e-22
-2.28516e-22
9.45954e-22
1.26557e-11
1.23561e-11
0
3.23826e-12
-2.77673e-13
4.16695e-12
-4.76529e-13
-4.81482e-12
1.28781e-11
2.5e-11
1.22225e-11
-2.5491e-11
-1.18403e-11
1.23018e-11
0
-1.26681e-11
3.08984e-13
2.5e-11
1.23655e-11
1.57149e-12
1.11117e-12
5.33333e-12
-4.76179e-13
-4.81465e-12
-1.79293e-22
1.28203e-11
1.22213e-11
-1.2745e-11
4.39379e-13
2.5e-11
1.2319e-11
-1.2667e-11
-1.23448e-11
1.26439e-11
1.23647e-11
1.57169e-12
1.11102e-12
5.33333e-12
-1.78575e-12
-6.01858e-12
-2.98744e-23
1.2821e-11
1.22227e-11
6.18499e-22
1.27201e-11
2.5e-11
1.23176e-11
-1.05083e-22
1.65395e-21
1.26446e-11
1.23654e-11
1.57153e-12
1.11119e-12
5.33333e-12
-1.78604e-12
-6.01827e-12
1.28788e-11
3.78212e-11
2.44437e-11
-2.3189e-22
1.27193e-11
1.23008e-11
-5.71149e-23
7.3558e-22
-5.83735e-22
1.26436e-11
1.23648e-11
1.57169e-12
1.11104e-12
5.3335e-12
-4.75828e-13
-4.81482e-12
2.57593e-11
5e-11
2.44437e-11
-7.72922e-23
1.272e-11
1.23016e-11
-1.26819e-11
-1.23334e-11
2.91867e-22
2.3549e-21
1.3557e-21
1.57152e-12
-2.77697e-13
4.16664e-12
-4.76518e-13
-4.81465e-12
1.2878e-11
2.49994e-11
1.2222e-11
3.86446e-23
1.27194e-11
1.23009e-11
-1.26808e-11
-2.5e-11
3.09398e-13
2.50008e-11
1.23661e-11
1.57167e-12
8.33241e-13
4.16669e-12
-1.78572e-12
-6.01855e-12
5.97273e-23
1.28207e-11
1.22221e-11
7.72785e-22
1.27195e-11
1.23019e-11
5.7116e-22
-1.26663e-11
3.09386e-13
2.49992e-11
1.23644e-11
3.23826e-12
8.33317e-13
4.16664e-12
-1.78606e-12
-6.0185e-12
1.28794e-11
2.5e-11
1.22221e-11
-1.27457e-11
1.31588e-11
2.46024e-11
-7.9951e-22
8.40623e-22
2.1404e-21
1.26444e-11
1.2366e-11
3.23826e-12
-1.66668e-12
1.66664e-12
-1.66667e-12
-4.81465e-12
1.28781e-11
2.5e-11
1.2222e-11
-1.27448e-11
1.31593e-11
3.73019e-11
1.23187e-11
-1.05086e-22
1.362e-21
2.52873e-11
2.47313e-11
1.57157e-12
-2.77742e-13
2.83353e-12
-1.66664e-12
-4.81482e-12
1.28794e-11
2.5e-11
1.22216e-11
7.72764e-23
2.54385e-11
3.7301e-11
-3.62781e-13
-1.23332e-11
1.26494e-21
1.26433e-11
1.23649e-11
1.57159e-12
8.33324e-13
4.16665e-12
-4.76174e-13
-4.81482e-12
1.2879e-11
2.5e-11
1.22224e-11
0
2.54385e-11
2.46024e-11
-1.26809e-11
-2.5e-11
3.09446e-13
2.50006e-11
1.23664e-11
3.23833e-12
8.33354e-13
4.16667e-12
-1.7861e-12
-6.01854e-12
5.97195e-23
1.28204e-11
1.22217e-11
-1.39103e-21
2.54394e-11
2.46033e-11
-1.26818e-11
-2.5e-11
3.08568e-13
2.49995e-11
1.2365e-11
3.23826e-12
8.33326e-13
2.83331e-12
-4.28571e-12
-7.22223e-12
9.25776e-22
-3.53755e-22
-5.69333e-22
-1.27452e-11
1.31589e-11
2.46032e-11
-1.26809e-11
-1.23328e-11
1.26545e-11
1.23566e-11
3.39025e-22
3.23826e-12
-1.6668e-12
1.66668e-12
-4.28569e-12
-7.22223e-12
1.28794e-11
1.21796e-11
-7.00664e-22
-2.5491e-11
8.75351e-13
2.46024e-11
-6.28302e-22
0
1.26545e-11
1.23562e-11
-2.11888e-21
1.57155e-12
-1.38883e-12
2.8335e-12
-4.28571e-12
-7.22223e-12
1.28787e-11
2.5e-11
1.22224e-11
-1.2745e-11
1.31593e-11
2.46032e-11
-1.1424e-22
-1.36621e-21
1.07042e-21
4.53023e-22
-3.39059e-22
-9.50654e-14
-2.77776e-13
1.49999e-12
-4.16665e-12
-1.89818e-11
7.57568e-13
3.78206e-11
2.44445e-11
7.72808e-23
1.27191e-11
1.23015e-11
1.77077e-21
-2.10212e-22
-7.78579e-22
-5.43634e-22
6.78056e-22
1.57161e-12
8.33351e-13
2.83336e-12
-1.66665e-12
-1.77777e-11
1.36365e-11
5e-11
2.44445e-11
-1.54567e-22
6.91511e-23
-7.50798e-22
-2.28514e-22
-2.10217e-22
1.26545e-11
1.23565e-11
0
3.23826e-12
2.22214e-12
5.33316e-12
-4.76525e-13
-4.81482e-12
1.28787e-11
3.78204e-11
2.44445e-11
-1.27452e-11
4.39452e-13
1.23018e-11
-5.14112e-22
6.30678e-22
1.26541e-11
2.5e-11
1.23658e-11
3.23826e-12
2.22223e-12
4.00011e-12
-2.97585e-12
-1.89816e-11
-1.21214e-11
1.28204e-11
1.22217e-11
-2.54902e-11
-1.18423e-11
2.5e-11
-3.63155e-13
-2.50004e-11
-1.23454e-11
2.52873e-11
2.47312e-11
3.23826e-12
2.22223e-12
2.66667e-12
-5.47618e-12
-2.01851e-11
-1.21207e-11
-5.05306e-23
-3.94145e-22
-1.2745e-11
-1.2281e-11
1.26987e-11
-3.6228e-13
-3.7667e-11
-2.46923e-11
2.52882e-11
2.47312e-11
3.23826e-12
2.22231e-12
2.66667e-12
-4.16695e-12
-6.01851e-12
1.28785e-11
2.50002e-11
1.22224e-11
-3.86478e-22
1.27198e-11
2.50003e-11
1.23194e-11
-2.53333e-11
-2.46905e-11
1.26431e-11
1.2365e-11
3.23826e-12
-2.77794e-13
2.83333e-12
-2.97618e-12
-6.01853e-12
2.57584e-11
3.71798e-11
1.22221e-11
-1.27452e-11
4.38295e-13
2.49998e-11
1.23183e-11
-1.26665e-11
-1.23455e-11
-1.08756e-21
5.93503e-22
1.57159e-12
-1.38892e-12
4.16667e-12
-1.78569e-12
-6.01852e-12
2.57576e-11
2.4359e-11
-3.94241e-22
-2.5491e-11
-1.1842e-11
1.23017e-11
-1.26812e-11
-2.50003e-11
3.08626e-13
1.23565e-11
-1.3565e-21
-9.5072e-14
-2.77777e-13
4.16644e-12
-1.78571e-12
-6.01832e-12
2.57567e-11
3.71792e-11
1.22223e-11
-1.27446e-11
4.39452e-13
1.23015e-11
-1.2681e-11
-2.49998e-11
3.08619e-13
1.23558e-11
-1.35657e-21
1.57164e-12
8.33349e-13
4.16667e-12
-3.09523e-12
-2.01853e-11
1.36362e-11
3.71794e-11
1.22221e-11
-1.27457e-11
-1.22812e-11
0
-1.26812e-11
-2.50002e-11
-1.23458e-11
1.26434e-11
1.23653e-11
3.23827e-12
1.1111e-12
5.3335e-12
-1.78569e-12
-1.89812e-11
7.58439e-13
1.21794e-11
5.25681e-22
-1.2745e-11
-1.22806e-11
-3.75503e-22
-2.53632e-11
-3.73337e-11
-1.23455e-11
2.52882e-11
2.47321e-11
1.57159e-12
1.11112e-12
5.33333e-12
-1.78571e-12
-6.01831e-12
-1.19479e-22
1.28207e-11
1.22219e-11
-1.27447e-11
4.3946e-13
1.23017e-11
-2.53614e-11
-2.46658e-11
-9.73516e-23
1.26436e-11
-2.69064e-13
1.57161e-12
1.1111e-12
5.33333e-12
-1.7857e-12
-6.01851e-12
1.28789e-11
3.78205e-11
2.44445e-11
-2.54902e-11
8.77179e-13
3.73016e-11
-3.62805e-13
-1.23337e-11
1.75262e-21
1.26438e-11
-2.69464e-13
1.57159e-12
-8.71417e-25
5.33316e-12
-4.76183e-13
-1.77779e-11
7.58354e-13
3.78204e-11
2.44453e-11
-2.5491e-11
-1.18422e-11
3.76983e-11
2.46377e-11
-2.41847e-21
1.26544e-11
3.76438e-11
2.47312e-11
-9.50683e-14
1.78378e-22
4.00012e-12
-1.66667e-12
-3.07407e-11
-2.42424e-11
2.5641e-11
2.44445e-11
-2.54902e-11
-1.1842e-11
2.5e-11
1.23188e-11
-1.15684e-21
1.26547e-11
2.49997e-11
1.23655e-11
-9.50716e-14
-8.21515e-23
4.00001e-12
-2.97618e-12
-3.19444e-11
-2.42424e-11
2.56401e-11
2.44436e-11
-1.2745e-11
1.31579e-11
2.46032e-11
-3.42917e-22
-1.26667e-11
-1.23458e-11
1.17858e-21
-4.24084e-22
-9.5065e-14
1.11112e-12
5.33333e-12
-1.7857e-12
-1.89814e-11
-1.21211e-11
1.28209e-11
1.22222e-11
-1.27447e-11
1.31578e-11
2.46023e-11
2.85779e-22
-1.2667e-11
3.07931e-13
1.2356e-11
9.32945e-22
1.57161e-12
8.33331e-13
4.16666e-12
-4.76183e-13
-4.81482e-12
1.28788e-11
2.50003e-11
1.22223e-11
-2.54902e-11
-1.18422e-11
1.23015e-11
-1.26816e-11
-2.50003e-11
3.09427e-13
1.23567e-11
9.33102e-22
3.23827e-12
-5.55549e-13
3e-12
-1.78571e-12
-1.89816e-11
7.57436e-13
3.78205e-11
2.44445e-11
-2.5491e-11
-2.45614e-11
-3.13003e-22
-2.53614e-11
-3.73329e-11
-1.23456e-11
-9.06677e-23
0
3.23827e-12
8.33345e-13
4.16667e-12
-1.7857e-12
-1.89812e-11
-1.21212e-11
2.5641e-11
2.44444e-11
-1.27451e-11
-1.22806e-11
-5.00891e-22
-1.26816e-11
-1.23332e-11
1.26539e-11
1.2356e-11
0
3.23827e-12
8.33333e-13
4.16666e-12
-1.78571e-12
-6.01831e-12
1.28789e-11
2.5e-11
1.22222e-11
-1.27452e-11
-1.22808e-11
1.87827e-22
6.28829e-22
7.36389e-22
1.26546e-11
1.23563e-11
9.3319e-22
3.23827e-12
8.33342e-13
2.83333e-12
-4.28532e-12
-7.22222e-12
2.57576e-11
2.4359e-11
1.75338e-22
-2.54902e-11
-2.45614e-11
2.5048e-22
-1.26812e-11
-1.2333e-11
1.26543e-11
1.23564e-11
1.95114e-21
3.23827e-12
-2.7778e-13
2.83333e-12
-4.2861e-12
-7.22222e-12
2.57576e-11
2.4359e-11
5.25949e-22
-1.2745e-11
-1.22807e-11
-3.13094e-22
-1.26811e-11
-1.23333e-11
2.53086e-11
2.47127e-11
8.48472e-22
1.57159e-12
-2.77777e-12
3e-12
-1.78571e-12
-1.89815e-11
7.57559e-13
2.5e-11
1.22218e-11
2.32054e-22
-6.92113e-23
1.87853e-22
-1.26812e-11
-1.23333e-11
2.53086e-11
2.47126e-11
1.69671e-21
-9.50683e-14
-2.77772e-13
4.16667e-12
-1.78571e-12
-1.89815e-11
7.57593e-13
2.5e-11
-5.55657e-13
-1.22549e-11
2.76841e-22
2.37944e-21
-2.53623e-11
-2.46667e-11
1.26543e-11
2.5e-11
1.23661e-11
1.5716e-12
1.11111e-12
5.33333e-12
-3.09523e-12
-7.22222e-12
1.28788e-11
1.21795e-11
-1.27778e-11
-1.22549e-11
6.23014e-22
1.26984e-11
-3.6222e-13
-2.5e-11
3.08648e-13
2.5e-11
1.23652e-11
1.5716e-12
1.65277e-22
5.33333e-12
-3.09523e-12
-7.22222e-12
5.9784e-22
2.02344e-22
-5.69935e-22
7.7366e-23
8.99909e-22
2.53968e-11
2.46377e-11
-2.53333e-11
6.17296e-13
2.47126e-11
2.20633e-21
-9.50683e-14
-4.11099e-23
5.33333e-12
-3.09523e-12
-7.22222e-12
-5.97965e-23
1.01192e-22
-3.50807e-22
-7.73822e-23
4.15429e-22
2.53968e-11
2.46377e-11
-2.53333e-11
6.17296e-13
2.47126e-11
0
-9.50683e-14
)
;

boundaryField
{
    wireUpstream
    {
        type            calculated;
        value           nonuniform List<scalar> 
16
(
0
5.33333e-12
-3.09523e-12
-7.22222e-12
0
0
0
-2.48339e-22
0
2.53968e-11
2.46377e-11
-2.53333e-11
6.17296e-13
2.47126e-11
5.63006e-22
-9.50683e-14
)
;
    }
    wireDownstream
    {
        type            calculated;
        value           nonuniform List<scalar> 
16
(
2.22222e-12
5.33335e-12
-4.76223e-13
-4.81479e-12
2.57577e-11
5e-11
2.44442e-11
0
2.54389e-11
2.46029e-11
-4.97665e-22
0
-8.46706e-22
0
-7.36318e-22
3.238e-12
)
;
    }
    wireTopContact
    {
        type            calculated;
        value           nonuniform List<scalar> 
122
(
0
0
1.3078e-21
0
0
6.54095e-22
0
-2.49999e-11
-2.50001e-11
1.30836e-21
-2.49999e-11
-2.50001e-11
0
6.54263e-22
0
6.54306e-22
0
1.3087e-21
0
6.5439e-22
0
0
-1.3089e-21
0
-6.54364e-22
6.54515e-22
-6.54405e-22
-2.49999e-11
-2.50001e-11
6.54469e-22
-2.49999e-11
-2.50001e-11
0
-6.54433e-22
0
0
0
0
0
-1.309e-21
0
-2.49996e-11
-2.50005e-11
0
6.54624e-22
-6.5474e-22
6.55032e-22
-2.49984e-11
-2.50016e-11
-2.49984e-11
-2.50015e-11
-6.57722e-22
0
-6.59805e-22
-2.50003e-11
-2.49985e-11
6.63885e-22
-2.50044e-11
-5e-11
-2.49933e-11
-1.33195e-21
-2.50079e-11
-2.4992e-11
-6.65696e-22
-2.50076e-11
-2.4993e-11
0
1.33145e-21
-1.33245e-21
0
0
0
0
0
0
0
0
0
0
0
0
0
0
0
6.70662e-22
0
0
6.71093e-22
-6.71196e-22
0
0
0
0
2.0144e-21
0
6.71698e-22
0
1.3433e-21
-6.71771e-22
0
0
-6.71991e-22
6.71973e-22
0
-2.50001e-11
-2.49999e-11
0
-6.72171e-22
6.72298e-22
0
0
0
0
6.72517e-22
0
6.72638e-22
-6.7249e-22
0
0
0
0
0
)
;
    }
    front
    {
        type            wedge;
    }
    back
    {
        type            wedge;
    }
}


// ************************************************************************* //
