/*--------------------------------*- C++ -*----------------------------------*\
| =========                 |                                                 |
| \\      /  F ield         | OpenFOAM: The Open Source CFD Toolbox           |
|  \\    /   O peration     | Version:  4.1                                   |
|   \\  /    A nd           | Web:      www.OpenFOAM.org                      |
|    \\/     M anipulation  |                                                 |
\*---------------------------------------------------------------------------*/
FoamFile
{
    version     2.0;
    format      ascii;
    class       volVectorField;
    location    "0.0003";
    object      U;
}
// * * * * * * * * * * * * * * * * * * * * * * * * * * * * * * * * * * * * * //

dimensions      [0 1 -1 0 0 0 0];

internalField   nonuniform List<vector> 
1536
(
(0.001587 -0.0010041 -9.3166e-09)
(0.0024461 -0.0016636 -5.068e-08)
(0.0039421 -0.0027246 -7.9322e-09)
(0.0063055 -0.0039898 -2.3545e-08)
(0.0095554 -0.0054189 -1.2537e-07)
(0.013917 -0.0076295 -1.9823e-07)
(0.020403 -0.01154 -1.7479e-07)
(0.030715 -0.017208 -1.3528e-07)
(0.046149 -0.022886 -1.0935e-07)
(0.065482 -0.024627 -5.5666e-08)
(0.084042 -0.019351 -6.7508e-08)
(0.095591 -0.0076047 -2.0177e-08)
(0.0016851 -0.00073746 0.00017529)
(0.0026089 -0.0012052 0.00028879)
(0.0041637 -0.0019297 0.00046159)
(0.0065716 -0.0028135 0.00066635)
(0.0099181 -0.0038721 0.00090945)
(0.014504 -0.0054982 0.0012965)
(0.021293 -0.0082191 0.0019559)
(0.031756 -0.011986 0.0028414)
(0.046829 -0.015584 0.0036176)
(0.065152 -0.01652 0.0037344)
(0.082424 -0.012865 0.0028587)
(0.093067 -0.005028 0.0011104)
(0.0017525 -0.0006117 0.00026373)
(0.0027172 -0.00099281 0.00042981)
(0.0043102 -0.001574 0.0006852)
(0.0067523 -0.0022921 0.00099927)
(0.010169 -0.0031724 0.0013784)
(0.014901 -0.0045166 0.001959)
(0.021874 -0.0067064 0.002914)
(0.032407 -0.0096629 0.0042028)
(0.047223 -0.012411 0.0053909)
(0.064902 -0.013042 0.0056481)
(0.081376 -0.010103 0.0043667)
(0.09147 -0.0039367 0.001701)
(0.0017866 -0.00048619 0.00036815)
(0.002771 -0.00078714 0.00059708)
(0.0043824 -0.0012457 0.00094835)
(0.0068427 -0.0018165 0.0013857)
(0.010297 -0.0025197 0.0019206)
(0.015101 -0.003587 0.0027304)
(0.02216 -0.0053061 0.0040387)
(0.032718 -0.0076033 0.0057907)
(0.047404 -0.0097158 0.0074036)
(0.06477 -0.010175 0.0077559)
(0.080865 -0.0078652 0.0059969)
(0.090698 -0.0030601 0.0023335)
(0.0017867 -0.00036891 0.00048544)
(0.002771 -0.00059788 0.00078633)
(0.0043824 -0.00094905 0.001245)
(0.0068426 -0.0013862 0.001816)
(0.010297 -0.001921 0.0025193)
(0.015101 -0.002731 0.0035864)
(0.02216 -0.0040395 0.0053053)
(0.032718 -0.0057916 0.0076024)
(0.047404 -0.0074043 0.009715)
(0.06477 -0.0077563 0.010174)
(0.080864 -0.0059971 0.007865)
(0.090698 -0.0023335 0.0030601)
(0.0017526 -0.00026458 0.00061089)
(0.0027172 -0.00043056 0.00099203)
(0.0043101 -0.00068587 0.0015732)
(0.0067522 -0.00099975 0.0022914)
(0.010169 -0.0013789 0.0031718)
(0.014902 -0.0019597 0.0045159)
(0.021875 -0.0029149 0.0067055)
(0.032407 -0.0042036 0.009662)
(0.047223 -0.0053914 0.012411)
(0.064902 -0.0056484 0.013041)
(0.081376 -0.0043669 0.010103)
(0.09147 -0.001701 0.0039367)
(0.0016854 -0.00017636 0.00073643)
(0.0026088 -0.00028939 0.0012046)
(0.0041636 -0.00046212 0.001929)
(0.0065715 -0.0006667 0.0028128)
(0.0099182 -0.0009099 0.0038713)
(0.014504 -0.0012972 0.0054974)
(0.021293 -0.0019566 0.0082183)
(0.031755 -0.0028422 0.011985)
(0.046829 -0.0036183 0.015584)
(0.065152 -0.0037347 0.016519)
(0.082423 -0.0028592 0.012864)
(0.093067 -0.0011106 0.0050278)
(0.0015875 -2.6182e-07 0.001004)
(0.0024458 -3.2553e-07 0.0016631)
(0.0039419 -3.3742e-07 0.0027236)
(0.0063053 -3.4346e-07 0.0039882)
(0.0095555 -3.5711e-07 0.0054171)
(0.013917 -3.8855e-07 0.0076278)
(0.020403 -4.4634e-07 0.011539)
(0.030715 -4.9321e-07 0.017207)
(0.046149 -4.6243e-07 0.022885)
(0.065482 -3.3934e-07 0.024627)
(0.084042 -1.8451e-07 0.019351)
(0.09559 -1.9227e-08 0.0076046)
(0.0016851 -0.0007374 -0.00017566)
(0.0026089 -0.0012052 -0.0002891)
(0.0041638 -0.0019297 -0.00046185)
(0.0065716 -0.0028135 -0.00066659)
(0.009918 -0.003872 -0.00090975)
(0.014504 -0.0054981 -0.0012969)
(0.021293 -0.008219 -0.0019562)
(0.031756 -0.011986 -0.0028416)
(0.046829 -0.015584 -0.0036178)
(0.065152 -0.016519 -0.0037344)
(0.082423 -0.012865 -0.0028589)
(0.093067 -0.0050281 -0.0011104)
(0.0017885 -0.00059632 -1.7891e-07)
(0.0027752 -0.00096391 -1.2045e-07)
(0.0043885 -0.001521 -6.2827e-08)
(0.0068489 -0.0022151 -6.4303e-08)
(0.010304 -0.0030776 -1.4597e-07)
(0.015114 -0.004386 -2.0689e-07)
(0.022179 -0.0064813 -1.7627e-07)
(0.032737 -0.0092768 -1.1391e-07)
(0.04742 -0.01185 -5.1043e-08)
(0.064787 -0.012421 3.9324e-09)
(0.080874 -0.0096135 -4.351e-08)
(0.090677 -0.0037465 -2.9361e-08)
(0.0018588 -0.00049118 0.00012479)
(0.0028861 -0.00078963 0.00020127)
(0.0045388 -0.0012368 0.00031641)
(0.0070383 -0.0018 0.00046096)
(0.010569 -0.0025123 0.00064208)
(0.015524 -0.0035856 0.00091573)
(0.022758 -0.005265 0.001346)
(0.033364 -0.0074554 0.0019048)
(0.047779 -0.0094179 0.0024007)
(0.064516 -0.0097908 0.0024892)
(0.079835 -0.0075385 0.0019136)
(0.089113 -0.002928 0.00074367)
(0.0018943 -0.00037453 0.00025076)
(0.0029413 -0.00060074 0.00040284)
(0.0046136 -0.00093876 0.00063093)
(0.0071337 -0.0013667 0.00091956)
(0.010703 -0.0019109 0.001285)
(0.015728 -0.0027275 0.0018332)
(0.023042 -0.003992 0.0026834)
(0.033666 -0.0056232 0.0037807)
(0.047946 -0.0070642 0.0047496)
(0.064376 -0.0073143 0.0049176)
(0.079326 -0.005618 0.003777)
(0.088352 -0.0021791 0.0014653)
(0.0018943 -0.00025142 0.0003738)
(0.0029413 -0.00040354 0.00059998)
(0.0046136 -0.00063159 0.00093807)
(0.0071337 -0.00092015 0.0013662)
(0.010703 -0.0012856 0.0019104)
(0.015728 -0.0018338 0.0027269)
(0.023042 -0.0026842 0.0039912)
(0.033666 -0.0037814 0.0056224)
(0.047946 -0.0047502 0.0070635)
(0.064375 -0.0049179 0.0073138)
(0.079326 -0.0037772 0.0056178)
(0.088352 -0.0014653 0.0021791)
(0.0018589 -0.00012545 0.00049033)
(0.0028861 -0.0002019 0.0007888)
(0.0045388 -0.00031705 0.0012361)
(0.0070383 -0.0004616 0.0017995)
(0.010569 -0.00064277 0.0025118)
(0.015524 -0.00091648 0.0035849)
(0.022758 -0.0013467 0.005264)
(0.033364 -0.0019055 0.0074544)
(0.047779 -0.0024012 0.0094171)
(0.064515 -0.0024896 0.0097903)
(0.079835 -0.0019139 0.0075384)
(0.089113 -0.00074376 0.0029279)
(0.0017887 -5.0945e-07 0.00059522)
(0.0027751 -4.9907e-07 0.00096307)
(0.0043883 -5.1829e-07 0.0015203)
(0.0068488 -5.4165e-07 0.0022147)
(0.010304 -5.6932e-07 0.0030771)
(0.015114 -5.9178e-07 0.0043851)
(0.022179 -6.3052e-07 0.0064802)
(0.032737 -6.6514e-07 0.0092757)
(0.047419 -5.8993e-07 0.011849)
(0.064786 -3.8982e-07 0.012421)
(0.080873 -1.6682e-07 0.0096132)
(0.090677 7.1136e-09 0.0037464)
(0.0016854 0.00017558 0.00073654)
(0.0026088 0.00028852 0.0012047)
(0.0041636 0.00046117 0.0019291)
(0.0065715 0.00066568 0.002813)
(0.0099182 0.00090885 0.0038714)
(0.014504 0.0012962 0.0054975)
(0.021293 0.0019557 0.0082184)
(0.031755 0.0028414 0.011985)
(0.046828 0.0036177 0.015584)
(0.065152 0.0037344 0.016519)
(0.082423 0.0028591 0.012864)
(0.093067 0.0011106 0.0050277)
(0.0017524 -0.00061174 -0.00026413)
(0.0027173 -0.00099277 -0.00043022)
(0.0043102 -0.0015739 -0.00068563)
(0.0067522 -0.002292 -0.00099964)
(0.010169 -0.0031723 -0.0013787)
(0.014901 -0.0045167 -0.0019592)
(0.021874 -0.0067064 -0.0029142)
(0.032407 -0.0096628 -0.004203)
(0.047223 -0.012411 -0.0053911)
(0.064902 -0.013042 -0.0056483)
(0.081376 -0.010103 -0.0043668)
(0.09147 -0.0039368 -0.001701)
(0.0018588 -0.00049123 -0.00012517)
(0.0028861 -0.00078961 -0.00020159)
(0.0045388 -0.0012367 -0.00031669)
(0.0070383 -0.0018 -0.00046121)
(0.010569 -0.0025123 -0.00064238)
(0.015524 -0.0035857 -0.00091608)
(0.022758 -0.005265 -0.0013463)
(0.033364 -0.0074554 -0.0019051)
(0.047779 -0.0094179 -0.0024008)
(0.064515 -0.0097907 -0.0024894)
(0.079835 -0.0075386 -0.0019138)
(0.089113 -0.002928 -0.0007437)
(0.0019307 -0.00037721 -1.7563e-07)
(0.0029984 -0.00060303 -1.68e-07)
(0.0046912 -0.00093799 -1.5563e-07)
(0.0072326 -0.0013646 -1.4192e-07)
(0.010841 -0.0019131 -1.5016e-07)
(0.015938 -0.0027335 -1.6022e-07)
(0.023331 -0.0039871 -1.4369e-07)
(0.03397 -0.0055859 -1.1261e-07)
(0.04811 -0.0069795 -8.5787e-08)
(0.064228 -0.0071977 -6.4302e-08)
(0.078808 -0.005514 -5.5951e-08)
(0.087582 -0.0021337 -2.5776e-08)
(0.0019669 -0.00025493 0.00012755)
(0.0030543 -0.00040654 0.00020372)
(0.0047672 -0.00063058 0.00031656)
(0.0073307 -0.00091735 0.00046096)
(0.010979 -0.0012885 0.00064734)
(0.016145 -0.0018412 0.00092482)
(0.023613 -0.0026767 0.0013448)
(0.034261 -0.0037304 0.0018747)
(0.048263 -0.0046355 0.00233)
(0.064081 -0.0047609 0.0023932)
(0.078303 -0.003638 0.0018286)
(0.086834 -0.0014055 0.00070631)
(0.001967 -0.00012813 0.00025427)
(0.0030543 -0.00020435 0.00040584)
(0.0047672 -0.0003172 0.00062992)
(0.0073307 -0.00046156 0.00091677)
(0.010979 -0.00064795 0.0012879)
(0.016145 -0.00092547 0.0018405)
(0.023613 -0.0013455 0.002676)
(0.034261 -0.0018753 0.0037297)
(0.048263 -0.0023305 0.0046349)
(0.064081 -0.0023935 0.0047605)
(0.078303 -0.0018288 0.0036378)
(0.086834 -0.00070637 0.0014055)
(0.0019308 -3.624e-07 0.00037642)
(0.0029984 -4.2094e-07 0.00060225)
(0.0046912 -4.6299e-07 0.00093728)
(0.0072326 -4.9021e-07 0.001364)
(0.010841 -4.9897e-07 0.0019126)
(0.015938 -4.8427e-07 0.0027327)
(0.023331 -4.5299e-07 0.0039862)
(0.03397 -4.0789e-07 0.005585)
(0.048109 -3.3652e-07 0.0069788)
(0.064228 -2.3849e-07 0.0071973)
(0.078808 -1.3198e-07 0.0055138)
(0.087581 -2.8115e-08 0.0021337)
(0.001859 0.00012465 0.00049023)
(0.0028861 0.00020099 0.0007887)
(0.0045388 0.00031606 0.001236)
(0.0070383 0.00046055 0.0017994)
(0.010569 0.00064171 0.0025117)
(0.015524 0.00091545 0.0035848)
(0.022758 0.0013457 0.005264)
(0.033364 0.0019046 0.0074544)
(0.047779 0.0024005 0.0094171)
(0.064515 0.0024891 0.0097903)
(0.079835 0.0019137 0.0075384)
(0.089113 0.00074372 0.002928)
(0.0017527 0.00026403 0.00061079)
(0.0027173 0.00042986 0.00099203)
(0.0043101 0.00068506 0.0015733)
(0.0067522 0.00099885 0.0022915)
(0.010169 0.001378 0.0031717)
(0.014902 0.0019588 0.0045159)
(0.021874 0.0029142 0.0067054)
(0.032406 0.0042033 0.0096618)
(0.047223 0.0053912 0.012411)
(0.064902 0.0056482 0.013041)
(0.081376 0.0043667 0.010103)
(0.09147 0.0017009 0.0039367)
(0.0017866 -0.00048629 -0.00036845)
(0.002771 -0.00078715 -0.00059746)
(0.0043824 -0.0012457 -0.00094874)
(0.0068427 -0.0018165 -0.001386)
(0.010297 -0.0025197 -0.0019208)
(0.015101 -0.003587 -0.0027306)
(0.02216 -0.005306 -0.0040389)
(0.032718 -0.0076033 -0.0057909)
(0.047404 -0.0097158 -0.0074038)
(0.06477 -0.010175 -0.0077561)
(0.080865 -0.0078652 -0.005997)
(0.090698 -0.0030601 -0.0023336)
(0.0018942 -0.00037456 -0.00025109)
(0.0029413 -0.00060074 -0.0004032)
(0.0046136 -0.00093873 -0.00063127)
(0.0071337 -0.0013667 -0.00091987)
(0.010703 -0.0019109 -0.0012853)
(0.015728 -0.0027276 -0.0018334)
(0.023042 -0.003992 -0.0026837)
(0.033666 -0.0056232 -0.003781)
(0.047946 -0.0070642 -0.0047498)
(0.064375 -0.0073143 -0.0049177)
(0.079326 -0.005618 -0.0037771)
(0.088352 -0.0021791 -0.0014653)
(0.0019669 -0.00025494 -0.00012788)
(0.0030543 -0.00040653 -0.00020407)
(0.0047672 -0.00063056 -0.00031691)
(0.0073307 -0.00091733 -0.00046127)
(0.010979 -0.0012884 -0.00064764)
(0.016145 -0.0018412 -0.00092512)
(0.023613 -0.0026768 -0.0013451)
(0.034261 -0.0037304 -0.0018749)
(0.048263 -0.0046355 -0.0023301)
(0.064081 -0.0047609 -0.0023933)
(0.078303 -0.003638 -0.0018287)
(0.086834 -0.0014055 -0.00070635)
(0.0020036 -0.00012897 -1.6259e-07)
(0.0031107 -0.00020505 -1.763e-07)
(0.0048439 -0.00031694 -1.7705e-07)
(0.0074301 -0.00046088 -1.6446e-07)
(0.011119 -0.00064854 -1.537e-07)
(0.016353 -0.00092695 -1.4584e-07)
(0.023893 -0.001343 -1.3246e-07)
(0.034548 -0.0018616 -1.1257e-07)
(0.04841 -0.0023006 -9.1519e-08)
(0.063929 -0.0023532 -7.326e-08)
(0.077799 -0.0017938 -5.4756e-08)
(0.086092 -0.000692 -2.4581e-08)
(0.0020036 -3.2477e-07 0.0001284)
(0.0031107 -3.8295e-07 0.00020442)
(0.004844 -4.2277e-07 0.00031631)
(0.0074301 -4.4611e-07 0.00046028)
(0.011119 -4.5494e-07 0.00064794)
(0.016353 -4.464e-07 0.00092631)
(0.023893 -4.2597e-07 0.0013424)
(0.034548 -3.9573e-07 0.001861)
(0.04841 -3.3775e-07 0.0023001)
(0.063929 -2.4528e-07 0.0023529)
(0.077799 -1.4057e-07 0.0017936)
(0.086092 -4.5354e-08 0.00069195)
(0.001967 0.00012746 0.00025425)
(0.0030544 0.00020357 0.00040582)
(0.0047672 0.00031633 0.00062989)
(0.0073307 0.00046065 0.00091673)
(0.010979 0.00064701 0.0012878)
(0.016145 0.00092456 0.0018405)
(0.023613 0.0013446 0.002676)
(0.034261 0.0018745 0.0037297)
(0.048263 0.0023298 0.0046349)
(0.064081 0.002393 0.0047606)
(0.078303 0.0018285 0.0036379)
(0.086834 0.00070627 0.0014055)
(0.0018944 0.00025076 0.00037371)
(0.0029414 0.00040276 0.0005999)
(0.0046136 0.00063073 0.00093799)
(0.0071337 0.00091923 0.0013661)
(0.010703 0.0012847 0.0019103)
(0.015728 0.0018329 0.0027268)
(0.023042 0.0026833 0.0039911)
(0.033666 0.0037807 0.0056224)
(0.047946 0.0047496 0.0070636)
(0.064375 0.0049175 0.0073139)
(0.079326 0.003777 0.0056179)
(0.088352 0.0014652 0.0021791)
(0.0017868 0.00036839 0.0004853)
(0.0027711 0.00059729 0.00078623)
(0.0043824 0.00094837 0.0012449)
(0.0068427 0.0013854 0.0018159)
(0.010297 0.0019202 0.0025191)
(0.015101 0.0027301 0.0035863)
(0.02216 0.0040387 0.0053052)
(0.032718 0.0057909 0.0076024)
(0.047404 0.0074037 0.0097151)
(0.06477 0.0077559 0.010174)
(0.080864 0.0059968 0.0078651)
(0.090698 0.0023334 0.0030601)
(0.0017866 -0.00036895 -0.00048572)
(0.002771 -0.00059791 -0.00078667)
(0.0043824 -0.00094904 -0.0012453)
(0.0068427 -0.0013862 -0.0018163)
(0.010297 -0.001921 -0.0025195)
(0.015101 -0.0027309 -0.0035867)
(0.02216 -0.0040395 -0.0053055)
(0.032718 -0.0057916 -0.0076027)
(0.047404 -0.0074044 -0.0097152)
(0.06477 -0.0077564 -0.010174)
(0.080864 -0.0059972 -0.0078651)
(0.090698 -0.0023335 -0.0030601)
(0.0018943 -0.00025142 -0.00037411)
(0.0029413 -0.00040351 -0.00060032)
(0.0046136 -0.00063153 -0.00093841)
(0.0071337 -0.00092008 -0.0013665)
(0.010703 -0.0012856 -0.0019107)
(0.015728 -0.0018339 -0.0027272)
(0.023042 -0.0026842 -0.0039915)
(0.033666 -0.0037815 -0.0056226)
(0.047946 -0.0047503 -0.0070637)
(0.064375 -0.0049179 -0.007314)
(0.079326 -0.0037772 -0.0056179)
(0.088352 -0.0014653 -0.0021791)
(0.001967 -0.00012812 -0.0002546)
(0.0030543 -0.00020433 -0.0004062)
(0.0047672 -0.00031716 -0.00063028)
(0.0073307 -0.00046152 -0.0009171)
(0.010979 -0.00064793 -0.0012882)
(0.016145 -0.00092547 -0.0018408)
(0.023613 -0.0013455 -0.0026763)
(0.034261 -0.0018753 -0.0037299)
(0.048263 -0.0023305 -0.0046351)
(0.064081 -0.0023935 -0.0047607)
(0.078303 -0.0018288 -0.003638)
(0.086834 -0.00070634 -0.0014055)
(0.0020036 -3.2414e-07 -0.00012872)
(0.0031107 -3.7707e-07 -0.00020478)
(0.004844 -4.1085e-07 -0.00031668)
(0.0074301 -4.3237e-07 -0.00046062)
(0.011119 -4.4651e-07 -0.00064826)
(0.016353 -4.4679e-07 -0.0009266)
(0.023893 -4.314e-07 -0.0013426)
(0.034548 -3.9941e-07 -0.0018613)
(0.04841 -3.3446e-07 -0.0023003)
(0.063929 -2.3358e-07 -0.002353)
(0.077799 -1.2515e-07 -0.0017937)
(0.086092 -3.9105e-08 -0.000692)
(0.0020036 0.00012833 -1.6115e-07)
(0.0031107 0.0002043 -1.7967e-07)
(0.004844 0.00031611 -1.8551e-07)
(0.0074301 0.00046001 -1.7484e-07)
(0.011119 0.00064765 -1.5962e-07)
(0.016353 0.00092607 -1.4465e-07)
(0.023893 0.0013422 -1.2813e-07)
(0.034548 0.0018608 -1.104e-07)
(0.04841 0.0022999 -9.502e-08)
(0.063929 0.0023527 -8.359e-08)
(0.077799 0.0017935 -6.9557e-08)
(0.086092 0.00069191 -3.5397e-08)
(0.001967 0.0002543 0.00012754)
(0.0030544 0.00040579 0.00020371)
(0.0047673 0.00062975 0.00031654)
(0.0073307 0.00091648 0.00046092)
(0.010979 0.0012876 0.0006473)
(0.016145 0.0018403 0.0009248)
(0.023613 0.0026759 0.0013448)
(0.034261 0.0037296 0.0018747)
(0.048263 0.0046348 0.00233)
(0.064081 0.0047604 0.0023932)
(0.078303 0.0036377 0.0018286)
(0.086834 0.0014054 0.00070631)
(0.0018944 0.00037392 0.00025074)
(0.0029414 0.00060002 0.00040283)
(0.0046137 0.00093794 0.00063091)
(0.0071337 0.0013659 0.00091951)
(0.010703 0.00191 0.001285)
(0.015728 0.0027267 0.0018331)
(0.023042 0.0039911 0.0026833)
(0.033666 0.0056224 0.0037807)
(0.047946 0.0070635 0.0047497)
(0.064375 0.0073137 0.0049176)
(0.079326 0.0056177 0.0037771)
(0.088352 0.002179 0.0014653)
(0.0017868 0.00048564 0.00036808)
(0.0027711 0.00078647 0.00059709)
(0.0043825 0.0012449 0.00094837)
(0.0068427 0.0018157 0.0013856)
(0.010297 0.0025189 0.0019204)
(0.015101 0.0035862 0.0027302)
(0.02216 0.0053052 0.0040386)
(0.032718 0.0076024 0.0057907)
(0.047404 0.0097149 0.0074038)
(0.06477 0.010174 0.0077561)
(0.080864 0.0078648 0.0059971)
(0.090698 0.0030599 0.0023337)
(0.0017526 -0.00026453 -0.00061122)
(0.0027172 -0.00043051 -0.00099242)
(0.0043101 -0.00068574 -0.0015737)
(0.0067522 -0.00099963 -0.0022919)
(0.010169 -0.0013789 -0.0031721)
(0.014902 -0.0019597 -0.0045161)
(0.021875 -0.002915 -0.0067057)
(0.032407 -0.0042038 -0.0096622)
(0.047223 -0.0053916 -0.012411)
(0.064902 -0.0056485 -0.013042)
(0.081376 -0.0043668 -0.010103)
(0.09147 -0.0017009 -0.0039368)
(0.0018589 -0.00012538 -0.00049067)
(0.0028861 -0.00020182 -0.00078916)
(0.0045388 -0.00031692 -0.0012364)
(0.0070383 -0.00046147 -0.0017999)
(0.010569 -0.00064271 -0.0025121)
(0.015524 -0.0009165 -0.0035852)
(0.022758 -0.0013468 -0.0052643)
(0.033364 -0.0019056 -0.0074546)
(0.047779 -0.0024012 -0.0094172)
(0.064515 -0.0024895 -0.0097904)
(0.079835 -0.0019138 -0.0075384)
(0.089113 -0.00074364 -0.002928)
(0.0019308 -3.476e-07 -0.00037677)
(0.0029984 -3.8645e-07 -0.00060263)
(0.0046912 -4.0459e-07 -0.00093769)
(0.0072326 -4.2737e-07 -0.0013644)
(0.010841 -4.5972e-07 -0.0019129)
(0.015938 -4.8424e-07 -0.002733)
(0.023331 -4.8011e-07 -0.0039865)
(0.03397 -4.3288e-07 -0.0055852)
(0.048109 -3.3352e-07 -0.006979)
(0.064228 -2.0278e-07 -0.0071974)
(0.078808 -7.3499e-08 -0.0055139)
(0.087582 3.3443e-09 -0.0021338)
(0.001967 0.00012746 -0.00025458)
(0.0030544 0.00020358 -0.00040619)
(0.0047673 0.00031634 -0.00063029)
(0.0073307 0.00046066 -0.0009171)
(0.010979 0.00064703 -0.0012882)
(0.016145 0.00092456 -0.0018408)
(0.023613 0.0013446 -0.0026762)
(0.034261 0.0018745 -0.0037299)
(0.048263 0.0023298 -0.0046351)
(0.064081 0.0023931 -0.0047607)
(0.078303 0.0018286 -0.003638)
(0.086834 0.00070629 -0.0014056)
(0.001967 0.00025429 -0.00012786)
(0.0030544 0.00040578 -0.00020407)
(0.0047673 0.00062974 -0.00031692)
(0.0073307 0.00091647 -0.00046128)
(0.010979 0.0012876 -0.00064763)
(0.016145 0.0018403 -0.00092509)
(0.023613 0.0026759 -0.0013451)
(0.034261 0.0037296 -0.0018749)
(0.048263 0.0046348 -0.0023302)
(0.064081 0.0047604 -0.0023934)
(0.078303 0.0036378 -0.0018288)
(0.086834 0.0014055 -0.00070639)
(0.0019308 0.00037656 -1.6437e-07)
(0.0029984 0.00060228 -1.838e-07)
(0.0046912 0.00093716 -1.8866e-07)
(0.0072326 0.0013637 -1.7707e-07)
(0.010841 0.0019123 -1.5887e-07)
(0.015938 0.0027326 -1.3982e-07)
(0.023331 0.0039863 -1.233e-07)
(0.03397 0.0055851 -1.1218e-07)
(0.048109 0.0069787 -1.0839e-07)
(0.064228 0.0071972 -1.1101e-07)
(0.078808 0.0055136 -1.0558e-07)
(0.087581 0.0021336 -6.3455e-08)
(0.001859 0.00049053 0.00012483)
(0.0028862 0.00078885 0.00020125)
(0.0045389 0.0012359 0.00031636)
(0.0070383 0.0017992 0.00046087)
(0.010569 0.0025114 0.00064199)
(0.015524 0.0035849 0.00091567)
(0.022758 0.0052642 0.0013459)
(0.033364 0.0074546 0.0019048)
(0.047779 0.0094171 0.0024006)
(0.064515 0.0097901 0.0024891)
(0.079835 0.0075382 0.0019135)
(0.089113 0.0029278 0.00074358)
(0.0017527 0.00061098 0.00026385)
(0.0027174 0.00099201 0.00042992)
(0.0043103 0.0015731 0.00068531)
(0.0067523 0.0022912 0.00099923)
(0.010169 0.0031715 0.0013782)
(0.014901 0.0045159 0.0019586)
(0.021874 0.0067056 0.0029137)
(0.032407 0.009662 0.0042028)
(0.047223 0.012411 0.005391)
(0.064902 0.013041 0.0056482)
(0.081376 0.010103 0.0043667)
(0.091469 0.0039366 0.001701)
(0.0016852 -0.00017602 -0.00073702)
(0.0026087 -0.00028926 -0.001205)
(0.0041636 -0.00046188 -0.0019295)
(0.0065716 -0.00066654 -0.0028133)
(0.0099183 -0.00090989 -0.0038716)
(0.014504 -0.0012973 -0.0054976)
(0.021293 -0.0019568 -0.0082185)
(0.031755 -0.0028424 -0.011985)
(0.046829 -0.0036184 -0.015584)
(0.065152 -0.0037347 -0.016519)
(0.082423 -0.002859 -0.012865)
(0.093067 -0.0011103 -0.005028)
(0.0017886 -3.7707e-07 -0.00059569)
(0.0027751 -4.0597e-07 -0.0009635)
(0.0043884 -4.0257e-07 -0.0015208)
(0.0068489 -4.4522e-07 -0.0022151)
(0.010304 -5.0773e-07 -0.0030774)
(0.015114 -5.6908e-07 -0.0043854)
(0.022179 -6.31e-07 -0.0064804)
(0.032737 -6.4692e-07 -0.0092758)
(0.047419 -5.1833e-07 -0.011849)
(0.064786 -2.762e-07 -0.012421)
(0.080873 -1.0332e-08 -0.0096134)
(0.090677 1.2111e-07 -0.0037467)
(0.0018589 0.00012464 -0.00049062)
(0.0028861 0.00020103 -0.00078913)
(0.0045388 0.00031612 -0.0012365)
(0.0070383 0.00046062 -0.0017999)
(0.010569 0.00064176 -0.002512)
(0.015524 0.00091547 -0.0035851)
(0.022758 0.0013457 -0.0052642)
(0.033364 0.0019046 -0.0074545)
(0.047779 0.0024005 -0.0094172)
(0.064515 0.0024892 -0.0097905)
(0.079835 0.0019137 -0.0075386)
(0.089113 0.00074376 -0.0029282)
(0.0018943 0.00025074 -0.00037405)
(0.0029414 0.00040275 -0.00060029)
(0.0046136 0.00063071 -0.00093842)
(0.0071337 0.00091922 -0.0013665)
(0.010703 0.0012847 -0.0019106)
(0.015728 0.0018329 -0.0027271)
(0.023042 0.0026833 -0.0039914)
(0.033666 0.0037807 -0.0056226)
(0.047946 0.0047496 -0.0070638)
(0.064375 0.0049175 -0.0073141)
(0.079326 0.003777 -0.005618)
(0.088352 0.0014652 -0.0021792)
(0.0018944 0.00037391 -0.00025105)
(0.0029414 0.0006 -0.00040318)
(0.0046137 0.00093791 -0.00063127)
(0.0071337 0.0013658 -0.00091986)
(0.010703 0.00191 -0.0012853)
(0.015728 0.0027267 -0.0018334)
(0.023042 0.0039912 -0.0026836)
(0.033666 0.0056224 -0.0037809)
(0.047946 0.0070635 -0.0047499)
(0.064375 0.0073138 -0.0049178)
(0.079326 0.0056178 -0.0037773)
(0.088352 0.002179 -0.0014654)
(0.001859 0.00049054 -0.00012517)
(0.0028862 0.00078887 -0.00020163)
(0.0045389 0.0012359 -0.00031674)
(0.0070383 0.0017992 -0.00046123)
(0.010569 0.0025114 -0.00064231)
(0.015524 0.0035848 -0.00091594)
(0.022758 0.0052642 -0.0013462)
(0.033364 0.0074546 -0.001905)
(0.047779 0.0094171 -0.0024009)
(0.064515 0.0097902 -0.0024894)
(0.079835 0.0075382 -0.0019138)
(0.089113 0.0029278 -0.00074373)
(0.0017888 0.00059553 -1.9811e-07)
(0.0027753 0.00096314 -2.5803e-07)
(0.0043885 0.0015201 -2.644e-07)
(0.0068489 0.0022143 -2.1015e-07)
(0.010304 0.0030769 -1.2951e-07)
(0.015114 0.0043854 -7.1841e-08)
(0.022179 0.0064807 -6.8008e-08)
(0.032737 0.009276 -1.0436e-07)
(0.047419 0.011849 -1.5482e-07)
(0.064786 0.012421 -1.9461e-07)
(0.080873 0.0096132 -1.7104e-07)
(0.090677 0.0037464 -6.9071e-08)
(0.0016854 0.00073652 0.00017554)
(0.0026091 0.0012045 0.00028876)
(0.0041638 0.001929 0.00046147)
(0.0065716 0.0028128 0.00066605)
(0.009918 0.0038713 0.00090909)
(0.014503 0.0054974 0.0012962)
(0.021293 0.0082182 0.0019556)
(0.031756 0.011985 0.0028413)
(0.046829 0.015584 0.0036174)
(0.065152 0.01652 0.0037338)
(0.082423 0.012865 0.0028583)
(0.093067 0.0050284 0.00111)
(0.0015872 -2.3666e-07 -0.0010043)
(0.0024458 -2.6796e-07 -0.0016633)
(0.0039419 -2.9358e-07 -0.0027238)
(0.0063055 -3.4482e-07 -0.0039885)
(0.0095557 -3.9188e-07 -0.0054174)
(0.013917 -4.2536e-07 -0.0076281)
(0.020403 -4.5205e-07 -0.011539)
(0.030715 -4.4598e-07 -0.017207)
(0.046149 -3.6145e-07 -0.022885)
(0.065482 -1.9928e-07 -0.024627)
(0.084042 -1.9367e-08 -0.019351)
(0.095591 8.4791e-08 -0.0076045)
(0.0016852 0.00017532 -0.00073711)
(0.0026087 0.00028848 -0.001205)
(0.0041636 0.00046108 -0.0019295)
(0.0065716 0.00066569 -0.0028133)
(0.0099183 0.00090895 -0.0038717)
(0.014504 0.0012963 -0.0054977)
(0.021293 0.0019558 -0.0082186)
(0.031755 0.0028414 -0.011985)
(0.046829 0.0036177 -0.015584)
(0.065152 0.0037343 -0.016519)
(0.082423 0.0028589 -0.012865)
(0.093067 0.0011105 -0.0050279)
(0.0017526 0.00026388 -0.00061126)
(0.0027172 0.00042977 -0.00099243)
(0.0043101 0.00068495 -0.0015737)
(0.0067522 0.00099882 -0.0022919)
(0.010169 0.0013781 -0.0031721)
(0.014902 0.0019589 -0.0045162)
(0.021875 0.0029143 -0.0067057)
(0.032407 0.0042033 -0.009662)
(0.047223 0.0053913 -0.012411)
(0.064902 0.0056482 -0.013042)
(0.081376 0.0043667 -0.010103)
(0.09147 0.0017008 -0.0039369)
(0.0017867 0.00036833 -0.00048564)
(0.002771 0.00059717 -0.00078663)
(0.0043824 0.0009482 -0.0012453)
(0.0068427 0.0013853 -0.0018163)
(0.010297 0.0019201 -0.0025195)
(0.015101 0.0027302 -0.0035866)
(0.02216 0.0040388 -0.0053054)
(0.032718 0.005791 -0.0076026)
(0.047404 0.0074039 -0.0097153)
(0.06477 0.007756 -0.010174)
(0.080864 0.0059969 -0.0078652)
(0.090698 0.0023334 -0.0030602)
(0.0017868 0.0004856 -0.00036833)
(0.0027711 0.0007864 -0.00059736)
(0.0043825 0.0012448 -0.00094867)
(0.0068427 0.0018156 -0.001386)
(0.010297 0.0025188 -0.0019207)
(0.015101 0.0035862 -0.0027305)
(0.02216 0.0053052 -0.0040389)
(0.032718 0.0076025 -0.005791)
(0.047404 0.009715 -0.007404)
(0.06477 0.010174 -0.0077563)
(0.080864 0.0078649 -0.0059972)
(0.090698 0.0030599 -0.0023337)
(0.0017527 0.00061097 -0.00026409)
(0.0027174 0.00099203 -0.00043012)
(0.0043103 0.0015731 -0.0006855)
(0.0067523 0.0022912 -0.00099946)
(0.010169 0.0031715 -0.0013785)
(0.014901 0.0045158 -0.0019589)
(0.021874 0.0067056 -0.002914)
(0.032407 0.009662 -0.004203)
(0.047223 0.012411 -0.0053912)
(0.064902 0.013041 -0.0056483)
(0.081376 0.010103 -0.0043669)
(0.091469 0.0039366 -0.0017011)
(0.0016854 0.0007365 -0.00017588)
(0.002609 0.0012044 -0.00028912)
(0.0041638 0.0019289 -0.00046183)
(0.0065716 0.0028128 -0.00066638)
(0.009918 0.0038713 -0.00090938)
(0.014503 0.0054974 -0.0012964)
(0.021293 0.0082182 -0.0019559)
(0.031755 0.011985 -0.0028415)
(0.046829 0.015584 -0.0036177)
(0.065152 0.016519 -0.0037341)
(0.082423 0.012865 -0.0028586)
(0.093067 0.0050283 -0.0011102)
(0.0015874 0.0010036 -1.797e-07)
(0.0024461 0.0016628 -2.038e-07)
(0.0039421 0.0027237 -2.1397e-07)
(0.0063054 0.0039886 -1.8105e-07)
(0.0095554 0.0054175 -1.1806e-07)
(0.013917 0.0076279 -5.9382e-08)
(0.020403 0.011539 -3.194e-08)
(0.030715 0.017207 -4.0903e-08)
(0.046149 0.022885 -7.3064e-08)
(0.065482 0.024627 -1.2012e-07)
(0.084042 0.019351 -1.2185e-07)
(0.095591 0.0076049 -6.0384e-08)
(0.10554 -0.010948 0.002395)
(0.090462 -0.027217 0.0059814)
(0.066806 -0.03319 0.0073626)
(0.043382 -0.028593 0.0064471)
(0.026458 -0.019252 0.0044285)
(0.016825 -0.011645 0.0027188)
(0.011661 -0.0073769 0.0017265)
(0.0082381 -0.0055421 0.0012858)
(0.0053255 -0.0043226 0.00099929)
(0.0030812 -0.0028628 0.00066874)
(0.0018072 -0.0015576 0.00037196)
(0.0012175 -0.00089197 0.0002154)
(0.10176 -0.009692 0.0020476)
(0.088148 -0.024189 0.0050759)
(0.066545 -0.029801 0.0061865)
(0.044644 -0.0262 0.0053383)
(0.028113 -0.018173 0.0036031)
(0.018073 -0.011238 0.0021676)
(0.012373 -0.0071283 0.0013567)
(0.0086299 -0.0052317 0.0010088)
(0.0056405 -0.0040266 0.00078815)
(0.0033783 -0.0027229 0.00053406)
(0.0020217 -0.0015575 0.0003046)
(0.00133 -0.00090497 0.00017719)
(0.099893 -0.0083753 0.0042144)
(0.086936 -0.020963 0.010496)
(0.066278 -0.025975 0.01287)
(0.045154 -0.02307 0.011228)
(0.028933 -0.016233 0.0077333)
(0.018775 -0.010179 0.0047845)
(0.012809 -0.0064914 0.0030542)
(0.0088742 -0.0047209 0.0022512)
(0.0058165 -0.0035989 0.0017241)
(0.0035364 -0.0024408 0.0011534)
(0.002143 -0.001419 0.00065744)
(0.001401 -0.00083139 0.00038433)
(0.098919 -0.0071681 0.0057589)
(0.086301 -0.017954 0.014407)
(0.066132 -0.022213 0.017767)
(0.045416 -0.019662 0.015638)
(0.029358 -0.013821 0.010922)
(0.019143 -0.0087017 0.0068487)
(0.013044 -0.0055918 0.0044051)
(0.0090081 -0.0040837 0.0032341)
(0.0059085 -0.0031002 0.0024589)
(0.0036159 -0.0020757 0.0016353)
(0.0022057 -0.0011927 0.00092974)
(0.00144 -0.00069972 0.00054413)
(0.098919 -0.0057591 0.007168)
(0.086301 -0.014407 0.017954)
(0.066132 -0.017767 0.022212)
(0.045415 -0.015639 0.019662)
(0.029358 -0.010923 0.01382)
(0.019143 -0.0068493 0.0087012)
(0.013044 -0.0044056 0.0055912)
(0.0090081 -0.0032347 0.0040831)
(0.0059085 -0.0024596 0.0030995)
(0.0036159 -0.0016358 0.0020751)
(0.0022057 -0.00093029 0.0011922)
(0.00144 -0.00054459 0.00069933)
(0.099893 -0.0042144 0.0083753)
(0.086936 -0.010496 0.020963)
(0.066277 -0.01287 0.025974)
(0.045154 -0.011229 0.02307)
(0.028933 -0.0077339 0.016232)
(0.018775 -0.0047852 0.010179)
(0.012809 -0.003055 0.0064907)
(0.0088742 -0.002252 0.0047201)
(0.0058165 -0.0017248 0.0035982)
(0.0035364 -0.0011541 0.0024402)
(0.0021431 -0.00065806 0.0014185)
(0.0014011 -0.00038492 0.00083094)
(0.10176 -0.0020475 0.0096921)
(0.088147 -0.0050758 0.024189)
(0.066545 -0.0061867 0.029801)
(0.044644 -0.005339 0.0262)
(0.028112 -0.0036044 0.018172)
(0.018073 -0.0021693 0.011237)
(0.012373 -0.0013584 0.0071273)
(0.0086299 -0.0010103 0.0052306)
(0.0056406 -0.00078947 0.0040257)
(0.0033784 -0.00053517 0.0027221)
(0.0020218 -0.00030554 0.001557)
(0.0013302 -0.00017797 0.00090463)
(0.10554 -0.0023951 0.010948)
(0.090462 -0.0059817 0.027217)
(0.066806 -0.007363 0.03319)
(0.043381 -0.0064479 0.028592)
(0.026457 -0.0044296 0.019251)
(0.016825 -0.0027202 0.011644)
(0.011661 -0.0017279 0.0073759)
(0.0082383 -0.0012869 0.005541)
(0.0053259 -0.0010001 0.0043216)
(0.0030816 -0.00066954 0.0028621)
(0.0018076 -0.00037263 0.0015572)
(0.0012178 -0.00021572 0.0008919)
(0.13668 -0.0064132 0.00095689)
(0.10863 -0.015815 0.0023996)
(0.066881 -0.019027 0.0031236)
(0.030918 -0.01591 0.0030368)
(0.012184 -0.010218 0.0023673)
(0.0073609 -0.0059159 0.0015014)
(0.007151 -0.0037042 0.00087871)
(0.0061404 -0.0028811 0.0005544)
(0.0033382 -0.0023014 0.00041309)
(0.0009021 -0.0014879 0.0003387)
(0.00027442 -0.00075197 0.0002553)
(0.00054954 -0.00041861 0.00015324)
(0.1341 -0.0059027 0.0012778)
(0.10731 -0.014586 0.0032383)
(0.067334 -0.017672 0.0042645)
(0.03238 -0.015 0.004207)
(0.013353 -0.0098671 0.0033377)
(0.0077751 -0.0057994 0.0021927)
(0.0071642 -0.003614 0.0013299)
(0.0061263 -0.002748 0.00084433)
(0.0035005 -0.0021806 0.00060439)
(0.001142 -0.0014483 0.00047078)
(0.00038529 -0.00077508 0.0003502)
(0.00053482 -0.00043735 0.00021346)
(0.13292 -0.0050769 0.0027458)
(0.1067 -0.012571 0.0068711)
(0.067475 -0.015398 0.0084413)