/*--------------------------------*- C++ -*----------------------------------*\
| =========                 |                                                 |
| \\      /  F ield         | OpenFOAM: The Open Source CFD Toolbox           |
|  \\    /   O peration     | Version:  4.1                                   |
|   \\  /    A nd           | Web:      www.OpenFOAM.org                      |
|    \\/     M anipulation  |                                                 |
\*---------------------------------------------------------------------------*/
FoamFile
{
    version     2.0;
    format      ascii;
    class       volVectorField;
    location    "0.000350";
    object      wallShearStress;
}
// * * * * * * * * * * * * * * * * * * * * * * * * * * * * * * * * * * * * * //

dimensions      [0 2 -2 0 0 0 0];

internalField   uniform (0 0 0);

boundaryField
{
    inlet
    {
        type            calculated;
        value           uniform (0 0 0);
    }
    outlet
    {
        type            calculated;
        value           nonuniform 0();
    }
    mantle
    {
        type            calculated;
        value           nonuniform List<vector> 
768
(
(-0.11403044 0.0099047261 0.00020730902)
(-0.12379402 0.011167373 -0.0025532721)
(-0.13666668 0.012015692 -0.0066528678)
(-0.1529185 0.012759735 -0.012593501)
(-0.17261456 0.012576793 -0.020611067)
(-0.19251586 0.011181239 -0.029707424)
(-0.21178806 0.0084506413 -0.039192161)
(-0.22691196 0.0032264363 -0.048062289)
(-0.11352136 -0.00013074134 0.00070645561)
(-0.12461006 0.0016813843 -0.00033599393)
(-0.13900465 0.0033241792 -0.0025440962)
(-0.15734219 0.0051349033 -0.006411986)
(-0.18009918 0.0065662102 -0.012317168)
(-0.20633866 0.0073270355 -0.020512581)
(-0.23343925 0.0067279026 -0.030111334)
(-0.25602893 0.0030297029 -0.038970329)
(-0.11032182 -0.0034068286 0.00050204497)
(-0.12192898 -0.0024281181 -0.00016061012)
(-0.13687044 -0.0016746526 -0.0011626037)
(-0.1557481 -0.00076189233 -0.0028251759)
(-0.17940328 0.00021317145 -0.0054084054)
(-0.20783168 0.0011637564 -0.0091739535)
(-0.2393165 0.0018833927 -0.01434065)
(-0.26531846 0.0011927874 -0.019217046)
(-0.1073842 -0.0030819723 0.00015918285)
(-0.11930382 -0.0026142977 -0.00054445647)
(-0.1346289 -0.0024591112 -0.0013587624)
(-0.15368493 -0.0023509386 -0.0022939929)
(-0.17736383 -0.0021679109 -0.0033332936)
(-0.20603893 -0.0016994955 -0.0046375157)
(-0.2384735 -0.00087987457 -0.0063982777)
(-0.26521599 6.8591678e-05 -0.0082701174)
(-0.10706011 -0.00075674387 -0.00027782485)
(-0.11914798 -0.00059270237 -0.0012720152)
(-0.13470342 -0.00085250766 -0.0023618991)
(-0.15389838 -0.0013258684 -0.0033676478)
(-0.17760841 -0.0018170926 -0.0041423707)
(-0.20620476 -0.0019530006 -0.0047174437)
(-0.23848048 -0.0014688908 -0.0051750312)
(-0.26467361 -0.00011150621 -0.0058970361)
(-0.10894936 0.0013209148 -0.00062994469)
(-0.12099857 0.0013070898 -0.0019366338)
(-0.13652041 0.00073715405 -0.0033272921)
(-0.15567637 -0.00014552928 -0.0045117195)
(-0.17926371 -0.0010884171 -0.005320405)
(-0.20771907 -0.0016240881 -0.0057810617)
(-0.23964951 -0.0014205813 -0.0059702725)
(-0.26516615 -2.8853056e-05 -0.0067020812)
(-0.11232564 0.0027658109 -0.00087833062)
(-0.12413938 0.0026301772 -0.0024437191)
(-0.13935351 0.0018143748 -0.0040504949)
(-0.15819714 0.00061199015 -0.0053255319)
(-0.18148377 -0.00066545271 -0.0060993244)
(-0.20958726 -0.0014699786 -0.0064470994)
(-0.24098535 -0.0014405916 -0.0064787849)
(-0.26605648 -2.4789898e-06 -0.0073741232)
(-0.11680961 0.0039087592 -0.0010671397)
(-0.12822417 0.0036463572 -0.0028287215)
(-0.14293752 0.0025973178 -0.0045633709)
(-0.16126092 0.0010921415 -0.0058292203)
(-0.18391003 -0.00048569165 -0.0064567048)
(-0.21134882 -0.0015157189 -0.0065737518)
(-0.24182479 -0.0015832993 -0.0063418467)
(-0.26647314 -3.5724935e-05 -0.0071843748)
(-0.12243799 0.0049050431 -0.001218861)
(-0.13321753 0.0044965061 -0.0031286298)
(-0.14714219 0.0032167886 -0.0049242455)
(-0.16457051 0.0014271745 -0.0061068269)
(-0.18625665 -0.00041229886 -0.0065236283)
(-0.21262189 -0.0016451646 -0.0063102186)
(-0.2418046 -0.0017579464 -0.0057388095)
(-0.26572869 -8.7924946e-05 -0.0063428998)
(-0.12895196 0.005867886 -0.0013514082)
(-0.13889698 0.0053015542 -0.0033836897)
(-0.15181373 0.0037938433 -0.005192337)
(-0.16812414 0.0017348062 -0.0062387988)
(-0.18852573 -0.00036186124 -0.006367876)
(-0.21337964 -0.0017617995 -0.0057662308)
(-0.24083148 -0.0019038871 -0.0047928767)
(-0.26364458 -0.00015491534 -0.0050636704)
(-0.13666161 0.0068048882 -0.0014618764)
(-0.14551865 0.0060455377 -0.0035777214)
(-0.15711456 0.0043034596 -0.0053475455)
(-0.17192514 0.0019957723 -0.0062123316)
(-0.19060127 -0.00031185378 -0.0060238315)
(-0.21354583 -0.0018420801 -0.0050037932)
(-0.23889774 -0.0020097768 -0.0036170849)
(-0.26024397 -0.00023313166 -0.0035321305)
(-0.14524879 0.007649878 -0.0015426413)
(-0.15268754 0.0066853849 -0.0036952726)
(-0.16268048 0.0047304528 -0.0053775261)
(-0.17577255 0.0022257969 -0.0060371088)
(-0.19249435 -0.00025515212 -0.0055126185)
(-0.21311492 -0.0018793702 -0.0040904337)
(-0.23600722 -0.0020792399 -0.0023051035)
(-0.25557756 -0.00031385833 -0.001873223)
(-0.15483079 0.0084930589 -0.0016030112)
(-0.16054657 0.0073090359 -0.0037486995)
(-0.16866623 0.005129799 -0.0052897371)
(-0.17973405 0.0024233503 -0.0056936847)
(-0.19407898 -0.00018843339 -0.0048328761)
(-0.21209202 -0.0018881276 -0.0030433183)
(-0.23219578 -0.0021221899 -0.00092638295)
(-0.24972654 -0.00039568111 -0.00017615394)
(-0.16538112 0.0091899207 -0.0016217003)
(-0.16898464 0.0077863781 -0.0036987728)
(-0.17484917 0.0054220821 -0.0050563587)
(-0.1835209 0.0025617606 -0.0051903355)
(-0.19529973 -0.00010337877 -0.0040418534)
(-0.21039826 -0.0018553166 -0.0019201625)
(-0.22751363 -0.0021239266 0.00045322501)
(-0.24281567 -0.00047061155 0.0014686831)
(-0.17653724 0.0098095426 -0.0016072788)
(-0.17772141 0.0081855091 -0.0035641944)
(-0.18110089 0.0056609275 -0.0047013301)
(-0.18717263 0.0026947559 -0.0045692265)
(-0.19615102 -1.2446584e-05 -0.003141236)
(-0.20809427 -0.0017719453 -0.0007864606)
(-0.22204051 -0.0020757497 0.0017749695)
(-0.23502089 -0.0005308998 0.0030008892)
(-0.18863684 0.010141845 -0.0015306478)
(-0.18694384 0.0083385138 -0.0032971921)
(-0.1874376 0.0057228298 -0.0041844805)
(-0.19056572 0.0027248045 -0.00379414)
(-0.1964434 5.6425578e-05 -0.0021469194)
(-0.20521183 -0.0016758956 0.00037085441)
(-0.21589064 -0.0019917004 0.0030164034)
(-0.226499 -0.00058123661 0.0043930076)
(-0.20066757 0.010129206 -0.0013848059)
(-0.195865 0.0082295694 -0.0028951838)
(-0.19336157 0.0056145753 -0.0035184991)
(-0.19347828 0.0026848375 -0.0029067451)
(-0.19626458 0.00010705557 -0.0010921322)
(-0.20168641 -0.00156687 0.0015211151)
(-0.20917217 -0.0018824298 0.0041677117)
(-0.2174469 -0.00062514839 0.0056616042)
(-0.21296819 0.009896473 -0.0011834585)
(-0.20476968 0.007935311 -0.0023658958)
(-0.19906633 0.005357333 -0.0027007964)
(-0.19605399 0.0025306642 -0.0018845542)
(-0.19552728 9.1104244e-05 2.592239e-05)
(-0.19764202 -0.0014530566 0.0026115247)
(-0.202007 -0.0017536356 0.0052286125)
(-0.207919 -0.00065949566 0.0068250633)
(-0.2249003 0.009225299 -0.00091300652)
(-0.21308723 0.0073134503 -0.0016996546)
(-0.20406899 0.0048848775 -0.0017411653)
(-0.19783175 0.0022615407 -0.00076506376)
(-0.19420357 4.544053e-05 0.0011413186)
(-0.19323693 -0.0013566554 0.0036527996)
(-0.19453486 -0.0016142333 0.0061622289)
(-0.19805543 -0.00068589044 0.0078161723)
(-0.23607766 0.0083138898 -0.00059764119)
(-0.22067216 0.0065213196 -0.00094975227)
(-0.20839807 0.0043123553 -0.00071665878)
(-0.19906511 0.00195142 0.00036975976)
(-0.19246546 -3.3577693e-05 0.0022411229)
(-0.18843454 -0.0012666742 0.0046008146)
(-0.18690119 -0.0014705118 0.0069109853)
(-0.18808678 -0.0007050156 0.0085431075)
(-0.24653039 0.0068584203 -0.00021787675)
(-0.22749508 0.0053484711 -9.3515089e-05)
(-0.21199131 0.0034913208 0.00040272149)
(-0.19962604 0.0015004817 0.0015443206)
(-0.19014142 -0.00017280352 0.0032978884)
(-0.18340559 -0.0011752993 0.0053983001)
(-0.1792928 -0.0013223951 0.0074589009)
(-0.17829372 -0.00071499632 0.0089922416)
(-0.25493617 0.0050969936 0.00019630894)
(-0.2327365 0.0039740205 0.00081984277)
(-0.21439296 0.0025454159 0.0015496089)
(-0.19937915 0.00099082162 0.0026780874)
(-0.18741398 -0.00031049561 0.0042349473)
(-0.17830367 -0.0010904111 0.0060616316)
(-0.17185318 -0.0011785289 0.007816641)
(-0.16886631 -0.00072032989 0.0091975922)
(-0.26208098 0.0029954576 0.00063854321)
(-0.23696338 0.0023769153 0.0017723319)
(-0.21601571 0.0014771861 0.0027035107)
(-0.19863423 0.00041862509 0.0037804907)
(-0.18446703 -0.00049267799 0.0051035603)
(-0.17320911 -0.0010291185 0.0065917875)
(-0.16473414 -0.001048331 0.0080010487)
(-0.1599894 -0.0007179857 0.009195113)
(-0.26641265 0.00066547866 0.0010844174)
(-0.23922259 0.00064936343 0.0027234331)
(-0.21629012 0.00033004226 0.0038178718)
(-0.19705102 -0.00018564633 0.0047966355)
(-0.18112696 -0.00067736563 0.0058494218)
(-0.16821536 -0.00095811694 0.006963941)
(-0.15808141 -0.00091014737 0.008010898)
(-0.15180655 -0.00069968871 0.0090086811)
(-0.2269379 -0.0032681341 -0.04804387)
(-0.21181139 -0.0084283198 -0.039218129)
(-0.19250854 -0.011203718 -0.029736539)
(-0.17251991 -0.012576642 -0.020600248)
(-0.15286994 -0.0127339 -0.012593677)
(-0.13663834 -0.012012771 -0.0066662068)
(-0.1237562 -0.011169642 -0.0025622956)
(-0.11399126 -0.0099121759 0.00020312001)
(-0.25608953 -0.003068457 -0.03894736)
(-0.2334963 -0.0067077775 -0.030135401)
(-0.20634131 -0.0073572481 -0.020537274)
(-0.17998781 -0.0065717687 -0.012322364)
(-0.15729003 -0.0051149177 -0.0064306693)
(-0.13897459 -0.0033257641 -0.0025697044)
(-0.12457063 -0.0016922718 -0.00035253405)
(-0.11348388 0.00011386017 0.00069968538)
(-0.26539586 -0.0012166407 -0.019184923)
(-0.23939017 -0.0018750804 -0.014345125)
(-0.20785111 -0.0011934318 -0.0091853415)
(-0.1793336 -0.00023092961 -0.0054333649)
(-0.15571022 0.00076991391 -0.0028499719)
(-0.1368409 0.0016733362 -0.0011870408)
(-0.12189394 0.0024186586 -0.00017716858)
(-0.11029011 0.0033936125 0.00049481223)
(-0.26527558 -7.4444737e-05 -0.0082389409)
(-0.23853068 0.00087863403 -0.0063892712)
(-0.2060682 0.0016785795 -0.0046388909)
(-0.17735187 0.0021496886 -0.0033557633)
(-0.15366602 0.00234912 -0.0023098281)
(-0.13460021 0.0024579709 -0.0013715776)
(-0.11927061 0.0026108959 -0.00055374062)
(-0.10735312 0.0030782711 0.00015477472)
(-0.2647051 0.00011542903 -0.0058780029)
(-0.23851636 0.0014634754 -0.0051650798)
(-0.206241 0.0019393622 -0.0047155905)
(-0.17762277 0.0018041577 -0.0041481422)
(-0.15388846 0.0013199374 -0.0033672475)
(-0.13467542 0.00085199538 -0.002359471)
(-0.11911412 0.00059525378 -0.0012708366)
(-0.10702799 0.00076098391 -0.00027785519)
(-0.26517995 3.2458317e-05 -0.0066953187)
(-0.23966489 0.0014124071 -0.0059679882)
(-0.20775426 0.0016122184 -0.0057769699)
(-0.17928007 0.0010761141 -0.005312578)
(-0.15566763 0.000137012 -0.0044987101)
(-0.13649202 -0.00073905131 -0.003313597)
(-0.12096305 -0.0013033608 -0.001926704)
(-0.10891418 -0.0013136146 -0.00062560906)
(-0.26606379 1.7689288e-06 -0.007373168)
(-0.24100143 0.0014297618 -0.0064824359)
(-0.2096156 0.0014558905 -0.0064409307)
(-0.18149293 0.00064990919 -0.0060845589)
(-0.15818684 -0.00062342404 -0.0053049691)
(-0.13932824 -0.001818823 -0.0040300441)
(-0.12410866 -0.0026279132 -0.0024286331)
(-0.11229494 -0.0027591635 -0.00087126936)
(-0.26647631 3.1025398e-05 -0.0071833783)
(-0.24183474 0.0015702881 -0.0063411945)
(-0.21136715 0.0014987531 -0.0065642004)
(-0.18391274 0.00046825947 -0.0064376628)
(-0.16124836 -0.0011044493 -0.0058042039)
(-0.14291487 -0.0026015538 -0.0045384507)
(-0.12819809 -0.003642337 -0.0028098373)
(-0.11678416 -0.0038992316 -0.0010579756)
(-0.26572648 7.7437749e-05 -0.0063396169)
(-0.24180439 0.0017414992 -0.0057322155)
(-0.21263244 0.0016265608 -0.0062960011)
(-0.18625303 0.00039506536 -0.0065006398)
(-0.16455573 -0.0014378577 -0.0060784687)
(-0.14712 -0.0032188952 -0.0048967943)
(-0.13319194 -0.0044899833 -0.0031078786)
(-0.12241173 -0.0048923063 -0.001208496)
(-0.26363648 0.00013973643 -0.0050588955)
(-0.24082177 0.0018851606 -0.0047805507)
(-0.21338283 0.0017432776 -0.0057443343)
(-0.18851816 0.00034533631 -0.0063399928)
(-0.16810553 -0.001744113 -0.0062077371)
(-0.15179094 -0.0037950342 -0.0051641689)
(-0.13887282 -0.0052951205 -0.003363043)
(-0.12892777 -0.0058567155 -0.0013412697)
(-0.26022982 0.0002176253 -0.0035269881)
(-0.23887404 0.0019916389 -0.0036015842)
(-0.21352941 0.0018256716 -0.0049766152)
(-0.19058487 0.00029847783 -0.0059915005)
(-0.17190501 -0.0020026956 -0.0061791754)
(-0.15709509 -0.0043028046 -0.0053185342)
(-0.14550025 -0.0060388303 -0.003557053)
(-0.13664711 -0.0067946313 -0.0014519713)
(-0.25555624 0.00030226967 -0.0018690545)
(-0.23596793 0.0020644007 -0.0022924881)
(-0.21307733 0.0018652125 -0.0040675118)
(-0.19245954 0.00024420937 -0.0054831836)
(-0.17574239 -0.0022304924 -0.0060057751)
(-0.16265814 -0.0047269828 -0.0053486816)
(-0.15267424 -0.0066767574 -0.0036743453)
(-0.1452443 -0.0076373792 -0.0015322241)
(-0.24969692 0.00039032343 -0.00017409901)
(-0.2321413 0.0021130321 -0.00092007186)
(-0.21203671 0.0018766218 -0.0030305351)
(-0.19402822 0.00017725919 -0.0048136449)
(-0.17969237 -0.0024303925 -0.0056708913)
(-0.1686341 -0.0051309708 -0.0052673057)
(-0.16053226 -0.0073055847 -0.0037314679)
(-0.15483145 -0.0084857671 -0.0015937736)
(-0.24277862 0.00047185648 0.0014677695)
(-0.22744319 0.0021217787 0.00045334187)
(-0.21032468 0.0018478124 -0.0019176564)
(-0.1952328 9.270639e-05 -0.0040340694)
(-0.18346909 -0.0025723713 -0.005179126)
(-0.17481738 -0.0054314925 -0.00504474)
(-0.16897888 -0.0077933989 -0.0036888941)
(-0.16539692 -0.0091955739 -0.0016154837)
(-0.23498255 0.00053672775 0.0029983118)
(-0.22195937 0.0020792918 0.0017704957)
(-0.20800752 0.0017697242 -0.00079101893)
(-0.19607142 5.2289749e-06 -0.0031433794)
(-0.1871131 -0.0027040323 -0.0045686673)
(-0.1810684 -0.0056714867 -0.0046994681)
(-0.17772142 -0.0081964493 -0.0035613808)
(-0.17656805 -0.0098214025 -0.0016041375)
(-0.22646358 0.00058885427 0.0043904981)
(-0.21580906 0.0019980072 0.0030091463)
(-0.20511923 0.0016781518 0.00036250961)
(-0.19635907 -5.8269515e-05 -0.002156061)
(-0.19049996 -0.0027293568 -0.0038021085)
(-0.18740013 -0.0057306636 -0.0041911258)
(-0.18694118 -0.0083494264 -0.0033010885)
(-0.18866892 -0.010155166 -0.0015305633)
(-0.21741788 0.00063177594 0.0056594775)
(-0.20910063 0.0018893039 0.004159683)
(-0.20160108 0.0015722115 0.0015101267)
(-0.19618465 -0.0001033785 -0.001104234)
(-0.19341246 -0.0026845859 -0.0029194853)
(-0.19332122 -0.0056208912 -0.0035316532)
(-0.19585921 -0.0082416247 -0.0029051624)
(-0.20069755 -0.010146815 -0.0013884759)
(-0.20789725 0.00066465775 0.0068235041)
(-0.20195133 0.0017596557 0.0052209766)
(-0.19757005 0.0014593541 0.0026004038)
(-0.19545034 -8.4645051e-05 1.3849264e-05)
(-0.19598692 -0.0025266562 -0.0018981471)
(-0.19902937 -0.0053586193 -0.002715361)
(-0.20476564 -0.0079432588 -0.0023783094)
(-0.21299925 -0.0099117772 -0.001189705)
(-0.19803899 0.00068982083 0.0078148246)
(-0.1944913 0.0016184222 0.006157007)
(-0.19317918 0.001360785 0.0036443082)
(-0.19413516 -4.0612529e-05 0.0011319592)
(-0.19776749 -0.0022571046 -0.00077577714)
(-0.20402538 -0.0048810154 -0.0017518687)
(-0.21307379 -0.0073146679 -0.0017098371)
(-0.22491817 -0.0092330538 -0.0009193784)
(-0.18807237 0.00070675917 0.0085429211)
(-0.18686428 0.00147141 0.0069082497)
(-0.18838728 0.0012671479 0.0045979067)
(-0.19240528 3.5399924e-05 0.0022382855)
(-0.19900551 -0.0019482372 0.00036637721)
(-0.20835351 -0.0043078795 -0.00072045173)
(-0.2206548 -0.006517852 -0.0009542414)
(-0.23608655 -0.0083129678 -0.0006014492)
(-0.17828059 0.00071226583 0.0089927108)
(-0.17926073 0.0013188802 0.0074590151)
(-0.18336495 0.0011712864 0.005400585)
(-0.19008909 0.00017047967 0.003301955)
(-0.19957221 -0.0014991654 0.0015486898)
(-0.21194952 -0.0034852813 0.00040686655)
(-0.22747639 -0.005338996 -9.1267995e-05)
(-0.24653296 -0.0068462288 -0.00021831433)
(-0.1688559 0.00071256266 0.0091990641)
(-0.17182628 0.0011706169 0.0078189646)
(-0.17826988 0.0010838881 0.0060688127)
(-0.18737117 0.00030579485 0.0042436694)
(-0.19933491 -0.00099000937 0.0026883147)
(-0.21435852 -0.0025373373 0.001559013)
(-0.23272086 -0.003959344 0.00082578136)
(-0.25493402 -0.005077273 0.00019766776)
(-0.15998197 0.00070657749 0.0091960344)
(-0.16471456 0.0010379932 0.0080047782)
(-0.17317753 0.0010212046 0.0065997831)
(-0.18443447 0.00048869262 0.0051140849)
(-0.19860041 -0.00041623493 0.0037923237)
(-0.21598843 -0.0014671507 0.002713239)
(-0.23695092 -0.0023594204 0.0017769441)
(-0.26207531 -0.0029733613 0.00063854663)
(-0.15180445 0.00068801838 0.0090090241)
(-0.15807282 0.00089983262 0.0080155791)
(-0.16819616 0.00095070844 0.0069705308)
(-0.18110109 0.00067636817 0.0058580705)
(-0.19702255 0.00019075081 0.0048045139)
(-0.21626548 -0.00031922532 0.0038227813)
(-0.23920837 -0.00063479194 0.0027236797)
(-0.26639784 -0.00064965439 0.0010813836)
(-0.11399297 -0.0099117799 -0.00020591266)
(-0.12375876 -0.011172778 0.0025576529)
(-0.13663529 -0.012018591 0.0066599621)
(-0.15289314 -0.012758642 0.012600589)
(-0.17259291 -0.012573558 0.020614308)
(-0.19250072 -0.01117804 0.029705559)
(-0.21177396 -0.0084489301 0.039186369)
(-0.22689688 -0.0032261748 0.048053449)
(-0.11348772 0.00011390659 -0.00070186741)
(-0.12457722 -0.0016955018 0.00034637236)
(-0.1389753 -0.0033342743 0.0025605044)
(-0.15731919 -0.0051380992 0.0064299942)
(-0.18008238 -0.0065645839 0.012331534)
(-0.20632301 -0.0073242873 0.020519621)
(-0.2334236 -0.0067258721 0.030110865)
(-0.25600541 -0.003028599 0.038965097)
(-0.11029524 0.0033931799 -0.00049937396)
(-0.12190382 0.0024163418 0.00016929262)
(-0.13684987 0.0016657446 0.001176347)
(-0.15573546 0.00075757909 0.0028413789)
(-0.17939882 -0.00021390652 0.0054222185)
(-0.20783021 -0.0011651728 0.0091845042)
(-0.23930245 -0.0018856274 0.01434377)
(-0.26529091 -0.0011947037 0.019218318)
(-0.10735924 0.0030780095 -0.00016115333)
(-0.1192819 0.0026098605 0.00054574859)
(-0.1346135 0.0024546916 0.0013622432)
(-0.1536794 0.0023468111 0.0022991547)
(-0.17736766 0.0021638998 0.0033385783)
(-0.20604588 0.0016941025 0.0046429717)
(-0.23845981 0.00087345521 0.0064026105)
(-0.26518516 -7.3669606e-05 0.0082743377)
(-0.10703374 0.00076108981 0.00027122994)
(-0.11912486 0.00059486218 0.0012641191)
(-0.1346876 0.00085177271 0.0023525814)
(-0.15389222 0.0013207342 0.0033592523)
(-0.17761099 0.0018085008 0.0041367504)
(-0.20620933 0.0019421264 0.0047160566)
(-0.23846184 0.0014592091 0.0051743506)
(-0.26463101 0.00010490991 0.0058991491)
(-0.10891872 -0.0013137436 0.00062030104)
(-0.1209715 -0.0013032928 0.0019213403)
(-0.13650005 -0.00073864834 0.0033084753)
(-0.15566599 0.00013719386 0.0044930317)
(-0.17926058 0.0010740612 0.0053063687)
(-0.20771476 0.0016073092 0.0057741603)
(-0.2396051 0.0014062427 0.0059681345)
(-0.26510142 2.0003765e-05 0.0067018859)
(-0.11229905 -0.0027592649 0.0008679323)
(-0.12411525 -0.0026276231 0.002425098)
(-0.13933337 -0.0018184398 0.004026364)
(-0.1581829 -0.00062402139 0.0053007735)
(-0.18147349 0.00064670382 0.0060797535)
(-0.20957134 0.0014492744 0.0064357739)
(-0.24093054 0.0014212468 0.006478066)
(-0.26596888 -1.0146075e-05 0.0073725256)
(-0.11678812 -0.003898769 0.0010569943)
(-0.1282034 -0.0036414074 0.0028083711)
(-0.14291873 -0.0026005823 0.0045363342)
(-0.16124475 -0.001104624 0.005801123)
(-0.18389341 0.00046624165 0.0064327519)
(-0.21132018 0.0014924952 0.0065589071)
(-0.2417561 0.0015607928 0.0063359471)
(-0.26636533 1.954302e-05 0.0071805347)
(-0.12241568 -0.0048918705 0.0012104051)
(-0.13319684 -0.0044891801 0.0031090136)
(-0.14712359 -0.003217938 0.0048968611)
(-0.1645528 -0.0014376118 0.0060771315)
(-0.18623357 0.00039357878 0.0064977613)
(-0.21258873 0.0016212378 0.006292171)
(-0.24172383 0.0017327621 0.005727326)
(-0.26560657 6.7392864e-05 0.0063366483)
(-0.12893383 -0.0058568879 0.0013460413)
(-0.13888028 -0.0052950233 0.0033671276)
(-0.1517968 -0.0037943972 0.0051670391)
(-0.16810443 -0.0017433366 0.0062088345)
(-0.18850322 0.0003448332 0.006339503)
(-0.21334392 0.001741098 0.005739474)
(-0.2407424 0.0018794115 0.0047754787)
(-0.26351553 0.00013235715 0.0050549389)
(-0.13665554 -0.0067946972 0.0014593121)
(-0.14551137 -0.0060379896 0.0035639118)
(-0.15710369 -0.0043008109 0.0053239412)
(-0.17190742 -0.0020001624 0.0061824579)
(-0.19057576 0.00030044816 0.0059919972)
(-0.21349088 0.0018271167 0.0049709617)
(-0.23879975 0.0019896348 0.0035951111)
(-0.26011625 0.00021229089 0.0035205372)
(-0.14525411 -0.0076368736 0.0015424057)
(-0.15268843 -0.0066741936 0.0036840161)
(-0.16267084 -0.0047228115 0.0053562355)
(-0.17575171 -0.0022237775 0.0060090465)
(-0.19246 0.00025139816 0.0054818827)
(-0.21304645 0.0018694623 0.0040626468)
(-0.23590338 0.0020642086 0.0022838131)
(-0.25545393 0.00029701391 0.0018605417)
(-0.15484304 -0.0084837601 0.0016060445)
(-0.16055167 -0.0072992826 0.0037430339)
(-0.16865518 -0.0051213606 0.0052754341)
(-0.17970456 -0.0024189397 0.0056736498)
(-0.19403126 0.00018865136 0.0048103171)
(-0.21202001 0.0018828735 0.0030241169)
(-0.2320897 0.0021128768 0.00090900651)
(-0.24960739 0.00038427565 0.00016466954)
(-0.16540647 -0.0091928079 0.0016295896)
(-0.16899606 -0.0077844339 0.0037017319)
(-0.17483623 -0.005418159 0.0050535373)
(-0.18348638 -0.0025590077 0.0051828374)
(-0.19524486 0.0001040678 0.0040312754)
(-0.2103219 0.001853997 0.0019093045)
(-0.22740611 0.0021204236 -0.00046467943)
(-0.24270339 0.00046487929 -0.0014770906)
(-0.17657752 -0.0098185708 0.001619)
(-0.17774007 -0.008187906 0.0035752706)
(-0.18108944 -0.0056587571 0.0047093862)
(-0.18713667 -0.0026904338 0.0045721996)
(-0.19609369 1.5783523e-05 0.0031402728)
(-0.20801726 0.0017750734 0.00078213763)
(-0.22193908 0.0020766496 -0.0017795622)
(-0.2349233 0.00052953686 -0.003005593)
(-0.18867662 -0.01015252 0.0015443716)
(-0.18695839 -0.0083420748 0.0033144396)
(-0.18742145 -0.0057197648 0.0042009166)
(-0.19052617 -0.0027176824 0.0038057864)
(-0.19638688 -4.9678149e-05 0.0021537981)
(-0.20513676 0.0016825086 -0.00036933557)
(-0.21580454 0.0019957034 -0.0030154944)
(-0.22642191 0.00058254365 -0.0043944937)
(-0.20070337 -0.010145274 0.0013995554)
(-0.19587509 -0.0082373419 0.0029169553)
(-0.19334394 -0.0056142052 0.0035416521)
(-0.19344246 -0.0026767942 0.0029248042)
(-0.19621763 -9.7268297e-05 0.0011045564)
(-0.20162398 0.0015754459 -0.0015133497)
(-0.20910654 0.0018882321 -0.0041636894)
(-0.21739074 0.00062752501 -0.0056612248)
(-0.21300226 -0.0099108947 0.0011973066)
(-0.20478028 -0.0079410312 0.0023881884)
(-0.19905496 -0.0053545376 0.0027251996)
(-0.1960206 -0.0025213061 0.0019047408)
(-0.19548692 -7.9785963e-05 -1.1556937e-05)
(-0.19759755 0.0014619633 -0.0026012423)
(-0.2019632 0.001759732 -0.0052226303)
(-0.20787947 0.00066307903 -0.0068239127)
(-0.22491711 -0.0092320344 0.00092452997)
(-0.21308481 -0.0073126601 0.0017179595)
(-0.20405209 -0.0048775697 0.0017608353)
(-0.19780526 -0.002252962 0.00078248803)
(-0.19417566 -3.6573932e-05 -0.0011287504)
(-0.19321029 0.0013630597 -0.0036432048)
(-0.19450868 0.0016192712 -0.0061569584)
(-0.19802966 0.00068971184 -0.0078147933)
(-0.23608146 -0.0083118124 0.00060596155)
(-0.22066326 -0.0065163122 0.00096128178)
(-0.20838257 -0.0043059666 0.00072817959)
(-0.19904607 -0.0019458806 -0.00036043932)
(-0.19244713 3.8083492e-05 -0.0022348034)
(-0.18842171 0.0012694677 -0.0045961614)
(-0.18688467 0.0014730038 -0.0069082781)
(-0.18806977 0.00070770007 -0.0085421658)
(-0.2465256 -0.0068451011 0.0002222078)
(-0.22748532 -0.0053372066 9.643922e-05)
(-0.21198325 -0.0034836238 -0.0004019531)
(-0.1996163 -0.001497234 -0.0015451029)
(-0.19013147 0.00017277563 -0.0032996237)
(-0.18339675 0.001174149 -0.0053993565)
(-0.17927944 0.0013217873 -0.0074588595)
(-0.17828216 0.00071508679 -0.0089919216)
(-0.25492489 -0.0050763751 -0.00019521814)
(-0.23272765 -0.0039574714 -0.00082323971)
(-0.214391 -0.0025354599 -0.0015570862)
(-0.1993751 -0.00098752997 -0.0026873271)
(-0.18740741 0.00030886744 -0.0042431352)
(-0.17829561 0.0010873963 -0.0060680529)
(-0.17184028 0.0011749054 -0.0078186962)
(-0.16885833 0.00071733852 -0.0091981594)
(-0.26206516 -0.002972861 -0.00063822644)
(-0.23695583 -0.0023584963 -0.001776792)
(-0.21601842 -0.0014661647 -0.0027132637)
(-0.19863412 -0.00041454014 -0.0037925085)
(-0.18446202 0.0004914582 -0.0051140786)
(-0.17319529 0.0010251789 -0.0065993181)
(-0.16472142 0.0010432277 -0.0080042974)
(-0.15998275 0.00071269369 -0.009194991)
(-0.26638591 -0.00064988801 -0.0010836411)
(-0.23920982 -0.00063539361 -0.0027250496)
(-0.21629102 -0.00031957294 -0.0038232301)
(-0.19704914 0.00019117571 -0.0048043436)
(-0.18111958 0.00067803551 -0.0058570787)
(-0.16820421 0.00095431915 -0.0069692502)
(-0.15807232 0.00090476446 -0.0080145815)
(-0.15180288 0.00069391523 -0.0090073246)
(-0.22692345 0.0032681868 0.048036979)
(-0.21180032 0.0084318375 0.039207374)
(-0.19250576 0.011208766 0.029720724)
(-0.1725289 0.012580817 0.020580443)
(-0.15288836 0.01273512 0.012573341)
(-0.13666694 0.012009963 0.0066495935)
(-0.12379208 0.011164612 0.0025512819)
(-0.11402973 0.0099045243 -0.0002091324)
(-0.25606088 0.0030709754 0.038940248)
(-0.23346964 0.0067146162 0.030121946)
(-0.2063256 0.0073663946 0.020515202)
(-0.17998653 0.0065790391 0.012294458)
(-0.15730643 0.0051161977 0.0064016433)
(-0.13900368 0.0033196292 0.0025447795)
(-0.12460672 0.001679587 0.00033537043)
(-0.11351927 -0.0001309829 -0.00070854011)
(-0.26535444 0.0012174958 0.019184051)
(-0.23934292 0.0018811989 0.014339037)
(-0.20781221 0.0012042803 0.0091693658)
(-0.17931878 0.00024189028 0.0054115159)
(-0.15571937 -0.00076474734 0.0028244974)
(-0.1368658 -0.0016756363 0.0011638993)
(-0.12192506 -0.0024276762 0.0001604164)
(-0.11031898 -0.0034069601 -0.00050403979)
(-0.26522355 7.3021619e-05 0.0082431446)
(-0.23847333 -0.00087492092 0.0063901432)
(-0.20601651 -0.0016697934 0.0046329934)
(-0.17732801 -0.0021401076 0.003344538)
(-0.15366916 -0.0023426209 0.0022948917)
(-0.13462171 -0.0024555718 0.0013567231)
(-0.11929941 -0.0026124652 0.00054188889)
(-0.10738129 -0.0030820367 -0.00016217612)
(-0.26463835 -0.00011754943 0.005882767)
(-0.2384445 -0.0014630242 0.0051691278)
(-0.20617848 -0.0019373575 0.0047147681)
(-0.17759284 -0.0018008765 0.0041458068)
(-0.15388769 -0.0013162489 0.0033638964)
(-0.13469487 -0.00084705991 0.0023560214)
(-0.11914332 -0.0005900351 0.0012666913)
(-0.10705808 -0.00075634505 0.00027330931)
(-0.26509542 -3.6041275e-05 0.0066980889)
(-0.2395893 -0.0014166791 0.0059716607)
(-0.20768069 -0.0016183682 0.0057782912)
(-0.17924067 -0.0010814797 0.0053161569)
(-0.15566029 -0.00014004807 0.0045036142)
(-0.13651103 0.00074069112 0.0033185265)
(-0.12099391 0.0013087264 0.0019283407)
(-0.10894783 0.0013211528 0.0006235668)
(-0.26595957 -8.7544366e-06 0.0073734492)
(-0.24091311 -0.0014396731 0.0064824801)
(-0.20952972 -0.0014681962 0.0064445308)
(-0.18144326 -0.0006623629 0.00609327)
(-0.15816787 0.00061375589 0.0053158314)
(-0.13933468 0.0018147337 0.0040397838)
(-0.12412966 0.0026300898 0.0024339718)
(-0.11232239 0.0027653096 0.00087080159)
(-0.26635514 -4.2180031e-05 0.007184008)
(-0.24173492 -0.001584474 0.0063433055)
(-0.21127346 -0.0015141559 0.0065724503)
(-0.1838539 -0.00048284528 0.0064521955)
(-0.16121561 0.0010938336 0.0058212746)
(-0.14290528 0.0025979253 0.0045541285)
(-0.12820627 0.0036464089 0.0028201776)
(-0.11680392 0.0039085899 0.001060616)
(-0.26559653 -9.427524e-05 0.0063418274)
(-0.24169795 -0.0017606308 0.0057389426)
(-0.21253201 -0.0016445024 0.0063094841)
(-0.18618889 -0.00041034665 0.0065196045)
(-0.1645154 0.001429156 0.006101113)
(-0.14710175 0.0032178125 0.0049177724)
(-0.13319449 0.004496703 0.0031231405)
(-0.12243081 0.0049050534 0.0012151377)
(-0.26350704 -0.00016145801 0.0050603854)
(-0.24071416 -0.0019092413 0.004790454)
(-0.21327784 -0.0017649894 0.0057630984)
(-0.18844483 -0.00036384998 0.0063624095)
(-0.16805964 0.0017325962 0.0062328507)
(-0.15176519 0.0037913344 0.0051875257)
(-0.13886869 0.0052996575 0.0033813037)
(-0.128943 0.0058671206 0.0013508181)
(-0.26010868 -0.00024101366 0.0035262876)
(-0.23877291 -0.0020180336 0.0036118324)
(-0.21342931 -0.0018497229 0.0049976711)
(-0.19050624 -0.000318443 0.0060178442)
(-0.17184591 0.0019886067 0.0062066819)
(-0.15705453 0.0042966698 0.0053445991)
(-0.14548452 0.0060407272 0.0035782598)
(-0.13665055 0.0068030426 0.0014642297)
(-0.2554483 -0.00032322596 0.001866033)
(-0.23587723 -0.002089352 0.0023000963)
(-0.21298512 -0.0018891572 0.0040864997)
(-0.19238603 -0.00026548536 0.0055073983)
(-0.17567962 0.0022159115 0.0060331042)
(-0.1626091 0.0047217128 0.0053766735)
(-0.15264643 0.0066785121 0.0036978207)
(-0.14523537 0.0076473619 0.0015472627)
(-0.24960344 -0.00040593045 0.00016874869)
(-0.23206592 -0.0021330646 0.00092387873)
(-0.211958 -0.001898148 0.0030442895)
(-0.19395299 -0.00019993216 0.0048303326)
(-0.1796246 0.0024131842 0.0056921106)
(-0.16858406 0.005120388 0.0052900894)
(-0.1604979 0.0073012599 0.0037518848)
(-0.15481487 0.0084899631 0.0016083579)
(-0.24269914 -0.0004811636 -0.0014741528)
(-0.22738556 -0.0021346381 -0.0004530222)
(-0.21026191 -0.0018636748 0.001924633)
(-0.19515894 -0.00011095094 0.004045017)
(-0.18339617 0.002553701 0.0051919541)
(-0.17475237 0.0054137734 0.0050581109)
(-0.16892599 0.0077792108 0.0037021687)
(-0.16536068 0.0091871708 0.0016270603)
(-0.23491667 -0.00054063949 -0.003002993)
(-0.22191657 -0.0020850965 -0.0017725136)
(-0.20795844 -0.0017776891 0.000792269)
(-0.19600811 -1.5102655e-05 0.0031481807)
(-0.1870345 0.0026917556 0.0045745963)
(-0.18099012 0.0056577612 0.0047063518)
(-0.17765169 0.008182496 0.0035695241)
(-0.17651099 0.0098086859 0.0016134639)
(-0.22641109 -0.00058892344 -0.0043927691)
(-0.21577582 -0.0019989642 -0.0030126117)
(-0.20507889 -0.0016798762 -0.00036446622)
(-0.19630396 5.5425958e-05 0.002154215)
(-0.19042984 0.0027247389 0.0038015256)
(-0.1873255 0.005722384 0.0041916099)
(-0.18687165 0.0083382176 0.003304002)