/*--------------------------------*- C++ -*----------------------------------*\
| =========                 |                                                 |
| \\      /  F ield         | foam-extend: Open Source CFD                    |
|  \\    /   O peration     | Version:     4.1-20200408                       |
|   \\  /    A nd           | Web:         http://www.foam-extend.org         |
|    \\/     M anipulation  |                                                 |
\*---------------------------------------------------------------------------*/
FoamFile
{
    version     2.0;
    format      ascii;
    class       volScalarField;
    location    "0.0455000";
    object      rho_0;
}
// * * * * * * * * * * * * * * * * * * * * * * * * * * * * * * * * * * * * * //

dimensions      [1 -3 0 0 0 0 0];

internalField   nonuniform List<scalar> 
1952
(
7854.72
7854.01
7853.01
7851.78
7850.16
7848.33
7846.05
7843.48
7840.55
7836.85
7832.55
7826.42
7819.5
7810.97
7805.39
7855.03
7854.66
7853.95
7852.94
7851.71
7850.08
7848.25
7845.97
7843.4
7840.47
7836.77
7832.47
7826.34
7819.42
7810.92
7805.38
7854.97
7854.6
7853.89
7852.89
7851.65
7850.02
7848.19
7845.9
7843.33
7840.4
7836.71
7832.41
7826.28
7819.37
7810.88
7805.36
7854.91
7854.56
7853.84
7852.84
7851.6
7849.97
7848.13
7845.84
7843.28
7840.34
7836.65
7832.35
7826.23
7819.33
7810.85
7805.35
7854.87
7854.52
7853.8
7852.79
7851.55
7849.92
7848.09
7845.8
7843.23
7840.3
7836.61
7832.31
7826.19
7819.3
7810.82
7805.33
7854.83
7854.48
7853.77
7852.76
7851.52
7849.88
7848.05
7845.75
7843.19
7840.26
7836.57
7832.28
7826.15
7819.27
7810.8
7805.32
7854.8
7854.46
7853.74
7852.73
7851.49
7849.85
7848.02
7845.72
7843.16
7840.23
7836.54
7832.25
7826.12
7819.24
7810.78
7805.3
7854.77
7854.43
7853.72
7852.7
7851.46
7849.82
7847.99
7845.69
7843.13
7840.2
7836.52
7832.22
7826.09
7819.21
7810.76
7805.29
7854.75
7854.42
7853.7
7852.68
7851.44
7849.8
7847.96
7845.66
7843.11
7840.18
7836.5
7832.2
7826.07
7819.19
7810.73
7805.27
7854.73
7854.4
7853.68
7852.67
7851.43
7849.78
7847.94
7845.64
7843.09
7840.16
7836.47
7832.17
7826.04
7819.16
7810.71
7805.25
7854.72
7854.39
7853.67
7852.66
7851.41
7849.77
7847.93
7845.62
7843.07
7840.14
7836.45
7832.15
7826.02
7819.13
7810.68
7805.23
7854.71
7854.39
7853.66
7852.65
7851.4
7849.76
7847.91
7845.6
7843.06
7840.12
7836.44
7832.13
7825.99
7819.1
7810.66
7805.2
7854.7
7854.38
7853.66
7852.64
7851.39
7849.75
7847.9
7845.59
7843.04
7840.11
7836.42
7832.11
7825.96
7819.07
7810.63
7805.17
7854.7
7854.38
7853.66
7852.64
7851.39
7849.74
7847.89
7845.57
7843.03
7840.09
7836.4
7832.08
7825.93
7819.04
7810.6
7805.14
7854.7
7854.38
7853.65
7852.63
7851.38
7849.73
7847.88
7845.56
7843.01
7840.07
7836.38
7832.06
7825.9
7819.01
7810.57
7805.11
7854.7
7854.38
7853.65
7852.63
7851.37
7849.72
7847.87
7845.54
7843
7840.05
7836.36
7832.03
7825.87
7818.98
7810.54
7805.08
7854.7
7854.38
7853.65
7852.63
7851.37
7849.71
7847.86
7845.53
7842.98
7840.03
7836.34
7832.01
7825.84
7818.94
7810.51
7805.05
7854.7
7854.38
7853.65
7852.62
7851.37
7849.71
7847.85
7845.51
7842.97
7840.02
7836.32
7831.98
7825.81
7818.91
7810.47
7805.01
7854.7
7854.39
7853.66
7852.63
7851.37
7849.7
7847.84
7845.5
7842.95
7840
7836.29
7831.95
7825.78
7818.87
7810.43
7804.97
7854.71
7854.39
7853.66
7852.63
7851.36
7849.7
7847.83
7845.49
7842.94
7839.98
7836.27
7831.91
7825.74
7818.83
7810.39
7804.93
7854.71
7854.4
7853.67
7852.63
7851.37
7849.7
7847.82
7845.48
7842.93
7839.96
7836.25
7831.88
7825.7
7818.79
7810.35
7804.88
7854.72
7854.42
7853.68
7852.64
7851.37
7849.69
7847.82
7845.46
7842.91
7839.93
7836.22
7831.84
7825.66
7818.74
7810.3
7804.83
7854.74
7854.43
7853.69
7852.65
7851.38
7849.69
7847.81
7845.45
7842.9
7839.92
7836.2
7831.81
7825.62
7818.69
7810.25
7804.78
7854.75
7854.45
7853.71
7852.67
7851.39
7849.7
7847.81
7845.45
7842.89
7839.9
7836.17
7831.77
7825.58
7818.64
7810.19
7804.72
7854.78
7854.48
7853.74
7852.69
7851.41
7849.71
7847.82
7845.45
7842.88
7839.88
7836.14
7831.73
7825.54
7818.59
7810.13
7804.65
7854.81
7854.52
7853.77
7852.71
7851.43
7849.72
7847.83
7845.45
7842.88
7839.86
7836.12
7831.69
7825.49
7818.53
7810.07
7804.58
7854.84
7854.56
7853.81
7852.75
7851.46
7849.75
7847.84
7845.45
7842.88
7839.85
7836.1
7831.65
7825.44
7818.47
7810
7804.51
7854.89
7854.62
7853.86
7852.8
7851.5
7849.78
7847.86
7845.47
7842.88
7839.84
7836.07
7831.61
7825.39
7818.4
7809.93
7804.42
7854.95
7854.69
7853.93
7852.86
7851.56
7849.82
7847.9
7845.49
7842.9
7839.84
7836.06
7831.58
7825.35
7818.33
7809.85
7804.33
7855.02
7854.78
7854.02
7852.94
7851.63
7849.89
7847.95
7845.53
7842.92
7839.85
7836.05
7831.54
7825.3
7818.26
7809.77
7804.23
7855.11
7854.89
7854.13
7853.04
7851.72
7849.97
7848.02
7845.58
7842.96
7839.86
7836.05
7831.52
7825.26
7818.19
7809.68
7804.11
7855.23
7855.03
7854.26
7853.17
7851.84
7850.07
7848.11
7845.66
7843.02
7839.9
7836.07
7831.5
7825.22
7818.12
7809.59
7804
7855.37
7855.2
7854.43
7853.32
7851.99
7850.2
7848.23
7845.76
7843.1
7839.95
7836.1
7831.49
7825.19
7818.05
7809.5
7803.87
7855.54
7855.4
7854.63
7853.51
7852.17
7850.37
7848.38
7845.89
7843.21
7840.03
7836.15
7831.51
7825.18
7817.99
7809.41
7803.73
7855.74
7855.65
7854.87
7853.74
7852.39
7850.57
7848.57
7846.05
7843.36
7840.14
7836.24
7831.54
7825.18
7817.94
7809.32
7803.59
7855.99
7855.94
7855.16
7854.02
7852.66
7850.83
7848.8
7846.27
7843.55
7840.3
7836.36
7831.61
7825.21
7817.91
7809.24
7803.45
7856.29
7856.29
7855.5
7854.36
7852.99
7851.14
7849.1
7846.54
7843.8
7840.51
7836.53
7831.72
7825.28
7817.9
7809.18
7803.31
7856.64
7856.69
7855.91
7854.75
7853.38
7851.51
7849.45
7846.87
7844.11
7840.77
7836.76
7831.89
7825.39
7817.93
7809.15
7803.18
7857.04
7857.15
7856.38
7855.21
7853.84
7851.96
7849.89
7847.28
7844.5
7841.12
7837.06
7832.13
7825.57
7818.01
7809.15
7803.07
7857.51
7857.68
7856.91
7855.75
7854.37
7852.48
7850.4
7847.79
7844.98
7841.57
7837.47
7832.46
7825.84
7818.17
7809.22
7802.99
7858.04
7858.28
7857.52
7856.35
7854.98
7853.1
7851.01
7848.39
7845.57
7842.13
7837.99
7832.91
7826.22
7818.42
7809.36
7802.95
7858.63
7858.93
7858.19
7857.03
7855.67
7853.8
7851.73
7849.12
7846.29
7842.83
7838.67
7833.51
7826.76
7818.81
7809.63
7802.99
7859.28
7859.64
7858.91
7857.77
7856.44
7854.6
7852.55
7849.97
7847.16
7843.7
7839.53
7834.31
7827.5
7819.39
7810.06
7803.13
7859.99
7860.38
7859.69
7858.57
7857.28
7855.48
7853.48
7850.95
7848.19
7844.77
7840.61
7835.37
7828.51
7820.23
7810.73
7803.43
7860.72
7861.14
7860.48
7859.4
7858.17
7856.44
7854.51
7852.08
7849.39
7846.06
7841.95
7836.74
7829.87
7821.45
7811.75
7803.93
7861.46
7861.86
7861.25
7860.23
7859.08
7857.45
7855.62
7853.33
7850.76
7847.59
7843.6
7838.5
7831.71
7823.23
7813.41
7804.98
7862.17
7862.51
7861.95
7861.01
7859.96
7858.46
7856.78
7854.67
7852.29
7849.35
7845.58
7840.73
7834.18
7825.87
7816.26
7807.65
7862.8
7863.02
7862.53
7861.68
7860.75
7859.42
7857.91
7856.06
7853.92
7851.33
7847.87
7843.45
7837.36
7829.6
7820.79
7813.15
7863.29
7863.3
7862.89
7862.15
7861.37
7860.23
7858.95
7857.4
7855.57
7853.39
7850.34
7846.48
7840.94
7833.87
7825.92
7819.13
7863.55
7863.27
7862.95
7862.33
7861.72
7860.8
7859.78
7858.58
7857.11
7855.44
7852.87
7849.7
7844.79
7838.57
7831.51
7825.41
7863.49
7862.81
7862.59
7862.1
7861.68
7861.01
7860.28
7859.46
7858.4
7857.3
7855.27
7852.92
7848.71
7843.56
7837.37
7831.9
7863
7861.81
7861.69
7861.34
7861.12
7860.71
7860.29
7859.88
7859.27
7858.78
7857.36
7855.95
7852.53
7848.76
7843.37
7838.69
7861.97
7860.14
7860.12
7859.91
7859.9
7859.75
7859.66
7859.68
7859.53
7859.68
7858.94
7858.56
7856.04
7853.93
7849.5
7845.97
7860.27
7857.68
7857.76
7857.7
7857.9
7858.01
7858.25
7858.63
7858.88
7859.58
7859.48
7860.16
7858.9
7858.69
7855.58
7853.9
7857.77
7854.28
7854.44
7854.47
7854.82
7855.14
7855.69
7856.49
7857.24
7858.52
7859.15
7860.87
7860.88
7862.54
7861.17
7862.35
7854.35
7849.74
7850.03
7850.25
7850.84
7851.51
7852.5
7853.85
7855.26
7857.27
7858.73
7861.4
7862.49
7865.85
7866.24
7870.75
7849.77
7844.84
7845.38
7845.95
7846.99
7848.18
7849.72
7851.64
7853.68
7856.4
7858.66
7862.22
7864.31
7869.05
7870.89
7878.39
7844.77
7840.74
7841.54
7842.48
7843.94
7845.64
7847.72
7850.17
7852.77
7856.01
7858.92
7863.13
7866.03
7871.76
7874.67
7884.09
7840.56
7837.89
7838.87
7840.08
7841.86
7843.92
7846.39
7849.22
7852.26
7855.89
7859.31
7863.95
7867.47
7873.8
7877.48
7887.86
7837.6
7836.23
7837.31
7838.7
7840.68
7842.97
7845.71
7848.78
7852.12
7855.98
7859.74
7864.58
7868.53
7875.07
7879.22
7889.81
7835.86
7835.75
7836.86
7838.34
7840.4
7842.79
7845.65
7848.83
7852.33
7856.25
7860.21
7865.04
7869.21
7875.59
7879.94
7890.09
7835.33
7836.36
7837.44
7838.93
7840.97
7843.35
7846.23
7849.37
7852.9
7856.73
7860.72
7865.33
7869.52
7875.43
7879.7
7888.86
7835.92
7837.98
7839
7840.41
7842.37
7844.64
7847.41
7850.4
7853.83
7857.43
7861.3
7865.51
7869.53
7874.68
7878.61
7886.31
7837.56
7840.54
7841.45
7842.73
7844.52
7846.58
7849.15
7851.9
7855.1
7858.36
7861.97
7865.63
7869.29
7873.43
7876.75
7882.58
7840.16
7843.94
7844.72
7845.81
7847.36
7849.15
7851.44
7853.85
7856.73
7859.54
7862.77
7865.75
7868.87
7871.78
7874.25
7877.92
7843.62
7848.04
7848.67
7849.55
7850.85
7852.32
7854.27
7856.26
7858.73
7861.01
7863.73
7865.91
7868.31
7869.8
7871.21
7872.55
7847.77
7852.63
7853.16
7853.84
7854.9
7856.06
7857.64
7859.19
7861.17
7862.84
7864.94
7866.21
7867.7
7867.59
7867.76
7866.77
7852.42
7857.51
7857.97
7858.53
7859.4
7860.29
7861.55
7862.66
7864.15
7865.16
7866.54
7866.76
7867.11
7865.26
7864.05
7860.9
7857.32
7862.45
7862.9
7863.38
7864.14
7864.84
7865.84
7866.59
7867.61
7868.02
7868.62
7867.7
7866.72
7863
7860.35
7855.31
7862.27
7867.22
7867.66
7868.12
7868.82
7869.4
7870.23
7870.73
7871.47
7871.49
7871.4
7869.27
7866.75
7861.14
7857.1
7850.46
7867.04
7871.96
7872.42
7872.89
7873.6
7874.2
7874.99
7875.36
7875.86
7875.2
7874.02
7870.56
7866.72
7859.87
7854.7
7846.87
7871.79
7877.03
7877.31
7877.56
7877.93
7878.1
7878.27
7877.82
7877.11
7875.14
7872.87
7868.77
7864.64
7857.92
7853.02
7844.75
7876.92
7878.8
7878.68
7878.37
7877.96
7877.24
7876.32
7874.83
7872.95
7870.31
7867.68
7863.9
7860.42
7854.88
7851
7843.82
7878.85
7875.15
7874.85
7874.31
7873.58
7872.53
7871.24
7869.51
7867.58
7865.22
7862.77
7859.41
7856.22
7851.84
7848.42
7843.17
7875.26
7870.36
7870.07
7869.57
7868.89
7867.93
7866.77
7865.22
7863.47
7861.22
7858.9
7855.89
7853
7849.24
7845.89
7841.97
7870.47
7866.57
7866.23
7865.7
7864.97
7863.99
7862.82
7861.33
7859.67
7857.62
7855.5
7852.84
7850.26
7847.05
7844.1
7840.55
7866.69
7862.88
7862.54
7862.04
7861.34
7860.44
7859.34
7857.98
7856.46
7854.61
7852.68
7850.33
7848.03
7845.25
7842.67
7839.59
7862.99
7859.65
7859.32
7858.84
7858.17
7857.32
7856.29
7855.04
7853.65
7851.99
7850.27
7848.21
7846.19
7843.79
7841.56
7838.91
7859.77
7856.72
7856.4
7855.96
7855.34
7854.56
7853.62
7852.49
7851.24
7849.77
7848.23
7846.43
7844.67
7842.6
7840.69
7838.43
7856.83
7854.13
7853.82
7853.42
7852.84
7852.14
7851.28
7850.27
7849.15
7847.85
7846.5
7844.93
7843.4
7841.63
7840
7838.08
7854.23
7851.82
7851.53
7851.17
7850.64
7850.01
7849.24
7848.35
7847.35
7846.21
7845.02
7843.67
7842.34
7840.83
7839.45
7837.82
7851.9
7849.77
7849.51
7849.19
7848.71
7848.15
7847.46
7846.67
7845.79
7844.8
7843.76
7842.59
7841.45
7840.17
7838.99
7837.62
7849.85
7847.97
7847.72
7847.44
7847.01
7846.51
7845.91
7845.21
7844.44
7843.57
7842.68
7841.67
7840.7
7839.61
7838.61
7837.45
7848.03
7846.37
7846.15
7845.9
7845.52
7845.08
7844.55
7843.94
7843.27
7842.52
7841.74
7840.88
7840.05
7839.12
7838.29
7837.31
7846.43
7844.96
7844.76
7844.54
7844.21
7843.83
7843.36
7842.83
7842.25
7841.6
7840.93
7840.2
7839.49
7838.7
7838
7837.17
7845.01
7843.71
7843.54
7843.35
7843.05
7842.72
7842.31
7841.86
7841.35
7840.79
7840.22
7839.6
7838.99
7838.33
7837.74
7837.04
7843.76
7842.62
7842.46
7842.3
7842.03
7841.75
7841.39
7841
7840.56
7840.09
7839.6
7839.06
7838.56
7838
7837.5
7836.9
7842.66
7841.64
7841.51
7841.36
7841.14
7840.89
7840.58
7840.24
7839.87
7839.46
7839.04
7838.59
7838.16
7837.69
7837.27
7836.77
7841.68
7840.78
7840.66
7840.54
7840.34
7840.13
7839.86
7839.57
7839.25
7838.9
7838.55
7838.16
7837.8
7837.4
7837.05
7836.62
7840.81
7840.02
7839.91
7839.8
7839.63
7839.45
7839.22
7838.97
7838.7
7838.4
7838.1
7837.77
7837.47
7837.13
7836.83
7836.47
7840.04
7839.33
7839.24
7839.15
7839
7838.85
7838.65
7838.44
7838.2
7837.95
7837.69
7837.42
7837.16
7836.87
7836.62
7836.3
7839.35
7838.72
7838.64
7838.56
7838.44
7838.3
7838.13
7837.95
7837.75
7837.54
7837.32
7837.08
7836.86
7836.63
7836.41
7836.13
7838.74
7838.17
7838.1
7838.04
7837.93
7837.81
7837.67
7837.51
7837.34
7837.16
7836.97
7836.77
7836.59
7836.38
7836.2
7835.96
7838.19
7837.68
7837.62
7837.56
7837.47
7837.37
7837.24
7837.11
7836.96
7836.81
7836.65
7836.48
7836.32
7836.15
7835.99
7835.78
7837.69
7837.23
7837.18
7837.13
7837.05
7836.96
7836.85
7836.74
7836.62
7836.48
7836.35
7836.2
7836.07
7835.92
7835.78
7835.59
7837.24
7836.82
7836.77
7836.73
7836.66
7836.59
7836.5
7836.4
7836.29
7836.18
7836.06
7835.94
7835.83
7835.7
7835.57
7835.4
7836.83
7836.45
7836.41
7836.37
7836.31
7836.25
7836.17
7836.09
7835.99
7835.9
7835.8
7835.69
7835.59
7835.48
7835.37
7835.21
7836.46
7836.1
7836.07
7836.04
7835.99
7835.93
7835.86
7835.79
7835.71
7835.63
7835.54
7835.45
7835.36
7835.26
7835.17
7835.02
7836.11
7835.79
7835.76
7835.73
7835.68
7835.64
7835.58
7835.52
7835.45
7835.37
7835.3
7835.22
7835.14
7835.06
7834.97
7834.83
7835.79
7835.5
7835.47
7835.45
7835.4
7835.36
7835.31
7835.26
7835.2
7835.13
7835.07
7834.99
7834.93
7834.85
7834.77
7834.64
7835.5
7835.22
7835.2
7835.18
7835.14
7835.11
7835.06
7835.01
7834.96
7834.9
7834.84
7834.78
7834.72
7834.65
7834.57
7834.45
7835.23
7834.97
7834.95
7834.93
7834.9
7834.87
7834.83
7834.78
7834.73
7834.68
7834.63
7834.57
7834.52
7834.46
7834.38
7834.27
7834.97
7834.73
7834.71
7834.7
7834.67
7834.64
7834.6
7834.56
7834.52
7834.47
7834.43
7834.37
7834.32
7834.26
7834.2
7834.09
7834.74
7834.51
7834.49
7834.48
7834.45
7834.43
7834.39
7834.36
7834.32
7834.27
7834.23
7834.18
7834.13
7834.08
7834.01
7833.9
7834.52
7834.3
7834.29
7834.27
7834.25
7834.23
7834.2
7834.16
7834.12
7834.08
7834.04
7834
7833.95
7833.9
7833.83
7833.73
7834.31
7834.11
7834.1
7834.08
7834.06
7834.04
7834.01
7833.98
7833.94
7833.9
7833.86
7833.82
7833.78
7833.72
7833.66
7833.56
7834.11
7833.93
7833.91
7833.9
7833.88
7833.86
7833.83
7833.8
7833.77
7833.73
7833.69
7833.65
7833.61
7833.55
7833.49
7833.39
7833.93
7833.76
7833.75
7833.73
7833.71
7833.69
7833.66
7833.64
7833.6
7833.57
7833.53
7833.49
7833.44
7833.39
7833.33
7833.22
7833.76
7833.6
7833.59
7833.58
7833.56
7833.53
7833.51
7833.48
7833.45
7833.41
7833.37
7833.33
7833.28
7833.23
7833.17
7833.06
7833.6
7833.45
7833.44
7833.43
7833.41
7833.39
7833.36
7833.33
7833.3
7833.26
7833.22
7833.18
7833.13
7833.08
7833.01
7832.9
7833.46
7833.32
7833.31
7833.29
7833.27
7833.25
7833.23
7833.2
7833.16
7833.13
7833.09
7833.04
7832.99
7832.94
7832.86
7832.75
7833.32
7833.19
7833.18
7833.17
7833.15
7833.13
7833.1
7833.07
7833.04
7833
7832.96
7832.91
7832.86
7832.8
7832.72
7832.6
7833.19
7833.08
7833.07
7833.05
7833.04
7833.01
7832.99
7832.96
7832.92
7832.88
7832.84
7832.79
7832.73
7832.67
7832.59
7832.46
7833.08
7832.97
7832.96
7832.95
7832.93
7832.91
7832.89
7832.85
7832.82
7832.78
7832.73
7832.68
7832.62
7832.55
7832.46
7832.33
7832.98
7832.88
7832.87
7832.86
7832.84
7832.82
7832.79
7832.76
7832.73
7832.68
7832.64
7832.58
7832.52
7832.44
7832.34
7832.2
7832.89
7832.8
7832.79
7832.78
7832.76
7832.74
7832.72
7832.68
7832.65
7832.6
7832.55
7832.5
7832.43
7832.35
7832.24
7832.08
7832.8
7832.73
7832.72
7832.71
7832.69
7832.67
7832.65
7832.62
7832.58
7832.54
7832.49
7832.43
7832.36
7832.27
7832.15
7831.98
7832.73
7832.67
7832.66
7832.65
7832.64
7832.62
7832.59
7832.56
7832.53
7832.49
7832.44
7832.38
7832.31
7832.22
7832.09
7831.89
7832.67
7832.62
7832.62
7832.6
7832.59
7832.57
7832.55
7832.52
7832.49
7832.45
7832.4
7832.35
7832.28
7832.19
7832.06
7831.85
7832.62
7832.58
7832.57
7832.56
7832.55
7832.53
7832.51
7832.49
7832.46
7832.43
7832.39
7832.34
7832.29
7832.22
7832.12
7831.97
7832.58
7832.56
7832.55
7832.54
7832.53
7832.52
7832.5
7832.48
7832.45
7832.42
7832.39
7832.35
7832.31
7832.26
7832.19
7832.08
7832.56
7832.56
7832.55
7832.54
7832.53
7832.52
7832.5
7832.48
7832.45
7832.42
7832.39
7832.35
7832.31
7832.26
7832.19
7832.08
7832.56
)
;

boundaryField
{
    wireUpstream
    {
        type            calculated;
        value           nonuniform List<scalar> 
16
(
7832.53
7832.53
7832.52
7832.51
7832.5
7832.48
7832.46
7832.44
7832.42
7832.39
7832.35
7832.32
7832.28
7832.26
7832.23
7832.54
)
;
    }
    wireDownstream
    {
        type            calculated;
        value           nonuniform List<scalar> 
16
(
7854.72
7854.01
7853.01
7851.78
7850.16
7848.33
7846.05
7843.48
7840.55
7836.85
7832.55
7826.42
7819.5
7810.97
7805.39
7855.03
)
;
    }
    wireTopContact
    {
        type            calculated;
        value           nonuniform List<scalar> 
122
(
7804.93
7804.91
7804.9
7804.88
7804.87
7804.86
7804.84
7804.82
7804.8
7804.78
7804.75
7804.73
7804.7
7804.67
7804.63
7804.6
7804.56
7804.52
7804.48
7804.43
7804.38
7804.33
7804.27
7804.2
7804.13
7804.06
7803.97
7803.88
7803.78
7803.67
7803.55
7803.42
7803.29
7803.15
7803.01
7802.88
7802.75
7802.65
7802.58
7802.57
7802.63
7802.82
7803.17
7803.76
7804.85
7807.43
7813.18
7819.28
7825.7
7832.3
7839.03
7846.06
7853.63
7861.75
7869.96
7877.59
7883.18
7886.89
7888.88
7889.23
7888.09
7885.65
7882.03
7877.51
7872.28
7866.69
7861.06
7855.76
7851.22
7847.88
7845.84
7844.67
7843.23
7841.86
7840.53
7839.57
7838.88
7838.39
7838.03
7837.77
7837.56
7837.39
7837.25
7837.12
7836.99
7836.85
7836.72
7836.58
7836.43
7836.27
7836.1
7835.93
7835.75
7835.57
7835.38
7835.19
7835
7834.82
7834.63
7834.44
7834.25
7834.07
7833.89
7833.72
7833.55
7833.38
7833.21
7833.05
7832.9
7832.74
7832.6
7832.46
7832.32
7832.2
7832.08
7831.98
7831.9
7831.85
7831.95
7832.03
7832.03
7804.94
)
;
    }
    front
    {
        type            wedge;
    }
    back
    {
        type            wedge;
    }
}


// ************************************************************************* //
