/*--------------------------------*- C++ -*----------------------------------*\
| =========                 |                                                 |
| \\      /  F ield         | foam-extend: Open Source CFD                    |
|  \\    /   O peration     | Version:     4.1-20200408                       |
|   \\  /    A nd           | Web:         http://www.foam-extend.org         |
|    \\/     M anipulation  |                                                 |
\*---------------------------------------------------------------------------*/
FoamFile
{
    version     2.0;
    format      ascii;
    class       volScalarField::DimensionedInternalField;
    location    "0.0455000";
    object      V0;
}
// * * * * * * * * * * * * * * * * * * * * * * * * * * * * * * * * * * * * * //

dimensions      [0 3 0 0 0 0 0];

value           nonuniform List<scalar> 
1952
(
1.38543e-14
2.30917e-14
3.23309e-14
4.15715e-14
5.08171e-14
6.00647e-14
6.93203e-14
7.85801e-14
8.78487e-14
9.71302e-14
1.06426e-13
1.15748e-13
1.25098e-13
1.34491e-13
1.43851e-13
4.61807e-15
1.38533e-14
2.30899e-14
3.23284e-14
4.15684e-14
5.08133e-14
6.00603e-14
6.93152e-14
7.85744e-14
8.78423e-14
9.71232e-14
1.06419e-13
1.1574e-13
1.2509e-13
1.34482e-13
1.43841e-13
4.61772e-15
1.38522e-14
2.30882e-14
3.2326e-14
4.15653e-14
5.08095e-14
6.00558e-14
6.93101e-14
7.85686e-14
8.78359e-14
9.71162e-14
1.06411e-13
1.15732e-13
1.25081e-13
1.34472e-13
1.43831e-13
4.61737e-15
1.38513e-14
2.30866e-14
3.23238e-14
4.15625e-14
5.08062e-14
6.00519e-14
6.93057e-14
7.85636e-14
8.78303e-14
9.71101e-14
1.06404e-13
1.15724e-13
1.25073e-13
1.34464e-13
1.43822e-13
4.61706e-15
1.38503e-14
2.30849e-14
3.23215e-14
4.15595e-14
5.08025e-14
6.00477e-14
6.93008e-14
7.85581e-14
8.78242e-14
9.71034e-14
1.06397e-13
1.15717e-13
1.25065e-13
1.34455e-13
1.43812e-13
4.61672e-15
1.38493e-14
2.30833e-14
3.23192e-14
4.15565e-14
5.07989e-14
6.00434e-14
6.92959e-14
7.85525e-14
8.7818e-14
9.70966e-14
1.0639e-13
1.15709e-13
1.25057e-13
1.34446e-13
1.43803e-13
4.61639e-15
1.38483e-14
2.30816e-14
3.23168e-14
4.15536e-14
5.07952e-14
6.00391e-14
6.9291e-14
7.8547e-14
8.78119e-14
9.70899e-14
1.06382e-13
1.15701e-13
1.25048e-13
1.34437e-13
1.43793e-13
4.61605e-15
1.38473e-14
2.30799e-14
3.23145e-14
4.15506e-14
5.07916e-14
6.00348e-14
6.92861e-14
7.85414e-14
8.78057e-14
9.70831e-14
1.06375e-13
1.15693e-13
1.2504e-13
1.34428e-13
1.43784e-13
4.61571e-15
1.38463e-14
2.30783e-14
3.23122e-14
4.15476e-14
5.0788e-14
6.00306e-14
6.92812e-14
7.85359e-14
8.77995e-14
9.70763e-14
1.06368e-13
1.15685e-13
1.25031e-13
1.34419e-13
1.43774e-13
4.61538e-15
1.38452e-14
2.30766e-14
3.23098e-14
4.15446e-14
5.07843e-14
6.00263e-14
6.92763e-14
7.85303e-14
8.77934e-14
9.70696e-14
1.0636e-13
1.15677e-13
1.25023e-13
1.3441e-13
1.43764e-13
4.61505e-15
1.38443e-14
2.30749e-14
3.23075e-14
4.15416e-14
5.07808e-14
6.00221e-14
6.92714e-14
7.85249e-14
8.77873e-14
9.70629e-14
1.06353e-13
1.15669e-13
1.25015e-13
1.34401e-13
1.43755e-13
4.61471e-15
1.38433e-14
2.30733e-14
3.23052e-14
4.15387e-14
5.07771e-14
6.00178e-14
6.92665e-14
7.85194e-14
8.77812e-14
9.70562e-14
1.06346e-13
1.15661e-13
1.25006e-13
1.34392e-13
1.43745e-13
4.61438e-15
1.38423e-14
2.30716e-14
3.23029e-14
4.15357e-14
5.07735e-14
6.00136e-14
6.92616e-14
7.85139e-14
8.7775e-14
9.70495e-14
1.06338e-13
1.15654e-13
1.24998e-13
1.34383e-13
1.43736e-13
4.61405e-15
1.38413e-14
2.30699e-14
3.23006e-14
4.15327e-14
5.07699e-14
6.00093e-14
6.92567e-14
7.85083e-14
8.77688e-14
9.70426e-14
1.06331e-13
1.15646e-13
1.2499e-13
1.34374e-13
1.43726e-13
4.61371e-15
1.38403e-14
2.30683e-14
3.22983e-14
4.15298e-14
5.07664e-14
6.00052e-14
6.9252e-14
7.8503e-14
8.77629e-14
9.70362e-14
1.06324e-13
1.15638e-13
1.24982e-13
1.34366e-13
1.43717e-13
4.61339e-15
1.38393e-14
2.30667e-14
3.2296e-14
4.15269e-14
5.07628e-14
6.0001e-14
6.92471e-14
7.84976e-14
8.77569e-14
9.70296e-14
1.06317e-13
1.1563e-13
1.24973e-13
1.34357e-13
1.43708e-13
4.61306e-15
1.38383e-14
2.3065e-14
3.22937e-14
4.1524e-14
5.07593e-14
5.99969e-14
6.92423e-14
7.84921e-14
8.77508e-14
9.70229e-14
1.0631e-13
1.15623e-13
1.24965e-13
1.34348e-13
1.43698e-13
4.61273e-15
1.38373e-14
2.30634e-14
3.22914e-14
4.1521e-14
5.07556e-14
5.99926e-14
6.92374e-14
7.84866e-14
8.77448e-14
9.70163e-14
1.06302e-13
1.15615e-13
1.24957e-13
1.34339e-13
1.43689e-13
4.61239e-15
1.38363e-14
2.30617e-14
3.22891e-14
4.1518e-14
5.07521e-14
5.99884e-14
6.92326e-14
7.84812e-14
8.77387e-14
9.70097e-14
1.06295e-13
1.15607e-13
1.24949e-13
1.3433e-13
1.43679e-13
4.61206e-15
1.38353e-14
2.306e-14
3.22867e-14
4.1515e-14
5.07484e-14
5.99841e-14
6.92276e-14
7.84756e-14
8.77325e-14
9.70029e-14
1.06288e-13
1.15599e-13
1.2494e-13
1.34321e-13
1.4367e-13
4.61172e-15
1.38343e-14
2.30584e-14
3.22845e-14
4.15122e-14
5.07449e-14
5.998e-14
6.9223e-14
7.84704e-14
8.77267e-14
9.69966e-14
1.06281e-13
1.15592e-13
1.24932e-13
1.34313e-13
1.43661e-13
4.6114e-15
1.38333e-14
2.30567e-14
3.22821e-14
4.15091e-14
5.07412e-14
5.99757e-14
6.9218e-14
7.84648e-14
8.77206e-14
9.69898e-14
1.06274e-13
1.15584e-13
1.24924e-13
1.34304e-13
1.43651e-13
4.61105e-15
1.38322e-14
2.3055e-14
3.22797e-14
4.1506e-14
5.07375e-14
5.99714e-14
6.9213e-14
7.84592e-14
8.77144e-14
9.69831e-14
1.06266e-13
1.15576e-13
1.24916e-13
1.34295e-13
1.43642e-13
4.61071e-15
1.38313e-14
2.30534e-14
3.22775e-14
4.15032e-14
5.0734e-14
5.99673e-14
6.92084e-14
7.8454e-14
8.77086e-14
9.69768e-14
1.0626e-13
1.15569e-13
1.24908e-13
1.34287e-13
1.43634e-13
4.61038e-15
1.38302e-14
2.30516e-14
3.2275e-14
4.15e-14
5.07301e-14
5.99628e-14
6.92032e-14
7.84483e-14
8.77023e-14
9.69699e-14
1.06252e-13
1.15561e-13
1.249e-13
1.34278e-13
1.43624e-13
4.61002e-15
1.38292e-14
2.30499e-14
3.22726e-14
4.1497e-14
5.07266e-14
5.99587e-14
6.91985e-14
7.8443e-14
8.76965e-14
9.69637e-14
1.06246e-13
1.15554e-13
1.24892e-13
1.3427e-13
1.43616e-13
4.60968e-15
1.38281e-14
2.30481e-14
3.22702e-14
4.14939e-14
5.07228e-14
5.99543e-14
6.91935e-14
7.84374e-14
8.76905e-14
9.6957e-14
1.06239e-13
1.15547e-13
1.24885e-13
1.34262e-13
1.43607e-13
4.60933e-15
1.3827e-14
2.30463e-14
3.22676e-14
4.14906e-14
5.07188e-14
5.99497e-14
6.91883e-14
7.84316e-14
8.76842e-14
9.69502e-14
1.06231e-13
1.15539e-13
1.24877e-13
1.34254e-13
1.43599e-13
4.60895e-15
1.38259e-14
2.30444e-14
3.2265e-14
4.14874e-14
5.07149e-14
5.99451e-14
6.91831e-14
7.84258e-14
8.76779e-14
9.69435e-14
1.06224e-13
1.15532e-13
1.24869e-13
1.34246e-13
1.4359e-13
4.60857e-15
1.38247e-14
2.30425e-14
3.22623e-14
4.1484e-14
5.07108e-14
5.99404e-14
6.91777e-14
7.84199e-14
8.76716e-14
9.69366e-14
1.06217e-13
1.15524e-13
1.24861e-13
1.34238e-13
1.43582e-13
4.60818e-15
1.38235e-14
2.30405e-14
3.22595e-14
4.14804e-14
5.07066e-14
5.99355e-14
6.91722e-14
7.84138e-14
8.7665e-14
9.69296e-14
1.0621e-13
1.15516e-13
1.24853e-13
1.3423e-13
1.43574e-13
4.60778e-15
1.38222e-14
2.30384e-14
3.22567e-14
4.14769e-14
5.07023e-14
5.99306e-14
6.91666e-14
7.84077e-14
8.76584e-14
9.69226e-14
1.06203e-13
1.15509e-13
1.24846e-13
1.34222e-13
1.43566e-13
4.60736e-15
1.38209e-14
2.30362e-14
3.22537e-14
4.1473e-14
5.06977e-14
5.99253e-14
6.91607e-14
7.84012e-14
8.76515e-14
9.69153e-14
1.06195e-13
1.15501e-13
1.24838e-13
1.34214e-13
1.43559e-13
4.60692e-15
1.38195e-14
2.3034e-14
3.22505e-14
4.1469e-14
5.06929e-14
5.99198e-14
6.91545e-14
7.83945e-14
8.76443e-14
9.69076e-14
1.06187e-13
1.15493e-13
1.2483e-13
1.34206e-13
1.43551e-13
4.60646e-15
1.38181e-14
2.30316e-14
3.22472e-14
4.14649e-14
5.06879e-14
5.99141e-14
6.91481e-14
7.83875e-14
8.76369e-14
9.68999e-14
1.06179e-13
1.15485e-13
1.24822e-13
1.34199e-13
1.43544e-13
4.60598e-15
1.38166e-14
2.3029e-14
3.22436e-14
4.14604e-14
5.06825e-14
5.99079e-14
6.91412e-14
7.83799e-14
8.76288e-14
9.68914e-14
1.06171e-13
1.15477e-13
1.24814e-13
1.34191e-13
1.43537e-13
4.60546e-15
1.38149e-14
2.30263e-14
3.22398e-14
4.14556e-14
5.06767e-14
5.99012e-14
6.91337e-14
7.83717e-14
8.76202e-14
9.68824e-14
1.06162e-13
1.15468e-13
1.24806e-13
1.34183e-13
1.4353e-13
4.60491e-15
1.38131e-14
2.30234e-14
3.22357e-14
4.14504e-14
5.06704e-14
5.9894e-14
6.91255e-14
7.83629e-14
8.76107e-14
9.68725e-14
1.06152e-13
1.15458e-13
1.24797e-13
1.34174e-13
1.43522e-13
4.60432e-15
1.38112e-14
2.30202e-14
3.22313e-14
4.14449e-14
5.06636e-14
5.98862e-14
6.91167e-14
7.83532e-14
8.76004e-14
9.68617e-14
1.06141e-13
1.15447e-13
1.24787e-13
1.34165e-13
1.43515e-13
4.6037e-15
1.38092e-14
2.30169e-14
3.22266e-14
4.14388e-14
5.06563e-14
5.98777e-14
6.91069e-14
7.83424e-14
8.75888e-14
9.68496e-14
1.06129e-13
1.15435e-13
1.24776e-13
1.34155e-13
1.43507e-13
4.60303e-15
1.38071e-14
2.30134e-14
3.22216e-14
4.14324e-14
5.06484e-14
5.98685e-14
6.90963e-14
7.83306e-14
8.7576e-14
9.6836e-14
1.06115e-13
1.15422e-13
1.24763e-13
1.34144e-13
1.43498e-13
4.60233e-15
1.38048e-14
2.30096e-14
3.22163e-14
4.14255e-14
5.06398e-14
5.98583e-14
6.90844e-14
7.83173e-14
8.75613e-14
9.68203e-14
1.06099e-13
1.15405e-13
1.24749e-13
1.3413e-13
1.43488e-13
4.60158e-15
1.38025e-14
2.30056e-14
3.22106e-14
4.14181e-14
5.06306e-14
5.98472e-14
6.90713e-14
7.83025e-14
8.75446e-14
9.68023e-14
1.0608e-13
1.15386e-13
1.24731e-13
1.34114e-13
1.43476e-13
4.60081e-15
1.38001e-14
2.30015e-14
3.22047e-14
4.14104e-14
5.06207e-14
5.98353e-14
6.90569e-14
7.82859e-14
8.75254e-14
9.67811e-14
1.06058e-13
1.15363e-13
1.24709e-13
1.34094e-13
1.43463e-13
4.60001e-15
1.37977e-14
2.29975e-14
3.21988e-14
4.14025e-14
5.06106e-14
5.98228e-14
6.90415e-14
7.82676e-14
8.75038e-14
9.67565e-14
1.0603e-13
1.15333e-13
1.2468e-13
1.34068e-13
1.43449e-13
4.59923e-15
1.37953e-14
2.29934e-14
3.21928e-14
4.13944e-14
5.06e-14
5.98094e-14
6.90247e-14
7.82474e-14
8.74792e-14
9.67278e-14
1.05996e-13
1.15295e-13
1.24639e-13
1.34027e-13
1.43422e-13
4.59845e-15
1.3793e-14
2.29895e-14
3.21871e-14
4.13865e-14
5.05894e-14
5.97959e-14
6.90073e-14
7.8226e-14
8.74523e-14
9.66956e-14
1.05957e-13
1.15249e-13
1.24585e-13
1.33966e-13
1.43356e-13
4.59772e-15
1.3791e-14
2.2986e-14
3.21818e-14
4.1379e-14
5.05792e-14
5.97825e-14
6.89896e-14
7.82036e-14
8.74233e-14
9.66602e-14
1.05912e-13
1.15195e-13
1.24518e-13
1.33882e-13
1.43245e-13
4.59707e-15
1.37894e-14
2.29831e-14
3.21773e-14
4.13725e-14
5.057e-14
5.97698e-14
6.89724e-14
7.81811e-14
8.73933e-14
9.66223e-14
1.05863e-13
1.15134e-13
1.24439e-13
1.33783e-13
1.43113e-13
4.59655e-15
1.37884e-14
2.29812e-14
3.21741e-14
4.13676e-14
5.05626e-14
5.97592e-14
6.89571e-14
7.81602e-14
8.73641e-14
9.65844e-14
1.05811e-13
1.15068e-13
1.24354e-13
1.33676e-13
1.42981e-13
4.59625e-15
1.37881e-14
2.29804e-14
3.21725e-14
4.13645e-14
5.05574e-14
5.97508e-14
6.89442e-14
7.81415e-14
8.73368e-14
9.65476e-14
1.05759e-13
1.15002e-13
1.24264e-13
1.33564e-13
1.42846e-13
4.59616e-15
1.37887e-14
2.29811e-14
3.2173e-14
4.13641e-14
5.05554e-14
5.9746e-14
6.89354e-14
7.81271e-14
8.73138e-14
9.65148e-14
1.05709e-13
1.14937e-13
1.24172e-13
1.33449e-13
1.42706e-13
4.59637e-15
1.37903e-14
2.29836e-14
3.21759e-14
4.13669e-14
5.05573e-14
5.97458e-14
6.89319e-14
7.81184e-14
8.72973e-14
9.64883e-14
1.05666e-13
1.14877e-13
1.2408e-13
1.33333e-13
1.4256e-13
4.59695e-15
1.37932e-14
2.29882e-14
3.21818e-14
4.13733e-14
5.05637e-14
5.9751e-14
6.89353e-14
7.81183e-14
8.7292e-14
9.64749e-14
1.05639e-13
1.14832e-13
1.23999e-13
1.33223e-13
1.42398e-13
4.59794e-15
1.37977e-14
2.29955e-14
3.21916e-14
4.13852e-14
5.05771e-14
5.97647e-14
6.89487e-14
7.81295e-14
8.72999e-14
9.6476e-14
1.05629e-13
1.14804e-13
1.23934e-13
1.33121e-13
1.42221e-13
4.59945e-15
1.38039e-14
2.30056e-14
3.22054e-14
4.14019e-14
5.05962e-14
5.97846e-14
6.89684e-14
7.81461e-14
8.73121e-14
9.64794e-14
1.05621e-13
1.14777e-13
1.23877e-13
1.3303e-13
1.42051e-13
4.60153e-15
1.38103e-14
2.30158e-14
3.22188e-14
4.14175e-14
5.06128e-14
5.98007e-14
6.89829e-14
7.81564e-14
8.73172e-14
9.64747e-14
1.05606e-13
1.14745e-13
1.23824e-13
1.32948e-13
1.41909e-13
4.60373e-15
1.38152e-14
2.30233e-14
3.22282e-14
4.14277e-14
5.06229e-14
5.98091e-14
6.89889e-14
7.81579e-14
8.73141e-14
9.64627e-14
1.05587e-13
1.14711e-13
1.23779e-13
1.32879e-13
1.41815e-13
4.6054e-15
1.38176e-14
2.3027e-14
3.22327e-14
4.14321e-14
5.06265e-14
5.98109e-14
6.89883e-14
7.81533e-14
8.73058e-14
9.64476e-14
1.05568e-13
1.14681e-13
1.23747e-13
1.32833e-13
1.41773e-13
4.60629e-15
1.38178e-14
2.3027e-14
3.22322e-14
4.14308e-14
5.06241e-14
5.98066e-14
6.8982e-14
7.81439e-14
8.72943e-14
9.64317e-14
1.05551e-13
1.14659e-13
1.23731e-13
1.32813e-13
1.41771e-13
4.60636e-15
1.38154e-14
2.30231e-14
3.22268e-14
4.14238e-14
5.06155e-14
5.97962e-14
6.89702e-14
7.813e-14
8.72799e-14
9.64153e-14
1.05538e-13
1.14644e-13
1.23729e-13
1.32812e-13
1.418e-13
4.60558e-15
1.38109e-14
2.30158e-14
3.22169e-14
4.14116e-14
5.06014e-14
5.97805e-14
6.89534e-14
7.81122e-14
8.72629e-14
9.63986e-14
1.05527e-13
1.14636e-13
1.23737e-13
1.32827e-13
1.41854e-13
4.60407e-15
1.38047e-14
2.30057e-14
3.22033e-14
4.13951e-14
5.05826e-14
5.976e-14
6.89323e-14
7.80908e-14
8.72434e-14
9.63813e-14
1.05517e-13
1.14632e-13
1.23754e-13
1.32856e-13
1.41928e-13
4.60196e-15
1.37971e-14
2.29934e-14
3.21868e-14
4.13749e-14
5.05597e-14
5.97352e-14
6.89069e-14
7.80658e-14
8.72211e-14
9.63627e-14
1.05507e-13
1.14632e-13
1.23777e-13
1.32895e-13
1.42015e-13
4.59943e-15
1.37887e-14
2.29796e-14
3.2168e-14
4.13518e-14
5.05331e-14
5.97063e-14
6.88771e-14
7.80366e-14
8.7195e-14
9.63417e-14
1.05497e-13
1.14634e-13
1.23803e-13
1.32943e-13
1.42112e-13
4.59662e-15
1.37799e-14
2.2965e-14
3.21479e-14
4.13267e-14
5.05039e-14
5.9674e-14
6.88431e-14
7.80028e-14
8.71641e-14
9.63167e-14
1.05483e-13
1.14635e-13
1.23832e-13
1.32996e-13
1.42211e-13
4.59366e-15
1.37708e-14
2.295e-14
3.21271e-14
4.13005e-14
5.04727e-14
5.9639e-14
6.88054e-14
7.79645e-14
8.71278e-14
9.62861e-14
1.05464e-13
1.14634e-13
1.23859e-13
1.3305e-13
1.42308e-13
4.5906e-15
1.37616e-14
2.2935e-14
3.21065e-14
4.12747e-14
5.04418e-14
5.96036e-14
6.87664e-14
7.79238e-14
8.70873e-14
9.62493e-14
1.05436e-13
1.14626e-13
1.23878e-13
1.33099e-13
1.42395e-13
4.58752e-15
1.37528e-14
2.29205e-14
3.20868e-14
4.125e-14
5.04117e-14
5.95682e-14
6.87261e-14
7.78803e-14
8.70429e-14
9.62093e-14
1.05405e-13
1.14613e-13
1.23886e-13
1.33134e-13
1.42458e-13
4.58455e-15
1.37431e-14
2.29042e-14
3.20641e-14
4.12218e-14
5.03793e-14
5.95342e-14
6.86935e-14
7.78535e-14
8.70255e-14
9.62058e-14
1.05413e-13
1.14629e-13
1.23901e-13
1.33158e-13
1.42482e-13
4.58133e-15
1.37365e-14
2.28937e-14
3.20509e-14
4.1208e-14
5.03682e-14
5.953e-14
6.87e-14
7.78749e-14
8.70621e-14
9.62575e-14
1.05472e-13
1.14688e-13
1.23942e-13
1.33187e-13
1.42483e-13
4.57905e-15
1.37387e-14
2.28986e-14
3.20602e-14
4.12233e-14
5.03905e-14
5.95597e-14
6.87368e-14
7.79188e-14
8.7111e-14
9.63111e-14
1.05526e-13
1.14744e-13
1.23987e-13
1.33226e-13
1.42493e-13
4.57963e-15
1.37454e-14
2.29101e-14
3.20766e-14
4.12446e-14
5.04167e-14
5.95906e-14
6.87712e-14
7.79561e-14
8.71495e-14
9.63512e-14
1.05565e-13
1.14783e-13
1.24021e-13
1.3326e-13
1.42517e-13
4.58181e-15
1.37516e-14
2.29202e-14
3.20905e-14
4.12621e-14
5.0438e-14
5.96161e-14
6.88007e-14
7.79893e-14
8.7185e-14
9.63882e-14
1.05601e-13
1.14818e-13
1.24051e-13
1.33286e-13
1.42535e-13
4.58388e-15
1.37573e-14
2.29298e-14
3.2104e-14
4.12794e-14
5.04589e-14
5.96402e-14
6.88275e-14
7.80183e-14
8.72152e-14
9.64191e-14
1.05631e-13
1.14847e-13
1.24076e-13
1.33306e-13
1.42547e-13
4.58578e-15
1.37616e-14
2.29369e-14
3.21137e-14
4.12917e-14
5.04735e-14
5.96571e-14
6.88461e-14
7.80383e-14
8.72357e-14
9.64393e-14
1.0565e-13
1.14863e-13
1.24088e-13
1.33313e-13
1.42546e-13
4.58721e-15
1.3766e-14
2.29442e-14
3.21237e-14
4.13044e-14
5.04886e-14
5.96744e-14
6.8865e-14
7.80584e-14
8.72562e-14
9.64597e-14
1.05669e-13
1.1488e-13
1.24102e-13
1.33323e-13
1.42549e-13
4.58867e-15
1.37697e-14
2.29503e-14
3.21321e-14
4.13149e-14
5.0501e-14
5.96884e-14
6.88803e-14
7.80745e-14
8.72724e-14
9.64754e-14
1.05683e-13
1.14892e-13
1.24111e-13
1.33328e-13
1.42548e-13
4.5899e-15
1.37729e-14
2.29555e-14
3.21393e-14
4.13239e-14
5.05115e-14
5.97002e-14
6.88929e-14
7.80876e-14
8.72854e-14
9.64878e-14
1.05694e-13
1.14901e-13
1.24116e-13
1.3333e-13
1.42545e-13
4.59097e-15
1.37759e-14
2.29604e-14
3.2146e-14
4.13323e-14
5.05214e-14
5.97112e-14
6.89048e-14
7.80999e-14
8.72976e-14
9.64995e-14
1.05704e-13
1.1491e-13
1.24122e-13
1.33333e-13
1.42544e-13
4.59197e-15
1.37778e-14
2.29636e-14
3.21503e-14
4.13376e-14
5.05275e-14
5.97178e-14
6.89116e-14
7.81067e-14
8.73038e-14
9.65047e-14
1.05708e-13
1.14911e-13
1.24121e-13
1.33329e-13
1.42536e-13
4.59262e-15
1.37797e-14
2.29667e-14
3.21546e-14
4.13428e-14
5.05335e-14
5.97244e-14
6.89184e-14
7.81135e-14
8.73101e-14
9.65103e-14
1.05712e-13
1.14914e-13
1.24122e-13
1.33327e-13
1.42531e-13
4.59327e-15
1.37817e-14
2.297e-14
3.2159e-14
4.13483e-14
5.05398e-14
5.97314e-14
6.89259e-14
7.81211e-14
8.73175e-14
9.65172e-14
1.05718e-13
1.14919e-13
1.24125e-13
1.33328e-13
1.42529e-13
4.59394e-15
1.37825e-14
2.29712e-14
3.21606e-14
4.13502e-14
5.05418e-14
5.97333e-14
6.89274e-14
7.81221e-14
8.73177e-14
9.65163e-14
1.05716e-13
1.14915e-13
1.24119e-13
1.3332e-13
1.42518e-13
4.5942e-15
1.37838e-14
2.29733e-14
3.21635e-14
4.13537e-14
5.05458e-14
5.97377e-14
6.89319e-14
7.81265e-14
8.73218e-14
9.65199e-14
1.05718e-13
1.14917e-13
1.24119e-13
1.33319e-13
1.42515e-13
4.59464e-15
1.37848e-14
2.29749e-14
3.21656e-14
4.13562e-14
5.05486e-14
5.97407e-14
6.89349e-14
7.81294e-14
8.73242e-14
9.65218e-14
1.0572e-13
1.14917e-13
1.24118e-13
1.33316e-13
1.42511e-13
4.59496e-15
1.37853e-14
2.29758e-14
3.21667e-14
4.13576e-14
5.05501e-14
5.97421e-14
6.89362e-14
7.81303e-14
8.73247e-14
9.65215e-14
1.05718e-13
1.14914e-13
1.24114e-13
1.33311e-13
1.42504e-13
4.59516e-15
1.37856e-14
2.29762e-14
3.21673e-14
4.13581e-14
5.05506e-14
5.97425e-14
6.89362e-14
7.81299e-14
8.73237e-14
9.65198e-14
1.05716e-13
1.14911e-13
1.24109e-13
1.33305e-13
1.42497e-13
4.59526e-15
1.37864e-14
2.29776e-14
3.21691e-14
4.13604e-14
5.05532e-14
5.97453e-14
6.89392e-14
7.81329e-14
8.73265e-14
9.65225e-14
1.05718e-13
1.14913e-13
1.24111e-13
1.33306e-13
1.42496e-13
4.59554e-15
1.37864e-14
2.29775e-14
3.21689e-14
4.136e-14
5.05525e-14
5.97444e-14
6.89379e-14
7.81311e-14
8.73241e-14
9.65193e-14
1.05714e-13
1.14908e-13
1.24105e-13
1.33299e-13
1.42488e-13
4.59552e-15
1.37865e-14
2.29777e-14
3.21691e-14
4.13602e-14
5.05527e-14
5.97444e-14
6.89376e-14
7.81306e-14
8.73232e-14
9.6518e-14
1.05712e-13
1.14905e-13
1.24101e-13
1.33295e-13
1.42483e-13
4.59557e-15
1.37863e-14
2.29772e-14
3.21684e-14
4.13593e-14
5.05514e-14
5.97428e-14
6.89356e-14
7.8128e-14
8.732e-14
9.65141e-14
1.05708e-13
1.149e-13
1.24095e-13
1.33288e-13
1.42475e-13
4.59549e-15
1.37867e-14
2.2978e-14
3.21694e-14
4.13605e-14
5.05528e-14
5.97443e-14
6.89372e-14
7.81296e-14
8.73216e-14
9.65156e-14
1.05709e-13
1.14901e-13
1.24096e-13
1.33288e-13
1.42476e-13
4.59564e-15
1.37862e-14
2.29771e-14
3.21682e-14
4.13589e-14
5.05507e-14
5.97417e-14
6.89341e-14
7.81259e-14
8.73173e-14
9.65106e-14
1.05703e-13
1.14894e-13
1.24089e-13
1.3328e-13
1.42467e-13
4.59547e-15
1.37862e-14
2.29771e-14
3.21681e-14
4.13587e-14
5.05505e-14
5.97413e-14
6.89335e-14
7.81252e-14
8.73163e-14
9.65093e-14
1.05701e-13
1.14892e-13
1.24086e-13
1.33277e-13
1.42463e-13
4.59547e-15
1.37859e-14
2.29766e-14
3.21675e-14
4.13579e-14
5.05494e-14
5.974e-14
6.89318e-14
7.81232e-14
8.73139e-14
9.65065e-14
1.05698e-13
1.14889e-13
1.24082e-13
1.33273e-13
1.42458e-13
4.59538e-15
1.37857e-14
2.29762e-14
3.21668e-14
4.1357e-14
5.05483e-14
5.97386e-14
6.89302e-14
7.81211e-14
8.73115e-14
9.65038e-14
1.05695e-13
1.14885e-13
1.24078e-13
1.33268e-13
1.42453e-13
4.5953e-15
1.37852e-14
2.29754e-14
3.21657e-14
4.13555e-14
5.05464e-14
5.97363e-14
6.89275e-14
7.81181e-14
8.7308e-14
9.64997e-14
1.05691e-13
1.1488e-13
1.24072e-13
1.33262e-13
1.42446e-13
4.59514e-15
1.37847e-14
2.29746e-14
3.21646e-14
4.13541e-14
5.05447e-14
5.97342e-14
6.8925e-14
7.81151e-14
8.73046e-14
9.6496e-14
1.05686e-13
1.14875e-13
1.24067e-13
1.33256e-13
1.4244e-13
4.59499e-15
1.37845e-14
2.29742e-14
3.2164e-14
4.13533e-14
5.05437e-14
5.9733e-14
6.89236e-14
7.81135e-14
8.73027e-14
9.64938e-14
1.05684e-13
1.14873e-13
1.24064e-13
1.33253e-13
1.42436e-13
4.59491e-15
1.37839e-14
2.29732e-14
3.21626e-14
4.13516e-14
5.05415e-14
5.97304e-14
6.89205e-14
7.811e-14
8.72988e-14
9.64894e-14
1.05679e-13
1.14867e-13
1.24058e-13
1.33246e-13
1.4243e-13
4.59472e-15
1.37836e-14
2.29727e-14
3.21619e-14
4.13505e-14
5.05403e-14
5.97289e-14
6.89188e-14
7.8108e-14
8.72965e-14
9.64868e-14
1.05676e-13
1.14864e-13
1.24055e-13
1.33243e-13
1.42425e-13
4.59461e-15
1.37831e-14
2.29719e-14
3.21608e-14
4.13492e-14
5.05386e-14
5.97269e-14
6.89164e-14
7.81053e-14
8.72934e-14
9.64834e-14
1.05672e-13
1.1486e-13
1.2405e-13
1.33238e-13
1.4242e-13
4.59446e-15
1.37826e-14
2.2971e-14
3.21595e-14
4.13475e-14
5.05365e-14
5.97244e-14
6.89135e-14
7.8102e-14
8.72897e-14
9.64792e-14
1.05668e-13
1.14855e-13
1.24045e-13
1.33232e-13
1.42414e-13
4.59427e-15
1.37821e-14
2.29701e-14
3.21583e-14
4.13459e-14
5.05346e-14
5.97222e-14
6.8911e-14
7.80991e-14
8.72864e-14
9.64756e-14
1.05664e-13
1.14851e-13
1.2404e-13
1.33227e-13
1.42408e-13
4.5941e-15
1.37814e-14
2.29691e-14
3.21569e-14
4.13441e-14
5.05323e-14
5.97195e-14
6.89078e-14
7.80955e-14
8.72824e-14
9.64712e-14
1.05659e-13
1.14845e-13
1.24034e-13
1.33221e-13
1.42402e-13
4.5939e-15
1.37809e-14
2.29682e-14
3.21556e-14
4.13425e-14
5.05304e-14
5.97172e-14
6.89052e-14
7.80925e-14
8.72791e-14
9.64675e-14
1.05655e-13
1.14841e-13
1.2403e-13
1.33216e-13
1.42397e-13
4.59372e-15
1.37803e-14
2.29673e-14
3.21543e-14
4.13407e-14
5.05282e-14
5.97147e-14
6.89023e-14
7.80892e-14
8.72754e-14
9.64634e-14
1.0565e-13
1.14836e-13
1.24024e-13
1.3321e-13
1.42391e-13
4.59353e-15
1.37795e-14
2.29658e-14
3.21523e-14
4.13382e-14
5.05251e-14
5.9711e-14
6.8898e-14
7.80844e-14
8.727e-14
9.64575e-14
1.05644e-13
1.14829e-13
1.24017e-13
1.33202e-13
1.42382e-13
4.59324e-15
1.37792e-14
2.29654e-14
3.21516e-14
4.13374e-14
5.05241e-14
5.97098e-14
6.88967e-14
7.80829e-14
8.72684e-14
9.64557e-14
1.05642e-13
1.14827e-13
1.24015e-13
1.332e-13
1.4238e-13
4.59315e-15
1.37784e-14
2.2964e-14
3.21496e-14
4.13348e-14
5.0521e-14
5.97061e-14
6.88924e-14
7.80781e-14
8.7263e-14
9.64497e-14
1.05635e-13
1.1482e-13
1.24007e-13
1.33192e-13
1.42371e-13
4.59287e-15
1.37776e-14
2.29627e-14
3.21479e-14
4.13326e-14
5.05183e-14
5.97029e-14
6.88887e-14
7.80739e-14
8.72583e-14
9.64446e-14
1.0563e-13
1.14814e-13
1.24001e-13
1.33185e-13
1.42364e-13
4.59262e-15
1.37769e-14
2.29615e-14
3.21462e-14
4.13304e-14
5.05156e-14
5.96997e-14
6.88851e-14
7.80697e-14
8.72537e-14
9.64395e-14
1.05624e-13
1.14808e-13
1.23994e-13
1.33178e-13
1.42357e-13
4.59238e-15
1.37764e-14
2.29607e-14
3.2145e-14
4.13289e-14
5.05137e-14
5.96975e-14
6.88825e-14
7.80669e-14
8.72505e-14
9.64361e-14
1.05621e-13
1.14804e-13
1.2399e-13
1.33174e-13
1.42353e-13
4.59221e-15
1.37757e-14
2.29595e-14
3.21434e-14
4.13268e-14
5.05112e-14
5.96945e-14
6.88791e-14
7.8063e-14
8.72462e-14
9.64313e-14
1.05615e-13
1.14798e-13
1.23984e-13
1.33168e-13
1.42346e-13
4.59198e-15
1.37747e-14
2.29579e-14
3.21411e-14
4.13238e-14
5.05075e-14
5.96902e-14
6.88741e-14
7.80573e-14
8.72398e-14
9.64243e-14
1.05608e-13
1.1479e-13
1.23976e-13
1.33158e-13
1.42337e-13
4.59165e-15
1.37738e-14
2.29565e-14
3.21391e-14
4.13213e-14
5.05044e-14
5.96865e-14
6.88698e-14
7.80525e-14
8.72344e-14
9.64182e-14
1.05601e-13
1.14783e-13
1.23968e-13
1.3315e-13
1.42329e-13
4.59137e-15
1.37734e-14
2.29556e-14
3.2138e-14
4.13198e-14
5.05026e-14
5.96844e-14
6.88673e-14
7.80496e-14
8.72312e-14
9.64146e-14
1.05597e-13
1.14779e-13
1.23963e-13
1.33145e-13
1.42324e-13
4.59121e-15
1.37726e-14
2.29544e-14
3.21362e-14
4.13175e-14
5.04998e-14
5.96811e-14
6.88635e-14
7.80452e-14
8.72262e-14
9.6409e-14
1.05591e-13
1.14772e-13
1.23955e-13
1.33136e-13
1.42313e-13
4.59096e-15
1.37714e-14
2.29524e-14
3.21334e-14
4.13139e-14
5.04954e-14
5.96758e-14
6.88574e-14
7.80383e-14
8.72184e-14
9.64004e-14
1.05581e-13
1.14761e-13
1.23943e-13
1.33123e-13
1.42298e-13
4.59055e-15
1.37709e-14
2.29516e-14
3.21322e-14
4.13124e-14
5.04936e-14
5.96737e-14
6.88549e-14
7.80355e-14
8.72153e-14
9.63969e-14
1.05578e-13
1.14757e-13
1.23939e-13
1.33118e-13
1.42293e-13
4.59039e-15
-6.31089e-30
2.52435e-29
0
0
0
-7.57306e-29
-5.04871e-29
-1.00974e-28
-5.04871e-29
0
-1.00974e-28
5.04871e-29
-5.04871e-29
1.00974e-28
2.01948e-28
-1.26218e-29
)
;


// ************************************************************************* //
