/*--------------------------------*- C++ -*----------------------------------*\
| =========                 |                                                 |
| \\      /  F ield         | OpenFOAM: The Open Source CFD Toolbox           |
|  \\    /   O peration     | Version:  4.1                                   |
|   \\  /    A nd           | Web:      www.OpenFOAM.org                      |
|    \\/     M anipulation  |                                                 |
\*---------------------------------------------------------------------------*/
FoamFile
{
    version     2.0;
    format      ascii;
    class       volVectorField;
    location    "0.0081";
    object      U;
}
// * * * * * * * * * * * * * * * * * * * * * * * * * * * * * * * * * * * * * //

dimensions      [0 1 -1 0 0 0 0];

internalField   nonuniform List<vector> 
1536
(
(0.097313 -0.0010725 4.369e-07)
(0.098745 -0.0033224 1.2745e-06)
(0.10199 -0.0058597 2.0891e-06)
(0.10746 -0.0085434 2.7014e-06)
(0.11515 -0.01099 2.9746e-06)
(0.12467 -0.012904 3.2475e-06)
(0.13544 -0.014168 3.2724e-06)
(0.14695 -0.014756 3.1833e-06)
(0.15875 -0.01468 3.0288e-06)
(0.17038 -0.013932 3.2098e-06)
(0.18135 -0.012496 3.5663e-06)
(0.19117 -0.010369 3.984e-06)
(0.097733 -0.00076242 0.00014892)
(0.099258 -0.0023829 0.00039623)
(0.10258 -0.0042363 0.00057385)
(0.10804 -0.0061832 0.00071097)
(0.11561 -0.0079558 0.00083576)
(0.12496 -0.0093518 0.00094747)
(0.13556 -0.010304 0.0010096)
(0.14691 -0.010799 0.00098404)
(0.15855 -0.010834 0.00085356)
(0.17001 -0.010399 0.0006239)
(0.18082 -0.0094801 0.00030107)
(0.19048 -0.00808 -0.00010309)
(0.098013 -0.00062628 0.00024846)
(0.099584 -0.0019401 0.0007441)
(0.10295 -0.0034171 0.0012557)
(0.1084 -0.0049683 0.0017627)
(0.1159 -0.0063863 0.0022232)
(0.12514 -0.0075066 0.0025952)
(0.13562 -0.0082704 0.0028459)
(0.14686 -0.0086652 0.0029483)
(0.15838 -0.0086903 0.0028922)
(0.16972 -0.008338 0.0026793)
(0.18042 -0.0075949 0.0023109)
(0.18996 -0.0064622 0.0017952)
(0.09816 -0.00048677 0.00035694)
(0.09975 -0.0014945 0.0010853)
(0.10314 -0.0026017 0.0018709)
(0.10858 -0.0037537 0.0026753)
(0.11605 -0.0048068 0.0034095)
(0.12523 -0.0056455 0.0039943)
(0.13565 -0.0062195 0.0043889)
(0.14683 -0.0065088 0.0045731)
(0.1583 -0.0065078 0.0045392)
(0.16959 -0.0062125 0.0042841)
(0.18022 -0.0056145 0.0038046)
(0.1897 -0.0047165 0.0031051)
(0.098159 -0.00035615 0.0004877)
(0.09975 -0.001083 0.0014972)
(0.10314 -0.0018673 0.0026058)
(0.10858 -0.0026707 0.003759)
(0.11605 -0.0034041 0.0048131)
(0.12523 -0.0039887 0.0056521)
(0.13565 -0.0043833 0.0062262)
(0.14683 -0.0045678 0.0065152)
(0.1583 -0.0045344 0.0065134)
(0.16959 -0.00428 0.0062172)
(0.18022 -0.0038012 0.0056183)
(0.1897 -0.0031021 0.0047196)
(0.098011 -0.00024781 0.00062732)
(0.099582 -0.00074218 0.0019431)
(0.10295 -0.0012529 0.0034219)
(0.1084 -0.001759 0.0049746)
(0.1159 -0.0022189 0.006394)
(0.12514 -0.0025905 0.007515)
(0.13562 -0.002841 0.0082788)
(0.14686 -0.0029436 0.0086732)
(0.15838 -0.0028877 0.0086976)
(0.16973 -0.0026753 0.0083441)
(0.18042 -0.0023076 0.0075997)
(0.18996 -0.0017923 0.0064658)
(0.09773 -0.00014819 0.00076382)
(0.099256 -0.00039427 0.0023868)
(0.10258 -0.00057107 0.0042422)
(0.10804 -0.00070743 0.0061911)
(0.11561 -0.00083169 0.0079653)
(0.12496 -0.0009428 0.0093625)
(0.13556 -0.0010046 0.010315)
(0.14691 -0.00097923 0.01081)
(0.15855 -0.00084864 0.010844)
(0.17001 -0.00061927 0.010407)
(0.18082 -0.00029697 0.0094859)
(0.19048 0.00010684 0.0080839)
(0.097309 2.1482e-07 0.001074)
(0.098742 5.8473e-07 0.0033268)
(0.10199 8.2385e-07 0.005867)
(0.10746 1.1545e-06 0.0085533)
(0.11515 1.4596e-06 0.011003)
(0.12467 1.7952e-06 0.012917)
(0.13544 1.9911e-06 0.014182)
(0.14696 2.0354e-06 0.014769)
(0.15875 1.6715e-06 0.014692)
(0.17038 9.9071e-07 0.013942)
(0.18135 1.3109e-07 0.012503)
(0.19118 -8.3058e-07 0.010374)
(0.097733 -0.0007625 -0.00014801)
(0.099258 -0.002383 -0.00039348)
(0.10258 -0.0042364 -0.00056926)
(0.10804 -0.0061835 -0.00070485)
(0.11561 -0.0079561 -0.00082876)
(0.12496 -0.0093521 -0.00093985)
(0.13556 -0.010305 -0.0010015)
(0.14691 -0.010799 -0.00097619)
(0.15855 -0.010834 -0.00084564)
(0.17001 -0.010399 -0.00061558)
(0.18081 -0.0094804 -0.00029209)
(0.19047 -0.0080804 0.00011249)
(0.09815 -0.00061197 4.9215e-07)
(0.099753 -0.0019266 1.4715e-06)
(0.10316 -0.0034457 2.4201e-06)
(0.10864 -0.0050448 3.2092e-06)
(0.11617 -0.0065022 3.7776e-06)
(0.12543 -0.0076492 4.1114e-06)
(0.13593 -0.0084453 4.1963e-06)
(0.14718 -0.0088901 4.295e-06)
(0.15871 -0.0089827 4.2952e-06)
(0.17007 -0.0087148 4.4939e-06)
(0.18079 -0.0080716 4.8416e-06)
(0.19036 -0.0070521 5.1145e-06)
(0.098434 -0.00049669 0.0001159)
(0.10008 -0.0015469 0.00036359)
(0.10352 -0.0027353 0.0006406)
(0.109 -0.0039856 0.00091455)
(0.11647 -0.0051307 0.0011605)
(0.12563 -0.0060356 0.0013592)
(0.13603 -0.0066617 0.0015046)
(0.14717 -0.0070059 0.001587)
(0.15861 -0.0070685 0.0015984)
(0.16987 -0.0068424 0.0015411)
(0.18047 -0.0063153 0.0014153)
(0.18994 -0.0054855 0.0012261)
(0.098581 -0.00037067 0.00023985)
(0.10024 -0.0011481 0.00074492)
(0.1037 -0.0020155 0.0013117)
(0.10917 -0.002919 0.0018925)
(0.11662 -0.0037456 0.0024214)
(0.12573 -0.0044026 0.0028411)
(0.13608 -0.0048601 0.0031342)
(0.14717 -0.0051103 0.0032932)
(0.15855 -0.0051493 0.0033123)
(0.16976 -0.0049738 0.0031895)
(0.18031 -0.0045764 0.0029218)
(0.18972 -0.0039584 0.0025125)
(0.098581 -0.00023908 0.00037148)
(0.10024 -0.00074264 0.0011505)
(0.1037 -0.0013082 0.0020193)
(0.10917 -0.0018878 0.0029239)
(0.11662 -0.0024158 0.0037512)
(0.12573 -0.0028349 0.0044088)
(0.13608 -0.0031278 0.0048663)
(0.14717 -0.003287 0.0051163)
(0.15855 -0.0033065 0.0051548)
(0.16976 -0.0031842 0.0049785)
(0.18031 -0.0029173 0.0045803)
(0.18972 -0.0025088 0.0039616)
(0.098432 -0.00011519 0.00049755)
(0.10008 -0.00036141 0.0015494)
(0.10352 -0.00063716 0.0027391)
(0.10899 -0.00090988 0.0039907)
(0.11647 -0.0011549 0.0051367)
(0.12563 -0.0013528 0.006042)
(0.13603 -0.0014979 0.0066681)
(0.14717 -0.0015804 0.0070119)
(0.15861 -0.001592 0.007074)
(0.16987 -0.0015352 0.006847)
(0.18048 -0.0014104 0.006319)
(0.18994 -0.0012221 0.0054886)
(0.098148 2.806e-07 0.00061295)
(0.099751 7.842e-07 0.0019294)
(0.10316 1.1577e-06 0.00345)
(0.10863 1.6359e-06 0.0050503)
(0.11617 2.0452e-06 0.0065085)
(0.12543 2.409e-06 0.0076562)
(0.13593 2.6437e-06 0.0084523)
(0.14718 2.6614e-06 0.0088968)
(0.15871 2.3106e-06 0.0089887)
(0.17008 1.6297e-06 0.0087199)
(0.18079 6.8142e-07 0.0080755)
(0.19036 -3.5563e-07 0.0070553)
(0.09773 0.00014863 0.00076375)
(0.099255 0.00039552 0.0023867)
(0.10258 0.00057294 0.004242)
(0.10803 0.00071008 0.0061907)
(0.11561 0.00083502 0.0079648)
(0.12496 0.00094683 0.0093619)
(0.13556 0.0010089 0.010315)
(0.14691 0.00098374 0.010809)
(0.15855 0.00085243 0.010842)
(0.17001 0.00062174 0.010406)
(0.18082 0.00029766 0.0094849)
(0.19048 -0.00010831 0.0080832)
(0.098014 -0.00062623 -0.00024753)
(0.099585 -0.0019399 -0.0007413)
(0.10295 -0.0034168 -0.0012512)
(0.1084 -0.004968 -0.0017566)
(0.1159 -0.0063863 -0.0022162)
(0.12513 -0.0075065 -0.0025876)
(0.13562 -0.0082702 -0.0028376)
(0.14685 -0.0086652 -0.0029404)
(0.15838 -0.0086906 -0.002884)
(0.16972 -0.0083382 -0.0026707)
(0.18041 -0.007595 -0.0023016)
(0.18995 -0.0064622 -0.0017852)
(0.098434 -0.00049665 -0.00011496)
(0.10008 -0.0015468 -0.00036078)
(0.10352 -0.002735 -0.00063603)
(0.10899 -0.0039853 -0.00090838)
(0.11647 -0.0051306 -0.0011532)
(0.12563 -0.0060354 -0.0013512)
(0.13603 -0.0066612 -0.0014961)
(0.14717 -0.0070057 -0.0015786)
(0.1586 -0.0070683 -0.0015898)
(0.16986 -0.0068421 -0.001532)
(0.18047 -0.006315 -0.0014057)
(0.18993 -0.0054852 -0.0012159)
(0.098713 -0.00037684 4.6195e-07)
(0.10039 -0.0011637 1.3566e-06)
(0.10386 -0.0020445 2.1777e-06)
(0.10933 -0.002973 2.9709e-06)
(0.11674 -0.0038264 3.5981e-06)
(0.12581 -0.0045014 3.8919e-06)
(0.13611 -0.0049662 3.9922e-06)
(0.14715 -0.0052204 4.1386e-06)
(0.15848 -0.0052647 4.3107e-06)
(0.16963 -0.0050917 4.5164e-06)
(0.18014 -0.004692 4.7968e-06)
(0.1895 -0.0040637 5.0602e-06)
(0.098856 -0.00025046 0.00012236)
(0.10054 -0.00077037 0.00037775)
(0.10403 -0.0013493 0.00066584)
(0.10949 -0.001956 0.00096545)
(0.11687 -0.0025127 0.00124)
(0.1259 -0.0029544 0.0014561)
(0.13614 -0.0032596 0.0016041)
(0.14713 -0.003426 0.0016841)
(0.1584 -0.0034527 0.0016952)
(0.1695 -0.0033349 0.001634)
(0.17995 -0.003067 0.0014984)
(0.18925 -0.0026488 0.0012888)
(0.098856 -0.0001216 0.00025123)
(0.10054 -0.00037549 0.00077267)
(0.10403 -0.00066234 0.0013529)
(0.10949 -0.00096078 0.0019607)
(0.11687 -0.0012344 0.0025183)
(0.1259 -0.0014499 0.0029606)
(0.13614 -0.0015976 0.0032659)
(0.14713 -0.0016778 0.0034322)
(0.1584 -0.0016892 0.0034585)
(0.1695 -0.0016286 0.00334)
(0.17995 -0.0014937 0.0030714)
(0.18925 -0.0012848 0.0026525)
(0.098712 2.5368e-07 0.00037765)
(0.10039 8.0312e-07 0.001166)
(0.10386 1.2493e-06 0.0020482)
(0.10933 1.6861e-06 0.0029779)
(0.11674 2.0728e-06 0.0038322)
(0.12581 2.3244e-06 0.0045078)
(0.13611 2.4994e-06 0.0049726)
(0.14715 2.3884e-06 0.0052266)
(0.15848 1.8904e-06 0.0052704)
(0.16963 1.1666e-06 0.0050967)
(0.18014 2.1442e-07 0.0046962)
(0.1895 -8.6258e-07 0.0040671)
(0.098432 0.00011571 0.00049755)
(0.10007 0.00036289 0.0015493)
(0.10352 0.00063943 0.0027389)
(0.10899 0.00091302 0.0039904)
(0.11647 0.0011588 0.0051364)
(0.12563 0.0013574 0.0060418)
(0.13603 0.0015028 0.006668)
(0.14717 0.0015854 0.0070121)
(0.1586 0.0015961 0.0070742)
(0.16986 0.001538 0.0068472)
(0.18047 0.0014111 0.0063192)
(0.18994 0.0012205 0.0054886)
(0.098011 0.00024818 0.00062727)
(0.099582 0.00074341 0.0019429)
(0.10295 0.0012549 0.0034216)
(0.1084 0.0017617 0.0049741)
(0.1159 0.0022223 0.0063935)
(0.12513 0.0025944 0.0075144)
(0.13562 0.0028451 0.0082782)
(0.14685 0.0029477 0.0086728)
(0.15838 0.0028909 0.0086972)
(0.16972 0.0026769 0.0083436)
(0.18041 0.002307 0.007599)
(0.18996 0.0017892 0.0064652)
(0.098162 -0.00048674 -0.00035602)
(0.099752 -0.0014944 -0.0010825)
(0.10314 -0.0026012 -0.0018664)
(0.10858 -0.0037531 -0.0026693)
(0.11605 -0.0048063 -0.0034024)
(0.12523 -0.005645 -0.0039866)
(0.13565 -0.006219 -0.0043806)
(0.14683 -0.0065087 -0.0045649)
(0.1583 -0.0065078 -0.0045306)
(0.16959 -0.0062124 -0.0042751)
(0.18022 -0.0056143 -0.003795)
(0.1897 -0.0047161 -0.0030947)
(0.098582 -0.00037063 -0.00023895)
(0.10024 -0.0011479 -0.0007422)
(0.1037 -0.0020152 -0.0013073)
(0.10917 -0.0029186 -0.0018866)
(0.11662 -0.0037452 -0.0024144)
(0.12573 -0.0044022 -0.0028334)
(0.13607 -0.0048596 -0.0031258)
(0.14717 -0.0051101 -0.0032848)
(0.15855 -0.0051491 -0.0033037)
(0.16975 -0.0049735 -0.0031805)
(0.18031 -0.0045761 -0.0029122)
(0.18972 -0.0039579 -0.0025024)
(0.098857 -0.00025043 -0.00012148)
(0.10054 -0.0007703 -0.0003751)
(0.10403 -0.0013491 -0.00066161)
(0.10949 -0.0019557 -0.00095972)
(0.11687 -0.0025124 -0.0012331)
(0.1259 -0.0029542 -0.0014485)
(0.13614 -0.0032595 -0.0015961)
(0.14712 -0.0034259 -0.0016758)
(0.1584 -0.0034526 -0.0016866)
(0.1695 -0.0033348 -0.0016251)
(0.17994 -0.0030668 -0.001489)
(0.18925 -0.0026486 -0.0012789)
(0.098997 -0.00012678 4.2741e-07)
(0.10069 -0.00038757 1.2883e-06)
(0.10419 -0.00067442 2.0548e-06)
(0.10964 -0.00097487 2.7605e-06)
(0.11699 -0.0012504 3.2767e-06)
(0.12597 -0.0014706 3.6871e-06)
(0.13615 -0.0016235 3.919e-06)
(0.14708 -0.0017069 4.0445e-06)
(0.1583 -0.0017201 4.2204e-06)
(0.16934 -0.0016613 4.4004e-06)
(0.17972 -0.0015276 4.6226e-06)
(0.18897 -0.0013192 4.8218e-06)
(0.098996 2.924e-07 0.00012752)
(0.10069 8.8062e-07 0.00038981)
(0.10419 1.3493e-06 0.00067792)
(0.10964 1.8094e-06 0.00097953)
(0.11699 2.1951e-06 0.0012559)
(0.12597 2.4117e-06 0.0014767)
(0.13615 2.4618e-06 0.0016299)
(0.14708 2.289e-06 0.0017132)
(0.1583 1.8109e-06 0.0017261)
(0.16934 1.1093e-06 0.0016666)
(0.17972 2.2136e-07 0.0015323)
(0.18897 -7.0872e-07 0.0013231)
(0.098856 0.00012216 0.00025119)
(0.10054 0.00037718 0.0007726)
(0.10403 0.00066493 0.0013527)
(0.10949 0.00096425 0.0019606)
(0.11687 0.0012386 0.0025182)
(0.1259 0.0014546 0.0029605)
(0.13614 0.0016026 0.003266)
(0.14712 0.0016824 0.0034323)
(0.1584 0.0016929 0.0034586)
(0.1695 0.0016308 0.0033401)
(0.17995 0.0014941 0.0030713)
(0.18925 0.0012832 0.0026523)
(0.09858 0.00023963 0.00037142)
(0.10024 0.00074422 0.0011503)
(0.1037 0.0013106 0.002019)
(0.10917 0.0018911 0.0029236)
(0.11661 0.0024198 0.003751)
(0.12573 0.0028395 0.0044086)
(0.13607 0.0031325 0.0048663)
(0.14717 0.0032915 0.0051165)
(0.15855 0.0033102 0.0051552)
(0.16976 0.0031865 0.0049789)
(0.18031 0.0029177 0.0045806)
(0.18972 0.002507 0.0039614)
(0.098159 0.00035669 0.00048759)
(0.099749 0.0010846 0.0014969)
(0.10314 0.0018699 0.0026053)
(0.10858 0.0026741 0.0037585)
(0.11604 0.0034082 0.0048126)
(0.12523 0.0039932 0.0056518)
(0.13565 0.0043878 0.0062261)
(0.14683 0.0045719 0.0065155)
(0.1583 0.0045374 0.006514)
(0.16959 0.0042814 0.0062178)
(0.18022 0.0038004 0.0056187)
(0.1897 0.0030992 0.0047196)
(0.098162 -0.00035603 -0.00048672)
(0.099752 -0.0010825 -0.0014944)
(0.10314 -0.0018667 -0.0026013)
(0.10858 -0.0026699 -0.003753)
(0.11605 -0.0034033 -0.004806)
(0.12523 -0.0039879 -0.0056442)
(0.13565 -0.0043824 -0.0062178)
(0.14683 -0.0045674 -0.0065066)
(0.1583 -0.0045341 -0.0065046)
(0.16959 -0.0042797 -0.006208)
(0.18022 -0.0038006 -0.0056085)
(0.1897 -0.0031012 -0.0047091)
(0.098582 -0.00023899 -0.00037057)
(0.10024 -0.00074238 -0.0011478)
(0.1037 -0.0013077 -0.002015)
(0.10917 -0.0018872 -0.0029181)
(0.11662 -0.0024152 -0.0037444)
(0.12573 -0.0028343 -0.0044012)
(0.13607 -0.0031271 -0.0048581)
(0.14717 -0.0032867 -0.0051081)
(0.15855 -0.0033063 -0.0051462)
(0.16976 -0.003184 -0.0049695)
(0.18031 -0.0029169 -0.0045708)
(0.18972 -0.0025082 -0.0039515)
(0.098857 -0.00012155 -0.00025037)
(0.10054 -0.00037536 -0.0007701)
(0.10403 -0.00066212 -0.0013487)
(0.10949 -0.00096042 -0.0019551)
(0.11687 -0.0012339 -0.0025116)
(0.1259 -0.0014495 -0.0029532)
(0.13614 -0.0015974 -0.0032581)
(0.14712 -0.0016775 -0.0034241)
(0.1584 -0.001689 -0.00345)
(0.1695 -0.0016284 -0.0033312)
(0.17995 -0.0014934 -0.0030621)
(0.18925 -0.0012843 -0.0026428)
(0.098997 3.1968e-07 -0.00012669)
(0.10069 9.4248e-07 -0.0003873)
(0.10419 1.4472e-06 -0.00067392)
(0.10964 1.9569e-06 -0.00097417)
(0.11699 2.3595e-06 -0.0012496)
(0.12597 2.5767e-06 -0.0014695)
(0.13615 2.6062e-06 -0.0016222)
(0.14708 2.3831e-06 -0.0017051)
(0.1583 1.93e-06 -0.0017177)
(0.16934 1.2598e-06 -0.001658)
(0.17972 4.329e-07 -0.0015232)
(0.18897 -4.1805e-07 -0.0013137)
(0.098996 0.0001274 4.0594e-07)
(0.10069 0.00038941 1.2247e-06)
(0.10419 0.00067723 1.9522e-06)
(0.10964 0.00097864 2.6108e-06)
(0.11699 0.0012549 3.1095e-06)
(0.12597 0.0014755 3.5216e-06)
(0.13615 0.0016285 3.7835e-06)
(0.14708 0.0017115 3.9601e-06)
(0.1583 0.0017238 4.1193e-06)
(0.16934 0.0016636 4.2645e-06)
(0.17972 0.0015282 4.4316e-06)
(0.18897 0.001318 4.5612e-06)
(0.098856 0.00025105 0.00012229)
(0.10054 0.00077213 0.00037759)
(0.10403 0.001352 0.00066563)
(0.10949 0.0019596 0.00096517)
(0.11687 0.0025171 0.0012397)
(0.1259 0.0029592 0.0014558)
(0.13614 0.0032645 0.0016039)
(0.14713 0.0034306 0.0016841)
(0.1584 0.0034563 0.0016951)
(0.1695 0.003337 0.0016339)
(0.17995 0.0030673 0.0014982)
(0.18925 0.0026473 0.0012883)
(0.09858 0.0003713 0.0002398)
(0.10024 0.0011498 0.00074477)
(0.1037 0.0020182 0.0013115)
(0.10917 0.0029226 0.0018922)
(0.11661 0.0037498 0.0024211)
(0.12573 0.0044073 0.0028409)
(0.13608 0.0048648 0.003134)
(0.14717 0.0051147 0.0032933)
(0.15855 0.0051527 0.0033124)
(0.16976 0.0049756 0.0031895)
(0.18031 0.0045764 0.0029216)
(0.18972 0.0039564 0.0025119)
(0.098159 0.00048741 0.00035672)
(0.099749 0.0014963 0.0010849)
(0.10314 0.0026044 0.0018705)
(0.10858 0.0037573 0.0026749)
(0.11604 0.0048112 0.0034091)
(0.12523 0.0056504 0.0039942)
(0.13565 0.0062245 0.0043889)
(0.14683 0.0065134 0.0045736)
(0.1583 0.0065113 0.00454)
(0.16959 0.0062142 0.0042849)
(0.18022 0.0056141 0.003805)
(0.18971 0.004714 0.0031048)
(0.098014 -0.00024757 -0.00062647)
(0.099585 -0.00074159 -0.0019404)
(0.10295 -0.0012519 -0.0034174)
(0.1084 -0.0017576 -0.0049685)
(0.1159 -0.0022175 -0.0063867)
(0.12513 -0.0025891 -0.0075068)
(0.13562 -0.0028397 -0.0082702)
(0.14685 -0.0029428 -0.0086642)
(0.15838 -0.002887 -0.0086883)
(0.16972 -0.0026746 -0.0083343)
(0.18041 -0.0023065 -0.0075893)
(0.18995 -0.0017906 -0.0064549)
(0.098434 -0.00011505 -0.0004967)
(0.10008 -0.00036113 -0.0015469)
(0.10352 -0.0006366 -0.0027349)
(0.109 -0.00090914 -0.003985)
(0.11647 -0.0011542 -0.0051298)
(0.12563 -0.0013521 -0.0060344)
(0.13603 -0.0014972 -0.00666)
(0.14717 -0.0015799 -0.0070036)
(0.1586 -0.0015916 -0.0070653)
(0.16986 -0.0015347 -0.0068379)
(0.18047 -0.0014096 -0.0063094)
(0.18994 -0.001221 -0.0054786)
(0.098714 3.4473e-07 -0.00037682)
(0.10039 9.8131e-07 -0.0011635)
(0.10386 1.5478e-06 -0.0020442)
(0.10933 2.1191e-06 -0.0029725)
(0.11674 2.5248e-06 -0.0038255)
(0.12581 2.7941e-06 -0.0045005)
(0.13611 2.9391e-06 -0.004965)
(0.14715 2.6653e-06 -0.0052185)
(0.15848 2.2476e-06 -0.005262)
(0.16964 1.6442e-06 -0.005088)
(0.18014 8.9171e-07 -0.0046871)
(0.1895 6.5479e-08 -0.0040576)
(0.098857 0.00012221 -0.00025039)
(0.10054 0.0003773 -0.00077015)
(0.10403 0.00066512 -0.0013488)
(0.10949 0.00096449 -0.0019553)
(0.11687 0.0012387 -0.0025118)
(0.1259 0.0014548 -0.0029534)
(0.13614 0.0016029 -0.0032585)
(0.14713 0.0016825 -0.0034244)
(0.1584 0.0016931 -0.0034504)
(0.1695 0.0016312 -0.0033316)
(0.17995 0.0014946 -0.0030625)
(0.18925 0.0012838 -0.0026432)
(0.098856 0.00025107 -0.00012151)
(0.10054 0.0007722 -0.0003752)
(0.10403 0.0013521 -0.00066181)
(0.10949 0.0019597 -0.00096004)
(0.11687 0.002517 -0.0012334)
(0.1259 0.0029593 -0.0014488)
(0.13614 0.0032647 -0.0015965)
(0.14712 0.0034306 -0.0016762)
(0.1584 0.0034564 -0.001687)
(0.1695 0.0033371 -0.0016255)
(0.17995 0.0030675 -0.0014895)
(0.18925 0.0026475 -0.0012795)
(0.098712 0.00037747 3.8896e-07)
(0.10039 0.0011655 1.1665e-06)
(0.10386 0.0020473 1.8457e-06)
(0.10933 0.0029767 2.5013e-06)
(0.11674 0.0038308 3.1322e-06)
(0.12581 0.0045064 3.4336e-06)
(0.13611 0.0049712 3.5804e-06)
(0.14715 0.0052249 3.9044e-06)
(0.15848 0.0052682 4.0196e-06)
(0.16964 0.0050938 4.1267e-06)
(0.18014 0.0046923 4.2522e-06)
(0.1895 0.0040622 4.328e-06)
(0.098432 0.00049734 0.00011591)
(0.10008 0.0015487 0.00036348)
(0.10352 0.0027379 0.00064034)
(0.10899 0.0039892 0.00091419)
(0.11647 0.0051349 0.0011603)
(0.12563 0.0060403 0.001359)
(0.13603 0.0066666 0.0015044)
(0.14717 0.0070104 0.0015871)
(0.15861 0.007072 0.0015982)
(0.16987 0.0068443 0.0015407)
(0.18048 0.0063153 0.0014148)
(0.18994 0.0054837 0.0012251)
(0.098011 0.00062694 0.00024835)
(0.099582 0.0019419 0.00074394)
(0.10295 0.0034199 0.0012556)
(0.1084 0.0049719 0.0017626)
(0.1159 0.0063908 0.0022234)
(0.12514 0.0075118 0.0025956)
(0.13562 0.0082758 0.0028463)
(0.14686 0.0086704 0.002949)
(0.15838 0.0086944 0.0028929)
(0.16973 0.0083402 0.0026798)
(0.18042 0.0075949 0.002311)
(0.18996 0.0064604 0.0017941)
(0.097733 -0.00014788 -0.00076292)
(0.099258 -0.00039334 -0.0023842)
(0.10258 -0.00056968 -0.0042379)
(0.10804 -0.00070569 -0.0061852)
(0.11561 -0.00082994 -0.0079583)
(0.12496 -0.00094093 -0.0093545)
(0.13556 -0.0010028 -0.010307)
(0.14691 -0.00097789 -0.0108)
(0.15855 -0.00084752 -0.010834)
(0.17001 -0.00061806 -0.010397)
(0.18082 -0.00029549 -0.0094753)
(0.19048 0.00010905 -0.0080728)
(0.09815 4.279e-07 -0.00061222)
(0.099753 1.1289e-06 -0.001927)
(0.10316 1.6887e-06 -0.0034461)
(0.10864 2.3402e-06 -0.0050449)
(0.11617 2.8237e-06 -0.0065023)
(0.12543 3.079e-06 -0.0076489)
(0.13593 3.1345e-06 -0.0084441)
(0.14718 3.0167e-06 -0.0088886)
(0.15871 2.7558e-06 -0.0089801)
(0.17008 2.3047e-06 -0.0087109)
(0.18079 1.6514e-06 -0.008066)
(0.19036 1.0693e-06 -0.0070457)
(0.098434 0.00011579 -0.00049676)
(0.10008 0.00036313 -0.0015469)
(0.10352 0.00063974 -0.002735)
(0.109 0.00091353 -0.0039852)
(0.11647 0.0011596 -0.0051303)
(0.12563 0.0013581 -0.0060348)
(0.13603 0.0015031 -0.0066603)
(0.14717 0.0015856 -0.0070041)
(0.15861 0.0015965 -0.007066)
(0.16987 0.0015386 -0.0068387)
(0.18048 0.001412 -0.0063104)
(0.18994 0.0012218 -0.0054797)
(0.098582 0.00023968 -0.00037064)
(0.10024 0.00074439 -0.0011479)
(0.1037 0.0013108 -0.0020151)
(0.10917 0.0018915 -0.0029185)
(0.11662 0.0024204 -0.0037451)
(0.12573 0.00284 -0.0044019)
(0.13608 0.0031327 -0.0048587)
(0.14717 0.003292 -0.0051088)
(0.15855 0.0033106 -0.0051471)
(0.16976 0.0031871 -0.0049706)
(0.18031 0.0029184 -0.004572)
(0.18972 0.0025079 -0.0039528)
(0.098581 0.00037133 -0.00023905)
(0.10024 0.0011499 -0.00074243)
(0.1037 0.0020183 -0.0013077)
(0.10917 0.0029228 -0.0018872)
(0.11661 0.0037503 -0.0024153)
(0.12573 0.0044076 -0.0028342)
(0.13607 0.0048648 -0.0031264)
(0.14717 0.005115 -0.0032857)
(0.15855 0.0051529 -0.0033045)
(0.16976 0.0049759 -0.0031813)
(0.18031 0.0045768 -0.0029132)
(0.18972 0.0039568 -0.0025034)
(0.098433 0.00049736 -0.00011517)
(0.10008 0.0015488 -0.00036122)
(0.10352 0.002738 -0.00063672)
(0.10899 0.0039893 -0.00090934)
(0.11647 0.0051353 -0.0011545)
(0.12563 0.0060405 -0.0013524)
(0.13603 0.0066663 -0.001497)
(0.14717 0.0070104 -0.0015794)
(0.1586 0.007072 -0.0015904)
(0.16986 0.0068443 -0.0015327)
(0.18047 0.0063153 -0.0014066)
(0.18994 0.0054838 -0.0012168)
(0.098148 0.00061277 3.389e-07)
(0.099752 0.0019286 1.007e-06)
(0.10316 0.0034486 1.7244e-06)
(0.10863 0.0050484 2.3155e-06)
(0.11617 0.0065065 2.8013e-06)
(0.12543 0.007654 3.2551e-06)
(0.13593 0.0084502 3.4867e-06)
(0.14718 0.008895 3.7882e-06)
(0.15871 0.0089863 3.7695e-06)
(0.17008 0.0087167 3.7674e-06)
(0.18079 0.0080714 3.7985e-06)
(0.19036 0.0070507 3.8714e-06)
(0.097731 0.00076331 0.00014869)
(0.099256 0.0023854 0.00039574)
(0.10258 0.0042397 0.00057363)
(0.10804 0.0061877 0.00071104)
(0.11561 0.0079613 0.00083634)
(0.12496 0.0093581 0.00094836)
(0.13556 0.010311 0.0010105)
(0.14692 0.010805 0.00098545)
(0.15855 0.010839 0.00085442)
(0.17001 0.010403 0.00062445)
(0.18082 0.0094813 0.0003011)
(0.19048 0.0080795 -0.00010466)
(0.097312 2.9691e-07 -0.0010727)
(0.098745 8.3081e-07 -0.0033234)
(0.10199 1.2697e-06 -0.0058614)
(0.10746 1.7898e-06 -0.0085459)
(0.11515 2.2398e-06 -0.010994)
(0.12467 2.4515e-06 -0.012908)
(0.13544 2.4235e-06 -0.014172)
(0.14696 2.3964e-06 -0.014759)
(0.15875 2.1167e-06 -0.014681)
(0.17038 1.7343e-06 -0.013931)
(0.18136 1.2031e-06 -0.012492)
(0.19118 5.1651e-07 -0.010361)
(0.097733 0.00014864 -0.00076288)
(0.099258 0.00039534 -0.0023842)
(0.10258 0.00057278 -0.0042378)
(0.10804 0.00071006 -0.0061851)
(0.11562 0.00083539 -0.0079581)
(0.12496 0.00094693 -0.0093544)
(0.13557 0.0010085 -0.010307)
(0.14692 0.00098344 -0.0108)
(0.15855 0.00085238 -0.010834)
(0.17001 0.00062197 -0.010397)
(0.18082 0.00029818 -0.0094753)
(0.19048 -0.00010762 -0.0080731)
(0.098013 0.00024818 -0.00062649)
(0.099584 0.00074346 -0.0019405)
(0.10295 0.0012549 -0.0034176)
(0.1084 0.0017619 -0.0049687)
(0.1159 0.0022229 -0.0063869)
(0.12514 0.0025949 -0.007507)
(0.13562 0.0028453 -0.0082703)
(0.14686 0.0029482 -0.0086645)
(0.15838 0.0028914 -0.0086887)
(0.16973 0.0026776 -0.0083349)
(0.18042 0.0023079 -0.0075899)
(0.18996 0.0017902 -0.0064559)
(0.09816 0.00035671 -0.00048677)
(0.099751 0.0010847 -0.0014944)
(0.10314 0.00187 -0.0026014)
(0.10858 0.0026744 -0.0037533)
(0.11605 0.0034089 -0.0048066)
(0.12523 0.0039937 -0.0056449)
(0.13565 0.004388 -0.0062184)
(0.14683 0.0045726 -0.0065075)
(0.1583 0.0045382 -0.0065058)
(0.16959 0.0042823 -0.0062094)
(0.18022 0.0038015 -0.0056101)
(0.18971 0.0031003 -0.0047108)
(0.09816 0.00048748 -0.000356)
(0.09975 0.0014965 -0.0010826)
(0.10314 0.0026047 -0.0018667)
(0.10858 0.0037577 -0.0026699)
(0.11604 0.0048118 -0.0034035)
(0.12523 0.0056509 -0.0039877)
(0.13565 0.0062248 -0.0043817)
(0.14683 0.006514 -0.0045664)
(0.1583 0.006512 -0.0045324)
(0.16959 0.0062151 -0.0042771)
(0.18022 0.0056151 -0.003797)
(0.1897 0.004715 -0.0030967)
(0.098012 0.00062701 -0.00024761)
(0.099583 0.0019421 -0.00074165)
(0.10295 0.0034202 -0.0012521)
(0.1084 0.0049724 -0.0017581)
(0.1159 0.0063916 -0.0022183)
(0.12513 0.0075124 -0.0025896)
(0.13562 0.0082764 -0.0028393)
(0.14685 0.0086709 -0.0029421)
(0.15838 0.0086951 -0.0028856)
(0.16972 0.008341 -0.0026723)
(0.18041 0.0075957 -0.0023033)
(0.18996 0.0064611 -0.0017864)
(0.097731 0.00076341 -0.00014806)
(0.099256 0.0023856 -0.00039384)
(0.10258 0.0042401 -0.00057049)
(0.10804 0.0061881 -0.00070689)
(0.11561 0.0079617 -0.00083156)
(0.12496 0.0093586 -0.00094267)
(0.13556 0.010312 -0.0010039)
(0.14691 0.010806 -0.00097878)
(0.15855 0.01084 -0.00084771)
(0.17001 0.010403 -0.0006177)
(0.18082 0.009482 -0.00029427)
(0.19048 0.0080801 0.00011157)
(0.09731 0.0010733 2.2209e-07)
(0.098743 0.003325 6.7682e-07)
(0.10199 0.005864 1.138e-06)
(0.10746 0.0085495 1.469e-06)
(0.11515 0.010999 1.6233e-06)
(0.12467 0.012913 2.1e-06)
(0.13544 0.014178 2.3993e-06)
(0.14696 0.014765 2.5489e-06)
(0.15875 0.014688 2.5718e-06)
(0.17038 0.013938 2.6398e-06)
(0.18136 0.012499 2.6974e-06)
(0.19118 0.010369 2.6236e-06)
(0.1944 -0.020602 0.0026392)
(0.18394 -0.022608 0.0032166)
(0.17232 -0.02371 0.0036086)
(0.16005 -0.023955 0.0038107)
(0.14763 -0.023448 0.0038424)
(0.13548 -0.022226 0.0037155)
(0.12408 -0.020158 0.0034153)
(0.11402 -0.017042 0.0029157)
(0.10598 -0.012831 0.002214)
(0.10042 -0.0081773 0.0014217)
(0.09725 -0.0041663 0.00073198)
(0.09588 -0.0011954 0.0002108)
(0.19374 -0.017575 0.0038389)
(0.1835 -0.019506 0.0042055)
(0.17207 -0.020622 0.004407)
(0.15999 -0.020961 0.0044458)
(0.14775 -0.020599 0.0043471)
(0.13579 -0.019561 0.0041233)
(0.12462 -0.017746 0.0037466)
(0.11479 -0.015016 0.0031694)
(0.1069 -0.011378 0.0023741)
(0.10133 -0.0073708 0.0014861)
(0.098007 -0.0038464 0.0007285)
(0.096491 -0.0011351 0.00019654)
(0.19328 -0.015207 0.00843)
(0.18313 -0.016926 0.0092079)
(0.17181 -0.017934 0.0096284)
(0.15983 -0.018258 0.0097112)
(0.14769 -0.017959 0.0094953)
(0.13583 -0.017057 0.0089947)
(0.12475 -0.015472 0.0081542)
(0.11499 -0.013096 0.0068911)
(0.10713 -0.0099456 0.0051937)
(0.10157 -0.0064825 0.0033208)
(0.098252 -0.0034117 0.001696)
(0.096734 -0.0010171 0.00048699)
(0.19311 -0.013203 0.010244)
(0.18301 -0.01465 0.011408)
(0.17174 -0.015488 0.012087)
(0.15981 -0.015739 0.0123)
(0.14772 -0.01546 0.012094)
(0.13593 -0.014672 0.011488)
(0.12491 -0.013307 0.010429)
(0.1152 -0.011265 0.0088342)
(0.10738 -0.0085446 0.0066958)
(0.10182 -0.005545 0.0043294)
(0.098464 -0.002902 0.0022532)
(0.096915 -0.00086107 0.00066386)
(0.19311 -0.010241 0.013207)
(0.18301 -0.011403 0.014655)
(0.17174 -0.01208 0.015495)
(0.15981 -0.012292 0.015748)
(0.14772 -0.012085 0.015469)
(0.13593 -0.011479 0.014681)
(0.1249 -0.01042 0.013316)
(0.1152 -0.0088264 0.011273)
(0.10738 -0.0066895 0.0085511)
(0.10182 -0.0043247 0.0055497)
(0.098463 -0.0022503 0.002905)
(0.096914 -0.00066288 0.0008621)
(0.19329 -0.0084273 0.015211)
(0.18314 -0.0092038 0.016931)
(0.17181 -0.0096228 0.017942)
(0.15983 -0.0097044 0.018267)
(0.14769 -0.0094877 0.017969)
(0.13583 -0.0089867 0.017068)
(0.12475 -0.0081464 0.015482)
(0.11499 -0.006884 0.013104)
(0.10713 -0.0051877 0.0099525)
(0.10157 -0.0033163 0.0064874)
(0.098249 -0.0016932 0.0034148)
(0.096731 -0.00048609 0.0010181)
(0.19374 -0.0038346 0.017578)
(0.1835 -0.004201 0.019511)
(0.17208 -0.0044023 0.020629)
(0.15999 -0.0044406 0.02097)
(0.14775 -0.0043413 0.020609)
(0.13579 -0.0041171 0.019571)
(0.12462 -0.0037405 0.017756)
(0.11479 -0.0031637 0.015025)
(0.1069 -0.002369 0.011385)
(0.10132 -0.0014822 0.007376)
(0.098003 -0.00072624 0.0038496)
(0.096487 -0.00019589 0.0011362)
(0.19441 -0.002635 0.020605)
(0.18394 -0.0032129 0.022613)
(0.17232 -0.0036052 0.023716)
(0.16006 -0.0038072 0.023963)
(0.14763 -0.0038384 0.023458)
(0.13548 -0.0037113 0.022237)
(0.12408 -0.0034111 0.020168)
(0.11402 -0.0029116 0.017051)
(0.10598 -0.0022102 0.012839)
(0.10042 -0.0014187 0.0081829)
(0.097245 -0.00073011 0.0041696)
(0.095875 -0.00021018 0.0011965)
(0.19658 -0.01375 0.002045)
(0.18477 -0.014677 0.0022443)
(0.17186 -0.015086 0.0023598)
(0.15845 -0.015012 0.0023959)
(0.14499 -0.014535 0.0023544)
(0.13165 -0.013681 0.0022291)
(0.11865 -0.01235 0.002007)
(0.10668 -0.010393 0.001683)
(0.097358 -0.007762 0.0012878)
(0.092283 -0.0048692 0.00087845)
(0.091002 -0.0024217 0.00049364)
(0.091345 -0.00067594 0.00015754)
(0.19652 -0.012499 0.0032546)
(0.18483 -0.013417 0.0034846)
(0.17202 -0.013848 0.0036043)
(0.15869 -0.013827 0.0036159)
(0.14528 -0.013421 0.0035189)
(0.132 -0.012647 0.0033056)
(0.11911 -0.011418 0.0029591)
(0.10733 -0.0096109 0.0024742)
(0.09817 -0.007204 0.0018971)
(0.093037 -0.0045704 0.0013058)
(0.091521 -0.0023174 0.00074187)
(0.091669 -0.00066298 0.00023936)
(0.19642 -0.010763 0.0057812)
(0.18479 -0.011612 0.0061927)
(0.17202 -0.012037 0.0063871)
(0.15873 -0.012064 0.0063723)
(0.14535 -0.011742 0.0061737)
(0.13211 -0.011077 0.0058021)
(0.11927 -0.0099956 0.0052277)
(0.10757 -0.0084107 0.0044037)
(0.098462 -0.0063365 0.0033133)
(0.093309 -0.004086 0.002119)
(0.091721 -0.0021205 0.0010901)
(0.091811 -0.00062137 0.00032078)
(0.19639 -0.0093304 0.0074202)
(0.18477 -0.010057 0.008014)
(0.17202 -0.010419 0.0083053)
(0.15875 -0.010438 0.0083111)
(0.1454 -0.010153 0.0080723)
(0.1322 -0.0095719 0.0076056)
(0.11942 -0.008634 0.0068681)
(0.10773 -0.0072661 0.0057918)
(0.098616 -0.0054775 0.0043505)
(0.093473 -0.003536 0.0027648)
(0.091909 -0.0018396 0.0014109)
(0.091988 -0.00054213 0.00041045)
(0.19639 -0.0074164 0.009334)
(0.18477 -0.0080084 0.010062)
(0.17202 -0.0082976 0.010426)
(0.15875 -0.0083018 0.010446)
(0.1454 -0.0080621 0.010162)
(0.1322 -0.0075952 0.0095815)
(0.11942 -0.0068578 0.0086435)
(0.10773 -0.0057827 0.0072746)
(0.098614 -0.0043434 0.005484)
(0.093471 -0.0027596 0.0035407)
(0.091908 -0.0014075 0.0018426)
(0.091987 -0.0004093 0.00054318)
(0.19643 -0.0057779 0.010766)
(0.18479 -0.0061875 0.011616)
(0.17203 -0.0063797 0.012043)
(0.15873 -0.006363 0.012072)
(0.14535 -0.0061636 0.01175)
(0.13211 -0.0057915 0.011085)
(0.11927 -0.0052172 0.010004)
(0.10756 -0.0043945 0.0084181)
(0.098459 -0.0033058 0.0063424)
(0.093305 -0.0021133 0.0040904)
(0.091718 -0.0010865 0.0021233)
(0.091808 -0.00031956 0.00062234)
(0.19652 -0.0032514 0.012501)
(0.18484 -0.00348 0.01342)
(0.17202 -0.0035982 0.013852)