/*--------------------------------*- C++ -*----------------------------------*\
| =========                 |                                                 |
| \\      /  F ield         | OpenFOAM: The Open Source CFD Toolbox           |
|  \\    /   O peration     | Version:  4.1                                   |
|   \\  /    A nd           | Web:      www.OpenFOAM.org                      |
|    \\/     M anipulation  |                                                 |
\*---------------------------------------------------------------------------*/
FoamFile
{
    version     2.0;
    format      ascii;
    class       volVectorField;
    location    "0.0057";
    object      U;
}
// * * * * * * * * * * * * * * * * * * * * * * * * * * * * * * * * * * * * * //

dimensions      [0 1 -1 0 0 0 0];

internalField   nonuniform List<vector> 
1536
(
(0.020749 3.7655e-05 -3.7325e-07)
(0.020835 7.7473e-05 -1.0498e-06)
(0.020987 -8.5762e-05 -2.0051e-06)
(0.021251 -0.00046789 -2.377e-06)
(0.021691 -0.0009667 -2.9617e-06)
(0.022445 -0.001471 -2.9799e-06)
(0.023556 -0.0019779 -3.2776e-06)
(0.025081 -0.0025511 -3.5758e-06)
(0.027127 -0.0033122 -3.9387e-06)
(0.02986 -0.0043302 -4.0279e-06)
(0.033479 -0.0056028 -3.9587e-06)
(0.038166 -0.0070797 -3.8207e-06)
(0.020789 -2.7031e-05 -3.167e-05)
(0.020865 -5.9063e-05 -6.2465e-05)
(0.021011 -0.00017212 -5.0574e-05)
(0.021284 -0.00035218 5.1049e-05)
(0.021754 -0.00062952 0.00015745)
(0.022539 -0.00095706 0.00024973)
(0.023681 -0.0013309 0.0003247)
(0.025243 -0.0017795 0.00038543)
(0.027335 -0.002355 0.00044429)
(0.030117 -0.0031003 0.00052641)
(0.033782 -0.0040177 0.00063551)
(0.038502 -0.0050776 0.00076751)
(0.020796 -1.5595e-05 -3.7018e-06)
(0.020884 -3.7108e-05 -3.4563e-06)
(0.021042 -0.00013298 2.1836e-05)
(0.021327 -0.0002924 0.00010838)
(0.021811 -0.00052868 0.00021783)
(0.0226 -0.00079561 0.00033854)
(0.023753 -0.0010924 0.0004682)
(0.025341 -0.001448 0.00060614)
(0.027467 -0.0019075 0.00076871)
(0.030283 -0.002506 0.00097973)
(0.033977 -0.0032423 0.0012432)
(0.038718 -0.0040924 0.0015503)
(0.020805 -9.0521e-06 -1.1859e-06)
(0.020893 -2.4238e-05 1.4207e-06)
(0.021054 -9.408e-05 5.0642e-05)
(0.021344 -0.00022671 0.00016226)
(0.021835 -0.00041333 0.00031324)
(0.022631 -0.00062558 0.00047891)
(0.023793 -0.00086051 0.00065373)
(0.025393 -0.001135 0.00085148)
(0.027535 -0.0014831 0.0010989)
(0.030367 -0.0019353 0.0014199)
(0.034076 -0.0024923 0.0018173)
(0.038827 -0.0031365 0.0022785)
(0.020806 6.6831e-07 8.481e-06)
(0.020894 -2.9599e-06 2.2528e-05)
(0.021055 -5.3242e-05 9.1206e-05)
(0.021344 -0.00016563 0.00022316)
(0.021835 -0.00031695 0.00040935)
(0.022631 -0.00048294 0.00062123)
(0.023793 -0.00065796 0.00085592)
(0.025393 -0.0008554 0.0011309)
(0.027535 -0.0011029 0.001479)
(0.030367 -0.0014241 0.001931)
(0.034076 -0.0018217 0.0024879)
(0.038827 -0.002283 0.0031319)
(0.020797 3.2433e-06 1.4985e-05)
(0.020884 2.0476e-06 3.5261e-05)
(0.021043 -2.4456e-05 0.00012992)
(0.021328 -0.00011152 0.00028851)
(0.021811 -0.00022151 0.00052465)
(0.0226 -0.00034243 0.00079117)
(0.023753 -0.00047218 0.0010878)
(0.025341 -0.00061024 0.0014434)
(0.027467 -0.00077281 0.0019029)
(0.030283 -0.00098396 0.0025014)
(0.033977 -0.0012475 0.0032377)
(0.038718 -0.0015549 0.0040876)
(0.020791 3.1333e-05 2.6356e-05)
(0.020867 6.1162e-05 5.6867e-05)
(0.021012 4.8062e-05 0.00016864)
(0.021285 -5.4083e-05 0.00034812)
(0.021755 -0.00016087 0.00062506)
(0.02254 -0.00025314 0.00095257)
(0.023681 -0.00032814 0.0013265)
(0.025243 -0.00038956 0.0017745)
(0.027335 -0.0004481 0.0023504)
(0.030118 -0.00053028 0.0030958)
(0.033782 -0.00063942 0.0040134)
(0.038502 -0.00077161 0.0050733)
(0.020751 -1.5683e-07 -3.8832e-05)
(0.020838 -3.1719e-07 -8.0883e-05)
(0.020989 -5.5048e-07 8.077e-05)
(0.021252 -5.4586e-07 0.00046313)
(0.021691 -4.3003e-07 0.00096193)
(0.022445 -9.1031e-08 0.0014662)
(0.023556 3.3491e-07 0.0019731)
(0.025081 7.3275e-07 0.0025459)
(0.027127 8.6249e-07 0.0033075)
(0.02986 9.6656e-07 0.0043259)
(0.03348 9.284e-07 0.0055987)
(0.038166 7.7838e-07 0.0070755)
(0.020789 -2.6989e-05 3.0702e-05)
(0.020865 -5.9001e-05 5.9508e-05)
(0.02101 -0.00017159 4.5173e-05)
(0.021284 -0.00035167 -5.7231e-05)
(0.021754 -0.00062882 -0.00016477)
(0.022539 -0.00095636 -0.00025801)
(0.023681 -0.0013308 -0.00033331)
(0.025243 -0.0017788 -0.00039511)
(0.027335 -0.0023543 -0.00045452)
(0.030117 -0.0030995 -0.00053681)
(0.033782 -0.0040169 -0.00064573)
(0.038502 -0.0050769 -0.00077733)
(0.020823 -4.2947e-05 -4.9168e-07)
(0.020893 -9.3334e-05 -1.4725e-06)
(0.021039 -0.00018588 -2.8327e-06)
(0.021324 -0.00029244 -3.3614e-06)
(0.021821 -0.00047968 -3.9226e-06)
(0.022633 -0.00072128 -4.3611e-06)
(0.023805 -0.00102 -4.807e-06)
(0.025397 -0.0013965 -5.037e-06)
(0.027527 -0.001872 -5.4402e-06)
(0.030357 -0.0024808 -5.563e-06)
(0.034068 -0.0032248 -5.4675e-06)
(0.038826 -0.0040809 -5.2879e-06)
(0.020828 -2.7806e-05 1.6754e-05)
(0.02091 -6.363e-05 3.7336e-05)
(0.021072 -0.00013878 4.3088e-05)
(0.021371 -0.00023802 5.2302e-05)
(0.02188 -0.00039773 7.3725e-05)
(0.022696 -0.00059642 0.0001173)
(0.023878 -0.00083431 0.00018618)
(0.025493 -0.0011297 0.00027132)
(0.027655 -0.0015052 0.00036172)
(0.030518 -0.0019857 0.00047202)
(0.034258 -0.0025728 0.00060664)
(0.039038 -0.0032487 0.00076222)
(0.020834 -2.3746e-05 1.7374e-05)
(0.020919 -5.5361e-05 3.9819e-05)
(0.021086 -0.00010628 6.9278e-05)
(0.021392 -0.00017773 0.00011285)
(0.021907 -0.00029193 0.00018497)
(0.022729 -0.0004411 0.00028246)
(0.023917 -0.00062386 0.00040642)
(0.025542 -0.00084875 0.00055873)
(0.02772 -0.0011261 0.00074049)
(0.0306 -0.0014783 0.00096818)
(0.034354 -0.0019085 0.0012466)
(0.039145 -0.0024042 0.0015679)
(0.020834 -1.7987e-05 2.3158e-05)
(0.020919 -4.1589e-05 5.3648e-05)
(0.021086 -7.2263e-05 0.0001034)
(0.021392 -0.00011648 0.00017416)
(0.021907 -0.00018903 0.00028781)
(0.022729 -0.00028664 0.0004368)
(0.023917 -0.00041065 0.00061945)
(0.025542 -0.00056298 0.00084459)
(0.02772 -0.00074473 0.0011221)
(0.0306 -0.00097248 0.0014741)
(0.034354 -0.001251 0.0019041)
(0.039145 -0.0015724 0.0023997)
(0.020829 -1.7404e-05 2.7259e-05)
(0.020911 -3.9156e-05 6.1988e-05)
(0.021073 -4.6332e-05 0.00013594)
(0.021372 -5.607e-05 0.00023445)
(0.02188 -7.7908e-05 0.00039379)
(0.022696 -0.00012159 0.00059213)
(0.023878 -0.00019043 0.00082986)
(0.025493 -0.00027576 0.0011255)
(0.027655 -0.00036602 0.001501)
(0.030518 -0.0004763 0.0019814)
(0.034259 -0.00061096 0.0025683)
(0.039038 -0.00076663 0.003244)
(0.020825 -1.7675e-07 4.2463e-05)
(0.020895 -3.8035e-07 9.1785e-05)
(0.02104 -7.2558e-07 0.00018301)
(0.021325 -6.0474e-07 0.00028882)
(0.021821 -2.9696e-07 0.00047549)
(0.022634 1.8206e-07 0.00071702)
(0.023805 6.4921e-07 0.0010157)
(0.025396 1.1526e-06 0.0013922)
(0.027527 1.3555e-06 0.0018677)
(0.030357 1.5139e-06 0.0024765)
(0.034069 1.4456e-06 0.0032204)
(0.038826 1.2448e-06 0.0040763)
(0.020791 -3.1647e-05 2.6363e-05)
(0.020867 -6.1896e-05 5.6862e-05)
(0.021012 -4.9395e-05 0.00016872)
(0.021285 5.31e-05 0.00034832)
(0.021755 0.00016044 0.0006254)
(0.022539 0.00025358 0.00095284)
(0.023681 0.00032906 0.0013267)
(0.025243 0.00039155 0.0017743)
(0.027335 0.00045041 0.0023502)
(0.030117 0.00053286 0.0030955)
(0.033782 0.00064183 0.004013)
(0.038502 0.00077355 0.0050728)
(0.020795 -1.5632e-05 2.6598e-06)
(0.020882 -3.7151e-05 3.1908e-07)
(0.021041 -0.00013314 -2.7837e-05)
(0.021327 -0.00029221 -0.00011463)
(0.021811 -0.0005287 -0.0002253)
(0.0226 -0.00079521 -0.0003469)
(0.023753 -0.001092 -0.00047657)
(0.02534 -0.0014473 -0.00061616)
(0.027467 -0.001907 -0.00077911)
(0.030282 -0.0025055 -0.00099037)
(0.033977 -0.0032417 -0.0012538)
(0.038718 -0.0040917 -0.0015608)
(0.020827 -2.7814e-05 -1.7753e-05)
(0.020909 -6.3635e-05 -4.0343e-05)
(0.021071 -0.00013901 -4.8773e-05)
(0.021371 -0.00023812 -5.8882e-05)
(0.021879 -0.00039806 -8.1414e-05)
(0.022696 -0.00059665 -0.00012603)
(0.023878 -0.00083396 -0.00019532)
(0.025493 -0.0011299 -0.00028162)
(0.027655 -0.0015053 -0.00037257)
(0.030518 -0.0019857 -0.00048315)
(0.034258 -0.0025727 -0.00061767)
(0.039038 -0.0032484 -0.00077297)
(0.020839 -1.7086e-05 -4.925e-07)
(0.020926 -4.156e-05 -1.4783e-06)
(0.0211 -0.00010032 -2.714e-06)
(0.021413 -0.00018235 -3.2395e-06)
(0.021934 -0.0003089 -3.6714e-06)
(0.02276 -0.00046022 -4.2712e-06)
(0.023954 -0.00063535 -4.8095e-06)
(0.02559 -0.0008539 -5.1517e-06)
(0.02778 -0.0011351 -5.3996e-06)
(0.030674 -0.001494 -5.5521e-06)
(0.034442 -0.0019317 -5.5415e-06)
(0.039242 -0.0024356 -5.4527e-06)
(0.020845 -1.1843e-05 5.0904e-06)
(0.020935 -2.924e-05 1.2337e-05)
(0.021114 -6.7324e-05 3.0231e-05)
(0.021433 -0.00012189 5.7103e-05)
(0.021961 -0.00020476 9.9177e-05)
(0.022792 -0.00030521 0.00014867)
(0.023993 -0.00042315 0.00020655)
(0.025639 -0.00056985 0.00027942)
(0.027843 -0.00075632 0.00037168)
(0.030752 -0.00099292 0.00048782)
(0.034533 -0.0012811 0.00062946)
(0.039345 -0.0016131 0.00079278)
(0.020846 -5.7005e-06 1.1239e-05)
(0.020936 -1.4078e-05 2.7505e-05)
(0.021114 -3.3231e-05 6.4353e-05)
(0.021433 -6.0675e-05 0.0001183)
(0.021961 -0.00010303 0.00020077)
(0.022792 -0.00015274 0.00030101)
(0.023994 -0.0002107 0.00041887)
(0.025639 -0.00028354 0.00056566)
(0.027843 -0.00037583 0.00075218)
(0.030752 -0.00049204 0.00098868)
(0.034533 -0.00063376 0.0012768)
(0.039345 -0.0007972 0.0016086)
(0.02084 -1.3001e-07 1.6482e-05)
(0.020927 -2.708e-07 3.9815e-05)
(0.021101 -4.7673e-07 9.7248e-05)
(0.021413 -3.7806e-07 0.00017865)
(0.021935 -9.695e-08 0.00030488)
(0.02276 2.0492e-07 0.00045593)
(0.023954 6.7342e-07 0.00063093)
(0.02559 1.1275e-06 0.00084967)
(0.02778 1.2509e-06 0.0011309)
(0.030674 1.3727e-06 0.0014897)
(0.034442 1.3214e-06 0.0019273)
(0.039243 1.1331e-06 0.0024311)
(0.020829 1.7116e-05 2.7227e-05)
(0.020911 3.8519e-05 6.1897e-05)
(0.021073 4.5166e-05 0.0001357)
(0.021372 5.5118e-05 0.00023423)
(0.02188 7.7445e-05 0.00039349)
(0.022696 0.00012191 0.00059197)
(0.023878 0.00019141 0.00082958)
(0.025493 0.00027802 0.0011255)
(0.027655 0.00036853 0.001501)
(0.030518 0.00047912 0.0019815)
(0.034259 0.00061367 0.0025684)
(0.039038 0.00076894 0.0032441)
(0.020798 -3.5284e-06 1.4883e-05)
(0.020885 -2.6575e-06 3.5049e-05)
(0.021043 2.3396e-05 0.00012951)
(0.021328 0.00011084 0.00028828)
(0.021811 0.00022118 0.00052427)
(0.0226 0.0003426 0.00079086)
(0.023753 0.00047265 0.0010876)
(0.02534 0.00061196 0.001443)
(0.027467 0.00077487 0.0019028)
(0.030283 0.00098628 0.0025012)
(0.033977 0.0012497 0.0032375)
(0.038718 0.0015566 0.0040873)
(0.020804 -9.116e-06 1.5654e-07)
(0.020891 -2.4495e-05 -4.6684e-06)
(0.021053 -9.4845e-05 -5.6789e-05)
(0.021343 -0.00022684 -0.00016872)
(0.021834 -0.00041345 -0.0003208)
(0.022631 -0.00062566 -0.00048755)
(0.023793 -0.00086044 -0.00066289)
(0.025392 -0.0011351 -0.00086172)
(0.027534 -0.0014831 -0.0011096)
(0.030367 -0.0019353 -0.0014309)
(0.034076 -0.0024922 -0.0018283)
(0.038827 -0.0031361 -0.0022894)
(0.020833 -2.3761e-05 -1.8359e-05)
(0.020917 -5.5418e-05 -4.2835e-05)
(0.021085 -0.00010675 -7.4874e-05)
(0.021391 -0.00017788 -0.00011937)
(0.021907 -0.0002921 -0.00019274)
(0.022728 -0.0004413 -0.00029118)
(0.023916 -0.00062361 -0.00041539)
(0.025542 -0.00084893 -0.00056898)
(0.02772 -0.0011262 -0.00075134)
(0.030599 -0.0014784 -0.00097932)
(0.034354 -0.0019084 -0.0012577)
(0.039145 -0.002404 -0.0015789)
(0.020845 -1.185e-05 -6.0743e-06)
(0.020935 -2.9273e-05 -1.5305e-05)
(0.021113 -6.7489e-05 -3.5516e-05)
(0.021432 -0.00012194 -6.3539e-05)
(0.021961 -0.00020462 -0.00010667)
(0.022792 -0.00030517 -0.00015722)
(0.023993 -0.0004232 -0.00021599)
(0.025639 -0.00056984 -0.0002896)
(0.027843 -0.00075634 -0.00038247)
(0.030752 -0.0009929 -0.00049895)
(0.034533 -0.0012811 -0.00064062)
(0.039345 -0.001613 -0.00080385)
(0.020851 -6.2255e-06 -4.9267e-07)
(0.020943 -1.5566e-05 -1.4758e-06)
(0.021127 -3.4416e-05 -2.5712e-06)
(0.021452 -6.1544e-05 -3.2059e-06)
(0.021988 -0.00010172 -3.8146e-06)
(0.022824 -0.00015216 -4.2842e-06)
(0.024032 -0.00021178 -4.6977e-06)
(0.025688 -0.00028535 -5.126e-06)
(0.027905 -0.0003786 -5.405e-06)
(0.030828 -0.00049682 -5.5844e-06)
(0.034623 -0.00064072 -5.6211e-06)
(0.039444 -0.00080645 -5.6018e-06)
(0.020852 -1.2058e-07 5.6125e-06)
(0.020944 -2.6859e-07 1.3818e-05)
(0.021127 -4.3909e-07 3.1406e-05)
(0.021453 -3.1948e-07 5.797e-05)
(0.021988 -4.5238e-08 9.7791e-05)
(0.022824 2.5908e-07 0.00014806)
(0.024032 6.2524e-07 0.00020762)
(0.025688 1.0802e-06 0.00028127)
(0.027905 1.2896e-06 0.00037446)
(0.030828 1.4066e-06 0.00049261)
(0.034623 1.3589e-06 0.00063642)
(0.039444 1.2044e-06 0.00080203)
(0.020846 5.4536e-06 1.123e-05)
(0.020936 1.3539e-05 2.7497e-05)
(0.021114 3.2337e-05 6.4324e-05)
(0.021433 6e-05 0.00011825)
(0.021961 0.00010291 0.00020072)
(0.022792 0.00015324 0.00030099)
(0.023993 0.00021196 0.00041888)
(0.025639 0.00028575 0.00056572)
(0.027843 0.00037838 0.00075214)
(0.030752 0.00049481 0.00098865)
(0.034534 0.00063642 0.0012768)
(0.039345 0.0007995 0.0016086)
(0.020835 1.7731e-05 2.3136e-05)
(0.020919 4.1016e-05 5.3605e-05)
(0.021087 7.1283e-05 0.00010323)
(0.021392 0.00011575 0.00017398)
(0.021907 0.00018879 0.0002877)
(0.022728 0.00028712 0.00043675)
(0.023916 0.00041153 0.00061922)
(0.025542 0.00056513 0.0008446)
(0.02772 0.00074726 0.001122)
(0.0306 0.00097525 0.0014741)
(0.034354 0.0012536 0.0019041)
(0.039145 0.0015746 0.0023996)
(0.020806 -9.1253e-07 8.4006e-06)
(0.020894 2.4343e-06 2.2317e-05)
(0.021055 5.2452e-05 9.0829e-05)
(0.021344 0.00016513 0.00022282)
(0.021835 0.00031694 0.00040904)
(0.022631 0.00048359 0.00062111)
(0.023792 0.00065902 0.0008558)
(0.025392 0.00085735 0.0011306)
(0.027534 0.0011053 0.0014788)
(0.030367 0.0014266 0.001931)
(0.034076 0.001824 0.002488)
(0.038828 0.0022848 0.0031319)
(0.020803 5.129e-07 -9.5202e-06)
(0.020891 -3.5085e-06 -2.5752e-05)
(0.021053 -5.4811e-05 -9.7457e-05)
(0.021343 -0.00016608 -0.00022967)
(0.021834 -0.00031749 -0.00041719)
(0.02263 -0.00048349 -0.00063009)
(0.023792 -0.00065804 -0.00086564)
(0.025392 -0.00085604 -0.0011414)
(0.027534 -0.0011034 -0.00149)
(0.030367 -0.0014244 -0.0019423)
(0.034076 -0.001822 -0.0024992)
(0.038827 -0.0022831 -0.0031432)
(0.020833 -1.8025e-05 -2.4113e-05)
(0.020917 -4.1734e-05 -5.6563e-05)
(0.021085 -7.2951e-05 -0.00010888)
(0.021391 -0.00011667 -0.00018058)
(0.021906 -0.00018917 -0.00029547)
(0.022728 -0.00028679 -0.0004456)
(0.023916 -0.00041027 -0.00062846)
(0.025542 -0.00056307 -0.00085485)
(0.027719 -0.00074476 -0.0011328)
(0.030599 -0.00097242 -0.0014852)
(0.034354 -0.0012508 -0.0019152)
(0.039145 -0.0015721 -0.0024107)
(0.020844 -5.7102e-06 -1.2202e-05)
(0.020934 -1.4137e-05 -3.0412e-05)
(0.021113 -3.3468e-05 -6.953e-05)
(0.021432 -6.0733e-05 -0.00012468)
(0.021961 -0.0001029 -0.00020821)
(0.022792 -0.00015266 -0.00030959)
(0.023993 -0.00021069 -0.00042832)
(0.025639 -0.00028347 -0.00057585)
(0.027843 -0.00037579 -0.00076295)
(0.030752 -0.00049194 -0.00099982)
(0.034533 -0.00063359 -0.001288)
(0.039345 -0.00079692 -0.0016198)
(0.020851 -1.2227e-07 -6.5885e-06)
(0.020943 -2.8841e-07 -1.6735e-05)
(0.021127 -4.8722e-07 -3.648e-05)
(0.021452 -3.2313e-07 -6.4362e-05)
(0.021988 -3.4402e-08 -0.00010544)
(0.022824 2.9062e-07 -0.00015667)
(0.024032 6.5903e-07 -0.00021703)
(0.025688 1.0771e-06 -0.00029146)
(0.027904 1.3455e-06 -0.00038529)
(0.030828 1.4889e-06 -0.00050384)
(0.034623 1.474e-06 -0.00064776)
(0.039444 1.3632e-06 -0.00081338)
(0.020851 5.9856e-06 -4.8938e-07)
(0.020944 1.5016e-05 -1.4551e-06)
(0.021127 3.3505e-05 -2.5227e-06)
(0.021452 6.0918e-05 -3.2029e-06)
(0.021988 0.00010165 -3.8257e-06)
(0.022824 0.00015272 -4.3245e-06)
(0.024032 0.00021306 -4.7332e-06)
(0.025688 0.0002875 -5.13e-06)
(0.027904 0.00038123 -5.4523e-06)
(0.030828 0.0004997 -5.66e-06)
(0.034623 0.00064353 -5.7323e-06)
(0.039444 0.00080898 -5.7542e-06)
(0.020845 1.1603e-05 5.0796e-06)
(0.020935 2.8701e-05 1.2344e-05)
(0.021114 6.6426e-05 3.0245e-05)
(0.021433 0.00012126 5.7067e-05)
(0.021961 0.00020462 9.9077e-05)
(0.022792 0.00030574 0.00014857)
(0.023993 0.00042439 0.0002065)
(0.025639 0.00057199 0.00027953)
(0.027843 0.00075893 0.00037161)
(0.030752 0.00099573 0.00048771)
(0.034534 0.0012838 0.00062928)
(0.039345 0.0016155 0.00079251)
(0.020834 2.3511e-05 1.7362e-05)
(0.020919 5.4839e-05 3.9831e-05)
(0.021086 0.00010538 6.9226e-05)
(0.021391 0.0001771 0.00011277)
(0.021907 0.00029166 0.00018487)
(0.022728 0.00044158 0.00028239)
(0.023916 0.00062479 0.00040611)
(0.025542 0.0008509 0.00055892)
(0.02772 0.0011288 0.0007404)
(0.0306 0.0014811 0.00096805)
(0.034354 0.0019111 0.0012463)
(0.039145 0.0024063 0.0015675)
(0.020806 8.7905e-06 -1.2964e-06)
(0.020894 2.3644e-05 1.1779e-06)
(0.021055 9.3114e-05 5.0213e-05)
(0.021344 0.00022613 0.00016198)
(0.021835 0.00041328 0.00031301)
(0.02263 0.00062616 0.00047879)
(0.023792 0.00086182 0.00065337)
(0.025392 0.0011372 0.00085127)
(0.027534 0.0014858 0.0010988)
(0.030367 0.0019381 0.00142)
(0.034076 0.0024949 0.0018175)
(0.038828 0.0031386 0.0022785)
(0.020794 2.9901e-06 -1.5944e-05)
(0.020881 1.305e-06 -3.8271e-05)
(0.02104 -2.6374e-05 -0.00013555)
(0.021326 -0.00011223 -0.00029504)
(0.02181 -0.00022224 -0.00053239)
(0.022599 -0.00034323 -0.00079999)
(0.023752 -0.00047267 -0.001098)
(0.02534 -0.00061125 -0.0014542)
(0.027466 -0.00077361 -0.0019145)
(0.030282 -0.00098465 -0.0025133)
(0.033977 -0.0012481 -0.0032496)
(0.038718 -0.0015551 -0.0040994)
(0.020827 -1.7437e-05 -2.8154e-05)
(0.020908 -3.9311e-05 -6.4724e-05)
(0.021071 -4.6951e-05 -0.00014112)
(0.02137 -5.6196e-05 -0.00024072)
(0.021879 -7.8193e-05 -0.00040115)
(0.022695 -0.00012171 -0.00060056)
(0.023877 -0.00019009 -0.00083908)
(0.025492 -0.00027568 -0.0011356)
(0.027654 -0.00036588 -0.0015117)
(0.030518 -0.00047607 -0.0019925)
(0.034258 -0.00061057 -0.0025794)
(0.039038 -0.00076603 -0.0032551)
(0.020838 -1.306e-07 -1.7414e-05)
(0.020926 -3.2705e-07 -4.2629e-05)
(0.021099 -6.1446e-07 -0.00010233)
(0.021412 -3.7853e-07 -0.00018496)
(0.021934 -9.7882e-08 -0.0003121)
(0.022759 2.7988e-07 -0.00046452)
(0.023953 8.2439e-07 -0.00064052)
(0.02559 1.1327e-06 -0.00085982)
(0.02778 1.4311e-06 -0.0011417)
(0.030674 1.6485e-06 -0.0015009)
(0.034442 1.7056e-06 -0.0019386)
(0.039243 1.6178e-06 -0.0024424)
(0.020844 5.458e-06 -1.2192e-05)
(0.020934 1.352e-05 -3.0364e-05)
(0.021113 3.2373e-05 -6.9392e-05)
(0.021432 6.0043e-05 -0.00012462)
(0.021961 0.00010274 -0.0002081)
(0.022791 0.00015324 -0.00030956)
(0.023993 0.00021207 -0.00042839)
(0.025639 0.00028573 -0.00057595)
(0.027843 0.00037856 -0.00076305)
(0.030752 0.00049505 -0.00099997)
(0.034533 0.00063673 -0.0012882)
(0.039345 0.00079986 -0.0016201)
(0.020845 1.1608e-05 -6.0586e-06)
(0.020935 2.8692e-05 -1.5231e-05)
(0.021113 6.6486e-05 -3.5329e-05)
(0.021432 0.0001213 -6.349e-05)
(0.021961 0.00020442 -0.00010654)
(0.022791 0.0003057 -0.00015718)
(0.023993 0.00042449 -0.00021605)
(0.025639 0.00057201 -0.00028974)
(0.027843 0.00075903 -0.0003826)
(0.030752 0.00099586 -0.00049914)
(0.034533 0.001284 -0.00064089)
(0.039345 0.0016157 -0.00080419)
(0.020839 1.6849e-05 -4.9229e-07)
(0.020927 4.0989e-05 -1.4172e-06)
(0.0211 9.9351e-05 -2.565e-06)
(0.021412 0.00018169 -3.2376e-06)
(0.021934 0.00030861 -3.6535e-06)
(0.022759 0.00046071 -4.3259e-06)
(0.023954 0.00063666 -4.9316e-06)
(0.02559 0.00085597 -5.1299e-06)
(0.02778 0.0011377 -5.5306e-06)
(0.030674 0.0014969 -5.7813e-06)
(0.034442 0.0019346 -5.888e-06)
(0.039243 0.0024382 -5.9323e-06)
(0.020828 2.759e-05 1.677e-05)
(0.02091 6.3105e-05 3.744e-05)
(0.021072 0.00013786 4.3232e-05)
(0.021371 0.00023738 5.2331e-05)
(0.021879 0.0003974 7.3928e-05)
(0.022695 0.00059677 0.00011744)
(0.023877 0.00083547 0.00018604)
(0.025492 0.0011319 0.00027171)
(0.027655 0.0015079 0.00036153)
(0.030518 0.0019886 0.00047166)
(0.034259 0.0025755 0.00060604)
(0.039039 0.0032511 0.00076138)
(0.020797 1.5306e-05 -3.8363e-06)
(0.020884 3.6388e-05 -3.6706e-06)
(0.021042 0.00013184 2.1545e-05)
(0.021327 0.00029161 0.00010816)
(0.02181 0.00052847 0.00021783)
(0.022599 0.00079615 0.00033856)
(0.023752 0.0010939 0.00046804)
(0.02534 0.0014502 0.00060621)
(0.027467 0.0019103 0.0007686)
(0.030283 0.0025091 0.00097963)
(0.033977 0.0032454 0.0012429)
(0.038718 0.0040951 0.0015496)
(0.020788 3.0974e-05 -2.7314e-05)
(0.020864 6.0604e-05 -6.0244e-05)
(0.021009 4.6603e-05 -0.00017375)
(0.021283 -5.4924e-05 -0.0003547)
(0.021753 -0.00016206 -0.00063316)
(0.022538 -0.00025419 -0.00096192)
(0.02368 -0.00032887 -0.0013369)
(0.025242 -0.00039073 -0.001786)
(0.027335 -0.00044934 -0.0023623)
(0.030117 -0.00053138 -0.0031081)
(0.033782 -0.00064038 -0.0040256)
(0.038502 -0.000772 -0.0050857)
(0.020822 -1.4552e-07 -4.326e-05)
(0.020892 -3.8494e-07 -9.4346e-05)
(0.021037 -8.3614e-07 -0.00018784)
(0.021323 -5.4376e-07 -0.00029499)
(0.02182 -1.0728e-07 -0.00048327)
(0.022632 3.6501e-07 -0.0007255)
(0.023804 7.905e-07 -0.0010244)
(0.025395 1.1112e-06 -0.0014022)
(0.027526 1.5282e-06 -0.0018784)
(0.030357 1.9e-06 -0.0024875)
(0.034068 2.0314e-06 -0.0032315)
(0.038826 2.0028e-06 -0.0040876)
(0.020827 1.7143e-05 -2.8123e-05)
(0.020908 3.8549e-05 -6.4627e-05)
(0.021071 4.5426e-05 -0.00014083)
(0.02137 5.5288e-05 -0.00024056)
(0.021878 7.7999e-05 -0.00040123)
(0.022695 0.00012238 -0.00060068)
(0.023877 0.00019123 -0.00083878)
(0.025492 0.00027796 -0.0011356)
(0.027654 0.00036885 -0.0015118)
(0.030518 0.00047959 -0.0019927)
(0.034259 0.00061426 -0.0025798)
(0.039038 0.00076955 -0.0032555)
(0.020833 1.7754e-05 -2.4082e-05)
(0.020917 4.103e-05 -5.6435e-05)
(0.021085 7.1584e-05 -0.00010845)
(0.021391 0.00011592 -0.0001804)
(0.021906 0.00018921 -0.00029572)
(0.022727 0.00028748 -0.00044577)
(0.023915 0.00041113 -0.00062831)
(0.025541 0.00056551 -0.0008551)
(0.027719 0.00074764 -0.001133)
(0.030599 0.00097568 -0.0014856)
(0.034354 0.0012541 -0.0019158)
(0.039145 0.0015752 -0.0024113)
(0.020833 2.3525e-05 -1.8337e-05)
(0.020918 5.4817e-05 -4.2731e-05)
(0.021085 0.00010559 -7.4455e-05)
(0.021391 0.00017726 -0.00011928)
(0.021906 0.0002922 -0.00019295)
(0.022727 0.00044199 -0.00029136)
(0.023915 0.00062451 -0.00041506)
(0.025541 0.00085119 -0.00056942)
(0.027719 0.001129 -0.00075158)
(0.030599 0.0014814 -0.00097966)
(0.034354 0.0019114 -0.0012582)
(0.039145 0.0024067 -0.0015794)
(0.020828 2.7604e-05 -1.7769e-05)
(0.020909 6.3086e-05 -4.0299e-05)
(0.021071 0.00013799 -4.8503e-05)
(0.021371 0.00023752 -5.8936e-05)
(0.021879 0.00039804 -8.1832e-05)
(0.022695 0.00059722 -0.00012647)
(0.023877 0.0008351 -0.00019532)
(0.025492 0.001132 -0.00028204)
(0.027654 0.0015081 -0.00037278)
(0.030518 0.0019888 -0.00048342)
(0.034259 0.0025758 -0.00061809)
(0.039038 0.0032513 -0.00077348)
(0.020824 4.2791e-05 -4.9906e-07)
(0.020893 9.2902e-05 -1.4224e-06)
(0.021039 0.00018501 -2.6573e-06)
(0.021324 0.00029184 -3.3933e-06)
(0.02182 0.00047961 -4.126e-06)
(0.022632 0.00072188 -4.5723e-06)
(0.023804 0.0010212 -5.0411e-06)
(0.025395 0.0013991 -5.1673e-06)
(0.027526 0.001875 -5.7988e-06)
(0.030357 0.0024841 -6.135e-06)
(0.034069 0.0032282 -6.3216e-06)
(0.038826 0.0040841 -6.3368e-06)
(0.02079 2.6788e-05 -3.1868e-05)
(0.020866 5.8271e-05 -6.2732e-05)
(0.021011 0.00017099 -5.0897e-05)
(0.021283 0.00035144 5.0736e-05)
(0.021753 0.00062956 0.00015728)
(0.022538 0.00095796 0.00024953)
(0.02368 0.0013327 0.0003243)
(0.025242 0.0017813 0.00038638)
(0.027335 0.0023583 0.00044399)
(0.030117 0.0031043 0.00052588)
(0.033783 0.0040219 0.00063453)
(0.038503 0.0050816 0.00076603)
(0.020748 -1.2387e-07 3.7256e-05)
(0.020833 -3.2701e-07 7.6077e-05)
(0.020986 -6.5643e-07 -8.7828e-05)
(0.02125 -4.7045e-07 -0.0004708)
(0.021689 -1.7249e-07 -0.00097076)
(0.022443 1.5199e-07 -0.0014771)
(0.023555 4.2675e-07 -0.0019865)
(0.02508 8.3358e-07 -0.0025604)
(0.027126 1.0546e-06 -0.0033225)
(0.029859 1.2996e-06 -0.004341)
(0.033479 1.387e-06 -0.0056139)
(0.038166 1.3901e-06 -0.0070906)
(0.020788 -3.1258e-05 -2.7357e-05)
(0.020864 -6.1371e-05 -6.0342e-05)
(0.021009 -4.818e-05 -0.00017399)
(0.021282 5.3999e-05 -0.00035485)
(0.021753 0.00016204 -0.00063327)
(0.022538 0.00025507 -0.00096203)
(0.02368 0.0003301 -0.0013373)
(0.025241 0.00039297 -0.001786)
(0.027334 0.00045235 -0.0023623)
(0.030117 0.00053497 -0.0031079)
(0.033782 0.00064412 -0.0040254)
(0.038502 0.00077554 -0.0050854)
(0.020795 -3.2878e-06 -1.592e-05)
(0.020882 -2.1066e-06 -3.819e-05)
(0.02104 2.4693e-05 -0.00013523)
(0.021326 0.00011146 -0.00029488)
(0.021809 0.00022228 -0.00053214)
(0.022599 0.0003438 -0.00079987)
(0.023752 0.00047337 -0.0010979)
(0.025339 0.00061365 -0.0014539)
(0.027466 0.0007765 -0.0019144)
(0.030282 0.0009879 -0.0025133)
(0.033977 0.0012514 -0.0032496)
(0.038718 0.0015582 -0.0040996)
(0.020804 -7.7525e-07 -9.4342e-06)
(0.020891 2.7907e-06 -2.5451e-05)
(0.021053 5.3244e-05 -9.6619e-05)
(0.021342 0.00016544 -0.00022931)
(0.021833 0.00031775 -0.00041709)
(0.02263 0.00048422 -0.00063013)
(0.023792 0.00065917 -0.00086572)
(0.025391 0.00085859 -0.0011413)
(0.027534 0.0011063 -0.0014903)
(0.030367 0.0014276 -0.0019429)
(0.034076 0.001825 -0.0025)
(0.038828 0.002286 -0.003144)
(0.020804 8.8585e-06 2.9494e-07)
(0.020892 2.3826e-05 -4.2703e-06)
(0.021053 9.3444e-05 -5.5699e-05)
(0.021342 0.00022621 -0.0001683)
(0.021833 0.00041357 -0.00032086)
(0.02263 0.00062638 -0.00048756)
(0.023792 0.00086186 -0.00066266)
(0.025391 0.0011374 -0.00086213)
(0.027534 0.0014861 -0.0011101)
(0.030367 0.0019384 -0.0014316)
(0.034076 0.0024954 -0.0018292)
(0.038828 0.003139 -0.0022904)
(0.020796 1.5381e-05 2.7832e-06)
(0.020883 3.6419e-05 7.6197e-07)
(0.021041 0.00013188 -2.6858e-05)
(0.021326 0.00029142 -0.00011434)
(0.021809 0.00052858 -0.00022562)
(0.022599 0.00079591 -0.00034722)
(0.023752 0.0010938 -0.00047637)
(0.025339 0.0014499 -0.00061662)
(0.027466 0.0019103 -0.00077947)
(0.030282 0.0025092 -0.00099085)
(0.033977 0.0032455 -0.0012543)
(0.038718 0.0040952 -0.0015612)
(0.020789 2.6742e-05 3.0898e-05)
(0.020865 5.8255e-05 5.9901e-05)
(0.02101 0.00017051 4.5966e-05)
(0.021283 0.00035081 -5.6865e-05)
(0.021753 0.00062865 -0.00016492)
(0.022538 0.00095714 -0.00025821)
(0.02368 0.0013327 -0.00033322)
(0.025241 0.0017809 -0.00039635)
(0.027334 0.0023578 -0.00045489)
(0.030117 0.0031037 -0.00053725)
(0.033782 0.0040213 -0.00064623)
(0.038503 0.005081 -0.00077784)
(0.02075 -3.8274e-05 -3.7861e-07)
(0.020836 -7.9214e-05 -9.7926e-07)
(0.020987 8.3664e-05 -1.919e-06)
(0.02125 0.00046644 -2.4204e-06)
(0.02169 0.00096626 -3.2248e-06)
(0.022444 0.0014717 -3.2689e-06)
(0.023555 0.00198 -3.526e-06)
(0.02508 0.0025531 -3.9671e-06)
(0.027126 0.0033157 -4.4365e-06)
(0.029859 0.0043343 -4.6839e-06)
(0.03348 0.0056069 -4.8765e-06)
(0.038167 0.0070832 -4.9803e-06)
(0.037167 -0.0094901 0.0017635)
(0.032584 -0.0073183 0.0013785)
(0.029117 -0.0054277 0.0010454)
(0.026562 -0.0039229 0.00078296)
(0.024669 -0.0028424 0.0005966)
(0.023214 -0.0021188 0.00047257)
(0.022082 -0.0015726 0.00036594)
(0.021273 -0.0010755 0.00024597)
(0.020843 -0.00057173 0.00010462)
(0.020743 -0.00016926 -2.5292e-05)
(0.020826 6.2544e-05 -7.5578e-05)
(0.020891 2.6631e-05 -3.6207e-05)
(0.037664 -0.0085503 0.0017329)
(0.03303 -0.0066243 0.0013327)
(0.029488 -0.0049494 0.0009805)
(0.026844 -0.0036128 0.00069613)
(0.024869 -0.0026455 0.00049197)
(0.02336 -0.0019812 0.00036061)
(0.022206 -0.0014663 0.00026512)
(0.021392 -0.00099295 0.00018506)
(0.020946 -0.0005245 0.00011032)
(0.020812 -0.00015556 5.0162e-05)
(0.020849 5.1629e-05 9.6346e-06)
(0.020886 2.1359e-05 3.9664e-06)
(0.03783 -0.0075396 0.0038339)
(0.033175 -0.0058564 0.0029595)
(0.029606 -0.0043925 0.002195)
(0.026936 -0.0032205 0.0015816)
(0.024942 -0.0023634 0.0011385)
(0.023426 -0.0017662 0.00084573)
(0.022275 -0.0013016 0.00062917)
(0.021466 -0.00087988 0.00043467)
(0.021016 -0.00047153 0.00024196)
(0.020855 -0.00015869 9.1673e-05)
(0.020851 2.3817e-05 -2.6835e-06)
(0.020858 9.7042e-06 -4.9385e-07)
(0.037969 -0.0064821 0.0050777)
(0.033299 -0.005035 0.0039432)
(0.029711 -0.0037755 0.0029557)
(0.027018 -0.0027657 0.0021653)
(0.025005 -0.0020266 0.0015886)
(0.023475 -0.0015117 0.0011928)
(0.022313 -0.001113 0.00088617)
(0.021495 -0.00075486 0.00060144)
(0.021034 -0.00040918 0.00031705)
(0.020865 -0.00014722 9.13e-05)
(0.020861 1.0884e-05 -3.7099e-05)
(0.020872 4.2521e-06 -1.6169e-05)
(0.037969 -0.0050817 0.0064786)
(0.033299 -0.0039471 0.0050315)
(0.029711 -0.0029597 0.0037719)
(0.027018 -0.0021694 0.0027618)
(0.025005 -0.0015928 0.0020226)
(0.023475 -0.0011972 0.0015077)
(0.022313 -0.00089045 0.0011089)
(0.021495 -0.00060559 0.00075094)
(0.021034 -0.00032103 0.0004055)
(0.020865 -9.4548e-05 0.00014411)
(0.020862 3.5012e-05 -1.2902e-05)
(0.020873 1.5444e-05 -4.9706e-06)
(0.03783 -0.0038379 0.0075365)
(0.033175 -0.0029636 0.0058533)
(0.029606 -0.0021992 0.0043894)
(0.026936 -0.0015857 0.0032171)
(0.024942 -0.0011427 0.0023598)
(0.023426 -0.00084984 0.0017622)
(0.022275 -0.00063335 0.0012975)
(0.021467 -0.00043859 0.00087566)
(0.021017 -0.00024564 0.00046774)
(0.020856 -9.4871e-05 0.00015566)
(0.020852 7.1798e-07 -2.5954e-05)
(0.02086 -2.315e-07 -1.051e-05)
(0.037664 -0.0017381 0.0085476)
(0.033029 -0.0013377 0.0066217)
(0.029488 -0.00098535 0.0049467)
(0.026844 -0.00070087 0.0036099)
(0.024869 -0.00049667 0.002642)
(0.02336 -0.00036549 0.0019773)
(0.022206 -0.00026977 0.0014622)
(0.021393 -0.00018942 0.00098895)
(0.020947 -0.00011441 0.00052104)
(0.020813 -5.4709e-05 0.0001524)
(0.020852 -1.215e-05 -5.3739e-05)
(0.020888 -4.822e-06 -2.2076e-05)
(0.037167 -0.0017688 0.0094878)
(0.032585 -0.0013834 0.0073159)
(0.029117 -0.0010502 0.0054253)
(0.026562 -0.0007874 0.00392)
(0.024668 -0.00060082 0.0028393)
(0.023213 -0.00047642 0.0021151)
(0.022082 -0.00036956 0.0015687)
(0.021274 -0.00024953 0.0010717)
(0.020844 -0.00010806 0.00056841)
(0.020745 2.1639e-05 0.00016695)
(0.020829 7.3675e-05 -6.4279e-05)
(0.020895 3.5577e-05 -2.7257e-05)
(0.032934 -0.0055412 0.0009381)
(0.028766 -0.004236 0.00072774)
(0.025891 -0.0030954 0.00054337)
(0.024054 -0.0021846 0.0003938)
(0.022863 -0.0015289 0.00028648)
(0.021918 -0.0010941 0.00021179)
(0.02105 -0.0007793 0.00015514)
(0.02034 -0.00053225 0.00010412)
(0.019999 -0.0003366 6.073e-05)
(0.020058 -0.00021913 2.8892e-05)
(0.020443 -0.00011747 9.6117e-06)
(0.020768 -6.0855e-05 6.0563e-06)
(0.03331 -0.0051739 0.001403)