/*--------------------------------*- C++ -*----------------------------------*\
  =========                 |
  \\      /  F ield         | OpenFOAM: The Open Source CFD Toolbox
   \\    /   O peration     | Website:  https://openfoam.org
    \\  /    A nd           | Version:  8
     \\/     M anipulation  |
\*---------------------------------------------------------------------------*/
FoamFile
{
    version     2.0;
    format      ascii;
    class       volScalarField::Internal;
    location    "0.0650000";
    object      V0;
}
// * * * * * * * * * * * * * * * * * * * * * * * * * * * * * * * * * * * * * //

dimensions      [0 3 0 0 0 0 0];

value           nonuniform List<scalar> 
900
(
3.94204353762692e-14
3.89492477983709e-14
3.84783240449569e-14
3.8007518601186e-14
3.75369398013911e-14
3.7066538588191e-14
3.65964333565091e-14
3.61266846743732e-14
3.56571804515632e-14
3.51878516550313e-14
3.47187792646662e-14
3.42500089410934e-14
3.37814613648589e-14
3.33130829384455e-14
3.28449482891052e-14
3.23770958494095e-14
3.190945572347e-14
3.14419880030973e-14
3.09747627778371e-14
3.05078215920819e-14
3.00410971394007e-14
2.9574542720586e-14
2.91082389340815e-14
2.86422335566105e-14
2.81764533469598e-14
2.77108448280033e-14
2.72455163581363e-14
2.6780519992856e-14
2.63157608716391e-14
2.58511780788977e-14
2.538692714146e-14
2.49230734717346e-14
2.44594858186535e-14
2.39960800048206e-14
2.35331059400492e-14
2.3070652814354e-14
2.26085186323055e-14
2.21465873155881e-14
2.16852728338179e-14
2.12247099995825e-14
2.07645723235318e-14
2.03046695747301e-14
1.98457441652491e-14
1.93879942498943e-14
1.89308009471169e-14
1.84739866504118e-14
1.80187779730255e-14
1.75654306804207e-14
1.71128754756043e-14
1.66610598894972e-14
1.62119507589409e-14
1.57657948601657e-14
1.53208232921182e-14
1.48773839439292e-14
1.44385225438416e-14
1.40043071740264e-14
1.35718859747771e-14
1.3142441304135e-14
1.271929793363e-14
1.2303353520131e-14
1.18900561225391e-14
1.14844630439032e-14
1.11067909869329e-14
1.07568284279744e-14
1.04169555959291e-14
1.01116234373968e-14
9.85099331332683e-15
9.61032027104383e-15
9.37844003489036e-15
9.18677520007891e-15
9.03070349057761e-15
8.877134559561e-15
8.74176006291112e-15
8.62643912161371e-15
8.51537487314146e-15
8.40674271722866e-15
8.29954243781559e-15
8.17640322545971e-15
8.0399568770564e-15
7.90518697802288e-15
7.73095407799639e-15
7.51260199412071e-15
7.29558298440555e-15
7.04062031085159e-15
6.71835218893738e-15
6.39489472017838e-15
6.2759588432651e-15
6.28779183999694e-15
6.2616841450445e-15
6.24064558847954e-15
6.20049175010293e-15
6.14806386785413e-15
6.09942635436814e-15
6.0485173755839e-15
5.99422430928807e-15
5.94029350266642e-15
5.88530343716754e-15
5.82966585451824e-15
5.77084334948744e-15
5.65602679167634e-15
4.03838871764549e-14
3.98902220264996e-14
3.9397240389687e-14
3.89048481199472e-14
3.84130396364842e-14
3.79217743899502e-14
3.74310463062138e-14
3.6940851148393e-14
3.64511704551876e-14
3.59619887856636e-14
3.54733056928709e-14
3.49851206864959e-14
3.44974228104589e-14
3.40102040239548e-14
3.3523467844148e-14
3.30372165585601e-14
3.25514433105632e-14
3.20661444544879e-14
3.15813265624124e-14
3.10969939907392e-14
3.06131415250668e-14
3.0129767368822e-14
2.96468807677415e-14
2.91644886911776e-14
2.86825877957782e-14
2.82011795682323e-14
2.77202781345772e-14
2.7239893550167e-14
2.67600235972093e-14
2.62806745691185e-14
2.58018694308839e-14
2.5323624466038e-14
2.4845939828874e-14
2.43688305848947e-14
2.38923362597721e-14
2.34164850380484e-14
2.29412819924427e-14
2.24667588530411e-14
2.19929852970713e-14
2.15200109781238e-14
2.10478494937417e-14
2.05765626475641e-14
2.01062734002764e-14
1.96370660092963e-14
1.91689689142684e-14
1.87020979169827e-14
1.82366646625059e-14
1.77728091007686e-14
1.73105936562584e-14
1.6850232690227e-14
1.63920789777526e-14
1.59363563850797e-14
1.54831937143808e-14
1.5032976783405e-14
1.45862753240174e-14
1.41434342527345e-14
1.37047093006551e-14
1.32708161742163e-14
1.28429720392812e-14
1.24225405489533e-14
1.20117374468041e-14
1.16147577905776e-14
1.12364540297715e-14
1.08798815305859e-14
1.05473884592942e-14
1.02419224192912e-14
9.96460081349407e-15
9.71316454775914e-15
9.48607049604332e-15
9.28376527754211e-15
9.10414341363192e-15
8.94245680560038e-15
8.79522438624676e-15
8.65943303893854e-15
8.53022083469132e-15
8.40254901296225e-15
8.27128887888897e-15
8.1309433824722e-15
7.97776406698087e-15
7.80781468111341e-15
7.61338968709296e-15
7.39105238451602e-15
7.14182191291941e-15
6.85982572248106e-15
6.53989922757276e-15
6.21443390731472e-15
6.08504519630089e-15
6.11637081130738e-15
6.11988830487169e-15
6.10666670895591e-15
6.07979635368833e-15
6.04293516462926e-15
6.00080157747575e-15
5.95517535298349e-15
5.9071066892114e-15
5.85802313755053e-15
5.80896337059498e-15
5.76098238614047e-15
5.71465681125124e-15
5.6779060576783e-15
4.13402588326648e-14
4.08249259427557e-14
4.03103379400981e-14
3.97966113158438e-14
3.92837220551269e-14
3.8771629838616e-14
3.8260329898314e-14
3.77498184003634e-14
3.72400750988958e-14
3.67310834514911e-14
3.62228438977814e-14
3.57153563256937e-14
3.52086084925197e-14
3.4702591562015e-14
3.41973099759177e-14
3.3692766406651e-14
3.31889528644738e-14
3.26858651011915e-14
3.21835106795359e-14
3.1681894425478e-14
3.11810099644467e-14
3.06808548091845e-14
3.01814394347008e-14
2.96827714190591e-14
2.91848460821603e-14
2.86876641526378e-14
2.81912414748918e-14
2.76955888299226e-14
2.72007021862016e-14
2.67065869267995e-14
2.62132686506973e-14
2.57207646101445e-14
2.52290722519634e-14
2.47382053955044e-14
2.42482079849659e-14
2.37591095822571e-14
2.32709107584555e-14
2.27836413368966e-14
2.22973788153269e-14
2.18121750241393e-14
2.13280354704056e-14
2.08450185439275e-14
2.03632620896875e-14
1.98828533275357e-14
1.94038047042791e-14
1.89262281960709e-14
1.8450361690432e-14
1.79763481393492e-14
1.75042207094166e-14
1.70341911607911e-14
1.65666570946383e-14
1.61018424736471e-14
1.56398240189208e-14
1.51809916871041e-14
1.47259900909657e-14
1.4275153212812e-14
1.38286445059279e-14
1.33871908634125e-14
1.29520852265411e-14
1.25246547995236e-14
1.21069164126919e-14
1.17031844353833e-14
1.1318834210928e-14
1.09568018959704e-14
1.06189273728444e-14
1.03087411209887e-14
1.00275868932528e-14
9.77248852876986e-15
9.5417016143007e-15
9.33617028104876e-15
9.1536629832698e-15
8.98892655230469e-15
8.8385324106986e-15
8.69934394063777e-15
8.56638641848758e-15
8.43444559284581e-15
8.29828344414984e-15
8.15258810579875e-15
7.99322458077609e-15
7.81561304799886e-15
7.61358100062727e-15
7.38355369357874e-15
7.12420058913824e-15
6.83175094544477e-15
6.5033497602862e-15
6.17018852159921e-15
6.03751896498865e-15
6.07087074739392e-15
6.0789794255104e-15
6.06887419080727e-15
6.04517097588958e-15
6.01161221891775e-15
5.97180953921792e-15
5.92805731926826e-15
5.88182633489529e-15
5.83448324951596e-15
5.78733684603268e-15
5.74191524212227e-15
5.7008340723544e-15
5.67278439985323e-15
4.22985071157243e-14
4.17614337223008e-14
4.12251845195914e-14
4.06900807722279e-14
4.01560704596187e-14
3.9623113006713e-14
3.90912032814977e-14
3.85603370246064e-14
3.80304933526704e-14
3.75016553096425e-14
3.69738232038843e-14
3.64469966937202e-14
3.59211631555646e-14
3.5396313544829e-14
3.48724522904795e-14
3.43495819445787e-14
3.38276942700537e-14
3.33067849243797e-14
3.27868615307136e-14
3.22679288475484e-14
3.17499803010802e-14
3.12330133601297e-14
3.07170386152552e-14
3.02020636253453e-14
2.96880835575914e-14
2.91750991729194e-14
2.86631265063771e-14
2.81521763485106e-14
2.76422445436988e-14
2.7133336609166e-14
2.66254784575632e-14
2.61186874055596e-14
2.56129608232861e-14
2.51083128346905e-14
2.46047879075488e-14
2.41024157594882e-14
2.36011969541635e-14
2.31011619015866e-14
2.26023889636284e-14
2.21049302586633e-14
2.16087913805802e-14
2.11140317538875e-14
2.06207905720627e-14
2.01291554641877e-14
1.96391391247539e-14
1.91508552266814e-14
1.86645436000046e-14
1.81803477466664e-14
1.76983014481928e-14
1.72186190685069e-14
1.67417006950766e-14
1.62677709373363e-14
1.57969077544411e-14
1.53295047192442e-14
1.48662091940159e-14
1.44073557813954e-14
1.39531102490872e-14
1.35042050945007e-14
1.30619406570845e-14
1.26276543932447e-14
1.22033835216588e-14
1.17934681280036e-14
1.14032977146676e-14
1.10358141424304e-14
1.06928596670048e-14
1.03779477568225e-14
1.00924003826598e-14
9.83321050712845e-15
9.59858377602603e-15
9.38942398251685e-15
9.20346468961645e-15
9.03539718281581e-15
8.88172866513507e-15
8.73927040699267e-15
8.60299351259367e-15
8.46762333850209e-15
8.32786606166528e-15
8.17835945025975e-15
8.01490572217025e-15
7.83287492656009e-15
7.62613171288103e-15
7.39104402007631e-15
7.12612324324327e-15
6.82773225906459e-15
6.49326206026843e-15
6.15457137215431e-15
6.02018178699033e-15
6.05321861387338e-15
6.06195843605772e-15
6.05267175031383e-15
6.02989464479422e-15
5.99733131588337e-15
5.95845347470562e-15
5.91556201787036e-15
5.87017356323567e-15
5.82366625450229e-15
5.77739549046938e-15
5.7330128028701e-15
5.69332392705816e-15
5.66661546647072e-15
4.32584200625647e-14
4.26995493027946e-14
4.21415931339805e-14
4.15850748783452e-14
4.10299067143699e-14
4.04760476477332e-14
3.99234921451367e-14
3.93722355900064e-14
3.88222564799289e-14
3.82735373856187e-14
3.77260784696882e-14
3.71798792101084e-14
3.66349266100895e-14
3.60912113698359e-14
3.5548737900842e-14
3.50075086770173e-14
3.44675152146571e-14
3.39287530351843e-14
3.33912298239021e-14
3.28549503153367e-14
3.23199077343093e-14
3.17860994600115e-14
3.12535362037802e-14
3.07222255509699e-14
3.01921625053352e-14
2.96633478073448e-14
2.91357976968871e-14
2.86095230285753e-14
2.8084519499151e-14
2.75607926898576e-14
2.70383688549206e-14
2.65172654457325e-14
2.59974797072572e-14
2.54790259651463e-14
2.49619492686624e-14
2.4446279592195e-14
2.39320173941191e-14
2.34191935125126e-14
2.29078872990145e-14
2.23981513138144e-14
2.18899910354223e-14
2.13834666691328e-14
2.08787190435734e-14
2.03758364331414e-14
1.98748313492872e-14
1.93758187903344e-14
1.88790411167047e-14
1.83846426992973e-14
1.78926570887805e-14
1.74033007909222e-14
1.69169775363765e-14
1.64339129121548e-14
1.59541844923559e-14
1.54781890575406e-14
1.50065789230971e-14
1.45396893903223e-14
1.40776853798994e-14
1.36213041620953e-14
1.3171855153895e-14
1.27306834424158e-14
1.22998385540926e-14
1.18836904119562e-14
1.14876613950285e-14
1.11146983517872e-14
1.07666338265352e-14
1.04469810794888e-14
1.01570470699331e-14
9.89377345952029e-15
9.65531033200037e-15
9.44252973578579e-15
9.25312661464741e-15
9.08172926949824e-15
8.92478442210393e-15
8.77905668655386e-15
8.63947163476549e-15
8.5007096079051e-15
8.35743786508578e-15
8.20425959731741e-15
8.03695596816136e-15
7.85088937845534e-15
7.63991747745499e-15
7.40039718527679e-15
7.13082900997359e-15
6.82758731668235e-15
6.48811447624864e-15
6.14490611486405e-15
6.0093893442462e-15
6.04187445876799e-15
6.05058273435596e-15
6.04153295615953e-15
6.01915493884783e-15
5.98709592148926e-15
5.94877416651412e-15
5.90646103205574e-15
5.86166129741512e-15
5.81574437930958e-15
5.7700628916648e-15
5.72627214538831e-15
5.6871531274821e-15
5.66084295773087e-15
4.42199404737856e-14
4.36392177934033e-14
4.30595107331203e-14
4.24815423279042e-14
4.19051814405369e-14
4.13303862959011e-14
4.07571508996829e-14
4.01854703362313e-14
3.96153225159466e-14
3.90466894832222e-14
3.84795712263106e-14
3.79139670852749e-14
3.73498637101512e-14
3.67872515051431e-14
3.62261348462203e-14
3.56665161658626e-14
3.51083867479822e-14
3.45517419421412e-14
3.39965894831489e-14
3.34429341188669e-14
3.28907688866948e-14
3.23400910393473e-14
3.17909113951416e-14
3.12432376036501e-14
3.069706451702e-14
3.01523928131146e-14
2.96092389247336e-14
2.90676138154645e-14
2.85275130423165e-14
2.79889421951487e-14
2.74519278574351e-14
2.69164876725693e-14
2.63826187630707e-14
2.58503355778589e-14
2.53196837349936e-14
2.4790693546085e-14
2.42633653604867e-14
2.37377303272263e-14
2.32138687734344e-14
2.26918338235453e-14
2.21716308302248e-14
2.16533205996073e-14
2.11370455857246e-14
2.06228949012321e-14
2.01108808469736e-14
1.96011194799424e-14
1.9093855698123e-14
1.85892350240831e-14
1.80872907190233e-14
1.75882410646631e-14
1.70924934866459e-14
1.66002749424937e-14
1.61116625120393e-14
1.56270557134351e-14
1.51471119469474e-14
1.46721677355143e-14
1.42023869657929e-14
1.3738510951414e-14
1.32818579805622e-14
1.28337807342915e-14
1.23963398821868e-14
1.19739340099285e-14
1.15720197863469e-14
1.11935516721976e-14
1.08403532863438e-14
1.05159378784532e-14
1.0221598676405e-14
9.95422662982894e-15
9.71191581069839e-15
9.49550601959378e-15
9.30265271341896e-15
9.12792058856722e-15
8.96769562006104e-15
8.81869496407272e-15
8.6757982494694e-15
8.53364170682714e-15
8.38685572164922e-15
8.23001292737959e-15
8.05888034021741e-15
7.86882076195388e-15
7.65369211791225e-15
7.4098557300336e-15
7.13582276302874e-15
6.8279821322123e-15
6.48381692964202e-15
6.1364261363568e-15
6.00000826189937e-15
6.03195349693284e-15
6.04051861850208e-15
6.03157673130706e-15
6.00947463277009e-15
5.97780662183831e-15
5.93994660804901e-15
5.89813387162624e-15
5.85385266060482e-15
5.80845637011626e-15
5.76328236497791e-15
5.71996636908066e-15
5.68124996161135e-15
5.65519024675069e-15
4.51830080772111e-14
4.45803808870361e-14
4.39788803158667e-14
4.33794274896194e-14
4.27818405939248e-14
4.21860764568022e-14
4.15921285598466e-14
4.09999917480753e-14
4.04096433769316e-14
3.98210649073367e-14
3.92342561219989e-14
3.86492162669609e-14
3.80659316595007e-14
3.74843923639371e-14
3.69046027010744e-14
3.63265651000283e-14
3.57502706269449e-14
3.51757144212141e-14
3.46029042529619e-14
3.40318449220544e-14
3.34625292928938e-14
3.28949544524439e-14
3.23291313099913e-14
3.17650676181909e-14
3.12027580905407e-14
3.06422032970079e-14
3.00834198490302e-14
2.95264188656252e-14
2.89711957718357e-14
2.84177561066202e-14
2.78661267690416e-14
2.73163256539987e-14
2.6768349761333e-14
2.6222213579224e-14
2.56779632821972e-14
2.51356296019361e-14
2.45952127707555e-14
2.40567441242141e-14
2.35203049508126e-14
2.29859490653998e-14
2.24536816790329e-14
2.19235640075996e-14
2.13957401232082e-14
2.08703001777611e-14
2.03472562236311e-14
1.98267250941539e-14
1.93089542450714e-14
1.87940906474532e-14
1.82821671867593e-14
1.77734035377471e-14
1.726821091739e-14
1.67668180634154e-14
1.62693014023449e-14
1.5776062720589e-14
1.52877647143215e-14
1.48047456683297e-14
1.43271681745359e-14
1.38557768547241e-14
1.33918987541009e-14
1.29368940829401e-14
1.24928333770019e-14
1.20641431641236e-14
1.16563167773025e-14
1.12723192010719e-14
1.09139657942806e-14
1.05847705812252e-14
1.02860144339935e-14
1.00145371537674e-14
9.76837553603202e-15
9.54833612108562e-15
9.35203305052434e-15
9.1739655229885e-15
9.01045720705629e-15
8.8581755625366e-15
8.71195229944943e-15
8.56637824345378e-15
8.41604589996924e-15
8.25549766162798e-15
8.08048768373669e-15
7.88638087309456e-15
7.66703864500228e-15
7.41883123400121e-15
7.14028583532658e-15
6.82781336599096e-15
6.47895204020955e-15
6.12741695822113e-15
5.99012991136522e-15
6.02151679954825e-15
6.02990401705341e-15
6.02103988171505e-15
5.99918736143079e-15
5.96788672705254e-15
5.93046809625122e-15
5.88913860891429e-15
5.84536068060772e-15
5.80046962741487e-15
5.75578327415307e-15
5.71290624008446e-15
5.67452394550636e-15
5.6486379884472e-15
4.61478608972637e-14
4.55233262799438e-14
4.49000107956656e-14
4.42790465840776e-14
4.36602081096235e-14
4.30434498915437e-14
4.24287648149268e-14
4.18161475482914e-14
4.12055749308295e-14
4.05970277905187e-14
3.99905056791973e-14
3.93860077946148e-14
3.87835201468093e-14
3.818303242539e-14
3.75845488865607e-14
3.6988071997488e-14
3.63935926257157e-14
3.58011056700847e-14
3.52106189329823e-14
3.46221373123974e-14
3.40356535224426e-14
3.34511644556473e-14
3.28686811002642e-14
3.22882113603775e-14
3.17097498480423e-14
3.11332969905058e-14
3.05588695658459e-14
2.99864789073024e-14
2.94161203277292e-14
2.8847799272978e-14
2.82815429558925e-14
2.77173695945258e-14
2.71552760849167e-14
2.65952768904074e-14
2.60374187371541e-14
2.54817328754699e-14
2.49282194372583e-14
2.43769098309711e-14
2.38278863059368e-14
2.32812035110919e-14
2.27368665208081e-14
2.21949367831713e-14
2.16555599818948e-14
2.11188275125723e-14
2.05847511599193e-14
2.00534482703785e-14
1.95251688470756e-14
1.90000615722307e-14
1.84781588953887e-14
1.79596814784217e-14
1.74450443096513e-14
1.69344782402704e-14
1.64280588778657e-14
1.59261896952578e-14
1.54295386219956e-14
1.49384460541997e-14
1.44530729175484e-14
1.39741660562052e-14
1.35030605041231e-14
1.30411231175812e-14
1.2590431826359e-14
1.21554378411021e-14
1.1741669699504e-14
1.13521026372818e-14
1.0988541658729e-14
1.06544980465111e-14
1.0351237921938e-14
1.00755485562738e-14
9.82540688116545e-15
9.60158181943023e-15
9.40164320897968e-15
9.22002450129325e-15
9.05298652880733e-15
8.89714617788813e-15
8.74728840524894e-15
8.59796134604724e-15
8.44372335577224e-15
8.2790914217344e-15
8.09981116049233e-15
7.9012544261725e-15
7.67729263352702e-15
7.42430843165392e-15
7.14084700882421e-15
6.82335690527614e-15
6.46949904426177e-15
6.11368230277879e-15
5.97535398860368e-15
6.00597158757706e-15
6.01410706410172e-15
6.00530891506875e-15
5.98370558594577e-15
5.9527746597799e-15
5.91580111894026e-15
5.87496031308949e-15
5.8316930491892e-15
5.78731585825465e-15
5.74312300374761e-15
5.700662367736e-15
5.66241883016115e-15
5.63624043944345e-15
4.70957957546974e-14
4.64428648249143e-14
4.57977474972945e-14
4.51552487157869e-14
4.45151366553377e-14
4.38773619218901e-14
4.32419172358292e-14
4.26087971786028e-14
4.19779785473743e-14
4.13494411497592e-14
4.0723183823845e-14
4.00992062477123e-14
3.9477494494285e-14
3.88580375925046e-14
3.82408390815167e-14
3.76259019669135e-14
3.70132173230402e-14
3.64027796711542e-14
3.57945963701881e-14
3.51886726500533e-14
3.45850013974623e-14
3.39835789494388e-14
3.33844166222909e-14
3.27875228161959e-14
3.21928911423002e-14
3.16005219113236e-14
3.10104326044261e-14
3.04226346667634e-14
2.98371237102356e-14
2.92539046095685e-14
2.86730047708556e-14
2.80944429950123e-14
2.7518216291143e-14
2.69443385494035e-14
2.63728570682058e-14
2.5803803879325e-14
2.52371789525772e-14
2.46730138425238e-14
2.41113911004854e-14
2.35523664655637e-14
2.29959452863973e-14
2.24421886829723e-14
2.18912433553777e-14
2.13432025659217e-14
2.07980784969423e-14
2.02559872979487e-14
1.97171807789419e-14
1.91818109941517e-14
1.86499098672306e-14
1.81216973001604e-14
1.75975914555296e-14
1.70778267740174e-14
1.65624780898611e-14
1.60519474553656e-14
1.55469080454282e-14
1.50477042707002e-14
1.45544942543979e-14
1.40680237363778e-14
1.35896320085489e-14
1.31206917699036e-14
1.26632816360384e-14
1.22218624205809e-14
1.18019955625642e-14
1.14066752904527e-14
1.10376903620168e-14
1.06985423549625e-14
1.03904963019864e-14
1.01102984020291e-14
9.85585752048416e-15
9.62790524400586e-15
9.42398598503663e-15
9.23847599451207e-15
9.06757672202086e-15
8.9078686598981e-15
8.75410413664704e-15
8.60079889828034e-15
8.44249022123683e-15
8.27367902861771e-15
8.09010775021123e-15
7.88716520023633e-15
7.65873799573395e-15
7.40121497307313e-15
7.11316129400081e-15
6.79108301596807e-15
6.43303307723037e-15
6.0749373396447e-15
5.93573668419861e-15
5.96428691221874e-15
5.97211291111156e-15
5.96335912025996e-15
5.94194897425512e-15
5.91130300570849e-15
5.87467105712774e-15
5.83420581760897e-15
5.79133216832778e-15
5.74735240258172e-15
5.70354052666519e-15
5.66137504724375e-15
5.62286756052594e-15
5.5916235228613e-15
)
;


// ************************************************************************* //
