/*--------------------------------*- C++ -*----------------------------------*\
| =========                 |                                                 |
| \\      /  F ield         | foam-extend: Open Source CFD                    |
|  \\    /   O peration     | Version:     4.1-20200408                       |
|   \\  /    A nd           | Web:         http://www.foam-extend.org         |
|    \\/     M anipulation  |                                                 |
\*---------------------------------------------------------------------------*/
FoamFile
{
    version     2.0;
    format      ascii;
    class       volScalarField;
    location    "0.0360000";
    object      sigmaCauchyEq;
}
// * * * * * * * * * * * * * * * * * * * * * * * * * * * * * * * * * * * * * //

dimensions      [1 -1 -2 0 0 0 0];

internalField   nonuniform List<scalar> 
1952
(
3.31226e+08
3.18362e+08
3.0573e+08
2.83874e+08
2.57247e+08
2.20613e+08
1.76536e+08
1.28226e+08
8.68654e+07
1.12101e+08
2.17225e+08
4.04047e+08
6.48741e+08
9.4275e+08
1.09537e+09
3.32243e+08
3.30961e+08
3.18134e+08
3.05511e+08
2.83698e+08
2.57039e+08
2.20384e+08
1.76525e+08
1.28315e+08
8.67734e+07
1.12e+08
2.17302e+08
4.04472e+08
6.49746e+08
9.43589e+08
1.09626e+09
3.31994e+08
3.30914e+08
3.18089e+08
3.05451e+08
2.83652e+08
2.56931e+08
2.20221e+08
1.7656e+08
1.28424e+08
8.68267e+07
1.12125e+08
2.17585e+08
4.04989e+08
6.50668e+08
9.44195e+08
1.0965e+09
3.31948e+08
3.31094e+08
3.18253e+08
3.05586e+08
2.83772e+08
2.5696e+08
2.20162e+08
1.76642e+08
1.28563e+08
8.6948e+07
1.12368e+08
2.1799e+08
4.05621e+08
6.51654e+08
9.44848e+08
1.09678e+09
3.32122e+08
3.31452e+08
3.18578e+08
3.05856e+08
2.83998e+08
2.57065e+08
2.20148e+08
1.76788e+08
1.28736e+08
8.71079e+07
1.12662e+08
2.18463e+08
4.0634e+08
6.52738e+08
9.45546e+08
1.0971e+09
3.32482e+08
3.31896e+08
3.18985e+08
3.0621e+08
2.84298e+08
2.57244e+08
2.20185e+08
1.7693e+08
1.28897e+08
8.72743e+07
1.12991e+08
2.18965e+08
4.07101e+08
6.5383e+08
9.46263e+08
1.09744e+09
3.3293e+08
3.32401e+08
3.19444e+08
3.06606e+08
2.84623e+08
2.57432e+08
2.20219e+08
1.77168e+08
1.2914e+08
8.75063e+07
1.1333e+08
2.19442e+08
4.07849e+08
6.54891e+08
9.4697e+08
1.09782e+09
3.33441e+08
3.32981e+08
3.1998e+08
3.07078e+08
2.85024e+08
2.57708e+08
2.20339e+08
1.77381e+08
1.29355e+08
8.77207e+07
1.13662e+08
2.19924e+08
4.08615e+08
6.55935e+08
9.47685e+08
1.09822e+09
3.34031e+08
3.33578e+08
3.20529e+08
3.0756e+08
2.85426e+08
2.57967e+08
2.2043e+08
1.77664e+08
1.29635e+08
8.79858e+07
1.14009e+08
2.20388e+08
4.09386e+08
6.56933e+08
9.48377e+08
1.09862e+09
3.34637e+08
3.34219e+08
3.2112e+08
3.08084e+08
2.85872e+08
2.58284e+08
2.20584e+08
1.77917e+08
1.29884e+08
8.82258e+07
1.14356e+08
2.20902e+08
4.10198e+08
6.57909e+08
9.49063e+08
1.09906e+09
3.35286e+08
3.34864e+08
3.21715e+08
3.08613e+08
2.86318e+08
2.58591e+08
2.20713e+08
1.78231e+08
1.30199e+08
8.85115e+07
1.14692e+08
2.21392e+08
4.1101e+08
6.58825e+08
9.49732e+08
1.0995e+09
3.35941e+08
3.3557e+08
3.22369e+08
3.09201e+08
2.86822e+08
2.58961e+08
2.20913e+08
1.78572e+08
1.3053e+08
8.87919e+07
1.15046e+08
2.21876e+08
4.11887e+08
6.59559e+08
9.50384e+08
1.09995e+09
3.36655e+08
3.36303e+08
3.2305e+08
3.09813e+08
2.87346e+08
2.59349e+08
2.21114e+08
1.78924e+08
1.30872e+08
8.90824e+07
1.15431e+08
2.22369e+08
4.12767e+08
6.60275e+08
9.51039e+08
1.10038e+09
3.37397e+08
3.37073e+08
3.23767e+08
3.10464e+08
2.87912e+08
2.59775e+08
2.21358e+08
1.79348e+08
1.31288e+08
8.94314e+07
1.15834e+08
2.22882e+08
4.1366e+08
6.60987e+08
9.51698e+08
1.10085e+09
3.38176e+08
3.37936e+08
3.24573e+08
3.112e+08
2.88554e+08
2.60274e+08
2.21667e+08
1.79801e+08
1.31733e+08
8.97921e+07
1.16218e+08
2.23397e+08
4.14529e+08
6.61703e+08
9.52368e+08
1.10133e+09
3.39047e+08
3.38872e+08
3.25451e+08
3.11996e+08
2.89258e+08
2.60811e+08
2.22017e+08
1.8026e+08
1.32175e+08
9.01543e+07
1.1661e+08
2.2394e+08
4.15439e+08
6.62469e+08
9.53045e+08
1.10183e+09
3.39994e+08
3.39838e+08
3.26357e+08
3.12822e+08
2.8999e+08
2.61384e+08
2.22389e+08
1.80745e+08
1.32638e+08
9.05233e+07
1.17026e+08
2.24503e+08
4.16393e+08
6.632e+08
9.53758e+08
1.10235e+09
3.4097e+08
3.40926e+08
3.27384e+08
3.13766e+08
2.90838e+08
2.62052e+08
2.2286e+08
1.81396e+08
1.33258e+08
9.10086e+07
1.17434e+08
2.25015e+08
4.17288e+08
6.63957e+08
9.54493e+08
1.10291e+09
3.42067e+08
3.42211e+08
3.28601e+08
3.14881e+08
2.91848e+08
2.62866e+08
2.23479e+08
1.82062e+08
1.33877e+08
9.14924e+07
1.17836e+08
2.2556e+08
4.18226e+08
6.64749e+08
9.55264e+08
1.1035e+09
3.43366e+08
3.43568e+08
3.29891e+08
3.16064e+08
2.92935e+08
2.63743e+08
2.24157e+08
1.82784e+08
1.34533e+08
9.19995e+07
1.1827e+08
2.26135e+08
4.19214e+08
6.65598e+08
9.56087e+08
1.10418e+09
3.44737e+08
3.45072e+08
3.31321e+08
3.17381e+08
2.9414e+08
2.64719e+08
2.24924e+08
1.83613e+08
1.35279e+08
9.25774e+07
1.18737e+08
2.26724e+08
4.2022e+08
6.66461e+08
9.5697e+08
1.10488e+09
3.46257e+08
3.46745e+08
3.32914e+08
3.1885e+08
2.95498e+08
2.65837e+08
2.25867e+08
1.8459e+08
1.36141e+08
9.32309e+07
1.19199e+08
2.27294e+08
4.21256e+08
6.67392e+08
9.57922e+08
1.10569e+09
3.47947e+08
3.48659e+08
3.34742e+08
3.20544e+08
2.97062e+08
2.67137e+08
2.26974e+08
1.85698e+08
1.37099e+08
9.39595e+07
1.19699e+08
2.27899e+08
4.2231e+08
6.68346e+08
9.58986e+08
1.1066e+09
3.4988e+08
3.50764e+08
3.3675e+08
3.22401e+08
2.98766e+08
2.68555e+08
2.2826e+08
1.86915e+08
1.38129e+08
9.47471e+07
1.20204e+08
2.2853e+08
4.23415e+08
6.69475e+08
9.60108e+08
1.10764e+09
3.52009e+08
3.53057e+08
3.38956e+08
3.24444e+08
3.00661e+08
2.7013e+08
2.29747e+08
1.88202e+08
1.39187e+08
9.5535e+07
1.20758e+08
2.29246e+08
4.2466e+08
6.706e+08
9.61397e+08
1.10882e+09
3.54328e+08
3.55528e+08
3.41352e+08
3.26657e+08
3.02714e+08
2.71851e+08
2.31609e+08
1.89818e+08
1.40515e+08
9.65232e+07
1.21311e+08
2.2991e+08
4.25853e+08
6.71878e+08
9.62795e+08
1.11021e+09
3.56833e+08
3.58333e+08
3.44072e+08
3.29187e+08
3.0508e+08
2.73886e+08
2.33581e+08
1.91529e+08
1.41918e+08
9.75554e+07
1.21885e+08
2.3063e+08
4.27146e+08
6.73219e+08
9.64367e+08
1.11181e+09
3.59672e+08
3.61269e+08
3.46925e+08
3.31846e+08
3.07569e+08
2.76018e+08
2.35724e+08
1.93396e+08
1.43442e+08
9.86832e+07
1.22505e+08
2.31382e+08
4.28522e+08
6.7476e+08
9.66134e+08
1.11367e+09
3.62644e+08
3.64335e+08
3.49925e+08
3.34654e+08
3.10232e+08
2.78325e+08
2.3801e+08
1.95404e+08
1.45089e+08
9.98928e+07
1.23156e+08
2.32174e+08
4.30008e+08
6.76375e+08
9.68148e+08
1.1158e+09
3.65744e+08
3.67488e+08
3.53022e+08
3.37554e+08
3.12993e+08
2.80732e+08
2.4048e+08
1.9759e+08
1.46883e+08
1.01208e+08
1.23785e+08
2.32945e+08
4.31512e+08
6.78214e+08
9.70396e+08
1.11829e+09
3.68933e+08
3.70629e+08
3.56124e+08
3.40474e+08
3.15806e+08
2.83213e+08
2.42901e+08
1.99735e+08
1.48634e+08
1.02476e+08
1.24424e+08
2.33799e+08
4.33194e+08
6.80213e+08
9.72947e+08
1.12117e+09
3.72104e+08
3.73484e+08
3.58977e+08
3.43168e+08
3.18436e+08
2.85533e+08
2.45309e+08
2.01894e+08
1.50386e+08
1.03719e+08
1.25014e+08
2.34643e+08
4.34943e+08
6.82434e+08
9.75798e+08
1.1245e+09
3.74985e+08
3.75946e+08
3.6148e+08
3.4555e+08
3.20813e+08
2.87668e+08
2.47541e+08
2.03928e+08
1.52025e+08
1.04835e+08
1.25506e+08
2.35474e+08
4.36789e+08
6.8481e+08
9.78993e+08
1.12829e+09
3.77466e+08
3.77684e+08
3.63318e+08
3.47326e+08
3.22671e+08
2.8937e+08
2.49468e+08
2.05733e+08
1.53456e+08
1.05721e+08
1.258e+08
2.36209e+08
4.38656e+08
6.87391e+08
9.82533e+08
1.13265e+09
3.7921e+08
3.78365e+08
3.6417e+08
3.48197e+08
3.23727e+08
2.90397e+08
2.50758e+08
2.07014e+08
1.54415e+08
1.06162e+08
1.25819e+08
2.36853e+08
4.40552e+08
6.90133e+08
9.86452e+08
1.13757e+09
3.79878e+08
3.77388e+08
3.63453e+08
3.47616e+08
3.23476e+08
2.90288e+08
2.51091e+08
2.07484e+08
1.54649e+08
1.059e+08
1.25409e+08
2.37318e+08
4.42454e+08
6.93055e+08
9.9072e+08
1.14311e+09
3.78862e+08
3.74147e+08
3.60596e+08
3.45058e+08
3.21438e+08
2.88619e+08
2.50052e+08
2.06805e+08
1.53859e+08
1.04664e+08
1.24441e+08
2.37528e+08
4.44265e+08
6.96012e+08
9.9536e+08
1.14929e+09
3.75546e+08
3.67868e+08
3.54849e+08
3.39817e+08
3.16952e+08
2.84814e+08
2.4725e+08
2.04644e+08
1.51777e+08
1.02184e+08
1.22699e+08
2.37341e+08
4.4585e+08
6.98973e+08
1.00024e+09
1.15611e+09
3.69142e+08
3.57644e+08
3.45333e+08
3.31096e+08
3.09299e+08
2.7825e+08
2.41955e+08
2.00373e+08
1.47884e+08
9.80269e+07
1.20151e+08
2.36749e+08
4.47155e+08
7.01776e+08
1.00536e+09
1.16353e+09
3.5872e+08
3.42251e+08
3.30879e+08
3.17824e+08
2.97495e+08
2.68073e+08
2.33679e+08
1.93645e+08
1.42004e+08
9.20946e+07
1.16833e+08
2.35678e+08
4.48054e+08
7.04271e+08
1.01048e+09
1.17148e+09
3.43023e+08
3.20486e+08
3.10346e+08
2.99006e+08
2.80692e+08
2.53649e+08
2.21875e+08
1.84116e+08
1.34155e+08
8.47173e+07
1.13289e+08
2.34343e+08
4.48297e+08
7.06211e+08
1.0154e+09
1.17984e+09
3.20798e+08
2.90896e+08
2.82383e+08
2.73542e+08
2.58005e+08
2.34425e+08
2.06432e+08
1.72059e+08
1.25302e+08
7.78088e+07
1.11216e+08
2.3323e+08
4.48089e+08
7.07382e+08
1.0198e+09
1.18835e+09
2.90496e+08
2.52095e+08
2.45809e+08
2.40717e+08
2.29115e+08
2.10712e+08
1.88209e+08
1.59058e+08
1.18428e+08
7.66216e+07
1.14186e+08
2.33695e+08
4.47682e+08
7.07545e+08
1.02331e+09
1.19664e+09
2.50542e+08
2.02845e+08
1.99872e+08
2.00807e+08
1.95145e+08
1.84832e+08
1.70726e+08
1.49807e+08
1.20273e+08
8.9907e+07
1.27668e+08
2.38351e+08
4.48065e+08
7.0674e+08
1.02544e+09
1.20417e+09
1.99231e+08
1.43282e+08
1.46194e+08
1.57917e+08
1.61863e+08
1.64438e+08
1.62644e+08
1.53687e+08
1.40022e+08
1.23398e+08
1.57268e+08
2.51621e+08
4.51107e+08
7.05328e+08
1.02576e+09
1.21008e+09
1.35214e+08
8.1163e+07
9.73645e+07
1.28298e+08
1.46206e+08
1.65619e+08
1.77739e+08
1.81598e+08
1.83221e+08
1.77183e+08
2.06339e+08
2.79529e+08
4.60494e+08
7.04285e+08
1.02307e+09
1.21308e+09
5.86179e+07
7.85676e+07
1.05015e+08
1.46621e+08
1.73382e+08
2.04036e+08
2.25078e+08
2.37754e+08
2.49755e+08
2.50595e+08
2.76784e+08
3.29396e+08
4.83482e+08
7.072e+08
1.01677e+09
1.2108e+09
4.51072e+07
1.67033e+08
1.85884e+08
2.20083e+08
2.45966e+08
2.78798e+08
3.02469e+08
3.1945e+08
3.37342e+08
3.42969e+08
3.68999e+08
4.07035e+08
5.33023e+08
7.27489e+08
1.01602e+09
1.20442e+09
1.50773e+08
2.85028e+08
2.99119e+08
3.26399e+08
3.49034e+08
3.80316e+08
4.03461e+08
4.22059e+08
4.42892e+08
4.52135e+08
4.80052e+08
5.11069e+08
6.17202e+08
7.83084e+08
1.04419e+09
1.21091e+09
2.73972e+08
4.18362e+08
4.29617e+08
4.52091e+08
4.71681e+08
5.0052e+08
5.21782e+08
5.40483e+08
5.6201e+08
5.73466e+08
6.02705e+08
6.29983e+08
7.23443e+08
8.66198e+08
1.10087e+09
1.23886e+09
4.09802e+08
5.61348e+08
5.70655e+08
5.89551e+08
6.06542e+08
6.32737e+08
6.51515e+08
6.69341e+08
6.89722e+08
7.01836e+08
7.29999e+08
7.52692e+08
8.33402e+08
9.51288e+08
1.15489e+09
1.25762e+09
5.54366e+08
7.08376e+08
7.16188e+08
7.32187e+08
7.46914e+08
7.70396e+08
7.86359e+08
8.02671e+08
8.20638e+08
8.32303e+08
8.57139e+08
8.74377e+08
9.40865e+08
1.03108e+09
1.19934e+09
1.26393e+09
7.02589e+08
8.52877e+08
8.59445e+08
8.72888e+08
8.85567e+08
9.06113e+08
9.19324e+08
9.33664e+08
9.48501e+08
9.59137e+08
9.79077e+08
9.91122e+08
1.04169e+09
1.1035e+09
1.23317e+09
1.26393e+09
8.48121e+08
9.87529e+08
9.92934e+08
1.00392e+09
1.01453e+09
1.03182e+09
1.04214e+09
1.05403e+09
1.06548e+09
1.0749e+09
1.08951e+09
1.09801e+09
1.13214e+09
1.16921e+09
1.25695e+09
1.26386e+09
9.83747e+08
1.10407e+09
1.1082e+09
1.11654e+09
1.12472e+09
1.1382e+09
1.1453e+09
1.15423e+09
1.16256e+09
1.17092e+09
1.18145e+09
1.18944e+09
1.20959e+09
1.22893e+09
1.26451e+09
1.26371e+09
1.10129e+09
1.19317e+09
1.19591e+09
1.20149e+09
1.20716e+09
1.21693e+09
1.22172e+09
1.22849e+09
1.23524e+09
1.24325e+09
1.2518e+09
1.26004e+09
1.26621e+09
1.2654e+09
1.26444e+09
1.26343e+09
1.19142e+09
1.25024e+09
1.25234e+09
1.25636e+09
1.26085e+09
1.26731e+09
1.26736e+09
1.26741e+09
1.2674e+09
1.26733e+09
1.26713e+09
1.26678e+09
1.26616e+09
1.26531e+09
1.2642e+09
1.26301e+09
1.24914e+09
1.26714e+09
1.26716e+09
1.26721e+09
1.26725e+09
1.2673e+09
1.26732e+09
1.26733e+09
1.26728e+09
1.26716e+09
1.26691e+09
1.2665e+09
1.26583e+09
1.26493e+09
1.26374e+09
1.26247e+09
1.26711e+09
1.26702e+09
1.26703e+09
1.26705e+09
1.26707e+09
1.26707e+09
1.26705e+09
1.267e+09
1.26689e+09
1.2667e+09
1.26638e+09
1.26591e+09
1.26519e+09
1.26426e+09
1.26306e+09
1.2618e+09
1.267e+09
1.26665e+09
1.26664e+09
1.26663e+09
1.2666e+09
1.26656e+09
1.26649e+09
1.26638e+09
1.2662e+09
1.26595e+09
1.26556e+09
1.26503e+09
1.26429e+09
1.26335e+09
1.26219e+09
1.26102e+09
1.26664e+09
1.26596e+09
1.26593e+09
1.26589e+09
1.26583e+09
1.26575e+09
1.26563e+09
1.26547e+09
1.26524e+09
1.26493e+09
1.26451e+09
1.26395e+09
1.2632e+09
1.26228e+09
1.26122e+09
1.26018e+09
1.26596e+09
1.26493e+09
1.26489e+09
1.26483e+09
1.26475e+09
1.26464e+09
1.26449e+09
1.2643e+09
1.26404e+09
1.26371e+09
1.26327e+09
1.2627e+09
1.26198e+09
1.26111e+09
1.26018e+09
1.25931e+09
1.26494e+09
1.26359e+09
1.26355e+09
1.26349e+09
1.2634e+09
1.26328e+09
1.26312e+09
1.26292e+09
1.26265e+09
1.26232e+09
1.26189e+09
1.26134e+09
1.26067e+09
1.25988e+09
1.2591e+09
1.25842e+09
1.2636e+09
1.26203e+09
1.26198e+09
1.26192e+09
1.26184e+09
1.26172e+09
1.26157e+09
1.26137e+09
1.26112e+09
1.26081e+09
1.2604e+09
1.2599e+09
1.2593e+09
1.25862e+09
1.25801e+09
1.25754e+09
1.26203e+09
1.26033e+09
1.26029e+09
1.26023e+09
1.26015e+09
1.26005e+09
1.2599e+09
1.25973e+09
1.2595e+09
1.25922e+09
1.25886e+09
1.25841e+09
1.25791e+09
1.25735e+09
1.25691e+09
1.25666e+09
1.26034e+09
1.25862e+09
1.25858e+09
1.25852e+09
1.25844e+09
1.25833e+09
1.2582e+09
1.25804e+09
1.25784e+09
1.25759e+09
1.25728e+09
1.25691e+09
1.2565e+09
1.25608e+09
1.25583e+09
1.2558e+09
1.25863e+09
1.25698e+09
1.25693e+09
1.25686e+09
1.25677e+09
1.25667e+09
1.25653e+09
1.25638e+09
1.2562e+09
1.25598e+09
1.25572e+09
1.25542e+09
1.25512e+09
1.25484e+09
1.25479e+09
1.25497e+09
1.25699e+09
1.25545e+09
1.2554e+09
1.25533e+09
1.25523e+09
1.25511e+09
1.25497e+09
1.25481e+09
1.25463e+09
1.25443e+09
1.25421e+09
1.25397e+09
1.25378e+09
1.25365e+09
1.25379e+09
1.25418e+09
1.25547e+09
1.25408e+09
1.25403e+09
1.25395e+09
1.25384e+09
1.25371e+09
1.25355e+09
1.25338e+09
1.2532e+09
1.253e+09
1.2528e+09
1.25262e+09
1.25251e+09
1.25254e+09
1.25285e+09
1.25341e+09
1.25409e+09
1.25286e+09
1.25281e+09
1.25274e+09
1.25263e+09
1.2525e+09
1.25233e+09
1.25215e+09
1.25195e+09
1.25175e+09
1.25156e+09
1.25142e+09
1.25138e+09
1.25152e+09
1.25196e+09
1.25266e+09
1.25288e+09
1.2518e+09
1.25175e+09
1.25168e+09
1.25157e+09
1.25145e+09
1.25129e+09
1.25112e+09
1.25092e+09
1.25073e+09
1.25056e+09
1.25048e+09
1.25048e+09
1.25066e+09
1.25114e+09
1.25187e+09
1.25181e+09
1.25087e+09
1.25082e+09
1.25075e+09
1.25065e+09
1.25055e+09
1.25045e+09
1.25034e+09
1.2502e+09
1.25008e+09
1.23998e+09
1.21667e+09
1.23063e+09
1.25011e+09
1.25044e+09
1.2511e+09
1.25089e+09
1.25019e+09
1.25015e+09
1.2501e+09
1.25003e+09
1.22796e+09
1.18828e+09
1.14718e+09
1.10196e+09
1.06719e+09
1.04245e+09
1.04386e+09
1.07214e+09
1.1429e+09
1.25003e+09
1.25045e+09
1.2502e+09
1.08163e+09
1.06739e+09
1.04832e+09
1.02429e+09
9.98868e+08
9.70158e+08
9.44191e+08
9.20058e+08
9.08893e+08
9.0767e+08
9.29033e+08
9.72595e+08
1.04778e+09
1.14119e+09
1.25007e+09
1.08586e+09
8.83669e+08
8.74895e+08
8.637e+08
8.49241e+08
8.3102e+08
8.0942e+08
7.92387e+08
7.80224e+08
7.82333e+08
7.97119e+08
8.33488e+08
8.87459e+08
9.69447e+08
1.06299e+09
1.17695e+09
8.86351e+08
7.23506e+08
7.16813e+08
7.08057e+08
6.97885e+08
6.87412e+08
6.7735e+08
6.72816e+08
6.74933e+08
6.89945e+08
7.16996e+08
7.61337e+08
8.20301e+08
8.98866e+08
9.8881e+08
1.09627e+09
7.25756e+08
5.94293e+08
5.91175e+08
5.86884e+08
5.82782e+08
5.79058e+08
5.77774e+08
5.82349e+08
5.94688e+08
6.18245e+08
6.53198e+08
7.01731e+08
7.62226e+08
8.36729e+08
9.21222e+08
1.01768e+09
5.95555e+08
4.92027e+08
4.91566e+08
4.90577e+08
4.9156e+08
4.94102e+08
5.01005e+08
5.13529e+08
5.34097e+08
5.6364e+08
6.03175e+08
6.52613e+08
7.11736e+08
7.80389e+08
8.5725e+08
9.42913e+08
4.92613e+08
4.12247e+08
4.14489e+08
4.1682e+08
4.22616e+08
4.30382e+08
4.43582e+08
4.61694e+08
4.87607e+08
5.20347e+08
5.61698e+08
6.10032e+08
6.66139e+08
7.28582e+08
7.97373e+08
8.72264e+08
4.12061e+08
3.50902e+08
3.55429e+08
3.60522e+08
3.70285e+08
3.8218e+08
4.00094e+08
4.21998e+08
4.51138e+08
4.85162e+08
5.26449e+08
5.7238e+08
6.24483e+08
6.80578e+08
7.4136e+08
8.06387e+08
3.50029e+08
3.04546e+08
3.10999e+08
3.18366e+08
3.31224e+08
3.4607e+08
3.67069e+08
3.9108e+08
4.21627e+08
4.55466e+08
4.95402e+08
5.38227e+08
5.85912e+08
6.35903e+08
6.89196e+08
7.45347e+08
3.03043e+08
2.70044e+08
2.77946e+08
2.86978e+08
3.01971e+08
3.1868e+08
3.41404e+08
3.66255e+08
3.96929e+08
4.29646e+08
4.67462e+08
5.06861e+08
5.5005e+08
5.94334e+08
6.40815e+08
6.89178e+08
2.6803e+08
2.44815e+08
2.53679e+08
2.63787e+08
2.80021e+08
2.97653e+08
3.20997e+08
3.45734e+08
3.75625e+08
4.06621e+08
4.41887e+08
4.7779e+08
5.16618e+08
5.55685e+08
5.96094e+08
6.37698e+08
2.42428e+08
2.26666e+08
2.36021e+08
2.46657e+08
2.63356e+08
2.81165e+08
3.04303e+08
3.28269e+08
3.56789e+08
3.85732e+08
4.18254e+08
4.50741e+08
4.85459e+08
5.19821e+08
5.54878e+08
5.90661e+08
2.24056e+08
2.13832e+08
2.2327e+08
2.33978e+08
2.50527e+08
2.67949e+08
2.90289e+08
3.13048e+08
3.39831e+08
3.66558e+08
3.96292e+08
4.2553e+08
4.56445e+08
4.86608e+08
5.16989e+08
5.47796e+08
2.11139e+08
2.04889e+08
2.14087e+08
2.24513e+08
2.40455e+08
2.57095e+08
2.7824e+08
2.99523e+08
3.24365e+08
3.48831e+08
3.75829e+08
4.02027e+08
4.29464e+08
4.55901e+08
4.82213e+08
5.08776e+08
2.0223e+08
1.98717e+08
2.07443e+08
2.17337e+08
2.32361e+08
2.47959e+08
2.67661e+08
2.8732e+08
3.1013e+08
3.32363e+08
3.56734e+08
3.80123e+08
4.04408e+08
4.27554e+08
4.50342e+08
4.73299e+08
1.96177e+08
1.94439e+08
2.02547e+08
2.11749e+08
2.25664e+08
2.40068e+08
2.58194e+08
2.76168e+08
2.96935e+08
3.17013e+08
3.38901e+08
3.59714e+08
3.81155e+08
4.01405e+08
4.21148e+08
4.41045e+08
1.92074e+08
1.91379e+08
1.98792e+08
2.07217e+08
2.19928e+08
2.33068e+08
2.49567e+08
2.65861e+08
2.84629e+08
3.02661e+08
3.22228e+08
3.40694e+08
3.59584e+08
3.7729e+08
3.94403e+08
4.11705e+08
1.89223e+08
1.89027e+08
1.95718e+08
2.03336e+08
2.14818e+08
2.26686e+08
2.41572e+08
2.56234e+08
2.73086e+08
2.892e+08
3.0662e+08
3.2296e+08
3.39569e+08
3.55046e+08
3.69894e+08
3.85004e+08
1.87089e+08
1.87001e+08
1.92982e+08
1.99801e+08
2.1008e+08
2.20711e+08
2.34041e+08
2.4715e+08
2.62196e+08
2.76532e+08
2.91981e+08
3.06405e+08
3.20979e+08
3.34505e+08
3.47401e+08
3.60657e+08
1.8528e+08
1.85025e+08
1.9033e+08
1.96387e+08
2.05521e+08
2.14979e+08
2.2684e+08
2.38497e+08
2.51862e+08
2.64568e+08
2.78221e+08
2.90926e+08
3.03694e+08
3.15516e+08
3.26735e+08
3.38427e+08
1.8351e+08
1.82907e+08
1.87584e+08
1.92931e+08
2.01e+08
2.09367e+08
2.19865e+08
2.30182e+08
2.42003e+08
2.53226e+08
2.65253e+08
2.76425e+08
2.87593e+08
2.97932e+08
3.07709e+08
3.18083e+08
1.81581e+08
1.80519e+08
1.84624e+08
1.89321e+08
1.96416e+08
2.03785e+08
2.13034e+08
2.22131e+08
2.32547e+08
2.42432e+08
2.52999e+08
2.6281e+08
2.72567e+08
2.81615e+08
2.90155e+08
2.99417e+08
1.79365e+08
1.77786e+08
1.81377e+08
1.85487e+08
1.91702e+08
1.98169e+08
2.06289e+08
2.14286e+08
2.23434e+08
2.32123e+08
2.41386e+08
2.49994e+08
2.58512e+08
2.66445e+08
2.73926e+08
2.82257e+08
1.76785e+08
1.7467e+08
1.77802e+08
1.8139e+08
1.86818e+08
1.9248e+08
1.99587e+08
2.06602e+08
2.14617e+08
2.22243e+08
2.30349e+08
2.37901e+08
2.45334e+08
2.52301e+08
2.58875e+08
2.66419e+08
1.73804e+08
1.71161e+08
1.73888e+08
1.77014e+08
1.81746e+08
1.86694e+08
1.92902e+08
1.99047e+08
2.06056e+08
2.12746e+08
2.19831e+08
2.26461e+08
2.32948e+08
2.39087e+08
2.44888e+08
2.51775e+08
1.70412e+08
1.6727e+08
1.69642e+08
1.72364e+08
1.76483e+08
1.80805e+08
1.8622e+08
1.91601e+08
1.97723e+08
2.03593e+08
2.09783e+08
2.15612e+08
2.21279e+08
2.26706e+08
2.31846e+08
2.3818e+08
1.66623e+08
1.63022e+08
1.65085e+08
1.67456e+08
1.71039e+08
1.74815e+08
1.79535e+08
1.8425e+08
1.89596e+08
1.94754e+08
2.00164e+08
2.05301e+08
2.10259e+08
2.1508e+08
2.1966e+08
2.25531e+08
1.62463e+08
1.58452e+08
1.60247e+08
1.62315e+08
1.65432e+08
1.68735e+08
1.7285e+08
1.76989e+08
1.81659e+08
1.86201e+08
1.90935e+08
1.9548e+08
1.9983e+08
2.04138e+08
2.08244e+08
2.13731e+08
1.57968e+08
1.53601e+08
1.55164e+08
1.5697e+08
1.59685e+08
1.62582e+08
1.66172e+08
1.69815e+08
1.739e+08
1.77915e+08
1.82066e+08
1.86107e+08
1.89937e+08
1.93812e+08
1.97517e+08
2.02681e+08
1.5318e+08
1.48511e+08
1.49875e+08
1.51458e+08
1.53826e+08
1.56374e+08
1.59512e+08
1.62731e+08
1.66312e+08
1.69878e+08
1.73531e+08
1.77145e+08
1.80534e+08
1.84048e+08
1.87418e+08
1.92319e+08
1.48145e+08
1.43229e+08
1.44421e+08
1.45814e+08
1.47883e+08
1.50135e+08
1.52884e+08
1.55742e+08
1.58892e+08
1.62079e+08
1.65305e+08
1.68563e+08
1.7158e+08
1.74794e+08
1.77885e+08
1.82569e+08
1.42908e+08
1.378e+08
1.38845e+08
1.40076e+08
1.41888e+08
1.43888e+08
1.46303e+08
1.48857e+08
1.51637e+08
1.54505e+08
1.57372e+08
1.60333e+08
1.63039e+08
1.6601e+08
1.68873e+08
1.73385e+08
1.37517e+08
1.32269e+08
1.33187e+08
1.34281e+08
1.35872e+08
1.37659e+08
1.39787e+08
1.42084e+08
1.44548e+08
1.47151e+08
1.49713e+08
1.52432e+08
1.54881e+08
1.57657e+08
1.60335e+08
1.64713e+08
1.32019e+08
1.26683e+08
1.27491e+08
1.28468e+08
1.29868e+08
1.31473e+08
1.33354e+08
1.35434e+08
1.37628e+08
1.4001e+08
1.42316e+08
1.44839e+08
1.47078e+08
1.49702e+08
1.52236e+08
1.56514e+08
1.26461e+08
1.21087e+08
1.21799e+08
1.22675e+08
1.23909e+08
1.25357e+08
1.27023e+08
1.28918e+08
1.30881e+08
1.33079e+08
1.3517e+08
1.37536e+08
1.39606e+08
1.42117e+08
1.44544e+08
1.48756e+08
1.20889e+08
1.15528e+08
1.16156e+08
1.16942e+08
1.18029e+08
1.1934e+08
1.20817e+08
1.22553e+08
1.24313e+08
1.26357e+08
1.28266e+08
1.30507e+08
1.32443e+08
1.34875e+08
1.37228e+08
1.41405e+08
1.15351e+08
1.10056e+08
1.10606e+08
1.11312e+08
1.12265e+08
1.13452e+08
1.1476e+08
1.16353e+08
1.17934e+08
1.19845e+08
1.21597e+08
1.23739e+08
1.25572e+08
1.27954e+08
1.30267e+08
1.3444e+08
1.09897e+08
1.04719e+08
1.05199e+08
1.05828e+08
1.06659e+08
1.07729e+08
1.08879e+08
1.1034e+08
1.11755e+08
1.13547e+08
1.15159e+08
1.17221e+08
1.18973e+08
1.2133e+08
1.23635e+08
1.27835e+08
1.04578e+08
9.95723e+07
9.99841e+07
1.00539e+08
1.01252e+08
1.02208e+08
1.03207e+08
1.04537e+08
1.05793e+08
1.07469e+08
1.08951e+08
1.10942e+08
1.12632e+08
1.14985e+08
1.17311e+08
1.21571e+08
9.94485e+07
9.46712e+07
9.50173e+07
9.54964e+07
9.60952e+07
9.69326e+07
9.7782e+07
9.89754e+07
1.00072e+08
1.01626e+08
1.02977e+08
1.04897e+08
1.06534e+08
1.08896e+08
1.11274e+08
1.15627e+08
9.45649e+07
9.00754e+07
9.03568e+07
9.07564e+07
9.12409e+07
9.1952e+07
9.26494e+07
9.36922e+07
9.46223e+07
9.60358e+07
9.72464e+07
9.90828e+07
1.00665e+08
1.0304e+08
1.055e+08
1.09981e+08
8.99876e+07
8.58471e+07
8.60643e+07
8.63797e+07
8.67492e+07
8.7323e+07
8.78633e+07
8.87355e+07
8.94859e+07
9.07306e+07
9.17795e+07
9.35038e+07
9.50161e+07
9.73974e+07
9.99617e+07
1.04608e+08
8.57787e+07
8.2049e+07
8.22033e+07
8.24297e+07
8.26848e+07
8.31093e+07
8.34877e+07
8.41648e+07
8.47195e+07
8.57556e+07
8.66123e+07
8.81772e+07
8.95866e+07
9.19465e+07
9.46298e+07
9.94758e+07
8.20011e+07
7.87429e+07
7.88372e+07
7.89718e+07
7.91159e+07
7.93813e+07
7.95966e+07
8.0054e+07
8.03983e+07
8.11778e+07
8.1804e+07
8.31415e+07
8.4393e+07
8.66778e+07
8.94759e+07
9.45392e+07
7.87162e+07
7.59868e+07
7.60266e+07
7.60698e+07
7.61117e+07
7.62139e+07
7.62727e+07
7.64914e+07
7.6618e+07
7.70909e+07
7.74462e+07
7.84647e+07
7.94746e+07
8.15907e+07
8.4463e+07
8.97407e+07
7.59809e+07
7.38286e+07
7.38221e+07
7.37799e+07
7.37345e+07
7.36794e+07
7.35995e+07
7.35751e+07
7.34925e+07
7.36196e+07
7.36718e+07
7.42589e+07
7.49064e+07
7.6679e+07
7.94907e+07
8.49681e+07
7.3842e+07
7.22943e+07
7.22525e+07
7.21356e+07
7.20247e+07
7.18294e+07
7.16432e+07
7.13927e+07
7.1137e+07
7.09131e+07
7.06706e+07
7.07318e+07
7.08986e+07
7.20505e+07
7.44895e+07
8.00498e+07
7.23243e+07
7.13898e+07
7.13267e+07
7.1151e+07
7.1004e+07
7.06967e+07
7.04534e+07
7.00197e+07
6.96668e+07
6.91474e+07
6.87116e+07
6.82735e+07
6.80062e+07
6.83412e+07
7.00265e+07
7.51388e+07
7.14327e+07
7.13278e+07
7.12552e+07
7.10365e+07
7.08775e+07
7.04877e+07
7.02285e+07
6.96597e+07
6.92775e+07
6.85413e+07
6.80267e+07
6.72085e+07
6.66611e+07
6.61834e+07
6.67241e+07
6.99839e+07
7.13799e+07
7.16156e+07
7.1541e+07
7.13056e+07
7.11462e+07
7.07235e+07
7.04649e+07
6.98407e+07
6.94557e+07
6.86273e+07
6.8089e+07
6.7101e+07
6.64355e+07
6.55458e+07
6.54448e+07
6.7102e+07
7.16713e+07
)
;

boundaryField
{
    wireUpstream
    {
        type            calculated;
        value           nonuniform List<scalar> 
16
(
7.1979e+07
7.19086e+07
7.16588e+07
7.15125e+07
7.10594e+07
7.08229e+07
7.01446e+07
6.97865e+07
6.8863e+07
6.83364e+07
6.71669e+07
6.64199e+07
6.51258e+07
6.44294e+07
6.39916e+07
7.20372e+07
)
;
    }
    wireDownstream
    {
        type            calculated;
        value           nonuniform List<scalar> 
16
(
3.31213e+08
3.18343e+08
3.05716e+08
2.83853e+08
2.57235e+08
2.20594e+08
1.76508e+08
1.28187e+08
8.68447e+07
1.12097e+08
2.17194e+08
4.0397e+08
6.4857e+08
9.42476e+08
1.09475e+09
3.32228e+08
)
;
    }
    wireTopContact
    {
        type            calculated;
        value           nonuniform List<scalar> 
122
(
1.09495e+09
1.09518e+09
1.09545e+09
1.09576e+09
1.09609e+09
1.09646e+09
1.09685e+09
1.09724e+09
1.09766e+09
1.09809e+09
1.09853e+09
1.09895e+09
1.09941e+09
1.09987e+09
1.10036e+09
1.10086e+09
1.1014e+09
1.10197e+09
1.10264e+09
1.10332e+09
1.10412e+09
1.105e+09
1.10602e+09
1.10719e+09
1.10856e+09
1.11013e+09
1.11196e+09
1.11408e+09
1.11654e+09
1.11939e+09
1.1227e+09
1.12647e+09
1.13081e+09
1.13572e+09
1.14125e+09
1.14743e+09
1.15426e+09
1.16172e+09
1.16973e+09
1.17818e+09
1.18685e+09
1.19538e+09
1.20322e+09
1.20954e+09
1.21321e+09
1.21191e+09
1.20514e+09
1.20944e+09
1.23821e+09
1.25702e+09
1.26387e+09
1.26387e+09
1.2638e+09
1.26364e+09
1.26336e+09
1.26294e+09
1.2624e+09
1.26174e+09
1.26097e+09
1.26013e+09
1.25926e+09
1.25837e+09
1.25748e+09
1.2566e+09
1.25574e+09
1.25492e+09
1.25414e+09
1.25339e+09
1.25264e+09
1.25187e+09
1.2511e+09
1.25046e+09
1.25007e+09
1.1768e+09
1.09706e+09
1.01855e+09
9.43696e+08
8.72925e+08
8.06959e+08
7.45841e+08
6.89621e+08
6.38101e+08
5.91035e+08
5.48148e+08
5.09107e+08
4.7361e+08
4.41338e+08
4.11975e+08
3.85255e+08
3.60883e+08
3.3863e+08
3.18262e+08
2.9957e+08
2.82388e+08
2.66524e+08
2.51859e+08
2.38242e+08
2.25572e+08
2.13753e+08
2.02683e+08
1.92304e+08
1.82535e+08
1.73334e+08
1.64645e+08
1.5643e+08
1.48655e+08
1.41287e+08
1.34306e+08
1.27684e+08
1.21404e+08
1.15446e+08
1.09787e+08
1.04407e+08
9.92763e+07
9.43524e+07
8.95838e+07
8.4882e+07
8.01311e+07
7.54991e+07
7.06329e+07
6.77669e+07
1.09403e+09
)
;
    }
    front
    {
        type            wedge;
    }
    back
    {
        type            wedge;
    }
}


// ************************************************************************* //
