/*--------------------------------*- C++ -*----------------------------------*\
| =========                 |                                                 |
| \\      /  F ield         | OpenFOAM: The Open Source CFD Toolbox           |
|  \\    /   O peration     | Version:  4.1                                   |
|   \\  /    A nd           | Web:      www.OpenFOAM.org                      |
|    \\/     M anipulation  |                                                 |
\*---------------------------------------------------------------------------*/
FoamFile
{
    version     2.0;
    format      ascii;
    class       volVectorField;
    location    "0.000440";
    object      U;
}
// * * * * * * * * * * * * * * * * * * * * * * * * * * * * * * * * * * * * * //

dimensions      [0 1 -1 0 0 0 0];

internalField   nonuniform List<vector> 
3072
(
(13.177411 -0.19719504 -0.00032863724)
(14.109642 -0.49172989 -0.0005036512)
(14.216006 -0.37577511 -0.0002667197)
(14.269381 -0.24050688 3.2935469e-05)
(14.161179 -0.12576049 0.00024951284)
(14.015597 -0.052513783 0.00041922147)
(13.858067 -0.0039558832 0.00052114343)
(13.710336 0.024536088 0.00051874603)
(13.592925 0.042487611 0.00046355045)
(13.518458 0.052643706 0.00042263642)
(13.478959 0.05680502 0.00035710266)
(13.47751 0.060294748 0.00021314601)
(13.500746 0.061514542 -5.0405831e-05)
(13.534856 0.062470275 -0.00033702193)
(13.576655 0.062255298 -0.0004904749)
(13.60387 0.061595834 -0.00046929485)
(13.633012 0.060675131 -0.00036136837)
(13.640074 0.058657628 -0.00020552177)
(13.636391 0.055679036 -9.0724522e-06)
(13.618357 0.051519749 0.00016042003)
(13.587368 0.046127925 0.00021823865)
(13.558066 0.040051818 0.00013228121)
(13.509767 0.032810631 -4.9643912e-05)
(13.462855 0.023844774 -0.00021414154)
(12.794884 -0.091549192 0.05469917)
(13.441869 -0.30786801 0.05429687)
(13.534606 -0.28504099 0.0055385203)
(13.59783 -0.18651805 -0.011680262)
(13.555951 -0.10059682 -0.023799408)
(13.467018 -0.041394787 -0.033300146)
(13.352607 -0.00061435713 -0.03979443)
(13.228993 0.026065443 -0.04242759)
(13.104967 0.045314357 -0.04383203)
(12.992749 0.058104621 -0.043520346)
(12.892555 0.065994479 -0.04322371)
(12.811944 0.072128803 -0.042154813)
(12.74741 0.075047543 -0.040928365)
(12.694753 0.076386934 -0.039736384)
(12.652076 0.075708269 -0.03854202)
(12.612134 0.074090222 -0.037334295)
(12.583433 0.07144291 -0.035577001)
(12.553041 0.066940189 -0.033717874)
(12.526113 0.061753642 -0.031157655)
(12.498276 0.055561903 -0.028210055)
(12.469363 0.048984383 -0.024641883)
(12.445891 0.041020666 -0.02126057)
(12.415364 0.031666537 -0.017759)
(12.388433 0.021277627 -0.013286934)
(12.626848 -0.063670975 0.079365462)
(13.201442 -0.23380204 0.059458971)
(13.316605 -0.23438269 -0.0003570276)
(13.392429 -0.15764492 -0.026188851)
(13.368696 -0.086854455 -0.044346008)
(13.28883 -0.036325229 -0.057566373)
(13.177446 -0.0012478314 -0.066746168)
(13.048485 0.021809242 -0.073204621)
(12.912094 0.038640127 -0.077093965)
(12.777154 0.050322738 -0.079339593)
(12.646775 0.05901557 -0.081107104)
(12.527654 0.065611307 -0.081436639)
(12.415758 0.069092662 -0.081194617)
(12.312398 0.070747609 -0.080066516)
(12.215003 0.070643957 -0.078166357)
(12.123352 0.069858741 -0.075385367)
(12.042507 0.067841202 -0.071471585)
(11.966383 0.063959796 -0.067028428)
(11.899144 0.059207625 -0.061342092)
(11.837028 0.053264528 -0.054988407)
(11.781247 0.047075047 -0.047417922)
(11.734504 0.039247619 -0.039757735)
(11.691664 0.030065063 -0.031743789)
(11.657924 0.019669333 -0.022610194)
(12.531888 -0.0427945 0.10775186)
(13.043228 -0.17200064 0.077447711)
(13.174923 -0.18272416 0.0017224957)
(13.26361 -0.12565665 -0.035499579)
(13.261857 -0.071291672 -0.062158779)
(13.199808 -0.030597673 -0.080642344)
(13.102138 -0.0017327278 -0.093840032)
(12.979172 0.01795828 -0.10375351)
(12.843896 0.032653716 -0.11085431)
(12.70055 0.043436938 -0.11596189)
(12.555229 0.052339653 -0.11967608)
(12.411742 0.058983697 -0.12175723)
(12.270656 0.062899335 -0.12267898)
(12.135868 0.064884862 -0.12197396)
(12.004314 0.065141726 -0.11951972)
(11.879121 0.064902339 -0.11494721)
(11.761611 0.06340512 -0.10857466)
(11.652374 0.060352887 -0.10094819)
(11.554476 0.056296489 -0.091568218)
(11.464597 0.050751276 -0.081448126)
(11.385118 0.045257336 -0.06922984)
(11.316991 0.038308294 -0.056620419)
(11.258761 0.030465276 -0.044029947)
(11.212656 0.021077247 -0.030457481)
(12.473315 -0.027386763 0.135255)
(12.903279 -0.12136423 0.098934205)
(13.050685 -0.13474627 0.0040235785)
(13.15105 -0.093545904 -0.044263928)
(13.17109 -0.054805574 -0.080503002)
(13.129953 -0.024749685 -0.10475817)
(13.048688 -0.0033039112 -0.1223912)
(12.938535 0.011983309 -0.136094)
(12.810424 0.023573218 -0.14692822)
(12.667199 0.032672822 -0.15540772)
(12.516457 0.040361562 -0.16184657)
(12.359574 0.046170538 -0.16614506)
(12.201258 0.050105872 -0.16834392)
(12.044583 0.052160219 -0.16829331)
(11.889909 0.052859076 -0.16541389)
(11.740747 0.052791055 -0.15929139)
(11.596273 0.051926664 -0.15056035)
(11.460592 0.049868303 -0.13933752)
(11.336608 0.047369703 -0.12525814)
(11.2231 0.044160781 -0.1101719)
(11.122276 0.0400974 -0.09353405)
(11.034301 0.034940746 -0.076130099)
(10.959235 0.02878601 -0.058357724)
(10.898028 0.021174223 -0.040059987)
(12.469223 -0.018635657 0.16013513)
(12.779472 -0.077911688 0.12184295)
(12.945995 -0.087939062 0.0081266472)
(13.05548 -0.06144525 -0.05260294)
(13.099975 -0.037464899 -0.09842631)
(13.085225 -0.018716079 -0.12870523)
(13.027338 -0.0054002097 -0.15118406)
(12.93788 0.0042885109 -0.16894513)
(12.82167 0.011882248 -0.18342368)
(12.685129 0.017936616 -0.19516072)
(12.533747 0.023241133 -0.204206)
(12.37058 0.027158396 -0.2103341)
(12.201816 0.030088081 -0.21355373)
(12.029254 0.030995272 -0.21439586)
(11.85687 0.031473421 -0.21145148)
(11.687757 0.031402416 -0.20383752)
(11.522501 0.032876529 -0.19180206)
(11.364419 0.032979278 -0.17640049)
(11.216923 0.031897164 -0.15834446)
(11.082079 0.030467055 -0.13821294)
(10.960775 0.02781293 -0.11725397)
(10.853524 0.024469353 -0.0953977)
(10.761352 0.020325492 -0.073042792)
(10.685315 0.01474881 -0.050721449)
(12.575627 -0.010437559 0.18664931)
(12.715079 -0.037690623 0.14151647)
(12.90336 -0.042626569 0.013723087)
(13.025486 -0.029378859 -0.061312297)
(13.105486 -0.018878392 -0.11607162)
(13.126836 -0.011132616 -0.15313929)
(13.10294 -0.0062121022 -0.1814327)
(13.040488 -0.0030424179 -0.20418526)
(12.945499 -0.00049659186 -0.22290107)
(12.821175 0.001562934 -0.23825721)
(12.672322 0.0028761603 -0.24946894)
(12.50529 0.0031867795 -0.25717487)
(12.32665 0.0010940302 -0.26279517)
(12.139744 -0.00064518502 -0.26450497)
(11.948322 0.0036847667 -0.25841827)
(11.756739 0.0064168781 -0.24593525)
(11.568083 0.00885387 -0.22928392)
(11.38642 0.010100501 -0.20908544)
(11.215531 0.0097822908 -0.18696757)
(11.058565 0.009091201 -0.16262204)
(10.916583 0.0080253035 -0.13703942)
(10.79065 0.0065528895 -0.11077391)
(10.682586 0.004372038 -0.084723681)
(10.593876 0.0011001548 -0.05963645)
(13.0136 0.00088736695 0.19006225)
(12.829434 0.00086171194 0.13899889)
(13.023826 0.00029161855 0.016603176)
(13.152986 6.7238042e-05 -0.071477169)
(13.275389 -0.00018076039 -0.13341932)
(13.344659 -0.0003873449 -0.17935172)
(13.368807 -0.00045446488 -0.21741871)
(13.347696 -0.00036912506 -0.25059277)
(13.284266 -0.00038042343 -0.27828961)
(13.18271 -0.00044807636 -0.30086568)
(13.049211 -0.0004652754 -0.31701901)
(12.891519 -0.0004506713 -0.3263256)
(12.714181 -0.00023896729 -0.33126997)
(12.518051 2.0688871e-05 -0.32920499)
(12.310659 0.000187624 -0.31877849)
(12.099371 6.5303015e-05 -0.3025363)
(11.887185 -0.0002808896 -0.28363224)
(11.677453 -0.00051265657 -0.25915134)
(11.473578 -0.0006822093 -0.22994535)
(11.281053 -0.00078140243 -0.19689232)
(11.104734 -0.00076765365 -0.16235022)
(10.947595 -0.00063378202 -0.12793077)
(10.812491 -0.0004252816 -0.095493562)
(10.704159 -0.00025838362 -0.066078751)
(12.793746 -0.091362623 -0.055470951)
(13.438909 -0.30768876 -0.055540274)
(13.53106 -0.28502081 -0.0062222319)
(13.594538 -0.18658384 0.011664912)
(13.553174 -0.10077523 0.024314607)
(13.465438 -0.041683612 0.034243069)
(13.352803 -0.00094594675 0.040997308)
(13.22988 0.025760149 0.043622857)
(13.105795 0.045026474 0.044922606)
(12.993827 0.057866128 0.044509931)
(12.894104 0.06583196 0.043993788)
(12.81404 0.072065005 0.042528475)
(12.749216 0.075113419 0.040690201)
(12.695498 0.076540409 0.038921804)
(12.652063 0.075868689 0.037475754)
(12.611806 0.074165567 0.036380148)
(12.582562 0.071422289 0.034890976)
(12.551632 0.066863927 0.03335399)
(12.52452 0.061662049 0.031151313)
(12.496951 0.055496529 0.028481911)
(12.468893 0.048980612 0.024975202)
(12.446402 0.041086663 0.02139116)
(12.416416 0.031823145 0.017487399)
(12.389473 0.021452231 0.012685556)
(12.314463 -0.036125926 -0.00047481369)
(12.673499 -0.20378787 -0.0007371618)
(12.768189 -0.22631971 -0.00043454899)
(12.866246 -0.15472678 -3.9020888e-05)
(12.884987 -0.087711054 0.00025270077)
(12.852829 -0.03971851 0.0005141417)
(12.789687 -0.0058550132 0.00066320089)
(12.703745 0.016854811 0.00065513688)
(12.600767 0.033578662 0.00061374222)
(12.488055 0.045688169 0.00055301077)
(12.370682 0.054584888 0.00040747132)
(12.254758 0.061610774 0.00016106908)
(12.141072 0.065491499 -0.00017147466)
(12.031359 0.067296745 -0.00045020268)
(11.927906 0.067226528 -0.00055654886)
(11.830328 0.066296846 -0.00045301948)
(11.742583 0.063871842 -0.00025492924)
(11.663446 0.059568591 -6.8121275e-05)
(11.594658 0.054445573 0.00010881344)
(11.534463 0.048261229 0.00022796101)
(11.482015 0.04205341 0.00020927137)
(11.438792 0.034120453 3.3857746e-05)
(11.400718 0.024729763 -0.00025925723)
(11.372054 0.014076336 -0.00046749928)
(12.198773 -0.025861959 0.020060508)
(12.536458 -0.15642627 0.010114814)
(12.650675 -0.18280517 -0.0065768996)
(12.759363 -0.12895694 -0.015560792)
(12.783493 -0.073787072 -0.021622602)
(12.749956 -0.033547242 -0.026768129)
(12.678313 -0.0054814291 -0.031324615)
(12.578389 0.013040678 -0.035306807)
(12.459497 0.026371686 -0.038461133)
(12.328525 0.035985619 -0.041011447)
(12.191125 0.043545628 -0.043170198)
(12.050896 0.04916526 -0.04459212)
(11.909423 0.052049614 -0.045387798)
(11.76967 0.053042341 -0.045369804)
(11.633741 0.052598181 -0.044502351)
(11.502826 0.051689475 -0.04277577)
(11.379768 0.049637803 -0.040027873)
(11.26642 0.04625236 -0.036842727)
(11.164641 0.041991811 -0.03317909)
(11.074069 0.036654672 -0.029295446)
(10.994971 0.031140122 -0.025096774)
(10.928374 0.024284017 -0.0207742)
(10.874736 0.01644269 -0.016212778)
(10.836035 0.0073974651 -0.011169763)
(12.168386 -0.019165956 0.046174861)
(12.512027 -0.11436208 0.03109381)
(12.645646 -0.13741021 -0.0041499781)
(12.764489 -0.098193524 -0.024982112)
(12.798776 -0.056935172 -0.040742106)
(12.769537 -0.02543357 -0.052257974)
(12.696633 -0.0033519499 -0.061247207)
(12.591531 0.011473648 -0.068580718)
(12.464885 0.022269456 -0.074186001)
(12.32328 0.030357896 -0.078714846)
(12.17217 0.036882766 -0.082368077)
(12.015066 0.041518657 -0.084810959)
(11.854962 0.043991434 -0.086112827)
(11.695705 0.044796624 -0.086064641)
(11.539983 0.044246637 -0.08452419)
(11.38963 0.043175469 -0.081349752)
(11.246154 0.041324232 -0.076322678)
(11.112563 0.038487841 -0.07041096)
(10.991472 0.034822936 -0.063443029)
(10.883217 0.030186042 -0.056017151)
(10.788774 0.025288883 -0.047494423)
(10.709129 0.019630823 -0.038477289)
(10.645511 0.013310561 -0.029011821)
(10.599481 0.0062056417 -0.018982551)
(12.16035 -0.014140883 0.074292729)
(12.51458 -0.0757486 0.055848172)
(12.669768 -0.092214385 -0.0006550864)
(12.798497 -0.066366053 -0.033767663)
(12.842389 -0.03889366 -0.060136126)
(12.81736 -0.017252652 -0.078458407)
(12.744412 -0.0019052803 -0.092030176)
(12.637121 0.0086678428 -0.10264601)
(12.505655 0.016449091 -0.11088837)
(12.356382 0.022561886 -0.11738211)
(12.194949 0.027469493 -0.12244059)
(12.025197 0.030973942 -0.1258479)
(11.851376 0.033161707 -0.12745771)
(11.677548 0.034009307 -0.12722331)
(11.507416 0.033915521 -0.12468077)
(11.343376 0.032858467 -0.11992721)
(11.186013 0.031476319 -0.11260402)
(11.038643 0.029206564 -0.1039829)
(10.904689 0.026467985 -0.093503003)
(10.785353 0.023449624 -0.082293328)
(10.681923 0.019536339 -0.069401656)
(10.594998 0.015320866 -0.055829793)
(10.524915 0.010807387 -0.041915434)
(10.472989 0.0056996764 -0.027588645)
(12.170626 -0.009711999 0.10397167)
(12.525582 -0.038144808 0.083930707)
(12.702121 -0.045817219 0.0037896946)
(12.838097 -0.033326163 -0.041790044)
(12.892331 -0.019868707 -0.078902606)
(12.875085 -0.0090594354 -0.10399069)
(12.8082 -0.0013987912 -0.1223077)
(12.70483 0.0039962607 -0.13621273)
(12.573819 0.0080413338 -0.14702139)
(12.421942 0.011294498 -0.15552411)
(12.254803 0.014002325 -0.1619078)
(12.077081 0.016052943 -0.16606737)
(11.893671 0.01774173 -0.16774398)
(11.708128 0.018902798 -0.16719676)
(11.525662 0.019782373 -0.16331609)
(11.34948 0.018539493 -0.15741558)
(11.181036 0.017758525 -0.14790778)
(11.023132 0.016686521 -0.13602656)
(10.878661 0.014628134 -0.12147473)
(10.749967 0.012629238 -0.10572517)
(10.638573 0.010426747 -0.089079251)
(10.544996 0.0082631173 -0.07178437)
(10.469205 0.0060824709 -0.054129669)
(10.412163 0.0034902929 -0.036377245)
(12.245903 0.0018968443 0.14322263)
(12.56604 0.0016080488 0.11556268)
(12.76141 0.00069566563 0.0094989021)
(12.898879 0.00046211775 -0.050070805)
(12.965906 0.00016864237 -0.097406261)
(12.963746 -0.00010523389 -0.12904685)
(12.912937 -0.00036034681 -0.15214981)
(12.823797 -0.00046474751 -0.16955939)
(12.703701 -0.00056723502 -0.18306226)
(12.558492 -0.00063224242 -0.19363876)
(12.393995 -0.00066496263 -0.20130326)
(12.215708 -0.00064502178 -0.20619622)
(12.028697 -0.00047072628 -0.20837306)
(11.836065 -0.00016029557 -0.20926898)
(11.643782 4.1525896e-05 -0.20583129)
(11.455983 -0.000173102 -0.19698608)
(11.275373 -0.00069859648 -0.18237299)
(11.106019 -0.0010648401 -0.16483694)
(10.950333 -0.0012640279 -0.14608126)
(10.810585 -0.0013093291 -0.12642309)
(10.688163 -0.0011971723 -0.10606011)
(10.583781 -0.0009012435 -0.08528402)
(10.498157 -0.00049973965 -0.064505918)
(10.432118 -0.00023850379 -0.044172366)
(12.57412 0.013236227 0.18606498)
(12.717499 0.04028998 0.14115383)
(12.908384 0.043723018 0.01371066)
(13.02967 0.029837123 -0.061414818)
(13.107007 0.01871421 -0.11625061)
(13.125359 0.010535289 -0.15337183)
(13.101402 0.0053417374 -0.18157033)
(13.039606 0.0021306165 -0.20414927)
(12.943229 -0.00048913217 -0.22269365)
(12.817989 -0.0024713242 -0.23785038)
(12.670194 -0.0038341521 -0.24924786)
(12.50471 -0.0041224636 -0.25708747)
(12.326729 -0.0017175156 -0.26266831)
(12.138171 0.00048606731 -0.26425437)
(11.943496 -0.0035109855 -0.25803271)
(11.748912 -0.0064992913 -0.24531963)
(11.55963 -0.0096687614 -0.22853721)
(11.378651 -0.011583902 -0.20825423)
(11.208855 -0.011599834 -0.18624059)
(11.052946 -0.011125627 -0.16197849)
(10.911817 -0.0099191087 -0.13657116)
(10.786642 -0.0080561779 -0.1104996)
(10.678519 -0.0053079255 -0.084596046)
(10.589015 -0.0015914159 -0.059567963)
(12.623971 -0.063612036 -0.08001716)
(13.195248 -0.23377204 -0.0605486)
(13.309607 -0.23442234 -0.00025516475)
(13.385911 -0.15762165 0.02606876)
(13.363307 -0.086847595 0.044698682)
(13.285837 -0.036371126 0.058305902)
(13.17751 -0.0013900262 0.067792944)
(13.050998 0.02161329 0.074325633)
(12.91618 0.038434335 0.07818674)
(12.782516 0.050174877 0.080329123)
(12.653329 0.058964805 0.081851166)
(12.535288 0.065617775 0.081806256)
(12.42345 0.069121613 0.081024763)
(12.318394 0.070825614 0.07936278)
(12.218912 0.070753439 0.077204698)
(12.125835 0.069857393 0.074528056)
(12.043648 0.067648814 0.070886809)
(11.966383 0.063712214 0.06671896)
(11.898521 0.059019793 0.061274444)
(11.83632 0.053194408 0.055075215)
(11.781142 0.047164392 0.04751051)
(11.735241 0.039405712 0.03973512)
(11.692585 0.03031193 0.03143257)
(11.658027 0.019926158 0.02201187)
(12.197823 -0.025976098 -0.020936424)
(12.534446 -0.15656241 -0.011472314)
(12.647886 -0.18281428 0.0057442195)
(12.756292 -0.12885043 0.015340133)
(12.780578 -0.073597908 0.021930857)
(12.74766 -0.03330815 0.027551907)
(12.676808 -0.005258776 0.032443215)
(12.578019 0.013211991 0.036496828)
(12.460206 0.02651371 0.039621553)
(12.329928 0.036125457 0.042052298)
(12.193033 0.043697958 0.043904806)
(12.053272 0.0492679 0.044885862)
(11.912058 0.052000908 0.04513075)
(11.772129 0.052900299 0.044615993)
(11.635734 0.052464034 0.043523724)
(11.504588 0.051528761 0.04201756)
(11.381587 0.04940779 0.039699596)
(11.268451 0.04603886 0.036868329)
(11.166933 0.041860529 0.03346639)
(11.076688 0.036616571 0.029717714)
(10.997937 0.03121254 0.025406877)
(10.931394 0.024379571 0.020778625)
(10.876913 0.016534409 0.015690136)
(10.836812 0.0074146868 0.010336256)
(12.090086 -0.017187615 -0.00040224033)
(12.398965 -0.11453052 -0.00065212674)
(12.523902 -0.13877109 -0.00046653438)
(12.639593 -0.0995776 -0.00020150038)
(12.669357 -0.057485617 3.6507661e-05)
(12.637015 -0.026063656 0.00024202589)
(12.56107 -0.0044959266 0.00041220366)
(12.453695 0.0094990069 0.00046402871)
(12.325404 0.019683569 0.00045716997)
(12.183685 0.027220888 0.00040761775)
(12.033384 0.033286433 0.00025740945)
(11.876687 0.037559868 7.6345671e-05)
(11.717081 0.039521308 -9.6270611e-05)
(11.557939 0.039849982 -0.00026695684)
(11.401945 0.038984142 -0.0003558642)
(11.250728 0.037731111 -0.00021707413)
(11.107171 0.035822966 3.9268395e-05)
(10.974906 0.03305427 0.00020413643)
(10.855033 0.029511795 0.00030926959)
(10.748201 0.025080888 0.00033736653)
(10.655172 0.020336288 0.00020240034)
(10.577368 0.01476032 -3.5237031e-05)
(10.516687 0.0086228595 -0.00032623116)
(10.474464 0.0019322696 -0.00047291424)
(12.070397 -0.010784514 0.020599439)
(12.384992 -0.075087648 0.014071836)
(12.523709 -0.092835089 -0.0017307384)
(12.647075 -0.066915008 -0.011786986)
(12.683996 -0.03867738 -0.019798687)
(12.65387 -0.017127458 -0.025323829)
(12.576475 -0.0023097929 -0.029590833)
(12.465733 0.0073829883 -0.032966637)
(12.332138 0.014508372 -0.035590141)
(12.182815 0.020164225 -0.037843147)
(12.022164 0.024692988 -0.039769271)
(11.85333 0.027803577 -0.041186658)
(11.680361 0.029333549 -0.042073496)
(11.507346 0.029577472 -0.042283849)
(11.337988 0.028797814 -0.041749572)
(11.174254 0.027592287 -0.040320997)
(11.018573 0.026107323 -0.037915674)
(10.874287 0.024096959 -0.035030921)
(10.743235 0.021411426 -0.031656091)
(10.626648 0.018042557 -0.028052684)
(10.525803 0.01436532 -0.024007943)
(10.442705 0.010306016 -0.01954504)
(10.379219 0.0059254674 -0.014714443)
(10.336228 0.001226673 -0.0096572181)
(12.077072 -0.0044714344 0.043749248)
(12.411896 -0.036625127 0.032298354)
(12.566987 -0.046350958 -0.0014643272)
(12.698793 -0.033533114 -0.02281292)
(12.741045 -0.019412359 -0.039981554)
(12.710934 -0.0084463896 -0.051753623)
(12.630989 -0.00086850905 -0.060470095)
(12.516609 0.0041217574 -0.067159014)
(12.377904 0.0078791875 -0.072409407)
(12.22131 0.011057591 -0.07673711)
(12.051641 0.01363968 -0.080271874)
(11.873057 0.015398106 -0.082761673)
(11.689786 0.016332653 -0.084031975)
(11.506218 0.016527972 -0.08402933)
(11.327026 0.016118274 -0.082575839)
(11.155004 0.015255099 -0.079751408)
(10.9917 0.014313316 -0.075176412)
(10.83966 0.013195697 -0.069670808)
(10.701755 0.011722538 -0.063046512)
(10.580179 0.0099987528 -0.055841679)
(10.476654 0.0079612804 -0.047551715)
(10.392184 0.0058370111 -0.038445949)
(10.327226 0.0036484759 -0.028815018)
(10.283074 0.0012020478 -0.018917881)
(12.095711 0.0023291244 0.069255389)
(12.448658 0.0021338814 0.055020904)
(12.617038 0.0010593447 0.00037744003)
(12.754009 0.0007320237 -0.032804876)
(12.801651 0.00039469393 -0.059843448)
(12.774976 0.00019878209 -0.078152088)
(12.697817 -4.9855598e-05 -0.091548438)
(12.58496 -0.00039370535 -0.10166502)
(12.446083 -0.00064657172 -0.10956424)
(12.287695 -0.00065286642 -0.11599979)
(12.115071 -0.00054511919 -0.12101105)
(11.932811 -0.00053158158 -0.12436796)
(11.745279 -0.0005699036 -0.12576407)
(11.556588 -0.00055615229 -0.12521915)
(11.371916 -0.00057466 -0.12223882)
(11.194993 -0.00083131534 -0.11768581)
(11.027705 -0.001217951 -0.11075106)
(10.872145 -0.0014709077 -0.10286346)
(10.730909 -0.0015438553 -0.092873629)
(10.606508 -0.001485318 -0.081713326)
(10.501041 -0.0012902181 -0.0693577)
(10.414849 -0.00097121528 -0.05611645)
(10.347273 -0.00056253955 -0.04229502)
(10.299434 -0.00027607646 -0.0282175)
(12.166738 0.01409689 0.10379665)
(12.521998 0.042170113 0.083805912)
(12.697796 0.047480051 0.0036241883)
(12.832343 0.034236259 -0.042051708)
(12.885646 0.020101886 -0.079126284)
(12.867752 0.00894254 -0.10418888)
(12.800757 0.00089045596 -0.12249591)
(12.697753 -0.0049266866 -0.13625505)
(12.567702 -0.0093146426 -0.14692543)
(12.417075 -0.012604283 -0.15550338)
(12.250927 -0.0151176 -0.16198359)
(12.074259 -0.017088253 -0.16613304)
(11.891624 -0.018737407 -0.16759522)
(11.705983 -0.019717762 -0.16678018)
(11.522127 -0.020463306 -0.16265472)
(11.344403 -0.019606015 -0.15668946)
(11.17578 -0.019585474 -0.14727853)
(11.018624 -0.019164393 -0.13555941)
(10.874956 -0.017352243 -0.12110479)
(10.746938 -0.015393242 -0.10554352)
(10.636011 -0.012892331 -0.088954096)
(10.54258 -0.01014204 -0.071689436)
(10.466711 -0.007186531 -0.054058343)
(10.409276 -0.0040146886 -0.036321439)
(12.460817 0.022015388 0.15922655)
(12.7718 0.081442988 0.12137921)
(12.939876 0.089261895 0.0080076685)
(13.048605 0.061770079 -0.05277396)
(13.094354 0.037094933 -0.098571127)
(13.077403 0.018006501 -0.12890957)
(13.017881 0.0045490025 -0.15126573)
(12.927607 -0.0052268896 -0.16867172)
(12.812631 -0.012764095 -0.18290916)
(12.678905 -0.018888843 -0.19487189)
(12.528757 -0.023989516 -0.20419702)
(12.366818 -0.027822114 -0.2103375)
(12.198357 -0.030833748 -0.21323432)
(12.024379 -0.031640404 -0.21373985)
(11.848699 -0.032030104 -0.21048201)
(11.676395 -0.032134502 -0.20271093)
(11.510132 -0.033994585 -0.19063656)
(11.352874 -0.034623236 -0.17526036)
(11.207023 -0.033901628 -0.15733633)
(11.07382 -0.032612702 -0.13743847)
(10.953828 -0.029744498 -0.1167135)
(10.84751 -0.026024129 -0.095059579)
(10.755534 -0.021390989 -0.07284655)
(10.678833 -0.015319332 -0.050608241)
(12.527767 -0.043006808 -0.10813109)
(13.035078 -0.17229092 -0.078206726)
(13.166011 -0.18281136 -0.0022036913)
(13.255235 -0.12547351 0.035301843)
(13.254777 -0.070928592 0.062242614)
(13.195203 -0.030157275 0.081037208)
(13.101352 -0.0013483447 0.094511197)
(12.982274 0.018240514 0.10453127)
(12.850391 0.032875212 0.11171947)
(12.709976 0.043679064 0.11679228)
(12.567214 0.052658195 0.1203055)
(12.425571 0.059277438 0.12208678)
(12.284719 0.062960405 0.12263315)
(12.147818 0.064765536 0.12155825)
(12.012989 0.065002978 0.1188721)
(11.885223 0.064656058 0.11433719)
(11.765868 0.062933655 0.10820328)
(11.655189 0.059833535 0.10078586)
(11.556145 0.055921512 0.091524669)
(11.465531 0.050592901 0.081432431)
(11.38595 0.045347263 0.069163199)
(11.317985 0.038445745 0.056486251)
(11.259546 0.030585166 0.043796401)
(11.212512 0.021084515 0.029961392)
(12.166913 -0.019525543 -0.046822327)
(12.509108 -0.11477171 -0.032127386)
(12.641765 -0.13746249 0.0034881134)
(12.760108 -0.09794331 0.024696841)
(12.794406 -0.056453542 0.040829782)
(12.765704 -0.02479735 0.052743651)
(12.693962 -0.0026362192 0.062030439)
(12.590533 0.012171696 0.06946876)
(12.465777 0.022927165 0.075120045)
(12.325975 0.030978093 0.079559187)
(12.176329 0.037432759 0.082976684)
(12.020003 0.041868347 0.085078688)
(11.859983 0.043889699 0.085979409)
(11.700378 0.044339163 0.085562491)
(11.543682 0.043717579 0.08380402)
(11.392402 0.042651341 0.080764439)
(11.24902 0.040763295 0.07611636)
(11.116035 0.037986731 0.070503189)
(10.995212 0.03445868 0.06367802)
(10.887185 0.029976189 0.056291254)
(10.793005 0.02528533 0.047637105)
(10.713149 0.019727207 0.038452555)
(10.648549 0.013278373 0.028685337)
(10.601113 0.0059698347 0.018390675)
(12.070273 -0.011002743 -0.021210909)
(12.384488 -0.075326239 -0.015124365)
(12.522443 -0.09289765 0.00091766717)
(12.645419 -0.066805946 0.011308187)
(12.682147 -0.038416106 0.019637222)
(12.651835 -0.016764391 0.025497803)
(12.574484 -0.0018505702 0.030036003)
(12.463917 0.0078870919 0.033509748)
(12.33068 0.015010462 0.036162244)
(12.181823 0.020654543 0.038332648)
(12.021485 0.025086049 0.040040774)
(11.852616 0.028019504 0.04123311)
(11.679469 0.029264085 0.041981798)
(11.506469 0.029273065 0.042029981)
(11.337038 0.028422636 0.041367189)
(11.17332 0.02725278 0.040171549)
(11.018446 0.025822867 0.038212346)
(10.875189 0.023856173 0.035608398)
(10.744791 0.021170432 0.032388646)
(10.629011 0.017848039 0.028768702)
(10.528947 0.014278419 0.024396545)
(10.445929 0.010287214 0.019534669)
(10.381739 0.0058062276 0.014271878)
(10.337756 0.001054688 0.0090264629)
(12.049494 -0.0044552164 -0.00021632876)
(12.360154 -0.036610578 -0.00042718661)
(12.504687 -0.046257776 -0.00039076688)
(12.631779 -0.03320969 -0.00028747912)
(12.670724 -0.018727934 -0.00018921467)
(12.639435 -0.0077398656 -8.9092803e-05)
(12.559164 -0.00032346362 4.7308827e-06)
(12.445329 0.0043258023 3.5388303e-05)
(12.308188 0.0077686655 4.9378169e-05)
(12.153856 0.010713762 2.3517424e-05)
(11.986495 0.012958619 -5.1137249e-05)
(11.809806 0.014348461 -7.6436708e-05)
(11.628166 0.01485241 1.8198131e-06)
(11.446136 0.014673798 5.4540734e-05)
(11.267724 0.014026004 4.6768173e-05)
(11.095726 0.013232417 0.00016904481)
(10.93308 0.012474251 0.00037027747)
(10.78215 0.011461411 0.00047966661)
(10.644731 0.01000438 0.00056565547)
(10.522686 0.0082138018 0.00055616547)
(10.417709 0.0063653012 0.00032029838)
(10.332494 0.0043695134 3.9675715e-05)
(10.268915 0.0022182264 -0.00016265845)
(10.227606 -7.8086702e-05 -0.00022099693)
(12.05366 0.0023901913 0.020906096)
(12.373846 0.0022869572 0.014519093)
(12.524874 0.0011726007 -0.0014185771)
(12.654998 0.00095475038 -0.01182953)
(12.694836 0.00074678331 -0.020236692)
(12.661993 0.00060167801 -0.025980642)
(12.57937 0.0003938471 -0.030219462)
(12.463314 -4.7564874e-05 -0.033458173)
(12.323722 -0.00037576221 -0.036011023)
(12.166298 -0.00036359098 -0.038168756)
(11.995502 -0.00033319145 -0.039973364)
(11.815342 -0.00047805837 -0.041185076)
(11.629995 -0.00077000636 -0.041725469)
(11.444022 -0.0010598538 -0.041670502)
(11.262117 -0.0013030753 -0.040964999)
(11.087591 -0.001529393 -0.039597501)
(10.922362 -0.001670514 -0.037383863)
(10.768359 -0.0017400538 -0.034647751)
(10.628161 -0.0017433059 -0.031360368)
(10.50402 -0.0016366537 -0.027871641)
(10.398135 -0.0014003375 -0.023940129)
(10.312779 -0.0010808594 -0.0194501)
(10.249128 -0.00070475854 -0.014566079)
(10.208096 -0.0004196975 -0.0095086219)
(12.074016 0.0092229014 0.043781847)
(12.408056 0.041076501 0.032311355)
(12.562217 0.048480513 -0.0014749458)
(12.692586 0.035096108 -0.022941955)
(12.733418 0.020402381 -0.040265089)
(12.702031 0.0090726746 -0.052037956)
(12.62141 0.0011088428 -0.060768286)
(12.507179 -0.0045726994 -0.067360368)
(12.369404 -0.0089235357 -0.07254794)
(12.214158 -0.01206159 -0.076931753)
(12.045932 -0.014422466 -0.080432462)
(11.86861 -0.016271522 -0.082776547)
(11.686421 -0.017564617 -0.083838089)
(11.503701 -0.018117874 -0.08355339)
(11.325019 -0.018013325 -0.081887558)
(11.153683 -0.017601735 -0.07905848)
(10.991476 -0.017154876 -0.074673381)
(10.840247 -0.016373036 -0.069350398)
(10.702582 -0.015007735 -0.062819359)
(10.580998 -0.013107271 -0.055675895)
(10.477441 -0.010682705 -0.047453634)
(10.392883 -0.007950941 -0.038347152)
(10.327729 -0.004972158 -0.028687368)
(10.283034 -0.0019107232 -0.018770292)
(12.152429 0.018767765 0.074190824)
(12.506648 0.080039381 0.055720837)
(12.661012 0.093872376 -0.0008635581)
(12.787716 0.067205209 -0.034172709)
(12.829892 0.038966457 -0.060667154)
(12.803487 0.016925229 -0.078983249)
(12.729478 0.0014000696 -0.092594188)
(12.622192 -0.0094338354 -0.10294641)
(12.492281 -0.017488604 -0.11093078)
(12.345389 -0.023532585 -0.11756533)
(12.186159 -0.028192642 -0.12269481)
(12.017885 -0.031715364 -0.12595741)
(11.845133 -0.034116924 -0.12725367)
(11.671895 -0.035205962 -0.12641441)
(11.501199 -0.035288507 -0.1234477)
(11.336486 -0.034539581 -0.11859386)
(11.179919 -0.033626924 -0.11152801)
(11.033899 -0.031838671 -0.10321388)
(10.900928 -0.029391155 -0.092926788)
(10.782548 -0.026346852 -0.081914242)
(10.680056 -0.022089263 -0.069135923)
(10.593906 -0.017355113 -0.055573524)
(10.524384 -0.012132475 -0.041717261)
(10.47229 -0.0064020164 -0.027399688)
(12.457843 0.031239962 0.13470995)
(12.88809 0.1253446 0.098568431)
(13.03785 0.13628914 0.0038762329)
(13.136923 0.093893593 -0.044584045)
(13.155338 0.054244982 -0.080745827)
(13.114614 0.023819446 -0.10511007)
(13.032259 0.0023186873 -0.12263462)
(12.921739 -0.012745469 -0.13605196)
(12.795212 -0.024146653 -0.14664466)
(12.654624 -0.033249588 -0.15530481)
(12.506734 -0.040809121 -0.16202495)
(12.350907 -0.046667998 -0.16621013)
(12.192479 -0.050745124 -0.16801025)
(12.034814 -0.053042845 -0.16731513)
(11.878335 -0.05399276 -0.16393827)
(11.727622 -0.054073172 -0.15765984)
(11.583315 -0.053406336 -0.14903858)
(11.448982 -0.051638945 -0.13801736)
(11.326709 -0.049500235 -0.12407591)
(11.215066 -0.046331026 -0.10927904)
(11.115888 -0.041995293 -0.092858827)
(11.029191 -0.036431995 -0.075671265)
(10.954782 -0.029866428 -0.05806165)
(10.893166 -0.021790401 -0.039866044)
(12.469263 -0.027828455 -0.13538542)
(12.895931 -0.12194423 -0.099308066)
(13.042867 -0.1348594 -0.004330587)
(13.143377 -0.093203825 0.04403638)
(13.164105 -0.054135471 0.080392778)
(13.124533 -0.023877306 0.10479781)
(13.046859 -0.0023576725 0.12260936)
(12.940785 0.01289829 0.1364177)
(12.816798 0.024488762 0.14735678)
(12.677511 0.033614844 0.15588137)
(12.530402 0.041230576 0.16225059)
(12.375816 0.046758358 0.16644536)
(12.217949 0.05014109 0.16849426)
(12.059236 0.051716422 0.1682713)
(11.900884 0.052263131 0.16524343)
(11.748111 0.052142775 0.15909523)
(11.601524 0.051174787 0.15046514)
(11.464861 0.049125549 0.13936789)
(11.33994 0.046851396 0.1253044)