/*--------------------------------*- C++ -*----------------------------------*\
| =========                 |                                                 |
| \\      /  F ield         | OpenFOAM: The Open Source CFD Toolbox           |
|  \\    /   O peration     | Version:  4.1                                   |
|   \\  /    A nd           | Web:      www.OpenFOAM.org                      |
|    \\/     M anipulation  |                                                 |
\*---------------------------------------------------------------------------*/
FoamFile
{
    version     2.0;
    format      ascii;
    class       pointVectorField;
    location    "0.0089";
    object      pointDisplacement;
}
// * * * * * * * * * * * * * * * * * * * * * * * * * * * * * * * * * * * * * //

dimensions      [0 1 0 0 0 0 0];

internalField   nonuniform List<vector> 
1885
(
(8.7684e-05 -8.4134e-07 1.2451e-09)
(8.6665e-05 3.4612e-06 7.3123e-10)
(8.5161e-05 6.9323e-06 2.8643e-10)
(8.326e-05 9.469e-06 -8.3133e-11)
(8.1046e-05 1.0986e-05 -3.7233e-10)
(7.8577e-05 1.1438e-05 -5.7187e-10)
(7.5883e-05 1.0858e-05 -6.7475e-10)
(7.2967e-05 9.4019e-06 -6.892e-10)
(6.9825e-05 7.3672e-06 -6.3796e-10)
(6.6474e-05 5.132e-06 -5.4593e-10)
(6.2955e-05 3.0617e-06 -4.4026e-10)
(5.9326e-05 1.4318e-06 -3.4683e-10)
(5.5636e-05 3.9186e-07 -2.8468e-10)
(8.7541e-05 -8.5101e-07 1.1254e-07)
(8.6539e-05 2.9932e-06 -3.6758e-07)
(8.5056e-05 6.0921e-06 -7.5483e-07)
(8.3174e-05 8.3562e-06 -1.0382e-06)
(8.0974e-05 9.7117e-06 -1.2081e-06)
(7.8513e-05 1.0123e-05 -1.2598e-06)
(7.5823e-05 9.6234e-06 -1.1978e-06)
(7.2908e-05 8.355e-06 -1.0406e-06)
(6.9772e-05 6.5772e-06 -8.2037e-07)
(6.643e-05 4.6184e-06 -5.7738e-07)
(6.2924e-05 2.7973e-06 -3.5107e-07)
(5.9306e-05 1.3562e-06 -1.7178e-07)
(5.5625e-05 4.2918e-07 -5.6577e-08)
(8.7442e-05 -8.1911e-07 2.7531e-07)
(8.6452e-05 2.5597e-06 -8.1103e-07)
(8.4982e-05 5.282e-06 -1.6865e-06)
(8.3114e-05 7.2704e-06 -2.3265e-06)
(8.0924e-05 8.4623e-06 -2.7106e-06)
(7.8469e-05 8.8291e-06 -2.8294e-06)
(7.578e-05 8.4036e-06 -2.694e-06)
(7.2867e-05 7.3113e-06 -2.3453e-06)
(6.9734e-05 5.7765e-06 -1.8551e-06)
(6.6399e-05 4.0816e-06 -1.3134e-06)
(6.2901e-05 2.5012e-06 -8.0777e-07)
(5.9292e-05 1.2456e-06 -4.0587e-07)
(5.5616e-05 4.329e-07 -1.4582e-07)
(8.738e-05 -7.3463e-07 4.4664e-07)
(8.6397e-05 2.1215e-06 -1.248e-06)
(8.4936e-05 4.4219e-06 -2.6131e-06)
(8.3076e-05 6.1019e-06 -3.6104e-06)
(8.0892e-05 7.11e-06 -4.2093e-06)
(7.844e-05 7.4236e-06 -4.3963e-06)
(7.5753e-05 7.0719e-06 -4.1892e-06)
(7.2841e-05 6.1613e-06 -3.6512e-06)
(6.971e-05 4.8794e-06 -2.8933e-06)
(6.6379e-05 3.4617e-06 -2.0548e-06)
(6.2887e-05 2.1375e-06 -1.2714e-06)
(5.9282e-05 1.083e-06 -6.4756e-07)
(5.561e-05 3.9794e-07 -2.4227e-07)
(8.7359e-05 -6.0545e-07 6.0642e-07)
(8.6379e-05 1.6844e-06 -1.6835e-06)
(8.4921e-05 3.5286e-06 -3.5277e-06)
(8.3063e-05 4.8755e-06 -4.8747e-06)
(8.0881e-05 5.6842e-06 -5.6835e-06)
(7.843e-05 5.9371e-06 -5.9366e-06)
(7.5743e-05 5.6581e-06 -5.6578e-06)
(7.2832e-05 4.9325e-06 -4.9324e-06)
(6.9701e-05 3.9101e-06 -3.9101e-06)
(6.6372e-05 2.7788e-06 -2.7789e-06)
(6.2882e-05 1.7215e-06 -1.7217e-06)
(5.9279e-05 8.7888e-07 -8.7916e-07)
(5.5608e-05 3.3076e-07 -3.311e-07)
(8.738e-05 -4.4559e-07 7.3551e-07)
(8.6397e-05 1.249e-06 -2.1206e-06)
(8.4936e-05 2.614e-06 -4.4211e-06)
(8.3076e-05 3.6112e-06 -6.1012e-06)
(8.0892e-05 4.2099e-06 -7.1093e-06)
(7.844e-05 4.3968e-06 -7.423e-06)
(7.5753e-05 4.1895e-06 -7.0715e-06)
(7.284e-05 3.6513e-06 -6.1611e-06)
(6.971e-05 2.8933e-06 -4.8793e-06)
(6.6379e-05 2.0547e-06 -3.4618e-06)
(6.2886e-05 1.2712e-06 -2.1377e-06)
(5.9282e-05 6.4727e-07 -1.0833e-06)
(5.561e-05 2.419e-07 -3.9826e-07)
(8.7442e-05 -2.7421e-07 8.1987e-07)
(8.6452e-05 8.1205e-07 -2.5589e-06)
(8.4982e-05 1.6874e-06 -5.2812e-06)
(8.3114e-05 2.3273e-06 -7.2697e-06)
(8.0924e-05 2.7112e-06 -8.4616e-06)
(7.8468e-05 2.8299e-06 -8.8286e-06)
(7.578e-05 2.6943e-06 -8.4032e-06)
(7.2866e-05 2.3455e-06 -7.3111e-06)
(6.9733e-05 1.8552e-06 -5.7765e-06)
(6.6398e-05 1.3133e-06 -4.0817e-06)
(6.2901e-05 8.0757e-07 -2.5014e-06)
(5.9292e-05 4.0557e-07 -1.2458e-06)
(5.5616e-05 1.4544e-07 -4.332e-07)
(8.7541e-05 -1.1143e-07 8.5166e-07)
(8.6539e-05 3.6862e-07 -2.9925e-06)
(8.5055e-05 7.5579e-07 -6.0914e-06)
(8.3174e-05 1.0391e-06 -8.3554e-06)
(8.0974e-05 1.2088e-06 -9.711e-06)
(7.8513e-05 1.2603e-06 -1.0122e-05)
(7.5822e-05 1.1982e-06 -9.623e-06)
(7.2908e-05 1.0409e-06 -8.3548e-06)
(6.9771e-05 8.2043e-07 -6.5772e-06)
(6.6429e-05 5.7731e-07 -4.6185e-06)
(6.2923e-05 3.5088e-07 -2.7976e-06)
(5.9306e-05 1.7148e-07 -1.3565e-06)
(5.5624e-05 5.6177e-08 -4.2948e-07)
(8.7684e-05 -1.4198e-10 8.4189e-07)
(8.6665e-05 3.4396e-10 -3.4605e-06)
(8.5161e-05 7.2219e-10 -6.9315e-06)
(8.326e-05 9.9104e-10 -9.4683e-06)
(8.1045e-05 1.1499e-09 -1.0985e-05)
(7.8577e-05 1.1937e-09 -1.1438e-05)
(7.5883e-05 1.126e-09 -1.0857e-05)
(7.2966e-05 9.6873e-10 -9.4017e-06)
(6.9825e-05 7.5433e-10 -7.3672e-06)
(6.6473e-05 5.118e-10 -5.1321e-06)
(6.2955e-05 2.6987e-10 -3.062e-06)
(5.9326e-05 5.3812e-11 -1.4321e-06)
(5.5636e-05 -1.196e-10 -3.9216e-07)
(8.7541e-05 -8.5111e-07 -1.0995e-07)
(8.6539e-05 2.9932e-06 3.6878e-07)
(8.5056e-05 6.0922e-06 7.5486e-07)
(8.3174e-05 8.3562e-06 1.0373e-06)
(8.0974e-05 9.7117e-06 1.2065e-06)
(7.8514e-05 1.0123e-05 1.2577e-06)
(7.5823e-05 9.6234e-06 1.1956e-06)
(7.2908e-05 8.355e-06 1.0385e-06)
(6.9772e-05 6.5771e-06 8.1849e-07)
(6.643e-05 4.6184e-06 5.7585e-07)
(6.2924e-05 2.7972e-06 3.4992e-07)
(5.9306e-05 1.3561e-06 1.7094e-07)
(5.5625e-05 4.2907e-07 5.5938e-08)
(8.7325e-05 -8.2772e-07 1.5277e-09)
(8.6348e-05 2.3277e-06 1.0797e-10)
(8.4895e-05 4.8682e-06 -1.0628e-09)
(8.3042e-05 6.723e-06 -1.9571e-09)
(8.0864e-05 7.8359e-06 -2.5559e-09)
(7.8417e-05 8.1832e-06 -2.851e-09)
(7.5732e-05 7.7987e-06 -2.8492e-09)
(7.2822e-05 6.7999e-06 -2.5902e-09)
(6.9693e-05 5.3925e-06 -2.1521e-09)
(6.6366e-05 3.8343e-06 -1.6324e-09)
(6.2878e-05 2.3766e-06 -1.1274e-09)
(5.9277e-05 1.2134e-06 -7.1585e-10)
(5.5607e-05 4.5509e-07 -4.4718e-10)
(8.7226e-05 -7.5504e-07 1.5595e-07)
(8.6261e-05 1.9278e-06 -3.8107e-07)
(8.4821e-05 4.0868e-06 -8.1329e-07)
(8.2981e-05 5.6628e-06 -1.129e-06)
(8.0813e-05 6.6097e-06 -1.3188e-06)
(7.8372e-05 6.9092e-06 -1.3792e-06)
(7.569e-05 6.5923e-06 -1.3163e-06)
(7.2782e-05 5.7592e-06 -1.1505e-06)
(6.9657e-05 4.5822e-06 -9.1608e-07)
(6.6337e-05 3.2762e-06 -6.5581e-07)
(6.2857e-05 2.0511e-06 -4.1157e-07)
(5.9263e-05 1.07e-06 -2.1593e-07)
(5.5599e-05 4.2664e-07 -8.7696e-08)
(8.7165e-05 -6.3908e-07 3.2449e-07)
(8.6207e-05 1.5343e-06 -7.6161e-07)
(8.4775e-05 3.2829e-06 -1.6355e-06)
(8.2943e-05 4.5592e-06 -2.2734e-06)
(8.0781e-05 5.3266e-06 -2.6573e-06)
(7.8344e-05 5.5716e-06 -2.7802e-06)
(7.5664e-05 5.3201e-06 -2.6552e-06)
(7.2757e-05 4.6535e-06 -2.3231e-06)
(6.9635e-05 3.7101e-06 -1.8529e-06)
(6.6318e-05 2.6619e-06 -1.3303e-06)
(6.2843e-05 1.6769e-06 -8.3915e-07)
(5.9255e-05 8.8639e-07 -4.4495e-07)
(5.5593e-05 3.6623e-07 -1.8562e-07)
(8.7144e-05 -4.9049e-07 4.9143e-07)
(8.6189e-05 1.1463e-06 -1.1455e-06)
(8.476e-05 2.4631e-06 -2.4623e-06)
(8.2931e-05 3.4242e-06 -3.4236e-06)
(8.0771e-05 4.0024e-06 -4.0019e-06)
(7.8334e-05 4.1877e-06 -4.1874e-06)
(7.5655e-05 4e-06 -3.9998e-06)
(7.2749e-05 3.5005e-06 -3.5004e-06)
(6.9628e-05 2.7931e-06 -2.7932e-06)
(6.6312e-05 2.0067e-06 -2.0068e-06)
(6.2839e-05 1.2673e-06 -1.2676e-06)
(5.9251e-05 6.7344e-07 -6.7376e-07)
(5.5591e-05 2.8225e-07 -2.8263e-07)
(8.7165e-05 -3.235e-07 6.3993e-07)
(8.6207e-05 7.6247e-07 -1.5335e-06)
(8.4775e-05 1.6362e-06 -3.2821e-06)
(8.2943e-05 2.274e-06 -4.5585e-06)
(8.0781e-05 2.6577e-06 -5.3261e-06)
(7.8344e-05 2.7805e-06 -5.5712e-06)
(7.5664e-05 2.6554e-06 -5.3198e-06)
(7.2757e-05 2.3231e-06 -4.6534e-06)
(6.9635e-05 1.8528e-06 -3.7101e-06)
(6.6318e-05 1.3301e-06 -2.662e-06)
(6.2843e-05 8.3888e-07 -1.6772e-06)
(5.9254e-05 4.4461e-07 -8.867e-07)
(5.5593e-05 1.8522e-07 -3.666e-07)
(8.7226e-05 -1.5492e-07 7.558e-07)
(8.6261e-05 3.8195e-07 -1.927e-06)
(8.4821e-05 8.1402e-07 -4.086e-06)
(8.2981e-05 1.1295e-06 -5.6621e-06)
(8.0813e-05 1.3192e-06 -6.609e-06)
(7.8372e-05 1.3794e-06 -6.9087e-06)
(7.569e-05 1.3165e-06 -6.5919e-06)
(7.2782e-05 1.1505e-06 -5.759e-06)
(6.9657e-05 9.1598e-07 -4.5822e-06)
(6.6336e-05 6.5562e-07 -3.2763e-06)
(6.2856e-05 4.113e-07 -2.0514e-06)
(5.9263e-05 2.1558e-07 -1.0703e-06)
(5.5598e-05 8.7278e-08 -4.27e-07)
(8.7325e-05 -4.9877e-10 8.2838e-07)
(8.6348e-05 7.8876e-10 -2.3269e-06)
(8.4895e-05 1.8175e-09 -4.8674e-06)
(8.3042e-05 2.5654e-09 -6.7222e-06)
(8.0864e-05 3.0167e-09 -7.8352e-06)
(7.8417e-05 3.1642e-09 -8.1826e-06)
(7.5732e-05 3.0208e-09 -7.7982e-06)
(7.2821e-05 2.6341e-09 -6.7996e-06)
(6.9693e-05 2.0854e-09 -5.3925e-06)
(6.6366e-05 1.4689e-09 -3.8344e-06)
(6.2878e-05 8.7506e-10 -2.3769e-06)
(5.9277e-05 3.7649e-10 -1.2137e-06)
(5.5607e-05 1.8715e-11 -4.5545e-07)
(8.7541e-05 1.1096e-07 8.5166e-07)
(8.6539e-05 -3.6782e-07 -2.9925e-06)
(8.5055e-05 -7.5399e-07 -6.0914e-06)
(8.3174e-05 -1.0365e-06 -8.3554e-06)
(8.0974e-05 -1.2059e-06 -9.711e-06)
(7.8513e-05 -1.2572e-06 -1.0122e-05)
(7.5822e-05 -1.1953e-06 -9.623e-06)
(7.2908e-05 -1.0383e-06 -8.3548e-06)
(6.9771e-05 -8.1845e-07 -6.5771e-06)
(6.6429e-05 -5.7594e-07 -4.6185e-06)
(6.2923e-05 -3.5012e-07 -2.7975e-06)
(5.9306e-05 -1.7125e-07 -1.3564e-06)
(5.5624e-05 -5.6365e-08 -4.2943e-07)
(8.7442e-05 -8.1932e-07 -2.7301e-07)
(8.6452e-05 2.5597e-06 8.1279e-07)
(8.4983e-05 5.2822e-06 1.6878e-06)
(8.3114e-05 7.2707e-06 2.3273e-06)
(8.0924e-05 8.4626e-06 2.711e-06)
(7.8469e-05 8.8294e-06 2.8295e-06)
(7.578e-05 8.4038e-06 2.6939e-06)
(7.2867e-05 7.3115e-06 2.345e-06)
(6.9734e-05 5.7765e-06 1.8547e-06)
(6.6399e-05 4.0815e-06 1.3129e-06)
(6.2901e-05 2.501e-06 8.0728e-07)
(5.9292e-05 1.2454e-06 4.0539e-07)
(5.5616e-05 4.3269e-07 1.4533e-07)
(8.7226e-05 -7.5503e-07 -1.5309e-07)
(8.6261e-05 1.9278e-06 3.8179e-07)
(8.4821e-05 4.0868e-06 8.1223e-07)
(8.2981e-05 5.6628e-06 1.1265e-06)
(8.0813e-05 6.6096e-06 1.3154e-06)
(7.8372e-05 6.9092e-06 1.3753e-06)
(7.569e-05 6.5922e-06 1.3124e-06)
(7.2782e-05 5.759e-06 1.1469e-06)
(6.9657e-05 4.582e-06 9.1299e-07)
(6.6337e-05 3.2761e-06 6.5342e-07)
(6.2857e-05 2.051e-06 4.0987e-07)
(5.9263e-05 1.0698e-06 2.1479e-07)
(5.5599e-05 4.2649e-07 8.6925e-08)
(8.7121e-05 -6.6043e-07 1.5934e-09)
(8.6168e-05 1.5371e-06 3.2916e-11)
(8.4743e-05 3.3048e-06 -1.2469e-09)
(8.2916e-05 4.595e-06 -2.2168e-09)
(8.0759e-05 5.3712e-06 -2.8568e-09)
(7.8324e-05 5.6201e-06 -3.1597e-09)
(7.5646e-05 5.3687e-06 -3.1388e-09)
(7.2741e-05 4.6995e-06 -2.8408e-09)
(6.962e-05 3.7515e-06 -2.3497e-09)
(6.6307e-05 2.6971e-06 -1.7715e-09)
(6.2835e-05 1.7053e-06 -1.2123e-09)
(5.9249e-05 9.0787e-07 -7.587e-10)
(5.559e-05 3.8187e-07 -4.6474e-10)
(8.7057e-05 -5.242e-07 1.7771e-07)
(8.6112e-05 1.1521e-06 -3.8255e-07)
(8.4694e-05 2.5002e-06 -8.3314e-07)
(8.2876e-05 3.484e-06 -1.1621e-06)
(8.0725e-05 4.0764e-06 -1.3602e-06)
(7.8295e-05 4.268e-06 -1.4245e-06)
(7.5619e-05 4.0803e-06 -1.3621e-06)
(7.2715e-05 3.5761e-06 -1.1941e-06)
(6.9598e-05 2.8605e-06 -9.5544e-07)
(6.6288e-05 2.0635e-06 -6.896e-07)
(6.2821e-05 1.3125e-06 -4.3907e-07)
(5.924e-05 7.0732e-07 -2.372e-07)
(5.5584e-05 3.0669e-07 -1.0358e-07)
(8.7035e-05 -3.5765e-07 3.5858e-07)
(8.6092e-05 7.6788e-07 -7.671e-07)
(8.4678e-05 1.6729e-06 -1.6723e-06)
(8.2863e-05 2.3335e-06 -2.333e-06)
(8.0714e-05 2.7313e-06 -2.731e-06)
(7.8285e-05 2.8605e-06 -2.8604e-06)
(7.5609e-05 2.7355e-06 -2.7355e-06)
(7.2706e-05 2.3986e-06 -2.3987e-06)
(6.959e-05 1.9201e-06 -1.9202e-06)
(6.6281e-05 1.3868e-06 -1.387e-06)
(6.2816e-05 8.8404e-07 -8.8434e-07)
(5.9237e-05 4.7862e-07 -4.7898e-07)
(5.5582e-05 2.0989e-07 -2.1031e-07)
(8.7057e-05 -1.7673e-07 5.2506e-07)
(8.6111e-05 3.8331e-07 -1.1513e-06)
(8.4694e-05 8.3371e-07 -2.4995e-06)
(8.2876e-05 1.1624e-06 -3.4834e-06)
(8.0725e-05 1.3604e-06 -4.0759e-06)
(7.8295e-05 1.4246e-06 -4.2677e-06)
(7.5619e-05 1.3621e-06 -4.0801e-06)
(7.2715e-05 1.1939e-06 -3.576e-06)
(6.9597e-05 9.5522e-07 -2.8605e-06)
(6.6288e-05 6.8932e-07 -2.0637e-06)
(6.2821e-05 4.3874e-07 -1.3127e-06)
(5.924e-05 2.3682e-07 -7.0767e-07)
(5.5584e-05 1.0314e-07 -3.071e-07)
(8.7121e-05 -5.8999e-10 6.612e-07)
(8.6168e-05 7.2371e-10 -1.5363e-06)
(8.4743e-05 1.7744e-09 -3.304e-06)
(8.2916e-05 2.54e-09 -4.5943e-06)
(8.0759e-05 3.0036e-09 -5.3705e-06)
(7.8324e-05 3.1584e-09 -5.6196e-06)
(7.5646e-05 3.0195e-09 -5.3684e-06)
(7.274e-05 2.6357e-09 -4.6993e-06)
(6.962e-05 2.0864e-09 -3.7514e-06)
(6.6306e-05 1.4661e-09 -2.6972e-06)
(6.2835e-05 8.6758e-10 -1.7055e-06)
(5.9249e-05 3.6587e-10 -9.0819e-07)
(5.5589e-05 8.4073e-12 -3.8226e-07)
(8.7226e-05 1.5408e-07 7.557e-07)
(8.6261e-05 -3.8102e-07 -1.927e-06)
(8.4821e-05 -8.1167e-07 -4.0859e-06)
(8.2981e-05 -1.1262e-06 -5.6619e-06)
(8.0813e-05 -1.3152e-06 -6.6088e-06)
(7.8372e-05 -1.3752e-06 -6.9085e-06)
(7.569e-05 -1.3125e-06 -6.5917e-06)
(7.2782e-05 -1.147e-06 -5.7587e-06)
(6.9657e-05 -9.1321e-07 -4.5819e-06)
(6.6336e-05 -6.5369e-07 -3.2761e-06)
(6.2856e-05 -4.1019e-07 -2.0512e-06)
(5.9263e-05 -2.1518e-07 -1.0701e-06)
(5.5598e-05 -8.7391e-08 -4.2689e-07)
(8.7442e-05 2.7394e-07 8.1987e-07)
(8.6452e-05 -8.1196e-07 -2.559e-06)
(8.4982e-05 -1.6871e-06 -5.2813e-06)
(8.3114e-05 -2.3267e-06 -7.2698e-06)
(8.0924e-05 -2.7106e-06 -8.4618e-06)
(7.8468e-05 -2.8291e-06 -8.8287e-06)
(7.578e-05 -2.6937e-06 -8.4033e-06)
(7.2866e-05 -2.3449e-06 -7.3112e-06)
(6.9733e-05 -1.8547e-06 -5.7765e-06)
(6.6398e-05 -1.313e-06 -4.0816e-06)
(6.2901e-05 -8.0752e-07 -2.5013e-06)
(5.9292e-05 -4.0573e-07 -1.2457e-06)
(5.5616e-05 -1.4579e-07 -4.3311e-07)
(8.738e-05 -7.3492e-07 -4.4462e-07)
(8.6397e-05 2.1214e-06 1.2501e-06)
(8.4937e-05 4.4219e-06 2.6153e-06)
(8.3076e-05 6.102e-06 3.6125e-06)
(8.0892e-05 7.1101e-06 4.2112e-06)
(7.844e-05 7.4236e-06 4.398e-06)
(7.5753e-05 7.0719e-06 4.1906e-06)
(7.2841e-05 6.1613e-06 3.6522e-06)
(6.971e-05 4.8793e-06 2.894e-06)
(6.6379e-05 3.4615e-06 2.0552e-06)
(6.2887e-05 2.1372e-06 1.2715e-06)
(5.9283e-05 1.0827e-06 6.4738e-07)
(5.5611e-05 3.9767e-07 2.4193e-07)
(8.7165e-05 -6.3903e-07 -3.2218e-07)
(8.6207e-05 1.5341e-06 7.634e-07)
(8.4776e-05 3.2824e-06 1.6368e-06)
(8.2944e-05 4.5585e-06 2.2743e-06)
(8.0782e-05 5.3258e-06 2.6578e-06)
(7.8344e-05 5.5708e-06 2.7804e-06)
(7.5664e-05 5.3193e-06 2.6552e-06)
(7.2757e-05 4.6527e-06 2.3229e-06)
(6.9635e-05 3.7094e-06 1.8526e-06)
(6.6319e-05 2.6613e-06 1.3299e-06)
(6.2843e-05 1.6765e-06 8.3875e-07)
(5.9255e-05 8.8602e-07 4.4454e-07)
(5.5593e-05 3.6596e-07 1.8518e-07)
(8.7057e-05 -5.2405e-07 -1.7494e-07)
(8.6112e-05 1.1517e-06 3.8346e-07)
(8.4694e-05 2.4994e-06 8.3251e-07)
(8.2876e-05 3.483e-06 1.1602e-06)
(8.0725e-05 4.0752e-06 1.3576e-06)
(7.8295e-05 4.2668e-06 1.4214e-06)
(7.5619e-05 4.0791e-06 1.359e-06)
(7.2715e-05 3.575e-06 1.1911e-06)
(6.9598e-05 2.8595e-06 9.5294e-07)
(6.6288e-05 2.0628e-06 6.8766e-07)
(6.2821e-05 1.312e-06 4.3769e-07)
(5.924e-05 7.07e-07 2.3628e-07)
(5.5584e-05 3.0649e-07 1.0293e-07)
(8.699e-05 -3.7036e-07 1.3901e-09)
(8.6053e-05 7.715e-07 4.4639e-10)
(8.4644e-05 1.6895e-06 -3.356e-10)
(8.2835e-05 2.3595e-06 -9.3984e-10)
(8.069e-05 2.7631e-06 -1.3551e-09)
(7.8264e-05 2.8949e-06 -1.5772e-09)
(7.5591e-05 2.7696e-06 -1.6132e-09)
(7.2689e-05 2.4303e-06 -1.4883e-09)
(6.9574e-05 1.9478e-06 -1.2485e-09)
(6.6269e-05 1.4097e-06 -9.5368e-10)
(6.2807e-05 9.0173e-07 -6.6582e-10)
(5.9231e-05 4.9148e-07 -4.3655e-10)
(5.5578e-05 2.1888e-07 -2.9826e-10)
(8.6968e-05 -1.8968e-07 1.9063e-07)
(8.6033e-05 3.8711e-07 -3.864e-07)
(8.4627e-05 8.5079e-07 -8.503e-07)
(8.2821e-05 1.1892e-06 -1.1889e-06)
(8.0678e-05 1.3931e-06 -1.393e-06)
(7.8254e-05 1.4599e-06 -1.4599e-06)
(7.5581e-05 1.3971e-06 -1.3972e-06)
(7.268e-05 1.2264e-06 -1.2266e-06)
(6.9566e-05 9.8362e-07 -9.839e-07)
(6.6262e-05 7.1267e-07 -7.1299e-07)
(6.2802e-05 4.5675e-07 -4.5711e-07)
(5.9227e-05 2.499e-07 -2.503e-07)
(5.5576e-05 1.1227e-07 -1.1272e-07)
(8.699e-05 -4.0611e-10 3.7126e-07)
(8.6053e-05 2.2322e-10 -7.7077e-07)
(8.4644e-05 7.248e-10 -1.689e-06)
(8.2835e-05 1.0902e-09 -2.3591e-06)
(8.069e-05 1.3122e-09 -2.7629e-06)
(7.8264e-05 1.3868e-09 -2.8948e-06)
(7.5591e-05 1.3208e-09 -2.7696e-06)
(7.2689e-05 1.1369e-09 -2.4304e-06)
(6.9574e-05 8.7109e-10 -1.948e-06)
(6.6269e-05 5.6699e-10 -1.41e-06)
(6.2807e-05 2.6889e-10 -9.0206e-07)
(5.9231e-05 1.4118e-11 -4.9187e-07)
(5.5578e-05 -1.7288e-10 -2.1932e-07)
(8.7057e-05 1.7596e-07 5.2485e-07)
(8.6111e-05 -3.8286e-07 -1.1509e-06)
(8.4694e-05 -8.3228e-07 -2.4986e-06)
(8.2876e-05 -1.1603e-06 -3.4823e-06)
(8.0725e-05 -1.3578e-06 -4.0745e-06)
(7.8295e-05 -1.4219e-06 -4.2663e-06)
(7.5618e-05 -1.3595e-06 -4.0787e-06)
(7.2715e-05 -1.1917e-06 -3.5748e-06)
(6.9597e-05 -9.5348e-07 -2.8595e-06)
(6.6288e-05 -6.8816e-07 -2.0629e-06)
(6.2821e-05 -4.3816e-07 -1.3122e-06)
(5.924e-05 -2.3674e-07 -7.0733e-07)
(5.5584e-05 -1.0344e-07 -3.0691e-07)
(8.7165e-05 3.2316e-07 6.3971e-07)
(8.6207e-05 -7.6279e-07 -1.5332e-06)
(8.4775e-05 -1.6365e-06 -3.2814e-06)
(8.2943e-05 -2.2743e-06 -4.5574e-06)
(8.0781e-05 -2.658e-06 -5.3248e-06)
(7.8344e-05 -2.7808e-06 -5.5699e-06)
(7.5664e-05 -2.6557e-06 -5.3185e-06)
(7.2757e-05 -2.3234e-06 -4.6522e-06)
(6.9635e-05 -1.8531e-06 -3.7091e-06)
(6.6318e-05 -1.3303e-06 -2.6612e-06)
(6.2843e-05 -8.3919e-07 -1.6766e-06)
(5.9254e-05 -4.4499e-07 -8.8631e-07)
(5.5593e-05 -1.857e-07 -3.6637e-07)
(8.738e-05 4.4548e-07 7.355e-07)
(8.6397e-05 -1.2494e-06 -2.1206e-06)
(8.4936e-05 -2.6147e-06 -4.4209e-06)
(8.3076e-05 -3.6121e-06 -6.101e-06)
(8.0892e-05 -4.2109e-06 -7.1091e-06)
(7.844e-05 -4.3978e-06 -7.4228e-06)
(7.5752e-05 -4.1905e-06 -7.0712e-06)
(7.284e-05 -3.6522e-06 -6.1608e-06)
(6.9709e-05 -2.8941e-06 -4.879e-06)
(6.6379e-05 -2.0553e-06 -3.4615e-06)
(6.2886e-05 -1.2717e-06 -2.1374e-06)
(5.9282e-05 -6.4776e-07 -1.0831e-06)
(5.561e-05 -2.4243e-07 -3.9812e-07)
(8.7359e-05 -6.0578e-07 -6.0444e-07)
(8.6379e-05 1.6842e-06 1.6854e-06)
(8.4921e-05 3.5284e-06 3.5296e-06)
(8.3063e-05 4.8753e-06 4.8764e-06)
(8.0881e-05 5.684e-06 5.685e-06)
(7.8431e-05 5.9369e-06 5.9378e-06)
(7.5744e-05 5.6579e-06 5.6587e-06)
(7.2832e-05 4.9323e-06 4.933e-06)
(6.9702e-05 3.9098e-06 3.9105e-06)
(6.6372e-05 2.7785e-06 2.7791e-06)
(6.2882e-05 1.7211e-06 1.7216e-06)
(5.928e-05 8.7854e-07 8.7898e-07)
(5.5609e-05 3.3047e-07 3.308e-07)
(8.7144e-05 -4.9054e-07 -4.8919e-07)
(8.6189e-05 1.146e-06 1.1472e-06)
(8.476e-05 2.4625e-06 2.4636e-06)
(8.2931e-05 3.4235e-06 3.4245e-06)
(8.0771e-05 4.0016e-06 4.0025e-06)
(7.8334e-05 4.1869e-06 4.1877e-06)
(7.5655e-05 3.9992e-06 3.9998e-06)
(7.2749e-05 3.4997e-06 3.5003e-06)
(6.9628e-05 2.7924e-06 2.7929e-06)
(6.6312e-05 2.0061e-06 2.0066e-06)
(6.2839e-05 1.2668e-06 1.2673e-06)
(5.9252e-05 6.7306e-07 6.7345e-07)
(5.5591e-05 2.8197e-07 2.8228e-07)
(8.7035e-05 -3.575e-07 -3.5613e-07)
(8.6092e-05 7.6739e-07 7.6855e-07)
(8.4678e-05 1.6719e-06 1.6729e-06)
(8.2863e-05 2.3321e-06 2.3329e-06)
(8.0714e-05 2.7297e-06 2.7304e-06)
(7.8285e-05 2.8588e-06 2.8594e-06)
(7.5609e-05 2.7339e-06 2.7344e-06)
(7.2707e-05 2.3971e-06 2.3975e-06)
(6.959e-05 1.9188e-06 1.9192e-06)
(6.6282e-05 1.3859e-06 1.3862e-06)
(6.2817e-05 8.8336e-07 8.8372e-07)
(5.9237e-05 4.7818e-07 4.785e-07)
(5.5582e-05 2.0962e-07 2.099e-07)
(8.6968e-05 -1.8955e-07 -1.8814e-07)
(8.6033e-05 3.8678e-07 3.8789e-07)
(8.4627e-05 8.5008e-07 8.5094e-07)
(8.2821e-05 1.1882e-06 1.1888e-06)
(8.0678e-05 1.392e-06 1.3924e-06)
(7.8254e-05 1.4587e-06 1.459e-06)
(7.5581e-05 1.3959e-06 1.3962e-06)
(7.268e-05 1.2254e-06 1.2256e-06)
(6.9567e-05 9.8276e-07 9.8298e-07)
(6.6262e-05 7.1202e-07 7.1225e-07)
(6.2802e-05 4.563e-07 4.5656e-07)
(5.9228e-05 2.4962e-07 2.4988e-07)
(5.5576e-05 1.1211e-07 1.1236e-07)
(8.6945e-05 -2.3108e-10 1.2048e-09)
(8.6013e-05 -2.0443e-10 8.6043e-10)
(8.461e-05 -1.8737e-10 5.6072e-10)
(8.2806e-05 -1.7679e-10 3.0965e-10)
(8.0666e-05 -1.7088e-10 1.1019e-10)
(7.8243e-05 -1.7045e-10 -3.5455e-11)
(7.5572e-05 -1.7687e-10 -1.2675e-10)
(7.2671e-05 -1.9084e-10 -1.6747e-10)
(6.9559e-05 -2.1301e-10 -1.6817e-10)
(6.6256e-05 -2.4311e-10 -1.4576e-10)
(6.2798e-05 -2.785e-10 -1.201e-10)
(5.9224e-05 -3.1506e-10 -1.0916e-10)
(5.5574e-05 -3.4879e-10 -1.2447e-10)
(8.6968e-05 1.8913e-07 1.9055e-07)
(8.6033e-05 -3.8729e-07 -3.8617e-07)
(8.4627e-05 -8.5069e-07 -8.4983e-07)
(8.282e-05 -1.1888e-06 -1.1882e-06)
(8.0678e-05 -1.3927e-06 -1.3922e-06)
(7.8254e-05 -1.4594e-06 -1.4591e-06)
(7.5581e-05 -1.3966e-06 -1.3964e-06)
(7.268e-05 -1.2261e-06 -1.2259e-06)
(6.9566e-05 -9.8345e-07 -9.8332e-07)
(6.6262e-05 -7.127e-07 -7.1254e-07)
(6.2802e-05 -4.5699e-07 -4.568e-07)
(5.9227e-05 -2.5032e-07 -2.501e-07)
(5.5576e-05 -1.1285e-07 -1.1261e-07)
(8.7035e-05 3.5722e-07 3.5836e-07)
(8.6092e-05 -7.6821e-07 -7.6654e-07)
(8.4678e-05 -1.6732e-06 -1.6711e-06)
(8.2863e-05 -2.3337e-06 -2.3314e-06)
(8.0714e-05 -2.7315e-06 -2.7291e-06)
(7.8284e-05 -2.8607e-06 -2.8583e-06)
(7.5609e-05 -2.7357e-06 -2.7335e-06)
(7.2706e-05 -2.3988e-06 -2.3969e-06)
(6.959e-05 -1.9203e-06 -1.9188e-06)
(6.6281e-05 -1.3871e-06 -1.386e-06)
(6.2816e-05 -8.8442e-07 -8.836e-07)
(5.9237e-05 -4.791e-07 -4.7853e-07)
(5.5582e-05 -2.1047e-07 -2.1007e-07)
(8.7144e-05 4.9023e-07 4.9122e-07)
(8.6189e-05 -1.1469e-06 -1.1449e-06)
(8.476e-05 -2.4638e-06 -2.4611e-06)
(8.293e-05 -3.4251e-06 -3.4219e-06)
(8.077e-05 -4.0034e-06 -4e-06)
(7.8334e-05 -4.1888e-06 -4.1854e-06)
(7.5655e-05 -4.001e-06 -3.9978e-06)
(7.2749e-05 -3.5014e-06 -3.4987e-06)
(6.9627e-05 -2.7939e-06 -2.7917e-06)
(6.6312e-05 -2.0073e-06 -2.0057e-06)
(6.2839e-05 -1.2679e-06 -1.2668e-06)
(5.9251e-05 -6.7403e-07 -6.7327e-07)
(5.5591e-05 -2.8286e-07 -2.8237e-07)
(8.7359e-05 6.0524e-07 6.064e-07)
(8.6379e-05 -1.6848e-06 -1.6832e-06)
(8.4921e-05 -3.5291e-06 -3.5272e-06)
(8.3063e-05 -4.8761e-06 -4.874e-06)
(8.0881e-05 -5.6848e-06 -5.6826e-06)
(7.843e-05 -5.9377e-06 -5.9356e-06)
(7.5743e-05 -5.6587e-06 -5.6568e-06)
(7.2831e-05 -4.9331e-06 -4.9315e-06)
(6.9701e-05 -3.9106e-06 -3.9093e-06)
(6.6372e-05 -2.7793e-06 -2.7783e-06)
(6.2881e-05 -1.7219e-06 -1.7212e-06)
(5.9279e-05 -8.7936e-07 -8.7883e-07)
(5.5608e-05 -3.3132e-07 -3.3091e-07)
(8.738e-05 -4.4599e-07 -7.3361e-07)
(8.6397e-05 1.2489e-06 2.1226e-06)
(8.4937e-05 2.6141e-06 4.423e-06)
(8.3076e-05 3.6114e-06 6.1031e-06)
(8.0892e-05 4.2102e-06 7.1112e-06)
(7.844e-05 4.3971e-06 7.4246e-06)
(7.5753e-05 4.1898e-06 7.0729e-06)
(7.2841e-05 3.6515e-06 6.1621e-06)
(6.971e-05 2.8933e-06 4.88e-06)
(6.6379e-05 2.0546e-06 3.4622e-06)
(6.2887e-05 1.271e-06 2.1378e-06)
(5.9283e-05 6.4699e-07 1.0832e-06)
(5.5611e-05 2.4163e-07 3.9804e-07)
(8.7165e-05 -3.2355e-07 -6.3771e-07)
(8.6207e-05 7.622e-07 1.5353e-06)
(8.4776e-05 1.6357e-06 3.2835e-06)
(8.2944e-05 2.2734e-06 4.5595e-06)
(8.0781e-05 2.657e-06 5.3268e-06)
(7.8344e-05 2.7797e-06 5.5717e-06)
(7.5664e-05 2.6546e-06 5.3201e-06)
(7.2757e-05 2.3224e-06 4.6535e-06)
(6.9635e-05 1.8521e-06 3.7101e-06)
(6.6319e-05 1.3295e-06 2.6619e-06)
(6.2844e-05 8.3837e-07 1.677e-06)
(5.9255e-05 4.442e-07 8.8646e-07)
(5.5593e-05 1.849e-07 3.663e-07)
(8.7057e-05 -1.7634e-07 -5.2272e-07)
(8.6111e-05 3.8232e-07 1.1529e-06)
(8.4694e-05 8.316e-07 2.5005e-06)
(8.2876e-05 1.1595e-06 3.4839e-06)
(8.0725e-05 1.357e-06 4.076e-06)
(7.8295e-05 1.421e-06 4.2675e-06)
(7.5619e-05 1.3586e-06 4.0797e-06)
(7.2715e-05 1.1908e-06 3.5756e-06)
(6.9598e-05 9.5266e-07 2.8601e-06)
(6.6288e-05 6.8739e-07 2.0633e-06)
(6.2821e-05 4.3741e-07 1.3124e-06)
(5.924e-05 2.36e-07 7.0738e-07)
(5.5584e-05 1.0268e-07 3.068e-07)
(8.699e-05 -3.9381e-11 -3.6899e-07)
(8.6053e-05 -6.1821e-10 7.7264e-07)
(8.4644e-05 -1.0891e-09 1.6905e-06)
(8.2835e-05 -1.4373e-09 2.3602e-06)
(8.069e-05 -1.6512e-09 2.7638e-06)
(7.8264e-05 -1.7279e-09 2.8954e-06)
(7.5591e-05 -1.677e-09 2.77e-06)
(7.2689e-05 -1.5225e-09 2.4306e-06)
(6.9574e-05 -1.3012e-09 1.9481e-06)
(6.6269e-05 -1.0564e-09 1.41e-06)
(6.2807e-05 -8.2768e-10 9.0206e-07)
(5.9231e-05 -6.4441e-10 4.9179e-07)
(5.5578e-05 -5.2327e-10 2.1915e-07)
(8.6968e-05 1.8917e-07 -1.8822e-07)
(8.6033e-05 -3.8741e-07 3.8812e-07)
(8.4627e-05 -8.5094e-07 8.5142e-07)
(8.282e-05 -1.1892e-06 1.1895e-06)
(8.0678e-05 -1.3931e-06 1.3932e-06)
(7.8254e-05 -1.4598e-06 1.4598e-06)
(7.5581e-05 -1.3971e-06 1.397e-06)
(7.268e-05 -1.2265e-06 1.2263e-06)
(6.9567e-05 -9.8378e-07 9.8356e-07)
(6.6262e-05 -7.1296e-07 7.127e-07)
(6.2802e-05 -4.5718e-07 4.5688e-07)
(5.9227e-05 -2.5045e-07 2.5008e-07)
(5.5576e-05 -1.1293e-07 1.1248e-07)
(8.699e-05 3.6989e-07 1.3e-09)
(8.6053e-05 -7.7192e-07 7.8676e-10)
(8.4644e-05 -1.6899e-06 3.5138e-10)
(8.2835e-05 -2.3598e-06 1.3728e-12)
(8.069e-05 -2.7635e-06 -2.5662e-10)
(7.8264e-05 -2.8952e-06 -4.1844e-10)
(7.5591e-05 -2.7699e-06 -4.8557e-10)
(7.2689e-05 -2.4306e-06 -4.6922e-10)
(6.9574e-05 -1.9482e-06 -3.9231e-10)
(6.6269e-05 -1.4102e-06 -2.8678e-10)
(6.2807e-05 -9.0228e-07 -1.871e-10)
(5.9231e-05 -4.9211e-07 -1.2246e-10)
(5.5578e-05 -2.1958e-07 -1.1032e-10)
(8.7057e-05 5.2375e-07 1.776e-07)
(8.6111e-05 -1.1525e-06 -3.821e-07)
(8.4694e-05 -2.5005e-06 -8.3226e-07)
(8.2876e-05 -3.4844e-06 -1.1608e-06)
(8.0725e-05 -4.0767e-06 -1.3588e-06)
(7.8294e-05 -4.2684e-06 -1.423e-06)
(7.5618e-05 -4.0806e-06 -1.3607e-06)
(7.2715e-05 -3.5764e-06 -1.1928e-06)
(6.9597e-05 -2.8608e-06 -9.5433e-07)
(6.6288e-05 -2.0639e-06 -6.8873e-07)
(6.2821e-05 -1.313e-06 -4.3845e-07)
(5.924e-05 -7.079e-07 -2.368e-07)
(5.5584e-05 -3.0735e-07 -1.0334e-07)
(8.7164e-05 6.387e-07 3.2441e-07)
(8.6207e-05 -1.5348e-06 -7.6116e-07)
(8.4775e-05 -3.2834e-06 -1.6346e-06)
(8.2943e-05 -4.5597e-06 -2.2723e-06)
(8.0781e-05 -5.3272e-06 -2.6559e-06)
(7.8344e-05 -5.5722e-06 -2.7787e-06)
(7.5664e-05 -5.3206e-06 -2.6538e-06)
(7.2757e-05 -4.654e-06 -2.3218e-06)
(6.9635e-05 -3.7106e-06 -1.8518e-06)
(6.6318e-05 -2.6624e-06 -1.3294e-06)
(6.2843e-05 -1.6775e-06 -8.3851e-07)
(5.9254e-05 -8.8696e-07 -4.4453e-07)
(5.5593e-05 -3.6687e-07 -1.8537e-07)
(8.738e-05 7.3431e-07 4.4667e-07)
(8.6397e-05 -2.1219e-06 -1.2477e-06)
(8.4936e-05 -4.4223e-06 -2.6125e-06)
(8.3076e-05 -6.1023e-06 -3.6096e-06)
(8.0892e-05 -7.1104e-06 -4.2083e-06)
(7.844e-05 -7.4239e-06 -4.3953e-06)
(7.5752e-05 -7.0722e-06 -4.1882e-06)
(7.284e-05 -6.1616e-06 -3.6502e-06)
(6.9709e-05 -4.8797e-06 -2.8925e-06)
(6.6379e-05 -3.462e-06 -2.0542e-06)
(6.2886e-05 -2.1379e-06 -1.2709e-06)
(5.9282e-05 -1.0835e-06 -6.4721e-07)
(5.561e-05 -3.9853e-07 -2.4206e-07)
(8.7442e-05 -2.7438e-07 -8.1805e-07)
(8.6452e-05 8.1152e-07 2.561e-06)
(8.4983e-05 1.6866e-06 5.2833e-06)
(8.3114e-05 2.3263e-06 7.2718e-06)
(8.0924e-05 2.71e-06 8.4637e-06)
(7.8469e-05 2.8286e-06 8.8304e-06)
(7.578e-05 2.6931e-06 8.4048e-06)
(7.2867e-05 2.3444e-06 7.3124e-06)
(6.9734e-05 1.8541e-06 5.7774e-06)
(6.6399e-05 1.3124e-06 4.0823e-06)
(6.2901e-05 8.0686e-07 2.5017e-06)
(5.9292e-05 4.0503e-07 1.2459e-06)
(5.5617e-05 1.4505e-07 4.3309e-07)
(8.7226e-05 -1.5446e-07 -7.5376e-07)
(8.6261e-05 3.8059e-07 1.929e-06)
(8.4821e-05 8.112e-07 4.0879e-06)
(8.2981e-05 1.1256e-06 5.6639e-06)
(8.0813e-05 1.3147e-06 6.6107e-06)
(7.8372e-05 1.3747e-06 6.9102e-06)
(7.569e-05 1.3119e-06 6.5931e-06)
(7.2782e-05 1.1464e-06 5.7599e-06)
(6.9657e-05 9.126e-07 4.5828e-06)
(6.6337e-05 6.5306e-07 3.2768e-06)
(6.2857e-05 4.0953e-07 2.0516e-06)
(5.9264e-05 2.1449e-07 1.0703e-06)
(5.5599e-05 8.6663e-08 4.2686e-07)
(8.7121e-05 1.9105e-10 -6.5915e-07)
(8.6168e-05 -1.08e-09 1.5383e-06)
(8.4743e-05 -2.11e-09 3.306e-06)
(8.2916e-05 -2.8695e-09 4.5961e-06)
(8.0759e-05 -3.3353e-09 5.3722e-06)
(7.8324e-05 -3.5006e-09 5.6211e-06)
(7.5646e-05 -3.3833e-09 5.3696e-06)
(7.2741e-05 -3.0324e-09 4.7003e-06)
(6.962e-05 -2.5277e-09 3.7522e-06)
(6.6307e-05 -1.964e-09 2.6977e-06)
(6.2835e-05 -1.4307e-09 1.7058e-06)
(5.9249e-05 -9.9593e-10 9.0833e-07)
(5.559e-05 -6.999e-10 3.8222e-07)
(8.7057e-05 1.7626e-07 -5.229e-07)
(8.6111e-05 -3.8354e-07 1.1533e-06)
(8.4694e-05 -8.3374e-07 2.5013e-06)
(8.2876e-05 -1.1623e-06 3.4851e-06)
(8.0725e-05 -1.3602e-06 4.0774e-06)
(7.8295e-05 -1.4244e-06 4.269e-06)
(7.5619e-05 -1.3619e-06 4.0811e-06)
(7.2715e-05 -1.1939e-06 3.5768e-06)
(6.9598e-05 -9.5527e-07 2.8611e-06)
(6.6288e-05 -6.8953e-07 2.0641e-06)
(6.2821e-05 -4.3911e-07 1.313e-06)
(5.924e-05 -2.3734e-07 7.0774e-07)
(5.5584e-05 -1.0377e-07 3.0701e-07)
(8.7035e-05 3.5702e-07 -3.5632e-07)
(8.6092e-05 -7.6787e-07 7.6913e-07)
(8.4678e-05 -1.6724e-06 1.6741e-06)
(8.2863e-05 -2.3326e-06 2.3346e-06)
(8.0714e-05 -2.7302e-06 2.7324e-06)
(7.8285e-05 -2.8594e-06 2.8615e-06)
(7.5609e-05 -2.7344e-06 2.7363e-06)
(7.2706e-05 -2.3977e-06 2.3993e-06)
(6.959e-05 -1.9194e-06 1.9207e-06)
(6.6282e-05 -1.3865e-06 1.3873e-06)
(6.2816e-05 -8.841e-07 8.8449e-07)
(5.9237e-05 -4.7896e-07 4.7899e-07)
(5.5582e-05 -2.1044e-07 2.1018e-07)
(8.7057e-05 5.2353e-07 -1.7503e-07)
(8.6111e-05 -1.1522e-06 3.8392e-07)
(8.4694e-05 -2.4998e-06 8.3341e-07)
(8.2876e-05 -3.4834e-06 1.1615e-06)
(8.0725e-05 -4.0755e-06 1.359e-06)
(7.8295e-05 -4.2671e-06 1.4229e-06)
(7.5619e-05 -4.0794e-06 1.3604e-06)
(7.2715e-05 -3.5753e-06 1.1924e-06)
(6.9598e-05 -2.86e-06 9.5405e-07)
(6.6288e-05 -2.0633e-06 6.8854e-07)
(6.2821e-05 -1.3126e-06 4.3833e-07)
(5.924e-05 -7.0768e-07 2.367e-07)
(5.5584e-05 -3.0725e-07 1.032e-07)
(8.7121e-05 6.5992e-07 1.5616e-09)
(8.6168e-05 -1.5375e-06 4.6833e-10)
(8.4742e-05 -3.3052e-06 -4.3424e-10)
(8.2916e-05 -4.5954e-06 -1.1263e-09)
(8.0759e-05 -5.3715e-06 -1.5917e-09)
(7.8324e-05 -5.6204e-06 -1.8232e-09)
(7.5646e-05 -5.3691e-06 -1.8289e-09)
(7.274e-05 -4.6999e-06 -1.6418e-09)
(6.962e-05 -3.7519e-06 -1.3225e-09)
(6.6306e-05 -2.6976e-06 -9.4874e-10)
(6.2835e-05 -1.7058e-06 -5.988e-10)
(5.9249e-05 -9.085e-07 -3.3631e-10)
(5.559e-05 -3.8258e-07 -1.9884e-10)
(8.7225e-05 7.5456e-07 1.5596e-07)
(8.6261e-05 -1.9282e-06 -3.8066e-07)
(8.4821e-05 -4.0872e-06 -8.1255e-07)
(8.2981e-05 -5.6633e-06 -1.128e-06)
(8.0813e-05 -6.6101e-06 -1.3177e-06)
(7.8372e-05 -6.9096e-06 -1.378e-06)
(7.569e-05 -6.5926e-06 -1.3152e-06)
(7.2782e-05 -5.7595e-06 -1.1494e-06)
(6.9657e-05 -4.5826e-06 -9.1513e-07)
(6.6336e-05 -3.2766e-06 -6.5503e-07)
(6.2857e-05 -2.0517e-06 -4.1098e-07)
(5.9263e-05 -1.0706e-06 -2.1552e-07)
(5.5598e-05 -4.2732e-07 -8.744e-08)
(8.7442e-05 8.1868e-07 2.754e-07)
(8.6452e-05 -2.5601e-06 -8.1065e-07)
(8.4982e-05 -5.2824e-06 -1.6859e-06)
(8.3114e-05 -7.2708e-06 -2.3257e-06)
(8.0923e-05 -8.4626e-06 -2.7097e-06)
(7.8468e-05 -8.8293e-06 -2.8284e-06)
(7.5779e-05 -8.4038e-06 -2.693e-06)
(7.2866e-05 -7.3115e-06 -2.3444e-06)
(6.9733e-05 -5.7767e-06 -1.8544e-06)
(6.6398e-05 -4.0819e-06 -1.3127e-06)