/*--------------------------------*- C++ -*----------------------------------*\
| =========                 |                                                 |
| \\      /  F ield         | OpenFOAM: The Open Source CFD Toolbox           |
|  \\    /   O peration     | Version:  4.1                                   |
|   \\  /    A nd           | Web:      www.OpenFOAM.org                      |
|    \\/     M anipulation  |                                                 |
\*---------------------------------------------------------------------------*/
FoamFile
{
    version     2.0;
    format      ascii;
    class       surfaceVectorField;
    location    "0.0089";
    object      Uf;
}
// * * * * * * * * * * * * * * * * * * * * * * * * * * * * * * * * * * * * * //

dimensions      [0 1 -1 0 0 0 0];

internalField   nonuniform List<vector> 
4288
(
(0.013365 0.015717 9.729e-07)
(0.021359 0.016442 0.0013295)
(0.02136 0.016443 -0.0013275)
(0.020263 0.021695 -0.00060065)
(0.020262 0.021689 0.00059561)
(0.0010852 0.011434 9.7769e-07)
(0.0076064 0.01322 0.0017429)
(0.0076069 0.013222 -0.0017405)
(0.0063842 0.017937 -0.00069488)
(0.0063843 0.017939 0.00069869)
(-0.008166 0.0069867 7.4906e-07)
(-0.0034462 0.0096239 0.0020843)
(-0.0034459 0.009625 -0.0020826)
(-0.0046986 0.01364 -0.00082559)
(-0.0046986 0.013641 0.00082858)
(-0.014224 0.0028558 7.2668e-07)
(-0.011449 0.0061055 0.0023049)
(-0.011449 0.0061066 -0.0023031)
(-0.012591 0.0092238 -0.0009864)
(-0.012591 0.0092256 0.00098947)
(-0.018247 -0.00053872 5.1716e-07)
(-0.016505 0.0028726 0.0021287)
(-0.016505 0.0028736 -0.0021269)
(-0.017418 0.0049406 -0.0012522)
(-0.017418 0.0049421 0.0012551)
(-0.019666 -0.0028505 5.2279e-07)
(-0.019257 -0.0001289 0.0014506)
(-0.019257 -0.00012823 -0.0014492)
(-0.019841 0.00083795 -0.00090251)
(-0.01984 0.00083788 0.00090326)
(-0.017948 -0.0045842 7.0181e-07)
(-0.019171 -0.0023921 0.00062811)
(-0.019171 -0.0023912 -0.00062639)
(-0.019582 -0.0025128 -0.0002334)
(-0.019582 -0.0025119 0.00023566)
(-0.01443 -0.0058642 5.3915e-07)
(-0.016518 -0.0039381 0.00052173)
(-0.016518 -0.0039373 -0.00052011)
(-0.016799 -0.0047634 -0.00029575)
(-0.016799 -0.004763 0.00029763)
(-0.010002 -0.0061139 3.7396e-07)
(-0.0127 -0.0048031 0.00035955)
(-0.0127 -0.0048025 -0.00035842)
(-0.012679 -0.005973 -0.00020734)
(-0.012679 -0.0059727 0.00020832)
(-0.0057985 -0.0053037 5.6268e-07)
(-0.0085164 -0.004769 0.00010097)
(-0.0085158 -0.004768 -0.00010009)
(-0.0081829 -0.0059987 -7.5378e-05)
(-0.0081831 -0.0059982 7.6296e-05)
(-0.0025203 -0.0037072 3.1444e-07)
(-0.0046954 -0.0038832 -0.00017064)
(-0.0046951 -0.0038814 0.00017143)
(-0.0041299 -0.0049937 3.946e-05)
(-0.00413 -0.004993 -3.7947e-05)
(-0.0017993 -0.0024398 -0.00038753)
(-0.0017993 -0.0024384 0.00038759)
(-0.0011181 -0.0032773 0.00011813)
(-0.0011179 -0.0032797 -0.00012101)
(0.014067 0.011582 0.00071238)
(0.021941 0.011759 -0.0011644)
(0.021887 0.013311 -0.00074994)
(0.021188 0.01572 -0.0001521)
(0.0018208 0.0089232 0.0013446)
(0.0082576 0.0093762 -0.00043685)
(0.0081993 0.011078 -0.00041855)
(0.0074437 0.013059 0.00026022)
(-0.0074933 0.0062853 0.0019364)
(-0.0027968 0.0067843 0.00023387)
(-0.0028736 0.0086081 -6.1982e-05)
(-0.0035984 0.010124 0.00058038)
(-0.013521 0.0039903 0.0023053)
(-0.010843 0.0043936 0.00082383)
(-0.010953 0.0063103 0.00033191)
(-0.011498 0.0072475 0.00086444)
(-0.017605 0.0019489 0.0022479)
(-0.015853 0.0023108 0.0011245)
(-0.016029 0.0041185 0.00061535)
(-0.016361 0.0049114 0.00053844)
(-0.018953 -5.4215e-05 0.0016949)
(-0.018474 0.00035664 0.0010659)
(-0.018706 0.0018954 0.0007696)
(-0.018869 0.0023551 0.00032373)
(-0.017353 -0.00169 0.0012044)
(-0.01852 -0.0013254 0.00083243)
(-0.018658 -0.00068478 0.00071389)
(-0.018721 -0.00069909 0.00038242)
(-0.014128 -0.0026971 0.0010601)
(-0.016158 -0.0024836 0.00092595)
(-0.016208 -0.0020699 0.00073796)
(-0.016182 -0.0024546 0.00041744)
(-0.01001 -0.0030567 0.0008614)
(-0.012516 -0.0031349 0.0009115)
(-0.012596 -0.0028485 0.00072681)
(-0.012358 -0.0034136 0.00039836)
(-0.0058905 -0.0027274 0.00055101)
(-0.008501 -0.0031227 0.00074625)
(-0.0086031 -0.0029639 0.00067053)
(-0.0081231 -0.0034951 0.00030676)
(-0.0026984 -0.0018576 0.00020015)
(-0.0048257 -0.0025446 0.00040534)
(-0.0049281 -0.0025034 0.00052139)
(-0.0042718 -0.0028823 0.00013428)
(-0.0020159 -0.0015258 7.9246e-05)
(-0.0021085 -0.00158 0.00033351)
(-0.0013877 -0.0017372 -5.0968e-05)
(0.0146 0.0098055 -0.0020591)
(0.022314 0.0091936 -0.0037033)
(0.022396 0.010664 -0.0026395)
(0.021743 0.013026 -0.0041171)
(0.002417 0.0075963 -0.0011875)
(0.0086855 0.0072998 -0.0026162)
(0.0087806 0.0088549 -0.0020972)
(0.0080692 0.010771 -0.0032129)
(-0.0067891 0.005393 -0.00037817)
(-0.0023583 0.0052631 -0.0015225)
(-0.0022766 0.0068443 -0.0015448)
(-0.0029569 0.0082953 -0.0023146)
(-0.012947 0.0033456 0.00027363)
(-0.01041 0.0034316 -0.00053247)
(-0.010346 0.0049867 -0.0010446)
(-0.010923 0.0059041 -0.0014833)
(-0.016846 0.0014273 0.00065015)
(-0.015381 0.0017217 0.00024038)
(-0.015359 0.0030237 -0.00059669)
(-0.015807 0.0036508 -0.00082052)
(-0.018122 -0.00042939 0.00068764)
(-0.017923 0.00029274 0.00076148)
(-0.017901 0.0012167 -0.00035047)
(-0.018223 0.0015358 -0.00042376)
(-0.016789 -0.0019088 0.00076335)
(-0.018095 -0.0011439 0.00092589)
(-0.018034 -0.00093097 -2.6005e-05)
(-0.018247 -0.0011125 0.00031172)
(-0.013887 -0.0027489 0.00094932)
(-0.015956 -0.0020837 0.0012922)
(-0.015937 -0.0019965 0.00024471)
(-0.015989 -0.0024455 0.00076011)
(-0.0099893 -0.0030449 0.00095208)
(-0.01242 -0.0025532 0.0014259)
(-0.012478 -0.0025638 0.00038772)
(-0.01231 -0.0032015 0.0009789)
(-0.0060603 -0.0027995 0.00074102)
(-0.0085021 -0.0025413 0.0013368)
(-0.0086242 -0.0026664 0.00041925)
(-0.0082283 -0.0032672 0.00099167)
(-0.0028855 -0.0021063 0.00039109)
(-0.0049175 -0.0020693 0.00095937)
(-0.0050742 -0.0023135 0.00029796)
(-0.0045 -0.0027491 0.00072908)
(-0.0021777 -0.0012783 0.00049927)
(-0.0023455 -0.0016096 0.00012829)
(-0.00169 -0.001816 0.00039573)
(0.01486 0.0066558 -0.0042906)
(0.022435 0.0062124 -0.0062134)
(0.022637 0.0075234 -0.0050366)
(0.022 0.0095303 -0.0064603)
(0.0027082 0.004922 -0.0029944)
(0.0088253 0.0047338 -0.0047349)
(0.009056 0.0061344 -0.0040611)
(0.0083618 0.0077103 -0.0050684)
(-0.0063722 0.0032296 -0.0017484)
(-0.0022178 0.0031819 -0.0031834)
(-0.0019994 0.0046329 -0.0030343)
(-0.0026564 0.0057437 -0.0036039)
(-0.012673 0.0017047 -0.00066877)
(-0.010271 0.001795 -0.0017964)
(-0.010071 0.0032562 -0.0020864)
(-0.010619 0.0039256 -0.002275)
(-0.016548 0.00040843 0.00017284)
(-0.015241 0.0005769 -0.00057904)
(-0.015093 0.0018328 -0.001141)
(-0.015494 0.0022061 -0.0011131)
(-0.017986 -0.00062962 0.00079164)
(-0.017794 -0.00034363 0.00034068)
(-0.017682 0.00071353 -0.0004264)
(-0.017933 0.00074277 -0.00019737)
(-0.016658 -0.0014633 0.0013097)
(-0.017998 -0.0010801 0.0010776)
(-0.017866 -0.00051509 0.00047793)
(-0.018018 -0.0007565 0.00081231)
(-0.013784 -0.0019952 0.0016612)
(-0.0159 -0.0016956 0.0016927)
(-0.015833 -0.0013136 0.0010386)
(-0.015839 -0.0017756 0.0015009)
(-0.0099601 -0.0021401 0.0017199)
(-0.012392 -0.0019634 0.001961)
(-0.012435 -0.0016795 0.001294)
(-0.012235 -0.0022956 0.001834)
(-0.0061131 -0.0018882 0.0014782)
(-0.0085016 -0.0018988 0.0018965)
(-0.0086354 -0.0017251 0.0013095)
(-0.0082259 -0.0023269 0.0018014)
(-0.0029806 -0.0013102 0.00099884)
(-0.0049427 -0.0014694 0.0014676)
(-0.0051388 -0.0014251 0.0010865)
(-0.004558 -0.0018672 0.0014068)
(-0.002227 -0.00084137 0.00083927)
(-0.0024513 -0.00089293 0.0007064)
(-0.0017925 -0.0011389 0.00082293)
(0.01486 0.0042894 -0.0066566)
(0.022314 0.0037028 -0.0091952)
(0.022637 0.005036 -0.007524)
(0.022 0.0064593 -0.0095313)
(0.0027082 0.0029931 -0.004923)
(0.0086856 0.0026158 -0.007301)
(0.0090561 0.0040606 -0.0061351)
(0.0083619 0.0050679 -0.0077117)
(-0.0063722 0.0017472 -0.0032309)
(-0.0023583 0.001522 -0.0052642)
(-0.0019995 0.0030336 -0.0046341)
(-0.0026563 0.0036037 -0.0057458)
(-0.012673 0.00066733 -0.0017065)
(-0.010409 0.00053188 -0.0034325)
(-0.01007 0.0020857 -0.0032575)
(-0.010618 0.002275 -0.0039277)
(-0.016548 -0.00017497 -0.00041121)
(-0.015381 -0.00024151 -0.0017234)
(-0.015093 0.0011398 -0.0018348)
(-0.015494 0.0011124 -0.002209)
(-0.017986 -0.00079392 0.0006265)
(-0.017923 -0.00076313 -0.00029537)
(-0.017682 0.00042451 -0.00071626)
(-0.017933 0.000196 -0.0007466)
(-0.016658 -0.001312 0.0014603)
(-0.018095 -0.0009277 0.0011415)
(-0.017865 -0.00048014 0.00051271)
(-0.018018 -0.00081422 0.00075362)
(-0.013784 -0.0016635 0.0019923)
(-0.015956 -0.001294 0.0020807)
(-0.015833 -0.0010406 0.0013112)
(-0.015839 -0.0015029 0.0017724)
(-0.0099604 -0.001722 0.0021375)
(-0.012421 -0.0014279 0.0025501)
(-0.012435 -0.0012957 0.001677)
(-0.012235 -0.001836 0.0022928)
(-0.0061133 -0.00148 0.001886)
(-0.0085024 -0.0013383 0.0025386)
(-0.0086356 -0.0013112 0.0017231)
(-0.0082262 -0.0018034 0.0023243)
(-0.0029808 -0.0010007 0.0013081)
(-0.0049175 -0.00096047 0.0020672)
(-0.0051389 -0.0010878 0.0014238)
(-0.0045582 -0.0014083 0.0018654)
(-0.0021779 -0.00050091 0.0012759)
(-0.0024514 -0.00070816 0.00089111)
(-0.0017926 -0.00082488 0.0011367)
(0.0146 0.00206 -0.0098068)
(0.021941 0.0011657 -0.011759)
(0.022397 0.0026404 -0.010665)
(0.021744 0.0041199 -0.013029)
(0.0024173 0.0011882 -0.0075972)
(0.0082576 0.00043806 -0.0093762)
(0.0087807 0.0020978 -0.0088559)
(0.0080691 0.0032145 -0.010773)
(-0.0067889 0.00037856 -0.0053933)
(-0.0027968 -0.00023303 -0.0067842)
(-0.0022763 0.0015455 -0.0068452)
(-0.0029569 0.0023165 -0.0082975)
(-0.012947 -0.00027376 -0.0033462)
(-0.010842 -0.00082313 -0.0043933)
(-0.010346 0.0010449 -0.0049873)
(-0.010923 0.0014846 -0.0059058)
(-0.016845 -0.00065074 -0.0014287)
(-0.015852 -0.001125 -0.0023122)
(-0.015358 0.00059673 -0.0030252)
(-0.015806 0.00082106 -0.003653)
(-0.018122 -0.00068893 0.00042736)
(-0.018474 -0.0010672 -0.0003595)
(-0.017901 0.00035006 -0.0012191)
(-0.018222 0.00042328 -0.0015385)
(-0.01679 -0.00076487 0.0019062)
(-0.01852 -0.00083381 0.0013225)
(-0.018034 2.4624e-05 0.00092892)
(-0.018247 -0.00031322 0.00111)
(-0.013887 -0.00095062 0.0027459)
(-0.016158 -0.00092695 0.0024801)
(-0.015938 -0.00024577 0.0019941)
(-0.015989 -0.00076143 0.0024424)
(-0.0099893 -0.00095324 0.003042)
(-0.012516 -0.00091231 0.0031319)
(-0.012478 -0.0003891 0.0025615)
(-0.01231 -0.00098018 0.0031982)
(-0.0060608 -0.00074197 0.0027967)
(-0.0085014 -0.0007469 0.0031197)
(-0.0086245 -0.00042043 0.0026644)
(-0.0082285 -0.00099279 0.0032644)
(-0.0028856 -0.00039205 0.0021037)
(-0.0048258 -0.00040567 0.0025423)
(-0.0050742 -0.00029887 0.0023113)
(-0.0045 -0.00073014 0.0027464)
(-0.0020165 -8.0536e-05 0.0015228)
(-0.0023457 -0.00012875 0.0016074)
(-0.0016904 -0.00039652 0.0018134)
(0.014068 -0.0007116 -0.011582)
(0.02136 -0.0013273 -0.016441)
(0.021888 0.00075025 -0.01331)
(0.021188 0.00015329 -0.015719)
(0.0018205 -0.001344 -0.0089229)
(0.0076066 -0.0017428 -0.013221)
(0.0081994 0.00041827 -0.011078)
(0.0074439 -0.00026112 -0.013059)
(-0.0074933 -0.0019355 -0.0062849)
(-0.0034464 -0.0020841 -0.0096244)
(-0.0028738 6.2385e-05 -0.0086078)
(-0.0035985 -0.00058067 -0.010123)
(-0.01352 -0.0023051 -0.003991)
(-0.011448 -0.0023049 -0.0061054)
(-0.010953 -0.00033138 -0.0063102)
(-0.011497 -0.00086437 -0.0072467)
(-0.017603 -0.0022487 -0.0019514)
(-0.016503 -0.0021298 -0.0028749)
(-0.016028 -0.00061538 -0.00412)
(-0.01636 -0.00053968 -0.0049122)
(-0.018953 -0.0016958 5.0984e-05)
(-0.019257 -0.0014519 0.00012585)
(-0.018705 -0.00077046 -0.001898)
(-0.018868 -0.00032453 -0.0023581)
(-0.017352 -0.0012051 0.0016864)
(-0.019171 -0.00062929 0.002389)
(-0.018658 -0.00071366 0.00068132)
(-0.01872 -0.00038274 0.00069566)
(-0.014128 -0.0010608 0.0026934)
(-0.016518 -0.00052204 0.0039351)
(-0.016208 -0.00073905 0.0020671)
(-0.016182 -0.00041779 0.0024508)
(-0.01001 -0.00086192 0.0030535)
(-0.012701 -0.00036006 0.0048002)
(-0.012596 -0.00072786 0.0028454)
(-0.012358 -0.00039905 0.0034101)
(-0.0058909 -0.000551 0.0027249)
(-0.0085172 -0.00010087 0.0047664)
(-0.0086035 -0.00067135 0.0029616)
(-0.0081235 -0.0003071 0.0034921)
(-0.0026993 -0.0002008 0.0018548)
(-0.0046953 0.00017083 0.0038807)
(-0.0049284 -0.0005215 0.0025019)
(-0.0042722 -0.00013431 0.0028803)
(-0.0017999 0.000387 0.002437)
(-0.0021092 -0.00033477 0.0015776)
(-0.0013886 4.9909e-05 0.0017341)
(0.013367 -1.2664e-06 -0.015719)
(0.02136 0.001325 -0.016442)
(0.020262 0.00059385 -0.021693)
(0.020262 -0.00059401 -0.021691)
(0.001085 -1.2302e-06 -0.011436)
(0.0076071 0.0017408 -0.013223)
(0.0063843 0.00069483 -0.017939)
(0.0063843 -0.00069791 -0.01794)
(-0.0081655 -1.3559e-06 -0.0069874)
(-0.003446 0.0020818 -0.0096257)
(-0.0046992 0.0008245 -0.013641)
(-0.004699 -0.00082791 -0.013642)
(-0.014223 -1.6534e-06 -0.002857)
(-0.011448 0.0023023 -0.0061065)
(-0.012591 0.00098646 -0.0092245)
(-0.01259 -0.00098869 -0.0092243)
(-0.018245 -1.9844e-06 0.00053606)
(-0.016503 0.0021265 -0.0028757)
(-0.017416 0.0012532 -0.0049443)
(-0.017415 -0.0012548 -0.0049425)
(-0.019667 -1.8768e-06 0.002848)
(-0.019256 0.0014481 0.00012507)
(-0.01984 0.00090249 -0.00084141)
(-0.01984 -0.0009052 -0.00084046)
(-0.017948 -1.5779e-06 0.0045818)
(-0.019171 0.00062533 0.0023889)
(-0.019582 0.00023382 0.0025098)
(-0.019581 -0.00023613 0.0025108)
(-0.014431 -9.1954e-07 0.0058618)
(-0.016518 0.00051906 0.0039344)
(-0.016798 0.00029588 0.0047602)
(-0.016799 -0.00029811 0.004761)
(-0.010001 -5.6502e-07 0.0061113)
(-0.0127 0.00035796 0.0047998)
(-0.012679 0.0002078 0.0059703)
(-0.012679 -0.0002083 0.0059712)
(-0.0057991 -6.0557e-07 0.0053007)
(-0.0085168 9.9257e-05 0.004765)
(-0.0081838 7.5507e-05 0.0059953)
(-0.0081838 -7.6324e-05 0.0059962)
(-0.0025209 -2.8503e-07 0.0037044)
(-0.0046949 -0.00017195 0.0038795)
(-0.0041298 -3.8911e-05 0.0049905)
(-0.00413 3.9154e-05 0.0049918)
(-0.0017995 -0.00038773 0.0024357)
(-0.0011185 -0.00011882 0.0032758)
(-0.0011186 0.00011913 0.0032764)
(0.014068 0.011584 -0.00070982)
(0.021888 0.013311 0.00075195)
(0.021942 0.01176 0.0011671)
(0.021189 0.015721 0.000154)
(0.0018214 0.008925 -0.0013421)
(0.0081997 0.011079 0.00042049)
(0.0082585 0.0093783 0.00043978)
(0.0074445 0.013061 -0.00025803)
(-0.0074926 0.0062872 -0.0019341)
(-0.0028733 0.0086089 6.4273e-05)
(-0.0027962 0.006786 -0.00023177)
(-0.0035978 0.010126 -0.00057846)
(-0.01352 0.0039921 -0.0023029)
(-0.010953 0.0063113 -0.0003293)
(-0.010842 0.0043953 -0.0008212)
(-0.011497 0.0072488 -0.00086224)
(-0.017604 0.0019505 -0.0022457)
(-0.016029 0.0041195 -0.00061255)
(-0.015853 0.0023124 -0.0011219)
(-0.016361 0.0049128 -0.00053603)
(-0.018953 -5.2533e-05 -0.001693)
(-0.018706 0.0018962 -0.00076751)
(-0.018474 0.00035796 -0.0010635)
(-0.018869 0.0023559 -0.00032211)
(-0.017352 -0.0016879 -0.0012028)
(-0.018658 -0.00068323 -0.00071118)
(-0.01852 -0.0013239 -0.00083031)
(-0.01872 -0.00069691 -0.00038022)
(-0.014128 -0.0026951 -0.001059)
(-0.016208 -0.0020687 -0.00073698)
(-0.016158 -0.0024812 -0.00092425)
(-0.016182 -0.0024524 -0.00041581)
(-0.010009 -0.0030548 -0.00086053)
(-0.012596 -0.0028473 -0.00072591)
(-0.012515 -0.0031333 -0.00091023)
(-0.012358 -0.0034118 -0.00039754)
(-0.0058894 -0.0027252 -0.00054992)
(-0.0086025 -0.0029629 -0.00066954)
(-0.0085001 -0.003121 -0.00074523)
(-0.0081221 -0.0034933 -0.00030603)
(-0.002698 -0.0018552 -0.00019921)
(-0.0049277 -0.0025023 -0.00052002)
(-0.0048251 -0.0025425 -0.00040416)
(-0.0042712 -0.0028803 -0.00013341)
(-0.0021084 -0.0015786 -0.00033284)
(-0.0020156 -0.0015236 -7.8666e-05)
(-0.0013877 -0.0017352 5.1459e-05)
(0.014491 0.010924 8.2895e-07)
(0.022338 0.010471 -0.00087841)
(0.022338 0.010472 0.00088041)
(0.0022851 0.008936 9.9665e-07)
(0.008718 0.0086593 -0.00081148)
(0.0087187 0.0086602 0.00081366)
(-0.0070332 0.0069647 1.3019e-06)
(-0.0023566 0.00666 -0.00077084)
(-0.0023557 0.0066609 0.00077327)
(-0.013222 0.0050788 1.3963e-06)
(-0.010458 0.0048817 -0.00074724)
(-0.010457 0.0048825 0.00074995)
(-0.017313 0.0032007 1.1972e-06)
(-0.015535 0.0030186 -0.00073226)
(-0.015535 0.0030193 0.00073527)
(-0.018598 0.0010527 1.1006e-06)
(-0.018132 0.0014361 -0.00069046)
(-0.018132 0.0014367 0.00069314)
(-0.016914 -0.00081767 6.6205e-07)
(-0.018171 -0.00048986 -0.0004045)
(-0.018171 -0.00048824 0.00040607)
(-0.014036 -0.0018166 1.8551e-07)
(-0.015987 -0.0016641 -0.00028405)
(-0.015987 -0.0016634 0.00028516)
(-0.010191 -0.0022201 4.2157e-07)
(-0.012559 -0.0022175 -0.00020915)
(-0.012558 -0.0022167 0.00021011)
(-0.0062848 -0.0020998 6.7997e-07)
(-0.0087267 -0.0022961 -0.00017124)
(-0.0087263 -0.002295 0.00017234)
(-0.0030827 -0.0015718 5.2939e-07)
(-0.0051771 -0.0019124 -0.00015459)
(-0.0051767 -0.0019114 0.00015598)
(-0.0024384 -0.0012015 -0.0001249)
(-0.0024378 -0.0012006 0.00012561)
(0.015044 0.0084656 -0.0014307)
(0.022716 0.0078388 -0.0028043)
(0.022852 0.0081506 -0.00081353)
(0.0028939 0.0068068 -0.0011591)
(0.0091482 0.0064811 -0.0022941)
(0.0092924 0.006712 -0.00063301)
(-0.006257 0.0051611 -0.00093479)
(-0.0019197 0.0050135 -0.0017793)
(-0.0017783 0.0051275 -0.00045046)
(-0.012704 0.0035258 -0.00077634)
(-0.010008 0.0037071 -0.0013429)
(-0.009866 0.0036661 -0.00028861)
(-0.016566 0.0019468 -0.00073114)
(-0.015071 0.0023038 -0.00091148)
(-0.014928 0.0020584 -0.00015347)
(-0.017929 0.00032056 -0.00066938)
(-0.01766 0.0012358 -0.00063802)
(-0.017451 0.00076474 -0.00013817)
(-0.016564 -0.0011049 -0.00045826)
(-0.017804 -0.00024572 -0.00020799)
(-0.017602 -0.0007136 -0.00018194)
(-0.013815 -0.0018498 -0.0002784)
(-0.015814 -0.0011543 0.00018649)
(-0.015724 -0.0016397 -5.8277e-05)
(-0.010156 -0.0021215 -0.00020889)
(-0.012493 -0.0015379 0.00032589)
(-0.012445 -0.0019994 -1.6636e-05)
(-0.0064317 -0.0019933 -0.00021107)
(-0.0087578 -0.0016196 0.00035714)
(-0.0087365 -0.0020746 -8.1038e-06)
(-0.0033367 -0.001522 -0.00025982)
(-0.0052959 -0.0013301 0.00024235)
(-0.0053069 -0.0017774 -3.5531e-05)
(-0.0026194 -0.000838 8.2028e-05)
(-0.002644 -0.0012186 -8.7016e-05)
(0.015299 0.0058577 -0.0036632)
(0.022835 0.0052281 -0.0052285)
(0.023092 0.0055176 -0.0032019)
(0.003174 0.0046727 -0.0029288)
(0.009284 0.0042931 -0.0042935)
(0.0095618 0.0045155 -0.0026152)
(-0.0059984 0.0035169 -0.0022298)
(-0.0017831 0.0033084 -0.0033091)
(-0.001508 0.0034315 -0.0019924)
(-0.012503 0.0023944 -0.0015688)
(-0.0098709 0.0024379 -0.0024387)
(-0.0095957 0.0024198 -0.0014071)
(-0.016295 0.0014045 -0.0010069)
(-0.014945 0.0015245 -0.0015257)
(-0.014685 0.0013252 -0.0007819)
(-0.017817 0.00046732 -0.00037932)
(-0.017569 0.00088567 -0.00088744)
(-0.01727 0.00051798 -0.00031455)
(-0.016439 -0.00044486 0.00028645)
(-0.017732 -4.0704e-05 3.8977e-05)
(-0.017452 -0.00034236 0.00028082)
(-0.013711 -0.00097962 0.00065323)
(-0.015765 -0.00069235 0.0006906)
(-0.015627 -0.00099503 0.00069579)
(-0.010146 -0.0011542 0.00077354)
(-0.012478 -0.0009421 0.00094038)
(-0.012415 -0.0012212 0.00083545)
(-0.0064936 -0.0010556 0.00071142)
(-0.0087697 -0.00098699 0.00098563)
(-0.0087569 -0.0012537 0.00086121)
(-0.0034509 -0.00072213 0.00050827)
(-0.0053354 -0.00078115 0.00078004)
(-0.0053766 -0.0010443 0.00073637)
(-0.002676 -0.00045032 0.00044911)
(-0.0027501 -0.00066497 0.00051908)
(0.015299 0.003663 -0.0058582)
(0.022716 0.0028044 -0.0078393)
(0.023092 0.0032016 -0.0055178)
(0.0031738 0.0029285 -0.0046734)
(0.0091483 0.0022939 -0.0064821)
(0.0095618 0.0026152 -0.0045158)
(-0.0059984 0.0022293 -0.0035178)
(-0.0019195 0.0017791 -0.0050144)
(-0.0015081 0.0019919 -0.0034323)
(-0.012503 0.001568 -0.0023955)
(-0.010008 0.0013426 -0.0037079)
(-0.0095957 0.0014066 -0.0024207)
(-0.016295 0.0010057 -0.0014062)
(-0.015071 0.0009108 -0.0023053)
(-0.014685 0.00078087 -0.0013265)
(-0.017817 0.00037768 -0.00046949)
(-0.01766 0.0006372 -0.0012379)
(-0.01727 0.00031304 -0.00051977)
(-0.016439 -0.00028807 0.00044275)
(-0.017804 0.00020661 0.00024349)
(-0.017452 -0.00028249 0.00034032)
(-0.013711 -0.00065461 0.0009777)
(-0.015814 -0.00018761 0.0011521)
(-0.015626 -0.00069736 0.00099325)
(-0.010146 -0.00077478 0.0011525)
(-0.012493 -0.00032708 0.0015357)
(-0.012415 -0.00083676 0.0012194)
(-0.0064937 -0.0007125 0.0010543)
(-0.008758 -0.000358 0.0016178)
(-0.008757 -0.00086247 0.0012522)
(-0.0034511 -0.00050935 0.00072095)
(-0.005296 -0.0002431 0.0013286)
(-0.0053766 -0.00073735 0.0010434)
(-0.0026195 -8.2696e-05 0.00083628)
(-0.0027503 -0.0005203 0.00066366)
(0.015043 0.0014313 -0.0084663)
(0.022338 0.00087872 -0.010471)
(0.022852 0.00081384 -0.0081511)
(0.0028941 0.0011595 -0.0068075)
(0.0087181 0.00081167 -0.0086595)
(0.0092925 0.00063292 -0.0067128)
(-0.0062568 0.00093493 -0.0051617)
(-0.0023564 0.00077076 -0.0066602)
(-0.0017779 0.00045053 -0.0051282)
(-0.012703 0.00077624 -0.0035268)
(-0.010458 0.00074692 -0.0048819)
(-0.0098657 0.00028852 -0.0036669)
(-0.016565 0.00073086 -0.0019486)
(-0.015535 0.00073194 -0.0030197)
(-0.014927 0.00015308 -0.0020595)
(-0.017928 0.00066874 -0.00032279)
(-0.018132 0.00069004 -0.001438)
(-0.01745 0.00013761 -0.00076671)
(-0.016565 0.00045755 0.0011028)
(-0.018171 0.00040287 0.00048651)
(-0.017602 0.00018131 0.00071168)
(-0.013815 0.00027774 0.0018476)
(-0.015988 0.0002833 0.0016617)
(-0.015724 5.7647e-05 0.0016376)
(-0.010157 0.00020821 0.0021194)
(-0.012559 0.0002083 0.0022149)
(-0.012445 1.5689e-05 0.0019974)
(-0.006432 0.00021053 0.0019913)
(-0.008727 0.00017038 0.0022938)
(-0.0087368 7.3124e-06 0.0020727)
(-0.0033368 0.00025952 0.00152)
(-0.0051772 0.00015437 0.0019108)
(-0.0053069 3.4878e-05 0.0017757)
(-0.0024387 0.00012465 0.0011996)
(-0.0026441 8.6715e-05 0.0012168)
(0.014492 -1.486e-06 -0.010924)
(0.021888 -0.00075238 -0.01331)
(0.022339 -0.00088134 -0.010472)
(0.002285 -1.6655e-06 -0.008936)
(0.0081998 -0.00042064 -0.011079)
(0.0087189 -0.00081453 -0.0086605)
(-0.0070331 -1.7029e-06 -0.0069644)
(-0.0028734 -6.4908e-05 -0.0086081)
(-0.0023558 -0.00077384 -0.0066612)
(-0.013222 -1.7084e-06 -0.005079)
(-0.010952 0.00032864 -0.0063104)
(-0.010457 -0.00075046 -0.0048829)
(-0.017313 -1.8099e-06 -0.003202)
(-0.016028 0.00061248 -0.00412)
(-0.015534 -0.00073588 -0.0030207)
(-0.018598 -1.6103e-06 -0.0010548)
(-0.018705 0.00076712 -0.0018985)
(-0.018131 -0.00069394 -0.0014389)
(-0.016913 -1.1623e-06 0.00081521)
(-0.018657 0.00071127 0.00068128)
(-0.018171 -0.00040674 0.00048602)
(-0.014036 -1.0859e-06 0.0018138)
(-0.016208 0.00073636 0.0020663)
(-0.015987 -0.0002865 0.001661)
(-0.010191 -1.2603e-06 0.0022176)
(-0.012596 0.00072536 0.0028446)
(-0.012558 -0.00021125 0.0022141)
(-0.0062851 -1.1268e-06 0.0020981)
(-0.0086031 0.00066906 0.0029607)
(-0.0087266 -0.00017318 0.0022931)
(-0.0030834 -7.4979e-07 0.0015702)
(-0.004928 0.00051987 0.0025009)
(-0.0051769 -0.00015647 0.0019101)
(-0.0021087 0.00033336 0.0015762)
(-0.0024384 -0.0001262 0.0011989)
(0.014069 0.00070902 -0.011583)
(0.021942 -0.0011683 -0.01176)
(0.021189 -0.00015479 -0.01572)
(0.0018213 0.0013414 -0.0089246)
(0.0082585 -0.00043999 -0.0093781)
(0.0074448 0.00025898 -0.01306)
(-0.0074925 0.0019325 -0.0062864)
(-0.0027959 0.0002305 -0.0067859)
(-0.0035977 0.00057861 -0.010124)
(-0.01352 0.0023018 -0.0039922)
(-0.010841 0.00081964 -0.0043947)
(-0.011497 0.0008623 -0.007247)
(-0.017603 0.0022452 -0.0019527)
(-0.015851 0.0011202 -0.0023129)
(-0.016359 0.00053782 -0.0049116)
(-0.018953 0.0016923 4.9526e-05)
(-0.018473 0.0010628 -0.00036083)
(-0.018868 0.00032162 -0.0023589)
(-0.017352 0.0012018 0.0016851)
(-0.01852 0.00082907 0.0013213)
(-0.01872 0.00038002 0.00069518)
(-0.014128 0.0010579 0.002692)
(-0.016158 0.00092273 0.0024785)
(-0.016182 0.00041518 0.0024503)
(-0.010009 0.00085953 0.0030516)
(-0.012516 0.00090918 0.0031307)
(-0.012358 0.00039703 0.0034097)
(-0.0058904 0.00054911 0.0027228)
(-0.0085009 0.00074414 0.0031183)
(-0.008123 0.00030559 0.0034912)
(-0.0026984 0.00019936 0.0018525)
(-0.0048252 0.00040362 0.0025407)
(-0.0042717 0.00013345 0.0028793)
(-0.002016 7.8981e-05 0.0015209)
(-0.001388 -5.0914e-05 0.0017323)
(0.014601 0.0098078 0.0020618)
(0.022398 0.010666 0.0026418)
(0.022314 0.0091951 0.0037053)
(0.021745 0.013028 0.00412)
(0.0024176 0.0075985 0.0011898)
(0.0087818 0.0088569 0.0020993)
(0.0086858 0.0073015 0.0026186)
(0.0080699 0.010773 0.0032153)
(-0.0067884 0.0053947 0.00038036)
(-0.0022754 0.006846 0.0015469)
(-0.0023581 0.0052641 0.0015243)
(-0.0029562 0.0082968 0.0023163)
(-0.012947 0.0033472 -0.00027106)
(-0.010345 0.0049884 0.0010472)
(-0.010409 0.0034326 0.00053514)
(-0.010922 0.0059053 0.0014856)
(-0.016845 0.0014286 -0.00064742)
(-0.015358 0.0030252 0.00059947)
(-0.015381 0.0017225 -0.0002376)
(-0.015807 0.0036518 0.00082302)
(-0.018122 -0.00042814 -0.0006852)
(-0.017901 0.0012183 0.00035337)
(-0.017923 0.00029349 -0.00075895)
(-0.018222 0.0015369 0.00042656)
(-0.016789 -0.0019071 -0.00076109)
(-0.018034 -0.00092964 2.8313e-05)
(-0.018095 -0.0011432 -0.00092416)
(-0.018247 -0.0011113 -0.00030962)
(-0.013887 -0.0027471 -0.00094726)
(-0.015937 -0.0019947 -0.00024265)
(-0.015956 -0.0020826 -0.0012904)
(-0.015988 -0.0024444 -0.00075872)
(-0.0099889 -0.0030434 -0.00095078)
(-0.012477 -0.0025623 -0.00038612)
(-0.01242 -0.0025523 -0.0014249)
(-0.01231 -0.0032003 -0.00097761)
(-0.0060597 -0.0027976 -0.0007401)
(-0.0086236 -0.0026648 -0.00041824)
(-0.0085018 -0.0025404 -0.0013361)
(-0.0082279 -0.0032659 -0.00099087)
(-0.0028849 -0.0021042 -0.00039047)
(-0.0050735 -0.0023113 -0.00029701)
(-0.0049175 -0.0020682 -0.00095825)
(-0.0044996 -0.0027474 -0.00072849)
(-0.0023446 -0.0016075 -0.00012756)
(-0.0021778 -0.0012772 -0.00049912)
(-0.0016897 -0.0018141 -0.0003953)
(0.015045 0.008468 0.001433)
(0.022853 0.0081519 0.00081558)
(0.022717 0.0078406 0.0028062)
(0.0028958 0.0068088 0.0011615)
(0.0092931 0.0067136 0.00063516)
(0.0091493 0.006483 0.0022961)
(-0.0062555 0.0051629 0.00093735)
(-0.0017774 0.0051283 0.00045271)
(-0.0019185 0.0050148 0.0017816)
(-0.012703 0.0035276 0.00077917)
(-0.0098655 0.0036669 0.00029124)
(-0.010007 0.0037083 0.0013456)
(-0.016565 0.0019485 0.00073403)
(-0.014927 0.0020592 0.00015651)
(-0.01507 0.0023051 0.00091434)
(-0.017927 0.00032217 0.00067206)
(-0.01745 0.00076561 0.00014104)
(-0.017659 0.0012373 0.00064055)
(-0.016565 -0.0011034 0.00046043)
(-0.017602 -0.00071289 0.00018504)
(-0.017804 -0.00024471 0.00021014)
(-0.013814 -0.0018482 0.00028006)
(-0.015724 -0.001638 6.1154e-05)
(-0.015814 -0.0011531 -0.00018534)
(-0.010156 -0.0021198 0.00021031)
(-0.012444 -0.0019985 1.8519e-05)
(-0.012492 -0.0015368 -0.00032469)
(-0.006431 -0.0019912 0.00021222)
(-0.0087362 -0.0020737 9.571e-06)
(-0.0087575 -0.0016183 -0.00035589)
(-0.0033356 -0.0015199 0.00026069)
(-0.0053064 -0.0017762 3.6654e-05)
(-0.0052954 -0.0013284 -0.00024133)
(-0.0026434 -0.0012176 8.8111e-05)
(-0.0026186 -0.00083676 -8.1565e-05)
(0.015582 0.0063798 7.2984e-07)
(0.023228 0.0057051 -0.0011693)
(0.023228 0.0057051 0.001171)
(0.0034621 0.0051071 8.5118e-07)
(0.0097058 0.0046966 -0.00097346)
(0.0097059 0.0046965 0.00097507)
(-0.0057261 0.0038268 1.2335e-06)
(-0.0013666 0.0036016 -0.00076493)
(-0.0013666 0.0036019 0.00076704)
(-0.012254 0.0025314 1.4551e-06)
(-0.0094538 0.0025766 -0.00056625)
(-0.0094537 0.0025768 0.00056878)
(-0.015926 0.0013144 1.5648e-06)
(-0.014542 0.0014664 -0.00034575)
(-0.014542 0.0014667 0.00034863)
(-0.017271 7.8399e-05 1.6592e-06)
(-0.017061 0.00063206 -0.00012662)
(-0.017061 0.0006324 0.00012924)
(-0.016213 -0.0010316 1.3889e-06)
(-0.01725 -0.00043323 0.00022049)
(-0.01725 -0.00043287 -0.00021749)
(-0.013491 -0.0015868 1.0132e-06)
(-0.015537 -0.0011262 0.00036007)
(-0.015537 -0.0011261 -0.00035805)
(-0.010054 -0.0017693 8.9183e-07)
(-0.012368 -0.0013605 0.00040506)
(-0.012368 -0.00136 -0.00040353)
(-0.0064896 -0.0016921 6.6705e-07)
(-0.0087359 -0.0014134 0.00041288)
(-0.0087358 -0.0014131 -0.00041166)
(-0.0035002 -0.0013375 5.7116e-07)
(-0.0053877 -0.0012213 0.00037395)
(-0.0053876 -0.0012213 -0.00037299)
(-0.0027748 -0.00083698 0.00029114)
(-0.0027749 -0.00083671 -0.00029028)
(0.015838 0.004093 -0.0020717)
(0.023349 0.0033804 -0.0033807)
(0.023473 0.0033074 -0.0011047)
(0.003734 0.0032626 -0.0016673)
(0.0098395 0.0027845 -0.0027847)
(0.0099731 0.0027072 -0.00090751)
(-0.0054681 0.0024241 -0.0012595)
(-0.001233 0.0021453 -0.002146)
(-0.0010984 0.0020651 -0.00070086)
(-0.012013 0.0015777 -0.00084733)
(-0.0093205 0.0015378 -0.0015385)
(-0.0091872 0.0014403 -0.00049379)
(-0.015611 0.00080363 -0.0004545)
(-0.014426 0.0008864 -0.00088756)
(-0.014308 0.00079495 -0.00028939)
(-0.017108 4.1234e-05 1.2683e-05)
(-0.01697 0.00037038 -0.00037188)
(-0.016875 0.00031778 -0.00013023)
(-0.016134 -0.00065451 0.0004522)
(-0.017172 -0.00034335 0.00034198)
(-0.017086 -0.00017323 8.0698e-05)
(-0.013392 -0.0010112 0.00065268)
(-0.015488 -0.00076495 0.0007633)
(-0.015432 -0.00058016 0.00023959)
(-0.010029 -0.0011096 0.00071204)
(-0.012353 -0.00090057 0.00089898)
(-0.012338 -0.00071126 0.00029209)
(-0.0065298 -0.0010425 0.0006862)
(-0.0087444 -0.00092256 0.00092107)
(-0.008753 -0.00071717 0.00030774)
(-0.0035855 -0.00081269 0.00057266)
(-0.0054179 -0.00080744 0.00080637)
(-0.0054456 -0.00059711 0.00027094)
(-0.0028245 -0.00057902 0.00057783)
(-0.0028688 -0.00037328 0.000199)
(0.015838 0.0020717 -0.0040932)
(0.023228 0.0011691 -0.0057055)
(0.023473 0.0011045 -0.0033075)
(0.0037339 0.0016671 -0.003263)
(0.0097059 0.00097347 -0.004697)
(0.0099732 0.00090768 -0.0027073)
(-0.0054682 0.0012589 -0.0024249)
(-0.0013664 0.00076453 -0.0036023)
(-0.0010984 0.00070047 -0.0020657)
(-0.012013 0.00084646 -0.0015787)
(-0.0094536 0.00056575 -0.0025775)
(-0.0091872 0.00049334 -0.001441)
(-0.015611 0.00045317 -0.00080507)
(-0.014542 0.00034482 -0.0014676)
(-0.014308 0.00028842 -0.0007961)
(-0.017108 -1.4208e-05 -4.2913e-05)
(-0.017061 0.00012549 -0.00063381)
(-0.016875 0.00012895 -0.0003192)
(-0.016134 -0.0004538 0.00065276)
(-0.01725 -0.00022143 0.00043144)
(-0.017086 -8.1979e-05 0.00017164)
(-0.013392 -0.00065418 0.0010095)
(-0.015537 -0.00036135 0.0011244)
(-0.015432 -0.00024092 0.00057865)
(-0.010029 -0.0007134 0.0011081)
(-0.012368 -0.00040638 0.0013586)
(-0.012338 -0.00029317 0.0007098)
(-0.0065298 -0.00068738 0.0010414)
(-0.008736 -0.00041406 0.0014118)
(-0.008753 -0.00030886 0.00071592)
(-0.0035857 -0.00057377 0.00081161)
(-0.0053877 -0.00037487 0.0012199)