/*--------------------------------*- C++ -*----------------------------------*\
| =========                 |                                                 |
| \\      /  F ield         | OpenFOAM: The Open Source CFD Toolbox           |
|  \\    /   O peration     | Version:  4.1                                   |
|   \\  /    A nd           | Web:      www.OpenFOAM.org                      |
|    \\/     M anipulation  |                                                 |
\*---------------------------------------------------------------------------*/
FoamFile
{
    version     2.0;
    format      ascii;
    class       pointVectorField;
    location    "0.0081";
    object      pointDisplacement_Next;
}
// * * * * * * * * * * * * * * * * * * * * * * * * * * * * * * * * * * * * * //

dimensions      [0 1 0 0 0 0 0];

internalField   uniform (0 0 0);

boundaryField
{
    inlet
    {
        type            fixedValue;
        value           uniform (0 0 0);
    }
    outlet
    {
        type            fixedValue;
        value           nonuniform 0();
    }
    mantle
    {
        type            fixedValue;
        value           nonuniform List<vector> 
416
(
(4.006e-12 -2.073e-12 1.2105e-16)
(1.0035e-05 -5.0393e-06 2.9128e-10)
(9.8893e-06 -4.6093e-06 7.2072e-07)
(1.6456e-08 -4.1487e-08 -3.3412e-08)
(9.746e-06 -3.9768e-06 1.6476e-06)
(4.8592e-12 -3.9045e-12 1.4728e-12)
(9.8912e-06 -3.7658e-06 2.7482e-06)
(1.6532e-08 -5.4882e-09 5.2956e-08)
(1.0038e-05 -3.5601e-06 3.5601e-06)
(2.706e-12 7.8363e-13 -7.8366e-13)
(9.8912e-06 -2.7483e-06 3.7659e-06)
(1.6533e-08 -5.2958e-08 5.4858e-09)
(9.746e-06 -1.6477e-06 3.9771e-06)
(4.8592e-12 -1.4728e-12 3.9046e-12)
(9.8893e-06 -7.2086e-07 4.6097e-06)
(1.6455e-08 3.341e-08 4.1493e-08)
(1.0035e-05 -4.1123e-10 5.0398e-06)
(4.006e-12 -1.531e-16 2.0732e-12)
(1.7586e-05 -6.2908e-06 4.9135e-10)
(1.7255e-05 -5.4612e-06 7.9334e-07)
(1.7001e-05 -4.5343e-06 1.8792e-06)
(1.7259e-05 -4.4158e-06 3.2978e-06)
(1.7591e-05 -4.4408e-06 4.4407e-06)
(1.7259e-05 -3.298e-06 4.4159e-06)
(1.7001e-05 -1.8795e-06 4.5348e-06)
(1.7255e-05 -7.9366e-07 5.4619e-06)
(1.7586e-05 -7.6306e-10 6.2916e-06)
(2.1248e-05 -1.7338e-06 5.5743e-10)
(2.1105e-05 -1.4514e-06 1.3068e-07)
(2.0972e-05 -1.0732e-06 4.4632e-07)
(2.1111e-05 -1.1067e-06 9.287e-07)
(2.1257e-05 -1.2132e-06 1.2131e-06)
(2.1111e-05 -9.2907e-07 1.1069e-06)
(2.0972e-05 -4.468e-07 1.0737e-06)
(2.1105e-05 -1.3116e-07 1.4521e-06)
(2.1249e-05 -9.5662e-10 1.7345e-06)
(2.3183e-05 3.3653e-06 5.5195e-10)
(2.3231e-05 3.1012e-06 -6.2352e-07)
(2.3215e-05 2.9073e-06 -1.2028e-06)
(2.3239e-05 2.6551e-06 -1.7642e-06)
(2.3194e-05 2.4037e-06 -2.404e-06)
(2.3239e-05 1.7637e-06 -2.6551e-06)
(2.3215e-05 1.2022e-06 -2.9071e-06)
(2.3231e-05 6.2295e-07 -3.1008e-06)
(2.3184e-05 -1.063e-09 -3.3649e-06)
(2.5956e-05 3.8565e-06 5.4223e-10)
(2.5942e-05 3.8005e-06 -7.8715e-07)
(2.592e-05 3.6408e-06 -1.5099e-06)
(2.5952e-05 3.2819e-06 -2.1568e-06)
(2.5971e-05 2.7731e-06 -2.7734e-06)
(2.5952e-05 2.1563e-06 -3.2822e-06)
(2.592e-05 1.5093e-06 -3.6409e-06)
(2.5942e-05 7.8653e-07 -3.8006e-06)
(2.5957e-05 -1.16e-09 -3.8567e-06)
(2.9579e-05 1.3492e-06 5.1336e-10)
(2.9485e-05 1.6045e-06 -4.1565e-07)
(2.9413e-05 1.7534e-06 -7.2557e-07)
(2.9496e-05 1.4902e-06 -8.8104e-07)
(2.9596e-05 1.0283e-06 -1.0288e-06)
(2.9496e-05 8.8053e-07 -1.4907e-06)
(2.9413e-05 7.2498e-07 -1.7539e-06)
(2.9485e-05 4.15e-07 -1.6051e-06)
(2.958e-05 -1.2334e-09 -1.3499e-06)
(3.3229e-05 -8.2078e-07 4.278e-10)
(3.3183e-05 -6.4683e-07 5.3082e-08)
(3.3142e-05 -4.1912e-07 1.8189e-07)
(3.3191e-05 -4.0931e-07 3.727e-07)
(3.3241e-05 -4.8052e-07 4.7994e-07)
(3.3191e-05 -3.7325e-07 4.0866e-07)
(3.3142e-05 -1.8248e-07 4.1837e-07)
(3.3184e-05 -5.3759e-08 6.4597e-07)
(3.3229e-05 -1.2347e-09 8.1982e-07)
(3.6874e-05 -2.0054e-06 3.2108e-10)
(3.6877e-05 -1.9438e-06 3.724e-07)
(3.6874e-05 -1.7603e-06 7.4328e-07)
(3.6875e-05 -1.5424e-06 1.063e-06)
(3.6873e-05 -1.3064e-06 1.3057e-06)
(3.6876e-05 -1.0636e-06 1.5416e-06)
(3.6874e-05 -7.4389e-07 1.7594e-06)
(3.6877e-05 -3.731e-07 1.9428e-06)
(3.6874e-05 -1.172e-09 2.0044e-06)
(4.0712e-05 -2.309e-06 7.9148e-10)
(4.0712e-05 -2.2452e-06 4.3953e-07)
(4.0711e-05 -2.0697e-06 8.6035e-07)
(4.0697e-05 -1.8269e-06 1.2308e-06)
(4.069e-05 -1.5456e-06 1.5441e-06)
(4.0697e-05 -1.2315e-06 1.8261e-06)
(4.0711e-05 -8.6098e-07 2.0687e-06)
(4.0713e-05 -4.4024e-07 2.2441e-06)
(4.0712e-05 -1.6186e-09 2.308e-06)
(4.469e-05 -1.3517e-06 1.7265e-10)
(4.4682e-05 -1.2902e-06 2.5128e-07)
(4.4655e-05 -1.1778e-06 4.7782e-07)
(4.4656e-05 -1.0642e-06 6.9967e-07)
(4.4647e-05 -9.1124e-07 9.1053e-07)
(4.4656e-05 -7.0031e-07 1.0634e-06)
(4.4655e-05 -4.7847e-07 1.1769e-06)
(4.4682e-05 -2.5199e-07 1.2893e-06)
(4.469e-05 -9.485e-10 1.3508e-06)
(4.8689e-05 1.1783e-06 5.3272e-11)
(4.8663e-05 1.1517e-06 -2.3249e-07)
(4.863e-05 1.0695e-06 -4.5759e-07)
(4.8626e-05 9.5678e-07 -6.5793e-07)
(4.8636e-05 8.1919e-07 -8.1997e-07)
(4.8626e-05 6.5728e-07 -9.5754e-07)
(4.863e-05 4.5693e-07 -1.0703e-06)
(4.8663e-05 2.318e-07 -1.1525e-06)
(4.8689e-05 -7.7525e-10 -1.1791e-06)
(5.2596e-05 5.0012e-06 6.921e-11)
(5.2563e-05 4.8593e-06 -9.542e-07)
(5.2522e-05 4.4919e-06 -1.8684e-06)
(5.2518e-05 4.0269e-06 -2.7153e-06)
(5.2533e-05 3.4407e-06 -3.4413e-06)
(5.2518e-05 2.7147e-06 -4.0275e-06)
(5.2522e-05 1.8677e-06 -4.4926e-06)
(5.2563e-05 9.5354e-07 -4.8599e-06)
(5.2596e-05 -7.2108e-10 -5.0018e-06)
(9.8894e-06 7.2007e-07 4.6097e-06)
(1.6453e-08 -3.3414e-08 4.1493e-08)
(9.7461e-06 1.647e-06 3.9771e-06)
(4.8593e-12 1.4726e-12 3.9046e-12)
(9.8914e-06 2.7477e-06 3.766e-06)
(1.6536e-08 5.296e-08 5.4869e-09)
(1.0038e-05 3.5595e-06 3.5601e-06)
(2.706e-12 -7.8397e-13 -7.8366e-13)
(9.8915e-06 3.7653e-06 2.7483e-06)
(1.6534e-08 5.4848e-09 5.2958e-08)
(9.7462e-06 3.9764e-06 1.6475e-06)
(4.8594e-12 3.9044e-12 1.4728e-12)
(9.8895e-06 4.6091e-06 7.2063e-07)
(1.6457e-08 4.1489e-08 -3.3412e-08)
(1.0035e-05 5.0391e-06 1.4067e-10)
(4.0061e-12 2.073e-12 6.2248e-17)
(1.7255e-05 7.9221e-07 5.4619e-06)
(1.7002e-05 1.8782e-06 4.5348e-06)
(1.7259e-05 3.2967e-06 4.4159e-06)
(1.7592e-05 4.4396e-06 4.4407e-06)
(1.7259e-05 4.4147e-06 3.2977e-06)
(1.7002e-05 4.5335e-06 1.8791e-06)
(1.7255e-05 5.4607e-06 7.9317e-07)
(1.7586e-05 6.2904e-06 2.0887e-10)
(2.1105e-05 1.2929e-07 1.4521e-06)
(2.0972e-05 4.4502e-07 1.0736e-06)
(2.1111e-05 9.2735e-07 1.1067e-06)
(2.1257e-05 1.2115e-06 1.2129e-06)
(2.1111e-05 1.1052e-06 9.2852e-07)
(2.0972e-05 1.0719e-06 4.4613e-07)
(2.1105e-05 1.4504e-06 1.3043e-07)
(2.1249e-05 1.7331e-06 1.8211e-10)
(2.3231e-05 -6.2504e-07 -3.1009e-06)
(2.3215e-05 -1.2043e-06 -2.9072e-06)
(2.3239e-05 -1.7657e-06 -2.6553e-06)
(2.3194e-05 -2.4057e-06 -2.4043e-06)
(2.3239e-05 -2.657e-06 -1.7645e-06)
(2.3215e-05 -2.909e-06 -1.2031e-06)
(2.3231e-05 -3.1027e-06 -6.2386e-07)
(2.3183e-05 -3.3664e-06 1.0667e-10)
(2.5942e-05 -7.8882e-07 -3.8006e-06)
(2.592e-05 -1.5115e-06 -3.641e-06)
(2.5952e-05 -2.1585e-06 -3.2824e-06)
(2.5971e-05 -2.7753e-06 -2.7738e-06)
(2.5952e-05 -3.2841e-06 -2.1572e-06)
(2.592e-05 -3.6429e-06 -1.5103e-06)
(2.5942e-05 -3.8024e-06 -7.8759e-07)
(2.5956e-05 -3.8581e-06 3.4304e-11)
(2.9485e-05 -4.1741e-07 -1.605e-06)
(2.9413e-05 -7.2728e-07 -1.7538e-06)
(2.9496e-05 -8.8274e-07 -1.4907e-06)
(2.9595e-05 -1.0305e-06 -1.029e-06)
(2.9496e-05 -1.4925e-06 -8.814e-07)
(2.9412e-05 -1.7557e-06 -7.2603e-07)
(2.9485e-05 -1.6067e-06 -4.1615e-07)
(2.9579e-05 -1.3511e-06 -1.7351e-11)
(3.3183e-05 5.1365e-08 6.4621e-07)
(3.3141e-05 1.8026e-07 4.1872e-07)
(3.3191e-05 3.7119e-07 4.0894e-07)
(3.324e-05 4.785e-07 4.7999e-07)
(3.3191e-05 4.0721e-07 3.7248e-07)
(3.3141e-05 4.1688e-07 1.8147e-07)
(3.3183e-05 6.4453e-07 5.2584e-08)
(3.3229e-05 8.186e-07 -5.9007e-11)
(3.6877e-05 3.7085e-07 1.9431e-06)
(3.6874e-05 7.4186e-07 1.76e-06)
(3.6875e-05 1.0618e-06 1.5422e-06)
(3.6873e-05 1.3047e-06 1.306e-06)
(3.6875e-05 1.5406e-06 1.0629e-06)
(3.6874e-05 1.7582e-06 7.4296e-07)
(3.6876e-05 1.9415e-06 3.7197e-07)
(3.6874e-05 2.0031e-06 -7.323e-11)
(4.0712e-05 4.3821e-07 2.2446e-06)
(4.071e-05 8.5922e-07 2.0695e-06)
(4.0696e-05 1.23e-06 1.8269e-06)
(4.0689e-05 1.5442e-06 1.5447e-06)
(4.0696e-05 1.8254e-06 1.231e-06)
(4.071e-05 2.0679e-06 8.6023e-07)
(4.0712e-05 2.243e-06 4.3924e-07)
(4.0712e-05 2.3068e-06 5.0127e-10)
(4.4682e-05 2.502e-07 1.2897e-06)
(4.4655e-05 4.7696e-07 1.1777e-06)
(4.4656e-05 6.991e-07 1.0643e-06)
(4.4647e-05 9.1018e-07 9.1129e-07)
(4.4656e-05 1.063e-06 7.0009e-07)
(4.4655e-05 1.1763e-06 4.7791e-07)
(4.4681e-05 1.2884e-06 2.5116e-07)
(4.469e-05 1.3496e-06 -5.4426e-12)
(4.8663e-05 -2.3336e-07 -1.152e-06)
(4.8629e-05 -4.5822e-07 -1.0694e-06)
(4.8626e-05 -6.5826e-07 -9.5654e-07)
(4.8636e-05 -8.1998e-07 -8.1909e-07)
(4.8625e-05 -9.5763e-07 -6.5733e-07)
(4.8629e-05 -1.0706e-06 -4.5732e-07)
(4.8663e-05 -1.1531e-06 -2.3245e-07)
(4.8689e-05 -1.1801e-06 1.1449e-10)
(5.2563e-05 -9.5488e-07 -4.8593e-06)
(5.2522e-05 -1.8688e-06 -4.4916e-06)
(5.2518e-05 -2.7155e-06 -4.0264e-06)
(5.2533e-05 -3.4412e-06 -3.4403e-06)
(5.2518e-05 -4.0273e-06 -2.7146e-06)
(5.2522e-05 -4.4925e-06 -1.8679e-06)
(5.2563e-05 -4.8601e-06 -9.5401e-07)
(5.2596e-05 -5.0025e-06 1.348e-10)
(9.8895e-06 4.6092e-06 -7.2037e-07)
(1.6457e-08 4.1493e-08 3.3415e-08)
(9.7461e-06 3.9767e-06 -1.6473e-06)
(4.8594e-12 3.9043e-12 -1.4726e-12)
(9.8913e-06 3.7656e-06 -2.7481e-06)
(1.6532e-08 5.4871e-09 -5.2958e-08)
(1.0038e-05 3.5597e-06 -3.5599e-06)
(2.7058e-12 -7.8348e-13 7.8347e-13)
(9.8912e-06 2.7479e-06 -3.7658e-06)
(1.6533e-08 5.2957e-08 -5.489e-09)
(9.7459e-06 1.6472e-06 -3.9768e-06)
(4.8593e-12 1.4725e-12 -3.9042e-12)
(9.8893e-06 7.2024e-07 -4.6094e-06)
(1.6455e-08 -3.3414e-08 -4.1489e-08)
(1.0035e-05 -2.5094e-10 -5.0393e-06)
(4.006e-12 -9.1933e-17 -2.073e-12)
(1.7255e-05 5.461e-06 -7.9282e-07)
(1.7001e-05 4.5341e-06 -1.8789e-06)
(1.7258e-05 4.4154e-06 -3.2976e-06)
(1.7591e-05 4.4403e-06 -4.4407e-06)
(1.7258e-05 3.2973e-06 -4.4159e-06)
(1.7001e-05 1.8786e-06 -4.5346e-06)
(1.7254e-05 7.9254e-07 -5.4615e-06)
(1.7585e-05 -4.6233e-10 -6.2909e-06)
(2.1105e-05 1.451e-06 -1.3017e-07)
(2.0972e-05 1.073e-06 -4.4612e-07)
(2.1111e-05 1.1064e-06 -9.2876e-07)
(2.1256e-05 1.2127e-06 -1.2133e-06)
(2.1111e-05 9.2824e-07 -1.1071e-06)
(2.0971e-05 4.4566e-07 -1.0738e-06)
(2.1105e-05 1.2978e-07 -1.4519e-06)
(2.1248e-05 -5.6259e-10 -1.7341e-06)
(2.3231e-05 -3.1018e-06 6.2393e-07)
(2.3215e-05 -2.9076e-06 1.2029e-06)
(2.3238e-05 -2.6553e-06 1.7638e-06)
(2.3194e-05 -2.4041e-06 2.4034e-06)
(2.3238e-05 -1.7645e-06 2.6544e-06)
(2.3215e-05 -1.2034e-06 2.9064e-06)
(2.3231e-05 -6.2441e-07 3.1004e-06)
(2.3183e-05 -6.0196e-10 3.3648e-06)
(2.5942e-05 -3.8014e-06 7.8749e-07)
(2.592e-05 -3.6412e-06 1.5098e-06)
(2.5951e-05 -3.2821e-06 2.1562e-06)
(2.597e-05 -2.7733e-06 2.7725e-06)
(2.5951e-05 -2.1569e-06 3.281e-06)
(2.5919e-05 -1.5104e-06 3.6397e-06)
(2.5942e-05 -7.8803e-07 3.7996e-06)
(2.5956e-05 -6.4686e-10 3.8559e-06)
(2.9485e-05 -1.6058e-06 4.1596e-07)
(2.9412e-05 -1.754e-06 7.2545e-07)
(2.9496e-05 -1.4904e-06 8.8037e-07)
(2.9595e-05 -1.0285e-06 1.0276e-06)
(2.9496e-05 -8.8107e-07 1.4892e-06)
(2.9412e-05 -7.2603e-07 1.7523e-06)
(2.9485e-05 -4.1655e-07 1.6037e-06)
(2.9579e-05 -7.0305e-10 1.3487e-06)
(3.3183e-05 6.4536e-07 -5.2824e-08)
(3.3141e-05 4.1834e-07 -1.8202e-07)
(3.3191e-05 4.0897e-07 -3.7342e-07)
(3.324e-05 4.8025e-07 -4.8126e-07)
(3.3191e-05 3.7269e-07 -4.1037e-07)
(3.3142e-05 1.8141e-07 -4.2017e-07)
(3.3183e-05 5.2175e-08 -6.4757e-07)
(3.3229e-05 -7.4719e-10 -8.2105e-07)
(3.6876e-05 1.9421e-06 -3.722e-07)
(3.6874e-05 1.7593e-06 -7.4339e-07)
(3.6875e-05 1.5419e-06 -1.0636e-06)
(3.6873e-05 1.3059e-06 -1.307e-06)
(3.6875e-05 1.0629e-06 -1.5433e-06)
(3.6874e-05 7.4277e-07 -1.7612e-06)
(3.6877e-05 3.7152e-07 -1.9443e-06)
(3.6874e-05 -7.7099e-10 -2.0055e-06)
(4.0712e-05 2.2434e-06 -4.3938e-07)
(4.0711e-05 2.0685e-06 -8.6047e-07)
(4.0697e-05 1.8262e-06 -1.2314e-06)
(4.069e-05 1.545e-06 -1.5453e-06)
(4.0697e-05 1.2307e-06 -1.8276e-06)
(4.0711e-05 8.5985e-07 -2.0703e-06)
(4.0712e-05 4.3871e-07 -2.2455e-06)
(4.0712e-05 -1.3183e-09 -2.309e-06)
(4.4682e-05 1.2885e-06 -2.5117e-07)
(4.4655e-05 1.1765e-06 -4.7793e-07)
(4.4656e-05 1.0633e-06 -7.0013e-07)
(4.4647e-05 9.1048e-07 -9.114e-07)
(4.4656e-05 6.9946e-07 -1.0646e-06)
(4.4655e-05 4.7734e-07 -1.1782e-06)
(4.4682e-05 2.5054e-07 -1.2905e-06)
(4.469e-05 -7.5895e-10 -1.3517e-06)
(4.8663e-05 -1.1532e-06 2.3259e-07)
(4.863e-05 -1.0708e-06 4.5753e-07)
(4.8626e-05 -9.5782e-07 6.5762e-07)
(4.8636e-05 -8.2008e-07 8.1937e-07)
(4.8626e-05 -6.5822e-07 9.5666e-07)
(4.863e-05 -4.5806e-07 1.0692e-06)
(4.8663e-05 -2.3319e-07 1.1515e-06)
(4.8689e-05 -7.1644e-10 1.1783e-06)
(5.2563e-05 -4.8604e-06 9.5432e-07)
(5.2522e-05 -4.493e-06 1.8684e-06)
(5.2519e-05 -4.0279e-06 2.7152e-06)
(5.2534e-05 -3.4416e-06 3.4409e-06)
(5.2519e-05 -2.7157e-06 4.0269e-06)
(5.2523e-05 -1.8689e-06 4.4918e-06)
(5.2563e-05 -9.5487e-07 4.859e-06)
(5.2596e-05 -7.9157e-10 5.001e-06)
(9.8893e-06 -7.2071e-07 -4.6092e-06)
(1.6455e-08 3.3411e-08 -4.1489e-08)
(9.746e-06 -1.6476e-06 -3.9766e-06)
(4.8593e-12 -1.4727e-12 -3.9043e-12)
(9.8912e-06 -2.7482e-06 -3.7654e-06)
(1.6534e-08 -5.2957e-08 -5.4855e-09)
(1.0038e-05 -3.56e-06 -3.5595e-06)
(2.7059e-12 7.8351e-13 7.8384e-13)
(9.8912e-06 -3.7658e-06 -2.7477e-06)
(1.6534e-08 -5.4878e-09 -5.2956e-08)
(9.746e-06 -3.9768e-06 -1.647e-06)
(4.8593e-12 -3.9044e-12 -1.4726e-12)
(9.8893e-06 -4.6093e-06 -7.2015e-07)
(1.6455e-08 -4.1489e-08 3.3414e-08)
(1.7254e-05 -7.934e-07 -5.4612e-06)
(1.7001e-05 -1.8793e-06 -4.534e-06)
(1.7258e-05 -3.2978e-06 -4.4151e-06)
(1.7591e-05 -4.4407e-06 -4.4399e-06)
(1.7258e-05 -4.4157e-06 -3.2969e-06)
(1.7001e-05 -4.5343e-06 -1.8783e-06)
(1.7255e-05 -5.4613e-06 -7.924e-07)
(2.1105e-05 -1.3084e-07 -1.4515e-06)
(2.0971e-05 -4.4657e-07 -1.073e-06)
(2.1111e-05 -9.2894e-07 -1.1061e-06)
(2.1256e-05 -1.2132e-06 -1.2123e-06)
(2.1111e-05 -1.1068e-06 -9.2784e-07)
(2.0971e-05 -1.0733e-06 -4.4537e-07)
(2.1105e-05 -1.4515e-06 -1.2962e-07)
(2.3231e-05 6.2325e-07 3.1009e-06)
(2.3215e-05 1.2024e-06 2.9073e-06)
(2.3238e-05 1.7637e-06 2.6555e-06)
(2.3194e-05 2.4035e-06 2.4045e-06)
(2.3238e-05 2.6548e-06 1.7648e-06)
(2.3215e-05 2.907e-06 1.2037e-06)
(2.3231e-05 3.101e-06 6.2455e-07)
(2.5942e-05 7.8679e-07 3.8001e-06)
(2.592e-05 1.5093e-06 3.6407e-06)
(2.5952e-05 2.156e-06 3.2821e-06)
(2.597e-05 2.7726e-06 2.7736e-06)
(2.5951e-05 3.2814e-06 2.1572e-06)
(2.592e-05 3.6403e-06 1.5106e-06)
(2.5942e-05 3.8002e-06 7.8813e-07)
(2.9485e-05 4.1521e-07 1.6042e-06)
(2.9412e-05 7.2486e-07 1.7533e-06)
(2.9496e-05 8.8008e-07 1.4903e-06)
(2.9595e-05 1.0276e-06 1.0287e-06)
(2.9496e-05 1.4895e-06 8.8131e-07)
(2.9412e-05 1.7528e-06 7.2618e-07)
(2.9485e-05 1.6042e-06 4.1655e-07)
(3.3183e-05 -5.3602e-08 -6.4702e-07)
(3.3141e-05 -1.8267e-07 -4.1921e-07)
(3.3191e-05 -3.7378e-07 -4.0925e-07)
(3.324e-05 -4.8128e-07 -4.8022e-07)
(3.3191e-05 -4.1014e-07 -3.7261e-07)
(3.3141e-05 -4.1982e-07 -1.8142e-07)
(3.3183e-05 -6.4723e-07 -5.2331e-08)
(3.6877e-05 -3.73e-07 -1.9438e-06)
(3.6874e-05 -7.4412e-07 -1.7604e-06)
(3.6875e-05 -1.0641e-06 -1.5424e-06)
(3.6873e-05 -1.3071e-06 -1.3061e-06)
(3.6875e-05 -1.5433e-06 -1.063e-06)
(3.6874e-05 -1.761e-06 -7.4298e-07)
(3.6877e-05 -1.9442e-06 -3.7184e-07)
(4.0712e-05 -4.4022e-07 -2.2452e-06)
(4.071e-05 -8.613e-07 -2.0698e-06)
(4.0696e-05 -1.2321e-06 -1.827e-06)
(4.0689e-05 -1.5465e-06 -1.5447e-06)
(4.0696e-05 -1.8278e-06 -1.2311e-06)
(4.071e-05 -2.0704e-06 -8.6023e-07)
(4.0712e-05 -2.2456e-06 -4.3914e-07)
(4.4682e-05 -2.5207e-07 -1.2903e-06)
(4.4655e-05 -4.7889e-07 -1.178e-06)
(4.4656e-05 -7.0105e-07 -1.0644e-06)
(4.4647e-05 -9.1219e-07 -9.1128e-07)
(4.4656e-05 -1.0652e-06 -7.0006e-07)
(4.4655e-05 -1.1786e-06 -4.7786e-07)
(4.4682e-05 -1.2907e-06 -2.5104e-07)
(4.8663e-05 2.3161e-07 1.1514e-06)
(4.863e-05 4.5642e-07 1.0692e-06)
(4.8626e-05 6.5648e-07 9.5652e-07)
(4.8636e-05 8.1822e-07 8.192e-07)
(4.8626e-05 9.5583e-07 6.5746e-07)
(4.863e-05 1.0687e-06 4.5745e-07)
(4.8663e-05 1.1512e-06 2.3261e-07)
(5.2563e-05 9.5325e-07 4.8588e-06)
(5.2522e-05 1.8672e-06 4.4915e-06)
(5.2518e-05 2.7139e-06 4.0265e-06)
(5.2533e-05 3.4397e-06 3.4405e-06)
(5.2518e-05 4.0259e-06 2.7149e-06)
(5.2522e-05 4.4912e-06 1.8682e-06)
(5.2563e-05 4.8589e-06 9.5425e-07)
)
;
    }
    procBoundary0to1
    {
        type            processor;
    }
}


// ************************************************************************* //
