/*--------------------------------*- C++ -*----------------------------------*\
  =========                 |
  \\      /  F ield         | OpenFOAM: The Open Source CFD Toolbox
   \\    /   O peration     | Website:  https://openfoam.org
    \\  /    A nd           | Version:  8
     \\/     M anipulation  |
\*---------------------------------------------------------------------------*/
FoamFile
{
    version     2.0;
    format      ascii;
    class       surfaceScalarField;
    location    "0.0780000";
    object      meshPhi;
}
// * * * * * * * * * * * * * * * * * * * * * * * * * * * * * * * * * * * * * //

dimensions      [0 3 -1 0 0 0 0];

internalField   nonuniform List<scalar> 
1691
(
-5.52906149708539e-19
-5.1707101231688e-14
-1.10720728905517e-18
-5.16845303553381e-14
-1.65977824613665e-18
-5.16651823767621e-14
-2.22223152403966e-18
-5.1673169874116e-14
-2.78153297575469e-18
-5.16855165360503e-14
-3.32657485892358e-18
-5.16282357507595e-14
-3.8619630553941e-18
-5.15179800092084e-14
-4.42488369537575e-18
-5.14551553416525e-14
-4.98514221017529e-18
-5.14496638041082e-14
-5.538117333836e-18
-5.14373688990366e-14
-6.09582339145247e-18
-5.14150997244455e-14
-6.66084319004162e-18
-5.13992056269957e-14
-7.20500265525024e-18
-5.13672540009863e-14
-7.76587989604407e-18
-5.13479316007467e-14
-8.38703821483133e-18
-5.14146088461879e-14
-9.00119647859237e-18
-5.1523465599502e-14
-9.55254609245002e-18
-5.15606522343585e-14
-1.01304123055854e-17
-5.15650434911905e-14
-1.07942259689587e-17
-5.1652963036773e-14
-1.14250998913142e-17
-5.17757910171202e-14
-1.19837594485662e-17
-5.1804229130407e-14
-1.25225672712174e-17
-5.17457933662496e-14
-1.31350848345532e-17
-5.1755822227242e-14
-1.38882558929607e-17
-5.18543567409049e-14
-1.42683542513783e-17
-5.18120916903272e-14
-1.48095355154699e-17
-5.16859459970502e-14
-1.56020139909475e-17
-5.17322238773261e-14
-1.61402010712186e-17
-5.18364162996359e-14
-1.68233200643312e-17
-5.19045385187267e-14
-1.75848496236947e-17
-5.20624866686038e-14
-1.83674217356542e-17
-5.2285945869409e-14
-1.90806865104773e-17
-5.24771276149987e-14
-1.98102216127639e-17
-5.26148910426834e-14
-2.04265641691452e-17
-5.26682792045883e-14
-2.09199092867788e-17
-5.25801294681489e-14
-2.14348818151616e-17
-5.25330180386765e-14
-2.27898122760052e-17
-5.28653289819643e-14
-2.38295440367458e-17
-5.34110562875646e-14
-2.4573245659322e-17
-5.37455741918161e-14
-2.54918842432257e-17
-5.40264286520362e-14
-2.70967705092647e-17
-5.46513088701336e-14
-2.86820085987387e-17
-5.55386932798552e-14
-3.00136331231972e-17
-5.63173284151766e-14
-3.12294405882615e-17
-5.69742120451583e-14
-3.32931921552455e-17
-5.78573560725122e-14
-3.54024913518767e-17
-5.91372754061882e-14
-3.88329018536938e-17
-6.12526390238591e-14
-4.41964810036617e-17
-6.39688785173304e-14
-4.3975941769041e-17
-6.54513083931923e-14
-4.52670213635206e-17
-6.57190319927177e-14
-4.91930686724488e-17
-6.71871357335651e-14
-5.56338437756611e-17
-7.05072696840916e-14
-6.08188543479399e-17
-7.43670881346588e-14
-6.67240912584492e-17
-7.80926598455615e-14
-7.31066174702413e-17
-8.21183603696893e-14
-8.11245748121243e-17
-8.68433219518068e-14
-9.12537623298426e-17
-9.29984423887859e-14
-1.08587725378174e-16
-1.02455148342883e-13
-1.34380144729787e-16
-1.17470236057762e-13
-1.67367563119684e-16
-1.36513079363103e-13
-1.93199008016155e-16
-1.56979166529944e-13
-2.44371667211253e-16
-1.83253869106393e-13
-3.07579106848979e-16
-2.19797307020887e-13
-3.73009692120447e-16
-2.59801266684706e-13
-4.22005962398476e-16
-2.96668459369929e-13
-5.01338781078378e-16
-3.3648537285138e-13
-5.86165359113895e-16
-3.84132939288956e-13
-6.67097060449856e-16
-4.31746845161337e-13
-7.29811822964159e-16
-4.73392448252202e-13
-8.16927826065899e-16
-5.14775564461319e-13
-8.97912786669405e-16
-5.57475003058539e-13
-9.59276683067497e-16
-5.94650069000346e-13
-1.02845595912599e-15
-6.27708628724212e-13
-1.1112315548132e-15
-6.63926939176513e-13
-1.18989132216453e-15
-7.01451814709674e-13
-1.25212517625623e-15
-7.31580715988608e-13
-1.28171731777491e-15
-7.49424447823442e-13
-1.32299081336569e-15
-7.62760571589467e-13
-1.38545923701852e-15
-7.80973974792285e-13
-1.43928760011318e-15
-8.00843125829725e-13
-1.47762256131879e-15
-8.1612777561467e-13
-1.50678527146296e-15
-8.26610309081868e-13
-1.55371070435854e-15
-8.34042552793723e-13
-1.55755595295342e-15
-8.34962181863532e-13
-1.55498764694279e-15
-8.28723021329691e-13
-1.54659854759208e-15
-8.24565079999406e-13
-1.48467316391664e-15
-8.31301589328381e-13
-1.36914345930836e-15
-8.40360839668009e-13
-1.24116882553705e-15
-8.39372339447814e-13
-1.11815333264559e-15
-8.31156689660141e-13
-9.92930620111016e-16
-8.21806431237699e-13
-8.75153524509705e-16
-8.13172164457501e-13
-7.56563720581485e-16
-8.06277829762817e-13
-6.56075659975261e-16
-8.06113453722875e-13
-5.53672437054769e-16
-8.14538865543801e-13
-4.49698742273025e-16
-8.25181472686494e-13
-3.37074612755885e-16
-8.30864021572173e-13
-2.23715528703828e-16
-8.30172696259617e-13
-1.11729902258868e-16
-8.2759579175961e-13
-8.2601333307147e-13
-1.6745914636646e-18
-1.04744127878925e-13
-3.34639915715039e-18
-1.04645005204668e-13
-5.01623402422062e-18
-1.04542618248427e-13
-6.68729402213256e-18
-1.04465895549303e-13
-8.35451225284186e-18
-1.04394036189003e-13
-1.00070366690275e-17
-1.04261039245937e-13
-1.16533940186091e-17
-1.04081039774333e-13
-1.3309087884332e-17
-1.03943404374024e-13
-1.49660415772997e-17
-1.03856742750192e-13
-1.66147700104226e-17
-1.03763744136226e-13
-1.82636988362588e-17
-1.03662221828699e-13
-1.99100606182077e-17
-1.03566087149661e-13
-2.15459441202907e-17
-1.03455699664374e-13
-2.3194304308507e-17
-1.03356929202119e-13
-2.48762696193077e-17
-1.03333914673126e-13
-2.65519031248345e-17
-1.0334881367534e-13
-2.81908151927839e-17
-1.03300695504809e-13
-2.98443051990554e-17
-1.03222893940283e-13
-3.15435287101115e-17
-1.03218957214943e-13
-3.3226837003072e-17
-1.03246330354738e-13
-3.48534743338947e-17
-1.0319012919284e-13
-3.64611644419437e-17
-1.03056922266528e-13
-3.81444526155354e-17
-1.02984825437278e-13
-3.98322699480882e-17
-1.02991247822288e-13
-4.1377650990963e-17
-1.02872966815669e-13
-4.29763430867967e-17
-1.026806085743e-13
-4.46944153951355e-17
-1.0264109818695e-13
-4.63541300024008e-17
-1.02651952700671e-13
-4.8037688942063e-17
-1.02631609766658e-13
-4.98083808326299e-17
-1.02691527816486e-13
-5.1579956591537e-17
-1.02808073094526e-13
-5.33239130316947e-17
-1.02896132974891e-13
-5.50385143661045e-17
-1.02938498369389e-13
-5.66758087410606e-17
-1.02906856889377e-13
-5.81931445984418e-17
-1.02749615214081e-13
-5.98819153972571e-17
-1.02627000641934e-13
-6.19556513701517e-17
-1.02840617488381e-13
-6.39871650130881e-17
-1.03244582789631e-13
-6.57686485673042e-17
-1.03459769803552e-13
-6.7746973462707e-17
-1.03631066960853e-13
-7.01139869854818e-17
-1.04106715346847e-13
-7.25741879393276e-17
-1.04811704938511e-13
-7.48210146940648e-17
-1.05422546413518e-13
-7.71296766803736e-17
-1.05925312212412e-13
-7.98332990374844e-17
-1.06623837960565e-13
-8.29414201534856e-17
-1.07674466886523e-13
-8.73293883015325e-17
-1.09467479557658e-13
-9.17462373022849e-17
-1.11791628926865e-13
-9.38940547707103e-17
-1.13012376481426e-13
-9.60243288909518e-17
-1.13164715956315e-13
-1.00685496457268e-16
-1.14395450939705e-13
-1.06773772970714e-16
-1.17259718611465e-13
-1.12798121441231e-16
-1.20570893494073e-13
-1.18905551185987e-16
-1.23763628099706e-13
-1.25925362613455e-16
-1.27246844244434e-13
-1.33941775181964e-16
-1.31362090641569e-13
-1.44505610819776e-16
-1.36645153981503e-13
-1.60659646710806e-16
-1.44801096360202e-13
-1.85255502125893e-16
-1.57953014948805e-13
-2.12401211557091e-16
-1.74776165500857e-13
-2.41628529862946e-16
-1.92559709799697e-13
-2.84887726883999e-16
-2.15426133062648e-13
-3.42596387574913e-16
-2.47681671778768e-13
-3.97602339728651e-16
-2.83025135850074e-13
-4.49782503579203e-16
-3.15175618377001e-13
-5.15587415265171e-16
-3.49865029940882e-13
-5.92476143300602e-16
-3.91807479215056e-13
-6.61804798741685e-16
-4.3365085398327e-13
-7.25719410479297e-16
-4.70015717910086e-13
-7.97654118662457e-16
-5.06084453845475e-13
-8.68744703776981e-16
-5.43419769289542e-13
-9.27980195681621e-16
-5.75811254928428e-13
-9.89976955372332e-16
-6.04496764564657e-13
-1.06116260170815e-15
-6.35891270015916e-13
-1.12990556623701e-15
-6.68426398699504e-13
-1.18122872076504e-15
-6.94299924510943e-13
-1.21434832420442e-15
-7.09303051593898e-13
-1.2535033564849e-15
-7.20567112159624e-13
-1.30336916140805e-15
-7.36249467760765e-13
-1.34784825264417e-15
-7.52595814818023e-13
-1.38476976949448e-15
-7.65144050492097e-13
-1.41650381486233e-15
-7.74521085100011e-13
-1.44096551917574e-15
-7.79435409961221e-13
-1.45103913301418e-15
-7.7850518619401e-13
-1.45466834118113e-15
-7.73228436737094e-13
-1.45622158440346e-15
-7.69816181993566e-13
-1.37137107319934e-15
-7.74549174076456e-13
-1.27393028851448e-15
-7.81928674281241e-13
-1.15920725296767e-15
-7.82093805682906e-13
-1.04116072239822e-15
-7.74637016934553e-13
-9.27446558118736e-16
-7.66106816875578e-13
-8.16301969677488e-16
-7.58812558963305e-13
-7.09393364608702e-16
-7.52618219856643e-13
-6.11814688102363e-16
-7.52256183507165e-13
-5.17203051899993e-16
-7.59917104743219e-13
-4.18552923321178e-16
-7.6973377977363e-13
-3.14633603398689e-16
-7.75068954974956e-13
-2.08960934028793e-16
-7.7455216352286e-13
-1.04205339056618e-16
-7.71974438298961e-13
-7.70514505470317e-13
-2.82959475635284e-18
-1.59397345922186e-13
-5.65252168659708e-18
-1.59202182363257e-13
-8.46961684589307e-18
-1.5900216673583e-13
-1.12837170899451e-17
-1.58825823561027e-13
-1.40904292728776e-17
-1.58654405491061e-13
-1.68802012513227e-17
-1.58430528016305e-13
-1.96604855626431e-17
-1.58166072331108e-13
-2.24449543805632e-17
-1.57938310730448e-13
-2.52264490951923e-17
-1.57754737589987e-13
-2.79966605242371e-17
-1.57565832547586e-13
-3.07630926185954e-17
-1.57369613474127e-13
-3.35230593214497e-17
-1.57178050418477e-13
-3.62699708568194e-17
-1.5697424401139e-13
-3.90237157645412e-17
-1.56780618785254e-13
-4.18028010723418e-17
-1.56652579717646e-13
-4.45725510904912e-17
-1.56557430529815e-13
-4.7306078411345e-17
-1.56407970869466e-13
-5.00481709226606e-17
-1.56232908146357e-13
-5.28263951200361e-17
-1.56121685197516e-13
-5.55866813006426e-17
-1.5603755221306e-13
-5.82933150656028e-17
-1.55881241004416e-13
-6.09793671574877e-17
-1.55658501670496e-13
-6.37278054148456e-17
-1.55488638668135e-13
-6.64760652289065e-17
-1.5538668135511e-13
-6.90958665179041e-17
-1.55177183456346e-13
-7.17582221075955e-17
-1.54903772185534e-13
-7.45212543896091e-17
-1.54762364169076e-13
-7.7228621741104e-17
-1.54664670100432e-13
-7.99540630377299e-17
-1.54540317829903e-13
-8.27510472316345e-17
-1.54485355939212e-13
-8.55447486275061e-17
-1.54479372936056e-13
-8.83105092504497e-17
-1.54448974525825e-13
-9.10475922123331e-17
-1.5437928179708e-13
-9.37126677013119e-17
-1.5424581861726e-13
-9.62691906815224e-17
-1.54004122579817e-13
-9.89702377947338e-17
-1.53792519839591e-13
-1.02006085901354e-16
-1.53871334398706e-13
-1.05000426538398e-16
-1.54114717161108e-13
-1.07770207475253e-16
-1.5419390381269e-13
-1.10717213188753e-16
-1.54239999678207e-13
-1.1399229653199e-16
-1.54549984252632e-13
-1.17347119070828e-16
-1.55053793135155e-13
-1.20512027874891e-16
-1.55477382681574e-13
-1.23726609863119e-16
-1.55808129830789e-13
-1.27279413893308e-16
-1.5630820244979e-13
-1.31186661789893e-16
-1.57112406233216e-13
-1.36207643164903e-16
-1.58557141188432e-13
-1.41252151734987e-16
-1.60460982493026e-13
-1.44295264488706e-16
-1.61413762279921e-13
-1.47339026477247e-16
-1.61444908730412e-13
-1.52589192904432e-16
-1.62406351605647e-13
-1.59082094994836e-16
-1.64777669951469e-13
-1.65484060174787e-16
-1.67535840693357e-13
-1.71985314798479e-16
-1.70191209456321e-13
-1.79276422549191e-16
-1.73096115074441e-13
-1.87456252796615e-16
-1.76547040287027e-13
-1.97723976243416e-16
-1.81008101877552e-13
-2.12944979164243e-16
-1.87942476045956e-13
-2.35552055894051e-16
-1.99175619658643e-13
-2.60509076484173e-16
-2.13573880928411e-13
-2.86778272335869e-16
-2.28806503634357e-13
-3.25705561534693e-16
-2.48397990011096e-13
-3.77215989826134e-16
-2.76057851633458e-13
-4.26459741240141e-16
-3.06394699481679e-13
-4.72559113598874e-16
-3.33984531921879e-13
-5.3105146291024e-16
-3.63709544882949e-13
-5.991136012884e-16
-3.99644889168863e-13
-6.60595728306118e-16
-4.35512813493051e-13
-7.16995574253436e-16
-4.6665150558347e-13
-7.80550281059216e-16
-4.97478053044145e-13
-8.43290881392041e-16
-5.2936418508775e-13
-8.95620927967496e-16
-5.56983804913886e-13
-9.50216883732404e-16
-5.81368779419309e-13
-1.01273424810676e-15
-6.08035081679653e-13
-1.07309974117111e-15
-6.3564760106783e-13
-1.11797829375118e-15
-6.57493517233635e-13
-1.14713415957131e-15
-6.69957601073922e-13
-1.1817058564854e-15
-6.79182569552962e-13
-1.22555688031893e-15
-6.92174630275203e-13
-1.26323759994633e-15
-7.05654786366201e-13
-1.29615712683222e-15
-7.15861973573497e-13
-1.32452803718743e-15
-7.23360539960167e-13
-1.34315367390687e-15
-7.26858401868522e-13
-1.35234136369945e-15
-7.25296986070454e-13
-1.35645307052987e-15
-7.20127286816911e-13
-1.3573628188738e-15
-7.16616949958617e-13
-1.27468621156185e-15
-7.20364711604179e-13
-1.18477106355443e-15
-7.26601438091191e-13
-1.07907504803327e-15
-7.26780606551046e-13
-9.6918236977387e-16
-7.20342524763499e-13
-8.64265000761803e-16
-7.13018655612519e-13
-7.61259155300781e-16
-7.06815762440513e-13
-6.61663920128819e-16
-7.01466039592362e-13
-5.70405731819774e-16
-7.01139949273015e-13
-4.81998077173086e-16
-7.07861464147089e-13
-3.89902806685643e-16
-7.16504973292427e-13
-2.93135926341663e-16
-7.21230896424509e-13
-1.94713396823357e-16
-7.2083634949908e-13
-9.70873831231374e-17
-7.18626702267508e-13
-7.17351399027775e-13
-4.01869308482157e-18
-2.15629150398073e-13
-8.02621432896776e-18
-2.15319378510493e-13
-1.20234429119744e-17
-2.15008205164893e-13
-1.60127626874337e-17
-2.14718024351178e-13
-1.9990516539464e-17
-2.14432511304678e-13
-2.39484701923968e-17
-2.14103208276594e-13
-2.78930392031555e-17
-2.13739825861527e-13
-3.18358371107124e-17
-2.13407344680778e-13
-3.57708440018378e-17
-2.13112143538301e-13
-3.96908962541884e-17
-2.12812607898805e-13
-4.36024626254034e-17
-2.12506988726948e-13
-4.75031636267047e-17
-2.12205285806753e-13
-5.13874957734314e-17
-2.11893344569655e-13
-5.52723468731235e-17
-2.11590065127206e-13
-5.91735898906784e-17
-2.11341966958553e-13
-6.30616003221832e-17
-2.11121627752416e-13
-6.69135133213846e-17
-2.10855856137413e-13
-7.07673845416321e-17
-2.10568633742572e-13
-7.46468605094536e-17
-2.10335010384303e-13
-7.85057325935598e-17
-2.10124192103717e-13
-8.23136418199228e-17
-2.09852819987342e-13
-8.60987165647977e-17
-2.09525732531278e-13
-8.9931793005638e-17
-2.0924311833389e-13
-9.37594462861673e-17
-2.09017575680858e-13
-9.74725091374189e-17
-2.08701931471826e-13
-1.01216476099298e-16
-2.08332743217802e-13
-1.05041108747888e-16
-2.08074328155231e-13
-1.08813166534323e-16
-2.07852778836878e-13
-1.12595576750636e-16
-2.07609107532155e-13
-1.16433652094378e-16
-2.07423781639176e-13
-1.20263884551677e-16
-2.0727964168213e-13
-1.24065086144629e-16
-2.07115130186094e-13
-1.27836846184432e-16
-2.06917813649621e-13
-1.31542023756801e-16
-2.06667168239236e-13
-1.35149790888303e-16
-2.06325898817889e-13
-1.38875434083328e-16
-2.06010003428008e-13
-1.42881362554373e-16
-2.05937784448924e-13
-1.46846992535948e-16
-2.06003937794458e-13
-1.50614359704534e-16
-2.059317701242e-13
-1.5453617989261e-16
-2.05835186519507e-13
-1.58725177824947e-16
-2.05960446912988e-13
-1.62978355365699e-16
-2.06245435894995e-13
-1.67065234376049e-16
-2.06464351892699e-13
-1.71189592352588e-16
-2.06605922959439e-13
-1.75597070121411e-16
-2.06889533906088e-13
-1.80301916011872e-16
-2.07428604461645e-13
-1.85949987549957e-16
-2.08505232970533e-13
-1.91613931327068e-16
-2.09966598011839e-13
-1.95569628383133e-16
-2.10631391839094e-13
-1.9952116746766e-16
-2.10524691892843e-13
-2.05346160734417e-16
-2.11198060029841e-13
-2.12225411229286e-16
-2.13053414657323e-13
-2.19022645143014e-16
-2.15232982859109e-13
-2.25898442075011e-16
-2.17326390075721e-13
-2.33443046185181e-16
-2.19630223670242e-13
-2.41740781559638e-16
-2.22393210939548e-13
-2.51810084765548e-16
-2.26000482587901e-13
-2.66078729769329e-16
-2.31674671023255e-13
-2.86626595301291e-16
-2.40949822349701e-13
-3.09177590360337e-16
-2.52882797176252e-13
-3.3283607322501e-16
-2.6551202900586e-13
-3.6720951061611e-16
-2.81775086826963e-13
-4.12292845511287e-16
-3.04792524396862e-13
-4.55473363730873e-16
-3.30068152831101e-13
-4.95935804941919e-16
-3.53033525305556e-13
-5.46835489896571e-16
-3.77742905481251e-13
-6.05878569901093e-16
-4.07632765129903e-13
-6.59348959860593e-16
-4.37479408137098e-13
-7.08423194942221e-16
-4.63351464373683e-13
-7.63483051205673e-16
-4.88913996978151e-13
-8.17844421552865e-16
-5.15339263986419e-13
-8.63311909975065e-16
-5.38183921429615e-13
-9.10604244915358e-16
-5.58285412650278e-13
-9.64558006448841e-16
-5.80254401764372e-13
-1.01661696071325e-15
-6.02984094457753e-13
-1.05546530827474e-15
-6.20868151294812e-13
-1.08092200646259e-15
-6.30896984772205e-13
-1.11090550510513e-15
-6.38193556031419e-13
-1.14866348725345e-15
-6.48590756616879e-13
-1.18104890162377e-15
-6.59362799673894e-13
-1.20945100970784e-15
-6.67387294762823e-13
-1.23386036781805e-15
-6.73114726402425e-13
-1.24973161434652e-15
-6.75461714696169e-13
-1.25776215357374e-15
-6.73589323780467e-13
-1.26151765873907e-15
-6.68717322290905e-13
-1.26143241133258e-15
-6.65268990533706e-13
-1.18301662903208e-15
-6.68143674735031e-13
-1.0989017404008e-15
-6.73197231939484e-13
-1.00142653116382e-15
-6.73305208760879e-13
-9.00355834829428e-16
-6.67940725425554e-13
-8.0361370250925e-16
-6.6186139598351e-13
-7.08455474512329e-16
-6.56728942950952e-13
-6.16106012143987e-16
-6.52302491870596e-13
-5.30902590819287e-16
-6.5206784022475e-13
-4.48152284817707e-16
-6.57730236683369e-13
-3.62241749403166e-16
-6.65007974756548e-13
-2.72308345784239e-16
-6.69014893116675e-13
-1.80945939080558e-16
-6.68739654080237e-13
-9.02453163827961e-17
-6.66931578979149e-13
-6.65866930648657e-13
-5.2411652237068e-18
-2.73411027097164e-13
-1.0466141768043e-17
-2.72969442517955e-13
-1.56757182645135e-17
-2.72534373143954e-13
-2.08718672965508e-17
-2.72116708907919e-13
-2.60516373195228e-17
-2.71703189215675e-13
-3.12081686072158e-17
-2.71254544103896e-13
-3.63467715191712e-17
-2.70778389886196e-13
-4.14770516927328e-17
-2.70327220269794e-13
-4.65940508840593e-17
-2.69906281268117e-13
-5.16918483192455e-17
-2.69481982461951e-13
-5.67758093473754e-17
-2.69052835938214e-13
-6.18438915853309e-17
-2.68626862967979e-13
-6.6891659813934e-17
-2.68192656719282e-13
-7.1932996580755e-17
-2.67765504231987e-13
-7.69810167378001e-17
-2.67382920298585e-13
-8.20113020055926e-17
-2.67022844693336e-13
-8.70050537271195e-17
-2.66626318228165e-13
-9.19935298164695e-17
-2.66212556081483e-13
-9.69962991242677e-17
-2.6584199012967e-13
-1.01975244458533e-16
-2.65489868158661e-13
-1.06905367338319e-16
-2.65088996799974e-13
-1.1180981641385e-16
-2.64643250910044e-13
-1.16747067075696e-16
-2.64233408644955e-13
-1.2167300041599e-16
-2.63869652874028e-13
-1.26497818390484e-16
-2.63433437380604e-13
-1.31341203821677e-16
-2.6295415154243e-13
-1.3624430185448e-16
-2.62564139488912e-13
-1.41097363424761e-16
-2.62203964349165e-13
-1.45952269743234e-16
-2.61826130305096e-13
-1.50846240464308e-16
-2.61495428400524e-13
-1.55727054188443e-16
-2.61198009591685e-13
-1.60577155292812e-16
-2.60884254193761e-13
-1.6539640036802e-16
-2.60544215187048e-13
-1.70154071763931e-16
-2.60161421804928e-13
-1.74824909157081e-16
-2.5970580835337e-13
-1.79585993599502e-16
-2.5927068529305e-13
-1.84571251426219e-16
-2.59031805409778e-13
-1.89517002689391e-16
-2.5890470957349e-13
-1.94291579616863e-16
-2.58666003468736e-13
-1.99192310598669e-16
-2.5840973775221e-13
-2.04301060942081e-16
-2.58332084370841e-13
-2.09457366388599e-16
-2.58381254349486e-13
-2.14470683240797e-16
-2.58378410378852e-13
-2.1950841232256e-16
-2.58313772825016e-13
-2.24772363934098e-16
-2.58363492126146e-13
-2.3027531804705e-16
-2.58619095515606e-13
-2.3654812726352e-16
-2.59307841871114e-13
-2.42827302042531e-16
-2.6030636130453e-13
-2.47695237788545e-16
-2.60664317993258e-13
-2.5255338252102e-16
-2.60401963713398e-13
-2.58947084001514e-16
-2.60767618025558e-13
-2.66202464777931e-16
-2.62084947090652e-13
-2.73383195399534e-16
-2.63663153937343e-13
-2.80622083153201e-16
-2.65171551725603e-13
-2.88407184983145e-16
-2.66850127201363e-13
-2.96806903593735e-16
-2.68899802046776e-13
-3.06651382439269e-16
-2.71626823693994e-13
-3.19936523814865e-16
-2.76010842412247e-13
-3.38384975913232e-16
-2.83290010744059e-13
-3.58485162707841e-16
-2.92712910870387e-13
-3.79473770072255e-16
-3.02694384171775e-13
-4.09241109533468e-16
-3.15582948842607e-13
-4.4782570295559e-16
-3.3389930065558e-13
-4.84862427540095e-16
-3.54045638025194e-13
-5.19611270307818e-16
-3.72327812040938e-13
-5.62869207644731e-16
-3.91976167492247e-13
-6.128258572205e-16
-4.15772057307766e-13
-6.58213132212204e-16
-4.39543628807118e-13
-6.99918534120891e-16
-4.60109021802866e-13
-7.46465695233824e-16
-4.80387046790716e-13
-7.92428624180818e-16
-5.01338038058206e-13
-8.31042484947949e-16
-5.19403728674535e-13
-8.71072495717474e-16
-5.35236579812322e-13
-9.16514714008274e-16
-5.52535842344132e-13
-9.60342318508444e-16
-5.70421010101244e-13
-9.93285840530229e-16
-5.84398541767989e-13
-1.01521313021037e-15
-5.92063709111854e-13
-1.04077480320944e-15
-5.97516780861474e-13
-1.07261811355065e-15
-6.05419436166297e-13
-1.1000187515893e-15
-6.13600167535596e-13
-1.12411113760656e-15
-6.19569386593766e-13
-1.14482467374812e-15
-6.2367106976227e-13
-1.15849423670023e-15
-6.25042089466235e-13
-1.16576375681492e-15
-6.23042476590816e-13
-1.16949759402657e-15
-6.18649115176381e-13
-1.1687371067058e-15
-6.15438410977711e-13
-1.09448252338618e-15
-6.1755227555067e-13
-1.01581522594906e-15
-6.21468845354206e-13
-9.26321316857515e-16
-6.21514445394478e-13
-8.33921066169059e-16
-6.17224952920916e-13
-7.45075659486912e-16
-6.12380125305749e-13
-6.57525592825675e-16
-6.08301653095318e-13
-5.72258713535184e-16
-6.0479352333177e-13
-4.92839665719133e-16
-6.04639305005835e-13
-4.1542527156774e-16
-6.09203786587068e-13
-3.35413634343773e-16
-6.15064054370561e-13
-2.52093135447133e-16
-6.18310945888144e-13
-1.6758758031029e-16
-6.18129739705743e-13
-8.36095518842856e-17
-6.16706590888215e-13
-6.15844095799805e-13
-6.49644210437004e-18
-3.32715505924352e-13
-1.2971165391776e-17
-3.32126090048527e-13
-1.94247958397149e-17
-3.31555110325898e-13
-2.58588940479684e-17
-3.30996825431519e-13
-3.22711607624657e-17
-3.30441936260963e-13
-3.86562132661811e-17
-3.29860613787387e-13
-4.50182193844712e-17
-3.29258452447139e-13
-5.13647052293148e-17
-3.28675226883911e-13
-5.76918305122691e-17
-3.28115012336845e-13
-6.39949161459672e-17
-3.27552377127911e-13
-7.02781769058821e-17
-3.26986128339446e-13
-7.65400104653223e-17
-3.26422299322567e-13
-8.27769516525469e-17
-3.25852253488769e-13
-8.89998823812853e-17
-3.25287574399829e-13
-9.52190860079912e-17
-3.24756639121151e-13
-1.01415476604298e-16
-3.24242831097729e-13
-1.07574318710912e-16
-3.23701637952195e-13
-1.1372003432342e-16
-3.23147471274101e-13
-1.1986800301689e-16
-3.22625934852915e-13
-1.25988371567281e-16
-3.22118397057149e-13
-1.32061523283563e-16
-3.21574085815219e-13
-1.3810560984878e-16
-3.20995880627334e-13
-1.4416646255259e-16
-3.20444841201992e-13
-1.50209564058173e-16
-3.19928724167934e-13
-1.56164572136174e-16
-3.19357997132648e-13
-1.62125142303281e-16
-3.18754776229526e-13
-1.68123603885959e-16
-3.18219026768797e-13
-1.74073998763656e-16
-3.17705919150442e-13
-1.80016971563814e-16
-3.171795701933e-13
-1.85981680197213e-16
-3.16688937593565e-13
-1.91927209528461e-16
-3.16223548939211e-13
-1.97839772123531e-16
-3.15745867154063e-13
-2.03719403162081e-16
-3.15248454744125e-13
-2.09542025628743e-16
-3.14718960177088e-13
-2.15287848282506e-16
-3.1413463728022e-13
-2.21095340625006e-16
-3.13565780697721e-13
-2.27069493302588e-16
-3.13145045884484e-13
-2.33004311502144e-16
-3.12809024901167e-13
-2.3879555033515e-16
-3.12388768447761e-13
-2.44680100438296e-16
-3.11956459270913e-13
-2.50715004583609e-16
-3.11658778239142e-13
-2.56779544640236e-16
-3.1145578750015e-13
-2.62723889627967e-16
-3.11214511290438e-13
-2.68678716143311e-16
-3.10927008809283e-13
-2.7480153707308e-16
-3.10725793542739e-13
-2.81103135839801e-16
-3.10680053769772e-13
-2.87998546302399e-16
-3.10961500891476e-13
-2.9489034389996e-16
-3.11476938639403e-13
-3.00669978505906e-16
-3.11509516800296e-13
-3.06433121766346e-16
-3.11074341245917e-13
-3.13389365938278e-16
-3.1111313943225e-13
-3.21011746102137e-16
-3.11870452729905e-13
-3.28566245089584e-16
-3.12824535091164e-13
-3.3615699148537e-16
-3.13725327197052e-13
-3.44168495225975e-16
-3.14755132874451e-13
-3.52653624136939e-16
-3.16066410858554e-13
-3.62254171527516e-16
-3.17886831704161e-13
-3.74529120111356e-16
-3.20951515562766e-13
-3.90836883012164e-16
-3.26197985605124e-13
-4.0843779352937e-16
-3.33066449737517e-13
-4.26711497616307e-16
-3.40355415196947e-13
-4.51816809237748e-16
-3.49823684085071e-13
-4.8382009045014e-16
-3.63380944306603e-13
-5.14624716678345e-16
-3.78329447732196e-13
-5.43596056533374e-16
-3.91868087233308e-13
-5.79156541266451e-16
-4.06408551181466e-13
-6.19950607802458e-16
-4.24061177215091e-13
-6.57179411206309e-16
-4.41703045765765e-13
-6.91475076647455e-16
-4.56920294906351e-13
-7.29488551317413e-16
-4.71891601854184e-13
-7.67032412508029e-16
-4.87353769597941e-13
-7.98800265495555e-16
-5.00635813992608e-13
-8.31605523436581e-16
-5.12214060565109e-13
-8.68585403312449e-16
-5.24870560792152e-13
-9.04256244124995e-16
-5.37949112203346e-13
-9.31401330041716e-16
-5.48074178174325e-13
-9.49929265053895e-16
-5.53444315817873e-13
-9.71225538395096e-16
-5.57135578895933e-13
-9.97344380538216e-16
-5.62641422653148e-13
-1.01997474734383e-15
-5.68341226109845e-13
-1.03999117696631e-15
-5.72374479642892e-13
-1.05729683055206e-15
-5.74987541579818e-13
-1.06909237254457e-15
-5.75536404078745e-13
-1.07592118320611e-15
-5.73564805631275e-13
-1.07997551255491e-15
-5.69807949060324e-13
-1.07884123861359e-15
-5.66992243444166e-13
-1.00868876106015e-15
-5.68454333656751e-13
-9.35296004825731e-16
-5.71294345018192e-13
-8.5357536244507e-16
-5.71296967688538e-13
-7.69624612052452e-16
-5.68080803110908e-13
-6.88442998153498e-16
-5.64459933269682e-13
-6.08272862897968e-16
-5.61420351406188e-13
-5.29872631806503e-16
-5.58813228711196e-13
-4.56011450177052e-16
-5.58720866809773e-13
-3.83702931155127e-16
-5.62165773681063e-13
-3.09369249462316e-16
-5.66584030513139e-13
-2.32454829630005e-16
-5.69045367610932e-13
-1.54608213978605e-16
-5.68934182178532e-13
-7.71614263716208e-17
-5.67877054639819e-13
-5.67206552490921e-13
-7.78394756182841e-18
-3.93516113385789e-13
-1.55402122438694e-17
-3.92763685718246e-13
-2.32690710379234e-17
-3.92045560359391e-13
-3.09717356433427e-17
-3.91334091638276e-13
-3.86465616059732e-17
-3.90625036619926e-13
-4.62896460268923e-17
-3.89898278384199e-13
-5.39039845087297e-17
-3.89157481268983e-13
-6.14950354831585e-17
-3.88429435108164e-13
-6.90600361394822e-17
-3.87716983488735e-13
-7.65956239116725e-17
-3.87003002444326e-13
-8.41047957721692e-17
-3.86286632742212e-13
-9.15864539583614e-17
-3.85571914315868e-13
-9.90380168366578e-17
-3.84853020347202e-13
-1.06467418720609e-16
-3.84137738625168e-13
-1.13882001744108e-16
-3.83445164908359e-13
-1.2126811971833e-16
-3.82764200397973e-13
-1.28615109797767e-16
-3.82064976068153e-13
-1.3594056270682e-16
-3.81357072528521e-13
-1.4325548333762e-16
-3.80671075722817e-13
-1.50538509721612e-16
-3.79994547489155e-13
-1.57775417081101e-16
-3.792933846833e-13
-1.64979334268914e-16
-3.78569457098013e-13
-1.7218318949441e-16
-3.77863791481877e-13
-1.79362288402608e-16
-3.77181690398523e-13
-1.8646589019908e-16
-3.76463035568144e-13
-1.93561422554423e-16
-3.75722559361364e-13
-2.00672132012485e-16
-3.75027431014782e-13
-2.07736260378174e-16
-3.74347604997613e-13
-2.14782929269052e-16
-3.73658930014759e-13
-2.21833295273665e-16
-3.72994328608899e-13
-2.28857753724558e-16
-3.72346780739e-13
-2.35846492711852e-16
-3.71691013269402e-13
-2.42799527526344e-16
-3.7102209794543e-13
-2.49699684276788e-16
-3.70331837074862e-13
-2.56532546704922e-16
-3.69604914768485e-13
-2.63397632252554e-16
-3.68888323579094e-13
-2.70370458808162e-16
-3.68271078954219e-13
-2.77303413824817e-16
-3.67710938959908e-13
-2.84120788131652e-16
-3.6709449198387e-13
-2.90994744463978e-16
-3.66470285507105e-13
-2.97962916005974e-16
-3.65936279750986e-13
-3.04941157080558e-16
-3.65465593672707e-13
-3.11821454061391e-16
-3.64969769221344e-13
-3.18697411409575e-16
-3.64443243593009e-13
-3.25681906036559e-16
-3.63974578847288e-13
-3.3278317403109e-16
-3.63610216575481e-13
-3.40299371118819e-16
-3.63465511008059e-13
-3.47801426161933e-16
-3.63478126405236e-13
-3.54492795312746e-16
-3.63167329422043e-13
-3.61160042572866e-16
-3.62542797612167e-13
-3.68673090694879e-16
-3.62236179780401e-13
-3.76653460691487e-16
-3.62411918911037e-13
-3.84572416667362e-16
-3.6271959824652e-13
-3.92504774672523e-16
-3.62990947095094e-13
-4.00729251685232e-16
-3.63349176857837e-13
-4.0928338302254e-16
-3.63897326474098e-13
-4.18621733152056e-16
-3.64785443646579e-13
-4.29862018818612e-16
-3.66503203024289e-13
-4.43989315680865e-16
-3.69681830365436e-13
-4.59042222460364e-16
-3.7395188640032e-13
-4.74555914787827e-16
-3.78503543197722e-13
-4.94944308607705e-16
-3.84506010196811e-13
-5.20283150854658e-16
-3.93245713687693e-13
-5.44765020937547e-16
-4.02926017253142e-13
-5.67892260731617e-16
-4.1165861518888e-13
-5.95697490580014e-16
-4.21042316349097e-13
-6.27250869191492e-16
-4.32500335820507e-13
-6.56243666502341e-16
-4.43955885970393e-13
-6.8308577839606e-16
-4.53781570730335e-13
-7.12541941881861e-16
-4.63422057787685e-13
-7.41644982214922e-16
-4.73379658840343e-13
-7.66573723987468e-16