/*--------------------------------*- C++ -*----------------------------------*\
  =========                 |
  \\      /  F ield         | OpenFOAM: The Open Source CFD Toolbox
   \\    /   O peration     | Website:  https://openfoam.org
    \\  /    A nd           | Version:  8
     \\/     M anipulation  |
\*---------------------------------------------------------------------------*/
FoamFile
{
    version     2.0;
    format      ascii;
    class       pointVectorField;
    location    "0.0205000";
    object      pointDisplacement;
}
// * * * * * * * * * * * * * * * * * * * * * * * * * * * * * * * * * * * * * //

dimensions      [0 1 0 0 0 0 0];

internalField   nonuniform List<vector> 
1414
(
(3.41143039493643e-37 -1.04109211468067e-07 4.54550633815756e-09)
(3.4560567063507e-37 -1.0549813846731e-07 4.60614820057557e-09)
(3.59167190544276e-37 -1.096053202431e-07 4.78547162960323e-09)
(3.7682256468065e-37 -1.1502945742691e-07 5.02229457351349e-09)
(3.96541367621324e-37 -1.21060012066385e-07 5.28559427533429e-09)
(4.17986390903842e-37 -1.27648745845673e-07 5.57326460471115e-09)
(4.42055900475001e-37 -1.34960373106668e-07 5.89249714512181e-09)
(4.67448415162685e-37 -1.42809674687345e-07 6.23520505330743e-09)
(4.95110988521025e-37 -1.51085727158725e-07 6.59654530776819e-09)
(5.23582862189257e-37 -1.59839937727137e-07 6.97876239560475e-09)
(5.54184171424653e-37 -1.69112324397595e-07 7.38360354064926e-09)
(5.85703835621628e-37 -1.7872519932836e-07 7.80331072418805e-09)
(6.18279608024421e-37 -1.88674546455202e-07 8.23770860107007e-09)
(6.52646172602294e-37 -1.99110126879132e-07 8.6933358821765e-09)
(6.87291113527896e-37 -2.09888507923595e-07 9.16393016160499e-09)
(7.23870339591326e-37 -2.20965134016231e-07 9.64754610105449e-09)
(7.61270345401668e-37 -2.32405966935072e-07 1.01470636539498e-08)
(8.00162678024577e-37 -2.44258000643117e-07 1.06645346210266e-08)
(8.39936057438752e-37 -2.56409923061803e-07 1.11950990119775e-08)
(8.80455600259211e-37 -2.68866299755284e-07 1.17389561636385e-08)
(9.2258513412169e-37 -2.81801961731764e-07 1.23037393626774e-08)
(9.66878541862391e-37 -2.95052540921406e-07 1.28822721441811e-08)
(1.01058649831508e-36 -3.08611603185421e-07 1.34742735875832e-08)
(1.05664773935683e-36 -3.22601042454108e-07 1.40850656968155e-08)
(1.10428740298879e-36 -3.37028789731204e-07 1.47149947469792e-08)
(1.15276506552318e-36 -3.51797650107279e-07 1.53598171166828e-08)
(1.20039324971812e-36 -3.66935921811378e-07 1.6020768333289e-08)
(1.25455897329581e-36 -3.82654734351826e-07 1.67070665102072e-08)
(1.30854102588118e-36 -3.98760889591213e-07 1.74102764345896e-08)
(1.36048547839554e-36 -4.15264324735936e-07 1.81308319742378e-08)
(1.41767603362793e-36 -4.32385150147812e-07 1.88783433550923e-08)
(1.47618672411759e-36 -4.50040237526511e-07 1.96491811171784e-08)
(1.53374462133461e-36 -4.68149520779129e-07 2.04398494993851e-08)
(1.59547529390831e-36 -4.86811370617973e-07 2.12546434597661e-08)
(1.65963386741169e-36 -5.06271583911067e-07 2.21042947213433e-08)
(1.72246082622077e-36 -5.26287030886943e-07 2.29781880090454e-08)
(1.79227876217489e-36 -5.46871017253554e-07 2.38769042626276e-08)
(1.86221723221771e-36 -5.68417361852391e-07 2.48176379840446e-08)
(1.93633995705422e-36 -5.9074151552946e-07 2.579233158322e-08)
(2.01164506390378e-36 -6.13776417317517e-07 2.67980571150915e-08)
(2.08934937309046e-36 -6.37755020994425e-07 2.78449855612549e-08)
(2.17151918327782e-36 -6.6293504038696e-07 2.89443689503876e-08)
(2.257649399237e-36 -6.89023157965844e-07 3.00834007625898e-08)
(2.34637396796264e-36 -7.16027679215273e-07 3.12624436231328e-08)
(2.43834721736486e-36 -7.44897591415108e-07 3.25229312114636e-08)
(2.53989431724156e-36 -7.74973441068549e-07 3.38360711661075e-08)
(2.6431518532342e-36 -8.06299378243964e-07 3.52037911206789e-08)
(2.74988765864383e-36 -8.39528885568177e-07 3.66546227428394e-08)
(2.86490013814469e-36 -8.74839036221622e-07 3.81962972146104e-08)
(2.98952090643109e-36 -9.11876043060979e-07 3.98133678557258e-08)
(3.11416463359152e-36 -9.50923757668633e-07 4.15182278939184e-08)
(3.25292806828625e-36 -9.93297825034134e-07 4.33683196299651e-08)
(3.40169009262517e-36 -1.03810141213111e-06 4.53244864883026e-08)
(3.5565591774586e-36 -1.08543969012375e-06 4.73913203411265e-08)
(3.72381457483635e-36 -1.1370203081737e-06 4.96433787609914e-08)
(3.90528151524454e-36 -1.19247985784527e-06 5.20647949929335e-08)
(4.10121254629761e-36 -1.25147741589138e-06 5.46406840065265e-08)
(4.31252602295715e-36 -1.31524499646399e-06 5.7424836701321e-08)
(4.54190813348577e-36 -1.38551912510336e-06 6.049307141979e-08)
(4.78584617015544e-36 -1.46079922410922e-06 6.37798715246321e-08)
(5.04877119565576e-36 -1.54129730834009e-06 6.72944937844809e-08)
(5.34420598679602e-36 -1.63167743318885e-06 7.12405752555668e-08)
(5.66413789653642e-36 -1.72931988813314e-06 7.55037369063366e-08)
(6.01141382525787e-36 -1.8343330449036e-06 8.00887103487342e-08)
(6.39597496541946e-36 -1.95084692649252e-06 8.51758162808374e-08)
(6.8120127218892e-36 -2.07958520014502e-06 9.07966506969196e-08)
(7.2715116269157e-36 -2.21853061406742e-06 9.68631384815851e-08)
(7.75638008775586e-36 -2.36966871898111e-06 1.03461970651523e-07)
(8.31933167920434e-36 -2.54109907688429e-06 1.10946781720719e-07)
(8.92838468972414e-36 -2.72695242537094e-06 1.1906131415835e-07)
(9.59272266893105e-36 -2.9279079737178e-06 1.27835222881872e-07)
(1.03409064561302e-35 -3.15673929297053e-06 1.37826214047445e-07)
(1.11905225488359e-35 -3.41737048610855e-06 1.49205617691221e-07)
(1.2149698388458e-35 -3.7095959622156e-06 1.61964457519944e-07)
(1.32704587835701e-35 -4.05039531418251e-06 1.76844078569429e-07)
(1.45438038555488e-35 -4.43978351769338e-06 1.93845134692166e-07)
(1.59110507223489e-35 -4.8540613092937e-06 2.11932893699492e-07)
(1.73389090166134e-35 -5.29017999276686e-06 2.3097424663995e-07)
(1.88059810677373e-35 -5.73469907545949e-06 2.50382368931137e-07)
(2.01968296570501e-35 -6.16909301223941e-06 2.69348417804689e-07)
(2.15815252681203e-35 -6.58906941670838e-06 2.87684983623131e-07)
(2.28254370635802e-35 -6.96589164216722e-06 3.04137397295548e-07)
(2.38800759014586e-35 -7.28728590000662e-06 3.18169773638198e-07)
(2.47560028638135e-35 -7.55362914132594e-06 3.29798570691509e-07)
(2.53424643422785e-35 -7.73533097435051e-06 3.37731844049567e-07)
(2.55212680532981e-35 -7.79479342215923e-06 3.40328030588544e-07)
(2.54633198552224e-35 -7.77682165603219e-06 3.39543366333706e-07)
(2.51884562152215e-35 -7.68109554330731e-06 3.35363873991171e-07)
(2.46242189268268e-35 -7.51504379713071e-06 3.28113898181496e-07)
(2.40033191373026e-35 -7.32581775068006e-06 3.1985211057061e-07)
(2.3310052976806e-35 -7.11618137422924e-06 3.10699188706844e-07)
(2.25679303323532e-35 -6.88664858958552e-06 3.00677570900882e-07)
(2.17925632382913e-35 -6.65027390276127e-06 2.90357229194431e-07)
(2.09928597377475e-35 -6.4109654790421e-06 2.79908797768902e-07)
(2.02120743494123e-35 -6.17258558691203e-06 2.69500906908074e-07)
(1.94525029606895e-35 -5.9424730022858e-06 2.59453974488178e-07)
(1.87287474154684e-35 -5.7210964154901e-06 2.49788463970809e-07)
(1.80635829167961e-35 -5.51114189698552e-06 2.40621651724996e-07)
(1.74368056555178e-35 -5.32459254660161e-06 2.32476731188264e-07)
(1.6892864011774e-35 -5.15696948461581e-06 2.25158150248753e-07)
(1.63979625229786e-35 -5.008973072843e-06 2.18696487363675e-07)
(4.3873741270236e-25 -9.90117164373464e-07 4.32294489864482e-08)
(4.5692569411701e-26 -9.90149037583254e-07 4.32308406009711e-08)
(4.57903153835734e-26 -9.92415846246736e-07 4.33298116046122e-08)
(4.59465093904298e-26 -9.95951906837101e-07 4.34841993441696e-08)
(4.61300117756827e-26 -1.00011912523537e-06 4.36661440287441e-08)
(4.63333657036329e-26 -1.00478853145422e-06 4.38700147070828e-08)
(4.65646580348209e-26 -1.00998011914612e-06 4.40966843209039e-08)
(4.6820667160436e-26 -1.0156289943757e-06 4.43433195398009e-08)
(4.70919763977361e-26 -1.02166268264763e-06 4.460675605897e-08)
(4.73801791370032e-26 -1.02808824876461e-06 4.48873023343593e-08)
(4.76885112240795e-26 -1.03489611353167e-06 4.51845401292834e-08)
(4.80109716599296e-26 -1.04202090482933e-06 4.54956152353669e-08)
(4.83447148243488e-26 -1.04945584601205e-06 4.58202317778745e-08)
(4.86966625660481e-26 -1.0572321946133e-06 4.61597544901914e-08)
(4.90651218745553e-26 -1.06531263863488e-06 4.6512554295294e-08)
(4.94412831251447e-26 -1.07366325769483e-06 4.68771501973224e-08)
(4.98301008742673e-26 -1.08231209241611e-06 4.72547664763146e-08)
(5.02376818317794e-26 -1.09126907504762e-06 4.76458367836226e-08)
(5.06575556283561e-26 -1.10049906500818e-06 4.80488268483379e-08)
(5.10855812084351e-26 -1.11001759886112e-06 4.84644150114651e-08)
(5.15292886309974e-26 -1.11986370704285e-06 4.88943053786603e-08)
(5.19900305526966e-26 -1.13000437388471e-06 4.93370564546982e-08)
(5.24636727941867e-26 -1.14042854035156e-06 4.97921853916775e-08)
(5.29526392456758e-26 -1.15118711753016e-06 5.02619150156507e-08)
(5.34546496743518e-26 -1.16228836549765e-06 5.0746605969374e-08)
(5.39687209677128e-26 -1.17369968951494e-06 5.12448351358046e-08)
(5.4502796702319e-26 -1.18545696427737e-06 5.17581688379682e-08)
(5.50588614229234e-26 -1.19761319094374e-06 5.22889211564333e-08)
(5.56302109291473e-26 -1.21013415296103e-06 5.28355981642316e-08)
(5.62167537735998e-26 -1.22303003526669e-06 5.33986445453357e-08)
(5.68235007326055e-26 -1.23637694220316e-06 5.39813830870958e-08)
(5.74509793663178e-26 -1.25016930840069e-06 5.45835708002212e-08)
(5.80988824069091e-26 -1.26437721754723e-06 5.52039015103196e-08)
(5.87691884087857e-26 -1.27907654377697e-06 5.58456879536316e-08)
(5.9464441370809e-26 -1.29433883040028e-06 5.65120537785476e-08)
(6.01835840131334e-26 -1.31011671496734e-06 5.72009310958492e-08)
(6.09264667148752e-26 -1.32644783804992e-06 5.79139633283916e-08)
(6.17024248171566e-26 -1.34346008330976e-06 5.86567339974291e-08)
(6.25099300694277e-26 -1.36114430246533e-06 5.94288436803645e-08)
(6.3342195766286e-26 -1.37948276707449e-06 6.02295183366972e-08)
(6.42119613198667e-26 -1.39861284789217e-06 6.10647557031159e-08)
(6.51291670272121e-26 -1.41862861077543e-06 6.19386627836349e-08)
(6.60852038345765e-26 -1.43946228270974e-06 6.28482805445359e-08)
(6.70780218324409e-26 -1.46125571284861e-06 6.37998022536126e-08)
(6.81250746956191e-26 -1.48426724811216e-06 6.4804507580995e-08)
(6.92298173167566e-26 -1.5084281814441e-06 6.58593967118203e-08)
(7.0388128510374e-26 -1.53375589958017e-06 6.69652287673652e-08)
(7.16121275624999e-26 -1.56056997321734e-06 6.81359565055861e-08)
(7.2909930018238e-26 -1.58900510929645e-06 6.93774613585357e-08)
(7.42808036967428e-26 -1.61900773438403e-06 7.0687404259594e-08)
(7.57383347338855e-26 -1.65089970878774e-06 7.20798379332783e-08)
(7.73038179777411e-26 -1.68510017360025e-06 7.35730624749061e-08)
(7.89734847365971e-26 -1.72152784178374e-06 7.51635288157606e-08)
(8.0752438004402e-26 -1.76039746193039e-06 7.68606130818643e-08)
(8.26680517243823e-26 -1.80236856320816e-06 7.86931109385657e-08)
(8.47312768572754e-26 -1.84757078330589e-06 8.06666824895967e-08)
(8.69481291836707e-26 -1.89603935336442e-06 8.27828659597861e-08)
(8.93555415923692e-26 -1.9485857588385e-06 8.50770915692441e-08)
(9.19830031191124e-26 -2.00587599256046e-06 8.75784371930015e-08)
(9.48142008702427e-26 -2.06767827983488e-06 9.02767833293136e-08)
(9.78857898320573e-26 -2.13475199869735e-06 9.32052851392381e-08)
(1.01265379568956e-25 -2.2085409826406e-06 9.64269817544715e-08)
(1.04947091284777e-25 -2.2889362303575e-06 9.99371140751654e-08)
(1.08949060803468e-25 -2.37629519826525e-06 1.03751288985543e-07)
(1.13353635603813e-25 -2.47252909986641e-06 1.07952951869228e-07)
(1.1819746933591e-25 -2.57837212295125e-06 1.12574158057413e-07)
(1.23472973958977e-25 -2.69352562072945e-06 1.17601868349638e-07)
(1.29273604528534e-25 -2.82011357890392e-06 1.23128817964415e-07)
(1.3571360906895e-25 -2.96070342702999e-06 1.29267103296983e-07)
(1.42763275034091e-25 -3.11464463850261e-06 1.35988321742376e-07)
(1.50506404045121e-25 -3.28366113082151e-06 1.43367741164131e-07)
(1.5923588638524e-25 -3.47406464039561e-06 1.51680937925251e-07)
(1.69136576502016e-25 -3.69007823066736e-06 1.61112294957597e-07)
(1.80397341911526e-25 -3.93596476611827e-06 1.71847932943923e-07)
(1.93353089312277e-25 -4.2187715273513e-06 1.84195542800297e-07)
(2.07939679653586e-25 -4.53707351783816e-06 1.98092907834652e-07)
(2.23666958634172e-25 -4.88033609020922e-06 2.13080075409619e-07)
(2.40126315459018e-25 -5.23955680421015e-06 2.28763990495216e-07)
(2.56853600937695e-25 -5.60468634824816e-06 2.44705890671718e-07)
(2.73327197596121e-25 -5.96428222607583e-06 2.60406185763736e-07)
(2.89021548779908e-25 -6.30672682559248e-06 2.75357639872606e-07)
(3.03226349530762e-25 -6.61669687701333e-06 2.88891224591081e-07)
(3.15430340248606e-25 -6.88311001863553e-06 3.0052307355756e-07)
(3.25235531502047e-25 -7.09711997379577e-06 3.09866949991693e-07)
(3.31741134109453e-25 -7.23908325191945e-06 3.16065200572974e-07)
(3.3439010501261e-25 -7.29696662229648e-06 3.18592443102366e-07)
(3.33698844392445e-25 -7.28202784016711e-06 3.17940201788691e-07)
(3.30159458969215e-25 -7.20490277451042e-06 3.14572848700229e-07)
(3.24331799330268e-25 -7.07769957907054e-06 3.09019037246331e-07)
(3.17191376697101e-25 -6.92177423144429e-06 3.02211189545611e-07)
(3.09231470391301e-25 -6.74803686482808e-06 2.94625652300683e-07)
(3.00629796225703e-25 -6.56039314677205e-06 2.86432950639473e-07)
(2.91679174322786e-25 -6.36513157598779e-06 2.77907646345209e-07)
(2.82615231816339e-25 -6.16732064522316e-06 2.69271034590389e-07)
(2.73618289671844e-25 -5.97095760537638e-06 2.60697639118271e-07)
(2.64868416656526e-25 -5.77997367834062e-06 2.52359100783494e-07)
(2.56468387412751e-25 -5.59666401316056e-06 2.44355627957465e-07)
(2.48587606197027e-25 -5.42476447313467e-06 2.36850331954372e-07)
(2.41441547493168e-25 -5.26884685405954e-06 2.30042821689481e-07)
(2.35065086404924e-25 -5.12966311831087e-06 2.23965928549147e-07)
(2.09273633170722e-24 -5.06264077634365e-06 2.21039669902248e-07)
(8.02136014728424e-25 -1.84383812295307e-06 8.0503711018793e-08)
(8.50185684017197e-26 -1.8425942613088e-06 8.04494028467984e-08)
(8.50615594212526e-26 -1.84377558671135e-06 8.05009806277555e-08)
(8.51531275723169e-26 -1.84600710229468e-06 8.05984107022391e-08)
(8.52643425164968e-26 -1.84873643645567e-06 8.07175760052206e-08)
(8.53874342205685e-26 -1.85186204990515e-06 8.08540432355929e-08)
(8.55372263117386e-26 -1.85539982163025e-06 8.10085056849061e-08)
(8.57109870849529e-26 -1.85929875580985e-06 8.11787368275263e-08)
(8.58940960866407e-26 -1.86350191425164e-06 8.13622506882892e-08)
(8.60892558189688e-26 -1.86801496549159e-06 8.15592947608206e-08)
(8.63034036496641e-26 -1.87283058769566e-06 8.17695493669423e-08)
(8.652830154027e-26 -1.87789730734254e-06 8.19907671241784e-08)
(8.67586555104434e-26 -1.88320984993867e-06 8.22227177431682e-08)
(8.70064160596477e-26 -1.88879313620984e-06 8.24664892862963e-08)
(8.72703540508003e-26 -1.89461776686932e-06 8.27207981529835e-08)
(8.75349160078577e-26 -1.90065709355589e-06 8.29844808506527e-08)
(8.78082813315269e-26 -1.906933369242e-06 8.32585089650627e-08)
(8.81020212578293e-26 -1.9134546403178e-06 8.35432338091952e-08)
(8.84053420489676e-26 -1.92019320475379e-06 8.38374458863209e-08)
(8.87091666199045e-26 -1.92716137507269e-06 8.41416827727923e-08)
(8.90262115968484e-26 -1.93439036529674e-06 8.44573073022516e-08)
(8.93609917191662e-26 -1.94185403679533e-06 8.47831782374404e-08)
(8.97059640313369e-26 -1.94954375654396e-06 8.51189186523686e-08)
(9.00631620435707e-26 -1.95749999867897e-06 8.54662956859929e-08)
(9.04276402818508e-26 -1.96572948430615e-06 8.58256027881288e-08)
(9.07991735112739e-26 -1.97420647046912e-06 8.61957159970276e-08)
(9.11915157011181e-26 -1.98295939535452e-06 8.65778769507327e-08)
(9.16057983494444e-26 -1.99203070977572e-06 8.69739390917829e-08)
(9.20306287624792e-26 -2.00139320962794e-06 8.73827146633129e-08)
(9.24652424257497e-26 -2.01105504156017e-06 8.78045593556989e-08)
(9.29154248538271e-26 -2.02107695495256e-06 8.82421255441594e-08)
(9.33825269051172e-26 -2.03145462863699e-06 8.86952245624199e-08)
(9.38675820402959e-26 -2.04216438930864e-06 8.91628228116698e-08)
(9.43703968775502e-26 -2.05326652700956e-06 8.96475526119938e-08)
(9.48921339494791e-26 -2.0648184477397e-06 9.01519203634776e-08)
(9.54332736944513e-26 -2.07678236393341e-06 9.06742762253751e-08)
(9.59914605445141e-26 -2.08918813712359e-06 9.12159239803689e-08)
(9.65782598896217e-26 -2.10213820413345e-06 9.17813361167496e-08)
(9.71911893918267e-26 -2.11562515259148e-06 9.23701890033875e-08)
(9.78177327535884e-26 -2.12963491314687e-06 9.29818683591601e-08)
(9.84756140593637e-26 -2.14427703189855e-06 9.36211570700388e-08)
(9.91795076402538e-26 -2.15962708481538e-06 9.42913548540854e-08)
(9.99160970043197e-26 -2.17563081026582e-06 9.49900925973026e-08)
(1.00673532060627e-25 -2.19240052705978e-06 9.57222742448375e-08)
(1.01472391306951e-25 -2.21014416982209e-06 9.64969784184744e-08)
(1.02323255720872e-25 -2.22880579385958e-06 9.73117625201576e-08)
(1.03217050354571e-25 -2.24839925478429e-06 9.81672314989742e-08)
(1.0416045293533e-25 -2.26918028016141e-06 9.90745506615475e-08)
(1.05162241881836e-25 -2.29125676825676e-06 1.00038430947902e-07)
(1.06223854799887e-25 -2.31458515897794e-06 1.0105697048333e-07)
(1.07354716784796e-25 -2.33942157672818e-06 1.02141351900778e-07)
(1.08574442880672e-25 -2.36610383702035e-06 1.03306324544069e-07)
(1.09879901142136e-25 -2.39456464568352e-06 1.04548950286245e-07)
(1.11269496247057e-25 -2.42497424497543e-06 1.05876662064804e-07)
(1.12761841959964e-25 -2.45786325698985e-06 1.07312627340687e-07)
(1.14371533400963e-25 -2.49333379453025e-06 1.08861304455177e-07)
(1.16108537143085e-25 -2.53141190838668e-06 1.10523830810332e-07)
(1.18002111913991e-25 -2.572746746621e-06 1.12328548822619e-07)
(1.20074857120713e-25 -2.61787554587668e-06 1.14298914750456e-07)
(1.22306728376359e-25 -2.66660773166378e-06 1.16426607931921e-07)
(1.24728975085071e-25 -2.71954550482402e-06 1.18737921023581e-07)
(1.27398084961969e-25 -2.77785812384028e-06 1.21283904953303e-07)
(1.30307817383242e-25 -2.8414476236932e-06 1.2406028247597e-07)
(1.33474532582974e-25 -2.91059584186414e-06 1.27079358881766e-07)
(1.36958308187062e-25 -2.98684087019736e-06 1.30408288710891e-07)
(1.4079208595712e-25 -3.07077142785118e-06 1.34072775996905e-07)
(1.44976612733511e-25 -3.1621380898542e-06 1.38061930610372e-07)
(1.4958187233508e-25 -3.26263577660178e-06 1.42449754373909e-07)
(1.54696375120356e-25 -3.37434428242389e-06 1.47327053069018e-07)
(1.60295346774552e-25 -3.49671902930133e-06 1.52670049905894e-07)
(1.66450772476319e-25 -3.63112252162993e-06 1.58538233111175e-07)
(1.73402198993075e-25 -3.78262255472753e-06 1.65152867406907e-07)
(1.81286555252358e-25 -3.95458300329542e-06 1.72660822734374e-07)
(1.90245785772834e-25 -4.15038496457205e-06 1.81209720987074e-07)
(2.00563585342776e-25 -4.37570011602031e-06 1.91047192950909e-07)
(2.12190870366658e-25 -4.62940417385929e-06 2.02124151335908e-07)
(2.24726756139923e-25 -4.90307069753959e-06 2.14072689802321e-07)
(2.37850296195808e-25 -5.18952494115324e-06 2.26579552178675e-07)
(2.51186530838181e-25 -5.48074191856552e-06 2.392943600035e-07)
(2.64322631083556e-25 -5.76759492229698e-06 2.51818632622593e-07)
(2.76845335030067e-25 -6.04076782517132e-06 2.63745619139177e-07)
(2.88180731950403e-25 -6.28808882931547e-06 2.74543887381224e-07)
(2.97915910071693e-25 -6.50069736407456e-06 2.83826576479231e-07)
(3.05734021243827e-25 -6.67135892497425e-06 2.91277821146372e-07)
(3.10921594296978e-25 -6.78453027486535e-06 2.96218988992862e-07)
(3.13046987082175e-25 -6.8310381433338e-06 2.98249566382865e-07)
(3.12503505882178e-25 -6.81944836106159e-06 2.97743545560755e-07)
(3.09688252861856e-25 -6.75822806520702e-06 2.95070609718598e-07)
(3.05062742093684e-25 -6.6572267089487e-06 2.90660795269308e-07)
(2.99380675173216e-25 -6.53301983480107e-06 2.85237806028287e-07)
(2.93035418914722e-25 -6.39448203104819e-06 2.79189114887944e-07)
(2.86173533741023e-25 -6.24486676944382e-06 2.72656771492774e-07)
(2.7903001221681e-25 -6.08909998944631e-06 2.65855847004239e-07)
(2.71798122243314e-25 -5.93125260975142e-06 2.58964081571101e-07)
(2.64619153693586e-25 -5.77453188703222e-06 2.52121507043857e-07)
(2.57635798680766e-25 -5.62205515039844e-06 2.45464228950793e-07)
(2.5092868608598e-25 -5.47568638091508e-06 2.39073630462772e-07)
(2.44631182039544e-25 -5.33841406525282e-06 2.33080191725705e-07)
(2.3892148317154e-25 -5.21386658862189e-06 2.27642331459106e-07)
(2.33832391306395e-25 -5.10274095837725e-06 2.22790481661308e-07)
(2.0796314976991e-24 -5.04878202133164e-06 2.20434583590886e-07)
(1.14073867411604e-24 -2.6703085489809e-06 1.16588189105168e-07)
(1.22993916688644e-25 -2.66799424297421e-06 1.16487144323087e-07)
(1.230001912593e-25 -2.66843056772262e-06 1.16506194673017e-07)
(1.23044389981242e-25 -2.66968659115338e-06 1.1656103384032e-07)
(1.23100866074116e-25 -2.67131187583059e-06 1.16631995301822e-07)
(1.23161340782337e-25 -2.67323025806494e-06 1.16715753679032e-07)
(1.23247172806747e-25 -2.67545327423775e-06 1.16812812661238e-07)
(1.23356283499806e-25 -2.67794359717168e-06 1.16921542508681e-07)
(1.2346894035468e-25 -2.68065922730441e-06 1.17040109480867e-07)
(1.23588808360686e-25 -2.68360426342867e-06 1.17168692534952e-07)
(1.2372649371448e-25 -2.68677347115727e-06 1.17307063132656e-07)
(1.23871650649387e-25 -2.69012899911668e-06 1.17453568647321e-07)
(1.24016475488322e-25 -2.69366686291861e-06 1.17608035116795e-07)
(1.24177801282051e-25 -2.69740554151454e-06 1.17771269349526e-07)
(1.24355014919143e-25 -2.70132354248469e-06 1.179423329662e-07)
(1.2452591057207e-25 -2.70540118185382e-06 1.18120366545897e-07)
(1.24701670483927e-25 -2.70965488670072e-06 1.18306087310368e-07)
(1.24899309539455e-25 -2.71409077798776e-06 1.184997625066e-07)
(1.2510392222929e-25 -2.71868851368066e-06 1.18700503982197e-07)
(1.2530147653176e-25 -2.72345716177666e-06 1.18908707654468e-07)
(1.25509670305902e-25 -2.72841993575024e-06 1.19125387045597e-07)
(1.25736227515977e-25 -2.7335577243894e-06 1.19349707742048e-07)
(1.25970283269226e-25 -2.73886413032333e-06 1.19581390428579e-07)
(1.26213479162108e-25 -2.74436914819599e-06 1.19821744699629e-07)
(1.26458250716744e-25 -2.75007798766596e-06 1.20070998013802e-07)
(1.26705022693015e-25 -2.75597171842862e-06 1.20328323856149e-07)
(1.26973249968499e-25 -2.76207137888449e-06 1.20594640783075e-07)
(1.27263319892977e-25 -2.76840860269127e-06 1.20871329949902e-07)
(1.27559265020322e-25 -2.77496349509614e-06 1.21157522732963e-07)
(1.27859595362283e-25 -2.78174208074109e-06 1.21453482173809e-07)
(1.2817081601861e-25 -2.78878950861377e-06 1.21761179519811e-07)
(1.28495098281428e-25 -2.79610289822279e-06 1.22080489005999e-07)
(1.28834819989304e-25 -2.80366480079191e-06 1.2241064880235e-07)
(1.29187657559236e-25 -2.81151993979147e-06 1.22753611577749e-07)
(1.29553363340007e-25 -2.81971121562069e-06 1.23111250404078e-07)
(1.29933974786108e-25 -2.82821091579797e-06 1.23482355328259e-07)
(1.30324936705565e-25 -2.83704117651172e-06 1.2386789283715e-07)
(1.30739950304382e-25 -2.84627826859824e-06 1.24271192987381e-07)
(1.31175709445027e-25 -2.85591716835244e-06 1.24692036439252e-07)
(1.31613999154514e-25 -2.86594754241451e-06 1.25129972028528e-07)
(1.32077318513757e-25 -2.87645085075045e-06 1.25588556374135e-07)
(1.32585066667057e-25 -2.88748376337376e-06 1.26070263742298e-07)
(1.33119460287968e-25 -2.89900636952159e-06 1.26573351591477e-07)
(1.33658915557539e-25 -2.91110207329417e-06 1.27101461423331e-07)
(1.34226824444335e-25 -2.92392599718616e-06 1.27661366032244e-07)
(1.34840990990611e-25 -2.93743739470982e-06 1.28251286388141e-07)
(1.35487522474403e-25 -2.95164658945979e-06 1.28871673228897e-07)
(1.36167576452678e-25 -2.96674408879698e-06 1.29530844285522e-07)
(1.36890546011049e-25 -2.98281117358558e-06 1.30232348357185e-07)
(1.37660115100602e-25 -2.99981597497326e-06 1.30974794019745e-07)
(1.38481570603005e-25 -3.01794918211355e-06 1.31766506941448e-07)
(1.39372634298627e-25 -3.03746337574356e-06 1.32618515035436e-07)
(1.4033106717699e-25 -3.05830972806011e-06 1.33528686433782e-07)
(1.41348701614354e-25 -3.08061506175095e-06 1.34502558334617e-07)
(1.42435102848685e-25 -3.10477556127829e-06 1.35557428525124e-07)
(1.43608561930191e-25 -3.13086922204763e-06 1.36696702358252e-07)
(1.44883123402186e-25 -3.15891605537582e-06 1.37921253546962e-07)
(1.4628029036888e-25 -3.18940034540725e-06 1.39252226393635e-07)
(1.47815565295191e-25 -3.2227250330939e-06 1.4070721368017e-07)
(1.49465643314856e-25 -3.25874993638599e-06 1.42280094926095e-07)
(1.51256483623657e-25 -3.29792389528271e-06 1.43990466908991e-07)
(1.5323254425227e-25 -3.3411215564963e-06 1.45876517529024e-07)
(1.55388049679091e-25 -3.38827358242491e-06 1.4793521944112e-07)
(1.57737720144592e-25 -3.43959032587308e-06 1.50175756847068e-07)
(1.60318696369155e-25 -3.49622124442872e-06 1.5264831614899e-07)
(1.63160204197003e-25 -3.55861076349598e-06 1.55372301379083e-07)
(1.66272042747653e-25 -3.62657459677789e-06 1.58339666423857e-07)
(1.69700768846063e-25 -3.701377861174e-06 1.61605647480036e-07)
(1.73507624535754e-25 -3.78457926680324e-06 1.65238299301134e-07)
(1.77674446684463e-25 -3.87577734673248e-06 1.69220093462302e-07)
(1.82261963947405e-25 -3.9759864991254e-06 1.73595319543853e-07)
(1.87454716988142e-25 -4.08899383374503e-06 1.78529326328938e-07)
(1.93342532027415e-25 -4.21731987152671e-06 1.84132162138217e-07)
(2.00021678831801e-25 -4.36349213117227e-06 1.90514180821429e-07)
(2.07722265817324e-25 -4.53175745698153e-06 1.97860803605091e-07)
(2.1641056369513e-25 -4.72129705281871e-06 2.06136281077866e-07)
(2.25776350338296e-25 -4.92582145713579e-06 2.15066009418179e-07)
(2.35585499327843e-25 -5.139965534089e-06 2.24415741736257e-07)
(2.45552376036764e-25 -5.35773070996208e-06 2.33923574647542e-07)
(2.55372243943025e-25 -5.57229149539812e-06 2.43291500850899e-07)
(2.64746340793284e-25 -5.77668138718877e-06 2.52215356247474e-07)
(2.73233281062208e-25 -5.96179373206992e-06 2.60297535769015e-07)
(2.80518462653242e-25 -6.1209891698422e-06 2.67248158688907e-07)
(2.86375535489749e-25 -6.24885104093895e-06 2.72830728543055e-07)
(2.90269728659789e-25 -6.33374812864177e-06 2.76537415442358e-07)
(2.91869471432599e-25 -6.36881343576581e-06 2.78068399814775e-07)
(2.91469533845722e-25 -6.36046101022406e-06 2.77703725040048e-07)
(2.89360043850184e-25 -6.31473535598544e-06 2.75707299860875e-07)
(2.85904664441048e-25 -6.23923492862328e-06 2.72410880012238e-07)
(2.81662924199464e-25 -6.14635063819709e-06 2.6835546431083e-07)
(2.76919256610184e-25 -6.04272395496825e-06 2.63831025610563e-07)
(2.71781523015835e-25 -5.93079200653388e-06 2.58943971200317e-07)
(2.66432337440831e-25 -5.81423784983099e-06 2.53855106818747e-07)
(2.61021378078829e-25 -5.69610815694283e-06 2.48697453041741e-07)
(2.55650199424199e-25 -5.57880457624976e-06 2.43575868102122e-07)
(2.50425561068005e-25 -5.46466208833491e-06 2.38592299453821e-07)
(2.45404355547351e-25 -5.35507861576879e-06 2.3380778171438e-07)
(2.40683857093874e-25 -5.25229415940323e-06 2.29320115433108e-07)
(2.36406567552929e-25 -5.1590286369552e-06 2.2524805478216e-07)
(2.32597891348042e-25 -5.07580754452573e-06 2.21614543416801e-07)
(2.07119852264884e-24 -5.03498135197771e-06 2.19832033354124e-07)
(1.45646635847616e-24 -3.47115989299832e-06 1.51554113914518e-07)
(1.59637030493835e-25 -3.46797126262256e-06 1.51414895306181e-07)
(1.59624251534415e-25 -3.4679774251758e-06 1.51415164369066e-07)
(1.59637872960595e-25 -3.46855294427256e-06 1.51440292075493e-07)
(1.59656655308307e-25 -3.46937257979938e-06 1.51476078135435e-07)
(1.59671599161685e-25 -3.47038478241306e-06 1.51520271855963e-07)
(1.59710446689127e-25 -3.47159700591102e-06 1.515731986769e-07)
(1.59771991052796e-25 -3.47298503563161e-06 1.51633801363286e-07)
(1.59831446095494e-25 -3.47452123085631e-06 1.51700873095288e-07)
(1.59893253892614e-25 -3.47620817883551e-06 1.51774526834698e-07)
(1.59971700532252e-25 -3.47804263571074e-06 1.51854620951595e-07)
(1.60054469589591e-25 -3.47999983509813e-06 1.51940074122309e-07)
(1.60131134744627e-25 -3.48207700469553e-06 1.52030765305513e-07)
(1.60223285486815e-25 -3.48428637620626e-06 1.52127228548907e-07)
(1.60331133186361e-25 -3.4866140312278e-06 1.52228856161914e-07)
(1.60425862720102e-25 -3.4890469680414e-06 1.52335080477233e-07)
(1.60521393849806e-25 -3.49159594076557e-06 1.52446371029818e-07)
(1.60640226993674e-25 -3.49426514800266e-06 1.52562911134608e-07)
(1.60763584002512e-25 -3.49704129391916e-06 1.52684120282974e-07)
(1.60872392333263e-25 -3.49993024292188e-06 1.52810254520448e-07)
(1.6098912518611e-25 -3.50294740097465e-06 1.52941986485937e-07)
(1.6112479219511e-25 -3.50608038236141e-06 1.53078775407397e-07)
(1.61265296232729e-25 -3.50932488904675e-06 1.53220433628553e-07)
(1.61411899337424e-25 -3.5127006805179e-06 1.53367823867247e-07)
(1.61554452617952e-25 -3.5162114081436e-06 1.5352110554568e-07)
(1.61693867198706e-25 -3.519844664917e-06 1.53679736962236e-07)
(1.61855214956481e-25 -3.52361421594735e-06 1.53844319114563e-07)
(1.62038317041788e-25 -3.52754108775247e-06 1.54015770040256e-07)
(1.62222706036863e-25 -3.53161237440054e-06 1.54193526254162e-07)
(1.62406087804189e-25 -3.53583193808405e-06 1.54377756383247e-07)
(1.62595656455753e-25 -3.54022963842087e-06 1.54569764126583e-07)
(1.62794383950842e-25 -3.54480386512197e-06 1.5476947917743e-07)
(1.63005997025537e-25 -3.54954311565889e-06 1.54976399324553e-07)
(1.63226098579296e-25 -3.55447681493337e-06 1.55191809286904e-07)
(1.63453017567894e-25 -3.55963356349962e-06 1.55416957791649e-07)
(1.63690332802088e-25 -3.56499531231923e-06 1.55651056800753e-07)
(1.63931280813457e-25 -3.57057651221468e-06 1.5589473725075e-07)
(1.64191661155252e-25 -3.5764277053039e-06 1.56150205858166e-07)
(1.64467467375833e-25 -3.58254598644021e-06 1.56417335781557e-07)
(1.64734760362606e-25 -3.58892449633764e-06 1.56695827538031e-07)
(1.65020606034114e-25 -3.59561702492501e-06 1.56988029646598e-07)