/*--------------------------------*- C++ -*----------------------------------*\
| =========                 |                                                 |
| \\      /  F ield         | foam-extend: Open Source CFD                    |
|  \\    /   O peration     | Version:     4.1-20200408                       |
|   \\  /    A nd           | Web:         http://www.foam-extend.org         |
|    \\/     M anipulation  |                                                 |
\*---------------------------------------------------------------------------*/
FoamFile
{
    version     2.0;
    format      ascii;
    class       volVectorField;
    location    "0.0505000";
    object      DU;
}
// * * * * * * * * * * * * * * * * * * * * * * * * * * * * * * * * * * * * * //

dimensions      [0 1 0 0 0 0 0];

internalField   nonuniform List<vector> 
1952
(
(4.99997e-05 -1.08175e-09 0)
(4.99997e-05 -1.67232e-09 0)
(4.99997e-05 -2.47313e-09 0)
(4.99998e-05 -3.0049e-09 0)
(4.99999e-05 -3.86719e-09 0)
(5e-05 -4.3659e-09 0)
(5.00001e-05 -5.24168e-09 0)
(5.00003e-05 -5.70715e-09 0)
(5.00005e-05 -6.54632e-09 0)
(5.00008e-05 -6.93054e-09 0)
(5.00013e-05 -7.65334e-09 0)
(5.00019e-05 -7.86794e-09 0)
(5.0003e-05 -8.30735e-09 0)
(5.00048e-05 -8.18837e-09 0)
(5.00085e-05 -7.96564e-09 0)
(4.99996e-05 -4.53219e-10 0)
(4.99996e-05 -5.72277e-10 0)
(4.99997e-05 -8.97696e-10 0)
(4.99998e-05 -1.28633e-09 0)
(4.99998e-05 -1.5758e-09 0)
(5e-05 -1.96243e-09 0)
(5.00001e-05 -2.20523e-09 0)
(5.00004e-05 -2.55508e-09 0)
(5.00006e-05 -2.73141e-09 0)
(5.00011e-05 -3.01825e-09 0)
(5.00015e-05 -3.10123e-09 0)
(5.0002e-05 -3.29197e-09 0)
(5.00027e-05 -3.2324e-09 0)
(5.00036e-05 -3.28387e-09 0)
(5.00046e-05 -3.09381e-09 0)
(5.0006e-05 -3.0967e-09 0)
(4.99996e-05 -2.4193e-10 0)
(4.99997e-05 -4.13092e-10 0)
(4.99998e-05 -6.61667e-10 0)
(4.99999e-05 -9.17115e-10 0)
(4.99999e-05 -1.13889e-09 0)
(5.00001e-05 -1.37256e-09 0)
(5.00003e-05 -1.54459e-09 0)
(5.00006e-05 -1.72868e-09 0)
(5.00008e-05 -1.82607e-09 0)
(5.00013e-05 -1.94209e-09 0)
(5.00017e-05 -1.94866e-09 0)
(5.00023e-05 -1.98133e-09 0)
(5.0003e-05 -1.87547e-09 0)
(5.00039e-05 -1.83082e-09 0)
(5.00049e-05 -1.67107e-09 0)
(5.00062e-05 -1.63806e-09 0)
(4.99997e-05 -1.76687e-10 0)
(5e-05 -2.69433e-10 0)
(5e-05 -4.30827e-10 0)
(5.00001e-05 -5.87412e-10 0)
(5.00002e-05 -7.23264e-10 0)
(5.00004e-05 -8.50709e-10 0)
(5.00006e-05 -9.37285e-10 0)
(5.00009e-05 -1.01514e-09 0)
(5.00012e-05 -1.03259e-09 0)
(5.00017e-05 -1.0487e-09 0)
(5.00021e-05 -9.87374e-10 0)
(5.00027e-05 -9.39417e-10 0)
(5.00033e-05 -8.0378e-10 0)
(5.00042e-05 -7.24383e-10 0)
(5.0005e-05 -5.85695e-10 0)
(5.00059e-05 -5.96419e-10 0)
(4.99999e-05 -1.15504e-10 0)
(5.00003e-05 -1.4514e-10 0)
(5.00004e-05 -2.29543e-10 0)
(5.00005e-05 -3.05439e-10 0)
(5.00006e-05 -3.65393e-10 0)
(5.00008e-05 -4.11718e-10 0)
(5.0001e-05 -4.27067e-10 0)
(5.00014e-05 -4.29788e-10 0)
(5.00016e-05 -3.86967e-10 0)
(5.00021e-05 -3.41208e-10 0)
(5.00025e-05 -2.40622e-10 0)
(5.00031e-05 -1.56027e-10 0)
(5.00037e-05 -1.73398e-11 0)
(5.00044e-05 6.50075e-11 0)
(5.00051e-05 1.75957e-10 0)
(5.00059e-05 1.7115e-10 0)
(5.00003e-05 -6.24351e-11 0)
(5.00008e-05 -4.15774e-11 0)
(5.00008e-05 -6.16861e-11 0)
(5.0001e-05 -7.30802e-11 0)
(5.00011e-05 -7.05052e-11 0)
(5.00013e-05 -5.58242e-11 0)
(5.00015e-05 -1.50288e-11 0)
(5.00019e-05 3.43049e-11 0)
(5.00021e-05 1.20735e-10 0)
(5.00026e-05 2.04177e-10 0)
(5.0003e-05 3.29286e-10 0)
(5.00036e-05 4.31432e-10 0)
(5.00041e-05 5.68527e-10 0)
(5.00047e-05 6.48386e-10 0)
(5.00053e-05 7.41308e-10 0)
(5.00059e-05 7.33214e-10 0)
(5.00007e-05 -1.80905e-11 0)
(5.00013e-05 4.16281e-11 0)
(5.00013e-05 7.29133e-11 0)
(5.00015e-05 1.11857e-10 0)
(5.00016e-05 1.6314e-10 0)
(5.00019e-05 2.22765e-10 0)
(5.0002e-05 3.04865e-10 0)
(5.00024e-05 3.89134e-10 0)
(5.00026e-05 5.04416e-10 0)
(5.00031e-05 6.08893e-10 0)
(5.00035e-05 7.45911e-10 0)
(5.0004e-05 8.53133e-10 0)
(5.00044e-05 9.84212e-10 0)
(5.0005e-05 1.05934e-09 0)
(5.00055e-05 1.14116e-09 0)
(5.00059e-05 1.1414e-09 0)
(5.00012e-05 1.75815e-11 0)
(5.00018e-05 1.05279e-10 0)
(5.00019e-05 1.75601e-10 0)
(5.0002e-05 2.52073e-10 0)
(5.00022e-05 3.39364e-10 0)
(5.00024e-05 4.30685e-10 0)
(5.00026e-05 5.41803e-10 0)
(5.0003e-05 6.48435e-10 0)
(5.00032e-05 7.8211e-10 0)
(5.00036e-05 8.97516e-10 0)
(5.00039e-05 1.0402e-09 0)
(5.00045e-05 1.14768e-09 0)
(5.00048e-05 1.27356e-09 0)
(5.00053e-05 1.34548e-09 0)
(5.00057e-05 1.422e-09 0)
(5.0006e-05 1.43073e-09 0)
(5.00018e-05 4.49007e-11 0)
(5.00024e-05 1.51352e-10 0)
(5.00025e-05 2.49713e-10 0)
(5.00026e-05 3.52625e-10 0)
(5.00027e-05 4.65001e-10 0)
(5.0003e-05 5.77276e-10 0)
(5.00032e-05 7.07448e-10 0)
(5.00035e-05 8.27034e-10 0)
(5.00037e-05 9.71384e-10 0)
(5.00042e-05 1.09102e-09 0)
(5.00044e-05 1.23545e-09 0)
(5.00049e-05 1.34074e-09 0)
(5.00052e-05 1.46268e-09 0)
(5.00056e-05 1.53328e-09 0)
(5.00059e-05 1.60913e-09 0)
(5.00062e-05 1.62895e-09 0)
(5.00024e-05 6.46954e-11 0)
(5.0003e-05 1.81959e-10 0)
(5.00031e-05 2.98795e-10 0)
(5.00032e-05 4.18668e-10 0)
(5.00033e-05 5.4705e-10 0)
(5.00036e-05 6.71617e-10 0)
(5.00037e-05 8.13216e-10 0)
(5.00041e-05 9.38854e-10 0)
(5.00043e-05 1.08877e-09 0)
(5.00047e-05 1.20854e-09 0)
(5.00049e-05 1.35308e-09 0)
(5.00053e-05 1.4556e-09 0)
(5.00056e-05 1.57555e-09 0)
(5.00059e-05 1.6467e-09 0)
(5.00061e-05 1.72504e-09 0)
(5.00064e-05 1.75629e-09 0)
(5.0003e-05 7.78623e-11 0)
(5.00036e-05 1.99399e-10 0)
(5.00037e-05 3.26641e-10 0)
(5.00038e-05 4.55592e-10 0)
(5.00039e-05 5.9258e-10 0)
(5.00042e-05 7.2256e-10 0)
(5.00043e-05 8.69743e-10 0)
(5.00047e-05 9.96335e-10 0)
(5.00048e-05 1.14831e-09 0)
(5.00052e-05 1.26561e-09 0)
(5.00054e-05 1.40959e-09 0)
(5.00058e-05 1.50938e-09 0)
(5.0006e-05 1.62916e-09 0)
(5.00063e-05 1.70241e-09 0)
(5.00064e-05 1.78561e-09 0)
(5.00066e-05 1.82873e-09 0)
(5.00036e-05 8.53818e-11 0)
(5.00042e-05 2.05799e-10 0)
(5.00043e-05 3.36743e-10 0)
(5.00044e-05 4.68288e-10 0)
(5.00045e-05 6.0796e-10 0)
(5.00048e-05 7.37905e-10 0)
(5.00049e-05 8.86321e-10 0)
(5.00052e-05 1.01009e-09 0)
(5.00053e-05 1.1619e-09 0)
(5.00057e-05 1.27507e-09 0)
(5.00059e-05 1.41852e-09 0)
(5.00062e-05 1.51592e-09 0)
(5.00064e-05 1.6372e-09 0)
(5.00066e-05 1.71374e-09 0)
(5.00067e-05 1.80342e-09 0)
(5.00069e-05 1.85836e-09 0)
(5.00042e-05 8.81639e-11 0)
(5.00048e-05 2.03096e-10 0)
(5.00048e-05 3.3226e-10 0)
(5.0005e-05 4.61125e-10 0)
(5.00051e-05 5.98787e-10 0)
(5.00053e-05 7.24384e-10 0)
(5.00054e-05 8.70786e-10 0)
(5.00057e-05 9.88882e-10 0)
(5.00058e-05 1.13909e-09 0)
(5.00062e-05 1.24702e-09 0)
(5.00063e-05 1.39025e-09 0)
(5.00066e-05 1.48567e-09 0)
(5.00068e-05 1.60983e-09 0)
(5.0007e-05 1.69057e-09 0)
(5.00071e-05 1.78794e-09 0)
(5.00072e-05 1.85464e-09 0)
(5.00048e-05 8.70386e-11 0)
(5.00053e-05 1.92937e-10 0)
(5.00054e-05 3.15853e-10 0)
(5.00055e-05 4.3777e-10 0)
(5.00056e-05 5.69701e-10 0)
(5.00058e-05 6.87525e-10 0)
(5.00059e-05 8.29496e-10 0)
(5.00062e-05 9.39725e-10 0)
(5.00063e-05 1.08744e-09 0)
(5.00067e-05 1.18934e-09 0)
(5.00068e-05 1.33282e-09 0)
(5.00071e-05 1.42661e-09 0)
(5.00072e-05 1.55483e-09 0)
(5.00074e-05 1.64046e-09 0)
(5.00074e-05 1.74643e-09 0)
(5.00075e-05 1.82479e-09 0)
(5.00053e-05 8.27111e-11 0)
(5.00058e-05 1.76716e-10 0)
(5.00059e-05 2.8978e-10 0)
(5.0006e-05 4.01283e-10 0)
(5.00061e-05 5.2457e-10 0)
(5.00063e-05 6.31838e-10 0)
(5.00064e-05 7.67605e-10 0)
(5.00067e-05 8.68184e-10 0)
(5.00068e-05 1.01288e-09 0)
(5.00071e-05 1.10811e-09 0)
(5.00072e-05 1.25235e-09 0)
(5.00075e-05 1.34478e-09 0)
(5.00076e-05 1.47808e-09 0)
(5.00078e-05 1.56914e-09 0)
(5.00078e-05 1.68447e-09 0)
(5.00078e-05 1.77451e-09 0)
(5.00058e-05 7.57808e-11 0)
(5.00063e-05 1.55568e-10 0)
(5.00063e-05 2.55849e-10 0)
(5.00065e-05 3.54131e-10 0)
(5.00065e-05 4.66445e-10 0)
(5.00068e-05 5.60893e-10 0)
(5.00069e-05 6.89105e-10 0)
(5.00072e-05 7.78558e-10 0)
(5.00072e-05 9.19929e-10 0)
(5.00076e-05 1.00791e-09 0)
(5.00076e-05 1.15341e-09 0)
(5.00079e-05 1.24469e-09 0)
(5.0008e-05 1.38392e-09 0)
(5.00082e-05 1.48092e-09 0)
(5.00082e-05 1.60631e-09 0)
(5.00082e-05 1.70821e-09 0)
(5.00062e-05 6.67332e-11 0)
(5.00067e-05 1.30457e-10 0)
(5.00067e-05 2.15617e-10 0)
(5.00069e-05 2.98377e-10 0)
(5.00069e-05 3.97928e-10 0)
(5.00072e-05 4.77618e-10 0)
(5.00073e-05 5.97324e-10 0)
(5.00076e-05 6.74308e-10 0)
(5.00077e-05 8.12243e-10 0)
(5.0008e-05 8.92393e-10 0)
(5.00081e-05 1.03967e-09 0)
(5.00083e-05 1.12988e-09 0)
(5.00084e-05 1.27586e-09 0)
(5.00086e-05 1.37928e-09 0)
(5.00086e-05 1.51545e-09 0)
(5.00086e-05 1.6296e-09 0)
(5.00066e-05 5.5984e-11 0)
(5.0007e-05 1.02198e-10 0)
(5.00071e-05 1.70365e-10 0)
(5.00073e-05 2.35761e-10 0)
(5.00073e-05 3.21121e-10 0)
(5.00076e-05 3.84445e-10 0)
(5.00077e-05 4.9491e-10 0)
(5.0008e-05 5.5824e-10 0)
(5.00081e-05 6.9269e-10 0)
(5.00084e-05 7.6442e-10 0)
(5.00085e-05 9.13946e-10 0)
(5.00088e-05 1.00315e-09 0)
(5.00088e-05 1.15661e-09 0)
(5.0009e-05 1.26697e-09 0)
(5.0009e-05 1.41468e-09 0)
(5.00091e-05 1.54174e-09 0)
(5.0007e-05 4.38817e-11 0)
(5.00073e-05 7.15847e-11 0)
(5.00074e-05 1.21373e-10 0)
(5.00076e-05 1.67942e-10 0)
(5.00076e-05 2.38126e-10 0)
(5.00079e-05 2.83669e-10 0)
(5.0008e-05 3.84484e-10 0)
(5.00084e-05 4.32987e-10 0)
(5.00085e-05 5.64073e-10 0)
(5.00088e-05 6.26707e-10 0)
(5.00089e-05 7.78986e-10 0)
(5.00092e-05 8.67148e-10 0)
(5.00093e-05 1.02884e-09 0)
(5.00095e-05 1.14671e-09 0)
(5.00095e-05 1.30684e-09 0)
(5.00095e-05 1.44774e-09 0)
(5.00073e-05 3.07686e-11 0)
(5.00076e-05 3.94169e-11 0)
(5.00076e-05 6.98905e-11 0)
(5.00078e-05 9.66104e-11 0)
(5.00079e-05 1.50972e-10 0)
(5.00082e-05 1.77613e-10 0)
(5.00083e-05 2.68554e-10 0)
(5.00087e-05 3.01192e-10 0)
(5.00088e-05 4.29071e-10 0)
(5.00092e-05 4.81936e-10 0)
(5.00093e-05 6.3742e-10 0)
(5.00096e-05 7.2449e-10 0)
(5.00097e-05 8.95115e-10 0)
(5.00099e-05 1.02116e-09 0)
(5.001e-05 1.19467e-09 0)
(5.001e-05 1.35068e-09 0)
(5.00075e-05 1.69863e-11 0)
(5.00078e-05 6.66559e-12 0)
(5.00078e-05 1.74788e-11 0)
(5.0008e-05 2.3796e-11 0)
(5.00081e-05 6.22176e-11 0)
(5.00085e-05 6.90814e-11 0)
(5.00086e-05 1.50316e-10 0)
(5.0009e-05 1.66073e-10 0)
(5.00091e-05 2.9112e-10 0)
(5.00096e-05 3.33439e-10 0)
(5.00097e-05 4.92656e-10 0)
(5.00101e-05 5.7848e-10 0)
(5.00102e-05 7.58779e-10 0)
(5.00104e-05 8.93718e-10 0)
(5.00105e-05 1.08171e-09 0)
(5.00105e-05 1.25436e-09 0)
(5.00077e-05 2.95323e-12 0)
(5.00079e-05 -2.5493e-11 0)
(5.00079e-05 -3.40059e-11 0)
(5.00082e-05 -4.801e-11 0)
(5.00083e-05 -2.5105e-11 0)
(5.00087e-05 -3.84585e-11 0)
(5.00088e-05 3.3561e-11 0)
(5.00093e-05 3.16382e-11 0)
(5.00094e-05 1.54332e-10 0)
(5.00099e-05 1.85367e-10 0)
(5.00101e-05 3.488e-10 0)
(5.00105e-05 4.33209e-10 0)
(5.00107e-05 6.23853e-10 0)
(5.00109e-05 7.68475e-10 0)
(5.0011e-05 9.72104e-10 0)
(5.00111e-05 1.16329e-09 0)
(5.00078e-05 -1.08271e-11 0)
(5.00079e-05 -5.54579e-11 0)
(5.0008e-05 -8.2002e-11 0)
(5.00083e-05 -1.15424e-10 0)
(5.00084e-05 -1.06771e-10 0)
(5.00088e-05 -1.40278e-10 0)
(5.0009e-05 -7.63671e-11 0)
(5.00095e-05 -9.6605e-11 0)
(5.00097e-05 2.45604e-11 0)
(5.00102e-05 4.34891e-11 0)
(5.00105e-05 2.11737e-10 0)
(5.00109e-05 2.94402e-10 0)
(5.00112e-05 4.9607e-10 0)
(5.00115e-05 6.51147e-10 0)
(5.00116e-05 8.71647e-10 0)
(5.00117e-05 1.08354e-09 0)
(5.00079e-05 -2.36668e-11 0)
(5.00079e-05 -8.11638e-11 0)
(5.0008e-05 -1.23222e-10 0)
(5.00083e-05 -1.74043e-10 0)
(5.00084e-05 -1.77362e-10 0)
(5.00089e-05 -2.30164e-10 0)
(5.00091e-05 -1.72598e-10 0)
(5.00097e-05 -2.11356e-10 0)
(5.00099e-05 -9.06226e-11 0)
(5.00105e-05 -8.45142e-11 0)
(5.00109e-05 8.9116e-11 0)
(5.00113e-05 1.6965e-10 0)
(5.00117e-05 3.8286e-10 0)
(5.0012e-05 5.49153e-10 0)
(5.00122e-05 7.87704e-10 0)
(5.00123e-05 1.02272e-09 0)
(5.00078e-05 -3.46802e-11 0)
(5.00078e-05 -9.97845e-11 0)
(5.00079e-05 -1.53149e-10 0)
(5.00082e-05 -2.17837e-10 0)
(5.00084e-05 -2.29393e-10 0)
(5.00089e-05 -2.99597e-10 0)
(5.00092e-05 -2.45564e-10 0)
(5.00098e-05 -3.02581e-10 0)
(5.00101e-05 -1.80604e-10 0)
(5.00108e-05 -1.88054e-10 0)
(5.00112e-05 -8.31118e-12 0)
(5.00118e-05 6.94244e-11 0)
(5.00122e-05 2.94606e-10 0)
(5.00126e-05 4.72674e-10 0)
(5.00129e-05 7.30374e-10 0)
(5.00131e-05 9.91123e-10 0)
(5.00077e-05 -4.26543e-11 0)
(5.00076e-05 -1.07672e-10 0)
(5.00077e-05 -1.65952e-10 0)
(5.00081e-05 -2.38984e-10 0)
(5.00083e-05 -2.53196e-10 0)
(5.00089e-05 -3.37445e-10 0)
(5.00092e-05 -2.82893e-10 0)
(5.00099e-05 -3.57079e-10 0)
(5.00103e-05 -2.31618e-10 0)
(5.0011e-05 -2.53141e-10 0)
(5.00115e-05 -6.65735e-11 0)
(5.00122e-05 7.52901e-12 0)
(5.00127e-05 2.4476e-10 0)
(5.00132e-05 4.34943e-10 0)
(5.00136e-05 7.12586e-10 0)
(5.00138e-05 1.00177e-09 0)
(5.00075e-05 -4.60232e-11 0)
(5.00074e-05 -9.99752e-11 0)
(5.00075e-05 -1.53875e-10 0)
(5.00079e-05 -2.27066e-10 0)
(5.00081e-05 -2.35867e-10 0)
(5.00088e-05 -3.28871e-10 0)
(5.00091e-05 -2.67967e-10 0)
(5.00099e-05 -3.57235e-10 0)
(5.00104e-05 -2.25075e-10 0)
(5.00112e-05 -2.61099e-10 0)
(5.00119e-05 -6.67559e-11 0)
(5.00126e-05 2.38447e-12 0)
(5.00133e-05 2.51468e-10 0)
(5.00139e-05 4.53558e-10 0)
(5.00143e-05 7.51558e-10 0)
(5.00147e-05 1.07182e-09 0)
(5.00073e-05 -4.27054e-11 0)
(5.00071e-05 -7.05238e-11 0)
(5.00072e-05 -1.07034e-10 0)
(5.00077e-05 -1.68785e-10 0)
(5.00079e-05 -1.6094e-10 0)
(5.00087e-05 -2.54825e-10 0)
(5.0009e-05 -1.79562e-10 0)
(5.00099e-05 -2.80309e-10 0)
(5.00105e-05 -1.37197e-10 0)
(5.00114e-05 -1.87724e-10 0)
(5.00122e-05 1.53393e-11 0)
(5.00131e-05 7.78164e-11 0)
(5.00138e-05 3.37861e-10 0)
(5.00146e-05 5.51035e-10 0)
(5.00152e-05 8.69033e-10 0)
(5.00156e-05 1.22277e-09 0)
(5.0007e-05 -3.00516e-11 0)
(5.00068e-05 -1.13811e-11 0)
(5.00069e-05 -1.27212e-11 0)
(5.00074e-05 -4.69966e-11 0)
(5.00077e-05 -7.17449e-12 0)
(5.00085e-05 -9.07072e-11 0)
(5.00089e-05 9.8712e-12 0)
(5.00099e-05 -9.68837e-11 0)
(5.00106e-05 6.30637e-11 0)
(5.00116e-05 -1.67279e-12 0)
(5.00125e-05 2.1143e-10 0)
(5.00135e-05 2.64695e-10 0)
(5.00144e-05 5.34223e-10 0)
(5.00153e-05 7.56505e-10 0)
(5.00161e-05 1.09323e-09 0)
(5.00167e-05 1.48228e-09 0)
(5.00067e-05 -4.65582e-12 0)
(5.00064e-05 8.73529e-11 0)
(5.00066e-05 1.44945e-10 0)
(5.00071e-05 1.59759e-10 0)
(5.00074e-05 2.52028e-10 0)
(5.00083e-05 1.94441e-10 0)
(5.00087e-05 3.34914e-10 0)
(5.00098e-05 2.30277e-10 0)
(5.00106e-05 4.14769e-10 0)
(5.00117e-05 3.36887e-10 0)
(5.00128e-05 5.61428e-10 0)
(5.00139e-05 6.02198e-10 0)
(5.0015e-05 8.78522e-10 0)
(5.00161e-05 1.1066e-09 0)
(5.00171e-05 1.45922e-09 0)
(5.00179e-05 1.88458e-09 0)
(5.00063e-05 3.77325e-11 0)
(5.00062e-05 2.38003e-10 0)
(5.00063e-05 3.85749e-10 0)
(5.00069e-05 4.78282e-10 0)
(5.00071e-05 6.49946e-10 0)
(5.0008e-05 6.39431e-10 0)
(5.00085e-05 8.39122e-10 0)
(5.00097e-05 7.48044e-10 0)
(5.00106e-05 9.67477e-10 0)
(5.00118e-05 8.78275e-10 0)
(5.0013e-05 1.11625e-09 0)
(5.00143e-05 1.13993e-09 0)
(5.00157e-05 1.41923e-09 0)
(5.0017e-05 1.64768e-09 0)
(5.00181e-05 2.01151e-09 0)
(5.00192e-05 2.47278e-09 0)
(5.00061e-05 1.02404e-10 0)
(5.0006e-05 4.55582e-10 0)
(5.00061e-05 7.33818e-10 0)
(5.00067e-05 9.41362e-10 0)
(5.00069e-05 1.22733e-09 0)
(5.00079e-05 1.29205e-09 0)
(5.00084e-05 1.57614e-09 0)
(5.00096e-05 1.51455e-09 0)
(5.00105e-05 1.78257e-09 0)
(5.00119e-05 1.68525e-09 0)
(5.00133e-05 1.93917e-09 0)
(5.00148e-05 1.9398e-09 0)
(5.00163e-05 2.21646e-09 0)
(5.00179e-05 2.43724e-09 0)
(5.00193e-05 2.80483e-09 0)
(5.00206e-05 3.29966e-09 0)
(5.00059e-05 1.95803e-10 0)
(5.00059e-05 7.58163e-10 0)
(5.0006e-05 1.21826e-09 0)
(5.00066e-05 1.58867e-09 0)
(5.00068e-05 2.03364e-09 0)
(5.00078e-05 2.21054e-09 0)
(5.00083e-05 2.61165e-09 0)
(5.00095e-05 2.60126e-09 0)
(5.00105e-05 2.93592e-09 0)
(5.0012e-05 2.83561e-09 0)
(5.00135e-05 3.10904e-09 0)
(5.00152e-05 3.07896e-09 0)
(5.0017e-05 3.34536e-09 0)
(5.00188e-05 3.54688e-09 0)
(5.00206e-05 3.90731e-09 0)
(5.00222e-05 4.43058e-09 0)
(5.00058e-05 3.25689e-10 0)
(5.00062e-05 1.16705e-09 0)
(5.00062e-05 1.87344e-09 0)
(5.00068e-05 2.46725e-09 0)
(5.00069e-05 3.12772e-09 0)
(5.00078e-05 3.46461e-09 0)
(5.00082e-05 4.02468e-09 0)
(5.00095e-05 4.09465e-09 0)
(5.00105e-05 4.51995e-09 0)
(5.0012e-05 4.42443e-09 0)
(5.00137e-05 4.72278e-09 0)
(5.00156e-05 4.65217e-09 0)
(5.00177e-05 4.89849e-09 0)
(5.00198e-05 5.06439e-09 0)
(5.00219e-05 5.40219e-09 0)
(5.0024e-05 5.94495e-09 0)
(5.00061e-05 5.01207e-10 0)
(5.00069e-05 1.70681e-09 0)
(5.00068e-05 2.73909e-09 0)
(5.00073e-05 3.63179e-09 0)
(5.00072e-05 4.57825e-09 0)
(5.00081e-05 5.13636e-09 0)
(5.00084e-05 5.90873e-09 0)
(5.00096e-05 6.09828e-09 0)
(5.00106e-05 6.6457e-09 0)
(5.00121e-05 6.56742e-09 0)
(5.00139e-05 6.89857e-09 0)
(5.00159e-05 6.77607e-09 0)
(5.00184e-05 6.98965e-09 0)
(5.00208e-05 7.09791e-09 0)
(5.00234e-05 7.39154e-09 0)
(5.00259e-05 7.93977e-09 0)
(5.00068e-05 7.32894e-10 0)
(5.00081e-05 2.405e-09 0)
(5.00078e-05 3.85998e-09 0)
(5.00083e-05 5.14428e-09 0)
(5.0008e-05 6.4637e-09 0)
(5.00087e-05 7.32028e-09 0)
(5.00089e-05 8.37277e-09 0)
(5.00099e-05 8.73361e-09 0)
(5.00108e-05 9.4455e-09 0)
(5.00122e-05 9.40295e-09 0)
(5.00142e-05 9.78002e-09 0)
(5.00163e-05 9.59223e-09 0)
(5.0019e-05 9.75855e-09 0)
(5.00218e-05 9.77937e-09 0)
(5.00249e-05 1.00001e-08 0)
(5.0028e-05 1.05328e-08 0)
(5.0008e-05 1.03258e-09 0)
(5.00101e-05 3.29131e-09 0)
(5.00097e-05 5.2845e-09 0)
(5.001e-05 7.07243e-09 0)
(5.00094e-05 8.87037e-09 0)
(5.00099e-05 1.01221e-08 0)
(5.00097e-05 1.15397e-08 0)
(5.00105e-05 1.21406e-08 0)
(5.00112e-05 1.3073e-08 0)
(5.00125e-05 1.30954e-08 0)
(5.00144e-05 1.35388e-08 0)
(5.00166e-05 1.32729e-08 0)
(5.00196e-05 1.33758e-08 0)
(5.00228e-05 1.32709e-08 0)
(5.00265e-05 1.33808e-08 0)
(5.00303e-05 1.38682e-08 0)
(5.00101e-05 1.41299e-09 0)
(5.00131e-05 4.39616e-09 0)
(5.00125e-05 7.06265e-09 0)
(5.00126e-05 9.48695e-09 0)
(5.00116e-05 1.18898e-08 0)
(5.00118e-05 1.36556e-08 0)
(5.00111e-05 1.55446e-08 0)
(5.00115e-05 1.64757e-08 0)
(5.00119e-05 1.77042e-08 0)
(5.00129e-05 1.78357e-08 0)
(5.00147e-05 1.83789e-08 0)
(5.00168e-05 1.80247e-08 0)
(5.00202e-05 1.80494e-08 0)
(5.00238e-05 1.77699e-08 0)
(5.00281e-05 1.77205e-08 0)
(5.00328e-05 1.81203e-08 0)
(5.00131e-05 1.88717e-09 0)
(5.00175e-05 5.74799e-09 0)
(5.00165e-05 9.24163e-09 0)
(5.00163e-05 1.2456e-08 0)
(5.00149e-05 1.56119e-08 0)
(5.00146e-05 1.80358e-08 0)
(5.00133e-05 2.05276e-08 0)
(5.00132e-05 2.19065e-08 0)
(5.0013e-05 2.35326e-08 0)
(5.00135e-05 2.3841e-08 0)
(5.0015e-05 2.45381e-08 0)
(5.0017e-05 2.40944e-08 0)
(5.00206e-05 2.40321e-08 0)
(5.00246e-05 2.35178e-08 0)
(5.00297e-05 2.32475e-08 0)
(5.00353e-05 2.34994e-08 0)
(5.00176e-05 2.46728e-09 0)
(5.00236e-05 7.3695e-09 0)
(5.00222e-05 1.186e-08 0)
(5.00217e-05 1.60375e-08 0)
(5.00195e-05 2.01157e-08 0)
(5.00186e-05 2.33693e-08 0)
(5.00166e-05 2.66238e-08 0)
(5.00157e-05 2.86033e-08 0)
(5.00147e-05 3.07628e-08 0)
(5.00145e-05 3.13515e-08 0)
(5.00156e-05 3.22894e-08 0)
(5.00172e-05 3.17765e-08 0)
(5.00208e-05 3.16346e-08 0)
(5.00251e-05 3.08174e-08 0)
(5.00311e-05 3.02515e-08 0)
(5.0038e-05 3.02705e-08 0)
(5.00238e-05 3.16301e-09 0)
(5.00318e-05 9.27227e-09 0)
(5.00299e-05 1.49388e-08 0)
(5.00289e-05 2.02665e-08 0)
(5.0026e-05 2.54545e-08 0)
(5.00242e-05 2.97354e-08 0)
(5.00212e-05 3.39438e-08 0)
(5.00193e-05 3.67178e-08 0)
(5.00173e-05 3.95925e-08 0)
(5.00161e-05 4.06162e-08 0)
(5.00163e-05 4.19357e-08 0)
(5.00173e-05 4.14169e-08 0)
(5.00208e-05 4.12451e-08 0)
(5.00254e-05 4.00649e-08 0)
(5.00323e-05 3.91336e-08 0)
(5.00406e-05 3.88112e-08 0)
(5.0032e-05 3.97925e-09 0)
(5.00425e-05 1.1449e-08 0)
(5.00401e-05 1.84692e-08 0)
(5.00385e-05 2.51387e-08 0)
(5.00347e-05 3.16338e-08 0)
(5.00319e-05 3.71625e-08 0)
(5.00276e-05 4.25453e-08 0)
(5.00244e-05 4.63555e-08 0)
(5.0021e-05 5.01814e-08 0)
(5.00185e-05 5.18654e-08 0)
(5.00176e-05 5.37824e-08 0)
(5.00175e-05 5.33953e-08 0)
(5.00206e-05 5.33152e-08 0)
(5.00252e-05 5.17484e-08 0)
(5.0033e-05 5.04171e-08 0)
(5.0043e-05 4.96211e-08 0)
(5.00429e-05 4.91275e-09 0)
(5.00561e-05 1.38655e-08 0)
(5.00532e-05 2.2399e-08 0)
(5.00508e-05 3.05905e-08 0)
(5.0046e-05 3.85858e-08 0)
(5.0042e-05 4.55927e-08 0)
(5.00363e-05 5.2393e-08 0)
(5.00315e-05 5.75267e-08 0)
(5.00263e-05 6.26012e-08 0)
(5.00221e-05 6.52582e-08 0)
(5.00195e-05 6.80901e-08 0)
(5.0018e-05 6.80758e-08 0)
(5.00202e-05 6.83043e-08 0)
(5.00244e-05 6.63659e-08 0)
(5.00331e-05 6.46038e-08 0)
(5.0045e-05 6.30978e-08 0)
(5.00567e-05 5.9487e-09 0)
(5.00732e-05 1.64498e-08 0)
(5.00696e-05 2.66141e-08 0)
(5.00664e-05 3.64728e-08 0)
(5.00604e-05 4.61345e-08 0)
(5.00551e-05 5.48407e-08 0)
(5.00477e-05 6.33069e-08 0)
(5.00411e-05 7.00908e-08 0)
(5.00338e-05 7.67756e-08 0)
(5.00274e-05 8.08334e-08 0)
(5.00225e-05 8.50488e-08 0)
(5.00189e-05 8.58333e-08 0)
(5.00196e-05 8.67789e-08 0)
(5.00228e-05 8.4598e-08 0)
(5.00322e-05 8.23274e-08 0)
(5.00463e-05 7.95937e-08 0)
(5.00739e-05 7.05605e-09 0)
(5.00939e-05 1.9084e-08 0)
(5.00896e-05 3.09251e-08 0)
(5.00857e-05 4.25288e-08 0)
(5.00784e-05 5.39617e-08 0)
(5.00717e-05 6.45419e-08 0)
(5.00624e-05 7.48911e-08 0)
(5.00537e-05 8.36613e-08 0)
(5.0044e-05 9.23641e-08 0)
(5.0035e-05 9.83868e-08 0)
(5.00274e-05 1.04687e-07 0)
(5.00208e-05 1.07086e-07 0)
(5.0019e-05 1.0974e-07 0)
(5.00202e-05 1.08169e-07 0)
(5.00295e-05 1.06028e-07 0)
(5.00463e-05 1.01927e-07 0)
(5.00948e-05 8.1842e-09 0)
(5.01186e-05 2.15974e-08 0)
(5.01137e-05 3.50536e-08 0)
(5.01089e-05 4.83716e-08 0)
(5.01004e-05 6.15726e-08 0)
(5.00921e-05 7.40983e-08 0)
(5.00809e-05 8.64497e-08 0)
(5.00701e-05 9.74675e-08 0)
(5.00578e-05 1.08546e-07 0)
(5.00459e-05 1.17133e-07 0)
(5.0035e-05 1.26377e-07 0)
(5.00249e-05 1.31626e-07 0)
(5.00197e-05 1.37887e-07 0)
(5.00175e-05 1.39392e-07 0)
(5.00249e-05 1.40813e-07 0)
(5.00437e-05 1.38787e-07 0)
(5.01197e-05 9.25985e-09 0)
(5.01472e-05 2.37695e-08 0)
(5.01416e-05 3.86366e-08 0)
(5.0136e-05 5.34886e-08 0)
(5.01263e-05 6.82947e-08 0)
(5.01166e-05 8.2666e-08 0)
(5.01036e-05 9.69429e-08 0)
(5.00906e-05 1.10259e-07 0)
(5.00756e-05 1.23799e-07 0)
(5.0061e-05 1.35262e-07 0)
(5.00468e-05 1.47912e-07 0)
(5.00333e-05 1.5685e-07 0)
(5.00246e-05 1.68247e-07 0)
(5.00186e-05 1.75224e-07 0)
(5.00228e-05 1.84756e-07 0)
(5.00396e-05 1.91497e-07 0)
(5.01485e-05 1.01886e-08 0)
(5.01796e-05 2.53421e-08 0)
(5.01734e-05 4.12479e-08 0)
(5.0167e-05 5.72713e-08 0)
(5.01562e-05 7.33231e-08 0)
(5.0145e-05 8.92142e-08 0)
(5.01302e-05 1.05078e-07 0)
(5.01152e-05 1.20417e-07 0)
(5.00977e-05 1.36064e-07 0)
(5.00804e-05 1.50109e-07 0)
(5.00629e-05 1.65639e-07 0)
(5.0046e-05 1.77565e-07 0)
(5.00338e-05 1.92954e-07 0)
(5.00238e-05 2.0329e-07 0)
(5.00238e-05 2.17751e-07 0)
(5.00346e-05 2.28647e-07 0)
(5.0181e-05 1.08601e-08 0)
(5.0215e-05 2.60392e-08 0)
(5.02083e-05 4.24317e-08 0)
(5.02012e-05 5.90724e-08 0)
(5.01894e-05 7.5805e-08 0)
(5.01769e-05 9.26664e-08 0)
(5.01605e-05 1.09533e-07 0)
(5.01435e-05 1.26355e-07 0)
(5.01234e-05 1.43446e-07 0)
(5.01033e-05 1.59467e-07 0)
(5.00821e-05 1.76919e-07 0)
(5.00614e-05 1.90733e-07 0)
(5.00446e-05 2.08391e-07 0)
(5.00291e-05 2.19164e-07 0)
(5.00233e-05 2.34571e-07 0)
(5.00265e-05 2.43948e-07 0)
(5.02166e-05 1.11562e-08 0)
(5.02529e-05 2.55892e-08 0)
(5.02457e-05 4.17411e-08 0)
(5.02379e-05 5.82553e-08 0)
(5.02251e-05 7.4909e-08 0)
(5.02114e-05 9.19759e-08 0)
(5.01935e-05 1.09051e-07 0)
(5.01745e-05 1.26597e-07 0)
(5.01519e-05 1.44282e-07 0)
(5.01289e-05 1.61565e-07 0)
(5.01035e-05 1.79936e-07 0)
(5.00783e-05 1.94908e-07 0)
(5.00556e-05 2.13768e-07 0)
(5.00327e-05 2.236e-07 0)
(5.00201e-05 2.39642e-07 0)
(5.00158e-05 2.46112e-07 0)
(5.02546e-05 1.09608e-08 0)
(5.02918e-05 2.37423e-08 0)
(5.02842e-05 3.8765e-08 0)
(5.02758e-05 5.42378e-08 0)
(5.02623e-05 6.98752e-08 0)
(5.02474e-05 8.61874e-08 0)
(5.02281e-05 1.02482e-07 0)
(5.02074e-05 1.19781e-07 0)
(5.01823e-05 1.37038e-07 0)
(5.01562e-05 1.54738e-07 0)
(5.01262e-05 1.72954e-07 0)
(5.00961e-05 1.88646e-07 0)
(5.00658e-05 2.07711e-07 0)
(5.00342e-05 2.16301e-07 0)
(5.00135e-05 2.34285e-07 0)
(4.99996e-05 2.36194e-07 0)
(5.02937e-05 1.01669e-08 0)
(5.03306e-05 2.02937e-08 0)
(5.03225e-05 3.3162e-08 0)
(5.03136e-05 4.65211e-08 0)
(5.02994e-05 6.003e-08 0)
(5.02835e-05 7.44082e-08 0)
(5.02631e-05 8.86895e-08 0)
(5.02406e-05 1.04465e-07 0)
(5.02134e-05 1.19981e-07 0)
(5.01841e-05 1.369e-07 0)
(5.01496e-05 1.53688e-07 0)
(5.01141e-05 1.69791e-07 0)
(5.0075e-05 1.88014e-07 0)
(5.00342e-05 1.97146e-07 0)
(5.00046e-05 2.17472e-07 0)
(4.99735e-05 2.11714e-07 0)
(5.03325e-05 8.68729e-09 0)
(5.03674e-05 1.50642e-08 0)
(5.0359e-05 2.46243e-08 0)
(5.03496e-05 3.46333e-08 0)
(5.03347e-05 4.46894e-08 0)
(5.03178e-05 5.56793e-08 0)
(5.02964e-05 6.64364e-08 0)
(5.02725e-05 7.91041e-08 0)
(5.02432e-05 9.13266e-08 0)
(5.0211e-05 1.05961e-07 0)
(5.01724e-05 1.20053e-07 0)
(5.01316e-05 1.36029e-07 0)
(5.00837e-05 1.52554e-07 0)
(5.00332e-05 1.65494e-07 0)
(4.99877e-05 1.8341e-07 0)
(4.993e-05 1.63488e-07 0)
(5.03695e-05 6.44656e-09 0)
(5.04006e-05 7.89443e-09 0)
(5.03917e-05 1.29217e-08 0)
(5.03816e-05 1.83177e-08 0)
(5.03659e-05 2.36413e-08 0)
(5.03479e-05 2.99442e-08 0)
(5.03255e-05 3.59481e-08 0)
(5.03002e-05 4.42519e-08 0)
(5.02695e-05 5.20794e-08 0)
(5.02351e-05 6.34424e-08 0)
(5.01941e-05 7.39439e-08 0)
(5.01498e-05 8.74223e-08 0)
(5.00952e-05 9.84804e-08 0)
(5.00323e-05 1.08824e-07 0)
(4.99534e-05 1.12628e-07 0)
(4.98572e-05 7.53602e-08 0)
(5.04028e-05 3.37627e-09 0)
(5.04275e-05 -9.32977e-10 0)
(5.04182e-05 -1.36114e-09 0)
(5.04075e-05 -1.3215e-09 0)
(5.03911e-05 -1.08357e-09 0)
(5.03725e-05 5.42067e-10 0)
(5.03503e-05 1.66026e-09 0)
(5.03254e-05 4.46839e-09 0)
(5.02951e-05 5.62426e-09 0)
(5.02595e-05 9.86297e-09 0)
(5.0214e-05 1.0733e-08 0)
(5.01612e-05 1.25118e-08 0)
(5.00942e-05 6.16739e-09 0)
(5.00123e-05 -4.43762e-09 0)
(4.98946e-05 -2.66267e-08 0)
(4.97533e-05 -7.66092e-08 0)
(5.04299e-05 -4.15805e-10 0)
(5.04496e-05 -1.03004e-08 0)
(5.04406e-05 -1.66745e-08 0)
(5.04303e-05 -2.28743e-08 0)
(5.04143e-05 -2.91172e-08 0)
(5.03946e-05 -3.44689e-08 0)
(5.03692e-05 -4.20151e-08 0)
(5.03396e-05 -5.0642e-08 0)
(5.03042e-05 -6.42915e-08 0)
(5.02621e-05 -7.89043e-08 0)
(5.02081e-05 -1.01455e-07 0)
(5.01418e-05 -1.24674e-07 0)
(5.00561e-05 -1.59203e-07 0)
(4.99506e-05 -1.95971e-07 0)
(4.98033e-05 -2.43407e-07 0)
(4.96254e-05 -3.00409e-07 0)
(5.04517e-05 -4.43927e-09 0)
(5.04632e-05 -2.30432e-08 0)
(5.04523e-05 -3.8253e-08 0)
(5.04391e-05 -5.49751e-08 0)
(5.04195e-05 -7.41743e-08 0)
(5.03942e-05 -9.56724e-08 0)
(5.0361e-05 -1.21969e-07 0)
(5.03209e-05 -1.51633e-07 0)
(5.02734e-05 -1.88823e-07 0)
(5.02175e-05 -2.29547e-07 0)
(5.015e-05 -2.80002e-07 0)
(5.0069e-05 -3.30873e-07 0)
(4.99675e-05 -3.92983e-07 0)
(4.98441e-05 -4.51655e-07 0)
(4.96778e-05 -5.20003e-07 0)
(4.94767e-05 -5.8134e-07 0)
(5.04659e-05 -9.86842e-09 0)
(5.0447e-05 -4.72144e-08 0)
(5.04315e-05 -7.87139e-08 0)
(5.04109e-05 -1.13456e-07 0)
(5.03821e-05 -1.52839e-07 0)
(5.03461e-05 -1.9677e-07 0)
(5.03018e-05 -2.4698e-07 0)
(5.02494e-05 -3.0173e-07 0)
(5.01889e-05 -3.64412e-07 0)
(5.01192e-05 -4.30682e-07 0)
(5.00388e-05 -5.06087e-07 0)
(4.99444e-05 -5.80433e-07 0)
(4.98309e-05 -6.6432e-07 0)
(4.96951e-05 -7.39184e-07 0)
(4.95203e-05 -8.21941e-07 0)
(4.93111e-05 -8.82911e-07 0)
(5.04515e-05 -2.0155e-08 0)
(5.03769e-05 -8.37759e-08 0)
(5.0356e-05 -1.38662e-07 0)
(5.03273e-05 -1.97421e-07 0)
(5.02888e-05 -2.61205e-07 0)
(5.02417e-05 -3.29703e-07 0)
(5.01859e-05 -4.04243e-07 0)
(5.01215e-05 -4.83075e-07 0)
(5.0049e-05 -5.68631e-07 0)
(4.99674e-05 -6.56475e-07 0)
(4.98765e-05 -7.51563e-07 0)
(4.97726e-05 -8.43399e-07 0)
(4.96528e-05 -9.42113e-07 0)
(4.95123e-05 -1.02654e-06 0)
(4.93403e-05 -1.11568e-06 0)
(4.91381e-05 -1.17111e-06 0)
(5.03836e-05 -3.57622e-08 0)
(5.02388e-05 -1.27927e-07 0)
(5.02135e-05 -2.10004e-07 0)
(5.01782e-05 -2.95374e-07 0)
(5.01319e-05 -3.84513e-07 0)
(5.0076e-05 -4.76994e-07 0)
(5.00112e-05 -5.73698e-07 0)
(4.99379e-05 -6.73074e-07 0)
(4.98571e-05 -7.76849e-07 0)
(4.97676e-05 -8.80888e-07 0)
(4.96706e-05 -9.89487e-07 0)
(4.95623e-05 -1.09249e-06 0)
(4.94426e-05 -1.19943e-06 0)
(4.93056e-05 -1.288e-06 0)
(4.91467e-05 -1.37813e-06 0)
(4.89641e-05 -1.4267e-06 0)
(5.02475e-05 -5.46738e-08 0)
(5.00279e-05 -1.7245e-07 0)
(5.00006e-05 -2.81326e-07 0)
(4.99621e-05 -3.92178e-07 0)
(4.9912e-05 -5.04566e-07 0)
(4.98518e-05 -6.18017e-07 0)
(4.97827e-05 -7.3296e-07 0)
(4.97051e-05 -8.48275e-07 0)
(4.96208e-05 -9.65201e-07 0)
(4.95285e-05 -1.08024e-06 0)
(4.94306e-05 -1.197e-06 0)
(4.93235e-05 -1.30616e-06 0)
(4.92099e-05 -1.41646e-06 0)
(4.90835e-05 -1.50593e-06 0)
(4.89456e-05 -1.59459e-06 0)
(4.87914e-05 -1.63768e-06 0)
(5.00379e-05 -7.38031e-08 0)
(4.97516e-05 -2.09787e-07 0)
(4.9725e-05 -3.409e-07 0)
(4.96871e-05 -4.72664e-07 0)
(4.96376e-05 -6.03709e-07 0)
(4.95781e-05 -7.33558e-07 0)
(4.95097e-05 -8.62162e-07 0)
(4.94331e-05 -9.88883e-07 0)
(4.93502e-05 -1.11452e-06 0)
(4.92601e-05 -1.23639e-06 0)
(4.91663e-05 -1.35737e-06 0)
(4.90654e-05 -1.4694e-06 0)
(4.89631e-05 -1.58015e-06 0)
(4.88529e-05 -1.66921e-06 0)
(4.87415e-05 -1.75576e-06 0)
(4.8622e-05 -1.79568e-06 0)
(4.97617e-05 -8.98829e-08 0)
(4.94268e-05 -2.34282e-07 0)
(4.9403e-05 -3.80019e-07 0)
(4.93685e-05 -5.25635e-07 0)
(4.93233e-05 -6.69033e-07 0)
(4.92685e-05 -8.09744e-07 0)
(4.92051e-05 -9.47211e-07 0)
(4.91336e-05 -1.08117e-06 0)
(4.90564e-05 -1.2119e-06 0)
(4.89728e-05 -1.33755e-06 0)
(4.8887e-05 -1.46015e-06 0)
(4.87967e-05 -1.57319e-06 0)
(4.87093e-05 -1.68298e-06 0)
(4.86193e-05 -1.77159e-06 0)
(4.8538e-05 -1.85645e-06 0)
(4.84571e-05 -1.89594e-06 0)
(4.94361e-05 -1.00449e-07 0)
(4.90758e-05 -2.43222e-07 0)
(4.90555e-05 -3.94489e-07 0)
(4.9026e-05 -5.45674e-07 0)
(4.89869e-05 -6.94267e-07 0)
(4.89389e-05 -8.39825e-07 0)
(4.8883e-05 -9.81271e-07 0)
(4.88195e-05 -1.11855e-06 0)
(4.87507e-05 -1.25128e-06 0)
(4.86766e-05 -1.37835e-06 0)
(4.86016e-05 -1.50082e-06 0)
(4.85246e-05 -1.61385e-06 0)
(4.84547e-05 -1.72212e-06 0)
(4.83875e-05 -1.81079e-06 0)
(4.83383e-05 -1.89474e-06 0)
(4.82979e-05 -1.93644e-06 0)
(4.90838e-05 -1.04307e-07 0)
(4.87215e-05 -2.37074e-07 0)
(4.87045e-05 -3.84965e-07 0)
(4.86796e-05 -5.3349e-07 0)
(4.86465e-05 -6.80066e-07 0)
(4.86057e-05 -8.24342e-07 0)
(4.85578e-05 -9.64785e-07 0)
(4.85032e-05 -1.10143e-06 0)
(4.84441e-05 -1.23316e-06 0)
(4.83808e-05 -1.35945e-06 0)
(4.83182e-05 -1.48031e-06 0)
(4.8256e-05 -1.59254e-06 0)
(4.82047e-05 -1.69897e-06 0)
(4.81616e-05 -1.78829e-06 0)