/*--------------------------------*- C++ -*----------------------------------*\
| =========                 |                                                 |
| \\      /  F ield         | foam-extend: Open Source CFD                    |
|  \\    /   O peration     | Version:     4.1-20200408                       |
|   \\  /    A nd           | Web:         http://www.foam-extend.org         |
|    \\/     M anipulation  |                                                 |
\*---------------------------------------------------------------------------*/
FoamFile
{
    version     2.0;
    format      ascii;
    class       volTensorField;
    location    "0.0505000";
    object      grad(DU);
}
// * * * * * * * * * * * * * * * * * * * * * * * * * * * * * * * * * * * * * //

dimensions      [0 0 0 0 0 0 0];

internalField   nonuniform List<tensor> 
1952
(
(1.77024e-06 -1.33333e-05 7.06179e-11 4.52275e-07 -1.45127e-05 5.43974e-13 1.22149e-14 1.04568e-13 -1.53786e-05)
(1.59334e-06 -3.11281e-06 4.8609e-11 9.10485e-07 -1.55919e-05 -1.64737e-13 -1.48806e-14 -2.58741e-13 -1.45558e-05)
(1.1618e-06 -2.47707e-05 -5.14913e-11 1.17812e-06 -1.49627e-05 -2.96377e-12 -1.14023e-14 7.62104e-14 -1.54921e-05)
(8.28401e-07 -1.21666e-05 -1.46702e-10 1.66401e-06 -1.55271e-05 -1.00118e-13 6.65283e-14 -1.19441e-13 -1.46727e-05)
(3.99889e-08 -3.66962e-05 4.26984e-11 1.82485e-06 -1.53648e-05 5.46193e-12 2.98027e-14 -2.52679e-13 -1.54735e-05)
(-4.60856e-07 -2.52425e-05 2.16512e-10 2.40821e-06 -1.54243e-05 2.72204e-12 -1.2749e-13 1.95474e-13 -1.47909e-05)
(-1.63784e-06 -4.99791e-05 5.48948e-11 3.36869e-06 -1.53221e-05 -4.74162e-12 8.19292e-14 -8.88221e-13 -1.53975e-05)
(-2.62079e-06 -4.09592e-05 -1.10665e-10 4.58279e-06 -1.48352e-05 -2.04452e-12 3.528e-13 -1.16212e-12 -1.47958e-05)
(-4.42651e-06 -6.66252e-05 2.05625e-11 6.19701e-06 -1.42162e-05 5.23092e-12 2.88485e-14 -1.52626e-13 -1.51871e-05)
(-6.16537e-06 -6.13148e-05 1.12776e-10 8.13671e-06 -1.28483e-05 1.21675e-13 -3.2529e-13 9.8477e-13 -1.45477e-05)
(-8.71429e-06 -8.94648e-05 -1.35934e-11 1.17114e-05 -1.11965e-05 -5.10532e-12 1.55357e-13 7.76511e-13 -1.46672e-05)
(-1.16218e-05 -8.7041e-05 -7.03295e-11 1.86761e-05 -7.92118e-06 2.20258e-13 9.09774e-13 -4.64876e-13 -1.38699e-05)
(-1.59249e-05 -0.000118427 8.41763e-12 3.19672e-05 -4.27344e-06 4.50958e-12 2.74241e-14 -3.39705e-14 -1.35562e-05)
(-2.12491e-05 -0.000127078 1.00082e-10 6.06125e-05 3.23395e-06 1.04227e-12 -4.09529e-12 -2.72282e-13 -1.24341e-05)
(-2.92862e-05 -0.000169812 2.60863e-11 0.000121835 1.09809e-05 -8.67108e-13 -3.83559e-12 -6.88428e-13 -1.1308e-05)
(1.87356e-06 9.63361e-07 1.66245e-11 3.59542e-07 -1.55987e-05 -4.98256e-13 1.10714e-14 -1.24848e-12 -1.48058e-05)
(-7.82483e-07 -3.54249e-06 -6.99578e-16 7.20949e-07 -7.79706e-06 1.87113e-13 1.99312e-14 3.62197e-14 -8.13219e-06)
(-8.91056e-07 -5.32078e-06 1.47361e-15 1.52445e-06 -8.04621e-06 -1.97662e-13 -2.8542e-14 -1.93651e-13 -7.81874e-06)
(-1.12055e-06 -8.22296e-06 5.14358e-16 1.90359e-06 -7.63739e-06 -1.38864e-12 -1.39979e-14 5.54732e-14 -8.05955e-06)
(-1.27879e-06 -9.80943e-06 -2.87121e-15 2.82124e-06 -7.63204e-06 4.93233e-13 1.67964e-13 1.39853e-13 -7.69724e-06)
(-1.73009e-06 -1.31335e-05 -4.59832e-17 3.27054e-06 -7.18739e-06 2.59178e-12 5.30843e-14 -1.14934e-13 -7.85411e-06)
(-2.09707e-06 -1.47846e-05 1.90532e-15 4.2799e-06 -6.83094e-06 3.51527e-13 -2.16315e-13 -9.21391e-14 -7.47287e-06)
(-2.84362e-06 -1.84005e-05 1.02302e-15 5.47552e-06 -6.19171e-06 -2.58301e-12 1.90033e-13 -3.68333e-13 -7.5071e-06)
(-3.25844e-06 -2.02385e-05 -9.24613e-16 7.07565e-06 -5.54928e-06 -4.17734e-13 6.27081e-13 -3.05072e-13 -7.08237e-06)
(-4.11485e-06 -2.39733e-05 -4.6643e-17 8.96242e-06 -4.6048e-06 2.31008e-12 5.25868e-14 -5.92019e-14 -7.00285e-06)
(-4.55992e-06 -2.58137e-05 -1.34692e-15 1.07793e-05 -3.56677e-06 -4.71069e-13 -4.20046e-13 3.30026e-13 -6.50993e-06)
(-5.55411e-06 -2.93188e-05 1.46276e-15 1.34795e-05 -2.02133e-06 -2.14009e-12 -2.46732e-14 3.56137e-13 -6.30855e-06)
(-5.72803e-06 -3.0754e-05 2.70071e-15 1.71742e-05 -4.26447e-07 3.27199e-13 4.15854e-13 -3.11205e-13 -5.69751e-06)
(-5.15216e-06 -3.30986e-05 -4.30319e-16 2.13936e-05 1.10068e-06 1.76144e-12 3.50324e-14 -9.60283e-15 -5.35773e-06)
(-1.94059e-06 -3.30377e-05 -2.78297e-15 2.59463e-05 1.78309e-06 2.4084e-13 -2.88953e-13 6.04291e-13 -4.69795e-06)
(7.47781e-06 -3.25355e-05 6.89394e-16 3.11161e-05 -7.64214e-07 -5.16157e-13 4.90646e-14 5.36446e-14 -4.39931e-06)
(-7.48676e-07 -1.4617e-06 1.79937e-17 5.66193e-07 -8.20707e-06 -2.85294e-13 1.80622e-14 -6.6669e-13 -7.9455e-06)
(-3.31891e-06 -3.01517e-06 -4.91337e-16 7.61904e-07 -5.75838e-06 1.34972e-13 2.63479e-14 6.8233e-15 -5.86574e-06)
(-3.45641e-06 -4.64785e-06 1.0619e-15 1.63857e-06 -5.69161e-06 -1.45881e-13 -2.7669e-14 -1.8779e-13 -5.76623e-06)
(-3.657e-06 -6.95864e-06 4.78949e-16 2.01859e-06 -5.38811e-06 -9.90214e-13 -1.43243e-14 5.50788e-14 -5.74686e-06)
(-3.83353e-06 -8.48719e-06 -2.06858e-15 3.00936e-06 -5.17003e-06 3.56647e-13 1.83923e-13 2.60246e-13 -5.56445e-06)
(-4.22766e-06 -1.10684e-05 -2.14198e-16 3.57399e-06 -4.67753e-06 1.81308e-12 5.7024e-14 -7.13021e-14 -5.49422e-06)
(-4.57581e-06 -1.26227e-05 1.34884e-15 4.74433e-06 -4.17727e-06 2.46184e-13 -2.26747e-13 -2.17323e-13 -5.23506e-06)
(-5.20651e-06 -1.53313e-05 9.06804e-16 5.90554e-06 -3.42664e-06 -1.74791e-12 2.2131e-13 -1.91485e-13 -5.07973e-06)
(-5.50419e-06 -1.69121e-05 -4.41271e-16 7.48615e-06 -2.72229e-06 -2.7928e-13 6.76196e-13 7.88455e-15 -4.73533e-06)
(-6.07999e-06 -1.96071e-05 -3.98343e-16 9.31744e-06 -1.78304e-06 1.48653e-12 5.7457e-14 -2.81836e-14 -4.50621e-06)
(-6.19458e-06 -2.10437e-05 -6.78771e-16 1.13503e-05 -8.81544e-07 -2.96048e-13 -5.65937e-13 7.64924e-14 -4.09049e-06)
(-6.72241e-06 -2.3418e-05 1.11195e-15 1.40991e-05 3.4517e-07 -1.288e-12 -7.6666e-14 1.86667e-13 -3.79662e-06)
(-6.38246e-06 -2.41779e-05 1.57359e-15 1.72964e-05 1.25049e-06 1.89838e-13 3.80157e-13 -2.04702e-13 -3.30532e-06)
(-5.49048e-06 -2.54763e-05 -4.03463e-16 2.11663e-05 1.92152e-06 9.81903e-13 3.54581e-14 -2.09391e-15 -2.98655e-06)
(-3.40862e-06 -2.49703e-05 -1.49793e-15 2.49077e-05 1.91042e-06 1.30057e-13 -1.59766e-13 4.12974e-13 -2.53712e-06)
(4.39304e-07 -2.48881e-05 4.56309e-16 2.64753e-05 7.22433e-07 -2.52955e-13 3.67348e-13 -1.16567e-14 -2.32652e-06)
(-3.31185e-06 -1.25865e-06 1.35748e-17 5.56388e-07 -5.87516e-06 -2.09895e-13 1.82196e-14 -4.85031e-13 -5.84259e-06)
(-5.90293e-06 -2.66781e-06 -3.2048e-16 8.54568e-07 -3.74837e-06 8.80381e-14 3.54238e-14 4.92015e-15 -3.8264e-06)
(-6.05848e-06 -4.30226e-06 6.93843e-16 1.85913e-06 -3.60396e-06 -9.50773e-14 -2.53664e-14 -1.3109e-13 -3.75608e-06)
(-6.28197e-06 -6.09005e-06 3.12455e-16 2.26238e-06 -3.32375e-06 -6.3443e-13 -1.75723e-14 3.41158e-14 -3.68188e-06)
(-6.4913e-06 -7.70081e-06 -1.31579e-15 3.37964e-06 -3.0303e-06 2.26621e-13 2.02402e-13 1.98988e-13 -3.53484e-06)
(-6.91091e-06 -9.56633e-06 -1.41951e-16 4.00586e-06 -2.53178e-06 1.12407e-12 6.39896e-14 -3.92783e-14 -3.40623e-06)
(-7.20405e-06 -1.11257e-05 8.19938e-16 5.26688e-06 -2.03079e-06 1.49362e-13 -2.41776e-13 -1.48571e-13 -3.17748e-06)
(-7.74362e-06 -1.29317e-05 5.4899e-16 6.40377e-06 -1.32144e-06 -1.02671e-12 2.56214e-13 -1.08428e-13 -2.98358e-06)
(-7.95366e-06 -1.4327e-05 -2.46249e-16 7.94009e-06 -6.81911e-07 -1.57928e-13 7.2225e-13 2.77635e-14 -2.67808e-06)
(-8.3606e-06 -1.59375e-05 -2.25757e-16 9.63511e-06 1.47963e-07 8.02778e-13 6.31418e-14 -1.19185e-14 -2.43344e-06)
(-8.26803e-06 -1.70042e-05 -3.39076e-16 1.14098e-05 8.4131e-07 -1.50046e-13 -5.75231e-13 8.39044e-14 -2.07256e-06)
(-8.20075e-06 -1.81704e-05 5.40263e-16 1.36371e-05 1.66444e-06 -6.10599e-13 -1.41624e-13 1.07299e-13 -1.79979e-06)
(-7.23502e-06 -1.84992e-05 6.74289e-16 1.57855e-05 2.056e-06 8.13497e-14 2.80386e-13 -2.12239e-13 -1.41607e-06)
(-5.56016e-06 -1.88715e-05 -1.65688e-16 1.81005e-05 2.1566e-06 3.88317e-13 3.38127e-14 1.09943e-15 -1.18107e-06)
(-2.42411e-06 -1.839e-05 -5.24969e-16 1.93901e-05 1.25308e-06 4.5565e-14 8.80205e-14 4.69267e-13 -8.88977e-07)
(2.41034e-06 -1.80089e-05 1.65953e-16 1.95825e-05 -4.83231e-07 -1.0031e-13 3.08588e-13 1.22047e-14 -8.47584e-07)
(-5.88149e-06 -1.13747e-06 9.31184e-18 5.62032e-07 -3.82703e-06 -1.37418e-13 1.81284e-14 -3.16884e-13 -3.82446e-06)
(-7.94381e-06 -2.26866e-06 -1.72759e-16 9.36096e-07 -1.99286e-06 4.74437e-14 4.21987e-14 5.36108e-15 -2.06241e-06)
(-8.06669e-06 -3.67536e-06 3.70961e-16 2.02394e-06 -1.83088e-06 -5.07326e-14 -2.37861e-14 -7.46007e-14 -2.00256e-06)
(-8.24899e-06 -5.12097e-06 1.65038e-16 2.44575e-06 -1.57168e-06 -3.30092e-13 -1.89954e-14 1.35931e-14 -1.91562e-06)
(-8.41215e-06 -6.49906e-06 -6.65964e-16 3.64166e-06 -1.27323e-06 1.14616e-13 2.11925e-13 1.13589e-13 -1.78684e-06)
(-8.72176e-06 -7.91424e-06 -7.23486e-17 4.2882e-06 -8.18379e-07 5.44333e-13 6.8776e-14 -1.44367e-14 -1.64947e-06)
(-8.89822e-06 -9.18203e-06 3.74352e-16 5.58418e-06 -3.76376e-07 6.80246e-14 -2.50315e-13 -5.90702e-14 -1.44857e-06)
(-9.22899e-06 -1.04485e-05 2.3813e-16 6.65385e-06 2.25151e-07 -4.34947e-13 2.82328e-13 -5.32418e-14 -1.2638e-06)
(-9.25194e-06 -1.14823e-05 -9.14121e-17 8.08674e-06 7.27616e-07 -5.9175e-14 7.44283e-13 -1.27044e-14 -1.00402e-06)
(-9.35068e-06 -1.24733e-05 -7.61819e-17 9.59519e-06 1.33946e-06 2.61245e-13 6.67153e-14 -1.31528e-15 -7.91897e-07)
(-8.97978e-06 -1.31084e-05 -8.17128e-17 1.1112e-05 1.76108e-06 -3.6601e-14 -5.84492e-13 1.28536e-13 -5.0494e-07)
(-8.5219e-06 -1.3647e-05 9.1279e-17 1.29222e-05 2.19072e-06 -1.0125e-13 -1.87407e-13 5.73672e-14 -2.98453e-07)
(-7.33033e-06 -1.3663e-05 1.41733e-17 1.43589e-05 2.20338e-06 1.7383e-15 2.34473e-13 -2.18499e-13 -2.9768e-08)
(-5.61273e-06 -1.36654e-05 1.54238e-17 1.58469e-05 1.95076e-06 -3.51711e-14 3.16208e-14 2.32098e-15 1.06964e-07)
(-3.01321e-06 -1.32127e-05 1.58234e-16 1.611e-05 1.05638e-06 -1.37413e-14 1.4208e-13 3.66322e-13 2.67818e-07)
(3.69222e-07 -1.32353e-05 -4.87289e-17 1.53069e-05 -1.99532e-07 2.72634e-14 3.32169e-13 -2.6038e-16 2.43008e-07)
(-7.91214e-06 -9.69859e-07 5.23936e-18 5.89726e-07 -2.05786e-06 -7.44418e-14 1.76707e-14 -1.7114e-13 -2.07131e-06)
(-9.58039e-06 -1.85961e-06 -4.96548e-17 1.00982e-06 -5.29586e-07 1.36215e-14 4.63013e-14 6.06769e-15 -5.92539e-07)
(-9.66831e-06 -3.0115e-06 1.0024e-16 2.17048e-06 -3.80798e-07 -1.3721e-14 -2.34275e-14 -2.46131e-14 -5.39787e-07)
(-9.81409e-06 -4.15494e-06 4.0114e-17 2.60454e-06 -1.48064e-07 -7.92407e-14 -2.04409e-14 -3.9415e-15 -4.59918e-07)
(-9.91778e-06 -5.26239e-06 -1.29185e-16 3.85524e-06 1.13693e-07 2.22884e-14 2.21116e-13 2.88641e-14 -3.46171e-07)
(-1.01355e-05 -6.3174e-06 -1.02687e-17 4.49007e-06 5.04912e-07 7.4235e-14 7.20728e-14 4.43719e-15 -2.25011e-07)
(-1.0196e-05 -7.28734e-06 1.34956e-17 5.77121e-06 8.55699e-07 2.34207e-15 -2.58642e-13 2.86805e-14 -5.21255e-08)
(-1.0356e-05 -8.15362e-06 -1.91756e-17 6.74247e-06 1.32926e-06 3.43321e-14 3.04756e-13 -1.66814e-14 9.98913e-08)
(-1.02171e-05 -8.87472e-06 2.824e-17 8.02394e-06 1.68148e-06 1.8497e-14 7.54053e-13 -7.12293e-14 3.12574e-07)
(-1.00848e-05 -9.45928e-06 4.68501e-17 9.29722e-06 2.09191e-06 -1.56267e-13 6.86501e-14 5.29405e-15 4.73628e-07)
(-9.51423e-06 -9.82206e-06 1.11011e-16 1.04635e-05 2.29517e-06 4.99996e-14 -5.70347e-13 1.77971e-13 6.91501e-07)
(-8.77467e-06 -1.00467e-05 -2.56718e-16 1.1802e-05 2.43757e-06 2.80758e-13 -2.25195e-13 2.91356e-14 8.27429e-07)
(-7.42423e-06 -9.97221e-06 -4.78186e-16 1.25635e-05 2.22068e-06 -5.75719e-14 1.97002e-13 -2.23416e-13 1.00302e-06)
(-5.6329e-06 -9.89861e-06 1.55693e-16 1.33272e-05 1.77355e-06 -3.48182e-13 2.85999e-14 2.8833e-15 1.05892e-06)
(-3.21004e-06 -9.61078e-06 6.66062e-16 1.27795e-05 8.52267e-07 -5.77646e-14 1.6551e-13 3.19182e-13 1.12651e-06)
(-2.85873e-07 -9.6579e-06 -2.11028e-16 1.16606e-05 -2.56363e-07 1.1598e-13 2.94014e-13 3.75348e-18 1.04152e-06)
(-9.55e-06 -7.96673e-07 1.56997e-18 6.24288e-07 -5.86641e-07 -2.17126e-14 2.05298e-14 -4.94562e-14 -6.03852e-07)
(-1.07478e-05 -1.46227e-06 4.93355e-17 1.05525e-06 6.43063e-07 -1.35536e-14 4.81485e-14 6.37415e-15 5.8862e-07)
(-1.07927e-05 -2.3627e-06 -1.17892e-16 2.26289e-06 7.65926e-07 1.59791e-14 -2.33356e-14 1.65562e-14 6.33478e-07)
(-1.08878e-05 -3.23762e-06 -6.15626e-17 2.69145e-06 9.64018e-07 1.20474e-13 -2.02157e-14 -1.76175e-14 6.98923e-07)
(-1.09151e-05 -4.08101e-06 2.97262e-16 3.96256e-06 1.16888e-06 -5.08905e-14 2.29838e-13 -4.35592e-14 7.95541e-07)
(-1.10274e-05 -4.84426e-06 4.18988e-17 4.55739e-06 1.4844e-06 -2.93841e-13 7.40189e-14 1.83955e-14 8.90236e-07)
(-1.09665e-05 -5.54415e-06 -2.674e-16 5.78822e-06 1.73188e-06 -4.86499e-14 -2.69599e-13 1.01477e-13 1.03221e-06)
(-1.09663e-05 -6.11486e-06 -2.22553e-16 6.6421e-06 2.07619e-06 3.93218e-13 3.21881e-13 8.50687e-15 1.14267e-06)
(-1.06792e-05 -6.58497e-06 1.17589e-16 7.7534e-06 2.28202e-06 7.72087e-14 7.59603e-13 -1.2621e-13 1.30767e-06)
(-1.03628e-05 -6.90322e-06 1.42557e-16 8.79596e-06 2.5117e-06 -4.66144e-13 6.87311e-14 9.33864e-15 1.41283e-06)
(-9.65923e-06 -7.07833e-06 2.501e-16 9.64472e-06 2.54124e-06 1.13326e-13 -5.6262e-13 2.16479e-13 1.56621e-06)
(-8.79018e-06 -7.13085e-06 -5.12557e-16 1.06056e-05 2.48487e-06 5.55023e-13 -2.5088e-13 1.33803e-14 1.63567e-06)
(-7.45181e-06 -7.02042e-06 -8.28253e-16 1.08807e-05 2.15227e-06 -9.96565e-14 1.83042e-13 -2.19257e-13 1.73585e-06)
(-5.80576e-06 -6.93975e-06 2.576e-16 1.11859e-05 1.63752e-06 -5.68721e-13 2.55271e-14 3.07385e-15 1.72958e-06)
(-3.76994e-06 -6.77819e-06 1.02609e-15 1.02021e-05 8.45557e-07 -8.89098e-14 1.51215e-13 2.62232e-13 1.73398e-06)
(-1.48808e-06 -6.94313e-06 -3.30307e-16 8.92374e-06 -2.2711e-08 1.81578e-13 2.68775e-13 -2.09803e-15 1.62165e-06)
(-1.07252e-05 -6.27182e-07 -1.5522e-18 6.52174e-07 5.94529e-07 2.07482e-14 2.34951e-14 4.84031e-14 5.77535e-07)
(-1.15143e-05 -1.0926e-06 1.2518e-16 1.07587e-06 1.53707e-06 -3.43432e-14 4.83524e-14 6.31125e-15 1.49239e-06)
(-1.15214e-05 -1.76051e-06 -2.85056e-16 2.3121e-06 1.63016e-06 3.86544e-14 -2.50594e-14 4.85345e-14 1.5288e-06)
(-1.15717e-05 -2.39753e-06 -1.39983e-16 2.71907e-06 1.7917e-06 2.71944e-13 -1.83558e-14 -2.76775e-14 1.57772e-06)
(-1.15308e-05 -3.00573e-06 6.19857e-16 3.98725e-06 1.93512e-06 -1.06104e-13 2.41181e-13 -1.00949e-13 1.65685e-06)
(-1.15591e-05 -3.53019e-06 8.27845e-17 4.52256e-06 2.1788e-06 -5.68621e-13 7.4674e-14 2.82888e-14 1.72274e-06)
(-1.14002e-05 -4.00854e-06 -4.76024e-16 5.67946e-06 2.32945e-06 -8.64185e-14 -2.84442e-13 1.58046e-13 1.8355e-06)
(-1.12836e-05 -4.36048e-06 -3.74633e-16 6.40569e-06 2.56298e-06 6.55557e-13 3.35151e-13 2.49e-14 1.90483e-06)
(-1.08917e-05 -4.64964e-06 1.81942e-16 7.3386e-06 2.64797e-06 1.19715e-13 7.65145e-13 -1.7171e-13 2.02798e-06)
(-1.04602e-05 -4.80065e-06 2.12833e-16 8.16088e-06 2.74124e-06 -6.87178e-13 6.82164e-14 1.16475e-14 2.0827e-06)
(-9.68993e-06 -4.87461e-06 3.47871e-16 8.71622e-06 2.65388e-06 1.58073e-13 -5.59692e-13 2.44071e-13 2.18413e-06)
(-8.77349e-06 -4.85487e-06 -6.93978e-16 9.36066e-06 2.47554e-06 7.46635e-13 -2.68536e-13 5.75045e-15 2.20027e-06)
(-7.49572e-06 -4.76491e-06 -1.07266e-15 9.26007e-06 2.09782e-06 -1.28954e-13 1.81623e-13 -2.13029e-13 2.24602e-06)
(-6.00239e-06 -4.7184e-06 3.29955e-16 9.25231e-06 1.57256e-06 -7.22315e-13 2.2527e-14 3.16454e-15 2.19661e-06)
(-4.26769e-06 -4.66037e-06 1.27976e-15 8.00629e-06 8.98506e-07 -1.1079e-13 1.2485e-13 2.23318e-13 2.16073e-06)
(-2.41243e-06 -4.85319e-06 -4.1613e-16 6.72982e-06 1.87398e-07 2.27112e-13 2.38384e-13 -1.63717e-15 2.03293e-06)
(-1.1501e-05 -4.69121e-07 -4.04239e-18 6.7094e-07 1.49755e-06 5.32997e-14 2.31895e-14 1.23333e-13 1.48296e-06)
(-1.19135e-05 -7.63632e-07 1.8022e-16 1.0715e-06 2.18195e-06 -4.93926e-14 4.82442e-14 6.02975e-15 2.14676e-06)
(-1.18887e-05 -1.22682e-06 -4.06221e-16 2.31864e-06 2.24617e-06 5.50339e-14 -2.77833e-14 7.20243e-14 2.17517e-06)
(-1.19006e-05 -1.65911e-06 -1.9687e-16 2.68892e-06 2.37352e-06 3.8061e-13 -1.59238e-14 -3.46392e-14 2.20808e-06)
(-1.18026e-05 -2.06814e-06 8.50648e-16 3.93611e-06 2.45931e-06 -1.45483e-13 2.54539e-13 -1.43797e-13 2.27107e-06)
(-1.17661e-05 -2.39946e-06 1.12389e-16 4.39965e-06 2.64102e-06 -7.62414e-13 7.40194e-14 3.48754e-14 2.30982e-06)
(-1.15331e-05 -2.70266e-06 -6.22297e-16 5.47094e-06 2.70856e-06 -1.12823e-13 -3.04059e-13 1.99546e-13 2.39721e-06)
(-1.13383e-05 -2.89227e-06 -4.8084e-16 6.07174e-06 2.85472e-06 8.36316e-13 3.45177e-13 3.45686e-14 2.42989e-06)
(-1.08821e-05 -3.0537e-06 2.25904e-16 6.83466e-06 2.84749e-06 1.48699e-13 7.73986e-13 -2.07036e-13 2.51903e-06)
(-1.03938e-05 -3.09731e-06 2.60761e-16 7.46587e-06 2.84489e-06 -8.35412e-13 6.67075e-14 1.27594e-14 2.53188e-06)
(-9.61438e-06 -3.11602e-06 4.12777e-16 7.7757e-06 2.68686e-06 1.87775e-13 -5.64584e-13 2.62413e-13 2.59417e-06)
(-8.72412e-06 -3.06612e-06 -8.1426e-16 8.18013e-06 2.4434e-06 8.72276e-13 -2.79518e-13 3.32992e-15 2.5704e-06)
(-7.56192e-06 -3.00811e-06 -1.23314e-15 7.81263e-06 2.06968e-06 -1.48105e-13 1.90044e-13 -2.0519e-13 2.57953e-06)
(-6.26249e-06 -2.99914e-06 3.78117e-16 7.61163e-06 1.57295e-06 -8.23168e-13 1.99682e-14 3.22218e-15 2.50323e-06)
(-4.82223e-06 -3.01842e-06 1.44959e-15 6.23294e-06 1.02683e-06 -1.25376e-13 9.22647e-14 1.92014e-13 2.44519e-06)
(-3.34418e-06 -3.24094e-06 -4.75461e-16 5.01623e-06 4.54282e-07 2.5816e-13 2.12314e-13 -9.99333e-16 2.31483e-06)
(-1.19094e-05 -3.2823e-07 -5.89024e-18 6.78616e-07 2.1509e-06 7.69094e-14 2.30643e-14 1.77619e-13 2.13944e-06)
(-1.20077e-05 -4.78558e-07 2.16932e-16 1.04869e-06 2.60888e-06 -5.93906e-14 4.59727e-14 5.68387e-15 2.5816e-06)
(-1.19604e-05 -7.6618e-07 -4.86838e-16 2.29491e-06 2.64798e-06 6.58937e-14 -3.10035e-14 8.7964e-14 2.6034e-06)
(-1.19464e-05 -1.02564e-06 -2.3449e-16 2.61777e-06 2.74777e-06 4.52021e-13 -1.20861e-14 -3.9095e-14 2.62224e-06)
(-1.1809e-05 -1.27058e-06 1.0021e-15 3.83422e-06 2.78485e-06 -1.71213e-13 2.71082e-13 -1.73876e-13 2.67233e-06)
(-1.17335e-05 -1.44724e-06 1.31671e-16 4.22035e-06 2.92e-06 -8.87188e-13 7.23978e-14 3.88112e-14 2.68775e-06)
(-1.14561e-05 -1.61631e-06 -7.16035e-16 5.20306e-06 2.92289e-06 -1.29685e-13 -3.27642e-13 2.28768e-13 2.75598e-06)
(-1.1223e-05 -1.68651e-06 -5.47876e-16 5.68641e-06 3.00831e-06 9.49548e-13 3.53286e-13 3.87029e-14 2.75872e-06)
(-1.0743e-05 -1.76221e-06 2.53453e-16 6.29321e-06 2.93877e-06 1.66687e-13 7.87431e-13 -2.34185e-13 2.82364e-06)
(-1.02464e-05 -1.73906e-06 2.90121e-16 6.76315e-06 2.87779e-06 -9.25479e-13 6.50564e-14 1.30409e-14 2.80475e-06)
(-9.50042e-06 -1.73491e-06 4.52235e-16 6.86911e-06 2.68728e-06 2.05683e-13 -5.75964e-13 2.7508e-13 2.84127e-06)
(-8.67663e-06 -1.67955e-06 -8.86502e-16 7.09264e-06 2.41855e-06 9.47069e-13 -2.86508e-13 4.36243e-15 2.79066e-06)
(-7.64777e-06 -1.6592e-06 -1.32971e-15 6.53359e-06 2.07677e-06 -1.59539e-13 2.03949e-13 -1.98381e-13 2.77866e-06)
(-6.53535e-06 -1.68424e-06 4.0735e-16 6.21675e-06 1.62336e-06 -8.84119e-13 1.75612e-14 3.28541e-15 2.6885e-06)
(-5.34475e-06 -1.75848e-06 1.55558e-15 4.77879e-06 1.19058e-06 -1.34417e-13 5.89901e-14 1.69831e-13 2.6215e-06)
(-4.15992e-06 -1.98905e-06 -5.13906e-16 3.65821e-06 7.20649e-07 2.77656e-13 1.88705e-13 3.39871e-16 2.49604e-06)
(-1.20105e-05 -2.06024e-07 -7.12848e-18 6.77599e-07 2.58471e-06 9.26352e-14 2.30798e-14 2.13725e-13 2.57649e-06)
(-1.18458e-05 -2.37551e-07 2.38005e-16 1.01353e-06 2.85108e-06 -6.50874e-14 4.18982e-14 5.36963e-15 2.8295e-06)
(-1.17854e-05 -3.78093e-07 -5.3289e-16 2.25198e-06 2.87023e-06 7.2067e-14 -3.41996e-14 9.74209e-14 2.8465e-06)
(-1.17584e-05 -4.94541e-07 -2.55606e-16 2.52102e-06 2.95089e-06 4.91983e-13 -7.47537e-15 -4.15508e-14 2.85391e-06)
(-1.15993e-05 -6.0683e-07 1.08687e-15 3.70311e-06 2.9502e-06 -1.85503e-13 2.89846e-13 -1.93102e-13 2.89512e-06)
(-1.15091e-05 -6.60831e-07 1.4207e-16 4.01236e-06 3.05536e-06 -9.54622e-13 7.07519e-14 4.06481e-14 2.89195e-06)
(-1.12146e-05 -7.28359e-07 -7.66459e-16 4.90993e-06 3.01247e-06 -1.38698e-13 -3.54591e-13 2.48103e-13 2.94783e-06)
(-1.09775e-05 -7.10265e-07 -5.82481e-16 5.28986e-06 3.06218e-06 1.00782e-12 3.60092e-13 3.8445e-14 2.92785e-06)
(-1.05081e-05 -7.28946e-07 2.67824e-16 5.75855e-06 2.95695e-06 1.75825e-13 8.0432e-13 -2.54939e-13 2.97826e-06)
(-1.00418e-05 -6.63309e-07 3.04355e-16 6.09913e-06 2.86822e-06 -9.69263e-13 6.311e-14 1.274e-14 2.93735e-06)
(-9.36231e-06 -6.52836e-07 4.71752e-16 6.04049e-06 2.67439e-06 2.14301e-13 -5.91105e-13 2.84177e-13 2.96006e-06)
(-8.63429e-06 -6.0136e-07 -9.20562e-16 6.13305e-06 2.40802e-06 9.82145e-13 -2.90164e-13 7.71435e-15 2.89387e-06)
(-7.75155e-06 -6.15583e-07 -1.37655e-15 5.43986e-06 2.11582e-06 -1.64974e-13 2.20046e-13 -1.92976e-13 2.87333e-06)
(-6.82215e-06 -6.67967e-07 4.21457e-16 5.05832e-06 1.71308e-06 -9.14109e-13 1.53588e-14 3.36253e-15 2.7796e-06)
(-5.85186e-06 -7.81898e-07 1.61181e-15 3.60538e-06 1.38272e-06 -1.39149e-13 2.77324e-14 1.53961e-13 2.71374e-06)
(-4.9096e-06 -1.01653e-06 -5.35893e-16 2.58881e-06 9.93612e-07 2.88368e-13 1.6846e-13 1.88955e-15 2.59925e-06)
(-1.18529e-05 -1.02637e-07 -7.83538e-18 6.70515e-07 2.83168e-06 1.01637e-13 1.97735e-14 2.34341e-13 2.82647e-06)
(-1.14768e-05 -3.70158e-08 2.45924e-16 9.73335e-07 2.93909e-06 -6.71777e-14 3.87116e-14 5.15446e-15 2.92061e-06)
(-1.14131e-05 -5.62251e-08 -5.49969e-16 2.203e-06 2.94394e-06 7.43217e-14 -3.89594e-14 1.01426e-13 2.93489e-06)
(-1.13866e-05 -5.56363e-08 -2.6291e-16 2.41612e-06 3.01494e-06 5.05769e-13 -3.68775e-15 -4.24534e-14 2.93371e-06)
(-1.12233e-05 -6.21894e-08 1.11642e-15 3.56634e-06 2.98776e-06 -1.90346e-13 3.10345e-13 -2.0349e-13 2.97056e-06)
(-1.11417e-05 -1.90785e-08 1.45017e-16 3.80344e-06 3.07978e-06 -9.75007e-13 6.88049e-14 4.08342e-14 2.9536e-06)
(-1.0855e-05 -1.0913e-08 -7.81642e-16 4.62404e-06 3.0089e-06 -1.41344e-13 -3.83692e-13 2.6001e-13 3.00424e-06)
(-1.06438e-05 7.30734e-08 -5.90565e-16 4.91655e-06 3.04566e-06 1.02185e-12 3.66532e-13 3.45417e-14 2.96846e-06)
(-1.02139e-05 9.09447e-08 2.71774e-16 5.26579e-06 2.92759e-06 1.7793e-13 8.2499e-13 -2.71536e-13 3.01367e-06)
(-9.80696e-06 1.84026e-07 3.06288e-16 5.50555e-06 2.83568e-06 -9.76588e-13 6.13399e-14 1.20146e-14 2.95944e-06)
(-9.21714e-06 1.91105e-07 4.75975e-16 5.31414e-06 2.66058e-06 2.15685e-13 -6.08409e-13 2.91835e-13 2.97895e-06)
(-8.60079e-06 2.35147e-07 -9.24425e-16 5.31297e-06 2.41484e-06 9.865e-13 -2.92518e-13 1.27324e-14 2.90656e-06)
(-7.86683e-06 1.90481e-07 -1.38491e-15 4.52439e-06 2.18217e-06 -1.65795e-13 2.36384e-13 -1.89564e-13 2.88766e-06)
(-7.10752e-06 1.17249e-07 4.23815e-16 4.10902e-06 1.83079e-06 -9.2028e-13 1.37851e-14 3.45303e-15 2.79827e-06)
(-6.32774e-06 -2.49255e-08 1.62956e-15 2.6628e-06 1.59038e-06 -1.4055e-13 2.08967e-16 1.4339e-13 2.74104e-06)
(-5.5824e-06 -2.58557e-07 -5.45045e-16 1.74602e-06 1.26195e-06 2.92199e-13 1.5148e-13 3.66357e-15 2.64163e-06)
(-1.14852e-05 -1.65731e-08 -8.0976e-18 6.6087e-07 2.92205e-06 1.04995e-13 2.33577e-14 2.41964e-13 2.91945e-06)
(-1.09391e-05 1.27844e-07 2.42977e-16 9.34819e-07 2.90046e-06 -6.62943e-14 3.44635e-14 5.07493e-15 2.88242e-06)
(-1.0881e-05 2.07716e-07 -5.4314e-16 2.16006e-06 2.89644e-06 7.3353e-14 -4.34586e-14 1.00941e-13 2.89608e-06)
(-1.08675e-05 3.03265e-07 -2.58764e-16 2.31911e-06 2.96714e-06 4.98091e-13 1.12737e-15 -4.2161e-14 2.889e-06)
(-1.07156e-05 3.80549e-07 1.1008e-15 3.44443e-06 2.92396e-06 -1.87492e-13 3.32928e-13 -2.06847e-13 2.92595e-06)
(-1.06629e-05 5.00614e-07 1.4171e-16 3.61818e-06 3.01843e-06 -9.57229e-13 6.75095e-14 3.97224e-14 2.89965e-06)
(-1.04058e-05 5.65232e-07 -7.68482e-16 4.37234e-06 2.9352e-06 -1.38871e-13 -4.13347e-13 2.66432e-13 2.95176e-06)
(-1.02449e-05 6.99341e-07 -5.77134e-16 4.59569e-06 2.97847e-06 1.0005e-12 3.73132e-13 2.76336e-14 2.90628e-06)
(-9.87791e-06 7.4045e-07 2.67461e-16 4.8428e-06 2.86639e-06 1.74461e-13 8.47154e-13 -2.85565e-13 2.95465e-06)
(-9.55246e-06 8.52359e-07 2.98488e-16 5.00781e-06 2.79036e-06 -9.55185e-13 5.97619e-14 1.09712e-14 2.89448e-06)
(-9.06975e-06 8.51743e-07 4.68101e-16 4.70868e-06 2.65062e-06 2.11412e-13 -6.25006e-13 2.99202e-13 2.91974e-06)
(-8.57541e-06 8.88298e-07 -9.05034e-16 4.6413e-06 2.43779e-06 9.66915e-13 -2.93476e-13 1.89937e-14 2.84872e-06)
(-7.99094e-06 8.17925e-07 -1.36329e-15 3.78306e-06 2.27086e-06 -1.63031e-13 2.50036e-13 -1.88087e-13 2.83958e-06)
(-7.39059e-06 7.28822e-07 4.17328e-16 3.34918e-06 1.96954e-06 -9.07936e-13 1.23483e-14 3.55431e-15 2.76064e-06)
(-6.77847e-06 5.65532e-07 1.61724e-15 1.91768e-06 1.80919e-06 -1.39359e-13 -2.22692e-14 1.36823e-13 2.71776e-06)
(-6.19668e-06 3.33352e-07 -5.44253e-16 1.08474e-06 1.5267e-06 2.90703e-13 1.37846e-13 5.54136e-15 2.63661e-06)
(-1.09461e-05 5.42089e-08 -7.97764e-18 6.52115e-07 2.88329e-06 1.03695e-13 2.35055e-14 2.38869e-13 2.88291e-06)
(-1.0264e-05 2.62429e-07 2.311e-16 9.04306e-07 2.75833e-06 -6.29749e-14 3.29111e-14 5.1331e-15 2.73828e-06)
(-1.02194e-05 4.22676e-07 -5.16713e-16 2.13439e-06 2.75047e-06 6.97469e-14 -4.78931e-14 9.67662e-14 2.75326e-06)
(-1.02304e-05 5.952e-07 -2.45336e-16 2.24449e-06 2.82965e-06 4.72906e-13 5.41396e-15 -4.09446e-14 2.74276e-06)
(-1.01035e-05 7.3857e-07 1.04846e-15 3.35601e-06 2.77967e-06 -1.78395e-13 3.56415e-13 -2.0464e-13 2.78398e-06)
(-1.00979e-05 9.20368e-07 1.33573e-16 3.47759e-06 2.89068e-06 -9.08588e-13 6.65844e-14 3.75876e-14 2.7522e-06)
(-9.8883e-06 1.02677e-06 -7.32483e-16 4.17802e-06 2.80829e-06 -1.32293e-13 -4.43406e-13 2.68933e-13 2.81193e-06)
(-9.79825e-06 1.2004e-06 -5.46981e-16 4.35045e-06 2.87457e-06 9.50852e-13 3.81078e-13 1.81789e-14 2.76193e-06)
(-9.51303e-06 1.25558e-06 2.56391e-16 4.51157e-06 2.78369e-06 1.66575e-13 8.70457e-13 -2.98419e-13 2.8208e-06)
(-9.2859e-06 1.38176e-06 2.83454e-16 4.62391e-06 2.73835e-06 -9.11082e-13 5.88214e-14 9.67442e-15 2.76073e-06)
(-8.92328e-06 1.37138e-06 4.50329e-16 4.23606e-06 2.64665e-06 2.027e-13 -6.39911e-13 3.07216e-13 2.79926e-06)
(-8.55701e-06 1.40174e-06 -8.67979e-16 4.1214e-06 2.47492e-06 9.2858e-13 -2.94287e-13 2.62781e-14 2.73564e-06)
(-8.1213e-06 1.30951e-06 -1.31826e-15 3.20854e-06 2.37784e-06 -1.57469e-13 2.60878e-13 -1.8849e-13 2.74277e-06)
(-7.66938e-06 1.20806e-06 4.04006e-16 2.76096e-06 2.12418e-06 -8.81126e-13 1.13266e-14 3.66324e-15 2.67903e-06)
(-7.20671e-06 1.02807e-06 1.58134e-15 1.34124e-06 2.03592e-06 -1.3614e-13 -3.97369e-14 1.33386e-13 2.65492e-06)
(-6.76234e-06 7.96519e-07 -5.35627e-16 5.70235e-07 1.7876e-06 2.85029e-13 1.2776e-13 7.51195e-15 2.59446e-06)
(-1.02669e-05 1.12005e-07 -7.54088e-18 6.47461e-07 2.73879e-06 9.85732e-14 2.01537e-14 2.2699e-13 2.74017e-06)
(-9.47418e-06 3.71836e-07 2.11923e-16 8.87231e-07 2.53236e-06 -5.76754e-14 3.08743e-14 5.34007e-15 2.50799e-06)
(-9.44969e-06 5.97163e-07 -4.74375e-16 2.1361e-06 2.52476e-06 6.40014e-14 -5.18325e-14 8.96392e-14 2.52611e-06)
(-9.49553e-06 8.32098e-07 -2.24508e-16 2.20512e-06 2.62051e-06 4.33513e-13 8.63612e-15 -3.90422e-14 2.51413e-06)
(-9.40497e-06 1.02771e-06 9.66444e-16 3.31693e-06 2.57119e-06 -1.64267e-13 3.81123e-13 -1.98336e-13 2.56353e-06)
(-9.46188e-06 1.25967e-06 1.21838e-16 3.40015e-06 2.71107e-06 -8.35038e-13 6.63654e-14 3.4631e-14 2.52931e-06)
(-9.31509e-06 1.39727e-06 -6.78193e-16 4.05998e-06 2.64027e-06 -1.22431e-13 -4.72372e-13 2.68964e-13 2.60221e-06)
(-9.31258e-06 1.60324e-06 -5.03824e-16 4.20073e-06 2.74314e-06 8.78533e-13 3.90286e-13 6.4414e-15 2.55174e-06)
(-9.12498e-06 1.66676e-06 2.3984e-16 4.2893e-06 2.68584e-06 1.55179e-13 8.93331e-13 -3.11331e-13 2.62752e-06)
(-9.00935e-06 1.80499e-06 2.62784e-16 4.3687e-06 2.6825e-06 -8.48929e-13 5.85156e-14 8.15917e-15 2.57231e-06)
(-8.77778e-06 1.78444e-06 4.24758e-16 3.90537e-06 2.64905e-06 1.90482e-13 -6.50164e-13 3.16483e-13 2.63041e-06)
(-8.54419e-06 1.81024e-06 -8.16813e-16 3.75588e-06 2.52402e-06 8.75424e-13 -2.94769e-13 3.4475e-14 2.57891e-06)
(-8.25761e-06 1.69921e-06 -1.25467e-15 2.79577e-06 2.50029e-06 -1.49703e-13 2.66317e-13 -1.90585e-13 2.60758e-06)
(-7.94659e-06 1.58736e-06 3.85199e-16 2.33044e-06 2.29204e-06 -8.42929e-13 1.04665e-14 3.77804e-15 2.56281e-06)
(-7.6207e-06 1.39276e-06 1.52686e-15 9.13237e-07 2.27042e-06 -1.31328e-13 -5.09566e-14 1.32315e-13 2.56102e-06)
(-7.29515e-06 1.15917e-06 -5.20848e-16 1.75535e-07 2.0476e-06 2.76086e-13 1.20828e-13 9.55838e-15 2.52328e-06)
(-9.47068e-06 1.59002e-07 -6.86311e-18 6.49977e-07 2.5083e-06 9.03446e-14 2.35386e-14 2.07968e-13 2.51111e-06)
(-8.58509e-06 4.6035e-07 1.86782e-16 8.8837e-07 2.23823e-06 -5.07664e-14 2.85892e-14 5.66372e-15 2.20765e-06)
(-8.58627e-06 7.38151e-07 -4.19084e-16 2.17373e-06 2.23436e-06 5.65148e-14 -5.68175e-14 8.00946e-14 2.23038e-06)
(-8.67614e-06 1.02389e-06 -1.97718e-16 2.21188e-06 2.35366e-06 3.8258e-13 1.17184e-14 -3.65979e-14 2.21859e-06)
(-8.63124e-06 1.26059e-06 8.60247e-16 3.3408e-06 2.31092e-06 -1.46062e-13 4.0643e-13 -1.88833e-13 2.27953e-06)
(-8.76435e-06 1.53427e-06 1.07206e-16 3.40103e-06 2.49028e-06 -7.41295e-13 6.78103e-14 3.10109e-14 2.24528e-06)
(-8.69282e-06 1.6949e-06 -6.09159e-16 4.03443e-06 2.43956e-06 -1.0992e-13 -4.99278e-13 2.67379e-13 2.33614e-06)
(-8.79233e-06 1.92882e-06 -4.50197e-16 4.16246e-06 2.5903e-06 7.87889e-13 4.01622e-13 -7.30498e-15 2.28836e-06)
(-8.71556e-06 1.99659e-06 2.18817e-16 4.19081e-06 2.57646e-06 1.40961e-13 9.15344e-13 -3.24986e-13 2.38647e-06)
(-8.72278e-06 2.14635e-06 2.3764e-16 4.25406e-06 2.62412e-06 -7.72236e-13 5.85391e-14 6.45029e-15 2.33984e-06)
(-8.63206e-06 2.11556e-06 3.9281e-16 3.72483e-06 2.65736e-06 1.75453e-13 -6.55176e-13 3.27278e-13 2.42276e-06)
(-8.53575e-06 2.13853e-06 -7.54406e-16 3.54771e-06 2.58326e-06 8.10369e-13 -2.95829e-13 4.35193e-14 2.38714e-06)
(-8.40038e-06 2.01068e-06 -1.17619e-15 2.5419e-06 2.63648e-06 -1.40176e-13 2.66822e-13 -1.94125e-13 2.44171e-06)
(-8.22598e-06 1.8892e-06 3.6213e-16 2.04914e-06 2.47201e-06 -7.95651e-13 1.00375e-14 3.89857e-15 2.41899e-06)
(-8.02931e-06 1.68043e-06 1.45757e-15 6.19255e-07 2.51392e-06 -1.25253e-13 -5.59848e-14 1.32975e-13 2.44249e-06)
(-7.81031e-06 1.44108e-06 -5.01303e-16 -1.17023e-07 2.31046e-06 2.64559e-13 1.17194e-13 1.16986e-14 2.42931e-06)
(-8.5731e-06 1.97027e-07 -6.00476e-18 6.62208e-07 2.20794e-06 7.95855e-14 2.33437e-14 1.83137e-13 2.21178e-06)
(-7.60662e-06 5.31144e-07 1.56812e-16 9.11555e-07 1.88946e-06 -4.25629e-14 2.84794e-14 6.10877e-15 1.85096e-06)
(-7.6379e-06 8.50883e-07 -3.53388e-16 2.25506e-06 1.8916e-06 4.76314e-14 -6.10892e-14 6.8686e-14 1.87966e-06)