/*--------------------------------*- C++ -*----------------------------------*\
| =========                 |                                                 |
| \\      /  F ield         | foam-extend: Open Source CFD                    |
|  \\    /   O peration     | Version:     4.1-20200408                       |
|   \\  /    A nd           | Web:         http://www.foam-extend.org         |
|    \\/     M anipulation  |                                                 |
\*---------------------------------------------------------------------------*/
FoamFile
{
    version     2.0;
    format      ascii;
    class       volScalarField::DimensionedInternalField;
    location    "0.0505000";
    object      V0;
}
// * * * * * * * * * * * * * * * * * * * * * * * * * * * * * * * * * * * * * //

dimensions      [0 3 0 0 0 0 0];

value           nonuniform List<scalar> 
1952
(
1.35032e-14
2.25077e-14
3.15158e-14
4.05271e-14
4.95464e-14
5.85694e-14
6.76028e-14
7.66426e-14
8.56956e-14
9.47659e-14
1.03856e-13
1.12977e-13
1.22133e-13
1.31321e-13
1.40467e-13
4.5009e-15
1.35028e-14
2.25069e-14
3.15147e-14
4.05257e-14
4.95447e-14
5.85673e-14
6.76005e-14
7.66399e-14
8.56926e-14
9.47626e-14
1.03852e-13
1.12973e-13
1.22128e-13
1.31316e-13
1.4046e-13
4.50075e-15
1.35019e-14
2.25054e-14
3.15127e-14
4.05231e-14
4.95414e-14
5.85635e-14
6.7596e-14
7.66349e-14
8.56869e-14
9.47563e-14
1.03845e-13
1.12965e-13
1.2212e-13
1.31306e-13
1.4045e-13
4.50045e-15
1.35008e-14
2.25036e-14
3.15101e-14
4.05197e-14
4.95373e-14
5.85587e-14
6.75904e-14
7.66285e-14
8.56797e-14
9.47483e-14
1.03836e-13
1.12955e-13
1.22109e-13
1.31294e-13
1.40437e-13
4.50008e-15
1.34997e-14
2.25018e-14
3.15076e-14
4.05166e-14
4.95335e-14
5.85541e-14
6.75851e-14
7.66225e-14
8.5673e-14
9.47409e-14
1.03828e-13
1.12946e-13
1.22099e-13
1.31283e-13
1.40425e-13
4.49973e-15
1.34986e-14
2.25e-14
3.15051e-14
4.05134e-14
4.95296e-14
5.85495e-14
6.75798e-14
7.66164e-14
8.56661e-14
9.47333e-14
1.03819e-13
1.12937e-13
1.22089e-13
1.31272e-13
1.40413e-13
4.49937e-15
1.34978e-14
2.24987e-14
3.15033e-14
4.0511e-14
4.95267e-14
5.8546e-14
6.75758e-14
7.66119e-14
8.56611e-14
9.47277e-14
1.03813e-13
1.1293e-13
1.22082e-13
1.31264e-13
1.40404e-13
4.49911e-15
1.34966e-14
2.24966e-14
3.15003e-14
4.05072e-14
4.9522e-14
5.85405e-14
6.75693e-14
7.66046e-14
8.56529e-14
9.47186e-14
1.03803e-13
1.12919e-13
1.2207e-13
1.31252e-13
1.40391e-13
4.49868e-15
1.34956e-14
2.2495e-14
3.14981e-14
4.05043e-14
4.95185e-14
5.85363e-14
6.75646e-14
7.65992e-14
8.56468e-14
9.47119e-14
1.03796e-13
1.12911e-13
1.22061e-13
1.31242e-13
1.4038e-13
4.49836e-15
1.34947e-14
2.24935e-14
3.14959e-14
4.05016e-14
4.95152e-14
5.85324e-14
6.756e-14
7.6594e-14
8.56411e-14
9.47056e-14
1.03789e-13
1.12904e-13
1.22053e-13
1.31233e-13
1.40371e-13
4.49806e-15
1.34936e-14
2.24917e-14
3.14934e-14
4.04984e-14
4.95113e-14
5.85278e-14
6.75547e-14
7.6588e-14
8.56343e-14
9.46982e-14
1.03781e-13
1.12895e-13
1.22043e-13
1.31223e-13
1.4036e-13
4.4977e-15
1.34925e-14
2.24899e-14
3.14909e-14
4.04951e-14
4.95073e-14
5.85231e-14
6.75493e-14
7.65819e-14
8.56275e-14
9.46907e-14
1.03772e-13
1.12886e-13
1.22034e-13
1.31212e-13
1.40348e-13
4.49733e-15
1.34912e-14
2.24877e-14
3.14878e-14
4.04912e-14
4.95025e-14
5.85174e-14
6.75427e-14
7.65744e-14
8.56192e-14
9.46815e-14
1.03762e-13
1.12875e-13
1.22022e-13
1.312e-13
1.40335e-13
4.49689e-15
1.34905e-14
2.24865e-14
3.14863e-14
4.04892e-14
4.95001e-14
5.85145e-14
6.75394e-14
7.65707e-14
8.56151e-14
9.4677e-14
1.03757e-13
1.1287e-13
1.22016e-13
1.31194e-13
1.40328e-13
4.49667e-15
1.3489e-14
2.2484e-14
3.14827e-14
4.04846e-14
4.94945e-14
5.85079e-14
6.75318e-14
7.65621e-14
8.56054e-14
9.46664e-14
1.03746e-13
1.12857e-13
1.22003e-13
1.31179e-13
1.40313e-13
4.49615e-15
1.34886e-14
2.24834e-14
3.14819e-14
4.04836e-14
4.94932e-14
5.85064e-14
6.75301e-14
7.65602e-14
8.56034e-14
9.46642e-14
1.03743e-13
1.12854e-13
1.22e-13
1.31176e-13
1.40309e-13
4.49603e-15
1.34869e-14
2.24806e-14
3.14779e-14
4.04785e-14
4.9487e-14
5.84991e-14
6.75217e-14
7.65507e-14
8.55928e-14
9.46526e-14
1.0373e-13
1.12841e-13
1.21985e-13
1.3116e-13
1.40292e-13
4.49547e-15
1.34863e-14
2.24795e-14
3.14765e-14
4.04767e-14
4.94848e-14
5.84966e-14
6.75187e-14
7.65474e-14
8.55891e-14
9.46486e-14
1.03726e-13
1.12836e-13
1.2198e-13
1.31155e-13
1.40287e-13
4.49526e-15
1.34847e-14
2.24769e-14
3.14728e-14
4.0472e-14
4.94791e-14
5.84898e-14
6.75109e-14
7.65386e-14
8.55793e-14
9.46378e-14
1.03714e-13
1.12823e-13
1.21967e-13
1.3114e-13
1.40271e-13
4.49473e-15
1.3484e-14
2.24757e-14
3.14711e-14
4.04698e-14
4.94765e-14
5.84868e-14
6.75074e-14
7.65347e-14
8.5575e-14
9.46331e-14
1.03709e-13
1.12818e-13
1.21961e-13
1.31134e-13
1.40264e-13
4.49449e-15
1.34829e-14
2.24739e-14
3.14686e-14
4.04666e-14
4.94725e-14
5.84821e-14
6.75021e-14
7.65287e-14
8.55684e-14
9.46258e-14
1.03701e-13
1.12809e-13
1.21952e-13
1.31124e-13
1.40254e-13
4.49412e-15
1.34819e-14
2.24721e-14
3.14661e-14
4.04635e-14
4.94688e-14
5.84777e-14
6.7497e-14
7.6523e-14
8.55621e-14
9.46189e-14
1.03694e-13
1.12801e-13
1.21943e-13
1.31115e-13
1.40244e-13
4.49377e-15
1.34809e-14
2.24706e-14
3.1464e-14
4.04608e-14
4.94655e-14
5.84738e-14
6.74926e-14
7.65181e-14
8.55568e-14
9.4613e-14
1.03687e-13
1.12794e-13
1.21936e-13
1.31107e-13
1.40236e-13
4.49346e-15
1.34798e-14
2.24687e-14
3.14613e-14
4.04574e-14
4.94614e-14
5.8469e-14
6.74871e-14
7.65119e-14
8.55499e-14
9.46055e-14
1.03679e-13
1.12786e-13
1.21927e-13
1.31097e-13
1.40226e-13
4.49308e-15
1.3478e-14
2.24658e-14
3.14572e-14
4.04522e-14
4.94551e-14
5.84616e-14
6.74786e-14
7.65024e-14
8.55394e-14
9.4594e-14
1.03667e-13
1.12772e-13
1.21913e-13
1.31082e-13
1.40209e-13
4.49249e-15
1.34774e-14
2.24647e-14
3.14558e-14
4.04503e-14
4.94528e-14
5.84591e-14
6.74757e-14
7.64992e-14
8.5536e-14
9.45903e-14
1.03663e-13
1.12768e-13
1.21909e-13
1.31078e-13
1.40205e-13
4.49228e-15
1.3476e-14
2.24624e-14
3.14526e-14
4.04463e-14
4.94479e-14
5.84534e-14
6.74692e-14
7.6492e-14
8.5528e-14
9.45816e-14
1.03654e-13
1.12758e-13
1.21898e-13
1.31067e-13
1.40193e-13
4.49182e-15
1.34749e-14
2.24606e-14
3.14501e-14
4.04431e-14
4.94441e-14
5.84489e-14
6.74641e-14
7.64863e-14
8.55219e-14
9.4575e-14
1.03647e-13
1.12751e-13
1.2189e-13
1.31059e-13
1.40185e-13
4.49145e-15
1.34738e-14
2.24588e-14
3.14475e-14
4.04399e-14
4.94402e-14
5.84444e-14
6.7459e-14
7.64808e-14
8.55159e-14
9.45685e-14
1.0364e-13
1.12743e-13
1.21883e-13
1.31051e-13
1.40177e-13
4.49108e-15
1.34725e-14
2.24567e-14
3.14446e-14
4.04362e-14
4.94357e-14
5.84392e-14
6.74531e-14
7.64743e-14
8.55088e-14
9.45609e-14
1.03632e-13
1.12735e-13
1.21874e-13
1.31042e-13
1.40167e-13
4.49065e-15
1.34708e-14
2.24538e-14
3.14405e-14
4.04311e-14
4.94295e-14
5.8432e-14
6.74449e-14
7.64652e-14
8.5499e-14
9.45502e-14
1.03621e-13
1.12723e-13
1.21862e-13
1.31029e-13
1.40154e-13
4.49007e-15
1.34695e-14
2.24518e-14
3.14377e-14
4.04276e-14
4.94252e-14
5.84272e-14
6.74394e-14
7.64592e-14
8.54926e-14
9.45434e-14
1.03614e-13
1.12716e-13
1.21855e-13
1.31022e-13
1.40147e-13
4.48966e-15
1.34686e-14
2.24502e-14
3.14355e-14
4.04248e-14
4.94219e-14
5.84234e-14
6.74353e-14
7.64548e-14
8.54879e-14
9.45385e-14
1.03609e-13
1.12711e-13
1.21851e-13
1.31017e-13
1.40143e-13
4.48934e-15
1.34665e-14
2.24467e-14
3.14307e-14
4.04187e-14
4.94145e-14
5.84148e-14
6.74255e-14
7.6444e-14
8.54762e-14
9.4526e-14
1.03596e-13
1.12697e-13
1.21837e-13
1.31003e-13
1.40129e-13
4.48864e-15
1.34654e-14
2.2445e-14
3.14282e-14
4.04156e-14
4.94108e-14
5.84106e-14
6.74208e-14
7.6439e-14
8.5471e-14
9.45206e-14
1.0359e-13
1.12692e-13
1.21832e-13
1.30999e-13
1.40126e-13
4.48828e-15
1.34632e-14
2.24414e-14
3.14232e-14
4.04093e-14
4.94031e-14
5.84017e-14
6.74106e-14
7.64278e-14
8.5459e-14
9.45077e-14
1.03577e-13
1.12678e-13
1.21819e-13
1.30985e-13
1.40112e-13
4.48757e-15
1.34619e-14
2.24391e-14
3.142e-14
4.04053e-14
4.93982e-14
5.83962e-14
6.74044e-14
7.6421e-14
8.54518e-14
9.45003e-14
1.0357e-13
1.12671e-13
1.21812e-13
1.30979e-13
1.40108e-13
4.48711e-15
1.34595e-14
2.24353e-14
3.14146e-14
4.03984e-14
4.93897e-14
5.83863e-14
6.73931e-14
7.64086e-14
8.54383e-14
9.44859e-14
1.03555e-13
1.12656e-13
1.21798e-13
1.30965e-13
1.40095e-13
4.48634e-15
1.34575e-14
2.24319e-14
3.14097e-14
4.03922e-14
4.93821e-14
5.83775e-14
6.73829e-14
7.63973e-14
8.5426e-14
9.44729e-14
1.03542e-13
1.12643e-13
1.21785e-13
1.30953e-13
1.40085e-13
4.48565e-15
1.34552e-14
2.24281e-14
3.14044e-14
4.03854e-14
4.93736e-14
5.83675e-14
6.73713e-14
7.63845e-14
8.54119e-14
9.44577e-14
1.03526e-13
1.12627e-13
1.2177e-13
1.30939e-13
1.40073e-13
4.4849e-15
1.34535e-14
2.24253e-14
3.14003e-14
4.03801e-14
4.9367e-14
5.83596e-14
6.73619e-14
7.6374e-14
8.54002e-14
9.44452e-14
1.03513e-13
1.12614e-13
1.21759e-13
1.30929e-13
1.40067e-13
4.48435e-15
1.34508e-14
2.24207e-14
3.13938e-14
4.03716e-14
4.93562e-14
5.83467e-14
6.73465e-14
7.63565e-14
8.53802e-14
9.44234e-14
1.0349e-13
1.1259e-13
1.21736e-13
1.30907e-13
1.40049e-13
4.48345e-15
1.34489e-14
2.24175e-14
3.13891e-14
4.03654e-14
4.93482e-14
5.83369e-14
6.73344e-14
7.63424e-14
8.53636e-14
9.44049e-14
1.0347e-13
1.12568e-13
1.21716e-13
1.30889e-13
1.4004e-13
4.48283e-15
1.3446e-14
2.24125e-14
3.1382e-14
4.03559e-14
4.9336e-14
5.83219e-14
6.7316e-14
7.63208e-14
8.53377e-14
9.43754e-14
1.03436e-13
1.12531e-13
1.21678e-13
1.30852e-13
1.40015e-13
4.48188e-15
1.3444e-14
2.24091e-14
3.13768e-14
4.03489e-14
4.93266e-14
5.831e-14
6.73007e-14
7.63022e-14
8.53146e-14
9.43481e-14
1.03403e-13
1.12494e-13
1.21636e-13
1.30806e-13
1.39976e-13
4.48123e-15
1.34419e-14
2.24054e-14
3.13713e-14
4.03413e-14
4.93163e-14
5.82967e-14
6.72834e-14
7.62808e-14
8.52873e-14
9.43155e-14
1.03363e-13
1.12446e-13
1.21579e-13
1.30738e-13
1.39893e-13
4.48054e-15
1.344e-14
2.24022e-14
3.13664e-14
4.03343e-14
4.93066e-14
5.82837e-14
6.7266e-14
7.62588e-14
8.52582e-14
9.428e-14
1.03317e-13
1.1239e-13
1.2151e-13
1.30651e-13
1.39779e-13
4.47996e-15
1.34387e-14
2.23997e-14
3.13625e-14
4.03284e-14
4.92981e-14
5.82719e-14
6.72496e-14
7.62372e-14
8.52287e-14
9.4243e-14
1.03267e-13
1.12329e-13
1.21432e-13
1.30553e-13
1.39657e-13
4.47953e-15
1.34381e-14
2.23985e-14
3.13603e-14
4.03246e-14
4.92921e-14
5.82627e-14
6.72358e-14
7.62179e-14
8.52009e-14
9.42069e-14
1.03217e-13
1.12266e-13
1.21348e-13
1.3045e-13
1.39535e-13
4.47936e-15
1.34389e-14
2.23994e-14
3.13611e-14
4.03246e-14
4.92905e-14
5.82585e-14
6.72276e-14
7.62043e-14
8.5179e-14
9.41762e-14
1.0317e-13
1.12207e-13
1.21264e-13
1.30348e-13
1.39418e-13
4.47963e-15
1.34398e-14
2.24007e-14
3.13623e-14
4.03251e-14
4.92896e-14
5.82549e-14
6.72199e-14
7.61909e-14
8.51569e-14
9.41439e-14
1.0312e-13
1.12143e-13
1.21168e-13
1.30236e-13
1.39287e-13
4.47997e-15
1.34422e-14
2.24045e-14
3.1367e-14
4.03299e-14
4.92939e-14
5.82572e-14
6.72193e-14
7.6185e-14
8.51435e-14
9.41209e-14
1.03082e-13
1.12089e-13
1.21077e-13
1.30127e-13
1.39143e-13
4.48081e-15
1.34466e-14
2.24114e-14
3.13761e-14
4.03404e-14
4.93053e-14
5.82685e-14
6.72302e-14
7.61934e-14
8.51474e-14
9.41166e-14
1.03064e-13
1.12053e-13
1.21002e-13
1.30026e-13
1.38981e-13
4.4823e-15
1.34518e-14
2.24199e-14
3.13876e-14
4.03542e-14
4.93209e-14
5.82847e-14
6.72466e-14
7.62076e-14
8.51575e-14
9.41174e-14
1.03051e-13
1.12017e-13
1.20927e-13
1.2992e-13
1.38796e-13
4.48404e-15
1.34601e-14
2.24335e-14
3.14061e-14
4.03765e-14
4.93459e-14
5.83103e-14
6.7271e-14
7.62273e-14
8.51714e-14
9.41206e-14
1.0304e-13
1.11986e-13
1.20865e-13
1.29827e-13
1.3863e-13
4.48685e-15
1.34682e-14
2.24461e-14
3.14222e-14
4.03944e-14
4.93642e-14
5.83268e-14
6.72842e-14
7.62339e-14
8.51707e-14
9.41079e-14
1.03016e-13
1.11943e-13
1.20801e-13
1.29733e-13
1.38481e-13
4.48963e-15
1.34752e-14
2.24569e-14
3.14355e-14
4.04085e-14
4.93779e-14
5.83381e-14
6.72925e-14
7.62367e-14
8.51682e-14
9.40956e-14
1.02996e-13
1.11907e-13
1.20752e-13
1.29658e-13
1.38375e-13
4.49212e-15
1.348e-14
2.24642e-14
3.14444e-14
4.04179e-14
4.93867e-14
5.83449e-14
6.72968e-14
7.62363e-14
8.51641e-14
9.40836e-14
1.0298e-13
1.11878e-13
1.20719e-13
1.29605e-13
1.38313e-13
4.49383e-15
1.34809e-14
2.24652e-14
3.14451e-14
4.04175e-14
4.93846e-14
5.83402e-14
6.72893e-14
7.62245e-14
8.51493e-14
9.40623e-14
1.02956e-13
1.11845e-13
1.20687e-13
1.29559e-13
1.38271e-13
4.49418e-15
1.34805e-14
2.24644e-14
3.14437e-14
4.04153e-14
4.93815e-14
5.83356e-14
6.72835e-14
7.62164e-14
8.51406e-14
9.40502e-14
1.02946e-13
1.11829e-13
1.20679e-13
1.29542e-13
1.38271e-13
4.49408e-15
1.34765e-14
2.24578e-14
3.14347e-14
4.04041e-14
4.93682e-14
5.83202e-14
6.72666e-14
7.61974e-14
8.51214e-14
9.40289e-14
1.02928e-13
1.11809e-13
1.2067e-13
1.29528e-13
1.38285e-13
4.49274e-15
1.34718e-14
2.24502e-14
3.14246e-14
4.03918e-14
4.93543e-14
5.8305e-14
6.72511e-14
7.61814e-14
8.5107e-14
9.40149e-14
1.0292e-13
1.11802e-13
1.2068e-13
1.2954e-13
1.38333e-13
4.49112e-15
1.34647e-14
2.24387e-14
3.14093e-14
4.03733e-14
4.93334e-14
5.82823e-14
6.72276e-14
7.61576e-14
8.50849e-14
9.39943e-14
1.02907e-13
1.11792e-13
1.2069e-13
1.29556e-13
1.38392e-13
4.48869e-15
1.34571e-14
2.24266e-14
3.13931e-14
4.0354e-14
4.93117e-14
5.82592e-14
6.72042e-14
7.61348e-14
8.50649e-14
9.39776e-14
1.02899e-13
1.11792e-13
1.20711e-13
1.29589e-13
1.38474e-13
4.48611e-15
1.34484e-14
2.24125e-14
3.13742e-14
4.03311e-14
4.92859e-14
5.82315e-14
6.7176e-14
7.61072e-14
8.50402e-14
9.39571e-14
1.02888e-13
1.11791e-13
1.20734e-13
1.29628e-13
1.38562e-13
4.48316e-15
1.3439e-14
2.23971e-14
3.13534e-14
4.03055e-14
4.92565e-14
5.81997e-14
6.7143e-14
7.6075e-14
8.50107e-14
9.39329e-14
1.02874e-13
1.1179e-13
1.20758e-13
1.29671e-13
1.38653e-13
4.48001e-15
1.34297e-14
2.23816e-14
3.1332e-14
4.0279e-14
4.92256e-14
5.81657e-14
6.71072e-14
7.60396e-14
8.4978e-14
9.39065e-14
1.02858e-13
1.11791e-13
1.20785e-13
1.29721e-13
1.38745e-13
4.47688e-15
1.34202e-14
2.2366e-14
3.13103e-14
4.02516e-14
4.9193e-14
5.8129e-14
6.70677e-14
7.59995e-14
8.49397e-14
9.38745e-14
1.02837e-13
1.11789e-13
1.20809e-13
1.29771e-13
1.38833e-13
4.47373e-15
1.34115e-14
2.23516e-14
3.12905e-14
4.02264e-14
4.91626e-14
5.80942e-14
6.7029e-14
7.59593e-14
8.48997e-14
9.38394e-14
1.02812e-13
1.11784e-13
1.2083e-13
1.29821e-13
1.38915e-13
4.47078e-15
1.3402e-14
2.23361e-14
3.12692e-14
4.01991e-14
4.91292e-14
5.80549e-14
6.6984e-14
7.59102e-14
8.48481e-14
9.37908e-14
1.02771e-13
1.11761e-13
1.20827e-13
1.29847e-13
1.38963e-13
4.46759e-15
1.33927e-14
2.23206e-14
3.1248e-14
4.01733e-14
4.91003e-14
5.80253e-14
6.69558e-14
7.58873e-14
8.48329e-14
9.37873e-14
1.02775e-13
1.11773e-13
1.20838e-13
1.29869e-13
1.38986e-13
4.46448e-15
1.33871e-14
2.23119e-14
3.12374e-14
4.01632e-14
4.90934e-14
5.80254e-14
6.69662e-14
7.59118e-14
8.48718e-14
9.38403e-14
1.02832e-13
1.11825e-13
1.20866e-13
1.29888e-13
1.38978e-13
4.46254e-15
1.33909e-14
2.23192e-14
3.12493e-14
4.01806e-14
4.91167e-14
5.80553e-14
6.70028e-14
7.59556e-14
8.49204e-14
9.38933e-14
1.02884e-13
1.11876e-13
1.20899e-13
1.29913e-13
1.38966e-13
4.46367e-15
1.33982e-14
2.23315e-14
3.12666e-14
4.02031e-14
4.9144e-14
5.80873e-14
6.70384e-14
7.59942e-14
8.496e-14
9.39341e-14
1.02923e-13
1.11916e-13
1.2093e-13
1.29942e-13
1.38976e-13
4.46606e-15
1.34047e-14
2.23422e-14
3.12815e-14
4.02224e-14
4.91679e-14
5.81158e-14
6.70711e-14
7.60308e-14
8.49988e-14
9.39746e-14
1.02961e-13
1.11953e-13
1.20961e-13
1.29972e-13
1.38998e-13
4.46825e-15
1.34097e-14
2.23505e-14
3.1293e-14
4.02371e-14
4.91855e-14
5.81361e-14
6.70933e-14
7.60544e-14
8.50227e-14
9.39982e-14
1.02983e-13
1.11972e-13
1.20975e-13
1.29981e-13
1.38998e-13
4.46988e-15
1.34149e-14
2.23591e-14
3.13049e-14
4.02522e-14
4.92037e-14
5.81571e-14
6.71166e-14
7.60796e-14
8.50486e-14
9.40242e-14
1.03007e-13
1.11994e-13
1.20993e-13
1.29993e-13
1.39001e-13
4.47162e-15
1.34187e-14
2.23653e-14
3.13136e-14
4.02631e-14
4.92164e-14
5.81715e-14
6.71321e-14
7.60957e-14
8.50644e-14
9.40391e-14
1.0302e-13
1.12004e-13
1.20998e-13
1.29993e-13
1.38993e-13
4.47288e-15
1.34225e-14
2.23717e-14
3.13224e-14
4.02741e-14
4.92294e-14
5.81863e-14
6.7148e-14
7.61124e-14
8.5081e-14
9.40551e-14
1.03034e-13
1.12016e-13
1.21006e-13
1.29996e-13
1.3899e-13
4.47417e-15
1.34261e-14
2.23775e-14
3.13303e-14
4.02841e-14
4.92411e-14
5.81994e-14
6.71621e-14
7.61271e-14
8.50956e-14
9.4069e-14
1.03047e-13
1.12026e-13
1.21013e-13
1.29999e-13
1.38987e-13
4.47535e-15
1.34282e-14
2.2381e-14
3.1335e-14
4.02898e-14
4.92476e-14
5.82064e-14
6.71692e-14
7.61339e-14
8.51015e-14
9.40735e-14
1.03049e-13
1.12025e-13
1.21009e-13
1.29991e-13
1.38974e-13
4.47606e-15
1.34306e-14
2.23849e-14
3.13403e-14
4.02964e-14
4.92552e-14
5.82147e-14
6.71779e-14
7.61426e-14
8.51097e-14
9.40808e-14
1.03055e-13
1.12029e-13
1.2101e-13
1.29989e-13
1.38967e-13
4.47686e-15
1.34324e-14
2.23878e-14
3.13443e-14
4.03012e-14
4.92607e-14
5.82207e-14
6.71839e-14
7.61484e-14
8.51148e-14
9.40849e-14
1.03057e-13
1.12029e-13
1.21007e-13
1.29983e-13
1.38958e-13
4.47747e-15
1.34338e-14
2.23902e-14
3.13474e-14
4.0305e-14
4.9265e-14
5.82252e-14
6.71884e-14
7.61525e-14
8.51182e-14
9.40872e-14
1.03058e-13
1.12028e-13
1.21004e-13
1.29977e-13
1.38948e-13
4.47796e-15
1.34352e-14
2.23924e-14
3.13503e-14
4.03086e-14
4.92689e-14
5.82294e-14
6.71926e-14
7.61565e-14
8.51215e-14
9.40896e-14
1.03059e-13
1.12028e-13
1.21001e-13
1.29973e-13
1.38941e-13
4.47841e-15
1.34361e-14
2.23939e-14
3.13524e-14
4.0311e-14
4.92716e-14
5.82322e-14
6.71952e-14
7.61587e-14
8.51231e-14
9.40903e-14
1.03058e-13
1.12026e-13
1.20997e-13
1.29967e-13
1.38933e-13
4.47875e-15
1.34365e-14
2.23946e-14
3.13532e-14
4.03118e-14
4.92723e-14
5.82326e-14
6.71952e-14
7.6158e-14
8.51215e-14
9.40876e-14
1.03054e-13
1.1202e-13
1.2099e-13
1.29957e-13
1.38921e-13
4.47888e-15
1.34373e-14
2.23957e-14
3.13547e-14
4.03137e-14
4.92743e-14
5.82347e-14
6.71971e-14
7.61597e-14
8.51226e-14
9.4088e-14
1.03054e-13
1.12018e-13
1.20987e-13
1.29953e-13
1.38915e-13
4.47913e-15
1.34375e-14
2.2396e-14
3.13551e-14
4.0314e-14
4.92745e-14
5.82345e-14
6.71965e-14
7.61585e-14
8.51207e-14
9.40853e-14
1.0305e-13
1.12013e-13
1.20981e-13
1.29945e-13
1.38905e-13
4.47921e-15
1.34373e-14
2.23957e-14
3.13545e-14
4.03131e-14
4.92733e-14
5.82328e-14
6.71942e-14
7.61555e-14
8.51168e-14
9.40804e-14
1.03044e-13
1.12006e-13
1.20972e-13
1.29935e-13
1.38893e-13
4.47915e-15
1.34379e-14
2.23966e-14
3.13557e-14
4.03146e-14
4.92749e-14
5.82346e-14
6.7196e-14
7.61571e-14
8.51182e-14
9.40814e-14
1.03044e-13
1.12006e-13
1.20971e-13
1.29933e-13
1.38891e-13
4.47934e-15
1.34372e-14
2.23955e-14
3.13541e-14
4.03124e-14
4.92721e-14
5.82311e-14
6.71916e-14
7.61519e-14
8.5112e-14
9.40741e-14
1.03036e-13
1.11996e-13
1.2096e-13
1.29921e-13
1.38877e-13
4.47913e-15
1.34375e-14
2.2396e-14
3.13547e-14
4.03132e-14
4.92729e-14
5.82318e-14
6.71923e-14
7.61524e-14
8.51122e-14
9.40741e-14
1.03035e-13
1.11995e-13
1.20958e-13
1.29919e-13
1.38874e-13
4.47923e-15
1.34372e-14
2.23955e-14
3.1354e-14
4.03122e-14
4.92716e-14
5.82302e-14
6.71902e-14
7.61499e-14
8.51091e-14
9.40703e-14
1.03031e-13
1.1199e-13
1.20952e-13
1.29912e-13
1.38867e-13
4.47915e-15
1.34369e-14
2.23949e-14
3.13532e-14
4.0311e-14
4.92701e-14
5.82283e-14
6.71879e-14
7.6147e-14
8.51057e-14
9.40663e-14
1.03026e-13
1.11985e-13
1.20946e-13
1.29905e-13
1.38859e-13
4.47903e-15
1.34361e-14
2.23935e-14
3.13512e-14
4.03084e-14
4.92668e-14
5.82243e-14
6.71832e-14
7.61415e-14
8.50994e-14
9.40591e-14
1.03018e-13
1.11976e-13
1.20936e-13
1.29894e-13
1.38847e-13
4.47876e-15
1.34358e-14
2.2393e-14
3.13505e-14
4.03075e-14
4.92656e-14
5.82228e-14
6.71813e-14
7.61393e-14
8.50967e-14
9.4056e-14
1.03014e-13
1.11972e-13
1.20931e-13
1.29889e-13
1.38841e-13
4.47866e-15
1.34352e-14
2.23921e-14
3.13492e-14
4.03057e-14
4.92634e-14
5.82202e-14
6.71782e-14
7.61356e-14
8.50925e-14
9.40512e-14
1.03009e-13
1.11966e-13
1.20925e-13
1.29881e-13
1.38833e-13
4.47848e-15
1.34346e-14
2.23911e-14
3.13477e-14
4.03038e-14
4.9261e-14
5.82173e-14
6.71748e-14
7.61317e-14
8.50879e-14
9.4046e-14
1.03003e-13
1.11959e-13
1.20918e-13
1.29874e-13
1.38824e-13
4.47828e-15
1.34339e-14
2.23899e-14
3.13461e-14
4.03017e-14
4.92584e-14
5.82142e-14
6.71711e-14
7.61275e-14
8.50832e-14
9.40407e-14
1.02997e-13
1.11952e-13
1.2091e-13
1.29866e-13
1.38816e-13
4.47805e-15
1.34332e-14
2.23887e-14
3.13443e-14
4.02994e-14
4.92556e-14
5.82108e-14
6.71672e-14
7.6123e-14
8.50781e-14
9.4035e-14
1.02991e-13
1.11946e-13
1.20903e-13
1.29857e-13
1.38807e-13
4.4778e-15
1.34326e-14
2.23877e-14
3.13429e-14
4.02977e-14
4.92534e-14
5.82082e-14
6.71641e-14
7.61194e-14
8.5074e-14
9.40304e-14
1.02986e-13
1.1194e-13
1.20897e-13
1.29851e-13
1.388e-13
4.47761e-15
1.34323e-14
2.23873e-14
3.13423e-14
4.02968e-14
4.92524e-14
5.82069e-14
6.71626e-14
7.61177e-14
8.50721e-14
9.40283e-14
1.02983e-13
1.11937e-13
1.20894e-13
1.29848e-13
1.38796e-13
4.47752e-15
1.3431e-14
2.23851e-14
3.13392e-14
4.02929e-14
4.92476e-14
5.82012e-14
6.7156e-14
7.61102e-14
8.50637e-14
9.40189e-14
1.02973e-13
1.11926e-13
1.20882e-13
1.29835e-13
1.38782e-13
4.47709e-15
1.34308e-14
2.23848e-14
3.13388e-14
4.02923e-14
4.92469e-14
5.82004e-14
6.7155e-14
7.6109e-14
8.50623e-14
9.40174e-14
1.02971e-13
1.11924e-13
1.2088e-13
1.29832e-13
1.3878e-13
4.47703e-15
1.34302e-14
2.23836e-14
3.13372e-14
4.02903e-14
4.92443e-14
5.81974e-14
6.71516e-14
7.61051e-14
8.50579e-14
9.40125e-14
1.02966e-13
1.11918e-13
1.20873e-13
1.29826e-13
1.38773e-13
4.4768e-15
1.34289e-14
2.23816e-14
3.13343e-14
4.02865e-14
4.92397e-14
5.81919e-14
6.71453e-14
7.6098e-14
8.505e-14
9.40037e-14
1.02956e-13
1.11908e-13
1.20862e-13
1.29813e-13
1.3876e-13
4.47638e-15
1.34284e-14
2.23807e-14
3.13332e-14
4.0285e-14
4.92379e-14
5.81898e-14
6.71428e-14
7.60952e-14
8.50468e-14
9.40003e-14
1.02953e-13
1.11904e-13
1.20858e-13
1.29809e-13
1.38755e-13
4.47622e-15
1.34276e-14
2.23793e-14
3.13312e-14
4.02825e-14
4.92348e-14
5.81861e-14
6.71386e-14
7.60904e-14
8.50415e-14
9.39944e-14
1.02946e-13
1.11897e-13
1.2085e-13
1.29801e-13
1.38746e-13
4.47594e-15
1.34262e-14
2.23771e-14
3.1328e-14
4.02784e-14
4.92298e-14
5.81802e-14
6.71318e-14
7.60827e-14
8.50329e-14
9.39849e-14
1.02936e-13
1.11886e-13
1.20838e-13
1.29788e-13
1.38733e-13
4.47549e-15
1.34257e-14
2.23762e-14
3.13268e-14
4.02769e-14
4.92279e-14
5.8178e-14
6.71292e-14
7.60798e-14
8.50296e-14
9.39813e-14
1.02932e-13
1.11881e-13
1.20834e-13
1.29783e-13
1.38728e-13
4.47531e-15
1.34247e-14
2.23746e-14
3.13245e-14
4.0274e-14
4.92244e-14
5.81738e-14
6.71244e-14
7.60743e-14
8.50236e-14
9.39746e-14
1.02925e-13
1.11874e-13
1.20825e-13
1.29774e-13
1.38718e-13
4.47499e-15
1.3424e-14
2.23734e-14
3.13229e-14
4.02718e-14
4.92218e-14
5.81707e-14
6.71208e-14
7.60703e-14
8.50191e-14
9.39697e-14
1.02919e-13
1.11868e-13
1.20819e-13
1.29768e-13
1.38711e-13
4.47475e-15
1.34231e-14
2.23718e-14
3.13207e-14
4.0269e-14
4.92183e-14
5.81666e-14
6.71161e-14
7.6065e-14
8.50131e-14
9.39631e-14
1.02912e-13
1.1186e-13
1.20811e-13
1.29759e-13
1.38702e-13
4.47444e-15
1.34217e-14
2.23696e-14
3.13175e-14
4.02649e-14
4.92134e-14
5.81608e-14
6.71093e-14
7.60573e-14
8.50045e-14
9.39536e-14
1.02902e-13
1.11849e-13
1.20799e-13
1.29746e-13
1.38689e-13
4.47399e-15
1.34213e-14
2.23689e-14
3.13166e-14
4.02638e-14
4.92119e-14
5.8159e-14
6.71073e-14
7.6055e-14
8.5002e-14
9.39508e-14
1.02899e-13
1.11846e-13
1.20795e-13
1.29743e-13
1.38686e-13
4.47386e-15
1.34197e-14
2.23662e-14
3.13127e-14
4.02588e-14
4.92058e-14
5.81519e-14
6.7099e-14
7.60456e-14
8.49914e-14
9.39391e-14
1.02886e-13
1.11832e-13
1.2078e-13
1.29727e-13
1.3867e-13
4.47331e-15
1.34192e-14
2.23654e-14
3.13117e-14
4.02574e-14
4.92042e-14
5.81499e-14
6.70967e-14
7.60429e-14
8.49884e-14
9.39358e-14
1.02882e-13
1.11828e-13
1.20776e-13
1.29722e-13
1.38665e-13
4.47316e-15
1.3418e-14
2.23634e-14
3.13088e-14
4.02537e-14
4.91996e-14
5.81444e-14
6.70904e-14
7.60358e-14
8.49804e-14
9.39268e-14
1.02872e-13
1.11817e-13
1.20764e-13
1.29708e-13
1.38649e-13
4.47275e-15
1.34168e-14
2.23614e-14
3.13061e-14
4.02502e-14
4.91953e-14
5.81393e-14
6.70845e-14
7.6029e-14
8.49728e-14
9.39184e-14
1.02863e-13
1.11806e-13
1.20752e-13
1.29696e-13
1.38634e-13
4.47236e-15
1.34159e-14
2.23598e-14
3.13038e-14
4.02473e-14
4.91918e-14
5.81352e-14
6.70797e-14
7.60236e-14
8.49667e-14
9.39117e-14
1.02856e-13
1.11798e-13
1.20744e-13
1.29686e-13
1.38624e-13
4.47204e-15
6.31089e-30
1.26218e-29
-3.78653e-29
2.52435e-29
2.52435e-29
1.00974e-28
0
-5.04871e-29
1.51461e-28
1.00974e-28
-5.04871e-29
3.02923e-28
1.00974e-28
0
1.00974e-28
0
)
;


// ************************************************************************* //
