/*--------------------------------*- C++ -*----------------------------------*\
| =========                 |                                                 |
| \\      /  F ield         | foam-extend: Open Source CFD                    |
|  \\    /   O peration     | Version:     4.1-20200408                       |
|   \\  /    A nd           | Web:         http://www.foam-extend.org         |
|    \\/     M anipulation  |                                                 |
\*---------------------------------------------------------------------------*/
FoamFile
{
    version     2.0;
    format      ascii;
    class       volScalarField;
    location    "0.0865000";
    object      ccx;
}
// * * * * * * * * * * * * * * * * * * * * * * * * * * * * * * * * * * * * * //

dimensions      [0 1 0 0 0 0 0];

internalField   nonuniform List<scalar> 
1952
(
0.00286174
0.00286155
0.00286128
0.00286093
0.00286051
0.00286003
0.00285949
0.00285893
0.00285835
0.00285778
0.00285723
0.00285675
0.00285636
0.00285609
0.00285593
0.00286184
0.0026984
0.00269803
0.00269749
0.00269678
0.00269594
0.00269497
0.00269391
0.00269278
0.00269162
0.00269047
0.00268938
0.00268841
0.00268763
0.00268709
0.00268678
0.0026986
0.00264824
0.00264788
0.00264733
0.00264663
0.00264578
0.00264482
0.00264375
0.00264262
0.00264146
0.00264031
0.00263922
0.00263824
0.00263746
0.00263693
0.00263661
0.00264844
0.00259809
0.00259772
0.00259718
0.00259647
0.00259563
0.00259466
0.0025936
0.00259247
0.0025913
0.00259015
0.00258905
0.00258808
0.0025873
0.00258676
0.00258644
0.00259829
0.00254793
0.00254756
0.00254702
0.00254632
0.00254547
0.0025445
0.00254344
0.00254231
0.00254114
0.00253999
0.00253889
0.00253791
0.00253713
0.00253659
0.00253627
0.00254813
0.00249778
0.00249741
0.00249686
0.00249616
0.00249531
0.00249434
0.00249328
0.00249214
0.00249098
0.00248982
0.00248873
0.00248775
0.00248696
0.00248642
0.00248611
0.00249798
0.00244762
0.00244725
0.0024467
0.002446
0.00244515
0.00244418
0.00244312
0.00244198
0.00244082
0.00243966
0.00243856
0.00243758
0.0024368
0.00243626
0.00243594
0.00244782
0.00239746
0.00239709
0.00239654
0.00239584
0.00239499
0.00239402
0.00239295
0.00239182
0.00239066
0.0023895
0.00238839
0.00238742
0.00238663
0.00238609
0.00238577
0.00239766
0.0023473
0.00234693
0.00234639
0.00234568
0.00234483
0.00234386
0.00234279
0.00234166
0.00234049
0.00233933
0.00233823
0.00233725
0.00233646
0.00233592
0.0023356
0.0023475
0.00229714
0.00229677
0.00229622
0.00229552
0.00229467
0.0022937
0.00229263
0.00229149
0.00229033
0.00228916
0.00228806
0.00228708
0.00228629
0.00228575
0.00228543
0.00229734
0.00224698
0.00224661
0.00224606
0.00224536
0.00224451
0.00224353
0.00224247
0.00224133
0.00224016
0.002239
0.0022379
0.00223692
0.00223613
0.00223558
0.00223526
0.00224718
0.00219682
0.00219645
0.0021959
0.00219519
0.00219434
0.00219337
0.0021923
0.00219116
0.00218999
0.00218883
0.00218773
0.00218675
0.00218596
0.00218541
0.00218509
0.00219702
0.00214665
0.00214628
0.00214574
0.00214503
0.00214418
0.00214321
0.00214214
0.002141
0.00213982
0.00213866
0.00213756
0.00213658
0.00213579
0.00213524
0.00213492
0.00214685
0.00209649
0.00209612
0.00209557
0.00209486
0.00209401
0.00209304
0.00209197
0.00209083
0.00208965
0.00208849
0.00208739
0.00208641
0.00208562
0.00208507
0.00208475
0.00209669
0.00204632
0.00204595
0.00204541
0.0020447
0.00204384
0.00204287
0.0020418
0.00204066
0.00203949
0.00203832
0.00203722
0.00203623
0.00203544
0.0020349
0.00203458
0.00204652
0.00199616
0.00199579
0.00199524
0.00199453
0.00199368
0.0019927
0.00199163
0.00199049
0.00198932
0.00198816
0.00198705
0.00198606
0.00198527
0.00198473
0.00198441
0.00199636
0.00194599
0.00194562
0.00194507
0.00194436
0.00194351
0.00194254
0.00194146
0.00194032
0.00193915
0.00193799
0.00193688
0.00193589
0.0019351
0.00193456
0.00193424
0.00194619
0.00189583
0.00189545
0.00189491
0.0018942
0.00189334
0.00189237
0.00189129
0.00189015
0.00188898
0.00188781
0.00188671
0.00188572
0.00188493
0.00188438
0.00188406
0.00189603
0.00184566
0.00184528
0.00184474
0.00184403
0.00184317
0.0018422
0.00184112
0.00183998
0.0018388
0.00183764
0.00183653
0.00183555
0.00183476
0.00183421
0.00183389
0.00184586
0.00179549
0.00179511
0.00179457
0.00179386
0.001793
0.00179203
0.00179095
0.00178981
0.00178863
0.00178747
0.00178636
0.00178537
0.00178458
0.00178404
0.00178371
0.00179569
0.00174532
0.00174495
0.0017444
0.00174369
0.00174283
0.00174186
0.00174078
0.00173964
0.00173846
0.0017373
0.00173619
0.0017352
0.00173441
0.00173386
0.00173354
0.00174552
0.00169516
0.00169478
0.00169423
0.00169352
0.00169266
0.00169168
0.00169061
0.00168947
0.00168829
0.00168712
0.00168601
0.00168503
0.00168423
0.00168369
0.00168336
0.00169536
0.00164499
0.00164461
0.00164406
0.00164335
0.00164249
0.00164151
0.00164044
0.00163929
0.00163811
0.00163695
0.00163583
0.00163485
0.00163406
0.00163351
0.00163319
0.00164519
0.00159482
0.00159444
0.00159389
0.00159318
0.00159232
0.00159134
0.00159026
0.00158912
0.00158794
0.00158677
0.00158566
0.00158467
0.00158388
0.00158333
0.00158301
0.00159502
0.00154465
0.00154427
0.00154372
0.00154301
0.00154215
0.00154117
0.00154009
0.00153894
0.00153776
0.00153659
0.00153548
0.0015345
0.0015337
0.00153315
0.00153283
0.00154485
0.00149448
0.0014941
0.00149355
0.00149284
0.00149198
0.001491
0.00148992
0.00148877
0.00148759
0.00148642
0.0014853
0.00148432
0.00148352
0.00148297
0.00148265
0.00149468
0.00144431
0.00144393
0.00144338
0.00144267
0.00144181
0.00144082
0.00143974
0.00143859
0.00143741
0.00143624
0.00143513
0.00143414
0.00143334
0.00143279
0.00143247
0.00144451
0.00139414
0.00139376
0.00139321
0.00139249
0.00139163
0.00139065
0.00138957
0.00138842
0.00138724
0.00138606
0.00138495
0.00138396
0.00138316
0.00138261
0.00138228
0.00139434
0.00134397
0.00134359
0.00134304
0.00134232
0.00134146
0.00134048
0.0013394
0.00133824
0.00133706
0.00133589
0.00133477
0.00133377
0.00133298
0.00133243
0.0013321
0.00134417
0.0012938
0.00129342
0.00129287
0.00129215
0.00129129
0.0012903
0.00128922
0.00128807
0.00128688
0.00128571
0.00128459
0.00128359
0.00128279
0.00128224
0.00128192
0.001294
0.00124363
0.00124325
0.0012427
0.00124198
0.00124112
0.00124013
0.00123905
0.00123789
0.0012367
0.00123553
0.00123441
0.00123341
0.00123261
0.00123205
0.00123173
0.00124383
0.00119346
0.00119308
0.00119252
0.00119181
0.00119095
0.00118996
0.00118887
0.00118772
0.00118653
0.00118535
0.00118423
0.00118323
0.00118242
0.00118187
0.00118154
0.00119366
0.00114329
0.00114291
0.00114235
0.00114164
0.00114078
0.00113979
0.0011387
0.00113754
0.00113635
0.00113517
0.00113404
0.00113304
0.00113224
0.00113168
0.00113135
0.00114349
0.00109312
0.00109274
0.00109218
0.00109146
0.0010906
0.00108961
0.00108852
0.00108736
0.00108617
0.00108499
0.00108386
0.00108286
0.00108205
0.00108149
0.00108116
0.00109332
0.00104294
0.00104257
0.00104201
0.00104129
0.00104043
0.00103944
0.00103835
0.00103718
0.00103599
0.0010348
0.00103368
0.00103267
0.00103186
0.0010313
0.00103096
0.00104314
0.000992764
0.000992391
0.000991836
0.000991117
0.000990252
0.000989262
0.00098817
0.000987006
0.000985812
0.000984622
0.000983491
0.000982484
0.000981668
0.000981099
0.00098076
0.000992967
0.000942587
0.000942213
0.000941656
0.000940938
0.000940073
0.000939083
0.000937991
0.000936829
0.000935632
0.000934441
0.000933307
0.000932295
0.000931474
0.000930902
0.000930559
0.00094279
0.000892405
0.000892031
0.000891475
0.000890757
0.000889894
0.000888903
0.000887812
0.000886649
0.000885451
0.000884258
0.000883121
0.000882106
0.000881281
0.000880703
0.000880355
0.000892607
0.000842218
0.000841845
0.000841289
0.000840573
0.00083971
0.000838721
0.00083763
0.000836468
0.00083527
0.000834075
0.000832936
0.000831917
0.000831087
0.000830504
0.000830149
0.00084242
0.000792021
0.000791649
0.000791095
0.00079038
0.000789519
0.000788533
0.000787443
0.000786282
0.000785086
0.00078389
0.000782749
0.000781727
0.000780891
0.000780302
0.000779939
0.000792223
0.000741815
0.000741444
0.000740892
0.00074018
0.000739322
0.000738338
0.000737253
0.000736094
0.000734899
0.000733704
0.000732563
0.000731537
0.000730696
0.000730098
0.000729726
0.000742015
0.000691595
0.000691226
0.000690677
0.000689969
0.000689115
0.000688136
0.000687055
0.000685901
0.000684709
0.000683516
0.000682375
0.000681347
0.000680502
0.000679896
0.000679512
0.000691795
0.000641358
0.000640992
0.000640447
0.000639743
0.000638895
0.000637921
0.000636846
0.000635699
0.000634513
0.000633324
0.000632186
0.000631157
0.000630308
0.000629692
0.000629294
0.000641556
0.000591101
0.000590738
0.000590197
0.000589499
0.000588658
0.000587693
0.000586626
0.000585487
0.000584309
0.000583127
0.000581994
0.000580967
0.000580115
0.00057949
0.000579074
0.000591297
0.00054082
0.00054046
0.000539925
0.000539234
0.000538402
0.000537446
0.00053639
0.000535262
0.000534095
0.000532923
0.000531797
0.000530777
0.000529925
0.000529292
0.000528856
0.000541014
0.00049051
0.000490155
0.000489626
0.000488944
0.000488121
0.000487177
0.000486133
0.000485019
0.000483865
0.000482706
0.000481592
0.000480579
0.00047973
0.000479093
0.00047864
0.000490702
0.000440167
0.000439817
0.000439296
0.000438623
0.000437811
0.000436881
0.000435853
0.000434754
0.000433616
0.000432473
0.000431374
0.000430373
0.000429531
0.000428893
0.000428431
0.000440357
0.000389791
0.000389446
0.000388933
0.00038827
0.000387472
0.000386557
0.000385545
0.000384465
0.000383347
0.000382224
0.000381143
0.000380157
0.000379328
0.000378695
0.000378231
0.000389978
0.000339376
0.000339037
0.000338533
0.000337882
0.000337099
0.0003362
0.000335208
0.000334149
0.000333053
0.000331954
0.000330897
0.000329933
0.000329122
0.0003285
0.000328041
0.00033956
0.000288922
0.00028859
0.000288095
0.000287457
0.000286689
0.00028581
0.000284839
0.000283804
0.000282735
0.000281664
0.000280635
0.0002797
0.000278915
0.000278312
0.000277868
0.000289103
0.000238428
0.000238104
0.000237619
0.000236995
0.000236244
0.000235384
0.000234438
0.00023343
0.000232391
0.000231352
0.000230359
0.000229461
0.000228709
0.000228136
0.000227723
0.000238605
0.000187897
0.000187579
0.000187106
0.000186497
0.000185764
0.000184926
0.000184005
0.000183027
0.000182021
0.00018102
0.000180068
0.000179214
0.00017851
0.000177985
0.000177632
0.000188069
0.000137329
0.000137019
0.000136558
0.000135965
0.000135252
0.000134438
0.000133544
0.000132596
0.000131626
0.000130668
0.000129762
0.000128964
0.000128324
0.000127881
0.000127629
0.000137498
8.67315e-05
8.64301e-05
8.59814e-05
8.54045e-05
8.47127e-05
8.39236e-05
8.30578e-05
8.21431e-05
8.1212e-05
8.03008e-05
7.94532e-05
7.87263e-05
7.81794e-05
7.78569e-05
7.77558e-05
8.68963e-05
3.61092e-05
3.5817e-05
3.53811e-05
3.48218e-05
3.41522e-05
3.33907e-05
3.25588e-05
3.16842e-05
3.08014e-05
2.9949e-05
2.91761e-05
2.85434e-05
2.81176e-05
2.79521e-05
2.80465e-05
3.62693e-05
-1.45307e-05
-1.48117e-05
-1.52307e-05
-1.57679e-05
-1.64089e-05
-1.71341e-05
-1.79215e-05
-1.87425e-05
-1.95621e-05
-2.0338e-05
-2.10171e-05
-2.15341e-05
-2.18143e-05
-2.17971e-05
-2.14756e-05
-1.43762e-05
-6.51603e-05
-6.54251e-05
-6.58194e-05
-6.63241e-05
-6.69242e-05
-6.75997e-05
-6.83272e-05
-6.90785e-05
-6.98173e-05
-7.04996e-05
-7.10682e-05
-7.14527e-05
-7.15712e-05
-7.13558e-05
-7.07925e-05
-6.50141e-05
-0.000115726
-0.000115968
-0.000116328
-0.000116787
-0.000117332
-0.000117942
-0.000118595
-0.000119261
-0.000119904
-0.000120479
-0.000120925
-0.000121167
-0.000121118
-0.000120701
-0.000119897
-0.000115592
-0.000166153
-0.000166366
-0.000166682
-0.000167085
-0.000167562
-0.000168094
-0.000168659
-0.000169229
-0.000169767
-0.000170226
-0.000170544
-0.000170642
-0.000170427
-0.000169818
-0.000168789
-0.000166034
-0.000216355
-0.000216534
-0.000216802
-0.000217142
-0.000217544
-0.000217991
-0.000218463
-0.000218931
-0.000219359
-0.000219701
-0.000219891
-0.00021985
-0.00021948
-0.000218697
-0.000217468
-0.000216254
-0.000266248
-0.000266393
-0.000266611
-0.000266888
-0.000267215
-0.000267577
-0.000267954
-0.000268321
-0.000268642
-0.000268869
-0.000268939
-0.00026877
-0.000268263
-0.000267331
-0.000265936
-0.000266166
-0.000315761
-0.000315877
-0.000316048
-0.000316267
-0.000316523
-0.000316805
-0.000317095
-0.000317367
-0.000317588
-0.00031771
-0.000317672
-0.000317391
-0.000316768
-0.000315718
-0.000314197
-0.000315697
-0.000364849
-0.000364938
-0.000365071
-0.000365239
-0.000365435
-0.000365647
-0.000365858
-0.000366047
-0.000366179
-0.00036621
-0.000366079
-0.000365705
-0.000364993
-0.000363857
-0.000362256
-0.000364799
-0.000413491
-0.00041356
-0.000413662
-0.00041379
-0.000413936
-0.00041409
-0.000414237
-0.000414355
-0.000414412
-0.000414366
-0.000414159
-0.000413715
-0.00041294
-0.000411755
-0.000410118
-0.000413453
-0.000461694
-0.000461747
-0.000461826
-0.000461922
-0.00046203
-0.000462137
-0.000462231
-0.000462291
-0.000462288
-0.000462181
-0.000461917
-0.000461424
-0.000460615
-0.000459418
-0.000457792
-0.000461664
-0.000509484
-0.000509526
-0.000509586
-0.000509657
-0.000509734
-0.000509805
-0.000509858
-0.000509872
-0.000509821
-0.000509669
-0.000509366
-0.000508846
-0.000508031
-0.000506854
-0.000505282
-0.00050946
-0.000556902
-0.000556933
-0.000556978
-0.000557029
-0.00055708
-0.000557122
-0.000557141
-0.000557119
-0.000557033
-0.000556848
-0.000556522
-0.000555995
-0.000555198
-0.000554076
-0.000552595
-0.000556884
-0.000603996
-0.000604017
-0.000604047
-0.000604079
-0.000604108
-0.000604123
-0.000604114
-0.000604063
-0.000603949
-0.000603743
-0.000603407
-0.000602891
-0.000602136
-0.000601095
-0.000599739
-0.000603983
-0.000650815
-0.000650826
-0.000650841
-0.000650854
-0.000650859
-0.00065085
-0.000650814
-0.000650738
-0.000650603
-0.000650383
-0.000650048
-0.000649557
-0.000648863
-0.000647925
-0.000646719
-0.000650808
-0.000697404
-0.000697404
-0.000697403
-0.000697396
-0.000697379
-0.000697345
-0.000697284
-0.000697184
-0.000697029
-0.000696799
-0.000696473
-0.000696018
-0.000695398
-0.000694581
-0.00069354
-0.000697402
-0.000743799
-0.000743789
-0.000743773
-0.000743747
-0.000743708
-0.000743649
-0.000743564
-0.00074344
-0.000743266
-0.000743029
-0.000742715
-0.000742302
-0.000741764
-0.000741076
-0.000740207
-0.000743803
-0.000790031
-0.000790013
-0.000789983
-0.00078994
-0.00078988
-0.000789798
-0.000789688
-0.000789542
-0.000789351
-0.000789109
-0.000788808
-0.000788437
-0.000787982
-0.000787421
-0.000786722
-0.00079004
-0.000836125
-0.000836099
-0.000836059
-0.000836002
-0.000835925
-0.000835825
-0.000835695
-0.000835532
-0.000835331
-0.000835088
-0.0008348
-0.000834466
-0.000834082
-0.000833633
-0.000833088
-0.000836138
-0.000882108
-0.000882078
-0.000882031
-0.000881965
-0.000881878
-0.000881767
-0.000881627
-0.000881457
-0.000881254
-0.000881016
-0.000880742
-0.000880435
-0.000880101
-0.000879736
-0.000879316
-0.000882123
-0.000928022
-0.000927989
-0.000927938
-0.000927868
-0.000927776
-0.000927661
-0.000927519
-0.000927349
-0.00092715
-0.000926921
-0.000926664
-0.00092638
-0.000926079
-0.000925767
-0.000925433
-0.000928038
-0.000973896
-0.000973861
-0.000973808
-0.000973735
-0.000973642
-0.000973526
-0.000973385
-0.000973218
-0.000973026
-0.000972809
-0.000972569
-0.00097231
-0.000972037
-0.000971761
-0.000971481
-0.000973913
-0.00101974
-0.0010197
-0.00101965
-0.00101958
-0.00101948
-0.00101937
-0.00101923
-0.00101907
-0.00101889
-0.00101868
-0.00101846
-0.00101823
-0.00101798
-0.00101773
-0.00101749
-0.00101976
-0.00106556
-0.00106552
-0.00106547
-0.0010654
-0.0010653
-0.00106519
-0.00106506
-0.00106491
-0.00106474
-0.00106455
-0.00106434
-0.00106413
-0.00106391
-0.00106369
-0.00106348
-0.00106557
-0.00111136
-0.00111132
-0.00111127
-0.0011112
-0.00111111
-0.001111
-0.00111087
-0.00111073
-0.00111057
-0.0011104
-0.00111021
-0.00111002
-0.00110983
-0.00110964
-0.00110945
-0.00111137
-0.00115714
-0.0011571
-0.00115705
-0.00115698
-0.0011569
-0.0011568
-0.00115668
-0.00115655
-0.0011564
-0.00115624
-0.00115607
-0.0011559
-0.00115573
-0.00115556
-0.0011554
-0.00115716
-0.00120291
-0.00120288
-0.00120283
-0.00120276
-0.00120268
-0.00120259
-0.00120248
-0.00120236
-0.00120222
-0.00120208
-0.00120193
-0.00120177
-0.00120162
-0.00120147
-0.00120134
-0.00120293
-0.00124867
-0.00124864
-0.00124859
-0.00124853
-0.00124846
-0.00124837
-0.00124827
-0.00124815
-0.00124803
-0.0012479
-0.00124777
-0.00124763
-0.0012475
-0.00124737
-0.00124725
-0.00124868
-0.00129443
-0.0012944
-0.00129435
-0.0012943
-0.00129423
-0.00129415
-0.00129405
-0.00129395
-0.00129384
-0.00129372
-0.0012936
-0.00129348
-0.00129337
-0.00129325
-0.00129315
-0.00129444
-0.00134017
-0.00134015
-0.00134011
-0.00134006
-0.00134
-0.00133992
-0.00133984
-0.00133974
-0.00133964
-0.00133954
-0.00133943
-0.00133932
-0.00133922
-0.00133912
-0.00133904
-0.00134019
-0.00138592
-0.0013859
-0.00138586
-0.00138582
-0.00138576
-0.00138569
-0.00138562
-0.00138553
-0.00138544
-0.00138535
-0.00138525
-0.00138516
-0.00138507
-0.00138498
-0.00138491
-0.00138594
-0.00143167
-0.00143165
-0.00143161
-0.00143157
-0.00143152
-0.00143146
-0.00143139
-0.00143131
-0.00143123
-0.00143115
-0.00143107
-0.00143099
-0.00143091
-0.00143083
-0.00143076
-0.00143168
-0.00147741
-0.0014774
-0.00147736
-0.00147732
-0.00147728
-0.00147722
-0.00147716
-0.00147709
-0.00147702
-0.00147695
-0.00147687
-0.0014768
-0.00147673
-0.00147667
-0.00147661
-0.00147742
-0.00152316
-0.00152314
-0.00152311
-0.00152308
-0.00152303
-0.00152298
-0.00152293
-0.00152287
-0.00152281
-0.00152274
-0.00152268
-0.00152262
-0.00152255
-0.00152249
-0.00152244
-0.00152317
-0.0015689
-0.00156888
-0.00156886
-0.00156883
-0.00156879
-0.00156874
-0.0015687
-0.00156864
-0.00156859
-0.00156853
-0.00156848
-0.00156842
-0.00156836
-0.00156831
-0.00156826
-0.00156891
-0.00161464
-0.00161463
-0.00161461
-0.00161458
-0.00161454
-0.0016145
-0.00161446
-0.00161441
-0.00161436
-0.00161432
-0.00161426
-0.00161421
-0.00161416
-0.00161412
-0.00161408
-0.00161465
-0.00166038
-0.00166037
-0.00166035
-0.00166033
-0.0016603
-0.00166026
-0.00166022
-0.00166018
-0.00166014
-0.00166009
-0.00166005
-0.00166
-0.00165996
-0.00165992
-0.00165988
-0.00166039
-0.00170612
-0.00170611
-0.00170609
-0.00170607
-0.00170605
-0.00170602
-0.00170598
-0.00170594
-0.0017059
-0.00170587
-0.00170583
-0.00170579
-0.00170575
-0.00170571
-0.00170568
-0.00170613
-0.00175186
-0.00175185
-0.00175184
-0.00175182
-0.00175179
-0.00175177
-0.00175174
-0.0017517
-0.00175167
-0.00175163
-0.0017516
-0.00175157
-0.00175153
-0.0017515
-0.00175147
-0.00175187
-0.0017976
-0.00179759
-0.00179758
-0.00179756
-0.00179754
-0.00179752
-0.00179749
-0.00179746
-0.00179743
-0.0017974
-0.00179737
-0.00179734
-0.00179731
-0.00179728
-0.00179725
-0.0017976
-0.00184333
-0.00184332
-0.00184331
-0.0018433
-0.00184328
-0.00184326
-0.00184324
-0.00184321
-0.00184319
-0.00184316
-0.00184313
-0.00184311
-0.00184308
-0.00184305
-0.00184303
-0.00184334
-0.00188907
-0.00188906
-0.00188906
-0.00188904
-0.00188902
-0.001889
-0.00188899
-0.00188896
-0.00188894
-0.00188891
-0.00188889
-0.00188887
-0.00188884
-0.00188882
-0.0018888
-0.00188908
-0.0019348
-0.0019348
-0.00193479
-0.00193478
-0.00193476
-0.00193475
-0.00193473
-0.00193471
-0.00193469
-0.00193467
-0.00193465
-0.00193462
-0.0019346
-0.00193458
-0.00193456
-0.00193481
-0.00198054
-0.00198053
-0.00198052
-0.00198051
-0.0019805
-0.00198048
-0.00198047
-0.00198045
-0.00198043
-0.00198041
-0.0019804
-0.00198038
-0.00198036
-0.00198034
-0.00198032
-0.00198054
-0.00202626
-0.00202626
-0.00202625
-0.00202624
-0.00202623
-0.00202622
-0.0020262
-0.00202619
-0.00202617
-0.00202616
-0.00202614
-0.00202612
-0.0020261
-0.00202609
-0.00202607
-0.00202626
-0.00207199
-0.00207198
-0.00207197
-0.00207197
-0.00207196
-0.00207195
-0.00207194
-0.00207192
-0.00207191
-0.00207189
-0.00207188
-0.00207186
-0.00207185
-0.00207183
-0.00207181
-0.00207199
-0.00211771
-0.0021177
-0.0021177
-0.00211769
-0.00211769
-0.00211768
-0.00211766
-0.00211765
-0.00211764
-0.00211763
-0.00211761
-0.0021176
-0.00211759
-0.00211757
-0.00211755
-0.00211771
-0.00216343
-0.00216342
-0.00216342
-0.00216341
-0.00216341
-0.0021634
-0.00216339
-0.00216338
-0.00216337
-0.00216336
-0.00216334
-0.00216333
-0.00216332
-0.00216331
-0.00216329
-0.00216343
-0.00220915
-0.00220914
-0.00220914
-0.00220913
-0.00220913
-0.00220912
-0.00220912
-0.00220911
-0.0022091
-0.00220908
-0.00220907
-0.00220906
-0.00220905
-0.00220904
-0.00220902
-0.00220915
-0.00225486
-0.00225486
-0.00225486
-0.00225485
-0.00225484
-0.00225484
-0.00225483
-0.00225483
-0.00225482
-0.00225481
-0.0022548
-0.00225479
-0.00225478
-0.00225476
-0.00225475
-0.00225486
-0.00230057
-0.00230057
-0.00230057
-0.00230056
-0.00230056
-0.00230055
-0.00230055
-0.00230054
-0.00230053
-0.00230053
-0.00230052
-0.00230051
-0.0023005
-0.00230049
-0.00230047
-0.00230058
-0.00234628
-0.00234628
-0.00234628
-0.00234627
-0.00234627
-0.00234626
-0.00234626
-0.00234625
-0.00234625
-0.00234624
-0.00234623
-0.00234622
-0.00234621
-0.0023462
-0.00234619
-0.00234628
-0.00239198
-0.00239198
-0.00239198
-0.00239198
-0.00239197
-0.00239197
-0.00239197
-0.00239196
-0.00239195
-0.00239195
-0.00239194
-0.00239193
-0.00239192
-0.00239192
-0.0023919
-0.00239198
-0.00243768
-0.00243768
-0.00243768
-0.00243768
-0.00243768
-0.00243767
-0.00243767
-0.00243767
-0.00243766
-0.00243765
-0.00243765
-0.00243764
-0.00243763
-0.00243763
-0.00243761
-0.00243768
-0.00248338
-0.00248338
-0.00248338
-0.00248338
-0.00248338
-0.00248337
-0.00248337
-0.00248336
-0.00248336
-0.00248336
-0.00248335
-0.00248335
-0.00248334
-0.00248333
-0.00248332
-0.00248338
-0.00252908
-0.00252908
-0.00252908
-0.00252907
-0.00252907
-0.00252907
-0.00252907
-0.00252906
-0.00252906
-0.00252906
-0.00252905
-0.00252905
-0.00252904
-0.00252904
-0.00252902
-0.00252908
-0.00257477
-0.00257477
-0.00257477
-0.00257477
-0.00257477
-0.00257477
-0.00257476
-0.00257476
-0.00257476
-0.00257475
-0.00257475
-0.00257474
-0.00257474
-0.00257473
-0.00257472
-0.00257477
-0.00262046
-0.00262046
-0.00262046
-0.00262046
-0.00262046
-0.00262046
-0.00262045
-0.00262045
-0.00262045
-0.00262045
-0.00262044
-0.00262044
-0.00262043
-0.00262043
-0.00262042
-0.00262046
-0.00266614
-0.00266614
-0.00266614
-0.00266614
-0.00266614
-0.00266614
-0.00266614
-0.00266614
-0.00266614
-0.00266613
-0.00266613
-0.00266613
-0.00266612
-0.00266612
-0.00266611
-0.00266614
-0.00271182
-0.00271182
-0.00271182
-0.00271182
-0.00271182
-0.00271182
-0.00271182
-0.00271182
-0.00271182
-0.00271182
-0.00271182
-0.00271181
-0.00271181
-0.0027118
-0.0027118
-0.00271182
-0.0027575
-0.0027575
-0.0027575
-0.0027575
-0.0027575
-0.0027575
-0.0027575
-0.0027575
-0.0027575
-0.0027575
-0.0027575
-0.0027575
-0.00275749
-0.00275749
-0.00275748
-0.0027575
-0.00280318
-0.00280318
-0.00280318
-0.00280318
-0.00280318
-0.00280318
-0.00280318
-0.00280318
-0.00280318
-0.00280318
-0.00280318
-0.00280317
-0.00280317
-0.00280317
-0.00280316
-0.00280318
-0.00284885
-0.00284885
-0.00284885
-0.00284885
-0.00284885
-0.00284885
-0.00284885
-0.00284885
-0.00284885
-0.00284885
-0.00284885
-0.00284885
-0.00284885
-0.00284884
-0.00284884
-0.00284885
-0.00289452
-0.00289452
-0.00289452
-0.00289452
-0.00289452
-0.00289452
-0.00289452
-0.00289452
-0.00289452
-0.00289452
-0.00289452
-0.00289452
-0.00289452
-0.00289452
-0.00289451
-0.00289452
-0.00294019
-0.00294018
-0.00294019
-0.00294019
-0.00294019
-0.00294019
-0.00294019
-0.00294018
-0.00294019
-0.00294019
-0.00294019
-0.00294019
-0.00294019
-0.00294019
-0.00294019
-0.00294019
-0.00298585
-0.00298585
-0.00298585
-0.00298585
-0.00298585
-0.00298585
-0.00298585
-0.00298585
-0.00298585
-0.00298585
-0.00298585
-0.00298585
-0.00298585
-0.00298585
-0.00298585
-0.00298585
-0.00303151
-0.00303151
-0.00303151
-0.00303151
-0.00303151
-0.00303151
-0.00303151
-0.00303151
-0.00303151
-0.00303151
-0.00303151
-0.00303151
-0.00303151
-0.00303151
-0.00303151
-0.00303151
-0.00307717
-0.00307717
-0.00307717
-0.00307717
-0.00307717
-0.00307717
-0.00307717
-0.00307717
-0.00307717
-0.00307717
-0.00307717
-0.00307717
-0.00307717
-0.00307717
-0.00307717
-0.00307717
)
;

boundaryField
{
    wireUpstream
    {
        type            calculated;
        value           nonuniform List<scalar> 
16
(
-0.0031
-0.0031
-0.0031
-0.0031
-0.0031
-0.0031
-0.0031
-0.0031
-0.0031
-0.0031
-0.0031
-0.0031
-0.0031
-0.0031
-0.0031
-0.0031
)
;
    }
    wireDownstream
    {
        type            calculated;
        value           nonuniform List<scalar> 
16
(
0.003
0.003
0.003
0.003
0.003
0.003
0.003
0.003
0.003
0.003
0.003
0.003
0.003
0.003
0.003
0.003
)
;
    }
    wireTopContact
    {
        type            calculated;
        value           nonuniform List<scalar> 
122
(
0.00268667
0.00263651
0.00258634
0.00253617
0.002486
0.00243583
0.00238566
0.00233549
0.00228533
0.00223516
0.00218499
0.00213482
0.00208464
0.00203447
0.0019843
0.00193413
0.00188395
0.00183378
0.0017836
0.00173343
0.00168325
0.00163308
0.0015829
0.00153272
0.00148254
0.00143236
0.00138217
0.00133199
0.00128181
0.00123162
0.00118143
0.00113124
0.00108104
0.00103084
0.00098064
0.000930437
0.000880231
0.000830021
0.000779807
0.000729589
0.000679369
0.000629143
0.000578912
0.000528679
0.000478451
0.000428235
0.000378033
0.000327846
0.000277681
0.000227556
0.000177499
0.000127553
7.77627e-05
2.81606e-05
-2.12375e-05
-7.04235e-05
-0.000119399
-0.00016817
-0.000216744
-0.000265126
-0.000313323
-0.000361343
-0.000409191
-0.000456875
-0.000504399
-0.000551767
-0.000598983
-0.000646047
-0.00069296
-0.000739722
-0.00078633
-0.000832784
-0.000879085
-0.000925256
-0.000971338
-0.00101737
-0.00106338
-0.00110937
-0.00115533
-0.00120128
-0.0012472
-0.0012931
-0.001339
-0.00138487
-0.00143073
-0.00147658
-0.00152242
-0.00156824
-0.00161406
-0.00165987
-0.00170567
-0.00175146
-0.00179724
-0.00184302
-0.00188879
-0.00193455
-0.00198031
-0.00202606
-0.0020718
-0.00211754
-0.00216328
-0.00220902
-0.00225474
-0.00230046
-0.00234618
-0.0023919
-0.00243761
-0.00248331
-0.00252902
-0.00257472
-0.00262041
-0.00266611
-0.0027118
-0.00275748
-0.00280316
-0.00284884
-0.00289451
-0.00294019
-0.00298585
-0.00303151
-0.00307717
0.00285588
)
;
    }
    front
    {
        type            wedge;
    }
    back
    {
        type            wedge;
    }
}


// ************************************************************************* //
