/*--------------------------------*- C++ -*----------------------------------*\
| =========                 |                                                 |
| \\      /  F ield         | foam-extend: Open Source CFD                    |
|  \\    /   O peration     | Version:     4.1-20200408                       |
|   \\  /    A nd           | Web:         http://www.foam-extend.org         |
|    \\/     M anipulation  |                                                 |
\*---------------------------------------------------------------------------*/
FoamFile
{
    version     2.0;
    format      ascii;
    class       volVectorField;
    location    "0.0865000";
    object      Velocity;
}
// * * * * * * * * * * * * * * * * * * * * * * * * * * * * * * * * * * * * * //

dimensions      [0 1 -1 0 0 0 0];

internalField   nonuniform List<vector> 
1952
(
(1.00002 -3.65749e-05 0)
(1.00002 -5.75321e-05 0)
(1.00003 -8.25383e-05 0)
(1.00003 -0.000101365 0)
(1.00003 -0.000126751 0)
(1.00004 -0.000142986 0)
(1.00004 -0.000167316 0)
(1.00005 -0.000180219 0)
(1.00006 -0.000201948 0)
(1.00008 -0.00021012 0)
(1.0001 -0.000226937 0)
(1.00012 -0.000228249 0)
(1.00016 -0.000236163 0)
(1.00024 -0.000227293 0)
(1.00036 -0.000217736 0)
(1.00002 -1.54776e-05 0)
(1.00004 -1.56863e-05 0)
(1.00004 -2.46362e-05 0)
(1.00005 -3.47765e-05 0)
(1.00005 -4.2457e-05 0)
(1.00006 -5.19837e-05 0)
(1.00007 -5.77645e-05 0)
(1.00007 -6.58933e-05 0)
(1.00009 -6.90938e-05 0)
(1.0001 -7.50447e-05 0)
(1.00012 -7.51695e-05 0)
(1.00013 -7.83226e-05 0)
(1.00016 -7.48633e-05 0)
(1.00018 -7.50354e-05 0)
(1.00021 -6.92722e-05 0)
(1.00025 -7.05794e-05 0)
(1.00004 -6.66741e-06 0)
(1.00005 -1.04417e-05 0)
(1.00005 -1.65805e-05 0)
(1.00005 -2.28063e-05 0)
(1.00006 -2.79809e-05 0)
(1.00006 -3.32943e-05 0)
(1.00007 -3.67977e-05 0)
(1.00008 -4.06153e-05 0)
(1.00009 -4.18464e-05 0)
(1.00011 -4.36282e-05 0)
(1.00012 -4.23692e-05 0)
(1.00014 -4.20534e-05 0)
(1.00016 -3.84013e-05 0)
(1.00019 -3.67762e-05 0)
(1.00022 -3.25439e-05 0)
(1.00026 -3.23916e-05 0)
(1.00004 -4.481e-06 0)
(1.00006 -5.93135e-06 0)
(1.00006 -9.36475e-06 0)
(1.00006 -1.26736e-05 0)
(1.00007 -1.52529e-05 0)
(1.00008 -1.76616e-05 0)
(1.00008 -1.87885e-05 0)
(1.00009 -1.98547e-05 0)
(1.00011 -1.90908e-05 0)
(1.00012 -1.85207e-05 0)
(1.00014 -1.58507e-05 0)
(1.00016 -1.38501e-05 0)
(1.00018 -9.82135e-06 0)
(1.0002 -7.65031e-06 0)
(1.00022 -4.32294e-06 0)
(1.00025 -5.32304e-06 0)
(1.00006 -2.54646e-06 0)
(1.00007 -2.2295e-06 0)
(1.00007 -3.39405e-06 0)
(1.00008 -4.38688e-06 0)
(1.00008 -4.80575e-06 0)
(1.00009 -5.02298e-06 0)
(1.0001 -4.24581e-06 0)
(1.00011 -3.40798e-06 0)
(1.00012 -1.20541e-06 0)
(1.00013 7.55469e-07 0)
(1.00015 4.17606e-06 0)
(1.00017 6.82684e-06 0)
(1.00019 1.06892e-05 0)
(1.00021 1.27806e-05 0)
(1.00023 1.53854e-05 0)
(1.00025 1.48053e-05 0)
(1.00007 -9.62662e-07 0)
(1.00009 7.37148e-07 0)
(1.00009 1.38951e-06 0)
(1.00009 2.19238e-06 0)
(1.0001 3.48129e-06 0)
(1.00011 4.87724e-06 0)
(1.00011 7.10581e-06 0)
(1.00013 9.24138e-06 0)
(1.00014 1.24799e-05 0)
(1.00015 1.52791e-05 0)
(1.00016 1.91847e-05 0)
(1.00018 2.21388e-05 0)
(1.0002 2.58704e-05 0)
(1.00021 2.78498e-05 0)
(1.00023 3.00126e-05 0)
(1.00025 2.94465e-05 0)
(1.00009 3.10059e-07 0)
(1.0001 3.02319e-06 0)
(1.00011 5.07306e-06 0)
(1.00011 7.22858e-06 0)
(1.00012 9.80241e-06 0)
(1.00012 1.23536e-05 0)
(1.00013 1.56212e-05 0)
(1.00014 1.85994e-05 0)
(1.00015 2.25027e-05 0)
(1.00017 2.5741e-05 0)
(1.00018 2.98608e-05 0)
(1.00019 3.28579e-05 0)
(1.00021 3.64061e-05 0)
(1.00022 3.8275e-05 0)
(1.00024 4.02321e-05 0)
(1.00025 4.00162e-05 0)
(1.0001 1.29102e-06 0)
(1.00012 4.70639e-06 0)
(1.00013 7.77894e-06 0)
(1.00013 1.0907e-05 0)
(1.00014 1.43977e-05 0)
(1.00014 1.7737e-05 0)
(1.00015 2.17114e-05 0)
(1.00016 2.52095e-05 0)
(1.00017 2.95272e-05 0)
(1.00018 3.29802e-05 0)
(1.00019 3.71984e-05 0)
(1.00021 4.01663e-05 0)
(1.00022 4.35906e-05 0)
(1.00023 4.54122e-05 0)
(1.00024 4.73086e-05 0)
(1.00025 4.74082e-05 0)
(1.00012 2.01409e-06 0)
(1.00014 5.87162e-06 0)
(1.00015 9.64762e-06 0)
(1.00015 1.34305e-05 0)
(1.00015 1.75345e-05 0)
(1.00016 2.1369e-05 0)
(1.00017 2.57898e-05 0)
(1.00018 2.95663e-05 0)
(1.00019 3.41143e-05 0)
(1.0002 3.7627e-05 0)
(1.00021 4.18682e-05 0)
(1.00022 4.47666e-05 0)
(1.00023 4.81165e-05 0)
(1.00024 4.99502e-05 0)
(1.00025 5.19061e-05 0)
(1.00025 5.23839e-05 0)
(1.00014 2.5151e-06 0)
(1.00016 6.60175e-06 0)
(1.00017 1.08147e-05 0)
(1.00017 1.49914e-05 0)
(1.00017 1.94632e-05 0)
(1.00018 2.35641e-05 0)
(1.00019 2.82348e-05 0)
(1.0002 3.21184e-05 0)
(1.0002 3.67762e-05 0)
(1.00021 4.02597e-05 0)
(1.00022 4.44975e-05 0)
(1.00023 4.73266e-05 0)
(1.00024 5.06595e-05 0)
(1.00025 5.25539e-05 0)
(1.00026 5.46416e-05 0)
(1.00026 5.54911e-05 0)
(1.00016 2.82953e-06 0)
(1.00018 6.97558e-06 0)
(1.00018 1.1409e-05 0)
(1.00019 1.57696e-05 0)
(1.00019 2.04161e-05 0)
(1.0002 2.46056e-05 0)
(1.0002 2.93808e-05 0)
(1.00021 3.3245e-05 0)
(1.00022 3.79333e-05 0)
(1.00023 4.1328e-05 0)
(1.00024 4.55558e-05 0)
(1.00024 4.83212e-05 0)
(1.00025 5.1686e-05 0)
(1.00026 5.36774e-05 0)
(1.00026 5.59502e-05 0)
(1.00027 5.71722e-05 0)
(1.00018 2.99106e-06 0)
(1.0002 7.06197e-06 0)
(1.0002 1.15425e-05 0)
(1.00021 1.59203e-05 0)
(1.00021 2.05917e-05 0)
(1.00022 2.47336e-05 0)
(1.00022 2.9507e-05 0)
(1.00023 3.32618e-05 0)
(1.00023 3.79306e-05 0)
(1.00024 4.12014e-05 0)
(1.00025 4.54245e-05 0)
(1.00026 4.81384e-05 0)
(1.00026 5.15754e-05 0)
(1.00027 5.36891e-05 0)
(1.00027 5.61796e-05 0)
(1.00028 5.77613e-05 0)
(1.0002 3.02919e-06 0)
(1.00022 6.92085e-06 0)
(1.00022 1.13122e-05 0)
(1.00022 1.55769e-05 0)
(1.00023 2.01588e-05 0)
(1.00023 2.41487e-05 0)
(1.00024 2.88447e-05 0)
(1.00024 3.24231e-05 0)
(1.00025 3.70428e-05 0)
(1.00026 4.01649e-05 0)
(1.00026 4.43953e-05 0)
(1.00027 4.70663e-05 0)
(1.00028 5.06092e-05 0)
(1.00028 5.28612e-05 0)
(1.00028 5.55923e-05 0)
(1.00028 5.75213e-05 0)
(1.00022 2.96961e-06 0)
(1.00024 6.60121e-06 0)
(1.00024 1.07971e-05 0)
(1.00024 1.48473e-05 0)
(1.00024 1.92532e-05 0)
(1.00025 2.30113e-05 0)
(1.00025 2.75763e-05 0)
(1.00026 3.09288e-05 0)
(1.00026 3.54825e-05 0)
(1.00027 3.84394e-05 0)
(1.00028 4.26905e-05 0)
(1.00028 4.53265e-05 0)
(1.00029 4.90014e-05 0)
(1.00029 5.14026e-05 0)
(1.00029 5.4389e-05 0)
(1.00029 5.66527e-05 0)
(1.00023 2.83335e-06 0)
(1.00025 6.14372e-06 0)
(1.00025 1.00624e-05 0)
(1.00026 1.38204e-05 0)
(1.00026 1.79856e-05 0)
(1.00026 2.14506e-05 0)
(1.00027 2.58474e-05 0)
(1.00027 2.89356e-05 0)
(1.00028 3.34155e-05 0)
(1.00029 3.61934e-05 0)
(1.00029 4.04797e-05 0)
(1.0003 4.30849e-05 0)
(1.0003 4.69138e-05 0)
(1.0003 4.94709e-05 0)
(1.0003 5.27242e-05 0)
(1.00031 5.5313e-05 0)
(1.00025 2.63785e-06 0)
(1.00027 5.58044e-06 0)
(1.00027 9.15973e-06 0)
(1.00027 1.25653e-05 0)
(1.00027 1.64424e-05 0)
(1.00028 1.95659e-05 0)
(1.00028 2.377e-05 0)
(1.00029 2.65622e-05 0)
(1.00029 3.09669e-05 0)
(1.0003 3.35528e-05 0)
(1.0003 3.78889e-05 0)
(1.00031 4.04648e-05 0)
(1.00031 4.44664e-05 0)
(1.00031 4.71847e-05 0)
(1.00032 5.07149e-05 0)
(1.00032 5.36236e-05 0)
(1.00027 2.3969e-06 0)
(1.00028 4.93826e-06 0)
(1.00028 8.13167e-06 0)
(1.00028 1.11397e-05 0)
(1.00029 1.46943e-05 0)
(1.00029 1.74388e-05 0)
(1.0003 2.1434e-05 0)
(1.0003 2.39046e-05 0)
(1.00031 2.82353e-05 0)
(1.00031 3.06177e-05 0)
(1.00032 3.50164e-05 0)
(1.00032 3.75635e-05 0)
(1.00032 4.17538e-05 0)
(1.00033 4.46386e-05 0)
(1.00033 4.8456e-05 0)
(1.00033 5.16851e-05 0)
(1.00028 2.12202e-06 0)
(1.00029 4.23927e-06 0)
(1.00029 7.01367e-06 0)
(1.0003 9.59028e-06 0)
(1.0003 1.27996e-05 0)
(1.00031 1.5134e-05 0)
(1.00031 1.89129e-05 0)
(1.00031 2.10371e-05 0)
(1.00032 2.53003e-05 0)
(1.00033 2.74642e-05 0)
(1.00033 3.19406e-05 0)
(1.00033 3.44553e-05 0)
(1.00034 3.88507e-05 0)
(1.00034 4.1907e-05 0)
(1.00034 4.60243e-05 0)
(1.00034 4.95807e-05 0)
(1.00029 1.82272e-06 0)
(1.0003 3.50448e-06 0)
(1.0003 5.83878e-06 0)
(1.00031 7.96163e-06 0)
(1.00031 1.08121e-05 0)
(1.00032 1.27139e-05 0)
(1.00032 1.62735e-05 0)
(1.00033 1.80314e-05 0)
(1.00033 2.22333e-05 0)
(1.00034 2.41663e-05 0)
(1.00034 2.87318e-05 0)
(1.00035 3.12122e-05 0)
(1.00035 3.58264e-05 0)
(1.00035 3.90624e-05 0)
(1.00036 4.34934e-05 0)
(1.00036 4.73916e-05 0)
(1.0003 1.508e-06 0)
(1.00031 2.75481e-06 0)
(1.00031 4.64059e-06 0)
(1.00032 6.29726e-06 0)
(1.00032 8.78705e-06 0)
(1.00033 1.02377e-05 0)
(1.00033 1.35847e-05 0)
(1.00034 1.49548e-05 0)
(1.00034 1.91084e-05 0)
(1.00035 2.07923e-05 0)
(1.00035 2.5463e-05 0)
(1.00036 2.79015e-05 0)
(1.00036 3.27511e-05 0)
(1.00037 3.61742e-05 0)
(1.00037 4.09369e-05 0)
(1.00037 4.51982e-05 0)
(1.00031 1.18688e-06 0)
(1.00032 2.0147e-06 0)
(1.00032 3.45758e-06 0)
(1.00033 4.64925e-06 0)
(1.00033 6.78681e-06 0)
(1.00034 7.77829e-06 0)
(1.00034 1.09241e-05 0)
(1.00035 1.18917e-05 0)
(1.00035 1.60092e-05 0)
(1.00036 1.74302e-05 0)
(1.00037 2.22177e-05 0)
(1.00037 2.46098e-05 0)
(1.00038 2.97081e-05 0)
(1.00038 3.33298e-05 0)
(1.00038 3.84431e-05 0)
(1.00038 4.30969e-05 0)
(1.00032 8.6981e-07 0)
(1.00033 1.3143e-06 0)
(1.00033 2.33806e-06 0)
(1.00033 3.08076e-06 0)
(1.00034 4.89124e-06 0)
(1.00034 5.42309e-06 0)
(1.00035 8.39259e-06 0)
(1.00036 8.94284e-06 0)
(1.00036 1.3046e-05 0)
(1.00037 1.41842e-05 0)
(1.00038 1.91062e-05 0)
(1.00039 2.14406e-05 0)
(1.00039 2.68038e-05 0)
(1.0004 3.06337e-05 0)
(1.0004 3.612e-05 0)
(1.0004 4.12021e-05 0)
(1.00033 5.69752e-07 0)
(1.00033 6.92711e-07 0)
(1.00033 1.34409e-06 0)
(1.00034 1.67541e-06 0)
(1.00034 3.20221e-06 0)
(1.00035 3.29021e-06 0)
(1.00036 6.1189e-06 0)
(1.00037 6.24697e-06 0)
(1.00037 1.03602e-05 0)
(1.00038 1.12004e-05 0)
(1.00039 1.62715e-05 0)
(1.0004 1.85386e-05 0)
(1.00041 2.41789e-05 0)
(1.00041 2.82287e-05 0)
(1.00042 3.41098e-05 0)
(1.00042 3.96631e-05 0)
(1.00033 3.03472e-07 0)
(1.00033 2.02051e-07 0)
(1.00034 5.59045e-07 0)
(1.00034 5.44039e-07 0)
(1.00035 1.85799e-06 0)
(1.00036 1.53579e-06 0)
(1.00036 4.27967e-06 0)
(1.00037 3.98745e-06 0)
(1.00038 8.1476e-06 0)
(1.00039 8.67185e-06 0)
(1.0004 1.39117e-05 0)
(1.00041 1.60949e-05 0)
(1.00042 2.20244e-05 0)
(1.00043 2.63018e-05 0)
(1.00043 3.25992e-05 0)
(1.00044 3.86712e-05 0)
(1.00033 9.33402e-08 0)
(1.00034 -8.94191e-08 0)
(1.00034 9.18833e-08 0)
(1.00035 -1.67004e-07 0)
(1.00035 1.03915e-06 0)
(1.00036 3.67854e-07 0)
(1.00037 3.10601e-06 0)
(1.00038 2.41068e-06 0)
(1.00039 6.66546e-06 0)
(1.0004 6.85958e-06 0)
(1.00041 1.22884e-05 0)
(1.00042 1.43677e-05 0)
(1.00044 2.05935e-05 0)
(1.00044 2.51025e-05 0)
(1.00045 3.1834e-05 0)
(1.00046 3.84758e-05 0)
(1.00033 -3.13597e-08 0)
(1.00034 -9.1044e-08 0)
(1.00034 8.75637e-08 0)
(1.00035 -2.62949e-07 0)
(1.00035 9.86755e-07 0)
(1.00036 6.41432e-08 0)
(1.00037 2.90804e-06 0)
(1.00039 1.84672e-06 0)
(1.0004 6.26059e-06 0)
(1.00041 6.11388e-06 0)
(1.00042 1.17548e-05 0)
(1.00044 1.37029e-05 0)
(1.00045 2.02259e-05 0)
(1.00046 2.49621e-05 0)
(1.00047 3.2138e-05 0)
(1.00048 3.9401e-05 0)
(1.00033 -3.17269e-08 0)
(1.00034 3.13689e-07 0)
(1.00034 7.32655e-07 0)
(1.00035 5.07089e-07 0)
(1.00035 2.01198e-06 0)
(1.00037 9.83429e-07 0)
(1.00037 4.08768e-06 0)
(1.00039 2.72316e-06 0)
(1.0004 7.38408e-06 0)
(1.00042 6.88952e-06 0)
(1.00044 1.27706e-05 0)
(1.00045 1.4549e-05 0)
(1.00047 2.13618e-05 0)
(1.00048 2.63072e-05 0)
(1.00049 3.39266e-05 0)
(1.0005 4.18591e-05 0)
(1.00033 1.42244e-07 0)
(1.00033 1.27561e-06 0)
(1.00034 2.26856e-06 0)
(1.00035 2.46925e-06 0)
(1.00035 4.51795e-06 0)
(1.00037 3.5945e-06 0)
(1.00038 7.16717e-06 0)
(1.00039 5.60165e-06 0)
(1.00041 1.06245e-05 0)
(1.00043 9.78586e-06 0)
(1.00045 1.59379e-05 0)
(1.00046 1.7497e-05 0)
(1.00048 2.45776e-05 0)
(1.0005 2.96959e-05 0)
(1.00051 3.77392e-05 0)
(1.00052 4.63807e-05 0)
(1.00033 5.55272e-07 0)
(1.00033 2.98408e-06 0)
(1.00033 4.99907e-06 0)
(1.00035 6.03381e-06 0)
(1.00035 9.01406e-06 0)
(1.00037 8.48881e-06 0)
(1.00038 1.28099e-05 0)
(1.0004 1.1193e-05 0)
(1.00041 1.67325e-05 0)
(1.00043 1.5563e-05 0)
(1.00046 2.2025e-05 0)
(1.00048 2.32956e-05 0)
(1.0005 3.06054e-05 0)
(1.00052 3.58315e-05 0)
(1.00054 4.42533e-05 0)
(1.00055 5.36277e-05 0)
(1.00033 1.28864e-06 0)
(1.00033 5.67687e-06 0)
(1.00033 9.30552e-06 0)
(1.00034 1.17179e-05 0)
(1.00035 1.61413e-05 0)
(1.00037 1.64156e-05 0)
(1.00038 2.18545e-05 0)
(1.0004 2.04026e-05 0)
(1.00042 2.66624e-05 0)
(1.00044 2.51938e-05 0)
(1.00047 3.20134e-05 0)
(1.00049 3.29046e-05 0)
(1.00052 4.0381e-05 0)
(1.00054 4.56121e-05 0)
(1.00056 5.43303e-05 0)
(1.00058 6.44371e-05 0)
(1.00033 2.44439e-06 0)
(1.00033 9.64485e-06 0)
(1.00033 1.56555e-05 0)
(1.00034 2.0157e-05 0)
(1.00035 2.66897e-05 0)
(1.00037 2.83015e-05 0)
(1.00038 3.53414e-05 0)
(1.0004 3.4358e-05 0)
(1.00042 4.16055e-05 0)
(1.00045 3.98961e-05 0)
(1.00048 4.7133e-05 0)
(1.0005 4.75268e-05 0)
(1.00054 5.50755e-05 0)
(1.00056 6.0157e-05 0)
(1.00059 6.90389e-05 0)
(1.00061 7.98406e-05 0)
(1.00033 4.14736e-06 0)
(1.00033 1.5241e-05 0)
(1.00033 2.46168e-05 0)
(1.00035 3.21252e-05 0)
(1.00035 4.16236e-05 0)
(1.00037 4.52815e-05 0)
(1.00038 5.45508e-05 0)
(1.0004 5.44508e-05 0)
(1.00043 6.30417e-05 0)
(1.00045 6.11836e-05 0)
(1.00048 6.89224e-05 0)
(1.00051 6.86637e-05 0)
(1.00055 7.61561e-05 0)
(1.00058 8.0863e-05 0)
(1.00062 8.97103e-05 0)
(1.00065 0.000101117 0)
(1.00033 6.54903e-06 0)
(1.00034 2.2883e-05 0)
(1.00034 3.68635e-05 0)
(1.00035 4.85456e-05 0)
(1.00036 6.20963e-05 0)
(1.00037 6.87247e-05 0)
(1.00038 8.10301e-05 0)
(1.00041 8.23809e-05 0)
(1.00043 9.27797e-05 0)
(1.00046 9.0927e-05 0)
(1.00049 9.92815e-05 0)
(1.00053 9.81813e-05 0)
(1.00057 0.000105442 0)
(1.00061 0.00010946 0)
(1.00065 0.000117985 0)
(1.00069 0.000129835 0)
(1.00034 9.82874e-06 0)
(1.00036 3.30568e-05 0)
(1.00035 5.31804e-05 0)
(1.00037 7.0498e-05 0)
(1.00037 8.94631e-05 0)
(1.00038 0.000100248 0)
(1.00039 0.000116623 0)
(1.00041 0.000120183 0)
(1.00044 0.000133009 0)
(1.00046 0.000131395 0)
(1.0005 0.00014054 0)
(1.00054 0.000138367 0)
(1.00059 0.000145177 0)
(1.00063 0.000148072 0)
(1.00069 0.000155875 0)
(1.00073 0.000167907 0)
(1.00035 1.41949e-05 0)
(1.00038 4.63099e-05 0)
(1.00038 7.44563e-05 0)
(1.00039 9.9213e-05 0)
(1.00038 0.000125279 0)
(1.0004 0.000141728 0)
(1.0004 0.000163485 0)
(1.00042 0.000170267 0)
(1.00044 0.000186342 0)
(1.00047 0.000185337 0)
(1.00051 0.000195537 0)
(1.00055 0.000192033 0)
(1.00061 0.00019813 0)
(1.00066 0.000199325 0)
(1.00072 0.000205861 0)
(1.00078 0.000217681 0)
(1.00038 1.98823e-05 0)
(1.00042 6.32375e-05 0)
(1.00042 0.000101661 0)
(1.00042 0.000136045 0)
(1.00041 0.000171268 0)
(1.00042 0.00019527 0)
(1.00042 0.000224062 0)
(1.00044 0.000235414 0)
(1.00045 0.000255834 0)
(1.00048 0.000256006 0)
(1.00052 0.000267681 0)
(1.00056 0.000262588 0)
(1.00062 0.00026769 0)
(1.00068 0.000266431 0)
(1.00076 0.000270984 0)
(1.00083 0.000282025 0)
(1.00042 2.71464e-05 0)
(1.00048 8.44552e-05 0)
(1.00047 0.000135803 0)
(1.00048 0.00018242 0)
(1.00046 0.00022927 0)
(1.00046 0.000263158 0)
(1.00045 0.000301057 0)
(1.00046 0.00031875 0)
(1.00047 0.00034499 0)
(1.00049 0.000347215 0)
(1.00053 0.000361037 0)
(1.00057 0.000354157 0)
(1.00064 0.000358013 0)
(1.00071 0.000353338 0)
(1.0008 0.000354985 0)
(1.00088 0.000364431 0)
(1.00048 3.62508e-05 0)
(1.00057 0.000110545 0)
(1.00055 0.000177848 0)
(1.00055 0.000239728 0)
(1.00052 0.000301109 0)
(1.00052 0.000347724 0)
(1.0005 0.000397289 0)
(1.0005 0.00042365 0)
(1.0005 0.000457683 0)
(1.00051 0.000463309 0)
(1.00054 0.000480349 0)
(1.00058 0.000471668 0)
(1.00065 0.000474144 0)
(1.00073 0.000464863 0)
(1.00083 0.000462419 0)
(1.00094 0.00046909 0)
(1.00057 4.74448e-05 0)
(1.00069 0.000141988 0)
(1.00066 0.000228605 0)
(1.00066 0.000309168 0)
(1.00062 0.000388416 0)
(1.0006 0.000451135 0)
(1.00056 0.000515499 0)
(1.00055 0.000553533 0)
(1.00053 0.000598027 0)
(1.00053 0.000609099 0)
(1.00056 0.000631105 0)
(1.00059 0.000621036 0)
(1.00066 0.000622366 0)
(1.00074 0.000607136 0)
(1.00087 0.000599187 0)
(1.001 0.000601422 0)
(1.00069 6.09332e-05 0)
(1.00085 0.000179046 0)
(1.00082 0.000288544 0)
(1.0008 0.000391511 0)
(1.00074 0.000492322 0)
(1.00071 0.000575063 0)
(1.00066 0.00065796 0)
(1.00062 0.000711512 0)
(1.00059 0.000770004 0)
(1.00057 0.000789617 0)
(1.00058 0.000819377 0)
(1.00059 0.000809247 0)
(1.00067 0.000810538 0)
(1.00075 0.000788263 0)
(1.00089 0.000773597 0)
(1.00105 0.000769328 0)
(1.00086 7.68274e-05 0)
(1.00106 0.00022163 0)
(1.00102 0.000357573 0)
(1.00099 0.00048677 0)
(1.00091 0.000613052 0)
(1.00086 0.000720162 0)
(1.00078 0.000825906 0)
(1.00073 0.000899718 0)
(1.00066 0.000976814 0)
(1.00062 0.00100941 0)
(1.00061 0.00105121 0)
(1.0006 0.0010438 0)
(1.00067 0.00104762 0)
(1.00075 0.00101795 0)
(1.00092 0.000996159 0)
(1.00111 0.00098286 0)
(1.00107 9.50868e-05 0)
(1.00133 0.000269112 0)
(1.00127 0.000434734 0)
(1.00123 0.000593785 0)
(1.00114 0.000749374 0)
(1.00106 0.000885419 0)
(1.00095 0.00101874 0)
(1.00087 0.00111847 0)
(1.00077 0.00121992 0)
(1.00069 0.00127168 0)
(1.00065 0.00133172 0)
(1.00062 0.00133178 0)
(1.00067 0.00134243 0)
(1.00075 0.00130553 0)
(1.00093 0.00127583 0)
(1.00115 0.00124838 0)
(1.00134 0.00011544 0)
(1.00166 0.000320157 0)
(1.00159 0.00051791 0)
(1.00154 0.000709777 0)
(1.00142 0.000897986 0)
(1.00132 0.00106732 0)
(1.00118 0.00123304 0)
(1.00106 0.00136506 0)
(1.00092 0.00149788 0)
(1.0008 0.00157725 0)
(1.00071 0.00166485 0)
(1.00064 0.00168109 0)
(1.00066 0.00170704 0)
(1.00072 0.00166572 0)
(1.00091 0.00162615 0)
(1.00119 0.00157321 0)
(1.00168 0.000137311 0)
(1.00207 0.000372506 0)
(1.00199 0.000603461 0)
(1.00192 0.000829794 0)
(1.00178 0.00105273 0)
(1.00165 0.00125878 0)
(1.00147 0.00146104 0)
(1.00131 0.00163182 0)
(1.00112 0.00180381 0)
(1.00095 0.00192197 0)
(1.00081 0.00205128 0)
(1.00068 0.00210096 0)
(1.00066 0.00216431 0)
(1.00067 0.00213932 0)
(1.00087 0.00210782 0)
(1.00119 0.00203109 0)
(1.00209 0.000159729 0)
(1.00256 0.000422914 0)
(1.00246 0.000686083 0)
(1.00237 0.000946439 0)
(1.00221 0.00120408 0)
(1.00205 0.00144816 0)
(1.00184 0.00168895 0)
(1.00163 0.00190316 0)
(1.0014 0.00212055 0)
(1.00117 0.00228858 0)
(1.00097 0.00247572 0)
(1.00077 0.00258348 0)
(1.00069 0.00272409 0)
(1.00063 0.00277074 0)
(1.00079 0.00283025 0)
(1.00115 0.00282048 0)
(1.00258 0.000181303 0)
(1.00313 0.000467168 0)
(1.00302 0.000758841 0)
(1.00291 0.00104988 0)
(1.00272 0.00133909 0)
(1.00253 0.00161909 0)
(1.00228 0.00189644 0)
(1.00203 0.0021541 0)
(1.00175 0.00241686 0)
(1.00147 0.00263825 0)
(1.00121 0.00288798 0)
(1.00096 0.00306415 0)
(1.00081 0.00330325 0)
(1.00069 0.00345769 0)
(1.00079 0.0036885 0)
(1.00109 0.00387828 0)
(1.00315 0.000200231 0)
(1.00377 0.000500403 0)
(1.00365 0.000813702 0)
(1.00352 0.00112869 0)
(1.00331 0.00144264 0)
(1.00309 0.00175223 0)
(1.0028 0.00205914 0)
(1.00252 0.00235403 0)
(1.00218 0.00265336 0)
(1.00185 0.0029192 0)
(1.00152 0.00321504 0)
(1.00121 0.00343559 0)
(1.001 0.00373131 0)
(1.00081 0.00391811 0)
(1.00084 0.00419497 0)
(1.00101 0.00439411 0)
(1.0038 0.000214431 0)
(1.00448 0.000517419 0)
(1.00434 0.000842129 0)
(1.0042 0.00117078 0)
(1.00397 0.00149901 0)
(1.00372 0.00182797 0)
(1.0034 0.00215352 0)
(1.00307 0.00247546 0)
(1.00267 0.00279886 0)
(1.00229 0.00309809 0)
(1.00189 0.00342265 0)
(1.00149 0.00366977 0)
(1.0012 0.00399607 0)
(1.0009 0.00417411 0)
(1.00082 0.00445603 0)
(1.00086 0.00461586 0)
(1.00451 0.000221679 0)
(1.00524 0.000512974 0)
(1.00509 0.000835529 0)
(1.00494 0.00116402 0)
(1.00468 0.00149249 0)
(1.0044 0.00182683 0)
(1.00404 0.00215645 0)
(1.00367 0.00249174 0)
(1.00322 0.0028239 0)
(1.00277 0.00314424 0)
(1.00228 0.00347974 0)
(1.0018 0.0037422 0)
(1.00139 0.00408032 0)
(1.00095 0.0042276 0)
(1.00077 0.00452126 0)
(1.00067 0.00462588 0)
(1.00528 0.000219732 0)
(1.00603 0.000482156 0)
(1.00587 0.000785852 0)
(1.0057 0.00109705 0)
(1.00542 0.00140845 0)
(1.00512 0.00173068 0)
(1.00473 0.00204666 0)
(1.00431 0.00237825 0)
(1.0038 0.00270183 0)
(1.00329 0.00302987 0)
(1.0027 0.00335959 0)
(1.00212 0.0036338 0)
(1.00155 0.00396679 0)
(1.00096 0.00408654 0)
(1.00065 0.00442165 0)
(1.00039 0.00442018 0)
(1.00607 0.000206485 0)
(1.00683 0.000420735 0)
(1.00666 0.000686072 0)
(1.00647 0.000959632 0)
(1.00617 0.00123321 0)
(1.00585 0.00152163 0)
(1.00542 0.00180153 0)
(1.00496 0.00210649 0)
(1.0044 0.00239826 0)
(1.00381 0.00271352 0)
(1.00313 0.00301693 0)
(1.00243 0.00330022 0)
(1.00168 0.00361353 0)
(1.00093 0.00376075 0)
(1.00047 0.00413168 0)
(0.999883 0.00391653 0)
(1.00687 0.000180131 0)
(1.0076 0.000324938 0)
(1.00742 0.000529685 0)
(1.00722 0.000741889 0)
(1.0069 0.00095257 0)
(1.00655 0.00117949 0)
(1.00609 0.00139384 0)
(1.00559 0.00164143 0)
(1.00498 0.00187207 0)
(1.00433 0.00214729 0)
(1.00355 0.00240443 0)
(1.00273 0.00269006 0)
(1.00181 0.00298512 0)
(1.00089 0.00321799 0)
(1.00007 0.0034922 0)
(0.998926 0.00288832 0)
(1.00764 0.000139075 0)
(1.00831 0.000189744 0)
(1.00811 0.000308806 0)
(1.0079 0.000433724 0)
(1.00756 0.000555522 0)
(1.00717 0.000693895 0)
(1.00668 0.000817572 0)
(1.00614 0.000984565 0)
(1.0055 0.00113437 0)
(1.00479 0.00135439 0)
(1.00395 0.00155565 0)
(1.00306 0.00180589 0)
(1.002 0.00201169 0)
(1.00077 0.0021298 0)
(0.999201 0.00202494 0)
(0.997217 0.000943291 0)
(1.00835 8.11809e-05 0)
(1.00891 1.81228e-05 0)
(1.0087 3.01843e-05 0)
(1.00847 4.91504e-05 0)
(1.00811 6.9058e-05 0)
(1.0077 0.000114981 0)
(1.00719 0.000155328 0)
(1.00665 0.000238737 0)
(1.00601 0.000273897 0)
(1.00528 0.000364709 0)
(1.00435 0.000382135 0)
(1.00325 0.000395772 0)
(1.00187 0.000192827 0)
(1.00014 -0.000217534 0)
(0.99767 -0.000931536 0)
(0.994693 -0.00238848 0)
(1.00896 7.51287e-06 0)
(1.00938 -0.000156847 0)
(1.00918 -0.000255061 0)
(1.00896 -0.000351542 0)
(1.00861 -0.000454622 0)
(1.0082 -0.000539204 0)
(1.00767 -0.000647283 0)
(1.00701 -0.000765637 0)
(1.00625 -0.00102079 0)
(1.00535 -0.00131979 0)
(1.0042 -0.00182578 0)
(1.00276 -0.00239405 0)
(1.00087 -0.00326022 0)
(0.998551 -0.004274 0)
(0.995354 -0.00556381 0)
(0.991537 -0.00722405 0)
(1.00943 -6.76758e-05 0)
(1.00981 -0.000374773 0)
(1.00957 -0.000625696 0)
(1.00928 -0.000908676 0)
(1.00885 -0.00124934 0)
(1.00832 -0.00164248 0)
(1.00763 -0.00215612 0)
(1.00675 -0.00275451 0)
(1.00568 -0.00354464 0)
(1.00443 -0.00443959 0)
(1.00292 -0.00559854 0)
(1.00108 -0.00681018 0)
(0.998767 -0.00830848 0)
(0.995961 -0.00980548 0)
(0.992238 -0.0115493 0)
(0.987828 -0.0133115 0)
(1.00987 -0.000160692 0)
(1.00977 -0.00083944 0)
(1.00941 -0.00141236 0)
(1.00894 -0.00206266 0)
(1.00829 -0.00283123 0)
(1.00748 -0.00371726 0)
(1.00649 -0.00478495 0)
(1.00529 -0.00597766 0)
(1.0039 -0.00737662 0)
(1.00229 -0.00887548 0)
(1.00043 -0.010618 0)
(0.998247 -0.0123607 0)
(0.995603 -0.0143411 0)
(0.992451 -0.0161669 0)
(0.988432 -0.0181782 0)
(0.983727 -0.0198643 0)
(1.00987 -0.000358067 0)
(1.00859 -0.00163108 0)
(1.00809 -0.00271924 0)
(1.00741 -0.0039096 0)
(1.00649 -0.00524223 0)
(1.00538 -0.00670878 0)
(1.00407 -0.00835469 0)
(1.00255 -0.0101229 0)
(1.00085 -0.0120739 0)
(0.99893 -0.0140868 0)
(0.99679 -0.0162892 0)
(0.994351 -0.0184231 0)
(0.991521 -0.0207246 0)
(0.988212 -0.0227272 0)
(0.984161 -0.0248325 0)
(0.979476 -0.0263197 0)
(1.00875 -0.000695331 0)
(1.00588 -0.00267704 0)
(1.00524 -0.00441459 0)
(1.00436 -0.00624638 0)
(1.00322 -0.00819668 0)
(1.00184 -0.0102512 0)
(1.00027 -0.012439 0)
(0.998497 -0.014709 0)
(0.996561 -0.0171049 0)
(0.994431 -0.0195077 0)
(0.992125 -0.0220288 0)
(0.989559 -0.0244121 0)
(0.986697 -0.026891 0)
(0.983421 -0.0289589 0)
(0.979572 -0.0310597 0)
(0.975173 -0.0323349 0)
(1.00609 -0.00114275 0)
(1.00137 -0.00382349 0)
(1.00067 -0.00625199 0)
(0.999671 -0.0087413 0)
(0.998387 -0.0112908 0)
(0.996864 -0.0138836 0)
(0.99514 -0.0165344 0)
(0.993234 -0.0192042 0)
(0.991186 -0.0219265 0)
(0.988969 -0.0245979 0)
(0.986623 -0.0273157 0)
(0.984065 -0.0298391 0)
(0.981312 -0.0323937 0)
(0.97823 -0.0344644 0)
(0.974762 -0.036519 0)
(0.970856 -0.0376151 0)
(1.00164 -0.00163503 0)
(0.995141 -0.00488642 0)
(0.994433 -0.00794481 0)
(0.993425 -0.0110219 0)
(0.992129 -0.01409 0)
(0.990594 -0.0171318 0)
(0.988863 -0.02015 0)
(0.986957 -0.0231197 0)
(0.984926 -0.026067 0)
(0.982748 -0.0289119 0)
(0.980484 -0.031738 0)
(0.978054 -0.034332 0)
(0.97553 -0.0369034 0)
(0.972771 -0.0389551 0)
(0.969821 -0.0409564 0)
(0.96657 -0.0419259 0)
(0.995417 -0.00209291 0)
(0.987485 -0.00570865 0)
(0.986842 -0.00925115 0)
(0.985917 -0.0127775 0)
(0.984724 -0.0162366 0)
(0.983302 -0.0196121 0)
(0.98169 -0.0228954 0)
(0.979909 -0.0260752 0)
(0.978013 -0.029169 0)
(0.975986 -0.0321218 0)
(0.973905 -0.0350019 0)
(0.971703 -0.0376306 0)
(0.9695 -0.040193 0)
(0.96716 -0.0422302 0)
(0.964828 -0.0441928 0)
(0.962349 -0.0451018 0)
(0.987745 -0.00244797 0)
(0.978886 -0.00618807 0)
(0.978353 -0.0100145 0)
(0.977574 -0.0138076 0)
(0.976562 -0.0175009 0)
(0.975338 -0.0210794 0)
(0.973935 -0.0245236 0)
(0.972369 -0.0278323 0)
(0.970692 -0.031011 0)
(0.968897 -0.0340273 0)
(0.967074 -0.0369302 0)
(0.965172 -0.0395791 0)
(0.963356 -0.0421263 0)
(0.961505 -0.0441674 0)
(0.959857 -0.046114 0)
(0.958226 -0.0470288 0)
(0.979107 -0.0026553 0)
(0.969897 -0.00628813 0)
(0.969485 -0.0101786 0)
(0.968876 -0.0140399 0)
(0.968071 -0.0177995 0)
(0.96708 -0.0214441 0)
(0.965927 -0.0249438 0)
(0.964618 -0.0283029 0)
(0.963207 -0.0315114 0)
(0.96169 -0.0345549 0)
(0.960168 -0.0374592 0)
(0.958612 -0.0401223 0)
(0.957222 -0.0426561 0)
(0.9559 -0.0447244 0)
(0.954971 -0.0466811 0)
(0.954227 -0.0476679 0)
(0.97007 -0.00269862 0)
(0.961046 -0.0060351 0)
(0.96074 -0.00978314 0)
(0.960281 -0.013524 0)
(0.959666 -0.0171871 0)
(0.958895 -0.0207626 0)
(0.957982 -0.0242114 0)
(0.956931 -0.0275393 0)
(0.95579 -0.0307194 0)
(0.954563 -0.0337505 0)
(0.953355 -0.0366324 0)
(0.952161 -0.0392999 0)
(0.951209 -0.0418199 0)
(0.950433 -0.0439334 0)
(0.950226 -0.04592 0)
(0.950368 -0.0470334 0)
(0.961173 -0.00258928 0)
(0.952763 -0.00550674 0)
(0.952528 -0.00894656 0)
(0.952176 -0.0124093 0)
(0.9517 -0.0158326 0)
(0.951099 -0.0192122 0)
(0.950382 -0.0225031 0)
(0.949554 -0.0257121 0)
(0.948656 -0.0287964 0)
(0.947698 -0.0317649 0)
(0.946789 -0.0345903 0)
(0.945948 -0.0372413 0)
(0.945422 -0.0397375 0)
(0.94518 -0.0419029 0)
(0.945671 -0.0439278 0)
(0.946658 -0.0452082 0)
(0.952858 -0.00236125 0)
(0.945338 -0.00481253 0)
(0.945135 -0.007837 0)
(0.944836 -0.0109103 0)
(0.944436 -0.0139815 0)
(0.943939 -0.0170541 0)
(0.943355 -0.0200833 0)
(0.942693 -0.0230794 0)
(0.941987 -0.0259894 0)
(0.941257 -0.0288314 0)
(0.940608 -0.0315523 0)
(0.94009 -0.0341511 0)
(0.939953 -0.0366005 0)
(0.940214 -0.0388086 0)
(0.941346 -0.0408655 0)
(0.943102 -0.0423345 0)
(0.945417 -0.00206223 0)
(0.938907 -0.00406772 0)
(0.938703 -0.0066344 0)
(0.938413 -0.00926107 0)
(0.938037 -0.0119088 0)
(0.937583 -0.0145895 0)
(0.937068 -0.0172652 0)
(0.936506 -0.019954 0)
(0.935929 -0.0226024 0)
(0.935369 -0.0252396 0)
(0.934928 -0.0277933 0)
(0.934685 -0.0302887 0)
(0.934885 -0.0326549 0)
(0.935598 -0.0348796 0)
(0.93729 -0.0369472 0)
(0.939699 -0.0386058 0)
(0.938983 -0.00174219 0)
(0.933469 -0.00336709 0)
(0.933251 -0.00549108 0)
(0.932948 -0.00766803 0)
(0.932563 -0.00986849 0)
(0.932113 -0.0121115 0)
(0.931617 -0.0143689 0)
(0.931099 -0.0166697 0)
(0.930587 -0.0189685 0)
(0.930132 -0.0213114 0)
(0.929835 -0.0236188 0)
(0.929809 -0.0259429 0)
(0.930282 -0.0281756 0)
(0.931382 -0.0303752 0)
(0.933531 -0.0324248 0)
(0.936446 -0.0342611 0)
(0.933548 -0.00144186 0)
(0.928925 -0.00276727 0)
(0.928698 -0.0045033 0)
(0.928383 -0.00627157 0)
(0.927985 -0.00804853 0)
(0.927527 -0.00985557 0)
(0.927028 -0.0116738 0)
(0.926518 -0.0135405 0)
(0.926024 -0.0154213 0)
(0.925616 -0.0173809 0)
(0.925397 -0.0193479 0)
(0.92552 -0.0214109 0)
(0.926192 -0.0234414 0)
(0.927598 -0.0255558 0)
(0.930076 -0.0275563 0)
(0.93333 -0.0295565 0)
(0.929006 -0.00118532 0)
(0.925133 -0.00228234 0)
(0.924914 -0.00370117 0)
(0.924609 -0.00512761 0)
(0.924218 -0.00654001 0)
(0.923767 -0.00795648 0)
(0.923271 -0.00936381 0)
(0.922768 -0.0108031 0)
(0.922274 -0.0122472 0)
(0.921876 -0.0137661 0)
(0.921676 -0.0152959 0)
(0.921874 -0.0169799 0)
(0.922657 -0.0187114 0)
(0.924259 -0.020657 0)
(0.926903 -0.0225686 0)
(0.930319 -0.0247198 0)
(0.92521 -0.000978228 0)
(0.92196 -0.00189476 0)
(0.92177 -0.00306312 0)
(0.921503 -0.00422021 0)
(0.921149 -0.00534389 0)
(0.920731 -0.00644376 0)
(0.92026 -0.00750778 0)
(0.919774 -0.00857811 0)
(0.919286 -0.00962938 0)
(0.9189 -0.0107154 0)
(0.918706 -0.0117504 0)
(0.918924 -0.0129349 0)
(0.919715 -0.0142361 0)
(0.921362 -0.0158937 0)
(0.923964 -0.0176498 0)
(0.927354 -0.0199109 0)
(0.922026 -0.000812641 0)
(0.919216 -0.0015791 0)
(0.919061 -0.00255295 0)
(0.918839 -0.00351032 0)
(0.918537 -0.00443035 0)
(0.918171 -0.00531035 0)
(0.917743 -0.00613098 0)
(0.917298 -0.00692438 0)
(0.91687 -0.0076521 0)
(0.916632 -0.00837372 0)
(0.916601 -0.00899903 0)
(0.916843 -0.0097023 0)
(0.917472 -0.0104343 0)
(0.918958 -0.0116116 0)
(0.921261 -0.0130682 0)
(0.92441 -0.0152974 0)
(0.91927 -0.000677224 0)
(0.916856 -0.00130126 0)
(0.916765 -0.00211388 0)
(0.916638 -0.0029216 0)
(0.916471 -0.00371068 0)
(0.916276 -0.00446965 0)
(0.916061 -0.00516992 0)
(0.915867 -0.00581804 0)
(0.915731 -0.00635012 0)
(0.915738 -0.00684373 0)
(0.915846 -0.00726388 0)
(0.916113 -0.00771236 0)
(0.916578 -0.00796998 0)
(0.917472 -0.00853206 0)
(0.919034 -0.00939002 0)
(0.921676 -0.011263 0)
(0.916889 -0.000557443 0)
(0.915644 -0.00106873 0)
(0.915599 -0.00173769 0)
(0.91554 -0.0024083 0)
(0.915473 -0.00306979 0)
(0.915408 -0.00371538 0)
(0.915356 -0.00432328 0)
(0.915343 -0.00489576 0)
(0.915371 -0.00538405 0)
(0.915455 -0.00582875 0)
(0.915603 -0.00616192 0)
(0.915939 -0.0065001 0)
(0.916377 -0.00666696 0)
(0.916942 -0.00693222 0)
(0.917738 -0.00707478 0)
(0.919537 -0.00825391 0)
(0.915661 -0.000458119 0)
(0.915086 -0.000938965 0)
(0.915044 -0.00151966 0)
(0.914988 -0.00209563 0)
(0.914925 -0.00265045 0)
(0.914867 -0.00318277 0)
(0.914825 -0.00367069 0)
(0.914828 -0.00412769 0)
(0.914885 -0.00451642 0)
(0.915038 -0.00488063 0)
(0.915258 -0.00514479 0)
(0.915634 -0.00542089 0)
(0.916091 -0.0055714 0)
(0.916741 -0.00583864 0)
(0.917285 -0.00581965 0)
(0.918206 -0.00634834 0)
(0.915102 -0.000402708 0)
(0.914431 -0.000802372 0)
(0.914415 -0.0012966 0)
(0.914396 -0.00178423 0)
(0.914383 -0.00224969 0)