/*--------------------------------*- C++ -*----------------------------------*\
| =========                 |                                                 |
| \\      /  F ield         | OpenFOAM: The Open Source CFD Toolbox           |
|  \\    /   O peration     | Version:  4.1                                   |
|   \\  /    A nd           | Web:      www.OpenFOAM.org                      |
|    \\/     M anipulation  |                                                 |
\*---------------------------------------------------------------------------*/
FoamFile
{
    version     2.0;
    format      ascii;
    class       pointVectorField;
    location    "0.0065";
    object      pointDisplacement_Next;
}
// * * * * * * * * * * * * * * * * * * * * * * * * * * * * * * * * * * * * * //

dimensions      [0 1 0 0 0 0 0];

internalField   uniform (0 0 0);

boundaryField
{
    inlet
    {
        type            fixedValue;
        value           nonuniform 0();
    }
    outlet
    {
        type            fixedValue;
        value           nonuniform 0();
    }
    mantle
    {
        type            fixedValue;
        value           nonuniform List<vector> 
416
(
(-9.7403e-06 -0.000105 -3.8606e-10)
(-1.3627e-05 -0.00010412 -4.5726e-10)
(-1.3634e-05 -0.00010198 2.0263e-05)
(-9.7429e-06 -0.00010282 2.0441e-05)
(-1.3653e-05 -9.5795e-05 3.97e-05)
(-9.7475e-06 -9.6563e-05 4.0041e-05)
(-1.3677e-05 -8.6039e-05 5.7535e-05)
(-9.7619e-06 -8.67e-05 5.799e-05)
(-1.3688e-05 -7.3146e-05 7.3146e-05)
(-9.7678e-06 -7.3694e-05 7.3694e-05)
(-1.3677e-05 -5.7535e-05 8.6039e-05)
(-9.7618e-06 -5.799e-05 8.67e-05)
(-1.3653e-05 -3.97e-05 9.5795e-05)
(-9.7472e-06 -4.0041e-05 9.6563e-05)
(-1.3634e-05 -2.0264e-05 0.00010198)
(-9.7425e-06 -2.0441e-05 0.00010283)
(-1.3627e-05 4.6811e-10 0.00010412)
(-9.7398e-06 4.704e-10 0.000105)
(-1.7669e-05 -0.00010105 -5.7393e-10)
(-1.7681e-05 -9.8955e-05 1.9638e-05)
(-1.7709e-05 -9.2972e-05 3.8505e-05)
(-1.7734e-05 -8.3551e-05 5.5869e-05)
(-1.7746e-05 -7.1072e-05 7.1072e-05)
(-1.7734e-05 -5.5869e-05 8.3551e-05)
(-1.771e-05 -3.8505e-05 9.2972e-05)
(-1.7681e-05 -1.9638e-05 9.8956e-05)
(-1.7669e-05 4.7232e-10 0.00010105)
(-2.1667e-05 -9.6221e-05 -6.1551e-10)
(-2.1686e-05 -9.4244e-05 1.8695e-05)
(-2.1718e-05 -8.8564e-05 3.6682e-05)
(-2.1731e-05 -7.9631e-05 5.326e-05)
(-2.1731e-05 -6.7756e-05 6.7756e-05)
(-2.1731e-05 -5.3261e-05 7.9631e-05)
(-2.1718e-05 -3.6683e-05 8.8565e-05)
(-2.1686e-05 -1.8696e-05 9.4245e-05)
(-2.1667e-05 4.9926e-10 9.6223e-05)
(-2.5407e-05 -9.0347e-05 -7.1511e-10)
(-2.5434e-05 -8.8489e-05 1.7553e-05)
(-2.5473e-05 -8.3157e-05 3.4458e-05)
(-2.5468e-05 -7.4812e-05 5.0058e-05)
(-2.5455e-05 -6.3683e-05 6.3683e-05)
(-2.5468e-05 -5.0058e-05 7.4812e-05)
(-2.5473e-05 -3.4459e-05 8.3158e-05)
(-2.5434e-05 -1.7554e-05 8.849e-05)
(-2.5407e-05 4.4895e-10 9.0349e-05)
(-2.8738e-05 -8.3875e-05 -7.1695e-10)
(-2.8757e-05 -8.2148e-05 1.6287e-05)
(-2.8789e-05 -7.722e-05 3.1994e-05)
(-2.8792e-05 -6.949e-05 4.6505e-05)
(-2.8787e-05 -5.9174e-05 5.9174e-05)
(-2.8792e-05 -4.6505e-05 6.949e-05)
(-2.8789e-05 -3.1995e-05 7.722e-05)
(-2.8757e-05 -1.6288e-05 8.215e-05)
(-2.8737e-05 2.9636e-10 8.3877e-05)
(-3.1582e-05 -7.6826e-05 -8.3341e-10)
(-3.1598e-05 -7.5229e-05 1.4901e-05)
(-3.1625e-05 -7.0719e-05 2.9292e-05)
(-3.1634e-05 -6.3669e-05 4.2613e-05)
(-3.1635e-05 -5.4246e-05 5.4246e-05)
(-3.1634e-05 -4.2614e-05 6.3669e-05)
(-3.1625e-05 -2.9293e-05 7.072e-05)
(-3.1598e-05 -1.4902e-05 7.523e-05)
(-3.1581e-05 2.0656e-10 7.6827e-05)
(-3.3926e-05 -6.9073e-05 -1.6792e-09)
(-3.3951e-05 -6.7658e-05 1.34e-05)
(-3.3984e-05 -6.3624e-05 2.6347e-05)
(-3.3981e-05 -5.7302e-05 3.8347e-05)
(-3.3969e-05 -4.882e-05 4.882e-05)
(-3.3981e-05 -3.8348e-05 5.7302e-05)
(-3.3984e-05 -2.6349e-05 6.3625e-05)
(-3.3951e-05 -1.3401e-05 6.7659e-05)
(-3.3926e-05 8.0973e-10 6.9074e-05)
(-3.58e-05 -6.0963e-05 -8.53e-10)
(-3.5836e-05 -5.9714e-05 1.1822e-05)
(-3.5877e-05 -5.6162e-05 2.3258e-05)
(-3.5857e-05 -5.061e-05 3.3876e-05)
(-3.583e-05 -4.3138e-05 4.3138e-05)
(-3.5857e-05 -3.3878e-05 5.061e-05)
(-3.5877e-05 -2.326e-05 5.6162e-05)
(-3.5836e-05 -1.1823e-05 5.9715e-05)
(-3.58e-05 -2.1504e-10 6.0964e-05)
(-3.7228e-05 -5.2867e-05 -7.6991e-10)
(-3.7248e-05 -5.1811e-05 1.027e-05)
(-3.7274e-05 -4.8774e-05 2.0204e-05)
(-3.7267e-05 -4.3955e-05 2.9415e-05)
(-3.7255e-05 -3.7454e-05 3.7453e-05)
(-3.7267e-05 -2.9416e-05 4.3955e-05)
(-3.7274e-05 -2.0206e-05 4.8774e-05)
(-3.7248e-05 -1.0271e-05 5.1812e-05)
(-3.7228e-05 -4.1271e-10 5.2867e-05)
(-3.8148e-05 -4.5104e-05 -5.8096e-10)
(-3.8156e-05 -4.4221e-05 8.7706e-06)
(-3.817e-05 -4.1651e-05 1.7254e-05)
(-3.8175e-05 -3.7555e-05 2.5126e-05)
(-3.8175e-05 -3.1998e-05 3.1997e-05)
(-3.8175e-05 -2.5128e-05 3.7555e-05)
(-3.817e-05 -1.7256e-05 4.1652e-05)
(-3.8156e-05 -8.7722e-06 4.4222e-05)
(-3.8148e-05 -6.1868e-10 4.5105e-05)
(-3.8508e-05 -3.7865e-05 -3.1202e-10)
(-3.8522e-05 -3.712e-05 7.3527e-06)
(-3.854e-05 -3.4972e-05 1.4479e-05)
(-3.8535e-05 -3.1559e-05 2.1115e-05)
(-3.8527e-05 -2.6908e-05 2.6907e-05)
(-3.8535e-05 -2.1117e-05 3.1559e-05)
(-3.854e-05 -1.4481e-05 3.4973e-05)
(-3.8522e-05 -7.3543e-06 3.7122e-05)
(-3.8508e-05 -8.7249e-10 3.7867e-05)
(-3.8331e-05 -3.119e-05 -1.6678e-10)
(-3.8354e-05 -3.0552e-05 6.0324e-06)
(-3.838e-05 -2.8774e-05 1.1904e-05)
(-3.836e-05 -2.6002e-05 1.7411e-05)
(-3.8339e-05 -2.2212e-05 2.2211e-05)
(-3.836e-05 -1.7413e-05 2.6003e-05)
(-3.838e-05 -1.1906e-05 2.8776e-05)
(-3.8354e-05 -6.0341e-06 3.0555e-05)
(-3.8331e-05 -9.5988e-10 3.1193e-05)
(-1.3634e-05 2.0265e-05 0.00010198)
(-9.7425e-06 2.0442e-05 0.00010283)
(-1.3653e-05 3.9702e-05 9.5797e-05)
(-9.7472e-06 4.0043e-05 9.6564e-05)
(-1.3676e-05 5.7537e-05 8.6041e-05)
(-9.7618e-06 5.7992e-05 8.6702e-05)
(-1.3688e-05 7.3148e-05 7.3148e-05)
(-9.7678e-06 7.3696e-05 7.3696e-05)
(-1.3677e-05 8.6041e-05 5.7536e-05)
(-9.762e-06 8.6702e-05 5.7991e-05)
(-1.3654e-05 9.5797e-05 3.97e-05)
(-9.7477e-06 9.6564e-05 4.0042e-05)
(-1.3634e-05 0.00010198 2.0264e-05)
(-9.7432e-06 0.00010282 2.0441e-05)
(-1.3627e-05 0.00010412 -3.3514e-10)
(-9.7407e-06 0.000105 -2.1313e-10)
(-1.7681e-05 1.964e-05 9.8957e-05)
(-1.7709e-05 3.8507e-05 9.2974e-05)
(-1.7733e-05 5.5872e-05 8.3552e-05)
(-1.7746e-05 7.1074e-05 7.1073e-05)
(-1.7734e-05 8.3553e-05 5.587e-05)
(-1.771e-05 9.2974e-05 3.8505e-05)
(-1.7681e-05 9.8956e-05 1.9638e-05)
(-1.7669e-05 0.00010105 -4.8251e-10)
(-2.1686e-05 1.8697e-05 9.4246e-05)
(-2.1718e-05 3.6684e-05 8.8565e-05)
(-2.173e-05 5.3263e-05 7.9632e-05)
(-2.1731e-05 6.7758e-05 6.7757e-05)
(-2.173e-05 7.9633e-05 5.3261e-05)
(-2.1718e-05 8.8566e-05 3.6683e-05)
(-2.1686e-05 9.4246e-05 1.8696e-05)
(-2.1667e-05 9.6223e-05 -6.1736e-10)
(-2.5434e-05 1.7555e-05 8.849e-05)
(-2.5473e-05 3.4459e-05 8.3158e-05)
(-2.5468e-05 5.006e-05 7.4812e-05)
(-2.5454e-05 6.3684e-05 6.3683e-05)
(-2.5468e-05 7.4813e-05 5.0058e-05)
(-2.5473e-05 8.3159e-05 3.4458e-05)
(-2.5433e-05 8.849e-05 1.7554e-05)
(-2.5407e-05 9.0349e-05 -6.6659e-10)
(-2.8757e-05 1.6288e-05 8.215e-05)
(-2.8789e-05 3.1995e-05 7.722e-05)
(-2.8792e-05 4.6506e-05 6.9489e-05)
(-2.8786e-05 5.9175e-05 5.9174e-05)
(-2.8792e-05 6.949e-05 4.6505e-05)
(-2.8789e-05 7.722e-05 3.1994e-05)
(-2.8757e-05 8.2149e-05 1.6287e-05)
(-2.8737e-05 8.3876e-05 -8.1776e-10)
(-3.1598e-05 1.4902e-05 7.523e-05)
(-3.1625e-05 2.9293e-05 7.0719e-05)
(-3.1633e-05 4.2614e-05 6.3668e-05)
(-3.1635e-05 5.4247e-05 5.4246e-05)
(-3.1633e-05 6.3669e-05 4.2613e-05)
(-3.1624e-05 7.0719e-05 2.9291e-05)
(-3.1598e-05 7.5229e-05 1.4901e-05)
(-3.1581e-05 7.6826e-05 -8.1823e-10)
(-3.3951e-05 1.34e-05 6.7658e-05)
(-3.3984e-05 2.6348e-05 6.3624e-05)
(-3.398e-05 3.8348e-05 5.7301e-05)
(-3.3968e-05 4.8821e-05 4.8819e-05)
(-3.398e-05 5.7302e-05 3.8347e-05)
(-3.3984e-05 6.3624e-05 2.6347e-05)
(-3.395e-05 6.7657e-05 1.3399e-05)
(-3.3926e-05 6.9072e-05 -6.2079e-11)
(-3.5835e-05 1.1822e-05 5.9714e-05)
(-3.5876e-05 2.3259e-05 5.6161e-05)
(-3.5856e-05 3.3877e-05 5.0609e-05)
(-3.5829e-05 4.3137e-05 4.3137e-05)
(-3.5856e-05 5.0609e-05 3.3876e-05)
(-3.5876e-05 5.6161e-05 2.3258e-05)
(-3.5835e-05 5.9712e-05 1.1821e-05)
(-3.58e-05 6.0962e-05 -8.7752e-10)
(-3.7248e-05 1.027e-05 5.1812e-05)
(-3.7274e-05 2.0204e-05 4.8773e-05)
(-3.7267e-05 2.9415e-05 4.3954e-05)
(-3.7254e-05 3.7452e-05 3.7452e-05)
(-3.7266e-05 4.3953e-05 2.9414e-05)
(-3.7273e-05 4.8772e-05 2.0204e-05)
(-3.7247e-05 5.181e-05 1.027e-05)
(-3.7227e-05 5.2865e-05 -8.189e-10)
(-3.8156e-05 8.7708e-06 4.4221e-05)
(-3.817e-05 1.7254e-05 4.1651e-05)
(-3.8174e-05 2.5126e-05 3.7554e-05)
(-3.8174e-05 3.1996e-05 3.1997e-05)
(-3.8174e-05 3.7554e-05 2.5126e-05)
(-3.817e-05 4.165e-05 1.7254e-05)
(-3.8155e-05 4.422e-05 8.7706e-06)
(-3.8147e-05 4.5103e-05 -6.6356e-10)
(-3.8522e-05 7.3526e-06 3.7121e-05)
(-3.8539e-05 1.4479e-05 3.4972e-05)
(-3.8534e-05 2.1115e-05 3.1558e-05)
(-3.8526e-05 2.6906e-05 2.6906e-05)
(-3.8534e-05 3.1557e-05 2.1115e-05)
(-3.8539e-05 3.4971e-05 1.4479e-05)
(-3.8521e-05 3.712e-05 7.3529e-06)
(-3.8508e-05 3.7865e-05 -5.7144e-10)
(-3.8354e-05 6.0321e-06 3.0555e-05)
(-3.838e-05 1.1904e-05 2.8776e-05)
(-3.836e-05 1.7411e-05 2.6002e-05)
(-3.8339e-05 2.221e-05 2.2211e-05)
(-3.836e-05 2.6001e-05 1.7411e-05)
(-3.8379e-05 2.8775e-05 1.1905e-05)
(-3.8354e-05 3.0553e-05 6.0329e-06)
(-3.8331e-05 3.1192e-05 -3.1116e-10)
(-1.3634e-05 0.00010197 -2.0264e-05)
(-9.7434e-06 0.00010282 -2.0441e-05)
(-1.3654e-05 9.5795e-05 -3.97e-05)
(-9.7479e-06 9.6561e-05 -4.0041e-05)
(-1.3677e-05 8.6039e-05 -5.7535e-05)
(-9.7623e-06 8.67e-05 -5.799e-05)
(-1.3689e-05 7.3146e-05 -7.3146e-05)
(-9.7681e-06 7.3695e-05 -7.3695e-05)
(-1.3677e-05 5.7535e-05 -8.6039e-05)
(-9.7621e-06 5.799e-05 -8.6701e-05)
(-1.3653e-05 3.97e-05 -9.5795e-05)
(-9.7475e-06 4.0042e-05 -9.6562e-05)
(-1.3634e-05 2.0264e-05 -0.00010197)
(-9.7428e-06 2.0441e-05 -0.00010282)
(-1.3627e-05 4.6655e-10 -0.00010412)
(-9.7402e-06 3.1809e-10 -0.000105)
(-1.7682e-05 9.8956e-05 -1.9639e-05)
(-1.771e-05 9.2972e-05 -3.8505e-05)
(-1.7734e-05 8.3551e-05 -5.587e-05)
(-1.7746e-05 7.1072e-05 -7.1072e-05)
(-1.7734e-05 5.5869e-05 -8.3551e-05)
(-1.771e-05 3.8505e-05 -9.2971e-05)
(-1.7681e-05 1.9639e-05 -9.8954e-05)
(-1.7669e-05 4.9727e-10 -0.00010105)
(-2.1686e-05 9.4245e-05 -1.8697e-05)
(-2.1718e-05 8.8565e-05 -3.6684e-05)
(-2.1731e-05 7.9631e-05 -5.3261e-05)
(-2.1731e-05 6.7756e-05 -6.7756e-05)
(-2.1731e-05 5.3261e-05 -7.963e-05)
(-2.1718e-05 3.6683e-05 -8.8564e-05)
(-2.1686e-05 1.8696e-05 -9.4243e-05)
(-2.1667e-05 4.7709e-10 -9.622e-05)
(-2.5434e-05 8.849e-05 -1.7555e-05)
(-2.5473e-05 8.3158e-05 -3.4459e-05)
(-2.5468e-05 7.4812e-05 -5.0059e-05)
(-2.5455e-05 6.3683e-05 -6.3683e-05)
(-2.5468e-05 5.0058e-05 -7.4812e-05)
(-2.5474e-05 3.4458e-05 -8.3157e-05)
(-2.5434e-05 1.7554e-05 -8.8489e-05)
(-2.5408e-05 4.6078e-10 -9.0347e-05)
(-2.8757e-05 8.2149e-05 -1.6289e-05)
(-2.8789e-05 7.722e-05 -3.1996e-05)
(-2.8792e-05 6.949e-05 -4.6506e-05)
(-2.8787e-05 5.9174e-05 -5.9175e-05)
(-2.8792e-05 4.6505e-05 -6.949e-05)
(-2.8789e-05 3.1995e-05 -7.722e-05)
(-2.8758e-05 1.6288e-05 -8.2149e-05)
(-2.8738e-05 3.802e-10 -8.3876e-05)
(-3.1598e-05 7.5229e-05 -1.4903e-05)
(-3.1625e-05 7.0719e-05 -2.9293e-05)
(-3.1633e-05 6.3669e-05 -4.2614e-05)
(-3.1635e-05 5.4246e-05 -5.4247e-05)
(-3.1633e-05 4.2614e-05 -6.367e-05)
(-3.1625e-05 2.9293e-05 -7.0721e-05)
(-3.1598e-05 1.4902e-05 -7.5231e-05)
(-3.1582e-05 1.4263e-10 -7.6828e-05)
(-3.395e-05 6.7658e-05 -1.3401e-05)
(-3.3984e-05 6.3624e-05 -2.6349e-05)
(-3.398e-05 5.7302e-05 -3.8349e-05)
(-3.3968e-05 4.8821e-05 -4.8821e-05)
(-3.398e-05 3.8348e-05 -5.7304e-05)
(-3.3984e-05 2.6349e-05 -6.3626e-05)
(-3.3951e-05 1.3401e-05 -6.7661e-05)
(-3.3926e-05 -8.3917e-10 -6.9076e-05)
(-3.5835e-05 5.9713e-05 -1.1823e-05)
(-3.5876e-05 5.6161e-05 -2.326e-05)
(-3.5856e-05 5.0609e-05 -3.3878e-05)
(-3.5829e-05 4.3138e-05 -4.3139e-05)
(-3.5856e-05 3.3878e-05 -5.0612e-05)
(-3.5876e-05 2.326e-05 -5.6165e-05)
(-3.5835e-05 1.1823e-05 -5.9717e-05)
(-3.58e-05 -1.949e-10 -6.0967e-05)
(-3.7247e-05 5.181e-05 -1.0271e-05)
(-3.7273e-05 4.8773e-05 -2.0205e-05)
(-3.7266e-05 4.3954e-05 -2.9416e-05)
(-3.7254e-05 3.7453e-05 -3.7455e-05)
(-3.7266e-05 2.9416e-05 -4.3957e-05)
(-3.7274e-05 2.0205e-05 -4.8777e-05)
(-3.7248e-05 1.0271e-05 -5.1815e-05)
(-3.7228e-05 -3.4805e-10 -5.2871e-05)
(-3.8155e-05 4.422e-05 -8.772e-06)
(-3.817e-05 4.1651e-05 -1.7256e-05)
(-3.8174e-05 3.7555e-05 -2.5128e-05)
(-3.8174e-05 3.1998e-05 -3.1999e-05)
(-3.8174e-05 2.5127e-05 -3.7557e-05)
(-3.817e-05 1.7255e-05 -4.1655e-05)
(-3.8156e-05 8.7713e-06 -4.4225e-05)
(-3.8147e-05 -5.3515e-10 -4.5108e-05)
(-3.8521e-05 3.712e-05 -7.3539e-06)
(-3.8539e-05 3.4972e-05 -1.448e-05)
(-3.8534e-05 3.1559e-05 -2.1117e-05)
(-3.8526e-05 2.6907e-05 -2.6909e-05)
(-3.8534e-05 2.1116e-05 -3.1561e-05)
(-3.8539e-05 1.448e-05 -3.4976e-05)
(-3.8521e-05 7.3531e-06 -3.7124e-05)
(-3.8508e-05 -6.5928e-10 -3.787e-05)
(-3.8354e-05 3.0554e-05 -6.0335e-06)
(-3.8379e-05 2.8775e-05 -1.1906e-05)
(-3.8359e-05 2.6003e-05 -1.7413e-05)
(-3.8339e-05 2.2211e-05 -2.2213e-05)
(-3.8359e-05 1.7412e-05 -2.6005e-05)
(-3.8379e-05 1.1905e-05 -2.8778e-05)
(-3.8353e-05 6.0325e-06 -3.0557e-05)
(-3.833e-05 -9.1795e-10 -3.1195e-05)
(-1.3634e-05 -2.0263e-05 -0.00010197)
(-9.7429e-06 -2.0441e-05 -0.00010282)
(-1.3654e-05 -3.9699e-05 -9.5794e-05)
(-9.7475e-06 -4.0041e-05 -9.6562e-05)
(-1.3677e-05 -5.7534e-05 -8.6038e-05)
(-9.762e-06 -5.799e-05 -8.67e-05)
(-1.3689e-05 -7.3145e-05 -7.3146e-05)
(-9.7678e-06 -7.3695e-05 -7.3695e-05)
(-1.3677e-05 -8.6039e-05 -5.7535e-05)
(-9.762e-06 -8.6701e-05 -5.7991e-05)
(-1.3653e-05 -9.5795e-05 -3.97e-05)
(-9.7475e-06 -9.6563e-05 -4.0042e-05)
(-1.3634e-05 -0.00010198 -2.0264e-05)
(-9.7429e-06 -0.00010282 -2.0441e-05)
(-1.7682e-05 -1.9638e-05 -9.8954e-05)
(-1.771e-05 -3.8504e-05 -9.2971e-05)
(-1.7734e-05 -5.5868e-05 -8.355e-05)
(-1.7746e-05 -7.1071e-05 -7.1071e-05)
(-1.7734e-05 -8.355e-05 -5.5869e-05)
(-1.771e-05 -9.2971e-05 -3.8505e-05)
(-1.7681e-05 -9.8955e-05 -1.9639e-05)
(-2.1686e-05 -1.8695e-05 -9.4243e-05)
(-2.1719e-05 -3.6682e-05 -8.8563e-05)
(-2.1731e-05 -5.3259e-05 -7.963e-05)
(-2.1731e-05 -6.7754e-05 -6.7755e-05)
(-2.1731e-05 -7.9629e-05 -5.326e-05)
(-2.1718e-05 -8.8563e-05 -3.6683e-05)
(-2.1686e-05 -9.4243e-05 -1.8697e-05)
(-2.5434e-05 -1.7554e-05 -8.8489e-05)
(-2.5474e-05 -3.4458e-05 -8.3157e-05)
(-2.5469e-05 -5.0057e-05 -7.4811e-05)
(-2.5455e-05 -6.3681e-05 -6.3682e-05)
(-2.5468e-05 -7.481e-05 -5.0058e-05)
(-2.5474e-05 -8.3156e-05 -3.4459e-05)
(-2.5434e-05 -8.8488e-05 -1.7555e-05)
(-2.8758e-05 -1.6288e-05 -8.2149e-05)
(-2.879e-05 -3.1994e-05 -7.722e-05)
(-2.8792e-05 -4.6504e-05 -6.949e-05)
(-2.8787e-05 -5.9173e-05 -5.9174e-05)
(-2.8792e-05 -6.9488e-05 -4.6505e-05)
(-2.8789e-05 -7.7218e-05 -3.1995e-05)
(-2.8758e-05 -8.2148e-05 -1.6288e-05)
(-3.1598e-05 -1.4902e-05 -7.5231e-05)
(-3.1625e-05 -2.9292e-05 -7.0721e-05)
(-3.1634e-05 -4.2613e-05 -6.367e-05)
(-3.1635e-05 -5.4246e-05 -5.4247e-05)
(-3.1634e-05 -6.3668e-05 -4.2614e-05)
(-3.1625e-05 -7.0719e-05 -2.9293e-05)
(-3.1598e-05 -7.5229e-05 -1.4903e-05)
(-3.3951e-05 -1.3401e-05 -6.7661e-05)
(-3.3984e-05 -2.6349e-05 -6.3627e-05)
(-3.3981e-05 -3.8349e-05 -5.7304e-05)
(-3.3969e-05 -4.882e-05 -4.8822e-05)
(-3.3981e-05 -5.7303e-05 -3.8349e-05)
(-3.3984e-05 -6.3624e-05 -2.6349e-05)
(-3.3951e-05 -6.7658e-05 -1.3401e-05)
(-3.5835e-05 -1.1823e-05 -5.9718e-05)
(-3.5877e-05 -2.326e-05 -5.6165e-05)
(-3.5857e-05 -3.3879e-05 -5.0613e-05)
(-3.583e-05 -4.3139e-05 -4.314e-05)
(-3.5857e-05 -5.0611e-05 -3.3879e-05)
(-3.5877e-05 -5.6163e-05 -2.326e-05)
(-3.5836e-05 -5.9714e-05 -1.1823e-05)
(-3.7248e-05 -1.0272e-05 -5.1816e-05)
(-3.7274e-05 -2.0206e-05 -4.8778e-05)
(-3.7267e-05 -2.9417e-05 -4.3958e-05)
(-3.7255e-05 -3.7455e-05 -3.7456e-05)
(-3.7267e-05 -4.3956e-05 -2.9417e-05)
(-3.7274e-05 -4.8775e-05 -2.0206e-05)
(-3.7248e-05 -5.1812e-05 -1.0272e-05)
(-3.8156e-05 -8.7724e-06 -4.4225e-05)
(-3.817e-05 -1.7257e-05 -4.1655e-05)
(-3.8174e-05 -2.5129e-05 -3.7558e-05)
(-3.8174e-05 -3.1999e-05 -3.2e-05)
(-3.8175e-05 -3.7556e-05 -2.5128e-05)
(-3.817e-05 -4.1652e-05 -1.7256e-05)
(-3.8156e-05 -4.4221e-05 -8.7719e-06)
(-3.8521e-05 -7.3545e-06 -3.7124e-05)
(-3.8539e-05 -1.4481e-05 -3.4975e-05)
(-3.8534e-05 -2.1117e-05 -3.1561e-05)
(-3.8526e-05 -2.6908e-05 -2.6908e-05)
(-3.8534e-05 -3.1559e-05 -2.1116e-05)
(-3.8539e-05 -3.4973e-05 -1.448e-05)
(-3.8522e-05 -3.712e-05 -7.3536e-06)
(-3.8353e-05 -6.0342e-06 -3.0556e-05)
(-3.8379e-05 -1.1906e-05 -2.8777e-05)
(-3.836e-05 -1.7413e-05 -2.6004e-05)
(-3.8339e-05 -2.2212e-05 -2.2212e-05)
(-3.836e-05 -2.6003e-05 -1.7412e-05)
(-3.838e-05 -2.8775e-05 -1.1905e-05)
(-3.8354e-05 -3.0553e-05 -6.0329e-06)
)
;
    }
    procBoundary2to1
    {
        type            processor;
    }
    procBoundary2to3
    {
        type            processor;
    }
}


// ************************************************************************* //
