/*--------------------------------*- C++ -*----------------------------------*\
| =========                 |                                                 |
| \\      /  F ield         | OpenFOAM: The Open Source CFD Toolbox           |
|  \\    /   O peration     | Version:  4.1                                   |
|   \\  /    A nd           | Web:      www.OpenFOAM.org                      |
|    \\/     M anipulation  |                                                 |
\*---------------------------------------------------------------------------*/
FoamFile
{
    version     2.0;
    format      ascii;
    class       pointVectorField;
    location    "0.0065";
    object      pointDisplacement;
}
// * * * * * * * * * * * * * * * * * * * * * * * * * * * * * * * * * * * * * //

dimensions      [0 1 0 0 0 0 0];

internalField   nonuniform List<vector> 
1885
(
(-4.1014e-05 -2.0554e-05 2.7081e-09)
(-4.1502e-05 -2.4873e-05 3.1557e-09)
(-4.1481e-05 -2.9547e-05 3.6622e-09)
(-4.0942e-05 -3.4514e-05 4.2255e-09)
(-3.9886e-05 -3.968e-05 4.8327e-09)
(-3.8325e-05 -4.4909e-05 5.4681e-09)
(-3.6274e-05 -5.0044e-05 6.1137e-09)
(-3.3756e-05 -5.4928e-05 6.7339e-09)
(-3.0807e-05 -5.942e-05 7.2932e-09)
(-2.7488e-05 -6.3358e-05 7.766e-09)
(-2.3894e-05 -6.6528e-05 8.1269e-09)
(-2.0145e-05 -6.8669e-05 8.3474e-09)
(-1.6359e-05 -6.9503e-05 8.3985e-09)
(-4.0885e-05 -1.8491e-05 2.3177e-06)
(-4.1367e-05 -2.2361e-05 2.8014e-06)
(-4.1343e-05 -2.6546e-05 3.3242e-06)
(-4.0804e-05 -3.0991e-05 3.8788e-06)
(-3.9751e-05 -3.5609e-05 4.4548e-06)
(-3.8194e-05 -4.0281e-05 5.0373e-06)
(-3.6151e-05 -4.4869e-05 5.6089e-06)
(-3.3644e-05 -4.9232e-05 6.1522e-06)
(-3.0712e-05 -5.3241e-05 6.6508e-06)
(-2.7417e-05 -5.6746e-05 7.0863e-06)
(-2.3853e-05 -5.9557e-05 7.4353e-06)
(-2.0132e-05 -6.1442e-05 7.6692e-06)
(-1.6368e-05 -6.2158e-05 7.7574e-06)
(-4.0794e-05 -1.6345e-05 5.2723e-06)
(-4.1272e-05 -1.9754e-05 6.3696e-06)
(-4.1247e-05 -2.3439e-05 7.5553e-06)
(-4.0708e-05 -2.735e-05 8.8131e-06)
(-3.9657e-05 -3.141e-05 1.0119e-05)
(-3.8103e-05 -3.5517e-05 1.1438e-05)
(-3.6065e-05 -3.9549e-05 1.2734e-05)
(-3.3566e-05 -4.3383e-05 1.3965e-05)
(-3.0647e-05 -4.6902e-05 1.5094e-05)
(-2.7369e-05 -4.9973e-05 1.6078e-05)
(-2.3825e-05 -5.2428e-05 1.6865e-05)
(-2.0123e-05 -5.4066e-05 1.7389e-05)
(-1.6374e-05 -5.4675e-05 1.7583e-05)
(-4.0737e-05 -1.3873e-05 8.2467e-06)
(-4.1213e-05 -1.676e-05 9.9608e-06)
(-4.1186e-05 -1.9879e-05 1.1813e-05)
(-4.0647e-05 -2.3187e-05 1.3777e-05)
(-3.9597e-05 -2.6622e-05 1.5815e-05)
(-3.8046e-05 -3.0094e-05 1.7875e-05)
(-3.6011e-05 -3.3502e-05 1.9897e-05)
(-3.3517e-05 -3.6743e-05 2.1819e-05)
(-3.0606e-05 -3.9715e-05 2.3581e-05)
(-2.7339e-05 -4.2306e-05 2.5116e-05)
(-2.3807e-05 -4.4372e-05 2.6339e-05)
(-2.0118e-05 -4.5745e-05 2.7152e-05)
(-1.6377e-05 -4.625e-05 2.745e-05)
(-4.0717e-05 -1.1146e-05 1.1146e-05)
(-4.1192e-05 -1.3462e-05 1.3462e-05)
(-4.1166e-05 -1.5964e-05 1.5965e-05)
(-4.0626e-05 -1.8618e-05 1.8619e-05)
(-3.9577e-05 -2.1373e-05 2.1374e-05)
(-3.8026e-05 -2.4157e-05 2.4158e-05)
(-3.5993e-05 -2.6889e-05 2.6891e-05)
(-3.3501e-05 -2.9487e-05 2.9488e-05)
(-3.0592e-05 -3.1869e-05 3.187e-05)
(-2.7329e-05 -3.3943e-05 3.3945e-05)
(-2.3801e-05 -3.5596e-05 3.5598e-05)
(-2.0116e-05 -3.6693e-05 3.6695e-05)
(-1.6378e-05 -3.7094e-05 3.7095e-05)
(-4.0737e-05 -8.2465e-06 1.3873e-05)
(-4.1213e-05 -9.9604e-06 1.676e-05)
(-4.1186e-05 -1.1812e-05 1.9879e-05)
(-4.0647e-05 -1.3776e-05 2.3188e-05)
(-3.9597e-05 -1.5814e-05 2.6622e-05)
(-3.8046e-05 -1.7874e-05 3.0095e-05)
(-3.6011e-05 -1.9895e-05 3.3503e-05)
(-3.3517e-05 -2.1817e-05 3.6744e-05)
(-3.0606e-05 -2.3579e-05 3.9716e-05)
(-2.7339e-05 -2.5114e-05 4.2307e-05)
(-2.3807e-05 -2.6338e-05 4.4373e-05)
(-2.0118e-05 -2.7151e-05 4.5746e-05)
(-1.6377e-05 -2.7448e-05 4.6251e-05)
(-4.0794e-05 -5.2721e-06 1.6345e-05)
(-4.1272e-05 -6.3693e-06 1.9754e-05)
(-4.1247e-05 -7.5548e-06 2.3439e-05)
(-4.0708e-05 -8.8123e-06 2.735e-05)
(-3.9656e-05 -1.0118e-05 3.1411e-05)
(-3.8103e-05 -1.1437e-05 3.5518e-05)
(-3.6065e-05 -1.2732e-05 3.955e-05)
(-3.3566e-05 -1.3963e-05 4.3384e-05)
(-3.0647e-05 -1.5092e-05 4.6903e-05)
(-2.7369e-05 -1.6077e-05 4.9974e-05)
(-2.3825e-05 -1.6863e-05 5.2429e-05)
(-2.0123e-05 -1.7387e-05 5.4066e-05)
(-1.6374e-05 -1.7581e-05 5.4676e-05)
(-4.0885e-05 -2.3177e-06 1.8491e-05)
(-4.1367e-05 -2.8012e-06 2.2361e-05)
(-4.1343e-05 -3.3238e-06 2.6547e-05)
(-4.0804e-05 -3.8782e-06 3.0991e-05)
(-3.9751e-05 -4.4539e-06 3.5609e-05)
(-3.8194e-05 -5.0362e-06 4.0282e-05)
(-3.6151e-05 -5.6076e-06 4.4869e-05)
(-3.3644e-05 -6.1507e-06 4.9233e-05)
(-3.0712e-05 -6.6492e-06 5.3241e-05)
(-2.7417e-05 -7.0847e-06 5.6746e-05)
(-2.3853e-05 -7.4337e-06 5.9557e-05)
(-2.0132e-05 -7.6676e-06 6.1442e-05)
(-1.6368e-05 -7.7558e-06 6.2158e-05)
(-4.1014e-05 -2.8117e-09 2.0554e-05)
(-4.1502e-05 -3.1411e-09 2.4874e-05)
(-4.1481e-05 -3.4994e-09 2.9547e-05)
(-4.0942e-05 -3.8855e-09 3.4514e-05)
(-3.9886e-05 -4.3035e-09 3.968e-05)
(-3.8324e-05 -4.7603e-09 4.491e-05)
(-3.6274e-05 -5.2482e-09 5.0044e-05)
(-3.3756e-05 -5.7339e-09 5.4929e-05)
(-3.0807e-05 -6.1934e-09 5.942e-05)
(-2.7488e-05 -6.6128e-09 6.3358e-05)
(-2.3894e-05 -6.9632e-09 6.6528e-05)
(-2.0145e-05 -7.2156e-09 6.8669e-05)
(-1.6359e-05 -7.3376e-09 6.9503e-05)
(-4.0885e-05 -1.8492e-05 -2.3104e-06)
(-4.1367e-05 -2.2362e-05 -2.7928e-06)
(-4.1343e-05 -2.6547e-05 -3.3141e-06)
(-4.0804e-05 -3.0991e-05 -3.8672e-06)
(-3.9751e-05 -3.5609e-05 -4.4415e-06)
(-3.8194e-05 -4.0282e-05 -5.0223e-06)
(-3.6151e-05 -4.4869e-05 -5.5921e-06)
(-3.3644e-05 -4.9233e-05 -6.1337e-06)
(-3.0712e-05 -5.3242e-05 -6.6308e-06)
(-2.7418e-05 -5.6747e-05 -7.0651e-06)
(-2.3853e-05 -5.9558e-05 -7.4132e-06)
(-2.0132e-05 -6.1443e-05 -7.6465e-06)
(-1.6368e-05 -6.2159e-05 -7.7345e-06)
(-4.0688e-05 -1.5346e-05 7.3139e-09)
(-4.1162e-05 -1.8539e-05 8.7287e-09)
(-4.1134e-05 -2.1988e-05 1.0279e-08)
(-4.0595e-05 -2.5648e-05 1.1941e-08)
(-3.9546e-05 -2.9446e-05 1.3683e-08)
(-3.7997e-05 -3.3287e-05 1.5459e-08)
(-3.5964e-05 -3.7058e-05 1.7214e-08)
(-3.3475e-05 -4.0645e-05 1.8884e-08)
(-3.0569e-05 -4.3935e-05 2.0403e-08)
(-2.7311e-05 -4.6801e-05 2.1699e-08)
(-2.379e-05 -4.9085e-05 2.2699e-08)
(-2.011e-05 -5.06e-05 2.3321e-08)
(-1.6378e-05 -5.1152e-05 2.3477e-08)
(-4.0597e-05 -1.3113e-05 2.6314e-06)
(-4.1068e-05 -1.5832e-05 3.1765e-06)
(-4.1038e-05 -1.877e-05 3.7653e-06)
(-4.0499e-05 -2.1885e-05 4.3894e-06)
(-3.9451e-05 -2.5115e-05 5.0367e-06)
(-3.7905e-05 -2.8381e-05 5.691e-06)
(-3.5878e-05 -3.1588e-05 6.3331e-06)
(-3.3397e-05 -3.4636e-05 6.9436e-06)
(-3.0504e-05 -3.7431e-05 7.5028e-06)
(-2.7262e-05 -3.986e-05 7.9889e-06)
(-2.376e-05 -4.1791e-05 8.375e-06)
(-2.01e-05 -4.3065e-05 8.6296e-06)
(-1.6382e-05 -4.3521e-05 8.7203e-06)
(-4.0541e-05 -1.0659e-05 5.334e-06)
(-4.1009e-05 -1.2866e-05 6.4377e-06)
(-4.0979e-05 -1.5249e-05 7.6293e-06)
(-4.0439e-05 -1.7775e-05 8.8923e-06)
(-3.9393e-05 -2.0394e-05 1.0202e-05)
(-3.7849e-05 -2.3041e-05 1.1525e-05)
(-3.5825e-05 -2.5639e-05 1.2824e-05)
(-3.3349e-05 -2.811e-05 1.4059e-05)
(-3.0463e-05 -3.0373e-05 1.519e-05)
(-2.7232e-05 -3.2339e-05 1.6172e-05)
(-2.3742e-05 -3.3898e-05 1.6951e-05)
(-2.0093e-05 -3.4924e-05 1.7463e-05)
(-1.6385e-05 -3.5286e-05 1.7644e-05)
(-4.0522e-05 -8.0408e-06 8.0413e-06)
(-4.099e-05 -9.7041e-06 9.7049e-06)
(-4.0958e-05 -1.15e-05 1.1501e-05)
(-4.0419e-05 -1.3403e-05 1.3404e-05)
(-3.9373e-05 -1.5376e-05 1.5378e-05)
(-3.783e-05 -1.7371e-05 1.7373e-05)
(-3.5807e-05 -1.9328e-05 1.933e-05)
(-3.3333e-05 -2.1189e-05 2.1191e-05)
(-3.045e-05 -2.2893e-05 2.2896e-05)
(-2.7222e-05 -2.4373e-05 2.4375e-05)
(-2.3735e-05 -2.5546e-05 2.5548e-05)
(-2.009e-05 -2.6316e-05 2.6319e-05)
(-1.6385e-05 -2.6587e-05 2.659e-05)
(-4.0541e-05 -5.3333e-06 1.066e-05)
(-4.1009e-05 -6.4367e-06 1.2867e-05)
(-4.0978e-05 -7.6281e-06 1.525e-05)
(-4.0439e-05 -8.8908e-06 1.7776e-05)
(-3.9393e-05 -1.02e-05 2.0395e-05)
(-3.7849e-05 -1.1523e-05 2.3042e-05)
(-3.5825e-05 -1.2822e-05 2.5641e-05)
(-3.3349e-05 -1.4057e-05 2.8112e-05)
(-3.0463e-05 -1.5187e-05 3.0375e-05)
(-2.7232e-05 -1.6169e-05 3.2341e-05)
(-2.3742e-05 -1.6948e-05 3.39e-05)
(-2.0093e-05 -1.746e-05 3.4925e-05)
(-1.6385e-05 -1.7641e-05 3.5287e-05)
(-4.0597e-05 -2.6307e-06 1.3113e-05)
(-4.1068e-05 -3.1756e-06 1.5833e-05)
(-4.1038e-05 -3.764e-06 1.877e-05)
(-4.0499e-05 -4.3878e-06 2.1885e-05)
(-3.9451e-05 -5.0347e-06 2.5116e-05)
(-3.7905e-05 -5.6887e-06 2.8382e-05)
(-3.5878e-05 -6.3305e-06 3.1589e-05)
(-3.3397e-05 -6.9407e-06 3.4638e-05)
(-3.0504e-05 -7.4998e-06 3.7432e-05)
(-2.7262e-05 -7.9857e-06 3.9861e-05)
(-2.376e-05 -8.3717e-06 4.1792e-05)
(-2.01e-05 -8.6263e-06 4.3066e-05)
(-1.6382e-05 -8.7171e-06 4.3521e-05)
(-4.0688e-05 -6.7061e-09 1.5346e-05)
(-4.1162e-05 -7.8683e-09 1.8539e-05)
(-4.1134e-05 -9.129e-09 2.1989e-05)
(-4.0595e-05 -1.0473e-08 2.5648e-05)
(-3.9546e-05 -1.1887e-08 2.9447e-05)
(-3.7996e-05 -1.3348e-08 3.3288e-05)
(-3.5964e-05 -1.4816e-08 3.7059e-05)
(-3.3475e-05 -1.6234e-08 4.0646e-05)
(-3.0569e-05 -1.7553e-08 4.3936e-05)
(-2.7311e-05 -1.8716e-08 4.6801e-05)
(-2.379e-05 -1.9649e-08 4.9085e-05)
(-2.0111e-05 -2.0273e-08 5.06e-05)
(-1.6379e-05 -2.0505e-08 5.1152e-05)
(-4.0885e-05 2.3107e-06 1.8492e-05)
(-4.1367e-05 2.7932e-06 2.2362e-05)
(-4.1343e-05 3.3147e-06 2.6547e-05)
(-4.0804e-05 3.8681e-06 3.0991e-05)
(-3.9751e-05 4.4426e-06 3.5609e-05)
(-3.8194e-05 5.0236e-06 4.0282e-05)
(-3.6151e-05 5.5936e-06 4.487e-05)
(-3.3644e-05 6.1355e-06 4.9233e-05)
(-3.0712e-05 6.6327e-06 5.3242e-05)
(-2.7417e-05 7.067e-06 5.6747e-05)
(-2.3853e-05 7.4151e-06 5.9557e-05)
(-2.0132e-05 7.6484e-06 6.1443e-05)
(-1.6368e-05 7.7363e-06 6.2159e-05)
(-4.0794e-05 -1.6346e-05 -5.2692e-06)
(-4.1273e-05 -1.9755e-05 -6.3661e-06)
(-4.1247e-05 -2.344e-05 -7.5512e-06)
(-4.0708e-05 -2.7351e-05 -8.8084e-06)
(-3.9657e-05 -3.1412e-05 -1.0113e-05)
(-3.8104e-05 -3.5519e-05 -1.1432e-05)
(-3.6065e-05 -3.9551e-05 -1.2727e-05)
(-3.3567e-05 -4.3386e-05 -1.3957e-05)
(-3.0647e-05 -4.6905e-05 -1.5086e-05)
(-2.7369e-05 -4.9976e-05 -1.607e-05)
(-2.3825e-05 -5.2431e-05 -1.6856e-05)
(-2.0123e-05 -5.4069e-05 -1.738e-05)
(-1.6374e-05 -5.4679e-05 -1.7574e-05)
(-4.0597e-05 -1.3112e-05 -2.6201e-06)
(-4.1068e-05 -1.5832e-05 -3.1631e-06)
(-4.1038e-05 -1.877e-05 -3.7495e-06)
(-4.0499e-05 -2.1884e-05 -4.371e-06)
(-3.9452e-05 -2.5115e-05 -5.0157e-06)
(-3.7905e-05 -2.8381e-05 -5.6672e-06)
(-3.5878e-05 -3.1587e-05 -6.3067e-06)
(-3.3397e-05 -3.4636e-05 -6.9146e-06)
(-3.0504e-05 -3.743e-05 -7.4716e-06)
(-2.7262e-05 -3.986e-05 -7.9557e-06)
(-2.376e-05 -4.1791e-05 -8.3403e-06)
(-2.01e-05 -4.3065e-05 -8.594e-06)
(-1.6382e-05 -4.3521e-05 -8.6844e-06)
(-4.0502e-05 -1.0793e-05 8.1293e-09)
(-4.0968e-05 -1.3025e-05 9.7221e-09)
(-4.0936e-05 -1.5434e-05 1.1466e-08)
(-4.0397e-05 -1.7988e-05 1.3336e-08)
(-3.9351e-05 -2.0635e-05 1.5293e-08)
(-3.7809e-05 -2.331e-05 1.7282e-08)
(-3.5787e-05 -2.5936e-05 1.9239e-08)
(-3.3315e-05 -2.8432e-05 2.1096e-08)
(-3.0434e-05 -3.0718e-05 2.2779e-08)
(-2.721e-05 -3.2702e-05 2.421e-08)
(-2.3728e-05 -3.4274e-05 2.5306e-08)
(-2.0087e-05 -3.5307e-05 2.5979e-08)
(-1.6386e-05 -3.5668e-05 2.6142e-08)
(-4.0443e-05 -8.2595e-06 2.7635e-06)
(-4.0907e-05 -9.9647e-06 3.3337e-06)
(-4.0874e-05 -1.1805e-05 3.9492e-06)
(-4.0334e-05 -1.3755e-05 4.6012e-06)
(-3.929e-05 -1.5776e-05 5.2769e-06)
(-3.7749e-05 -1.7817e-05 5.9596e-06)
(-3.5731e-05 -1.9821e-05 6.6296e-06)
(-3.3264e-05 -2.1726e-05 7.2664e-06)
(-3.0392e-05 -2.3469e-05 7.8492e-06)
(-2.7178e-05 -2.4981e-05 8.3545e-06)
(-2.3708e-05 -2.6177e-05 8.754e-06)
(-2.0079e-05 -2.6959e-05 9.0153e-06)
(-1.6388e-05 -2.723e-05 9.1056e-06)
(-4.0423e-05 -5.5538e-06 5.5547e-06)
(-4.0886e-05 -6.6994e-06 6.7007e-06)
(-4.0853e-05 -7.9359e-06 7.9374e-06)
(-4.0313e-05 -9.2455e-06 9.2475e-06)
(-3.9269e-05 -1.0603e-05 1.0605e-05)
(-3.7729e-05 -1.1974e-05 1.1977e-05)
(-3.5712e-05 -1.332e-05 1.3323e-05)
(-3.3247e-05 -1.4599e-05 1.4602e-05)
(-3.0378e-05 -1.577e-05 1.5773e-05)
(-2.7168e-05 -1.6784e-05 1.6788e-05)
(-2.3702e-05 -1.7586e-05 1.759e-05)
(-2.0077e-05 -1.8111e-05 1.8114e-05)
(-1.6388e-05 -1.8291e-05 1.8295e-05)
(-4.0443e-05 -2.7623e-06 8.2602e-06)
(-4.0907e-05 -3.3322e-06 9.9656e-06)
(-4.0874e-05 -3.9473e-06 1.1806e-05)
(-4.0334e-05 -4.5988e-06 1.3756e-05)
(-3.929e-05 -5.2741e-06 1.5777e-05)
(-3.7749e-05 -5.9564e-06 1.7819e-05)
(-3.5731e-05 -6.626e-06 1.9823e-05)
(-3.3264e-05 -7.2625e-06 2.1728e-05)
(-3.0392e-05 -7.845e-06 2.3472e-05)
(-2.7178e-05 -8.3501e-06 2.4984e-05)
(-2.3708e-05 -8.7495e-06 2.6179e-05)
(-2.0079e-05 -9.0109e-06 2.6962e-05)
(-1.6388e-05 -9.1012e-06 2.7232e-05)
(-4.0501e-05 -6.8206e-09 1.0793e-05)
(-4.0968e-05 -8.0204e-09 1.3025e-05)
(-4.0936e-05 -9.3238e-09 1.5435e-05)
(-4.0397e-05 -1.0719e-08 1.7988e-05)
(-3.9351e-05 -1.219e-08 2.0636e-05)
(-3.7808e-05 -1.3708e-08 2.3311e-05)
(-3.5787e-05 -1.5231e-08 2.5937e-05)
(-3.3315e-05 -1.6706e-08 2.8433e-05)
(-3.0434e-05 -1.8079e-08 3.0719e-05)
(-2.721e-05 -1.9285e-08 3.2703e-05)
(-2.3728e-05 -2.0247e-08 3.4275e-05)
(-2.0087e-05 -2.0888e-08 3.5307e-05)
(-1.6386e-05 -2.1127e-08 3.5669e-05)
(-4.0597e-05 2.6213e-06 1.3112e-05)
(-4.1068e-05 3.1647e-06 1.5832e-05)
(-4.1038e-05 3.7514e-06 1.877e-05)
(-4.0499e-05 4.3734e-06 2.1884e-05)
(-3.9451e-05 5.0186e-06 2.5115e-05)
(-3.7905e-05 5.6705e-06 2.8381e-05)
(-3.5878e-05 6.3104e-06 3.1587e-05)
(-3.3397e-05 6.9187e-06 3.4636e-05)
(-3.0504e-05 7.4759e-06 3.743e-05)
(-2.7262e-05 7.9603e-06 3.986e-05)
(-2.376e-05 8.345e-06 4.179e-05)
(-2.01e-05 8.5987e-06 4.3064e-05)
(-1.6382e-05 8.6891e-06 4.352e-05)
(-4.0794e-05 5.2697e-06 1.6346e-05)
(-4.1272e-05 6.3669e-06 1.9755e-05)
(-4.1247e-05 7.5524e-06 2.344e-05)
(-4.0708e-05 8.8098e-06 2.7351e-05)
(-3.9657e-05 1.0115e-05 3.1412e-05)
(-3.8103e-05 1.1434e-05 3.5519e-05)
(-3.6065e-05 1.2729e-05 3.9551e-05)
(-3.3566e-05 1.396e-05 4.3386e-05)
(-3.0647e-05 1.5089e-05 4.6905e-05)
(-2.7369e-05 1.6073e-05 4.9976e-05)
(-2.3825e-05 1.6859e-05 5.243e-05)
(-2.0123e-05 1.7383e-05 5.4068e-05)
(-1.6374e-05 1.7577e-05 5.4677e-05)
(-4.0737e-05 -1.3874e-05 -8.2467e-06)
(-4.1213e-05 -1.676e-05 -9.9609e-06)
(-4.1186e-05 -1.988e-05 -1.1813e-05)
(-4.0647e-05 -2.3188e-05 -1.3777e-05)
(-3.9597e-05 -2.6623e-05 -1.5815e-05)
(-3.8046e-05 -3.0095e-05 -1.7876e-05)
(-3.6011e-05 -3.3504e-05 -1.9897e-05)
(-3.3518e-05 -3.6745e-05 -2.1819e-05)
(-3.0606e-05 -3.9717e-05 -2.3582e-05)
(-2.7339e-05 -4.2308e-05 -2.5117e-05)
(-2.3807e-05 -4.4374e-05 -2.6341e-05)
(-2.0118e-05 -4.5748e-05 -2.7154e-05)
(-1.6377e-05 -4.6252e-05 -2.7451e-05)
(-4.0541e-05 -1.0658e-05 -5.3307e-06)
(-4.1009e-05 -1.2864e-05 -6.4338e-06)
(-4.0979e-05 -1.5247e-05 -7.6249e-06)
(-4.044e-05 -1.7772e-05 -8.8872e-06)
(-3.9393e-05 -2.0391e-05 -1.0196e-05)
(-3.7849e-05 -2.3038e-05 -1.1519e-05)
(-3.5825e-05 -2.5636e-05 -1.2817e-05)
(-3.3349e-05 -2.8106e-05 -1.4051e-05)
(-3.0464e-05 -3.0369e-05 -1.5182e-05)
(-2.7232e-05 -3.2334e-05 -1.6163e-05)
(-2.3742e-05 -3.3893e-05 -1.6942e-05)
(-2.0093e-05 -3.4919e-05 -1.7454e-05)
(-1.6385e-05 -3.5281e-05 -1.7634e-05)
(-4.0443e-05 -8.2571e-06 -2.7534e-06)
(-4.0907e-05 -9.9617e-06 -3.3218e-06)
(-4.0874e-05 -1.1802e-05 -3.9352e-06)
(-4.0335e-05 -1.3751e-05 -4.5849e-06)
(-3.929e-05 -1.5771e-05 -5.2582e-06)
(-3.7749e-05 -1.7812e-05 -5.9385e-06)
(-3.5731e-05 -1.9815e-05 -6.6061e-06)
(-3.3264e-05 -2.1719e-05 -7.2407e-06)
(-3.0392e-05 -2.3462e-05 -7.8214e-06)
(-2.7178e-05 -2.4974e-05 -8.325e-06)
(-2.3708e-05 -2.6169e-05 -8.7232e-06)
(-2.0079e-05 -2.6951e-05 -8.9838e-06)
(-1.6388e-05 -2.7222e-05 -9.0739e-06)
(-4.0382e-05 -5.6436e-06 5.1087e-09)
(-4.0843e-05 -6.8068e-06 6.0836e-09)
(-4.0809e-05 -8.062e-06 7.1613e-09)
(-4.027e-05 -9.3914e-06 8.3263e-09)
(-3.9226e-05 -1.0769e-05 9.551e-09)
(-3.7688e-05 -1.216e-05 1.0797e-08)
(-3.5673e-05 -1.3526e-05 1.202e-08)
(-3.3212e-05 -1.4824e-05 1.3174e-08)
(-3.0348e-05 -1.6012e-05 1.4211e-08)
(-2.7145e-05 -1.7041e-05 1.5081e-08)
(-2.3688e-05 -1.7853e-05 1.5734e-08)
(-2.0071e-05 -1.8383e-05 1.612e-08)
(-1.6389e-05 -1.8564e-05 1.6193e-08)
(-4.0361e-05 -2.8543e-06 2.8557e-06)
(-4.0822e-05 -3.4422e-06 3.444e-06)
(-4.0787e-05 -4.0765e-06 4.0788e-06)
(-4.0248e-05 -4.7483e-06 4.751e-06)
(-3.9204e-05 -5.4443e-06 5.4475e-06)
(-3.7667e-05 -6.1474e-06 6.1511e-06)
(-3.5654e-05 -6.8375e-06 6.8416e-06)
(-3.3194e-05 -7.4935e-06 7.4979e-06)
(-3.0333e-05 -8.0935e-06 8.0983e-06)
(-2.7134e-05 -8.6131e-06 8.6181e-06)
(-2.3681e-05 -9.0232e-06 9.0282e-06)
(-2.0068e-05 -9.2904e-06 9.2955e-06)
(-1.639e-05 -9.3813e-06 9.3863e-06)
(-4.0382e-05 -3.374e-09 5.6447e-06)
(-4.0843e-05 -3.8714e-09 6.8082e-06)
(-4.0809e-05 -4.4161e-09 8.0638e-06)
(-4.027e-05 -5.01e-09 9.3936e-06)
(-3.9226e-05 -5.6512e-09 1.0772e-05)
(-3.7688e-05 -6.3304e-09 1.2163e-05)
(-3.5673e-05 -7.0296e-09 1.3529e-05)
(-3.3212e-05 -7.7236e-09 1.4828e-05)
(-3.0348e-05 -8.3831e-09 1.6016e-05)
(-2.7145e-05 -8.973e-09 1.7045e-05)
(-2.3688e-05 -9.4531e-09 1.7857e-05)
(-2.0071e-05 -9.7855e-09 1.8387e-05)
(-1.639e-05 -9.9357e-09 1.8568e-05)
(-4.0443e-05 2.7557e-06 8.2573e-06)
(-4.0907e-05 3.3246e-06 9.9621e-06)
(-4.0874e-05 3.9387e-06 1.1802e-05)
(-4.0334e-05 4.5891e-06 1.3751e-05)
(-3.929e-05 5.2631e-06 1.5772e-05)
(-3.7749e-05 5.9441e-06 1.7813e-05)
(-3.5731e-05 6.6123e-06 1.9816e-05)
(-3.3264e-05 7.2475e-06 2.1721e-05)
(-3.0392e-05 7.8288e-06 2.3464e-05)
(-2.7178e-05 8.3327e-06 2.4975e-05)
(-2.3708e-05 8.7312e-06 2.617e-05)
(-2.0079e-05 8.9919e-06 2.6952e-05)
(-1.6388e-05 9.0819e-06 2.7223e-05)
(-4.0541e-05 5.3327e-06 1.0657e-05)
(-4.1009e-05 6.4364e-06 1.2864e-05)
(-4.0979e-05 7.6281e-06 1.5246e-05)
(-4.0439e-05 8.8911e-06 1.7771e-05)
(-3.9393e-05 1.0201e-05 2.039e-05)
(-3.7849e-05 1.1524e-05 2.3037e-05)
(-3.5825e-05 1.2823e-05 2.5635e-05)
(-3.3349e-05 1.4058e-05 2.8105e-05)
(-3.0464e-05 1.5189e-05 3.0368e-05)
(-2.7232e-05 1.6171e-05 3.2333e-05)
(-2.3742e-05 1.6949e-05 3.3892e-05)
(-2.0093e-05 1.7461e-05 3.4917e-05)
(-1.6385e-05 1.7642e-05 3.5279e-05)
(-4.0737e-05 8.2477e-06 1.3873e-05)
(-4.1213e-05 9.9623e-06 1.676e-05)
(-4.1186e-05 1.1815e-05 1.9879e-05)
(-4.0647e-05 1.3779e-05 2.3188e-05)
(-3.9597e-05 1.5818e-05 2.6622e-05)
(-3.8046e-05 1.7878e-05 3.0095e-05)
(-3.6011e-05 1.9901e-05 3.3503e-05)
(-3.3517e-05 2.1823e-05 3.6744e-05)
(-3.0606e-05 2.3585e-05 3.9716e-05)
(-2.7339e-05 2.5121e-05 4.2306e-05)
(-2.3807e-05 2.6345e-05 4.4373e-05)
(-2.0118e-05 2.7157e-05 4.5746e-05)
(-1.6377e-05 2.7455e-05 4.625e-05)
(-4.0717e-05 -1.1146e-05 -1.1145e-05)
(-4.1193e-05 -1.3462e-05 -1.3461e-05)
(-4.1166e-05 -1.5965e-05 -1.5964e-05)
(-4.0627e-05 -1.8619e-05 -1.8618e-05)
(-3.9577e-05 -2.1373e-05 -2.1372e-05)
(-3.8027e-05 -2.4157e-05 -2.4157e-05)
(-3.5993e-05 -2.689e-05 -2.6889e-05)
(-3.3501e-05 -2.9488e-05 -2.9487e-05)
(-3.0592e-05 -3.1869e-05 -3.1868e-05)
(-2.7329e-05 -3.3944e-05 -3.3943e-05)
(-2.3801e-05 -3.5597e-05 -3.5596e-05)
(-2.0116e-05 -3.6695e-05 -3.6693e-05)
(-1.6378e-05 -3.7095e-05 -3.7094e-05)
(-4.0522e-05 -8.0395e-06 -8.0382e-06)
(-4.099e-05 -9.7025e-06 -9.7012e-06)
(-4.0959e-05 -1.1498e-05 -1.1497e-05)
(-4.0419e-05 -1.3401e-05 -1.34e-05)
(-3.9373e-05 -1.5374e-05 -1.5373e-05)
(-3.783e-05 -1.7368e-05 -1.7366e-05)
(-3.5807e-05 -1.9325e-05 -1.9323e-05)
(-3.3333e-05 -2.1186e-05 -2.1184e-05)
(-3.045e-05 -2.289e-05 -2.2887e-05)
(-2.7222e-05 -2.4369e-05 -2.4367e-05)
(-2.3735e-05 -2.5542e-05 -2.5539e-05)
(-2.009e-05 -2.6312e-05 -2.631e-05)
(-1.6385e-05 -2.6583e-05 -2.6581e-05)
(-4.0423e-05 -5.5506e-06 -5.5489e-06)
(-4.0886e-05 -6.6956e-06 -6.6939e-06)
(-4.0853e-05 -7.9313e-06 -7.9295e-06)
(-4.0313e-05 -9.2402e-06 -9.2383e-06)
(-3.9269e-05 -1.0597e-05 -1.0595e-05)
(-3.7729e-05 -1.1967e-05 -1.1965e-05)
(-3.5712e-05 -1.3312e-05 -1.331e-05)
(-3.3247e-05 -1.4591e-05 -1.4588e-05)
(-3.0378e-05 -1.5761e-05 -1.5757e-05)
(-2.7168e-05 -1.6775e-05 -1.6771e-05)
(-2.3702e-05 -1.7576e-05 -1.7573e-05)
(-2.0077e-05 -1.81e-05 -1.8097e-05)
(-1.6388e-05 -1.8281e-05 -1.8277e-05)
(-4.0361e-05 -2.852e-06 -2.8499e-06)
(-4.0822e-05 -3.4394e-06 -3.4371e-06)
(-4.0787e-05 -4.0732e-06 -4.0707e-06)
(-4.0248e-05 -4.7444e-06 -4.7417e-06)
(-3.9204e-05 -5.4399e-06 -5.4369e-06)
(-3.7667e-05 -6.1424e-06 -6.139e-06)
(-3.5654e-05 -6.8319e-06 -6.8282e-06)
(-3.3194e-05 -7.4873e-06 -7.4832e-06)
(-3.0333e-05 -8.0869e-06 -8.0824e-06)
(-2.7134e-05 -8.6061e-06 -8.6013e-06)
(-2.3681e-05 -9.0158e-06 -9.0108e-06)
(-2.0068e-05 -9.2828e-06 -9.2777e-06)
(-1.639e-05 -9.3737e-06 -9.3685e-06)
(-4.034e-05 -3.5689e-10 2.1465e-09)
(-4.08e-05 -2.3543e-10 2.5111e-09)
(-4.0765e-05 -1.1111e-10 2.9299e-09)
(-4.0226e-05 4.5775e-12 3.3969e-09)
(-3.9183e-05 9.9737e-11 3.8975e-09)
(-3.7646e-05 1.6521e-10 4.4106e-09)
(-3.5634e-05 1.9732e-10 4.9122e-09)
(-3.3176e-05 1.9799e-10 5.3782e-09)
(-3.0318e-05 1.7236e-10 5.7853e-09)
(-2.7123e-05 1.2794e-10 6.1121e-09)
(-2.3674e-05 7.2761e-11 6.3413e-09)
(-2.0065e-05 9.565e-12 6.4583e-09)
(-1.6391e-05 -6.2446e-11 6.452e-09)
(-4.0361e-05 2.852e-06 2.8542e-06)
(-4.0822e-05 3.4399e-06 3.4422e-06)
(-4.0787e-05 4.0741e-06 4.0766e-06)
(-4.0248e-05 4.7457e-06 4.7485e-06)
(-3.9204e-05 5.4416e-06 5.4447e-06)
(-3.7667e-05 6.1444e-06 6.1479e-06)
(-3.5654e-05 6.8342e-06 6.838e-06)
(-3.3194e-05 7.4898e-06 7.494e-06)
(-3.0333e-05 8.0895e-06 8.094e-06)
(-2.7134e-05 8.6087e-06 8.6135e-06)
(-2.3681e-05 9.0184e-06 9.0235e-06)
(-2.0068e-05 9.2854e-06 9.2906e-06)
(-1.639e-05 9.3761e-06 9.3814e-06)
(-4.0423e-05 5.5528e-06 5.5509e-06)
(-4.0886e-05 6.6987e-06 6.6961e-06)
(-4.0853e-05 7.9354e-06 7.932e-06)
(-4.0313e-05 9.2452e-06 9.2412e-06)
(-3.9269e-05 1.0603e-05 1.0598e-05)
(-3.7729e-05 1.1974e-05 1.1969e-05)
(-3.5712e-05 1.332e-05 1.3314e-05)
(-3.3247e-05 1.4599e-05 1.4592e-05)
(-3.0378e-05 1.577e-05 1.5762e-05)
(-2.7168e-05 1.6784e-05 1.6776e-05)
(-2.3702e-05 1.7586e-05 1.7578e-05)
(-2.0077e-05 1.811e-05 1.8102e-05)
(-1.6388e-05 1.8291e-05 1.8282e-05)
(-4.0522e-05 8.0418e-06 8.0377e-06)
(-4.099e-05 9.7057e-06 9.7005e-06)
(-4.0958e-05 1.1502e-05 1.1496e-05)
(-4.0419e-05 1.3406e-05 1.3398e-05)
(-3.9373e-05 1.538e-05 1.5371e-05)
(-3.783e-05 1.7375e-05 1.7365e-05)
(-3.5807e-05 1.9333e-05 1.9321e-05)
(-3.3333e-05 2.1194e-05 2.1182e-05)
(-3.045e-05 2.2899e-05 2.2885e-05)
(-2.7222e-05 2.4379e-05 2.4364e-05)
(-2.3735e-05 2.5552e-05 2.5537e-05)
(-2.009e-05 2.6322e-05 2.6307e-05)
(-1.6386e-05 2.6593e-05 2.6578e-05)
(-4.0717e-05 1.1146e-05 1.1145e-05)
(-4.1192e-05 1.3463e-05 1.3461e-05)
(-4.1165e-05 1.5966e-05 1.5963e-05)
(-4.0626e-05 1.8621e-05 1.8617e-05)
(-3.9577e-05 2.1375e-05 2.1371e-05)
(-3.8026e-05 2.416e-05 2.4155e-05)
(-3.5992e-05 2.6893e-05 2.6887e-05)
(-3.3501e-05 2.9491e-05 2.9485e-05)
(-3.0592e-05 3.1873e-05 3.1866e-05)
(-2.7329e-05 3.3947e-05 3.3941e-05)
(-2.3801e-05 3.5601e-05 3.5593e-05)
(-2.0116e-05 3.6698e-05 3.669e-05)
(-1.6378e-05 3.7098e-05 3.7091e-05)
(-4.0737e-05 -8.2479e-06 -1.3873e-05)
(-4.1213e-05 -9.962e-06 -1.676e-05)
(-4.1186e-05 -1.1814e-05 -1.9879e-05)
(-4.0647e-05 -1.3778e-05 -2.3188e-05)
(-3.9597e-05 -1.5816e-05 -2.6622e-05)
(-3.8046e-05 -1.7877e-05 -3.0095e-05)
(-3.6011e-05 -1.9899e-05 -3.3503e-05)
(-3.3518e-05 -2.1821e-05 -3.6744e-05)
(-3.0606e-05 -2.3583e-05 -3.9716e-05)
(-2.7339e-05 -2.5118e-05 -4.2307e-05)
(-2.3807e-05 -2.6342e-05 -4.4373e-05)
(-2.0118e-05 -2.7155e-05 -4.5747e-05)
(-1.6377e-05 -2.7453e-05 -4.6251e-05)
(-4.0541e-05 -5.3322e-06 -1.0657e-05)
(-4.1009e-05 -6.4353e-06 -1.2863e-05)
(-4.0979e-05 -7.6265e-06 -1.5246e-05)
(-4.044e-05 -8.8888e-06 -1.7771e-05)
(-3.9393e-05 -1.0198e-05 -2.039e-05)
(-3.7849e-05 -1.1521e-05 -2.3037e-05)
(-3.5825e-05 -1.2819e-05 -2.5634e-05)
(-3.3349e-05 -1.4054e-05 -2.8105e-05)
(-3.0464e-05 -1.5184e-05 -3.0367e-05)
(-2.7232e-05 -1.6166e-05 -3.2332e-05)
(-2.3742e-05 -1.6945e-05 -3.3891e-05)
(-2.0093e-05 -1.7457e-05 -3.4917e-05)
(-1.6385e-05 -1.7637e-05 -3.5279e-05)
(-4.0443e-05 -2.7554e-06 -8.2558e-06)
(-4.0907e-05 -3.3238e-06 -9.9605e-06)
(-4.0874e-05 -3.9373e-06 -1.18e-05)
(-4.0334e-05 -4.5872e-06 -1.3749e-05)
(-3.929e-05 -5.2609e-06 -1.5769e-05)
(-3.7749e-05 -5.9414e-06 -1.781e-05)
(-3.5731e-05 -6.6093e-06 -1.9813e-05)
(-3.3264e-05 -7.2442e-06 -2.1717e-05)
(-3.0392e-05 -7.8253e-06 -2.346e-05)
(-2.7178e-05 -8.3291e-06 -2.4971e-05)
(-2.3708e-05 -8.7275e-06 -2.6166e-05)
(-2.0079e-05 -8.9883e-06 -2.6949e-05)
(-1.6388e-05 -9.0784e-06 -2.7219e-05)
(-4.0382e-05 2.6323e-09 -5.6418e-06)
(-4.0843e-05 3.3738e-09 -6.805e-06)
(-4.0809e-05 4.1691e-09 -8.06e-06)
(-4.027e-05 4.9972e-09 -9.3892e-06)
(-3.9226e-05 5.8324e-09 -1.0766e-05)
(-3.7688e-05 6.6469e-09 -1.2158e-05)
(-3.5673e-05 7.4155e-09 -1.3523e-05)
(-3.3212e-05 8.1169e-09 -1.4821e-05)
(-3.0348e-05 8.731e-09 -1.6009e-05)
(-2.7145e-05 9.2367e-09 -1.7037e-05)
(-2.3688e-05 9.6097e-09 -1.7849e-05)
(-2.0071e-05 9.8174e-09 -1.8379e-05)
(-1.6389e-05 9.8244e-09 -1.856e-05)
(-4.0361e-05 2.8528e-06 -2.8514e-06)
(-4.0822e-05 3.4408e-06 -3.439e-06)
(-4.0787e-05 4.0752e-06 -4.0729e-06)
(-4.0248e-05 4.747e-06 -4.7442e-06)
(-3.9204e-05 5.443e-06 -5.4398e-06)
(-3.7667e-05 6.1461e-06 -6.1423e-06)
(-3.5654e-05 6.836e-06 -6.8318e-06)
(-3.3194e-05 7.4918e-06 -7.4872e-06)
(-3.0333e-05 8.0916e-06 -8.0867e-06)
(-2.7134e-05 8.611e-06 -8.6059e-06)
(-2.3681e-05 9.0208e-06 -9.0156e-06)
(-2.0068e-05 9.2879e-06 -9.2826e-06)
(-1.639e-05 9.3786e-06 -9.3734e-06)
(-4.0382e-05 5.6429e-06 3.0118e-09)
(-4.0843e-05 6.8063e-06 3.5543e-09)
(-4.0809e-05 8.0618e-06 4.167e-09)
(-4.027e-05 9.3914e-06 4.8418e-09)
(-3.9226e-05 1.0769e-05 5.5604e-09)
(-3.7688e-05 1.2161e-05 6.2964e-09)
(-3.5673e-05 1.3527e-05 7.0193e-09)
(-3.3212e-05 1.4825e-05 7.6976e-09)
(-3.0348e-05 1.6012e-05 8.3e-09)
(-2.7145e-05 1.7041e-05 8.7976e-09)
(-2.3688e-05 1.7853e-05 9.1657e-09)
(-2.0071e-05 1.8383e-05 9.3797e-09)
(-1.639e-05 1.8564e-05 9.416e-09)
(-4.0443e-05 8.259e-06 2.7609e-06)
(-4.0907e-05 9.9645e-06 3.3306e-06)
(-4.0874e-05 1.1805e-05 3.9455e-06)
(-4.0334e-05 1.3755e-05 4.5968e-06)
(-3.929e-05 1.5776e-05 5.2719e-06)
(-3.7749e-05 1.7818e-05 5.954e-06)
(-3.5731e-05 1.9822e-05 6.6233e-06)
(-3.3264e-05 2.1727e-05 7.2596e-06)
(-3.0392e-05 2.347e-05 7.8418e-06)
(-2.7178e-05 2.4982e-05 8.3466e-06)
(-2.3708e-05 2.6177e-05 8.7457e-06)
(-2.008e-05 2.696e-05 9.0069e-06)
(-1.6388e-05 2.723e-05 9.0971e-06)
(-4.0541e-05 1.0659e-05 5.3317e-06)
(-4.1009e-05 1.2867e-05 6.4348e-06)
(-4.0978e-05 1.525e-05 7.626e-06)
(-4.0439e-05 1.7776e-05 8.8884e-06)
(-3.9393e-05 2.0396e-05 1.0197e-05)
(-3.7849e-05 2.3043e-05 1.152e-05)
(-3.5825e-05 2.5642e-05 1.2819e-05)
(-3.3349e-05 2.8112e-05 1.4053e-05)
(-3.0463e-05 3.0376e-05 1.5184e-05)
(-2.7232e-05 3.2341e-05 1.6165e-05)
(-2.3742e-05 3.39e-05 1.6944e-05)
(-2.0093e-05 3.4926e-05 1.7456e-05)
(-1.6385e-05 3.5288e-05 1.7636e-05)
(-4.0737e-05 1.3873e-05 8.2456e-06)
(-4.1213e-05 1.676e-05 9.9594e-06)
(-4.1186e-05 1.988e-05 1.1811e-05)
(-4.0647e-05 2.3189e-05 1.3775e-05)
(-3.9597e-05 2.6623e-05 1.5812e-05)
(-3.8046e-05 3.0096e-05 1.7872e-05)
(-3.6011e-05 3.3504e-05 1.9894e-05)
(-3.3517e-05 3.6745e-05 2.1815e-05)
(-3.0606e-05 3.9718e-05 2.3577e-05)
(-2.7339e-05 4.2308e-05 2.5112e-05)
(-2.3807e-05 4.4374e-05 2.6335e-05)
(-2.0118e-05 4.5748e-05 2.7148e-05)
(-1.6377e-05 4.6252e-05 2.7446e-05)
(-4.0794e-05 -5.2704e-06 -1.6345e-05)
(-4.1272e-05 -6.3672e-06 -1.9755e-05)
(-4.1247e-05 -7.5523e-06 -2.344e-05)
(-4.0708e-05 -8.8094e-06 -2.7351e-05)
(-3.9657e-05 -1.0114e-05 -3.1412e-05)
(-3.8104e-05 -1.1433e-05 -3.5519e-05)
(-3.6065e-05 -1.2728e-05 -3.9551e-05)
(-3.3567e-05 -1.3959e-05 -4.3385e-05)
(-3.0647e-05 -1.5087e-05 -4.6904e-05)
(-2.7369e-05 -1.6071e-05 -4.9975e-05)
(-2.3825e-05 -1.6858e-05 -5.243e-05)
(-2.0123e-05 -1.7382e-05 -5.4068e-05)
(-1.6374e-05 -1.7576e-05 -5.4678e-05)
(-4.0597e-05 -2.6217e-06 -1.3112e-05)
(-4.1068e-05 -3.1647e-06 -1.5832e-05)
(-4.1038e-05 -3.7511e-06 -1.8769e-05)
(-4.0499e-05 -4.3728e-06 -2.1884e-05)
(-3.9451e-05 -5.0176e-06 -2.5115e-05)
(-3.7905e-05 -5.6693e-06 -2.8381e-05)
(-3.5878e-05 -6.3089e-06 -3.1587e-05)
(-3.3397e-05 -6.9171e-06 -3.4635e-05)
(-3.0504e-05 -7.4743e-06 -3.7429e-05)
(-2.7262e-05 -7.9586e-06 -3.9859e-05)
(-2.376e-05 -8.3434e-06 -4.179e-05)
(-2.01e-05 -8.5972e-06 -4.3064e-05)
(-1.6382e-05 -8.6877e-06 -4.352e-05)
(-4.0501e-05 6.0013e-09 -1.0792e-05)
(-4.0968e-05 7.4487e-09 -1.3024e-05)
(-4.0936e-05 9.0079e-09 -1.5434e-05)
(-4.0397e-05 1.0646e-08 -1.7987e-05)
(-3.9351e-05 1.2321e-08 -2.0634e-05)
(-3.7809e-05 1.3987e-08 -2.3309e-05)
(-3.5787e-05 1.5593e-08 -2.5935e-05)
(-3.3315e-05 1.7093e-08 -2.8431e-05)
(-3.0434e-05 1.8437e-08 -3.0717e-05)
(-2.721e-05 1.9572e-08 -3.2701e-05)
(-2.3728e-05 2.0437e-08 -3.4273e-05)
(-2.0087e-05 2.0958e-08 -3.5305e-05)
(-1.6386e-05 2.1056e-08 -3.5667e-05)
(-4.0443e-05 2.7604e-06 -8.2587e-06)
(-4.0907e-05 3.3304e-06 -9.964e-06)
(-4.0874e-05 3.9454e-06 -1.1804e-05)
(-4.0334e-05 4.597e-06 -1.3754e-05)
(-3.929e-05 5.2722e-06 -1.5775e-05)
(-3.7749e-05 5.9543e-06 -1.7816e-05)
(-3.5731e-05 6.6237e-06 -1.982e-05)
(-3.3264e-05 7.26e-06 -2.1725e-05)
(-3.0392e-05 7.8422e-06 -2.3468e-05)
(-2.7178e-05 8.347e-06 -2.498e-05)
(-2.3708e-05 8.7462e-06 -2.6175e-05)
(-2.0079e-05 9.0073e-06 -2.6958e-05)
(-1.6388e-05 9.0975e-06 -2.7229e-05)
(-4.0423e-05 5.55e-06 -5.5528e-06)
(-4.0886e-05 6.6953e-06 -6.6985e-06)
(-4.0853e-05 7.9313e-06 -7.935e-06)
(-4.0313e-05 9.2405e-06 -9.2446e-06)
(-3.9269e-05 1.0597e-05 -1.0602e-05)
(-3.7729e-05 1.1968e-05 -1.1973e-05)
(-3.5712e-05 1.3313e-05 -1.3319e-05)
(-3.3247e-05 1.4592e-05 -1.4598e-05)
(-3.0378e-05 1.5761e-05 -1.5768e-05)
(-2.7168e-05 1.6776e-05 -1.6783e-05)
(-2.3702e-05 1.7577e-05 -1.7585e-05)
(-2.0077e-05 1.8101e-05 -1.8109e-05)
(-1.6388e-05 1.8281e-05 -1.829e-05)
(-4.0443e-05 8.2563e-06 -2.7561e-06)
(-4.0907e-05 9.9611e-06 -3.325e-06)
(-4.0874e-05 1.1801e-05 -3.9389e-06)
(-4.0334e-05 1.375e-05 -4.5893e-06)
(-3.929e-05 1.5771e-05 -5.2633e-06)
(-3.7749e-05 1.7812e-05 -5.9441e-06)
(-3.5731e-05 1.9815e-05 -6.6123e-06)
(-3.3264e-05 2.1719e-05 -7.2475e-06)
(-3.0392e-05 2.3462e-05 -7.8288e-06)
(-2.7178e-05 2.4973e-05 -8.3328e-06)
(-2.3708e-05 2.6169e-05 -8.7314e-06)
(-2.008e-05 2.6951e-05 -8.9922e-06)
(-1.6388e-05 2.7221e-05 -9.0823e-06)
(-4.0501e-05 1.0792e-05 5.9305e-09)
(-4.0968e-05 1.3024e-05 7.07e-09)
(-4.0936e-05 1.5434e-05 8.33e-09)
(-4.0397e-05 1.7988e-05 9.6931e-09)
(-3.9351e-05 2.0635e-05 1.1129e-08)
(-3.7808e-05 2.331e-05 1.2595e-08)
(-3.5787e-05 2.5936e-05 1.404e-08)
(-3.3314e-05 2.8432e-05 1.541e-08)
(-3.0434e-05 3.0718e-05 1.6647e-08)
(-2.721e-05 3.2703e-05 1.7696e-08)
(-2.3728e-05 3.4274e-05 1.8504e-08)
(-2.0087e-05 3.5307e-05 1.901e-08)
(-1.6386e-05 3.5668e-05 1.915e-08)