/*--------------------------------*- C++ -*----------------------------------*\
| =========                 |                                                 |
| \\      /  F ield         | OpenFOAM: The Open Source CFD Toolbox           |
|  \\    /   O peration     | Version:  4.1                                   |
|   \\  /    A nd           | Web:      www.OpenFOAM.org                      |
|    \\/     M anipulation  |                                                 |
\*---------------------------------------------------------------------------*/
FoamFile
{
    version     2.0;
    format      ascii;
    class       volVectorField;
    location    "0.0065";
    object      wallShearStress;
}
// * * * * * * * * * * * * * * * * * * * * * * * * * * * * * * * * * * * * * //

dimensions      [0 2 -2 0 0 0 0];

internalField   uniform (0 0 0);

boundaryField
{
    inlet
    {
        type            calculated;
        value           nonuniform 0();
    }
    outlet
    {
        type            calculated;
        value           nonuniform 0();
    }
    mantle
    {
        type            calculated;
        value           nonuniform List<vector> 
384
(
(-0.0007545 -5.4054e-06 -1.2111e-06)
(-0.00067643 -1.0009e-05 1.398e-06)
(-0.00062994 -1.1241e-05 4.2332e-06)
(-0.00060764 -8.945e-06 7.8361e-06)
(-0.00060764 -7.8429e-06 8.9384e-06)
(-0.00062994 -4.2614e-06 1.1251e-05)
(-0.00067643 -1.4125e-06 1.0036e-05)
(-0.00075449 1.2273e-06 5.42e-06)
(-0.00072344 -4.2722e-05 -2.6292e-07)
(-0.00064996 -4.3938e-05 1.0941e-05)
(-0.0006056 -4.1374e-05 1.9688e-05)
(-0.00058436 -3.4967e-05 2.9034e-05)
(-0.00058435 -2.9042e-05 3.4958e-05)
(-0.0006056 -1.9697e-05 4.1391e-05)
(-0.00064997 -1.0941e-05 4.3958e-05)
(-0.00072345 2.7812e-07 4.2744e-05)
(-0.00068245 -6.8867e-05 8.0856e-07)
(-0.00061408 -6.7468e-05 1.8062e-05)
(-0.00057243 -6.211e-05 3.0395e-05)
(-0.00055252 -5.2878e-05 4.3502e-05)
(-0.00055252 -4.3514e-05 5.2879e-05)
(-0.00057242 -3.0402e-05 6.2126e-05)
(-0.00061406 -1.8066e-05 6.7472e-05)
(-0.00068246 -7.9304e-07 6.8869e-05)
(-0.00063764 -8.9115e-05 1.9211e-06)
(-0.00057438 -8.5627e-05 2.3887e-05)
(-0.00053555 -7.789e-05 3.8803e-05)
(-0.00051715 -6.6358e-05 5.445e-05)
(-0.00051714 -5.4439e-05 6.6368e-05)
(-0.00053554 -3.8808e-05 7.7885e-05)
(-0.00057438 -2.389e-05 8.5629e-05)
(-0.00063766 -1.9125e-06 8.9114e-05)
(-0.00058877 -0.00010897 3.0412e-06)
(-0.00053087 -0.00010306 2.9273e-05)
(-0.00049508 -9.2791e-05 4.6921e-05)
(-0.00047823 -7.9249e-05 6.5036e-05)
(-0.00047823 -6.5047e-05 7.9252e-05)
(-0.00049507 -4.6926e-05 9.2813e-05)
(-0.00053087 -2.9273e-05 0.0001031)
(-0.00058877 -3.0423e-06 0.000109)
(-0.00053428 -0.00012812 4.2058e-06)
(-0.00048227 -0.00011944 3.4163e-05)
(-0.00044994 -0.0001067 5.4506e-05)
(-0.00043475 -9.1491e-05 7.5126e-05)
(-0.00043475 -7.5154e-05 9.1475e-05)
(-0.00044995 -5.4525e-05 0.0001067)
(-0.00048225 -3.4169e-05 0.00011946)
(-0.00053425 -4.2051e-06 0.00012813)
(-0.00047492 -0.00014111 5.1361e-06)
(-0.00042936 -0.00013057 3.7556e-05)
(-0.00040087 -0.00011608 5.97e-05)
(-0.00038741 -9.9587e-05 8.1831e-05)
(-0.00038742 -8.1839e-05 9.9578e-05)
(-0.00040087 -5.9711e-05 0.00011609)
(-0.00042935 -3.7569e-05 0.00013059)
(-0.0004749 -5.1452e-06 0.00014112)
(-0.00041426 -0.00014473 5.5537e-06)
(-0.00037525 -0.00013367 3.8671e-05)
(-0.00035065 -0.00011854 6.1196e-05)
(-0.00033899 -0.00010151 8.3393e-05)
(-0.00033899 -8.3379e-05 0.00010151)
(-0.00035065 -6.1206e-05 0.00011853)
(-0.00037525 -3.8685e-05 0.0001337)
(-0.00041426 -5.5668e-06 0.00014475)
(-0.00035673 -0.00013995 5.4423e-06)
(-0.00032377 -0.00012918 3.7462e-05)
(-0.00030282 -0.00011439 5.9152e-05)
(-0.00029296 -9.7873e-05 8.0369e-05)
(-0.00029295 -8.0356e-05 9.7887e-05)
(-0.00030283 -5.9158e-05 0.00011438)
(-0.00032377 -3.7473e-05 0.00012918)
(-0.00035672 -5.4608e-06 0.00013994)
(-0.00030548 -0.00012925 4.9373e-06)
(-0.00027775 -0.00011921 3.4548e-05)
(-0.00026002 -0.00010549 5.4567e-05)
(-0.00025176 -9.0349e-05 7.416e-05)
(-0.00025176 -7.416e-05 9.0379e-05)
(-0.00026003 -5.4587e-05 0.00010552)
(-0.00027775 -3.4565e-05 0.00011919)
(-0.00030547 -4.9587e-06 0.00012922)
(-0.00026188 -0.00011545 4.2519e-06)
(-0.00023851 -0.00010643 3.0773e-05)
(-0.00022345 -9.4195e-05 4.8701e-05)
(-0.00021646 -8.0787e-05 6.6284e-05)
(-0.00021646 -6.6297e-05 8.0788e-05)
(-0.00022346 -4.8708e-05 9.4198e-05)
(-0.00023852 -3.0796e-05 0.0001064)
(-0.00026188 -4.2677e-06 0.00011542)
(-0.00022602 -0.00010136 3.6043e-06)
(-0.00020613 -9.3376e-05 2.6957e-05)
(-0.0001932 -8.2656e-05 4.272e-05)
(-0.00018716 -7.1023e-05 5.8245e-05)
(-0.00018717 -5.8264e-05 7.1016e-05)
(-0.00019319 -4.2725e-05 8.2646e-05)
(-0.00020615 -2.6959e-05 9.3346e-05)
(-0.00022604 -3.6217e-06 0.00010134)
(-0.00075448 -1.2087e-06 5.4206e-06)
(-0.00067643 1.4382e-06 1.0021e-05)
(-0.00062994 4.2701e-06 1.1232e-05)
(-0.00060762 7.8364e-06 8.9189e-06)
(-0.00060761 8.9197e-06 7.8181e-06)
(-0.00062994 1.1214e-05 4.2453e-06)
(-0.00067643 1.0009e-05 1.4004e-06)
(-0.00075448 5.4267e-06 -1.218e-06)
(-0.00072345 -2.4286e-07 4.2746e-05)
(-0.00064996 1.0979e-05 4.3955e-05)
(-0.00060559 1.9703e-05 4.1371e-05)
(-0.00058434 2.902e-05 3.4925e-05)
(-0.00058434 3.4955e-05 2.9002e-05)
(-0.0006056 4.1365e-05 1.9676e-05)
(-0.00064996 4.3892e-05 1.0952e-05)
(-0.00072344 4.2691e-05 -2.5607e-07)
(-0.00068246 8.1628e-07 6.887e-05)
(-0.00061406 1.8072e-05 6.7467e-05)
(-0.00057241 3.0402e-05 6.2102e-05)
(-0.00055252 4.3503e-05 5.286e-05)
(-0.00055252 5.2892e-05 4.3471e-05)
(-0.0005724 6.2109e-05 3.0365e-05)
(-0.00061406 6.7426e-05 1.8049e-05)
(-0.00068246 6.8803e-05 7.9964e-07)
(-0.00063766 1.9314e-06 8.9115e-05)
(-0.00057438 2.3904e-05 8.5625e-05)
(-0.00053554 3.882e-05 7.7883e-05)
(-0.00051714 5.4457e-05 6.636e-05)
(-0.00051714 6.637e-05 5.4419e-05)
(-0.00053553 7.7875e-05 3.8772e-05)
(-0.00057438 8.5613e-05 2.3871e-05)
(-0.00063767 8.908e-05 1.9162e-06)
(-0.00058877 3.0572e-06 0.00010898)
(-0.00053088 2.9293e-05 0.00010308)
(-0.00049507 4.6947e-05 9.2813e-05)
(-0.00047823 6.5058e-05 7.9247e-05)
(-0.00047823 7.9258e-05 6.5032e-05)
(-0.00049507 9.2795e-05 4.6905e-05)
(-0.00053086 0.00010304 2.9247e-05)
(-0.00058879 0.00010893 3.0206e-06)
(-0.00053425 4.2152e-06 0.00012812)
(-0.00048225 3.4186e-05 0.00011944)
(-0.00044995 5.4535e-05 0.0001067)
(-0.00043475 7.5137e-05 9.1481e-05)
(-0.00043475 9.1491e-05 7.514e-05)
(-0.00044994 0.00010671 5.4527e-05)
(-0.00048225 0.00011943 3.4147e-05)
(-0.00053427 0.00012808 4.1827e-06)
(-0.0004749 5.1481e-06 0.00014112)
(-0.00042935 3.7587e-05 0.00013057)
(-0.00040085 5.9706e-05 0.00011607)
(-0.00038741 8.1835e-05 9.9585e-05)
(-0.0003874 9.9589e-05 8.1829e-05)
(-0.00040085 0.00011609 5.9695e-05)
(-0.00042937 0.00013058 3.7573e-05)
(-0.00047492 0.00014111 5.1232e-06)
(-0.00041426 5.5757e-06 0.00014476)
(-0.00037525 3.8691e-05 0.00013369)
(-0.00035065 6.1208e-05 0.00011853)
(-0.00033899 8.3401e-05 0.00010152)
(-0.00033899 0.00010153 8.3374e-05)
(-0.00035064 0.00011854 6.1185e-05)
(-0.00037527 0.0001337 3.8665e-05)
(-0.00041428 0.00014476 5.5572e-06)
(-0.00035673 5.4636e-06 0.00013994)
(-0.00032376 3.7491e-05 0.00012919)
(-0.00030282 5.9172e-05 0.00011439)
(-0.00029295 8.0369e-05 9.7869e-05)
(-0.00029295 9.7904e-05 8.0351e-05)
(-0.00030283 0.00011441 5.917e-05)
(-0.00032378 0.00012921 3.7473e-05)
(-0.00035674 0.00013996 5.4379e-06)
(-0.00030547 4.9454e-06 0.00012922)
(-0.00027776 3.4557e-05 0.00011921)
(-0.00026003 5.4577e-05 0.00010552)
(-0.00025176 7.4167e-05 9.0355e-05)
(-0.00025176 9.0375e-05 7.4163e-05)
(-0.00026002 0.00010555 5.4578e-05)
(-0.00027775 0.00011924 3.4556e-05)
(-0.00030547 0.00012924 4.9287e-06)
(-0.00026188 4.2565e-06 0.00011542)
(-0.00023852 3.0776e-05 0.0001064)
(-0.00022348 4.8691e-05 9.4197e-05)
(-0.00021649 6.6292e-05 8.0806e-05)
(-0.00021649 8.0803e-05 6.6309e-05)
(-0.00022346 9.4222e-05 4.87e-05)
(-0.00023851 0.00010643 3.076e-05)
(-0.00026186 0.00011542 4.247e-06)
(-0.00022602 3.6159e-06 0.00010134)
(-0.00020614 2.6945e-05 9.3332e-05)
(-0.00019322 4.2721e-05 8.2632e-05)
(-0.00018719 5.8264e-05 7.103e-05)
(-0.00018719 7.1028e-05 5.8282e-05)
(-0.00019322 8.2657e-05 4.2728e-05)
(-0.00020614 9.3362e-05 2.6934e-05)
(-0.000226 0.00010134 3.6085e-06)
(-0.00075447 5.4305e-06 1.2323e-06)
(-0.00067644 1.0036e-05 -1.3838e-06)
(-0.00062993 1.1248e-05 -4.2373e-06)
(-0.00060762 8.9603e-06 -7.837e-06)
(-0.00060762 7.8606e-06 -8.9297e-06)
(-0.00062992 4.2953e-06 -1.1225e-05)
(-0.0006764 1.4848e-06 -1.0159e-05)
(-0.00075444 -1.1766e-06 -5.7324e-06)
(-0.00072344 4.2714e-05 2.6391e-07)
(-0.00064994 4.3944e-05 -1.0945e-05)
(-0.00060558 4.1397e-05 -1.968e-05)
(-0.00058432 3.4975e-05 -2.9031e-05)
(-0.00058432 2.9043e-05 -3.4955e-05)
(-0.00060557 1.9711e-05 -4.1365e-05)
(-0.00064992 1.0969e-05 -4.3932e-05)
(-0.00072339 -2.3806e-07 -4.2718e-05)
(-0.00068246 6.8806e-05 -7.9634e-07)
(-0.00061405 6.7445e-05 -1.8052e-05)
(-0.00057239 6.2112e-05 -3.0389e-05)
(-0.0005525 5.2867e-05 -4.3482e-05)
(-0.00055249 4.3495e-05 -5.2856e-05)
(-0.00057238 3.0397e-05 -6.2093e-05)
(-0.00061403 1.8069e-05 -6.7434e-05)
(-0.00068243 8.0215e-07 -6.8815e-05)
(-0.00063766 8.9065e-05 -1.9296e-06)
(-0.00057437 8.5596e-05 -2.3884e-05)
(-0.00053554 7.7845e-05 -3.8779e-05)
(-0.00051714 6.6313e-05 -5.44e-05)
(-0.00051712 5.4422e-05 -6.6304e-05)
(-0.00053551 3.882e-05 -7.7832e-05)
(-0.00057435 2.3895e-05 -8.5586e-05)
(-0.00063764 1.9373e-06 -8.9068e-05)
(-0.00058879 0.00010895 -3.0528e-06)
(-0.00053086 0.00010303 -2.9281e-05)
(-0.00049508 9.2744e-05 -4.6914e-05)
(-0.00047823 7.9199e-05 -6.5005e-05)
(-0.00047822 6.5011e-05 -7.9194e-05)
(-0.00049506 4.6917e-05 -9.2739e-05)
(-0.00053086 2.9277e-05 -0.00010301)
(-0.00058877 3.0489e-06 -0.00010894)
(-0.00053427 0.0001281 -4.2178e-06)
(-0.00048225 0.00011943 -3.4183e-05)
(-0.00044994 0.00010667 -5.4536e-05)
(-0.00043475 9.1455e-05 -7.5123e-05)
(-0.00043476 7.5106e-05 -9.1457e-05)
(-0.00044996 5.45e-05 -0.00010666)
(-0.00048226 3.4148e-05 -0.00011938)
(-0.00053427 4.2004e-06 -0.00012807)
(-0.00047492 0.00014109 -5.1496e-06)
(-0.00042937 0.00013058 -3.7594e-05)
(-0.00040086 0.00011608 -5.9724e-05)
(-0.00038742 9.9567e-05 -8.1838e-05)
(-0.00038742 8.1811e-05 -9.9579e-05)
(-0.00040088 5.9693e-05 -0.00011607)
(-0.00042937 3.7549e-05 -0.00013054)
(-0.00047492 5.1239e-06 -0.00014107)
(-0.00041428 0.00014474 -5.587e-06)
(-0.00037526 0.00013368 -3.8684e-05)
(-0.00035066 0.00011852 -6.1214e-05)
(-0.000339 0.0001015 -8.3386e-05)
(-0.00033901 8.3371e-05 -0.00010152)
(-0.00035066 6.1185e-05 -0.00011853)
(-0.00037526 3.8661e-05 -0.00013366)
(-0.00041426 5.5492e-06 -0.0001447)
(-0.00035674 0.00013994 -5.4729e-06)
(-0.00032379 0.00012916 -3.7479e-05)
(-0.00030282 0.00011438 -5.9178e-05)
(-0.00029296 9.7881e-05 -8.0383e-05)
(-0.00029296 8.0354e-05 -9.7895e-05)
(-0.00030282 5.916e-05 -0.00011438)
(-0.00032378 3.7457e-05 -0.00012916)
(-0.00035674 5.4477e-06 -0.00013991)
(-0.00030547 0.00012922 -4.9627e-06)
(-0.00027775 0.00011921 -3.4574e-05)
(-0.00026003 0.00010554 -5.4608e-05)
(-0.00025177 9.0353e-05 -7.4205e-05)
(-0.00025175 7.4138e-05 -9.0378e-05)
(-0.00026004 5.4561e-05 -0.00010551)
(-0.00027777 3.4538e-05 -0.0001192)
(-0.00030549 4.9429e-06 -0.0001292)
(-0.00026187 0.00011542 -4.2717e-06)
(-0.00023852 0.00010643 -3.0786e-05)
(-0.00022347 9.4223e-05 -4.873e-05)
(-0.00021649 8.0792e-05 -6.6339e-05)
(-0.00021649 6.6268e-05 -8.0821e-05)
(-0.00022347 4.8662e-05 -9.4204e-05)
(-0.00023853 3.0762e-05 -0.00010641)
(-0.0002619 4.2563e-06 -0.00011541)
(-0.000226 0.00010134 -3.6292e-06)
(-0.00020614 9.3362e-05 -2.6945e-05)
(-0.00019323 8.2656e-05 -4.2734e-05)
(-0.00018718 7.1026e-05 -5.8301e-05)
(-0.00018719 5.8265e-05 -7.1046e-05)
(-0.00019323 4.2707e-05 -8.2636e-05)
(-0.00020615 2.6933e-05 -9.3335e-05)
(-0.00022603 3.6152e-06 -0.00010134)
(-0.00075443 1.2079e-06 -5.7316e-06)
(-0.00067639 -1.45e-06 -1.0157e-05)
(-0.00062991 -4.2776e-06 -1.1241e-05)
(-0.00060761 -7.8651e-06 -8.9419e-06)
(-0.00060762 -8.9684e-06 -7.8369e-06)
(-0.00062992 -1.1264e-05 -4.2406e-06)
(-0.00067644 -1.0034e-05 -1.3997e-06)
(-0.00075451 -5.409e-06 1.2354e-06)
(-0.00072338 2.7299e-07 -4.2716e-05)
(-0.00064991 -1.0946e-05 -4.3931e-05)
(-0.00060557 -1.9686e-05 -4.1366e-05)
(-0.00058433 -2.902e-05 -3.4958e-05)
(-0.00058433 -3.4961e-05 -2.904e-05)
(-0.00060559 -4.1395e-05 -1.9709e-05)
(-0.00064996 -4.396e-05 -1.0945e-05)
(-0.00072346 -4.2728e-05 2.682e-07)
(-0.00068243 -7.7872e-07 -6.8833e-05)
(-0.00061405 -1.805e-05 -6.7468e-05)
(-0.00057239 -3.0379e-05 -6.212e-05)
(-0.0005525 -4.3491e-05 -5.2883e-05)
(-0.00055251 -5.2874e-05 -4.3513e-05)
(-0.00057241 -6.2139e-05 -3.0414e-05)
(-0.00061406 -6.7487e-05 -1.8071e-05)
(-0.00068245 -6.8869e-05 -7.9681e-07)
(-0.00063764 -1.9099e-06 -8.9103e-05)
(-0.00057436 -2.3873e-05 -8.5648e-05)
(-0.00053553 -3.8787e-05 -7.789e-05)
(-0.00051713 -5.4436e-05 -6.6357e-05)
(-0.00051713 -6.6352e-05 -5.4441e-05)
(-0.00053554 -7.7874e-05 -3.8804e-05)
(-0.00057437 -8.5627e-05 -2.3897e-05)
(-0.00063764 -8.9132e-05 -1.9215e-06)
(-0.00058877 -3.0135e-06 -0.00010898)
(-0.00053085 -2.9244e-05 -0.00010307)
(-0.00049506 -4.6895e-05 -9.2793e-05)
(-0.00047821 -6.5024e-05 -7.9252e-05)
(-0.00047822 -7.9244e-05 -6.5046e-05)
(-0.00049506 -9.2775e-05 -4.6929e-05)
(-0.00053086 -0.00010305 -2.9281e-05)
(-0.00058876 -0.00010898 -3.0506e-06)
(-0.00053427 -4.1776e-06 -0.00012808)
(-0.00048225 -3.4132e-05 -0.00011941)
(-0.00044993 -5.45e-05 -0.00010669)
(-0.00043473 -7.5137e-05 -9.1486e-05)
(-0.00043473 -9.1473e-05 -7.5152e-05)
(-0.00044993 -0.00010668 -5.4529e-05)
(-0.00048226 -0.00011943 -3.4177e-05)
(-0.00053428 -0.00012812 -4.2238e-06)
(-0.00047492 -5.1163e-06 -0.00014106)
(-0.00042936 -3.7543e-05 -0.00013054)
(-0.00040086 -5.9698e-05 -0.00011606)
(-0.00038739 -8.1815e-05 -9.957e-05)
(-0.00038739 -9.9567e-05 -8.1821e-05)
(-0.00040086 -0.00011605 -5.9702e-05)
(-0.00042934 -0.00013055 -3.7579e-05)
(-0.00047491 -0.00014111 -5.1611e-06)
(-0.00041426 -5.5641e-06 -0.0001447)
(-0.00037526 -3.8677e-05 -0.00013366)
(-0.00035066 -6.1175e-05 -0.0001185)
(-0.00033899 -8.3334e-05 -0.00010149)
(-0.00033899 -0.00010148 -8.3372e-05)
(-0.00035064 -0.00011849 -6.1205e-05)
(-0.00037524 -0.00013365 -3.8692e-05)
(-0.00041426 -0.00014474 -5.582e-06)
(-0.00035674 -5.4678e-06 -0.00013991)
(-0.00032378 -3.7477e-05 -0.00012916)
(-0.00030283 -5.9143e-05 -0.00011437)
(-0.00029295 -8.0326e-05 -9.7859e-05)
(-0.00029295 -9.7849e-05 -8.0364e-05)
(-0.00030283 -0.00011437 -5.917e-05)
(-0.00032378 -0.00012916 -3.7485e-05)
(-0.00035673 -0.00013995 -5.4747e-06)
(-0.00030549 -4.9497e-06 -0.0001292)
(-0.00027777 -3.4549e-05 -0.00011922)
(-0.00026004 -5.4576e-05 -0.00010551)
(-0.00025176 -7.4137e-05 -9.0341e-05)
(-0.00025176 -9.0342e-05 -7.415e-05)
(-0.00026003 -0.0001055 -5.4585e-05)
(-0.00027775 -0.00011919 -3.4569e-05)
(-0.00030548 -0.00012923 -4.9703e-06)
(-0.0002619 -4.2627e-06 -0.00011542)
(-0.00023853 -3.0783e-05 -0.00010642)
(-0.00022347 -4.87e-05 -9.4202e-05)
(-0.00021647 -6.6274e-05 -8.0779e-05)
(-0.00021646 -8.0761e-05 -6.6292e-05)
(-0.00022346 -9.418e-05 -4.8711e-05)
(-0.00023851 -0.0001064 -3.0792e-05)
(-0.00026188 -0.00011543 -4.2852e-06)
(-0.00022603 -3.6188e-06 -0.00010135)
(-0.00020615 -2.6956e-05 -9.3351e-05)
(-0.0001932 -4.2718e-05 -8.2647e-05)
(-0.00018717 -5.8243e-05 -7.1017e-05)
(-0.00018718 -7.101e-05 -5.825e-05)
(-0.0001932 -8.2641e-05 -4.2726e-05)
(-0.00020613 -9.3346e-05 -2.6974e-05)
(-0.00022603 -0.00010134 -3.6348e-06)
)
;
    }
    procBoundary2to1
    {
        type            processor;
        value           uniform (0 0 0);
    }
    procBoundary2to3
    {
        type            processor;
        value           uniform (0 0 0);
    }
}


// ************************************************************************* //
