/*--------------------------------*- C++ -*----------------------------------*\
| =========                 |                                                 |
| \\      /  F ield         | foam-extend: Open Source CFD                    |
|  \\    /   O peration     | Version:     4.1-20200408                       |
|   \\  /    A nd           | Web:         http://www.foam-extend.org         |
|    \\/     M anipulation  |                                                 |
\*---------------------------------------------------------------------------*/
FoamFile
{
    version     2.0;
    format      ascii;
    class       volTensorField;
    location    "0.00010";
    object      grad(DU);
}
// * * * * * * * * * * * * * * * * * * * * * * * * * * * * * * * * * * * * * //

dimensions      [0 0 0 0 0 0 0];

internalField   nonuniform List<tensor> 6((-0.00279846 -2.59111e-05 -2.81364e-11 2.58602e-05 0.000835918 -8.71833e-10 -1.48467e-13 8.69719e-10 0.000839293) (0.00320763 -0.00426681 -1.91286e-09 0.00422541 -0.000942925 7.34632e-10 -2.42581e-11 -6.5204e-10 -0.0010456) (0.0556538 -0.00913011 -7.42439e-09 0.00835245 -0.0288364 -1.41993e-08 -4.79514e-11 1.44564e-08 -0.0291311) (0.133647 -0.00611041 -1.12473e-08 0.00500502 -0.0662046 -5.23225e-08 -2.87338e-11 5.13737e-08 -0.0645889) (0.147646 0.00151424 -9.97883e-09 -0.001217 -0.0724492 -9.35428e-08 6.98775e-12 9.33179e-08 -0.0716793) (0.119684 0.0049268 -4.34825e-09 -0.00414113 -0.0535867 -1.20797e-07 2.37729e-11 1.21705e-07 -0.0546459));

boundaryField
{
    wireDownstream
    {
        type            calculated;
        value           uniform (-0.0010531 0.000478659 -4.98718e-10 2.58602e-05 0.000835918 -8.71833e-10 -1.48467e-13 8.69719e-10 0.000839293);
    }
    wireUpstream
    {
        type            calculated;
        value           uniform (0.111021 0.00486138 -6.52735e-10 -0.00414113 -0.0535867 -1.20797e-07 2.37729e-11 1.21705e-07 -0.0546459);
    }
    wireTopContact
    {
        type            calculated;
        value           nonuniform List<tensor> 6((-0.00279846 -2.59111e-05 -2.81364e-11 2.60056e-05 0.000835899 -8.71959e-10 -9.53816e-14 8.69712e-10 0.000839293) (0.00320763 -0.00426681 -1.91286e-09 0.00424916 -0.000942348 7.34432e-10 -1.55843e-11 -6.51829e-10 -0.0010456) (0.0556538 -0.00913011 -7.42439e-09 0.00839939 -0.0288347 -1.42002e-08 -3.08058e-11 1.4457e-08 -0.0291311) (0.133647 -0.00611041 -1.12473e-08 0.00503315 -0.0662137 -5.23245e-08 -1.84596e-11 5.13704e-08 -0.0645889) (0.147646 0.00151424 -9.97883e-09 -0.00122384 -0.0724536 -9.35467e-08 4.48953e-12 9.33163e-08 -0.0716793) (0.119684 0.0049268 -4.34825e-09 -0.0041644 -0.0535808 -1.20803e-07 1.52721e-11 1.21707e-07 -0.0546459));
    }
    front
    {
        type            wedge;
    }
    back
    {
        type            wedge;
    }
}


// ************************************************************************* //
