/*--------------------------------*- C++ -*----------------------------------*\
| =========                 |                                                 |
| \\      /  F ield         | foam-extend: Open Source CFD                    |
|  \\    /   O peration     | Version:     4.1-20200408                       |
|   \\  /    A nd           | Web:         http://www.foam-extend.org         |
|    \\/     M anipulation  |                                                 |
\*---------------------------------------------------------------------------*/
FoamFile
{
    version     2.0;
    format      ascii;
    class       volSymmTensorField;
    location    "0.00010";
    object      sigmaCauchy;
}
// * * * * * * * * * * * * * * * * * * * * * * * * * * * * * * * * * * * * * //

dimensions      [1 -1 -2 0 0 0 0];

internalField   nonuniform List<symmTensor> 6((-4.967e+08 2948.91 -1.92535 -1.42158e+06 -0.144054 -960835) (5.63007e+08 -4.01283e+06 -131.807 -1.56385e+06 6.16485 -1.67374e+07) (1.79135e+08 -1.1427e+07 -59.901 -1.10255e+09 2.34441 -1.10746e+09) (-5.53821e+08 -7.31911e+06 -42.352 -1.89582e+09 -2.3847 -1.88613e+09) (-8.52964e+08 1.79886e+06 -33.4724 -2.2021e+09 -0.448691 -2.19789e+09) (1.14797e+09 5.89518e+06 -16.0403 -1.73305e+08 2.61594 -1.8079e+08));

boundaryField
{
    wireDownstream
    {
        type            calculated;
        value           uniform (-7.98518e+07 3.42778e+07 -33.892 1.77066e+08 -0.159918 1.7751e+08);
    }
    wireUpstream
    {
        type            calculated;
        value           uniform (-25180.6 5.76539e+06 -0.787822 -1.31763e+09 2.82851 -1.32551e+09);
    }
    wireTopContact
    {
        type            calculated;
        value           nonuniform List<symmTensor> 6((-4.96702e+08 12869.2 -1.92173 -1.4261e+06 -0.153169 -962762) (5.6309e+08 -2.40098e+06 -131.217 -1.41589e+06 6.16558 -1.66678e+07) (1.79453e+08 -1.10858e+07 -59.7821 -1.10223e+09 2.34256 -1.10716e+09) (-5.55229e+08 -7.23381e+06 -42.3248 -1.89726e+09 -2.39925 -1.88752e+09) (-8.5365e+08 1.78012e+06 -33.4771 -2.2028e+09 -0.462463 -2.19857e+09) (1.14892e+09 5.81388e+06 -16.0597 -1.7234e+08 2.59788 -1.79867e+08));
    }
    front
    {
        type            wedge;
    }
    back
    {
        type            wedge;
    }
}


// ************************************************************************* //
