# Wall shear stress
# Time         	patch          	min            	max            
1.00000000e-05	mantle	(-9.47912064e-03 -3.57966329e-04 -3.59405001e-04)	(-3.83114847e-03 3.51377016e-04 3.63832430e-04)
1.00000000e-05	mantle	(-9.80109133e-03 -3.49598201e-04 -3.50097481e-04)	(-3.33446226e-03 3.49210347e-04 3.51372726e-04)
