/*--------------------------------*- C++ -*----------------------------------*\
| =========                 |                                                 |
| \\      /  F ield         | foam-extend: Open Source CFD                    |
|  \\    /   O peration     | Version:     4.1-20200408                       |
|   \\  /    A nd           | Web:         http://www.foam-extend.org         |
|    \\/     M anipulation  |                                                 |
\*---------------------------------------------------------------------------*/
FoamFile
{
    version     2.0;
    format      ascii;
    class       volVectorField;
    location    "0.0390000";
    object      DU_0;
}
// * * * * * * * * * * * * * * * * * * * * * * * * * * * * * * * * * * * * * //

dimensions      [0 1 0 0 0 0 0];

internalField   nonuniform List<vector> 
1952
(
(5.00015e-05 6.92679e-10 0)
(5.00014e-05 1.12449e-09 0)
(5.00014e-05 1.53832e-09 0)
(5.00013e-05 1.94713e-09 0)
(5.00013e-05 2.32411e-09 0)
(5.00012e-05 2.66672e-09 0)
(5.00012e-05 2.9906e-09 0)
(5.0001e-05 3.24168e-09 0)
(5.0001e-05 3.49769e-09 0)
(5.00008e-05 3.63897e-09 0)
(5.00007e-05 3.80933e-09 0)
(5.00004e-05 3.82349e-09 0)
(5.00002e-05 3.8773e-09 0)
(4.99997e-05 3.74832e-09 0)
(4.9999e-05 3.6849e-09 0)
(5.00015e-05 2.98087e-10 0)
(5.00018e-05 5.34188e-10 0)
(5.00018e-05 8.58217e-10 0)
(5.00018e-05 1.18432e-09 0)
(5.00016e-05 1.48445e-09 0)
(5.00016e-05 1.77957e-09 0)
(5.00015e-05 2.03051e-09 0)
(5.00014e-05 2.27461e-09 0)
(5.00012e-05 2.46007e-09 0)
(5.00012e-05 2.6362e-09 0)
(5.00009e-05 2.74077e-09 0)
(5.00008e-05 2.83271e-09 0)
(5.00004e-05 2.84126e-09 0)
(5.00001e-05 2.83644e-09 0)
(4.99996e-05 2.74872e-09 0)
(4.99989e-05 2.68844e-09 0)
(5.00018e-05 2.29005e-10 0)
(5.0002e-05 3.99556e-10 0)
(5.0002e-05 6.39956e-10 0)
(5.00019e-05 8.84709e-10 0)
(5.00018e-05 1.10277e-09 0)
(5.00018e-05 1.32218e-09 0)
(5.00016e-05 1.5009e-09 0)
(5.00016e-05 1.67656e-09 0)
(5.00013e-05 1.8036e-09 0)
(5.00012e-05 1.91988e-09 0)
(5.00009e-05 1.98308e-09 0)
(5.00008e-05 2.02843e-09 0)
(5.00004e-05 2.01928e-09 0)
(5.00001e-05 1.99782e-09 0)
(4.99996e-05 1.93333e-09 0)
(4.99991e-05 1.91462e-09 0)
(5.0002e-05 1.71165e-10 0)
(5.00021e-05 2.86365e-10 0)
(5.0002e-05 4.57265e-10 0)
(5.0002e-05 6.32681e-10 0)
(5.00019e-05 7.84372e-10 0)
(5.00019e-05 9.39658e-10 0)
(5.00016e-05 1.05982e-09 0)
(5.00016e-05 1.17951e-09 0)
(5.00013e-05 1.25937e-09 0)
(5.00013e-05 1.33117e-09 0)
(5.00009e-05 1.3632e-09 0)
(5.00008e-05 1.38161e-09 0)
(5.00004e-05 1.36497e-09 0)
(5.00001e-05 1.34329e-09 0)
(4.99996e-05 1.30107e-09 0)
(4.99992e-05 1.29899e-09 0)
(5.00021e-05 1.22609e-10 0)
(5.00021e-05 1.92362e-10 0)
(5.0002e-05 3.05797e-10 0)
(5.0002e-05 4.23497e-10 0)
(5.00019e-05 5.20851e-10 0)
(5.00018e-05 6.2321e-10 0)
(5.00016e-05 6.95985e-10 0)
(5.00016e-05 7.70888e-10 0)
(5.00013e-05 8.1346e-10 0)
(5.00012e-05 8.52239e-10 0)
(5.00009e-05 8.61203e-10 0)
(5.00007e-05 8.63153e-10 0)
(5.00003e-05 8.42845e-10 0)
(5.00001e-05 8.25323e-10 0)
(4.99997e-05 7.99705e-10 0)
(4.99993e-05 8.12754e-10 0)
(5.00021e-05 8.23086e-11 0)
(5.0002e-05 1.14922e-10 0)
(5.0002e-05 1.8109e-10 0)
(5.00019e-05 2.51577e-10 0)
(5.00018e-05 3.04837e-10 0)
(5.00018e-05 3.64566e-10 0)
(5.00015e-05 3.99686e-10 0)
(5.00015e-05 4.39718e-10 0)
(5.00012e-05 4.53998e-10 0)
(5.00011e-05 4.68972e-10 0)
(5.00008e-05 4.62365e-10 0)
(5.00007e-05 4.54806e-10 0)
(5.00003e-05 4.34338e-10 0)
(5.00001e-05 4.21546e-10 0)
(4.99997e-05 4.07737e-10 0)
(4.99994e-05 4.27163e-10 0)
(5.0002e-05 4.91097e-11 0)
(5.00019e-05 5.16044e-11 0)
(5.00018e-05 7.91675e-11 0)
(5.00018e-05 1.11412e-10 0)
(5.00017e-05 1.29044e-10 0)
(5.00017e-05 1.54846e-10 0)
(5.00014e-05 1.60297e-10 0)
(5.00014e-05 1.735e-10 0)
(5.00011e-05 1.66584e-10 0)
(5.00011e-05 1.64432e-10 0)
(5.00007e-05 1.47424e-10 0)
(5.00006e-05 1.3417e-10 0)
(5.00003e-05 1.1485e-10 0)
(5.00001e-05 1.05915e-10 0)
(4.99998e-05 1.00309e-10 0)
(4.99995e-05 1.22933e-10 0)
(5.00019e-05 2.19601e-11 0)
(5.00017e-05 1.80881e-13 0)
(5.00017e-05 -3.54322e-12 0)
(5.00017e-05 -2.01278e-12 0)
(5.00015e-05 -1.28726e-11 0)
(5.00015e-05 -1.37762e-11 0)
(5.00013e-05 -3.13687e-11 0)
(5.00013e-05 -3.85541e-11 0)
(5.0001e-05 -6.1009e-11 0)
(5.00009e-05 -7.53365e-11 0)
(5.00006e-05 -9.89867e-11 0)
(5.00005e-05 -1.15607e-10 0)
(5.00002e-05 -1.33214e-10 0)
(5.00001e-05 -1.39547e-10 0)
(4.99998e-05 -1.39906e-10 0)
(4.99996e-05 -1.17307e-10 0)
(5.00017e-05 -9.58681e-14 0)
(5.00015e-05 -4.15457e-11 0)
(5.00015e-05 -7.06023e-11 0)
(5.00015e-05 -9.37011e-11 0)
(5.00013e-05 -1.2733e-10 0)
(5.00013e-05 -1.49204e-10 0)
(5.00011e-05 -1.84668e-10 0)
(5.00011e-05 -2.07314e-10 0)
(5.00008e-05 -2.41147e-10 0)
(5.00008e-05 -2.6416e-10 0)
(5.00005e-05 -2.92031e-10 0)
(5.00004e-05 -3.10715e-10 0)
(5.00001e-05 -3.26623e-10 0)
(5e-05 -3.31415e-10 0)
(4.99998e-05 -3.28545e-10 0)
(4.99997e-05 -3.07527e-10 0)
(5.00015e-05 -1.7999e-11 0)
(5.00013e-05 -7.54847e-11 0)
(5.00012e-05 -1.25088e-10 0)
(5.00012e-05 -1.67991e-10 0)
(5.00011e-05 -2.19814e-10 0)
(5.00011e-05 -2.58221e-10 0)
(5.00009e-05 -3.07502e-10 0)
(5.00009e-05 -3.41958e-10 0)
(5.00007e-05 -3.84043e-10 0)
(5.00007e-05 -4.13347e-10 0)
(5.00004e-05 -4.43777e-10 0)
(5.00004e-05 -4.63812e-10 0)
(5.00001e-05 -4.78169e-10 0)
(5e-05 -4.82265e-10 0)
(4.99998e-05 -4.77574e-10 0)
(4.99997e-05 -4.59129e-10 0)
(5.00013e-05 -3.25656e-11 0)
(5.00011e-05 -1.03526e-10 0)
(5.0001e-05 -1.70067e-10 0)
(5.0001e-05 -2.29147e-10 0)
(5.00009e-05 -2.95771e-10 0)
(5.00009e-05 -3.4743e-10 0)
(5.00007e-05 -4.07616e-10 0)
(5.00008e-05 -4.51264e-10 0)
(5.00005e-05 -4.99492e-10 0)
(5.00005e-05 -5.33458e-10 0)
(5.00002e-05 -5.65474e-10 0)
(5.00003e-05 -5.86426e-10 0)
(5e-05 -5.99465e-10 0)
(5e-05 -6.03344e-10 0)
(4.99998e-05 -5.97666e-10 0)
(4.99997e-05 -5.82056e-10 0)
(5.00011e-05 -4.46048e-11 0)
(5.00008e-05 -1.27224e-10 0)
(5.00007e-05 -2.08045e-10 0)
(5.00008e-05 -2.80679e-10 0)
(5.00006e-05 -3.59605e-10 0)
(5.00007e-05 -4.22232e-10 0)
(5.00005e-05 -4.91189e-10 0)
(5.00006e-05 -5.42314e-10 0)
(5.00003e-05 -5.95158e-10 0)
(5.00004e-05 -6.32818e-10 0)
(5.00001e-05 -6.65719e-10 0)
(5.00002e-05 -6.87392e-10 0)
(4.99999e-05 -6.99207e-10 0)
(4.99999e-05 -7.03106e-10 0)
(4.99998e-05 -6.96813e-10 0)
(4.99997e-05 -6.83892e-10 0)
(5.00008e-05 -5.4782e-11 0)
(5.00005e-05 -1.48112e-10 0)
(5.00005e-05 -2.41508e-10 0)
(5.00005e-05 -3.26005e-10 0)
(5.00004e-05 -4.15665e-10 0)
(5.00005e-05 -4.87813e-10 0)
(5.00003e-05 -5.64256e-10 0)
(5.00004e-05 -6.21795e-10 0)
(5.00001e-05 -6.78407e-10 0)
(5.00002e-05 -7.19159e-10 0)
(5e-05 -7.52622e-10 0)
(5.00001e-05 -7.74821e-10 0)
(4.99998e-05 -7.85479e-10 0)
(4.99999e-05 -7.89304e-10 0)
(4.99997e-05 -7.82406e-10 0)
(4.99997e-05 -7.71599e-10 0)
(5.00005e-05 -6.3754e-11 0)
(5.00002e-05 -1.67378e-10 0)
(5.00002e-05 -2.72364e-10 0)
(5.00002e-05 -3.67786e-10 0)
(5.00001e-05 -4.67253e-10 0)
(5.00002e-05 -5.482e-10 0)
(5e-05 -6.31332e-10 0)
(5.00002e-05 -6.94844e-10 0)
(5e-05 -7.54657e-10 0)
(5.00001e-05 -7.98311e-10 0)
(4.99999e-05 -8.32041e-10 0)
(5e-05 -8.5468e-10 0)
(4.99998e-05 -8.64034e-10 0)
(4.99998e-05 -8.67515e-10 0)
(4.99997e-05 -8.59683e-10 0)
(4.99997e-05 -8.50151e-10 0)
(5.00002e-05 -7.20298e-11 0)
(4.99999e-05 -1.86172e-10 0)
(4.99999e-05 -3.02474e-10 0)
(4.99999e-05 -4.08566e-10 0)
(4.99998e-05 -5.17594e-10 0)
(5e-05 -6.07198e-10 0)
(4.99998e-05 -6.96816e-10 0)
(5e-05 -7.66267e-10 0)
(4.99998e-05 -8.29159e-10 0)
(4.99999e-05 -8.7569e-10 0)
(4.99997e-05 -9.09619e-10 0)
(4.99999e-05 -9.32521e-10 0)
(4.99997e-05 -9.40389e-10 0)
(4.99998e-05 -9.42972e-10 0)
(4.99996e-05 -9.33634e-10 0)
(4.99996e-05 -9.24223e-10 0)
(4.99999e-05 -8.01025e-11 0)
(4.99996e-05 -2.05337e-10 0)
(4.99996e-05 -3.33193e-10 0)
(4.99996e-05 -4.50226e-10 0)
(4.99996e-05 -5.69002e-10 0)
(4.99997e-05 -6.67622e-10 0)
(4.99996e-05 -7.63827e-10 0)
(4.99998e-05 -8.39599e-10 0)
(4.99996e-05 -9.05578e-10 0)
(4.99998e-05 -9.55228e-10 0)
(4.99996e-05 -9.89235e-10 0)
(4.99998e-05 -1.01228e-09 0)
(4.99996e-05 -1.01828e-09 0)
(4.99997e-05 -1.01928e-09 0)
(4.99996e-05 -1.00761e-09 0)
(4.99996e-05 -9.96968e-10 0)
(4.99996e-05 -8.83338e-11 0)
(4.99992e-05 -2.25615e-10 0)
(4.99992e-05 -3.65718e-10 0)
(4.99993e-05 -4.9441e-10 0)
(4.99992e-05 -6.23544e-10 0)
(4.99994e-05 -7.31925e-10 0)
(4.99993e-05 -8.35168e-10 0)
(4.99995e-05 -9.17907e-10 0)
(4.99994e-05 -9.87238e-10 0)
(4.99996e-05 -1.04033e-09 0)
(4.99995e-05 -1.07442e-09 0)
(4.99997e-05 -1.09739e-09 0)
(4.99995e-05 -1.10109e-09 0)
(4.99996e-05 -1.09959e-09 0)
(4.99995e-05 -1.08457e-09 0)
(4.99996e-05 -1.07107e-09 0)
(4.99992e-05 -9.70421e-11 0)
(4.99988e-05 -2.47516e-10 0)
(4.99989e-05 -4.00873e-10 0)
(4.9999e-05 -5.42258e-10 0)
(4.99989e-05 -6.82636e-10 0)
(4.99991e-05 -8.01826e-10 0)
(4.9999e-05 -9.12759e-10 0)
(4.99993e-05 -1.00337e-09 0)
(4.99992e-05 -1.07641e-09 0)
(4.99994e-05 -1.13344e-09 0)
(4.99993e-05 -1.16757e-09 0)
(4.99996e-05 -1.19027e-09 0)
(4.99994e-05 -1.19112e-09 0)
(4.99996e-05 -1.18608e-09 0)
(4.99995e-05 -1.1665e-09 0)
(4.99995e-05 -1.14832e-09 0)
(4.99988e-05 -1.06446e-10 0)
(4.99984e-05 -2.71312e-10 0)
(4.99985e-05 -4.39095e-10 0)
(4.99986e-05 -5.94404e-10 0)
(4.99986e-05 -7.47041e-10 0)
(4.99988e-05 -8.78302e-10 0)
(4.99987e-05 -9.97667e-10 0)
(4.9999e-05 -1.09722e-09 0)
(4.99989e-05 -1.17438e-09 0)
(4.99993e-05 -1.23592e-09 0)
(4.99992e-05 -1.27007e-09 0)
(4.99994e-05 -1.29226e-09 0)
(4.99994e-05 -1.28962e-09 0)
(4.99995e-05 -1.27981e-09 0)
(4.99995e-05 -1.2543e-09 0)
(4.99995e-05 -1.22933e-09 0)
(4.99984e-05 -1.16663e-10 0)
(4.9998e-05 -2.97125e-10 0)
(4.9998e-05 -4.80598e-10 0)
(4.99982e-05 -6.51144e-10 0)
(4.99982e-05 -8.17176e-10 0)
(4.99984e-05 -9.61867e-10 0)
(4.99984e-05 -1.09054e-09 0)
(4.99988e-05 -1.20022e-09 0)
(4.99987e-05 -1.28204e-09 0)
(4.99991e-05 -1.3487e-09 0)
(4.9999e-05 -1.38293e-09 0)
(4.99993e-05 -1.40432e-09 0)
(4.99993e-05 -1.39754e-09 0)
(4.99995e-05 -1.38162e-09 0)
(4.99994e-05 -1.34867e-09 0)
(4.99995e-05 -1.31459e-09 0)
(4.9998e-05 -1.27745e-10 0)
(4.99975e-05 -3.24627e-10 0)
(4.99975e-05 -5.24846e-10 0)
(4.99977e-05 -7.11824e-10 0)
(4.99977e-05 -8.92157e-10 0)
(4.9998e-05 -1.05165e-09 0)
(4.9998e-05 -1.19029e-09 0)
(4.99985e-05 -1.31137e-09 0)
(4.99984e-05 -1.39821e-09 0)
(4.99989e-05 -1.47073e-09 0)
(4.99989e-05 -1.50494e-09 0)
(4.99992e-05 -1.52531e-09 0)
(4.99992e-05 -1.51361e-09 0)
(4.99995e-05 -1.49011e-09 0)
(4.99994e-05 -1.44803e-09 0)
(4.99995e-05 -1.40226e-09 0)
(4.99975e-05 -1.39552e-10 0)
(4.99969e-05 -3.53376e-10 0)
(4.9997e-05 -5.71168e-10 0)
(4.99972e-05 -7.75534e-10 0)
(4.99973e-05 -9.70956e-10 0)
(4.99976e-05 -1.14645e-09 0)
(4.99977e-05 -1.29576e-09 0)
(4.99981e-05 -1.42941e-09 0)
(4.99982e-05 -1.5218e-09 0)
(4.99986e-05 -1.60086e-09 0)
(4.99987e-05 -1.63518e-09 0)
(4.99991e-05 -1.65422e-09 0)
(4.99991e-05 -1.63696e-09 0)
(4.99994e-05 -1.60428e-09 0)
(4.99994e-05 -1.55137e-09 0)
(4.99995e-05 -1.49102e-09 0)
(4.99969e-05 -1.51894e-10 0)
(4.99963e-05 -3.82202e-10 0)
(4.99964e-05 -6.17668e-10 0)
(4.99966e-05 -8.39812e-10 0)
(4.99967e-05 -1.05041e-09 0)
(4.99971e-05 -1.24282e-09 0)
(4.99972e-05 -1.4029e-09 0)
(4.99978e-05 -1.55028e-09 0)
(4.99978e-05 -1.64829e-09 0)
(4.99984e-05 -1.73473e-09 0)
(4.99985e-05 -1.76899e-09 0)
(4.9999e-05 -1.78657e-09 0)
(4.99991e-05 -1.76293e-09 0)
(4.99994e-05 -1.71948e-09 0)
(4.99995e-05 -1.65387e-09 0)
(4.99996e-05 -1.57583e-09 0)
(4.99963e-05 -1.64269e-10 0)
(4.99957e-05 -4.09753e-10 0)
(4.99958e-05 -6.62232e-10 0)
(4.9996e-05 -9.01796e-10 0)
(4.99961e-05 -1.12713e-09 0)
(4.99966e-05 -1.3368e-09 0)
(4.99967e-05 -1.50755e-09 0)
(4.99973e-05 -1.66946e-09 0)
(4.99975e-05 -1.77331e-09 0)
(4.99981e-05 -1.86778e-09 0)
(4.99983e-05 -1.90216e-09 0)
(4.99989e-05 -1.91806e-09 0)
(4.9999e-05 -1.88757e-09 0)
(4.99995e-05 -1.83166e-09 0)
(4.99995e-05 -1.75159e-09 0)
(4.99997e-05 -1.65243e-09 0)
(4.99956e-05 -1.76098e-10 0)
(4.99949e-05 -4.33615e-10 0)
(4.9995e-05 -7.00968e-10 0)
(4.99953e-05 -9.56352e-10 0)
(4.99955e-05 -1.19462e-09 0)
(4.9996e-05 -1.42113e-09 0)
(4.99962e-05 -1.60137e-09 0)
(4.99969e-05 -1.77834e-09 0)
(4.99971e-05 -1.88752e-09 0)
(4.99979e-05 -1.99082e-09 0)
(4.99981e-05 -2.02513e-09 0)
(4.99988e-05 -2.03943e-09 0)
(4.9999e-05 -2.0015e-09 0)
(4.99995e-05 -1.93159e-09 0)
(4.99996e-05 -1.83524e-09 0)
(4.99999e-05 -1.7114e-09 0)
(4.99948e-05 -1.86342e-10 0)
(4.99941e-05 -4.50957e-10 0)
(4.99942e-05 -7.29398e-10 0)
(4.99946e-05 -9.97434e-10 0)
(4.99948e-05 -1.24556e-09 0)
(4.99954e-05 -1.48729e-09 0)
(4.99956e-05 -1.67517e-09 0)
(4.99964e-05 -1.86702e-09 0)
(4.99967e-05 -1.98095e-09 0)
(4.99975e-05 -2.0936e-09 0)
(4.99979e-05 -2.12802e-09 0)
(4.99987e-05 -2.14083e-09 0)
(4.9999e-05 -2.0954e-09 0)
(4.99996e-05 -2.01002e-09 0)
(4.99998e-05 -1.89588e-09 0)
(5.00001e-05 -1.74353e-09 0)
(4.9994e-05 -1.9379e-10 0)
(4.99932e-05 -4.57501e-10 0)
(4.99934e-05 -7.40648e-10 0)
(4.99938e-05 -1.01588e-09 0)
(4.9994e-05 -1.2685e-09 0)
(4.99947e-05 -1.52226e-09 0)
(4.9995e-05 -1.71421e-09 0)
(4.99959e-05 -1.92002e-09 0)
(4.99963e-05 -2.0371e-09 0)
(4.99972e-05 -2.15965e-09 0)
(4.99977e-05 -2.19399e-09 0)
(4.99986e-05 -2.20587e-09 0)
(4.9999e-05 -2.15296e-09 0)
(4.99997e-05 -2.05106e-09 0)
(5e-05 -1.91784e-09 0)
(5.00004e-05 -1.73316e-09 0)
(4.99931e-05 -1.96601e-10 0)
(4.99922e-05 -4.48096e-10 0)
(4.99924e-05 -7.26519e-10 0)
(4.99929e-05 -1.00064e-09 0)
(4.99931e-05 -1.24991e-09 0)
(4.99939e-05 -1.51033e-09 0)
(4.99943e-05 -1.70123e-09 0)
(4.99953e-05 -1.9188e-09 0)
(4.99958e-05 -2.03691e-09 0)
(4.99968e-05 -2.16952e-09 0)
(4.99974e-05 -2.20391e-09 0)
(4.99984e-05 -2.21569e-09 0)
(4.9999e-05 -2.15609e-09 0)
(4.99999e-05 -2.03702e-09 0)
(5.00003e-05 -1.88406e-09 0)
(5.00007e-05 -1.66322e-09 0)
(4.99922e-05 -1.92567e-10 0)
(4.99912e-05 -4.15696e-10 0)
(4.99914e-05 -6.75701e-10 0)
(4.99919e-05 -9.36538e-10 0)
(4.99922e-05 -1.1709e-09 0)
(4.99931e-05 -1.4298e-09 0)
(4.99935e-05 -1.61188e-09 0)
(4.99946e-05 -1.83749e-09 0)
(4.99952e-05 -1.95304e-09 0)
(4.99964e-05 -2.09567e-09 0)
(4.99971e-05 -2.12995e-09 0)
(4.99983e-05 -2.14311e-09 0)
(4.9999e-05 -2.07812e-09 0)
(5.00001e-05 -1.94209e-09 0)
(5.00006e-05 -1.76944e-09 0)
(5.00012e-05 -1.50891e-09 0)
(4.99911e-05 -1.7866e-10 0)
(4.99902e-05 -3.51711e-10 0)
(4.99904e-05 -5.74456e-10 0)
(4.99909e-05 -8.05009e-10 0)
(4.99913e-05 -1.00861e-09 0)
(4.99922e-05 -1.25407e-09 0)
(4.99927e-05 -1.41662e-09 0)
(4.99939e-05 -1.64435e-09 0)
(4.99946e-05 -1.75245e-09 0)
(4.9996e-05 -1.90447e-09 0)
(4.99968e-05 -1.9386e-09 0)
(4.99982e-05 -1.95528e-09 0)
(4.99991e-05 -1.8873e-09 0)
(5.00003e-05 -1.73557e-09 0)
(5.0001e-05 -1.54448e-09 0)
(5.00018e-05 -1.24122e-09 0)
(4.999e-05 -1.51193e-10 0)
(4.99891e-05 -2.4512e-10 0)
(4.99893e-05 -4.05093e-10 0)
(4.99899e-05 -5.82179e-10 0)
(4.99903e-05 -7.33376e-10 0)
(4.99913e-05 -9.48704e-10 0)
(4.99918e-05 -1.07688e-09 0)
(4.99931e-05 -1.29803e-09 0)
(4.9994e-05 -1.39158e-09 0)
(4.99955e-05 -1.55173e-09 0)
(4.99965e-05 -1.58537e-09 0)
(4.99981e-05 -1.60876e-09 0)
(4.99992e-05 -1.54134e-09 0)
(5.00006e-05 -1.37675e-09 0)
(5.00016e-05 -1.17005e-09 0)
(5.00025e-05 -8.21904e-10 0)
(4.9989e-05 -1.05432e-10 0)
(4.9988e-05 -8.25553e-11 0)
(4.99883e-05 -1.46151e-10 0)
(4.99889e-05 -2.38948e-10 0)
(4.99893e-05 -3.09112e-10 0)
(4.99903e-05 -4.71536e-10 0)
(4.9991e-05 -5.45478e-10 0)
(4.99924e-05 -7.47572e-10 0)
(4.99933e-05 -8.16845e-10 0)
(4.9995e-05 -9.82788e-10 0)
(4.99962e-05 -1.01541e-09 0)
(4.9998e-05 -1.04986e-09 0)
(4.99993e-05 -9.88156e-10 0)
(5.0001e-05 -8.15644e-10 0)
(5.00022e-05 -5.98365e-10 0)
(5.00034e-05 -2.04547e-10 0)
(4.99879e-05 -3.56384e-11 0)
(4.99871e-05 1.52339e-10 0)
(4.99873e-05 2.28688e-10 0)
(4.99879e-05 2.60441e-10 0)
(4.99883e-05 3.08698e-10 0)
(4.99894e-05 2.2962e-10 0)
(4.99901e-05 2.36289e-10 0)
(4.99916e-05 7.06007e-11 0)
(4.99926e-05 3.89638e-11 0)
(4.99944e-05 -1.28962e-10 0)
(4.99958e-05 -1.59438e-10 0)
(4.99978e-05 -2.10821e-10 0)
(4.99994e-05 -1.61939e-10 0)
(5.00014e-05 1.06834e-11 0)
(5.00029e-05 2.3061e-10 0)
(5.00044e-05 6.68905e-10 0)
(4.9987e-05 6.5213e-11 0)
(4.99863e-05 4.78992e-10 0)
(4.99865e-05 7.50745e-10 0)
(4.99871e-05 9.58726e-10 0)
(4.99874e-05 1.17343e-09 0)
(4.99886e-05 1.21771e-09 0)
(4.99892e-05 1.33954e-09 0)
(4.99908e-05 1.23401e-09 0)
(4.99919e-05 1.25822e-09 0)
(4.99938e-05 1.09438e-09 0)
(4.99955e-05 1.06826e-09 0)
(4.99977e-05 9.92358e-10 0)
(4.99996e-05 1.019e-09 0)
(5.00019e-05 1.18019e-09 0)
(5.00038e-05 1.39099e-09 0)
(5.00057e-05 1.86975e-09 0)
(4.99862e-05 2.05464e-10 0)
(4.99858e-05 9.20136e-10 0)
(4.99859e-05 1.45675e-09 0)
(4.99865e-05 1.90627e-09 0)
(4.99868e-05 2.34824e-09 0)
(4.99879e-05 2.56774e-09 0)
(4.99885e-05 2.84948e-09 0)
(4.999e-05 2.83627e-09 0)
(4.99913e-05 2.94096e-09 0)
(4.99933e-05 2.79072e-09 0)
(4.99951e-05 2.77291e-09 0)
(4.99975e-05 2.66311e-09 0)
(4.99998e-05 2.65542e-09 0)
(5.00024e-05 2.78875e-09 0)
(5.00047e-05 2.97364e-09 0)
(5.00071e-05 3.48499e-09 0)
(4.99857e-05 3.94875e-10 0)
(4.99857e-05 1.50171e-09 0)
(4.99857e-05 2.38879e-09 0)
(4.99863e-05 3.16108e-09 0)
(4.99864e-05 3.90634e-09 0)
(4.99874e-05 4.36737e-09 0)
(4.99879e-05 4.86666e-09 0)
(4.99894e-05 4.98887e-09 0)
(4.99906e-05 5.20757e-09 0)
(4.99927e-05 5.08563e-09 0)
(4.99947e-05 5.08344e-09 0)
(4.99973e-05 4.92875e-09 0)
(4.99999e-05 4.87193e-09 0)
(5.0003e-05 4.95481e-09 0)
(5.00058e-05 5.09062e-09 0)
(5.00087e-05 5.62137e-09 0)
(4.99856e-05 6.4458e-10 0)
(4.99861e-05 2.25234e-09 0)
(4.9986e-05 3.59345e-09 0)
(4.99865e-05 4.78796e-09 0)
(4.99864e-05 5.93014e-09 0)
(4.99873e-05 6.71648e-09 0)
(4.99877e-05 7.50673e-09 0)
(4.9989e-05 7.82189e-09 0)
(4.99901e-05 8.20001e-09 0)
(4.99922e-05 8.12917e-09 0)
(4.99943e-05 8.15532e-09 0)
(4.99971e-05 7.9441e-09 0)
(5.00001e-05 7.82096e-09 0)
(5.00036e-05 7.82318e-09 0)
(5.0007e-05 7.87874e-09 0)
(5.00106e-05 8.40859e-09 0)
(4.99861e-05 9.66859e-10 0)
(4.99874e-05 3.20237e-09 0)
(4.99871e-05 5.1205e-09 0)
(4.99874e-05 6.85674e-09 0)
(4.99871e-05 8.50954e-09 0)
(4.99877e-05 9.7256e-09 0)
(4.99878e-05 1.08999e-08 0)
(4.99889e-05 1.14841e-08 0)
(4.99898e-05 1.20836e-08 0)
(4.99918e-05 1.20989e-08 0)
(4.99939e-05 1.21756e-08 0)
(4.99969e-05 1.18976e-08 0)
(5.00002e-05 1.16901e-08 0)
(5.00042e-05 1.15725e-08 0)
(5.00082e-05 1.15072e-08 0)
(5.00127e-05 1.20064e-08 0)
(4.99874e-05 1.37473e-09 0)
(4.99898e-05 4.38193e-09 0)
(4.99892e-05 7.0197e-09 0)
(4.99893e-05 9.43843e-09 0)
(4.99886e-05 1.17374e-08 0)
(4.99889e-05 1.35115e-08 0)
(4.99885e-05 1.51863e-08 0)
(4.99892e-05 1.614e-08 0)
(4.99898e-05 1.7045e-08 0)
(4.99915e-05 1.72004e-08 0)
(4.99935e-05 1.73649e-08 0)
(4.99966e-05 1.70157e-08 0)
(5.00002e-05 1.67077e-08 0)
(5.00048e-05 1.64212e-08 0)
(5.00096e-05 1.61829e-08 0)
(5.00149e-05 1.66085e-08 0)
(4.99898e-05 1.8811e-09 0)
(4.99935e-05 5.81804e-09 0)
(4.99926e-05 9.33642e-09 0)
(4.99924e-05 1.25993e-08 0)
(4.99912e-05 1.57027e-08 0)
(4.9991e-05 1.81897e-08 0)
(4.999e-05 2.05097e-08 0)
(4.99902e-05 2.19641e-08 0)
(4.99903e-05 2.32891e-08 0)
(4.99915e-05 2.36666e-08 0)
(4.99932e-05 2.3981e-08 0)
(4.99962e-05 2.35693e-08 0)
(5.00001e-05 2.31527e-08 0)
(5.00052e-05 2.26378e-08 0)
(5.00108e-05 2.21609e-08 0)
(5.00174e-05 2.24502e-08 0)
(4.99935e-05 2.49751e-09 0)
(4.99989e-05 7.53012e-09 0)
(4.99977e-05 1.21043e-08 0)
(4.99971e-05 1.63912e-08 0)
(4.99952e-05 2.0479e-08 0)
(4.99944e-05 2.38619e-08 0)
(4.99927e-05 2.70035e-08 0)
(4.9992e-05 2.91282e-08 0)
(4.99913e-05 3.10284e-08 0)
(4.99919e-05 3.1752e-08 0)
(4.99932e-05 3.2318e-08 0)
(4.99959e-05 3.18813e-08 0)
(4.99998e-05 3.13692e-08 0)
(5.00054e-05 3.0561e-08 0)
(5.0012e-05 2.97676e-08 0)
(5.002e-05 2.98312e-08 0)
(4.9999e-05 3.23224e-09 0)
(5.00064e-05 9.52412e-09 0)
(5.00048e-05 1.5336e-08 0)
(5.00037e-05 2.08387e-08 0)
(5.00011e-05 2.6108e-08 0)
(4.99994e-05 3.05967e-08 0)
(4.99967e-05 3.47706e-08 0)
(4.99951e-05 3.77808e-08 0)
(4.99933e-05 4.04637e-08 0)
(4.99929e-05 4.17181e-08 0)
(4.99934e-05 4.26998e-08 0)
(4.99955e-05 4.2331e-08 0)
(4.99994e-05 4.17859e-08 0)
(5.00053e-05 4.06355e-08 0)
(5.0013e-05 3.94563e-08 0)
(5.00226e-05 3.918e-08 0)
(5.00067e-05 4.08775e-09 0)
(5.00165e-05 1.17846e-08 0)
(5.00143e-05 1.90099e-08 0)
(5.00126e-05 2.59206e-08 0)
(5.00092e-05 3.25765e-08 0)
(5.00065e-05 3.84015e-08 0)
(5.00026e-05 4.38501e-08 0)
(4.99997e-05 4.80114e-08 0)
(4.99966e-05 5.17475e-08 0)
(4.99948e-05 5.37972e-08 0)
(4.99941e-05 5.54474e-08 0)
(4.99952e-05 5.53295e-08 0)
(4.99987e-05 5.48988e-08 0)
(5.00048e-05 5.34061e-08 0)
(5.00135e-05 5.18163e-08 0)
(5.00251e-05 5.10599e-08 0)
(5.00169e-05 5.05727e-09 0)
(5.00295e-05 1.4266e-08 0)
(5.00268e-05 2.30557e-08 0)
(5.00244e-05 3.15492e-08 0)
(5.002e-05 3.97883e-08 0)
(5.00161e-05 4.71872e-08 0)
(5.00108e-05 5.41761e-08 0)
(5.00064e-05 5.9802e-08 0)
(5.00016e-05 6.49314e-08 0)
(4.9998e-05 6.81402e-08 0)
(4.99956e-05 7.08285e-08 0)
(4.99953e-05 7.12709e-08 0)
(4.99979e-05 7.12121e-08 0)
(5.00037e-05 6.94324e-08 0)
(5.00135e-05 6.7412e-08 0)
(5.00272e-05 6.59119e-08 0)
(5.003e-05 6.12109e-09 0)
(5.00458e-05 1.68825e-08 0)
(5.00425e-05 2.73375e-08 0)
(5.00394e-05 3.75452e-08 0)
(5.00339e-05 4.75298e-08 0)
(5.00288e-05 5.67237e-08 0)
(5.00219e-05 6.55208e-08 0)
(5.00157e-05 7.29618e-08 0)
(5.00088e-05 7.98959e-08 0)
(5.00031e-05 8.47539e-08 0)
(4.99985e-05 8.90241e-08 0)
(4.9996e-05 9.05583e-08 0)
(4.99969e-05 9.13554e-08 0)
(5.00019e-05 8.95032e-08 0)
(5.00124e-05 8.6992e-08 0)
(5.00286e-05 8.41699e-08 0)
(5.00465e-05 7.24227e-09 0)
(5.00656e-05 1.95004e-08 0)
(5.00618e-05 3.16395e-08 0)
(5.00579e-05 4.36149e-08 0)
(5.00514e-05 5.54361e-08 0)
(5.00449e-05 6.65887e-08 0)
(5.00364e-05 7.7423e-08 0)
(5.00282e-05 8.70293e-08 0)
(5.0019e-05 9.62263e-08 0)
(5.00108e-05 1.03362e-07 0)
(5.00033e-05 1.10017e-07 0)
(4.9998e-05 1.13614e-07 0)
(4.99962e-05 1.16416e-07 0)
(4.99992e-05 1.15574e-07 0)
(5.00095e-05 1.13383e-07 0)
(5.00287e-05 1.09169e-07 0)
(5.00665e-05 8.36333e-09 0)
(5.00892e-05 2.19338e-08 0)
(5.00848e-05 3.5658e-08 0)
(5.00802e-05 4.93347e-08 0)
(5.00727e-05 6.29631e-08 0)
(5.00648e-05 7.61202e-08 0)
(5.00547e-05 8.91062e-08 0)
(5.00445e-05 1.01133e-07 0)
(5.0033e-05 1.12982e-07 0)
(5.00221e-05 1.23038e-07 0)
(5.00114e-05 1.33025e-07 0)
(5.00027e-05 1.40093e-07 0)
(4.99973e-05 1.4701e-07 0)
(4.99967e-05 1.50064e-07 0)
(5.00048e-05 1.52162e-07 0)
(5.0026e-05 1.50666e-07 0)
(5.00902e-05 9.40446e-09 0)
(5.01163e-05 2.39493e-08 0)
(5.01115e-05 3.90087e-08 0)
(5.01062e-05 5.41602e-08 0)
(5.00978e-05 6.93943e-08 0)
(5.00887e-05 8.44135e-08 0)
(5.00771e-05 9.94519e-08 0)
(5.00651e-05 1.13913e-07 0)
(5.00513e-05 1.28503e-07 0)
(5.00378e-05 1.41772e-07 0)
(5.00242e-05 1.55585e-07 0)
(5.00122e-05 1.67021e-07 0)
(5.00032e-05 1.79637e-07 0)
(4.99989e-05 1.89241e-07 0)
(5.00034e-05 2.00538e-07 0)
(5.00219e-05 2.09196e-07 0)
(5.01175e-05 1.02659e-08 0)
(5.01467e-05 2.52822e-08 0)
(5.01415e-05 4.1253e-08 0)
(5.01357e-05 5.74647e-08 0)
(5.01264e-05 7.3897e-08 0)
(5.01164e-05 9.04002e-08 0)
(5.01034e-05 1.07113e-07 0)
(5.00897e-05 1.23675e-07 0)
(5.00739e-05 1.40627e-07 0)
(5.00581e-05 1.56743e-07 0)
(5.00416e-05 1.73831e-07 0)
(5.00265e-05 1.88859e-07 0)
(5.00139e-05 2.05821e-07 0)
(5.00059e-05 2.19674e-07 0)
(5.00055e-05 2.36189e-07 0)
(5.00168e-05 2.49094e-07 0)
(5.0148e-05 1.08343e-08 0)
(5.01796e-05 2.56591e-08 0)
(5.01741e-05 4.19389e-08 0)
(5.01678e-05 5.8603e-08 0)
(5.0158e-05 7.56183e-08 0)
(5.01471e-05 9.29966e-08 0)
(5.0133e-05 1.10752e-07 0)
(5.01179e-05 1.288e-07 0)
(5.01001e-05 1.47411e-07 0)
(5.00821e-05 1.65671e-07 0)
(5.00625e-05 1.85082e-07 0)
(5.00439e-05 2.0254e-07 0)
(5.0027e-05 2.22121e-07 0)
(5.00135e-05 2.3763e-07 0)
(5.00062e-05 2.55428e-07 0)
(5.00084e-05 2.6747e-07 0)
(5.01809e-05 1.09928e-08 0)
(5.0214e-05 2.48219e-08 0)
(5.02083e-05 4.06393e-08 0)
(5.02018e-05 5.69652e-08 0)
(5.01915e-05 7.37539e-08 0)
(5.01799e-05 9.1184e-08 0)
(5.0165e-05 1.09126e-07 0)
(5.01487e-05 1.2781e-07 0)
(5.01291e-05 1.47152e-07 0)
(5.01088e-05 1.66679e-07 0)
(5.0086e-05 1.87362e-07 0)
(5.00633e-05 2.0626e-07 0)
(5.00409e-05 2.27301e-07 0)
(5.00205e-05 2.4317e-07 0)
(5.00048e-05 2.61245e-07 0)
(4.9997e-05 2.71875e-07 0)
(5.02154e-05 1.0631e-08 0)
(5.02487e-05 2.25516e-08 0)
(5.02429e-05 3.69914e-08 0)
(5.02362e-05 5.20299e-08 0)
(5.02257e-05 6.76134e-08 0)
(5.02137e-05 8.40821e-08 0)
(5.01981e-05 1.01163e-07 0)
(5.01808e-05 1.19426e-07 0)
(5.01597e-05 1.3839e-07 0)
(5.01372e-05 1.58186e-07 0)
(5.01109e-05 1.7904e-07 0)
(5.00838e-05 1.98598e-07 0)
(5.0055e-05 2.20293e-07 0)
(5.00264e-05 2.35888e-07 0)
(5.0001e-05 2.54437e-07 0)
(4.99831e-05 2.63095e-07 0)
(5.02501e-05 9.65538e-09 0)
(5.02821e-05 1.8675e-08 0)
(5.02763e-05 3.07044e-08 0)
(5.02696e-05 4.33708e-08 0)
(5.0259e-05 5.66181e-08 0)
(5.02468e-05 7.09289e-08 0)
(5.02308e-05 8.59e-08 0)
(5.02127e-05 1.0245e-07 0)
(5.01904e-05 1.19695e-07 0)
(5.0166e-05 1.38536e-07 0)
(5.01364e-05 1.58257e-07 0)
(5.01048e-05 1.77738e-07 0)
(5.00689e-05 1.99268e-07 0)
(5.00311e-05 2.14678e-07 0)
(4.99946e-05 2.34771e-07 0)
(4.99635e-05 2.40846e-07 0)
(5.02835e-05 7.99205e-09 0)
(5.03125e-05 1.30614e-08 0)
(5.03068e-05 2.15579e-08 0)
(5.03001e-05 3.06612e-08 0)
(5.02896e-05 4.03168e-08 0)
(5.02773e-05 5.11117e-08 0)
(5.02613e-05 6.25397e-08 0)
(5.02427e-05 7.58305e-08 0)
(5.02196e-05 8.97635e-08 0)
(5.01936e-05 1.06087e-07 0)
(5.01612e-05 1.2307e-07 0)
(5.01255e-05 1.41556e-07 0)
(5.00824e-05 1.6174e-07 0)
(5.00355e-05 1.77796e-07 0)
(4.99863e-05 1.9982e-07 0)
(4.99359e-05 2.03132e-07 0)
(5.0314e-05 5.58574e-09 0)
(5.0338e-05 5.78884e-09 0)
(5.03324e-05 9.68693e-09 0)
(5.03256e-05 1.40993e-08 0)
(5.03153e-05 1.89781e-08 0)
(5.03029e-05 2.49623e-08 0)
(5.02869e-05 3.1466e-08 0)
(5.0268e-05 3.99317e-08 0)
(5.02446e-05 4.89074e-08 0)
(5.02174e-05 6.09045e-08 0)
(5.01832e-05 7.33254e-08 0)
(5.01445e-05 8.93129e-08 0)
(5.00958e-05 1.05789e-07 0)
(5.00407e-05 1.21789e-07 0)
(4.99757e-05 1.4079e-07 0)
(4.98972e-05 1.38391e-07 0)
(5.03395e-05 2.46865e-09 0)
(5.03571e-05 -2.53128e-09 0)
(5.03516e-05 -3.9e-09 0)
(5.03451e-05 -4.90058e-09 0)
(5.03351e-05 -5.57354e-09 0)
(5.03231e-05 -5.30674e-09 0)
(5.03076e-05 -4.79361e-09 0)
(5.02892e-05 -2.61409e-09 0)
(5.02663e-05 -4.59617e-10 0)
(5.02392e-05 4.42706e-09 0)
(5.02045e-05 8.73389e-09 0)
(5.01629e-05 1.72068e-08 0)
(5.01078e-05 2.3369e-08 0)
(5.0042e-05 3.20119e-08 0)
(4.99539e-05 3.69887e-08 0)
(4.98423e-05 2.66372e-08 0)
(5.03585e-05 -1.09698e-09 0)
(5.03708e-05 -1.23024e-08 0)
(5.03651e-05 -1.99591e-08 0)
(5.03582e-05 -2.75923e-08 0)
(5.03477e-05 -3.52962e-08 0)
(5.03348e-05 -4.26314e-08 0)
(5.03184e-05 -5.04508e-08 0)
(5.02985e-05 -5.76669e-08 0)
(5.0274e-05 -6.62048e-08 0)
(5.02445e-05 -7.36942e-08 0)
(5.02073e-05 -8.40279e-08 0)
(5.01613e-05 -9.20483e-08 0)
(5.00996e-05 -1.0504e-07 0)
(5.00228e-05 -1.13787e-07 0)
(4.99138e-05 -1.28745e-07 0)
(4.97753e-05 -1.44397e-07 0)
(5.03723e-05 -5.27829e-09 0)
(5.03671e-05 -2.6342e-08 0)
(5.03605e-05 -4.31051e-08 0)
(5.03522e-05 -6.0378e-08 0)
(5.03399e-05 -7.84013e-08 0)
(5.03245e-05 -9.69529e-08 0)
(5.0305e-05 -1.17032e-07 0)
(5.0281e-05 -1.37894e-07 0)
(5.02519e-05 -1.61533e-07 0)
(5.02163e-05 -1.85871e-07 0)
(5.01728e-05 -2.14842e-07 0)
(5.01192e-05 -2.43137e-07 0)
(5.00503e-05 -2.78111e-07 0)
(4.99644e-05 -3.08122e-07 0)
(4.98454e-05 -3.45884e-07 0)
(4.96937e-05 -3.72006e-07 0)
(5.03689e-05 -1.12829e-08 0)
(5.03319e-05 -4.52296e-08 0)
(5.03242e-05 -7.41083e-08 0)
(5.03139e-05 -1.04014e-07 0)
(5.02991e-05 -1.35234e-07 0)
(5.02802e-05 -1.67715e-07 0)
(5.02565e-05 -2.0248e-07 0)
(5.02274e-05 -2.38998e-07 0)
(5.01923e-05 -2.79175e-07 0)
(5.01499e-05 -3.21033e-07 0)
(5.00993e-05 -3.68221e-07 0)
(5.00376e-05 -4.15205e-07 0)
(4.9962e-05 -4.69147e-07 0)
(4.98688e-05 -5.16648e-07 0)
(4.97475e-05 -5.71723e-07 0)
(4.95975e-05 -6.05365e-07 0)
(5.03342e-05 -1.93621e-08 0)
(5.02607e-05 -6.68147e-08 0)
(5.02517e-05 -1.09398e-07 0)
(5.02392e-05 -1.53391e-07 0)
(5.02216e-05 -1.98969e-07 0)
(5.0199e-05 -2.46176e-07 0)
(5.01708e-05 -2.9588e-07 0)
(5.01362e-05 -3.47659e-07 0)
(5.00953e-05 -4.03146e-07 0)
(5.00462e-05 -4.60399e-07 0)
(4.99893e-05 -5.22602e-07 0)
(4.99213e-05 -5.84006e-07 0)
(4.98421e-05 -6.51055e-07 0)
(4.97471e-05 -7.09004e-07 0)
(4.9633e-05 -7.71624e-07 0)
(4.94984e-05 -8.05241e-07 0)
(5.02635e-05 -2.85997e-08 0)
(5.0151e-05 -8.7859e-08 0)
(5.01408e-05 -1.43713e-07 0)
(5.01266e-05 -2.01227e-07 0)
(5.01065e-05 -2.60351e-07 0)
(5.00807e-05 -3.2115e-07 0)
(5.00488e-05 -3.84196e-07 0)
(5.001e-05 -4.4908e-07 0)
(4.99644e-05 -5.16999e-07 0)
(4.99107e-05 -5.86046e-07 0)
(4.98498e-05 -6.58772e-07 0)
(4.9779e-05 -7.29395e-07 0)
(4.97011e-05 -8.03433e-07 0)
(4.96112e-05 -8.65892e-07 0)
(4.95127e-05 -9.29843e-07 0)
(4.94029e-05 -9.61232e-07 0)
(5.01543e-05 -3.7611e-08 0)
(5.0007e-05 -1.049e-07 0)
(4.99959e-05 -1.71478e-07 0)
(4.99802e-05 -2.39913e-07 0)
(4.99583e-05 -3.09906e-07 0)
(4.99304e-05 -3.81515e-07 0)
(4.98961e-05 -4.5493e-07 0)
(4.98547e-05 -5.29696e-07 0)
(4.98067e-05 -6.0646e-07 0)
(4.97509e-05 -6.83394e-07 0)
(4.96895e-05 -7.62284e-07 0)
(4.96201e-05 -8.37679e-07 0)
(4.9548e-05 -9.14064e-07 0)
(4.94691e-05 -9.77509e-07 0)
(4.93916e-05 -1.04004e-06 0)
(4.93117e-05 -1.06992e-06 0)
(5.00107e-05 -4.49098e-08 0)
(4.98373e-05 -1.15499e-07 0)
(4.98254e-05 -1.88751e-07 0)
(4.98086e-05 -2.64038e-07 0)
(4.97855e-05 -3.40863e-07 0)
(4.97562e-05 -4.1931e-07 0)
(4.97207e-05 -4.99207e-07 0)
(4.96786e-05 -5.80079e-07 0)
(4.96304e-05 -6.6198e-07 0)
(4.95755e-05 -7.43222e-07 0)
(4.95166e-05 -8.24708e-07 0)
(4.94525e-05 -9.01681e-07 0)
(4.93901e-05 -9.77475e-07 0)
(4.93264e-05 -1.0402e-06 0)
(4.9273e-05 -1.10023e-06 0)
(4.92255e-05 -1.12964e-06 0)
(4.98413e-05 -4.94489e-08 0)
(4.96532e-05 -1.18927e-07 0)
(4.96406e-05 -1.94304e-07 0)
(4.96228e-05 -2.71794e-07 0)
(4.95986e-05 -3.50776e-07 0)
(4.95685e-05 -4.31404e-07 0)
(4.95327e-05 -5.13291e-07 0)
(4.9491e-05 -5.96089e-07 0)
(4.94443e-05 -6.79376e-07 0)
(4.93926e-05 -7.61699e-07 0)
(4.93388e-05 -8.42996e-07 0)
(4.9283e-05 -9.19438e-07 0)
(4.9233e-05 -9.9303e-07 0)
(4.91872e-05 -1.05448e-06 0)
(4.91594e-05 -1.11182e-06 0)
(4.91446e-05 -1.14197e-06 0)
(4.96575e-05 -5.09161e-08 0)
(4.94659e-05 -1.1611e-07 0)
(4.94526e-05 -1.89589e-07 0)
(4.94339e-05 -2.65036e-07 0)
(4.94088e-05 -3.41738e-07 0)
(4.93781e-05 -4.19903e-07 0)
(4.93422e-05 -4.99084e-07 0)
(4.93015e-05 -5.79295e-07 0)