/*--------------------------------*- C++ -*----------------------------------*\
| =========                 |                                                 |
| \\      /  F ield         | foam-extend: Open Source CFD                    |
|  \\    /   O peration     | Version:     4.1-20200408                       |
|   \\  /    A nd           | Web:         http://www.foam-extend.org         |
|    \\/     M anipulation  |                                                 |
\*---------------------------------------------------------------------------*/
FoamFile
{
    version     2.0;
    format      ascii;
    class       volScalarField;
    location    "0.0390000";
    object      epsilonTrueEq;
}
// * * * * * * * * * * * * * * * * * * * * * * * * * * * * * * * * * * * * * //

dimensions      [0 0 0 0 0 0 0];

internalField   nonuniform List<scalar> 
1952
(
0.044716
0.0447923
0.0448936
0.0450132
0.045141
0.0452553
0.0453442
0.0453764
0.0453347
0.0451858
0.0449182
0.044512
0.0440102
0.0434656
0.0431404
0.0446818
0.0448038
0.0448802
0.044981
0.045101
0.0452278
0.0453426
0.0454303
0.0454626
0.04542
0.045271
0.0450029
0.0445961
0.0440956
0.0435527
0.0432324
0.0447695
0.044892
0.0449684
0.0450692
0.0451893
0.0453159
0.0454304
0.045518
0.04555
0.0455074
0.0453579
0.0450896
0.0446821
0.0441816
0.0436387
0.0433167
0.0448577
0.0449807
0.0450571
0.0451578
0.0452781
0.0454043
0.0455187
0.0456062
0.045638
0.0455954
0.0454456
0.045177
0.0447696
0.0442688
0.0437255
0.0434029
0.0449464
0.0450689
0.0451454
0.0452461
0.0453666
0.0454934
0.0456077
0.0456953
0.0457269
0.0456844
0.0455346
0.0452657
0.0448581
0.044357
0.0438122
0.0434883
0.0450347
0.0451578
0.0452344
0.0453353
0.0454559
0.045583
0.0456975
0.0457851
0.0458169
0.0457744
0.0456246
0.0453553
0.0449464
0.0444443
0.043899
0.0435741
0.0451236
0.0452475
0.0453242
0.0454253
0.0455461
0.0456728
0.0457873
0.0458751
0.0459067
0.0458642
0.0457141
0.045444
0.0450348
0.0445321
0.0439863
0.043661
0.0452131
0.0453368
0.0454137
0.0455148
0.0456359
0.0457631
0.0458776
0.0459654
0.0459971
0.0459545
0.0458044
0.0455333
0.045124
0.0446208
0.0440737
0.0437477
0.0453025
0.0454267
0.0455036
0.0456048
0.0457261
0.0458539
0.0459685
0.0460564
0.0460881
0.0460456
0.0458954
0.045623
0.0452127
0.044709
0.0441606
0.0438343
0.0453923
0.045517
0.0455941
0.0456956
0.0458172
0.0459447
0.0460593
0.0461474
0.046179
0.0461365
0.0459862
0.0457123
0.0453009
0.0447966
0.0442482
0.0439216
0.0454825
0.0456072
0.0456845
0.0457861
0.0459079
0.0460352
0.0461499
0.0462378
0.0462694
0.0462268
0.0460764
0.0458033
0.04539
0.0448851
0.0443362
0.044009
0.0455728
0.045697
0.0457744
0.0458761
0.045998
0.0461261
0.046241
0.0463288
0.0463605
0.0463179
0.0461674
0.0458945
0.0454794
0.0449738
0.0444237
0.0440961
0.0456625
0.0457872
0.0458647
0.0459665
0.0460888
0.0462169
0.0463318
0.0464198
0.0464516
0.046409
0.0462583
0.0459851
0.0455683
0.045062
0.044511
0.0441834
0.0457526
0.0458769
0.0459547
0.0460568
0.0461794
0.0463075
0.0464225
0.0465106
0.0465423
0.0464999
0.0463485
0.0460752
0.0456574
0.0451505
0.044599
0.0442714
0.0458423
0.0459664
0.0460444
0.0461466
0.0462695
0.0463979
0.046513
0.0466011
0.0466327
0.0465904
0.0464385
0.0461654
0.0457467
0.0452395
0.0446875
0.0443597
0.0459318
0.0460554
0.0461336
0.0462359
0.0463592
0.0464881
0.0466034
0.0466915
0.0467231
0.046681
0.0465286
0.0462557
0.0458365
0.045329
0.044776
0.0444479
0.0460208
0.0461442
0.0462226
0.0463251
0.0464487
0.0465781
0.0466937
0.0467821
0.0468137
0.0467719
0.0466192
0.0463457
0.0459259
0.0454182
0.0448643
0.0445361
0.0461095
0.0462329
0.0463115
0.0464144
0.0465384
0.0466678
0.0467835
0.0468722
0.0469039
0.0468625
0.0467092
0.0464354
0.0460149
0.045507
0.0449528
0.0446247
0.0461981
0.0463208
0.0463998
0.046503
0.0466273
0.046757
0.0468728
0.0469618
0.0469936
0.0469524
0.0467988
0.0465252
0.0461042
0.0455961
0.0450417
0.0447136
0.046286
0.046408
0.0464872
0.0465907
0.0467154
0.0468457
0.0469618
0.047051
0.0470831
0.0470421
0.0468882
0.0466151
0.0461937
0.0456855
0.0451307
0.0448026
0.0463731
0.0464943
0.0465737
0.0466776
0.0468027
0.0469337
0.0470502
0.0471399
0.0471724
0.0471316
0.0469774
0.046705
0.0462833
0.0457749
0.0452199
0.0448918
0.0464593
0.0465796
0.0466594
0.0467637
0.0468893
0.047021
0.0471379
0.0472283
0.0472612
0.0472209
0.0470669
0.0467949
0.0463729
0.0458645
0.0453093
0.0449813
0.0465446
0.0466638
0.0467439
0.0468487
0.0469748
0.0471075
0.0472248
0.0473161
0.0473497
0.04731
0.0471566
0.0468846
0.0464626
0.0459544
0.0453989
0.0450714
0.0466287
0.0467468
0.0468272
0.0469327
0.0470593
0.0471929
0.047311
0.0474033
0.0474376
0.0473987
0.0472461
0.0469745
0.0465524
0.0460445
0.0454889
0.045162
0.0467115
0.0468286
0.0469095
0.0470156
0.0471427
0.0472775
0.0473964
0.0474898
0.047525
0.047487
0.0473355
0.0470645
0.0466426
0.046135
0.0455794
0.0452532
0.0467932
0.0469091
0.0469904
0.0470973
0.0472248
0.0473611
0.047481
0.0475756
0.0476119
0.047575
0.0474247
0.0471545
0.0467331
0.0462261
0.0456705
0.0453453
0.0468735
0.0469884
0.0470703
0.0471781
0.0473065
0.0474438
0.0475646
0.0476606
0.0476983
0.0476627
0.0475138
0.0472447
0.0468239
0.0463178
0.0457626
0.0454385
0.0469527
0.0470667
0.047149
0.0472578
0.0473878
0.0475257
0.0476475
0.047745
0.047784
0.04775
0.0476027
0.0473351
0.0469151
0.0464105
0.0458565
0.0455332
0.0470307
0.0471445
0.0472273
0.047337
0.0474682
0.0476071
0.04773
0.047829
0.0478695
0.0478372
0.0476919
0.0474254
0.0470063
0.0465035
0.0459518
0.0456296
0.0471083
0.0472223
0.0473056
0.047416
0.0475478
0.0476878
0.0478117
0.0479123
0.0479544
0.0479238
0.0477806
0.047516
0.047098
0.0465973
0.046048
0.0457274
0.047186
0.0473002
0.0473837
0.0474947
0.0476274
0.0477684
0.0478933
0.0479954
0.048039
0.0480104
0.0478693
0.0476066
0.0471909
0.0466923
0.0461456
0.0458272
0.0472637
0.0473795
0.0474629
0.0475745
0.0477075
0.0478493
0.0479749
0.0480784
0.0481235
0.048097
0.047958
0.0476972
0.0472841
0.0467878
0.0462444
0.0459292
0.0473428
0.0474611
0.0475442
0.047656
0.0477888
0.047931
0.048057
0.0481615
0.0482079
0.0481832
0.0480462
0.0477879
0.0473783
0.0468848
0.0463452
0.0460338
0.0474245
0.0475464
0.0476287
0.0477404
0.0478726
0.0480146
0.0481407
0.0482457
0.048293
0.0482697
0.0481346
0.0478787
0.0474731
0.046983
0.0464478
0.0461412
0.0475099
0.047638
0.0477189
0.04783
0.0479601
0.0481009
0.0482263
0.0483311
0.0483786
0.0483566
0.0482241
0.0479697
0.0475683
0.0470824
0.0465523
0.0462516
0.0476017
0.047738
0.0478169
0.0479266
0.0480537
0.0481923
0.0483156
0.0484191
0.0484658
0.0484443
0.0483142
0.0480607
0.0476637
0.0471824
0.046659
0.0463656
0.0477021
0.0478499
0.047926
0.048033
0.0481556
0.048291
0.04841
0.0485106
0.0485552
0.0485326
0.0484045
0.0481517
0.0477594
0.0472831
0.0467679
0.0464831
0.0478148
0.0479778
0.0480499
0.048153
0.0482694
0.0483996
0.048512
0.0486074
0.0486478
0.0486223
0.0484951
0.0482428
0.0478556
0.0473849
0.0468789
0.0466044
0.0479437
0.0481267
0.0481934
0.0482909
0.048399
0.0485214
0.0486245
0.048712
0.0487455
0.0487148
0.0485865
0.0483337
0.0479516
0.0474869
0.0469914
0.0467291
0.0480941
0.0483027
0.0483625
0.0484525
0.0485495
0.048661
0.0487513
0.0488273
0.0488505
0.0488114
0.0486791
0.048424
0.0480465
0.0475882
0.0471052
0.0468576
0.048272
0.0485125
0.0485637
0.0486439
0.0487267
0.0488237
0.0488971
0.0489574
0.0489656
0.0489141
0.0487738
0.0485135
0.0481395
0.0476874
0.0472191
0.0469895
0.0484843
0.0487637
0.0488046
0.0488725
0.0489374
0.0490157
0.0490676
0.049107
0.0490946
0.0490255
0.0488724
0.048603
0.0482305
0.0477837
0.047332
0.0471241
0.0487387
0.049064
0.0490926
0.0491456
0.0491896
0.0492451
0.0492702
0.0492831
0.0492436
0.0491506
0.048978
0.0486936
0.0483189
0.0478753
0.0474417
0.0472596
0.0490427
0.0494218
0.0494366
0.0494723
0.0494921
0.0495205
0.0495136
0.0494939
0.0494202
0.0492957
0.0490954
0.048789
0.0484057
0.0479611
0.0475465
0.0473936
0.0494049
0.0498447
0.0498444
0.049861
0.0498539
0.0498516
0.0498079
0.0497497
0.0496342
0.0494699
0.0492323
0.0488946
0.0484928
0.0480401
0.0476427
0.0475219
0.0498326
0.050339
0.050323
0.0503192
0.0502837
0.0502481
0.0501642
0.0500628
0.0498988
0.0496864
0.0493999
0.0490185
0.0485841
0.0481097
0.047722
0.0476383
0.0503318
0.0509084
0.0508769
0.0508527
0.0507882
0.0507186
0.0505932
0.0504461
0.0502291
0.049963
0.0496181
0.0491806
0.0486964
0.048179
0.0477791
0.0477295
0.0509062
0.0515522
0.0515061
0.0514624
0.0513708
0.0512685
0.0511028
0.0509113
0.0506415
0.0503216
0.049916
0.0494195
0.0488777
0.0483043
0.0478677
0.0478147
0.0515548
0.0522643
0.0522054
0.0521446
0.0520294
0.051898
0.0516963
0.0514647
0.0511463
0.0507783
0.0503158
0.0497682
0.0491767
0.0485554
0.0480784
0.0479756
0.0522711
0.0530333
0.0529641
0.0528889
0.0527537
0.0525978
0.0523657
0.0520996
0.0517384
0.0513282
0.0508133
0.0502201
0.0495792
0.0489055
0.0483727
0.0481737
0.0530437
0.0538389
0.0537618
0.0536758
0.0535266
0.0533516
0.0530958
0.0528012
0.0524025
0.0519537
0.0513846
0.0507419
0.0500339
0.0492798
0.0486587
0.0483342
0.0538518
0.0546564
0.0545742
0.0544809
0.0543227
0.0541346
0.0538622
0.0535453
0.0531154
0.0526309
0.0520039
0.0513053
0.0505055
0.0496423
0.0489048
0.0484337
0.0546711
0.0554544
0.0553696
0.0552723
0.0551096
0.054914
0.0546324
0.0543
0.0538464
0.0533298
0.0526462
0.0518889
0.050974
0.0499857
0.0490986
0.0484071
0.05547
0.0561954
0.0561098
0.0560112
0.0558491
0.0556514
0.0553677
0.0550267
0.0545582
0.0540145
0.0532814
0.0524663
0.0514259
0.0503131
0.0492317
0.048192
0.0562112
0.0568399
0.0567537
0.056654
0.0564941
0.0562972
0.0560167
0.0556728
0.0551989
0.0546377
0.0538763
0.0530178
0.0518719
0.0506351
0.0492329
0.0476881
0.0568558
0.0573415
0.0572545
0.0571545
0.0570011
0.0568118
0.0565445
0.0562101
0.0557487
0.0551855
0.0544049
0.0534931
0.0522397
0.0508277
0.048937
0.0467809
0.0573577
0.0576928
0.0576109
0.0575175
0.0573668
0.0571757
0.0569102
0.0565709
0.0561071
0.0555217
0.0546882
0.053666
0.0522432
0.0505742
0.0481933
0.0454763
0.0577067
0.0578359
0.0577541
0.0576553
0.0574815
0.0572489
0.0569352
0.0565311
0.0559952
0.0553131
0.0543725
0.0531914
0.051572
0.0496381
0.0469164
0.0438245
0.0578489
0.0575317
0.0574205
0.0572743
0.0570434
0.0567345
0.0563308
0.0558186
0.0551651
0.0543432
0.0532686
0.0519162
0.0501243
0.0479686
0.0450626
0.0418101
0.0575543
0.0564784
0.0563233
0.0561104
0.0558065
0.0554112
0.0549096
0.0542871
0.0535194
0.0525693
0.0513746
0.0498737
0.0479576
0.0456438
0.0427012
0.0394972
0.056517
0.0544635
0.0542762
0.0540136
0.0536519
0.05319
0.0526151
0.0519128
0.0510644
0.0500254
0.0487521
0.0471566
0.0451893
0.0428171
0.039989
0.0370268
0.0545148
0.0514135
0.0512182
0.0509399
0.0505595
0.0500758
0.0494763
0.0487469
0.0478722
0.0468029
0.0455101
0.0438911
0.0419548
0.0396345
0.0370516
0.0344807
0.0514689
0.0474198
0.0472413
0.0469836
0.046628
0.0461721
0.0456009
0.0449007
0.0440564
0.0430184
0.0417682
0.0401999
0.0383724
0.0362043
0.033968
0.031896
0.0474693
0.0427149
0.042567
0.0423515
0.0420489
0.0416553
0.0411512
0.0405235
0.0397551
0.0388002
0.0376459
0.0361945
0.034542
0.0326113
0.0308007
0.0293055
0.0427525
0.0376158
0.0374957
0.0373214
0.0370738
0.0367495
0.0363249
0.035789
0.035121
0.0342828
0.033262
0.0319787
0.0305523
0.0289289
0.0276051
0.0267394
0.037642
0.0324502
0.0323426
0.03219
0.0319751
0.0316994
0.0313378
0.0308848
0.0303166
0.0296061
0.0287369
0.0276549
0.0264905
0.0252298
0.0244362
0.0242251
0.0324706
0.0274928
0.0273809
0.0272249
0.0270104
0.0267461
0.026409
0.0260052
0.0255112
0.0249151
0.0241941
0.0233275
0.022446
0.0215899
0.0213506
0.0217868
0.0275143
0.0229266
0.0228011
0.0226264
0.0223883
0.0221011
0.021745
0.0213431
0.0208789
0.0203613
0.0197627
0.0191042
0.0185105
0.0180845
0.0183998
0.0194403
0.0229531
0.0188376
0.0186986
0.0185053
0.0182411
0.0179196
0.0175192
0.0170803
0.0165983
0.0161097
0.0155877
0.0151047
0.01478
0.0147821
0.015616
0.0171831
0.0188696
0.0152451
0.015097
0.0148942
0.0146195
0.0142809
0.0138482
0.0133679
0.012843
0.0123388
0.0118383
0.0114737
0.0113657
0.0117425
0.0129958
0.0149678
0.0152818
0.0121365
0.0119841
0.0117776
0.011502
0.0111644
0.0107327
0.0102497
0.00970604
0.00918517
0.00868731
0.00839921
0.00843773
0.00905721
0.0105241
0.0127051
0.0121769
0.00942837
0.00927854
0.00906961
0.00878518
0.00844163
0.00804002
0.00765981
0.00723557
0.00683355
0.00646623
0.0063076
0.00642167
0.00700176
0.00830172
0.0103935
0.00946996
0.00713428
0.00701659
0.00684758
0.00660803
0.00632547
0.00603462
0.00582498
0.00560493
0.0054199
0.00527586
0.00527538
0.00541454
0.00580413
0.00665181
0.00828798
0.00716751
0.00549626
0.00542889
0.00533646
0.00520631
0.00506285
0.00491069
0.00477276
0.00463882
0.00456577
0.00454882
0.00465938
0.00486666
0.00524112
0.00575913
0.00675484
0.00551545
0.00446163
0.00441351
0.00435129
0.00427025
0.0041878
0.00409671
0.00400234
0.00392552
0.00391992
0.00398002
0.00416365
0.00443429
0.0048539
0.00530268
0.00591314
0.00447608
0.00365169
0.00361431
0.00356541
0.0035059
0.0034497
0.0034006
0.00337096
0.00336963
0.0034343
0.00356235
0.00378854
0.0040838
0.00449015
0.00494142
0.00548099
0.00366382
0.00297757
0.00295809
0.00293251
0.0029071
0.00288858
0.00288363
0.00290045
0.00295365
0.00306503
0.00323599
0.00348329
0.0037895
0.00417394
0.00460086
0.00510303
0.00298495
0.00245057
0.00244516
0.00243695
0.00243781
0.00244853
0.00248151
0.00253991
0.00263797
0.00278321
0.00298074
0.00323364
0.00353459
0.00388943
0.00428279
0.00472554
0.00245441
0.00203508
0.00204406
0.0020535
0.00208005
0.00211788
0.00218306
0.00227154
0.00239938
0.00256326
0.00277211
0.00301979
0.00330677
0.00362972
0.00398376
0.00437355
0.00203487
0.00171694
0.00173821
0.00176231
0.00180985
0.0018688
0.00195829
0.00206754
0.00221379
0.00238595
0.002596
0.00283186
0.00309927
0.00338957
0.0037037
0.00404192
0.00171308
0.00147595
0.00150776
0.00154417
0.00160852
0.00168327
0.00178944
0.00191071
0.00206561
0.00223793
0.00244203
0.00266222
0.00290754
0.00316634
0.00344234
0.0037346
0.00146868
0.00129724
0.00133716
0.00138274
0.00145891
0.00154385
0.00165967
0.00178616
0.0019427
0.00211
0.00230387
0.00250666
0.00272921
0.00295849
0.00319948
0.00345104
0.00128714
0.00116698
0.00121248
0.00126421
0.00134757
0.00143789
0.00155763
0.00168422
0.00183743
0.00199638
0.00217758
0.00236251
0.00256283
0.00276507
0.00297466
0.00319088
0.00115474
0.00107402
0.00112258
0.00117754
0.00126395
0.00135568
0.00147492
0.00159804
0.0017447
0.00189344
0.00206084
0.00222828
0.00240754
0.00258539
0.00276721
0.00295296
0.00106044
0.00100907
0.00105845
0.00111417
0.0012003
0.00129044
0.00140601
0.00152329
0.00166137
0.00179897
0.00195225
0.00210304
0.00226277
0.00241885
0.00257637
0.00273609
0.000994901
0.000964726
0.00101312
0.00106765
0.00115098
0.00123738
0.00134711
0.00145706
0.00158543
0.00171158
0.00185096
0.00198616
0.002128
0.00226476
0.00240113
0.00253861
0.000950626
0.000935097
0.000981184
0.00103313
0.00111191
0.00119314
0.00129566
0.00139745
0.00151556
0.00163038
0.00175636
0.00187714
0.00200276
0.00212248
0.00224053
0.00235916
0.000921568
0.000915591
0.000958518
0.00100696
0.00108011
0.0011553
0.00124983
0.00134309
0.00145082
0.00155466
0.00166796
0.00177552
0.00188649
0.00199121
0.00209341
0.00219603
0.000902964
0.000902649
0.00094195
0.000986382
0.00105332
0.00112205
0.00120827
0.00129296
0.0013905
0.00148389
0.00158531
0.00168081
0.00177864
0.00187018
0.00195871
0.00204777
0.000891114
0.00089356
0.000929063
0.000969282
0.00102983
0.001092
0.00116992
0.00124626
0.00133398
0.00141755
0.00150795
0.00159252
0.00167858
0.00175859
0.00183534
0.00191295
0.000883191
0.000886295
0.000918035
0.000954064
0.00100831
0.00106408
0.00113395
0.0012023
0.00128074
0.00135518
0.00143545
0.00151015
0.00158571
0.00165561
0.00172222
0.00179015
0.000877087
0.000879371
0.000907522
0.000939532
0.000987768
0.00103743
0.00109967
0.00116052
0.00123029
0.00129634
0.00136735
0.0014332
0.00149942
0.0015605
0.00161839
0.00167816
0.00087127
0.000871747
0.000896558
0.000924816
0.000967442
0.00101141
0.00106654
0.00112046
0.00118223
0.00124063
0.00130325
0.00136117
0.00141913
0.00147251
0.0015229
0.00157579
0.000864668
0.000862725
0.000884489
0.000909307
0.000946791
0.000985528
0.00103414
0.00108171
0.0011362
0.00118767
0.00124273
0.00129362
0.00134426
0.00139097
0.00143493
0.00148202
0.00085657
0.000851878
0.0008709
0.000892613
0.000925444
0.000959448
0.00100215
0.00104399
0.00109188
0.00113714
0.00118544
0.0012301
0.00127432
0.00131523
0.00135369
0.00139593
0.000846546
0.000838983
0.000855564
0.000874507
0.000903176
0.000932942
0.000970326
0.00100704
0.00104902
0.00108876
0.00113104
0.00117022
0.00120881
0.00124472
0.00127846
0.0013166
0.000834375
0.000823971
0.000838398
0.000854893
0.000879873
0.00090588
0.000938535
0.000970693
0.00100742
0.00104228
0.00107925
0.00111363
0.00114731
0.00117891
0.00120863
0.00124335
0.000819995
0.000806887
0.000819425
0.000833776
0.000855508
0.000878209
0.000906687
0.000934838
0.000966917
0.000997497
0.0010298
0.00106001
0.00108942
0.00111732
0.00114362
0.00117547
0.000803457
0.000787851
0.000798743
0.000811227
0.000830119
0.000849936
0.000874749
0.000899399
0.000927403
0.000954252
0.000982476
0.00100908
0.00103479
0.00105954
0.00108293
0.00111239
0.000784891
0.000767038
0.000776502
0.000787372
0.000803794
0.000821109
0.000842726
0.000864339
0.00088879
0.000912412
0.000937093
0.000960595
0.000983131
0.0010052
0.00102612
0.00105359
0.000764479
0.000744655
0.000752885
0.000762368
0.000776651
0.000791812
0.000810655
0.000829652
0.000851023
0.000871872
0.000893495
0.000914352
0.000934168
0.00095397
0.000972809
0.000998623
0.000742438
0.000720928
0.000728097
0.000736392
0.00074883
0.000762144
0.000778593
0.000795351
0.000814065
0.00083255
0.000851551
0.000870173
0.000887682
0.000905601
0.000922707
0.000947171
0.000719002
0.000696094
0.00070235
0.000709633
0.000720483
0.000732224
0.000746611
0.000761462
0.000777895
0.000794379
0.000811143
0.000827889
0.000843451
0.000859809
0.000875466
0.000898808
0.000694413
0.000670393
0.000675864
0.000682286
0.000691772
0.000702174
0.000714791
0.000728027
0.000742506
0.000757308
0.000772174
0.000787362
0.000801298
0.000816384
0.000830856
0.00085331
0.000668918
0.000644064
0.00064886
0.000654549
0.000662862
0.000672126
0.000683222
0.000695093
0.000707903
0.000721297
0.000734559
0.000748466
0.000761052
0.000775116
0.00078863
0.000810386
0.000642764
0.000617348
0.00062156
0.000626623
0.000633921
0.000642216
0.000652002
0.000662717
0.000674099
0.00068632
0.000698229
0.000711095
0.000722575
0.00073584
0.000748601
0.000769842
0.000616196
0.000590485
0.000594188
0.00059871
0.000605125
0.000612585
0.000621234
0.000630966
0.000641118
0.00065236
0.000663129
0.000675158
0.000685745
0.000698408
0.000710607
0.000731505
0.00058946
0.00056372
0.000566972
0.000571019
0.000576654
0.000583384
0.000591031
0.000599912
0.000608994
0.000619412
0.000629214
0.000640574
0.00065045
0.000662683
0.000674494
0.000695203
0.000562806
0.000537302
0.000540149
0.000543767
0.0005487
0.000554772
0.000561521
0.000569645
0.000577775
0.000587482
0.000596451
0.000607277
0.000616598
0.000628555
0.000640148
0.000660831
0.000536488
0.000511493
0.000513965
0.000517183
0.000521469
0.000526926
0.000532845
0.000540267
0.000547524
0.000556592
0.000564821
0.000575209
0.000584097
0.000595906
0.000607438
0.000628249
0.000510771
0.000486562
0.000488682
0.00049151
0.000495183
0.000500039
0.00050517
0.000511904
0.000518329
0.00052678
0.000534319
0.000544322
0.000552868
0.000564631
0.00057626
0.000597362
0.000485931
0.000462798
0.000464576
0.000467011
0.00047009
0.000474332
0.000478686
0.000484708
0.000490303
0.000498111
0.000504965
0.000514584
0.000522836
0.000534625
0.000546502
0.000568063
0.000462257
0.000440499
0.000441944
0.000443971
0.000446461
0.000450053
0.000453625
0.00045887
0.000463605
0.000470687
0.00047681
0.000485983
0.000493937
0.000505775
0.000518042
0.000540237
0.000440053
0.000419976
0.000421094
0.000422691
0.000424594
0.000427486
0.000430255
0.000434629
0.000438445
0.000444661
0.000449953
0.000458542
0.000466125
0.000477973
0.00049075
0.000513764
0.00041963
0.000401542
0.00040234
0.000403488
0.00040481
0.000406947
0.000408895
0.000412281
0.000415105
0.000420262
0.000424575
0.000432349
0.000439397
0.000451117
0.000464474
0.000488474
0.0004013
0.000385504
0.000385999
0.000386684
0.000387446
0.000388784
0.00038991
0.000392192
0.000393956
0.000397822
0.000400972
0.000407594
0.000413836
0.000425162
0.000439073
0.000464145
0.000385367
0.000372147
0.000372367
0.000372596
0.000372844
0.000373367
0.000373707
0.000374798
0.000375472
0.000377805
0.000379597
0.000384617
0.000389639
0.000400103
0.000414362
0.000440489
0.000372114
0.000361706
0.000361694
0.000361496
0.000361308
0.000361047
0.000360697
0.000360579
0.000360211
0.000360826
0.00036111
0.000363979
0.000367188
0.000375921
0.000389846
0.000416945
0.000361769
0.000354308
0.000354119
0.000353551
0.000353035
0.000352078
0.000351198
0.000349961
0.000348736
0.000347615
0.000346442
0.000346708
0.000347535
0.000353177
0.000365224
0.000392685
0.000354454
0.000349979
0.000349683
0.000348823
0.000348126
0.000346615
0.00034545
0.000343307
0.000341601
0.000339024
0.000336901
0.000334707
0.000333399
0.000335007
0.000343318
0.000368526
0.000350189
0.000349771
0.000349426
0.000348352
0.000347593
0.000345673
0.000344426
0.000341617
0.000339764
0.000336117
0.000333604
0.000329537
0.000326848
0.000324445
0.000327098
0.000343127
0.000350026
0.000351228
0.000350872
0.000349716
0.000348953
0.00034687
0.000345624
0.000342541
0.000340672
0.000336571
0.00033394
0.000329035
0.000325762
0.000321326
0.00032081
0.000328922
0.000351501
)
;

boundaryField
{
    wireUpstream
    {
        type            calculated;
        value           nonuniform List<scalar> 
16
(
0.000353052
0.000352716
0.000351489
0.000350789
0.000348557
0.000347419
0.00034407
0.000342333
0.000337764
0.00033519
0.000329392
0.000325715
0.000319279
0.000315825
0.000313612
0.000353337
)
;
    }
    wireDownstream
    {
        type            calculated;
        value           nonuniform List<scalar> 
16
(
0.0447164
0.0447923
0.0448939
0.0450128
0.0451412
0.0452547
0.0453442
0.0453758
0.0453346
0.0451857
0.0449183
0.0445125
0.0440096
0.0434631
0.0431311
0.0446822
)
;
    }
    wireTopContact
    {
        type            calculated;
        value           nonuniform List<scalar> 
122
(
0.043194
0.0432783
0.0433645
0.0434498
0.0435356
0.0436224
0.0437091
0.0437957
0.043883
0.0439705
0.0440576
0.0441449
0.0442329
0.0443212
0.0444094
0.0444975
0.0445861
0.044675
0.044764
0.0448532
0.0449427
0.0450327
0.0451233
0.0452145
0.0453065
0.0453996
0.0454942
0.0455905
0.0456882
0.0457879
0.0458897
0.0459942
0.0461015
0.0462118
0.0463257
0.0464431
0.0465644
0.0466892
0.046818
0.0469503
0.0470856
0.0472221
0.0473575
0.0474878
0.0476081
0.047705
0.0477926
0.047962
0.04817
0.0483356
0.0484408
0.048416
0.0481958
0.0476804
0.0467605
0.0454425
0.0437782
0.0417425
0.0394004
0.0369031
0.0343355
0.0317356
0.0291379
0.0265733
0.0240693
0.0216498
0.0193289
0.0171034
0.014924
0.0126962
0.0104109
0.00831319
0.00676352
0.00591003
0.00548354
0.00510768
0.00472957
0.00437702
0.00404489
0.00373713
0.0034533
0.00319291
0.00295484
0.00273786
0.00254028
0.00236074
0.00219752
0.00204917
0.00191424
0.00179133
0.00167922
0.00157674
0.00148284
0.00139663
0.00131717
0.00124382
0.00117581
0.00111263
0.00105374
0.00099866
0.000947125
0.000898666
0.000853083
0.00081007
0.000769439
0.000731019
0.00069463
0.000660175
0.000627509
0.000596543
0.000567172
0.000539286
0.000512778
0.000487494
0.00046323
0.000439726
0.000416538
0.000393111
0.000370341
0.000346364
0.000332241
0.043101
)
;
    }
    front
    {
        type            wedge;
    }
    back
    {
        type            wedge;
    }
}


// ************************************************************************* //
