/*--------------------------------*- C++ -*----------------------------------*\
| =========                 |                                                 |
| \\      /  F ield         | foam-extend: Open Source CFD                    |
|  \\    /   O peration     | Version:     4.1-20200408                       |
|   \\  /    A nd           | Web:         http://www.foam-extend.org         |
|    \\/     M anipulation  |                                                 |
\*---------------------------------------------------------------------------*/
FoamFile
{
    version     2.0;
    format      ascii;
    class       volScalarField;
    location    "0.0405000";
    object      sigmaCauchyEq;
}
// * * * * * * * * * * * * * * * * * * * * * * * * * * * * * * * * * * * * * //

dimensions      [1 -1 -2 0 0 0 0];

internalField   nonuniform List<scalar> 
1952
(
2.46218e+08
2.36346e+08
2.26936e+08
2.09991e+08
1.89673e+08
1.61496e+08
1.27217e+08
8.39346e+07
5.50092e+07
1.09048e+08
2.17343e+08
3.91679e+08
6.07804e+08
8.91613e+08
1.07285e+09
2.46814e+08
2.44522e+08
2.34708e+08
2.25335e+08
2.08494e+08
1.88225e+08
1.60193e+08
1.2597e+08
8.29448e+07
5.486e+07
1.09927e+08
2.18574e+08
3.92542e+08
6.08638e+08
8.9199e+08
1.07237e+09
2.45123e+08
2.43542e+08
2.33757e+08
2.24397e+08
2.07624e+08
1.87362e+08
1.5943e+08
1.25212e+08
8.236e+07
5.48022e+07
1.1047e+08
2.1935e+08
3.93027e+08
6.09134e+08
8.92411e+08
1.07294e+09
2.44136e+08
2.43073e+08
2.333e+08
2.23936e+08
2.07209e+08
1.86926e+08
1.59062e+08
1.24821e+08
8.20752e+07
5.48386e+07
1.1084e+08
2.19967e+08
3.93352e+08
6.09504e+08
8.92814e+08
1.07329e+09
2.43658e+08
2.43149e+08
2.33376e+08
2.23994e+08
2.07289e+08
1.86963e+08
1.5913e+08
1.24832e+08
8.21125e+07
5.49444e+07
1.11047e+08
2.20402e+08
3.93579e+08
6.09836e+08
8.93336e+08
1.07379e+09
2.43729e+08
2.43609e+08
2.33826e+08
2.24423e+08
2.0772e+08
1.87344e+08
1.59511e+08
1.25142e+08
8.23897e+07
5.50892e+07
1.11121e+08
2.20694e+08
3.93732e+08
6.10147e+08
8.9386e+08
1.07424e+09
2.44187e+08
2.44311e+08
2.34511e+08
2.25078e+08
2.08359e+08
1.87923e+08
1.60064e+08
1.25608e+08
8.27773e+07
5.52447e+07
1.1114e+08
2.20949e+08
3.93872e+08
6.10471e+08
8.94402e+08
1.07471e+09
2.4489e+08
2.45225e+08
2.35402e+08
2.25933e+08
2.09184e+08
1.88678e+08
1.60771e+08
1.26209e+08
8.32665e+07
5.54131e+07
1.11104e+08
2.2117e+08
3.93984e+08
6.10783e+08
8.94916e+08
1.07512e+09
2.45807e+08
2.46318e+08
2.36466e+08
2.26955e+08
2.10165e+08
1.8958e+08
1.61607e+08
1.26928e+08
8.38419e+07
5.5602e+07
1.11036e+08
2.2136e+08
3.94078e+08
6.11075e+08
8.95412e+08
1.0755e+09
2.46905e+08
2.47559e+08
2.37674e+08
2.28116e+08
2.11276e+08
1.90605e+08
1.62552e+08
1.27743e+08
8.44969e+07
5.58202e+07
1.10939e+08
2.21518e+08
3.94146e+08
6.11344e+08
8.95873e+08
1.07583e+09
2.48154e+08
2.48906e+08
2.38985e+08
2.29375e+08
2.12477e+08
1.91714e+08
1.6357e+08
1.28626e+08
8.52041e+07
5.60669e+07
1.10834e+08
2.21661e+08
3.94204e+08
6.11595e+08
8.96309e+08
1.07612e+09
2.49509e+08
2.50348e+08
2.40386e+08
2.30722e+08
2.13759e+08
1.92896e+08
1.64654e+08
1.29565e+08
8.59603e+07
5.63436e+07
1.10722e+08
2.2179e+08
3.94243e+08
6.11826e+08
8.96714e+08
1.07636e+09
2.5096e+08
2.51862e+08
2.41857e+08
2.32133e+08
2.15101e+08
1.94133e+08
1.65785e+08
1.30548e+08
8.67524e+07
5.66494e+07
1.10611e+08
2.21906e+08
3.94279e+08
6.12045e+08
8.97098e+08
1.07656e+09
2.52485e+08
2.53442e+08
2.43391e+08
2.33602e+08
2.16496e+08
1.95416e+08
1.66955e+08
1.31565e+08
8.75737e+07
5.69836e+07
1.10505e+08
2.2202e+08
3.94301e+08
6.12252e+08
8.97459e+08
1.07674e+09
2.54075e+08
2.55082e+08
2.44982e+08
2.35124e+08
2.1794e+08
1.9674e+08
1.68163e+08
1.32613e+08
8.84238e+07
5.73479e+07
1.10404e+08
2.22119e+08
3.94323e+08
6.12454e+08
8.97807e+08
1.0769e+09
2.55728e+08
2.56796e+08
2.46645e+08
2.36712e+08
2.19446e+08
1.98119e+08
1.69419e+08
1.33704e+08
8.93085e+07
5.7746e+07
1.10316e+08
2.22213e+08
3.94329e+08
6.12647e+08
8.98148e+08
1.07704e+09
2.57455e+08
2.58584e+08
2.48378e+08
2.38365e+08
2.21012e+08
1.99547e+08
1.70721e+08
1.3483e+08
9.02273e+07
5.81838e+07
1.1024e+08
2.22275e+08
3.9434e+08
6.12854e+08
8.98494e+08
1.07719e+09
2.59258e+08
2.60451e+08
2.50187e+08
2.40087e+08
2.22644e+08
2.0103e+08
1.72072e+08
1.35996e+08
9.11778e+07
5.86599e+07
1.10195e+08
2.22344e+08
3.94336e+08
6.13065e+08
8.98851e+08
1.07733e+09
2.6114e+08
2.62418e+08
2.52092e+08
2.41898e+08
2.24357e+08
2.02584e+08
1.73486e+08
1.37207e+08
9.21703e+07
5.91903e+07
1.10183e+08
2.22385e+08
3.94345e+08
6.13322e+08
8.99231e+08
1.07751e+09
2.63124e+08
2.64509e+08
2.54118e+08
2.43822e+08
2.26179e+08
2.04232e+08
1.7499e+08
1.38489e+08
9.32342e+07
5.97832e+07
1.10193e+08
2.22433e+08
3.94352e+08
6.136e+08
8.99651e+08
1.07772e+09
2.65233e+08
2.66741e+08
2.56279e+08
2.45877e+08
2.28123e+08
2.05998e+08
1.76596e+08
1.39871e+08
9.43828e+07
6.04015e+07
1.10249e+08
2.22362e+08
3.94365e+08
6.13901e+08
9.00117e+08
1.07797e+09
2.67485e+08
2.69151e+08
2.58613e+08
2.48098e+08
2.30222e+08
2.0791e+08
1.78331e+08
1.41372e+08
9.56352e+07
6.10916e+07
1.10332e+08
2.2228e+08
3.94382e+08
6.14232e+08
9.00638e+08
1.07828e+09
2.69914e+08
2.71755e+08
2.61138e+08
2.505e+08
2.32497e+08
2.09979e+08
1.80216e+08
1.42999e+08
9.7008e+07
6.18965e+07
1.10429e+08
2.22195e+08
3.9443e+08
6.14645e+08
9.01227e+08
1.07869e+09
2.72539e+08
2.74539e+08
2.63838e+08
2.53067e+08
2.34931e+08
2.12191e+08
1.82234e+08
1.44737e+08
9.84799e+07
6.2778e+07
1.10546e+08
2.22144e+08
3.94527e+08
6.15128e+08
9.01909e+08
1.0792e+09
2.75345e+08
2.7754e+08
2.66753e+08
2.55838e+08
2.37562e+08
2.14582e+08
1.84417e+08
1.46619e+08
1.00073e+08
6.37542e+07
1.10685e+08
2.22104e+08
3.94674e+08
6.15689e+08
9.02704e+08
1.07986e+09
2.78372e+08
2.80775e+08
2.699e+08
2.58828e+08
2.4041e+08
2.1717e+08
1.86788e+08
1.48664e+08
1.01812e+08
6.48497e+07
1.1085e+08
2.22096e+08
3.9488e+08
6.16348e+08
9.03634e+08
1.08069e+09
2.81633e+08
2.84226e+08
2.73263e+08
2.62025e+08
2.43463e+08
2.19948e+08
1.89338e+08
1.50872e+08
1.03692e+08
6.6059e+07
1.11045e+08
2.2212e+08
3.95158e+08
6.17119e+08
9.04727e+08
1.08172e+09
2.85112e+08
2.87895e+08
2.76847e+08
2.65434e+08
2.46729e+08
2.22925e+08
1.92081e+08
1.53253e+08
1.05724e+08
6.73928e+07
1.11275e+08
2.22183e+08
3.95518e+08
6.1802e+08
9.06007e+08
1.08299e+09
2.88811e+08
2.91748e+08
2.80622e+08
2.69028e+08
2.50187e+08
2.26087e+08
1.95003e+08
1.55804e+08
1.07908e+08
6.885e+07
1.11531e+08
2.22284e+08
3.95965e+08
6.19066e+08
9.07509e+08
1.08455e+09
2.92694e+08
2.95734e+08
2.84541e+08
2.72766e+08
2.538e+08
2.29405e+08
1.98082e+08
1.58505e+08
1.10226e+08
7.04146e+07
1.11814e+08
2.22426e+08
3.96513e+08
6.20281e+08
9.09261e+08
1.08645e+09
2.9671e+08
2.99763e+08
2.8852e+08
2.76571e+08
2.575e+08
2.32821e+08
2.01268e+08
1.61319e+08
1.12644e+08
7.20569e+07
1.121e+08
2.22602e+08
3.97167e+08
6.21681e+08
9.11305e+08
1.08873e+09
3.00767e+08
3.03708e+08
2.92441e+08
2.80334e+08
2.6119e+08
2.36253e+08
2.0449e+08
1.64186e+08
1.15106e+08
7.37183e+07
1.12375e+08
2.22801e+08
3.97934e+08
6.23285e+08
9.13668e+08
1.09145e+09
3.04738e+08
3.07382e+08
2.96125e+08
2.83888e+08
2.64718e+08
2.39568e+08
2.07627e+08
1.67005e+08
1.17515e+08
7.53146e+07
1.12592e+08
2.23007e+08
3.98824e+08
6.25107e+08
9.16394e+08
1.09467e+09
3.08431e+08
3.10531e+08
2.99334e+08
2.87011e+08
2.67882e+08
2.42591e+08
2.10526e+08
1.69652e+08
1.1975e+08
7.67174e+07
1.12708e+08
2.23204e+08
3.99829e+08
6.27171e+08
9.19501e+08
1.09845e+09
3.11591e+08
3.12812e+08
3.01737e+08
2.89396e+08
2.70401e+08
2.45066e+08
2.1297e+08
1.7193e+08
1.21626e+08
7.77653e+07
1.1265e+08
2.2334e+08
4.00906e+08
6.29469e+08
9.23e+08
1.10285e+09
3.13869e+08
3.13781e+08
3.02911e+08
2.90644e+08
2.71908e+08
2.46666e+08
2.14673e+08
1.73581e+08
1.22914e+08
7.82396e+07
1.12311e+08
2.23351e+08
4.02021e+08
6.31965e+08
9.269e+08
1.10791e+09
3.14815e+08
3.12888e+08
3.02324e+08
2.90261e+08
2.7194e+08
2.46979e+08
2.15259e+08
1.74282e+08
1.23321e+08
7.78297e+07
1.11515e+08
2.23155e+08
4.03135e+08
6.34611e+08
9.31226e+08
1.11367e+09
3.13871e+08
3.09422e+08
2.9929e+08
2.87608e+08
2.69903e+08
2.45479e+08
2.14259e+08
1.73628e+08
1.22486e+08
7.61484e+07
1.10094e+08
2.22676e+08
4.04184e+08
6.37369e+08
9.3594e+08
1.12016e+09
3.10313e+08
3.02486e+08
2.92941e+08
2.81879e+08
2.65048e+08
2.41498e+08
2.11091e+08
1.71107e+08
1.1996e+08
7.27247e+07
1.07906e+08
2.21818e+08
4.05058e+08
6.40132e+08
9.40984e+08
1.1274e+09
3.03227e+08
2.91065e+08
2.82301e+08
2.72182e+08
2.56557e+08
2.34327e+08
2.05156e+08
1.66225e+08
1.15358e+08
6.7153e+07
1.04914e+08
2.20509e+08
4.05644e+08
6.42758e+08
9.46248e+08
1.13535e+09
2.91571e+08
2.73962e+08
2.66224e+08
2.57494e+08
2.43519e+08
2.23214e+08
1.95868e+08
1.58561e+08
1.08486e+08
5.93084e+07
1.01417e+08
2.18788e+08
4.05837e+08
6.45063e+08
9.51571e+08
1.14394e+09
2.74105e+08
2.49833e+08
2.43452e+08
2.36758e+08
2.25047e+08
2.07526e+08
1.82866e+08
1.48051e+08
9.98095e+07
5.03128e+07
9.85398e+07
2.16973e+08
4.05595e+08
6.46823e+08
9.56708e+08
1.15301e+09
2.49406e+08
2.17285e+08
2.12755e+08
2.09125e+08
2.00604e+08
1.87179e+08
1.66553e+08
1.35703e+08
9.16544e+07
4.55792e+07
9.90229e+07
2.15949e+08
4.0506e+08
6.47795e+08
9.61308e+08
1.16232e+09
2.15924e+08
1.75099e+08
1.73309e+08
1.74604e+08
1.70846e+08
1.63709e+08
1.49387e+08
1.25178e+08
9.03374e+07
5.67086e+07
1.07799e+08
2.17701e+08
4.04839e+08
6.4788e+08
9.64982e+08
1.17146e+09
1.72052e+08
1.23089e+08
1.26136e+08
1.36305e+08
1.40212e+08
1.43017e+08
1.38528e+08
1.25079e+08
1.05872e+08
8.872e+07
1.30647e+08
2.25884e+08
4.06426e+08
6.47358e+08
9.67373e+08
1.17977e+09
1.16329e+08
6.80244e+07
8.21307e+07
1.08489e+08
1.23649e+08
1.39652e+08
1.47459e+08
1.47082e+08
1.44267e+08
1.38842e+08
1.71477e+08
2.45929e+08
4.12613e+08
6.46885e+08
9.67833e+08
1.18631e+09
4.86119e+07
6.95426e+07
9.05832e+07
1.24904e+08
1.46552e+08
1.70872e+08
1.87282e+08
1.96581e+08
2.04879e+08
2.06191e+08
2.32263e+08
2.84615e+08
4.28697e+08
6.48113e+08
9.64758e+08
1.18931e+09
4.31146e+07
1.52616e+08
1.66548e+08
1.93379e+08
2.13128e+08
2.37891e+08
2.57071e+08
2.71198e+08
2.85688e+08
2.91324e+08
3.1432e+08
3.4902e+08
4.65558e+08
6.59194e+08
9.60507e+08
1.18598e+09
1.39867e+08
2.62165e+08
2.72116e+08
2.92821e+08
3.09241e+08
3.31761e+08
3.50722e+08
3.66818e+08
3.84626e+08
3.93748e+08
4.16877e+08
4.42007e+08
5.36491e+08
7.00556e+08
9.76178e+08
1.18612e+09
2.53483e+08
3.87153e+08
3.94795e+08
4.11424e+08
4.25036e+08
4.44993e+08
4.62612e+08
4.79204e+08
4.98384e+08
5.10097e+08
5.34234e+08
5.55255e+08
6.36896e+08
7.77853e+08
1.02806e+09
1.21259e+09
3.80428e+08
5.23021e+08
5.29132e+08
5.42821e+08
5.5418e+08
5.71715e+08
5.87522e+08
6.03692e+08
6.22599e+08
6.35502e+08
6.59028e+08
6.76265e+08
7.47228e+08
8.66473e+08
1.08811e+09
1.23874e+09
5.17536e+08
6.64963e+08
6.69974e+08
6.81357e+08
6.90869e+08
7.06142e+08
7.1993e+08
7.35062e+08
7.52417e+08
7.65268e+08
7.86092e+08
7.98493e+08
8.57786e+08
9.53311e+08
1.14191e+09
1.255e+09
6.60419e+08
8.07146e+08
8.11313e+08
8.20758e+08
8.28712e+08
8.41838e+08
8.53544e+08
8.6725e+08
8.82225e+08
8.9424e+08
9.10655e+08
9.17761e+08
9.64183e+08
1.03451e+09
1.18759e+09
1.26084e+09
8.03406e+08
9.42697e+08
9.46161e+08
9.53868e+08
9.60452e+08
9.71467e+08
9.81144e+08
9.93164e+08
1.00541e+09
1.01613e+09
1.02736e+09
1.03005e+09
1.0629e+09
1.10839e+09
1.22319e+09
1.26083e+09
9.39703e+08
1.06389e+09
1.06666e+09
1.07266e+09
1.07791e+09
1.0867e+09
1.09437e+09
1.10438e+09
1.11387e+09
1.12313e+09
1.12957e+09
1.13018e+09
1.15029e+09
1.17582e+09
1.25014e+09
1.26077e+09
1.06163e+09
1.16203e+09
1.16399e+09
1.16814e+09
1.17187e+09
1.17816e+09
1.1838e+09
1.19157e+09
1.19882e+09
1.20724e+09
1.21109e+09
1.21287e+09
1.22318e+09
1.23563e+09
1.26142e+09
1.26063e+09
1.16056e+09
1.22982e+09
1.2311e+09
1.23369e+09
1.2363e+09
1.24059e+09
1.24497e+09
1.25109e+09
1.25716e+09
1.26391e+09
1.26374e+09
1.26345e+09
1.26295e+09
1.26225e+09
1.26135e+09
1.26038e+09
1.22899e+09
1.26381e+09
1.26383e+09
1.26387e+09
1.26391e+09
1.26395e+09
1.26399e+09
1.26401e+09
1.26398e+09
1.2639e+09
1.26369e+09
1.26338e+09
1.26284e+09
1.26211e+09
1.26111e+09
1.26002e+09
1.26379e+09
1.26377e+09
1.26378e+09
1.2638e+09
1.26383e+09
1.26385e+09
1.26386e+09
1.26385e+09
1.26378e+09
1.26365e+09
1.26341e+09
1.26304e+09
1.26246e+09
1.26169e+09
1.26066e+09
1.25953e+09
1.26375e+09
1.26353e+09
1.26353e+09
1.26354e+09
1.26354e+09
1.26353e+09
1.2635e+09
1.26344e+09
1.26333e+09
1.26314e+09
1.26285e+09
1.26243e+09
1.26181e+09
1.26102e+09
1.26e+09
1.25892e+09
1.26352e+09
1.26305e+09
1.26304e+09
1.26302e+09
1.263e+09
1.26296e+09
1.26289e+09
1.26279e+09
1.26262e+09
1.26239e+09
1.26205e+09
1.26159e+09
1.26095e+09
1.26016e+09
1.2592e+09
1.25823e+09
1.26304e+09
1.26229e+09
1.26227e+09
1.26224e+09
1.26219e+09
1.26213e+09
1.26203e+09
1.26189e+09
1.26169e+09
1.26143e+09
1.26106e+09
1.26058e+09
1.25995e+09
1.25918e+09
1.25833e+09
1.2575e+09
1.26229e+09
1.26127e+09
1.26125e+09
1.26121e+09
1.26115e+09
1.26107e+09
1.26095e+09
1.26079e+09
1.26058e+09
1.2603e+09
1.25993e+09
1.25944e+09
1.25885e+09
1.25815e+09
1.25742e+09
1.25677e+09
1.26128e+09
1.26005e+09
1.26002e+09
1.25998e+09
1.25991e+09
1.25982e+09
1.25969e+09
1.25953e+09
1.25932e+09
1.25904e+09
1.25868e+09
1.25822e+09
1.25769e+09
1.25707e+09
1.25649e+09
1.25603e+09
1.26006e+09
1.2587e+09
1.25867e+09
1.25862e+09
1.25854e+09
1.25845e+09
1.25832e+09
1.25816e+09
1.25795e+09
1.25769e+09
1.25736e+09
1.25695e+09
1.25649e+09
1.25598e+09
1.25556e+09
1.2553e+09
1.25871e+09
1.25731e+09
1.25727e+09
1.25721e+09
1.25713e+09
1.25703e+09
1.2569e+09
1.25674e+09
1.25654e+09
1.2563e+09
1.256e+09
1.25565e+09
1.25528e+09
1.25489e+09
1.25465e+09
1.25458e+09
1.25732e+09
1.25595e+09
1.2559e+09
1.25583e+09
1.25573e+09
1.25562e+09
1.25548e+09
1.25532e+09
1.25513e+09
1.2549e+09
1.25465e+09
1.25436e+09
1.25408e+09
1.25383e+09
1.25376e+09
1.2539e+09
1.25596e+09
1.25466e+09
1.2546e+09
1.25452e+09
1.25441e+09
1.25429e+09
1.25414e+09
1.25397e+09
1.25377e+09
1.25356e+09
1.25333e+09
1.2531e+09
1.25292e+09
1.2528e+09
1.25292e+09
1.25324e+09
1.25467e+09
1.25347e+09
1.25341e+09
1.25333e+09
1.25321e+09
1.25308e+09
1.25292e+09
1.25275e+09
1.25254e+09
1.25233e+09
1.25211e+09
1.25193e+09
1.25182e+09
1.25184e+09
1.25211e+09
1.2526e+09
1.25349e+09
1.2524e+09
1.25234e+09
1.25226e+09
1.25215e+09
1.25201e+09
1.25185e+09
1.25167e+09
1.25146e+09
1.25126e+09
1.25106e+09
1.25092e+09
1.25087e+09
1.25098e+09
1.25135e+09
1.25195e+09
1.25242e+09
1.25143e+09
1.25138e+09
1.25131e+09
1.25121e+09
1.25108e+09
1.25093e+09
1.25075e+09
1.25056e+09
1.25042e+09
1.2503e+09
1.25022e+09
1.25021e+09
1.25032e+09
1.25067e+09
1.25127e+09
1.25145e+09
1.25057e+09
1.25053e+09
1.25049e+09
1.25042e+09
1.25034e+09
1.25023e+09
1.25011e+09
1.24899e+09
1.20042e+09
1.16042e+09
1.14371e+09
1.15366e+09
1.21382e+09
1.25017e+09
1.25065e+09
1.25057e+09
1.24351e+09
1.22997e+09
1.21138e+09
1.18461e+09
1.15275e+09
1.1135e+09
1.0743e+09
1.03815e+09
1.01233e+09
9.95013e+08
1.00149e+09
1.02897e+09
1.0927e+09
1.19015e+09
1.25019e+09
1.24721e+09
1.01675e+09
1.00553e+09
9.90658e+08
9.70559e+08
9.48703e+08
9.24492e+08
9.03782e+08
8.86464e+08
8.74175e+08
8.72661e+08
8.95628e+08
9.37879e+08
1.01224e+09
1.09682e+09
1.21493e+09
1.01998e+09
8.48313e+08
8.38959e+08
8.26543e+08
8.10464e+08
7.93737e+08
7.76834e+08
7.64815e+08
7.59034e+08
7.62914e+08
7.77635e+08
8.12218e+08
8.62457e+08
9.3713e+08
1.02406e+09
1.1293e+09
8.51151e+08
6.99512e+08
6.93476e+08
6.85565e+08
6.7628e+08
6.67752e+08
6.61199e+08
6.59965e+08
6.65296e+08
6.79489e+08
7.04687e+08
7.458e+08
8.00264e+08
8.72175e+08
9.5492e+08
1.05365e+09
7.01494e+08
5.84435e+08
5.81178e+08
5.76816e+08
5.72881e+08
5.70455e+08
5.71547e+08
5.78049e+08
5.91838e+08
6.14132e+08
6.46549e+08
6.90931e+08
7.46168e+08
8.13671e+08
8.90481e+08
9.77963e+08
5.85741e+08
4.91035e+08
4.90655e+08
4.89936e+08
4.91312e+08
4.94715e+08
5.02736e+08
5.15752e+08
5.36005e+08
5.6328e+08
5.99496e+08
6.44438e+08
6.98173e+08
7.60322e+08
8.29808e+08
9.07183e+08
4.91559e+08
4.18908e+08
4.20994e+08
4.23298e+08
4.29001e+08
4.3691e+08
4.50101e+08
4.6763e+08
4.92115e+08
5.22153e+08
5.59865e+08
6.03692e+08
6.54513e+08
7.10913e+08
7.72869e+08
8.40279e+08
4.18731e+08
3.62895e+08
3.67108e+08
3.71975e+08
3.8122e+08
3.92634e+08
4.09622e+08
4.3014e+08
4.57078e+08
4.88104e+08
5.25613e+08
5.67223e+08
6.1435e+08
6.6501e+08
7.19686e+08
7.78188e+08
3.62065e+08
3.20415e+08
3.26291e+08
3.33109e+08
3.44938e+08
3.58744e+08
3.78133e+08
4.00246e+08
4.28173e+08
4.58952e+08
4.95171e+08
5.33972e+08
5.7708e+08
6.22239e+08
6.70179e+08
7.20737e+08
3.1904e+08
2.88399e+08
2.9548e+08
3.03678e+08
3.17227e+08
3.32486e+08
3.53151e+08
3.75813e+08
4.03669e+08
4.33374e+08
4.67631e+08
5.03343e+08
5.42389e+08
5.82426e+08
6.24275e+08
6.67899e+08
2.866e+08
2.64616e+08
2.72442e+08
2.81474e+08
2.9595e+08
3.1186e+08
3.32886e+08
3.55306e+08
3.8234e+08
4.10454e+08
4.42378e+08
4.7494e+08
5.10057e+08
5.45418e+08
5.81854e+08
6.1948e+08
2.62526e+08
2.47074e+08
2.55243e+08
2.64641e+08
2.79394e+08
2.95334e+08
3.16041e+08
3.37673e+08
3.63392e+08
3.89619e+08
4.19041e+08
4.48518e+08
4.79931e+08
5.11073e+08
5.42739e+08
5.75204e+08
2.44824e+08
2.34223e+08
2.42397e+08
2.51782e+08
2.66307e+08
2.81811e+08
3.01714e+08
3.22192e+08
3.46288e+08
3.70485e+08
3.97366e+08
4.23902e+08
4.51885e+08
4.79257e+08
5.06754e+08
5.34803e+08
2.31926e+08
2.24797e+08
2.32722e+08
2.4181e+08
2.55739e+08
2.70486e+08
2.8926e+08
3.08362e+08
3.30665e+08
3.52791e+08
3.77179e+08
4.00958e+08
4.258e+08
4.49822e+08
4.7369e+08
4.97974e+08
2.22544e+08
2.17811e+08
2.25307e+08
2.33902e+08
2.4699e+08
2.60772e+08
2.78218e+08
2.95824e+08
3.16264e+08
3.36347e+08
3.5834e+08
3.79566e+08
4.01558e+08
4.22615e+08
4.43332e+08
4.64406e+08
2.15667e+08
2.12491e+08
2.19449e+08
2.27428e+08
2.39529e+08
2.52228e+08
2.68244e+08
2.84311e+08
3.02888e+08
3.21001e+08
3.40733e+08
3.59617e+08
3.79037e+08
3.97483e+08
4.15476e+08
4.3383e+08
2.10498e+08
2.08248e+08
2.14611e+08
2.21911e+08
2.32954e+08
2.44523e+08
2.59079e+08
2.73619e+08
2.9038e+08
3.06629e+08
3.2425e+08
3.40999e+08
3.58108e+08
3.74256e+08
3.8989e+08
4.05927e+08
2.06429e+08
2.04635e+08
2.10384e+08
2.16986e+08
2.2696e+08
2.374e+08
2.50517e+08
2.63584e+08
2.78613e+08
2.93118e+08
3.0879e+08
3.23607e+08
3.3865e+08
3.52786e+08
3.66387e+08
3.80469e+08
2.02996e+08
2.01321e+08
2.06469e+08
2.12384e+08
2.21316e+08
2.30664e+08
2.42402e+08
2.54074e+08
2.67477e+08
2.8037e+08
2.94256e+08
3.07334e+08
3.20536e+08
3.32907e+08
3.44753e+08
3.57175e+08
1.99861e+08
1.98069e+08
2.02646e+08
2.07906e+08
2.15851e+08
2.24168e+08
2.3461e+08
2.44982e+08
2.56878e+08
2.68299e+08
2.80562e+08
2.92082e+08
3.0365e+08
3.1448e+08
3.24815e+08
3.35835e+08
1.9678e+08
1.94716e+08
1.98761e+08
2.03413e+08
2.1044e+08
2.17802e+08
2.27044e+08
2.36223e+08
2.46739e+08
2.56824e+08
2.67623e+08
2.77757e+08
2.8788e+08
2.97369e+08
3.06406e+08
3.16241e+08
1.93584e+08
1.91155e+08
1.94714e+08
1.98808e+08
2.04997e+08
2.11487e+08
2.19634e+08
2.27729e+08
2.36994e+08
2.45879e+08
2.55366e+08
2.64272e+08
2.73123e+08
2.81448e+08
2.89367e+08
2.98198e+08
1.90165e+08
1.87321e+08
1.90443e+08
1.94035e+08
1.99465e+08
2.0517e+08
2.12327e+08
2.19449e+08
2.27589e+08
2.35404e+08
2.43723e+08
2.51548e+08
2.59283e+08
2.66601e+08
2.73566e+08
2.81554e+08
1.86459e+08
1.83186e+08
1.85917e+08
1.8906e+08
1.93814e+08
1.98816e+08
2.05089e+08
2.11344e+08
2.18481e+08
2.25348e+08
2.32633e+08
2.3951e+08
2.4627e+08
2.52717e+08
2.58861e+08
2.66134e+08
1.82437e+08
1.78742e+08
1.81128e+08
1.83875e+08
1.88028e+08
1.9241e+08
1.97898e+08
2.03387e+08
2.09635e+08
2.15669e+08
2.22045e+08
2.28095e+08
2.34006e+08
2.39707e+08
2.45151e+08
2.51825e+08
1.78091e+08
1.74e+08
1.76082e+08
1.78482e+08
1.82107e+08
1.85945e+08
1.90741e+08
1.95559e+08
2.01025e+08
2.06332e+08
2.11911e+08
2.17245e+08
2.22421e+08
2.27481e+08
2.32328e+08
2.38497e+08
1.73436e+08
1.68983e+08
1.70801e+08
1.72898e+08
1.76062e+08
1.79425e+08
1.83616e+08
1.87849e+08
1.92632e+08
1.97308e+08
2.02194e+08
2.0691e+08
2.11452e+08
2.15966e+08
2.20305e+08
2.26051e+08
1.68493e+08
1.63723e+08
1.6531e+08
1.67146e+08
1.69907e+08
1.72861e+08
1.76524e+08
1.80253e+08
1.84442e+08
1.88574e+08
1.9286e+08
1.97048e+08
2.01045e+08
2.05097e+08
2.09006e+08
2.144e+08
1.63296e+08
1.58252e+08
1.59641e+08
1.61253e+08
1.63666e+08
1.66267e+08
1.69474e+08
1.72769e+08
1.76444e+08
1.80112e+08
1.83882e+08
1.87621e+08
1.91152e+08
1.94814e+08
1.98359e+08
2.0346e+08
1.5788e+08
1.52611e+08
1.53828e+08
1.55248e+08
1.57361e+08
1.59661e+08
1.62474e+08
1.654e+08
1.68633e+08
1.71906e+08
1.75235e+08
1.78596e+08
1.81733e+08
1.8507e+08
1.88312e+08
1.93171e+08
1.52285e+08
1.46838e+08
1.47907e+08
1.49163e+08
1.51019e+08
1.53062e+08
1.55537e+08
1.5815e+08
1.61005e+08
1.63945e+08
1.66898e+08
1.69943e+08
1.72749e+08
1.75818e+08
1.78806e+08
1.83468e+08
1.4655e+08
1.40972e+08
1.41914e+08
1.43032e+08
1.44665e+08
1.46491e+08
1.48676e+08
1.51024e+08
1.53556e+08
1.56219e+08
1.58855e+08
1.6164e+08
1.64169e+08
1.67021e+08
1.69802e+08
1.74304e+08
1.40717e+08
1.35054e+08
1.35886e+08
1.36886e+08
1.38328e+08
1.3997e+08
1.41906e+08
1.44032e+08
1.46289e+08
1.4872e+08
1.51089e+08
1.53662e+08
1.55964e+08
1.58643e+08
1.61257e+08
1.65636e+08
1.34827e+08
1.29123e+08
1.2986e+08
1.30759e+08
1.32035e+08
1.33521e+08
1.35242e+08
1.37181e+08
1.39202e+08
1.41443e+08
1.43589e+08
1.4599e+08
1.48108e+08
1.50654e+08
1.53137e+08
1.57425e+08
1.28919e+08
1.2322e+08
1.23874e+08
1.24685e+08
1.25817e+08
1.27167e+08
1.28702e+08
1.30482e+08
1.32301e+08
1.34384e+08
1.36342e+08
1.38609e+08
1.40578e+08
1.43026e+08
1.45414e+08
1.49641e+08
1.23037e+08
1.17387e+08
1.17967e+08
1.18701e+08
1.19704e+08
1.20936e+08
1.22305e+08
1.23947e+08
1.2559e+08
1.27541e+08
1.2934e+08
1.31501e+08
1.33355e+08
1.35736e+08
1.38059e+08
1.42256e+08
1.17222e+08
1.11669e+08
1.1218e+08
1.12844e+08
1.1373e+08
1.14854e+08
1.16072e+08
1.17592e+08
1.19076e+08
1.20914e+08
1.22577e+08
1.24656e+08
1.26421e+08
1.28763e+08
1.31053e+08
1.35248e+08
1.1152e+08
1.06111e+08
1.06559e+08
1.07156e+08
1.07931e+08
1.08952e+08
1.10031e+08
1.11434e+08
1.12772e+08
1.14506e+08
1.16047e+08
1.1806e+08
1.19759e+08
1.22085e+08
1.24371e+08
1.28595e+08
1.05978e+08
1.00765e+08
1.01152e+08
1.01681e+08
1.0235e+08
1.03268e+08
1.0421e+08
1.05497e+08
1.06692e+08
1.08325e+08
1.0975e+08
1.11706e+08
1.13352e+08
1.15682e+08
1.17995e+08
1.22279e+08
1.00647e+08
9.56834e+07
9.60096e+07
9.64693e+07
9.70331e+07
9.78423e+07
9.86471e+07
9.9809e+07
1.00858e+08
1.02382e+08
1.0369e+08
1.05585e+08
1.07189e+08
1.09535e+08
1.11903e+08
1.16282e+08
9.55816e+07
9.09246e+07
9.11902e+07
9.15755e+07
9.20323e+07
9.27232e+07
9.33859e+07
9.44073e+07
9.53015e+07
9.66961e+07
9.78746e+07
9.96967e+07
1.01254e+08
1.03621e+08
1.06074e+08
1.10581e+08
9.08401e+07
8.65492e+07
8.67539e+07
8.70588e+07
8.74067e+07
8.79665e+07
8.848e+07
8.93389e+07
9.00626e+07
9.1298e+07
9.23245e+07
9.40438e+07
9.55396e+07
9.79193e+07
1.0048e+08
1.05154e+08
8.64833e+07
8.26196e+07
8.27639e+07
8.29827e+07
8.32205e+07
8.36357e+07
8.39932e+07
8.46633e+07
8.51985e+07
8.62329e+07
8.7075e+07
8.86435e+07
9.0044e+07
9.24091e+07
9.50928e+07
9.99684e+07
8.25736e+07
7.91978e+07
7.92839e+07
7.94127e+07
7.95426e+07
7.98017e+07
8.00003e+07
8.04547e+07
8.07845e+07
8.15678e+07
8.21855e+07
8.35338e+07
8.47832e+07
8.70807e+07
8.98837e+07
9.49793e+07
7.91725e+07
7.63422e+07
7.6375e+07
7.64136e+07
7.64432e+07
7.65407e+07
7.65852e+07
7.6803e+07
7.69177e+07
7.73972e+07
7.77477e+07
7.87824e+07
7.97964e+07
8.19333e+07
8.48171e+07
9.01304e+07
7.63375e+07
7.41017e+07
7.40891e+07
7.40426e+07
7.39863e+07
7.39268e+07
7.38339e+07
7.38082e+07
7.37144e+07
7.38477e+07
7.38959e+07
7.45009e+07
7.51563e+07
7.69578e+07
7.9791e+07
8.53108e+07
7.41162e+07
7.25029e+07
7.24556e+07
7.23346e+07
7.22138e+07
7.20136e+07
7.1815e+07
7.15616e+07
7.12941e+07
7.10728e+07
7.08236e+07
7.08981e+07
7.10702e+07
7.22525e+07
7.47211e+07
8.03404e+07
7.2534e+07
7.15527e+07
7.14849e+07
7.1305e+07
7.1149e+07
7.08363e+07
7.05815e+07
7.01428e+07
6.9778e+07
6.92564e+07
6.8811e+07
6.83772e+07
6.81079e+07
6.84621e+07
7.01731e+07
7.53531e+07
7.15967e+07
7.14671e+07
7.13904e+07
7.11676e+07
7.1001e+07
7.06054e+07
7.03363e+07
6.97612e+07
6.93684e+07
6.86269e+07
6.81026e+07
6.72821e+07
6.67288e+07
6.62576e+07
6.68126e+07
7.01308e+07
7.15203e+07
7.17511e+07
7.16729e+07
7.14334e+07
7.12672e+07
7.08386e+07
7.05709e+07
6.994e+07
6.95453e+07
6.87105e+07
6.81631e+07
6.71703e+07
6.64978e+07
6.56084e+07
6.55136e+07
6.72122e+07
7.18079e+07
)
;

boundaryField
{
    wireUpstream
    {
        type            calculated;
        value           nonuniform List<scalar> 
16
(
7.21124e+07
7.20389e+07
7.1785e+07
7.16328e+07
7.11736e+07
7.09296e+07
7.02439e+07
6.98776e+07
6.89463e+07
6.84118e+07
6.72347e+07
6.64807e+07
6.51811e+07
6.44835e+07
6.40521e+07
7.21717e+07
)
;
    }
    wireDownstream
    {
        type            calculated;
        value           nonuniform List<scalar> 
16
(
2.46303e+08
2.36424e+08
2.27015e+08
2.10059e+08
1.89742e+08
1.61551e+08
1.27267e+08
8.3964e+07
5.49586e+07
1.08972e+08
2.17239e+08
3.91612e+08
6.07824e+08
8.91981e+08
1.07431e+09
2.46898e+08
)
;
    }
    wireTopContact
    {
        type            calculated;
        value           nonuniform List<scalar> 
122
(
1.07225e+09
1.07281e+09
1.07313e+09
1.07363e+09
1.07408e+09
1.07453e+09
1.07494e+09
1.07531e+09
1.07562e+09
1.0759e+09
1.07612e+09
1.07632e+09
1.07648e+09
1.07662e+09
1.07675e+09
1.07688e+09
1.07701e+09
1.07717e+09
1.07737e+09
1.07761e+09
1.07791e+09
1.0783e+09
1.0788e+09
1.07944e+09
1.08025e+09
1.08126e+09
1.08252e+09
1.08406e+09
1.08593e+09
1.08819e+09
1.09088e+09
1.09407e+09
1.09782e+09
1.10219e+09
1.10722e+09
1.11297e+09
1.11945e+09
1.12669e+09
1.13466e+09
1.1433e+09
1.15248e+09
1.16195e+09
1.17134e+09
1.17996e+09
1.18695e+09
1.19088e+09
1.18821e+09
1.18608e+09
1.21272e+09
1.23873e+09
1.25473e+09
1.26079e+09
1.26079e+09
1.26072e+09
1.26057e+09
1.26032e+09
1.25996e+09
1.25949e+09
1.25888e+09
1.25818e+09
1.25746e+09
1.25672e+09
1.25598e+09
1.25525e+09
1.25454e+09
1.25386e+09
1.25321e+09
1.25258e+09
1.25194e+09
1.25128e+09
1.25065e+09
1.25019e+09
1.21439e+09
1.12985e+09
1.05462e+09
9.78811e+08
9.07936e+08
8.40915e+08
7.78738e+08
7.21222e+08
6.68331e+08
6.19877e+08
5.75569e+08
5.35143e+08
4.98292e+08
4.64699e+08
4.34105e+08
4.06176e+08
3.80697e+08
3.57378e+08
3.36014e+08
3.16398e+08
2.9833e+08
2.81666e+08
2.66221e+08
2.51892e+08
2.38543e+08
2.26079e+08
2.1441e+08
2.03451e+08
1.93146e+08
1.83426e+08
1.74247e+08
1.65563e+08
1.57336e+08
1.49536e+08
1.42134e+08
1.3511e+08
1.28442e+08
1.2211e+08
1.16098e+08
1.10385e+08
1.04951e+08
9.97657e+07
9.47889e+07
8.99691e+07
8.52192e+07
8.04173e+07
7.5711e+07
7.07867e+07
6.78874e+07
1.07305e+09
)
;
    }
    front
    {
        type            wedge;
    }
    back
    {
        type            wedge;
    }
}


// ************************************************************************* //
