/*--------------------------------*- C++ -*----------------------------------*\
| =========                 |                                                 |
| \\      /  F ield         | foam-extend: Open Source CFD                    |
|  \\    /   O peration     | Version:     4.1-20200408                       |
|   \\  /    A nd           | Web:         http://www.foam-extend.org         |
|    \\/     M anipulation  |                                                 |
\*---------------------------------------------------------------------------*/
FoamFile
{
    version     2.0;
    format      ascii;
    class       volVectorField;
    location    "0.0405000";
    object      U_0;
}
// * * * * * * * * * * * * * * * * * * * * * * * * * * * * * * * * * * * * * //

dimensions      [0 1 0 0 0 0 0];

internalField   nonuniform List<vector> 
1952
(
(0.0400581 -1.1838e-06 0)
(0.040058 -1.92627e-06 0)
(0.0400578 -2.6786e-06 0)
(0.0400575 -3.43063e-06 0)
(0.0400571 -4.18428e-06 0)
(0.0400567 -4.9324e-06 0)
(0.0400563 -5.68108e-06 0)
(0.0400558 -6.42016e-06 0)
(0.0400553 -7.15796e-06 0)
(0.0400548 -7.88164e-06 0)
(0.0400544 -8.59893e-06 0)
(0.0400539 -9.29666e-06 0)
(0.0400536 -9.97439e-06 0)
(0.0400535 -1.06269e-05 0)
(0.0400535 -1.12393e-05 0)
(0.0400582 -5.0713e-07 0)
(0.0400566 -1.18693e-06 0)
(0.0400564 -1.93137e-06 0)
(0.0400562 -2.68566e-06 0)
(0.0400559 -3.43964e-06 0)
(0.0400556 -4.19521e-06 0)
(0.0400552 -4.9452e-06 0)
(0.0400548 -5.69572e-06 0)
(0.0400543 -6.43655e-06 0)
(0.0400538 -7.17612e-06 0)
(0.0400533 -7.90143e-06 0)
(0.0400528 -8.62037e-06 0)
(0.0400524 -9.3196e-06 0)
(0.0400521 -9.99892e-06 0)
(0.0400519 -1.06527e-05 0)
(0.0400519 -1.12666e-05 0)
(0.0400566 -5.08476e-07 0)
(0.040055 -1.18994e-06 0)
(0.0400549 -1.93624e-06 0)
(0.0400547 -2.69243e-06 0)
(0.0400544 -3.44827e-06 0)
(0.0400541 -4.20569e-06 0)
(0.0400536 -4.95749e-06 0)
(0.0400532 -5.70981e-06 0)
(0.0400527 -6.45238e-06 0)
(0.0400522 -7.19365e-06 0)
(0.0400517 -7.92062e-06 0)
(0.0400513 -8.64113e-06 0)
(0.0400509 -9.34192e-06 0)
(0.0400506 -1.00227e-05 0)
(0.0400504 -1.06779e-05 0)
(0.0400504 -1.12931e-05 0)
(0.0400551 -5.09763e-07 0)
(0.0400535 -1.19283e-06 0)
(0.0400534 -1.94094e-06 0)
(0.0400531 -2.69895e-06 0)
(0.0400529 -3.4566e-06 0)
(0.0400525 -4.21582e-06 0)
(0.0400521 -4.96938e-06 0)
(0.0400517 -5.72344e-06 0)
(0.0400512 -6.46772e-06 0)
(0.0400507 -7.21063e-06 0)
(0.0400502 -7.93924e-06 0)
(0.0400497 -8.66127e-06 0)
(0.0400493 -9.36361e-06 0)
(0.040049 -1.00459e-05 0)
(0.0400488 -1.07026e-05 0)
(0.0400488 -1.13192e-05 0)
(0.0400536 -5.11003e-07 0)
(0.040052 -1.19564e-06 0)
(0.0400518 -1.9455e-06 0)
(0.0400516 -2.70528e-06 0)
(0.0400513 -3.46469e-06 0)
(0.040051 -4.22566e-06 0)
(0.0400506 -4.98095e-06 0)
(0.0400501 -5.73669e-06 0)
(0.0400496 -6.48266e-06 0)
(0.0400491 -7.22719e-06 0)
(0.0400486 -7.95745e-06 0)
(0.0400482 -8.681e-06 0)
(0.0400478 -9.38489e-06 0)
(0.0400475 -1.00687e-05 0)
(0.0400473 -1.07268e-05 0)
(0.0400473 -1.13449e-05 0)
(0.040052 -5.12206e-07 0)
(0.0400504 -1.19838e-06 0)
(0.0400503 -1.94995e-06 0)
(0.0400501 -2.71147e-06 0)
(0.0400498 -3.4726e-06 0)
(0.0400494 -4.23528e-06 0)
(0.040049 -4.99227e-06 0)
(0.0400486 -5.74968e-06 0)
(0.0400481 -6.49732e-06 0)
(0.0400476 -7.24346e-06 0)
(0.0400471 -7.97534e-06 0)
(0.0400466 -8.70043e-06 0)
(0.0400462 -9.40585e-06 0)
(0.0400459 -1.00912e-05 0)
(0.0400457 -1.07507e-05 0)
(0.0400457 -1.13703e-05 0)
(0.0400505 -5.1338e-07 0)
(0.0400489 -1.20107e-06 0)
(0.0400487 -1.95433e-06 0)
(0.0400485 -2.71754e-06 0)
(0.0400482 -3.48037e-06 0)
(0.0400479 -4.24473e-06 0)
(0.0400475 -5.00341e-06 0)
(0.040047 -5.76247e-06 0)
(0.0400465 -6.51176e-06 0)
(0.040046 -7.25949e-06 0)
(0.0400455 -7.99297e-06 0)
(0.0400451 -8.71959e-06 0)
(0.0400447 -9.42652e-06 0)
(0.0400444 -1.01134e-05 0)
(0.0400442 -1.07743e-05 0)
(0.0400442 -1.13953e-05 0)
(0.0400489 -5.14532e-07 0)
(0.0400473 -1.20371e-06 0)
(0.0400472 -1.95863e-06 0)
(0.040047 -2.72352e-06 0)
(0.0400467 -3.48802e-06 0)
(0.0400463 -4.25405e-06 0)
(0.0400459 -5.01439e-06 0)
(0.0400455 -5.77508e-06 0)
(0.040045 -6.526e-06 0)
(0.0400445 -7.27531e-06 0)
(0.040044 -8.01037e-06 0)
(0.0400435 -8.7385e-06 0)
(0.0400431 -9.44692e-06 0)
(0.0400428 -1.01353e-05 0)
(0.0400426 -1.07977e-05 0)
(0.0400426 -1.14202e-05 0)
(0.0400474 -5.15667e-07 0)
(0.0400458 -1.20633e-06 0)
(0.0400456 -1.96289e-06 0)
(0.0400454 -2.72943e-06 0)
(0.0400451 -3.49559e-06 0)
(0.0400448 -4.26326e-06 0)
(0.0400443 -5.02524e-06 0)
(0.0400439 -5.78754e-06 0)
(0.0400434 -6.54007e-06 0)
(0.0400429 -7.29095e-06 0)
(0.0400424 -8.02758e-06 0)
(0.0400419 -8.75722e-06 0)
(0.0400415 -9.46714e-06 0)
(0.0400412 -1.0157e-05 0)
(0.040041 -1.08209e-05 0)
(0.040041 -1.14448e-05 0)
(0.0400458 -5.16788e-07 0)
(0.0400442 -1.20892e-06 0)
(0.040044 -1.9671e-06 0)
(0.0400438 -2.73528e-06 0)
(0.0400435 -3.50308e-06 0)
(0.0400432 -4.27237e-06 0)
(0.0400428 -5.03598e-06 0)
(0.0400423 -5.79987e-06 0)
(0.0400418 -6.55401e-06 0)
(0.0400414 -7.30644e-06 0)
(0.0400408 -8.04463e-06 0)
(0.0400404 -8.77578e-06 0)
(0.04004 -9.48721e-06 0)
(0.0400397 -1.01786e-05 0)
(0.0400395 -1.08439e-05 0)
(0.0400395 -1.14693e-05 0)
(0.0400443 -5.17897e-07 0)
(0.0400426 -1.21148e-06 0)
(0.0400425 -1.97127e-06 0)
(0.0400423 -2.74107e-06 0)
(0.040042 -3.5105e-06 0)
(0.0400416 -4.2814e-06 0)
(0.0400412 -5.04662e-06 0)
(0.0400408 -5.8121e-06 0)
(0.0400403 -6.56783e-06 0)
(0.0400398 -7.32181e-06 0)
(0.0400393 -8.06157e-06 0)
(0.0400388 -8.79422e-06 0)
(0.0400384 -9.50715e-06 0)
(0.0400381 -1.02001e-05 0)
(0.0400379 -1.08668e-05 0)
(0.0400379 -1.14937e-05 0)
(0.0400427 -5.18996e-07 0)
(0.0400411 -1.21402e-06 0)
(0.0400409 -1.9754e-06 0)
(0.0400407 -2.74681e-06 0)
(0.0400404 -3.51785e-06 0)
(0.0400401 -4.29036e-06 0)
(0.0400396 -5.05718e-06 0)
(0.0400392 -5.82423e-06 0)
(0.0400387 -6.58155e-06 0)
(0.0400382 -7.33708e-06 0)
(0.0400377 -8.07839e-06 0)
(0.0400372 -8.81256e-06 0)
(0.0400368 -9.527e-06 0)
(0.0400365 -1.02214e-05 0)
(0.0400363 -1.08897e-05 0)
(0.0400363 -1.1518e-05 0)
(0.0400411 -5.20084e-07 0)
(0.0400395 -1.21654e-06 0)
(0.0400393 -1.97951e-06 0)
(0.0400391 -2.75251e-06 0)
(0.0400388 -3.52515e-06 0)
(0.0400385 -4.29924e-06 0)
(0.0400381 -5.06767e-06 0)
(0.0400376 -5.83629e-06 0)
(0.0400371 -6.59519e-06 0)
(0.0400366 -7.35227e-06 0)
(0.0400361 -8.09514e-06 0)
(0.0400357 -8.83082e-06 0)
(0.0400352 -9.54677e-06 0)
(0.0400349 -1.02427e-05 0)
(0.0400348 -1.09124e-05 0)
(0.0400347 -1.15422e-05 0)
(0.0400396 -5.21164e-07 0)
(0.0400379 -1.21904e-06 0)
(0.0400378 -1.98357e-06 0)
(0.0400376 -2.75816e-06 0)
(0.0400373 -3.5324e-06 0)
(0.0400369 -4.30806e-06 0)
(0.0400365 -5.07808e-06 0)
(0.0400361 -5.84827e-06 0)
(0.0400356 -6.60875e-06 0)
(0.0400351 -7.36737e-06 0)
(0.0400345 -8.11181e-06 0)
(0.0400341 -8.849e-06 0)
(0.0400337 -9.56646e-06 0)
(0.0400334 -1.02639e-05 0)
(0.0400332 -1.09351e-05 0)
(0.0400332 -1.15664e-05 0)
(0.040038 -5.22235e-07 0)
(0.0400364 -1.22152e-06 0)
(0.0400362 -1.98761e-06 0)
(0.040036 -2.76376e-06 0)
(0.0400357 -3.53959e-06 0)
(0.0400353 -4.31683e-06 0)
(0.0400349 -5.08844e-06 0)
(0.0400345 -5.86018e-06 0)
(0.040034 -6.62225e-06 0)
(0.0400335 -7.38241e-06 0)
(0.040033 -8.1284e-06 0)
(0.0400325 -8.86712e-06 0)
(0.0400321 -9.58608e-06 0)
(0.0400318 -1.02851e-05 0)
(0.0400316 -1.09577e-05 0)
(0.0400316 -1.15905e-05 0)
(0.0400364 -5.23298e-07 0)
(0.0400348 -1.22398e-06 0)
(0.0400346 -1.99162e-06 0)
(0.0400344 -2.76933e-06 0)
(0.0400341 -3.54674e-06 0)
(0.0400338 -4.32553e-06 0)
(0.0400333 -5.09873e-06 0)
(0.0400329 -5.87201e-06 0)
(0.0400324 -6.63566e-06 0)
(0.0400319 -7.39736e-06 0)
(0.0400314 -8.14492e-06 0)
(0.0400309 -8.88516e-06 0)
(0.0400305 -9.60563e-06 0)
(0.0400302 -1.03062e-05 0)
(0.04003 -1.09803e-05 0)
(0.04003 -1.16145e-05 0)
(0.0400348 -5.24353e-07 0)
(0.0400332 -1.22642e-06 0)
(0.040033 -1.9956e-06 0)
(0.0400328 -2.77487e-06 0)
(0.0400325 -3.55384e-06 0)
(0.0400322 -4.33417e-06 0)
(0.0400318 -5.10896e-06 0)
(0.0400313 -5.88378e-06 0)
(0.0400308 -6.64901e-06 0)
(0.0400303 -7.41224e-06 0)
(0.0400298 -8.16138e-06 0)
(0.0400293 -8.90313e-06 0)
(0.0400289 -9.62511e-06 0)
(0.0400286 -1.03272e-05 0)
(0.0400284 -1.10027e-05 0)
(0.0400284 -1.16384e-05 0)
(0.0400333 -5.25401e-07 0)
(0.0400316 -1.22885e-06 0)
(0.0400315 -1.99955e-06 0)
(0.0400312 -2.78036e-06 0)
(0.0400309 -3.56089e-06 0)
(0.0400306 -4.34275e-06 0)
(0.0400302 -5.11913e-06 0)
(0.0400297 -5.89545e-06 0)
(0.0400292 -6.66227e-06 0)
(0.0400287 -7.42704e-06 0)
(0.0400282 -8.17774e-06 0)
(0.0400277 -8.92102e-06 0)
(0.0400273 -9.64449e-06 0)
(0.040027 -1.03481e-05 0)
(0.0400268 -1.10251e-05 0)
(0.0400268 -1.16623e-05 0)
(0.0400317 -5.2644e-07 0)
(0.04003 -1.23125e-06 0)
(0.0400299 -2.00346e-06 0)
(0.0400297 -2.78579e-06 0)
(0.0400294 -3.56787e-06 0)
(0.040029 -4.35127e-06 0)
(0.0400286 -5.12922e-06 0)
(0.0400281 -5.90705e-06 0)
(0.0400276 -6.67542e-06 0)
(0.0400271 -7.44175e-06 0)
(0.0400266 -8.19401e-06 0)
(0.0400261 -8.93883e-06 0)
(0.0400257 -9.66379e-06 0)
(0.0400254 -1.03689e-05 0)
(0.0400252 -1.10474e-05 0)
(0.0400252 -1.16861e-05 0)
(0.0400301 -5.27468e-07 0)
(0.0400284 -1.23362e-06 0)
(0.0400283 -2.00732e-06 0)
(0.0400281 -2.79117e-06 0)
(0.0400278 -3.57478e-06 0)
(0.0400274 -4.3597e-06 0)
(0.040027 -5.1392e-06 0)
(0.0400265 -5.91854e-06 0)
(0.040026 -6.68848e-06 0)
(0.0400255 -7.45634e-06 0)
(0.040025 -8.21018e-06 0)
(0.0400245 -8.9565e-06 0)
(0.0400241 -9.68299e-06 0)
(0.0400238 -1.03897e-05 0)
(0.0400236 -1.10697e-05 0)
(0.0400236 -1.17098e-05 0)
(0.0400285 -5.28485e-07 0)
(0.0400269 -1.23597e-06 0)
(0.0400267 -2.01114e-06 0)
(0.0400265 -2.7965e-06 0)
(0.0400262 -3.58159e-06 0)
(0.0400258 -4.36805e-06 0)
(0.0400254 -5.14906e-06 0)
(0.0400249 -5.92994e-06 0)
(0.0400244 -6.70141e-06 0)
(0.0400239 -7.47081e-06 0)
(0.0400234 -8.22618e-06 0)
(0.0400229 -8.97407e-06 0)
(0.0400225 -9.70216e-06 0)
(0.0400222 -1.04103e-05 0)
(0.040022 -1.10919e-05 0)
(0.040022 -1.17335e-05 0)
(0.0400269 -5.29489e-07 0)
(0.0400253 -1.23828e-06 0)
(0.0400251 -2.01491e-06 0)
(0.0400249 -2.80175e-06 0)
(0.0400246 -3.58833e-06 0)
(0.0400242 -4.37631e-06 0)
(0.0400238 -5.1588e-06 0)
(0.0400233 -5.94123e-06 0)
(0.0400228 -6.71421e-06 0)
(0.0400223 -7.48519e-06 0)
(0.0400218 -8.24207e-06 0)
(0.0400213 -8.99158e-06 0)
(0.0400209 -9.72127e-06 0)
(0.0400206 -1.0431e-05 0)
(0.0400204 -1.11141e-05 0)
(0.0400204 -1.17572e-05 0)
(0.0400253 -5.30481e-07 0)
(0.0400237 -1.24057e-06 0)
(0.0400235 -2.01863e-06 0)
(0.0400233 -2.80695e-06 0)
(0.040023 -3.59499e-06 0)
(0.0400226 -4.38448e-06 0)
(0.0400222 -5.16846e-06 0)
(0.0400217 -5.95243e-06 0)
(0.0400212 -6.72692e-06 0)
(0.0400207 -7.49949e-06 0)
(0.0400202 -8.25789e-06 0)
(0.0400197 -9.00902e-06 0)
(0.0400193 -9.7403e-06 0)
(0.040019 -1.04516e-05 0)
(0.0400188 -1.11362e-05 0)
(0.0400188 -1.17808e-05 0)
(0.0400237 -5.31461e-07 0)
(0.0400221 -1.24284e-06 0)
(0.0400219 -2.02231e-06 0)
(0.0400217 -2.8121e-06 0)
(0.0400214 -3.60159e-06 0)
(0.040021 -4.39258e-06 0)
(0.0400206 -5.17803e-06 0)
(0.0400201 -5.96355e-06 0)
(0.0400196 -6.73954e-06 0)
(0.0400191 -7.51369e-06 0)
(0.0400186 -8.27362e-06 0)
(0.0400181 -9.02634e-06 0)
(0.0400177 -9.75921e-06 0)
(0.0400174 -1.04721e-05 0)
(0.0400172 -1.11582e-05 0)
(0.0400172 -1.18044e-05 0)
(0.0400221 -5.3243e-07 0)
(0.0400205 -1.24508e-06 0)
(0.0400203 -2.02596e-06 0)
(0.0400201 -2.8172e-06 0)
(0.0400198 -3.60813e-06 0)
(0.0400194 -4.4006e-06 0)
(0.040019 -5.18753e-06 0)
(0.0400185 -5.97457e-06 0)
(0.040018 -6.75207e-06 0)
(0.0400175 -7.5278e-06 0)
(0.040017 -8.28924e-06 0)
(0.0400165 -9.04355e-06 0)
(0.0400161 -9.77801e-06 0)
(0.0400157 -1.04925e-05 0)
(0.0400156 -1.11802e-05 0)
(0.0400155 -1.1828e-05 0)
(0.0400205 -5.3339e-07 0)
(0.0400188 -1.24731e-06 0)
(0.0400187 -2.02958e-06 0)
(0.0400185 -2.82226e-06 0)
(0.0400182 -3.61463e-06 0)
(0.0400178 -4.40858e-06 0)
(0.0400174 -5.19697e-06 0)
(0.0400169 -5.98553e-06 0)
(0.0400164 -6.76452e-06 0)
(0.0400159 -7.5418e-06 0)
(0.0400153 -8.30477e-06 0)
(0.0400149 -9.06066e-06 0)
(0.0400144 -9.79673e-06 0)
(0.0400141 -1.05128e-05 0)
(0.0400139 -1.12021e-05 0)
(0.0400139 -1.18515e-05 0)
(0.0400189 -5.34343e-07 0)
(0.0400172 -1.24953e-06 0)
(0.0400171 -2.03319e-06 0)
(0.0400169 -2.82731e-06 0)
(0.0400165 -3.6211e-06 0)
(0.0400162 -4.41651e-06 0)
(0.0400158 -5.20637e-06 0)
(0.0400153 -5.99642e-06 0)
(0.0400148 -6.77691e-06 0)
(0.0400143 -7.55573e-06 0)
(0.0400137 -8.32022e-06 0)
(0.0400132 -9.07769e-06 0)
(0.0400128 -9.81535e-06 0)
(0.0400125 -1.0533e-05 0)
(0.0400123 -1.12239e-05 0)
(0.0400123 -1.18749e-05 0)
(0.0400173 -5.35294e-07 0)
(0.0400156 -1.25175e-06 0)
(0.0400155 -2.03681e-06 0)
(0.0400152 -2.83235e-06 0)
(0.0400149 -3.62757e-06 0)
(0.0400146 -4.42444e-06 0)
(0.0400141 -5.21575e-06 0)
(0.0400137 -6.00729e-06 0)
(0.0400132 -6.78926e-06 0)
(0.0400126 -7.56962e-06 0)
(0.0400121 -8.33563e-06 0)
(0.0400116 -9.09467e-06 0)
(0.0400112 -9.83394e-06 0)
(0.0400109 -1.05533e-05 0)
(0.0400107 -1.12458e-05 0)
(0.0400107 -1.18984e-05 0)
(0.0400157 -5.36246e-07 0)
(0.040014 -1.254e-06 0)
(0.0400138 -2.04045e-06 0)
(0.0400136 -2.83744e-06 0)
(0.0400133 -3.63409e-06 0)
(0.040013 -4.4324e-06 0)
(0.0400125 -5.22517e-06 0)
(0.040012 -6.01818e-06 0)
(0.0400115 -6.80164e-06 0)
(0.040011 -7.58351e-06 0)
(0.0400105 -8.35105e-06 0)
(0.04001 -9.11165e-06 0)
(0.0400096 -9.85254e-06 0)
(0.0400092 -1.05735e-05 0)
(0.040009 -1.12677e-05 0)
(0.040009 -1.1922e-05 0)
(0.0400141 -5.37206e-07 0)
(0.0400124 -1.25628e-06 0)
(0.0400122 -2.04416e-06 0)
(0.040012 -2.8426e-06 0)
(0.0400117 -3.6407e-06 0)
(0.0400113 -4.44047e-06 0)
(0.0400109 -5.2347e-06 0)
(0.0400104 -6.02917e-06 0)
(0.0400099 -6.81413e-06 0)
(0.0400094 -7.59751e-06 0)
(0.0400088 -8.36657e-06 0)
(0.0400084 -9.12874e-06 0)
(0.0400079 -9.87125e-06 0)
(0.0400076 -1.05939e-05 0)
(0.0400074 -1.12897e-05 0)
(0.0400074 -1.19458e-05 0)
(0.0400125 -5.38183e-07 0)
(0.0400108 -1.25864e-06 0)
(0.0400106 -2.04798e-06 0)
(0.0400104 -2.84791e-06 0)
(0.0400101 -3.64749e-06 0)
(0.0400097 -4.44873e-06 0)
(0.0400093 -5.24446e-06 0)
(0.0400088 -6.04039e-06 0)
(0.0400083 -6.82685e-06 0)
(0.0400078 -7.61173e-06 0)
(0.0400072 -8.38231e-06 0)
(0.0400067 -9.14604e-06 0)
(0.0400063 -9.89018e-06 0)
(0.040006 -1.06145e-05 0)
(0.0400058 -1.1312e-05 0)
(0.0400058 -1.19699e-05 0)
(0.0400108 -5.39191e-07 0)
(0.0400092 -1.2611e-06 0)
(0.040009 -2.05199e-06 0)
(0.0400088 -2.85345e-06 0)
(0.0400084 -3.65459e-06 0)
(0.0400081 -4.45732e-06 0)
(0.0400076 -5.25458e-06 0)
(0.0400072 -6.05199e-06 0)
(0.0400066 -6.83996e-06 0)
(0.0400061 -7.62634e-06 0)
(0.0400056 -8.39845e-06 0)
(0.0400051 -9.16373e-06 0)
(0.0400046 -9.9095e-06 0)
(0.0400043 -1.06355e-05 0)
(0.0400041 -1.13347e-05 0)
(0.0400041 -1.19944e-05 0)
(0.0400092 -5.40248e-07 0)
(0.0400075 -1.26375e-06 0)
(0.0400074 -2.05626e-06 0)
(0.0400071 -2.85936e-06 0)
(0.0400068 -3.66213e-06 0)
(0.0400065 -4.46642e-06 0)
(0.040006 -5.26527e-06 0)
(0.0400055 -6.06417e-06 0)
(0.040005 -6.8537e-06 0)
(0.0400045 -7.64157e-06 0)
(0.0400039 -8.41522e-06 0)
(0.0400034 -9.18203e-06 0)
(0.040003 -9.92942e-06 0)
(0.0400027 -1.06572e-05 0)
(0.0400025 -1.13581e-05 0)
(0.0400025 -1.20196e-05 0)
(0.0400076 -5.41379e-07 0)
(0.0400059 -1.26663e-06 0)
(0.0400057 -2.06094e-06 0)
(0.0400055 -2.8658e-06 0)
(0.0400052 -3.67032e-06 0)
(0.0400048 -4.47626e-06 0)
(0.0400044 -5.27679e-06 0)
(0.0400039 -6.07723e-06 0)
(0.0400034 -6.86835e-06 0)
(0.0400028 -7.65772e-06 0)
(0.0400023 -8.4329e-06 0)
(0.0400018 -9.20124e-06 0)
(0.0400013 -9.95024e-06 0)
(0.040001 -1.06797e-05 0)
(0.0400008 -1.13823e-05 0)
(0.0400008 -1.20458e-05 0)
(0.040006 -5.42616e-07 0)
(0.0400043 -1.26986e-06 0)
(0.0400041 -2.06615e-06 0)
(0.0400039 -2.87296e-06 0)
(0.0400036 -3.67943e-06 0)
(0.0400032 -4.48713e-06 0)
(0.0400027 -5.28948e-06 0)
(0.0400023 -6.09149e-06 0)
(0.0400017 -6.88428e-06 0)
(0.0400012 -7.67513e-06 0)
(0.0400006 -8.45189e-06 0)
(0.0400001 -9.22177e-06 0)
(0.0399997 -9.97232e-06 0)
(0.0399994 -1.07035e-05 0)
(0.0399992 -1.14078e-05 0)
(0.0399991 -1.20733e-05 0)
(0.0400043 -5.44e-07 0)
(0.0400026 -1.27355e-06 0)
(0.0400025 -2.07211e-06 0)
(0.0400022 -2.88112e-06 0)
(0.0400019 -3.68976e-06 0)
(0.0400016 -4.4994e-06 0)
(0.0400011 -5.30375e-06 0)
(0.0400006 -6.10742e-06 0)
(0.0400001 -6.902e-06 0)
(0.0399996 -7.69431e-06 0)
(0.039999 -8.47269e-06 0)
(0.0399985 -9.2441e-06 0)
(0.039998 -9.99618e-06 0)
(0.0399977 -1.07291e-05 0)
(0.0399975 -1.1435e-05 0)
(0.0399975 -1.21024e-05 0)
(0.0400027 -5.4558e-07 0)
(0.040001 -1.27784e-06 0)
(0.0400008 -2.07904e-06 0)
(0.0400006 -2.89057e-06 0)
(0.0400003 -3.70172e-06 0)
(0.0399999 -4.51355e-06 0)
(0.0399995 -5.32013e-06 0)
(0.039999 -6.12561e-06 0)
(0.0399984 -6.92211e-06 0)
(0.0399979 -7.7159e-06 0)
(0.0399973 -8.49595e-06 0)
(0.0399968 -9.26883e-06 0)
(0.0399964 -1.00224e-05 0)
(0.039996 -1.07569e-05 0)
(0.0399958 -1.14644e-05 0)
(0.0399958 -1.21339e-05 0)
(0.0400011 -5.4742e-07 0)
(0.0399994 -1.28292e-06 0)
(0.0399992 -2.08722e-06 0)
(0.039999 -2.90172e-06 0)
(0.0399986 -3.71579e-06 0)
(0.0399983 -4.53016e-06 0)
(0.0399978 -5.33928e-06 0)
(0.0399973 -6.14677e-06 0)
(0.0399968 -6.94538e-06 0)
(0.0399962 -7.74072e-06 0)
(0.0399957 -8.52245e-06 0)
(0.0399952 -9.29673e-06 0)
(0.0399947 -1.00517e-05 0)
(0.0399944 -1.07878e-05 0)
(0.0399942 -1.14968e-05 0)
(0.0399941 -1.21683e-05 0)
(0.0399994 -5.49596e-07 0)
(0.0399977 -1.28898e-06 0)
(0.0399975 -2.09698e-06 0)
(0.0399973 -2.91502e-06 0)
(0.039997 -3.73255e-06 0)
(0.0399966 -4.5499e-06 0)
(0.0399962 -5.36198e-06 0)
(0.0399957 -6.17175e-06 0)
(0.0399951 -6.9727e-06 0)
(0.0399946 -7.76968e-06 0)
(0.039994 -8.55314e-06 0)
(0.0399935 -9.32873e-06 0)
(0.0399931 -1.00851e-05 0)
(0.0399927 -1.08226e-05 0)
(0.0399925 -1.1533e-05 0)
(0.0399925 -1.22064e-05 0)
(0.0399978 -5.52195e-07 0)
(0.0399961 -1.29626e-06 0)
(0.0399959 -2.10872e-06 0)
(0.0399957 -2.931e-06 0)
(0.0399953 -3.75265e-06 0)
(0.039995 -4.57356e-06 0)
(0.0399945 -5.38912e-06 0)
(0.039994 -6.20156e-06 0)
(0.0399935 -7.00516e-06 0)
(0.0399929 -7.80393e-06 0)
(0.0399924 -8.5892e-06 0)
(0.0399919 -9.36605e-06 0)
(0.0399914 -1.01237e-05 0)
(0.039991 -1.08624e-05 0)
(0.0399908 -1.1574e-05 0)
(0.0399908 -1.22493e-05 0)
(0.0399961 -5.55319e-07 0)
(0.0399944 -1.30502e-06 0)
(0.0399942 -2.12285e-06 0)
(0.039994 -2.95024e-06 0)
(0.0399937 -3.77685e-06 0)
(0.0399933 -4.60206e-06 0)
(0.0399929 -5.42176e-06 0)
(0.0399924 -6.23739e-06 0)
(0.0399918 -7.04407e-06 0)
(0.0399913 -7.84487e-06 0)
(0.0399907 -8.63211e-06 0)
(0.0399902 -9.41014e-06 0)
(0.0399897 -1.01689e-05 0)
(0.0399894 -1.09086e-05 0)
(0.0399891 -1.16212e-05 0)
(0.0399891 -1.22982e-05 0)
(0.0399945 -5.59079e-07 0)
(0.0399927 -1.31555e-06 0)
(0.0399926 -2.13982e-06 0)
(0.0399923 -2.97338e-06 0)
(0.039992 -3.80597e-06 0)
(0.0399916 -4.63639e-06 0)
(0.0399912 -5.46108e-06 0)
(0.0399907 -6.2806e-06 0)
(0.0399902 -7.09096e-06 0)
(0.0399896 -7.89414e-06 0)
(0.039989 -8.68361e-06 0)
(0.0399885 -9.4628e-06 0)
(0.039988 -1.02226e-05 0)
(0.0399877 -1.0963e-05 0)
(0.0399874 -1.16762e-05 0)
(0.0399874 -1.23547e-05 0)
(0.0399928 -5.63595e-07 0)
(0.0399911 -1.32811e-06 0)
(0.0399909 -2.16011e-06 0)
(0.0399907 -3.00108e-06 0)
(0.0399903 -3.84085e-06 0)
(0.03999 -4.67763e-06 0)
(0.0399895 -5.50836e-06 0)
(0.039989 -6.33269e-06 0)
(0.0399885 -7.14754e-06 0)
(0.0399879 -7.95366e-06 0)
(0.0399874 -8.7458e-06 0)
(0.0399868 -9.52623e-06 0)
(0.0399864 -1.02871e-05 0)
(0.039986 -1.10278e-05 0)
(0.0399857 -1.17412e-05 0)
(0.0399857 -1.24209e-05 0)
(0.0399911 -5.68987e-07 0)
(0.0399894 -1.34299e-06 0)
(0.0399892 -2.18413e-06 0)
(0.039989 -3.03395e-06 0)
(0.0399887 -3.88233e-06 0)
(0.0399883 -4.72683e-06 0)
(0.0399878 -5.56492e-06 0)
(0.0399874 -6.39523e-06 0)
(0.0399868 -7.21566e-06 0)
(0.0399863 -8.02555e-06 0)
(0.0399857 -8.82107e-06 0)
(0.0399852 -9.60301e-06 0)
(0.0399847 -1.0365e-05 0)
(0.0399843 -1.11057e-05 0)
(0.039984 -1.1819e-05 0)
(0.039984 -1.24993e-05 0)
(0.0399894 -5.75367e-07 0)
(0.0399877 -1.36037e-06 0)
(0.0399875 -2.21227e-06 0)
(0.0399873 -3.07255e-06 0)
(0.039987 -3.93113e-06 0)
(0.0399866 -4.78496e-06 0)
(0.0399861 -5.63199e-06 0)
(0.0399857 -6.46979e-06 0)
(0.0399851 -7.29724e-06 0)
(0.0399846 -8.11209e-06 0)
(0.039984 -8.91208e-06 0)
(0.0399835 -9.69612e-06 0)
(0.039983 -1.04597e-05 0)
(0.0399826 -1.12001e-05 0)
(0.0399823 -1.19127e-05 0)
(0.0399823 -1.25929e-05 0)
(0.0399877 -5.82825e-07 0)
(0.0399859 -1.3804e-06 0)
(0.0399858 -2.24472e-06 0)
(0.0399855 -3.11719e-06 0)
(0.0399852 -3.98775e-06 0)
(0.0399849 -4.85274e-06 0)
(0.0399844 -5.71054e-06 0)
(0.039984 -6.55769e-06 0)
(0.0399834 -7.39402e-06 0)
(0.0399829 -8.21555e-06 0)
(0.0399823 -9.02166e-06 0)
(0.0399818 -9.80895e-06 0)
(0.0399813 -1.0575e-05 0)
(0.0399809 -1.1315e-05 0)
(0.0399806 -1.20266e-05 0)
(0.0399805 -1.27051e-05 0)
(0.039986 -5.91415e-07 0)
(0.0399842 -1.40305e-06 0)
(0.039984 -2.28148e-06 0)
(0.0399838 -3.16792e-06 0)
(0.0399835 -4.05231e-06 0)
(0.0399831 -4.93043e-06 0)
(0.0399827 -5.80107e-06 0)
(0.0399822 -6.65977e-06 0)
(0.0399817 -7.50729e-06 0)
(0.0399812 -8.33785e-06 0)
(0.0399806 -9.15257e-06 0)
(0.0399801 -9.9453e-06 0)
(0.0399796 -1.07161e-05 0)
(0.0399792 -1.14569e-05 0)
(0.0399789 -1.21678e-05 0)
(0.0399788 -1.28433e-05 0)
(0.0399842 -6.01127e-07 0)
(0.0399824 -1.42811e-06 0)
(0.0399822 -2.32223e-06 0)
(0.039982 -3.22432e-06 0)
(0.0399817 -4.12433e-06 0)
(0.0399814 -5.01759e-06 0)
(0.039981 -5.90323e-06 0)
(0.0399805 -6.77593e-06 0)
(0.03998 -7.63733e-06 0)
(0.0399795 -8.4799e-06 0)
(0.0399789 -9.30669e-06 0)
(0.0399784 -1.01085e-05 0)
(0.0399779 -1.08884e-05 0)
(0.0399775 -1.16343e-05 0)
(0.0399772 -1.23494e-05 0)
(0.0399771 -1.30255e-05 0)
(0.0399824 -6.1187e-07 0)
(0.0399806 -1.45512e-06 0)
(0.0399804 -2.36623e-06 0)
(0.0399802 -3.28542e-06 0)
(0.0399799 -4.20263e-06 0)
(0.0399796 -5.11287e-06 0)
(0.0399792 -6.01552e-06 0)
(0.0399787 -6.90463e-06 0)
(0.0399782 -7.78265e-06 0)
(0.0399777 -8.64045e-06 0)
(0.0399772 -9.48315e-06 0)
(0.0399767 -1.02985e-05 0)
(0.0399762 -1.10933e-05 0)
(0.0399758 -1.18511e-05 0)
(0.0399755 -1.25803e-05 0)
(0.0399754 -1.32679e-05 0)
(0.0399806 -6.23449e-07 0)
(0.0399787 -1.48337e-06 0)
(0.0399786 -2.41232e-06 0)
(0.0399784 -3.34961e-06 0)
(0.0399781 -4.28514e-06 0)
(0.0399778 -5.21378e-06 0)
(0.0399774 -6.13505e-06 0)
(0.0399769 -7.04261e-06 0)
(0.0399765 -7.93952e-06 0)
(0.039976 -8.8153e-06 0)
(0.0399754 -9.67706e-06 0)
(0.039975 -1.05092e-05 0)
(0.0399745 -1.13231e-05 0)
(0.0399741 -1.20965e-05 0)
(0.0399738 -1.2844e-05 0)
(0.0399737 -1.35459e-05 0)
(0.0399788 -6.35556e-07 0)
(0.0399768 -1.51186e-06 0)
(0.0399767 -2.45886e-06 0)
(0.0399765 -3.41461e-06 0)
(0.0399762 -4.36896e-06 0)
(0.0399759 -5.31678e-06 0)
(0.0399755 -6.2576e-06 0)
(0.0399751 -7.185e-06 0)
(0.0399747 -8.10232e-06 0)
(0.0399742 -8.99811e-06 0)
(0.0399737 -9.88109e-06 0)
(0.0399732 -1.07324e-05 0)
(0.0399728 -1.15677e-05 0)
(0.0399724 -1.2358e-05 0)
(0.0399721 -1.31247e-05 0)
(0.0399719 -1.38398e-05 0)
(0.0399769 -6.47761e-07 0)
(0.0399749 -1.53933e-06 0)
(0.0399748 -2.5038e-06 0)
(0.0399746 -3.47756e-06 0)
(0.0399743 -4.45037e-06 0)
(0.039974 -5.41729e-06 0)
(0.0399737 -6.37771e-06 0)
(0.0399733 -7.32544e-06 0)
(0.0399728 -8.26375e-06 0)
(0.0399724 -9.18066e-06 0)
(0.0399719 -1.00859e-05 0)
(0.0399714 -1.09577e-05 0)
(0.039971 -1.18157e-05 0)
(0.0399707 -1.2623e-05 0)
(0.0399704 -1.34093e-05 0)
(0.0399702 -1.41359e-05 0)
(0.039975 -6.59526e-07 0)
(0.039973 -1.56431e-06 0)
(0.0399728 -2.54473e-06 0)
(0.0399726 -3.53506e-06 0)
(0.0399724 -4.52495e-06 0)
(0.0399721 -5.50987e-06 0)
(0.0399717 -6.48884e-06 0)
(0.0399714 -7.45632e-06 0)
(0.0399709 -8.41504e-06 0)
(0.0399705 -9.35315e-06 0)
(0.0399701 -1.02807e-05 0)
(0.0399696 -1.11734e-05 0)
(0.0399692 -1.20547e-05 0)
(0.0399689 -1.28785e-05 0)
(0.0399687 -1.3685e-05 0)
(0.0399685 -1.44207e-05 0)
(0.039973 -6.70219e-07 0)
(0.039971 -1.58514e-06 0)
(0.0399708 -2.57892e-06 0)
(0.0399707 -3.58328e-06 0)
(0.0399704 -4.58774e-06 0)
(0.0399701 -5.58829e-06 0)
(0.0399698 -6.58349e-06 0)
(0.0399694 -7.56879e-06 0)
(0.039969 -8.54592e-06 0)
(0.0399686 -9.50404e-06 0)
(0.0399682 -1.04524e-05 0)
(0.0399678 -1.13659e-05 0)
(0.0399675 -1.22702e-05 0)
(0.0399672 -1.31104e-05 0)
(0.039967 -1.39389e-05 0)
(0.0399669 -1.46807e-05 0)
(0.039971 -6.79134e-07 0)
(0.0399689 -1.60005e-06 0)
(0.0399688 -2.60347e-06 0)
(0.0399686 -3.61808e-06 0)
(0.0399684 -4.6333e-06 0)
(0.0399681 -5.64577e-06 0)
(0.0399678 -6.65339e-06 0)
(0.0399675 -7.65306e-06 0)
(0.0399671 -8.64495e-06 0)
(0.0399667 -9.62035e-06 0)
(0.0399663 -1.05866e-05 0)
(0.039966 -1.15196e-05 0)
(0.0399656 -1.24451e-05 0)
(0.0399654 -1.33027e-05 0)
(0.0399653 -1.41547e-05 0)
(0.0399652 -1.4899e-05 0)
(0.039969 -6.85512e-07 0)
(0.0399669 -1.60738e-06 0)
(0.0399667 -2.61564e-06 0)
(0.0399666 -3.63561e-06 0)
(0.0399664 -4.65659e-06 0)
(0.0399661 -5.67597e-06 0)
(0.0399658 -6.69091e-06 0)
(0.0399655 -7.7e-06 0)
(0.0399651 -8.70162e-06 0)
(0.0399648 -9.69002e-06 0)
(0.0399644 -1.06693e-05 0)
(0.0399641 -1.16187e-05 0)
(0.0399638 -1.25604e-05 0)
(0.0399637 -1.34345e-05 0)
(0.0399636 -1.43044e-05 0)
(0.0399636 -1.50438e-05 0)
(0.0399669 -6.88639e-07 0)
(0.0399648 -1.60614e-06 0)
(0.0399647 -2.61382e-06 0)
(0.0399645 -3.63356e-06 0)
(0.0399643 -4.65458e-06 0)
(0.039964 -5.67492e-06 0)
(0.0399638 -6.69094e-06 0)
(0.0399634 -7.70282e-06 0)
(0.0399631 -8.70697e-06 0)
(0.0399628 -9.70081e-06 0)
(0.0399625 -1.0684e-05 0)
(0.0399622 -1.16402e-05 0)
(0.039962 -1.25854e-05 0)
(0.0399619 -1.34659e-05 0)
(0.0399619 -1.43374e-05 0)
(0.0399621 -1.50643e-05 0)
(0.0399648 -6.88096e-07 0)
(0.0399627 -1.5947e-06 0)
(0.0399626 -2.59521e-06 0)
(0.0399624 -3.60774e-06 0)
(0.0399622 -4.62132e-06 0)
(0.039962 -5.63444e-06 0)
(0.0399617 -6.64245e-06 0)
(0.0399614 -7.64663e-06 0)
(0.0399611 -8.64121e-06 0)
(0.0399608 -9.62608e-06 0)
(0.0399605 -1.05967e-05 0)
(0.0399603 -1.15421e-05 0)
(0.0399602 -1.24708e-05 0)
(0.0399602 -1.33387e-05 0)
(0.0399603 -1.41913e-05 0)
(0.0399606 -1.49007e-05 0)
(0.0399627 -6.83189e-07 0)
(0.0399606 -1.56826e-06 0)
(0.0399605 -2.55183e-06 0)
(0.0399603 -3.54676e-06 0)
(0.0399602 -4.54172e-06 0)
(0.0399599 -5.53542e-06 0)
(0.0399597 -6.52204e-06 0)
(0.0399594 -7.50361e-06 0)
(0.0399591 -8.47223e-06 0)
(0.0399589 -9.42994e-06 0)
(0.0399586 -1.03684e-05 0)
(0.0399585 -1.12825e-05 0)
(0.0399584 -1.21725e-05 0)
(0.0399585 -1.30068e-05 0)
(0.0399587 -1.38176e-05 0)
(0.0399592 -1.44984e-05 0)
(0.0399606 -6.71865e-07 0)
(0.0399585 -1.5215e-06 0)
(0.0399584 -2.47512e-06 0)
(0.0399583 -3.43887e-06 0)
(0.0399581 -4.40104e-06 0)
(0.0399579 -5.36039e-06 0)
(0.0399577 -6.30996e-06 0)
(0.0399575 -7.25239e-06 0)
(0.0399572 -8.17782e-06 0)
(0.039957 -9.09047e-06 0)
(0.0399568 -9.97845e-06 0)
(0.0399567 -1.08425e-05 0)
(0.0399567 -1.16754e-05 0)
(0.0399569 -1.24594e-05 0)
(0.0399573 -1.32126e-05 0)
(0.0399579 -1.38588e-05 0)
(0.0399585 -6.51857e-07 0)
(0.0399565 -1.4515e-06 0)
(0.0399564 -2.36044e-06 0)
(0.0399563 -3.27795e-06 0)
(0.0399562 -4.19208e-06 0)
(0.039956 -5.10158e-06 0)
(0.0399558 -5.99854e-06 0)
(0.0399556 -6.88613e-06 0)
(0.0399554 -7.75286e-06 0)
(0.0399552 -8.60508e-06 0)
(0.0399551 -9.42776e-06 0)
(0.0399551 -1.02277e-05 0)
(0.0399552 -1.09911e-05 0)
(0.0399555 -1.17155e-05 0)
(0.039956 -1.24047e-05 0)
(0.0399567 -1.30174e-05 0)
(0.0399565 -6.21897e-07 0)
(0.0399546 -1.35886e-06 0)
(0.0399546 -2.20892e-06 0)
(0.0399545 -3.06584e-06 0)
(0.0399544 -3.9177e-06 0)
(0.0399542 -4.76324e-06 0)
(0.039954 -5.59394e-06 0)
(0.0399539 -6.41348e-06 0)
(0.0399537 -7.20918e-06 0)
(0.0399536 -7.98945e-06 0)
(0.0399536 -8.73669e-06 0)
(0.0399536 -9.46376e-06 0)
(0.0399538 -1.01512e-05 0)
(0.0399542 -1.0812e-05 0)
(0.0399548 -1.14365e-05 0)
(0.0399556 -1.20181e-05 0)
(0.0399547 -5.82242e-07 0)
(0.0399529 -1.24799e-06 0)
(0.0399529 -2.02777e-06 0)
(0.0399528 -2.81259e-06 0)
(0.0399527 -3.59086e-06 0)
(0.0399526 -4.36136e-06 0)
(0.0399524 -5.11532e-06 0)
(0.0399523 -5.85697e-06 0)
(0.0399522 -6.57301e-06 0)
(0.0399522 -7.27374e-06 0)
(0.0399522 -7.93977e-06 0)
(0.0399523 -8.58954e-06 0)
(0.0399526 -9.19902e-06 0)
(0.039953 -9.79548e-06 0)
(0.0399537 -1.03569e-05 0)
(0.0399546 -1.09088e-05 0)
(0.0399529 -5.34774e-07 0)
(0.0399514 -1.12594e-06 0)
(0.0399513 -1.82842e-06 0)
(0.0399513 -2.53398e-06 0)
(0.0399512 -3.23162e-06 0)
(0.0399511 -3.92011e-06 0)
(0.039951 -4.59083e-06 0)
(0.0399509 -5.24859e-06 0)
(0.0399509 -5.88004e-06 0)
(0.0399509 -6.49718e-06 0)
(0.039951 -7.07967e-06 0)
(0.0399512 -7.65075e-06 0)
(0.0399515 -8.18304e-06 0)
(0.039952 -8.71588e-06 0)
(0.0399527 -9.21656e-06 0)
(0.0399537 -9.73917e-06 0)
(0.0399514 -4.82516e-07 0)
(0.03995 -1.00054e-06 0)
(0.03995 -1.62363e-06 0)
(0.0399499 -2.24771e-06 0)
(0.0399499 -2.8625e-06 0)
(0.0399498 -3.46678e-06 0)
(0.0399498 -4.05227e-06 0)
(0.0399498 -4.62432e-06 0)
(0.0399498 -5.16994e-06 0)
(0.0399498 -5.70255e-06 0)
(0.03995 -6.20182e-06 0)
(0.0399502 -6.69479e-06 0)
(0.0399506 -7.15213e-06 0)
(0.0399511 -7.62254e-06 0)
(0.0399519 -8.06497e-06 0)
(0.0399529 -8.55722e-06 0)
(0.03995 -4.28828e-07 0)
(0.0399489 -8.78595e-07 0)
(0.0399489 -1.42453e-06 0)
(0.0399488 -1.96941e-06 0)
(0.0399488 -2.50381e-06 0)
(0.0399488 -3.02641e-06 0)
(0.0399488 -3.52939e-06 0)
(0.0399488 -4.01836e-06 0)
(0.0399488 -4.48084e-06 0)
(0.0399489 -4.93117e-06 0)
(0.0399491 -5.3499e-06 0)
(0.0399494 -5.76684e-06 0)
(0.0399498 -6.15228e-06 0)
(0.0399504 -6.56141e-06 0)
(0.0399511 -6.94789e-06 0)
(0.0399521 -7.40764e-06 0)
(0.0399489 -3.76617e-07 0)
(0.0399479 -7.64682e-07 0)
(0.0399479 -1.23875e-06 0)
(0.0399479 -1.71011e-06 0)
(0.0399479 -2.17019e-06 0)
(0.0399479 -2.61755e-06 0)
(0.0399479 -3.04491e-06 0)
(0.039948 -3.4578e-06 0)
(0.0399481 -3.8441e-06 0)
(0.0399482 -4.21822e-06 0)
(0.0399484 -4.56204e-06 0)
(0.0399488 -4.90682e-06 0)
(0.0399492 -5.22419e-06 0)
(0.0399498 -5.57307e-06 0)
(0.0399505 -5.90539e-06 0)
(0.0399514 -6.32938e-06 0)
(0.0399479 -3.27844e-07 0)
(0.0399471 -6.61001e-07 0)
(0.0399471 -1.07008e-06 0)
(0.0399471 -1.47549e-06 0)
(0.0399472 -1.8695e-06 0)
(0.0399472 -2.25057e-06 0)
(0.0399473 -2.61198e-06 0)
(0.0399474 -2.95903e-06 0)
(0.0399475 -3.27989e-06 0)
(0.0399477 -3.58817e-06 0)
(0.0399479 -3.8668e-06 0)
(0.0399483 -4.14653e-06 0)
(0.0399487 -4.40164e-06 0)
(0.0399493 -4.69191e-06 0)
(0.03995 -4.97139e-06 0)
(0.0399508 -5.35463e-06 0)
(0.0399471 -2.8344e-07 0)