/*--------------------------------*- C++ -*----------------------------------*\
| =========                 |                                                 |
| \\      /  F ield         | foam-extend: Open Source CFD                    |
|  \\    /   O peration     | Version:     4.1-20200408                       |
|   \\  /    A nd           | Web:         http://www.foam-extend.org         |
|    \\/     M anipulation  |                                                 |
\*---------------------------------------------------------------------------*/
FoamFile
{
    version     2.0;
    format      ascii;
    class       volVectorField;
    location    "0.0405000";
    object      Velocity;
}
// * * * * * * * * * * * * * * * * * * * * * * * * * * * * * * * * * * * * * //

dimensions      [0 1 -1 0 0 0 0];

internalField   nonuniform List<vector> 
1952
(
(1.00001 1.57799e-05 0)
(1.00001 2.61053e-05 0)
(1.00001 3.48359e-05 0)
(1.00001 4.44667e-05 0)
(1.00001 5.22109e-05 0)
(1.00001 5.97213e-05 0)
(1.00001 6.65582e-05 0)
(1.00001 7.11351e-05 0)
(1.00001 7.71932e-05 0)
(1.00001 7.85954e-05 0)
(1.00001 8.4123e-05 0)
(1 8.28112e-05 0)
(1 8.7613e-05 0)
(0.999994 8.51146e-05 0)
(0.999978 8.64007e-05 0)
(1.00001 6.85984e-06 0)
(1.00002 1.06643e-05 0)
(1.00002 1.73207e-05 0)
(1.00002 2.35516e-05 0)
(1.00002 2.96263e-05 0)
(1.00002 3.51692e-05 0)
(1.00002 4.00008e-05 0)
(1.00002 4.46442e-05 0)
(1.00002 4.7834e-05 0)
(1.00002 5.1425e-05 0)
(1.00001 5.27351e-05 0)
(1.00001 5.51321e-05 0)
(1.00001 5.4437e-05 0)
(1 5.54951e-05 0)
(0.999997 5.33023e-05 0)
(0.999988 5.273e-05 0)
(1.00002 4.59868e-06 0)
(1.00003 8.07699e-06 0)
(1.00003 1.29472e-05 0)
(1.00003 1.78391e-05 0)
(1.00003 2.22268e-05 0)
(1.00003 2.65869e-05 0)
(1.00002 3.0146e-05 0)
(1.00002 3.36842e-05 0)
(1.00002 3.61915e-05 0)
(1.00002 3.8685e-05 0)
(1.00001 3.99599e-05 0)
(1.00001 4.12039e-05 0)
(1.00001 4.11186e-05 0)
(1 4.12006e-05 0)
(0.999996 3.99997e-05 0)
(0.999988 3.93177e-05 0)
(1.00003 3.46309e-06 0)
(1.00003 5.96533e-06 0)
(1.00003 9.52846e-06 0)
(1.00003 1.31844e-05 0)
(1.00003 1.63591e-05 0)
(1.00003 1.96215e-05 0)
(1.00003 2.21845e-05 0)
(1.00003 2.47791e-05 0)
(1.00002 2.65764e-05 0)
(1.00002 2.82853e-05 0)
(1.00002 2.91745e-05 0)
(1.00001 2.98571e-05 0)
(1.00001 2.97653e-05 0)
(1 2.95901e-05 0)
(0.999997 2.88331e-05 0)
(0.999991 2.87062e-05 0)
(1.00003 2.55487e-06 0)
(1.00003 4.23781e-06 0)
(1.00003 6.75088e-06 0)
(1.00003 9.36769e-06 0)
(1.00003 1.15761e-05 0)
(1.00003 1.39095e-05 0)
(1.00003 1.56651e-05 0)
(1.00003 1.7484e-05 0)
(1.00002 1.86837e-05 0)
(1.00002 1.98087e-05 0)
(1.00002 2.03613e-05 0)
(1.00001 2.07186e-05 0)
(1.00001 2.06271e-05 0)
(1 2.04628e-05 0)
(0.999998 2.00532e-05 0)
(0.999992 2.01453e-05 0)
(1.00003 1.81336e-06 0)
(1.00003 2.83145e-06 0)
(1.00003 4.49202e-06 0)
(1.00003 6.25498e-06 0)
(1.00003 7.68105e-06 0)
(1.00003 9.24949e-06 0)
(1.00003 1.03468e-05 0)
(1.00003 1.15393e-05 0)
(1.00002 1.22467e-05 0)
(1.00002 1.29319e-05 0)
(1.00002 1.32068e-05 0)
(1.00001 1.33703e-05 0)
(1.00001 1.3268e-05 0)
(1.00001 1.31677e-05 0)
(0.999999 1.2998e-05 0)
(0.999995 1.33019e-05 0)
(1.00003 1.2103e-06 0)
(1.00003 1.68851e-06 0)
(1.00003 2.65643e-06 0)
(1.00003 3.72644e-06 0)
(1.00003 4.51889e-06 0)
(1.00003 5.47051e-06 0)
(1.00003 6.03975e-06 0)
(1.00003 6.73869e-06 0)
(1.00002 7.06184e-06 0)
(1.00002 7.42126e-06 0)
(1.00001 7.49592e-06 0)
(1.00001 7.54053e-06 0)
(1.00001 7.44869e-06 0)
(1.00001 7.41869e-06 0)
(1 7.41306e-06 0)
(0.999997 7.80968e-06 0)
(1.00003 7.20318e-07 0)
(1.00003 7.59356e-07 0)
(1.00003 1.1637e-06 0)
(1.00003 1.67377e-06 0)
(1.00003 1.95305e-06 0)
(1.00003 2.41127e-06 0)
(1.00002 2.5597e-06 0)
(1.00002 2.87249e-06 0)
(1.00002 2.90049e-06 0)
(1.00002 3.01757e-06 0)
(1.00001 2.95124e-06 0)
(1.00001 2.91902e-06 0)
(1.00001 2.8453e-06 0)
(1.00001 2.86884e-06 0)
(1 2.97643e-06 0)
(0.999998 3.42208e-06 0)
(1.00003 3.2196e-07 0)
(1.00003 2.58075e-09 0)
(1.00003 -5.20076e-08 0)
(1.00003 5.99454e-09 0)
(1.00003 -1.29592e-07 0)
(1.00003 -6.40314e-08 0)
(1.00002 -2.48436e-07 0)
(1.00002 -2.3513e-07 0)
(1.00002 -4.29974e-07 0)
(1.00002 -4.91935e-07 0)
(1.00001 -6.53549e-07 0)
(1.00001 -7.36476e-07 0)
(1.00001 -7.87728e-07 0)
(1.00001 -7.28871e-07 0)
(1 -5.47869e-07 0)
(1 -9.77585e-08 0)
(1.00003 -2.57311e-09 0)
(1.00003 -6.18128e-07 0)
(1.00003 -1.04879e-06 0)
(1.00003 -1.35802e-06 0)
(1.00002 -1.83025e-06 0)
(1.00002 -2.07888e-06 0)
(1.00002 -2.52642e-06 0)
(1.00002 -2.74704e-06 0)
(1.00002 -3.10918e-06 0)
(1.00002 -3.30544e-06 0)
(1.00001 -3.53014e-06 0)
(1.00001 -3.64877e-06 0)
(1.00001 -3.67725e-06 0)
(1.00001 -3.59821e-06 0)
(1 -3.36949e-06 0)
(1 -2.93644e-06 0)
(1.00003 -2.68836e-07 0)
(1.00002 -1.13505e-06 0)
(1.00002 -1.87853e-06 0)
(1.00002 -2.49041e-06 0)
(1.00002 -3.23964e-06 0)
(1.00002 -3.74309e-06 0)
(1.00002 -4.40126e-06 0)
(1.00002 -4.80705e-06 0)
(1.00001 -5.29598e-06 0)
(1.00002 -5.59457e-06 0)
(1.00001 -5.86052e-06 0)
(1.00001 -6.00508e-06 0)
(1.00001 -6.01178e-06 0)
(1.00001 -5.92269e-06 0)
(1 -5.66343e-06 0)
(1 -5.26004e-06 0)
(1.00002 -4.90656e-07 0)
(1.00002 -1.57617e-06 0)
(1.00002 -2.58618e-06 0)
(1.00002 -3.4539e-06 0)
(1.00002 -4.43634e-06 0)
(1.00002 -5.15239e-06 0)
(1.00002 -5.98272e-06 0)
(1.00002 -6.54017e-06 0)
(1.00001 -7.12677e-06 0)
(1.00001 -7.50683e-06 0)
(1.00001 -7.79892e-06 0)
(1.00001 -7.96353e-06 0)
(1.00001 -7.94881e-06 0)
(1.00001 -7.85486e-06 0)
(1 -7.57365e-06 0)
(1 -7.20212e-06 0)
(1.00002 -6.79999e-07 0)
(1.00002 -1.96698e-06 0)
(1.00002 -3.21289e-06 0)
(1.00002 -4.30548e-06 0)
(1.00001 -5.49217e-06 0)
(1.00002 -6.39329e-06 0)
(1.00001 -7.37045e-06 0)
(1.00001 -8.0582e-06 0)
(1.00001 -8.72365e-06 0)
(1.00001 -9.17213e-06 0)
(1.00001 -9.48083e-06 0)
(1.00001 -9.66119e-06 0)
(1.00001 -9.62452e-06 0)
(1.00001 -9.52609e-06 0)
(1 -9.22516e-06 0)
(1 -8.88056e-06 0)
(1.00002 -8.47794e-07 0)
(1.00001 -2.32892e-06 0)
(1.00001 -3.7932e-06 0)
(1.00001 -5.093e-06 0)
(1.00001 -6.46708e-06 0)
(1.00001 -7.53813e-06 0)
(1.00001 -8.64697e-06 0)
(1.00001 -9.45384e-06 0)
(1.00001 -1.01865e-05 0)
(1.00001 -1.06967e-05 0)
(1.00001 -1.10155e-05 0)
(1.00001 -1.12082e-05 0)
(1.00001 -1.11471e-05 0)
(1.00001 -1.10403e-05 0)
(1 -1.0716e-05 0)
(1 -1.03871e-05 0)
(1.00001 -1.00322e-06 0)
(1.00001 -2.68163e-06 0)
(1.00001 -4.3587e-06 0)
(1.00001 -5.86018e-06 0)
(1.00001 -7.4158e-06 0)
(1.00001 -8.65274e-06 0)
(1.00001 -9.88718e-06 0)
(1.00001 -1.08108e-05 0)
(1.00001 -1.16055e-05 0)
(1.00001 -1.21757e-05 0)
(1.00001 -1.25006e-05 0)
(1.00001 -1.27027e-05 0)
(1 -1.26129e-05 0)
(1.00001 -1.24901e-05 0)
(1 -1.2134e-05 0)
(1 -1.18043e-05 0)
(1.00001 -1.15469e-06 0)
(1 -3.04065e-06 0)
(1 -4.93452e-06 0)
(1 -6.64154e-06 0)
(1 -8.38167e-06 0)
(1.00001 -9.78888e-06 0)
(1 -1.115e-05 0)
(1.00001 -1.21945e-05 0)
(1 -1.30505e-05 0)
(1.00001 -1.36823e-05 0)
(1 -1.40109e-05 0)
(1.00001 -1.42188e-05 0)
(1 -1.40943e-05 0)
(1.00001 -1.3944e-05 0)
(1 -1.35432e-05 0)
(1 -1.31915e-05 0)
(1 -1.30887e-06 0)
(0.999999 -3.41994e-06 0)
(0.999999 -5.54306e-06 0)
(1 -7.46829e-06 0)
(0.999999 -9.40324e-06 0)
(1 -1.09934e-05 0)
(1 -1.24879e-05 0)
(1 -1.3664e-05 0)
(1 -1.4584e-05 0)
(1.00001 -1.52831e-05 0)
(1 -1.56134e-05 0)
(1.00001 -1.58241e-05 0)
(1 -1.56566e-05 0)
(1.00001 -1.54644e-05 0)
(1 -1.50023e-05 0)
(1 -1.46026e-05 0)
(0.999999 -1.47174e-06 0)
(0.999993 -3.82914e-06 0)
(0.999993 -6.2e-06 0)
(0.999995 -8.36186e-06 0)
(0.999994 -1.05076e-05 0)
(0.999998 -1.22985e-05 0)
(0.999996 -1.39377e-05 0)
(1 -1.526e-05 0)
(0.999998 -1.62498e-05 0)
(1 -1.7023e-05 0)
(1 -1.73544e-05 0)
(1.00001 -1.75633e-05 0)
(1 -1.73432e-05 0)
(1.00001 -1.70912e-05 0)
(1 -1.65475e-05 0)
(1 -1.60695e-05 0)
(0.999993 -1.64745e-06 0)
(0.999987 -4.27594e-06 0)
(0.999987 -6.91761e-06 0)
(0.99999 -9.33982e-06 0)
(0.999989 -1.17161e-05 0)
(0.999993 -1.37312e-05 0)
(0.999992 -1.55289e-05 0)
(0.999997 -1.70169e-05 0)
(0.999995 -1.80835e-05 0)
(1 -1.89413e-05 0)
(0.999999 -1.92725e-05 0)
(1 -1.94758e-05 0)
(1 -1.91916e-05 0)
(1.00001 -1.88593e-05 0)
(1 -1.82103e-05 0)
(1 -1.76192e-05 0)
(0.999987 -1.83929e-06 0)
(0.99998 -4.76294e-06 0)
(0.999981 -7.70036e-06 0)
(0.999983 -1.04084e-05 0)
(0.999983 -1.3037e-05 0)
(0.999988 -1.53016e-05 0)
(0.999987 -1.72738e-05 0)
(0.999993 -1.89485e-05 0)
(0.999992 -2.0101e-05 0)
(0.999999 -2.10539e-05 0)
(0.999997 -2.13847e-05 0)
(1 -2.1577e-05 0)
(1 -2.12164e-05 0)
(1.00001 -2.078e-05 0)
(1 -1.99992e-05 0)
(1 -1.92549e-05 0)
(0.99998 -2.04838e-06 0)
(0.999973 -5.28959e-06 0)
(0.999973 -8.54731e-06 0)
(0.999977 -1.15674e-05 0)
(0.999977 -1.44694e-05 0)
(0.999982 -1.70112e-05 0)
(0.999982 -1.91732e-05 0)
(0.999989 -2.1059e-05 0)
(0.999988 -2.23054e-05 0)
(0.999996 -2.33669e-05 0)
(0.999995 -2.36964e-05 0)
(1 -2.38733e-05 0)
(1 -2.34224e-05 0)
(1.00001 -2.28562e-05 0)
(1 -2.19139e-05 0)
(1.00001 -2.09717e-05 0)
(0.999972 -2.27448e-06 0)
(0.999964 -5.84861e-06 0)
(0.999965 -9.44712e-06 0)
(0.999969 -1.28019e-05 0)
(0.999969 -1.59954e-05 0)
(0.999976 -1.88402e-05 0)
(0.999976 -2.12057e-05 0)
(0.999984 -2.33262e-05 0)
(0.999984 -2.46751e-05 0)
(0.999993 -2.58584e-05 0)
(0.999993 -2.61862e-05 0)
(1 -2.63425e-05 0)
(1 -2.57872e-05 0)
(1.00001 -2.50626e-05 0)
(1.00001 -2.39269e-05 0)
(1.00001 -2.27366e-05 0)
(0.999963 -2.51448e-06 0)
(0.999954 -6.42709e-06 0)
(0.999956 -1.03792e-05 0)
(0.99996 -1.40852e-05 0)
(0.999961 -1.75816e-05 0)
(0.999968 -2.07521e-05 0)
(0.999969 -2.33303e-05 0)
(0.999979 -2.57095e-05 0)
(0.99998 -2.71665e-05 0)
(0.99999 -2.84867e-05 0)
(0.999991 -2.88119e-05 0)
(0.999999 -2.89434e-05 0)
(1 -2.82694e-05 0)
(1.00001 -2.73565e-05 0)
(1.00001 -2.59936e-05 0)
(1.00001 -2.44996e-05 0)
(0.999953 -2.76282e-06 0)
(0.999943 -7.00248e-06 0)
(0.999945 -1.13077e-05 0)
(0.99995 -1.53698e-05 0)
(0.999951 -1.91693e-05 0)
(0.99996 -2.26809e-05 0)
(0.999962 -2.54737e-05 0)
(0.999973 -2.81318e-05 0)
(0.999975 -2.97003e-05 0)
(0.999986 -3.11718e-05 0)
(0.999988 -3.14938e-05 0)
(0.999998 -3.15969e-05 0)
(1 -3.07909e-05 0)
(1.00001 -2.96582e-05 0)
(1.00001 -2.80333e-05 0)
(1.00001 -2.61745e-05 0)
(0.999942 -3.00984e-06 0)
(0.999931 -7.5424e-06 0)
(0.999933 -1.2181e-05 0)
(0.999939 -1.6587e-05 0)
(0.999941 -2.06736e-05 0)
(0.999951 -2.45305e-05 0)
(0.999953 -2.75288e-05 0)
(0.999966 -3.04816e-05 0)
(0.999969 -3.21594e-05 0)
(0.999982 -3.37972e-05 0)
(0.999985 -3.41149e-05 0)
(0.999997 -3.4188e-05 0)
(1 -3.32385e-05 0)
(1.00001 -3.1855e-05 0)
(1.00001 -2.9933e-05 0)
(1.00001 -2.76436e-05 0)
(0.99993 -3.24164e-06 0)
(0.999917 -8.0001e-06 0)
(0.99992 -1.29244e-05 0)
(0.999926 -1.76373e-05 0)
(0.999929 -2.19717e-05 0)
(0.99994 -2.61607e-05 0)
(0.999944 -2.93398e-05 0)
(0.999958 -3.25942e-05 0)
(0.999962 -3.43723e-05 0)
(0.999977 -3.61899e-05 0)
(0.999982 -3.65022e-05 0)
(0.999996 -3.65463e-05 0)
(1 -3.5445e-05 0)
(1.00001 -3.3781e-05 0)
(1.00001 -3.15288e-05 0)
(1.00002 -2.87383e-05 0)
(0.999916 -3.43815e-06 0)
(0.999902 -8.31256e-06 0)
(0.999905 -1.34375e-05 0)
(0.999912 -1.83862e-05 0)
(0.999916 -2.28971e-05 0)
(0.999928 -2.73812e-05 0)
(0.999933 -3.06949e-05 0)
(0.999949 -3.42456e-05 0)
(0.999955 -3.61049e-05 0)
(0.999972 -3.81141e-05 0)
(0.999979 -3.84198e-05 0)
(0.999995 -3.84403e-05 0)
(1 -3.71841e-05 0)
(1.00001 -3.52138e-05 0)
(1.00002 -3.26021e-05 0)
(1.00002 -2.92372e-05 0)
(0.999901 -3.57231e-06 0)
(0.999886 -8.39517e-06 0)
(0.999889 -1.35849e-05 0)
(0.999897 -1.86524e-05 0)
(0.999901 -2.32259e-05 0)
(0.999915 -2.79347e-05 0)
(0.999921 -3.13076e-05 0)
(0.999939 -3.51318e-05 0)
(0.999947 -3.70394e-05 0)
(0.999966 -3.9249e-05 0)
(0.999976 -3.95464e-05 0)
(0.999994 -3.95547e-05 0)
(1 -3.81478e-05 0)
(1.00002 -3.58521e-05 0)
(1.00002 -3.28587e-05 0)
(1.00003 -2.88449e-05 0)
(0.999884 -3.6078e-06 0)
(0.999868 -8.13793e-06 0)
(0.999871 -1.31907e-05 0)
(0.99988 -1.81996e-05 0)
(0.999886 -2.26661e-05 0)
(0.999901 -2.74846e-05 0)
(0.999909 -3.08035e-05 0)
(0.999928 -3.48535e-05 0)
(0.999938 -3.67587e-05 0)
(0.99996 -3.91725e-05 0)
(0.999972 -3.94596e-05 0)
(0.999992 -3.94755e-05 0)
(1 -3.79331e-05 0)
(1.00002 -3.53037e-05 0)
(1.00003 -3.19176e-05 0)
(1.00004 -2.71823e-05 0)
(0.999866 -3.49741e-06 0)
(0.999849 -7.39919e-06 0)
(0.999853 -1.2028e-05 0)
(0.999863 -1.67227e-05 0)
(0.999869 -2.084e-05 0)
(0.999886 -2.55948e-05 0)
(0.999895 -2.86958e-05 0)
(0.999916 -3.28916e-05 0)
(0.999929 -3.47186e-05 0)
(0.999953 -3.73339e-05 0)
(0.999967 -3.76073e-05 0)
(0.999991 -3.76625e-05 0)
(1.00001 -3.60139e-05 0)
(1.00003 -3.30589e-05 0)
(1.00004 -2.92859e-05 0)
(1.00005 -2.37622e-05 0)
(0.999847 -3.18028e-06 0)
(0.999829 -5.99979e-06 0)
(0.999833 -9.81006e-06 0)
(0.999844 -1.38344e-05 0)
(0.999851 -1.72686e-05 0)
(0.999869 -2.17094e-05 0)
(0.999879 -2.43651e-05 0)
(0.999903 -2.85816e-05 0)
(0.999918 -3.02232e-05 0)
(0.999945 -3.30266e-05 0)
(0.999963 -3.32816e-05 0)
(0.99999 -3.34229e-05 0)
(1.00001 -3.17173e-05 0)
(1.00003 -2.8468e-05 0)
(1.00005 -2.43378e-05 0)
(1.00006 -1.79706e-05 0)
(0.999827 -2.57951e-06 0)
(0.999809 -3.71626e-06 0)
(0.999813 -6.17806e-06 0)
(0.999825 -9.05042e-06 0)
(0.999832 -1.13509e-05 0)
(0.999852 -1.51297e-05 0)
(0.999864 -1.70294e-05 0)
(0.999889 -2.10838e-05 0)
(0.999906 -2.23896e-05 0)
(0.999936 -2.53537e-05 0)
(0.999957 -2.55816e-05 0)
(0.999989 -2.58759e-05 0)
(1.00001 -2.41877e-05 0)
(1.00004 -2.07077e-05 0)
(1.00006 -1.62834e-05 0)
(1.00008 -9.03631e-06 0)
(0.999807 -1.59911e-06 0)
(0.99979 -2.73539e-07 0)
(0.999794 -6.90386e-07 0)
(0.999807 -1.77164e-06 0)
(0.999814 -2.34371e-06 0)
(0.999835 -4.9871e-06 0)
(0.999847 -5.71569e-06 0)
(0.999875 -9.34762e-06 0)
(0.999894 -1.01117e-05 0)
(0.999927 -1.31872e-05 0)
(0.999952 -1.33731e-05 0)
(0.999987 -1.39124e-05 0)
(1.00001 -1.23481e-05 0)
(1.00005 -8.74557e-06 0)
(1.00007 -4.13546e-06 0)
(1.0001 3.99846e-06 0)
(0.999788 -1.21001e-07 0)
(0.999773 4.6609e-06 0)
(0.999777 7.18819e-06 0)
(0.99979 8.72936e-06 0)
(0.999797 1.06592e-05 0)
(0.999818 9.78123e-06 0)
(0.999831 1.07721e-05 0)
(0.999861 7.92312e-06 0)
(0.999882 7.98187e-06 0)
(0.999917 4.8752e-06 0)
(0.999946 4.75893e-06 0)
(0.999986 3.85191e-06 0)
(1.00002 5.14606e-06 0)
(1.00006 8.70419e-06 0)
(1.00009 1.33313e-05 0)
(1.00012 2.23173e-05 0)
(0.99977 1.99764e-06 0)
(0.99976 1.14834e-05 0)
(0.999763 1.80966e-05 0)
(0.999776 2.3325e-05 0)
(0.999781 2.8747e-05 0)
(0.999804 3.04612e-05 0)
(0.999816 3.38866e-05 0)
(0.999847 3.23135e-05 0)
(0.999869 3.35753e-05 0)
(0.999907 3.0565e-05 0)
(0.99994 3.05679e-05 0)
(0.999984 2.91355e-05 0)
(1.00002 2.99659e-05 0)
(1.00007 3.32348e-05 0)
(1.00011 3.76309e-05 0)
(1.00015 4.73747e-05 0)
(0.999757 4.92699e-06 0)
(0.999752 2.06552e-05 0)
(0.999754 3.27804e-05 0)
(0.999766 4.30377e-05 0)
(0.99977 5.32032e-05 0)
(0.999792 5.85775e-05 0)
(0.999804 6.53624e-05 0)
(0.999834 6.57303e-05 0)
(0.999857 6.87094e-05 0)
(0.999897 6.5994e-05 0)
(0.999933 6.62048e-05 0)
(0.999982 6.40531e-05 0)
(1.00003 6.41725e-05 0)
(1.00008 6.68073e-05 0)
(1.00013 7.0621e-05 0)
(1.00018 8.09476e-05 0)
(0.99975 8.86503e-06 0)
(0.999753 3.27015e-05 0)
(0.999753 5.20916e-05 0)
(0.999764 6.90436e-05 0)
(0.999766 8.55122e-05 0)
(0.999785 9.59103e-05 0)
(0.999795 0.000107241 0)
(0.999824 0.000110441 0)
(0.999847 0.000115833 0)
(0.999887 0.000113719 0)
(0.999926 0.000114295 0)
(0.999979 0.000111198 0)
(1.00003 0.000110305 0)
(1.00009 0.000111833 0)
(1.00015 0.000114582 0)
(1.00021 0.000125205 0)
(0.999751 1.40373e-05 0)
(0.999767 4.81995e-05 0)
(0.999763 7.69707e-05 0)
(0.999773 0.000102651 0)
(0.99977 0.000127339 0)
(0.999786 0.00014448 0)
(0.999792 0.000161867 0)
(0.999818 0.000169083 0)
(0.999839 0.00017783 0)
(0.999878 0.000176794 0)
(0.999919 0.000178009 0)
(0.999976 0.000173729 0)
(1.00003 0.000171476 0)
(1.00011 0.000171269 0)
(1.00017 0.000172306 0)
(1.00025 0.000182792 0)
(0.999765 2.06913e-05 0)
(0.999797 6.77579e-05 0)
(0.99979 0.000108415 0)
(0.999796 0.000145262 0)
(0.999787 0.000180492 0)
(0.999798 0.000206513 0)
(0.999798 0.000231863 0)
(0.999818 0.000244665 0)
(0.999835 0.000258048 0)
(0.999872 0.000258819 0)
(0.999912 0.000261142 0)
(0.999972 0.000255478 0)
(1.00004 0.000251503 0)
(1.00012 0.00024875 0)
(1.0002 0.000247234 0)
(1.00029 0.000256953 0)
(0.999796 2.9088e-05 0)
(0.999849 9.1975e-05 0)
(0.999837 0.000147416 0)
(0.999838 0.000198293 0)
(0.999822 0.000246824 0)
(0.999825 0.000284346 0)
(0.999816 0.000320047 0)
(0.999828 0.000340497 0)
(0.999837 0.000360256 0)
(0.999868 0.000363954 0)
(0.999907 0.000368176 0)
(0.999967 0.000361044 0)
(1.00004 0.000355035 0)
(1.00013 0.000348723 0)
(1.00023 0.000343583 0)
(1.00034 0.000351631 0)
(0.999849 3.94838e-05 0)
(0.99993 0.00012138 0)
(0.999911 0.000194862 0)
(0.999906 0.000263046 0)
(0.999879 0.000328094 0)
(0.999872 0.000380274 0)
(0.999851 0.000429279 0)
(0.999851 0.00046007 0)
(0.999849 0.000488567 0)
(0.999871 0.000496895 0)
(0.999903 0.000504322 0)
(0.999961 0.000495926 0)
(1.00004 0.000487744 0)
(1.00014 0.000476648 0)
(1.00025 0.000466532 0)
(1.00039 0.000471589 0)
(0.999932 5.21048e-05 0)
(1.00005 0.000156338 0)
(1.00002 0.000251391 0)
(1.00001 0.000340516 0)
(0.999967 0.000425719 0)
(0.999946 0.000496275 0)
(0.999908 0.00056218 0)
(0.999892 0.000606787 0)
(0.999875 0.000647218 0)
(0.999881 0.000662752 0)
(0.999903 0.00067552 0)
(0.999954 0.00066667 0)
(1.00003 0.000656641 0)
(1.00014 0.000639444 0)
(1.00028 0.000622762 0)
(1.00044 0.00062296 0)
(1.00005 6.71064e-05 0)
(1.00021 0.000196927 0)
(1.00017 0.00031719 0)
(1.00015 0.000431105 0)
(1.00009 0.000540431 0)
(1.00005 0.000633608 0)
(0.999996 0.000720689 0)
(0.999959 0.000783514 0)
(0.999919 0.000840146 0)
(0.999905 0.000866709 0)
(0.99991 0.000888258 0)
(0.999948 0.000880942 0)
(1.00002 0.000870457 0)
(1.00014 0.000846226 0)
(1.00029 0.000821631 0)
(1.00049 0.000814619 0)
(1.00021 8.45204e-05 0)
(1.00042 0.00024278 0)
(1.00037 0.000391732 0)
(1.00034 0.000534262 0)
(1.00026 0.000671805 0)
(1.0002 0.000792241 0)
(1.00012 0.000905395 0)
(1.00006 0.000991842 0)
(0.999989 0.00107021 0)
(0.999947 0.00111327 0)
(0.999927 0.00114886 0)
(0.999944 0.00114694 0)
(1.00001 0.00113917 0)
(1.00013 0.00110802 0)
(1.0003 0.00107515 0)
(1.00054 0.00105804 0)
(1.00043 0.000104186 0)
(1.00069 0.000292901 0)
(1.00063 0.000473473 0)
(1.00058 0.000648045 0)
(1.00049 0.000817677 0)
(1.00041 0.000970111 0)
(1.0003 0.00111466 0)
(1.0002 0.00123108 0)
(1.0001 0.00133812 0)
(1.00002 0.00140514 0)
(0.999961 0.00146245 0)
(0.999948 0.00147238 0)
(0.999993 0.00147274 0)
(1.00011 0.00143586 0)
(1.0003 0.00139423 0)
(1.00058 0.00136136 0)
(1.0007 0.000125673 0)
(1.00103 0.000345468 0)
(1.00096 0.000559521 0)
(1.00089 0.000768621 0)
(1.00078 0.00097346 0)
(1.00067 0.00116223 0)
(1.00053 0.00134347 0)
(1.00039 0.00149691 0)
(1.00025 0.00164096 0)
(1.00013 0.00174202 0)
(1.00002 0.00183234 0)
(0.999965 0.00186529 0)
(0.999974 0.00188411 0)
(1.00007 0.0018462 0)
(1.00028 0.00179447 0)
(1.0006 0.00173332 0)
(1.00104 0.000148196 0)
(1.00144 0.000397674 0)
(1.00136 0.00064534 0)
(1.00128 0.000889798 0)
(1.00114 0.00113143 0)
(1.00101 0.0013596 0)
(1.00083 0.00158193 0)
(1.00066 0.00177932 0)
(1.00046 0.00196956 0)
(1.00029 0.0021175 0)
(1.00013 0.00225751 0)
(1.00001 0.00233407 0)
(0.999961 0.00239635 0)
(1.00001 0.00238179 0)
(1.00021 0.00233927 0)
(1.0006 0.00225065 0)
(1.00146 0.00017055 0)
(1.00192 0.00044566 0)
(1.00183 0.000724619 0)
(1.00174 0.00100276 0)
(1.00158 0.00128021 0)
(1.00142 0.00154833 0)
(1.00121 0.00181364 0)
(1.001 0.0020597 0)
(1.00075 0.00230355 0)
(1.00052 0.00251104 0)
(1.0003 0.00271982 0)
(1.00011 0.00286897 0)
(0.999987 0.00301939 0)
(0.999961 0.00309086 0)
(1.00011 0.00314663 0)
(1.00053 0.00312653 0)
(1.00195 0.000191079 0)
(1.00248 0.000484635 0)
(1.00238 0.000789456 0)
(1.00227 0.0010963 0)
(1.0021 0.00140503 0)
(1.00191 0.0017097 0)
(1.00167 0.00201531 0)
(1.00142 0.00230954 0)
(1.00113 0.00260773 0)
(1.00085 0.00287931 0)
(1.00057 0.00316491 0)
(1.00031 0.00340219 0)
(1.00012 0.0036694 0)
(1.00002 0.00387651 0)
(1.00009 0.00412759 0)
(1.00045 0.00433004 0)
(1.00251 0.000207733 0)
(1.0031 0.000509214 0)
(1.003 0.000830933 0)
(1.00288 0.00115766 0)
(1.00268 0.00148894 0)
(1.00248 0.00182194 0)
(1.00221 0.00215946 0)
(1.00193 0.00249423 0)
(1.0016 0.00283771 0)
(1.00127 0.00316418 0)
(1.00093 0.00351233 0)
(1.00061 0.00381704 0)
(1.00034 0.00416475 0)
(1.00017 0.00444466 0)
(1.00014 0.00477993 0)
(1.00034 0.0050365 0)
(1.00313 0.000218209 0)
(1.00377 0.000513895 0)
(1.00366 0.000839956 0)
(1.00353 0.00117388 0)
(1.00333 0.00151481 0)
(1.0031 0.00186338 0)
(1.00281 0.00221948 0)
(1.0025 0.00258182 0)
(1.00213 0.00295581 0)
(1.00176 0.00332256 0)
(1.00135 0.00371387 0)
(1.00096 0.00406348 0)
(1.00061 0.0044597 0)
(1.00031 0.00476578 0)
(1.00014 0.00512025 0)
(1.00016 0.00535315 0)
(1.0038 0.000220154 0)
(1.00447 0.000493528 0)
(1.00436 0.00080801 0)
(1.00422 0.0011328 0)
(1.00401 0.00146664 0)
(1.00377 0.00181373 0)
(1.00346 0.00217067 0)
(1.00312 0.002543 0)
(1.00272 0.00292823 0)
(1.0023 0.00331731 0)
(1.00183 0.00373021 0)
(1.00135 0.00410542 0)
(1.00088 0.0045281 0)
(1.00045 0.00483621 0)
(1.0001 0.00519576 0)
(0.999925 0.00539623 0)
(1.0045 0.000211366 0)
(1.00518 0.00044379 0)
(1.00506 0.000727928 0)
(1.00492 0.00102412 0)
(1.0047 0.00133077 0)
(1.00445 0.00165562 0)
(1.00413 0.0019918 0)
(1.00377 0.00235249 0)
(1.00334 0.00272613 0)
(1.00287 0.00311713 0)
(1.00232 0.00352889 0)
(1.00176 0.00391498 0)
(1.00116 0.00434832 0)
(1.00055 0.00464823 0)
(1.00001 0.005022 0)
(0.999622 0.00517266 0)
(1.00521 0.000189997 0)
(1.00585 0.000361236 0)
(1.00573 0.000593933 0)
(1.00559 0.000839332 0)
(1.00537 0.00109568 0)
(1.00512 0.00137376 0)
(1.00479 0.00166357 0)
(1.00441 0.00198594 0)
(1.00395 0.00232003 0)
(1.00344 0.00268697 0)
(1.00283 0.00307014 0)
(1.00218 0.0034526 0)
(1.00143 0.00387844 0)
(1.00063 0.00417625 0)
(0.999863 0.00458587 0)
(0.999187 0.00468007 0)
(1.00588 0.00015458 0)
(1.00646 0.000243286 0)
(1.00634 0.000401671 0)
(1.0062 0.000572002 0)
(1.00598 0.00075254 0)
(1.00572 0.000956249 0)
(1.00539 0.00117081 0)
(1.005 0.00142379 0)
(1.00453 0.00168624 0)
(1.00398 0.00199778 0)
(1.00332 0.00232095 0)
(1.00259 0.00268101 0)
(1.00169 0.0030729 0)
(1.00071 0.00338961 0)
(0.999686 0.00382839 0)
(0.998578 0.00384928 0)
(1.00649 0.000104025 0)
(1.00696 9.22064e-05 0)
(1.00684 0.000155016 0)
(1.0067 0.000227803 0)
(1.00649 0.000309066 0)
(1.00623 0.000412927 0)
(1.00589 0.000525832 0)
(1.0055 0.000680269 0)
(1.00501 0.000842377 0)
(1.00445 0.00106874 0)
(1.00376 0.00129714 0)
(1.00298 0.00159136 0)
(1.00197 0.00188303 0)
(1.00081 0.00218424 0)
(0.999415 0.00251083 0)
(0.997706 0.00238829 0)
(1.00699 3.927e-05 0)
(1.00734 -7.83183e-05 0)
(1.00723 -0.000123537 0)
(1.00709 -0.000161983 0)
(1.00688 -0.000195064 0)
(1.00663 -0.000209562 0)
(1.00631 -0.000221164 0)
(1.00592 -0.000198779 0)
(1.00545 -0.000180446 0)
(1.00487 -0.000103934 0)
(1.00414 -5.82733e-05 0)
(1.00328 4.65658e-05 0)
(1.00214 8.67514e-05 0)
(1.00076 0.000182932 0)
(0.998868 0.000185927 0)
(0.996485 -8.79408e-05 0)
(1.00737 -3.38176e-05 0)
(1.0076 -0.000281492 0)
(1.00747 -0.000457855 0)
(1.00733 -0.000635565 0)
(1.0071 -0.000817528 0)
(1.00683 -0.000995048 0)
(1.00648 -0.00118788 0)
(1.00606 -0.00137455 0)
(1.00554 -0.0015977 0)
(1.0049 -0.00180835 0)
(1.00409 -0.00209047 0)
(1.0031 -0.00233414 0)
(1.00181 -0.00269464 0)
(1.00021 -0.00297173 0)
(0.997927 -0.00337554 0)
(0.995035 -0.00374758 0)
(1.00763 -0.000120747 0)
(1.00747 -0.000580668 0)
(1.00732 -0.000951614 0)
(1.00714 -0.00133624 0)
(1.00687 -0.00174085 0)
(1.00653 -0.00216152 0)
(1.00611 -0.00262077 0)
(1.00559 -0.00310396 0)
(1.00495 -0.00365317 0)
(1.00418 -0.00422548 0)
(1.00324 -0.00489523 0)
(1.00209 -0.00554884 0)
(1.00064 -0.00634719 0)
(0.99885 -0.00704516 0)
(0.996389 -0.00790379 0)
(0.993267 -0.00849519 0)
(1.00751 -0.00024865 0)
(1.00668 -0.000985079 0)
(1.0065 -0.00161543 0)
(1.00627 -0.00227035 0)
(1.00594 -0.00295701 0)
(1.00552 -0.00367452 0)
(1.005 -0.00444484 0)
(1.00436 -0.0052565 0)
(1.0036 -0.00614753 0)
(1.00268 -0.00707511 0)
(1.0016 -0.00810946 0)
(1.00028 -0.00913365 0)
(0.998697 -0.0102982 0)
(0.996759 -0.0113236 0)
(0.994269 -0.0124964 0)
(0.991213 -0.013207 0)
(1.00673 -0.000421597 0)
(1.00511 -0.00144754 0)
(1.00491 -0.00237056 0)
(1.00463 -0.00332475 0)
(1.00424 -0.00431434 0)
(1.00374 -0.00533962 0)
(1.00311 -0.00641868 0)
(1.00236 -0.00754162 0)
(1.00147 -0.00874005 0)
(1.00042 -0.0099722 0)
(0.999216 -0.0113001 0)
(0.997785 -0.012603 0)
(0.996138 -0.0140127 0)
(0.994179 -0.015224 0)
(0.991856 -0.0165191 0)
(0.989133 -0.0172058 0)
(1.00518 -0.000619521 0)
(1.00274 -0.00189656 0)
(1.00251 -0.00310123 0)
(1.00219 -0.00433999 0)
(1.00175 -0.00561161 0)
(1.00118 -0.00691625 0)
(1.00048 -0.00826566 0)
(0.999644 -0.00965009 0)
(0.998668 -0.0110924 0)
(0.997529 -0.0125523 0)
(0.996252 -0.0140801 0)
(0.994778 -0.0155563 0)
(0.99317 -0.0170921 0)
(0.991333 -0.0183803 0)
(0.989339 -0.0196901 0)
(0.987127 -0.0203284 0)
(1.00281 -0.000811859 0)
(0.999644 -0.00225657 0)
(0.9994 -0.00368638 0)
(0.999055 -0.00515244 0)
(0.998577 -0.00664737 0)
(0.99797 -0.0081709 0)
(0.997229 -0.00972706 0)
(0.996344 -0.0113053 0)
(0.995328 -0.0129176 0)
(0.994158 -0.0145266 0)
(0.99288 -0.0161676 0)
(0.991448 -0.0177302 0)
(0.989972 -0.0193041 0)
(0.988369 -0.0206061 0)
(0.986809 -0.0218839 0)
(0.985206 -0.0224924 0)
(0.999726 -0.000966137 0)
(0.996017 -0.0024749 0)
(0.995762 -0.00404173 0)
(0.995401 -0.00564779 0)
(0.994905 -0.0072808 0)
(0.99428 -0.00894057 0)
(0.993525 -0.0106239 0)
(0.992634 -0.0123194 0)
(0.991626 -0.0140278 0)
(0.990485 -0.0157156 0)
(0.989269 -0.0174011 0)
(0.987955 -0.0189895 0)
(0.986685 -0.020547 0)
(0.985399 -0.0218335 0)
(0.984332 -0.0230619 0)
(0.983386 -0.0236641 0)
(0.996104 -0.00105969 0)
(0.992104 -0.00253631 0)
(0.991839 -0.00414188 0)
(0.991464 -0.00578924 0)
(0.990956 -0.00746298 0)
(0.990325 -0.00916401 0)
(0.989574 -0.0108842 0)
(0.988706 -0.0126138 0)
(0.98774 -0.0143447 0)
(0.986673 -0.0160493 0)
(0.985571 -0.0177267 0)
(0.984433 -0.0193018 0)
(0.98342 -0.0208131 0)
(0.9825 -0.022075 0)
(0.981955 -0.0232527 0)
(0.981674 -0.0238752 0)
(0.992195 -0.00108596 0)
(0.988145 -0.00246229 0)
(0.987867 -0.00401986 0)
(0.987479 -0.00561808 0)
(0.986961 -0.00723987 0)
(0.986327 -0.00888745 0)
(0.985587 -0.0105507 0)
(0.984752 -0.0122253 0)
(0.983844 -0.0139001 0)
(0.982875 -0.0155579 0)
(0.981915 -0.01718 0)
(0.980988 -0.0187122 0)
(0.980261 -0.0201612 0)
(0.979736 -0.0213989 0)
(0.979714 -0.0225299 0)
(0.980072 -0.0231942 0)
(0.988239 -0.00105422 0)
(0.984327 -0.00229702 0)
(0.984039 -0.00374584 0)
(0.98364 -0.0052279 0)
(0.983115 -0.00672548 0)
(0.982482 -0.0082412 0)
(0.981757 -0.00976412 0)
(0.980955 -0.0112965 0)
(0.980101 -0.0128302 0)
(0.979228 -0.0143647 0)
(0.978412 -0.0158726 0)
(0.977706 -0.0173258 0)
(0.977272 -0.0186969 0)
(0.977149 -0.0199131 0)
(0.977633 -0.021007 0)
(0.978574 -0.0217357 0)
(0.984425 -0.000983511 0)
(0.980764 -0.00208857 0)
(0.980473 -0.00339748 0)
(0.980073 -0.00472553 0)
(0.979552 -0.00605566 0)
(0.978933 -0.00739017 0)
(0.978233 -0.00871715 0)
(0.977471 -0.0100424 0)
(0.976665 -0.0113594 0)
(0.975873 -0.0126846 0)
(0.975179 -0.0139964 0)
(0.974671 -0.0153058 0)
(0.974506 -0.0165595 0)
(0.974766 -0.0177415 0)
(0.975711 -0.0188082 0)
(0.977158 -0.0196357 0)
(0.980865 -0.000894506 0)
(0.977509 -0.00187249 0)
(0.977231 -0.00303414 0)
(0.976848 -0.00419603 0)
(0.976352 -0.00534244 0)
(0.97577 -0.0064761 0)
(0.975118 -0.00758733 0)
(0.974416 -0.00868513 0)
(0.973672 -0.00975782 0)
(0.972951 -0.0108142 0)
(0.972343 -0.0118358 0)
(0.971984 -0.0128913 0)
(0.972027 -0.0139269 0)
(0.972605 -0.015009 0)
(0.973911 -0.0160397 0)
(0.975751 -0.0170123 0)
(0.977606 -0.000802499 0)
(0.974584 -0.00166657 0)
(0.974341 -0.00268968 0)
(0.974002 -0.00369484 0)
(0.973555 -0.004666 0)
(0.973027 -0.00560525 0)
(0.972432 -0.00650911 0)
(0.971793 -0.00739905 0)
(0.97112 -0.0082588 0)
(0.970492 -0.00905571 0)
(0.969986 -0.00973664 0)
(0.96976 -0.0104267 0)
(0.96995 -0.0110984 0)
(0.970717 -0.0119412 0)
(0.972183 -0.0128669 0)
(0.97423 -0.0139941 0)
(0.974668 -0.000714847 0)
(0.971908 -0.00146947 0)
(0.971708 -0.00237035 0)
(0.971423 -0.00324685 0)
(0.971037 -0.00408114 0)
(0.970568 -0.00486658 0)
(0.970023 -0.00559386 0)
(0.969444 -0.00628951 0)
(0.968902 -0.00692048 0)
(0.968601 -0.00750399 0)
(0.968448 -0.00795275 0)
(0.968491 -0.00836012 0)
(0.968768 -0.00869122 0)
(0.969386 -0.00917406 0)
(0.970614 -0.00978505 0)
(0.972571 -0.0109115 0)
(0.971977 -0.00063038 0)
(0.969371 -0.00123141 0)
(0.969254 -0.00199771 0)
(0.969092 -0.00275404 0)
(0.968875 -0.00348677 0)
(0.96862 -0.00417756 0)
(0.968337 -0.00480099 0)
(0.968074 -0.00535381 0)
(0.967902 -0.00577358 0)
(0.967882 -0.00617622 0)
(0.967937 -0.0065544 0)
(0.968113 -0.00689638 0)
(0.968396 -0.00712547 0)
(0.968876 -0.00737331 0)
(0.969622 -0.00752966 0)
(0.971044 -0.00834054 0)
(0.969413 -0.00052754 0)
(0.968032 -0.000984849 0)
(0.967973 -0.00160095 0)
(0.967898 -0.00221696 0)
(0.967808 -0.00282402 0)
(0.967718 -0.00340961 0)
(0.967639 -0.00395849 0)
(0.967592 -0.00445762 0)
(0.967577 -0.00488071 0)
(0.967559 -0.00524504 0)
(0.967628 -0.00554489 0)
(0.967849 -0.00582284 0)
(0.968185 -0.00599814 0)
(0.968712 -0.00621832 0)
(0.969241 -0.00625071 0)
(0.970048 -0.00662916 0)
(0.968053 -0.000422162 0)
(0.967505 -0.000863922 0)
(0.967447 -0.00139718 0)
(0.967371 -0.00192308 0)
(0.967282 -0.00242859 0)
(0.967191 -0.00290713 0)
(0.967115 -0.00334678 0)
(0.967077 -0.0037488 0)
(0.967096 -0.00410067 0)
(0.967183 -0.00441308 0)
(0.967337 -0.00465328 0)
(0.967608 -0.00487623 0)
(0.967956 -0.00503248 0)
(0.968461 -0.00521912 0)
(0.969018 -0.00533983 0)
(0.969656 -0.0055186 0)
(0.967526 -0.000370613 0)
(0.966817 -0.000736285 0)
(0.96679 -0.00118917 0)
(0.966757 -0.00163351 0)
(0.966725 -0.00205734 0)
(0.966703 -0.00245541 0)
(0.966704 -0.00281725 0)
(0.966739 -0.00314503 0)
(0.966816 -0.00342764 0)
(0.966941 -0.00368248 0)
(0.967127 -0.00388559 0)
(0.967414 -0.00407676 0)
(0.96777 -0.00422134 0)
(0.968247 -0.00438229 0)
(0.968764 -0.00451725 0)
(0.969393 -0.00468467 0)
(0.966827 -0.000315887 0)
(0.966391 -0.000616126 0)
(0.966378 -0.000993832 0)
(0.966362 -0.00136311 0)
(0.966355 -0.00171371 0)
(0.96636 -0.00204243 0)
(0.96639 -0.00234134 0)
(0.966455 -0.00261436 0)
(0.966563 -0.00285207 0)