/*--------------------------------*- C++ -*----------------------------------*\
| =========                 |                                                 |
| \\      /  F ield         | OpenFOAM: The Open Source CFD Toolbox           |
|  \\    /   O peration     | Version:  4.1                                   |
|   \\  /    A nd           | Web:      www.OpenFOAM.org                      |
|    \\/     M anipulation  |                                                 |
\*---------------------------------------------------------------------------*/
FoamFile
{
    version     2.0;
    format      ascii;
    class       volVectorField;
    location    "0.0042";
    object      U;
}
// * * * * * * * * * * * * * * * * * * * * * * * * * * * * * * * * * * * * * //

dimensions      [0 1 -1 0 0 0 0];

internalField   nonuniform List<vector> 
1536
(
(0.0048257 -0.00036051 -5.03e-07)
(0.0054672 -0.00077351 -1.5165e-06)
(0.0062297 -0.00063121 -2.5174e-06)
(0.006574 -7.7292e-05 -3.3049e-06)
(0.006342 0.00039871 -4.4392e-06)
(0.0058307 0.00052236 -5.4538e-06)
(0.0054134 0.00032552 -6.2699e-06)
(0.0052693 -8.8814e-06 -7.3894e-06)
(0.0054146 -0.00037282 -8.1267e-06)
(0.0058252 -0.00072343 -8.8733e-06)
(0.0064823 -0.0010622 -9.5753e-06)
(0.0073828 -0.0014186 -1.02e-05)
(0.0049515 -0.00023958 2.587e-05)
(0.0054968 -0.0005149 5.61e-05)
(0.0061519 -0.00042122 4.7182e-05)
(0.0064604 -5.6395e-05 4.3483e-06)
(0.0062787 0.0002641 -3.9653e-05)
(0.0058431 0.0003481 -6.3056e-05)
(0.0054719 0.0002149 -5.2915e-05)
(0.0053414 -1.5644e-05 -1.8574e-05)
(0.0054872 -0.00026672 2.6785e-05)
(0.0058966 -0.0005134 7.1723e-05)
(0.0065558 -0.00075557 0.00011349)
(0.0074654 -0.001013 0.00015597)
(0.0050238 -0.00018094 6.6888e-05)
(0.0055146 -0.00038985 0.00014445)
(0.0061088 -0.00032046 0.0001184)
(0.0063959 -4.6146e-05 1.4061e-05)
(0.006241 0.00019879 -8.1088e-05)
(0.0058483 0.00026695 -0.00011117)
(0.0055074 0.00016696 -7.6111e-05)
(0.0053882 -1.4706e-05 -8.6313e-06)
(0.0055351 -0.00021464 6.9425e-05)
(0.005944 -0.00041302 0.00014763)
(0.0066047 -0.00060942 0.0002241)
(0.0075206 -0.00081901 0.00030478)
(0.0050583 -0.00013514 9.8059e-05)
(0.0055232 -0.00029217 0.00021225)
(0.0060884 -0.00024129 0.00017463)
(0.006365 -3.6187e-05 2.3411e-05)
(0.0062226 0.00014802 -0.00011247)
(0.005851 0.00020046 -0.00015314)
(0.0055254 0.00012631 -0.00010149)
(0.0054119 -1.0225e-05 -4.1688e-06)
(0.0055595 -0.0001637 0.00010753)
(0.0059682 -0.00031681 0.00021926)
(0.0066298 -0.00046881 0.0003299)
(0.0075487 -0.00063113 0.00044771)
(0.0050586 -9.8546e-05 0.00013456)
(0.0055235 -0.00021361 0.00029052)
(0.0060888 -0.00017701 0.00023845)
(0.0063654 -2.6821e-05 3.2204e-05)
(0.006223 0.00010785 -0.0001534)
(0.0058515 0.00014714 -0.0002074)
(0.0055259 9.3962e-05 -0.00013491)
(0.0054124 -4.9706e-06 -1.9013e-07)
(0.00556 -0.00011827 0.00015168)
(0.0059687 -0.00023162 0.00030309)
(0.0066303 -0.00034389 0.00045339)
(0.0075492 -0.00046337 0.00061396)
(0.0050247 -6.7336e-05 0.00018022)
(0.0055156 -0.00014563 0.00038784)
(0.0061097 -0.00012048 0.00031708)
(0.006397 -1.7074e-05 4.1443e-05)
(0.0062422 7.7086e-05 -0.000205)
(0.0058497 0.00010609 -0.00027474)
(0.0055089 6.9606e-05 -0.00017652)
(0.0053897 4.6051e-07 3.1516e-06)
(0.0055366 -7.898e-05 0.00020133)
(0.0059455 -0.00015858 0.00039797)
(0.0066062 -0.00023654 0.00059261)
(0.0075221 -0.00031874 0.00080046)
(0.0049531 -2.6307e-05 0.00023873)
(0.0054984 -5.7168e-05 0.00051257)
(0.0061536 -4.904e-05 0.00041733)
(0.0064622 -7.0159e-06 5.0943e-05)
(0.0062807 3.5993e-05 -0.00027095)
(0.0058453 5.8352e-05 -0.0003565)
(0.0054745 4.7099e-05 -0.00022518)
(0.0053439 1.1731e-05 2.4195e-06)
(0.0054896 -3.5235e-05 0.00025218)
(0.005899 -8.1492e-05 0.00049707)
(0.0065582 -0.00012464 0.00073745)
(0.0074679 -0.00016848 0.0009932)
(0.004828 1.1355e-07 0.0003595)
(0.0054695 4.6499e-07 0.00077043)
(0.0062321 6.7141e-07 0.00062619)
(0.0065765 7.8026e-07 7.0356e-05)
(0.0063447 1.0474e-06 -0.00040716)
(0.0058338 1.0115e-06 -0.00053252)
(0.0054169 7.8521e-07 -0.0003375)
(0.0052729 7.1684e-07 -6.1247e-06)
(0.0054179 4.1782e-07 0.000356)
(0.0058286 -3.7031e-08 0.00070427)
(0.0064856 -6.4992e-07 0.0010408)
(0.0073862 -1.3194e-06 0.001395)
(0.0049506 -0.0002395 -2.7138e-05)
(0.0054959 -0.0005147 -5.9869e-05)
(0.0061511 -0.00042079 -5.3487e-05)
(0.0064596 -5.5751e-05 -1.2919e-05)
(0.0062778 0.00026488 2.8422e-05)
(0.0058423 0.00034897 4.9261e-05)
(0.0054712 0.00021595 3.6544e-05)
(0.0053407 -1.3609e-05 4.296e-07)
(0.0054866 -0.00026495 -4.7192e-05)
(0.005896 -0.00051157 -9.4156e-05)
(0.0065552 -0.00075358 -0.00013776)
(0.0074649 -0.0010109 -0.00018185)
(0.0050553 -0.00018189 -6.9524e-07)
(0.0055213 -0.0003916 -2.0434e-06)
(0.0060872 -0.00032043 -3.4336e-06)
(0.0063633 -4.5274e-05 -4.6649e-06)
(0.0062208 0.00019992 -6.2005e-06)
(0.0058499 0.0002632 -7.6146e-06)
(0.0055224 0.00016012 -8.8172e-06)
(0.0054074 -1.9336e-05 -1.0082e-05)
(0.0055555 -0.00021479 -1.1208e-05)
(0.0059645 -0.00040893 -1.2257e-05)
(0.006626 -0.00060273 -1.3248e-05)
(0.0075448 -0.00081079 -1.4132e-05)
(0.0051213 -0.0001363 3.2904e-05)
(0.005538 -0.00029441 7.0575e-05)
(0.0060484 -0.00024225 5.611e-05)
(0.0063044 -3.6675e-05 3.8528e-06)
(0.0061854 0.00014854 -4.4162e-05)
(0.0058536 0.00019941 -5.7206e-05)
(0.0055552 0.00012324 -3.8773e-05)
(0.0054525 -1.5673e-05 -7.0692e-06)
(0.0056028 -0.00017042 2.8621e-05)
(0.0060117 -0.00032543 6.4798e-05)
(0.006675 -0.00048106 0.00010094)
(0.0076 -0.00064852 0.00013979)
(0.005153 -9.8701e-05 6.4946e-05)
(0.0055462 -0.00021368 0.0001403)
(0.0060301 -0.00017626 0.00011419)
(0.0062762 -2.7278e-05 1.3891e-05)
(0.0061683 0.00010809 -7.7218e-05)
(0.0058557 0.00014554 -0.00010309)
(0.0055717 9.0018e-05 -6.7699e-05)
(0.0054751 -1.1362e-05 -2.8818e-06)
(0.0056267 -0.0001258 7.0892e-05)
(0.0060357 -0.00024123 0.0001455)
(0.0067 -0.00035741 0.0002205)
(0.0076281 -0.00048244 0.0003012)
(0.0051533 -6.5475e-05 9.817e-05)
(0.0055465 -0.00014177 0.00021219)
(0.0060304 -0.00011677 0.00017366)
(0.0062766 -1.7559e-05 2.3577e-05)
(0.0061687 7.2363e-05 -0.00011307)
(0.0058562 9.6893e-05 -0.00015192)
(0.0055722 5.9925e-05 -9.8019e-05)
(0.0054756 -6.5308e-06 1.6896e-06)
(0.0056272 -8.1949e-05 0.00011451)
(0.0060362 -0.00015822 0.00022829)
(0.0067005 -0.00023495 0.00034278)
(0.0076286 -0.00031738 0.00046609)
(0.0051222 -3.3438e-05 0.00013573)
(0.0055389 -7.2019e-05 0.00029284)
(0.0060493 -5.8675e-05 0.00023955)
(0.0063054 -7.5024e-06 3.2846e-05)
(0.0061866 3.9283e-05 -0.00015373)
(0.005855 5.1034e-05 -0.00020603)
(0.0055567 3.1112e-05 -0.00013143)
(0.005454 -2.1813e-06 5.7505e-06)
(0.0056043 -3.9504e-05 0.00015889)
(0.0060132 -7.7322e-05 0.00031231)
(0.0066766 -0.00011523 0.00046631)
(0.0076015 -0.00015583 0.00063208)
(0.0050568 1.7151e-07 0.00018124)
(0.0055228 6.3625e-07 0.00038986)
(0.0060889 9.3179e-07 0.00031753)
(0.006365 1.1255e-06 4.1183e-05)
(0.0062228 1.5001e-06 -0.0002053)
(0.0058521 1.4023e-06 -0.00027001)
(0.0055248 1.1575e-06 -0.0001686)
(0.0054099 8.8972e-07 8.8727e-06)
(0.005558 4.9039e-07 0.00020289)
(0.005967 -1.1191e-07 0.0003956)
(0.0066285 -8.8658e-07 0.00058791)
(0.0075474 -1.8205e-06 0.00079444)
(0.0049528 2.663e-05 0.00023874)
(0.0054981 5.8342e-05 0.00051256)
(0.0061535 5.0821e-05 0.00041737)
(0.006462 9.2354e-06 5.0975e-05)
(0.0062806 -3.3257e-05 -0.00027065)
(0.0058454 -5.5451e-05 -0.00035621)
(0.0054747 -4.4392e-05 -0.00022477)
(0.0053441 -9.8176e-06 2.4699e-06)
(0.0054898 3.6322e-05 0.00025236)
(0.0058994 8.1397e-05 0.00049729)
(0.0065587 0.00012299 0.00073772)
(0.0074686 0.00016503 0.00099353)
(0.0050222 -0.00018088 -6.8101e-05)
(0.005513 -0.0003897 -0.00014808)
(0.0061072 -0.00032015 -0.00012455)
(0.0063943 -4.5633e-05 -2.2589e-05)
(0.0062393 0.00019944 7.0255e-05)
(0.0058467 0.00026761 9.79e-05)
(0.0055058 0.00016772 5.9951e-05)
(0.0053868 -1.3846e-05 -1.0491e-05)
(0.0055339 -0.00021361 -9.0229e-05)
(0.0059428 -0.00041187 -0.0001704)
(0.0066036 -0.00060815 -0.00024872)
(0.0075195 -0.00081759 -0.00033114)
(0.0051205 -0.0001363 -3.424e-05)
(0.0055372 -0.00029443 -7.4514e-05)
(0.0060476 -0.0002423 -6.2794e-05)
(0.0063036 -3.6688e-05 -1.3048e-05)
(0.0061846 0.00014852 3.2182e-05)
(0.0058529 0.0001994 4.2559e-05)
(0.0055545 0.00012314 2.1453e-05)
(0.0054518 -1.5793e-05 -1.2982e-05)
(0.0056022 -0.00017046 -5.0754e-05)
(0.0060111 -0.00032546 -8.9028e-05)
(0.0066744 -0.00048109 -0.00012716)
(0.0075995 -0.0006485 -0.00016781)
(0.0051823 -9.5837e-05 -6.6401e-07)
(0.0055531 -0.00020785 -1.9565e-06)
(0.0060115 -0.00017221 -3.3184e-06)
(0.0062483 -2.8102e-05 -4.5922e-06)
(0.0061509 0.00010286 -6.0112e-06)
(0.0058561 0.00014096 -7.3628e-06)
(0.0055856 8.8234e-05 -8.6079e-06)
(0.0054952 -1.2711e-05 -9.96e-06)
(0.0056484 -0.00012754 -1.1041e-05)
(0.0060577 -0.00024377 -1.2099e-05)
(0.006723 -0.00036125 -1.3089e-05)
(0.0076542 -0.00048797 -1.4013e-05)
(0.0052119 -6.1697e-05 3.0172e-05)
(0.005561 -0.00013406 6.5173e-05)
(0.0059946 -0.00011132 5.2602e-05)
(0.0062219 -1.8466e-05 5.0775e-06)
(0.0061346 6.6605e-05 -3.8327e-05)
(0.0058579 9.173e-05 -5.2175e-05)
(0.0056011 5.761e-05 -3.6824e-05)
(0.005517 -8.3136e-06 -5.7284e-06)
(0.0056718 -8.4246e-05 3.0555e-05)
(0.0060815 -0.0001616 6.7594e-05)
(0.0067478 -0.00024002 0.00010515)
(0.0076821 -0.0003247 0.0001458)
(0.0052122 -3.0681e-05 6.1174e-05)
(0.0055613 -6.6583e-05 0.0001326)
(0.0059949 -5.5085e-05 0.00010876)
(0.0062223 -8.6029e-06 1.4829e-05)
(0.006135 3.3629e-05 -7.1461e-05)
(0.0058584 4.6138e-05 -9.7969e-05)
(0.0056016 2.9287e-05 -6.5406e-05)
(0.0055175 -3.4326e-06 -1.1183e-06)
(0.0056723 -4.1359e-05 7.3192e-05)
(0.006082 -8.0106e-05 0.00014887)
(0.0067484 -0.00011943 0.00022557)
(0.0076826 -0.00016185 0.0003085)
(0.0051831 1.6967e-07 9.5293e-05)
(0.005554 6.07e-07 0.00020633)
(0.0060124 9.1168e-07 0.00016955)
(0.0062493 1.1866e-06 2.4329e-05)
(0.0061521 1.4281e-06 -0.0001079)
(0.0058574 1.4235e-06 -0.00014745)
(0.005587 1.2752e-06 -9.6336e-05)
(0.0054967 1.0142e-06 2.9725e-06)
(0.0056499 4.7617e-07 0.00011622)
(0.0060593 -2.0295e-07 0.00023084)
(0.0067246 -1.0232e-06 0.00034664)
(0.0076557 -1.9152e-06 0.00047164)
(0.005122 3.3769e-05 0.00013572)
(0.0055387 7.3222e-05 0.00029283)
(0.0060492 6.0468e-05 0.0002395)
(0.0063053 9.7997e-06 3.2745e-05)
(0.0061865 -3.6577e-05 -0.00015399)
(0.0058551 -4.8231e-05 -0.00020622)
(0.0055568 -2.8631e-05 -0.0001316)
(0.0054542 4.1799e-06 5.6319e-06)
(0.0056046 4.0472e-05 0.00015884)
(0.0060136 7.6987e-05 0.00031235)
(0.0066771 0.00011325 0.00046639)
(0.0076021 0.00015203 0.00063212)
(0.0050243 6.7613e-05 0.00018018)
(0.0055152 0.00014668 0.00038778)
(0.0061094 0.00012213 0.00031699)
(0.0063968 1.9385e-05 4.1335e-05)
(0.0062421 -7.4703e-05 -0.00020514)
(0.0058497 -0.00010336 -0.00027488)
(0.0055091 -6.6931e-05 -0.00017671)
(0.0053901 1.8637e-06 2.9983e-06)
(0.0055373 8.0036e-05 0.00020137)
(0.0059463 0.00015822 0.0003981)
(0.0066073 0.00023448 0.00059284)
(0.0075232 0.00031491 0.0008007)
(0.005056 -0.00013511 -9.9344e-05)
(0.0055208 -0.00029209 -0.00021608)
(0.0060861 -0.00024115 -0.00018106)
(0.0063627 -3.5975e-05 -3.2341e-05)
(0.0062202 0.00014835 0.00010114)
(0.0058486 0.00020081 0.00013922)
(0.0055228 0.00012659 8.4698e-05)
(0.0054097 -1.0226e-05 -1.5701e-05)
(0.0055576 -0.00016334 -0.00012929)
(0.0059663 -0.00031638 -0.00024309)
(0.0066281 -0.00046835 -0.00035564)
(0.0075472 -0.00063053 -0.00047532)
(0.0051514 -9.87e-05 -6.6276e-05)
(0.0055446 -0.00021369 -0.00014423)
(0.0060285 -0.0001763 -0.00012083)
(0.0062746 -2.7283e-05 -2.3063e-05)
(0.0061667 0.00010801 6.5447e-05)
(0.0058542 0.00014552 8.8695e-05)
(0.0055701 8.9935e-05 5.0458e-05)
(0.0054736 -1.1579e-05 -1.7117e-05)
(0.0056254 -0.00012583 -9.3017e-05)
(0.0060345 -0.00024123 -0.00016973)
(0.0066989 -0.00035741 -0.00024669)
(0.0076271 -0.00048238 -0.00032926)
(0.0052112 -6.1695e-05 -3.1502e-05)
(0.0055602 -0.00013406 -6.9092e-05)
(0.0059938 -0.00011133 -5.9223e-05)
(0.0062212 -1.8469e-05 -1.4256e-05)
(0.0061338 6.6504e-05 2.6468e-05)
(0.0058571 9.165e-05 3.7622e-05)
(0.0056003 5.7573e-05 1.964e-05)
(0.0055163 -8.383e-06 -1.4132e-05)
(0.0056712 -8.426e-05 -5.2641e-05)
(0.0060809 -0.00016159 -9.1803e-05)
(0.0067473 -0.00024002 -0.00013134)
(0.0076816 -0.00032467 -0.00017387)
(0.0052399 -2.977e-05 -6.6697e-07)
(0.0055679 -6.4711e-05 -1.9594e-06)
(0.0059775 -5.3723e-05 -3.3053e-06)
(0.0061956 -8.717e-06 -4.5916e-06)
(0.006118 3.2979e-05 -5.8887e-06)
(0.0058587 4.548e-05 -7.2401e-06)
(0.0056154 2.8753e-05 -8.5815e-06)
(0.0055376 -3.9046e-06 -9.9025e-06)
(0.0056944 -4.1921e-05 -1.1038e-05)
(0.0061044 -8.0921e-05 -1.2106e-05)
(0.006772 -0.00012065 -1.3096e-05)
(0.0077093 -0.00016359 -1.4047e-05)
(0.0052402 1.7857e-07 2.9263e-05)
(0.0055682 6.1584e-07 6.3305e-05)
(0.0059778 9.3088e-07 5.1245e-05)
(0.0061959 1.2221e-06 5.1978e-06)
(0.0061184 1.3852e-06 -3.7686e-05)
(0.0058592 1.4543e-06 -5.1517e-05)
(0.0056159 1.3533e-06 -3.627e-05)
(0.0055381 1.0439e-06 -5.2565e-06)
(0.0056949 5.0276e-07 3.1117e-05)
(0.006105 -1.888e-07 6.8407e-05)
(0.0067725 -1.0237e-06 0.00010637)
(0.0077098 -1.883e-06 0.00014754)
(0.005212 3.1032e-05 6.1165e-05)
(0.005561 6.7811e-05 0.00013259)
(0.0059947 5.6943e-05 0.00010874)
(0.0062221 1.1039e-05 1.4792e-05)
(0.006135 -3.0744e-05 -7.1383e-05)
(0.0058584 -4.3168e-05 -9.7947e-05)
(0.0056017 -2.6594e-05 -6.545e-05)
(0.0055177 5.5466e-06 -1.1142e-06)
(0.0056727 4.2374e-05 7.3187e-05)
(0.0060824 7.9729e-05 0.00014887)
(0.0067489 0.00011737 0.00022557)
(0.0076831 0.00015804 0.00030847)
(0.0051528 6.5821e-05 9.8147e-05)
(0.0055461 0.000143 0.00021215)
(0.0060301 0.00011863 0.00017358)
(0.0062762 1.9994e-05 2.3447e-05)
(0.0061685 -6.9531e-05 -0.00011322)
(0.0058563 -9.3887e-05 -0.00015209)
(0.0055724 -5.7141e-05 -9.8157e-05)
(0.0054761 8.7867e-06 1.6803e-06)
(0.0056279 8.3042e-05 0.00011449)
(0.0060371 0.0001579 0.00022832)
(0.0067016 0.0002329 0.00034282)
(0.0076297 0.00031353 0.00046607)
(0.0050579 9.8864e-05 0.0001345)
(0.0055229 0.0002148 0.00029039)
(0.0060883 0.00017888 0.00023826)
(0.006365 2.938e-05 3.1968e-05)
(0.0062228 -0.00010496 -0.00015382)
(0.0058515 -0.00014403 -0.00020774)
(0.0055262 -9.0874e-05 -0.00013519)
(0.0054131 7.7052e-06 -1.6424e-07)
(0.0055611 0.00011953 0.00015168)
(0.00597 0.00023129 0.00030319)
(0.0066319 0.00034174 0.00045355)
(0.007551 0.00045939 0.00061404)
(0.0050555 -9.8557e-05 -0.00013592)
(0.0055204 -0.00021369 -0.00029453)
(0.0060856 -0.00017717 -0.00024517)
(0.0063623 -2.6943e-05 -4.1446e-05)
(0.0062198 0.00010772 0.00014151)
(0.0058482 0.000147 0.00019272)
(0.0055225 9.3523e-05 0.00011746)
(0.0054095 -5.8518e-06 -2.0304e-05)
(0.0055574 -0.00011876 -0.00017422)
(0.0059662 -0.00023207 -0.00032779)
(0.006628 -0.00034433 -0.00048012)
(0.0075472 -0.00046374 -0.0006427)
(0.0051509 -6.5474e-05 -9.9501e-05)
(0.0055441 -0.00014179 -0.00021612)
(0.0060281 -0.00011683 -0.00018029)
(0.0062742 -1.7568e-05 -3.2733e-05)
(0.0061663 7.2256e-05 0.00010128)
(0.0058538 9.6844e-05 0.00013753)
(0.0055698 5.9808e-05 8.0816e-05)
(0.0054734 -6.8434e-06 -2.1615e-05)
(0.0056252 -8.2035e-05 -0.00013663)
(0.0060343 -0.00015828 -0.00025253)
(0.0066988 -0.00023497 -0.00036901)
(0.0076271 -0.00031734 -0.00049424)
(0.0052107 -3.0677e-05 -6.2503e-05)
(0.0055597 -6.6587e-05 -0.00013652)
(0.0059933 -5.5109e-05 -0.00011536)
(0.0062207 -8.6028e-06 -2.3997e-05)
(0.0061334 3.3541e-05 5.9614e-05)
(0.0058567 4.6047e-05 8.345e-05)
(0.0056 2.9257e-05 4.8227e-05)
(0.005516 -3.5162e-06 -1.8694e-05)
(0.005671 -4.1376e-05 -9.5274e-05)
(0.0060808 -8.01e-05 -0.00017309)
(0.0067472 -0.00011941 -0.00025177)
(0.0076816 -0.00016177 -0.00033663)
(0.0052394 1.813e-07 -3.0597e-05)
(0.0055674 6.1508e-07 -6.7223e-05)
(0.005977 9.2663e-07 -5.7847e-05)
(0.0061952 1.2317e-06 -1.4383e-05)
(0.0061176 1.4359e-06 2.5877e-05)
(0.0058584 1.475e-06 3.7023e-05)
(0.0056151 1.3617e-06 1.9114e-05)
(0.0055374 1.0388e-06 -1.453e-05)
(0.0056942 5.0674e-07 -5.3194e-05)
(0.0061044 -1.7598e-07 -9.2631e-05)
(0.0067719 -1.0006e-06 -0.00013258)
(0.0077093 -1.8297e-06 -0.00017569)
(0.0052396 3.0132e-05 -6.6843e-07)
(0.0055677 6.5948e-05 -1.9581e-06)
(0.0059773 5.5599e-05 -3.3005e-06)
(0.0061955 1.1198e-05 -4.5999e-06)
(0.0061179 -3.0126e-05 -5.9346e-06)
(0.0058588 -4.2502e-05 -7.2714e-06)
(0.0056156 -2.6e-05 -8.5974e-06)
(0.0055379 6.0104e-06 -9.8984e-06)
(0.0056947 4.2945e-05 -1.1043e-05)
(0.0061049 8.0559e-05 -1.2121e-05)
(0.0067725 0.00011862 -1.3124e-05)
(0.0077098 0.00015987 -1.4101e-05)
(0.0052115 6.2057e-05 3.0163e-05)
(0.0055605 0.00013531 6.517e-05)
(0.0059942 0.00011322 5.2593e-05)
(0.0062216 2.099e-05 5.048e-06)
(0.0061345 -6.3584e-05 -3.8276e-05)
(0.0058579 -8.8637e-05 -5.2149e-05)
(0.0056014 -5.4824e-05 -3.6845e-05)
(0.0055175 1.0491e-05 -5.6993e-06)
(0.0056726 8.5309e-05 3.0555e-05)
(0.0060824 0.00016124 6.7572e-05)
(0.0067489 0.00023797 0.00010511)
(0.0076831 0.00032091 0.0001457)
(0.0051523 9.9064e-05 6.4928e-05)
(0.0055455 0.00021496 0.00014028)
(0.0060295 0.00017823 0.00011416)
(0.0062757 2.9881e-05 1.3816e-05)
(0.006168 -0.00010511 -7.7231e-05)
(0.0058558 -0.00014238 -0.00010311)
(0.0055721 -8.706e-05 -6.7698e-05)
(0.0054759 1.3727e-05 -2.7502e-06)
(0.0056278 0.00012695 7.0919e-05)
(0.0060371 0.0002409 0.0001455)
(0.0067016 0.00035534 0.00022045)
(0.0076298 0.00047856 0.00030106)
(0.0050574 0.00013549 9.7994e-05)
(0.0055223 0.00029344 0.00021213)
(0.0060877 0.0002433 0.00017446)
(0.0063645 3.8864e-05 2.3173e-05)
(0.0062223 -0.00014491 -0.00011277)
(0.005851 -0.00019709 -0.0001534)
(0.0055258 -0.0001231 -0.00010157)
(0.005413 1.2923e-05 -3.9812e-06)
(0.0055611 0.00016496 0.00010757)
(0.0059701 0.00031647 0.00021929)
(0.0066319 0.00046666 0.00032986)
(0.007551 0.0006271 0.0004475)
(0.0050208 -6.7411e-05 -0.00018163)
(0.0055116 -0.00014589 -0.00039198)
(0.0061058 -0.00012093 -0.00032396)
(0.0063931 -1.7455e-05 -5.0941e-05)
(0.0062382 7.6392e-05 0.00019273)
(0.0058456 0.00010519 0.00025961)
(0.0055049 6.8391e-05 0.00015863)
(0.005386 -9.191e-07 -2.4086e-05)
(0.0055334 -8.0334e-05 -0.00022454)
(0.0059424 -0.0001601 -0.00042342)
(0.0066033 -0.00023816 -0.0006202)
(0.0075195 -0.00032031 -0.00083019)
(0.0051191 -3.3446e-05 -0.00013706)
(0.0055357 -7.2064e-05 -0.00029676)
(0.0060462 -5.8752e-05 -0.00024612)
(0.0063023 -7.4904e-06 -4.1977e-05)
(0.0061834 3.9184e-05 0.00014199)
(0.0058518 5.0877e-05 0.00019167)
(0.0055535 3.1017e-05 0.00011435)
(0.005451 -2.4655e-06 -2.5553e-05)
(0.0056016 -3.9562e-05 -0.00018096)
(0.0060107 -7.7377e-05 -0.0003365)
(0.0066742 -0.00011525 -0.00049253)
(0.0075994 -0.00015577 -0.00066029)
(0.0051808 1.7692e-07 -9.6622e-05)
(0.0055516 5.9898e-07 -0.00021024)
(0.0060101 8.9286e-07 -0.00017613)
(0.006247 1.2086e-06 -3.3484e-05)
(0.0061497 1.4198e-06 9.6135e-05)
(0.005855 1.4199e-06 0.00013299)
(0.0055846 1.2875e-06 7.9181e-05)
(0.0054945 1.0274e-06 -2.2747e-05)
(0.0056479 5.1012e-07 -0.00013831)
(0.0060574 -1.3361e-07 -0.00025507)
(0.0067228 -9.1186e-07 -0.0003729)
(0.0076542 -1.7448e-06 -0.00049985)
(0.0052104 3.1039e-05 -6.2502e-05)
(0.0055595 6.7809e-05 -0.0001365)
(0.0059931 5.6949e-05 -0.00011533)
(0.0062206 1.107e-05 -2.3975e-05)
(0.0061334 -3.0671e-05 5.9643e-05)
(0.0058568 -4.3057e-05 8.3471e-05)
(0.0056002 -2.6549e-05 4.8288e-05)
(0.0055163 5.6048e-06 -1.8681e-05)
(0.0056714 4.2408e-05 -9.5276e-05)
(0.0060812 7.9784e-05 -0.00017312)
(0.0067477 0.00011748 -0.00025184)
(0.0076821 0.00015817 -0.0003367)
(0.0052107 6.2061e-05 -3.1504e-05)
(0.0055597 0.0001353 -6.9081e-05)
(0.0059934 0.00011323 -5.9198e-05)
(0.0062208 2.1004e-05 -1.4256e-05)
(0.0061337 -6.3598e-05 2.643e-05)
(0.0058572 -8.8588e-05 3.7586e-05)
(0.0056006 -5.4787e-05 1.9644e-05)
(0.0055168 1.0543e-05 -1.4133e-05)
(0.0056719 8.5335e-05 -5.2661e-05)
(0.0060818 0.00016128 -9.1845e-05)
(0.0067483 0.00023804 -0.00013141)
(0.0076826 0.00032098 -0.00017397)
(0.0051815 9.6205e-05 -6.7111e-07)
(0.0055524 0.00020911 -1.9497e-06)
(0.0060109 0.00017416 -3.3053e-06)
(0.0062479 3.0713e-05 -4.614e-06)
(0.0061507 -9.9837e-05 -5.9829e-06)
(0.0058562 -0.00013782 -7.3368e-06)
(0.005586 -8.5365e-05 -8.6386e-06)
(0.005496 1.4948e-05 -9.9456e-06)
(0.0056496 0.00012867 -1.106e-05)
(0.0060591 0.00024348 -1.2163e-05)
(0.0067246 0.00035927 -1.3179e-05)
(0.0076558 0.00048423 -1.4172e-05)
(0.0051203 0.00013666 3.2908e-05)
(0.005537 0.0002957 7.0616e-05)
(0.0060476 0.00024426 5.6156e-05)
(0.0063038 3.9365e-05 3.838e-06)
(0.0061851 -0.00014557 -4.4008e-05)
(0.0058537 -0.00019618 -5.7014e-05)
(0.0055558 -0.00012021 -3.8652e-05)
(0.0054535 1.8042e-05 -6.8131e-06)
(0.0056043 0.00017161 2.8676e-05)
(0.0060135 0.00032515 6.4768e-05)
(0.0066771 0.00047908 0.00010082)
(0.0076022 0.00064473 0.00013959)
(0.0050226 0.00018126 6.6869e-05)
(0.0055135 0.00039104 0.00014444)
(0.0061078 0.00032238 0.00011835)
(0.0063951 4.8769e-05 1.3898e-05)
(0.0062405 -0.00019565 -8.1144e-05)
(0.0058483 -0.00026362 -0.00011109)
(0.0055081 -0.00016387 -7.583e-05)
(0.0053895 1.7267e-05 -8.18e-06)
(0.0055371 0.00021584 6.9648e-05)
(0.0059464 0.0004127 0.00014765)
(0.0066074 0.00060734 0.00022388)
(0.0075233 0.00081503 0.00030431)
(0.0049484 -2.6454e-05 -0.00024013)
(0.0054937 -5.7659e-05 -0.00051672)
(0.0061489 -4.9817e-05 -0.00042425)
(0.0064576 -7.8758e-06 -6.0792e-05)
(0.006276 3.4854e-05 0.00025853)
(0.0058405 5.6855e-05 0.0003413)
(0.0054696 4.5331e-05 0.00020704)
(0.0053395 9.3257e-06 -2.4649e-05)
(0.0054858 -3.764e-05 -0.00027593)
(0.0058953 -8.4131e-05 -0.0005231)
(0.0065546 -0.0001275 -0.00076568)
(0.0074648 -0.00017141 -0.0010237)
(0.0050529 1.6226e-07 -0.00018255)
(0.0055189 5.7602e-07 -0.00039373)
(0.006085 8.5045e-07 -0.00032399)
(0.0063611 1.1292e-06 -5.0283e-05)
(0.0062189 1.4352e-06 0.00019367)
(0.0058481 1.4027e-06 0.0002558)
(0.0055208 1.2744e-06 0.00015167)
(0.0054062 9.472e-07 -2.8924e-05)
(0.0055546 5.7236e-07 -0.00022491)
(0.0059639 2.4397e-08 -0.00041965)
(0.0066256 -7.1585e-07 -0.00061393)
(0.0075447 -1.6199e-06 -0.00082254)
(0.0051188 3.379e-05 -0.00013705)
(0.0055355 7.3232e-05 -0.00029672)
(0.006046 6.049e-05 -0.00024605)
(0.0063022 9.8576e-06 -4.1899e-05)
(0.0061834 -3.6446e-05 0.0001421)
(0.0058518 -4.8025e-05 0.00019179)
(0.0055536 -2.8475e-05 0.00011445)
(0.0054512 4.4971e-06 -2.551e-05)
(0.0056019 4.0602e-05 -0.00018097)
(0.0060111 7.7181e-05 -0.00033659)
(0.0066747 0.0001135 -0.00049264)
(0.0076 0.00015232 -0.00066037)
(0.0051505 6.584e-05 -9.949e-05)
(0.0055437 0.000143 -0.00021607)
(0.0060277 0.00011867 -0.00018018)
(0.0062739 2.0047e-05 -3.2631e-05)
(0.0061661 -6.9426e-05 0.00010143)
(0.0058538 -9.379e-05 0.00013768)
(0.0055701 -5.7021e-05 8.0959e-05)
(0.0054739 8.9842e-06 -2.1573e-05)
(0.0056259 8.3108e-05 -0.00013662)
(0.0060352 0.00015799 -0.00025261)
(0.0066998 0.00023304 -0.00036916)
(0.0076281 0.00031373 -0.00049439)
(0.0051507 9.9076e-05 -6.6279e-05)
(0.0055439 0.00021495 -0.00014421)
(0.0060279 0.00017825 -0.00012077)
(0.0062741 2.9905e-05 -2.3027e-05)
(0.0061664 -0.00010505 6.5447e-05)
(0.0058542 -0.00014237 8.8639e-05)
(0.0055705 -8.6971e-05 5.0483e-05)
(0.0054744 1.3891e-05 -1.7174e-05)
(0.0056265 0.00012703 -9.308e-05)
(0.0060358 0.00024099 -0.00016982)
(0.0067004 0.00035548 -0.00024685)
(0.0076287 0.00047873 -0.00032943)
(0.0051195 0.00013667 -3.4262e-05)
(0.0055363 0.00029571 -7.4531e-05)
(0.0060468 0.00024429 -6.2798e-05)
(0.006303 3.9406e-05 -1.3101e-05)
(0.0061843 -0.00014543 3.2034e-05)
(0.0058529 -0.00019613 4.2349e-05)
(0.005555 -0.00012011 2.1309e-05)
(0.0054528 1.8183e-05 -1.3213e-05)
(0.0056036 0.00017172 -5.0915e-05)
(0.0060129 0.00032527 -8.9196e-05)
(0.0066765 0.00047924 -0.00012735)
(0.0076016 0.00064486 -0.00016806)
(0.0050541 0.0001822 -6.9667e-07)
(0.0055201 0.00039279 -2.019e-06)
(0.0060862 0.00032239 -3.4166e-06)
(0.0063625 4.8007e-05 -4.7079e-06)
(0.0062205 -0.00019682 -6.1248e-06)
(0.00585 -0.00025996 -7.5734e-06)
(0.0055231 -0.00015713 -8.9196e-06)
(0.0054087 2.177e-05 -1.0114e-05)
(0.0055574 0.00021591 -1.1305e-05)
(0.0059668 0.00040868 -1.2425e-05)
(0.0066285 0.00060088 -1.3476e-05)
(0.0075475 0.00080717 -1.4439e-05)
(0.0049501 0.00023985 2.5905e-05)
(0.0054954 0.00051586 5.6219e-05)
(0.0061507 0.00042289 4.7278e-05)
(0.0064595 5.8988e-05 4.3575e-06)
(0.0062783 -0.0002611 -3.9307e-05)
(0.0058432 -0.00034497 -6.2605e-05)
(0.0054727 -0.00021189 -5.251e-05)
(0.005343 1.8365e-05 -1.8078e-05)
(0.0054896 0.0002678 2.7125e-05)
(0.0058993 0.00051298 7.1705e-05)
(0.0065588 0.00075345 0.00011307)
(0.0074688 0.001009 0.00015523)
(0.0048226 1.0402e-07 -0.00036114)
(0.0054641 3.833e-07 -0.00077535)
(0.0062266 5.8526e-07 -0.00063438)
(0.0065711 7.5063e-07 -8.1686e-05)
(0.0063393 1.0261e-06 0.00039277)
(0.0058282 1.016e-06 0.00051489)
(0.005411 9.2546e-07 0.00031635)
(0.0052677 8.7316e-07 -1.9096e-05)
(0.0054136 4.9517e-07 -0.00038373)
(0.0058243 5.068e-08 -0.00073504)
(0.0064815 -5.2499e-07 -0.0010745)
(0.0073825 -1.181e-06 -0.0014314)
(0.0049482 2.6787e-05 -0.00024014)
(0.0054935 5.8772e-05 -0.0005167)
(0.0061487 5.1541e-05 -0.00042432)
(0.0064574 1.014e-05 -6.0776e-05)
(0.0062759 -3.2049e-05 0.00025835)
(0.0058406 -5.3908e-05 0.00034107)
(0.0054697 -4.2569e-05 0.0002067)
(0.0053397 -7.6101e-06 -2.4389e-05)
(0.005486 3.8706e-05 -0.00027596)
(0.0058957 8.4118e-05 -0.00052321)
(0.0065551 0.00012607 -0.00076589)
(0.0074653 0.00016838 -0.001024)
(0.0050204 6.7743e-05 -0.00018158)
(0.0055112 0.00014699 -0.00039187)
(0.0061055 0.00012263 -0.00032384)
(0.0063928 1.9978e-05 -5.0937e-05)
(0.0062381 -7.3807e-05 0.00019278)
(0.0058457 -0.00010239 0.00025973)
(0.0055051 -6.5802e-05 0.0001587)
(0.0053864 3.2387e-06 -2.4166e-05)
(0.005534 8.129e-05 -0.00022459)
(0.0059432 0.0001597 -0.00042356)
(0.0066043 0.00023621 -0.00062045)
(0.0075205 0.00031687 -0.00083047)
(0.0050548 9.8925e-05 -0.00013587)
(0.0055197 0.00021489 -0.00029439)
(0.0060851 0.00017905 -0.00024497)
(0.0063619 2.9566e-05 -4.1292e-05)
(0.0062196 -0.0001047 0.00014171)
(0.0058483 -0.00014381 0.00019299)
(0.0055229 -9.0502e-05 0.00011769)
(0.0054102 8.1455e-06 -2.0132e-05)
(0.0055585 0.00011989 -0.00017412)
(0.0059675 0.00023171 -0.00032784)
(0.0066295 0.00034233 -0.00048027)
(0.0075488 0.00046015 -0.00064289)
(0.005055 0.00013548 -9.9324e-05)
(0.0055199 0.00029335 -0.00021596)
(0.0060853 0.00024316 -0.00018089)
(0.0063621 3.8736e-05 -3.218e-05)
(0.0062199 -0.00014508 0.00010129)
(0.0058486 -0.00019739 0.0001394)
(0.0055234 -0.0001234 8.4817e-05)
(0.0054107 1.2727e-05 -1.554e-05)
(0.0055591 0.00016463 -0.00012918)
(0.0059682 0.00031614 -0.00024303)
(0.0066301 0.00046642 -0.00035567)
(0.0075493 0.00062686 -0.0004754)
(0.005021 0.00018122 -6.8137e-05)
(0.0055119 0.00039088 -0.00014806)
(0.0061062 0.00032212 -0.00012451)
(0.0063935 4.8414e-05 -2.26e-05)
(0.0062389 -0.0001962 7.0115e-05)
(0.0058467 -0.00026424 9.7681e-05)
(0.0055064 -0.0001646 5.981e-05)
(0.0053881 1.6464e-05 -1.0779e-05)
(0.0055358 0.00021484 -9.0407e-05)
(0.0059451 0.00041162 -0.00017046)
(0.0066061 0.00060623 -0.00024874)
(0.0075222 0.00081384 -0.00033114)
(0.0049492 0.00023978 -2.72e-05)
(0.0054945 0.00051567 -5.9954e-05)
(0.0061499 0.00042253 -5.3592e-05)
(0.0064586 5.8364e-05 -1.3045e-05)
(0.0062774 -0.00026192 2.8004e-05)
(0.0058424 -0.00034584 4.8756e-05)
(0.005472 -0.00021291 3.6076e-05)
(0.0053423 1.6375e-05 -1.0911e-07)
(0.0054888 0.00026599 -4.768e-05)
(0.0058987 0.00051113 -9.4412e-05)
(0.0065582 0.00075152 -0.00013782)
(0.0074682 0.001007 -0.00018182)
(0.0048241 0.00036078 -5.1708e-07)
(0.0054656 0.00077434 -1.4919e-06)
(0.0062282 0.00063278 -2.5046e-06)
(0.006573 7.9691e-05 -3.3566e-06)
(0.0063415 -0.00039559 -4.44e-06)
(0.0058308 -0.00051878 -5.4644e-06)
(0.0054141 -0.0003218 -6.3766e-06)
(0.0052712 1.2326e-05 -7.4922e-06)
(0.0054174 0.00037438 -8.2086e-06)
(0.0058283 0.000723 -8.9833e-06)
(0.0064857 0.0010597 -9.7561e-06)
(0.0073866 0.0014138 -1.045e-05)
(0.0071178 -0.0018115 0.00033315)
(0.0062436 -0.0013762 0.00024999)
(0.005585 -0.00096198 0.00016973)
(0.0051621 -0.00052646 8.3367e-05)
(0.0050246 -3.8779e-05 -1.3218e-05)
(0.0052351 0.00049553 -0.00011708)
(0.0058173 0.00093026 -0.00019809)
(0.0065565 0.00082599 -0.00017268)
(0.0069299 -5.2341e-05 -2.9532e-07)
(0.0064684 -0.0011962 0.00022402)
(0.0053763 -0.001529 0.00029016)
(0.004444 -0.000721 0.00013727)
(0.0072276 -0.0016438 0.00031369)
(0.006342 -0.0012457 0.00023545)
(0.0056821 -0.00086592 0.0001614)
(0.0052649 -0.00046385 8.291e-05)
(0.0051312 -1.2282e-05 -7.3342e-06)
(0.0053267 0.00046613 -0.00011408)
(0.0058414 0.00082412 -0.0002003)
(0.0064596 0.00070752 -0.00018017)
(0.0067457 -3.9521e-05 -8.1914e-06)
(0.0063393 -0.00098313 0.00021481)
(0.005424 -0.00126 0.00028577)
(0.0046509 -0.00059717 0.00013691)
(0.0072732 -0.0014545 0.00071774)
(0.0063832 -0.0010998 0.00054036)
(0.0057251 -0.0007619 0.00037307)
(0.0053118 -0.00040548 0.00019912)
(0.0051762 -1.0408e-05 4.5937e-06)
(0.0053577 0.00040317 -0.00020662)
(0.005842 0.00070423 -0.00037198)
(0.006422 0.00059712 -0.00032598)
(0.0066859 -3.7327e-05 1.2909e-05)
(0.0062999 -0.00082978 0.00044622)
(0.0054398 -0.0010608 0.00057545)
(0.0047153 -0.00050241 0.00027246)
(0.0073058 -0.0012507 0.00096359)
(0.0064126 -0.00094452 0.00072496)
(0.0057546 -0.00065422 0.00049916)
(0.0053425 -0.00035174 0.00026432)
(0.0052079 -2.1577e-05 6.144e-06)
(0.0053829 0.00032548 -0.00026416)
(0.0058459 0.00058532 -0.00047165)
(0.0063966 0.00050271 -0.00040866)
(0.0066439 -4.3548e-05 3.0071e-05)
(0.0062718 -0.00073535 0.0005924)
(0.00545 -0.0009326 0.00075323)
(0.004761 -0.0004386 0.00035386)
(0.0073064 -0.00098166 0.0012327)
(0.0064132 -0.00074135 0.00092814)
(0.0057552 -0.00051381 0.00063947)
(0.005343 -0.00027727 0.00033863)
(0.0052085 -1.7472e-05 1.0082e-05)
(0.0053836 0.00025456 -0.00033529)
(0.0058465 0.00046374 -0.00059344)
(0.0063972 0.00040234 -0.00050927)
(0.0066444 -3.4869e-05 3.8487e-05)
(0.0062724 -0.00059592 0.00073159)
(0.0054506 -0.00075531 0.00093036)
(0.0047616 -0.00035459 0.00043784)
(0.0072751 -0.00073483 0.0014367)
(0.0063851 -0.0005558 0.0010836)
(0.005727 -0.00038684 0.00074732)
(0.0053138 -0.00021128 0.00039255)
(0.0051782 -1.5841e-05 -1.1941e-06)
(0.0053596 0.00019824 -0.00041265)
(0.0058439 0.00036522 -0.00071204)
(0.0064237 0.00032059 -0.00060355)
(0.0066875 -1.7154e-05 3.2238e-05)
(0.0063015 -0.00044913 0.0008261)
(0.0054415 -0.00057708 0.0010586)
(0.004717 -0.00027304 0.00050166)