/*--------------------------------*- C++ -*----------------------------------*\
| =========                 |                                                 |
| \\      /  F ield         | foam-extend: Open Source CFD                    |
|  \\    /   O peration     | Version:     4.1-20200408                       |
|   \\  /    A nd           | Web:         http://www.foam-extend.org         |
|    \\/     M anipulation  |                                                 |
\*---------------------------------------------------------------------------*/
FoamFile
{
    version     2.0;
    format      ascii;
    class       volScalarField;
    location    "0.0510000";
    object      ccy;
}
// * * * * * * * * * * * * * * * * * * * * * * * * * * * * * * * * * * * * * //

dimensions      [0 1 0 0 0 0 0];

internalField   nonuniform List<scalar> 
1952
(
7.04549e-05
0.000114744
0.000159612
0.000204677
0.000249836
0.000295049
0.000340299
0.000385579
0.000430882
0.000476209
0.000521563
0.000566945
0.000612362
0.000657818
0.000703304
3.01944e-05
7.04486e-05
0.000114733
0.000159597
0.000204658
0.000249814
0.000295024
0.000340271
0.000385548
0.00043085
0.000476177
0.000521528
0.000566913
0.00061233
0.000657788
0.000703276
3.01919e-05
7.04453e-05
0.00011473
0.000159591
0.000204651
0.000249805
0.000295013
0.000340259
0.000385534
0.000430834
0.000476159
0.00052151
0.00056689
0.000612308
0.000657763
0.000703249
3.01913e-05
7.04441e-05
0.000114724
0.000159586
0.000204643
0.000249795
0.000295002
0.000340247
0.000385519
0.000430817
0.000476141
0.00052149
0.000566869
0.000612283
0.000657737
0.000703221
3.01892e-05
7.04406e-05
0.00011472
0.000159579
0.000204636
0.000249785
0.00029499
0.000340232
0.000385504
0.0004308
0.000476121
0.000521468
0.000566846
0.000612258
0.00065771
0.000703193
3.01885e-05
7.04378e-05
0.000114716
0.000159573
0.000204627
0.000249775
0.000294978
0.000340218
0.000385488
0.000430783
0.000476101
0.000521446
0.000566822
0.000612233
0.000657683
0.000703163
3.01873e-05
7.04348e-05
0.000114711
0.000159566
0.000204618
0.000249764
0.000294965
0.000340205
0.000385472
0.000430763
0.000476082
0.000521424
0.000566798
0.000612207
0.000657655
0.000703134
3.0186e-05
7.04317e-05
0.000114706
0.00015956
0.000204608
0.000249754
0.000294953
0.000340189
0.000385455
0.000430746
0.00047606
0.000521403
0.000566774
0.000612181
0.000657627
0.000703104
3.01847e-05
7.04287e-05
0.000114701
0.000159552
0.0002046
0.000249742
0.00029494
0.000340174
0.000385439
0.000430726
0.000476041
0.00052138
0.000566749
0.000612155
0.000657599
0.000703074
3.01839e-05
7.04256e-05
0.000114696
0.000159545
0.000204592
0.00024973
0.000294927
0.00034016
0.000385421
0.000430708
0.000476019
0.000521357
0.000566725
0.000612128
0.000657571
0.000703044
3.01816e-05
7.04224e-05
0.000114691
0.000159537
0.000204582
0.000249721
0.000294914
0.000340144
0.000385403
0.00043069
0.000475998
0.000521334
0.0005667
0.000612102
0.000657543
0.000703014
3.01807e-05
7.04193e-05
0.000114685
0.000159531
0.000204573
0.000249709
0.000294901
0.000340129
0.000385388
0.00043067
0.000475977
0.000521311
0.000566675
0.000612075
0.000657514
0.000702985
3.01793e-05
7.04161e-05
0.00011468
0.000159524
0.000204564
0.000249698
0.000294887
0.000340115
0.00038537
0.000430651
0.000475957
0.000521289
0.000566651
0.000612048
0.000657487
0.000702953
3.01785e-05
7.0413e-05
0.000114676
0.000159516
0.000204555
0.000249686
0.000294875
0.000340099
0.000385353
0.000430632
0.000475936
0.000521266
0.000566626
0.000612023
0.000657457
0.000702924
3.01762e-05
7.04099e-05
0.00011467
0.00015951
0.000204545
0.000249677
0.000294861
0.000340084
0.000385336
0.000430613
0.000475915
0.000521243
0.000566601
0.000611995
0.000657429
0.000702893
3.01753e-05
7.04068e-05
0.000114665
0.000159502
0.000204537
0.000249665
0.000294848
0.00034007
0.00038532
0.000430595
0.000475894
0.00052122
0.000566577
0.000611968
0.000657402
0.000702863
3.01745e-05
7.04037e-05
0.00011466
0.000159496
0.000204527
0.000249655
0.000294837
0.000340054
0.000385304
0.000430576
0.000475874
0.000521198
0.000566552
0.000611943
0.000657373
0.000702833
3.01722e-05
7.04006e-05
0.000114655
0.000159488
0.000204519
0.000249644
0.000294823
0.00034004
0.000385286
0.000430557
0.000475853
0.000521176
0.000566528
0.000611917
0.000657344
0.000702804
3.01719e-05
7.03976e-05
0.00011465
0.000159482
0.000204511
0.000249633
0.000294811
0.000340026
0.00038527
0.000430539
0.000475834
0.000521153
0.000566505
0.00061189
0.000657317
0.000702772
3.01696e-05
7.03946e-05
0.000114645
0.000159475
0.000204502
0.000249623
0.000294798
0.000340011
0.000385254
0.000430522
0.000475812
0.000521132
0.000566479
0.000611865
0.000657288
0.000702744
3.01693e-05
7.03917e-05
0.000114641
0.000159468
0.000204492
0.000249613
0.000294786
0.000339997
0.000385238
0.000430503
0.000475793
0.000521109
0.000566457
0.000611838
0.000657262
0.000702713
3.01675e-05
7.03887e-05
0.000114636
0.000159462
0.000204485
0.000249601
0.000294774
0.000339983
0.000385221
0.000430485
0.000475774
0.000521087
0.000566432
0.000611814
0.000657233
0.000702684
3.01663e-05
7.03858e-05
0.000114631
0.000159455
0.000204476
0.000249591
0.000294761
0.00033997
0.000385205
0.000430466
0.000475753
0.000521066
0.000566408
0.000611787
0.000657205
0.000702655
3.0165e-05
7.03829e-05
0.000114627
0.000159448
0.000204467
0.000249581
0.000294749
0.000339955
0.000385189
0.00043045
0.000475733
0.000521044
0.000566385
0.000611761
0.000657179
0.000702624
3.01633e-05
7.038e-05
0.000114622
0.000159442
0.000204459
0.000249571
0.000294737
0.000339941
0.000385173
0.000430431
0.000475713
0.000521022
0.000566361
0.000611737
0.000657151
0.000702595
3.0163e-05
7.03772e-05
0.000114616
0.000159436
0.000204451
0.000249561
0.000294725
0.000339927
0.000385157
0.000430414
0.000475694
0.000521001
0.000566337
0.00061171
0.000657123
0.000702566
3.01613e-05
7.03743e-05
0.000114613
0.000159428
0.000204443
0.00024955
0.000294713
0.000339914
0.000385142
0.000430395
0.000475675
0.000520979
0.000566314
0.000611685
0.000657095
0.000702536
3.01596e-05
7.03714e-05
0.000114608
0.000159422
0.000204433
0.000249541
0.000294701
0.000339899
0.000385126
0.000430379
0.000475654
0.000520958
0.00056629
0.000611659
0.000657068
0.000702507
3.01593e-05
7.03691e-05
0.000114602
0.000159416
0.000204425
0.00024953
0.000294688
0.000339884
0.000385111
0.00043036
0.000475636
0.000520935
0.000566267
0.000611634
0.00065704
0.000702476
3.0157e-05
7.03646e-05
0.000114598
0.000159408
0.000204418
0.000249519
0.000294676
0.00033987
0.000385093
0.000430343
0.000475615
0.000520914
0.000566242
0.000611607
0.000657012
0.000702445
3.01567e-05
7.03628e-05
0.000114592
0.000159402
0.000204408
0.000249508
0.000294663
0.000339854
0.000385076
0.000430324
0.000475594
0.000520891
0.000566218
0.000611581
0.000656982
0.000702415
3.01543e-05
7.03579e-05
0.000114588
0.000159394
0.000204398
0.000249496
0.000294649
0.00033984
0.000385059
0.000430303
0.000475573
0.000520869
0.000566192
0.000611552
0.000656954
0.000702382
3.01539e-05
7.03549e-05
0.000114581
0.000159385
0.000204386
0.000249484
0.000294634
0.000339822
0.00038504
0.000430283
0.00047555
0.000520843
0.000566166
0.000611525
0.000656922
0.000702349
3.01518e-05
7.03508e-05
0.000114574
0.000159376
0.000204376
0.000249469
0.000294618
0.000339804
0.00038502
0.00043026
0.000475525
0.000520817
0.000566138
0.000611494
0.000656889
0.000702314
3.015e-05
7.03461e-05
0.000114567
0.000159366
0.000204362
0.000249453
0.000294599
0.000339783
0.000384997
0.000430235
0.000475499
0.000520788
0.000566107
0.000611462
0.000656855
0.000702278
3.0148e-05
7.03407e-05
0.000114558
0.000159354
0.000204347
0.000249435
0.000294578
0.000339761
0.000384971
0.000430208
0.000475469
0.000520757
0.000566074
0.000611426
0.000656818
0.000702239
3.01456e-05
7.03346e-05
0.000114548
0.00015934
0.000204329
0.000249414
0.000294555
0.000339733
0.000384942
0.000430177
0.000475436
0.000520722
0.000566036
0.000611388
0.000656778
0.000702196
3.01429e-05
7.03268e-05
0.000114536
0.000159323
0.000204309
0.00024939
0.000294527
0.000339703
0.000384908
0.00043014
0.000475397
0.000520681
0.000565995
0.000611344
0.000656732
0.000702149
3.01397e-05
7.03179e-05
0.000114521
0.000159304
0.000204284
0.000249361
0.000294494
0.000339666
0.000384868
0.000430098
0.000475353
0.000520635
0.000565947
0.000611295
0.000656681
0.000702096
3.01359e-05
7.03076e-05
0.000114505
0.000159281
0.000204256
0.000249326
0.000294455
0.000339622
0.000384821
0.000430048
0.0004753
0.000520581
0.000565892
0.000611239
0.000656624
0.000702036
3.01314e-05
7.02951e-05
0.000114485
0.000159254
0.000204221
0.000249286
0.000294408
0.00033957
0.000384765
0.000429988
0.000475238
0.000520517
0.000565826
0.000611172
0.000656557
0.000701968
3.01261e-05
7.02806e-05
0.000114461
0.000159221
0.000204181
0.000249237
0.000294352
0.000339509
0.000384698
0.000429917
0.000475164
0.000520441
0.000565749
0.000611094
0.000656478
0.000701889
3.01198e-05
7.02636e-05
0.000114434
0.000159184
0.000204133
0.000249181
0.000294287
0.000339436
0.000384619
0.000429833
0.000475076
0.000520349
0.000565656
0.000611001
0.000656385
0.000701796
3.01125e-05
7.0244e-05
0.000114402
0.00015914
0.000204078
0.000249115
0.000294211
0.000339351
0.000384526
0.000429732
0.00047497
0.00052024
0.000565545
0.00061089
0.000656274
0.000701685
3.01041e-05
7.02219e-05
0.000114366
0.000159091
0.000204015
0.000249039
0.000294124
0.000339252
0.000384417
0.000429615
0.000474845
0.000520109
0.000565411
0.000610753
0.000656138
0.000701551
3.00945e-05
7.01973e-05
0.000114326
0.000159035
0.000203945
0.000248955
0.000294025
0.00033914
0.000384292
0.000429479
0.000474699
0.000519954
0.000565249
0.000610586
0.000655967
0.000701378
3.0084e-05
7.01705e-05
0.000114283
0.000158975
0.000203869
0.000248861
0.000293916
0.000339015
0.000384153
0.000429325
0.000474532
0.000519775
0.000565058
0.000610386
0.000655757
0.000701159
3.00726e-05
7.01424e-05
0.000114237
0.000158911
0.000203787
0.000248762
0.000293799
0.000338881
0.000384001
0.000429157
0.000474348
0.000519576
0.000564844
0.000610158
0.000655516
0.000700904
3.00605e-05
7.01135e-05
0.00011419
0.000158846
0.000203703
0.000248659
0.000293677
0.000338741
0.000383843
0.000428981
0.000474154
0.000519364
0.000564616
0.000609914
0.000655258
0.000700633
3.00481e-05
7.00852e-05
0.000114144
0.000158782
0.00020362
0.000248558
0.000293557
0.000338602
0.000383685
0.000428803
0.000473957
0.000519149
0.000564383
0.000609666
0.000654996
0.00070036
3.0036e-05
7.00589e-05
0.000114101
0.000158722
0.000203543
0.000248463
0.000293444
0.00033847
0.000383534
0.000428633
0.000473768
0.000518941
0.000564158
0.000609425
0.000654742
0.000700099
3.00248e-05
7.00361e-05
0.000114063
0.000158669
0.000203476
0.00024838
0.000293345
0.000338354
0.000383401
0.000428482
0.000473598
0.000518753
0.000563953
0.000609204
0.000654508
0.000699866
3.0015e-05
7.00187e-05
0.000114035
0.00015863
0.000203424
0.000248316
0.000293269
0.000338264
0.000383297
0.000428362
0.000473462
0.0005186
0.000563783
0.000609019
0.000654317
0.000699686
3.00076e-05
7.00085e-05
0.000114018
0.000158606
0.000203393
0.000248278
0.000293222
0.000338208
0.00038323
0.000428285
0.000473374
0.0005185
0.000563673
0.000608902
0.000654206
0.000699603
3.00032e-05
7.00068e-05
0.000114015
0.000158602
0.000203387
0.000248269
0.000293211
0.000338195
0.000383216
0.000428269
0.000473358
0.000518487
0.000563667
0.000608909
0.000654239
0.000699677
3.00025e-05
7.00154e-05
0.000114029
0.000158621
0.000203413
0.000248302
0.000293252
0.000338247
0.000383281
0.000428352
0.000473462
0.000518617
0.000563829
0.000609109
0.000654485
0.000699977
3.00062e-05
7.0039e-05
0.000114069
0.000158678
0.000203489
0.000248401
0.000293377
0.000338403
0.000383474
0.000428586
0.000473744
0.000518951
0.00056422
0.00060956
0.000654999
0.000700552
3.00162e-05
7.00878e-05
0.00011415
0.000158795
0.000203646
0.000248601
0.000293627
0.000338708
0.000383839
0.000429018
0.000474248
0.000519531
0.000564877
0.000610295
0.000655807
0.000701424
3.00369e-05
7.01727e-05
0.00011429
0.000158995
0.000203908
0.000248933
0.000294032
0.000339191
0.000384406
0.000429672
0.000474993
0.000520369
0.000565808
0.000611313
0.000656903
0.000702582
3.0073e-05
7.03005e-05
0.0001145
0.000159289
0.000204291
0.000249408
0.000294602
0.00033986
0.000385176
0.000430547
0.000475972
0.000521453
0.000566992
0.00061259
0.000658258
0.000703995
3.01276e-05
7.04716e-05
0.000114779
0.000159678
0.000204792
0.00025002
0.000295328
0.000340701
0.000386132
0.000431618
0.000477157
0.000522748
0.000568391
0.000614083
0.000659828
0.000705619
3.02007e-05
7.06788e-05
0.000115116
0.000160145
0.000205389
0.000250746
0.000296182
0.000341681
0.000387236
0.000432843
0.0004785
0.000524205
0.000569953
0.000615739
0.000661559
0.000707401
3.02896e-05
7.091e-05
0.000115491
0.000160665
0.00020605
0.000251547
0.000297119
0.000342751
0.000388436
0.000434169
0.000479947
0.000525765
0.000571618
0.000617498
0.000663392
0.000709284
3.03889e-05
7.11505e-05
0.000115881
0.000161204
0.000206737
0.000252379
0.000298091
0.000343859
0.000389676
0.000435536
0.000481434
0.000527367
0.000573325
0.000619297
0.000665266
0.00071121
3.04921e-05
7.13856e-05
0.000116263
0.000161733
0.000207412
0.000253196
0.000299048
0.000344952
0.0003909
0.000436886
0.000482904
0.00052895
0.000575011
0.000621075
0.00066712
0.000713119
3.0593e-05
7.16038e-05
0.000116618
0.000162226
0.000208042
0.000253962
0.000299948
0.000345983
0.000392058
0.000438166
0.000484301
0.000530457
0.00057662
0.000622776
0.000668898
0.000714958
3.06866e-05
7.17981e-05
0.000116934
0.000162666
0.000208606
0.00025465
0.000300759
0.000346916
0.000393109
0.000439332
0.000485579
0.000531842
0.000578105
0.000624353
0.000670554
0.000716679
3.07699e-05
7.19658e-05
0.000117208
0.000163046
0.000209094
0.000255245
0.000301462
0.000347726
0.000394027
0.000440356
0.000486706
0.000533069
0.000579428
0.000625766
0.000672048
0.000718243
3.08418e-05
7.21081e-05
0.000117439
0.000163367
0.000209504
0.000255746
0.000302054
0.000348408
0.0003948
0.000441221
0.000487662
0.000534116
0.000580565
0.000626989
0.000673352
0.000719623
3.09029e-05
7.22277e-05
0.000117633
0.000163636
0.000209847
0.000256162
0.000302541
0.000348968
0.000395432
0.000441927
0.000488443
0.000534974
0.000581502
0.000628006
0.00067445
0.000720801
3.09543e-05
7.23276e-05
0.000117795
0.00016386
0.000210131
0.000256504
0.000302941
0.000349423
0.000395941
0.000442489
0.000489062
0.000535651
0.00058224
0.000628813
0.000675333
0.000721769
3.09972e-05
7.241e-05
0.000117929
0.000164046
0.000210367
0.000256789
0.00030327
0.000349794
0.000396352
0.000442937
0.000489545
0.00053617
0.0005828
0.000629423
0.00067601
0.000722529
3.10325e-05
7.24784e-05
0.00011804
0.000164199
0.000210563
0.000257024
0.000303543
0.000350101
0.00039669
0.000443302
0.000489933
0.000536578
0.00058323
0.000629881
0.000676515
0.000723104
3.10618e-05
7.25365e-05
0.000118133
0.000164328
0.000210725
0.000257219
0.000303769
0.000350356
0.00039697
0.000443605
0.000490254
0.000536914
0.000583578
0.000630242
0.000676899
0.000723534
3.10868e-05
7.25858e-05
0.000118213
0.000164437
0.000210862
0.000257383
0.000303958
0.000350569
0.000397204
0.000443858
0.000490522
0.000537194
0.000583868
0.000630541
0.000677209
0.000723866
3.11081e-05
7.26275e-05
0.00011828
0.000164529
0.000210978
0.000257522
0.000304119
0.000350748
0.000397401
0.000444068
0.000490745
0.000537427
0.000584111
0.000630791
0.000677467
0.000724135
3.11259e-05
7.26623e-05
0.000118337
0.000164607
0.000211076
0.000257639
0.000304252
0.000350898
0.000397564
0.000444243
0.00049093
0.000537621
0.000584312
0.000631001
0.000677685
0.00072436
3.1141e-05
7.2691e-05
0.000118384
0.000164671
0.000211158
0.000257735
0.000304363
0.000351021
0.000397698
0.000444387
0.000491082
0.000537782
0.000584481
0.000631177
0.000677866
0.000724551
3.11536e-05
7.27154e-05
0.000118423
0.000164725
0.000211223
0.000257814
0.000304454
0.000351122
0.000397809
0.000444506
0.000491209
0.000537915
0.00058462
0.000631322
0.000678022
0.000724713
3.11638e-05
7.27358e-05
0.000118454
0.000164767
0.000211279
0.000257879
0.000304528
0.000351205
0.000397899
0.000444604
0.000491314
0.000538025
0.000584737
0.000631446
0.000678152
0.000724852
3.11717e-05
7.27509e-05
0.00011848
0.000164802
0.000211322
0.000257932
0.000304588
0.000351273
0.000397975
0.000444684
0.000491399
0.000538118
0.000584835
0.000631549
0.000678262
0.000724969
3.11797e-05
7.27638e-05
0.000118499
0.000164832
0.000211358
0.000257975
0.000304638
0.000351328
0.000398034
0.000444751
0.000491471
0.000538195
0.000584916
0.000631639
0.000678356
0.000725071
3.11847e-05
7.27749e-05
0.000118517
0.000164854
0.000211388
0.00025801
0.000304677
0.000351373
0.000398085
0.000444805
0.00049153
0.000538258
0.000584987
0.000631713
0.000678438
0.00072516
3.11891e-05
7.27816e-05
0.000118531
0.000164872
0.000211411
0.000258037
0.000304711
0.00035141
0.000398126
0.000444849
0.000491581
0.000538312
0.000585045
0.000631777
0.000678508
0.000725237
3.11932e-05
7.2789e-05
0.000118542
0.000164887
0.000211429
0.00025806
0.000304737
0.00035144
0.00039816
0.000444888
0.000491622
0.000538359
0.000585096
0.000631833
0.000678569
0.000725304
3.11955e-05
7.27952e-05
0.00011855
0.000164899
0.000211444
0.000258079
0.000304759
0.000351467
0.000398188
0.000444921
0.000491657
0.000538398
0.00058514
0.000631882
0.000678623
0.000725364
3.11973e-05
7.27979e-05
0.000118557
0.00016491
0.000211457
0.000258094
0.000304777
0.000351486
0.000398212
0.000444947
0.000491688
0.000538432
0.000585178
0.000631925
0.000678671
0.000725416
3.12003e-05
7.28031e-05
0.000118563
0.000164916
0.000211468
0.000258106
0.000304793
0.000351505
0.000398233
0.00044497
0.000491715
0.000538463
0.000585212
0.000631962
0.000678713
0.000725465
3.12012e-05
7.28053e-05
0.000118568
0.000164925
0.000211477
0.000258118
0.000304805
0.000351519
0.00039825
0.000444993
0.000491738
0.00053849
0.000585242
0.000631997
0.000678753
0.000725508
3.12025e-05
7.28086e-05
0.000118572
0.00016493
0.000211485
0.000258127
0.000304816
0.000351534
0.000398267
0.000445009
0.00049176
0.000538514
0.000585271
0.000632028
0.000678788
0.000725549
3.1203e-05
7.28092e-05
0.000118576
0.000164935
0.000211491
0.000258135
0.000304828
0.000351545
0.000398281
0.000445026
0.00049178
0.000538536
0.000585296
0.000632059
0.000678822
0.000725584
3.12051e-05
7.28128e-05
0.000118578
0.00016494
0.000211496
0.000258143
0.000304836
0.000351556
0.000398294
0.000445043
0.000491797
0.000538558
0.00058532
0.000632085
0.000678852
0.000725618
3.12053e-05
7.28138e-05
0.000118583
0.000164943
0.000211503
0.00025815
0.000304844
0.000351568
0.000398306
0.000445056
0.000491814
0.000538576
0.000585343
0.00063211
0.00067888
0.00072565
3.12055e-05
7.28147e-05
0.000118585
0.000164947
0.000211508
0.000258156
0.000304854
0.000351577
0.000398318
0.000445071
0.00049183
0.000538595
0.000585364
0.000632134
0.000678907
0.00072568
3.12074e-05
7.28179e-05
0.000118586
0.000164952
0.000211513
0.000258163
0.000304861
0.000351586
0.000398329
0.000445083
0.000491845
0.000538613
0.000585383
0.000632157
0.000678932
0.00072571
3.1207e-05
7.28179e-05
0.000118591
0.000164955
0.000211518
0.000258169
0.000304868
0.000351596
0.000398341
0.000445096
0.00049186
0.00053863
0.000585402
0.000632179
0.000678957
0.000725736
3.12088e-05
7.28211e-05
0.000118592
0.00016496
0.000211522
0.000258175
0.000304876
0.000351605
0.000398351
0.000445109
0.000491874
0.000538647
0.000585421
0.0006322
0.00067898
0.000725762
3.12084e-05
7.28219e-05
0.000118595
0.000164962
0.000211527
0.000258182
0.000304883
0.000351613
0.000398361
0.000445121
0.000491888
0.000538662
0.000585439
0.00063222
0.000679004
0.000725786
3.12102e-05
7.28235e-05
0.000118598
0.000164967
0.000211532
0.000258187
0.00030489
0.000351622
0.000398371
0.000445133
0.000491903
0.000538677
0.000585458
0.000632239
0.000679024
0.00072581
3.12103e-05
7.2825e-05
0.000118601
0.000164969
0.000211538
0.000258194
0.000304898
0.00035163
0.000398382
0.000445144
0.000491915
0.000538693
0.000585474
0.000632258
0.000679045
0.000725833
3.12104e-05
7.28258e-05
0.000118603
0.000164974
0.000211541
0.0002582
0.000304906
0.000351639
0.000398391
0.000445156
0.000491928
0.000538707
0.00058549
0.000632277
0.000679065
0.000725856
3.12122e-05
7.2829e-05
0.000118605
0.000164977
0.000211546
0.000258205
0.000304912
0.000351647
0.000398401
0.000445167
0.000491942
0.000538721
0.000585506
0.000632294
0.000679085
0.000725876
3.12117e-05
7.28298e-05
0.000118607
0.00016498
0.000211552
0.000258211
0.000304918
0.000351656
0.000398411
0.000445178
0.000491954
0.000538735
0.000585522
0.000632311
0.000679104
0.000725896
3.12135e-05
7.28313e-05
0.00011861
0.000164984
0.000211556
0.000258217
0.000304927
0.000351663
0.00039842
0.000445189
0.000491966
0.000538749
0.000585537
0.000632328
0.000679122
0.000725916
3.12136e-05
7.28328e-05
0.000118614
0.000164988
0.000211559
0.000258223
0.000304932
0.000351673
0.00039843
0.000445199
0.000491978
0.000538762
0.000585552
0.000632344
0.00067914
0.000725936
3.12143e-05
7.28343e-05
0.000118615
0.000164991
0.000211566
0.000258227
0.00030494
0.000351679
0.00039844
0.000445209
0.00049199
0.000538775
0.000585566
0.000632359
0.000679156
0.000725954
3.12149e-05
7.28359e-05
0.000118617
0.000164995
0.000211569
0.000258235
0.000304945
0.000351688
0.000398447
0.000445219
0.000492
0.000538788
0.000585579
0.000632374
0.000679173
0.000725971
3.12155e-05
7.28373e-05
0.000118621
0.000164997
0.000211574
0.000258239
0.000304953
0.000351694
0.000398456
0.00044523
0.00049201
0.0005388
0.000585592
0.000632389
0.000679189
0.000725989
3.12162e-05
7.28387e-05
0.000118623
0.000165002
0.000211578
0.000258244
0.000304959
0.000351702
0.000398464
0.000445238
0.000492022
0.000538811
0.000585605
0.000632403
0.000679204
0.000726004
3.12167e-05
7.28392e-05
0.000118625
0.000165004
0.000211582
0.000258249
0.000304964
0.000351709
0.000398471
0.000445247
0.000492032
0.000538821
0.000585618
0.000632417
0.000679217
0.000726021
3.12173e-05
7.28421e-05
0.000118627
0.000165007
0.000211585
0.000258253
0.00030497
0.000351714
0.00039848
0.000445256
0.000492041
0.000538833
0.000585629
0.000632429
0.000679233
0.000726035
3.12178e-05
7.28424e-05
0.000118629
0.00016501
0.000211589
0.000258258
0.000304975
0.000351722
0.000398486
0.000445263
0.00049205
0.000538844
0.00058564
0.000632441
0.000679244
0.000726049
3.12183e-05
7.28435e-05
0.00011863
0.000165012
0.000211592
0.000258262
0.00030498
0.000351727
0.000398493
0.000445271
0.000492058
0.000538852
0.00058565
0.000632453
0.000679258
0.000726062
3.12188e-05
7.28444e-05
0.000118632
0.000165014
0.000211595
0.000258265
0.000304983
0.000351732
0.000398498
0.000445278
0.000492066
0.00053886
0.00058566
0.000632463
0.000679269
0.000726075
3.12192e-05
7.28453e-05
0.000118634
0.000165016
0.000211597
0.000258268
0.000304989
0.000351737
0.000398504
0.000445284
0.000492072
0.000538868
0.000585668
0.000632473
0.000679278
0.000726086
3.12196e-05
7.2846e-05
0.000118635
0.000165018
0.0002116
0.000258272
0.000304991
0.00035174
0.000398508
0.000445289
0.000492078
0.000538875
0.000585676
0.00063248
0.000679289
0.000726097
3.12199e-05
7.28466e-05
0.000118636
0.000165019
0.000211601
0.000258274
0.000304994
0.000351743
0.000398512
0.000445293
0.000492083
0.00053888
0.000585682
0.000632489
0.000679296
0.000726105
3.12201e-05
7.28471e-05
0.000118636
0.00016502
0.000211603
0.000258275
0.000304996
0.000351745
0.000398514
0.000445296
0.000492087
0.000538884
0.000585687
0.000632494
0.000679303
0.000726113
3.12203e-05
7.28473e-05
0.000118637
0.000165021
0.000211604
0.000258276
0.000304997
0.000351747
0.000398516
0.000445298
0.000492089
0.000538887
0.00058569
0.000632497
0.000679307
0.000726119
3.12204e-05
7.28475e-05
0.000118637
0.000165022
0.000211604
0.000258277
0.000304997
0.000351748
0.000398517
0.000445299
0.00049209
0.000538889
0.000585692
0.000632499
0.000679309
0.000726121
3.12205e-05
7.28475e-05
0.000118637
0.000165022
0.000211604
0.000258277
0.000304998
0.000351748
0.000398518
0.0004453
0.000492091
0.000538889
0.000585692
0.000632499
0.00067931
0.000726122
3.12205e-05
7.28475e-05
0.000118637
0.000165022
0.000211604
0.000258277
0.000304998
0.000351748
0.000398518
0.0004453
0.000492091
0.000538889
0.000585692
0.000632499
0.00067931
0.000726122
3.12205e-05
)
;

boundaryField
{
    wireUpstream
    {
        type            calculated;
        value           nonuniform List<scalar> 
16
(
7.28475e-05
0.000118637
0.000165022
0.000211604
0.000258277
0.000304998
0.000351748
0.000398518
0.0004453
0.000492091
0.000538889
0.000585692
0.000632499
0.00067931
0.000726122
3.12205e-05
)
;
    }
    wireDownstream
    {
        type            calculated;
        value           nonuniform List<scalar> 
16
(
7.04521e-05
0.000114739
0.000159605
0.000204669
0.000249826
0.000295038
0.000340288
0.000385567
0.000430871
0.000476201
0.000521556
0.000566941
0.000612362
0.000657823
0.000703314
3.01934e-05
)
;
    }
    wireTopContact
    {
        type            calculated;
        value           nonuniform List<scalar> 
122
(
0.000725787
0.000725759
0.000725731
0.000725701
0.000725671
0.000725641
0.000725611
0.00072558
0.000725549
0.000725518
0.000725487
0.000725456
0.000725424
0.000725393
0.000725362
0.000725331
0.0007253
0.000725269
0.000725239
0.000725208
0.000725177
0.000725147
0.000725116
0.000725085
0.000725055
0.000725024
0.000724993
0.000724962
0.00072493
0.000724898
0.000724865
0.000724831
0.000724795
0.000724757
0.000724716
0.000724672
0.000724624
0.00072457
0.000724509
0.00072444
0.00072436
0.000724267
0.000724156
0.000724021
0.000723847
0.000723625
0.000723365
0.000723089
0.000722813
0.000722551
0.000722323
0.000722157
0.000722096
0.000722199
0.000722529
0.000723135
0.000724035
0.000725218
0.000726652
0.000728294
0.000730092
0.000731991
0.000733933
0.000735862
0.000737724
0.000739471
0.000741066
0.000742481
0.000743698
0.00074471
0.000745516
0.000746132
0.000746594
0.000746944
0.000747221
0.000747451
0.000747646
0.000747813
0.000747955
0.000748078
0.000748184
0.000748276
0.000748357
0.000748427
0.00074849
0.000748546
0.000748596
0.000748642
0.000748684
0.000748723
0.000748759
0.000748792
0.000748824
0.000748854
0.000748882
0.000748909
0.000748935
0.00074896
0.000748984
0.000749007
0.000749029
0.00074905
0.00074907
0.00074909
0.000749109
0.000749127
0.000749145
0.000749162
0.000749178
0.000749194
0.000749208
0.000749222
0.000749235
0.000749247
0.000749257
0.000749267
0.000749275
0.00074928
0.000749283
0.000749284
0.000749284
0.000725813
)
;
    }
    front
    {
        type            wedge;
    }
    back
    {
        type            wedge;
    }
}


// ************************************************************************* //
