/*--------------------------------*- C++ -*----------------------------------*\
| =========                 |                                                 |
| \\      /  F ield         | foam-extend: Open Source CFD                    |
|  \\    /   O peration     | Version:     4.1-20200408                       |
|   \\  /    A nd           | Web:         http://www.foam-extend.org         |
|    \\/     M anipulation  |                                                 |
\*---------------------------------------------------------------------------*/
FoamFile
{
    version     2.0;
    format      ascii;
    class       volSymmTensorField;
    location    "0.0510000";
    object      sigmaCauchy;
}
// * * * * * * * * * * * * * * * * * * * * * * * * * * * * * * * * * * * * * //

dimensions      [1 -1 -2 0 0 0 0];

internalField   nonuniform List<symmTensor> 
1952
(
(-7.99802e+08 662798 -4.82431 -3.0558e+08 -1.05027 -2.99626e+08)
(-7.70546e+08 -178089 -3.31772 -3.01967e+08 2.74795 -2.83961e+08)
(-7.35336e+08 1.11101e+06 3.52334 -2.91835e+08 7.73547 -2.61434e+08)
(-6.84967e+08 118469 10.0221 -2.83614e+08 -8.14813 -2.35314e+08)
(-6.19918e+08 1.58227e+06 -2.91117 -2.70078e+08 -20.5007 -2.0428e+08)
(-5.44999e+08 656414 -14.8435 -2.58374e+08 2.30082 -1.69328e+08)
(-4.61251e+08 2.1047e+06 -3.71466 -2.41647e+08 31.2037 -1.30825e+08)
(-3.56398e+08 1.33296e+06 7.60002 -2.27041e+08 -2.69617 -8.87054e+07)
(-2.31659e+08 2.84142e+06 -1.3905 -2.07355e+08 -33.8322 -4.81332e+07)
(-5.95979e+07 2.31117e+06 -7.65623 -1.9108e+08 18.2033 3.52773e+06)
(1.37539e+08 4.00478e+06 1.03997 -1.67736e+08 37.3359 5.10216e+07)
(4.07354e+08 3.70414e+06 4.59367 -1.49629e+08 -18.5527 1.32639e+08)
(7.33303e+08 5.71504e+06 -0.567551 -1.19177e+08 -35.6399 1.97571e+08)
(1.05654e+09 6.28524e+06 -6.745 -9.81485e+07 19.2139 3.45032e+08)
(1.22136e+09 9.40013e+06 -1.76664 -5.38554e+07 12.9446 4.5479e+08)
(-8.07813e+08 -174287 -1.13435 -3.10456e+08 3.50481 -3.08612e+08)
(-7.97792e+08 1.5794e+06 -9.65352 -3.00889e+08 -1.09696 -2.94801e+08)
(-7.6842e+08 7963.15 -6.63705 -2.97073e+08 2.7796 -2.79181e+08)
(-7.3301e+08 2.79612e+06 7.05175 -2.86949e+08 7.94294 -2.56414e+08)
(-6.82495e+08 897831 20.0496 -2.78626e+08 -8.13682 -2.30367e+08)
(-6.17067e+08 4.05687e+06 -5.82605 -2.64964e+08 -20.8726 -1.99046e+08)
(-5.42171e+08 2.29231e+06 -29.7133 -2.53241e+08 2.10167 -1.64126e+08)
(-4.5802e+08 5.41075e+06 -7.43127 -2.36335e+08 31.6227 -1.25311e+08)
(-3.52933e+08 3.91471e+06 15.1916 -2.21782e+08 -2.47443 -8.32488e+07)
(-2.27649e+08 7.10378e+06 -2.78078 -2.02007e+08 -34.2028 -4.24418e+07)
(-5.51153e+07 6.06295e+06 -15.2908 -1.85922e+08 18.134 9.15057e+06)
(1.42408e+08 9.49284e+06 2.08342 -1.62687e+08 37.6524 5.68138e+07)
(4.12583e+08 8.53139e+06 9.08374 -1.45133e+08 -18.5454 1.38273e+08)
(7.3941e+08 1.18285e+07 -1.13289 -1.15125e+08 -35.9608 2.03248e+08)
(1.06287e+09 1.10219e+07 -13.1882 -9.54483e+07 19.1954 3.504e+08)
(1.22854e+09 1.29407e+07 -3.26391 -5.22647e+07 13.0587 4.5993e+08)
(-8.05791e+08 -257214 -2.26836 -3.05576e+08 3.62843 -3.03839e+08)
(-7.96646e+08 1.77735e+06 -9.65964 -2.98379e+08 -1.11321 -2.92236e+08)
(-7.67214e+08 267981 -6.63756 -2.94526e+08 2.80881 -2.76626e+08)
(-7.31707e+08 3.23411e+06 7.05719 -2.84428e+08 8.03849 -2.53788e+08)
(-6.81127e+08 1.37645e+06 20.046 -2.76129e+08 -8.18891 -2.27775e+08)
(-6.15475e+08 4.75303e+06 -5.83091 -2.62478e+08 -21.0501 -1.9638e+08)
(-5.40621e+08 3.0423e+06 -29.7086 -2.50838e+08 2.09208 -1.61507e+08)
(-4.56303e+08 6.33327e+06 -7.44315 -2.3398e+08 31.8394 -1.22643e+08)
(-3.51134e+08 4.8474e+06 15.1562 -2.19583e+08 -2.44062 -8.0673e+07)
(-2.25582e+08 8.18264e+06 -2.78259 -1.99916e+08 -34.3675 -3.98675e+07)
(-5.28342e+07 7.13758e+06 -15.2575 -1.84089e+08 18.1682 1.15952e+07)
(1.44645e+08 1.06068e+07 2.109 -1.61103e+08 37.7974 5.93226e+07)
(4.14695e+08 9.49795e+06 9.00836 -1.43967e+08 -18.5567 1.40567e+08)
(7.41427e+08 1.26817e+07 -1.13256 -1.14369e+08 -36.1016 2.05298e+08)
(1.06382e+09 1.15726e+07 -13.1481 -9.52469e+07 19.1677 3.52019e+08)
(1.22731e+09 1.31107e+07 -3.26305 -5.23903e+07 13.0986 4.60799e+08)
(-8.04646e+08 -196004 -2.27082 -3.03002e+08 3.69446 -3.01297e+08)
(-7.95357e+08 1.93972e+06 -9.66665 -2.96393e+08 -1.12383 -2.90221e+08)
(-7.65869e+08 481984 -6.63856 -2.92531e+08 2.83154 -2.74605e+08)
(-7.30286e+08 3.58788e+06 7.06308 -2.82481e+08 8.10489 -2.51745e+08)
(-6.79608e+08 1.76858e+06 20.043 -2.74195e+08 -8.22885 -2.2574e+08)
(-6.13765e+08 5.29738e+06 -5.837 -2.60621e+08 -21.1715 -1.94325e+08)
(-5.3898e+08 3.59691e+06 -29.7174 -2.49057e+08 2.09981 -1.59373e+08)
(-4.54556e+08 7.00284e+06 -7.45416 -2.32303e+08 31.9967 -1.20529e+08)
(-3.49305e+08 5.52154e+06 15.1206 -2.18049e+08 -2.43603 -7.86393e+07)
(-2.23588e+08 8.92789e+06 -2.78427 -1.9855e+08 -34.4867 -3.79122e+07)
(-5.07283e+07 7.83535e+06 -15.2017 -1.82965e+08 18.2056 1.3406e+07)
(1.46637e+08 1.12815e+07 2.13676 -1.60225e+08 37.8968 6.10772e+07)
(4.16558e+08 1.00042e+07 8.94379 -1.43353e+08 -18.5728 1.42182e+08)
(7.43221e+08 1.30279e+07 -1.13239 -1.14011e+08 -36.1888 2.06729e+08)
(1.06489e+09 1.16342e+07 -13.1193 -9.51217e+07 19.1621 3.53264e+08)
(1.22741e+09 1.30695e+07 -3.2834 -5.23619e+07 13.1242 4.61726e+08)
(-8.03363e+08 -146417 -2.2749 -3.00991e+08 3.74097 -2.9929e+08)
(-7.93828e+08 2.07483e+06 -9.67303 -2.9476e+08 -1.13115 -2.88568e+08)
(-7.64285e+08 659765 -6.63898 -2.90921e+08 2.84901 -2.72943e+08)
(-7.28623e+08 3.87775e+06 7.06827 -2.80907e+08 8.1505 -2.50074e+08)
(-6.77869e+08 2.09008e+06 20.0359 -2.72677e+08 -8.26326 -2.24081e+08)
(-6.11859e+08 5.71288e+06 -5.84298 -2.59181e+08 -21.2533 -1.92672e+08)
(-5.37143e+08 4.02487e+06 -29.7245 -2.47718e+08 2.10685 -1.57723e+08)
(-4.52608e+08 7.48856e+06 -7.47102 -2.31062e+08 32.0961 -1.1889e+08)
(-3.47311e+08 5.9886e+06 15.0761 -2.16956e+08 -2.43722 -7.70799e+07)
(-2.21448e+08 9.38701e+06 -2.78677 -1.97615e+08 -34.5567 -3.64315e+07)
(-4.84726e+07 8.24169e+06 -15.1547 -1.82232e+08 18.2281 1.47664e+07)
(1.48661e+08 1.16252e+07 2.16889 -1.59693e+08 37.9528 6.23715e+07)
(4.18339e+08 1.0224e+07 8.8786 -1.43046e+08 -18.5776 1.43319e+08)
(7.44811e+08 1.31159e+07 -1.1322 -1.13885e+08 -36.2329 2.0768e+08)
(1.06563e+09 1.16087e+07 -13.1058 -9.51261e+07 19.1606 3.5405e+08)
(1.22701e+09 1.30107e+07 -3.30083 -5.2392e+07 13.138 4.62219e+08)
(-8.01847e+08 -105348 -2.27547 -2.99351e+08 3.773 -2.97647e+08)
(-7.9218e+08 2.17251e+06 -9.68086 -2.9355e+08 -1.13575 -2.87336e+08)
(-7.62584e+08 775173 -6.63972 -2.89735e+08 2.85892 -2.71701e+08)
(-7.26851e+08 4.07159e+06 7.07428 -2.7976e+08 8.17583 -2.48825e+08)
(-6.76016e+08 2.28885e+06 20.0286 -2.71587e+08 -8.28339 -2.22837e+08)
(-6.09846e+08 5.9801e+06 -5.84913 -2.58164e+08 -21.2952 -1.91438e+08)
(-5.35232e+08 4.28917e+06 -29.7253 -2.46795e+08 2.11399 -1.56486e+08)
(-4.50649e+08 7.777e+06 -7.48861 -2.30239e+08 32.1482 -1.17692e+08)
(-3.45328e+08 6.24164e+06 15.0312 -2.16267e+08 -2.44676 -7.59564e+07)
(-2.19375e+08 9.61577e+06 -2.78939 -1.97051e+08 -34.5887 -3.53931e+07)
(-4.63334e+07 8.40617e+06 -15.1021 -1.81825e+08 18.2429 1.56951e+07)
(1.50549e+08 1.16937e+07 2.20406 -1.59422e+08 37.9771 6.32764e+07)
(4.19991e+08 1.01971e+07 8.82173 -1.42919e+08 -18.5789 1.44127e+08)
(7.46315e+08 1.29996e+07 -1.13195 -1.13836e+08 -36.2496 2.08364e+08)
(1.06643e+09 1.14569e+07 -13.0948 -9.51421e+07 19.1701 3.5464e+08)
(1.22696e+09 1.29165e+07 -3.31929 -5.23916e+07 13.1439 4.62632e+08)
(-8.00215e+08 -79171.9 -2.27738 -2.98133e+08 3.78976 -2.96425e+08)
(-7.90421e+08 2.24024e+06 -9.68901 -2.92683e+08 -1.13777 -2.8645e+08)
(-7.60788e+08 840792 -6.64037 -2.88892e+08 2.86249 -2.70809e+08)
(-7.24991e+08 4.1968e+06 7.08002 -2.7895e+08 8.18374 -2.47927e+08)
(-6.74094e+08 2.40124e+06 20.0213 -2.70825e+08 -8.28987 -2.21946e+08)
(-6.07781e+08 6.13277e+06 -5.85592 -2.57468e+08 -21.3036 -1.90557e+08)
(-5.33278e+08 4.41003e+06 -29.7284 -2.46176e+08 2.12176 -1.55574e+08)
(-4.48653e+08 7.90558e+06 -7.50884 -2.29702e+08 32.1658 -1.16806e+08)
(-3.43333e+08 6.32685e+06 14.9817 -2.1583e+08 -2.45653 -7.51345e+07)
(-2.17307e+08 9.65922e+06 -2.79241 -1.96721e+08 -34.5932 -3.46435e+07)
(-4.42266e+07 8.39274e+06 -15.0449 -1.81611e+08 18.2451 1.63519e+07)
(1.52352e+08 1.15953e+07 2.24314 -1.59301e+08 37.976 6.38963e+07)
(4.2156e+08 1.00497e+07 8.76337 -1.42882e+08 -18.5741 1.44678e+08)
(7.47755e+08 1.27922e+07 -1.13172 -1.13842e+08 -36.2427 2.08822e+08)
(1.06721e+09 1.12725e+07 -13.08 -9.51672e+07 19.1869 3.55075e+08)
(1.22698e+09 1.28112e+07 -3.33636 -5.24083e+07 13.1437 4.62917e+08)
(-7.98471e+08 -66214.5 -2.27952 -2.97262e+08 3.79379 -2.95549e+08)
(-7.88622e+08 2.27606e+06 -9.69736 -2.92087e+08 -1.13816 -2.85834e+08)
(-7.5895e+08 851323 -6.64116 -2.88321e+08 2.86145 -2.70186e+08)
(-7.23094e+08 4.25169e+06 7.08587 -2.78412e+08 8.17956 -2.47297e+08)
(-6.72138e+08 2.41808e+06 20.011 -2.70337e+08 -8.28721 -2.21324e+08)
(-6.05701e+08 6.17756e+06 -5.86288 -2.57042e+08 -21.2884 -1.89946e+08)
(-5.31332e+08 4.40814e+06 -29.7269 -2.4582e+08 2.12552 -1.54957e+08)
(-4.46695e+08 7.89927e+06 -7.53158 -2.29409e+08 32.1545 -1.16214e+08)
(-3.414e+08 6.26065e+06 14.9276 -2.15616e+08 -2.46471 -7.46e+07)
(-2.15329e+08 9.5528e+06 -2.79556 -1.96579e+08 -34.5737 -3.41697e+07)
(-4.22282e+07 8.24407e+06 -14.9933 -1.81527e+08 18.2348 1.67564e+07)
(1.54075e+08 1.13772e+07 2.28165 -1.59275e+08 37.9529 6.43061e+07)
(4.23068e+08 9.80957e+06 8.70784 -1.42907e+08 -18.5604 1.45042e+08)
(7.49172e+08 1.25314e+07 -1.13123 -1.1388e+08 -36.2193 2.09129e+08)
(1.06806e+09 1.10599e+07 -13.0701 -9.52085e+07 19.2082 3.55427e+08)
(1.22723e+09 1.27141e+07 -3.35048 -5.24174e+07 13.1395 4.63172e+08)
(-7.96688e+08 -67903.1 -2.28199 -2.96661e+08 3.78864 -2.94943e+08)
(-7.86811e+08 2.27988e+06 -9.70535 -2.91743e+08 -1.1367 -2.85475e+08)
(-7.57111e+08 810408 -6.64217 -2.87999e+08 2.85621 -2.69819e+08)
(-7.21206e+08 4.23173e+06 7.09173 -2.78109e+08 8.16366 -2.46922e+08)
(-6.70207e+08 2.34568e+06 20.0024 -2.70074e+08 -8.27729 -2.20949e+08)
(-6.0365e+08 6.11929e+06 -5.86965 -2.56813e+08 -21.2521 -1.89572e+08)
(-5.29423e+08 4.29998e+06 -29.7241 -2.45643e+08 2.13181 -1.54555e+08)
(-4.44781e+08 7.79263e+06 -7.55537 -2.29271e+08 32.1206 -1.15828e+08)
(-3.39524e+08 6.1015e+06 14.8702 -2.15541e+08 -2.47976 -7.42576e+07)
(-2.13385e+08 9.38171e+06 -2.79889 -1.96543e+08 -34.5381 -3.38656e+07)
(-4.02724e+07 8.03918e+06 -14.9268 -1.81539e+08 18.227 1.7004e+07)
(1.55731e+08 1.10829e+07 2.32476 -1.59307e+08 37.921 6.46025e+07)
(4.24548e+08 9.52402e+06 8.64911 -1.42974e+08 -18.5503 1.45329e+08)
(7.50601e+08 1.22397e+07 -1.13064 -1.13929e+08 -36.1886 2.09386e+08)
(1.06899e+09 1.08527e+07 -13.0596 -9.52551e+07 19.2348 3.55733e+08)
(1.22762e+09 1.26229e+07 -3.36228 -5.24152e+07 13.1315 4.63407e+08)
(-7.94891e+08 -83127.5 -2.28403 -2.96318e+08 3.77489 -2.94595e+08)
(-7.8505e+08 2.26589e+06 -9.7136 -2.91583e+08 -1.13441 -2.85297e+08)
(-7.55322e+08 739723 -6.64201 -2.87848e+08 2.84776 -2.69633e+08)
(-7.19367e+08 4.17934e+06 7.09686 -2.7798e+08 8.14147 -2.4672e+08)
(-6.68314e+08 2.22985e+06 19.9894 -2.69962e+08 -8.2582 -2.20745e+08)
(-6.01641e+08 6.01671e+06 -5.87688 -2.56739e+08 -21.2032 -1.8936e+08)
(-5.27552e+08 4.12573e+06 -29.7159 -2.45606e+08 2.1355 -1.54287e+08)
(-4.42918e+08 7.60775e+06 -7.58145 -2.29257e+08 32.0774 -1.15567e+08)
(-3.37691e+08 5.85627e+06 14.8027 -2.15571e+08 -2.49257 -7.40292e+07)
(-2.11501e+08 9.1224e+06 -2.80245 -1.96597e+08 -34.4949 -3.36689e+07)
(-3.84486e+07 7.7644e+06 -14.857 -1.81615e+08 18.2107 1.71374e+07)
(1.57308e+08 1.07424e+07 2.36665 -1.59386e+08 37.8788 6.47862e+07)
(4.26007e+08 9.20845e+06 8.59525 -1.43066e+08 -18.5371 1.45528e+08)
(7.52053e+08 1.19479e+07 -1.12987 -1.13995e+08 -36.1495 2.09575e+08)
(1.07002e+09 1.06499e+07 -13.0503 -9.53e+07 19.2632 3.56014e+08)
(1.2282e+09 1.25362e+07 -3.37218 -5.24207e+07 13.1218 4.63638e+08)
(-7.93143e+08 -106822 -2.28742 -2.96155e+08 3.75597 -2.94428e+08)
(-7.83328e+08 2.23052e+06 -9.72155 -2.91541e+08 -1.13142 -2.8524e+08)
(-7.53574e+08 633538 -6.64258 -2.87817e+08 2.83803 -2.69564e+08)
(-7.17575e+08 4.07468e+06 7.10247 -2.7796e+08 8.11502 -2.46634e+08)
(-6.66482e+08 2.05031e+06 19.9784 -2.69965e+08 -8.23837 -2.20652e+08)
(-5.99708e+08 5.82652e+06 -5.88352 -2.56761e+08 -21.1473 -1.89258e+08)
(-5.2578e+08 3.87526e+06 -29.7139 -2.4566e+08 2.13914 -1.54151e+08)
(-4.41145e+08 7.35916e+06 -7.60799 -2.29308e+08 32.0243 -1.15421e+08)
(-3.3595e+08 5.55724e+06 14.7355 -2.15671e+08 -2.50971 -7.39083e+07)
(-2.09654e+08 8.84693e+06 -2.80629 -1.96672e+08 -34.4443 -3.3548e+07)
(-3.66381e+07 7.48722e+06 -14.7633 -1.81724e+08 18.2023 1.72065e+07)
(1.58853e+08 1.03811e+07 2.41059 -1.59489e+08 37.8344 6.49178e+07)
(4.27485e+08 8.88679e+06 8.53973 -1.43171e+08 -18.5297 1.45699e+08)
(7.53559e+08 1.1663e+07 -1.12898 -1.14065e+08 -36.1059 2.09742e+08)
(1.07115e+09 1.04643e+07 -13.0425 -9.53525e+07 19.2972 3.56266e+08)
(1.22892e+09 1.24635e+07 -3.37986 -5.24209e+07 13.1104 4.63872e+08)
(-7.91433e+08 -140031 -2.28887 -2.96113e+08 3.73384 -2.94383e+08)
(-7.81718e+08 2.18102e+06 -9.72936 -2.91616e+08 -1.12806 -2.85298e+08)
(-7.51941e+08 505543 -6.64275 -2.87889e+08 2.82662 -2.69609e+08)
(-7.15896e+08 3.94416e+06 7.1074 -2.78043e+08 8.08621 -2.46652e+08)
(-6.64759e+08 1.8433e+06 19.9636 -2.70039e+08 -8.21239 -2.20657e+08)
(-5.97864e+08 5.62189e+06 -5.89018 -2.56852e+08 -21.0872 -1.89233e+08)
(-5.24046e+08 3.60544e+06 -29.6972 -2.45745e+08 2.1381 -1.54055e+08)
(-4.39416e+08 7.06806e+06 -7.63639 -2.29397e+08 31.9721 -1.15311e+08)
(-3.34213e+08 5.2282e+06 14.6537 -2.15771e+08 -2.51567 -7.38077e+07)
(-2.07816e+08 8.53388e+06 -2.81054 -1.9677e+08 -34.3923 -3.34451e+07)
(-3.49661e+07 7.14417e+06 -14.6673 -1.81852e+08 18.2001 1.7315e+07)
(1.60313e+08 1.00011e+07 2.45225 -1.5963e+08 37.7951 6.50124e+07)
(4.2897e+08 8.55928e+06 8.49174 -1.43262e+08 -18.5315 1.4588e+08)
(7.55114e+08 1.13889e+07 -1.12793 -1.1414e+08 -36.0624 2.09928e+08)
(1.07238e+09 1.02946e+07 -13.0271 -9.53774e+07 19.3319 3.56554e+08)
(1.22979e+09 1.23979e+07 -3.38575 -5.24333e+07 13.0971 4.64116e+08)
(-7.89834e+08 -179246 -2.29108 -2.96187e+08 3.70941 -2.94454e+08)
(-7.80187e+08 2.126e+06 -9.73703 -2.91732e+08 -1.12488 -2.85396e+08)
(-7.5038e+08 365751 -6.64221 -2.87996e+08 2.81468 -2.69693e+08)
(-7.14287e+08 3.80232e+06 7.11247 -2.7817e+08 8.05764 -2.46707e+08)
(-6.63096e+08 1.61744e+06 19.9488 -2.70151e+08 -8.18325 -2.20702e+08)
(-5.96094e+08 5.37934e+06 -5.89713 -2.56999e+08 -21.0264 -1.89254e+08)
(-5.2245e+08 3.29251e+06 -29.6957 -2.4588e+08 2.133 -1.5401e+08)
(-4.37802e+08 6.74788e+06 -7.66358 -2.29536e+08 31.9259 -1.15228e+08)
(-3.32572e+08 4.86425e+06 14.5761 -2.1589e+08 -2.50828 -7.37288e+07)
(-2.06062e+08 8.18397e+06 -2.81456 -1.969e+08 -34.3427 -3.33544e+07)
(-3.32974e+07 6.76669e+06 -14.5765 -1.81962e+08 18.184 1.74536e+07)
(1.61802e+08 9.64076e+06 2.48846 -1.59756e+08 37.7497 6.50629e+07)
(4.30506e+08 8.25975e+06 8.44145 -1.43336e+08 -18.5309 1.46003e+08)
(7.5675e+08 1.11342e+07 -1.12706 -1.14216e+08 -36.0103 2.10055e+08)
(1.07371e+09 1.01307e+07 -13.0174 -9.54076e+07 19.3757 3.56844e+08)
(1.23077e+09 1.23286e+07 -3.39107 -5.244e+07 13.0835 4.64397e+08)
(-7.88315e+08 -222121 -2.29349 -2.96298e+08 3.68484 -2.94565e+08)
(-7.78786e+08 2.05616e+06 -9.74429 -2.91893e+08 -1.12166 -2.85538e+08)
(-7.48951e+08 201213 -6.6419 -2.88151e+08 2.8035 -2.69818e+08)
(-7.12808e+08 3.62617e+06 7.11666 -2.78334e+08 8.02978 -2.468e+08)
(-6.61581e+08 1.35041e+06 19.9317 -2.70305e+08 -8.15738 -2.20782e+08)
(-5.94455e+08 5.10643e+06 -5.90328 -2.5717e+08 -20.9688 -1.893e+08)
(-5.20895e+08 2.9663e+06 -29.6738 -2.46021e+08 2.1206 -1.54043e+08)
(-4.36234e+08 6.41706e+06 -7.69536 -2.29704e+08 31.8761 -1.15221e+08)
(-3.30953e+08 4.48776e+06 14.484 -2.16022e+08 -2.48548 -7.37232e+07)
(-2.04326e+08 7.83606e+06 -2.81903 -1.97058e+08 -34.2857 -3.3329e+07)
(-3.17111e+07 6.37014e+06 -14.5223 -1.82088e+08 18.1719 1.76103e+07)
(1.63279e+08 9.26961e+06 2.51687 -1.5986e+08 37.7124 6.5191e+07)
(4.32054e+08 7.94838e+06 8.39401 -1.43425e+08 -18.5317 1.46184e+08)
(7.58414e+08 1.08769e+07 -1.12583 -1.14285e+08 -35.9633 2.10244e+08)
(1.07512e+09 9.98907e+06 -13.0017 -9.5456e+07 19.4136 3.57132e+08)
(1.23189e+09 1.22608e+07 -3.39643 -5.2441e+07 13.0698 4.64696e+08)
(-7.86925e+08 -271341 -2.29578 -2.96458e+08 3.66072 -2.94723e+08)
(-7.77506e+08 1.98308e+06 -9.75188 -2.92124e+08 -1.11859 -2.85747e+08)
(-7.47637e+08 28936.6 -6.64103 -2.88357e+08 2.79063 -2.70011e+08)
(-7.11438e+08 3.44532e+06 7.12089 -2.78563e+08 8.00132 -2.46954e+08)
(-6.6014e+08 1.07637e+06 19.9121 -2.70489e+08 -8.12343 -2.20917e+08)
(-5.92873e+08 4.8346e+06 -5.91018 -2.57387e+08 -20.9083 -1.89388e+08)
(-5.19461e+08 2.61271e+06 -29.6573 -2.46189e+08 2.11131 -1.54021e+08)
(-4.34782e+08 6.06467e+06 -7.72363 -2.29896e+08 31.8371 -1.15168e+08)
(-3.29419e+08 4.09146e+06 14.4002 -2.1617e+08 -2.46667 -7.36703e+07)
(-2.02683e+08 7.45755e+06 -2.82258 -1.97231e+08 -34.2371 -3.32762e+07)
(-3.0146e+07 5.98906e+06 -14.478 -1.82242e+08 18.1513 1.77255e+07)
(1.6479e+08 8.90864e+06 2.54546 -1.59961e+08 37.6714 6.53286e+07)
(4.33661e+08 7.63729e+06 8.34695 -1.4352e+08 -18.5258 1.46371e+08)
(7.60197e+08 1.06251e+07 -1.12477 -1.14331e+08 -35.9149 2.1046e+08)
(1.07664e+09 9.85036e+06 -12.9814 -9.54933e+07 19.4517 3.5746e+08)
(1.2331e+09 1.22009e+07 -3.40034 -5.2452e+07 13.0558 4.65017e+08)
(-7.85656e+08 -323215 -2.29801 -2.96679e+08 3.63562 -2.94947e+08)
(-7.76368e+08 1.90458e+06 -9.75884 -2.92306e+08 -1.11617 -2.85909e+08)
(-7.46462e+08 -153182 -6.6396 -2.88524e+08 2.78019 -2.70156e+08)
(-7.10203e+08 3.25595e+06 7.12468 -2.7875e+08 7.97808 -2.47062e+08)
(-6.58843e+08 788770 19.8917 -2.70648e+08 -8.09543 -2.21012e+08)
(-5.91448e+08 4.53663e+06 -5.9165 -2.57585e+08 -20.8581 -1.89445e+08)
(-5.181e+08 2.24047e+06 -29.6393 -2.46357e+08 2.09641 -1.54042e+08)
(-4.33375e+08 5.69282e+06 -7.75693 -2.30074e+08 31.7996 -1.15133e+08)
(-3.27922e+08 3.67411e+06 14.3084 -2.16327e+08 -2.44275 -7.36378e+07)
(-2.01022e+08 7.05782e+06 -2.82663 -1.97387e+08 -34.187 -3.322e+07)
(-2.86178e+07 5.61194e+06 -14.4395 -1.82387e+08 18.1293 1.78407e+07)
(1.66275e+08 8.56001e+06 2.56902 -1.6008e+08 37.63 6.54609e+07)
(4.35275e+08 7.33555e+06 8.30427 -1.43622e+08 -18.5135 1.46549e+08)
(7.62013e+08 1.03883e+07 -1.12351 -1.14393e+08 -35.8661 2.10673e+08)
(1.07824e+09 9.69099e+06 -12.9625 -9.55323e+07 19.4907 3.57849e+08)
(1.23444e+09 1.21382e+07 -3.40394 -5.24669e+07 13.0431 4.65412e+08)
(-7.84531e+08 -377848 -2.29955 -2.96855e+08 3.61454 -2.95124e+08)
(-7.75368e+08 1.81662e+06 -9.76571 -2.92514e+08 -1.11413 -2.86092e+08)
(-7.45414e+08 -355784 -6.6381 -2.88709e+08 2.7699 -2.7032e+08)
(-7.09088e+08 3.03934e+06 7.12858 -2.78961e+08 7.95616 -2.47187e+08)
(-6.57646e+08 463430 19.8683 -2.70831e+08 -8.06735 -2.21121e+08)
(-5.90094e+08 4.20846e+06 -5.92326 -2.57801e+08 -20.8093 -1.8951e+08)
(-5.16859e+08 1.85063e+06 -29.6162 -2.46537e+08 2.08056 -1.54068e+08)
(-4.32094e+08 5.29745e+06 -7.78723 -2.30279e+08 31.7647 -1.15123e+08)
(-3.26517e+08 3.24561e+06 14.2261 -2.165e+08 -2.41851 -7.36221e+07)
(-1.9943e+08 6.65017e+06 -2.83025 -1.97558e+08 -34.1383 -3.31794e+07)
(-2.70723e+07 5.21058e+06 -14.4043 -1.82535e+08 18.115 1.79853e+07)
(1.67805e+08 8.2033e+06 2.59324 -1.60218e+08 37.5932 6.56402e+07)
(4.36954e+08 7.03565e+06 8.26054 -1.43737e+08 -18.5017 1.46779e+08)
(7.63918e+08 1.01625e+07 -1.12233 -1.1448e+08 -35.8215 2.10943e+08)
(1.07993e+09 9.53922e+06 -12.9497 -9.55971e+07 19.5274 3.5829e+08)
(1.23589e+09 1.20787e+07 -3.40694 -5.24723e+07 13.0316 4.65876e+08)
(-7.83544e+08 -437845 -2.30393 -2.97052e+08 3.5943 -2.95322e+08)
(-7.74542e+08 1.72145e+06 -9.77322 -2.92736e+08 -1.11243 -2.8629e+08)
(-7.44542e+08 -568811 -6.63671 -2.88905e+08 2.76013 -2.70502e+08)
(-7.08144e+08 2.80681e+06 7.13246 -2.79183e+08 7.93667 -2.47329e+08)
(-6.56613e+08 124723 19.8458 -2.71004e+08 -8.03801 -2.21248e+08)
(-5.88888e+08 3.86153e+06 -5.93022 -2.58008e+08 -20.7649 -1.89582e+08)
(-5.15689e+08 1.42787e+06 -29.5918 -2.46688e+08 2.06569 -1.54051e+08)
(-4.30856e+08 4.88052e+06 -7.81953 -2.3046e+08 31.7398 -1.15056e+08)
(-3.25135e+08 2.80651e+06 14.138 -2.16634e+08 -2.38865 -7.35443e+07)
(-1.97836e+08 6.23776e+06 -2.83409 -1.97709e+08 -34.0971 -3.30692e+07)
(-2.55678e+07 4.80065e+06 -14.3807 -1.82671e+08 18.1026 1.82144e+07)
(1.69336e+08 7.83446e+06 2.61559 -1.60319e+08 37.5678 6.59227e+07)
(4.38661e+08 6.72457e+06 8.22082 -1.4384e+08 -18.4944 1.47108e+08)
(7.65863e+08 9.92388e+06 -1.12083 -1.14539e+08 -35.7852 2.11312e+08)
(1.08169e+09 9.39352e+06 -12.9378 -9.56645e+07 19.5598 3.58761e+08)
(1.23745e+09 1.20244e+07 -3.40958 -5.24696e+07 13.0204 4.66372e+08)
(-7.82731e+08 -500831 -2.30399 -2.97261e+08 3.57608 -2.95535e+08)
(-7.73873e+08 1.62232e+06 -9.78013 -2.92912e+08 -1.11165 -2.86439e+08)
(-7.43815e+08 -792610 -6.63438 -2.89047e+08 2.7518 -2.70633e+08)
(-7.07335e+08 2.57417e+06 7.13563 -2.7936e+08 7.92289 -2.47414e+08)
(-6.55688e+08 -218287 19.8183 -2.71122e+08 -8.00949 -2.21313e+08)
(-5.87785e+08 3.51585e+06 -5.93732 -2.58176e+08 -20.7306 -1.8959e+08)
(-5.14651e+08 995398 -29.5705 -2.46805e+08 2.05069 -1.53948e+08)
(-4.29726e+08 4.4406e+06 -7.85066 -2.30597e+08 31.7307 -1.14897e+08)
(-3.23829e+08 2.34376e+06 14.0564 -2.1674e+08 -2.36205 -7.33733e+07)
(-1.9631e+08 5.77479e+06 -2.8371 -1.97831e+08 -34.0683 -3.28762e+07)
(-2.40569e+07 4.36984e+06 -14.3628 -1.82798e+08 18.0855 1.84685e+07)
(1.70907e+08 7.44434e+06 2.63868 -1.60408e+08 37.5431 6.62407e+07)
(4.40429e+08 6.39166e+06 8.1844 -1.43946e+08 -18.4855 1.47471e+08)
(7.67915e+08 9.66758e+06 -1.11943 -1.1459e+08 -35.751 2.11725e+08)
(1.08356e+09 9.22884e+06 -12.9236 -9.57298e+07 19.5925 3.59285e+08)
(1.23911e+09 1.19634e+07 -3.41284 -5.24742e+07 13.0098 4.66913e+08)
(-7.82077e+08 -567623 -2.30775 -2.97421e+08 3.56159 -2.957e+08)
(-7.73393e+08 1.51759e+06 -9.78734 -2.93022e+08 -1.11192 -2.86519e+08)
(-7.43266e+08 -1.02771e+06 -6.63196 -2.89127e+08 2.74656 -2.70692e+08)
(-7.06692e+08 2.32049e+06 7.13933 -2.79475e+08 7.91626 -2.47425e+08)
(-6.54925e+08 -589676 19.7931 -2.712e+08 -7.98927 -2.21304e+08)
(-5.86836e+08 3.1176e+06 -5.94448 -2.58303e+08 -20.7099 -1.8953e+08)
(-5.13714e+08 519239 -29.5538 -2.46902e+08 2.03242 -1.53845e+08)
(-4.28661e+08 3.95827e+06 -7.88399 -2.30715e+08 31.7277 -1.1472e+08)
(-3.22584e+08 1.83512e+06 13.9757 -2.16849e+08 -2.3309 -7.31926e+07)
(-1.94788e+08 5.27429e+06 -2.8408 -1.97942e+08 -34.0426 -3.26516e+07)
(-2.25605e+07 3.90903e+06 -14.3423 -1.82915e+08 18.0657 1.87553e+07)
(1.72476e+08 7.02511e+06 2.65939 -1.60505e+08 37.5204 6.65807e+07)
(4.42225e+08 6.03689e+06 8.15345 -1.4406e+08 -18.4737 1.47855e+08)
(7.70009e+08 9.39829e+06 -1.11801 -1.14653e+08 -35.7192 2.12164e+08)
(1.08552e+09 9.04503e+06 -12.9142 -9.5804e+07 19.6248 3.59862e+08)
(1.24091e+09 1.19064e+07 -3.41565 -5.24794e+07 13.0004 4.67518e+08)
(-7.81616e+08 -637134 -2.30979 -2.97516e+08 3.55241 -2.95798e+08)
(-7.73088e+08 1.40097e+06 -9.79495 -2.93131e+08 -1.11275 -2.86596e+08)
(-7.42889e+08 -1.28796e+06 -6.62944 -2.89203e+08 2.7422 -2.70747e+08)
(-7.06217e+08 2.03506e+06 7.14283 -2.79589e+08 7.91281 -2.47429e+08)
(-6.5432e+08 -1.00095e+06 19.7655 -2.71269e+08 -7.96946 -2.21289e+08)
(-5.86028e+08 2.68645e+06 -5.95222 -2.58414e+08 -20.6947 -1.89456e+08)
(-5.12912e+08 13040.4 -29.5288 -2.46975e+08 2.0141 -1.53709e+08)
(-4.27719e+08 3.43073e+06 -7.91753 -2.30827e+08 31.7327 -1.14523e+08)
(-3.21421e+08 1.2934e+06 13.8988 -2.16943e+08 -2.29752 -7.29839e+07)
(-1.93324e+08 4.73429e+06 -2.84425 -1.98049e+08 -34.023 -3.23957e+07)
(-2.10553e+07 3.40017e+06 -14.3296 -1.83035e+08 18.0514 1.91009e+07)
(1.74091e+08 6.56016e+06 2.67968 -1.60602e+08 37.5053 6.69911e+07)
(4.44095e+08 5.6505e+06 8.12637 -1.44175e+08 -18.4644 1.48314e+08)
(7.7221e+08 9.10423e+06 -1.11655 -1.14717e+08 -35.6933 2.12683e+08)
(1.08759e+09 8.84579e+06 -12.9084 -9.58775e+07 19.6567 3.6052e+08)
(1.24283e+09 1.1844e+07 -3.41899 -5.24803e+07 12.992 4.682e+08)
(-7.81331e+08 -713788 -2.31235 -2.97607e+08 3.54543 -2.95894e+08)
(-7.73013e+08 1.27733e+06 -9.80252 -2.93222e+08 -1.11443 -2.86653e+08)
(-7.42733e+08 -1.56057e+06 -6.62708 -2.89258e+08 2.73928 -2.70783e+08)
(-7.05947e+08 1.73248e+06 7.14716 -2.79689e+08 7.91441 -2.47414e+08)
(-6.53894e+08 -1.42447e+06 19.7409 -2.71315e+08 -7.95066 -2.21253e+08)
(-5.85379e+08 2.2229e+06 -5.96023 -2.58511e+08 -20.688 -1.89355e+08)
(-5.12234e+08 -550684 -29.5114 -2.47033e+08 1.99553 -1.53526e+08)
(-4.26857e+08 2.84819e+06 -7.95189 -2.30926e+08 31.75 -1.14265e+08)
(-3.20322e+08 695858 13.8235 -2.17024e+08 -2.25931 -7.27195e+07)
(-1.91888e+08 4.13181e+06 -2.84812 -1.98146e+08 -34.0121 -3.20737e+07)
(-1.95818e+07 2.84305e+06 -14.3236 -1.83142e+08 18.0313 1.95001e+07)
(1.75714e+08 6.05416e+06 2.69912 -1.60687e+08 37.4944 6.74627e+07)
(4.46011e+08 5.22685e+06 8.10437 -1.4429e+08 -18.4514 1.48829e+08)
(7.74468e+08 8.78576e+06 -1.11508 -1.14784e+08 -35.6723 2.13258e+08)
(1.08978e+09 8.62178e+06 -12.9082 -9.59671e+07 19.6844 3.61227e+08)
(1.24492e+09 1.17686e+07 -3.42407 -5.24835e+07 12.9843 4.68934e+08)
(-7.81277e+08 -794808 -2.31519 -2.97678e+08 3.54227 -2.95969e+08)
(-7.73133e+08 1.14086e+06 -9.81134 -2.93287e+08 -1.11678 -2.86683e+08)
(-7.4277e+08 -1.86088e+06 -6.62426 -2.89287e+08 2.73819 -2.70793e+08)
(-7.05856e+08 1.39678e+06 7.15143 -2.79769e+08 7.92097 -2.47369e+08)
(-6.53649e+08 -1.89077e+06 19.7139 -2.71336e+08 -7.9336 -2.21191e+08)
(-5.84935e+08 1.71477e+06 -5.96903 -2.58588e+08 -20.6908 -1.89233e+08)
(-5.11732e+08 -1.15875e+06 -29.49 -2.47058e+08 1.97585 -1.53313e+08)
(-4.26133e+08 2.20495e+06 -7.98881 -2.30994e+08 31.7792 -1.13965e+08)
(-3.19328e+08 49315 13.7487 -2.17068e+08 -2.21648 -7.2407e+07)
(-1.90515e+08 3.4773e+06 -2.85207 -1.98206e+08 -34.0097 -3.16912e+07)
(-1.80877e+07 2.22875e+06 -14.3205 -1.83229e+08 18.0153 1.99785e+07)
(1.7739e+08 5.47833e+06 2.71794 -1.60739e+08 37.4923 6.80228e+07)
(4.48011e+08 4.74596e+06 8.0903 -1.44402e+08 -18.4448 1.49429e+08)
(7.76843e+08 8.4155e+06 -1.11357 -1.1483e+08 -35.6569 2.1392e+08)
(1.09209e+09 8.37377e+06 -12.916 -9.60598e+07 19.7113 3.61966e+08)
(1.24716e+09 1.17004e+07 -3.42906 -5.24794e+07 12.9773 4.69714e+08)
(-7.81425e+08 -883871 -2.31882 -2.97723e+08 3.54273 -2.96018e+08)
(-7.73526e+08 995068 -9.81996 -2.93347e+08 -1.12004 -2.86706e+08)
(-7.43072e+08 -2.18369e+06 -6.62124 -2.89301e+08 2.73866 -2.70792e+08)
(-7.06012e+08 1.04109e+06 7.15604 -2.79837e+08 7.93369 -2.47304e+08)
(-6.53614e+08 -2.37001e+06 19.6919 -2.71327e+08 -7.91762 -2.21098e+08)
(-5.84673e+08 1.18488e+06 -5.9779 -2.58646e+08 -20.7048 -1.89068e+08)
(-5.11387e+08 -1.81537e+06 -29.4759 -2.47071e+08 1.9523 -1.53059e+08)
(-4.25512e+08 1.50939e+06 -8.02747 -2.31044e+08 31.8225 -1.13604e+08)
(-3.18403e+08 -651465 13.6751 -2.1711e+08 -2.16787 -7.20395e+07)
(-1.89189e+08 2.73622e+06 -2.8563 -1.98269e+08 -34.0159 -3.12534e+07)
(-1.66586e+07 1.55174e+06 -14.3364 -1.83337e+08 17.9916 2.04741e+07)
(1.79063e+08 4.83285e+06 2.73545 -1.60794e+08 37.4925 6.86207e+07)
(4.50066e+08 4.19929e+06 8.08448 -1.44517e+08 -18.4337 1.50073e+08)
(7.79305e+08 8.00032e+06 -1.11222 -1.14858e+08 -35.6448 2.14639e+08)
(1.09457e+09 8.08203e+06 -12.9168 -9.61304e+07 19.7392 3.62801e+08)
(1.24958e+09 1.16078e+07 -3.43679 -5.24889e+07 12.9701 4.70564e+08)
(-7.81848e+08 -980976 -2.32208 -2.97762e+08 3.54722 -2.96063e+08)
(-7.74149e+08 847207 -9.82943 -2.93382e+08 -1.12357 -2.86709e+08)
(-7.43594e+08 -2.52266e+06 -6.61764 -2.8931e+08 2.74263 -2.70766e+08)
(-7.06351e+08 665455 7.16124 -2.79881e+08 7.95035 -2.47213e+08)
(-6.53767e+08 -2.88855e+06 19.6688 -2.71333e+08 -7.91324 -2.20983e+08)
(-5.84668e+08 582259 -5.98749 -2.58708e+08 -20.7376 -1.88845e+08)
(-5.11267e+08 -2.52655e+06 -29.4586 -2.47113e+08 1.9205 -1.52843e+08)
(-4.25051e+08 732847 -8.07028 -2.31096e+08 31.8739 -1.13256e+08)
(-3.17637e+08 -1.43712e+06 13.6067 -2.17179e+08 -2.11226 -7.16973e+07)
(-1.87951e+08 1.9062e+06 -2.86092 -1.98317e+08 -34.0261 -3.0804e+07)
(-1.5207e+07 806884 -14.3423 -1.83427e+08 17.9556 2.09613e+07)
(1.80773e+08 4.12948e+06 2.75193 -1.60854e+08 37.486 6.92039e+07)
(4.5222e+08 3.61242e+06 8.09083 -1.44651e+08 -18.4156 1.50706e+08)
(7.81902e+08 7.55546e+06 -1.11094 -1.14908e+08 -35.6302 2.15357e+08)
(1.0972e+09 7.71945e+06 -12.9392 -9.62343e+07 19.77 3.6368e+08)
(1.25223e+09 1.15026e+07 -3.44629 -5.24859e+07 12.9643 4.71511e+08)
(-7.82511e+08 -1.08306e+06 -2.32631 -2.97789e+08 3.55567 -2.96089e+08)
(-7.75065e+08 684323 -9.83951 -2.93497e+08 -1.12723 -2.86795e+08)
(-7.44411e+08 -2.89917e+06 -6.61301 -2.89397e+08 2.74741 -2.70819e+08)
(-7.06979e+08 242501 7.16662 -2.79989e+08 7.96848 -2.47197e+08)
(-6.54205e+08 -3.46581e+06 19.6439 -2.71398e+08 -7.91198 -2.20935e+08)
(-5.84889e+08 -83007.9 -5.99776 -2.58796e+08 -20.775 -1.88656e+08)
(-5.11333e+08 -3.27909e+06 -29.4323 -2.47167e+08 1.88402 -1.52697e+08)
(-4.24749e+08 -92344.8 -8.11614 -2.31163e+08 31.9252 -1.12971e+08)
(-3.1697e+08 -2.25907e+06 13.5352 -2.17252e+08 -2.0501 -7.14049e+07)
(-1.8676e+08 1.04171e+06 -2.86654 -1.98378e+08 -34.0346 -3.038e+07)
(-1.38017e+07 -16931.4 -14.3695 -1.83542e+08 17.94 2.15267e+07)
(1.82505e+08 3.31867e+06 2.76416 -1.6092e+08 37.4959 6.9887e+07)
(4.54451e+08 2.93914e+06 8.10969 -1.44798e+08 -18.4114 1.51451e+08)
(7.84548e+08 7.04579e+06 -1.10952 -1.14962e+08 -35.6242 2.1617e+08)
(1.1e+09 7.34166e+06 -12.9544 -9.6343e+07 19.803 3.64604e+08)
(1.25516e+09 1.13812e+07 -3.45902 -5.24768e+07 12.9582 4.72536e+08)
(-7.83466e+08 -1.19662e+06 -2.33003 -2.979e+08 3.56537 -2.96198e+08)
(-7.76269e+08 529287 -9.85075 -2.93723e+08 -1.13011 -2.87003e+08)
(-7.45515e+08 -3.26929e+06 -6.60821 -2.89601e+08 2.75302 -2.70989e+08)
(-7.0785e+08 -171594 7.17283 -2.8018e+08 7.98463 -2.47289e+08)
(-6.54873e+08 -4.03416e+06 19.6136 -2.71552e+08 -7.91534 -2.20989e+08)
(-5.85376e+08 -762956 -6.00927 -2.5895e+08 -20.8247 -1.88479e+08)
(-5.11623e+08 -4.05861e+06 -29.3944 -2.47257e+08 1.84286 -1.52532e+08)
(-4.24615e+08 -969628 -8.16344 -2.31247e+08 31.9919 -1.12652e+08)
(-3.1646e+08 -3.15429e+06 13.4673 -2.17346e+08 -1.9804 -7.10897e+07)
(-1.85713e+08 69030.3 -2.87189 -1.98459e+08 -34.0532 -2.99279e+07)
(-1.2474e+07 -923805 -14.4115 -1.83682e+08 17.896 2.20307e+07)
(1.84248e+08 2.44331e+06 2.77809 -1.60987e+08 37.4947 7.05573e+07)