/*--------------------------------*- C++ -*----------------------------------*\
| =========                 |                                                 |
| \\      /  F ield         | OpenFOAM: The Open Source CFD Toolbox           |
|  \\    /   O peration     | Version:  4.1                                   |
|   \\  /    A nd           | Web:      www.OpenFOAM.org                      |
|    \\/     M anipulation  |                                                 |
\*---------------------------------------------------------------------------*/
FoamFile
{
    version     2.0;
    format      ascii;
    class       volScalarField;
    location    "0.0043";
    object      p;
}
// * * * * * * * * * * * * * * * * * * * * * * * * * * * * * * * * * * * * * //

dimensions      [0 2 -2 0 0 0 0];

internalField   nonuniform List<scalar> 
1536
(
0.0032758
0.010201
0.01787
0.026243
0.03477
0.042884
0.050264
0.056977
0.063471
0.07016
0.077488
0.085791
0.0033501
0.010364
0.018015
0.026267
0.034657
0.042692
0.050084
0.056891
0.063483
0.070281
0.077707
0.08611
0.0033906
0.010453
0.018093
0.026276
0.034587
0.042571
0.049966
0.056817
0.063476
0.07034
0.077827
0.086296
0.0034094
0.010494
0.018126
0.026272
0.034542
0.042498
0.049891
0.056761
0.063449
0.070342
0.077856
0.086354
0.0034076
0.010488
0.018116
0.026258
0.034523
0.042473
0.049859
0.056723
0.063402
0.070287
0.077792
0.086282
0.0033852
0.010437
0.018065
0.026234
0.034531
0.042498
0.049872
0.056702
0.063335
0.070174
0.077635
0.086081
0.0033413
0.010338
0.01797
0.026199
0.034568
0.042574
0.049933
0.056705
0.063251
0.070006
0.077389
0.085754
0.0032634
0.010164
0.017807
0.02615
0.034647
0.042721
0.050054
0.056714
0.063146
0.069776
0.077045
0.085292
0.0033548
0.010379
0.018039
0.026299
0.034703
0.042749
0.050154
0.056973
0.063575
0.070384
0.077818
0.086229
0.0034115
0.010504
0.018151
0.026317
0.034609
0.042585
0.049996
0.056891
0.063584
0.070492
0.078019
0.086529
0.003447
0.010582
0.018219
0.026324
0.034543
0.042473
0.049883
0.056818
0.063575
0.070547
0.078136
0.086711
0.0034634
0.010617
0.018247
0.02632
0.034501
0.042405
0.049812
0.056764
0.063548
0.070548
0.078163
0.086768
0.0034616
0.010612
0.018238
0.026307
0.034483
0.042381
0.049781
0.056727
0.063502
0.070493
0.078099
0.086696
0.0034416
0.010566
0.018191
0.026283
0.034488
0.0424
0.049791
0.056707
0.063436
0.070382
0.077945
0.086497
0.0034025
0.010477
0.018105
0.02625
0.034518
0.042466
0.049844
0.056711
0.063351
0.070216
0.077701
0.086171
0.0033421
0.010341
0.017975
0.026205
0.034576
0.042581
0.04994
0.056709
0.063248
0.069997
0.077371
0.085726
0.0033992
0.01048
0.018137
0.026338
0.034672
0.042678
0.050098
0.056976
0.063654
0.070539
0.078044
0.086528
0.0034513
0.010595
0.018241
0.026356
0.034585
0.042526
0.049949
0.056895
0.063664
0.070646
0.078243
0.086826
0.0034836
0.010666
0.018303
0.026362
0.034523
0.04242
0.049842
0.056828
0.063655
0.0707
0.078358
0.087006
0.0034983
0.010698
0.018329
0.026357
0.034484
0.042356
0.049774
0.056777
0.063628
0.0707
0.078384
0.087061
0.0034966
0.010693
0.018319
0.026344
0.034465
0.042332
0.049744
0.056739
0.063582
0.070645
0.07832
0.08699
0.0034782
0.01065
0.018276
0.026321
0.034468
0.042348
0.04975
0.056716
0.063516
0.070535
0.078167
0.086792
0.0034423
0.010568
0.018195
0.026289
0.034494
0.042406
0.049795
0.056708
0.063431
0.070371
0.077925
0.086468
0.0033867
0.010442
0.018073
0.026245
0.034544
0.04251
0.049882
0.056707
0.063328
0.070153
0.077597
0.086024
0.0034223
0.010533
0.018192
0.026366
0.034668
0.042657
0.050086
0.056996
0.063714
0.070638
0.078179
0.086699
0.003472
0.010643
0.018291
0.026383
0.034585
0.042511
0.049942
0.056917
0.063724
0.070744
0.078377
0.086997
0.0035027
0.010711
0.018351
0.026389
0.034525
0.042409
0.049839
0.056853
0.063716
0.070797
0.07849
0.087175
0.0035166
0.010741
0.018375
0.026385
0.034487
0.042347
0.049773
0.056802
0.063689
0.070797
0.078516
0.08723
0.0035148
0.010736
0.018365
0.026371
0.034469
0.042323
0.049743
0.056764
0.063643
0.070742
0.078453
0.087159
0.0034973
0.010695
0.018323
0.026349
0.034471
0.042337
0.049747
0.056739
0.063577
0.070633
0.0783
0.086961
0.003463
0.010616
0.018245
0.026317
0.034494
0.042392
0.049789
0.056728
0.063492
0.07047
0.07806
0.08664
0.0034098
0.010495
0.018128
0.026273
0.034541
0.042491
0.049872
0.056727
0.063389
0.070253
0.077734
0.086198
0.0034248
0.01054
0.018204
0.026383
0.03469
0.042685
0.050119
0.057032
0.063753
0.070679
0.078221
0.086741
0.0034745
0.010651
0.018304
0.026401
0.034608
0.042539
0.049975
0.056954
0.063763
0.070786
0.078419
0.087038
0.0035052
0.010719
0.018363
0.026407
0.034549
0.042437
0.049872
0.05689
0.063756
0.070839
0.078533
0.087217
0.0035192
0.010749
0.018387
0.026403
0.03451
0.042375
0.049807
0.056839
0.063729
0.070839
0.078558
0.087272
0.0035174
0.010744
0.018378
0.026389
0.034492
0.042352
0.049776
0.056802
0.063683
0.070784
0.078495
0.087201
0.0034998
0.010703
0.018336
0.026367
0.034494
0.042366
0.049781
0.056776
0.063617
0.070675
0.078343
0.087004
0.0034656
0.010624
0.018258
0.026335
0.034518
0.042421
0.049823
0.056764
0.063533
0.070512
0.078103
0.086682
0.0034123
0.010503
0.018141
0.026292
0.034565
0.042521
0.049907
0.056765
0.06343
0.070296
0.077777
0.08624
0.0034067
0.010502
0.018175
0.02639
0.034739
0.042761
0.050194
0.057083
0.063772
0.070663
0.07817
0.086652
0.0034588
0.010618
0.018279
0.026409
0.034654
0.04261
0.050047
0.057004
0.063783
0.07077
0.07837
0.086951
0.0034912
0.010689
0.018342
0.026416
0.034593
0.042506
0.049942
0.056939
0.063776
0.070825
0.078485
0.087131
0.003506
0.010721
0.018367
0.026412
0.034554
0.042442
0.049875
0.056889
0.06375
0.070826
0.078511
0.087187
0.0035042
0.010716
0.018358
0.026399
0.034536
0.042419
0.049845
0.056852
0.063704
0.070772
0.078449
0.087116
0.0034858
0.010673
0.018315
0.026376
0.03454
0.042435
0.049852
0.056827
0.063638
0.070662
0.078296
0.086919
0.0034499
0.010591
0.018234
0.026344
0.034565
0.042493
0.049897
0.056818
0.063554
0.070498
0.078055
0.086596
0.0033942
0.010465
0.018112
0.0263
0.034616
0.042598
0.049985
0.05682
0.063451
0.070281
0.077727
0.086153
0.0033668
0.010415
0.0181
0.026385
0.034814
0.042885
0.050314
0.057151
0.063771
0.070588
0.078026
0.086436
0.0034239
0.010542
0.018214
0.026406
0.034724
0.042726
0.050161
0.057071
0.063783
0.070699
0.078229
0.086737
0.0034596
0.01062
0.018283
0.026414
0.03466
0.042616
0.05005
0.057004
0.063777
0.070757
0.078348
0.08692
0.0034761
0.010656
0.018312
0.026411
0.034619
0.04255
0.049981
0.056953
0.063751
0.070759
0.078376
0.086978
0.0034743
0.01065
0.018303
0.026398
0.034602
0.042526
0.049952
0.056916
0.063706
0.070705
0.078314
0.086908
0.0034543
0.010604
0.018256
0.026375
0.034607
0.042546
0.049962
0.056894
0.063641
0.070595
0.07816
0.086709
0.0034151
0.010515
0.01817
0.026342
0.034636
0.042611
0.050013
0.056889
0.063556
0.070429
0.077916
0.086384
0.0033542
0.010377
0.018037
0.026296
0.03469
0.042723
0.050106
0.056893
0.063453
0.070209
0.077586
0.085938
0.0032927
0.010252
0.017956
0.026365
0.034929
0.043078
0.050492
0.057233
0.063746
0.070447
0.07778
0.086081
0.0033676
0.010418
0.018105
0.026392
0.034822
0.042893
0.05032
0.057151
0.063765
0.070575
0.078004
0.086404
0.0034083
0.010507
0.018184
0.026402
0.034752
0.042773
0.050202
0.057083
0.06376
0.070635
0.078125
0.08659
0.0034272
0.010548
0.018217
0.026399
0.034708
0.042701
0.050129
0.057032
0.063735
0.070639
0.078156
0.08665
0.0034254
0.010542
0.018208
0.026387
0.034691
0.042679
0.0501
0.056995
0.06369
0.070585
0.078093
0.086579
0.003403
0.010491
0.018157
0.026364
0.0347
0.042705
0.050115
0.056974
0.063625
0.070474
0.077939
0.086379
0.003359
0.010392
0.018061
0.026329
0.034736
0.04278
0.050175
0.056972
0.063542
0.070308
0.077694
0.086054
0.0032806
0.010215
0.017895
0.026277
0.034808
0.04292
0.05029
0.056981
0.063435
0.070074
0.077347
0.085589
0.084522
0.076564
0.069574
0.063277
0.057156
0.050719
0.043312
0.03493
0.026072
0.017495
0.0098519
0.0031276
0.084936
0.076855
0.069738
0.063283
0.056996
0.050399
0.04299
0.034749
0.026114
0.017722
0.010102
0.0032404
0.085054
0.076919
0.069753
0.063238
0.056893
0.050289
0.042895
0.034706
0.026124
0.017761
0.010139
0.0032564
0.085108
0.07694
0.069743
0.063191
0.056809
0.050181
0.042793
0.034642
0.026117
0.017802
0.010191
0.0032806
0.08501
0.076853
0.069667
0.063126
0.056754
0.050135
0.042758
0.034616
0.026099
0.017789
0.010183
0.003278
0.084762
0.076658
0.069526
0.063045
0.056733
0.050158
0.042795
0.03463
0.026071
0.017724
0.010117
0.003249
0.084472
0.076442
0.06938
0.062977
0.056722
0.050214
0.042848
0.034641
0.026031
0.017666
0.01007
0.0032297
0.083872
0.075988
0.069076
0.062857
0.056804
0.050448
0.043107
0.034776
0.025957
0.017417
0.0098061
0.0031126
0.080855
0.073712
0.067618
0.062645
0.05819
0.052964
0.045855
0.036359
0.025435
0.015022
0.0071694
0.0019311
0.08093
0.073773
0.067651
0.062604
0.058035
0.052698
0.045527
0.036151
0.025467
0.015295
0.0074768
0.0020636
0.080872
0.073717
0.067593
0.062519
0.057899
0.052524
0.04537
0.036051
0.025461
0.015369
0.007565
0.0021039
0.08079
0.073624
0.067495
0.062415
0.057784
0.052404
0.045268
0.035981
0.025416
0.015329
0.0075432
0.0021022
0.080652
0.0735
0.067389
0.062326
0.057714
0.052348
0.045226
0.035949
0.025394
0.015313
0.0075338
0.0020996
0.080445
0.073342
0.067273
0.062254
0.057679
0.052352
0.045243
0.035956
0.025391
0.015319
0.0075358
0.0020944
0.080259
0.07318
0.067143
0.062182
0.057703
0.052414
0.045327
0.036001
0.025356
0.015218
0.0074312
0.0020492
0.079927
0.072894
0.06692
0.062074
0.057749
0.052633
0.045583
0.036153
0.025283
0.014916
0.0071071
0.0019112
0.083851
0.075974
0.069068
0.062855
0.056807
0.050454
0.043113
0.034781
0.025961
0.01742
0.0098082
0.0031132
0.084407
0.076399
0.069357
0.06297
0.056728
0.050233
0.042869
0.03466
0.026045
0.017678
0.010076
0.0032318
0.084657
0.076588
0.069486
0.063032
0.056744
0.050177
0.042818
0.034653
0.026091
0.017737
0.010124
0.0032513
0.084864
0.076754
0.069611
0.063108
0.056769
0.050162
0.04279
0.034648
0.026127
0.017807
0.010193
0.0032813
0.084922
0.076813
0.069671
0.063166
0.056825
0.050216
0.042835
0.034684
0.026152
0.017827
0.010205
0.0032852
0.08483
0.076765
0.069665
0.063207
0.05691
0.05033
0.042946
0.034756
0.026165
0.017791
0.010157
0.0032621
0.084681
0.076678
0.069637
0.063247
0.057016
0.050439
0.043044
0.034802
0.02616
0.017754
0.010121
0.0032466
0.084238
0.076367
0.06946
0.063237
0.057177
0.050766
0.043373
0.03499
0.026124
0.017531
0.0098727
0.0031344
0.0799
0.072877
0.066911
0.062073
0.057754
0.052642
0.04559
0.03616
0.025291
0.014921
0.0071094
0.0019119
0.080162
0.073122
0.067116
0.062179
0.057717
0.052437
0.045361
0.036033
0.025381
0.015233
0.0074391
0.0020515
0.080288
0.073243
0.067224
0.062245
0.057695
0.052389
0.04529
0.036001
0.025426
0.015342
0.0075467
0.002097
0.08043
0.073358
0.067316
0.062309
0.057734
0.052398
0.045288
0.036008
0.02544
0.015344
0.0075492
0.0021037
0.08051
0.07344
0.067399
0.062392
0.057808
0.052465
0.045343
0.036052
0.025473
0.015365
0.0075619
0.0021077
0.080537
0.073495
0.067476
0.06249
0.057931
0.052596
0.045457
0.036132
0.025525
0.01541
0.0075868
0.0021112
0.080554
0.073522
0.067516
0.062569
0.058069
0.052779
0.045623
0.036239
0.025537
0.01534
0.0075011
0.0020719
0.080454
0.073442
0.067471
0.062604
0.058221
0.053045
0.045956
0.036453
0.025508
0.01507
0.0071954
0.0019398
0.084326
0.076451
0.069537
0.063306
0.057241
0.050816
0.043416
0.035026
0.026148
0.01755
0.0098841
0.0031381
0.084964
0.076942
0.069877
0.063459
0.057194
0.050616
0.043186
0.034913
0.026241
0.017813
0.010156
0.0032581
0.085265
0.077169
0.070033
0.063538
0.057213
0.050569
0.043141
0.03491
0.026288
0.017875
0.010206
0.0032784
0.085518
0.077368
0.070178
0.063622
0.057237
0.050548
0.043106
0.034899
0.026317
0.017942
0.010273
0.0033077
0.085613
0.077452
0.070249
0.063681
0.057285
0.050587
0.043136
0.034922
0.026334
0.017954
0.01028
0.00331
0.08555
0.07742
0.070246
0.063714
0.057349
0.050682
0.043229
0.034978
0.026336
0.017909
0.010227
0.0032851
0.085421
0.077343
0.070218
0.063741
0.057421
0.050793
0.043323
0.035018
0.026319
0.017868
0.010189
0.0032688
0.084972
0.077018
0.07002
0.063705
0.057563
0.051068
0.043611
0.035174
0.026259
0.017629
0.0099313
0.0031538
0.080571
0.073554
0.067577
0.062706
0.058317
0.053139
0.046012
0.0365
0.025547
0.015098
0.0072126
0.0019453
0.081012
0.073948
0.067901
0.062901
0.058347
0.052996
0.045831
0.036406
0.025661
0.015429
0.0075553
0.0020895
0.081236
0.074147
0.068069
0.063011
0.058369
0.052974
0.045777
0.036388
0.025719
0.015547
0.007669
0.0021375
0.081457
0.074318
0.068197
0.063099
0.058412
0.052983
0.045773
0.036393
0.025731
0.015548
0.0076713
0.0021436
0.081589
0.074435
0.068295
0.063178
0.058476
0.053032
0.045811
0.036422
0.025752
0.015563
0.0076789
0.0021457
0.081646
0.074501
0.068365
0.063253
0.058561
0.053123
0.04589
0.036473
0.025784
0.015592
0.0076946
0.0021454
0.081666
0.074513
0.068376
0.063292
0.058662
0.053241
0.046013
0.036546
0.025766
0.015506
0.0076004
0.0021039
0.081499
0.074357
0.068249
0.063248
0.058746
0.053475
0.046273
0.036697
0.025696
0.015207
0.0072783
0.0019666
0.084998
0.077037
0.070031
0.06371
0.05756
0.051064
0.043605
0.035168
0.026255
0.017625
0.0099292
0.0031531
0.085497
0.077397
0.070251
0.063755
0.057423
0.050776
0.043303
0.034998
0.026304
0.017856
0.010182
0.0032667
0.085671
0.077507
0.070301
0.063739
0.057349
0.05067
0.043209
0.034956
0.026314
0.017895
0.010218
0.0032825
0.085777
0.07757
0.070322
0.063713
0.057283
0.050568
0.043107
0.03489
0.026305
0.017933
0.010268
0.0033061
0.08572
0.077513
0.070266
0.06366
0.057233
0.050521
0.043066
0.034857
0.02628
0.017915
0.010257
0.0033025
0.085502
0.077337
0.070134
0.063579
0.057204
0.050534
0.043092
0.034859
0.026243
0.017842
0.010187
0.0032721
0.085228
0.077127
0.069987
0.063501
0.057179
0.050576
0.043132
0.034858
0.026191
0.017779
0.010136
0.0032515
0.084614
0.076651
0.069653
0.063349
0.057222
0.050769
0.043355
0.034964
0.026096
0.017513
0.0098629
0.0031312
0.081543
0.07439
0.068269
0.063256
0.058744
0.053464
0.046267
0.036689
0.025688
0.015202
0.0072769
0.0019663
0.081798
0.074607
0.068431
0.063313
0.058657
0.053226
0.045981
0.036513
0.02574
0.015489
0.0075938
0.0021026
0.081857
0.074651
0.068455
0.063293
0.058565
0.053093
0.045844
0.036427
0.025746
0.015566
0.0076827
0.0021432
0.081868
0.074632
0.068415
0.063229
0.058474
0.052989
0.045748
0.036358
0.0257
0.015525
0.007659
0.0021406
0.081788
0.074553
0.068337
0.063154
0.058404
0.052927
0.045695
0.036315
0.025667
0.015504
0.0076463
0.0021362
0.081611
0.074408
0.068221
0.063068
0.058352
0.052906
0.045687
0.036299
0.025647
0.015498
0.0076417
0.0021288
0.081411
0.074222
0.068057
0.062953
0.058323
0.052918
0.045733
0.036312
0.025587
0.015379
0.0075277
0.0020806
0.080985
0.073835
0.067732
0.062753
0.058289
0.053059
0.045911
0.036405
0.025472
0.015049
0.0071859
0.0019366
)
;

boundaryField
{
    inlet
    {
        type            uniformTotalPressure;
        rho             rho;
        psi             none;
        gamma           1;
        p0              table
        
4
(
(0 1.3332)
(0.003 1.3332)
(0.0031 0)
(0.01 0)
)
;
        value           nonuniform 0();
    }
    outlet
    {
        type            fixedValue;
        value           uniform 0;
    }
    mantle
    {
        type            zeroGradient;
    }
    procBoundary3to2
    {
        type            processor;
        value           nonuniform List<scalar> 
128
(
0.095396
0.095847
0.096116
0.096214
0.096136
0.095881
0.095457
0.09485
0.095971
0.096396
0.096662
0.096758
0.09668
0.096428
0.096005
0.09542
0.096358
0.096782
0.097045
0.097138
0.09706
0.096811
0.096391
0.095807
0.096574
0.096996
0.097257
0.09735
0.097272
0.097023
0.096606
0.096025
0.096614
0.097036
0.097297
0.09739
0.097313
0.097064
0.096647
0.096066
0.096478
0.096902
0.097165
0.097259
0.097182
0.096932
0.096513
0.09593
0.096169
0.096596
0.096863
0.09696
0.096883
0.096631
0.096209
0.095623
0.095675
0.096129
0.096399
0.096498
0.096421
0.096168
0.095745
0.095134
0.093672
0.094261
0.094454
0.094554
0.094447
0.094136
0.093754
0.092961
0.088753
0.088887
0.088849
0.088789
0.08864
0.088384
0.088154
0.087729
0.092932
0.093665
0.093996
0.094254
0.094309
0.094161
0.093928
0.093304
0.087691
0.088013
0.088163
0.088333
0.088409
0.088401
0.088388
0.088224
0.093396
0.094226
0.094618
0.094935
0.09504
0.094932
0.094729
0.094108
0.088343
0.088874
0.089139
0.089409
0.089555
0.089593
0.089596
0.089373
0.094141
0.094826
0.095085
0.095248
0.095193
0.094922
0.094566
0.093768
0.089427
0.089767
0.08986
0.089909
0.089833
0.08962
0.089391
0.088885
)
;
    }
}


// ************************************************************************* //
