/*--------------------------------*- C++ -*----------------------------------*\
| =========                 |                                                 |
| \\      /  F ield         | foam-extend: Open Source CFD                    |
|  \\    /   O peration     | Version:     4.1-20200408                       |
|   \\  /    A nd           | Web:         http://www.foam-extend.org         |
|    \\/     M anipulation  |                                                 |
\*---------------------------------------------------------------------------*/
FoamFile
{
    version     2.0;
    format      ascii;
    class       volScalarField;
    location    "0.0575000";
    object      ccy;
}
// * * * * * * * * * * * * * * * * * * * * * * * * * * * * * * * * * * * * * //

dimensions      [0 1 0 0 0 0 0];

internalField   nonuniform List<scalar> 
1952
(
7.08461e-05
0.000115381
0.000160496
0.000205808
0.000251214
0.000296673
0.000342167
0.00038769
0.000433235
0.000478803
0.000524393
0.000570011
0.000615661
0.000661348
0.000707067
3.03622e-05
7.08402e-05
0.00011537
0.000160482
0.000205792
0.000251193
0.000296649
0.00034214
0.000387661
0.000433206
0.000478771
0.000524364
0.000569981
0.000615633
0.000661324
0.000707043
3.03598e-05
7.08381e-05
0.000115367
0.000160478
0.000205785
0.000251186
0.00029664
0.000342132
0.00038765
0.000433193
0.000478758
0.000524348
0.000569965
0.000615615
0.000661304
0.000707022
3.03585e-05
7.0836e-05
0.000115364
0.000160473
0.000205779
0.000251178
0.000296631
0.000342121
0.000387639
0.000433179
0.000478744
0.000524331
0.000569947
0.000615596
0.000661283
0.000707001
3.03581e-05
7.08338e-05
0.000115359
0.000160468
0.000205772
0.00025117
0.000296622
0.00034211
0.000387625
0.000433167
0.000478728
0.000524315
0.000569929
0.000615576
0.000661262
0.000706978
3.03576e-05
7.08315e-05
0.000115357
0.000160462
0.000205766
0.000251162
0.000296612
0.000342099
0.000387614
0.000433152
0.000478713
0.000524297
0.00056991
0.000615556
0.00066124
0.000706955
3.03561e-05
7.08292e-05
0.000115352
0.000160457
0.000205759
0.000251155
0.000296603
0.000342087
0.0003876
0.000433137
0.000478696
0.00052428
0.000569891
0.000615535
0.000661219
0.000706932
3.03551e-05
7.08268e-05
0.000115349
0.000160453
0.000205752
0.000251145
0.000296593
0.000342076
0.000387586
0.000433123
0.00047868
0.000524262
0.000569872
0.000615515
0.000661197
0.000706908
3.03536e-05
7.08244e-05
0.000115345
0.000160446
0.000205745
0.000251137
0.000296581
0.000342064
0.000387575
0.000433107
0.000478665
0.000524244
0.000569852
0.000615494
0.000661173
0.000706885
3.03536e-05
7.08219e-05
0.000115341
0.000160441
0.000205738
0.000251127
0.000296573
0.000342052
0.000387561
0.000433093
0.000478648
0.000524226
0.000569833
0.000615473
0.000661152
0.000706861
3.0352e-05
7.08194e-05
0.000115336
0.000160435
0.00020573
0.00025112
0.000296561
0.00034204
0.000387547
0.000433078
0.000478631
0.000524208
0.000569814
0.000615452
0.000661129
0.000706837
3.03509e-05
7.08169e-05
0.000115332
0.00016043
0.000205723
0.00025111
0.00029655
0.000342029
0.000387534
0.000433063
0.000478614
0.00052419
0.000569795
0.00061543
0.000661108
0.000706813
3.03499e-05
7.08151e-05
0.000115329
0.000160423
0.000205717
0.000251101
0.000296541
0.000342016
0.00038752
0.000433048
0.000478597
0.000524172
0.000569774
0.000615411
0.000661084
0.000706789
3.03483e-05
7.08112e-05
0.000115324
0.000160419
0.000205708
0.000251093
0.000296531
0.000342004
0.000387507
0.000433033
0.000478581
0.000524155
0.000569754
0.000615389
0.000661063
0.000706764
3.03482e-05
7.08095e-05
0.00011532
0.000160413
0.000205702
0.000251084
0.00029652
0.000341993
0.000387494
0.000433018
0.000478565
0.000524136
0.000569736
0.000615368
0.000661038
0.000706742
3.03467e-05
7.0807e-05
0.000115317
0.000160406
0.000205696
0.000251076
0.00029651
0.000341981
0.00038748
0.000433003
0.000478549
0.000524117
0.000569716
0.000615347
0.000661017
0.000706718
3.03456e-05
7.08046e-05
0.000115312
0.000160403
0.000205688
0.000251067
0.0002965
0.000341969
0.000387467
0.000432988
0.000478532
0.000524101
0.000569696
0.000615327
0.000660995
0.000706694
3.03446e-05
7.08022e-05
0.000115308
0.000160396
0.000205681
0.000251058
0.00029649
0.000341958
0.000387455
0.000432973
0.000478516
0.000524083
0.000569679
0.000615306
0.000660972
0.000706671
3.03436e-05
7.07999e-05
0.000115305
0.000160391
0.000205674
0.00025105
0.00029648
0.000341947
0.000387441
0.00043296
0.0004785
0.000524065
0.000569659
0.000615285
0.000660952
0.000706647
3.03426e-05
7.07975e-05
0.000115301
0.000160385
0.000205667
0.000251043
0.00029647
0.000341935
0.000387428
0.000432945
0.000478484
0.000524049
0.00056964
0.000615265
0.000660928
0.000706623
3.03416e-05
7.07952e-05
0.000115296
0.000160381
0.00020566
0.000251034
0.000296461
0.000341924
0.000387416
0.000432931
0.000478469
0.000524031
0.000569621
0.000615246
0.000660907
0.0007066
3.03406e-05
7.07937e-05
0.000115294
0.000160375
0.000205654
0.000251026
0.000296451
0.000341913
0.000387403
0.000432918
0.000478453
0.000524014
0.000569602
0.000615224
0.000660886
0.000706577
3.03396e-05
7.079e-05
0.000115291
0.00016037
0.000205648
0.000251018
0.000296441
0.000341903
0.000387391
0.000432902
0.000478438
0.000523997
0.000569585
0.000615205
0.000660863
0.000706554
3.03387e-05
7.07885e-05
0.000115286
0.000160365
0.000205641
0.00025101
0.000296432
0.000341891
0.000387379
0.000432889
0.000478423
0.00052398
0.000569565
0.000615186
0.000660842
0.000706531
3.03377e-05
7.0787e-05
0.000115282
0.00016036
0.000205635
0.000251001
0.000296424
0.00034188
0.000387366
0.000432876
0.000478407
0.000523964
0.000569547
0.000615164
0.000660822
0.000706508
3.03367e-05
7.07834e-05
0.00011528
0.000160355
0.000205628
0.000250994
0.000296414
0.00034187
0.000387355
0.000432861
0.000478393
0.000523946
0.00056953
0.000615145
0.000660799
0.000706485
3.03358e-05
7.07819e-05
0.000115276
0.00016035
0.000205621
0.000250987
0.000296405
0.00034186
0.000387342
0.000432849
0.000478377
0.00052393
0.000569511
0.000615125
0.000660778
0.000706462
3.03354e-05
7.07805e-05
0.000115271
0.000160346
0.000205615
0.000250978
0.000296396
0.000341849
0.00038733
0.000432835
0.000478362
0.000523914
0.000569493
0.000615105
0.000660757
0.000706439
3.03334e-05
7.07768e-05
0.000115269
0.000160339
0.000205609
0.000250971
0.000296386
0.000341838
0.000387319
0.000432821
0.000478347
0.000523897
0.000569474
0.000615085
0.000660735
0.000706415
3.03335e-05
7.07752e-05
0.000115265
0.000160336
0.000205602
0.000250963
0.000296376
0.000341828
0.000387305
0.000432807
0.000478331
0.000523879
0.000569455
0.000615066
0.000660713
0.000706392
3.03315e-05
7.07735e-05
0.00011526
0.000160329
0.000205595
0.000250955
0.000296367
0.000341815
0.000387292
0.000432793
0.000478315
0.000523862
0.000569437
0.000615044
0.000660691
0.000706366
3.03309e-05
7.07694e-05
0.000115256
0.000160324
0.000205588
0.000250945
0.000296356
0.000341803
0.000387279
0.000432777
0.000478299
0.000523844
0.000569418
0.000615023
0.000660666
0.000706343
3.03303e-05
7.07679e-05
0.000115251
0.000160317
0.000205579
0.000250934
0.000296345
0.00034179
0.000387264
0.000432761
0.000478281
0.000523825
0.000569396
0.000615
0.000660644
0.000706315
3.03281e-05
7.07639e-05
0.000115246
0.00016031
0.00020557
0.000250925
0.000296332
0.000341776
0.000387248
0.000432744
0.000478262
0.000523805
0.000569374
0.000614977
0.000660617
0.000706289
3.03272e-05
7.07602e-05
0.00011524
0.000160301
0.00020556
0.000250911
0.000296317
0.00034176
0.00038723
0.000432725
0.000478241
0.000523781
0.00056935
0.000614951
0.00066059
0.00070626
3.03255e-05
7.07558e-05
0.000115233
0.000160292
0.000205548
0.000250897
0.000296301
0.000341741
0.00038721
0.000432701
0.000478218
0.000523756
0.000569323
0.000614923
0.000660562
0.000706228
3.03236e-05
7.07506e-05
0.000115225
0.000160281
0.000205533
0.00025088
0.000296281
0.00034172
0.000387185
0.000432678
0.00047819
0.000523729
0.000569293
0.000614893
0.000660529
0.000706193
3.03214e-05
7.07441e-05
0.000115215
0.000160267
0.000205516
0.00025086
0.000296258
0.000341693
0.000387159
0.000432647
0.000478159
0.000523696
0.000569261
0.000614857
0.000660492
0.000706156
3.03189e-05
7.07369e-05
0.000115203
0.000160251
0.000205496
0.000250835
0.00029623
0.000341663
0.000387126
0.000432612
0.000478123
0.000523658
0.000569221
0.000614817
0.00066045
0.000706113
3.03155e-05
7.0728e-05
0.000115188
0.000160231
0.000205471
0.000250806
0.000296197
0.000341627
0.000387086
0.000432571
0.000478079
0.000523613
0.000569175
0.00061477
0.000660403
0.000706063
3.03117e-05
7.07173e-05
0.000115171
0.000160207
0.000205442
0.000250771
0.000296157
0.000341583
0.000387038
0.00043252
0.000478027
0.000523559
0.000569121
0.000614715
0.000660347
0.000706007
3.03071e-05
7.07045e-05
0.000115151
0.000160179
0.000205406
0.000250729
0.000296109
0.000341529
0.000386981
0.000432459
0.000477964
0.000523494
0.000569055
0.00061465
0.000660281
0.00070594
3.03016e-05
7.06895e-05
0.000115126
0.000160145
0.000205364
0.00025068
0.000296052
0.000341466
0.000386912
0.000432386
0.000477887
0.000523416
0.000568976
0.00061457
0.000660202
0.000705861
3.02951e-05
7.06718e-05
0.000115098
0.000160106
0.000205315
0.00025062
0.000295984
0.00034139
0.000386829
0.000432298
0.000477795
0.000523322
0.00056888
0.000614475
0.000660108
0.000705767
3.02876e-05
7.06517e-05
0.000115065
0.000160061
0.000205258
0.000250552
0.000295906
0.000341302
0.000386732
0.000432194
0.000477685
0.000523208
0.000568764
0.000614359
0.000659992
0.000705654
3.02789e-05
7.06289e-05
0.000115029
0.000160011
0.000205193
0.000250474
0.000295815
0.000341199
0.000386619
0.000432071
0.000477554
0.00052307
0.000568622
0.000614215
0.000659848
0.000705511
3.02691e-05
7.0604e-05
0.000114988
0.000159954
0.000205122
0.000250387
0.000295713
0.000341084
0.00038649
0.00043193
0.000477402
0.000522908
0.000568451
0.000614036
0.000659665
0.000705325
3.02584e-05
7.05771e-05
0.000114944
0.000159894
0.000205044
0.000250293
0.000295603
0.000340956
0.000386347
0.000431772
0.000477229
0.000522721
0.000568251
0.000613825
0.000659441
0.00070509
3.02469e-05
7.05492e-05
0.000114899
0.00015983
0.000204963
0.000250194
0.000295485
0.000340821
0.000386195
0.000431601
0.000477041
0.000522517
0.000568031
0.000613589
0.000659191
0.000704825
3.0235e-05
7.05212e-05
0.000114853
0.000159767
0.000204881
0.000250094
0.000295366
0.000340683
0.000386038
0.000431425
0.000476847
0.000522304
0.0005678
0.000613342
0.000658929
0.000704551
3.0223e-05
7.04945e-05
0.000114809
0.000159706
0.000204802
0.000249997
0.000295251
0.000340549
0.000385884
0.000431252
0.000476654
0.000522092
0.00056757
0.000613096
0.000658669
0.000704281
3.02115e-05
7.04705e-05
0.00011477
0.000159651
0.000204731
0.000249909
0.000295146
0.000340427
0.000385743
0.000431092
0.000476475
0.000521893
0.000567353
0.000612862
0.000658422
0.000704027
3.02013e-05
7.0451e-05
0.000114738
0.000159606
0.000204673
0.000249836
0.000295059
0.000340324
0.000385625
0.000430957
0.000476321
0.000521721
0.000567163
0.000612656
0.000658203
0.000703808
3.0193e-05
7.04377e-05
0.000114716
0.000159575
0.000204633
0.000249786
0.000294999
0.000340252
0.00038554
0.000430858
0.000476208
0.000521592
0.000567018
0.000612496
0.000658037
0.000703653
3.01873e-05
7.04322e-05
0.000114707
0.000159562
0.000204615
0.000249764
0.000294971
0.000340218
0.000385499
0.000430809
0.000476151
0.000521527
0.000566947
0.00061242
0.000657969
0.000703608
3.01849e-05
7.04354e-05
0.000114712
0.00015957
0.000204625
0.000249776
0.000294985
0.000340234
0.000385518
0.000430832
0.000476181
0.000521566
0.000566998
0.000612487
0.000658059
0.000703733
3.01864e-05
7.04506e-05
0.000114737
0.000159605
0.000204673
0.000249837
0.00029506
0.000340327
0.00038563
0.000430969
0.000476345
0.000521762
0.000567229
0.000612757
0.000658372
0.000704089
3.01928e-05
7.04843e-05
0.000114793
0.000159685
0.000204779
0.000249973
0.00029523
0.000340534
0.000385879
0.000431264
0.000476691
0.000522162
0.000567688
0.000613275
0.000658947
0.000704716
3.02071e-05
7.05458e-05
0.000114895
0.00015983
0.000204969
0.000250213
0.000295523
0.000340886
0.000386295
0.000431748
0.000477246
0.000522792
0.000568393
0.000614054
0.000659793
0.000705617
3.02333e-05
7.06419e-05
0.000115053
0.000160052
0.000205259
0.000250573
0.000295959
0.0003414
0.000386891
0.000432429
0.000478014
0.000523649
0.000569336
0.000615078
0.000660888
0.000706765
3.02743e-05
7.07745e-05
0.000115269
0.000160355
0.00020565
0.000251055
0.000296533
0.000342069
0.000387656
0.000433291
0.000478975
0.000524706
0.000570485
0.000616313
0.000662193
0.000708119
3.0331e-05
7.09396e-05
0.000115538
0.000160729
0.00020613
0.000251642
0.000297226
0.000342868
0.000388562
0.000434303
0.00048009
0.000525922
0.000571796
0.000617709
0.000663658
0.000709632
3.04017e-05
7.11283e-05
0.000115845
0.000161155
0.000206674
0.000252303
0.000298003
0.00034376
0.000389566
0.000435418
0.000481312
0.000527247
0.000573215
0.000619212
0.000665229
0.000711249
3.04826e-05
7.13281e-05
0.00011617
0.000161605
0.000207249
0.000253001
0.000298822
0.000344697
0.000390619
0.000436583
0.000482585
0.000528622
0.000574685
0.000620765
0.000666848
0.000712915
3.05683e-05
7.15268e-05
0.000116493
0.000162053
0.000207822
0.000253696
0.000299639
0.000345633
0.000391671
0.000437746
0.000483855
0.000529992
0.000576148
0.00062231
0.000668461
0.000714577
3.06536e-05
7.1714e-05
0.000116798
0.000162477
0.000208364
0.000254356
0.000300416
0.000346525
0.000392674
0.000438858
0.000485071
0.000531307
0.000577553
0.000623796
0.000670016
0.000716184
3.07338e-05
7.18829e-05
0.000117073
0.00016286
0.000208855
0.000254955
0.000301122
0.000347337
0.000393592
0.000439878
0.00048619
0.00053252
0.000578854
0.000625178
0.000671466
0.000717691
3.08063e-05
7.20305e-05
0.000117313
0.000163194
0.000209284
0.00025548
0.000301741
0.00034805
0.000394398
0.000440777
0.00048718
0.000533598
0.000580017
0.000626419
0.000672777
0.000719061
3.08695e-05
7.21574e-05
0.000117519
0.000163481
0.000209651
0.000255926
0.000302267
0.000348655
0.000395082
0.00044154
0.000488021
0.000534518
0.000581014
0.000627492
0.00067392
0.00072027
3.09239e-05
7.22655e-05
0.000117695
0.000163723
0.00020996
0.0002563
0.000302705
0.000349157
0.000395647
0.000442167
0.000488711
0.000535271
0.000581833
0.00062838
0.000674877
0.000721298
3.09704e-05
7.23575e-05
0.000117844
0.000163928
0.000210219
0.000256612
0.000303067
0.000349569
0.000396107
0.000442673
0.000489261
0.000535866
0.000582476
0.000629078
0.000675642
0.000722136
3.101e-05
7.24357e-05
0.00011797
0.000164101
0.000210437
0.000256873
0.000303369
0.000349909
0.000396482
0.000443081
0.000489698
0.00053633
0.00058297
0.000629609
0.000676225
0.00072279
3.10435e-05
7.25005e-05
0.000118075
0.000164246
0.00021062
0.000257093
0.000303623
0.000350193
0.000396792
0.000443414
0.000490052
0.000536703
0.000583359
0.000630017
0.000676665
0.000723283
3.10714e-05
7.25541e-05
0.000118162
0.000164366
0.000210773
0.000257276
0.000303835
0.00035043
0.000397051
0.000443693
0.000490348
0.000537012
0.00058368
0.000630348
0.00067701
0.000723658
3.10945e-05
7.25996e-05
0.000118236
0.000164468
0.000210901
0.000257429
0.000304012
0.000350629
0.000397269
0.000443926
0.000490595
0.000537271
0.000583948
0.000630624
0.000677295
0.000723957
3.11139e-05
7.26382e-05
0.000118298
0.000164553
0.000211009
0.000257559
0.000304161
0.000350795
0.000397451
0.000444121
0.000490801
0.000537486
0.000584172
0.000630855
0.000677534
0.000724205
3.11306e-05
7.26708e-05
0.00011835
0.000164625
0.0002111
0.000257667
0.000304284
0.000350932
0.000397601
0.000444282
0.000490971
0.000537664
0.000584358
0.000631049
0.000677735
0.000724414
3.11446e-05
7.26971e-05
0.000118395
0.000164684
0.000211174
0.000257755
0.000304386
0.000351046
0.000397725
0.000444416
0.000491112
0.000537813
0.000584513
0.000631212
0.000677905
0.000724592
3.11562e-05
7.27205e-05
0.000118429
0.000164734
0.000211236
0.000257829
0.00030447
0.000351139
0.000397826
0.000444525
0.00049123
0.000537937
0.000584644
0.000631347
0.000678049
0.000724744
3.11657e-05
7.27378e-05
0.000118458
0.000164774
0.000211286
0.000257889
0.000304537
0.000351216
0.000397911
0.000444616
0.000491326
0.000538039
0.000584752
0.000631463
0.000678171
0.000724873
3.11735e-05
7.27524e-05
0.000118482
0.000164806
0.000211327
0.000257936
0.000304594
0.000351278
0.000397979
0.00044469
0.000491407
0.000538126
0.000584843
0.000631561
0.000678274
0.000724985
3.11803e-05
7.2765e-05
0.000118501
0.000164832
0.00021136
0.000257976
0.00030464
0.000351329
0.000398036
0.000444753
0.000491472
0.000538197
0.000584921
0.000631643
0.000678364
0.000725081
3.11843e-05
7.2773e-05
0.000118517
0.000164853
0.000211386
0.000258009
0.000304676
0.000351371
0.000398083
0.000444802
0.00049153
0.000538257
0.000584986
0.000631715
0.000678441
0.000725165
3.11895e-05
7.27814e-05
0.00011853
0.00016487
0.000211408
0.000258033
0.000304707
0.000351406
0.000398121
0.000444846
0.000491576
0.000538309
0.000585042
0.000631776
0.000678508
0.000725238
3.11923e-05
7.27884e-05
0.000118539
0.000164884
0.000211425
0.000258057
0.000304731
0.000351435
0.000398153
0.000444883
0.000491615
0.000538353
0.000585091
0.000631829
0.000678567
0.000725303
3.11944e-05
7.27927e-05
0.000118547
0.000164896
0.00021144
0.000258073
0.000304753
0.000351458
0.000398182
0.000444911
0.000491651
0.000538391
0.000585133
0.000631876
0.000678619
0.000725361
3.11971e-05
7.27968e-05
0.000118554
0.000164905
0.000211452
0.000258088
0.000304769
0.000351479
0.000398203
0.00044494
0.000491679
0.000538424
0.00058517
0.000631918
0.000678665
0.000725413
3.11989e-05
7.28002e-05
0.000118559
0.000164912
0.000211463
0.000258099
0.000304785
0.000351496
0.000398224
0.000444962
0.000491706
0.000538453
0.000585204
0.000631956
0.000678707
0.00072546
3.12009e-05
7.28032e-05
0.000118564
0.000164919
0.000211471
0.000258112
0.000304797
0.000351511
0.000398242
0.000444982
0.00049173
0.00053848
0.000585235
0.000631989
0.000678747
0.000725502
3.12016e-05
7.28065e-05
0.000118568
0.000164925
0.000211478
0.000258121
0.00030481
0.000351525
0.000398257
0.000445001
0.00049175
0.000538506
0.000585262
0.000632022
0.000678782
0.000725541
3.12022e-05
7.2808e-05
0.000118572
0.000164931
0.000211485
0.000258129
0.00030482
0.000351537
0.000398272
0.000445017
0.000491771
0.000538527
0.000585288
0.00063205
0.000678814
0.000725579
3.12037e-05
7.28093e-05
0.000118576
0.000164935
0.000211491
0.000258138
0.000304828
0.000351549
0.000398286
0.000445033
0.000491788
0.000538549
0.000585312
0.000632077
0.000678844
0.000725613
3.12051e-05
7.28128e-05
0.000118579
0.000164939
0.000211498
0.000258144
0.000304839
0.000351559
0.000398299
0.000445048
0.000491806
0.000538568
0.000585335
0.000632103
0.000678873
0.000725644
3.12053e-05
7.28138e-05
0.000118582
0.000164945
0.000211502
0.000258152
0.000304847
0.000351571
0.000398311
0.000445062
0.000491822
0.000538588
0.000585355
0.000632128
0.000678901
0.000725673
3.12061e-05
7.28155e-05
0.000118585
0.000164948
0.000211509
0.000258157
0.000304856
0.00035158
0.000398322
0.000445077
0.000491838
0.000538605
0.000585377
0.00063215
0.000678926
0.000725704
3.12069e-05
7.28173e-05
0.000118588
0.000164953
0.000211513
0.000258165
0.000304863
0.00035159
0.000398334
0.000445091
0.000491853
0.000538623
0.000585396
0.000632173
0.000678951
0.00072573
3.12071e-05
7.28182e-05
0.000118591
0.000164955
0.00021152
0.000258171
0.000304871
0.000351599
0.000398346
0.000445102
0.000491869
0.00053864
0.000585415
0.000632194
0.000678976
0.000725755
3.12089e-05
7.28207e-05
0.000118593
0.00016496
0.000211524
0.000258177
0.000304879
0.000351609
0.000398356
0.000445115
0.000491883
0.000538656
0.000585434
0.000632214
0.000678997
0.000725782
3.1209e-05
7.28232e-05
0.000118596
0.000164964
0.000211529
0.000258184
0.000304886
0.000351618
0.000398367
0.000445128
0.000491897
0.000538672
0.000585452
0.000632234
0.000679021
0.000725806
3.12098e-05
7.28233e-05
0.000118599
0.000164968
0.000211535
0.00025819
0.000304894
0.000351626
0.000398377
0.00044514
0.000491911
0.000538688
0.000585468
0.000632254
0.00067904
0.000725829
3.12105e-05
7.28265e-05
0.000118601
0.000164972
0.000211539
0.000258197
0.000304902
0.000351635
0.000398388
0.000445152
0.000491924
0.000538703
0.000585486
0.000632272
0.000679062
0.00072585
3.12106e-05
7.28274e-05
0.000118604
0.000164975
0.000211545
0.000258203
0.000304909
0.000351644
0.000398398
0.000445163
0.000491937
0.000538717
0.000585503
0.00063229
0.00067908
0.000725873
3.12125e-05
7.2829e-05
0.000118607
0.00016498
0.000211548
0.00025821
0.000304916
0.000351653
0.000398409
0.000445174
0.00049195
0.000538732
0.000585518
0.000632308
0.000679101
0.000725893
3.12126e-05
7.28307e-05
0.00011861
0.000164982
0.000211555
0.000258215
0.000304924
0.000351663
0.000398417
0.000445186
0.000491963
0.000538747
0.000585534
0.000632325
0.000679118
0.000725914
3.12133e-05
7.28323e-05
0.000118612
0.000164987
0.000211559
0.00025822
0.000304932
0.000351669
0.000398428
0.000445196
0.000491975
0.00053876
0.000585549
0.000632341
0.000679137
0.000725932
3.12134e-05
7.28339e-05
0.000118615
0.00016499
0.000211563
0.000258227
0.000304938
0.000351679
0.000398435
0.000445208
0.000491987
0.000538772
0.000585563
0.000632358
0.000679153
0.000725952
3.12147e-05
7.28354e-05
0.000118617
0.000164994
0.000211568
0.000258232
0.000304945
0.000351685
0.000398446
0.000445217
0.000491998
0.000538786
0.000585577
0.000632371
0.000679171
0.000725969
3.12159e-05
7.28369e-05
0.00011862
0.000164997
0.000211572
0.000258239
0.00030495
0.000351693
0.000398455
0.000445227
0.00049201
0.000538797
0.000585591
0.000632387
0.000679186
0.000725986
3.1216e-05
7.28384e-05
0.000118622
0.000165001
0.000211577
0.000258243
0.000304958
0.0003517
0.000398463
0.000445238
0.000492019
0.00053881
0.000585603
0.000632401
0.000679202
0.000726002
3.12166e-05
7.28397e-05
0.000118624
0.000165004
0.000211581
0.000258247
0.000304963
0.000351708
0.000398471
0.000445246
0.00049203
0.000538821
0.000585616
0.000632416
0.000679215
0.000726019
3.12172e-05
7.2841e-05
0.000118626
0.000165006
0.000211584
0.000258254
0.000304968
0.000351714
0.000398478
0.000445255
0.00049204
0.000538831
0.000585629
0.000632427
0.00067923
0.000726033
3.12177e-05
7.28422e-05
0.000118628
0.000165009
0.000211588
0.000258257
0.000304975
0.00035172
0.000398486
0.000445263
0.000492049
0.000538842
0.000585639
0.000632441
0.000679244
0.000726048
3.12183e-05
7.28433e-05
0.00011863
0.000165012
0.000211592
0.000258261
0.000304979
0.000351727
0.000398492
0.00044527
0.000492057
0.000538852
0.00058565
0.000632451
0.000679257
0.000726061
3.12187e-05
7.28443e-05
0.000118632
0.000165014
0.000211595
0.000258265
0.000304984
0.000351731
0.000398498
0.000445277
0.000492066
0.00053886
0.000585658
0.000632463
0.000679268
0.000726074
3.12191e-05
7.28452e-05
0.000118633
0.000165016
0.000211597
0.000258268
0.000304987
0.000351736
0.000398503
0.000445283
0.000492072
0.000538868
0.000585668
0.000632472
0.000679278
0.000726086
3.12195e-05
7.2846e-05
0.000118635
0.000165018
0.0002116
0.000258271
0.000304991
0.00035174
0.000398508
0.000445288
0.000492077
0.000538875
0.000585676
0.00063248
0.000679288
0.000726096
3.12199e-05
7.28466e-05
0.000118636
0.000165019
0.000211601
0.000258273
0.000304994
0.000351743
0.000398512
0.000445293
0.000492083
0.00053888
0.000585681
0.000632487
0.000679296
0.000726106
3.12201e-05
7.2847e-05
0.000118636
0.00016502
0.000211603
0.000258275
0.000304996
0.000351745
0.000398514
0.000445296
0.000492086
0.000538884
0.000585687
0.000632493
0.000679303
0.000726113
3.12203e-05
7.28473e-05
0.000118637
0.000165021
0.000211604
0.000258276
0.000304997
0.000351747
0.000398516
0.000445298
0.000492089
0.000538887
0.000585691
0.000632497
0.000679307
0.000726118
3.12204e-05
7.28474e-05
0.000118637
0.000165022
0.000211604
0.000258277
0.000304997
0.000351748
0.000398517
0.000445299
0.00049209
0.000538889
0.000585692
0.000632499
0.000679309
0.000726121
3.12205e-05
7.28475e-05
0.000118637
0.000165022
0.000211604
0.000258277
0.000304998
0.000351748
0.000398518
0.0004453
0.000492091
0.000538889
0.000585692
0.000632499
0.00067931
0.000726122
3.12205e-05
7.28475e-05
0.000118637
0.000165022
0.000211604
0.000258277
0.000304998
0.000351748
0.000398518
0.0004453
0.000492091
0.000538889
0.000585692
0.000632499
0.00067931
0.000726122
3.12205e-05
)
;

boundaryField
{
    wireUpstream
    {
        type            calculated;
        value           nonuniform List<scalar> 
16
(
7.28475e-05
0.000118637
0.000165022
0.000211604
0.000258277
0.000304998
0.000351748
0.000398518
0.0004453
0.000492091
0.000538889
0.000585692
0.000632499
0.00067931
0.000726122
3.12205e-05
)
;
    }
    wireDownstream
    {
        type            calculated;
        value           nonuniform List<scalar> 
16
(
7.08431e-05
0.000115375
0.000160489
0.000205799
0.000251203
0.000296661
0.000342155
0.000387677
0.000433223
0.000478791
0.000524384
0.000570005
0.000615659
0.000661351
0.000707073
3.03611e-05
)
;
    }
    wireTopContact
    {
        type            calculated;
        value           nonuniform List<scalar> 
122
(
0.00072967
0.000729648
0.000729626
0.000729603
0.000729579
0.000729555
0.000729531
0.000729507
0.000729482
0.000729458
0.000729433
0.000729408
0.000729384
0.000729359
0.000729335
0.00072931
0.000729286
0.000729262
0.000729237
0.000729213
0.000729189
0.000729165
0.000729141
0.000729118
0.000729094
0.00072907
0.000729046
0.000729022
0.000728997
0.000728972
0.000728946
0.000728919
0.000728891
0.000728861
0.000728828
0.000728793
0.000728754
0.00072871
0.00072866
0.000728602
0.000728535
0.000728455
0.000728361
0.000728248
0.000728106
0.000727918
0.000727678
0.000727408
0.00072713
0.000726857
0.000726604
0.00072639
0.000726247
0.000726221
0.000726369
0.000726749
0.000727401
0.000728324
0.000729491
0.000730862
0.000732389
0.000734021
0.000735703
0.000737381
0.000739007
0.000740537
0.000741934
0.000743172
0.000744234
0.000745111
0.000745804
0.000746331
0.000746729
0.000747039
0.000747292
0.000747507
0.000747689
0.000747845
0.000747979
0.000748095
0.000748195
0.000748283
0.000748359
0.000748427
0.000748488
0.000748542
0.000748592
0.000748637
0.000748678
0.000748717
0.000748753
0.000748786
0.000748818
0.000748848
0.000748876
0.000748904
0.00074893
0.000748955
0.000748979
0.000749003
0.000749025
0.000749047
0.000749067
0.000749087
0.000749107
0.000749125
0.000749143
0.00074916
0.000749176
0.000749192
0.000749207
0.000749221
0.000749234
0.000749246
0.000749257
0.000749267
0.000749275
0.00074928
0.000749283
0.000749284
0.000749284
0.000729691
)
;
    }
    front
    {
        type            wedge;
    }
    back
    {
        type            wedge;
    }
}


// ************************************************************************* //
