/*--------------------------------*- C++ -*----------------------------------*\
| =========                 |                                                 |
| \\      /  F ield         | foam-extend: Open Source CFD                    |
|  \\    /   O peration     | Version:     4.1-20200408                       |
|   \\  /    A nd           | Web:         http://www.foam-extend.org         |
|    \\/     M anipulation  |                                                 |
\*---------------------------------------------------------------------------*/
FoamFile
{
    version     2.0;
    format      ascii;
    class       volTensorField;
    location    "0.0575000";
    object      grad(DU);
}
// * * * * * * * * * * * * * * * * * * * * * * * * * * * * * * * * * * * * * //

dimensions      [0 0 0 0 0 0 0];

internalField   nonuniform List<tensor> 
1952
(
(-9.35207e-07 -1.89069e-05 7.5575e-11 7.75545e-07 -2.02691e-05 7.10995e-13 3.24849e-14 1.10441e-13 -2.1134e-05)
(-1.22906e-06 -1.08461e-05 5.16238e-11 1.45223e-06 -2.11269e-05 -2.82444e-13 -3.99984e-15 -4.67297e-13 -2.03079e-05)
(-1.76691e-06 -3.68883e-05 -5.66972e-11 1.74083e-06 -2.03489e-05 -4.02626e-12 -1.85446e-14 1.58404e-13 -2.11032e-05)
(-2.25468e-06 -2.63017e-05 -1.61689e-10 2.44738e-06 -2.0636e-05 2.08309e-14 8.98872e-14 2.79346e-13 -2.02225e-05)
(-3.20715e-06 -5.45458e-05 4.3245e-11 3.30662e-06 -2.01393e-05 7.31486e-12 4.50724e-14 -3.12608e-13 -2.08591e-05)
(-4.08255e-06 -4.42197e-05 2.26932e-10 4.42335e-06 -1.9819e-05 3.28407e-12 -2.85485e-14 -1.57478e-13 -2.00421e-05)
(-5.58429e-06 -7.38992e-05 5.36148e-11 5.61234e-06 -1.91388e-05 -6.48856e-12 1.14643e-13 -1.01434e-12 -2.04606e-05)
(-6.98244e-06 -6.57506e-05 -1.10257e-10 6.95679e-06 -1.81409e-05 -2.45771e-12 2.66404e-13 -9.75162e-13 -1.96347e-05)
(-9.0478e-06 -9.68687e-05 1.95827e-11 9.05369e-06 -1.68919e-05 6.79663e-12 3.44043e-14 -1.69591e-13 -1.98095e-05)
(-1.1221e-05 -9.06211e-05 1.13672e-10 1.25778e-05 -1.46324e-05 -8.20564e-14 -5.99384e-13 8.01349e-13 -1.88917e-05)
(-1.43584e-05 -0.00012296 -1.66688e-11 1.79061e-05 -1.21178e-05 -6.56779e-12 1.83309e-13 8.66636e-13 -1.87254e-05)
(-1.78205e-05 -0.000121834 -5.33324e-11 2.72211e-05 -7.76583e-06 5.33742e-13 1.16023e-12 -3.34129e-13 -1.75953e-05)
(-2.26118e-05 -0.000156912 6.45155e-12 4.57477e-05 -2.92868e-06 5.63548e-12 2.30754e-14 -3.37878e-14 -1.69317e-05)
(-2.85766e-05 -0.0001658 7.17427e-11 8.32942e-05 5.84455e-06 1.10259e-12 -5.06804e-12 -3.54578e-13 -1.5412e-05)
(-3.71428e-05 -0.000214284 2.24707e-11 0.000158092 1.47795e-05 -1.13835e-12 -4.59092e-12 -7.48742e-13 -1.38798e-05)
(-8.10007e-07 -9.72597e-07 1.72608e-11 5.12653e-07 -2.13338e-05 -7.10072e-13 1.55223e-14 -1.70431e-12 -2.06115e-05)
(-2.21577e-06 -4.78522e-06 -9.67964e-16 1.23896e-06 -9.77948e-06 2.32004e-13 5.33617e-14 4.34798e-14 -1.01455e-05)
(-2.37683e-06 -7.38257e-06 2.04021e-15 2.39806e-06 -9.92379e-06 -2.52692e-13 -8.97056e-15 -2.64058e-13 -9.80471e-06)
(-2.64415e-06 -1.0946e-05 6.97973e-16 2.95908e-06 -9.38487e-06 -1.73348e-12 -3.40079e-14 8.06906e-14 -9.98321e-06)
(-3.00474e-06 -1.33407e-05 -3.87702e-15 4.16464e-06 -9.15987e-06 6.12662e-13 1.35897e-13 2.82922e-13 -9.55828e-06)
(-3.56117e-06 -1.72404e-05 -4.37754e-17 5.26195e-06 -8.48649e-06 3.18576e-12 7.45474e-14 -1.30728e-13 -9.60873e-06)
(-3.97369e-06 -1.96082e-05 2.49262e-15 6.85789e-06 -7.96606e-06 4.29118e-13 -8.92053e-14 -1.90903e-13 -9.1308e-06)
(-4.68893e-06 -2.36626e-05 1.2705e-15 8.36337e-06 -7.06797e-06 -3.13887e-12 2.30854e-13 -4.07414e-13 -9.06237e-06)
(-5.20098e-06 -2.59847e-05 -1.23797e-15 1.00051e-05 -6.19575e-06 -5.08498e-13 4.61427e-13 -2.48546e-13 -8.51965e-06)
(-6.20598e-06 -3.00253e-05 -8.33707e-17 1.21977e-05 -4.82196e-06 2.76019e-12 5.93241e-14 -6.43211e-14 -8.32889e-06)
(-6.77595e-06 -3.21648e-05 -1.92218e-15 1.51258e-05 -3.38387e-06 -5.60892e-13 -5.23393e-13 3.20632e-13 -7.67703e-06)
(-7.37754e-06 -3.56777e-05 1.77202e-15 1.8432e-05 -1.67369e-06 -2.50525e-12 -7.52823e-14 3.71077e-13 -7.33702e-06)
(-7.24509e-06 -3.70525e-05 3.46034e-15 2.21903e-05 1.20256e-07 3.7821e-13 3.136e-13 -3.04882e-13 -6.59162e-06)
(-5.97848e-06 -3.90754e-05 -4.73677e-16 2.69184e-05 1.79206e-06 2.02384e-12 3.41678e-14 -9.37015e-15 -6.12839e-06)
(-1.27349e-06 -3.86305e-05 -3.4404e-15 3.19697e-05 1.94379e-06 2.74621e-13 -1.78076e-13 7.7584e-13 -5.35672e-06)
(1.0624e-05 -3.77645e-05 7.92399e-16 3.67493e-05 -1.52742e-06 -6.07966e-13 1.41751e-13 8.71368e-14 -5.04097e-06)
(-2.17096e-06 -2.00203e-06 2.09782e-17 7.8905e-07 -1.02143e-05 -3.62363e-13 2.47721e-14 -8.23501e-13 -9.97378e-06)
(-5.06489e-06 -4.01577e-06 -6.60061e-16 1.29552e-06 -6.92422e-06 1.61644e-13 6.04282e-14 1.41486e-14 -7.06852e-06)
(-5.22267e-06 -6.28077e-06 1.42009e-15 2.52497e-06 -6.80216e-06 -1.78846e-13 -6.29467e-15 -2.26087e-13 -6.93553e-06)
(-5.43417e-06 -9.1609e-06 6.07609e-16 3.20251e-06 -6.38396e-06 -1.1959e-12 -4.10375e-14 6.73292e-14 -6.88702e-06)
(-5.76957e-06 -1.12985e-05 -2.68698e-15 4.55185e-06 -5.98614e-06 4.25774e-13 1.24796e-13 3.36763e-13 -6.64117e-06)
(-6.23411e-06 -1.43481e-05 -2.32138e-16 5.62111e-06 -5.2995e-06 2.15385e-12 8.00923e-14 -7.92225e-14 -6.49622e-06)
(-6.56168e-06 -1.64205e-05 1.69394e-15 7.22987e-06 -4.6827e-06 2.88823e-13 -8.89591e-14 -2.51193e-13 -6.14739e-06)
(-7.08259e-06 -1.95201e-05 1.07862e-15 8.74473e-06 -3.77434e-06 -2.05122e-12 2.48645e-13 -2.18174e-13 -5.92185e-06)
(-7.39974e-06 -2.14925e-05 -6.11461e-16 1.0617e-05 -2.87568e-06 -3.27361e-13 5.63257e-13 3.35222e-14 -5.48518e-06)
(-8.08103e-06 -2.44839e-05 -4.39017e-16 1.28579e-05 -1.60904e-06 1.71428e-12 6.65299e-14 -3.10323e-14 -5.17273e-06)
(-8.24189e-06 -2.60749e-05 -9.84508e-16 1.55563e-05 -4.93204e-07 -3.3861e-13 -5.17167e-13 1.19292e-13 -4.63379e-06)
(-8.29592e-06 -2.84763e-05 1.28694e-15 1.87859e-05 7.29136e-07 -1.4518e-12 -9.19381e-14 1.9338e-13 -4.25168e-06)
(-7.71669e-06 -2.9232e-05 1.93615e-15 2.2342e-05 1.67177e-06 2.10938e-13 2.82215e-13 -2.26366e-13 -3.67596e-06)
(-6.44581e-06 -3.03486e-05 -4.32199e-16 2.65969e-05 2.36012e-06 1.08733e-12 3.50572e-14 -2.37618e-15 -3.29243e-06)
(-3.70722e-06 -2.96211e-05 -1.78209e-15 3.06516e-05 2.05418e-06 1.42661e-13 -4.41754e-14 5.13831e-13 -2.7829e-06)
(9.99218e-07 -2.95369e-05 5.11831e-16 3.16545e-05 5.47508e-07 -2.79007e-13 4.74963e-13 -1.68475e-14 -2.56704e-06)
(-5.04838e-06 -1.69027e-06 1.57544e-17 7.88983e-07 -7.07656e-06 -2.56191e-13 2.47702e-14 -5.77561e-13 -7.04873e-06)
(-8.62571e-06 -3.45684e-06 -4.08957e-16 1.39673e-06 -4.26933e-06 1.00162e-13 6.99971e-14 1.08819e-14 -4.38035e-06)
(-8.78926e-06 -5.57674e-06 8.79057e-16 2.75347e-06 -4.08534e-06 -1.10426e-13 -4.05342e-15 -1.47362e-13 -4.28017e-06)
(-9.01602e-06 -7.83323e-06 3.76525e-16 3.48739e-06 -3.70769e-06 -7.26954e-13 -4.59045e-14 3.72527e-14 -4.18628e-06)
(-9.28265e-06 -9.89612e-06 -1.61367e-15 4.95745e-06 -3.30064e-06 2.55487e-13 1.28747e-13 2.24767e-13 -3.98397e-06)
(-9.69131e-06 -1.21252e-05 -1.4763e-16 6.03082e-06 -2.66655e-06 1.26289e-12 8.65696e-14 -4.1349e-14 -3.80892e-06)
(-9.94924e-06 -1.40409e-05 9.68886e-16 7.678e-06 -2.07684e-06 1.64849e-13 -9.77573e-14 -1.45909e-13 -3.51025e-06)
(-1.03836e-05 -1.6146e-05 6.1575e-16 9.1688e-06 -1.24012e-06 -1.13252e-12 2.77305e-13 -1.25318e-13 -3.26936e-06)
(-1.05484e-05 -1.78173e-05 -3.18001e-16 1.09888e-05 -4.68206e-07 -1.72457e-13 5.92329e-13 1.45645e-14 -2.8901e-06)
(-1.08393e-05 -1.9606e-05 -2.32858e-16 1.30256e-05 5.33108e-07 8.58393e-13 7.15654e-14 -1.27975e-14 -2.59008e-06)
(-1.05961e-05 -2.07196e-05 -4.50006e-16 1.52745e-05 1.32898e-06 -1.56968e-13 -4.71332e-13 1.36112e-13 -2.14734e-06)
(-1.00933e-05 -2.18902e-05 5.66867e-16 1.77914e-05 2.13278e-06 -6.22575e-13 -1.5513e-13 1.12233e-13 -1.82319e-06)
(-8.70716e-06 -2.221e-05 7.30085e-16 2.0106e-05 2.4737e-06 7.9549e-14 1.51428e-13 -2.58463e-13 -1.38586e-06)
(-6.38119e-06 -2.24775e-05 -1.54083e-16 2.24562e-05 2.45136e-06 3.71507e-13 3.35245e-14 7.89316e-16 -1.12489e-06)
(-2.39682e-06 -2.18563e-05 -5.20563e-16 2.36883e-05 1.18996e-06 4.16574e-14 2.26257e-13 5.68402e-13 -8.12716e-07)
(3.5098e-06 -2.14277e-05 1.58595e-16 2.33264e-05 -9.45225e-07 -9.65185e-14 3.82544e-13 1.37036e-14 -8.017e-07)
(-8.59892e-06 -1.47635e-06 1.03387e-17 7.98876e-07 -4.38042e-06 -1.59204e-13 2.46098e-14 -3.5835e-13 -4.3796e-06)
(-1.10283e-05 -2.87389e-06 -1.97136e-16 1.47516e-06 -2.01557e-06 4.82733e-14 7.6514e-14 9.73507e-15 -2.11145e-06)
(-1.11416e-05 -4.64858e-06 4.17546e-16 2.90876e-06 -1.83064e-06 -5.23545e-14 -1.33134e-15 -7.39007e-14 -2.02754e-06)
(-1.13072e-05 -6.44898e-06 1.76386e-16 3.67744e-06 -1.49746e-06 -3.35159e-13 -4.91197e-14 1.01663e-14 -1.93006e-06)
(-1.14733e-05 -8.15685e-06 -7.12733e-16 5.21472e-06 -1.1319e-06 1.12798e-13 1.29715e-13 1.04352e-13 -1.75773e-06)
(-1.17327e-05 -9.84855e-06 -6.57546e-17 6.2617e-06 -5.82944e-07 5.28597e-13 9.0523e-14 -1.19995e-14 -1.59427e-06)
(-1.18381e-05 -1.1372e-05 3.70634e-16 7.89034e-06 -8.81579e-08 6.28773e-14 -1.02748e-13 -2.79869e-14 -1.34072e-06)
(-1.20302e-05 -1.2848e-05 2.18377e-16 9.3009e-06 5.89975e-07 -3.91369e-13 2.97949e-13 -6.09744e-14 -1.12964e-06)
(-1.19445e-05 -1.40522e-05 -8.91243e-17 1.10149e-05 1.15914e-06 -4.87585e-14 6.06743e-13 -5.21961e-14 -8.17894e-07)
(-1.18596e-05 -1.51439e-05 -5.41305e-17 1.28218e-05 1.84916e-06 1.9124e-13 7.43637e-14 -1.10307e-15 -5.77043e-07)
(-1.12821e-05 -1.58007e-05 -4.96985e-17 1.46532e-05 2.29094e-06 -1.75833e-14 -4.35252e-13 1.94485e-13 -2.39736e-07)
(-1.03997e-05 -1.63224e-05 4.19615e-18 1.66407e-05 2.64689e-06 -4.50804e-15 -1.93371e-13 5.89208e-14 -1.32394e-08)
(-8.81173e-06 -1.62976e-05 -1.47111e-16 1.81932e-05 2.56204e-06 -1.59783e-14 9.51375e-14 -2.69904e-13 2.79084e-07)
(-6.54729e-06 -1.62301e-05 5.82943e-17 1.95824e-05 2.1605e-06 -1.36454e-13 3.13455e-14 2.02188e-15 4.1315e-07)
(-3.33746e-06 -1.57089e-05 3.65101e-16 1.96732e-05 1.01378e-06 -2.9219e-14 2.81089e-13 4.35593e-13 5.697e-07)
(7.54377e-07 -1.57934e-05 -1.02999e-16 1.82204e-05 -4.90508e-07 5.83436e-14 4.04699e-13 -2.6993e-15 5.07767e-07)
(-1.09967e-05 -1.22973e-06 5.22589e-18 8.26245e-07 -2.10687e-06 -7.70948e-14 2.41565e-14 -1.73064e-13 -2.12041e-06)
(-1.30382e-05 -2.30937e-06 -2.42304e-17 1.53502e-06 -1.76175e-07 5.92266e-15 7.98125e-14 9.03846e-15 -2.5941e-07)
(-1.31023e-05 -3.73275e-06 3.87847e-17 3.02718e-06 -1.78707e-08 -4.90755e-15 -9.21558e-16 -1.11546e-14 -1.87872e-07)
(-1.32138e-05 -5.1364e-06 9.69999e-18 3.80301e-06 2.6784e-07 -1.81664e-14 -5.00585e-14 -1.21881e-14 -1.04759e-07)
(-1.32784e-05 -6.48101e-06 1.699e-17 5.36883e-06 5.59893e-07 -2.56032e-15 1.33759e-13 -6.14582e-15 4.18691e-08)
(-1.34121e-05 -7.73525e-06 7.48401e-18 6.36783e-06 1.00949e-06 -5.74426e-14 9.31685e-14 1.01846e-14 1.73147e-07)
(-1.33726e-05 -8.88173e-06 -1.06098e-16 7.93701e-06 1.38041e-06 -1.81385e-14 -1.09518e-13 8.0199e-14 3.83273e-07)
(-1.33695e-05 -9.88769e-06 -1.07337e-16 9.22009e-06 1.89245e-06 1.88533e-13 3.15692e-13 -1.78137e-14 5.44374e-07)
(-1.3076e-05 -1.07172e-05 8.55289e-17 1.07367e-05 2.26127e-06 4.73044e-14 6.01815e-13 -1.30027e-13 7.91214e-07)
(-1.26978e-05 -1.13586e-05 9.28311e-17 1.22447e-05 2.67999e-06 -3.18144e-13 7.51844e-14 6.28572e-15 9.59855e-07)
(-1.18685e-05 -1.17274e-05 2.47664e-16 1.36174e-05 2.85231e-06 8.78977e-14 -3.95992e-13 2.50166e-13 1.20361e-06)
(-1.0715e-05 -1.19369e-05 -4.3003e-16 1.50305e-05 2.89849e-06 4.5667e-13 -2.2762e-13 2.91944e-14 1.33715e-06)
(-8.95577e-06 -1.18379e-05 -7.99721e-16 1.58159e-05 2.56162e-06 -8.69596e-14 4.8515e-14 -2.77913e-13 1.51622e-06)
(-6.62595e-06 -1.17333e-05 2.23347e-16 1.63684e-05 1.94536e-06 -5.12177e-13 2.82284e-14 2.65905e-15 1.55071e-06)
(-3.64711e-06 -1.14192e-05 1.02439e-15 1.55715e-05 7.9972e-07 -8.19026e-14 3.01384e-13 3.78233e-13 1.59728e-06)
(-1.00529e-07 -1.1513e-05 -3.01452e-16 1.38109e-05 -5.25822e-07 1.65145e-13 3.54303e-13 -1.75038e-15 1.46549e-06)
(-1.30124e-05 -9.89837e-07 6.83011e-19 8.54794e-07 -2.53893e-07 -9.82096e-15 2.71272e-14 -2.15816e-14 -2.69874e-07)
(-1.43581e-05 -1.78323e-06 1.12133e-16 1.55724e-06 1.26964e-06 -2.74533e-14 7.91513e-14 8.14315e-15 1.20036e-06)
(-1.4367e-05 -2.87597e-06 -2.60506e-16 3.07663e-06 1.3895e-06 3.24331e-14 -2.14013e-15 3.93983e-14 1.2593e-06)
(-1.44135e-05 -3.9326e-06 -1.23545e-16 3.8331e-06 1.62243e-06 2.29499e-13 -4.84398e-14 -2.92853e-14 1.3212e-06)
(-1.43748e-05 -4.93954e-06 5.85755e-16 5.38981e-06 1.82959e-06 -9.22938e-14 1.41137e-13 -9.70439e-14 1.44154e-06)
(-1.43825e-05 -5.83823e-06 6.86163e-17 6.31683e-06 2.1761e-06 -5.08614e-13 9.34951e-14 2.6439e-14 1.53373e-06)
(-1.41995e-05 -6.65523e-06 -4.71452e-16 7.7924e-06 2.41464e-06 -8.00325e-14 -1.20927e-13 1.68195e-13 1.7006e-06)
(-1.4018e-05 -7.31139e-06 -3.61255e-16 8.92573e-06 2.76403e-06 6.2551e-13 3.28314e-13 1.19324e-14 1.80567e-06)
(-1.35502e-05 -7.84427e-06 2.13829e-16 1.02264e-05 2.94798e-06 1.18878e-13 5.96419e-13 -1.98521e-13 1.98997e-06)
(-1.29688e-05 -8.18785e-06 2.06041e-16 1.14517e-05 3.14272e-06 -6.91328e-13 7.42248e-14 1.07531e-14 2.08573e-06)
(-1.19977e-05 -8.36277e-06 4.59801e-16 1.24268e-05 3.10964e-06 1.64198e-13 -3.71739e-13 2.93956e-13 2.24745e-06)
(-1.07403e-05 -8.39923e-06 -7.46408e-16 1.33934e-05 2.93928e-06 7.84862e-13 -2.48412e-13 1.2649e-14 2.29803e-06)
(-9.03073e-06 -8.27119e-06 -1.26006e-15 1.36403e-05 2.48339e-06 -1.36924e-13 3.13691e-14 -2.72728e-13 2.38705e-06)
(-6.91874e-06 -8.18146e-06 3.42899e-16 1.36771e-05 1.80661e-06 -7.75387e-13 2.51231e-14 2.90552e-15 2.34756e-06)
(-4.43493e-06 -8.02446e-06 1.49022e-15 1.24213e-05 8.39668e-07 -1.19047e-13 2.80739e-13 3.09701e-13 2.32173e-06)
(-1.67067e-06 -8.26009e-06 -4.47148e-16 1.05058e-05 -1.9183e-07 2.44239e-13 3.21915e-13 -4.21363e-15 2.16067e-06)
(-1.4344e-05 -7.65109e-07 -3.13171e-18 8.72418e-07 1.20548e-06 4.32993e-14 2.6831e-14 9.79003e-14 1.19097e-06)
(-1.52061e-05 -1.30964e-06 2.14819e-16 1.54739e-06 2.35353e-06 -5.25513e-14 7.87667e-14 7.1422e-15 2.29826e-06)
(-1.51686e-05 -2.10674e-06 -4.86007e-16 3.07072e-06 2.43347e-06 6.04615e-14 -4.36273e-15 7.79679e-14 2.34506e-06)
(-1.51602e-05 -2.86366e-06 -2.24752e-16 3.78537e-06 2.61578e-06 4.14264e-13 -4.59234e-14 -4.16936e-14 2.38487e-06)
(-1.5036e-05 -3.57894e-06 1.00898e-15 5.30625e-06 2.7405e-06 -1.58917e-13 1.53196e-13 -1.674e-13 2.48062e-06)
(-1.49462e-05 -4.18859e-06 1.16207e-16 6.14312e-06 2.99438e-06 -8.40432e-13 9.21855e-14 3.78456e-14 2.53431e-06)
(-1.46509e-05 -4.73987e-06 -7.39069e-16 7.5028e-06 3.11297e-06 -1.25219e-13 -1.38344e-13 2.35443e-13 2.66248e-06)
(-1.43433e-05 -5.13853e-06 -5.48838e-16 8.47485e-06 3.32764e-06 9.40616e-13 3.37174e-13 3.10941e-14 2.71507e-06)
(-1.3758e-05 -5.46257e-06 3.04512e-16 9.54935e-06 3.36475e-06 1.70031e-13 5.92135e-13 -2.53413e-13 2.84656e-06)
(-1.30553e-05 -5.62076e-06 2.88505e-16 1.05085e-05 3.3963e-06 -9.54429e-13 7.2221e-14 1.32881e-14 2.87942e-06)
(-1.20198e-05 -5.6927e-06 6.06783e-16 1.11306e-05 3.22978e-06 2.17556e-13 -3.58156e-13 3.2465e-13 2.97725e-06)
(-1.07419e-05 -5.661e-06 -9.68929e-16 1.17295e-05 2.93089e-06 1.01219e-12 -2.61202e-13 5.00877e-15 2.9635e-06)
(-9.1268e-06 -5.566e-06 -1.57925e-15 1.15613e-05 2.43512e-06 -1.71464e-13 2.8872e-14 -2.65188e-13 2.98908e-06)
(-7.2213e-06 -5.52632e-06 4.27404e-16 1.12522e-05 1.75756e-06 -9.57784e-13 2.20591e-14 3.04443e-15 2.89969e-06)
(-5.11075e-06 -5.48973e-06 1.81718e-15 9.7352e-06 9.41622e-07 -1.45041e-13 2.47085e-13 2.63907e-13 2.82868e-06)
(-2.86106e-06 -5.7518e-06 -5.51753e-16 7.85019e-06 9.72235e-08 2.9883e-13 2.83289e-13 -3.38225e-15 2.65174e-06)
(-1.52041e-05 -5.62472e-07 -6.14128e-18 8.7724e-07 2.30227e-06 8.33219e-14 2.67526e-14 1.87824e-13 2.2913e-06)
(-1.5589e-05 -8.9857e-07 2.88e-16 1.50779e-06 3.12172e-06 -7.03968e-14 7.55019e-14 6.17043e-15 3.07908e-06)
(-1.55141e-05 -1.44133e-06 -6.46643e-16 3.01501e-06 3.16462e-06 8.03524e-14 -8.31328e-15 1.05839e-13 3.11514e-06)
(-1.54617e-05 -1.94536e-06 -2.97097e-16 3.66996e-06 3.30255e-06 5.44476e-13 -4.12159e-14 -5.0176e-14 3.13436e-06)
(-1.5271e-05 -2.41807e-06 1.30643e-15 5.13679e-06 3.35407e-06 -2.05616e-13 1.68864e-13 -2.19085e-13 3.20885e-06)
(-1.51108e-05 -2.79573e-06 1.50468e-16 5.87321e-06 3.53156e-06 -1.07048e-12 8.92415e-14 4.5324e-14 3.22793e-06)
(-1.47355e-05 -3.13953e-06 -9.23786e-16 7.10778e-06 3.54994e-06 -1.56293e-13 -1.6125e-13 2.8438e-13 3.3241e-06)
(-1.43487e-05 -3.3479e-06 -6.77901e-16 7.92361e-06 3.66109e-06 1.15421e-12 3.42812e-13 4.20573e-14 3.33139e-06)
(-1.36995e-05 -3.52579e-06 3.64946e-16 8.78561e-06 3.58964e-06 2.04368e-13 5.93787e-13 -2.9548e-13 3.4214e-06)
(-1.29485e-05 -3.5645e-06 3.43909e-16 9.51777e-06 3.5108e-06 -1.1282e-12 6.93448e-14 1.44656e-14 3.40355e-06)
(-1.19212e-05 -3.58153e-06 7.0259e-16 9.85073e-06 3.26724e-06 2.52486e-13 -3.55888e-13 3.45256e-13 3.45485e-06)
(-1.07029e-05 -3.52253e-06 -1.11419e-15 1.01761e-05 2.90266e-06 1.15937e-12 -2.66982e-13 3.10941e-15 3.39425e-06)
(-9.2472e-06 -3.4686e-06 -1.78644e-15 9.71958e-06 2.42239e-06 -1.9379e-13 3.78336e-14 -2.55713e-13 3.37822e-06)
(-7.59486e-06 -3.47609e-06 4.83066e-16 9.20411e-06 1.78763e-06 -1.07647e-12 1.93036e-14 3.13055e-15 3.25891e-06)
(-5.84996e-06 -3.52827e-06 2.03461e-15 7.57163e-06 1.1316e-06 -1.62252e-13 2.07159e-13 2.27036e-13 3.16432e-06)
(-4.05868e-06 -3.82243e-06 -6.23892e-16 5.77968e-06 4.53267e-07 3.35911e-13 2.50196e-13 -2.45495e-15 2.98693e-06)
(-1.5598e-05 -3.86349e-07 -8.3606e-18 8.68761e-07 3.08176e-06 1.11837e-13 2.69056e-14 2.5182e-13 3.07496e-06)
(-1.56155e-05 -5.50306e-07 3.35831e-16 1.4472e-06 3.62011e-06 -8.20139e-14 6.99381e-14 5.35242e-15 3.58753e-06)
(-1.55156e-05 -8.79592e-07 -7.51418e-16 2.92517e-06 3.6319e-06 9.32755e-14 -1.20732e-14 1.24391e-13 3.61506e-06)
(-1.54353e-05 -1.17439e-06 -3.44069e-16 3.50859e-06 3.73554e-06 6.2831e-13 -3.5539e-14 -5.55074e-14 3.61679e-06)
(-1.52015e-05 -1.45068e-06 1.49755e-15 4.91197e-06 3.72736e-06 -2.3551e-13 1.87378e-13 -2.547e-13 3.67496e-06)
(-1.50025e-05 -1.64489e-06 1.72382e-16 5.54429e-06 3.84927e-06 -1.21555e-12 8.62544e-14 4.96947e-14 3.66526e-06)
(-1.45832e-05 -1.83157e-06 -1.03987e-15 6.65339e-06 3.79137e-06 -1.75731e-13 -1.88997e-13 3.18437e-13 3.73804e-06)
(-1.4164e-05 -1.90126e-06 -7.57417e-16 7.32487e-06 3.83275e-06 1.28519e-12 3.46054e-13 4.63933e-14 3.70922e-06)
(-1.3499e-05 -1.98212e-06 4.01562e-16 7.99319e-06 3.69024e-06 2.25236e-13 6.00971e-13 -3.27494e-13 3.77059e-06)
(-1.27554e-05 -1.94698e-06 3.77017e-16 8.53658e-06 3.54705e-06 -1.23155e-12 6.64439e-14 1.47048e-14 3.71521e-06)
(-1.17843e-05 -1.94264e-06 7.5911e-16 8.63365e-06 3.27168e-06 2.73125e-13 -3.61681e-13 3.59613e-13 3.73691e-06)
(-1.06667e-05 -1.88117e-06 -1.19956e-15 8.75659e-06 2.88608e-06 1.24532e-12 -2.68357e-13 5.07601e-15 3.64571e-06)
(-9.38632e-06 -1.87245e-06 -1.90901e-15 8.0986e-06 2.4519e-06 -2.06901e-13 5.26347e-14 -2.47707e-13 3.60678e-06)
(-7.97247e-06 -1.91963e-06 5.16751e-16 7.46583e-06 1.87452e-06 -1.14726e-12 1.66951e-14 3.20641e-15 3.47311e-06)
(-6.53575e-06 -2.03265e-06 2.16901e-15 5.80058e-06 1.35817e-06 -1.72819e-13 1.67035e-13 2.01082e-13 3.37038e-06)
(-5.10113e-06 -2.33175e-06 -6.70734e-16 4.14233e-06 8.022e-07 3.59022e-13 2.19811e-13 -6.92363e-16 3.20111e-06)
(-1.56323e-05 -2.37016e-07 -9.83745e-18 8.50218e-07 3.58893e-06 1.3045e-13 2.72064e-14 2.93533e-13 3.58623e-06)
(-1.53425e-05 -2.61911e-07 3.62495e-16 1.37358e-06 3.89453e-06 -8.8437e-14 6.48189e-14 4.77018e-15 3.86882e-06)
(-1.52295e-05 -4.15844e-07 -8.09524e-16 2.81605e-06 3.88208e-06 1.00405e-13 -1.80081e-14 1.35151e-13 3.89046e-06)
(-1.51374e-05 -5.40654e-07 -3.69579e-16 3.32161e-06 3.96292e-06 6.73754e-13 -2.95374e-14 -5.83765e-14 3.87817e-06)
(-1.48828e-05 -6.60776e-07 1.60108e-15 4.65995e-06 3.90957e-06 -2.51592e-13 2.0975e-13 -2.77137e-13 3.92563e-06)
(-1.46739e-05 -7.11316e-07 1.83716e-16 5.19123e-06 3.99706e-06 -1.29126e-12 8.26272e-14 5.1628e-14 3.89341e-06)
(-1.42433e-05 -7.80686e-07 -1.10036e-15 6.18189e-06 3.88644e-06 -1.85762e-13 -2.2075e-13 3.40861e-13 3.95175e-06)
(-1.38312e-05 -7.48721e-07 -7.96858e-16 6.72769e-06 3.88856e-06 1.34998e-12 3.48358e-13 4.5483e-14 3.89602e-06)
(-1.31913e-05 -7.65922e-07 4.1932e-16 7.22601e-06 3.70733e-06 2.35428e-13 6.13331e-13 -3.51988e-13 3.94096e-06)
(-1.24986e-05 -6.83698e-07 3.92539e-16 7.62042e-06 3.53619e-06 -1.27963e-12 6.32251e-14 1.42844e-14 3.86013e-06)
(-1.16215e-05 -6.75183e-07 7.85107e-16 7.52989e-06 3.26282e-06 2.82649e-13 -3.72601e-13 3.70161e-13 3.86691e-06)
(-1.06341e-05 -6.19416e-07 -1.23858e-15 7.50999e-06 2.88657e-06 1.28397e-12 -2.66437e-13 9.60915e-15 3.75868e-06)
(-9.5417e-06 -6.50793e-07 -1.96632e-15 6.71656e-06 2.51748e-06 -2.12918e-13 6.96109e-14 -2.41447e-13 3.71169e-06)
(-8.35801e-06 -7.28001e-07 5.33319e-16 6.02514e-06 2.00444e-06 -1.18121e-12 1.45547e-14 3.282e-15 3.57575e-06)
(-7.19318e-06 -8.83892e-07 2.2393e-15 4.37594e-06 1.61361e-06 -1.78265e-13 1.30076e-13 1.82482e-13 3.47654e-06)
(-6.05431e-06 -1.18343e-06 -6.97798e-16 2.85918e-06 1.15438e-06 3.71616e-13 1.93658e-13 1.27575e-15 3.32231e-06)
(-1.53638e-05 -1.13276e-07 -1.06544e-17 8.25389e-07 3.86909e-06 1.40796e-13 2.76241e-14 3.16654e-13 3.87017e-06)
(-1.48382e-05 -2.69265e-08 3.71728e-16 1.29596e-06 3.98562e-06 -9.05948e-14 5.83561e-14 4.44211e-15 3.96352e-06)
(-1.47236e-05 -3.91175e-08 -8.29309e-16 2.70306e-06 3.95615e-06 1.02786e-13 -2.35043e-14 1.39454e-13 3.98191e-06)
(-1.46357e-05 -2.75614e-08 -3.7758e-16 3.12994e-06 4.02608e-06 6.87884e-13 -2.34177e-14 -5.93398e-14 3.95929e-06)
(-1.43808e-05 -2.54105e-08 1.63344e-15 4.40782e-06 3.94166e-06 -2.56478e-13 2.34248e-13 -2.88926e-13 4.00171e-06)
(-1.41889e-05 3.58582e-08 1.86568e-16 4.84588e-06 4.01535e-06 -1.31109e-12 7.93166e-14 5.16737e-14 3.95308e-06)
(-1.37757e-05 5.26055e-08 -1.11641e-15 5.72951e-06 3.87327e-06 -1.88293e-13 -2.54298e-13 3.54617e-13 4.00577e-06)
(-1.34042e-05 1.59298e-07 -8.04587e-16 6.17047e-06 3.86336e-06 1.36238e-12 3.5034e-13 4.02782e-14 3.9316e-06)
(-1.28216e-05 1.82228e-07 4.22358e-16 6.52224e-06 3.67017e-06 2.37269e-13 6.29089e-13 -3.71824e-13 3.97146e-06)
(-1.22113e-05 2.94565e-07 3.94323e-16 6.80276e-06 3.49974e-06 -1.2848e-12 6.03122e-14 1.33758e-14 3.87561e-06)
(-1.14527e-05 2.9751e-07 7.87804e-16 6.56319e-06 3.25334e-06 2.83636e-13 -3.85188e-13 3.79553e-13 3.88013e-06)
(-1.06103e-05 3.44592e-07 -1.24183e-15 6.44432e-06 2.90638e-06 1.28647e-12 -2.62756e-13 1.60888e-14 3.76584e-06)
(-9.70569e-06 2.78938e-07 -1.97395e-15 5.56018e-06 2.61271e-06 -2.13545e-13 8.5846e-14 -2.37832e-13 3.72268e-06)
(-8.73347e-06 1.80088e-07 5.36471e-16 4.84478e-06 2.16336e-06 -1.18711e-12 1.27929e-14 3.35675e-15 3.5935e-06)
(-7.80305e-06 -4.94311e-09 2.26051e-15 3.23578e-06 1.88248e-06 -1.79795e-13 9.80552e-14 1.70206e-13 3.50632e-06)
(-6.90433e-06 -2.9861e-07 -7.09311e-16 1.85378e-06 1.49571e-06 3.76049e-13 1.71373e-13 3.46096e-15 3.37163e-06)
(-1.48603e-05 -1.24096e-08 -1.09221e-17 7.98384e-07 3.96289e-06 1.44344e-13 2.4632e-14 3.24498e-13 3.96717e-06)
(-1.41501e-05 1.61915e-07 3.66848e-16 1.22197e-06 3.92942e-06 -8.93101e-14 5.32062e-14 4.39592e-15 3.90759e-06)
(-1.40442e-05 2.62905e-07 -8.18213e-16 2.60071e-06 3.88947e-06 1.01346e-13 -2.89604e-14 1.38589e-13 3.92541e-06)
(-1.39747e-05 3.82731e-07 -3.7155e-16 2.95209e-06 3.95988e-06 6.76873e-13 -1.67478e-14 -5.88784e-14 3.89568e-06)
(-1.37378e-05 4.79725e-07 1.60895e-15 4.17978e-06 3.85704e-06 -2.52439e-13 2.60783e-13 -2.92533e-13 3.9386e-06)
(-1.35855e-05 6.27921e-07 1.82688e-16 4.53638e-06 3.93534e-06 -1.28654e-12 7.60595e-14 5.02594e-14 3.87891e-06)
(-1.3214e-05 7.07389e-07 -1.09734e-15 5.32733e-06 3.78026e-06 -1.84917e-13 -2.8918e-13 3.62131e-13 3.93404e-06)
(-1.29097e-05 8.7005e-07 -7.87235e-16 5.68627e-06 3.78078e-06 1.33372e-12 3.52938e-13 3.16152e-14 3.84872e-06)
(-1.24103e-05 9.17502e-07 4.14076e-16 5.91323e-06 3.59739e-06 2.32623e-13 6.47188e-13 -3.8875e-13 3.89335e-06)
(-1.19053e-05 1.0505e-06 3.85308e-16 6.11164e-06 3.44912e-06 -1.25684e-12 5.75978e-14 1.21135e-14 3.79113e-06)
(-1.12831e-05 1.04339e-06 7.72731e-16 5.75288e-06 3.24812e-06 2.78072e-13 -3.97205e-13 3.88727e-13 3.80378e-06)
(-1.0594e-05 1.08266e-06 -1.21733e-15 5.56764e-06 2.94338e-06 1.26136e-12 -2.57964e-13 2.38982e-14 3.69214e-06)
(-9.87527e-06 9.88574e-07 -1.94359e-15 4.62198e-06 2.73103e-06 -2.1006e-13 9.89752e-14 -2.36489e-13 3.66198e-06)
(-9.09828e-06 8.74508e-07 5.29048e-16 3.89988e-06 2.3428e-06 -1.17159e-12 1.1308e-14 3.43263e-15 3.54642e-06)
(-8.37334e-06 6.68662e-07 2.24403e-15 2.33873e-06 2.15925e-06 -1.78325e-13 7.21293e-14 1.62566e-13 3.47758e-06)
(-7.67367e-06 3.81531e-07 -7.08651e-16 1.07195e-06 1.82746e-06 3.74258e-13 1.53296e-13 5.73184e-15 3.36576e-06)
(-1.41699e-05 6.86824e-08 -1.07517e-17 7.73469e-07 3.90629e-06 1.42402e-13 2.50432e-14 3.20012e-13 3.91331e-06)
(-1.33188e-05 3.1228e-07 3.50648e-16 1.15911e-06 3.75562e-06 -8.52734e-14 4.86458e-14 4.58679e-15 3.73123e-06)
(-1.32303e-05 5.02818e-07 -7.82368e-16 2.52125e-06 3.71111e-06 9.68516e-14 -3.44377e-14 1.33547e-13 3.75072e-06)
(-1.31922e-05 7.08269e-07 -3.54296e-16 2.80466e-06 3.79229e-06 6.4584e-13 -1.11861e-14 -5.73268e-14 3.71685e-06)
(-1.29877e-05 8.78139e-07 1.53929e-15 3.99597e-06 3.68163e-06 -2.41326e-13 2.88151e-13 -2.89766e-13 3.76518e-06)
(-1.28952e-05 1.09442e-06 1.7345e-16 4.28585e-06 3.78092e-06 -1.2269e-12 7.41091e-14 4.77187e-14 3.69897e-06)
(-1.25844e-05 1.21898e-06 -1.05065e-15 4.99983e-06 3.62765e-06 -1.76912e-13 -3.22759e-13 3.65381e-13 3.76373e-06)
(-1.23695e-05 1.42475e-06 -7.50149e-16 5.29941e-06 3.65755e-06 1.27295e-12 3.56867e-13 1.9995e-14 3.67317e-06)
(-1.19725e-05 1.48619e-06 3.97089e-16 5.42112e-06 3.50073e-06 2.22951e-13 6.65615e-13 -4.04842e-13 3.73112e-06)
(-1.159e-05 1.63457e-06 3.67792e-16 5.564e-06 3.39116e-06 -1.20324e-12 5.56568e-14 1.05535e-14 3.62932e-06)
(-1.11163e-05 1.61556e-06 7.44135e-16 5.10871e-06 3.24914e-06 2.67485e-13 -4.05832e-13 3.99332e-13 3.65874e-06)
(-1.05843e-05 1.64876e-06 -1.17117e-15 4.87907e-06 2.99491e-06 1.21503e-12 -2.52946e-13 3.29845e-14 3.55636e-06)
(-1.00478e-05 1.53111e-06 -1.88412e-15 3.88942e-06 2.86762e-06 -2.03434e-13 1.07494e-13 -2.37735e-13 3.54655e-06)
(-9.45085e-06 1.40612e-06 5.13224e-16 3.16515e-06 2.53651e-06 -1.13966e-12 1.01156e-14 3.5033e-15 3.44966e-06)
(-8.90792e-06 1.18473e-06 2.19855e-15 1.64831e-06 2.44049e-06 -1.74552e-13 5.28275e-14 1.58743e-13 3.40394e-06)
(-8.37474e-06 9.0328e-07 -6.98492e-16 4.69572e-07 2.14917e-06 3.67684e-13 1.39029e-13 8.04482e-15 3.31738e-06)
(-1.33333e-05 1.33267e-07 -1.0235e-17 7.54088e-07 3.7295e-06 1.36064e-13 2.19153e-14 3.05659e-13 3.73865e-06)
(-1.23724e-05 4.30926e-07 3.25441e-16 1.11287e-06 3.48912e-06 -7.90564e-14 4.37192e-14 5.02512e-15 3.45941e-06)
(-1.23086e-05 6.91814e-07 -7.26953e-16 2.47615e-06 3.44465e-06 8.9946e-14 -4.04166e-14 1.25282e-13 3.48278e-06)
(-1.23128e-05 9.64682e-07 -3.28193e-16 2.70115e-06 3.54588e-06 5.98978e-13 -6.18243e-15 -5.50009e-14 3.44694e-06)
(-1.21532e-05 1.19028e-06 1.43411e-15 3.87405e-06 3.43589e-06 -2.24664e-13 3.16956e-13 -2.8251e-13 3.50525e-06)
(-1.21365e-05 1.46038e-06 1.60015e-16 4.11392e-06 3.56999e-06 -1.1397e-12 7.29077e-14 4.42954e-14 3.43596e-06)
(-1.19028e-05 1.61712e-06 -9.82386e-16 4.76754e-06 3.43062e-06 -1.65305e-13 -3.55937e-13 3.66027e-13 3.5167e-06)
(-1.17938e-05 1.85736e-06 -6.97546e-16 5.03102e-06 3.50475e-06 1.18717e-12 3.62672e-13 5.85696e-15 3.42547e-06)
(-1.15157e-05 1.92591e-06 3.73468e-16 5.06387e-06 3.38808e-06 2.09398e-13 6.84558e-13 -4.21081e-13 3.50392e-06)
(-1.12677e-05 2.08726e-06 3.43543e-16 5.17513e-06 3.32917e-06 -1.12986e-12 5.43769e-14 8.75992e-15 3.40785e-06)
(-1.09525e-05 2.05588e-06 7.05243e-16 4.63869e-06 3.25678e-06 2.53039e-13 -4.09547e-13 4.11384e-13 3.46097e-06)
(-1.05797e-05 2.08527e-06 -1.10811e-15 4.37979e-06 3.05832e-06 1.15244e-12 -2.4787e-13 4.2995e-14 3.37301e-06)
(-1.0223e-05 1.94763e-06 -1.80226e-15 3.35403e-06 3.01887e-06 -1.94401e-13 1.09943e-13 -2.40894e-13 3.38917e-06)
(-9.79446e-06 1.81426e-06 4.90931e-16 2.6229e-06 2.74137e-06 -1.09518e-12 9.0967e-15 3.57273e-15 3.3149e-06)
(-9.41653e-06 1.57979e-06 2.13078e-15 1.13869e-06 2.72549e-06 -1.69018e-13 4.09541e-14 1.57612e-13 3.29595e-06)
(-9.02613e-06 1.30106e-06 -6.81157e-16 1.41637e-08 2.46435e-06 3.57449e-13 1.2859e-13 1.04074e-14 3.23655e-06)
(-1.2379e-05 1.84242e-07 -9.4493e-18 7.43886e-07 3.45742e-06 1.26243e-13 2.55368e-14 2.8349e-13 3.46836e-06)
(-1.1331e-05 5.23678e-07 2.93133e-16 1.0889e-06 3.14971e-06 -7.1128e-14 4.22197e-14 5.63757e-15 3.11264e-06)
(-1.12975e-05 8.39321e-07 -6.56078e-16 2.47404e-06 3.10909e-06 8.11426e-14 -4.68471e-14 1.14443e-13 3.1415e-06)
(-1.13538e-05 1.16527e-06 -2.95124e-16 2.65367e-06 3.23819e-06 5.39692e-13 -1.41929e-15 -5.20787e-14 3.10557e-06)
(-1.12482e-05 1.43294e-06 1.30104e-15 3.82766e-06 3.13513e-06 -2.03659e-13 3.46169e-13 -2.71883e-13 3.1776e-06)
(-1.13217e-05 1.74644e-06 1.4327e-16 4.03651e-06 3.31589e-06 -1.0309e-12 7.27467e-14 4.01816e-14 3.10783e-06)
(-1.11771e-05 1.92553e-06 -8.97266e-16 4.64626e-06 3.19918e-06 -1.50893e-13 -3.86074e-13 3.65272e-13 3.20994e-06)
(-1.11888e-05 2.19482e-06 -6.32703e-16 4.89644e-06 3.33e-06 1.08181e-12 3.70531e-13 -1.05828e-14 3.12135e-06)
(-1.10418e-05 2.26569e-06 3.44717e-16 4.85492e-06 3.26353e-06 1.92835e-13 7.00467e-13 -4.38921e-13 3.22639e-06)
(-1.09388e-05 2.43933e-06 3.14057e-16 4.95439e-06 3.26477e-06 -1.04103e-12 5.35541e-14 6.73584e-15 3.13983e-06)
(-1.07904e-05 2.39565e-06 6.58314e-16 4.34826e-06 3.27039e-06 2.35611e-13 -4.05637e-13 4.26049e-13 3.22247e-06)
(-1.05791e-05 2.42328e-06 -1.03211e-15 4.06826e-06 3.13136e-06 1.07721e-12 -2.4314e-13 5.41244e-14 3.15266e-06)
(-1.04019e-05 2.26809e-06 -1.70302e-15 3.00874e-06 3.18289e-06 -1.83516e-13 1.05029e-13 -2.46215e-13 3.19949e-06)
(-1.01339e-05 2.12733e-06 4.64022e-16 2.25884e-06 2.95587e-06 -1.041e-12 8.38498e-15 3.63534e-15 3.1508e-06)
(-9.91008e-06 1.88042e-06 2.0458e-15 7.90319e-07 3.01609e-06 -1.62134e-13 3.66588e-14 1.58694e-13 3.16164e-06)
(-9.64617e-06 1.60014e-06 -6.58582e-16 -3.18081e-07 2.77713e-06 3.44431e-13 1.22163e-13 1.28002e-14 3.13101e-06)
(-1.13275e-05 2.24096e-07 -8.45089e-18 7.45314e-07 3.11059e-06 1.13681e-13 2.55151e-14 2.55179e-13 3.12284e-06)
(-1.02069e-05 5.94613e-07 2.55274e-16 1.09034e-06 2.75398e-06 -6.18691e-14 4.07119e-14 6.43673e-15 2.70758e-06)