/*--------------------------------*- C++ -*----------------------------------*\
| =========                 |                                                 |
| \\      /  F ield         | foam-extend: Open Source CFD                    |
|  \\    /   O peration     | Version:     4.1-20200408                       |
|   \\  /    A nd           | Web:         http://www.foam-extend.org         |
|    \\/     M anipulation  |                                                 |
\*---------------------------------------------------------------------------*/
FoamFile
{
    version     2.0;
    format      ascii;
    class       volVectorField;
    location    "0.0575000";
    object      Velocity;
}
// * * * * * * * * * * * * * * * * * * * * * * * * * * * * * * * * * * * * * //

dimensions      [0 1 -1 0 0 0 0];

internalField   nonuniform List<vector> 
1952
(
(0.999994 -1.40112e-05 0)
(0.999994 -2.14848e-05 0)
(0.999994 -3.22579e-05 0)
(0.999995 -3.92058e-05 0)
(0.999996 -5.10597e-05 0)
(0.999996 -5.81516e-05 0)
(0.999998 -7.04045e-05 0)
(0.999999 -7.77874e-05 0)
(1 -8.98642e-05 0)
(1.00001 -9.69996e-05 0)
(1.00001 -0.000107555 0)
(1.00002 -0.000112909 0)
(1.00003 -0.000119603 0)
(1.00006 -0.000120012 0)
(1.00011 -0.000116899 0)
(0.999994 -5.83511e-06 0)
(0.999992 -8.19211e-06 0)
(0.999992 -1.28494e-05 0)
(0.999993 -1.84289e-05 0)
(0.999993 -2.27264e-05 0)
(0.999996 -2.83538e-05 0)
(0.999996 -3.22199e-05 0)
(1 -3.74873e-05 0)
(1 -4.07216e-05 0)
(1.00001 -4.51929e-05 0)
(1.00001 -4.7123e-05 0)
(1.00002 -5.00382e-05 0)
(1.00003 -5.01079e-05 0)
(1.00004 -5.09173e-05 0)
(1.00006 -4.84607e-05 0)
(1.00008 -4.81219e-05 0)
(0.999992 -3.4577e-06 0)
(0.999993 -6.14173e-06 0)
(0.999993 -9.86905e-06 0)
(0.999994 -1.36156e-05 0)
(0.999995 -1.70476e-05 0)
(0.999997 -2.0522e-05 0)
(0.999998 -2.33393e-05 0)
(1 -2.62475e-05 0)
(1 -2.81378e-05 0)
(1.00001 -3.0035e-05 0)
(1.00002 -3.04265e-05 0)
(1.00002 -3.09959e-05 0)
(1.00003 -2.98056e-05 0)
(1.00005 -2.91446e-05 0)
(1.00006 -2.67065e-05 0)
(1.00008 -2.60325e-05 0)
(0.999993 -2.62705e-06 0)
(0.999996 -4.18539e-06 0)
(0.999996 -6.72997e-06 0)
(0.999998 -9.12439e-06 0)
(0.999998 -1.13573e-05 0)
(1 -1.33277e-05 0)
(1 -1.48939e-05 0)
(1.00001 -1.62009e-05 0)
(1.00001 -1.67736e-05 0)
(1.00002 -1.71223e-05 0)
(1.00002 -1.63886e-05 0)
(1.00003 -1.57031e-05 0)
(1.00004 -1.37877e-05 0)
(1.00005 -1.25358e-05 0)
(1.00006 -1.02956e-05 0)
(1.00008 -1.0283e-05 0)
(0.999995 -1.79615e-06 0)
(1 -2.45904e-06 0)
(1 -3.92659e-06 0)
(1 -5.19091e-06 0)
(1 -6.33343e-06 0)
(1.00001 -7.1348e-06 0)
(1.00001 -7.62873e-06 0)
(1.00001 -7.78901e-06 0)
(1.00002 -7.38778e-06 0)
(1.00002 -6.76019e-06 0)
(1.00003 -5.3497e-06 0)
(1.00004 -4.06171e-06 0)
(1.00004 -1.98472e-06 0)
(1.00006 -6.59442e-07 0)
(1.00007 1.17139e-06 0)
(1.00008 1.22404e-06 0)
(1 -1.05944e-06 0)
(1.00001 -9.82065e-07 0)
(1.00001 -1.52909e-06 0)
(1.00001 -1.87351e-06 0)
(1.00001 -2.10349e-06 0)
(1.00001 -2.01363e-06 0)
(1.00001 -1.66076e-06 0)
(1.00002 -1.01956e-06 0)
(1.00002 7.98842e-08 0)
(1.00003 1.30435e-06 0)
(1.00003 3.11589e-06 0)
(1.00004 4.69347e-06 0)
(1.00005 6.79805e-06 0)
(1.00006 8.0964e-06 0)
(1.00007 9.64629e-06 0)
(1.00008 9.63628e-06 0)
(1.00001 -4.27218e-07 0)
(1.00001 2.21787e-07 0)
(1.00001 4.22057e-07 0)
(1.00002 8.08591e-07 0)
(1.00002 1.29912e-06 0)
(1.00002 2.05572e-06 0)
(1.00002 3.03837e-06 0)
(1.00003 4.22232e-06 0)
(1.00003 5.78115e-06 0)
(1.00004 7.34368e-06 0)
(1.00004 9.35333e-06 0)
(1.00005 1.10217e-05 0)
(1.00006 1.30485e-05 0)
(1.00006 1.42719e-05 0)
(1.00007 1.56325e-05 0)
(1.00008 1.57274e-05 0)
(1.00001 8.88611e-08 0)
(1.00002 1.15615e-06 0)
(1.00002 1.93132e-06 0)
(1.00002 2.87035e-06 0)
(1.00002 3.89808e-06 0)
(1.00003 5.12989e-06 0)
(1.00003 6.55556e-06 0)
(1.00004 8.08812e-06 0)
(1.00004 9.93727e-06 0)
(1.00005 1.16759e-05 0)
(1.00005 1.37761e-05 0)
(1.00006 1.54519e-05 0)
(1.00006 1.73998e-05 0)
(1.00007 1.85665e-05 0)
(1.00007 1.98292e-05 0)
(1.00008 2.00378e-05 0)
(1.00002 4.89858e-07 0)
(1.00003 1.83818e-06 0)
(1.00003 3.0296e-06 0)
(1.00003 4.36207e-06 0)
(1.00003 5.76622e-06 0)
(1.00004 7.31567e-06 0)
(1.00004 9.03276e-06 0)
(1.00004 1.07696e-05 0)
(1.00005 1.27856e-05 0)
(1.00005 1.45949e-05 0)
(1.00006 1.67208e-05 0)
(1.00006 1.8363e-05 0)
(1.00007 2.02438e-05 0)
(1.00007 2.13808e-05 0)
(1.00008 2.26167e-05 0)
(1.00008 2.29785e-05 0)
(1.00003 7.82837e-07 0)
(1.00004 2.29289e-06 0)
(1.00004 3.75923e-06 0)
(1.00004 5.3452e-06 0)
(1.00004 6.98934e-06 0)
(1.00005 8.72593e-06 0)
(1.00005 1.06167e-05 0)
(1.00005 1.24498e-05 0)
(1.00005 1.45508e-05 0)
(1.00006 1.63645e-05 0)
(1.00006 1.84884e-05 0)
(1.00007 2.00853e-05 0)
(1.00007 2.19282e-05 0)
(1.00008 2.30642e-05 0)
(1.00008 2.43257e-05 0)
(1.00008 2.48488e-05 0)
(1.00004 9.78405e-07 0)
(1.00005 2.54878e-06 0)
(1.00005 4.16773e-06 0)
(1.00005 5.88821e-06 0)
(1.00005 7.65875e-06 0)
(1.00005 9.47772e-06 0)
(1.00005 1.14504e-05 0)
(1.00006 1.33006e-05 0)
(1.00006 1.54299e-05 0)
(1.00007 1.72071e-05 0)
(1.00007 1.93169e-05 0)
(1.00008 2.08697e-05 0)
(1.00008 2.27022e-05 0)
(1.00008 2.38631e-05 0)
(1.00009 2.51889e-05 0)
(1.00009 2.58823e-05 0)
(1.00004 1.08869e-06 0)
(1.00005 2.63377e-06 0)
(1.00005 4.30127e-06 0)
(1.00006 6.05552e-06 0)
(1.00006 7.85974e-06 0)
(1.00006 9.67536e-06 0)
(1.00006 1.16609e-05 0)
(1.00007 1.34674e-05 0)
(1.00007 1.55888e-05 0)
(1.00008 1.73023e-05 0)
(1.00008 1.93981e-05 0)
(1.00008 2.0912e-05 0)
(1.00008 2.27613e-05 0)
(1.00009 2.39674e-05 0)
(1.00009 2.53861e-05 0)
(1.00009 2.62525e-05 0)
(1.00005 1.12564e-06 0)
(1.00006 2.57382e-06 0)
(1.00006 4.20229e-06 0)
(1.00006 5.90639e-06 0)
(1.00007 7.66861e-06 0)
(1.00007 9.41201e-06 0)
(1.00007 1.13572e-05 0)
(1.00008 1.30742e-05 0)
(1.00008 1.51633e-05 0)
(1.00008 1.67955e-05 0)
(1.00008 1.88819e-05 0)
(1.00009 2.03646e-05 0)
(1.00009 2.22539e-05 0)
(1.00009 2.3522e-05 0)
(1.00009 2.50557e-05 0)
(1.0001 2.60978e-05 0)
(1.00006 1.10038e-06 0)
(1.00007 2.39144e-06 0)
(1.00007 3.90734e-06 0)
(1.00007 5.49094e-06 0)
(1.00007 7.14931e-06 0)
(1.00008 8.76359e-06 0)
(1.00008 1.06273e-05 0)
(1.00008 1.22181e-05 0)
(1.00008 1.42585e-05 0)
(1.00009 1.57963e-05 0)
(1.00009 1.78797e-05 0)
(1.0001 1.9338e-05 0)
(1.0001 2.12871e-05 0)
(1.0001 2.26314e-05 0)
(1.0001 2.42976e-05 0)
(1.0001 2.55184e-05 0)
(1.00007 1.02253e-06 0)
(1.00008 2.10568e-06 0)
(1.00008 3.44735e-06 0)
(1.00008 4.85123e-06 0)
(1.00008 6.35551e-06 0)
(1.00008 7.79271e-06 0)
(1.00008 9.54392e-06 0)
(1.00009 1.09772e-05 0)
(1.00009 1.29595e-05 0)
(1.0001 1.43914e-05 0)
(1.0001 1.64806e-05 0)
(1.0001 1.79196e-05 0)
(1.0001 1.99469e-05 0)
(1.00011 2.13793e-05 0)
(1.00011 2.31941e-05 0)
(1.00011 2.45985e-05 0)
(1.00007 9.00306e-07 0)
(1.00008 1.73258e-06 0)
(1.00008 2.84789e-06 0)
(1.00008 4.02213e-06 0)
(1.00009 5.32999e-06 0)
(1.00009 6.54977e-06 0)
(1.00009 8.16226e-06 0)
(1.0001 9.41202e-06 0)
(1.0001 1.13276e-05 0)
(1.0001 1.26444e-05 0)
(1.0001 1.47458e-05 0)
(1.00011 1.61708e-05 0)
(1.00011 1.82911e-05 0)
(1.00011 1.98235e-05 0)
(1.00011 2.18016e-05 0)
(1.00011 2.33978e-05 0)
(1.00008 7.40564e-07 0)
(1.00009 1.28522e-06 0)
(1.00009 2.13017e-06 0)
(1.00009 3.03146e-06 0)
(1.00009 4.10864e-06 0)
(1.0001 5.0742e-06 0)
(1.0001 6.52908e-06 0)
(1.0001 7.56929e-06 0)
(1.0001 9.41511e-06 0)
(1.00011 1.06048e-05 0)
(1.00011 1.27277e-05 0)
(1.00011 1.41409e-05 0)
(1.00011 1.63702e-05 0)
(1.00012 1.80138e-05 0)
(1.00012 2.01713e-05 0)
(1.00012 2.19713e-05 0)
(1.00009 5.48939e-07 0)
(1.00009 7.75923e-07 0)
(1.00009 1.31352e-06 0)
(1.0001 1.9055e-06 0)
(1.0001 2.72275e-06 0)
(1.0001 3.40265e-06 0)
(1.0001 4.68276e-06 0)
(1.00011 5.49101e-06 0)
(1.00011 7.26232e-06 0)
(1.00012 8.31521e-06 0)
(1.00012 1.04653e-05 0)
(1.00012 1.187e-05 0)
(1.00012 1.42214e-05 0)
(1.00013 1.59895e-05 0)
(1.00012 1.8343e-05 0)
(1.00013 2.03638e-05 0)
(1.00009 3.30707e-07 0)
(1.00009 2.15628e-07 0)
(1.0001 4.15545e-07 0)
(1.0001 6.66907e-07 0)
(1.0001 1.2014e-06 0)
(1.00011 1.56596e-06 0)
(1.00011 2.65973e-06 0)
(1.00011 3.21204e-06 0)
(1.00011 4.90818e-06 0)
(1.00012 5.81105e-06 0)
(1.00012 7.99648e-06 0)
(1.00013 9.39341e-06 0)
(1.00013 1.18814e-05 0)
(1.00013 1.37879e-05 0)
(1.00013 1.63566e-05 0)
(1.00013 1.86199e-05 0)
(1.00009 9.05808e-08 0)
(1.0001 -3.82364e-07 0)
(1.0001 -5.42666e-07 0)
(1.0001 -6.56342e-07 0)
(1.0001 -4.2132e-07 0)
(1.00011 -3.9734e-07 0)
(1.00011 5.01911e-07 0)
(1.00012 7.76253e-07 0)
(1.00012 2.39722e-06 0)
(1.00013 3.13706e-06 0)
(1.00013 5.36507e-06 0)
(1.00013 6.75481e-06 0)
(1.00013 9.39382e-06 0)
(1.00014 1.14541e-05 0)
(1.00014 1.42593e-05 0)
(1.00014 1.67928e-05 0)
(1.0001 -1.65726e-07 0)
(1.0001 -1.00332e-06 0)
(1.0001 -1.5379e-06 0)
(1.0001 -2.03349e-06 0)
(1.0001 -2.10775e-06 0)
(1.00011 -2.44524e-06 0)
(1.00011 -1.74453e-06 0)
(1.00012 -1.76887e-06 0)
(1.00012 -2.22097e-07 0)
(1.00013 3.41333e-07 0)
(1.00013 2.61783e-06 0)
(1.00014 4.001e-06 0)
(1.00014 6.80383e-06 0)
(1.00015 9.03584e-06 0)
(1.00015 1.21003e-05 0)
(1.00015 1.49376e-05 0)
(1.0001 -4.31905e-07 0)
(1.0001 -1.62669e-06 0)
(1.0001 -2.53697e-06 0)
(1.0001 -3.42147e-06 0)
(1.00011 -3.80307e-06 0)
(1.00011 -4.51796e-06 0)
(1.00011 -4.01019e-06 0)
(1.00012 -4.35404e-06 0)
(1.00013 -2.87346e-06 0)
(1.00014 -2.50345e-06 0)
(1.00014 -1.67815e-07 0)
(1.00015 1.20533e-06 0)
(1.00015 4.18827e-06 0)
(1.00015 6.60927e-06 0)
(1.00015 9.95936e-06 0)
(1.00016 1.31396e-05 0)
(1.0001 -6.991e-07 0)
(1.0001 -2.22579e-06 0)
(1.0001 -3.49815e-06 0)
(1.0001 -4.76352e-06 0)
(1.00011 -5.43968e-06 0)
(1.00011 -6.53627e-06 0)
(1.00012 -6.21143e-06 0)
(1.00013 -6.8877e-06 0)
(1.00013 -5.46755e-06 0)
(1.00014 -5.30304e-06 0)
(1.00014 -2.90419e-06 0)
(1.00015 -1.54111e-06 0)
(1.00016 1.63169e-06 0)
(1.00016 4.26269e-06 0)
(1.00016 7.92309e-06 0)
(1.00017 1.1492e-05 0)
(1.0001 -9.55914e-07 0)
(1.00009 -2.76426e-06 0)
(1.0001 -4.36234e-06 0)
(1.0001 -5.983e-06 0)
(1.0001 -6.9189e-06 0)
(1.00011 -8.3927e-06 0)
(1.00012 -8.22151e-06 0)
(1.00013 -9.24358e-06 0)
(1.00013 -7.86293e-06 0)
(1.00014 -7.92331e-06 0)
(1.00015 -5.44679e-06 0)
(1.00016 -4.10284e-06 0)
(1.00016 -7.2447e-07 0)
(1.00017 2.13291e-06 0)
(1.00017 6.13204e-06 0)
(1.00018 1.01394e-05 0)
(1.00009 -1.18666e-06 0)
(1.00009 -3.19248e-06 0)
(1.00009 -5.05161e-06 0)
(1.0001 -6.9734e-06 0)
(1.0001 -8.11338e-06 0)
(1.00011 -9.93653e-06 0)
(1.00012 -9.88028e-06 0)
(1.00013 -1.12448e-05 0)
(1.00013 -9.88479e-06 0)
(1.00015 -1.01796e-05 0)
(1.00015 -7.62086e-06 0)
(1.00017 -6.30056e-06 0)
(1.00017 -2.71222e-06 0)
(1.00018 3.90462e-07 0)
(1.00018 4.75108e-06 0)
(1.00019 9.25203e-06 0)
(1.00009 -1.37014e-06 0)
(1.00008 -3.44603e-06 0)
(1.00009 -5.46157e-06 0)
(1.00009 -7.59778e-06 0)
(1.0001 -8.84861e-06 0)
(1.00011 -1.0974e-05 0)
(1.00011 -1.09627e-05 0)
(1.00013 -1.26621e-05 0)
(1.00013 -1.12813e-05 0)
(1.00015 -1.18278e-05 0)
(1.00016 -9.1697e-06 0)
(1.00017 -7.89031e-06 0)
(1.00018 -4.08364e-06 0)
(1.00019 -7.25834e-07 0)
(1.0002 4.01906e-06 0)
(1.0002 9.07028e-06 0)
(1.00008 -1.47859e-06 0)
(1.00008 -3.43769e-06 0)
(1.00008 -5.45411e-06 0)
(1.00009 -7.66824e-06 0)
(1.00009 -8.89669e-06 0)
(1.00011 -1.12374e-05 0)
(1.00011 -1.11781e-05 0)
(1.00013 -1.31782e-05 0)
(1.00014 -1.17301e-05 0)
(1.00015 -1.25336e-05 0)
(1.00016 -9.7671e-06 0)
(1.00018 -8.54527e-06 0)
(1.00019 -4.526e-06 0)
(1.0002 -9.06943e-07 0)
(1.00021 4.23441e-06 0)
(1.00022 9.89342e-06 0)
(1.00008 -1.47468e-06 0)
(1.00007 -3.05763e-06 0)
(1.00007 -4.85221e-06 0)
(1.00008 -6.94926e-06 0)
(1.00009 -7.96186e-06 0)
(1.0001 -1.03907e-05 0)
(1.00011 -1.01445e-05 0)
(1.00012 -1.2393e-05 0)
(1.00013 -1.08028e-05 0)
(1.00015 -1.18708e-05 0)
(1.00017 -8.97736e-06 0)
(1.00019 -7.84414e-06 0)
(1.0002 -3.62258e-06 0)
(1.00021 2.49193e-07 0)
(1.00022 5.79003e-06 0)
(1.00023 1.2111e-05 0)
(1.00007 -1.31116e-06 0)
(1.00006 -2.16166e-06 0)
(1.00006 -3.42586e-06 0)
(1.00007 -5.12939e-06 0)
(1.00008 -5.66126e-06 0)
(1.00009 -7.98754e-06 0)
(1.0001 -7.36769e-06 0)
(1.00012 -9.77424e-06 0)
(1.00013 -7.94532e-06 0)
(1.00016 -9.27409e-06 0)
(1.00017 -6.23585e-06 0)
(1.00019 -5.23186e-06 0)
(1.00021 -8.34142e-07 0)
(1.00023 3.26518e-06 0)
(1.00024 9.19032e-06 0)
(1.00025 1.62191e-05 0)
(1.00006 -9.26214e-07 0)
(1.00005 -5.71517e-07 0)
(1.00005 -8.8869e-07 0)
(1.00006 -1.82316e-06 0)
(1.00007 -1.51556e-06 0)
(1.00009 -3.47342e-06 0)
(1.0001 -2.22564e-06 0)
(1.00012 -4.65639e-06 0)
(1.00013 -2.45636e-06 0)
(1.00016 -4.03274e-06 0)
(1.00017 -8.27567e-07 0)
(1.0002 -9.18138e-09 0)
(1.00022 4.51955e-06 0)
(1.00024 8.79706e-06 0)
(1.00025 1.50661e-05 0)
(1.00027 2.28355e-05 0)
(1.00005 -2.43245e-07 0)
(1.00004 1.93843e-06 0)
(1.00005 3.12117e-06 0)
(1.00006 3.45888e-06 0)
(1.00006 5.08247e-06 0)
(1.00008 3.85802e-06 0)
(1.00009 6.0735e-06 0)
(1.00011 3.81018e-06 0)
(1.00013 6.56118e-06 0)
(1.00016 4.76224e-06 0)
(1.00018 8.16622e-06 0)
(1.0002 8.71824e-06 0)
(1.00023 1.33124e-05 0)
(1.00025 1.76816e-05 0)
(1.00027 2.42218e-05 0)
(1.00029 3.27409e-05 0)
(1.00004 8.34596e-07 0)
(1.00003 5.6421e-06 0)
(1.00004 9.04364e-06 0)
(1.00005 1.13142e-05 0)
(1.00005 1.4874e-05 0)
(1.00007 1.48757e-05 0)
(1.00008 1.8502e-05 0)
(1.00011 1.66797e-05 0)
(1.00013 2.02158e-05 0)
(1.00016 1.82464e-05 0)
(1.00018 2.18852e-05 0)
(1.00021 2.20693e-05 0)
(1.00024 2.66278e-05 0)
(1.00027 3.0959e-05 0)
(1.00029 3.76486e-05 0)
(1.00032 4.68949e-05 0)
(1.00003 2.4249e-06 0)
(1.00003 1.08741e-05 0)
(1.00003 1.74174e-05 0)
(1.00004 2.24741e-05 0)
(1.00005 2.87715e-05 0)
(1.00007 3.06471e-05 0)
(1.00008 3.62656e-05 0)
(1.0001 3.52536e-05 0)
(1.00012 3.98914e-05 0)
(1.00015 3.78276e-05 0)
(1.00018 4.17588e-05 0)
(1.00022 4.14349e-05 0)
(1.00025 4.58233e-05 0)
(1.00029 4.99209e-05 0)
(1.00032 5.65786e-05 0)
(1.00035 6.64816e-05 0)
(1.00003 4.67134e-06 0)
(1.00003 1.80282e-05 0)
(1.00003 2.88771e-05 0)
(1.00004 3.78071e-05 0)
(1.00004 4.78579e-05 0)
(1.00006 5.24556e-05 0)
(1.00007 6.08115e-05 0)
(1.0001 6.11179e-05 0)
(1.00012 6.72722e-05 0)
(1.00015 6.52434e-05 0)
(1.00018 6.95472e-05 0)
(1.00022 6.85433e-05 0)
(1.00026 7.25802e-05 0)
(1.0003 7.61696e-05 0)
(1.00034 8.25319e-05 0)
(1.00038 9.29567e-05 0)
(1.00003 7.74297e-06 0)
(1.00003 2.75685e-05 0)
(1.00003 4.41727e-05 0)
(1.00005 5.83406e-05 0)
(1.00005 7.34226e-05 0)
(1.00006 8.18302e-05 0)
(1.00007 9.38797e-05 0)
(1.0001 9.61806e-05 0)
(1.00012 0.000104402 0)
(1.00015 0.000102603 0)
(1.00019 0.000107401 0)
(1.00023 0.000105503 0)
(1.00027 0.000108954 0)
(1.00032 0.000111656 0)
(1.00037 0.000117353 0)
(1.00041 0.000128076 0)
(1.00003 1.1839e-05 0)
(1.00005 4.00148e-05 0)
(1.00005 6.41468e-05 0)
(1.00006 8.52392e-05 0)
(1.00005 0.000106935 0)
(1.00007 0.000120537 0)
(1.00008 0.000137496 0)
(1.0001 0.000142696 0)
(1.00012 0.000153721 0)
(1.00015 0.000152455 0)
(1.00019 0.000157949 0)
(1.00023 0.000154906 0)
(1.00028 0.000157493 0)
(1.00034 0.000158791 0)
(1.0004 0.000163323 0)
(1.00045 0.000174003 0)
(1.00005 1.71824e-05 0)
(1.00008 5.59482e-05 0)
(1.00007 8.97452e-05 0)
(1.00008 0.000119818 0)
(1.00007 0.000150065 0)
(1.00009 0.000170601 0)
(1.00009 0.000194002 0)
(1.00011 0.000203299 0)
(1.00012 0.000218101 0)
(1.00015 0.000217838 0)
(1.00019 0.000224338 0)
(1.00024 0.000219888 0)
(1.00029 0.000221279 0)
(1.00036 0.0002205 0)
(1.00043 0.000223195 0)
(1.0005 0.000233334 0)
(1.00008 2.40226e-05 0)
(1.00013 7.59667e-05 0)
(1.00012 0.000121948 0)
(1.00012 0.000163457 0)
(1.0001 0.000204588 0)
(1.00011 0.000234213 0)
(1.0001 0.000265983 0)
(1.00012 0.000280954 0)
(1.00013 0.000300853 0)
(1.00016 0.00030231 0)
(1.00019 0.000310343 0)
(1.00024 0.000304242 0)
(1.0003 0.000304113 0)
(1.00038 0.00030039 0)
(1.00046 0.000300386 0)
(1.00054 0.000309279 0)
(1.00013 3.26159e-05 0)
(1.0002 0.000100672 0)
(1.00018 0.000161748 0)
(1.00018 0.000217573 0)
(1.00016 0.000272355 0)
(1.00016 0.000313706 0)
(1.00014 0.000356233 0)
(1.00014 0.000378951 0)
(1.00014 0.000405705 0)
(1.00016 0.000409988 0)
(1.0002 0.00042039 0)
(1.00024 0.000412514 0)
(1.00031 0.000410587 0)
(1.00039 0.000402838 0)
(1.00049 0.000399036 0)
(1.00059 0.000405686 0)
(1.0002 4.32199e-05 0)
(1.0003 0.000130573 0)
(1.00027 0.000210001 0)
(1.00027 0.000283427 0)
(1.00023 0.000355061 0)
(1.00022 0.000411302 0)
(1.00019 0.000467525 0)
(1.00018 0.000500686 0)
(1.00017 0.000536669 0)
(1.00018 0.000545463 0)
(1.0002 0.000559596 0)
(1.00025 0.000550097 0)
(1.00031 0.000546286 0)
(1.0004 0.000533209 0)
(1.00051 0.000524222 0)
(1.00064 0.0005272 0)
(1.0003 5.60523e-05 0)
(1.00044 0.000166028 0)
(1.0004 0.00026733 0)
(1.00039 0.000361985 0)
(1.00034 0.000454082 0)
(1.00031 0.000528927 0)
(1.00026 0.000602402 0)
(1.00024 0.000649469 0)
(1.00021 0.000697874 0)
(1.0002 0.000713718 0)
(1.00021 0.000733799 0)
(1.00025 0.000723423 0)
(1.00032 0.000718162 0)
(1.00041 0.000698363 0)
(1.00054 0.000682604 0)
(1.00069 0.00067993 0)
(1.00044 7.12653e-05 0)
(1.00062 0.000207083 0)
(1.00058 0.000333865 0)
(1.00055 0.000453576 0)
(1.00049 0.000570039 0)
(1.00044 0.000667712 0)
(1.00037 0.000762623 0)
(1.00032 0.000827984 0)
(1.00027 0.000893021 0)
(1.00024 0.000919716 0)
(1.00023 0.000949248 0)
(1.00025 0.000939951 0)
(1.00031 0.000934789 0)
(1.00041 0.000907322 0)
(1.00056 0.000883542 0)
(1.00075 0.000872801 0)
(1.00063 8.88767e-05 0)
(1.00086 0.000253334 0)
(1.00081 0.000409017 0)
(1.00077 0.000557553 0)
(1.00068 0.000702377 0)
(1.00061 0.000827447 0)
(1.00052 0.000948556 0)
(1.00044 0.00103754 0)
(1.00035 0.00112466 0)
(1.00029 0.00116758 0)
(1.00026 0.0012119 0)
(1.00025 0.00120743 0)
(1.0003 0.00120576 0)
(1.0004 0.00117066 0)
(1.00057 0.0011386 0)
(1.00079 0.00111674 0)
(1.00087 0.00010871 0)
(1.00116 0.000303726 0)
(1.0011 0.000491139 0)
(1.00104 0.000671833 0)
(1.00093 0.000848717 0)
(1.00084 0.00100582 0)
(1.00071 0.0011582 0)
(1.0006 0.00127707 0)
(1.00048 0.00139296 0)
(1.00038 0.0014595 0)
(1.0003 0.00152628 0)
(1.00026 0.00153297 0)
(1.00029 0.00154035 0)
(1.00038 0.00149857 0)
(1.00056 0.00145741 0)
(1.00082 0.00141799 0)
(1.00117 0.000130311 0)
(1.00153 0.000356353 0)
(1.00146 0.000577196 0)
(1.00138 0.000792364 0)
(1.00125 0.00100419 0)
(1.00113 0.00119745 0)
(1.00097 0.00138606 0)
(1.00082 0.00154167 0)
(1.00065 0.00169438 0)
(1.0005 0.00179449 0)
(1.00038 0.00189518 0)
(1.00029 0.00192433 0)
(1.00028 0.00195208 0)
(1.00034 0.00190895 0)
(1.00053 0.00185792 0)
(1.00084 0.00178824 0)
(1.00155 0.000152857 0)
(1.00198 0.000408311 0)
(1.00189 0.000662483 0)
(1.0018 0.000912711 0)
(1.00165 0.00116068 0)
(1.0015 0.00139285 0)
(1.0013 0.00162154 0)
(1.0011 0.00182045 0)
(1.00088 0.00201851 0)
(1.00068 0.00216483 0)
(1.00049 0.00231617 0)
(1.00034 0.00238901 0)
(1.00027 0.00246483 0)
(1.00027 0.00244866 0)
(1.00045 0.00241429 0)
(1.00082 0.00232344 0)
(1.002 0.000175102 0)
(1.00251 0.000455604 0)
(1.0024 0.00074046 0)
(1.0023 0.0010237 0)
(1.00212 0.00130635 0)
(1.00194 0.00157744 0)
(1.00171 0.00184722 0)
(1.00147 0.00209338 0)
(1.0012 0.00234287 0)
(1.00094 0.00254693 0)
(1.00068 0.00276657 0)
(1.00045 0.00291079 0)
(1.0003 0.0030801 0)
(1.00023 0.00315593 0)
(1.00035 0.00323772 0)
(1.00074 0.0032401 0)
(1.00253 0.000195333 0)
(1.00311 0.000493353 0)
(1.003 0.000803067 0)
(1.00288 0.00111389 0)
(1.00268 0.00142604 0)
(1.00247 0.00173193 0)
(1.0022 0.00203898 0)
(1.00192 0.00233062 0)
(1.0016 0.00262993 0)
(1.00128 0.00289362 0)
(1.00097 0.0031848 0)
(1.00067 0.00340901 0)
(1.00045 0.00369045 0)
(1.0003 0.0038914 0)
(1.00034 0.00416655 0)
(1.00065 0.00439561 0)
(1.00314 0.000211462 0)
(1.00378 0.000516067 0)
(1.00365 0.000841222 0)
(1.00352 0.00117029 0)
(1.0033 0.00150254 0)
(1.00307 0.00183426 0)
(1.00277 0.00216906 0)
(1.00245 0.00249732 0)
(1.00208 0.00283512 0)
(1.00171 0.00314686 0)
(1.00133 0.00349029 0)
(1.00097 0.00376651 0)
(1.00067 0.00411122 0)
(1.00044 0.00434927 0)
(1.00038 0.00466732 0)
(1.00053 0.00489234 0)
(1.00381 0.000221141 0)
(1.0045 0.000518204 0)
(1.00437 0.000845786 0)
(1.00422 0.00117994 0)
(1.00399 0.00151883 0)
(1.00373 0.00186305 0)
(1.0034 0.00221153 0)
(1.00305 0.00256297 0)
(1.00263 0.00292361 0)
(1.00221 0.00326941 0)
(1.00175 0.00364568 0)
(1.0013 0.00395522 0)
(1.0009 0.00433753 0)
(1.00054 0.00457475 0)
(1.00034 0.00490131 0)
(1.00033 0.00508032 0)
(1.00453 0.000221999 0)
(1.00526 0.000494522 0)
(1.00512 0.000808115 0)
(1.00496 0.0011305 0)
(1.00471 0.00145876 0)
(1.00443 0.00179797 0)
(1.00408 0.00214192 0)
(1.00369 0.00249866 0)
(1.00323 0.00286242 0)
(1.00275 0.00322526 0)
(1.00221 0.00361264 0)
(1.00167 0.00394134 0)
(1.00114 0.0043412 0)
(1.00061 0.00455866 0)
(1.00026 0.00490144 0)
(1.00007 0.00501397 0)
(1.00529 0.000211795 0)
(1.00602 0.000440693 0)
(1.00587 0.00072103 0)
(1.00571 0.00101164 0)
(1.00544 0.00130859 0)
(1.00515 0.00162139 0)
(1.00477 0.00193861 0)
(1.00435 0.00227817 0)
(1.00385 0.00262137 0)
(1.00332 0.00298057 0)
(1.00269 0.00335542 0)
(1.00205 0.00369345 0)
(1.00136 0.00408982 0)
(1.00064 0.00429017 0)
(1.0001 0.00467171 0)
(0.999665 0.00469497 0)
(1.00605 0.000188678 0)
(1.00675 0.000353118 0)
(1.0066 0.000578455 0)
(1.00643 0.000814314 0)
(1.00616 0.00105582 0)
(1.00585 0.00131647 0)
(1.00545 0.00157951 0)
(1.005 0.00187237 0)
(1.00446 0.00216469 0)
(1.00388 0.00249241 0)
(1.00318 0.00282784 0)
(1.00243 0.00316576 0)
(1.00156 0.00353802 0)
(1.00066 0.00376342 0)
(0.999899 0.00417953 0)
(0.999059 0.00406156 0)
(1.00679 0.000151119 0)
(1.00743 0.00022805 0)
(1.00727 0.000374231 0)
(1.00709 0.000529802 0)
(1.00681 0.000689387 0)
(1.00649 0.000869956 0)
(1.00608 0.00104973 0)
(1.0056 0.00126508 0)
(1.00503 0.00147701 0)
(1.0044 0.00174274 0)
(1.00363 0.00201044 0)
(1.00279 0.00232782 0)
(1.00176 0.00265662 0)
(1.00067 0.00294424 0)
(0.999533 0.00325513 0)
(0.998102 0.0028808 0)
(1.00746 9.75328e-05 0)
(1.008 6.76798e-05 0)
(1.00783 0.000112666 0)
(1.00765 0.000165504 0)
(1.00736 0.000221652 0)
(1.00702 0.00030196 0)
(1.00659 0.000381816 0)
(1.0061 0.000509383 0)
(1.00552 0.000630732 0)
(1.00488 0.000801852 0)
(1.00409 0.000943875 0)
(1.00319 0.0011432 0)
(1.00201 0.00131164 0)
(1.00059 0.00146099 0)
(0.998794 0.00143439 0)
(0.996593 0.000777466 0)
(1.00804 2.87809e-05 0)
(1.00844 -0.000104289 0)
(1.00827 -0.000167723 0)
(1.00809 -0.000227315 0)
(1.00781 -0.000287515 0)
(1.00749 -0.000328765 0)
(1.00707 -0.0003818 0)
(1.00656 -0.000392232 0)
(1.00593 -0.000441488 0)
(1.0052 -0.000484303 0)
(1.00431 -0.000631487 0)
(1.00326 -0.000759181 0)
(1.00187 -0.00103362 0)
(1.00008 -0.0013276 0)
(0.997588 -0.00180837 0)
(0.994582 -0.00262622 0)
(1.00847 -4.49936e-05 0)
(1.00881 -0.000306634 0)
(1.00863 -0.00050455 0)
(1.00841 -0.000715509 0)
(1.00809 -0.000949249 0)
(1.0077 -0.0011979 0)
(1.00721 -0.00150099 0)
(1.00662 -0.00182926 0)
(1.00586 -0.00225446 0)
(1.00494 -0.00270573 0)
(1.00384 -0.00331061 0)
(1.00252 -0.00391944 0)
(1.00084 -0.00473424 0)
(0.998733 -0.00549476 0)
(0.995822 -0.00641455 0)
(0.992256 -0.00730628 0)
(1.00885 -0.000131536 0)
(1.0088 -0.000665234 0)
(1.00856 -0.00110407 0)
(1.00825 -0.00158156 0)
(1.00782 -0.00211618 0)
(1.00727 -0.00270611 0)
(1.00661 -0.00339061 0)
(1.00581 -0.00414909 0)
(1.00484 -0.00503335 0)
(1.00371 -0.00596287 0)
(1.00238 -0.00705411 0)
(1.0008 -0.00814372 0)
(0.998876 -0.00943402 0)
(0.996521 -0.0105949 0)
(0.993385 -0.0119224 0)
(0.989549 -0.0129395 0)
(1.00886 -0.000284386 0)
(1.00794 -0.00122952 0)
(1.00762 -0.00203347 0)
(1.0072 -0.00289376 0)
(1.00661 -0.00383045 0)
(1.00589 -0.00484151 0)
(1.00503 -0.00595896 0)
(1.00401 -0.00715838 0)
(1.00284 -0.00848269 0)
(1.00149 -0.00985251 0)
(0.999943 -0.0113665 0)
(0.998151 -0.0128496 0)
(0.996046 -0.0144964 0)
(0.993531 -0.015933 0)
(0.990359 -0.0174983 0)
(0.986559 -0.0185079 0)
(1.00804 -0.000525212 0)
(1.00599 -0.00194692 0)
(1.0056 -0.00319981 0)
(1.00505 -0.00450994 0)
(1.00433 -0.00588986 0)
(1.00344 -0.00733549 0)
(1.0024 -0.00886944 0)
(1.0012 -0.0104682 0)
(0.999848 -0.0121672 0)
(0.998321 -0.0138915 0)
(0.996629 -0.0157226 0)
(0.994704 -0.0174828 0)
(0.992536 -0.019351 0)
(0.990013 -0.0209273 0)
(0.987022 -0.0225656 0)
(0.983532 -0.0234688 0)
(1.00612 -0.000832149 0)
(1.00279 -0.0027095 0)
(1.00235 -0.00442857 0)
(1.00173 -0.00619137 0)
(1.00092 -0.00799707 0)
(0.999922 -0.00983967 0)
(0.998764 -0.0117324 0)
(0.997445 -0.0136563 0)
(0.995986 -0.0156385 0)
(0.994362 -0.0176142 0)
(0.992606 -0.0196499 0)
(0.99065 -0.0215758 0)
(0.988541 -0.023552 0)
(0.986161 -0.0251776 0)
(0.98352 -0.02681 0)
(0.980537 -0.0276171 0)
(1.00294 -0.00115925 0)
(0.998405 -0.00338633 0)
(0.997957 -0.00551371 0)
(0.99732 -0.00766673 0)
(0.996479 -0.00982942 0)
(0.995456 -0.0119947 0)
(0.994265 -0.0141667 0)
(0.992913 -0.016332 0)
(0.991429 -0.0185089 0)
(0.989796 -0.0206453 0)
(0.988066 -0.0227937 0)
(0.98618 -0.0248023 0)
(0.984236 -0.0268094 0)
(0.98212 -0.0284375 0)
(0.979947 -0.0300323 0)
(0.977599 -0.0307773 0)
(0.998569 -0.0014502 0)
(0.99308 -0.00386722 0)
(0.992657 -0.00628413 0)
(0.992049 -0.0087142 0)
(0.991245 -0.0111286 0)
(0.990261 -0.0135198 0)
(0.989114 -0.0158822 0)
(0.987808 -0.0182072 0)
(0.98638 -0.0205024 0)
(0.98482 -0.0227293 0)
(0.983196 -0.0249255 0)
(0.981468 -0.0269644 0)
(0.979772 -0.028959 0)
(0.978009 -0.0305748 0)
(0.976383 -0.0321278 0)
(0.97475 -0.0328521 0)
(0.993239 -0.00165723 0)
(0.987174 -0.00408984 0)
(0.986794 -0.00664308 0)
(0.986245 -0.0092082 0)
(0.985514 -0.0117482 0)
(0.984615 -0.014256 0)
(0.983562 -0.0167164 0)
(0.98236 -0.0191232 0)
(0.981049 -0.0214717 0)
(0.979625 -0.0237357 0)
(0.97817 -0.0259358 0)
(0.976662 -0.0279743 0)
(0.975272 -0.0299355 0)
(0.97392 -0.0315415 0)
(0.972885 -0.0330634 0)
(0.972007 -0.0338148 0)
(0.987319 -0.00175313 0)
(0.981088 -0.00405013 0)
(0.98075 -0.0065832 0)
(0.980262 -0.00913677 0)
(0.979612 -0.0116712 0)
(0.97881 -0.0141814 0)
(0.977871 -0.0166443 0)
(0.976802 -0.0190549 0)
(0.97564 -0.0213959 0)
(0.97439 -0.0236513 0)
(0.973141 -0.0258219 0)
(0.971893 -0.0278395 0)
(0.97084 -0.0297557 0)
(0.969933 -0.0313585 0)
(0.969503 -0.0328591 0)
(0.969384 -0.0336752 0)
(0.981215 -0.00173602 0)
(0.975178 -0.00379538 0)
(0.974869 -0.00617643 0)
(0.974426 -0.0085896 0)
(0.97384 -0.0109971 0)
(0.973122 -0.0133978 0)
(0.972288 -0.0157649 0)
(0.97135 -0.0180963 0)
(0.970342 -0.0203651 0)
(0.969278 -0.0225643 0)
(0.968248 -0.024673 0)
(0.967278 -0.0266503 0)
(0.966571 -0.0285121 0)
(0.966115 -0.0301159 0)
(0.966279 -0.0316017 0)
(0.966889 -0.0325135 0)
(0.975293 -0.00162641 0)
(0.969706 -0.0034046 0)
(0.96941 -0.00554526 0)
(0.968991 -0.00772431 0)
(0.968443 -0.00990826 0)
(0.967782 -0.0121007 0)
(0.967028 -0.0142761 0)
(0.966197 -0.0164391 0)
(0.965322 -0.0185607 0)
(0.96443 -0.0206446 0)
(0.963609 -0.0226507 0)
(0.962912 -0.0245619 0)
(0.962541 -0.0263558 0)
(0.962528 -0.0279577 0)
(0.96325 -0.0294265 0)
(0.964522 -0.0304491 0)
(0.969813 -0.00145854 0)
(0.964815 -0.00296234 0)
(0.964522 -0.00482361 0)
(0.964113 -0.00671899 0)
(0.963585 -0.00861976 0)
(0.96296 -0.0105334 0)
(0.962257 -0.012438 0)
(0.961501 -0.0143471 0)
(0.960722 -0.0162369 0)
(0.959966 -0.0181278 0)
(0.959323 -0.019971 0)
(0.958875 -0.0217747 0)
(0.958814 -0.0234782 0)
(0.959219 -0.0250677 0)
(0.960444 -0.0265151 0)
(0.96228 -0.0276574 0)
(0.964919 -0.00126892 0)
(0.960538 -0.00253543 0)
(0.960249 -0.0041205 0)
(0.95985 -0.00572514 0)
(0.95934 -0.00732501 0)
(0.958743 -0.00892921 0)
(0.95808 -0.0105196 0)
(0.957378 -0.0121153 0)
(0.956661 -0.0136983 0)
(0.955997 -0.0153067 0)
(0.955482 -0.0168997 0)
(0.955236 -0.0185226 0)
(0.955438 -0.0200881 0)
(0.956216 -0.0216382 0)
(0.957863 -0.0230614 0)
(0.960139 -0.0243402 0)
(0.96064 -0.00108626 0)
(0.956838 -0.00215936 0)
(0.956567 -0.00349729 0)
(0.956194 -0.00483474 0)
(0.955715 -0.00615045 0)
(0.955158 -0.00745338 0)
(0.954543 -0.00872976 0)
(0.953897 -0.0100024 0)
(0.953233 -0.0112529 0)
(0.95263 -0.0125144 0)
(0.952187 -0.0137537 0)
(0.952075 -0.0150754 0)
(0.952464 -0.0164013 0)
(0.953531 -0.0178467 0)
(0.955469 -0.0192373 0)
(0.958041 -0.02068 0)
(0.956933 -0.000925675 0)
(0.953656 -0.00183988 0)
(0.953424 -0.00296947 0)
(0.953099 -0.0040806 0)
(0.952674 -0.00515264 0)
(0.952174 -0.00619161 0)
(0.951614 -0.00718873 0)
(0.951023 -0.00817642 0)
(0.950415 -0.00913306 0)
(0.949881 -0.0100544 0)
(0.94951 -0.0108772 0)
(0.949492 -0.0117685 0)
(0.949975 -0.0127032 0)
(0.951173 -0.0139108 0)
(0.953197 -0.0152184 0)
(0.955881 -0.0168247 0)
(0.953737 -0.00078929 0)
(0.950845 -0.00156593 0)
(0.950658 -0.00252669 0)
(0.95039 -0.00346361 0)
(0.950028 -0.00435598 0)
(0.94959 -0.00519991 0)
(0.949083 -0.00598012 0)
(0.948552 -0.00673074 0)
(0.948056 -0.00741007 0)
(0.947807 -0.00805792 0)
(0.947721 -0.0085726 0)
(0.947864 -0.00909301 0)
(0.948292 -0.00958313 0)
(0.949272 -0.0103445 0)
(0.951069 -0.0113637 0)
(0.953616 -0.0130077 0)
(0.950911 -0.000671789 0)
(0.948337 -0.00129562 0)
(0.948229 -0.00210201 0)
(0.948078 -0.00289887 0)
(0.947878 -0.00367122 0)
(0.947645 -0.00440391 0)
(0.947388 -0.00506765 0)
(0.947155 -0.00566753 0)
(0.947009 -0.0061303 0)
(0.94702 -0.00658036 0)
(0.947111 -0.00698337 0)
(0.947335 -0.00737315 0)
(0.947699 -0.00760824 0)
(0.94835 -0.00793523 0)
(0.949396 -0.00835427 0)
(0.951465 -0.0096835 0)
(0.948376 -0.000555111 0)
(0.947039 -0.00104539 0)
(0.946986 -0.00169898 0)
(0.946918 -0.00235249 0)
(0.946838 -0.00299551 0)
(0.94676 -0.00361769 0)
(0.946697 -0.00419979 0)
(0.946669 -0.00473561 0)
(0.946679 -0.00518753 0)
(0.946706 -0.00558698 0)
(0.946823 -0.00590241 0)
(0.947112 -0.0062134 0)
(0.94752 -0.00637441 0)
(0.948091 -0.00664256 0)
(0.948666 -0.00662938 0)
(0.949875 -0.00730538 0)
(0.947058 -0.000448138 0)
(0.946483 -0.000913533 0)
(0.946432 -0.00147743 0)
(0.946365 -0.00203431 0)
(0.946288 -0.00256918 0)
(0.946214 -0.00307749 0)
(0.946156 -0.00354278 0)
(0.946143 -0.0039717 0)
(0.946188 -0.00434162 0)
(0.946314 -0.00467683 0)
(0.946509 -0.00492599 0)
(0.946841 -0.0051717 0)
(0.94725 -0.00532473 0)
(0.947845 -0.00554983 0)
(0.948451 -0.00561656 0)
(0.949142 -0.00588925 0)
(0.946502 -0.000391873 0)
(0.945804 -0.000776436 0)
(0.945783 -0.00125396 0)
(0.945757 -0.00172312 0)
(0.945737 -0.00217009 0)
(0.94573 -0.00259142 0)
(0.945748 -0.00297278 0)
(0.945807 -0.00332086 0)
(0.945911 -0.00361679 0)
(0.946076 -0.00388768 0)
(0.946304 -0.00409633 0)
(0.94665 -0.00430121 0)
(0.947058 -0.00444418 0)
(0.947602 -0.00462385 0)
(0.94816 -0.00475722 0)
(0.948837 -0.00494053 0)
(0.945812 -0.000333093 0)