/*--------------------------------*- C++ -*----------------------------------*\
| =========                 |                                                 |
| \\      /  F ield         | foam-extend: Open Source CFD                    |
|  \\    /   O peration     | Version:     4.1-20200408                       |
|   \\  /    A nd           | Web:         http://www.foam-extend.org         |
|    \\/     M anipulation  |                                                 |
\*---------------------------------------------------------------------------*/
FoamFile
{
    version     2.0;
    format      ascii;
    class       volScalarField;
    location    "0.0235000";
    object      ccx;
}
// * * * * * * * * * * * * * * * * * * * * * * * * * * * * * * * * * * * * * //

dimensions      [0 1 0 0 0 0 0];

internalField   nonuniform List<scalar> 
1952
(
0.00296139
0.00296135
0.0029613
0.00296122
0.00296113
0.00296103
0.0029609
0.00296077
0.00296062
0.00296046
0.00296031
0.00296016
0.00296003
0.00295992
0.00295985
0.00296141
0.00289765
0.00289758
0.00289747
0.00289732
0.00289714
0.00289693
0.00289668
0.0028964
0.00289611
0.0028958
0.00289548
0.00289519
0.00289492
0.0028947
0.00289456
0.00289769
0.0028474
0.00284733
0.00284721
0.00284707
0.00284689
0.00284667
0.00284642
0.00284614
0.00284584
0.00284553
0.00284522
0.00284492
0.00284465
0.00284443
0.00284429
0.00284744
0.00279714
0.00279707
0.00279695
0.00279681
0.00279663
0.00279641
0.00279616
0.00279588
0.00279558
0.00279526
0.00279495
0.00279465
0.00279438
0.00279416
0.00279402
0.00279718
0.00274689
0.00274681
0.0027467
0.00274655
0.00274636
0.00274614
0.00274589
0.00274561
0.00274531
0.00274499
0.00274468
0.00274438
0.00274411
0.00274389
0.00274375
0.00274692
0.00269663
0.00269655
0.00269644
0.00269629
0.0026961
0.00269588
0.00269563
0.00269535
0.00269505
0.00269473
0.00269441
0.00269411
0.00269384
0.00269362
0.00269348
0.00269667
0.00264637
0.00264629
0.00264618
0.00264603
0.00264584
0.00264562
0.00264536
0.00264508
0.00264478
0.00264446
0.00264414
0.00264383
0.00264356
0.00264335
0.00264321
0.00264641
0.00259611
0.00259603
0.00259592
0.00259576
0.00259558
0.00259535
0.0025951
0.00259481
0.00259451
0.00259419
0.00259386
0.00259356
0.00259329
0.00259308
0.00259294
0.00259615
0.00254585
0.00254577
0.00254566
0.0025455
0.00254531
0.00254509
0.00254483
0.00254454
0.00254424
0.00254392
0.00254359
0.00254329
0.00254302
0.0025428
0.00254266
0.00254589
0.00249559
0.00249551
0.0024954
0.00249524
0.00249505
0.00249482
0.00249456
0.00249428
0.00249397
0.00249365
0.00249332
0.00249301
0.00249274
0.00249253
0.00249239
0.00249563
0.00244533
0.00244526
0.00244514
0.00244498
0.00244479
0.00244456
0.0024443
0.00244401
0.0024437
0.00244337
0.00244305
0.00244274
0.00244247
0.00244225
0.00244211
0.00244537
0.00239507
0.002395
0.00239488
0.00239472
0.00239452
0.00239429
0.00239403
0.00239374
0.00239343
0.0023931
0.00239277
0.00239246
0.00239219
0.00239198
0.00239184
0.00239511
0.00234481
0.00234474
0.00234462
0.00234446
0.00234426
0.00234403
0.00234377
0.00234347
0.00234316
0.00234283
0.0023425
0.00234219
0.00234191
0.0023417
0.00234156
0.00234485
0.00229455
0.00229448
0.00229436
0.0022942
0.002294
0.00229377
0.0022935
0.00229321
0.00229289
0.00229256
0.00229223
0.00229191
0.00229163
0.00229142
0.00229128
0.00229459
0.0022443
0.00224422
0.0022441
0.00224394
0.00224374
0.0022435
0.00224323
0.00224294
0.00224262
0.00224229
0.00224195
0.00224164
0.00224136
0.00224115
0.002241
0.00224434
0.00219404
0.00219396
0.00219384
0.00219368
0.00219348
0.00219324
0.00219297
0.00219267
0.00219235
0.00219201
0.00219168
0.00219136
0.00219108
0.00219087
0.00219072
0.00219408
0.00214378
0.0021437
0.00214358
0.00214342
0.00214322
0.00214298
0.0021427
0.0021424
0.00214208
0.00214174
0.00214141
0.00214109
0.00214081
0.00214059
0.00214045
0.00214382
0.00209352
0.00209344
0.00209332
0.00209315
0.00209295
0.00209271
0.00209244
0.00209214
0.00209181
0.00209147
0.00209113
0.00209081
0.00209053
0.00209031
0.00209017
0.00209357
0.00204327
0.00204318
0.00204306
0.00204289
0.00204269
0.00204245
0.00204218
0.00204187
0.00204154
0.0020412
0.00204086
0.00204053
0.00204025
0.00204003
0.00203989
0.00204331
0.00199301
0.00199292
0.0019928
0.00199263
0.00199243
0.00199219
0.00199191
0.0019916
0.00199127
0.00199093
0.00199058
0.00199026
0.00198997
0.00198975
0.00198961
0.00199305
0.00194275
0.00194267
0.00194254
0.00194237
0.00194217
0.00194192
0.00194164
0.00194133
0.001941
0.00194066
0.00194031
0.00193998
0.0019397
0.00193947
0.00193933
0.0019428
0.0018925
0.00189241
0.00189228
0.00189212
0.00189191
0.00189166
0.00189138
0.00189107
0.00189073
0.00189039
0.00189004
0.00188971
0.00188942
0.00188919
0.00188904
0.00189254
0.00184224
0.00184216
0.00184203
0.00184186
0.00184165
0.0018414
0.00184112
0.0018408
0.00184046
0.00184011
0.00183976
0.00183943
0.00183914
0.00183891
0.00183876
0.00184229
0.00179199
0.0017919
0.00179177
0.0017916
0.00179139
0.00179114
0.00179085
0.00179054
0.00179019
0.00178984
0.00178948
0.00178915
0.00178886
0.00178863
0.00178848
0.00179203
0.00174173
0.00174165
0.00174151
0.00174134
0.00174113
0.00174088
0.00174059
0.00174027
0.00173992
0.00173956
0.00173921
0.00173887
0.00173858
0.00173835
0.0017382
0.00174178
0.00169148
0.00169139
0.00169126
0.00169108
0.00169087
0.00169061
0.00169032
0.00169
0.00168965
0.00168929
0.00168893
0.00168859
0.00168829
0.00168806
0.00168791
0.00169153
0.00164122
0.00164114
0.001641
0.00164083
0.00164061
0.00164035
0.00164006
0.00163973
0.00163938
0.00163902
0.00163866
0.00163831
0.00163801
0.00163778
0.00163763
0.00164127
0.00159097
0.00159088
0.00159075
0.00159057
0.00159035
0.00159009
0.00158979
0.00158946
0.00158911
0.00158874
0.00158838
0.00158803
0.00158773
0.0015875
0.00158735
0.00159102
0.00154072
0.00154063
0.00154049
0.00154031
0.00154009
0.00153983
0.00153953
0.0015392
0.00153884
0.00153847
0.0015381
0.00153776
0.00153745
0.00153722
0.00153706
0.00154077
0.00149047
0.00149038
0.00149024
0.00149006
0.00148983
0.00148957
0.00148927
0.00148893
0.00148857
0.0014882
0.00148783
0.00148748
0.00148717
0.00148693
0.00148678
0.00149052
0.00144022
0.00144012
0.00143999
0.0014398
0.00143957
0.00143931
0.001439
0.00143866
0.0014383
0.00143792
0.00143755
0.0014372
0.00143689
0.00143665
0.00143649
0.00144027
0.00138997
0.00138987
0.00138973
0.00138955
0.00138932
0.00138905
0.00138874
0.0013884
0.00138803
0.00138765
0.00138727
0.00138692
0.00138661
0.00138636
0.00138621
0.00139002
0.00133972
0.00133962
0.00133948
0.0013393
0.00133906
0.00133879
0.00133848
0.00133813
0.00133776
0.00133738
0.001337
0.00133664
0.00133632
0.00133608
0.00133592
0.00133977
0.00128947
0.00128937
0.00128923
0.00128904
0.00128881
0.00128853
0.00128822
0.00128786
0.00128749
0.0012871
0.00128672
0.00128635
0.00128604
0.00128579
0.00128563
0.00128952
0.00123922
0.00123913
0.00123898
0.00123879
0.00123855
0.00123828
0.00123796
0.0012376
0.00123722
0.00123683
0.00123644
0.00123607
0.00123575
0.00123551
0.00123534
0.00123927
0.00118898
0.00118888
0.00118873
0.00118854
0.0011883
0.00118802
0.0011877
0.00118734
0.00118696
0.00118656
0.00118616
0.00118579
0.00118547
0.00118522
0.00118505
0.00118903
0.00113873
0.00113863
0.00113849
0.00113829
0.00113805
0.00113776
0.00113744
0.00113708
0.00113669
0.00113629
0.00113589
0.00113551
0.00113518
0.00113493
0.00113476
0.00113878
0.00108849
0.00108839
0.00108824
0.00108804
0.0010878
0.00108751
0.00108718
0.00108681
0.00108642
0.00108601
0.00108561
0.00108523
0.0010849
0.00108464
0.00108446
0.00108854
0.00103824
0.00103814
0.00103799
0.00103779
0.00103754
0.00103725
0.00103692
0.00103655
0.00103615
0.00103574
0.00103533
0.00103495
0.00103461
0.00103434
0.00103417
0.00103829
0.000987996
0.000987895
0.000987742
0.000987541
0.000987291
0.000986995
0.000986661
0.00098629
0.000985888
0.000985471
0.000985055
0.000984663
0.00098432
0.000984051
0.00098387
0.000988047
0.000937746
0.000937644
0.000937491
0.000937289
0.000937038
0.00093674
0.000936402
0.000936026
0.000935621
0.000935199
0.000934779
0.000934381
0.000934031
0.000933755
0.000933568
0.000937798
0.000887493
0.000887392
0.000887238
0.000887035
0.000886782
0.000886484
0.000886142
0.000885763
0.000885354
0.000884928
0.000884502
0.000884098
0.00088374
0.000883457
0.000883263
0.000887546
0.000837237
0.000837135
0.000836981
0.000836778
0.000836525
0.000836225
0.000835882
0.0008355
0.000835088
0.000834657
0.000834226
0.000833815
0.00083345
0.000833158
0.000832955
0.00083729
0.000786974
0.000786873
0.000786719
0.000786516
0.000786263
0.000785963
0.000785619
0.000785236
0.000784821
0.000784387
0.00078395
0.000783533
0.000783159
0.000782858
0.000782645
0.000787027
0.000736702
0.000736601
0.000736449
0.000736247
0.000735995
0.000735695
0.000735352
0.000734969
0.000734552
0.000734115
0.000733674
0.00073325
0.000732869
0.000732557
0.000732332
0.000736755
0.000686419
0.000686319
0.000686167
0.000685968
0.000685717
0.00068542
0.000685079
0.000684697
0.000684281
0.000683842
0.000683399
0.000682968
0.000682578
0.000682254
0.000682014
0.00068647
0.000636119
0.000636021
0.000635872
0.000635675
0.000635428
0.000635135
0.000634796
0.000634418
0.000634004
0.000633567
0.000633122
0.000632688
0.000632289
0.000631952
0.000631694
0.00063617
0.000585802
0.000585705
0.00058556
0.000585366
0.000585124
0.000584835
0.000584502
0.000584129
0.00058372
0.000583286
0.000582842
0.000582407
0.000582002
0.000581652
0.000581372
0.000585852
0.000535462
0.000535369
0.000535226
0.000535037
0.000534801
0.000534519
0.000534193
0.000533827
0.000533425
0.000532997
0.000532558
0.000532124
0.000531715
0.000531354
0.000531049
0.000535511
0.000485098
0.000485007
0.000484869
0.000484685
0.000484455
0.000484181
0.000483864
0.000483507
0.000483115
0.000482696
0.000482264
0.000481835
0.000481426
0.000481056
0.000480729
0.000485145
0.000434705
0.000434617
0.000434484
0.000434306
0.000434084
0.000433819
0.000433511
0.000433165
0.000432785
0.000432377
0.000431956
0.000431534
0.000431129
0.000430756
0.000430415
0.00043475
0.000384281
0.000384197
0.000384069
0.000383897
0.000383684
0.000383428
0.000383132
0.000382798
0.000382431
0.000382038
0.00038163
0.000381221
0.000380825
0.000380455
0.000380109
0.000384325
0.000333826
0.000333745
0.000333621
0.000333457
0.000333252
0.000333006
0.000332722
0.000332402
0.000332051
0.000331675
0.000331285
0.000330892
0.000330512
0.000330154
0.000329814
0.000333868
0.000283338
0.000283261
0.000283142
0.000282984
0.000282788
0.000282553
0.000282281
0.000281977
0.000281643
0.000281286
0.000280918
0.000280548
0.000280191
0.000279854
0.00027953
0.000283379
0.00023282
0.000232745
0.000232631
0.00023248
0.000232292
0.000232068
0.000231809
0.000231521
0.000231205
0.000230871
0.000230527
0.000230187
0.000229861
0.000229557
0.000229262
0.000232859
0.000182274
0.000182202
0.000182093
0.000181949
0.000181768
0.000181554
0.000181309
0.000181036
0.00018074
0.000180429
0.000180115
0.000179809
0.000179524
0.000179264
0.000179014
0.000182312
0.000131707
0.000131638
0.000131533
0.000131394
0.000131221
0.000131017
0.000130783
0.000130527
0.000130251
0.000129965
0.000129682
0.000129416
0.000129179
0.000128976
0.000128793
0.000131743
8.11242e-05
8.10572e-05
8.09556e-05
8.08221e-05
8.06564e-05
8.04612e-05
8.024e-05
7.99983e-05
7.97424e-05
7.9482e-05
7.92319e-05
7.90085e-05
7.88272e-05
7.86978e-05
7.86087e-05
8.11592e-05
3.05357e-05
3.0471e-05
3.03728e-05
3.02439e-05
3.00851e-05
2.9899e-05
2.96897e-05
2.94636e-05
2.92278e-05
2.89938e-05
2.87783e-05
2.86009e-05
2.84818e-05
2.84399e-05
2.84713e-05
3.05697e-05
-2.00409e-05
-2.01036e-05
-2.01983e-05
-2.03221e-05
-2.0474e-05
-2.06504e-05
-2.08467e-05
-2.10558e-05
-2.12689e-05
-2.14735e-05
-2.16504e-05
-2.17766e-05
-2.18263e-05
-2.17717e-05
-2.16069e-05
-2.0008e-05
-7.05821e-05
-7.06423e-05
-7.07331e-05
-7.08512e-05
-7.09948e-05
-7.116e-05
-7.13409e-05
-7.15297e-05
-7.17165e-05
-7.18868e-05
-7.20192e-05
-7.20881e-05
-7.2063e-05
-7.19104e-05
-7.16176e-05
-7.05504e-05
-0.000121063
-0.00012112
-0.000121206
-0.000121317
-0.00012145
-0.000121601
-0.000121764
-0.000121928
-0.000122084
-0.000122215
-0.000122298
-0.000122306
-0.000122206
-0.000121964
-0.000121563
-0.000121033
-0.000171461
-0.000171514
-0.000171592
-0.000171694
-0.000171814
-0.000171947
-0.000172088
-0.000172225
-0.000172345
-0.000172433
-0.000172465
-0.000172413
-0.000172245
-0.000171929
-0.000171448
-0.000171433
-0.000221757
-0.000221804
-0.000221873
-0.000221961
-0.000222065
-0.000222178
-0.000222293
-0.000222398
-0.000222481
-0.000222524
-0.000222506
-0.0002224
-0.000222177
-0.000221808
-0.000221277
-0.000221732
-0.000271936
-0.000271975
-0.000272034
-0.000272106
-0.00027219
-0.000272278
-0.000272364
-0.000272435
-0.000272479
-0.000272479
-0.000272416
-0.000272266
-0.000272003
-0.000271604
-0.000271055
-0.000271915
-0.000321992
-0.000322022
-0.000322067
-0.000322121
-0.000322182
-0.000322243
-0.000322296
-0.000322332
-0.000322337
-0.000322297
-0.000322195
-0.000322012
-0.000321727
-0.000321322
-0.000320785
-0.000321975
-0.000371921
-0.000371941
-0.000371971
-0.000372006
-0.000372042
-0.000372075
-0.000372095
-0.000372093
-0.00037206
-0.000371983
-0.00037185
-0.000371645
-0.000371355
-0.000370967
-0.00037047
-0.000371909
-0.000421725
-0.000421735
-0.000421749
-0.000421764
-0.000421776
-0.00042178
-0.000421768
-0.000421731
-0.000421661
-0.000421551
-0.000421392
-0.000421176
-0.000420895
-0.000420542
-0.000420106
-0.000421718
-0.000471407
-0.000471407
-0.000471406
-0.000471402
-0.000471391
-0.000471368
-0.000471326
-0.000471257
-0.000471158
-0.000471023
-0.000470848
-0.00047063
-0.000470366
-0.000470055
-0.000469687
-0.000471406
-0.000520971
-0.000520963
-0.00052095
-0.000520929
-0.000520897
-0.000520851
-0.000520786
-0.000520697
-0.000520581
-0.000520435
-0.000520256
-0.000520043
-0.000519798
-0.000519522
-0.000519211
-0.000520975
-0.000570433
-0.00057042
-0.000570398
-0.000570366
-0.000570321
-0.00057026
-0.000570182
-0.000570084
-0.000569963
-0.000569815
-0.00056964
-0.000569438
-0.000569211
-0.000568962
-0.000568693
-0.00057044
-0.000619827
-0.00061981
-0.000619784
-0.000619746
-0.000619694
-0.000619628
-0.000619544
-0.000619442
-0.000619319
-0.000619174
-0.000619007
-0.000618818
-0.000618609
-0.000618384
-0.000618148
-0.000619835
-0.000669181
-0.000669162
-0.000669132
-0.00066909
-0.000669035
-0.000668965
-0.000668879
-0.000668776
-0.000668655
-0.000668515
-0.000668357
-0.000668181
-0.000667991
-0.000667791
-0.000667584
-0.000669191
-0.000718504
-0.000718483
-0.000718451
-0.000718406
-0.000718349
-0.000718278
-0.000718193
-0.000718091
-0.000717974
-0.000717841
-0.000717693
-0.000717532
-0.00071736
-0.000717182
-0.000717
-0.000718514
-0.000767799
-0.000767777
-0.000767744
-0.0007677
-0.000767642
-0.000767572
-0.000767487
-0.00076739
-0.000767278
-0.000767154
-0.000767016
-0.000766869
-0.000766715
-0.000766556
-0.000766398
-0.00076781
-0.000817072
-0.00081705
-0.000817017
-0.000816973
-0.000816917
-0.000816848
-0.000816767
-0.000816674
-0.000816569
-0.000816453
-0.000816327
-0.000816194
-0.000816055
-0.000815915
-0.000815777
-0.000817083
-0.000866327
-0.000866305
-0.000866273
-0.00086623
-0.000866175
-0.00086611
-0.000866033
-0.000865945
-0.000865847
-0.00086574
-0.000865626
-0.000865505
-0.000865382
-0.000865258
-0.000865137
-0.000866338
-0.000915567
-0.000915546
-0.000915514
-0.000915473
-0.000915421
-0.000915359
-0.000915287
-0.000915205
-0.000915115
-0.000915017
-0.000914913
-0.000914805
-0.000914694
-0.000914585
-0.000914479
-0.000915577
-0.000964793
-0.000964773
-0.000964744
-0.000964705
-0.000964656
-0.000964598
-0.00096453
-0.000964455
-0.000964372
-0.000964283
-0.000964189
-0.000964092
-0.000963994
-0.000963898
-0.000963804
-0.000964803
-0.00101401
-0.00101399
-0.00101396
-0.00101392
-0.00101388
-0.00101383
-0.00101377
-0.0010137
-0.00101362
-0.00101354
-0.00101346
-0.00101337
-0.00101328
-0.0010132
-0.00101311
-0.00101402
-0.00106322
-0.0010632
-0.00106317
-0.00106314
-0.0010631
-0.00106305
-0.00106299
-0.00106293
-0.00106286
-0.00106279
-0.00106271
-0.00106263
-0.00106256
-0.00106248
-0.00106241
-0.00106322
-0.00111242
-0.0011124
-0.00111238
-0.00111235
-0.00111231
-0.00111226
-0.00111221
-0.00111215
-0.00111209
-0.00111202
-0.00111196
-0.00111189
-0.00111182
-0.00111175
-0.00111169
-0.00111242
-0.00116161
-0.00116159
-0.00116157
-0.00116155
-0.00116151
-0.00116147
-0.00116142
-0.00116137
-0.00116132
-0.00116126
-0.0011612
-0.00116114
-0.00116108
-0.00116101
-0.00116096
-0.00116162
-0.0012108
-0.00121078
-0.00121076
-0.00121074
-0.00121071
-0.00121067
-0.00121063
-0.00121058
-0.00121053
-0.00121048
-0.00121042
-0.00121037
-0.00121032
-0.00121026
-0.00121021
-0.00121081
-0.00125998
-0.00125997
-0.00125995
-0.00125993
-0.0012599
-0.00125987
-0.00125983
-0.00125979
-0.00125974
-0.00125969
-0.00125965
-0.0012596
-0.00125955
-0.0012595
-0.00125945
-0.00125999
-0.00130916
-0.00130915
-0.00130913
-0.00130911
-0.00130909
-0.00130905
-0.00130902
-0.00130898
-0.00130894
-0.0013089
-0.00130886
-0.00130881
-0.00130877
-0.00130873
-0.00130869
-0.00130917
-0.00135833
-0.00135832
-0.0013583
-0.00135829
-0.00135826
-0.00135824
-0.00135821
-0.00135817
-0.00135814
-0.0013581
-0.00135806
-0.00135802
-0.00135798
-0.00135795
-0.00135791
-0.00135834
-0.0014075
-0.00140749
-0.00140747
-0.00140746
-0.00140744
-0.00140741
-0.00140739
-0.00140736
-0.00140732
-0.00140729
-0.00140726
-0.00140722
-0.00140719
-0.00140715
-0.00140712
-0.0014075
-0.00145666
-0.00145665
-0.00145664
-0.00145662
-0.0014566
-0.00145658
-0.00145656
-0.00145653
-0.0014565
-0.00145647
-0.00145644
-0.00145641
-0.00145638
-0.00145635
-0.00145632
-0.00145666
-0.00150581
-0.0015058
-0.0015058
-0.00150578
-0.00150576
-0.00150574
-0.00150572
-0.0015057
-0.00150567
-0.00150565
-0.00150562
-0.00150559
-0.00150556
-0.00150554
-0.00150551
-0.00150582
-0.00155496
-0.00155496
-0.00155495
-0.00155493
-0.00155492
-0.0015549
-0.00155488
-0.00155486
-0.00155484
-0.00155481
-0.00155479
-0.00155476
-0.00155474
-0.00155471
-0.00155468
-0.00155497
-0.0016041
-0.0016041
-0.00160409
-0.00160408
-0.00160407
-0.00160405
-0.00160404
-0.00160402
-0.001604
-0.00160397
-0.00160395
-0.00160393
-0.0016039
-0.00160388
-0.00160386
-0.00160411
-0.00165324
-0.00165324
-0.00165323
-0.00165322
-0.00165321
-0.0016532
-0.00165318
-0.00165316
-0.00165315
-0.00165313
-0.00165311
-0.00165309
-0.00165306
-0.00165304
-0.00165302
-0.00165325
-0.00170238
-0.00170237
-0.00170237
-0.00170236
-0.00170235
-0.00170233
-0.00170232
-0.0017023
-0.00170229
-0.00170227
-0.00170225
-0.00170223
-0.00170221
-0.00170219
-0.00170217
-0.00170238
-0.0017515
-0.0017515
-0.00175149
-0.00175149
-0.00175148
-0.00175146
-0.00175145
-0.00175144
-0.00175142
-0.00175141
-0.00175139
-0.00175137
-0.00175135
-0.00175134
-0.00175132
-0.0017515
-0.00180062
-0.00180062
-0.00180061
-0.00180061
-0.0018006
-0.00180059
-0.00180058
-0.00180056
-0.00180055
-0.00180054
-0.00180052
-0.00180051
-0.00180049
-0.00180047
-0.00180045
-0.00180062
-0.00184974
-0.00184973
-0.00184973
-0.00184972
-0.00184971
-0.0018497
-0.0018497
-0.00184968
-0.00184967
-0.00184966
-0.00184965
-0.00184963
-0.00184961
-0.0018496
-0.00184958
-0.00184974
-0.00189884
-0.00189884
-0.00189883
-0.00189883
-0.00189882
-0.00189881
-0.00189881
-0.00189879
-0.00189878
-0.00189877
-0.00189876
-0.00189875
-0.00189873
-0.00189872
-0.0018987
-0.00189884
-0.00194794
-0.00194794
-0.00194794
-0.00194793
-0.00194793
-0.00194792
-0.00194791
-0.0019479
-0.00194789
-0.00194788
-0.00194787
-0.00194786
-0.00194784
-0.00194783
-0.00194782
-0.00194794
-0.00199704
-0.00199704
-0.00199703
-0.00199703
-0.00199702
-0.00199702
-0.00199701
-0.001997
-0.00199699
-0.00199698
-0.00199697
-0.00199696
-0.00199695
-0.00199694
-0.00199692
-0.00199704
-0.00204613
-0.00204612
-0.00204612
-0.00204612
-0.00204611
-0.00204611
-0.0020461
-0.00204609
-0.00204608
-0.00204607
-0.00204606
-0.00204605
-0.00204604
-0.00204603
-0.00204602
-0.00204613
-0.00209521
-0.0020952
-0.0020952
-0.0020952
-0.0020952
-0.00209519
-0.00209519
-0.00209518
-0.00209517
-0.00209516
-0.00209515
-0.00209514
-0.00209513
-0.00209512
-0.00209511
-0.00209521
-0.00214428
-0.00214428
-0.00214428
-0.00214428
-0.00214427
-0.00214427
-0.00214426
-0.00214426
-0.00214425
-0.00214424
-0.00214424
-0.00214423
-0.00214422
-0.00214421
-0.00214419
-0.00214429
-0.00219335
-0.00219335
-0.00219335
-0.00219334
-0.00219334
-0.00219334
-0.00219333
-0.00219333
-0.00219332
-0.00219331
-0.00219331
-0.0021933
-0.00219329
-0.00219328
-0.00219327
-0.00219335
-0.00224241
-0.00224241
-0.00224241
-0.0022424
-0.0022424
-0.0022424
-0.00224239
-0.00224239
-0.00224239
-0.00224238
-0.00224237
-0.00224237
-0.00224236
-0.00224235
-0.00224233
-0.00224241
-0.00229147
-0.00229147
-0.00229147
-0.00229146
-0.00229146
-0.00229146
-0.00229145
-0.00229145
-0.00229144
-0.00229144
-0.00229143
-0.00229143
-0.00229142
-0.00229141
-0.0022914
-0.00229147
-0.00234052
-0.00234052
-0.00234052
-0.00234051
-0.00234051
-0.00234051
-0.00234051
-0.0023405
-0.0023405
-0.00234049
-0.00234049
-0.00234048
-0.00234047
-0.00234046
-0.00234045
-0.00234052
-0.00238956
-0.00238956
-0.00238956
-0.00238955
-0.00238955
-0.00238955
-0.00238955
-0.00238955
-0.00238954
-0.00238954
-0.00238953
-0.00238953
-0.00238952
-0.00238951
-0.0023895
-0.00238956
-0.0024386
-0.0024386
-0.0024386
-0.00243859
-0.00243859
-0.00243859
-0.00243859
-0.00243858
-0.00243858
-0.00243858
-0.00243857
-0.00243857
-0.00243856
-0.00243856
-0.00243855
-0.0024386
-0.00248763
-0.00248763
-0.00248763
-0.00248763
-0.00248762
-0.00248762
-0.00248762
-0.00248762
-0.00248762
-0.00248761
-0.00248761
-0.0024876
-0.0024876
-0.00248759
-0.00248758
-0.00248763
-0.00253665
-0.00253665
-0.00253665
-0.00253665
-0.00253665
-0.00253664
-0.00253664
-0.00253664
-0.00253664
-0.00253664
-0.00253663
-0.00253663
-0.00253662
-0.00253662
-0.00253661
-0.00253665
-0.00258567
-0.00258567
-0.00258567
-0.00258567
-0.00258567
-0.00258566
-0.00258566
-0.00258566
-0.00258566
-0.00258566
-0.00258565
-0.00258565
-0.00258565
-0.00258564
-0.00258564
-0.00258567
-0.00263468
-0.00263468
-0.00263468
-0.00263468
-0.00263468
-0.00263468
-0.00263468
-0.00263468
-0.00263468
-0.00263467
-0.00263467
-0.00263467
-0.00263466
-0.00263466
-0.00263465
-0.00263468
-0.00268368
-0.00268368
-0.00268368
-0.00268368
-0.00268368
-0.00268368
-0.00268368
-0.00268368
-0.00268368
-0.00268368
-0.00268368
-0.00268367
-0.00268367
-0.00268367
-0.00268366
-0.00268368
-0.00273268
-0.00273268
-0.00273268
-0.00273268
-0.00273268
-0.00273268
-0.00273268
-0.00273268
-0.00273268
-0.00273268
-0.00273268
-0.00273268
-0.00273267
-0.00273267
-0.00273267
-0.00273268
-0.00278168
-0.00278168
-0.00278168
-0.00278168
-0.00278168
-0.00278168
-0.00278168
-0.00278168
-0.00278168
-0.00278168
-0.00278168
-0.00278167
-0.00278167
-0.00278167
-0.00278166
-0.00278168
-0.00283067
-0.00283067
-0.00283067
-0.00283067
-0.00283066
-0.00283066
-0.00283066
-0.00283066
-0.00283066
-0.00283066
-0.00283066
-0.00283066
-0.00283066
-0.00283066
-0.00283065
-0.00283067
-0.00287965
-0.00287965
-0.00287965
-0.00287965
-0.00287964
-0.00287964
-0.00287964
-0.00287964
-0.00287964
-0.00287964
-0.00287964
-0.00287964
-0.00287964
-0.00287964
-0.00287964
-0.00287965
-0.00292862
-0.00292862
-0.00292862
-0.00292862
-0.00292862
-0.00292862
-0.00292862
-0.00292862
-0.00292862
-0.00292862
-0.00292862
-0.00292862
-0.00292862
-0.00292862
-0.00292862
-0.00292862
-0.0029776
-0.00297759
-0.0029776
-0.0029776
-0.0029776
-0.0029776
-0.0029776
-0.0029776
-0.0029776
-0.00297759
-0.0029776
-0.0029776
-0.00297759
-0.0029776
-0.0029776
-0.0029776
-0.00302656
-0.00302656
-0.00302656
-0.00302656
-0.00302656
-0.00302656
-0.00302656
-0.00302656
-0.00302656
-0.00302656
-0.00302656
-0.00302656
-0.00302656
-0.00302656
-0.00302656
-0.00302656
-0.00307552
-0.00307552
-0.00307552
-0.00307552
-0.00307552
-0.00307552
-0.00307552
-0.00307552
-0.00307552
-0.00307552
-0.00307552
-0.00307552
-0.00307552
-0.00307552
-0.00307552
-0.00307552
)
;

boundaryField
{
    wireUpstream
    {
        type            calculated;
        value           nonuniform List<scalar> 
16
(
-0.0031
-0.0031
-0.0031
-0.0031
-0.0031
-0.0031
-0.0031
-0.0031
-0.0031
-0.0031
-0.0031
-0.0031
-0.0031
-0.0031
-0.0031
-0.0031
)
;
    }
    wireDownstream
    {
        type            calculated;
        value           nonuniform List<scalar> 
16
(
0.003
0.003
0.003
0.003
0.003
0.003
0.003
0.003
0.003
0.003
0.003
0.003
0.003
0.003
0.003
0.003
)
;
    }
    wireTopContact
    {
        type            calculated;
        value           nonuniform List<scalar> 
122
(
0.0028945
0.00284424
0.00279397
0.0027437
0.00269343
0.00264316
0.00259289
0.00254262
0.00249234
0.00244206
0.00239179
0.00234151
0.00229123
0.00224095
0.00219067
0.0021404
0.00209012
0.00203984
0.00198956
0.00193928
0.00188899
0.00183871
0.00178843
0.00173815
0.00168786
0.00163758
0.0015873
0.00153701
0.00148673
0.00143644
0.00138615
0.00133587
0.00128558
0.00123529
0.00118499
0.0011347
0.0010844
0.0010341
0.000983801
0.000933498
0.000883189
0.000832877
0.000782562
0.000732242
0.000681917
0.000631587
0.000581251
0.000530911
0.000480576
0.000430252
0.000379941
0.000329646
0.00027937
0.000229115
0.000178888
0.000128702
7.85701e-05
2.85027e-05
-2.14976e-05
-7.14363e-05
-0.000121323
-0.000171167
-0.000220973
-0.000270744
-0.000320484
-0.000370193
-0.000419865
-0.000469486
-0.000519046
-0.000568554
-0.000618028
-0.00066748
-0.00071691
-0.000766319
-0.000815708
-0.000865077
-0.000914427
-0.000963759
-0.00101308
-0.00106238
-0.00111166
-0.00116093
-0.00121019
-0.00125943
-0.00130867
-0.00135789
-0.0014071
-0.0014563
-0.00150549
-0.00155467
-0.00160385
-0.00165301
-0.00170216
-0.0017513
-0.00180044
-0.00184957
-0.00189869
-0.00194781
-0.00199691
-0.00204601
-0.0020951
-0.00214418
-0.00219326
-0.00224233
-0.00229139
-0.00234045
-0.0023895
-0.00243854
-0.00248758
-0.00253661
-0.00258563
-0.00263465
-0.00268366
-0.00273266
-0.00278166
-0.00283065
-0.00287964
-0.00292862
-0.00297759
-0.00302656
-0.00307552
0.00295982
)
;
    }
    front
    {
        type            wedge;
    }
    back
    {
        type            wedge;
    }
}


// ************************************************************************* //
