/*--------------------------------*- C++ -*----------------------------------*\
| =========                 |                                                 |
| \\      /  F ield         | foam-extend: Open Source CFD                    |
|  \\    /   O peration     | Version:     4.1-20200408                       |
|   \\  /    A nd           | Web:         http://www.foam-extend.org         |
|    \\/     M anipulation  |                                                 |
\*---------------------------------------------------------------------------*/
FoamFile
{
    version     2.0;
    format      ascii;
    class       volScalarField;
    location    "0.0235000";
    object      sigmaY;
}
// * * * * * * * * * * * * * * * * * * * * * * * * * * * * * * * * * * * * * //

dimensions      [1 -1 -2 0 0 0 0];

internalField   nonuniform List<scalar> 
1952
(
1.25512e+09
1.25514e+09
1.25516e+09
1.25518e+09
1.25521e+09
1.25523e+09
1.25525e+09
1.25525e+09
1.25523e+09
1.25516e+09
1.25505e+09
1.25482e+09
1.25449e+09
1.25396e+09
1.25333e+09
1.25512e+09
1.25517e+09
1.25518e+09
1.2552e+09
1.25522e+09
1.25525e+09
1.25527e+09
1.25529e+09
1.25529e+09
1.25527e+09
1.25521e+09
1.25509e+09
1.25486e+09
1.25453e+09
1.25399e+09
1.25337e+09
1.25516e+09
1.25521e+09
1.25523e+09
1.25525e+09
1.25527e+09
1.2553e+09
1.25532e+09
1.25534e+09
1.25534e+09
1.25532e+09
1.25525e+09
1.25513e+09
1.2549e+09
1.25457e+09
1.25403e+09
1.25341e+09
1.25521e+09
1.25526e+09
1.25527e+09
1.25529e+09
1.25532e+09
1.25534e+09
1.25536e+09
1.25538e+09
1.25538e+09
1.25536e+09
1.25529e+09
1.25517e+09
1.25494e+09
1.25461e+09
1.25406e+09
1.25344e+09
1.25525e+09
1.25531e+09
1.25532e+09
1.25534e+09
1.25536e+09
1.25539e+09
1.25541e+09
1.25543e+09
1.25543e+09
1.25541e+09
1.25534e+09
1.25522e+09
1.25498e+09
1.25464e+09
1.2541e+09
1.25348e+09
1.2553e+09
1.25535e+09
1.25536e+09
1.25538e+09
1.25541e+09
1.25543e+09
1.25545e+09
1.25547e+09
1.25547e+09
1.25545e+09
1.25538e+09
1.25526e+09
1.25502e+09
1.25468e+09
1.25414e+09
1.25352e+09
1.25534e+09
1.2554e+09
1.25541e+09
1.25543e+09
1.25545e+09
1.25548e+09
1.2555e+09
1.25552e+09
1.25552e+09
1.2555e+09
1.25542e+09
1.2553e+09
1.25506e+09
1.25472e+09
1.25417e+09
1.25356e+09
1.25539e+09
1.25544e+09
1.25545e+09
1.25547e+09
1.2555e+09
1.25552e+09
1.25554e+09
1.25556e+09
1.25556e+09
1.25554e+09
1.25547e+09
1.25534e+09
1.2551e+09
1.25476e+09
1.25421e+09
1.25359e+09
1.25543e+09
1.25548e+09
1.2555e+09
1.25552e+09
1.25554e+09
1.25557e+09
1.25559e+09
1.25561e+09
1.25561e+09
1.25558e+09
1.25551e+09
1.25539e+09
1.25514e+09
1.2548e+09
1.25425e+09
1.25363e+09
1.25548e+09
1.25553e+09
1.25554e+09
1.25556e+09
1.25558e+09
1.25561e+09
1.25563e+09
1.25565e+09
1.25565e+09
1.25563e+09
1.25555e+09
1.25543e+09
1.25518e+09
1.25483e+09
1.25429e+09
1.25366e+09
1.25552e+09
1.25557e+09
1.25558e+09
1.25561e+09
1.25563e+09
1.25566e+09
1.25568e+09
1.2557e+09
1.25569e+09
1.25567e+09
1.2556e+09
1.25547e+09
1.25522e+09
1.25487e+09
1.25432e+09
1.2537e+09
1.25557e+09
1.25562e+09
1.25563e+09
1.25565e+09
1.25567e+09
1.2557e+09
1.25572e+09
1.25574e+09
1.25574e+09
1.25572e+09
1.25564e+09
1.25551e+09
1.25526e+09
1.25491e+09
1.25436e+09
1.25374e+09
1.25561e+09
1.25566e+09
1.25567e+09
1.25569e+09
1.25572e+09
1.25574e+09
1.25577e+09
1.25578e+09
1.25578e+09
1.25576e+09
1.25568e+09
1.25555e+09
1.2553e+09
1.25494e+09
1.25439e+09
1.25377e+09
1.25565e+09
1.2557e+09
1.25572e+09
1.25574e+09
1.25576e+09
1.25579e+09
1.25581e+09
1.25583e+09
1.25583e+09
1.2558e+09
1.25572e+09
1.25559e+09
1.25534e+09
1.25498e+09
1.25443e+09
1.25381e+09
1.2557e+09
1.25575e+09
1.25576e+09
1.25578e+09
1.2558e+09
1.25583e+09
1.25585e+09
1.25587e+09
1.25587e+09
1.25584e+09
1.25577e+09
1.25563e+09
1.25538e+09
1.25501e+09
1.25447e+09
1.25384e+09
1.25574e+09
1.25579e+09
1.2558e+09
1.25583e+09
1.25585e+09
1.25588e+09
1.2559e+09
1.25592e+09
1.25591e+09
1.25589e+09
1.25581e+09
1.25567e+09
1.25542e+09
1.25505e+09
1.2545e+09
1.25388e+09
1.25578e+09
1.25584e+09
1.25585e+09
1.25587e+09
1.25589e+09
1.25592e+09
1.25594e+09
1.25596e+09
1.25596e+09
1.25593e+09
1.25585e+09
1.25571e+09
1.25545e+09
1.25509e+09
1.25454e+09
1.25391e+09
1.25583e+09
1.25588e+09
1.25589e+09
1.25591e+09
1.25594e+09
1.25596e+09
1.25598e+09
1.256e+09
1.256e+09
1.25597e+09
1.25589e+09
1.25576e+09
1.25549e+09
1.25512e+09
1.25458e+09
1.25395e+09
1.25587e+09
1.25592e+09
1.25593e+09
1.25596e+09
1.25598e+09
1.25601e+09
1.25603e+09
1.25605e+09
1.25604e+09
1.25602e+09
1.25593e+09
1.2558e+09
1.25553e+09
1.25516e+09
1.25461e+09
1.25399e+09
1.25592e+09
1.25597e+09
1.25598e+09
1.256e+09
1.25602e+09
1.25605e+09
1.25607e+09
1.25609e+09
1.25608e+09
1.25606e+09
1.25597e+09
1.25584e+09
1.25557e+09
1.2552e+09
1.25465e+09
1.25402e+09
1.25596e+09
1.25601e+09
1.25602e+09
1.25604e+09
1.25606e+09
1.25609e+09
1.25611e+09
1.25613e+09
1.25613e+09
1.2561e+09
1.25602e+09
1.25588e+09
1.25561e+09
1.25524e+09
1.25468e+09
1.25406e+09
1.256e+09
1.25605e+09
1.25606e+09
1.25609e+09
1.25611e+09
1.25614e+09
1.25616e+09
1.25617e+09
1.25617e+09
1.25614e+09
1.25606e+09
1.25592e+09
1.25566e+09
1.25528e+09
1.25472e+09
1.2541e+09
1.25604e+09
1.2561e+09
1.25611e+09
1.25613e+09
1.25615e+09
1.25618e+09
1.2562e+09
1.25622e+09
1.25621e+09
1.25619e+09
1.2561e+09
1.25597e+09
1.2557e+09
1.25532e+09
1.25475e+09
1.25413e+09
1.25609e+09
1.25614e+09
1.25615e+09
1.25617e+09
1.25619e+09
1.25622e+09
1.25624e+09
1.25626e+09
1.25626e+09
1.25623e+09
1.25615e+09
1.25601e+09
1.25574e+09
1.25536e+09
1.25479e+09
1.25417e+09
1.25613e+09
1.25618e+09
1.2562e+09
1.25622e+09
1.25624e+09
1.25627e+09
1.25629e+09
1.25631e+09
1.2563e+09
1.25628e+09
1.25619e+09
1.25605e+09
1.25578e+09
1.2554e+09
1.25483e+09
1.25421e+09
1.25618e+09
1.25623e+09
1.25624e+09
1.25626e+09
1.25629e+09
1.25631e+09
1.25633e+09
1.25635e+09
1.25635e+09
1.25633e+09
1.25624e+09
1.2561e+09
1.25582e+09
1.25544e+09
1.25486e+09
1.25425e+09
1.25622e+09
1.25627e+09
1.25629e+09
1.25631e+09
1.25633e+09
1.25636e+09
1.25638e+09
1.2564e+09
1.2564e+09
1.25637e+09
1.25628e+09
1.25614e+09
1.25587e+09
1.25548e+09
1.2549e+09
1.25428e+09
1.25627e+09
1.25632e+09
1.25633e+09
1.25636e+09
1.25638e+09
1.25641e+09
1.25643e+09
1.25645e+09
1.25644e+09
1.25642e+09
1.25633e+09
1.25618e+09
1.25591e+09
1.25552e+09
1.25494e+09
1.25432e+09
1.25631e+09
1.25637e+09
1.25638e+09
1.2564e+09
1.25643e+09
1.25645e+09
1.25648e+09
1.2565e+09
1.25649e+09
1.25646e+09
1.25637e+09
1.25623e+09
1.25595e+09
1.25556e+09
1.25498e+09
1.25436e+09
1.25636e+09
1.25642e+09
1.25643e+09
1.25645e+09
1.25647e+09
1.2565e+09
1.25652e+09
1.25654e+09
1.25654e+09
1.25651e+09
1.25642e+09
1.25627e+09
1.25599e+09
1.2556e+09
1.25501e+09
1.2544e+09
1.25641e+09
1.25646e+09
1.25648e+09
1.2565e+09
1.25652e+09
1.25655e+09
1.25657e+09
1.25659e+09
1.25659e+09
1.25656e+09
1.25647e+09
1.25632e+09
1.25604e+09
1.25564e+09
1.25505e+09
1.25443e+09
1.25646e+09
1.25651e+09
1.25652e+09
1.25655e+09
1.25657e+09
1.2566e+09
1.25662e+09
1.25664e+09
1.25663e+09
1.2566e+09
1.25651e+09
1.25636e+09
1.25608e+09
1.25568e+09
1.25509e+09
1.25447e+09
1.2565e+09
1.25656e+09
1.25657e+09
1.25659e+09
1.25662e+09
1.25665e+09
1.25667e+09
1.25669e+09
1.25668e+09
1.25665e+09
1.25656e+09
1.25641e+09
1.25612e+09
1.25572e+09
1.25513e+09
1.25451e+09
1.25655e+09
1.25661e+09
1.25662e+09
1.25664e+09
1.25667e+09
1.25669e+09
1.25672e+09
1.25673e+09
1.25673e+09
1.2567e+09
1.25661e+09
1.25645e+09
1.25617e+09
1.25576e+09
1.25517e+09
1.25455e+09
1.2566e+09
1.25666e+09
1.25667e+09
1.25669e+09
1.25671e+09
1.25674e+09
1.25676e+09
1.25678e+09
1.25677e+09
1.25675e+09
1.25665e+09
1.2565e+09
1.25621e+09
1.25581e+09
1.2552e+09
1.25459e+09
1.25665e+09
1.2567e+09
1.25672e+09
1.25674e+09
1.25676e+09
1.25679e+09
1.25681e+09
1.25683e+09
1.25682e+09
1.25679e+09
1.2567e+09
1.25654e+09
1.25625e+09
1.25585e+09
1.25524e+09
1.25463e+09
1.2567e+09
1.25675e+09
1.25676e+09
1.25679e+09
1.25681e+09
1.25684e+09
1.25686e+09
1.25688e+09
1.25687e+09
1.25684e+09
1.25675e+09
1.25659e+09
1.2563e+09
1.25589e+09
1.25528e+09
1.25467e+09
1.25674e+09
1.2568e+09
1.25681e+09
1.25683e+09
1.25686e+09
1.25689e+09
1.25691e+09
1.25692e+09
1.25692e+09
1.25689e+09
1.25679e+09
1.25664e+09
1.25634e+09
1.25593e+09
1.25532e+09
1.25471e+09
1.25679e+09
1.25685e+09
1.25686e+09
1.25688e+09
1.2569e+09
1.25693e+09
1.25695e+09
1.25697e+09
1.25696e+09
1.25693e+09
1.25684e+09
1.25668e+09
1.25639e+09
1.25597e+09
1.25536e+09
1.25475e+09
1.25684e+09
1.25689e+09
1.25691e+09
1.25693e+09
1.25695e+09
1.25698e+09
1.257e+09
1.25702e+09
1.25701e+09
1.25698e+09
1.25689e+09
1.25673e+09
1.25643e+09
1.25601e+09
1.2554e+09
1.25479e+09
1.25689e+09
1.25694e+09
1.25695e+09
1.25698e+09
1.257e+09
1.25703e+09
1.25705e+09
1.25707e+09
1.25706e+09
1.25703e+09
1.25693e+09
1.25677e+09
1.25647e+09
1.25606e+09
1.25544e+09
1.25483e+09
1.25693e+09
1.25699e+09
1.257e+09
1.25702e+09
1.25705e+09
1.25708e+09
1.2571e+09
1.25711e+09
1.25711e+09
1.25708e+09
1.25698e+09
1.25682e+09
1.25652e+09
1.2561e+09
1.25547e+09
1.25487e+09
1.25698e+09
1.25704e+09
1.25705e+09
1.25707e+09
1.2571e+09
1.25712e+09
1.25715e+09
1.25716e+09
1.25716e+09
1.25712e+09
1.25703e+09
1.25686e+09
1.25656e+09
1.25614e+09
1.25551e+09
1.25491e+09
1.25703e+09
1.25708e+09
1.2571e+09
1.25712e+09
1.25714e+09
1.25717e+09
1.25719e+09
1.25721e+09
1.2572e+09
1.25717e+09
1.25707e+09
1.25691e+09
1.25661e+09
1.25618e+09
1.25555e+09
1.25495e+09
1.25707e+09
1.25713e+09
1.25714e+09
1.25717e+09
1.25719e+09
1.25722e+09
1.25724e+09
1.25726e+09
1.25725e+09
1.25722e+09
1.25712e+09
1.25695e+09
1.25665e+09
1.25622e+09
1.25559e+09
1.25499e+09
1.25712e+09
1.25718e+09
1.25719e+09
1.25721e+09
1.25724e+09
1.25727e+09
1.25729e+09
1.25731e+09
1.2573e+09
1.25727e+09
1.25716e+09
1.257e+09
1.25669e+09
1.25626e+09
1.25563e+09
1.25503e+09
1.25717e+09
1.25722e+09
1.25724e+09
1.25726e+09
1.25728e+09
1.25731e+09
1.25734e+09
1.25735e+09
1.25734e+09
1.25731e+09
1.25721e+09
1.25704e+09
1.25674e+09
1.25631e+09
1.25566e+09
1.25507e+09
1.25722e+09
1.25727e+09
1.25728e+09
1.25731e+09
1.25733e+09
1.25736e+09
1.25738e+09
1.2574e+09
1.25739e+09
1.25736e+09
1.25726e+09
1.25709e+09
1.25678e+09
1.25635e+09
1.2557e+09
1.25511e+09
1.25726e+09
1.25732e+09
1.25733e+09
1.25735e+09
1.25738e+09
1.25741e+09
1.25743e+09
1.25745e+09
1.25744e+09
1.25741e+09
1.2573e+09
1.25713e+09
1.25682e+09
1.25639e+09
1.25574e+09
1.25515e+09
1.25731e+09
1.25737e+09
1.25738e+09
1.2574e+09
1.25743e+09
1.25746e+09
1.25748e+09
1.25749e+09
1.25749e+09
1.25745e+09
1.25735e+09
1.25718e+09
1.25687e+09
1.25643e+09
1.25578e+09
1.25519e+09
1.25736e+09
1.25741e+09
1.25742e+09
1.25745e+09
1.25747e+09
1.2575e+09
1.25752e+09
1.25754e+09
1.25753e+09
1.2575e+09
1.25739e+09
1.25722e+09
1.25691e+09
1.25647e+09
1.25582e+09
1.25523e+09
1.2574e+09
1.25746e+09
1.25747e+09
1.25749e+09
1.25752e+09
1.25755e+09
1.25757e+09
1.25759e+09
1.25758e+09
1.25754e+09
1.25744e+09
1.25727e+09
1.25695e+09
1.25651e+09
1.25585e+09
1.25527e+09
1.25745e+09
1.2575e+09
1.25752e+09
1.25754e+09
1.25757e+09
1.2576e+09
1.25762e+09
1.25763e+09
1.25763e+09
1.25759e+09
1.25749e+09
1.25731e+09
1.25699e+09
1.25655e+09
1.25589e+09
1.2553e+09
1.2575e+09
1.25755e+09
1.25756e+09
1.25759e+09
1.25761e+09
1.25764e+09
1.25766e+09
1.25768e+09
1.25767e+09
1.25764e+09
1.25753e+09
1.25736e+09
1.25704e+09
1.25659e+09
1.25593e+09
1.25534e+09
1.25754e+09
1.2576e+09
1.25761e+09
1.25763e+09
1.25766e+09
1.25769e+09
1.25771e+09
1.25773e+09
1.25772e+09
1.25768e+09
1.25758e+09
1.2574e+09
1.25708e+09
1.25663e+09
1.25597e+09
1.25538e+09
1.25759e+09
1.25764e+09
1.25765e+09
1.25768e+09
1.2577e+09
1.25773e+09
1.25776e+09
1.25777e+09
1.25776e+09
1.25773e+09
1.25762e+09
1.25745e+09
1.25712e+09
1.25667e+09
1.25601e+09
1.25539e+09
1.25763e+09
1.25769e+09
1.2577e+09
1.25772e+09
1.25775e+09
1.25778e+09
1.2578e+09
1.25782e+09
1.25781e+09
1.25777e+09
1.25767e+09
1.25749e+09
1.25716e+09
1.25671e+09
1.25605e+09
1.25536e+09
1.25768e+09
1.25773e+09
1.25775e+09
1.25777e+09
1.25779e+09
1.25782e+09
1.25785e+09
1.25786e+09
1.25785e+09
1.25782e+09
1.25771e+09
1.25753e+09
1.25721e+09
1.25675e+09
1.25608e+09
1.25526e+09
1.25772e+09
1.25772e+09
1.25774e+09
1.25776e+09
1.25778e+09
1.25781e+09
1.25783e+09
1.25784e+09
1.25782e+09
1.25777e+09
1.25765e+09
1.25745e+09
1.25711e+09
1.25664e+09
1.25591e+09
1.25504e+09
1.25772e+09
1.25757e+09
1.25758e+09
1.2576e+09
1.25762e+09
1.25764e+09
1.25765e+09
1.25764e+09
1.2576e+09
1.25752e+09
1.25737e+09
1.25714e+09
1.25676e+09
1.25625e+09
1.25551e+09
1.25466e+09
1.25756e+09
1.25725e+09
1.25726e+09
1.25727e+09
1.25728e+09
1.25729e+09
1.25728e+09
1.25725e+09
1.25719e+09
1.25708e+09
1.2569e+09
1.25662e+09
1.25621e+09
1.25567e+09
1.25496e+09
1.25419e+09
1.25725e+09
1.25677e+09
1.25677e+09
1.25677e+09
1.25677e+09
1.25676e+09
1.25673e+09
1.25668e+09
1.25659e+09
1.25645e+09
1.25624e+09
1.25593e+09
1.25552e+09
1.25498e+09
1.25434e+09
1.25371e+09
1.25677e+09
1.25615e+09
1.25614e+09
1.25613e+09
1.25611e+09
1.25607e+09
1.25603e+09
1.25595e+09
1.25584e+09
1.25567e+09
1.25544e+09
1.25512e+09
1.25473e+09
1.25423e+09
1.25371e+09
1.25324e+09
1.25614e+09
1.25541e+09
1.25539e+09
1.25536e+09
1.25532e+09
1.25527e+09
1.25519e+09
1.25509e+09
1.25496e+09
1.25478e+09
1.25454e+09
1.25424e+09
1.25388e+09
1.25346e+09
1.25307e+09
1.25277e+09
1.25541e+09
1.2546e+09
1.25457e+09
1.25453e+09
1.25447e+09
1.25439e+09
1.25429e+09
1.25416e+09
1.254e+09
1.25381e+09
1.25358e+09
1.2533e+09
1.253e+09
1.25267e+09
1.25244e+09
1.25233e+09
1.25461e+09
1.25376e+09
1.25372e+09
1.25366e+09
1.25358e+09
1.25349e+09
1.25336e+09
1.25321e+09
1.25303e+09
1.25282e+09
1.25259e+09
1.25234e+09
1.25211e+09
1.2519e+09
1.25182e+09
1.2519e+09
1.25377e+09
1.25292e+09
1.25287e+09
1.2528e+09
1.25271e+09
1.2526e+09
1.25246e+09
1.2523e+09
1.2521e+09
1.25188e+09
1.25165e+09
1.25143e+09
1.25125e+09
1.25115e+09
1.25122e+09
1.25147e+09
1.25293e+09
1.2521e+09
1.25205e+09
1.25198e+09
1.25188e+09
1.25177e+09
1.25162e+09
1.25145e+09
1.25125e+09
1.25103e+09
1.2508e+09
1.25061e+09
1.25049e+09
1.25047e+09
1.25065e+09
1.25103e+09
1.25212e+09
1.25132e+09
1.25127e+09
1.2512e+09
1.2511e+09
1.25098e+09
1.25083e+09
1.25066e+09
1.25049e+09
1.25032e+09
1.25016e+09
1.25003e+09
1.25e+09
1.25e+09
1.25019e+09
1.25056e+09
1.25133e+09
1.25056e+09
1.25052e+09
1.25047e+09
1.25039e+09
1.25029e+09
1.25016e+09
1.25004e+09
1.25e+09
1.25e+09
1.25e+09
1.25e+09
1.25e+09
1.25e+09
1.25e+09
1.25017e+09
1.25057e+09
1.25e+09
1.25e+09
1.25e+09
1.25e+09
1.25e+09
1.25e+09
1.25e+09
1.25e+09
1.25e+09
1.25e+09
1.25e+09
1.25e+09
1.25e+09
1.25e+09
1.25e+09
1.25e+09
1.25e+09
1.25e+09
1.25e+09
1.25e+09
1.25e+09
1.25e+09
1.25e+09
1.25e+09
1.25e+09
1.25e+09
1.25e+09
1.25e+09
1.25e+09
1.25e+09
1.25e+09
1.25e+09
1.25e+09
1.25e+09
1.25e+09
1.25e+09
1.25e+09
1.25e+09
1.25e+09
1.25e+09
1.25e+09
1.25e+09
1.25e+09
1.25e+09
1.25e+09
1.25e+09
1.25e+09
1.25e+09
1.25e+09
1.25e+09
1.25e+09
1.25e+09
1.25e+09
1.25e+09
1.25e+09
1.25e+09
1.25e+09
1.25e+09
1.25e+09
1.25e+09
1.25e+09
1.25e+09
1.25e+09
1.25e+09
1.25e+09
1.25e+09
1.25e+09
1.25e+09
1.25e+09
1.25e+09
1.25e+09
1.25e+09
1.25e+09
1.25e+09
1.25e+09
1.25e+09
1.25e+09
1.25e+09
1.25e+09
1.25e+09
1.25e+09
1.25e+09
1.25e+09
1.25e+09
1.25e+09
1.25e+09
1.25e+09
1.25e+09
1.25e+09
1.25e+09
1.25e+09
1.25e+09
1.25e+09
1.25e+09
1.25e+09
1.25e+09
1.25e+09
1.25e+09
1.25e+09
1.25e+09
1.25e+09
1.25e+09
1.25e+09
1.25e+09
1.25e+09
1.25e+09
1.25e+09
1.25e+09
1.25e+09
1.25e+09
1.25e+09
1.25e+09
1.25e+09
1.25e+09
1.25e+09
1.25e+09
1.25e+09
1.25e+09
1.25e+09
1.25e+09
1.25e+09
1.25e+09
1.25e+09
1.25e+09
1.25e+09
1.25e+09
1.25e+09
1.25e+09
1.25e+09
1.25e+09
1.25e+09
1.25e+09
1.25e+09
1.25e+09
1.25e+09
1.25e+09
1.25e+09
1.25e+09
1.25e+09
1.25e+09
1.25e+09
1.25e+09
1.25e+09
1.25e+09
1.25e+09
1.25e+09
1.25e+09
1.25e+09
1.25e+09
1.25e+09
1.25e+09
1.25e+09
1.25e+09
1.25e+09
1.25e+09
1.25e+09
1.25e+09
1.25e+09
1.25e+09
1.25e+09
1.25e+09
1.25e+09
1.25e+09
1.25e+09
1.25e+09
1.25e+09
1.25e+09
1.25e+09
1.25e+09
1.25e+09
1.25e+09
1.25e+09
1.25e+09
1.25e+09
1.25e+09
1.25e+09
1.25e+09
1.25e+09
1.25e+09
1.25e+09
1.25e+09
1.25e+09
1.25e+09
1.25e+09
1.25e+09
1.25e+09
1.25e+09
1.25e+09
1.25e+09
1.25e+09
1.25e+09
1.25e+09
1.25e+09
1.25e+09
1.25e+09
1.25e+09
1.25e+09
1.25e+09
1.25e+09
1.25e+09
1.25e+09
1.25e+09
1.25e+09
1.25e+09
1.25e+09
1.25e+09
1.25e+09
1.25e+09
1.25e+09
1.25e+09
1.25e+09
1.25e+09
1.25e+09
1.25e+09
1.25e+09
1.25e+09
1.25e+09
1.25e+09
1.25e+09
1.25e+09
1.25e+09
1.25e+09
1.25e+09
1.25e+09
1.25e+09
1.25e+09
1.25e+09
1.25e+09
1.25e+09
1.25e+09
1.25e+09
1.25e+09
1.25e+09
1.25e+09
1.25e+09
1.25e+09
1.25e+09
1.25e+09
1.25e+09
1.25e+09
1.25e+09
1.25e+09
1.25e+09
1.25e+09
1.25e+09
1.25e+09
1.25e+09
1.25e+09
1.25e+09
1.25e+09
1.25e+09
1.25e+09
1.25e+09
1.25e+09
1.25e+09
1.25e+09
1.25e+09
1.25e+09
1.25e+09
1.25e+09
1.25e+09
1.25e+09
1.25e+09
1.25e+09
1.25e+09
1.25e+09
1.25e+09
1.25e+09
1.25e+09
1.25e+09
1.25e+09
1.25e+09
1.25e+09
1.25e+09
1.25e+09
1.25e+09
1.25e+09
1.25e+09
1.25e+09
1.25e+09
1.25e+09
1.25e+09
1.25e+09
1.25e+09
1.25e+09
1.25e+09
1.25e+09
1.25e+09
1.25e+09
1.25e+09
1.25e+09
1.25e+09
1.25e+09
1.25e+09
1.25e+09
1.25e+09
1.25e+09
1.25e+09
1.25e+09
1.25e+09
1.25e+09
1.25e+09
1.25e+09
1.25e+09
1.25e+09
1.25e+09
1.25e+09
1.25e+09
1.25e+09
1.25e+09
1.25e+09
1.25e+09
1.25e+09
1.25e+09
1.25e+09
1.25e+09
1.25e+09
1.25e+09
1.25e+09
1.25e+09
1.25e+09
1.25e+09
1.25e+09
1.25e+09
1.25e+09
1.25e+09
1.25e+09
1.25e+09
1.25e+09
1.25e+09
1.25e+09
1.25e+09
1.25e+09
1.25e+09
1.25e+09
1.25e+09
1.25e+09
1.25e+09
1.25e+09
1.25e+09
1.25e+09
1.25e+09
1.25e+09
1.25e+09
1.25e+09
1.25e+09
1.25e+09
1.25e+09
1.25e+09
1.25e+09
1.25e+09
1.25e+09
1.25e+09
1.25e+09
1.25e+09
1.25e+09
1.25e+09
1.25e+09
1.25e+09
1.25e+09
1.25e+09
1.25e+09
1.25e+09
1.25e+09
1.25e+09
1.25e+09
1.25e+09
1.25e+09
1.25e+09
1.25e+09
1.25e+09
1.25e+09
1.25e+09
1.25e+09
1.25e+09
1.25e+09
1.25e+09
1.25e+09
1.25e+09
1.25e+09
1.25e+09
1.25e+09
1.25e+09
1.25e+09
1.25e+09
1.25e+09
1.25e+09
1.25e+09
1.25e+09
1.25e+09
1.25e+09
1.25e+09
1.25e+09
1.25e+09
1.25e+09
1.25e+09
1.25e+09
1.25e+09
1.25e+09
1.25e+09
1.25e+09
1.25e+09
1.25e+09
1.25e+09
1.25e+09
1.25e+09
1.25e+09
1.25e+09
1.25e+09
1.25e+09
1.25e+09
1.25e+09
1.25e+09
1.25e+09
1.25e+09
1.25e+09
1.25e+09
1.25e+09
1.25e+09
1.25e+09
1.25e+09
1.25e+09
1.25e+09
1.25e+09
1.25e+09
1.25e+09
1.25e+09
1.25e+09
1.25e+09
1.25e+09
1.25e+09
1.25e+09
1.25e+09
1.25e+09
1.25e+09
1.25e+09
1.25e+09
1.25e+09
1.25e+09
1.25e+09
1.25e+09
1.25e+09
1.25e+09
1.25e+09
1.25e+09
1.25e+09
1.25e+09
1.25e+09
1.25e+09
1.25e+09
1.25e+09
1.25e+09
1.25e+09
1.25e+09
1.25e+09
1.25e+09
1.25e+09
1.25e+09
1.25e+09
1.25e+09
1.25e+09
1.25e+09
1.25e+09
1.25e+09
1.25e+09
1.25e+09
1.25e+09
1.25e+09
1.25e+09
1.25e+09
1.25e+09
1.25e+09
1.25e+09
1.25e+09
1.25e+09
1.25e+09
1.25e+09
1.25e+09
1.25e+09
1.25e+09
1.25e+09
1.25e+09
1.25e+09
1.25e+09
1.25e+09
1.25e+09
1.25e+09
1.25e+09
1.25e+09
1.25e+09
1.25e+09
1.25e+09
1.25e+09
1.25e+09
1.25e+09
1.25e+09
1.25e+09
1.25e+09
1.25e+09
1.25e+09
1.25e+09
1.25e+09
1.25e+09
1.25e+09
1.25e+09
1.25e+09
1.25e+09
1.25e+09
1.25e+09
1.25e+09
1.25e+09
1.25e+09
1.25e+09
1.25e+09
1.25e+09
1.25e+09
1.25e+09
1.25e+09
1.25e+09
1.25e+09
1.25e+09
1.25e+09
1.25e+09
1.25e+09
1.25e+09
1.25e+09
1.25e+09
1.25e+09
1.25e+09
1.25e+09
1.25e+09
1.25e+09
1.25e+09
1.25e+09
1.25e+09
1.25e+09
1.25e+09
1.25e+09
1.25e+09
1.25e+09
1.25e+09
1.25e+09
1.25e+09
1.25e+09
1.25e+09
1.25e+09
1.25e+09
1.25e+09
1.25e+09
1.25e+09
1.25e+09
1.25e+09
1.25e+09
1.25e+09
1.25e+09
1.25e+09
1.25e+09
1.25e+09
1.25e+09
1.25e+09
1.25e+09
1.25e+09
1.25e+09
1.25e+09
1.25e+09
1.25e+09
1.25e+09
1.25e+09
1.25e+09
1.25e+09
1.25e+09
1.25e+09
1.25e+09
1.25e+09
1.25e+09
1.25e+09
1.25e+09
1.25e+09
1.25e+09
1.25e+09
1.25e+09
1.25e+09
1.25e+09
1.25e+09
1.25e+09
1.25e+09
1.25e+09
1.25e+09
1.25e+09
1.25e+09
1.25e+09
1.25e+09
1.25e+09
1.25e+09
1.25e+09
1.25e+09
1.25e+09
1.25e+09
1.25e+09
1.25e+09
1.25e+09
1.25e+09
1.25e+09
1.25e+09
1.25e+09
1.25e+09
1.25e+09
1.25e+09
1.25e+09
1.25e+09
1.25e+09
1.25e+09
1.25e+09
1.25e+09
1.25e+09
1.25e+09
1.25e+09
1.25e+09
1.25e+09
1.25e+09
1.25e+09
1.25e+09
1.25e+09
1.25e+09
1.25e+09
1.25e+09
1.25e+09
1.25e+09
1.25e+09
1.25e+09
1.25e+09
1.25e+09
1.25e+09
1.25e+09
1.25e+09
1.25e+09
1.25e+09
1.25e+09
1.25e+09
1.25e+09
1.25e+09
1.25e+09
1.25e+09
1.25e+09
1.25e+09
1.25e+09
1.25e+09
1.25e+09
1.25e+09
1.25e+09
1.25e+09
1.25e+09
1.25e+09
1.25e+09
1.25e+09
1.25e+09
1.25e+09
1.25e+09
1.25e+09
1.25e+09
1.25e+09
1.25e+09
1.25e+09
1.25e+09
1.25e+09
1.25e+09
1.25e+09
1.25e+09
1.25e+09
1.25e+09
1.25e+09
1.25e+09
1.25e+09
1.25e+09
1.25e+09
1.25e+09
1.25e+09
1.25e+09
1.25e+09
1.25e+09
1.25e+09
1.25e+09
1.25e+09
1.25e+09
1.25e+09
1.25e+09
1.25e+09
1.25e+09
1.25e+09
1.25e+09
1.25e+09
1.25e+09
1.25e+09
1.25e+09
1.25e+09
1.25e+09
1.25e+09
1.25e+09
1.25e+09
1.25e+09
1.25e+09
1.25e+09
1.25e+09
1.25e+09
1.25e+09
1.25e+09
1.25e+09
1.25e+09
1.25e+09
1.25e+09
1.25e+09
1.25e+09
1.25e+09
1.25e+09
1.25e+09
1.25e+09
1.25e+09
1.25e+09
1.25e+09
1.25e+09
1.25e+09
1.25e+09
1.25e+09
1.25e+09
1.25e+09
1.25e+09
1.25e+09
1.25e+09
1.25e+09
1.25e+09
1.25e+09
1.25e+09
1.25e+09
1.25e+09
1.25e+09
1.25e+09
1.25e+09
1.25e+09
1.25e+09
1.25e+09
1.25e+09
1.25e+09
1.25e+09
1.25e+09
1.25e+09
1.25e+09
1.25e+09
1.25e+09
1.25e+09
1.25e+09
1.25e+09
1.25e+09
1.25e+09
1.25e+09
1.25e+09
1.25e+09
1.25e+09
1.25e+09
1.25e+09
1.25e+09
1.25e+09
1.25e+09
1.25e+09
1.25e+09
1.25e+09
1.25e+09
1.25e+09
1.25e+09
1.25e+09
1.25e+09
1.25e+09
1.25e+09
1.25e+09
1.25e+09
1.25e+09
1.25e+09
1.25e+09
1.25e+09
1.25e+09
1.25e+09
1.25e+09
1.25e+09
1.25e+09
1.25e+09
1.25e+09
1.25e+09
1.25e+09
1.25e+09
1.25e+09
1.25e+09
1.25e+09
1.25e+09
1.25e+09
1.25e+09
1.25e+09
1.25e+09
1.25e+09
1.25e+09
1.25e+09
1.25e+09
1.25e+09
1.25e+09
1.25e+09
1.25e+09
1.25e+09
1.25e+09
1.25e+09
1.25e+09
1.25e+09
1.25e+09
1.25e+09
1.25e+09
1.25e+09
1.25e+09
1.25e+09
1.25e+09
1.25e+09
1.25e+09
1.25e+09
1.25e+09
1.25e+09
1.25e+09
1.25e+09
1.25e+09
1.25e+09
1.25e+09
1.25e+09
1.25e+09
1.25e+09
1.25e+09
1.25e+09
1.25e+09
)
;

boundaryField
{
    wireUpstream
    {
        type            calculated;
        value           uniform 1.25e+09;
    }
    wireDownstream
    {
        type            calculated;
        value           nonuniform List<scalar> 
16
(
1.25512e+09
1.25514e+09
1.25516e+09
1.25518e+09
1.25521e+09
1.25523e+09
1.25525e+09
1.25525e+09
1.25523e+09
1.25516e+09
1.25505e+09
1.25482e+09
1.25449e+09
1.25396e+09
1.25333e+09
1.25512e+09
)
;
    }
    wireTopContact
    {
        type            calculated;
        value           nonuniform List<scalar> 
122
(
1.25334e+09
1.25338e+09
1.25342e+09
1.25345e+09
1.25349e+09
1.25353e+09
1.25356e+09
1.2536e+09
1.25364e+09
1.25367e+09
1.25371e+09
1.25374e+09
1.25378e+09
1.25382e+09
1.25385e+09
1.25389e+09
1.25392e+09
1.25396e+09
1.254e+09
1.25403e+09
1.25407e+09
1.25411e+09
1.25414e+09
1.25418e+09
1.25422e+09
1.25425e+09
1.25429e+09
1.25433e+09
1.25437e+09
1.2544e+09
1.25444e+09
1.25448e+09
1.25452e+09
1.25456e+09
1.2546e+09
1.25464e+09
1.25468e+09
1.25472e+09
1.25476e+09
1.2548e+09
1.25484e+09
1.25488e+09
1.25492e+09
1.25496e+09
1.255e+09
1.25504e+09
1.25508e+09
1.25512e+09
1.25516e+09
1.2552e+09
1.25524e+09
1.25527e+09
1.25531e+09
1.25535e+09
1.25536e+09
1.25532e+09
1.25522e+09
1.25502e+09
1.25463e+09
1.25416e+09
1.25368e+09
1.2532e+09
1.25274e+09
1.25229e+09
1.25187e+09
1.25145e+09
1.25102e+09
1.25056e+09
1.25017e+09
1.25e+09
1.25e+09
1.25e+09
1.25e+09
1.25e+09
1.25e+09
1.25e+09
1.25e+09
1.25e+09
1.25e+09
1.25e+09
1.25e+09
1.25e+09
1.25e+09
1.25e+09
1.25e+09
1.25e+09
1.25e+09
1.25e+09
1.25e+09
1.25e+09
1.25e+09
1.25e+09
1.25e+09
1.25e+09
1.25e+09
1.25e+09
1.25e+09
1.25e+09
1.25e+09
1.25e+09
1.25e+09
1.25e+09
1.25e+09
1.25e+09
1.25e+09
1.25e+09
1.25e+09
1.25e+09
1.25e+09
1.25e+09
1.25e+09
1.25e+09
1.25e+09
1.25e+09
1.25e+09
1.25e+09
1.25e+09
1.25e+09
1.25e+09
1.25e+09
1.25e+09
1.25331e+09
)
;
    }
    front
    {
        type            wedge;
    }
    back
    {
        type            wedge;
    }
}


// ************************************************************************* //
