/*--------------------------------*- C++ -*----------------------------------*\
| =========                 |                                                 |
| \\      /  F ield         | OpenFOAM: The Open Source CFD Toolbox           |
|  \\    /   O peration     | Version:  4.1                                   |
|   \\  /    A nd           | Web:      www.OpenFOAM.org                      |
|    \\/     M anipulation  |                                                 |
\*---------------------------------------------------------------------------*/
FoamFile
{
    version     2.0;
    format      ascii;
    class       surfaceScalarField;
    location    "0.0086";
    object      phi;
}
// * * * * * * * * * * * * * * * * * * * * * * * * * * * * * * * * * * * * * //

dimensions      [0 3 -1 0 0 0 0];

internalField   nonuniform List<scalar> 
4288
(
1.405e-09
-3.3029e-11
-3.371e-11
-7.5742e-11
-7.719e-11
1.2752e-09
-8.7868e-11
-8.88e-11
2.7137e-11
2.5959e-11
1.3124e-09
-1.2527e-10
-1.2599e-10
1.6076e-10
1.5977e-10
1.5451e-09
-1.496e-10
-1.5153e-10
2.1265e-10
2.1057e-10
1.8768e-09
-1.6832e-10
-1.7007e-10
2.4237e-10
2.4046e-10
2.2224e-09
-1.1475e-10
-1.1648e-10
1.8525e-10
1.8345e-10
2.5468e-09
-1.4614e-11
-1.6049e-11
5.6242e-11
5.4596e-11
2.8195e-09
1.1679e-10
1.1549e-10
-1.1583e-10
-1.1736e-10
2.9834e-09
1.6879e-10
1.6771e-10
-1.9275e-10
-1.9426e-10
2.9825e-09
8.9018e-11
8.8147e-11
-1.0662e-10
-1.08e-10
2.5625e-09
-4.9425e-10
-4.9496e-10
6.2999e-10
6.2868e-10
-7.2691e-10
-7.272e-10
8.922e-10
8.9189e-10
1.4453e-09
1.4162e-10
2.3778e-10
-6.7454e-10
1.2873e-09
4.7796e-11
1.429e-10
-4.0481e-10
1.3303e-09
-3.5818e-11
1.7515e-11
-6.3507e-11
1.556e-09
-1.2155e-10
-8.7774e-11
1.821e-10
1.8699e-09
-1.4501e-10
-1.2968e-10
2.7427e-10
2.2111e-09
-1.1543e-10
-1.0469e-10
2.6242e-10
2.5386e-09
-5.2944e-11
-2.6678e-11
1.6233e-10
2.8258e-09
3.8319e-11
7.0538e-11
1.3708e-11
3.0081e-09
7.5701e-11
1.2862e-10
-8.4283e-11
3.0229e-09
3.4931e-11
5.1903e-11
-3.235e-11
2.594e-09
-3.1459e-10
-4.4297e-10
5.5697e-10
-4.8062e-10
-6.6517e-10
8.0404e-10
1.485e-09
5.7171e-11
3.2762e-10
-5.3736e-10
1.3257e-09
5.0006e-12
1.495e-10
-2.5341e-10
1.3641e-09
-3.6702e-11
-1.7496e-11
5.4954e-11
1.5699e-09
-8.5878e-11
-1.3974e-10
2.4574e-10
1.8769e-09
-9.6694e-11
-1.8907e-10
3.2444e-10
2.2167e-09
-7.8624e-11
-1.6852e-10
3.0561e-10
2.5447e-09
-4.3123e-11
-9.3421e-11
1.9866e-10
2.8367e-09
5.1157e-12
3.5168e-12
4.8741e-11
3.0236e-09
2.7005e-11
6.5279e-11
-5.3361e-11
3.0394e-09
9.4184e-12
3.4857e-12
9.0253e-13
2.619e-09
-1.6949e-10
-4.647e-10
6.1562e-10
-2.4613e-10
-6.7459e-10
8.4404e-10
1.5066e-09
-2.4179e-13
3.6794e-10
-6.2146e-10
1.3442e-09
-4.149e-13
1.9855e-10
-3.4723e-10
1.3739e-09
-3.0244e-13
2.7241e-11
-2.4103e-11
1.5741e-09
-2.709e-13
-1.1356e-10
1.7474e-10
1.8772e-09
-2.1353e-13
-1.6946e-10
2.648e-10
2.217e-09
-8.3204e-15
-1.5605e-10
2.589e-10
2.5463e-09
1.3469e-13
-8.8998e-11
1.6864e-10
2.8397e-09
3.2419e-13
-5.2778e-12
3.687e-11
3.0297e-09
4.4301e-13
6.1335e-11
-6.6141e-11
3.0469e-09
4.3029e-13
-2.2278e-12
-3.9773e-12
2.6254e-09
4.3668e-13
-4.4435e-10
5.7726e-10
1.6504e-13
-6.5817e-10
8.2482e-10
1.5066e-09
-5.756e-11
3.6794e-10
-6.2155e-10
1.3442e-09
-5.9724e-12
1.9857e-10
-3.4713e-10
1.3739e-09
3.6056e-11
2.7112e-11
-2.3875e-11
1.5741e-09
8.5401e-11
-1.1341e-10
1.7445e-10
1.8773e-09
9.6381e-11
-1.6936e-10
2.6454e-10
2.217e-09
7.8751e-11
-1.5623e-10
2.5896e-10
2.5463e-09
4.3325e-11
-8.9024e-11
1.6872e-10
2.8397e-09
-4.6767e-12
-5.3342e-12
3.7124e-11
3.0297e-09
-2.6375e-11
6.1215e-11
-6.5769e-11
3.0469e-09
-8.8737e-12
-2.3621e-12
-3.5075e-12
2.6253e-09
1.7024e-10
-4.4446e-10
5.775e-10
2.4638e-10
-6.5822e-10
8.2495e-10
1.485e-09
-1.4144e-10
3.2762e-10
-5.3784e-10
1.3258e-09
-4.8143e-11
1.4966e-10
-2.542e-10
1.3642e-09
3.5454e-11
-1.7268e-11
5.4402e-11
1.5699e-09
1.2136e-10
-1.3964e-10
2.453e-10
1.8769e-09
1.4507e-10
-1.8889e-10
3.2383e-10
2.2168e-09
1.1562e-10
-1.6821e-10
3.051e-10
2.5448e-09
5.3068e-11
-9.3608e-11
1.9893e-10
2.8368e-09
-3.8166e-11
3.1949e-12
4.9289e-11
3.0236e-09
-7.5364e-11
6.4864e-11
-5.2605e-11
3.0394e-09
-3.4787e-11
3.1069e-12
1.6959e-12
2.6189e-09
3.1503e-10
-4.6504e-10
6.1641e-10
4.8063e-10
-6.7475e-10
8.4446e-10
1.4453e-09
3.3221e-11
2.3762e-10
-6.7445e-10
1.2873e-09
8.7932e-11
1.4292e-10
-4.0529e-10
1.3303e-09
1.2566e-10
1.7369e-11
-6.4193e-11
1.556e-09
1.4989e-10
-8.8168e-11
1.8188e-10
1.8699e-09
1.6841e-10
-1.298e-10
2.742e-10
2.2112e-09
1.148e-10
-1.0491e-10
2.6265e-10
2.5386e-09
1.4619e-11
-2.6761e-11
1.6247e-10
2.8258e-09
-1.1682e-10
7.0362e-11
1.3972e-11
3.0081e-09
-1.6867e-10
1.284e-10
-8.3922e-11
3.023e-09
-8.91e-11
5.1656e-11
-3.1916e-11
2.5939e-09
4.9438e-10
-4.4324e-10
5.5761e-10
7.2674e-10
-6.6527e-10
8.0435e-10
1.4051e-09
-3.4002e-11
-7.5964e-11
-7.696e-11
1.2752e-09
-8.9072e-11
2.6908e-11
2.6519e-11
1.3126e-09
-1.2612e-10
1.6065e-10
1.5998e-10
1.5452e-09
-1.5187e-10
2.1287e-10
2.1086e-10
1.8768e-09
-1.7027e-10
2.4242e-10
2.405e-10
2.2224e-09
-1.1685e-10
1.8539e-10
1.8347e-10
2.5469e-09
-1.6361e-11
5.6467e-11
5.4493e-11
2.8195e-09
1.1529e-10
-1.1573e-10
-1.1742e-10
2.9834e-09
1.6749e-10
-1.9266e-10
-1.9409e-10
2.9825e-09
8.8067e-11
-1.0666e-10
-1.0793e-10
2.5624e-09
-4.9509e-10
6.2991e-10
6.2912e-10
-7.2707e-10
8.9221e-10
8.9165e-10
1.4451e-09
2.3891e-10
1.4093e-10
-6.7614e-10
1.2871e-09
1.4443e-10
4.6732e-11
-4.0645e-10
1.3301e-09
2.0142e-11
-3.7262e-11
-6.5392e-11
1.5558e-09
-8.5686e-11
-1.2259e-10
1.7943e-10
1.8698e-09
-1.2715e-10
-1.4607e-10
2.7145e-10
2.211e-09
-1.0242e-10
-1.1647e-10
2.6012e-10
2.5386e-09
-2.4436e-11
-5.3905e-11
1.6007e-10
2.8257e-09
7.2602e-11
3.7507e-11
1.1554e-11
3.0082e-09
1.3032e-10
7.5024e-11
-8.6185e-11
3.0231e-09
5.3225e-11
3.441e-11
-3.3818e-11
2.5941e-09
-4.4203e-10
-3.1501e-10
5.5586e-10
-6.6485e-10
-4.8078e-10
8.0367e-10
1.5248e-09
1.4978e-10
1.4932e-10
1.3416e-09
9.9784e-11
9.8772e-11
1.4015e-09
1.3087e-11
1.1885e-11
1.6178e-09
-5.5575e-11
-5.7572e-11
1.923e-09
-8.0947e-11
-8.2901e-11
2.2585e-09
-6.1239e-11
-6.2884e-11
2.5817e-09
-6.7186e-12
-8.2303e-12
2.8658e-09
5.4083e-11
5.2761e-11
3.0429e-09
9.7027e-11
9.5935e-11
3.0506e-09
3.7845e-11
3.6947e-11
2.6231e-09
-2.9207e-10
-2.9274e-10
-4.4713e-10
-4.4737e-10
1.5735e-09
5.0912e-11
2.3072e-10
1.3927e-09
1.6373e-11
1.2759e-10
1.4344e-09
-2.4016e-11
1.3546e-11
1.6319e-09
-4.667e-11
-7.6308e-11
1.9284e-09
-5.7391e-11
-1.1232e-10
2.2625e-09
-4.4968e-11
-9.7085e-11
2.5888e-09
-1.4146e-11
-4.6405e-11
2.8697e-09
1.7898e-11
1.4898e-11
3.0535e-09
4.2091e-11
5.6577e-11
3.0596e-09
1.367e-11
8.3625e-12
2.6436e-09
-1.6312e-10
-2.9694e-10
-2.3293e-10
-4.5315e-10
1.5989e-09
-1.2313e-13
2.1925e-10
1.4124e-09
-2.2207e-13
1.082e-10
1.4466e-09
-9.6847e-14
-9.3248e-13
1.6388e-09
-3.9499e-14
-8.5793e-11
1.93e-09
-5.2113e-14
-1.2168e-10
2.263e-09
-1.659e-14
-1.1021e-10
2.5903e-09
1.5421e-14
-6.0931e-11
2.8708e-09
7.8678e-14
-7.3446e-12
3.056e-09
1.6036e-13
4.3156e-11
3.0627e-09
1.5074e-13
-3.703e-12
2.6462e-09
1.5659e-13
-3.0623e-10
2.7157e-14
-4.5095e-10
1.5989e-09
-5.1171e-11
2.1929e-10
1.4124e-09
-1.6817e-11
1.0825e-10
1.4466e-09
2.3851e-11
-1.0549e-12
1.6388e-09
4.6799e-11
-8.5791e-11
1.93e-09
5.7322e-11
-1.2164e-10
2.263e-09
4.4871e-11
-1.1037e-10
2.5903e-09
1.4214e-11
-6.0945e-11
2.8708e-09
-1.7752e-11
-7.37e-12
3.056e-09
-4.1803e-11
4.3086e-11
3.0627e-09
-1.3447e-11
-3.7544e-12
2.6462e-09
1.6341e-10
-3.0632e-10
2.3296e-10
-4.5098e-10
1.5735e-09
-1.5001e-10
2.3071e-10
1.3927e-09
-1.0013e-10
1.2772e-10
1.4345e-09
-1.335e-11
1.3892e-11
1.6319e-09
5.6034e-11
-7.6438e-11
1.9283e-09
8.1095e-11
-1.1229e-10
2.2624e-09
6.1307e-11
-9.6906e-11
2.5888e-09
6.7873e-12
-4.6589e-11
2.8697e-09
-5.4006e-11
1.4613e-11
3.0535e-09
-9.6844e-11
5.6299e-11
3.0596e-09
-3.77e-11
8.0948e-12
2.6436e-09
2.9238e-10
-2.9725e-10
4.4716e-10
-4.533e-10
1.5248e-09
-2.3922e-10
1.4922e-10
1.3416e-09
-1.4471e-10
9.8801e-11
1.4014e-09
-2.05e-11
1.2012e-11
1.6178e-09
8.5606e-11
-5.7483e-11
1.9229e-09
1.2706e-10
-8.2653e-11
2.2584e-09
1.0226e-10
-6.2858e-11
2.5817e-09
2.4427e-11
-8.2597e-12
2.8658e-09
-7.2624e-11
5.2675e-11
3.0429e-09
-1.3023e-10
9.5798e-11
3.0506e-09
-5.3166e-11
3.6827e-11
2.6231e-09
4.4233e-10
-2.9299e-10
6.6489e-10
-4.4747e-10
1.4451e-09
1.4058e-10
-6.7665e-10
1.2871e-09
4.6849e-11
-4.0713e-10
1.3302e-09
-3.7126e-11
-6.6145e-11
1.5558e-09
-1.2252e-10
1.7898e-10
1.8698e-09
-1.4568e-10
2.7073e-10
2.2109e-09
-1.1665e-10
2.5971e-10
2.5386e-09
-5.4132e-11
1.5988e-10
2.8258e-09
3.7226e-11
1.1519e-11
3.0082e-09
7.4723e-11
-8.6012e-11
3.0231e-09
3.4217e-11
-3.3673e-11
2.594e-09
-3.1553e-10
5.5672e-10
-4.8088e-10
8.0398e-10
1.4849e-09
3.2927e-10
5.573e-11
-5.3876e-10
1.3256e-09
1.5154e-10
3.4032e-12
-2.5512e-10
1.3641e-09
-1.5513e-11
-3.8343e-11
5.3309e-11
1.5698e-09
-1.3743e-10
-8.71e-11
2.4417e-10
1.8768e-09
-1.8678e-10
-9.7655e-11
3.2284e-10
2.2166e-09
-1.6608e-10
-7.9677e-11
3.0389e-10
2.5447e-09
-9.1204e-11
-4.4039e-11
1.9708e-10
2.8368e-09
5.6802e-12
4.2734e-12
4.7135e-11
3.0239e-09
6.705e-11
2.6341e-11
-5.4801e-11
3.0397e-09
4.7994e-12
8.8903e-12
-1.1549e-13
2.6192e-09
-4.639e-10
-1.6983e-10
6.1502e-10
-6.7438e-10
-2.4621e-10
8.439e-10
1.5733e-09
2.3195e-10
5.003e-11
1.3925e-09
1.2923e-10
1.5336e-11
1.4343e-09
1.563e-11
-2.5262e-11
1.6317e-09
-7.4175e-11
-4.7981e-11
1.9281e-09
-1.1007e-10
-5.8645e-11
2.2623e-09
-9.4536e-11
-4.6115e-11
2.5887e-09
-4.415e-11
-1.5064e-11
2.8698e-09
1.701e-11
1.7045e-11
3.0537e-09
5.8333e-11
4.1375e-11
3.0597e-09
9.6563e-12
1.3077e-11
2.6436e-09
-2.9617e-10
-1.6353e-10
-4.5292e-10
-2.3306e-10
1.608e-09
1.2767e-10
1.2667e-10
1.4173e-09
7.2205e-11
7.0966e-11
1.4509e-09
1.0163e-11
8.2565e-12
1.64e-09
-3.6972e-11
-3.8533e-11
1.9309e-09
-5.7035e-11
-5.8151e-11
2.2645e-09
-4.7513e-11
-4.8864e-11
2.594e-09
-2.1127e-11
-2.2606e-11
2.8736e-09
1.0775e-11
9.4344e-12
3.0624e-09
2.9757e-11
2.8583e-11
3.0721e-09
3.5885e-12
2.6964e-12
2.6648e-09
-1.477e-10
-1.4824e-10
-2.304e-10
-2.3054e-10
1.633e-09
-1.2277e-13
1.2248e-10
1.4361e-09
-2.0035e-13
6.3042e-11
1.461e-09
-2.2064e-13
9.116e-13
1.6444e-09
-9.2199e-15
-4.4083e-11
1.9299e-09
-3.5013e-14
-6.414e-11
2.2633e-09
2.0628e-14
-5.7271e-11
2.5948e-09
9.516e-14
-3.0494e-11
2.8758e-09
1.7213e-13
-2.5547e-12
3.0664e-09
2.1839e-13
2.1275e-11
3.0746e-09
1.7991e-13
-4.1486e-12
2.6685e-09
2.038e-13
-1.5326e-10
3.4077e-14
-2.2861e-10
1.633e-09
-1.2782e-10
1.2246e-10
1.436e-09
-7.2572e-11
6.3075e-11
1.461e-09
-1.0748e-11
9.0809e-13
1.6443e-09
3.7017e-11
-4.4081e-11
1.9299e-09
5.6715e-11
-6.3852e-11
2.2634e-09
4.7211e-11
-5.7166e-11
2.5948e-09
2.1364e-11
-3.0485e-11
2.8758e-09
-1.0436e-11
-2.5549e-12
3.0663e-09
-2.939e-11
2.1282e-11
3.0746e-09
-3.2865e-12
-4.1411e-12
2.6685e-09
1.4804e-10
-1.5328e-10
2.3045e-10
-2.2864e-10
1.608e-09
-2.3204e-10
1.266e-10
1.4173e-09
-1.2954e-10
7.1057e-11
1.4509e-09
-1.5872e-11
8.3663e-12
1.6401e-09
7.4049e-11
-3.8531e-11
1.9309e-09
1.0995e-10
-5.8248e-11
2.2644e-09
9.451e-11
-4.8871e-11
2.594e-09
4.4239e-11
-2.2664e-11
2.8737e-09
-1.6799e-11
9.2737e-12
3.0624e-09
-5.7952e-11
2.8337e-11
3.0721e-09
-9.3722e-12
2.4871e-12
2.6648e-09
2.965e-10
-1.4849e-10
4.53e-10
-2.3067e-10
1.5733e-09
-3.2937e-10
5.0023e-11
1.3925e-09
-1.5181e-10
1.5403e-11
1.4342e-09
1.5574e-11
-2.5316e-11
1.6317e-09
1.3729e-10
-4.7899e-11
1.9281e-09
1.8668e-10
-5.8317e-11
2.2623e-09
1.6595e-10
-4.5935e-11
2.5887e-09
9.1193e-11
-1.4981e-11
2.8698e-09
-5.5446e-12
1.7071e-11
3.0537e-09
-6.6658e-11
4.1271e-11
3.0597e-09
-4.5205e-12
1.2982e-11
2.6436e-09
4.6422e-10
-1.6371e-10
6.7446e-10
-2.3314e-10
1.4849e-09
5.5499e-11
-5.3891e-10
1.3256e-09
3.6255e-12
-2.5541e-10
1.3642e-09
-3.8129e-11
5.3204e-11
1.5699e-09
-8.7081e-11
2.4413e-10
1.8767e-09
-9.6989e-11
3.2258e-10
2.2167e-09
-7.9947e-11
3.0373e-10
2.5448e-09
-4.431e-11
1.9712e-10
2.8369e-09
3.7845e-12
4.7462e-11
3.0239e-09
2.5749e-11
-5.4019e-11
3.0397e-09
8.3322e-12
6.1954e-13
2.6191e-09
-1.7057e-10
6.1571e-10
-2.4653e-10
8.4422e-10
1.5066e-09
3.6905e-10
-1.4647e-12
-6.2255e-10
1.3443e-09
1.9998e-10
-1.7844e-12
-3.4872e-10
1.3741e-09
2.9269e-11
-1.6291e-12
-2.621e-11
1.5742e-09
-1.1209e-10
-1.677e-12
1.7404e-10
1.8774e-09
-1.6781e-10
-1.4454e-12
2.6383e-10
2.217e-09
-1.5476e-10
-1.2577e-12
2.5847e-10
2.5464e-09
-8.7752e-11
-9.5705e-13
1.6801e-10
2.8399e-09
-4.0752e-12
-6.8262e-13
3.6221e-11
3.03e-09
6.2395e-11
-4.3227e-13
-6.6747e-11
3.0472e-09
-1.45e-12
-2.3309e-13
-4.3694e-12
2.6256e-09
-4.438e-10
2.8722e-14
5.7694e-10
-6.5801e-10
2.7704e-14
8.2474e-10
1.5988e-09
2.2027e-10
-1.2357e-12
1.4124e-09
1.0965e-10
-1.4295e-12
1.4467e-09
1.1933e-12
-1.2972e-12
1.6387e-09
-8.3954e-11
-1.2807e-12
1.93e-09
-1.198e-10
-1.2005e-12
2.263e-09
-1.0847e-10
-1.091e-12
2.5904e-09
-5.9166e-11
-9.8276e-13
2.871e-09
-5.7388e-12
-8.6342e-13
3.0561e-09
4.459e-11
-6.0383e-13
3.0628e-09
-2.6545e-12
-4.5717e-13
2.6462e-09
-3.0557e-10
-2.0055e-13
-4.5073e-10
-8.0985e-14
1.633e-09
1.2342e-10
-1.188e-12
1.4361e-09
6.4224e-11
-1.3113e-12
1.4609e-09
2.8399e-12
-1.7031e-12
1.6443e-09
-4.2388e-11
-1.2635e-12
1.9299e-09
-6.2112e-11
-1.1589e-12
2.2634e-09
-5.5602e-11
-1.0132e-12
2.5949e-09
-2.8993e-11
-8.7613e-13
2.8759e-09
-1.1787e-12
-7.6587e-13
3.0663e-09
2.2541e-11
-5.4139e-13
3.0745e-09
-3.2173e-12
-4.0293e-13
2.6683e-09
-1.5271e-10
-1.516e-13
-2.2848e-10
-7.9347e-14
1.6549e-09
-1.0676e-13
-1.0915e-12
1.4556e-09
-1.7653e-13
-1.2576e-12
1.4709e-09
-1.7051e-13
-1.6208e-12
1.6476e-09
2.5254e-14
-1.2389e-12
1.9282e-09
6.1782e-14
-1.1476e-12
2.2596e-09
1.8445e-14
-1.0521e-12
2.5952e-09
8.793e-15
-9.8263e-13
2.8784e-09
3.9658e-14
-9.1355e-13
3.0717e-09
9.5082e-14
-7.0898e-13
3.0772e-09
5.7491e-14
-5.6146e-13
2.6721e-09
4.8152e-14
-2.9926e-13
-1.9706e-14
-1.189e-13
1.6548e-09
-1.236e-10
-1.1126e-12
1.4556e-09
-6.4535e-11
-1.248e-12
1.4709e-09
-3.1972e-12
-1.6473e-12
1.6476e-09
4.25e-11
-1.2475e-12
1.9282e-09
6.2551e-11
-1.1485e-12
2.2597e-09
5.5692e-11
-1.0668e-12
2.5952e-09
2.9073e-11
-9.9196e-13
2.8784e-09
1.2921e-12
-9.2957e-13
3.0717e-09
-2.2307e-11
-7.4967e-13
3.0772e-09
3.3643e-12
-5.9701e-13
2.6721e-09
1.5284e-10
-3.3157e-13
2.2845e-10
-1.3977e-13
1.633e-09
-2.2062e-10
-1.1644e-12
1.4361e-09
-1.1e-10
-1.1862e-12
1.4609e-09
-1.4746e-12
-1.5578e-12
1.6443e-09
8.3875e-11
-1.1367e-12
1.9299e-09
1.2009e-10
-1.0367e-12
2.2633e-09
1.0854e-10
-9.5107e-13
2.5948e-09
5.9206e-11
-8.6425e-13
2.8759e-09
5.7845e-12
-8.824e-13
3.0664e-09
-4.4384e-11
-7.3789e-13
3.0745e-09
2.806e-12
-6.2941e-13
2.6684e-09
3.0574e-10
-4.223e-13
4.5075e-10
-2.041e-13
1.5988e-09
-3.6929e-10
-1.3046e-12
1.4124e-09
-2.0037e-10
-1.2758e-12
1.4466e-09
-2.9774e-11
-1.0955e-12
1.6388e-09
1.1178e-10
-1.0223e-12
1.9299e-09
1.6828e-10
-8.4162e-13
2.2629e-09
1.5459e-10
-6.6936e-13
2.5904e-09
8.7582e-11
-6.7673e-13
2.8709e-09
4.0239e-12
-6.9901e-13
3.0561e-09
-6.2265e-11
-5.74e-13
3.0628e-09
1.5429e-12
-4.7865e-13
2.6462e-09
4.4394e-10
-3.1861e-13
6.58e-10
-1.5147e-13
1.5066e-09
-1.4813e-12
-6.2303e-10
1.3442e-09
-1.5279e-12
-3.4908e-10
1.3742e-09
-1.462e-12
-2.6685e-11
1.5743e-09
-1.3813e-12
1.7344e-10
1.8771e-09
-1.2026e-12
2.6514e-10
2.2171e-09
-1.1675e-12
2.5768e-10
2.5464e-09
-1.1142e-12
1.6778e-10
2.8399e-09
-1.2749e-12
3.6305e-11
3.0299e-09
-1.1922e-12
-6.6311e-11
3.0472e-09
-1.0549e-12
-3.9216e-12
2.6256e-09
-7.1767e-13
5.7718e-10
-3.3522e-13
8.248e-10
1.5066e-09
3.6905e-10
-5.8745e-11
-6.224e-10
1.3444e-09
2e-10
-7.2905e-12
-3.4838e-10
1.3742e-09
2.9072e-11
3.496e-11
-2.5747e-11
1.5743e-09
-1.1212e-10
8.3853e-11
1.7404e-10
1.8775e-09
-1.6776e-10
9.4947e-11
2.6368e-10
2.2171e-09
-1.5492e-10
7.7317e-11
2.5851e-10
2.5465e-09
-8.7907e-11
4.2062e-11
1.6831e-10
2.84e-09
-4.1622e-12
-5.8194e-12
3.654e-11
3.0301e-09
6.2101e-11
-2.7353e-11
-6.6255e-11
3.0472e-09
-1.638e-12
-9.5547e-12
-3.9291e-12
2.6256e-09
-4.4396e-10
1.6981e-10
5.7719e-10
-6.5807e-10
2.4619e-10
8.2489e-10
1.5988e-09
2.2032e-10
-5.248e-11
1.4125e-09
1.0964e-10
-1.8107e-11
1.4467e-09
7.11e-13
2.3048e-11
1.6388e-09
-8.3966e-11
4.5483e-11
1.93e-09
-1.1975e-10
5.6367e-11
2.2631e-09
-1.0845e-10
4.3723e-11
2.5904e-09
-5.9314e-11
1.321e-11
2.871e-09
-5.8104e-12
-1.8721e-11
3.0562e-09
4.4346e-11
-4.259e-11
3.0628e-09
-2.7914e-12
-1.4016e-11
2.6462e-09
-3.057e-10
1.6311e-10
-4.5079e-10
2.3288e-10
1.633e-09
1.2341e-10
-1.289e-10
1.4361e-09
6.4255e-11
-7.35e-11
1.4611e-09
2.8406e-12
-1.223e-11
1.6444e-09
-4.246e-11
3.621e-11
1.9299e-09
-6.2071e-11
5.5988e-11
2.2634e-09
-5.566e-11
4.6935e-11
2.5949e-09
-2.9044e-11
2.0818e-11
2.8759e-09
-1.2451e-12
-1.0876e-11
3.0664e-09
2.2413e-11
-2.9766e-11
3.0745e-09
-3.275e-12
-3.5595e-12
2.6684e-09
-1.5276e-10
1.4787e-10
-2.2851e-10
2.3037e-10
1.6549e-09
-9.5758e-14
-1.246e-10
1.4556e-09
-1.4178e-13
-6.544e-11
1.471e-09
-1.6204e-13
-4.2403e-12
1.6477e-09
3.425e-14
4.1654e-11
1.9282e-09
1.0188e-13
6.1989e-11
2.2597e-09
5.3571e-14
5.5076e-11
2.5953e-09
4.0256e-14
2.8509e-11
2.8784e-09
3.9503e-14
7.7684e-13
3.0717e-09
7.6905e-14
-2.2778e-11
3.0772e-09
5.3247e-14
3.0218e-12
2.6721e-09
4.3204e-14
1.5265e-10
-5.3962e-14
2.2838e-10
1.6549e-09
-1.2358e-10
-1.2461e-10
1.4556e-09
-6.4452e-11
-6.5509e-11
1.471e-09
-3.1048e-12
-4.3737e-12
1.6477e-09
4.2761e-11
4.1449e-11
1.9282e-09
6.2796e-11
6.1497e-11
2.2597e-09
5.5982e-11
5.4777e-11
2.5953e-09
2.9375e-11
2.8297e-11
2.8784e-09
1.5451e-12
5.6626e-13
3.0717e-09
-2.2076e-11
-2.3005e-11
3.0772e-09
3.5081e-12
2.8552e-12
2.6722e-09
1.5292e-10
1.5255e-10
2.2844e-10
2.2834e-10
1.6331e-09
-2.2046e-10
-1.2872e-10
1.4362e-09
-1.0969e-10
-7.3432e-11
1.461e-09
-6.564e-13
-1.2321e-11
1.6444e-09
8.4361e-11
3.6022e-11
1.93e-09
1.2055e-10
5.5911e-11
2.2634e-09
1.0899e-10
4.6626e-11
2.5949e-09
5.9816e-11
2.0534e-11
2.8758e-09
6.2994e-12
-1.1326e-11
3.0664e-09
-4.3826e-11
-3.0236e-11
3.0746e-09
3.098e-12
-3.9434e-12
2.6686e-09
3.0587e-10
1.4755e-10
4.5077e-10
2.3024e-10
1.5989e-09
-3.6897e-10
-5.2216e-11
1.4126e-09
-2.0007e-10
-1.7689e-11
1.4468e-09
-2.9346e-11
2.3534e-11
1.639e-09
1.1214e-10
4.5791e-11
1.93e-09
1.6856e-10
5.6583e-11
2.2631e-09
1.5512e-10
4.4074e-11
2.5905e-09
8.8066e-11
1.3544e-11
2.8709e-09
4.3597e-12
-1.8421e-11
3.0561e-09
-6.185e-11
-4.2418e-11
3.0628e-09
1.6954e-12
-1.3931e-11
2.6463e-09
4.4404e-10
1.63e-10
6.5799e-10
2.3278e-10
1.5066e-09
-5.8277e-11
-6.2254e-10
1.3443e-09
-6.7076e-12
-3.4859e-10
1.3742e-09
3.5402e-11
-2.6371e-11
1.5744e-09
8.4386e-11
1.7369e-10
1.8772e-09
9.471e-11
2.6523e-10
2.2171e-09
7.7847e-11
2.5787e-10
2.5464e-09
4.2314e-11
1.6796e-10
2.8399e-09
-5.8422e-12
3.6155e-11
3.0299e-09
-2.7618e-11
-6.6457e-11
3.0471e-09
-9.8847e-12
-4.3733e-12
2.6257e-09
1.6925e-10
5.7707e-10
2.4588e-10
8.2469e-10
1.4849e-09
3.2909e-10
-1.4305e-10
-5.3913e-10
1.3258e-09
1.5164e-10
-4.9655e-11
-2.5604e-10
1.3642e-09
-1.5725e-11
3.4653e-11
5.3045e-11
1.57e-09
-1.3773e-10
1.2014e-10
2.4385e-10
1.877e-09
-1.8706e-10
1.4384e-10
3.2277e-10
2.2168e-09
-1.6645e-10
1.1461e-10
3.0401e-10
2.5449e-09
-9.1649e-11
5.1916e-11
1.9767e-10
2.8371e-09
5.0059e-12
-3.922e-11
4.8119e-11
3.0241e-09
6.656e-11
-7.6309e-11
-5.3902e-11
3.0398e-09
4.3086e-12
-3.5357e-11
7.7738e-13
2.6192e-09
-4.6426e-10
3.148e-10
6.1572e-10
-6.7453e-10
4.8062e-10
8.4424e-10
1.5733e-09
2.3169e-10
-1.5147e-10
1.3927e-09
1.2925e-10
-1.0133e-10
1.4343e-09
1.6078e-11
-1.4327e-11
1.6318e-09
-7.4271e-11
5.4997e-11
1.9282e-09
-1.1033e-10
8.0775e-11
2.2623e-09
-9.5028e-11
6.0933e-11
2.5889e-09
-4.4543e-11
6.4197e-12
2.8699e-09
1.6411e-11
-5.4361e-11
3.0539e-09
5.7946e-11
-9.7163e-11
3.0599e-09
9.2793e-12
-3.7891e-11
2.6437e-09
-2.9651e-10
2.9238e-10
-4.5307e-10
4.4719e-10
1.6081e-09
1.2753e-10
-2.3282e-10
1.4176e-09
7.2168e-11
-1.3002e-10
1.4508e-09
9.9244e-12
-1.6242e-11
1.6401e-09
-3.7111e-11
7.4061e-11
1.9311e-09
-5.7245e-11
1.1025e-10
2.2646e-09
-4.7797e-11
9.5195e-11
2.5942e-09
-2.1454e-11
4.471e-11
2.8738e-09
1.0326e-11
-1.6346e-11
3.0625e-09
2.9364e-11
-5.7646e-11
3.0723e-09
3.212e-12
-9.0898e-12
2.6649e-09
-1.4802e-10
2.9663e-10
-2.3051e-10
4.5302e-10
1.6331e-09
-4.1987e-14
-2.2139e-10
1.4363e-09
-1.3747e-13
-1.1066e-10
1.461e-09
-2.8925e-13
-2.0219e-12
1.6444e-09
-1.359e-13
8.3403e-11
1.93e-09
-2.4028e-13
1.1969e-10
2.2634e-09
-2.2888e-13
1.0821e-10
2.5949e-09
-2.3069e-13
5.9132e-11
2.8759e-09
-2.4231e-13
5.6423e-12
3.0665e-09
-1.9771e-13
-4.4437e-11
3.0746e-09
-1.9382e-13
2.7289e-12
2.6686e-09
-1.4182e-13
3.057e-10
-8.5957e-14
4.5074e-10
1.6331e-09
-1.2771e-10
-2.2156e-10
1.4362e-09
-7.238e-11
-1.109e-10
1.4609e-09
-1.0457e-11
-2.2545e-12
1.6443e-09
3.7177e-11
8.3033e-11
1.9299e-09
5.6946e-11
1.1918e-10
2.2634e-09
4.748e-11
1.0789e-10
2.5949e-09
2.1547e-11
5.8605e-11
2.8759e-09
-1.0414e-11
5.2044e-12
3.0665e-09
-2.9468e-11
-4.4848e-11
3.0746e-09
-3.3286e-12
2.3952e-12
2.6685e-09
1.4791e-10
3.055e-10
2.3038e-10
4.5066e-10
1.6081e-09
-2.3171e-10
-2.3289e-10
1.4176e-09
-1.2904e-10
-1.3042e-10
1.4508e-09
-1.5593e-11
-1.7309e-11
1.6401e-09
7.4866e-11
7.3241e-11
1.931e-09
1.1111e-10
1.0913e-10
2.2645e-09
9.5902e-11
9.3785e-11
2.5941e-09
4.5443e-11
4.3603e-11
2.8738e-09
-1.578e-11
-1.7513e-11
3.0625e-09
-5.7335e-11
-5.8742e-11
3.0723e-09
-8.9379e-12
-9.9106e-12
2.665e-09
2.9662e-10
2.9611e-10
4.5298e-10
4.5284e-10
1.5736e-09
-3.2862e-10
-1.5078e-10
1.3929e-09
-1.5113e-10
-1.0084e-10
1.4344e-09
1.6731e-11
-1.4368e-11
1.6321e-09
1.3837e-10
5.4691e-11
1.9285e-09
1.8794e-10
8.0333e-11
2.2625e-09
1.6727e-10
6.074e-11
2.5889e-09
9.258e-11
6.1882e-12
2.8699e-09
-4.2418e-12
-5.4543e-11
3.0537e-09
-6.5897e-11
-9.7268e-11
3.0598e-09
-3.9937e-12
-3.7992e-11
2.6439e-09
4.6436e-10
2.9209e-10
6.7437e-10
4.4703e-10
1.485e-09
-1.4209e-10
-5.3837e-10
1.3259e-09
-4.8797e-11
-2.554e-10
1.3644e-09
3.5376e-11
5.3673e-11
1.5701e-09
1.2049e-10
2.444e-10
1.877e-09
1.4368e-10
3.2324e-10
2.2168e-09
1.1497e-10
3.0441e-10
2.5449e-09
5.2482e-11
1.9788e-10
2.8369e-09
-3.8802e-11
4.8142e-11
3.0239e-09
-7.6036e-11
-5.3929e-11
3.0397e-09
-3.5153e-11
4.1043e-13
2.6194e-09
3.1445e-10
6.1535e-10
4.8037e-10
8.4388e-10
1.4451e-09
2.3834e-10
3.225e-11
-6.7596e-10
1.2874e-09
1.4432e-10
8.6978e-11
-4.074e-10
1.3303e-09
1.9172e-11
1.2555e-10
-6.6107e-11
1.556e-09
-8.62e-11
1.4946e-10
1.798e-10
1.8699e-09
-1.2799e-10
1.6821e-10
2.7228e-10
2.2112e-09
-1.0306e-10
1.1462e-10
2.6083e-10
2.5388e-09
-2.51e-11
1.4315e-11
1.6078e-10
2.8261e-09
7.194e-11
-1.1722e-10
1.2317e-11
3.0085e-09
1.2969e-10
-1.691e-10
-8.5268e-11
3.0233e-09
5.2698e-11
-8.9251e-11
-3.3019e-11
2.5942e-09
-4.425e-10
4.9443e-10
5.5681e-10
-6.65e-10
7.2688e-10
8.0407e-10
1.5249e-09
1.4937e-10
-2.398e-10
1.3419e-09
9.9514e-11
-1.4509e-10
1.4017e-09
1.3119e-11
-2.0542e-11
1.6179e-09
-5.6146e-11
8.5608e-11
1.9231e-09
-8.1515e-11
1.2762e-10
2.2586e-09
-6.1751e-11
1.0281e-10
2.5819e-09
-7.2559e-12
2.4979e-11
2.8661e-09
5.3562e-11
-7.2148e-11
3.0431e-09
9.6497e-11
-1.2979e-10
3.0509e-09
3.741e-11
-5.2832e-11
2.6233e-09
-2.9251e-10
4.4266e-10
-4.4726e-10
6.6501e-10
1.5736e-09
5.0776e-11
-3.2959e-10
1.393e-09
1.6217e-11
-1.5191e-10
1.4345e-09
-2.4807e-11
1.6235e-11
1.6321e-09
-4.712e-11
1.3762e-10
1.9285e-09
-5.7819e-11
1.8716e-10
2.2626e-09
-4.5378e-11
1.668e-10
2.589e-09
-1.462e-11
9.1916e-11
2.8699e-09
1.7422e-11
-4.7959e-12
3.0538e-09
4.1572e-11
-6.6141e-11
3.0599e-09
1.3245e-11
-4.0866e-12
2.6438e-09
-1.6351e-10
4.6445e-10
-2.3306e-10
6.7448e-10
1.5989e-09
-7.1688e-14
-3.6985e-10
1.4127e-09
-2.1267e-13
-2.0096e-10
1.4468e-09
-4.0033e-13
-3.0263e-11
1.639e-09
-3.8014e-13
1.1135e-10
1.9301e-09
-4.2565e-13
1.678e-10
2.2632e-09
-4.6059e-13
1.5433e-10
2.5905e-09
-4.8868e-13
8.7542e-11
2.871e-09
-4.7875e-13
3.867e-12
3.0562e-09
-3.7814e-13
-6.2284e-11
3.0629e-09
-3.2235e-13
1.4508e-12
2.6464e-09
-2.2415e-13
4.4393e-10
-1.5384e-13
6.5797e-10
1.5988e-09
-5.131e-11
-3.7016e-10
1.4126e-09
-1.686e-11
-2.0126e-10
1.4467e-09
2.4083e-11
-3.0581e-11
1.6388e-09
4.6561e-11
1.1106e-10
1.93e-09
5.7133e-11
1.6741e-10
2.2631e-09
4.4626e-11
1.5419e-10
2.5904e-09
1.3935e-11
8.7094e-11
2.871e-09
-1.8061e-11
3.4263e-12
3.0562e-09
-4.2134e-11
-6.2683e-11
3.0629e-09
-1.3688e-11
1.1078e-12
2.6464e-09
1.6317e-10
4.4375e-10
2.3283e-10
6.579e-10
1.5733e-09
-1.5035e-10
-3.3022e-10
1.3927e-09
-1.0014e-10
-1.5278e-10
1.4343e-09
-1.3554e-11
1.4796e-11
1.6318e-09
5.6192e-11
1.3658e-10
1.9282e-09
8.1606e-11
1.8589e-10
2.2623e-09
6.1757e-11
1.6532e-10
2.5888e-09
7.1987e-12
9.0786e-11
2.8699e-09
-5.3689e-11
-6.0425e-12
3.0538e-09
-9.6634e-11
-6.7269e-11
3.0599e-09
-3.7502e-11
-4.9527e-12
2.6439e-09
2.9239e-10
4.6394e-10
4.4715e-10
6.7429e-10
1.5249e-09
-2.388e-10
-2.3968e-10
1.3418e-09
-1.4425e-10
-1.4535e-10
1.4016e-09
-1.9252e-11
-2.1001e-11
1.618e-09
8.6276e-11
8.5133e-11
1.923e-09
1.2848e-10
1.2684e-10
2.2586e-09
1.036e-10
1.0207e-10
2.5818e-09
2.5752e-11
2.4071e-11
2.866e-09
-7.1409e-11
-7.2882e-11
3.043e-09
-1.2922e-10
-1.3038e-10
3.0509e-09
-5.2407e-11
-5.3237e-11
2.6234e-09
4.4258e-10
4.4219e-10
6.6493e-10
6.6481e-10
1.4453e-09
3.3117e-11
-6.7572e-10
1.2876e-09
8.7877e-11
-4.0701e-10
1.3305e-09
1.2589e-10
-6.5799e-11
1.5562e-09
1.4928e-10
1.8018e-10
1.87e-09
1.6804e-10
2.7241e-10
2.2113e-09
1.1475e-10
2.6116e-10
2.5388e-09
1.4692e-11
1.6118e-10
2.826e-09
-1.1686e-10
1.2609e-11
3.0083e-09
-1.6876e-10
-8.4982e-11
3.0233e-09
-8.8969e-11
-3.2959e-11
2.5944e-09
4.9443e-10
5.5631e-10
7.2676e-10
8.0376e-10
1.4051e-09
-3.4371e-11
-7.6602e-11
-7.6171e-11
1.2754e-09
-8.884e-11
2.6126e-11
2.6316e-11
1.3129e-09
-1.2675e-10
1.607e-10
1.6084e-10
1.5455e-09
-1.5087e-10
2.1091e-10
2.1183e-10
1.8771e-09
-1.6946e-10
2.4077e-10
2.4153e-10
2.2225e-09
-1.1585e-10
1.838e-10
1.8445e-10
2.5472e-09
-1.5454e-11
5.4599e-11
5.5414e-11
2.8199e-09
1.1606e-10
-1.1739e-10
-1.1663e-10
2.9838e-09
1.6828e-10
-1.9418e-10
-1.9364e-10
2.9829e-09
8.8632e-11
-1.0778e-10
-1.0737e-10
2.5626e-09
-4.9452e-10
6.2951e-10
6.2918e-10
-7.2693e-10
8.9204e-10
8.9187e-10
1.4453e-09
1.4081e-10
-6.7661e-10
1.2876e-09
4.7502e-11
-4.0749e-10
1.3306e-09
-3.7e-11
-6.6425e-11
1.5563e-09
-1.2192e-10
1.7937e-10
1.8702e-09
-1.4518e-10
2.7159e-10
2.2113e-09
-1.1613e-10
2.6052e-10
2.5389e-09
-5.3548e-11
1.6063e-10
2.8261e-09
3.7672e-11
1.2215e-11
3.0085e-09
7.5132e-11
-8.5228e-11
3.0233e-09
3.4524e-11
-3.3124e-11
2.5942e-09
-3.1527e-10
5.5731e-10
-4.808e-10
8.0415e-10
1.4851e-09
5.6863e-11
-5.3912e-10
1.3259e-09
5.015e-12
-2.557e-10
1.3645e-09
-3.717e-11
5.3246e-11
1.5702e-09
-8.6088e-11
2.44e-10
1.8771e-09
-9.66e-11
3.2279e-10
2.2169e-09
-7.9126e-11
3.0412e-10
2.545e-09
-4.368e-11
1.9748e-10
2.837e-09
4.2969e-12
4.7989e-11
3.024e-09
2.6152e-11
-5.3621e-11
3.0397e-09
8.6097e-12
9.5523e-13
2.6192e-09
-1.7043e-10
6.159e-10
-2.4647e-10
8.442e-10
1.5067e-09
2.0916e-13
-6.2343e-10
1.3444e-09
-3.5579e-15
-3.4956e-10
1.3744e-09
-9.5925e-14
-2.7599e-11
1.5745e-09
-3.3404e-13
1.7298e-10
1.8774e-09
-4.2411e-13
2.6423e-10
2.2171e-09
-4.3696e-13
2.576e-10
2.5465e-09
-4.8456e-13
1.6769e-10
2.84e-09
-5.9705e-13
3.5974e-11
3.0301e-09
-6.1879e-13
-6.6574e-11
3.0473e-09
-6.3152e-13
-4.1602e-12
2.6257e-09
-4.8954e-13
5.7702e-10
-2.7623e-13
8.247e-10
1.5066e-09
-5.6929e-11
-6.2353e-10
1.3443e-09
-5.3538e-12
-3.4969e-10
1.3743e-09
3.6847e-11
-2.7749e-11
1.5745e-09
8.5368e-11
1.7282e-10
1.8773e-09
9.5657e-11
2.6406e-10
2.2171e-09
7.8407e-11
2.5751e-10
2.5465e-09
4.2817e-11
1.6729e-10
2.84e-09
-5.2938e-12
3.5519e-11
3.0301e-09
-2.7088e-11
-6.7187e-11
3.0473e-09
-9.4367e-12
-4.8701e-12
2.6257e-09
1.6955e-10
5.7683e-10
2.46e-10
8.2458e-10
1.4849e-09
-1.4158e-10
-5.3992e-10
1.3258e-09
-4.8145e-11
-2.567e-10
1.3643e-09
3.6306e-11
5.2256e-11
1.57e-09
1.2124e-10
2.431e-10
1.8769e-09
1.4456e-10
3.2177e-10
2.2167e-09
1.1561e-10
3.0295e-10
2.5448e-09
5.3043e-11
1.9653e-10
2.837e-09
-3.8337e-11
4.6773e-11
3.0241e-09
-7.5614e-11
-5.4951e-11
3.0399e-09
-3.4856e-11
-1.8658e-13
2.6195e-09
3.1475e-10
6.152e-10
4.8053e-10
8.4391e-10
1.4452e-09
3.3402e-11
-6.7705e-10
1.2874e-09
8.8174e-11
-4.0808e-10
1.3303e-09
1.2622e-10
-6.6938e-11
1.5561e-09
1.5045e-10
1.7874e-10
1.8699e-09
1.6916e-10
2.7095e-10
2.2111e-09
1.1567e-10
2.5994e-10
2.5387e-09
1.5477e-11
1.5961e-10
2.826e-09
-1.161e-10
1.1139e-11
3.0085e-09
-1.6823e-10
-8.6131e-11
3.0234e-09
-8.8567e-11
-3.3714e-11
2.5944e-09
4.946e-10
5.5627e-10
7.2683e-10
8.0382e-10
1.4051e-09
-7.6145e-11
-7.6855e-11
1.2754e-09
2.687e-11
2.5911e-11
1.3127e-09
1.6113e-10
1.6046e-10
1.5455e-09
2.1155e-10
2.1047e-10
1.8769e-09
2.4156e-10
2.4045e-10
2.2224e-09
1.8448e-10
1.8361e-10
2.547e-09
5.5504e-11
5.4808e-11
2.8197e-09
-1.1655e-10
-1.1725e-10
2.9837e-09
-1.9358e-10
-1.9396e-10
2.9829e-09
-1.0732e-10
-1.0757e-10
2.5629e-09
6.2901e-10
6.2946e-10
8.9153e-10
8.9201e-10
-8.111e-09
-3.4587e-10
1.8011e-09
-3.6731e-13
-9.1665e-09
-1.6626e-10
1.201e-09
-1.0931e-12
-9.3861e-09
6.0073e-11
-2.6949e-10
-1.9161e-12
-9.2334e-09
-4.311e-11
-1.7981e-10
-2.943e-12
-8.5421e-09
-1.1335e-10
-1.1601e-10
-3.5156e-12
-7.4878e-09
-1.4053e-10
1.1246e-10
-4.1037e-12
-6.1975e-09
-1.6533e-10
2.9972e-10
-4.4016e-12
-4.8425e-09
-1.8202e-10
3.7073e-10
-4.0329e-12
-3.7941e-09
-1.7024e-10
3.9412e-10
-4.1901e-12
-3.3851e-09
-7.7512e-11
2.8589e-10
-5.4092e-12
-3.5463e-09
9.324e-11
-3.9482e-10
-5.2307e-12
1.7835e-10
-4.3383e-10
-3.3911e-12
-9.4532e-09
-4.1843e-10
1.7085e-09
-1.0661e-08
-2.5021e-10
1.1161e-09
-1.0767e-08
7.2929e-11
-2.7005e-10
-1.0535e-08
3.3514e-11
-1.8315e-10
-9.7258e-09
-5.1692e-11
-9.0759e-11
-8.5159e-09
-8.6465e-11
1.3934e-10
-7.0623e-09
-1.1747e-10
3.1506e-10
-5.5885e-09
-1.252e-10
3.4608e-10
-4.4546e-09
-1.2596e-10
2.7695e-10
-4.0576e-09
-1.05e-10
6.8814e-11
-4.32e-09
-1.0756e-11
-7.1709e-10
3.2921e-11
-1.0006e-09
-1.055e-08
-2.519e-10
1.7418e-09
-1.2009e-08
-1.2227e-10
1.1628e-09
-1.2085e-08
6.0991e-11
-2.5001e-10
-1.1702e-08
2.6044e-11
-1.7362e-10
-1.0739e-08
-1.9551e-11
-7.9009e-11
-9.3766e-09
-3.4085e-11
1.7184e-10
-7.7865e-09
-4.2284e-11
3.6421e-10
-6.1882e-09
-5.2483e-11
4.1525e-10
-4.9975e-09
-4.1786e-11
3.5274e-10
-4.6455e-09
-1.8149e-12
1.1849e-10
-5.0658e-09
5.2311e-11
-6.8332e-10
1.1558e-10
-1.1187e-09
-1.1141e-08
-3.3489e-13
1.7389e-09
-1.2654e-08
-3.3176e-13
1.1631e-09
-1.2709e-08
-4.2077e-13
-2.2753e-10
-1.2278e-08
-2.4292e-13
-1.8811e-10
-1.1252e-08
3.4243e-14
-8.6501e-11
-9.8309e-09
3.6363e-13
1.7767e-10
-8.1783e-09
7.431e-13
3.7579e-10
-6.5365e-09
8.147e-13
4.1383e-10
-5.3041e-09
8.9145e-13
3.3668e-10
-4.9135e-09
2.5e-13
1.096e-10
-5.3526e-09
6.2137e-13
-6.9952e-10
6.8521e-14
-1.0497e-09
-1.1141e-08
2.5126e-10
1.7389e-09