/*--------------------------------*- C++ -*----------------------------------*\
| =========                 |                                                 |
| \\      /  F ield         | OpenFOAM: The Open Source CFD Toolbox           |
|  \\    /   O peration     | Version:  4.1                                   |
|   \\  /    A nd           | Web:      www.OpenFOAM.org                      |
|    \\/     M anipulation  |                                                 |
\*---------------------------------------------------------------------------*/
FoamFile
{
    version     2.0;
    format      ascii;
    class       pointVectorField;
    location    "0.0086";
    object      pointDisplacement_Next;
}
// * * * * * * * * * * * * * * * * * * * * * * * * * * * * * * * * * * * * * //

dimensions      [0 1 0 0 0 0 0];

internalField   uniform (0 0 0);

boundaryField
{
    inlet
    {
        type            fixedValue;
        value           uniform (0 0 0);
    }
    outlet
    {
        type            fixedValue;
        value           nonuniform 0();
    }
    mantle
    {
        type            fixedValue;
        value           nonuniform List<vector> 
416
(
(4.4269e-12 -2.2448e-12 -6.8734e-18)
(1.1098e-05 -5.4437e-06 -3.0197e-12)
(1.0939e-05 -4.97e-06 7.7059e-07)
(1.7912e-08 -4.6269e-08 -3.685e-08)
(1.0783e-05 -4.2765e-06 1.7705e-06)
(5.3221e-12 -4.5895e-12 1.742e-12)
(1.0942e-05 -4.0544e-06 2.9647e-06)
(1.8042e-08 -6.3107e-09 5.8713e-08)
(1.1102e-05 -3.8427e-06 3.8426e-06)
(3.0655e-12 1.2878e-12 -1.2878e-12)
(1.0942e-05 -2.9648e-06 4.0545e-06)
(1.8043e-08 -5.8712e-08 6.3095e-09)
(1.0783e-05 -1.7705e-06 4.2767e-06)
(5.3221e-12 -1.7419e-12 4.5896e-12)
(1.0939e-05 -7.7068e-07 4.9703e-06)
(1.791e-08 3.6847e-08 4.6267e-08)
(1.1098e-05 -1.5254e-11 5.4442e-06)
(4.4268e-12 2.558e-17 2.245e-12)
(1.9497e-05 -6.5855e-06 3.5491e-11)
(1.9135e-05 -5.674e-06 8.0313e-07)
(1.8859e-05 -4.6679e-06 1.9326e-06)
(1.914e-05 -4.5699e-06 3.4359e-06)
(1.9503e-05 -4.6432e-06 4.6431e-06)
(1.914e-05 -3.436e-06 4.5699e-06)
(1.8858e-05 -1.9328e-06 4.6682e-06)
(1.9135e-05 -8.0332e-07 5.6745e-06)
(1.9496e-05 -1.1184e-10 6.5864e-06)
(2.3656e-05 -1.122e-06 1.1544e-10)
(2.3497e-05 -8.2553e-07 -1.0796e-08)
(2.3348e-05 -4.5311e-07 1.8816e-07)
(2.3501e-05 -5.6065e-07 5.8164e-07)
(2.3662e-05 -7.7508e-07 7.7507e-07)
(2.3501e-05 -5.8174e-07 5.6079e-07)
(2.3348e-05 -1.8834e-07 4.5347e-07)
(2.3496e-05 1.0607e-08 8.2623e-07)
(2.3655e-05 -1.6191e-10 1.1232e-06)
(2.5907e-05 5.1537e-06 2.0253e-10)
(2.5955e-05 4.8321e-06 -9.6658e-07)
(2.5932e-05 4.5296e-06 -1.8747e-06)
(2.5961e-05 4.1249e-06 -2.7476e-06)
(2.5915e-05 3.6723e-06 -3.6723e-06)
(2.596e-05 2.7476e-06 -4.1248e-06)
(2.5932e-05 1.8746e-06 -4.5293e-06)
(2.5954e-05 9.6645e-07 -4.8315e-06)
(2.5906e-05 -2.1641e-10 -5.1526e-06)
(2.9017e-05 6.4754e-06 2.5467e-10)
(2.8999e-05 6.3664e-06 -1.2989e-06)
(2.8973e-05 6.0591e-06 -2.5093e-06)
(2.9011e-05 5.4622e-06 -3.6096e-06)
(2.9034e-05 4.6285e-06 -4.6284e-06)
(2.9011e-05 3.6096e-06 -5.4622e-06)
(2.8973e-05 2.5093e-06 -6.0591e-06)
(2.8999e-05 1.2988e-06 -6.3662e-06)
(2.9017e-05 -3.0911e-10 -6.4747e-06)
(3.2971e-05 4.3673e-06 2.747e-10)
(3.2868e-05 4.5957e-06 -1.0248e-06)
(3.2791e-05 4.6007e-06 -1.9024e-06)
(3.2886e-05 4.0426e-06 -2.5658e-06)
(3.2997e-05 3.1684e-06 -3.1684e-06)
(3.2886e-05 2.5659e-06 -4.0428e-06)
(3.2791e-05 1.9024e-06 -4.6011e-06)
(3.2868e-05 1.0247e-06 -4.5961e-06)
(3.2971e-05 -4.1364e-10 -4.3674e-06)
(3.6843e-05 2.2063e-06 2.9585e-10)
(3.6796e-05 2.3576e-06 -5.6397e-07)
(3.6756e-05 2.4565e-06 -1.0068e-06)
(3.6814e-05 2.1654e-06 -1.3207e-06)
(3.6869e-05 1.6742e-06 -1.6743e-06)
(3.6813e-05 1.3209e-06 -2.1659e-06)
(3.6755e-05 1.007e-06 -2.4573e-06)
(3.6795e-05 5.6399e-07 -2.3587e-06)
(3.6843e-05 -4.8703e-10 -2.2073e-06)
(4.0587e-05 4.5651e-07 2.8711e-10)
(4.0594e-05 5.0942e-07 -1.3416e-07)
(4.0601e-05 6.1029e-07 -2.3829e-07)
(4.0608e-05 5.8182e-07 -3.3365e-07)
(4.0606e-05 4.7096e-07 -4.7107e-07)
(4.0608e-05 3.3388e-07 -5.8248e-07)
(4.06e-05 2.3858e-07 -6.1151e-07)
(4.0594e-05 1.3427e-07 -5.11e-07)
(4.0586e-05 -5.0017e-10 -4.582e-07)
(4.4422e-05 -1.1148e-06 8.2845e-10)
(4.4426e-05 -1.0452e-06 1.8892e-07)
(4.4434e-05 -8.8563e-07 3.6843e-07)
(4.4432e-05 -7.3581e-07 5.1339e-07)
(4.4431e-05 -6.209e-07 6.1987e-07)
(4.4432e-05 -5.1316e-07 7.3503e-07)
(4.4434e-05 -3.681e-07 8.8422e-07)
(4.4425e-05 -1.8876e-07 1.0432e-06)
(4.4422e-05 -1.04e-09 1.1126e-06)
(4.8315e-05 -2.0915e-06 1.1832e-10)
(4.8308e-05 -1.9977e-06 3.9679e-07)
(4.8291e-05 -1.7908e-06 7.3301e-07)
(4.831e-05 -1.5522e-06 1.0251e-06)
(4.8312e-05 -1.2974e-06 1.2972e-06)
(4.831e-05 -1.0249e-06 1.5513e-06)
(4.8291e-05 -7.327e-07 1.7893e-06)
(4.8308e-05 -3.9662e-07 1.9957e-06)
(4.8315e-05 -3.3225e-10 2.089e-06)
(5.2198e-05 -1.9367e-06 1.123e-10)
(5.2179e-05 -1.8851e-06 3.9374e-07)
(5.216e-05 -1.7247e-06 7.1785e-07)
(5.2167e-05 -1.4646e-06 9.5725e-07)
(5.2181e-05 -1.1889e-06 1.1887e-06)
(5.2167e-05 -9.5716e-07 1.4637e-06)
(5.216e-05 -7.1757e-07 1.7233e-06)
(5.2179e-05 -3.9359e-07 1.8831e-06)
(5.2198e-05 -3.4201e-10 1.9341e-06)
(5.6086e-05 -5.4286e-07 -5.4676e-11)
(5.6066e-05 -5.5234e-07 1.4676e-07)
(5.6042e-05 -5.1786e-07 2.3351e-07)
(5.6038e-05 -3.6779e-07 2.2251e-07)
(5.6047e-05 -2.34e-07 2.3366e-07)
(5.6038e-05 -2.225e-07 3.6705e-07)
(5.6042e-05 -2.3331e-07 5.1662e-07)
(5.6066e-05 -1.4664e-07 5.5048e-07)
(5.6086e-05 -1.6423e-10 5.4035e-07)
(1.0939e-05 7.7075e-07 4.9707e-06)
(1.791e-08 -3.6857e-08 4.6267e-08)
(1.0783e-05 1.7709e-06 4.2773e-06)
(5.3221e-12 1.7422e-12 4.5897e-12)
(1.0942e-05 2.9655e-06 4.0554e-06)
(1.8044e-08 5.872e-08 6.3211e-09)
(1.1102e-05 3.8436e-06 3.8436e-06)
(3.0656e-12 -1.2875e-12 -1.2874e-12)
(1.0942e-05 4.0555e-06 2.9655e-06)
(1.8043e-08 6.3151e-09 5.8721e-08)
(1.0783e-05 4.2777e-06 1.7709e-06)
(5.3221e-12 4.59e-12 1.7422e-12)
(1.0939e-05 4.9712e-06 7.7079e-07)
(1.7913e-08 4.6273e-08 -3.6856e-08)
(1.1098e-05 5.4449e-06 -3.6153e-11)
(4.4269e-12 2.2453e-12 -7.9643e-18)
(1.9135e-05 8.033e-07 5.6752e-06)
(1.8859e-05 1.9333e-06 4.6694e-06)
(1.914e-05 3.437e-06 4.5716e-06)
(1.9503e-05 4.6447e-06 4.6448e-06)
(1.914e-05 4.5717e-06 3.4372e-06)
(1.8859e-05 4.6698e-06 1.9334e-06)
(1.9135e-05 5.6759e-06 8.0343e-07)
(1.9497e-05 6.5874e-06 -6.9187e-11)
(2.3496e-05 -1.0741e-08 8.271e-07)
(2.3348e-05 1.8869e-07 4.5499e-07)
(2.3501e-05 5.8271e-07 5.6258e-07)
(2.3662e-05 7.7659e-07 7.7677e-07)
(2.3501e-05 5.625e-07 5.8293e-07)
(2.3348e-05 4.5508e-07 1.8893e-07)
(2.3497e-05 8.2746e-07 -1.0531e-08)
(2.3656e-05 1.1238e-06 -4.2351e-11)
(2.5954e-05 -9.6675e-07 -4.8307e-06)
(2.5932e-05 -1.8746e-06 -4.5281e-06)
(2.5961e-05 -2.7471e-06 -4.1234e-06)
(2.5915e-05 -3.6714e-06 -3.6712e-06)
(2.5961e-05 -4.1238e-06 -2.7469e-06)
(2.5933e-05 -4.5285e-06 -1.8743e-06)
(2.5955e-05 -4.8311e-06 -9.6652e-07)
(2.5907e-05 -5.1528e-06 -1.4796e-11)
(2.8999e-05 -1.2994e-06 -6.3658e-06)
(2.8973e-05 -2.5096e-06 -6.0585e-06)
(2.9011e-05 -3.6098e-06 -5.4616e-06)
(2.9034e-05 -4.6286e-06 -4.6282e-06)
(2.9011e-05 -5.4623e-06 -3.6096e-06)
(2.8973e-05 -6.0594e-06 -2.5095e-06)
(2.8999e-05 -6.3669e-06 -1.2992e-06)
(2.9018e-05 -6.4759e-06 -3.5047e-11)
(3.2868e-05 -1.0255e-06 -4.5962e-06)
(3.2791e-05 -1.9033e-06 -4.6013e-06)
(3.2886e-05 -2.5669e-06 -4.0433e-06)
(3.2997e-05 -3.1696e-06 -3.1691e-06)
(3.2886e-05 -4.0442e-06 -2.5667e-06)
(3.2791e-05 -4.6027e-06 -1.9032e-06)
(3.2868e-05 -4.5979e-06 -1.0254e-06)
(3.2971e-05 -4.3693e-06 -6.9152e-11)
(3.6795e-05 -5.6502e-07 -2.3592e-06)
(3.6755e-05 -1.0082e-06 -2.4584e-06)
(3.6813e-05 -1.3226e-06 -2.1673e-06)
(3.6869e-05 -1.6765e-06 -1.6759e-06)
(3.6813e-05 -2.1684e-06 -1.3224e-06)
(3.6755e-05 -2.46e-06 -1.0082e-06)
(3.6796e-05 -2.3612e-06 -5.6487e-07)
(3.6843e-05 -2.2096e-06 -6.091e-11)
(4.0594e-05 -1.3537e-07 -5.1187e-07)
(4.06e-05 -2.4004e-07 -6.1311e-07)
(4.0607e-05 -3.3596e-07 -5.8453e-07)
(4.0606e-05 -4.7385e-07 -4.7329e-07)
(4.0607e-05 -5.8555e-07 -3.3577e-07)
(4.06e-05 -6.1461e-07 -2.4001e-07)
(4.0594e-05 -5.138e-07 -1.3521e-07)
(4.0587e-05 -4.6048e-07 -3.0586e-11)
(4.4425e-05 1.8774e-07 1.0423e-06)
(4.4434e-05 3.6661e-07 8.8247e-07)
(4.4432e-05 5.1097e-07 7.328e-07)
(4.4431e-05 6.1788e-07 6.1749e-07)
(4.4432e-05 7.3202e-07 5.112e-07)
(4.4433e-05 8.8138e-07 3.6673e-07)
(4.4425e-05 1.0409e-06 1.8794e-07)
(4.4422e-05 1.1109e-06 5.8883e-10)
(4.8307e-05 3.9577e-07 1.9948e-06)
(4.829e-05 7.3138e-07 1.7878e-06)
(4.8309e-05 1.0229e-06 1.5494e-06)
(4.8311e-05 1.2948e-06 1.2952e-06)
(4.8309e-05 1.549e-06 1.0232e-06)
(4.829e-05 1.7873e-06 7.3167e-07)
(4.8307e-05 1.9943e-06 3.9605e-07)
(4.8315e-05 2.0883e-06 -7.2683e-12)
(5.2179e-05 3.9296e-07 1.8825e-06)
(5.2159e-05 7.1661e-07 1.7223e-06)
(5.2166e-05 9.5579e-07 1.4625e-06)
(5.2181e-05 1.1871e-06 1.1874e-06)
(5.2166e-05 1.4625e-06 9.562e-07)
(5.2159e-05 1.7225e-06 7.171e-07)
(5.2179e-05 1.883e-06 3.9337e-07)
(5.2198e-05 1.9347e-06 -8.6014e-11)
(5.6066e-05 1.4625e-07 5.5026e-07)
(5.6041e-05 2.3281e-07 5.1628e-07)
(5.6037e-05 2.2192e-07 3.6676e-07)
(5.6046e-05 2.3337e-07 2.3349e-07)
(5.6037e-05 3.6717e-07 2.2245e-07)
(5.6041e-05 5.1727e-07 2.3352e-07)
(5.6066e-05 5.5176e-07 1.4682e-07)
(5.6086e-05 5.4222e-07 6.8119e-11)
(1.0939e-05 4.971e-06 -7.7081e-07)
(1.7912e-08 4.6273e-08 3.6852e-08)
(1.0784e-05 4.2774e-06 -1.7708e-06)
(5.3222e-12 4.5901e-12 -1.742e-12)
(1.0942e-05 4.0551e-06 -2.9652e-06)
(1.8043e-08 6.3126e-09 -5.8721e-08)
(1.1102e-05 3.8431e-06 -3.8431e-06)
(3.0656e-12 -1.288e-12 1.2876e-12)
(1.0942e-05 2.965e-06 -4.0547e-06)
(1.8042e-08 5.8715e-08 -6.3199e-09)
(1.0784e-05 1.7706e-06 -4.2766e-06)
(5.3223e-12 1.7422e-12 -4.5898e-12)
(1.094e-05 7.7061e-07 -4.9698e-06)
(1.7914e-08 -3.6857e-08 -4.6264e-08)
(1.1099e-05 2.0127e-11 -5.4433e-06)
(4.427e-12 2.722e-17 -2.2447e-12)
(1.9135e-05 5.6756e-06 -8.0347e-07)
(1.8859e-05 4.6692e-06 -1.9332e-06)
(1.914e-05 4.5708e-06 -3.4366e-06)
(1.9504e-05 4.6437e-06 -4.6438e-06)
(1.914e-05 3.4361e-06 -4.5702e-06)
(1.8859e-05 1.9326e-06 -4.6677e-06)
(1.9136e-05 8.0301e-07 -5.6733e-06)
(1.9497e-05 -2.3063e-12 -6.5845e-06)
(2.3497e-05 8.27e-07 1.0558e-08)
(2.3348e-05 4.5422e-07 -1.8859e-07)
(2.3502e-05 5.6136e-07 -5.8212e-07)
(2.3662e-05 7.7532e-07 -7.7537e-07)
(2.3502e-05 5.8149e-07 -5.6053e-07)
(2.3349e-05 1.8776e-07 -4.5235e-07)
(2.3497e-05 -1.1171e-08 -8.241e-07)
(2.3656e-05 3.0616e-12 -1.1202e-06)
(2.5955e-05 -4.8315e-06 9.6659e-07)
(2.5933e-05 -4.5294e-06 1.8747e-06)
(2.5961e-05 -4.125e-06 2.7478e-06)
(2.5915e-05 -3.6728e-06 3.6727e-06)
(2.5961e-05 -2.7484e-06 4.1258e-06)
(2.5933e-05 -1.8756e-06 4.5313e-06)
(2.5955e-05 -9.6724e-07 4.8344e-06)
(2.5907e-05 1.0868e-11 5.1565e-06)
(2.8999e-05 -6.3673e-06 1.2992e-06)
(2.8974e-05 -6.0601e-06 2.5098e-06)
(2.9011e-05 -5.4633e-06 3.6104e-06)
(2.9035e-05 -4.6297e-06 4.6296e-06)
(2.9012e-05 -3.611e-06 5.4639e-06)
(2.8974e-05 -2.5106e-06 6.0616e-06)
(2.9e-05 -1.2998e-06 6.3696e-06)
(2.9018e-05 -4.4267e-12 6.4788e-06)
(3.2869e-05 -4.5981e-06 1.0253e-06)
(3.2791e-05 -4.603e-06 1.9033e-06)
(3.2886e-05 -4.0448e-06 2.5672e-06)
(3.2997e-05 -3.1703e-06 3.1701e-06)
(3.2887e-05 -2.5677e-06 4.045e-06)
(3.2791e-05 -1.9039e-06 4.6038e-06)
(3.2869e-05 -1.0257e-06 4.5994e-06)
(3.2972e-05 -4.8699e-11 4.371e-06)
(3.6796e-05 -2.3612e-06 5.6476e-07)
(3.6756e-05 -2.4599e-06 1.0081e-06)
(3.6814e-05 -2.1684e-06 1.3225e-06)
(3.687e-05 -1.6766e-06 1.6763e-06)
(3.6814e-05 -1.3228e-06 2.1682e-06)
(3.6756e-05 -1.0085e-06 2.4599e-06)
(3.6796e-05 -5.6503e-07 2.3613e-06)
(3.6844e-05 -1.03e-10 2.2099e-06)
(4.0594e-05 -5.1351e-07 1.351e-07)
(4.0601e-05 -6.141e-07 2.3981e-07)
(4.0608e-05 -5.8498e-07 3.3551e-07)
(4.0607e-05 -4.7336e-07 4.7307e-07)
(4.0609e-05 -3.3564e-07 5.8448e-07)
(4.0601e-05 -2.3986e-07 6.1337e-07)
(4.0595e-05 -1.3517e-07 5.1255e-07)
(4.0588e-05 -1.4976e-10 4.5934e-07)
(4.4426e-05 1.0414e-06 -1.8806e-07)
(4.4434e-05 8.8223e-07 -3.6707e-07)
(4.4432e-05 7.3307e-07 -5.118e-07)
(4.4432e-05 6.1892e-07 -6.1835e-07)
(4.4433e-05 5.1185e-07 -7.3384e-07)
(4.4435e-05 3.6725e-07 -8.8355e-07)
(4.4427e-05 1.8815e-07 -1.0432e-06)
(4.4423e-05 -7.8422e-10 -1.1132e-06)
(4.8308e-05 1.9949e-06 -3.9618e-07)
(4.8291e-05 1.7884e-06 -7.321e-07)
(4.831e-05 1.5504e-06 -1.0241e-06)
(4.8312e-05 1.2963e-06 -1.2966e-06)
(4.8311e-05 1.0243e-06 -1.5514e-06)
(4.8292e-05 7.3249e-07 -1.7902e-06)
(4.8309e-05 3.9641e-07 -1.9975e-06)
(4.8316e-05 -2.0636e-10 -2.0915e-06)
(5.2179e-05 1.8837e-06 -3.9347e-07)
(5.216e-05 1.7239e-06 -7.1757e-07)
(5.2167e-05 1.4642e-06 -9.5729e-07)
(5.2182e-05 1.189e-06 -1.1893e-06)
(5.2168e-05 9.5764e-07 -1.4653e-06)
(5.2161e-05 7.1814e-07 -1.7259e-06)
(5.218e-05 3.9382e-07 -1.8868e-06)
(5.2199e-05 -3.4506e-10 -1.9385e-06)
(5.6066e-05 5.5252e-07 -1.468e-07)
(5.6042e-05 5.1869e-07 -2.339e-07)
(5.6038e-05 3.6904e-07 -2.2358e-07)
(5.6047e-05 2.3549e-07 -2.3563e-07)
(5.6039e-05 2.2408e-07 -3.7006e-07)
(5.6042e-05 2.3464e-07 -5.2079e-07)
(5.6067e-05 1.4726e-07 -5.5582e-07)
(5.6087e-05 -2.9477e-10 -5.4644e-07)
(1.094e-05 -7.7052e-07 -4.9696e-06)
(1.7914e-08 3.6853e-08 -4.6263e-08)
(1.0784e-05 -1.7704e-06 -4.2762e-06)
(5.3223e-12 -1.7421e-12 -4.5898e-12)
(1.0942e-05 -2.9647e-06 -4.0542e-06)
(1.8043e-08 -5.8714e-08 -6.3146e-09)
(1.1103e-05 -3.8426e-06 -3.8426e-06)
(3.0657e-12 1.2882e-12 1.288e-12)
(1.0942e-05 -4.0544e-06 -2.9648e-06)
(1.8044e-08 -6.3146e-09 -5.8718e-08)
(1.0784e-05 -4.2765e-06 -1.7705e-06)
(5.3222e-12 -4.5896e-12 -1.7419e-12)
(1.0939e-05 -4.97e-06 -7.706e-07)
(1.7912e-08 -4.6268e-08 3.6852e-08)
(1.9136e-05 -8.0291e-07 -5.6729e-06)
(1.8859e-05 -1.9323e-06 -4.6669e-06)
(1.914e-05 -3.4355e-06 -4.5692e-06)
(1.9504e-05 -4.6429e-06 -4.6428e-06)
(1.914e-05 -4.5697e-06 -3.4357e-06)
(1.8859e-05 -4.6677e-06 -1.9325e-06)
(1.9135e-05 -5.6739e-06 -8.0306e-07)
(2.3497e-05 1.1283e-08 -8.2351e-07)
(2.3349e-05 -1.8738e-07 -4.5133e-07)
(2.3502e-05 -5.8078e-07 -5.5931e-07)
(2.3663e-05 -7.743e-07 -7.7416e-07)
(2.3502e-05 -5.6008e-07 -5.8108e-07)
(2.3349e-05 -4.5275e-07 -1.8779e-07)
(2.3497e-05 -8.2536e-07 1.106e-08)
(2.5955e-05 9.6735e-07 4.8351e-06)
(2.5933e-05 1.876e-06 4.5323e-06)
(2.5961e-05 2.7491e-06 4.127e-06)
(2.5915e-05 3.6737e-06 3.6739e-06)
(2.5961e-05 4.126e-06 2.7487e-06)
(2.5933e-05 4.5304e-06 1.8754e-06)
(2.5955e-05 4.8324e-06 9.6707e-07)
(2.9e-05 1.2999e-06 6.3701e-06)
(2.8974e-05 2.5108e-06 6.0625e-06)
(2.9012e-05 3.6114e-06 5.4649e-06)
(2.9035e-05 4.6302e-06 4.6305e-06)
(2.9012e-05 5.4637e-06 3.6111e-06)
(2.8974e-05 6.0602e-06 2.5103e-06)
(2.8999e-05 6.367e-06 1.2996e-06)
(3.2869e-05 1.0257e-06 4.5998e-06)
(3.2791e-05 1.9039e-06 4.6044e-06)
(3.2887e-05 2.5678e-06 4.0457e-06)
(3.2997e-05 3.1703e-06 3.1707e-06)
(3.2887e-05 4.0444e-06 2.5675e-06)
(3.2791e-05 4.6021e-06 1.9035e-06)
(3.2869e-05 4.5965e-06 1.0255e-06)
(3.6796e-05 5.6483e-07 2.3615e-06)
(3.6756e-05 1.0083e-06 2.4602e-06)
(3.6814e-05 1.3225e-06 2.1685e-06)
(3.687e-05 1.6761e-06 1.6765e-06)
(3.6814e-05 2.1673e-06 1.3224e-06)
(3.6756e-05 2.4581e-06 1.008e-06)
(3.6796e-05 2.3585e-06 5.6471e-07)
(4.0595e-05 1.3485e-07 5.1256e-07)
(4.0601e-05 2.3946e-07 6.1336e-07)
(4.0608e-05 3.3507e-07 5.8441e-07)
(4.0607e-05 4.7242e-07 4.7286e-07)
(4.0608e-05 5.8347e-07 3.351e-07)
(4.0601e-05 6.118e-07 2.3931e-07)
(4.0594e-05 5.1031e-07 1.3486e-07)
(4.4426e-05 -1.8856e-07 -1.0434e-06)
(4.4435e-05 -3.6779e-07 -8.8382e-07)
(4.4433e-05 -5.1262e-07 -7.342e-07)
(4.4432e-05 -6.2006e-07 -6.1883e-07)
(4.4433e-05 -7.3477e-07 -5.124e-07)
(4.4434e-05 -8.8464e-07 -3.6767e-07)
(4.4426e-05 -1.0445e-06 -1.8838e-07)
(4.8308e-05 -3.9689e-07 -1.9978e-06)
(4.8291e-05 -7.3313e-07 -1.7907e-06)
(4.831e-05 -1.0252e-06 -1.5519e-06)
(4.8312e-05 -1.2975e-06 -1.2972e-06)
(4.831e-05 -1.5521e-06 -1.0248e-06)
(4.8291e-05 -1.7906e-06 -7.3267e-07)
(4.8308e-05 -1.9976e-06 -3.965e-07)
(5.218e-05 -3.944e-07 -1.8872e-06)
(5.216e-05 -7.1889e-07 -1.7265e-06)
(5.2168e-05 -9.5859e-07 -1.466e-06)
(5.2182e-05 -1.1901e-06 -1.1899e-06)
(5.2167e-05 -1.4656e-06 -9.5784e-07)
(5.216e-05 -1.7255e-06 -7.1802e-07)
(5.2179e-05 -1.8855e-06 -3.9374e-07)
(5.6067e-05 -1.4793e-07 -5.563e-07)
(5.6042e-05 -2.355e-07 -5.2156e-07)
(5.6039e-05 -2.2508e-07 -3.7083e-07)
(5.6047e-05 -2.3655e-07 -2.3624e-07)
(5.6038e-05 -3.7007e-07 -2.2402e-07)
(5.6042e-05 -5.1961e-07 -2.3421e-07)
(5.6066e-05 -5.5329e-07 -1.47e-07)
)
;
    }
    procBoundary0to1
    {
        type            processor;
    }
}


// ************************************************************************* //
