/*--------------------------------*- C++ -*----------------------------------*\
  =========                 |
  \\      /  F ield         | OpenFOAM: The Open Source CFD Toolbox
   \\    /   O peration     | Website:  https://openfoam.org
    \\  /    A nd           | Version:  8
     \\/     M anipulation  |
\*---------------------------------------------------------------------------*/
FoamFile
{
    version     2.0;
    format      ascii;
    class       pointVectorField;
    location    "0.0790000";
    object      pointDisplacement;
}
// * * * * * * * * * * * * * * * * * * * * * * * * * * * * * * * * * * * * * //

dimensions      [0 1 0 0 0 0 0];

internalField   nonuniform List<vector> 
1414
(
(-1.55635624240426e-36 -1.08860802863385e-07 4.75296529879309e-09)
(-1.5959603001224e-36 -1.11609821136936e-07 4.87299002868906e-09)
(-1.66703953921905e-36 -1.16610894353746e-07 5.09134160088951e-09)
(-1.75646004881401e-36 -1.22855967342659e-07 5.36400737611793e-09)
(-1.86217992404739e-36 -1.30264171057803e-07 5.68745653557945e-09)
(-1.97876221656071e-36 -1.3841088941419e-07 6.04314994062939e-09)
(-2.10470312010437e-36 -1.47215150626515e-07 6.42755228677234e-09)
(-2.23944588198293e-36 -1.56637805712902e-07 6.83895429254572e-09)
(-2.38392607631349e-36 -1.66738935119809e-07 7.27997912689217e-09)
(-2.53731144391212e-36 -1.77466841690819e-07 7.7483696432169e-09)
(-2.69788580894437e-36 -1.88675683500295e-07 8.23775824553099e-09)
(-2.86438643333806e-36 -2.00347615128165e-07 8.74736578596745e-09)
(-3.03780341853615e-36 -2.12478885254998e-07 9.27702847838289e-09)
(-3.22001365249137e-36 -2.25195103125974e-07 9.83223054085975e-09)
(-3.40711125675775e-36 -2.38317862910715e-07 1.04051826066235e-08)
(-3.60130315310233e-36 -2.51839874393665e-07 1.09955663779888e-08)
(-3.79982566706261e-36 -2.65755150717806e-07 1.16031204631333e-08)
(-4.00545969225663e-36 -2.80167199541815e-07 1.2232364104033e-08)
(-4.21764847598892e-36 -2.95024039090712e-07 1.28810277273784e-08)
(-4.43582091626776e-36 -3.10275247440539e-07 1.3546909864426e-08)
(-4.66016929366322e-36 -3.25925871704145e-07 1.42302308768819e-08)
(-4.88995892420605e-36 -3.42025279742722e-07 1.4933146212115e-08)
(-5.12835813251368e-36 -3.58684427555114e-07 1.56605003136563e-08)
(-5.37257167567182e-36 -3.75785379642105e-07 1.64071440064077e-08)
(-5.62388525062667e-36 -3.93352467109045e-07 1.71741396093706e-08)
(-5.88232755597079e-36 -4.11412892873181e-07 1.79626748275619e-08)
(-6.14978695909392e-36 -4.30181475483214e-07 1.87821288413723e-08)
(-6.42804277273412e-36 -4.49564672221658e-07 1.9628417487554e-08)
(-6.71309441309002e-36 -4.69562499352595e-07 2.05015414762121e-08)
(-7.00897690227405e-36 -4.90212493519989e-07 2.14031396926158e-08)
(-7.31575337718982e-36 -5.1171117521879e-07 2.23417924068755e-08)
(-7.63748181882381e-36 -5.34209463256405e-07 2.33240888764251e-08)
(-7.97306594094064e-36 -5.57616760126701e-07 2.43460735287217e-08)
(-8.32140945730492e-36 -5.82015757398738e-07 2.5411356755641e-08)
(-8.68547980238626e-36 -6.075274681594e-07 2.65252221026608e-08)
(-9.07613652360533e-36 -6.34823468922799e-07 2.77169912336223e-08)
(-9.48814499768114e-36 -6.63618883426309e-07 2.89742261822869e-08)
(-9.92447839880179e-36 -6.94084841951344e-07 3.03043986581016e-08)
(-1.03848267821678e-35 -7.2640006095851e-07 3.17153115902496e-08)
(-1.0885996043576e-35 -7.61463596754015e-07 3.32462186247877e-08)
(-1.14290882089803e-35 -7.99459239724342e-07 3.49051442232874e-08)
(-1.2014872400661e-35 -8.40386111466543e-07 3.66920500338476e-08)
(-1.26471138739607e-35 -8.84560224499217e-07 3.86207334610014e-08)
(-1.33362933548784e-35 -9.32841113231001e-07 4.07287225874921e-08)
(-1.41086298775671e-35 -9.86867516835579e-07 4.30875663108238e-08)
(-1.49565929313419e-35 -1.04607530022477e-06 4.5672633961119e-08)
(-1.58854860161059e-35 -1.11105053070062e-06 4.85095137893922e-08)
(-1.69050322150149e-35 -1.18240882216266e-06 5.16250840789656e-08)
(-1.80758888732813e-35 -1.26432390466723e-06 5.52015738195437e-08)
(-1.93830523667201e-35 -1.35566138520093e-06 5.91894543425329e-08)
(-2.08355455328289e-35 -1.45717454850915e-06 6.36216147701958e-08)
(-2.24476487912603e-35 -1.56993611918392e-06 6.85448912697009e-08)
(-2.42874581624155e-35 -1.69875870274984e-06 7.41694067360996e-08)
(-2.63968276736684e-35 -1.84609186313415e-06 8.060211144017e-08)
(-2.87580101153865e-35 -2.01122305687126e-06 8.78118950623405e-08)
(-3.14024591450039e-35 -2.19644254390092e-06 9.58987525110862e-08)
(-3.44080053455146e-35 -2.40713323016457e-06 1.05097706535399e-07)
(-3.82327700895026e-35 -2.67414057399143e-06 1.16755498930377e-07)
(-4.29627114013718e-35 -3.00525483567966e-06 1.31212259806141e-07)
(-4.88444075883065e-35 -3.41594466797859e-06 1.49143365127251e-07)
(-5.60629071750651e-35 -3.92135890107987e-06 1.71210227103836e-07)
(-6.56213292861811e-35 -4.58941432298218e-06 2.00378156739235e-07)
(-7.70078287838181e-35 -5.38643754774787e-06 2.35176942252488e-07)
(-9.02039467332483e-35 -6.30890876235336e-06 2.75452905288125e-07)
(-1.05180295775701e-34 -7.35716625225375e-06 3.21220815708086e-07)
(-1.22637121569381e-34 -8.57760973112676e-06 3.74506528762228e-07)
(-1.42017717336579e-34 -9.93310343184825e-06 4.33688661842277e-07)
(-1.63016821888066e-34 -1.14024718880189e-05 4.97842674118711e-07)
(-1.85585395068892e-34 -1.29789207068749e-05 5.66671915996977e-07)
(-2.09976351835477e-34 -1.46850358694093e-05 6.41162512703741e-07)
(-2.35457946954435e-34 -1.64684508961601e-05 7.19028094368891e-07)
(-2.61730429366306e-34 -1.83054631842899e-05 7.99233783003163e-07)
(-2.88601862884119e-34 -2.01838110730584e-05 8.81244222937009e-07)
(-3.15785537088869e-34 -2.20848944064418e-05 9.64247313820184e-07)
(-3.42646317689127e-34 -2.39677925222392e-05 1.04645642095656e-06)
(-3.6922828572305e-34 -2.5820227451009e-05 1.12733547662332e-06)
(-3.94998427970936e-34 -2.76240909845243e-05 1.20609385937487e-06)
(-4.19091286716993e-34 -2.93164353589378e-05 1.27998321048768e-06)
(-4.4200571237635e-34 -3.09116710564025e-05 1.34963270520031e-06)
(-4.63316322930804e-34 -3.24009344677938e-05 1.4146553499808e-06)
(-4.82397534980527e-34 -3.37374397877936e-05 1.47300843245424e-06)
(-4.988434356325e-34 -3.48921358044408e-05 1.52342354931376e-06)
(-5.13439402049867e-34 -3.59033456302478e-05 1.56757392378685e-06)
(-5.25690624579327e-34 -3.6768574869574e-05 1.60535064820784e-06)
(-5.34801440482169e-34 -3.74101169394218e-05 1.63336097989288e-06)
(-5.4172804094439e-34 -3.78917793751277e-05 1.6543908159994e-06)
(-5.4680838059185e-34 -3.82403036670507e-05 1.66960771521129e-06)
(-5.49685403015487e-34 -3.84455154116595e-05 1.67856745347681e-06)
(-5.50597880505313e-34 -3.85120172013304e-05 1.68147098431894e-06)
(-5.50622125076299e-34 -3.85121491468773e-05 1.68147674518593e-06)
(-5.4978238129943e-34 -3.84554577595139e-05 1.67900154575885e-06)
(-5.48200606713605e-34 -3.83440699130446e-05 1.67413824735345e-06)
(-5.4632936664389e-34 -3.82118093852611e-05 1.66836362800085e-06)
(-5.44315597884137e-34 -3.80654906528326e-05 1.66197521417785e-06)
(-5.41920528144337e-34 -3.7908357138765e-05 1.65511461679112e-06)
(-5.39737047387684e-34 -3.77476308992574e-05 1.64809715762408e-06)
(-5.37412507308933e-34 -3.7587312815549e-05 1.64109751892409e-06)
(-5.35159231575201e-34 -3.74291004661954e-05 1.63418981857154e-06)
(-5.33025709328458e-34 -3.72810249284887e-05 1.62772470097358e-06)
(-5.3110744948471e-34 -3.71475960510969e-05 1.62189907037543e-06)
(-5.29430165982881e-34 -3.70303958533389e-05 1.61678199923225e-06)
(-5.75918268773085e-24 -3.33003577862679e-06 1.45392502013929e-07)
(1.5353733271056e-25 -3.32743715483477e-06 1.45279043649341e-07)
(1.535658506662e-25 -3.32841982085179e-06 1.45321947774209e-07)
(1.53645274637576e-25 -3.33074950302217e-06 1.45423663894445e-07)
(1.53791458958439e-25 -3.33396095775189e-06 1.45563879036053e-07)
(1.54019806234383e-25 -3.33785066369251e-06 1.45733707265058e-07)
(1.54212569630475e-25 -3.34228946960208e-06 1.45927509716458e-07)
(1.54372128680355e-25 -3.34725886191103e-06 1.4614447807035e-07)
(1.54594306248632e-25 -3.3527658356964e-06 1.46384917738392e-07)
(1.54857687399527e-25 -3.35877132913625e-06 1.46647123244608e-07)
(1.55100957817052e-25 -3.36520045946194e-06 1.4692782513671e-07)
(1.55369114654004e-25 -3.37201485769525e-06 1.47225348188931e-07)
(1.55703268514305e-25 -3.37923697687864e-06 1.47540672722277e-07)
(1.56018079373819e-25 -3.38688116920796e-06 1.4787442536715e-07)
(1.56310417757562e-25 -3.39489806226372e-06 1.48224450477162e-07)
(1.56692235108375e-25 -3.40324570658776e-06 1.48588916499416e-07)
(1.57107337184942e-25 -3.41194296965689e-06 1.48968647205738e-07)
(1.57468236092714e-25 -3.42102123620512e-06 1.4936501288321e-07)
(1.57850185698405e-25 -3.43047002108585e-06 1.49777555740444e-07)
(1.5832823526256e-25 -3.44025815594436e-06 1.50204914937683e-07)
(1.58812758256436e-25 -3.4503875998032e-06 1.506471760077e-07)
(1.59260609033363e-25 -3.4609043269159e-06 1.51106346229754e-07)
(1.5973003275459e-25 -3.47184024512612e-06 1.51583818730384e-07)
(1.60218589160708e-25 -3.48317426821427e-06 1.52078672865361e-07)
(1.60767482808657e-25 -3.49489636448048e-06 1.5259047064121e-07)
(1.61371977720072e-25 -3.5070695738413e-06 1.53121964440127e-07)
(1.61936859772916e-25 -3.51976987362802e-06 1.53676471504038e-07)
(1.624689791195e-25 -3.5330030016917e-06 1.54254242352929e-07)
(1.63048099826777e-25 -3.54675547211741e-06 1.54854688179038e-07)
(1.63685796173877e-25 -3.56108451090749e-06 1.55480307523588e-07)
(1.64363952035625e-25 -3.57611307393178e-06 1.56136468755791e-07)
(1.65074196465949e-25 -3.59192616142554e-06 1.56826883066065e-07)
(1.6580016929468e-25 -3.60853354502016e-06 1.57551977093052e-07)
(1.66567053262963e-25 -3.62597191478173e-06 1.58313352759631e-07)
(1.67396239550877e-25 -3.64445441680947e-06 1.59120316225473e-07)
(1.68281434679152e-25 -3.66422728006352e-06 1.59983618079149e-07)
(1.69254756498507e-25 -3.68534683278235e-06 1.60905717664662e-07)
(1.70263665843624e-25 -3.70785315635227e-06 1.61888364973131e-07)
(1.71339052464109e-25 -3.73204955387166e-06 1.62944802503821e-07)
(1.7259565208898e-25 -3.75839091903332e-06 1.64094891344279e-07)
(1.73945081814129e-25 -3.78714136696547e-06 1.65350163010043e-07)
(1.75303121190457e-25 -3.81839471480689e-06 1.66714713645851e-07)
(1.76769226757893e-25 -3.8524533773874e-06 1.68201746968324e-07)
(1.78513715584121e-25 -3.89010155091684e-06 1.69845501723407e-07)
(1.80483449199935e-25 -3.93208726109976e-06 1.71678637418682e-07)
(1.8258490921478e-25 -3.97863413500311e-06 1.73710917822753e-07)
(1.84904467680933e-25 -4.0299522196041e-06 1.75951513784697e-07)
(1.87541199214161e-25 -4.08733363071788e-06 1.78456840299354e-07)
(1.90540225582298e-25 -4.15242507686917e-06 1.81298794213606e-07)
(1.93899838148087e-25 -4.22578060398907e-06 1.84501565695221e-07)
(1.97648713120047e-25 -4.30762491583132e-06 1.88074965521963e-07)
(2.01829115108953e-25 -4.39959146415095e-06 1.92090311737651e-07)
(2.065696542396e-25 -4.50447971287059e-06 1.96669831576788e-07)
(2.1203075070036e-25 -4.62417298324066e-06 2.01895752620964e-07)
(2.18286012693902e-25 -4.75929362166397e-06 2.07795247100944e-07)
(2.25330840433636e-25 -4.91145061686485e-06 2.1443856498156e-07)
(2.33523124973895e-25 -5.08996182965599e-06 2.22232532851787e-07)
(2.43588966161498e-25 -5.31058396285653e-06 2.31865103213839e-07)
(2.56141977854221e-25 -5.58635426966066e-06 2.43905494835113e-07)
(2.7174432675581e-25 -5.92759304955408e-06 2.58804301722255e-07)
(2.914957421379e-25 -6.35892590145732e-06 2.77636700743825e-07)
(3.16510686841031e-25 -6.90517815661145e-06 3.01486589269827e-07)
(3.46771758753642e-25 -7.56567199153296e-06 3.30324372887847e-07)
(3.81794276132084e-25 -8.33038094676354e-06 3.63712286923898e-07)
(4.22118308685579e-25 -9.20930917352571e-06 4.02087122053357e-07)
(4.68246602444288e-25 -1.02144762129024e-05 4.45973662773232e-07)
(5.19611867019984e-25 -1.1335597787765e-05 4.94922887846959e-07)
(5.75398547113621e-25 -1.2553543687836e-05 5.48099554255776e-07)
(6.35558521246998e-25 -1.38660921686829e-05 6.05406658542857e-07)
(6.99962533225908e-25 -1.52704701598615e-05 6.66723125837865e-07)
(7.67519886570594e-25 -1.67445291893485e-05 7.31081932968266e-07)
(8.37076291196789e-25 -1.8264336648152e-05 7.97438159659216e-07)
(9.08129161521443e-25 -1.9815934563439e-05 8.65182387655735e-07)
(9.79923173414185e-25 -2.13805910005129e-05 9.3349676302646e-07)
(1.0511915749741e-24 -2.2934810746823e-05 1.00135546263759e-06)
(1.12108952867413e-24 -2.44606061984834e-05 1.06797313074281e-06)
(1.18870783880884e-24 -2.59355756772554e-05 1.13237168894746e-06)
(1.25276793741721e-24 -2.7333220581273e-05 1.19339418330833e-06)
(1.31287579443564e-24 -2.86437056261649e-05 1.25061119603599e-06)
(1.36848849045939e-24 -2.98561629079973e-05 1.30354822419724e-06)
(1.41835366345649e-24 -3.09456959473829e-05 1.35111826402694e-06)
(1.46198427158444e-24 -3.18988138130559e-05 1.3927322887453e-06)
(1.49971160642416e-24 -3.27215454808724e-05 1.42865352912297e-06)
(1.53107997230193e-24 -3.34065477633886e-05 1.45856137467219e-06)
(1.55536363922735e-24 -3.39377457233585e-05 1.48175397847563e-06)
(1.57334477729136e-24 -3.43301494191664e-05 1.49888669383544e-06)
(1.58601371153747e-24 -3.46052609093493e-05 1.51089832090182e-06)
(1.59366086355934e-24 -3.47707023969504e-05 1.5181216522467e-06)
(1.597003589545e-24 -3.48442084280201e-05 1.52133099487267e-06)
(1.5972294109472e-24 -3.48509941769239e-05 1.52162726706815e-06)
(1.59525518525707e-24 -3.48086248987144e-05 1.51977738443117e-06)
(1.59161877128754e-24 -3.47283646582657e-05 1.51627314665511e-06)
(1.58692030846775e-24 -3.46249836612892e-05 1.51175943484828e-06)
(1.58154965596146e-24 -3.45082023362121e-05 1.50666065208129e-06)
(1.57578793048337e-24 -3.43831199765905e-05 1.50119943831897e-06)
(1.56984453441003e-24 -3.42542698993741e-05 1.49557372245385e-06)
(1.56392402533483e-24 -3.41252529807703e-05 1.48994072213644e-06)
(1.55821409322054e-24 -3.39995087470434e-05 1.4844506103266e-06)
(1.55284971038802e-24 -3.38821422329904e-05 1.47932627765714e-06)
(1.54817790320729e-24 -3.37808927386877e-05 1.47490562926687e-06)
(-5.65087544636453e-23 -3.37223191566147e-05 1.47234825143959e-06)
(-1.09684890416693e-23 -6.45122211115399e-06 2.81666440285228e-07)
(2.97212410941235e-25 -6.44468235444862e-06 2.81380908341926e-07)
(2.97124105811727e-25 -6.44328505750799e-06 2.81319901039975e-07)
(2.97065223900286e-25 -6.44307726153491e-06 2.81310828471857e-07)
(2.9708968513969e-25 -6.44356474978857e-06 2.81332112668669e-07)
(2.97239979860503e-25 -6.44458711460351e-06 2.81376750080486e-07)
(2.97290798694269e-25 -6.44604260364908e-06 2.81440298104609e-07)
(2.97246612361306e-25 -6.44791673253452e-06 2.8152212433888e-07)
(2.97296407688855e-25 -6.45021569251368e-06 2.81622499099279e-07)
(2.97400882226915e-25 -6.45290874917556e-06 2.81740080492443e-07)
(2.97442571659343e-25 -6.4559362928074e-06 2.81872265902106e-07)
(2.97511913601658e-25 -6.45926821061217e-06 2.82017740575156e-07)
(2.97689722746186e-25 -6.46292234602236e-06 2.82177283572681e-07)
(2.97806829664962e-25 -6.46691117744354e-06 2.82351439713634e-07)
(2.97858533283593e-25 -6.47119478409395e-06 2.8253846601904e-07)
(2.98068798204257e-25 -6.47574024050666e-06 2.82736924931969e-07)
(2.98326617366107e-25 -6.48056253575202e-06 2.82947470889366e-07)
(2.98456580759768e-25 -6.48568737944569e-06 2.8317122639729e-07)
(2.9860719185534e-25 -6.49110635334194e-06 2.83407823907198e-07)
(2.98929499026471e-25 -6.49679464801358e-06 2.83656180216104e-07)
(2.99246739999158e-25 -6.50275395651062e-06 2.83916369244169e-07)
(2.99470293919963e-25 -6.50902105954367e-06 2.84189996871897e-07)
(2.99713542555621e-25 -6.51562230042649e-06 2.84478213273208e-07)
(2.99972769072716e-25 -6.52254018936498e-06 2.847802548272e-07)
(3.00330151171955e-25 -6.52976706822245e-06 2.85095787172403e-07)
(3.00773659290073e-25 -6.53735292659059e-06 2.85426992901528e-07)
(3.01110611367889e-25 -6.54535991542988e-06 2.8577658558411e-07)
(3.0135331045302e-25 -6.55379181202403e-06 2.86144730139919e-07)
(3.01660468599267e-25 -6.56263799748135e-06 2.8653096293813e-07)
(3.02052386891539e-25 -6.57194389369309e-06 2.86937267141345e-07)
(3.02486651496823e-25 -6.58180848548838e-06 2.87367964520536e-07)
(3.02942102068072e-25 -6.59230057088522e-06 2.8782605886204e-07)
(3.0338555056601e-25 -6.60342686490478e-06 2.88311843350013e-07)
(3.03864787908326e-25 -6.61521672689584e-06 2.88826599841305e-07)
(3.04410804309332e-25 -6.62783908175891e-06 2.89377703756355e-07)
(3.04997909568707e-25 -6.64149609931621e-06 2.89973982020226e-07)
(3.05686748110242e-25 -6.65622848421231e-06 2.90617211836083e-07)
(3.06371009490898e-25 -6.672068892252e-06 2.91308818987153e-07)
(3.07094678250499e-25 -6.68925736858617e-06 2.92059284071067e-07)
(3.08061633471298e-25 -6.70816353163313e-06 2.92884744976481e-07)
(3.09082839707485e-25 -6.72899739784741e-06 2.93794371219829e-07)
(3.09985008590927e-25 -6.75183134634381e-06 2.94791322941509e-07)
(3.10948094137943e-25 -6.77690487415422e-06 2.95886056807758e-07)
(3.12268462964125e-25 -6.80484528599378e-06 2.97105961533929e-07)
(3.13801664355073e-25 -6.83626556962119e-06 2.98477800743559e-07)
(3.15348329452052e-25 -6.87133066714956e-06 3.00008775964831e-07)
(3.17068069502337e-25 -6.91020804386522e-06 3.01706198890051e-07)
(3.19087233601815e-25 -6.953916790014e-06 3.03614563960262e-07)
(3.21408333542734e-25 -7.00382103417801e-06 3.05793430315606e-07)
(3.2399612576216e-25 -7.0603319338747e-06 3.08260749480978e-07)
(3.26895325644666e-25 -7.12362772795613e-06 3.11024303532725e-07)
(3.30100231184251e-25 -7.19499655205425e-06 3.1414033368713e-07)
(3.33715479311757e-25 -7.27671833097197e-06 3.1770838361085e-07)
(3.37957969453585e-25 -7.3703111458304e-06 3.21794734157043e-07)
(3.42939017952556e-25 -7.47623344377256e-06 3.26419401560248e-07)
(3.48560135075702e-25 -7.59572532077096e-06 3.31636529579922e-07)
(3.55017950852124e-25 -7.73608897218668e-06 3.37764938950832e-07)
(3.62912343962526e-25 -7.91024522207034e-06 3.45368765034186e-07)
(3.72744997151656e-25 -8.12845145461235e-06 3.54895854895513e-07)
(3.85067981945148e-25 -8.39887625534847e-06 3.66702856681534e-07)
(4.00713408498704e-25 -8.7409145826759e-06 3.81636572563545e-07)
(4.20596321374663e-25 -9.17554847301034e-06 4.00613098035599e-07)
(4.44680332410492e-25 -9.70138753493415e-06 4.2357172729739e-07)
(4.72544111066043e-25 -1.03103491231821e-05 4.50159564435439e-07)
(5.04708024293645e-25 -1.10102363277244e-05 4.80717299715452e-07)
(5.41554470146695e-25 -1.18114476828916e-05 5.15698942951163e-07)
(5.82486567312729e-25 -1.2705161576302e-05 5.54719334228017e-07)
(6.26915251796473e-25 -1.36758879571652e-05 5.971021633228e-07)
(6.74863768472187e-25 -1.47217860615347e-05 6.42767060745937e-07)
(7.26238484983354e-25 -1.58408871057276e-05 6.91628067545445e-07)
(7.80060517562042e-25 -1.70151135950986e-05 7.42895903259689e-07)
(8.35334402971585e-25 -1.8225275788411e-05 7.95732725692101e-07)
(8.91816261586626e-25 -1.94601255676585e-05 8.49647431404581e-07)
(9.49023234293663e-25 -2.07045925014753e-05 9.0398203115365e-07)
(1.0057212700589e-24 -2.1939963837519e-05 9.5791950852763e-07)
(1.06120008535038e-24 -2.31516981222935e-05 1.01082496995561e-06)
(1.11486976571793e-24 -2.43218024708267e-05 1.06191282911408e-06)
(1.16566857407572e-24 -2.54298815259039e-05 1.11029260547607e-06)
(1.21331797569773e-24 -2.64674080942454e-05 1.15559199374263e-06)
(1.25731862584054e-24 -2.74253788256845e-05 1.19741789915614e-06)
(1.29658698284738e-24 -2.82850085725996e-05 1.23495014445877e-06)
(1.33091946212715e-24 -2.90361968765748e-05 1.26774773411228e-06)
(1.36056002259486e-24 -2.96818409709015e-05 1.29593716405398e-06)
(1.38500252544108e-24 -3.02160483702086e-05 1.3192611628165e-06)
(1.40384080003919e-24 -3.06295244385204e-05 1.33731391782915e-06)
(1.41773484601854e-24 -3.09325904842934e-05 1.3505460671512e-06)
(1.42752861399523e-24 -3.11434887098553e-05 1.35975408253699e-06)
(1.43344681629443e-24 -3.12697503684363e-05 1.36526678560384e-06)
(1.43612727449854e-24 -3.13293533809931e-05 1.36786910933227e-06)
(1.43629404961934e-24 -3.1336644842265e-05 1.36818746140658e-06)
(1.43478407477946e-24 -3.13050802978756e-05 1.36680932363606e-06)
(1.4320827165271e-24 -3.1244315946832e-05 1.36415629477426e-06)
(1.42852102220856e-24 -3.11648766779625e-05 1.36068790139145e-06)
(1.42434157136972e-24 -3.10744596826866e-05 1.35674021012274e-06)
(1.41983807664744e-24 -3.09774328884087e-05 1.35250392879716e-06)
(1.41517581052679e-24 -3.08773306624607e-05 1.34813337122502e-06)
(1.41056568347659e-24 -3.07770501421053e-05 1.34375502915093e-06)
(1.4062011008925e-24 -3.06795126064967e-05 1.33949644837727e-06)
(1.40207623592799e-24 -3.05888602986007e-05 1.33553848313769e-06)
(1.39849193496999e-24 -3.05119835822032e-05 1.33218197321206e-06)
(-5.08056618921384e-23 -3.04676361903936e-05 1.33024572426611e-06)
(-1.58618555690644e-23 -9.48821732496178e-06 4.14264514928716e-07)
(4.36658751773873e-25 -9.47841144709861e-06 4.13836381056409e-07)
(4.36522579644993e-25 -9.4758282292038e-06 4.13723595327383e-07)
(4.36386172309785e-25 -9.47421557921361e-06 4.1365318550823e-07)
(4.36348419077396e-25 -9.47311689437948e-06 4.13605215892412e-07)
(4.36480343949426e-25 -9.47241322411436e-06 4.13574492985141e-07)
(4.36451327675126e-25 -9.47202898014775e-06 4.13557716531252e-07)
(4.36265516451106e-25 -9.47195329276482e-06 4.13554411948747e-07)
(4.3620351137576e-25 -9.47219084982855e-06 4.13564783914143e-07)
(4.36210104903741e-25 -9.47271909225859e-06 4.13587847476723e-07)
(4.36111979887973e-25 -9.47349395913078e-06 4.13621678894992e-07)
(4.36043112730699e-25 -9.47449311114558e-06 4.13665302814067e-07)
(4.36124813908499e-25 -9.47572978725345e-06 4.13719297259009e-07)
(4.36105919387881e-25 -9.47721341516672e-06 4.13784073852628e-07)
(4.35978066816325e-25 -9.47891461396608e-06 4.13858349796283e-07)
(4.36075928016619e-25 -9.48080898755763e-06 4.13941059933512e-07)
(4.36236701607861e-25 -9.48290766588226e-06 4.14032690208027e-07)
(4.3619716122743e-25 -9.48522987197004e-06 4.14134079915447e-07)
(4.36176164852141e-25 -9.48776958756908e-06 4.14244966293221e-07)
(4.36401164897376e-25 -9.49050852471956e-06 4.14364550871779e-07)
(4.3661086971553e-25 -9.4934479988604e-06 4.14492891084423e-07)
(4.36670554918151e-25 -9.49661543536657e-06 4.14631184348886e-07)
(4.36747426825322e-25 -9.50003063675108e-06 4.14780295261557e-07)
(4.36836559056987e-25 -9.50368086030251e-06 4.1493966746364e-07)
(4.37060535474601e-25 -9.50756053432629e-06 4.15109057689696e-07)
(4.37401528031747e-25 -9.5117069281481e-06 4.15290093153627e-07)
(4.37570648390409e-25 -9.51616650507995e-06 4.15484802487445e-07)
(4.37584033802522e-25 -9.52094245874717e-06 4.15693325127844e-07)
(4.37678115781296e-25 -9.52602711314359e-06 4.15915325933156e-07)
(4.37882643691619e-25 -9.53145441856014e-06 4.16152287205096e-07)
(4.38131393119995e-25 -9.53729830131381e-06 4.16407436636369e-07)
(4.3839053235747e-25 -9.54361044463944e-06 4.1668303076574e-07)
(4.38610044253904e-25 -9.55039633525982e-06 4.16979309148701e-07)
(4.3885979112533e-25 -9.55767815306311e-06 4.17297240180082e-07)
(4.39180590659311e-25 -9.56558197285245e-06 4.17642328404664e-07)
(4.39527097838336e-25 -9.57425899539557e-06 4.18021175390536e-07)
(4.39988752658836e-25 -9.58374056470067e-06 4.18435149646651e-07)
(4.40406171564015e-25 -9.59405156142638e-06 4.18885337486023e-07)
(4.40835225507748e-25 -9.6053713310809e-06 4.19379569302648e-07)
(4.41568381745773e-25 -9.61797622556675e-06 4.19929910881164e-07)
(4.42318526387476e-25 -9.63202433646855e-06 4.20543264649222e-07)
(4.42823173422519e-25 -9.64757093468456e-06 4.21222043786355e-07)
(4.43340348166454e-25 -9.66479553927717e-06 4.21974086264097e-07)
(4.44292145758585e-25 -9.68416707030291e-06 4.22819865574265e-07)
(4.45444472356252e-25 -9.70614482277437e-06 4.23779434970181e-07)
(4.4649302354264e-25 -9.73085481825115e-06 4.24858296671966e-07)
(4.47669029151967e-25 -9.75842374715896e-06 4.26061982103062e-07)
(4.49127106945752e-25 -9.78961349723197e-06 4.27423756000335e-07)
(4.50825082831768e-25 -9.82544472701853e-06 4.28988181278392e-07)
(4.52696178833747e-25 -9.86623018207177e-06 4.30768912702975e-07)
(4.54801215629611e-25 -9.91210601836855e-06 4.32771894972415e-07)
(4.57087851597153e-25 -9.96403630789464e-06 4.35039220378643e-07)
(4.59633621983232e-25 -1.00237269013746e-05 4.37645367972756e-07)
(4.62710511231587e-25 -1.00923189848068e-05 4.40640163011472e-07)
(4.66470624658003e-25 -1.01701629665353e-05 4.44038904653501e-07)
(4.70725573703137e-25 -1.02581901909564e-05 4.47882256273356e-07)
(4.75518717580736e-25 -1.03618592888453e-05 4.52408546837676e-07)
(4.81303529916461e-25 -1.0490827793866e-05 4.580394333724e-07)
(4.88479171368841e-25 -1.06527928535647e-05 4.65110980597098e-07)
(4.97591963909691e-25 -1.08538761458312e-05 4.73890466740627e-07)
(5.09222096076244e-25 -1.11085696915169e-05 4.8501062709801e-07)
(5.24018388232264e-25 -1.14325559594244e-05 4.99156173044306e-07)
(5.41977802992882e-25 -1.18248761364254e-05 5.16285241894254e-07)
(5.62745390937696e-25 -1.22794645405907e-05 5.36133000255446e-07)
(5.86828737680632e-25 -1.28020801383537e-05 5.58950890032546e-07)
(6.14443625805856e-25 -1.34004639180176e-05 5.85076890073909e-07)
(6.45000089237603e-25 -1.4068052649397e-05 6.1422444356112e-07)
(6.78143348304366e-25 -1.47931927852163e-05 6.45884745631894e-07)
(7.13966145697826e-25 -1.55743842978994e-05 6.79992303667866e-07)
(7.52395058966207e-25 -1.64101100576661e-05 7.16480878352325e-07)
(7.92585753260859e-25 -1.72868379900035e-05 7.54759646552517e-07)
(8.33701002752475e-25 -1.81901243950511e-05 7.94197982713458e-07)
(8.75755365857728e-25 -1.91114684012957e-05 8.34424730769324e-07)
(9.18544393321049e-25 -2.00395690458721e-05 8.74946480025649e-07)
(9.60864766987916e-25 -2.09603984438818e-05 9.15150759800753e-07)
(1.00214824347816e-24 -2.18630525532916e-05 9.54561489337944e-07)
(1.04213079497592e-24 -2.2734108760728e-05 9.92592624681044e-07)
(1.07992627699728e-24 -2.35583477898372e-05 1.02857967787406e-06)
(1.11540756138152e-24 -2.43293523444853e-05 1.06224246371685e-06)
(1.14814183499836e-24 -2.50404411710549e-05 1.09328927237668e-06)
(1.17715998971681e-24 -2.56777234445248e-05 1.12111361733535e-06)
(1.2025011955408e-24 -2.62336705829519e-05 1.14538679360643e-06)
(1.22442468286083e-24 -2.67102777920402e-05 1.16619591375228e-06)
(1.24238058485345e-24 -2.71031868725549e-05 1.18335069468493e-06)
(1.25609276411108e-24 -2.74057791059656e-05 1.19656215691247e-06)
(1.26621082090168e-24 -2.76261791816807e-05 1.20618503203533e-06)
(1.27343064243747e-24 -2.77793593007931e-05 1.21287302047064e-06)
(1.27773007428705e-24 -2.78688462812449e-05 1.21678010641521e-06)
(1.27964235970683e-24 -2.79122316200633e-05 1.21867435121643e-06)
(1.27965433121886e-24 -2.79178888152183e-05 1.21892134969111e-06)
(1.27851854399393e-24 -2.78951353581344e-05 1.2179279123004e-06)
(1.2766205473664e-24 -2.78509970478394e-05 1.21600079205452e-06)
(1.27408539016661e-24 -2.77930887055176e-05 1.21347245922648e-06)
(1.27100732631798e-24 -2.77270361962131e-05 1.21058854438877e-06)
(1.26767331040835e-24 -2.76560820441164e-05 1.20749061920494e-06)
(1.26420775419583e-24 -2.7582835050914e-05 1.2042925864165e-06)
(1.26082479794144e-24 -2.75094413263607e-05 1.20108814719892e-06)
(1.25771241440922e-24 -2.74380745462923e-05 1.19797220628878e-06)
(1.25471969168403e-24 -2.73717714120131e-05 1.19507734892836e-06)
(1.25204499894194e-24 -2.73153435562307e-05 1.19261365553858e-06)
(-4.52956591938331e-23 -2.72810492224885e-05 1.19111633258739e-06)
(-2.04601689318611e-23 -1.24449147635027e-05 5.43356712990598e-07)
(5.71904344223806e-25 -1.2432516417383e-05 5.42815389510137e-07)
(5.71786780304906e-25 -1.24298601687281e-05 5.42699415189263e-07)
(5.7163170864495e-25 -1.2427869006452e-05 5.42612479166806e-07)
(5.71588957149997e-25 -1.24262161800422e-05 5.42540315207289e-07)
(5.71760584787152e-25 -1.24248221555109e-05 5.42479450781816e-07)
(5.71712667638628e-25 -1.24236368716096e-05 5.4242770016907e-07)
(5.71445525420056e-25 -1.24226529836744e-05 5.42384742694104e-07)
(5.71330287353638e-25 -1.24218736717064e-05 5.42350717198761e-07)
(5.71298535051767e-25 -1.24212842852178e-05 5.42324984028932e-07)
(5.71120823757564e-25 -1.24208558554122e-05 5.42306278379646e-07)
(5.7097240882066e-25 -1.2420573569452e-05 5.42293953508454e-07)
(5.71016719059902e-25 -1.24204461175931e-05 5.42288388840119e-07)
(5.70922435179176e-25 -1.24204799018975e-05 5.42289863894707e-07)
(5.70674347972554e-25 -1.24206557328909e-05 5.4229754084167e-07)
(5.70717150492802e-25 -1.2420957477158e-05 5.42310715280891e-07)
(5.70840084473714e-25 -1.24213924288094e-05 5.4232970568011e-07)
(5.70691402974541e-25 -1.24219733942758e-05 5.42355071180169e-07)
(5.70556805986474e-25 -1.24226966003761e-05 5.42386647040427e-07)
(5.7074147235354e-25 -1.24235500443067e-05 5.42423909207154e-07)
(5.70902525618462e-25 -1.24245345765879e-05 5.42466894814875e-07)
(5.70857791850416e-25 -1.2425668357511e-05 5.4251639675903e-07)
(5.70827006649729e-25 -1.24269646789954e-05 5.42572995377353e-07)
(5.70804021747482e-25 -1.24284153022572e-05 5.42636330956767e-07)
(5.70951370047594e-25 -1.24300165683357e-05 5.42706243743603e-07)
(5.71247519501049e-25 -1.24317931286978e-05 5.42783810044145e-07)
(5.71308498603974e-25 -1.24337759165935e-05 5.42870380433259e-07)
(5.71151887519485e-25 -1.24359673446026e-05 5.42966060246455e-07)
(5.71090710055967e-25 -1.2438362437421e-05 5.43070632257257e-07)
(5.71165258199398e-25 -1.24409836720584e-05 5.43185077833113e-07)
(5.71286090213798e-25 -1.24438801308581e-05 5.43311539955403e-07)
(5.71406841251907e-25 -1.24470864146724e-05 5.43451529329969e-07)
(5.71460403358404e-25 -1.24506064803002e-05 5.43605218714379e-07)
(5.71538085839889e-25 -1.24544550998498e-05 5.43773253072812e-07)
(5.71690876435131e-25 -1.24587157925343e-05 5.43959278932861e-07)
(5.71853746094154e-25 -1.24634892642188e-05 5.44167693207553e-07)
(5.72145080822865e-25 -1.24687970088118e-05 5.443994343412e-07)
(5.72353088992693e-25 -1.24746557013524e-05 5.44655230381738e-07)
(5.72543724608787e-25 -1.24811842358264e-05 5.44940272352681e-07)
(5.73098383533926e-25 -1.24885664243982e-05 5.45262585666455e-07)