/*--------------------------------*- C++ -*----------------------------------*\
| =========                 |                                                 |
| \\      /  F ield         | OpenFOAM: The Open Source CFD Toolbox           |
|  \\    /   O peration     | Version:  4.1                                   |
|   \\  /    A nd           | Web:      www.OpenFOAM.org                      |
|    \\/     M anipulation  |                                                 |
\*---------------------------------------------------------------------------*/
FoamFile
{
    version     2.0;
    format      ascii;
    class       pointVectorField;
    location    "0.0072";
    object      pointDisplacement_Next;
}
// * * * * * * * * * * * * * * * * * * * * * * * * * * * * * * * * * * * * * //

dimensions      [0 1 0 0 0 0 0];

internalField   uniform (0 0 0);

boundaryField
{
    inlet
    {
        type            fixedValue;
        value           nonuniform 0();
    }
    outlet
    {
        type            fixedValue;
        value           uniform (0 0 0);
    }
    mantle
    {
        type            fixedValue;
        value           nonuniform List<vector> 
416
(
(-3.5426e-06 -5.263e-05 -2.6758e-10)
(-5.5258e-06 -4.5205e-05 -6.6879e-10)
(-5.5513e-06 -4.4309e-05 8.782e-06)
(-3.5801e-06 -5.1564e-05 1.0208e-05)
(-5.5796e-06 -4.1728e-05 1.7284e-05)
(-3.6222e-06 -4.852e-05 2.009e-05)
(-5.5635e-06 -3.7626e-05 2.518e-05)
(-3.5976e-06 -4.3744e-05 2.9278e-05)
(-5.5429e-06 -3.207e-05 3.2069e-05)
(-3.5666e-06 -3.7291e-05 3.7291e-05)
(-5.5636e-06 -2.518e-05 3.7626e-05)
(-3.5977e-06 -2.9278e-05 4.3744e-05)
(-5.5798e-06 -1.7284e-05 4.1728e-05)
(-3.6224e-06 -2.009e-05 4.852e-05)
(-5.5516e-06 -8.7819e-06 4.4309e-05)
(-3.5803e-06 -1.0208e-05 5.1564e-05)
(-5.526e-06 6.37e-10 4.5205e-05)
(-3.5427e-06 2.6478e-10 5.263e-05)
(-7.0655e-06 -3.8332e-05 -3.3192e-10)
(-7.0781e-06 -3.7584e-05 7.453e-06)
(-7.0987e-06 -3.5414e-05 1.4677e-05)
(-7.0863e-06 -3.1949e-05 2.1377e-05)
(-7.0806e-06 -2.7228e-05 2.7228e-05)
(-7.0864e-06 -2.1377e-05 3.1949e-05)
(-7.0989e-06 -1.4677e-05 3.5414e-05)
(-7.0784e-06 -7.4529e-06 3.7584e-05)
(-7.0659e-06 2.8497e-10 3.8332e-05)
(-8.1126e-06 -3.1969e-05 -1.1945e-10)
(-8.1348e-06 -3.1338e-05 6.1974e-06)
(-8.1566e-06 -2.9521e-05 1.2222e-05)
(-8.1415e-06 -2.6655e-05 1.7846e-05)
(-8.1222e-06 -2.2742e-05 2.2742e-05)
(-8.1416e-06 -1.7846e-05 2.6655e-05)
(-8.1569e-06 -1.2222e-05 2.9521e-05)
(-8.1352e-06 -6.1974e-06 3.1337e-05)
(-8.1131e-06 7.8451e-11 3.1969e-05)
(-8.7459e-06 -2.6032e-05 -3.2337e-10)
(-8.7721e-06 -2.5479e-05 5.0077e-06)
(-8.7958e-06 -2.397e-05 9.9148e-06)
(-8.7743e-06 -2.1683e-05 1.4544e-05)
(-8.7489e-06 -1.8554e-05 1.8554e-05)
(-8.7744e-06 -1.4544e-05 2.1683e-05)
(-8.796e-06 -9.9147e-06 2.397e-05)
(-8.7725e-06 -5.0076e-06 2.5479e-05)
(-8.7463e-06 3.1499e-10 2.6031e-05)
(-9.0546e-06 -2.0443e-05 -2.789e-10)
(-9.0588e-06 -1.9976e-05 3.9091e-06)
(-9.0617e-06 -1.8771e-05 7.7708e-06)
(-9.0578e-06 -1.7012e-05 1.1439e-05)
(-9.0532e-06 -1.4602e-05 1.4603e-05)
(-9.0579e-06 -1.1438e-05 1.7012e-05)
(-9.0619e-06 -7.7707e-06 1.8772e-05)
(-9.0592e-06 -3.909e-06 1.9977e-05)
(-9.0551e-06 3.2855e-10 2.0443e-05)
(-9.0374e-06 -1.5194e-05 -2.208e-10)
(-9.0148e-06 -1.4817e-05 2.898e-06)
(-8.9979e-06 -1.3912e-05 5.7663e-06)
(-9.0116e-06 -1.2642e-05 8.5121e-06)
(-9.0328e-06 -1.0889e-05 1.0889e-05)
(-9.0117e-06 -8.5119e-06 1.2642e-05)
(-8.9981e-06 -5.7661e-06 1.3913e-05)
(-9.0152e-06 -2.8978e-06 1.4817e-05)
(-9.0378e-06 3.3346e-10 1.5194e-05)
(-8.7617e-06 -1.0625e-05 -1.5302e-10)
(-8.7677e-06 -1.0436e-05 2.0532e-06)
(-8.7687e-06 -9.8619e-06 4.0871e-06)
(-8.7621e-06 -8.9421e-06 6.0026e-06)
(-8.7538e-06 -7.6494e-06 7.6497e-06)
(-8.7622e-06 -6.0024e-06 8.9425e-06)
(-8.7689e-06 -4.0869e-06 9.8624e-06)
(-8.768e-06 -2.053e-06 1.0436e-05)
(-8.762e-06 3.178e-10 1.0625e-05)
(-8.5621e-06 -7.9795e-06 -8.3208e-11)
(-8.5907e-06 -7.9174e-06 1.5513e-06)
(-8.5902e-06 -7.4962e-06 3.0954e-06)
(-8.5809e-06 -6.7981e-06 4.5603e-06)
(-8.5485e-06 -5.7646e-06 5.7649e-06)
(-8.581e-06 -4.5601e-06 6.7985e-06)
(-8.5903e-06 -3.0952e-06 7.4967e-06)
(-8.5909e-06 -1.5512e-06 7.9179e-06)
(-8.5624e-06 3.0239e-10 7.98e-06)
(-8.4076e-06 -7.7083e-06 -1.0717e-11)
(-8.3507e-06 -7.4362e-06 1.3841e-06)
(-8.293e-06 -6.8808e-06 2.8442e-06)
(-8.3355e-06 -6.3147e-06 4.3245e-06)
(-8.3858e-06 -5.5421e-06 5.5425e-06)
(-8.3356e-06 -4.3243e-06 6.3151e-06)
(-8.2931e-06 -2.844e-06 6.8813e-06)
(-8.3509e-06 -1.3838e-06 7.4368e-06)
(-8.4079e-06 2.7434e-10 7.7089e-06)
(-7.2455e-06 -7.316e-06 4.1813e-11)
(-7.1067e-06 -6.8357e-06 1.21e-06)
(-6.9951e-06 -6.1585e-06 2.5506e-06)
(-7.09e-06 -5.7361e-06 4.0095e-06)
(-7.2209e-06 -5.2305e-06 5.2308e-06)
(-7.0901e-06 -4.0093e-06 5.7365e-06)
(-6.9952e-06 -2.5504e-06 6.159e-06)
(-7.1069e-06 -1.2097e-06 6.8362e-06)
(-7.2458e-06 2.191e-10 7.3166e-06)
(-4.2273e-06 -4.3845e-06 5.1272e-11)
(-4.1652e-06 -4.1426e-06 7.2811e-07)
(-4.1007e-06 -3.7366e-06 1.549e-06)
(-4.1556e-06 -3.4637e-06 2.4294e-06)
(-4.2136e-06 -3.1247e-06 3.1249e-06)
(-4.1556e-06 -2.4292e-06 3.464e-06)
(-4.1008e-06 -1.5489e-06 3.7369e-06)
(-4.1653e-06 -7.2796e-07 4.1429e-06)
(-4.2275e-06 1.2061e-10 4.3848e-06)
(-1.7175e-12 -1.6771e-12 3.0918e-17)
(-7.2078e-09 -2.0492e-08 -1.6696e-08)
(-1.8819e-12 -2.3863e-12 9.15e-13)
(-6.7544e-09 -4.0269e-09 2.6355e-08)
(-1.4604e-12 -2.888e-13 2.8887e-13)
(-6.754e-09 -2.6356e-08 4.027e-09)
(-1.882e-12 -9.1491e-13 2.3864e-12)
(-7.2082e-09 1.6696e-08 2.0493e-08)
(-1.7176e-12 4.7317e-17 1.6772e-12)
(-5.5515e-06 8.7824e-06 4.4309e-05)
(-3.5802e-06 1.0209e-05 5.1564e-05)
(-5.5797e-06 1.7285e-05 4.1728e-05)
(-3.6223e-06 2.009e-05 4.852e-05)
(-5.5634e-06 2.518e-05 3.7625e-05)
(-3.5975e-06 2.9278e-05 4.3744e-05)
(-5.5427e-06 3.207e-05 3.2069e-05)
(-3.5664e-06 3.7291e-05 3.7291e-05)
(-5.5632e-06 3.7626e-05 2.518e-05)
(-3.5973e-06 4.3744e-05 2.9278e-05)
(-5.5794e-06 4.1728e-05 1.7284e-05)
(-3.6219e-06 4.852e-05 2.009e-05)
(-5.5511e-06 4.4309e-05 8.7818e-06)
(-3.5798e-06 5.1564e-05 1.0208e-05)
(-5.5255e-06 4.5204e-05 7.1394e-11)
(-3.5422e-06 5.2629e-05 -2.3804e-10)
(-7.0783e-06 7.4535e-06 3.7583e-05)
(-7.0988e-06 1.4678e-05 3.5414e-05)
(-7.0863e-06 2.1377e-05 3.1949e-05)
(-7.0804e-06 2.7228e-05 2.7227e-05)
(-7.0862e-06 3.1949e-05 2.1376e-05)
(-7.0985e-06 3.5414e-05 1.4677e-05)
(-7.0779e-06 3.7583e-05 7.4528e-06)
(-7.0653e-06 3.8331e-05 -3.228e-10)
(-8.1351e-06 6.1979e-06 3.1337e-05)
(-8.1568e-06 1.2222e-05 2.9521e-05)
(-8.1415e-06 1.7847e-05 2.6655e-05)
(-8.1221e-06 2.2742e-05 2.2741e-05)
(-8.1413e-06 2.6655e-05 1.7846e-05)
(-8.1565e-06 2.9521e-05 1.2222e-05)
(-8.1347e-06 3.1337e-05 6.1972e-06)
(-8.1125e-06 3.1969e-05 -1.1358e-10)
(-8.7724e-06 5.0082e-06 2.5479e-05)
(-8.796e-06 9.9152e-06 2.397e-05)
(-8.7743e-06 1.4544e-05 2.1683e-05)
(-8.7488e-06 1.8554e-05 1.8554e-05)
(-8.7741e-06 2.1683e-05 1.4543e-05)
(-8.7956e-06 2.397e-05 9.9144e-06)
(-8.772e-06 2.5478e-05 5.0074e-06)
(-8.7458e-06 2.6031e-05 -3.3038e-10)
(-9.0591e-06 3.9096e-06 1.9976e-05)
(-9.0618e-06 7.7712e-06 1.8771e-05)
(-9.0578e-06 1.1439e-05 1.7012e-05)
(-9.0531e-06 1.4603e-05 1.4602e-05)
(-9.0576e-06 1.7012e-05 1.1438e-05)
(-9.0615e-06 1.8771e-05 7.7704e-06)
(-9.0587e-06 1.9976e-05 3.9088e-06)
(-9.0545e-06 2.0442e-05 -3.0731e-10)
(-9.0151e-06 2.8984e-06 1.4817e-05)
(-8.998e-06 5.7666e-06 1.3912e-05)
(-9.0116e-06 8.5122e-06 1.2642e-05)
(-9.0327e-06 1.0889e-05 1.0889e-05)
(-9.0115e-06 1.2642e-05 8.5116e-06)
(-8.9978e-06 1.3912e-05 5.7658e-06)
(-9.0147e-06 1.4817e-05 2.8977e-06)
(-9.0373e-06 1.5194e-05 -2.6745e-10)
(-8.768e-06 2.0536e-06 1.0436e-05)
(-8.7689e-06 4.0874e-06 9.862e-06)
(-8.7621e-06 6.0027e-06 8.942e-06)
(-8.7537e-06 7.6495e-06 7.6491e-06)
(-8.762e-06 8.9421e-06 6.0021e-06)
(-8.7687e-06 9.8618e-06 4.0867e-06)
(-8.7677e-06 1.0435e-05 2.0529e-06)
(-8.7616e-06 1.0624e-05 -2.0199e-10)
(-8.5909e-06 1.5517e-06 7.9177e-06)
(-8.5903e-06 3.0957e-06 7.4964e-06)
(-8.581e-06 4.5604e-06 6.7981e-06)
(-8.5485e-06 5.7648e-06 5.7645e-06)
(-8.5809e-06 6.7982e-06 4.5599e-06)
(-8.5902e-06 7.4962e-06 3.0951e-06)
(-8.5906e-06 7.9173e-06 1.5512e-06)
(-8.562e-06 7.9795e-06 -1.2382e-10)
(-8.351e-06 1.3844e-06 7.4366e-06)
(-8.2931e-06 2.8444e-06 6.8811e-06)
(-8.3356e-06 4.3246e-06 6.3148e-06)
(-8.3858e-06 5.5424e-06 5.5421e-06)
(-8.3355e-06 6.3149e-06 4.3242e-06)
(-8.293e-06 6.8809e-06 2.844e-06)
(-8.3507e-06 7.4363e-06 1.3839e-06)
(-8.4075e-06 7.7084e-06 -4.2345e-11)
(-7.1069e-06 1.2102e-06 6.8362e-06)
(-6.9953e-06 2.5508e-06 6.1588e-06)
(-7.0901e-06 4.0096e-06 5.7363e-06)
(-7.2209e-06 5.2308e-06 5.2306e-06)
(-7.09e-06 5.7363e-06 4.0094e-06)
(-6.9951e-06 6.1587e-06 2.5505e-06)
(-7.1067e-06 6.8359e-06 1.2099e-06)
(-7.2455e-06 7.3162e-06 2.1142e-11)
(-4.1653e-06 7.2819e-07 4.1428e-06)
(-4.1008e-06 1.5491e-06 3.7368e-06)
(-4.1557e-06 2.4294e-06 3.4639e-06)
(-4.2136e-06 3.1249e-06 3.1248e-06)
(-4.1556e-06 3.4639e-06 2.4293e-06)
(-4.1007e-06 3.7367e-06 1.549e-06)
(-4.1651e-06 4.1427e-06 7.2807e-07)
(-4.2273e-06 4.3846e-06 4.1797e-11)
(-7.2084e-09 -1.6695e-08 2.0493e-08)
(-1.882e-12 9.1497e-13 2.3864e-12)
(-6.754e-09 2.6356e-08 4.0264e-09)
(-1.4604e-12 2.8883e-13 2.8871e-13)
(-6.7548e-09 4.0272e-09 2.6355e-08)
(-1.8819e-12 2.3864e-12 9.1503e-13)
(-7.2073e-09 2.0492e-08 -1.6696e-08)
(-1.7175e-12 1.6772e-12 2.7495e-17)
(-5.551e-06 4.4309e-05 -8.7824e-06)
(-3.5797e-06 5.1564e-05 -1.0209e-05)
(-5.5791e-06 4.1728e-05 -1.7284e-05)
(-3.6217e-06 4.852e-05 -2.009e-05)
(-5.5629e-06 3.7625e-05 -2.518e-05)
(-3.597e-06 4.3744e-05 -2.9278e-05)
(-5.5422e-06 3.2069e-05 -3.2069e-05)
(-3.566e-06 3.7291e-05 -3.7291e-05)
(-5.5629e-06 2.518e-05 -3.7626e-05)
(-3.5971e-06 2.9278e-05 -4.3744e-05)
(-5.5791e-06 1.7284e-05 -4.1728e-05)
(-3.6218e-06 2.009e-05 -4.852e-05)
(-5.5509e-06 8.7823e-06 -4.4309e-05)
(-3.5797e-06 1.0209e-05 -5.1564e-05)
(-5.5254e-06 6.1687e-10 -4.5205e-05)
(-3.5423e-06 2.201e-10 -5.263e-05)
(-7.0777e-06 3.7583e-05 -7.4534e-06)
(-7.0982e-06 3.5413e-05 -1.4678e-05)
(-7.0857e-06 3.1949e-05 -2.1377e-05)
(-7.0799e-06 2.7228e-05 -2.7228e-05)
(-7.0857e-06 2.1377e-05 -3.1949e-05)
(-7.0981e-06 1.4678e-05 -3.5414e-05)
(-7.0776e-06 7.4534e-06 -3.7584e-05)
(-7.0651e-06 2.8929e-10 -3.8332e-05)
(-8.1345e-06 3.1337e-05 -6.1978e-06)
(-8.1562e-06 2.952e-05 -1.2222e-05)
(-8.1408e-06 2.6655e-05 -1.7846e-05)
(-8.1215e-06 2.2742e-05 -2.2741e-05)
(-8.1407e-06 1.7846e-05 -2.6655e-05)
(-8.156e-06 1.2222e-05 -2.9521e-05)
(-8.1342e-06 6.1978e-06 -3.1337e-05)
(-8.1121e-06 5.3337e-10 -3.1969e-05)
(-8.7718e-06 2.5478e-05 -5.008e-06)
(-8.7953e-06 2.3969e-05 -9.9149e-06)
(-8.7736e-06 2.1683e-05 -1.4544e-05)
(-8.7481e-06 1.8554e-05 -1.8554e-05)
(-8.7735e-06 1.4544e-05 -2.1683e-05)
(-8.795e-06 9.9149e-06 -2.397e-05)
(-8.7714e-06 5.008e-06 -2.5479e-05)
(-8.7453e-06 3.381e-10 -2.6031e-05)
(-9.0585e-06 1.9976e-05 -3.9094e-06)
(-9.0612e-06 1.8771e-05 -7.7709e-06)
(-9.0571e-06 1.7011e-05 -1.1438e-05)
(-9.0524e-06 1.4602e-05 -1.4602e-05)
(-9.0569e-06 1.1439e-05 -1.7012e-05)
(-9.0609e-06 7.7709e-06 -1.8771e-05)
(-9.0581e-06 3.9095e-06 -1.9976e-05)
(-9.054e-06 3.6663e-10 -2.0443e-05)
(-9.0145e-06 1.4816e-05 -2.8982e-06)
(-8.9974e-06 1.3912e-05 -5.7662e-06)
(-9.0109e-06 1.2641e-05 -8.5118e-06)
(-9.032e-06 1.0889e-05 -1.0889e-05)
(-9.0108e-06 8.5119e-06 -1.2642e-05)
(-8.9971e-06 5.7663e-06 -1.3912e-05)
(-9.0141e-06 2.8983e-06 -1.4817e-05)
(-9.0368e-06 3.8369e-10 -1.5194e-05)
(-8.7675e-06 1.0435e-05 -2.0533e-06)
(-8.7682e-06 9.8616e-06 -4.0871e-06)
(-8.7614e-06 8.9418e-06 -6.0023e-06)
(-8.753e-06 7.6492e-06 -7.6492e-06)
(-8.7613e-06 6.0024e-06 -8.9418e-06)
(-8.768e-06 4.0872e-06 -9.8616e-06)
(-8.7671e-06 2.0535e-06 -1.0435e-05)
(-8.7611e-06 3.6454e-10 -1.0624e-05)
(-8.5904e-06 7.9172e-06 -1.5514e-06)
(-8.5897e-06 7.496e-06 -3.0953e-06)
(-8.5803e-06 6.7979e-06 -4.56e-06)
(-8.5478e-06 5.7645e-06 -5.7644e-06)
(-8.5802e-06 4.5601e-06 -6.7979e-06)
(-8.5894e-06 3.0954e-06 -7.496e-06)
(-8.59e-06 1.5516e-06 -7.9172e-06)
(-8.5615e-06 3.3912e-10 -7.9795e-06)
(-8.3505e-06 7.4362e-06 -1.384e-06)
(-8.2926e-06 6.8807e-06 -2.844e-06)
(-8.3349e-06 6.3146e-06 -4.3241e-06)
(-8.385e-06 5.542e-06 -5.5419e-06)
(-8.3348e-06 4.3243e-06 -6.3144e-06)
(-8.2923e-06 2.8442e-06 -6.8805e-06)
(-8.35e-06 1.3842e-06 -7.436e-06)
(-8.4069e-06 3.0697e-10 -7.7082e-06)
(-7.1065e-06 6.8358e-06 -1.2098e-06)
(-6.9948e-06 6.1585e-06 -2.5504e-06)
(-7.0895e-06 5.736e-06 -4.0091e-06)
(-7.2202e-06 5.2304e-06 -5.2302e-06)
(-7.0894e-06 4.0093e-06 -5.7358e-06)
(-6.9945e-06 2.5506e-06 -6.1582e-06)
(-7.1061e-06 1.2101e-06 -6.8354e-06)
(-7.245e-06 2.4628e-10 -7.3158e-06)
(-4.165e-06 4.1426e-06 -7.2797e-07)
(-4.1005e-06 3.7366e-06 -1.5488e-06)
(-4.1553e-06 3.4637e-06 -2.4291e-06)
(-4.2133e-06 3.1247e-06 -3.1245e-06)
(-4.1552e-06 2.4292e-06 -3.4635e-06)
(-4.1004e-06 1.549e-06 -3.7364e-06)
(-4.1648e-06 7.2813e-07 -4.1423e-06)
(-4.227e-06 1.3486e-10 -4.3843e-06)
(-7.2084e-09 2.0493e-08 1.6694e-08)
(-1.8818e-12 2.3864e-12 -9.1488e-13)
(-6.7522e-09 4.025e-09 -2.6353e-08)
(-1.4603e-12 2.8867e-13 -2.8865e-13)
(-6.7532e-09 2.6353e-08 -4.0263e-09)
(-1.8818e-12 9.1496e-13 -2.3862e-12)
(-7.2067e-09 -1.6694e-08 -2.049e-08)
(-1.7174e-12 5.2464e-17 -1.677e-12)
(-5.5509e-06 -8.7819e-06 -4.431e-05)
(-3.5798e-06 -1.0208e-05 -5.1565e-05)
(-5.5792e-06 -1.7284e-05 -4.1729e-05)
(-3.6219e-06 -2.009e-05 -4.8521e-05)
(-5.563e-06 -2.518e-05 -3.7626e-05)
(-3.5972e-06 -2.9278e-05 -4.3745e-05)
(-5.5424e-06 -3.207e-05 -3.207e-05)
(-3.5662e-06 -3.7291e-05 -3.7292e-05)
(-5.5631e-06 -3.7626e-05 -2.5181e-05)
(-3.5973e-06 -4.3744e-05 -2.9279e-05)
(-5.5794e-06 -4.1728e-05 -1.7285e-05)
(-3.6221e-06 -4.852e-05 -2.0091e-05)
(-5.5513e-06 -4.4309e-05 -8.7826e-06)
(-3.58e-06 -5.1564e-05 -1.0209e-05)
(-7.0776e-06 -7.4529e-06 -3.7584e-05)
(-7.0982e-06 -1.4677e-05 -3.5414e-05)
(-7.0858e-06 -2.1377e-05 -3.195e-05)
(-7.08e-06 -2.7228e-05 -2.7228e-05)
(-7.0859e-06 -3.1949e-05 -2.1377e-05)
(-7.0984e-06 -3.5414e-05 -1.4678e-05)
(-7.0779e-06 -3.7584e-05 -7.4536e-06)
(-8.1342e-06 -6.1973e-06 -3.1338e-05)
(-8.156e-06 -1.2222e-05 -2.9521e-05)
(-8.1408e-06 -1.7846e-05 -2.6656e-05)
(-8.1215e-06 -2.2742e-05 -2.2742e-05)
(-8.141e-06 -2.6655e-05 -1.7847e-05)
(-8.1563e-06 -2.9521e-05 -1.2223e-05)
(-8.1346e-06 -3.1337e-05 -6.1981e-06)
(-8.7714e-06 -5.0074e-06 -2.5479e-05)
(-8.7951e-06 -9.9145e-06 -2.397e-05)
(-8.7736e-06 -1.4543e-05 -2.1683e-05)
(-8.7482e-06 -1.8554e-05 -1.8555e-05)
(-8.7737e-06 -2.1683e-05 -1.4544e-05)
(-8.7954e-06 -2.397e-05 -9.9154e-06)
(-8.7719e-06 -2.5479e-05 -5.0083e-06)
(-9.0581e-06 -3.9088e-06 -1.9976e-05)
(-9.0609e-06 -7.7704e-06 -1.8772e-05)
(-9.057e-06 -1.1438e-05 -1.7012e-05)
(-9.0525e-06 -1.4602e-05 -1.4603e-05)
(-9.0572e-06 -1.7011e-05 -1.1439e-05)
(-9.0613e-06 -1.8771e-05 -7.7713e-06)
(-9.0586e-06 -1.9976e-05 -3.9096e-06)
(-9.0141e-06 -2.8976e-06 -1.4817e-05)
(-8.9971e-06 -5.7658e-06 -1.3913e-05)
(-9.0108e-06 -8.5115e-06 -1.2642e-05)
(-9.0321e-06 -1.0888e-05 -1.0889e-05)
(-9.011e-06 -1.2642e-05 -8.5123e-06)
(-8.9975e-06 -1.3912e-05 -5.7666e-06)
(-9.0146e-06 -1.4817e-05 -2.8984e-06)
(-8.7671e-06 -2.0528e-06 -1.0436e-05)
(-8.768e-06 -4.0866e-06 -9.862e-06)
(-8.7613e-06 -6.002e-06 -8.9423e-06)
(-8.753e-06 -7.649e-06 -7.6496e-06)
(-8.7615e-06 -8.9418e-06 -6.0027e-06)
(-8.7683e-06 -9.8617e-06 -4.0874e-06)
(-8.7675e-06 -1.0435e-05 -2.0535e-06)
(-8.59e-06 -1.5509e-06 -7.9174e-06)
(-8.5894e-06 -3.0949e-06 -7.4962e-06)
(-8.5802e-06 -4.5597e-06 -6.7982e-06)
(-8.5478e-06 -5.7642e-06 -5.7647e-06)
(-8.5804e-06 -6.7977e-06 -4.5603e-06)
(-8.5898e-06 -7.4959e-06 -3.0955e-06)
(-8.5905e-06 -7.9172e-06 -1.5515e-06)
(-8.35e-06 -1.3837e-06 -7.4361e-06)
(-8.2923e-06 -2.8437e-06 -6.8807e-06)
(-8.3348e-06 -4.3239e-06 -6.3146e-06)
(-8.3851e-06 -5.5417e-06 -5.5421e-06)
(-8.335e-06 -6.3143e-06 -4.3243e-06)
(-8.2926e-06 -6.8805e-06 -2.8441e-06)
(-8.3505e-06 -7.4361e-06 -1.3841e-06)
(-7.1061e-06 -1.2096e-06 -6.8355e-06)
(-6.9945e-06 -2.5501e-06 -6.1583e-06)
(-7.0894e-06 -4.0089e-06 -5.7359e-06)
(-7.2203e-06 -5.2301e-06 -5.2304e-06)
(-7.0896e-06 -5.7358e-06 -4.0092e-06)
(-6.9948e-06 -6.1583e-06 -2.5504e-06)
(-7.1065e-06 -6.8356e-06 -1.2099e-06)
(-4.1648e-06 -7.2787e-07 -4.1424e-06)
(-4.1004e-06 -1.5487e-06 -3.7365e-06)
(-4.1553e-06 -2.429e-06 -3.4636e-06)
(-4.2133e-06 -3.1245e-06 -3.1246e-06)
(-4.1554e-06 -3.4635e-06 -2.4292e-06)
(-4.1005e-06 -3.7365e-06 -1.5489e-06)
(-4.1651e-06 -4.1425e-06 -7.2799e-07)
(-7.2061e-09 1.6695e-08 -2.049e-08)
(-1.8818e-12 -9.1491e-13 -2.3862e-12)
(-6.7537e-09 -2.6354e-08 -4.027e-09)
(-1.4603e-12 -2.8862e-13 -2.8878e-13)
(-6.7526e-09 -4.0249e-09 -2.6354e-08)
(-1.8819e-12 -2.3863e-12 -9.1485e-13)
(-7.2087e-09 -2.0492e-08 1.6695e-08)
)
;
    }
    procBoundary3to2
    {
        type            processor;
    }
}


// ************************************************************************* //
