/*--------------------------------*- C++ -*----------------------------------*\
| =========                 |                                                 |
| \\      /  F ield         | OpenFOAM: The Open Source CFD Toolbox           |
|  \\    /   O peration     | Version:  4.1                                   |
|   \\  /    A nd           | Web:      www.OpenFOAM.org                      |
|    \\/     M anipulation  |                                                 |
\*---------------------------------------------------------------------------*/
FoamFile
{
    version     2.0;
    format      ascii;
    class       surfaceVectorField;
    location    "0.0072";
    object      Uf;
}
// * * * * * * * * * * * * * * * * * * * * * * * * * * * * * * * * * * * * * //

dimensions      [0 1 -1 0 0 0 0];

internalField   nonuniform List<vector> 
4288
(
(0.051375 -0.0011504 7.5392e-08)
(0.051301 -0.00043298 6.9881e-05)
(0.051301 -0.00043298 -6.9833e-05)
(0.05097 -0.00044975 -1.1063e-05)
(0.05097 -0.00044953 1.1362e-05)
(0.052411 -0.0026695 1.6538e-07)
(0.052025 -0.0014761 0.00020458)
(0.052025 -0.0014761 -0.00020439)
(0.051582 -0.0016241 -4.0893e-05)
(0.051582 -0.0016237 4.1564e-05)
(0.054899 -0.0046309 1.6897e-07)
(0.053851 -0.0029523 0.00034423)
(0.053851 -0.0029523 -0.0003439)
(0.053276 -0.0034379 -8.2629e-05)
(0.053276 -0.003438 8.2967e-05)
(0.059149 -0.0067345 -1.9503e-08)
(0.057229 -0.0047336 0.00047236)
(0.057229 -0.0047337 -0.00047214)
(0.056613 -0.0056757 -0.00013788)
(0.056613 -0.005676 0.00013776)
(0.065052 -0.0086312 -1.8539e-07)
(0.062262 -0.0064666 0.00058621)
(0.062262 -0.0064666 -0.00058645)
(0.061719 -0.007833 -0.00017831)
(0.061719 -0.0078331 0.00017793)
(0.072231 -0.010218 -3.2698e-07)
(0.068761 -0.0079357 0.00068058)
(0.068761 -0.0079356 -0.0006811)
(0.068327 -0.0096133 -0.00019842)
(0.068327 -0.0096132 0.00019804)
(0.08046 -0.011593 -5.7025e-07)
(0.076437 -0.0091849 0.000751)
(0.076437 -0.0091848 -0.00075196)
(0.076086 -0.011117 -0.00020516)
(0.076086 -0.011117 0.00020437)
(0.089678 -0.012856 -8.7026e-07)
(0.08514 -0.010323 0.00079923)
(0.08514 -0.010322 -0.00080096)
(0.084843 -0.012512 -0.00020817)
(0.084843 -0.012512 0.00020707)
(0.099873 -0.014014 -1.1486e-06)
(0.094825 -0.011397 0.00082675)
(0.094824 -0.011397 -0.00082904)
(0.094582 -0.01386 -0.00021056)
(0.094582 -0.01386 0.00020865)
(0.11098 -0.014986 -1.3512e-06)
(0.10544 -0.01237 0.00083163)
(0.10544 -0.012369 -0.00083439)
(0.10529 -0.015107 -0.00020782)
(0.10529 -0.015107 0.00020516)
(0.12285 -0.015657 -1.6083e-06)
(0.11689 -0.013158 0.00079753)
(0.11689 -0.013158 -0.00080082)
(0.11686 -0.016151 -0.00019005)
(0.11686 -0.01615 0.00018823)
(0.12896 -0.013669 0.00070422)
(0.12896 -0.013668 -0.00070822)
(0.12911 -0.016881 -0.00015247)
(0.12911 -0.016882 0.00014827)
(0.051619 -0.00083992 0.00019292)
(0.051483 -0.0003591 0.00011365)
(0.051525 -0.00033695 3.6959e-05)
(0.051232 -0.00037657 7.3366e-05)
(0.052795 -0.0019269 0.00038031)
(0.052284 -0.0011901 0.00035716)
(0.052334 -0.0011351 0.00011083)
(0.051966 -0.0013067 0.00020648)
(0.055356 -0.0032983 0.00057267)
(0.054193 -0.0023133 0.00065387)
(0.054252 -0.0022524 0.00018542)
(0.053793 -0.0026864 0.00034026)
(0.059582 -0.0047572 0.00076647)
(0.057594 -0.0036313 0.00097952)
(0.057656 -0.0035751 0.00028851)
(0.057168 -0.0043258 0.00046733)
(0.065413 -0.0060962 0.00094099)
(0.062591 -0.0049226 0.0012893)
(0.062658 -0.0048796 0.00039317)
(0.062214 -0.0059291 0.00060261)
(0.072535 -0.0072485 0.0010844)
(0.069033 -0.0060394 0.0015529)
(0.069106 -0.006007 0.00048095)
(0.068737 -0.0072828 0.00072431)
(0.080732 -0.00827 0.0011941)
(0.076669 -0.0070007 0.0017733)
(0.076749 -0.006983 0.00054811)
(0.076439 -0.0084422 0.00082394)
(0.089926 -0.0092167 0.0012723)
(0.085347 -0.0078724 0.0019631)
(0.085432 -0.0078804 0.00060015)
(0.085163 -0.0095171 0.00090099)
(0.10008 -0.010089 0.0013217)
(0.095003 -0.0086848 0.0021262)
(0.095095 -0.0087316 0.00064594)
(0.094867 -0.010551 0.0009591)
(0.11113 -0.010835 0.0013348)
(0.10558 -0.0094152 0.0022575)
(0.10568 -0.0095102 0.00068541)
(0.10551 -0.011507 0.0010029)
(0.12291 -0.011379 0.0012926)
(0.11696 -0.010001 0.002336)
(0.11707 -0.010161 0.00071411)
(0.117 -0.012312 0.0010237)
(0.12895 -0.010369 0.002336)
(0.12907 -0.010615 0.00072616)
(0.12912 -0.012877 0.0010064)
(0.05178 -0.00069528 0.00029169)
(0.051598 -0.00029123 0.00016501)
(0.051678 -0.00028347 9.3612e-05)
(0.051398 -0.00033324 0.00013947)
(0.053036 -0.0015693 0.00063757)
(0.052436 -0.00095586 0.00053405)
(0.052537 -0.0009392 0.00030814)
(0.052185 -0.0011285 0.0004611)
(0.055651 -0.002661 0.0010455)
(0.054392 -0.0018425 0.0010051)
(0.054515 -0.0018329 0.00059281)
(0.054075 -0.0022669 0.00090637)
(0.059869 -0.0038301 0.0014684)
(0.05781 -0.0028755 0.0015439)
(0.057942 -0.0028794 0.00090894)
(0.057471 -0.0036024 0.0013999)
(0.065648 -0.0049105 0.001856)
(0.062788 -0.0038908 0.0020662)
(0.062919 -0.0039184 0.0012192)
(0.062486 -0.0049179 0.0018866)
(0.072722 -0.0058414 0.0021913)
(0.069195 -0.004773 0.0025175)
(0.069321 -0.004822 0.001492)
(0.068957 -0.0060378 0.0023047)
(0.080892 -0.0066617 0.002483)
(0.076803 -0.0055338 0.0029032)
(0.076928 -0.0056005 0.0017301)
(0.076618 -0.0069957 0.002665)
(0.090067 -0.0074161 0.0027407)
(0.085464 -0.0062224 0.0032455)
(0.08559 -0.0063118 0.0019475)
(0.085317 -0.0078768 0.0029927)
(0.10019 -0.0081073 0.002965)
(0.095102 -0.0068614 0.0035538)
(0.095232 -0.0069838 0.0021494)
(0.094996 -0.0087152 0.0032963)
(0.11119 -0.0086972 0.0031418)
(0.10565 -0.0074334 0.0038208)
(0.10578 -0.0075959 0.0023305)
(0.1056 -0.0094843 0.0035691)
(0.12291 -0.0091254 0.0032445)
(0.11699 -0.00789 0.0040188)
(0.11712 -0.0081032 0.0024763)
(0.11703 -0.010123 0.0037871)
(0.12893 -0.0081731 0.0041133)
(0.12906 -0.0084509 0.0025678)
(0.12907 -0.010558 0.0039207)
(0.051867 -0.0005506 0.00040832)
(0.051639 -0.00022536 0.00022532)
(0.05176 -0.00022378 0.00015594)
(0.051489 -0.00027348 0.00020418)
(0.053154 -0.0012249 0.0009053)
(0.052487 -0.00073372 0.00073364)
(0.05264 -0.0007349 0.00051416)
(0.052301 -0.00091734 0.00068192)
(0.055795 -0.0020519 0.0015081)
(0.054457 -0.0013968 0.0013965)
(0.054643 -0.0014175 0.00099763)
(0.054223 -0.0018167 0.0013463)
(0.06001 -0.0029332 0.0021442)
(0.057881 -0.0021638 0.0021631)
(0.058082 -0.0022055 0.0015459)
(0.057632 -0.002855 0.0020978)
(0.065768 -0.0037501 0.0027305)
(0.062853 -0.0029147 0.0029133)
(0.063049 -0.0029854 0.0020857)
(0.062635 -0.0038761 0.0028348)
(0.072822 -0.0044585 0.0032358)
(0.06925 -0.0035676 0.0035654)
(0.069432 -0.0036678 0.0025558)
(0.069082 -0.0047523 0.0034661)
(0.080977 -0.0050825 0.003677)
(0.076849 -0.0041292 0.0041262)
(0.077022 -0.0042601 0.0029623)
(0.076724 -0.0055069 0.0040068)
(0.090141 -0.0056509 0.0040748)
(0.085504 -0.0046335 0.00463)
(0.085672 -0.0048017 0.0033345)
(0.08541 -0.0061993 0.0045005)
(0.10025 -0.0061663 0.0044303)
(0.095137 -0.0050958 0.0050919)
(0.095302 -0.0053086 0.003682)
(0.095076 -0.0068496 0.0049594)
(0.11123 -0.0066009 0.0047226)
(0.10568 -0.0055044 0.0055005)
(0.10584 -0.0057653 0.0039919)
(0.10566 -0.0074393 0.0053699)
(0.12292 -0.0069083 0.0049167)
(0.117 -0.0058226 0.005819)
(0.11715 -0.0061382 0.004241)
(0.11706 -0.0079217 0.0056979)
(0.12892 -0.0060054 0.0060023)
(0.12905 -0.0063851 0.0043989)
(0.12907 -0.0082394 0.0059002)
(0.051867 -0.00040835 0.0005505)
(0.051598 -0.00016502 0.00029115)
(0.05176 -0.00015604 0.00022373)
(0.051489 -0.0002043 0.00027342)
(0.053154 -0.00090542 0.0012247)
(0.052436 -0.00053409 0.00095559)
(0.05264 -0.00051444 0.00073476)
(0.052301 -0.00068235 0.00091722)
(0.055795 -0.0015085 0.0020512)
(0.054392 -0.0010054 0.0018418)
(0.054644 -0.00099828 0.0014172)
(0.054223 -0.0013473 0.0018166)
(0.06001 -0.0021451 0.0029319)
(0.057811 -0.0015446 0.0028742)
(0.058082 -0.001547 0.0022047)
(0.057633 -0.0020994 0.0028544)
(0.065768 -0.002732 0.0037479)
(0.062788 -0.0020675 0.0038888)
(0.063049 -0.0020873 0.0029838)
(0.062635 -0.0028369 0.0038746)
(0.072822 -0.003238 0.0044555)
(0.069195 -0.0025194 0.00477)
(0.069432 -0.002558 0.0036655)
(0.069082 -0.0034688 0.0047498)
(0.080977 -0.0036798 0.0050789)
(0.076803 -0.0029056 0.0055299)
(0.077022 -0.0029651 0.0042571)
(0.076724 -0.0040102 0.0055036)
(0.090141 -0.004078 0.0056468)
(0.085464 -0.0032483 0.0062179)
(0.085672 -0.0033377 0.0047982)
(0.08541 -0.0045044 0.0061954)
(0.10025 -0.0044336 0.006162)
(0.095102 -0.0035568 0.0068566)
(0.095302 -0.0036854 0.0053048)
(0.095077 -0.0049634 0.0068451)
(0.11123 -0.0047258 0.0065968)
(0.10565 -0.0038237 0.0074287)
(0.10584 -0.0039952 0.0057614)
(0.10566 -0.0053737 0.0074348)
(0.12292 -0.0049195 0.0069046)
(0.11699 -0.0040214 0.0078856)
(0.11715 -0.0042441 0.0061346)
(0.11706 -0.0057016 0.0079175)
(0.12893 -0.0041155 0.0081693)
(0.12905 -0.0044018 0.0063819)
(0.12907 -0.0059035 0.0082357)
(0.05178 -0.00029182 0.00069493)
(0.051484 -0.00011366 0.00035894)
(0.051678 -9.3827e-05 0.00028339)
(0.051398 -0.00013975 0.0003332)
(0.053037 -0.00063792 0.0015685)
(0.052284 -0.00035736 0.0011895)
(0.052538 -0.0003087 0.00093897)
(0.052185 -0.00046201 0.0011285)
(0.055652 -0.0010462 0.0026596)
(0.054194 -0.00065455 0.0023118)
(0.054516 -0.00059394 0.0018323)
(0.054075 -0.00090831 0.0022669)
(0.05987 -0.0014696 0.003828)
(0.057595 -0.00098054 0.0036289)
(0.057943 -0.00091049 0.0028783)
(0.057471 -0.0014024 0.0036019)
(0.065649 -0.0018577 0.0049074)
(0.062592 -0.0012907 0.0049195)
(0.062919 -0.0012212 0.0039166)
(0.062487 -0.0018896 0.0049165)
(0.072723 -0.0021935 0.0058373)
(0.069034 -0.0015546 0.0060352)
(0.069322 -0.0014945 0.0048193)
(0.068957 -0.0023081 0.0060351)
(0.080892 -0.0024855 0.0066569)
(0.076669 -0.0017752 0.0069955)
(0.076929 -0.001733 0.0055969)
(0.076618 -0.0026686 0.0069919)
(0.090067 -0.0027433 0.0074108)
(0.085347 -0.0019653 0.0078666)
(0.08559 -0.0019504 0.0063075)
(0.085317 -0.0029966 0.0078722)
(0.10019 -0.0029676 0.0081021)
(0.095004 -0.0021283 0.0086788)
(0.095232 -0.0021524 0.0069794)
(0.094996 -0.0033 0.0087102)
(0.11119 -0.0031442 0.0086922)
(0.10558 -0.0022594 0.0094094)
(0.10578 -0.0023334 0.0075916)
(0.1056 -0.0035725 0.0094793)
(0.12291 -0.0032466 0.0091208)
(0.11696 -0.0023379 0.0099956)
(0.11712 -0.0024792 0.0080993)
(0.11703 -0.0037908 0.010118)
(0.12895 -0.0023374 0.010364)
(0.12906 -0.0025705 0.0084476)
(0.12907 -0.0039242 0.010554)
(0.051619 -0.00019291 0.00083953)
(0.051301 -6.9938e-05 0.00043271)
(0.051526 -3.7078e-05 0.00033691)
(0.051233 -7.3561e-05 0.00037664)
(0.052795 -0.0003806 0.0019258)
(0.052026 -0.00020485 0.001475)
(0.052335 -0.00011133 0.0011348)
(0.051967 -0.00020728 0.0013065)
(0.055357 -0.00057326 0.0032963)
(0.053852 -0.00034472 0.0029504)
(0.054252 -0.00018642 0.0022515)
(0.053794 -0.0003416 0.0026855)
(0.059583 -0.00076732 0.0047542)
(0.05723 -0.00047297 0.0047309)
(0.057657 -0.00028979 0.0035735)
(0.057169 -0.00046886 0.0043241)
(0.065414 -0.00094209 0.0060922)
(0.062264 -0.0005871 0.0064629)
(0.062659 -0.00039469 0.0048769)
(0.062215 -0.0006045 0.0059262)
(0.072536 -0.0010856 0.0072436)
(0.068762 -0.00068151 0.0079308)
(0.069107 -0.00048279 0.0060036)
(0.068738 -0.00072647 0.0072788)
(0.080732 -0.0011954 0.0082642)
(0.076438 -0.00075199 0.0091789)
(0.076749 -0.00055018 0.0069789)
(0.07644 -0.00082643 0.0084373)
(0.089926 -0.0012737 0.0092104)
(0.085141 -0.00080031 0.010316)
(0.085432 -0.00060238 0.0078756)
(0.085163 -0.00090389 0.0095115)
(0.10008 -0.0013227 0.010083)
(0.094825 -0.00082765 0.01139)
(0.095095 -0.00064798 0.0087267)
(0.094867 -0.00096161 0.010545)
(0.11112 -0.0013357 0.010829)
(0.10544 -0.00083227 0.012363)
(0.10568 -0.00068722 0.0095056)
(0.10551 -0.0010052 0.011501)
(0.12291 -0.0012931 0.011373)
(0.11689 -0.0007987 0.013152)
(0.11707 -0.00071597 0.010156)
(0.117 -0.0010261 0.012307)
(0.12896 -0.00070515 0.013662)
(0.12907 -0.00072808 0.010612)
(0.12912 -0.0010096 0.012874)
(0.051376 -3.5543e-07 0.0011495)
(0.051302 6.9512e-05 0.00043282)
(0.05097 1.0714e-05 0.00044958)
(0.05097 -1.1252e-05 0.00044942)
(0.052412 -7.2187e-07 0.0026676)
(0.052026 0.00020369 0.0014753)
(0.051582 4.0305e-05 0.0016231)
(0.051583 -4.1572e-05 0.0016228)
(0.0549 -1.0286e-06 0.0046279)
(0.053852 0.00034273 0.0029508)
(0.053277 8.1321e-05 0.0034364)
(0.053277 -8.3393e-05 0.003436)
(0.05915 -1.1892e-06 0.0067304)
(0.05723 0.00047054 0.0047314)
(0.056615 0.00013597 0.0056735)
(0.056615 -0.00013846 0.0056731)
(0.065054 -1.2383e-06 0.0086258)
(0.062264 0.00058441 0.0064634)
(0.06172 0.00017608 0.0078297)
(0.06172 -0.00017876 0.0078293)
(0.072233 -1.2008e-06 0.010212)
(0.068762 0.00067885 0.0079313)
(0.068329 0.00019609 0.0096085)
(0.068329 -0.00019874 0.0096082)
(0.080461 -1.0468e-06 0.011585)
(0.076438 0.00074946 0.0091793)
(0.076087 0.00020248 0.011111)
(0.076087 -0.00020511 0.011111)
(0.089679 -7.695e-07 0.012847)
(0.08514 0.00079845 0.010316)
(0.084843 0.00020561 0.012505)
(0.084843 -0.00020764 0.012505)
(0.099873 -4.874e-07 0.014005)
(0.094824 0.00082657 0.01139)
(0.094582 0.0002082 0.013852)
(0.094582 -0.00020888 0.013853)
(0.11098 -3.3283e-07 0.014978)
(0.10544 0.00083192 0.012363)
(0.10529 0.00020554 0.015099)
(0.10529 -0.00020493 0.015101)
(0.12285 -3.1034e-07 0.015649)
(0.11689 0.00079847 0.013152)
(0.11686 0.00018837 0.016143)
(0.11686 -0.00018863 0.016144)
(0.12896 0.00070497 0.013662)
(0.12911 0.00014828 0.016876)
(0.12911 -0.00014915 0.016876)
(0.051619 -0.00083993 -0.00019287)
(0.051525 -0.00033695 -3.6947e-05)
(0.051483 -0.00035908 -0.0001136)
(0.051232 -0.00037658 -7.3339e-05)
(0.052795 -0.0019269 -0.00038017)
(0.052335 -0.0011351 -0.0001107)
(0.052284 -0.0011901 -0.00035702)
(0.051966 -0.0013066 -0.00020628)
(0.055356 -0.0032982 -0.00057252)
(0.054252 -0.0022523 -0.00018516)
(0.054193 -0.0023131 -0.00065381)
(0.053793 -0.0026859 -0.00033975)
(0.059582 -0.0047571 -0.00076657)
(0.057656 -0.003575 -0.00028831)
(0.057594 -0.0036311 -0.00097957)
(0.057167 -0.0043254 -0.00046688)
(0.065413 -0.0060959 -0.0009415)
(0.062658 -0.0048792 -0.0003932)
(0.062591 -0.0049225 -0.0012898)
(0.062214 -0.0059285 -0.00060256)
(0.072534 -0.0072483 -0.0010852)
(0.069106 -0.0060068 -0.00048153)
(0.069033 -0.0060392 -0.0015537)
(0.068737 -0.0072821 -0.00072469)
(0.080731 -0.0082697 -0.0011954)
(0.076748 -0.0069831 -0.00054932)
(0.076668 -0.0070002 -0.0017746)
(0.076438 -0.0084419 -0.00082479)
(0.089924 -0.0092162 -0.0012743)
(0.085431 -0.0078804 -0.0006021)
(0.085346 -0.007872 -0.0019651)
(0.085162 -0.0095167 -0.0009028)
(0.10008 -0.010088 -0.0013242)
(0.095094 -0.0087315 -0.00064843)
(0.095002 -0.0086843 -0.0021287)
(0.094866 -0.01055 -0.00096145)
(0.11112 -0.010835 -0.0013377)
(0.10568 -0.00951 -0.00068844)
(0.10558 -0.0094146 -0.0022605)
(0.10551 -0.011506 -0.0010058)
(0.1229 -0.011378 -0.001296)
(0.11707 -0.01016 -0.00071768)
(0.11696 -0.010001 -0.0023395)
(0.11699 -0.012311 -0.0010271)
(0.12907 -0.010615 -0.0007305)
(0.12895 -0.010368 -0.0023401)
(0.12912 -0.012877 -0.0010107)
(0.051871 -0.0006772 2.1241e-08)
(0.051719 -0.00029039 2.7793e-05)
(0.051719 -0.0002904 -2.7778e-05)
(0.053154 -0.0015447 8.9174e-08)
(0.052588 -0.00095699 9.5915e-05)
(0.052588 -0.00095701 -9.5806e-05)
(0.055776 -0.002628 1.1065e-07)
(0.054574 -0.001849 0.00019798)
(0.054574 -0.001849 -0.00019783)
(0.060001 -0.0037821 6.3228e-09)
(0.058004 -0.0028892 0.00029426)
(0.058004 -0.0028891 -0.00029421)
(0.065789 -0.004857 -1.794e-07)
(0.062985 -0.0039206 0.00038753)
(0.062985 -0.0039205 -0.00038796)
(0.072878 -0.0057963 -4.6685e-07)
(0.069394 -0.0048257 0.0004704)
(0.069394 -0.0048256 -0.0004713)
(0.081061 -0.0066384 -7.7234e-07)
(0.077008 -0.0056155 0.00054868)
(0.077007 -0.0056153 -0.00054995)
(0.090246 -0.0074204 -1.0751e-06)
(0.085675 -0.0063365 0.00062572)
(0.085674 -0.0063365 -0.00062765)
(0.10039 -0.0081421 -1.3828e-06)
(0.095322 -0.0070095 0.00069596)
(0.095322 -0.0070094 -0.00069861)
(0.11141 -0.0087694 -1.6426e-06)
(0.10588 -0.0076198 0.00075825)
(0.10588 -0.0076197 -0.00076142)
(0.12314 -0.0092479 -1.9645e-06)
(0.11723 -0.0081241 0.00080775)
(0.11723 -0.0081239 -0.00081144)
(0.12917 -0.0084683 0.00083841)
(0.12917 -0.0084681 -0.00084282)
(0.052039 -0.0005555 0.00013826)
(0.05184 -0.00022919 9.5929e-05)
(0.051878 -0.00023098 3.426e-05)
(0.053391 -0.0012472 0.00030788)
(0.052741 -0.00075042 0.00031537)
(0.05279 -0.00075354 0.00010962)
(0.056061 -0.0020986 0.00050364)
(0.054767 -0.0014384 0.00060461)
(0.054828 -0.0014388 0.0002024)
(0.060282 -0.0030085 0.00070067)
(0.058214 -0.0022242 0.0009206)
(0.058278 -0.0022387 0.00030605)
(0.066027 -0.003861 0.00088625)
(0.06318 -0.0030054 0.0012313)
(0.063238 -0.0030358 0.00040699)
(0.073074 -0.0046073 0.0010569)
(0.069558 -0.0036967 0.0015067)
(0.069607 -0.003738 0.00049956)
(0.081232 -0.0052722 0.0012162)
(0.077147 -0.0043034 0.001753)
(0.077188 -0.0043468 0.00058341)
(0.090401 -0.0058856 0.0013623)
(0.085798 -0.0048567 0.0019808)
(0.085833 -0.0048995 0.00065943)
(0.10052 -0.00645 0.0014926)
(0.095431 -0.0053701 0.0021888)
(0.095461 -0.0054163 0.00072849)
(0.1115 -0.0069394 0.0016025)
(0.10597 -0.0058339 0.0023739)
(0.10599 -0.0058839 0.00078965)
(0.12319 -0.0073107 0.0016815)
(0.11728 -0.0062152 0.0025223)
(0.11729 -0.0062692 0.00083844)
(0.12918 -0.0064721 0.0026162)
(0.12917 -0.0065302 0.00086885)
(0.052128 -0.00042165 0.00027538)
(0.051882 -0.00016335 0.00016323)
(0.051961 -0.00016669 9.7378e-05)
(0.053505 -0.00093728 0.00061632)
(0.052792 -0.00053401 0.0005337)
(0.052891 -0.00054046 0.00031774)
(0.056199 -0.0015605 0.0010248)
(0.05483 -0.0010202 0.0010196)
(0.054952 -0.0010246 0.00060763)
(0.060419 -0.0022211 0.0014509)
(0.058283 -0.0015663 0.0015651)
(0.058412 -0.0015831 0.00093654)
(0.066146 -0.0028424 0.0018503)
(0.063244 -0.0021074 0.0021057)
(0.063363 -0.0021384 0.0012619)
(0.073175 -0.0033912 0.0022041)
(0.069614 -0.0025874 0.0025851)
(0.069714 -0.0026311 0.0015497)
(0.081319 -0.0038823 0.0025228)
(0.077194 -0.0030106 0.0030078)
(0.077279 -0.0030605 0.0018003)
(0.090477 -0.0043329 0.0028152)
(0.085839 -0.0033976 0.0033943)
(0.085912 -0.0034504 0.0020286)
(0.10059 -0.0047439 0.00308)
(0.095466 -0.0037539 0.0037505)
(0.095527 -0.003813 0.002241)
(0.11155 -0.0050978 0.0033055)
(0.106 -0.0040734 0.00407)
(0.10604 -0.0041389 0.0024303)
(0.12321 -0.0053625 0.0034708)
(0.1173 -0.0043332 0.0043299)
(0.11732 -0.0044049 0.002583)
(0.12918 -0.0045033 0.0045003)
(0.12917 -0.0045813 0.0026814)
(0.052128 -0.00027565 0.00042147)
(0.05184 -9.6111e-05 0.0002291)
(0.051962 -9.7508e-05 0.00016657)
(0.053506 -0.00061692 0.00093687)
(0.052741 -0.00031587 0.00075016)
(0.052891 -0.00031808 0.00054015)
(0.056199 -0.0010259 0.0015598)
(0.054767 -0.0006056 0.0014378)
(0.054952 -0.00060839 0.0010239)
(0.060419 -0.0014525 0.0022198)
(0.058214 -0.00092202 0.0022232)
(0.058412 -0.0009377 0.001582)
(0.066146 -0.0018523 0.0028403)
(0.06318 -0.0012332 0.0030036)
(0.063363 -0.0012635 0.0021367)
(0.073175 -0.0022067 0.0033886)
(0.069559 -0.0015091 0.0036943)
(0.069714 -0.0015518 0.0026288)
(0.081319 -0.0025257 0.0038791)
(0.077147 -0.0017557 0.0043003)
(0.077279 -0.0018029 0.0030576)
(0.090477 -0.0028184 0.0043294)
(0.085798 -0.0019839 0.004853)
(0.085912 -0.0020315 0.0034471)
(0.10059 -0.0030832 0.0047403)
(0.095431 -0.0021918 0.0053663)
(0.095527 -0.002244 0.0038096)
(0.11155 -0.0033086 0.0050943)
(0.10597 -0.0023769 0.0058301)
(0.10604 -0.0024333 0.0041355)
(0.12321 -0.0034738 0.0053593)
(0.11728 -0.0025253 0.0062117)
(0.11732 -0.0025859 0.0044017)
(0.12918 -0.002619 0.006469)
(0.12917 -0.0026842 0.0045784)
(0.052039 -0.00013868 0.00055532)
(0.05172 -2.8018e-05 0.00029029)
(0.051878 -3.4447e-05 0.00023086)
(0.053391 -0.00030877 0.0012467)
(0.052589 -9.6526e-05 0.00095667)
(0.05279 -0.00011009 0.00075317)
(0.056061 -0.00050501 0.0020978)
(0.054575 -0.00019915 0.0018483)
(0.054828 -0.00020333 0.001438)
(0.060282 -0.00070248 0.0030072)
(0.058005 -0.00029579 0.0028879)
(0.058278 -0.0003073 0.0022375)
(0.066027 -0.00088849 0.0038588)
(0.062986 -0.00038942 0.0039185)
(0.063239 -0.00040867 0.003034)
(0.073075 -0.0010595 0.0046043)
(0.069395 -0.00047255 0.0048228)
(0.069607 -0.00050165 0.0037354)
(0.081232 -0.001219 0.0052686)
(0.077008 -0.00055108 0.0056119)
(0.077188 -0.0005858 0.0043436)
(0.090401 -0.0013652 0.0058817)
(0.085675 -0.00062817 0.0063324)
(0.085834 -0.00066203 0.0048958)
(0.10052 -0.0014953 0.006446)
(0.095323 -0.00069846 0.0070052)
(0.095461 -0.00073104 0.0054124)
(0.1115 -0.0016052 0.0069355)
(0.10588 -0.00076066 0.0076157)
(0.10599 -0.00079215 0.0058802)
(0.12319 -0.0016843 0.0073073)
(0.11723 -0.00081026 0.0081202)
(0.11729 -0.00084098 0.0062657)
(0.12917 -0.00084102 0.008465)
(0.12917 -0.00087144 0.006527)
(0.051871 -4.2786e-07 0.00067696)
(0.051526 3.6625e-05 0.00033689)
(0.05172 2.7617e-05 0.00029025)
(0.053155 -9.0584e-07 0.0015441)
(0.052335 0.00010999 0.0011347)
(0.052589 9.5351e-05 0.00095654)
(0.055777 -1.2858e-06 0.0026269)
(0.054253 0.00018411 0.0022515)
(0.054575 0.00019701 0.0018481)
(0.060001 -1.4516e-06 0.0037803)
(0.057657 0.000287 0.0035736)
(0.058005 0.00029314 0.0028877)
(0.06579 -1.4917e-06 0.0048543)
(0.062659 0.00039175 0.0048771)
(0.062986 0.00038651 0.0039183)
(0.072879 -1.4144e-06 0.0057928)
(0.069107 0.00047984 0.0060037)
(0.069395 0.0004696 0.0048227)
(0.081062 -1.2115e-06 0.0066343)
(0.076749 0.00054746 0.0069791)
(0.077008 0.0005482 0.0056118)
(0.090246 -9.1843e-07 0.007416)
(0.085432 0.0006002 0.0078756)
(0.085674 0.00062591 0.0063324)
(0.10039 -5.7373e-07 0.0081378)
(0.095094 0.00064659 0.0087269)
(0.095322 0.00069675 0.0070052)
(0.11141 -2.8018e-07 0.0087654)
(0.10568 0.00068661 0.0095059)
(0.10588 0.00075963 0.0076158)
(0.12314 -6.7085e-08 0.0092445)
(0.11707 0.00071569 0.010156)
(0.11723 0.00080964 0.0081203)
(0.12906 0.0007282 0.010612)
(0.12917 0.00084078 0.0084651)
(0.051619 0.00019223 0.00083973)
(0.051484 0.00011332 0.00035895)
(0.051233 7.3043e-05 0.00037655)
(0.052796 0.00037916 0.0019262)
(0.052284 0.00035644 0.0011895)
(0.051967 0.0002057 0.0013062)
(0.055357 0.00057118 0.0032969)
(0.054194 0.00065283 0.002312)
(0.053794 0.00033907 0.0026851)
(0.059583 0.00076491 0.004755)
(0.057595 0.00097829 0.0036293)
(0.057169 0.00046599 0.0043239)
(0.065414 0.00093957 0.0060929)
(0.062592 0.0012881 0.0049199)
(0.062215 0.00060142 0.0059262)
(0.072536 0.0010831 0.0072443)
(0.069034 0.0015519 0.0060356)
(0.068738 0.00072342 0.0072788)
(0.080732 0.0011932 0.0082647)
(0.076669 0.0017725 0.0069958)
(0.076439 0.00082354 0.0084376)
(0.089925 0.0012721 0.0092108)
(0.085346 0.001963 0.0078669)
(0.085162 0.0009018 0.0095118)
(0.10008 0.0013219 0.010083)
(0.095002 0.0021266 0.0086791)
(0.094866 0.0009605 0.010545)
(0.11112 0.0013353 0.01083)
(0.10558 0.0022582 0.0094099)
(0.10551 0.001005 0.011502)
(0.1229 0.0012931 0.011373)
(0.11696 0.002337 0.0099958)
(0.11699 0.0010261 0.012307)
(0.12895 0.0023368 0.010364)
(0.12912 0.0010097 0.012875)
(0.05178 -0.00069524 -0.00029153)
(0.051678 -0.00028346 -9.3553e-05)
(0.051598 -0.00029122 -0.00016493)
(0.051398 -0.00033325 -0.00013941)
(0.053036 -0.0015692 -0.00063743)
(0.052537 -0.00093916 -0.00030796)
(0.052436 -0.0009558 -0.00053386)
(0.052184 -0.0011285 -0.00046093)
(0.055651 -0.0026609 -0.0010455)
(0.054515 -0.0018328 -0.00059274)
(0.054392 -0.0018423 -0.001005)
(0.054074 -0.0022667 -0.00090625)
(0.059869 -0.0038301 -0.0014688)
(0.057942 -0.0028792 -0.00090893)
(0.05781 -0.0028753 -0.001544)
(0.05747 -0.0036021 -0.0013998)
(0.065648 -0.0049104 -0.0018569)
(0.062918 -0.0039183 -0.0012196)
(0.062787 -0.0038908 -0.0020669)
(0.062486 -0.0049177 -0.0018871)
(0.072722 -0.0058411 -0.0021925)
(0.069321 -0.0048219 -0.0014929)
(0.069194 -0.0047728 -0.0025187)
(0.068956 -0.0060374 -0.0023057)
(0.080891 -0.0066614 -0.0024848)
(0.076927 -0.0056005 -0.0017316)
(0.076802 -0.0055334 -0.0029046)
(0.076617 -0.0069954 -0.0026662)
(0.090066 -0.0074158 -0.0027432)
(0.085589 -0.0063115 -0.0019496)
(0.085462 -0.0062222 -0.0032477)
(0.085316 -0.0078764 -0.002995)
(0.10019 -0.0081071 -0.002968)
(0.09523 -0.0069836 -0.0021521)
(0.095101 -0.0068612 -0.0035565)
(0.094994 -0.008715 -0.0032991)
(0.11119 -0.0086969 -0.0031452)
(0.10578 -0.0075957 -0.0023337)
(0.10565 -0.0074332 -0.003824)
(0.1056 -0.0094839 -0.0035724)
(0.12291 -0.0091251 -0.0032485)
(0.11712 -0.008103 -0.00248)
(0.11699 -0.0078897 -0.0040224)
(0.11702 -0.010122 -0.003791)
(0.12905 -0.0084507 -0.0025722)
(0.12893 -0.0081729 -0.0041176)
(0.12907 -0.010558 -0.0039252)
(0.052039 -0.00055551 -0.00013818)
(0.051878 -0.00023098 -3.4216e-05)
(0.05184 -0.00022919 -9.5905e-05)
(0.053391 -0.0012471 -0.00030777)
(0.05279 -0.00075352 -0.00010946)
(0.052741 -0.00075041 -0.00031526)
(0.05606 -0.0020985 -0.0005036)
(0.054828 -0.0014388 -0.00020237)
(0.054767 -0.0014383 -0.00060453)
(0.060281 -0.0030086 -0.00070088)
(0.058278 -0.0022387 -0.00030609)
(0.058214 -0.0022241 -0.00092067)
(0.066026 -0.003861 -0.00088692)
(0.063238 -0.0030359 -0.00040737)
(0.063179 -0.0030054 -0.0012318)
(0.073073 -0.0046071 -0.001058)
(0.069606 -0.003738 -0.00050046)
(0.069557 -0.0036967 -0.0015077)
(0.081231 -0.005272 -0.0012179)
(0.077187 -0.0043467 -0.000585)
(0.077146 -0.0043031 -0.0017543)
(0.090399 -0.0058855 -0.0013647)
(0.085833 -0.0048995 -0.00066166)
(0.085797 -0.0048566 -0.0019829)
(0.10052 -0.0064498 -0.0014955)
(0.09546 -0.0054162 -0.00073121)
(0.095429 -0.00537 -0.0021915)
(0.1115 -0.0069392 -0.0016059)
(0.10599 -0.0058839 -0.00079289)
(0.10597 -0.0058338 -0.0023772)
(0.12319 -0.0073105 -0.0016856)
(0.11729 -0.0062692 -0.0008422)
(0.11728 -0.006215 -0.0025261)
(0.12917 -0.0065301 -0.00087328)
(0.12918 -0.0064719 -0.0026206)
(0.05221 -0.00042337 4.2513e-08)
(0.051999 -0.00016755 3.1182e-05)
(0.051999 -0.00016755 -3.1142e-05)
(0.053621 -0.00094097 3.6765e-08)
(0.052941 -0.00054334 0.00010319)
(0.052941 -0.00054334 -0.00010306)
(0.056329 -0.001574 -8.6161e-09)
(0.055013 -0.00103 0.00020121)
(0.055013 -0.00103 -0.00020119)
(0.060546 -0.0022534 -8.0234e-08)
(0.058476 -0.0015915 0.00031295)
(0.058476 -0.0015915 -0.00031305)
(0.066253 -0.0028921 -2.9341e-07)
(0.063422 -0.0021522 0.00042422)
(0.063422 -0.002152 -0.00042466)
(0.073262 -0.0034506 -6.5063e-07)
(0.069762 -0.0026488 0.00051982)
(0.069762 -0.0026487 -0.00052078)
(0.081394 -0.0039462 -9.8138e-07)
(0.077319 -0.0030817 0.00060131)
(0.077319 -0.0030818 -0.00060292)
(0.090544 -0.004403 -1.2344e-06)
(0.085948 -0.0034752 0.00067655)
(0.085948 -0.0034752 -0.00067872)
(0.10064 -0.0048229 -1.4838e-06)
(0.095557 -0.0038414 0.00074741)
(0.095557 -0.0038414 -0.00075017)
(0.11158 -0.0051861 -1.7424e-06)
(0.10606 -0.0041713 0.00081107)
(0.10606 -0.0041712 -0.00081435)
(0.12321 -0.0054606 -2.0334e-06)
(0.11733 -0.0044416 0.00086269)
(0.11733 -0.0044416 -0.00086649)
(0.12916 -0.0046229 0.00089622)
(0.12916 -0.0046228 -0.00090067)
(0.052298 -0.00028375 0.00013801)
(0.052041 -9.9297e-05 9.9168e-05)
(0.052083 -0.0001024 3.3358e-05)
(0.053733 -0.00062766 0.00030896)
(0.052991 -0.00032275 0.0003224)
(0.053041 -0.00032955 0.00010821)
(0.056461 -0.0010447 0.00051691)
(0.055074 -0.00061446 0.00061374)
(0.055134 -0.00061897 0.00020499)
(0.060676 -0.0014901 0.00073731)
(0.058541 -0.00094809 0.00094699)
(0.058605 -0.00095142 0.00031429)
(0.066365 -0.0019095 0.00094363)
(0.063483 -0.0012807 0.0012791)
(0.063541 -0.001283 0.00042302)
(0.073356 -0.002278 0.0011235)
(0.069814 -0.0015742 0.0015721)
(0.069863 -0.0015793 0.0005201)
(0.081474 -0.0026058 0.0012835)
(0.077363 -0.0018296 0.001827)
(0.077404 -0.0018388 0.00060503)
(0.090612 -0.0029073 0.0014313)
(0.085985 -0.0020624 0.0020595)
(0.086019 -0.0020741 0.00068206)
(0.10069 -0.0031831 0.0015665)
(0.095588 -0.0022791 0.0022761)
(0.095614 -0.0022919 0.0007535)
(0.11162 -0.0034201 0.001682)
(0.10608 -0.0024734 0.0024704)
(0.1061 -0.0024872 0.00081707)
(0.12322 -0.0035974 0.0017673)
(0.11734 -0.0026316 0.0026287)
(0.11734 -0.0026464 0.00086848)
(0.12916 -0.0027359 0.0027331)
(0.12914 -0.0027518 0.00090182)
(0.052298 -0.00013824 0.00028352)
(0.051999 -3.1322e-05 0.00016743)
(0.052083 -3.3485e-05 0.00010227)
(0.053733 -0.0003095 0.00062713)
(0.052941 -0.00010355 0.00054299)
(0.053041 -0.00010854 0.00032922)
(0.056461 -0.00051785 0.0010437)
(0.055013 -0.00020198 0.0010292)
(0.055134 -0.00020572 0.00061824)
(0.060676 -0.00073863 0.0014887)
(0.058476 -0.00031408 0.0015904)
(0.058605 -0.00031537 0.0009503)
(0.066365 -0.00094539 0.0019075)
(0.063422 -0.00042569 0.0021504)
(0.063541 -0.00042454 0.0012814)
(0.073356 -0.0011257 0.0022755)
(0.069763 -0.00052172 0.0026465)
(0.069864 -0.00052201 0.0015772)
(0.081475 -0.001286 0.002603)
(0.07732 -0.00060356 0.0030789)
(0.077404 -0.00060731 0.0018363)
(0.090612 -0.001434 0.0029042)
(0.085948 -0.00067901 0.003472)
(0.086019 -0.00068463 0.0020713)
(0.10069 -0.0015693 0.0031799)
(0.095557 -0.00074999 0.003838)
(0.095614 -0.00075613 0.0022889)
(0.11162 -0.0016847 0.003417)
(0.10606 -0.00081365 0.0041679)
(0.1061 -0.00081971 0.0024842)
(0.12322 -0.00177 0.0035944)
(0.11733 -0.00086528 0.0044385)
(0.11734 -0.00087112 0.0026435)
(0.12916 -0.00089882 0.0046199)
(0.12914 -0.00090445 0.002749)
(0.05221 -3.3056e-07 0.0004231)
(0.051878 3.407e-05 0.00023083)
(0.052 3.0989e-05 0.0001674)
(0.053621 -6.528e-07 0.00094038)
(0.052791 0.00010908 0.00075308)
(0.052941 0.00010268 0.00054294)
(0.05633 -9.6246e-07 0.001573)
(0.054828 0.00020156 0.0014379)
(0.055013 0.00020042 0.0010292)
(0.060547 -1.173e-06 0.0022519)
(0.058278 0.00030501 0.0022374)
(0.058476 0.000312 0.0015903)
(0.066253 -1.3186e-06 0.00289)
(0.063238 0.00040604 0.0030338)
(0.063422 0.0004233 0.0021503)
(0.073262 -1.3537e-06 0.0034479)
(0.069607 0.00049881 0.0037353)
(0.069763 0.00051904 0.0026465)
(0.081395 -1.2398e-06 0.003943)
(0.077188 0.00058309 0.0043435)
(0.07732 0.00060089 0.0030789)
(0.090544 -1.076e-06 0.0043995)
(0.085833 0.00065962 0.0048957)
(0.085948 0.00067664 0.0034721)
(0.10064 -8.6197e-07 0.0048194)
(0.09546 0.00072912 0.0054125)
(0.095557 0.00074797 0.0038381)
(0.11158 -6.2595e-07 0.0051828)
(0.10599 0.00079079 0.0058802)
(0.10606 0.00081214 0.004168)
(0.12321 -4.069e-07 0.0054575)
(0.11729 0.00084003 0.0062657)
(0.11733 0.00086419 0.0044385)
(0.12917 0.00087092 0.006527)
(0.12916 0.00089823 0.0046199)
(0.05204 0.00013793 0.00055518)
(0.051678 9.3412e-05 0.0002833)
(0.05184 9.5776e-05 0.00022904)