/*--------------------------------*- C++ -*----------------------------------*\
| =========                 |                                                 |
| \\      /  F ield         | OpenFOAM: The Open Source CFD Toolbox           |
|  \\    /   O peration     | Version:  4.1                                   |
|   \\  /    A nd           | Web:      www.OpenFOAM.org                      |
|    \\/     M anipulation  |                                                 |
\*---------------------------------------------------------------------------*/
FoamFile
{
    version     2.0;
    format      ascii;
    class       pointVectorField;
    location    "0.0077";
    object      pointDisplacement_Next;
}
// * * * * * * * * * * * * * * * * * * * * * * * * * * * * * * * * * * * * * //

dimensions      [0 1 0 0 0 0 0];

internalField   uniform (0 0 0);

boundaryField
{
    inlet
    {
        type            fixedValue;
        value           uniform (0 0 0);
    }
    outlet
    {
        type            fixedValue;
        value           nonuniform 0();
    }
    mantle
    {
        type            fixedValue;
        value           nonuniform List<vector> 
416
(
(3.2999e-12 -1.7648e-12 7.9905e-17)
(8.2604e-06 -4.3132e-06 1.6921e-10)
(8.1361e-06 -3.9611e-06 6.2985e-07)
(1.3924e-08 -3.3533e-08 -2.7165e-08)
(8.0133e-06 -3.4385e-06 1.4257e-06)
(4.0499e-12 -2.9581e-12 1.1073e-12)
(8.1355e-06 -3.2487e-06 2.3594e-06)
(1.3876e-08 -4.6564e-09 4.2973e-08)
(8.2597e-06 -3.0541e-06 3.0543e-06)
(2.1538e-12 2.2409e-13 -2.243e-13)
(8.1356e-06 -2.3594e-06 3.2491e-06)
(1.3875e-08 -4.2975e-08 4.6531e-09)
(8.0135e-06 -1.4257e-06 3.4392e-06)
(4.0499e-12 -1.107e-12 2.9584e-12)
(8.1363e-06 -6.2988e-07 3.962e-06)
(1.3926e-08 2.7162e-08 3.3541e-08)
(8.2607e-06 -1.0163e-10 4.3143e-06)
(3.3e-12 -3.2379e-17 1.7652e-12)
(1.4433e-05 -5.6355e-06 2.4431e-10)
(1.4152e-05 -4.9561e-06 7.501e-07)
(1.3936e-05 -4.1818e-06 1.7341e-06)
(1.4152e-05 -4.04e-06 2.9809e-06)
(1.4433e-05 -3.9933e-06 3.9935e-06)
(1.4152e-05 -2.9811e-06 4.0407e-06)
(1.3936e-05 -1.7344e-06 4.183e-06)
(1.4152e-05 -7.503e-07 4.9579e-06)
(1.4434e-05 -2.0551e-10 5.6377e-06)
(1.7363e-05 -2.3441e-06 2.3822e-10)
(1.7243e-05 -2.1076e-06 2.9371e-07)
(1.7131e-05 -1.7616e-06 7.3061e-07)
(1.7246e-05 -1.704e-06 1.2885e-06)
(1.7367e-05 -1.6664e-06 1.6666e-06)
(1.7246e-05 -1.2889e-06 1.7048e-06)
(1.7131e-05 -7.3116e-07 1.7632e-06)
(1.7244e-05 -2.9412e-07 2.1098e-06)
(1.7363e-05 -2.6627e-10 2.3468e-06)
(1.8925e-05 1.2831e-06 1.7552e-10)
(1.8969e-05 1.081e-06 -2.1943e-07)
(1.8959e-05 9.9163e-07 -4.1218e-07)
(1.8975e-05 9.1744e-07 -6.0936e-07)
(1.8934e-05 9.0447e-07 -9.0444e-07)
(1.8976e-05 6.0881e-07 -9.1664e-07)
(1.896e-05 4.1138e-07 -9.9e-07)
(1.897e-05 2.1882e-07 -1.0786e-06)
(1.8926e-05 -3.0889e-10 -1.2801e-06)
(2.1329e-05 1.1693e-06 8.09e-11)
(2.1318e-05 1.1631e-06 -2.6088e-07)
(2.1301e-05 1.141e-06 -4.7719e-07)
(2.1325e-05 1.0168e-06 -6.4877e-07)
(2.1338e-05 8.4048e-07 -8.4062e-07)
(2.1325e-05 6.4807e-07 -1.0162e-06)
(2.1301e-05 4.7625e-07 -1.1394e-06)
(2.1319e-05 2.6011e-07 -1.1608e-06)
(2.1329e-05 -3.6958e-10 -1.1664e-06)
(2.458e-05 -1.0206e-06 -2.2938e-11)
(2.4499e-05 -7.6126e-07 6.8338e-08)
(2.4436e-05 -5.2003e-07 2.1317e-07)
(2.4504e-05 -5.5943e-07 4.6817e-07)
(2.4586e-05 -6.8731e-07 6.8697e-07)
(2.4504e-05 -4.6898e-07 5.5979e-07)
(2.4436e-05 -2.1417e-07 5.212e-07)
(2.45e-05 -6.9201e-08 7.6321e-07)
(2.4581e-05 -4.3738e-10 1.0231e-06)
(2.7957e-05 -2.2364e-06 -1.1928e-10)
(2.7914e-05 -2.077e-06 3.5379e-07)
(2.7872e-05 -1.8257e-06 7.5904e-07)
(2.7913e-05 -1.678e-06 1.1933e-06)
(2.7957e-05 -1.5316e-06 1.531e-06)
(2.7914e-05 -1.1942e-06 1.6779e-06)
(2.7873e-05 -7.6006e-07 1.8262e-06)
(2.7915e-05 -3.547e-07 2.0781e-06)
(2.7958e-05 -4.8073e-10 2.2379e-06)
(3.1394e-05 -1.9041e-06 -2.1678e-10)
(3.1389e-05 -1.8844e-06 3.7239e-07)
(3.1376e-05 -1.7718e-06 7.4211e-07)
(3.1376e-05 -1.5613e-06 1.054e-06)
(3.1378e-05 -1.3046e-06 1.3038e-06)
(3.1376e-05 -1.055e-06 1.5606e-06)
(3.1377e-05 -7.431e-07 1.7715e-06)
(3.1389e-05 -3.7331e-07 1.8844e-06)
(3.1395e-05 -5.1822e-10 1.9044e-06)
(3.5014e-05 -2.5903e-07 1.2624e-10)
(3.5011e-05 -2.6761e-07 5.5135e-08)
(3.5001e-05 -2.6821e-07 1.1378e-07)
(3.498e-05 -2.4084e-07 1.6073e-07)
(3.497e-05 -1.9831e-07 1.9664e-07)
(3.498e-05 -1.6168e-07 2.3969e-07)
(3.5001e-05 -1.147e-07 2.6696e-07)
(3.5012e-05 -5.604e-08 2.6632e-07)
(3.5015e-05 -9.9756e-10 2.5785e-07)
(3.8755e-05 2.7653e-06 -4.2684e-10)
(3.8749e-05 2.7256e-06 -5.531e-07)
(3.872e-05 2.5486e-06 -1.0625e-06)
(3.8706e-05 2.2257e-06 -1.4908e-06)
(3.8687e-05 1.8556e-06 -1.8568e-06)
(3.8706e-05 1.4899e-06 -2.2273e-06)
(3.8721e-05 1.0617e-06 -2.5507e-06)
(3.875e-05 5.5223e-07 -2.7279e-06)
(3.8756e-05 -5.6186e-10 -2.7677e-06)
(4.2477e-05 7.0269e-06 -6.7535e-10)
(4.2452e-05 6.8788e-06 -1.3945e-06)
(4.2415e-05 6.4138e-06 -2.6816e-06)
(4.2402e-05 5.6729e-06 -3.7942e-06)
(4.2407e-05 4.7704e-06 -4.7719e-06)
(4.2402e-05 3.7933e-06 -5.6749e-06)
(4.2415e-05 2.6809e-06 -6.4164e-06)
(4.2452e-05 1.3936e-06 -6.8819e-06)
(4.2478e-05 -4.0031e-10 -7.0302e-06)
(4.5977e-05 1.1784e-05 -6.0923e-10)
(4.5942e-05 1.1506e-05 -2.3052e-06)
(4.5901e-05 1.0706e-05 -4.4631e-06)
(4.5898e-05 9.5077e-06 -6.3658e-06)
(4.5915e-05 8.0302e-06 -8.0315e-06)
(4.5898e-05 6.3651e-06 -9.5098e-06)
(4.5901e-05 4.4625e-06 -1.0709e-05)
(4.5942e-05 2.3044e-06 -1.1509e-05)
(4.5978e-05 -5.0686e-10 -1.1787e-05)
(8.1363e-06 6.297e-07 3.9621e-06)
(1.3924e-08 -2.7164e-08 3.3541e-08)
(8.0136e-06 1.4256e-06 3.4393e-06)
(4.05e-12 1.107e-12 2.9583e-12)
(8.1357e-06 2.3594e-06 3.2492e-06)
(1.3877e-08 4.2976e-08 4.6542e-09)
(8.2598e-06 3.0542e-06 3.0544e-06)
(2.1538e-12 -2.2408e-13 -2.2407e-13)
(8.1357e-06 3.2488e-06 2.3595e-06)
(1.3877e-08 4.6555e-09 4.2973e-08)
(8.0135e-06 3.4387e-06 1.4257e-06)
(4.0499e-12 2.9582e-12 1.1073e-12)
(8.1362e-06 3.9614e-06 6.2982e-07)
(1.3924e-08 3.3534e-08 -2.7165e-08)
(8.2606e-06 4.3136e-06 6.1165e-11)
(3.2999e-12 1.765e-12 3.507e-17)
(1.4152e-05 7.4993e-07 4.958e-06)
(1.3936e-05 1.7341e-06 4.1832e-06)
(1.4152e-05 2.9809e-06 4.041e-06)
(1.4433e-05 3.9933e-06 3.9937e-06)
(1.4152e-05 4.0402e-06 2.9811e-06)
(1.3936e-05 4.1821e-06 1.7342e-06)
(1.4152e-05 4.9567e-06 7.5007e-07)
(1.4433e-05 5.6363e-06 5.5395e-11)
(1.7244e-05 2.9363e-07 2.11e-06)
(1.7131e-05 7.308e-07 1.7635e-06)
(1.7246e-05 1.2887e-06 1.7052e-06)
(1.7367e-05 1.6665e-06 1.6669e-06)
(1.7246e-05 1.7042e-06 1.2888e-06)
(1.7131e-05 1.7621e-06 7.3075e-07)
(1.7243e-05 2.1083e-06 2.9369e-07)
(1.7363e-05 2.3451e-06 2.0329e-12)
(1.897e-05 -2.1939e-07 -1.0784e-06)
(1.896e-05 -4.118e-07 -9.8953e-07)
(1.8976e-05 -6.0901e-07 -9.1613e-07)
(1.8934e-05 -9.0444e-07 -9.0399e-07)
(1.8975e-05 -9.172e-07 -6.0901e-07)
(1.8959e-05 -9.9117e-07 -4.1198e-07)
(1.897e-05 -1.0803e-06 -2.1944e-07)
(1.8925e-05 -1.2821e-06 -7.8595e-11)
(2.1319e-05 -2.6077e-07 -1.1604e-06)
(2.1301e-05 -4.7669e-07 -1.1388e-06)
(2.1325e-05 -6.4823e-07 -1.0155e-06)
(2.1338e-05 -8.4039e-07 -8.3996e-07)
(2.1325e-05 -1.0166e-06 -6.483e-07)
(2.1301e-05 -1.1406e-06 -4.7694e-07)
(2.1318e-05 -1.1626e-06 -2.6088e-07)
(2.1329e-05 -1.1686e-06 -1.7811e-10)
(2.45e-05 6.8442e-08 7.637e-07)
(2.4436e-05 2.1369e-07 5.2203e-07)
(2.4504e-05 4.6883e-07 5.6073e-07)
(2.4586e-05 6.8741e-07 6.8779e-07)
(2.4504e-05 5.5962e-07 4.6871e-07)
(2.4436e-05 5.202e-07 2.134e-07)
(2.45e-05 7.6138e-07 6.831e-08)
(2.458e-05 1.0208e-06 -2.6646e-10)
(2.7915e-05 3.5386e-07 2.0787e-06)
(2.7873e-05 7.5951e-07 1.8271e-06)
(2.7914e-05 1.1939e-06 1.6789e-06)
(2.7957e-05 1.5316e-06 1.5319e-06)
(2.7913e-05 1.6779e-06 1.1938e-06)
(2.7872e-05 1.8254e-06 7.592e-07)
(2.7914e-05 2.0765e-06 3.537e-07)
(2.7958e-05 2.2357e-06 -3.2921e-10)
(3.1389e-05 3.7238e-07 1.885e-06)
(3.1377e-05 7.4243e-07 1.7724e-06)
(3.1376e-05 1.0545e-06 1.5616e-06)
(3.1378e-05 1.3043e-06 1.3045e-06)
(3.1376e-05 1.5609e-06 1.0544e-06)
(3.1376e-05 1.7711e-06 7.4213e-07)
(3.1389e-05 1.8833e-06 3.7224e-07)
(3.1395e-05 1.9026e-06 -3.8708e-10)
(3.5012e-05 5.5042e-08 2.6684e-07)
(3.5001e-05 1.1391e-07 2.6777e-07)
(3.498e-05 1.6107e-07 2.4048e-07)
(3.497e-05 1.9771e-07 1.9716e-07)
(3.498e-05 2.4007e-07 1.6092e-07)
(3.5001e-05 2.6706e-07 1.1372e-07)
(3.5011e-05 2.6596e-07 5.4965e-08)
(3.5014e-05 2.5702e-07 6.129e-12)
(3.875e-05 -5.5326e-07 -2.7275e-06)
(3.8721e-05 -1.0626e-06 -2.5501e-06)
(3.8706e-05 -1.4907e-06 -2.2268e-06)
(3.8687e-05 -1.8565e-06 -1.8565e-06)
(3.8705e-05 -2.2268e-06 -1.4908e-06)
(3.872e-05 -2.5501e-06 -1.0626e-06)
(3.8749e-05 -2.7275e-06 -5.5324e-07)
(3.8755e-05 -2.7676e-06 -4.8945e-10)
(4.2452e-05 -1.3947e-06 -6.8816e-06)
(4.2415e-05 -2.6818e-06 -6.416e-06)
(4.2402e-05 -3.7942e-06 -5.6745e-06)
(4.2406e-05 -4.7715e-06 -4.7718e-06)
(4.2402e-05 -5.6742e-06 -3.7942e-06)
(4.2415e-05 -6.4154e-06 -2.6817e-06)
(4.2452e-05 -6.8809e-06 -1.3946e-06)
(4.2477e-05 -7.0293e-06 -3.7212e-10)
(4.5942e-05 -2.3053e-06 -1.1509e-05)
(4.5901e-05 -4.4633e-06 -1.0709e-05)
(4.5897e-05 -6.3661e-06 -9.5097e-06)
(4.5915e-05 -8.0314e-06 -8.0315e-06)
(4.5897e-05 -9.5091e-06 -6.366e-06)
(4.5901e-05 -1.0708e-05 -4.4631e-06)
(4.5941e-05 -1.1508e-05 -2.3052e-06)
(4.5977e-05 -1.1786e-05 -5.1078e-10)
(8.1361e-06 3.9614e-06 -6.2969e-07)
(1.3927e-08 3.3537e-08 2.7165e-08)
(8.0132e-06 3.4388e-06 -1.4256e-06)
(4.0498e-12 2.9582e-12 -1.107e-12)
(8.1353e-06 3.2487e-06 -2.3593e-06)
(1.3873e-08 4.6553e-09 -4.2973e-08)
(8.2594e-06 3.0541e-06 -3.0541e-06)
(2.1536e-12 -2.2422e-13 2.2409e-13)
(8.1352e-06 2.3593e-06 -3.2487e-06)
(1.3874e-08 4.2973e-08 -4.6568e-09)
(8.0131e-06 1.4255e-06 -3.4387e-06)
(4.0497e-12 1.1071e-12 -2.9581e-12)
(8.1358e-06 6.297e-07 -3.9613e-06)
(1.3924e-08 -2.7165e-08 -3.3536e-08)
(8.2602e-06 6.6829e-12 -4.3133e-06)
(3.2998e-12 1.2681e-17 -1.7649e-12)
(1.4152e-05 4.9568e-06 -7.4996e-07)
(1.3936e-05 4.1822e-06 -1.7341e-06)
(1.4152e-05 4.0402e-06 -2.9809e-06)
(1.4433e-05 3.9932e-06 -3.9933e-06)
(1.4152e-05 2.9807e-06 -4.0403e-06)
(1.3936e-05 1.734e-06 -4.1821e-06)
(1.4151e-05 7.4989e-07 -4.9565e-06)
(1.4433e-05 -1.7768e-11 -5.6359e-06)
(1.7243e-05 2.1084e-06 -2.9371e-07)
(1.7131e-05 1.7622e-06 -7.3078e-07)
(1.7246e-05 1.7043e-06 -1.2887e-06)
(1.7366e-05 1.6664e-06 -1.6666e-06)
(1.7245e-05 1.2885e-06 -1.7044e-06)
(1.713e-05 7.3054e-07 -1.7622e-06)
(1.7243e-05 2.9354e-07 -2.1082e-06)
(1.7362e-05 -3.4741e-11 -2.3447e-06)
(1.8969e-05 -1.0802e-06 2.1925e-07)
(1.8959e-05 -9.9103e-07 4.1178e-07)
(1.8975e-05 -9.1713e-07 6.0893e-07)
(1.8933e-05 -9.0453e-07 9.0422e-07)
(1.8975e-05 -6.0931e-07 9.169e-07)
(1.8959e-05 -4.1216e-07 9.9094e-07)
(1.8969e-05 -2.1955e-07 1.0804e-06)
(1.8925e-05 -6.0678e-11 1.2825e-06)
(2.1318e-05 -1.1626e-06 2.6052e-07)
(2.1301e-05 -1.1406e-06 4.7666e-07)
(2.1324e-05 -1.0168e-06 6.4823e-07)
(2.1337e-05 -8.4075e-07 8.4031e-07)
(2.1324e-05 -6.4873e-07 1.0164e-06)
(2.13e-05 -4.7718e-07 1.1405e-06)
(2.1318e-05 -2.6099e-07 1.1627e-06)
(2.1328e-05 -1.1618e-10 1.1691e-06)
(2.4499e-05 7.6121e-07 -6.879e-08)
(2.4436e-05 5.1985e-07 -2.1371e-07)
(2.4503e-05 5.5908e-07 -4.6869e-07)
(2.4585e-05 6.8671e-07 -6.8728e-07)
(2.4503e-05 4.6808e-07 -5.5957e-07)
(2.4435e-05 2.1308e-07 -5.2015e-07)
(2.4499e-05 6.8173e-08 -7.6117e-07)
(2.4579e-05 -2.0246e-10 -1.0202e-06)
(2.7914e-05 2.0762e-06 -3.5429e-07)
(2.7872e-05 1.8249e-06 -7.5956e-07)
(2.7913e-05 1.6772e-06 -1.1938e-06)
(2.7956e-05 1.5307e-06 -1.5314e-06)
(2.7913e-05 1.1931e-06 -1.6778e-06)
(2.7872e-05 7.5884e-07 -1.8254e-06)
(2.7914e-05 3.5355e-07 -2.0764e-06)
(2.7957e-05 -2.9401e-10 -2.2354e-06)
(3.1389e-05 1.883e-06 -3.7294e-07)
(3.1376e-05 1.7705e-06 -7.4262e-07)
(3.1376e-05 1.5601e-06 -1.0545e-06)
(3.1377e-05 1.3035e-06 -1.3042e-06)
(3.1376e-05 1.0538e-06 -1.5609e-06)
(3.1376e-05 7.4184e-07 -1.7712e-06)
(3.1388e-05 3.7211e-07 -1.8834e-06)
(3.1394e-05 -3.8925e-10 -1.9027e-06)
(3.5011e-05 2.657e-07 -5.5792e-08)
(3.5e-05 2.6661e-07 -1.144e-07)
(3.4979e-05 2.3953e-07 -1.6139e-07)
(3.4969e-05 1.9716e-07 -1.9735e-07)
(3.4979e-05 1.6056e-07 -2.4038e-07)
(3.5e-05 1.1353e-07 -2.6744e-07)
(3.501e-05 5.4875e-08 -2.6639e-07)
(3.5013e-05 -9.041e-10 -2.5743e-07)
(3.8749e-05 -2.7277e-06 5.523e-07)
(3.872e-05 -2.5503e-06 1.0618e-06)
(3.8705e-05 -2.227e-06 1.4899e-06)
(3.8687e-05 -1.8566e-06 1.8557e-06)
(3.8705e-05 -1.4909e-06 2.2261e-06)
(3.872e-05 -1.0627e-06 2.5494e-06)
(3.8749e-05 -5.5329e-07 2.7267e-06)
(3.8755e-05 -5.1193e-10 2.7668e-06)
(4.2452e-05 -6.8809e-06 1.3935e-06)
(4.2415e-05 -6.4154e-06 2.6807e-06)
(4.2402e-05 -5.674e-06 3.7931e-06)
(4.2406e-05 -4.7712e-06 4.7705e-06)
(4.2402e-05 -3.794e-06 5.6731e-06)
(4.2415e-05 -2.6816e-06 6.4144e-06)
(4.2451e-05 -1.3946e-06 6.8796e-06)
(4.2477e-05 -4.2386e-10 7.028e-06)
(4.5941e-05 -1.1508e-05 2.3042e-06)
(4.5901e-05 -1.0707e-05 4.462e-06)
(4.5897e-05 -9.5087e-06 6.3646e-06)
(4.5914e-05 -8.0308e-06 8.0298e-06)
(4.5897e-05 -6.3655e-06 9.5077e-06)
(4.5901e-05 -4.463e-06 1.0706e-05)
(4.5941e-05 -2.3051e-06 1.1506e-05)
(4.5977e-05 -6.0116e-10 1.1784e-05)
(8.1358e-06 -6.2964e-07 -3.961e-06)
(1.3924e-08 2.7161e-08 -3.3534e-08)
(8.0131e-06 -1.4254e-06 -3.4383e-06)
(4.0497e-12 -1.107e-12 -2.9582e-12)
(8.1353e-06 -2.359e-06 -3.2482e-06)
(1.3876e-08 -4.2971e-08 -4.6524e-09)
(8.2594e-06 -3.0537e-06 -3.0536e-06)
(2.1537e-12 2.2454e-13 2.2462e-13)
(8.1353e-06 -3.2482e-06 -2.3589e-06)
(1.3874e-08 -4.6528e-09 -4.2971e-08)
(8.0132e-06 -3.4382e-06 -1.4252e-06)
(4.0498e-12 -2.9581e-12 -1.107e-12)
(8.136e-06 -3.9609e-06 -6.2948e-07)
(1.3924e-08 -3.3535e-08 2.7164e-08)
(1.4151e-05 -7.4984e-07 -4.9561e-06)
(1.3936e-05 -1.7337e-06 -4.1813e-06)
(1.4152e-05 -2.9802e-06 -4.0393e-06)
(1.4433e-05 -3.9924e-06 -3.9923e-06)
(1.4152e-05 -4.0393e-06 -2.98e-06)
(1.3936e-05 -4.1812e-06 -1.7335e-06)
(1.4152e-05 -4.9558e-06 -7.4957e-07)
(1.7243e-05 -2.935e-07 -2.1075e-06)
(1.713e-05 -7.3021e-07 -1.761e-06)
(1.7246e-05 -1.2877e-06 -1.703e-06)
(1.7367e-05 -1.6653e-06 -1.6652e-06)
(1.7246e-05 -1.703e-06 -1.2876e-06)
(1.713e-05 -1.7609e-06 -7.2995e-07)
(1.7243e-05 -2.1072e-06 -2.9319e-07)
(1.8969e-05 2.1954e-07 1.0812e-06)
(1.8959e-05 4.1248e-07 9.9237e-07)
(1.8975e-05 6.1008e-07 9.1856e-07)
(1.8933e-05 9.057e-07 9.0579e-07)
(1.8975e-05 9.185e-07 6.1023e-07)
(1.8959e-05 9.924e-07 4.1272e-07)
(1.8969e-05 1.0814e-06 2.1982e-07)
(2.1318e-05 2.6089e-07 1.1636e-06)
(2.13e-05 4.7745e-07 1.142e-06)
(2.1324e-05 6.4946e-07 1.0182e-06)
(2.1337e-05 8.4181e-07 8.4193e-07)
(2.1324e-05 1.0179e-06 6.4953e-07)
(2.13e-05 1.1417e-06 4.7757e-07)
(2.1318e-05 1.1635e-06 2.6108e-07)
(2.4499e-05 -6.842e-08 -7.6034e-07)
(2.4435e-05 -2.1296e-07 -5.1876e-07)
(2.4503e-05 -4.6759e-07 -5.5799e-07)
(2.4585e-05 -6.8599e-07 -6.8584e-07)
(2.4503e-05 -5.5841e-07 -4.6761e-07)
(2.4435e-05 -5.1939e-07 -2.1299e-07)
(2.4499e-05 -7.6096e-07 -6.8335e-08)
(2.7914e-05 -3.5399e-07 -2.0757e-06)
(2.7871e-05 -7.5898e-07 -1.8242e-06)
(2.7912e-05 -1.193e-06 -1.6766e-06)
(2.7956e-05 -1.5306e-06 -1.5304e-06)
(2.7912e-05 -1.6772e-06 -1.1931e-06)
(2.7871e-05 -1.8253e-06 -7.5915e-07)
(2.7914e-05 -2.0769e-06 -3.5401e-07)
(3.1388e-05 -3.7276e-07 -1.8828e-06)
(3.1375e-05 -7.4228e-07 -1.7703e-06)
(3.1375e-05 -1.0541e-06 -1.5601e-06)
(3.1377e-05 -1.304e-06 -1.3038e-06)
(3.1375e-05 -1.561e-06 -1.0543e-06)
(3.1375e-05 -1.7717e-06 -7.4257e-07)
(3.1388e-05 -1.8845e-06 -3.7285e-07)
(3.501e-05 -5.5725e-08 -2.6605e-07)
(3.5e-05 -1.1429e-07 -2.6695e-07)
(3.4979e-05 -1.6137e-07 -2.4005e-07)
(3.4969e-05 -1.982e-07 -1.9731e-07)
(3.4979e-05 -2.4096e-07 -1.6155e-07)
(3.5e-05 -2.6844e-07 -1.1458e-07)
(3.5011e-05 -2.6778e-07 -5.5836e-08)
(3.8749e-05 5.5227e-07 2.7269e-06)
(3.8719e-05 1.0617e-06 2.5495e-06)
(3.8705e-05 1.4897e-06 2.2261e-06)
(3.8686e-05 1.8553e-06 1.8555e-06)
(3.8705e-05 2.2252e-06 1.4896e-06)
(3.872e-05 2.5482e-06 1.0614e-06)
(3.8749e-05 2.7253e-06 5.5217e-07)
(4.2451e-05 1.3934e-06 6.8796e-06)
(4.2414e-05 2.6804e-06 6.4143e-06)
(4.2401e-05 3.7927e-06 5.6729e-06)
(4.2406e-05 4.7697e-06 4.7702e-06)
(4.2402e-05 5.6721e-06 3.7926e-06)
(4.2415e-05 6.4132e-06 2.6803e-06)
(4.2452e-05 6.8784e-06 1.3933e-06)
(4.5941e-05 2.3039e-06 1.1506e-05)
(4.59e-05 4.4617e-06 1.0706e-05)
(4.5897e-05 6.3641e-06 9.5073e-06)
(4.5914e-05 8.0292e-06 8.0294e-06)
(4.5897e-05 9.5068e-06 6.3641e-06)
(4.5901e-05 1.0705e-05 4.4616e-06)
(4.5941e-05 1.1506e-05 2.3039e-06)
)
;
    }
    procBoundary0to1
    {
        type            processor;
    }
}


// ************************************************************************* //
