/*--------------------------------*- C++ -*----------------------------------*\
| =========                 |                                                 |
| \\      /  F ield         | foam-extend: Open Source CFD                    |
|  \\    /   O peration     | Version:     4.1-20200408                       |
|   \\  /    A nd           | Web:         http://www.foam-extend.org         |
|    \\/     M anipulation  |                                                 |
\*---------------------------------------------------------------------------*/
FoamFile
{
    version     2.0;
    format      ascii;
    class       volScalarField;
    location    "0.0205000";
    object      J;
}
// * * * * * * * * * * * * * * * * * * * * * * * * * * * * * * * * * * * * * //

dimensions      [0 0 0 0 0 0 0];

internalField   nonuniform List<scalar> 
1952
(
1.00085
1.00085
1.00084
1.00084
1.00083
1.00082
1.00081
1.00081
1.00081
1.00084
1.00088
1.00099
1.00114
1.00148
1.00188
1.00085
1.00077
1.00077
1.00077
1.00076
1.00075
1.00075
1.00074
1.00074
1.00074
1.00077
1.00081
1.00092
1.00107
1.0014
1.00178
1.00078
1.00071
1.00071
1.0007
1.0007
1.00069
1.00068
1.00067
1.00068
1.00068
1.00071
1.00076
1.00087
1.00102
1.00136
1.00176
1.00071
1.00065
1.00065
1.00064
1.00064
1.00063
1.00063
1.00062
1.00063
1.00063
1.00067
1.00071
1.00083
1.00099
1.00134
1.00175
1.00065
1.00059
1.00059
1.00059
1.00059
1.00058
1.00058
1.00057
1.00058
1.00059
1.00063
1.00068
1.0008
1.00097
1.00132
1.00175
1.0006
1.00054
1.00054
1.00054
1.00054
1.00053
1.00053
1.00053
1.00054
1.00055
1.00059
1.00065
1.00078
1.00095
1.00132
1.00175
1.00055
1.0005
1.0005
1.00049
1.00049
1.00049
1.00049
1.00049
1.0005
1.00052
1.00056
1.00062
1.00076
1.00094
1.00131
1.00175
1.0005
1.00046
1.00046
1.00045
1.00046
1.00045
1.00046
1.00046
1.00047
1.00049
1.00054
1.0006
1.00075
1.00093
1.00131
1.00176
1.00046
1.00042
1.00042
1.00042
1.00042
1.00042
1.00042
1.00043
1.00044
1.00046
1.00052
1.00059
1.00074
1.00093
1.00131
1.00177
1.00042
1.00039
1.00039
1.00039
1.00039
1.00039
1.00039
1.0004
1.00042
1.00044
1.0005
1.00057
1.00073
1.00093
1.00131
1.00177
1.00039
1.00036
1.00036
1.00036
1.00036
1.00036
1.00037
1.00038
1.0004
1.00042
1.00048
1.00056
1.00072
1.00092
1.00132
1.00178
1.00036
1.00033
1.00033
1.00033
1.00033
1.00034
1.00035
1.00035
1.00038
1.00041
1.00047
1.00055
1.00071
1.00092
1.00132
1.00179
1.00033
1.0003
1.00031
1.00031
1.00031
1.00031
1.00032
1.00034
1.00036
1.00039
1.00046
1.00054
1.00071
1.00092
1.00132
1.00179
1.00031
1.00028
1.00028
1.00028
1.00029
1.00029
1.00031
1.00032
1.00035
1.00038
1.00045
1.00053
1.0007
1.00092
1.00132
1.0018
1.00028
1.00026
1.00026
1.00026
1.00027
1.00027
1.00029
1.0003
1.00033
1.00037
1.00044
1.00053
1.0007
1.00092
1.00133
1.00181
1.00026
1.00024
1.00024
1.00024
1.00025
1.00026
1.00027
1.00029
1.00032
1.00035
1.00043
1.00052
1.0007
1.00092
1.00133
1.00181
1.00024
1.00022
1.00022
1.00022
1.00023
1.00024
1.00025
1.00027
1.0003
1.00034
1.00042
1.00051
1.00069
1.00092
1.00133
1.00181
1.00022
1.0002
1.00021
1.00021
1.00022
1.00022
1.00024
1.00026
1.00029
1.00033
1.00041
1.0005
1.00069
1.00092
1.00133
1.00182
1.0002
1.00018
1.00019
1.00019
1.0002
1.00021
1.00022
1.00024
1.00028
1.00032
1.0004
1.0005
1.00068
1.00091
1.00133
1.00182
1.00018
1.00016
1.00017
1.00017
1.00018
1.00019
1.00021
1.00023
1.00026
1.00031
1.00039
1.00049
1.00068
1.00091
1.00133
1.00183
1.00016
1.00015
1.00015
1.00016
1.00017
1.00018
1.00019
1.00021
1.00025
1.0003
1.00038
1.00048
1.00068
1.00091
1.00133
1.00183
1.00015
1.00013
1.00014
1.00014
1.00015
1.00016
1.00018
1.0002
1.00024
1.00029
1.00037
1.00048
1.00067
1.00091
1.00133
1.00183
1.00013
1.00011
1.00012
1.00012
1.00013
1.00014
1.00016
1.00019
1.00023
1.00028
1.00036
1.00047
1.00067
1.00091
1.00133
1.00184
1.00011
1.00009
1.0001
1.0001
1.00012
1.00013
1.00015
1.00017
1.00022
1.00027
1.00035
1.00046
1.00066
1.0009
1.00133
1.00184
1.00009
1.00007
1.00008
1.00009
1.0001
1.00011
1.00013
1.00016
1.0002
1.00025
1.00035
1.00046
1.00066
1.0009
1.00133
1.00185
1.00007
1.00006
1.00007
1.00007
1.00008
1.00009
1.00012
1.00015
1.00019
1.00024
1.00034
1.00045
1.00065
1.0009
1.00134
1.00185
1.00006
1.00004
1.00005
1.00005
1.00007
1.00008
1.0001
1.00013
1.00018
1.00023
1.00033
1.00045
1.00065
1.0009
1.00134
1.00186
1.00004
1.00002
1.00003
1.00004
1.00005
1.00007
1.00009
1.00012
1.00017
1.00022
1.00032
1.00044
1.00064
1.0009
1.00134
1.00186
1.00002
1
1.00001
1.00002
1.00004
1.00005
1.00008
1.00011
1.00016
1.00022
1.00031
1.00043
1.00064
1.0009
1.00134
1.00187
1
0.999986
0.999997
1
1.00002
1.00004
1.00006
1.00009
1.00014
1.00021
1.00031
1.00043
1.00064
1.0009
1.00135
1.00187
0.999986
0.999966
0.999977
0.999985
1
1.00002
1.00005
1.00008
1.00013
1.0002
1.0003
1.00042
1.00064
1.0009
1.00135
1.00188
0.999965
0.999944
0.999955
0.999963
0.999981
0.999999
1.00003
1.00006
1.00012
1.00018
1.00029
1.00042
1.00063
1.0009
1.00135
1.00189
0.999943
0.999919
0.999931
0.99994
0.999958
0.999978
1.00001
1.00005
1.0001
1.00017
1.00028
1.00041
1.00063
1.0009
1.00136
1.0019
0.999918
0.999893
0.999906
0.999916
0.999935
0.999957
0.999989
1.00003
1.00009
1.00016
1.00027
1.0004
1.00063
1.0009
1.00137
1.00191
0.999892
0.999863
0.999877
0.999888
0.999908
0.999932
0.999966
1.00001
1.00007
1.00014
1.00026
1.0004
1.00063
1.0009
1.00138
1.00192
0.999862
0.99983
0.999843
0.999856
0.999877
0.999903
0.999939
0.999984
1.00005
1.00013
1.00025
1.00039
1.00062
1.00091
1.00138
1.00193
0.999827
0.999791
0.999806
0.99982
0.999843
0.999871
0.999909
0.999957
1.00002
1.00011
1.00023
1.00038
1.00062
1.00091
1.0014
1.00195
0.999789
0.999747
0.999763
0.999778
0.999803
0.999833
0.999874
0.999926
0.999997
1.00008
1.00021
1.00037
1.00062
1.00091
1.00141
1.00197
0.999745
0.999698
0.999714
0.999731
0.999757
0.99979
0.999834
0.99989
0.999965
1.00006
1.00019
1.00036
1.00061
1.00092
1.00142
1.00199
0.999694
0.999641
0.999657
0.999676
0.999704
0.99974
0.999787
0.999848
0.999928
1.00003
1.00017
1.00034
1.0006
1.00092
1.00143
1.00201
0.999637
0.999576
0.999593
0.999614
0.999643
0.999683
0.999733
0.999798
0.999883
0.999989
1.00014
1.00032
1.00059
1.00092
1.00144
1.00204
0.999572
0.999502
0.999519
0.999542
0.999573
0.999615
0.999668
0.999739
0.999829
0.999943
1.0001
1.00029
1.00057
1.00092
1.00145
1.00206
0.999497
0.999418
0.999435
0.999459
0.999492
0.999537
0.999594
0.999668
0.999764
0.999886
1.00005
1.00025
1.00055
1.00091
1.00146
1.00208
0.999413
0.999322
0.99934
0.999365
0.999399
0.999447
0.999506
0.999585
0.999686
0.999815
0.999988
1.0002
1.00051
1.00089
1.00146
1.00211
0.999317
0.999215
0.999233
0.999259
0.999293
0.999343
0.999404
0.999486
0.999592
0.999729
0.999911
1.00014
1.00046
1.00086
1.00146
1.00213
0.99921
0.999097
0.999113
0.999139
0.999174
0.999224
0.999286
0.999371
0.99948
0.999623
0.999813
1.00005
1.0004
1.00081
1.00144
1.00214
0.999091
0.998967
0.998982
0.999007
0.99904
0.999089
0.999151
0.999236
0.999347
0.999494
0.999691
0.999944
1.0003
1.00075
1.0014
1.00214
0.998962
0.998826
0.998839
0.998862
0.998892
0.998938
0.998997
0.99908
0.99919
0.999338
0.999539
0.999801
1.00017
1.00064
1.00133
1.00213
0.998821
0.998675
0.998685
0.998705
0.998731
0.998771
0.998824
0.998901
0.999006
0.999149
0.999349
0.999615
0.999997
1.00049
1.00122
1.00208
0.998672
0.998519
0.998525
0.99854
0.998558
0.99859
0.998634
0.998699
0.998794
0.998926
0.999118
0.999378
0.999759
1.00027
1.00102
1.00196
0.998516
0.99836
0.998361
0.998369
0.998379
0.998399
0.998429
0.998478
0.998555
0.998668
0.998839
0.999078
0.999441
0.999931
1.00067
1.0016
0.998359
0.998205
0.9982
0.998199
0.998197
0.998202
0.998215
0.998242
0.998295
0.998377
0.998518
0.998719
0.999043
0.999487
1.00017
1.00103
0.998206
0.99806
0.998049
0.998038
0.998022
0.998009
0.997999
0.997998
0.99802
0.998064
0.998163
0.998311
0.99858
0.998955
0.999562
1.00034
0.998064
0.997935
0.997916
0.997894
0.997862
0.997828
0.997793
0.997759
0.997744
0.99774
0.997786
0.997869
0.998067
0.998353
0.998867
0.999526
0.997942
0.997837
0.997811
0.997776
0.997727
0.99767
0.997607
0.997538
0.997479
0.997421
0.997407
0.997411
0.997524
0.997702
0.998105
0.998624
0.997847
0.997778
0.997744
0.997697
0.99763
0.99755
0.997457
0.997349
0.997245
0.997128
0.997047
0.996962
0.996978
0.997028
0.997299
0.997649
0.99779
0.997767
0.997726
0.997667
0.997584
0.997481
0.997359
0.997213
0.997063
0.996885
0.996732
0.996552
0.996461
0.996365
0.996481
0.996626
0.997782
0.997812
0.997765
0.997695
0.997597
0.997474
0.997325
0.997145
0.99695
0.996714
0.996489
0.996212
0.996007
0.995748
0.995681
0.995574
0.99783
0.997934
0.997882
0.997804
0.997694
0.997556
0.997385
0.997176
0.996944
0.996659
0.996372
0.996007
0.995692
0.995264
0.994992
0.994551
0.997953
0.998115
0.99806
0.997979
0.997862
0.997714
0.997528
0.997301
0.997041
0.99672
0.996382
0.995945
0.995535
0.994944
0.994469
0.993617
0.998134
0.998259
0.998204
0.998122
0.998002
0.99785
0.997657
0.997418
0.997139
0.996791
0.996415
0.995927
0.995446
0.994753
0.994155
0.993061
0.998278
0.998305
0.998249
0.998168
0.998047
0.997895
0.997698
0.997453
0.997163
0.9968
0.9964
0.995885
0.995371
0.994654
0.994034
0.992965
0.998324
0.998253
0.998195
0.998114
0.997993
0.997841
0.997644
0.9974
0.997107
0.996745
0.996343
0.995834
0.995327
0.994653
0.994093
0.993194
0.998271
0.998107
0.998047
0.997966
0.997844
0.997695
0.997499
0.997262
0.996977
0.996634
0.996249
0.995782
0.995319
0.99475
0.994306
0.993647
0.998126
0.997878
0.997815
0.997733
0.99761
0.997463
0.997271
0.997045
0.996775
0.996463
0.996114
0.995718
0.995333
0.994913
0.994625
0.994245
0.997899
0.997577
0.997511
0.997426
0.997302
0.997157
0.99697
0.996757
0.996508
0.996234
0.995935
0.995629
0.995348
0.99511
0.995006
0.994924
0.997599
0.997216
0.997148
0.997063
0.996939
0.996799
0.996619
0.996423
0.996195
0.99596
0.995714
0.995506
0.995342
0.995302
0.995397
0.995619
0.997239
0.996814
0.996749
0.996668
0.996547
0.99641
0.99624
0.996059
0.995849
0.995638
0.995433
0.995319
0.995282
0.995454
0.99574
0.996239
0.996836
0.996378
0.996316
0.996238
0.996114
0.995971
0.9958
0.99563
0.995445
0.995304
0.995219
0.995269
0.995409
0.995744
0.996128
0.996713
0.996398
0.99584
0.995781
0.995711
0.995611
0.995509
0.995403
0.995331
0.99529
0.995328
0.995424
0.995627
0.995886
0.996242
0.996613
0.997113
0.995861
0.995475
0.995448
0.995433
0.995417
0.99542
0.995439
0.995499
0.995601
0.995757
0.995935
0.99617
0.996425
0.996739
0.997067
0.997476
0.995488
0.995654
0.995661
0.995688
0.995725
0.995782
0.995856
0.995961
0.996087
0.996234
0.996394
0.996606
0.996839
0.997132
0.997436
0.997812
0.995652
0.996047
0.99607
0.996108
0.99615
0.996203
0.996271
0.996364
0.996478
0.996624
0.996786
0.99699
0.997206
0.99747
0.997739
0.99807
0.996039
0.996393
0.996412
0.996446
0.996491
0.996553
0.996629
0.996727
0.996841
0.996979
0.997131
0.997317
0.997514
0.997752
0.997991
0.998283
0.996385
0.996723
0.996745
0.99678
0.996825
0.996885
0.996959
0.997051
0.997158
0.997288
0.99743
0.997601
0.997778
0.997991
0.998201
0.998456
0.996715
0.997021
0.997043
0.997076
0.997122
0.997181
0.997252
0.997341
0.997441
0.997562
0.997691
0.997846
0.998005
0.998193
0.998377
0.9986
0.997013
0.997296
0.997318
0.997349
0.997394
0.997449
0.997517
0.997599
0.997692
0.997802
0.99792
0.998058
0.9982
0.998365
0.998526
0.998721
0.997289
0.997545
0.997566
0.997596
0.997638
0.99769
0.997753
0.997828
0.997913
0.998013
0.998119
0.998243
0.998368
0.998514
0.998654
0.998823
0.997538
0.997771
0.997792
0.997819
0.997858
0.997906
0.997964
0.998033
0.99811
0.9982
0.998295
0.998404
0.998514
0.998642
0.998764
0.998911
0.997765
0.997976
0.997995
0.99802
0.998056
0.9981
0.998153
0.998215
0.998284
0.998364
0.998449
0.998546
0.998643
0.998754
0.99886
0.998988
0.99797
0.998161
0.998179
0.998201
0.998234
0.998273
0.998322
0.998377
0.998439
0.99851
0.998585
0.99867
0.998755
0.998852
0.998944
0.999055
0.998155
0.998327
0.998344
0.998364
0.998394
0.998429
0.998472
0.998522
0.998577
0.99864
0.998706
0.998781
0.998855
0.998939
0.999019
0.999115
0.998322
0.998477
0.998493
0.998511
0.998538
0.998569
0.998608
0.998652
0.998701
0.998756
0.998814
0.99888
0.998944
0.999017
0.999086
0.99917
0.998473
0.998613
0.998627
0.998643
0.998667
0.998695
0.998729
0.998768
0.998811
0.99886
0.998911
0.998968
0.999024
0.999087
0.999147
0.99922
0.998609
0.998735
0.998747
0.998761
0.998783
0.998808
0.998838
0.998872
0.998911
0.998953
0.998998
0.999048
0.999096
0.999151
0.999203
0.999267
0.998731
0.998845
0.998856
0.998869
0.998888
0.99891
0.998937
0.998967
0.999
0.999038
0.999077
0.99912
0.999162
0.99921
0.999255
0.999311
0.998842
0.998945
0.998955
0.998966
0.998983
0.999002
0.999026
0.999052
0.999082
0.999114
0.999148
0.999186
0.999222
0.999264
0.999303
0.999352
0.998942
0.999035
0.999044
0.999054
0.999069
0.999086
0.999107
0.99913
0.999156
0.999184
0.999214
0.999246
0.999278
0.999314
0.999348
0.999392
0.999033
0.999118
0.999126
0.999134
0.999147
0.999162
0.99918
0.999201
0.999223
0.999248
0.999274
0.999302
0.99933
0.999361
0.999391
0.99943
0.999116
0.999192
0.9992
0.999207
0.999219
0.999232
0.999248
0.999265
0.999285
0.999307
0.999329
0.999354
0.999378
0.999405
0.999432
0.999466
0.999191
0.999261
0.999267
0.999274
0.999284
0.999295
0.999309
0.999325
0.999342
0.999361
0.999381
0.999402
0.999423
0.999447
0.999471
0.999501
0.999259
0.999324
0.999329
0.999335
0.999344
0.999354
0.999366
0.99938
0.999395
0.999412
0.999429
0.999448
0.999466
0.999487
0.999508
0.999536
0.999322
0.999382
0.999387
0.999391
0.999399
0.999408
0.999419
0.999431
0.999444
0.999459
0.999474
0.99949
0.999506
0.999525
0.999543
0.999569
0.99938
0.999435
0.999439
0.999444
0.999451
0.999458
0.999468
0.999478
0.99949
0.999503
0.999516
0.99953
0.999545
0.999561
0.999577
0.999601
0.999434
0.999484
0.999488
0.999492
0.999498
0.999505
0.999513
0.999522
0.999533
0.999544
0.999555
0.999568
0.999581
0.999595
0.99961
0.999632
0.999483
0.99953
0.999533
0.999537
0.999542
0.999548
0.999556
0.999564
0.999573
0.999583
0.999593
0.999604
0.999615
0.999628
0.999642
0.999662
0.999529
0.999573
0.999576
0.999579
0.999584
0.999589
0.999595
0.999602
0.99961
0.999619
0.999628
0.999638
0.999648
0.99966
0.999672
0.999691
0.999572
0.999612
0.999615
0.999618
0.999622
0.999627
0.999633
0.999639
0.999646
0.999654
0.999662
0.999671
0.99968
0.99969
0.999702
0.999719
0.999612
0.99965
0.999652
0.999654
0.999658
0.999662
0.999668
0.999673
0.99968
0.999687
0.999694
0.999702
0.99971
0.99972
0.99973
0.999747
0.999649
0.999685
0.999687
0.999689
0.999692
0.999696
0.999701
0.999706
0.999712
0.999718
0.999725
0.999732
0.999739
0.999748
0.999758
0.999773
0.999684
0.999717
0.999719
0.999721
0.999725
0.999728
0.999732
0.999737
0.999742
0.999748
0.999754
0.99976
0.999767
0.999775
0.999784
0.999799
0.999717
0.999748
0.99975
0.999752
0.999755
0.999758
0.999762
0.999766
0.999771
0.999776
0.999781
0.999787
0.999794
0.999801
0.99981
0.999824
0.999748
0.999778
0.999779
0.999781
0.999783
0.999786
0.99979
0.999794
0.999798
0.999803
0.999808
0.999813
0.999819
0.999826
0.999834
0.999848
0.999777
0.999805
0.999807
0.999808
0.999811
0.999813
0.999816
0.99982
0.999824
0.999829
0.999833
0.999838
0.999844
0.99985
0.999858
0.999871
0.999805
0.999831
0.999832
0.999834
0.999836
0.999839
0.999842
0.999845
0.999849
0.999853
0.999857
0.999862
0.999867
0.999874
0.999881
0.999894
0.999831
0.999855
0.999857
0.999858
0.99986
0.999863
0.999866
0.999869
0.999872
0.999876
0.999881
0.999885
0.99989
0.999896
0.999904
0.999916
0.999855
0.999879
0.99988
0.999881
0.999883
0.999885
0.999888
0.999891
0.999895
0.999899
0.999903
0.999907
0.999912
0.999918
0.999925
0.999938
0.999878
0.9999
0.999901
0.999903
0.999905
0.999907
0.99991
0.999913
0.999916
0.99992
0.999924
0.999928
0.999933
0.999939
0.999946
0.999958
0.9999
0.99992
0.999922
0.999923
0.999925
0.999927
0.99993
0.999933
0.999936
0.99994
0.999944
0.999948
0.999953
0.999959
0.999966
0.999978
0.99992
0.999939
0.999941
0.999942
0.999944
0.999946
0.999949
0.999952
0.999955
0.999959
0.999963
0.999968
0.999972
0.999978
0.999986
0.999998
0.999939
0.999957
0.999958
0.99996
0.999961
0.999964
0.999966
0.999969
0.999973
0.999977
0.999981
0.999986
0.999991
0.999997
1
1.00002
0.999957
0.999974
0.999975
0.999976
0.999978
0.99998
0.999983
0.999986
0.99999
0.999994
0.999998
1
1.00001
1.00001
1.00002
1.00004
0.999973
0.999989
0.99999
0.999991
0.999993
0.999995
0.999998
1
1
1.00001
1.00001
1.00002
1.00002
1.00003
1.00004
1.00005
0.999988
1
1
1
1.00001
1.00001
1.00001
1.00002
1.00002
1.00002
1.00003
1.00003
1.00004
1.00005
1.00006
1.00007
1
1.00001
1.00002
1.00002
1.00002
1.00002
1.00002
1.00003
1.00003
1.00004
1.00004
1.00005
1.00005
1.00006
1.00007
1.00009
1.00001
1.00003
1.00003
1.00003
1.00003
1.00003
1.00004
1.00004
1.00004
1.00005
1.00005
1.00006
1.00007
1.00007
1.00009
1.0001
1.00003
1.00004
1.00004
1.00004
1.00004
1.00004
1.00004
1.00005
1.00005
1.00006
1.00006
1.00007
1.00008
1.00009
1.0001
1.00012
1.00003
1.00004
1.00004
1.00005
1.00005
1.00005
1.00005
1.00006
1.00006
1.00007
1.00007
1.00008
1.00009
1.0001
1.00011
1.00013
1.00004
1.00005
1.00005
1.00005
1.00005
1.00006
1.00006
1.00006
1.00007
1.00007
1.00008
1.00008
1.00009
1.0001
1.00012
1.00014
1.00005
1.00006
1.00006
1.00006
1.00006
1.00006
1.00006
1.00007
1.00007
1.00008
1.00008
1.00009
1.0001
1.00011
1.00012
1.00015
1.00006
1.00006
1.00006
1.00006
1.00006
1.00007
1.00007
1.00007
1.00007
1.00008
1.00008
1.00009
1.00009
1.0001
1.00011
1.00013
1.00006
1.00006
1.00006
1.00006
1.00007
1.00007
1.00007
1.00007
1.00008
1.00008
1.00008
1.00009
1.00009
1.0001
1.00011
1.00012
1.00006
)
;

boundaryField
{
    wireUpstream
    {
        type            calculated;
        value           nonuniform List<scalar> 
16
(
1.00007
1.00007
1.00007
1.00007
1.00007
1.00007
1.00007
1.00008
1.00008
1.00008
1.00009
1.00009
1.00009
1.0001
1.0001
1.00006
)
;
    }
    wireDownstream
    {
        type            calculated;
        value           nonuniform List<scalar> 
16
(
1.00085
1.00085
1.00084
1.00084
1.00082
1.00082
1.0008
1.00081
1.00081
1.00084
1.00087
1.00099
1.00114
1.00148
1.00195
1.00085
)
;
    }
    wireTopContact
    {
        type            calculated;
        value           nonuniform List<scalar> 
122
(
1.00178
1.00177
1.00175
1.00175
1.00175
1.00176
1.00176
1.00177
1.00178
1.00179
1.00179
1.0018
1.00181
1.00181
1.00181
1.00182
1.00182
1.00183
1.00183
1.00184
1.00184
1.00184
1.00185
1.00185
1.00186
1.00186
1.00187
1.00187
1.00188
1.00189
1.0019
1.00191
1.00192
1.00193
1.00194
1.00196
1.00198
1.00201
1.00203
1.00205
1.00208
1.0021
1.00212
1.00214
1.00215
1.00215
1.00213
1.00208
1.00196
1.0016
1.00103
1.00032
0.999512
0.99861
0.997637
0.996616
0.995571
0.994569
0.993622
0.99307
0.993011
0.993254
0.993705
0.994293
0.994951
0.995612
0.9962
0.996673
0.997105
0.997471
0.997805
0.998065
0.998281
0.998456
0.998602
0.998723
0.998827
0.998915
0.998992
0.999059
0.99912
0.999174
0.999224
0.999271
0.999314
0.999356
0.999395
0.999433
0.999469
0.999504
0.999538
0.999571
0.999603
0.999634
0.999663
0.999693
0.999721
0.999748
0.999774
0.9998
0.999825
0.999849
0.999873
0.999895
0.999917
0.999938
0.999959
0.999979
0.999999
1.00002
1.00004
1.00005
1.00007
1.00009
1.0001
1.00012
1.00013
1.00014
1.00015
1.00013
1.00012
1.00184
)
;
    }
    front
    {
        type            wedge;
    }
    back
    {
        type            wedge;
    }
}


// ************************************************************************* //
