/*--------------------------------*- C++ -*----------------------------------*\
| =========                 |                                                 |
| \\      /  F ield         | foam-extend: Open Source CFD                    |
|  \\    /   O peration     | Version:     4.1-20200408                       |
|   \\  /    A nd           | Web:         http://www.foam-extend.org         |
|    \\/     M anipulation  |                                                 |
\*---------------------------------------------------------------------------*/
FoamFile
{
    version     2.0;
    format      ascii;
    class       volScalarField;
    location    "0.0205000";
    object      rho;
}
// * * * * * * * * * * * * * * * * * * * * * * * * * * * * * * * * * * * * * //

dimensions      [1 -3 0 0 0 0 0];

internalField   nonuniform List<scalar> 
1952
(
7822.95
7822.97
7823.08
7823.17
7823.33
7823.46
7823.66
7823.79
7823.97
7823.99
7823.99
7823.68
7823.24
7821.72
7819.7
7822.91
7823.46
7823.49
7823.61
7823.69
7823.86
7823.99
7824.2
7824.33
7824.54
7824.58
7824.62
7824.36
7824
7822.56
7820.68
7823.43
7823.93
7823.96
7824.07
7824.16
7824.33
7824.46
7824.67
7824.81
7825.01
7825.06
7825.1
7824.84
7824.47
7822.97
7820.93
7823.89
7824.36
7824.4
7824.5
7824.6
7824.76
7824.89
7825.1
7825.23
7825.43
7825.47
7825.51
7825.23
7824.83
7823.26
7821.11
7824.33
7824.76
7824.79
7824.9
7824.99
7825.14
7825.27
7825.47
7825.6
7825.78
7825.81
7825.83
7825.52
7825.07
7823.43
7821.17
7824.72
7825.12
7825.15
7825.25
7825.34
7825.49
7825.62
7825.8
7825.92
7826.09
7826.1
7826.1
7825.76
7825.26
7823.56
7821.21
7825.08
7825.45
7825.48
7825.58
7825.66
7825.81
7825.92
7826.1
7826.21
7826.36
7826.35
7826.32
7825.95
7825.4
7823.64
7821.22
7825.42
7825.75
7825.78
7825.88
7825.95
7826.09
7826.2
7826.36
7826.46
7826.58
7826.56
7826.5
7826.1
7825.51
7823.7
7821.22
7825.72
7826.02
7826.05
7826.14
7826.21
7826.34
7826.44
7826.59
7826.68
7826.78
7826.73
7826.66
7826.22
7825.59
7823.75
7821.21
7825.99
7826.27
7826.29
7826.38
7826.45
7826.57
7826.66
7826.8
7826.87
7826.96
7826.89
7826.8
7826.33
7825.66
7823.78
7821.21
7826.24
7826.49
7826.52
7826.6
7826.66
7826.77
7826.86
7826.98
7827.04
7827.11
7827.03
7826.92
7826.42
7825.73
7823.82
7821.2
7826.46
7826.7
7826.72
7826.79
7826.85
7826.96
7827.03
7827.15
7827.2
7827.25
7827.15
7827.03
7826.51
7825.79
7823.85
7821.2
7826.67
7826.88
7826.9
7826.98
7827.03
7827.13
7827.2
7827.3
7827.34
7827.38
7827.26
7827.12
7826.59
7825.84
7823.88
7821.2
7826.86
7827.06
7827.07
7827.14
7827.19
7827.28
7827.34
7827.44
7827.47
7827.5
7827.36
7827.21
7826.67
7825.89
7823.91
7821.21
7827.03
7827.22
7827.23
7827.3
7827.34
7827.43
7827.48
7827.57
7827.59
7827.6
7827.46
7827.3
7826.74
7825.95
7823.94
7821.22
7827.19
7827.37
7827.38
7827.44
7827.48
7827.56
7827.61
7827.69
7827.7
7827.71
7827.55
7827.39
7826.81
7826
7823.98
7821.23
7827.34
7827.5
7827.51
7827.57
7827.61
7827.69
7827.73
7827.8
7827.81
7827.8
7827.65
7827.47
7826.88
7826.06
7824.02
7821.25
7827.48
7827.63
7827.64
7827.7
7827.73
7827.81
7827.84
7827.91
7827.91
7827.9
7827.73
7827.55
7826.95
7826.11
7824.06
7821.27
7827.61
7827.76
7827.77
7827.82
7827.85
7827.92
7827.95
7828.01
7828.01
7827.99
7827.82
7827.64
7827.02
7826.18
7824.1
7821.3
7827.74
7827.88
7827.89
7827.94
7827.97
7828.03
7828.06
7828.12
7828.1
7828.08
7827.9
7827.72
7827.09
7826.24
7824.14
7821.32
7827.86
7828
7828.01
7828.06
7828.08
7828.14
7828.17
7828.22
7828.2
7828.17
7827.99
7827.8
7827.16
7826.29
7824.18
7821.35
7827.98
7828.12
7828.12
7828.17
7828.19
7828.25
7828.27
7828.31
7828.28
7828.25
7828.07
7827.88
7827.22
7826.35
7824.22
7821.38
7828.1
7828.23
7828.23
7828.28
7828.3
7828.35
7828.36
7828.41
7828.37
7828.34
7828.15
7827.95
7827.29
7826.4
7824.27
7821.41
7828.21
7828.34
7828.34
7828.39
7828.4
7828.45
7828.46
7828.5
7828.46
7828.42
7828.23
7828.03
7827.35
7826.46
7824.31
7821.43
7828.32
7828.45
7828.44
7828.49
7828.5
7828.55
7828.56
7828.6
7828.55
7828.51
7828.31
7828.1
7827.42
7826.51
7824.35
7821.46
7828.43
7828.57
7828.56
7828.6
7828.61
7828.66
7828.66
7828.7
7828.64
7828.6
7828.4
7828.18
7827.49
7826.57
7824.39
7821.48
7828.55
7828.68
7828.67
7828.72
7828.72
7828.77
7828.76
7828.79
7828.73
7828.68
7828.48
7828.25
7827.55
7826.62
7824.42
7821.5
7828.66
7828.8
7828.79
7828.83
7828.83
7828.87
7828.86
7828.88
7828.81
7828.76
7828.56
7828.32
7827.61
7826.66
7824.45
7821.52
7828.78
7828.92
7828.91
7828.94
7828.94
7828.98
7828.96
7828.97
7828.9
7828.85
7828.64
7828.39
7827.66
7826.7
7824.48
7821.53
7828.9
7829.05
7829.03
7829.07
7829.06
7829.09
7829.07
7829.07
7828.99
7828.93
7828.71
7828.45
7827.71
7826.74
7824.5
7821.54
7829.03
7829.18
7829.17
7829.19
7829.19
7829.21
7829.18
7829.17
7829.08
7829.02
7828.79
7828.51
7827.76
7826.77
7824.51
7821.53
7829.17
7829.33
7829.31
7829.33
7829.32
7829.33
7829.3
7829.28
7829.18
7829.11
7828.87
7828.57
7827.81
7826.8
7824.52
7821.52
7829.32
7829.49
7829.47
7829.49
7829.47
7829.47
7829.43
7829.39
7829.29
7829.2
7828.95
7828.63
7827.85
7826.82
7824.52
7821.49
7829.48
7829.67
7829.64
7829.66
7829.63
7829.62
7829.57
7829.52
7829.41
7829.3
7829.03
7828.7
7827.89
7826.84
7824.5
7821.46
7829.67
7829.88
7829.84
7829.84
7829.81
7829.79
7829.72
7829.66
7829.53
7829.41
7829.12
7828.76
7827.93
7826.84
7824.48
7821.4
7829.87
7830.1
7830.06
7830.06
7830.01
7829.98
7829.89
7829.81
7829.66
7829.53
7829.21
7828.82
7827.96
7826.84
7824.44
7821.34
7830.1
7830.36
7830.31
7830.3
7830.24
7830.19
7830.09
7829.99
7829.82
7829.66
7829.31
7828.89
7827.99
7826.84
7824.4
7821.25
7830.36
7830.65
7830.6
7830.58
7830.5
7830.44
7830.32
7830.2
7830.01
7829.81
7829.42
7828.96
7828.02
7826.83
7824.34
7821.15
7830.65
7830.99
7830.93
7830.89
7830.81
7830.72
7830.58
7830.43
7830.22
7829.98
7829.56
7829.05
7828.06
7826.82
7824.27
7821.03
7830.99
7831.38
7831.31
7831.26
7831.16
7831.05
7830.89
7830.71
7830.47
7830.18
7829.72
7829.16
7828.12
7826.81
7824.2
7820.89
7831.39
7831.83
7831.75
7831.69
7831.57
7831.44
7831.26
7831.04
7830.76
7830.43
7829.92
7829.29
7828.19
7826.8
7824.12
7820.73
7831.84
7832.35
7832.27
7832.19
7832.06
7831.9
7831.69
7831.44
7831.12
7830.74
7830.16
7829.47
7828.29
7826.81
7824.04
7820.56
7832.36
7832.95
7832.86
7832.77
7832.62
7832.44
7832.2
7831.92
7831.55
7831.11
7830.47
7829.69
7828.42
7826.85
7823.97
7820.37
7832.96
7833.63
7833.54
7833.43
7833.27
7833.07
7832.8
7832.48
7832.06
7831.56
7830.85
7829.98
7828.62
7826.92
7823.91
7820.18
7833.65
7834.42
7834.32
7834.2
7834.02
7833.8
7833.5
7833.15
7832.68
7832.12
7831.33
7830.36
7828.89
7827.05
7823.89
7819.98
7834.44
7835.3
7835.2
7835.07
7834.88
7834.64
7834.33
7833.94
7833.43
7832.8
7831.95
7830.87
7829.27
7827.26
7823.94
7819.8
7835.32
7836.29
7836.2
7836.07
7835.88
7835.63
7835.3
7834.89
7834.34
7833.65
7832.72
7831.54
7829.81
7827.61
7824.07
7819.66
7836.32
7837.4
7837.32
7837.19
7837
7836.75
7836.43
7836
7835.43
7834.7
7833.71
7832.42
7830.55
7828.15
7824.36
7819.59
7837.43
7838.63
7838.55
7838.43
7838.25
7838.03
7837.71
7837.29
7836.71
7835.97
7834.93
7833.56
7831.57
7828.95
7824.88
7819.65
7838.65
7839.94
7839.88
7839.78
7839.64
7839.44
7839.15
7838.77
7838.22
7837.49
7836.45
7835.04
7832.97
7830.15
7825.8
7820.02
7839.96
7841.35
7841.31
7841.24
7841.14
7840.99
7840.77
7840.45
7839.96
7839.31
7838.31
7836.94
7834.87
7831.97
7827.48
7821.3
7841.36
7842.81
7842.8
7842.78
7842.73
7842.66
7842.52
7842.31
7841.94
7841.41
7840.54
7839.31
7837.36
7834.57
7830.18
7824.04
7842.81
7844.29
7844.32
7844.36
7844.39
7844.41
7844.39
7844.32
7844.11
7843.78
7843.12
7842.13
7840.42
7837.92
7833.8
7827.93
7844.28
7845.76
7845.84
7845.93
7846.06
7846.2
7846.32
7846.43
7846.43
7846.36
7845.99
7845.37
7844.03
7841.99
7838.35
7833.04
7845.73
7847.17
7847.29
7847.46
7847.68
7847.95
7848.24
7848.57
7848.81
7849.07
7849.06
7848.91
7848.07
7846.69
7843.72
7839.23
7847.12
7848.45
7848.61
7848.86
7849.18
7849.6
7850.07
7850.63
7851.16
7851.79
7852.21
7852.62
7852.4
7851.85
7849.73
7846.34
7848.38
7849.55
7849.76
7850.08
7850.51
7851.07
7851.72
7852.52
7853.35
7854.37
7855.26
7856.31
7856.82
7857.26
7856.21
7854.25
7849.47
7850.41
7850.65
7851.04
7851.57
7852.25
7853.07
7854.11
7855.23
7856.64
7858.01
7859.73
7861.03
7862.62
7862.87
7862.81
7850.31
7850.96
7851.24
7851.68
7852.29
7853.08
7854.05
7855.27
7856.65
7858.4
7860.22
7862.58
7864.68
7867.46
7869.14
7871.28
7850.86
7851.17
7851.48
7851.94
7852.59
7853.45
7854.51
7855.85
7857.4
7859.4
7861.55
7864.4
7867.18
7871.03
7874.14
7878.85
7851.06
7850.98
7851.29
7851.77
7852.44
7853.32
7854.42
7855.81
7857.45
7859.57
7861.92
7865.07
7868.33
7873.02
7877.38
7884.76
7850.87
7850.71
7851.04
7851.52
7852.22
7853.12
7854.26
7855.68
7857.37
7859.55
7862
7865.28
7868.73
7873.63
7878.17
7885.67
7850.6
7850.92
7851.27
7851.77
7852.5
7853.44
7854.62
7856.08
7857.82
7860.02
7862.5
7865.75
7869.12
7873.73
7877.79
7883.9
7850.81
7851.74
7852.12
7852.63
7853.41
7854.37
7855.61
7857.1
7858.86
7861.03
7863.44
7866.45
7869.48
7873.29
7876.36
7880.41
7851.62
7853.1
7853.5
7854.03
7854.83
7855.83
7857.09
7858.58
7860.34
7862.41
7864.67
7867.33
7869.84
7872.54
7874.31
7875.95
7852.97
7854.93
7855.35
7855.9
7856.71
7857.7
7858.94
7860.4
7862.15
7864.1
7866.2
7868.49
7870.38
7871.84
7872.02
7871.35
7854.79
7857.09
7857.55
7858.12
7858.95
7859.93
7861.17
7862.62
7864.41
7866.22
7868.03
7869.5
7870.21
7870.07
7868.83
7866.81
7856.94
7859.73
7860.23
7860.87
7861.76
7862.81
7864.03
7865.38
7866.72
7867.74
7868.37
7868.37
7867.81
7866.53
7864.81
7862.6
7859.56
7863.01
7863.41
7863.9
7864.56
7865.27
7865.93
7866.44
7866.68
7866.64
7866.11
7865.23
7864.12
7862.66
7861.08
7858.97
7862.87
7864.56
7864.67
7864.76
7864.88
7864.91
7864.87
7864.58
7864.17
7863.59
7862.83
7861.95
7860.93
7859.56
7858.01
7856.02
7864.52
7862.96
7862.95
7862.86
7862.74
7862.5
7862.19
7861.74
7861.36
7860.8
7860.1
7859.18
7858.12
7856.78
7855.33
7853.48
7862.97
7860.57
7860.55
7860.45
7860.33
7860.12
7859.84
7859.43
7858.95
7858.31
7857.58
7856.66
7855.65
7854.38
7853.03
7851.33
7860.58
7858.61
7858.55
7858.41
7858.22
7857.95
7857.61
7857.17
7856.68
7856.04
7855.33
7854.44
7853.47
7852.28
7851.04
7849.49
7858.64
7856.6
7856.53
7856.38
7856.18
7855.91
7855.57
7855.13
7854.63
7854.01
7853.31
7852.46
7851.56
7850.45
7849.32
7847.91
7856.64
7854.77
7854.68
7854.53
7854.31
7854.03
7853.69
7853.25
7852.76
7852.16
7851.5
7850.7
7849.86
7848.85
7847.82
7846.54
7854.81
7853.04
7852.94
7852.79
7852.57
7852.3
7851.96
7851.54
7851.07
7850.5
7849.88
7849.14
7848.36
7847.44
7846.51
7845.36
7853.07
7851.44
7851.33
7851.18
7850.97
7850.71
7850.38
7849.98
7849.54
7849
7848.42
7847.74
7847.03
7846.19
7845.36
7844.33
7851.47
7849.95
7849.85
7849.7
7849.5
7849.25
7848.94
7848.57
7848.15
7847.65
7847.12
7846.49
7845.85
7845.09
7844.34
7843.42
7849.98
7848.58
7848.48
7848.34
7848.15
7847.91
7847.62
7847.28
7846.89
7846.43
7845.94
7845.37
7844.8
7844.12
7843.44
7842.62
7848.61
7847.32
7847.22
7847.1
7846.91
7846.69
7846.42
7846.1
7845.75
7845.33
7844.89
7844.37
7843.85
7843.24
7842.64
7841.9
7847.35
7846.16
7846.07
7845.95
7845.78
7845.58
7845.33
7845.04
7844.71
7844.33
7843.93
7843.47
7843
7842.46
7841.92
7841.26
7846.19
7845.1
7845.01
7844.91
7844.75
7844.56
7844.33
7844.07
7843.77
7843.43
7843.06
7842.65
7842.23
7841.75
7841.27
7840.69
7845.12
7844.12
7844.04
7843.95
7843.8
7843.63
7843.42
7843.18
7842.91
7842.6
7842.28
7841.91
7841.54
7841.1
7840.68
7840.16
7844.15
7843.23
7843.16
7843.07
7842.94
7842.78
7842.59
7842.38
7842.13
7841.86
7841.56
7841.23
7840.9
7840.52
7840.14
7839.68
7843.25
7842.41
7842.34
7842.26
7842.14
7842
7841.83
7841.64
7841.42
7841.17
7840.91
7840.61
7840.32
7839.98
7839.65
7839.23
7842.43
7841.66
7841.6
7841.53
7841.42
7841.29
7841.14
7840.96
7840.77
7840.54
7840.31
7840.05
7839.79
7839.49
7839.19
7838.81
7841.68
7840.97
7840.91
7840.85
7840.75
7840.64
7840.5
7840.34
7840.16
7839.97
7839.76
7839.53
7839.29
7839.03
7838.76
7838.42
7840.98
7840.33
7840.28
7840.22
7840.13
7840.03
7839.91
7839.77
7839.61
7839.44
7839.25
7839.04
7838.84
7838.6
7838.36
7838.06
7840.35
7839.75
7839.7
7839.65
7839.57
7839.48
7839.37
7839.24
7839.1
7838.94
7838.78
7838.6
7838.41
7838.2
7837.99
7837.71
7839.76
7839.21
7839.16
7839.12
7839.04
7838.96
7838.86
7838.75
7838.63
7838.49
7838.34
7838.18
7838.01
7837.83
7837.64
7837.39
7839.22
7838.7
7838.67
7838.63
7838.56
7838.49
7838.4
7838.3
7838.19
7838.06
7837.93
7837.79
7837.64
7837.47
7837.3
7837.08
7838.71
7838.24
7838.21
7838.17
7838.11
7838.05
7837.97
7837.88
7837.78
7837.67
7837.55
7837.42
7837.29
7837.14
7836.99
7836.78
7838.25
7837.81
7837.78
7837.75
7837.69
7837.64
7837.57
7837.49
7837.4
7837.3
7837.19
7837.08
7836.96
7836.83
7836.69
7836.5
7837.82
7837.41
7837.38
7837.35
7837.3
7837.25
7837.19
7837.12
7837.04
7836.95
7836.86
7836.75
7836.65
7836.53
7836.4
7836.22
7837.42
7837.03
7837.01
7836.98
7836.94
7836.9
7836.84
7836.77
7836.7
7836.62
7836.54
7836.45
7836.35
7836.25
7836.13
7835.96
7837.04
7836.68
7836.66
7836.64
7836.6
7836.56
7836.51
7836.45
7836.39
7836.32
7836.24
7836.16
7836.07
7835.98
7835.87
7835.71
7836.69
7836.36
7836.34
7836.31
7836.28
7836.24
7836.2
7836.15
7836.09
7836.02
7835.96
7835.88
7835.81
7835.72
7835.62
7835.47
7836.36
7836.05
7836.03
7836.01
7835.98
7835.95
7835.9
7835.86
7835.81
7835.75
7835.69
7835.62
7835.55
7835.47
7835.38
7835.24
7836.05
7835.76
7835.74
7835.73
7835.7
7835.67
7835.63
7835.59
7835.54
7835.49
7835.43
7835.37
7835.31
7835.24
7835.15
7835.02
7835.76
7835.49
7835.47
7835.46
7835.43
7835.4
7835.37
7835.33
7835.29
7835.24
7835.19
7835.13
7835.08
7835.01
7834.93
7834.81
7835.49
7835.23
7835.22
7835.2
7835.18
7835.15
7835.12
7835.09
7835.05
7835
7834.96
7834.91
7834.85
7834.79
7834.72
7834.6
7835.23
7834.99
7834.97
7834.96
7834.94
7834.92
7834.89
7834.86
7834.82
7834.78
7834.74
7834.69
7834.64
7834.58
7834.51
7834.4
7834.99
7834.76
7834.75
7834.73
7834.71
7834.69
7834.67
7834.64
7834.6
7834.57
7834.53
7834.48
7834.44
7834.38
7834.32
7834.21
7834.76
7834.54
7834.53
7834.52
7834.5
7834.48
7834.46
7834.43
7834.4
7834.36
7834.33
7834.28
7834.24
7834.19
7834.13
7834.02
7834.55
7834.34
7834.33
7834.32
7834.3
7834.28
7834.26
7834.23
7834.2
7834.17
7834.13
7834.09
7834.05
7834.01
7833.94
7833.84
7834.34
7834.15
7834.14
7834.13
7834.11
7834.09
7834.07
7834.04
7834.01
7833.98
7833.95
7833.91
7833.87
7833.83
7833.77
7833.67
7834.15
7833.96
7833.95
7833.94
7833.93
7833.91
7833.89
7833.87
7833.84
7833.81
7833.78
7833.74
7833.7
7833.66
7833.6
7833.5
7833.97
7833.79
7833.78
7833.77
7833.76
7833.74
7833.72
7833.7
7833.67
7833.64
7833.61
7833.57
7833.54
7833.49
7833.43
7833.34
7833.8
7833.63
7833.62
7833.61
7833.6
7833.58
7833.56
7833.54
7833.51
7833.48
7833.45
7833.41
7833.38
7833.33
7833.27
7833.18
7833.64
7833.48
7833.47
7833.46
7833.45
7833.43
7833.41
7833.39
7833.36
7833.33
7833.3
7833.26
7833.23
7833.18
7833.12
7833.02
7833.49
7833.34
7833.34
7833.33
7833.31
7833.29
7833.27
7833.25
7833.22
7833.19
7833.16
7833.12
7833.08
7833.03
7832.97
7832.87
7833.35
7833.21
7833.21
7833.2
7833.18
7833.16
7833.14
7833.12
7833.09
7833.06
7833.02
7832.98
7832.94
7832.9
7832.83
7832.73
7833.22
7833.1
7833.09
7833.08
7833.06
7833.04
7833.02
7833
7832.97
7832.93
7832.9
7832.86
7832.81
7832.76
7832.7
7832.59
7833.1
7832.99
7832.98
7832.97
7832.95
7832.93
7832.91
7832.89
7832.86
7832.82
7832.78
7832.74
7832.69
7832.64
7832.57
7832.46
7832.99
7832.89
7832.88
7832.87
7832.86
7832.84
7832.81
7832.79
7832.76
7832.72
7832.68
7832.63
7832.58
7832.52
7832.45
7832.33
7832.89
7832.8
7832.8
7832.78
7832.77
7832.75
7832.73
7832.7
7832.67
7832.63
7832.59
7832.54
7832.48
7832.42
7832.33
7832.21
7832.81
7832.73
7832.72
7832.71
7832.69
7832.67
7832.65
7832.62
7832.59
7832.55
7832.51
7832.46
7832.4
7832.33
7832.23
7832.09
7832.73
7832.66
7832.65
7832.64
7832.63
7832.61
7832.59
7832.56
7832.53
7832.49
7832.45
7832.39
7832.33
7832.25
7832.15
7831.99
7832.66
7832.61
7832.6
7832.59
7832.58
7832.56
7832.54
7832.51
7832.48
7832.44
7832.4
7832.34
7832.28
7832.2
7832.08
7831.91
7832.61
7832.56
7832.56
7832.55
7832.53
7832.52
7832.5
7832.47
7832.44
7832.41
7832.37
7832.32
7832.25
7832.17
7832.05
7831.86
7832.57
7832.52
7832.52
7832.51
7832.5
7832.48
7832.47
7832.44
7832.42
7832.39
7832.35
7832.31
7832.26
7832.2
7832.11
7831.96
7832.53
7832.51
7832.51
7832.5
7832.49
7832.47
7832.46
7832.44
7832.41
7832.39
7832.35
7832.32
7832.28
7832.23
7832.18
7832.07
7832.51
)
;

boundaryField
{
    wireUpstream
    {
        type            calculated;
        value           nonuniform List<scalar> 
16
(
7832.49
7832.49
7832.48
7832.47
7832.46
7832.44
7832.42
7832.4
7832.38
7832.35
7832.32
7832.29
7832.26
7832.23
7832.22
7832.49
)
;
    }
    wireDownstream
    {
        type            calculated;
        value           nonuniform List<scalar> 
16
(
7822.96
7822.99
7823.1
7823.19
7823.35
7823.48
7823.68
7823.81
7824
7824.02
7824.03
7823.72
7823.29
7821.68
7819.02
7822.92
)
;
    }
    wireTopContact
    {
        type            calculated;
        value           nonuniform List<scalar> 
122
(
7820.8
7821.01
7821.18
7821.25
7821.29
7821.3
7821.31
7821.3
7821.3
7821.29
7821.29
7821.29
7821.3
7821.31
7821.33
7821.34
7821.36
7821.39
7821.41
7821.44
7821.46
7821.49
7821.52
7821.54
7821.56
7821.58
7821.6
7821.61
7821.61
7821.6
7821.59
7821.56
7821.52
7821.46
7821.39
7821.3
7821.2
7821.07
7820.93
7820.77
7820.59
7820.4
7820.21
7820.01
7819.85
7819.72
7819.68
7819.77
7820.16
7821.4
7824.19
7828.11
7833.24
7839.44
7846.54
7854.4
7862.96
7871.3
7878.75
7885
7885.54
7883.51
7880.09
7875.82
7871.33
7866.78
7862.66
7859.05
7856.08
7853.52
7851.36
7849.5
7847.91
7846.53
7845.34
7844.31
7843.4
7842.59
7841.88
7841.24
7840.66
7840.13
7839.65
7839.21
7838.79
7838.4
7838.04
7837.69
7837.37
7837.06
7836.76
7836.48
7836.21
7835.95
7835.7
7835.46
7835.23
7835.01
7834.8
7834.59
7834.39
7834.2
7834.01
7833.83
7833.66
7833.49
7833.33
7833.17
7833.02
7832.87
7832.72
7832.58
7832.45
7832.32
7832.2
7832.09
7831.99
7831.91
7831.86
7831.95
7832.03
7820.2
)
;
    }
    front
    {
        type            wedge;
    }
    back
    {
        type            wedge;
    }
}


// ************************************************************************* //
