/*--------------------------------*- C++ -*----------------------------------*\
| =========                 |                                                 |
| \\      /  F ield         | OpenFOAM: The Open Source CFD Toolbox           |
|  \\    /   O peration     | Version:  4.1                                   |
|   \\  /    A nd           | Web:      www.OpenFOAM.org                      |
|    \\/     M anipulation  |                                                 |
\*---------------------------------------------------------------------------*/
FoamFile
{
    version     2.0;
    format      ascii;
    class       surfaceScalarField;
    location    "0.000560";
    object      phi;
}
// * * * * * * * * * * * * * * * * * * * * * * * * * * * * * * * * * * * * * //

dimensions      [0 3 -1 0 0 0 0];

internalField   nonuniform List<scalar> 
8704
(
-3.9256145e-06
-8.3559559e-07
-8.3328974e-07
1.0299768e-06
1.0318857e-06
-4.09636e-06
-1.0485235e-06
-1.0438599e-06
1.2033759e-06
1.2072129e-06
-4.126806e-06
-1.2684579e-06
-1.2616615e-06
1.3997558e-06
1.4051864e-06
-4.1206915e-06
-1.5470944e-06
-1.539668e-06
1.711943e-06
1.7177873e-06
-4.0937816e-06
-1.834337e-06
-1.8268464e-06
2.0427688e-06
2.0481541e-06
-4.0524311e-06
-2.1123346e-06
-2.1047269e-06
2.3661726e-06
2.3711537e-06
-4.0008092e-06
-2.3608982e-06
-2.3535504e-06
2.6585843e-06
2.6631813e-06
-3.9403967e-06
-2.573068e-06
-2.566501e-06
2.9101119e-06
2.9140984e-06
-3.8727022e-06
-2.741319e-06
-2.7363056e-06
3.1118072e-06
3.114448e-06
-3.7980661e-06
-2.8649522e-06
-2.8617502e-06
3.260338e-06
3.2612375e-06
-3.7183201e-06
-2.9436892e-06
-2.9415006e-06
3.3535099e-06
3.3536062e-06
-3.6357822e-06
-2.9753973e-06
-2.9726198e-06
3.3879912e-06
3.3886842e-06
-3.5512231e-06
-2.9474357e-06
-2.9425753e-06
3.3547613e-06
3.3568268e-06
-3.4655949e-06
-2.8380309e-06
-2.8317211e-06
3.240304e-06
3.2440762e-06
-3.380256e-06
-2.6542778e-06
-2.6482325e-06
3.0508007e-06
3.056051e-06
-3.2966744e-06
-2.4234539e-06
-2.4182825e-06
2.8046315e-06
2.8108194e-06
-3.2161911e-06
-2.158333e-06
-2.1528888e-06
2.5106279e-06
2.5181657e-06
-3.1398039e-06
-1.8619305e-06
-1.8546627e-06
2.1744756e-06
2.1841961e-06
-3.0686806e-06
-1.5359144e-06
-1.5263177e-06
1.8025267e-06
1.8142207e-06
-3.0038877e-06
-1.1850536e-06
-1.1740283e-06
1.4033347e-06
1.415474e-06
-2.9466423e-06
-8.1935458e-07
-8.0840711e-07
9.8766728e-07
9.9882812e-07
-2.8966127e-06
-4.5098644e-07
-4.4016199e-07
5.6612191e-07
5.7600796e-07
-2.8504713e-06
-8.3759225e-08
-7.2032135e-08
1.4350143e-07
1.5223585e-07
2.7718352e-07
2.8991174e-07
-2.715581e-07
-2.639358e-07
-3.6782812e-06
-7.1990995e-07
-5.9070413e-07
7.9803601e-07
-3.8082834e-06
-9.4723447e-07
-8.0012199e-07
9.9595976e-07
-3.8400894e-06
-1.1664697e-06
-1.0070862e-06
1.2026751e-06
-3.8382715e-06
-1.4161674e-06
-1.2500159e-06
1.4893039e-06
-3.8169757e-06
-1.668486e-06
-1.4989006e-06
1.7944312e-06
-3.7828741e-06
-1.9090158e-06
-1.7387062e-06
2.0934234e-06
-3.7394565e-06
-2.1230537e-06
-1.9546933e-06
2.3680587e-06
-3.6877184e-06
-2.3049456e-06
-2.1417047e-06
2.6062645e-06
-3.6289598e-06
-2.450837e-06
-2.2944736e-06
2.8017852e-06
-3.5639914e-06
-2.5584798e-06
-2.411184e-06
2.949731e-06
-3.4940982e-06
-2.6261176e-06
-2.4905612e-06
3.0473471e-06
-3.4207858e-06
-2.6513484e-06
-2.5297246e-06
3.0909454e-06
-3.3450889e-06
-2.6214572e-06
-2.5139292e-06
3.0701973e-06
-3.267967e-06
-2.5149022e-06
-2.4182619e-06
2.9683698e-06
-3.1907684e-06
-2.3395914e-06
-2.2512562e-06
2.7914011e-06
-3.115001e-06
-2.1257285e-06
-2.0457657e-06
2.5619241e-06
-3.0417649e-06
-1.8868003e-06
-1.8164349e-06
2.2908968e-06
-2.9719012e-06
-1.6231137e-06
-1.5631322e-06
1.9822489e-06
-2.9063445e-06
-1.3336142e-06
-1.2852507e-06
1.6413723e-06
-2.8461922e-06
-1.0213643e-06
-9.8694699e-07
1.2763085e-06
-2.7925549e-06
-6.9599564e-07
-6.7838346e-07
8.9797016e-07
-2.7457241e-06
-3.6931493e-07
-3.6999364e-07
5.1733658e-07
-2.7056424e-06
-4.4627143e-08
-6.2753097e-08
1.3967826e-07
2.7606785e-07
2.4117685e-07
-2.3496359e-07
-3.5445232e-06
-6.2532878e-07
-4.2595002e-07
6.0343917e-07
-3.6461408e-06
-8.5103961e-07
-5.8353109e-07
7.6458608e-07
-3.6741797e-06
-1.0517279e-06
-7.6200215e-07
9.5703144e-07
-3.6748094e-06
-1.2634727e-06
-9.6950848e-07
1.2113304e-06
-3.6600482e-06
-1.4724475e-06
-1.1820042e-06
1.4812768e-06
-3.6347908e-06
-1.6679738e-06
-1.3860627e-06
1.7447212e-06
-3.6013082e-06
-1.8401923e-06
-1.571994e-06
1.987389e-06
-3.5602209e-06
-1.9860181e-06
-1.7361593e-06
2.2005744e-06
-3.5118786e-06
-2.1032813e-06
-1.8754031e-06
2.379319e-06
-3.4573699e-06
-2.1878643e-06
-1.9854247e-06
2.5178491e-06
-3.3975855e-06
-2.23761e-06
-2.0635289e-06
2.6120923e-06
-3.3333383e-06
-2.2503357e-06
-2.1067844e-06
2.6582589e-06
-3.2658891e-06
-2.215749e-06
-2.1017741e-06
2.6476693e-06
-3.1959407e-06
-2.116314e-06
-2.026537e-06
2.5649543e-06
-3.1247565e-06
-1.9597667e-06
-1.8879891e-06
2.4160568e-06
-3.0538994e-06
-1.7732197e-06
-1.7166933e-06
2.2214204e-06
-2.9844119e-06
-1.5694818e-06
-1.5288324e-06
1.9925566e-06
-2.9170687e-06
-1.3461108e-06
-1.3225848e-06
1.7308974e-06
-2.8528598e-06
-1.0997963e-06
-1.0950267e-06
1.4400014e-06
-2.7929297e-06
-8.3382174e-07
-8.4913611e-07
1.1275514e-06
-2.7382616e-06
-5.5773402e-07
-5.9499484e-07
8.0431484e-07
-2.6893697e-06
-2.8156836e-07
-3.4146276e-07
4.7953483e-07
-2.6460225e-06
-7.4142975e-09
-8.8674307e-08
1.5592461e-07
2.6200383e-07
1.6101417e-07
-1.6147334e-07
-3.4662593e-06
-5.4132088e-07
-2.788916e-07
4.2489113e-07
-3.5501002e-06
-7.5403741e-07
-3.7238328e-07
5.3024842e-07
-3.5768646e-06
-9.2571091e-07
-5.0922801e-07
6.9174717e-07
-3.5800682e-06
-1.0923284e-06
-6.7385382e-07
9.0385721e-07
-3.5706773e-06
-1.2515035e-06
-8.4404383e-07
1.1311849e-06
-3.5522709e-06
-1.3964537e-06
-1.0077278e-06
1.352828e-06
-3.5255863e-06
-1.5219962e-06
-1.1584535e-06
1.5573673e-06
-3.4915933e-06
-1.6268206e-06
-1.2954846e-06
1.7403682e-06
-3.4501918e-06
-1.709588e-06
-1.4172806e-06
1.8975574e-06
-3.4023178e-06
-1.7663401e-06
-1.517589e-06
2.023864e-06
-3.3484742e-06
-1.7941035e-06
-1.5914701e-06
2.1120409e-06
-3.2892553e-06
-1.7925128e-06
-1.6370194e-06
2.1603312e-06
-3.2261671e-06
-1.7542796e-06
-1.6425427e-06
2.1604682e-06
-3.159882e-06
-1.6669064e-06
-1.5918391e-06
2.1015402e-06
-3.0916352e-06
-1.5362884e-06
-1.4902174e-06
1.9887146e-06
-3.0229244e-06
-1.3843048e-06
-1.3620948e-06
1.8382911e-06
-2.9547569e-06
-1.2217081e-06
-1.2213623e-06
1.6597645e-06
-2.8882032e-06
-1.0431976e-06
-1.0652186e-06
1.4526293e-06
-2.8241526e-06
-8.443609e-07
-8.9002915e-07
1.2180932e-06
-2.7636912e-06
-6.3002831e-07
-6.9953737e-07
9.6446992e-07
-2.7077575e-06
-4.0951089e-07
-5.0372399e-07
7.0254979e-07
-2.656946e-06
-1.8999126e-07
-3.095707e-07
4.4000751e-07
-2.6115799e-06
2.7753649e-08
-1.1609102e-07
1.7881777e-07
2.4177918e-07
7.4955437e-08
-7.8283293e-08
-3.4112109e-06
-4.6706976e-07
-1.3870996e-07
2.5247442e-07
-3.4794714e-06
-6.5653271e-07
-1.6510915e-07
2.931475e-07
-3.5057258e-06
-7.901491e-07
-2.5422214e-07
4.1378593e-07
-3.5118446e-06
-9.0599574e-07
-3.7289554e-07
5.7803222e-07
-3.5066417e-06
-1.0133063e-06
-4.9784643e-07
7.5816529e-07
-3.4927653e-06
-1.1052232e-06
-6.1795234e-07
9.3312996e-07
-3.4709278e-06
-1.1816182e-06
-7.2981143e-07
1.0969741e-06
-3.4417254e-06
-1.2426882e-06
-8.3503873e-07
1.2459585e-06
-3.4050262e-06
-1.2884328e-06
-9.3414547e-07
1.3778422e-06
-3.3612439e-06
-1.3157533e-06
-1.0198136e-06
1.4873778e-06
-3.3110274e-06
-1.3205774e-06
-1.0870762e-06
1.5684451e-06
-3.2548573e-06
-1.3039866e-06
-1.1349457e-06
1.6188129e-06
-3.1941668e-06
-1.2628018e-06
-1.1536383e-06
1.6323395e-06
-3.1300669e-06
-1.1891133e-06
-1.1303523e-06
1.60069e-06
-3.0635661e-06
-1.0872403e-06
-1.0695743e-06
1.5277628e-06
-2.9959557e-06
-9.732314e-07
-9.8944755e-07
1.4263196e-06
-2.9284144e-06
-8.5378137e-07
-8.997804e-07
1.3026582e-06
-2.8621605e-06
-7.2162003e-07
-7.961192e-07
1.1537794e-06
-2.7980932e-06
-5.730524e-07
-6.7543317e-07
9.8044029e-07
-2.73717e-06
-4.1384953e-07
-5.4277773e-07
7.9039824e-07
-2.6802433e-06
-2.5271147e-07
-4.079111e-07
5.9414349e-07
-2.6280845e-06
-9.3540414e-08
-2.7552836e-07
3.9778292e-07
-2.58129e-06
6.4760669e-08
-1.4322245e-07
2.0204884e-07
2.2088243e-07
-1.2430183e-08
9.0387539e-09
-3.3755257e-06
-4.0000497e-07
6.5595279e-10
7.4813926e-08
-3.4290866e-06
-5.5675087e-07
3.8485303e-08
5.1729638e-08
-3.4546935e-06
-6.4956582e-07
-3.0846567e-09
1.334403e-07
-3.4633409e-06
-7.1378997e-07
-7.7746656e-08
2.5329099e-07
-3.4619488e-06
-7.675288e-07
-1.5604878e-07
3.8210922e-07
-3.4518905e-06
-8.0720529e-07
-2.3271575e-07
5.0893156e-07
-3.4335685e-06
-8.3376e-07
-3.0487784e-07
6.2639577e-07
-3.4072578e-06
-8.509461e-07
-3.7893774e-07
7.3968969e-07
-3.3731173e-06
-8.5984427e-07
-4.5146937e-07
8.443508e-07
-3.3312903e-06
-8.5767988e-07
-5.1682718e-07
9.3451354e-07
-3.2824899e-06
-8.4018397e-07
-5.7306493e-07
1.0059466e-06
-3.2276395e-06
-8.0844108e-07
-6.2152464e-07
1.0573537e-06
-3.167713e-06
-7.6413342e-07
-6.5326232e-07
1.0841803e-06
-3.1041649e-06
-7.0396688e-07
-6.5727045e-07
1.0802685e-06
-3.0377978e-06
-6.3020131e-07
-6.3678371e-07
1.0480846e-06
-2.9699496e-06
-5.5243291e-07
-6.0415174e-07
9.9603327e-07
-2.9020912e-06
-4.7397169e-07
-5.6580973e-07
9.273081e-07
-2.8354127e-06
-3.8747718e-07
-5.1575819e-07
8.3767423e-07
-2.7709394e-06
-2.9016594e-07
-4.5139268e-07
7.2758091e-07
-2.7094894e-06
-1.8794909e-07
-3.7836141e-07
6.0401735e-07
-2.6518403e-06
-8.7567293e-08
-3.056453e-07
4.7631143e-07
-2.5988638e-06
1.0122783e-08
-2.3571503e-07
3.485176e-07
-2.5512365e-06
1.0779567e-07
-1.6496347e-07
2.1997656e-07
2.0498652e-07
-9.4906985e-08
9.3328527e-08
-3.3758574e-06
-3.4570319e-07
1.4940515e-07
-1.1261198e-07
-3.4173308e-06
-4.6720146e-07
2.3579207e-07
-1.763029e-07
-3.4447916e-06
-5.1303221e-07
2.3653278e-07
-1.3505844e-07
-3.456759e-06
-5.264494e-07
2.0608306e-07
-6.3221132e-08
-3.4589794e-06
-5.271513e-07
1.7070949e-07
1.6233052e-08
-3.4520978e-06
-5.1852957e-07
1.3510769e-07
9.7246393e-08
-3.4364136e-06
-5.0193634e-07
9.9622035e-08
1.7647387e-07
-3.4119375e-06
-4.7913468e-07
6.03181e-08
2.5208469e-07
-3.3782435e-06
-4.4987375e-07
1.5376031e-08
3.2300128e-07
-3.3351221e-06
-4.1449577e-07
-3.0850175e-08
3.8812544e-07
-3.2839918e-06
-3.7410909e-07
-7.7495655e-08
4.4898687e-07
-3.2269828e-06
-3.2934472e-07
-1.2195047e-07
4.9974792e-07
-3.1641198e-06
-2.8338026e-07
-1.6117615e-07
5.3695918e-07
-3.0973021e-06
-2.3362309e-07
-1.8876014e-07
5.5740731e-07
-3.0273933e-06
-1.8313623e-07
-2.0411192e-07
5.6277008e-07
-2.9560596e-06
-1.3593596e-07
-2.1441016e-07
5.5689181e-07
-2.884988e-06
-9.2668928e-08
-2.2317911e-07
5.3973762e-07
-2.8156474e-06
-4.7740093e-08
-2.2434978e-07
5.0741542e-07
-2.7490408e-06
3.9899777e-10
-2.1558593e-07
4.5986181e-07
-2.6859876e-06
4.7164145e-08
-2.0216459e-07
4.0304366e-07
-2.6271717e-06
8.8907696e-08
-1.9095481e-07
3.442458e-07
-2.5733699e-06
1.2680879e-07
-1.8251417e-07
2.8565117e-07
-2.525297e-06
1.6459066e-07
-1.7279442e-07
2.2553988e-07
2.0371003e-07
-1.6299026e-07
1.6595768e-07
-3.4493543e-06
3.385294e-07
-3.2180009e-07
-3.2755794e-07
-3.4785405e-06
4.4259869e-07
-3.9395821e-07
-4.1223538e-07
-3.5092578e-06
4.7542835e-07
-3.8166378e-07
-4.0762835e-07
-3.527972e-06
4.8385535e-07
-3.4915667e-07
-3.7709615e-07
-3.5353769e-06
4.8849351e-07
-3.1220279e-07
-3.3636952e-07
-3.5314111e-06
4.9085883e-07
-2.7337171e-07
-2.906638e-07
-3.5164374e-06
4.8849753e-07
-2.3195414e-07
-2.4121236e-07
-3.4902489e-06
4.7868562e-07
-1.8818762e-07
-1.899125e-07
-3.452762e-06
4.5950289e-07
-1.4172132e-07
-1.3658408e-07
-3.4038758e-06
4.3346824e-07
-9.4846946e-08
-8.2351946e-08
-3.3450144e-06
4.0035515e-07
-4.7943499e-08
-2.7867941e-08
-3.2789042e-06
3.5777995e-07
6.5858624e-10
2.6258046e-08
-3.2090489e-06
3.1287935e-07
4.5424162e-08
7.5258e-08
-3.1350406e-06
2.6631333e-07
8.5697103e-08
1.1804665e-07
-3.0581804e-06
2.1872849e-07
1.2234426e-07
1.5322847e-07
-2.9799973e-06
1.6957209e-07
1.5461549e-07
1.795732e-07
-2.9021859e-06
1.1747458e-07
1.8178333e-07
1.9853457e-07
-2.8266881e-06
6.7660889e-08
2.0034255e-07
2.1412674e-07
-2.75492e-06
2.2137513e-08
2.0954145e-07
2.2714698e-07
-2.6879534e-06
-2.2827418e-08
2.1357874e-07
2.3475002e-07
-2.6264984e-06
-7.1468735e-08
2.1746678e-07
2.351087e-07
-2.5711771e-06
-1.2281639e-07
2.2196412e-07
2.2988581e-07
-2.522487e-06
-1.7282572e-07
2.2489634e-07
2.2309599e-07
-2.2170443e-07
2.2710094e-07
2.1782362e-07
-3.6772731e-06
-5.9318161e-07
-7.1740152e-07
8.0001183e-07
-3.8068761e-06
-8.0439391e-07
-9.4169881e-07
9.9935859e-07
-3.8384428e-06
-1.0131319e-06
-1.1580424e-06
1.2072646e-06
-3.8364726e-06
-1.2561609e-06
-1.4067002e-06
1.4938955e-06
-3.8149174e-06
-1.5049895e-06
-1.6582123e-06
1.7985957e-06
-3.7806194e-06
-1.745468e-06
-1.8980318e-06
2.0975113e-06
-3.7372799e-06
-1.962264e-06
-2.1130135e-06
2.3724047e-06
-3.6856595e-06
-2.148391e-06
-2.2958979e-06
2.6099272e-06
-3.6269706e-06
-2.2972169e-06
-2.4411423e-06
2.8025857e-06
-3.562131e-06
-2.4093825e-06
-2.5482273e-06
2.9466757e-06
-3.4924349e-06
-2.4872693e-06
-2.6171199e-06
3.042497e-06
-3.4193195e-06
-2.5284755e-06
-2.6439917e-06
3.0872847e-06
-3.3439842e-06
-2.516674e-06
-2.6142422e-06
3.068891e-06
-3.2673571e-06
-2.4263153e-06
-2.5100768e-06
2.9712509e-06
-3.1905429e-06
-2.2639977e-06
-2.3401435e-06
2.7997175e-06
-3.1150335e-06
-2.0612027e-06
-2.1305331e-06
2.5745553e-06
-3.0419369e-06
-1.8347222e-06
-1.8930897e-06
2.3075741e-06
-2.9721389e-06
-1.5853306e-06
-1.6282928e-06
2.0031943e-06
-2.9065783e-06
-1.310782e-06
-1.335819e-06
1.6651667e-06
-2.8463115e-06
-1.0130979e-06
-1.0200915e-06
1.2999023e-06
-2.7925368e-06
-7.0215821e-07
-6.9206862e-07
9.1861999e-07
-2.7456569e-06
-3.9067076e-07
-3.6254232e-07
5.341169e-07
-2.7055426e-06
-8.0562766e-08
-3.2913045e-08
1.5209834e-07
2.2598909e-07
2.9320075e-07
-2.2665052e-07
-3.4383058e-06
-4.9620925e-07
-4.9352886e-07
-3.5040327e-06
-7.0079951e-07
-6.9589849e-07
-3.5156344e-06
-8.9480327e-07
-8.8785447e-07
-3.5071949e-06
-1.1034988e-06
-1.0956507e-06
-3.4857866e-06
-1.3122678e-06
-1.3032159e-06
-3.4566827e-06
-1.5103182e-06
-1.4995452e-06
-3.420541e-06
-1.6866197e-06
-1.6755879e-06
-3.3782561e-06
-1.8371657e-06
-1.8273452e-06
-3.330735e-06
-1.9587111e-06
-1.9510163e-06
-3.2784696e-06
-2.0514451e-06
-2.0461015e-06
-3.2225438e-06
-2.1158602e-06
-2.1119418e-06
-3.1633708e-06
-2.1495303e-06
-2.1457765e-06
-3.1025146e-06
-2.1361786e-06
-2.1312064e-06
-3.0409649e-06
-2.0503684e-06
-2.0450151e-06
-2.9794212e-06
-1.8993445e-06
-1.8956371e-06
-2.9190451e-06
-1.7171212e-06
-1.7146711e-06
-2.8607146e-06
-1.5219785e-06
-1.5179684e-06
-2.8051054e-06
-1.3129769e-06
-1.3049272e-06
-2.7526988e-06
-1.0840833e-06
-1.0714279e-06
-2.7044362e-06
-8.34166e-07
-8.1818583e-07
-2.6610989e-06
-5.7186429e-07
-5.5496924e-07
-2.6234551e-06
-3.0878171e-07
-2.916522e-07
-2.5931116e-06
-4.5911958e-08
-2.7170328e-08
2.143255e-07
2.3511576e-07
-3.3492777e-06
-4.1703303e-07
-3.4054052e-07
-3.3928242e-06
-6.1078423e-07
-4.8850087e-07
-3.3967001e-06
-7.78173e-07
-6.4401618e-07
-3.3864103e-06
-9.4491951e-07
-8.1319551e-07
-3.3674798e-06
-1.1060692e-06
-9.8210609e-07
-3.3429931e-06
-1.2543582e-06
-1.1420286e-06
-3.3131698e-06
-1.3844013e-06
-1.2873844e-06
-3.2780491e-06
-1.494672e-06
-1.4157811e-06
-3.237785e-06
-1.583794e-06
-1.5247686e-06
-3.1928586e-06
-1.6500983e-06
-1.6118177e-06
-3.1440413e-06
-1.6931657e-06
-1.6752397e-06
-3.0914161e-06
-1.7120366e-06
-1.7127281e-06
-3.0365416e-06
-1.6930616e-06
-1.7095396e-06
-2.9805071e-06
-1.6146917e-06
-1.6444945e-06
-2.9236383e-06
-1.4839175e-06
-1.5225619e-06
-2.8669931e-06
-1.331396e-06
-1.3729322e-06
-2.8115883e-06
-1.1742013e-06
-1.2149855e-06
-2.7581116e-06
-1.009543e-06
-1.0486147e-06
-2.7071031e-06
-8.2958149e-07
-8.6712854e-07
-2.6595002e-06
-6.3228154e-07
-6.6895302e-07
-2.6160056e-06
-4.2534782e-07
-4.6279037e-07
-2.5772602e-06
-2.1789101e-07
-2.5690789e-07
-2.5443113e-06
-1.0353409e-08
-4.9692029e-08
1.9532617e-07
1.5605988e-07
-3.3111938e-06
-3.4536285e-07
-2.0177405e-07
-3.3473099e-06
-5.2234259e-07
-2.837675e-07
-3.34984e-06
-6.5721286e-07
-3.9277887e-07
-3.3396377e-06
-7.7772668e-07
-5.1772801e-07
-3.3224179e-06
-8.8762425e-07
-6.4272552e-07
-3.3003777e-06
-9.8273497e-07
-7.615145e-07
-3.2736433e-06
-1.0629353e-06
-8.7131e-07
-3.2419237e-06
-1.1292995e-06
-9.7166554e-07
-3.2049118e-06
-1.1812931e-06
-1.0612858e-06
-3.1630279e-06
-1.2163666e-06
-1.1361785e-06
-3.1167968e-06
-1.234256e-06
-1.1939205e-06
-3.0663615e-06
-1.2366532e-06
-1.2326348e-06
-3.0133711e-06
-1.2134164e-06
-1.2398854e-06
-2.9589433e-06
-1.1471578e-06
-1.1990913e-06
-2.90321e-06
-1.0427045e-06
-1.1119236e-06
-2.8473423e-06
-9.2573192e-07
-1.002129e-06
-2.7923646e-06
-8.1099574e-07
-8.8929444e-07
-2.7390847e-06
-6.9276145e-07
-7.7307878e-07
-2.6881154e-06
-5.6268695e-07
-6.4597776e-07
-2.6403044e-06
-4.2008497e-07
-5.0639242e-07
-2.5962845e-06
-2.7183555e-07
-3.6203877e-07
-2.5566502e-06
-1.2372691e-07
-2.1877129e-07
-2.5224537e-06
2.5010108e-08
-7.4097455e-08
1.7308519e-07
7.0017151e-08
-3.2936238e-06
-2.7808061e-07
-6.8595665e-08
-3.3263215e-06
-4.3420146e-07
-8.1300934e-08
-3.3293272e-06
-5.3289414e-07
-1.3932869e-07
-3.3200991e-06
-6.0544341e-07
-2.1722354e-07
-3.3041724e-06
-6.6410097e-07
-2.9617627e-07
-3.2835269e-06
-7.0667887e-07
-3.7038001e-07
-3.2581663e-06
-7.3636311e-07
-4.3969795e-07
-3.2277186e-06
-7.5636039e-07
-5.0698004e-07
-3.1918477e-06
-7.6934908e-07
-5.7198974e-07
-3.1508307e-06
-7.7259015e-07
-6.2988694e-07
-3.1051289e-06
-7.6548364e-07
-6.783369e-07
-3.0549384e-06
-7.5129707e-07
-7.1748544e-07
-3.0018332e-06
-7.2397935e-07
-7.3700689e-07
-2.9471538e-06
-6.7054974e-07
-7.2220137e-07
-2.8909836e-06
-5.9407567e-07
-6.7349848e-07
-2.8344454e-06
-5.1421928e-07
-6.0974178e-07
-2.7786724e-06
-4.4253192e-07
-5.4702367e-07
-2.7245261e-06
-3.7052741e-07
-4.8376209e-07
-2.6727211e-06
-2.900433e-07
-4.1344154e-07
-2.6239607e-06
-2.0263573e-07
-3.3524797e-07
-2.578852e-06
-1.1410148e-07
-2.5573082e-07
-2.5380501e-06
-2.6561245e-08
-1.778431e-07
-2.5025056e-06
6.2313193e-08
-9.793204e-08
1.5181396e-07
-1.7670483e-08
-3.2900145e-06
-2.1587146e-07
6.5209857e-08
-3.3203421e-06
-3.4807939e-07
1.1827215e-07
-3.3249001e-06
-4.0779853e-07
1.1052294e-07
-3.3175541e-06
-4.3277659e-07
7.8557959e-08
-3.3030467e-06
-4.4088175e-07
4.587371e-08
-3.283435e-06
-4.3415899e-07
1.5810972e-08
-3.2585822e-06
-4.175799e-07
-1.2646346e-08
-3.2285933e-06
-3.9635766e-07
-4.534106e-08
-3.1926614e-06
-3.7166048e-07
-8.2281135e-08
-3.150928e-06
-3.4266433e-07
-1.1832509e-07
-3.1043063e-06
-3.1071289e-07
-1.5373595e-07
-3.0529866e-06
-2.8096396e-07
-1.9190339e-07
-2.9983615e-06
-2.4968521e-07
-2.2352874e-07
-2.9421371e-06
-2.0756302e-07
-2.3452717e-07
-2.8842816e-06
-1.5734741e-07
-2.2393989e-07
-2.8257394e-06
-1.1133321e-07
-2.0614553e-07
-2.7680567e-06
-7.7804117e-08
-1.9404836e-07
-2.7122088e-06
-4.8159597e-08
-1.8479531e-07
-2.6587636e-06
-1.5632586e-08
-1.7248375e-07
-2.6084214e-06
1.7381142e-08
-1.5706698e-07
-2.5617937e-06
4.7372261e-08
-1.4326426e-07
-2.5195886e-06
7.5561541e-08
-1.3115958e-07
-2.4827398e-06
1.0557119e-07
-1.1623086e-07
1.3741676e-07
-1.0019661e-07
-3.3103576e-06
-1.5825349e-07
2.0721926e-07
-3.3401661e-06
-2.6669359e-07
3.1395384e-07
-3.3490764e-06
-2.8438637e-07
3.5113058e-07
-3.344848e-06
-2.6284173e-07
3.6309244e-07
-3.3331144e-06
-2.2357895e-07
3.7415969e-07
-3.3151407e-06
-1.7295618e-07
3.853652e-07
-3.2910039e-06
-1.171938e-07
3.9434588e-07
-3.2606151e-06
-5.9888913e-08
3.950579e-07
-3.2233471e-06
-1.9380834e-09
3.8592114e-07
-3.1794181e-06
5.5883896e-08
3.7043361e-07
-3.1305189e-06
1.0893373e-07
3.4613785e-07
-3.0761669e-06
1.5139812e-07
3.1118489e-07
-3.0184595e-06
1.868487e-07
2.7148278e-07
-2.9584978e-06
2.1974751e-07
2.3749168e-07
-2.8969262e-06
2.4822607e-07
2.1327911e-07
-2.834664e-06
2.6641295e-07
1.8882893e-07
-2.7734893e-06
2.6908895e-07
1.5389346e-07
-2.714579e-06
2.6260333e-07
1.1200131e-07
-2.6583488e-06
2.5156856e-07
6.8566116e-08
-2.6055722e-06
2.3462883e-07
2.3522666e-08
-2.5568507e-06
2.1138196e-07
-2.5280545e-08
-2.5128592e-06
1.8523756e-07
-7.5767826e-08
-2.4745008e-06
1.6050107e-07
-1.2336773e-07
1.3860499e-07
-1.6938249e-07
-3.3750219e-06
3.9352587e-07
-1.1916231e-07
-3.4161113e-06
5.3025265e-07
-1.9790123e-07
-3.4431802e-06
6.0615237e-07
-1.6649252e-07
-3.4548516e-06
6.6160656e-07
-9.879687e-08
-3.4569207e-06
7.1833816e-07
-1.5862061e-08
-3.450237e-06
7.7169833e-07
7.4200673e-08
-3.4350565e-06
8.172164e-07
1.6465262e-07
-3.4111029e-06
8.518903e-07
2.5064482e-07
-3.3777395e-06
8.7335696e-07
3.3039213e-07
-3.3348278e-06
8.8067001e-07
4.0451601e-07
-3.2837262e-06
8.6877002e-07
4.7083974e-07
-3.2267696e-06
8.3475888e-07
5.2357524e-07
-3.1639964e-06
7.8698222e-07
5.6250306e-07
-3.0972153e-06
7.3285069e-07
5.8699459e-07
-3.0274502e-06
6.7332029e-07
5.9617089e-07
-2.9561923e-06
6.048035e-07
5.8960331e-07
-2.8851933e-06
5.2105184e-07
5.6553471e-07
-2.8159611e-06
4.2616204e-07
5.2905911e-07
-2.7493929e-06
3.2500036e-07
4.8308803e-07
-2.6863572e-06
2.1807644e-07
4.2721328e-07
-2.6275322e-06
1.055504e-07
3.6207174e-07
-2.5736436e-06
-9.1726096e-09
2.9138558e-07
-2.5254482e-06
-1.2137031e-07
2.2000338e-07
-2.3056241e-07
1.5150615e-07
-3.5431612e-06
-4.2843489e-07
-6.2261849e-07
6.0537632e-07
-3.6440688e-06
-5.8696159e-07
-8.4476172e-07
7.6712446e-07
-3.6716033e-06
-7.6623921e-07
-1.0423079e-06
9.600216e-07
-3.6719216e-06
-9.7384184e-07
-1.2527631e-06
1.2142747e-06
-3.6568232e-06
-1.1865749e-06
-1.4601462e-06
1.4840422e-06
-3.6313788e-06
-1.3918782e-06
-1.6547348e-06
1.7478132e-06
-3.5981652e-06
-1.5797488e-06
-1.8292757e-06
1.991542e-06
-3.5573233e-06
-1.7424608e-06
-1.976381e-06
2.2037364e-06
-3.5091404e-06
-1.8747754e-06
-2.0900548e-06
2.3776266e-06
-3.4548041e-06
-1.9771501e-06
-2.1717542e-06
2.5096936e-06
-3.3951904e-06
-2.0529745e-06
-2.2239954e-06
2.6007716e-06
-3.331225e-06
-2.1000869e-06
-2.2414904e-06
2.6488278e-06
-3.264237e-06
-2.102252e-06
-2.2110193e-06
2.6424324e-06
-3.1948561e-06
-2.0377693e-06
-2.1191583e-06
2.5674543e-06
-3.1241801e-06
-1.9105478e-06
-1.9723978e-06
2.4288328e-06
-3.053565e-06
-1.7467183e-06
-1.7924966e-06
2.2426337e-06
-2.9841585e-06
-1.5642124e-06
-1.5915323e-06
2.0206354e-06
-2.9169076e-06
-1.3630223e-06
-1.3677528e-06
1.7650204e-06
-2.852706e-06
-1.1387775e-06
-1.1180345e-06
1.4776322e-06
-2.7926809e-06
-8.9191292e-07
-8.4627133e-07
1.1640432e-06
-2.7379175e-06
-6.3237797e-07
-5.6400874e-07
8.3557885e-07
-2.6889896e-06
-3.7179909e-07
-2.8093066e-07
5.0398161e-07
-2.6455913e-06
-1.111493e-07
3.0853789e-09
1.7250368e-07
1.4595892e-07
2.8281057e-07
-1.5237919e-07
-3.348862e-06
-3.4311766e-07
-4.1411596e-07
-3.3921661e-06
-4.9216866e-07
-6.0517308e-07
-3.3959037e-06
-6.4881847e-07
-7.7022558e-07
-3.3854938e-06
-8.1893695e-07
-9.3533341e-07
-3.3665383e-06
-9.894513e-07
-1.094091e-06
-3.3421449e-06
-1.1518892e-06
-1.2403708e-06
-3.3125429e-06
-1.2989376e-06
-1.371683e-06
-3.277525e-06
-1.4254863e-06
-1.4831042e-06
-3.2372949e-06
-1.5285008e-06
-1.5704243e-06
-3.1924713e-06
-1.6099103e-06
-1.6366754e-06
-3.1437528e-06
-1.6725497e-06
-1.6839394e-06
-3.0913122e-06
-1.7130458e-06
-1.707869e-06
-3.0366979e-06
-1.7146302e-06
-1.6931327e-06
-2.9808275e-06
-1.6558555e-06
-1.621377e-06
-2.9240551e-06
-1.5391334e-06
-1.4982958e-06
-2.8675186e-06
-1.3926595e-06
-1.3496638e-06
-2.8121601e-06
-1.2383708e-06
-1.1916226e-06
-2.7587014e-06
-1.076713e-06
-1.0229926e-06
-2.7077177e-06
-8.9922858e-07
-8.3725317e-07
-2.6600977e-06
-7.0233005e-07
-6.3354905e-07
-2.6165444e-06
-4.9367717e-07
-4.2131775e-07
-2.5777209e-06
-2.8362093e-07
-2.0863649e-07
-2.5446661e-06
-7.2501726e-08
6.5310569e-09
1.3643999e-07
2.2025094e-07
-3.2809147e-06
-2.7120651e-07
-2.6856591e-07
-3.3107725e-06
-4.0794803e-07
-4.0400912e-07
-3.3093025e-06
-5.3444802e-07
-5.2882954e-07
-3.297333e-06
-6.6124786e-07
-6.5354571e-07
-3.2797263e-06
-7.8275736e-07
-7.7198788e-07
-3.2584261e-06
-8.9437374e-07
-8.8074793e-07
-3.2331064e-06
-9.9357247e-07
-9.7947276e-07
-3.2030643e-06
-1.0775797e-06
-1.065003e-06
-3.1681186e-06
-1.14506e-06
-1.1349784e-06
-3.1285357e-06
-1.1977027e-06
-1.1912378e-06
-3.0848791e-06
-1.2377704e-06
-1.2344429e-06
-3.0372724e-06
-1.2635302e-06
-1.2619488e-06
-2.9868371e-06
-1.2601161e-06
-1.259505e-06
-2.934965e-06
-1.2076182e-06
-1.2086426e-06
-2.8816864e-06
-1.1079895e-06
-1.1117646e-06
-2.827799e-06
-9.8784688e-07
-9.9229649e-07
-2.7745488e-06
-8.6914397e-07
-8.7029841e-07
-2.7226453e-06
-7.5202947e-07
-7.4780184e-07
-2.6726705e-06
-6.2621487e-07
-6.1651088e-07
-2.6255456e-06
-4.8587776e-07
-4.7179569e-07
-2.5819248e-06
-3.3632921e-07
-3.2022451e-07
-2.5424111e-06
-1.852198e-07
-1.6812582e-07
-2.5079139e-06
-3.2357915e-08
-1.2792082e-08
1.1966616e-07
1.4248122e-07
-3.2560917e-06
-2.0407703e-07
-1.3371549e-07
-3.2832906e-06
-3.2424029e-07
-2.0184629e-07
-3.2818043e-06
-4.1671151e-07
-2.781e-07
-3.2701585e-06
-4.9724633e-07
-3.5777408e-07
-3.2535775e-06
-5.6608085e-07
-4.3241169e-07
-3.2337418e-06
-6.2234648e-07
-5.0008118e-07
-3.2103123e-06
-6.6821814e-07
-5.620419e-07
-3.1824252e-06
-7.0439796e-07
-6.1730684e-07
-3.1495591e-06
-7.3094062e-07
-6.6507909e-07
-3.1117213e-06
-7.4832612e-07
-7.0618998e-07
-3.069386e-06
-7.5928771e-07
-7.4136753e-07
-3.0229882e-06
-7.6697048e-07
-7.6951174e-07
-2.9734487e-06
-7.5981096e-07
-7.7828666e-07
-2.9223773e-06
-7.1756725e-07
-7.5070008e-07
-2.8696688e-06
-6.4083629e-07
-6.8499546e-07
-2.8159852e-06
-5.5386906e-07
-6.0080076e-07
-2.7627872e-06
-4.7678765e-07
-5.2077252e-07
-2.7108249e-06
-4.0795124e-07
-4.4887369e-07
-2.6607133e-06
-3.3641609e-07
-3.758621e-07
-2.6133605e-06
-2.5618835e-07
-2.9506284e-07
-2.5693968e-06
-1.7031229e-07
-2.1019927e-07
-2.5293798e-06
-8.2775679e-08
-1.2475681e-07
-2.4943463e-06
7.6044495e-09
-3.5265717e-08
9.8718768e-08
5.5661744e-08
-3.2509996e-06
-1.3859636e-07
-2.4990828e-09
-3.2780463e-06
-2.3941987e-07
7.0432207e-10
-3.277304e-06
-2.9576759e-07
-2.3290101e-08
-3.2661121e-06
-3.2830364e-07
-5.5924885e-08
-3.249835e-06
-3.4490675e-07
-8.4564999e-08
-3.2303339e-06
-3.4661399e-07
-1.0823464e-07
-3.2071521e-06
-3.386403e-07
-1.2929765e-07
-3.1795505e-06
-3.2541766e-07
-1.5000341e-07
-3.1467743e-06
-3.0881286e-07
-1.7098364e-07
-3.1088186e-06
-2.8925045e-07
-1.9213968e-07
-3.0661241e-06
-2.7061882e-07
-2.1598692e-07
-3.0191455e-06
-2.5952363e-07
-2.4414732e-07
-2.9690256e-06
-2.4813311e-07
-2.6562231e-07
-2.9172261e-06
-2.1712594e-07
-2.6265502e-07
-2.8635572e-06
-1.6457695e-07
-2.3062249e-07
-2.8088768e-06
-1.1191245e-07
-1.8690399e-07
-2.754721e-06
-7.7930908e-08
-1.543446e-07
-2.7018072e-06
-5.8176245e-08
-1.3654425e-07
-2.6508084e-06
-4.1031846e-08
-1.2414884e-07
-2.6026289e-06
-2.1502532e-08
-1.1010452e-07
-2.5578841e-06
-3.7230129e-10
-9.5270256e-08
-2.5171896e-06
2.2435024e-08
-7.946046e-08
-2.481568e-06
4.9208642e-08
-5.8312807e-08
7.8309358e-08
-3.4445914e-08
-3.259594e-06
-7.4103792e-08
1.3010714e-07
-3.2871614e-06
-1.5458192e-07
2.0159603e-07
-3.2877982e-06
-1.7301182e-07
2.289081e-07
-3.2776273e-06
-1.575844e-07
2.4267665e-07
-3.2615797e-06
-1.2341907e-07
2.5946875e-07
-3.2419113e-06
-7.4805787e-08
2.7920427e-07
-3.218195e-06
-1.9186637e-08
2.9835072e-07
-3.1897667e-06
3.8388732e-08
3.1232217e-07
-3.1558524e-06
9.5095328e-08
3.200242e-07
-3.1164802e-06
1.4770055e-07
3.211928e-07
-3.072383e-06
1.9157275e-07
3.0998946e-07
-3.0238281e-06
2.1928745e-07
2.8176935e-07
-2.9720792e-06
2.3619428e-07
2.4712774e-07
-2.9187043e-06
2.5796305e-07
2.2570032e-07
-2.863357e-06
2.8775403e-07
2.2389357e-07
-2.8069966e-06
3.0881692e-07
2.2621651e-07
-2.7514008e-06
3.0428553e-07
2.1048815e-07
-2.6972334e-06
2.799681e-07
1.7411808e-07
-2.6450919e-06
2.4688915e-07
1.2652725e-07
-2.5958857e-06
2.0910884e-07
7.4553657e-08
-2.5502645e-06
1.6891893e-07
2.0535223e-08
-2.5088796e-06
1.3008393e-07
-3.1720408e-08
-2.4726919e-06
9.5889967e-08
-7.751437e-08
6.5286585e-08
-1.1973526e-07
-3.289145e-06
-8.9523634e-09
2.7046239e-07
-3.3194234e-06
-6.9700073e-08
3.9992814e-07
-3.3237988e-06
-4.8723567e-08
4.7341074e-07
-3.3160729e-06
1.352502e-08
5.3047013e-07
-3.3015863e-06
9.475971e-08
5.9059169e-07
-3.2821924e-06
1.8757511e-07
6.5070861e-07
-3.2579141e-06
2.8345918e-07
7.0559181e-07
-3.2282603e-06
3.7780207e-07
7.5045615e-07
-3.1923794e-06
4.6632343e-07
7.840417e-07
-3.1507244e-06
5.4462331e-07
8.0336243e-07
-3.1040685e-06
6.059721e-07
8.0141405e-07
-3.0529417e-06
6.4598693e-07
7.7282296e-07
-2.9985358e-06
6.6758734e-07
7.2755027e-07
-2.94236e-06
6.8080114e-07
6.8408752e-07
-2.8844625e-06
6.8930915e-07
6.4966292e-07
-2.825769e-06
6.8164725e-07
6.1151244e-07
-2.7681218e-06
6.4494692e-07
5.4956222e-07
-2.712325e-06
5.8415168e-07
4.6253229e-07
-2.6588283e-06
5.0841994e-07
3.5974534e-07
-2.6084597e-06
4.220194e-07
2.4800228e-07
-2.5618621e-06
3.2976258e-07
1.3226615e-07
-2.5197104e-06
2.3749961e-07
1.8485852e-08
-2.48282e-06
1.4937232e-07
-8.8935645e-08
6.5896304e-08
-1.9244302e-07
-3.3726126e-06
4.6150434e-07
6.8869627e-08
-3.4252435e-06
6.3000921e-07
3.0902121e-08
-3.4502022e-06
7.4459362e-07
1.0017615e-07
-3.4585656e-06
8.488971e-07
2.1314316e-07
-3.4574469e-06
9.5827774e-07
3.4399213e-07
-3.4481253e-06
1.0644907e-06
4.803735e-07
-3.4306338e-06
1.1616113e-06
6.1236771e-07
-3.405291e-06
1.2420215e-06
7.3921595e-07
-3.3718481e-06
1.3029097e-06
8.5453829e-07
-3.3302848e-06
1.3408053e-06
9.5247157e-07
-3.2814604e-06
1.3476964e-06
1.0270204e-06
-3.226951e-06
1.3200895e-06
1.0748921e-06
-3.1675005e-06
1.2667401e-06
1.0983123e-06
-3.1041397e-06
1.2017336e-06
1.101107e-06
-3.0380721e-06
1.1302877e-06
1.0839482e-06
-2.9702486e-06
1.0437547e-06
1.0424974e-06
-2.9024782e-06
9.2802005e-07
9.7169475e-07
-2.8359532e-06
7.8460208e-07
8.7597687e-07
-2.7714988e-06
6.2252908e-07
7.6204723e-07
-2.7100614e-06
4.4832228e-07
6.3353346e-07
-2.652381e-06
2.679842e-07
4.9497838e-07
-2.5993005e-06
8.8299124e-08
3.5215432e-07
-2.5514515e-06
-8.5949181e-08
2.1054004e-07
-2.5459543e-07
7.3895599e-08
-3.4649297e-06
-2.8094154e-07
-5.3826425e-07
4.2646835e-07
-3.5479655e-06
-3.7412101e-07
-7.4687411e-07
5.3160982e-07
-3.5740894e-06
-5.1123843e-07
-9.1586344e-07
6.9333425e-07
-3.5769155e-06
-6.7627761e-07
-1.0817661e-06
9.0586856e-07
-3.5672171e-06
-8.4742013e-07
-1.2388978e-06
1.1336389e-06
-3.5486892e-06
-1.0132555e-06
-1.3824968e-06
1.3559415e-06
-3.522301e-06