/*--------------------------------*- C++ -*----------------------------------*\
| =========                 |                                                 |
| \\      /  F ield         | foam-extend: Open Source CFD                    |
|  \\    /   O peration     | Version:     4.1-20200408                       |
|   \\  /    A nd           | Web:         http://www.foam-extend.org         |
|    \\/     M anipulation  |                                                 |
\*---------------------------------------------------------------------------*/
FoamFile
{
    version     2.0;
    format      ascii;
    class       volScalarField;
    location    "0.0845000";
    object      rho_0_0;
}
// * * * * * * * * * * * * * * * * * * * * * * * * * * * * * * * * * * * * * //

dimensions      [1 -3 0 0 0 0 0];

internalField   nonuniform List<scalar> 
1952
(
7862.67
7861.47
7859.85
7857.86
7855.42
7852.63
7849.48
7845.96
7842.08
7837.07
7831.55
7824.14
7816.13
7807.78
7802.38
7863.25
7862.51
7861.3
7859.69
7857.7
7855.26
7852.48
7849.34
7845.82
7841.95
7836.96
7831.45
7824.05
7816.06
7807.74
7802.37
7863.09
7862.36
7861.16
7859.54
7857.56
7855.12
7852.34
7849.21
7845.7
7841.84
7836.85
7831.36
7823.98
7816.01
7807.72
7802.39
7862.94
7862.23
7861.03
7859.42
7857.44
7855
7852.23
7849.1
7845.6
7841.75
7836.77
7831.29
7823.93
7815.97
7807.7
7802.39
7862.81
7862.12
7860.92
7859.31
7857.33
7854.9
7852.13
7849.01
7845.52
7841.67
7836.7
7831.23
7823.88
7815.94
7807.69
7802.4
7862.7
7862.03
7860.83
7859.22
7857.24
7854.81
7852.04
7848.93
7845.44
7841.6
7836.64
7831.18
7823.84
7815.91
7807.68
7802.4
7862.6
7861.94
7860.74
7859.13
7857.16
7854.73
7851.96
7848.86
7845.38
7841.54
7836.59
7831.14
7823.8
7815.89
7807.66
7802.39
7862.52
7861.87
7860.67
7859.06
7857.09
7854.67
7851.9
7848.8
7845.32
7841.49
7836.54
7831.09
7823.77
7815.86
7807.65
7802.38
7862.44
7861.8
7860.61
7859
7857.03
7854.61
7851.84
7848.74
7845.27
7841.44
7836.49
7831.05
7823.73
7815.83
7807.62
7802.37
7862.38
7861.74
7860.55
7858.94
7856.98
7854.55
7851.79
7848.69
7845.22
7841.4
7836.45
7831.02
7823.7
7815.8
7807.6
7802.35
7862.32
7861.69
7860.5
7858.89
7856.93
7854.5
7851.74
7848.65
7845.18
7841.35
7836.41
7830.98
7823.66
7815.77
7807.58
7802.33
7862.27
7861.64
7860.45
7858.85
7856.88
7854.46
7851.69
7848.6
7845.14
7841.31
7836.37
7830.94
7823.62
7815.73
7807.55
7802.3
7862.22
7861.6
7860.41
7858.81
7856.84
7854.41
7851.65
7848.56
7845.1
7841.27
7836.33
7830.9
7823.59
7815.7
7807.52
7802.27
7862.18
7861.56
7860.37
7858.77
7856.8
7854.37
7851.61
7848.52
7845.06
7841.23
7836.28
7830.86
7823.55
7815.66
7807.48
7802.24
7862.14
7861.53
7860.34
7858.73
7856.76
7854.34
7851.57
7848.48
7845.02
7841.19
7836.24
7830.82
7823.5
7815.61
7807.45
7802.2
7862.11
7861.5
7860.31
7858.7
7856.73
7854.3
7851.53
7848.44
7844.98
7841.15
7836.2
7830.77
7823.46
7815.57
7807.41
7802.16
7862.07
7861.47
7860.28
7858.67
7856.7
7854.26
7851.5
7848.41
7844.94
7841.11
7836.16
7830.73
7823.41
7815.52
7807.36
7802.11
7862.05
7861.44
7860.25
7858.64
7856.66
7854.23
7851.46
7848.37
7844.91
7841.07
7836.11
7830.68
7823.37
7815.47
7807.32
7802.07
7862.02
7861.42
7860.22
7858.61
7856.64
7854.2
7851.43
7848.33
7844.87
7841.03
7836.07
7830.63
7823.32
7815.42
7807.27
7802.01
7861.99
7861.39
7860.2
7858.59
7856.61
7854.17
7851.4
7848.3
7844.83
7840.98
7836.02
7830.58
7823.26
7815.36
7807.21
7801.95
7861.97
7861.38
7860.18
7858.57
7856.59
7854.14
7851.36
7848.26
7844.8
7840.94
7835.97
7830.53
7823.21
7815.3
7807.15
7801.89
7861.96
7861.37
7860.17
7858.55
7856.57
7854.12
7851.34
7848.23
7844.76
7840.9
7835.92
7830.48
7823.15
7815.24
7807.09
7801.83
7861.95
7861.36
7860.16
7858.54
7856.56
7854.1
7851.31
7848.2
7844.73
7840.86
7835.88
7830.42
7823.09
7815.17
7807.02
7801.75
7861.94
7861.36
7860.17
7858.54
7856.55
7854.09
7851.3
7848.18
7844.7
7840.82
7835.83
7830.37
7823.03
7815.1
7806.95
7801.67
7861.94
7861.38
7860.18
7858.54
7856.55
7854.09
7851.29
7848.16
7844.68
7840.78
7835.79
7830.31
7822.97
7815.03
7806.88
7801.59
7861.96
7861.4
7860.2
7858.56
7856.57
7854.09
7851.28
7848.15
7844.66
7840.75
7835.75
7830.26
7822.9
7814.95
7806.8
7801.49
7861.98
7861.44
7860.24
7858.59
7856.6
7854.11
7851.3
7848.15
7844.65
7840.73
7835.71
7830.2
7822.84
7814.87
7806.71
7801.39
7862.02
7861.5
7860.29
7858.64
7856.64
7854.14
7851.32
7848.16
7844.65
7840.71
7835.68
7830.15
7822.78
7814.78
7806.62
7801.27
7862.08
7861.58
7860.37
7858.71
7856.71
7854.2
7851.36
7848.19
7844.67
7840.7
7835.66
7830.11
7822.72
7814.7
7806.52
7801.15
7862.17
7861.69
7860.48
7858.81
7856.79
7854.27
7851.43
7848.24
7844.7
7840.72
7835.65
7830.08
7822.66
7814.62
7806.42
7801.02
7862.27
7861.83
7860.61
7858.93
7856.91
7854.38
7851.52
7848.31
7844.76
7840.75
7835.66
7830.06
7822.62
7814.54
7806.32
7800.89
7862.41
7862
7860.78
7859.1
7857.07
7854.51
7851.64
7848.42
7844.85
7840.81
7835.69
7830.06
7822.59
7814.46
7806.22
7800.74
7862.59
7862.21
7861
7859.3
7857.26
7854.7
7851.81
7848.56
7844.97
7840.9
7835.76
7830.08
7822.58
7814.4
7806.12
7800.59
7862.8
7862.48
7861.26
7859.55
7857.51
7854.93
7852.03
7848.75
7845.14
7841.03
7835.86
7830.13
7822.6
7814.36
7806.04
7800.44
7863.07
7862.79
7861.58
7859.86
7857.81
7855.21
7852.3
7849
7845.37
7841.22
7836.02
7830.23
7822.65
7814.34
7805.97
7800.29
7863.39
7863.17
7861.95
7860.23
7858.18
7855.56
7852.64
7849.32
7845.66
7841.48
7836.23
7830.39
7822.76
7814.37
7805.94
7800.15
7863.76
7863.61
7862.4
7860.67
7858.61
7855.99
7853.05
7849.72
7846.04
7841.82
7836.53
7830.63
7822.94
7814.45
7805.94
7800.03
7864.2
7864.11
7862.91
7861.17
7859.12
7856.5
7853.55
7850.21
7846.51
7842.26
7836.93
7830.96
7823.21
7814.6
7806.01
7799.94
7864.7
7864.68
7863.49
7861.76
7859.72
7857.09
7854.15
7850.8
7847.1
7842.82
7837.46
7831.42
7823.6
7814.87
7806.17
7799.91
7865.27
7865.31
7864.13
7862.41
7860.39
7857.78
7854.85
7851.52
7847.82
7843.53
7838.14
7832.05
7824.16
7815.28
7806.46
7799.96
7865.9
7865.98
7864.84
7863.13
7861.14
7858.56
7855.66
7852.37
7848.69
7844.41
7839.02
7832.89
7824.94
7815.91
7806.93
7800.12
7866.57
7866.69
7865.57
7863.9
7861.95
7859.43
7856.58
7853.35
7849.72
7845.5
7840.13
7833.99
7826.01
7816.82
7807.67
7800.43
7867.27
7867.4
7866.33
7864.69
7862.81
7860.36
7857.6
7854.47
7850.92
7846.81
7841.52
7835.44
7827.47
7818.18
7808.86
7801.05
7867.97
7868.07
7867.05
7865.47
7863.68
7861.33
7858.68
7855.7
7852.3
7848.36
7843.21
7837.3
7829.46
7820.21
7810.9
7802.65
7868.62
7868.65
7867.69
7866.19
7864.51
7862.3
7859.8
7857.02
7853.82
7850.14
7845.23
7839.64
7832.13
7823.25
7814.5
7806.84
7869.18
7869.07
7868.18
7866.78
7865.22
7863.18
7860.88
7858.36
7855.4
7852.08
7847.49
7842.35
7835.27
7826.94
7818.91
7812.03
7869.58
7869.24
7868.44
7867.14
7865.74
7863.91
7861.83
7859.62
7856.97
7854.08
7849.88
7845.31
7838.74
7831.07
7823.78
7817.48
7869.72
7869.06
7868.35
7867.18
7865.96
7864.35
7862.55
7860.69
7858.4
7856.02
7852.28
7848.4
7842.37
7835.53
7828.94
7823.09
7869.52
7868.41
7867.82
7866.78
7865.76
7864.4
7862.9
7861.43
7859.56
7857.74
7854.53
7851.47
7846.06
7840.3
7834.28
7828.84
7868.84
7867.18
7866.69
7865.8
7865
7863.9
7862.73
7861.67
7860.26
7859.06
7856.49
7854.37
7849.7
7845.36
7839.82
7834.92
7867.58
7865.22
7864.84
7864.1
7863.52
7862.7
7861.88
7861.26
7860.33
7859.79
7857.92
7856.76
7853.06
7850.42
7845.62
7841.57
7865.58
7862.39
7862.14
7861.55
7861.2
7860.67
7860.19
7859.93
7859.38
7859.41
7858.3
7858.38
7855.94
7855.06
7851.3
7848.98
7862.71
7858.56
7858.4
7857.91
7857.72
7857.41
7857.3
7857.55
7857.54
7858.28
7858.03
7859.32
7858.1
7858.97
7856.53
7856.9
7858.87
7853.39
7853.4
7853.14
7853.27
7853.41
7853.86
7854.81
7855.57
7857.16
7857.75
7860.01
7859.99
7862.66
7861.59
7865.03
7853.64
7847.6
7847.97
7848.2
7848.91
7849.74
7850.85
7852.45
7853.98
7856.36
7857.84
7860.98
7861.94
7866.05
7866.19
7872.27
7847.71
7842.6
7843.33
7844.06
7845.34
7846.81
7848.59
7850.77
7852.93
7855.89
7858.08
7861.92
7863.72
7868.94
7870.13
7878.25
7842.54
7838.95
7839.92
7841.02
7842.7
7844.62
7846.89
7849.52
7852.19
7855.59
7858.38
7862.73
7865.24
7871.23
7873.32
7882.89
7838.74
7836.53
7837.62
7838.97
7840.9
7843.12
7845.73
7848.67
7851.75
7855.44
7858.7
7863.37
7866.46
7872.9
7875.71
7886.15
7836.19
7835.26
7836.4
7837.88
7839.94
7842.32
7845.14
7848.27
7851.61
7855.46
7859.06
7863.86
7867.39
7873.96
7877.3
7888.04
7834.83
7835.01
7836.15
7837.68
7839.8
7842.23
7845.15
7848.33
7851.82
7855.68
7859.48
7864.22
7868.04
7874.45
7878.14
7888.62
7834.53
7835.7
7836.8
7838.33
7840.43
7842.84
7845.75
7848.87
7852.38
7856.13
7859.99
7864.5
7868.43
7874.41
7878.22
7887.93
7835.19
7837.25
7838.3
7839.77
7841.79
7844.09
7846.91
7849.87
7853.3
7856.81
7860.6
7864.73
7868.61
7873.88
7877.59
7886.04
7836.76
7839.63
7840.59
7841.94
7843.81
7845.93
7848.57
7851.3
7854.53
7857.72
7861.31
7864.91
7868.57
7872.92
7876.3
7883.06
7839.2
7842.81
7843.64
7844.81
7846.46
7848.31
7850.69
7853.1
7856.06
7858.83
7862.11
7865.08
7868.35
7871.56
7874.38
7879.12
7842.45
7846.71
7847.38
7848.31
7849.68
7851.21
7853.25
7855.28
7857.86
7860.14
7863
7865.25
7867.96
7869.85
7871.91
7874.4
7846.43
7851.19
7851.7
7852.39
7853.46
7854.62
7856.27
7857.84
7859.97
7861.68
7864.02
7865.43
7867.41
7867.84
7868.94
7869.12
7851
7856.07
7856.45
7856.93
7857.73
7858.54
7859.79
7860.88
7862.49
7863.56
7865.25
7865.72
7866.76
7865.59
7865.59
7863.54
7855.93
7861.1
7861.43
7861.77
7862.38
7862.92
7863.82
7864.46
7865.53
7865.92
7866.84
7866.24
7866.11
7863.22
7862
7857.95
7860.99
7866.09
7866.4
7866.69
7867.2
7867.56
7868.21
7868.48
7869.08
7868.84
7868.93
7867.15
7865.63
7860.95
7858.43
7852.65
7865.97
7870.8
7871.13
7871.4
7871.87
7872.15
7872.66
7872.72
7873.03
7872.38
7871.72
7868.66
7865.57
7859.13
7855.3
7848.03
7870.68
7875.49
7875.83
7876.13
7876.64
7876.95
7877.44
7877.4
7877.51
7876.23
7874.57
7870.25
7866
7858.11
7853.09
7844.57
7875.36
7880.06
7880.25
7880.35
7880.55
7880.48
7880.42
7879.65
7878.7
7876.32
7873.79
7869.05
7864.5
7856.74
7851.67
7842.55
7879.99
7880.94
7880.76
7880.36
7879.85
7878.98
7877.93
7876.24
7874.23
7871.34
7868.53
7864.36
7860.41
7854.21
7850.08
7841.8
7881.01
7876.87
7876.54
7875.94
7875.14
7873.99
7872.61
7870.73
7868.67
7866.06
7863.42
7859.67
7856.25
7851.41
7847.99
7841.72
7877
7872
7871.66
7871.1
7870.35
7869.28
7868.01
7866.31
7864.42
7861.95
7859.45
7856.13
7853.03
7848.88
7845.56
7841.06
7872.12
7868
7867.62
7867.04
7866.24
7865.17
7863.9
7862.27
7860.48
7858.23
7855.94
7853.01
7850.24
7846.73
7843.61
7839.87
7868.13
7864.17
7863.8
7863.25
7862.48
7861.49
7860.3
7858.8
7857.15
7855.12
7853.03
7850.45
7847.98
7844.93
7842.18
7838.79
7864.3
7860.8
7860.43
7859.91
7859.17
7858.24
7857.12
7855.75
7854.24
7852.42
7850.54
7848.28
7846.1
7843.47
7841.07
7838.19
7860.92
7857.74
7857.38
7856.9
7856.22
7855.36
7854.34
7853.1
7851.74
7850.11
7848.44
7846.46
7844.55
7842.28
7840.21
7837.74
7857.85
7855.02
7854.69
7854.25
7853.61
7852.84
7851.9
7850.79
7849.56
7848.13
7846.65
7844.93
7843.26
7841.31
7839.54
7837.44
7855.13
7852.6
7852.29
7851.89
7851.31
7850.61
7849.77
7848.78
7847.69
7846.43
7845.13
7843.63
7842.18
7840.52
7839
7837.22
7852.7
7850.46
7850.17
7849.81
7849.28
7848.66
7847.91
7847.03
7846.07
7844.96
7843.82
7842.53
7841.28
7839.86
7838.57
7837.07
7850.54
7848.56
7848.29
7847.97
7847.5
7846.95
7846.28
7845.51
7844.66
7843.7
7842.71
7841.59
7840.52
7839.31
7838.22
7836.94
7848.63
7846.88
7846.63
7846.36
7845.93
7845.45
7844.86
7844.18
7843.44
7842.6
7841.75
7840.79
7839.87
7838.84
7837.92
7836.84
7846.94
7845.39
7845.17
7844.93
7844.56
7844.13
7843.61
7843.02
7842.37
7841.65
7840.91
7840.09
7839.31
7838.44
7837.66
7836.75
7845.45
7844.08
7843.89
7843.67
7843.34
7842.97
7842.52
7842.01
7841.44
7840.82
7840.19
7839.49
7838.82
7838.08
7837.43
7836.66
7844.13
7842.92
7842.75
7842.57
7842.27
7841.95
7841.55
7841.12
7840.63
7840.09
7839.55
7838.95
7838.39
7837.76
7837.21
7836.56
7842.97
7841.9
7841.74
7841.59
7841.33
7841.05
7840.71
7840.33
7839.91
7839.45
7838.98
7838.48
7838
7837.47
7837.01
7836.45
7841.94
7840.99
7840.86
7840.72
7840.5
7840.26
7839.96
7839.63
7839.27
7838.88
7838.48
7838.05
7837.64
7837.2
7836.81
7836.34
7841.03
7840.19
7840.07
7839.95
7839.75
7839.55
7839.29
7839.01
7838.7
7838.36
7838.02
7837.66
7837.32
7836.94
7836.61
7836.21
7840.21
7839.47
7839.36
7839.26
7839.09
7838.92
7838.69
7838.45
7838.19
7837.9
7837.61
7837.3
7837.01
7836.7
7836.41
7836.07
7839.49
7838.83
7838.73
7838.65
7838.5
7838.35
7838.16
7837.95
7837.72
7837.48
7837.23
7836.97
7836.73
7836.46
7836.22
7835.92
7838.85
7838.25
7838.17
7838.1
7837.97
7837.84
7837.67
7837.5
7837.3
7837.1
7836.89
7836.66
7836.45
7836.23
7836.02
7835.76
7838.27
7837.73
7837.66
7837.6
7837.49
7837.38
7837.24
7837.09
7836.92
7836.74
7836.56
7836.37
7836.2
7836
7835.83
7835.6
7837.75
7837.27
7837.2
7837.15
7837.06
7836.96
7836.84
7836.71
7836.56
7836.41
7836.26
7836.1
7835.95
7835.78
7835.63
7835.43
7837.28
7836.84
7836.79
7836.74
7836.66
7836.58
7836.47
7836.36
7836.24
7836.11
7835.98
7835.84
7835.71
7835.57
7835.43
7835.25
7836.85
7836.45
7836.41
7836.37
7836.3
7836.22
7836.13
7836.04
7835.93
7835.82
7835.71
7835.59
7835.48
7835.35
7835.23
7835.07
7836.46
7836.1
7836.06
7836.02
7835.96
7835.9
7835.82
7835.74
7835.65
7835.55
7835.45
7835.35
7835.25
7835.15
7835.04
7834.89
7836.11
7835.77
7835.74
7835.71
7835.65
7835.6
7835.53
7835.46
7835.38
7835.29
7835.21
7835.12
7835.03
7834.94
7834.84
7834.7
7835.78
7835.47
7835.44
7835.41
7835.37
7835.32
7835.26
7835.2
7835.13
7835.05
7834.98
7834.9
7834.82
7834.74
7834.65
7834.52
7835.48
7835.19
7835.17
7835.14
7835.1
7835.06
7835.01
7834.95
7834.89
7834.82
7834.76
7834.69
7834.62
7834.54
7834.46
7834.33
7835.2
7834.93
7834.91
7834.89
7834.85
7834.81
7834.77
7834.72
7834.66
7834.6
7834.54
7834.48
7834.42
7834.35
7834.27
7834.15
7834.94
7834.69
7834.67
7834.65
7834.62
7834.59
7834.54
7834.5
7834.45
7834.39
7834.34
7834.28
7834.22
7834.16
7834.08
7833.97
7834.7
7834.47
7834.45
7834.43
7834.4
7834.37
7834.33
7834.29
7834.24
7834.19
7834.14
7834.09
7834.03
7833.97
7833.9
7833.79
7834.47
7834.26
7834.24
7834.23
7834.2
7834.17
7834.13
7834.09
7834.05
7834
7833.96
7833.9
7833.85
7833.79
7833.72
7833.61
7834.26
7834.06
7834.05
7834.03
7834.01
7833.98
7833.95
7833.91
7833.87
7833.82
7833.78
7833.73
7833.68
7833.62
7833.55
7833.43
7834.07
7833.88
7833.87
7833.85
7833.83
7833.8
7833.77
7833.73
7833.69
7833.65
7833.61
7833.56
7833.51
7833.45
7833.38
7833.26
7833.89
7833.71
7833.7
7833.69
7833.66
7833.64
7833.61
7833.57
7833.53
7833.49
7833.44
7833.39
7833.34
7833.28
7833.21
7833.09
7833.72
7833.56
7833.54
7833.53
7833.51
7833.48
7833.45
7833.42
7833.38
7833.34
7833.29
7833.24
7833.19
7833.13
7833.05
7832.93
7833.56
7833.41
7833.4
7833.39
7833.36
7833.34
7833.31
7833.27
7833.24
7833.19
7833.15
7833.09
7833.04
7832.97
7832.89
7832.77
7833.42
7833.28
7833.27
7833.25
7833.23
7833.21
7833.18
7833.14
7833.1
7833.06
7833.01
7832.96
7832.9
7832.83
7832.75
7832.62
7833.28
7833.16
7833.15
7833.13
7833.11
7833.09
7833.06
7833.02
7832.98
7832.94
7832.89
7832.83
7832.77
7832.7
7832.61
7832.47
7833.16
7833.05
7833.04
7833.02
7833
7832.98
7832.95
7832.91
7832.87
7832.83
7832.78
7832.72
7832.65
7832.57
7832.47
7832.33
7833.05
7832.95
7832.94
7832.93
7832.91
7832.88
7832.85
7832.82
7832.78
7832.73
7832.68
7832.61
7832.54
7832.46
7832.35
7832.2
7832.96
7832.87
7832.86
7832.84
7832.82
7832.8
7832.77
7832.73
7832.69
7832.65
7832.59
7832.53
7832.45
7832.36
7832.25
7832.08
7832.87
7832.79
7832.78
7832.77
7832.75
7832.73
7832.7
7832.66
7832.62
7832.58
7832.52
7832.46
7832.38
7832.28
7832.16
7831.97
7832.79
7832.72
7832.72
7832.7
7832.69
7832.66
7832.64
7832.61
7832.57
7832.52
7832.47
7832.41
7832.33
7832.23
7832.09
7831.88
7832.73
7832.67
7832.66
7832.65
7832.64
7832.62
7832.59
7832.56
7832.53
7832.49
7832.44
7832.38
7832.3
7832.21
7832.07
7831.85
7832.67
7832.62
7832.61
7832.6
7832.59
7832.57
7832.55
7832.52
7832.49
7832.46
7832.42
7832.37
7832.31
7832.24
7832.13
7831.97
7832.62
7832.6
7832.59
7832.58
7832.57
7832.55
7832.53
7832.51
7832.49
7832.45
7832.42
7832.38
7832.33
7832.28
7832.21
7832.09
7832.6
7832.6
7832.59
7832.58
7832.57
7832.55
7832.53
7832.51
7832.49
7832.45
7832.42
7832.38
7832.33
7832.28
7832.21
7832.09
7832.6
7832.6
7832.59
7832.58
7832.57
7832.55
7832.53
7832.51
7832.49
7832.45
7832.42
7832.38
7832.33
7832.28
7832.21
7832.09
7832.6
)
;

boundaryField
{
    wireUpstream
    {
        type            calculated;
        value           nonuniform List<scalar> 
16
(
7832.57
7832.56
7832.56
7832.55
7832.53
7832.52
7832.5
7832.47
7832.44
7832.41
7832.38
7832.34
7832.3
7832.27
7832.25
7832.57
)
;
    }
    wireDownstream
    {
        type            calculated;
        value           nonuniform List<scalar> 
16
(
7862.67
7861.47
7859.85
7857.86
7855.42
7852.63
7849.48
7845.96
7842.08
7837.07
7831.55
7824.14
7816.13
7807.78
7802.38
7863.25
)
;
    }
    wireTopContact
    {
        type            calculated;
        value           nonuniform List<scalar> 
122
(
7801.84
7801.85
7801.85
7801.86
7801.86
7801.85
7801.84
7801.83
7801.81
7801.79
7801.76
7801.73
7801.7
7801.66
7801.62
7801.58
7801.53
7801.47
7801.42
7801.35
7801.29
7801.21
7801.13
7801.05
7800.95
7800.85
7800.74
7800.62
7800.49
7800.35
7800.21
7800.06
7799.92
7799.77
7799.64
7799.53
7799.47
7799.45
7799.53
7799.74
7800.12
7800.82
7802.32
7806.7
7812.02
7817.6
7823.43
7829.29
7835.3
7841.71
7848.73
7856.21
7864.14
7871.17
7876.98
7881.56
7884.84
7886.79
7887.47
7886.9
7885.16
7882.33
7878.56
7874.03
7868.97
7863.64
7858.33
7853.36
7849.08
7845.85
7843.88
7842.93
7842.1
7840.88
7839.8
7838.78
7838.16
7837.69
7837.38
7837.16
7837
7836.88
7836.78
7836.69
7836.6
7836.51
7836.4
7836.29
7836.17
7836.03
7835.89
7835.73
7835.57
7835.4
7835.22
7835.05
7834.86
7834.68
7834.5
7834.32
7834.13
7833.95
7833.77
7833.6
7833.42
7833.25
7833.08
7832.92
7832.76
7832.61
7832.46
7832.32
7832.19
7832.07
7831.97
7831.88
7831.85
7831.95
7832.04
7832.04
7832.04
7801.85
)
;
    }
    front
    {
        type            wedge;
    }
    back
    {
        type            wedge;
    }
}


// ************************************************************************* //
