/*--------------------------------*- C++ -*----------------------------------*\
| =========                 |                                                 |
| \\      /  F ield         | foam-extend: Open Source CFD                    |
|  \\    /   O peration     | Version:     4.1-20200408                       |
|   \\  /    A nd           | Web:         http://www.foam-extend.org         |
|    \\/     M anipulation  |                                                 |
\*---------------------------------------------------------------------------*/
FoamFile
{
    version     2.0;
    format      ascii;
    class       volVectorField;
    location    "0.0845000";
    object      Velocity;
}
// * * * * * * * * * * * * * * * * * * * * * * * * * * * * * * * * * * * * * //

dimensions      [0 1 -1 0 0 0 0];

internalField   nonuniform List<vector> 
1952
(
(1.00002 -3.58171e-05 0)
(1.00002 -5.61054e-05 0)
(1.00002 -8.09112e-05 0)
(1.00002 -9.89772e-05 0)
(1.00003 -0.000124376 0)
(1.00003 -0.000139871 0)
(1.00004 -0.000164439 0)
(1.00005 -0.00017673 0)
(1.00006 -0.000198939 0)
(1.00007 -0.000206668 0)
(1.00009 -0.000224199 0)
(1.00011 -0.000225268 0)
(1.00015 -0.000234162 0)
(1.00022 -0.000225405 0)
(1.00034 -0.000216813 0)
(1.00002 -1.51331e-05 0)
(1.00003 -1.57034e-05 0)
(1.00004 -2.4611e-05 0)
(1.00004 -3.48086e-05 0)
(1.00004 -4.23941e-05 0)
(1.00005 -5.20832e-05 0)
(1.00006 -5.779e-05 0)
(1.00007 -6.61864e-05 0)
(1.00008 -6.93984e-05 0)
(1.00009 -7.56698e-05 0)
(1.0001 -7.58236e-05 0)
(1.00012 -7.92769e-05 0)
(1.00014 -7.5768e-05 0)
(1.00017 -7.62448e-05 0)
(1.0002 -7.04204e-05 0)
(1.00024 -7.17223e-05 0)
(1.00003 -6.65788e-06 0)
(1.00004 -1.05577e-05 0)
(1.00004 -1.67759e-05 0)
(1.00004 -2.30544e-05 0)
(1.00005 -2.82877e-05 0)
(1.00005 -3.37169e-05 0)
(1.00006 -3.73053e-05 0)
(1.00007 -4.12987e-05 0)
(1.00008 -4.26506e-05 0)
(1.0001 -4.46228e-05 0)
(1.00011 -4.34798e-05 0)
(1.00013 -4.33169e-05 0)
(1.00015 -3.9719e-05 0)
(1.00018 -3.81941e-05 0)
(1.00021 -3.39587e-05 0)
(1.00024 -3.37814e-05 0)
(1.00004 -4.5179e-06 0)
(1.00005 -6.11682e-06 0)
(1.00005 -9.66617e-06 0)
(1.00005 -1.30825e-05 0)
(1.00006 -1.57822e-05 0)
(1.00007 -1.83185e-05 0)
(1.00007 -1.95822e-05 0)
(1.00008 -2.07955e-05 0)
(1.0001 -2.01787e-05 0)
(1.00011 -1.97527e-05 0)
(1.00012 -1.72128e-05 0)
(1.00014 -1.53229e-05 0)
(1.00016 -1.13721e-05 0)
(1.00019 -9.24344e-06 0)
(1.00021 -5.91329e-06 0)
(1.00023 -6.86341e-06 0)
(1.00005 -2.62316e-06 0)
(1.00006 -2.46397e-06 0)
(1.00006 -3.77508e-06 0)
(1.00007 -4.90062e-06 0)
(1.00007 -5.47199e-06 0)
(1.00008 -5.82524e-06 0)
(1.00009 -5.20878e-06 0)
(1.0001 -4.50789e-06 0)
(1.00011 -2.4628e-06 0)
(1.00012 -6.19312e-07 0)
(1.00014 2.67319e-06 0)
(1.00015 5.24841e-06 0)
(1.00017 9.03991e-06 0)
(1.00019 1.11099e-05 0)
(1.00021 1.37072e-05 0)
(1.00023 1.31535e-05 0)
(1.00006 -1.06134e-06 0)
(1.00008 4.76428e-07 0)
(1.00008 9.65429e-07 0)
(1.00008 1.61526e-06 0)
(1.00009 2.73569e-06 0)
(1.0001 3.98816e-06 0)
(1.0001 6.04849e-06 0)
(1.00011 8.05475e-06 0)
(1.00012 1.11383e-05 0)
(1.00014 1.38343e-05 0)
(1.00015 1.7618e-05 0)
(1.00017 2.05074e-05 0)
(1.00018 2.41688e-05 0)
(1.0002 2.61307e-05 0)
(1.00022 2.82802e-05 0)
(1.00023 2.77318e-05 0)
(1.00008 1.98653e-07 0)
(1.00009 2.74931e-06 0)
(1.0001 4.62758e-06 0)
(1.0001 6.6228e-06 0)
(1.00011 9.02203e-06 0)
(1.00011 1.14288e-05 0)
(1.00012 1.45268e-05 0)
(1.00013 1.7382e-05 0)
(1.00014 2.11336e-05 0)
(1.00015 2.42796e-05 0)
(1.00017 2.82829e-05 0)
(1.00018 3.12244e-05 0)
(1.00019 3.47041e-05 0)
(1.00021 3.65532e-05 0)
(1.00022 3.84879e-05 0)
(1.00023 3.82736e-05 0)
(1.00009 1.17369e-06 0)
(1.00011 4.43041e-06 0)
(1.00011 7.32931e-06 0)
(1.00012 1.02958e-05 0)
(1.00012 1.36116e-05 0)
(1.00013 1.6809e-05 0)
(1.00014 2.06166e-05 0)
(1.00015 2.39986e-05 0)
(1.00016 2.817e-05 0)
(1.00017 3.15377e-05 0)
(1.00018 3.56436e-05 0)
(1.00019 3.85586e-05 0)
(1.0002 4.19131e-05 0)
(1.00022 4.37099e-05 0)
(1.00023 4.55752e-05 0)
(1.00024 4.56643e-05 0)
(1.00011 1.89559e-06 0)
(1.00013 5.60058e-06 0)
(1.00013 9.20563e-06 0)
(1.00014 1.28309e-05 0)
(1.00014 1.67631e-05 0)
(1.00015 2.04617e-05 0)
(1.00016 2.47196e-05 0)
(1.00016 2.83879e-05 0)
(1.00017 3.27931e-05 0)
(1.00018 3.62277e-05 0)
(1.00019 4.03582e-05 0)
(1.0002 4.32061e-05 0)
(1.00021 4.64832e-05 0)
(1.00023 4.82868e-05 0)
(1.00023 5.02024e-05 0)
(1.00024 5.06577e-05 0)
(1.00013 2.39862e-06 0)
(1.00015 6.34072e-06 0)
(1.00015 1.03884e-05 0)
(1.00016 1.44142e-05 0)
(1.00016 1.87197e-05 0)
(1.00017 2.26924e-05 0)
(1.00017 2.72054e-05 0)
(1.00018 3.09883e-05 0)
(1.00019 3.55073e-05 0)
(1.0002 3.89178e-05 0)
(1.00021 4.30458e-05 0)
(1.00022 4.58248e-05 0)
(1.00023 4.90812e-05 0)
(1.00023 5.09398e-05 0)
(1.00024 5.29788e-05 0)
(1.00025 5.3795e-05 0)
(1.00015 2.71725e-06 0)
(1.00017 6.72739e-06 0)
(1.00017 1.1003e-05 0)
(1.00017 1.52212e-05 0)
(1.00018 1.9708e-05 0)
(1.00018 2.37781e-05 0)
(1.00019 2.84004e-05 0)
(1.0002 3.21722e-05 0)
(1.0002 3.6724e-05 0)
(1.00021 4.00515e-05 0)
(1.00022 4.41683e-05 0)
(1.00023 4.68848e-05 0)
(1.00024 5.01682e-05 0)
(1.00024 5.21189e-05 0)
(1.00025 5.43347e-05 0)
(1.00025 5.55141e-05 0)
(1.00017 2.88423e-06 0)
(1.00019 6.82843e-06 0)
(1.00019 1.11596e-05 0)
(1.00019 1.54045e-05 0)
(1.0002 1.99232e-05 0)
(1.0002 2.39549e-05 0)
(1.00021 2.85805e-05 0)
(1.00021 3.22507e-05 0)
(1.00022 3.67851e-05 0)
(1.00023 3.99933e-05 0)
(1.00023 4.41045e-05 0)
(1.00024 4.67693e-05 0)
(1.00025 5.01205e-05 0)
(1.00025 5.21885e-05 0)
(1.00026 5.46147e-05 0)
(1.00026 5.61454e-05 0)
(1.00019 2.92858e-06 0)
(1.0002 6.70236e-06 0)
(1.00021 1.0953e-05 0)
(1.00021 1.50945e-05 0)
(1.00021 1.95307e-05 0)
(1.00022 2.34198e-05 0)
(1.00022 2.79722e-05 0)
(1.00023 3.1474e-05 0)
(1.00024 3.59603e-05 0)
(1.00024 3.9025e-05 0)
(1.00025 4.31411e-05 0)
(1.00025 4.5764e-05 0)
(1.00026 4.92157e-05 0)
(1.00026 5.14184e-05 0)
(1.00027 5.40781e-05 0)
(1.00027 5.5949e-05 0)
(1.0002 2.87542e-06 0)
(1.00022 6.39793e-06 0)
(1.00022 1.04618e-05 0)
(1.00023 1.43986e-05 0)
(1.00023 1.86655e-05 0)
(1.00023 2.2332e-05 0)
(1.00024 2.67573e-05 0)
(1.00025 3.00407e-05 0)
(1.00025 3.4462e-05 0)
(1.00026 3.73658e-05 0)
(1.00026 4.15005e-05 0)
(1.00027 4.40886e-05 0)
(1.00027 4.76676e-05 0)
(1.00028 5.00157e-05 0)
(1.00028 5.29244e-05 0)
(1.00028 5.51235e-05 0)
(1.00022 2.74563e-06 0)
(1.00024 5.95476e-06 0)
(1.00024 9.74969e-06 0)
(1.00024 1.34033e-05 0)
(1.00024 1.74359e-05 0)
(1.00025 2.08179e-05 0)
(1.00025 2.50784e-05 0)
(1.00026 2.81048e-05 0)
(1.00026 3.24523e-05 0)
(1.00027 3.51819e-05 0)
(1.00027 3.93488e-05 0)
(1.00028 4.19073e-05 0)
(1.00028 4.56353e-05 0)
(1.00029 4.81366e-05 0)
(1.00029 5.13063e-05 0)
(1.00029 5.3825e-05 0)
(1.00024 2.55623e-06 0)
(1.00025 5.40525e-06 0)
(1.00025 8.8685e-06 0)
(1.00026 1.21786e-05 0)
(1.00026 1.59287e-05 0)
(1.00026 1.89777e-05 0)
(1.00027 2.30481e-05 0)
(1.00027 2.57858e-05 0)
(1.00028 3.00576e-05 0)
(1.00028 3.25998e-05 0)
(1.00029 3.68133e-05 0)
(1.00029 3.93436e-05 0)
(1.0003 4.32396e-05 0)
(1.0003 4.58994e-05 0)
(1.0003 4.93405e-05 0)
(1.0003 5.2174e-05 0)
(1.00025 2.32113e-06 0)
(1.00026 4.77531e-06 0)
(1.00027 7.85961e-06 0)
(1.00027 1.07801e-05 0)
(1.00027 1.42126e-05 0)
(1.00028 1.68903e-05 0)
(1.00028 2.07541e-05 0)
(1.00029 2.31767e-05 0)
(1.00029 2.73739e-05 0)
(1.0003 2.97168e-05 0)
(1.0003 3.39901e-05 0)
(1.0003 3.64928e-05 0)
(1.00031 4.05729e-05 0)
(1.00031 4.33972e-05 0)
(1.00031 4.71205e-05 0)
(1.00031 5.027e-05 0)
(1.00026 2.05146e-06 0)
(1.00028 4.08769e-06 0)
(1.00028 6.75926e-06 0)
(1.00028 9.25589e-06 0)
(1.00028 1.23473e-05 0)
(1.00029 1.46227e-05 0)
(1.00029 1.82711e-05 0)
(1.0003 2.03543e-05 0)
(1.0003 2.44821e-05 0)
(1.00031 2.66118e-05 0)
(1.00031 3.09585e-05 0)
(1.00032 3.3431e-05 0)
(1.00032 3.77111e-05 0)
(1.00032 4.07054e-05 0)
(1.00032 4.47233e-05 0)
(1.00032 4.81961e-05 0)
(1.00027 1.75699e-06 0)
(1.00029 3.36233e-06 0)
(1.00029 5.59904e-06 0)
(1.00029 7.64816e-06 0)
(1.00029 1.03843e-05 0)
(1.0003 1.22333e-05 0)
(1.0003 1.56638e-05 0)
(1.00031 1.73863e-05 0)
(1.00031 2.14517e-05 0)
(1.00032 2.33544e-05 0)
(1.00032 2.77874e-05 0)
(1.00033 3.02269e-05 0)
(1.00033 3.47217e-05 0)
(1.00034 3.7894e-05 0)
(1.00034 4.22213e-05 0)
(1.00034 4.60319e-05 0)
(1.00029 1.44628e-06 0)
(1.0003 2.62092e-06 0)
(1.0003 4.41354e-06 0)
(1.0003 6.00237e-06 0)
(1.0003 8.38012e-06 0)
(1.00031 9.78466e-06 0)
(1.00031 1.30019e-05 0)
(1.00032 1.43435e-05 0)
(1.00033 1.83573e-05 0)
(1.00033 2.00168e-05 0)
(1.00034 2.45498e-05 0)
(1.00034 2.69505e-05 0)
(1.00035 3.16752e-05 0)
(1.00035 3.50341e-05 0)
(1.00035 3.96881e-05 0)
(1.00035 4.3858e-05 0)
(1.00029 1.12866e-06 0)
(1.0003 1.88658e-06 0)
(1.0003 3.23931e-06 0)
(1.00031 4.36743e-06 0)
(1.00031 6.39459e-06 0)
(1.00032 7.34482e-06 0)
(1.00032 1.03608e-05 0)
(1.00033 1.13047e-05 0)
(1.00034 1.52806e-05 0)
(1.00034 1.66809e-05 0)
(1.00035 2.13276e-05 0)
(1.00035 2.36837e-05 0)
(1.00036 2.8653e-05 0)
(1.00036 3.22094e-05 0)
(1.00037 3.72098e-05 0)
(1.00037 4.17684e-05 0)
(1.0003 8.14021e-07 0)
(1.00031 1.19008e-06 0)
(1.00031 2.12556e-06 0)
(1.00032 2.80814e-06 0)
(1.00032 4.50831e-06 0)
(1.00033 5.00386e-06 0)
(1.00033 7.84114e-06 0)
(1.00034 8.37389e-06 0)
(1.00035 1.23308e-05 0)
(1.00035 1.34545e-05 0)
(1.00036 1.82298e-05 0)
(1.00037 2.05322e-05 0)
(1.00037 2.57606e-05 0)
(1.00038 2.95255e-05 0)
(1.00038 3.48937e-05 0)
(1.00038 3.9877e-05 0)
(1.00031 5.15603e-07 0)
(1.00031 5.68868e-07 0)
(1.00032 1.13169e-06 0)
(1.00032 1.40437e-06 0)
(1.00032 2.81949e-06 0)
(1.00033 2.87423e-06 0)
(1.00034 5.56824e-06 0)
(1.00035 5.68291e-06 0)
(1.00035 9.64658e-06 0)
(1.00036 1.04763e-05 0)
(1.00037 1.53967e-05 0)
(1.00038 1.76345e-05 0)
(1.00039 2.31357e-05 0)
(1.00039 2.71201e-05 0)
(1.0004 3.28788e-05 0)
(1.0004 3.83294e-05 0)
(1.00031 2.49436e-07 0)
(1.00032 7.53618e-08 0)
(1.00032 3.41681e-07 0)
(1.00032 2.67611e-07 0)
(1.00033 1.46665e-06 0)
(1.00034 1.11315e-06 0)
(1.00034 3.7177e-06 0)
(1.00036 3.41656e-06 0)
(1.00036 7.42121e-06 0)
(1.00037 7.94093e-06 0)
(1.00038 1.30236e-05 0)
(1.00039 1.51823e-05 0)
(1.0004 2.09668e-05 0)
(1.00041 2.51799e-05 0)
(1.00041 3.13501e-05 0)
(1.00042 3.73156e-05 0)
(1.00032 3.80542e-08 0)
(1.00032 -2.24464e-07 0)
(1.00032 -1.39433e-07 0)
(1.00033 -4.605e-07 0)
(1.00033 6.24505e-07 0)
(1.00034 -7.80412e-08 0)
(1.00035 2.51438e-06 0)
(1.00036 1.81321e-06 0)
(1.00037 5.90633e-06 0)
(1.00038 6.10082e-06 0)
(1.00039 1.13668e-05 0)
(1.00041 1.3426e-05 0)
(1.00042 1.9502e-05 0)
(1.00042 2.39478e-05 0)
(1.00043 3.05478e-05 0)
(1.00044 3.70791e-05 0)
(1.00032 -9.02809e-08 0)
(1.00032 -2.40197e-07 0)
(1.00032 -1.66732e-07 0)
(1.00033 -5.8619e-07 0)
(1.00033 5.33425e-07 0)
(1.00035 -4.23457e-07 0)
(1.00035 2.26609e-06 0)
(1.00037 1.20042e-06 0)
(1.00038 5.44452e-06 0)
(1.00039 5.3034e-06 0)
(1.00041 1.07742e-05 0)
(1.00042 1.27081e-05 0)
(1.00043 1.90757e-05 0)
(1.00044 2.37513e-05 0)
(1.00045 3.07913e-05 0)
(1.00046 3.79403e-05 0)
(1.00032 -9.67266e-08 0)
(1.00032 1.41555e-07 0)
(1.00032 4.40886e-07 0)
(1.00033 1.35291e-07 0)
(1.00033 1.49593e-06 0)
(1.00035 4.27439e-07 0)
(1.00035 3.36485e-06 0)
(1.00037 1.99631e-06 0)
(1.00038 6.47735e-06 0)
(1.0004 5.99353e-06 0)
(1.00042 1.1697e-05 0)
(1.00043 1.34679e-05 0)
(1.00045 2.01202e-05 0)
(1.00046 2.50085e-05 0)
(1.00047 3.24886e-05 0)
(1.00048 4.03035e-05 0)
(1.00031 6.73293e-08 0)
(1.00031 1.07049e-06 0)
(1.00032 1.92348e-06 0)
(1.00033 2.0268e-06 0)
(1.00033 3.91232e-06 0)
(1.00035 2.93778e-06 0)
(1.00036 6.32761e-06 0)
(1.00037 4.755e-06 0)
(1.00039 9.58524e-06 0)
(1.00041 8.76215e-06 0)
(1.00043 1.47273e-05 0)
(1.00044 1.62875e-05 0)
(1.00046 2.32023e-05 0)
(1.00048 2.82692e-05 0)
(1.00049 3.61703e-05 0)
(1.0005 4.46918e-05 0)
(1.00031 4.66177e-07 0)
(1.00031 2.7318e-06 0)
(1.00032 4.57763e-06 0)
(1.00033 5.4903e-06 0)
(1.00033 8.28035e-06 0)
(1.00035 7.68765e-06 0)
(1.00036 1.18041e-05 0)
(1.00038 1.01738e-05 0)
(1.00039 1.55053e-05 0)
(1.00041 1.43549e-05 0)
(1.00044 2.06209e-05 0)
(1.00046 2.19018e-05 0)
(1.00048 2.90419e-05 0)
(1.0005 3.4224e-05 0)
(1.00052 4.25026e-05 0)
(1.00053 5.17554e-05 0)
(1.00031 1.17925e-06 0)
(1.00031 5.3608e-06 0)
(1.00031 8.78114e-06 0)
(1.00032 1.10368e-05 0)
(1.00033 1.52343e-05 0)
(1.00035 1.54165e-05 0)
(1.00036 2.06217e-05 0)
(1.00038 1.91459e-05 0)
(1.0004 2.51763e-05 0)
(1.00042 2.37312e-05 0)
(1.00045 3.03413e-05 0)
(1.00047 3.12569e-05 0)
(1.0005 3.85583e-05 0)
(1.00052 4.37579e-05 0)
(1.00054 5.23332e-05 0)
(1.00056 6.23191e-05 0)
(1.00031 2.30759e-06 0)
(1.00031 9.24307e-06 0)
(1.00031 1.49927e-05 0)
(1.00032 1.92904e-05 0)
(1.00033 2.55495e-05 0)
(1.00035 2.70343e-05 0)
(1.00036 3.38034e-05 0)
(1.00038 3.27776e-05 0)
(1.0004 3.97716e-05 0)
(1.00043 3.80849e-05 0)
(1.00045 4.51007e-05 0)
(1.00048 4.55316e-05 0)
(1.00051 5.29044e-05 0)
(1.00054 5.79689e-05 0)
(1.00057 6.67125e-05 0)
(1.00059 7.73958e-05 0)
(1.00031 3.97373e-06 0)
(1.00031 1.47275e-05 0)
(1.00031 2.37737e-05 0)
(1.00033 3.10159e-05 0)
(1.00033 4.01784e-05 0)
(1.00035 4.3662e-05 0)
(1.00036 5.26105e-05 0)
(1.00038 5.24433e-05 0)
(1.0004 6.07452e-05 0)
(1.00043 5.89116e-05 0)
(1.00046 6.64094e-05 0)
(1.00049 6.62095e-05 0)
(1.00053 7.3522e-05 0)
(1.00056 7.8236e-05 0)
(1.0006 8.69522e-05 0)
(1.00063 9.82485e-05 0)
(1.00031 6.32743e-06 0)
(1.00032 2.22262e-05 0)
(1.00032 3.57888e-05 0)
(1.00033 4.71233e-05 0)
(1.00033 6.02579e-05 0)
(1.00035 6.66474e-05 0)
(1.00036 7.85694e-05 0)
(1.00039 7.9813e-05 0)
(1.00041 8.98823e-05 0)
(1.00044 8.80449e-05 0)
(1.00047 9.61403e-05 0)
(1.0005 9.51176e-05 0)
(1.00055 0.0001022 0)
(1.00059 0.000106254 0)
(1.00063 0.000114662 0)
(1.00067 0.000126414 0)
(1.00032 9.54555e-06 0)
(1.00033 3.22187e-05 0)
(1.00033 5.18127e-05 0)
(1.00034 6.86784e-05 0)
(1.00034 8.71252e-05 0)
(1.00036 9.75867e-05 0)
(1.00037 0.000113496 0)
(1.00039 0.000116896 0)
(1.00041 0.000129335 0)
(1.00044 0.000127727 0)
(1.00048 0.000136582 0)
(1.00052 0.000134516 0)
(1.00057 0.000141146 0)
(1.00061 0.000144121 0)
(1.00066 0.000151828 0)
(1.00071 0.000163782 0)
(1.00033 1.38338e-05 0)
(1.00036 4.52487e-05 0)
(1.00035 7.27275e-05 0)
(1.00037 9.69016e-05 0)
(1.00036 0.000122321 0)
(1.00038 0.000138336 0)
(1.00038 0.000159521 0)
(1.0004 0.000166069 0)
(1.00042 0.000181683 0)
(1.00045 0.000180657 0)
(1.00049 0.000190531 0)
(1.00053 0.000187161 0)
(1.00058 0.000193081 0)
(1.00063 0.000194408 0)
(1.0007 0.00020088 0)
(1.00075 0.000212653 0)
(1.00036 1.94256e-05 0)
(1.0004 6.19046e-05 0)
(1.00039 9.94911e-05 0)
(1.0004 0.000133131 0)
(1.00039 0.000167549 0)
(1.0004 0.000190975 0)
(1.0004 0.000219062 0)
(1.00042 0.000230076 0)
(1.00043 0.000249938 0)
(1.00046 0.000250048 0)
(1.0005 0.000261343 0)
(1.00054 0.000256416 0)
(1.0006 0.000261339 0)
(1.00066 0.000260284 0)
(1.00073 0.000264816 0)
(1.0008 0.000275855 0)
(1.0004 2.6573e-05 0)
(1.00046 8.28035e-05 0)
(1.00045 0.000133116 0)
(1.00045 0.000178794 0)
(1.00043 0.000224646 0)
(1.00044 0.00025778 0)
(1.00043 0.000294805 0)
(1.00044 0.00031202 0)
(1.00045 0.000337569 0)
(1.00047 0.000339661 0)
(1.00051 0.000353023 0)
(1.00055 0.000346332 0)
(1.00062 0.000349999 0)
(1.00068 0.000345618 0)
(1.00077 0.000347301 0)
(1.00086 0.000356812 0)
(1.00046 3.55407e-05 0)
(1.00054 0.000108525 0)
(1.00052 0.00017456 0)
(1.00052 0.000235271 0)
(1.0005 0.000295424 0)
(1.00049 0.000341065 0)
(1.00047 0.000389546 0)
(1.00047 0.000415239 0)
(1.00047 0.000448408 0)
(1.00048 0.000453787 0)
(1.00052 0.000470251 0)
(1.00055 0.000461768 0)
(1.00063 0.000464025 0)
(1.0007 0.000455155 0)
(1.00081 0.000452821 0)
(1.00091 0.000459656 0)
(1.00054 4.65766e-05 0)
(1.00066 0.000139566 0)
(1.00063 0.00022466 0)
(1.00063 0.000303794 0)
(1.00059 0.000381552 0)
(1.00057 0.000443032 0)
(1.00054 0.00050605 0)
(1.00052 0.00054317 0)
(1.00051 0.000586556 0)
(1.00051 0.000597204 0)
(1.00053 0.000618445 0)
(1.00056 0.000608539 0)
(1.00064 0.000609575 0)
(1.00072 0.000594885 0)
(1.00084 0.000587134 0)
(1.00097 0.000589676 0)
(1.00066 5.98928e-05 0)
(1.00082 0.000176198 0)
(1.00078 0.000283899 0)
(1.00076 0.000385153 0)
(1.00071 0.000484178 0)
(1.00068 0.000565371 0)
(1.00063 0.000646612 0)
(1.00059 0.000698925 0)
(1.00056 0.000755999 0)
(1.00054 0.000774904 0)
(1.00055 0.000803617 0)
(1.00057 0.000793522 0)
(1.00065 0.000794341 0)
(1.00073 0.000772708 0)
(1.00087 0.000758282 0)
(1.00103 0.000754492 0)
(1.00082 7.56046e-05 0)
(1.00102 0.000218373 0)
(1.00098 0.000352253 0)
(1.00095 0.000479448 0)
(1.00088 0.00060364 0)
(1.00083 0.000708859 0)
(1.00075 0.000812589 0)
(1.00069 0.000884763 0)
(1.00063 0.000960025 0)
(1.00059 0.000991513 0)
(1.00058 0.00103183 0)
(1.00058 0.00102418 0)
(1.00065 0.00102719 0)
(1.00073 0.00099818 0)
(1.00089 0.000976565 0)
(1.00108 0.000963951 0)
(1.00103 9.36891e-05 0)
(1.00128 0.000265503 0)
(1.00123 0.000428825 0)
(1.00119 0.00058561 0)
(1.00109 0.000738812 0)
(1.00102 0.000872616 0)
(1.00092 0.00100354 0)
(1.00083 0.00110115 0)
(1.00074 0.00120027 0)
(1.00066 0.00125034 0)
(1.00062 0.0013083 0)
(1.00059 0.00130767 0)
(1.00065 0.001317 0)
(1.00072 0.00128076 0)
(1.0009 0.00125121 0)
(1.00113 0.00122496 0)
(1.00129 0.000113892 0)
(1.00161 0.00031632 0)
(1.00154 0.000511614 0)
(1.00149 0.000701014 0)
(1.00137 0.000886603 0)
(1.00128 0.00105338 0)
(1.00114 0.00121632 0)
(1.00102 0.0013457 0)
(1.00088 0.00147556 0)
(1.00076 0.00155247 0)
(1.00068 0.00163707 0)
(1.00061 0.00165174 0)
(1.00064 0.00167541 0)
(1.0007 0.00163447 0)
(1.00089 0.0015952 0)
(1.00116 0.00154467 0)
(1.00163 0.000135666 0)
(1.00202 0.000368647 0)
(1.00193 0.000597113 0)
(1.00186 0.00082091 0)
(1.00172 0.00104112 0)
(1.0016 0.0012444 0)
(1.00142 0.00144358 0)
(1.00126 0.00161121 0)
(1.00108 0.00177958 0)
(1.00091 0.00189423 0)
(1.00078 0.00201915 0)
(1.00065 0.00206542 0)
(1.00063 0.00212392 0)
(1.00065 0.00209689 0)
(1.00085 0.00206326 0)
(1.00117 0.00198835 0)
(1.00203 0.000158076 0)
(1.0025 0.000419316 0)
(1.0024 0.000680154 0)
(1.00231 0.000938099 0)
(1.00215 0.00119312 0)
(1.00199 0.00143444 0)
(1.00178 0.00167214 0)
(1.00158 0.00188294 0)
(1.00135 0.00209629 0)
(1.00113 0.0022599 0)
(1.00093 0.00244115 0)
(1.00074 0.00254296 0)
(1.00066 0.00267421 0)
(1.00061 0.0027124 0)
(1.00077 0.00275946 0)
(1.00113 0.00273986 0)
(1.00252 0.000179763 0)
(1.00306 0.000464205 0)
(1.00295 0.000753956 0)
(1.00284 0.00104298 0)
(1.00265 0.00133 0)
(1.00247 0.00160761 0)
(1.00222 0.00188228 0)
(1.00198 0.00213684 0)
(1.00169 0.00239591 0)
(1.00142 0.00261299 0)
(1.00116 0.00285696 0)
(1.00091 0.0030267 0)
(1.00077 0.00325482 0)
(1.00066 0.00339774 0)
(1.00076 0.00360747 0)
(1.00107 0.00377226 0)
(1.00308 0.000198964 0)
(1.00369 0.000498457 0)
(1.00357 0.000810503 0)
(1.00345 0.00112416 0)
(1.00324 0.0014367 0)
(1.00302 0.00174469 0)
(1.00274 0.00204989 0)
(1.00245 0.00234268 0)
(1.00212 0.0026397 0)
(1.00179 0.0029029 0)
(1.00147 0.00319577 0)
(1.00116 0.0034137 0)
(1.00095 0.00370488 0)
(1.00077 0.00389153 0)
(1.0008 0.00416537 0)
(1.00099 0.00436668 0)
(1.00372 0.0002136 0)
(1.0044 0.000516901 0)
(1.00426 0.000841305 0)
(1.00413 0.0011696 0)
(1.00389 0.00149751 0)
(1.00365 0.00182598 0)
(1.00332 0.00215113 0)
(1.003 0.00247229 0)
(1.00261 0.00279495 0)
(1.00223 0.00309332 0)
(1.00183 0.00341744 0)
(1.00144 0.00366436 0)
(1.00115 0.0039897 0)
(1.00086 0.00417283 0)
(1.00079 0.00445536 0)
(1.00084 0.00462223 0)
(1.00443 0.000221461 0)
(1.00515 0.000514232 0)
(1.00501 0.000837656 0)
(1.00485 0.00116699 0)
(1.0046 0.00149652 0)
(1.00433 0.00183173 0)
(1.00397 0.00216257 0)
(1.0036 0.0024986 0)
(1.00315 0.00283176 0)
(1.00271 0.00315311 0)
(1.00223 0.00349066 0)
(1.00175 0.00375448 0)
(1.00135 0.00409474 0)
(1.00092 0.0042498 0)
(1.00074 0.00454216 0)
(1.00066 0.00465666 0)
(1.00519 0.000220276 0)
(1.00594 0.000485499 0)
(1.00578 0.000791457 0)
(1.00562 0.0011049 0)
(1.00534 0.00141897 0)
(1.00504 0.00174366 0)
(1.00465 0.00206275 0)
(1.00423 0.00239676 0)
(1.00373 0.00272302 0)
(1.00322 0.00305411 0)
(1.00264 0.00338782 0)
(1.00207 0.00366413 0)
(1.00151 0.00400202 0)
(1.00093 0.00412724 0)
(1.00063 0.00446023 0)
(1.00039 0.00447667 0)
(1.00598 0.000207924 0)
(1.00674 0.000426453 0)
(1.00657 0.000695643 0)
(1.00639 0.00097302 0)
(1.00609 0.00125113 0)
(1.00577 0.00154389 0)
(1.00534 0.00182927 0)
(1.00488 0.00213871 0)
(1.00433 0.00243546 0)
(1.00376 0.00275664 0)
(1.00308 0.00306569 0)
(1.00238 0.00335185 0)
(1.00165 0.00367086 0)
(1.00091 0.00381359 0)
(1.00046 0.00419051 0)
(0.99991 0.00401386 0)
(1.00678 0.00018259 0)
(1.00751 0.000333285 0)
(1.00733 0.000543696 0)
(1.00713 0.000761482 0)
(1.00682 0.000979006 0)
(1.00647 0.00121268 0)
(1.00602 0.00143521 0)
(1.00552 0.00168919 0)
(1.00492 0.00192724 0)
(1.00427 0.00221107 0)
(1.0035 0.00247395 0)
(1.00269 0.00276517 0)
(1.00178 0.00306253 0)
(1.00087 0.00329219 0)
(1.0001 0.00359858 0)
(0.99902 0.0030559 0)
(1.00755 0.00014266 0)
(1.00822 0.000201007 0)
(1.00803 0.000327634 0)
(1.00782 0.000459729 0)
(1.00749 0.0005906 0)
(1.00711 0.000737465 0)
(1.00662 0.000870454 0)
(1.00608 0.0010437 0)
(1.00545 0.00120092 0)
(1.00474 0.00142634 0)
(1.0039 0.00163459 0)
(1.00301 0.00190662 0)
(1.00197 0.00212618 0)
(1.00079 0.0022806 0)
(0.9993 0.00224679 0)
(0.997412 0.00123747 0)
(1.00826 8.60183e-05 0)
(1.00882 3.18992e-05 0)
(1.00862 5.2727e-05 0)
(1.0084 7.89447e-05 0)
(1.00804 0.000107653 0)
(1.00763 0.000158835 0)
(1.00713 0.000208092 0)
(1.00658 0.000304502 0)
(1.00596 0.000356665 0)
(1.00524 0.000457692 0)
(1.00434 0.000505043 0)
(1.00325 0.000572694 0)
(1.0019 0.000435279 0)
(1.00025 0.00010005 0)
(0.997872 -0.00053585 0)
(0.995 -0.00192446 0)
(1.00887 1.34673e-05 0)
(1.0093 -0.000140686 0)
(1.0091 -0.000228385 0)
(1.00888 -0.000315344 0)
(1.00854 -0.000406262 0)
(1.00815 -0.000484069 0)
(1.00763 -0.000572147 0)
(1.00699 -0.000654837 0)
(1.00623 -0.000865632 0)
(1.00536 -0.0011161 0)
(1.00427 -0.0015599 0)
(1.00287 -0.00206161 0)
(1.00104 -0.00284138 0)
(0.998784 -0.00377604 0)
(0.995669 -0.0049887 0)
(0.991948 -0.00659016 0)
(1.00935 -6.06853e-05 0)
(1.00975 -0.000348882 0)
(1.00951 -0.000581415 0)
(1.00923 -0.0008426 0)
(1.00881 -0.00115531 0)
(1.0083 -0.00151466 0)
(1.00765 -0.00198496 0)
(1.00681 -0.00253297 0)
(1.00578 -0.00326042 0)
(1.00457 -0.00408512 0)
(1.00311 -0.0051714 0)
(1.00133 -0.00631359 0)
(0.999071 -0.00773189 0)
(0.996332 -0.00915642 0)
(0.992684 -0.0108255 0)
(0.988354 -0.0125313 0)
(1.00981 -0.000149651 0)
(1.00976 -0.000789131 0)
(1.00942 -0.00132714 0)
(1.00897 -0.00193723 0)
(1.00835 -0.00265882 0)
(1.00757 -0.00348933 0)
(1.00662 -0.00449822 0)
(1.00547 -0.00562992 0)
(1.00413 -0.00696006 0)
(1.00256 -0.00838661 0)
(1.00076 -0.0100567 0)
(0.998632 -0.0117327 0)
(0.996048 -0.0136438 0)
(0.992959 -0.0154104 0)
(0.989005 -0.0173648 0)
(0.984362 -0.0190143 0)
(1.00986 -0.000336697 0)
(1.00869 -0.00154837 0)
(1.00821 -0.00258194 0)
(1.00755 -0.00371378 0)
(1.00667 -0.00498389 0)
(1.0056 -0.00638384 0)
(1.00434 -0.00796247 0)
(1.00287 -0.00966331 0)
(1.00122 -0.0115452 0)
(0.999347 -0.0134896 0)
(0.997259 -0.0156247 0)
(0.994874 -0.0176994 0)
(0.992097 -0.0199446 0)
(0.988842 -0.0219029 0)
(0.98484 -0.0239695 0)
(0.980199 -0.0254367 0)
(1.00884 -0.000660123 0)
(1.00613 -0.00256308 0)
(1.00552 -0.00422843 0)
(1.00467 -0.00598676 0)
(1.00356 -0.00786345 0)
(1.00222 -0.00984444 0)
(1.00069 -0.0119607 0)
(0.99897 -0.0141621 0)
(0.997082 -0.016492 0)
(0.994998 -0.0188327 0)
(0.992737 -0.0212947 0)
(0.990216 -0.0236275 0)
(0.987397 -0.0260609 0)
(0.984162 -0.0280954 0)
(0.980348 -0.0301679 0)
(0.975978 -0.0314293 0)
(1.00634 -0.00109408 0)
(1.00182 -0.00368615 0)
(1.00113 -0.00602983 0)
(1.00016 -0.00843555 0)
(0.998913 -0.0109046 0)
(0.997425 -0.0134202 0)
(0.995739 -0.0159985 0)
(0.993872 -0.0186008 0)
(0.991863 -0.0212609 0)
(0.989684 -0.0238759 0)
(0.987374 -0.0265419 0)
(0.98485 -0.029022 0)
(0.982128 -0.0315382 0)
(0.979075 -0.0335819 0)
(0.975631 -0.0356132 0)
(0.971745 -0.0366984 0)
(1.00208 -0.00157617 0)
(0.995805 -0.00473646 0)
(0.99511 -0.00770348 0)
(0.994121 -0.0106919 0)
(0.992849 -0.0136763 0)
(0.99134 -0.0166399 0)
(0.989637 -0.0195861 0)
(0.987759 -0.0224901 0)
(0.985757 -0.0253784 0)
(0.983607 -0.0281709 0)
(0.981369 -0.0309502 0)
(0.978962 -0.033505 0)
(0.976458 -0.0360419 0)
(0.973717 -0.0380688 0)
(0.97078 -0.0400482 0)
(0.967539 -0.0410077 0)
(0.996075 -0.00202849 0)
(0.988367 -0.00555643 0)
(0.987731 -0.00900665 0)
(0.986817 -0.0124439 0)
(0.985638 -0.0158196 0)
(0.984231 -0.0191177 0)
(0.982637 -0.0223307 0)
(0.980873 -0.0254467 0)
(0.978994 -0.0284837 0)
(0.976983 -0.0313861 0)
(0.974917 -0.0342217 0)
(0.972728 -0.0368128 0)
(0.970536 -0.0393416 0)
(0.968204 -0.041354 0)
(0.965876 -0.0432936 0)
(0.963399 -0.0441914 0)
(0.988623 -0.00238247 0)
(0.979976 -0.00604196 0)
(0.979444 -0.00977975 0)
(0.978669 -0.0134872 0)
(0.97766 -0.0171003 0)
(0.976442 -0.0206041 0)
(0.975045 -0.0239804 0)
(0.973485 -0.0272271 0)
(0.971815 -0.0303504 0)
(0.970026 -0.0333171 0)
(0.968208 -0.0361761 0)
(0.96631 -0.0387871 0)
(0.964496 -0.0412998 0)
(0.962644 -0.0433142 0)
(0.960992 -0.0452357 0)
(0.959355 -0.0461375 0)
(0.980195 -0.0025924 0)
(0.971174 -0.00615422 0)
(0.970759 -0.00996305 0)
(0.970146 -0.013745 0)
(0.969338 -0.0174296 0)
(0.968344 -0.0210037 0)
(0.967187 -0.0244388 0)
(0.965876 -0.0277379 0)
(0.964462 -0.0308922 0)
(0.962943 -0.0338863 0)
(0.961418 -0.0367463 0)
(0.959858 -0.0393699 0)
(0.958462 -0.0418673 0)
(0.957133 -0.0439058 0)
(0.956191 -0.0458342 0)
(0.955433 -0.0468045 0)
(0.971346 -0.00264099 0)
(0.962484 -0.00591748 0)
(0.962172 -0.0095931 0)
(0.961706 -0.0132627 0)
(0.961081 -0.0168574 0)
(0.9603 -0.0203678 0)
(0.959378 -0.0237558 0)
(0.958318 -0.0270263 0)
(0.957168 -0.0301537 0)
(0.955931 -0.0331356 0)
(0.954713 -0.0359727 0)
(0.953509 -0.0385989 0)
(0.952545 -0.04108 0)
(0.951755 -0.0431604 0)
(0.95153 -0.0451155 0)
(0.951649 -0.0462086 0)
(0.962613 -0.00253871 0)
(0.954335 -0.00540778 0)
(0.954093 -0.00878569 0)
(0.95373 -0.0121863 0)
(0.953242 -0.0155487 0)
(0.952627 -0.018869 0)
(0.951896 -0.0221035 0)
(0.951055 -0.0252581 0)
(0.950143 -0.0282918 0)
(0.949172 -0.031212 0)
(0.948248 -0.0339926 0)
(0.947393 -0.0366005 0)
(0.94685 -0.0390556 0)
(0.94659 -0.0411845 0)
(0.947055 -0.0431745 0)
(0.948014 -0.04443 0)
(0.954433 -0.00231878 0)
(0.947018 -0.00473291 0)
(0.946806 -0.00770652 0)
(0.946497 -0.0107274 0)
(0.946084 -0.0137456 0)
(0.945572 -0.016765 0)
(0.944972 -0.0197425 0)
(0.944293 -0.0226875 0)
(0.943571 -0.0255498 0)
(0.942825 -0.0283451 0)
(0.942159 -0.031022 0)
(0.941625 -0.0335766 0)
(0.941468 -0.0359833 0)
(0.941707 -0.0381522 0)
(0.942808 -0.0401713 0)
(0.94453 -0.041611 0)
(0.947099 -0.00202814 0)
(0.940668 -0.0040062 0)
(0.940458 -0.00653288 0)
(0.940159 -0.00911723 0)
(0.939771 -0.0117204 0)
(0.939303 -0.0143548 0)
(0.938771 -0.0169835 0)
(0.938192 -0.0196246 0)
(0.937597 -0.0222281 0)
(0.937019 -0.0248209 0)
(0.936561 -0.027332 0)
(0.936302 -0.0297831 0)
(0.936481 -0.032106 0)
(0.937169 -0.0342899 0)
(0.938828 -0.036318 0)
(0.941197 -0.0379432 0)
(0.940745 -0.0017159 0)
(0.93529 -0.00332062 0)
(0.935068 -0.00541436 0)
(0.934759 -0.00755901 0)
(0.934365 -0.00972446 0)
(0.933903 -0.0119293 0)
(0.933393 -0.0141457 0)
(0.932857 -0.0164023 0)
(0.932326 -0.0186585 0)
(0.931854 -0.0209585 0)
(0.931541 -0.023225 0)
(0.9315 -0.0255054 0)
(0.931952 -0.0276955 0)
(0.933026 -0.0298537 0)
(0.93514 -0.0318635 0)
(0.938012 -0.0336635 0)
(0.93537 -0.00142201 0)
(0.930789 -0.00273171 0)
(0.930559 -0.00444516 0)
(0.930241 -0.00619003 0)
(0.929838 -0.00794179 0)
(0.929372 -0.00972071 0)
(0.928863 -0.0115063 0)
(0.928339 -0.0133347 0)
(0.927826 -0.0151756 0)
(0.927401 -0.0170919 0)
(0.927167 -0.0190182 0)
(0.927277 -0.0210378 0)
(0.927928 -0.0230268 0)
(0.929308 -0.0251004 0)
(0.931749 -0.0270621 0)
(0.934958 -0.0290262 0)
(0.930871 -0.00117009 0)
(0.927029 -0.00225384 0)
(0.926807 -0.00365507 0)
(0.9265 -0.00506416 0)
(0.926107 -0.00645906 0)
(0.925652 -0.00785725 0)
(0.925153 -0.00924311 0)
(0.924642 -0.0106556 0)
(0.924133 -0.0120686 0)
(0.923718 -0.0135437 0)
(0.923504 -0.0150285 0)
(0.923689 -0.0166655 0)
(0.924452 -0.0183561 0)
(0.926027 -0.0202622 0)
(0.928631 -0.0221362 0)
(0.932003 -0.024252 0)
(0.927107 -0.000965987 0)
(0.923882 -0.001871 0)
(0.923689 -0.00302449 0)
(0.923418 -0.00416701 0)
(0.923062 -0.00527672 0)
(0.922642 -0.0063644 0)
(0.92217 -0.00741687 0)
(0.92168 -0.00847724 0)
(0.921185 -0.00951614 0)
(0.920791 -0.0105659 0)
(0.92059 -0.0115503 0)
(0.920797 -0.0126821 0)
(0.921566 -0.0139414 0)
(0.92318 -0.0155599 0)
(0.92574 -0.0172749 0)
(0.929085 -0.0194983 0)
(0.923948 -0.000802434 0)
(0.921152 -0.00156137 0)
(0.920994 -0.00252366 0)
(0.920768 -0.00346906 0)
(0.92046 -0.00437668 0)
(0.92009 -0.00524597 0)
(0.919657 -0.00605643 0)
(0.919209 -0.0068471 0)
(0.918791 -0.00756766 0)
(0.918605 -0.00828169 0)
(0.918587 -0.0088754 0)
(0.91882 -0.00954724 0)
(0.91939 -0.0102367 0)
(0.920832 -0.0113604 0)
(0.923089 -0.01276 0)
(0.926184 -0.0149423 0)
(0.921206 -0.000669634 0)
(0.918839 -0.00129384 0)
(0.918747 -0.00210116 0)
(0.918619 -0.00290278 0)
(0.91845 -0.00368377 0)
(0.918253 -0.00443354 0)
(0.918037 -0.00511999 0)
(0.917847 -0.00575552 0)
(0.917729 -0.00626085 0)
(0.917763 -0.00675955 0)
(0.917874 -0.00718814 0)
(0.918134 -0.00764306 0)
(0.918575 -0.00787736 0)
(0.919449 -0.00838422 0)
(0.920933 -0.00917782 0)
(0.923505 -0.0109851 0)
(0.918873 -0.000554272 0)
(0.917658 -0.00106477 0)
(0.917614 -0.00173079 0)
(0.917556 -0.00239793 0)
(0.917489 -0.0030547 0)
(0.917427 -0.00369426 0)
(0.917378 -0.00429357 0)
(0.917369 -0.00485483 0)
(0.917398 -0.00532967 0)
(0.917463 -0.00576261 0)
(0.917614 -0.00609547 0)
(0.917954 -0.00643148 0)
(0.918412 -0.00659551 0)
(0.918971 -0.00685705 0)
(0.919727 -0.00697156 0)
(0.921441 -0.00807444 0)
(0.917675 -0.00045643 0)
(0.917091 -0.000932194 0)
(0.91705 -0.00150833 0)
(0.916995 -0.00207922 0)
(0.916933 -0.00262842 0)
(0.916877 -0.00315436 0)
(0.916838 -0.00363579 0)
(0.916845 -0.00408568 0)
(0.916909 -0.00446992 0)
(0.917062 -0.00482717 0)
(0.917283 -0.00508631 0)
(0.917656 -0.00535588 0)
(0.918113 -0.0055069 0)
(0.918759 -0.00577011 0)
(0.919314 -0.00576242 0)
(0.9202 -0.00625244 0)
(0.917107 -0.000399819 0)
(0.916448 -0.0007954 0)
(0.916433 -0.00128508 0)
(0.916415 -0.00176776 0)
(0.916404 -0.00222808 0)
(0.916408 -0.00266522 0)