/*--------------------------------*- C++ -*----------------------------------*\
| =========                 |                                                 |
| \\      /  F ield         | foam-extend: Open Source CFD                    |
|  \\    /   O peration     | Version:     4.1-20200408                       |
|   \\  /    A nd           | Web:         http://www.foam-extend.org         |
|    \\/     M anipulation  |                                                 |
\*---------------------------------------------------------------------------*/
FoamFile
{
    version     2.0;
    format      ascii;
    class       volVectorField;
    location    "0.0345000";
    object      U_0_0;
}
// * * * * * * * * * * * * * * * * * * * * * * * * * * * * * * * * * * * * * //

dimensions      [0 1 0 0 0 0 0];

internalField   nonuniform List<vector> 
1952
(
(0.0341675 -8.64864e-07 0)
(0.0341674 -1.40772e-06 0)
(0.0341672 -1.95777e-06 0)
(0.034167 -2.50887e-06 0)
(0.0341668 -3.06055e-06 0)
(0.0341665 -3.61041e-06 0)
(0.0341662 -4.15932e-06 0)
(0.0341659 -4.70422e-06 0)
(0.0341655 -5.24586e-06 0)
(0.0341652 -5.78079e-06 0)
(0.0341648 -6.30711e-06 0)
(0.0341645 -6.8231e-06 0)
(0.0341643 -7.31853e-06 0)
(0.0341642 -7.79863e-06 0)
(0.0341642 -8.23851e-06 0)
(0.0341675 -3.70499e-07 0)
(0.0341663 -8.68312e-07 0)
(0.0341662 -1.41332e-06 0)
(0.0341661 -1.96554e-06 0)
(0.0341659 -2.51877e-06 0)
(0.0341657 -3.07257e-06 0)
(0.0341654 -3.62448e-06 0)
(0.0341651 -4.17541e-06 0)
(0.0341647 -4.72223e-06 0)
(0.0341644 -5.26576e-06 0)
(0.034164 -5.80245e-06 0)
(0.0341637 -6.33044e-06 0)
(0.0341634 -6.84793e-06 0)
(0.0341632 -7.34488e-06 0)
(0.0341631 -7.82616e-06 0)
(0.0341631 -8.26728e-06 0)
(0.0341664 -3.71978e-07 0)
(0.0341652 -8.71535e-07 0)
(0.0341651 -1.41856e-06 0)
(0.034165 -1.9728e-06 0)
(0.0341648 -2.52803e-06 0)
(0.0341645 -3.08382e-06 0)
(0.0341642 -3.63766e-06 0)
(0.0341639 -4.19049e-06 0)
(0.0341636 -4.73914e-06 0)
(0.0341633 -5.28442e-06 0)
(0.0341629 -5.82279e-06 0)
(0.0341626 -6.35234e-06 0)
(0.0341623 -6.87125e-06 0)
(0.0341621 -7.36966e-06 0)
(0.0341619 -7.85218e-06 0)
(0.0341619 -8.2946e-06 0)
(0.0341652 -3.7336e-07 0)
(0.0341641 -8.74569e-07 0)
(0.034164 -1.42349e-06 0)
(0.0341638 -1.97965e-06 0)
(0.0341636 -2.53676e-06 0)
(0.0341634 -3.09443e-06 0)
(0.0341631 -3.65009e-06 0)
(0.0341628 -4.20472e-06 0)
(0.0341625 -4.7551e-06 0)
(0.0341621 -5.30206e-06 0)
(0.0341617 -5.84203e-06 0)
(0.0341614 -6.37309e-06 0)
(0.0341611 -6.89339e-06 0)
(0.0341609 -7.39322e-06 0)
(0.0341608 -7.87703e-06 0)
(0.0341608 -8.32078e-06 0)
(0.0341641 -3.74661e-07 0)
(0.0341629 -8.77451e-07 0)
(0.0341628 -1.42817e-06 0)
(0.0341627 -1.98615e-06 0)
(0.0341625 -2.54506e-06 0)
(0.0341622 -3.10452e-06 0)
(0.034162 -3.66192e-06 0)
(0.0341617 -4.21828e-06 0)
(0.0341613 -4.77032e-06 0)
(0.034161 -5.3189e-06 0)
(0.0341606 -5.86044e-06 0)
(0.0341603 -6.39298e-06 0)
(0.03416 -6.91463e-06 0)
(0.0341598 -7.41587e-06 0)
(0.0341596 -7.90096e-06 0)
(0.0341597 -8.34606e-06 0)
(0.034163 -3.75898e-07 0)
(0.0341618 -8.80209e-07 0)
(0.0341617 -1.43265e-06 0)
(0.0341615 -1.99238e-06 0)
(0.0341613 -2.55301e-06 0)
(0.0341611 -3.1142e-06 0)
(0.0341608 -3.67326e-06 0)
(0.0341605 -4.23131e-06 0)
(0.0341602 -4.78492e-06 0)
(0.0341598 -5.3351e-06 0)
(0.0341594 -5.87808e-06 0)
(0.0341591 -6.41212e-06 0)
(0.0341588 -6.93515e-06 0)
(0.0341586 -7.43778e-06 0)
(0.0341585 -7.92414e-06 0)
(0.0341585 -8.3706e-06 0)
(0.0341618 -3.7708e-07 0)
(0.0341606 -8.82858e-07 0)
(0.0341605 -1.43696e-06 0)
(0.0341604 -1.99837e-06 0)
(0.0341602 -2.56065e-06 0)
(0.03416 -3.12352e-06 0)
(0.0341597 -3.68417e-06 0)
(0.0341594 -4.24386e-06 0)
(0.034159 -4.79896e-06 0)
(0.0341587 -5.35075e-06 0)
(0.0341583 -5.89508e-06 0)
(0.034158 -6.43066e-06 0)
(0.0341577 -6.95514e-06 0)
(0.0341575 -7.4592e-06 0)
(0.0341573 -7.94692e-06 0)
(0.0341573 -8.39474e-06 0)
(0.0341607 -3.78217e-07 0)
(0.0341595 -8.85426e-07 0)
(0.0341594 -1.44114e-06 0)
(0.0341592 -2.00418e-06 0)
(0.034159 -2.56806e-06 0)
(0.0341588 -3.13256e-06 0)
(0.0341585 -3.69477e-06 0)
(0.0341582 -4.25609e-06 0)
(0.0341579 -4.81266e-06 0)
(0.0341575 -5.36606e-06 0)
(0.0341571 -5.91177e-06 0)
(0.0341568 -6.44892e-06 0)
(0.0341565 -6.9748e-06 0)
(0.0341563 -7.48035e-06 0)
(0.0341562 -7.9694e-06 0)
(0.0341562 -8.41859e-06 0)
(0.0341595 -3.79318e-07 0)
(0.0341583 -8.87934e-07 0)
(0.0341582 -1.44523e-06 0)
(0.0341581 -2.00985e-06 0)
(0.0341579 -2.57531e-06 0)
(0.0341577 -3.14142e-06 0)
(0.0341574 -3.70515e-06 0)
(0.0341571 -4.26809e-06 0)
(0.0341567 -4.82611e-06 0)
(0.0341564 -5.38114e-06 0)
(0.034156 -5.92823e-06 0)
(0.0341557 -6.46692e-06 0)
(0.0341553 -6.99418e-06 0)
(0.0341551 -7.50123e-06 0)
(0.034155 -7.99161e-06 0)
(0.034155 -8.44216e-06 0)
(0.0341584 -3.80395e-07 0)
(0.0341572 -8.90399e-07 0)
(0.0341571 -1.44924e-06 0)
(0.0341569 -2.01541e-06 0)
(0.0341567 -2.58242e-06 0)
(0.0341565 -3.15013e-06 0)
(0.0341562 -3.71537e-06 0)
(0.0341559 -4.2799e-06 0)
(0.0341555 -4.83938e-06 0)
(0.0341552 -5.39599e-06 0)
(0.0341548 -5.94448e-06 0)
(0.0341545 -6.48472e-06 0)
(0.0341542 -7.01335e-06 0)
(0.034154 -7.52192e-06 0)
(0.0341538 -8.01364e-06 0)
(0.0341539 -8.46559e-06 0)
(0.0341572 -3.81452e-07 0)
(0.034156 -8.92837e-07 0)
(0.0341559 -1.45322e-06 0)
(0.0341558 -2.02089e-06 0)
(0.0341556 -2.58943e-06 0)
(0.0341553 -3.15872e-06 0)
(0.034155 -3.72548e-06 0)
(0.0341547 -4.29157e-06 0)
(0.0341544 -4.85254e-06 0)
(0.034154 -5.41066e-06 0)
(0.0341537 -5.96062e-06 0)
(0.0341533 -6.50243e-06 0)
(0.034153 -7.03242e-06 0)
(0.0341528 -7.54249e-06 0)
(0.0341527 -8.03554e-06 0)
(0.0341527 -8.48887e-06 0)
(0.0341561 -3.82499e-07 0)
(0.0341549 -8.95247e-07 0)
(0.0341548 -1.45714e-06 0)
(0.0341546 -2.02633e-06 0)
(0.0341544 -2.59639e-06 0)
(0.0341542 -3.16724e-06 0)
(0.0341539 -3.7355e-06 0)
(0.0341536 -4.30312e-06 0)
(0.0341532 -4.86561e-06 0)
(0.0341529 -5.42521e-06 0)
(0.0341525 -5.97666e-06 0)
(0.0341522 -6.52001e-06 0)
(0.0341518 -7.05138e-06 0)
(0.0341516 -7.56294e-06 0)
(0.0341515 -8.05732e-06 0)
(0.0341515 -8.51203e-06 0)
(0.0341549 -3.83531e-07 0)
(0.0341537 -8.97634e-07 0)
(0.0341536 -1.46102e-06 0)
(0.0341534 -2.03174e-06 0)
(0.0341532 -2.60332e-06 0)
(0.034153 -3.17569e-06 0)
(0.0341527 -3.74548e-06 0)
(0.0341524 -4.3146e-06 0)
(0.034152 -4.8786e-06 0)
(0.0341517 -5.43968e-06 0)
(0.0341513 -5.99258e-06 0)
(0.034151 -6.53749e-06 0)
(0.0341507 -7.07027e-06 0)
(0.0341505 -7.58332e-06 0)
(0.0341503 -8.07905e-06 0)
(0.0341504 -8.53514e-06 0)
(0.0341537 -3.84553e-07 0)
(0.0341525 -9.00002e-07 0)
(0.0341524 -1.46486e-06 0)
(0.0341523 -2.03711e-06 0)
(0.0341521 -2.6102e-06 0)
(0.0341518 -3.18407e-06 0)
(0.0341515 -3.75539e-06 0)
(0.0341512 -4.32601e-06 0)
(0.0341509 -4.89154e-06 0)
(0.0341505 -5.45409e-06 0)
(0.0341501 -6.00846e-06 0)
(0.0341498 -6.5549e-06 0)
(0.0341495 -7.08911e-06 0)
(0.0341493 -7.60366e-06 0)
(0.0341492 -8.10076e-06 0)
(0.0341492 -8.55823e-06 0)
(0.0341526 -3.85566e-07 0)
(0.0341514 -9.02363e-07 0)
(0.0341513 -1.4687e-06 0)
(0.0341511 -2.04246e-06 0)
(0.0341509 -2.61705e-06 0)
(0.0341507 -3.19244e-06 0)
(0.0341504 -3.76528e-06 0)
(0.0341501 -4.33741e-06 0)
(0.0341497 -4.90446e-06 0)
(0.0341493 -5.46851e-06 0)
(0.034149 -6.02432e-06 0)
(0.0341486 -6.57227e-06 0)
(0.0341483 -7.10792e-06 0)
(0.0341481 -7.62394e-06 0)
(0.034148 -8.12239e-06 0)
(0.034148 -8.58124e-06 0)
(0.0341514 -3.86576e-07 0)
(0.0341502 -9.04709e-07 0)
(0.0341501 -1.47251e-06 0)
(0.0341499 -2.04777e-06 0)
(0.0341497 -2.62385e-06 0)
(0.0341495 -3.20076e-06 0)
(0.0341492 -3.7751e-06 0)
(0.0341489 -4.34873e-06 0)
(0.0341485 -4.91728e-06 0)
(0.0341482 -5.48282e-06 0)
(0.0341478 -6.04009e-06 0)
(0.0341475 -6.58955e-06 0)
(0.0341471 -7.12663e-06 0)
(0.0341469 -7.64414e-06 0)
(0.0341468 -8.14394e-06 0)
(0.0341468 -8.60417e-06 0)
(0.0341502 -3.87579e-07 0)
(0.034149 -9.07038e-07 0)
(0.0341489 -1.47629e-06 0)
(0.0341488 -2.05305e-06 0)
(0.0341486 -2.6306e-06 0)
(0.0341483 -3.20903e-06 0)
(0.034148 -3.78483e-06 0)
(0.0341477 -4.35999e-06 0)
(0.0341473 -4.92996e-06 0)
(0.034147 -5.49705e-06 0)
(0.0341466 -6.05585e-06 0)
(0.0341463 -6.6068e-06 0)
(0.034146 -7.14535e-06 0)
(0.0341457 -7.66434e-06 0)
(0.0341456 -8.16553e-06 0)
(0.0341456 -8.62716e-06 0)
(0.0341491 -3.88575e-07 0)
(0.0341478 -9.0935e-07 0)
(0.0341477 -1.48004e-06 0)
(0.0341476 -2.0583e-06 0)
(0.0341474 -2.6373e-06 0)
(0.0341471 -3.21725e-06 0)
(0.0341468 -3.79449e-06 0)
(0.0341465 -4.37121e-06 0)
(0.0341462 -4.94259e-06 0)
(0.0341458 -5.51127e-06 0)
(0.0341454 -6.07158e-06 0)
(0.0341451 -6.62405e-06 0)
(0.0341448 -7.16408e-06 0)
(0.0341446 -7.68455e-06 0)
(0.0341444 -8.18716e-06 0)
(0.0341444 -8.65019e-06 0)
(0.0341479 -3.89563e-07 0)
(0.0341467 -9.11645e-07 0)
(0.0341466 -1.48377e-06 0)
(0.0341464 -2.06351e-06 0)
(0.0341462 -2.64396e-06 0)
(0.034146 -3.22544e-06 0)
(0.0341457 -3.80413e-06 0)
(0.0341453 -4.3824e-06 0)
(0.034145 -4.95523e-06 0)
(0.0341446 -5.52547e-06 0)
(0.0341442 -6.08727e-06 0)
(0.0341439 -6.64128e-06 0)
(0.0341436 -7.18279e-06 0)
(0.0341434 -7.70477e-06 0)
(0.0341432 -8.20881e-06 0)
(0.0341433 -8.67323e-06 0)
(0.0341467 -3.90544e-07 0)
(0.0341455 -9.13924e-07 0)
(0.0341454 -1.48747e-06 0)
(0.0341452 -2.06869e-06 0)
(0.034145 -2.65058e-06 0)
(0.0341448 -3.23358e-06 0)
(0.0341445 -3.81371e-06 0)
(0.0341442 -4.39354e-06 0)
(0.0341438 -4.9678e-06 0)
(0.0341434 -5.53961e-06 0)
(0.034143 -6.10289e-06 0)
(0.0341427 -6.65847e-06 0)
(0.0341424 -7.20146e-06 0)
(0.0341422 -7.72498e-06 0)
(0.034142 -8.23044e-06 0)
(0.0341421 -8.69628e-06 0)
(0.0341455 -3.91519e-07 0)
(0.0341443 -9.16186e-07 0)
(0.0341442 -1.49114e-06 0)
(0.034144 -2.07383e-06 0)
(0.0341438 -2.65715e-06 0)
(0.0341436 -3.24167e-06 0)
(0.0341433 -3.82324e-06 0)
(0.034143 -4.40463e-06 0)
(0.0341426 -4.98035e-06 0)
(0.0341422 -5.5537e-06 0)
(0.0341418 -6.11847e-06 0)
(0.0341415 -6.67563e-06 0)
(0.0341412 -7.22009e-06 0)
(0.034141 -7.74515e-06 0)
(0.0341408 -8.25203e-06 0)
(0.0341409 -8.71929e-06 0)
(0.0341443 -3.92486e-07 0)
(0.0341431 -9.18435e-07 0)
(0.034143 -1.49479e-06 0)
(0.0341429 -2.07895e-06 0)
(0.0341426 -2.66369e-06 0)
(0.0341424 -3.24972e-06 0)
(0.0341421 -3.83273e-06 0)
(0.0341418 -4.41564e-06 0)
(0.0341414 -4.9928e-06 0)
(0.034141 -5.56769e-06 0)
(0.0341407 -6.13394e-06 0)
(0.0341403 -6.69266e-06 0)
(0.03414 -7.23859e-06 0)
(0.0341398 -7.76521e-06 0)
(0.0341396 -8.27349e-06 0)
(0.0341397 -8.74218e-06 0)
(0.0341432 -3.93447e-07 0)
(0.0341419 -9.20652e-07 0)
(0.0341418 -1.49839e-06 0)
(0.0341417 -2.08399e-06 0)
(0.0341414 -2.67013e-06 0)
(0.0341412 -3.25765e-06 0)
(0.0341409 -3.84206e-06 0)
(0.0341406 -4.4265e-06 0)
(0.0341402 -5.00504e-06 0)
(0.0341398 -5.58147e-06 0)
(0.0341395 -6.14925e-06 0)
(0.0341391 -6.70956e-06 0)
(0.0341388 -7.25701e-06 0)
(0.0341386 -7.78521e-06 0)
(0.0341384 -8.29497e-06 0)
(0.0341384 -8.76514e-06 0)
(0.034142 -3.94395e-07 0)
(0.0341407 -9.22848e-07 0)
(0.0341406 -1.50195e-06 0)
(0.0341405 -2.08898e-06 0)
(0.0341403 -2.67653e-06 0)
(0.03414 -3.26552e-06 0)
(0.0341397 -3.85135e-06 0)
(0.0341394 -4.43731e-06 0)
(0.034139 -5.01731e-06 0)
(0.0341386 -5.59528e-06 0)
(0.0341382 -6.16453e-06 0)
(0.0341379 -6.72645e-06 0)
(0.0341376 -7.27538e-06 0)
(0.0341374 -7.80519e-06 0)
(0.0341372 -8.3164e-06 0)
(0.0341372 -8.78804e-06 0)
(0.0341408 -3.95334e-07 0)
(0.0341395 -9.25022e-07 0)
(0.0341394 -1.50549e-06 0)
(0.0341393 -2.09393e-06 0)
(0.0341391 -2.68286e-06 0)
(0.0341388 -3.2733e-06 0)
(0.0341385 -3.86054e-06 0)
(0.0341382 -4.448e-06 0)
(0.0341378 -5.02943e-06 0)
(0.0341374 -5.6089e-06 0)
(0.034137 -6.17964e-06 0)
(0.0341367 -6.74314e-06 0)
(0.0341364 -7.29356e-06 0)
(0.0341361 -7.82498e-06 0)
(0.034136 -8.33765e-06 0)
(0.034136 -8.81079e-06 0)
(0.0341396 -3.96263e-07 0)
(0.0341383 -9.27163e-07 0)
(0.0341382 -1.50896e-06 0)
(0.0341381 -2.09879e-06 0)
(0.0341379 -2.6891e-06 0)
(0.0341376 -3.28096e-06 0)
(0.0341373 -3.8696e-06 0)
(0.034137 -4.45851e-06 0)
(0.0341366 -5.04136e-06 0)
(0.0341362 -5.62238e-06 0)
(0.0341358 -6.19462e-06 0)
(0.0341355 -6.75975e-06 0)
(0.0341352 -7.31169e-06 0)
(0.0341349 -7.84478e-06 0)
(0.0341348 -8.35896e-06 0)
(0.0341348 -8.83364e-06 0)
(0.0341384 -3.97179e-07 0)
(0.0341371 -9.29294e-07 0)
(0.034137 -1.51243e-06 0)
(0.0341369 -2.10363e-06 0)
(0.0341367 -2.69532e-06 0)
(0.0341364 -3.28858e-06 0)
(0.0341361 -3.87866e-06 0)
(0.0341358 -4.469e-06 0)
(0.0341354 -5.05335e-06 0)
(0.034135 -5.63589e-06 0)
(0.0341346 -6.2096e-06 0)
(0.0341343 -6.7763e-06 0)
(0.0341339 -7.32976e-06 0)
(0.0341337 -7.86444e-06 0)
(0.0341336 -8.38019e-06 0)
(0.0341336 -8.8565e-06 0)
(0.0341372 -3.9809e-07 0)
(0.0341359 -9.31418e-07 0)
(0.0341358 -1.51589e-06 0)
(0.0341357 -2.10845e-06 0)
(0.0341355 -2.70152e-06 0)
(0.0341352 -3.29615e-06 0)
(0.0341349 -3.88767e-06 0)
(0.0341346 -4.47939e-06 0)
(0.0341342 -5.06525e-06 0)
(0.0341338 -5.64929e-06 0)
(0.0341334 -6.2245e-06 0)
(0.034133 -6.79275e-06 0)
(0.0341327 -7.34778e-06 0)
(0.0341325 -7.88404e-06 0)
(0.0341324 -8.40143e-06 0)
(0.0341324 -8.87941e-06 0)
(0.034136 -3.98998e-07 0)
(0.0341347 -9.33561e-07 0)
(0.0341346 -1.51937e-06 0)
(0.0341345 -2.11331e-06 0)
(0.0341342 -2.70778e-06 0)
(0.034134 -3.30377e-06 0)
(0.0341337 -3.89674e-06 0)
(0.0341333 -4.48982e-06 0)
(0.034133 -5.07716e-06 0)
(0.0341326 -5.6627e-06 0)
(0.0341322 -6.23944e-06 0)
(0.0341318 -6.80926e-06 0)
(0.0341315 -7.36588e-06 0)
(0.0341313 -7.90377e-06 0)
(0.0341311 -8.42281e-06 0)
(0.0341311 -8.90249e-06 0)
(0.0341348 -3.99915e-07 0)
(0.0341335 -9.35753e-07 0)
(0.0341334 -1.52293e-06 0)
(0.0341333 -2.11826e-06 0)
(0.034133 -2.71414e-06 0)
(0.0341328 -3.3115e-06 0)
(0.0341325 -3.90594e-06 0)
(0.0341321 -4.50038e-06 0)
(0.0341317 -5.08924e-06 0)
(0.0341314 -5.67625e-06 0)
(0.034131 -6.25453e-06 0)
(0.0341306 -6.82591e-06 0)
(0.0341303 -7.38414e-06 0)
(0.03413 -7.92368e-06 0)
(0.0341299 -8.44437e-06 0)
(0.0341299 -8.9258e-06 0)
(0.0341336 -4.00852e-07 0)
(0.0341323 -9.38038e-07 0)
(0.0341322 -1.52664e-06 0)
(0.034132 -2.1234e-06 0)
(0.0341318 -2.72074e-06 0)
(0.0341316 -3.31949e-06 0)
(0.0341313 -3.91544e-06 0)
(0.0341309 -4.51124e-06 0)
(0.0341305 -5.10162e-06 0)
(0.0341301 -5.69008e-06 0)
(0.0341297 -6.26992e-06 0)
(0.0341294 -6.84286e-06 0)
(0.034129 -7.40272e-06 0)
(0.0341288 -7.94394e-06 0)
(0.0341287 -8.46631e-06 0)
(0.0341287 -8.94953e-06 0)
(0.0341324 -4.0183e-07 0)
(0.0341311 -9.40469e-07 0)
(0.034131 -1.53058e-06 0)
(0.0341308 -2.12887e-06 0)
(0.0341306 -2.7277e-06 0)
(0.0341303 -3.32788e-06 0)
(0.03413 -3.9254e-06 0)
(0.0341297 -4.52257e-06 0)
(0.0341293 -5.11451e-06 0)
(0.0341289 -5.70439e-06 0)
(0.0341285 -6.2858e-06 0)
(0.0341281 -6.86031e-06 0)
(0.0341278 -7.42179e-06 0)
(0.0341276 -7.96471e-06 0)
(0.0341274 -8.48877e-06 0)
(0.0341274 -8.97381e-06 0)
(0.0341312 -4.02871e-07 0)
(0.0341299 -9.43108e-07 0)
(0.0341298 -1.53485e-06 0)
(0.0341296 -2.13477e-06 0)
(0.0341294 -2.73521e-06 0)
(0.0341291 -3.33689e-06 0)
(0.0341288 -3.93606e-06 0)
(0.0341285 -4.53463e-06 0)
(0.0341281 -5.12816e-06 0)
(0.0341277 -5.71946e-06 0)
(0.0341273 -6.30241e-06 0)
(0.0341269 -6.8785e-06 0)
(0.0341266 -7.44158e-06 0)
(0.0341263 -7.98622e-06 0)
(0.0341262 -8.51197e-06 0)
(0.0341262 -8.99889e-06 0)
(0.0341299 -4.04001e-07 0)
(0.0341287 -9.46024e-07 0)
(0.0341286 -1.53959e-06 0)
(0.0341284 -2.14126e-06 0)
(0.0341282 -2.74351e-06 0)
(0.0341279 -3.34681e-06 0)
(0.0341276 -3.94768e-06 0)
(0.0341272 -4.54774e-06 0)
(0.0341268 -5.14286e-06 0)
(0.0341265 -5.73561e-06 0)
(0.034126 -6.3201e-06 0)
(0.0341257 -6.89774e-06 0)
(0.0341253 -7.4624e-06 0)
(0.0341251 -8.00875e-06 0)
(0.0341249 -8.5362e-06 0)
(0.034125 -9.02504e-06 0)
(0.0341287 -4.05252e-07 0)
(0.0341275 -9.49335e-07 0)
(0.0341273 -1.54494e-06 0)
(0.0341272 -2.14858e-06 0)
(0.034127 -2.75283e-06 0)
(0.0341267 -3.35791e-06 0)
(0.0341264 -3.96062e-06 0)
(0.034126 -4.56225e-06 0)
(0.0341256 -5.159e-06 0)
(0.0341252 -5.75325e-06 0)
(0.0341248 -6.3393e-06 0)
(0.0341244 -6.91845e-06 0)
(0.0341241 -7.48465e-06 0)
(0.0341238 -8.03269e-06 0)
(0.0341237 -8.56182e-06 0)
(0.0341237 -9.05263e-06 0)
(0.0341275 -4.06671e-07 0)
(0.0341262 -9.53166e-07 0)
(0.0341261 -1.55113e-06 0)
(0.034126 -2.15704e-06 0)
(0.0341257 -2.76353e-06 0)
(0.0341255 -3.37062e-06 0)
(0.0341251 -3.97533e-06 0)
(0.0341248 -4.57868e-06 0)
(0.0341244 -5.17719e-06 0)
(0.034124 -5.77293e-06 0)
(0.0341236 -6.36055e-06 0)
(0.0341232 -6.94115e-06 0)
(0.0341228 -7.50887e-06 0)
(0.0341226 -8.05855e-06 0)
(0.0341224 -8.58931e-06 0)
(0.0341224 -9.08214e-06 0)
(0.0341263 -4.08315e-07 0)
(0.034125 -9.57671e-07 0)
(0.0341249 -1.5584e-06 0)
(0.0341247 -2.16696e-06 0)
(0.0341245 -2.77603e-06 0)
(0.0341242 -3.38544e-06 0)
(0.0341239 -3.99237e-06 0)
(0.0341236 -4.59765e-06 0)
(0.0341232 -5.19807e-06 0)
(0.0341227 -5.79534e-06 0)
(0.0341223 -6.38453e-06 0)
(0.0341219 -6.96654e-06 0)
(0.0341216 -7.53571e-06 0)
(0.0341213 -8.08698e-06 0)
(0.0341212 -8.61931e-06 0)
(0.0341212 -9.11418e-06 0)
(0.0341251 -4.10248e-07 0)
(0.0341238 -9.6304e-07 0)
(0.0341237 -1.56705e-06 0)
(0.0341235 -2.17876e-06 0)
(0.0341233 -2.79087e-06 0)
(0.034123 -3.40298e-06 0)
(0.0341227 -4.01248e-06 0)
(0.0341223 -4.61992e-06 0)
(0.0341219 -5.22243e-06 0)
(0.0341215 -5.82131e-06 0)
(0.0341211 -6.41213e-06 0)
(0.0341207 -6.99547e-06 0)
(0.0341203 -7.56602e-06 0)
(0.0341201 -8.11878e-06 0)
(0.0341199 -8.65259e-06 0)
(0.0341199 -9.1495e-06 0)
(0.0341238 -4.12551e-07 0)
(0.0341226 -9.6949e-07 0)
(0.0341224 -1.57744e-06 0)
(0.0341223 -2.19292e-06 0)
(0.034122 -2.80866e-06 0)
(0.0341218 -3.42398e-06 0)
(0.0341214 -4.03651e-06 0)
(0.0341211 -4.64642e-06 0)
(0.0341207 -5.25127e-06 0)
(0.0341203 -5.8519e-06 0)
(0.0341198 -6.4444e-06 0)
(0.0341194 -7.02903e-06 0)
(0.0341191 -7.60086e-06 0)
(0.0341188 -8.15497e-06 0)
(0.0341187 -8.69011e-06 0)
(0.0341186 -9.18902e-06 0)
(0.0341226 -4.15318e-07 0)
(0.0341213 -9.77271e-07 0)
(0.0341212 -1.58997e-06 0)
(0.034121 -2.21e-06 0)
(0.0341208 -2.83011e-06 0)
(0.0341205 -3.44929e-06 0)
(0.0341202 -4.06542e-06 0)
(0.0341198 -4.67824e-06 0)
(0.0341194 -5.28581e-06 0)
(0.034119 -5.88837e-06 0)
(0.0341186 -6.48267e-06 0)
(0.0341182 -7.06855e-06 0)
(0.0341178 -7.64155e-06 0)
(0.0341175 -8.19682e-06 0)
(0.0341174 -8.7331e-06 0)
(0.0341174 -9.23389e-06 0)
(0.0341214 -4.18656e-07 0)
(0.0341201 -9.86653e-07 0)
(0.03412 -1.60508e-06 0)
(0.0341198 -2.23063e-06 0)
(0.0341196 -2.856e-06 0)
(0.0341193 -3.47986e-06 0)
(0.034119 -4.10035e-06 0)
(0.0341186 -4.71668e-06 0)
(0.0341182 -5.32746e-06 0)
(0.0341178 -5.93227e-06 0)
(0.0341173 -6.52857e-06 0)
(0.0341169 -7.11566e-06 0)
(0.0341166 -7.68973e-06 0)
(0.0341163 -8.24591e-06 0)
(0.0341161 -8.78304e-06 0)
(0.0341161 -9.28556e-06 0)
(0.0341201 -4.22681e-07 0)
(0.0341188 -9.97919e-07 0)
(0.0341187 -1.62325e-06 0)
(0.0341185 -2.25544e-06 0)
(0.0341183 -2.88719e-06 0)
(0.034118 -3.51674e-06 0)
(0.0341177 -4.14253e-06 0)
(0.0341173 -4.76317e-06 0)
(0.0341169 -5.37787e-06 0)
(0.0341165 -5.98538e-06 0)
(0.0341161 -6.58403e-06 0)
(0.0341157 -7.17237e-06 0)
(0.0341153 -7.74744e-06 0)
(0.034115 -8.30423e-06 0)
(0.0341148 -8.84185e-06 0)
(0.0341148 -9.34583e-06 0)
(0.0341189 -4.27515e-07 0)
(0.0341176 -1.01134e-06 0)
(0.0341174 -1.64492e-06 0)
(0.0341173 -2.28508e-06 0)
(0.034117 -2.92452e-06 0)
(0.0341168 -3.56102e-06 0)
(0.0341164 -4.19329e-06 0)
(0.0341161 -4.81928e-06 0)
(0.0341157 -5.43885e-06 0)
(0.0341152 -6.04975e-06 0)
(0.0341148 -6.65132e-06 0)
(0.0341144 -7.24109e-06 0)
(0.034114 -7.81723e-06 0)
(0.0341137 -8.37428e-06 0)
(0.0341135 -8.91201e-06 0)
(0.0341135 -9.41703e-06 0)
(0.0341176 -4.33274e-07 0)
(0.0341163 -1.02717e-06 0)
(0.0341161 -1.67051e-06 0)
(0.034116 -2.32017e-06 0)
(0.0341158 -2.9688e-06 0)
(0.0341155 -3.61373e-06 0)
(0.0341152 -4.25393e-06 0)
(0.0341148 -4.88662e-06 0)
(0.0341144 -5.51231e-06 0)
(0.034114 -6.12764e-06 0)
(0.0341135 -6.73301e-06 0)
(0.0341131 -7.32467e-06 0)
(0.0341127 -7.90214e-06 0)
(0.0341124 -8.45916e-06 0)
(0.0341122 -8.99659e-06 0)
(0.0341122 -9.50206e-06 0)
(0.0341163 -4.40064e-07 0)
(0.034115 -1.04557e-06 0)
(0.0341149 -1.70031e-06 0)
(0.0341147 -2.36113e-06 0)
(0.0341145 -3.02066e-06 0)
(0.0341142 -3.67574e-06 0)
(0.0341139 -4.32558e-06 0)
(0.0341135 -4.96667e-06 0)
(0.0341131 -5.60014e-06 0)
(0.0341127 -6.22137e-06 0)
(0.0341123 -6.83191e-06 0)
(0.0341119 -7.42636e-06 0)
(0.0341115 -8.0058e-06 0)
(0.0341112 -8.56266e-06 0)
(0.034111 -9.09933e-06 0)
(0.0341109 -9.60421e-06 0)
(0.034115 -4.47959e-07 0)
(0.0341136 -1.06662e-06 0)
(0.0341135 -1.73445e-06 0)
(0.0341134 -2.4082e-06 0)
(0.0341132 -3.08045e-06 0)
(0.0341129 -3.74759e-06 0)
(0.0341126 -4.40905e-06 0)
(0.0341122 -5.06058e-06 0)
(0.0341118 -5.70395e-06 0)
(0.0341114 -6.33313e-06 0)
(0.034111 -6.9509e-06 0)
(0.0341106 -7.54983e-06 0)
(0.0341102 -8.13275e-06 0)
(0.0341099 -8.68995e-06 0)
(0.0341097 -9.22576e-06 0)
(0.0341096 -9.72862e-06 0)
(0.0341137 -4.56985e-07 0)
(0.0341123 -1.09021e-06 0)
(0.0341122 -1.77277e-06 0)
(0.034112 -2.46121e-06 0)
(0.0341118 -3.14803e-06 0)
(0.0341116 -3.82925e-06 0)
(0.0341113 -4.50448e-06 0)
(0.0341109 -5.16882e-06 0)
(0.0341105 -5.82462e-06 0)
(0.0341101 -6.4645e-06 0)
(0.0341097 -7.0925e-06 0)
(0.0341093 -7.69887e-06 0)
(0.0341089 -8.28849e-06 0)
(0.0341086 -8.8487e-06 0)
(0.0341084 -9.38604e-06 0)
(0.0341082 -9.88748e-06 0)
(0.0341123 -4.67099e-07 0)
(0.0341109 -1.11603e-06 0)
(0.0341108 -1.81479e-06 0)
(0.0341107 -2.51952e-06 0)
(0.0341105 -3.22264e-06 0)
(0.0341102 -3.91992e-06 0)
(0.0341099 -4.61108e-06 0)
(0.0341096 -5.29071e-06 0)
(0.0341092 -5.96174e-06 0)
(0.0341088 -6.61551e-06 0)
(0.0341084 -7.25747e-06 0)
(0.034108 -7.87549e-06 0)
(0.0341076 -8.47706e-06 0)
(0.0341073 -9.04603e-06 0)
(0.0341071 -9.59232e-06 0)
(0.0341069 -1.00995e-05 0)
(0.034111 -4.78166e-07 0)
(0.0341095 -1.14351e-06 0)
(0.0341094 -1.85961e-06 0)
(0.0341093 -2.58187e-06 0)
(0.0341091 -3.30271e-06 0)
(0.0341088 -4.01769e-06 0)
(0.0341085 -4.7267e-06 0)
(0.0341082 -5.42396e-06 0)
(0.0341079 -6.11282e-06 0)
(0.0341075 -6.78361e-06 0)
(0.0341071 -7.44322e-06 0)
(0.0341067 -8.07709e-06 0)
(0.0341063 -8.6959e-06 0)
(0.034106 -9.27953e-06 0)
(0.0341058 -9.84287e-06 0)
(0.0341056 -1.03644e-05 0)
(0.0341096 -4.89944e-07 0)
(0.0341081 -1.17182e-06 0)
(0.034108 -1.90585e-06 0)
(0.0341078 -2.64638e-06 0)
(0.0341076 -3.38585e-06 0)
(0.0341074 -4.11967e-06 0)
(0.0341071 -4.84794e-06 0)
(0.0341068 -5.56466e-06 0)
(0.0341065 -6.27339e-06 0)
(0.0341061 -6.96375e-06 0)
(0.0341057 -7.64379e-06 0)
(0.0341054 -8.29656e-06 0)
(0.034105 -8.93589e-06 0)
(0.0341047 -9.53688e-06 0)
(0.0341045 -1.01196e-05 0)
(0.0341043 -1.06556e-05 0)
(0.0341081 -5.02075e-07 0)
(0.0341066 -1.19988e-06 0)
(0.0341065 -1.95176e-06 0)
(0.0341064 -2.71062e-06 0)
(0.0341062 -3.46892e-06 0)
(0.034106 -4.22206e-06 0)
(0.0341057 -4.97022e-06 0)
(0.0341054 -5.70741e-06 0)
(0.0341051 -6.43727e-06 0)
(0.0341047 -7.14888e-06 0)
(0.0341044 -7.85121e-06 0)
(0.034104 -8.52487e-06 0)
(0.0341037 -9.18674e-06 0)
(0.0341034 -9.80633e-06 0)
(0.0341032 -1.04091e-05 0)
(0.034103 -1.09587e-05 0)
(0.0341066 -5.14097e-07 0)
(0.0341051 -1.22637e-06 0)
(0.034105 -1.99517e-06 0)
(0.0341049 -2.77154e-06 0)
(0.0341047 -3.54794e-06 0)
(0.0341045 -4.31996e-06 0)
(0.0341042 -5.08766e-06 0)
(0.0341039 -5.8454e-06 0)
(0.0341036 -6.59659e-06 0)
(0.0341033 -7.3302e-06 0)
(0.034103 -8.05558e-06 0)
(0.0341026 -8.75122e-06 0)
(0.0341023 -9.43668e-06 0)
(0.0341021 -1.00752e-05 0)
(0.0341018 -1.06983e-05 0)
(0.0341017 -1.12603e-05 0)
(0.0341051 -5.25441e-07 0)
(0.0341035 -1.24977e-06 0)
(0.0341034 -2.03359e-06 0)
(0.0341033 -2.82563e-06 0)
(0.0341032 -3.61835e-06 0)
(0.034103 -4.40766e-06 0)
(0.0341027 -5.19343e-06 0)
(0.0341024 -5.97064e-06 0)
(0.0341022 -6.74215e-06 0)
(0.0341018 -7.4974e-06 0)
(0.0341015 -8.24545e-06 0)
(0.0341012 -8.96336e-06 0)
(0.0341009 -9.67276e-06 0)
(0.0341007 -1.03301e-05 0)
(0.0341005 -1.09742e-05 0)
(0.0341004 -1.15474e-05 0)
(0.0341036 -5.35458e-07 0)
(0.0341019 -1.2684e-06 0)
(0.0341019 -2.06426e-06 0)
(0.0341017 -2.86901e-06 0)
(0.0341016 -3.6751e-06 0)
(0.0341014 -4.47885e-06 0)
(0.0341012 -5.27988e-06 0)
(0.0341009 -6.07411e-06 0)
(0.0341006 -6.86349e-06 0)
(0.0341004 -7.63862e-06 0)
(0.0341001 -8.40755e-06 0)
(0.0340998 -9.14718e-06 0)
(0.0340996 -9.88004e-06 0)
(0.0340994 -1.05564e-05 0)
(0.0340992 -1.12233e-05 0)
(0.0340991 -1.18061e-05 0)
(0.034102 -5.43433e-07 0)
(0.0341003 -1.28056e-06 0)
(0.0341003 -2.08439e-06 0)
(0.0341001 -2.89773e-06 0)
(0.0341 -3.71304e-06 0)
(0.0340998 -4.52711e-06 0)
(0.0340996 -5.33921e-06 0)
(0.0340994 -6.14639e-06 0)
(0.0340991 -6.94956e-06 0)
(0.0340988 -7.74112e-06 0)
(0.0340986 -8.5273e-06 0)
(0.0340983 -9.28668e-06 0)
(0.0340981 -1.00408e-05 0)
(0.034098 -1.07365e-05 0)
(0.0340979 -1.14276e-05 0)
(0.0340979 -1.20177e-05 0)
(0.0341004 -5.48635e-07 0)
(0.0340987 -1.28474e-06 0)
(0.0340986 -2.09148e-06 0)
(0.0340985 -2.9083e-06 0)
(0.0340984 -3.72764e-06 0)
(0.0340982 -4.5469e-06 0)
(0.034098 -5.36486e-06 0)
(0.0340978 -6.17967e-06 0)
(0.0340975 -6.99092e-06 0)
(0.0340973 -7.79329e-06 0)
(0.0340971 -8.59046e-06 0)
(0.0340969 -9.36462e-06 0)
(0.0340967 -1.01336e-05 0)
(0.0340966 -1.08464e-05 0)
(0.0340966 -1.15563e-05 0)
(0.0340967 -1.21487e-05 0)
(0.0340987 -5.50409e-07 0)
(0.034097 -1.27977e-06 0)
(0.034097 -2.08362e-06 0)
(0.0340969 -2.89796e-06 0)
(0.0340967 -3.7152e-06 0)
(0.0340966 -4.53336e-06 0)
(0.0340964 -5.35054e-06 0)
(0.0340962 -6.16562e-06 0)
(0.034096 -6.97667e-06 0)
(0.0340957 -7.78068e-06 0)
(0.0340955 -8.57826e-06 0)
(0.0340954 -9.3563e-06 0)
(0.0340953 -1.01268e-05 0)
(0.0340953 -1.08457e-05 0)
(0.0340953 -1.15584e-05 0)
(0.0340955 -1.21464e-05 0)
(0.0340971 -5.48266e-07 0)
(0.0340954 -1.2634e-06 0)
(0.0340953 -2.05702e-06 0)
(0.0340952 -2.86111e-06 0)
(0.0340951 -3.668e-06 0)
(0.0340949 -4.47596e-06 0)
(0.0340948 -5.28233e-06 0)
(0.0340946 -6.08675e-06 0)
(0.0340944 -6.88563e-06 0)
(0.0340942 -7.67787e-06 0)
(0.034094 -8.46073e-06 0)
(0.0340939 -9.2257e-06 0)
(0.0340939 -9.97798e-06 0)
(0.0340939 -1.06833e-05 0)
(0.0340941 -1.13758e-05 0)
(0.0340944 -1.19499e-05 0)
(0.0340954 -5.41246e-07 0)
(0.0340937 -1.23194e-06 0)
(0.0340937 -2.00557e-06 0)
(0.0340936 -2.78913e-06 0)
(0.0340935 -3.57478e-06 0)
(0.0340933 -4.36081e-06 0)
(0.0340932 -5.1438e-06 0)
(0.034093 -5.9241e-06 0)
(0.0340928 -6.69631e-06 0)
(0.0340927 -7.46102e-06 0)
(0.0340925 -8.21198e-06 0)
(0.0340925 -8.94516e-06 0)
(0.0340925 -9.65874e-06 0)
(0.0340926 -1.03297e-05 0)
(0.0340929 -1.09791e-05 0)
(0.0340934 -1.15262e-05 0)
(0.0340937 -5.2777e-07 0)
(0.0340921 -1.1831e-06 0)
(0.0340921 -1.92557e-06 0)
(0.034092 -2.67687e-06 0)
(0.0340919 -3.42908e-06 0)
(0.0340918 -4.18037e-06 0)
(0.0340916 -4.92666e-06 0)
(0.0340915 -5.66878e-06 0)
(0.0340913 -6.39958e-06 0)
(0.0340912 -7.12135e-06 0)
(0.0340912 -7.82452e-06 0)
(0.0340911 -8.50975e-06 0)
(0.0340912 -9.16882e-06 0)
(0.0340914 -9.79137e-06 0)
(0.0340918 -1.03856e-05 0)
(0.0340924 -1.09016e-05 0)
(0.0340921 -5.06854e-07 0)
(0.0340906 -1.11705e-06 0)
(0.0340906 -1.81733e-06 0)
(0.0340905 -2.52491e-06 0)
(0.0340904 -3.23179e-06 0)
(0.0340903 -3.9361e-06 0)
(0.0340902 -4.63314e-06 0)
(0.0340901 -5.32415e-06 0)
(0.03409 -6.00059e-06 0)
(0.0340899 -6.66648e-06 0)
(0.0340899 -7.30954e-06 0)
(0.0340899 -7.93535e-06 0)
(0.0340901 -8.53032e-06 0)
(0.0340904 -9.09764e-06 0)
(0.0340909 -9.63346e-06 0)
(0.0340916 -1.01203e-05 0)
(0.0340906 -4.78581e-07 0)
(0.0340892 -1.03662e-06 0)
(0.0340892 -1.68551e-06 0)
(0.0340891 -2.33975e-06 0)
(0.034089 -2.99142e-06 0)
(0.0340889 -3.63859e-06 0)
(0.0340889 -4.27614e-06 0)
(0.0340888 -4.90575e-06 0)
(0.0340887 -5.51797e-06 0)
(0.0340887 -6.11863e-06 0)
(0.0340887 -6.69355e-06 0)
(0.0340888 -7.25327e-06 0)
(0.034089 -7.77995e-06 0)
(0.0340894 -8.28982e-06 0)
(0.03409 -8.76808e-06 0)
(0.0340908 -9.22739e-06 0)
(0.0340892 -4.44153e-07 0)
(0.0340879 -9.46489e-07 0)
(0.0340879 -1.53783e-06 0)
(0.0340879 -2.13234e-06 0)
(0.0340878 -2.72223e-06 0)
(0.0340877 -3.30549e-06 0)
(0.0340877 -3.8768e-06 0)
(0.0340876 -4.43827e-06 0)
(0.0340876 -4.98012e-06 0)
(0.0340876 -5.51004e-06 0)
(0.0340877 -6.01276e-06 0)
(0.0340879 -6.50346e-06 0)
(0.0340882 -6.96135e-06 0)
(0.0340886 -7.41402e-06 0)
(0.0340892 -7.8372e-06 0)
(0.0340901 -8.26994e-06 0)
(0.0340879 -4.05582e-07 0)
(0.0340868 -8.5192e-07 0)
(0.0340868 -1.38304e-06 0)
(0.0340868 -1.91518e-06 0)
(0.0340867 -2.44076e-06 0)
(0.0340867 -2.95752e-06 0)
(0.0340867 -3.46007e-06 0)
(0.0340866 -3.95086e-06 0)
(0.0340867 -4.4203e-06 0)
(0.0340867 -4.87771e-06 0)
(0.0340869 -5.30758e-06 0)
(0.0340871 -5.72898e-06 0)
(0.0340874 -6.1197e-06 0)
(0.0340879 -6.51636e-06 0)
(0.0340885 -6.88743e-06 0)
(0.0340894 -7.29356e-06 0)
(0.0340868 -3.65108e-07 0)
(0.0340858 -7.57522e-07 0)
(0.0340858 -1.22885e-06 0)
(0.0340858 -1.69944e-06 0)
(0.0340858 -2.16202e-06 0)
(0.0340858 -2.61392e-06 0)
(0.0340858 -3.04963e-06 0)
(0.0340858 -3.4717e-06 0)
(0.0340859 -3.87103e-06 0)
(0.034086 -4.25815e-06 0)
(0.0340862 -4.61783e-06 0)
(0.0340864 -4.97194e-06 0)
(0.0340868 -5.29836e-06 0)
(0.0340873 -5.64027e-06 0)
(0.034088 -5.96184e-06 0)
(0.0340888 -6.34009e-06 0)
(0.0340859 -3.24697e-07 0)
(0.034085 -6.66729e-07 0)
(0.034085 -1.08089e-06 0)
(0.034085 -1.49318e-06 0)
(0.034085 -1.89688e-06 0)
(0.0340851 -2.28891e-06 0)
(0.0340851 -2.66352e-06 0)
(0.0340852 -3.023e-06 0)
(0.0340853 -3.35884e-06 0)
(0.0340854 -3.68207e-06 0)
(0.0340856 -3.97802e-06 0)
(0.0340859 -4.26979e-06 0)
(0.0340863 -4.53644e-06 0)
(0.0340868 -4.82496e-06 0)
(0.0340875 -5.09891e-06 0)
(0.0340883 -5.44633e-06 0)
(0.034085 -2.85812e-07 0)
(0.0340844 -5.81995e-07 0)
(0.0340844 -9.43014e-07 0)
(0.0340844 -1.30153e-06 0)
(0.0340844 -1.65172e-06 0)
(0.0340845 -1.99044e-06 0)
(0.0340845 -2.31196e-06 0)
(0.0340846 -2.61799e-06 0)
(0.0340848 -2.90034e-06 0)
(0.034085 -3.16975e-06 0)
(0.0340852 -3.4123e-06 0)
(0.0340855 -3.65103e-06 0)
(0.0340859 -3.86644e-06 0)
(0.0340864 -4.10486e-06 0)
(0.034087 -4.33286e-06 0)
(0.0340878 -4.64412e-06 0)
(0.0340844 -2.49512e-07 0)
(0.0340838 -5.05165e-07 0)
(0.0340839 -8.18069e-07 0)
(0.0340839 -1.12803e-06 0)
(0.0340839 -1.43012e-06 0)
(0.034084 -1.7215e-06 0)
(0.0340841 -1.99754e-06 0)
(0.0340843 -2.25991e-06 0)
(0.0340844 -2.5003e-06 0)
(0.0340846 -2.72801e-06 0)
(0.0340849 -2.93033e-06 0)
(0.0340853 -3.13025e-06 0)
(0.0340857 -3.30965e-06 0)
(0.0340861 -3.50713e-06 0)
(0.0340867 -3.69332e-06 0)
(0.0340873 -3.96145e-06 0)
(0.0340838 -2.166e-07 0)