/*--------------------------------*- C++ -*----------------------------------*\
| =========                 |                                                 |
| \\      /  F ield         | foam-extend: Open Source CFD                    |
|  \\    /   O peration     | Version:     4.1-20200408                       |
|   \\  /    A nd           | Web:         http://www.foam-extend.org         |
|    \\/     M anipulation  |                                                 |
\*---------------------------------------------------------------------------*/
FoamFile
{
    version     2.0;
    format      ascii;
    class       regIOobject;
    location    "0.0365000/uniform";
    object      profilingInfo;
}
// * * * * * * * * * * * * * * * * * * * * * * * * * * * * * * * * * * * * * //

profilingInfo
(

    {
        id              10;
        parentId        9;
        description     "Foam::Time::writeObject - outputTime";
        calls           2502;
        totalTime       344.343;
        childTime       0;
        onStack         1;
    }

    {
        id              9;
        parentId        1;
        description     "Foam::Time::writeObject";
        calls           2502;
        totalTime       344.35;
        childTime       344.343;
        onStack         1;
    }

    {
        id              1;
        description     "application::main";
        calls           1;
        totalTime       24243.3;
        childTime       2242.29;
        onStack         1;
    }

    {
        id              8;
        parentId        1;
        description     "FO::drawingForce::execute";
        calls           2501;
        totalTime       0.161328;
        childTime       0;
        onStack         0;
    }

    {
        id              3;
        parentId        2;
        description     "FO::drawingForce::start";
        calls           1;
        totalTime       5.7e-05;
        childTime       0;
        onStack         0;
    }

    {
        id              2;
        parentId        1;
        description     "functionObjectList::read";
        calls           1;
        totalTime       0.000394;
        childTime       5.7e-05;
        onStack         0;
    }

    {
        id              4;
        parentId        1;
        description     "fvMatrix::solve_DU";
        calls           780891;
        totalTime       1897.78;
        childTime       1654.98;
        onStack         0;
    }

    {
        id              5;
        parentId        4;
        description     "lduMatrix::solver_DUx";
        calls           780891;
        totalTime       1162.62;
        childTime       0;
        onStack         0;
    }

    {
        id              6;
        parentId        4;
        description     "lduMatrix::solver_DUy";
        calls           780891;
        totalTime       397.927;
        childTime       0;
        onStack         0;
    }

    {
        id              7;
        parentId        4;
        description     "lduMatrix::solver_DUz";
        calls           780891;
        totalTime       94.439;
        childTime       0;
        onStack         0;
    }
);


// ************************************************************************* //
