/*--------------------------------*- C++ -*----------------------------------*\
| =========                 |                                                 |
| \\      /  F ield         | foam-extend: Open Source CFD                    |
|  \\    /   O peration     | Version:     4.1-20200408                       |
|   \\  /    A nd           | Web:         http://www.foam-extend.org         |
|    \\/     M anipulation  |                                                 |
\*---------------------------------------------------------------------------*/
FoamFile
{
    version     2.0;
    format      ascii;
    class       volScalarField;
    location    "0.0175000";
    object      ccx;
}
// * * * * * * * * * * * * * * * * * * * * * * * * * * * * * * * * * * * * * //

dimensions      [0 1 0 0 0 0 0];

internalField   nonuniform List<scalar> 
1952
(
0.00297177
0.00297177
0.00297176
0.00297175
0.00297174
0.00297172
0.00297171
0.00297168
0.00297166
0.00297164
0.00297161
0.00297158
0.00297156
0.00297153
0.0029715
0.00297178
0.00291852
0.00291852
0.0029185
0.00291848
0.00291845
0.00291842
0.00291838
0.00291834
0.0029183
0.00291825
0.0029182
0.00291814
0.00291809
0.00291803
0.00291798
0.00291853
0.00286848
0.00286847
0.00286845
0.00286843
0.00286841
0.00286838
0.00286834
0.0028683
0.00286825
0.0028682
0.00286815
0.0028681
0.00286804
0.00286799
0.00286795
0.00286849
0.00281843
0.00281842
0.00281841
0.00281839
0.00281836
0.00281833
0.00281829
0.00281825
0.00281821
0.00281816
0.00281811
0.00281805
0.002818
0.00281796
0.00281791
0.00281844
0.00276839
0.00276838
0.00276836
0.00276834
0.00276832
0.00276829
0.00276825
0.00276821
0.00276816
0.00276811
0.00276806
0.00276801
0.00276796
0.00276792
0.00276788
0.0027684
0.00271834
0.00271833
0.00271832
0.0027183
0.00271827
0.00271824
0.0027182
0.00271816
0.00271812
0.00271807
0.00271802
0.00271797
0.00271793
0.00271788
0.00271784
0.00271835
0.0026683
0.00266829
0.00266827
0.00266825
0.00266822
0.00266819
0.00266816
0.00266812
0.00266807
0.00266803
0.00266798
0.00266793
0.00266789
0.00266785
0.00266781
0.00266831
0.00261825
0.00261824
0.00261823
0.00261821
0.00261818
0.00261815
0.00261812
0.00261808
0.00261803
0.00261798
0.00261794
0.00261789
0.00261785
0.00261781
0.00261778
0.00261826
0.00256821
0.0025682
0.00256819
0.00256817
0.00256814
0.00256811
0.00256807
0.00256803
0.00256799
0.00256794
0.0025679
0.00256785
0.00256781
0.00256778
0.00256774
0.00256822
0.00251817
0.00251816
0.00251814
0.00251812
0.00251809
0.00251806
0.00251803
0.00251799
0.00251795
0.00251791
0.00251786
0.00251782
0.00251778
0.00251774
0.00251771
0.00251817
0.00246813
0.00246812
0.0024681
0.00246808
0.00246805
0.00246802
0.00246799
0.00246795
0.00246791
0.00246787
0.00246782
0.00246778
0.00246774
0.00246771
0.00246768
0.00246813
0.00241809
0.00241808
0.00241806
0.00241804
0.00241802
0.00241799
0.00241795
0.00241792
0.00241788
0.00241783
0.00241779
0.00241774
0.00241771
0.00241767
0.00241764
0.00241809
0.00236805
0.00236804
0.00236803
0.00236801
0.00236798
0.00236795
0.00236792
0.00236788
0.00236784
0.0023678
0.00236775
0.00236771
0.00236767
0.00236764
0.00236761
0.00236806
0.00231801
0.002318
0.00231799
0.00231797
0.00231795
0.00231792
0.00231788
0.00231784
0.0023178
0.00231776
0.00231772
0.00231767
0.00231764
0.00231761
0.00231758
0.00231802
0.00226798
0.00226797
0.00226795
0.00226793
0.00226791
0.00226788
0.00226785
0.00226781
0.00226777
0.00226773
0.00226768
0.00226764
0.00226761
0.00226758
0.00226755
0.00226798
0.00221795
0.00221794
0.00221792
0.0022179
0.00221788
0.00221785
0.00221782
0.00221778
0.00221774
0.0022177
0.00221765
0.00221761
0.00221758
0.00221754
0.00221751
0.00221795
0.00216792
0.00216791
0.00216789
0.00216787
0.00216785
0.00216782
0.00216778
0.00216775
0.00216771
0.00216766
0.00216762
0.00216758
0.00216755
0.00216751
0.00216749
0.00216792
0.00211789
0.00211788
0.00211786
0.00211784
0.00211782
0.00211779
0.00211776
0.00211772
0.00211768
0.00211764
0.00211759
0.00211755
0.00211752
0.00211749
0.00211746
0.00211789
0.00206786
0.00206785
0.00206783
0.00206781
0.00206779
0.00206776
0.00206773
0.00206769
0.00206765
0.00206761
0.00206757
0.00206752
0.00206749
0.00206746
0.00206743
0.00206786
0.00201783
0.00201782
0.00201781
0.00201779
0.00201777
0.00201774
0.0020177
0.00201766
0.00201762
0.00201758
0.00201754
0.0020175
0.00201746
0.00201743
0.0020174
0.00201784
0.00196781
0.0019678
0.00196779
0.00196777
0.00196774
0.00196771
0.00196768
0.00196764
0.0019676
0.00196756
0.00196752
0.00196747
0.00196744
0.0019674
0.00196738
0.00196782
0.00191779
0.00191778
0.00191776
0.00191774
0.00191772
0.00191769
0.00191765
0.00191762
0.00191758
0.00191754
0.00191749
0.00191745
0.00191741
0.00191738
0.00191735
0.00191779
0.00186776
0.00186775
0.00186774
0.00186772
0.00186769
0.00186766
0.00186763
0.0018676
0.00186756
0.00186751
0.00186747
0.00186743
0.00186739
0.00186735
0.00186733
0.00186777
0.00181775
0.00181774
0.00181772
0.0018177
0.00181767
0.00181764
0.00181761
0.00181758
0.00181753
0.00181749
0.00181745
0.0018174
0.00181737
0.00181733
0.0018173
0.00181775
0.00176773
0.00176772
0.0017677
0.00176768
0.00176766
0.00176763
0.00176759
0.00176756
0.00176751
0.00176747
0.00176742
0.00176738
0.00176734
0.00176731
0.00176728
0.00176774
0.00171771
0.0017177
0.00171769
0.00171767
0.00171764
0.00171761
0.00171758
0.00171754
0.00171749
0.00171745
0.0017174
0.00171736
0.00171732
0.00171729
0.00171726
0.00171772
0.0016677
0.00166769
0.00166767
0.00166765
0.00166763
0.0016676
0.00166756
0.00166752
0.00166748
0.00166743
0.00166739
0.00166734
0.0016673
0.00166727
0.00166724
0.00166771
0.00161769
0.00161768
0.00161766
0.00161764
0.00161761
0.00161758
0.00161754
0.0016175
0.00161746
0.00161742
0.00161737
0.00161733
0.00161729
0.00161725
0.00161722
0.00161769
0.00156768
0.00156767
0.00156765
0.00156763
0.0015676
0.00156757
0.00156753
0.00156749
0.00156745
0.0015674
0.00156735
0.00156731
0.00156727
0.00156723
0.00156721
0.00156768
0.00151767
0.00151766
0.00151764
0.00151762
0.00151759
0.00151756
0.00151752
0.00151748
0.00151743
0.00151739
0.00151734
0.00151729
0.00151725
0.00151722
0.00151719
0.00151768
0.00146767
0.00146766
0.00146764
0.00146761
0.00146758
0.00146755
0.00146751
0.00146747
0.00146742
0.00146737
0.00146732
0.00146728
0.00146724
0.0014672
0.00146717
0.00146767
0.00141766
0.00141765
0.00141763
0.00141761
0.00141758
0.00141754
0.0014175
0.00141746
0.00141741
0.00141736
0.00141731
0.00141726
0.00141722
0.00141719
0.00141716
0.00141767
0.00136766
0.00136765
0.00136763
0.0013676
0.00136757
0.00136754
0.0013675
0.00136745
0.0013674
0.00136735
0.0013673
0.00136725
0.00136721
0.00136717
0.00136714
0.00136767
0.00131766
0.00131765
0.00131763
0.0013176
0.00131757
0.00131754
0.00131749
0.00131744
0.00131739
0.00131734
0.00131729
0.00131724
0.00131719
0.00131716
0.00131713
0.00131767
0.00126767
0.00126766
0.00126764
0.00126761
0.00126758
0.00126754
0.00126749
0.00126744
0.00126739
0.00126733
0.00126728
0.00126723
0.00126718
0.00126714
0.00126711
0.00126768
0.00121768
0.00121766
0.00121764
0.00121761
0.00121758
0.00121754
0.00121749
0.00121744
0.00121738
0.00121733
0.00121727
0.00121722
0.00121717
0.00121713
0.0012171
0.00121768
0.00116769
0.00116767
0.00116765
0.00116762
0.00116758
0.00116754
0.00116749
0.00116744
0.00116738
0.00116732
0.00116726
0.0011672
0.00116715
0.00116711
0.00116708
0.0011677
0.0011177
0.00111768
0.00111766
0.00111763
0.00111759
0.00111755
0.0011175
0.00111744
0.00111738
0.00111732
0.00111725
0.00111719
0.00111714
0.0011171
0.00111707
0.00111771
0.00106772
0.0010677
0.00106768
0.00106764
0.0010676
0.00106756
0.0010675
0.00106744
0.00106738
0.00106731
0.00106725
0.00106718
0.00106713
0.00106708
0.00106704
0.00106773
0.00101774
0.00101772
0.00101769
0.00101766
0.00101762
0.00101757
0.00101751
0.00101745
0.00101738
0.00101731
0.00101724
0.00101717
0.00101711
0.00101706
0.00101702
0.00101774
0.000967759
0.000967741
0.000967715
0.00096768
0.000967636
0.000967584
0.000967525
0.000967458
0.000967387
0.000967313
0.000967238
0.000967165
0.0009671
0.000967045
0.000967002
0.000967768
0.000917783
0.000917765
0.000917737
0.0009177
0.000917655
0.000917601
0.000917538
0.000917468
0.000917393
0.000917314
0.000917234
0.000917156
0.000917085
0.000917025
0.000916978
0.000917792
0.000867808
0.000867789
0.000867761
0.000867723
0.000867675
0.000867619
0.000867554
0.00086748
0.000867401
0.000867317
0.000867231
0.000867147
0.00086707
0.000867004
0.000866951
0.000867818
0.000817834
0.000817814
0.000817785
0.000817746
0.000817697
0.000817638
0.00081757
0.000817494
0.00081741
0.000817321
0.00081723
0.000817139
0.000817055
0.000816982
0.000816921
0.000817844
0.000767859
0.000767839
0.000767809
0.000767769
0.000767719
0.000767658
0.000767588
0.000767508
0.000767421
0.000767326
0.000767229
0.000767131
0.000767039
0.000766957
0.000766888
0.000767869
0.000717881
0.000717861
0.000717831
0.00071779
0.000717739
0.000717678
0.000717605
0.000717523
0.000717431
0.000717333
0.000717229
0.000717123
0.000717022
0.00071693
0.00071685
0.000717891
0.000667899
0.000667879
0.000667849
0.000667808
0.000667757
0.000667695
0.000667621
0.000667537
0.000667442
0.000667339
0.000667229
0.000667116
0.000667004
0.000666901
0.000666808
0.000667909
0.000617911
0.000617891
0.000617861
0.000617821
0.00061777
0.000617708
0.000617634
0.000617548
0.000617452
0.000617345
0.000617229
0.000617108
0.000616987
0.00061687
0.000616761
0.000617921
0.000567914
0.000567895
0.000567866
0.000567827
0.000567777
0.000567715
0.000567642
0.000567557
0.000567459
0.00056735
0.00056723
0.000567101
0.000566969
0.000566837
0.00056671
0.000567923
0.000517905
0.000517887
0.000517859
0.000517821
0.000517773
0.000517713
0.000517642
0.000517558
0.000517461
0.00051735
0.000517227
0.000517093
0.00051695
0.000516803
0.000516653
0.000517914
0.000467881
0.000467864
0.000467837
0.000467802
0.000467756
0.000467699
0.00046763
0.000467549
0.000467453
0.000467344
0.00046722
0.000467081
0.00046693
0.000466768
0.000466592
0.00046789
0.000417839
0.000417823
0.000417799
0.000417765
0.000417722
0.000417669
0.000417604
0.000417526
0.000417434
0.000417327
0.000417204
0.000417063
0.000416906
0.000416729
0.000416529
0.000417847
0.000367777
0.000367763
0.00036774
0.000367709
0.000367669
0.000367619
0.000367558
0.000367485
0.000367398
0.000367295
0.000367175
0.000367035
0.000366873
0.000366686
0.000366463
0.000367785
0.000317694
0.00031768
0.000317659
0.00031763
0.000317594
0.000317548
0.000317491
0.000317423
0.000317341
0.000317244
0.000317129
0.000316993
0.000316831
0.000316637
0.000316398
0.000317701
0.000267587
0.000267574
0.000267555
0.000267528
0.000267494
0.000267452
0.0002674
0.000267337
0.000267261
0.000267171
0.000267063
0.000266934
0.000266776
0.000266582
0.000266334
0.000267593
0.000217456
0.000217445
0.000217426
0.000217401
0.000217369
0.00021733
0.000217282
0.000217224
0.000217154
0.000217072
0.000216973
0.000216853
0.000216706
0.000216519
0.000216274
0.000217462
0.000167303
0.000167291
0.000167274
0.00016725
0.00016722
0.000167182
0.000167137
0.000167084
0.00016702
0.000166945
0.000166856
0.000166749
0.000166617
0.000166447
0.000166218
0.000167309
0.000117129
0.000117117
0.0001171
0.000117077
0.000117047
0.000117011
0.000116968
0.000116917
0.000116858
0.00011679
0.000116711
0.000116619
0.000116507
0.000116365
0.000116169
0.000117134
6.69366e-05
6.69251e-05
6.69076e-05
6.68839e-05
6.68542e-05
6.68183e-05
6.67761e-05
6.67275e-05
6.66721e-05
6.66106e-05
6.65415e-05
6.64643e-05
6.63759e-05
6.62702e-05
6.61268e-05
6.69425e-05
1.67316e-05
1.67196e-05
1.67016e-05
1.66775e-05
1.66472e-05
1.66109e-05
1.65688e-05
1.65211e-05
1.64686e-05
1.64119e-05
1.63519e-05
1.62898e-05
1.62268e-05
1.61646e-05
1.60917e-05
1.67377e-05
-3.34821e-05
-3.34944e-05
-3.35131e-05
-3.35378e-05
-3.35688e-05
-3.36054e-05
-3.36475e-05
-3.36943e-05
-3.37445e-05
-3.37961e-05
-3.38464e-05
-3.38914e-05
-3.39248e-05
-3.39373e-05
-3.39302e-05
-3.34757e-05
-8.36989e-05
-8.37118e-05
-8.37307e-05
-8.37556e-05
-8.37864e-05
-8.38228e-05
-8.38638e-05
-8.39083e-05
-8.39538e-05
-8.39973e-05
-8.4034e-05
-8.40563e-05
-8.40536e-05
-8.40143e-05
-8.39345e-05
-8.36926e-05
-0.000133912
-0.000133924
-0.000133943
-0.000133967
-0.000133997
-0.000134031
-0.000134068
-0.000134107
-0.000134143
-0.000134173
-0.000134189
-0.000134182
-0.000134141
-0.000134058
-0.00013393
-0.000133905
-0.00018411
-0.000184122
-0.000184139
-0.000184161
-0.000184188
-0.000184217
-0.000184247
-0.000184275
-0.000184297
-0.000184306
-0.000184297
-0.000184259
-0.000184187
-0.000184078
-0.000183925
-0.000184104
-0.000234285
-0.000234295
-0.000234309
-0.000234327
-0.000234348
-0.000234369
-0.000234388
-0.0002344
-0.000234403
-0.00023439
-0.000234355
-0.000234294
-0.000234205
-0.000234083
-0.000233924
-0.00023428
-0.000284426
-0.000284433
-0.000284443
-0.000284454
-0.000284466
-0.000284476
-0.00028448
-0.000284476
-0.000284459
-0.000284428
-0.000284376
-0.000284304
-0.000284207
-0.000284082
-0.000283923
-0.000284423
-0.000334525
-0.000334528
-0.000334532
-0.000334535
-0.000334537
-0.000334535
-0.000334526
-0.000334509
-0.00033448
-0.000334437
-0.000334378
-0.0003343
-0.0003342
-0.000334075
-0.000333919
-0.000334523
-0.000384578
-0.000384578
-0.000384578
-0.000384574
-0.000384568
-0.000384557
-0.000384541
-0.000384516
-0.00038448
-0.000384431
-0.000384367
-0.000384286
-0.000384184
-0.00038406
-0.000383911
-0.000384578
-0.000434598
-0.000434596
-0.000434592
-0.000434585
-0.000434574
-0.000434558
-0.000434535
-0.000434504
-0.000434463
-0.00043441
-0.000434343
-0.00043426
-0.000434159
-0.000434039
-0.000433897
-0.000434599
-0.000484595
-0.000484591
-0.000484584
-0.000484574
-0.000484559
-0.000484538
-0.000484512
-0.000484476
-0.000484431
-0.000484376
-0.000484307
-0.000484224
-0.000484125
-0.00048401
-0.000483876
-0.000484597
-0.000534572
-0.000534566
-0.000534557
-0.000534544
-0.000534526
-0.000534502
-0.000534472
-0.000534434
-0.000534386
-0.000534329
-0.00053426
-0.000534178
-0.000534083
-0.000533973
-0.000533848
-0.000534575
-0.00058453
-0.000584523
-0.000584512
-0.000584498
-0.000584477
-0.000584451
-0.000584418
-0.000584378
-0.000584329
-0.000584271
-0.000584202
-0.000584123
-0.000584031
-0.000583928
-0.000583811
-0.000584534
-0.000634472
-0.000634464
-0.000634452
-0.000634435
-0.000634413
-0.000634386
-0.000634352
-0.00063431
-0.000634261
-0.000634203
-0.000634136
-0.000634059
-0.000633972
-0.000633875
-0.000633767
-0.000634476
-0.000684398
-0.00068439
-0.000684377
-0.000684359
-0.000684337
-0.000684308
-0.000684273
-0.000684231
-0.000684182
-0.000684125
-0.00068406
-0.000683987
-0.000683905
-0.000683814
-0.000683715
-0.000684403
-0.000734312
-0.000734303
-0.00073429
-0.000734271
-0.000734248
-0.000734219
-0.000734184
-0.000734143
-0.000734094
-0.000734039
-0.000733977
-0.000733907
-0.00073383
-0.000733746
-0.000733655
-0.000734317
-0.000784214
-0.000784205
-0.000784191
-0.000784173
-0.000784149
-0.00078412
-0.000784086
-0.000784045
-0.000783998
-0.000783945
-0.000783886
-0.00078382
-0.000783748
-0.00078367
-0.000783586
-0.000784219
-0.000834106
-0.000834097
-0.000834083
-0.000834065
-0.000834041
-0.000834013
-0.000833979
-0.00083394
-0.000833894
-0.000833844
-0.000833788
-0.000833726
-0.000833659
-0.000833587
-0.00083351
-0.000834111
-0.000883989
-0.00088398
-0.000883966
-0.000883948
-0.000883925
-0.000883897
-0.000883865
-0.000883827
-0.000883784
-0.000883736
-0.000883683
-0.000883625
-0.000883563
-0.000883497
-0.000883426
-0.000883993
-0.000933863
-0.000933855
-0.000933842
-0.000933824
-0.000933802
-0.000933775
-0.000933743
-0.000933707
-0.000933667
-0.000933621
-0.000933572
-0.000933517
-0.00093346
-0.000933399
-0.000933334
-0.000933868
-0.000983732
-0.000983723
-0.000983711
-0.000983695
-0.000983672
-0.000983646
-0.000983616
-0.000983581
-0.000983543
-0.000983501
-0.000983455
-0.000983404
-0.000983351
-0.000983295
-0.000983234
-0.000983737
-0.00103359
-0.00103359
-0.00103358
-0.00103356
-0.00103354
-0.00103351
-0.00103348
-0.00103345
-0.00103342
-0.00103338
-0.00103333
-0.00103329
-0.00103324
-0.00103318
-0.00103313
-0.0010336
-0.00108345
-0.00108344
-0.00108343
-0.00108342
-0.0010834
-0.00108337
-0.00108335
-0.00108332
-0.00108328
-0.00108325
-0.00108321
-0.00108316
-0.00108312
-0.00108307
-0.00108302
-0.00108345
-0.0011333
-0.00113329
-0.00113328
-0.00113327
-0.00113325
-0.00113323
-0.0011332
-0.00113318
-0.00113315
-0.00113311
-0.00113307
-0.00113303
-0.00113299
-0.00113294
-0.0011329
-0.00113331
-0.00118315
-0.00118314
-0.00118313
-0.00118312
-0.0011831
-0.00118308
-0.00118306
-0.00118303
-0.001183
-0.00118297
-0.00118293
-0.0011829
-0.00118286
-0.00118282
-0.00118278
-0.00118315
-0.00123299
-0.00123299
-0.00123298
-0.00123296
-0.00123294
-0.00123293
-0.00123291
-0.00123288
-0.00123285
-0.00123282
-0.00123279
-0.00123276
-0.00123272
-0.00123268
-0.00123265
-0.00123299
-0.00128283
-0.00128282
-0.00128282
-0.0012828
-0.00128279
-0.00128277
-0.00128275
-0.00128273
-0.0012827
-0.00128267
-0.00128264
-0.00128261
-0.00128258
-0.00128255
-0.00128251
-0.00128283
-0.00133266
-0.00133266
-0.00133265
-0.00133264
-0.00133263
-0.00133261
-0.00133259
-0.00133257
-0.00133255
-0.00133252
-0.00133249
-0.00133246
-0.00133243
-0.0013324
-0.00133237
-0.00133267
-0.0013825
-0.00138249
-0.00138248
-0.00138247
-0.00138246
-0.00138245
-0.00138243
-0.00138241
-0.00138239
-0.00138236
-0.00138234
-0.00138231
-0.00138228
-0.00138225
-0.00138222
-0.0013825
-0.00143233
-0.00143232
-0.00143231
-0.0014323
-0.00143229
-0.00143228
-0.00143226
-0.00143225
-0.00143222
-0.0014322
-0.00143218
-0.00143216
-0.00143213
-0.0014321
-0.00143207
-0.00143233
-0.00148215
-0.00148215
-0.00148214
-0.00148213
-0.00148212
-0.00148211
-0.00148209
-0.00148208
-0.00148206
-0.00148204
-0.00148202
-0.00148199
-0.00148197
-0.00148195
-0.00148192
-0.00148215
-0.00153197
-0.00153197
-0.00153197
-0.00153196
-0.00153195
-0.00153193
-0.00153192
-0.0015319
-0.00153189
-0.00153187
-0.00153185
-0.00153183
-0.00153181
-0.00153178
-0.00153176
-0.00153198
-0.00158179
-0.00158179
-0.00158179
-0.00158178
-0.00158177
-0.00158176
-0.00158174
-0.00158173
-0.00158171
-0.0015817
-0.00158168
-0.00158166
-0.00158164
-0.00158162
-0.00158159
-0.0015818
-0.00163161
-0.00163161
-0.0016316
-0.0016316
-0.00163159
-0.00163158
-0.00163157
-0.00163155
-0.00163154
-0.00163152
-0.00163151
-0.00163149
-0.00163147
-0.00163145
-0.00163143
-0.00163161
-0.00168143
-0.00168142
-0.00168142
-0.00168141
-0.00168141
-0.0016814
-0.00168139
-0.00168137
-0.00168136
-0.00168135
-0.00168133
-0.00168131
-0.00168129
-0.00168128
-0.00168126
-0.00168143
-0.00173124
-0.00173124
-0.00173123
-0.00173123
-0.00173122
-0.00173121
-0.0017312
-0.00173119
-0.00173118
-0.00173116
-0.00173115
-0.00173113
-0.00173112
-0.0017311
-0.00173108
-0.00173124
-0.00178105
-0.00178105
-0.00178104
-0.00178104
-0.00178103
-0.00178102
-0.00178101
-0.001781
-0.00178099
-0.00178098
-0.00178097
-0.00178095
-0.00178094
-0.00178092
-0.0017809
-0.00178105
-0.00183086
-0.00183085
-0.00183085
-0.00183084
-0.00183084
-0.00183083
-0.00183082
-0.00183081
-0.0018308
-0.00183079
-0.00183078
-0.00183077
-0.00183075
-0.00183074
-0.00183072
-0.00183086
-0.00188066
-0.00188066
-0.00188065
-0.00188065
-0.00188064
-0.00188064
-0.00188063
-0.00188062
-0.00188061
-0.0018806
-0.00188059
-0.00188058
-0.00188056
-0.00188055
-0.00188053
-0.00188066
-0.00193046
-0.00193046
-0.00193045
-0.00193045
-0.00193045
-0.00193044
-0.00193043
-0.00193043
-0.00193042
-0.00193041
-0.0019304
-0.00193038
-0.00193037
-0.00193036
-0.00193034
-0.00193046
-0.00198026
-0.00198026
-0.00198025
-0.00198025
-0.00198024
-0.00198024
-0.00198023
-0.00198023
-0.00198022
-0.00198021
-0.0019802
-0.00198019
-0.00198018
-0.00198016
-0.00198015
-0.00198026
-0.00203005
-0.00203005
-0.00203005
-0.00203004
-0.00203004
-0.00203004
-0.00203003
-0.00203002
-0.00203002
-0.00203001
-0.00203
-0.00202999
-0.00202998
-0.00202997
-0.00202995
-0.00203006
-0.00207985
-0.00207985
-0.00207984
-0.00207984
-0.00207984
-0.00207983
-0.00207982
-0.00207982
-0.00207981
-0.00207981
-0.0020798
-0.00207979
-0.00207978
-0.00207977
-0.00207975
-0.00207985
-0.00212964
-0.00212964
-0.00212963
-0.00212963
-0.00212963
-0.00212962
-0.00212962
-0.00212961
-0.00212961
-0.0021296
-0.00212959
-0.00212958
-0.00212957
-0.00212956
-0.00212955
-0.00212964
-0.00217942
-0.00217942
-0.00217942
-0.00217942
-0.00217941
-0.00217941
-0.00217941
-0.0021794
-0.0021794
-0.00217939
-0.00217938
-0.00217937
-0.00217936
-0.00217935
-0.00217934
-0.00217942
-0.00222921
-0.0022292
-0.0022292
-0.0022292
-0.0022292
-0.00222919
-0.00222919
-0.00222919
-0.00222918
-0.00222918
-0.00222917
-0.00222916
-0.00222915
-0.00222914
-0.00222913
-0.00222921
-0.00227899
-0.00227898
-0.00227898
-0.00227898
-0.00227898
-0.00227898
-0.00227897
-0.00227897
-0.00227897
-0.00227896
-0.00227895
-0.00227895
-0.00227894
-0.00227893
-0.00227892
-0.00227899
-0.00232877
-0.00232876
-0.00232876
-0.00232876
-0.00232876
-0.00232876
-0.00232875
-0.00232875
-0.00232875
-0.00232874
-0.00232874
-0.00232873
-0.00232873
-0.00232872
-0.00232871
-0.00232877
-0.00237854
-0.00237854
-0.00237854
-0.00237854
-0.00237854
-0.00237853
-0.00237853
-0.00237853
-0.00237852
-0.00237852
-0.00237852
-0.00237851
-0.00237851
-0.0023785
-0.00237849
-0.00237854
-0.00242832
-0.00242832
-0.00242832
-0.00242831
-0.00242831
-0.00242831
-0.00242831
-0.0024283
-0.0024283
-0.0024283
-0.00242829
-0.00242829
-0.00242828
-0.00242827
-0.00242827
-0.00242832
-0.00247809
-0.00247809
-0.00247809
-0.00247809
-0.00247808
-0.00247808
-0.00247808
-0.00247808
-0.00247807
-0.00247807
-0.00247807
-0.00247806
-0.00247805
-0.00247805
-0.00247804
-0.00247809
-0.00252785
-0.00252785
-0.00252785
-0.00252785
-0.00252785
-0.00252785
-0.00252785
-0.00252785
-0.00252784
-0.00252784
-0.00252784
-0.00252783
-0.00252783
-0.00252782
-0.00252781
-0.00252785
-0.00257762
-0.00257762
-0.00257762
-0.00257762
-0.00257761
-0.00257761
-0.00257761
-0.00257761
-0.00257761
-0.00257761
-0.0025776
-0.0025776
-0.0025776
-0.00257759
-0.00257758
-0.00257762
-0.00262738
-0.00262738
-0.00262738
-0.00262738
-0.00262738
-0.00262737
-0.00262737
-0.00262737
-0.00262737
-0.00262737
-0.00262737
-0.00262736
-0.00262736
-0.00262736
-0.00262735
-0.00262738
-0.00267714
-0.00267714
-0.00267714
-0.00267714
-0.00267714
-0.00267713
-0.00267713
-0.00267713
-0.00267713
-0.00267713
-0.00267713
-0.00267713
-0.00267712
-0.00267712
-0.00267712
-0.00267714
-0.0027269
-0.0027269
-0.0027269
-0.00272689
-0.00272689
-0.00272689
-0.00272689
-0.00272689
-0.00272689
-0.00272689
-0.00272689
-0.00272689
-0.00272688
-0.00272688
-0.00272688
-0.0027269
-0.00277665
-0.00277665
-0.00277665
-0.00277665
-0.00277665
-0.00277665
-0.00277665
-0.00277665
-0.00277665
-0.00277665
-0.00277665
-0.00277664
-0.00277664
-0.00277664
-0.00277664
-0.00277665
-0.0028264
-0.0028264
-0.0028264
-0.0028264
-0.0028264
-0.0028264
-0.0028264
-0.0028264
-0.0028264
-0.0028264
-0.0028264
-0.0028264
-0.0028264
-0.0028264
-0.00282639
-0.0028264
-0.00287615
-0.00287615
-0.00287615
-0.00287615
-0.00287615
-0.00287615
-0.00287615
-0.00287615
-0.00287615
-0.00287615
-0.00287615
-0.00287615
-0.00287615
-0.00287615
-0.00287615
-0.00287615
-0.0029259
-0.00292589
-0.0029259
-0.0029259
-0.0029259
-0.0029259
-0.0029259
-0.00292589
-0.0029259
-0.0029259
-0.0029259
-0.0029259
-0.0029259
-0.0029259
-0.0029259
-0.0029259
-0.00297565
-0.00297564
-0.00297565
-0.00297565
-0.00297565
-0.00297565
-0.00297565
-0.00297565
-0.00297564
-0.00297564
-0.00297565
-0.00297565
-0.00297564
-0.00297565
-0.00297565
-0.00297565
-0.00302539
-0.00302539
-0.00302539
-0.00302539
-0.00302539
-0.00302539
-0.00302539
-0.00302539
-0.00302539
-0.00302539
-0.00302539
-0.00302539
-0.00302539
-0.00302539
-0.00302539
-0.00302539
-0.00307513
-0.00307513
-0.00307513
-0.00307513
-0.00307513
-0.00307513
-0.00307513
-0.00307513
-0.00307513
-0.00307513
-0.00307513
-0.00307513
-0.00307513
-0.00307513
-0.00307513
-0.00307513
)
;

boundaryField
{
    wireUpstream
    {
        type            calculated;
        value           nonuniform List<scalar> 
16
(
-0.0031
-0.0031
-0.0031
-0.0031
-0.0031
-0.0031
-0.0031
-0.0031
-0.0031
-0.0031
-0.0031
-0.0031
-0.0031
-0.0031
-0.0031
-0.0031
)
;
    }
    wireDownstream
    {
        type            calculated;
        value           nonuniform List<scalar> 
16
(
0.003
0.003
0.003
0.003
0.003
0.003
0.003
0.003
0.003
0.003
0.003
0.003
0.003
0.003
0.003
0.003
)
;
    }
    wireTopContact
    {
        type            calculated;
        value           nonuniform List<scalar> 
122
(
0.00291796
0.00286793
0.0028179
0.00276786
0.00271783
0.0026678
0.00261776
0.00256773
0.0025177
0.00246767
0.00241763
0.0023676
0.00231757
0.00226754
0.00221751
0.00216747
0.00211744
0.00206741
0.00201739
0.00196736
0.00191734
0.00186731
0.00181729
0.00176727
0.00171725
0.00166723
0.00161721
0.00156719
0.00151718
0.00146716
0.00141714
0.00136713
0.00131711
0.0012671
0.00121709
0.00116707
0.00111705
0.00106703
0.00101701
0.000966984
0.000916957
0.000866928
0.000816895
0.000766857
0.000716814
0.000666765
0.00061671
0.000566648
0.000516578
0.000466502
0.000416423
0.000366343
0.000316266
0.000266195
0.000216133
0.000166084
0.000116052
6.60401e-05
1.60495e-05
-3.39216e-05
-8.3884e-05
-0.000133854
-0.000183838
-0.000233834
-0.000283835
-0.000333834
-0.00038383
-0.000433821
-0.000483804
-0.000533781
-0.00058375
-0.000633711
-0.000683664
-0.000733607
-0.000783543
-0.00083347
-0.000883389
-0.0009333
-0.000983202
-0.0010331
-0.00108299
-0.00113288
-0.00118276
-0.00123263
-0.00128249
-0.00133235
-0.00138221
-0.00143206
-0.0014819
-0.00153174
-0.00158158
-0.00163142
-0.00168125
-0.00173107
-0.00178089
-0.00183071
-0.00188053
-0.00193034
-0.00198014
-0.00202994
-0.00207974
-0.00212954
-0.00217934
-0.00222913
-0.00227892
-0.0023287
-0.00237848
-0.00242826
-0.00247804
-0.00252781
-0.00257758
-0.00262735
-0.00267711
-0.00272687
-0.00277663
-0.00282639
-0.00287615
-0.0029259
-0.00297564
-0.00302539
-0.00307513
0.00297149
)
;
    }
    front
    {
        type            wedge;
    }
    back
    {
        type            wedge;
    }
}


// ************************************************************************* //
