/*--------------------------------*- C++ -*----------------------------------*\
| =========                 |                                                 |
| \\      /  F ield         | foam-extend: Open Source CFD                    |
|  \\    /   O peration     | Version:     4.1-20200408                       |
|   \\  /    A nd           | Web:         http://www.foam-extend.org         |
|    \\/     M anipulation  |                                                 |
\*---------------------------------------------------------------------------*/
FoamFile
{
    version     2.0;
    format      ascii;
    class       volScalarField;
    location    "0.0175000";
    object      ccz;
}
// * * * * * * * * * * * * * * * * * * * * * * * * * * * * * * * * * * * * * //

dimensions      [0 1 0 0 0 0 0];

internalField   nonuniform List<scalar> 
1952
(
8.3326e-13
4.16687e-12
-1.78633e-12
-1.89816e-11
-1.21199e-11
1.28213e-11
1.22205e-11
-1.27466e-11
-1.2279e-11
1.26999e-11
1.23164e-11
-2.5337e-11
-2.4687e-11
1.26457e-11
1.23635e-11
3.31647e-12
8.33315e-13
4.16665e-12
-1.78573e-12
-1.89819e-11
-1.21219e-11
1.28212e-11
1.22224e-11
-1.27449e-11
4.39092e-13
2.5e-11
1.23195e-11
-1.26673e-11
-1.23462e-11
1.21553e-21
-1.38078e-21
3.31647e-12
1.11113e-12
5.33333e-12
-4.76177e-13
-1.77773e-11
-1.21206e-11
1.28199e-11
1.22221e-11
-7.40661e-23
2.54377e-11
2.46032e-11
-1.53296e-21
-5.03679e-22
-1.67895e-21
5.20961e-22
-9.74681e-22
1.64985e-12
-2.7777e-13
4.16668e-12
-4.76177e-13
-1.77782e-11
-1.21218e-11
1.28211e-11
1.22224e-11
-1.27445e-11
1.31592e-11
2.46032e-11
1.64255e-22
-1.26666e-11
-1.23456e-11
1.26433e-11
1.23655e-11
1.64975e-12
-2.77777e-13
4.16665e-12
-4.76177e-13
-1.77774e-11
7.58376e-13
1.21798e-11
8.3958e-23
-2.5491e-11
8.7548e-13
2.46032e-11
-1.2047e-21
-1.26667e-11
3.08583e-13
2.5e-11
1.23656e-11
1.64985e-12
1.95409e-22
5.33333e-12
-4.76178e-13
-1.77781e-11
7.5757e-13
1.21795e-11
-2.93808e-22
-1.27448e-11
1.31591e-11
3.73019e-11
1.23188e-11
-1.26667e-11
3.07908e-13
2.5e-11
1.23655e-11
-1.68659e-14
4.10902e-23
5.33333e-12
-4.7618e-13
-4.81499e-12
1.28787e-11
2.49999e-11
1.22222e-11
-3.33398e-22
2.54386e-11
3.73012e-11
1.23192e-11
-2.53333e-11
-2.46913e-11
2.52874e-11
1.20979e-11
-1.68644e-14
-1.38888e-12
4.16667e-12
-4.76181e-13
-4.81482e-12
1.28788e-11
2.50001e-11
1.22227e-11
-4.0745e-22
2.54378e-11
3.73016e-11
1.23188e-11
-2.53333e-11
-2.46913e-11
2.52866e-11
1.20954e-11
-1.68651e-14
-2.77769e-12
3.00024e-12
-4.7585e-13
-4.81465e-12
-7.15482e-22
1.28201e-11
1.22218e-11
6.66745e-22
2.54386e-11
3.73016e-11
-3.62287e-13
-2.5e-11
3.07826e-13
2.5e-11
1.2366e-11
-1.68636e-14
-1.38889e-12
4.16666e-12
-4.76512e-13
-1.77775e-11
7.57572e-13
2.5e-11
1.22223e-11
-1.48181e-22
2.54386e-11
2.4604e-11
-2.53631e-11
-2.46675e-11
2.53095e-11
2.47134e-11
-1.21859e-21
-1.68637e-14
-1.17236e-22
5.33317e-12
-1.7857e-12
-1.89814e-11
7.57575e-13
2.5e-11
1.22226e-11
-1.27451e-11
4.39434e-13
1.23016e-11
-1.26812e-11
-2.5e-11
3.07858e-13
1.23559e-11
-2.43694e-22
-1.68634e-14
-2.77694e-13
4.16687e-12
-1.78533e-12
-6.01832e-12
-5.72566e-23
2.56418e-11
2.44445e-11
-2.54902e-11
-2.45622e-11
1.67958e-21
1.47877e-21
-1.26667e-11
3.09509e-13
2.5e-11
-2.69748e-13
1.6498e-12
-5.5571e-13
2.99975e-12
-1.78608e-12
-6.01873e-12
5.15301e-22
2.56402e-11
1.16655e-11
-3.77451e-11
-2.45614e-11
5.39874e-22
-3.28612e-22
2.0152e-22
2.53079e-11
5e-11
1.20966e-11
3.31641e-12
-2.77774e-13
4.16667e-12
-1.7857e-12
-6.01852e-12
-5.72566e-23
2.56418e-11
1.16679e-11
-3.77451e-11
-2.45614e-11
5.99858e-23
-1.15014e-21
-4.03121e-22
2.53087e-11
3.73563e-11
1.23655e-11
1.6498e-12
1.11111e-12
5.33333e-12
-4.76181e-13
-4.81482e-12
-2.57653e-22
1.28201e-11
1.22222e-11
-1.2745e-11
4.38602e-13
1.23016e-11
-5.47748e-22
-1.26667e-11
1.2963e-11
2.47117e-11
1.5434e-21
1.64981e-12
1.11111e-12
4e-12
-2.97619e-12
-1.89815e-11
7.57573e-13
1.21795e-11
-3.35909e-22
-7.4099e-23
2.54394e-11
2.4604e-11
6.57304e-22
-2.53333e-11
6.19017e-13
2.47134e-11
-1.94975e-21
1.6498e-12
1.11111e-12
4e-12
-4.28571e-12
-2.01852e-11
7.57569e-13
2.5e-11
1.22222e-11
-1.27451e-11
4.3858e-13
2.5e-11
-3.62308e-13
-2.5e-11
3.07843e-13
2.5e-11
1.23651e-11
1.64981e-12
1.11111e-12
5.33333e-12
-1.7857e-12
-6.01852e-12
-1.71783e-22
1.28205e-11
1.22226e-11
-1.27455e-11
-1.22811e-11
1.26988e-11
-3.62308e-13
-1.23333e-11
1.86616e-22
2.52874e-11
2.47311e-11
1.6498e-12
1.11111e-12
5.33333e-12
-4.7618e-13
-4.81482e-12
1.28784e-11
1.21791e-11
-6.71881e-22
9.63365e-22
1.27193e-11
1.2302e-11
-2.19122e-22
4.03124e-22
7.46466e-22
2.52874e-11
2.47311e-11
1.64981e-12
8.33338e-13
2.83333e-12
-2.97619e-12
-6.01852e-12
1.28792e-11
2.5e-11
1.22218e-11
-1.2745e-11
4.38488e-13
2.5e-11
1.23193e-11
-1.26667e-11
-1.23452e-11
1.26437e-11
1.23659e-11
3.31647e-12
-2.77693e-13
1.50012e-12
-4.16637e-12
-6.01831e-12
-3.43599e-22
1.28209e-11
1.22226e-11
-1.27451e-11
4.38509e-13
2.5e-11
-3.63138e-13
-2.5e-11
3.07932e-13
1.23562e-11
5.6872e-22
1.64983e-12
1.11107e-12
3.99988e-12
-1.66695e-12
-4.81498e-12
1.28793e-11
1.21799e-11
-3.36006e-22
-1.27451e-11
1.31579e-11
2.46024e-11
-1.26807e-11
-1.23333e-11
2.53095e-11
2.47126e-11
4.0623e-22
1.64978e-12
2.22223e-12
5.33333e-12
-4.76179e-13
-4.81482e-12
1.28788e-11
2.5e-11
1.22222e-11
-1.27451e-11
4.39407e-13
1.2302e-11
-2.19143e-22
-1.26667e-11
3.08659e-13
1.23563e-11
2.03114e-21
3.31647e-12
8.33458e-13
2.83349e-12
-1.66666e-12
-4.81482e-12
1.28788e-11
2.5e-11
1.22222e-11
-5.92965e-22
1.27193e-11
1.23016e-11
1.3695e-21
-1.26667e-11
-1.23461e-11
1.26438e-11
1.23655e-11
3.31653e-12
-5.55708e-13
1.66646e-12
-1.66666e-12
-1.77781e-11
7.56721e-13
2.5e-11
1.22222e-11
-1.48239e-22
1.27193e-11
2.5e-11
1.23188e-11
-5.04012e-22
1.26543e-11
3.76437e-11
2.47311e-11
3.31642e-12
-5.55547e-13
3e-12
-1.78571e-12
-1.89813e-11
7.58417e-13
2.5e-11
1.22218e-11
-1.27451e-11
4.38572e-13
2.5e-11
-3.62303e-13
-2.5e-11
1.2963e-11
3.73563e-11
-2.68928e-13
3.31653e-12
8.33342e-13
4.16667e-12
-1.7857e-12
-1.89815e-11
7.57545e-13
1.2179e-11
8.82001e-22
-1.27451e-11
4.37738e-13
1.23012e-11
-1.26807e-11
-2.50001e-11
3.08659e-13
1.23563e-11
-1.26344e-11
3.31642e-12
-2.77779e-13
4.16666e-12
-4.76177e-13
-1.7778e-11
7.57579e-13
2.5e-11
1.22222e-11
-1.27451e-11
-1.22803e-11
-4.80078e-22
-1.26815e-11
-1.23338e-11
1.26547e-11
2.5e-11
1.23655e-11
1.64981e-12
-1.66666e-12
3e-12
-4.76177e-13
-4.81482e-12
1.28788e-11
3.78205e-11
2.44445e-11
-2.5491e-11
-1.18434e-11
1.23012e-11
-1.26812e-11
-1.23333e-11
1.26543e-11
2.5e-11
1.2366e-11
1.64981e-12
-2.77693e-13
2.8335e-12
-1.66666e-12
-1.77778e-11
-1.21212e-11
1.28205e-11
-5.55532e-13
-3.77451e-11
8.78794e-13
2.4604e-11
7.12369e-22
-1.26671e-11
-1.2346e-11
0
-4.87509e-22
1.64983e-12
1.11108e-12
2.66658e-12
-4.16666e-12
-1.89814e-11
-1.21212e-11
1.93892e-22
-1.27777e-11
-3.77451e-11
8.77125e-13
2.46024e-11
-5.47864e-23
-1.26662e-11
-1.23453e-11
1.26433e-11
1.23651e-11
1.64979e-12
2.22223e-12
4.00013e-12
-4.28569e-12
-7.22223e-12
-5.15507e-22
7.75478e-22
-1.68029e-22
-2.54902e-11
8.77121e-13
2.46032e-11
-6.02775e-22
-3.02439e-22
1.26539e-11
2.5e-11
1.2366e-11
3.31648e-12
8.33335e-13
4.16666e-12
-3.09522e-12
-7.22223e-12
4.58311e-22
2.42383e-22
2.52063e-22
-2.54901e-11
8.77116e-13
2.46032e-11
-1.09595e-22
2.01648e-22
1.26547e-11
2.5e-11
1.23651e-11
3.31648e-12
-2.77773e-13
2.83317e-12
-2.97651e-12
-6.01852e-12
6.30166e-22
1.93905e-22
4.62161e-22
-1.2745e-11
4.38556e-13
1.23011e-11
4.38378e-22
-5.04123e-22
-1.02685e-21
1.26442e-11
1.2366e-11
1.64984e-12
2.1095e-22
4.00012e-12
-1.66636e-12
-1.77778e-11
-1.21208e-11
2.4238e-22
1.26043e-21
-1.11207e-22
3.31655e-22
-1.80043e-22
-1.26811e-11
-2.5e-11
-1.23452e-11
-1.3902e-21
-3.73812e-21
-1.68551e-14
1.11112e-12
4e-12
-1.66694e-12
-1.77777e-11
7.57483e-13
1.21796e-11
8.40272e-23
2.00191e-21
-1.99011e-22
1.08038e-21
-1.26816e-11
-2.5e-11
3.07804e-13
1.23558e-11
1.62531e-22
1.64982e-12
1.11111e-12
4e-12
-1.66665e-12
-1.77778e-11
7.57443e-13
1.21791e-11
1.2604e-22
-1.27451e-11
4.38549e-13
1.23012e-11
-1.86315e-21
-1.00826e-22
1.26548e-11
2.5e-11
1.23651e-11
1.64984e-12
1.11107e-12
5.33333e-12
-4.75844e-13
-1.7778e-11
-1.21212e-11
5.33328e-22
-5.88243e-22
-1.27451e-11
1.31578e-11
3.73012e-11
1.23189e-11
6.04962e-22
1.26543e-11
3.76441e-11
2.47311e-11
1.64979e-12
8.33462e-13
2.83334e-12
-1.66694e-12
-4.81482e-12
1.71892e-22
1.28205e-11
1.22222e-11
-1.27451e-11
4.39381e-13
2.50001e-11
1.23185e-11
4.03313e-22
2.53094e-11
3.73564e-11
1.23656e-11
3.31654e-12
-2.77791e-13
2.83336e-12
-2.97618e-12
-6.01855e-12
-4.29797e-22
2.56413e-11
2.44443e-11
-1.27454e-11
-1.22807e-11
-4.2018e-22
-6.57658e-22
-8.06647e-22
1.26543e-11
1.23561e-11
-1.26345e-11
1.64981e-12
-1.38888e-12
2.83338e-12
-4.28573e-12
-2.01851e-11
7.5772e-13
2.5e-11
1.22222e-11
-1.27452e-11
-1.22805e-11
-1.08054e-21
-1.26813e-11
-1.23331e-11
-1.49365e-21
1.26438e-11
-2.69445e-13
-1.68526e-14
-1.3889e-12
2.8333e-12
-2.97623e-12
-3.19446e-11
-1.13634e-11
2.5e-11
1.2222e-11
-1.27453e-11
-1.22806e-11
1.1406e-21
-1.26813e-11
-1.23332e-11
-9.33564e-23
1.26441e-11
1.23654e-11
-1.68523e-14
3.83558e-22
5.33333e-12
-4.76246e-13
-1.7778e-11
-1.21212e-11
2.56412e-11
2.44442e-11
-2.22508e-22
1.27194e-11
2.49998e-11
1.23185e-11
0
-1.86713e-21
1.26438e-11
1.23652e-11
-1.6852e-14
1.11109e-12
4.00006e-12
-1.66664e-12
-4.81478e-12
8.02521e-22
2.56413e-11
2.44442e-11
-1.27451e-11
4.39207e-13
2.50002e-11
-3.62608e-13
-2.49998e-11
-1.23453e-11
1.26441e-11
1.23653e-11
1.64978e-12
2.22223e-12
3.99996e-12
-2.97622e-12
-6.01846e-12
-2.2932e-22
2.56412e-11
2.44443e-11
-1.27455e-11
4.38561e-13
2.49997e-11
-3.63206e-13
-2.50002e-11
-1.23454e-11
3.47587e-22
-2.43783e-22
3.31648e-12
-2.77678e-13
4.16671e-12
-3.09524e-12
-7.22222e-12
-2.58022e-22
1.28209e-11
1.22225e-11
5.19342e-22
1.27198e-11
2.50004e-11
1.23187e-11
-1.26669e-11
-1.2345e-11
1.26441e-11
1.23649e-11
1.64988e-12
-2.77897e-13
4.1666e-12
-1.78578e-12
-1.8981e-11
-1.21207e-11
4.85227e-23
4.20505e-23
-1.27447e-11
4.38887e-13
1.2301e-11
0
-1.26673e-11
-1.23453e-11
1.26445e-11
1.23651e-11
1.64973e-12
1.11118e-12
5.33334e-12
-1.78561e-12
-1.89821e-11
-1.21219e-11
-4.85325e-22
4.62645e-22
-1.27457e-11
4.38852e-13
1.23018e-11
-6.58053e-22
-8.07044e-22
1.26546e-11
2.49995e-11
1.23646e-11
1.64992e-12
-1.38878e-12
4.16674e-12
-1.78577e-12
-6.01861e-12
3.7289e-22
4.36874e-22
-5.46873e-22
-1.27444e-11
-1.22799e-11
3.60476e-22
-1.31633e-21
7.06275e-22
2.53098e-11
3.73558e-11
1.23648e-11
-1.68502e-14
-2.77978e-13
2.83334e-12
-1.66652e-12
-4.81484e-12
1.28777e-11
1.21786e-11
-1.26227e-22
-1.27461e-11
4.36947e-13
1.23007e-11
-1.26806e-11
-1.23323e-11
2.53099e-11
2.47109e-11
1.95046e-21
1.64968e-12
2.22222e-12
3.99986e-12
-1.66676e-12
-4.81485e-12
1.28799e-11
2.49999e-11
1.22211e-11
-1.27439e-11
4.40803e-13
1.23026e-11
-2.53626e-11
-2.46661e-11
2.53097e-11
3.73545e-11
1.23635e-11
3.31648e-12
1.11123e-12
5.33332e-12
-4.76101e-13
-4.81484e-12
0
1.28218e-11
1.22236e-11
-2.54899e-11
-2.45616e-11
-2.40518e-22
-1.26826e-11
-1.23344e-11
1.2656e-11
2.50022e-11
1.23652e-11
1.64999e-12
-1.38873e-12
4.16676e-12
-4.76165e-13
-4.81485e-12
1.28772e-11
1.21782e-11
0
-2.549e-11
-2.45617e-11
1.26966e-11
-3.62105e-13
-1.23317e-11
1.26531e-11
1.23542e-11
-4.0682e-22
-1.68483e-14
-1.38904e-12
4.16651e-12
-4.76094e-13
-4.81484e-12
1.28803e-11
2.49999e-11
1.22207e-11
-1.27466e-11
-1.22826e-11
1.27001e-11
-3.62027e-13
-1.23352e-11
1.26563e-11
1.23576e-11
-1.62846e-22
-1.68477e-14
1.11099e-12
4.00014e-12
-1.66649e-12
-4.81486e-12
-5.74537e-23
1.28221e-11
1.22241e-11
7.43602e-23
-3.99227e-22
2.40806e-22
-1.26788e-11
-1.23315e-11
1.26521e-11
1.23542e-11
0
1.64963e-12
2.22223e-12
3.99984e-12
-2.97613e-12
-1.89798e-11
-1.21199e-11
4.86295e-23
5.47934e-22
-1.11577e-22
0
7.22737e-22
-1.26829e-11
-2.49999e-11
1.29639e-11
2.47134e-11
-5.7106e-22
3.31649e-12
2.22223e-12
5.33333e-12
-1.78579e-12
-1.8983e-11
7.54543e-13
2.49971e-11
1.22209e-11
-1.27431e-11
4.3797e-13
1.23001e-11
-1.26784e-11
-2.50001e-11
1.29583e-11
3.73549e-11
1.23643e-11
3.31649e-12
8.33457e-13
4.16675e-12
-4.76164e-13
-4.81483e-12
1.28799e-11
2.50025e-11
1.22237e-11
-1.27464e-11
4.38094e-13
1.23036e-11
-1.26825e-11
-1.23361e-11
1.26554e-11
3.76444e-11
2.47348e-11
3.31649e-12
-2.7779e-13
4.16659e-12
-1.7856e-12
-1.89805e-11
-1.21204e-11
1.28195e-11
1.22214e-11
7.44418e-23
1.27179e-11
2.49974e-11
1.23181e-11
-1.2162e-21
-6.57227e-22
1.26435e-11
1.23705e-11
1.64993e-12
1.11107e-12
5.33333e-12
-3.09522e-12
-2.01857e-11
7.56359e-13
2.5e-11
1.22229e-11
-3.35034e-22
2.54381e-11
3.73026e-11
-3.59855e-13
-2.49986e-11
3.05601e-13
1.23582e-11
-5.73503e-22
1.64975e-12
1.11113e-12
4.00002e-12
-4.28567e-12
-7.22224e-12
1.28789e-11
2.5e-11
1.22222e-11
-1.27448e-11
1.31571e-11
3.73021e-11
-3.60471e-13
-3.76652e-11
6.10172e-13
3.73599e-11
1.23704e-11
1.64986e-12
2.46096e-23
4.00001e-12
-2.97612e-12
-6.01853e-12
1.28788e-11
2.5e-11
1.22221e-11
-1.27443e-11
1.31572e-11
3.73014e-11
-3.62667e-13
-2.49999e-11
3.04904e-13
2.49968e-11
1.23672e-11
-1.68412e-14
-6.76286e-23
5.3333e-12
-1.78573e-12
-6.01862e-12
2.57574e-11
3.71803e-11
1.22233e-11
-1.11707e-22
2.54374e-11
2.46049e-11
-2.53601e-11
-2.46696e-11
2.81834e-22
8.74961e-23
-4.09444e-22
-1.68402e-14
1.05434e-22
5.33331e-12
-1.78551e-12
-1.89821e-11
1.36348e-11
5e-11
2.44454e-11
-2.97949e-22
2.5437e-11
3.73044e-11
-1.30383e-11
-2.46688e-11
-2.818e-22
-8.74684e-22
-1.26352e-11
-1.68393e-14
1.1112e-12
5.33329e-12
-1.78567e-12
-3.19441e-11
-1.13657e-11
3.78188e-11
2.44457e-11
0
2.54369e-11
5e-11
1.19605e-11
-1.23324e-11
-5.63446e-22
1.26447e-11
-2.66904e-13
1.64994e-12
1.11102e-12
5.33327e-12
-3.09496e-12
-2.01836e-11
-1.21203e-11
1.28184e-11
1.22213e-11
-4.47159e-22
2.54375e-11
3.73005e-11
1.23178e-11
1.01384e-21
1.12645e-21
1.26426e-11
1.23643e-11
1.64967e-12
1.11125e-12
5.33326e-12
-1.78536e-12
-6.01857e-12
1.28799e-11
2.50028e-11
1.2224e-11
-1.27462e-11
1.31559e-11
2.46036e-11
-5.50813e-22
1.0135e-22
1.26555e-11
1.23572e-11
3.26881e-22
1.65001e-12
-2.78055e-13
4.16646e-12
-4.76043e-13
-4.81488e-12
1.28772e-11
2.49974e-11
1.22212e-11
-1.27436e-11
1.31586e-11
2.46034e-11
-6.60777e-22
0
2.53089e-11
3.73571e-11
1.23661e-11
1.64964e-12
-2.77493e-13
4.16676e-12
-4.76109e-13
-4.81485e-12
6.90696e-22
1.28217e-11
1.22236e-11
-1.27461e-11
1.31566e-11
2.46033e-11
-1.32121e-21
-3.03868e-22
1.26535e-11
3.76431e-11
2.47304e-11
1.65e-12
1.111e-12
5.33329e-12
-4.76141e-13
-4.81487e-12
5.75466e-23
2.56408e-11
2.44446e-11
-2.549e-11
-1.18434e-11
2.5e-11
1.23197e-11
5.06304e-22
1.875e-22
2.5288e-11
2.47303e-11
1.64966e-12
4.9042e-25
5.33333e-12
-4.76106e-13
-4.81484e-12
1.28799e-11
2.49999e-11
1.22213e-11
-1.27441e-11
-1.22798e-11
1.26975e-11
1.23179e-11
1.01238e-21
-3.74913e-22
2.5288e-11
2.47303e-11
-1.6835e-14
-2.778e-13
4.16654e-12
-1.7858e-12
-6.01867e-12
2.57575e-11
3.71806e-11
1.22231e-11
-3.72186e-22
1.27202e-11
1.23023e-11
1.65031e-22
-1.26676e-11
-1.23462e-11
1.26432e-11
1.23644e-11
1.64997e-12
-2.77747e-13
4.16677e-12
-1.78555e-12
-6.01844e-12
1.28778e-11
2.49983e-11
1.22214e-11
-2.60481e-22
2.54387e-11
2.4603e-11
1.65002e-22
-1.26661e-11
3.10442e-13
1.23567e-11
-2.44767e-22
1.6497e-12
-1.19819e-22
5.33332e-12
-4.76163e-13
-4.81481e-12
1.28796e-11
2.50015e-11
1.2223e-11
1.86025e-22
1.27186e-11
1.23008e-11
0
-1.26675e-11
3.07797e-13
1.23554e-11
1.63152e-22
-1.68341e-14
-1.38897e-12
4.1666e-12
-4.76194e-13
-4.81483e-12
1.28781e-11
3.78198e-11
2.44444e-11
-3.71996e-22
1.27201e-11
1.23021e-11
-1.2682e-11
-2.5e-11
-1.23448e-11
1.26445e-11
1.23659e-11
-1.68338e-14
-2.77631e-13
4.16672e-12
-1.78583e-12
-6.0186e-12
1.28795e-11
2.5e-11
1.22215e-11
-1.27458e-11
1.31576e-11
2.4603e-11
-1.26808e-11
-2.5e-11
-1.2346e-11
1.26434e-11
1.23648e-11
1.64993e-12
1.11106e-12
5.33335e-12
-1.78562e-12
-6.01843e-12
1.28782e-11
1.21788e-11
-7.58676e-22
-1.27445e-11
1.31588e-11
2.46029e-11
-1.26818e-11
-3.76673e-11
-2.46909e-11
-2.61522e-22
7.33931e-22
1.64975e-12
1.11116e-12
3.99994e-12
-2.9763e-12
-6.01855e-12
1.28794e-11
1.218e-11
5.90018e-22
-8.18049e-22
2.54388e-11
3.73019e-11
-3.6159e-13
-2.4999e-11
-1.23451e-11
-5.22995e-22
-3.26161e-22
1.64991e-12
2.22222e-12
4.00005e-12
-4.28569e-12
-7.2222e-12
2.57577e-11
3.71799e-11
1.22227e-11
-1.27456e-11
1.31577e-11
5e-11
2.46374e-11
-7.07803e-22
1.87237e-22
-1.04592e-21
-2.52754e-21
3.3165e-12
1.11109e-12
5.33335e-12
-1.78585e-12
-6.0185e-12
1.28781e-11
2.49991e-11
1.22221e-11
-2.54908e-11
8.7753e-13
3.73009e-11
-3.63088e-13
-1.23336e-11
1.2655e-11
2.50009e-11
1.23659e-11
1.64978e-12
-5.26721e-23
5.33333e-12
-4.76184e-13
-4.81481e-12
1.28796e-11
2.50009e-11
1.22222e-11
-1.27447e-11
4.38582e-13
1.23012e-11
-1.26812e-11
-1.23329e-11
2.53086e-11
3.73555e-11
1.23648e-11
-1.68333e-14
1.11119e-12
5.33333e-12
-1.78575e-12
-1.8982e-11
1.36361e-11
3.71787e-11
1.22219e-11
-1.27454e-11
-1.22807e-11
1.26987e-11
1.23192e-11
-6.06514e-22
2.53086e-11
2.47127e-11
0
1.64991e-12
-2.77846e-13
2.83326e-12
-2.97618e-12
-1.89811e-11
7.58386e-13
1.21796e-11
2.52747e-22
-2.54902e-11
-1.18418e-11
3.76988e-11
2.46377e-11
-6.06546e-22
1.26539e-11
2.5e-11
1.23656e-11
1.64979e-12
-2.77791e-13
2.8334e-12
-1.66663e-12
-4.81481e-12
-1.43608e-22
-4.3746e-22
-5.4759e-22
-2.54902e-11
-1.18424e-11
2.49994e-11
1.23182e-11
-3.03228e-22
1.2655e-11
2.5e-11
1.23653e-11
1.64988e-12
1.11109e-12
5.33333e-12
-4.76183e-13
-4.81481e-12
1.28795e-11
1.21798e-11
4.21161e-22
-1.27448e-11
-1.22804e-11
-1.80508e-22
-5.49382e-23
-4.04325e-22
1.2654e-11
1.23556e-11
-8.96547e-22
1.6498e-12
-1.38888e-12
2.83344e-12
-2.97624e-12
-6.01855e-12
2.57576e-11
2.4359e-11
-2.52714e-22
-1.27458e-11
-1.2281e-11
9.02422e-22
-1.26814e-11
-1.23337e-11
1.2655e-11
1.23566e-11
-1.30415e-21
-1.68322e-14
-2.77805e-13
2.83321e-12
-2.97613e-12
-6.01829e-12
2.57576e-11
2.4359e-11
5.89593e-22
-2.54902e-11
-2.45614e-11
0
-1.26809e-11
-1.23331e-11
2.53086e-11
3.73566e-11
1.23655e-11
1.64987e-12
2.22223e-12
5.33333e-12
-1.78573e-12
-6.01855e-12
1.28786e-11
1.21793e-11
-1.27784e-11
-3.77453e-11
-2.45614e-11
1.26986e-11
1.23187e-11
-1.26669e-11
1.29627e-11
5e-11
2.47312e-11
3.3165e-12
1.11109e-12
5.33333e-12
-1.78568e-12
-6.0185e-12
1.2879e-11
2.50004e-11
-5.55139e-13
-2.49996e-11
4.39902e-13
2.5e-11
-3.62775e-13
-3.76669e-11
6.18908e-13
3.73561e-11
1.23654e-11
1.64981e-12
-2.77779e-13
4.16685e-12
-4.76181e-13
-4.81482e-12
2.57576e-11
3.71793e-11
1.2222e-11
5.57337e-22
2.54386e-11
2.46032e-11
-1.2681e-11
-3.76668e-11
6.17236e-13
2.47127e-11
-8.15032e-22
1.64983e-12
-5.55388e-13
3e-12
-1.78572e-12
-6.01854e-12
1.28786e-11
2.5e-11
1.22228e-11
8.54591e-22
2.54386e-11
2.46032e-11
-1.26813e-11
-2.5e-11
3.08613e-13
2.5e-11
1.23658e-11
3.31656e-12
-2.77851e-13
4.16668e-12
-1.78569e-12
-6.0185e-12
-1.43551e-22
1.28203e-11
1.22217e-11
-1.00312e-21
2.54394e-11
2.46032e-11
-1.2681e-11
-1.23332e-11
1.26545e-11
2.5e-11
1.2365e-11
1.64978e-12
1.11113e-12
5.33317e-12
-1.7861e-12
-6.01854e-12
-1.72246e-22
1.28206e-11
1.22224e-11
-1.27456e-11
4.37405e-13
1.2301e-11
-1.64741e-22
0
2.53086e-11
2.47127e-11
5.70467e-22
1.64989e-12
1.1111e-12
5.3335e-12
-1.78532e-12
-6.0183e-12
1.28789e-11
2.5e-11
1.22221e-11
-2.54893e-11
-1.18407e-11
1.23018e-11
-5.49201e-22
7.0739e-22
1.26546e-11
1.23562e-11
1.62975e-22
1.64981e-12
1.11113e-12
5.33333e-12
-1.78572e-12
-1.89817e-11
7.57333e-13
1.21794e-11
4.21079e-23
-1.27453e-11
4.38581e-13
1.23019e-11
1.09842e-21
-5.05237e-22
1.26545e-11
1.23565e-11
0
1.64985e-12
1.1111e-12
5.33333e-12
-3.09523e-12
-2.0185e-11
-1.21211e-11
-9.71643e-23
3.36841e-22
-1.27453e-11
4.38601e-13
1.23013e-11
-3.29468e-22
-9.09355e-22
1.26541e-11
1.23562e-11
-1.26346e-11
1.64982e-12
6.52957e-23
5.33317e-12
-1.78607e-12
-6.01872e-12
-4.8804e-22
-4.85789e-23
-1.68408e-22
-1.2745e-11
4.38589e-13
1.23014e-11
3.29512e-22
1.11157e-21
1.26544e-11
2.50004e-11
-2.69384e-13
-1.68314e-14
-3.94744e-23
5.3335e-12
-4.75851e-13
-1.77782e-11
-1.21217e-11
1.0203e-21
-8.42057e-22
-1.27452e-11
4.38594e-13
1.23017e-11
8.23726e-22
0
1.26541e-11
3.7644e-11
2.47321e-11
-1.68314e-14
1.11112e-12
3.99998e-12
-1.66667e-12
-1.77777e-11
-1.21211e-11
1.2821e-11
1.22228e-11
-1.27449e-11
4.38589e-13
1.23014e-11
-1.26813e-11
-1.2333e-11
9.35539e-23
2.52865e-11
2.47304e-11
1.64985e-12
1.11114e-12
4.00001e-12
-1.66694e-12
-1.77776e-11
7.58424e-13
2.5e-11
1.22217e-11
-1.27452e-11
-1.22808e-11
-2.40595e-22
-1.2681e-11
-1.23332e-11
-2.15206e-21
2.52882e-11
2.47321e-11
1.64982e-12
-6.66564e-23
5.33333e-12
-1.78535e-12
-3.19451e-11
-1.13637e-11
1.21793e-11
1.26312e-22
-1.27454e-11
-1.22806e-11
0
1.70235e-21
-1.01048e-21
2.24549e-21
2.52873e-11
2.47312e-11
-1.68312e-14
1.11112e-12
3.99999e-12
-4.28609e-12
-2.01849e-11
-1.21211e-11
1.28206e-11
1.2222e-11
1.48598e-22
1.27198e-11
1.23017e-11
9.88415e-22
-3.03125e-22
-6.54895e-22
1.26436e-11
1.23655e-11
1.64985e-12
8.33327e-13
2.83333e-12
-4.28533e-12
-7.22197e-12
-1.43534e-22
2.5641e-11
2.44445e-11
-1.27452e-11
4.38402e-13
1.23015e-11
8.78726e-22
1.01056e-21
1.26545e-11
2.50002e-11
1.23653e-11
3.3165e-12
-5.55549e-13
1.66666e-12
-2.97652e-12
-6.01851e-12
1.28785e-11
2.5e-11
1.22221e-11
-2.54902e-11
-2.45614e-11
5.41318e-22
-1.26813e-11
-1.23335e-11
1.26543e-11
2.49997e-11
1.23655e-11
3.3165e-12
8.3335e-13
2.83319e-12
-2.97618e-12
-6.01853e-12
1.28791e-11
2.5e-11
1.22223e-11
-1.27454e-11
-1.2281e-11
4.81246e-22
-2.53631e-11
-2.46667e-11
1.49697e-21
-3.48438e-22
-1.95587e-21
3.3165e-12
1.1111e-12
5.33333e-12
-1.7857e-12
-6.01851e-12
2.29666e-22
1.28208e-11
1.22226e-11
-7.43057e-23
1.27194e-11
1.23013e-11
-1.26806e-11
-1.23328e-11
-8.42e-22
-2.61317e-22
1.62981e-22
1.64982e-12
-2.77777e-13
4.16687e-12
-4.76183e-13
-1.77779e-11
-1.21213e-11
3.88692e-22
1.26325e-22
-4.45814e-22
2.54386e-11
2.46032e-11
-4.94286e-22
-1.01056e-22
-5.61421e-22
-1.48103e-21
-1.26345e-11
1.64985e-12
-2.77773e-13
2.83333e-12
-1.66667e-12
-3.07401e-11
-1.13635e-11
1.21792e-11
2.52613e-22
1.11459e-22
2.54394e-11
3.73017e-11
1.23189e-11
-2.02102e-22
1.26544e-11
1.23565e-11
-1.26343e-11
1.64982e-12
3.98151e-23
4.00001e-12
-2.97618e-12
-1.89816e-11
7.56741e-13
1.21794e-11
2.52651e-22
5.20118e-22
1.27188e-11
2.49998e-11
1.23183e-11
0
2.53086e-11
2.47118e-11
1.38542e-21
-1.6831e-14
1.11112e-12
5.33333e-12
-1.7857e-12
-1.89816e-11
-1.21213e-11
1.28206e-11
1.22223e-11
-1.27452e-11
-1.22804e-11
6.01489e-22
4.94317e-22
-1.26667e-11
3.093e-13
2.5e-11
1.23656e-11
1.64985e-12
2.22223e-12
5.33333e-12
-4.76184e-13
-1.77777e-11
7.58586e-13
2.5e-11
-5.55708e-13
-2.5e-11
4.37923e-13
1.23013e-11
6.59063e-22
-2.53333e-11
-2.46914e-11
1.26436e-11
1.23655e-11
3.3165e-12
8.33331e-13
4.16666e-12
-1.78571e-12
-6.01853e-12
2.57568e-11
3.71796e-11
-5.55385e-13
-1.22548e-11
2.54394e-11
2.46032e-11
2.19704e-22
-1.2667e-11
-1.23456e-11
-2.61353e-22
-1.22254e-21
3.3165e-12
-5.55549e-13
3e-12
-3.09523e-12
-2.01853e-11
7.58271e-13
3.78201e-11
2.44445e-11
3.71571e-22
2.54386e-11
2.46032e-11
1.86741e-21
-8.08498e-22
1.26544e-11
1.23559e-11
6.51996e-22
3.3165e-12
-2.77774e-13
4.16667e-12
-3.09523e-12
-2.0185e-11
-1.21212e-11
2.56419e-11
2.44444e-11
-1.27452e-11
1.31578e-11
3.73016e-11
-3.62311e-13
-1.2333e-11
1.26538e-11
1.23563e-11
0
1.64983e-12
-2.77776e-13
4.16666e-12
-1.7857e-12
-6.0183e-12
1.28789e-11
2.5e-11
1.22222e-11
-2.54902e-11
-1.18421e-11
3.76983e-11
1.19566e-11
-1.23337e-11
-2.05892e-21
4.3564e-22
9.78108e-22
1.64984e-12
8.33342e-13
2.83333e-12
-2.9762e-12
-6.01852e-12
2.57576e-11
2.4359e-11
1.01079e-21
-2.54902e-11
-2.45614e-11
1.26983e-11
1.23188e-11
-1.26671e-11
3.08643e-13
1.23564e-11
-5.70543e-22
3.3165e-12
1.11111e-12
4e-12
-4.28571e-12
-7.22222e-12
2.57576e-11
2.4359e-11
4.2107e-23
-1.27447e-11
-1.22806e-11
8.42302e-22
3.84534e-22
-1.26666e-11
1.2963e-11
3.73564e-11
1.23652e-11
1.64983e-12
-1.38889e-12
4.16666e-12
-1.78571e-12
-1.89815e-11
7.57559e-13
2.5e-11
1.22222e-11
-3.71634e-22
-1.19697e-21
-3.00817e-22
-1.26812e-11
-1.23334e-11
1.26543e-11
2.5e-11
1.23655e-11
-1.68309e-14
-2.77772e-13
4.16667e-12
-1.78571e-12
-1.89815e-11
7.57593e-13
2.5e-11
-5.55657e-13
-1.22549e-11
5.31979e-22
-7.21949e-22
-2.53623e-11
-2.46667e-11
7.48696e-22
1.26437e-11
1.23657e-11
1.64984e-12
1.11111e-12
5.33333e-12
-3.09523e-12
-7.22222e-12
1.28788e-11
1.21795e-11
-1.27778e-11
-1.22549e-11
-5.98469e-22
1.26984e-11
-3.6222e-13
-2.5e-11
3.08648e-13
2.5e-11
1.23656e-11
1.64983e-12
0
5.33333e-12
-3.09523e-12
-7.22222e-12
7.75443e-22
-3.40219e-22
8.42449e-23
-3.71665e-22
-1.06416e-21
2.53968e-11
2.46377e-11
-2.53333e-11
6.17296e-13
2.47126e-11
1.63064e-22
-1.68309e-14
0
5.33333e-12
-3.09523e-12
-7.22222e-12
7.18003e-22
-1.45807e-22
-4.21229e-23
-3.71665e-22
-1.19718e-21
2.53968e-11
2.46377e-11
-2.53333e-11
6.17296e-13
2.47126e-11
-6.52255e-22
-1.68309e-14
)
;

boundaryField
{
    wireUpstream
    {
        type            calculated;
        value           nonuniform List<scalar> 
16
(
0
5.33333e-12
-3.09523e-12
-7.22222e-12
0
0
0
-2.48339e-22
0
2.53968e-11
2.46377e-11
-2.53333e-11
6.17296e-13
2.47126e-11
5.63006e-22
-1.68309e-14
)
;
    }
    wireDownstream
    {
        type            calculated;
        value           nonuniform List<scalar> 
16
(
2.22223e-12
5.33333e-12
-4.76178e-13
-4.81482e-12
2.50186e-22
0
0
0
0
0
-4.78714e-22
-2.53333e-11
-2.46914e-11
2.52874e-11
2.47311e-11
3.31647e-12
)
;
    }
    wireTopContact
    {
        type            calculated;
        value           nonuniform List<scalar> 
122
(
-6.43401e-22
0
6.43441e-22
0
6.43463e-22
-2.5e-11
-2.5e-11
-6.4348e-22
0
0
-2.5e-11
-2.5e-11
0
0
0
0
0
0
0
0
0
0
0
0
-2.5e-11
-2.5e-11
0
0
0
0
-6.43735e-22
0
0
0
6.43735e-22
-6.43608e-22
-6.4361e-22
6.43613e-22
-2.5e-11
-2.50001e-11
6.43534e-22
0
0
0
6.43394e-22
0
0
0
-6.43308e-22
0
6.43522e-22
0
0
0
6.44878e-22
0
-6.459e-22
0
-6.46881e-22
-6.47121e-22
0
-1.29331e-21
-2.50014e-11
-2.49987e-11
0
-6.45571e-22
-1.29088e-21
0
-6.45273e-22
6.45228e-22
-6.45195e-22
0
-6.45173e-22
0
-6.45178e-22
0
-1.29045e-21
-6.45243e-22
0
0
0
0
0
0
0
0
-6.45531e-22
0
0
6.45561e-22
0
0
0
-6.4571e-22
-2.50001e-11
-2.49999e-11
0
0
0
0
0
1.29161e-21
0
0
0
-2.50001e-11
-2.49999e-11
-6.4597e-22
0
-1.29215e-21
-6.46063e-22
0
6.4617e-22
0
6.46152e-22
6.46144e-22
-6.46267e-22
6.46262e-22
0
0
0
-1.1288e-21
)
;
    }
    front
    {
        type            wedge;
    }
    back
    {
        type            wedge;
    }
}


// ************************************************************************* //
