/*--------------------------------*- C++ -*----------------------------------*\
| =========                 |                                                 |
| \\      /  F ield         | foam-extend: Open Source CFD                    |
|  \\    /   O peration     | Version:     4.1-20200408                       |
|   \\  /    A nd           | Web:         http://www.foam-extend.org         |
|    \\/     M anipulation  |                                                 |
\*---------------------------------------------------------------------------*/
FoamFile
{
    version     2.0;
    format      ascii;
    class       volScalarField;
    location    "0.0175000";
    object      J;
}
// * * * * * * * * * * * * * * * * * * * * * * * * * * * * * * * * * * * * * //

dimensions      [0 0 0 0 0 0 0];

internalField   nonuniform List<scalar> 
1952
(
1.00149
1.00149
1.00147
1.00146
1.00144
1.00142
1.0014
1.00138
1.00135
1.00133
1.00133
1.00135
1.0014
1.00153
1.00158
1.0015
1.00143
1.00142
1.00141
1.00139
1.00137
1.00135
1.00133
1.0013
1.00127
1.00125
1.00123
1.00125
1.00128
1.0014
1.00144
1.00143
1.00137
1.00136
1.00134
1.00133
1.00131
1.00128
1.00126
1.00124
1.0012
1.00118
1.00116
1.00118
1.00121
1.00134
1.0014
1.00137
1.00131
1.0013
1.00129
1.00127
1.00125
1.00123
1.0012
1.00118
1.00114
1.00112
1.0011
1.00112
1.00116
1.00129
1.00138
1.00131
1.00126
1.00125
1.00123
1.00122
1.0012
1.00117
1.00115
1.00112
1.00109
1.00107
1.00105
1.00107
1.00112
1.00126
1.00137
1.00126
1.00121
1.0012
1.00119
1.00117
1.00115
1.00113
1.0011
1.00108
1.00105
1.00102
1.00101
1.00104
1.00109
1.00124
1.00136
1.00121
1.00116
1.00115
1.00114
1.00113
1.00111
1.00108
1.00106
1.00104
1.00101
1.00099
1.00098
1.00101
1.00106
1.00123
1.00136
1.00116
1.00112
1.00111
1.0011
1.00109
1.00107
1.00105
1.00102
1.001
1.00097
1.00096
1.00095
1.00098
1.00105
1.00121
1.00136
1.00112
1.00108
1.00108
1.00107
1.00105
1.00103
1.00101
1.00099
1.00097
1.00095
1.00093
1.00093
1.00097
1.00103
1.0012
1.00137
1.00109
1.00105
1.00104
1.00103
1.00102
1.001
1.00098
1.00096
1.00094
1.00092
1.00091
1.00091
1.00095
1.00102
1.0012
1.00137
1.00105
1.00102
1.00101
1.001
1.00099
1.00097
1.00096
1.00094
1.00092
1.0009
1.00089
1.00089
1.00093
1.00101
1.00119
1.00137
1.00102
1.00099
1.00099
1.00098
1.00096
1.00095
1.00093
1.00091
1.0009
1.00088
1.00087
1.00087
1.00092
1.00099
1.00118
1.00137
1.001
1.00097
1.00096
1.00095
1.00094
1.00093
1.00091
1.00089
1.00088
1.00086
1.00085
1.00086
1.00091
1.00098
1.00117
1.00137
1.00097
1.00095
1.00094
1.00093
1.00092
1.0009
1.00089
1.00088
1.00086
1.00084
1.00084
1.00085
1.0009
1.00097
1.00117
1.00137
1.00095
1.00092
1.00092
1.00091
1.0009
1.00089
1.00087
1.00086
1.00084
1.00083
1.00082
1.00083
1.00089
1.00096
1.00116
1.00137
1.00093
1.0009
1.0009
1.00089
1.00088
1.00087
1.00086
1.00084
1.00083
1.00081
1.00081
1.00082
1.00088
1.00095
1.00115
1.00137
1.00091
1.00089
1.00088
1.00087
1.00086
1.00085
1.00084
1.00083
1.00081
1.0008
1.0008
1.00081
1.00086
1.00094
1.00114
1.00137
1.00089
1.00087
1.00087
1.00086
1.00085
1.00084
1.00082
1.00081
1.0008
1.00078
1.00078
1.0008
1.00085
1.00093
1.00113
1.00137
1.00087
1.00085
1.00085
1.00084
1.00083
1.00082
1.00081
1.0008
1.00079
1.00077
1.00077
1.00079
1.00084
1.00092
1.00112
1.00136
1.00086
1.00084
1.00083
1.00083
1.00082
1.00081
1.0008
1.00078
1.00077
1.00076
1.00076
1.00077
1.00083
1.00091
1.00111
1.00136
1.00084
1.00082
1.00082
1.00081
1.0008
1.00079
1.00078
1.00077
1.00076
1.00075
1.00075
1.00076
1.00082
1.0009
1.00111
1.00135
1.00083
1.00081
1.00081
1.0008
1.00079
1.00078
1.00077
1.00076
1.00075
1.00073
1.00074
1.00075
1.00081
1.00089
1.0011
1.00135
1.00081
1.00079
1.00079
1.00078
1.00078
1.00077
1.00076
1.00074
1.00073
1.00072
1.00072
1.00074
1.0008
1.00088
1.00109
1.00135
1.0008
1.00078
1.00078
1.00077
1.00076
1.00075
1.00074
1.00073
1.00072
1.00071
1.00071
1.00073
1.00079
1.00087
1.00108
1.00134
1.00078
1.00077
1.00076
1.00076
1.00075
1.00074
1.00073
1.00072
1.00071
1.0007
1.0007
1.00072
1.00078
1.00086
1.00107
1.00134
1.00077
1.00075
1.00075
1.00074
1.00074
1.00073
1.00072
1.00071
1.0007
1.00069
1.00069
1.00071
1.00077
1.00085
1.00106
1.00133
1.00076
1.00074
1.00074
1.00073
1.00072
1.00071
1.00071
1.00069
1.00069
1.00067
1.00068
1.00069
1.00076
1.00083
1.00105
1.00133
1.00074
1.00073
1.00072
1.00072
1.00071
1.0007
1.00069
1.00068
1.00067
1.00066
1.00067
1.00068
1.00075
1.00082
1.00104
1.00133
1.00073
1.00071
1.00071
1.0007
1.0007
1.00069
1.00068
1.00067
1.00066
1.00065
1.00066
1.00067
1.00074
1.00081
1.00103
1.00132
1.00071
1.0007
1.00069
1.00069
1.00068
1.00067
1.00067
1.00066
1.00065
1.00064
1.00065
1.00066
1.00073
1.0008
1.00102
1.00132
1.0007
1.00068
1.00068
1.00067
1.00067
1.00066
1.00066
1.00064
1.00064
1.00063
1.00064
1.00065
1.00072
1.00079
1.00101
1.00132
1.00068
1.00066
1.00066
1.00066
1.00065
1.00064
1.00064
1.00063
1.00062
1.00062
1.00063
1.00064
1.00071
1.00079
1.00101
1.00131
1.00066
1.00064
1.00064
1.00064
1.00064
1.00063
1.00063
1.00062
1.00061
1.00061
1.00062
1.00064
1.0007
1.00078
1.001
1.00131
1.00064
1.00062
1.00062
1.00062
1.00062
1.00061
1.00061
1.0006
1.0006
1.00059
1.00061
1.00063
1.0007
1.00078
1.001
1.00132
1.00062
1.0006
1.0006
1.0006
1.0006
1.00059
1.00059
1.00058
1.00058
1.00058
1.0006
1.00062
1.00069
1.00078
1.001
1.00132
1.0006
1.00057
1.00058
1.00057
1.00057
1.00057
1.00057
1.00057
1.00057
1.00057
1.00059
1.00061
1.00069
1.00077
1.001
1.00132
1.00058
1.00054
1.00055
1.00054
1.00055
1.00055
1.00055
1.00054
1.00055
1.00055
1.00058
1.00061
1.00068
1.00077
1.00101
1.00133
1.00055
1.00051
1.00051
1.00051
1.00052
1.00052
1.00052
1.00052
1.00053
1.00054
1.00056
1.0006
1.00068
1.00077
1.00101
1.00134
1.00051
1.00047
1.00048
1.00048
1.00048
1.00049
1.00049
1.0005
1.00051
1.00052
1.00055
1.00059
1.00067
1.00077
1.00102
1.00135
1.00047
1.00043
1.00043
1.00043
1.00044
1.00045
1.00046
1.00046
1.00048
1.0005
1.00053
1.00058
1.00067
1.00077
1.00102
1.00136
1.00043
1.00038
1.00038
1.00038
1.00039
1.0004
1.00042
1.00043
1.00045
1.00047
1.00051
1.00056
1.00066
1.00077
1.00103
1.00138
1.00038
1.00031
1.00032
1.00033
1.00034
1.00035
1.00037
1.00038
1.00041
1.00044
1.00048
1.00054
1.00065
1.00077
1.00104
1.0014
1.00031
1.00024
1.00025
1.00026
1.00027
1.00029
1.00031
1.00033
1.00036
1.0004
1.00045
1.00052
1.00063
1.00077
1.00105
1.00142
1.00024
1.00016
1.00017
1.00018
1.0002
1.00022
1.00024
1.00027
1.0003
1.00035
1.00041
1.00049
1.00061
1.00076
1.00106
1.00144
1.00016
1.00007
1.00008
1.00009
1.00011
1.00013
1.00016
1.00019
1.00023
1.00028
1.00036
1.00045
1.00059
1.00075
1.00106
1.00147
1.00007
0.999965
0.999975
0.999987
1.00001
1.00003
1.00006
1.0001
1.00015
1.00021
1.00029
1.0004
1.00055
1.00073
1.00106
1.00149
0.999962
0.999844
0.999854
0.999868
0.99989
0.999915
0.999949
0.999991
1.00005
1.00011
1.00021
1.00033
1.00049
1.0007
1.00105
1.00151
0.999842
0.999708
0.999718
0.999732
0.999754
0.999781
0.999817
0.999862
0.999922
0.999997
1.0001
1.00023
1.00042
1.00065
1.00103
1.00153
0.999705
0.999556
0.999565
0.999579
0.9996
0.999627
0.999663
0.99971
0.999773
0.999854
0.999965
1.00011
1.00031
1.00057
1.00099
1.00153
0.999553
0.999388
0.999396
0.999409
0.999428
0.999453
0.999487
0.999533
0.999597
0.999679
0.999795
0.999953
1.00017
1.00046
1.00091
1.00152
0.999386
0.999206
0.999212
0.999222
0.999238
0.999258
0.999289
0.99933
0.99939
0.999469
0.999585
0.999746
0.99997
1.00028
1.00076
1.00143
0.999205
0.999012
0.999015
0.999021
0.999032
0.999045
0.999068
0.9991
0.999151
0.999221
0.999328
0.999482
0.999704
1.00002
1.00051
1.00122
0.999012
0.998808
0.998808
0.998808
0.998812
0.998815
0.998828
0.998846
0.998883
0.998934
0.999025
0.999159
0.999363
0.999659
1.00014
1.00085
0.998809
0.998599
0.998595
0.998588
0.998583
0.998574
0.998572
0.998572
0.998588
0.998613
0.998676
0.998776
0.998946
0.9992
0.999641
1.00031
0.998602
0.99839
0.998381
0.998367
0.99835
0.998327
0.998308
0.998285
0.998275
0.998266
0.998291
0.998341
0.998458
0.998646
0.999018
0.9996
0.998395
0.998187
0.998173
0.99815
0.998122
0.998083
0.998044
0.997994
0.997953
0.997903
0.997881
0.997869
0.997916
0.998012
0.998287
0.998744
0.998194
0.997997
0.997978
0.997946
0.997905
0.997851
0.99779
0.997713
0.997637
0.997542
0.997466
0.99738
0.997344
0.997323
0.997472
0.99776
0.998005
0.997827
0.997802
0.997762
0.99771
0.99764
0.997558
0.997454
0.997344
0.997203
0.99707
0.996905
0.996773
0.996615
0.996604
0.996656
0.997836
0.997682
0.997653
0.997607
0.997544
0.997461
0.997361
0.997234
0.997092
0.996909
0.996722
0.996479
0.99625
0.995947
0.99576
0.995534
0.997693
0.997569
0.997537
0.997485
0.997415
0.997322
0.997208
0.997062
0.996897
0.99668
0.996449
0.996143
0.995834
0.995408
0.995055
0.994539
0.997581
0.99749
0.997456
0.997403
0.997328
0.997231
0.997111
0.996958
0.996781
0.99655
0.996295
0.995952
0.995583
0.995051
0.994532
0.993654
0.997502
0.997457
0.997421
0.997368
0.997292
0.997195
0.997072
0.996919
0.996739
0.996507
0.996242
0.995887
0.995496
0.994939
0.994396
0.993495
0.997469
0.997441
0.997403
0.997348
0.997268
0.997166
0.997038
0.996878
0.996689
0.996449
0.996174
0.995815
0.995427
0.994903
0.994419
0.993738
0.997453
0.997375
0.997334
0.997277
0.997193
0.997086
0.99695
0.996783
0.996583
0.996337
0.996054
0.995704
0.995344
0.994911
0.994571
0.9942
0.997388
0.997245
0.997201
0.997142
0.997054
0.996944
0.996803
0.996629
0.996419
0.996172
0.995889
0.995571
0.995278
0.99502
0.994883
0.994771
0.997258
0.997067
0.997018
0.996954
0.99686
0.996745
0.996595
0.99641
0.996191
0.995956
0.995716
0.995512
0.995372
0.995303
0.995308
0.99532
0.997082
0.996816
0.99676
0.996687
0.996582
0.996458
0.996309
0.996146
0.995982
0.995842
0.995736
0.995677
0.995676
0.995704
0.995761
0.995817
0.996834
0.996507
0.996459
0.9964
0.996319
0.996235
0.996148
0.996074
0.996016
0.995985
0.995989
0.996012
0.996055
0.996093
0.996166
0.996258
0.996523
0.996381
0.996362
0.996342
0.996314
0.996291
0.996274
0.996269
0.996272
0.996288
0.996313
0.996339
0.996386
0.996448
0.996537
0.996651
0.996388
0.996532
0.996525
0.996523
0.99652
0.996524
0.996532
0.996539
0.996545
0.996564
0.996595
0.996639
0.996698
0.996773
0.99687
0.996995
0.996533
0.996751
0.996746
0.996746
0.996745
0.996749
0.996757
0.996773
0.996794
0.996826
0.996866
0.996918
0.996983
0.997067
0.997168
0.997298
0.996752
0.996943
0.996943
0.996949
0.996955
0.996968
0.996984
0.997006
0.997033
0.99707
0.997116
0.997175
0.997244
0.997332
0.997433
0.997564
0.996942
0.997143
0.997145
0.997153
0.997162
0.997178
0.997197
0.997224
0.997256
0.997298
0.997348
0.99741
0.997481
0.99757
0.99767
0.997797
0.997141
0.997331
0.997336
0.997346
0.997359
0.997378
0.9974
0.99743
0.997465
0.99751
0.997561
0.997625
0.997696
0.997784
0.997879
0.998002
0.997329
0.997515
0.997521
0.997532
0.997546
0.997567
0.997591
0.997623
0.99766
0.997706
0.997757
0.997821
0.99789
0.997975
0.998066
0.998181
0.997512
0.997689
0.997696
0.997708
0.997723
0.997745
0.99777
0.997803
0.99784
0.997886
0.997937
0.997999
0.998065
0.998146
0.998232
0.99834
0.997686
0.997854
0.997862
0.997873
0.99789
0.997911
0.997937
0.99797
0.998007
0.998052
0.998101
0.998161
0.998224
0.9983
0.998379
0.99848
0.997851
0.998009
0.998017
0.998029
0.998046
0.998067
0.998093
0.998125
0.998161
0.998204
0.998251
0.998308
0.998367
0.998438
0.998512
0.998604
0.998006
0.998155
0.998163
0.998175
0.998191
0.998212
0.998237
0.998268
0.998302
0.998344
0.998388
0.998441
0.998496
0.998563
0.99863
0.998715
0.998152
0.998291
0.9983
0.998311
0.998327
0.998347
0.998371
0.9984
0.998433
0.998472
0.998514
0.998563
0.998614
0.998675
0.998737
0.998814
0.998289
0.998419
0.998427
0.998437
0.998453
0.998472
0.998495
0.998522
0.998553
0.998589
0.998628
0.998674
0.998721
0.998776
0.998833
0.998904
0.998416
0.998537
0.998545
0.998555
0.99857
0.998587
0.998609
0.998635
0.998663
0.998697
0.998733
0.998775
0.998818
0.998869
0.99892
0.998985
0.998535
0.998647
0.998655
0.998664
0.998678
0.998694
0.998715
0.998738
0.998765
0.998796
0.998829
0.998868
0.998907
0.998953
0.998999
0.999058
0.998645
0.998749
0.998757
0.998765
0.998778
0.998794
0.998812
0.998834
0.998859
0.998887
0.998918
0.998953
0.998988
0.99903
0.999072
0.999126
0.998747
0.998844
0.998851
0.998859
0.998871
0.998885
0.998903
0.998923
0.998945
0.998971
0.998999
0.999031
0.999063
0.999101
0.999139
0.999188
0.998842
0.998932
0.998939
0.998946
0.998957
0.99897
0.998986
0.999005
0.999025
0.999049
0.999074
0.999103
0.999132
0.999166
0.9992
0.999245
0.998931
0.999014
0.99902
0.999027
0.999037
0.999049
0.999063
0.99908
0.999099
0.999121
0.999143
0.99917
0.999196
0.999227
0.999258
0.999298
0.999012
0.99909
0.999095
0.999101
0.999111
0.999122
0.999135
0.99915
0.999168
0.999187
0.999208
0.999231
0.999255
0.999283
0.999311
0.999348
0.999088
0.99916
0.999165
0.999171
0.99918
0.99919
0.999202
0.999216
0.999231
0.999249
0.999268
0.999289
0.99931
0.999335
0.99936
0.999394
0.999159
0.999226
0.999231
0.999236
0.999244
0.999253
0.999264
0.999276
0.99929
0.999306
0.999323
0.999342
0.999362
0.999384
0.999407
0.999438
0.999225
0.999287
0.999291
0.999296
0.999303
0.999311
0.999321
0.999333
0.999345
0.99936
0.999375
0.999392
0.99941
0.99943
0.999451
0.999479
0.999286
0.999344
0.999348
0.999352
0.999359
0.999366
0.999375
0.999385
0.999397
0.99941
0.999424
0.999439
0.999455
0.999473
0.999492
0.999519
0.999343
0.999397
0.999401
0.999405
0.999411
0.999417
0.999425
0.999435
0.999445
0.999457
0.999469
0.999483
0.999497
0.999514
0.999531
0.999556
0.999396
0.999447
0.99945
0.999454
0.999459
0.999465
0.999473
0.999481
0.99949
0.999501
0.999512
0.999525
0.999538
0.999553
0.999568
0.999591
0.999446
0.999494
0.999497
0.9995
0.999505
0.99951
0.999517
0.999524
0.999533
0.999543
0.999553
0.999564
0.999576
0.999589
0.999604
0.999625
0.999493
0.999537
0.99954
0.999543
0.999547
0.999552
0.999558
0.999565
0.999573
0.999582
0.999591
0.999601
0.999612
0.999624
0.999637
0.999657
0.999537
0.999578
0.999581
0.999583
0.999587
0.999592
0.999597
0.999604
0.999611
0.999619
0.999627
0.999636
0.999646
0.999657
0.999669
0.999688
0.999578
0.999617
0.999619
0.999622
0.999625
0.999629
0.999634
0.99964
0.999646
0.999654
0.999661
0.99967
0.999678
0.999688
0.9997
0.999718
0.999616
0.999653
0.999655
0.999657
0.999661
0.999665
0.999669
0.999674
0.99968
0.999687
0.999694
0.999701
0.999709
0.999719
0.999729
0.999746
0.999653
0.999688
0.999689
0.999691
0.999695
0.999698
0.999702
0.999707
0.999712
0.999718
0.999724
0.999731
0.999739
0.999747
0.999757
0.999773
0.999687
0.99972
0.999722
0.999723
0.999726
0.999729
0.999733
0.999738
0.999743
0.999748
0.999754
0.99976
0.999767
0.999775
0.999784
0.999799
0.99972
0.999751
0.999752
0.999754
0.999756
0.999759
0.999763
0.999767
0.999771
0.999776
0.999782
0.999788
0.999794
0.999801
0.99981
0.999825
0.99975
0.999779
0.999781
0.999782
0.999785
0.999788
0.999791
0.999795
0.999799
0.999804
0.999808
0.999814
0.99982
0.999827
0.999835
0.999849
0.999779
0.999807
0.999808
0.999809
0.999812
0.999814
0.999817
0.999821
0.999825
0.999829
0.999834
0.999839
0.999845
0.999851
0.999859
0.999873
0.999806
0.999832
0.999834
0.999835
0.999837
0.99984
0.999843
0.999846
0.99985
0.999854
0.999858
0.999863
0.999868
0.999874
0.999882
0.999895
0.999832
0.999857
0.999858
0.999859
0.999861
0.999864
0.999867
0.99987
0.999873
0.999877
0.999881
0.999886
0.999891
0.999897
0.999905
0.999917
0.999856
0.99988
0.999881
0.999882
0.999884
0.999886
0.999889
0.999892
0.999896
0.999899
0.999904
0.999908
0.999913
0.999919
0.999926
0.999939
0.999879
0.999901
0.999902
0.999904
0.999906
0.999908
0.99991
0.999914
0.999917
0.999921
0.999925
0.999929
0.999934
0.999939
0.999947
0.999959
0.999901
0.999922
0.999923
0.999924
0.999926
0.999928
0.999931
0.999934
0.999937
0.999941
0.999945
0.999949
0.999954
0.999959
0.999967
0.999979
0.999921
0.999941
0.999942
0.999943
0.999945
0.999947
0.99995
0.999953
0.999956
0.99996
0.999964
0.999968
0.999973
0.999979
0.999986
0.999999
0.99994
0.999958
0.999959
0.99996
0.999962
0.999965
0.999967
0.99997
0.999974
0.999978
0.999982
0.999986
0.999991
0.999997
1
1.00002
0.999958
0.999974
0.999976
0.999977
0.999979
0.999981
0.999984
0.999987
0.99999
0.999994
0.999999
1
1.00001
1.00001
1.00002
1.00004
0.999974
0.999989
0.999991
0.999992
0.999994
0.999996
0.999999
1
1.00001
1.00001
1.00001
1.00002
1.00002
1.00003
1.00004
1.00005
0.999989
1
1
1.00001
1.00001
1.00001
1.00001
1.00002
1.00002
1.00002
1.00003
1.00003
1.00004
1.00005
1.00006
1.00007
1
1.00002
1.00002
1.00002
1.00002
1.00002
1.00002
1.00003
1.00003
1.00004
1.00004
1.00005
1.00005
1.00006
1.00007
1.00009
1.00002
1.00003
1.00003
1.00003
1.00003
1.00003
1.00004
1.00004
1.00004
1.00005
1.00005
1.00006
1.00007
1.00007
1.00009
1.0001
1.00003
1.00004
1.00004
1.00004
1.00004
1.00004
1.00005
1.00005
1.00005
1.00006
1.00006
1.00007
1.00008
1.00009
1.0001
1.00012
1.00004
1.00004
1.00005
1.00005
1.00005
1.00005
1.00005
1.00006
1.00006
1.00007
1.00007
1.00008
1.00009
1.0001
1.00011
1.00013
1.00004
1.00005
1.00005
1.00005
1.00006
1.00006
1.00006
1.00006
1.00007
1.00007
1.00008
1.00008
1.00009
1.0001
1.00012
1.00014
1.00005
1.00006
1.00006
1.00006
1.00006
1.00006
1.00006
1.00007
1.00007
1.00008
1.00008
1.00009
1.0001
1.00011
1.00012
1.00015
1.00006
1.00006
1.00006
1.00006
1.00006
1.00007
1.00007
1.00007
1.00008
1.00008
1.00008
1.00009
1.00009
1.0001
1.00011
1.00013
1.00006
1.00006
1.00006
1.00006
1.00007
1.00007
1.00007
1.00007
1.00008
1.00008
1.00008
1.00009
1.00009
1.0001
1.00011
1.00012
1.00006
)
;

boundaryField
{
    wireUpstream
    {
        type            calculated;
        value           nonuniform List<scalar> 
16
(
1.00007
1.00007
1.00007
1.00007
1.00007
1.00007
1.00007
1.00008
1.00008
1.00008
1.00009
1.00009
1.0001
1.0001
1.0001
1.00007
)
;
    }
    wireDownstream
    {
        type            calculated;
        value           nonuniform List<scalar> 
16
(
1.00149
1.00148
1.00147
1.00146
1.00144
1.00142
1.0014
1.00137
1.00135
1.00133
1.00132
1.00134
1.00139
1.00153
1.00168
1.00149
)
;
    }
    wireTopContact
    {
        type            calculated;
        value           nonuniform List<scalar> 
122
(
1.00143
1.0014
1.00137
1.00136
1.00136
1.00136
1.00136
1.00136
1.00136
1.00136
1.00136
1.00136
1.00136
1.00136
1.00136
1.00136
1.00136
1.00135
1.00135
1.00135
1.00134
1.00134
1.00134
1.00133
1.00133
1.00132
1.00132
1.00132
1.00131
1.00131
1.00131
1.00131
1.00131
1.00131
1.00132
1.00132
1.00133
1.00134
1.00136
1.00137
1.00139
1.00141
1.00144
1.00146
1.00148
1.0015
1.00152
1.00152
1.0015
1.00142
1.0012
1.00083
1.00028
0.999574
0.998719
0.997741
0.996637
0.995523
0.994557
0.993614
0.993507
0.993781
0.994212
0.994764
0.995316
0.995815
0.996256
0.996649
0.996994
0.997297
0.997563
0.997797
0.998002
0.998182
0.998341
0.998482
0.998606
0.998717
0.998817
0.998906
0.998987
0.999061
0.999128
0.99919
0.999247
0.9993
0.99935
0.999396
0.99944
0.999481
0.99952
0.999557
0.999593
0.999626
0.999659
0.999689
0.999719
0.999747
0.999774
0.9998
0.999826
0.99985
0.999874
0.999896
0.999918
0.999939
0.99996
0.99998
0.999999
1.00002
1.00004
1.00005
1.00007
1.00009
1.0001
1.00012
1.00013
1.00014
1.00015
1.00013
1.00012
1.00151
)
;
    }
    front
    {
        type            wedge;
    }
    back
    {
        type            wedge;
    }
}


// ************************************************************************* //
