/*--------------------------------*- C++ -*----------------------------------*\
| =========                 |                                                 |
| \\      /  F ield         | foam-extend: Open Source CFD                    |
|  \\    /   O peration     | Version:     4.1-20200408                       |
|   \\  /    A nd           | Web:         http://www.foam-extend.org         |
|    \\/     M anipulation  |                                                 |
\*---------------------------------------------------------------------------*/
FoamFile
{
    version     2.0;
    format      ascii;
    class       volScalarField;
    location    "0.0175000";
    object      sigmaCauchyEq;
}
// * * * * * * * * * * * * * * * * * * * * * * * * * * * * * * * * * * * * * //

dimensions      [1 -1 -2 0 0 0 0];

internalField   nonuniform List<scalar> 
1952
(
3.76864e+08
3.7456e+08
3.70726e+08
3.66664e+08
3.61613e+08
3.54551e+08
3.47256e+08
3.41088e+08
3.38245e+08
3.42524e+08
3.58929e+08
3.94638e+08
4.51876e+08
5.91395e+08
8.15238e+08
3.77713e+08
3.90267e+08
3.8801e+08
3.84253e+08
3.80247e+08
3.75308e+08
3.68192e+08
3.61207e+08
3.55166e+08
3.52652e+08
3.57055e+08
3.73684e+08
4.08684e+08
4.64697e+08
5.99275e+08
8.08687e+08
3.91141e+08
4.01268e+08
3.99036e+08
3.95304e+08
3.91295e+08
3.86137e+08
3.78925e+08
3.72039e+08
3.65853e+08
3.63203e+08
3.67186e+08
3.83197e+08
4.16531e+08
4.7035e+08
6.01108e+08
8.09242e+08
4.0216e+08
4.09393e+08
4.07131e+08
4.03356e+08
3.99247e+08
3.93728e+08
3.86293e+08
3.79276e+08
3.7272e+08
3.69654e+08
3.72836e+08
3.87873e+08
4.19364e+08
4.71358e+08
6.00148e+08
8.08188e+08
4.10298e+08
4.14854e+08
4.12522e+08
4.0864e+08
4.04343e+08
3.98262e+08
3.9052e+08
3.83245e+08
3.76242e+08
3.72644e+08
3.75039e+08
3.89187e+08
4.19393e+08
4.70468e+08
5.99095e+08
8.0898e+08
4.15789e+08
4.17601e+08
4.1519e+08
4.11176e+08
4.06642e+08
4.00062e+08
3.91998e+08
3.84415e+08
3.77006e+08
3.72857e+08
3.74676e+08
3.88167e+08
4.17627e+08
4.68455e+08
5.97735e+08
8.09651e+08
4.18569e+08
4.18101e+08
4.1564e+08
4.1149e+08
4.0667e+08
3.99728e+08
3.91396e+08
3.83526e+08
3.75767e+08
3.71192e+08
3.72597e+08
3.85711e+08
4.14834e+08
4.65956e+08
5.96327e+08
8.10422e+08
4.19089e+08
4.16703e+08
4.14176e+08
4.09913e+08
4.04715e+08
3.97512e+08
3.88957e+08
3.80853e+08
3.72823e+08
3.67981e+08
3.69181e+08
3.82235e+08
4.11093e+08
4.62836e+08
5.94554e+08
8.10828e+08
4.17702e+08
4.13589e+08
4.11017e+08
4.06662e+08
4.00852e+08
3.93487e+08
3.84797e+08
3.76577e+08
3.68425e+08
3.63494e+08
3.64692e+08
3.77876e+08
4.06899e+08
4.59464e+08
5.92602e+08
8.11018e+08
4.14576e+08
4.09021e+08
4.06379e+08
4.0192e+08
3.95771e+08
3.88319e+08
3.79589e+08
3.71301e+08
3.63152e+08
3.58288e+08
3.59642e+08
3.73154e+08
4.02447e+08
4.55939e+08
5.90453e+08
8.10713e+08
4.10006e+08
4.03375e+08
4.00744e+08
3.96074e+08
3.89753e+08
3.82288e+08
3.73609e+08
3.65323e+08
3.57293e+08
3.52634e+08
3.54263e+08
3.68142e+08
3.97826e+08
4.52262e+08
5.88076e+08
8.09999e+08
4.04366e+08
3.96951e+08
3.94303e+08
3.89322e+08
3.82998e+08
3.75577e+08
3.66979e+08
3.5881e+08
3.50979e+08
3.46628e+08
3.48628e+08
3.62945e+08
3.93091e+08
4.48427e+08
5.85458e+08
8.089e+08
3.97956e+08
3.89884e+08
3.87203e+08
3.82032e+08
3.75722e+08
3.68388e+08
3.59919e+08
3.51904e+08
3.44348e+08
3.4037e+08
3.42831e+08
3.57332e+08
3.88114e+08
4.44339e+08
5.8252e+08
8.0728e+08
3.90909e+08
3.82365e+08
3.79304e+08
3.74171e+08
3.67921e+08
3.6074e+08
3.52418e+08
3.44629e+08
3.37385e+08
3.33852e+08
3.36799e+08
3.51507e+08
3.83097e+08
4.40151e+08
5.79387e+08
8.05347e+08
3.83289e+08
3.7417e+08
3.71109e+08
3.66034e+08
3.59898e+08
3.52883e+08
3.44764e+08
3.37252e+08
3.30359e+08
3.27314e+08
3.3077e+08
3.45637e+08
3.7804e+08
4.35903e+08
5.76105e+08
8.03165e+08
3.75311e+08
3.65705e+08
3.6274e+08
3.57757e+08
3.51777e+08
3.44937e+08
3.37065e+08
3.29852e+08
3.23333e+08
3.20782e+08
3.24767e+08
3.39772e+08
3.72903e+08
4.31613e+08
5.72682e+08
8.00746e+08
3.66826e+08
3.57125e+08
3.5428e+08
3.49415e+08
3.43601e+08
3.36963e+08
3.29338e+08
3.22466e+08
3.16304e+08
3.14249e+08
3.18752e+08
3.33847e+08
3.67713e+08
4.27263e+08
5.69165e+08
7.98144e+08
3.5822e+08
3.48511e+08
3.45791e+08
3.41057e+08
3.35423e+08
3.28988e+08
3.2161e+08
3.15093e+08
3.09263e+08
3.0773e+08
3.12771e+08
3.2794e+08
3.62503e+08
4.22889e+08
5.65578e+08
7.95382e+08
3.49575e+08
3.39897e+08
3.37313e+08
3.3272e+08
3.27286e+08
3.21059e+08
3.13945e+08
3.07822e+08
3.02294e+08
3.0129e+08
3.06857e+08
3.22018e+08
3.57236e+08
4.1847e+08
5.61972e+08
7.92537e+08
3.40928e+08
3.31247e+08
3.288e+08
3.24365e+08
3.19139e+08
3.13125e+08
3.06307e+08
3.00563e+08
2.95357e+08
2.94891e+08
3.0093e+08
3.16114e+08
3.51937e+08
4.14006e+08
5.58319e+08
7.89684e+08
3.32245e+08
3.22583e+08
3.20279e+08
3.16017e+08
3.1101e+08
3.0521e+08
2.98715e+08
2.9332e+08
2.88485e+08
2.8854e+08
2.95044e+08
3.10184e+08
3.46568e+08
4.09472e+08
5.54594e+08
7.869e+08
3.2354e+08
3.1388e+08
3.11729e+08
3.07658e+08
3.02887e+08
2.97311e+08
2.91149e+08
2.86116e+08
2.81652e+08
2.82217e+08
2.89175e+08
3.04304e+08
3.41219e+08
4.04931e+08
5.50885e+08
7.84193e+08
3.14792e+08
3.05147e+08
3.03156e+08
2.99263e+08
2.9476e+08
2.89407e+08
2.83603e+08
2.78936e+08
2.74863e+08
2.75953e+08
2.83323e+08
2.98432e+08
3.35858e+08
4.00387e+08
5.47155e+08
7.81403e+08
3.06015e+08
2.96284e+08
2.9445e+08
2.90753e+08
2.86538e+08
2.81432e+08
2.75995e+08
2.71712e+08
2.68052e+08
2.6966e+08
2.77446e+08
2.92631e+08
3.30555e+08
3.95875e+08
5.43438e+08
7.78584e+08
2.97108e+08
2.87265e+08
2.85613e+08
2.82114e+08
2.78206e+08
2.73391e+08
2.68335e+08
2.64456e+08
2.6127e+08
2.63389e+08
2.71533e+08
2.86799e+08
3.25292e+08
3.91373e+08
5.39738e+08
7.75764e+08
2.8804e+08
2.77946e+08
2.76487e+08
2.73212e+08
2.69636e+08
2.65166e+08
2.60517e+08
2.57096e+08
2.54426e+08
2.57092e+08
2.65569e+08
2.81093e+08
3.20167e+08
3.87006e+08
5.36156e+08
7.73092e+08
2.78661e+08
2.68522e+08
2.67244e+08
2.64249e+08
2.60989e+08
2.56927e+08
2.52676e+08
2.49761e+08
2.47639e+08
2.50886e+08
2.59378e+08
2.75449e+08
3.15145e+08
3.82783e+08
5.32666e+08
7.70557e+08
2.69168e+08
2.58863e+08
2.57771e+08
2.55074e+08
2.52144e+08
2.48529e+08
2.44708e+08
2.42306e+08
2.40798e+08
2.4465e+08
2.53185e+08
2.69828e+08
3.10198e+08
3.78685e+08
5.29288e+08
7.68127e+08
2.59438e+08
2.48848e+08
2.47955e+08
2.45595e+08
2.43007e+08
2.399e+08
2.36567e+08
2.34719e+08
2.3391e+08
2.38358e+08
2.47065e+08
2.6433e+08
3.0541e+08
3.74766e+08
5.26111e+08
7.65928e+08
2.49348e+08
2.38525e+08
2.37848e+08
2.35836e+08
2.33631e+08
2.31079e+08
2.28283e+08
2.2707e+08
2.27029e+08
2.32113e+08
2.4106e+08
2.5898e+08
3.008e+08
3.71088e+08
5.2317e+08
7.64002e+08
2.38944e+08
2.27871e+08
2.27441e+08
2.25784e+08
2.24041e+08
2.22087e+08
2.19894e+08
2.1943e+08
2.20154e+08
2.25918e+08
2.35145e+08
2.53814e+08
2.96391e+08
3.67671e+08
5.20518e+08
7.62393e+08
2.282e+08
2.16885e+08
2.16728e+08
2.15453e+08
2.1423e+08
2.12912e+08
2.1139e+08
2.11753e+08
2.13251e+08
2.19744e+08
2.29308e+08
2.48803e+08
2.92145e+08
3.64443e+08
5.18174e+08
7.61169e+08
2.17114e+08
2.05526e+08
2.05664e+08
2.04779e+08
2.04132e+08
2.0347e+08
2.027e+08
2.03947e+08
2.06278e+08
2.13341e+08
2.23463e+08
2.43886e+08
2.8804e+08
3.61379e+08
5.16118e+08
7.60232e+08
2.05648e+08
1.93692e+08
1.9415e+08
1.93682e+08
1.93681e+08
1.93696e+08
1.93762e+08
1.95968e+08
1.9921e+08
2.06784e+08
2.17764e+08
2.3917e+08
2.84217e+08
3.5862e+08
5.14496e+08
7.59854e+08
1.93695e+08
1.81721e+08
1.8251e+08
1.82479e+08
1.83145e+08
1.8388e+08
1.84816e+08
1.88067e+08
1.92228e+08
2.0039e+08
2.123e+08
2.34735e+08
2.80757e+08
3.56268e+08
5.13365e+08
7.60076e+08
1.816e+08
1.6974e+08
1.70855e+08
1.7127e+08
1.72579e+08
1.74085e+08
1.75894e+08
1.80212e+08
1.85335e+08
1.94172e+08
2.07033e+08
2.30581e+08
2.77606e+08
3.54317e+08
5.12753e+08
7.60923e+08
1.69495e+08
1.57844e+08
1.5927e+08
1.6013e+08
1.62078e+08
1.64368e+08
1.67089e+08
1.72463e+08
1.78542e+08
1.88187e+08
2.02095e+08
2.26781e+08
2.74881e+08
3.52874e+08
5.12776e+08
7.62592e+08
1.57477e+08
1.46409e+08
1.48107e+08
1.49387e+08
1.51918e+08
1.54985e+08
1.58567e+08
1.64944e+08
1.71944e+08
1.82454e+08
1.97456e+08
2.23287e+08
2.72547e+08
3.51936e+08
5.13497e+08
7.65194e+08
1.4593e+08
1.35764e+08
1.3764e+08
1.39257e+08
1.42198e+08
1.45968e+08
1.50266e+08
1.57577e+08
1.65247e+08
1.76856e+08
1.92969e+08
2.20011e+08
2.70517e+08
3.51497e+08
5.14936e+08
7.68795e+08
1.35201e+08
1.26337e+08
1.28247e+08
1.30023e+08
1.33157e+08
1.37457e+08
1.42266e+08
1.50375e+08
1.58552e+08
1.71286e+08
1.8855e+08
2.16899e+08
2.68776e+08
3.51551e+08
5.17167e+08
7.73517e+08
1.2575e+08
1.18804e+08
1.20536e+08
1.2218e+08
1.25196e+08
1.29668e+08
1.34654e+08
1.43283e+08
1.51911e+08
1.65681e+08
1.84039e+08
2.13757e+08
2.67206e+08
3.52014e+08
5.20199e+08
7.79475e+08
1.18288e+08
1.1389e+08
1.1513e+08
1.1622e+08
1.18644e+08
1.22721e+08
1.27456e+08
1.36063e+08
1.44935e+08
1.5956e+08
1.79009e+08
2.10193e+08
2.65528e+08
3.52706e+08
5.2398e+08
7.86627e+08
1.13571e+08
1.12402e+08
1.12782e+08
1.12807e+08
1.14019e+08
1.16966e+08
1.20814e+08
1.28719e+08
1.37645e+08
1.52837e+08
1.73392e+08
2.06121e+08
2.63757e+08
3.53686e+08
5.28666e+08
7.95347e+08
1.12423e+08
1.15781e+08
1.1491e+08
1.13369e+08
1.12582e+08
1.13485e+08
1.15457e+08
1.2165e+08
1.2993e+08
1.45239e+08
1.66869e+08
2.01178e+08
2.61549e+08
3.5467e+08
5.34072e+08
8.05649e+08
1.16256e+08
1.25383e+08
1.22968e+08
1.19468e+08
1.15942e+08
1.13811e+08
1.12552e+08
1.15702e+08
1.22146e+08
1.36735e+08
1.59128e+08
1.9503e+08
2.58565e+08
3.5534e+08
5.40055e+08
8.17512e+08
1.26358e+08
1.4274e+08
1.38694e+08
1.33209e+08
1.26536e+08
1.20595e+08
1.14574e+08
1.13041e+08
1.15873e+08
1.28169e+08
1.50469e+08
1.87644e+08
2.54558e+08
3.55383e+08
5.46349e+08
8.30824e+08
1.44153e+08
1.69491e+08
1.63985e+08
1.56663e+08
1.47072e+08
1.37168e+08
1.25881e+08
1.18071e+08
1.15128e+08
1.22322e+08
1.42608e+08
1.79775e+08
2.49758e+08
3.54646e+08
5.52718e+08
8.45478e+08
1.71233e+08
2.07114e+08
2.00509e+08
1.91806e+08
1.79822e+08
1.66201e+08
1.50569e+08
1.3643e+08
1.26505e+08
1.25188e+08
1.39978e+08
1.73829e+08
2.451e+08
3.531e+08
5.58598e+08
8.60954e+08
2.09069e+08
2.56953e+08
2.49575e+08
2.39837e+08
2.26155e+08
2.09904e+08
1.91193e+08
1.72273e+08
1.56232e+08
1.45328e+08
1.50846e+08
1.75693e+08
2.43641e+08
3.516e+08
5.63225e+08
8.76246e+08
2.58967e+08
3.19793e+08
3.11949e+08
3.01766e+08
2.86652e+08
2.69098e+08
2.48632e+08
2.26882e+08
2.06746e+08
1.88516e+08
1.84277e+08
1.95463e+08
2.53055e+08
3.54523e+08
5.67989e+08
8.90458e+08
3.21765e+08
3.95732e+08
3.87771e+08
3.77022e+08
3.61612e+08
3.43725e+08
3.22597e+08
2.99596e+08
2.77353e+08
2.54964e+08
2.43842e+08
2.42294e+08
2.84894e+08
3.72216e+08
5.80412e+08
9.06806e+08
3.9755e+08
4.84131e+08
4.7616e+08
4.6568e+08
4.50659e+08
4.33177e+08
4.12244e+08
3.89279e+08
3.66337e+08
3.42287e+08
3.27272e+08
3.17205e+08
3.45804e+08
4.14545e+08
6.09535e+08
9.31304e+08
4.85901e+08
5.83346e+08
5.75935e+08
5.66119e+08
5.52051e+08
5.3564e+08
5.15686e+08
4.93776e+08
4.71192e+08
4.47166e+08
4.30179e+08
4.15185e+08
4.32952e+08
4.82671e+08
6.57206e+08
9.63396e+08
5.84912e+08
6.90931e+08
6.84364e+08
6.75588e+08
6.62978e+08
6.48236e+08
6.30009e+08
6.10001e+08
5.8866e+08
5.65888e+08
5.48102e+08
5.3059e+08
5.40176e+08
5.72727e+08
7.22278e+08
1.00138e+09
6.9226e+08
8.02866e+08
7.974e+08
7.89971e+08
7.79278e+08
7.66754e+08
7.50934e+08
7.33602e+08
7.14344e+08
6.93845e+08
6.76185e+08
6.57886e+08
6.60989e+08
6.78798e+08
8.01263e+08
1.04372e+09
8.03938e+08
9.14068e+08
9.09872e+08
9.04056e+08
8.95638e+08
8.8578e+08
8.72984e+08
8.58991e+08
8.42674e+08
8.25394e+08
8.08851e+08
7.91346e+08
7.89258e+08
7.95004e+08
8.89841e+08
1.08847e+09
9.14869e+08
1.01861e+09
1.01576e+09
1.01169e+09
1.00575e+09
9.98827e+08
9.89498e+08
9.79332e+08
9.66753e+08
9.53576e+08
9.39331e+08
9.24313e+08
9.18569e+08
9.15506e+08
9.83296e+08
1.13337e+09
1.01914e+09
1.11036e+09
1.10879e+09
1.10643e+09
1.10294e+09
1.09892e+09
1.09319e+09
1.08701e+09
1.07874e+09
1.07029e+09
1.05969e+09
1.04892e+09
1.04183e+09
1.03423e+09
1.07718e+09
1.17644e+09
1.11064e+09
1.18294e+09
1.18238e+09
1.18143e+09
1.17999e+09
1.17842e+09
1.17586e+09
1.17323e+09
1.16917e+09
1.16537e+09
1.15944e+09
1.15429e+09
1.14902e+09
1.14268e+09
1.16604e+09
1.2154e+09
1.18302e+09
1.23128e+09
1.23134e+09
1.23131e+09
1.23123e+09
1.23128e+09
1.23099e+09
1.23086e+09
1.23017e+09
1.23002e+09
1.22889e+09
1.22946e+09
1.22922e+09
1.23023e+09
1.24223e+09
1.25136e+09
1.23124e+09
1.25254e+09
1.25255e+09
1.25257e+09
1.25259e+09
1.25261e+09
1.25264e+09
1.25266e+09
1.25268e+09
1.25269e+09
1.25267e+09
1.25261e+09
1.25249e+09
1.25228e+09
1.25189e+09
1.25133e+09
1.25254e+09
1.25254e+09
1.25255e+09
1.25256e+09
1.25258e+09
1.25259e+09
1.25261e+09
1.25262e+09
1.25263e+09
1.25262e+09
1.25258e+09
1.25251e+09
1.25235e+09
1.2521e+09
1.25168e+09
1.25114e+09
1.25254e+09
1.25245e+09
1.25246e+09
1.25246e+09
1.25247e+09
1.25247e+09
1.25248e+09
1.25247e+09
1.25245e+09
1.25241e+09
1.25235e+09
1.25223e+09
1.25204e+09
1.25175e+09
1.25136e+09
1.25089e+09
1.25245e+09
1.25228e+09
1.25228e+09
1.25227e+09
1.25227e+09
1.25226e+09
1.25224e+09
1.25221e+09
1.25216e+09
1.25208e+09
1.25197e+09
1.25181e+09
1.25159e+09
1.25131e+09
1.25099e+09
1.25066e+09
1.25228e+09
1.25203e+09
1.25201e+09
1.252e+09
1.25198e+09
1.25195e+09
1.25191e+09
1.25185e+09
1.25177e+09
1.25165e+09
1.2515e+09
1.25131e+09
1.25108e+09
1.25083e+09
1.25061e+09
1.25043e+09
1.25203e+09
1.2517e+09
1.25168e+09
1.25166e+09
1.25162e+09
1.25157e+09
1.25151e+09
1.25143e+09
1.25132e+09
1.25117e+09
1.25099e+09
1.25079e+09
1.25057e+09
1.25037e+09
1.25024e+09
1.25021e+09
1.2517e+09
1.25131e+09
1.25129e+09
1.25126e+09
1.25121e+09
1.25115e+09
1.25106e+09
1.25096e+09
1.25083e+09
1.25067e+09
1.25048e+09
1.2503e+09
1.25016e+09
1.25005e+09
1.25001e+09
1.25005e+09
1.25131e+09
1.25088e+09
1.25085e+09
1.25082e+09
1.25076e+09
1.25068e+09
1.25058e+09
1.25047e+09
1.25033e+09
1.25022e+09
1.25009e+09
1.24138e+09
1.19597e+09
1.17036e+09
1.17259e+09
1.21321e+09
1.25088e+09
1.25041e+09
1.25038e+09
1.25034e+09
1.2503e+09
1.25024e+09
1.25017e+09
1.25008e+09
1.24147e+09
1.19618e+09
1.1537e+09
1.11932e+09
1.09571e+09
1.0899e+09
1.10833e+09
1.15757e+09
1.25042e+09
1.25004e+09
1.25002e+09
1.24301e+09
1.22246e+09
1.19792e+09
1.16699e+09
1.13402e+09
1.10063e+09
1.06981e+09
1.04236e+09
1.02312e+09
1.01041e+09
1.01606e+09
1.04483e+09
1.09994e+09
1.25005e+09
1.11433e+09
1.10452e+09
1.09187e+09
1.07491e+09
1.0557e+09
1.03357e+09
1.01183e+09
9.88882e+08
9.64766e+08
9.45008e+08
9.3573e+08
9.35898e+08
9.51816e+08
9.86074e+08
1.04144e+09
1.11735e+09
9.88759e+08
9.82234e+08
9.7246e+08
9.57464e+08
9.40591e+08
9.21721e+08
9.03948e+08
8.87267e+08
8.73473e+08
8.63945e+08
8.63292e+08
8.71152e+08
8.9283e+08
9.29574e+08
9.83482e+08
9.90552e+08
8.75561e+08
8.69596e+08
8.61561e+08
8.50527e+08
8.38559e+08
8.25622e+08
8.14105e+08
8.0377e+08
7.9653e+08
7.93891e+08
7.99496e+08
8.13285e+08
8.38619e+08
8.75941e+08
9.27045e+08
8.77305e+08
7.79466e+08
7.75143e+08
7.69191e+08
7.61103e+08
7.5258e+08
7.43825e+08
7.36803e+08
7.31673e+08
7.30353e+08
7.33548e+08
7.43889e+08
7.61385e+08
7.88393e+08
8.24968e+08
8.72676e+08
7.80736e+08
6.96159e+08
6.93094e+08
6.88999e+08
6.83857e+08
6.78772e+08
6.74092e+08
6.71273e+08
6.70602e+08
6.73644e+08
6.80997e+08
6.94516e+08
7.14245e+08
7.41698e+08
7.7674e+08
8.20791e+08
6.97125e+08
6.25488e+08
6.23707e+08
6.21289e+08
6.18573e+08
6.16229e+08
6.14786e+08
6.15264e+08
6.1811e+08
6.24478e+08
6.34836e+08
6.50391e+08
6.71189e+08
6.98192e+08
7.31197e+08
7.71528e+08
6.2611e+08
5.65257e+08
5.64577e+08
5.63601e+08
5.62967e+08
5.62939e+08
5.6419e+08
5.6732e+08
5.72884e+08
5.81603e+08
5.93941e+08
6.10592e+08
6.31632e+08
6.57617e+08
6.88335e+08
7.2505e+08
5.65581e+08
5.14279e+08
5.14541e+08
5.14755e+08
5.15795e+08
5.17583e+08
5.20916e+08
5.26029e+08
5.33566e+08
5.43859e+08
5.57389e+08
5.74445e+08
5.95136e+08
6.19738e+08
6.48056e+08
6.81318e+08
5.14339e+08
4.7105e+08
4.72074e+08
4.7324e+08
4.75603e+08
4.78791e+08
4.83697e+08
4.90238e+08
4.99128e+08
5.10366e+08
5.24468e+08
5.41415e+08
5.61356e+08
5.8437e+08
6.1029e+08
6.40328e+08
4.70889e+08
4.34398e+08
4.36014e+08
4.37909e+08
4.41264e+08
4.45471e+08
4.51491e+08
4.58981e+08
4.68704e+08
4.80397e+08
4.94605e+08
5.11082e+08
5.30012e+08
5.51341e+08
5.74933e+08
6.01997e+08
4.3406e+08
4.03212e+08
4.05264e+08
4.07691e+08
4.11752e+08
4.16657e+08
4.2341e+08
4.3146e+08
4.41605e+08
4.53376e+08
4.67347e+08
4.83109e+08
5.00872e+08
5.20496e+08
5.41873e+08
5.66216e+08
4.02738e+08
3.76564e+08
3.78915e+08
3.81702e+08
3.86224e+08
3.91559e+08
3.98726e+08
4.07025e+08
4.17269e+08
4.28842e+08
4.42333e+08
4.57223e+08
4.7374e+08
4.91696e+08
5.11005e+08
5.32889e+08
3.75993e+08
3.53645e+08
3.56178e+08
3.59182e+08
3.63963e+08
3.69509e+08
3.7684e+08
3.85147e+08
3.95246e+08
4.06422e+08
4.19266e+08
4.33194e+08
4.48439e+08
4.64793e+08
4.82183e+08
5.01846e+08
3.5301e+08
3.33777e+08
3.36396e+08
3.395e+08
3.44376e+08
3.49963e+08
3.5726e+08
3.65395e+08
3.75171e+08
3.85813e+08
3.97906e+08
4.10831e+08
4.2482e+08
4.39664e+08
4.553e+08
4.72982e+08
3.33108e+08
3.1639e+08
3.19019e+08
3.22131e+08
3.26974e+08
3.3247e+08
3.39587e+08
3.4742e+08
3.56747e+08
3.66768e+08
3.7805e+08
3.89966e+08
4.02738e+08
4.16172e+08
4.30209e+08
4.46121e+08
3.15708e+08
3.01012e+08
3.03591e+08
3.06641e+08
3.11356e+08
3.16665e+08
3.23495e+08
3.30936e+08
3.39733e+08
3.49084e+08
3.5953e+08
3.70458e+08
3.8207e+08
3.94201e+08
4.06792e+08
4.21137e+08
3.00336e+08
2.87252e+08
2.89739e+08
2.92676e+08
2.97193e+08
3.02249e+08
3.08719e+08
3.15711e+08
3.23929e+08
3.32591e+08
3.42202e+08
3.5218e+08
3.62701e+08
3.73638e+08
3.84927e+08
3.97887e+08
2.86596e+08
2.74793e+08
2.77158e+08
2.79946e+08
2.84219e+08
2.88979e+08
2.95044e+08
3.01556e+08
3.09173e+08
3.17147e+08
3.25944e+08
3.35021e+08
3.44526e+08
3.54374e+08
3.64495e+08
3.7623e+08
2.74167e+08
2.63378e+08
2.65601e+08
2.68219e+08
2.72219e+08
2.76657e+08
2.82294e+08
2.88316e+08
2.95329e+08
3.02634e+08
3.10648e+08
3.18884e+08
3.27451e+08
3.36313e+08
3.45394e+08
3.56055e+08
2.62788e+08
2.528e+08
2.54871e+08
2.57306e+08
2.61019e+08
2.65125e+08
2.70327e+08
2.75862e+08
2.82285e+08
2.88947e+08
2.96223e+08
3.03677e+08
3.11384e+08
3.19357e+08
3.27507e+08
3.37219e+08
2.5225e+08
2.42894e+08
2.44808e+08
2.47056e+08
2.50478e+08
2.54255e+08
2.59026e+08
2.64089e+08
2.69944e+08
2.76002e+08
2.82586e+08
2.89322e+08
2.96245e+08
3.03421e+08
3.10747e+08
3.1963e+08
2.42384e+08
2.33528e+08
2.35287e+08
2.37351e+08
2.40487e+08
2.43943e+08
2.48298e+08
2.52912e+08
2.58229e+08
2.63723e+08
2.69666e+08
2.75746e+08
2.81958e+08
2.88419e+08
2.95013e+08
3.03166e+08
2.3306e+08
2.24601e+08
2.26209e+08
2.28095e+08
2.30956e+08
2.34106e+08
2.38066e+08
2.42258e+08
2.47072e+08
2.52046e+08
2.574e+08
2.62885e+08
2.68454e+08
2.74279e+08
2.80224e+08
2.87741e+08
2.24174e+08
2.16033e+08
2.17498e+08
2.19215e+08
2.21815e+08
2.24679e+08
2.28268e+08
2.3207e+08
2.36418e+08
2.40916e+08
2.45731e+08
2.5068e+08
2.55672e+08
2.60931e+08
2.66303e+08
2.73263e+08
2.15644e+08
2.07763e+08
2.09094e+08
2.10653e+08
2.1301e+08
2.15608e+08
2.18855e+08
2.22298e+08
2.26219e+08
2.30285e+08
2.34613e+08
2.3908e+08
2.43555e+08
2.48313e+08
2.53178e+08
2.59648e+08
2.0741e+08
1.99744e+08
2.00951e+08
2.02365e+08
2.04498e+08
2.06852e+08
2.09784e+08
2.12902e+08
2.16435e+08
2.20111e+08
2.24001e+08
2.28039e+08
2.32053e+08
2.36369e+08
2.40788e+08
2.46834e+08
1.99424e+08
1.91941e+08
1.93034e+08
1.94316e+08
1.96244e+08
1.98378e+08
2.01024e+08
2.03849e+08
2.07031e+08
2.1036e+08
2.13856e+08
2.17514e+08
2.21119e+08
2.25045e+08
2.2907e+08
2.34742e+08
1.91651e+08
1.84327e+08
1.85317e+08
1.8648e+08
1.88222e+08
1.9016e+08
1.92547e+08
1.95111e+08
1.97978e+08
2.00999e+08
2.04145e+08
2.07467e+08
2.10711e+08
2.14296e+08
2.17977e+08
2.23325e+08
1.84065e+08
1.76885e+08
1.77782e+08
1.78838e+08
1.80414e+08
1.82175e+08
1.84331e+08
1.86664e+08
1.89251e+08
1.92001e+08
1.94836e+08
1.97865e+08
2.00789e+08
2.04078e+08
2.07456e+08
2.12519e+08
1.76646e+08
1.69599e+08
1.70413e+08
1.71376e+08
1.72802e+08
1.74409e+08
1.76359e+08
1.78488e+08
1.80827e+08
1.8334e+08
1.85902e+08
1.88676e+08
1.91321e+08
1.94352e+08
1.97465e+08
2.02282e+08
1.69382e+08
1.62462e+08
1.63202e+08
1.64082e+08
1.65376e+08
1.66848e+08
1.68615e+08
1.70568e+08
1.72688e+08
1.74996e+08
1.77319e+08
1.79872e+08
1.82275e+08
1.85084e+08
1.87967e+08
1.92572e+08
1.62264e+08
1.55468e+08
1.56142e+08
1.56951e+08
1.58127e+08
1.59481e+08
1.61089e+08
1.62889e+08
1.64818e+08
1.6695e+08
1.69065e+08
1.7143e+08
1.73623e+08
1.76242e+08
1.78926e+08
1.83348e+08
1.55286e+08
1.48615e+08
1.49231e+08
1.49978e+08
1.5105e+08
1.52303e+08
1.53769e+08
1.5544e+08
1.57201e+08
1.59184e+08
1.6112e+08
1.63328e+08
1.6534e+08
1.67802e+08
1.70316e+08
1.74584e+08
1.48447e+08
1.41904e+08
1.42469e+08
1.43162e+08
1.44142e+08
1.45309e+08
1.46651e+08
1.4821e+08
1.49827e+08
1.51685e+08
1.53466e+08
1.55543e+08
1.57404e+08
1.59735e+08
1.62105e+08
1.66243e+08
1.41749e+08
1.35341e+08
1.35859e+08
1.36505e+08
1.37404e+08
1.38496e+08
1.39728e+08
1.41194e+08
1.42684e+08
1.44438e+08
1.46089e+08
1.4806e+08
1.49795e+08
1.52022e+08
1.54273e+08
1.58308e+08
1.35196e+08
1.28931e+08
1.29408e+08
1.30012e+08
1.30838e+08
1.31864e+08
1.33e+08
1.34385e+08
1.35765e+08
1.37434e+08
1.38974e+08
1.40861e+08
1.42492e+08
1.44639e+08
1.46796e+08
1.5075e+08
1.28795e+08
1.22686e+08
1.23125e+08
1.23692e+08
1.2445e+08
1.25418e+08
1.26465e+08
1.27781e+08
1.29064e+08
1.30662e+08
1.32108e+08
1.3393e+08
1.35479e+08
1.37569e+08
1.39656e+08
1.43553e+08
1.22559e+08
1.16623e+08
1.17024e+08
1.17557e+08
1.18251e+08
1.19165e+08
1.2013e+08
1.21383e+08
1.22578e+08
1.24117e+08
1.25481e+08
1.27255e+08
1.28741e+08
1.30795e+08
1.32834e+08
1.36699e+08
1.16504e+08
1.1076e+08
1.11125e+08
1.11623e+08
1.12255e+08
1.13116e+08
1.14001e+08
1.15195e+08
1.16306e+08
1.17792e+08
1.19085e+08
1.20823e+08
1.22263e+08
1.243e+08
1.26315e+08
1.30172e+08
1.10649e+08
1.05124e+08
1.05452e+08
1.05913e+08
1.06482e+08
1.07287e+08
1.08092e+08
1.09225e+08
1.10252e+08
1.11688e+08
1.12913e+08
1.14625e+08
1.16032e+08
1.1807e+08
1.20087e+08
1.23964e+08
1.05021e+08
9.97457e+07
1.00036e+08
1.00456e+08
1.00959e+08
1.01702e+08
1.02422e+08
1.03486e+08
1.04426e+08
1.05806e+08
1.06964e+08
1.0865e+08
1.10034e+08
1.12088e+08
1.1413e+08
1.18055e+08
9.96524e+07
9.4664e+07
9.49139e+07
9.52873e+07
9.57189e+07
9.63889e+07
9.70173e+07
9.79991e+07
9.88422e+07
1.00154e+08
1.01237e+08
1.02894e+08
1.04258e+08
1.06339e+08
1.08433e+08
1.12437e+08
9.45815e+07
8.99225e+07
9.01287e+07
9.0448e+07
9.08024e+07
9.13864e+07
9.1912e+07
9.27928e+07
9.35241e+07
9.47464e+07
9.5739e+07
9.73528e+07
9.86937e+07
1.00804e+08
1.02976e+08
1.07091e+08
8.98526e+07
8.55707e+07
8.57304e+07
8.59874e+07
8.62583e+07
8.67404e+07
8.71513e+07
8.79064e+07
8.85068e+07
8.96084e+07
9.04867e+07
9.20288e+07
9.33314e+07
9.54657e+07
9.77385e+07
1.02e+08
8.55153e+07
8.1662e+07
8.17732e+07
8.19601e+07
8.21424e+07
8.25062e+07
8.27911e+07
8.33919e+07
8.38397e+07
8.47793e+07
8.55102e+07
8.69361e+07
8.81697e+07
9.0305e+07
9.26943e+07
9.71379e+07
8.16228e+07
7.82515e+07
7.83144e+07
7.84249e+07
7.8517e+07
7.87481e+07
7.8899e+07
7.93164e+07
7.95908e+07
8.03187e+07
8.0862e+07
8.21077e+07
8.3222e+07
8.53123e+07
8.78185e+07
9.24635e+07
7.823e+07
7.53934e+07
7.54105e+07
7.54423e+07
7.54477e+07
7.55372e+07
7.55538e+07
7.57634e+07
7.58498e+07
7.63127e+07
7.66245e+07
7.76032e+07
7.85218e+07
8.04878e+07
8.3083e+07
8.79299e+07
7.53899e+07
7.31338e+07
7.31112e+07
7.30669e+07
7.29962e+07
7.29447e+07
7.2838e+07
7.28283e+07
7.27261e+07
7.28783e+07
7.29187e+07
7.35186e+07
7.41257e+07
7.58138e+07
7.83919e+07
8.34417e+07
7.31475e+07
7.14987e+07
7.14453e+07
7.13334e+07
7.12045e+07
7.10244e+07
7.08205e+07
7.06013e+07
7.0337e+07
7.01623e+07
6.99254e+07
7.00409e+07
7.02076e+07
7.13488e+07
7.36264e+07
7.88132e+07
7.15277e+07
7.04983e+07
7.04266e+07
7.02605e+07
7.00995e+07
6.98153e+07
6.95584e+07
6.91666e+07
6.88084e+07
6.83523e+07
6.79258e+07
6.75655e+07
6.73144e+07
6.76933e+07
6.92866e+07
7.41082e+07
7.05393e+07
7.03299e+07
7.02505e+07
7.00447e+07
6.98741e+07
6.95129e+07
6.92422e+07
6.8723e+07
6.8337e+07
6.76751e+07
6.71718e+07
6.64509e+07
6.5932e+07
6.55495e+07
6.60822e+07
6.92143e+07
7.03796e+07
7.05571e+07
7.04766e+07
7.02552e+07
7.00851e+07
6.96931e+07
6.94238e+07
6.88524e+07
6.84642e+07
6.77153e+07
6.71898e+07
6.6309e+07
6.56792e+07
6.49105e+07
6.48429e+07
6.64848e+07
7.06102e+07
)
;

boundaryField
{
    wireUpstream
    {
        type            calculated;
        value           nonuniform List<scalar> 
16
(
7.08627e+07
7.07863e+07
7.0551e+07
7.03935e+07
6.99718e+07
6.97233e+07
6.90991e+07
6.87355e+07
6.78948e+07
6.73791e+07
6.63263e+07
6.56205e+07
6.44784e+07
6.38523e+07
6.35104e+07
7.09184e+07
)
;
    }
    wireDownstream
    {
        type            calculated;
        value           nonuniform List<scalar> 
16
(
3.76567e+08
3.74254e+08
3.70411e+08
3.66332e+08
3.61258e+08
3.54172e+08
3.46838e+08
3.40624e+08
3.37704e+08
3.41891e+08
3.58152e+08
3.93706e+08
4.50924e+08
5.91853e+08
8.27323e+08
3.77413e+08
)
;
    }
    wireTopContact
    {
        type            calculated;
        value           nonuniform List<scalar> 
122
(
8.07682e+08
8.07248e+08
8.05815e+08
8.06479e+08
8.07078e+08
8.07811e+08
8.08216e+08
8.08422e+08
8.08172e+08
8.07493e+08
8.0643e+08
8.04844e+08
8.02938e+08
8.00778e+08
7.98375e+08
7.95779e+08
7.93013e+08
7.90156e+08
7.87287e+08
7.84484e+08
7.81762e+08
7.78962e+08
7.76142e+08
7.73305e+08
7.70611e+08
7.68046e+08
7.65581e+08
7.63345e+08
7.61381e+08
7.59736e+08
7.58478e+08
7.575e+08
7.57071e+08
7.5723e+08
7.58013e+08
7.59596e+08
7.62106e+08
7.65603e+08
7.7021e+08
7.76057e+08
7.83093e+08
7.91694e+08
8.01895e+08
8.13701e+08
8.27014e+08
8.41759e+08
8.575e+08
8.73395e+08
8.88523e+08
9.05911e+08
9.31437e+08
9.63736e+08
1.00207e+09
1.04428e+09
1.08846e+09
1.13243e+09
1.17505e+09
1.21275e+09
1.25135e+09
1.25133e+09
1.25113e+09
1.25087e+09
1.25064e+09
1.25041e+09
1.2502e+09
1.25004e+09
1.21059e+09
1.15658e+09
1.09959e+09
1.0414e+09
9.83619e+08
9.27268e+08
8.72937e+08
8.21074e+08
7.71806e+08
7.25325e+08
6.81578e+08
6.40575e+08
6.02229e+08
5.6643e+08
5.33092e+08
5.0203e+08
4.73154e+08
4.46276e+08
4.21279e+08
3.98015e+08
3.76343e+08
3.56156e+08
3.37305e+08
3.19705e+08
3.03228e+08
2.87791e+08
2.73302e+08
2.59675e+08
2.46852e+08
2.34748e+08
2.23322e+08
2.12505e+08
2.02259e+08
1.92539e+08
1.83304e+08
1.74531e+08
1.66178e+08
1.58232e+08
1.50662e+08
1.43452e+08
1.36586e+08
1.30045e+08
1.23824e+08
1.17899e+08
1.12269e+08
1.06911e+08
1.01812e+08
9.69487e+07
9.22828e+07
8.77718e+07
8.33398e+07
7.8859e+07
7.43975e+07
6.97752e+07
6.70553e+07
8.19375e+08
)
;
    }
    front
    {
        type            wedge;
    }
    back
    {
        type            wedge;
    }
}


// ************************************************************************* //
