/*--------------------------------*- C++ -*----------------------------------*\
| =========                 |                                                 |
| \\      /  F ield         | foam-extend: Open Source CFD                    |
|  \\    /   O peration     | Version:     4.1-20200408                       |
|   \\  /    A nd           | Web:         http://www.foam-extend.org         |
|    \\/     M anipulation  |                                                 |
\*---------------------------------------------------------------------------*/
FoamFile
{
    version     2.0;
    format      ascii;
    class       volScalarField::DimensionedInternalField;
    location    "0.0175000";
    object      V0;
}
// * * * * * * * * * * * * * * * * * * * * * * * * * * * * * * * * * * * * * //

dimensions      [0 3 0 0 0 0 0];

value           nonuniform List<scalar> 
1952
(
1.43342e-14
2.38903e-14
3.34458e-14
4.30009e-14
5.25559e-14
6.21098e-14
7.16631e-14
8.12165e-14
9.07663e-14
1.00321e-13
1.09872e-13
1.19429e-13
1.28986e-13
1.38566e-13
1.48147e-13
4.77818e-15
1.43331e-14
2.38884e-14
3.34432e-14
4.29975e-14
5.25518e-14
6.21049e-14
7.16575e-14
8.12101e-14
9.07592e-14
1.00313e-13
1.09863e-13
1.1942e-13
1.28977e-13
1.38558e-13
1.48142e-13
4.7778e-15
1.4332e-14
2.38867e-14
3.34408e-14
4.29944e-14
5.25479e-14
6.21003e-14
7.16523e-14
8.12043e-14
9.07528e-14
1.00306e-13
1.09856e-13
1.19413e-13
1.2897e-13
1.38553e-13
1.48139e-13
4.77745e-15
1.4331e-14
2.3885e-14
3.34385e-14
4.29914e-14
5.25443e-14
6.20961e-14
7.16474e-14
8.11989e-14
9.0747e-14
1.003e-13
1.0985e-13
1.19406e-13
1.28965e-13
1.38548e-13
1.48136e-13
4.77712e-15
1.43301e-14
2.38834e-14
3.34363e-14
4.29887e-14
5.2541e-14
6.20923e-14
7.16431e-14
8.11941e-14
9.0742e-14
1.00295e-13
1.09845e-13
1.19401e-13
1.2896e-13
1.38545e-13
1.48134e-13
4.7768e-15
1.43292e-14
2.3882e-14
3.34343e-14
4.29862e-14
5.25379e-14
6.20887e-14
7.16392e-14
8.11898e-14
9.07374e-14
1.0029e-13
1.0984e-13
1.19397e-13
1.28956e-13
1.38541e-13
1.48131e-13
4.77652e-15
1.43284e-14
2.38806e-14
3.34324e-14
4.29837e-14
5.25349e-14
6.20853e-14
7.16353e-14
8.11856e-14
9.0733e-14
1.00285e-13
1.09835e-13
1.19392e-13
1.28952e-13
1.38537e-13
1.48128e-13
4.77624e-15
1.43275e-14
2.38792e-14
3.34305e-14
4.29812e-14
5.25319e-14
6.20818e-14
7.16314e-14
8.11814e-14
9.07285e-14
1.00281e-13
1.09831e-13
1.19388e-13
1.28947e-13
1.38534e-13
1.48125e-13
4.77595e-15
1.43267e-14
2.38779e-14
3.34286e-14
4.29789e-14
5.25291e-14
6.20786e-14
7.16278e-14
8.11776e-14
9.07244e-14
1.00277e-13
1.09826e-13
1.19383e-13
1.28943e-13
1.3853e-13
1.48121e-13
4.77568e-15
1.43259e-14
2.38765e-14
3.34268e-14
4.29765e-14
5.25263e-14
6.20754e-14
7.16241e-14
8.11736e-14
9.07201e-14
1.00272e-13
1.09822e-13
1.19379e-13
1.28939e-13
1.38525e-13
1.48117e-13
4.77541e-15
1.43253e-14
2.38755e-14
3.34253e-14
4.29746e-14
5.25241e-14
6.20728e-14
7.16213e-14
8.11705e-14
9.07169e-14
1.00269e-13
1.09819e-13
1.19375e-13
1.28935e-13
1.38522e-13
1.48115e-13
4.7752e-15
1.43246e-14
2.38743e-14
3.34237e-14
4.29726e-14
5.25216e-14
6.207e-14
7.16181e-14
8.11671e-14
9.07132e-14
1.00265e-13
1.09814e-13
1.19371e-13
1.28931e-13
1.38518e-13
1.48111e-13
4.77496e-15
1.43239e-14
2.38732e-14
3.34221e-14
4.29706e-14
5.25193e-14
6.20673e-14
7.16151e-14
8.11637e-14
9.07096e-14
1.00261e-13
1.09811e-13
1.19367e-13
1.28927e-13
1.38515e-13
1.48107e-13
4.77474e-15
1.43233e-14
2.38721e-14
3.34206e-14
4.29687e-14
5.25171e-14
6.20647e-14
7.16122e-14
8.11606e-14
9.07063e-14
1.00258e-13
1.09807e-13
1.19363e-13
1.28923e-13
1.38511e-13
1.48104e-13
4.77452e-15
1.43226e-14
2.3871e-14
3.34191e-14
4.29668e-14
5.25147e-14
6.2062e-14
7.16091e-14
8.11571e-14
9.07026e-14
1.00254e-13
1.09803e-13
1.19359e-13
1.28919e-13
1.38506e-13
1.48099e-13
4.7743e-15
1.4322e-14
2.387e-14
3.34177e-14
4.29649e-14
5.25125e-14
6.20594e-14
7.16063e-14
8.11539e-14
9.06992e-14
1.0025e-13
1.09799e-13
1.19355e-13
1.28915e-13
1.38502e-13
1.48095e-13
4.7741e-15
1.43214e-14
2.3869e-14
3.34163e-14
4.29632e-14
5.25104e-14
6.20569e-14
7.16035e-14
8.11508e-14
9.06959e-14
1.00246e-13
1.09795e-13
1.19351e-13
1.28911e-13
1.38498e-13
1.48091e-13
4.7739e-15
1.43207e-14
2.38679e-14
3.34148e-14
4.29612e-14
5.25081e-14
6.20542e-14
7.16005e-14
8.11474e-14
9.06922e-14
1.00242e-13
1.0979e-13
1.19346e-13
1.28906e-13
1.38493e-13
1.48086e-13
4.77368e-15
1.43203e-14
2.38671e-14
3.34137e-14
4.29599e-14
5.25064e-14
6.20523e-14
7.15984e-14
8.1145e-14
9.06896e-14
1.0024e-13
1.09787e-13
1.19343e-13
1.28903e-13
1.3849e-13
1.48084e-13
4.77352e-15
1.43197e-14
2.38661e-14
3.34124e-14
4.29582e-14
5.25043e-14
6.20499e-14
7.15956e-14
8.11419e-14
9.06863e-14
1.00236e-13
1.09783e-13
1.19339e-13
1.28899e-13
1.38486e-13
1.48079e-13
4.77332e-15
1.43189e-14
2.38648e-14
3.34105e-14
4.29558e-14
5.25015e-14
6.20466e-14
7.15918e-14
8.11377e-14
9.06816e-14
1.00231e-13
1.09778e-13
1.19333e-13
1.28893e-13
1.3848e-13
1.48073e-13
4.77306e-15
1.43184e-14
2.3864e-14
3.34094e-14
4.29543e-14
5.24997e-14
6.20445e-14
7.15895e-14
8.11351e-14
9.06788e-14
1.00228e-13
1.09775e-13
1.1933e-13
1.28889e-13
1.38477e-13
1.4807e-13
4.77289e-15
1.43177e-14
2.38629e-14
3.34079e-14
4.29524e-14
5.24975e-14
6.20419e-14
7.15865e-14
8.11318e-14
9.06752e-14
1.00224e-13
1.0977e-13
1.19326e-13
1.28885e-13
1.38472e-13
1.48065e-13
4.77267e-15
1.43171e-14
2.38619e-14
3.34064e-14
4.29506e-14
5.24952e-14
6.20393e-14
7.15836e-14
8.11285e-14
9.06717e-14
1.00221e-13
1.09766e-13
1.19321e-13
1.2888e-13
1.38468e-13
1.48061e-13
4.77246e-15
1.43165e-14
2.38609e-14
3.34051e-14
4.29489e-14
5.24931e-14
6.20368e-14
7.15808e-14
8.11255e-14
9.06683e-14
1.00217e-13
1.09762e-13
1.19317e-13
1.28876e-13
1.38464e-13
1.48057e-13
4.77226e-15
1.43159e-14
2.38598e-14
3.34036e-14
4.2947e-14
5.24909e-14
6.20342e-14
7.15779e-14
8.11222e-14
9.06647e-14
1.00213e-13
1.09758e-13
1.19313e-13
1.28872e-13
1.38459e-13
1.48052e-13
4.77205e-15
1.43152e-14
2.38587e-14
3.3402e-14
4.2945e-14
5.24885e-14
6.20315e-14
7.15748e-14
8.11188e-14
9.0661e-14
1.00209e-13
1.09754e-13
1.19309e-13
1.28867e-13
1.38455e-13
1.48048e-13
4.77182e-15
1.43145e-14
2.38576e-14
3.34005e-14
4.29431e-14
5.24862e-14
6.20288e-14
7.15717e-14
8.11155e-14
9.06575e-14
1.00205e-13
1.0975e-13
1.19304e-13
1.28863e-13
1.38451e-13
1.48044e-13
4.7716e-15
1.43139e-14
2.38566e-14
3.33991e-14
4.29412e-14
5.2484e-14
6.20263e-14
7.15689e-14
8.11124e-14
9.06542e-14
1.00202e-13
1.09746e-13
1.19301e-13
1.28859e-13
1.38447e-13
1.4804e-13
4.77139e-15
1.43132e-14
2.38554e-14
3.33975e-14
4.29392e-14
5.24816e-14
6.20235e-14
7.15658e-14
8.11091e-14
9.06505e-14
1.00198e-13
1.09742e-13
1.19296e-13
1.28855e-13
1.38443e-13
1.48037e-13
4.77116e-15
1.43125e-14
2.38543e-14
3.33959e-14
4.29372e-14
5.24792e-14
6.20208e-14
7.15627e-14
8.11058e-14
9.0647e-14
1.00194e-13
1.09738e-13
1.19293e-13
1.28851e-13
1.38439e-13
1.48033e-13
4.77092e-15
1.43117e-14
2.3853e-14
3.33941e-14
4.2935e-14
5.24765e-14
6.20177e-14
7.15593e-14
8.11021e-14
9.0643e-14
1.0019e-13
1.09734e-13
1.19288e-13
1.28847e-13
1.38435e-13
1.4803e-13
4.77066e-15
1.43109e-14
2.38516e-14
3.33923e-14
4.29327e-14
5.24737e-14
6.20145e-14
7.15558e-14
8.10983e-14
9.0639e-14
1.00185e-13
1.0973e-13
1.19284e-13
1.28843e-13
1.38432e-13
1.48026e-13
4.77038e-15
1.43101e-14
2.38502e-14
3.33904e-14
4.29303e-14
5.24709e-14
6.20114e-14
7.15523e-14
8.10946e-14
9.06351e-14
1.00181e-13
1.09726e-13
1.1928e-13
1.28839e-13
1.38429e-13
1.48024e-13
4.7701e-15
1.43091e-14
2.38487e-14
3.33883e-14
4.29277e-14
5.24678e-14
6.20079e-14
7.15486e-14
8.10906e-14
9.06307e-14
1.00177e-13
1.09721e-13
1.19276e-13
1.28836e-13
1.38425e-13
1.48021e-13
4.76979e-15
1.43082e-14
2.38471e-14
3.33861e-14
4.29249e-14
5.24645e-14
6.20041e-14
7.15445e-14
8.10863e-14
9.06262e-14
1.00172e-13
1.09717e-13
1.19272e-13
1.28832e-13
1.38422e-13
1.48018e-13
4.76946e-15
1.43071e-14
2.38454e-14
3.33837e-14
4.2922e-14
5.24611e-14
6.20002e-14
7.15403e-14
8.10818e-14
9.06215e-14
1.00168e-13
1.09713e-13
1.19268e-13
1.28829e-13
1.3842e-13
1.48017e-13
4.76911e-15
1.4306e-14
2.38435e-14
3.33811e-14
4.29188e-14
5.24573e-14
6.19959e-14
7.15357e-14
8.10769e-14
9.06165e-14
1.00163e-13
1.09708e-13
1.19264e-13
1.28825e-13
1.38417e-13
1.48015e-13
4.76873e-15
1.43047e-14
2.38414e-14
3.33783e-14
4.29152e-14
5.24531e-14
6.19912e-14
7.15305e-14
8.10714e-14
9.0611e-14
1.00157e-13
1.09703e-13
1.19259e-13
1.28822e-13
1.38415e-13
1.48014e-13
4.7683e-15
1.43033e-14
2.38391e-14
3.33751e-14
4.29112e-14
5.24484e-14
6.19859e-14
7.15249e-14
8.10652e-14
9.06048e-14
1.00151e-13
1.09697e-13
1.19254e-13
1.28818e-13
1.38412e-13
1.48013e-13
4.76784e-15
1.43017e-14
2.38366e-14
3.33716e-14
4.29068e-14
5.24432e-14
6.198e-14
7.15184e-14
8.10583e-14
9.05978e-14
1.00144e-13
1.09691e-13
1.19249e-13
1.28814e-13
1.3841e-13
1.48013e-13
4.76732e-15
1.43001e-14
2.38338e-14
3.33677e-14
4.2902e-14
5.24374e-14
6.19734e-14
7.15112e-14
8.10506e-14
9.05901e-14
1.00137e-13
1.09684e-13
1.19243e-13
1.28809e-13
1.38407e-13
1.48013e-13
4.76675e-15
1.42982e-14
2.38307e-14
3.33634e-14
4.28965e-14
5.24309e-14
6.1966e-14
7.15028e-14
8.10417e-14
9.0581e-14
1.00128e-13
1.09676e-13
1.19235e-13
1.28804e-13
1.38404e-13
1.48012e-13
4.76613e-15
1.42961e-14
2.38272e-14
3.33586e-14
4.28904e-14
5.24236e-14
6.19576e-14
7.14933e-14
8.10315e-14
9.05703e-14
1.00117e-13
1.09666e-13
1.19226e-13
1.28797e-13
1.38399e-13
1.48012e-13
4.76544e-15
1.42938e-14
2.38235e-14
3.33533e-14
4.28837e-14
5.24154e-14
6.1948e-14
7.14824e-14
8.10198e-14
9.05579e-14
1.00104e-13
1.09654e-13
1.19215e-13
1.28788e-13
1.38394e-13
1.48011e-13
4.76468e-15
1.42914e-14
2.38194e-14
3.33476e-14
4.28763e-14
5.24064e-14
6.19373e-14
7.14702e-14
8.10062e-14
9.05432e-14
1.00089e-13
1.09638e-13
1.19201e-13
1.28777e-13
1.38386e-13
1.48009e-13
4.76387e-15
1.42887e-14
2.38149e-14
3.33412e-14
4.2868e-14
5.23961e-14
6.19251e-14
7.1456e-14
8.09903e-14
9.05256e-14
1.0007e-13
1.09619e-13
1.19182e-13
1.28761e-13
1.38374e-13
1.48007e-13
4.76298e-15
1.42859e-14
2.38101e-14
3.33344e-14
4.28592e-14
5.23851e-14
6.19118e-14
7.14402e-14
8.09723e-14
9.05051e-14
1.00048e-13
1.09595e-13
1.19158e-13
1.28738e-13
1.38355e-13
1.47999e-13
4.76204e-15
1.42829e-14
2.38051e-14
3.33273e-14
4.28497e-14
5.23731e-14
6.18973e-14
7.14228e-14
8.09519e-14
9.04814e-14
1.00021e-13
1.09566e-13
1.19126e-13
1.28706e-13
1.38325e-13
1.47977e-13
4.76106e-15
1.42799e-14
2.37999e-14
3.33199e-14
4.28399e-14
5.23605e-14
6.18817e-14
7.14038e-14
8.09293e-14
9.04546e-14
9.99903e-14
1.0953e-13
1.19087e-13
1.28663e-13
1.38279e-13
1.47932e-13
4.76006e-15
1.42767e-14
2.37945e-14
3.33121e-14
4.28294e-14
5.23471e-14
6.18649e-14
7.13829e-14
8.0904e-14
9.04239e-14
9.99541e-14
1.09487e-13
1.19037e-13
1.28605e-13
1.38214e-13
1.4786e-13
4.759e-15
1.42736e-14
2.37892e-14
3.33044e-14
4.28189e-14
5.23335e-14
6.18476e-14
7.13613e-14
8.08773e-14
9.03908e-14
9.99139e-14
1.09437e-13
1.18978e-13
1.28533e-13
1.3813e-13
1.47761e-13
4.75798e-15
1.42706e-14
2.37841e-14
3.32969e-14
4.28088e-14
5.23202e-14
6.18305e-14
7.13396e-14
8.08499e-14
9.03562e-14
9.9871e-14
1.09383e-13
1.18912e-13
1.2845e-13
1.38029e-13
1.47637e-13
4.75701e-15
1.42678e-14
2.37793e-14
3.32899e-14
4.27992e-14
5.23075e-14
6.18139e-14
7.13183e-14
8.08226e-14
9.03212e-14
9.98266e-14
1.09325e-13
1.18839e-13
1.28356e-13
1.37913e-13
1.47489e-13
4.7561e-15
1.42656e-14
2.37754e-14
3.32841e-14
4.27911e-14
5.22967e-14
6.17996e-14
7.12996e-14
8.07981e-14
9.0289e-14
9.97845e-14
1.09269e-13
1.18767e-13
1.28259e-13
1.37788e-13
1.47326e-13
4.75535e-15
1.42636e-14
2.3772e-14
3.3279e-14
4.27841e-14
5.22873e-14
6.1787e-14
7.12831e-14
8.07761e-14
9.02598e-14
9.97455e-14
1.09216e-13
1.18696e-13
1.2816e-13
1.37657e-13
1.47146e-13
4.75469e-15
1.42621e-14
2.37695e-14
3.32753e-14
4.27788e-14
5.22802e-14
6.17775e-14
7.12704e-14
8.07589e-14
9.02368e-14
9.97138e-14
1.09172e-13
1.18634e-13
1.2807e-13
1.37531e-13
1.46957e-13
4.75421e-15
1.42614e-14
2.37682e-14
3.32734e-14
4.27761e-14
5.22766e-14
6.17725e-14
7.12637e-14
8.07494e-14
9.02238e-14
9.9695e-14
1.09145e-13
1.18595e-13
1.28008e-13
1.37436e-13
1.46788e-13
4.75397e-15
1.42613e-14
2.3768e-14
3.3273e-14
4.27756e-14
5.22758e-14
6.17712e-14
7.12619e-14
8.07464e-14
9.02196e-14
9.96877e-14
1.09134e-13
1.18575e-13
1.27975e-13
1.3738e-13
1.46674e-13
4.75393e-15
1.42613e-14
2.37679e-14
3.32729e-14
4.27753e-14
5.22753e-14
6.17703e-14
7.12606e-14
8.07441e-14
9.02165e-14
9.9682e-14
1.09126e-13
1.1856e-13
1.27954e-13
1.37348e-13
1.46635e-13
4.75393e-15
1.42603e-14
2.37663e-14
3.32705e-14
4.2772e-14
5.22709e-14
6.17646e-14
7.12536e-14
8.07352e-14
9.0206e-14
9.96689e-14
1.09112e-13
1.18543e-13
1.27944e-13
1.37343e-13
1.46667e-13
4.75363e-15
1.42583e-14
2.37628e-14
3.32655e-14
4.27651e-14
5.22622e-14
6.17536e-14
7.12403e-14
8.07193e-14
9.01883e-14
9.96492e-14
1.09095e-13
1.18529e-13
1.27947e-13
1.37366e-13
1.46741e-13
4.75295e-15
1.42551e-14
2.37573e-14
3.32577e-14
4.27549e-14
5.22494e-14
6.1738e-14
7.1222e-14
8.06982e-14
9.01656e-14
9.96257e-14
1.09075e-13
1.18516e-13
1.27956e-13
1.37399e-13
1.46832e-13
4.75191e-15
1.42509e-14
2.37503e-14
3.32477e-14
4.27418e-14
5.22334e-14
6.17191e-14
7.12005e-14
8.06742e-14
9.01402e-14
9.96001e-14
1.09053e-13
1.18501e-13
1.27962e-13
1.37432e-13
1.46921e-13
4.75055e-15
1.42461e-14
2.37422e-14
3.32362e-14
4.27269e-14
5.22151e-14
6.16976e-14
7.11762e-14
8.06465e-14
9.01101e-14
9.95712e-14
1.09032e-13
1.18496e-13
1.27982e-13
1.37479e-13
1.47003e-13
4.74894e-15
1.42405e-14
2.37328e-14
3.3223e-14
4.27094e-14
5.2193e-14
6.16709e-14
7.11463e-14
8.06162e-14
9.00844e-14
9.95575e-14
1.09039e-13
1.18527e-13
1.28035e-13
1.37548e-13
1.4708e-13
4.74706e-15
1.4233e-14
2.37207e-14
3.32065e-14
4.26894e-14
5.21709e-14
6.16487e-14
7.11277e-14
8.06067e-14
9.00894e-14
9.95798e-14
1.09078e-13
1.18578e-13
1.28092e-13
1.37609e-13
1.47138e-13
4.74458e-15
1.42282e-14
2.37133e-14
3.31979e-14
4.26816e-14
5.21667e-14
6.16513e-14
7.11395e-14
8.06289e-14
9.0121e-14
9.96178e-14
1.0912e-13
1.18624e-13
1.2814e-13
1.37658e-13
1.47187e-13
4.74294e-15
1.42302e-14
2.37171e-14
3.32043e-14
4.26912e-14
5.21802e-14
6.16693e-14
7.11618e-14
8.0655e-14
9.01505e-14
9.96499e-14
1.09155e-13
1.18662e-13
1.2818e-13
1.377e-13
1.47227e-13
4.74349e-15
1.42338e-14
2.37232e-14
3.3213e-14
4.27026e-14
5.21941e-14
6.16855e-14
7.11801e-14
8.06758e-14
9.01745e-14
9.96774e-14
1.09184e-13
1.18693e-13
1.28213e-13
1.37732e-13
1.47258e-13
4.74467e-15
1.42368e-14
2.37283e-14
3.32203e-14
4.27123e-14
5.22065e-14
6.17008e-14
7.11982e-14
8.06966e-14
9.01974e-14
9.97023e-14
1.09211e-13
1.18721e-13
1.28242e-13
1.37761e-13
1.47286e-13
4.74569e-15
1.42399e-14
2.37335e-14
3.32276e-14
4.27218e-14
5.22181e-14
6.17145e-14
7.12139e-14
8.07143e-14
9.02171e-14
9.97239e-14
1.09234e-13
1.18745e-13
1.28265e-13
1.37785e-13
1.47308e-13
4.7467e-15
1.42426e-14
2.37379e-14
3.32339e-14
4.273e-14
5.22282e-14
6.17264e-14
7.12277e-14
8.07299e-14
9.02341e-14
9.97421e-14
1.09253e-13
1.18765e-13
1.28285e-13
1.37804e-13
1.47325e-13
4.74759e-15
1.42451e-14
2.37422e-14
3.32399e-14
4.27376e-14
5.22375e-14
6.17374e-14
7.12401e-14
8.07437e-14
9.0249e-14
9.97581e-14
1.0927e-13
1.18782e-13
1.28301e-13
1.3782e-13
1.47339e-13
4.74843e-15
1.42474e-14
2.3746e-14
3.32452e-14
4.27445e-14
5.22458e-14
6.17471e-14
7.12511e-14
8.07558e-14
9.02621e-14
9.97719e-14
1.09284e-13
1.18796e-13
1.28315e-13
1.37833e-13
1.47351e-13
4.74919e-15
1.42494e-14
2.37493e-14
3.32497e-14
4.27502e-14
5.22528e-14
6.17551e-14
7.12602e-14
8.07657e-14
9.02727e-14
9.97829e-14
1.09295e-13
1.18807e-13
1.28326e-13
1.37842e-13
1.47359e-13
4.74984e-15
1.42511e-14
2.37522e-14
3.32538e-14
4.27554e-14
5.2259e-14
6.17623e-14
7.12682e-14
8.07745e-14
9.02819e-14
9.97925e-14
1.09304e-13
1.18816e-13
1.28334e-13
1.3785e-13
1.47365e-13
4.75043e-15
1.42527e-14
2.37547e-14
3.32573e-14
4.27599e-14
5.22643e-14
6.17684e-14
7.12749e-14
8.07818e-14
9.02895e-14
9.98003e-14
1.09312e-13
1.18824e-13
1.28341e-13
1.37856e-13
1.4737e-13
4.75095e-15
1.4254e-14
2.37569e-14
3.32603e-14
4.27637e-14
5.22688e-14
6.17735e-14
7.12806e-14
8.07879e-14
9.02958e-14
9.98067e-14
1.09318e-13
1.1883e-13
1.28346e-13
1.37861e-13
1.47373e-13
4.75139e-15
1.42553e-14
2.3759e-14
3.32633e-14
4.27673e-14
5.22731e-14
6.17785e-14
7.1286e-14
8.07937e-14
9.03019e-14
9.98129e-14
1.09324e-13
1.18836e-13
1.28351e-13
1.37865e-13
1.47376e-13
4.75182e-15
1.42563e-14
2.37607e-14
3.32655e-14
4.27702e-14
5.22765e-14
6.17823e-14
7.12902e-14
8.07981e-14
9.03063e-14
9.98173e-14
1.09329e-13
1.18839e-13
1.28355e-13
1.37867e-13
1.47377e-13
4.75215e-15
1.42571e-14
2.3762e-14
3.32673e-14
4.27724e-14
5.22791e-14
6.17852e-14
7.12932e-14
8.08012e-14
9.03095e-14
9.98203e-14
1.09331e-13
1.18842e-13
1.28356e-13
1.37868e-13
1.47377e-13
4.75242e-15
1.42577e-14
2.3763e-14
3.32687e-14
4.27741e-14
5.22811e-14
6.17874e-14
7.12956e-14
8.08036e-14
9.03118e-14
9.98224e-14
1.09333e-13
1.18843e-13
1.28357e-13
1.37868e-13
1.47376e-13
4.75263e-15
1.42582e-14
2.37639e-14
3.32699e-14
4.27756e-14
5.22827e-14
6.17892e-14
7.12974e-14
8.08055e-14
9.03135e-14
9.9824e-14
1.09334e-13
1.18844e-13
1.28357e-13
1.37868e-13
1.47375e-13
4.75281e-15
1.42587e-14
2.37646e-14
3.32708e-14
4.27767e-14
5.2284e-14
6.17906e-14
7.12989e-14
8.08069e-14
9.03149e-14
9.98251e-14
1.09335e-13
1.18844e-13
1.28357e-13
1.37867e-13
1.47373e-13
4.75295e-15
1.42589e-14
2.3765e-14
3.32714e-14
4.27774e-14
5.22848e-14
6.17914e-14
7.12997e-14
8.08076e-14
9.03153e-14
9.98253e-14
1.09335e-13
1.18844e-13
1.28356e-13
1.37865e-13
1.47371e-13
4.75305e-15
1.4259e-14
2.37652e-14
3.32715e-14
4.27776e-14
5.22849e-14
6.17914e-14
7.12995e-14
8.08072e-14
9.03147e-14
9.98244e-14
1.09334e-13
1.18842e-13
1.28353e-13
1.37862e-13
1.47367e-13
4.75308e-15
1.42593e-14
2.37656e-14
3.32721e-14
4.27782e-14
5.22856e-14
6.17921e-14
7.13002e-14
8.08079e-14
9.03152e-14
9.98247e-14
1.09334e-13
1.18841e-13
1.28353e-13
1.37861e-13
1.47365e-13
4.75316e-15
1.42592e-14
2.37655e-14
3.3272e-14
4.2778e-14
5.22853e-14
6.17917e-14
7.12996e-14
8.0807e-14
9.03141e-14
9.98232e-14
1.09332e-13
1.18839e-13
1.2835e-13
1.37858e-13
1.47361e-13
4.75315e-15
1.42591e-14
2.37653e-14
3.32717e-14
4.27776e-14
5.22848e-14
6.1791e-14
7.12987e-14
8.08058e-14
9.03126e-14
9.98214e-14
1.09329e-13
1.18836e-13
1.28347e-13
1.37854e-13
1.47357e-13
4.75312e-15
1.4259e-14
2.37652e-14
3.32715e-14
4.27773e-14
5.22843e-14
6.17904e-14
7.12979e-14
8.08049e-14
9.03113e-14
9.98199e-14
1.09328e-13
1.18834e-13
1.28344e-13
1.37851e-13
1.47353e-13
4.75309e-15
1.42589e-14
2.37649e-14
3.3271e-14
4.27767e-14
5.22835e-14
6.17894e-14
7.12967e-14
8.08034e-14
9.03096e-14
9.98178e-14
1.09325e-13
1.18831e-13
1.28341e-13
1.37847e-13
1.47349e-13
4.75303e-15
1.42586e-14
2.37644e-14
3.32704e-14
4.27759e-14
5.22825e-14
6.17881e-14
7.12951e-14
8.08015e-14
9.03074e-14
9.98152e-14
1.09322e-13
1.18828e-13
1.28337e-13
1.37843e-13
1.47344e-13
4.75295e-15
1.42582e-14
2.37638e-14
3.32695e-14
4.27747e-14
5.2281e-14
6.17864e-14
7.1293e-14
8.07991e-14
9.03045e-14
9.9812e-14
1.09318e-13
1.18824e-13
1.28332e-13
1.37838e-13
1.47338e-13
4.75282e-15
1.42579e-14
2.37632e-14
3.32686e-14
4.27735e-14
5.22796e-14
6.17846e-14
7.12909e-14
8.07966e-14
9.03017e-14
9.98087e-14
1.09315e-13
1.1882e-13
1.28327e-13
1.37833e-13
1.47333e-13
4.7527e-15
1.42575e-14
2.37625e-14
3.32676e-14
4.27722e-14
5.2278e-14
6.17827e-14
7.12887e-14
8.0794e-14
9.02987e-14
9.98054e-14
1.09311e-13
1.18815e-13
1.28323e-13
1.37827e-13
1.47327e-13
4.75256e-15
1.4257e-14
2.37617e-14
3.32665e-14
4.27708e-14
5.22762e-14
6.17805e-14
7.12861e-14
8.07911e-14
9.02954e-14
9.98016e-14
1.09307e-13
1.18811e-13
1.28318e-13
1.37822e-13
1.47321e-13
4.75241e-15
1.42565e-14
2.37608e-14
3.32653e-14
4.27692e-14
5.22742e-14
6.17782e-14
7.12834e-14
8.07879e-14
9.02918e-14
9.97976e-14
1.09302e-13
1.18806e-13
1.28312e-13
1.37816e-13
1.47314e-13
4.75223e-15
1.4256e-14
2.37601e-14
3.32643e-14
4.27679e-14
5.22727e-14
6.17763e-14
7.12812e-14
8.07855e-14
9.0289e-14
9.97944e-14
1.09299e-13
1.18802e-13
1.28308e-13
1.37811e-13
1.47309e-13
4.7521e-15
1.42556e-14
2.37593e-14
3.32632e-14
4.27665e-14
5.22709e-14
6.17742e-14
7.12787e-14
8.07826e-14
9.02857e-14
9.97908e-14
1.09295e-13
1.18797e-13
1.28303e-13
1.37806e-13
1.47303e-13
4.75194e-15
1.42549e-14
2.37582e-14
3.32616e-14
4.27645e-14
5.22684e-14
6.17712e-14
7.12753e-14
8.07787e-14
9.02813e-14
9.97858e-14
1.09289e-13
1.18791e-13
1.28296e-13
1.37799e-13
1.47296e-13
4.75171e-15
1.42542e-14
2.37571e-14
3.32601e-14
4.27625e-14
5.22659e-14
6.17683e-14
7.12719e-14
8.07748e-14
9.0277e-14
9.97811e-14
1.09284e-13
1.18786e-13
1.2829e-13
1.37792e-13
1.47288e-13
4.7515e-15
1.42536e-14
2.3756e-14
3.32586e-14
4.27605e-14
5.22636e-14
6.17655e-14
7.12686e-14
8.07711e-14
9.02728e-14
9.97764e-14
1.09279e-13
1.1878e-13
1.28284e-13
1.37785e-13
1.47281e-13
4.75128e-15
1.42527e-14
2.37545e-14
3.32564e-14
4.27578e-14
5.22602e-14
6.17615e-14
7.1264e-14
8.07659e-14
9.02669e-14
9.97699e-14
1.09272e-13
1.18772e-13
1.28276e-13
1.37776e-13
1.47271e-13
4.75098e-15
1.42521e-14
2.37535e-14
3.3255e-14
4.2756e-14
5.2258e-14
6.17589e-14
7.1261e-14
8.07624e-14
9.0263e-14
9.97656e-14
1.09267e-13
1.18767e-13
1.2827e-13
1.3777e-13
1.47265e-13
4.75077e-15
1.42512e-14
2.37521e-14
3.3253e-14
4.27534e-14
5.22549e-14
6.17552e-14
7.12567e-14
8.07576e-14
9.02577e-14
9.97596e-14
1.0926e-13
1.1876e-13
1.28262e-13
1.37762e-13
1.47256e-13
4.75049e-15
1.42504e-14
2.37508e-14
3.32512e-14
4.27511e-14
5.2252e-14
6.17518e-14
7.12528e-14
8.07531e-14
9.02527e-14
9.97541e-14
1.09254e-13
1.18753e-13
1.28255e-13
1.37754e-13
1.47248e-13
4.75023e-15
1.42497e-14
2.37496e-14
3.32495e-14
4.27489e-14
5.22493e-14
6.17486e-14
7.12491e-14
8.0749e-14
9.0248e-14
9.9749e-14
1.09249e-13
1.18747e-13
1.28249e-13
1.37747e-13
1.4724e-13
4.74999e-15
1.4249e-14
2.37483e-14
3.32477e-14
4.27466e-14
5.22465e-14
6.17453e-14
7.12454e-14
8.07447e-14
9.02433e-14
9.97437e-14
1.09243e-13
1.18741e-13
1.28242e-13
1.3774e-13
1.47233e-13
4.74974e-15
1.42481e-14
2.37469e-14
3.32457e-14
4.2744e-14
5.22434e-14
6.17416e-14
7.12411e-14
8.07399e-14
9.02379e-14
9.97378e-14
1.09237e-13
1.18734e-13
1.28234e-13
1.37732e-13
1.47224e-13
4.74945e-15
1.42472e-14
2.37453e-14
3.32436e-14
4.27413e-14
5.224e-14
6.17377e-14
7.12365e-14
8.07347e-14
9.02321e-14
9.97314e-14
1.0923e-13
1.18727e-13
1.28226e-13
1.37723e-13
1.47215e-13
4.74914e-15
1.42462e-14
2.37437e-14
3.32412e-14
4.27383e-14
5.22364e-14
6.17333e-14
7.12315e-14
8.07291e-14
9.02258e-14
9.97245e-14
1.09222e-13
1.18719e-13
1.28218e-13
1.37714e-13
1.47205e-13
4.74881e-15
1.42452e-14
2.3742e-14
3.32389e-14
4.27352e-14
5.22326e-14
6.17289e-14
7.12264e-14
8.07233e-14
9.02194e-14
9.97174e-14
1.09214e-13
1.1871e-13
1.28209e-13
1.37705e-13
1.47195e-13
4.74847e-15
1.42442e-14
2.37403e-14
3.32366e-14
4.27323e-14
5.2229e-14
6.17247e-14
7.12216e-14
8.07178e-14
9.02132e-14
9.97107e-14
1.09207e-13
1.18702e-13
1.282e-13
1.37696e-13
1.47186e-13
4.74814e-15
1.42431e-14
2.37386e-14
3.32341e-14
4.27291e-14
5.22252e-14
6.17201e-14
7.12163e-14
8.07118e-14
9.02066e-14
9.97034e-14
1.09199e-13
1.18694e-13
1.28191e-13
1.37686e-13
1.47176e-13
4.7478e-15
1.42422e-14
2.3737e-14
3.3232e-14
4.27263e-14
5.22217e-14
6.17161e-14
7.12116e-14
8.07065e-14
9.02007e-14
9.96968e-14
1.09192e-13
1.18686e-13
1.28183e-13
1.37677e-13
1.47167e-13
4.74748e-15
1.42411e-14
2.37352e-14
3.32293e-14
4.2723e-14
5.22176e-14
6.17112e-14
7.1206e-14
8.07001e-14
9.01935e-14
9.96889e-14
1.09183e-13
1.18677e-13
1.28173e-13
1.37667e-13
1.47156e-13
4.74711e-15
1.424e-14
2.37334e-14
3.32268e-14
4.27197e-14
5.22137e-14
6.17065e-14
7.12006e-14
8.0694e-14
9.01866e-14
9.96812e-14
1.09175e-13
1.18667e-13
1.28163e-13
1.37656e-13
1.47146e-13
4.74676e-15
1.42388e-14
2.37314e-14
3.3224e-14
4.27161e-14
5.22092e-14
6.17013e-14
7.11945e-14
8.0687e-14
9.01788e-14
9.96725e-14
1.09165e-13
1.18657e-13
1.28151e-13
1.37643e-13
1.47131e-13
4.74636e-15
1.42378e-14
2.37297e-14
3.32217e-14
4.27131e-14
5.22055e-14
6.16969e-14
7.11894e-14
8.06813e-14
9.01723e-14
9.96653e-14
1.09157e-13
1.18648e-13
1.28141e-13
1.37632e-13
1.47117e-13
4.74602e-15
1.42367e-14
2.37279e-14
3.32191e-14
4.27098e-14
5.22015e-14
6.1692e-14
7.11838e-14
8.06749e-14
9.01653e-14
9.96575e-14
1.09149e-13
1.18639e-13
1.28131e-13
1.37621e-13
1.47106e-13
4.74565e-15
0
0
0
2.52435e-28
0
0
5.04871e-29
-5.04871e-29
0
0
1.00974e-28
-1.00974e-28
0
1.00974e-28
1.00974e-28
0
)
;


// ************************************************************************* //
