/*--------------------------------*- C++ -*----------------------------------*\
| =========                 |                                                 |
| \\      /  F ield         | foam-extend: Open Source CFD                    |
|  \\    /   O peration     | Version:     4.1-20200408                       |
|   \\  /    A nd           | Web:         http://www.foam-extend.org         |
|    \\/     M anipulation  |                                                 |
\*---------------------------------------------------------------------------*/
FoamFile
{
    version     2.0;
    format      ascii;
    class       volVectorField;
    location    "0.0330000";
    object      DU_0;
}
// * * * * * * * * * * * * * * * * * * * * * * * * * * * * * * * * * * * * * //

dimensions      [0 1 0 0 0 0 0];

internalField   nonuniform List<vector> 
1952
(
(5.00013e-05 5.40054e-10 0)
(5.00012e-05 8.77241e-10 0)
(5.00012e-05 1.18462e-09 0)
(5.00011e-05 1.48733e-09 0)
(5.00011e-05 1.749e-09 0)
(5.0001e-05 1.98035e-09 0)
(5.0001e-05 2.18576e-09 0)
(5.00008e-05 2.32579e-09 0)
(5.00008e-05 2.47056e-09 0)
(5.00007e-05 2.51434e-09 0)
(5.00006e-05 2.59398e-09 0)
(5.00004e-05 2.56979e-09 0)
(5.00004e-05 2.59202e-09 0)
(5.00001e-05 2.4937e-09 0)
(4.99998e-05 2.46423e-09 0)
(5.00013e-05 2.33245e-10 0)
(5.00016e-05 4.03276e-10 0)
(5.00015e-05 6.45819e-10 0)
(5.00015e-05 8.86638e-10 0)
(5.00014e-05 1.10246e-09 0)
(5.00014e-05 1.31173e-09 0)
(5.00012e-05 1.48293e-09 0)
(5.00012e-05 1.64674e-09 0)
(5.0001e-05 1.76359e-09 0)
(5.0001e-05 1.87437e-09 0)
(5.00008e-05 1.9309e-09 0)
(5.00008e-05 1.98654e-09 0)
(5.00005e-05 1.99604e-09 0)
(5.00004e-05 1.99934e-09 0)
(5.00001e-05 1.95555e-09 0)
(4.99998e-05 1.9291e-09 0)
(5.00016e-05 1.73029e-10 0)
(5.00018e-05 2.9652e-10 0)
(5.00017e-05 4.73425e-10 0)
(5.00017e-05 6.54098e-10 0)
(5.00016e-05 8.11079e-10 0)
(5.00016e-05 9.70902e-10 0)
(5.00014e-05 1.09746e-09 0)
(5.00014e-05 1.22386e-09 0)
(5.00012e-05 1.31407e-09 0)
(5.00011e-05 1.39901e-09 0)
(5.00009e-05 1.4488e-09 0)
(5.00009e-05 1.48965e-09 0)
(5.00006e-05 1.50258e-09 0)
(5.00005e-05 1.5048e-09 0)
(5.00002e-05 1.4864e-09 0)
(5e-05 1.48655e-09 0)
(5.00018e-05 1.2705e-10 0)
(5.00019e-05 2.12122e-10 0)
(5.00018e-05 3.38128e-10 0)
(5.00018e-05 4.69441e-10 0)
(5.00017e-05 5.81092e-10 0)
(5.00017e-05 6.99178e-10 0)
(5.00015e-05 7.90258e-10 0)
(5.00015e-05 8.84796e-10 0)
(5.00012e-05 9.51658e-10 0)
(5.00012e-05 1.01559e-09 0)
(5.0001e-05 1.05516e-09 0)
(5.00009e-05 1.08666e-09 0)
(5.00007e-05 1.10144e-09 0)
(5.00006e-05 1.10768e-09 0)
(5.00003e-05 1.10499e-09 0)
(5.00001e-05 1.11675e-09 0)
(5.00019e-05 9.07854e-11 0)
(5.00019e-05 1.45322e-10 0)
(5.00019e-05 2.31127e-10 0)
(5.00019e-05 3.22644e-10 0)
(5.00017e-05 3.98361e-10 0)
(5.00017e-05 4.82115e-10 0)
(5.00015e-05 5.44302e-10 0)
(5.00015e-05 6.12304e-10 0)
(5.00013e-05 6.59016e-10 0)
(5.00013e-05 7.05673e-10 0)
(5.0001e-05 7.35268e-10 0)
(5.0001e-05 7.59753e-10 0)
(5.00007e-05 7.74202e-10 0)
(5.00006e-05 7.84564e-10 0)
(5.00004e-05 7.92635e-10 0)
(5.00002e-05 8.15122e-10 0)
(5.00019e-05 6.21209e-11 0)
(5.00019e-05 9.22577e-11 0)
(5.00019e-05 1.46081e-10 0)
(5.00019e-05 2.05792e-10 0)
(5.00017e-05 2.5278e-10 0)
(5.00018e-05 3.08839e-10 0)
(5.00016e-05 3.47731e-10 0)
(5.00016e-05 3.94215e-10 0)
(5.00013e-05 4.24511e-10 0)
(5.00013e-05 4.57348e-10 0)
(5.00011e-05 4.78575e-10 0)
(5.0001e-05 4.97898e-10 0)
(5.00008e-05 5.12248e-10 0)
(5.00007e-05 5.25749e-10 0)
(5.00005e-05 5.40659e-10 0)
(5.00003e-05 5.68438e-10 0)
(5.00019e-05 3.93621e-11 0)
(5.00019e-05 4.97513e-11 0)
(5.00018e-05 7.78761e-11 0)
(5.00019e-05 1.12101e-10 0)
(5.00017e-05 1.35918e-10 0)
(5.00017e-05 1.6971e-10 0)
(5.00015e-05 1.89816e-10 0)
(5.00016e-05 2.18988e-10 0)
(5.00013e-05 2.36166e-10 0)
(5.00014e-05 2.58003e-10 0)
(5.00011e-05 2.72735e-10 0)
(5.00011e-05 2.88051e-10 0)
(5.00008e-05 3.02431e-10 0)
(5.00008e-05 3.18016e-10 0)
(5.00006e-05 3.37662e-10 0)
(5.00005e-05 3.68504e-10 0)
(5.00019e-05 2.11338e-11 0)
(5.00018e-05 1.54164e-11 0)
(5.00018e-05 2.27446e-11 0)
(5.00018e-05 3.6453e-11 0)
(5.00017e-05 4.15147e-11 0)
(5.00017e-05 5.74348e-11 0)
(5.00015e-05 6.24666e-11 0)
(5.00016e-05 7.78324e-11 0)
(5.00013e-05 8.47244e-11 0)
(5.00014e-05 9.79223e-11 0)
(5.00011e-05 1.07808e-10 0)
(5.00011e-05 1.2003e-10 0)
(5.00009e-05 1.3464e-10 0)
(5.00008e-05 1.51381e-10 0)
(5.00007e-05 1.74077e-10 0)
(5.00006e-05 2.05788e-10 0)
(5.00019e-05 6.40841e-12 0)
(5.00018e-05 -1.27274e-11 0)
(5.00017e-05 -2.24599e-11 0)
(5.00017e-05 -2.54821e-11 0)
(5.00016e-05 -3.57456e-11 0)
(5.00017e-05 -3.43178e-11 0)
(5.00015e-05 -4.14097e-11 0)
(5.00015e-05 -3.71414e-11 0)
(5.00013e-05 -3.82451e-11 0)
(5.00014e-05 -3.18849e-11 0)
(5.00011e-05 -2.54936e-11 0)
(5.00011e-05 -1.5725e-11 0)
(5.00009e-05 -7.35204e-13 0)
(5.00009e-05 1.65337e-11 0)
(5.00007e-05 4.12666e-11 0)
(5.00007e-05 7.27212e-11 0)
(5.00018e-05 -5.66395e-12 0)
(5.00017e-05 -3.63103e-11 0)
(5.00016e-05 -6.03401e-11 0)
(5.00016e-05 -7.72827e-11 0)
(5.00015e-05 -1.00302e-10 0)
(5.00016e-05 -1.1083e-10 0)
(5.00014e-05 -1.27804e-10 0)
(5.00015e-05 -1.32582e-10 0)
(5.00013e-05 -1.39933e-10 0)
(5.00013e-05 -1.39047e-10 0)
(5.00011e-05 -1.3513e-10 0)
(5.00012e-05 -1.27323e-10 0)
(5.00009e-05 -1.11831e-10 0)
(5.0001e-05 -9.4424e-11 0)
(5.00008e-05 -6.83184e-11 0)
(5.00008e-05 -3.78016e-11 0)
(5.00017e-05 -1.57825e-11 0)
(5.00016e-05 -5.66937e-11 0)
(5.00015e-05 -9.30719e-11 0)
(5.00015e-05 -1.21965e-10 0)
(5.00014e-05 -1.55895e-10 0)
(5.00015e-05 -1.76609e-10 0)
(5.00013e-05 -2.01819e-10 0)
(5.00014e-05 -2.14226e-10 0)
(5.00012e-05 -2.26523e-10 0)
(5.00013e-05 -2.30176e-10 0)
(5.00011e-05 -2.27963e-10 0)
(5.00012e-05 -2.2176e-10 0)
(5.0001e-05 -2.05622e-10 0)
(5.0001e-05 -1.88228e-10 0)
(5.00009e-05 -1.61047e-10 0)
(5.00008e-05 -1.31632e-10 0)
(5.00016e-05 -2.45302e-11 0)
(5.00014e-05 -7.50647e-11 0)
(5.00014e-05 -1.22564e-10 0)
(5.00014e-05 -1.62158e-10 0)
(5.00013e-05 -2.05813e-10 0)
(5.00014e-05 -2.35589e-10 0)
(5.00012e-05 -2.67949e-10 0)
(5.00014e-05 -2.87079e-10 0)
(5.00012e-05 -3.03441e-10 0)
(5.00013e-05 -3.11021e-10 0)
(5.00011e-05 -3.09964e-10 0)
(5.00012e-05 -3.05081e-10 0)
(5.0001e-05 -2.88119e-10 0)
(5.0001e-05 -2.70682e-10 0)
(5.00009e-05 -2.42443e-10 0)
(5.00009e-05 -2.13941e-10 0)
(5.00014e-05 -3.24158e-11 0)
(5.00013e-05 -9.24074e-11 0)
(5.00012e-05 -1.50395e-10 0)
(5.00013e-05 -2.00051e-10 0)
(5.00012e-05 -2.52788e-10 0)
(5.00013e-05 -2.91065e-10 0)
(5.00012e-05 -3.29932e-10 0)
(5.00013e-05 -3.55346e-10 0)
(5.00011e-05 -3.75206e-10 0)
(5.00013e-05 -3.86397e-10 0)
(5.00011e-05 -3.86091e-10 0)
(5.00012e-05 -3.82304e-10 0)
(5.0001e-05 -3.64279e-10 0)
(5.00011e-05 -3.46556e-10 0)
(5.0001e-05 -3.17022e-10 0)
(5.0001e-05 -2.88924e-10 0)
(5.00013e-05 -3.98608e-11 0)
(5.00011e-05 -1.09595e-10 0)
(5.00011e-05 -1.77974e-10 0)
(5.00012e-05 -2.37584e-10 0)
(5.00011e-05 -2.99246e-10 0)
(5.00012e-05 -3.45946e-10 0)
(5.00011e-05 -3.91082e-10 0)
(5.00012e-05 -4.22719e-10 0)
(5.0001e-05 -4.45793e-10 0)
(5.00012e-05 -4.60497e-10 0)
(5.0001e-05 -4.60663e-10 0)
(5.00012e-05 -4.57765e-10 0)
(5.0001e-05 -4.38374e-10 0)
(5.00011e-05 -4.19948e-10 0)
(5.0001e-05 -3.8866e-10 0)
(5.0001e-05 -3.60192e-10 0)
(5.00011e-05 -4.72397e-11 0)
(5.00009e-05 -1.27324e-10 0)
(5.00009e-05 -2.06421e-10 0)
(5.0001e-05 -2.7631e-10 0)
(5.00009e-05 -3.47127e-10 0)
(5.00011e-05 -4.02574e-10 0)
(5.00009e-05 -4.54046e-10 0)
(5.00011e-05 -4.92172e-10 0)
(5.0001e-05 -5.18382e-10 0)
(5.00012e-05 -5.36698e-10 0)
(5.0001e-05 -5.37125e-10 0)
(5.00012e-05 -5.3493e-10 0)
(5.0001e-05 -5.1379e-10 0)
(5.00012e-05 -4.9409e-10 0)
(5.0001e-05 -4.60389e-10 0)
(5.00011e-05 -4.30531e-10 0)
(5.00009e-05 -5.48508e-11 0)
(5.00007e-05 -1.46194e-10 0)
(5.00007e-05 -2.36702e-10 0)
(5.00008e-05 -3.17568e-10 0)
(5.00008e-05 -3.98098e-10 0)
(5.00009e-05 -4.62962e-10 0)
(5.00008e-05 -5.21105e-10 0)
(5.0001e-05 -5.66261e-10 0)
(5.00009e-05 -5.95704e-10 0)
(5.00011e-05 -6.1788e-10 0)
(5.0001e-05 -6.18419e-10 0)
(5.00012e-05 -6.16733e-10 0)
(5.00011e-05 -5.93389e-10 0)
(5.00012e-05 -5.71687e-10 0)
(5.00011e-05 -5.34731e-10 0)
(5.00011e-05 -5.02235e-10 0)
(5.00007e-05 -6.29512e-11 0)
(5.00005e-05 -1.66621e-10 0)
(5.00005e-05 -2.69493e-10 0)
(5.00006e-05 -3.62298e-10 0)
(5.00006e-05 -4.53334e-10 0)
(5.00008e-05 -5.28547e-10 0)
(5.00007e-05 -5.93879e-10 0)
(5.00009e-05 -6.46825e-10 0)
(5.00008e-05 -6.79715e-10 0)
(5.00011e-05 -7.06128e-10 0)
(5.0001e-05 -7.0666e-10 0)
(5.00012e-05 -7.05283e-10 0)
(5.00011e-05 -6.79206e-10 0)
(5.00012e-05 -6.54635e-10 0)
(5.00011e-05 -6.13412e-10 0)
(5.00012e-05 -5.768e-10 0)
(5.00005e-05 -7.17199e-11 0)
(5.00003e-05 -1.88902e-10 0)
(5.00003e-05 -3.0527e-10 0)
(5.00004e-05 -4.11182e-10 0)
(5.00004e-05 -5.13674e-10 0)
(5.00006e-05 -6.00385e-10 0)
(5.00005e-05 -6.73552e-10 0)
(5.00008e-05 -7.35239e-10 0)
(5.00007e-05 -7.71878e-10 0)
(5.0001e-05 -8.03016e-10 0)
(5.00009e-05 -8.03442e-10 0)
(5.00012e-05 -8.02169e-10 0)
(5.00011e-05 -7.72764e-10 0)
(5.00013e-05 -7.44317e-10 0)
(5.00012e-05 -6.97655e-10 0)
(5.00012e-05 -6.55217e-10 0)
(5.00003e-05 -8.12834e-11 0)
(5e-05 -2.13112e-10 0)
(5e-05 -3.44165e-10 0)
(5.00001e-05 -4.64419e-10 0)
(5.00001e-05 -5.7938e-10 0)
(5.00004e-05 -6.78841e-10 0)
(5.00003e-05 -7.60549e-10 0)
(5.00007e-05 -8.32041e-10 0)
(5.00006e-05 -8.72778e-10 0)
(5.00009e-05 -9.09202e-10 0)
(5.00009e-05 -9.09442e-10 0)
(5.00012e-05 -9.08049e-10 0)
(5.00011e-05 -8.74668e-10 0)
(5.00013e-05 -8.41203e-10 0)
(5.00013e-05 -7.87785e-10 0)
(5.00013e-05 -7.3757e-10 0)
(5e-05 -9.16746e-11 0)
(4.99996e-05 -2.39132e-10 0)
(4.99997e-05 -3.85991e-10 0)
(4.99998e-05 -5.21805e-10 0)
(4.99998e-05 -6.50181e-10 0)
(5.00001e-05 -7.63706e-10 0)
(5.00001e-05 -8.54617e-10 0)
(5.00005e-05 -9.37086e-10 0)
(5.00005e-05 -9.82258e-10 0)
(5.00009e-05 -1.02463e-09 0)
(5.00008e-05 -1.02459e-09 0)
(5.00012e-05 -1.02287e-09 0)
(5.00011e-05 -9.84813e-10 0)
(5.00014e-05 -9.45079e-10 0)
(5.00013e-05 -8.8345e-10 0)
(5.00014e-05 -8.23254e-10 0)
(4.99996e-05 -1.02842e-10 0)
(4.99993e-05 -2.66545e-10 0)
(4.99993e-05 -4.30092e-10 0)
(4.99995e-05 -5.82477e-10 0)
(4.99995e-05 -7.2503e-10 0)
(4.99999e-05 -8.53824e-10 0)
(4.99999e-05 -9.545e-10 0)
(5.00003e-05 -1.04909e-09 0)
(5.00003e-05 -1.09902e-09 0)
(5.00008e-05 -1.148e-09 0)
(5.00008e-05 -1.14762e-09 0)
(5.00012e-05 -1.14535e-09 0)
(5.00012e-05 -1.10192e-09 0)
(5.00014e-05 -1.05454e-09 0)
(5.00014e-05 -9.83139e-10 0)
(5.00015e-05 -9.105e-10 0)
(4.99992e-05 -1.14608e-10 0)
(4.99988e-05 -2.946e-10 0)
(4.99989e-05 -4.75267e-10 0)
(4.99991e-05 -6.44877e-10 0)
(4.99992e-05 -8.01969e-10 0)
(4.99995e-05 -9.47061e-10 0)
(4.99996e-05 -1.05778e-09 0)
(5.00001e-05 -1.16564e-09 0)
(5.00001e-05 -1.22048e-09 0)
(5.00006e-05 -1.27684e-09 0)
(5.00007e-05 -1.276e-09 0)
(5.00012e-05 -1.27302e-09 0)
(5.00012e-05 -1.22349e-09 0)
(5.00015e-05 -1.16705e-09 0)
(5.00015e-05 -1.08422e-09 0)
(5.00016e-05 -9.96412e-10 0)
(4.99988e-05 -1.26648e-10 0)
(4.99983e-05 -3.22098e-10 0)
(4.99984e-05 -5.19617e-10 0)
(4.99987e-05 -7.06467e-10 0)
(4.99987e-05 -8.77893e-10 0)
(4.99992e-05 -1.03988e-09 0)
(4.99993e-05 -1.16056e-09 0)
(4.99998e-05 -1.2826e-09 0)
(4.99999e-05 -1.34242e-09 0)
(5.00005e-05 -1.40685e-09 0)
(5.00006e-05 -1.40548e-09 0)
(5.00011e-05 -1.40165e-09 0)
(5.00012e-05 -1.34539e-09 0)
(5.00016e-05 -1.27838e-09 0)
(5.00017e-05 -1.18244e-09 0)
(5.00018e-05 -1.07648e-09 0)
(4.99983e-05 -1.3845e-10 0)
(4.99978e-05 -3.47288e-10 0)
(4.99979e-05 -5.60339e-10 0)
(4.99981e-05 -7.6354e-10 0)
(4.99983e-05 -9.48178e-10 0)
(4.99988e-05 -1.12707e-09 0)
(4.99989e-05 -1.25699e-09 0)
(4.99995e-05 -1.39392e-09 0)
(4.99997e-05 -1.45841e-09 0)
(5.00003e-05 -1.53167e-09 0)
(5.00005e-05 -1.52963e-09 0)
(5.00011e-05 -1.52496e-09 0)
(5.00013e-05 -1.46139e-09 0)
(5.00017e-05 -1.38237e-09 0)
(5.00018e-05 -1.27163e-09 0)
(5.0002e-05 -1.14431e-09 0)
(4.99977e-05 -1.49261e-10 0)
(4.99971e-05 -3.67724e-10 0)
(4.99972e-05 -5.93537e-10 0)
(4.99976e-05 -8.10879e-10 0)
(4.99977e-05 -1.00641e-09 0)
(4.99983e-05 -1.20129e-09 0)
(4.99985e-05 -1.33894e-09 0)
(4.99992e-05 -1.49095e-09 0)
(4.99994e-05 -1.5595e-09 0)
(5.00002e-05 -1.64222e-09 0)
(5.00004e-05 -1.63942e-09 0)
(5.00011e-05 -1.63401e-09 0)
(5.00014e-05 -1.56277e-09 0)
(5.00019e-05 -1.47037e-09 0)
(5.0002e-05 -1.34329e-09 0)
(5.00023e-05 -1.19119e-09 0)
(4.99971e-05 -1.58031e-10 0)
(4.99964e-05 -3.80084e-10 0)
(4.99966e-05 -6.13895e-10 0)
(4.99969e-05 -8.41385e-10 0)
(4.99971e-05 -1.04377e-09 0)
(4.99977e-05 -1.25247e-09 0)
(4.9998e-05 -1.39515e-09 0)
(4.99988e-05 -1.56181e-09 0)
(4.99991e-05 -1.6332e-09 0)
(4.99999e-05 -1.72597e-09 0)
(5.00003e-05 -1.72223e-09 0)
(5.00011e-05 -1.71644e-09 0)
(5.00014e-05 -1.63741e-09 0)
(5.00021e-05 -1.5305e-09 0)
(5.00023e-05 -1.38572e-09 0)
(5.00026e-05 -1.20532e-09 0)
(4.99964e-05 -1.63333e-10 0)
(4.99957e-05 -3.79963e-10 0)
(4.99958e-05 -6.1438e-10 0)
(4.99962e-05 -8.4562e-10 0)
(4.99964e-05 -1.04863e-09 0)
(4.99971e-05 -1.26721e-09 0)
(4.99974e-05 -1.41074e-09 0)
(4.99983e-05 -1.59068e-09 0)
(4.99987e-05 -1.66302e-09 0)
(4.99997e-05 -1.76621e-09 0)
(5.00002e-05 -1.76138e-09 0)
(5.00011e-05 -1.7559e-09 0)
(5.00015e-05 -1.66937e-09 0)
(5.00023e-05 -1.54719e-09 0)
(5.00026e-05 -1.38377e-09 0)
(5.0003e-05 -1.17153e-09 0)
(4.99956e-05 -1.63278e-10 0)
(4.99948e-05 -3.61651e-10 0)
(4.9995e-05 -5.85845e-10 0)
(4.99955e-05 -8.11302e-10 0)
(4.99957e-05 -1.00576e-09 0)
(4.99965e-05 -1.22799e-09 0)
(4.99968e-05 -1.36614e-09 0)
(4.99978e-05 -1.55668e-09 0)
(4.99983e-05 -1.62706e-09 0)
(4.99994e-05 -1.74081e-09 0)
(5e-05 -1.73464e-09 0)
(5.00011e-05 -1.73058e-09 0)
(5.00017e-05 -1.63738e-09 0)
(5.00025e-05 -1.49975e-09 0)
(5.0003e-05 -1.31734e-09 0)
(5.00035e-05 -1.06986e-09 0)
(4.99947e-05 -1.55413e-10 0)
(4.99939e-05 -3.17784e-10 0)
(4.99941e-05 -5.1651e-10 0)
(4.99946e-05 -7.22578e-10 0)
(4.99949e-05 -8.95573e-10 0)
(4.99958e-05 -1.11215e-09 0)
(4.99962e-05 -1.23611e-09 0)
(4.99973e-05 -1.43291e-09 0)
(4.99979e-05 -1.49716e-09 0)
(4.99991e-05 -1.62127e-09 0)
(4.99998e-05 -1.61349e-09 0)
(5.00011e-05 -1.61261e-09 0)
(5.00018e-05 -1.51434e-09 0)
(5.00028e-05 -1.362e-09 0)
(5.00034e-05 -1.16115e-09 0)
(5.00041e-05 -8.754e-10 0)
(4.99938e-05 -1.36577e-10 0)
(4.9993e-05 -2.39163e-10 0)
(4.99932e-05 -3.91619e-10 0)
(4.99938e-05 -5.59533e-10 0)
(4.99941e-05 -6.93371e-10 0)
(4.9995e-05 -8.91028e-10 0)
(4.99955e-05 -9.8862e-10 0)
(4.99967e-05 -1.18495e-09 0)
(4.99974e-05 -1.23717e-09 0)
(4.99988e-05 -1.37085e-09 0)
(4.99997e-05 -1.361e-09 0)
(5.0001e-05 -1.36582e-09 0)
(5.0002e-05 -1.26505e-09 0)
(5.00032e-05 -1.09991e-09 0)
(5.0004e-05 -8.82452e-10 0)
(5.00048e-05 -5.56062e-10 0)
(4.99929e-05 -1.02818e-10 0)
(4.99921e-05 -1.14188e-10 0)
(4.99923e-05 -1.92571e-10 0)
(4.99929e-05 -2.97033e-10 0)
(4.99932e-05 -3.68016e-10 0)
(4.99942e-05 -5.28431e-10 0)
(4.99948e-05 -5.83196e-10 0)
(4.99961e-05 -7.69407e-10 0)
(4.99969e-05 -8.0149e-10 0)
(4.99984e-05 -9.43289e-10 0)
(4.99994e-05 -9.30753e-10 0)
(5.0001e-05 -9.44927e-10 0)
(5.00022e-05 -8.45553e-10 0)
(5.00036e-05 -6.71338e-10 0)
(5.00046e-05 -4.40838e-10 0)
(5.00056e-05 -7.25168e-11 0)
(4.9992e-05 -4.91564e-11 0)
(4.99913e-05 7.11499e-11 0)
(4.99915e-05 1.0316e-10 0)
(4.99921e-05 9.54707e-11 0)
(4.99924e-05 1.18489e-10 0)
(4.99935e-05 2.00836e-11 0)
(4.99941e-05 3.00685e-11 0)
(4.99954e-05 -1.32303e-10 0)
(4.99964e-05 -1.33152e-10 0)
(4.9998e-05 -2.8038e-10 0)
(4.99992e-05 -2.64107e-10 0)
(5.0001e-05 -2.92456e-10 0)
(5.00024e-05 -2.0002e-10 0)
(5.00041e-05 -2.26756e-11 0)
(5.00053e-05 2.14906e-10 0)
(5.00066e-05 6.24874e-10 0)
(4.99912e-05 3.04241e-11 0)
(4.99906e-05 3.34072e-10 0)
(4.99907e-05 5.23259e-10 0)
(4.99914e-05 6.55642e-10 0)
(4.99917e-05 8.12972e-10 0)
(4.99927e-05 8.09468e-10 0)
(4.99933e-05 9.12914e-10 0)
(4.99948e-05 7.93244e-10 0)
(4.99958e-05 8.38544e-10 0)
(4.99975e-05 6.90043e-10 0)
(4.9999e-05 7.11773e-10 0)
(5.00009e-05 6.62633e-10 0)
(5.00026e-05 7.40592e-10 0)
(5.00046e-05 9.11875e-10 0)
(5.00062e-05 1.14746e-09 0)
(5.00078e-05 1.59649e-09 0)
(4.99904e-05 1.43317e-10 0)
(4.999e-05 6.94631e-10 0)
(4.99901e-05 1.10011e-09 0)
(4.99908e-05 1.42768e-09 0)
(4.9991e-05 1.77078e-09 0)
(4.99921e-05 1.90506e-09 0)
(4.99927e-05 2.1394e-09 0)
(4.99942e-05 2.08811e-09 0)
(4.99952e-05 2.19977e-09 0)
(4.99971e-05 2.05675e-09 0)
(4.99987e-05 2.08689e-09 0)
(5.00009e-05 2.00876e-09 0)
(5.00028e-05 2.06225e-09 0)
(5.00052e-05 2.21439e-09 0)
(5.00071e-05 2.4347e-09 0)
(5.00091e-05 2.91708e-09 0)
(4.99899e-05 2.98135e-10 0)
(4.99898e-05 1.17658e-09 0)
(4.99899e-05 1.87206e-09 0)
(4.99905e-05 2.46427e-09 0)
(4.99906e-05 3.05788e-09 0)
(4.99916e-05 3.38538e-09 0)
(4.99922e-05 3.79865e-09 0)
(4.99936e-05 3.85035e-09 0)
(4.99947e-05 4.05536e-09 0)
(4.99966e-05 3.92811e-09 0)
(4.99984e-05 3.97171e-09 0)
(5.00008e-05 3.85428e-09 0)
(5.00031e-05 3.87066e-09 0)
(5.00058e-05 3.98517e-09 0)
(5.00081e-05 4.17166e-09 0)
(5.00106e-05 4.67731e-09 0)
(4.99897e-05 5.05074e-10 0)
(4.99901e-05 1.80634e-09 0)
(4.999e-05 2.88205e-09 0)
(4.99906e-05 3.82462e-09 0)
(4.99905e-05 4.74928e-09 0)
(4.99915e-05 5.34035e-09 0)
(4.99919e-05 5.99418e-09 0)
(4.99932e-05 6.19499e-09 0)
(4.99943e-05 6.52993e-09 0)
(4.99962e-05 6.43449e-09 0)
(4.99981e-05 6.50027e-09 0)
(5.00007e-05 6.33184e-09 0)
(5.00033e-05 6.29567e-09 0)
(5.00064e-05 6.3476e-09 0)
(5.00093e-05 6.47479e-09 0)
(5.00123e-05 6.98781e-09 0)
(4.999e-05 7.75473e-10 0)
(4.9991e-05 2.61339e-09 0)
(4.99908e-05 4.17803e-09 0)
(4.99912e-05 5.57561e-09 0)
(4.9991e-05 6.92993e-09 0)
(4.99917e-05 7.87329e-09 0)
(4.99919e-05 8.84566e-09 0)
(4.99931e-05 9.257e-09 0)
(4.9994e-05 9.77098e-09 0)
(4.99959e-05 9.73205e-09 0)
(4.99978e-05 9.83482e-09 0)
(5.00006e-05 9.60299e-09 0)
(5.00035e-05 9.49669e-09 0)
(5.00071e-05 9.45291e-09 0)
(5.00105e-05 9.48698e-09 0)
(5.00143e-05 9.98368e-09 0)
(4.9991e-05 1.12197e-09 0)
(4.99928e-05 3.62799e-09 0)
(4.99924e-05 5.80975e-09 0)
(4.99926e-05 7.78721e-09 0)
(4.99921e-05 9.6903e-09 0)
(4.99925e-05 1.10958e-08 0)
(4.99924e-05 1.24851e-08 0)
(4.99932e-05 1.31879e-08 0)
(4.99939e-05 1.39478e-08 0)
(4.99956e-05 1.40033e-08 0)
(4.99976e-05 1.41684e-08 0)
(5.00004e-05 1.38627e-08 0)
(5.00036e-05 1.36681e-08 0)
(5.00077e-05 1.34862e-08 0)
(5.00118e-05 1.33832e-08 0)
(5.00164e-05 1.38296e-08 0)
(4.99928e-05 1.55756e-09 0)
(4.99958e-05 4.88014e-09 0)
(4.99951e-05 7.82684e-09 0)
(4.99951e-05 1.05305e-08 0)
(4.99941e-05 1.31235e-08 0)
(4.99942e-05 1.51257e-08 0)
(4.99935e-05 1.70547e-08 0)
(4.99939e-05 1.81555e-08 0)
(4.99942e-05 1.92514e-08 0)
(4.99956e-05 1.94596e-08 0)
(4.99974e-05 1.97289e-08 0)
(5.00002e-05 1.93455e-08 0)
(5.00037e-05 1.90474e-08 0)
(5.00082e-05 1.86744e-08 0)
(5.00131e-05 1.83788e-08 0)
(5.00187e-05 1.87264e-08 0)
(4.99959e-05 2.09508e-09 0)
(5.00003e-05 6.39541e-09 0)
(4.99993e-05 1.02724e-08 0)
(4.99989e-05 1.38691e-08 0)
(4.99974e-05 1.73158e-08 0)
(4.99969e-05 2.00761e-08 0)
(4.99955e-05 2.26961e-08 0)
(4.99953e-05 2.43335e-08 0)
(4.9995e-05 2.58881e-08 0)
(4.99958e-05 2.63373e-08 0)
(4.99973e-05 2.67801e-08 0)
(4.99999e-05 2.63299e-08 0)
(5.00036e-05 2.59227e-08 0)
(5.00086e-05 2.52949e-08 0)
(5.00144e-05 2.47363e-08 0)
(5.00211e-05 2.49149e-08 0)
(5.00004e-05 2.74545e-09 0)
(5.00066e-05 8.19069e-09 0)
(5.00052e-05 1.31762e-08 0)
(5.00044e-05 1.78499e-08 0)
(5.00022e-05 2.23347e-08 0)
(5.0001e-05 2.60427e-08 0)
(4.99988e-05 2.95375e-08 0)
(4.99977e-05 3.18904e-08 0)
(4.99965e-05 3.40687e-08 0)
(4.99965e-05 3.4893e-08 0)
(4.99974e-05 3.56219e-08 0)
(4.99996e-05 3.51484e-08 0)
(5.00034e-05 3.46515e-08 0)
(5.00088e-05 3.37013e-08 0)
(5.00154e-05 3.27978e-08 0)
(5.00236e-05 3.27086e-08 0)
(5.00068e-05 3.51585e-09 0)
(5.00152e-05 1.02675e-08 0)
(5.00133e-05 1.65437e-08 0)
(5.0012e-05 2.24878e-08 0)
(5.0009e-05 2.82108e-08 0)
(5.00068e-05 3.30819e-08 0)
(5.00036e-05 3.7669e-08 0)
(5.00014e-05 4.09629e-08 0)
(4.9999e-05 4.39852e-08 0)
(4.99979e-05 4.53826e-08 0)
(4.99978e-05 4.65791e-08 0)
(4.99993e-05 4.61876e-08 0)
(5.00029e-05 4.56783e-08 0)
(5.00086e-05 4.436e-08 0)
(5.00162e-05 4.30456e-08 0)
(5.00261e-05 4.25662e-08 0)
(5.00156e-05 4.40682e-09 0)
(5.00265e-05 1.26034e-08 0)
(5.00241e-05 2.03422e-08 0)
(5.00221e-05 2.77469e-08 0)
(5.00182e-05 3.49122e-08 0)
(5.00149e-05 4.11801e-08 0)
(5.00104e-05 4.71072e-08 0)
(5.00068e-05 5.16185e-08 0)
(5.00029e-05 5.57693e-08 0)
(5.00003e-05 5.8023e-08 0)
(4.99988e-05 5.99628e-08 0)
(4.99992e-05 5.98571e-08 0)
(5.00021e-05 5.95063e-08 0)
(5.00078e-05 5.78313e-08 0)
(5.00165e-05 5.6093e-08 0)
(5.00283e-05 5.50741e-08 0)
(5.0027e-05 5.4086e-09 0)
(5.00409e-05 1.51434e-08 0)
(5.00379e-05 2.44859e-08 0)
(5.00352e-05 3.35184e-08 0)
(5.00302e-05 4.23162e-08 0)
(5.00257e-05 5.02171e-08 0)
(5.00197e-05 5.77507e-08 0)
(5.00144e-05 6.3802e-08 0)
(5.00086e-05 6.94354e-08 0)
(5.00041e-05 7.29307e-08 0)
(5.00007e-05 7.60133e-08 0)
(4.99995e-05 7.65294e-08 0)
(5.00013e-05 7.66233e-08 0)
(5.00065e-05 7.46529e-08 0)
(5.00161e-05 7.24632e-08 0)
(5.00301e-05 7.0597e-08 0)
(5.00415e-05 6.49746e-09 0)
(5.00588e-05 1.77885e-08 0)
(5.00551e-05 2.88174e-08 0)
(5.00517e-05 3.95924e-08 0)
(5.00456e-05 5.01702e-08 0)
(5.00397e-05 5.99154e-08 0)
(5.0032e-05 6.93172e-08 0)
(5.00248e-05 7.72641e-08 0)
(5.00168e-05 8.48045e-08 0)
(5.00099e-05 9.00614e-08 0)
(5.00041e-05 9.48775e-08 0)
(5.00004e-05 9.66039e-08 0)
(5.00003e-05 9.76941e-08 0)
(5.00044e-05 9.56847e-08 0)
(5.00145e-05 9.29638e-08 0)
(5.0031e-05 8.95714e-08 0)
(5.00596e-05 7.63075e-09 0)
(5.00803e-05 2.03901e-08 0)
(5.00761e-05 3.3096e-08 0)
(5.00718e-05 4.56398e-08 0)
(5.00646e-05 5.80612e-08 0)
(5.00574e-05 6.97923e-08 0)
(5.00479e-05 8.12703e-08 0)
(5.00386e-05 9.14554e-08 0)
(5.00282e-05 1.01363e-07 0)
(5.00186e-05 1.09042e-07 0)
(5.00097e-05 1.16465e-07 0)
(5.00028e-05 1.20496e-07 0)
(4.99996e-05 1.23948e-07 0)
(5.00012e-05 1.23263e-07 0)
(5.00107e-05 1.21143e-07 0)
(5.00303e-05 1.16377e-07 0)
(5.00813e-05 8.74458e-09 0)
(5.01057e-05 2.27441e-08 0)
(5.01009e-05 3.69876e-08 0)
(5.00959e-05 5.11927e-08 0)
(5.00876e-05 6.5385e-08 0)
(5.0079e-05 7.91049e-08 0)
(5.00678e-05 9.27278e-08 0)
(5.00564e-05 1.05367e-07 0)
(5.00435e-05 1.17992e-07 0)
(5.00311e-05 1.28722e-07 0)
(5.00189e-05 1.3972e-07 0)
(5.00083e-05 1.47559e-07 0)
(5.00011e-05 1.55756e-07 0)
(4.99986e-05 1.5981e-07 0)
(5.00052e-05 1.63289e-07 0)
(5.00262e-05 1.62706e-07 0)
(5.01068e-05 9.75149e-09 0)
(5.01347e-05 2.46014e-08 0)
(5.01294e-05 4.00808e-08 0)
(5.01237e-05 5.56662e-08 0)
(5.01144e-05 7.13673e-08 0)
(5.01046e-05 8.6869e-08 0)
(5.00918e-05 1.02459e-07 0)
(5.00786e-05 1.17481e-07 0)
(5.00634e-05 1.32797e-07 0)
(5.00484e-05 1.46736e-07 0)
(5.00331e-05 1.61615e-07 0)
(5.00192e-05 1.73915e-07 0)
(5.00084e-05 1.88139e-07 0)
(5.00022e-05 1.99236e-07 0)
(5.00046e-05 2.13125e-07 0)
(5.00215e-05 2.24749e-07 0)
(5.0136e-05 1.05449e-08 0)
(5.01668e-05 2.56846e-08 0)
(5.01612e-05 4.19162e-08 0)
(5.01549e-05 5.84035e-08 0)
(5.01448e-05 7.51344e-08 0)
(5.01339e-05 9.19608e-08 0)
(5.01197e-05 1.09044e-07 0)
(5.01049e-05 1.26002e-07 0)
(5.00875e-05 1.43467e-07 0)
(5.00701e-05 1.60045e-07 0)
(5.00518e-05 1.77908e-07 0)
(5.00347e-05 1.93339e-07 0)
(5.00202e-05 2.11255e-07 0)
(5.00098e-05 2.25295e-07 0)
(5.00069e-05 2.42284e-07 0)
(5.00155e-05 2.54903e-07 0)
(5.01682e-05 1.10062e-08 0)
(5.02014e-05 2.57138e-08 0)
(5.01954e-05 4.20313e-08 0)
(5.01886e-05 5.87453e-08 0)
(5.01779e-05 7.58179e-08 0)
(5.01661e-05 9.32826e-08 0)
(5.01508e-05 1.1114e-07 0)
(5.01344e-05 1.29335e-07 0)
(5.0115e-05 1.48151e-07 0)
(5.00953e-05 1.66608e-07 0)
(5.00737e-05 1.86457e-07 0)
(5.00527e-05 2.03936e-07 0)
(5.00332e-05 2.24082e-07 0)
(5.00165e-05 2.38994e-07 0)
(5.0006e-05 2.56578e-07 0)
(5.00051e-05 2.67619e-07 0)
(5.02029e-05 1.10156e-08 0)
(5.02372e-05 2.44302e-08 0)
(5.0231e-05 3.99983e-08 0)
(5.02239e-05 5.6082e-08 0)
(5.02128e-05 7.26144e-08 0)
(5.02002e-05 8.98197e-08 0)
(5.0184e-05 1.07513e-07 0)
(5.01663e-05 1.26011e-07 0)
(5.0145e-05 1.45154e-07 0)
(5.01229e-05 1.64557e-07 0)
(5.00977e-05 1.85269e-07 0)
(5.00724e-05 2.03877e-07 0)
(5.0047e-05 2.25221e-07 0)
(5.00225e-05 2.39906e-07 0)
(5.00032e-05 2.57801e-07 0)
(4.9993e-05 2.66888e-07 0)
(5.02388e-05 1.04626e-08 0)
(5.0273e-05 2.16192e-08 0)
(5.02667e-05 3.54615e-08 0)
(5.02594e-05 4.99008e-08 0)
(5.02479e-05 6.48441e-08 0)
(5.02348e-05 8.07015e-08 0)
(5.02179e-05 9.70989e-08 0)
(5.0199e-05 1.14749e-07 0)
(5.01762e-05 1.32999e-07 0)
(5.01518e-05 1.52266e-07 0)
(5.0123e-05 1.72634e-07 0)
(5.00931e-05 1.91702e-07 0)
(5.00605e-05 2.13446e-07 0)
(5.00269e-05 2.27588e-07 0)
(4.99973e-05 2.46727e-07 0)
(4.99757e-05 2.52559e-07 0)
(5.02746e-05 9.2553e-09 0)
(5.0307e-05 1.71073e-08 0)
(5.03007e-05 2.813e-08 0)
(5.02933e-05 3.97748e-08 0)
(5.02817e-05 5.19249e-08 0)
(5.02682e-05 6.51526e-08 0)
(5.02508e-05 7.88968e-08 0)
(5.02311e-05 9.42455e-08 0)
(5.02069e-05 1.10093e-07 0)
(5.01806e-05 1.27819e-07 0)
(5.01485e-05 1.46362e-07 0)
(5.01141e-05 1.65161e-07 0)
(5.00737e-05 1.86166e-07 0)
(5.00302e-05 2.00366e-07 0)
(4.99884e-05 2.2164e-07 0)
(4.99501e-05 2.24031e-07 0)
(5.03087e-05 7.31996e-09 0)
(5.03376e-05 1.0765e-08 0)
(5.03313e-05 1.77892e-08 0)
(5.03238e-05 2.53964e-08 0)
(5.03122e-05 3.3456e-08 0)
(5.02984e-05 4.26766e-08 0)
(5.02807e-05 5.23146e-08 0)
(5.02602e-05 6.38039e-08 0)
(5.02351e-05 7.56885e-08 0)
(5.02073e-05 9.02546e-08 0)
(5.01726e-05 1.053e-07 0)
(5.01341e-05 1.22725e-07 0)
(5.00862e-05 1.41328e-07 0)
(5.00334e-05 1.56899e-07 0)
(4.99779e-05 1.78574e-07 0)
(4.99142e-05 1.75523e-07 0)
(5.03393e-05 4.60164e-09 0)
(5.03624e-05 2.75325e-09 0)
(5.03561e-05 4.71567e-09 0)
(5.03485e-05 7.17832e-09 0)
(5.03368e-05 1.00335e-08 0)
(5.03229e-05 1.41171e-08 0)
(5.0305e-05 1.85885e-08 0)
(5.0284e-05 2.5283e-08 0)
(5.0259e-05 3.22219e-08 0)
(5.02308e-05 4.1829e-08 0)
(5.01952e-05 5.0909e-08 0)
(5.01541e-05 6.3689e-08 0)
(5.01007e-05 7.54129e-08 0)
(5.00378e-05 8.91728e-08 0)
(4.99592e-05 1.01527e-07 0)
(4.98621e-05 8.97914e-08 0)
(5.03641e-05 1.16696e-09 0)
(5.03814e-05 -6.15464e-09 0)
(5.03752e-05 -9.84276e-09 0)
(5.03679e-05 -1.32154e-08 0)
(5.03568e-05 -1.6383e-08 0)
(5.03433e-05 -1.85603e-08 0)
(5.03261e-05 -2.07461e-08 0)
(5.03051e-05 -2.09294e-08 0)
(5.02787e-05 -2.19527e-08 0)
(5.02478e-05 -2.17459e-08 0)
(5.02096e-05 -2.42583e-08 0)
(5.0164e-05 -2.38969e-08 0)
(5.01039e-05 -2.77862e-08 0)
(5.00296e-05 -2.85244e-08 0)
(4.99238e-05 -3.54101e-08 0)
(4.97918e-05 -5.35417e-08 0)
(5.0383e-05 -2.65192e-09 0)
(5.03922e-05 -1.70968e-08 0)
(5.03856e-05 -2.78968e-08 0)
(5.03774e-05 -3.89346e-08 0)
(5.03652e-05 -5.04452e-08 0)
(5.03502e-05 -6.20509e-08 0)
(5.03311e-05 -7.4975e-08 0)
(5.03075e-05 -8.81287e-08 0)
(5.02773e-05 -1.03953e-07 0)
(5.02408e-05 -1.1978e-07 0)
(5.01964e-05 -1.40249e-07 0)
(5.0143e-05 -1.59394e-07 0)
(5.00739e-05 -1.85317e-07 0)
(4.99876e-05 -2.07104e-07 0)
(4.9865e-05 -2.3572e-07 0)
(4.97098e-05 -2.5949e-07 0)
(5.0394e-05 -7.33139e-09 0)
(5.03807e-05 -3.38235e-08 0)
(5.03726e-05 -5.55499e-08 0)
(5.0362e-05 -7.8284e-08 0)
(5.03467e-05 -1.02453e-07 0)
(5.03274e-05 -1.27952e-07 0)
(5.0303e-05 -1.5604e-07 0)
(5.02732e-05 -1.86066e-07 0)
(5.02369e-05 -2.1993e-07 0)
(5.01932e-05 -2.54939e-07 0)
(5.01411e-05 -2.9556e-07 0)
(5.00785e-05 -3.35793e-07 0)
(5.00007e-05 -3.8393e-07 0)
(4.99046e-05 -4.26478e-07 0)
(4.97742e-05 -4.77177e-07 0)
(4.961e-05 -5.11452e-07 0)
(5.0383e-05 -1.44776e-08 0)
(5.03329e-05 -5.64791e-08 0)
(5.03228e-05 -9.27269e-08 0)
(5.03091e-05 -1.30554e-07 0)
(5.02899e-05 -1.70397e-07 0)
(5.02655e-05 -2.1224e-07 0)
(5.02353e-05 -2.57198e-07 0)
(5.01988e-05 -3.04632e-07 0)
(5.01555e-05 -3.5629e-07 0)
(5.01041e-05 -4.09688e-07 0)
(5.00442e-05 -4.68708e-07 0)
(4.9973e-05 -5.27115e-07 0)
(4.98883e-05 -5.92667e-07 0)
(4.97856e-05 -6.5011e-07 0)
(4.96557e-05 -7.14311e-07 0)
(4.94976e-05 -7.52128e-07 0)
(5.03359e-05 -2.41638e-08 0)
(5.02422e-05 -8.2191e-08 0)
(5.02303e-05 -1.34624e-07 0)
(5.02137e-05 -1.88854e-07 0)
(5.01907e-05 -2.45095e-07 0)
(5.01615e-05 -3.03342e-07 0)
(5.01259e-05 -3.64447e-07 0)
(5.00833e-05 -4.27843e-07 0)
(5.00338e-05 -4.9502e-07 0)
(4.99759e-05 -5.63633e-07 0)
(4.99101e-05 -6.36876e-07 0)
(4.98333e-05 -7.08356e-07 0)
(4.97463e-05 -7.84906e-07 0)
(4.9644e-05 -8.50235e-07 0)
(4.95245e-05 -9.19071e-07 0)
(4.93855e-05 -9.54772e-07 0)
(5.02461e-05 -3.51704e-08 0)
(5.01073e-05 -1.0676e-07 0)
(5.00941e-05 -1.74485e-07 0)
(5.00754e-05 -2.43987e-07 0)
(5.00497e-05 -3.15123e-07 0)
(5.00173e-05 -3.87854e-07 0)
(4.99779e-05 -4.62687e-07 0)
(4.99312e-05 -5.39103e-07 0)
(4.98775e-05 -6.1817e-07 0)
(4.98156e-05 -6.97735e-07 0)
(4.9747e-05 -7.80263e-07 0)
(4.96689e-05 -8.59529e-07 0)
(4.95848e-05 -9.41299e-07 0)
(4.949e-05 -1.0095e-06 0)
(4.93886e-05 -1.07829e-06 0)
(4.9277e-05 -1.11143e-06 0)
(5.01117e-05 -4.57004e-08 0)
(4.99338e-05 -1.2593e-07 0)
(4.99199e-05 -2.05552e-07 0)
(4.99002e-05 -2.86927e-07 0)
(4.98732e-05 -3.69543e-07 0)
(4.98392e-05 -4.53323e-07 0)
(4.97982e-05 -5.38371e-07 0)
(4.97497e-05 -6.24173e-07 0)
(4.96946e-05 -7.11242e-07 0)
(4.9632e-05 -7.97665e-07 0)
(4.95642e-05 -8.85143e-07 0)
(4.94892e-05 -9.68046e-07 0)
(4.94129e-05 -1.05098e-06 0)
(4.9331e-05 -1.11934e-06 0)
(4.92526e-05 -1.18609e-06 0)
(4.9173e-05 -1.21771e-06 0)
(4.99385e-05 -5.39224e-08 0)
(4.9733e-05 -1.36896e-07 0)
(4.97189e-05 -2.23369e-07 0)
(4.96988e-05 -3.11702e-07 0)
(4.96715e-05 -4.01098e-07 0)
(4.96373e-05 -4.91469e-07 0)
(4.95963e-05 -5.82537e-07 0)
(4.95483e-05 -6.73778e-07 0)
(4.94945e-05 -7.65103e-07 0)
(4.94341e-05 -8.54896e-07 0)
(4.93705e-05 -9.44004e-07 0)
(4.93023e-05 -1.02773e-06 0)
(4.92373e-05 -1.10942e-06 0)
(4.91723e-05 -1.17682e-06 0)
(4.91199e-05 -1.24101e-06 0)
(4.90744e-05 -1.27255e-06 0)
(4.97379e-05 -5.86253e-08 0)
(4.95188e-05 -1.39019e-07 0)
(4.95045e-05 -2.26857e-07 0)
(4.94842e-05 -3.16718e-07 0)
(4.94569e-05 -4.07647e-07 0)
(4.94232e-05 -4.99605e-07 0)
(4.93832e-05 -5.92044e-07 0)
(4.93371e-05 -6.84521e-07 0)
(4.92863e-05 -7.76454e-07 0)
(4.92306e-05 -8.66592e-07 0)
(4.91735e-05 -9.54844e-07 0)
(4.91149e-05 -1.0376e-06 0)
(4.90636e-05 -1.11673e-06 0)
(4.90179e-05 -1.1829e-06 0)
(4.89925e-05 -1.24466e-06 0)
(4.89815e-05 -1.27765e-06 0)
(4.95238e-05 -5.95321e-08 0)
(4.93043e-05 -1.33715e-07 0)
(4.92896e-05 -2.18172e-07 0)
(4.9269e-05 -3.04642e-07 0)
(4.92417e-05 -3.92141e-07 0)
(4.92084e-05 -4.80718e-07 0)
(4.91697e-05 -5.69722e-07 0)