/*--------------------------------*- C++ -*----------------------------------*\
| =========                 |                                                 |
| \\      /  F ield         | OpenFOAM: The Open Source CFD Toolbox           |
|  \\    /   O peration     | Version:  4.1                                   |
|   \\  /    A nd           | Web:      www.OpenFOAM.org                      |
|    \\/     M anipulation  |                                                 |
\*---------------------------------------------------------------------------*/
FoamFile
{
    version     2.0;
    format      ascii;
    class       volVectorField;
    location    "0.0099";
    object      cellDisplacement;
}
// * * * * * * * * * * * * * * * * * * * * * * * * * * * * * * * * * * * * * //

dimensions      [0 1 0 0 0 0 0];

internalField   nonuniform List<vector> 
1536
(
(6.1278e-05 1.2708e-05 -4.0662e-09)
(5.9766e-05 1.2245e-05 -3.8761e-09)
(5.8105e-05 1.1112e-05 -3.4718e-09)
(5.6301e-05 9.4696e-06 -2.9079e-09)
(5.4358e-05 7.5545e-06 -2.2633e-09)
(5.2295e-05 5.6315e-06 -1.6253e-09)
(5.0141e-05 3.9386e-06 -1.0717e-09)
(4.7929e-05 2.6457e-06 -6.5673e-10)
(4.5685e-05 1.8376e-06 -4.0798e-10)
(4.3424e-05 1.5146e-06 -3.2728e-10)
(4.1154e-05 1.6037e-06 -3.8994e-10)
(3.8871e-05 1.9778e-06 -5.5124e-10)
(6.124e-05 1.1098e-05 -1.8507e-06)
(5.9733e-05 1.0699e-05 -1.7846e-06)
(5.8074e-05 9.7205e-06 -1.6218e-06)
(5.6272e-05 8.301e-06 -1.3858e-06)
(5.4333e-05 6.6443e-06 -1.1104e-06)
(5.2275e-05 4.9781e-06 -8.3314e-07)
(5.0128e-05 3.5072e-06 -5.882e-07)
(4.7921e-05 2.3794e-06 -4.0025e-07)
(4.568e-05 1.6691e-06 -2.8181e-07)
(4.3421e-05 1.3776e-06 -2.3311e-07)
(4.1151e-05 1.443e-06 -2.4366e-07)
(3.8865e-05 1.7566e-06 -2.9543e-07)
(6.1213e-05 9.3539e-06 -3.7318e-06)
(5.971e-05 9.0226e-06 -3.6003e-06)
(5.8053e-05 8.204e-06 -3.2745e-06)
(5.6252e-05 7.0164e-06 -2.8017e-06)
(5.4315e-05 5.6294e-06 -2.2494e-06)
(5.2262e-05 4.2327e-06 -1.693e-06)
(5.0118e-05 2.9975e-06 -1.2007e-06)
(4.7915e-05 2.0478e-06 -8.2207e-07)
(4.5677e-05 1.4464e-06 -5.8212e-07)
(4.3419e-05 1.1952e-06 -4.816e-07)
(4.1148e-05 1.2428e-06 -5.0003e-07)
(3.8861e-05 1.4994e-06 -6.0165e-07)
(6.1199e-05 7.5227e-06 -5.6371e-06)
(5.9698e-05 7.2585e-06 -5.4394e-06)
(5.8041e-05 6.6032e-06 -4.9488e-06)
(5.6241e-05 5.652e-06 -4.2365e-06)
(5.4306e-05 4.5408e-06 -3.4043e-06)
(5.2255e-05 3.421e-06 -2.5656e-06)
(5.0113e-05 2.4298e-06 -1.8232e-06)
(4.7912e-05 1.6665e-06 -1.2514e-06)
(4.5675e-05 1.1818e-06 -8.881e-07)
(4.3418e-05 9.7725e-07 -7.3467e-07)
(4.1147e-05 1.0122e-06 -7.6057e-07)
(3.8859e-05 1.2151e-06 -9.1223e-07)
(6.1199e-05 5.6364e-06 -7.5233e-06)
(5.9698e-05 5.4388e-06 -7.2589e-06)
(5.8041e-05 4.9484e-06 -6.6035e-06)
(5.6241e-05 4.2363e-06 -5.6522e-06)
(5.4306e-05 3.4042e-06 -4.5408e-06)
(5.2255e-05 2.5657e-06 -3.4209e-06)
(5.0113e-05 1.8234e-06 -2.4296e-06)
(4.7912e-05 1.2516e-06 -1.6663e-06)
(4.5675e-05 8.8839e-07 -1.1814e-06)
(4.3418e-05 7.3494e-07 -9.7692e-07)
(4.1147e-05 7.608e-07 -1.0119e-06)
(3.8859e-05 9.1238e-07 -1.2149e-06)
(6.1213e-05 3.731e-06 -9.3543e-06)
(5.971e-05 3.5997e-06 -9.023e-06)
(5.8053e-05 3.274e-06 -8.2042e-06)
(5.6252e-05 2.8014e-06 -7.0164e-06)
(5.4316e-05 2.2493e-06 -5.6294e-06)
(5.2262e-05 1.693e-06 -4.2326e-06)
(5.0118e-05 1.2009e-06 -2.9973e-06)
(4.7915e-05 8.223e-07 -2.0475e-06)
(4.5677e-05 5.8238e-07 -1.446e-06)
(4.3419e-05 4.8184e-07 -1.1948e-06)
(4.1148e-05 5.002e-07 -1.2424e-06)
(3.8861e-05 6.0173e-07 -1.4991e-06)
(6.124e-05 1.8499e-06 -1.1098e-05)
(5.9734e-05 1.784e-06 -1.07e-05)
(5.8075e-05 1.6214e-06 -9.7206e-06)
(5.6272e-05 1.3856e-06 -8.301e-06)
(5.4333e-05 1.1103e-06 -6.6442e-06)
(5.2276e-05 8.332e-07 -4.9779e-06)
(5.0128e-05 5.8837e-07 -3.5069e-06)
(4.7921e-05 4.0048e-07 -2.379e-06)
(4.568e-05 2.8206e-07 -1.6686e-06)
(4.3422e-05 2.3331e-07 -1.3772e-06)
(4.1151e-05 2.4379e-07 -1.4425e-06)
(3.8865e-05 2.9545e-07 -1.7562e-06)
(6.1279e-05 3.3741e-09 -1.2708e-05)
(5.9767e-05 3.3627e-09 -1.2245e-05)
(5.8105e-05 3.1381e-09 -1.1112e-05)
(5.6301e-05 2.7467e-09 -9.4695e-06)
(5.4359e-05 2.2602e-09 -7.5543e-06)
(5.2295e-05 1.7559e-09 -5.6313e-06)
(5.0141e-05 1.2976e-09 -3.9383e-06)
(4.7929e-05 9.2852e-10 -2.6453e-06)
(4.5685e-05 6.7323e-10 -1.8371e-06)
(4.3424e-05 5.3626e-10 -1.514e-06)
(4.1154e-05 5.0287e-10 -1.6031e-06)
(3.8871e-05 5.4463e-10 -1.9773e-06)
(6.124e-05 1.1097e-05 1.8439e-06)
(5.9733e-05 1.0699e-05 1.7781e-06)
(5.8074e-05 9.7201e-06 1.616e-06)
(5.6272e-05 8.3006e-06 1.381e-06)
(5.4333e-05 6.644e-06 1.1066e-06)
(5.2275e-05 4.9778e-06 8.3046e-07)
(5.0128e-05 3.5069e-06 5.8646e-07)
(4.7921e-05 2.3792e-06 3.9922e-07)
(4.568e-05 1.6689e-06 2.812e-07)
(4.3421e-05 1.3775e-06 2.3263e-07)
(4.1151e-05 1.4428e-06 2.4307e-07)
(3.8865e-05 1.7565e-06 2.9455e-07)
(6.1199e-05 9.4384e-06 -7.9356e-09)
(5.9698e-05 9.1056e-06 -7.6152e-09)
(5.8042e-05 8.2822e-06 -6.8803e-09)
(5.6242e-05 7.0877e-06 -5.8351e-09)
(5.4307e-05 5.6924e-06 -4.6264e-09)
(5.2255e-05 4.2866e-06 -3.4159e-09)
(5.0114e-05 3.0422e-06 -2.3508e-09)
(4.7912e-05 2.0841e-06 -1.5378e-09)
(4.5675e-05 1.4758e-06 -1.0324e-09)
(4.3418e-05 1.2196e-06 -8.383e-10)
(4.1147e-05 1.2642e-06 -9.1131e-10)
(3.8858e-05 1.5194e-06 -1.1724e-09)
(6.117e-05 7.6709e-06 -1.9199e-06)
(5.9673e-05 7.4039e-06 -1.8533e-06)
(5.8019e-05 6.7401e-06 -1.6875e-06)
(5.6221e-05 5.7764e-06 -1.4466e-06)
(5.4289e-05 4.6501e-06 -1.1651e-06)
(5.2241e-05 3.5138e-06 -8.8098e-07)
(5.0104e-05 2.5063e-06 -6.29e-07)
(4.7906e-05 1.7282e-06 -4.3436e-07)
(4.5672e-05 1.2316e-06 -3.1007e-07)
(4.3415e-05 1.0187e-06 -2.5669e-07)
(4.1144e-05 1.0488e-06 -2.6403e-07)
(3.8853e-05 1.25e-06 -3.1412e-07)
(6.1155e-05 5.806e-06 -3.8712e-06)
(5.966e-05 5.6055e-06 -3.7377e-06)
(5.8008e-05 5.1053e-06 -3.4044e-06)
(5.621e-05 4.3789e-06 -2.9202e-06)
(5.428e-05 3.5295e-06 -2.3541e-06)
(5.2234e-05 2.6721e-06 -1.7826e-06)
(5.0099e-05 1.911e-06 -1.2753e-06)
(4.7903e-05 1.3224e-06 -8.8289e-07)
(4.567e-05 9.4567e-07 -6.3169e-07)
(4.3414e-05 7.8273e-07 -5.2297e-07)
(4.1142e-05 8.0304e-07 -5.3638e-07)
(3.8851e-05 9.527e-07 -6.3602e-07)
(6.1155e-05 3.8703e-06 -5.8067e-06)
(5.966e-05 3.737e-06 -5.6061e-06)
(5.8008e-05 3.4038e-06 -5.1058e-06)
(5.621e-05 2.9199e-06 -4.3792e-06)
(5.428e-05 2.3539e-06 -3.5296e-06)
(5.2234e-05 1.7825e-06 -2.672e-06)
(5.0099e-05 1.2754e-06 -1.9108e-06)
(4.7903e-05 8.8308e-07 -1.3222e-06)
(4.567e-05 6.3192e-07 -9.4538e-07)
(4.3414e-05 5.232e-07 -7.8244e-07)
(4.1142e-05 5.3655e-07 -8.028e-07)
(3.8851e-05 6.361e-07 -9.5253e-07)
(6.117e-05 1.9189e-06 -7.6714e-06)
(5.9673e-05 1.8525e-06 -7.4043e-06)
(5.8019e-05 1.6868e-06 -6.7403e-06)
(5.6221e-05 1.4462e-06 -5.7765e-06)
(5.4289e-05 1.1648e-06 -4.6501e-06)
(5.2241e-05 8.8092e-07 -3.5137e-06)
(5.0104e-05 6.2908e-07 -2.506e-06)
(4.7907e-05 4.3454e-07 -1.7279e-06)
(4.5672e-05 3.1027e-07 -1.2312e-06)
(4.3416e-05 2.5688e-07 -1.0184e-06)
(4.1144e-05 2.6414e-07 -1.0485e-06)
(3.8853e-05 3.1413e-07 -1.2497e-06)
(6.1199e-05 6.9342e-09 -9.4386e-06)
(5.9698e-05 6.7939e-09 -9.1058e-06)
(5.8042e-05 6.2561e-09 -8.2822e-06)
(5.6242e-05 5.414e-09 -7.0876e-06)
(5.4307e-05 4.4036e-09 -5.6922e-06)
(5.2256e-05 3.371e-09 -4.2863e-06)
(5.0114e-05 2.445e-09 -3.0419e-06)
(4.7913e-05 1.7176e-09 -2.0837e-06)
(4.5675e-05 1.2368e-09 -1.4754e-06)
(4.3418e-05 1.0066e-09 -1.2192e-06)
(4.1147e-05 9.9239e-10 -1.2638e-06)
(3.8858e-05 1.1322e-09 -1.5191e-06)
(6.1241e-05 -1.8447e-06 -1.1097e-05)
(5.9734e-05 -1.7788e-06 -1.0699e-05)
(5.8075e-05 -1.6165e-06 -9.72e-06)
(5.6272e-05 -1.3813e-06 -8.3004e-06)
(5.4333e-05 -1.1067e-06 -6.6437e-06)
(5.2276e-05 -8.3041e-07 -4.9775e-06)
(5.0128e-05 -5.8629e-07 -3.5066e-06)
(4.7921e-05 -3.9898e-07 -2.3787e-06)
(4.568e-05 -2.8096e-07 -1.6684e-06)
(4.3422e-05 -2.3244e-07 -1.377e-06)
(4.1151e-05 -2.4299e-07 -1.4423e-06)
(3.8865e-05 -2.946e-07 -1.756e-06)
(6.1213e-05 9.3552e-06 3.7335e-06)
(5.971e-05 9.0239e-06 3.602e-06)
(5.8053e-05 8.2051e-06 3.2761e-06)
(5.6252e-05 7.0172e-06 2.8032e-06)
(5.4316e-05 5.63e-06 2.2507e-06)
(5.2262e-05 4.233e-06 1.6941e-06)
(5.0118e-05 2.9977e-06 1.2018e-06)
(4.7915e-05 2.0478e-06 8.2295e-07)
(4.5677e-05 1.4463e-06 5.8289e-07)
(4.3419e-05 1.1951e-06 4.8227e-07)
(4.1148e-05 1.2428e-06 5.0062e-07)
(3.8861e-05 1.4995e-06 6.0217e-07)
(6.117e-05 7.6699e-06 1.9132e-06)
(5.9673e-05 7.403e-06 1.847e-06)
(5.8019e-05 6.7392e-06 1.6818e-06)
(5.6221e-05 5.7756e-06 1.4419e-06)
(5.4289e-05 4.6493e-06 1.1614e-06)
(5.2241e-05 3.5132e-06 8.7835e-07)
(5.0104e-05 2.5057e-06 6.273e-07)
(4.7907e-05 1.7278e-06 4.3337e-07)
(4.5672e-05 1.2312e-06 3.095e-07)
(4.3415e-05 1.0184e-06 2.5626e-07)
(4.1144e-05 1.0486e-06 2.6349e-07)
(3.8853e-05 1.2497e-06 3.133e-07)
(6.114e-05 5.8735e-06 -5.9788e-09)
(5.9647e-05 5.6718e-06 -5.7215e-09)
(5.7996e-05 5.1675e-06 -5.1523e-09)
(5.62e-05 4.435e-06 -4.3511e-09)
(5.4271e-05 3.5783e-06 -3.4261e-09)
(5.2227e-05 2.7131e-06 -2.4988e-09)
(5.0094e-05 1.9443e-06 -1.6825e-09)
(4.79e-05 1.349e-06 -1.0609e-09)
(4.5668e-05 9.6697e-07 -6.7881e-10)
(4.3413e-05 8.0048e-07 -5.3936e-10)
(4.114e-05 8.1892e-07 -6.0821e-10)
(3.8848e-05 9.6815e-07 -8.2431e-10)
(6.1124e-05 3.9754e-06 -1.9957e-06)
(5.9634e-05 3.8399e-06 -1.9276e-06)
(5.7984e-05 3.5001e-06 -1.757e-06)
(5.6189e-05 3.0063e-06 -1.5092e-06)
(5.4262e-05 2.4285e-06 -1.2191e-06)
(5.222e-05 1.8445e-06 -9.2603e-07)
(5.0089e-05 1.3252e-06 -6.6537e-07)
(4.7897e-05 9.2241e-07 -4.6319e-07)
(4.5666e-05 6.6323e-07 -3.3309e-07)
(4.3411e-05 5.4931e-07 -2.759e-07)
(4.1139e-05 5.6015e-07 -2.8134e-07)
(3.8846e-05 6.5946e-07 -3.3119e-07)
(6.1124e-05 1.9945e-06 -3.9764e-06)
(5.9634e-05 1.9267e-06 -3.8407e-06)
(5.7984e-05 1.7563e-06 -3.5007e-06)
(5.6189e-05 1.5086e-06 -3.0067e-06)
(5.4262e-05 1.2188e-06 -2.4287e-06)
(5.222e-05 9.2589e-07 -1.8446e-06)
(5.0089e-05 6.6539e-07 -1.3251e-06)
(4.7897e-05 4.6333e-07 -9.2223e-07)
(4.5666e-05 3.3328e-07 -6.63e-07)
(4.3411e-05 2.7607e-07 -5.4908e-07)
(4.1139e-05 2.8144e-07 -5.5998e-07)
(3.8846e-05 3.3119e-07 -6.5938e-07)
(6.114e-05 4.639e-09 -5.8742e-06)
(5.9648e-05 4.5677e-09 -5.6723e-06)
(5.7996e-05 4.2193e-09 -5.1678e-06)
(5.62e-05 3.6583e-09 -4.4352e-06)
(5.4271e-05 2.9766e-09 -3.5784e-06)
(5.2227e-05 2.275e-09 -2.713e-06)
(5.0095e-05 1.6434e-09 -1.9442e-06)
(4.79e-05 1.1471e-09 -1.3487e-06)
(4.5668e-05 8.1979e-10 -9.6667e-07)
(4.3413e-05 6.6302e-10 -8.0019e-07)
(4.114e-05 6.5197e-10 -8.1866e-07)
(3.8848e-05 7.4428e-10 -9.6797e-07)
(6.117e-05 -1.9147e-06 -7.67e-06)
(5.9673e-05 -1.8482e-06 -7.403e-06)
(5.8019e-05 -1.6828e-06 -6.7391e-06)
(5.6221e-05 -1.4426e-06 -5.7754e-06)
(5.4289e-05 -1.1619e-06 -4.6491e-06)
(5.2242e-05 -8.7861e-07 -3.5129e-06)
(5.0104e-05 -6.2736e-07 -2.5054e-06)
(4.7907e-05 -4.333e-07 -1.7274e-06)
(4.5672e-05 -3.0938e-07 -1.2308e-06)
(4.3416e-05 -2.5617e-07 -1.018e-06)
(4.1144e-05 -2.6349e-07 -1.0482e-06)
(3.8854e-05 -3.1344e-07 -1.2494e-06)
(6.1214e-05 -3.7345e-06 -9.3551e-06)
(5.971e-05 -3.6029e-06 -9.0236e-06)
(5.8053e-05 -3.2768e-06 -8.2048e-06)
(5.6252e-05 -2.8036e-06 -7.0169e-06)
(5.4316e-05 -2.251e-06 -5.6296e-06)
(5.2262e-05 -1.6942e-06 -4.2326e-06)
(5.0118e-05 -1.2017e-06 -2.9973e-06)
(4.7915e-05 -8.2278e-07 -2.0473e-06)
(4.5677e-05 -5.827e-07 -1.4459e-06)
(4.342e-05 -4.8213e-07 -1.1947e-06)
(4.1148e-05 -5.0059e-07 -1.2424e-06)
(3.8861e-05 -6.023e-07 -1.4991e-06)
(6.1199e-05 7.5223e-06 5.6373e-06)
(5.9698e-05 7.258e-06 5.4397e-06)
(5.8041e-05 6.6027e-06 4.9492e-06)
(5.6241e-05 5.6515e-06 4.237e-06)
(5.4307e-05 4.5403e-06 3.4049e-06)
(5.2255e-05 3.4205e-06 2.5663e-06)
(5.0113e-05 2.4294e-06 1.8239e-06)
(4.7912e-05 1.6661e-06 1.2521e-06)
(4.5675e-05 1.1814e-06 8.8877e-07)
(4.3418e-05 9.7695e-07 7.3527e-07)
(4.1147e-05 1.012e-06 7.6107e-07)
(3.8859e-05 1.2149e-06 9.126e-07)
(6.1155e-05 5.8022e-06 3.8708e-06)
(5.966e-05 5.6018e-06 3.7374e-06)
(5.8008e-05 5.1019e-06 3.4042e-06)
(5.621e-05 4.3759e-06 2.9202e-06)
(5.428e-05 3.527e-06 2.3542e-06)
(5.2234e-05 2.6701e-06 1.7829e-06)
(5.0099e-05 1.9095e-06 1.2757e-06)
(4.7903e-05 1.3213e-06 8.8344e-07)
(4.567e-05 9.4485e-07 6.3226e-07)
(4.3414e-05 7.8205e-07 5.2349e-07)
(4.1142e-05 8.0238e-07 5.368e-07)
(3.8851e-05 9.5197e-07 6.3628e-07)
(6.1124e-05 3.9736e-06 1.9911e-06)
(5.9634e-05 3.8382e-06 1.9233e-06)
(5.7984e-05 3.4985e-06 1.7533e-06)
(5.6189e-05 3.0048e-06 1.5061e-06)
(5.4262e-05 2.4273e-06 1.2169e-06)
(5.222e-05 1.8436e-06 9.2453e-07)
(5.0089e-05 1.3245e-06 6.6454e-07)
(4.7897e-05 9.2189e-07 4.6286e-07)
(4.5666e-05 6.6284e-07 3.3305e-07)
(4.3411e-05 5.4898e-07 2.7591e-07)
(4.1139e-05 5.5983e-07 2.8122e-07)
(3.8846e-05 6.5911e-07 3.3081e-07)
(6.1108e-05 2.029e-06 -1.5493e-09)
(5.9621e-05 1.9603e-06 -1.435e-09)
(5.7972e-05 1.7876e-06 -1.2328e-09)
(5.6178e-05 1.5365e-06 -9.682e-10)
(5.4252e-05 1.2425e-06 -6.7273e-10)
(5.2213e-05 9.4527e-07 -3.8309e-10)
(5.0084e-05 6.8067e-07 -1.3551e-10)
(4.7894e-05 4.7515e-07 4.1962e-11)
(4.5664e-05 3.4256e-07 1.3385e-10)
(4.341e-05 2.8381e-07 1.3932e-10)
(4.1137e-05 2.8856e-07 7.1416e-11)
(3.8843e-05 3.3844e-07 -4.722e-11)
(6.1109e-05 1.7866e-10 -2.0303e-06)
(5.9621e-05 2.5009e-10 -1.9614e-06)
(5.7972e-05 2.7049e-10 -1.7885e-06)
(5.6178e-05 2.4867e-10 -1.5371e-06)
(5.4252e-05 1.9934e-10 -1.243e-06)
(5.2213e-05 1.3833e-10 -9.4549e-07)
(5.0084e-05 7.9581e-11 -6.8071e-07)
(4.7894e-05 3.2659e-11 -4.7506e-07)
(4.5664e-05 1.1849e-12 -3.4241e-07)
(4.341e-05 -1.6372e-11 -2.8366e-07)
(4.1137e-05 -2.4348e-11 -2.8848e-07)
(3.8843e-05 -2.7238e-11 -3.3846e-07)
(6.1125e-05 -1.9929e-06 -3.9747e-06)
(5.9634e-05 -1.925e-06 -3.8391e-06)
(5.7984e-05 -1.7546e-06 -3.4992e-06)
(5.6189e-05 -1.5071e-06 -3.0054e-06)
(5.4262e-05 -1.2176e-06 -2.4276e-06)
(5.222e-05 -9.2497e-07 -1.8437e-06)
(5.009e-05 -6.6473e-07 -1.3245e-06)
(4.7897e-05 -4.6289e-07 -9.2175e-07)
(4.5666e-05 -3.3299e-07 -6.6264e-07)
(4.3411e-05 -2.7587e-07 -5.4878e-07)
(4.1139e-05 -2.8127e-07 -5.5969e-07)
(3.8846e-05 -3.3101e-07 -6.5906e-07)
(6.1155e-05 -3.8732e-06 -5.8019e-06)
(5.9661e-05 -3.7395e-06 -5.6014e-06)
(5.8008e-05 -3.406e-06 -5.1014e-06)
(5.6211e-05 -2.9217e-06 -4.3754e-06)
(5.428e-05 -2.3553e-06 -3.5265e-06)
(5.2234e-05 -1.7836e-06 -2.6696e-06)
(5.0099e-05 -1.2761e-06 -1.909e-06)
(4.7904e-05 -8.8359e-07 -1.3209e-06)
(4.567e-05 -6.323e-07 -9.4441e-07)
(4.3414e-05 -5.2354e-07 -7.8164e-07)
(4.1142e-05 -5.3695e-07 -8.0202e-07)
(3.8851e-05 -6.3661e-07 -9.5166e-07)
(6.12e-05 -5.6388e-06 -7.5217e-06)
(5.9698e-05 -5.441e-06 -7.2573e-06)
(5.8042e-05 -4.9502e-06 -6.602e-06)
(5.6242e-05 -4.2378e-06 -5.6508e-06)
(5.4307e-05 -3.4054e-06 -4.5396e-06)
(5.2255e-05 -2.5665e-06 -3.4199e-06)
(5.0113e-05 -1.8239e-06 -2.4288e-06)
(4.7912e-05 -1.252e-06 -1.6656e-06)
(4.5676e-05 -8.8864e-07 -1.1809e-06)
(4.3418e-05 -7.3519e-07 -9.7649e-07)
(4.1147e-05 -7.611e-07 -1.0116e-06)
(3.8859e-05 -9.1281e-07 -1.2145e-06)
(6.1199e-05 5.637e-06 7.5228e-06)
(5.9698e-05 5.4394e-06 7.2585e-06)
(5.8041e-05 4.9488e-06 6.6033e-06)
(5.6241e-05 4.2365e-06 5.6521e-06)
(5.4307e-05 3.4043e-06 4.541e-06)
(5.2255e-05 2.5656e-06 3.4213e-06)
(5.0113e-05 1.8232e-06 2.4301e-06)
(4.7912e-05 1.2514e-06 1.6669e-06)
(4.5675e-05 8.8817e-07 1.1821e-06)
(4.3418e-05 7.3475e-07 9.7752e-07)
(4.1147e-05 7.6065e-07 1.0124e-06)
(3.8859e-05 9.1229e-07 1.2152e-06)
(6.1155e-05 3.8706e-06 5.8025e-06)
(5.966e-05 3.7372e-06 5.6022e-06)
(5.8008e-05 3.404e-06 5.1023e-06)
(5.6211e-05 2.9199e-06 4.3764e-06)
(5.428e-05 2.3538e-06 3.5275e-06)
(5.2234e-05 1.7824e-06 2.6707e-06)
(5.0099e-05 1.2752e-06 1.9102e-06)
(4.7903e-05 8.8287e-07 1.322e-06)
(4.567e-05 6.3171e-07 9.4547e-07)
(4.3414e-05 5.2301e-07 7.8258e-07)
(4.1142e-05 5.3641e-07 8.0279e-07)
(3.8851e-05 6.36e-07 9.5226e-07)
(6.1124e-05 1.9913e-06 3.9737e-06)
(5.9634e-05 1.9235e-06 3.8382e-06)
(5.7984e-05 1.7533e-06 3.4986e-06)
(5.6189e-05 1.506e-06 3.0051e-06)
(5.4262e-05 1.2167e-06 2.4276e-06)
(5.222e-05 9.2421e-07 1.844e-06)
(5.0089e-05 6.6411e-07 1.325e-06)
(4.7897e-05 4.6238e-07 9.2246e-07)
(4.5666e-05 3.3256e-07 6.6338e-07)
(4.3411e-05 2.7547e-07 5.4946e-07)
(4.1139e-05 2.8086e-07 5.6022e-07)
(3.8846e-05 3.3056e-07 6.5938e-07)
(6.1109e-05 -1.1087e-09 2.0287e-06)
(5.9621e-05 -1.0043e-09 1.96e-06)
(5.7972e-05 -8.8893e-10 1.7874e-06)
(5.6178e-05 -7.6873e-10 1.5364e-06)
(5.4252e-05 -6.4941e-10 1.2426e-06)
(5.2213e-05 -5.3717e-10 9.4551e-07)
(5.0084e-05 -4.3779e-10 6.8103e-07)
(4.7894e-05 -3.5667e-10 4.7559e-07)
(4.5664e-05 -2.9896e-10 3.4302e-07)
(4.341e-05 -2.6817e-10 2.8423e-07)
(4.1137e-05 -2.6443e-10 2.889e-07)
(3.8843e-05 -2.833e-10 3.3866e-07)
(6.1109e-05 -2.0299e-06 -7.056e-10)
(5.9621e-05 -1.9611e-06 -6.0752e-10)
(5.7972e-05 -1.7882e-06 -4.6084e-10)
(5.6178e-05 -1.537e-06 -2.8277e-10)
(5.4252e-05 -1.243e-06 -9.3034e-11)
(5.2213e-05 -9.4567e-07 8.5675e-11)
(5.0084e-05 -6.8103e-07 2.3034e-10)
(4.7894e-05 -4.7548e-07 3.2289e-10)
(4.5664e-05 -3.4286e-07 3.5365e-10)
(4.341e-05 -2.8409e-07 3.2342e-10)
(4.1137e-05 -2.8885e-07 2.432e-10)
(3.8843e-05 -3.3875e-07 1.3053e-10)
(6.1125e-05 -3.9759e-06 -1.994e-06)
(5.9634e-05 -3.8402e-06 -1.926e-06)
(5.7984e-05 -3.5002e-06 -1.7555e-06)
(5.6189e-05 -3.0064e-06 -1.5078e-06)
(5.4262e-05 -2.4286e-06 -1.218e-06)
(5.222e-05 -1.8446e-06 -9.2512e-07)
(5.009e-05 -1.3253e-06 -6.6465e-07)
(4.7897e-05 -9.2254e-07 -4.6264e-07)
(4.5666e-05 -6.6337e-07 -3.3266e-07)
(4.3411e-05 -5.4946e-07 -2.7554e-07)
(4.1139e-05 -5.6032e-07 -2.81e-07)
(3.8846e-05 -6.5965e-07 -3.3084e-07)
(6.1155e-05 -5.8075e-06 -3.8688e-06)
(5.9661e-05 -5.6068e-06 -3.7353e-06)
(5.8008e-05 -5.1064e-06 -3.4022e-06)
(5.6211e-05 -4.3798e-06 -2.9183e-06)
(5.428e-05 -3.5302e-06 -2.3524e-06)
(5.2234e-05 -2.6726e-06 -1.7812e-06)
(5.0099e-05 -1.9114e-06 -1.2742e-06)
(4.7904e-05 -1.3227e-06 -8.8209e-07)
(4.567e-05 -9.4592e-07 -6.3106e-07)
(4.3414e-05 -7.8296e-07 -5.2245e-07)
(4.1142e-05 -8.0331e-07 -5.359e-07)
(3.8851e-05 -9.5303e-07 -6.3552e-07)
(6.12e-05 -7.5243e-06 -5.6355e-06)
(5.9698e-05 -7.2598e-06 -5.4378e-06)
(5.8042e-05 -6.6043e-06 -4.9473e-06)
(5.6242e-05 -5.653e-06 -4.2351e-06)
(5.4307e-05 -4.5415e-06 -3.4031e-06)
(5.2255e-05 -3.4215e-06 -2.5646e-06)
(5.0113e-05 -2.4302e-06 -1.8224e-06)
(4.7912e-05 -1.6668e-06 -1.2507e-06)
(4.5676e-05 -1.182e-06 -8.8757e-07)
(4.3419e-05 -9.7745e-07 -7.3422e-07)
(4.1147e-05 -1.0125e-06 -7.6018e-07)
(3.8859e-05 -1.2154e-06 -9.1186e-07)
(6.1213e-05 3.7332e-06 9.3558e-06)
(5.971e-05 3.6016e-06 9.0245e-06)
(5.8053e-05 3.2757e-06 8.2058e-06)
(5.6252e-05 2.8027e-06 7.0179e-06)
(5.4316e-05 2.2502e-06 5.6308e-06)
(5.2262e-05 1.6936e-06 4.2339e-06)
(5.0118e-05 1.2012e-06 2.9985e-06)
(4.7915e-05 8.2236e-07 2.0486e-06)
(4.5677e-05 5.8233e-07 1.4471e-06)
(4.342e-05 4.8178e-07 1.1957e-06)
(4.1148e-05 5.0022e-07 1.2433e-06)
(3.8861e-05 6.0187e-07 1.4998e-06)
(6.117e-05 1.9132e-06 7.6705e-06)
(5.9673e-05 1.8469e-06 7.4036e-06)
(5.8019e-05 1.6817e-06 6.7398e-06)
(5.6221e-05 1.4417e-06 5.7762e-06)
(5.4289e-05 1.1611e-06 4.65e-06)
(5.2242e-05 8.7796e-07 3.514e-06)
(5.0104e-05 6.2683e-07 2.5065e-06)
(4.7907e-05 4.3286e-07 1.7285e-06)
(4.5672e-05 3.0899e-07 1.2319e-06)
(4.3416e-05 2.558e-07 1.019e-06)
(4.1144e-05 2.6311e-07 1.049e-06)
(3.8854e-05 3.1301e-07 1.25e-06)
(6.114e-05 -5.5918e-09 5.8739e-06)
(5.9648e-05 -5.3416e-09 5.6721e-06)
(5.7996e-05 -4.8524e-09 5.1679e-06)
(5.62e-05 -4.1866e-09 4.4355e-06)
(5.4271e-05 -3.4286e-09 3.5789e-06)
(5.2227e-05 -2.6701e-09 2.7137e-06)
(5.0095e-05 -1.9943e-09 1.945e-06)
(4.79e-05 -1.463e-09 1.3497e-06)
(4.5668e-05 -1.1115e-09 9.6759e-07)
(4.3413e-05 -9.4586e-10 8.0102e-07)
(4.114e-05 -9.4458e-10 8.1934e-07)
(3.8848e-05 -1.0645e-09 9.6844e-07)
(6.1125e-05 -1.9947e-06 3.9754e-06)
(5.9634e-05 -1.9267e-06 3.8399e-06)
(5.7984e-05 -1.7562e-06 3.5001e-06)
(5.6189e-05 -1.5086e-06 3.0064e-06)
(5.4262e-05 -1.2188e-06 2.4287e-06)
(5.222e-05 -9.2593e-07 1.8449e-06)
(5.009e-05 -6.6548e-07 1.3257e-06)
(4.7897e-05 -4.6346e-07 9.2293e-07)
(4.5666e-05 -3.3343e-07 6.6374e-07)
(4.3411e-05 -2.7624e-07 5.4976e-07)
(4.1139e-05 -2.8162e-07 5.6051e-07)
(3.8846e-05 -3.3137e-07 6.597e-07)
(6.1125e-05 -3.975e-06 1.9928e-06)
(5.9634e-05 -3.8394e-06 1.9249e-06)
(5.7984e-05 -3.4995e-06 1.7548e-06)
(5.6189e-05 -3.0058e-06 1.5074e-06)
(5.4262e-05 -2.4281e-06 1.218e-06)
(5.222e-05 -1.8443e-06 9.2544e-07)
(5.009e-05 -1.3251e-06 6.6525e-07)
(4.7897e-05 -9.2241e-07 4.6341e-07)
(4.5666e-05 -6.6329e-07 3.3347e-07)
(4.3411e-05 -5.4939e-07 2.7627e-07)
(4.1139e-05 -5.6023e-07 2.8156e-07)
(3.8846e-05 -6.5953e-07 3.3116e-07)
(6.114e-05 -5.8744e-06 -4.3358e-09)
(5.9648e-05 -5.6725e-06 -4.1008e-09)
(5.7996e-05 -5.1681e-06 -3.628e-09)
(5.62e-05 -4.4355e-06 -2.9829e-09)
(5.4271e-05 -3.5788e-06 -2.2525e-09)
(5.2227e-05 -2.7135e-06 -1.5329e-09)
(5.0095e-05 -1.9447e-06 -9.1227e-10)
(4.7901e-05 -1.3493e-06 -4.5592e-10)
(4.5668e-05 -9.6727e-07 -1.9727e-10)
(4.3413e-05 -8.0076e-07 -1.3539e-10)
(4.114e-05 -8.1919e-07 -2.3835e-10)
(3.8848e-05 -9.6844e-07 -4.5335e-10)
(6.117e-05 -7.6719e-06 -1.9182e-06)
(5.9673e-05 -7.4048e-06 -1.8517e-06)
(5.802e-05 -6.7408e-06 -1.6859e-06)
(5.6221e-05 -5.777e-06 -1.4452e-06)
(5.4289e-05 -4.6506e-06 -1.1638e-06)
(5.2242e-05 -3.5143e-06 -8.7996e-07)
(5.0105e-05 -2.5066e-06 -6.2817e-07)
(4.7907e-05 -1.7285e-06 -4.337e-07)
(4.5672e-05 -1.2319e-06 -3.0953e-07)
(4.3416e-05 -1.019e-06 -2.5625e-07)
(4.1144e-05 -1.0491e-06 -2.6363e-07)
(3.8854e-05 -1.2502e-06 -3.1373e-07)
(6.1214e-05 -9.355e-06 -3.7305e-06)
(5.971e-05 -9.0236e-06 -3.599e-06)
(5.8053e-05 -8.2048e-06 -3.2732e-06)
(5.6252e-05 -7.017e-06 -2.8005e-06)
(5.4316e-05 -5.6299e-06 -2.2483e-06)
(5.2262e-05 -4.2331e-06 -1.6921e-06)
(5.0118e-05 -2.9979e-06 -1.2e-06)
(4.7915e-05 -2.0481e-06 -8.2145e-07)
(4.5677e-05 -1.4466e-06 -5.8161e-07)
(4.342e-05 -1.1954e-06 -4.8118e-07)
(4.1149e-05 -1.243e-06 -4.9966e-07)
(3.8861e-05 -1.4997e-06 -6.0132e-07)
(6.124e-05 1.8436e-06 1.1098e-05)
(5.9734e-05 1.7778e-06 1.07e-05)
(5.8075e-05 1.6157e-06 9.7209e-06)
(5.6272e-05 1.3806e-06 8.3015e-06)
(5.4333e-05 1.1062e-06 6.6449e-06)
(5.2276e-05 8.2995e-07 4.9787e-06)
(5.0128e-05 5.8591e-07 3.5079e-06)
(4.7921e-05 3.9866e-07 2.3801e-06)
(4.568e-05 2.8067e-07 1.6697e-06)
(4.3422e-05 2.3215e-07 1.3781e-06)
(4.1151e-05 2.4266e-07 1.4433e-06)
(3.8865e-05 2.9423e-07 1.7568e-06)
(6.1199e-05 -7.931e-09 9.4392e-06)
(5.9698e-05 -7.6057e-09 9.1064e-06)
(5.8042e-05 -6.9176e-09 8.283e-06)
(5.6242e-05 -5.959e-09 7.0885e-06)
(5.4307e-05 -4.8605e-09 5.6933e-06)
(5.2256e-05 -3.761e-09 4.2875e-06)
(5.0114e-05 -2.7839e-09 3.0432e-06)
(4.7913e-05 -2.02e-09 2.085e-06)
(4.5676e-05 -1.5185e-09 1.4766e-06)
(4.3418e-05 -1.2866e-09 1.2203e-06)
(4.1147e-05 -1.2914e-09 1.2647e-06)
(3.8858e-05 -1.4687e-09 1.5198e-06)
(6.117e-05 -1.9194e-06 7.6718e-06)
(5.9673e-05 -1.8528e-06 7.4048e-06)
(5.8019e-05 -1.687e-06 6.741e-06)
(5.6221e-05 -1.4463e-06 5.7773e-06)
(5.4289e-05 -1.165e-06 4.651e-06)
(5.2242e-05 -8.8106e-07 3.5148e-06)
(5.0104e-05 -6.2924e-07 2.5072e-06)
(4.7907e-05 -4.3471e-07 1.729e-06)
(4.5672e-05 -3.1047e-07 1.2323e-06)
(4.3416e-05 -2.5708e-07 1.0194e-06)
(4.1144e-05 -2.6435e-07 1.0493e-06)
(3.8854e-05 -3.1436e-07 1.2503e-06)
(6.1155e-05 -3.8697e-06 5.8073e-06)
(5.9661e-05 -3.7362e-06 5.6068e-06)
(5.8008e-05 -3.403e-06 5.1066e-06)
(5.6211e-05 -2.9191e-06 4.3801e-06)
(5.428e-05 -2.3533e-06 3.5306e-06)
(5.2234e-05 -1.7821e-06 2.6731e-06)
(5.0099e-05 -1.2751e-06 1.912e-06)
(4.7904e-05 -8.83e-07 1.3233e-06)
(4.567e-05 -6.3192e-07 9.4643e-07)
(4.3414e-05 -5.2323e-07 7.8338e-07)
(4.1142e-05 -5.3659e-07 8.0358e-07)
(3.8851e-05 -6.3612e-07 9.5314e-07)
(6.1155e-05 -5.8025e-06 3.8731e-06)
(5.9661e-05 -5.602e-06 3.7397e-06)
(5.8008e-05 -5.102e-06 3.4063e-06)
(5.6211e-05 -4.376e-06 2.9221e-06)
(5.428e-05 -3.5272e-06 2.3559e-06)
(5.2234e-05 -2.6704e-06 1.7842e-06)
(5.01e-05 -1.9098e-06 1.2767e-06)
(4.7904e-05 -1.3217e-06 8.8423e-07)
(4.567e-05 -9.452e-07 6.3287e-07)
(4.3414e-05 -7.8237e-07 5.2401e-07)
(4.1142e-05 -8.0267e-07 5.3728e-07)
(3.8851e-05 -9.5224e-07 6.3679e-07)
(6.117e-05 -7.6706e-06 1.9148e-06)
(5.9674e-05 -7.4035e-06 1.8486e-06)
(5.802e-05 -6.7396e-06 1.6833e-06)
(5.6221e-05 -5.776e-06 1.4432e-06)
(5.429e-05 -4.6497e-06 1.1626e-06)
(5.2242e-05 -3.5136e-06 8.7936e-07)
(5.0105e-05 -2.5061e-06 6.2812e-07)
(4.7907e-05 -1.7281e-06 4.3402e-07)
(4.5672e-05 -1.2315e-06 3.1002e-07)
(4.3416e-05 -1.0187e-06 2.567e-07)
(4.1144e-05 -1.0488e-06 2.6389e-07)
(3.8854e-05 -1.25e-06 3.1369e-07)
(6.1199e-05 -9.4392e-06 -6.6123e-09)
(5.9698e-05 -9.1063e-06 -6.2889e-09)
(5.8042e-05 -8.2828e-06 -5.6056e-09)
(5.6242e-05 -7.0881e-06 -4.6588e-09)
(5.4308e-05 -5.6928e-06 -3.5823e-09)
(5.2256e-05 -4.287e-06 -2.5204e-09)
(5.0114e-05 -3.0426e-06 -1.603e-09)
(4.7913e-05 -2.0845e-06 -9.2304e-10)
(4.5676e-05 -1.4761e-06 -5.2714e-10)
(4.3418e-05 -1.2199e-06 -4.1366e-10)
(4.1147e-05 -1.2644e-06 -5.3677e-10)
(3.8858e-05 -1.5197e-06 -8.2036e-10)
(6.1241e-05 -1.1098e-05 -1.8496e-06)
(5.9734e-05 -1.07e-05 -1.7835e-06)
(5.8075e-05 -9.7211e-06 -1.6207e-06)
(5.6272e-05 -8.3015e-06 -1.3848e-06)
(5.4334e-05 -6.6448e-06 -1.1095e-06)
(5.2276e-05 -4.9785e-06 -8.3234e-07)
(5.0128e-05 -3.5076e-06 -5.8751e-07)
(4.7921e-05 -2.3797e-06 -3.9966e-07)
(4.568e-05 -1.6693e-06 -2.8132e-07)
(4.3422e-05 -1.3779e-06 -2.327e-07)
(4.1151e-05 -1.4432e-06 -2.4331e-07)
(3.8865e-05 -1.7568e-06 -2.9512e-07)
(6.1279e-05 -4.4318e-09 1.2709e-05)
(5.9767e-05 -4.2269e-09 1.2246e-05)
(5.8105e-05 -3.8396e-09 1.1113e-05)
(5.6301e-05 -3.317e-09 9.4705e-06)
(5.4359e-05 -2.7283e-09 7.5555e-06)
(5.2295e-05 -2.1442e-09 5.6326e-06)
(5.0141e-05 -1.626e-09 3.9396e-06)
(4.7929e-05 -1.218e-09 2.6467e-06)
(4.5685e-05 -9.4581e-10 1.8384e-06)
(4.3425e-05 -8.1464e-10 1.5153e-06)
(4.1154e-05 -8.0999e-10 1.6042e-06)
(3.8871e-05 -8.9968e-10 1.9781e-06)
(6.124e-05 -1.8508e-06 1.1098e-05)
(5.9734e-05 -1.7847e-06 1.07e-05)
(5.8075e-05 -1.6219e-06 9.7215e-06)
(5.6272e-05 -1.3861e-06 8.302e-06)
(5.4333e-05 -1.1107e-06 6.6454e-06)
(5.2276e-05 -8.3353e-07 4.9791e-06)
(5.0128e-05 -5.8866e-07 3.5082e-06)
(4.7921e-05 -4.0075e-07 2.3803e-06)
(4.568e-05 -2.8232e-07 1.6699e-06)
(4.3422e-05 -2.3358e-07 1.3783e-06)
(4.1151e-05 -2.4407e-07 1.4435e-06)
(3.8865e-05 -2.9576e-07 1.7569e-06)
(6.1213e-05 -3.7316e-06 9.355e-06)
(5.971e-05 -3.6e-06 9.0238e-06)
(5.8053e-05 -3.2743e-06 8.2051e-06)
(5.6252e-05 -2.8016e-06 7.0175e-06)
(5.4316e-05 -2.2494e-06 5.6305e-06)
(5.2262e-05 -1.6932e-06 4.2338e-06)
(5.0118e-05 -1.2011e-06 2.9986e-06)
(4.7915e-05 -8.2249e-07 2.0487e-06)
(4.5677e-05 -5.8257e-07 1.4472e-06)
(4.342e-05 -4.8204e-07 1.1959e-06)
(4.1149e-05 -5.0041e-07 1.2433e-06)
(3.8861e-05 -6.0196e-07 1.4998e-06)
(6.1199e-05 -5.6364e-06 7.5243e-06)
(5.9698e-05 -5.4387e-06 7.26e-06)
(5.8042e-05 -4.9482e-06 6.6047e-06)
(5.6242e-05 -4.2361e-06 5.6534e-06)
(5.4307e-05 -3.4041e-06 4.5421e-06)
(5.2255e-05 -2.5656e-06 3.4222e-06)
(5.0113e-05 -1.8234e-06 2.4309e-06)
(4.7912e-05 -1.2517e-06 1.6675e-06)
(4.5676e-05 -8.8849e-07 1.1826e-06)
(4.3419e-05 -7.3506e-07 9.7795e-07)
(4.1147e-05 -7.6091e-07 1.0128e-06)
(3.8859e-05 -9.125e-07 1.2156e-06)
(6.12e-05 -7.5225e-06 5.6388e-06)
(5.9698e-05 -7.2581e-06 5.4412e-06)
(5.8042e-05 -6.6028e-06 4.9506e-06)
(5.6242e-05 -5.6516e-06 4.2383e-06)
(5.4307e-05 -4.5404e-06 3.406e-06)
(5.2255e-05 -3.4208e-06 2.5672e-06)
(5.0114e-05 -2.4297e-06 1.8247e-06)
(4.7912e-05 -1.6665e-06 1.2527e-06)
(4.5676e-05 -1.1818e-06 8.8929e-07)
(4.3419e-05 -9.773e-07 7.3571e-07)
(4.1147e-05 -1.0123e-06 7.6147e-07)
(3.8859e-05 -1.2152e-06 9.1299e-07)
(6.1214e-05 -9.3558e-06 3.7347e-06)
(5.971e-05 -9.0243e-06 3.6032e-06)
(5.8053e-05 -8.2054e-06 3.2773e-06)
(5.6252e-05 -7.0175e-06 2.8043e-06)
(5.4316e-05 -5.6303e-06 2.2517e-06)
(5.2262e-05 -4.2334e-06 1.695e-06)
(5.0118e-05 -2.9981e-06 1.2025e-06)
(4.7915e-05 -2.0482e-06 8.2355e-07)
(4.5677e-05 -1.4467e-06 5.8338e-07)
(4.342e-05 -1.1955e-06 4.8269e-07)
(4.1149e-05 -1.2431e-06 5.0099e-07)
(3.8861e-05 -1.4998e-06 6.0253e-07)
(6.1241e-05 -1.1098e-05 1.8449e-06)
(5.9734e-05 -1.07e-05 1.7791e-06)
(5.8075e-05 -9.7205e-06 1.617e-06)
(5.6272e-05 -8.301e-06 1.382e-06)
(5.4334e-05 -6.6444e-06 1.1075e-06)
(5.2276e-05 -4.9782e-06 8.3124e-07)
(5.0128e-05 -3.5074e-06 5.8713e-07)
(4.7921e-05 -2.3796e-06 3.9978e-07)
(4.5681e-05 -1.6692e-06 2.8168e-07)
(4.3422e-05 -1.3778e-06 2.3303e-07)
(4.1151e-05 -1.4431e-06 2.4342e-07)
(3.8865e-05 -1.7567e-06 2.9487e-07)
(6.1279e-05 -1.2709e-05 -3.2281e-09)
(5.9767e-05 -1.2245e-05 -3.0097e-09)
(5.8106e-05 -1.1112e-05 -2.6067e-09)
(5.6301e-05 -9.47e-06 -2.0724e-09)
(5.4359e-05 -7.5549e-06 -1.4818e-09)
(5.2295e-05 -5.6319e-06 -9.1534e-10)
(5.0141e-05 -3.939e-06 -4.4341e-10)
(4.7929e-05 -2.646e-06 -1.1303e-10)
(4.5685e-05 -1.8379e-06 5.3291e-11)
(4.3425e-05 -1.5148e-06 5.9858e-11)
(4.1154e-05 -1.6039e-06 -6.2944e-11)
(3.8871e-05 -1.978e-06 -2.6788e-10)
(3.8891e-05 2.5146e-06 -2.2353e-07)
(4.1165e-05 1.9481e-06 -1.7546e-07)
(4.3433e-05 1.7668e-06 -1.6028e-07)
(4.5699e-05 2.1533e-06 -1.9404e-07)
(4.7955e-05 3.2133e-06 -2.8665e-07)
(5.0187e-05 4.9522e-06 -4.3861e-07)
(5.2364e-05 7.2594e-06 -6.3948e-07)
(5.4449e-05 9.9032e-06 -8.6862e-07)
(5.6405e-05 1.2551e-05 -1.0974e-06)
(5.8215e-05 1.4828e-05 -1.294e-06)
(5.9883e-05 1.6399e-05 -1.4303e-06)
(6.1412e-05 1.7049e-05 -1.4872e-06)
(3.8887e-05 2.3544e-06 -6.3578e-07)
(4.1163e-05 1.8576e-06 -5.0755e-07)
(4.3432e-05 1.7123e-06 -4.7154e-07)
(4.5695e-05 2.0822e-06 -5.7084e-07)
(4.7947e-05 3.0621e-06 -8.3129e-07)
(5.0173e-05 4.6548e-06 -1.2537e-06)
(5.2343e-05 6.7577e-06 -1.8097e-06)
(5.4421e-05 9.1593e-06 -2.443e-06)
(5.6373e-05 1.156e-05 -3.0745e-06)
(5.8183e-05 1.3621e-05 -3.6167e-06)
(5.9851e-05 1.5045e-05 -3.9916e-06)
(6.1377e-05 1.5632e-05 -4.1463e-06)
(3.8884e-05 2.1235e-06 -1.0571e-06)
(4.1163e-05 1.6982e-06 -8.5169e-07)
(4.3431e-05 1.5839e-06 -7.9856e-07)
(4.5692e-05 1.9224e-06 -9.6695e-07)
(4.7941e-05 2.796e-06 -1.3972e-06)
(5.0162e-05 4.2059e-06 -2.0901e-06)
(5.2327e-05 6.0609e-06 -3.0003e-06)
(5.4401e-05 8.1746e-06 -4.036e-06)
(5.635e-05 1.0284e-05 -5.0686e-06)
(5.8159e-05 1.2094e-05 -5.9544e-06)
(5.9826e-05 1.3343e-05 -6.5656e-06)
(6.135e-05 1.3856e-05 -6.8156e-06)
(3.8883e-05 1.8219e-06 -1.4602e-06)
(4.1163e-05 1.4692e-06 -1.1804e-06)
(4.3431e-05 1.38e-06 -1.1108e-06)
(4.5691e-05 1.6729e-06 -1.3456e-06)
(4.7938e-05 2.4161e-06 -1.9391e-06)
(5.0156e-05 3.6102e-06 -2.8918e-06)
(5.2318e-05 5.1782e-06 -4.1423e-06)
(5.439e-05 6.9628e-06 -5.565e-06)
(5.6338e-05 8.7423e-06 -6.9832e-06)
(5.8147e-05 1.0269e-05 -8.1995e-06)
(5.9813e-05 1.1321e-05 -9.0379e-06)
(6.1336e-05 1.1751e-05 -9.3797e-06)