/*--------------------------------*- C++ -*----------------------------------*\
  =========                 |
  \\      /  F ield         | OpenFOAM: The Open Source CFD Toolbox
   \\    /   O peration     | Website:  https://openfoam.org
    \\  /    A nd           | Version:  8
     \\/     M anipulation  |
\*---------------------------------------------------------------------------*/
FoamFile
{
    version     2.0;
    format      ascii;
    class       surfaceScalarField;
    location    "0.0605000";
    object      phi;
}
// * * * * * * * * * * * * * * * * * * * * * * * * * * * * * * * * * * * * * //

dimensions      [0 3 -1 0 0 0 0];

internalField   nonuniform List<scalar> 
1094
(
9.9533519838399e-10
1.18950206737991e-11
9.83426291528723e-10
1.23058068689838e-11
9.71329479922258e-10
1.2570381427332e-11
9.58938257771674e-10
1.29307493793315e-11
9.46377173901595e-10
1.31409864859436e-11
9.33754907330465e-10
1.32400289560198e-11
9.2111892228158e-10
1.32894258911485e-11
9.08497062897312e-10
1.33222043303545e-11
8.95881658621676e-10
1.33446344716198e-11
8.83275738466097e-10
1.33627872718668e-11
8.70677942688892e-10
1.33811984213405e-11
8.5809429863819e-10
1.34014444067796e-11
8.45518649762297e-10
1.34191000319506e-11
8.32951022109486e-10
1.34345866801359e-11
8.20390818893848e-10
1.34504234960617e-11
8.07842007798475e-10
1.34679626876092e-11
7.95302695130416e-10
1.34844395248298e-11
7.8277115351008e-10
1.34988054860816e-11
7.70247333085653e-10
1.35132118371881e-11
7.57733840264299e-10
1.3530204116666e-11
7.45231040138894e-10
1.35481313019425e-11
7.32735954216525e-10
1.35638444718127e-11
7.20249287527295e-10
1.35794750825224e-11
7.07772692144733e-10
1.35983749187934e-11
6.95309677565266e-10
1.36197483685618e-11
6.82855395581205e-10
1.36392753528492e-11
6.70410923148848e-10
1.36592018503258e-11
6.57976195933332e-10
1.36832525608826e-11
6.45559312812405e-10
1.3712684763187e-11
6.33152980669994e-10
1.37404775350105e-11
6.20759541447085e-10
1.3768936324163e-11
6.0837556521976e-10
1.38039267163918e-11
5.96017292952628e-10
1.38509649794586e-11
5.83672302892448e-10
1.38957595268023e-11
5.71344702009876e-10
1.39412019608786e-11
5.59029722675291e-10
1.39964676708156e-11
5.46749024274343e-10
1.40719120294647e-11
5.34490886513422e-10
1.414920138929e-11
5.22257326757113e-10
1.42282371950844e-11
5.10043039762183e-10
1.43223769907387e-11
4.9787707697096e-10
1.44509535166371e-11
4.85751370996403e-10
1.45909879347271e-11
4.73662914338844e-10
1.47336509891093e-11
4.61607008603764e-10
1.48989264008543e-11
4.49620134219214e-10
1.51218120541142e-11
4.37707472499603e-10
1.5377246469701e-11
4.25854523775824e-10
1.56364257625566e-11
4.1405992214442e-10
1.59298692945523e-11
4.02363981399636e-10
1.631722606158e-11
3.90806240777823e-10
1.67792422625603e-11
3.7934364318795e-10
1.72373710800197e-11
3.6798461461055e-10
1.77424109332587e-11
3.56767696605622e-10
1.84014648935161e-11
3.45802354983747e-10
1.92215141884765e-11
3.34989564154036e-10
2.00216261235895e-11
3.24366946954459e-10
2.08862383842591e-11
3.13921038667879e-10
2.2051874885529e-11
3.04047721820616e-10
2.38419661846185e-11
2.94740135693234e-10
2.60183672133268e-11
2.86184038756684e-10
2.87792123439588e-11
2.78433271099341e-10
3.29111986112042e-11
2.72856409881052e-10
3.89511105786244e-11
2.68272771658212e-10
4.45604297769977e-11
2.64868264094875e-10
5.01189137558214e-11
2.62698622790891e-10
5.65406355329365e-11
2.62824598257917e-10
6.37139681513293e-11
2.63807324302881e-10
6.94096368371915e-11
2.658467863496e-10
7.46372114741237e-11
2.69387773657764e-10
8.02711006828805e-11
2.74462763171503e-10
8.53311351725835e-11
2.80034491369706e-10
8.87849751299534e-11
2.86257709041809e-10
9.14825023294936e-11
2.93447958789509e-10
9.3544373375672e-11
3.00627969507653e-10
9.41370679923292e-11
3.07760470654998e-10
9.36717235468266e-11
3.15263391653345e-10
9.21362269999764e-11
3.21453252158503e-10
8.89237940425073e-11
3.27004420653166e-10
8.50273738536603e-11
3.32129508252684e-10
8.04783108349099e-11
3.36107663885316e-10
7.44408095190675e-11
3.37321754884989e-10
6.73221513958042e-11
3.37800302514386e-10
6.03443296150886e-11
3.37844836247085e-10
5.2805734121154e-11
3.33765408563368e-10
4.40580106391621e-11
3.27864151623267e-10
3.63769099464226e-11
3.23275393311582e-10
2.70811616746577e-11
3.25657775147061e-10
1.10692656070055e-11
3.25930483460761e-10
4.62360350013585e-12
3.25713095989847e-10
8.0726685679037e-13
3.25016260864747e-10
-2.47141025429222e-12
3.22802488933176e-10
-4.76000888275335e-12
3.20764205583669e-10
-6.31230190973685e-12
3.18572228611485e-10
-7.20912417367837e-12
3.16080331656337e-10
-7.79080781734698e-12
3.13579526597237e-10
-8.08704581440259e-12
3.1108451417559e-10
-8.1397140376822e-12
3.0851091964934e-10
-7.94857909372641e-12
3.0601221096655e-10
-7.41992482976693e-12
3.03234326395439e-10
-6.22315074317571e-12
-2.57850716457903e-12
2.36083560707804e-10
1.22891957012893e-11
2.34834327114509e-10
1.36663365536026e-11
2.32172680415208e-10
1.53431333153465e-11
2.28647460466036e-10
1.65668884339356e-11
2.24717433040364e-10
1.71817537498712e-11
2.20634503281924e-10
1.74335158451564e-11
2.16510584295799e-10
1.75237114647477e-11
2.12388371102551e-10
1.75545922856442e-11
2.08277583710786e-10
1.75654091534715e-11
2.04179601623284e-10
1.75705736461327e-11
2.00095006742474e-10
1.75754140413639e-11
1.96024682944757e-10
1.75811995919328e-11
1.91967054257522e-10
1.75859669887935e-11
1.87921076795398e-10
1.75896067799404e-11
1.83887026054239e-10
1.75933151818983e-11
1.79865941565652e-10
1.75976832326394e-11
1.75857384222365e-10
1.76014296739785e-11
1.71860424728744e-10
1.76039969308179e-11
1.67875158470105e-10
1.76065112979227e-11
1.63902706221571e-10
1.76104884060588e-11
1.59943298662995e-10
1.7615169769027e-11
1.55995954827605e-10
1.76186332831983e-11
1.52060754789585e-10
1.76219397786815e-11
1.48139011671196e-10
1.76271791131573e-11
1.44231660534416e-10
1.76339412307534e-11
1.40337680459059e-10
1.76398882185419e-11
1.36457057371485e-10
1.76462533720345e-11
1.3259126529922e-10
1.76552697115885e-11
1.28742424672375e-10
1.76675664558184e-11
1.24909499657203e-10
1.76792696321308e-11
1.21092385474954e-10
1.76917190506558e-11
1.17292946837165e-10
1.77088005084813e-11
1.13515382263513e-10
1.77337149958041e-11
1.09758295879575e-10
1.77577834423149e-11
1.06021630968405e-10
1.77825531504813e-11
1.02308138482457e-10
1.78143854157213e-11
9.8624364244567e-11
1.785985650347e-11
9.49701041652624e-11
1.79073855654577e-11
9.13453047526854e-11
1.79567000597749e-11
8.77540671078473e-11
1.80169884593707e-11
8.42067945059289e-11
1.81012711258837e-11
8.07058158010498e-11
1.81946402252129e-11
7.7251052255004e-11
1.82907177971574e-11
7.38487292110679e-11
1.84032317447962e-11
7.05152527205212e-11
1.85569461366581e-11
6.72586087633121e-11
1.8735100827725e-11
6.40787398659848e-11
1.89168903426114e-11
6.09849416226719e-11
1.91235923787859e-11
5.8002563838326e-11
1.93989084437809e-11
5.51506544249726e-11
1.97298287947574e-11
5.24277685346768e-11
2.0058176992377e-11
4.98475636536335e-11
2.04196491566564e-11
4.74496184297077e-11
2.08954650918334e-11
4.52736351823816e-11
2.14924167470718e-11
4.33161204222908e-11
2.20726731039423e-11
4.160071513185e-11
2.26936594603148e-11
4.0214542042367e-11
2.35284462712171e-11
3.93329319121458e-11
2.4811704690112e-11
3.90900346035554e-11
2.63456783037115e-11
3.968371809083e-11
2.82651202422661e-11
4.1458779331567e-11
3.12102384596603e-11
4.4818729626455e-11
3.5658230279566e-11
4.96612606405241e-11
3.97755760097492e-11
5.59910666409669e-11
4.38366498674216e-11
6.39841219720032e-11
4.85857911512992e-11
7.37799099970774e-11
5.3946513403219e-11
8.50803541015621e-11
5.81257109211666e-11
9.7788172566548e-11
6.19337118779974e-11
1.11951943638788e-10
6.61008406921642e-11
1.27423586275091e-10
6.98423958944821e-11
1.43845421143846e-10
7.23345439180147e-11
1.61014929682082e-10
7.42728128328158e-11
1.78751946940124e-10
7.57564697392548e-11
1.9671171879086e-10
7.61171140763872e-11
2.14623576160301e-10
7.56921377487507e-11
2.32214792758855e-10
7.44704808216489e-11
2.4906706860786e-10
7.19896509585423e-11
2.65005599581588e-10
6.90006051975799e-11
2.79869204774745e-10
6.5522312503501e-11
2.93269968552099e-10
6.09431626083307e-11
3.04879733674509e-10
5.56113508687014e-11
3.14828931392271e-10
5.02930702743508e-11
3.22978732534258e-10
4.45541679110393e-11
3.28838502629601e-10
3.80938285840648e-11
3.32451326292839e-10
3.26567794365449e-11
3.3443815269863e-10
2.49871182412463e-11
3.37599961023936e-10
7.79961168376575e-12
3.38883694030985e-10
3.23191603473974e-12
3.38840741999919e-10
7.43889541004009e-13
3.37918521322749e-10
-1.65491553172983e-12
3.36217962956662e-10
-3.16553310399536e-12
3.3409834168485e-10
-4.29880029905879e-12
3.31732422793438e-10
-4.94917075708966e-12
3.29180838002593e-10
-5.34515395760768e-12
3.26541893594784e-10
-5.55403717839207e-12
3.23885458043188e-10
-5.58957627516385e-12
3.21263196790487e-10
-5.43338170516875e-12
3.18747118870144e-10
-5.01100659453075e-12
3.16399731104775e-10
-3.98261097742933e-12
-1.34857743005634e-12
-2.91874815179916e-10
6.16842351250968e-12
-2.86419488640643e-10
8.32656861853608e-12
-2.82863457751323e-10
1.19024270362343e-11
-2.80216382681674e-10
1.40349081154943e-11
-2.77926762925309e-10
1.50070061711308e-11
-2.75762525312924e-10
1.53839240184814e-11
-2.73632186998701e-10
1.55077838751014e-11
-2.71502789076465e-10
1.55393690369646e-11
-2.69365732764591e-10
1.55422963801778e-11
-2.67219720440849e-10
1.55382780884156e-11
-2.65064236540633e-10
1.55334198329598e-11
-2.62898927625007e-10
1.55291467601764e-11
-2.6072463072363e-10
1.55246886250154e-11
-2.58542115803345e-10
1.55198708440774e-11
-2.56351225266827e-10
1.55149571218573e-11
-2.54151447962111e-10
1.55101885143277e-11
-2.51943059256333e-10
1.5505075352313e-11
-2.49726693838978e-10
1.54994199597432e-11
-2.4750230142928e-10
1.54936644548273e-11
-2.45269104936932e-10
1.54885924328182e-11
-2.43026856195145e-10
1.54839754719649e-11
-2.40776180501566e-10
1.54787819237702e-11
-2.38517092419672e-10
1.54734531718582e-11
-2.36248625855979e-10
1.54690645410415e-11
-2.33970146770405e-10
1.54655479836267e-11
-2.31682161311471e-10
1.54617357765162e-11
-2.29384627895547e-10
1.54583040628012e-11
-2.27076274904114e-10
1.54562512603055e-11
-2.24755657072309e-10
1.54560555129131e-11
-2.22423188455186e-10
1.54556923068277e-11
-2.20078890066849e-10
1.54560687384348e-11
-2.17720805488178e-10
1.54590830371179e-11
-2.15345844089773e-10
1.54668233154175e-11
-2.12954525697275e-10
1.54742411601788e-11
-2.10546928480672e-10
1.54824352368043e-11
-2.08120109346915e-10
1.54947357991552e-11
-2.05668799291961e-10
1.55154143844458e-11
-2.03192403163805e-10
1.55375668796864e-11
-2.00690775239989e-10
1.55613418457421e-11
-1.98159537907899e-10
1.5591683575949e-11
-1.95589704049934e-10
1.56369933123698e-11
-1.92978238354507e-10
1.56883070120526e-11
-1.9032473986659e-10
1.57419278580762e-11
-1.87622672019094e-10
1.58055063221113e-11
-1.84856801189451e-10
1.58950542700743e-11
-1.82018788235282e-10
1.60005713772093e-11
-1.79108001805999e-10
1.61089085432163e-11
-1.76114976344824e-10
1.623262740871e-11
-1.73014535500935e-10
1.63998623721599e-11
-1.69787663626002e-10
1.66036873389002e-11
-1.66435100352907e-10
1.68055244668163e-11
-1.62944100112436e-10
1.70276045158552e-11
-1.5927320495725e-10
1.73224919491471e-11
-1.55382359356113e-10
1.76983047011645e-11
-1.51275285083554e-10
1.80608746037804e-11
-1.46934748140464e-10
1.84467910195497e-11
-1.42275599414377e-10
1.89613282944313e-11
-1.37136113558369e-10
1.97619868937498e-11
-1.3140797084833e-10
2.07034863403764e-11
-1.24929553161562e-10
2.18675905872705e-11
-1.17326748234859e-10
2.36828525602208e-11
-1.08138874986895e-10
2.65387540511437e-11
-9.74613704826787e-11
2.91567125516449e-11
-8.53105881376229e-11
3.17339844318643e-11
-7.14575091756536e-11
3.47715256533659e-11
-5.57341711059121e-11
3.82521529997997e-11
-3.85000110752891e-11
4.09083675057117e-11
-1.98792605718709e-11
4.33172873744972e-11
2.25598879872249e-13
4.59894772123764e-11
2.16606548705046e-11
4.83902642343534e-11
4.40188795614732e-11
4.99476177415177e-11
6.70968227921646e-11
5.11545198663541e-11
9.07206866409894e-11
5.20815466788518e-11
1.14519052059731e-10
5.22584619719877e-11
1.3821304552669e-10
5.19304158417463e-11
1.61513770610595e-10
5.10953421172107e-11
1.83998654175395e-10
4.94234347075379e-11
2.05478306903652e-10
4.74336224923464e-11
2.25776427938627e-10
4.51325877540776e-11
2.44505356184918e-10
4.21186886054831e-11
2.61406620471657e-10
3.86112139944375e-11
2.7647173251472e-10
3.512805239462e-11
2.89605241169777e-10
3.13206340299975e-11
3.00396412475275e-10
2.72010222668239e-11
3.09190177206891e-10
2.37595544243225e-11
3.1481503799588e-10
1.92584179916427e-11
3.18292534637196e-10
4.21835884274491e-12
3.1928370805335e-10
2.13752737720677e-12
3.19324871561329e-10
6.00470353383279e-13
3.18364073037256e-10
-7.96059483970993e-13
3.16817349993257e-10
-1.72089506366664e-12
3.14817716083193e-10
-2.40125265356959e-12
3.12571187640264e-10
-2.80490083143547e-12
3.10161045201986e-10
-3.03761957199089e-12
3.07668611628993e-10
-3.16433489620158e-12
3.05160655536217e-10
-3.18450333542336e-12
3.02705743789663e-10
-3.08179507251005e-12
3.0040380056884e-10
-2.8126985516807e-12
2.9847123551429e-10
-2.15374843391261e-12
-5.55957297070128e-13
-5.6492772718087e-10
-1.16439893950141e-12
-5.58635403962497e-10
2.15394691817859e-12
-5.52898477313529e-10
6.2849281163842e-12
-5.47265791643439e-10
8.52137903349131e-12
-5.41607240606436e-10
9.46734802908368e-12
-5.35919967498128e-10
9.81527609633165e-12
-5.30217570228957e-10
9.92373508558446e-12
-5.24507750275056e-10
9.94761978522978e-12
-5.18793996807437e-10
9.94634088047552e-12
-5.13077589417325e-10
9.93940040392806e-12
-5.07358706172819e-10
9.93179766773178e-12
-5.01637184472231e-10
9.92461072826477e-12
-4.95913345371076e-10
9.91755565364985e-12
-4.90187522851851e-10
9.91047276430127e-12
-4.8445972911833e-10
9.90329890001059e-12
-4.78729806422232e-10
9.89610882114859e-12
-4.72997933695735e-10
9.88875478115822e-12
-4.6726443533544e-10
9.88118523663925e-12
-4.61529318780723e-10
9.87352620949986e-12
-4.5579216705233e-10
9.86613153170571e-12
-4.50052770411215e-10
9.8589811177022e-12
-4.44311437539853e-10
9.85157906770923e-12
-4.38568190462556e-10
9.84407109195446e-12
-4.32822499779939e-10
9.83694641654355e-12
-4.27073939497532e-10
9.83025071841192e-12
-4.21322683258591e-10
9.82344660908581e-12
-4.15568559399449e-10
9.81685531086033e-12
-4.09810763076001e-10
9.81083750680062e-12
-4.04048304959876e-10
9.80570988866366e-12
-3.98281276670879e-10
9.80051862415599e-12
-3.92509409442273e-10
9.79576974944328e-12
-3.86731297506967e-10
9.79221409515372e-12
-3.80944658788887e-10
9.79108539746722e-12
-3.75149621891481e-10
9.78976667773566e-12
-3.69345865532819e-10
9.78889955341559e-12
-3.6353115673739e-10
9.78989265545542e-12
-3.57701416139981e-10
9.79519275312609e-12
-3.51855841361701e-10
9.80117555247095e-12
-3.45993724513557e-10
9.8080551796886e-12
-3.40111545516637e-10
9.81795119739609e-12
-3.34202109364741e-10
9.83558004367551e-12
-3.28262503494034e-10
9.85625208327693e-12
-3.2229158729793e-10
9.87809044274471e-12
-3.16283875594036e-10
9.90446024019052e-12
-3.10226773039089e-10
9.94420616520781e-12
-3.04112775732463e-10
9.99228224016948e-12
-2.97940472075014e-10
1.00415797804714e-11
-2.91701672781298e-10
1.00980031255979e-11
-2.85375022519949e-10
1.01766672021028e-11
-2.78943431410702e-10
1.02748334535643e-11
-2.72406969229114e-10
1.03709236176146e-11
-2.65754692095253e-10
1.047617366336e-11
-2.58950801747288e-10
1.06183526130911e-11
-2.51958630314764e-10
1.08046320802171e-11
-2.44782028633744e-10
1.09812469890216e-11
-2.37407355872259e-10
1.11674174101556e-11
-2.29765380807982e-10
1.14129425490565e-11
-2.21719132328505e-10
1.18069812873871e-11
-2.13189416875925e-10
1.22610950470103e-11
-2.04052715438434e-10
1.28130370249836e-11
-1.93979511652974e-10
1.36862032965046e-11
-1.82515368484841e-10
1.51440067110664e-11
-1.69750659902313e-10
1.64514908266499e-11
-1.5570241942749e-10
1.77345446725526e-11
-1.40151013094368e-10
1.92594670083387e-11
-1.22918899849935e-10
2.1049419049463e-11
-1.0436555692289e-10
2.23721090313553e-11
-8.46114869065306e-11
2.35676706872041e-11
-6.35472294225847e-11
2.49187305182595e-11
-4.13082713976109e-11
2.61341761079099e-11
-1.82837207828888e-11
2.68942559825644e-11
5.34705661899972e-12
2.74832204112836e-11
2.94372603382968e-11
2.79400743323566e-11
5.36386710806628e-11
2.79965822881431e-11
7.77020927809891e-11
2.77991677221318e-11
1.01371955033566e-10
2.73510822233448e-11
1.24254388905886e-10
2.64598290493714e-11
1.46183698172574e-10
2.54173192665296e-11
1.67007028293881e-10
2.42181954272749e-11
1.86372495565658e-10
2.26584989473217e-11
2.04050925441834e-10
2.08350454535353e-11
2.20023267959954e-10
1.90572305118514e-11
2.34205706812322e-10
1.70399390828397e-11
2.46256573838714e-10
1.50507128002131e-11
2.56661761488301e-10
1.32535215708949e-11
2.63966949773973e-10
1.18523970014842e-11
2.66688713396752e-10
1.39622472450267e-12
2.67308561282717e-10
1.41808251286358e-12
2.67295842753129e-10
5.14497209264985e-13
2.66435710380064e-10
-3.44729036379043e-14
2.65129911092469e-10
-5.13784415521694e-13
2.63449780977536e-10
-8.19767784191501e-13
2.6156715390169e-10
-1.02125737350074e-12
2.59555420595589e-10
-1.12541299861267e-12
2.57478208380418e-10
-1.18679540111505e-12
2.55389788071772e-10
-1.19585167774606e-12
2.53351607937639e-10
-1.14384539823248e-12
2.51454917250323e-10
-1.01662065135397e-12
2.49903449124753e-10
-7.03008157283999e-13
3.72269954916703e-14
-5.66278494950866e-10
-3.67381810976976e-12
-5.63345689473647e-10
-6.55126511322563e-13
-5.58843429255529e-10
1.90608759861011e-12
-5.53350980410111e-10
3.15203959276373e-12
-5.4738924488412e-10
3.62841922237388e-12
-5.41243314074579e-10
3.7918451660386e-12
-5.35036779185884e-10
3.83938381248014e-12
-5.28815333606769e-10
3.84804027680472e-12
-5.22593204561724e-10
3.84576550828413e-12
-5.16373832029371e-10
3.84127374053688e-12
-5.10157728480735e-10
3.83663176880978e-12
-5.03944717644122e-10
3.83222227227168e-12
-4.97734777735813e-10
3.82791848656894e-12
-4.91527964627171e-10
3.82364044494133e-12
-4.85324350898073e-10
3.81933649550752e-12
-4.79123945669945e-10
3.81502163176107e-12
-4.72926860908117e-10
3.81065630870822e-12
-4.66733241333704e-10
3.80622247627003e-12
-4.60543133433579e-10
3.80174891227487e-12
-4.54356349396349e-10
3.79734971687717e-12
-4.48172735129042e-10
3.79303957914735e-12
-4.41992429220086e-10
3.78863301404649e-12
-4.35815473519642e-10
3.78416973380176e-12
-4.29641629411841e-10
3.77982286161466e-12
-4.23470636394144e-10
3.77562668712064e-12
-4.17302527249662e-10
3.77136868306986e-12
-4.11137137676078e-10
3.76716327721202e-12
-4.04974040388784e-10
3.76310340734223e-12
-3.98812603865414e-10
3.7593250977755e-12
-3.92652820649911e-10
3.75548822491619e-12
-3.86494398540623e-10
3.75177237039581e-12
-3.80336507196836e-10
3.74837929695565e-12
-3.74177562675522e-10
3.74581151441303e-12
-3.68017610756581e-10
3.74310320629221e-12
-3.61856293194695e-10
3.74048475106237e-12
-3.55692238735713e-10
3.73834155173893e-12
-3.49522551719702e-10
3.73761805022115e-12
-3.43346633791089e-10
3.73699025199074e-12
-3.37163805887909e-10
3.73656202294309e-12
-3.30971827790426e-10
3.73687880793113e-12
-3.24765531000668e-10
3.73971866317592e-12
-3.18542767383295e-10
3.74340416449726e-12
-3.12302551962275e-10
3.74727049848184e-12
-3.06041323347927e-10
3.75216689171861e-12
-2.99749949560582e-10
3.76130968132815e-12
-2.93422823403037e-10
3.77303776091493e-12
-2.87058963664219e-10
3.78481471169646e-12
-2.80652990069175e-10
3.79826847412122e-12
-2.74189415351676e-10
3.81855718974208e-12
-2.67655037959264e-10
3.84514906376709e-12
-2.610506289299e-10
3.87027525611599e-12
-2.54369184934808e-10
3.89741627144072e-12
-2.47584912007252e-10
3.93561047023384e-12
-2.40668651134578e-10
3.98858684126781e-12
-2.33625561894377e-10
4.0367812458006e-12
-2.26447799977408e-10
4.0865342683739e-12
-2.19090676863398e-10
4.15091928711795e-12
-2.1145325899169e-10
4.26224066345917e-12
-2.03489957096614e-10
4.38645336850327e-12
-1.95126358676197e-10
4.53280645339547e-12
-1.86130339273178e-10
4.7678407152489e-12
-1.76119754244254e-10
5.20378985146496e-12
-1.6518475462488e-10
5.57678965502118e-12
-1.53341392043945e-10
5.94062353385371e-12
-1.4042014497521e-10
6.37806323279848e-12
-1.26255468300919e-10
6.91449044186011e-12
-1.11154783296931e-10
7.28874000674432e-12
-9.52093153783823e-11
7.6267490582075e-12
-7.83179987283353e-11
8.02091459073582e-12
-6.05776168506177e-11
8.376592903057e-12
-4.22984708756929e-11
8.58618159760178e-12
-2.36064032649293e-11
8.75046845453468e-12
-4.59953177408794e-12
8.88175193794762e-12
1.44498968611518e-11
8.88653850558059e-12
3.33619660974685e-11
8.81921463588152e-12
5.19556519406735e-11
8.68306271765253e-12
6.99256324672206e-11
8.4088814227716e-12
8.71595104733279e-11
8.09681588399496e-12
1.03548109152942e-10
7.73910495311636e-12
1.18834704526004e-10
7.27799084870993e-12
1.32841522221352e-10
6.73155384199692e-12
1.45580853487455e-10
6.22075659562209e-12
1.56932399702616e-10
5.59178869325303e-12
1.66798630004948e-10
5.08704693910097e-12
1.75445363396139e-10
4.50831474306505e-12
1.82499312343435e-10
4.70032411951125e-12
1.8356870228201e-10
2.29421549862626e-13
1.83971499372513e-10
9.18791024889494e-13
1.83853260937701e-10
5.37167208291085e-13
1.83256529050431e-10
4.66798269075835e-13
1.82339209043061e-10
3.0790934210019e-13
1.81186833577187e-10
2.37002892980605e-13
1.79893095841219e-10
1.76478676054297e-13
1.78519197024569e-10
1.51876667867092e-13
1.77101230159702e-10
1.34378460006342e-13
1.75676307170234e-10
1.32154483039595e-13
1.74287464958174e-10
1.4757851467417e-13
1.72992552819628e-10
1.80454700418121e-13
1.71930080329612e-10
2.61496216311281e-13
4.17715709535549e-13
-2.82492326707281e-10
-2.83725162878399e-10
-2.82395700520187e-10
-2.7981919586504e-10
-2.76765213450053e-10
-2.73546711092019e-10
-2.7027958600003e-10
-2.67002722044657e-10
-2.63727045247575e-10
-2.60454767834451e-10
-2.57186040381015e-10
-2.53920637688389e-10
-2.50658458734311e-10
-2.47399480178059e-10
-2.4414373566626e-10
-2.40891240279804e-10
-2.3764204314181e-10
-2.34396210657626e-10
-2.31153779243229e-10
-2.27914676593138e-10
-2.2467881494289e-10
-2.21446273926252e-10
-2.18217102356844e-10
-2.14991212694866e-10
-2.11768473219034e-10
-2.08548931936785e-10
-2.0533253180413e-10
-2.02119128286394e-10
-1.98908416763348e-10
-1.95700442485952e-10
-1.9249511381924e-10
-1.89292149364682e-10
-1.86090742626875e-10
-1.82891030626521e-10
-1.79692926960531e-10
-1.76495970643056e-10
-1.73298733914093e-10
-1.70101109312986e-10
-1.66902915609098e-10
-1.63703439722838e-10
-1.60500200744876e-10
-1.57292403737794e-10
-1.5407986938747e-10
-1.50861506942676e-10
-1.47633066468985e-10
-1.44392101483903e-10
-1.41138758741064e-10
-1.37871433984753e-10
-1.34583210130082e-10
-1.31267779362875e-10
-1.27926769778289e-10
-1.24558311634127e-10
-1.21151434948053e-10
-1.17691518007712e-10
-1.14183623358599e-10
-1.10626349034714e-10
-1.07005096273129e-10
-1.03273572607022e-10
-9.94204971484184e-11
-9.54250276419151e-11
-9.11989048188077e-11
-8.65427912631696e-11
-8.1522444844464e-11
-7.61478419422579e-11
-7.03440957391181e-11
-6.40126842634365e-11
-5.73181286035674e-11
-5.02970185248883e-11
-4.28914421533188e-11
-3.51394957882819e-11
-2.7188277827102e-11
-1.90831206525871e-11
-1.0856021250963e-11
-2.63183295515491e-12
5.51927570375999e-12
1.35293283012566e-11
2.12601230647156e-11
2.86747571257997e-11
3.57294029356735e-11
4.23211289773424e-11
4.83652731418478e-11
5.389977289867e-11
5.88074977218998e-11
6.32113285430458e-11
6.70370358988194e-11
7.10564420729417e-11
7.06057461543534e-11
7.08455378781571e-11
7.07046642411568e-11
7.04935238610425e-11
7.01233152760485e-11
6.96821991774577e-11
6.918013371698e-11
6.86528310536423e-11
6.81078198132538e-11
6.75604357007976e-11
6.70279516198701e-11
6.65279080096588e-11
6.61087784609394e-11
)
;

boundaryField
{
    dieWall
    {
        type            calculated;
        value           nonuniform List<scalar> 
100
(
7.07122177359796e-13
7.05685293645865e-13
7.04248421288142e-13
7.0281152792227e-13
7.01374638607973e-13
6.9993776076437e-13
6.9850088102543e-13
6.9706400126438e-13
6.95627115276927e-13
6.94190228576128e-13
6.92753348987044e-13
6.91316468354467e-13
6.898795813139e-13
6.88442691762583e-13
6.87005811706063e-13
6.85568933190126e-13
6.84132049531213e-13
6.8269516157471e-13
6.81258277902283e-13
6.79821396174106e-13
6.78384511468724e-13
6.76947629174822e-13
6.75510742474522e-13
6.74073846867148e-13
6.72636962972163e-13
6.71200087781764e-13
6.69763208420549e-13
6.68326329863364e-13
6.66889445456996e-13
6.65452561501699e-13
6.64015678565964e-13
6.62578795185474e-13
6.61141908750252e-13
6.59705025078129e-13
6.58268141036414e-13
6.56831256752602e-13
6.55394375327238e-13
6.53957486571351e-13
6.52520599883752e-13
6.5108371844545e-13
6.49646836025336e-13
6.48209949760493e-13
6.46773065609866e-13
6.45336184352746e-13
6.4389929419149e-13
6.42462407202106e-13
6.4102553047356e-13
6.39588650357648e-13
6.38151768041767e-13
6.36714884229046e-13
6.35278001901568e-13
6.33841120327694e-13
6.32404232558086e-13
6.30967350357797e-13
6.29530464959638e-13
6.28093578085697e-13
6.26656694193891e-13
6.25219799795796e-13
6.23782921744267e-13
6.22346050963679e-13
6.20909164099485e-13
6.19472281454275e-13
6.18035396210595e-13
6.16598506366494e-13
6.15161624358433e-13
6.13724746886266e-13
6.12287866748703e-13
6.10850974425554e-13
6.09414088632808e-13
6.07977204414455e-13
6.0654031234284e-13
6.05103429713345e-13
6.0366655546799e-13
6.02229677115324e-13
6.00792789125591e-13
5.99355905169389e-13
5.97919017094971e-13
5.96482135147696e-13
5.95045255660215e-13
5.9360837338456e-13
5.9217149314596e-13
5.90734607789561e-13
5.89297712125922e-13
5.87860826424225e-13
5.86423954075826e-13
5.85178837852807e-13
5.85249463624374e-13
5.85249460700656e-13
5.85249467437347e-13
5.85249467899988e-13
5.85249455518958e-13
5.85249453637324e-13
5.85249464472871e-13
5.85249468805707e-13
5.85249469688228e-13
5.85249465459922e-13
5.85249461960973e-13
5.85249457341173e-13
5.85249459366894e-13
5.85249466389769e-13
)
;
    }
    outlet
    {
        type            calculated;
        value           nonuniform List<scalar> 6(2.97875869888628e-10 3.15062530245196e-10 2.975748244423e-10 2.49209427879107e-10 1.71451513429634e-10 6.58458686458778e-11);
    }
    Wire
    {
        type            calculated;
        value           nonuniform List<scalar> 
100
(
-1.50554042059192e-13
-2.89625413800102e-13
-3.66478376944983e-13
-4.32586163050209e-13
-4.73066023985436e-13
-5.11055519269911e-13
-5.46900994390813e-13
-5.93965637219509e-13
-6.22986195990592e-13
-6.50766873267875e-13
-6.77416323562915e-13
-7.11971961564713e-13
-7.37788540273462e-13
-7.61415174901596e-13
-7.84856937874351e-13
-8.13957818200753e-13
-8.40081601140985e-13
-8.62390826199736e-13
-8.84657331249397e-13
-9.12124481382092e-13
-9.40950173541379e-13
-9.64534588798927e-13
-9.8859555972138e-13
-1.01776746186417e-12
-1.05299274521318e-12
-1.08135792852684e-12
-1.11123078799807e-12
-1.1452689635432e-12
-1.19267327830988e-12
-1.23103979149655e-12
-1.27255442531749e-12
-1.31722843152939e-12
-1.39021949676719e-12
-1.44849533628649e-12
-1.51146517058779e-12
-1.57965598188085e-12
-1.68960237957897e-12
-1.78956640257215e-12
-1.89340643659683e-12
-2.0070569017725e-12
-2.18418588309562e-12
-2.3648759625256e-12
-2.54528124561729e-12
-2.7432958091932e-12
-3.03519699075137e-12
-3.36518345548167e-12
-3.68476879946728e-12
-4.03760235080262e-12
-4.52397371956613e-12
-5.12438956486615e-12
-5.67852723212612e-12
-6.28810602860779e-12
-7.09003547483419e-12
-8.16251302391826e-12
-9.11651930832229e-12
-1.01736042785816e-11
-1.15163874825959e-11
-1.38794619494464e-11
-1.66250467347434e-11
-2.01458650087118e-11
-2.50854752584935e-11
-3.33026889267876e-11
-3.99185567557415e-11
-4.66717466693044e-11
-5.43326269025159e-11
-6.38064402706915e-11
-7.03760278582353e-11
-7.66771488099679e-11
-8.38190680995139e-11
-9.04197789774e-11
-9.43870625072525e-11
-9.77471005860238e-11
-1.00788191647523e-10
-1.01381364350398e-10
-1.00874341183477e-10
-9.97121768178835e-11
-9.51983792876078e-11
-9.06750423436509e-11
-8.56950124786843e-11
-7.85181377585087e-11
-6.86474715000657e-11
-6.09315392944379e-11
-5.29473318973747e-11
-4.00858296074858e-11
-3.05959488216318e-11
-2.2599653552137e-11
-1.35650205762504e-11
-5.01323259857541e-12
-6.9708881758882e-13
3.05909717158741e-12
6.86181996476155e-12
8.24055273816879e-12
9.29146334740781e-12
1.01721024982085e-11
1.04784469863737e-11
1.05260160438364e-11
1.04095596939864e-11
9.80615380455113e-12
8.89238804484569e-12
7.82412756051485e-12
)
;
    }
    inlet
    {
        type            calculated;
        value           nonuniform List<scalar> 6(-1.00697224091246e-09 -2.36366220109595e-10 2.98111418737006e-10 5.72380572668784e-10 5.68912018609571e-10 2.78239482863388e-10);
    }
    back
    {
        type            wedge;
        value           nonuniform List<scalar> 
600
(
-1.15172962174528e-25
-4.87245706117892e-25
-9.1735479795615e-25
-1.03488442543039e-24
-9.5146399095352e-25
-4.91666890415818e-25
-2.88048275520492e-26
-4.04411670848944e-25
-7.40344346137978e-25
-1.32334481295502e-24
-1.10780429125623e-24
-5.47672486295303e-25
1.21077456885681e-26
-4.602053708772e-25
-9.60809106365672e-25
-1.32795785070869e-24
-1.31108680236344e-24
-6.05305369944125e-25
-1.53975860393559e-25
-4.85028214769984e-25
-9.66919208478807e-25
-1.20724261211378e-24
-1.07295488718222e-24
-6.53705765305835e-25
-1.23639393189439e-25
-3.99439236989613e-25
-8.64474821059817e-25
-1.36042100702688e-24
-1.23383510333377e-24
-4.50211343996994e-25
-1.48560357977973e-25
-4.10315750901437e-25
-1.14106606589209e-24
-1.49133838039346e-24
-1.31743029922174e-24
-6.49336968228228e-25
-8.95052280999019e-26
-5.57388867035974e-25
-1.00858285319178e-24
-1.38903134193992e-24
-1.24276629523517e-24
-8.13837610765818e-25
-8.93641956820441e-28
-5.85185780954533e-25
-1.07123749278311e-24
-1.4820072867031e-24