/*--------------------------------*- C++ -*----------------------------------*\
| =========                 |                                                 |
| \\      /  F ield         | OpenFOAM: The Open Source CFD Toolbox           |
|  \\    /   O peration     | Version:  4.1                                   |
|   \\  /    A nd           | Web:      www.OpenFOAM.org                      |
|    \\/     M anipulation  |                                                 |
\*---------------------------------------------------------------------------*/
FoamFile
{
    version     2.0;
    format      ascii;
    class       surfaceScalarField;
    location    "0.0014";
    object      meshPhi;
}
// * * * * * * * * * * * * * * * * * * * * * * * * * * * * * * * * * * * * * //

dimensions      [0 3 -1 0 0 0 0];

internalField   nonuniform List<scalar> 
17536
(
2.2588e-21
-3.0739e-14
3.0739e-14
-2.6343e-14
2.6343e-14
-2.2588e-21
-8.8445e-14
8.8445e-14
-7.5838e-14
7.5838e-14
0
-1.3547e-13
1.3547e-13
-1.164e-13
1.164e-13
2.2588e-21
-1.6494e-13
1.6494e-13
-1.4225e-13
1.4225e-13
0
-1.7131e-13
1.7131e-13
-1.4832e-13
1.4832e-13
0
-1.5199e-13
1.5199e-13
-1.3178e-13
1.3178e-13
-1.3685e-44
-1.0689e-13
1.0689e-13
-9.2127e-14
9.2127e-14
2.2588e-21
-4.0428e-14
4.0428e-14
-3.3182e-14
3.3182e-14
2.2588e-21
3.962e-14
-3.962e-14
3.7952e-14
-3.7952e-14
0
1.2324e-13
-1.2324e-13
1.1223e-13
-1.1223e-13
2.7369e-44
1.9892e-13
-1.9892e-13
1.7943e-13
-1.7943e-13
-2.7369e-44
2.5619e-13
-2.5619e-13
2.302e-13
-2.302e-13
-1.1294e-21
2.8507e-13
-2.8507e-13
2.5547e-13
-2.5547e-13
1.9531e-09
2.7918e-13
-2.7918e-13
2.4941e-13
-2.4941e-13
4.8828e-11
2.367e-13
-2.367e-13
2.1036e-13
-2.1036e-13
1.9531e-10
1.6003e-13
-1.6003e-13
1.4052e-13
-1.4052e-13
1.9531e-10
5.6793e-14
-5.6793e-14
4.6619e-14
-4.6619e-14
1.9531e-10
-6.153e-14
6.153e-14
-6.1027e-14
6.1027e-14
3.9062e-10
-1.8103e-13
1.8103e-13
-1.7e-13
1.7e-13
1.9531e-10
-2.8706e-13
2.8706e-13
-2.672e-13
2.672e-13
3.9063e-10
7.7713e-12
8.5037e-12
7.797e-12
8.478e-12
3.9067e-10
-1.5502e-10
-1.5421e-10
8.9104e-11
8.9864e-11
3.9064e-10
-1.6315e-10
-1.6233e-10
8.0989e-11
8.1751e-11
3.5926e-10
7.7755e-12
8.4997e-12
7.7946e-12
8.4805e-12
3.9068e-10
-7.3521e-11
-7.2964e-11
1.7063e-10
1.7117e-10
3.9069e-10
-1.5477e-10
-1.5444e-10
1.7071e-10
1.7106e-10
1.9533e-10
-2.2791e-10
-2.2784e-10
1.7898e-10
1.791e-10
1.9538e-10
-3.8242e-10
-3.8261e-10
4.3137e-10
4.3129e-10
1.954e-10
-4.5557e-10
-4.56e-10
6.0242e-10
6.0215e-10
1.4655e-10
-5.3691e-10
-5.3751e-10
6.8391e-10
6.8352e-10
9.7668e-11
-6.0197e-10
-6.1084e-10
7.8164e-10
7.7303e-10
-1.3263e-13
-9.032e-10
-9.2029e-10
1.2132e-09
1.1964e-09
-9.8008e-11
-1.4488e-09
-1.4578e-09
1.8077e-09
1.7991e-09
1.1335e-21
-1.8159e-09
-1.825e-09
2.4192e-09
2.4107e-09
0
-2.4186e-09
-2.436e-09
3.2012e-09
3.1846e-09
0
-3.1126e-09
-3.122e-09
4.0588e-09
4.0504e-09
-4.9373e-10
-3.7961e-09
-3.7976e-09
5.0059e-09
5.0056e-09
-1.4806e-09
-4.9468e-09
-4.957e-09
6.4014e-09
6.3928e-09
-1.4854e-09
-6.4796e-09
-6.4906e-09
8.3939e-09
8.385e-09
-1.4932e-09
-8.3978e-09
-8.4015e-09
1.0913e-08
1.0912e-08
-1.4912e-09
-1.0397e-08
-1.0402e-08
1.3621e-08
1.3619e-08
-1.5026e-09
-1.1798e-08
-1.1812e-08
1.5687e-08
1.5676e-08
-4.8628e-10
-1.2216e-08
-1.2231e-08
1.6428e-08
1.6417e-08
-1.0092e-09
-1.1651e-08
-1.1657e-08
1.5701e-08
1.5699e-08
-4.9578e-10
-9.9741e-09
-9.988e-09
1.3377e-08
1.3367e-08
-1.0082e-09
-7.4912e-09
-7.5039e-09
1.0022e-08
1.0012e-08
-9.9513e-10
-4.6035e-09
-4.6061e-09
6.1094e-09
6.1082e-09
-1.515e-09
-1.5159e-09
1.9895e-09
1.9891e-09
1.3646e-28
0
3.0739e-14
0
0
0
8.8445e-14
0
2.2588e-21
0
1.3547e-13
0
3.8739e-28
0
1.6494e-13
0
3.7387e-28
0
1.7131e-13
0
0
0
1.5199e-13
0
-4.5175e-21
0
1.0689e-13
0
2.2588e-21
0
4.0428e-14
0
0
0
-3.962e-14
0
1.1294e-21
0
-1.2324e-13
0
-3.3881e-21
0
-1.9892e-13
0
1.1294e-21
0
-2.5619e-13
0
2.2588e-21
0
-2.8507e-13
0
1.9531e-09
1.7633e-22
-2.7918e-13
5.8817e-23
1.4648e-10
-1.9852e-26
-2.367e-13
2.3256e-26
1.9531e-10
-2.3529e-22
-1.6003e-13
3.5295e-22
1.9531e-10
-1.1765e-22
-5.6793e-14
-5.2941e-22
1.9531e-10
8.1375e-12
6.153e-14
8.1375e-12
3.9063e-10
8.1375e-12
1.8103e-13
8.1375e-12
1.9532e-10
1.765e-22
2.8706e-13
5.2948e-22
3.9063e-10
-2.3438e-15
3.685e-13
8.1375e-12
3.9067e-10
-7.3238e-11
-8.097e-11
1.7903e-10
3.9067e-10
-1.4646e-10
-1.6233e-10
1.7901e-10
3.5585e-10
-6.5103e-11
-8.9155e-11
1.6275e-11
3.4185e-10
1.6272e-11
-7.8589e-12
9.7655e-11
3.9069e-10
-1.3835e-10
-1.7073e-10
1.8716e-10
1.9535e-10
-1.9532e-10
-2.6853e-10
2.8484e-10
1.954e-10
-1.7091e-10
-2.7682e-10
4.7205e-10
1.9541e-10
-3.0114e-10
-3.6646e-10
6.6744e-10
9.7661e-11
-4.3141e-10
-5.3751e-10
7.7333e-10
9.7715e-11
-4.8029e-10
-7.0856e-10
8.1408e-10
-1.092e-13
-5.7799e-10
-9.773e-10
1.1235e-09
-9.8005e-11
-8.9568e-10
-1.4173e-09
1.7752e-09
-2.2646e-21
-1.3441e-09
-1.8661e-09
2.4686e-09
0
-1.7596e-09
-2.4854e-09
3.2756e-09
-4.9265e-10
-2.087e-09
-3.107e-09
4.0852e-09
1.5225e-24
-2.5361e-09
-3.8342e-09
4.998e-09
-1.4815e-09
-3.3305e-09
-4.9897e-09
6.4969e-09
-4.9804e-10
-4.4448e-09
-6.499e-09
8.5755e-09
-9.9919e-10
-5.7113e-09
-8.297e-09
1.1157e-08
-4.948e-10
-6.9857e-09
-1.0108e-08
1.3859e-08
-1.0022e-09
-7.8957e-09
-1.1401e-08
1.584e-08
-4.9619e-10
-8.3064e-09
-1.1824e-08
1.6613e-08
-1.0129e-09
-7.9975e-09
-1.1243e-08
1.5942e-08
9.7608e-12
-6.6823e-09
-9.635e-09
1.3499e-08
-5.0502e-10
-4.9714e-09
-7.256e-09
1.0065e-08
-4.979e-10
-3.1812e-09
-4.5112e-09
6.2232e-09
-1.1026e-09
-1.5232e-09
2.0813e-09
0
0
0
0
0
0
0
0
0
0
0
0
0
0
0
0
0
0
0
0
0
0
0
0
0
0
0
0
0
0
0
0
0
0
0
0
0
0
0
0
0
0
0
0
0
0
0
0
0
0
0
0
1.9531e-09
-2.3518e-22
2.9406e-22
1.1762e-22
1.9531e-10
3.5285e-22
-2.9413e-22
1.1765e-22
1.9531e-10
8.1375e-12
-1.7647e-22
8.1375e-12
1.9532e-10
8.1375e-12
2.3529e-22
8.1375e-12
1.9532e-10
8.1375e-12
-8.1375e-12
8.1375e-12
3.9063e-10
8.1375e-12
-8.1375e-12
8.1375e-12
1.9532e-10
4.7061e-22
-1.4338e-26
0
3.9063e-10
-2.3437e-15
2.3438e-15
-2.3438e-15
3.9067e-10
1.6275e-11
-8.1375e-12
9.7654e-11
3.9067e-10
-4.8789e-11
-1.7901e-10
1.1389e-10
3.5389e-10
-4.8825e-11
-1.8717e-10
2.4413e-11
2.9299e-10
3.2548e-11
-2.4413e-11
2.4407e-11
3.9069e-10
-2.4411e-11
-1.1394e-10
2.1157e-10
1.9537e-10
-7.3242e-11
-2.2788e-10
3.1739e-10
1.9538e-10
-4.0683e-11
-3.3369e-10
2.6856e-10
1.9542e-10
-8.1388e-11
-4.3136e-10
4.8835e-10
9.7699e-11
-1.9535e-10
-5.3721e-10
7.896e-10
4.8815e-11
-2.0352e-10
-6.5937e-10
9.3628e-10
1.1312e-21
-2.6053e-10
-8.8743e-10
1.2049e-09
-9.7944e-11
-4.2342e-10
-1.3109e-09
1.7672e-09
9.5919e-25
-6.0293e-10
-1.8493e-09
2.5584e-09
1.2676e-24
-8.3106e-10
-2.4035e-09
3.4793e-09
-9.8432e-10
-1.117e-09
-3.058e-09
4.3378e-09
2.2748e-21
-1.4272e-09
-3.9258e-09
5.3241e-09
-9.8988e-10
-1.7881e-09
-5.0925e-09
6.775e-09
-1.1464e-21
-2.2968e-09
-6.6121e-09
8.8813e-09
-5.0134e-10
-2.7567e-09
-8.2967e-09
1.1394e-08
-8.7872e-24
-3.3792e-09
-1.0158e-08
1.3944e-08
-5.0046e-10
-3.9497e-09
-1.1508e-08
1.6007e-08
-1.0126e-09
-4.0906e-09
-1.1923e-08
1.6894e-08
-5.0162e-10
-3.9586e-09
-1.1414e-08
1.6188e-08
-5.0437e-10
-3.443e-09
-9.7624e-09
1.3754e-08
-5.0569e-10
-2.5663e-09
-7.3167e-09
1.0279e-08
-2.3093e-21
-1.5289e-09
-4.5143e-09
6.3528e-09
-5.02e-10
-1.5309e-09
2.1336e-09
0
0
0
0
0
0
0
0
0
0
0
0
0
0
0
0
0
0
0
0
0
0
0
0
0
0
0
0
0
0
0
0
0
0
0
0
0
0
0
0
0
0
0
0
0
0
0
0
0
0
0
0
1.9531e-09
0
3.5275e-22
-2.4264e-25
1.9531e-10
0
3.5295e-22
-9.4141e-22
1.9531e-10
0
-1.6275e-11
8.1375e-12
1.9531e-10
0
-1.6275e-11
8.1375e-12
1.9531e-10
0
-8.1372e-12
0
3.9061e-10
0
-8.1372e-12
4.706e-22
1.953e-10
-8.1372e-12
-8.1375e-12
-1.6544e-26
3.9061e-10
-8.1395e-12
-8.1352e-12
-2.3437e-15
3.906e-10
0
-2.4412e-11
8.1375e-12
3.9068e-10
0
-1.3019e-10
1.7899e-10
3.5294e-10
0
-1.3021e-10
1.7904e-10
2.9301e-10
-8.141e-12
-5.6967e-11
1.6272e-11
3.9069e-10
-1.6278e-11
-8.9518e-11
1.1392e-10
1.9536e-10
-8.1372e-12
-2.1159e-10
2.9298e-10
1.9539e-10
0
-3.6624e-10
3.9064e-10
1.9543e-10
0
-4.3953e-10
5.0463e-10
9.7693e-11
0
-5.209e-10
8.6287e-10
4.8813e-11
0
-6.3492e-10
1.1478e-09
1.1308e-21
8.1481e-12
-8.7931e-10
1.4572e-09
-9.7959e-11
8.149e-12
-1.3028e-09
1.8812e-09
9.9542e-25
0
-1.8088e-09
2.591e-09
1.1363e-21
0
-2.3792e-09
3.5689e-09
-9.8457e-10
0
-3.0826e-09
4.5581e-09
0
0
-3.9585e-09
5.5769e-09
-9.9017e-10
0
-5.1007e-09
6.9299e-09
-4.5825e-21
0
-6.5879e-09
9.118e-09
2.2998e-21
-8.152e-12
-8.2731e-09
1.1648e-08
-9.1561e-24
-8.1644e-12
-1.0151e-08
1.422e-08
-5.0173e-10
0
-1.1576e-08
1.629e-08
-1.5197e-09
0
-1.2017e-08
1.6923e-08
1.2775e-11
0
-1.1481e-08
1.6255e-08
-5.1019e-10
0
-9.8861e-09
1.4102e-08
-1.013e-09
0
-7.429e-09
1.0523e-08
2.3098e-21
0
-4.5023e-09
6.5014e-09
0
-1.5063e-09
2.2076e-09
0
0
0
0
0
0
0
0
0
0
0
0
0
0
0
0
0
0
0
0
0
0
0
0
0
0
0
0
0
0
0
0
0
0
0
0
0
0
0
0
0
0
0
0
0
0
0
0
0
0
0
0
1.9531e-09
2.3518e-22
3.5275e-22
-4.7005e-22
1.9531e-10
-3.5285e-22
4.7066e-22
-2.1838e-25
1.9531e-10
-8.1375e-12
-1.6275e-11
8.1375e-12
1.9531e-10
-8.1375e-12
-1.6275e-11
8.1375e-12
1.9531e-10
-8.1375e-12
-8.1372e-12
0
3.9061e-10
-8.1375e-12
-8.1372e-12
4.7064e-22
1.9531e-10
-8.1375e-12
-8.1372e-12
8.1375e-12
3.9061e-10
-8.1375e-12
-8.1348e-12
8.1375e-12
3.906e-10
-1.6275e-11
-2.4412e-11
8.1375e-12
3.9068e-10
4.8789e-11
-1.3019e-10
1.7899e-10
3.5292e-10
4.8825e-11
-1.3021e-10
1.7904e-10
2.9301e-10
-3.2548e-11
-5.6967e-11
1.6272e-11
3.9069e-10
2.4411e-11
-8.9516e-11
1.1392e-10
1.9536e-10
7.3242e-11
-2.1159e-10
2.9298e-10
1.9539e-10
3.2541e-11
-3.6624e-10
3.9878e-10
1.9543e-10
7.3247e-11
-4.3953e-10
5.1277e-10
9.7693e-11
1.9535e-10
-5.209e-10
8.6287e-10
4.8813e-11
2.0352e-10
-6.3492e-10
1.1478e-09
0
2.6053e-10
-8.793e-10
1.4572e-09
-9.796e-11
4.1527e-10
-1.3028e-09
1.8893e-09
9.9542e-25
5.9477e-10
-1.8088e-09
2.5992e-09
0
8.3106e-10
-2.3792e-09
3.5689e-09
-9.8457e-10
1.117e-09
-3.0826e-09
4.5581e-09
-1.1394e-21
1.4272e-09
-3.9585e-09
5.5769e-09
-9.9018e-10
1.6167e-09
-5.0274e-09
6.8485e-09
-2.2882e-21
2.1334e-09
-6.5064e-09
9.0365e-09
-2.3072e-21
2.765e-09
-8.2649e-09
1.1648e-08
0
3.461e-09
-1.0151e-08
1.4302e-08
-5.0173e-10
4.1057e-09
-1.1584e-08
1.6456e-08
-1.5197e-09
4.1814e-09
-1.2017e-08
1.6998e-08
1.2767e-11
3.9837e-09
-1.1473e-08
1.6239e-08
-5.1019e-10
3.4514e-09
-9.8862e-09
1.4094e-08
-1.0131e-09
2.5746e-09
-7.4207e-09
1.0523e-08
0
1.5372e-09
-4.4941e-09
6.5014e-09
5.02e-10
-1.5063e-09
2.2076e-09
0
0
0
0
0
0
0
0
0
0
0
0
0
0
0
0
0
0
0
0
0
0
0
0
0
0
0
0
0
0
0
0
0
0
0
0
0
0
0
0
0
0
0
0
0
0
0
0
0
0
0
0
1.9531e-09
-1.7633e-22
2.3528e-22
-3.531e-22
1.4648e-10
-5.8769e-23
-2.9413e-22
-3.5294e-22
1.9531e-10
2.9412e-22
-2.9412e-22
8.1378e-12
1.9532e-10
1.1765e-22
2.3529e-22
8.1375e-12
1.9532e-10
-8.1375e-12
-8.1375e-12
8.1375e-12
3.9063e-10
-8.1375e-12
-8.1375e-12
8.1375e-12
1.9532e-10
-1.765e-22
-1.1767e-22
8.1375e-12
3.9063e-10
2.3438e-15
2.3438e-15
8.1375e-12
3.9067e-10
7.3238e-11
-8.1375e-12
9.7654e-11
3.9067e-10
1.4646e-10
-1.7901e-10
1.1389e-10
3.5383e-10
6.5103e-11
-1.8717e-10
2.4413e-11
2.9299e-10
-1.6272e-11
-2.4413e-11
2.4407e-11
3.9069e-10
1.3835e-10
-1.1394e-10
2.1157e-10
1.9537e-10
1.9532e-10
-2.2788e-10
3.1739e-10
1.9538e-10
1.7091e-10
-3.3369e-10
2.767e-10
1.9542e-10
3.0114e-10
-4.3136e-10
4.9648e-10
9.7699e-11
4.3141e-10
-5.3721e-10
7.896e-10
4.8815e-11
4.8029e-10
-6.5937e-10
9.3628e-10
-1.1312e-21
5.8614e-10
-8.7929e-10
1.2049e-09
-9.7944e-11
9.0383e-10
-1.3028e-09
1.7753e-09
-1.1324e-21
1.3441e-09
-1.8493e-09
2.5666e-09
0
1.7596e-09
-2.4035e-09
3.4793e-09
-9.8433e-10
2.0788e-09
-3.0661e-09
4.3378e-09
0
2.5362e-09
-3.9258e-09
5.3241e-09
-9.8973e-10
3.3387e-09
-5.0108e-09
6.6932e-09
0
4.4366e-09
-6.5302e-09
8.8076e-09
-5.0134e-10
5.7031e-09
-8.2884e-09
1.1402e-08
2.3139e-21
6.9776e-09
-1.0166e-08
1.4026e-08
-5.0041e-10
7.8875e-09
-1.1525e-08
1.6171e-08
-1.0126e-09
8.3148e-09
-1.1915e-08
1.6968e-08
-5.0161e-10
7.9975e-09
-1.1397e-08
1.618e-08
-5.0436e-10
6.6738e-09
-9.7623e-09
1.3754e-08
-5.057e-10
4.9631e-09
-7.3167e-09
1.0279e-08
-2.3093e-21
3.1729e-09
-4.5144e-09
6.3528e-09
1.1026e-09
-1.5309e-09
2.1336e-09
-2.2588e-21
9.3259e-15
9.3259e-15
0
0
2.6404e-14
2.6404e-14
0
1.0253e-28
4.0198e-14
4.0198e-14
0
-2.2588e-21
5.2181e-14
5.2181e-14
0
2.2588e-21
6.7023e-14
6.7023e-14
0
2.2588e-21
9.0003e-14
9.0003e-14
0
0
1.2319e-13
1.2319e-13
0
0
1.6473e-13
1.6473e-13
0
0
2.1052e-13
2.1052e-13
0
3.3881e-21
2.5474e-13
2.5474e-13
0
1.1294e-21
2.925e-13
2.925e-13
0
-1.1294e-21
3.2057e-13
3.2057e-13
0
2.2588e-21
3.3451e-13
3.3451e-13
0
1.9531e-09
3.3162e-13
3.3162e-13
4.7076e-22
9.7656e-11
3.1114e-13
3.1114e-13
3.3087e-26
1.9531e-10
2.7373e-13
2.7373e-13
-4.1181e-22
1.9531e-10
2.2254e-13
2.2254e-13
-5.2941e-22
1.9531e-10
1.6226e-13
1.6226e-13
8.1375e-12
3.9063e-10
9.8268e-14
9.8268e-14
8.1375e-12
1.9532e-10
3.5824e-14
3.5824e-14
5.2943e-22
3.9063e-10
-8.1583e-12
-1.8411e-14
8.1375e-12
3.9067e-10
1.5455e-10
-8.1446e-11
1.7903e-10
3.9067e-10
1.6263e-10
-1.6285e-10
1.7901e-10
3.5573e-10
-8.2723e-12
-8.9651e-11
1.6275e-11
3.4185e-10
7.3088e-11
-8.2924e-12
9.7655e-11
3.9069e-10
1.5444e-10
-1.7106e-10
1.8716e-10
1.9535e-10
2.2769e-10
-2.6875e-10
2.8484e-10
1.954e-10
3.8232e-10
-2.7692e-10
4.7205e-10
1.9541e-10
4.5558e-10
-3.6646e-10
6.6744e-10
9.7661e-11
5.3699e-10
-5.3742e-10
7.7333e-10
9.7715e-11
6.1024e-10
-7.0842e-10
8.0594e-10
-1.092e-13
9.115e-10
-9.6899e-10
1.1154e-09
-9.8006e-11
1.4489e-09
-1.4089e-09
1.7752e-09
1.1334e-21
1.816e-09
-1.866e-09
2.4686e-09
1.1334e-21
2.4187e-09
-2.4853e-09
3.2756e-09
-4.9265e-10
3.1127e-09
-3.1151e-09
4.0852e-09
-2.2766e-21
3.7961e-09
-3.8341e-09
4.998e-09
-1.4815e-09
4.9469e-09
-4.9815e-09
6.4969e-09
-4.9804e-10
6.4715e-09
-6.499e-09
8.5918e-09
-9.992e-10
8.3814e-09
-8.297e-09
1.1182e-08
-4.948e-10
1.0389e-08
-1.0117e-08
1.3867e-08
-1.0022e-09
1.1798e-08
-1.141e-08
1.584e-08
-4.962e-10
1.2217e-08
-1.1815e-08
1.6613e-08
-1.0129e-09
1.1651e-08
-1.1234e-08
1.595e-08
9.7529e-12
9.9826e-09
-9.635e-09
1.3499e-08
-5.0502e-10
7.4996e-09
-7.2643e-09
1.0057e-08
-4.9791e-10
4.6119e-09
-4.5195e-09
6.2149e-09
1.5233e-09
-1.5232e-09
2.0731e-09
2.2588e-21
9.3259e-15
-2.2675e-14
2.2675e-14
0
2.6404e-14
-6.4659e-14
6.4659e-14
0
4.0198e-14
-9.8664e-14
9.8664e-14
2.2588e-21
5.2181e-14
-1.2471e-13
1.2471e-13
0
6.7023e-14
-1.4818e-13
1.4818e-13
0
9.0003e-14
-1.762e-13
1.762e-13
0
1.2319e-13
-2.1174e-13
2.1174e-13
0
1.6473e-13
-2.5327e-13
2.5327e-13
0
2.1052e-13
-2.9678e-13
2.9678e-13
0
2.5474e-13
-3.3596e-13
3.3596e-13
-2.2588e-21
2.925e-13
-3.6604e-13
3.6604e-13
0
3.2057e-13
-3.8472e-13
3.8472e-13
-1.1294e-21
3.3451e-13
-3.8841e-13
3.8841e-13
1.9531e-09
3.3162e-13
-3.7523e-13
3.7523e-13
4.8828e-11
3.1114e-13
-3.4494e-13
3.4494e-13
1.9531e-10
2.7373e-13
-2.9846e-13
2.9846e-13
1.9531e-10
2.2254e-13
-2.3906e-13
2.3906e-13
1.9531e-10
1.6226e-13
-1.715e-13
1.715e-13
3.9062e-10
9.8268e-14
-1.01e-13
1.01e-13
1.9531e-10
3.5824e-14
-3.2837e-14
3.2837e-14
3.9063e-10
8.1167e-12
8.166e-12
8.109e-12
3.9067e-10
-1.5469e-10
8.9564e-11
8.9404e-11
3.9064e-10
-1.6285e-10
8.149e-11
8.1249e-11
3.5909e-10
8.0029e-12
8.2873e-12
7.9879e-12
3.9068e-10
-7.3397e-11
1.7107e-10
1.7073e-10
3.9069e-10
-1.5478e-10
1.7106e-10
1.707e-10
1.9533e-10
-2.2806e-10
1.7923e-10
1.7885e-10
1.9538e-10
-3.8271e-10
4.3152e-10
4.3114e-10
1.954e-10
-4.5599e-10
6.0247e-10
6.021e-10
1.4655e-10
-5.3742e-10
6.8389e-10
6.8354e-10
9.7667e-11
-6.107e-10
7.7343e-10
7.731e-10
-1.3263e-13
-9.2013e-10
1.2049e-09
1.1965e-09
-9.8008e-11
-1.4576e-09
1.8076e-09
1.7992e-09
0
-1.8167e-09
2.4191e-09
2.4189e-09
0
-2.4277e-09
3.2012e-09
3.1928e-09
0
-3.1219e-09
4.0588e-09
4.0504e-09
-4.9373e-10
-3.7894e-09
5.0059e-09
5.0137e-09
-1.4806e-09
-4.9407e-09
6.4015e-09
6.4091e-09
-1.4854e-09
-6.4824e-09
8.4021e-09
8.393e-09
-1.4932e-09
-8.4014e-09
1.0929e-08
1.0911e-08
-1.4912e-09
-1.0402e-08
1.3629e-08
1.3619e-08
-1.5026e-09
-1.1812e-08
1.5687e-08
1.5676e-08
-4.8628e-10
-1.2223e-08
1.6428e-08
1.6425e-08
-1.0092e-09
-1.1648e-08
1.5701e-08
1.5707e-08
-4.9578e-10
-9.9879e-09
1.3369e-08
1.3367e-08
-1.0082e-09
-7.5037e-09
1.0013e-08
1.0011e-08
-9.9513e-10
-4.606e-09
6.1012e-09
6.1081e-09
-1.5159e-09
1.9813e-09
1.9891e-09
-2.2588e-21
-3.0739e-14
0
0
2.5656e-28
-8.8445e-14
0
0
2.2588e-21
-1.3547e-13
0
0
-2.2588e-21
-1.6494e-13
0
0
0
-1.7131e-13
0
0
2.2588e-21
-1.5199e-13
0
0
-2.2588e-21
-1.0689e-13
0
0
0
-4.0428e-14
0
0
-2.2588e-21
3.962e-14
0
0
1.1294e-21
1.2324e-13
0
0
-1.1294e-21
1.9892e-13
0
0
-3.0934e-28
2.5619e-13
0
0
1.1294e-21
2.8507e-13
0
0
1.9531e-09
2.7918e-13
-1.7637e-22
5.8817e-23
1.4648e-10
2.367e-13
-4.1198e-22
-6.4718e-22
1.9531e-10
1.6003e-13
-1.1765e-22
4.1178e-22
1.9531e-10
5.6793e-14
-5.8824e-23
-5.2941e-22
1.9531e-10
-6.153e-14
8.1375e-12
8.1375e-12
3.9063e-10
-1.8103e-13
8.1375e-12
8.1375e-12
1.9532e-10
-8.4246e-12
8.1375e-12
-5.8826e-23
3.9063e-10
-8.5037e-12
8.1375e-12
8.1375e-12
3.9067e-10
-8.1786e-11
-7.3238e-11
1.7903e-10
3.9067e-10
-1.6315e-10
-1.4646e-10
1.7901e-10
3.5588e-10
-8.9879e-11
-5.6966e-11
2.4413e-11
3.4185e-10
-8.4163e-12
2.4413e-11
1.058e-10
3.9069e-10
-1.7106e-10
-1.3835e-10
1.8716e-10
1.9535e-10
-2.686e-10
-1.9532e-10
2.8484e-10
1.954e-10
-2.7663e-10
-1.7091e-10
4.7205e-10
1.9541e-10
-3.579e-10
-3.0928e-10
6.6744e-10
1.4652e-10
-5.2876e-10
-4.3956e-10
7.7333e-10
9.7716e-11
-7.0783e-10
-4.8026e-10
8.0589e-10
-1.0918e-13
-9.6834e-10
-5.8614e-10
1.1073e-09
-9.8005e-11
-1.4082e-09
-8.9567e-10
1.7752e-09
-1.1323e-21
-1.8652e-09
-1.336e-09
2.4686e-09
-2.268e-21
-2.4844e-09
-1.7596e-09
3.2593e-09
-4.9265e-10
-3.114e-09
-2.0788e-09
4.0771e-09
-1.5243e-24
-3.8327e-09
-2.5362e-09
4.9981e-09
-1.4815e-09
-4.9796e-09
-3.3469e-09
6.4807e-09
-4.9805e-10
-6.4963e-09
-4.453e-09
8.5592e-09
-9.9921e-10
-8.2936e-09
-5.7032e-09
1.1165e-08
-4.9482e-10
-1.0104e-08
-6.9779e-09
1.3867e-08
-1.0022e-09
-1.1396e-08
-7.9046e-09
1.5824e-08
-4.9622e-10
-1.1818e-08
-8.3071e-09
1.6605e-08
-1.013e-09
-1.1237e-08
-7.9899e-09
1.5951e-08
9.8388e-12
-9.6386e-09
-6.7577e-09
1.3575e-08
-5.0504e-10
-7.2607e-09
-5.0468e-09
1.0141e-08
-4.9791e-10
-4.5089e-09
-3.1897e-09
6.215e-09
-1.5224e-09
-1.1109e-09
2.0731e-09
2.2588e-21
-3.5454e-14
3.5454e-14
2.2588e-21
-1.0206e-13
1.0206e-13
2.2588e-21
-1.5639e-13
1.5639e-13
0
-1.9055e-13
1.9055e-13
0
-1.984e-13
1.984e-13
0
-1.7725e-13
1.7725e-13
0
-1.2712e-13
1.2712e-13
0
-5.2855e-14
5.2855e-14
2.2588e-21
3.7015e-14
-3.7015e-14
-2.2588e-21
1.3158e-13
-1.3158e-13
0
2.1818e-13
-2.1818e-13
0
2.8522e-13
-2.8522e-13
0
3.2153e-13
-3.2153e-13
1.9531e-09
3.1976e-13
-3.1976e-13
1.9531e-10
2.7743e-13
-2.7743e-13
1.9531e-10
1.9677e-13
-1.9677e-13
1.9531e-10
8.5849e-14
-8.5849e-14
1.9531e-10
-4.2957e-14
4.2957e-14
3.9062e-10
-1.7437e-13
1.7437e-13
1.9531e-10
-2.9221e-13
8.4297e-12
3.9064e-10
-3.8385e-13
8.519e-12
3.9067e-10
-4.3063e-13
4.3063e-13
3.9067e-10
-1.6317e-10
-1.6231e-10
3.5212e-10
-1.5501e-10
-1.5423e-10
2.4416e-10
7.8382e-12
8.437e-12
3.9069e-10
-7.342e-11
-7.3065e-11
1.9537e-10
-1.3839e-10
-1.3831e-10
1.9538e-10
-2.115e-10
-2.1172e-10
1.954e-10
-2.8463e-10
-2.9324e-10
1.4657e-10
-3.5779e-10
-3.6661e-10
1.4657e-10
-5.1242e-10
-5.1325e-10
-1.1306e-21
-7.3227e-10
-7.4135e-10
-4.898e-11
-9.4401e-10
-9.5318e-10
0
-1.2297e-09
-1.2308e-09
1.05e-24
-1.6696e-09
-1.6709e-09
-1.4737e-09
-2.1114e-09
-2.1047e-09
1.1378e-21
-2.611e-09
-2.6128e-09
-4.9498e-10
-3.4184e-09
-3.4289e-09
-3.431e-21
-4.4531e-09
-4.4561e-09
2.2933e-21
-5.6115e-09
-5.6156e-09
-2.3068e-21
-6.8738e-09
-6.879e-09
-4.9831e-10
-7.7003e-09
-7.7064e-09
-5.0168e-10
-8.0247e-09
-8.0313e-09
-1.0089e-09
-7.6898e-09
-7.6963e-09
-5.0518e-10
-6.5149e-09
-6.5125e-09
4.8672e-12
-4.9698e-09
-4.9663e-09
2.3003e-21
-3.1143e-09
-3.1175e-09
-1.0284e-09
-1.0294e-09
1.574e-28
0
3.5454e-14
-2.2588e-21
0
1.0206e-13
0
0
1.5639e-13
0
0
1.9055e-13
-2.2588e-21
0
1.984e-13
2.2588e-21
0
1.7725e-13
4.5175e-21
0
1.2712e-13
2.2588e-21
0
5.2855e-14
0
0
-3.7015e-14
0
0
-1.3158e-13
2.8664e-28
0
-2.1818e-13
3.4647e-28
0
-2.8522e-13
-1.1294e-21
0
-3.2153e-13
1.9531e-09
-1.4338e-25
-3.1976e-13
1.9531e-10
5.8723e-23
-2.7743e-13
1.9531e-10
-8.1375e-12
-8.3343e-12
1.9531e-10
-8.1375e-12
-8.2234e-12
1.9531e-10
8.1372e-12
4.2955e-14
3.9063e-10
8.1372e-12
1.7437e-13
1.9531e-10
-5.208e-16
-1.5983e-11
3.9062e-10
-5.208e-16
-1.5893e-11
3.9062e-10
-6.944e-16
-7.7072e-12
3.9065e-10
-8.1371e-11
-9.7211e-11
3.5023e-10
-8.1379e-11
-1.1354e-10
1.9534e-10
2.0763e-15
-4.853e-11
3.907e-10
8.1377e-12
-4.8651e-11
1.9536e-10
-7.3247e-11
-1.4645e-10
1.9537e-10
-1.5464e-10
-2.6055e-10
1.9542e-10
-1.6279e-10
-2.9325e-10
1.9546e-10
-1.7907e-10
-3.4219e-10
4.8851e-11
-1.791e-10
-4.8884e-10
-4.8936e-11
-2.6057e-10
-7.414e-10
-4.8974e-11
-4.1531e-10
-9.6142e-10
-1.1321e-21
-5.7846e-10
-1.2146e-09
1.1344e-21
-7.4957e-10
-1.6628e-09
-1.9636e-09
-9.8684e-10
-2.1456e-09
1.5404e-24
-1.3224e-09
-2.6701e-09
1.137e-21
-1.7468e-09
-3.4538e-09
0
-2.2317e-09
-4.4569e-09
-2.302e-21
-2.7335e-09
-5.6495e-09
2.3085e-21
-3.406e-09
-6.9219e-09
-1.0023e-09
-3.9223e-09
-7.8132e-09
-1.009e-09
-4.0312e-09
-8.1646e-09
-5.056e-10
-3.8636e-09
-7.8063e-09
-1.0139e-09
-3.371e-09
-6.6885e-09
-5.0038e-10
-2.5264e-09
-5.1053e-09
-2.3024e-21
-1.4876e-09
-3.1161e-09
-4.8562e-10
-1.0047e-09
0
0
0
0
0
0
0
0
0
0
0
0
0
0
0
0
0
0
0
0
0
0
0
0
0
0
0
0
0
0
0
0
0
0
0
0
0
0
0
1.9531e-09
0
5.2937e-22
1.9531e-10
0
2.3523e-22
1.9531e-10
0
-8.1375e-12
1.9531e-10
-8.1378e-12
-1.6275e-11
1.9531e-10
-8.1393e-12
-2.4414e-11
3.9062e-10
0
-1.6275e-11
1.9531e-10
-8.1375e-12
-1.6275e-11
3.9062e-10
-8.1399e-12
-1.6275e-11
3.9062e-10
0
-8.1314e-12
3.9066e-10
0
-3.2548e-11
3.4925e-10
0
-6.5104e-11
1.9534e-10
-8.1405e-12
-8.1381e-11
3.9068e-10
-1.6279e-11
-9.7658e-11
1.9536e-10
-8.139e-12
-1.4649e-10
1.9539e-10
0
-1.9533e-10
1.9542e-10
0
-2.4417e-10
1.9545e-10
0
-3.4185e-10
5.6522e-22
-8.1386e-12
-4.8029e-10
-4.8968e-11
3.4721e-16
-6.6764e-10
-9.7924e-11
8.1371e-12
-9.447e-10
0
0
-1.2956e-09
8.6914e-25
-8.1385e-12
-1.703e-09
-1.9639e-09
-8.1404e-12
-2.1695e-09
0
-8.1372e-12
-2.7428e-09
2.2808e-21
-8.1402e-12
-3.51e-09
-4.9659e-10
-8.1432e-12
-4.5301e-09
2.3028e-21
-1.6362e-11
-5.7585e-09
-2.3179e-21
-8.228e-12
-6.9696e-09
-1.5084e-09
0
-7.8938e-09
-1.5184e-09
0
-8.2287e-09
0
0
-7.8206e-09
-5.0308e-10
0
-6.7218e-09
-1.0071e-09
8.3355e-12
-5.0646e-09
6.903e-21
8.3042e-12
-3.1063e-09
0
-1.0371e-09
0
0
0
0
0
0
0
0
0
0
0
0
0
0
0
0
0
0
0
0
0
0
0
0
0
0
0
0
0
0
0
0
0
0
0
0
0
0
0
1.9531e-09
1.4338e-25
1.1748e-22
1.9531e-10
-5.8723e-23
-1.7668e-22
1.9531e-10
8.1375e-12
-8.1375e-12
1.9532e-10
8.1375e-12
-1.6275e-11
1.9531e-10
-8.1372e-12
-2.4415e-11
3.9062e-10
-8.1372e-12
-1.6275e-11
1.9531e-10
5.208e-16
-1.6275e-11
3.9062e-10
5.208e-16
-1.6275e-11
3.9062e-10
6.944e-16
-8.1314e-12
3.9066e-10
8.1371e-11
-3.2548e-11
3.4924e-10
8.1379e-11
-6.5104e-11
1.9534e-10
-2.0763e-15
-8.1381e-11
3.9068e-10
-8.1377e-12
-9.7658e-11
1.9536e-10
7.3247e-11
-1.4649e-10
1.9539e-10
1.5464e-10
-1.9533e-10
1.9542e-10
1.6279e-10
-2.4417e-10
1.9545e-10
1.7907e-10
-3.4185e-10
-1.6956e-21
1.791e-10
-4.8029e-10
-4.8968e-11
2.6057e-10
-6.6763e-10
-9.7924e-11
4.1531e-10
-9.447e-10
2.2661e-21
5.7846e-10
-1.2956e-09
1.7745e-24
7.4957e-10
-1.703e-09
-1.9639e-09
9.8684e-10
-2.1694e-09
1.1369e-21
1.3224e-09
-2.7428e-09
-1.1415e-21
1.6569e-09
-3.51e-09
-4.9659e-10
2.158e-09
-4.5383e-09
0
2.7498e-09
-5.7667e-09
-2.3179e-21
3.3979e-09
-6.9778e-09
-1.5084e-09
3.8977e-09
-7.9104e-09
-1.5184e-09
4.023e-09
-8.2537e-09
-2.3516e-21
3.8802e-09
-7.8457e-09
-5.0308e-10
3.3794e-09
-6.7302e-09
-1.0071e-09
2.5347e-09
-5.0646e-09
2.3003e-21
1.4959e-09
-3.1063e-09
4.8562e-10
-1.0371e-09
4.5175e-21
-2.0148e-15
-2.0148e-15
1.9985e-29
-6.5103e-15
-6.5103e-15
-6.0137e-29
-1.1275e-14
-1.1275e-14
-2.9599e-29
-1.344e-14
-1.344e-14
2.2588e-21
-8.0678e-15
-8.0678e-15
2.2588e-21
9.5001e-15
9.5001e-15
0
4.1118e-14
4.1118e-14
0
8.4711e-14
8.4711e-14
0
1.3574e-13
1.3574e-13
-2.3773e-28
1.8826e-13
1.8826e-13
1.1294e-21
2.3654e-13
2.3654e-13
0
2.7602e-13
2.7602e-13
-1.1294e-21
3.0121e-13
3.0121e-13
1.9531e-09
3.0831e-13
3.0831e-13
1.9531e-10
2.958e-13
2.958e-13
1.9531e-10
2.64e-13
-7.8735e-12
1.9531e-10
2.1613e-13
-7.9214e-12
1.9531e-10
1.5732e-13
1.5731e-13
3.9062e-10
9.3618e-14
9.3615e-14
1.9531e-10
3.1035e-14
-1.6244e-11
3.9062e-10
-2.3082e-14
-1.63e-11
3.9062e-10
-7.242e-14
-8.2102e-12
3.9065e-10
1.6263e-10
-9.7752e-11
3.5016e-10
1.5449e-10
-1.1406e-10
1.9534e-10
-8.2883e-12
-4.8981e-11
3.907e-10
7.308e-11
-4.8992e-11
1.9536e-10
1.3818e-10
-1.4666e-10
1.9537e-10
2.1143e-10
-2.6063e-10
1.9542e-10
2.8467e-10
-2.9321e-10
1.9546e-10
3.5792e-10
-3.4206e-10
4.8851e-11
5.1262e-10
-4.8864e-10
-4.8936e-11
7.4064e-10
-7.4117e-10
-4.8975e-11
9.5239e-10
-9.6117e-10
-1.1313e-21
1.2299e-09
-1.2144e-09
1.1344e-21
1.6699e-09
-1.6626e-09
-1.9636e-09
2.1034e-09
-2.1454e-09
-1.5406e-24
2.6112e-09
-2.67e-09
-2.1593e-24
3.4268e-09
-3.4537e-09
1.1426e-21
4.4533e-09
-4.4649e-09
2.2951e-21
5.6117e-09
-5.6575e-09
2.3085e-21
6.8659e-09
-6.9298e-09
-1.0022e-09
7.6924e-09
-7.8293e-09
-1.009e-09
8.0333e-09
-8.1891e-09
-5.0559e-10
7.6985e-09
-7.8308e-09
-1.0139e-09
6.5153e-09
-6.6965e-09
-5.0037e-10
4.9618e-09
-5.1051e-09
-2.3024e-21
3.1062e-09
-3.1159e-09
1.0285e-09
-1.0047e-09
0
9.3259e-15
-2.0148e-15
0
2.6404e-14
-6.5103e-15
2.2588e-21
4.0198e-14
-1.1275e-14
0
5.2181e-14
-1.344e-14
2.2588e-21
6.7023e-14
-8.0677e-15
2.2588e-21
9.0003e-14
9.5001e-15
2.2588e-21
1.2319e-13
4.1118e-14
0
1.6473e-13
8.4711e-14
-5.4738e-44
2.1052e-13
1.3574e-13
-5.4738e-44
2.5474e-13
1.8826e-13
-1.1294e-21
2.925e-13
2.3654e-13
0
3.2057e-13
2.7602e-13
0
3.3451e-13
3.0121e-13
1.9531e-09
3.3162e-13
3.0831e-13
1.9531e-10
3.1114e-13
2.958e-13
1.9531e-10
2.7373e-13
2.64e-13
1.9531e-10
2.2254e-13
2.1613e-13
1.9531e-10
1.6226e-13
1.5732e-13
3.9062e-10
9.8268e-14
9.3618e-14
1.9531e-10
3.5824e-14
3.1035e-14
3.9064e-10
-2.3099e-14
-2.7769e-14
3.9067e-10
8.1309e-11
-7.242e-14
3.9067e-10
1.6263e-10
-1.6285e-10
3.5201e-10
8.9382e-11
-1.5475e-10
2.4416e-10
7.9828e-12
7.9868e-12
3.9069e-10
1.7072e-10
-7.3406e-11
1.9537e-10
2.6838e-10
-1.3852e-10
1.9538e-10
2.7653e-10
-2.118e-10
1.954e-10
3.6605e-10
-2.8506e-10
1.4657e-10
5.3699e-10
-3.5833e-10
1.4657e-10
7.0797e-10
-5.1305e-10
0
9.6851e-10
-7.4111e-10
-4.898e-11
1.4084e-09
-9.5293e-10
-1.1321e-21
1.8653e-09
-1.2306e-09
-4.5335e-21
2.4845e-09
-1.6707e-09
-1.4737e-09
3.1141e-09
-2.1045e-09
-1.1378e-21
3.8328e-09
-2.6126e-09
-4.9498e-10
4.9878e-09
-3.4206e-09
-1.1419e-21
6.5045e-09
-4.4478e-09
2.2933e-21
8.2936e-09
-5.6154e-09
0
1.0104e-08
-6.8787e-09
-4.9831e-10
1.1396e-08
-7.7061e-09
-5.0168e-10
1.181e-08
-8.0392e-09
-1.009e-09
1.1221e-08
-7.7126e-09
-5.0518e-10
9.6221e-09
-6.5288e-09
4.8725e-12
7.2608e-09
-4.9661e-09
4.6028e-21
4.5172e-09
-3.109e-09
1.5224e-09
-1.0294e-09
0
0
0
2.2588e-21
0
0
0
0
0
-4.5175e-21
0
0
2.2588e-21
0
0
4.5175e-21
0
0
3.1604e-28
0
0
0
0
0
0
0
0
1.1294e-21
0
0
-3.3881e-21
0
0
3.6783e-28
0
0
3.747e-28
0
0
1.9531e-09
1.7633e-22
5.8817e-23
9.7656e-11
5.8769e-23
3.3087e-26
1.9531e-10
-5.8825e-22
-4.1181e-22
1.9531e-10
2.3529e-22
-5.2941e-22
1.9531e-10
8.1375e-12
8.1375e-12
3.9063e-10
8.1375e-12
8.1375e-12
1.9532e-10
4.7063e-22
5.2948e-22
3.9063e-10
-2.3437e-15
8.1375e-12
3.9067e-10
-7.3238e-11
1.7903e-10
3.9067e-10
-1.4646e-10
1.7901e-10
3.5573e-10
-6.5103e-11
1.6275e-11
3.4185e-10
1.6272e-11
9.7655e-11
3.9069e-10
-1.3835e-10
1.8716e-10
1.9535e-10
-1.9532e-10
2.8484e-10
1.954e-10
-1.7091e-10
4.7205e-10
1.9541e-10
-3.0114e-10
6.6744e-10
9.7661e-11
-4.3141e-10
7.7333e-10
9.7715e-11
-4.8029e-10
8.0594e-10
-1.0919e-13
-5.8614e-10
1.1073e-09
-9.8006e-11
-9.0383e-10
1.7671e-09
-1.1323e-21
-1.3441e-09
2.4686e-09
-1.1334e-21
-1.7596e-09
3.2674e-09
-4.9265e-10
-2.0788e-09
4.0771e-09
1.1353e-21
-2.5362e-09
5.0062e-09
-1.4815e-09
-3.3387e-09
6.4969e-09
-4.9805e-10
-4.4448e-09
8.5673e-09
-9.9922e-10
-5.7114e-09
1.1157e-08
-4.9482e-10
-6.9862e-09
1.3859e-08
-1.0022e-09
-7.8964e-09
1.5832e-08
-4.9622e-10
-8.3071e-09
1.6621e-08
-1.013e-09
-8.0065e-09
1.5959e-08
9.8309e-12
-6.7744e-09
1.3575e-08
-5.0504e-10
-5.0467e-09
1.0141e-08
-4.9791e-10
-3.1813e-09
6.215e-09
-1.1109e-09
2.0731e-09
0
0
0
0
0
0
0
0
0
0
0
0
0
0
0
0
0
0
0
0
0
0
0
0
0
0
0
0
0
0
0
0
0
0
0
0
0
0
0
0
0
0
0
0
0
0
0
0
0
0
0
0
1.9531e-09
2.3506e-22
-1.1739e-22
-3.531e-22
1.9531e-10
5.8673e-23
-2.3525e-22
7.0597e-22
1.9531e-10
-2.9412e-22
8.1375e-12
8.1375e-12
1.9532e-10
2.9412e-22
8.1375e-12
8.1375e-12
1.9532e-10
-8.1375e-12
8.1375e-12
8.1375e-12
3.9063e-10
-8.1375e-12
8.1375e-12
8.1375e-12
1.9532e-10
-8.1375e-12
8.1375e-12
8.1375e-12
3.9063e-10
-8.1375e-12
8.1375e-12
8.1375e-12
3.9067e-10
-8.1375e-12
1.6275e-11
9.7654e-11
3.9067e-10
-1.7901e-10
-4.8789e-11
1.1389e-10
3.5397e-10
-1.8717e-10
-4.8825e-11
3.255e-11
2.9299e-10
-2.4413e-11
3.2548e-11
3.2547e-11
3.9069e-10
-1.1394e-10
-2.4411e-11
2.1157e-10
1.9537e-10
-2.2788e-10
-7.3242e-11
3.1739e-10
1.9538e-10
-3.3369e-10
-3.2541e-11
2.767e-10
1.9542e-10
-4.2323e-10
-7.3247e-11
4.9648e-10
1.4654e-10
-5.2907e-10
-1.9535e-10
7.896e-10
4.8815e-11
-6.5937e-10
-2.0352e-10
9.3623e-10
-1.1312e-21
-8.8743e-10
-2.5239e-10
1.2049e-09
-9.7944e-11
-1.3109e-09
-4.0713e-10
1.7834e-09
-1.1314e-21
-1.8493e-09
-5.9477e-10
2.5747e-09
0
-2.4035e-09
-8.3107e-10
3.4793e-09
-9.8433e-10
-3.0661e-09
-1.117e-09
4.3378e-09
0
-3.9258e-09
-1.4272e-09
5.3241e-09
-9.8989e-10
-5.0844e-09
-1.7882e-09
6.7669e-09
-1.1436e-21
-6.604e-09
-2.3051e-09
8.8733e-09
-5.0135e-10
-8.2968e-09
-2.7568e-09
1.1402e-08
0
-1.0158e-08
-3.4612e-09
1.4034e-08
-5.0042e-10
-1.1501e-08
-4.1223e-09
1.6163e-08
-1.0126e-09
-1.1924e-08
-4.1733e-09
1.6976e-08
-5.0165e-10
-1.1414e-08
-3.9589e-09
1.6197e-08
-5.0432e-10
-9.7795e-09
-3.4348e-09
1.3838e-08
-5.0571e-10
-7.3254e-09
-2.5664e-09
1.0363e-08
0
-4.4979e-09
-1.5456e-09
6.3445e-09
-1.5227e-09
-5.1026e-10
2.1253e-09
2.2588e-21
-3.5454e-14
0
-2.2588e-21
-1.0206e-13
0
-2.2588e-21
-1.5639e-13
0
-2.2588e-21
-1.9055e-13
0
0
-1.984e-13
0
0
-1.7725e-13
0
0
-1.2712e-13
0
2.2588e-21
-5.2855e-14
0
1.8789e-28
3.7015e-14
0
0
1.3158e-13
0
4.5175e-21
2.1818e-13
0
-1.1294e-21
2.8522e-13
0
1.1294e-21
3.2153e-13
0
1.9531e-09
3.1976e-13
2.3521e-22
1.9531e-10
2.7743e-13
5.8921e-23
1.9531e-10
-7.9407e-12
-8.1375e-12
1.9531e-10
-8.0516e-12
-8.1375e-12
1.9531e-10
-4.2955e-14
8.1372e-12
3.9062e-10
-1.7437e-13
8.1372e-12
1.9531e-10
-1.6567e-11
-5.208e-16
3.9062e-10
-1.6656e-11
-5.208e-16
3.9062e-10
-8.5684e-12
-6.944e-16
3.9065e-10
-9.8077e-11
-8.1371e-11
3.5027e-10
-1.1432e-10
-8.1379e-11
1.9534e-10
-4.9129e-11
2.0761e-15
3.907e-10
-4.0869e-11