/*--------------------------------*- C++ -*----------------------------------*\
| =========                 |                                                 |
| \\      /  F ield         | OpenFOAM: The Open Source CFD Toolbox           |
|  \\    /   O peration     | Version:  4.1                                   |
|   \\  /    A nd           | Web:      www.OpenFOAM.org                      |
|    \\/     M anipulation  |                                                 |
\*---------------------------------------------------------------------------*/
FoamFile
{
    version     2.0;
    format      ascii;
    class       volVectorField;
    location    "0.0014";
    object      U;
}
// * * * * * * * * * * * * * * * * * * * * * * * * * * * * * * * * * * * * * //

dimensions      [0 1 -1 0 0 0 0];

internalField   nonuniform List<vector> 
6144
(
(-6.0665e-06 -2.7108e-06 -2.6983e-07)
(-2.6744e-06 -7.5011e-06 -8.0796e-07)
(3.064e-06 -1.0482e-05 -1.2166e-06)
(9.559e-06 -1.155e-05 -1.4895e-06)
(1.5847e-05 -1.1345e-05 -1.5594e-06)
(2.136e-05 -1.0418e-05 -1.3749e-06)
(2.5961e-05 -8.9508e-06 -1.0612e-06)
(2.9678e-05 -7.53e-06 -6.1827e-07)
(3.2586e-05 -6.172e-06 1.1325e-08)
(3.5321e-05 -5.6668e-06 7.0141e-07)
(3.8921e-05 -6.6479e-06 1.3428e-06)
(4.449e-05 -8.5333e-06 1.867e-06)
(5.2851e-05 -1.0809e-05 2.1839e-06)
(6.3944e-05 -1.2983e-05 2.3201e-06)
(7.7649e-05 -1.5733e-05 2.1859e-06)
(9.53e-05 -2.2047e-05 1.699e-06)
(0.00011882 -3.1178e-05 1.0974e-06)
(0.00014852 -4.0569e-05 3.5784e-07)
(0.0001828 -4.7425e-05 -5.2027e-07)
(0.00021941 -5.6717e-05 -1.2321e-06)
(0.00026344 -8.0288e-05 -1.8144e-06)
(0.00033064 -0.00012576 -2.3307e-06)
(0.00043883 -0.00018735 -2.4715e-06)
(0.00059386 -0.00025165 -2.2179e-06)
(0.00079123 -0.00032078 -1.6808e-06)
(0.0010448 -0.00044102 -9.7825e-07)
(0.0014145 -0.00066269 -1.9969e-07)
(0.0019852 -0.00098182 5.792e-07)
(0.0028113 -0.0013433 1.2519e-06)
(0.0038931 -0.0017201 1.722e-06)
(0.0052427 -0.0022117 1.9697e-06)
(0.0070045 -0.0030365 2.0134e-06)
(0.0095158 -0.0043827 1.7625e-06)
(0.013195 -0.0061978 1.2924e-06)
(0.018331 -0.0082311 7.1404e-07)
(0.024976 -0.010316 1.5047e-07)
(0.033134 -0.01271 -2.8099e-07)
(0.04317 -0.016062 -6.0393e-07)
(0.056078 -0.020927 -7.0235e-07)
(0.07308 -0.02697 -2.8853e-07)
(0.094864 -0.032885 4.0913e-07)
(0.12091 -0.036805 1.3843e-06)
(0.14926 -0.037307 2.4472e-06)
(0.17732 -0.034254 3.2133e-06)
(0.20286 -0.028644 3.4676e-06)
(0.22429 -0.021591 3.2497e-06)
(0.24073 -0.013702 2.4178e-06)
(0.2509 -0.007922 8.9239e-07)
(-5.1625e-06 -1.9168e-06 1.2864e-07)
(-2.0254e-06 -5.3419e-06 2.8798e-07)
(3.3291e-06 -7.5363e-06 3.1041e-07)
(9.4693e-06 -8.4875e-06 1.3589e-07)
(1.5473e-05 -8.4972e-06 -2.8541e-08)
(2.0802e-05 -7.9686e-06 -1.3008e-07)
(2.5329e-05 -6.9396e-06 -7.6714e-08)
(2.9035e-05 -6.0268e-06 1.8206e-07)
(3.2015e-05 -5.1455e-06 5.3932e-07)
(3.4967e-05 -4.9474e-06 1.1441e-06)
(3.8845e-05 -5.7809e-06 1.9729e-06)
(4.4681e-05 -7.2496e-06 2.6775e-06)
(5.323e-05 -9.286e-06 3.153e-06)
(6.4473e-05 -1.1345e-05 3.3691e-06)
(7.865e-05 -1.4003e-05 3.4043e-06)
(9.6715e-05 -1.8813e-05 3.6522e-06)
(0.00012027 -2.4657e-05 4.4698e-06)
(0.00014988 -3.041e-05 5.1655e-06)
(0.00018428 -3.528e-05 5.3491e-06)
(0.00022241 -4.2104e-05 6.1913e-06)
(0.00026973 -5.8516e-05 9.6516e-06)
(0.0003406 -8.926e-05 1.6631e-05)
(0.00045117 -0.00013092 2.5466e-05)
(0.00060777 -0.00017672 3.432e-05)
(0.00081064 -0.00023015 4.5187e-05)
(0.0010779 -0.00031936 6.5884e-05)
(0.0014658 -0.00047344 0.0001025)
(0.0020517 -0.00069029 0.000151)
(0.0028874 -0.00094054 0.00020043)
(0.0039852 -0.0012146 0.00025003)
(0.0053777 -0.0015804 0.00032019)
(0.0072184 -0.0021725 0.00044552)
(0.009826 -0.0031029 0.00064373)
(0.013584 -0.004344 0.00088902)
(0.018766 -0.0057592 0.001132)
(0.025456 -0.0072619 0.0013647)
(0.03373 -0.0090133 0.0016562)
(0.04399 -0.011409 0.0020965)
(0.057153 -0.014772 0.0027095)
(0.074284 -0.018876 0.0033621)
(0.09592 -0.022918 0.0037796)
(0.12149 -0.025728 0.0036951)
(0.14918 -0.026375 0.0030166)
(0.17657 -0.024688 0.0019042)
(0.20153 -0.021163 0.00071745)
(0.22244 -0.016316 -0.00011558)
(0.23839 -0.010466 -0.00034977)
(0.24824 -0.0059769 -2.931e-06)
(-4.2557e-06 -1.5597e-06 2.3546e-07)
(-1.2864e-06 -4.3562e-06 5.923e-07)
(3.8085e-06 -6.1905e-06 6.7376e-07)
(9.7014e-06 -7.0443e-06 5.0972e-07)
(1.552e-05 -7.16e-06 3.1744e-07)
(2.0653e-05 -6.8472e-06 1.7102e-07)
(2.5029e-05 -6.029e-06 2.0717e-07)
(2.8698e-05 -5.2915e-06 6.145e-07)
(3.1716e-05 -4.553e-06 1.1455e-06)
(3.4826e-05 -4.2996e-06 1.9655e-06)
(3.8897e-05 -4.8839e-06 3.1267e-06)
(4.4934e-05 -5.9939e-06 4.2571e-06)
(5.3621e-05 -7.5604e-06 5.2282e-06)
(6.5034e-05 -9.2245e-06 5.9208e-06)
(7.9554e-05 -1.147e-05 6.4287e-06)
(9.7922e-05 -1.5097e-05 7.3207e-06)
(0.00012158 -1.9804e-05 8.6342e-06)
(0.00015118 -2.4348e-05 9.6889e-06)
(0.00018573 -2.8531e-05 1.0379e-05)
(0.00022482 -3.4578e-05 1.199e-05)
(0.00027417 -4.8182e-05 1.726e-05)
(0.00034731 -7.2884e-05 2.763e-05)
(0.00045942 -0.00010624 4.1699e-05)
(0.00061736 -0.00014358 5.7278e-05)
(0.00082419 -0.00018842 7.6156e-05)
(0.0011002 -0.00026202 0.00010829)
(0.0014997 -0.00038627 0.00016299)
(0.0020951 -0.00055967 0.00023801)
(0.0029378 -0.00076156 0.00032225)
(0.0040479 -0.00098701 0.0004128)
(0.0054697 -0.0012901 0.00053496)
(0.0073614 -0.0017734 0.00073542)
(0.010029 -0.0025216 0.0010482)
(0.013838 -0.0035153 0.0014561)
(0.019051 -0.0046538 0.0019058)
(0.025776 -0.0058759 0.0023733)
(0.034128 -0.007309 0.0029268)
(0.044529 -0.0092495 0.0036958)
(0.057846 -0.011931 0.004759)
(0.075049 -0.015173 0.0059973)
(0.096583 -0.018348 0.0070905)
(0.12184 -0.020552 0.0076455)
(0.14909 -0.021067 0.0074159)
(0.17604 -0.019752 0.0064487)
(0.20061 -0.016961 0.0050427)
(0.2212 -0.013082 0.0035374)
(0.23687 -0.0083899 0.002124)
(0.24653 -0.0047626 0.0013189)
(-3.5932e-06 -1.28e-06 3.6859e-07)
(-7.2526e-07 -3.5832e-06 9.5872e-07)
(4.2034e-06 -5.1453e-06 1.143e-06)
(9.9106e-06 -5.9249e-06 9.9022e-07)
(1.556e-05 -6.088e-06 7.7646e-07)
(2.054e-05 -5.8299e-06 6.0032e-07)
(2.4774e-05 -5.2202e-06 5.8398e-07)
(2.8356e-05 -4.6044e-06 1.0211e-06)
(3.1357e-05 -3.9499e-06 1.6436e-06)
(3.4517e-05 -3.6366e-06 2.6677e-06)
(3.871e-05 -3.9785e-06 4.2333e-06)
(4.4897e-05 -4.7463e-06 5.8277e-06)
(5.3742e-05 -5.79e-06 7.3213e-06)
(6.5328e-05 -7.139e-06 8.4534e-06)
(8.0034e-05 -8.8827e-06 9.5176e-06)
(9.8596e-05 -1.1507e-05 1.1096e-05)
(0.00012238 -1.5145e-05 1.3035e-05)
(0.00015201 -1.8648e-05 1.4653e-05)
(0.0001867 -2.1938e-05 1.5878e-05)
(0.00022628 -2.6825e-05 1.8287e-05)
(0.00027657 -3.7692e-05 2.5478e-05)
(0.00035072 -5.7082e-05 3.9578e-05)
(0.00046351 -8.3233e-05 5.9142e-05)
(0.0006221 -0.00011246 8.1354e-05)
(0.00083089 -0.00014795 0.00010869)
(0.0011112 -0.00020623 0.00015397)
(0.0015162 -0.00030372 0.00022939)
(0.0021164 -0.00043915 0.00033334)
(0.002963 -0.0005966 0.00045252)
(0.0040797 -0.00077295 0.00058404)
(0.0055164 -0.0010109 0.00076099)
(0.0074331 -0.0013896 0.0010448)
(0.010131 -0.0019723 0.0014826)
(0.013964 -0.0027419 0.0020573)
(0.019194 -0.0036197 0.0027052)
(0.025938 -0.0045625 0.0033945)
(0.03433 -0.0056726 0.0042071)
(0.0448 -0.0071743 0.0053152)
(0.058193 -0.0092339 0.0068344)
(0.075432 -0.011695 0.0086274)
(0.096921 -0.014056 0.010292)
(0.12204 -0.015626 0.0113)
(0.14907 -0.015878 0.011283)
(0.17579 -0.014738 0.010235)
(0.20015 -0.012506 0.0084515)
(0.22056 -0.0095245 0.006268)
(0.23608 -0.0060399 0.0039037)
(0.24565 -0.0034434 0.0022846)
(-3.1806e-06 -1.0456e-06 5.3712e-07)
(-3.455e-07 -2.9293e-06 1.4211e-06)
(4.5156e-06 -4.2366e-06 1.7562e-06)
(1.0108e-05 -4.9444e-06 1.6071e-06)
(1.5623e-05 -5.1591e-06 1.3256e-06)
(2.0465e-05 -4.9866e-06 1.0719e-06)
(2.455e-05 -4.5214e-06 9.8241e-07)
(2.8014e-05 -4.0244e-06 1.3793e-06)
(3.0947e-05 -3.4184e-06 2.0695e-06)
(3.4072e-05 -3.0171e-06 3.2726e-06)
(3.8297e-05 -3.1319e-06 5.1951e-06)
(4.4566e-05 -3.5239e-06 7.2579e-06)
(5.3565e-05 -4.1283e-06 9.275e-06)
(6.5317e-05 -5.0033e-06 1.0909e-05)
(8.0086e-05 -6.1787e-06 1.2564e-05)
(9.876e-05 -8.0287e-06 1.4878e-05)
(0.00012267 -1.0724e-05 1.7564e-05)
(0.00015237 -1.3413e-05 1.9888e-05)
(0.00018711 -1.599e-05 2.1772e-05)
(0.00022668 -1.9718e-05 2.5194e-05)
(0.00027688 -2.8031e-05 3.4803e-05)
(0.00035088 -4.2858e-05 5.3457e-05)
(0.00046351 -6.2727e-05 7.9389e-05)
(0.00062192 -8.469e-05 0.00010893)
(0.00083054 -0.00011115 0.0001454)
(0.0011107 -0.00015507 0.00020506)
(0.0015157 -0.0002291 0.00030417)
(0.002116 -0.00033167 0.00044109)
(0.0029627 -0.00044977 0.00059964)
(0.0040795 -0.00058068 0.00077668)
(0.0055163 -0.00075745 0.0010148)
(0.0074331 -0.0010414 0.0013935)
(0.010131 -0.0014794 0.001976)
(0.013964 -0.0020545 0.002745)
(0.019194 -0.0027031 0.0036218)
(0.025938 -0.0033935 0.0045635)
(0.03433 -0.0042069 0.0056725)
(0.0448 -0.0053151 0.0071739)
(0.058193 -0.0068345 0.0092332)
(0.075432 -0.0086279 0.011694)
(0.096921 -0.010293 0.014054)
(0.12204 -0.011302 0.015624)
(0.14907 -0.011284 0.015876)
(0.17579 -0.010237 0.014736)
(0.20015 -0.008453 0.012504)
(0.22056 -0.0062691 0.0095232)
(0.23608 -0.003904 0.0060394)
(0.24565 -0.0022847 0.0034433)
(-3.0021e-06 -8.507e-07 7.414e-07)
(-1.4849e-07 -2.3932e-06 1.9691e-06)
(4.7374e-06 -3.4846e-06 2.4943e-06)
(1.0302e-05 -4.1152e-06 2.3586e-06)
(1.5718e-05 -4.3569e-06 1.9636e-06)
(2.0437e-05 -4.2495e-06 1.6159e-06)
(2.4378e-05 -3.9241e-06 1.3916e-06)
(2.7684e-05 -3.483e-06 1.711e-06)
(3.0472e-05 -2.9347e-06 2.4079e-06)
(3.3479e-05 -2.501e-06 3.8064e-06)
(3.7652e-05 -2.4522e-06 6.0735e-06)
(4.3958e-05 -2.5184e-06 8.5856e-06)
(5.3077e-05 -2.767e-06 1.105e-05)
(6.4943e-05 -3.1188e-06 1.3272e-05)
(7.9737e-05 -3.7896e-06 1.5499e-05)
(9.8445e-05 -5.045e-06 1.8548e-05)
(0.00012247 -6.9226e-06 2.2212e-05)
(0.00015232 -8.9085e-06 2.5304e-05)
(0.00018699 -1.0772e-05 2.7791e-05)
(0.00022597 -1.3559e-05 3.2288e-05)
(0.00027502 -1.9714e-05 4.4763e-05)
(0.00034774 -3.0584e-05 6.8854e-05)
(0.0004594 -4.4897e-05 0.00010229)
(0.00061682 -6.0263e-05 0.00013991)
(0.00082316 -7.8459e-05 0.00018576)
(0.0010989 -0.00010955 0.00026089)
(0.0014984 -0.00016299 0.00038665)
(0.002094 -0.00023689 0.00056153)
(0.0029371 -0.00032024 0.00076464)
(0.0040475 -0.00041015 0.00099087)
(0.0054697 -0.00053215 0.0012942)
(0.0073615 -0.00073268 0.0017773)
(0.01003 -0.0010457 0.0025249)
(0.013838 -0.0014542 0.0035179)
(0.019052 -0.0019046 0.0046554)
(0.025777 -0.0023733 0.005876)
(0.034129 -0.0029268 0.0073085)
(0.044529 -0.0036956 0.0092485)
(0.057846 -0.0047589 0.011929)
(0.075049 -0.0059972 0.015171)
(0.096583 -0.0070906 0.018346)
(0.12184 -0.0076455 0.02055)
(0.14909 -0.0074159 0.021065)
(0.17604 -0.0064488 0.01975)
(0.20061 -0.005043 0.016959)
(0.2212 -0.003538 0.013081)
(0.23687 -0.0021243 0.0083889)
(0.24653 -0.0013189 0.0047623)
(-3.0632e-06 -6.9356e-07 1.0064e-06)
(-1.2499e-07 -1.9567e-06 2.6629e-06)
(4.8713e-06 -2.9196e-06 3.37e-06)
(1.0485e-05 -3.452e-06 3.2631e-06)
(1.5841e-05 -3.6842e-06 2.7303e-06)
(2.0462e-05 -3.626e-06 2.2925e-06)
(2.4246e-05 -3.3069e-06 1.9261e-06)
(2.7367e-05 -2.8125e-06 2.193e-06)
(2.9979e-05 -2.2012e-06 2.8688e-06)
(3.2783e-05 -1.681e-06 4.4086e-06)
(3.6825e-05 -1.5125e-06 7.0197e-06)
(4.3124e-05 -1.3876e-06 1.0039e-05)
(5.2297e-05 -1.1135e-06 1.3188e-05)
(6.4247e-05 -9.5088e-07 1.609e-05)
(7.9039e-05 -1.2191e-06 1.8771e-05)
(9.7644e-05 -1.9065e-06 2.2499e-05)
(0.00012176 -3.0592e-06 2.7115e-05)
(0.00015182 -4.4828e-06 3.0923e-05)
(0.00018637 -5.5929e-06 3.3844e-05)
(0.00022423 -7.4115e-06 3.9069e-05)
(0.00027097 -1.1824e-05 5.4425e-05)
(0.00034114 -1.9499e-05 8.4532e-05)
(0.00045107 -2.8446e-05 0.00012649)
(0.00060692 -3.7071e-05 0.00017278)
(0.00080901 -4.7378e-05 0.00022727)
(0.0010758 -6.7108e-05 0.0003181)
(0.0014638 -0.00010275 0.00047379)
(0.0020499 -0.00015037 0.00069205)
(0.0028861 -0.00019894 0.00094361)
(0.0039845 -0.00024783 0.0012187)
(0.0053776 -0.00031781 0.0015849)
(0.0072188 -0.00044302 0.0021771)
(0.0098267 -0.00064157 0.0031068)
(0.013586 -0.00088739 0.0043468)
(0.018767 -0.0011309 0.0057609)
(0.025458 -0.0013649 0.0072617)
(0.03373 -0.0016562 0.0090125)
(0.043991 -0.0020963 0.011408)
(0.057153 -0.0027093 0.014769)
(0.074284 -0.0033614 0.018873)
(0.095921 -0.003779 0.022915)
(0.12149 -0.003694 0.025725)
(0.14918 -0.0030152 0.026373)
(0.17657 -0.0019027 0.024687)
(0.20153 -0.0007164 0.021162)
(0.22244 0.00011587 0.016314)
(0.23839 0.00035004 0.010465)
(0.24824 3.1835e-06 0.0059769)
(-3.0628e-06 -2.7564e-07 1.6747e-06)
(5.5003e-08 -8.1747e-07 4.4154e-06)
(5.2526e-06 -1.3551e-06 5.6751e-06)
(1.0972e-05 -1.7931e-06 5.572e-06)
(1.6314e-05 -2.0665e-06 4.8339e-06)
(2.082e-05 -2.2081e-06 4.1844e-06)
(2.4421e-05 -2.1766e-06 3.5822e-06)
(2.7327e-05 -1.9807e-06 3.5633e-06)
(2.9725e-05 -1.6795e-06 3.9321e-06)
(3.2283e-05 -1.2994e-06 5.3186e-06)
(3.6129e-05 -9.6262e-07 8.2671e-06)
(4.224e-05 -6.4169e-07 1.1948e-05)
(5.1382e-05 -2.929e-07 1.5698e-05)
(6.3549e-05 -1.8363e-07 1.8799e-05)
(7.8351e-05 -2.0643e-07 2.1726e-05)
(9.6747e-05 -3.0315e-07 2.6561e-05)
(0.00012098 -2.5912e-07 3.3976e-05)
(0.00015132 -3.1528e-07 4.0996e-05)
(0.00018569 -3.5374e-07 4.5779e-05)
(0.00022193 -3.8008e-07 5.3266e-05)
(0.00026529 -3.4674e-07 7.5476e-05)
(0.00033141 -3.5776e-07 0.00012018)
(0.00043854 -4.135e-07 0.0001824)
(0.00059262 -3.4069e-07 0.00024738)
(0.00078894 -2.4715e-07 0.00031789)
(0.001042 -8.162e-08 0.00043964)
(0.0014117 5.2816e-09 0.00066295)
(0.0019827 6.5192e-08 0.00098382)
(0.0028093 2.5906e-07 0.0013469)
(0.0038921 5.4229e-07 0.001725)
(0.0052425 6.9306e-07 0.0022175)
(0.0070049 8.2214e-07 0.0030425)
(0.009517 9.8989e-07 0.004388)
(0.013197 1.1778e-06 0.0062021)
(0.018333 1.3858e-06 0.0082345)
(0.024978 1.5399e-06 0.010319)
(0.033135 1.2142e-06 0.012711)
(0.043171 1.032e-06 0.01606)
(0.056078 5.5565e-07 0.020923)
(0.07308 -3.7077e-07 0.026964)
(0.094864 -1.4593e-06 0.032879)
(0.12091 -2.4072e-06 0.036798)
(0.14926 -3.3091e-06 0.037299)
(0.17732 -4.1152e-06 0.034246)
(0.20286 -4.3962e-06 0.028636)
(0.22429 -3.7884e-06 0.021585)
(0.24073 -2.5323e-06 0.013699)
(0.2509 -9.6497e-07 0.007921)
(-5.6066e-06 -1.8563e-06 -7.5946e-07)
(-2.4159e-06 -5.1788e-06 -2.1514e-06)
(3.043e-06 -7.2727e-06 -3.1009e-06)
(9.331e-06 -8.1751e-06 -3.521e-06)
(1.5519e-05 -8.1921e-06 -3.4938e-06)
(2.0992e-05 -7.6669e-06 -3.0649e-06)
(2.5613e-05 -6.7721e-06 -2.3348e-06)
(2.943e-05 -5.9576e-06 -1.4679e-06)
(3.2524e-05 -5.1819e-06 -3.6004e-07)
(3.5521e-05 -5.076e-06 7.4482e-07)
(3.9357e-05 -5.9918e-06 1.5502e-06)
(4.5044e-05 -7.5919e-06 2.1026e-06)
(5.343e-05 -9.7164e-06 2.3427e-06)
(6.4519e-05 -1.1838e-05 2.4463e-06)
(7.8424e-05 -1.4384e-05 2.0179e-06)
(9.6301e-05 -1.9109e-05 5.661e-07)
(0.00011978 -2.4756e-05 -1.7617e-06)
(0.00014922 -3.0273e-05 -4.342e-06)
(0.00018362 -3.5027e-05 -6.6779e-06)
(0.00022188 -4.1772e-05 -9.4298e-06)
(0.0002693 -5.8143e-05 -1.4406e-05)
(0.00034038 -8.8757e-05 -2.2228e-05)
(0.00045119 -0.00013027 -3.1148e-05)
(0.00060799 -0.00017614 -3.9549e-05)
(0.00081108 -0.00022966 -4.928e-05)
(0.0010785 -0.00031901 -6.8289e-05)
(0.0014665 -0.00047321 -0.00010286)
(0.0020523 -0.00069014 -0.00014937)
(0.0028878 -0.00094044 -0.00019713)
(0.0039855 -0.0012146 -0.00024554)
(0.0053778 -0.0015804 -0.00031514)
(0.0072184 -0.0021726 -0.0004405)
(0.0098258 -0.0031031 -0.00063948)
(0.013584 -0.0043442 -0.00088597)
(0.018765 -0.0057595 -0.0011304)
(0.025456 -0.0072622 -0.0013647)
(0.033729 -0.0090136 -0.0016567)
(0.04399 -0.01141 -0.0020979)
(0.057152 -0.014772 -0.002711)
(0.074283 -0.018876 -0.0033626)
(0.09592 -0.022918 -0.0037782)
(0.12149 -0.025728 -0.0036914)
(0.14917 -0.026374 -0.0030107)
(0.17657 -0.024688 -0.0018968)
(0.20152 -0.021163 -0.00070977)
(0.22243 -0.016316 0.00012256)
(0.23839 -0.010466 0.00035468)
(0.24824 -0.0059771 4.8553e-06)
(-4.7948e-06 -1.4638e-06 -3.5394e-07)
(-1.8563e-06 -4.1124e-06 -1.0386e-06)
(3.2206e-06 -5.8403e-06 -1.5671e-06)
(9.1433e-06 -6.7058e-06 -1.9039e-06)
(1.5014e-05 -6.8567e-06 -1.9685e-06)
(2.0286e-05 -6.5588e-06 -1.7846e-06)
(2.4821e-05 -5.873e-06 -1.3353e-06)
(2.8599e-05 -5.2125e-06 -7.7765e-07)
(3.1744e-05 -4.6343e-06 2.4836e-09)
(3.4962e-05 -4.5224e-06 9.024e-07)
(3.9056e-05 -5.2061e-06 1.7852e-06)
(4.5029e-05 -6.3976e-06 2.5026e-06)
(5.3617e-05 -8.1801e-06 2.9329e-06)
(6.4857e-05 -1.0015e-05 3.115e-06)
(7.9199e-05 -1.2367e-05 2.9367e-06)
(9.7522e-05 -1.587e-05 2.2817e-06)
(0.00012113 -2.0115e-05 1.4735e-06)
(0.00015057 -2.4227e-05 4.9992e-07)
(0.00018524 -2.8279e-05 -6.8988e-07)
(0.00022505 -3.4128e-05 -1.6837e-06)
(0.00027564 -4.7143e-05 -2.4828e-06)
(0.00035005 -7.0652e-05 -2.9884e-06)
(0.00046304 -0.00010277 -3.0971e-06)
(0.00062187 -0.00013945 -2.867e-06)
(0.00083116 -0.00018429 -2.2698e-06)
(0.0011121 -0.00025646 -1.3806e-06)
(0.0015172 -0.00037611 -3.1156e-07)
(0.0021167 -0.00054294 7.3429e-07)
(0.0029617 -0.00073962 1.6093e-06)
(0.0040774 -0.00096327 2.2391e-06)
(0.0055143 -0.001264 2.5695e-06)
(0.0074314 -0.0017361 2.628e-06)
(0.010127 -0.0024593 2.3085e-06)
(0.013955 -0.0034215 1.774e-06)
(0.01918 -0.0045378 1.0498e-06)
(0.025924 -0.0057527 2.2253e-07)
(0.034322 -0.007176 2.0208e-08)
(0.044797 -0.0090793 -4.3387e-07)
(0.058188 -0.011686 -4.5269e-07)
(0.075422 -0.014845 1.2608e-07)
(0.096928 -0.018002 9.9787e-07)
(0.12213 -0.020328 2.1166e-06)
(0.14935 -0.021127 3.2542e-06)
(0.17637 -0.020211 4.0873e-06)
(0.2011 -0.017799 4.3227e-06)
(0.22176 -0.014082 4.121e-06)
(0.2372 -0.0092199 3.0643e-06)
(0.24629 -0.0052621 1.144e-06)
(-3.9126e-06 -1.2208e-06 -1.0196e-07)
(-1.1381e-06 -3.4387e-06 -3.2845e-07)
(3.6782e-06 -4.9445e-06 -6.0306e-07)
(9.3493e-06 -5.7358e-06 -8.4473e-07)
(1.5027e-05 -5.9432e-06 -9.7037e-07)
(2.009e-05 -5.7674e-06 -9.7681e-07)
(2.4486e-05 -5.2001e-06 -6.7337e-07)
(2.8235e-05 -4.621e-06 -1.5885e-07)
(3.1392e-05 -4.0743e-06 5.5731e-07)
(3.4739e-05 -3.8706e-06 1.4669e-06)
(3.9024e-05 -4.2592e-06 2.5167e-06)
(4.518e-05 -5.1032e-06 3.4709e-06)
(5.3923e-05 -6.2763e-06 4.2814e-06)
(6.5368e-05 -7.756e-06 4.8411e-06)
(8.0025e-05 -9.6657e-06 5.0681e-06)
(9.8656e-05 -1.2325e-05 5.1072e-06)
(0.00012241 -1.5698e-05 5.1622e-06)
(0.00015191 -1.907e-05 4.9996e-06)
(0.00018683 -2.253e-05 4.6728e-06)
(0.00022766 -2.765e-05 4.9433e-06)
(0.00028023 -3.8456e-05 6.9317e-06)
(0.00035683 -5.7346e-05 1.1229e-05)
(0.00047136 -8.3162e-05 1.7521e-05)
(0.00063177 -0.00011272 2.4976e-05)
(0.0008453 -0.00014984 3.4715e-05)
(0.001135 -0.0002089 5.0455e-05)
(0.0015513 -0.00030509 7.5902e-05)
(0.0021602 -0.00043814 0.00011024)
(0.0030129 -0.00059586 0.00014968)
(0.0041419 -0.00077797 0.00019391)
(0.0056089 -0.0010243 0.00025377)
(0.0075761 -0.0014074 0.00034802)
(0.01033 -0.0019865 0.00049046)
(0.014206 -0.0027522 0.00067601)
(0.019463 -0.0036409 0.00088628)
(0.026246 -0.0046156 0.0011133)
(0.034726 -0.0057657 0.0013836)
(0.045338 -0.0072954 0.0017473)
(0.058871 -0.0093632 0.0022374)
(0.076165 -0.01184 0.0028095)
(0.097565 -0.014284 0.0033437)
(0.12248 -0.016055 0.0036868)
(0.1493 -0.016632 0.0037285)
(0.17592 -0.015869 0.0034623)
(0.2003 -0.013922 0.0029658)
(0.22069 -0.010951 0.0022999)
(0.23587 -0.0071131 0.0014987)
(0.24475 -0.0040146 0.00091023)
(-3.2711e-06 -1.0075e-06 1.0605e-07)
(-5.9292e-07 -2.8516e-06 2.4984e-07)
(4.0607e-06 -4.1549e-06 1.8295e-07)
(9.5492e-06 -4.8962e-06 -3.6089e-09)
(1.5059e-05 -5.1407e-06 -1.5044e-07)
(1.997e-05 -5.0072e-06 -2.1402e-07)
(2.4227e-05 -4.5988e-06 -6.2452e-08)
(2.7888e-05 -4.0805e-06 4.2749e-07)
(3.1027e-05 -3.5555e-06 1.1356e-06)
(3.4425e-05 -3.2642e-06 2.1451e-06)
(3.8821e-05 -3.4198e-06 3.4345e-06)
(4.5101e-05 -3.884e-06 4.7236e-06)
(5.3998e-05 -4.5913e-06 5.914e-06)
(6.5634e-05 -5.6519e-06 6.8311e-06)
(8.0486e-05 -7.0575e-06 7.5381e-06)
(9.9299e-05 -8.9882e-06 8.2996e-06)
(0.00012318 -1.147e-05 9.2292e-06)
(0.00015276 -1.4057e-05 9.902e-06)
(0.00018782 -1.674e-05 1.047e-05)
(0.00022915 -2.0734e-05 1.2015e-05)
(0.00028265 -2.903e-05 1.6666e-05)
(0.00036028 -4.327e-05 2.5637e-05)
(0.00047552 -6.2714e-05 3.8389e-05)
(0.00063671 -8.4889e-05 5.3402e-05)
(0.00085236 -0.0001131 7.2872e-05)
(0.0011463 -0.00015791 0.0001039)
(0.001568 -0.00023034 0.0001537)
(0.0021817 -0.00033003 0.00022156)
(0.0030385 -0.00044808 0.00030092)
(0.0041746 -0.0005849 0.00039181)
(0.0056568 -0.00077069 0.00051481)
(0.0076487 -0.001059 0.00070631)
(0.010432 -0.0014923 0.00099419)
(0.014332 -0.0020621 0.0013709)
(0.019606 -0.0027212 0.0018034)
(0.026409 -0.0034451 0.002276)
(0.034929 -0.0043026 0.0028368)
(0.045608 -0.0054422 0.0035852)
(0.059211 -0.0069713 0.0045887)
(0.076533 -0.0087826 0.005768)
(0.09788 -0.01054 0.0068916)
(0.12265 -0.011776 0.0076496)
(0.14928 -0.01212 0.0078087)
(0.1757 -0.011489 0.0073327)
(0.1999 -0.010018 0.0063351)
(0.22013 -0.0078404 0.0049239)
(0.23518 -0.0050789 0.0031826)
(0.24396 -0.0028906 0.0018483)
(-2.8609e-06 -8.0401e-07 3.0822e-07)
(-2.1698e-07 -2.2929e-06 8.0857e-07)
(4.3677e-06 -3.3884e-06 9.3887e-07)
(9.7452e-06 -4.0772e-06 7.9076e-07)
(1.5124e-05 -4.3632e-06 6.0344e-07)
(1.9901e-05 -4.3113e-06 4.5887e-07)
(2.4016e-05 -4.0182e-06 5.1542e-07)
(2.7563e-05 -3.5857e-06 9.6687e-07)
(3.0632e-05 -3.0938e-06 1.6851e-06)
(3.4009e-05 -2.7192e-06 2.8176e-06)
(3.8436e-05 -2.6829e-06 4.379e-06)
(4.4788e-05 -2.795e-06 6.0415e-06)
(5.3821e-05 -3.1166e-06 7.6675e-06)
(6.562e-05 -3.7067e-06 8.987e-06)
(8.0586e-05 -4.6066e-06 1.0205e-05)
(9.9473e-05 -5.8912e-06 1.1741e-05)
(0.00012345 -7.497e-06 1.3496e-05)
(0.00015312 -9.2721e-06 1.4992e-05)
(0.00018819 -1.1096e-05 1.6397e-05)
(0.00022948 -1.3798e-05 1.914e-05)
(0.0002829 -1.9378e-05 2.6359e-05)
(0.00036041 -2.891e-05 3.9925e-05)
(0.00047551 -4.1922e-05 5.9087e-05)
(0.00063654 -5.6604e-05 8.1582e-05)
(0.00085205 -7.5322e-05 0.00011065)
(0.0011459 -0.00010523 0.00015671)
(0.0015676 -0.00015379 0.00023056)
(0.0021814 -0.00022041 0.0003316)
(0.0030383 -0.00029871 0.00045073)
(0.0041745 -0.00038886 0.00058825)
(0.0056567 -0.00051152 0.00077429)
(0.0076487 -0.00070298 0.0010626)
(0.010432 -0.00099109 0.0014958)
(0.014332 -0.0013683 0.002065)
(0.019606 -0.0018015 0.0027233)
(0.026409 -0.0022749 0.0034462)
(0.034929 -0.0028363 0.0043029)
(0.045608 -0.0035851 0.0054421)
(0.059211 -0.0045891 0.0069708)
(0.076533 -0.0057688 0.0087818)
(0.097881 -0.0068929 0.010539)
(0.12265 -0.007651 0.011774)
(0.14928 -0.0078101 0.012118)
(0.1757 -0.007334 0.011488)
(0.1999 -0.0063363 0.010016)
(0.22013 -0.0049248 0.0078394)
(0.23518 -0.0031831 0.0050785)
(0.24396 -0.0018484 0.0028905)
(-2.6766e-06 -5.9685e-07 5.0804e-07)
(-7.2281e-09 -1.7235e-06 1.361e-06)
(4.6011e-06 -2.6238e-06 1.6956e-06)
(9.942e-06 -3.2518e-06 1.5748e-06)
(1.5229e-05 -3.5803e-06 1.318e-06)
(1.9892e-05 -3.627e-06 1.0869e-06)
(2.3857e-05 -3.4613e-06 1.0266e-06)
(2.726e-05 -3.0983e-06 1.4168e-06)
(3.0211e-05 -2.6599e-06 2.1571e-06)
(3.3494e-05 -2.2475e-06 3.4319e-06)
(3.7876e-05 -2.0615e-06 5.2925e-06)
(4.4244e-05 -1.8979e-06 7.342e-06)
(5.3388e-05 -1.8648e-06 9.4141e-06)
(6.532e-05 -2.0309e-06 1.1198e-05)
(8.0314e-05 -2.4724e-06 1.2985e-05)
(9.9179e-05 -3.0958e-06 1.5279e-05)
(0.00012322 -3.8503e-06 1.7879e-05)
(0.00015297 -4.7666e-06 2.0143e-05)
(0.00018794 -5.657e-06 2.2202e-05)
(0.00022864 -6.9718e-06 2.5971e-05)
(0.00028095 -9.7406e-06 3.5684e-05)
(0.00035722 -1.4472e-05 5.3889e-05)
(0.00047133 -2.0907e-05 7.9576e-05)
(0.00063126 -2.807e-05 0.00010937)
(0.00084441 -3.7154e-05 0.0001474)
(0.0011338 -5.194e-05 0.00020785)
(0.0015501 -7.6272e-05 0.00030552)
(0.0021592 -0.0001095 0.00043997)
(0.0030121 -0.00014788 0.0005988)
(0.0041414 -0.00019127 0.00078158)
(0.0056087 -0.00025065 0.0010281)
(0.0075762 -0.00034475 0.001411)
(0.010331 -0.00048741 0.0019897)
(0.014207 -0.00067338 0.0027548)
(0.019464 -0.00088426 0.0036426)
(0.026247 -0.0011121 0.004616)
(0.034726 -0.0013827 0.0057654)
(0.045338 -0.0017471 0.007295)
(0.058872 -0.0022379 0.0093625)
(0.076165 -0.0028104 0.011839)
(0.097565 -0.0033449 0.014282)
(0.12248 -0.003688 0.016054)
(0.1493 -0.0037294 0.01663)
(0.17592 -0.0034631 0.015868)
(0.2003 -0.0029665 0.013921)
(0.22068 -0.0023005 0.01095)
(0.23587 -0.0014992 0.0071127)
(0.24475 -0.00091033 0.0040145)
(-2.721e-06 -3.7831e-07 7.1812e-07)
(3.8491e-08 -1.1166e-06 1.9286e-06)
(4.766e-06 -1.8376e-06 2.4444e-06)
(1.0149e-05 -2.4153e-06 2.3452e-06)
(1.5387e-05 -2.7987e-06 1.9961e-06)
(1.9957e-05 -2.9743e-06 1.6809e-06)
(2.3763e-05 -2.9076e-06 1.5018e-06)
(2.6988e-05 -2.6342e-06 1.8484e-06)
(2.9776e-05 -2.2048e-06 2.6162e-06)
(3.2893e-05 -1.7141e-06 4.0714e-06)
(3.7162e-05 -1.2606e-06 6.3207e-06)
(4.3496e-05 -7.7849e-07 8.8197e-06)
(5.2708e-05 -2.9772e-07 1.1391e-05)
(6.4736e-05 -1.1088e-07 1.37e-05)
(7.9685e-05 -1.1678e-07 1.5994e-05)
(9.8422e-05 -1.6514e-07 1.8938e-05)
(0.0001225 -1.5767e-07 2.2363e-05)
(0.00015237 -2.9928e-07 2.5237e-05)
(0.00018711 -3.9228e-07 2.771e-05)
(0.00022667 -3.8182e-07 3.2156e-05)
(0.00027678 -3.6831e-07 4.4121e-05)
(0.0003506 -3.3487e-07 6.6989e-05)
(0.00046295 -4.1987e-07 9.914e-05)
(0.00062107 -3.3279e-07 0.00013604)
(0.00082968 -2.5624e-07 0.00018185)
(0.0011102 -1.4195e-07 0.00025552)
(0.0015153 -6.6247e-08 0.00037672)
(0.0021149 6.8006e-08 0.00054494)
(0.0029604 3.362e-07 0.00074276)
(0.0040766 6.5339e-07 0.00096718)
(0.0055141 8.6733e-07 0.0012679)
(0.0074315 1.0791e-06 0.0017399)
(0.010128 1.2848e-06 0.0024625)
(0.013956 1.479e-06 0.0034239)
(0.019181 1.7179e-06 0.004539)
(0.025925 1.8652e-06 0.0057521)
(0.034323 1.3742e-06 0.0071751)
(0.044798 9.4974e-07 0.0090783)
(0.058188 3.1234e-07 0.011685)
(0.075422 -8.8578e-07 0.014844)
(0.096928 -2.3791e-06 0.018001)
(0.12213 -3.5252e-06 0.020327)
(0.14935 -4.4203e-06 0.021126)
(0.17637 -5.0682e-06 0.02021)
(0.2011 -5.0202e-06 0.017798)
(0.22176 -4.3467e-06 0.014081)
(0.2372 -3.0708e-06 0.0092198)
(0.24629 -1.2029e-06 0.0052623)
(-2.6201e-06 -1.0078e-08 1.0699e-06)
(3.1547e-07 -1.3041e-07 2.8542e-06)
(5.2719e-06 -4.828e-07 3.6816e-06)
(1.0775e-05 -1.0319e-06 3.6426e-06)
(1.6011e-05 -1.4753e-06 3.2034e-06)
(2.0492e-05 -1.8427e-06 2.7945e-06)
(2.4126e-05 -2.0493e-06 2.4415e-06)
(2.7137e-05 -2.0175e-06 2.6982e-06)
(2.9689e-05 -1.8543e-06 3.3604e-06)
(3.2517e-05 -1.4655e-06 4.8362e-06)
(3.6586e-05 -7.3784e-07 7.413e-06)
(4.2845e-05 1.0718e-07 1.0341e-05)
(5.213e-05 6.998e-07 1.3492e-05)
(6.4289e-05 9.8416e-07 1.6351e-05)
(7.9163e-05 1.3339e-06 1.9069e-05)
(9.7687e-05 2.0109e-06 2.2807e-05)
(0.00012178 3.2661e-06 2.7417e-05)
(0.00015185 4.5576e-06 3.1327e-05)
(0.0001863 5.421e-06 3.4236e-05)
(0.00022413 7.0766e-06 3.9444e-05)
(0.00027091 1.1245e-05 5.4648e-05)
(0.00034116 1.8761e-05 8.4519e-05)
(0.00045105 2.7541e-05 0.00012646)
(0.00060684 3.6251e-05 0.0001727)
(0.00080894 4.67e-05 0.00022718)
(0.0010758 6.6582e-05 0.00031796)
(0.0014637 0.00010236 0.00047358)
(0.0020498 0.00015027 0.00069184)
(0.0028858 0.00019919 0.00094329)
(0.0039844 0.00024849 0.0012183)
(0.0053775 0.00031893 0.0015844)
(0.0072187 0.0004447 0.0021767)
(0.0098266 0.00064386 0.0031065)
(0.013585 0.00089028 0.0043466)
(0.018767 0.0011343 0.0057609)
(0.025458 0.0013685 0.0072618)
(0.03373 0.0016593 0.0090128)
(0.043991 0.0020987 0.011408)
(0.057153 0.0027103 0.01477)
(0.074284 0.0033602 0.018874)
(0.09592 0.0037751 0.022915)
(0.12149 0.0036876 0.025726)
(0.14917 0.0030068 0.026372)
(0.17656 0.0018929 0.024686)
(0.20152 0.00070648 0.021161)
(0.22243 -0.00012466 0.016314)
(0.23839 -0.00035627 0.010465)
(0.24824 -5.6081e-06 0.005977)
(-5.0714e-06 -1.5485e-06 -8.6936e-07)
(-1.9947e-06 -4.3483e-06 -2.4482e-06)
(3.3076e-06 -6.1842e-06 -3.4642e-06)
(9.4698e-06 -7.0557e-06 -3.8602e-06)
(1.5581e-05 -7.1993e-06 -3.7733e-06)
(2.1028e-05 -6.8371e-06 -3.2711e-06)
(2.5671e-05 -6.0787e-06 -2.4434e-06)
(2.9536e-05 -5.3836e-06 -1.5318e-06)
(3.2728e-05 -4.7303e-06 -5.0945e-07)
(3.5881e-05 -4.5232e-06 3.5163e-07)
(3.9829e-05 -5.1299e-06 8.2181e-07)
(4.5592e-05 -6.1837e-06 9.1509e-07)
(5.3976e-05 -7.7943e-06 7.5121e-07)
(6.4997e-05 -9.3768e-06 2.487e-07)
(7.9016e-05 -1.1439e-05 -8.2192e-07)
(9.7023e-05 -1.5125e-05 -3.0212e-06)
(0.00012043 -1.9655e-05 -6.0749e-06)
(0.00014986 -2.4055e-05 -9.3233e-06)
(0.00018445 -2.8204e-05 -1.2104e-05)
(0.00022375 -3.4167e-05 -1.5701e-05)
(0.00027341 -4.7803e-05 -2.2491e-05)
(0.00034694 -7.2615e-05 -3.3768e-05)
(0.00045951 -0.00010592 -4.7996e-05)
(0.00061788 -0.00014332 -6.2959e-05)
(0.0008251 -0.00018819 -8.0534e-05)
(0.0011014 -0.00026183 -0.00011087)
(0.0015009 -0.00038609 -0.00016348)
(0.0020963 -0.00055954 -0.00023644)
(0.0029387 -0.00076143 -0.00031895)
(0.0040485 -0.00098688 -0.00040827)
(0.0054699 -0.00129 -0.00052987)
(0.0073612 -0.0017733 -0.00073051)
(0.010029 -0.0025215 -0.0010441)
(0.013837 -0.0035152 -0.0014532)
(0.01905 -0.0046538 -0.0019043)
(0.025775 -0.0058761 -0.0023731)
(0.034127 -0.0073091 -0.0029277)
(0.044529 -0.00925 -0.0036971)
(0.057846 -0.011932 -0.0047602)
(0.075049 -0.015174 -0.0059976)
(0.096582 -0.018348 -0.0070888)
(0.12184 -0.020552 -0.0076414)
(0.14909 -0.021066 -0.0074096)
(0.17603 -0.019751 -0.0064411)
(0.2006 -0.01696 -0.005035)
(0.22119 -0.013082 -0.0035309)
(0.23687 -0.0083895 -0.0021197)
(0.24653 -0.0047625 -0.0013172)
(-4.3051e-06 -1.2318e-06 -5.7709e-07)
(-1.4758e-06 -3.4854e-06 -1.6478e-06)
(3.4448e-06 -5.0112e-06 -2.3785e-06)
(9.2464e-06 -5.8341e-06 -2.7465e-06)
(1.5052e-05 -6.0596e-06 -2.7307e-06)
(2.028e-05 -5.8901e-06 -2.3858e-06)
(2.4807e-05 -5.3001e-06 -1.793e-06)
(2.8643e-05 -4.736e-06 -1.0678e-06)
(3.1891e-05 -4.1944e-06 -2.0763e-07)
(3.5255e-05 -3.9506e-06 6.4475e-07)
(3.9472e-05 -4.3179e-06 1.2902e-06)
(4.5506e-05 -5.0915e-06 1.6535e-06)
(5.409e-05 -6.2973e-06 1.6787e-06)
(6.5324e-05 -7.6705e-06 1.3935e-06)
(7.9751e-05 -9.5533e-06 6.3425e-07)
(9.8192e-05 -1.2225e-05 -6.817e-07)
(0.00012183 -1.558e-05 -2.4627e-06)
(0.00015126 -1.8952e-05 -4.4226e-06)
(0.00018618 -2.2439e-05 -6.3377e-06)
(0.00022711 -2.7559e-05 -8.5984e-06)
(0.00027987 -3.8384e-05 -1.2125e-05)
(0.00035667 -5.7328e-05 -1.7341e-05)
(0.00047141 -8.3139e-05 -2.3871e-05)
(0.00063203 -0.00011272 -3.0781e-05)
(0.00084575 -0.00014984 -3.9285e-05)
(0.0011355 -0.00020888 -5.3236e-05)
(0.0015519 -0.00030501 -7.6564e-05)
(0.0021608 -0.00043806 -0.00010884)
(0.0030133 -0.00059579 -0.00014655)
(0.0041422 -0.0007779 -0.00018954)
(0.005609 -0.0010242 -0.00024876)
(0.007576 -0.0014073 -0.000343)
(0.01033 -0.0019864 -0.00048613)
(0.014206 -0.0027521 -0.00067276)
(0.019463 -0.0036409 -0.00088439)
(0.026246 -0.0046157 -0.0011129)
(0.034725 -0.0057656 -0.0013838)