# p  FACE_DATA 1536
#  x  y  z  p
-0.024478 -0.0049608 0.00048849 1.1228
-0.024478 -0.0047699 0.0014468 1.1269
-0.024478 -0.0043959 0.0023498 1.1285
-0.024478 -0.0038534 0.0031626 1.1294
-0.024478 -0.0031626 0.0038534 1.1294
-0.024478 -0.0023498 0.0043959 1.1285
-0.024478 -0.0014468 0.0047699 1.1269
-0.024478 -0.00048849 0.0049608 1.1228
-0.023435 -0.0049744 0.00048968 0.76178
-0.023435 -0.0047824 0.0014505 0.77131
-0.023435 -0.0044074 0.0023562 0.77511
-0.023435 -0.003864 0.0031715 0.77759
-0.023435 -0.0031715 0.003864 0.77758
-0.023435 -0.0023562 0.0044074 0.77507
-0.023435 -0.0014505 0.0047824 0.77126
-0.023435 -0.00048968 0.0049744 0.76173
-0.022392 -0.004977 0.00048995 0.45895
-0.022391 -0.0047851 0.0014513 0.4715
-0.022391 -0.00441 0.0023576 0.4766
-0.022392 -0.0038663 0.0031734 0.47994
-0.022392 -0.0031734 0.0038663 0.47992
-0.022391 -0.0023576 0.00441 0.47654
-0.022391 -0.0014513 0.0047851 0.47141
-0.022392 -0.00048995 0.004977 0.45884
-0.021349 -0.0049696 0.00048941 0.24191
-0.021349 -0.0047788 0.0014496 0.25461
-0.021349 -0.0044044 0.0023543 0.25978
-0.021349 -0.0038607 0.0031685 0.26307
-0.021349 -0.0031685 0.0038607 0.26305
-0.021349 -0.0023543 0.0044044 0.25971
-0.021349 -0.0014496 0.0047788 0.25448
-0.021349 -0.00048941 0.0049696 0.24173
-0.020308 -0.0049605 0.00048865 0.12898
-0.020308 -0.0047704 0.0014471 0.13794
-0.020308 -0.0043967 0.00235 0.14189
-0.020308 -0.0038537 0.0031625 0.14483
-0.020308 -0.0031625 0.0038537 0.14481
-0.020308 -0.00235 0.0043967 0.1418
-0.020308 -0.0014471 0.0047704 0.1378
-0.020308 -0.00048865 0.0049605 0.12878
-0.019269 -0.0049553 0.00048812 0.093195
-0.019269 -0.0047652 0.0014456 0.096578
-0.019269 -0.0043919 0.0023474 0.098681
-0.019269 -0.0038495 0.0031591 0.10134
-0.019269 -0.0031591 0.0038495 0.10131
-0.019269 -0.0023474 0.0043919 0.098589
-0.019269 -0.0014456 0.0047652 0.096428
-0.019269 -0.00048812 0.0049553 0.092993
-0.01823 -0.004954 0.0004879 0.081065
-0.018229 -0.0047637 0.001445 0.081631
-0.018229 -0.0043903 0.0023467 0.082228
-0.018229 -0.0038482 0.0031582 0.084223
-0.018229 -0.0031582 0.0038482 0.084193
-0.018229 -0.0023467 0.0043903 0.082136
-0.018229 -0.001445 0.0047637 0.081479
-0.01823 -0.0004879 0.004954 0.080856
-0.017188 -0.0049543 0.0004879 0.063079
-0.017188 -0.0047638 0.001445 0.064166
-0.017188 -0.0043903 0.0023467 0.064351
-0.017188 -0.0038483 0.0031583 0.065041
-0.017188 -0.0031583 0.0038483 0.065011
-0.017188 -0.0023467 0.0043903 0.06426
-0.017188 -0.001445 0.0047638 0.064011
-0.017188 -0.0004879 0.0049543 0.062866
-0.016146 -0.0049542 0.00048792 0.039633
-0.016146 -0.0047637 0.001445 0.041443
-0.016146 -0.0043902 0.0023467 0.041838
-0.016146 -0.0038482 0.0031582 0.041907
-0.016146 -0.0031582 0.0038482 0.041876
-0.016146 -0.0023467 0.0043902 0.041747
-0.016146 -0.001445 0.0047637 0.041291
-0.016146 -0.00048792 0.0049542 0.039422
-0.015104 -0.0049532 0.00048787 0.022091
-0.015104 -0.0047629 0.0014448 0.02377
-0.015104 -0.0043896 0.0023463 0.024306
-0.015104 -0.0038475 0.0031575 0.024316
-0.015104 -0.0031575 0.0038475 0.024286
-0.015104 -0.0023463 0.0043896 0.024213
-0.015104 -0.0014448 0.0047629 0.023618
-0.015104 -0.00048787 0.0049532 0.021887
-0.014063 -0.0049524 0.0004878 0.016852
-0.014063 -0.0047622 0.0014446 0.01755
-0.014063 -0.0043889 0.0023459 0.017947
-0.014063 -0.0038468 0.003157 0.01801
-0.014063 -0.003157 0.0038468 0.01798
-0.014063 -0.0023459 0.0043889 0.017855
-0.014063 -0.0014446 0.0047622 0.017401
-0.014063 -0.0004878 0.0049524 0.016652
-0.013021 -0.0049521 0.00048776 0.016705
-0.013021 -0.0047619 0.0014445 0.016801
-0.013021 -0.0043886 0.0023457 0.01691
-0.013021 -0.0038466 0.0031568 0.017
-0.013021 -0.0031568 0.0038466 0.016971
-0.013021 -0.0023457 0.0043886 0.016821
-0.013021 -0.0014445 0.0047619 0.016657
-0.013021 -0.00048776 0.0049521 0.016514
-0.024478 0.00048849 0.0049608 1.1228
-0.024478 0.0014468 0.0047699 1.1268
-0.024478 0.0023498 0.0043959 1.1284
-0.024478 0.0031626 0.0038534 1.1294
-0.024478 0.0038534 0.0031626 1.1294
-0.024478 0.0043959 0.0023498 1.1284
-0.024478 0.0047699 0.0014468 1.1268
-0.024478 0.0049608 0.00048849 1.1228
-0.023435 0.00048968 0.0049744 0.76172
-0.023435 0.0014505 0.0047824 0.77123
-0.023435 0.0023562 0.0044074 0.77502
-0.023435 0.0031715 0.003864 0.77751
-0.023435 0.003864 0.0031715 0.77751
-0.023435 0.0044074 0.0023562 0.775
-0.023435 0.0047824 0.0014505 0.7712
-0.023435 0.0049744 0.00048968 0.76168
-0.022392 0.00048995 0.004977 0.45882
-0.022391 0.0014513 0.0047851 0.47136
-0.022391 0.0023576 0.00441 0.47646
-0.022392 0.0031734 0.0038663 0.47981
-0.022392 0.0038663 0.0031734 0.4798
-0.022391 0.00441 0.0023576 0.47644
-0.022391 0.0047851 0.0014513 0.47132
-0.022392 0.004977 0.00048995 0.45877
-0.021349 0.00048941 0.0049696 0.24171
-0.021349 0.0014496 0.0047788 0.25442
-0.021349 0.0023543 0.0044044 0.2596
-0.021349 0.0031685 0.0038607 0.26291
-0.021349 0.0038607 0.0031685 0.2629
-0.021349 0.0044044 0.0023543 0.25958
-0.021349 0.0047788 0.0014496 0.25438
-0.021349 0.0049696 0.00048941 0.24166
-0.020308 0.00048865 0.0049605 0.12875
-0.020308 0.0014471 0.0047704 0.13773
-0.020308 0.00235 0.0043967 0.14169
-0.020308 0.0031625 0.0038537 0.14464
-0.020308 0.0038537 0.0031625 0.14463
-0.020308 0.0043967 0.00235 0.14165
-0.020308 0.0047704 0.0014471 0.13768
-0.020308 0.0049605 0.00048865 0.12869
-0.019269 0.00048812 0.0049553 0.092964
-0.019269 0.0014456 0.0047652 0.096346
-0.019269 0.0023474 0.0043919 0.098456
-0.019269 0.0031591 0.0038495 0.10112
-0.019269 0.0038495 0.0031591 0.10111
-0.019269 0.0043919 0.0023474 0.098412
-0.019269 0.0047652 0.0014456 0.096279
-0.019269 0.0049553 0.00048812 0.09288
-0.01823 0.0004879 0.004954 0.080825
-0.018229 0.001445 0.0047637 0.081389
-0.018229 0.0023467 0.0043903 0.081989
-0.018229 0.0031582 0.0038482 0.083993
-0.018229 0.0038482 0.0031582 0.083977
-0.018229 0.0043903 0.0023467 0.08194
-0.018229 0.0047637 0.001445 0.081311
-0.01823 0.004954 0.0004879 0.080727
-0.017188 0.0004879 0.0049543 0.062835
-0.017188 0.001445 0.0047638 0.063916
-0.017188 0.0023467 0.0043903 0.064102
-0.017188 0.0031583 0.0038483 0.064799
-0.017188 0.0038483 0.0031583 0.064782
-0.017188 0.0043903 0.0023467 0.064051
-0.017188 0.0047638 0.001445 0.063833
-0.017188 0.0049543 0.0004879 0.062728
-0.016146 0.00048792 0.0049542 0.039392
-0.016146 0.001445 0.0047637 0.041192
-0.016146 0.0023467 0.0043902 0.041586
-0.016146 0.0031582 0.0038482 0.04166
-0.016146 0.0038482 0.0031582 0.041643
-0.016146 0.0043902 0.0023467 0.041534
-0.016146 0.0047637 0.001445 0.041108
-0.016146 0.0049542 0.00048792 0.039281
-0.015104 0.00048787 0.0049532 0.021855
-0.015104 0.0014448 0.0047629 0.023522
-0.015104 0.0023463 0.0043896 0.024056
-0.015104 0.0031575 0.0038475 0.024073
-0.015104 0.0038475 0.0031575 0.024057
-0.015104 0.0043896 0.0023463 0.024007
-0.015104 0.0047629 0.0014448 0.023443
-0.015104 0.0049532 0.00048787 0.021749
-0.014063 0.0004878 0.0049524 0.016621
-0.014063 0.0014446 0.0047622 0.017308
-0.014063 0.0023459 0.0043889 0.017703
-0.014063 0.003157 0.0038468 0.017774
-0.014063 0.0038468 0.003157 0.01776
-0.014063 0.0043889 0.0023459 0.017659
-0.014063 0.0047622 0.0014446 0.017236
-0.014063 0.0049524 0.0004878 0.016523
-0.013021 0.00048776 0.0049521 0.016484
-0.013021 0.0014445 0.0047619 0.016569
-0.013021 0.0023457 0.0043886 0.016678
-0.013021 0.0031568 0.0038466 0.016778
-0.013021 0.0038466 0.0031568 0.016765
-0.013021 0.0043886 0.0023457 0.01664
-0.013021 0.0047619 0.0014445 0.016505
-0.013021 0.0049521 0.00048776 0.016396
-0.024478 0.0049608 -0.00048849 1.1228
-0.024478 0.0047699 -0.0014468 1.1268
-0.024478 0.0043959 -0.0023498 1.1284
-0.024478 0.0038534 -0.0031626 1.1294
-0.024478 0.0031626 -0.0038534 1.1294
-0.024478 0.0023498 -0.0043959 1.1285
-0.024478 0.0014468 -0.0047699 1.1269
-0.024478 0.00048849 -0.0049608 1.1228
-0.023435 0.0049744 -0.00048968 0.76168
-0.023435 0.0047824 -0.0014505 0.77122
-0.023435 0.0044074 -0.0023562 0.77503
-0.023435 0.003864 -0.0031715 0.77754
-0.023435 0.0031715 -0.003864 0.77755
-0.023435 0.0023562 -0.0044074 0.77506
-0.023435 0.0014505 -0.0047824 0.77127
-0.023435 0.00048968 -0.0049744 0.76175
-0.022392 0.004977 -0.00048995 0.45877
-0.022391 0.0047851 -0.0014513 0.47134
-0.022391 0.00441 -0.0023576 0.47647
-0.022392 0.0038663 -0.0031734 0.47985
-0.022392 0.0031734 -0.0038663 0.47987
-0.022391 0.0023576 -0.00441 0.47653
-0.022391 0.0014513 -0.0047851 0.47143
-0.022392 0.00048995 -0.004977 0.4589
-0.021349 0.0049696 -0.00048941 0.24167
-0.021349 0.0047788 -0.0014496 0.2544
-0.021349 0.0044044 -0.0023543 0.25962
-0.021349 0.0038607 -0.0031685 0.26296
-0.021349 0.0031685 -0.0038607 0.26299
-0.021349 0.0023543 -0.0044044 0.2597
-0.021349 0.0014496 -0.0047788 0.25454
-0.021349 0.00048941 -0.0049696 0.24185
-0.020308 0.0049605 -0.00048865 0.1287
-0.020308 0.0047704 -0.0014471 0.13771
-0.020308 0.0043967 -0.00235 0.14171
-0.020308 0.0038537 -0.0031625 0.14471
-0.020308 0.0031625 -0.0038537 0.14474
-0.020308 0.00235 -0.0043967 0.1418
-0.020308 0.0014471 -0.0047704 0.13787
-0.020308 0.00048865 -0.0049605 0.12891
-0.019269 0.0049553 -0.00048812 0.092893
-0.019269 0.0047652 -0.0014456 0.096318
-0.019269 0.0043919 -0.0023474 0.098473
-0.019269 0.0038495 -0.0031591 0.10119
-0.019269 0.0031591 -0.0038495 0.10122
-0.019269 0.0023474 -0.0043919 0.098576
-0.019269 0.0014456 -0.0047652 0.096487
-0.019269 0.00048812 -0.0049553 0.093121
-0.01823 0.004954 -0.0004879 0.08074
-0.018229 0.0047637 -0.001445 0.08135
-0.018229 0.0043903 -0.0023467 0.082002
-0.018229 0.0038482 -0.0031582 0.084059
-0.018229 0.0031582 -0.0038482 0.084094
-0.018229 0.0023467 -0.0043903 0.082108
-0.018229 0.001445 -0.0047637 0.081525
-0.01823 0.0004879 -0.004954 0.080974
-0.017188 0.0049543 -0.0004879 0.062741
-0.017188 0.0047638 -0.001445 0.063873
-0.017188 0.0043903 -0.0023467 0.064113
-0.017188 0.0038483 -0.0031583 0.064863
-0.017188 0.0031583 -0.0038483 0.064898
-0.017188 0.0023467 -0.0043903 0.064215
-0.017188 0.001445 -0.0047638 0.064041
-0.017188 0.0004879 -0.0049543 0.06297
-0.016146 0.0049542 -0.00048792 0.039295
-0.016146 0.0047637 -0.001445 0.041148
-0.016146 0.0043902 -0.0023467 0.041595
-0.016146 0.0038482 -0.0031582 0.041723
-0.016146 0.0031582 -0.0038482 0.041755
-0.016146 0.0023467 -0.0043902 0.041691
-0.016146 0.001445 -0.0047637 0.041305
-0.016146 0.00048792 -0.0049542 0.03951
-0.015104 0.0049532 -0.00048787 0.021761
-0.015104 0.0047629 -0.0014448 0.023479
-0.015104 0.0043896 -0.0023463 0.024065
-0.015104 0.0038475 -0.0031575 0.024134
-0.015104 0.0031575 -0.0038475 0.024165
-0.015104 0.0023463 -0.0043896 0.024157
-0.015104 0.0014448 -0.0047629 0.023628
-0.015104 0.00048787 -0.0049532 0.021963
-0.014063 0.0049524 -0.0004878 0.016534
-0.014063 0.0047622 -0.0014446 0.01727
-0.014063 0.0043889 -0.0023459 0.017715
-0.014063 0.0038468 -0.003157 0.017835
-0.014063 0.003157 -0.0038468 0.017864
-0.014063 0.0023459 -0.0043889 0.017803
-0.014063 0.0014446 -0.0047622 0.017413
-0.014063 0.0004878 -0.0049524 0.016728
-0.013021 0.0049521 -0.00048776 0.016407
-0.013021 0.0047619 -0.0014445 0.016538
-0.013021 0.0043886 -0.0023457 0.016693
-0.013021 0.0038466 -0.0031568 0.016837
-0.013021 0.0031568 -0.0038466 0.016865
-0.013021 0.0023457 -0.0043886 0.016777
-0.013021 0.0014445 -0.0047619 0.016675
-0.013021 0.00048776 -0.0049521 0.016593
-0.024478 -0.00048849 -0.0049608 1.1228
-0.024478 -0.0014468 -0.0047699 1.1269
-0.024478 -0.0023498 -0.0043959 1.1285
-0.024478 -0.0031626 -0.0038534 1.1294
-0.024478 -0.0038534 -0.0031626 1.1294
-0.024478 -0.0043959 -0.0023498 1.1285
-0.024478 -0.0047699 -0.0014468 1.1269
-0.024478 -0.0049608 -0.00048849 1.1228
-0.023435 -0.00048968 -0.0049744 0.76176
-0.023435 -0.0014505 -0.0047824 0.77131
-0.023435 -0.0023562 -0.0044074 0.77512
-0.023435 -0.0031715 -0.003864 0.77763
-0.023435 -0.003864 -0.0031715 0.77763
-0.023435 -0.0044074 -0.0023562 0.77513
-0.023435 -0.0047824 -0.0014505 0.77132
-0.023435 -0.0049744 -0.00048968 0.76179
-0.022392 -0.00048995 -0.004977 0.45892
-0.022391 -0.0014513 -0.0047851 0.47149
-0.022391 -0.0023576 -0.00441 0.47662
-0.022392 -0.0031734 -0.0038663 0.47999
-0.022392 -0.0038663 -0.0031734 0.47999
-0.022391 -0.00441 -0.0023576 0.47664
-0.022391 -0.0047851 -0.0014513 0.47152
-0.022392 -0.004977 -0.00048995 0.45896
-0.021349 -0.00048941 -0.0049696 0.24187
-0.021349 -0.0014496 -0.0047788 0.2546
-0.021349 -0.0023543 -0.0044044 0.2598
-0.021349 -0.0031685 -0.0038607 0.26313
-0.021349 -0.0038607 -0.0031685 0.26314
-0.021349 -0.0044044 -0.0023543 0.25983
-0.021349 -0.0047788 -0.0014496 0.25463
-0.021349 -0.0049696 -0.00048941 0.24192
-0.020308 -0.00048865 -0.0049605 0.12894
-0.020308 -0.0014471 -0.0047704 0.13794
-0.020308 -0.00235 -0.0043967 0.14192
-0.020308 -0.0031625 -0.0038537 0.1449
-0.020308 -0.0038537 -0.0031625 0.14491
-0.020308 -0.0043967 -0.00235 0.14194
-0.020308 -0.0047704 -0.0014471 0.13798
-0.020308 -0.0049605 -0.00048865 0.12899
-0.019269 -0.00048812 -0.0049553 0.09315
-0.019269 -0.0014456 -0.0047652 0.096571
-0.019269 -0.0023474 -0.0043919 0.098714
-0.019269 -0.0031591 -0.0038495 0.10141
-0.019269 -0.0038495 -0.0031591 0.10142
-0.019269 -0.0043919 -0.0023474 0.098744
-0.019269 -0.0047652 -0.0014456 0.096617
-0.019269 -0.0049553 -0.00048812 0.093208
-0.01823 -0.0004879 -0.004954 0.081007
-0.018229 -0.001445 -0.0047637 0.081621
-0.018229 -0.0023467 -0.0043903 0.082265
-0.018229 -0.0031582 -0.0038482 0.084305
-0.018229 -0.0038482 -0.0031582 0.084315
-0.018229 -0.0043903 -0.0023467 0.082296
-0.018229 -0.0047637 -0.001445 0.081674
-0.01823 -0.004954 -0.0004879 0.081079
-0.017188 -0.0004879 -0.0049543 0.063005
-0.017188 -0.001445 -0.0047638 0.064146
-0.017188 -0.0023467 -0.0043903 0.064384
-0.017188 -0.0031583 -0.0038483 0.065121
-0.017188 -0.0038483 -0.0031583 0.065132
-0.017188 -0.0043903 -0.0023467 0.064419
-0.017188 -0.0047638 -0.001445 0.064207
-0.017188 -0.0049543 -0.0004879 0.063092
-0.016146 -0.00048792 -0.0049542 0.039545
-0.016146 -0.001445 -0.0047637 0.041412
-0.016146 -0.0023467 -0.0043902 0.041862
-0.016146 -0.0031582 -0.0038482 0.04198
-0.016146 -0.0038482 -0.0031582 0.041993
-0.016146 -0.0043902 -0.0023467 0.041902
-0.016146 -0.0047637 -0.001445 0.041482
-0.016146 -0.0049542 -0.00048792 0.039645
-0.015104 -0.00048787 -0.0049532 0.021998
-0.015104 -0.0014448 -0.0047629 0.02373
-0.015104 -0.0023463 -0.0043896 0.024321
-0.015104 -0.0031575 -0.0038475 0.024383
-0.015104 -0.0038475 -0.0031575 0.024397
-0.015104 -0.0043896 -0.0023463 0.024365
-0.015104 -0.0047629 -0.0014448 0.023806
-0.015104 -0.0049532 -0.00048787 0.022103
-0.014063 -0.0004878 -0.0049524 0.01676
-0.014063 -0.0014446 -0.0047622 0.017509
-0.014063 -0.0023459 -0.0043889 0.017959
-0.014063 -0.003157 -0.0038468 0.018073
-0.014063 -0.0038468 -0.003157 0.018087
-0.014063 -0.0043889 -0.0023459 0.018003
-0.014063 -0.0047622 -0.0014446 0.017584
-0.014063 -0.0049524 -0.0004878 0.016863
-0.013021 -0.00048776 -0.0049521 0.016624
-0.013021 -0.0014445 -0.0047619 0.016765
-0.013021 -0.0023457 -0.0043886 0.016922
-0.013021 -0.0031568 -0.0038466 0.01706
-0.013021 -0.0038466 -0.0031568 0.017073
-0.013021 -0.0043886 -0.0023457 0.016963
-0.013021 -0.0047619 -0.0014445 0.016833
-0.013021 -0.0049521 -0.00048776 0.016716
-0.011979 -0.0049522 0.00048775 0.015938
-0.011979 -0.0047619 0.0014445 0.015917
-0.011979 -0.0043886 0.0023457 0.015874
-0.011979 -0.0038466 0.0031568 0.015858
-0.011979 -0.0031568 0.0038466 0.01583
-0.011979 -0.0023457 0.0043886 0.015789
-0.011979 -0.0014445 0.0047619 0.01578
-0.011979 -0.00048775 0.0049522 0.015758
-0.010938 -0.0049521 0.00048775 0.011941
-0.010938 -0.0047619 0.0014445 0.0122
-0.010938 -0.0043886 0.0023457 0.012168
-0.010938 -0.0038466 0.0031568 0.011981
-0.010938 -0.0031568 0.0038466 0.011955
-0.010938 -0.0023457 0.0043886 0.01209
-0.010938 -0.0014445 0.0047619 0.012073
-0.010938 -0.00048775 0.0049522 0.011772
-0.0098959 -0.0049521 0.00048774 0.0076166
-0.009896 -0.0047618 0.0014445 0.0079906
-0.009896 -0.0043885 0.0023457 0.0080202
-0.0098959 -0.0038465 0.0031568 0.0078073
-0.0098959 -0.0031568 0.0038465 0.0077839
-0.009896 -0.0023457 0.0043885 0.0079498
-0.009896 -0.0014445 0.0047618 0.0078755
-0.0098959 -0.00048774 0.0049521 0.0074626
-0.0088543 -0.004952 0.00048773 0.0054638
-0.0088543 -0.0047617 0.0014445 0.0056809
-0.0088543 -0.0043884 0.0023457 0.0057083
-0.0088543 -0.0038465 0.0031567 0.0055936
-0.0088543 -0.0031567 0.0038465 0.0055733
-0.0088543 -0.0023457 0.0043884 0.0056465
-0.0088543 -0.0014445 0.0047617 0.0055789
-0.0088543 -0.00048773 0.004952 0.0053269
-0.0078126 -0.004952 0.00048773 0.0044506
-0.0078126 -0.0047617 0.0014444 0.0045276
-0.0078126 -0.0043884 0.0023456 0.0045327
-0.0078126 -0.0038465 0.0031567 0.0044885
-0.0078126 -0.0031567 0.0038465 0.0044712
-0.0078126 -0.0023456 0.0043884 0.004481
-0.0078126 -0.0014444 0.0047617 0.0044416
-0.0078126 -0.00048773 0.004952 0.0043336
-0.0067709 -0.004952 0.00048773 0.00339
-0.0067709 -0.0047617 0.0014444 0.0034594
-0.0067709 -0.0043884 0.0023456 0.0034694
-0.0067709 -0.0038465 0.0031567 0.0034322
-0.0067709 -0.0031567 0.0038465 0.0034181
-0.0067709 -0.0023456 0.0043884 0.0034272
-0.0067709 -0.0014444 0.0047617 0.0033892
-0.0067709 -0.00048773 0.004952 0.0032943
-0.0057292 -0.004952 0.00048773 0.0024037
-0.0057292 -0.0047617 0.0014444 0.0024893
-0.0057292 -0.0043884 0.0023456 0.0025126
-0.0057292 -0.0038465 0.0031567 0.0024825
-0.0057292 -0.0031567 0.0038465 0.0024713
-0.0057292 -0.0023456 0.0043884 0.0024791
-0.0057292 -0.0014444 0.0047617 0.0024334
-0.0057292 -0.00048773 0.004952 0.0023278
-0.0046875 -0.004952 0.00048773 0.0019496
-0.0046875 -0.0047617 0.0014444 0.0020123
-0.0046875 -0.0043884 0.0023456 0.0020334
-0.0046875 -0.0038465 0.0031567 0.002022
-0.0046875 -0.0031567 0.0038465 0.0020133
-0.0046875 -0.0023456 0.0043884 0.0020072
-0.0046875 -0.0014444 0.0047617 0.001969
-0.0046875 -0.00048773 0.004952 0.0018905
-0.0036459 -0.004952 0.00048773 0.0019964
-0.0036459 -0.0047617 0.0014444 0.0020138
-0.0036459 -0.0043884 0.0023456 0.0020186
-0.0036459 -0.0038464 0.0031567 0.0020174
-0.0036459 -0.0031567 0.0038464 0.0020108
-0.0036459 -0.0023456 0.0043884 0.0019992
-0.0036459 -0.0014444 0.0047617 0.0019814
-0.0036459 -0.00048773 0.004952 0.0019509
-0.0026042 -0.004952 0.00048773 0.0021764
-0.0026042 -0.0047617 0.0014444 0.0021646
-0.0026042 -0.0043884 0.0023456 0.0021492
-0.0026042 -0.0038464 0.0031567 0.0021451
-0.0026042 -0.0031567 0.0038464 0.0021404
-0.0026042 -0.0023456 0.0043884 0.0021351
-0.0026042 -0.0014444 0.0047617 0.0021409
-0.0026042 -0.00048773 0.004952 0.002143
-0.0015625 -0.004952 0.00048773 0.0021336
-0.0015625 -0.0047617 0.0014444 0.0021108
-0.0015625 -0.0043884 0.0023456 0.0020849
-0.0015625 -0.0038464 0.0031567 0.0020742
-0.0015625 -0.0031567 0.0038464 0.0020708
-0.0015625 -0.0023456 0.0043884 0.0020747
-0.0015625 -0.0014444 0.0047617 0.0020939
-0.0015625 -0.00048773 0.004952 0.0021106
-0.00052084 -0.004952 0.00048773 0.0017291
-0.00052084 -0.0047617 0.0014444 0.0017109
-0.00052084 -0.0043884 0.0023456 0.001687
-0.00052084 -0.0038464 0.0031567 0.0016728
-0.00052084 -0.0031567 0.0038464 0.0016702
-0.00052084 -0.0023456 0.0043884 0.0016796
-0.00052084 -0.0014444 0.0047617 0.0016991
-0.00052084 -0.00048773 0.004952 0.0017137
-0.011979 0.00048775 0.0049522 0.015729
-0.011979 0.0014445 0.0047619 0.015699
-0.011979 0.0023457 0.0043886 0.015658
-0.011979 0.0031568 0.0038466 0.015652
-0.011979 0.0038466 0.0031568 0.015641
-0.011979 0.0043886 0.0023457 0.015625
-0.011979 0.0047619 0.0014445 0.015644
-0.011979 0.0049522 0.00048775 0.015653
-0.010938 0.00048775 0.0049522 0.011747
-0.010938 0.0014445 0.0047619 0.012001
-0.010938 0.0023457 0.0043886 0.011971
-0.010938 0.0031568 0.0038466 0.011795
-0.010938 0.0038466 0.0031568 0.011786
-0.010938 0.0043886 0.0023457 0.011944
-0.010938 0.0047619 0.0014445 0.011955
-0.010938 0.0049522 0.00048775 0.011683
-0.0098959 0.00048774 0.0049521 0.0074404
-0.009896 0.0014445 0.0047618 0.0078116
-0.009896 0.0023457 0.0043885 0.0078455
-0.0098959 0.0031568 0.0038465 0.007643
-0.0098959 0.0038465 0.0031568 0.0076356
-0.009896 0.0043885 0.0023457 0.0078232
-0.009896 0.0047618 0.0014445 0.0077746
-0.0098959 0.0049521 0.00048774 0.0073894
-0.0088543 0.00048773 0.004952 0.0053077
-0.0088543 0.0014445 0.0047617 0.0055241
-0.0088543 0.0023457 0.0043884 0.0055566
-0.0088543 0.0031567 0.0038465 0.0054516
-0.0088543 0.0038465 0.0031567 0.0054456
-0.0088543 0.0043884 0.0023457 0.0055387
-0.0088543 0.0047617 0.0014445 0.0054948
-0.0088543 0.004952 0.00048773 0.0052679
-0.0078126 0.00048773 0.004952 0.0043175
-0.0078126 0.0014444 0.0047617 0.004395
-0.0078126 0.0023456 0.0043884 0.0044052
-0.0078126 0.0031567 0.0038465 0.0043693
-0.0078126 0.0038465 0.0031567 0.0043642
-0.0078126 0.0043884 0.0023456 0.0043903
-0.0078126 0.0047617 0.0014444 0.0043712
-0.0078126 0.004952 0.00048773 0.0042854
-0.0067709 0.00048773 0.004952 0.0032811
-0.0067709 0.0014444 0.0047617 0.003351
-0.0067709 0.0023456 0.0043884 0.0033653
-0.0067709 0.0031567 0.0038465 0.0033348
-0.0067709 0.0038465 0.0031567 0.0033304
-0.0067709 0.0043884 0.0023456 0.0033524
-0.0067709 0.0047617 0.0014444 0.0033305
-0.0067709 0.004952 0.00048773 0.0032535
-0.0057292 0.00048773 0.004952 0.0023174
-0.0057292 0.0014444 0.0047617 0.0024036
-0.0057292 0.0023456 0.0043884 0.0024304
-0.0057292 0.0031567 0.0038465 0.0024054
-0.0057292 0.0038465 0.0031567 0.0024015
-0.0057292 0.0043884 0.0023456 0.0024188
-0.0057292 0.0047617 0.0014444 0.0023853
-0.0057292 0.004952 0.00048773 0.0022933
-0.0046875 0.00048773 0.004952 0.0018827
-0.0046875 0.0014444 0.0047617 0.0019465
-0.0046875 0.0023456 0.0043884 0.0019705
-0.0046875 0.0031567 0.0038465 0.0019631
-0.0046875 0.0038465 0.0031567 0.0019596
-0.0046875 0.0043884 0.0023456 0.0019603
-0.0046875 0.0047617 0.0014444 0.001931
-0.0046875 0.004952 0.00048773 0.0018627
-0.0036459 0.00048773 0.004952 0.0019457
-0.0036459 0.0014444 0.0047617 0.0019646
-0.0036459 0.0023456 0.0043884 0.0019717
-0.0036459 0.0031567 0.0038464 0.0019732
-0.0036459 0.0038464 0.0031567 0.0019704
-0.0036459 0.0043884 0.0023456 0.0019636
-0.0036459 0.0047617 0.0014444 0.0019522
-0.0036459 0.004952 0.00048773 0.0019302
-0.0026042 0.00048773 0.004952 0.0021394
-0.0026042 0.0014444 0.0047617 0.0021285
-0.0026042 0.0023456 0.0043884 0.0021146
-0.0026042 0.0031567 0.0038464 0.0021123
-0.0026042 0.0038464 0.0031567 0.0021103
-0.0026042 0.0043884 0.0023456 0.0021087
-0.0026042 0.0047617 0.0014444 0.0021195
-0.0026042 0.004952 0.00048773 0.002128
-0.0015625 0.00048773 0.004952 0.0021075
-0.0015625 0.0014444 0.0047617 0.002085
-0.0015625 0.0023456 0.0043884 0.0020595
-0.0015625 0.0031567 0.0038464 0.00205
-0.0015625 0.0038464 0.0031567 0.0020488
-0.0015625 0.0043884 0.0023456 0.0020558
-0.0015625 0.0047617 0.0014444 0.0020789
-0.0015625 0.004952 0.00048773 0.0020996
-0.00052084 0.00048773 0.004952 0.0017111
-0.00052084 0.0014444 0.0047617 0.0016924
-0.00052084 0.0023456 0.0043884 0.0016685
-0.00052084 0.0031567 0.0038464 0.0016554
-0.00052084 0.0038464 0.0031567 0.0016549
-0.00052084 0.0043884 0.0023456 0.0016667
-0.00052084 0.0047617 0.0014444 0.0016889
-0.00052084 0.004952 0.00048773 0.0017059
-0.011979 0.0049522 -0.00048775 0.015663
-0.011979 0.0047619 -0.0014445 0.015675
-0.011979 0.0043886 -0.0023457 0.015675
-0.011979 0.0038466 -0.0031568 0.01571
-0.011979 0.0031568 -0.0038466 0.015736
-0.011979 0.0023457 -0.0043886 0.015754
-0.011979 0.0014445 -0.0047619 0.015804
-0.011979 0.00048775 -0.0049522 0.015837
-0.010938 0.0049522 -0.00048775 0.011693
-0.010938 0.0047619 -0.0014445 0.011983
-0.010938 0.0043886 -0.0023457 0.011991
-0.010938 0.0038466 -0.0031568 0.01185
-0.010938 0.0031568 -0.0038466 0.011874
-0.010938 0.0023457 -0.0043886 0.012062
-0.010938 0.0014445 -0.0047619 0.0121
-0.010938 0.00048775 -0.0049521 0.011851
-0.0098959 0.0049521 -0.00048774 0.0073987
-0.009896 0.0047618 -0.0014445 0.0078017
-0.009896 0.0043885 -0.0023457 0.0078671
-0.0098959 0.0038465 -0.0031568 0.0076948
-0.0098959 0.0031568 -0.0038465 0.0077152
-0.009896 0.0023457 -0.0043885 0.0079285
-0.009896 0.0014445 -0.0047618 0.0079023
-0.0098959 0.00048774 -0.0049521 0.0075354
-0.0088543 0.004952 -0.00048773 0.0052766
-0.0088543 0.0047617 -0.0014445 0.0055195
-0.0088543 0.0043884 -0.0023457 0.0055784
-0.0088543 0.0038465 -0.0031567 0.0054988
-0.0088543 0.0031567 -0.0038465 0.0055162
-0.0088543 0.0023457 -0.0043884 0.0056302
-0.0088543 0.0014445 -0.0047617 0.0056045
-0.0088543 0.00048773 -0.004952 0.0053921
-0.0078126 0.004952 -0.00048773 0.0042928
-0.0078126 0.0047617 -0.0014444 0.0043933
-0.0078126 0.0043884 -0.0023456 0.004425
-0.0078126 0.0038465 -0.0031567 0.0044104
-0.0078126 0.0031567 -0.0038465 0.0044251
-0.0078126 0.0023456 -0.0043884 0.0044687
-0.0078126 0.0014444 -0.0047617 0.0044642
-0.0078126 0.00048773 -0.004952 0.0043901
-0.0067709 0.004952 -0.00048773 0.0032595
-0.0067709 0.0047617 -0.0014444 0.0033485
-0.0067709 0.0043884 -0.0023456 0.0033811
-0.0067709 0.0038465 -0.0031567 0.0033688
-0.0067709 0.0031567 -0.0038465 0.0033814
-0.0067709 0.0023456 -0.0043884 0.0034184
-0.0067709 0.0014444 -0.0047617 0.0034089
-0.0067709 0.00048773 -0.004952 0.0033417
-0.0057292 0.004952 -0.00048773 0.0022978
-0.0057292 0.0047617 -0.0014444 0.0023989
-0.0057292 0.0043884 -0.0023456 0.002441
-0.0057292 0.0038465 -0.0031567 0.0024317
-0.0057292 0.0031567 -0.0038465 0.0024425
-0.0057292 0.0023456 -0.0043884 0.0024731
-0.0057292 0.0014444 -0.0047617 0.0024504
-0.0057292 0.00048773 -0.004952 0.0023665
-0.0046875 0.004952 -0.00048773 0.0018655
-0.0046875 0.0047617 -0.0014444 0.0019404
-0.0046875 0.0043884 -0.0023456 0.0019764
-0.0046875 0.0038465 -0.0031567 0.0019821
-0.0046875 0.0031567 -0.0038465 0.0019914
-0.0046875 0.0023456 -0.0043884 0.0020037
-0.0046875 0.0014444 -0.0047617 0.0019832
-0.0046875 0.00048773 -0.004952 0.0019214
-0.0036459 0.004952 -0.00048773 0.0019316
-0.0036459 0.0047617 -0.0014444 0.0019586
-0.0036459 0.0043884 -0.0023456 0.0019753
-0.0036458 0.0038464 -0.0031567 0.0019873
-0.0036459 0.0031567 -0.0038464 0.0019949
-0.0036459 0.0023456 -0.0043884 0.0019973
-0.0036459 0.0014444 -0.0047617 0.0019929
-0.0036459 0.00048773 -0.004952 0.0019757
-0.0026042 0.004952 -0.00048773 0.0021288
-0.0026042 0.0047617 -0.0014444 0.0021241
-0.0026042 0.0043884 -0.0023456 0.0021178
-0.0026042 0.0038464 -0.0031567 0.0021237
-0.0026042 0.0031567 -0.0038464 0.0021295
-0.0026042 0.0023456 -0.0043884 0.0021346
-0.0026042 0.0014444 -0.0047617 0.0021503
-0.0026042 0.00048773 -0.004952 0.0021622
-0.0015625 0.004952 -0.00048773 0.0021004
-0.0015625 0.0047617 -0.0014444 0.0020825
-0.0015625 0.0043884 -0.0023456 0.0020631
-0.0015625 0.0038464 -0.0031567 0.0020596
-0.0015625 0.0031567 -0.0038464 0.0020637
-0.0015625 0.0023456 -0.0043884 0.0020751
-0.0015625 0.0014444 -0.0047617 0.0021016
-0.0015625 0.00048773 -0.004952 0.0021247
-0.00052084 0.004952 -0.00048773 0.0017071
-0.00052084 0.0047617 -0.0014444 0.0016921
-0.00052084 0.0043884 -0.0023456 0.0016726
-0.00052084 0.0038464 -0.0031567 0.0016632
-0.00052084 0.0031567 -0.0038464 0.0016659
-0.00052084 0.0023456 -0.0043884 0.0016804
-0.00052084 0.0014444 -0.0047617 0.001705
-0.00052084 0.00048773 -0.004952 0.0017239
-0.011979 -0.00048775 -0.0049522 0.015866
-0.011979 -0.0014445 -0.0047619 0.015885
-0.011979 -0.0023457 -0.0043886 0.015886
-0.011979 -0.0031568 -0.0038466 0.015914
-0.011979 -0.0038466 -0.0031568 0.015926
-0.011979 -0.0043886 -0.0023457 0.015923
-0.011979 -0.0047619 -0.0014445 0.015946
-0.011979 -0.0049522 -0.00048775 0.01595
-0.010938 -0.00048775 -0.0049521 0.011876
-0.010938 -0.0014445 -0.0047619 0.012173
-0.010938 -0.0023457 -0.0043886 0.012181
-0.010938 -0.0031568 -0.0038466 0.012034
-0.010938 -0.0038466 -0.0031568 0.012045
-0.010938 -0.0043886 -0.0023457 0.012215
-0.010938 -0.0047619 -0.0014445 0.012229
-0.010938 -0.0049521 -0.00048775 0.011952
-0.0098959 -0.00048774 -0.0049521 0.0075576
-0.009896 -0.0014445 -0.0047618 0.0079663
-0.009896 -0.0023457 -0.0043885 0.0080326
-0.0098959 -0.0031568 -0.0038465 0.0078559
-0.0098959 -0.0038465 -0.0031568 0.0078664
-0.009896 -0.0043885 -0.0023457 0.0080643
-0.009896 -0.0047618 -0.0014445 0.0080182
-0.0098959 -0.0049521 -0.00048774 0.0076265
-0.0088543 -0.00048773 -0.004952 0.005411
-0.0088543 -0.0014445 -0.0047617 0.0056592
-0.0088543 -0.0023457 -0.0043884 0.0057197
-0.0088543 -0.0031567 -0.0038465 0.0056373
-0.0088543 -0.0038465 -0.0031567 0.0056467
-0.0088543 -0.0043884 -0.0023457 0.0057485
-0.0088543 -0.0047617 -0.0014445 0.0057063
-0.0088543 -0.004952 -0.00048773 0.005473
-0.0078126 -0.00048773 -0.004952 0.0044058
-0.0078126 -0.0014444 -0.0047617 0.0045101
-0.0078126 -0.0023456 -0.0043884 0.0045439
-0.0078126 -0.0031567 -0.0038465 0.0045263
-0.0078126 -0.0038465 -0.0031567 0.0045343
-0.0078126 -0.0043884 -0.0023456 0.0045679
-0.0078126 -0.0047617 -0.0014444 0.0045501
-0.0078126 -0.004952 -0.00048773 0.0044583
-0.0067709 -0.00048773 -0.004952 0.0033544
-0.0067709 -0.0014444 -0.0047617 0.0034464
-0.0067709 -0.0023456 -0.0043884 0.0034795
-0.0067709 -0.0031567 -0.0038465 0.003464
-0.0067709 -0.0038465 -0.0031567 0.0034704
-0.0067709 -0.0043884 -0.0023456 0.0034986
-0.0067709 -0.0047617 -0.0014444 0.0034778
-0.0067709 -0.004952 -0.00048773 0.0033962
-0.0057292 -0.00048773 -0.004952 0.0023766
-0.0057292 -0.0014444 -0.0047617 0.0024799
-0.0057292 -0.0023456 -0.0043884 0.0025218
-0.0057292 -0.0031567 -0.0038465 0.0025089
-0.0057292 -0.0038465 -0.0031567 0.0025136
-0.0057292 -0.0043884 -0.0023456 0.002536
-0.0057292 -0.0047617 -0.0014444 0.0025038
-0.0057292 -0.004952 -0.00048773 0.0024086
-0.0046875 -0.00048773 -0.004952 0.0019294
-0.0046875 -0.0014444 -0.0047617 0.0020062
-0.0046875 -0.0023456 -0.0043884 0.0020415
-0.0046875 -0.0031567 -0.0038465 0.0020437
-0.0046875 -0.0038465 -0.0031567 0.002047
-0.0046875 -0.0043884 -0.0023456 0.0020519
-0.0046875 -0.0047617 -0.0014444 0.0020237
-0.0046875 -0.004952 -0.00048773 0.0019534
-0.0036459 -0.00048773 -0.004952 0.0019815
-0.0036459 -0.0014444 -0.0047617 0.0020106
-0.0036459 -0.0023456 -0.0043884 0.0020261
-0.0036458 -0.0031567 -0.0038464 0.0020347
-0.0036458 -0.0038464 -0.0031567 0.002037