/*--------------------------------*- C++ -*----------------------------------*\
  =========                 |
  \\      /  F ield         | OpenFOAM: The Open Source CFD Toolbox
   \\    /   O peration     | Website:  https://openfoam.org
    \\  /    A nd           | Version:  8
     \\/     M anipulation  |
\*---------------------------------------------------------------------------*/
FoamFile
{
    version     2.0;
    format      ascii;
    class       volVectorField;
    location    "0.0365000";
    object      cellDisplacement;
}
// * * * * * * * * * * * * * * * * * * * * * * * * * * * * * * * * * * * * * //

dimensions      [0 1 0 0 0 0 0];

internalField   nonuniform List<vector> 
900
(
(1.00155294120284e-28 -5.10469047397843e-07 -3.15500843233471e-14)
(9.85719594134847e-29 -5.12789793640848e-07 -2.95710804741409e-14)
(9.65738176407981e-29 -5.17099465222588e-07 -3.60359362333198e-15)
(9.54043954260558e-29 -5.22421163883629e-07 -3.69542943727023e-14)
(9.32299790608516e-29 -5.28326897548685e-07 4.95990336645605e-14)
(9.18004899688428e-29 -5.34833770006869e-07 1.33363720885971e-13)
(8.96955875834567e-29 -5.41977400773624e-07 7.72061331816534e-14)
(8.83204824805476e-29 -5.49649547790038e-07 2.73727033521625e-14)
(8.62888949019825e-29 -5.57732476357616e-07 5.93289860720463e-14)
(8.49508383183531e-29 -5.66303937677475e-07 5.09812341921816e-14)
(8.2984317179433e-29 -5.75353489494957e-07 -9.39578802500142e-15)
(8.16711659227023e-29 -5.84758667662643e-07 -9.18876066895694e-16)
(7.97588824986314e-29 -5.9451050879279e-07 4.72284279897667e-14)
(7.84704470094042e-29 -6.04679454806293e-07 -3.49028714251277e-14)
(7.6608199217929e-29 -6.15231865980295e-07 -7.82449924914764e-14)
(7.53366286976036e-29 -6.26080186191131e-07 1.15974236321293e-14)
(7.35219119481554e-29 -6.3729348525404e-07 6.90382032391071e-15)
(7.22666628588574e-29 -6.48898967831529e-07 -7.02164013400988e-14)
(7.04933641327275e-29 -6.60826703214094e-07 -6.47432278885919e-14)
(6.92526068384042e-29 -6.73059057652878e-07 4.38938228353238e-14)
(6.75236713809637e-29 -6.85692109674395e-07 2.70589762879144e-14)
(6.62958424560484e-29 -6.98720466236263e-07 8.41668217978414e-15)
(6.46053237668712e-29 -7.12056908338348e-07 -2.96139200354282e-15)
(6.33911450129417e-29 -7.25768910381478e-07 -1.9346393686942e-14)
(6.17408848445733e-29 -7.39919451050539e-07 6.71252135552658e-14)
(6.05391719042514e-29 -7.54462713652412e-07 1.30241756686596e-13)
(5.89290292239073e-29 -7.69356190157864e-07 6.78128686104816e-14)
(5.77430717384417e-29 -7.84727490501588e-07 -1.66274162785224e-15)
(5.61704385940929e-29 -8.00610563334841e-07 -1.02601197279514e-14)
(5.49966882757116e-29 -8.16912003234234e-07 -5.7426480754913e-15)
(5.34643109838806e-29 -8.33685256285289e-07 4.13483697323646e-15)
(5.23063382693317e-29 -8.51047673592238e-07 -1.17250380681285e-15)
(5.08105390192284e-29 -8.68982606286864e-07 -3.95017971443348e-14)
(4.96680606556495e-29 -8.87421840510582e-07 -3.89149238138034e-14)
(4.8213733553269e-29 -9.06546377550196e-07 -4.4249992368509e-14)
(4.7087588679788e-29 -9.2644364996227e-07 -5.13053832600948e-14)
(4.56716149153445e-29 -9.47012535187372e-07 2.95491065858586e-15)
(4.45648958182669e-29 -9.68313565939e-07 -6.85534631846038e-14)
(4.31895289231564e-29 -9.90603110886359e-07 -4.03752242808614e-14)
(4.21004410380436e-29 -1.01391519766272e-06 7.88400718244999e-14)
(4.07665779268103e-29 -1.03812668201772e-06 6.49460744476149e-14)
(3.97014218656836e-29 -1.06354189800332e-06 -6.1736272333076e-14)
(3.84087777618472e-29 -1.09042237598384e-06 -1.2226521031165e-13)
(3.7368658949703e-29 -1.11867766045143e-06 1.28262620983346e-14)
(3.61654711749881e-29 -1.14832616473303e-06 1.28424932284314e-14)
(3.55183754092129e-29 -1.17999798219733e-06 -3.20954700015432e-14)
(3.25200863357813e-29 -1.21390435651723e-06 -3.35308027475683e-14)
(3.32246222196569e-29 -1.24977376491452e-06 1.14680123090726e-14)
(2.99952093843843e-29 -1.28820643195485e-06 2.98541031094418e-14)
(3.10041733960857e-29 -1.32992448987212e-06 3.20808233344835e-14)
(2.80654063940291e-29 -1.3748719043186e-06 4.9710252125868e-14)
(2.89574588228165e-29 -1.42289651445496e-06 -2.30402721905232e-14)
(2.621567733598e-29 -1.47562332975808e-06 -8.00358847464655e-14)
(2.69922653005963e-29 -1.53374224304354e-06 -5.58382664975669e-14)
(2.4447193550006e-29 -1.59654409244363e-06 8.6410581734646e-14)
(2.51254110050411e-29 -1.66525728875372e-06 1.3030469208558e-13)
(2.27600101816187e-29 -1.74176354069428e-06 1.31744727229654e-13)
(2.33428262833243e-29 -1.8261680758642e-06 4.57007470086895e-14)
(2.11671425261439e-29 -1.91797998438708e-06 -4.61852369000256e-14)
(2.16632388790831e-29 -2.02084783980796e-06 -2.15986787096964e-14)
(1.96536582841252e-29 -2.13651637070907e-06 -6.77835678870399e-14)
(2.0080510922151e-29 -2.26342552035861e-06 -5.29842102242369e-14)
(1.82398624657795e-29 -2.4040396172238e-06 -7.61246616334917e-14)
(1.85868002823964e-29 -2.56311182436137e-06 -9.75728522980271e-14)
(1.69013899896311e-29 -2.74134187047354e-06 2.97376395728498e-14)
(1.72044363833037e-29 -2.93774331112043e-06 5.10022955328264e-14)
(1.56567623665239e-29 -3.16770103663762e-06 -8.51972279234713e-16)
(1.58957267818554e-29 -3.44538419880631e-06 -1.87947536897909e-14)
(1.44981410314675e-29 -3.7709319004429e-06 1.3364715029389e-14)
(1.46966189945466e-29 -4.1557325357607e-06 7.45224988120736e-14)
(1.34211035520086e-29 -4.6146062368996e-06 1.43267231233222e-14)
(1.36414661904335e-29 -5.13700737078514e-06 -1.47492679726636e-13)
(1.25885883481314e-29 -5.70712232057099e-06 -1.20788909696859e-13)
(1.28248820584607e-29 -6.33062849992514e-06 3.88579976640557e-14)
(1.19082433487013e-29 -6.99681841237328e-06 -3.9934784304175e-14)
(1.21560446908268e-29 -7.68514649989853e-06 -3.42462970854603e-14)
(1.12317196431167e-29 -8.38941417537023e-06 2.13226189263382e-16)
(1.13343104355962e-29 -9.09518401704156e-06 -2.43172785938833e-14)
(1.03201342622935e-29 -9.78669960890094e-06 1.06868726922824e-13)
(1.01956710905149e-29 -1.04553721225118e-05 8.39210790182046e-14)
(9.06538071971541e-30 -1.10748706852617e-05 -3.46206023992905e-14)
(8.65950664624377e-30 -1.16286972525457e-05 -1.50553232345776e-14)
(7.33680810400701e-30 -1.2118873950614e-05 3.65510233089007e-14)
(6.73815072231162e-30 -1.25178885883759e-05 -3.97231138394529e-14)
(5.32183306887958e-30 -1.28031742555884e-05 -6.44225302438836e-14)
(4.49053785674886e-30 -1.29877853508961e-05 -5.75180706919131e-15)
(3.69950123266925e-30 -1.30786710339046e-05 1.05460304142576e-13)
(3.42242386885479e-30 -1.30768654956752e-05 1.49438615420219e-13)
(3.42485823715019e-30 -1.30093936790086e-05 4.44512199276493e-14)
(3.10720168492932e-30 -1.29015474251449e-05 -3.80471779806859e-14)
(3.08457974915666e-30 -1.27577620855439e-05 -2.38942225317566e-14)
(2.77430294081328e-30 -1.25891022050843e-05 5.86673361858679e-14)
(2.73424853472068e-30 -1.24074594539802e-05 6.8500267047945e-14)
(2.44839927227949e-30 -1.22150752468573e-05 2.36479315321647e-14)
(2.41164354240972e-30 -1.20158886991924e-05 1.02072232341125e-14)
(2.15671002033672e-30 -1.18152548304829e-05 -5.41647232651838e-14)
(2.13397407898526e-30 -1.16171060430458e-05 -6.9200710465751e-16)
(1.91230211122212e-30 -1.14270925649655e-05 6.80647658373243e-14)
(1.90623921385563e-30 -1.12514971305858e-05 3.702254946856e-14)
(1.69681097931264e-30 -1.10986844008791e-05 4.6867572759202e-15)
(3.01256903241376e-28 -1.29662183996223e-06 -9.29983818550248e-14)
(2.96819840501469e-28 -1.2978940504725e-06 -8.72776807280496e-14)
(2.9049375328227e-28 -1.30100601758503e-06 -1.05566938487771e-14)
(2.86892681933635e-28 -1.30499832410129e-06 -1.09234241235146e-13)
(2.80070723271311e-28 -1.30949969957556e-06 1.45805989237008e-13)
(2.75803184124932e-28 -1.31452708578189e-06 3.93494432678192e-13)
(2.69158860424617e-28 -1.32011216550425e-06 2.28140308333162e-13)
(2.65029944097115e-28 -1.32616002032414e-06 8.07878900603439e-14)
(2.58594010330025e-28 -1.33256719838163e-06 1.75107294490422e-13)
(2.54563332718277e-28 -1.33940299669562e-06 1.50770637850895e-13)
(2.48315027677229e-28 -1.34665833525381e-06 -2.76422653427412e-14)
(2.44355127345576e-28 -1.35422544426729e-06 -2.90378399021817e-15)
(2.38270751931541e-28 -1.36209678222794e-06 1.39716871508902e-13)
(2.34381049533892e-28 -1.37033488122711e-06 -1.02803807819148e-13)
(2.28450759434205e-28 -1.37891008596968e-06 -2.31483088870561e-13)
(2.24614331438198e-28 -1.38774513217614e-06 3.4094765263262e-14)
(2.18833095185019e-28 -1.39690141213198e-06 2.06877547606263e-14)
(2.15048292061697e-28 -1.40640311500191e-06 -2.07506904491515e-13)
(2.09402447202141e-28 -1.41618835903618e-06 -1.9189664907779e-13)
(2.05666053416474e-28 -1.42624171443724e-06 1.29672886165354e-13)
(2.0016223435076e-28 -1.4366483249747e-06 8.01773156802622e-14)
(1.96470479708012e-28 -1.44740352972683e-06 2.49938234039617e-14)
(1.91095897869384e-28 -1.45842984153274e-06 -8.68687698905838e-15)
(1.87451012671641e-28 -1.46978741785624e-06 -5.75284087562006e-14)
(1.82209852620145e-28 -1.48153197105799e-06 1.98399148081497e-13)
(1.78609675506515e-28 -1.49362295338422e-06 3.85867318267706e-13)
(1.73501980151858e-28 -1.50602235292797e-06 2.0129168817001e-13)
(1.69953790941288e-28 -1.51884363084869e-06 -4.7356232651987e-15)
(1.64973812111287e-28 -1.53211679817993e-06 -3.04056934455823e-14)
(1.61470646937279e-28 -1.54575864879936e-06 -1.7066668316801e-14)
(1.56625005868654e-28 -1.55981664524902e-06 1.22537996542511e-14)
(1.53174838457284e-28 -1.57439504672699e-06 -3.34763711611969e-15)
(1.48455453956433e-28 -1.58947888173735e-06 -1.17092439164962e-13)
(1.45058591358195e-28 -1.60500678114963e-06 -1.15449980622146e-13)
(1.40476444602319e-28 -1.62113973081351e-06 -1.31286909618998e-13)
(1.37134998245135e-28 -1.63795537204788e-06 -1.52434486770139e-13)
(1.32683933863676e-28 -1.65536284214224e-06 8.85384310521392e-15)
(1.29405303531098e-28 -1.6734154034398e-06 -2.03480101759119e-13)
(1.25090109009744e-28 -1.69234096014079e-06 -1.20334487297589e-13)
(1.21871455180642e-28 -1.71216943357706e-06 2.3396152004304e-13)
(1.17694776560594e-28 -1.73278884129465e-06 1.93372481692598e-13)
(1.14549669643409e-28 -1.75447002679401e-06 -1.82992693248569e-13)
(1.10511622881423e-28 -1.77744532517313e-06 -3.63670249603551e-13)
(1.07445379056591e-28 -1.80163242268851e-06 3.7804519821175e-14)
(1.03703129842259e-28 -1.82704408530516e-06 3.83161913660254e-14)
(1.01637149724316e-28 -1.85424176866334e-06 -9.53471024057288e-14)
(9.30086475537526e-29 -1.88341295119236e-06 -9.98724642339827e-14)
(9.4583985437579e-29 -1.91430846952593e-06 3.39608799928966e-14)
(8.55879563134616e-29 -1.94746224302863e-06 8.87970672815128e-14)
(8.7928100327107e-29 -1.98351735938775e-06 9.54398820978653e-14)
(7.97021981970997e-29 -2.02242037799819e-06 1.48157991810018e-13)
(8.17464625416028e-29 -2.06402183680594e-06 -6.82726423596898e-14)
(7.40648000855364e-29 -2.10977332096974e-06 -2.38310416572452e-13)
(7.58215637083477e-29 -2.16029018334921e-06 -1.66801081076093e-13)
(6.86813651713576e-29 -2.21491861634885e-06 2.56992164351809e-13)
(7.01899036617613e-29 -2.27475065316204e-06 3.88234760794643e-13)
(6.35525048253169e-29 -2.34146608759252e-06 3.92956365920345e-13)
(6.48240996773768e-29 -2.41515137996596e-06 1.36738383144298e-13)
(5.87068614663151e-29 -2.49532961204214e-06 -1.37558742287408e-13)
(5.976502540221e-29 -2.5852634921627e-06 -6.43602656161967e-14)
(5.41158242028866e-29 -2.6865186282742e-06 -2.0213528113042e-13)
(5.50001190704483e-29 -2.79764669407561e-06 -1.58077848103432e-13)
(4.98202811785878e-29 -2.92083167730819e-06 -2.27085859664255e-13)
(5.05160586703447e-29 -3.06032137713738e-06 -2.91600512539197e-13)
(4.57710901376868e-29 -3.21672918233645e-06 8.83579441846117e-14)
(4.63536042041661e-29 -3.38901370435053e-06 1.52440339152491e-13)
(4.20080744969821e-29 -3.59082331806496e-06 -2.32984188552842e-15)
(4.24405653259864e-29 -3.83484743019928e-06 -5.62244961703485e-14)
(3.85073722469222e-29 -4.12097581366632e-06 3.96601573021129e-14)
(3.88493893250252e-29 -4.45923822586039e-06 2.22946672997504e-13)
(3.52822769248845e-29 -4.86290524115268e-06 4.37108081474066e-14)
(3.56494340688972e-29 -5.32272015414059e-06 -4.40618238426831e-13)
(3.26371889308625e-29 -5.82446196246356e-06 -3.62063599916952e-13)
(3.30702676161237e-29 -6.37309526679175e-06 1.15888723379557e-13)
(3.03804501304282e-29 -6.95955175075347e-06 -1.19099371919118e-13)
(3.08300163923079e-29 -7.56538962786196e-06 -1.02535669036635e-13)
(2.8223877451464e-29 -8.18510418078946e-06 5.95218642816319e-16)
(2.83258569012294e-29 -8.80614769549035e-06 -7.30462546465259e-14)
(2.55806462741882e-29 -9.41454897596799e-06 3.18642895699619e-13)
(2.52020431374237e-29 -1.00022157799822e-05 2.50878801103562e-13)
(2.2174081003391e-29 -1.05469208550308e-05 -1.02835408425167e-13)
(2.12604531015054e-29 -1.10338090687287e-05 -4.51020636660242e-14)
(1.78983584846279e-29 -1.14633783269219e-05 1.08839204388274e-13)
(1.63689745443216e-29 -1.18127211306827e-05 -1.17710950786454e-13)
(1.30068042122932e-29 -1.2063126323701e-05 -1.91445356044793e-13)
(1.10735409531038e-29 -1.22245094901668e-05 -1.75353399907815e-14)
(9.137037596115e-30 -1.23038661482445e-05 3.12690523059308e-13)
(8.46486186561305e-30 -1.23041083798796e-05 4.4416425927951e-13)
(8.52176373635765e-30 -1.22467405466914e-05 1.32529863053167e-13)
(7.75219770830026e-30 -1.21525599947194e-05 -1.13191554138535e-13)
(7.7202758499003e-30 -1.20270906109904e-05 -7.12540580652211e-14)
(6.9430487066225e-30 -1.18798402139749e-05 1.74833503762491e-13)
(6.87312713552774e-30 -1.17205320229067e-05 2.04290717261416e-13)
(6.15243344850051e-30 -1.15518000222011e-05 7.05662474797034e-14)
(6.07915883580742e-30 -1.13771534668695e-05 3.04885123728024e-14)
(5.44072272344695e-30 -1.12011214247483e-05 -1.61681575609452e-13)
(5.39240051949118e-30 -1.10273096935114e-05 -2.07632988821901e-15)
(4.83589402478489e-30 -1.08606787833782e-05 2.03361822172432e-13)
(4.83994529081829e-30 -1.07070178814484e-05 1.10678724157571e-13)
(4.28763630478888e-30 -1.05782716602251e-05 1.40021514078672e-14)
(4.71057846277091e-28 -2.06584528000684e-06 -1.53144465648981e-13)
(4.64194470807833e-28 -2.06629073813424e-06 -1.44054183681329e-13)
(4.54321276330511e-28 -2.06841471190782e-06 -1.71603817352208e-14)
(4.48368216761708e-28 -2.07129351475691e-06 -1.80729725321879e-13)
(4.37765443775954e-28 -2.07460997337497e-06 2.38612012717851e-13)
(4.30873877070829e-28 -2.07837824313992e-06 6.4841121533121e-13)
(4.20519616752362e-28 -2.08262537020185e-06 3.7690625269228e-13)
(4.13831010168235e-28 -2.08727024640352e-06 1.33123227182324e-13)
(4.03782336120374e-28 -2.0922243929125e-06 2.88507448990238e-13)
(3.97243075840806e-28 -2.09754712815651e-06 2.49284113304419e-13)
(3.87471299657176e-28 -2.10323066771835e-06 -4.52568012669942e-14)
(3.81045720020142e-28 -2.10918290363857e-06 -5.37259127269554e-15)
(3.71521026293105e-28 -2.11539735052663e-06 2.30984426309974e-13)
(3.65208140552162e-28 -2.12192767813659e-06 -1.68553977736921e-13)
(3.5591755359505e-28 -2.12874849827754e-06 -3.82529358507712e-13)
(3.49696278418943e-28 -2.13579382516477e-06 5.56994627934868e-14)
(3.40633940314477e-28 -2.14311621913422e-06 3.49598710327584e-14)
(3.34501670247483e-28 -2.15073658195355e-06 -3.42006178934263e-13)
(3.25650193272025e-28 -2.15860190874232e-06 -3.17870498618492e-13)
(3.19603750291546e-28 -2.16669915828495e-06 2.13519509825823e-13)
(3.10971806180901e-28 -2.17510135141647e-06 1.32669363695969e-13)
(3.05006076230366e-28 -2.18380468047943e-06 4.15037233440988e-14)
(2.96577829051374e-28 -2.19274276875829e-06 -1.41145800744573e-14)
(2.90696306773372e-28 -2.20196736954763e-06 -9.57276764279391e-14)
(2.82477372054627e-28 -2.2115263699437e-06 3.26611310853944e-13)
(2.76677847494073e-28 -2.22138517438381e-06 6.37703294384639e-13)
(2.68668690887139e-28 -2.23151125923502e-06 3.33649850213856e-13)
(2.62960489173649e-28 -2.2420022244433e-06 -7.30822269179917e-15)
(2.55154031951041e-28 -2.2528839591609e-06 -5.02423869745999e-14)
(2.49529184290031e-28 -2.26408527334318e-06 -2.83276476006745e-14)
(2.41934483031754e-28 -2.27564700948804e-06 2.02431025539573e-14)
(2.3640330881713e-28 -2.2876590052344e-06 -5.17984270315232e-15)
(2.2901030212821e-28 -2.30010855421564e-06 -1.93420698989068e-13)
(2.23574135003375e-28 -2.31294324247954e-06 -1.90922232360736e-13)
(2.16397172132589e-28 -2.32630157375643e-06 -2.17098086374662e-13)
(2.11059025925265e-28 -2.34025067290351e-06 -2.52598777365292e-13)
(2.04091134656763e-28 -2.35471265689766e-06 1.48866081478775e-14)
(1.9886104033058e-28 -2.36973367381123e-06 -3.36548555211906e-13)
(1.92108323551438e-28 -2.38551003478759e-06 -2.00257667903023e-13)
(1.869838032316e-28 -2.40206798488111e-06 3.8671220212e-13)
(1.80450503795894e-28 -2.41931155300577e-06 3.2118349548151e-13)
(1.75448607180939e-28 -2.43747424751568e-06 -3.01840192899883e-13)
(1.6913568447646e-28 -2.45675658668122e-06 -6.02915060918008e-13)
(1.64266123195474e-28 -2.47708838013294e-06 6.18427739660763e-14)
(1.58415049784151e-28 -2.49848119431622e-06 6.3788062707174e-14)
(1.54967280765022e-28 -2.52141909246149e-06 -1.5771098846798e-13)
(1.42044499153467e-28 -2.54606464190753e-06 -1.65793276762474e-13)
(1.43873220099825e-28 -2.57220405713847e-06 5.59091689893575e-14)
(1.30523723018318e-28 -2.60029811879995e-06 1.47068631201561e-13)
(1.33478906615636e-28 -2.63090215703135e-06 1.58089960411641e-13)
(1.21231941192406e-28 -2.6639716395477e-06 2.46015548255485e-13)
(1.23779864932992e-28 -2.69937882633691e-06 -1.12455398037519e-13)
(1.1233414548872e-28 -2.73837634791877e-06 -3.95074615918522e-13)
(1.14490316945567e-28 -2.78149714955603e-06 -2.77678814642314e-13)
(1.03840804744611e-28 -2.82817958145078e-06 4.25304882447551e-13)
(1.05656938269225e-28 -2.87936649280899e-06 6.43910955199696e-13)
(9.57527920678319e-29 -2.93650965209469e-06 6.52579129328947e-13)
(9.72485507932761e-29 -2.99968704972954e-06 2.27928210377675e-13)
(8.8108165101699e-29 -3.06848938084035e-06 -2.27992135063276e-13)
(8.93165336766741e-29 -3.14573393657578e-06 -1.06710372209228e-13)
(8.08737281953324e-29 -3.23277771165148e-06 -3.3545485697182e-13)
(8.18479862299619e-29 -3.32837461530764e-06 -2.624487714688e-13)
(7.40991692831193e-29 -3.43441108238764e-06 -3.76922797329518e-13)
(7.48268438713793e-29 -3.55455963114542e-06 -4.84977968210581e-13)
(6.77275475669286e-29 -3.6893583621944e-06 1.46004041296914e-13)
(6.83031781565726e-29 -3.83790860378104e-06 2.53507165656491e-13)
(6.18043543669435e-29 -4.01199712709307e-06 -3.49668710823854e-15)
(6.21915256595666e-29 -4.22260235586231e-06 -9.35612662123908e-14)
(5.63035477944188e-29 -4.46964245901959e-06 6.54230177067188e-14)
(5.6577447060039e-29 -4.76177734919028e-06 3.70913855535499e-13)
(5.12480468722134e-29 -5.1104918164938e-06 7.40026825083352e-14)
(5.15693287825503e-29 -5.50781478007567e-06 -7.32062699045865e-13)
(4.70227508188612e-29 -5.94143944406828e-06 -6.03432988775245e-13)
(4.74372673010786e-29 -6.41564187721385e-06 1.92287396075895e-13)
(4.33924729108598e-29 -6.922601659397e-06 -1.97582951856024e-13)
(4.38203268421938e-29 -7.44636441490984e-06 -1.70689393424976e-13)
(3.99307317214367e-29 -7.98215142830772e-06 9.3436481064086e-16)
(3.99358886082994e-29 -8.51911586625695e-06 -1.21939285344842e-13)
(3.58972646142671e-29 -9.04516200227975e-06 5.28497560191826e-13)
(3.52826250917118e-29 -9.55328405038162e-06 4.16948492658221e-13)
(3.09298886192684e-29 -1.00242832293579e-05 -1.69972609122692e-13)
(2.95885983299218e-29 -1.04452765151968e-05 -7.50962846127639e-14)
(2.48468199211141e-29 -1.08166428087538e-05 1.80265494940186e-13)
(2.27425095302559e-29 -1.11186290303539e-05 -1.94147920234051e-13)
(1.79834890356863e-29 -1.13350892964125e-05 -3.16510751201893e-13)
(1.53560689115553e-29 -1.14745479941664e-05 -2.95435677977134e-14)
(1.26760731593728e-29 -1.15432191069495e-05 5.15843261534897e-13)
(1.17524798754578e-29 -1.1543625521647e-05 7.34343288357638e-13)
(1.186719525455e-29 -1.14943257700297e-05 2.19698259735255e-13)
(1.07981272305559e-29 -1.14131575269004e-05 -1.87291506812624e-13)
(1.07764281609611e-29 -1.13049583508707e-05 -1.18190320380178e-13)
(9.70034257753349e-30 -1.11779356149254e-05 2.89707625902855e-13)
(9.62003737268707e-30 -1.10404440127718e-05 3.38756846154446e-13)
(8.6187947691158e-30 -1.08947874251159e-05 1.1708367709201e-13)
(8.53356525709918e-30 -1.07440060550495e-05 5.06377393434173e-14)
(7.64212883559437e-30 -1.05920037431928e-05 -2.68319918365747e-13)
(7.591483088302e-30 -1.04419030405519e-05 -3.49487510550202e-15)
(6.81607080110227e-30 -1.029800131712e-05 3.37764570497847e-13)
(6.83173455997334e-30 -1.01653808381523e-05 1.83963421678036e-13)
(6.13452693000587e-30 -1.00543710855925e-05 2.34965033457996e-14)
(6.03916198449973e-28 -2.81878777617662e-06 -2.12049932302404e-13)
(5.95402837059131e-28 -2.81862360471154e-06 -2.00137314892343e-13)
(5.83119701354926e-28 -2.81995872297952e-06 -2.32884514441936e-14)
(5.7483512112352e-28 -2.82192645940212e-06 -2.51938079028644e-13)
(5.61614514794813e-28 -2.8242614566617e-06 3.27196419736819e-13)
(5.52332121919695e-28 -2.82697507771385e-06 8.98339609957767e-13)
(5.3937887480847e-28 -2.83008997075083e-06 5.24147661945922e-13)
(5.30348685880611e-28 -2.83353851290478e-06 1.84406130499922e-13)
(5.17748005993514e-28 -2.83724667393465e-06 3.99537134385939e-13)
(5.08914008008928e-28 -2.84126401923385e-06 3.46989524706838e-13)
(4.96633934537549e-28 -2.84558414646891e-06 -6.20737627055404e-14)
(4.87958153743397e-28 -2.85013014248869e-06 -8.64851275873413e-15)
(4.75968108088265e-28 -2.85489646673249e-06 3.21390019974031e-13)
(4.67449327717198e-28 -2.8599281353084e-06 -2.3164149340098e-13)
(4.55735637023755e-28 -2.86520399999133e-06 -5.31825571087746e-13)
(4.47352233525777e-28 -2.87066894575051e-06 7.61271027031719e-14)
(4.35909863917067e-28 -2.87636688581824e-06 5.01659044094343e-14)
(4.27658544939962e-28 -2.88231552831208e-06 -4.73540634967172e-13)
(4.16469646377082e-28 -2.88847054270973e-06 -4.4332705015546e-13)
(4.0834799092286e-28 -2.89482107590898e-06 2.95192051271092e-13)
(3.97422560575416e-28 -2.90142830412519e-06 1.84709568373303e-13)
(3.89424766638438e-28 -2.90828927583613e-06 5.80739082066834e-14)
(3.78747024323642e-28 -2.91534840852091e-06 -1.912199286712e-14)
(3.70877482118561e-28 -2.92264912435973e-06 -1.34326497186691e-13)
(3.60454311824774e-28 -2.93023168343382e-06 4.5123118676793e-13)
(3.5271112593674e-28 -2.93806729159632e-06 8.85941679658028e-13)
(3.42543936719309e-28 -2.94612868447412e-06 4.65458144930854e-13)
(3.34936849565243e-28 -2.95449783526066e-06 -9.122879242167e-15)
(3.25019067203382e-28 -2.9631966506577e-06 -6.97686518453489e-14)
(3.175405913556e-28 -2.97216561284638e-06 -3.95867215220947e-14)
(3.07883057970835e-28 -2.98143896682094e-06 2.80966290185032e-14)
(3.00544116312847e-28 -2.99109234639043e-06 -6.49283579568086e-15)
(2.91136976480343e-28 -3.00111528821989e-06 -2.68401655204511e-13)
(2.83939798259545e-28 -3.01146397136171e-06 -2.65334655849767e-13)
(2.74799365352809e-28 -3.02225472997703e-06 -3.01663827824123e-13)
(2.67747298251536e-28 -3.03354433997196e-06 -3.52020625200406e-13)
(2.58867627890823e-28 -3.04526759163676e-06 2.11773210694509e-14)
(2.51971781541747e-28 -3.05746338934669e-06 -4.67700462385441e-13)
(2.43360062530739e-28 -3.07029690285776e-06 -2.80672028096395e-13)
(2.36618858688202e-28 -3.08379071937138e-06 5.36858731278589e-13)
(2.28281112016871e-28 -3.09786438219716e-06 4.48878412891676e-13)
(2.21712030976279e-28 -3.11271438037069e-06 -4.17771548175214e-13)
(2.13650893402804e-28 -3.12850985760737e-06 -8.40341065249598e-13)
(2.07266464731337e-28 -3.14519239669067e-06 8.4613456273843e-14)
(1.9980194620703e-28 -3.16277193622472e-06 8.94006295807649e-14)
(1.94971007869223e-28 -3.18165602017277e-06 -2.19085542820218e-13)
(1.79662549138802e-28 -3.20198255351757e-06 -2.31433397449185e-13)
(1.80659048726879e-28 -3.22357218044649e-06 7.71608956708047e-14)
(1.64914186385019e-28 -3.24681297457039e-06 2.04628768067086e-13)
(1.67315689276045e-28 -3.27217345868272e-06 2.1998337855273e-13)
(1.52819919059073e-28 -3.2996175758268e-06 3.43449093095841e-13)
(1.54813183231672e-28 -3.32903811932009e-06 -1.55295568635026e-13)
(1.41238313901966e-28 -3.36149059675369e-06 -5.50279343434076e-13)
(1.42841746610769e-28 -3.39742631347788e-06 -3.88868890872869e-13)
(1.30183845026264e-28 -3.43637366656491e-06 5.90982405596272e-13)
(1.31451877348287e-28 -3.47912703074873e-06 8.97245294310349e-13)
(1.19658141470879e-28 -3.52691205720911e-06 9.10794358348486e-13)
(1.20614087173594e-28 -3.57979761167282e-06 3.19613707936065e-13)
(1.09704216199507e-28 -3.63743947915981e-06 -3.17373700604999e-13)
(1.1038402792163e-28 -3.70221315947958e-06 -1.48592405231425e-13)
(1.00290251893262e-28 -3.77526827680123e-06 -4.67685312291309e-13)
(1.00750891703651e-28 -3.85555696057134e-06 -3.66061869555693e-13)
(9.14687055033485e-29 -3.94466927799703e-06 -5.25523309262421e-13)
(9.17001544053435e-29 -4.04570655470835e-06 -6.77823663911083e-13)
(8.31839321126437e-29 -4.1591299733824e-06 2.02458120399357e-13)
(8.32841675680015e-29 -4.28417838767652e-06 3.54174915172715e-13)
(7.54824097443782e-29 -4.43079036161305e-06 -4.26492994349882e-15)
(7.54177230166722e-29 -4.60824388111828e-06 -1.30780780303229e-13)
(6.83397578613974e-29 -4.81647917789892e-06 9.05184799127698e-14)
(6.81887252743112e-29 -5.06279578338053e-06 5.18122888461747e-13)
(6.17860190931416e-29 -5.35690193247794e-06 1.05394026265485e-13)
(6.17225377641995e-29 -5.69209644846097e-06 -1.02133544821217e-12)
(5.6232231206723e-29 -6.0579770940274e-06 -8.44667069903532e-13)
(5.6304159033888e-29 -6.45813991012747e-06 2.67901030526017e-13)
(5.14328587403966e-29 -6.88600173596496e-06 -2.75312927308107e-13)
(5.15441603817349e-29 -7.32808625737695e-06 -2.38735149517181e-13)
(4.68964709676532e-29 -7.78034534434979e-06 1.22702342758683e-15)
(4.65952183552147e-29 -8.23362593771082e-06 -1.71148374036388e-13)
(4.18225905053882e-29 -8.67770875600796e-06 7.36832794024527e-13)
(4.08852756359034e-29 -9.10668426797869e-06 5.82886079225817e-13)
(3.5810166512311e-29 -9.50435271934151e-06 -2.3633075279885e-13)
(3.4105228215133e-29 -9.85981860900529e-06 -1.05246551427718e-13)
(2.86375705175095e-29 -1.0173402228817e-05 2.51414195845098e-13)
(2.61543086564169e-29 -1.0428442917783e-05 -2.6977027508613e-13)
(2.06658651974529e-29 -1.0611290732994e-05 -4.40972537887218e-13)
(1.76411993575055e-29 -1.07291364364505e-05 -4.20188143619517e-14)
(1.45762048739086e-29 -1.07872508223566e-05 7.1747641817247e-13)
(1.35708298410803e-29 -1.0787639549049e-05 1.02291313537462e-12)
(1.3680165311793e-29 -1.0746127727507e-05 3.06648548104187e-13)
(1.25065903719429e-29 -1.06777449990094e-05 -2.60906619897793e-13)
(1.24526693379053e-29 -1.05865647377899e-05 -1.64998377313755e-13)
(1.12711416493613e-29 -1.04795033336642e-05 4.03922160286098e-13)
(1.11485714648976e-29 -1.03636014107657e-05 4.72611337412801e-13)
(1.00471069622792e-29 -1.02407996370175e-05 1.63427542975406e-13)
(9.92063188227209e-30 -1.01136607803039e-05 7.07461907513793e-14)
(8.93821237794393e-30 -9.98547680004373e-06 -3.74503808772749e-13)
(8.85336104217317e-30 -9.85888185193672e-06 -4.95111671997968e-15)
(8.00044962263505e-30 -9.73750396768323e-06 4.71642211748044e-13)
(7.99192780814515e-30 -9.62563113892317e-06 2.57008965343651e-13)
(7.25897281758663e-30 -9.53191395616158e-06 3.29718929760293e-14)
(6.94334134192555e-28 -3.55610578726768e-06 -2.69773568040816e-13)
(6.85322290458194e-28 -3.55554089714099e-06 -2.5576170722974e-13)
(6.71188151985267e-28 -3.55627177682112e-06 -2.8813438437155e-14)
(6.61419188623907e-28 -3.55751612157541e-06 -3.23328165561276e-13)
(6.46222863501133e-28 -3.55905842582807e-06 4.1075292369666e-13)
(6.35485408595325e-28 -3.56090732821545e-06 1.14348347287218e-12)
(6.20564895980502e-28 -3.56308125591436e-06 6.7049734915258e-13)
(6.10094436379019e-28 -3.56552572704808e-06 2.34673094360796e-13)
(5.95555761106269e-28 -3.5681807403666e-06 5.08199349011126e-13)
(5.85298652969369e-28 -3.5710863183249e-06 4.44342524942117e-13)
(5.711092690865e-28 -3.57423747147741e-06 -7.79209566732921e-14)
(5.61029498216433e-28 -3.57757205316704e-06 -1.30500939296279e-14)
(5.47160999950437e-28 -3.58108541676149e-06 4.11273822011106e-13)
(5.37257680004081e-28 -3.58481409243349e-06 -2.91557463845358e-13)
(5.23697257421063e-28 -3.58874111681749e-06 -6.79795950971002e-13)
(5.13950817391327e-28 -3.59282189567361e-06 9.50883099368628e-14)
(5.00694453479506e-28 -3.5970918900967e-06 6.67355323005505e-14)
(4.9110166032293e-28 -3.60156565559464e-06 -6.019292708287e-13)
(4.78132943297267e-28 -3.60620735326338e-06 -5.68911245187483e-13)
(4.68692855706833e-28 -3.61100816567497e-06 3.74446014737074e-13)
(4.56022204313319e-28 -3.616017680041e-06 2.36465568698468e-13)
(4.4672938134419e-28 -3.62123375538764e-06 7.48299463372619e-14)
(4.3434223837272e-28 -3.62661134602117e-06 -2.35828579341171e-14)
(4.25201820429133e-28 -3.63218562710202e-06 -1.73691670386111e-13)
(4.13105907835521e-28 -3.63798939069733e-06 5.71735825139295e-13)
(4.04117022814103e-28 -3.64399948126752e-06 1.13076388571684e-12)
(3.92314084059251e-28 -3.65019373383965e-06 5.97278575454667e-13)
(3.83486585957168e-28 -3.65663870462754e-06 -9.92088690913961e-15)
(3.71971576097043e-28 -3.66335240750574e-06 -8.89800500657214e-14)
(3.63299327312498e-28 -3.67028668983153e-06 -5.09040875117106e-14)
(3.52083350243889e-28 -3.67746926311967e-06 3.58058466981169e-14)
(3.43577644650921e-28 -3.68496172543168e-06 -7.1146806627944e-15)
(3.3265204635621e-28 -3.69275581344487e-06 -3.41951898398241e-13)
(3.24315895312836e-28 -3.7008160103242e-06 -3.38691546015044e-13)
(3.13697611673998e-28 -3.70923678525911e-06 -3.84964614658128e-13)
(3.05535188369673e-28 -3.71806465466742e-06 -4.50922219650493e-13)
(2.95219345449779e-28 -3.7272468244561e-06 2.784530699614e-14)
(2.8724218889965e-28 -3.73681489199573e-06 -5.96874985535413e-13)
(2.7723666920771e-28 -3.74690327704794e-06 -3.6209554714022e-13)
(2.69444521215373e-28 -3.75753086172359e-06 6.84164724925907e-13)
(2.59756289134081e-28 -3.76863233594877e-06 5.76945327962264e-13)
(2.5216661400988e-28 -3.78036748391172e-06 -5.30282415727951e-13)