/*--------------------------------*- C++ -*----------------------------------*\
| =========                 |                                                 |
| \\      /  F ield         | foam-extend: Open Source CFD                    |
|  \\    /   O peration     | Version:     4.1-20200408                       |
|   \\  /    A nd           | Web:         http://www.foam-extend.org         |
|    \\/     M anipulation  |                                                 |
\*---------------------------------------------------------------------------*/
FoamFile
{
    version     2.0;
    format      ascii;
    class       volScalarField;
    location    "0.0310000";
    object      J;
}
// * * * * * * * * * * * * * * * * * * * * * * * * * * * * * * * * * * * * * //

dimensions      [0 0 0 0 0 0 0];

internalField   nonuniform List<scalar> 
1952
(
0.998748
0.998784
0.998828
0.99889
0.998973
0.999076
0.999209
0.999378
0.999585
0.999867
1.0002
1.0007
1.00129
1.00212
1.00275
0.998736
0.998721
0.998757
0.998802
0.998864
0.998949
0.999054
0.999189
0.999359
0.999569
0.999852
1.00019
1.00069
1.00129
1.00211
1.00274
0.998709
0.998701
0.998737
0.998783
0.998846
0.998932
0.999038
0.999174
0.999346
0.999558
0.999843
1.00018
1.00069
1.00128
1.00211
1.00275
0.998689
0.998683
0.99872
0.998766
0.99883
0.998917
0.999023
0.999162
0.999334
0.999548
0.999834
1.00018
1.00068
1.00128
1.00211
1.00275
0.998672
0.998668
0.998704
0.998751
0.998816
0.998904
0.999011
0.99915
0.999324
0.999539
0.999827
1.00017
1.00068
1.00128
1.00211
1.00275
0.998656
0.998654
0.99869
0.998738
0.998803
0.998892
0.998999
0.99914
0.999315
0.999531
0.999821
1.00017
1.00068
1.00128
1.00212
1.00276
0.998642
0.998641
0.998677
0.998726
0.998791
0.998881
0.998989
0.999131
0.999307
0.999525
0.999816
1.00016
1.00068
1.00128
1.00212
1.00276
0.998628
0.998629
0.998665
0.998715
0.99878
0.998871
0.99898
0.999123
0.9993
0.999519
0.999811
1.00016
1.00068
1.00128
1.00212
1.00277
0.998616
0.998618
0.998655
0.998704
0.99877
0.998862
0.998971
0.999116
0.999293
0.999514
0.999807
1.00016
1.00067
1.00128
1.00213
1.00277
0.998605
0.998608
0.998645
0.998695
0.998761
0.998854
0.998964
0.999109
0.999288
0.99951
0.999804
1.00016
1.00068
1.00128
1.00213
1.00278
0.998595
0.998598
0.998636
0.998686
0.998753
0.998846
0.998957
0.999103
0.999283
0.999506
0.999801
1.00016
1.00068
1.00129
1.00213
1.00278
0.998586
0.998589
0.998627
0.998678
0.998745
0.998839
0.99895
0.999098
0.999278
0.999502
0.999798
1.00016
1.00068
1.00129
1.00214
1.00279
0.998577
0.998582
0.998619
0.998671
0.998738
0.998833
0.998945
0.999093
0.999274
0.999499
0.999797
1.00016
1.00068
1.00129
1.00214
1.00279
0.998569
0.998574
0.998612
0.998663
0.998731
0.998826
0.998939
0.999088
0.999269
0.999496
0.999794
1.00016
1.00068
1.00129
1.00214
1.0028
0.99856
0.998566
0.998604
0.998656
0.998725
0.99882
0.998933
0.999083
0.999265
0.999494
0.999792
1.00016
1.00068
1.00129
1.00215
1.0028
0.998553
0.998559
0.998598
0.99865
0.998719
0.998815
0.998928
0.999079
0.999262
0.999492
0.999791
1.00016
1.00068
1.0013
1.00215
1.00281
0.998546
0.998552
0.998591
0.998644
0.998713
0.99881
0.998924
0.999075
0.999258
0.999489
0.999789
1.00016
1.00068
1.0013
1.00216
1.00281
0.998539
0.998545
0.998584
0.998638
0.998707
0.998804
0.998919
0.999071
0.999255
0.999487
0.999788
1.00016
1.00068
1.0013
1.00216
1.00281
0.998532
0.998539
0.998578
0.998632
0.998701
0.998799
0.998914
0.999068
0.999252
0.999485
0.999787
1.00016
1.00068
1.0013
1.00216
1.00282
0.998525
0.998532
0.998571
0.998626
0.998695
0.998794
0.99891
0.999064
0.999249
0.999484
0.999786
1.00016
1.00069
1.00131
1.00217
1.00282
0.998518
0.998525
0.998565
0.998619
0.99869
0.998789
0.998905
0.999061
0.999246
0.999482
0.999785
1.00016
1.00069
1.00131
1.00217
1.00283
0.998511
0.998519
0.998558
0.998613
0.998684
0.998784
0.998901
0.999057
0.999244
0.99948
0.999785
1.00016
1.00069
1.00131
1.00218
1.00283
0.998504
0.998512
0.998552
0.998607
0.998678
0.998779
0.998897
0.999054
0.999241
0.999479
0.999785
1.00016
1.00069
1.00132
1.00218
1.00284
0.998497
0.998504
0.998545
0.998601
0.998672
0.998774
0.998892
0.99905
0.999238
0.999477
0.999784
1.00016
1.00069
1.00132
1.00219
1.00284
0.99849
0.998497
0.998537
0.998594
0.998666
0.998768
0.998887
0.999046
0.999235
0.999475
0.999784
1.00016
1.0007
1.00132
1.00219
1.00285
0.998482
0.998488
0.998529
0.998586
0.998659
0.998762
0.998882
0.999042
0.999232
0.999474
0.999784
1.00016
1.0007
1.00133
1.0022
1.00286
0.998473
0.998479
0.99852
0.998578
0.998651
0.998756
0.998876
0.999037
0.999229
0.999472
0.999783
1.00017
1.0007
1.00133
1.0022
1.00286
0.998464
0.998469
0.998511
0.998569
0.998643
0.998748
0.99887
0.999032
0.999225
0.99947
0.999783
1.00017
1.0007
1.00134
1.00221
1.00287
0.998454
0.998458
0.9985
0.998559
0.998633
0.99874
0.998862
0.999027
0.999221
0.999467
0.999782
1.00017
1.00071
1.00134
1.00222
1.00288
0.998442
0.998445
0.998487
0.998547
0.998622
0.99873
0.998854
0.99902
0.999216
0.999464
0.999781
1.00017
1.00071
1.00135
1.00223
1.00289
0.998429
0.99843
0.998473
0.998533
0.99861
0.998719
0.998844
0.999012
0.999209
0.99946
0.99978
1.00017
1.00071
1.00135
1.00224
1.0029
0.998414
0.998413
0.998457
0.998518
0.998595
0.998706
0.998833
0.999003
0.999202
0.999455
0.999777
1.00017
1.00072
1.00136
1.00225
1.00291
0.998397
0.998393
0.998437
0.9985
0.998578
0.998691
0.998819
0.998991
0.999193
0.999449
0.999775
1.00017
1.00072
1.00137
1.00226
1.00293
0.998377
0.99837
0.998415
0.998478
0.998558
0.998673
0.998802
0.998977
0.999182
0.999441
0.99977
1.00017
1.00072
1.00137
1.00227
1.00294
0.998353
0.998343
0.998388
0.998453
0.998534
0.998651
0.998782
0.998961
0.999168
0.999431
0.999764
1.00017
1.00072
1.00138
1.00228
1.00296
0.998326
0.998311
0.998357
0.998424
0.998506
0.998625
0.998759
0.99894
0.99915
0.999418
0.999755
1.00017
1.00072
1.00139
1.00229
1.00298
0.998294
0.998274
0.998321
0.998389
0.998472
0.998594
0.99873
0.998915
0.999128
0.999401
0.999742
1.00016
1.00072
1.00139
1.0023
1.00299
0.998257
0.998231
0.998278
0.998347
0.998432
0.998556
0.998694
0.998883
0.9991
0.999379
0.999724
1.00015
1.00072
1.0014
1.00231
1.00301
0.998213
0.998181
0.998228
0.998299
0.998385
0.998512
0.998653
0.998846
0.999066
0.99935
0.999701
1.00013
1.00071
1.0014
1.00232
1.00303
0.998163
0.998124
0.998171
0.998243
0.99833
0.998459
0.998602
0.998799
0.999023
0.999314
0.999671
1.00011
1.00069
1.0014
1.00233
1.00305
0.998105
0.998057
0.998104
0.998178
0.998266
0.998397
0.998542
0.998743
0.998971
0.999268
0.999631
1.00008
1.00067
1.00139
1.00233
1.00307
0.998038
0.997982
0.998029
0.998103
0.998192
0.998325
0.998471
0.998675
0.998906
0.99921
0.999579
1.00004
1.00064
1.00137
1.00233
1.00309
0.997963
0.997898
0.997943
0.998019
0.998107
0.99824
0.998388
0.998594
0.998828
0.999138
0.999512
0.99998
1.00059
1.00134
1.00232
1.0031
0.997878
0.997805
0.997849
0.997923
0.99801
0.998144
0.998291
0.998498
0.998734
0.999048
0.999427
0.999904
1.00053
1.0013
1.00229
1.0031
0.997785
0.997703
0.997745
0.997818
0.997903
0.998034
0.998179
0.998385
0.998621
0.998937
0.99932
0.999805
1.00044
1.00123
1.00225
1.00309
0.997684
0.997594
0.997633
0.997704
0.997784
0.997911
0.998053
0.998254
0.998487
0.998801
0.999185
0.999676
1.00032
1.00113
1.00218
1.00306
0.997576
0.997481
0.997516
0.997583
0.997657
0.997777
0.997911
0.998104
0.99833
0.998637
0.999017
0.999509
1.00016
1.00099
1.00207
1.00301
0.997464
0.997367
0.997398
0.997458
0.997524
0.997633
0.997756
0.997935
0.998148
0.998442
0.998809
0.999293
0.999941
1.00079
1.00189
1.00292
0.997352
0.997258
0.997282
0.997334
0.99739
0.997485
0.997592
0.997751
0.997944
0.998214
0.998559
0.99902
0.999649
1.00049
1.0016
1.00269
0.997245
0.997161
0.997178
0.997219
0.997261
0.997337
0.997424
0.997556
0.997721
0.997955
0.998264
0.99868
0.99926
1.00005
1.00108
1.00208
0.99715
0.997084
0.997092
0.997121
0.997146
0.9972
0.997261
0.997359
0.99749
0.997677
0.997937
0.99829
0.998803
0.99951
1.00043
1.0013
0.997076
0.997037
0.997036
0.997051
0.997057
0.997085
0.997116
0.997175
0.997262
0.997393
0.997594
0.997868
0.998301
0.998907
0.999707
1.00045
0.997033
0.997033
0.997022
0.997021
0.997006
0.997006
0.997003
0.997017
0.997057
0.997122
0.997255
0.997438
0.997779
0.998267
0.998942
0.99957
0.997033
0.997085
0.997063
0.997046
0.997008
0.996978
0.996939
0.996906
0.996892
0.996887
0.996945
0.997023
0.997264
0.99761
0.998151
0.998655
0.997088
0.997206
0.997173
0.99714
0.99708
0.99702
0.996944
0.996862
0.996793
0.996712
0.99669
0.996652
0.996783
0.996955
0.997355
0.997698
0.997213
0.99741
0.997366
0.997317
0.997234
0.997145
0.997032
0.996903
0.996778
0.996622
0.99652
0.996365
0.99638
0.996344
0.996579
0.996685
0.99742
0.997713
0.997661
0.9976
0.997499
0.997386
0.997244
0.997077
0.996903
0.996678
0.996491
0.996219
0.996097
0.995833
0.995856
0.995625
0.997726
0.998133
0.998071
0.997995
0.997874
0.997735
0.99756
0.997352
0.997125
0.996834
0.996562
0.99618
0.995917
0.995443
0.995227
0.994593
0.998149
0.998587
0.99851
0.998411
0.99826
0.998082
0.99786
0.997599
0.997309
0.996953
0.996603
0.996125
0.995741
0.995096
0.994674
0.993655
0.99861
0.998949
0.998856
0.998733
0.998552
0.998336
0.99807
0.997759
0.997412
0.996996
0.996578
0.996029
0.995556
0.994803
0.994256
0.993025
0.998978
0.99917
0.999066
0.998925
0.998722
0.998479
0.998181
0.997836
0.997449
0.996994
0.996529
0.995938
0.995408
0.994608
0.994003
0.992729
0.999204
0.999251
0.999142
0.998991
0.998776
0.998519
0.998202
0.997839
0.997428
0.996957
0.996466
0.995865
0.995313
0.994524
0.993916
0.992714
0.999289
0.99919
0.999081
0.99893
0.998714
0.998456
0.998136
0.997773
0.997357
0.996891
0.996397
0.995818
0.995273
0.994547
0.993981
0.992933
0.999229
0.998996
0.998892
0.998748
0.998542
0.998295
0.997986
0.997639
0.997236
0.996795
0.996319
0.995789
0.995282
0.994659
0.994175
0.99334
0.999034
0.998681
0.998586
0.998456
0.998266
0.998041
0.997755
0.997438
0.997064
0.996665
0.996228
0.99577
0.995325
0.994841
0.994471
0.99389
0.998716
0.998266
0.998181
0.998067
0.997897
0.997699
0.997444
0.997167
0.996835
0.996495
0.996113
0.995748
0.99539
0.995073
0.994846
0.994547
0.998298
0.997775
0.997698
0.997598
0.997449
0.997278
0.997056
0.996825
0.996543
0.996272
0.995962
0.995707
0.995462
0.995337
0.995278
0.995268
0.997803
0.997231
0.99716
0.997072
0.996938
0.996791
0.9966
0.996412
0.996183
0.995986
0.995761
0.995632
0.995523
0.995613
0.995741
0.996013
0.997258
0.996662
0.996593
0.996512
0.996392
0.996265
0.996102
0.995952
0.995769
0.995641
0.995503
0.995506
0.995552
0.995873
0.996196
0.996729
0.996689
0.996096
0.996029
0.995953
0.995843
0.995732
0.99559
0.995465
0.995306
0.99522
0.99516
0.995297
0.995518
0.996075
0.996585
0.997341
0.996123
0.995516
0.995447
0.995369
0.995259
0.99515
0.99502
0.994917
0.994814
0.994833
0.994921
0.99523
0.995616
0.996304
0.996889
0.997783
0.995542
0.994889
0.994843
0.994797
0.994733
0.994687
0.994651
0.99468
0.994756
0.99495
0.995196
0.995605
0.996031
0.996676
0.997204
0.998052
0.994908
0.99466
0.994668
0.994696
0.994734
0.994805
0.994903
0.995068
0.995272
0.995543
0.99583
0.996217
0.996592
0.997116
0.997565
0.998232
0.994658
0.995068
0.995099
0.995157
0.995236
0.99535
0.99549
0.995674
0.995869
0.996111
0.996372
0.996718
0.997065
0.997516
0.997926
0.998432
0.995057
0.995611
0.995641
0.995694
0.995766
0.995867
0.995991
0.996156
0.996342
0.996577
0.996827
0.99714
0.997454
0.997844
0.998216
0.998656
0.9956
0.996042
0.996078
0.996134
0.996213
0.996317
0.996442
0.9966
0.996776
0.99699
0.997218
0.997497
0.997777
0.998118
0.998442
0.998834
0.996029
0.996462
0.996498
0.996551
0.996625
0.996722
0.996839
0.996983
0.997145
0.997341
0.997548
0.997796
0.998045
0.998341
0.998623
0.998959
0.99645
0.99683
0.996866
0.996916
0.996988
0.997079
0.997189
0.997321
0.99747
0.997645
0.997831
0.99805
0.998268
0.998525
0.998767
0.999056
0.996818
0.997165
0.997199
0.997246
0.997313
0.997396
0.997496
0.997616
0.99775
0.997907
0.998072
0.998264
0.998454
0.998676
0.998884
0.99913
0.997154
0.997462
0.997495
0.997538
0.9976
0.997675
0.997766
0.997874
0.997994
0.998133
0.998278
0.998446
0.998611
0.998802
0.998979
0.999189
0.997452
0.997728
0.997759
0.997797
0.997854
0.997921
0.998003
0.998099
0.998206
0.998328
0.998455
0.998601
0.998744
0.998907
0.999058
0.999237
0.997719
0.997964
0.997992
0.998027
0.998078
0.998138
0.998211
0.998296
0.99839
0.998497
0.998608
0.998734
0.998857
0.998996
0.999125
0.999276
0.997956
0.998174
0.9982
0.99823
0.998276
0.998329
0.998394
0.998468
0.998551
0.998644
0.998741
0.998849
0.998955
0.999073
0.999182
0.999311
0.998166
0.998359
0.998383
0.998409
0.99845
0.998497
0.998554
0.998619
0.998691
0.998772
0.998856
0.998949
0.999039
0.99914
0.999233
0.999341
0.998353
0.998524
0.998545
0.998568
0.998604
0.998645
0.998696
0.998752
0.998815
0.998885
0.998957
0.999036
0.999114
0.999199
0.999278
0.99937
0.998518
0.99867
0.998689
0.998709
0.998741
0.998776
0.99882
0.998869
0.998924
0.998984
0.999046
0.999114
0.99918
0.999252
0.999319
0.999397
0.998665
0.9988
0.998816
0.998834
0.998862
0.998892
0.998931
0.998973
0.99902
0.999072
0.999125
0.999183
0.999239
0.999301
0.999357
0.999424
0.998795
0.998915
0.998929
0.998945
0.998969
0.998996
0.999029
0.999065
0.999106
0.99915
0.999196
0.999245
0.999293
0.999345
0.999393
0.99945
0.998911
0.999018
0.99903
0.999044
0.999065
0.999088
0.999117
0.999148
0.999183
0.999221
0.99926
0.999302
0.999342
0.999387
0.999427
0.999477
0.999014
0.999109
0.999121
0.999132
0.99915
0.99917
0.999195
0.999222
0.999252
0.999284
0.999318
0.999354
0.999388
0.999426
0.99946
0.999503
0.999107
0.999192
0.999202
0.999211
0.999227
0.999244
0.999266
0.999289
0.999315
0.999342
0.999371
0.999401
0.999431
0.999463
0.999492
0.99953
0.999189
0.999266
0.999275
0.999283
0.999297
0.999311
0.99933
0.99935
0.999372
0.999395
0.99942
0.999446
0.999471
0.999498
0.999524
0.999557
0.999264
0.999333
0.999341
0.999348
0.99936
0.999372
0.999388
0.999405
0.999424
0.999444
0.999465
0.999487
0.999509
0.999532
0.999554
0.999583
0.999331
0.999394
0.9994
0.999407
0.999417
0.999428
0.999441
0.999456
0.999472
0.99949
0.999508
0.999527
0.999545
0.999565
0.999584
0.99961
0.999392
0.999449
0.999455
0.99946
0.999469
0.999479
0.99949
0.999503
0.999517
0.999532
0.999547
0.999564
0.999579
0.999597
0.999614
0.999637
0.999448
0.9995
0.999505
0.99951
0.999517
0.999525
0.999536
0.999546
0.999559
0.999571
0.999585
0.999599
0.999612
0.999628
0.999643
0.999664
0.999499
0.999547
0.999551
0.999555
0.999562
0.999569
0.999578
0.999587
0.999597
0.999609
0.99962
0.999632
0.999644
0.999657
0.999671
0.99969
0.999546
0.99959
0.999594
0.999597
0.999603
0.999609
0.999617
0.999625
0.999634
0.999644
0.999654
0.999664
0.999675
0.999686
0.999699
0.999717
0.999589
0.99963
0.999633
0.999636
0.999641
0.999647
0.999653
0.99966
0.999668
0.999677
0.999686
0.999695
0.999704
0.999715
0.999726
0.999743
0.999629
0.999667
0.99967
0.999673
0.999677
0.999682
0.999688
0.999694
0.999701
0.999708
0.999716
0.999725
0.999733
0.999742
0.999752
0.999768
0.999666
0.999702
0.999704
0.999707
0.999711
0.999715
0.99972
0.999726
0.999732
0.999738
0.999745
0.999753
0.99976
0.999769
0.999778
0.999793
0.999701
0.999734
0.999737
0.999739
0.999742
0.999746
0.999751
0.999756
0.999761
0.999767
0.999773
0.99978
0.999787
0.999794
0.999803
0.999818
0.999734
0.999765
0.999767
0.999769
0.999772
0.999775
0.999779
0.999784
0.999789
0.999794
0.9998
0.999806
0.999812
0.999819
0.999828
0.999842
0.999764
0.999793
0.999795
0.999797
0.9998
0.999803
0.999807
0.999811
0.999815
0.99982
0.999826
0.999831
0.999837
0.999844
0.999852
0.999865
0.999793
0.99982
0.999822
0.999823
0.999826
0.999829
0.999833
0.999836
0.999841
0.999845
0.99985
0.999855
0.999861
0.999867
0.999875
0.999888
0.99982
0.999845
0.999847
0.999849
0.999851
0.999854
0.999857
0.999861
0.999865
0.999869
0.999874
0.999879
0.999884
0.99989
0.999898
0.999911
0.999845
0.999869
0.999871
0.999872
0.999875
0.999877
0.99988
0.999884
0.999888
0.999892
0.999896
0.999901
0.999906
0.999912
0.99992
0.999933
0.999869
0.999892
0.999893
0.999894
0.999897
0.999899
0.999902
0.999905
0.999909
0.999913
0.999918
0.999923
0.999928
0.999933
0.999941
0.999954
0.999891
0.999912
0.999914
0.999915
0.999917
0.99992
0.999923
0.999926
0.99993
0.999934
0.999938
0.999943
0.999948
0.999954
0.999962
0.999975
0.999912
0.999932
0.999933
0.999935
0.999937
0.999939
0.999942
0.999945
0.999949
0.999953
0.999958
0.999963
0.999968
0.999974
0.999982
0.999995
0.999932
0.99995
0.999951
0.999953
0.999955
0.999957
0.99996
0.999964
0.999967
0.999972
0.999976
0.999981
0.999987
0.999993
1
1.00001
0.99995
0.999967
0.999968
0.99997
0.999972
0.999974
0.999977
0.999981
0.999984
0.999989
0.999993
0.999999
1
1.00001
1.00002
1.00003
0.999967
0.999982
0.999984
0.999985
0.999987
0.99999
0.999993
0.999996
1
1
1.00001
1.00002
1.00002
1.00003
1.00004
1.00005
0.999982
0.999997
0.999998
0.999999
1
1
1.00001
1.00001
1.00001
1.00002
1.00002
1.00003
1.00004
1.00004
1.00005
1.00007
0.999996
1.00001
1.00001
1.00001
1.00001
1.00002
1.00002
1.00002
1.00003
1.00003
1.00004
1.00004
1.00005
1.00006
1.00007
1.00009
1.00001
1.00002
1.00002
1.00002
1.00003
1.00003
1.00003
1.00003
1.00004
1.00004
1.00005
1.00006
1.00006
1.00007
1.00008
1.0001
1.00002
1.00003
1.00003
1.00003
1.00004
1.00004
1.00004
1.00004
1.00005
1.00005
1.00006
1.00007
1.00007
1.00008
1.0001
1.00012
1.00003
1.00004
1.00004
1.00004
1.00004
1.00005
1.00005
1.00005
1.00006
1.00006
1.00007
1.00008
1.00008
1.00009
1.00011
1.00013
1.00004
1.00005
1.00005
1.00005
1.00005
1.00005
1.00006
1.00006
1.00006
1.00007
1.00007
1.00008
1.00009
1.0001
1.00012
1.00014
1.00005
1.00005
1.00005
1.00005
1.00006
1.00006
1.00006
1.00006
1.00007
1.00007
1.00008
1.00009
1.00009
1.0001
1.00012
1.00015
1.00005
1.00006
1.00006
1.00006
1.00006
1.00006
1.00007
1.00007
1.00007
1.00008
1.00008
1.00009
1.00009
1.0001
1.00011
1.00013
1.00006
1.00006
1.00006
1.00006
1.00006
1.00006
1.00007
1.00007
1.00007
1.00008
1.00008
1.00009
1.00009
1.0001
1.0001
1.00012
1.00006
)
;

boundaryField
{
    wireUpstream
    {
        type            calculated;
        value           nonuniform List<scalar> 
16
(
1.00006
1.00006
1.00006
1.00007
1.00007
1.00007
1.00007
1.00007
1.00008
1.00008
1.00008
1.00009
1.00009
1.0001
1.0001
1.00006
)
;
    }
    wireDownstream
    {
        type            calculated;
        value           nonuniform List<scalar> 
16
(
0.998747
0.998783
0.998827
0.998889
0.998972
0.999076
0.999208
0.999378
0.999584
0.999867
1.0002
1.0007
1.00129
1.00212
1.00277
0.998735
)
;
    }
    wireTopContact
    {
        type            calculated;
        value           nonuniform List<scalar> 
122
(
1.00278
1.00278
1.00278
1.00279
1.00279
1.0028
1.0028
1.00281
1.00281
1.00282
1.00282
1.00283
1.00283
1.00284
1.00284
1.00285
1.00285
1.00286
1.00286
1.00287
1.00287
1.00288
1.00288
1.00289
1.00289
1.0029
1.00291
1.00292
1.00293
1.00294
1.00295
1.00297
1.00298
1.003
1.00302
1.00303
1.00305
1.00307
1.00309
1.00311
1.00312
1.00313
1.00313
1.00312
1.00309
1.00303
1.00293
1.00271
1.00209
1.00128
1.00043
0.999537
0.998615
0.997669
0.99669
0.995669
0.99466
0.993708
0.993086
0.992805
0.992792
0.993006
0.993404
0.993944
0.994589
0.995294
0.996015
0.996696
0.99727
0.997685
0.997959
0.998202
0.998441
0.998658
0.998833
0.998961
0.99906
0.999135
0.999195
0.999243
0.999283
0.999317
0.999348
0.999376
0.999403
0.999429
0.999455
0.999481
0.999507
0.999534
0.99956
0.999587
0.999613
0.99964
0.999666
0.999693
0.999719
0.999745
0.99977
0.999795
0.999819
0.999843
0.999867
0.99989
0.999912
0.999934
0.999955
0.999976
0.999996
1.00002
1.00003
1.00005
1.00007
1.00009
1.0001
1.00012
1.00013
1.00014
1.00015
1.00013
1.00012
1.00279
)
;
    }
    front
    {
        type            wedge;
    }
    back
    {
        type            wedge;
    }
}


// ************************************************************************* //
