/*--------------------------------*- C++ -*----------------------------------*\
| =========                 |                                                 |
| \\      /  F ield         | foam-extend: Open Source CFD                    |
|  \\    /   O peration     | Version:     4.1-20200408                       |
|   \\  /    A nd           | Web:         http://www.foam-extend.org         |
|    \\/     M anipulation  |                                                 |
\*---------------------------------------------------------------------------*/
FoamFile
{
    version     2.0;
    format      ascii;
    class       volScalarField;
    location    "0.0310000";
    object      rho_0_0;
}
// * * * * * * * * * * * * * * * * * * * * * * * * * * * * * * * * * * * * * //

dimensions      [1 -3 0 0 0 0 0];

internalField   nonuniform List<scalar> 
1952
(
7843.08
7842.8
7842.44
7841.96
7841.29
7840.47
7839.4
7838.07
7836.42
7834.2
7831.54
7827.63
7823
7816.56
7811.61
7843.18
7843.22
7842.94
7842.58
7842.08
7841.4
7840.58
7839.5
7838.16
7836.5
7834.27
7831.59
7827.67
7823.02
7816.55
7811.59
7843.32
7843.35
7843.06
7842.69
7842.2
7841.51
7840.68
7839.59
7838.24
7836.57
7834.33
7831.63
7827.69
7823.02
7816.54
7811.56
7843.44
7843.46
7843.17
7842.8
7842.3
7841.61
7840.77
7839.67
7838.31
7836.63
7834.38
7831.67
7827.71
7823.02
7816.52
7811.53
7843.56
7843.56
7843.28
7842.9
7842.39
7841.7
7840.85
7839.75
7838.38
7836.68
7834.42
7831.7
7827.73
7823.02
7816.49
7811.49
7843.66
7843.66
7843.37
7842.99
7842.48
7841.77
7840.92
7839.81
7838.43
7836.73
7834.45
7831.72
7827.73
7823.01
7816.46
7811.45
7843.75
7843.74
7843.46
7843.07
7842.56
7841.85
7840.99
7839.87
7838.48
7836.77
7834.48
7831.74
7827.73
7823
7816.43
7811.41
7843.84
7843.82
7843.54
7843.15
7842.63
7841.91
7841.05
7839.92
7838.53
7836.8
7834.51
7831.75
7827.73
7822.98
7816.41
7811.37
7843.92
7843.9
7843.61
7843.22
7842.7
7841.97
7841.11
7839.97
7838.57
7836.84
7834.53
7831.76
7827.72
7822.96
7816.38
7811.32
7844
7843.97
7843.67
7843.28
7842.76
7842.03
7841.16
7840.01
7838.61
7836.86
7834.55
7831.76
7827.72
7822.95
7816.35
7811.28
7844.07
7844.03
7843.74
7843.34
7842.81
7842.08
7841.21
7840.05
7838.64
7836.89
7834.57
7831.77
7827.71
7822.93
7816.32
7811.25
7844.13
7844.1
7843.8
7843.4
7842.87
7842.13
7841.25
7840.09
7838.68
7836.91
7834.59
7831.78
7827.71
7822.91
7816.29
7811.21
7844.2
7844.15
7843.86
7843.45
7842.92
7842.18
7841.29
7840.13
7838.71
7836.93
7834.6
7831.78
7827.7
7822.9
7816.26
7811.17
7844.26
7844.21
7843.91
7843.5
7842.97
7842.22
7841.34
7840.16
7838.74
7836.95
7834.61
7831.78
7827.69
7822.88
7816.23
7811.14
7844.32
7844.27
7843.97
7843.55
7843.02
7842.26
7841.38
7840.19
7838.77
7836.97
7834.63
7831.78
7827.68
7822.86
7816.2
7811.1
7844.37
7844.32
7844.02
7843.6
7843.06
7842.3
7841.41
7840.22
7838.79
7836.99
7834.64
7831.78
7827.67
7822.84
7816.17
7811.07
7844.43
7844.37
7844.07
7843.65
7843.11
7842.34
7841.45
7840.25
7838.82
7837
7834.65
7831.78
7827.65
7822.82
7816.14
7811.04
7844.48
7844.42
7844.12
7843.7
7843.15
7842.39
7841.49
7840.28
7838.84
7837.02
7834.66
7831.77
7827.64
7822.8
7816.11
7811
7844.53
7844.48
7844.17
7843.75
7843.2
7842.42
7841.52
7840.31
7838.86
7837.03
7834.67
7831.77
7827.63
7822.78
7816.08
7810.96
7844.59
7844.53
7844.22
7843.79
7843.24
7842.46
7841.56
7840.34
7838.89
7837.04
7834.67
7831.76
7827.62
7822.76
7816.04
7810.93
7844.64
7844.59
7844.28
7843.84
7843.29
7842.5
7841.59
7840.37
7838.91
7837.06
7834.67
7831.75
7827.6
7822.74
7816
7810.89
7844.7
7844.64
7844.33
7843.9
7843.34
7842.55
7841.63
7840.4
7838.93
7837.07
7834.68
7831.74
7827.58
7822.71
7815.96
7810.85
7844.76
7844.7
7844.39
7843.95
7843.39
7842.59
7841.67
7840.42
7838.95
7837.08
7834.68
7831.73
7827.56
7822.68
7815.92
7810.8
7844.82
7844.77
7844.45
7844.01
7843.44
7842.64
7841.71
7840.46
7838.97
7837.09
7834.68
7831.72
7827.54
7822.65
7815.88
7810.75
7844.89
7844.84
7844.52
7844.07
7843.5
7842.69
7841.75
7840.49
7839
7837.11
7834.68
7831.7
7827.52
7822.62
7815.83
7810.69
7844.96
7844.92
7844.6
7844.15
7843.57
7842.75
7841.8
7840.53
7839.03
7837.13
7834.69
7831.69
7827.5
7822.58
7815.77
7810.63
7845.04
7845.01
7844.68
7844.23
7843.64
7842.81
7841.86
7840.58
7839.07
7837.15
7834.69
7831.68
7827.47
7822.54
7815.71
7810.56
7845.13
7845.11
7844.78
7844.32
7843.73
7842.89
7841.93
7840.63
7839.11
7837.17
7834.7
7831.66
7827.45
7822.49
7815.65
7810.49
7845.23
7845.23
7844.89
7844.42
7843.83
7842.98
7842
7840.69
7839.15
7837.2
7834.71
7831.65
7827.42
7822.45
7815.58
7810.4
7845.35
7845.36
7845.02
7844.55
7843.94
7843.08
7842.09
7840.77
7839.21
7837.24
7834.73
7831.65
7827.4
7822.39
7815.5
7810.3
7845.49
7845.52
7845.18
7844.69
7844.08
7843.2
7842.2
7840.86
7839.29
7837.29
7834.76
7831.64
7827.37
7822.34
7815.42
7810.2
7845.65
7845.7
7845.35
7844.86
7844.24
7843.34
7842.33
7840.97
7839.38
7837.35
7834.79
7831.65
7827.36
7822.28
7815.33
7810.08
7845.83
7845.91
7845.56
7845.05
7844.42
7843.51
7842.49
7841.1
7839.49
7837.43
7834.84
7831.67
7827.35
7822.23
7815.24
7809.95
7846.04
7846.16
7845.81
7845.29
7844.65
7843.72
7842.68
7841.26
7839.63
7837.54
7834.91
7831.7
7827.35
7822.18
7815.15
7809.82
7846.3
7846.45
7846.09
7845.56
7844.91
7843.97
7842.9
7841.46
7839.8
7837.67
7835.01
7831.75
7827.37
7822.14
7815.06
7809.67
7846.59
7846.79
7846.43
7845.89
7845.23
7844.26
7843.18
7841.7
7840.01
7837.84
7835.15
7831.84
7827.41
7822.11
7814.98
7809.52
7846.93
7847.19
7846.82
7846.26
7845.59
7844.61
7843.51
7842
7840.28
7838.07
7835.33
7831.96
7827.48
7822.1
7814.91
7809.37
7847.33
7847.64
7847.27
7846.71
7846.03
7845.02
7843.9
7842.37
7840.62
7838.35
7835.57
7832.14
7827.59
7822.12
7814.85
7809.22
7847.79
7848.16
7847.79
7847.22
7846.53
7845.51
7844.37
7842.81
7841.03
7838.71
7835.88
7832.38
7827.76
7822.19
7814.83
7809.09
7848.31
7848.75
7848.39
7847.8
7847.11
7846.08
7844.93
7843.34
7841.53
7839.17
7836.28
7832.7
7828.02
7822.32
7814.86
7808.97
7848.9
7849.41
7849.06
7848.47
7847.78
7846.74
7845.58
7843.97
7842.14
7839.74
7836.8
7833.15
7828.38
7822.54
7814.95
7808.89
7849.56
7850.15
7849.8
7849.22
7848.54
7847.5
7846.35
7844.73
7842.89
7840.44
7837.47
7833.73
7828.88
7822.88
7815.15
7808.86
7850.3
7850.95
7850.62
7850.05
7849.39
7848.36
7847.22
7845.62
7843.78
7841.31
7838.31
7834.51
7829.56
7823.4
7815.49
7808.94
7851.1
7851.81
7851.5
7850.95
7850.32
7849.33
7848.22
7846.65
7844.83
7842.37
7839.37
7835.52
7830.49
7824.15
7816.04
7809.14
7851.95
7852.7
7852.42
7851.9
7851.32
7850.38
7849.34
7847.83
7846.06
7843.66
7840.68
7836.83
7831.75
7825.23
7816.89
7809.51
7852.83
7853.59
7853.36
7852.89
7852.37
7851.51
7850.56
7849.15
7847.49
7845.19
7842.31
7838.52
7833.45
7826.81
7818.24
7810.24
7853.71
7854.46
7854.27
7853.86
7853.43
7852.69
7851.85
7850.61
7849.09
7846.98
7844.27
7840.66
7835.74
7829.14
7820.54
7812.04
7854.56
7855.23
7855.1
7854.77
7854.45
7853.85
7853.18
7852.14
7850.85
7849.01
7846.59
7843.32
7838.78
7832.59
7824.57
7816.71
7855.31
7855.84
7855.78
7855.55
7855.36
7854.93
7854.46
7853.69
7852.67
7851.2
7849.16
7846.38
7842.36
7836.82
7829.64
7822.84
7855.9
7856.21
7856.22
7856.11
7856.07
7855.84
7855.61
7855.14
7854.46
7853.44
7851.86
7849.69
7846.3
7841.55
7835.28
7829.45
7856.24
7856.25
7856.34
7856.35
7856.47
7856.48
7856.5
7856.39
7856.09
7855.58
7854.53
7853.08
7850.41
7846.57
7841.28
7836.35
7856.25
7855.86
7856.03
7856.17
7856.47
7856.7
7857.01
7857.28
7857.39
7857.44
7856.98
7856.36
7854.47
7851.74
7847.49
7843.53
7855.83
7854.91
7855.17
7855.43
7855.91
7856.39
7856.99
7857.63
7858.18
7858.83
7859
7859.29
7858.26
7856.9
7853.75
7851.05
7854.86
7853.32
7853.67
7854.06
7854.71
7855.41
7856.3
7857.32
7858.31
7859.55
7860.35
7861.57
7861.45
7861.73
7859.87
7859.03
7853.24
7850.96
7851.37
7851.85
7852.65
7853.53
7854.66
7855.98
7857.35
7859.12
7860.59
7862.74
7863.7
7865.78
7865.59
7867.39
7850.85
7847.68
7848.16
7848.76
7849.72
7850.81
7852.19
7853.82
7855.61
7857.89
7860.03
7863.05
7865.13
7868.86
7870.56
7875.55
7847.55
7844.11
7844.72
7845.5
7846.69
7848.08
7849.83
7851.88
7854.15
7856.96
7859.71
7863.48
7866.5
7871.59
7874.94
7882.99
7843.94
7841.28
7842.01
7842.97
7844.39
7846.08
7848.17
7850.61
7853.34
7856.61
7859.9
7864.23
7867.97
7873.92
7878.25
7888.01
7841.05
7839.55
7840.36
7841.46
7843.05
7844.95
7847.3
7850.01
7853.05
7856.63
7860.29
7864.95
7869.14
7875.46
7880.26
7890.37
7839.28
7838.91
7839.76
7840.94
7842.63
7844.64
7847.13
7849.98
7853.2
7856.92
7860.79
7865.52
7869.89
7876.13
7880.95
7890.48
7838.61
7839.39
7840.24
7841.42
7843.11
7845.14
7847.65
7850.5
7853.76
7857.44
7861.33
7865.9
7870.2
7875.95
7880.43
7888.74
7839.08
7840.91
7841.72
7842.85
7844.47
7846.4
7848.82
7851.55
7854.72
7858.19
7861.94
7866.13
7870.14
7875.06
7878.89
7885.51
7840.62
7843.38
7844.12
7845.14
7846.63
7848.4
7850.64
7853.14
7856.08
7859.21
7862.66
7866.28
7869.79
7873.62
7876.55
7881.14
7843.11
7846.64
7847.3
7848.2
7849.53
7851.09
7853.09
7855.27
7857.88
7860.56
7863.57
7866.46
7869.28
7871.78
7873.57
7875.93
7846.39
7850.5
7851.1
7851.89
7853.06
7854.4
7856.15
7857.97
7860.18
7862.32
7864.77
7866.78
7868.72
7869.7
7870.15
7870.22
7850.27
7854.77
7855.33
7856.03
7857.08
7858.24
7859.75
7861.23
7863.03
7864.58
7866.36
7867.38
7868.23
7867.52
7866.49
7864.33
7854.56
7859.25
7859.8
7860.43
7861.38
7862.38
7863.67
7864.86
7866.3
7867.32
7868.4
7868.37
7868
7865.47
7862.9
7858.69
7859.04
7863.71
7864.25
7864.84
7865.71
7866.59
7867.71
7868.71
7869.97
7870.64
7871.12
7870.03
7868.29
7863.88
7859.84
7853.88
7863.5
7868.3
7868.85
7869.46
7870.33
7871.19
7872.21
7873.04
7873.84
7873.68
7872.97
7870.53
7867.49
7862.06
7857.45
7850.41
7868.09
7873.23
7873.59
7873.96
7874.47
7874.83
7875.1
7874.86
7874.24
7872.71
7870.75
7867.52
7864.16
7859.1
7854.96
7848.31
7873.08
7874.99
7874.92
7874.7
7874.4
7873.83
7873.06
7871.75
7870.14
7868
7865.74
7862.69
7859.74
7855.63
7852.11
7846.9
7875.01
7871.75
7871.5
7871.04
7870.42
7869.51
7868.41
7866.96
7865.43
7863.53
7861.47
7858.75
7856.02
7852.49
7849.26
7845.31
7871.84
7867.47
7867.23
7866.82
7866.25
7865.45
7864.47
7863.17
7861.7
7859.86
7857.89
7855.43
7852.97
7849.91
7846.99
7843.54
7867.56
7864.07
7863.79
7863.34
7862.73
7861.91
7860.92
7859.67
7858.3
7856.61
7854.82
7852.63
7850.43
7847.76
7845.22
7842.16
7864.17
7860.76
7860.48
7860.06
7859.48
7858.72
7857.8
7856.66
7855.39
7853.85
7852.23
7850.28
7848.33
7846.01
7843.8
7841.17
7860.86
7857.87
7857.59
7857.19
7856.62
7855.91
7855.05
7854.01
7852.84
7851.46
7850.01
7848.29
7846.58
7844.57
7842.67
7840.41
7857.96
7855.23
7854.96
7854.6
7854.07
7853.42
7852.63
7851.69
7850.64
7849.41
7848.12
7846.61
7845.12
7843.39
7841.76
7839.83
7855.32
7852.9
7852.64
7852.3
7851.82
7851.23
7850.51
7849.67
7848.73
7847.64
7846.5
7845.19
7843.89
7842.4
7841.01
7839.37
7852.98
7850.81
7850.57
7850.27
7849.82
7849.3
7848.65
7847.9
7847.07
7846.11
7845.11
7843.97
7842.85
7841.57
7840.39
7838.99
7850.88
7848.96
7848.73
7848.47
7848.06
7847.59
7847.02
7846.36
7845.62
7844.78
7843.91
7842.93
7841.96
7840.87
7839.86
7838.68
7849.02
7847.31
7847.11
7846.87
7846.51
7846.1
7845.59
7845.01
7844.36
7843.63
7842.87
7842.02
7841.2
7840.27
7839.42
7838.41
7847.37
7845.86
7845.67
7845.46
7845.14
7844.78
7844.33
7843.82
7843.25
7842.62
7841.97
7841.24
7840.53
7839.74
7839.02
7838.17
7845.91
7844.56
7844.4
7844.22
7843.93
7843.62
7843.22
7842.78
7842.29
7841.74
7841.18
7840.55
7839.95
7839.28
7838.67
7837.94
7844.61
7843.42
7843.27
7843.11
7842.87
7842.59
7842.24
7841.86
7841.43
7840.96
7840.48
7839.95
7839.43
7838.86
7838.34
7837.73
7843.46
7842.4
7842.27
7842.14
7841.92
7841.68
7841.38
7841.05
7840.68
7840.27
7839.86
7839.4
7838.97
7838.48
7838.04
7837.52
7842.44
7841.5
7841.39
7841.27
7841.08
7840.87
7840.61
7840.32
7840.01
7839.66
7839.3
7838.92
7838.54
7838.13
7837.76
7837.31
7841.53
7840.7
7840.6
7840.49
7840.33
7840.15
7839.92
7839.68
7839.4
7839.11
7838.8
7838.47
7838.16
7837.81
7837.49
7837.1
7840.72
7839.98
7839.89
7839.8
7839.65
7839.5
7839.31
7839.1
7838.86
7838.61
7838.35
7838.07
7837.8
7837.5
7837.23
7836.9
7840
7839.33
7839.25
7839.18
7839.05
7838.92
7838.75
7838.57
7838.37
7838.15
7837.93
7837.69
7837.46
7837.21
7836.98
7836.69
7839.35
7838.75
7838.68
7838.62
7838.51
7838.39
7838.25
7838.1
7837.92
7837.74
7837.55
7837.34
7837.15
7836.93
7836.73
7836.48
7838.77
7838.22
7838.17
7838.11
7838.02
7837.92
7837.79
7837.66
7837.51
7837.35
7837.19
7837.02
7836.85
7836.67
7836.49
7836.27
7838.24
7837.75
7837.7
7837.65
7837.57
7837.48
7837.38
7837.26
7837.13
7837
7836.86
7836.71
7836.57
7836.41
7836.26
7836.05
7837.76
7837.31
7837.27
7837.23
7837.16
7837.08
7836.99
7836.89
7836.78
7836.67
7836.55
7836.42
7836.3
7836.16
7836.03
7835.84
7837.32
7836.92
7836.88
7836.84
7836.78
7836.72
7836.64
7836.55
7836.46
7836.36
7836.25
7836.14
7836.04
7835.92
7835.8
7835.63
7836.92
7836.55
7836.52
7836.48
7836.43
7836.38
7836.31
7836.24
7836.15
7836.07
7835.98
7835.88
7835.79
7835.68
7835.58
7835.43
7836.56
7836.21
7836.18
7836.16
7836.11
7836.06
7836
7835.94
7835.87
7835.79
7835.71
7835.63
7835.55
7835.46
7835.36
7835.22
7836.22
7835.9
7835.87
7835.85
7835.81
7835.77
7835.72
7835.66
7835.6
7835.53
7835.46
7835.39
7835.32
7835.24
7835.15
7835.02
7835.9
7835.61
7835.58
7835.56
7835.53
7835.49
7835.45
7835.4
7835.34
7835.28
7835.22
7835.16
7835.09
7835.02
7834.94
7834.82
7835.61
7835.34
7835.31
7835.3
7835.27
7835.23
7835.19
7835.15
7835.1
7835.05
7834.99
7834.94
7834.88
7834.81
7834.74
7834.62
7835.34
7835.08
7835.06
7835.05
7835.02
7834.99
7834.95
7834.91
7834.87
7834.82
7834.78
7834.72
7834.67
7834.61
7834.54
7834.43
7835.09
7834.84
7834.83
7834.81
7834.79
7834.76
7834.73
7834.69
7834.65
7834.61
7834.57
7834.52
7834.47
7834.41
7834.35
7834.24
7834.85
7834.62
7834.6
7834.59
7834.57
7834.54
7834.51
7834.48
7834.45
7834.41
7834.37
7834.32
7834.28
7834.22
7834.16
7834.05
7834.62
7834.41
7834.39
7834.38
7834.36
7834.34
7834.31
7834.28
7834.25
7834.21
7834.17
7834.13
7834.09
7834.04
7833.98
7833.87
7834.41
7834.21
7834.2
7834.19
7834.17
7834.15
7834.12
7834.09
7834.06
7834.03
7833.99
7833.95
7833.91
7833.86
7833.8
7833.7
7834.21
7834.02
7834.01
7834
7833.98
7833.96
7833.94
7833.91
7833.88
7833.85
7833.81
7833.77
7833.73
7833.69
7833.63
7833.53
7834.03
7833.85
7833.84
7833.83
7833.81
7833.79
7833.77
7833.74
7833.71
7833.68
7833.64
7833.61
7833.57
7833.52
7833.46
7833.36
7833.85
7833.69
7833.67
7833.66
7833.65
7833.63
7833.6
7833.58
7833.55
7833.52
7833.48
7833.45
7833.41
7833.36
7833.3
7833.2
7833.69
7833.53
7833.52
7833.51
7833.49
7833.48
7833.45
7833.43
7833.4
7833.37
7833.33
7833.29
7833.25
7833.2
7833.14
7833.04
7833.54
7833.39
7833.38
7833.37
7833.35
7833.33
7833.31
7833.28
7833.26
7833.22
7833.19
7833.15
7833.11
7833.06
7832.99
7832.89
7833.39
7833.26
7833.25
7833.24
7833.22
7833.2
7833.18
7833.15
7833.12
7833.09
7833.05
7833.01
7832.97
7832.91
7832.85
7832.74
7833.26
7833.14
7833.13
7833.12
7833.1
7833.08
7833.06
7833.03
7833
7832.96
7832.93
7832.88
7832.83
7832.78
7832.71
7832.6
7833.14
7833.03
7833.02
7833.01
7832.99
7832.97
7832.95
7832.92
7832.89
7832.85
7832.81
7832.76
7832.71
7832.65
7832.58
7832.46
7833.03
7832.93
7832.92
7832.91
7832.89
7832.87
7832.85
7832.82
7832.78
7832.75
7832.7
7832.65
7832.6
7832.53
7832.45
7832.33
7832.93
7832.84
7832.83
7832.82
7832.8
7832.78
7832.76
7832.73
7832.69
7832.65
7832.61
7832.56
7832.5
7832.43
7832.34
7832.2
7832.84
7832.76
7832.75
7832.74
7832.73
7832.7
7832.68
7832.65
7832.62
7832.58
7832.53
7832.48
7832.41
7832.34
7832.24
7832.09
7832.76
7832.69
7832.69
7832.67
7832.66
7832.64
7832.62
7832.59
7832.55
7832.51
7832.47
7832.41
7832.34
7832.26
7832.15
7831.99
7832.7
7832.64
7832.63
7832.62
7832.6
7832.58
7832.56
7832.53
7832.5
7832.46
7832.42
7832.36
7832.29
7832.21
7832.09
7831.9
7832.64
7832.59
7832.58
7832.57
7832.56
7832.54
7832.52
7832.49
7832.46
7832.43
7832.38
7832.33
7832.27
7832.18
7832.06
7831.86
7832.59
7832.55
7832.54
7832.53
7832.52
7832.51
7832.49
7832.46
7832.44
7832.4
7832.37
7832.32
7832.27
7832.21
7832.11
7831.96
7832.55
7832.53
7832.53
7832.52
7832.51
7832.49
7832.48
7832.46
7832.43
7832.4
7832.37
7832.33
7832.29
7832.24
7832.18
7832.07
7832.53
7832.53
7832.53
7832.52
7832.51
7832.49
7832.48
7832.46
7832.43
7832.4
7832.37
7832.33
7832.29
7832.24
7832.18
7832.07
7832.53
7832.53
7832.53
7832.52
7832.51
7832.49
7832.48
7832.46
7832.43
7832.4
7832.37
7832.33
7832.29
7832.24
7832.18
7832.07
7832.53
)
;

boundaryField
{
    wireUpstream
    {
        type            calculated;
        value           nonuniform List<scalar> 
16
(
7832.51
7832.51
7832.5
7832.49
7832.48
7832.46
7832.44
7832.42
7832.4
7832.37
7832.34
7832.3
7832.27
7832.24
7832.22
7832.51
)
;
    }
    wireDownstream
    {
        type            calculated;
        value           nonuniform List<scalar> 
16
(
7843.08
7842.8
7842.44
7841.96
7841.29
7840.47
7839.4
7838.07
7836.42
7834.2
7831.54
7827.63
7823
7816.56
7811.61
7843.18
)
;
    }
    wireTopContact
    {
        type            calculated;
        value           nonuniform List<scalar> 
122
(
7811.31
7811.28
7811.25
7811.21
7811.17
7811.13
7811.09
7811.05
7811.01
7810.97
7810.93
7810.9
7810.86
7810.83
7810.79
7810.75
7810.72
7810.68
7810.64
7810.6
7810.55
7810.5
7810.45
7810.39
7810.33
7810.26
7810.18
7810.09
7810
7809.89
7809.77
7809.64
7809.51
7809.37
7809.22
7809.07
7808.92
7808.79
7808.68
7808.62
7808.62
7808.71
7808.95
7809.4
7810.2
7811.88
7816.69
7822.94
7829.62
7836.6
7843.84
7851.28
7858.99
7867.04
7875.02
7882.57
7887.53
7889.77
7889.86
7888.16
7885
7880.71
7875.6
7870.02
7864.32
7858.95
7854.44
7851.19
7849.04
7847.11
7845.24
7843.53
7842.16
7841.16
7840.38
7839.79
7839.32
7838.95
7838.63
7838.36
7838.12
7837.9
7837.68
7837.48
7837.27
7837.07
7836.86
7836.66
7836.45
7836.24
7836.03
7835.82
7835.61
7835.41
7835.2
7835
7834.8
7834.61
7834.42
7834.23
7834.04
7833.86
7833.69
7833.52
7833.35
7833.19
7833.03
7832.88
7832.73
7832.59
7832.45
7832.32
7832.2
7832.09
7831.99
7831.91
7831.85
7831.95
7832.03
7832.03
7832.03
7811.33
)
;
    }
    front
    {
        type            wedge;
    }
    back
    {
        type            wedge;
    }
}


// ************************************************************************* //
