/*--------------------------------*- C++ -*----------------------------------*\
| =========                 |                                                 |
| \\      /  F ield         | OpenFOAM: The Open Source CFD Toolbox           |
|  \\    /   O peration     | Version:  4.1                                   |
|   \\  /    A nd           | Web:      www.OpenFOAM.org                      |
|    \\/     M anipulation  |                                                 |
\*---------------------------------------------------------------------------*/
FoamFile
{
    version     2.0;
    format      ascii;
    class       pointVectorField;
    location    "0.0080";
    object      pointDisplacement;
}
// * * * * * * * * * * * * * * * * * * * * * * * * * * * * * * * * * * * * * //

dimensions      [0 1 0 0 0 0 0];

internalField   nonuniform List<vector> 
1885
(
(7.011e-05 -3.0754e-05 4.479e-09)
(7.0816e-05 -2.3771e-05 3.5835e-09)
(7.0947e-05 -1.7004e-05 2.6895e-09)
(7.0493e-05 -1.0648e-05 1.8266e-09)
(6.948e-05 -4.8528e-06 1.0252e-09)
(6.7969e-05 2.2491e-07 3.204e-10)
(6.6041e-05 4.3954e-06 -2.5645e-10)
(6.3783e-05 7.4648e-06 -6.9725e-10)
(6.1261e-05 9.2927e-06 -1.0035e-09)
(5.8518e-05 9.8388e-06 -1.1654e-09)
(5.5566e-05 9.2006e-06 -1.1861e-09)
(5.2407e-05 7.6395e-06 -1.0902e-09)
(4.9044e-05 5.5591e-06 -9.1614e-10)
(6.9968e-05 -2.7573e-05 3.4487e-06)
(7.0667e-05 -2.1344e-05 2.672e-06)
(7.0797e-05 -1.5301e-05 1.9178e-06)
(7.035e-05 -9.6226e-06 1.2086e-06)
(6.9351e-05 -4.4473e-06 5.6207e-07)
(6.7859e-05 8.1705e-08 -3.566e-09)
(6.5952e-05 3.7975e-06 -4.6788e-07)
(6.371e-05 6.533e-06 -8.1022e-07)
(6.1199e-05 8.1679e-06 -1.0151e-06)
(5.846e-05 8.6706e-06 -1.0781e-06)
(5.5512e-05 8.1309e-06 -1.011e-06)
(5.2356e-05 6.7802e-06 -8.4339e-07)
(4.9001e-05 4.97e-06 -6.1884e-07)
(6.9869e-05 -2.4303e-05 7.8261e-06)
(7.0564e-05 -1.8836e-05 6.0695e-06)
(7.0693e-05 -1.3527e-05 4.363e-06)
(7.0251e-05 -8.5362e-06 2.7581e-06)
(6.9262e-05 -3.9891e-06 1.296e-06)
(6.7784e-05 -1.359e-08 1.7892e-08)
(6.589e-05 3.2454e-06 -1.0301e-06)
(6.3659e-05 5.6452e-06 -1.8023e-06)
(6.1155e-05 7.0837e-06 -2.2657e-06)
(5.842e-05 7.536e-06 -2.4122e-06)
(5.5473e-05 7.0829e-06 -2.2681e-06)
(5.2319e-05 5.926e-06 -1.8988e-06)
(4.8971e-05 4.3683e-06 -1.4011e-06)
(6.9807e-05 -2.0586e-05 1.2226e-05)
(7.0499e-05 -1.5968e-05 9.487e-06)
(7.0628e-05 -1.1482e-05 6.825e-06)
(7.0189e-05 -7.2627e-06 4.3215e-06)
(6.9206e-05 -3.42e-06 2.0413e-06)
(6.7736e-05 -6.2196e-08 4.899e-08)
(6.5851e-05 2.6891e-06 -1.5836e-06)
(6.3627e-05 4.7153e-06 -2.7863e-06)
(6.1127e-05 5.9323e-06 -3.5092e-06)
(5.8394e-05 6.3209e-06 -3.7409e-06)
(5.5448e-05 5.9501e-06 -3.5227e-06)
(5.2297e-05 4.989e-06 -2.955e-06)
(4.8952e-05 3.6907e-06 -2.1873e-06)
(6.9785e-05 -1.6522e-05 1.6523e-05)
(7.0476e-05 -1.2821e-05 1.2822e-05)
(7.0606e-05 -9.224e-06 9.225e-06)
(7.0167e-05 -5.8415e-06 5.8423e-06)
(6.9187e-05 -2.7609e-06 2.7615e-06)
(6.772e-05 -6.9651e-08 6.9998e-08)
(6.5837e-05 2.1352e-06 -2.1351e-06)
(6.3615e-05 3.7591e-06 -3.7592e-06)
(6.1118e-05 4.7354e-06 -4.7357e-06)
(5.8386e-05 5.0493e-06 -5.0498e-06)
(5.544e-05 4.7563e-06 -4.757e-06)
(5.2289e-05 3.9916e-06 -3.9924e-06)
(4.8946e-05 2.9568e-06 -2.9577e-06)
(6.9807e-05 -1.2225e-05 2.0587e-05)
(7.0499e-05 -9.4857e-06 1.5969e-05)
(7.0628e-05 -6.8239e-06 1.1483e-05)
(7.0189e-05 -4.3206e-06 7.2635e-06)
(6.9206e-05 -2.0407e-06 3.4206e-06)
(6.7736e-05 -4.8664e-08 6.2559e-08)
(6.585e-05 1.5837e-06 -2.689e-06)
(6.3626e-05 2.7861e-06 -4.7154e-06)
(6.1127e-05 3.5088e-06 -5.9326e-06)
(5.8394e-05 3.7404e-06 -6.3214e-06)
(5.5448e-05 3.5221e-06 -5.9507e-06)
(5.2297e-05 2.9542e-06 -4.9898e-06)
(4.8952e-05 2.1864e-06 -3.6915e-06)
(6.9869e-05 -7.8247e-06 2.4304e-05)
(7.0564e-05 -6.0683e-06 1.8837e-05)
(7.0693e-05 -4.3619e-06 1.3528e-05)
(7.0251e-05 -2.7572e-06 8.537e-06)
(6.9262e-05 -1.2954e-06 3.9897e-06)
(6.7783e-05 -1.7587e-08 1.3957e-08)
(6.589e-05 1.0301e-06 -3.2453e-06)
(6.3659e-05 1.8022e-06 -5.6453e-06)
(6.1155e-05 2.2654e-06 -7.084e-06)
(5.842e-05 2.4117e-06 -7.5365e-06)
(5.5473e-05 2.2675e-06 -7.0836e-06)
(5.2319e-05 1.898e-06 -5.9268e-06)
(4.8971e-05 1.4003e-06 -4.3692e-06)
(6.9968e-05 -3.4474e-06 2.7574e-05)
(7.0667e-05 -2.6709e-06 2.1345e-05)
(7.0797e-05 -1.9169e-06 1.5302e-05)
(7.0349e-05 -1.2078e-06 9.6234e-06)
(6.9351e-05 -5.6156e-07 4.4479e-06)
(6.7859e-05 3.8526e-09 -8.1354e-08)
(6.5952e-05 4.6795e-07 -3.7974e-06)
(6.371e-05 8.1009e-07 -6.5331e-06)
(6.1199e-05 1.0147e-06 -8.1682e-06)
(5.846e-05 1.0776e-06 -8.6711e-06)
(5.5511e-05 1.0104e-06 -8.1316e-06)
(5.2356e-05 8.4266e-07 -6.7809e-06)
(4.9001e-05 6.1802e-07 -4.9708e-06)
(7.011e-05 -3.3827e-09 3.0754e-05)
(7.0816e-05 -2.6177e-09 2.3772e-05)
(7.0946e-05 -1.8759e-09 1.7004e-05)
(7.0492e-05 -1.1865e-09 1.0649e-05)
(6.9479e-05 -5.709e-10 4.8533e-06)
(6.7968e-05 -5.4541e-11 -2.2459e-07)
(6.6041e-05 3.371e-10 -4.3953e-06)
(6.3783e-05 6.0002e-10 -7.465e-06)
(6.1261e-05 7.3911e-10 -9.2931e-06)
(5.8518e-05 7.4708e-10 -9.8393e-06)
(5.5566e-05 6.2986e-10 -9.2013e-06)
(5.2407e-05 4.1644e-10 -7.6402e-06)
(4.9044e-05 1.4996e-10 -5.5599e-06)
(6.9968e-05 -2.7573e-05 -3.437e-06)
(7.0667e-05 -2.1345e-05 -2.6627e-06)
(7.0797e-05 -1.5302e-05 -1.9109e-06)
(7.035e-05 -9.6228e-06 -1.2039e-06)
(6.9352e-05 -4.4474e-06 -5.5946e-07)
(6.786e-05 8.1666e-08 4.3327e-09)
(6.5952e-05 3.7975e-06 4.6713e-07)
(6.371e-05 6.5331e-06 8.0832e-07)
(6.1199e-05 8.168e-06 1.0124e-06)
(5.8461e-05 8.6707e-06 1.075e-06)
(5.5512e-05 8.1311e-06 1.008e-06)
(5.2356e-05 6.7803e-06 8.4061e-07)
(4.9001e-05 4.9701e-06 6.1654e-07)
(6.9751e-05 -2.2766e-05 1.1231e-08)
(7.0441e-05 -1.7663e-05 8.8772e-09)
(7.057e-05 -1.2704e-05 6.5536e-09)
(7.0133e-05 -8.0413e-06 4.3388e-09)
(6.9156e-05 -3.7958e-06 2.3073e-09)
(6.7692e-05 -8.8203e-08 5.2726e-10)
(6.5814e-05 2.9483e-06 -9.3865e-10)
(6.3597e-05 5.1843e-06 -2.0386e-09)
(6.1103e-05 6.5285e-06 -2.7419e-09)
(5.8374e-05 6.961e-06 -3.0448e-09)
(5.543e-05 6.5587e-06 -2.9783e-09)
(5.228e-05 5.5078e-06 -2.6173e-09)
(4.8939e-05 4.0852e-06 -2.0758e-09)
(6.9652e-05 -1.9404e-05 3.8904e-06)
(7.0337e-05 -1.5071e-05 3.0228e-06)
(7.0466e-05 -1.0857e-05 2.1789e-06)
(7.0034e-05 -6.8932e-06 1.3851e-06)
(6.9067e-05 -3.2852e-06 6.6267e-07)
(6.7616e-05 -1.3665e-07 3.2278e-08)
(6.5751e-05 2.4403e-06 -4.837e-07)
(6.3545e-05 4.3384e-06 -8.6387e-07)
(6.1058e-05 5.4826e-06 -1.0933e-06)
(5.8333e-05 5.8583e-06 -1.1689e-06)
(5.5392e-05 5.5318e-06 -1.1042e-06)
(5.2246e-05 4.6601e-06 -9.3056e-07)
(4.8911e-05 3.4743e-06 -6.9421e-07)
(6.959e-05 -1.5748e-05 7.8768e-06)
(7.0273e-05 -1.2239e-05 6.123e-06)
(7.0402e-05 -8.826e-06 4.4169e-06)
(6.9973e-05 -5.6149e-06 2.8117e-06)
(6.9012e-05 -2.6926e-06 1.3511e-06)
(6.7568e-05 -1.4364e-07 7.7137e-08)
(6.5712e-05 1.9417e-06 -9.6513e-07)
(6.3512e-05 3.4778e-06 -1.733e-06)
(6.103e-05 4.4056e-06 -2.197e-06)
(5.8308e-05 4.7141e-06 -2.3517e-06)
(5.5369e-05 4.4576e-06 -2.2243e-06)
(5.2225e-05 3.7625e-06 -1.878e-06)
(4.8894e-05 2.814e-06 -1.4051e-06)
(6.9569e-05 -1.1871e-05 1.1872e-05)
(7.0252e-05 -9.2284e-06 9.2299e-06)
(7.038e-05 -6.6577e-06 6.659e-06)
(6.9952e-05 -4.2392e-06 4.2402e-06)
(6.8993e-05 -2.0384e-06 2.0391e-06)
(6.7552e-05 -1.1923e-07 1.1959e-07)
(6.5698e-05 1.4507e-06 -1.4506e-06)
(6.3501e-05 2.6072e-06 -2.6074e-06)
(6.1021e-05 3.3063e-06 -3.3067e-06)
(5.83e-05 3.5399e-06 -3.5405e-06)
(5.5361e-05 3.3491e-06 -3.3499e-06)
(5.2218e-05 2.8289e-06 -2.8298e-06)
(4.8888e-05 2.1181e-06 -2.119e-06)
(6.959e-05 -7.8748e-06 1.575e-05)
(7.0273e-05 -6.1213e-06 1.2241e-05)
(7.0402e-05 -4.4155e-06 8.8272e-06)
(6.9973e-05 -2.8107e-06 5.6158e-06)
(6.9011e-05 -1.3504e-06 2.6932e-06)
(6.7568e-05 -7.6789e-08 1.4402e-07)
(6.5711e-05 9.6516e-07 -1.9416e-06)
(6.3512e-05 1.7328e-06 -3.478e-06)
(6.103e-05 2.1966e-06 -4.406e-06)
(5.8308e-05 2.3511e-06 -4.7146e-06)
(5.5369e-05 2.2236e-06 -4.4583e-06)
(5.2225e-05 1.8771e-06 -3.7633e-06)
(4.8894e-05 1.4042e-06 -2.8149e-06)
(6.9651e-05 -3.8884e-06 1.9405e-05)
(7.0337e-05 -3.021e-06 1.5072e-05)
(7.0466e-05 -2.1775e-06 1.0858e-05)
(7.0034e-05 -1.3841e-06 6.894e-06)
(6.9066e-05 -6.6199e-07 3.2858e-06)
(6.7616e-05 -3.1947e-08 1.3702e-07)
(6.5751e-05 4.8371e-07 -2.4402e-06)
(6.3545e-05 8.6361e-07 -4.3384e-06)
(6.1058e-05 1.0928e-06 -5.4829e-06)
(5.8333e-05 1.1682e-06 -5.8588e-06)
(5.5392e-05 1.1034e-06 -5.5324e-06)
(5.2246e-05 9.2968e-07 -4.6608e-06)
(4.8911e-05 6.933e-07 -3.4751e-06)
(6.9751e-05 -9.2995e-09 2.2767e-05)
(7.0441e-05 -7.245e-09 1.7663e-05)
(7.0569e-05 -5.2442e-09 1.2705e-05)
(7.0133e-05 -3.3683e-09 8.042e-06)
(6.9156e-05 -1.676e-09 3.7964e-06)
(6.7692e-05 -2.1914e-10 8.8568e-08)
(6.5814e-05 9.5154e-10 -2.9481e-06)
(6.3597e-05 1.7932e-09 -5.1843e-06)
(6.1103e-05 2.2814e-09 -6.5287e-06)
(5.8374e-05 2.4146e-09 -6.9614e-06)
(5.543e-05 2.2235e-09 -6.5592e-06)
(5.228e-05 1.781e-09 -5.5084e-06)
(4.8939e-05 1.1966e-09 -4.0859e-06)
(6.9968e-05 3.4385e-06 2.7574e-05)
(7.0667e-05 2.6639e-06 2.1345e-05)
(7.0797e-05 1.9118e-06 1.5302e-05)
(7.035e-05 1.2046e-06 9.6235e-06)
(6.9351e-05 5.5998e-07 4.4479e-06)
(6.7859e-05 -4.0593e-09 -8.1336e-08)
(6.5952e-05 -4.6708e-07 -3.7974e-06)
(6.371e-05 -8.0848e-07 -6.5331e-06)
(6.1199e-05 -1.0127e-06 -8.1683e-06)
(5.846e-05 -1.0755e-06 -8.6711e-06)
(5.5512e-05 -1.0086e-06 -8.1316e-06)
(5.2356e-05 -8.4133e-07 -6.7809e-06)
(4.9001e-05 -6.1733e-07 -4.9708e-06)
(6.9869e-05 -2.4305e-05 -7.8206e-06)
(7.0564e-05 -1.8837e-05 -6.0649e-06)
(7.0693e-05 -1.3528e-05 -4.3594e-06)
(7.0251e-05 -8.5368e-06 -2.7555e-06)
(6.9263e-05 -3.9894e-06 -1.2943e-06)
(6.7784e-05 -1.3666e-08 -1.7112e-08)
(6.589e-05 3.2456e-06 1.0301e-06)
(6.3659e-05 5.6455e-06 1.8018e-06)
(6.1155e-05 7.0841e-06 2.2648e-06)
(5.842e-05 7.5364e-06 2.411e-06)
(5.5473e-05 7.0833e-06 2.2668e-06)
(5.2319e-05 5.9263e-06 1.8975e-06)
(4.8971e-05 4.3685e-06 1.3999e-06)
(6.9652e-05 -1.9404e-05 -3.8729e-06)
(7.0337e-05 -1.5071e-05 -3.0088e-06)
(7.0466e-05 -1.0857e-05 -2.1685e-06)
(7.0034e-05 -6.8931e-06 -1.3781e-06)
(6.9067e-05 -3.2851e-06 -6.5879e-07)
(6.7616e-05 -1.366e-07 -3.116e-08)
(6.5751e-05 2.4404e-06 4.8254e-07)
(6.3545e-05 4.3384e-06 8.6099e-07)
(6.1058e-05 5.4827e-06 1.0893e-06)
(5.8333e-05 5.8583e-06 1.1644e-06)
(5.5392e-05 5.5318e-06 1.0997e-06)
(5.2246e-05 4.6601e-06 9.2655e-07)
(4.8911e-05 3.4743e-06 6.9096e-07)
(6.9546e-05 -1.5932e-05 1.2439e-08)
(7.0227e-05 -1.2387e-05 9.8442e-09)
(7.0356e-05 -8.9379e-06 7.2856e-09)
(6.9929e-05 -5.692e-06 4.8497e-09)
(6.8972e-05 -2.7382e-06 2.6158e-09)
(6.7534e-05 -1.6242e-07 6.5677e-10)
(6.5683e-05 1.9445e-06 -9.5916e-10)
(6.3489e-05 3.4967e-06 -2.1732e-09)
(6.1011e-05 4.4353e-06 -2.9491e-09)
(5.8291e-05 4.7497e-06 -3.2846e-09)
(5.5353e-05 4.4952e-06 -3.2182e-09)
(5.2211e-05 3.7992e-06 -2.8339e-09)
(4.8882e-05 2.8475e-06 -2.2546e-09)
(6.9481e-05 -1.2174e-05 4.0722e-06)
(7.016e-05 -9.4716e-06 3.1688e-06)
(7.0289e-05 -6.8407e-06 2.2892e-06)
(6.9865e-05 -4.3647e-06 1.4614e-06)
(6.8914e-05 -2.112e-06 7.0829e-07)
(6.7484e-05 -1.4845e-07 5.1867e-08)
(6.5642e-05 1.457e-06 -4.8486e-07)
(6.3454e-05 2.6399e-06 -8.8041e-07)
(6.0981e-05 3.3564e-06 -1.1201e-06)
(5.8264e-05 3.5995e-06 -1.2016e-06)
(5.5328e-05 3.4115e-06 -1.1391e-06)
(5.2189e-05 2.889e-06 -9.6492e-07)
(4.8865e-05 2.1722e-06 -7.2579e-07)
(6.9459e-05 -8.1806e-06 8.1828e-06)
(7.0137e-05 -6.3662e-06 6.3681e-06)
(7.0266e-05 -4.5996e-06 4.6012e-06)
(6.9844e-05 -2.9371e-06 2.9382e-06)
(6.8895e-05 -1.4246e-06 1.4253e-06)
(6.7467e-05 -1.0649e-07 1.0687e-07)
(6.5627e-05 9.7106e-07 -9.7103e-07)
(6.3443e-05 1.7651e-06 -1.7654e-06)
(6.0971e-05 2.2464e-06 -2.2469e-06)
(5.8256e-05 2.4104e-06 -2.4111e-06)
(5.532e-05 2.2856e-06 -2.2865e-06)
(5.2181e-05 1.9369e-06 -1.9379e-06)
(4.8859e-05 1.458e-06 -1.4589e-06)
(6.9481e-05 -4.0696e-06 1.2176e-05)
(7.016e-05 -3.1666e-06 9.4732e-06)
(7.0289e-05 -2.2875e-06 6.842e-06)
(6.9865e-05 -1.4602e-06 4.3657e-06)
(6.8914e-05 -7.0749e-07 2.1127e-06)
(6.7484e-05 -5.1498e-08 1.4883e-07)
(6.5641e-05 4.8485e-07 -1.4569e-06)
(6.3454e-05 8.8006e-07 -2.6401e-06)
(6.0981e-05 1.1195e-06 -3.3569e-06)
(5.8264e-05 1.2008e-06 -3.6001e-06)
(5.5328e-05 1.1382e-06 -3.4122e-06)
(5.2189e-05 9.6393e-07 -2.8898e-06)
(4.8865e-05 7.248e-07 -2.1731e-06)
(6.9546e-05 -9.5987e-09 1.5933e-05)
(7.0227e-05 -7.4934e-09 1.2388e-05)
(7.0356e-05 -5.4444e-09 8.9389e-06)
(6.9929e-05 -3.5245e-09 5.6928e-06)
(6.8972e-05 -1.7926e-09 2.7388e-06)
(6.7534e-05 -3.0029e-10 1.6279e-07)
(6.5683e-05 9.0165e-10 -1.9443e-06)
(6.3489e-05 1.7684e-09 -3.4968e-06)
(6.1011e-05 2.2731e-09 -4.4355e-06)
(5.8291e-05 2.4163e-09 -4.7501e-06)
(5.5353e-05 2.2335e-09 -4.4957e-06)
(5.2211e-05 1.8004e-09 -3.7998e-06)
(4.8882e-05 1.2261e-09 -2.8483e-06)
(6.9652e-05 3.8755e-06 1.9405e-05)
(7.0337e-05 3.011e-06 1.5071e-05)
(7.0466e-05 2.1702e-06 1.0857e-05)
(7.0034e-05 1.3794e-06 6.8937e-06)
(6.9067e-05 6.5956e-07 3.2856e-06)
(6.7616e-05 3.1493e-08 1.3697e-07)
(6.5751e-05 -4.8259e-07 -2.4401e-06)
(6.3545e-05 -8.6137e-07 -4.3383e-06)
(6.1058e-05 -1.0899e-06 -5.4828e-06)
(5.8333e-05 -1.1652e-06 -5.8586e-06)
(5.5392e-05 -1.1006e-06 -5.5322e-06)
(5.2246e-05 -9.2753e-07 -4.6606e-06)
(4.8911e-05 -6.9194e-07 -3.4749e-06)
(6.9869e-05 7.8224e-06 2.4305e-05)
(7.0564e-05 6.0664e-06 1.8838e-05)
(7.0693e-05 4.3606e-06 1.3529e-05)
(7.0251e-05 2.7564e-06 8.5373e-06)
(6.9262e-05 1.2949e-06 3.9898e-06)
(6.7784e-05 1.7401e-08 1.4004e-08)
(6.589e-05 -1.0301e-06 -3.2454e-06)
(6.3659e-05 -1.802e-06 -5.6455e-06)
(6.1155e-05 -2.2652e-06 -7.0842e-06)
(5.842e-05 -2.4116e-06 -7.5367e-06)
(5.5473e-05 -2.2675e-06 -7.0837e-06)
(5.2319e-05 -1.8983e-06 -5.9268e-06)
(4.8971e-05 -1.4007e-06 -4.3691e-06)
(6.9807e-05 -2.0587e-05 -1.2225e-05)
(7.0499e-05 -1.5969e-05 -9.4859e-06)
(7.0628e-05 -1.1482e-05 -6.8239e-06)
(7.0189e-05 -7.2632e-06 -4.3205e-06)
(6.9207e-05 -3.4203e-06 -2.0404e-06)
(6.7736e-05 -6.2343e-08 -4.8218e-08)
(6.5851e-05 2.6891e-06 1.5842e-06)
(6.3627e-05 4.7154e-06 2.7868e-06)
(6.1127e-05 5.9325e-06 3.5095e-06)
(5.8395e-05 6.3212e-06 3.7411e-06)
(5.5448e-05 5.9503e-06 3.5227e-06)
(5.2297e-05 4.9892e-06 2.9547e-06)
(4.8952e-05 3.6908e-06 2.1869e-06)
(6.9591e-05 -1.5746e-05 -7.8709e-06)
(7.0274e-05 -1.2238e-05 -6.1181e-06)
(7.0402e-05 -8.8249e-06 -4.413e-06)
(6.9973e-05 -5.6141e-06 -2.8088e-06)
(6.9012e-05 -2.6922e-06 -1.3492e-06)
(6.7569e-05 -1.4361e-07 -7.6099e-08)
(6.5712e-05 1.9415e-06 9.6541e-07)
(6.3512e-05 3.4774e-06 1.7327e-06)
(6.1031e-05 4.4051e-06 2.1963e-06)
(5.8308e-05 4.7135e-06 2.3507e-06)
(5.5369e-05 4.4571e-06 2.2231e-06)
(5.2225e-05 3.762e-06 1.8768e-06)
(4.8894e-05 2.8136e-06 1.4039e-06)
(6.9481e-05 -1.2171e-05 -4.0565e-06)
(7.016e-05 -9.4688e-06 -3.1561e-06)
(7.0289e-05 -6.8387e-06 -2.2797e-06)
(6.9865e-05 -4.3634e-06 -1.4549e-06)
(6.8914e-05 -2.1114e-06 -7.0458e-07)
(6.7485e-05 -1.4839e-07 -5.0611e-08)
(6.5642e-05 1.4566e-06 4.8408e-07)
(6.3454e-05 2.6392e-06 8.7807e-07)
(6.0981e-05 3.3555e-06 1.1167e-06)
(5.8265e-05 3.5985e-06 1.1978e-06)
(5.5328e-05 3.4105e-06 1.1353e-06)
(5.2189e-05 2.8881e-06 9.6143e-07)
(4.8865e-05 2.1716e-06 7.2292e-07)
(6.9414e-05 -8.3067e-06 8.0468e-09)
(7.009e-05 -6.4666e-06 6.4479e-09)
(7.0219e-05 -4.6746e-06 4.8562e-09)
(6.9799e-05 -2.9879e-06 3.327e-09)
(6.8854e-05 -1.4537e-06 1.912e-09)
(6.7433e-05 -1.1709e-07 6.5988e-10)
(6.5598e-05 9.7532e-07 -3.8353e-10)
(6.3418e-05 1.7804e-06 -1.1795e-09)
(6.0951e-05 2.2688e-06 -1.7044e-09)
(5.8237e-05 2.4365e-06 -1.9567e-09)
(5.5304e-05 2.3125e-06 -1.9607e-09)
(5.2167e-05 1.9622e-06 -1.767e-09)
(4.8847e-05 1.48e-06 -1.4485e-09)
(6.9391e-05 -4.1989e-06 4.2018e-06)
(7.0067e-05 -3.2694e-06 3.2718e-06)
(7.0196e-05 -2.3642e-06 2.3661e-06)
(6.9777e-05 -1.5122e-06 1.5136e-06)
(6.8834e-05 -7.3727e-07 7.3814e-07)
(6.7415e-05 -6.2261e-08 6.2653e-08)
(6.5584e-05 4.8934e-07 -4.8937e-07)
(6.3406e-05 8.9585e-07 -8.9624e-07)
(6.094e-05 1.1426e-06 -1.1433e-06)
(5.8228e-05 1.2277e-06 -1.2286e-06)
(5.5295e-05 1.1658e-06 -1.1668e-06)
(5.2159e-05 9.8981e-07 -9.9085e-07)
(4.8841e-05 7.4734e-07 -7.4838e-07)
(6.9414e-05 -4.6588e-09 8.3092e-06)
(7.009e-05 -3.6645e-09 6.4686e-06)
(7.0219e-05 -2.6951e-09 4.6763e-06)
(6.9799e-05 -1.7881e-09 2.9892e-06)
(6.8854e-05 -9.7212e-10 1.4545e-06)
(6.7433e-05 -2.7256e-10 1.1749e-07)
(6.5598e-05 2.8543e-10 -9.753e-07)
(6.3418e-05 6.8001e-10 -1.7807e-06)
(6.0951e-05 8.9881e-10 -2.2694e-06)
(5.8237e-05 9.442e-10 -2.4372e-06)
(5.5304e-05 8.36e-10 -2.3134e-06)
(5.2167e-05 6.127e-10 -1.9631e-06)
(4.8847e-05 3.2782e-10 -1.481e-06)
(6.9481e-05 4.0606e-06 1.2172e-05)
(7.016e-05 3.1595e-06 9.4699e-06)
(7.0289e-05 2.2823e-06 6.8397e-06)
(6.9865e-05 1.4567e-06 4.3642e-06)
(6.8914e-05 7.0564e-07 2.112e-06)
(6.7484e-05 5.0998e-08 1.4878e-07)
(6.5642e-05 -4.8427e-07 -1.4564e-06)
(6.3454e-05 -8.7873e-07 -2.6392e-06)
(6.0981e-05 -1.1177e-06 -3.3557e-06)
(5.8264e-05 -1.199e-06 -3.5989e-06)
(5.5328e-05 -1.1366e-06 -3.411e-06)
(5.2189e-05 -9.6275e-07 -2.8888e-06)
(4.8865e-05 -7.2416e-07 -2.1723e-06)
(6.959e-05 7.8747e-06 1.5746e-05)
(7.0273e-05 6.1212e-06 1.2238e-05)
(7.0402e-05 4.4153e-06 8.8251e-06)
(6.9973e-05 2.8105e-06 5.6145e-06)
(6.9012e-05 1.3502e-06 2.6926e-06)
(6.7568e-05 7.6468e-08 1.4397e-07)
(6.5712e-05 -9.6558e-07 -1.9412e-06)
(6.3512e-05 -1.7333e-06 -3.4772e-06)
(6.103e-05 -2.1972e-06 -4.405e-06)
(5.8308e-05 -2.3518e-06 -4.7136e-06)
(5.5369e-05 -2.2244e-06 -4.4572e-06)
(5.2225e-05 -1.878e-06 -3.7624e-06)
(4.8894e-05 -1.4051e-06 -2.8141e-06)
(6.9807e-05 1.2228e-05 2.0587e-05)
(7.0499e-05 9.4878e-06 1.5969e-05)
(7.0628e-05 6.8254e-06 1.1483e-05)
(7.0189e-05 4.3215e-06 7.2636e-06)
(6.9206e-05 2.0411e-06 3.4207e-06)
(6.7736e-05 4.8533e-08 6.269e-08)
(6.585e-05 -1.5843e-06 -2.6888e-06)
(6.3626e-05 -2.7871e-06 -4.7152e-06)
(6.1127e-05 -3.51e-06 -5.9324e-06)
(5.8394e-05 -3.7418e-06 -6.3212e-06)
(5.5448e-05 -3.5235e-06 -5.9505e-06)
(5.2297e-05 -2.9556e-06 -4.9896e-06)
(4.8952e-05 -2.1877e-06 -3.6913e-06)
(6.9786e-05 -1.6523e-05 -1.6521e-05)
(7.0477e-05 -1.2821e-05 -1.282e-05)
(7.0606e-05 -9.2245e-06 -9.2231e-06)
(7.0168e-05 -5.8419e-06 -5.8408e-06)
(6.9188e-05 -2.7613e-06 -2.7603e-06)
(6.772e-05 -6.9887e-08 -6.9176e-08)
(6.5837e-05 2.1351e-06 2.1356e-06)
(6.3616e-05 3.759e-06 3.7594e-06)
(6.1118e-05 4.7354e-06 4.7357e-06)
(5.8386e-05 5.0493e-06 5.0496e-06)
(5.544e-05 4.7563e-06 4.7565e-06)
(5.2289e-05 3.9916e-06 3.9918e-06)
(4.8946e-05 2.9568e-06 2.957e-06)
(6.957e-05 -1.1869e-05 -1.1867e-05)
(7.0252e-05 -9.2271e-06 -9.2251e-06)
(7.0381e-05 -6.6568e-06 -6.6552e-06)
(6.9953e-05 -4.2387e-06 -4.2373e-06)
(6.8993e-05 -2.0382e-06 -2.0372e-06)
(6.7553e-05 -1.1931e-07 -1.1853e-07)
(6.5698e-05 1.4504e-06 1.4509e-06)
(6.3501e-05 2.6068e-06 2.6071e-06)
(6.1021e-05 3.3057e-06 3.3059e-06)
(5.83e-05 3.5393e-06 3.5395e-06)
(5.5361e-05 3.3486e-06 3.3487e-06)
(5.2218e-05 2.8284e-06 2.8285e-06)
(4.8888e-05 2.1177e-06 2.1179e-06)
(6.9459e-05 -8.176e-06 -8.1733e-06)
(7.0137e-05 -6.3627e-06 -6.3603e-06)
(7.0266e-05 -4.5971e-06 -4.5952e-06)
(6.9844e-05 -2.9355e-06 -2.9339e-06)
(6.8895e-05 -1.4239e-06 -1.4227e-06)
(6.7468e-05 -1.065e-07 -1.0567e-07)
(6.5628e-05 9.7047e-07 9.7099e-07)
(6.3443e-05 1.7641e-06 1.7644e-06)
(6.0971e-05 2.2451e-06 2.2452e-06)
(5.8256e-05 2.409e-06 2.409e-06)
(5.532e-05 2.2844e-06 2.2843e-06)
(5.2181e-05 1.9358e-06 1.9358e-06)
(4.8859e-05 1.4571e-06 1.4571e-06)
(6.9391e-05 -4.1955e-06 -4.1921e-06)
(7.0067e-05 -3.2668e-06 -3.2639e-06)
(7.0196e-05 -2.3624e-06 -2.36e-06)
(6.9777e-05 -1.511e-06 -1.5092e-06)
(6.8834e-05 -7.3672e-07 -7.3538e-07)
(6.7415e-05 -6.225e-08 -6.1377e-08)
(6.5584e-05 4.8892e-07 4.8939e-07)
(6.3406e-05 8.9511e-07 8.9528e-07)
(6.094e-05 1.1417e-06 1.1417e-06)
(5.8228e-05 1.2267e-06 1.2265e-06)
(5.5295e-05 1.1648e-06 1.1646e-06)
(5.2159e-05 9.89e-07 9.8885e-07)
(4.8841e-05 7.4671e-07 7.4664e-07)
(6.9368e-05 -3.1718e-10 3.7603e-09)
(7.0043e-05 -3.0536e-10 3.1336e-09)
(7.0172e-05 -2.8863e-10 2.4841e-09)
(6.9754e-05 -2.7257e-10 1.8367e-09)
(6.8813e-05 -2.604e-10 1.2175e-09)
(6.7397e-05 -2.5501e-10 6.5267e-10)
(6.5569e-05 -2.5991e-10 1.6626e-10)
(6.3394e-05 -2.7763e-10 -2.2257e-10)
(6.093e-05 -3.0789e-10 -5.0284e-10)
(5.8219e-05 -3.4729e-10 -6.7336e-10)
(5.5287e-05 -3.9144e-10 -7.423e-10)
(5.2151e-05 -4.3509e-10 -7.2747e-10)
(4.8834e-05 -4.717e-10 -6.5528e-10)
(6.9391e-05 4.196e-06 4.1996e-06)
(7.0067e-05 3.2671e-06 3.2702e-06)
(7.0196e-05 2.3624e-06 2.365e-06)
(6.9777e-05 1.5109e-06 1.5129e-06)
(6.8834e-05 7.3641e-07 7.3781e-07)
(6.7415e-05 6.1768e-08 6.2674e-08)
(6.5584e-05 -4.8956e-07 -4.8907e-07)
(6.3406e-05 -8.9589e-07 -8.9573e-07)
(6.094e-05 -1.1426e-06 -1.1427e-06)
(5.8228e-05 -1.2277e-06 -1.2279e-06)
(5.5295e-05 -1.1659e-06 -1.1661e-06)
(5.2159e-05 -9.9012e-07 -9.903e-07)
(4.8841e-05 -7.4785e-07 -7.4795e-07)
(6.9459e-05 8.1798e-06 8.1774e-06)
(7.0137e-05 6.3655e-06 6.3639e-06)
(7.0266e-05 4.599e-06 4.5982e-06)
(6.9844e-05 2.9366e-06 2.9363e-06)
(6.8895e-05 1.4241e-06 1.4245e-06)
(6.7467e-05 1.0609e-07 1.069e-07)
(6.5627e-05 -9.7145e-07 -9.7029e-07)
(6.3443e-05 -1.7655e-06 -1.7641e-06)
(6.0971e-05 -2.2469e-06 -2.2453e-06)
(5.8256e-05 -2.4109e-06 -2.4094e-06)
(5.532e-05 -2.2863e-06 -2.2849e-06)
(5.2181e-05 -1.9377e-06 -1.9365e-06)
(4.8859e-05 -1.4588e-06 -1.4578e-06)
(6.9569e-05 1.1873e-05 1.1867e-05)
(7.0252e-05 9.2299e-06 9.2259e-06)
(7.038e-05 6.6588e-06 6.6561e-06)
(6.9952e-05 4.2398e-06 4.2384e-06)
(6.8993e-05 2.0386e-06 2.0383e-06)
(6.7552e-05 1.1895e-07 1.1967e-07)
(6.5698e-05 -1.4513e-06 -1.4499e-06)
(6.3501e-05 -2.6082e-06 -2.6062e-06)
(6.1021e-05 -3.3074e-06 -3.3051e-06)
(5.83e-05 -3.5412e-06 -3.5388e-06)
(5.5361e-05 -3.3505e-06 -3.3483e-06)
(5.2218e-05 -2.8303e-06 -2.8284e-06)
(4.8888e-05 -2.1194e-06 -2.1179e-06)
(6.9785e-05 1.6523e-05 1.6521e-05)
(7.0476e-05 1.2822e-05 1.2821e-05)
(7.0606e-05 9.2248e-06 9.2242e-06)
(7.0167e-05 5.8419e-06 5.8419e-06)
(6.9187e-05 2.7611e-06 2.7615e-06)
(6.772e-05 6.952e-08 7.0238e-08)
(6.5837e-05 -2.1356e-06 -2.1346e-06)
(6.3615e-05 -3.7597e-06 -3.7586e-06)
(6.1118e-05 -4.7362e-06 -4.735e-06)
(5.8386e-05 -5.0503e-06 -5.0491e-06)
(5.544e-05 -4.7574e-06 -4.7562e-06)
(5.2289e-05 -3.9927e-06 -3.9917e-06)
(4.8946e-05 -2.9579e-06 -2.9571e-06)
(6.9807e-05 -1.2227e-05 -2.0586e-05)
(7.0499e-05 -9.4876e-06 -1.5968e-05)
(7.0628e-05 -6.8254e-06 -1.1481e-05)
(7.0189e-05 -4.3217e-06 -7.2622e-06)
(6.9207e-05 -2.0414e-06 -3.4194e-06)
(6.7736e-05 -4.8958e-08 -6.166e-08)
(6.5851e-05 1.5837e-06 2.6896e-06)
(6.3627e-05 2.7864e-06 4.7158e-06)
(6.1127e-05 3.5092e-06 5.9328e-06)
(5.8395e-05 3.7409e-06 6.3214e-06)
(5.5448e-05 3.5225e-06 5.9506e-06)
(5.2297e-05 2.9545e-06 4.9895e-06)
(4.8952e-05 2.1866e-06 3.691e-06)
(6.9591e-05 -7.8734e-06 -1.5744e-05)
(7.0274e-05 -6.1202e-06 -1.2236e-05)
(7.0402e-05 -4.4148e-06 -8.8234e-06)
(6.9973e-05 -2.8103e-06 -5.6129e-06)
(6.9012e-05 -1.3503e-06 -2.6912e-06)
(6.7569e-05 -7.6902e-08 -1.4286e-07)
(6.5712e-05 9.6488e-07 1.942e-06)
(6.3512e-05 1.7324e-06 3.4778e-06)
(6.1031e-05 2.1961e-06 4.4053e-06)
(5.8308e-05 2.3506e-06 4.7137e-06)
(5.5369e-05 2.2231e-06 4.4572e-06)
(5.2225e-05 1.8767e-06 3.7622e-06)
(4.8894e-05 1.4038e-06 2.8138e-06)
(6.9481e-05 -4.0596e-06 -1.2168e-05)
(7.016e-05 -3.1589e-06 -9.4668e-06)
(7.0289e-05 -2.2819e-06 -6.837e-06)
(6.9866e-05 -1.4567e-06 -4.362e-06)
(6.8914e-05 -7.0586e-07 -2.1103e-06)
(6.7485e-05 -5.1464e-08 -1.476e-07)
(6.5642e-05 4.8359e-07 1.4571e-06)
(6.3454e-05 8.7786e-07 2.6396e-06)
(6.0981e-05 1.1167e-06 3.3557e-06)
(5.8265e-05 1.1978e-06 3.5986e-06)
(5.5329e-05 1.1354e-06 3.4106e-06)
(5.2189e-05 9.6151e-07 2.8882e-06)
(4.8865e-05 7.2293e-07 2.1717e-06)
(6.9414e-05 4.0333e-09 -8.3038e-06)
(7.009e-05 3.06e-09 -6.464e-06)
(7.0219e-05 2.1215e-09 -4.6725e-06)
(6.9799e-05 1.2441e-09 -2.9863e-06)
(6.8854e-05 4.5041e-10 -1.4525e-06)
(6.7433e-05 -2.402e-10 -1.1625e-07)
(6.5598e-05 -8.0967e-10 9.7583e-07)
(6.3418e-05 -1.2409e-09 1.7806e-06)
(6.0951e-05 -1.5205e-09 2.2689e-06)
(5.8237e-05 -1.6444e-09 2.4365e-06)
(5.5304e-05 -1.6244e-09 2.3124e-06)
(5.2167e-05 -1.4888e-09 1.9621e-06)
(4.8847e-05 -1.278e-09 1.4801e-06)
(6.9391e-05 4.1971e-06 -4.1943e-06)
(7.0067e-05 3.2679e-06 -3.2656e-06)
(7.0196e-05 2.363e-06 -2.3612e-06)
(6.9777e-05 1.5112e-06 -1.5099e-06)
(6.8834e-05 7.3654e-07 -7.357e-07)
(6.7415e-05 6.1724e-08 -6.1352e-08)
(6.5584e-05 -4.8974e-07 4.897e-07)
(6.3406e-05 -8.9618e-07 8.9578e-07)
(6.094e-05 -1.143e-06 1.1423e-06)
(5.8228e-05 -1.2281e-06 1.2272e-06)
(5.5295e-05 -1.1662e-06 1.1653e-06)
(5.2159e-05 -9.9042e-07 9.8939e-07)
(4.8841e-05 -7.4809e-07 7.4706e-07)
(6.9414e-05 8.3061e-06 5.1078e-09)
(7.009e-05 6.4659e-06 4.1997e-09)
(7.0219e-05 4.674e-06 3.2743e-09)
(6.9799e-05 2.9874e-06 2.3652e-09)
(6.8854e-05 1.4532e-06 1.5062e-09)
(6.7433e-05 1.1659e-07 7.3082e-10)
(6.5598e-05 -9.7584e-07 7.0869e-11)
(6.3418e-05 -1.7809e-06 -4.478e-10)
(6.0951e-05 -2.2694e-06 -8.0945e-10)
(5.8237e-05 -2.4372e-06 -1.0106e-09)
(5.5304e-05 -2.3133e-06 -1.0624e-09)
(5.2167e-05 -1.9631e-06 -9.9335e-10)
(4.8847e-05 -1.481e-06 -8.4656e-10)
(6.9481e-05 1.2174e-05 4.0686e-06)
(7.016e-05 9.4712e-06 3.166e-06)
(7.0289e-05 6.8403e-06 2.2872e-06)
(6.9865e-05 4.3643e-06 1.4602e-06)
(6.8914e-05 2.1116e-06 7.0781e-07)
(6.7484e-05 1.4802e-07 5.1986e-08)
(6.5642e-05 -1.4574e-06 -4.8426e-07)
(6.3454e-05 -2.6405e-06 -8.7946e-07)
(6.0981e-05 -3.3571e-06 -1.1189e-06)
(5.8264e-05 -3.6002e-06 -1.2004e-06)
(5.5328e-05 -3.4122e-06 -1.138e-06)
(5.2189e-05 -2.8899e-06 -9.6392e-07)
(4.8865e-05 -2.1732e-06 -7.2501e-07)
(6.959e-05 1.5749e-05 7.8735e-06)
(7.0273e-05 1.224e-05 6.1205e-06)
(7.0402e-05 8.8262e-06 4.4151e-06)
(6.9973e-05 5.6149e-06 2.8107e-06)
(6.9012e-05 2.6924e-06 1.3507e-06)
(6.7568e-05 1.4332e-07 7.7324e-08)
(6.5712e-05 -1.9422e-06 -9.645e-07)
(6.3512e-05 -3.4785e-06 -1.7321e-06)
(6.103e-05 -4.4064e-06 -2.1959e-06)
(5.8308e-05 -4.715e-06 -2.3506e-06)
(5.5369e-05 -4.4586e-06 -2.2232e-06)
(5.2225e-05 -3.7636e-06 -1.877e-06)
(4.8894e-05 -2.8151e-06 -1.4043e-06)
(6.9806e-05 2.0586e-05 1.2225e-05)
(7.0499e-05 1.5968e-05 9.4859e-06)
(7.0628e-05 1.1482e-05 6.8243e-06)
(7.0189e-05 7.2628e-06 4.3212e-06)
(6.9206e-05 3.4199e-06 2.0414e-06)
(6.7736e-05 6.2028e-08 4.9323e-08)
(6.585e-05 -2.6894e-06 -1.5831e-06)
(6.3626e-05 -4.7157e-06 -2.7856e-06)
(6.1127e-05 -5.9329e-06 -3.5084e-06)
(5.8394e-05 -6.3216e-06 -3.7401e-06)
(5.5448e-05 -5.9509e-06 -3.522e-06)
(5.2297e-05 -4.9899e-06 -2.9543e-06)
(4.8952e-05 -3.6916e-06 -2.1867e-06)
(6.9869e-05 -7.8225e-06 -2.4303e-05)
(7.0564e-05 -6.0667e-06 -1.8836e-05)
(7.0693e-05 -4.3609e-06 -1.3527e-05)
(7.0251e-05 -2.7567e-06 -8.5358e-06)
(6.9263e-05 -1.2953e-06 -3.9886e-06)
(6.7784e-05 -1.7878e-08 -1.3006e-08)
(6.589e-05 1.0296e-06 3.2461e-06)
(6.3659e-05 1.8014e-06 5.6459e-06)
(6.1155e-05 2.2645e-06 7.0844e-06)
(5.842e-05 2.4108e-06 7.5367e-06)
(5.5473e-05 2.2666e-06 7.0836e-06)
(5.232e-05 1.8973e-06 5.9266e-06)
(4.8971e-05 1.3997e-06 4.3688e-06)
(6.9652e-05 -3.8755e-06 -1.9402e-05)
(7.0338e-05 -3.0111e-06 -1.5069e-05)
(7.0466e-05 -2.1704e-06 -1.0856e-05)
(7.0034e-05 -1.3797e-06 -6.8921e-06)
(6.9067e-05 -6.5995e-07 -3.2843e-06)
(6.7616e-05 -3.1985e-08 -1.3589e-07)
(6.5751e-05 4.82e-07 2.4409e-06)
(6.3545e-05 8.6067e-07 4.3388e-06)
(6.1058e-05 1.0891e-06 5.483e-06)
(5.8333e-05 1.1643e-06 5.8586e-06)
(5.5392e-05 1.0996e-06 5.5321e-06)
(5.2246e-05 9.2649e-07 4.6603e-06)
(4.8911e-05 6.9085e-07 3.4745e-06)
(6.9546e-05 8.9963e-09 -1.593e-05)
(7.0227e-05 6.9055e-09 -1.2386e-05)
(7.0356e-05 4.8806e-09 -8.9366e-06)
(6.993e-05 2.9838e-09 -5.6909e-06)
(6.8972e-05 1.2686e-09 -2.7373e-06)
(6.7535e-05 -2.1967e-10 -1.6166e-07)
(6.5683e-05 -1.438e-09 1.9451e-06)
(6.3489e-05 -2.345e-09 3.4972e-06)
(6.1011e-05 -2.9111e-09 4.4356e-06)
(5.8291e-05 -3.1319e-09 4.75e-06)
(5.5353e-05 -3.0372e-09 4.4954e-06)
(5.2211e-05 -2.6932e-09 3.7994e-06)
(4.8882e-05 -2.1961e-09 2.8478e-06)
(6.9481e-05 4.0674e-06 -1.2172e-05)
(7.016e-05 3.1647e-06 -9.4701e-06)
(7.0289e-05 2.286e-06 -6.8393e-06)
(6.9865e-05 1.459e-06 -4.3635e-06)
(6.8914e-05 7.0667e-07 -2.111e-06)
(6.7484e-05 5.0935e-08 -1.4764e-07)
(6.5642e-05 -4.8522e-07 1.4576e-06)
(6.3454e-05 -8.8032e-07 2.6404e-06)
(6.0981e-05 -1.1197e-06 3.3569e-06)
(5.8265e-05 -1.2011e-06 3.5998e-06)
(5.5329e-05 -1.1386e-06 3.4117e-06)
(5.2189e-05 -9.6446e-07 2.8892e-06)
(4.8865e-05 -7.2548e-07 2.1725e-06)
(6.9459e-05 8.1756e-06 -8.1787e-06)
(7.0137e-05 6.3621e-06 -6.3645e-06)
(7.0266e-05 4.5966e-06 -4.5981e-06)
(6.9844e-05 2.9349e-06 -2.9358e-06)
(6.8895e-05 1.4233e-06 -1.4235e-06)
(6.7468e-05 1.0588e-07 -1.0563e-07)
(6.5628e-05 -9.7111e-07 9.7174e-07)
(6.3443e-05 -1.7648e-06 1.7656e-06)
(6.0971e-05 -2.2458e-06 2.2468e-06)
(5.8256e-05 -2.4098e-06 2.4107e-06)
(5.532e-05 -2.2853e-06 2.2859e-06)
(5.2181e-05 -1.9368e-06 1.9372e-06)
(4.8859e-05 -1.4581e-06 1.4582e-06)
(6.9481e-05 1.217e-05 -4.0601e-06)
(7.016e-05 9.468e-06 -3.1589e-06)
(7.0289e-05 6.8379e-06 -2.2817e-06)
(6.9865e-05 4.3627e-06 -1.4561e-06)
(6.8914e-05 2.1107e-06 -7.0505e-07)
(6.7484e-05 1.4783e-07 -5.0482e-08)
(6.5642e-05 -1.4571e-06 4.8469e-07)
(6.3454e-05 -2.6398e-06 8.7903e-07)
(6.0981e-05 -3.3561e-06 1.1179e-06)
(5.8265e-05 -3.5991e-06 1.199e-06)
(5.5328e-05 -3.4112e-06 1.1364e-06)
(5.2189e-05 -2.889e-06 9.6241e-07)
(4.8865e-05 -2.1725e-06 7.2368e-07)
(6.9546e-05 1.5931e-05 9.4601e-09)
(7.0227e-05 1.2387e-05 7.6042e-09)
(7.0356e-05 8.9373e-06 5.754e-09)
(6.9929e-05 5.6915e-06 3.973e-09)
(6.8972e-05 2.7377e-06 2.3223e-09)
(6.7534e-05 1.6193e-07 8.5948e-10)
(6.5683e-05 -1.945e-06 -3.609e-10)
(6.3489e-05 -3.4973e-06 -1.2933e-09)
(6.1011e-05 -4.4358e-06 -1.9095e-09)
(5.8291e-05 -4.7503e-06 -2.2034e-09)
(5.5353e-05 -4.4959e-06 -2.1986e-09)
(5.2211e-05 -3.8e-06 -1.9559e-09)
(4.8882e-05 -2.8485e-06 -1.5681e-09)
(6.9651e-05 1.9404e-05 3.8881e-06)
(7.0337e-05 1.507e-05 3.021e-06)
(7.0466e-05 1.0857e-05 2.1778e-06)
(7.0034e-05 6.8929e-06 1.3845e-06)
(6.9067e-05 3.2849e-06 6.6254e-07)
(6.7616e-05 1.3626e-07 3.2555e-08)
(6.5751e-05 -2.4407e-06 -4.831e-07)
(6.3545e-05 -4.3389e-06 -8.6305e-07)
(6.1058e-05 -5.4832e-06 -1.0923e-06)
(5.8333e-05 -5.859e-06 -1.1679e-06)
(5.5392e-05 -5.5326e-06 -1.1033e-06)
(5.2246e-05 -4.661e-06 -9.2976e-07)
(4.8911e-05 -3.4753e-06 -6.9358e-07)
(6.9869e-05 2.4303e-05 7.825e-06)
(7.0564e-05 1.8836e-05 6.0687e-06)
(7.0693e-05 1.3527e-05 4.3625e-06)
(7.0251e-05 8.536e-06 2.7579e-06)
(6.9262e-05 3.9889e-06 1.2962e-06)
(6.7784e-05 1.3353e-08 1.8299e-08)
(6.589e-05 -3.2457e-06 -1.0295e-06)
(6.3659e-05 -5.6456e-06 -1.8016e-06)
(6.1155e-05 -7.0842e-06 -2.265e-06)