/*--------------------------------*- C++ -*----------------------------------*\
| =========                 |                                                 |
| \\      /  F ield         | OpenFOAM: The Open Source CFD Toolbox           |
|  \\    /   O peration     | Version:  4.1                                   |
|   \\  /    A nd           | Web:      www.OpenFOAM.org                      |
|    \\/     M anipulation  |                                                 |
\*---------------------------------------------------------------------------*/
FoamFile
{
    version     2.0;
    format      ascii;
    class       volVectorField;
    location    "0.0080";
    object      U;
}
// * * * * * * * * * * * * * * * * * * * * * * * * * * * * * * * * * * * * * //

dimensions      [0 1 -1 0 0 0 0];

internalField   nonuniform List<vector> 
1536
(
(0.093541 0.028982 1.6024e-06)
(0.072016 0.027556 1.8707e-06)
(0.051414 0.025311 1.0061e-06)
(0.032332 0.022351 5.7395e-07)
(0.015334 0.018665 -4.044e-08)
(0.00075588 0.014155 -6.7646e-07)
(-0.010497 0.0091295 -4.2717e-07)
(-0.017977 0.0041034 -6.7391e-07)
(-0.022673 -0.0001397 -6.8464e-07)
(-0.024475 -0.0029974 -6.8392e-07)
(-0.022976 -0.0050821 4.4165e-07)
(-0.019187 -0.0066869 -9.015e-07)
(0.093487 0.01966 -0.0021359)
(0.072196 0.018905 -0.00164)
(0.051788 0.017565 -0.0010808)
(0.032873 0.015708 -0.00046029)
(0.016016 0.013363 0.00022935)
(0.0015409 0.010554 0.0010007)
(-0.0097315 0.0073852 0.001723)
(-0.017302 0.0046856 0.0023043)
(-0.021921 0.002349 0.0025281)
(-0.02368 1.2673e-06 0.001913)
(-0.022314 -0.002047 0.0013824)
(-0.018777 -0.0032837 0.0011965)
(0.09345 0.016378 -0.0053091)
(0.072314 0.015795 -0.0048748)
(0.052042 0.014729 -0.004276)
(0.033247 0.013231 -0.0035327)
(0.016502 0.011321 -0.0026528)
(0.0021658 0.009036 -0.001654)
(-0.0090644 0.006339 -0.00066256)
(-0.016647 0.0040414 0.00014829)
(-0.021097 0.0018806 0.00071992)
(-0.022765 -0.00032681 0.00078641)
(-0.021729 -0.0021444 0.00087038)
(-0.01854 -0.00322 0.0011786)
(0.093422 0.012044 -0.0086269)
(0.072365 0.011509 -0.008133)
(0.052163 0.010604 -0.0073783)
(0.033431 0.0093694 -0.0063924)
(0.01674 0.0078215 -0.0051887)
(0.002468 0.0060039 -0.0037917)
(-0.0087469 0.003898 -0.0022429)
(-0.016355 0.0021392 -0.00095665)
(-0.02078 0.00062768 8.2295e-05)
(-0.022499 -0.00068283 0.0008376)
(-0.021543 -0.0016703 0.0015186)
(-0.018418 -0.0024098 0.0019693)
(0.093422 0.0086284 -0.012041)
(0.072365 0.0081351 -0.011505)
(0.052164 0.0073801 -0.010602)
(0.033432 0.0063937 -0.0093678)
(0.01674 0.0051885 -0.0078216)
(0.0024684 0.0037898 -0.0060061)
(-0.0087466 0.0022408 -0.0039001)
(-0.016355 0.00095345 -0.0021421)
(-0.02078 -8.6027e-05 -0.00063039)
(-0.022499 -0.0008403 0.0006806)
(-0.021543 -0.001521 0.0016688)
(-0.018418 -0.0019736 0.0024065)
(0.093449 0.0053096 -0.016375)
(0.072314 0.0048768 -0.015791)
(0.052043 0.0042782 -0.014726)
(0.033248 0.0035339 -0.013228)
(0.016504 0.0026532 -0.01132)
(0.0021666 0.0016541 -0.0090349)
(-0.009064 0.00066031 -0.0063393)
(-0.016647 -0.00015105 -0.004042)
(-0.021097 -0.00072325 -0.0018815)
(-0.022766 -0.00078926 0.00032676)
(-0.021728 -0.00087312 0.0021432)
(-0.018539 -0.0011822 0.0032174)
(0.093487 0.0021328 -0.019657)
(0.072195 0.0016397 -0.018901)
(0.051789 0.0010811 -0.017562)
(0.032874 0.00046036 -0.015706)
(0.016017 -0.0002308 -0.013363)
(0.0015425 -0.0010019 -0.010554)
(-0.0097299 -0.0017252 -0.0073854)
(-0.017302 -0.0023072 -0.0046851)
(-0.021921 -0.0025316 -0.0023478)
(-0.023681 -0.0019157 -3.1529e-07)
(-0.022313 -0.0013853 0.0020478)
(-0.018777 -0.0012032 0.0032805)
(0.093541 -3.3774e-06 -0.028979)
(0.072015 -2.7666e-06 -0.027555)
(0.051415 -2.4588e-06 -0.025311)
(0.032335 -2.1963e-06 -0.02235)
(0.015336 -1.9098e-06 -0.018664)
(0.0007569 -1.7973e-06 -0.014154)
(-0.010496 -8.0452e-07 -0.0091255)
(-0.017977 -1.0879e-06 -0.004098)
(-0.022674 -1.2271e-06 0.00014643)
(-0.024475 -1.9267e-06 0.0030001)
(-0.022973 -2.6997e-06 0.0050839)
(-0.019186 -3.1291e-06 0.0066877)
(0.093487 0.019661 0.0021392)
(0.072196 0.018906 0.0016437)
(0.051788 0.017566 0.0010834)
(0.032873 0.01571 0.00046196)
(0.016016 0.013365 -0.00022866)
(0.0015413 0.010555 -0.0010006)
(-0.0097308 0.0073869 -0.0017235)
(-0.017302 0.0046873 -0.0023058)
(-0.02192 0.0023507 -0.0025301)
(-0.023679 2.7541e-06 -0.0019154)
(-0.022313 -0.0020447 -0.001383)
(-0.018777 -0.0032813 -0.0011981)
(0.093449 0.016361 1.5294e-06)
(0.072291 0.016014 1.3765e-06)
(0.052007 0.015186 1.5477e-06)
(0.033209 0.013926 9.5164e-07)
(0.016462 0.012273 3.3129e-07)
(0.0020958 0.010282 -2.5842e-07)
(-0.0092026 0.0078158 -5.3716e-07)
(-0.016903 0.0057409 -6.0938e-07)
(-0.021548 0.003757 -8.3544e-07)
(-0.02323 0.0013228 -8.7821e-07)
(-0.021947 -0.00094316 2.3937e-07)
(-0.018659 -0.002188 -7.8716e-07)
(0.093473 0.01308 -0.0023194)
(0.072462 0.012762 -0.0022372)
(0.052308 0.012047 -0.0020806)
(0.033627 0.010977 -0.0018605)
(0.016981 0.0095817 -0.0015873)
(0.0027457 0.0079292 -0.0012821)
(-0.0085034 0.0058714 -0.00098615)
(-0.016222 0.0040692 -0.0007721)
(-0.020738 0.0024094 -0.00071542)
(-0.022423 0.00046881 -0.00074925)
(-0.021425 -0.0011478 -0.00048593)
(-0.018434 -0.0021687 -0.0002391)
(0.093461 0.009267 -0.0058846)
(0.072524 0.0090107 -0.0056993)
(0.052436 0.0084687 -0.0053365)
(0.033815 0.007672 -0.0048168)
(0.017219 0.0066449 -0.0041582)
(0.003044 0.0054412 -0.003394)
(-0.0081838 0.0039942 -0.0025158)
(-0.015933 0.0027134 -0.0017455)
(-0.020464 0.0016541 -0.0011521)
(-0.02222 0.00054414 -0.00050399)
(-0.021294 -0.00047723 0.00029251)
(-0.018336 -0.0011837 0.00077768)
(0.093461 0.0058851 -0.0092651)
(0.072524 0.0057005 -0.0090083)
(0.052436 0.0053374 -0.0084668)
(0.033815 0.0048174 -0.0076709)
(0.017219 0.0041581 -0.0066447)
(0.0030442 0.0033932 -0.0054422)
(-0.0081836 0.0025147 -0.0039956)
(-0.015933 0.0017439 -0.0027154)
(-0.020464 0.0011502 -0.0016565)
(-0.02222 0.00050192 -0.00054623)
(-0.021294 -0.00029506 0.00047564)
(-0.018336 -0.00078153 0.0011803)
(0.093473 0.0023186 -0.013078)
(0.072462 0.0022371 -0.012759)
(0.052308 0.0020805 -0.012045)
(0.033627 0.0018601 -0.010975)
(0.016982 0.0015871 -0.009581)
(0.0027462 0.0012826 -0.0079301)
(-0.0085031 0.00098554 -0.0058726)
(-0.016222 0.00077172 -0.0040713)
(-0.020738 0.00071453 -0.0024117)
(-0.022423 0.00074759 -0.00047029)
(-0.021425 0.00048301 0.0011455)
(-0.018433 0.00023546 0.0021655)
(0.093449 -5.3237e-06 -0.016359)
(0.072291 -4.5234e-06 -0.01601)
(0.052007 -3.7701e-06 -0.015182)
(0.03321 -2.8586e-06 -0.013924)
(0.016462 -1.827e-06 -0.012272)
(0.0020967 -1.2783e-06 -0.010282)
(-0.0092018 -1.1247e-07 -0.0078174)
(-0.016902 -8.7742e-07 -0.0057429)
(-0.021548 -1.3634e-06 -0.00376)
(-0.023229 -1.716e-06 -0.001324)
(-0.021946 -4.1851e-06 0.00094289)
(-0.018658 -4.6187e-06 0.0021855)
(0.093486 -0.0021404 -0.019656)
(0.072194 -0.0016454 -0.018901)
(0.051789 -0.0010858 -0.017562)
(0.032874 -0.00046419 -0.015707)
(0.016017 0.00022769 -0.013364)
(0.0015423 0.0010002 -0.010556)
(-0.0097299 0.0017238 -0.0073864)
(-0.017301 0.002306 -0.0046871)
(-0.02192 0.0025292 -0.00235)
(-0.023679 0.0019122 -2.4159e-06)
(-0.022311 0.0013791 0.0020463)
(-0.018775 0.0011947 0.0032777)
(0.093449 0.016379 0.0053127)
(0.072314 0.015797 0.0048783)
(0.052041 0.014731 0.0042773)
(0.033247 0.013232 0.0035336)
(0.016502 0.011323 0.0026531)
(0.002166 0.0090368 0.0016543)
(-0.0090645 0.0063404 0.00066201)
(-0.016647 0.0040425 -0.0001496)
(-0.021096 0.0018816 -0.00072118)
(-0.022764 -0.00032583 -0.00078819)
(-0.021729 -0.0021421 -0.0008717)
(-0.018539 -0.003218 -0.0011796)
(0.093472 0.013082 0.0023227)
(0.072462 0.012764 0.0022406)
(0.052308 0.012049 0.002083)
(0.033627 0.010979 0.0018619)
(0.016982 0.0095834 0.0015881)
(0.0027462 0.0079314 0.0012828)
(-0.0085027 0.0058734 0.00098597)
(-0.016221 0.0040709 0.00077147)
(-0.020738 0.0024109 0.00071451)
(-0.022422 0.00047042 0.00074818)
(-0.021424 -0.0011454 0.00048506)
(-0.018433 -0.002167 0.00023812)
(0.093512 0.009924 1.5245e-06)
(0.072644 0.0096771 8.4756e-07)
(0.052614 0.0091301 1.1252e-06)
(0.034042 0.008313 7.1753e-07)
(0.017488 0.0072468 4.9077e-07)
(0.0033527 0.0059791 4.0308e-07)
(-0.0078607 0.0044116 -3.3428e-08)
(-0.015636 0.0029462 -1.3716e-07)
(-0.020124 0.0016865 -2.1286e-07)
(-0.021753 0.0002215 -4.6858e-07)
(-0.02092 -0.0010617 -3.5725e-07)
(-0.01817 -0.0017747 -1.8182e-07)
(0.09351 0.0064513 -0.0032492)
(0.072715 0.0062791 -0.0031588)
(0.05275 0.0059107 -0.0029735)
(0.034235 0.0053657 -0.0027035)
(0.017729 0.0046584 -0.0023566)
(0.0036445 0.0038179 -0.0019458)
(-0.0075458 0.0028047 -0.0014601)
(-0.015358 0.0018195 -0.00098118)
(-0.019875 0.0010178 -0.00058671)
(-0.021552 0.00011315 -8.7908e-05)
(-0.020776 -0.00067627 0.00045724)
(-0.018075 -0.0011322 0.00070202)
(0.09351 0.0032485 -0.0064506)
(0.072715 0.0031591 -0.0062781)
(0.05275 0.0029733 -0.0059099)
(0.034235 0.0027031 -0.0053654)
(0.017729 0.0023556 -0.0046588)
(0.0036447 0.0019443 -0.0038189)
(-0.0075456 0.0014584 -0.0028062)
(-0.015357 0.00097902 -0.0018213)
(-0.019875 0.00058441 -0.0010201)
(-0.021551 8.5152e-05 -0.00011547)
(-0.020776 -0.00046027 0.00067389)
(-0.018075 -0.00070662 0.0011283)
(0.093512 -3.3568e-06 -0.0099229)
(0.072644 -2.8441e-06 -0.0096757)
(0.052615 -2.2729e-06 -0.0091285)
(0.034042 -1.9236e-06 -0.008312)
(0.017488 -1.398e-06 -0.007246)
(0.003353 -9.3356e-07 -0.0059794)
(-0.0078604 -1.1073e-06 -0.0044125)
(-0.015636 -1.4365e-06 -0.0029479)
(-0.020124 -1.9901e-06 -0.0016883)
(-0.021753 -2.1657e-06 -0.00022317)
(-0.020919 -3.5701e-06 0.0010589)
(-0.018169 -4.5242e-06 0.0017708)
(0.093472 -0.0023267 -0.01308)
(0.072461 -0.0022437 -0.012761)
(0.052308 -0.0020857 -0.012047)
(0.033628 -0.0018646 -0.010978)
(0.016982 -0.0015903 -0.0095837)
(0.0027469 -0.0012846 -0.0079316)
(-0.0085019 -0.00098776 -0.0058749)
(-0.01622 -0.00077405 -0.0040723)
(-0.020737 -0.00071784 -0.0024128)
(-0.022421 -0.00075185 -0.00047186)
(-0.021423 -0.00049041 0.0011437)
(-0.018432 -0.00024415 0.0021638)
(0.093448 -0.0053138 -0.016377)
(0.072313 -0.0048792 -0.015794)
(0.052042 -0.0042803 -0.014728)
(0.033248 -0.003536 -0.01323)
(0.016503 -0.0026562 -0.011321)
(0.0021665 -0.0016559 -0.009037)
(-0.0090637 -0.00066338 -0.0063411)
(-0.016646 0.00014839 -0.0040432)
(-0.021096 0.00071941 -0.0018828)
(-0.022764 0.00078425 0.0003244)
(-0.021727 0.00086729 0.0021419)
(-0.018538 0.0011751 0.0032163)
(0.093421 0.012044 0.0086298)
(0.072364 0.011509 0.0081352)
(0.052162 0.010605 0.0073791)
(0.033431 0.0093696 0.006393)
(0.016739 0.0078217 0.0051885)
(0.0024674 0.0060045 0.0037904)
(-0.0087476 0.0038983 0.0022414)
(-0.016356 0.002139 0.00095466)
(-0.020781 0.00062706 -8.4272e-05)
(-0.022499 -0.00068376 -0.00083921)
(-0.021543 -0.0016704 -0.0015186)
(-0.018419 -0.0024103 -0.0019705)
(0.09346 0.0092681 0.0058877)
(0.072524 0.0090114 0.0057024)
(0.052436 0.0084693 0.0053382)
(0.033814 0.0076728 0.0048178)
(0.017219 0.0066458 0.0041585)
(0.0030437 0.0054422 0.0033937)
(-0.0081839 0.0039947 0.0025149)
(-0.015933 0.0027141 0.0017443)
(-0.020464 0.0016547 0.0011509)
(-0.02222 0.00054446 0.00050306)
(-0.021294 -0.00047598 -0.00029318)
(-0.018335 -0.0011836 -0.0007789)
(0.093509 0.0064512 0.003252)
(0.072714 0.0062791 0.0031613)
(0.052749 0.0059111 0.0029755)
(0.034235 0.005366 0.0027047)
(0.017729 0.0046588 0.002357)
(0.0036446 0.0038184 0.0019457)
(-0.0075458 0.0028049 0.0014596)
(-0.015358 0.00182 0.00098038)
(-0.019875 0.0010182 0.00058596)
(-0.021551 0.00011346 8.7048e-05)
(-0.020776 -0.00067652 -0.00045816)
(-0.018075 -0.0011321 -0.00070256)
(0.093506 0.0031584 1.5695e-06)
(0.072788 0.0030716 1.4899e-06)
(0.052888 0.0028862 8.7782e-07)
(0.034431 0.0026116 5.3189e-07)
(0.017972 0.0022553 9.6783e-08)
(0.0039318 0.0018325 -1.9446e-07)
(-0.0072327 0.0013323 -1.5756e-07)
(-0.015074 0.00082347 -5.2729e-07)
(-0.019624 0.00042151 -4.6113e-07)
(-0.021337 2.0636e-05 -4.869e-07)
(-0.020617 -0.00025582 -3.3045e-07)
(-0.017972 -0.00046489 -3.4962e-07)
(0.093506 -3.0382e-06 -0.0031588)
(0.072788 -2.2313e-06 -0.0030715)
(0.052888 -1.8024e-06 -0.0028863)
(0.034431 -1.4877e-06 -0.0026119)
(0.017972 -1.4242e-06 -0.0022561)
(0.0039319 -1.2254e-06 -0.0018337)
(-0.0072326 -1.3658e-06 -0.0013338)
(-0.015074 -1.4245e-06 -0.00082534)
(-0.019623 -1.93e-06 -0.0004238)
(-0.021336 -2.4982e-06 -2.322e-05)
(-0.020616 -2.9251e-06 0.00025309)
(-0.017972 -4.3073e-06 0.00046085)
(0.093509 -0.0032546 -0.0064511)
(0.072714 -0.0031641 -0.0062791)
(0.05275 -0.0029771 -0.0059106)
(0.034235 -0.0027062 -0.005366)
(0.017729 -0.0023579 -0.0046587)
(0.0036449 -0.0019465 -0.0038191)
(-0.0075455 -0.0014606 -0.002806)
(-0.015357 -0.00098189 -0.0018219)
(-0.019874 -0.00058824 -0.0010204)
(-0.021551 -8.9891e-05 -0.00011552)
(-0.020775 0.00045363 0.00067282)
(-0.018073 0.00069799 0.0011278)
(0.09346 -0.0058913 -0.0092667)
(0.072523 -0.0057051 -0.0090094)
(0.052436 -0.0053411 -0.0084682)
(0.033814 -0.0048205 -0.0076722)
(0.017219 -0.0041611 -0.0066465)
(0.0030444 -0.0033956 -0.0054427)
(-0.0081831 -0.0025165 -0.0039959)
(-0.015932 -0.0017465 -0.0027158)
(-0.020463 -0.0011539 -0.001657)
(-0.022219 -0.00050658 -0.00054631)
(-0.021292 0.000288 0.00047384)
(-0.018335 0.0007729 0.0011795)
(0.09342 -0.0086324 -0.012042)
(0.072364 -0.0081371 -0.011506)
(0.052163 -0.0073821 -0.010603)
(0.033431 -0.0063952 -0.0093687)
(0.01674 -0.0051913 -0.0078222)
(0.0024674 -0.003792 -0.0060054)
(-0.0087468 -0.0022423 -0.0039003)
(-0.016355 -0.00095627 -0.0021411)
(-0.02078 8.1656e-05 -0.00062959)
(-0.022498 0.00083455 0.00068107)
(-0.021541 0.001515 0.0016688)
(-0.018417 0.0019649 0.002407)
(0.093421 0.0086291 0.012043)
(0.072364 0.008136 0.011508)
(0.052162 0.0073801 0.010603)
(0.033431 0.0063937 0.0093684)
(0.016739 0.0051888 0.0078209)
(0.0024675 0.0037902 0.0060044)
(-0.0087475 0.0022405 0.0038989)
(-0.016356 0.00095293 0.0021403)
(-0.020781 -8.6535e-05 0.00062849)
(-0.022498 -0.00084116 -0.0006823)
(-0.021543 -0.0015202 -0.0016693)
(-0.018419 -0.001974 -0.0024072)
(0.09346 0.0058855 0.0092685)
(0.072524 0.005701 0.0090114)
(0.052436 0.0053377 0.0084686)
(0.033814 0.0048178 0.007672)
(0.017219 0.0041586 0.0066452)
(0.0030437 0.0033939 0.0054421)
(-0.0081839 0.0025149 0.0039949)
(-0.015933 0.0017439 0.0027147)
(-0.020464 0.0011501 0.0016557)
(-0.02222 0.00050196 0.00054594)
(-0.021293 -0.00029468 -0.00047487)
(-0.018335 -0.00078178 -0.0011806)
(0.093509 0.0032482 0.0064533)
(0.072714 0.0031585 0.0062802)
(0.052749 0.0029736 0.0059117)
(0.034234 0.0027033 0.0053664)
(0.017729 0.0023561 0.004659)
(0.0036446 0.0019451 0.0038186)
(-0.0075458 0.0014588 0.0028054)
(-0.015357 0.00097943 0.0018206)
(-0.019875 0.00058473 0.0010193)
(-0.021551 8.5443e-05 0.00011475)
(-0.020775 -0.00046056 -0.00067478)
(-0.018075 -0.00070616 -0.0011289)
(0.093506 -3.022e-06 0.0031618)
(0.072788 -2.1995e-06 0.0030742)
(0.052888 -1.6743e-06 0.0028879)
(0.034431 -1.3502e-06 0.0026128)
(0.017972 -1.1402e-06 0.002256)
(0.0039317 -9.5298e-07 0.001833)
(-0.0072327 -1.1071e-06 0.0013331)
(-0.015074 -1.332e-06 0.00082412)
(-0.019623 -1.8299e-06 0.00042269)
(-0.021336 -2.3998e-06 2.2143e-05)
(-0.020616 -2.8498e-06 -0.00025364)
(-0.017972 -4.095e-06 -0.00046152)
(0.093506 -0.0031642 1.5833e-06)
(0.072787 -0.0030759 1.526e-06)
(0.052888 -0.0028896 8.2579e-07)
(0.034431 -0.0026144 4.6815e-07)
(0.017972 -0.0022578 -1.0587e-07)
(0.0039317 -0.0018346 -3.8855e-07)
(-0.0072326 -0.0013348 -3.5247e-07)
(-0.015074 -0.00082612 -5.3455e-07)
(-0.019623 -0.00042526 -4.9514e-07)
(-0.021336 -2.557e-05 -5.5894e-07)
(-0.020616 0.00024995 -3.64e-07)
(-0.017971 0.00045659 -4.3222e-07)
(0.093509 -0.0064567 -0.0032492)
(0.072714 -0.0062834 -0.0031594)
(0.052749 -0.0059138 -0.0029739)
(0.034235 -0.0053683 -0.0027038)
(0.017729 -0.0046601 -0.0023563)
(0.0036444 -0.0038196 -0.0019457)
(-0.0075458 -0.0028062 -0.0014598)
(-0.015357 -0.0018219 -0.00098121)
(-0.019874 -0.0010214 -0.00058674)
(-0.021551 -0.00011767 -8.7596e-05)
(-0.020775 0.00067007 0.00045657)
(-0.018074 0.0011237 0.00070192)
(0.09346 -0.0092724 -0.005885)
(0.072523 -0.0090141 -0.0056997)
(0.052435 -0.0084714 -0.0053371)
(0.033814 -0.0076743 -0.0048174)
(0.017218 -0.0066476 -0.004159)
(0.0030437 -0.0054429 -0.0033944)
(-0.0081836 -0.0039953 -0.0025158)
(-0.015932 -0.0027157 -0.0017455)
(-0.020463 -0.0016578 -0.0011521)
(-0.022219 -0.00054894 -0.00050404)
(-0.021292 0.0004709 0.00029168)
(-0.018335 0.0011751 0.00077735)
(0.09342 -0.012049 -0.0086281)
(0.072364 -0.011512 -0.0081336)
(0.052163 -0.010607 -0.0073792)
(0.033431 -0.0093716 -0.0063928)
(0.016739 -0.0078243 -0.0051896)
(0.0024671 -0.0060063 -0.0037913)
(-0.0087468 -0.0039004 -0.0022426)
(-0.016354 -0.0021418 -0.00095623)
(-0.020779 -0.00063164 8.2711e-05)
(-0.022497 0.00067722 0.00083719)
(-0.021541 0.0016646 0.0015188)
(-0.018416 0.0024013 0.0019702)
(0.093448 0.0053107 0.016377)
(0.072313 0.0048775 0.015794)
(0.052042 0.0042777 0.014729)
(0.033247 0.003534 0.01323)
(0.016503 0.0026528 0.011321)
(0.0021666 0.0016537 0.0090355)
(-0.0090639 0.00066114 0.0063392)
(-0.016647 -0.00015085 0.0040414)
(-0.021097 -0.00072341 0.0018809)
(-0.022765 -0.00078964 -0.0003268)
(-0.021728 -0.00087246 -0.002143)
(-0.018539 -0.0011824 -0.0032165)
(0.093472 0.002319 0.013081)
(0.072461 0.0022372 0.012762)
(0.052308 0.0020809 0.012047)
(0.033627 0.0018607 0.010977)
(0.016982 0.0015876 0.0095822)
(0.0027464 0.0012829 0.0079308)
(-0.0085024 0.00098627 0.005873)
(-0.016221 0.00077202 0.0040716)
(-0.020738 0.00071464 0.0024118)
(-0.022422 0.00074815 0.00047056)
(-0.021424 0.00048378 -0.0011451)
(-0.018432 0.00023565 -0.0021648)
(0.093512 -2.7476e-06 0.0099246)
(0.072643 -2.2252e-06 0.0096769)
(0.052614 -1.8633e-06 0.0091298)
(0.034042 -1.4369e-06 0.0083123)
(0.017487 -7.6558e-07 0.0072462)
(0.0033528 -3.36e-07 0.0059787)
(-0.0078606 -3.6954e-07 0.0044108)
(-0.015636 -6.5478e-07 0.0029466)
(-0.020124 -1.2765e-06 0.001687)
(-0.021752 -1.2701e-06 0.00022178)
(-0.020919 -2.6849e-06 -0.0010608)
(-0.018169 -3.4192e-06 -0.0017724)
(0.093509 -0.0032538 0.0064528)
(0.072714 -0.0031631 0.0062803)
(0.052749 -0.0029771 0.0059117)
(0.034234 -0.0027058 0.005366)
(0.017728 -0.0023581 0.0046584)
(0.0036444 -0.0019467 0.003818)
(-0.0075459 -0.0014603 0.0028044)
(-0.015358 -0.00098191 0.0018201)
(-0.019875 -0.00058816 0.0010187)
(-0.021551 -8.9604e-05 0.00011373)
(-0.020775 0.00045449 -0.00067487)
(-0.018074 0.0006981 -0.0011294)
(0.093509 -0.0064564 0.0032517)
(0.072714 -0.0062833 0.0031617)
(0.052749 -0.0059144 0.0029757)
(0.034234 -0.0053686 0.0027046)
(0.017729 -0.0046611 0.0023566)
(0.0036447 -0.0038204 0.0019453)
(-0.0075455 -0.0028067 0.0014591)
(-0.015357 -0.0018226 0.00098027)
(-0.019874 -0.001022 0.00058583)
(-0.021551 -0.00011805 8.6481e-05)
(-0.020774 0.00067037 -0.00045782)
(-0.018074 0.0011235 -0.00070288)
(0.093511 -0.0099293 1.3741e-06)
(0.072643 -0.0096813 6.7364e-07)
(0.052613 -0.0091331 1.1416e-06)
(0.034042 -0.0083152 7.3715e-07)
(0.017487 -0.0072482 4.9016e-07)
(0.0033526 -0.0059805 4.8859e-07)
(-0.0078606 -0.0044119 1.6565e-08)
(-0.015636 -0.0029488 -8.293e-08)
(-0.020123 -0.0016901 -7.2355e-08)
(-0.021752 -0.00022566 -4.4489e-07)
(-0.020918 0.0010549 -3.4319e-07)
(-0.018168 0.001766 -1.0275e-07)
(0.093472 -0.013086 -0.0023191)
(0.07246 -0.012765 -0.0022372)
(0.052306 -0.01205 -0.0020809)
(0.033626 -0.01098 -0.001861)
(0.01698 -0.0095849 -0.0015877)
(0.0027453 -0.0079314 -0.0012826)
(-0.0085029 -0.0058734 -0.00098577)
(-0.01622 -0.0040716 -0.00077219)
(-0.020737 -0.002413 -0.00071555)
(-0.022421 -0.00047209 -0.00074978)
(-0.021423 0.0011407 -0.00048668)
(-0.018433 0.0021599 -0.00023936)
(0.093448 -0.016384 -0.0053093)
(0.072312 -0.015799 -0.0048749)
(0.052042 -0.014732 -0.0042772)
(0.033247 -0.013232 -0.0035335)
(0.016502 -0.011322 -0.0026542)
(0.0021651 -0.0090367 -0.0016547)
(-0.0090643 -0.0063403 -0.00066307)
(-0.016646 -0.0040427 0.00014817)
(-0.021095 -0.0018839 0.00071994)
(-0.022763 0.00032258 0.0007852)
(-0.021726 0.0021377 0.00087065)
(-0.018538 0.0032107 0.0011789)
(0.093486 0.0021332 0.019659)
(0.072195 0.0016395 0.018904)
(0.051788 0.0010806 0.017565)
(0.032874 0.00046011 0.015709)
(0.016017 -0.00023009 0.013364)
(0.0015416 -0.0010018 0.010554)
(-0.0097305 -0.0017247 0.0073851)
(-0.017301 -0.0023077 0.0046847)
(-0.02192 -0.0025327 0.0023483)
(-0.023679 -0.001917 1.6723e-06)
(-0.022312 -0.0013864 -0.0020442)
(-0.018776 -0.0012034 -0.0032786)
(0.093449 -4.9337e-06 0.016361)
(0.07229 -4.2519e-06 0.016013)
(0.052006 -3.1515e-06 0.015183)
(0.033209 -1.8587e-06 0.013924)
(0.016462 -7.0341e-07 0.012272)
(0.0020957 -5.2188e-07 0.010281)
(-0.0092024 -4.425e-08 0.0078156)
(-0.016902 -1.2915e-06 0.005741)
(-0.021548 -2.1167e-06 0.0037586)
(-0.023229 -1.6456e-06 0.0013234)
(-0.021946 -4.3565e-06 -0.00094233)
(-0.018658 -4.3261e-06 -0.0021857)
(0.093472 -0.0023263 0.013082)
(0.072461 -0.0022434 0.012762)
(0.052307 -0.0020857 0.012047)
(0.033626 -0.0018642 0.010977)
(0.01698 -0.0015897 0.0095811)
(0.0027452 -0.0012836 0.0079286)
(-0.0085032 -0.00098718 0.0058714)
(-0.016221 -0.00077358 0.0040692)
(-0.020738 -0.00071764 0.00241)
(-0.022422 -0.00075185 0.00046902)
(-0.021424 -0.00049043 -0.0011466)
(-0.018433 -0.00024347 -0.0021668)
(0.09346 -0.0058921 0.0092695)
(0.072523 -0.0057059 0.0090116)
(0.052435 -0.0053414 0.0084688)
(0.033814 -0.0048208 0.0076724)
(0.017218 -0.004161 0.0066448)
(0.0030432 -0.0033956 0.0054409)
(-0.0081839 -0.0025166 0.0039934)
(-0.015933 -0.0017469 0.0027136)
(-0.020464 -0.0011542 0.0016548)
(-0.02222 -0.0005071 0.00054449)
(-0.021292 0.00028747 -0.00047479)
(-0.018335 0.00077294 -0.0011818)
(0.09346 -0.0092741 0.0058883)
(0.072523 -0.0090153 0.0057032)
(0.052435 -0.0084724 0.0053388)
(0.033814 -0.0076758 0.0048182)
(0.017218 -0.0066481 0.0041585)
(0.0030436 -0.0054443 0.0033934)
(-0.0081834 -0.0039965 0.0025148)
(-0.015932 -0.0027171 0.0017445)
(-0.020463 -0.0016592 0.0011512)
(-0.022219 -0.00055016 0.00050323)
(-0.021292 0.00046877 -0.00029222)
(-0.018334 0.0011743 -0.00077867)
(0.093471 -0.013088 0.0023225)
(0.072461 -0.012768 0.0022407)
(0.052308 -0.012052 0.0020834)
(0.033627 -0.010982 0.0018624)
(0.016981 -0.0095861 0.0015885)
(0.0027459 -0.0079335 0.0012831)
(-0.0085023 -0.0058752 0.00098549)
(-0.01622 -0.0040737 0.00077201)
(-0.020737 -0.0024152 0.00071551)
(-0.022421 -0.00047444 0.00074937)
(-0.021422 0.0011375 0.00048623)
(-0.018431 0.0021576 0.00023883)
(0.093447 -0.016368 1.6123e-06)
(0.072289 -0.016018 1.2053e-06)
(0.052006 -0.015187 1.3802e-06)
(0.033208 -0.013928 8.9611e-07)
(0.016461 -0.012275 3.8682e-07)
(0.0020955 -0.010283 -1.7786e-07)
(-0.0092021 -0.0078177 -7.2835e-08)
(-0.016901 -0.0057423 -7.6515e-08)
(-0.021547 -0.0037611 -2.5373e-08)
(-0.023227 -0.001327 -3.7733e-07)
(-0.021943 0.00093566 4.3997e-07)
(-0.018657 0.0021782 -7.1302e-07)
(0.093485 -0.01967 -0.0021348)
(0.072193 -0.018912 -0.0016406)
(0.051787 -0.017568 -0.0010835)
(0.032872 -0.015709 -0.00046282)
(0.016015 -0.013364 0.00022844)
(0.0015404 -0.010554 0.00099939)
(-0.009731 -0.0073851 0.0017219)
(-0.0173 -0.0046871 0.002304)
(-0.021919 -0.0023535 0.0025285)
(-0.023678 -8.5158e-06 0.0019119)
(-0.02231 0.0020402 0.0013821)
(-0.018775 0.0032734 0.0011973)
(0.09354 -3.4806e-06 0.028983)
(0.072014 -2.6205e-06 0.027556)
(0.051413 -1.67e-06 0.025311)
(0.032332 -1.0623e-06 0.022351)
(0.015334 -7.3965e-07 0.018663)
(0.00075596 -9.2509e-07 0.014151)
(-0.010497 -3.5675e-07 0.0091249)
(-0.017977 -1.0866e-06 0.0040965)
(-0.022673 -1.6462e-06 -0.00014808)
(-0.024474 -1.9499e-06 -0.003003)
(-0.022973 -2.8488e-06 -0.0050852)
(-0.019187 -3.0508e-06 -0.0066886)
(0.093486 -0.0021413 0.019656)
(0.072193 -0.0016459 0.018902)
(0.051787 -0.0010855 0.017562)
(0.032872 -0.00046345 0.015706)
(0.016016 0.00022824 0.013361)
(0.0015409 0.001001 0.010552)
(-0.0097308 0.0017236 0.0073829)
(-0.017301 0.0023057 0.0046833)
(-0.02192 0.0025287 0.0023468)
(-0.023679 0.0019124 -4.0379e-07)
(-0.022312 0.0013795 -0.0020469)
(-0.018777 0.0011948 -0.0032805)
(0.093449 -0.0053157 0.016377)
(0.072312 -0.0048807 0.015794)
(0.052041 -0.0042804 0.014728)
(0.033246 -0.003537 0.013228)
(0.016501 -0.0026555 0.011319)
(0.0021656 -0.0016552 0.009034)
(-0.0090641 -0.00066347 0.0063379)
(-0.016646 0.00014855 0.0040403)
(-0.021096 0.00071974 0.0018801)
(-0.022764 0.00078425 -0.00032727)
(-0.021727 0.00086703 -0.0021445)
(-0.018539 0.0011756 -0.0032186)
(0.093421 -0.0086339 0.012046)
(0.072363 -0.0081388 0.011509)
(0.052162 -0.007382 0.010604)
(0.03343 -0.0063958 0.0093694)
(0.016739 -0.0051907 0.0078211)
(0.0024671 -0.0037923 0.0060035)
(-0.0087469 -0.0022428 0.0038988)
(-0.016355 -0.0009568 0.0021396)
(-0.02078 8.1354e-05 0.00062852)
(-0.022497 0.00083467 -0.00068207)
(-0.021541 0.0015136 -0.0016691)
(-0.018418 0.0019652 -0.0024079)
(0.09342 -0.012049 0.0086318)
(0.072362 -0.011513 0.0081368)
(0.052161 -0.010607 0.0073804)
(0.03343 -0.0093722 0.0063941)
(0.016739 -0.0078244 0.0051886)
(0.0024672 -0.0060073 0.0037902)
(-0.0087468 -0.0039012 0.0022419)
(-0.016354 -0.0021426 0.00095538)
(-0.020779 -0.00063239 -8.3685e-05)
(-0.022497 0.00067712 -0.00083794)
(-0.021541 0.0016636 -0.001518)
(-0.018417 0.0024009 -0.0019711)
(0.093447 -0.016386 0.0053135)
(0.072311 -0.015802 0.0048794)
(0.052041 -0.014734 0.004279)
(0.033247 -0.013234 0.0035349)
(0.016502 -0.011324 0.0026539)
(0.0021654 -0.0090378 0.0016549)
(-0.0090641 -0.0063423 0.00066271)
(-0.016645 -0.0040448 -0.00014852)
(-0.021095 -0.0018863 -0.00072003)
(-0.022763 0.00032075 -0.00078603)
(-0.021725 0.0021349 -0.00087085)
(-0.018537 0.0032086 -0.0011791)
(0.093485 -0.01967 0.0021385)
(0.072192 -0.018912 0.0016445)
(0.051786 -0.017569 0.0010857)
(0.032872 -0.01571 0.0004642)
(0.016015 -0.013366 -0.00022827)
(0.0015411 -0.010555 -0.00099936)
(-0.0097299 -0.0073876 -0.001722)
(-0.0173 -0.0046893 -0.0023043)
(-0.021918 -0.0023554 -0.0025288)
(-0.023676 -9.8854e-06 -0.001913)
(-0.022309 0.0020383 -0.0013819)
(-0.018775 0.0032716 -0.0011984)
(0.093538 -0.028993 1.9337e-06)
(0.07201 -0.027565 2.4948e-06)
(0.051411 -0.025318 1.5711e-06)
(0.032332 -0.022355 1.0585e-06)
(0.015334 -0.018668 1.5875e-07)
(0.0007548 -0.014156 -7.4367e-07)
(-0.010497 -0.00913 -1.5791e-07)
(-0.017974 -0.0041055 6.9235e-08)
(-0.02267 0.00013594 3.4316e-07)
(-0.024472 0.0029898 1.5476e-07)
(-0.022972 0.005076 8.7035e-07)
(-0.019185 0.0066779 -3.556e-07)
(-0.019097 -0.0077998 0.0022472)
(-0.023412 -0.004163 0.0018848)
(-0.025324 0.0018221 0.0011292)
(-0.02475 0.0095099 -0.00013031)
(-0.021357 0.01791 -0.0015007)
(-0.014125 0.025269 -0.002662)
(-0.0025546 0.031162 -0.0039041)
(0.012573 0.035787 -0.0050406)
(0.030186 0.039239 -0.0060269)
(0.049807 0.041734 -0.0068474)
(0.070986 0.043199 -0.0074625)
(0.093213 0.043464 -0.0078474)
(-0.018021 -0.006993 0.0010195)
(-0.021921 -0.0039703 0.00026337)
(-0.023565 0.00086923 -0.0010023)
(-0.02266 0.0072085 -0.0027465)
(-0.018984 0.014316 -0.0042294)
(-0.011995 0.020853 -0.0050576)
(-0.00087276 0.02624 -0.0058966)
(0.013897 0.030533 -0.0065815)
(0.031206 0.033844 -0.0071771)
(0.050583 0.03629 -0.0076182)
(0.071502 0.037815 -0.0078525)
(0.093414 0.038274 -0.0078511)
(-0.018205 -0.0057385 0.0029094)
(-0.022082 -0.003073 0.0013067)
(-0.023671 0.0011043 -0.0013711)
(-0.022568 0.006635 -0.0047526)
(-0.018565 0.012643 -0.0082254)
(-0.01135 0.018165 -0.011097)
(-0.00021673 0.022803 -0.013439)
(0.014491 0.026522 -0.015185)
(0.031711 0.029412 -0.016511)
(0.051004 0.031558 -0.017455)
(0.071836 0.032903 -0.017977)
(0.093647 0.033319 -0.018004)
(-0.017927 -0.0047699 0.004236)
(-0.021733 -0.0023798 0.0025085)
(-0.02328 0.0013258 -0.0003736)
(-0.022136 0.0062154 -0.0042218)
(-0.018188 0.011435 -0.0083686)
(-0.011062 0.016135 -0.012222)
(4.0588e-05 0.020068 -0.015491)
(0.014715 0.023203 -0.018055)
(0.031876 0.025624 -0.020054)
(0.051111 0.027404 -0.021542)
(0.071878 0.02849 -0.022477)
(0.093613 0.028777 -0.022775)
(-0.017927 -0.0042374 0.0047701)
(-0.021733 -0.0025085 0.0023808)
(-0.023279 0.00037491 -0.0013233)
(-0.022136 0.004224 -0.006212)
(-0.018189 0.0083706 -0.011432)
(-0.011062 0.012224 -0.016133)
(4.0564e-05 0.015492 -0.020067)
(0.014715 0.018057 -0.023202)
(0.031876 0.020056 -0.025623)
(0.051111 0.021544 -0.027402)
(0.071878 0.02248 -0.028487)
(0.093614 0.022778 -0.028773)
(-0.018204 -0.0029117 0.0057398)
(-0.022081 -0.0013087 0.0030753)
(-0.02367 0.0013701 -0.0011004)
(-0.022568 0.0047526 -0.0066302)
(-0.018565 0.0082252 -0.012639)
(-0.011351 0.011096 -0.018162)
(-0.00021717 0.013438 -0.022801)
(0.014491 0.015184 -0.026521)
(0.031711 0.016511 -0.02941)
(0.051004 0.017455 -0.031556)
(0.071837 0.017979 -0.0329)
(0.093647 0.018008 -0.033314)
(-0.01802 -0.001021 0.0069965)
(-0.021919 -0.00026616 0.0039732)
(-0.023562 0.00099841 -0.00086609)
(-0.022659 0.0027445 -0.0072043)
(-0.018985 0.0042281 -0.014312)
(-0.011996 0.0050568 -0.02085)
(-0.00087331 0.0058963 -0.026238)
(0.013897 0.006582 -0.030531)
(0.031207 0.0071778 -0.033843)
(0.050585 0.007618 -0.036288)
(0.071504 0.0078506 -0.037811)
(0.093416 0.0078478 -0.038269)
(-0.019094 -0.0022527 0.0078037)
(-0.023412 -0.0018887 0.0041659)
(-0.025322 -0.0011356 -0.0018179)
(-0.024749 0.0001247 -0.0095051)
(-0.021357 0.0014963 -0.017905)
(-0.014126 0.0026589 -0.025265)
(-0.0025553 0.0039022 -0.031159)
(0.012573 0.0050396 -0.035785)
(0.030185 0.0060266 -0.039237)
(0.049806 0.0068463 -0.041732)
(0.070986 0.0074593 -0.043196)
(0.093213 0.0078415 -0.043458)
(-0.027395 -0.0037046 0.00080899)
(-0.035975 -0.0013167 0.00042013)
(-0.04181 0.0027057 -0.0001351)
(-0.042768 0.0077921 -0.00095127)
(-0.037942 0.012771 -0.0018439)
(-0.028014 0.016746 -0.0025709)
(-0.014032 0.019777 -0.0030975)
(0.0030722 0.022047 -0.0034387)
(0.022338 0.023658 -0.0037754)
(0.043613 0.024737 -0.0040152)
(0.066737 0.02521 -0.0041455)
(0.091219 0.024969 -0.004154)
(-0.026683 -0.0038204 0.00068017)
(-0.034892 -0.0016552 1.9565e-05)
(-0.040401 0.0019944 -0.00070946)
(-0.041355 0.0065603 -0.0018327)
(-0.036688 0.011265 -0.0030293)
(-0.026921 0.015141 -0.0040821)
(-0.01304 0.018096 -0.00477)
(0.0038864 0.020313 -0.0051686)
(0.022968 0.021924 -0.0055307)
(0.044137 0.023016 -0.0057743)
(0.067125 0.023538 -0.0058781)
(0.091446 0.023398 -0.0058129)
(-0.02641 -0.0033808 0.0013252)
(-0.034385 -0.0015315 0.00027157)
(-0.039702 0.0014757 -0.0011682)