/*--------------------------------*- C++ -*----------------------------------*\
| =========                 |                                                 |
| \\      /  F ield         | OpenFOAM: The Open Source CFD Toolbox           |
|  \\    /   O peration     | Version:  4.1                                   |
|   \\  /    A nd           | Web:      www.OpenFOAM.org                      |
|    \\/     M anipulation  |                                                 |
\*---------------------------------------------------------------------------*/
FoamFile
{
    version     2.0;
    format      ascii;
    class       volScalarField;
    location    "0.000280";
    object      epsilon;
}
// * * * * * * * * * * * * * * * * * * * * * * * * * * * * * * * * * * * * * //

dimensions      [0 2 -3 0 0 0 0];

internalField   nonuniform List<scalar> 
3072
(
46.02393
45.563939
45.375955
45.010971
44.91503
44.701042
44.551498
44.484486
44.318296
44.453482
44.372159
44.312679
44.067836
43.696779
43.313709
42.668596
42.002082
41.015582
40.120712
39.395137
37.993616
35.652931
29.409287
19.018101
34.005785
33.839933
33.854868
33.742171
33.837404
33.832786
33.887226
33.982858
34.010548
34.231365
34.289772
34.364952
34.275489
34.091154
33.863738
33.440002
32.964801
32.244845
31.469111
30.670111
29.311805
27.095657
22.898941
17.254755
26.828121
26.898192
27.081603
27.188943
27.436378
27.614807
27.837132
28.071057
28.253683
28.530688
28.694947
28.85254
28.870677
28.80584
28.672045
28.390699
28.009923
27.458314
26.800895
26.126571
25.027689
23.232491
20.227274
16.499608
22.945636
23.170539
23.463435
23.713797
24.046332
24.332037
24.649606
24.952032
25.217194
25.512254
25.729768
25.905334
25.976935
25.964859
25.862436
25.647046
25.307978
24.848254
24.255847
23.601617
22.654745
21.136813
18.847159
16.119436
20.614578
20.952195
21.317357
21.668258
22.052643
22.40437
22.776757
23.112119
23.42088
23.712463
23.952042
24.124909
24.225725
24.225934
24.13307
23.937546
23.616603
23.194078
22.637908
21.971031
21.115296
19.832353
18.008516
15.883848
19.288489
19.700648
20.121425
20.532115
20.949258
21.33904
21.738226
22.087993
22.42024
22.706659
22.947964
23.113223
23.213868
23.217691
23.126666
22.923699
22.608826
22.180287
21.629389
20.947744
20.117761
19.006604
17.490406
15.729222
19.319939
19.730623
20.126916
20.518702
20.910527
21.293005
21.676027
22.033237
22.366488
22.674802
22.924665
23.096219
23.19079
23.192324
23.090562
22.869992
22.526979
22.05353
21.445224
20.707049
19.832457
18.765104
17.377378
15.686092
23.123783
23.34404
23.511171
23.619134
23.697265
23.787435
23.93278
24.159388
24.461328
24.786916
25.085162
25.308881
25.404131
25.362868
25.185103
24.866572
24.393727
23.752194
22.937945
21.965871
20.871526
19.617207
17.926112
15.777996
34.001504
33.835513
33.848394
33.732812
33.824656
33.817373
33.872467
33.974083
34.013926
34.254089
34.317592
34.395132
34.305741
34.120585
33.891833
33.466948
32.990548
32.268367
31.488572
30.688145
29.32639
27.109747
22.908246
17.255616
22.908456
22.955036
23.108789
23.201094
23.426488
23.598791
23.821511
24.065905
24.277603
24.591351
24.807532
25.03143
25.147031
25.201038
25.208556
25.092302
24.927808
24.596462
24.170239
23.582759
22.596981
21.034227
18.672255
15.961276
17.940306
18.108787
18.345083
18.566831
18.865873
19.149411
19.465065
19.791168
20.094486
20.436878
20.722607
20.998526
21.198162
21.342887
21.432678
21.431857
21.364337
21.185168
20.916515
20.528416
19.872493
18.816652
17.289513
15.555465
15.963182
16.189256
16.462851
16.744111
17.073535
17.404845
17.759381
18.115096
18.454946
18.802464
19.112751
19.398635
19.629046
19.807166
19.925722
19.96989
19.938659
19.82482
19.618546
19.308698
18.798833
17.964859
16.787831
15.422765
15.033934
15.301593
15.602687
15.925579
16.279313
16.642529
17.023269
17.397535
17.759572
18.110116
18.430946
18.716048
18.95736
19.141217
19.26348
19.314646
19.288017
19.189394
19.00134
18.712399
18.268683
17.559207
16.562401
15.368223
14.66999
14.977555
15.314862
15.677567
16.062069
16.456329
16.863628
17.258902
17.643624
18.003405
18.329323
18.611199
18.844968
19.020202
19.128495
19.160556
19.113789
18.989437
18.778994
18.472603
18.033369
17.382459
16.480577
15.353134
15.340676
15.696781
16.082654
16.490424
16.912022
17.337662
17.767565
18.184926
18.58172
18.946176
19.265025
19.528567
19.732243
19.866237
19.922437
19.887881
19.762312
19.546522
19.236713
18.828395
18.295932
17.576324
16.620102
15.411808
19.305676
19.719489
20.114553
20.505596
20.894081
21.264924
21.643824
22.008894
22.350963
22.659451
22.90321
23.076872
23.170358
23.164954
23.058724
22.841891
22.502751
22.037171
21.441516
20.713637
19.847437
18.785421
17.39377
15.691194
26.811106
26.880049
27.060247
27.164122
27.407751
27.582626
27.804616
28.045406
28.245526
28.553132
28.726674
28.888914
28.909247
28.846024
28.712204
28.429943
28.047889
27.492946
26.827899
26.149526
25.044975
23.249172
20.23919
16.501578
17.931744
18.100496
18.335713
18.556393
18.854618
19.136916
19.452032
19.779344
20.088612
20.442224
20.732841
21.011251
21.213436
21.359997
21.449606
21.447315
21.377755
21.195594
20.923435
20.533087
19.876697
18.823051
17.295238
15.557228
14.691104
14.890561
15.137687
15.40156
15.714344
16.038735
16.387325
16.746231
17.09619
17.459288
17.790428
18.104881
18.370993
18.58879
18.75148
18.840683
18.867458
18.811567
18.679759
18.456153
18.064245
17.415551
16.452971
15.30528
13.681366
13.886746
14.133606
14.409605
14.724492
15.06119
15.419143
15.784923
16.146602
16.509338
16.852201
17.17595
17.464311
17.710539
17.904491
18.034682
18.102581
18.102714
18.028496
17.867331
17.566663
17.0401
16.240029
15.251104
13.360798
13.575854
13.829399
14.117947
14.440616
14.788805
15.157044
15.53048
15.901631
16.267168
16.6153
16.939181
17.232674
17.484577
17.685483
17.825039
17.902171
17.91523
17.853774
17.703862
17.427402
16.939684
16.190951
15.243433
13.465385
13.704564
13.982321
14.296505
14.640615
15.008273
15.394267
15.782703
16.16665
16.537458
16.883886
17.199349
17.479807
17.71642
17.897982
18.014648
18.065986
18.0493
17.95577
17.775017
17.47462
16.978159
16.229265
15.261753
14.669626
14.975886
15.312548
15.675706
16.05949
16.451965
16.856754
17.254269
17.640364
18.000753
18.325311
18.602011
18.83253
19.00456
19.109693
19.141459
19.098369
18.979501
18.775323
18.475741
18.043936
17.397014
16.490083
15.3564
19.278758
19.689683
20.108626
20.51714
20.929267
21.310584
21.703332
22.057639
22.397037
22.685515
22.924407
23.084318
23.18099
23.180131
23.085354
22.885222
22.581006
22.167314
21.631203
20.964491
20.157282
19.0522
17.523337
15.737071
22.927482
23.149708
23.438444
23.68588
24.014788
24.295619
24.61055
24.919653
25.203139
25.531911
25.764219
25.947077
26.026383
26.020072
25.920145
25.705496
25.365568
24.901537
24.299199
23.635681
22.678426
21.155573
18.861058
16.122489
15.954561
16.179363
16.451946
16.732395
17.061115
17.390635
17.743895
18.101717
18.450023
18.813742
19.134481
19.427705
19.665832
19.848498
19.967555
20.010023
19.97543
19.855684
19.641111
19.324935
18.810462
17.975961
16.797626
15.426129
13.680105
13.885867
14.13286
14.408943
14.724041
15.06052
15.418301
15.785107
16.15035
16.519241
16.867409
17.196115
17.489331
17.738452
17.932728
18.061686
18.12721
18.123491
18.044127
17.879021
17.575495
17.047616
16.246269
15.253516
13.063695
13.257866
13.492009
13.763033
14.071615
14.407962
14.765019
15.131409
15.499322
15.867936
16.22338
16.561635
16.872632
17.147117
17.372248
17.538729
17.64692
17.693009
17.667997
17.556262
17.313886
16.856048
16.13344
15.221284
12.976645
13.171086
13.40526
13.67867
13.988509
14.327649
14.687215
15.055281
15.42506
15.79292
16.147964
16.483238
16.793221
17.068884
17.297863
17.470469
17.586264
17.640999
17.624003
17.518851
17.284773
16.836489
16.124307
15.22038
13.363015
13.577346
13.830991
14.120682
14.444509
14.793238
15.160849
15.534763
15.906587
16.270672
16.616152
16.935057
17.222886
17.472242
17.673016
17.814564
17.896314
17.913516
17.855018
17.709616
17.436004
16.949139
16.197482
15.245354
15.03565
15.301092
15.60098
15.92451
16.278917
16.641247
17.019156
17.395641
17.759849
18.108159
18.426141
18.704677
18.938454
19.117384
19.236613
19.289184
19.270421
19.181774
19.002951
18.728407
18.292564
17.585674
16.5804
15.372888
20.607094
20.940274
21.301333
21.649402
22.03044
22.376161
22.741706
23.081807
23.395228
23.683639
23.920777
24.087859
24.184693
24.183443
24.089317
23.898961
23.592343
23.189143
22.650561
22.010666
21.171437
19.894878
18.052701
15.892421
20.600291
20.934368
21.297145
21.646727
22.027562
22.373215
22.740551
23.079537
23.402687
23.724825
23.986168
24.171489
24.285027
24.294564
24.207523
24.014582
23.693275
23.265531
22.697796
22.018603
21.149995
19.85926
18.027021
15.888186
15.027311
15.29329
15.594005
15.917483
16.271315
16.632974
17.012029
17.387949
17.757864
18.125561
18.461903
18.759038
19.012057
19.20295
19.326866
19.376639
19.346386
19.239996
19.04131
18.742492
18.289639
17.576416
16.576244
15.372801
13.35931
13.5745
13.828718
14.118433
14.442327
14.791126
15.159586
15.53469
15.911182
16.286039
16.643742
16.976789
17.279369
17.53653
17.738206
17.875851
17.948725
17.954948
17.884948
17.726358
17.443378
16.952154
16.201381
15.247493
12.976071
13.171327
13.406377
13.680492
13.991028
14.330813
14.690673
15.059731
15.432617
15.804738
16.164191
16.504436
16.819263
17.097739
17.327343
17.49916
17.612595
17.663466
17.641585
17.53131
17.292982
16.842496
16.129662
15.222797
13.065266
13.259202
13.494178
13.766734
14.076601
14.414245
14.77118
15.137365
15.504522
15.869982
16.22111
16.553575
16.858964
17.130596
17.356557
17.526465
17.640149
17.690772
17.670061
17.559926
17.318738
16.861571
16.136929
15.222207
13.684824
13.889047
14.136593
14.415171
14.732486
15.070943
15.428497
15.794909
16.155646
16.513078
16.849966
17.165871
17.446219
17.689095
17.885413
18.021731
18.099445
18.107786
18.04197
17.88587
17.588145
17.061023
16.252198
15.254091
15.967307
16.189396
16.461037
16.743592
17.074772
17.406263
17.758295
18.115928
18.455747
18.796195
19.102077
19.383161
19.608183
19.784487
19.904062
19.953333
19.933894
19.832792
19.640493
19.346097
18.845032
18.011431
16.816169
15.429224
22.940388
23.157695
23.445103
23.692619
24.022559
24.3034
24.615413
24.922722
25.188786
25.474079
25.689442
25.864921
25.938479
25.933428
25.834876
25.626684
25.305335
24.866111
24.291742
23.671429
22.740705
21.230665
18.907797
16.130364
19.278046
19.688569
20.108283
20.51834
20.93121
21.312844
21.705363
22.053973
22.393917
22.702019
22.969459
23.155134
23.27472
23.290821
23.208265
23.011515
22.698633
22.26873
21.705515
21.007939
20.165508
19.042649
17.512419
15.735407
14.664981
14.971532
15.309312
15.673357
16.058019
16.451005
16.856559
17.251179
17.640764
18.015205
18.358285
18.656209
18.905093
19.089766
19.201035
19.233857
19.185665
19.054396
18.83211
18.512433
18.060923
17.402762
16.49578
15.358131
13.465087
13.704001
13.98234
14.297917
14.643956
15.013526
15.399989
15.789788
16.178888
16.559923
16.917549
17.244255
17.535974
17.779232
17.962437
18.078258
18.125454
18.101037
17.99704
17.804247
17.493115
16.991075
16.240382
15.265803
13.363165
13.578851
13.833888
14.12479
14.450031
14.800342
15.16863
15.544043
15.920232
16.290053
16.641053
16.967388
17.263163
17.517343
17.719413
17.861017
17.940578
17.952386
17.885465
17.730435
17.448525
16.957559
16.205484
15.248895
13.684946
13.891278
14.140096
14.419301
14.736905
15.075778
15.433599
15.800995
16.163769
16.523313
16.862042
17.181396
17.465513
17.711043
17.908253
18.045386
18.122696
18.128289
18.05854
17.897238
17.595414
17.066438
16.257177
15.256411
14.699669
14.897507
15.14648
15.414371
15.730331
16.057301
16.405325
16.765389
17.111814
17.461383
17.783513
18.091825
18.352084
18.568969
18.738866
18.839008
18.881059
18.837642
18.722569
18.504268
18.113921
17.462076
16.479791
15.311142
17.95209
18.114621
18.348968
18.572513
18.873428
19.157751
19.470996
19.799526
20.09958
20.426208
20.708
20.987625
21.190923
21.340952
21.439935
21.448442
21.395516
21.230114
20.987555
20.611039
19.96275
18.902263
17.341028
15.566151
26.831307
26.891908
27.069014
27.173164
27.417326
27.591516
27.81042
28.050972
28.229507
28.487979
28.654612
28.824316
28.858538
28.809796
28.687594
28.414839
28.051882
27.518882
26.903276
26.246208
25.161879
23.37198
20.318668
16.514111
19.315136
19.725438
20.119576
20.509224
20.896826
21.268967
21.645483
22.000228
22.335287
22.649729
22.916061
23.112772
23.236008
23.257909
23.172398
22.966595
22.627974
22.151852
21.53386
20.778026
19.88291
18.799739
17.399122
15.692277
15.341371
15.695993
16.081143
16.489104
16.910436
17.335772
17.765238
18.182677
18.58342
18.958001
19.290659
19.569719
19.790751
19.937217
19.998012
19.968172
19.843734
19.622156
19.300535
18.876054
18.326697
17.596129
16.633777
15.416068
14.675038
14.981299
15.317989
15.68156
16.067084
16.462594
16.869208
17.267449
17.657122
18.022149
18.354384
18.642656
18.886103
19.066971
19.176015
19.210682
19.167784
19.042088
18.826029
18.510538
18.062996
17.407649
16.499583
15.359816
15.040551
15.307498
15.608648
15.933277
16.289023
16.653666
17.033685
17.412686
17.780576
18.131715
18.452944
18.7397
18.983186
19.168777
19.291607
19.347877
19.330384
19.236798
19.047545
18.758071
18.308841
17.594977
16.588925
15.376703
15.97204
16.197001
16.470288
16.7537
17.084943
17.417538
17.771229
18.13129
18.473011
18.813432
19.119817
19.406061
19.637014
19.817735
19.940528
19.994489
19.977372
19.873753
19.675674
19.370578
18.860029
18.020831
16.823496
15.432519
17.957
18.121298
18.357032
18.580898
18.881353
19.166174
19.480573
19.810677
20.110997
20.436343
20.717413
20.998618
21.204171
21.355926
21.457519
21.469455
21.419201
21.254806
21.009205
20.627526
19.973856
18.909671
17.345187
15.567819
22.937995
22.97346
23.122315
23.214145
23.439907
23.613494
23.837039
24.089257
24.294089
24.577772
24.794612
25.038274
25.174416
25.246609
25.270814
25.166496
25.019223
24.706527
24.308533
23.73138
22.747032
21.170045
18.752361
15.977773
34.021313
33.842682
33.849624
33.731353
33.821614
33.813902
33.872124
33.982984
34.004098
34.19083
34.257168
34.363452
34.307536
34.15197
33.941704
33.526632
33.068161
32.371774
31.637789
30.851163
29.498838
27.276257
23.012276
17.271757
23.125984
23.345935
23.511784
23.617369
23.692373
23.776137
23.918849
24.136618
24.433226
24.754618
25.053481
25.286236
25.407059
25.399255
25.259239
24.964687
24.50299
23.861891
23.037499
22.045493
20.926239
19.651685
17.945585
15.782779
19.314238
19.727103
20.122288
20.514506
20.901896
21.276461
21.658743
22.020266
22.357115
22.665476
22.914492
23.099322
23.212923
23.225491
23.132944
22.923151
22.593055
22.127895
21.519579
20.772198
19.884078
18.806311
17.405934
15.69456
19.290138
19.701242
20.120067
20.529779
20.944313
21.33031
21.72714
22.082092
22.420298
22.705659
22.947584
23.118419
23.229082
23.239267
23.152892
22.960792
22.66264
22.246205
21.697798
21.01292
20.183968
19.064122
17.529254
15.739824
20.617873
20.953097
21.315147
21.664572
22.047294
22.396682
22.766454
23.1094
23.423184
23.707571
23.943223
24.118953
24.226597
24.233351
24.147158
23.966914
23.668682
23.263917
22.714689
22.057233
21.197088
19.905087
18.057163
15.895628
22.951041
23.170903
23.459432
23.707824
24.038
24.32133
24.637531
24.948331
25.214067
25.493677
25.705767
25.887348
25.96907
25.969411
25.877469
25.681008
25.368274
24.930159
24.346507
23.715182
22.765819
21.237648
18.908376
16.13241
26.84064
26.902604
27.081009
27.185405
27.429042
27.605176
27.828303
28.072773
28.251243
28.504392
28.667022
28.840081
28.87838
28.833311
28.716618
28.453615
28.099074
27.57109
26.955983
26.28739
25.186095
23.377617
20.314431
16.514725
34.02417
33.846136
33.853255
33.734824
33.825076
33.818967
33.880482
33.994274
34.016327
34.201256
34.26586
34.372107
34.317437
34.163304
33.957153
33.547957
33.095487
32.402271
31.673839
30.880849
29.516287
27.279854
23.007024
17.271425
46.029819
45.558327
45.363423
44.99143
44.88866
44.671653
44.530523
44.482318
44.298794
44.378325
44.302263
44.275543
44.066112
43.723361
43.350665
42.707108
42.054652
41.098372
40.273594
39.559016
38.159337
35.813251
29.505982
19.034844
39.026076
62.4567
71.355106
73.344517
74.126016
74.315263
75.000791
75.780026
76.155786
76.509292
76.498543
76.494404
76.32091
75.960281
75.634986
75.08748
74.921176
74.649834
74.499182
74.454696
74.31643
74.500058
74.540946
74.901657
29.34187
47.760835
55.967626
58.604296
59.869567
60.424518
61.277313
62.101521
62.544012
62.917486
62.958447
62.950329
62.774165
62.400999
62.030049
61.456053
61.157882
60.762088
60.447923
60.218609
59.903339
59.864172
59.708215
59.808588
24.867281
38.638521
45.614258
48.391585
49.81879
50.594245
51.626435
52.517077
53.105299
53.535428
53.68464
53.728933
53.620112
53.30636
52.97012
52.457211
52.111577
51.682893
51.292082
50.96851
50.557404
50.366591
50.086164
49.978495
22.342045
32.389575
38.135646
40.898654
42.397847
43.468732
44.659215
45.609318
46.34187
46.845727
47.13114
47.251834
47.225106
47.01701
46.728545
46.307991
45.958117
45.544967
45.114604
44.739992
44.284921
43.963171
43.578215
43.28536
20.802084
27.767756
32.430286
35.078952
36.657618
38.094928
39.411689
40.454535
41.315557
41.927883
42.346402
42.590007
42.63395
42.554352
42.339328
42.044908
41.72867
41.377039
40.946073
40.559003
40.093842
39.665928
39.202189
38.756216
20.091152
24.815167
28.50933
30.890641
32.783216
34.393509
35.791012
36.924569
37.864864
38.559293
39.083226
39.382997
39.552513
39.570968
39.48772
39.30879
39.080678
38.816326
38.463522
38.116552
37.692073
37.239452
36.733093
36.190836
20.930274
25.066972
28.028948
30.292226
32.159276
33.772383
35.142597
36.24056
37.073427
37.681905
38.108572
38.354305
38.495448
38.525057
38.460186
38.329559
38.173511
38.064792
37.95915
37.803827
37.571603
37.26608
36.900359
36.455994
25.674174
31.071255
33.863919
35.813363
37.505038
39.000142
40.286487
41.301083
42.012074
42.457903
42.699343
42.737444
42.574561
42.227234
41.753093
41.213383
40.801907
40.880064
41.260208
41.692484
42.071418
42.346786
42.519484
42.59929
225.04914
206.64651
196.43862
191.73877
189.61154
188.18949
186.66331
184.71917
182.27154
179.31095
175.90237
172.09666
167.98523
163.64578
159.168
154.62781
150.08702
145.65204
141.39814
137.40401
133.7337
130.4714
127.66909
125.41784
196.04479
183.07231
175.81396
172.34292
170.64298
169.3734
167.9365
166.098
163.79868
161.03756
157.875
154.359
150.57152
146.5914
142.49671
138.36157
134.24045
130.22926
126.3968
122.81672
119.55034
116.66046
114.20411
112.24369
180.74962
169.93996
164.12511
161.1878
159.62555
158.35913
156.90159
155.05491
152.771
150.05918
146.96924
143.55592
139.89493
136.06943
132.14693
128.19954
124.2839
120.4856
116.87089
113.50743
110.45576
107.76903
105.50435
103.71385
175.05129
164.30331
158.93032
156.05289
154.42646
153.06758
151.52511
149.61235
147.27753
144.53576
141.42635
138.01626
134.37537
130.58925
126.72431
122.84457
119.01528
115.31206
111.80333
108.54969
105.61103
103.03701
100.88418
99.201061
177.54214
165.32
159.57687
156.33832
154.44368
152.88813
151.18911
149.14458
146.68896
143.83761
140.6296
137.1337
133.42047
129.57014
125.6525
121.72804
117.87435
114.15839
110.6537
107.41359
104.49764
101.95498
99.842088
98.21018
188.2961
172.96665
166.12462
162.10408
159.74919
157.89589
155.966
153.71472
151.06359
148.021
144.62642
140.95273
137.06562
133.04821
128.96433
124.88406
120.88806
117.04242
113.42583
110.09012
107.09312
104.48524
102.32599
100.67609
208.92821
188.22093
179.46522
174.21344
171.18289
168.9237
166.68935
164.15826
161.22571
157.89136
154.19892
150.21498
146.00914
141.67701
137.28876
132.91641
128.63353
124.51094
120.62752
117.04648
113.82436
111.01109
108.67849
106.9024
243.0982
213.458
201.79844
194.79787
190.87026
188.09553
185.46756
182.55659
179.2177
175.44152
171.27119
166.7818
162.05619
157.17843
152.21303
147.23284
142.31036
137.5325
133.02378
128.88096
125.17384
121.95658
119.28826
117.25568
25.681787
31.085635
33.875878
35.81991
37.507581
39.004387
40.290469
41.310679
42.020168
42.462761
42.702519
42.739256
42.57489
42.225888
41.750449
41.214508
40.80197
40.881585
41.263446
41.694371
42.075433
42.347798
42.516707
42.589274
20.937064
25.077583
28.036602
30.292587
32.155395
33.765046
35.137528
36.233056
37.062892
37.672625
38.105647
38.353167
38.49246
38.524403
38.456901
38.327034
38.166078
38.054875
37.949532
37.795732
37.559984
37.25285
36.888637
36.450452
20.100136
24.837761
28.521591
30.885941
32.764114
34.373825
35.771001
36.89772
37.832678
38.527175
39.05511
39.361573
39.536282
39.561719
39.476645
39.293147
39.061129
38.794679
38.444014
38.106353
37.68532
37.234021
36.728108
36.188716
20.795929
27.787924
32.447746
35.078662
36.638793
38.064986
39.374525
40.409935
41.264518
41.876212
42.300688
42.550041
42.598656
42.528151
42.31449
42.018518
41.701043
41.348772
40.926333
40.547146
40.085773
39.659639
39.197622
38.754813
22.344378
32.433587
38.176192
40.909527
42.383037
43.436353
44.614498
45.556744
46.281298
46.787732
47.078209
47.200757
47.174378
46.970668
46.684341
46.269691
45.924147
45.513184
45.093462
44.727372
44.276721
43.956564
43.573504
43.285548
24.879711
38.696708
45.67117
48.415873
49.81558
50.569418
51.584562
52.466043
53.048105
53.484147
53.638044
53.679322
53.564419
53.244395
52.908558
52.411963
52.077866
51.652564
51.272927
50.959327
50.554102
50.36445
50.085217
49.982233
29.357253
47.825751
56.037145
58.645714
59.885703
60.419216
61.249923
62.064143
62.506736
62.887387
62.932501
62.917525
62.730911
62.344472
61.971093
61.425035
61.141476
60.743504
60.435435
60.214547
59.905122
59.867446
59.711914
59.818247
39.045873
62.506062
71.412325
73.380948
74.1405
74.312092
74.969721
75.744193
76.122068
76.485754
76.481535
76.47406
76.292139
75.92184
75.596007
75.089254
74.936747
74.65173
74.495116
74.451015
74.314898
74.500264
74.542838
74.911339
243.12165
213.48849
201.82194
194.81121
190.87698
188.09878
185.4684
182.55712
179.21933
175.43978
171.26045
166.76183
162.02567
157.13576
152.16208
147.18028
142.26349
137.49382
132.99119
128.85503
125.15415
121.94258
119.27946
117.25165
208.93986
188.24682
179.48674
174.22367
171.18499
168.92118
166.68424
164.15526
161.22767
157.88988
154.18423
150.18345
145.95522
141.59764
137.1921
132.81659
128.54453
124.4381
120.56738
116.99849
113.78898
110.98683
108.66356
106.89574
188.3184
172.99133
166.1365
162.10029
159.73605
157.87935
155.94905
153.7014
151.05735
148.01518
144.61225
140.92395
137.01145
132.9616
128.85376
124.76698
120.78191
116.95494
113.3552
110.03543
107.05456
104.46002
102.3109
100.66955
177.55007
165.32728
159.57385
156.3187
154.41348
152.85654
151.16106
149.12325
146.67784
143.83277
140.62484
137.11997
133.38224
129.49491
125.54686
121.61029
117.7645
114.0666
110.58145
107.3611
104.46319
101.93404
99.830484
98.205928
175.07464
164.32529
158.92932
156.02402
154.382
153.02193
151.48578
149.58285
147.26148
144.52913
141.42599
138.01201
134.35038
130.52813
126.62924
122.73192
118.90668
115.22008
111.7328
108.50181
105.58227
103.02141
100.87687
99.199855
180.77641
169.9685
164.12187
161.14937
159.56759
158.29934
156.8493
155.01517
152.74973
150.05055
146.97005
143.55759
139.88243
136.02817
132.07301
128.10206
124.18332
120.39833
116.80517
113.465
110.43219
107.75814
105.501
103.71552
196.07025
183.09501
175.8013
172.29414
170.57403
169.30271
167.8743
166.05165
163.77749
161.03652
157.88974
154.38198
150.58814
146.58787
142.46255
138.29633
134.16173
130.15574
126.33864
122.7769
119.52657
116.64879
114.19999
112.24394
225.06716
206.65419
196.41245
191.67986
189.5336
188.11039
186.59695
184.67766
182.26771
179.34098
175.95979
172.17266
168.06321
163.71212
159.2069
154.62913
150.06126
145.61393
141.35776
137.36839
133.70697
130.45504
127.66026
125.41235
39.041652
62.496706
71.414476
73.397616
74.162525
74.336532
74.993255
75.76042
76.13485
76.495406
76.488168
76.4797
76.296506
75.926103
75.599672
75.090754
74.935284
74.647006
74.486861
74.440789
74.305081
74.491559
74.535069
74.90482
29.351537
47.800968
56.033796
58.673217
59.926503
60.462737
61.288053
62.095449
62.52909
62.902047
62.943948
62.929587
62.743229
62.35897
61.98686
61.439875
61.151341
60.747038
60.431756
60.206141
59.895658
59.858898
59.704412
59.811166
24.874234
38.670373
45.668073
48.4498
49.869341
50.628385
51.635734
52.504698
53.073616
53.498227
53.648806
53.689816
53.574322
53.257157
52.924994
52.433044
52.096232
51.664326
51.276898
50.958287
50.551601
50.36171
50.082169
49.977875
22.347136
32.418512
38.181587
40.949449
42.4465
43.50637
44.677244
45.604314
46.31228
46.803907
47.088758
47.206462
47.175582
46.971558
46.692161
46.287086
45.942892
45.528747
45.103275
44.732776
44.279166
43.957981
43.573081
43.282882
20.806035
27.793499
32.471619
35.12992
36.714325
38.148515
39.451971
40.473534
41.310009
41.904715
42.31836
42.558179
42.596895
42.522108
42.314738
42.028774
41.715012
41.363464
40.937568
40.554265
40.089327
39.66154
39.19847
38.753322
20.094194
24.839282
28.550212
30.948189
32.85637
34.474797
35.866694
36.984308
37.902835
38.580136
39.090251
39.381703
39.539315
39.554218
39.470214
39.293392
39.066243
38.802978
38.45165
38.110443
37.686948
37.233644
36.728786
36.188644
20.932442
25.086043
28.071087
30.363394
32.259728
33.892353
35.268041
36.355406
37.16899
37.759684
38.157599
38.384075
38.496485
38.515964
38.445926
38.31699
38.158993
38.051301
37.947032
37.79352
37.560948
37.256629
36.894978
36.455228
25.674115
31.089465
33.913015
35.902249
37.634125
39.157068
40.455698
41.472819
42.169166
42.582325
42.745694
42.737061
42.553592
42.205377
41.735649
41.20069
40.787846
40.868523
41.250811
41.685502
42.068669
42.346356
42.518441
42.590614
225.05444
206.63477
196.40144
191.67959
189.54048
188.11721
186.60235
184.68467
182.27808
179.35388
175.97207
172.18446
168.07711
163.72718
159.22172
154.64287
150.07137
145.61765
141.35546
137.36378
133.7034
130.45349
127.65977
125.41145
196.0455
183.05576
175.77797
172.29102
170.58173
169.30969
167.87957
166.05721
163.78493
161.04522
157.89784
154.39393
150.61082
146.62052
142.50048
138.33492
134.19495
130.17817
126.3495
122.78089
119.52938
116.65269
114.20401
112.24604
180.75127
169.92921
164.09863
161.14566
159.57122
158.30014
156.8491
155.01774
152.75558
150.05659
146.97268
143.56618
139.90983
136.07445
132.13016
128.16181
124.23673
120.44023
116.83513
113.48551
110.44746
107.7708
105.51083
103.72104
175.05539
164.30144
158.9155
156.02069
154.37814
153.01083
151.47196
149.57268
147.25516
144.52362
141.41948
138.01528
134.37689
130.57816
126.69454
122.80259
118.97202
115.27602
111.77975
108.53898
105.6105
103.04269
100.8917
99.207787
177.54885
165.32576
159.57065
156.31183
154.39632
152.82693
151.1255
149.08785
146.64419
143.80318
140.60188
137.11167
133.39996
129.53928
125.61046
121.68332
117.83581
114.13146
110.64029
107.41059
104.50099
101.96119
99.848081
98.21467
188.30419
172.97632
166.12156
162.07701
159.69541
157.82095
155.87984
153.62671
150.98112
147.94567
144.55722
140.88813
137.0011
132.97902
128.89667
124.82718
120.8471
117.01878
113.41723
110.09027
107.09724
104.4902
102.32961
100.6782
208.93456
188.22761
179.4572
174.17631
171.10976
168.81798
166.56123
164.01914
161.08566
157.75542
154.06779
150.08824
145.88704
141.55939
137.18723
132.84026
128.58222
124.48195
120.61633
117.04555
113.82788
111.01497
108.68075
106.90336
243.09969
213.45594
201.77751
194.73912
190.76038
187.93587
185.26915
182.33359
178.985
175.21157
171.05351
166.57811
161.86639
157.00753
152.07529
147.13303
142.2412
137.4894
133.00411
128.87771
125.17881
121.96298
119.29271
117.25815
25.683674
31.108606
33.929219
35.911813
37.639623
39.16709
40.47056
41.490238
42.192618
42.611824
42.772207
42.756769
42.567602
42.218329
41.747451
41.210535
40.803363
40.882511
41.263593
41.695684
42.077312
42.353145
42.523685
42.60203
20.937036
25.096618
28.085201
30.379449
32.280247
33.917648
35.303769
36.403251
37.226901
37.820489
38.21853
38.441754
38.533038
38.540868
38.463356
38.326206
38.166032
38.056055
37.950734
37.797701
37.563907
37.257222
36.892883
36.450997
20.099458
24.840603
28.55121
30.955847
32.874324
34.506763
35.916457
37.048322
37.978765
38.662906
39.173093
39.462258
39.60951
39.620243
39.511378
39.305546
39.063886
38.79864
38.449097
38.109832
37.688572
37.23811
36.732982
36.191883
20.79171
27.774151
32.453095
35.12021
36.717812
38.171009
39.493246
40.533933
41.388304
41.994507
42.406222
42.643375
42.681016
42.604122
42.380184
42.047648
41.709948
41.351906
40.926835
40.54669
40.086035
39.660464
39.199347
38.755862
22.334526
32.397965
38.152723
40.923637
42.43189
43.513948
44.706366
45.653936
46.381214
46.883017
47.167844
47.286627
47.259821
47.056559
46.767919
46.307418
45.933772
45.512229
45.087532
44.720134
44.271249
43.953379
43.57113
43.280671
24.866119
38.644786
45.624429
48.4047
49.83562
50.609541
51.650655
52.539723
53.125588
53.556065
53.708413
53.755236
53.648576
53.336979
52.999181
52.449779
52.082338
51.646344
51.260695
50.945058
50.541594
50.355205
50.076944
49.970673
29.342098
47.765985
55.976174
58.61402
59.880136
60.432593
61.292731
62.118611
62.562154
62.935497
62.977897
62.97124
62.797715
62.423594
62.049875
61.447821
61.132163
60.731158
60.422397
60.201008
59.892774
59.857503
59.703339
59.804425
39.025053
62.456963
71.360933
73.355117
74.137682
74.328229
75.019574
75.802343
76.179346
76.53198
76.519481
76.515118
76.342459
75.98226
75.654928
75.092301
74.914266
74.63757
74.488384
74.448024
74.313513
74.499294
74.541472
74.90283
243.11398
213.47039
201.78159
194.73107
190.74123
187.90443
185.22322
182.27473
178.91818
175.14193
170.98584
166.51561
161.8087
156.95283
152.02105
147.07802
142.1884
137.44315
132.96653
128.85157
125.16295
121.95457
119.28962
117.25844
208.92621
188.21929
179.44243
174.15235
171.07344
168.76274
166.47905
163.91018
160.95973
157.62183
153.93222
149.95621
145.76408
141.44513
137.07627
132.73096
128.48116
124.3948
120.54603
116.99574
113.79679
110.99816
108.67445
106.9039
188.30087
172.95818
166.09382
162.04431
159.65481
157.76317
155.79381
153.50889
150.83786
147.78687
144.39104
140.72001
136.83562
132.81923
128.74307
124.68135
120.71685
116.90974