/*--------------------------------*- C++ -*----------------------------------*\
| =========                 |                                                 |
| \\      /  F ield         | OpenFOAM: The Open Source CFD Toolbox           |
|  \\    /   O peration     | Version:  4.1                                   |
|   \\  /    A nd           | Web:      www.OpenFOAM.org                      |
|    \\/     M anipulation  |                                                 |
\*---------------------------------------------------------------------------*/
FoamFile
{
    version     2.0;
    format      ascii;
    class       pointVectorField;
    location    "0.000280";
    object      pointDisplacement;
}
// * * * * * * * * * * * * * * * * * * * * * * * * * * * * * * * * * * * * * //

dimensions      [0 1 0 0 0 0 0];

internalField   nonuniform List<vector> 
3625
(
(0 -0.00019972356 5.9286208e-08)
(0 -0.00016202017 5.8927044e-08)
(0 -0.00012152478 6.5214924e-08)
(0 -7.9032642e-05 7.8828042e-08)
(0 -3.5283259e-05 1.0051008e-07)
(0 8.9895114e-06 1.3500993e-07)
(0 5.2988969e-05 1.5931738e-07)
(0 9.5896229e-05 1.5173009e-07)
(0 0.00013686614 1.3584378e-07)
(0 0.00017520269 1.1644195e-07)
(0 0.00021041901 7.9378635e-08)
(0 0.00024200877 3.3524145e-08)
(0 0.00026950135 -4.9901255e-09)
(0 0.00029231987 -3.1350483e-09)
(0 0.0003098563 4.4363174e-08)
(0 0.00032177615 1.0637916e-07)
(0 0.000328165 1.5205432e-07)
(0 0.00032909726 1.6191175e-07)
(0 0.00032434099 1.5345793e-07)
(0 0.00031349615 1.3296894e-07)
(0 0.00029573284 1.0004114e-07)
(0 0.00026889467 6.3632382e-08)
(0 0.00022739798 2.4329775e-08)
(0 0.00015980047 5.7230959e-09)
(0 0 0)
(0 -0.00017787973 3.7016536e-05)
(0 -0.00014386147 3.7515108e-05)
(0 -0.00010734506 3.7368427e-05)
(0 -6.9088189e-05 3.658209e-05)
(0 -2.9739492e-05 3.517322e-05)
(0 1.0047742e-05 3.3168464e-05)
(0 4.9599841e-05 3.0580933e-05)
(0 8.8230242e-05 2.7449515e-05)
(0 0.00012501859 2.3856528e-05)
(0 0.00015923176 1.9867648e-05)
(0 0.00019056532 1.5530536e-05)
(0 0.00021863772 1.0926002e-05)
(0 0.00024304502 6.1546462e-06)
(0 0.00026326266 1.3475299e-06)
(0 0.00027861881 -3.4034461e-06)
(0 0.00028879878 -8.0666963e-06)
(0 0.00029403746 -1.2601701e-05)
(0 0.00029443861 -1.6937001e-05)
(0 0.00028975459 -2.0941109e-05)
(0 0.00027956215 -2.4460249e-05)
(0 0.00026302549 -2.7230706e-05)
(0 0.00023806194 -2.8682364e-05)
(0 0.00019943134 -2.7562009e-05)
(0 0.00013661145 -2.1227844e-05)
(0 0 0)
(0 -0.00015659191 8.4270138e-05)
(0 -0.0001266052 8.5347003e-05)
(0 -9.439906e-05 8.4937806e-05)
(0 -6.0664452e-05 8.3057411e-05)
(0 -2.5982253e-05 7.9750008e-05)
(0 9.0626915e-06 7.5076264e-05)
(0 4.391685e-05 6.9102486e-05)
(0 7.8015939e-05 6.1941261e-05)
(0 0.0001104555 5.3753991e-05)
(0 0.00014052488 4.4691319e-05)
(0 0.00016803993 3.4884194e-05)
(0 0.00019269961 2.4507725e-05)
(0 0.00021413731 1.3772583e-05)
(0 0.00023191054 2.9184001e-06)
(0 0.00024538995 -7.87005e-06)
(0 0.00025429682 -1.8472563e-05)
(0 0.00025887299 -2.8741984e-05)
(0 0.00025917618 -3.848396e-05)
(0 0.00025496561 -4.7435302e-05)
(0 0.00024584606 -5.5248653e-05)
(0 0.00023103249 -6.1297265e-05)
(0 0.00020858277 -6.4226422e-05)
(0 0.00017371273 -6.1062832e-05)
(0 0.00011694516 -4.5767783e-05)
(0 0 0)
(0 -0.00013288113 0.00013194116)
(0 -0.00010752695 0.00013357086)
(0 -8.0262796e-05 0.00013286512)
(0 -5.1698068e-05 0.00012984927)
(0 -2.2341051e-05 0.00012458925)
(0 7.2941544e-06 0.00011718985)
(0 3.6755725e-05 0.00010777519)
(0 6.559384e-05 9.6530492e-05)
(0 9.304251e-05 8.3695171e-05)
(0 0.00011850782 6.9506677e-05)
(0 0.00014181772 5.4197627e-05)
(0 0.00016268864 3.8030142e-05)
(0 0.00018082335 2.1301534e-05)
(0 0.00019587318 4.3625903e-06)
(0 0.00020734441 -1.2499101e-05)
(0 0.00021498307 -2.9061764e-05)
(0 0.00021894602 -4.5065374e-05)
(0 0.00021926031 -6.0201908e-05)
(0 0.00021571262 -7.4077933e-05)
(0 0.00020797923 -8.6140797e-05)
(0 0.00019537925 -9.5389177e-05)
(0 0.00017621621 -9.9652351e-05)
(0 0.00014636225 -9.4166754e-05)
(0 9.7711549e-05 -6.9507106e-05)
(0 0 0)
(0 -0.00010711245 0.00017853854)
(0 -8.6858093e-05 0.00018073249)
(0 -6.5044329e-05 0.0001797581)
(0 -4.2171097e-05 0.00017564843)
(0 -1.8667454e-05 0.00016848402)
(0 5.03817e-06 0.00015841783)
(0 2.8591776e-05 0.00014564277)
(0 5.1676354e-05 0.00013040976)
(0 7.3696592e-05 0.00011303342)
(0 9.4192686e-05 9.3838183e-05)
(0 0.00011297216 7.3153816e-05)
(0 0.00012975157 5.1322682e-05)
(0 0.00014436475 2.8716004e-05)
(0 0.00015654512 5.7937009e-06)
(0 0.00016587519 -1.7044215e-05)
(0 0.00017217252 -3.9467679e-05)
(0 0.00017554352 -6.1105544e-05)
(0 0.00017594074 -8.1539069e-05)
(0 0.00017318651 -0.00010024613)
(0 0.00016706843 -0.00011647262)
(0 0.00015704129 -0.0001288557)
(0 0.00014174029 -0.00013444358)
(0 0.00011779826 -0.00012672875)
(0 7.857052e-05 -9.296396e-05)
(0 0 0)
(0 -7.9808553e-05 0.00022260944)
(0 -6.4937354e-05 0.0002253794)
(0 -4.8881857e-05 0.00022419305)
(0 -3.202967e-05 0.00021908582)
(0 -1.4714619e-05 0.00021016641)
(0 2.7235323e-06 0.00019762028)
(0 2.0050087e-05 0.00018169011)
(0 3.7091364e-05 0.00016269432)
(0 5.3403818e-05 0.00014102178)
(0 6.8654979e-05 0.00011707585)
(0 8.2656661e-05 9.1272995e-05)
(0 9.5154629e-05 6.404737e-05)
(0 0.00010607915 3.586197e-05)
(0 0.00011521771 7.2461183e-06)
(0 0.00012226033 -2.1313321e-05)
(0 0.00012711704 -4.9356166e-05)
(0 0.00012983733 -7.6398707e-05)
(0 0.00013031845 -0.00010191184)
(0 0.00012844038 -0.00012524757)
(0 0.00012408374 -0.00014547702)
(0 0.0001168401 -0.00016093595)
(0 0.00010573631 -0.00016798934)
(0 8.8229651e-05 -0.00015853673)
(0 5.9209085e-05 -0.00011659862)
(0 0 0)
(0 -5.1564535e-05 0.00026291176)
(0 -4.2148992e-05 0.00026626027)
(0 -3.1946353e-05 0.00026491385)
(0 -2.1232875e-05 0.00025893029)
(0 -1.0237589e-05 0.00024844739)
(0 8.1821024e-07 0.00023367064)
(0 1.1820826e-05 0.00021488014)
(0 2.2694906e-05 0.00019246949)
(0 3.3147625e-05 0.00016687842)
(0 4.2975342e-05 0.00013857686)
(0 5.2030807e-05 0.00010807179)
(0 6.0120416e-05 7.5886921e-05)
(0 6.7240859e-05 4.2568745e-05)
(0 7.3218181e-05 8.7017534e-06)
(0 7.7854223e-05 -2.5151755e-05)
(0 8.1158872e-05 -5.8405092e-05)
(0 8.3115225e-05 -9.0465238e-05)
(0 8.3592612e-05 -0.00012071088)
(0 8.2558929e-05 -0.00014837905)
(0 7.9982284e-05 -0.00017241185)
(0 7.5576092e-05 -0.00019091807)
(0 6.8743375e-05 -0.00019972485)
(0 5.7816181e-05 -0.00018937996)
(0 3.9333442e-05 -0.00014089532)
(0 0 0)
(0 -2.2873449e-05 0.00029849127)
(0 -1.8753573e-05 0.00030239085)
(0 -1.4289584e-05 0.00030094736)
(0 -9.6148384e-06 0.00029423604)
(0 -4.8420793e-06 0.00028240706)
(0 -5.8737132e-08 0.00026569458)
(0 4.7173086e-06 0.00024441833)
(0 9.4747362e-06 0.00021901258)
(0 1.4069306e-05 0.00018996737)
(0 1.8415278e-05 0.00015781598)
(0 2.2438242e-05 0.00012314009)
(0 2.6035472e-05 8.6548078e-05)
(0 2.9258359e-05 4.8665645e-05)
(0 3.1974286e-05 1.0132677e-05)
(0 3.4062778e-05 -2.8412523e-05)
(0 3.5619177e-05 -6.6288415e-05)
(0 3.6602796e-05 -0.00010281842)
(0 3.6881644e-05 -0.00013729763)
(0 3.6507159e-05 -0.00016887799)
(0 3.5531283e-05 -0.00019642051)
(0 3.3790017e-05 -0.00021788569)
(0 3.1032766e-05 -0.00022877258)
(0 2.6528447e-05 -0.00021872029)
(0 1.852519e-05 -0.00016632571)
(0 0 0)
(0 -1.8083265e-07 0.00033281923)
(0 -1.6163342e-07 0.00033729315)
(0 -1.4313963e-07 0.00033583677)
(0 -1.4583535e-07 0.0003285139)
(0 -1.8131985e-07 0.00031548105)
(0 -2.6237001e-07 0.00029699461)
(0 -3.3484901e-07 0.00027340597)
(0 -3.3498391e-07 0.00024517367)
(0 -3.1874541e-07 0.00021283363)
(0 -2.849579e-07 0.00017698506)
(0 -2.5365387e-07 0.00013827484)
(0 -2.5608674e-07 9.7386504e-05)
(0 -2.040754e-07 5.5029084e-05)
(0 -1.6307912e-07 1.191026e-05)
(0 -1.6176402e-07 -3.1244072e-05)
(0 -9.4658013e-08 -7.3677005e-05)
(0 -2.6285136e-08 -0.00011464966)
(0 -5.4324676e-08 -0.00015337556)
(0 -7.4814848e-08 -0.00018893682)
(0 1.4707575e-08 -0.00022012125)
(0 1.5906352e-07 -0.00024479029)
(0 3.5645649e-07 -0.00025826238)
(0 5.773084e-07 -0.00024956421)
(0 4.6173851e-07 -0.00019543827)
(0 0 0)
(0 -0.00017783614 -3.6875247e-05)
(0 -0.00014381327 -3.7378537e-05)
(0 -0.00010729414 -3.7217686e-05)
(0 -6.9020633e-05 -3.6400602e-05)
(0 -2.9628989e-05 -3.4945626e-05)
(0 1.0250483e-05 -3.2875393e-05)
(0 4.9882626e-05 -3.0249258e-05)
(0 8.8498191e-05 -2.713043e-05)
(0 0.00012522493 -2.355069e-05)
(0 0.00015938064 -1.9574757e-05)
(0 0.0001906688 -1.530536e-05)
(0 0.00021873056 -1.0814424e-05)
(0 0.00024316147 -6.1490162e-06)
(0 0.00026339307 -1.3464452e-06)
(0 0.00027874384 3.5196762e-06)
(0 0.00028888876 8.3366104e-06)
(0 0.00029408656 1.2985868e-05)
(0 0.00029446679 1.734422e-05)
(0 0.00028975971 2.1324766e-05)
(0 0.00027954939 2.4794114e-05)
(0 0.00026300031 2.7484994e-05)
(0 0.00023803156 2.8841129e-05)
(0 0.00019938956 2.761933e-05)
(0 0.00013656893 2.1241143e-05)
(0 0 0)
(0 -0.00014609629 1.2291128e-07)
(0 -0.00011763727 1.0760746e-07)
(0 -8.7114769e-05 1.1641087e-07)
(0 -5.5219774e-05 1.3569517e-07)
(0 -2.2444471e-05 1.6207869e-07)
(0 1.0715061e-05 1.9428023e-07)
(0 4.3698748e-05 2.0647037e-07)
(0 7.5890808e-05 1.9817896e-07)
(0 0.00010627743 2.0441499e-07)
(0 0.00013413526 2.134718e-07)
(0 0.00015948942 1.7271904e-07)
(0 0.00018221104 8.6928789e-08)
(0 0.00020200676 5.5757763e-09)
(0 0.0002183615 1.6207513e-09)
(0 0.00023046457 8.0380131e-08)
(0 0.00023799376 1.7888888e-07)
(0 0.00024147381 2.4990165e-07)
(0 0.00024114838 2.605239e-07)
(0 0.00023671117 2.3989631e-07)
(0 0.00022769649 2.0549866e-07)
(0 0.00021329891 1.5366943e-07)
(0 0.00019162964 8.1298325e-08)
(0 0.00015813358 7.1803559e-09)
(0 0.00010409728 -9.0399788e-09)
(0 0 0)
(0 -0.00012515092 4.2076501e-05)
(0 -0.00010097096 4.255487e-05)
(0 -7.4980517e-05 4.2309748e-05)
(0 -4.7806854e-05 4.1335684e-05)
(0 -1.9875722e-05 3.9659098e-05)
(0 8.3787922e-06 3.7309014e-05)
(0 3.6533796e-05 3.4304219e-05)
(0 6.4090703e-05 3.071484e-05)
(0 9.0040581e-05 2.6648988e-05)
(0 0.00011370477 2.216709e-05)
(0 0.00013523664 1.7297656e-05)
(0 0.00015459035 1.2125522e-05)
(0 0.00017150367 6.7876453e-06)
(0 0.00018554887 1.467981e-06)
(0 0.00019595063 -3.7449092e-06)
(0 0.00020241078 -8.8487493e-06)
(0 0.00020544883 -1.3800717e-05)
(0 0.00020525036 -1.8522643e-05)
(0 0.00020151973 -2.2865715e-05)
(0 0.00019383819 -2.6638204e-05)
(0 0.00018149317 -2.9510434e-05)
(0 0.00016280677 -3.0763691e-05)
(0 0.00013380838 -2.8825085e-05)
(0 8.6877334e-05 -2.0618306e-05)
(0 0 0)
(0 -0.0001023269 8.532392e-05)
(0 -8.2781745e-05 8.6264636e-05)
(0 -6.1710799e-05 8.5701905e-05)
(0 -3.9652659e-05 8.3649732e-05)
(0 -1.698199e-05 8.0155477e-05)
(0 5.9203524e-06 7.5295324e-05)
(0 2.8735494e-05 6.9144911e-05)
(0 5.1089157e-05 6.1838189e-05)
(0 7.2135707e-05 5.3556723e-05)
(0 9.1333537e-05 4.4444698e-05)
(0 0.00010881757 3.4625534e-05)
(0 0.0001245279 2.4254202e-05)
(0 0.00013827688 1.3528691e-05)
(0 0.00014974314 2.7495708e-06)
(0 0.00015830796 -7.8937207e-06)
(0 0.00016368822 -1.832662e-05)
(0 0.00016628554 -2.8405587e-05)
(0 0.00016624026 -3.794441e-05)
(0 0.00016329372 -4.6675603e-05)
(0 0.00015712612 -5.4214678e-05)
(0 0.00014715664 -5.9876023e-05)
(0 0.00013200289 -6.2158393e-05)
(0 0.00010837897 -5.7841124e-05)
(0 6.9913224e-05 -4.0809567e-05)
(0 0 0)
(0 -7.7890269e-05 0.00012872801)
(0 -6.3264378e-05 0.00013014227)
(0 -4.7444429e-05 0.00012927382)
(0 -3.0847837e-05 0.00012615039)
(0 -1.3794694e-05 0.00012082664)
(0 3.3979474e-06 0.00011343427)
(0 2.0508661e-05 0.00010412255)
(0 3.7313444e-05 9.3083878e-05)
(0 5.3186142e-05 8.0565766e-05)
(0 6.7726479e-05 6.6802536e-05)
(0 8.0995067e-05 5.201448e-05)
(0 9.2882819e-05 3.642127e-05)
(0 0.000103309 2.0286789e-05)
(0 0.0001120599 4.0045824e-06)
(0 0.00011865476 -1.2137163e-05)
(0 0.00012289567 -2.7959852e-05)
(0 0.00012506682 -4.321371e-05)
(0 0.0001252108 -5.7602856e-05)
(0 0.00012312295 -7.0740255e-05)
(0 0.00011860752 -8.204395e-05)
(0 0.00011123683 -9.0472538e-05)
(0 9.9999004e-05 -9.3746355e-05)
(0 8.2319278e-05 -8.6975777e-05)
(0 5.3109802e-05 -6.1008642e-05)
(0 0 0)
(0 -5.2377664e-05 0.0001708322)
(0 -4.2783893e-05 0.00017276065)
(0 -3.2347915e-05 0.00017166175)
(0 -2.1381609e-05 0.00016755435)
(0 -1.012988e-05 0.00016052609)
(0 1.1693272e-06 0.00015073299)
(0 1.2400941e-05 0.00013836979)
(0 2.3504078e-05 0.00012371085)
(0 3.4059506e-05 0.00010706943)
(0 4.3787789e-05 8.8756878e-05)
(0 5.268678e-05 6.9090442e-05)
(0 6.0639713e-05 4.8372895e-05)
(0 6.7653646e-05 2.695252e-05)
(0 7.3577282e-05 5.2691317e-06)
(0 7.8068586e-05 -1.6314577e-05)
(0 8.1053341e-05 -3.7469406e-05)
(0 8.272982e-05 -5.783345e-05)
(0 8.304367e-05 -7.7006526e-05)
(0 8.1856877e-05 -9.4469695e-05)
(0 7.9076388e-05 -0.00010945643)
(0 7.4420613e-05 -0.00012061316)
(0 6.7268e-05 -0.00012494693)
(0 5.5772636e-05 -0.00011597982)
(0 3.6214011e-05 -8.1529661e-05)
(0 0 0)
(0 -2.6359287e-05 0.00021049062)
(0 -2.1680981e-05 0.00021297943)
(0 -1.6558466e-05 0.00021171275)
(0 -1.1188279e-05 0.00020672374)
(0 -5.7147308e-06 0.00019814043)
(0 -2.8973834e-07 0.00018612899)
(0 5.0972255e-06 0.00017091342)
(0 1.0519329e-05 0.00015285259)
(0 1.5715882e-05 0.00013232207)
(0 2.053193e-05 0.00010969562)
(0 2.4963159e-05 8.5379646e-05)
(0 2.8924735e-05 5.9781555e-05)
(0 3.248549e-05 3.3331096e-05)
(0 3.5515016e-05 6.4996147e-06)
(0 3.7782509e-05 -2.0284218e-05)
(0 3.9367398e-05 -4.6548683e-05)
(0 4.0401014e-05 -7.1817487e-05)
(0 4.0760889e-05 -9.559172e-05)
(0 4.0402007e-05 -0.00011722697)
(0 3.9327087e-05 -0.00013580828)
(0 3.7359204e-05 -0.00014971978)
(0 3.4213683e-05 -0.00015534934)
(0 2.8854376e-05 -0.00014476245)
(0 1.902244e-05 -0.00010280573)
(0 0 0)
(0 -1.8301513e-07 0.00024723485)
(0 -1.2664915e-07 0.00025030727)
(0 -7.5696375e-08 0.00024891619)
(0 -6.984815e-08 0.0002431396)
(0 -1.4455377e-07 0.00023312013)
(0 -3.25867e-07 0.00021905743)
(0 -5.1959935e-07 0.00020122243)
(0 -6.0193223e-07 0.00018001668)
(0 -6.6337851e-07 0.00015586831)
(0 -7.3094092e-07 0.00012922079)
(0 -7.7495372e-07 0.00010056478)
(0 -8.1584822e-07 7.0408169e-05)
(0 -7.4644177e-07 3.9265694e-05)
(0 -6.8976301e-07 7.6478874e-06)
(0 -7.7042156e-07 -2.3940135e-05)
(0 -7.8097649e-07 -5.4918605e-05)
(0 -6.5395575e-07 -8.4723626e-05)
(0 -5.1870294e-07 -0.00011276655)
(0 -3.261155e-07 -0.00013830789)
(0 4.6396903e-09 -0.00016033255)
(0 4.0017285e-07 -0.000177012)
(0 8.8509605e-07 -0.00018426311)
(0 1.3163794e-06 -0.00017297132)
(0 1.0285519e-06 -0.00012528579)
(0 0 0)
(0 2.2520356e-05 0.00029849986)
(0 1.846072e-05 0.00030239441)
(0 1.4056592e-05 0.00030094194)
(0 9.3818646e-06 0.00029421953)
(0 4.5010588e-06 0.00028237722)
(0 -5.1111378e-07 0.0002656507)
(0 -5.5116032e-06 0.00024436106)
(0 -1.0346943e-05 0.00021894226)
(0 -1.4971018e-05 0.0001898834)
(0 -1.9301474e-05 0.00015771989)
(0 -2.3289588e-05 0.00012303883)
(0 -2.6907641e-05 8.645674e-05)
(0 -3.001349e-05 4.8603776e-05)
(0 -3.2643094e-05 1.0095998e-05)
(0 -3.4793756e-05 -2.8430007e-05)
(0 -3.6282629e-05 -6.6288065e-05)
(0 -3.7107324e-05 -0.00010281486)
(0 -3.7331753e-05 -0.00013730083)
(0 -3.6848994e-05 -0.00016889409)
(0 -3.5534725e-05 -0.00019644656)
(0 -3.3336351e-05 -0.00021791003)
(0 -2.9989439e-05 -0.00022878719)
(0 -2.4910131e-05 -0.00021872462)
(0 -1.7251381e-05 -0.00016632504)
(0 0 0)
(0 -0.00015648391 -8.4216263e-05)
(0 -0.00012646813 -8.5293161e-05)
(0 -9.423755e-05 -8.4873311e-05)
(0 -6.0460372e-05 -8.2964435e-05)
(0 -2.5682638e-05 -7.9615316e-05)
(0 9.5397027e-06 -7.4888001e-05)
(0 4.4523358e-05 -6.8884975e-05)
(0 7.8531858e-05 -6.1719987e-05)
(0 0.00011078763 -5.3510773e-05)
(0 0.00014073259 -4.4426289e-05)
(0 0.00016815779 -3.4666622e-05)
(0 0.00019279252 -2.4401461e-05)
(0 0.00021429 -1.3767388e-05)
(0 0.00023214716 -2.9006488e-06)
(0 0.00024563821 8.0105069e-06)
(0 0.00025446728 1.8762904e-05)
(0 0.00025896891 2.9152163e-05)
(0 0.00025922128 3.8928796e-05)
(0 0.00025496633 4.7859411e-05)
(0 0.00024581174 5.5626551e-05)
(0 0.00023096938 6.159955e-05)
(0 0.0002085007 6.4435271e-05)
(0 0.00017357729 6.1163176e-05)
(0 0.00011680747 4.5802227e-05)
(0 0 0)
(0 -0.00012499602 -4.1907794e-05)
(0 -0.0001007828 -4.2425109e-05)
(0 -7.4759868e-05 -4.2171402e-05)
(0 -4.7550063e-05 -4.1163577e-05)
(0 -1.9556892e-05 -3.9438269e-05)
(0 8.8054224e-06 -3.7032408e-05)
(0 3.7028691e-05 -3.4011062e-05)
(0 6.4504145e-05 -3.0420176e-05)
(0 9.0322196e-05 -2.6304691e-05)
(0 0.00011388651 -2.1773028e-05)
(0 0.00013532714 -1.696293e-05)
(0 0.00015464651 -1.1958457e-05)
(0 0.00017159658 -6.7865477e-06)
(0 0.00018570925 -1.4607782e-06)
(0 0.00019613271 3.9163582e-06)
(0 0.00020253631 9.2118511e-06)
(0 0.00020550947 1.4310064e-05)
(0 0.00020526383 1.9061085e-05)
(0 0.00020149761 2.3364354e-05)
(0 0.00019379157 2.707456e-05)
(0 0.00018142986 2.9850014e-05)
(0 0.00016273232 3.0956233e-05)
(0 0.00013369505 2.8859237e-05)
(0 8.6770048e-05 2.0606047e-05)
(0 0 0)
(0 -0.00010314242 1.1873204e-07)
(0 -8.330714e-05 7.0812499e-08)
(0 -6.1919998e-05 6.3433881e-08)
(0 -3.954735e-05 7.7710811e-08)
(0 -1.6522987e-05 1.0558421e-07)
(0 6.8013203e-06 1.374817e-07)
(0 3.0058521e-05 1.431904e-07)
(0 5.2758057e-05 1.4657227e-07)
(0 7.3994281e-05 1.8057309e-07)
(0 9.3210379e-05 2.1256698e-07)
(0 0.00011068616 1.8635495e-07)
(0 0.00012652554 9.7388193e-08)
(0 0.00014048972 -9.4587629e-10)
(0 0.00015218179 -3.5259674e-09)
(0 0.00016083069 8.1370229e-08)
(0 0.00016609809 1.7491186e-07)
(0 0.00016854645 2.4599812e-07)
(0 0.00016838339 2.5858222e-07)
(0 0.00016531956 2.3598266e-07)
(0 0.00015897799 2.0881044e-07)
(0 0.00014874102 1.6052862e-07)
(0 0.00013316839 6.7667839e-08)
(0 0.00010890415 -2.2734288e-08)
(0 6.962684e-05 -3.2340027e-08)
(0 0 0)
(0 -7.9313482e-05 4.4035201e-05)
(0 -6.4198433e-05 4.445053e-05)
(0 -4.7851947e-05 4.4116279e-05)
(0 -3.0721931e-05 4.3028443e-05)
(0 -1.309659e-05 4.1195985e-05)
(0 4.7255508e-06 3.8668142e-05)
(0 2.2494978e-05 3.5484491e-05)
(0 3.985612e-05 3.1720626e-05)
(0 5.6044614e-05 2.7482398e-05)
(0 7.0614518e-05 2.2824794e-05)
(0 8.3878422e-05 1.7786271e-05)
(0 9.5948298e-05 1.2433276e-05)
(0 0.0001066124 6.8819912e-06)
(0 0.0001155978 1.3550334e-06)
(0 0.00012230188 -4.054325e-06)
(0 0.0001264 -9.3620668e-06)
(0 0.00012834962 -1.4501135e-05)
(0 0.00012831551 -1.9390035e-05)
(0 0.00012605769 -2.388652e-05)
(0 0.00012128568 -2.7753587e-05)
(0 0.00011350825 -3.0626204e-05)
(0 0.00010165007 -3.1726651e-05)
(0 8.3079007e-05 -2.9328547e-05)
(0 5.2759869e-05 -2.0256999e-05)
(0 0 0)
(0 -5.366926e-05 8.857334e-05)
(0 -4.3573281e-05 8.9454999e-05)
(0 -3.2623977e-05 8.8780154e-05)
(0 -2.1112611e-05 8.6562092e-05)
(0 -9.2791287e-06 8.2811124e-05)
(0 2.6433996e-06 7.7654104e-05)
(0 1.4514843e-05 7.1219767e-05)
(0 2.6155536e-05 6.3628696e-05)
(0 3.7004298e-05 5.5054426e-05)
(0 4.6735606e-05 4.5641231e-05)
(0 5.5620976e-05 3.5534417e-05)
(0 6.3726672e-05 2.486797e-05)
(0 7.0914337e-05 1.3821959e-05)
(0 7.7028191e-05 2.7008679e-06)
(0 8.1630246e-05 -8.3101078e-06)
(0 8.4486488e-05 -1.9115748e-05)
(0 8.594803e-05 -2.9541405e-05)
(0 8.6083635e-05 -3.9390494e-05)
(0 8.4696714e-05 -4.8396748e-05)
(0 8.1621092e-05 -5.6122338e-05)
(0 7.6541382e-05 -6.1806995e-05)
(0 6.8798651e-05 -6.383517e-05)
(0 5.6488484e-05 -5.8765291e-05)
(0 3.5905642e-05 -4.0336868e-05)
(0 0 0)
(0 -2.6908182e-05 0.00013186912)
(0 -2.1919639e-05 0.0001332412)
(0 -1.6483488e-05 0.00013229247)
(0 -1.0762738e-05 0.00012903136)
(0 -4.9174565e-06 0.00012350141)
(0 8.9315293e-07 0.0001158572)
(0 6.6474917e-06 0.00010627298)
(0 1.2364686e-05 9.4955052e-05)
(0 1.7704061e-05 8.2143119e-05)
(0 2.2435962e-05 6.8064314e-05)
(0 2.6777326e-05 5.2968677e-05)
(0 3.0790488e-05 3.7075353e-05)
(0 3.4407618e-05 2.0647262e-05)
(0 3.7534044e-05 4.025278e-06)
(0 3.9867409e-05 -1.2537487e-05)
(0 4.134722e-05 -2.8788748e-05)
(0 4.2254236e-05 -4.4434228e-05)
(0 4.2541933e-05 -5.9169068e-05)
(0 4.2068778e-05 -7.2587097e-05)
(0 4.0792826e-05 -8.4065515e-05)
(0 3.856973e-05 -9.249911e-05)
(0 3.5116486e-05 -9.5483809e-05)
(0 2.930332e-05 -8.7908578e-05)
(0 1.8835809e-05 -6.0474792e-05)
(0 0 0)
(0 -3.7529201e-08 0.00017256586)
(0 2.0230326e-08 0.00017447047)
(0 7.2909658e-08 0.00017333248)
(0 9.809686e-08 0.00016915269)
(0 4.2438753e-08 0.00016203126)
(0 -1.6226057e-07 0.00015211254)
(0 -4.2897847e-07 0.00013958855)
(0 -5.8183164e-07 0.00012476849)
(0 -7.4825259e-07 0.00010795593)
(0 -1.0617556e-06 8.94485e-05)
(0 -1.3296857e-06 6.9586177e-05)
(0 -1.4405897e-06 4.8700166e-05)
(0 -1.3952936e-06 2.7142942e-05)
(0 -1.2797236e-06 5.2697237e-06)
(0 -1.3011675e-06 -1.6598019e-05)
(0 -1.3231776e-06 -3.8056994e-05)
(0 -1.1204158e-06 -5.8701548e-05)
(0 -8.1035146e-07 -7.812356e-05)
(0 -4.450004e-07 -9.5783238e-05)
(0 3.537232e-08 -0.00011088576)
(0 5.9629625e-07 -0.00012204155)
(0 1.2809972e-06 -0.00012616918)
(0 1.8265744e-06 -0.0001166255)
(0 1.4237197e-06 -8.1102345e-05)
(0 0 0)
(0 2.6102346e-05 0.00021049671)
(0 2.1523253e-05 0.0002129844)
(0 1.6499105e-05 0.0002117012)
(0 1.1150642e-05 0.00020669097)
(0 5.5380947e-06 0.00019808115)
(0 -2.8521885e-07 0.00018603733)
(0 -6.1565805e-06 0.00017079207)
(0 -1.1825321e-05 0.0001527091)
(0 -1.7232963e-05 0.00013215387)
(0 -2.2387197e-05 0.00010949782)
(0 -2.709098e-05 8.5163561e-05)
(0 -3.119164e-05 5.9589145e-05)
(0 -3.4629213e-05 3.3210239e-05)
(0 -3.7481724e-05 6.4220847e-06)
(0 -3.9843434e-05 -2.0363878e-05)
(0 -4.1453757e-05 -4.6637684e-05)
(0 -4.2161004e-05 -7.1916794e-05)
(0 -4.2071907e-05 -9.5700119e-05)
(0 -4.1153037e-05 -0.00011734411)
(0 -3.9286398e-05 -0.0001359307)
(0 -3.6384939e-05 -0.00014983113)
(0 -3.2089119e-05 -0.00015543072)
(0 -2.5790345e-05 -0.0001448003)
(0 -1.6643105e-05 -0.00010280395)
(0 0 0)
(0 5.1285538e-05 0.00026293367)
(0 4.1919631e-05 0.00026627371)
(0 3.1778629e-05 0.00026490468)
(0 2.106857e-05 0.00025889285)
(0 9.9585295e-06 0.00024837396)
(0 -1.3747126e-06 0.00023355759)
(0 -1.2693952e-05 0.00021473241)
(0 -2.3711747e-05 0.00019229174)
(0 -3.4246842e-05 0.00016667077)
(0 -4.4148485e-05 0.00013834354)
(0 -5.3228845e-05 0.00010782924)
(0 -6.1347059e-05 7.5674506e-05)
(0 -6.8353462e-05 4.2431745e-05)
(0 -7.4226083e-05 8.6218186e-06)
(0 -7.8923323e-05 -2.5207029e-05)
(0 -8.2196522e-05 -5.8446179e-05)
(0 -8.3965641e-05 -9.0511e-05)
(0 -8.4263146e-05 -0.00012077529)
(0 -8.2991436e-05 -0.00014846885)
(0 -7.9994397e-05 -0.00017252193)
(0 -7.5041813e-05 -0.00019102221)
(0 -6.7499107e-05 -0.00019979723)
(0 -5.5948712e-05 -0.00018941282)
(0 -3.7879988e-05 -0.00014089561)
(0 0 0)
(0 -0.00013271077 -0.00013195877)
(0 -0.00010730785 -0.00013357998)
(0 -7.9986079e-05 -0.00013286084)
(0 -5.1348245e-05 -0.00012981684)
(0 -2.1856097e-05 -0.00012451811)
(0 8.0060823e-06 -0.00011707174)
(0 3.7628784e-05 -0.00010763131)
(0 6.6360147e-05 -9.6368025e-05)
(0 9.3599746e-05 -8.34892e-05)
(0 0.00011891018 -6.9261686e-05)
(0 0.00014208079 -5.3976545e-05)
(0 0.00016290508 -3.7900287e-05)
(0 0.00018110895 -2.1264671e-05)
(0 0.00019626825 -4.3154306e-06)
(0 0.00020773658 1.2646895e-05)
(0 0.00021526301 2.9332698e-05)
(0 0.00021914002 4.5447073e-05)
(0 0.00021937731 6.0620926e-05)
(0 0.00021575468 7.4479716e-05)
(0 0.0002079582 8.6507341e-05)
(0 0.00019531147 9.5694774e-05)
(0 0.00017611261 9.9874152e-05)
(0 0.00014618375 9.4280165e-05)
(0 9.7538087e-05 6.9545571e-05)
(0 0 0)
(0 -0.00010206384 -8.5306642e-05)
(0 -8.2440514e-05 -8.6250559e-05)
(0 -6.1266039e-05 -8.5673899e-05)
(0 -3.9119276e-05 -8.3590556e-05)
(0 -1.6326104e-05 -8.0054594e-05)
(0 6.7590584e-06 -7.5144597e-05)
(0 2.9703483e-05 -6.8978456e-05)
(0 5.1976512e-05 -6.1656902e-05)
(0 7.2859074e-05 -5.3305487e-05)
(0 9.1902678e-05 -4.4124331e-05)
(0 0.00010922465 -3.4330663e-05)
(0 0.00012487035 -2.4093857e-05)
(0 0.00013864036 -1.3521521e-05)
(0 0.0001501715 -2.7313867e-06)
(0 0.00015872128 8.0667422e-06)
(0 0.00016398434 1.8668414e-05)
(0 0.00016648131 2.8880229e-05)
(0 0.00016634378 3.8448786e-05)
(0 0.00016331606 4.7142183e-05)
(0 0.00015708282 5.463359e-05)
(0 0.00014707101 6.0225415e-05)
(0 0.00013186804 6.2396498e-05)
(0 0.00010815278 5.7929581e-05)
(0 6.9710892e-05 4.0821146e-05)
(0 0 0)
(0 -7.9175632e-05 -4.3911912e-05)
(0 -6.3996274e-05 -4.4392584e-05)
(0 -4.7558698e-05 -4.4071915e-05)
(0 -3.0365922e-05 -4.2958254e-05)
(0 -1.267206e-05 -4.1073946e-05)
(0 5.2383178e-06 -3.8484874e-05)
(0 2.3078301e-05 -3.5291137e-05)
(0 4.0426952e-05 -3.1514482e-05)
(0 5.6554824e-05 -2.7203271e-05)
(0 7.1051508e-05 -2.2479495e-05)
(0 8.4222503e-05 -1.7474374e-05)
(0 9.6241946e-05 -1.2273546e-05)
(0 0.00010688372 -6.9039448e-06)
(0 0.00011585811 -1.3677795e-06)
(0 0.00012253431 4.218105e-06)
(0 0.00012657216 9.6950013e-06)
(0 0.00012847042 1.4953239e-05)
(0 0.00012838607 1.9857124e-05)
(0 0.00012608074 2.4303317e-05)
(0 0.00012126437 2.8130799e-05)
(0 0.000113454 3.0934665e-05)
(0 0.00010154617 3.1880711e-05)
(0 8.2910324e-05 2.9307034e-05)
(0 5.2622551e-05 2.0196094e-05)
(0 0 0)
(0 -5.4243749e-05 7.1017843e-08)
(0 -4.3862955e-05 2.5285219e-08)
(0 -3.2597688e-05 5.2014859e-09)
(0 -2.0796206e-05 1.5460281e-08)
(0 -8.6638689e-06 4.6689569e-08)
(0 3.5770617e-06 8.329944e-08)
(0 1.5775816e-05 8.9935496e-08)
(0 2.766031e-05 9.6722984e-08)
(0 3.8591132e-05 1.2337502e-07)
(0 4.8218991e-05 1.4088042e-07)
(0 5.6968394e-05 1.2299829e-07)
(0 6.5075919e-05 5.7737544e-08)
(0 7.2293799e-05 -2.4306006e-08)
(0 7.8438007e-05 -1.1616966e-08)
(0 8.3056548e-05 7.7510973e-08)
(0 8.5828327e-05 1.4752798e-07)
(0 8.7163325e-05 1.8921785e-07)
(0 8.7193105e-05 1.8576056e-07)
(0 8.5718761e-05 1.576569e-07)
(0 8.2536869e-05 1.4775765e-07)
(0 7.729052e-05 1.1867857e-07)
(0 6.9286536e-05 3.8142029e-08)
(0 5.6630481e-05 -4.8614495e-08)
(0 3.5726586e-05 -5.5488831e-08)
(0 0 0)
(0 -2.7463349e-05 4.5482396e-05)
(0 -2.2208951e-05 4.5884505e-05)
(0 -1.6497151e-05 4.549255e-05)
(0 -1.0499951e-05 4.4321933e-05)
(0 -4.36201e-06 4.2345026e-05)
(0 1.7663162e-06 3.9654461e-05)
(0 7.8590293e-06 3.6336335e-05)
(0 1.3854386e-05 3.2440003e-05)
(0 1.9284751e-05 2.8056209e-05)
(0 2.3846504e-05 2.3246183e-05)
(0 2.800643e-05 1.8087405e-05)
(0 3.2023958e-05 1.264209e-05)
(0 3.5659295e-05 7.0066495e-06)
(0 3.882822e-05 1.3680271e-06)
(0 4.123265e-05 -4.204176e-06)
(0 4.2664142e-05 -9.6933479e-06)
(0 4.3459502e-05 -1.5000632e-05)
(0 4.3660755e-05 -2.0028308e-05)
(0 4.3101683e-05 -2.4642067e-05)
(0 4.1709942e-05 -2.8581188e-05)
(0 3.9322154e-05 -3.1452791e-05)
(0 3.5636417e-05 -3.2441244e-05)
(0 2.9508393e-05 -2.9766953e-05)
(0 1.8723219e-05 -2.020623e-05)
(0 0 0)
(0 1.2938868e-07 8.9990401e-05)
(0 1.9033058e-07 9.0862299e-05)
(0 2.5280552e-07 9.0144553e-05)
(0 3.031807e-07 8.7853162e-05)
(0 2.8689205e-07 8.3974135e-05)
(0 1.2572213e-07 7.866218e-05)
(0 -8.8768599e-08 7.2081976e-05)
(0 -1.8711491e-07 6.4348045e-05)
(0 -4.1224135e-07 5.5620514e-05)
(0 -1.0305824e-06 4.6044752e-05)
(0 -1.5764894e-06 3.5799801e-05)
(0 -1.7414932e-06 2.5036118e-05)
(0 -1.7334478e-06 1.3936307e-05)
(0 -1.5929027e-06 2.7150818e-06)
(0 -1.521768e-06 -8.4870748e-06)
(0 -1.5285133e-06 -1.949785e-05)
(0 -1.3256499e-06 -3.0105184e-05)
(0 -9.6740197e-07 -4.0101297e-05)
(0 -5.528595e-07 -4.921483e-05)
(0 -4.4085922e-08 -5.6997365e-05)
(0 5.6524827e-07 -6.2662776e-05)
(0 1.3230873e-06 -6.4557534e-05)
(0 1.9014417e-06 -5.9181583e-05)
(0 1.5094454e-06 -4.0252909e-05)
(0 0 0)
(0 2.6984062e-05 0.00013182326)
(0 2.2085757e-05 0.00013319998)
(0 1.6734951e-05 0.0001322459)
(0 1.1066271e-05 0.00012897483)
(0 5.1328925e-06 0.00012343392)
(0 -1.0517999e-06 0.00011576548)
(0 -7.3100737e-06 0.00010614939)
(0 -1.3308391e-05 9.480715e-05)
(0 -1.9046842e-05 8.1965339e-05)
(0 -2.471846e-05 6.7850836e-05)
(0 -2.9870414e-05 5.2737433e-05)
(0 -3.4130752e-05 3.6881567e-05)
(0 -3.7640606e-05 2.0549875e-05)
(0 -4.0460714e-05 3.9737677e-06)
(0 -4.2727473e-05 -1.2626629e-05)
(0 -4.4233448e-05 -2.8927075e-05)
(0 -4.4743052e-05 -4.4612848e-05)
(0 -4.435267e-05 -5.9373997e-05)
(0 -4.3080054e-05 -7.2796009e-05)
(0 -4.0815485e-05 -8.425556e-05)
(0 -3.7421774e-05 -9.2653496e-05)
(0 -3.2520875e-05 -9.5588222e-05)
(0 -2.5600219e-05 -8.7955132e-05)
(0 -1.5919549e-05 -6.0488776e-05)
(0 0 0)
(0 5.2190978e-05 0.00017079934)
(0 4.2650472e-05 0.00017272682)
(0 3.2271436e-05 0.00017160594)
(0 2.1306072e-05 0.00016746823)
(0 9.9172239e-06 0.00016040381)
(0 -1.767919e-06 0.00015055984)
(0 -1.3504918e-05 0.00013814226)
(0 -2.4874092e-05 0.0001234427)
(0 -3.5700481e-05 0.00010675801)
(0 -4.6017525e-05 8.839633e-05)
(0 -5.5396065e-05 6.8706769e-05)
(0 -6.3480266e-05 4.8049838e-05)
(0 -7.0310561e-05 2.6774771e-05)
(0 -7.5935565e-05 5.1693167e-06)
(0 -8.0409578e-05 -1.6450402e-05)
(0 -8.3416725e-05 -3.7663532e-05)
(0 -8.4774905e-05 -5.8077434e-05)
(0 -8.4557871e-05 -7.7287928e-05)
(0 -8.271748e-05 -9.4766906e-05)
(0 -7.9118356e-05 -0.00010974332)
(0 -7.3482785e-05 -0.00012085597)
(0 -6.5106154e-05 -0.00012511394)
(0 -5.2650615e-05 -0.00011605558)
(0 -3.3762231e-05 -8.1544062e-05)
(0 0 0)
(0 7.9553982e-05 0.00022261403)
(0 6.471358e-05 0.00022537312)
(0 4.8700166e-05 0.00022415796)
(0 3.1838563e-05 0.00021901322)
(0 1.4405047e-05 0.00021004784)
(0 -3.3352848e-06 0.000197446)
(0 -2.1039051e-05 0.00018146405)
(0 -3.8251472e-05 0.00016243346)
(0 -5.4685792e-05 0.00014072473)
(0 -7.0147736e-05 0.00011674696)
(0 -8.4259742e-05 9.0942471e-05)
(0 -9.675407e-05 6.377618e-05)
(0 -0.00010751055 3.5712606e-05)
(0 -0.00011645353 7.1748921e-06)
(0 -0.00012351534 -2.1383354e-05)
(0 -0.00012838513 -4.9447775e-05)
(0 -0.00013093826 -7.6524624e-05)
(0 -0.00013116602 -0.00010208071)
(0 -0.00012896343 -0.00012545298)
(0 -0.00012415902 -0.00014569727)
(0 -0.00011632469 -0.00016113059)
(0 -0.00010444506 -0.0001681223)
(0 -8.6269689e-05 -0.00015859762)
(0 -5.7661783e-05 -0.00011660887)
(0 0 0)
(0 -0.00010694806 -0.0001785666)
(0 -8.6635904e-05 -0.00018075848)
(0 -6.4734764e-05 -0.00017976586)
(0 -4.1768229e-05 -0.00017562624)
(0 -1.8117685e-05 -0.00016842227)
(0 5.8215446e-06 -0.0001583083)
(0 2.9567967e-05 -0.00014550697)
(0 5.2588669e-05 -0.00013025181)
(0 7.4439901e-05 -0.00011282469)
(0 9.4804068e-05 -9.3580516e-05)
(0 0.0001134512 -7.2898983e-05)
(0 0.00013019198 -5.1136632e-05)
(0 0.00014482707 -2.8621639e-05)
(0 0.00015703414 -5.7111253e-06)
(0 0.00016632989 1.7192017e-05)
(0 0.00017252948 3.9698275e-05)
(0 0.0001758169 6.141184e-05)
(0 0.00017612602 8.1869003e-05)
(0 0.00017327917 0.00010056266)
(0 0.00016707104 0.00011677019)
(0 0.00015697565 0.00012911159)