/*--------------------------------*- C++ -*----------------------------------*\
| =========                 |                                                 |
| \\      /  F ield         | OpenFOAM: The Open Source CFD Toolbox           |
|  \\    /   O peration     | Version:  4.1                                   |
|   \\  /    A nd           | Web:      www.OpenFOAM.org                      |
|    \\/     M anipulation  |                                                 |
\*---------------------------------------------------------------------------*/
FoamFile
{
    version     2.0;
    format      ascii;
    class       pointVectorField;
    location    "0.0044";
    object      pointDisplacement_Next;
}
// * * * * * * * * * * * * * * * * * * * * * * * * * * * * * * * * * * * * * //

dimensions      [0 1 0 0 0 0 0];

internalField   uniform (0 0 0);

boundaryField
{
    inlet
    {
        type            fixedValue;
        value           uniform (0 0 0);
    }
    outlet
    {
        type            fixedValue;
        value           nonuniform 0();
    }
    mantle
    {
        type            fixedValue;
        value           nonuniform List<vector> 
416
(
(9.923e-14 3.0039e-12 5.5118e-17)
(-5.818e-08 7.7709e-06 1.361e-10)
(-1.0543e-07 7.4981e-06 -1.4179e-06)
(4.9386e-09 3.4431e-08 3.3373e-09)
(-1.6058e-07 6.884e-06 -2.8235e-06)
(1.0128e-13 3.9738e-12 -1.5768e-12)
(-1.4484e-07 6.1963e-06 -4.1837e-06)
(2.8793e-09 1.5017e-08 -2.5565e-08)
(-1.1525e-07 5.3415e-06 -5.3415e-06)
(6.7273e-14 5.5157e-13 -5.5129e-13)
(-1.4482e-07 4.1839e-06 -6.1964e-06)
(2.8784e-09 2.5564e-08 -1.5014e-08)
(-1.6052e-07 2.8238e-06 -6.8843e-06)
(1.0136e-13 1.5766e-12 -3.974e-12)
(-1.0534e-07 1.4181e-06 -7.4987e-06)
(4.9399e-09 -3.3318e-09 -3.4434e-08)
(-5.807e-08 5.513e-11 -7.7716e-06)
(9.9268e-14 1.6196e-17 -3.0042e-12)
(-1.1249e-06 1.251e-05 2.2827e-10)
(-1.2168e-06 1.2002e-05 -2.2932e-06)
(-1.3001e-06 1.1006e-05 -4.5208e-06)
(-1.2719e-06 9.8629e-06 -6.6382e-06)
(-1.2096e-06 8.5098e-06 -8.5097e-06)
(-1.2718e-06 6.6385e-06 -9.8631e-06)
(-1.3e-06 4.5213e-06 -1.1006e-05)
(-1.2167e-06 2.2937e-06 -1.2004e-05)
(-1.1248e-06 1.3115e-10 -1.2512e-05)
(-3.4219e-06 1.0604e-05 2.4501e-10)
(-3.4273e-06 1.0301e-05 -2.051e-06)
(-3.4336e-06 9.5225e-06 -3.9367e-06)
(-3.4375e-06 8.367e-06 -5.5629e-06)
(-3.4383e-06 7.0292e-06 -7.029e-06)
(-3.4375e-06 5.5635e-06 -8.3671e-06)
(-3.4336e-06 3.9375e-06 -9.5232e-06)
(-3.4273e-06 2.0518e-06 -1.0302e-05)
(-3.4219e-06 2.2149e-10 -1.0606e-05)
(-6.0963e-06 1.2817e-06 1.9775e-10)
(-6.0048e-06 1.3337e-06 -3.8103e-07)
(-5.9103e-06 1.2977e-06 -5.7909e-07)
(-5.9338e-06 8.3295e-07 -4.5574e-07)
(-5.9947e-06 4.397e-07 -4.3934e-07)
(-5.9339e-06 4.5647e-07 -8.3297e-07)
(-5.9105e-06 5.8006e-07 -1.2983e-06)
(-6.0051e-06 3.8194e-07 -1.3351e-06)
(-6.0965e-06 3.3179e-10 -1.2839e-06)
(-8.1995e-06 -1.431e-05 1.0036e-10)
(-8.1099e-06 -1.3901e-05 2.6315e-06)
(-7.9823e-06 -1.2975e-05 5.3404e-06)
(-7.9619e-06 -1.1879e-05 8.0464e-06)
(-7.9866e-06 -1.0328e-05 1.0329e-05)
(-7.9621e-06 -8.0456e-06 1.1879e-05)
(-7.9827e-06 -5.3394e-06 1.2974e-05)
(-8.1104e-06 -2.6306e-06 1.3899e-05)
(-8.1999e-06 4.3414e-10 1.4308e-05)
(-9.6264e-06 -3.3349e-05 3.9492e-12)
(-9.5437e-06 -3.253e-05 6.3671e-06)
(-9.4158e-06 -3.0411e-05 1.2584e-05)
(-9.3644e-06 -2.7397e-05 1.8407e-05)
(-9.3635e-06 -2.3435e-05 2.3436e-05)
(-9.3646e-06 -1.8406e-05 2.7397e-05)
(-9.4162e-06 -1.2583e-05 3.0411e-05)
(-9.5443e-06 -6.3663e-06 3.2529e-05)
(-9.6269e-06 5.5144e-10 3.3348e-05)
(-1.0676e-05 -5.2362e-05 -1.1811e-10)
(-1.0592e-05 -5.1173e-05 1.0144e-05)
(-1.047e-05 -4.7903e-05 1.9871e-05)
(-1.0456e-05 -4.2958e-05 2.8776e-05)
(-1.0481e-05 -3.6548e-05 3.6549e-05)
(-1.0456e-05 -2.8775e-05 4.2959e-05)
(-1.0471e-05 -1.987e-05 4.7903e-05)
(-1.0592e-05 -1.0143e-05 5.1173e-05)
(-1.0677e-05 6.4679e-10 5.2362e-05)
(-1.1861e-05 -6.88e-05 -2.8295e-10)
(-1.1782e-05 -6.7258e-05 1.3378e-05)
(-1.1687e-05 -6.3012e-05 2.6161e-05)
(-1.172e-05 -5.6427e-05 3.7764e-05)
(-1.1774e-05 -4.7939e-05 4.7939e-05)
(-1.172e-05 -3.7763e-05 5.6428e-05)
(-1.1687e-05 -2.6161e-05 6.3013e-05)
(-1.1782e-05 -1.3377e-05 6.7259e-05)
(-1.1861e-05 7.2323e-10 6.8801e-05)
(-1.3702e-05 -8.1332e-05 -2.2187e-10)
(-1.3689e-05 -7.961e-05 1.5841e-05)
(-1.3672e-05 -7.4658e-05 3.0943e-05)
(-1.3683e-05 -6.6889e-05 4.4701e-05)
(-1.3696e-05 -5.6774e-05 5.6775e-05)
(-1.3683e-05 -4.47e-05 6.6891e-05)
(-1.3672e-05 -3.0942e-05 7.4659e-05)
(-1.3688e-05 -1.584e-05 7.9613e-05)
(-1.3701e-05 5.3517e-10 8.1334e-05)
(-1.6704e-05 -9.0798e-05 -5.3453e-10)
(-1.6753e-05 -8.8922e-05 1.7693e-05)
(-1.6782e-05 -8.3471e-05 3.457e-05)
(-1.6775e-05 -7.4836e-05 4.9982e-05)
(-1.6734e-05 -6.3519e-05 6.352e-05)
(-1.6775e-05 -4.9982e-05 7.4837e-05)
(-1.6782e-05 -3.457e-05 8.3473e-05)
(-1.6752e-05 -1.7692e-05 8.8924e-05)
(-1.6704e-05 7.3342e-10 9.08e-05)
(-2.0965e-05 -9.8736e-05 -5.2014e-10)
(-2.0962e-05 -9.6717e-05 1.9249e-05)
(-2.0963e-05 -9.0819e-05 3.7644e-05)
(-2.0973e-05 -8.1475e-05 5.4455e-05)
(-2.0981e-05 -6.9192e-05 6.9193e-05)
(-2.0973e-05 -5.4455e-05 8.1476e-05)
(-2.0962e-05 -3.7644e-05 9.0821e-05)
(-2.0961e-05 -1.9249e-05 9.6719e-05)
(-2.0964e-05 6.9112e-10 9.8738e-05)
(-2.5655e-05 -0.00010628 -3.5334e-10)
(-2.56e-05 -0.00010412 2.0712e-05)
(-2.5561e-05 -9.7741e-05 4.0543e-05)
(-2.56e-05 -8.7749e-05 5.8696e-05)
(-2.5653e-05 -7.4554e-05 7.4554e-05)
(-2.56e-05 -5.8696e-05 8.775e-05)
(-2.5561e-05 -4.0543e-05 9.7743e-05)
(-2.56e-05 -2.0712e-05 0.00010412)
(-2.5655e-05 5.3479e-10 0.00010629)
(-1.0536e-07 -1.418e-06 -7.4987e-06)
(4.941e-09 3.3319e-09 -3.4438e-08)
(-1.6057e-07 -2.8237e-06 -6.8843e-06)
(1.0134e-13 -1.5767e-12 -3.9739e-12)
(-1.4489e-07 -4.1838e-06 -6.1964e-06)
(2.8773e-09 -2.5564e-08 -1.5011e-08)
(-1.1535e-07 -5.3415e-06 -5.3414e-06)
(6.7203e-14 -5.5144e-13 -5.5137e-13)
(-1.4493e-07 -6.1964e-06 -4.1837e-06)
(2.8778e-09 -1.5009e-08 -2.5562e-08)
(-1.6064e-07 -6.8844e-06 -2.8235e-06)
(1.0128e-13 -3.974e-12 -1.5767e-12)
(-1.0548e-07 -7.4987e-06 -1.4179e-06)
(4.9403e-09 -3.4439e-08 3.3328e-09)
(-5.8224e-08 -7.7716e-06 1.9463e-10)
(9.9209e-14 -3.0042e-12 7.9476e-17)
(-1.2167e-06 -2.2935e-06 -1.2004e-05)
(-1.3001e-06 -4.5212e-06 -1.1006e-05)
(-1.272e-06 -6.6384e-06 -9.8631e-06)
(-1.2098e-06 -8.5098e-06 -8.5096e-06)
(-1.272e-06 -9.8631e-06 -6.6382e-06)
(-1.3002e-06 -1.1006e-05 -4.5209e-06)
(-1.2169e-06 -1.2004e-05 -2.2932e-06)
(-1.125e-06 -1.2511e-05 3.2503e-10)
(-3.4274e-06 -2.0514e-06 -1.0302e-05)
(-3.4337e-06 -3.9372e-06 -9.5234e-06)
(-3.4377e-06 -5.5634e-06 -8.3673e-06)
(-3.4385e-06 -7.0292e-06 -7.029e-06)
(-3.4377e-06 -8.3672e-06 -5.5631e-06)
(-3.4338e-06 -9.5233e-06 -3.9369e-06)
(-3.4276e-06 -1.0302e-05 -2.0511e-06)
(-3.4221e-06 -1.0605e-05 3.5151e-10)
(-6.0051e-06 -3.814e-07 -1.3354e-06)
(-5.9106e-06 -5.7972e-07 -1.2986e-06)
(-5.934e-06 -4.5623e-07 -8.3326e-07)
(-5.995e-06 -4.3958e-07 -4.3954e-07)
(-5.9341e-06 -8.331e-07 -4.5601e-07)
(-5.9107e-06 -1.2983e-06 -5.7944e-07)
(-6.0052e-06 -1.335e-06 -3.8124e-07)
(-6.0967e-06 -1.2834e-06 3.1925e-10)
(-8.1104e-06 2.6314e-06 1.3899e-05)
(-7.9827e-06 5.34e-06 1.2974e-05)
(-7.9623e-06 8.0461e-06 1.1878e-05)
(-7.9868e-06 1.0329e-05 1.0329e-05)
(-7.9623e-06 1.1879e-05 8.0462e-06)
(-7.9828e-06 1.2974e-05 5.3401e-06)
(-8.1105e-06 1.3899e-05 2.6314e-06)
(-8.2001e-06 1.4308e-05 2.8383e-10)
(-9.5443e-06 6.3673e-06 3.2529e-05)
(-9.4163e-06 1.2584e-05 3.0411e-05)
(-9.3648e-06 1.8407e-05 2.7397e-05)
(-9.3638e-06 2.3436e-05 2.3436e-05)
(-9.3648e-06 2.7397e-05 1.8406e-05)
(-9.4164e-06 3.0411e-05 1.2584e-05)
(-9.5444e-06 3.2529e-05 6.367e-06)
(-9.6271e-06 3.3348e-05 2.6458e-10)
(-1.0592e-05 1.0144e-05 5.1173e-05)
(-1.0471e-05 1.9871e-05 4.7903e-05)
(-1.0456e-05 2.8776e-05 4.2959e-05)
(-1.0481e-05 3.6549e-05 3.6549e-05)
(-1.0456e-05 4.2959e-05 2.8776e-05)
(-1.0471e-05 4.7903e-05 1.9871e-05)
(-1.0592e-05 5.1173e-05 1.0144e-05)
(-1.0677e-05 5.2362e-05 2.3298e-10)
(-1.1782e-05 1.3378e-05 6.7259e-05)
(-1.1687e-05 2.6162e-05 6.3013e-05)
(-1.172e-05 3.7765e-05 5.6429e-05)
(-1.1774e-05 4.794e-05 4.794e-05)
(-1.172e-05 5.6429e-05 3.7764e-05)
(-1.1687e-05 6.3013e-05 2.6161e-05)
(-1.1782e-05 6.7258e-05 1.3378e-05)
(-1.1861e-05 6.88e-05 1.9824e-10)
(-1.3688e-05 1.5842e-05 7.9613e-05)
(-1.3672e-05 3.0944e-05 7.466e-05)
(-1.3683e-05 4.4702e-05 6.6891e-05)
(-1.3696e-05 5.6776e-05 5.6775e-05)
(-1.3683e-05 6.6891e-05 4.4701e-05)
(-1.3672e-05 7.4659e-05 3.0943e-05)
(-1.3688e-05 7.9611e-05 1.5841e-05)
(-1.3701e-05 8.1332e-05 3.2166e-10)
(-1.6752e-05 1.7694e-05 8.8925e-05)
(-1.6782e-05 3.4572e-05 8.3473e-05)
(-1.6774e-05 4.9983e-05 7.4837e-05)
(-1.6734e-05 6.3521e-05 6.3521e-05)
(-1.6774e-05 7.4837e-05 4.9982e-05)
(-1.6782e-05 8.3472e-05 3.4571e-05)
(-1.6752e-05 8.8922e-05 1.7693e-05)
(-1.6704e-05 9.0798e-05 9.8272e-12)
(-2.0961e-05 1.9251e-05 9.672e-05)
(-2.0962e-05 3.7645e-05 9.0821e-05)
(-2.0972e-05 5.4457e-05 8.1477e-05)
(-2.0981e-05 6.9193e-05 6.9193e-05)
(-2.0972e-05 8.1476e-05 5.4456e-05)
(-2.0962e-05 9.082e-05 3.7644e-05)
(-2.0961e-05 9.6717e-05 1.925e-05)
(-2.0965e-05 9.8736e-05 -6.4283e-11)
(-2.5599e-05 2.0713e-05 0.00010412)
(-2.5561e-05 4.0545e-05 9.7744e-05)
(-2.56e-05 5.8697e-05 8.775e-05)
(-2.5652e-05 7.4554e-05 7.4554e-05)
(-2.56e-05 8.7749e-05 5.8695e-05)
(-2.5561e-05 9.7742e-05 4.0543e-05)
(-2.56e-05 0.00010412 2.0712e-05)
(-2.5655e-05 0.00010628 -2.1323e-10)
(-1.0553e-07 -7.4987e-06 1.4183e-06)
(4.9398e-09 -3.4437e-08 -3.3322e-09)
(-1.6074e-07 -6.8843e-06 2.8239e-06)
(1.0128e-13 -3.9741e-12 1.5768e-12)
(-1.4505e-07 -6.1963e-06 4.184e-06)
(2.8767e-09 -1.5011e-08 2.5566e-08)
(-1.1548e-07 -5.3414e-06 5.3416e-06)
(6.7127e-14 -5.5113e-13 5.5131e-13)
(-1.4501e-07 -4.1837e-06 6.1965e-06)
(2.8765e-09 -2.5562e-08 1.501e-08)
(-1.6067e-07 -2.8236e-06 6.8844e-06)
(1.013e-13 -1.5768e-12 3.9741e-12)
(-1.0543e-07 -1.4181e-06 7.4988e-06)
(4.9417e-09 3.3306e-09 3.4435e-08)
(-5.8126e-08 -1.5462e-11 7.7718e-06)
(9.9247e-14 -8.6766e-18 3.0043e-12)
(-1.217e-06 -1.2003e-05 2.2938e-06)
(-1.3004e-06 -1.1006e-05 4.5214e-06)
(-1.2723e-06 -9.8628e-06 6.6385e-06)
(-1.2101e-06 -8.5094e-06 8.5098e-06)
(-1.2722e-06 -6.6381e-06 9.8631e-06)
(-1.3003e-06 -4.5209e-06 1.1006e-05)
(-1.2169e-06 -2.2934e-06 1.2004e-05)
(-1.1249e-06 -8.0171e-13 1.2512e-05)
(-3.4277e-06 -1.0302e-05 2.0518e-06)
(-3.4341e-06 -9.5228e-06 3.9374e-06)
(-3.438e-06 -8.3666e-06 5.5633e-06)
(-3.4388e-06 -7.0285e-06 7.029e-06)
(-3.4379e-06 -5.5627e-06 8.3669e-06)
(-3.4339e-06 -3.9368e-06 9.5229e-06)
(-3.4276e-06 -2.0513e-06 1.0302e-05)
(-3.4221e-06 3.8541e-11 1.0605e-05)
(-6.0054e-06 -1.3346e-06 3.8181e-07)
(-5.9109e-06 -1.2977e-06 5.7983e-07)
(-5.9343e-06 -8.322e-07 4.5611e-07)
(-5.9952e-06 -4.3861e-07 4.3923e-07)
(-5.9342e-06 -4.5538e-07 8.3253e-07)
(-5.9108e-06 -5.7916e-07 1.2977e-06)
(-6.0053e-06 -3.813e-07 1.3346e-06)
(-6.0967e-06 8.1029e-11 1.2836e-06)
(-8.1107e-06 1.39e-05 -2.6309e-06)
(-7.983e-06 1.2975e-05 -5.3398e-06)
(-7.9625e-06 1.188e-05 -8.0462e-06)
(-7.987e-06 1.033e-05 -1.0329e-05)
(-7.9624e-06 8.0468e-06 -1.1879e-05)
(-7.9828e-06 5.3405e-06 -1.2975e-05)
(-8.1105e-06 2.6314e-06 -1.39e-05)
(-8.2001e-06 1.4657e-10 -1.4308e-05)
(-9.5445e-06 3.253e-05 -6.3666e-06)
(-9.4165e-06 3.0412e-05 -1.2584e-05)
(-9.3649e-06 2.7398e-05 -1.8406e-05)
(-9.3639e-06 2.3437e-05 -2.3436e-05)
(-9.3649e-06 1.8407e-05 -2.7397e-05)
(-9.4164e-06 1.2584e-05 -3.0411e-05)
(-9.5444e-06 6.3671e-06 -3.2529e-05)
(-9.627e-06 2.0537e-10 -3.3348e-05)
(-1.0592e-05 5.1173e-05 -1.0143e-05)
(-1.0471e-05 4.7904e-05 -1.9871e-05)
(-1.0456e-05 4.296e-05 -2.8776e-05)
(-1.0481e-05 3.6549e-05 -3.6549e-05)
(-1.0456e-05 2.8776e-05 -4.2959e-05)
(-1.0471e-05 1.9871e-05 -4.7903e-05)
(-1.0592e-05 1.0144e-05 -5.1172e-05)
(-1.0677e-05 2.2761e-10 -5.2361e-05)
(-1.1782e-05 6.7259e-05 -1.3378e-05)
(-1.1687e-05 6.3013e-05 -2.6161e-05)
(-1.172e-05 5.6429e-05 -3.7764e-05)
(-1.1775e-05 4.7939e-05 -4.7939e-05)
(-1.172e-05 3.7764e-05 -5.6428e-05)
(-1.1687e-05 2.6161e-05 -6.3012e-05)
(-1.1782e-05 1.3378e-05 -6.7258e-05)
(-1.1861e-05 2.0977e-10 -6.8799e-05)
(-1.3689e-05 7.9611e-05 -1.5841e-05)
(-1.3672e-05 7.4659e-05 -3.0943e-05)
(-1.3683e-05 6.6891e-05 -4.4701e-05)
(-1.3696e-05 5.6775e-05 -5.6775e-05)
(-1.3683e-05 4.4701e-05 -6.689e-05)
(-1.3672e-05 3.0943e-05 -7.4658e-05)
(-1.3689e-05 1.5841e-05 -7.9611e-05)
(-1.3702e-05 3.256e-11 -8.1332e-05)
(-1.6752e-05 8.8922e-05 -1.7693e-05)
(-1.6782e-05 8.3472e-05 -3.4571e-05)
(-1.6775e-05 7.4837e-05 -4.9982e-05)
(-1.6735e-05 6.352e-05 -6.352e-05)
(-1.6775e-05 4.9982e-05 -7.4836e-05)
(-1.6782e-05 3.4571e-05 -8.3471e-05)
(-1.6753e-05 1.7693e-05 -8.8923e-05)
(-1.6705e-05 2.6944e-10 -9.0799e-05)
(-2.0962e-05 9.6717e-05 -1.925e-05)
(-2.0963e-05 9.082e-05 -3.7644e-05)
(-2.0973e-05 8.1476e-05 -5.4456e-05)
(-2.0982e-05 6.9193e-05 -6.9193e-05)
(-2.0973e-05 5.4456e-05 -8.1476e-05)
(-2.0963e-05 3.7644e-05 -9.082e-05)
(-2.0962e-05 1.925e-05 -9.6718e-05)
(-2.0965e-05 3.2252e-10 -9.8737e-05)
(-2.56e-05 0.00010412 -2.0713e-05)
(-2.5561e-05 9.7742e-05 -4.0544e-05)
(-2.56e-05 8.7749e-05 -5.8696e-05)
(-2.5653e-05 7.4554e-05 -7.4554e-05)
(-2.56e-05 5.8696e-05 -8.7749e-05)
(-2.5561e-05 4.0544e-05 -9.7742e-05)
(-2.56e-05 2.0713e-05 -0.00010412)
(-2.5655e-05 3.5657e-10 -0.00010628)
(-1.054e-07 1.418e-06 7.4989e-06)
(4.9403e-09 -3.3334e-09 3.444e-08)
(-1.6058e-07 2.8237e-06 6.8845e-06)
(1.0136e-13 1.5766e-12 3.9741e-12)
(-1.4487e-07 4.1838e-06 6.1966e-06)
(2.8786e-09 2.5567e-08 1.5014e-08)
(-1.1531e-07 5.3413e-06 5.3416e-06)
(6.7151e-14 5.5122e-13 5.5121e-13)
(-1.449e-07 6.1961e-06 4.1839e-06)
(2.8796e-09 1.5015e-08 2.5562e-08)
(-1.6063e-07 6.8838e-06 2.8237e-06)
(1.0133e-13 3.974e-12 1.5769e-12)
(-1.0546e-07 7.498e-06 1.4181e-06)
(4.9381e-09 3.4429e-08 -3.3345e-09)
(-1.2168e-06 2.2935e-06 1.2004e-05)
(-1.3002e-06 4.5211e-06 1.1007e-05)
(-1.272e-06 6.6382e-06 9.8633e-06)
(-1.2098e-06 8.5094e-06 8.5098e-06)
(-1.272e-06 9.8624e-06 6.6383e-06)
(-1.3002e-06 1.1005e-05 4.5211e-06)
(-1.2169e-06 1.2002e-05 2.2935e-06)
(-3.4275e-06 2.0515e-06 1.0302e-05)
(-3.4339e-06 3.9372e-06 9.5235e-06)
(-3.4378e-06 5.563e-06 8.3672e-06)
(-3.4387e-06 7.0285e-06 7.0289e-06)
(-3.4378e-06 8.3661e-06 5.5629e-06)
(-3.4338e-06 9.5217e-06 3.9368e-06)
(-3.4275e-06 1.03e-05 2.0514e-06)
(-6.0053e-06 3.8162e-07 1.3351e-06)
(-5.9108e-06 5.7969e-07 1.2983e-06)
(-5.9343e-06 4.5582e-07 8.3274e-07)
(-5.9952e-06 4.3869e-07 4.3889e-07)
(-5.9342e-06 8.3172e-07 4.5537e-07)
(-5.9107e-06 1.2966e-06 5.7902e-07)
(-6.005e-06 1.333e-06 3.8128e-07)
(-8.1106e-06 -2.631e-06 -1.39e-05)
(-7.983e-06 -5.3399e-06 -1.2975e-05)
(-7.9626e-06 -8.0465e-06 -1.1879e-05)
(-7.9871e-06 -1.033e-05 -1.033e-05)
(-7.9625e-06 -1.188e-05 -8.0471e-06)
(-7.9827e-06 -1.2976e-05 -5.3407e-06)
(-8.1102e-06 -1.3901e-05 -2.6315e-06)
(-9.5445e-06 -6.3666e-06 -3.2529e-05)
(-9.4166e-06 -1.2584e-05 -3.0411e-05)
(-9.3651e-06 -1.8407e-05 -2.7398e-05)
(-9.3641e-06 -2.3437e-05 -2.3437e-05)
(-9.365e-06 -2.7398e-05 -1.8408e-05)
(-9.4163e-06 -3.0412e-05 -1.2585e-05)
(-9.544e-06 -3.2531e-05 -6.3672e-06)
(-1.0593e-05 -1.0143e-05 -5.1172e-05)
(-1.0471e-05 -1.9871e-05 -4.7903e-05)
(-1.0456e-05 -2.8776e-05 -4.296e-05)
(-1.0482e-05 -3.655e-05 -3.655e-05)
(-1.0456e-05 -4.296e-05 -2.8777e-05)
(-1.0471e-05 -4.7904e-05 -1.9872e-05)
(-1.0592e-05 -5.1173e-05 -1.0144e-05)
(-1.1782e-05 -1.3377e-05 -6.7258e-05)
(-1.1687e-05 -2.6161e-05 -6.3013e-05)
(-1.172e-05 -3.7764e-05 -5.6429e-05)
(-1.1775e-05 -4.794e-05 -4.7941e-05)
(-1.172e-05 -5.6429e-05 -3.7766e-05)
(-1.1687e-05 -6.3013e-05 -2.6162e-05)
(-1.1782e-05 -6.7259e-05 -1.3378e-05)
(-1.3689e-05 -1.5841e-05 -7.9611e-05)
(-1.3672e-05 -3.0943e-05 -7.4659e-05)
(-1.3683e-05 -4.4701e-05 -6.6892e-05)
(-1.3696e-05 -5.6776e-05 -5.6777e-05)
(-1.3683e-05 -6.6891e-05 -4.4702e-05)
(-1.3672e-05 -7.466e-05 -3.0944e-05)
(-1.3689e-05 -7.9611e-05 -1.5842e-05)
(-1.6753e-05 -1.7693e-05 -8.8923e-05)
(-1.6782e-05 -3.4571e-05 -8.3473e-05)
(-1.6775e-05 -4.9982e-05 -7.4838e-05)
(-1.6734e-05 -6.3521e-05 -6.3522e-05)
(-1.6775e-05 -7.4838e-05 -4.9983e-05)
(-1.6782e-05 -8.3473e-05 -3.4572e-05)
(-1.6753e-05 -8.8923e-05 -1.7694e-05)
(-2.0962e-05 -1.925e-05 -9.6718e-05)
(-2.0963e-05 -3.7644e-05 -9.0821e-05)
(-2.0973e-05 -5.4456e-05 -8.1477e-05)
(-2.0981e-05 -6.9193e-05 -6.9194e-05)
(-2.0973e-05 -8.1477e-05 -5.4457e-05)
(-2.0962e-05 -9.082e-05 -3.7645e-05)
(-2.0961e-05 -9.6718e-05 -1.925e-05)
(-2.56e-05 -2.0712e-05 -0.00010412)
(-2.5561e-05 -4.0543e-05 -9.7743e-05)
(-2.56e-05 -5.8696e-05 -8.775e-05)
(-2.5653e-05 -7.4554e-05 -7.4555e-05)
(-2.56e-05 -8.775e-05 -5.8697e-05)
(-2.5561e-05 -9.7742e-05 -4.0544e-05)
(-2.56e-05 -0.00010412 -2.0713e-05)
)
;
    }
    procBoundary0to1
    {
        type            processor;
    }
}


// ************************************************************************* //
