/*--------------------------------*- C++ -*----------------------------------*\
| =========                 |                                                 |
| \\      /  F ield         | OpenFOAM: The Open Source CFD Toolbox           |
|  \\    /   O peration     | Version:  4.1                                   |
|   \\  /    A nd           | Web:      www.OpenFOAM.org                      |
|    \\/     M anipulation  |                                                 |
\*---------------------------------------------------------------------------*/
FoamFile
{
    version     2.0;
    format      ascii;
    class       pointVectorField;
    location    "0.0090";
    object      pointDisplacement_Next;
}
// * * * * * * * * * * * * * * * * * * * * * * * * * * * * * * * * * * * * * //

dimensions      [0 1 0 0 0 0 0];

internalField   uniform (0 0 0);

boundaryField
{
    inlet
    {
        type            fixedValue;
        value           nonuniform 0();
    }
    outlet
    {
        type            fixedValue;
        value           nonuniform 0();
    }
    mantle
    {
        type            fixedValue;
        value           nonuniform List<vector> 
416
(
(5.452e-05 -1.646e-06 -3.665e-10)
(5.8143e-05 -1.1073e-06 -2.9402e-10)
(5.8126e-05 -1.0566e-06 2.2589e-07)
(5.4512e-05 -1.6087e-06 3.5804e-07)
(5.8106e-05 -9.2449e-07 3.9273e-07)
(5.4506e-05 -1.4626e-06 6.3235e-07)
(5.81e-05 -7.4507e-07 4.8914e-07)
(5.4507e-05 -1.1888e-06 7.7819e-07)
(5.8106e-05 -5.887e-07 5.886e-07)
(5.4512e-05 -9.2622e-07 9.2593e-07)
(5.81e-05 -4.895e-07 7.4518e-07)
(5.4507e-05 -7.7875e-07 1.1889e-06)
(5.8106e-05 -3.9315e-07 9.2479e-07)
(5.4506e-05 -6.33e-07 1.463e-06)
(5.8126e-05 -2.2623e-07 1.0569e-06)
(5.4512e-05 -3.5862e-07 1.6092e-06)
(5.8143e-05 2.1028e-11 1.1073e-06)
(5.4519e-05 -1.0393e-10 1.6462e-06)
(6.1803e-05 7.5026e-07 -1.0821e-10)
(6.1783e-05 7.8269e-07 -1.6496e-07)
(6.1748e-05 8.0531e-07 -3.4328e-07)
(6.1741e-05 7.6332e-07 -5.1567e-07)
(6.1741e-05 6.5504e-07 -6.5507e-07)
(6.1741e-05 5.1552e-07 -7.6319e-07)
(6.1748e-05 3.4311e-07 -8.0508e-07)
(6.1783e-05 1.6485e-07 -7.8255e-07)
(6.1803e-05 3.6091e-11 -7.5041e-07)
(6.5437e-05 4.0073e-06 1.3323e-10)
(6.5402e-05 3.9472e-06 -7.9666e-07)
(6.5357e-05 3.7393e-06 -1.5633e-06)
(6.5353e-05 3.3756e-06 -2.2645e-06)
(6.5367e-05 2.8723e-06 -2.872e-06)
(6.5353e-05 2.2646e-06 -3.3754e-06)
(6.5357e-05 1.5634e-06 -3.7391e-06)
(6.5402e-05 7.9677e-07 -3.9471e-06)
(6.5437e-05 -1.9501e-11 -4.0075e-06)
(6.8902e-05 8.3096e-06 1.8517e-10)
(6.8862e-05 8.1283e-06 -1.6117e-06)
(6.8812e-05 7.6092e-06 -3.1569e-06)
(6.8809e-05 6.8321e-06 -4.5773e-06)
(6.8828e-05 5.8128e-06 -5.8125e-06)
(6.8809e-05 4.5775e-06 -6.8318e-06)
(6.8812e-05 3.1572e-06 -7.6089e-06)
(6.8861e-05 1.612e-06 -8.1281e-06)
(6.8902e-05 1.0111e-10 -8.3097e-06)
(7.2077e-05 1.3005e-05 6.0525e-10)
(7.2037e-05 1.2689e-05 -2.4973e-06)
(7.1986e-05 1.184e-05 -4.893e-06)
(7.1978e-05 1.0599e-05 -7.0941e-06)
(7.1994e-05 9.0163e-06 -9.0155e-06)
(7.1978e-05 7.0945e-06 -1.0598e-05)
(7.1986e-05 4.8935e-06 -1.1839e-05)
(7.2036e-05 2.4978e-06 -1.2689e-05)
(7.2076e-05 -1.7468e-10 -1.3005e-05)
(7.4967e-05 1.7193e-05 4.7073e-10)
(7.4937e-05 1.6755e-05 -3.3065e-06)
(7.4888e-05 1.5617e-05 -6.4591e-06)
(7.4884e-05 1.3945e-05 -9.3308e-06)
(7.4884e-05 1.1858e-05 -1.1858e-05)
(7.4884e-05 9.3315e-06 -1.3945e-05)
(7.4888e-05 6.4598e-06 -1.5617e-05)
(7.4937e-05 3.3072e-06 -1.6755e-05)
(7.4967e-05 1.1382e-10 -1.7193e-05)
(7.7626e-05 1.998e-05 7.5394e-10)
(7.7601e-05 1.9514e-05 -3.8906e-06)
(7.757e-05 1.8205e-05 -7.5578e-06)
(7.7564e-05 1.6219e-05 -1.0843e-05)
(7.7573e-05 1.3731e-05 -1.373e-05)
(7.7564e-05 1.0844e-05 -1.6218e-05)
(7.7569e-05 7.5587e-06 -1.8205e-05)
(7.7601e-05 3.8915e-06 -1.9514e-05)
(7.7625e-05 1.0757e-11 -1.9979e-05)
(8.0115e-05 2.1074e-05 7.6893e-10)
(8.0104e-05 2.0609e-05 -4.139e-06)
(8.0094e-05 1.9248e-05 -8.0164e-06)
(8.0094e-05 1.7107e-05 -1.143e-05)
(8.0102e-05 1.4438e-05 -1.4437e-05)
(8.0094e-05 1.1431e-05 -1.7106e-05)
(8.0094e-05 8.0174e-06 -1.9248e-05)
(8.0104e-05 4.1401e-06 -2.0608e-05)
(8.0115e-05 1.7342e-10 -2.1073e-05)
(8.2474e-05 2.0384e-05 9.4325e-10)
(8.2464e-05 1.9914e-05 -3.9772e-06)
(8.2462e-05 1.8576e-05 -7.7103e-06)
(8.2474e-05 1.6518e-05 -1.1033e-05)
(8.2488e-05 1.3962e-05 -1.3961e-05)
(8.2474e-05 1.1034e-05 -1.6517e-05)
(8.2462e-05 7.7115e-06 -1.8575e-05)
(8.2464e-05 3.9783e-06 -1.9914e-05)
(8.2473e-05 1.6693e-10 -2.0384e-05)
(8.4665e-05 1.7932e-05 1.0198e-09)
(8.4667e-05 1.7496e-05 -3.4782e-06)
(8.4667e-05 1.6302e-05 -6.7407e-06)
(8.4689e-05 1.4494e-05 -9.674e-06)
(8.4695e-05 1.2266e-05 -1.2265e-05)
(8.4689e-05 9.6753e-06 -1.4493e-05)
(8.4667e-05 6.7421e-06 -1.6301e-05)
(8.4666e-05 3.4795e-06 -1.7496e-05)
(8.4665e-05 1.9819e-10 -1.7932e-05)
(8.66e-05 1.3833e-05 7.5828e-10)
(8.6604e-05 1.3515e-05 -2.7022e-06)
(8.6619e-05 1.2593e-05 -5.2216e-06)
(8.6626e-05 1.1173e-05 -7.4504e-06)
(8.6632e-05 9.4225e-06 -9.4217e-06)
(8.6626e-05 7.4518e-06 -1.1172e-05)
(8.6619e-05 5.223e-06 -1.2592e-05)
(8.6604e-05 2.7035e-06 -1.3515e-05)
(8.66e-05 4.9103e-10 -1.3833e-05)
(8.8108e-05 8.5152e-06 1.1149e-09)
(8.8125e-05 8.3418e-06 -1.6976e-06)
(8.8154e-05 7.7686e-06 -3.245e-06)
(8.8149e-05 6.8388e-06 -4.5538e-06)
(8.8143e-05 5.7165e-06 -5.7152e-06)
(8.8149e-05 4.5551e-06 -6.8376e-06)
(8.8154e-05 3.2464e-06 -7.7675e-06)
(8.8125e-05 1.6989e-06 -8.3411e-06)
(8.8108e-05 9.1828e-11 -8.5146e-06)
(5.8126e-05 2.2617e-07 1.057e-06)
(5.4512e-05 3.5839e-07 1.6091e-06)
(5.8106e-05 3.9309e-07 9.2494e-07)
(5.4506e-05 6.3273e-07 1.4629e-06)
(5.8099e-05 4.8947e-07 7.4543e-07)
(5.4506e-05 7.7845e-07 1.1888e-06)
(5.8105e-05 5.8872e-07 5.8895e-07)
(5.4512e-05 9.2592e-07 9.2597e-07)
(5.8099e-05 7.4511e-07 4.8954e-07)
(5.4506e-05 1.1885e-06 7.7831e-07)
(5.8106e-05 9.2448e-07 3.9313e-07)
(5.4506e-05 1.4623e-06 6.3254e-07)
(5.8126e-05 1.0564e-06 2.2624e-07)
(5.4512e-05 1.6083e-06 3.5825e-07)
(5.8143e-05 1.1068e-06 3.9273e-11)
(5.452e-05 1.6454e-06 -1.3039e-10)
(6.1783e-05 -1.6477e-07 -7.8239e-07)
(6.1748e-05 -3.4301e-07 -8.0476e-07)
(6.174e-05 -5.1534e-07 -7.6272e-07)
(6.174e-05 -6.5477e-07 -6.5449e-07)
(6.174e-05 -7.6301e-07 -5.1506e-07)
(6.1748e-05 -8.0506e-07 -3.4272e-07)
(6.1783e-05 -7.8266e-07 -1.6449e-07)
(6.1803e-05 -7.506e-07 2.9607e-10)
(6.5402e-05 -7.966e-07 -3.9469e-06)
(6.5357e-05 -1.5632e-06 -3.7387e-06)
(6.5353e-05 -2.2643e-06 -3.3748e-06)
(6.5367e-05 -2.8717e-06 -2.8715e-06)
(6.5353e-05 -3.375e-06 -2.2638e-06)
(6.5357e-05 -3.7388e-06 -1.5626e-06)
(6.5402e-05 -3.9469e-06 -7.961e-07)
(6.5437e-05 -4.0074e-06 5.9034e-10)
(6.8861e-05 -1.6117e-06 -8.1278e-06)
(6.8812e-05 -3.1569e-06 -7.6084e-06)
(6.8809e-05 -4.5771e-06 -6.8311e-06)
(6.8828e-05 -5.8122e-06 -5.8117e-06)
(6.8809e-05 -6.8314e-06 -4.5764e-06)
(6.8812e-05 -7.6084e-06 -3.1561e-06)
(6.8861e-05 -8.1276e-06 -1.611e-06)
(6.8902e-05 -8.3093e-06 6.7663e-10)
(7.2036e-05 -2.4975e-06 -1.2689e-05)
(7.1986e-05 -4.8931e-06 -1.1839e-05)
(7.1978e-05 -7.0939e-06 -1.0598e-05)
(7.1993e-05 -9.0155e-06 -9.0145e-06)
(7.1978e-05 -1.0598e-05 -7.0931e-06)
(7.1986e-05 -1.1839e-05 -4.8922e-06)
(7.2036e-05 -1.2689e-05 -2.4966e-06)
(7.2076e-05 -1.3005e-05 1.1296e-09)
(7.4937e-05 -3.3069e-06 -1.6754e-05)
(7.4887e-05 -6.4593e-06 -1.5616e-05)
(7.4884e-05 -9.3307e-06 -1.3944e-05)
(7.4884e-05 -1.1857e-05 -1.1857e-05)
(7.4884e-05 -1.3944e-05 -9.3298e-06)
(7.4888e-05 -1.5616e-05 -6.4582e-06)
(7.4937e-05 -1.6754e-05 -3.3058e-06)
(7.4967e-05 -1.7193e-05 1.0083e-09)
(7.7601e-05 -3.8911e-06 -1.9513e-05)
(7.7569e-05 -7.5581e-06 -1.8204e-05)
(7.7564e-05 -1.0843e-05 -1.6217e-05)
(7.7573e-05 -1.373e-05 -1.3729e-05)
(7.7564e-05 -1.6218e-05 -1.0842e-05)
(7.7569e-05 -1.8204e-05 -7.5569e-06)
(7.7601e-05 -1.9513e-05 -3.89e-06)
(7.7626e-05 -1.9979e-05 1.2763e-09)
(8.0104e-05 -4.1396e-06 -2.0608e-05)
(8.0094e-05 -8.0168e-06 -1.9247e-05)
(8.0094e-05 -1.143e-05 -1.7105e-05)
(8.0101e-05 -1.4437e-05 -1.4436e-05)
(8.0094e-05 -1.7106e-05 -1.1429e-05)
(8.0093e-05 -1.9247e-05 -8.0155e-06)
(8.0104e-05 -2.0608e-05 -4.1384e-06)
(8.0115e-05 -2.1074e-05 1.257e-09)
(8.2464e-05 -3.9779e-06 -1.9913e-05)
(8.2462e-05 -7.7109e-06 -1.8574e-05)
(8.2474e-05 -1.1033e-05 -1.6516e-05)
(8.2488e-05 -1.3961e-05 -1.3959e-05)
(8.2474e-05 -1.6517e-05 -1.1032e-05)
(8.2462e-05 -1.8575e-05 -7.7095e-06)
(8.2464e-05 -1.9914e-05 -3.9766e-06)
(8.2473e-05 -2.0384e-05 1.3756e-09)
(8.4666e-05 -3.4791e-06 -1.7495e-05)
(8.4667e-05 -6.7415e-06 -1.63e-05)
(8.4689e-05 -9.6746e-06 -1.4492e-05)
(8.4695e-05 -1.2265e-05 -1.2264e-05)
(8.4689e-05 -1.4493e-05 -9.6732e-06)
(8.4667e-05 -1.6301e-05 -6.74e-06)
(8.4666e-05 -1.7496e-05 -3.4777e-06)
(8.4665e-05 -1.7932e-05 1.4007e-09)
(8.6604e-05 -2.7032e-06 -1.3514e-05)
(8.6619e-05 -5.2225e-06 -1.2592e-05)
(8.6626e-05 -7.4512e-06 -1.1171e-05)
(8.6632e-05 -9.4218e-06 -9.4208e-06)
(8.6626e-05 -1.1172e-05 -7.4497e-06)
(8.6618e-05 -1.2593e-05 -5.221e-06)
(8.6603e-05 -1.3515e-05 -2.7017e-06)
(8.6599e-05 -1.3833e-05 1.761e-09)
(8.8125e-05 -1.6987e-06 -8.3409e-06)
(8.8154e-05 -3.2461e-06 -7.7671e-06)
(8.8149e-05 -4.5547e-06 -6.8371e-06)
(8.8143e-05 -5.716e-06 -5.7146e-06)
(8.8149e-05 -6.8383e-06 -4.5532e-06)
(8.8154e-05 -7.7681e-06 -3.2446e-06)
(8.8124e-05 -8.3416e-06 -1.6973e-06)
(8.8108e-05 -8.5153e-06 1.4298e-09)
(5.8126e-05 1.0565e-06 -2.2608e-07)
(5.4513e-05 1.6085e-06 -3.5855e-07)
(5.8106e-05 9.2454e-07 -3.9299e-07)
(5.4507e-05 1.4625e-06 -6.3288e-07)
(5.81e-05 7.4501e-07 -4.8936e-07)
(5.4507e-05 1.1885e-06 -7.7864e-07)
(5.8106e-05 5.8839e-07 -5.8862e-07)
(5.4513e-05 9.257e-07 -9.2614e-07)
(5.8101e-05 4.8896e-07 -7.4484e-07)
(5.4508e-05 7.7802e-07 -1.1887e-06)
(5.8107e-05 3.9252e-07 -9.2409e-07)
(5.4507e-05 6.3223e-07 -1.4625e-06)
(5.8127e-05 2.257e-07 -1.056e-06)
(5.4513e-05 3.58e-07 -1.6085e-06)
(5.8144e-05 -4.135e-10 -1.1065e-06)
(5.4521e-05 -3.2421e-10 -1.6457e-06)
(6.1783e-05 -7.8263e-07 1.6507e-07)
(6.1748e-05 -8.0506e-07 3.4328e-07)
(6.1741e-05 -7.6315e-07 5.1565e-07)
(6.1741e-05 -6.551e-07 6.5519e-07)
(6.1741e-05 -5.1584e-07 7.6361e-07)
(6.1749e-05 -3.4357e-07 8.0584e-07)
(6.1784e-05 -1.6528e-07 7.8353e-07)
(6.1804e-05 -3.8927e-10 7.5132e-07)
(6.5402e-05 -3.9469e-06 7.9707e-07)
(6.5357e-05 -3.7388e-06 1.5636e-06)
(6.5354e-05 -3.3751e-06 2.2647e-06)
(6.5368e-05 -2.872e-06 2.8724e-06)
(6.5354e-05 -2.2647e-06 3.3758e-06)
(6.5358e-05 -1.5637e-06 3.7398e-06)
(6.5403e-05 -7.9713e-07 3.9481e-06)
(6.5438e-05 -3.0721e-10 4.0085e-06)
(6.8862e-05 -8.1277e-06 1.6124e-06)
(6.8812e-05 -7.6085e-06 3.1574e-06)
(6.8809e-05 -6.8315e-06 4.5776e-06)
(6.8828e-05 -5.8124e-06 5.8129e-06)
(6.8809e-05 -4.5775e-06 6.8323e-06)
(6.8813e-05 -3.1574e-06 7.6096e-06)
(6.8862e-05 -1.6123e-06 8.1291e-06)
(6.8902e-05 -4.0612e-10 8.3106e-06)
(7.2037e-05 -1.2689e-05 2.4983e-06)
(7.1986e-05 -1.1839e-05 4.8938e-06)
(7.1979e-05 -1.0598e-05 7.0947e-06)
(7.1994e-05 -9.0154e-06 9.0164e-06)
(7.1979e-05 -7.0943e-06 1.0599e-05)
(7.1986e-05 -4.8936e-06 1.184e-05)
(7.2037e-05 -2.498e-06 1.269e-05)
(7.2077e-05 -6.7532e-10 1.3006e-05)
(7.4937e-05 -1.6755e-05 3.3078e-06)
(7.4888e-05 -1.5617e-05 6.4602e-06)
(7.4884e-05 -1.3945e-05 9.3317e-06)
(7.4885e-05 -1.1858e-05 1.1859e-05)
(7.4884e-05 -9.3311e-06 1.3946e-05)
(7.4888e-05 -6.4597e-06 1.5618e-05)
(7.4937e-05 -3.3073e-06 1.6756e-05)
(7.4967e-05 -3.729e-10 1.7194e-05)
(7.7601e-05 -1.9514e-05 3.8923e-06)
(7.7569e-05 -1.8205e-05 7.5592e-06)
(7.7564e-05 -1.6218e-05 1.0844e-05)
(7.7573e-05 -1.373e-05 1.3731e-05)
(7.7564e-05 -1.0843e-05 1.6219e-05)
(7.7569e-05 -7.5585e-06 1.8206e-05)
(7.7601e-05 -3.8915e-06 1.9515e-05)
(7.7626e-05 -2.1214e-10 1.9981e-05)
(8.0104e-05 -2.0608e-05 4.1409e-06)
(8.0094e-05 -1.9248e-05 8.0181e-06)
(8.0094e-05 -1.7106e-05 1.1431e-05)
(8.0101e-05 -1.4437e-05 1.4438e-05)
(8.0094e-05 -1.143e-05 1.7107e-05)
(8.0094e-05 -8.0171e-06 1.9249e-05)
(8.0104e-05 -4.14e-06 2.0609e-05)
(8.0115e-05 -3.055e-10 2.1075e-05)
(8.2464e-05 -1.9914e-05 3.9793e-06)
(8.2462e-05 -1.8575e-05 7.7122e-06)
(8.2474e-05 -1.6517e-05 1.1034e-05)
(8.2488e-05 -1.3961e-05 1.3962e-05)
(8.2474e-05 -1.1033e-05 1.6518e-05)
(8.2462e-05 -7.7111e-06 1.8576e-05)
(8.2464e-05 -3.9782e-06 1.9915e-05)
(8.2473e-05 -2.8957e-10 2.0385e-05)
(8.4666e-05 -1.7496e-05 3.4805e-06)
(8.4667e-05 -1.6301e-05 6.7428e-06)
(8.4689e-05 -1.4493e-05 9.6759e-06)
(8.4695e-05 -1.2266e-05 1.2267e-05)
(8.4689e-05 -9.6747e-06 1.4494e-05)
(8.4667e-05 -6.7416e-06 1.6302e-05)
(8.4666e-05 -3.4793e-06 1.7497e-05)
(8.4665e-05 -2.1949e-10 1.7933e-05)
(8.6603e-05 -1.3515e-05 2.7046e-06)
(8.6618e-05 -1.2593e-05 5.2238e-06)
(8.6626e-05 -1.1172e-05 7.4524e-06)
(8.6631e-05 -9.4217e-06 9.4233e-06)
(8.6626e-05 -7.4511e-06 1.1173e-05)
(8.6618e-05 -5.2225e-06 1.2594e-05)
(8.6603e-05 -2.7033e-06 1.3516e-05)
(8.6599e-05 1.2402e-10 1.3834e-05)
(8.8124e-05 -8.3416e-06 1.7001e-06)
(8.8153e-05 -7.768e-06 3.2473e-06)
(8.8149e-05 -6.8381e-06 4.5558e-06)
(8.8142e-05 -5.7158e-06 5.7169e-06)
(8.8149e-05 -4.5545e-06 6.8392e-06)
(8.8153e-05 -3.246e-06 7.7689e-06)
(8.8124e-05 -1.6988e-06 8.3422e-06)
(8.8108e-05 -2.1866e-10 8.5157e-06)
(5.8127e-05 -2.2653e-07 -1.0566e-06)
(5.4513e-05 -3.5875e-07 -1.609e-06)
(5.8107e-05 -3.9361e-07 -9.2515e-07)
(5.4507e-05 -6.3321e-07 -1.4634e-06)
(5.81e-05 -4.9031e-07 -7.4608e-07)
(5.4507e-05 -7.7924e-07 -1.1898e-06)
(5.8106e-05 -5.8995e-07 -5.8971e-07)
(5.4513e-05 -9.2704e-07 -9.2711e-07)
(5.81e-05 -7.4643e-07 -4.9026e-07)
(5.4507e-05 -1.1898e-06 -7.7938e-07)
(5.8106e-05 -9.2571e-07 -3.936e-07)
(5.4506e-05 -1.4636e-06 -6.3336e-07)
(5.8126e-05 -1.0573e-06 -2.2649e-07)
(5.4512e-05 -1.6093e-06 -3.5886e-07)
(6.1784e-05 1.644e-07 7.8291e-07)
(6.1749e-05 3.4243e-07 8.0475e-07)
(6.1741e-05 5.1444e-07 7.6231e-07)
(6.1741e-05 6.5356e-07 6.5394e-07)
(6.1741e-05 7.6168e-07 5.1465e-07)
(6.1748e-05 8.0388e-07 3.426e-07)
(6.1783e-05 7.8185e-07 1.646e-07)
(6.5403e-05 7.9622e-07 3.9475e-06)
(6.5358e-05 1.5626e-06 3.7388e-06)
(6.5354e-05 2.2634e-06 3.3745e-06)
(6.5368e-05 2.8706e-06 2.871e-06)
(6.5354e-05 3.3737e-06 2.2637e-06)
(6.5358e-05 3.7377e-06 1.5629e-06)
(6.5403e-05 3.9463e-06 7.9658e-07)
(6.8862e-05 1.6114e-06 8.1285e-06)
(6.8813e-05 3.1563e-06 7.6087e-06)
(6.881e-05 4.5762e-06 6.8312e-06)
(6.8829e-05 5.8111e-06 5.8118e-06)
(6.881e-05 6.8302e-06 4.5768e-06)
(6.8813e-05 7.6076e-06 3.1568e-06)
(6.8862e-05 8.1274e-06 1.6119e-06)
(7.2037e-05 2.4971e-06 1.269e-05)
(7.1986e-05 4.8926e-06 1.1839e-05)
(7.1979e-05 7.0932e-06 1.0598e-05)
(7.1994e-05 9.0146e-06 9.0151e-06)
(7.1979e-05 1.0597e-05 7.0939e-06)
(7.1986e-05 1.1838e-05 4.8933e-06)
(7.2037e-05 1.2689e-05 2.4978e-06)
(7.4937e-05 3.3065e-06 1.6755e-05)
(7.4888e-05 6.4588e-06 1.5617e-05)
(7.4884e-05 9.3301e-06 1.3945e-05)
(7.4885e-05 1.1857e-05 1.1858e-05)
(7.4885e-05 1.3944e-05 9.331e-06)
(7.4888e-05 1.5616e-05 6.4597e-06)
(7.4938e-05 1.6755e-05 3.3074e-06)
(7.7601e-05 3.8908e-06 1.9514e-05)
(7.757e-05 7.5577e-06 1.8205e-05)
(7.7565e-05 1.0843e-05 1.6219e-05)
(7.7574e-05 1.3729e-05 1.3731e-05)
(7.7565e-05 1.6218e-05 1.0844e-05)
(7.757e-05 1.8204e-05 7.5588e-06)
(7.7601e-05 1.9514e-05 3.8918e-06)
(8.0104e-05 4.1394e-06 2.0609e-05)
(8.0094e-05 8.0165e-06 1.9248e-05)
(8.0095e-05 1.1429e-05 1.7107e-05)
(8.0102e-05 1.4437e-05 1.4438e-05)
(8.0095e-05 1.7106e-05 1.1431e-05)
(8.0094e-05 1.9247e-05 8.0177e-06)
(8.0105e-05 2.0608e-05 4.1405e-06)
(8.2464e-05 3.9776e-06 1.9914e-05)
(8.2462e-05 7.7105e-06 1.8576e-05)
(8.2474e-05 1.1033e-05 1.6518e-05)
(8.2489e-05 1.396e-05 1.3961e-05)
(8.2474e-05 1.6517e-05 1.1034e-05)
(8.2462e-05 1.8575e-05 7.7119e-06)
(8.2464e-05 1.9914e-05 3.9789e-06)
(8.4666e-05 3.4788e-06 1.7496e-05)
(8.4667e-05 6.741e-06 1.6302e-05)
(8.4689e-05 9.6741e-06 1.4494e-05)
(8.4695e-05 1.2265e-05 1.2266e-05)
(8.4689e-05 1.4493e-05 9.6755e-06)
(8.4667e-05 1.6301e-05 6.7425e-06)
(8.4667e-05 1.7496e-05 3.4802e-06)
(8.6603e-05 2.7028e-06 1.3516e-05)
(8.6618e-05 5.222e-06 1.2593e-05)
(8.6626e-05 7.4505e-06 1.1172e-05)
(8.6632e-05 9.4211e-06 9.4228e-06)
(8.6626e-05 1.1171e-05 7.4519e-06)
(8.6619e-05 1.2592e-05 5.2235e-06)
(8.6604e-05 1.3515e-05 2.7043e-06)
(8.8124e-05 1.6983e-06 8.3419e-06)
(8.8154e-05 3.2454e-06 7.7684e-06)
(8.8149e-05 4.5539e-06 6.8386e-06)
(8.8142e-05 5.7152e-06 5.7164e-06)
(8.8149e-05 6.8376e-06 4.5554e-06)
(8.8154e-05 7.7676e-06 3.2469e-06)
(8.8125e-05 8.3413e-06 1.6998e-06)
)
;
    }
    procBoundary1to0
    {
        type            processor;
    }
    procBoundary1to2
    {
        type            processor;
    }
}


// ************************************************************************* //
