/*--------------------------------*- C++ -*----------------------------------*\
| =========                 |                                                 |
| \\      /  F ield         | foam-extend: Open Source CFD                    |
|  \\    /   O peration     | Version:     4.1-20200408                       |
|   \\  /    A nd           | Web:         http://www.foam-extend.org         |
|    \\/     M anipulation  |                                                 |
\*---------------------------------------------------------------------------*/
FoamFile
{
    version     2.0;
    format      ascii;
    class       volScalarField;
    location    "0.0760000";
    object      ccx;
}
// * * * * * * * * * * * * * * * * * * * * * * * * * * * * * * * * * * * * * //

dimensions      [0 1 0 0 0 0 0];

internalField   nonuniform List<scalar> 
1952
(
0.00284324
0.00284305
0.00284276
0.00284239
0.00284194
0.00284144
0.00284087
0.00284028
0.00283966
0.00283905
0.00283847
0.00283795
0.00283754
0.00283726
0.00283709
0.00284335
0.00266145
0.00266106
0.00266049
0.00265975
0.00265886
0.00265784
0.00265672
0.00265552
0.00265429
0.00265307
0.0026519
0.00265087
0.00265005
0.00264948
0.00264915
0.00266166
0.00261138
0.002611
0.00261042
0.00260968
0.0026088
0.00260778
0.00260665
0.00260546
0.00260422
0.002603
0.00260184
0.00260081
0.00259998
0.00259941
0.00259908
0.00261159
0.00256132
0.00256094
0.00256036
0.00255962
0.00255874
0.00255772
0.00255659
0.00255539
0.00255416
0.00255294
0.00255177
0.00255074
0.00254991
0.00254934
0.00254901
0.00256153
0.00251127
0.00251088
0.00251031
0.00250957
0.00250868
0.00250766
0.00250653
0.00250534
0.0025041
0.00250288
0.00250171
0.00250068
0.00249985
0.00249927
0.00249895
0.00251148
0.00246122
0.00246083
0.00246025
0.00245951
0.00245862
0.0024576
0.00245648
0.00245528
0.00245405
0.00245282
0.00245165
0.00245062
0.00244978
0.00244921
0.00244888
0.00246143
0.00241116
0.00241077
0.0024102
0.00240946
0.00240857
0.00240755
0.00240643
0.00240523
0.00240399
0.00240276
0.0024016
0.00240056
0.00239973
0.00239916
0.00239882
0.00241138
0.00236112
0.00236073
0.00236015
0.00235941
0.00235852
0.0023575
0.00235638
0.00235518
0.00235394
0.00235271
0.00235154
0.00235051
0.00234967
0.0023491
0.00234877
0.00236133
0.00231107
0.00231068
0.00231011
0.00230936
0.00230847
0.00230745
0.00230633
0.00230513
0.00230389
0.00230266
0.00230149
0.00230046
0.00229962
0.00229905
0.00229872
0.00231128
0.00226102
0.00226064
0.00226006
0.00225932
0.00225843
0.00225741
0.00225628
0.00225508
0.00225384
0.00225261
0.00225145
0.00225041
0.00224957
0.002249
0.00224867
0.00226123
0.00221098
0.0022106
0.00221002
0.00220928
0.00220839
0.00220736
0.00220624
0.00220504
0.0022038
0.00220257
0.0022014
0.00220036
0.00219953
0.00219896
0.00219863
0.00221119
0.00216094
0.00216056
0.00215998
0.00215924
0.00215835
0.00215732
0.0021562
0.002155
0.00215376
0.00215253
0.00215136
0.00215032
0.00214949
0.00214891
0.00214858
0.00216116
0.00211091
0.00211052
0.00210995
0.0021092
0.00210831
0.00210729
0.00210616
0.00210496
0.00210372
0.00210249
0.00210132
0.00210028
0.00209945
0.00209888
0.00209854
0.00211112
0.00206088
0.00206049
0.00205992
0.00205917
0.00205828
0.00205725
0.00205613
0.00205493
0.00205369
0.00205246
0.00205129
0.00205025
0.00204941
0.00204884
0.00204851
0.00206109
0.00201085
0.00201046
0.00200989
0.00200914
0.00200825
0.00200722
0.0020061
0.0020049
0.00200366
0.00200243
0.00200126
0.00200022
0.00199938
0.00199881
0.00199848
0.00201106
0.00196082
0.00196043
0.00195986
0.00195911
0.00195822
0.00195719
0.00195607
0.00195487
0.00195363
0.0019524
0.00195123
0.00195019
0.00194935
0.00194878
0.00194845
0.00196103
0.0019108
0.00191041
0.00190983
0.00190909
0.00190819
0.00190717
0.00190604
0.00190484
0.0019036
0.00190237
0.0019012
0.00190016
0.00189932
0.00189875
0.00189842
0.00191101
0.00186077
0.00186039
0.00185981
0.00185907
0.00185817
0.00185715
0.00185602
0.00185482
0.00185358
0.00185234
0.00185117
0.00185014
0.0018493
0.00184873
0.00184839
0.00186098
0.00181076
0.00181037
0.00180979
0.00180905
0.00180815
0.00180713
0.001806
0.0018048
0.00180355
0.00180232
0.00180115
0.00180011
0.00179928
0.00179871
0.00179837
0.00181097
0.00176074
0.00176035
0.00175978
0.00175903
0.00175814
0.00175711
0.00175598
0.00175478
0.00175354
0.00175231
0.00175114
0.0017501
0.00174926
0.00174869
0.00174836
0.00176095
0.00171073
0.00171034
0.00170977
0.00170902
0.00170813
0.0017071
0.00170597
0.00170477
0.00170353
0.0017023
0.00170112
0.00170008
0.00169925
0.00169867
0.00169834
0.00171094
0.00166072
0.00166033
0.00165976
0.00165901
0.00165812
0.00165709
0.00165596
0.00165476
0.00165352
0.00165229
0.00165111
0.00165007
0.00164923
0.00164866
0.00164833
0.00166093
0.00161072
0.00161033
0.00160975
0.001609
0.00160811
0.00160708
0.00160596
0.00160475
0.00160351
0.00160228
0.00160111
0.00160006
0.00159923
0.00159865
0.00159832
0.00161093
0.00156071
0.00156033
0.00155975
0.001559
0.0015581
0.00155708
0.00155595
0.00155475
0.0015535
0.00155227
0.0015511
0.00155006
0.00154922
0.00154864
0.00154831
0.00156092
0.00151071
0.00151032
0.00150974
0.00150899
0.0015081
0.00150707
0.00150594
0.00150474
0.00150349
0.00150226
0.00150108
0.00150004
0.00149921
0.00149863
0.0014983
0.00151092
0.0014607
0.00146031
0.00145973
0.00145899
0.00145809
0.00145706
0.00145593
0.00145473
0.00145348
0.00145225
0.00145107
0.00145003
0.00144919
0.00144861
0.00144828
0.00146091
0.0014107
0.00141031
0.00140973
0.00140898
0.00140809
0.00140706
0.00140592
0.00140472
0.00140348
0.00140224
0.00140107
0.00140002
0.00139918
0.0013986
0.00139827
0.00141091
0.00136069
0.0013603
0.00135972
0.00135897
0.00135808
0.00135705
0.00135591
0.00135471
0.00135346
0.00135223
0.00135105
0.00135001
0.00134917
0.00134859
0.00134825
0.0013609
0.00131068
0.00131029
0.00130971
0.00130896
0.00130807
0.00130704
0.0013059
0.00130469
0.00130345
0.00130221
0.00130103
0.00129999
0.00129915
0.00129857
0.00129823
0.00131089
0.00126067
0.00126028
0.0012597
0.00125895
0.00125805
0.00125702
0.00125589
0.00125468
0.00125343
0.00125219
0.00125101
0.00124996
0.00124912
0.00124854
0.00124821
0.00126088
0.00121065
0.00121026
0.00120968
0.00120893
0.00120803
0.001207
0.00120587
0.00120466
0.00120341
0.00120217
0.00120099
0.00119994
0.00119909
0.00119851
0.00119818
0.00121087
0.00116064
0.00116025
0.00115967
0.00115892
0.00115801
0.00115698
0.00115585
0.00115464
0.00115338
0.00115214
0.00115096
0.00114991
0.00114907
0.00114848
0.00114814
0.00116085
0.00111062
0.00111023
0.00110965
0.0011089
0.001108
0.00110696
0.00110583
0.00110461
0.00110336
0.00110211
0.00110093
0.00109988
0.00109903
0.00109844
0.00109811
0.00111083
0.0010606
0.00106021
0.00105963
0.00105888
0.00105797
0.00105694
0.0010558
0.00105459
0.00105334
0.00105209
0.0010509
0.00104985
0.001049
0.00104841
0.00104807
0.00106081
0.00101058
0.00101019
0.00100961
0.00100885
0.00100795
0.00100692
0.00100578
0.00100456
0.00100331
0.00100206
0.00100088
0.000999817
0.000998961
0.000998371
0.000998026
0.00101079
0.000960551
0.00096016
0.00095958
0.000958829
0.000957926
0.000956892
0.000955754
0.000954538
0.000953281
0.00095203
0.000950842
0.000949782
0.000948923
0.000948328
0.000947979
0.000960763
0.000910521
0.000910131
0.000909551
0.000908801
0.000907898
0.000906865
0.000905726
0.00090451
0.000903252
0.000902
0.000900809
0.000899745
0.000898883
0.000898283
0.00089793
0.000910733
0.000860486
0.000860097
0.000859517
0.000858769
0.000857866
0.000856834
0.000855696
0.00085448
0.000853222
0.000851968
0.000850775
0.000849708
0.000848841
0.000848236
0.000847877
0.000860697
0.000810445
0.000810056
0.000809478
0.000808731
0.00080783
0.0008068
0.000805663
0.000804448
0.000803191
0.000801937
0.000800741
0.000799671
0.0007988
0.000798188
0.000797822
0.000810655
0.000760394
0.000760007
0.000759431
0.000758686
0.000757788
0.00075676
0.000755626
0.000754413
0.000753158
0.000751903
0.000750707
0.000749634
0.000748757
0.000748139
0.000747764
0.000760604
0.000710332
0.000709947
0.000709373
0.000708631
0.000707737
0.000706713
0.000705583
0.000704374
0.000703121
0.000701868
0.000700672
0.000699596
0.000698715
0.000698089
0.000697703
0.000710541
0.000660256
0.000659873
0.000659303
0.000658565
0.000657676
0.000656658
0.000655533
0.000654329
0.000653081
0.000651832
0.000650637
0.00064956
0.000648674
0.000648039
0.000647641
0.000660464
0.000610163
0.000609783
0.000609216
0.000608484
0.000607601
0.00060659
0.000605473
0.000604276
0.000603035
0.000601792
0.000600601
0.000599525
0.000598635
0.000597991
0.000597576
0.000610369
0.000560049
0.000559672
0.000559111
0.000558385
0.00055751
0.000556507
0.0005554
0.000554213
0.000552981
0.000551746
0.000550562
0.000549489
0.000548599
0.000547947
0.000547513
0.000560253
0.000509909
0.000509536
0.000508981
0.000508263
0.000507397
0.000506405
0.000505309
0.000504135
0.000502915
0.000501691
0.000500517
0.00049945
0.000498562
0.000497904
0.000497452
0.000510112
0.000459741
0.000459373
0.000458824
0.000458115
0.000457259
0.00045628
0.000455197
0.000454038
0.000452833
0.000451623
0.000450461
0.000449405
0.000448521
0.00044786
0.000447396
0.00045994
0.000409538
0.000409175
0.000408634
0.000407935
0.000407092
0.000406127
0.000405061
0.000403918
0.00040273
0.000401539
0.000400393
0.000399349
0.000398475
0.000397816
0.000397347
0.000409735
0.000359298
0.000358941
0.000358409
0.000357721
0.000356892
0.000355943
0.000354895
0.000353772
0.000352605
0.000351435
0.00035031
0.000349284
0.000348425
0.000347773
0.000347306
0.000359492
0.00030902
0.000308669
0.000308146
0.000307471
0.000306657
0.000305726
0.000304698
0.000303598
0.000302456
0.000301311
0.000300211
0.000299211
0.000298372
0.000297735
0.000297277
0.000309211
0.000258702
0.000258358
0.000257846
0.000257184
0.000256387
0.000255475
0.000254471
0.000253396
0.000252282
0.000251167
0.000250099
0.000249131
0.000248321
0.000247705
0.000247269
0.000258889
0.000208344
0.000208007
0.000207506
0.000206859
0.00020608
0.00020519
0.00020421
0.000203164
0.000202082
0.000201003
0.000199972
0.000199044
0.000198272
0.000197692
0.000197297
0.000208527
0.000157947
0.000157619
0.000157129
0.000156498
0.000155738
0.000154872
0.00015392
0.000152905
0.000151857
0.000150817
0.00014983
0.00014895
0.00014823
0.000147713
0.000147397
0.000158126
0.000107517
0.000107198
0.000106721
0.000106107
0.000105368
0.000104526
0.000103602
0.00010262
0.000101611
0.000100613
9.96772e-05
9.88588e-05
9.82168e-05
9.78001e-05
9.76107e-05
0.000107692
5.70573e-05
5.67472e-05
5.62844e-05
5.56883e-05
5.4971e-05
5.41539e-05
5.32606e-05
5.2316e-05
5.13508e-05
5.04062e-05
4.95357e-05
4.88003e-05
4.82672e-05
4.79916e-05
4.79787e-05
5.72274e-05
6.5745e-06
6.2743e-06
5.82637e-06
5.25003e-06
4.55872e-06
3.7733e-06
2.91772e-06
2.01944e-06
1.11171e-06
2.36975e-07
-5.47839e-07
-1.17483e-06
-1.56987e-06
-1.6699e-06
-1.46585e-06
6.7397e-06
-4.39186e-05
-4.42059e-05
-4.46341e-05
-4.51833e-05
-4.58392e-05
-4.65806e-05
-4.73836e-05
-4.82194e-05
-4.90525e-05
-4.98381e-05
-5.05161e-05
-5.10132e-05
-5.12476e-05
-5.11486e-05
-5.07016e-05
-4.37599e-05
-9.43858e-05
-9.46535e-05
-9.50522e-05
-9.5562e-05
-9.61678e-05
-9.68493e-05
-9.75824e-05
-9.83377e-05
-9.90786e-05
-9.97585e-05
-0.000100313
-0.000100665
-0.000100726
-0.000100416
-9.97167e-05
-9.4237e-05
-0.000144761
-0.000145001
-0.000145359
-0.000145816
-0.000146357
-0.000146963
-0.00014761
-0.00014827
-0.000148905
-0.000149466
-0.000149888
-0.000150088
-0.000149971
-0.000149452
-0.000148505
-0.000144626
-0.000194958
-0.000195165
-0.000195473
-0.000195866
-0.000196332
-0.00019685
-0.000197401
-0.000197955
-0.000198476
-0.000198913
-0.000199199
-0.000199247
-0.000198958
-0.000198243
-0.000197067
-0.000194842
-0.000244885
-0.000245056
-0.00024531
-0.000245634
-0.000246018
-0.000246445
-0.000246894
-0.00024734
-0.000247745
-0.000248058
-0.000248211
-0.000248115
-0.000247668
-0.000246777
-0.0002454
-0.000244789
-0.000294455
-0.00029459
-0.000294792
-0.00029505
-0.000295354
-0.000295691
-0.000296042
-0.000296382
-0.000296675
-0.000296872
-0.000296901
-0.000296676
-0.00029609
-0.00029505
-0.000293509
-0.000294379
-0.000343601
-0.000343705
-0.00034386
-0.000344057
-0.00034429
-0.000344545
-0.000344807
-0.000345051
-0.000345243
-0.000345333
-0.000345254
-0.000344916
-0.000344216
-0.000343059
-0.000341397
-0.000343543
-0.000392281
-0.00039236
-0.000392476
-0.000392624
-0.000392797
-0.000392983
-0.000393168
-0.000393329
-0.000393432
-0.000393432
-0.00039326
-0.000392832
-0.000392044
-0.000390807
-0.00038907
-0.000392237
-0.000440484
-0.000440543
-0.00044063
-0.00044074
-0.000440866
-0.000440996
-0.000441118
-0.00044121
-0.000441242
-0.000441167
-0.000440922
-0.000440426
-0.00043958
-0.000438299
-0.000436534
-0.00044045
-0.00048822
-0.000488266
-0.000488332
-0.000488414
-0.000488503
-0.000488591
-0.000488664
-0.000488702
-0.000488676
-0.000488544
-0.000488245
-0.000487705
-0.000486831
-0.000485543
-0.000483796
-0.000488195
-0.000535526
-0.000535561
-0.000535612
-0.000535672
-0.000535734
-0.000535789
-0.000535825
-0.000535821
-0.000535752
-0.000535578
-0.000535244
-0.000534682
-0.000533808
-0.000532549
-0.000530865
-0.000535506
-0.000582447
-0.000582473
-0.000582511
-0.000582553
-0.000582593
-0.000582623
-0.000582628
-0.000582593
-0.000582491
-0.00058229
-0.000581938
-0.000581374
-0.000580525
-0.000579327
-0.000577746
-0.000582432
-0.000629035
-0.000629053
-0.000629078
-0.000629103
-0.000629124
-0.00062913
-0.000629111
-0.00062905
-0.000628925
-0.000628705
-0.000628349
-0.000627801
-0.000627
-0.000625892
-0.000624447
-0.000629025
-0.000675345
-0.000675353
-0.000675364
-0.000675372
-0.000675372
-0.000675357
-0.000675315
-0.000675232
-0.000675088
-0.000674859
-0.000674507
-0.000673989
-0.000673254
-0.000672259
-0.000670974
-0.000675339
-0.000721421
-0.000721419
-0.000721415
-0.000721405
-0.000721384
-0.000721346
-0.000721281
-0.000721177
-0.000721017
-0.000720781
-0.000720441
-0.000719963
-0.000719309
-0.000718442
-0.000717332
-0.00072142
-0.000767303
-0.000767292
-0.000767273
-0.000767245
-0.000767203
-0.000767142
-0.000767053
-0.000766928
-0.000766752
-0.000766511
-0.000766185
-0.000765752
-0.000765186
-0.000764456
-0.000763529
-0.000767308
-0.000813024
-0.000813004
-0.000812973
-0.000812928
-0.000812866
-0.000812783
-0.000812671
-0.000812524
-0.000812332
-0.000812086
-0.000811775
-0.000811389
-0.000810911
-0.000810316
-0.000809568
-0.000813033
-0.000858605
-0.000858579
-0.000858538
-0.00085848
-0.000858402
-0.0008583
-0.00085817
-0.000858005
-0.000857801
-0.000857552
-0.000857256
-0.00085691
-0.00085651
-0.000856034
-0.000855451
-0.000858618
-0.000904075
-0.000904045
-0.000903997
-0.000903931
-0.000903843
-0.000903731
-0.00090359
-0.000903417
-0.000903209
-0.000902964
-0.000902683
-0.000902367
-0.000902021
-0.000901638
-0.00090119
-0.00090409
-0.000949478
-0.000949445
-0.000949394
-0.000949323
-0.000949231
-0.000949114
-0.00094897
-0.000948796
-0.000948592
-0.000948356
-0.000948091
-0.0009478
-0.000947489
-0.000947165
-0.000946813
-0.000949495
-0.000994843
-0.000994809
-0.000994755
-0.000994681
-0.000994586
-0.000994467
-0.000994325
-0.000994156
-0.000993958
-0.000993733
-0.000993487
-0.000993219
-0.000992936
-0.00099265
-0.000992357
-0.000994862
-0.00104018
-0.00104014
-0.00104009
-0.00104001
-0.00103992
-0.0010398
-0.00103966
-0.0010395
-0.00103931
-0.0010391
-0.00103887
-0.00103863
-0.00103837
-0.00103812
-0.00103786
-0.0010402
-0.00108549
-0.00108546
-0.0010854
-0.00108533
-0.00108523
-0.00108512
-0.00108498
-0.00108483
-0.00108465
-0.00108445
-0.00108425
-0.00108403
-0.0010838
-0.00108357
-0.00108335
-0.00108551
-0.00113079
-0.00113075
-0.0011307
-0.00113063
-0.00113053
-0.00113042
-0.00113029
-0.00113015
-0.00112998
-0.0011298
-0.00112961
-0.00112941
-0.00112921
-0.00112901
-0.00112882
-0.00113081
-0.00117607
-0.00117603
-0.00117598
-0.00117591
-0.00117582
-0.00117572
-0.0011756
-0.00117546
-0.00117531
-0.00117514
-0.00117497
-0.00117479
-0.00117461
-0.00117444
-0.00117427
-0.00117609
-0.00122134
-0.00122131
-0.00122126
-0.00122119
-0.00122111
-0.00122101
-0.0012209
-0.00122077
-0.00122063
-0.00122048
-0.00122032
-0.00122016
-0.00122001
-0.00121986
-0.00121971
-0.00122136
-0.0012666
-0.00126657
-0.00126653
-0.00126647
-0.00126639
-0.00126629
-0.00126619
-0.00126607
-0.00126595
-0.00126581
-0.00126567
-0.00126553
-0.00126539
-0.00126526
-0.00126513
-0.00126662
-0.00131186
-0.00131184
-0.00131179
-0.00131174
-0.00131166
-0.00131157
-0.00131148
-0.00131137
-0.00131126
-0.00131114
-0.00131101
-0.00131088
-0.00131076
-0.00131064
-0.00131054
-0.00131188
-0.00135712
-0.00135709
-0.00135705
-0.001357
-0.00135693
-0.00135686
-0.00135677
-0.00135667
-0.00135657
-0.00135646
-0.00135635
-0.00135624
-0.00135613
-0.00135603
-0.00135593
-0.00135713
-0.00140238
-0.00140235
-0.00140232
-0.00140226
-0.0014022
-0.00140214
-0.00140206
-0.00140197
-0.00140187
-0.00140178
-0.00140168
-0.00140158
-0.00140149
-0.0014014
-0.00140132
-0.00140239
-0.00144764
-0.00144761
-0.00144758
-0.00144753
-0.00144748
-0.00144741
-0.00144734
-0.00144726
-0.00144718
-0.00144709
-0.00144701
-0.00144692
-0.00144684
-0.00144676
-0.00144669
-0.00144765
-0.00149289
-0.00149287
-0.00149284
-0.0014928
-0.00149275
-0.0014927
-0.00149263
-0.00149256
-0.00149249
-0.00149241
-0.00149233
-0.00149226
-0.00149218
-0.00149211
-0.00149205
-0.0014929
-0.00153815
-0.00153814
-0.00153811
-0.00153807
-0.00153803
-0.00153798
-0.00153792
-0.00153785
-0.00153779
-0.00153772
-0.00153765
-0.00153759
-0.00153752
-0.00153746
-0.00153741
-0.00153816
-0.00158342
-0.0015834
-0.00158338
-0.00158334
-0.0015833
-0.00158326
-0.00158321
-0.00158315
-0.00158309
-0.00158303
-0.00158297
-0.00158291
-0.00158286
-0.0015828
-0.00158276
-0.00158343
-0.00162868
-0.00162867
-0.00162865
-0.00162862
-0.00162858
-0.00162854
-0.0016285
-0.00162845
-0.00162839
-0.00162834
-0.00162829
-0.00162824
-0.00162818
-0.00162814
-0.0016281
-0.00162869
-0.00167395
-0.00167393
-0.00167391
-0.00167389
-0.00167386
-0.00167382
-0.00167378
-0.00167374
-0.00167369
-0.00167365
-0.0016736
-0.00167355
-0.00167351
-0.00167347
-0.00167343
-0.00167396
-0.00171922
-0.0017192
-0.00171918
-0.00171916
-0.00171913
-0.0017191
-0.00171907
-0.00171903
-0.00171899
-0.00171895
-0.00171891
-0.00171887
-0.00171883
-0.00171879
-0.00171876
-0.00171923
-0.00176449
-0.00176448
-0.00176446
-0.00176444
-0.00176441
-0.00176439
-0.00176435
-0.00176432
-0.00176429
-0.00176425
-0.00176421
-0.00176418
-0.00176414
-0.00176411
-0.00176408
-0.0017645
-0.00180976
-0.00180975
-0.00180974
-0.00180972
-0.00180969
-0.00180967
-0.00180964
-0.00180961
-0.00180958
-0.00180955
-0.00180952
-0.00180949
-0.00180945
-0.00180942
-0.0018094
-0.00180977
-0.00185503
-0.00185502
-0.00185501
-0.001855
-0.00185498
-0.00185495
-0.00185493
-0.0018549
-0.00185488
-0.00185485
-0.00185482
-0.00185479
-0.00185476
-0.00185474
-0.00185471
-0.00185504
-0.00190031
-0.0019003
-0.00190029
-0.00190027
-0.00190026
-0.00190024
-0.00190022
-0.0019002
-0.00190017
-0.00190014
-0.00190012
-0.00190009
-0.00190007
-0.00190005
-0.00190002
-0.00190031
-0.00194558
-0.00194557
-0.00194556
-0.00194555
-0.00194554
-0.00194552
-0.0019455
-0.00194548
-0.00194546
-0.00194544
-0.00194541
-0.00194539
-0.00194537
-0.00194535
-0.00194533
-0.00194558
-0.00199085
-0.00199085
-0.00199084
-0.00199083
-0.00199082
-0.0019908
-0.00199079
-0.00199076
-0.00199075
-0.00199073
-0.00199071
-0.00199069
-0.00199067
-0.00199065
-0.00199063
-0.00199086
-0.00203613
-0.00203612
-0.00203611
-0.0020361
-0.0020361
-0.00203609
-0.00203607
-0.00203605
-0.00203604
-0.00203602
-0.00203601
-0.00203599
-0.00203597
-0.00203595
-0.00203593
-0.00203613
-0.00208141
-0.0020814
-0.00208139
-0.00208138
-0.00208138
-0.00208137
-0.00208135
-0.00208134
-0.00208132
-0.00208131
-0.0020813
-0.00208128
-0.00208126
-0.00208125
-0.00208123
-0.00208141
-0.00212668
-0.00212668
-0.00212667
-0.00212666
-0.00212666
-0.00212665
-0.00212664
-0.00212662
-0.00212661
-0.0021266
-0.00212658
-0.00212657
-0.00212655
-0.00212654
-0.00212652
-0.00212668
-0.00217196
-0.00217195
-0.00217195
-0.00217194
-0.00217194
-0.00217193
-0.00217191
-0.00217191
-0.0021719
-0.00217188
-0.00217187
-0.00217186
-0.00217185
-0.00217183
-0.00217182
-0.00217196
-0.00221723
-0.00221723
-0.00221722
-0.00221722
-0.00221721
-0.00221721
-0.0022172
-0.00221719
-0.00221718
-0.00221717
-0.00221716
-0.00221715
-0.00221713
-0.00221712
-0.00221711
-0.00221724
-0.00226251
-0.0022625
-0.0022625
-0.00226249
-0.00226249
-0.00226249
-0.00226248
-0.00226247
-0.00226246
-0.00226245
-0.00226244
-0.00226243
-0.00226242
-0.00226241
-0.00226239
-0.00226251
-0.00230778
-0.00230778
-0.00230778
-0.00230777
-0.00230777
-0.00230776
-0.00230776
-0.00230775
-0.00230774
-0.00230774
-0.00230773
-0.00230772
-0.00230771
-0.00230769
-0.00230768
-0.00230778
-0.00235306
-0.00235305
-0.00235305
-0.00235305
-0.00235304
-0.00235304
-0.00235303
-0.00235303
-0.00235302
-0.00235302
-0.00235301
-0.002353
-0.00235299
-0.00235298
-0.00235296
-0.00235306
-0.00239833
-0.00239833
-0.00239833
-0.00239832
-0.00239832
-0.00239831
-0.00239831
-0.00239831
-0.0023983
-0.0023983
-0.00239829
-0.00239828
-0.00239827
-0.00239826
-0.00239825
-0.00239833
-0.0024436
-0.0024436
-0.0024436
-0.0024436
-0.00244359
-0.00244359
-0.00244359
-0.00244358
-0.00244358
-0.00244357
-0.00244357
-0.00244356
-0.00244355
-0.00244355
-0.00244353
-0.00244361
-0.00248888
-0.00248888
-0.00248887
-0.00248887
-0.00248887
-0.00248887
-0.00248886
-0.00248886
-0.00248885
-0.00248885
-0.00248884
-0.00248884
-0.00248883
-0.00248883
-0.00248881
-0.00248888
-0.00253415
-0.00253415
-0.00253415
-0.00253414
-0.00253414
-0.00253414
-0.00253414
-0.00253413
-0.00253413
-0.00253412
-0.00253412
-0.00253411
-0.00253411
-0.0025341
-0.00253409
-0.00253415
-0.00257942
-0.00257942
-0.00257942
-0.00257941
-0.00257941
-0.00257941
-0.00257941
-0.00257941
-0.0025794
-0.0025794
-0.00257939
-0.00257939
-0.00257939
-0.00257938
-0.00257937
-0.00257942
-0.00262469
-0.00262469
-0.00262469
-0.00262469
-0.00262469
-0.00262468
-0.00262468
-0.00262468
-0.00262468
-0.00262467
-0.00262467
-0.00262467
-0.00262466
-0.00262466
-0.00262465
-0.00262469
-0.00266996
-0.00266996
-0.00266996
-0.00266996
-0.00266996
-0.00266996
-0.00266995
-0.00266995
-0.00266995
-0.00266995
-0.00266994
-0.00266994
-0.00266994
-0.00266993
-0.00266992
-0.00266996
-0.00271523
-0.00271523
-0.00271523
-0.00271523
-0.00271523
-0.00271523
-0.00271522
-0.00271522
-0.00271522
-0.00271522
-0.00271522
-0.00271522
-0.00271521
-0.0027152
-0.0027152
-0.00271523
-0.0027605
-0.0027605
-0.0027605
-0.0027605
-0.0027605
-0.0027605
-0.00276049
-0.00276049
-0.00276049
-0.00276049
-0.00276049
-0.00276049
-0.00276048
-0.00276048
-0.00276047
-0.0027605
-0.00280576
-0.00280576
-0.00280576
-0.00280576
-0.00280576
-0.00280576
-0.00280576
-0.00280576
-0.00280576
-0.00280576
-0.00280576
-0.00280576
-0.00280576
-0.00280575
-0.00280575
-0.00280576
-0.00285103
-0.00285103
-0.00285103
-0.00285103
-0.00285103
-0.00285103
-0.00285103
-0.00285103
-0.00285103
-0.00285103
-0.00285103
-0.00285103
-0.00285103
-0.00285102
-0.00285102
-0.00285103
-0.0028963
-0.0028963
-0.0028963
-0.0028963
-0.0028963
-0.0028963
-0.0028963
-0.0028963
-0.0028963
-0.0028963
-0.0028963
-0.0028963
-0.0028963
-0.0028963
-0.00289629
-0.0028963
-0.00294157
-0.00294156
-0.00294157
-0.00294157
-0.00294157
-0.00294157
-0.00294157
-0.00294156
-0.00294157
-0.00294157
-0.00294157
-0.00294157
-0.00294157
-0.00294157
-0.00294156
-0.00294157
-0.00298683
-0.00298684
-0.00298684
-0.00298684
-0.00298684
-0.00298684
-0.00298683
-0.00298684
-0.00298683
-0.00298683
-0.00298684
-0.00298684
-0.00298683
-0.00298684
-0.00298683
-0.00298684
-0.0030321
-0.0030321
-0.0030321
-0.0030321
-0.0030321
-0.0030321
-0.0030321
-0.0030321
-0.0030321
-0.0030321
-0.0030321
-0.0030321
-0.0030321
-0.0030321
-0.0030321
-0.0030321
-0.00307736
-0.00307736
-0.00307737
-0.00307737
-0.00307736
-0.00307737
-0.00307737
-0.00307736
-0.00307737
-0.00307736
-0.00307736
-0.00307737
-0.00307736
-0.00307737
-0.00307736
-0.00307737
)
;

boundaryField
{
    wireUpstream
    {
        type            calculated;
        value           nonuniform List<scalar> 
16
(
-0.0031
-0.0031
-0.0031
-0.0031
-0.0031
-0.0031
-0.0031
-0.0031
-0.0031
-0.0031
-0.0031
-0.0031
-0.0031
-0.0031
-0.0031
-0.0031
)
;
    }
    wireDownstream
    {
        type            calculated;
        value           nonuniform List<scalar> 
16
(
0.003
0.003
0.003
0.003
0.003
0.003
0.003
0.003
0.003
0.003
0.003
0.003
0.003
0.003
0.003
0.003
)
;
    }
    wireTopContact
    {
        type            calculated;
        value           nonuniform List<scalar> 
122
(
0.00264904
0.00259897
0.0025489
0.00249884
0.00244877
0.00239871
0.00234866
0.00229861
0.00224856
0.00219852
0.00214847
0.00209843
0.0020484
0.00199837
0.00194834
0.00189831
0.00184828
0.00179826
0.00174825
0.00169823
0.00164822
0.00159821
0.0015482
0.00149819
0.00144818
0.00139816
0.00134814
0.00129812
0.0012481
0.00119807
0.00114803
0.00109799
0.00104795
0.000997907
0.000947858
0.000897807
0.000847751
0.000797692
0.000747629
0.000697563
0.000647493
0.00059742
0.000547343
0.00049727
0.000447205
0.000397152
0.000347112
0.000297088
0.000247092
0.000197146
0.000147291
9.75763e-05
4.80412e-05
-1.28479e-06
-5.0389e-05
-9.92684e-05
-0.000147925
-0.000196365
-0.000244593
-0.000292617
-0.000340443
-0.000388079
-0.000435533
-0.000482811
-0.00052992
-0.000576862
-0.00062364
-0.000670257
-0.000716713
-0.00076301
-0.000809149
-0.000855124
-0.000900942
-0.000946624
-0.000992208
-0.00103774
-0.00108324
-0.00112873
-0.00117419
-0.00121964
-0.00126507
-0.00131049
-0.00135589
-0.00140128
-0.00144666
-0.00149203
-0.00153739
-0.00158274
-0.00162808
-0.00167341
-0.00171874
-0.00176407
-0.00180939
-0.0018547
-0.00190001
-0.00194532
-0.00199062
-0.00203592
-0.00208122
-0.00212651
-0.00217181
-0.0022171
-0.00226239
-0.00230767
-0.00235296
-0.00239824
-0.00244352
-0.0024888
-0.00253408
-0.00257936
-0.00262464
-0.00266992
-0.0027152
-0.00276047
-0.00280575
-0.00285102
-0.00289629
-0.00294156
-0.00298683
-0.00303209
-0.00307736
0.00283704
)
;
    }
    front
    {
        type            wedge;
    }
    back
    {
        type            wedge;
    }
}


// ************************************************************************* //
