/*--------------------------------*- C++ -*----------------------------------*\
| =========                 |                                                 |
| \\      /  F ield         | foam-extend: Open Source CFD                    |
|  \\    /   O peration     | Version:     4.1-20200408                       |
|   \\  /    A nd           | Web:         http://www.foam-extend.org         |
|    \\/     M anipulation  |                                                 |
\*---------------------------------------------------------------------------*/
FoamFile
{
    version     2.0;
    format      ascii;
    class       volScalarField;
    location    "0.0760000";
    object      rho_0;
}
// * * * * * * * * * * * * * * * * * * * * * * * * * * * * * * * * * * * * * //

dimensions      [1 -3 0 0 0 0 0];

internalField   nonuniform List<scalar> 
1952
(
7860.76
7859.7
7858.18
7856.39
7854.2
7851.76
7848.88
7845.51
7841.85
7837.31
7832.16
7824.9
7817.15
7808.62
7803.04
7861.25
7860.59
7859.53
7858.01
7856.23
7854.03
7851.6
7848.72
7845.35
7841.7
7837.17
7832.03
7824.79
7817.06
7808.57
7803.07
7861.08
7860.45
7859.39
7857.87
7856.09
7853.89
7851.46
7848.59
7845.23
7841.58
7837.06
7831.93
7824.71
7817
7808.53
7803.06
7860.94
7860.33
7859.26
7857.74
7855.96
7853.77
7851.34
7848.47
7845.12
7841.48
7836.97
7831.85
7824.64
7816.95
7808.51
7803.07
7860.82
7860.21
7859.15
7857.63
7855.86
7853.67
7851.24
7848.38
7845.03
7841.4
7836.9
7831.79
7824.59
7816.92
7808.49
7803.07
7860.7
7860.12
7859.06
7857.54
7855.76
7853.58
7851.15
7848.29
7844.95
7841.33
7836.83
7831.73
7824.55
7816.89
7808.48
7803.08
7860.61
7860.03
7858.97
7857.45
7855.68
7853.5
7851.08
7848.22
7844.88
7841.27
7836.78
7831.68
7824.51
7816.86
7808.46
7803.07
7860.52
7859.96
7858.9
7857.38
7855.61
7853.43
7851.01
7848.16
7844.83
7841.22
7836.73
7831.64
7824.48
7816.83
7808.45
7803.07
7860.45
7859.9
7858.84
7857.32
7855.55
7853.37
7850.96
7848.1
7844.77
7841.17
7836.69
7831.6
7824.44
7816.81
7808.43
7803.06
7860.39
7859.84
7858.78
7857.26
7855.5
7853.32
7850.9
7848.05
7844.73
7841.13
7836.65
7831.57
7824.41
7816.78
7808.41
7803.05
7860.33
7859.79
7858.73
7857.21
7855.45
7853.27
7850.86
7848.01
7844.69
7841.09
7836.61
7831.53
7824.38
7816.75
7808.39
7803.03
7860.28
7859.75
7858.69
7857.17
7855.41
7853.23
7850.82
7847.97
7844.65
7841.05
7836.58
7831.5
7824.35
7816.72
7808.36
7803.01
7860.24
7859.71
7858.65
7857.13
7855.37
7853.19
7850.78
7847.93
7844.61
7841.02
7836.54
7831.46
7824.32
7816.69
7808.34
7802.99
7860.2
7859.68
7858.61
7857.09
7855.33
7853.16
7850.74
7847.89
7844.58
7840.98
7836.51
7831.42
7824.28
7816.66
7808.31
7802.96
7860.17
7859.65
7858.58
7857.06
7855.3
7853.12
7850.71
7847.86
7844.54
7840.95
7836.47
7831.39
7824.25
7816.62
7808.28
7802.93
7860.13
7859.62
7858.55
7857.03
7855.27
7853.09
7850.68
7847.82
7844.51
7840.91
7836.44
7831.35
7824.21
7816.59
7808.24
7802.89
7860.1
7859.59
7858.52
7857
7855.24
7853.06
7850.64
7847.79
7844.47
7840.88
7836.4
7831.31
7824.17
7816.54
7808.2
7802.86
7860.08
7859.57
7858.5
7856.97
7855.21
7853.03
7850.61
7847.75
7844.44
7840.84
7836.37
7831.27
7824.13
7816.5
7808.16
7802.82
7860.06
7859.55
7858.47
7856.95
7855.19
7853.01
7850.59
7847.72
7844.41
7840.81
7836.33
7831.23
7824.09
7816.46
7808.12
7802.77
7860.03
7859.53
7858.45
7856.93
7855.16
7852.98
7850.56
7847.69
7844.38
7840.77
7836.29
7831.18
7824.05
7816.41
7808.07
7802.72
7860.02
7859.52
7858.44
7856.91
7855.14
7852.96
7850.53
7847.66
7844.34
7840.74
7836.25
7831.14
7824
7816.36
7808.02
7802.67
7860
7859.5
7858.43
7856.9
7855.13
7852.94
7850.51
7847.63
7844.31
7840.7
7836.21
7831.09
7823.95
7816.3
7807.97
7802.61
7859.99
7859.5
7858.42
7856.88
7855.11
7852.92
7850.49
7847.6
7844.28
7840.66
7836.17
7831.04
7823.9
7816.24
7807.91
7802.55
7859.99
7859.5
7858.41
7856.88
7855.1
7852.91
7850.47
7847.58
7844.25
7840.63
7836.13
7830.99
7823.85
7816.18
7807.84
7802.48
7859.99
7859.5
7858.42
7856.88
7855.1
7852.9
7850.46
7847.56
7844.23
7840.59
7836.09
7830.94
7823.79
7816.11
7807.78
7802.41
7859.99
7859.52
7858.43
7856.89
7855.11
7852.9
7850.45
7847.54
7844.21
7840.56
7836.05
7830.88
7823.73
7816.04
7807.71
7802.33
7860.01
7859.54
7858.45
7856.91
7855.12
7852.91
7850.45
7847.53
7844.19
7840.54
7836.01
7830.83
7823.68
7815.97
7807.63
7802.24
7860.04
7859.59
7858.49
7856.94
7855.15
7852.93
7850.46
7847.53
7844.19
7840.52
7835.98
7830.78
7823.62
7815.9
7807.55
7802.14
7860.08
7859.64
7858.54
7856.99
7855.2
7852.96
7850.49
7847.54
7844.19
7840.5
7835.96
7830.74
7823.56
7815.82
7807.46
7802.04
7860.14
7859.72
7858.62
7857.06
7855.26
7853.01
7850.53
7847.57
7844.2
7840.5
7835.94
7830.7
7823.51
7815.74
7807.36
7801.92
7860.22
7859.83
7858.72
7857.15
7855.35
7853.09
7850.6
7847.62
7844.24
7840.51
7835.94
7830.67
7823.46
7815.66
7807.27
7801.8
7860.33
7859.96
7858.85
7857.28
7855.46
7853.19
7850.69
7847.69
7844.29
7840.55
7835.95
7830.64
7823.41
7815.58
7807.17
7801.67
7860.46
7860.13
7859.02
7857.43
7855.61
7853.33
7850.81
7847.79
7844.38
7840.6
7835.98
7830.64
7823.38
7815.51
7807.07
7801.53
7860.63
7860.34
7859.22
7857.63
7855.8
7853.5
7850.97
7847.92
7844.5
7840.69
7836.04
7830.66
7823.37
7815.45
7806.98
7801.39
7860.84
7860.59
7859.47
7857.87
7856.04
7853.72
7851.17
7848.1
7844.65
7840.82
7836.14
7830.71
7823.39
7815.4
7806.89
7801.24
7861.1
7860.89
7859.77
7858.17
7856.32
7853.99
7851.43
7848.34
7844.87
7840.99
7836.28
7830.79
7823.43
7815.38
7806.82
7801.09
7861.4
7861.25
7860.13
7858.52
7856.67
7854.32
7851.75
7848.63
7845.14
7841.23
7836.48
7830.93
7823.53
7815.4
7806.78
7800.95
7861.77
7861.67
7860.56
7858.94
7857.08
7854.73
7852.14
7849.01
7845.49
7841.54
7836.75
7831.14
7823.68
7815.46
7806.77
7800.83
7862.19
7862.16
7861.05
7859.42
7857.57
7855.21
7852.62
7849.47
7845.93
7841.95
7837.12
7831.44
7823.92
7815.59
7806.82
7800.74
7862.67
7862.71
7861.61
7859.99
7858.14
7855.78
7853.19
7850.03
7846.48
7842.47
7837.61
7831.86
7824.27
7815.81
7806.94
7800.69
7863.22
7863.32
7862.24
7860.62
7858.79
7856.44
7853.86
7850.7
7847.15
7843.12
7838.24
7832.42
7824.77
7816.17
7807.18
7800.7
7863.83
7863.99
7862.92
7861.32
7859.52
7857.19
7854.63
7851.5
7847.97
7843.95
7839.04
7833.18
7825.46
7816.71
7807.58
7800.83
7864.5
7864.69
7863.65
7862.08
7860.32
7858.04
7855.52
7852.44
7848.94
7844.96
7840.07
7834.17
7826.41
7817.5
7808.21
7801.08
7865.19
7865.41
7864.41
7862.87
7861.17
7858.95
7856.5
7853.51
7850.09
7846.19
7841.35
7835.48
7827.71
7818.67
7809.19
7801.56
7865.9
7866.11
7865.15
7863.67
7862.04
7859.92
7857.57
7854.71
7851.4
7847.65
7842.92
7837.17
7829.48
7820.38
7810.8
7802.62
7866.59
7866.73
7865.83
7864.42
7862.89
7860.9
7858.69
7856.01
7852.87
7849.35
7844.83
7839.32
7831.86
7822.95
7813.62
7805.37
7867.19
7867.22
7866.39
7865.07
7863.67
7861.83
7859.8
7857.35
7854.45
7851.25
7847.02
7841.92
7834.88
7826.48
7817.88
7810.49
7867.67
7867.51
7866.75
7865.54
7864.28
7862.64
7860.82
7858.66
7856.05
7853.25
7849.4
7844.83
7838.28
7830.51
7822.68
7816.03
7867.92
7867.48
7866.82
7865.72
7864.63
7863.21
7861.65
7859.83
7857.57
7855.25
7851.84
7847.92
7841.94
7834.95
7827.9
7821.79
7867.87
7867.04
7866.48
7865.52
7864.61
7863.44
7862.16
7860.72
7858.86
7857.1
7854.2
7851.06
7845.7
7839.7
7833.35
7827.71
7867.4
7866.06
7865.61
7864.79
7864.09
7863.18
7862.21
7861.18
7859.76
7858.61
7856.29
7854.06
7849.43
7844.74
7838.98
7833.88
7866.39
7864.42
7864.08
7863.41
7862.92
7862.27
7861.64
7861.04
7860.11
7859.6
7857.95
7856.72
7852.98
7849.88
7844.84
7840.51
7864.72
7861.97
7861.74
7861.23
7860.97
7860.6
7860.3
7860.12
7859.65
7859.7
7858.68
7858.5
7856.04
7854.77
7850.76
7847.87
7862.23
7858.61
7858.51
7858.13
7858.03
7857.85
7857.82
7858.02
7858.1
7858.84
7858.58
7859.52
7858.34
7858.9
7856.26
7855.88
7858.83
7853.97
7853.99
7853.79
7853.97
7854.13
7854.54
7855.29
7856.05
7857.58
7858.22
7860.22
7860.14
7862.48
7861.38
7864.1
7854.17
7848.4
7848.7
7848.89
7849.57
7850.33
7851.41
7852.84
7854.28
7856.54
7858.06
7861.07
7862.07
7865.93
7866.21
7871.93
7848.51
7843.34
7843.98
7844.63
7845.82
7847.2
7848.93
7851.03
7853.15
7856.01
7858.25
7862.01
7863.9
7868.96
7870.36
7878.34
7843.3
7839.48
7840.4
7841.45
7843.07
7844.91
7847.14
7849.72
7852.37
7855.71
7858.55
7862.86
7865.5
7871.4
7873.74
7883.24
7839.28
7836.88
7837.95
7839.26
7841.16
7843.33
7845.92
7848.84
7851.91
7855.58
7858.9
7863.56
7866.79
7873.18
7876.26
7886.65
7836.55
7835.47
7836.6
7838.06
7840.12
7842.48
7845.29
7848.41
7851.77
7855.62
7859.28
7864.09
7867.76
7874.3
7877.9
7888.57
7835.05
7835.13
7836.27
7837.8
7839.91
7842.35
7845.27
7848.46
7851.97
7855.85
7859.71
7864.48
7868.41
7874.8
7878.7
7889.08
7834.66
7835.78
7836.89
7838.42
7840.52
7842.93
7845.85
7848.99
7852.52
7856.3
7860.21
7864.75
7868.77
7874.73
7878.71
7888.27
7835.3
7837.35
7838.4
7839.86
7841.87
7844.18
7847
7849.99
7853.42
7856.97
7860.8
7864.95
7868.89
7874.14
7877.95
7886.21
7836.88
7839.78
7840.73
7842.07
7843.92
7846.05
7848.68
7851.42
7854.66
7857.88
7861.49
7865.12
7868.8
7873.1
7876.51
7883.04
7839.36
7843.02
7843.84
7845
7846.62
7848.48
7850.84
7853.26
7856.2
7858.99
7862.28
7865.26
7868.51
7871.66
7874.42
7878.89
7842.66
7846.98
7847.64
7848.57
7849.93
7851.45
7853.47
7855.48
7858.04
7860.34
7863.18
7865.42
7868.06
7869.87
7871.78
7873.98
7846.69
7851.49
7852.01
7852.72
7853.79
7854.97
7856.59
7858.14
7860.23
7861.95
7864.24
7865.62
7867.48
7867.8
7868.67
7868.54
7851.28
7856.36
7856.78
7857.3
7858.14
7858.99
7860.23
7861.3
7862.87
7863.95
7865.56
7865.96
7866.84
7865.52
7865.19
7862.85
7856.2
7861.39
7861.76
7862.15
7862.82
7863.44
7864.36
7865.01
7866.06
7866.45
7867.28
7866.58
7866.24
7863.15
7861.53
7857.22
7861.26
7866.37
7866.71
7867.02
7867.59
7868.04
7868.74
7869.11
7869.74
7869.52
7869.52
7867.65
7865.89
7860.95
7857.98
7852.01
7866.25
7871.1
7871.42
7871.69
7872.19
7872.55
7873.15
7873.45
7873.92
7873.27
7872.52
7869.42
7866.05
7859.28
7855.03
7847.64
7870.98
7875.99
7876.33
7876.63
7877.13
7877.46
7877.97
7877.99
7877.84
7876.36
7874.5
7870.25
7865.79
7858.21
7852.98
7844.56
7875.86
7880
7880.18
7880.25
7880.38
7880.18
7879.84
7878.77
7877.42
7874.94
7872.21
7867.73
7863.42
7856.44
7851.6
7842.89
7879.93
7879.45
7879.24
7878.81
7878.24
7877.29
7876.07
7874.26
7872.32
7869.58
7866.83
7862.86
7859.36
7853.64
7849.86
7842.33
7879.52
7875.08
7874.72
7874.1
7873.26
7872.09
7870.71
7868.99
7867.19
7864.7
7862.15
7858.6
7855.35
7850.77
7847.42
7841.99
7875.21
7870.49
7870.15
7869.58
7868.81
7867.76
7866.49
7864.83
7863.04
7860.69
7858.3
7855.17
7852.24
7848.36
7845.01
7841
7870.62
7866.54
7866.16
7865.59
7864.8
7863.76
7862.53
7860.98
7859.3
7857.17
7855
7852.23
7849.6
7846.29
7843.33
7839.72
7866.67
7862.87
7862.51
7861.97
7861.22
7860.26
7859.12
7857.69
7856.13
7854.2
7852.23
7849.8
7847.46
7844.6
7841.99
7838.85
7863
7859.62
7859.25
7858.75
7858.04
7857.15
7856.08
7854.78
7853.36
7851.64
7849.87
7847.74
7845.68
7843.22
7840.96
7838.26
7859.74
7856.69
7856.34
7855.88
7855.23
7854.41
7853.44
7852.27
7850.98
7849.45
7847.87
7846.02
7844.22
7842.1
7840.16
7837.85
7856.8
7854.09
7853.76
7853.34
7852.74
7852
7851.12
7850.07
7848.92
7847.57
7846.18
7844.57
7843
7841.19
7839.53
7837.57
7854.19
7851.77
7851.47
7851.1
7850.54
7849.89
7849.09
7848.16
7847.14
7845.95
7844.73
7843.34
7841.98
7840.44
7839.03
7837.37
7851.86
7849.72
7849.45
7849.11
7848.62
7848.03
7847.32
7846.5
7845.6
7844.56
7843.5
7842.3
7841.13
7839.81
7838.62
7837.22
7849.8
7847.91
7847.66
7847.37
7846.92
7846.4
7845.77
7845.05
7844.26
7843.36
7842.44
7841.4
7840.41
7839.29
7838.28
7837.09
7847.98
7846.31
7846.08
7845.83
7845.43
7844.98
7844.42
7843.79
7843.1
7842.32
7841.52
7840.64
7839.79
7838.84
7837.98
7836.99
7846.38
7844.9
7844.7
7844.47
7844.12
7843.72
7843.24
7842.69
7842.09
7841.42
7840.73
7839.97
7839.25
7838.44
7837.72
7836.88
7844.96
7843.65
7843.47
7843.27
7842.96
7842.62
7842.19
7841.72
7841.2
7840.62
7840.03
7839.39
7838.77
7838.1
7837.49
7836.78
7843.7
7842.55
7842.39
7842.22
7841.95
7841.65
7841.28
7840.87
7840.42
7839.93
7839.42
7838.87
7838.35
7837.78
7837.27
7836.67
7842.59
7841.58
7841.43
7841.29
7841.05
7840.79
7840.47
7840.12
7839.73
7839.31
7838.88
7838.41
7837.97
7837.49
7837.06
7836.55
7841.61
7840.71
7840.59
7840.46
7840.25
7840.03
7839.75
7839.45
7839.12
7838.76
7838.39
7838
7837.62
7837.21
7836.85
7836.42
7840.74
7839.94
7839.83
7839.72
7839.54
7839.35
7839.11
7838.86
7838.57
7838.26
7837.95
7837.62
7837.3
7836.96
7836.65
7836.28
7839.97
7839.26
7839.16
7839.07
7838.91
7838.75
7838.54
7838.32
7838.08
7837.82
7837.55
7837.27
7837
7836.71
7836.45
7836.12
7839.28
7838.65
7838.56
7838.48
7838.35
7838.21
7838.03
7837.84
7837.63
7837.41
7837.18
7836.94
7836.71
7836.47
7836.24
7835.97
7838.66
7838.09
7838.02
7837.95
7837.84
7837.72
7837.56
7837.4
7837.22
7837.03
7836.84
7836.64
7836.44
7836.23
7836.04
7835.8
7838.11
7837.6
7837.53
7837.47
7837.37
7837.27
7837.14
7837
7836.85
7836.69
7836.52
7836.35
7836.18
7836.01
7835.84
7835.62
7837.61
7837.15
7837.09
7837.04
7836.95
7836.87
7836.75
7836.64
7836.5
7836.37
7836.23
7836.08
7835.94
7835.78
7835.64
7835.45
7837.16
7836.74
7836.69
7836.65
7836.57
7836.5
7836.4
7836.3
7836.18
7836.07
7835.94
7835.82
7835.7
7835.57
7835.44
7835.27
7836.75
7836.36
7836.32
7836.28
7836.22
7836.15
7836.07
7835.98
7835.89
7835.78
7835.68
7835.57
7835.47
7835.35
7835.24
7835.08
7836.37
7836.02
7835.98
7835.95
7835.89
7835.84
7835.77
7835.69
7835.61
7835.52
7835.43
7835.33
7835.24
7835.14
7835.04
7834.89
7836.03
7835.7
7835.67
7835.64
7835.59
7835.54
7835.48
7835.42
7835.34
7835.26
7835.19
7835.1
7835.02
7834.94
7834.84
7834.71
7835.71
7835.41
7835.38
7835.36
7835.31
7835.27
7835.22
7835.16
7835.09
7835.03
7834.96
7834.88
7834.81
7834.73
7834.65
7834.52
7835.42
7835.14
7835.11
7835.09
7835.05
7835.02
7834.97
7834.92
7834.86
7834.8
7834.74
7834.67
7834.61
7834.53
7834.45
7834.33
7835.14
7834.89
7834.86
7834.84
7834.81
7834.78
7834.73
7834.69
7834.63
7834.58
7834.52
7834.46
7834.41
7834.34
7834.26
7834.15
7834.89
7834.65
7834.63
7834.61
7834.58
7834.55
7834.51
7834.47
7834.42
7834.37
7834.32
7834.27
7834.21
7834.15
7834.08
7833.96
7834.66
7834.43
7834.41
7834.4
7834.37
7834.34
7834.3
7834.26
7834.22
7834.17
7834.13
7834.08
7834.02
7833.97
7833.9
7833.78
7834.44
7834.23
7834.21
7834.19
7834.17
7834.14
7834.11
7834.07
7834.03
7833.99
7833.94
7833.89
7833.84
7833.79
7833.72
7833.61
7834.23
7834.03
7834.02
7834
7833.98
7833.95
7833.92
7833.89
7833.85
7833.81
7833.76
7833.71
7833.67
7833.61
7833.54
7833.43
7834.04
7833.86
7833.84
7833.83
7833.8
7833.78
7833.75
7833.71
7833.68
7833.64
7833.59
7833.55
7833.5
7833.44
7833.37
7833.26
7833.86
7833.69
7833.68
7833.66
7833.64
7833.62
7833.59
7833.55
7833.52
7833.47
7833.43
7833.38
7833.33
7833.28
7833.21
7833.09
7833.69
7833.53
7833.52
7833.51
7833.49
7833.46
7833.43
7833.4
7833.36
7833.32
7833.28
7833.23
7833.18
7833.12
7833.05
7832.93
7833.54
7833.39
7833.38
7833.37
7833.34
7833.32
7833.29
7833.26
7833.22
7833.18
7833.13
7833.08
7833.03
7832.97
7832.89
7832.77
7833.39
7833.26
7833.25
7833.23
7833.21
7833.19
7833.16
7833.13
7833.09
7833.05
7833
7832.95
7832.89
7832.83
7832.74
7832.62
7833.26
7833.14
7833.13
7833.12
7833.1
7833.07
7833.04
7833.01
7832.97
7832.93
7832.88
7832.82
7832.76
7832.69
7832.6
7832.47
7833.14
7833.03
7833.02
7833.01
7832.99
7832.96
7832.94
7832.9
7832.86
7832.82
7832.77
7832.71
7832.64
7832.57
7832.47
7832.33
7833.04
7832.94
7832.93
7832.91
7832.89
7832.87
7832.84
7832.81
7832.77
7832.72
7832.67
7832.61
7832.54
7832.46
7832.35
7832.2
7832.94
7832.85
7832.84
7832.83
7832.81
7832.79
7832.76
7832.72
7832.68
7832.64
7832.58
7832.52
7832.45
7832.36
7832.25
7832.08
7832.85
7832.78
7832.77
7832.75
7832.74
7832.71
7832.69
7832.65
7832.61
7832.57
7832.52
7832.45
7832.38
7832.28
7832.16
7831.97
7832.78
7832.71
7832.7
7832.69
7832.68
7832.65
7832.63
7832.6
7832.56
7832.52
7832.46
7832.4
7832.32
7832.23
7832.09
7831.88
7832.72
7832.66
7832.65
7832.64
7832.63
7832.61
7832.58
7832.55
7832.52
7832.48
7832.43
7832.37
7832.3
7832.21
7832.07
7831.85
7832.66
7832.61
7832.6
7832.59
7832.58
7832.56
7832.54
7832.52
7832.49
7832.45
7832.41
7832.36
7832.31
7832.23
7832.13
7831.97
7832.61
7832.59
7832.58
7832.57
7832.56
7832.55
7832.53
7832.5
7832.48
7832.45
7832.41
7832.37
7832.32
7832.27
7832.21
7832.09
7832.59
7832.59
7832.58
7832.57
7832.56
7832.55
7832.53
7832.5
7832.48
7832.45
7832.41
7832.37
7832.32
7832.27
7832.21
7832.09
7832.59
)
;

boundaryField
{
    wireUpstream
    {
        type            calculated;
        value           nonuniform List<scalar> 
16
(
7832.56
7832.56
7832.55
7832.54
7832.53
7832.51
7832.49
7832.47
7832.44
7832.41
7832.37
7832.34
7832.3
7832.27
7832.25
7832.56
)
;
    }
    wireDownstream
    {
        type            calculated;
        value           nonuniform List<scalar> 
16
(
7860.76
7859.7
7858.18
7856.39
7854.2
7851.76
7848.88
7845.51
7841.85
7837.31
7832.16
7824.9
7817.15
7808.62
7803.04
7861.25
)
;
    }
    wireTopContact
    {
        type            calculated;
        value           nonuniform List<scalar> 
122
(
7802.55
7802.54
7802.55
7802.55
7802.56
7802.56
7802.55
7802.54
7802.53
7802.51
7802.49
7802.47
7802.44
7802.41
7802.38
7802.34
7802.3
7802.26
7802.21
7802.15
7802.1
7802.04
7801.97
7801.89
7801.81
7801.73
7801.63
7801.53
7801.41
7801.29
7801.16
7801.03
7800.88
7800.74
7800.6
7800.47
7800.36
7800.28
7800.25
7800.3
7800.45
7800.77
7801.33
7802.4
7805.13
7810.48
7816.13
7822.05
7828.12
7834.28
7840.73
7847.74
7855.33
7863.25
7870.98
7877.22
7882.03
7885.45
7887.43
7888.03
7887.34
7885.4
7882.38
7878.38
7873.64
7868.41
7862.96
7857.61
7852.71
7848.64
7845.76
7844.12
7843.25
7842.06
7840.87
7839.69
7838.83
7838.23
7837.81
7837.52
7837.31
7837.16
7837.03
7836.93
7836.83
7836.72
7836.62
7836.5
7836.37
7836.23
7836.09
7835.93
7835.77
7835.6
7835.42
7835.24
7835.06
7834.87
7834.69
7834.5
7834.32
7834.13
7833.95
7833.77
7833.59
7833.42
7833.25
7833.08
7832.92
7832.76
7832.61
7832.47
7832.33
7832.2
7832.08
7831.97
7831.89
7831.85
7831.95
7832.04
7832.04
7802.53
)
;
    }
    front
    {
        type            wedge;
    }
    back
    {
        type            wedge;
    }
}


// ************************************************************************* //
