/*--------------------------------*- C++ -*----------------------------------*\
| =========                 |                                                 |
| \\      /  F ield         | foam-extend: Open Source CFD                    |
|  \\    /   O peration     | Version:     4.1-20200408                       |
|   \\  /    A nd           | Web:         http://www.foam-extend.org         |
|    \\/     M anipulation  |                                                 |
\*---------------------------------------------------------------------------*/
FoamFile
{
    version     2.0;
    format      ascii;
    class       volScalarField;
    location    "0.0105000";
    object      ccx;
}
// * * * * * * * * * * * * * * * * * * * * * * * * * * * * * * * * * * * * * //

dimensions      [0 1 0 0 0 0 0];

internalField   nonuniform List<scalar> 
1952
(
0.00297287
0.00297286
0.00297286
0.00297285
0.00297285
0.00297284
0.00297283
0.00297282
0.00297281
0.00297279
0.00297278
0.00297276
0.00297274
0.00297272
0.00297269
0.00297287
0.00292072
0.00292072
0.00292071
0.0029207
0.00292069
0.00292067
0.00292065
0.00292063
0.0029206
0.00292058
0.00292054
0.00292051
0.00292047
0.00292042
0.00292038
0.00292073
0.00287071
0.0028707
0.00287069
0.00287069
0.00287067
0.00287066
0.00287064
0.00287061
0.00287059
0.00287056
0.00287053
0.00287049
0.00287045
0.00287041
0.00287037
0.00287071
0.00282069
0.00282069
0.00282068
0.00282067
0.00282066
0.00282064
0.00282062
0.0028206
0.00282057
0.00282054
0.00282051
0.00282048
0.00282044
0.00282041
0.00282037
0.0028207
0.00277068
0.00277067
0.00277066
0.00277065
0.00277064
0.00277062
0.0027706
0.00277058
0.00277056
0.00277053
0.0027705
0.00277047
0.00277043
0.0027704
0.00277037
0.00277068
0.00272066
0.00272066
0.00272065
0.00272064
0.00272063
0.00272061
0.00272059
0.00272057
0.00272055
0.00272052
0.00272049
0.00272046
0.00272043
0.00272039
0.00272036
0.00272067
0.00267065
0.00267064
0.00267064
0.00267063
0.00267061
0.0026706
0.00267058
0.00267056
0.00267053
0.00267051
0.00267048
0.00267045
0.00267042
0.00267039
0.00267036
0.00267065
0.00262064
0.00262063
0.00262062
0.00262061
0.0026206
0.00262058
0.00262056
0.00262054
0.00262052
0.0026205
0.00262047
0.00262044
0.00262041
0.00262038
0.00262036
0.00262064
0.00257062
0.00257062
0.00257061
0.0025706
0.00257059
0.00257057
0.00257055
0.00257053
0.00257051
0.00257049
0.00257046
0.00257044
0.00257041
0.00257038
0.00257036
0.00257062
0.00252061
0.00252061
0.0025206
0.00252059
0.00252058
0.00252057
0.00252055
0.00252053
0.00252051
0.00252048
0.00252046
0.00252043
0.00252041
0.00252038
0.00252036
0.00252061
0.0024706
0.0024706
0.00247059
0.00247058
0.00247057
0.00247056
0.00247054
0.00247052
0.0024705
0.00247048
0.00247045
0.00247043
0.0024704
0.00247038
0.00247036
0.0024706
0.0024206
0.00242059
0.00242059
0.00242058
0.00242057
0.00242055
0.00242054
0.00242052
0.0024205
0.00242048
0.00242045
0.00242043
0.0024204
0.00242038
0.00242036
0.0024206
0.00237059
0.00237059
0.00237058
0.00237057
0.00237056
0.00237055
0.00237054
0.00237052
0.0023705
0.00237047
0.00237045
0.00237043
0.0023704
0.00237038
0.00237036
0.0023706
0.00232059
0.00232059
0.00232058
0.00232057
0.00232056
0.00232055
0.00232053
0.00232052
0.0023205
0.00232048
0.00232045
0.00232043
0.00232041
0.00232038
0.00232036
0.00232059
0.00227059
0.00227059
0.00227058
0.00227057
0.00227056
0.00227055
0.00227053
0.00227052
0.0022705
0.00227048
0.00227046
0.00227043
0.00227041
0.00227039
0.00227036
0.00227059
0.00222059
0.00222059
0.00222058
0.00222057
0.00222056
0.00222055
0.00222054
0.00222052
0.0022205
0.00222048
0.00222046
0.00222044
0.00222041
0.00222039
0.00222037
0.0022206
0.0021706
0.0021706
0.00217059
0.00217058
0.00217057
0.00217056
0.00217054
0.00217052
0.0021705
0.00217048
0.00217046
0.00217044
0.00217042
0.0021704
0.00217037
0.0021706
0.0021206
0.0021206
0.00212059
0.00212059
0.00212058
0.00212056
0.00212055
0.00212053
0.00212051
0.00212049
0.00212047
0.00212045
0.00212042
0.0021204
0.00212038
0.0021206
0.00207061
0.00207061
0.0020706
0.00207059
0.00207058
0.00207057
0.00207055
0.00207054
0.00207052
0.0020705
0.00207048
0.00207045
0.00207043
0.00207041
0.00207039
0.00207061
0.00202062
0.00202062
0.00202061
0.0020206
0.00202059
0.00202058
0.00202056
0.00202055
0.00202053
0.00202051
0.00202049
0.00202046
0.00202044
0.00202042
0.0020204
0.00202062
0.00197063
0.00197063
0.00197062
0.00197061
0.0019706
0.00197059
0.00197058
0.00197056
0.00197054
0.00197052
0.0019705
0.00197048
0.00197045
0.00197043
0.00197041
0.00197063
0.00192065
0.00192064
0.00192064
0.00192063
0.00192062
0.00192061
0.00192059
0.00192057
0.00192055
0.00192053
0.00192051
0.00192049
0.00192047
0.00192045
0.00192042
0.00192065
0.00187066
0.00187066
0.00187065
0.00187064
0.00187063
0.00187062
0.00187061
0.00187059
0.00187057
0.00187055
0.00187053
0.00187051
0.00187048
0.00187046
0.00187044
0.00187066
0.00182068
0.00182067
0.00182067
0.00182066
0.00182065
0.00182064
0.00182062
0.0018206
0.00182059
0.00182057
0.00182054
0.00182052
0.0018205
0.00182048
0.00182046
0.00182068
0.0017707
0.00177069
0.00177069
0.00177068
0.00177067
0.00177065
0.00177064
0.00177062
0.0017706
0.00177058
0.00177056
0.00177054
0.00177052
0.00177049
0.00177047
0.0017707
0.00172072
0.00172071
0.00172071
0.0017207
0.00172069
0.00172067
0.00172066
0.00172064
0.00172062
0.0017206
0.00172058
0.00172056
0.00172053
0.00172051
0.00172049
0.00172072
0.00167074
0.00167074
0.00167073
0.00167072
0.00167071
0.0016707
0.00167068
0.00167066
0.00167064
0.00167062
0.0016706
0.00167058
0.00167055
0.00167053
0.00167051
0.00167075
0.00162077
0.00162077
0.00162076
0.00162075
0.00162074
0.00162072
0.00162071
0.00162069
0.00162067
0.00162065
0.00162062
0.0016206
0.00162058
0.00162055
0.00162053
0.00162077
0.0015708
0.00157079
0.00157079
0.00157078
0.00157076
0.00157075
0.00157073
0.00157071
0.00157069
0.00157067
0.00157065
0.00157062
0.0015706
0.00157058
0.00157055
0.0015708
0.00152083
0.00152082
0.00152082
0.0015208
0.00152079
0.00152077
0.00152076
0.00152074
0.00152072
0.00152069
0.00152067
0.00152065
0.00152062
0.0015206
0.00152058
0.00152083
0.00147086
0.00147086
0.00147085
0.00147084
0.00147082
0.0014708
0.00147078
0.00147076
0.00147074
0.00147072
0.0014707
0.00147067
0.00147065
0.00147062
0.0014706
0.00147086
0.0014209
0.00142089
0.00142088
0.00142087
0.00142086
0.00142084
0.00142082
0.0014208
0.00142077
0.00142075
0.00142072
0.0014207
0.00142067
0.00142065
0.00142063
0.0014209
0.00137093
0.00137093
0.00137092
0.00137091
0.00137089
0.00137087
0.00137085
0.00137083
0.00137081
0.00137078
0.00137075
0.00137073
0.0013707
0.00137068
0.00137065
0.00137094
0.00132097
0.00132097
0.00132096
0.00132094
0.00132093
0.00132091
0.00132089
0.00132087
0.00132084
0.00132081
0.00132079
0.00132076
0.00132073
0.0013207
0.00132068
0.00132098
0.00127102
0.00127101
0.001271
0.00127099
0.00127097
0.00127095
0.00127093
0.0012709
0.00127087
0.00127085
0.00127082
0.00127079
0.00127076
0.00127073
0.00127071
0.00127102
0.00122107
0.00122106
0.00122105
0.00122103
0.00122101
0.00122099
0.00122096
0.00122094
0.00122091
0.00122088
0.00122085
0.00122082
0.00122079
0.00122076
0.00122073
0.00122107
0.00117111
0.00117111
0.00117109
0.00117108
0.00117106
0.00117103
0.00117101
0.00117098
0.00117094
0.00117091
0.00117088
0.00117085
0.00117082
0.00117079
0.00117076
0.00117112
0.00112117
0.00112116
0.00112114
0.00112112
0.0011211
0.00112108
0.00112105
0.00112102
0.00112099
0.00112095
0.00112092
0.00112088
0.00112085
0.00112081
0.00112079
0.00112117
0.00107122
0.00107121
0.0010712
0.00107118
0.00107116
0.00107113
0.0010711
0.00107107
0.00107103
0.00107099
0.00107095
0.00107091
0.00107087
0.00107084
0.00107081
0.00107123
0.00102128
0.00102127
0.00102126
0.00102124
0.00102121
0.00102118
0.00102115
0.00102111
0.00102107
0.00102103
0.00102099
0.00102095
0.00102091
0.00102087
0.00102084
0.00102128
0.000971342
0.000971331
0.000971315
0.000971293
0.000971267
0.000971236
0.0009712
0.00097116
0.000971118
0.000971072
0.000971026
0.00097098
0.000970936
0.000970896
0.000970862
0.000971348
0.000921406
0.000921394
0.000921377
0.000921354
0.000921326
0.000921292
0.000921254
0.000921211
0.000921165
0.000921116
0.000921065
0.000921015
0.000920966
0.000920921
0.000920884
0.000921412
0.000871472
0.000871459
0.000871441
0.000871417
0.000871387
0.000871352
0.00087131
0.000871265
0.000871215
0.000871161
0.000871105
0.00087105
0.000870995
0.000870946
0.000870903
0.000871478
0.000821539
0.000821526
0.000821507
0.000821482
0.00082145
0.000821413
0.000821369
0.00082132
0.000821266
0.000821208
0.000821147
0.000821085
0.000821025
0.000820969
0.00082092
0.000821545
0.000771606
0.000771593
0.000771573
0.000771547
0.000771515
0.000771475
0.000771429
0.000771377
0.000771319
0.000771256
0.00077119
0.000771122
0.000771054
0.00077099
0.000770934
0.000771613
0.000721672
0.000721659
0.000721639
0.000721612
0.000721579
0.000721538
0.00072149
0.000721435
0.000721374
0.000721306
0.000721234
0.000721159
0.000721082
0.00072101
0.000720944
0.000721679
0.000671736
0.000671723
0.000671703
0.000671676
0.000671642
0.0006716
0.000671551
0.000671494
0.000671429
0.000671357
0.000671279
0.000671196
0.000671111
0.000671027
0.00067095
0.000671743
0.000621795
0.000621782
0.000621763
0.000621736
0.000621701
0.00062166
0.00062161
0.000621551
0.000621484
0.000621409
0.000621325
0.000621235
0.000621139
0.000621043
0.000620951
0.000621802
0.000571848
0.000571836
0.000571816
0.00057179
0.000571757
0.000571715
0.000571665
0.000571606
0.000571537
0.000571459
0.000571371
0.000571274
0.000571168
0.000571057
0.000570948
0.000571854
0.000521891
0.000521879
0.000521861
0.000521836
0.000521804
0.000521763
0.000521715
0.000521656
0.000521587
0.000521507
0.000521416
0.000521312
0.000521197
0.000521071
0.00052094
0.000521897
0.000471922
0.000471911
0.000471894
0.000471871
0.00047184
0.000471802
0.000471755
0.000471698
0.000471631
0.00047155
0.000471456
0.000471348
0.000471224
0.000471082
0.000470927
0.000471927
0.000421938
0.000421928
0.000421912
0.000421891
0.000421863
0.000421827
0.000421783
0.000421729
0.000421663
0.000421585
0.000421491
0.000421379
0.000421247
0.000421091
0.000420912
0.000421943
0.000371937
0.000371928
0.000371914
0.000371895
0.00037187
0.000371837
0.000371795
0.000371745
0.000371683
0.000371607
0.000371514
0.000371402
0.000371264
0.000371096
0.000370893
0.000371942
0.000321917
0.000321909
0.000321896
0.000321879
0.000321856
0.000321827
0.000321789
0.000321743
0.000321685
0.000321613
0.000321523
0.000321412
0.000321272
0.000321095
0.000320873
0.000321921
0.000271875
0.000271868
0.000271857
0.000271841
0.000271821
0.000271794
0.000271761
0.000271718
0.000271666
0.000271599
0.000271514
0.000271406
0.000271268
0.000271087
0.000270853
0.000271879
0.000221812
0.000221805
0.000221795
0.000221781
0.000221763
0.000221739
0.000221709
0.00022167
0.000221622
0.000221561
0.000221482
0.000221381
0.000221249
0.000221071
0.000220834
0.000221815
0.000171727
0.000171721
0.000171712
0.000171699
0.000171681
0.000171659
0.000171631
0.000171596
0.000171552
0.000171497
0.000171426
0.000171334
0.000171212
0.000171046
0.000170817
0.000171731
0.000121623
0.000121617
0.000121607
0.000121595
0.000121578
0.000121557
0.00012153
0.000121498
0.000121457
0.000121407
0.000121344
0.000121263
0.000121156
0.000121009
0.000120803
0.000121626
7.15006e-05
7.14942e-05
7.14846e-05
7.14715e-05
7.14548e-05
7.14338e-05
7.14082e-05
7.13769e-05
7.13392e-05
7.12936e-05
7.12379e-05
7.11689e-05
7.10801e-05
7.09598e-05
7.07932e-05
7.15038e-05
2.13641e-05
2.13574e-05
2.13471e-05
2.13334e-05
2.13161e-05
2.12949e-05
2.12692e-05
2.12389e-05
2.12029e-05
2.1161e-05
2.1112e-05
2.10552e-05
2.09867e-05
2.08984e-05
2.07844e-05
2.13675e-05
-2.87825e-05
-2.87897e-05
-2.88007e-05
-2.88151e-05
-2.88332e-05
-2.8855e-05
-2.88805e-05
-2.89105e-05
-2.89445e-05
-2.89829e-05
-2.90243e-05
-2.90672e-05
-2.91134e-05
-2.9167e-05
-2.92243e-05
-2.87788e-05
-7.89352e-05
-7.89427e-05
-7.89543e-05
-7.89695e-05
-7.89884e-05
-7.90104e-05
-7.90356e-05
-7.90639e-05
-7.9095e-05
-7.91268e-05
-7.91572e-05
-7.91837e-05
-7.92068e-05
-7.92276e-05
-7.9235e-05
-7.89314e-05
-0.00012909
-0.000129097
-0.000129109
-0.000129125
-0.000129143
-0.000129164
-0.000129187
-0.000129212
-0.000129236
-0.000129258
-0.000129275
-0.000129285
-0.000129288
-0.000129282
-0.000129251
-0.000129086
-0.00017924
-0.000179247
-0.000179258
-0.000179272
-0.000179288
-0.000179307
-0.000179325
-0.000179343
-0.000179358
-0.000179369
-0.000179374
-0.000179371
-0.000179359
-0.00017933
-0.000179272
-0.000179236
-0.000229377
-0.000229383
-0.000229392
-0.000229403
-0.000229416
-0.00022943
-0.000229443
-0.000229454
-0.000229461
-0.000229464
-0.00022946
-0.000229446
-0.000229419
-0.000229373
-0.000229295
-0.000229374
-0.000279497
-0.000279502
-0.000279509
-0.000279517
-0.000279526
-0.000279535
-0.000279543
-0.000279549
-0.00027955
-0.000279545
-0.000279533
-0.000279509
-0.000279471
-0.000279411
-0.000279321
-0.000279495
-0.000329602
-0.000329605
-0.00032961
-0.000329616
-0.000329621
-0.000329626
-0.000329629
-0.000329629
-0.000329625
-0.000329613
-0.000329593
-0.000329561
-0.000329513
-0.000329444
-0.000329346
-0.0003296
-0.000379692
-0.000379694
-0.000379697
-0.0003797
-0.000379702
-0.000379703
-0.000379702
-0.000379697
-0.000379686
-0.000379668
-0.000379641
-0.000379602
-0.000379547
-0.000379471
-0.000379371
-0.000379691
-0.000429767
-0.000429768
-0.000429769
-0.000429769
-0.000429768
-0.000429766
-0.00042976
-0.00042975
-0.000429734
-0.00042971
-0.000429678
-0.000429633
-0.000429573
-0.000429495
-0.000429394
-0.000429767
-0.000479828
-0.000479827
-0.000479826
-0.000479824
-0.00047982
-0.000479814
-0.000479804
-0.00047979
-0.00047977
-0.000479741
-0.000479704
-0.000479656
-0.000479593
-0.000479513
-0.000479414
-0.000479828
-0.000529873
-0.000529872
-0.000529869
-0.000529865
-0.000529858
-0.000529849
-0.000529835
-0.000529818
-0.000529794
-0.000529762
-0.000529721
-0.00052967
-0.000529605
-0.000529526
-0.000529429
-0.000529874
-0.000579905
-0.000579902
-0.000579898
-0.000579892
-0.000579883
-0.000579871
-0.000579855
-0.000579834
-0.000579807
-0.000579772
-0.000579729
-0.000579676
-0.000579612
-0.000579534
-0.000579441
-0.000579906
-0.000629923
-0.000629919
-0.000629914
-0.000629906
-0.000629895
-0.000629881
-0.000629862
-0.000629839
-0.000629809
-0.000629773
-0.000629729
-0.000629676
-0.000629612
-0.000629536
-0.000629448
-0.000629925
-0.000679929
-0.000679925
-0.000679918
-0.000679909
-0.000679896
-0.00067988
-0.000679859
-0.000679834
-0.000679803
-0.000679766
-0.000679721
-0.000679668
-0.000679606
-0.000679534
-0.000679451
-0.000679931
-0.000729923
-0.000729918
-0.000729911
-0.0007299
-0.000729886
-0.000729869
-0.000729847
-0.000729821
-0.000729789
-0.000729751
-0.000729707
-0.000729654
-0.000729594
-0.000729526
-0.000729448
-0.000729925
-0.000779907
-0.000779901
-0.000779893
-0.000779882
-0.000779867
-0.000779849
-0.000779827
-0.0007798
-0.000779767
-0.000779729
-0.000779685
-0.000779635
-0.000779577
-0.000779512
-0.000779439
-0.000779909
-0.000829881
-0.000829875
-0.000829866
-0.000829855
-0.00082984
-0.000829821
-0.000829798
-0.000829771
-0.000829738
-0.000829701
-0.000829658
-0.000829609
-0.000829555
-0.000829493
-0.000829425
-0.000829884
-0.000879847
-0.000879841
-0.000879832
-0.000879819
-0.000879804
-0.000879785
-0.000879762
-0.000879735
-0.000879703
-0.000879667
-0.000879625
-0.000879579
-0.000879527
-0.000879469
-0.000879406
-0.00087985
-0.000929804
-0.000929799
-0.000929789
-0.000929777
-0.000929761
-0.000929742
-0.00092972
-0.000929693
-0.000929662
-0.000929627
-0.000929587
-0.000929542
-0.000929494
-0.00092944
-0.000929381
-0.000929808
-0.000979756
-0.000979751
-0.000979741
-0.000979728
-0.000979712
-0.000979695
-0.000979671
-0.000979646
-0.000979615
-0.000979581
-0.000979544
-0.000979502
-0.000979456
-0.000979405
-0.000979352
-0.000979758
-0.0010297
-0.0010297
-0.00102969
-0.00102967
-0.00102966
-0.00102964
-0.00102962
-0.00102959
-0.00102956
-0.00102953
-0.0010295
-0.00102946
-0.00102941
-0.00102937
-0.00102932
-0.0010297
-0.00107964
-0.00107963
-0.00107963
-0.00107961
-0.0010796
-0.00107958
-0.00107956
-0.00107954
-0.00107951
-0.00107948
-0.00107944
-0.00107941
-0.00107937
-0.00107932
-0.00107928
-0.00107964
-0.00112957
-0.00112957
-0.00112956
-0.00112955
-0.00112953
-0.00112952
-0.0011295
-0.00112947
-0.00112945
-0.00112942
-0.00112939
-0.00112935
-0.00112932
-0.00112928
-0.00112923
-0.00112958
-0.0011795
-0.0011795
-0.00117949
-0.00117948
-0.00117947
-0.00117945
-0.00117943
-0.00117941
-0.00117938
-0.00117936
-0.00117933
-0.0011793
-0.00117926
-0.00117922
-0.00117918
-0.00117951
-0.00122943
-0.00122942
-0.00122942
-0.00122941
-0.00122939
-0.00122938
-0.00122936
-0.00122934
-0.00122932
-0.00122929
-0.00122926
-0.00122923
-0.0012292
-0.00122916
-0.00122913
-0.00122943
-0.00127935
-0.00127935
-0.00127934
-0.00127933
-0.00127932
-0.0012793
-0.00127928
-0.00127927
-0.00127924
-0.00127922
-0.00127919
-0.00127916
-0.00127914
-0.0012791
-0.00127907
-0.00127935
-0.00132927
-0.00132926
-0.00132926
-0.00132925
-0.00132924
-0.00132922
-0.00132921
-0.00132919
-0.00132917
-0.00132915
-0.00132912
-0.00132909
-0.00132907
-0.00132904
-0.001329
-0.00132927
-0.00137918
-0.00137918
-0.00137917
-0.00137917
-0.00137915
-0.00137914
-0.00137913
-0.00137911
-0.00137909
-0.00137907
-0.00137905
-0.00137902
-0.00137899
-0.00137897
-0.00137894
-0.00137919
-0.0014291
-0.00142909
-0.00142909
-0.00142908
-0.00142907
-0.00142905
-0.00142904
-0.00142903
-0.00142901
-0.00142899
-0.00142897
-0.00142894
-0.00142892
-0.00142889
-0.00142887
-0.0014291
-0.00147901
-0.001479
-0.001479
-0.00147899
-0.00147898
-0.00147897
-0.00147895
-0.00147894
-0.00147892
-0.00147891
-0.00147889
-0.00147886
-0.00147884
-0.00147882
-0.00147879
-0.00147901
-0.00152891
-0.00152891
-0.0015289
-0.0015289
-0.00152889
-0.00152888
-0.00152886
-0.00152885
-0.00152884
-0.00152882
-0.0015288
-0.00152878
-0.00152876
-0.00152874
-0.00152871
-0.00152892
-0.00157882
-0.00157881
-0.00157881
-0.0015788
-0.0015788
-0.00157878
-0.00157877
-0.00157876
-0.00157875
-0.00157873
-0.00157872
-0.0015787
-0.00157868
-0.00157865
-0.00157863
-0.00157882
-0.00162872
-0.00162872
-0.00162871
-0.00162871
-0.0016287
-0.00162869
-0.00162868
-0.00162867
-0.00162865
-0.00162864
-0.00162862
-0.00162861
-0.00162859
-0.00162857
-0.00162855
-0.00162872
-0.00167862
-0.00167861
-0.00167861
-0.00167861
-0.0016786
-0.00167859
-0.00167858
-0.00167857
-0.00167856
-0.00167854
-0.00167853
-0.00167851
-0.0016785
-0.00167848
-0.00167846
-0.00167862
-0.00172852
-0.00172851
-0.00172851
-0.00172851
-0.0017285
-0.00172849
-0.00172849
-0.00172847
-0.00172846
-0.00172845
-0.00172843
-0.00172842
-0.0017284
-0.00172839
-0.00172837
-0.00172852
-0.00177841
-0.00177841
-0.00177841
-0.0017784
-0.0017784
-0.00177839
-0.00177838
-0.00177837
-0.00177836
-0.00177835
-0.00177834
-0.00177832
-0.00177831
-0.00177829
-0.00177827
-0.00177842
-0.00182831
-0.00182831
-0.0018283
-0.0018283
-0.00182829
-0.00182828
-0.00182828
-0.00182827
-0.00182826
-0.00182825
-0.00182824
-0.00182822
-0.00182821
-0.00182819
-0.00182818
-0.00182831
-0.0018782
-0.0018782
-0.00187819
-0.00187819
-0.00187818
-0.00187818
-0.00187817
-0.00187816
-0.00187815
-0.00187814
-0.00187813
-0.00187812
-0.00187811
-0.00187809
-0.00187808
-0.0018782
-0.00192809
-0.00192809
-0.00192808
-0.00192808
-0.00192808
-0.00192807
-0.00192806
-0.00192805
-0.00192805
-0.00192804
-0.00192803
-0.00192802
-0.001928
-0.00192799
-0.00192797
-0.00192809
-0.00197798
-0.00197797
-0.00197797
-0.00197797
-0.00197796
-0.00197796
-0.00197795
-0.00197794
-0.00197794
-0.00197793
-0.00197792
-0.00197791
-0.0019779
-0.00197788
-0.00197787
-0.00197798
-0.00202786
-0.00202786
-0.00202786
-0.00202785
-0.00202785
-0.00202784
-0.00202784
-0.00202783
-0.00202783
-0.00202782
-0.00202781
-0.0020278
-0.00202779
-0.00202778
-0.00202776
-0.00202786
-0.00207774
-0.00207774
-0.00207774
-0.00207774
-0.00207773
-0.00207773
-0.00207772
-0.00207772
-0.00207771
-0.00207771
-0.0020777
-0.00207769
-0.00207768
-0.00207767
-0.00207766
-0.00207774
-0.00212762
-0.00212762
-0.00212762
-0.00212762
-0.00212762
-0.00212761
-0.00212761
-0.0021276
-0.0021276
-0.00212759
-0.00212758
-0.00212758
-0.00212757
-0.00212756
-0.00212754
-0.00212763
-0.0021775
-0.0021775
-0.0021775
-0.0021775
-0.0021775
-0.00217749
-0.00217749
-0.00217749
-0.00217748
-0.00217748
-0.00217747
-0.00217746
-0.00217745
-0.00217744
-0.00217743
-0.00217751
-0.00222738
-0.00222738
-0.00222738
-0.00222738
-0.00222738
-0.00222737
-0.00222737
-0.00222737
-0.00222736
-0.00222736
-0.00222735
-0.00222734
-0.00222734
-0.00222733
-0.00222731
-0.00222738
-0.00227726
-0.00227726
-0.00227726
-0.00227726
-0.00227725
-0.00227725
-0.00227725
-0.00227724
-0.00227724
-0.00227724
-0.00227723
-0.00227722
-0.00227722
-0.00227721
-0.0022772
-0.00227726
-0.00232714
-0.00232714
-0.00232713
-0.00232713
-0.00232713
-0.00232713
-0.00232712
-0.00232712
-0.00232712
-0.00232711
-0.00232711
-0.0023271
-0.0023271
-0.00232709
-0.00232708
-0.00232714
-0.00237701
-0.00237701
-0.00237701
-0.00237701
-0.002377
-0.002377
-0.002377
-0.002377
-0.00237699
-0.00237699
-0.00237698
-0.00237698
-0.00237697
-0.00237697
-0.00237696
-0.00237701
-0.00242688
-0.00242688
-0.00242688
-0.00242688
-0.00242688
-0.00242688
-0.00242687
-0.00242687
-0.00242687
-0.00242686
-0.00242686
-0.00242685
-0.00242685
-0.00242684
-0.00242683
-0.00242688
-0.00247675
-0.00247675
-0.00247675
-0.00247675
-0.00247675
-0.00247675
-0.00247674
-0.00247674
-0.00247674
-0.00247674
-0.00247673
-0.00247673
-0.00247672
-0.00247671
-0.00247671
-0.00247675
-0.00252662
-0.00252662
-0.00252662
-0.00252662
-0.00252662
-0.00252661
-0.00252661
-0.00252661
-0.00252661
-0.00252661
-0.0025266
-0.0025266
-0.00252659
-0.00252659
-0.00252658
-0.00252662
-0.00257648
-0.00257648
-0.00257648
-0.00257648
-0.00257648
-0.00257648
-0.00257648
-0.00257648
-0.00257648
-0.00257647
-0.00257647
-0.00257647
-0.00257646
-0.00257646
-0.00257645
-0.00257648
-0.00262635
-0.00262635
-0.00262635
-0.00262635
-0.00262635
-0.00262635
-0.00262634
-0.00262634
-0.00262634
-0.00262634
-0.00262634
-0.00262634
-0.00262633
-0.00262633
-0.00262632
-0.00262635
-0.00267621
-0.00267621
-0.00267621
-0.00267621
-0.00267621
-0.00267621
-0.00267621
-0.00267621
-0.00267621
-0.00267621
-0.0026762
-0.0026762
-0.0026762
-0.00267619
-0.00267619
-0.00267621
-0.00272607
-0.00272607
-0.00272607
-0.00272607
-0.00272607
-0.00272607
-0.00272607
-0.00272607
-0.00272607
-0.00272607
-0.00272607
-0.00272607
-0.00272606
-0.00272606
-0.00272605
-0.00272607
-0.00277593
-0.00277593
-0.00277593
-0.00277593
-0.00277593
-0.00277593
-0.00277593
-0.00277593
-0.00277593
-0.00277593
-0.00277593
-0.00277593
-0.00277593
-0.00277592
-0.00277592
-0.00277593
-0.00282579
-0.00282579
-0.00282579
-0.00282579
-0.00282579
-0.00282579
-0.00282579
-0.00282579
-0.00282579
-0.00282579
-0.00282579
-0.00282579
-0.00282579
-0.00282578
-0.00282578
-0.00282579
-0.00287565
-0.00287565
-0.00287565
-0.00287565
-0.00287565
-0.00287565
-0.00287565
-0.00287565
-0.00287565
-0.00287565
-0.00287565
-0.00287565
-0.00287565
-0.00287565
-0.00287564
-0.00287565
-0.00292551
-0.0029255
-0.00292551
-0.00292551
-0.00292551
-0.00292551
-0.00292551
-0.0029255
-0.00292551
-0.00292551
-0.00292551
-0.00292551
-0.00292551
-0.0029255
-0.0029255
-0.00292551
-0.00297536
-0.00297536
-0.00297536
-0.00297536
-0.00297536
-0.00297536
-0.00297536
-0.00297536
-0.00297536
-0.00297536
-0.00297536
-0.00297536
-0.00297536
-0.00297536
-0.00297536
-0.00297536
-0.00302522
-0.00302522
-0.00302522
-0.00302522
-0.00302522
-0.00302522
-0.00302522
-0.00302522
-0.00302522
-0.00302522
-0.00302522
-0.00302522
-0.00302522
-0.00302522
-0.00302522
-0.00302522
-0.00307507
-0.00307508
-0.00307507
-0.00307507
-0.00307508
-0.00307507
-0.00307508
-0.00307507
-0.00307507
-0.00307507
-0.00307508
-0.00307508
-0.00307507
-0.00307508
-0.00307507
-0.00307507
)
;

boundaryField
{
    wireUpstream
    {
        type            calculated;
        value           nonuniform List<scalar> 
16
(
-0.0031
-0.0031
-0.0031
-0.0031
-0.0031
-0.0031
-0.0031
-0.0031
-0.0031
-0.0031
-0.0031
-0.0031
-0.0031
-0.0031
-0.0031
-0.0031
)
;
    }
    wireDownstream
    {
        type            calculated;
        value           nonuniform List<scalar> 
16
(
0.003
0.003
0.003
0.003
0.003
0.003
0.003
0.003
0.003
0.003
0.003
0.003
0.003
0.003
0.003
0.003
)
;
    }
    wireTopContact
    {
        type            calculated;
        value           nonuniform List<scalar> 
122
(
0.00292036
0.00287036
0.00282035
0.00277035
0.00272035
0.00267035
0.00262035
0.00257035
0.00252035
0.00247035
0.00242035
0.00237035
0.00232035
0.00227035
0.00222036
0.00217036
0.00212037
0.00207038
0.00202039
0.0019704
0.00192041
0.00187043
0.00182045
0.00177046
0.00172048
0.0016705
0.00162052
0.00157054
0.00152057
0.00147059
0.00142062
0.00137064
0.00132067
0.00127069
0.00122072
0.00117075
0.00112077
0.0010708
0.00102082
0.000970848
0.000920867
0.000870884
0.000820898
0.000770908
0.000720914
0.000670914
0.000620908
0.000570895
0.000520875
0.000470848
0.000420817
0.000370783
0.000320751
0.000270721
0.000220698
0.000170684
0.000120682
7.06951e-05
2.07203e-05
-2.92516e-05
-7.92319e-05
-0.000129226
-0.000179232
-0.000229247
-0.000279267
-0.00032929
-0.000379314
-0.000429337
-0.000479359
-0.000529377
-0.000579391
-0.000629401
-0.000679406
-0.000729406
-0.000779401
-0.00082939
-0.000879373
-0.000929351
-0.000979324
-0.00102929
-0.00107925
-0.00112921
-0.00117916
-0.00122911
-0.00127905
-0.00132899
-0.00137892
-0.00142885
-0.00147878
-0.0015287
-0.00157862
-0.00162854
-0.00167845
-0.00172836
-0.00177827
-0.00182817
-0.00187807
-0.00192797
-0.00197786
-0.00202776
-0.00207765
-0.00212754
-0.00217742
-0.00222731
-0.00227719
-0.00232707
-0.00237695
-0.00242683
-0.0024767
-0.00252658
-0.00257645
-0.00262632
-0.00267619
-0.00272605
-0.00277592
-0.00282578
-0.00287564
-0.0029255
-0.00297536
-0.00302522
-0.00307507
0.00297268
)
;
    }
    front
    {
        type            wedge;
    }
    back
    {
        type            wedge;
    }
}


// ************************************************************************* //
