/*--------------------------------*- C++ -*----------------------------------*\
| =========                 |                                                 |
| \\      /  F ield         | foam-extend: Open Source CFD                    |
|  \\    /   O peration     | Version:     4.1-20200408                       |
|   \\  /    A nd           | Web:         http://www.foam-extend.org         |
|    \\/     M anipulation  |                                                 |
\*---------------------------------------------------------------------------*/
FoamFile
{
    version     2.0;
    format      ascii;
    class       volScalarField;
    location    "0.0105000";
    object      ccy;
}
// * * * * * * * * * * * * * * * * * * * * * * * * * * * * * * * * * * * * * //

dimensions      [0 1 0 0 0 0 0];

internalField   nonuniform List<scalar> 
1952
(
7.28132e-05
0.000118582
0.000164944
0.000211505
0.000258154
0.000304853
0.00035158
0.000398325
0.000445082
0.000491848
0.00053862
0.000585395
0.000632174
0.000678955
0.000725735
3.12058e-05
7.28103e-05
0.000118576
0.000164937
0.000211495
0.000258143
0.000304839
0.000351564
0.000398307
0.000445062
0.000491826
0.000538595
0.000585369
0.000632146
0.000678925
0.000725707
3.12046e-05
7.28078e-05
0.000118572
0.000164931
0.000211488
0.000258134
0.000304829
0.000351552
0.000398294
0.000445047
0.00049181
0.000538578
0.000585351
0.000632128
0.000678907
0.00072569
3.12035e-05
7.28065e-05
0.000118568
0.000164927
0.000211482
0.000258127
0.000304821
0.000351543
0.000398284
0.000445037
0.000491798
0.000538565
0.000585339
0.000632116
0.000678897
0.000725677
3.12026e-05
7.28043e-05
0.000118567
0.000164924
0.000211478
0.000258123
0.000304814
0.000351536
0.000398276
0.000445029
0.00049179
0.000538558
0.000585331
0.000632108
0.000678888
0.000725672
3.1202e-05
7.28031e-05
0.000118565
0.000164921
0.000211475
0.000258119
0.000304811
0.000351532
0.000398272
0.000445024
0.000491784
0.000538554
0.000585326
0.000632104
0.000678885
0.000725668
3.12015e-05
7.28017e-05
0.000118564
0.000164919
0.000211473
0.000258116
0.000304809
0.000351529
0.000398269
0.000445021
0.000491783
0.00053855
0.000585326
0.000632102
0.000678884
0.000725667
3.12017e-05
7.28028e-05
0.000118563
0.000164919
0.000211472
0.000258115
0.000304807
0.000351527
0.000398268
0.00044502
0.000491782
0.000538552
0.000585324
0.000632103
0.000678885
0.000725668
3.12005e-05
7.28012e-05
0.000118564
0.000164919
0.000211472
0.000258115
0.000304806
0.000351529
0.000398268
0.000445021
0.000491783
0.000538551
0.000585327
0.000632105
0.000678887
0.00072567
3.1201e-05
7.28022e-05
0.000118563
0.000164918
0.000211473
0.000258116
0.000304809
0.000351529
0.00039827
0.000445023
0.000491785
0.000538555
0.000585329
0.000632108
0.000678889
0.000725675
3.12011e-05
7.28025e-05
0.000118564
0.000164921
0.000211474
0.000258117
0.000304809
0.000351532
0.000398272
0.000445025
0.000491788
0.000538558
0.000585333
0.000632112
0.000678894
0.000725678
3.12012e-05
7.28038e-05
0.000118564
0.000164921
0.000211475
0.000258119
0.000304812
0.000351534
0.000398275
0.000445029
0.000491791
0.000538562
0.000585337
0.000632117
0.000678899
0.000725683
3.12015e-05
7.28037e-05
0.000118566
0.000164922
0.000211477
0.000258122
0.000304815
0.000351537
0.000398278
0.000445032
0.000491795
0.000538566
0.000585342
0.000632122
0.000678905
0.00072569
3.12017e-05
7.28044e-05
0.000118567
0.000164924
0.000211478
0.000258124
0.000304818
0.00035154
0.000398281
0.000445036
0.000491801
0.000538571
0.000585347
0.000632127
0.00067891
0.000725695
3.1202e-05
7.28044e-05
0.000118569
0.000164925
0.000211482
0.000258127
0.00030482
0.000351544
0.000398286
0.00044504
0.000491803
0.000538576
0.000585352
0.000632133
0.000678917
0.0007257
3.12024e-05
7.28067e-05
0.000118569
0.000164928
0.000211483
0.00025813
0.000304824
0.000351548
0.000398289
0.000445045
0.00049181
0.00053858
0.000585358
0.000632138
0.000678922
0.000725708
3.12027e-05
7.2806e-05
0.000118571
0.000164929
0.000211487
0.000258132
0.000304827
0.00035155
0.000398294
0.000445049
0.000491814
0.000538587
0.000585362
0.000632144
0.000678928
0.000725713
3.1203e-05
7.28076e-05
0.000118572
0.000164931
0.000211488
0.000258135
0.000304831
0.000351555
0.000398298
0.000445054
0.000491819
0.00053859
0.00058537
0.00063215
0.000678934
0.000725719
3.12034e-05
7.28085e-05
0.000118574
0.000164933
0.000211491
0.000258137
0.000304835
0.000351559
0.000398302
0.000445058
0.000491823
0.000538596
0.000585374
0.000632156
0.00067894
0.000725726
3.12038e-05
7.28101e-05
0.000118575
0.000164935
0.000211494
0.000258142
0.000304837
0.000351563
0.000398307
0.000445062
0.000491828
0.000538602
0.00058538
0.000632161
0.000678946
0.000725733
3.12042e-05
7.28095e-05
0.000118577
0.000164938
0.000211496
0.000258145
0.000304841
0.000351566
0.00039831
0.000445068
0.000491833
0.000538606
0.000585385
0.000632168
0.000678952
0.000725738
3.12045e-05
7.28112e-05
0.000118579
0.000164938
0.000211499
0.000258147
0.000304844
0.00035157
0.000398315
0.000445071
0.000491838
0.000538612
0.00058539
0.000632172
0.000678958
0.000725746
3.12049e-05
7.28121e-05
0.00011858
0.000164941
0.000211501
0.00025815
0.000304848
0.000351574
0.000398319
0.000445076
0.000491843
0.000538617
0.000585396
0.00063218
0.000678964
0.000725751
3.12053e-05
7.28131e-05
0.000118581
0.000164943
0.000211504
0.000258153
0.000304851
0.000351578
0.000398323
0.000445081
0.000491847
0.000538622
0.000585402
0.000632185
0.00067897
0.000725757
3.12058e-05
7.28141e-05
0.000118582
0.000164946
0.000211506
0.000258156
0.000304855
0.000351582
0.000398327
0.000445084
0.000491853
0.000538627
0.000585407
0.00063219
0.000678977
0.000725764
3.12062e-05
7.28151e-05
0.000118585
0.000164947
0.000211509
0.00025816
0.000304859
0.000351586
0.000398331
0.000445091
0.000491857
0.000538633
0.000585413
0.000632196
0.000678983
0.00072577
3.12066e-05
7.28169e-05
0.000118585
0.000164951
0.000211512
0.000258163
0.000304861
0.00035159
0.000398336
0.000445095
0.000491863
0.000538637
0.000585419
0.000632202
0.00067899
0.000725777
3.12071e-05
7.28172e-05
0.000118588
0.000164952
0.000211515
0.000258166
0.000304866
0.000351595
0.00039834
0.0004451
0.000491868
0.000538645
0.000585425
0.000632208
0.000678995
0.000725783
3.12076e-05
7.28175e-05
0.00011859
0.000164954
0.000211517
0.000258169
0.00030487
0.000351598
0.000398346
0.000445104
0.000491873
0.000538649
0.00058543
0.000632215
0.000679002
0.000725791
3.1208e-05
7.28193e-05
0.000118591
0.000164956
0.00021152
0.000258174
0.000304874
0.000351603
0.00039835
0.000445111
0.000491879
0.000538655
0.000585437
0.000632221
0.000679007
0.000725797
3.1209e-05
7.28203e-05
0.000118593
0.00016496
0.000211523
0.000258176
0.000304879
0.000351607
0.000398356
0.000445116
0.000491885
0.000538662
0.000585442
0.000632227
0.000679016
0.000725803
3.12084e-05
7.28215e-05
0.000118595
0.000164962
0.000211526
0.000258181
0.000304882
0.000351613
0.000398361
0.000445122
0.000491891
0.000538668
0.000585449
0.000632234
0.000679022
0.00072581
3.12094e-05
7.28228e-05
0.000118597
0.000164964
0.00021153
0.000258185
0.000304886
0.000351618
0.000398367
0.000445129
0.000491897
0.000538673
0.000585456
0.000632241
0.000679029
0.000725818
3.12099e-05
7.28247e-05
0.000118598
0.000164967
0.000211534
0.000258188
0.000304893
0.000351623
0.000398373
0.000445133
0.000491905
0.000538681
0.000585463
0.000632247
0.000679035
0.000725824
3.12105e-05
7.28252e-05
0.000118601
0.00016497
0.000211536
0.000258194
0.000304897
0.000351628
0.000398378
0.00044514
0.00049191
0.000538688
0.000585468
0.000632255
0.000679042
0.000725831
3.1211e-05
7.28264e-05
0.000118602
0.000164973
0.000211541
0.000258197
0.000304901
0.000351634
0.000398384
0.000445147
0.000491916
0.000538694
0.000585477
0.000632261
0.000679049
0.000725837
3.12115e-05
7.28275e-05
0.000118604
0.000164975
0.000211544
0.000258201
0.000304906
0.000351639
0.000398389
0.000445152
0.000491923
0.0005387
0.000585483
0.000632268
0.000679055
0.000725843
3.1212e-05
7.28285e-05
0.000118606
0.000164978
0.000211545
0.000258205
0.000304909
0.000351643
0.000398394
0.000445158
0.000491928
0.000538706
0.000585489
0.000632274
0.000679061
0.000725849
3.12124e-05
7.28292e-05
0.000118607
0.000164979
0.000211549
0.000258206
0.000304913
0.000351647
0.000398399
0.000445161
0.000491934
0.000538712
0.000585493
0.000632279
0.000679066
0.000725854
3.12127e-05
7.28293e-05
0.000118608
0.000164979
0.000211549
0.000258208
0.000304914
0.000351649
0.000398401
0.000445165
0.000491937
0.000538715
0.000585498
0.000632282
0.00067907
0.000725856
3.1213e-05
7.28292e-05
0.000118607
0.000164979
0.000211549
0.000258208
0.000304914
0.000351649
0.000398402
0.000445166
0.000491938
0.000538716
0.000585499
0.000632285
0.000679071
0.000725857
3.12127e-05
7.28283e-05
0.000118606
0.000164978
0.000211547
0.000258206
0.000304912
0.000351647
0.0003984
0.000445164
0.000491937
0.000538715
0.000585498
0.000632283
0.00067907
0.000725855
3.12124e-05
7.28266e-05
0.000118603
0.000164974
0.000211542
0.0002582
0.000304907
0.000351641
0.000398394
0.000445158
0.000491931
0.00053871
0.000585493
0.000632279
0.000679065
0.00072585
3.12115e-05
7.28237e-05
0.000118598
0.000164968
0.000211535
0.000258192
0.000304897
0.000351631
0.000398383
0.000445148
0.000491921
0.0005387
0.000585483
0.000632269
0.000679055
0.000725839
3.12103e-05
7.28195e-05
0.000118592
0.000164958
0.000211523
0.000258178
0.000304882
0.000351615
0.000398366
0.000445131
0.000491903
0.000538682
0.000585466
0.000632252
0.000679038
0.000725822
3.12085e-05
7.28136e-05
0.000118582
0.000164946
0.000211507
0.00025816
0.000304861
0.000351591
0.000398341
0.000445105
0.000491877
0.000538656
0.00058544
0.000632227
0.000679013
0.000725796
3.1206e-05
7.2806e-05
0.00011857
0.000164929
0.000211486
0.000258134
0.000304832
0.000351559
0.000398307
0.000445068
0.00049184
0.000538618
0.000585402
0.000632189
0.000678976
0.000725759
3.12027e-05
7.27962e-05
0.000118554
0.000164907
0.000211459
0.000258102
0.000304794
0.000351517
0.000398261
0.00044502
0.000491789
0.000538566
0.000585349
0.000632137
0.000678924
0.000725707
3.11984e-05
7.27841e-05
0.000118534
0.00016488
0.000211424
0.00025806
0.000304746
0.000351463
0.000398202
0.000444956
0.000491721
0.000538496
0.000585277
0.000632064
0.000678852
0.000725635
3.11932e-05
7.27695e-05
0.000118511
0.000164847
0.000211383
0.00025801
0.000304688
0.000351397
0.000398128
0.000444875
0.000491634
0.000538404
0.000585182
0.000631966
0.000678751
0.000725534
3.1187e-05
7.27527e-05
0.000118484
0.00016481
0.000211334
0.000257951
0.000304618
0.000351317
0.000398038
0.000444776
0.000491527
0.000538288
0.000585059
0.000631837
0.000678617
0.000725395
3.11798e-05
7.27338e-05
0.000118453
0.000164766
0.000211279
0.000257883
0.000304538
0.000351224
0.000397933
0.000444659
0.000491397
0.000538148
0.000584908
0.000631676
0.000678448
0.000725217
3.11717e-05
7.2713e-05
0.000118419
0.000164719
0.000211218
0.000257808
0.000304448
0.00035112
0.000397814
0.000444525
0.000491249
0.000537984
0.00058473
0.000631485
0.000678244
0.000725001
3.11628e-05
7.26909e-05
0.000118382
0.000164668
0.000211152
0.000257727
0.000304352
0.000351007
0.000397684
0.000444377
0.000491083
0.000537801
0.000584529
0.000631266
0.000678008
0.000724751
3.11534e-05
7.26682e-05
0.000118345
0.000164616
0.000211084
0.000257643
0.000304251
0.000350889
0.000397547
0.00044422
0.000490906
0.000537603
0.000584309
0.000631025
0.000677747
0.000724472
3.11436e-05
7.26456e-05
0.000118308
0.000164564
0.000211017
0.000257559
0.00030415
0.000350769
0.000397408
0.000444061
0.000490724
0.000537397
0.00058408
0.000630771
0.00067747
0.000724174
3.11341e-05
7.26242e-05
0.000118273
0.000164514
0.000210952
0.000257479
0.000304053
0.000350654
0.000397274
0.000443906
0.000490547
0.000537196
0.000583852
0.000630517
0.00067719
0.000723868
3.11248e-05
7.26047e-05
0.000118241
0.000164469
0.000210893
0.000257406
0.000303964
0.000350549
0.000397151
0.000443763
0.000490383
0.000537009
0.00058364
0.000630278
0.000676923
0.000723575
3.11165e-05
7.2588e-05
0.000118214
0.000164431
0.000210843
0.000257343
0.000303889
0.00035046
0.000397047
0.000443642
0.000490244
0.000536849
0.000583459
0.000630073
0.000676692
0.000723318
3.11094e-05
7.25747e-05
0.000118192
0.0001644
0.000210804
0.000257294
0.00030383
0.00035039
0.000396966
0.00044355
0.000490139
0.00053673
0.000583325
0.000629923
0.000676524
0.00072313
3.11037e-05
7.25652e-05
0.000118177
0.000164379
0.000210776
0.000257261
0.00030379
0.000350343
0.000396913
0.00044349
0.000490073
0.00053666
0.00058325
0.000629843
0.00067644
0.000723043
3.10996e-05
7.25595e-05
0.000118167
0.000164366
0.00021076
0.000257242
0.000303768
0.00035032
0.000396888
0.000443465
0.000490049
0.000536639
0.000583233
0.00062983
0.000676434
0.000723047
3.10972e-05
7.25579e-05
0.000118165
0.000164363
0.000210756
0.000257238
0.000303766
0.00035032
0.000396891
0.000443473
0.000490064
0.000536661
0.000583264
0.000629871
0.000676485
0.00072311
3.10964e-05
7.256e-05
0.000118168
0.000164368
0.000210765
0.00025725
0.000303782
0.000350342
0.00039692
0.000443511
0.00049011
0.000536716
0.000583329
0.000629948
0.000676575
0.000723211
3.10974e-05
7.25661e-05
0.000118178
0.000164383
0.000210784
0.000257275
0.000303814
0.000350381
0.000396968
0.000443567
0.000490177
0.000536794
0.000583418
0.00063005
0.000676689
0.000723337
3.10999e-05
7.25749e-05
0.000118193
0.000164404
0.000210812
0.00025731
0.000303857
0.000350433
0.000397029
0.000443638
0.000490258
0.000536886
0.000583523
0.000630167
0.000676818
0.000723476
3.11037e-05
7.2586e-05
0.000118212
0.00016443
0.000210846
0.000257352
0.000303908
0.000350493
0.000397099
0.000443718
0.000490349
0.000536989
0.000583637
0.000630292
0.000676954
0.000723621
3.11084e-05
7.25985e-05
0.000118232
0.000164459
0.000210883
0.000257398
0.000303963
0.000350558
0.000397174
0.000443804
0.000490445
0.000537096
0.000583755
0.000630421
0.000677093
0.000723768
3.11138e-05
7.26121e-05
0.000118254
0.000164489
0.000210923
0.000257448
0.000304021
0.000350626
0.000397252
0.000443892
0.000490543
0.000537205
0.000583874
0.000630549
0.00067723
0.000723913
3.11195e-05
7.26259e-05
0.000118277
0.000164521
0.000210964
0.000257498
0.000304081
0.000350696
0.000397331
0.00044398
0.000490642
0.000537312
0.000583991
0.000630675
0.000677363
0.000724053
3.11256e-05
7.26402e-05
0.0001183
0.000164553
0.000211005
0.000257548
0.000304141
0.000350764
0.000397409
0.000444068
0.000490738
0.000537417
0.000584103
0.000630795
0.000677491
0.000724187
3.11315e-05
7.2654e-05
0.000118322
0.000164585
0.000211046
0.000257597
0.000304199
0.000350831
0.000397484
0.000444152
0.00049083
0.000537517
0.000584211
0.00063091
0.000677612
0.000724314
3.11376e-05
7.26675e-05
0.000118344
0.000164615
0.000211085
0.000257645
0.000304255
0.000350895
0.000397556
0.000444232
0.000490917
0.000537612
0.000584313
0.000631018
0.000677726
0.000724434
3.11432e-05
7.26803e-05
0.000118365
0.000164644
0.000211122
0.00025769
0.000304308
0.000350956
0.000397625
0.000444307
0.000491
0.000537701
0.000584408
0.000631119
0.000677833
0.000724547
3.11488e-05
7.26926e-05
0.000118385
0.000164672
0.000211157
0.000257733
0.000304358
0.000351013
0.000397688
0.000444377
0.000491077
0.000537784
0.000584497
0.000631214
0.000677933
0.000724652
3.1154e-05
7.2704e-05
0.000118404
0.000164697
0.000211189
0.000257772
0.000304405
0.000351066
0.000397748
0.000444444
0.000491149
0.000537862
0.00058458
0.000631302
0.000678026
0.00072475
3.1159e-05
7.27145e-05
0.000118421
0.000164721
0.00021122
0.000257809
0.000304448
0.000351116
0.000397804
0.000444505
0.000491216
0.000537934
0.000584657
0.000631383
0.000678112
0.000724841
3.11635e-05
7.27245e-05
0.000118437
0.000164743
0.000211248
0.000257843
0.000304487
0.000351161
0.000397855
0.000444561
0.000491277
0.000538
0.000584728
0.000631459
0.000678192
0.000724925
3.11678e-05
7.27335e-05
0.000118452
0.000164764
0.000211274
0.000257875
0.000304524
0.000351203
0.000397902
0.000444613
0.000491334
0.000538061
0.000584793
0.000631528
0.000678266
0.000725004
3.11717e-05
7.27422e-05
0.000118465
0.000164783
0.000211298
0.000257904
0.000304558
0.000351242
0.000397945
0.000444661
0.000491387
0.000538117
0.000584854
0.000631592
0.000678334
0.000725077
3.11753e-05
7.27496e-05
0.000118478
0.0001648
0.00021132
0.000257931
0.00030459
0.000351278
0.000397986
0.000444705
0.000491434
0.000538169
0.000584909
0.000631653
0.000678397
0.000725143
3.11785e-05
7.27566e-05
0.000118489
0.000164816
0.000211341
0.000257955
0.000304618
0.00035131
0.000398022
0.000444746
0.000491478
0.000538218
0.000584961
0.000631707
0.000678457
0.000725205
3.11816e-05
7.27623e-05
0.0001185
0.000164831
0.000211358
0.000257978
0.000304644
0.00035134
0.000398056
0.000444783
0.000491519
0.000538262
0.000585009
0.000631759
0.000678511
0.000725264
3.11843e-05
7.27697e-05
0.000118509
0.000164844
0.000211376
0.000257998
0.000304669
0.000351368
0.000398086
0.000444818
0.000491557
0.000538303
0.000585053
0.000631806
0.000678562
0.000725317
3.11863e-05
7.27744e-05
0.000118518
0.000164855
0.000211392
0.000258017
0.000304691
0.000351394
0.000398115
0.000444849
0.000491592
0.000538341
0.000585094
0.00063185
0.000678609
0.000725368
3.11897e-05
7.27794e-05
0.000118526
0.000164868
0.000211405
0.000258035
0.000304712
0.000351417
0.000398141
0.000444878
0.000491624
0.000538376
0.000585132
0.000631892
0.000678653
0.000725415
3.11913e-05
7.2784e-05
0.000118534
0.000164878
0.00021142
0.00025805
0.000304731
0.000351439
0.000398166
0.000444906
0.000491655
0.000538408
0.000585167
0.000631929
0.000678694
0.00072546
3.11933e-05
7.27883e-05
0.000118541
0.000164887
0.000211431
0.000258067
0.000304748
0.000351459
0.00039819
0.000444931
0.000491682
0.000538438
0.000585201
0.000631965
0.000678733
0.0007255
3.11951e-05
7.27923e-05
0.000118547
0.000164897
0.000211443
0.00025808
0.000304765
0.000351478
0.00039821
0.000444955
0.000491708
0.000538469
0.000585231
0.000632
0.000678768
0.00072554
3.11968e-05
7.2796e-05
0.000118554
0.000164903
0.000211454
0.000258093
0.00030478
0.000351497
0.00039823
0.000444977
0.000491733
0.000538495
0.000585262
0.00063203
0.000678803
0.000725574
3.11984e-05
7.27994e-05
0.000118559
0.000164912
0.000211464
0.000258105
0.000304794
0.000351512
0.00039825
0.000444998
0.000491755
0.00053852
0.000585289
0.00063206
0.000678835
0.00072561
3.11999e-05
7.28026e-05
0.000118563
0.000164921
0.000211473
0.000258117
0.000304808
0.000351528
0.000398267
0.000445018
0.000491778
0.000538544
0.000585314
0.000632089
0.000678865
0.000725642
3.12013e-05
7.28056e-05
0.00011857
0.000164926
0.000211482
0.000258128
0.000304821
0.000351543
0.000398283
0.000445037
0.000491798
0.000538566
0.000585339
0.000632116
0.000678893
0.000725672
3.12026e-05
7.28077e-05
0.000118574
0.000164934
0.00021149
0.000258136
0.000304832
0.000351556
0.0003983
0.000445054
0.000491817
0.000538587
0.000585363
0.000632139
0.00067892
0.000725703
3.12038e-05
7.28112e-05
0.000118578
0.000164939
0.000211498
0.000258147
0.000304844
0.000351569
0.000398314
0.000445069
0.000491835
0.000538608
0.000585383
0.000632164
0.000678946
0.00072573
3.12049e-05
7.28144e-05
0.000118582
0.000164945
0.000211505
0.000258155
0.000304854
0.000351582
0.000398328
0.000445087
0.000491853
0.000538626
0.000585406
0.000632186
0.000678972
0.000725756
3.1206e-05
7.28161e-05
0.000118586
0.000164949
0.000211513
0.000258164
0.000304864
0.000351593
0.000398341
0.000445101
0.00049187
0.000538646
0.000585424
0.000632209
0.000678994
0.000725782
3.12071e-05
7.28177e-05
0.00011859
0.000164956
0.000211518
0.000258173
0.000304873
0.000351605
0.000398354
0.000445116
0.000491886
0.000538663
0.000585444
0.000632229
0.000679018
0.000725804
3.12081e-05
7.28214e-05
0.000118593
0.00016496
0.000211526
0.00025818
0.000304884
0.000351615
0.000398366
0.000445129
0.000491902
0.000538679
0.000585462
0.000632249
0.000679038
0.000725828
3.1209e-05
7.28228e-05
0.000118597
0.000164966
0.000211532
0.000258189
0.000304892
0.000351626
0.000398379
0.000445142
0.000491915
0.000538695
0.00058548
0.000632268
0.000679059
0.00072585
3.12099e-05
7.28248e-05
0.0001186
0.00016497
0.000211538
0.000258195
0.000304901
0.000351637
0.000398388
0.000445155
0.00049193
0.000538711
0.000585496
0.000632286
0.000679077
0.000725872
3.12108e-05
7.28268e-05
0.000118603
0.000164974
0.000211543
0.000258202
0.000304909
0.000351645
0.0003984
0.000445167
0.000491944
0.000538725
0.000585513
0.000632303
0.000679098
0.000725891
3.12116e-05
7.28286e-05
0.000118606
0.000164979
0.000211549
0.000258208
0.000304918
0.000351654
0.000398411
0.000445179
0.000491956
0.00053874
0.000585528
0.00063232
0.000679115
0.000725911
3.12124e-05
7.28305e-05
0.000118609
0.000164983
0.000211553
0.000258216
0.000304925
0.000351663
0.00039842
0.00044519
0.000491968
0.000538753
0.000585543
0.000632336
0.000679132
0.000725929
3.12132e-05
7.28322e-05
0.000118612
0.000164987
0.00021156
0.000258221
0.000304932
0.000351673
0.000398429
0.000445202
0.00049198
0.000538767
0.000585557
0.000632352
0.000679149
0.000725947
3.1214e-05
7.28338e-05
0.000118615
0.00016499
0.000211564
0.000258228
0.000304939
0.00035168
0.00039844
0.00044521
0.000491993
0.000538778
0.000585571
0.000632367
0.000679165
0.000725964
3.12147e-05
7.28354e-05
0.000118617
0.000164994
0.000211569
0.000258233
0.000304947
0.000351687
0.000398448
0.000445222
0.000492002
0.000538792
0.000585584
0.00063238
0.00067918
0.000725981
3.12153e-05
7.2837e-05
0.00011862
0.000164997
0.000211573
0.000258239
0.000304953
0.000351695
0.000398457
0.000445231
0.000492013
0.000538803
0.000585597
0.000632396
0.000679195
0.000725997
3.1216e-05
7.28384e-05
0.000118622
0.000165001
0.000211577
0.000258244
0.000304958
0.000351703
0.000398465
0.00044524
0.000492024
0.000538814
0.000585609
0.000632408
0.000679209
0.000726012
3.12166e-05
7.28398e-05
0.000118624
0.000165004
0.000211582
0.000258249
0.000304965
0.000351709
0.000398473
0.000445248
0.000492034
0.000538825
0.000585621
0.00063242
0.000679223
0.000726026
3.12172e-05
7.28411e-05
0.000118627
0.000165007
0.000211585
0.000258253
0.00030497
0.000351714
0.00039848
0.000445257
0.000492042
0.000538834
0.000585633
0.000632432
0.000679236
0.00072604
3.12178e-05
7.28423e-05
0.000118629
0.00016501
0.000211589
0.000258258
0.000304975
0.000351722
0.000398486
0.000445264
0.00049205
0.000538845
0.000585642
0.000632443
0.000679249
0.000726053
3.12183e-05
7.28434e-05
0.00011863
0.000165012
0.000211592
0.000258262
0.00030498
0.000351727
0.000398493
0.000445271
0.000492059
0.000538852
0.000585652
0.000632455
0.000679259
0.000726066
3.12188e-05
7.28444e-05
0.000118631
0.000165014
0.000211595
0.000258265
0.000304984
0.000351732
0.000398499
0.000445278
0.000492066
0.000538862
0.000585661
0.000632463
0.000679271
0.000726077
3.12192e-05
7.28452e-05
0.000118634
0.000165016
0.000211597
0.000258269
0.000304988
0.000351737
0.000398504
0.000445284
0.000492073
0.000538869
0.000585669
0.000632474
0.000679279
0.000726088
3.12195e-05
7.2846e-05
0.000118635
0.000165018
0.0002116
0.000258271
0.000304991
0.00035174
0.000398508
0.000445289
0.000492078
0.000538875
0.000585676
0.000632481
0.000679289
0.000726097
3.12199e-05
7.28466e-05
0.000118636
0.000165019
0.000211601
0.000258274
0.000304994
0.000351743
0.000398512
0.000445293
0.000492083
0.00053888
0.000585682
0.000632488
0.000679297
0.000726106
3.12201e-05
7.2847e-05
0.000118636
0.00016502
0.000211603
0.000258275
0.000304996
0.000351745
0.000398514
0.000445296
0.000492087
0.000538884
0.000585687
0.000632494
0.000679303
0.000726113
3.12203e-05
7.28473e-05
0.000118637
0.000165021
0.000211604
0.000258276
0.000304997
0.000351747
0.000398516
0.000445298
0.000492089
0.000538887
0.00058569
0.000632497
0.000679308
0.000726118
3.12204e-05
7.28474e-05
0.000118637
0.000165022
0.000211604
0.000258277
0.000304997
0.000351748
0.000398517
0.000445299
0.00049209
0.000538889
0.000585692
0.000632499
0.000679309
0.000726121
3.12205e-05
7.28475e-05
0.000118637
0.000165022
0.000211604
0.000258277
0.000304998
0.000351748
0.000398518
0.0004453
0.000492091
0.000538889
0.000585692
0.000632499
0.00067931
0.000726122
3.12205e-05
7.28475e-05
0.000118637
0.000165022
0.000211604
0.000258277
0.000304998
0.000351748
0.000398518
0.0004453
0.000492091
0.000538889
0.000585692
0.000632499
0.00067931
0.000726122
3.12205e-05
)
;

boundaryField
{
    wireUpstream
    {
        type            calculated;
        value           nonuniform List<scalar> 
16
(
7.28475e-05
0.000118637
0.000165022
0.000211604
0.000258277
0.000304998
0.000351748
0.000398518
0.0004453
0.000492091
0.000538889
0.000585692
0.000632499
0.00067931
0.000726122
3.12205e-05
)
;
    }
    wireDownstream
    {
        type            calculated;
        value           nonuniform List<scalar> 
16
(
7.28149e-05
0.000118584
0.000164947
0.000211508
0.000258159
0.000304858
0.000351586
0.000398332
0.000445091
0.000491857
0.00053863
0.000585406
0.000632186
0.000678967
0.000725748
3.12065e-05
)
;
    }
    wireTopContact
    {
        type            calculated;
        value           nonuniform List<scalar> 
122
(
0.000748854
0.000748838
0.000748827
0.00074882
0.000748816
0.000748816
0.000748817
0.000748819
0.000748823
0.000748827
0.000748832
0.000748838
0.000748844
0.00074885
0.000748856
0.000748863
0.000748869
0.000748876
0.000748882
0.000748888
0.000748895
0.000748901
0.000748908
0.000748914
0.000748921
0.000748928
0.000748934
0.000748941
0.000748948
0.000748955
0.000748961
0.000748968
0.000748975
0.000748982
0.000748988
0.000748994
0.000748999
0.000749003
0.000749006
0.000749006
0.000749004
0.000748998
0.000748987
0.000748969
0.000748943
0.000748905
0.000748853
0.00074878
0.000748678
0.000748537
0.000748355
0.000748134
0.000747877
0.000747591
0.000747283
0.000746967
0.000746664
0.000746396
0.000746199
0.00074611
0.000746117
0.000746184
0.00074629
0.000746421
0.000746564
0.000746713
0.000746863
0.000747011
0.000747155
0.000747292
0.000747422
0.000747545
0.00074766
0.000747768
0.000747868
0.000747961
0.000748048
0.000748129
0.000748203
0.000748272
0.000748336
0.000748396
0.000748452
0.000748504
0.000748553
0.000748598
0.000748641
0.000748681
0.000748718
0.000748754
0.000748788
0.000748819
0.000748849
0.000748878
0.000748905
0.000748931
0.000748956
0.00074898
0.000749002
0.000749024
0.000749045
0.000749065
0.000749084
0.000749103
0.000749121
0.000749138
0.000749154
0.00074917
0.000749185
0.000749199
0.000749213
0.000749225
0.000749237
0.000749248
0.000749258
0.000749267
0.000749275
0.00074928
0.000749283
0.000749284
0.000749284
0.000748879
)
;
    }
    front
    {
        type            wedge;
    }
    back
    {
        type            wedge;
    }
}


// ************************************************************************* //
