/*--------------------------------*- C++ -*----------------------------------*\
| =========                 |                                                 |
| \\      /  F ield         | foam-extend: Open Source CFD                    |
|  \\    /   O peration     | Version:     4.1-20200408                       |
|   \\  /    A nd           | Web:         http://www.foam-extend.org         |
|    \\/     M anipulation  |                                                 |
\*---------------------------------------------------------------------------*/
FoamFile
{
    version     2.0;
    format      ascii;
    class       volScalarField;
    location    "0.0105000";
    object      sigmaHyd;
}
// * * * * * * * * * * * * * * * * * * * * * * * * * * * * * * * * * * * * * //

dimensions      [1 -1 -2 0 0 0 0];

internalField   nonuniform List<scalar> 
1952
(
2.09385e+08
2.08877e+08
2.08005e+08
2.06874e+08
2.05444e+08
2.03738e+08
2.01719e+08
1.99443e+08
1.96762e+08
1.93822e+08
1.90264e+08
1.86243e+08
1.81046e+08
1.74476e+08
1.64231e+08
2.09719e+08
2.00535e+08
1.99992e+08
1.99084e+08
1.97924e+08
1.96389e+08
1.94597e+08
1.92368e+08
1.89861e+08
1.86775e+08
1.83308e+08
1.78892e+08
1.73742e+08
1.66842e+08
1.57934e+08
1.44746e+08
2.00811e+08
1.92444e+08
1.91873e+08
1.90954e+08
1.89767e+08
1.8818e+08
1.86335e+08
1.84002e+08
1.81386e+08
1.78153e+08
1.74523e+08
1.69875e+08
1.64621e+08
1.57662e+08
1.49665e+08
1.3918e+08
1.92693e+08
1.84887e+08
1.84295e+08
1.83382e+08
1.82176e+08
1.80571e+08
1.78705e+08
1.76325e+08
1.73667e+08
1.70444e+08
1.66826e+08
1.62215e+08
1.57174e+08
1.50622e+08
1.43762e+08
1.35134e+08
1.85121e+08
1.77951e+08
1.77353e+08
1.76458e+08
1.75261e+08
1.73668e+08
1.71829e+08
1.69453e+08
1.66832e+08
1.63799e+08
1.60387e+08
1.56064e+08
1.51514e+08
1.4571e+08
1.40071e+08
1.33335e+08
1.78174e+08
1.71597e+08
1.71001e+08
1.70141e+08
1.6897e+08
1.67419e+08
1.65656e+08
1.63265e+08
1.60817e+08
1.58026e+08
1.54944e+08
1.50981e+08
1.46989e+08
1.41942e+08
1.3735e+08
1.32051e+08
1.71807e+08
1.65822e+08
1.6524e+08
1.64431e+08
1.63312e+08
1.61837e+08
1.60203e+08
1.5781e+08
1.55605e+08
1.53024e+08
1.5042e+08
1.46827e+08
1.43424e+08
1.39111e+08
1.35419e+08
1.31305e+08
1.66018e+08
1.60596e+08
1.60032e+08
1.59295e+08
1.58225e+08
1.569e+08
1.55342e+08
1.53053e+08
1.50992e+08
1.48713e+08
1.46582e+08
1.43374e+08
1.40509e+08
1.36857e+08
1.33905e+08
1.30735e+08
1.6077e+08
1.55874e+08
1.55335e+08
1.54675e+08
1.53665e+08
1.52507e+08
1.51026e+08
1.48886e+08
1.469e+08
1.45039e+08
1.43297e+08
1.40524e+08
1.38088e+08
1.35038e+08
1.32676e+08
1.3028e+08
1.56023e+08
1.51617e+08
1.51109e+08
1.50525e+08
1.49573e+08
1.48582e+08
1.47104e+08
1.45158e+08
1.43279e+08
1.4186e+08
1.40449e+08
1.3812e+08
1.36014e+08
1.33496e+08
1.316e+08
1.29834e+08
1.51743e+08
1.47766e+08
1.47292e+08
1.46777e+08
1.45885e+08
1.45045e+08
1.43559e+08
1.41794e+08
1.40016e+08
1.3898e+08
1.37931e+08
1.36012e+08
1.34188e+08
1.32138e+08
1.30612e+08
1.29369e+08
1.47871e+08
1.44289e+08
1.43868e+08
1.43407e+08
1.4264e+08
1.4188e+08
1.40456e+08
1.3874e+08
1.37138e+08
1.36346e+08
1.357e+08
1.34121e+08
1.32546e+08
1.30889e+08
1.29662e+08
1.28843e+08
1.44384e+08
1.41127e+08
1.40758e+08
1.4034e+08
1.39707e+08
1.38991e+08
1.37653e+08
1.35945e+08
1.34525e+08
1.33938e+08
1.33668e+08
1.32394e+08
1.31021e+08
1.29707e+08
1.28715e+08
1.28252e+08
1.41216e+08
1.38235e+08
1.37918e+08
1.3753e+08
1.37011e+08
1.36332e+08
1.34993e+08
1.33356e+08
1.32103e+08
1.317e+08
1.31792e+08
1.3078e+08
1.29581e+08
1.28554e+08
1.27754e+08
1.2758e+08
1.38322e+08
1.35585e+08
1.35309e+08
1.34943e+08
1.34523e+08
1.33791e+08
1.32505e+08
1.30936e+08
1.29832e+08
1.29602e+08
1.30007e+08
1.29253e+08
1.28184e+08
1.27414e+08
1.26761e+08
1.26831e+08
1.35667e+08
1.33127e+08
1.32882e+08
1.32534e+08
1.3219e+08
1.31397e+08
1.30152e+08
1.28655e+08
1.27671e+08
1.27606e+08
1.28285e+08
1.27785e+08
1.26819e+08
1.26268e+08
1.25734e+08
1.26003e+08
1.33204e+08
1.30872e+08
1.3064e+08
1.30373e+08
1.30034e+08
1.29241e+08
1.27915e+08
1.2656e+08
1.25603e+08
1.25698e+08
1.26541e+08
1.26365e+08
1.25468e+08
1.25108e+08
1.24669e+08
1.25096e+08
1.3092e+08
1.28756e+08
1.28527e+08
1.28347e+08
1.27981e+08
1.27199e+08
1.25763e+08
1.24562e+08
1.23627e+08
1.23852e+08
1.24863e+08
1.24979e+08
1.24148e+08
1.23931e+08
1.23573e+08
1.24115e+08
1.28774e+08
1.26754e+08
1.26521e+08
1.26411e+08
1.26018e+08
1.25159e+08
1.23717e+08
1.22648e+08
1.21803e+08
1.22092e+08
1.23322e+08
1.23615e+08
1.22918e+08
1.22727e+08
1.22462e+08
1.23049e+08
1.26743e+08
1.24852e+08
1.24618e+08
1.24566e+08
1.24081e+08
1.23201e+08
1.21766e+08
1.2081e+08
1.20064e+08
1.20391e+08
1.21794e+08
1.22266e+08
1.21699e+08
1.21504e+08
1.21328e+08
1.2193e+08
1.24822e+08
1.23009e+08
1.22777e+08
1.22756e+08
1.22167e+08
1.21296e+08
1.19879e+08
1.19017e+08
1.18369e+08
1.18716e+08
1.20192e+08
1.20931e+08
1.20469e+08
1.20268e+08
1.20176e+08
1.2077e+08
1.2297e+08
1.2125e+08
1.21093e+08
1.21015e+08
1.20414e+08
1.19427e+08
1.18101e+08
1.17263e+08
1.16723e+08
1.17067e+08
1.18623e+08
1.19604e+08
1.19263e+08
1.19022e+08
1.19019e+08
1.19579e+08
1.21239e+08
1.19535e+08
1.19473e+08
1.19243e+08
1.18768e+08
1.17578e+08
1.16399e+08
1.15519e+08
1.15096e+08
1.15428e+08
1.17073e+08
1.18282e+08
1.1807e+08
1.17775e+08
1.17865e+08
1.18378e+08
1.19568e+08
1.17857e+08
1.17875e+08
1.17517e+08
1.1707e+08
1.15769e+08
1.14722e+08
1.13798e+08
1.1349e+08
1.1381e+08
1.15531e+08
1.16963e+08
1.16897e+08
1.16533e+08
1.16726e+08
1.1718e+08
1.17921e+08
1.16276e+08
1.1622e+08
1.15909e+08
1.15296e+08
1.14041e+08
1.13053e+08
1.12096e+08
1.11908e+08
1.1221e+08
1.13999e+08
1.15647e+08
1.15743e+08
1.15308e+08
1.1561e+08
1.16002e+08
1.16276e+08
1.14619e+08
1.14518e+08
1.14277e+08
1.13499e+08
1.12325e+08
1.11385e+08
1.10414e+08
1.10346e+08
1.10617e+08
1.12484e+08
1.1429e+08
1.14621e+08
1.14111e+08
1.14529e+08
1.14861e+08
1.14592e+08
1.12904e+08
1.1293e+08
1.12507e+08
1.118e+08
1.10617e+08
1.09741e+08
1.08763e+08
1.08789e+08
1.09035e+08
1.1098e+08
1.12888e+08
1.13536e+08
1.12954e+08
1.13493e+08
1.13775e+08
1.1295e+08
1.11264e+08
1.11328e+08
1.10751e+08
1.10096e+08
1.08908e+08
1.0808e+08
1.07127e+08
1.07225e+08
1.07532e+08
1.09503e+08
1.11591e+08
1.12491e+08
1.11916e+08
1.12501e+08
1.12765e+08
1.11352e+08
1.09628e+08
1.09601e+08
1.08993e+08
1.0835e+08
1.0716e+08
1.06399e+08
1.05496e+08
1.05671e+08
1.06116e+08
1.08077e+08
1.10427e+08
1.11499e+08
1.11022e+08
1.11566e+08
1.11849e+08
1.09733e+08
1.07847e+08
1.07777e+08
1.07153e+08
1.06547e+08
1.05377e+08
1.04687e+08
1.03859e+08
1.0411e+08
1.04711e+08
1.06669e+08
1.09245e+08
1.10574e+08
1.10205e+08
1.1073e+08
1.11049e+08
1.08012e+08
1.05849e+08
1.05808e+08
1.05211e+08
1.04638e+08
1.03535e+08
1.02915e+08
1.02191e+08
1.02519e+08
1.03277e+08
1.05247e+08
1.08004e+08
1.09717e+08
1.09464e+08
1.10016e+08
1.10391e+08
1.06015e+08
1.03687e+08
1.03678e+08
1.03125e+08
1.02572e+08
1.0158e+08
1.01028e+08
1.00444e+08
1.00857e+08
1.01803e+08
1.03824e+08
1.06784e+08
1.08941e+08
1.08829e+08
1.09444e+08
1.099e+08
1.0382e+08
1.01285e+08
1.01319e+08
1.00827e+08
1.00316e+08
9.94705e+07
9.90075e+07
9.86061e+07
9.91331e+07
1.00316e+08
1.0243e+08
1.05622e+08
1.08268e+08
1.08325e+08
1.09036e+08
1.09602e+08
1.01377e+08
9.86348e+07
9.87246e+07
9.83112e+07
9.78778e+07
9.72103e+07
9.68614e+07
9.66843e+07
9.7354e+07
9.88218e+07
1.01054e+08
1.04547e+08
1.07698e+08
1.07975e+08
1.0881e+08
1.09529e+08
9.8677e+07
9.56768e+07
9.58281e+07
9.55228e+07
9.51898e+07
9.473e+07
9.45256e+07
9.46118e+07
9.54622e+07
9.72558e+07
9.96371e+07
1.035e+08
1.07204e+08
1.07779e+08
1.08788e+08
1.09721e+08
9.56652e+07
9.2336e+07
9.25634e+07
9.23608e+07
9.21519e+07
9.19247e+07
9.19005e+07
9.22944e+07
9.33566e+07
9.55274e+07
9.80929e+07
1.02395e+08
1.06753e+08
1.07714e+08
1.08989e+08
1.10217e+08
9.22732e+07
8.84516e+07
8.87454e+07
8.86411e+07
8.85866e+07
8.86125e+07
8.8815e+07
8.95672e+07
9.09174e+07
9.3538e+07
9.641e+07
1.01226e+08
1.06351e+08
1.0779e+08
1.09434e+08
1.1105e+08
8.83483e+07
8.38925e+07
8.42889e+07
8.43434e+07
8.44564e+07
8.47779e+07
8.52579e+07
8.64261e+07
8.81562e+07
9.13087e+07
9.46053e+07
1.00028e+08
1.05999e+08
1.08032e+08
1.10129e+08
1.12247e+08
8.3731e+07
7.86363e+07
7.91862e+07
7.94497e+07
7.97707e+07
8.0425e+07
8.12249e+07
8.28646e+07
8.50216e+07
8.87885e+07
9.25635e+07
9.87069e+07
1.05624e+08
1.08392e+08
1.11075e+08
1.13841e+08
7.84055e+07
7.25324e+07
7.32297e+07
7.37116e+07
7.42978e+07
7.52979e+07
7.64783e+07
7.86525e+07
8.13155e+07
8.57914e+07
9.01279e+07
9.71339e+07
1.0515e+08
1.08832e+08
1.12264e+08
1.15866e+08
7.22402e+07
6.54386e+07
6.62353e+07
6.69712e+07
6.78363e+07
6.92302e+07
7.08371e+07
7.36154e+07
7.68717e+07
8.21629e+07
8.71962e+07
9.52283e+07
1.04492e+08
1.09302e+08
1.13662e+08
1.18333e+08
6.50817e+07
5.71471e+07
5.80623e+07
5.90709e+07
6.02217e+07
6.20748e+07
6.41324e+07
6.75789e+07
7.15157e+07
7.77303e+07
8.35965e+07
9.2829e+07
1.03498e+08
1.09705e+08
1.15218e+08
1.21254e+08
5.67261e+07
4.74361e+07
4.85026e+07
4.97865e+07
5.12637e+07
5.35857e+07
5.61483e+07
6.03101e+07
6.50202e+07
7.2266e+07
7.90971e+07
8.97272e+07
1.01987e+08
1.0991e+08
1.16838e+08
1.24609e+08
4.6958e+07
3.61576e+07
3.73644e+07
3.89269e+07
4.07567e+07
4.3531e+07
4.66618e+07
5.15612e+07
5.71191e+07
6.54903e+07
7.34305e+07
8.56462e+07
9.96514e+07
1.09712e+08
1.18385e+08
1.28348e+08
3.56176e+07
2.30891e+07
2.44149e+07
2.62486e+07
2.84188e+07
3.16459e+07
3.53619e+07
4.10061e+07
4.74694e+07
5.70346e+07
6.62099e+07
8.02049e+07
9.61378e+07
1.08828e+08
1.19645e+08
1.32378e+08
2.24978e+07
8.04441e+06
9.46808e+06
1.15367e+07
1.40144e+07
1.76932e+07
2.19528e+07
2.8326e+07
3.5703e+07
4.65221e+07
5.70805e+07
7.30131e+07
9.11849e+07
1.06848e+08
1.20358e+08
1.36466e+08
7.41162e+06
-9.1536e+06
-7.66734e+06
-5.4032e+06
-2.66623e+06
1.38859e+06
6.13545e+06
1.3168e+07
2.14391e+07
3.34834e+07
4.55562e+07
6.35038e+07
8.42289e+07
1.03188e+08
1.20053e+08
1.40291e+08
-9.81377e+06
-2.86111e+07
-2.7112e+07
-2.47295e+07
-2.18359e+07
-1.75255e+07
-1.24129e+07
-4.8496e+06
4.19799e+06
1.7328e+07
3.08963e+07
5.08544e+07
7.42481e+07
9.70235e+07
1.17934e+08
1.43545e+08
-2.92825e+07
-5.04279e+07
-4.89766e+07
-4.65899e+07
-4.36641e+07
-3.92801e+07
-3.39834e+07
-2.61153e+07
-1.65246e+07
-2.56061e+06
1.22835e+07
3.40876e+07
6.00978e+07
8.7143e+07
1.1289e+08
1.45689e+08
-5.1079e+07
-7.46223e+07
-7.32926e+07
-7.10329e+07
-6.82322e+07
-6.40087e+07
-5.87657e+07
-5.09661e+07
-4.11883e+07
-2.68494e+07
-1.11724e+07
1.20502e+07
4.03447e+07
7.16422e+07
1.02647e+08
1.44621e+08
-7.52203e+07
-1.01087e+08
-9.99667e+07
-9.80007e+07
-9.55295e+07
-9.175e+07
-8.69061e+07
-7.96442e+07
-7.01899e+07
-5.61447e+07
-4.03592e+07
-1.66031e+07
1.30342e+07
4.75679e+07
8.2744e+07
1.33717e+08
-1.01593e+08
-1.29635e+08
-1.28818e+08
-1.27334e+08
-1.2542e+08
-1.22422e+08
-1.18386e+08
-1.12183e+08
-1.03715e+08
-9.08314e+07
-7.59714e+07
-5.31236e+07
-2.39322e+07
1.10807e+07
4.65263e+07
9.9405e+07
-1.30002e+08
-1.59904e+08
-1.59487e+08
-1.58656e+08
-1.57556e+08
-1.55676e+08
-1.52895e+08
-1.48339e+08
-1.41582e+08
-1.30818e+08
-1.1801e+08
-9.76011e+07
-7.05725e+07
-3.74036e+07
-4.13429e+06
4.75922e+07
-1.60102e+08
-1.91407e+08
-1.91481e+08
-1.91467e+08
-1.91428e+08
-1.91013e+08
-1.89931e+08
-1.87638e+08
-1.83325e+08
-1.75736e+08
-1.66216e+08
-1.49987e+08
-1.27142e+08
-9.86734e+07
-7.07021e+07
-2.44637e+07
-1.91399e+08
-2.23531e+08
-2.24178e+08
-2.25139e+08
-2.26375e+08
-2.2772e+08
-2.28744e+08
-2.2925e+08
-2.28077e+08
-2.24653e+08
-2.19615e+08
-2.09241e+08
-1.92525e+08
-1.7151e+08
-1.51788e+08
-1.15209e+08
-2.23291e+08
-2.55582e+08
-2.56859e+08
-2.58901e+08
-2.61567e+08
-2.64878e+08
-2.6832e+08
-2.72026e+08
-2.74609e+08
-2.76157e+08
-2.76687e+08
-2.7373e+08
-2.65047e+08
-2.54264e+08
-2.45819e+08
-2.23153e+08
-2.55092e+08
-2.86757e+08
-2.88688e+08
-2.91833e+08
-2.96002e+08
-3.01368e+08
-3.07393e+08
-3.14527e+08
-3.21256e+08
-3.2831e+08
-3.35228e+08
-3.40939e+08
-3.41958e+08
-3.44003e+08
-3.4992e+08
-3.45614e+08
-2.86022e+08
-3.16181e+08
-3.18748e+08
-3.22924e+08
-3.28573e+08
-3.35933e+08
-3.44533e+08
-3.55113e+08
-3.66074e+08
-3.78864e+08
-3.92596e+08
-4.07804e+08
-4.19933e+08
-4.37449e+08
-4.61699e+08
-4.83545e+08
-3.15231e+08
-3.43031e+08
-3.46177e+08
-3.51268e+08
-3.58246e+08
-3.67388e+08
-3.78332e+08
-3.92061e+08
-4.06968e+08
-4.25203e+08
-4.45502e+08
-4.70099e+08
-4.93622e+08
-5.2767e+08
-5.7224e+08
-6.25255e+08
-3.41895e+08
-3.66601e+08
-3.70235e+08
-3.76053e+08
-3.84091e+08
-3.94634e+08
-4.07459e+08
-4.23704e+08
-4.41857e+08
-4.64609e+08
-4.90421e+08
-5.23003e+08
-5.56376e+08
-6.0503e+08
-6.67229e+08
-7.47383e+08
-3.65319e+08
-3.86322e+08
-3.90314e+08
-3.96606e+08
-4.05381e+08
-4.16848e+08
-4.30965e+08
-4.48869e+08
-4.69228e+08
-4.94967e+08
-5.24099e+08
-5.61985e+08
-6.03519e+08
-6.66612e+08
-7.46882e+08
-8.65247e+08
-3.84948e+08
-4.02063e+08
-4.06209e+08
-4.12568e+08
-4.21473e+08
-4.32991e+08
-4.47242e+08
-4.65233e+08
-4.86034e+08
-5.12685e+08
-5.43263e+08
-5.82958e+08
-6.27488e+08
-6.90627e+08
-7.66904e+08
-8.77392e+08
-4.00656e+08
-4.12163e+08
-4.16341e+08
-4.22625e+08
-4.31511e+08
-4.42917e+08
-4.57168e+08
-4.75132e+08
-4.96601e+08
-5.24521e+08
-5.56386e+08
-5.95405e+08
-6.36662e+08
-6.92024e+08
-7.54752e+08
-8.39734e+08
-4.10784e+08
-4.20337e+08
-4.24976e+08
-4.31795e+08
-4.41582e+08
-4.54086e+08
-4.69717e+08
-4.88738e+08
-5.10882e+08
-5.37272e+08
-5.65346e+08
-5.98709e+08
-6.3157e+08
-6.76275e+08
-7.22988e+08
-7.85445e+08
-4.18859e+08
-4.35435e+08
-4.4025e+08
-4.47096e+08
-4.56891e+08
-4.69103e+08
-4.83984e+08
-5.01005e+08
-5.19648e+08
-5.40563e+08
-5.62094e+08
-5.86799e+08
-6.11682e+08
-6.4647e+08
-6.80053e+08
-7.23424e+08
-4.33906e+08
-4.46836e+08
-4.50992e+08
-4.56563e+08
-4.64395e+08
-4.73836e+08
-4.85014e+08
-4.9786e+08
-5.11477e+08
-5.27304e+08
-5.43359e+08
-5.62794e+08
-5.83286e+08
-6.09156e+08
-6.3202e+08
-6.60067e+08
-4.45521e+08
-4.42902e+08
-4.46401e+08
-4.50845e+08
-4.57139e+08
-4.64494e+08
-4.73125e+08
-4.82915e+08
-4.93481e+08
-5.06574e+08
-5.19977e+08
-5.356e+08
-5.50571e+08
-5.68679e+08
-5.83032e+08
-5.99457e+08
-4.4183e+08
-4.32457e+08
-4.35414e+08
-4.38983e+08
-4.44201e+08
-4.50224e+08
-4.57426e+08
-4.65539e+08
-4.74295e+08
-4.84216e+08
-4.94175e+08
-5.05412e+08
-5.15768e+08
-5.27422e+08
-5.353e+08
-5.43234e+08
-4.31605e+08
-4.20465e+08
-4.22869e+08
-4.25595e+08
-4.29677e+08
-4.34246e+08
-4.39739e+08
-4.45787e+08
-4.52311e+08
-4.59529e+08
-4.66615e+08
-4.7417e+08
-4.80525e+08
-4.86987e+08
-4.89894e+08
-4.91502e+08
-4.1981e+08
-4.05679e+08
-4.07597e+08
-4.09621e+08
-4.12753e+08
-4.16136e+08
-4.20236e+08
-4.24586e+08
-4.29221e+08
-4.34009e+08
-4.385e+08
-4.42847e+08
-4.45954e+08
-4.48359e+08
-4.47611e+08
-4.44757e+08
-4.05192e+08
-3.89482e+08
-3.90945e+08
-3.92338e+08
-3.94588e+08
-3.9688e+08
-3.99679e+08
-4.02472e+08
-4.05386e+08
-4.08114e+08
-4.10438e+08
-4.12182e+08
-4.12705e+08
-4.12013e+08
-4.0859e+08
-4.02575e+08
-3.89144e+08
-3.72009e+08
-3.73069e+08
-3.73931e+08
-3.75423e+08
-3.76798e+08
-3.78495e+08
-3.79983e+08
-3.8145e+08
-3.82467e+08
-3.83011e+08
-3.8268e+08
-3.81214e+08
-3.78228e+08
-3.72929e+08
-3.64789e+08
-3.71797e+08
-3.53843e+08
-3.54545e+08
-3.54955e+08
-3.5579e+08
-3.56384e+08
-3.57137e+08
-3.57532e+08
-3.57794e+08
-3.57432e+08
-3.56564e+08
-3.5464e+08
-3.5169e+08
-3.47063e+08
-3.40507e+08
-3.31024e+08
-3.53737e+08
-3.3528e+08
-3.35674e+08
-3.35713e+08
-3.35999e+08
-3.35954e+08
-3.35932e+08
-3.35448e+08
-3.34743e+08
-3.33303e+08
-3.31347e+08
-3.28237e+08
-3.24221e+08
-3.18468e+08
-3.11117e+08
-3.00831e+08
-3.35263e+08
-3.16654e+08
-3.16785e+08
-3.16524e+08
-3.16357e+08
-3.158e+08
-3.15153e+08
-3.13977e+08
-3.12518e+08
-3.10265e+08
-3.07502e+08
-3.03552e+08
-2.98816e+08
-2.9236e+08
-2.846e+08
-2.74e+08
-3.16707e+08
-2.98197e+08
-2.98111e+08
-2.97617e+08
-2.97087e+08
-2.96132e+08
-2.94999e+08
-2.933e+08
-2.91274e+08
-2.88431e+08
-2.85098e+08
-2.80586e+08
-2.754e+08
-2.68548e+08
-2.60633e+08
-2.49977e+08
-2.98307e+08
-2.80112e+08
-2.79849e+08
-2.79179e+08
-2.78366e+08
-2.77115e+08
-2.75615e+08
-2.73537e+08
-2.71105e+08
-2.6786e+08
-2.64154e+08
-2.59308e+08
-2.53892e+08
-2.46898e+08
-2.39049e+08
-2.28609e+08
-2.80264e+08
-2.62547e+08
-2.62145e+08
-2.61347e+08
-2.60324e+08
-2.58861e+08
-2.57099e+08
-2.54763e+08
-2.52059e+08
-2.48566e+08
-2.44644e+08
-2.3964e+08
-2.34156e+08
-2.27196e+08
-2.19545e+08
-2.09451e+08
-2.6273e+08
-2.45614e+08
-2.45105e+08
-2.44223e+08
-2.43049e+08
-2.41447e+08
-2.3951e+08
-2.37016e+08
-2.34151e+08
-2.30534e+08
-2.26522e+08
-2.21496e+08
-2.16072e+08
-2.0928e+08
-2.01932e+08
-1.92291e+08
-2.45819e+08
-2.2939e+08
-2.28804e+08
-2.27871e+08
-2.26599e+08
-2.24916e+08
-2.22877e+08
-2.20307e+08
-2.17369e+08
-2.13724e+08
-2.09719e+08
-2.04774e+08
-1.99501e+08
-1.92971e+08
-1.85993e+08
-1.76876e+08
-2.29608e+08
-2.13925e+08
-2.13287e+08
-2.12332e+08
-2.11002e+08
-2.09288e+08
-2.07204e+08
-2.04621e+08
-2.0168e+08
-1.98082e+08
-1.94157e+08
-1.89368e+08
-1.84309e+08
-1.78101e+08
-1.71527e+08
-1.62945e+08
-2.1415e+08
-1.99246e+08
-1.98576e+08
-1.9762e+08
-1.96269e+08
-1.9456e+08
-1.92478e+08
-1.89932e+08
-1.87041e+08
-1.83546e+08
-1.79754e+08
-1.75175e+08
-1.70376e+08
-1.64534e+08
-1.58393e+08
-1.50387e+08
-1.99472e+08
-1.85359e+08
-1.84675e+08
-1.83735e+08
-1.82389e+08
-1.80716e+08
-1.78671e+08
-1.76199e+08
-1.73398e+08
-1.70044e+08
-1.66424e+08
-1.62088e+08
-1.57574e+08
-1.52111e+08
-1.46397e+08
-1.38934e+08
-1.85582e+08
-1.72259e+08
-1.71574e+08
-1.70664e+08
-1.69344e+08
-1.67727e+08
-1.65746e+08
-1.63374e+08
-1.60692e+08
-1.57507e+08
-1.54084e+08
-1.50013e+08
-1.45798e+08
-1.40727e+08
-1.35442e+08
-1.28528e+08
-1.72475e+08
-1.59927e+08
-1.59252e+08
-1.5838e+08
-1.57103e+08
-1.55557e+08
-1.53659e+08
-1.51406e+08
-1.48863e+08
-1.45863e+08
-1.42649e+08
-1.38852e+08
-1.34939e+08
-1.30251e+08
-1.25375e+08
-1.18971e+08
-1.60135e+08
-1.48337e+08
-1.4768e+08
-1.46854e+08
-1.45631e+08
-1.44166e+08
-1.42364e+08
-1.40241e+08
-1.37847e+08
-1.35041e+08
-1.32045e+08
-1.28523e+08
-1.24907e+08
-1.20592e+08
-1.16106e+08
-1.10185e+08
-1.48535e+08
-1.37457e+08
-1.36825e+08
-1.36047e+08
-1.34886e+08
-1.33509e+08
-1.31811e+08
-1.29824e+08
-1.27585e+08
-1.24976e+08
-1.22196e+08
-1.18944e+08
-1.15617e+08
-1.11658e+08
-1.0754e+08
-1.02071e+08
-1.37644e+08
-1.27252e+08
-1.26649e+08
-1.25922e+08
-1.24826e+08
-1.2354e+08
-1.2195e+08
-1.20101e+08
-1.18018e+08
-1.15603e+08
-1.13036e+08
-1.10044e+08
-1.06992e+08
-1.03367e+08
-9.95868e+07
-9.45265e+07
-1.27427e+08
-1.17684e+08
-1.17112e+08
-1.16435e+08
-1.15409e+08
-1.14213e+08
-1.12732e+08
-1.11019e+08
-1.09091e+08
-1.06864e+08
-1.04502e+08
-1.01759e+08
-9.89671e+07
-9.56575e+07
-9.21948e+07
-8.75238e+07
-1.17847e+08
-1.08712e+08
-1.08174e+08
-1.07548e+08
-1.0659e+08
-1.05483e+08
-1.0411e+08
-1.02529e+08
-1.00751e+08
-9.87045e+07
-9.65372e+07
-9.40275e+07
-9.14775e+07
-8.84571e+07
-8.52808e+07
-8.09512e+07
-1.08864e+08
-1.003e+08
-9.9795e+07
-9.92177e+07
-9.83284e+07
-9.73075e+07
-9.60386e+07
-9.45846e+07
-9.29485e+07
-9.10734e+07
-8.90898e+07
-8.67987e+07
-8.44742e+07
-8.17228e+07
-7.8813e+07
-7.48058e+07
-1.0044e+08
-9.24082e+07
-9.19369e+07
-9.14061e+07
-9.05828e+07
-8.9644e+07
-8.84747e+07
-8.71406e+07
-8.56395e+07
-8.39244e+07
-8.2112e+07
-8.0023e+07
-7.79055e+07
-7.53988e+07
-7.27279e+07
-6.90055e+07
-9.2537e+07
-8.50007e+07
-8.45622e+07
-8.40753e+07
-8.3315e+07
-8.24537e+07
-8.13787e+07
-8.01569e+07
-7.87822e+07
-7.72158e+07
-7.55622e+07
-7.36595e+07
-7.17317e+07
-6.94485e+07
-6.69949e+07
-6.35307e+07
-8.51189e+07
-7.80424e+07
-7.76354e+07
-7.71895e+07
-7.64889e+07
-7.56999e+07
-7.47132e+07
-7.35958e+07
-7.23385e+07
-7.09094e+07
-6.94018e+07
-6.76695e+07
-6.59147e+07
-6.38345e+07
-6.15771e+07
-5.83473e+07
-7.81508e+07
-7.15005e+07
-7.11234e+07
-7.07156e+07
-7.00709e+07
-6.93488e+07
-6.84442e+07
-6.7423e+07
-6.62739e+07
-6.49707e+07
-6.35966e+07
-6.20194e+07
-6.04212e+07
-5.85237e+07
-5.64408e+07
-5.34154e+07
-7.15997e+07
-6.53445e+07
-6.49956e+07
-6.46227e+07
-6.40298e+07
-6.33692e+07
-6.25403e+07
-6.16073e+07
-6.05574e+07
-5.93689e+07
-5.81165e+07
-5.66802e+07
-5.52242e+07
-5.34929e+07
-5.157e+07
-4.87365e+07
-6.54353e+07
-5.9546e+07
-5.92234e+07
-5.88823e+07
-5.83372e+07
-5.77327e+07
-5.69729e+07
-5.61201e+07
-5.51604e+07
-5.40759e+07
-5.29335e+07
-5.16242e+07
-5.02954e+07
-4.8712e+07
-4.69289e+07
-4.42591e+07
-5.96292e+07
-5.40793e+07
-5.37807e+07
-5.34685e+07
-5.29669e+07
-5.24132e+07
-5.17163e+07
-5.0936e+07
-5.00579e+07
-4.90672e+07
-4.80239e+07
-4.6829e+07
-4.56149e+07
-4.41655e+07
-4.25102e+07
-3.99937e+07
-5.41555e+07
-4.89205e+07
-4.86441e+07
-4.83577e+07
-4.78956e+07
-4.73874e+07
-4.67472e+07
-4.60319e+07
-4.5227e+07
-4.43202e+07
-4.33655e+07
-4.22724e+07
-4.11601e+07
-3.98292e+07
-3.82855e+07
-3.59015e+07
-4.89905e+07
-4.40486e+07
-4.37921e+07
-4.35287e+07
-4.3102e+07
-4.26344e+07
-4.20448e+07
-4.13872e+07
-4.06476e+07
-3.98153e+07
-3.89393e+07
-3.79368e+07
-3.69147e+07
-3.56893e+07
-3.42448e+07
-3.19792e+07
-4.4113e+07
-3.94443e+07
-3.92058e+07
-3.89625e+07
-3.85674e+07
-3.81353e+07
-3.75907e+07
-3.69839e+07
-3.63018e+07
-3.55351e+07
-3.47281e+07
-3.38053e+07
-3.28625e+07
-3.17302e+07
-3.03729e+07
-2.82133e+07
-3.9504e+07
-3.50911e+07
-3.48685e+07
-3.46425e+07
-3.42751e+07
-3.3874e+07
-3.33685e+07
-3.28058e+07
-3.21738e+07
-3.14641e+07
-3.07172e+07
-2.98636e+07
-2.89894e+07
-2.79376e+07
-2.66549e+07
-2.45844e+07
-3.51466e+07
-3.0974e+07
-3.07654e+07
-3.05541e+07
-3.02108e+07
-2.98359e+07
-2.93642e+07
-2.88392e+07
-2.82502e+07
-2.75891e+07
-2.68936e+07
-2.60996e+07
-2.52843e+07
-2.4303e+07
-2.30861e+07
-2.10986e+07
-3.1026e+07
-2.70805e+07
-2.68841e+07
-2.66849e+07
-2.63621e+07
-2.6009e+07
-2.55658e+07
-2.50721e+07
-2.45191e+07
-2.38986e+07
-2.3246e+07
-2.25016e+07
-2.17351e+07
-2.08121e+07
-1.96484e+07
-1.77265e+07
-2.71297e+07
-2.34e+07
-2.3214e+07
-2.30243e+07
-2.27187e+07
-2.2383e+07
-2.19633e+07
-2.14948e+07
-2.0971e+07
-2.03833e+07
-1.97653e+07
-1.90613e+07
-1.83344e+07
-1.74602e+07
-1.63412e+07
-1.44783e+07
-2.3447e+07
-1.99238e+07
-1.97465e+07
-1.95639e+07
-1.92721e+07
-1.89498e+07
-1.85484e+07
-1.80992e+07
-1.7598e+07
-1.70353e+07
-1.64435e+07
-1.57703e+07
-1.5073e+07
-1.4236e+07
-1.31499e+07
-1.13317e+07
-1.99692e+07
-1.66451e+07
-1.64749e+07
-1.62971e+07
-1.60159e+07
-1.57029e+07
-1.53152e+07
-1.48794e+07
-1.43942e+07
-1.38488e+07
-1.32751e+07
-1.26232e+07
-1.1946e+07
-1.11353e+07
-1.00716e+07
-8.28646e+06
-1.66894e+07
-1.35587e+07
-1.33943e+07
-1.32192e+07
-1.29456e+07
-1.26381e+07
-1.22592e+07
-1.18313e+07
-1.13557e+07
-1.08201e+07
-1.02561e+07
-9.61592e+06
-8.94862e+06
-8.15282e+06
-7.10019e+06
-5.33626e+06
-1.36026e+07
-1.06615e+07
-1.05016e+07
-1.0327e+07
-1.00583e+07
-9.75264e+06
-9.37837e+06
-8.95291e+06
-8.48063e+06
-7.94721e+06
-7.38461e+06
-6.74623e+06
-6.07828e+06
-5.28475e+06
-4.23017e+06
-2.47101e+06
-1.07055e+07
-7.9516e+06
-7.79517e+06
-7.61919e+06
-7.35303e+06
-7.04592e+06
-6.67213e+06
-6.24408e+06
-5.76913e+06
-5.23069e+06
-4.6612e+06
-4.01473e+06
-3.3355e+06
-2.53196e+06
-1.46364e+06
302252
-7.99605e+06
-5.4286e+06
-5.27477e+06
-5.09596e+06
-4.83017e+06
-4.51886e+06
-4.14196e+06
-3.70678e+06
-3.22357e+06
-2.67315e+06
-2.08849e+06
-1.42362e+06
-721354
106960
1.20523e+06
2.99942e+06
-5.47389e+06
-3.09328e+06
-2.9415e+06
-2.75873e+06
-2.49169e+06
-2.17403e+06
-1.79106e+06
-1.345e+06
-848646
-279988
327599
1.0207e+06
1.75753e+06
2.62484e+06
3.76787e+06
5.607e+06
-3.13965e+06
-947307
-797304
-609974
-340703
-15336.5
375704
835382
1.34875e+06
1.94088e+06
2.5785e+06
3.30941e+06
4.0931e+06
5.01576e+06
6.22269e+06
8.13229e+06
-994856
1.0071e+06
1.15524e+06
1.34712e+06
1.61882e+06
1.95218e+06
2.3521e+06
2.82665e+06
3.35931e+06
3.97844e+06
4.65166e+06
5.42853e+06
6.27075e+06
7.26506e+06
8.55637e+06
1.05643e+07
958443
2.76767e+06
2.9135e+06
3.10917e+06
3.38257e+06
3.72293e+06
4.13096e+06
4.61973e+06
5.17178e+06
5.81897e+06
6.53093e+06
7.35952e+06
8.27067e+06
9.3525e+06
1.07509e+07
1.289e+07
2.71817e+06
4.33262e+06
4.47528e+06
4.67318e+06
4.94648e+06
5.29135e+06
5.70482e+06
6.20473e+06
6.77329e+06
7.44606e+06
8.19595e+06
9.07777e+06
1.0065e+07
1.12476e+07
1.27777e+07
1.50857e+07
4.28272e+06
5.70093e+06
5.83917e+06
6.03692e+06
6.30724e+06
6.65254e+06
7.06665e+06
7.5718e+06
8.15026e+06
8.84147e+06
9.6227e+06
1.05526e+07
1.16167e+07
1.29067e+07
1.4595e+07
1.71078e+07
5.65127e+06
6.87443e+06
7.00667e+06
7.20112e+06
7.46447e+06
7.80453e+06
8.21222e+06
8.71358e+06
9.29089e+06
9.98743e+06
1.07851e+07
1.17481e+07
1.28786e+07
1.42742e+07
1.61572e+07
1.89421e+07
6.82578e+06
7.85659e+06
7.98098e+06
8.16839e+06
8.41992e+06
8.74772e+06
9.13993e+06
9.62543e+06
1.01858e+07
1.08675e+07
1.16554e+07
1.26204e+07
1.37818e+07
1.52551e+07
1.7341e+07
2.04871e+07
7.80986e+06
8.63497e+06
8.75006e+06
8.92725e+06
9.16285e+06
9.4722e+06
9.84073e+06
1.02989e+07
1.08265e+07
1.14715e+07
1.2218e+07
1.31427e+07
1.42728e+07
1.57521e+07
1.79518e+07
2.14604e+07
8.59084e+06
9.33408e+06
9.43589e+06
9.59594e+06
9.80623e+06
1.00841e+07
1.04117e+07
1.08189e+07
1.12806e+07
1.18406e+07
1.2471e+07
1.32361e+07
1.41286e+07
1.52624e+07
1.69258e+07
1.95653e+07
9.29423e+06
9.57827e+06
9.67047e+06
9.81731e+06
1.0009e+07
1.02633e+07
1.05611e+07
1.09318e+07
1.13476e+07
1.18498e+07
1.24032e+07
1.30614e+07
1.37834e+07
1.46311e+07
1.56551e+07
1.76075e+07
9.54172e+06
)
;

boundaryField
{
    wireUpstream
    {
        type            zeroGradient;
    }
    wireDownstream
    {
        type            zeroGradient;
    }
    wireTopContact
    {
        type            zeroGradient;
    }
    front
    {
        type            wedge;
    }
    back
    {
        type            wedge;
    }
}


// ************************************************************************* //
