/*--------------------------------*- C++ -*----------------------------------*\
| =========                 |                                                 |
| \\      /  F ield         | OpenFOAM: The Open Source CFD Toolbox           |
|  \\    /   O peration     | Version:  4.1                                   |
|   \\  /    A nd           | Web:      www.OpenFOAM.org                      |
|    \\/     M anipulation  |                                                 |
\*---------------------------------------------------------------------------*/
FoamFile
{
    version     2.0;
    format      ascii;
    class       volScalarField;
    location    "0.000830";
    object      k;
}
// * * * * * * * * * * * * * * * * * * * * * * * * * * * * * * * * * * * * * //

dimensions      [0 2 -2 0 0 0 0];

internalField   nonuniform List<scalar> 
3072
(
0.7974568
0.82254313
0.84099565
0.84406118
0.84484947
0.84350073
0.84322209
0.84363871
0.84403972
0.84570376
0.84673351
0.84787877
0.84823861
0.84722383
0.84536068
0.84136579
0.83641659
0.83028303
0.82393348
0.81807647
0.81325238
0.81017789
0.80850146
0.80823541
0.93274333
0.99295653
1.0012752
1.006819
1.0113044
1.0157588
1.0186558
1.0201421
1.021889
1.0198283
1.0190253
1.0170226
1.0152885
1.0133598
1.0102298
1.0070254
1.002792
0.9984961
0.99395738
0.98960892
0.9857481
0.98249169
0.98057869
0.9799101
0.76392168
0.79334521
0.7994704
0.80401094
0.80702942
0.81029641
0.81484206
0.8205772
0.82745697
0.83465184
0.84266431
0.85108304
0.86009696
0.86948801
0.87872093
0.88796226
0.89702549
0.90598032
0.91491442
0.92389906
0.93297297
0.94202832
0.95119589
0.9603102
0.63457822
0.65821566
0.66573926
0.67121196
0.67424668
0.67695353
0.68062153
0.68523094
0.69072281
0.69685805
0.70372388
0.71135379
0.71994228
0.72952595
0.73986434
0.75114654
0.76334023
0.77647565
0.7906931
0.80574762
0.82149547
0.83778106
0.85414383
0.87022975
0.55651779
0.57582323
0.58308326
0.58771818
0.58975286
0.59101208
0.59300853
0.59561191
0.59871669
0.60252807
0.60675885
0.61171016
0.6175118
0.62443426
0.63254209
0.6420349
0.65310379
0.665785
0.68040012
0.69672642
0.71464085
0.73385713
0.75348248
0.77288185
0.51314929
0.52797923
0.53531583
0.53860257
0.53868274
0.53743287
0.53654471
0.5358721
0.5354209
0.53572416
0.536346
0.53762782
0.53967541
0.54281643
0.54742373
0.55367619
0.56194916
0.57239462
0.58547137
0.60111187
0.61929178
0.63959905
0.66108143
0.68273608
0.51083252
0.52640202
0.53527554
0.53727993
0.53380307
0.52756295
0.52099636
0.51406664
0.50744601
0.50188403
0.49720241
0.49363618
0.49142633
0.49087341
0.49249121
0.49669516
0.50406164
0.51526763
0.53102363
0.55175242
0.57701914
0.60570396
0.6358021
0.66640619
0.57341178
0.61110792
0.62640412
0.62687317
0.61720376
0.60323443
0.58662573
0.56909596
0.55213387
0.53662248
0.52317218
0.51238746
0.50491277
0.50145156
0.50311544
0.51115065
0.52690562
0.55193193
0.58715632
0.63681686
0.69880683
0.76979751
0.8430085
0.90968434
0.93343232
0.9936168
1.0017486
1.0072034
1.0116307
1.0160486
1.0189002
1.0202827
1.0219258
1.0198073
1.0189743
1.0169204
1.0151792
1.0132656
1.0102017
1.0070597
1.0028406
0.99848834
0.99383197
0.98934259
0.98533477
0.98194649
0.97994938
0.97922618
1.0256659
1.1161544
1.127458
1.1400007
1.1480823
1.1564291
1.1629578
1.1695787
1.1765918
1.1797514
1.1842596
1.187012
1.1901398
1.1933816
1.1953243
1.1979741
1.2001806
1.2035162
1.2075592
1.2123329
1.2176272
1.2227822
1.2286666
1.2348492
0.79698531
0.84086452
0.84752215
0.85502908
0.85867011
0.86226826
0.86685727
0.8729351
0.88038041
0.8884981
0.89780827
0.90781693
0.91875895
0.93037731
0.94207966
0.95402628
0.96604284
0.97840089
0.99127561
1.0045561
1.0182128
1.0319782
1.045695
1.0589514
0.64656036
0.68131792
0.6898384
0.69716115
0.70014057
0.70204245
0.70370578
0.70587378
0.7085678
0.71163125
0.71529662
0.71951573
0.72447457
0.73011043
0.73617888
0.74260693
0.74932721
0.75646546
0.76443268
0.77322429
0.78309298
0.79404328
0.80564277
0.81743557
0.55971666
0.5879099
0.59703878
0.60353005
0.60563054
0.60596028
0.60526487
0.60430257
0.60325212
0.6023023
0.60146429
0.60087209
0.60058478
0.60061097
0.60090899
0.60135097
0.60197273
0.60285017
0.60457716
0.6074483
0.61200496
0.61841602
0.62628114
0.63501479
0.51159467
0.53311442
0.54236973
0.54793888
0.54887665
0.54739246
0.54425813
0.54021553
0.53574755
0.53127974
0.52684555
0.52264738
0.51867593
0.51500429
0.51164789
0.5085284
0.50575658
0.50355295
0.50252995
0.50317186
0.50602713
0.51138253
0.51902392
0.52809426
0.50015918
0.51951796
0.53047843
0.53511648
0.5343167
0.53021046
0.52388763
0.51642037
0.50858579
0.50094616
0.49373078
0.48712351
0.4812745
0.47621119
0.47198301
0.46861668
0.46631366
0.4654417
0.46650813
0.47010908
0.47679167
0.4868029
0.49951272
0.5138895
0.510627
0.52632054
0.53516896
0.53712635
0.5335581
0.52717554
0.52003962
0.51311701
0.50660173
0.50112267
0.49650052
0.49305505
0.49108916
0.49069259
0.49233197
0.49644184
0.50361484
0.51463705
0.53032024
0.55124972
0.577173
0.60698837
0.63810608
0.66913061
0.76256509
0.79144651
0.79729391
0.80163555
0.80452863
0.80774016
0.81229451
0.81807793
0.82505824
0.8325148
0.84088049
0.84969018
0.85898087
0.86860206
0.8779687
0.88717419
0.89604862
0.90479342
0.91346539
0.922169
0.93106534
0.94004507
0.9491869
0.9582453
0.79465
0.8378105
0.84417345
0.85143197
0.8549164
0.85846156
0.86313719
0.8694152
0.87714472
0.88573432
0.8955894
0.90620604
0.91757957
0.92952143
0.94133832
0.95318731
0.964968
0.97714376
0.98984787
1.0029945
1.0166766
1.0305988
1.0444817
1.0578
0.61508955
0.62693917
0.62402962
0.62409324
0.62321377
0.62309108
0.62517527
0.62864519
0.63345111
0.640533
0.64868403
0.65850127
0.66938623
0.68113938
0.69370272
0.70610345
0.71837705
0.73029135
0.74216817
0.75421386
0.76666922
0.77984283
0.79326208
0.80642912
0.52147877
0.53086648
0.52717357
0.52613654
0.52475135
0.52410215
0.52461559
0.52554869
0.52693411
0.52935401
0.53222053
0.53591529
0.540158
0.54490737
0.55016339
0.55525354
0.56012113
0.56470884
0.56943781
0.57477751
0.58115583
0.58898689
0.5980353
0.60770452
0.48536387
0.49541546
0.49264587
0.49173819
0.49009263
0.48883004
0.48787467
0.4868337
0.48579531
0.48506715
0.48447369
0.48422915
0.48418937
0.48432912
0.48459327
0.48460023
0.48429719
0.48384121
0.48376927
0.48472076
0.48727878
0.49180063
0.4981715
0.50562824
0.48214757
0.49370735
0.49364282
0.49426414
0.49307743
0.4913236
0.48886176
0.48590233
0.48270682
0.47950691
0.47643108
0.47358353
0.47097872
0.46851285
0.4660546
0.46346715
0.46081702
0.45831649
0.45654331
0.4561938
0.45788406
0.46189559
0.46806903
0.47550591
0.50997605
0.53152731
0.54098542
0.54663288
0.54760359
0.54616689
0.54299305
0.53898232
0.53457471
0.53024685
0.52607121
0.52218275
0.51857941
0.51514668
0.51183323
0.50861654
0.50564
0.50327923
0.50218056
0.50291598
0.50609066
0.51186468
0.51974695
0.52868737
0.51156449
0.52654768
0.53405774
0.53739254
0.5374648
0.53615572
0.5348976
0.53427867
0.53396018
0.53438951
0.5352479
0.53684159
0.53924249
0.54261982
0.54729377
0.55349398
0.5616827
0.572081
0.5851461
0.60095403
0.61958253
0.64054504
0.66249582
0.68418511
0.63262248
0.65578171
0.66302021
0.66823488
0.67107915
0.67367008
0.67728191
0.68190734
0.68750168
0.69386786
0.70108611
0.7091205
0.71804982
0.72790897
0.73835805
0.74955901
0.76152347
0.77441162
0.78835701
0.80317831
0.81887132
0.83525753
0.85177385
0.86793538
0.64394859
0.67807329
0.68623561
0.69323914
0.69599521
0.69776316
0.69939842
0.7016774
0.70459294
0.70807676
0.71226623
0.71708356
0.72255313
0.72857493
0.73477462
0.74112318
0.74764985
0.75461088
0.7624371
0.77119097
0.78124745
0.79255667
0.80448973
0.81645397
0.52054808
0.52974416
0.52594212
0.52481514
0.52336864
0.52267669
0.52318737
0.52415759
0.52564557
0.52817793
0.53119112
0.53508848
0.53955246
0.54446756
0.54982198
0.55495627
0.55981478
0.56433421
0.56900437
0.5743386
0.58078154
0.58873211
0.59787011
0.60755776
0.4641115
0.4699246
0.46304576
0.45970337
0.45743919
0.45689004
0.45731098
0.45799187
0.45879155
0.45991055
0.46109794
0.46256529
0.46413848
0.46579236
0.4674658
0.46879673
0.46973623
0.4703946
0.47133523
0.4732039
0.47653621
0.4817194
0.48858233
0.49639184
0.45492175
0.46098426
0.45402882
0.45047062
0.44794748
0.44712086
0.44701145
0.44713139
0.44730889
0.4475224
0.44775531
0.44805438
0.44838347
0.44863006
0.44866195
0.44828047
0.44752965
0.44662108
0.44611684
0.44672698
0.44904016
0.45336462
0.45949837
0.46660282
0.48360543
0.49374641
0.49114843
0.49039977
0.48889925
0.48774239
0.48665588
0.48574306
0.4848934
0.48427625
0.48386173
0.48380956
0.48410067
0.48443093
0.48468288
0.48460285
0.48426491
0.48386223
0.48393531
0.48520244
0.48824428
0.49321114
0.49969724
0.50686077
0.55606964
0.5844921
0.59383641
0.60050797
0.60273692
0.60321195
0.60277268
0.60188668
0.60097204
0.60038681
0.60010932
0.60020325
0.60050319
0.60094596
0.60141692
0.60187119
0.602485
0.60340581
0.60518536
0.60825751
0.61319921
0.62002916
0.62803358
0.63637343
0.55336782
0.57284981
0.58027086
0.58502112
0.58715457
0.58850319
0.59046314
0.59314177
0.5963968
0.60044542
0.60510968
0.61058242
0.61679552
0.62398937
0.63222831
0.64181533
0.6529902
0.66582089
0.68052417
0.69691027
0.71496195
0.73430052
0.75384633
0.77287248
0.5549159
0.57385136
0.58090454
0.58532547
0.58717958
0.58830151
0.59018858
0.59274574
0.59589208
0.59985019
0.60433887
0.60961447
0.61572929
0.6228879
0.6310644
0.64045646
0.6513113
0.66376037
0.6781437
0.69432302
0.71231417
0.73180686
0.75176253
0.77139058
0.55784657
0.58553452
0.59438554
0.60064345
0.60255482
0.6027032
0.60191689
0.60096847
0.60005414
0.59934224
0.59887076
0.59873791
0.59889452
0.59926387
0.5996839
0.60006283
0.60054679
0.60129166
0.60293233
0.60582693
0.61060055
0.61736498
0.62553437
0.63442881
0.48458615
0.4944787
0.49160119
0.49062636
0.48891666
0.48762007
0.48660501
0.48555148
0.48455973
0.48391848
0.48343656
0.48335351
0.48353262
0.48385031
0.48421061
0.48427146
0.48397723
0.48347314
0.48337097
0.4843459
0.48696766
0.49157075
0.4979752
0.50541682
0.45475067
0.46075928
0.45376735
0.45019037
0.44766269
0.44682171
0.44670918
0.44684519
0.44705784
0.44731106
0.44756623
0.44789782
0.44825464
0.44852298
0.44857143
0.44819891
0.44744092
0.4465457
0.44605392
0.44666705
0.44896923
0.45327864
0.45940466
0.46651269
0.46278883
0.46867936
0.46193225
0.45872865
0.45661424
0.45616936
0.45654086
0.45738933
0.45839039
0.45958979
0.46090741
0.46246659
0.4642311
0.46596846
0.46757988
0.46879482
0.46974411
0.47056752
0.47178797
0.47409653
0.47791961
0.48348215
0.49041755
0.49794628
0.51789435
0.52757657
0.5242397
0.52355332
0.52248452
0.52213731
0.52259878
0.52377351
0.52551527
0.52811103
0.53129691
0.53535518
0.54011092
0.54516557
0.55049847
0.55561059
0.56068282
0.56563769
0.57082388
0.5767832
0.58384681
0.59213394
0.601109
0.61010029
0.6407087
0.67567575
0.68467112
0.69235013
0.69560482
0.69777652
0.69994159
0.70227339
0.70512927
0.7088022
0.71329143
0.71849015
0.72413408
0.73025541
0.73662425
0.74333336
0.75039227
0.75793268
0.7662058
0.77519285
0.78527265
0.79625202
0.8075276
0.81854104
0.62991474
0.65375241
0.66153056
0.66724116
0.67051207
0.67344049
0.67732445
0.68203501
0.68762321
0.69409443
0.70148621
0.70972904
0.71868447
0.72850801
0.73901932
0.75051701
0.762961
0.77634863
0.79063507
0.80551564
0.82098703
0.83687449
0.8527313
0.86825432
0.51213644
0.52673986
0.53392467
0.53707954
0.53702745
0.53565728
0.53466504
0.53390075
0.53344529
0.53384955
0.53464113
0.53616959
0.53848661
0.54183323
0.5465083
0.55268848
0.56080052
0.57106465
0.58399142
0.59959959
0.61798065
0.63865422
0.66042404
0.68221276
0.51064324
0.53185036
0.540893
0.54631094
0.54710175
0.54548443
0.54225495
0.53818404
0.53378449
0.52945851
0.52524354
0.52131688
0.51764091
0.51419192
0.51092485
0.5077912
0.50493445
0.50264959
0.50158635
0.50227531
0.50530234
0.5108478
0.51859158
0.52767823
0.48205416
0.49356317
0.49344555
0.49402168
0.49279346
0.49096283
0.48841421
0.48539975
0.48217202
0.47897828
0.47590401
0.47308236
0.47052417
0.46811951
0.465699
0.46313075
0.46048148
0.4580282
0.45633252
0.45606018
0.45775856
0.461757
0.46793738
0.4753526
0.48394425
0.49406789
0.49143913
0.49067635
0.48915167
0.48796796
0.48686181
0.48594974
0.48507238
0.48444262
0.48398704
0.48386153
0.48407807
0.48435926
0.48460421
0.48452948
0.48425513
0.48397586
0.48416772
0.48548255
0.48849503
0.49340017
0.49984843
0.50703862
0.51823719
0.5278831
0.52451018
0.52381228
0.52273789
0.52239958
0.52288116
0.52408817
0.52584479
0.52844837
0.53161134
0.5356191
0.54030991
0.54532673
0.55066067
0.55580972
0.56095811
0.56602432
0.57128812
0.57724931
0.58424548
0.59244827
0.60138602
0.61040261
0.61007792
0.622571
0.62041722
0.62118074
0.62088869
0.62122248
0.62333225
0.62711404
0.63235049
0.63956065
0.64807011
0.65831111
0.66974383
0.68182544
0.69460627
0.7073637
0.72030022
0.73301452
0.74561179
0.75828777
0.77111259
0.78416709
0.79695145
0.80900747
0.78936836
0.83423315
0.84180337
0.85003787
0.854207
0.85819568
0.86339193
0.86959051
0.87703237
0.88571665
0.89583138
0.90682242
0.91826801
0.93025312
0.94237207
0.95492968
0.96764073
0.98062089
0.99378639
1.0068768
1.0200121
1.0330126
1.0458974
1.0582942
0.75880318
0.78871968
0.79536739
0.8004258
0.80389074
0.80748121
0.81235674
0.81813154
0.82491297
0.83234184
0.84071601
0.84958107
0.85875101
0.8682303
0.87760916
0.88707777
0.89636857
0.90543197
0.9142272
0.9226983
0.9311306
0.93962834
0.94836495
0.95717331
0.5104979
0.52597372
0.53471429
0.5365784
0.53300313
0.52674584
0.52004096
0.51299604
0.50634129
0.50085626
0.49625963
0.49285705
0.49082301
0.49039706
0.49207299
0.49626945
0.50356607
0.5147076
0.53049248
0.55131126
0.57679786
0.60586304
0.63617198
0.66677811
0.50010238
0.51936999
0.53023902
0.53480472
0.53392715
0.52973944
0.52334428
0.51582752
0.50798239
0.50036643
0.49318555
0.48662659
0.48083486
0.47581951
0.47159868
0.46822525
0.46591279
0.46505909
0.46621919
0.46991769
0.47672439
0.48677037
0.49947138
0.51381945
0.51078641
0.53241795
0.5419454
0.54757474
0.54850442
0.54701863
0.54377421
0.53968225
0.53518461
0.53073127
0.52640528
0.52234923
0.51859598
0.51506878
0.51172572
0.50854219
0.50575062
0.50362349
0.50274552
0.50360756
0.50679259
0.5124972
0.52029395
0.52923139
0.55746725
0.58612203
0.59549322
0.60223678
0.60447938
0.60492975
0.60441272
0.60342935
0.60238709
0.60159025
0.6010796
0.60094067
0.60100746
0.60129162
0.60173096
0.60230375
0.60316245
0.6043642
0.60636396
0.60950507
0.61436006
0.62106165
0.62900625
0.63736494
0.64214145
0.67729582
0.68640605
0.69418957
0.69748227
0.69966313
0.70180794
0.70407393
0.70683557
0.71029714
0.71455833
0.71956282
0.72502045
0.73101922
0.73743172
0.7443338
0.75168005
0.7594289
0.76779635
0.7767691
0.78673096
0.79757568
0.80879248
0.81982105
0.79014248
0.83511259
0.8427788
0.8511067
0.85533003
0.85937253
0.86462177
0.87083542
0.87827821
0.88685994
0.89687518
0.90781408
0.91920418
0.93115222
0.94334702
0.9560562
0.9689305
0.9819383
0.99503206
1.0080138
1.0210226
1.0339192
1.0467612
1.0591589
1.0194793
1.1121875
1.1249717
1.1386946
1.1475656
1.1563909
1.1642436
1.1704203
1.1762978
1.1797218
1.184492
1.18774
1.1904917
1.193496
1.195718
1.1990576
1.2018878
1.2054345
1.2090906
1.2127136
1.2166803
1.2208379
1.2261444
1.2322284
0.92899273
0.99040147
0.99955504
1.0059388
1.0110897
1.0159936
1.0196592
1.0208351
1.0218012
1.0196065
1.0186717
1.0166655
1.0146345
1.0124976
1.0093752
1.0062858
1.002045
0.99749332
0.99240873
0.98724442
0.98276694
0.97932968
0.97748879
0.97702009
0.57311223
0.61072617
0.62598869
0.6263161
0.61677331
0.60253007
0.5858442
0.5683764
0.55153598
0.5360726
0.52268121
0.511978
0.50456272
0.50116885
0.50288299
0.5109478
0.52664086
0.55151887
0.58725696
0.63705767
0.69913206
0.77013829
0.84328863
0.9098561
0.51052848
0.52611336
0.53486138
0.53689737
0.53333189
0.52695962
0.51985395
0.51298982
0.50647692
0.5010405
0.49643389
0.49296874
0.49099324
0.49060119
0.49225148
0.49641099
0.50373998
0.51493707
0.53087698
0.55198659
0.57788304
0.60748194
0.6383225
0.66915582
0.51209328
0.52705997
0.53453476
0.53786416
0.53794461
0.53665519
0.53541812
0.53484068
0.53450852
0.53494178
0.53575692
0.53728481
0.53961701
0.54294018
0.54760064
0.55387059
0.56223455
0.57287589
0.58618991
0.60214051
0.62075071
0.64160213
0.66347916
0.68515626
0.55425203
0.57378846
0.58124562
0.58603961
0.58820154
0.5895672
0.59153065
0.59421002
0.5974399
0.60141367
0.60597544
0.61135953
0.61749264
0.62463302
0.6328976
0.64260325
0.6539529
0.66693129
0.68175272
0.69821839
0.71630404
0.73567244
0.75527879
0.77440135
0.63079298
0.6547199
0.66258095
0.66835524
0.67166171
0.67459786
0.67846991
0.68315124
0.68869817
0.69505769
0.70233197
0.71050796
0.71943064
0.72924133
0.73982246
0.75144381
0.76401088
0.77740183
0.79163856
0.80650339
0.82200943
0.83796948
0.85394565
0.86963652
0.75920302
0.78920921
0.79592977
0.80105304
0.80456947
0.80818409
0.81307393
0.81882804
0.82560124
0.8329746
0.84131702
0.85018922
0.85938203
0.86887949
0.87830157
0.88779743
0.89704639
0.90596437
0.91459331
0.92295631
0.93136289
0.93990172
0.94873235
0.95765743
0.92878946
0.99016062
0.9993219
1.0057141
1.010871
1.0157651
1.0194507
1.0206127
1.021622
1.0194657
1.0185812
1.0166099
1.0146225
1.0125045
1.0093583
1.0061787
1.0018001
0.99712218
0.99194997
0.98674893
0.98229827
0.97892481
0.97716334
0.97677072
0.79444413
0.8200067
0.83891641
0.84250786
0.84372829
0.84263503
0.84229656
0.84278109
0.84323057
0.84475475
0.84571956
0.84685487
0.84729616
0.84630721
0.84435441
0.84020038
0.83505359
0.82869704
0.82216389
0.81624785
0.8115664
0.80877769
0.80739861
0.80730421
0.87190537
0.84930379
0.82889519
0.81060827
0.79468918
0.78113286
0.76969426
0.7603968
0.75303031
0.74762919
0.74438726
0.74298184
0.74391717
0.74678981
0.75152288
0.75800897
0.7652543
0.77411831
0.78328475
0.79400376
0.80691115
0.82308138
0.84362925
0.84752345
0.73592088
0.72136302
0.70816422
0.69641093
0.6864738
0.67826208
0.67159952
0.66643032
0.66246528
0.65980265
0.65819741
0.6577475
0.6584668
0.66017536
0.6630063
0.66672595
0.67140762
0.67719259
0.68378815
0.69189556
0.70131584
0.71262151
0.72541916
0.72703617
0.63865424
0.62830361
0.61879007
0.61025541
0.60305357
0.59713219
0.59233913
0.58867891
0.58596758
0.58437795
0.58368358
0.58410773
0.58553891
0.58793042
0.59138205
0.59568602
0.60103337
0.60726297
0.61436609
0.62237184
0.63096833
0.63996639
0.65054586
0.64841452
0.61455574
0.60230206
0.59047262
0.57933335
0.56953824
0.5612166
0.55432112
0.54915231
0.54575133
0.54443006
0.54509562
0.54791117
0.55269344
0.55928294
0.56753941
0.57704594
0.58765352
0.59888081
0.61041279
0.62163314
0.63205168
0.64079946
0.64992133
0.63894388
0.74447884
0.71148415
0.67701962
0.64358723
0.61352118
0.58719474
0.56551622
0.54926422
0.53853048
0.53355054
0.53406436
0.53977866
0.55008551
0.56429063
0.58159521
0.60108918
0.62188803
0.642989
0.66356369
0.6820385
0.69753114
0.70847141
0.7166976
0.69350517
1.1532793
1.0659321
0.96837062
0.8690174
0.77586945
0.69472953
0.63031352
0.58371367
0.55387463
0.53937781
0.53833972
0.54890291
0.56902248
0.59673812
0.63001775
0.66700839
0.70572408
0.74428218
0.78107042
0.81338879
0.83935966
0.85644204
0.86503421
0.82627585
1.9118167
1.7470726
1.5390565
1.3133474
1.0951961
0.90518429
0.75566563
0.64847206
0.58256126
0.55223059
0.55062907
0.57176976
0.61031323
0.66180196
0.72227069
0.78834198
0.85664991
0.92427705
0.98786369
1.0442009
1.0894092
1.1191998
1.1305505
1.0733591
3.4914555
3.2191318
2.8013377
2.2998018
1.7906131
1.3396764
0.99076286
0.75291553
0.61605241
0.55789459
0.55700264
0.59721239
0.6666621
0.75635507
0.85913278
0.9692324
1.0814132
1.191055
1.2927813
1.3833849
1.4584207
1.5155935
1.5386908
1.4620854
0.5675679
0.56695609
0.56646445
0.56617179
0.56627391
0.5665312
0.56703804
0.56749037
0.56786291
0.56813852
0.56814312
0.56827541
0.56824211
0.56827879
0.56834872
0.56845595
0.56897491
0.56958895
0.57105533
0.57313411
0.57595456
0.58077532
0.58838755
0.61850095
0.5260291
0.5240472
0.52208779
0.52024889
0.51870326
0.51730108
0.51613675
0.51500184
0.51386637
0.51274392
0.51148256
0.51040106
0.50926633
0.50827047
0.50739514
0.50661446
0.50626474
0.50611609
0.50666891
0.50785211
0.50976328
0.51337328
0.51933327
0.54321744
0.49996709
0.49703581
0.49408978
0.49127198
0.48872344
0.4864073
0.48437215
0.4825052
0.48076131
0.47915092
0.47757463
0.47619753
0.47490303
0.47377834
0.47284545
0.47202932
0.47162042
0.47141283
0.4717216
0.47258131
0.47397986
0.47650797
0.48053551
0.49627934
0.48918362
0.48520141
0.48117537
0.47730401
0.47374878
0.470548
0.46775706
0.46531771
0.46317231
0.46132853
0.45969961
0.45837928
0.45728632
0.45642784
0.45584171
0.45541737
0.45537846
0.45552808
0.45601889
0.45690293
0.45801105
0.45947081
0.46104215
0.46806925
0.49441944
0.48857707
0.48256051
0.47671243
0.47126031
0.46633268
0.46204185
0.45836254
0.45526946
0.45274151
0.45068587
0.44915003
0.4480338
0.44729701
0.44695935
0.44687523
0.44717283
0.44769391
0.44838119
0.44938916
0.45033618
0.45091174
0.45031031
0.45110938
0.51972306
0.51033247
0.50044501
0.49060965
0.48128343
0.47281928
0.46540704
0.45909562
0.45387661
0.44968131
0.44640039
0.44398615
0.442299
0.44122592
0.4407296
0.44063566
0.44092382
0.44153254
0.4422055
0.44319066
0.44405922
0.44423028
0.44272861
0.44313784
0.58726381
0.56739502
0.54617064
0.5259395
0.50811155
0.49242706
0.47894898
0.46764275
0.45837527
0.45094689
0.44514438
0.44077688
0.43761018
0.43540663
0.43403204
0.43325882
0.43291556
0.43298621
0.43338365
0.43393864
0.43461129
0.43529733
0.4350386
0.44662733
0.78365426
0.73642638
0.6816759
0.62714993
0.57817497
0.53846594
0.50841683
0.48649172
0.4700352
0.45725181
0.44728256
0.43960028
0.43379172
0.42951952
0.42647104
0.42440962
0.42324462
0.42309733
0.42398622
0.42522562
0.42603737
0.42517292
0.42658866
0.46684812
3.4876163
3.2153636
2.7980403
2.2972459
1.7886211
1.3382089
0.98966148
0.75225855
0.61560121
0.55756852
0.55676918
0.59704385
0.66654778
0.75624732
0.85901609
0.96917498
1.0813753
1.1909534
1.2925079
1.3830781
1.4579339
1.5151229
1.5382511
1.4616357
1.9077116
1.7434373
1.5362244
1.3111433
1.0935991
0.90403979
0.75496742
0.64794364
0.58213817
0.55187687
0.55027915
0.5713599
0.6098168
0.66121131
0.72157659
0.78755147
0.85580831
0.92351663
0.98693103
1.0432573
1.0883661
1.1181996
1.1295706
1.0722916
1.1497773
1.0629932
0.96616285
0.86729688
0.77462501
0.69387376
0.62971924
0.58327819
0.55353535
0.53907199
0.53799547
0.54844557
0.56840618
0.59595253
0.62907636
0.66591847
0.70456639
0.74306655
0.77982091
0.81201912
0.8379024
0.85488046
0.86329159
0.82430882
0.74346774
0.71073601
0.67644026
0.64310885
0.6131279
0.58684903
0.56521712
0.54899573
0.53826236
0.53325136
0.53368741
0.53925735
0.54936566
0.56336497
0.58047405
0.59979088
0.62048557
0.64150359
0.66200419
0.68036964
0.69572633
0.70649218
0.7144751
0.69105059
0.61494501
0.60277822
0.59093034
0.57968164
0.5697688
0.56134065
0.55436979
0.54911235
0.54560081
0.54416399
0.54469517
0.54732718
0.55188039
0.55824659
0.56629923
0.57563243
0.58610896
0.59722971
0.60868029
0.61976325
0.63001761
0.63856744
0.6474454
0.63626026
0.63948228
0.6291991
0.61967459
0.61105166
0.60374795
0.59771831
0.59280961
0.58899188
0.58608538
0.5843064
0.58342737
0.58364038
0.58483258
0.5870126
0.59029094
0.59447457
0.59969213
0.60581405
0.61283756
0.62068224
0.62907001
0.63782621
0.64812683
0.64576047
0.73693341
0.72243512
0.70925974
0.69749499
0.68754255
0.6792693
0.67249313
0.66713621
0.66291725
0.66001368
0.65819847
0.65753474
0.65803317
0.65957281
0.66229693
0.66599826
0.67060594
0.67633324
0.68288487
0.69083892
0.7000137
0.71100137
0.72342662
0.72470221
0.87325287
0.85063559
0.83018222
0.81191172
0.79605287
0.7824827
0.77090744
0.76136112
0.75368057
0.74799091
0.7445146
0.74289521
0.74362322
0.74631891
0.75094645
0.75743269
0.76468936
0.77356675
0.78265942
0.79324346
0.80589875
0.8217199
0.84189979
0.84552219
0.78319399
0.73604074
0.68139317
0.62697251
0.5780754
0.53841297
0.50838461
0.48644222
0.46998416
0.45719911
0.44722631
0.43953895
0.43372521
0.42944789
0.42639263
0.42432081
0.42316338
0.42304164
0.42394917
0.42519988
0.4260209
0.42516458
0.42659781
0.46682238
0.58684035
0.56706684
0.54588288
0.52576485
0.5079745
0.49230492
0.47883305
0.46752815
0.45825944
0.4508276
0.44501795
0.4406405
0.43746286
0.4352513
0.43388444
0.43311964
0.43278981
0.43284256
0.43324108
0.43380181
0.43457118
0.43527537
0.43502033
0.44656497
0.51954065
0.51020247
0.5003382
0.49050907
0.4811821
0.47271537
0.46529744
0.45897661
0.45374449
0.44953362
0.44623403
0.44379802
0.44208881
0.44100375
0.44050244
0.44041419
0.4407001
0.44131686
0.44200203
0.44305347
0.44394786
0.44412985
0.4426282
0.4429876
0.49429417
0.48849711
0.4824955
0.47664623
0.47118634
0.46624849
0.46194356
0.45824426
0.45512601
0.4525707
0.45048492
0.44891498
0.44776417
0.44700279
0.44665096
0.44656776
0.44686543
0.4473972
0.44812432
0.44915117
0.45010921
0.45068701
0.4500872
0.45086772
0.48908399
0.48513653
0.48111988
0.47724727
0.47368698
0.47047556
0.46766829
0.4652019
0.46302068
0.46113863
0.45946963
0.45810464
0.45696577
0.45607143
0.45546268
0.45503399
0.45499175
0.45514952
0.45566173
0.45654859
0.45765241
0.45910164
0.46067125
0.46771865
0.49987711
0.49696914
0.49402802
0.49121215
0.48866727
0.48634837
0.4843007
0.48240468
0.48061935
0.47896447
0.47734192
0.47591274
0.47456468
0.4733979
0.47243774
0.47160393
0.47119234
0.47098522
0.47129952
0.47214234
0.4735135
0.47600949
0.48001823
0.49578579
0.52595862
0.5239881
0.52202579
0.52018626
0.51864983
0.51725467
0.51608785
0.51493007
0.5137568
0.51259418
0.51128976
0.51015543
0.50896451
0.50792563
0.50702347
0.50622235
0.50586806
0.50571378
0.50626231
0.50740902
0.50926379
0.51280521
0.51870588
0.54259739
0.5675194
0.56690492
0.56639426
0.56608536
0.5661897
0.56645467
0.56696574
0.56740438
0.56775151
0.56799969
0.56796815
0.56804902
0.56795598
0.56794607
0.56798624
0.568069
0.56858158
0.56918542
0.57064743
0.57268049
0.57542596
0.58014919
0.5876692
0.61774741
0.87301879
0.85039409
0.82993826
0.81167699
0.79582878
0.78226794
0.77069988
0.7611639
0.75350086
0.74783289
0.74438032
0.74278152
0.74352413
0.7462288
0.75085419
0.75732205
0.76456231
0.77342419
0.78249391
0.79305835
0.80569608
0.82150145
0.84166008
0.84530559
0.73679272
0.72228921
0.70909805
0.69736274
0.68745967
0.67922983
0.67247226
0.66711988
0.66291469
0.66003355
0.65824051
0.65758559
0.65807623
0.6595959
0.66228603
0.66593581
0.67050206
0.67618852
0.68269856
0.69061718
0.69976289
0.71073103
0.72314343
0.7244218
0.63946469
0.62917887
0.61965674
0.61108751
0.60385442
0.59787961
0.59298953
0.58916348
0.58624784
0.5844698
0.58360161
0.58382394
0.58501664
0.58719053
0.59045701
0.59461944
0.59981526
0.6059077
0.61290425
0.6207197
0.6290845
0.63782872
0.64811985
0.64570775
0.61521996
0.60298508
0.59110043
0.57986909
0.56998911
0.56158215
0.55460559
0.54931942
0.54577727
0.54432596
0.54486861
0.54753098
0.55212163
0.55852808
0.56661891
0.5759776
0.58646095
0.59757246
0.60901149
0.62007752
0.63032388
0.63887906
0.64776151
0.63652099
0.74473756
0.71173596
0.67723357
0.64373872
0.61363356
0.58726615
0.56556407
0.54928346
0.53850227
0.53346525
0.53390645
0.5395101
0.54967106
0.56372863
0.58088731
0.60023902
0.62093408
0.64193932
0.66242649
0.68078084
0.69614763
0.70694806
0.71497888
0.6915293
1.1526053
1.0653579
0.96811579
0.86880902
0.77572126
0.69466053
0.63030072
0.58373013
0.55389989
0.53938123
0.53827939
0.54873477
0.56871794
0.59628383
0.62941383
0.6662538
0.70486177
0.74332533
0.78006078
0.81226469
0.83819029
0.85523718
0.8637408
0.82478135
1.9103838
1.7456867
1.5380573
1.3125851
1.094726
0.90489995
0.75556278
0.64835625
0.58243923
0.55210843
0.55046286
0.57151207
0.60993628
0.66127693
0.72157426
0.78748028
0.85564596
0.92328768
0.98667841
1.0430151
1.0882107
1.1181251
1.1296076
1.0723935
3.4888402
3.2162601
2.7986296
2.2976114
1.7889247
1.3384025
0.98984007
0.75237341
0.61565547
0.55757913
0.55671844
0.59691325
0.66630125
0.75584779
0.85844869
0.96841516
1.0804861
1.1900103
1.2915441
1.3821076
1.4570311
1.5143483
1.5376646
1.4612873
0.56751961
0.56689558
0.56638322
0.56607422
0.56617755
0.56644055
0.56694767
0.56738326
0.56773089
0.56798147
0.56795181
0.5680329
0.56793769
0.56792385
0.56795842
0.56803703
0.56854309
0.56913962
0.57059652
0.57262332
0.57536388
0.58008358
0.58760355
0.61769089
0.52602951
0.52404798
0.52208575
0.52024762
0.51871122
0.51731261
0.516137
0.51496889
0.51379008
0.51262616
0.51132136
0.51018286
0.50898441
0.50793581
0.50702342
0.50621572
0.50585118
0.50568371
0.506223
0.50735759
0.50920313
0.51273885
0.51863919
0.5425342
0.49998511
0.4970592
0.49411598
0.49130174
0.48875707
0.48643321
0.48437317
0.48246222
0.48066777
0.47901032
0.4773884
0.4759576
0.47460606
0.47343512
0.47247086
0.47163585
0.47121674
0.4709965
0.47129748
0.47212348
0.47348203
0.47597167
0.47997827
0.49574714
0.48920491
0.48522898
0.48120508
0.47733288
0.47377206
0.47055469
0.46773479
0.46525413
0.46306494
0.46118198
0.45951608
0.45815244
0.45701283
0.45611708
0.45550632
0.45507236
0.45502278
0.45516324
0.45565448
0.45651928
0.45760833
0.45905342
0.46062396
0.46767201
0.49443471
0.48859833
0.48258105
0.4767266
0.47126294
0.4663179
0.46200156
0.458291
0.45516761
0.45261301
0.45053044
0.44896035
0.4478066
0.44704069
0.44668248
0.44658817
0.4468711
0.44737779
0.44807564
0.44907676
0.45001986
0.4505974
0.45000719
0.45080345
0.51971821
0.51033399
0.50044466
0.49059983
0.48125929
0.47277908
0.46534845
0.45901789
0.45378139
0.44957009
0.44627088
0.44382996
0.44211148
0.44101475
0.44050001
0.4403939
0.44065965
0.4412475
0.44190224
0.44292426
0.44380476
0.44398971
0.44250587
0.4428995
0.58708289
0.5672518
0.54602043
0.52587339
0.50805361
0.4923621
0.47887421
0.46755879
0.45828489
0.45085062
0.44503727
0.44064864
0.4374555
0.43522735
0.43384144
0.43305547
0.43269887
0.43273249
0.43310675
0.43364733
0.4343941
0.4351023
0.43486594
0.44644432
0.78330778
0.73613177
0.68146108
0.62702243
0.57811526
0.53844091
0.50839873
0.48644435
0.4699832
0.45719612
0.44721909
0.43952175
0.43369074
0.42939593
0.42632416
0.42423855
0.42305838
0.4229101
0.42379338
0.42502777
0.42584361
0.42499429
0.4264437
0.46668662
3.4879657
3.2157538
2.7982135
2.2971314
1.7884829
1.3380916
0.98964729