/*--------------------------------*- C++ -*----------------------------------*\
| =========                 |                                                 |
| \\      /  F ield         | OpenFOAM: The Open Source CFD Toolbox           |
|  \\    /   O peration     | Version:  4.1                                   |
|   \\  /    A nd           | Web:      www.OpenFOAM.org                      |
|    \\/     M anipulation  |                                                 |
\*---------------------------------------------------------------------------*/
FoamFile
{
    version     2.0;
    format      ascii;
    class       volScalarField;
    location    "0.000110";
    object      k;
}
// * * * * * * * * * * * * * * * * * * * * * * * * * * * * * * * * * * * * * //

dimensions      [0 2 -2 0 0 0 0];

internalField   nonuniform List<scalar> 
6144
(
0.36800696
0.35217444
0.3443687
0.33850791
0.33371616
0.3298331
0.32670369
0.32434045
0.32278831
0.32199616
0.32211179
0.32327779
0.32542124
0.32840914
0.33234832
0.33698732
0.3424031
0.34840614
0.35495815
0.36201881
0.36937266
0.37700435
0.38465193
0.39296872
0.40198676
0.41156475
0.42140717
0.43095259
0.43991516
0.44789021
0.4546383
0.45990561
0.46338784
0.46497278
0.46452607
0.46155883
0.45669976
0.45014957
0.44207378
0.43318343
0.42348054
0.41362168
0.4037475
0.39414991
0.38518542
0.37691085
0.37018164
0.37101279
0.36652177
0.35039309
0.3415696
0.33515624
0.33000866
0.3258767
0.32258187
0.32012792
0.31858082
0.3178996
0.31822821
0.31969892
0.32223332
0.32571221
0.33019056
0.33542215
0.34144178
0.34802606
0.35514028
0.36271326
0.37054392
0.37861066
0.3867327
0.39549682
0.40494545
0.41487587
0.42493399
0.43454747
0.44343002
0.45124611
0.45777327
0.46272592
0.46578864
0.46686487
0.46597375
0.46290022
0.45795604
0.45127461
0.44303726
0.43382679
0.42378313
0.41350394
0.40322448
0.39327453
0.38403886
0.37572752
0.36957907
0.37082205
0.36541538
0.34823069
0.33860183
0.33183756
0.32657267
0.32244747
0.31922755
0.31689405
0.31551427
0.31504775
0.31561679
0.31736635
0.32021619
0.3240355
0.32890394
0.33453046
0.34098353
0.34802218
0.35560771
0.36367402
0.3719869
0.38057971
0.38929069
0.39858769
0.40857365
0.41896686
0.42937304
0.43922732
0.44827238
0.45618736
0.46271674
0.46752375
0.47031022
0.47104562
0.46976797
0.46619674
0.46070396
0.45342681
0.44455736
0.43473795
0.42408149
0.41321802
0.40240293
0.39200612
0.3824724
0.37414814
0.36850549
0.37048939
0.36493175
0.34703017
0.33690613
0.32995567
0.32467428
0.32062076
0.31751673
0.31531727
0.31407467
0.31375247
0.31444223
0.31629277
0.31922566
0.32312571
0.32810911
0.33387968
0.34052568
0.34781808
0.35570628
0.36411984
0.37281303
0.3818528
0.3910209
0.40063467
0.41091002
0.42151819
0.43204007
0.44193393
0.45099123
0.45891446
0.46540684
0.47010113
0.4727417
0.47332903
0.47190077
0.46812744
0.46239584
0.45486019
0.44570063
0.43559444
0.42463169
0.41344902
0.40230709
0.39160689
0.38183807
0.37342508
0.36800482
0.37040043
0.36495353
0.34713208
0.33714433
0.33031628
0.32511606
0.32110594
0.318017
0.31580897
0.31449867
0.31405073
0.31455396
0.31624701
0.31906034
0.32288053
0.32782286
0.33361386
0.34031435
0.34770309
0.35571995
0.36428625
0.37317228
0.38237081
0.39162087
0.40114411
0.41126167
0.42167015
0.43201416
0.44176589
0.45071709
0.45856933
0.46502237
0.4697113
0.47238642
0.47304372
0.47170633
0.46801472
0.46235675
0.45489889
0.44581946
0.4357736
0.42484475
0.41366987
0.40250661
0.39176663
0.38192626
0.37341923
0.36800267
0.37045895
0.3654969
0.34849306
0.33913507
0.33259617
0.32746654
0.32338854
0.32015552
0.31776828
0.31624079
0.31555067
0.3157662
0.31723043
0.31986733
0.3235465
0.32833889
0.33399009
0.34055091
0.34779379
0.35565445
0.36403764
0.37272088
0.38166368
0.39060887
0.39969164
0.40931654
0.41927186
0.42925909
0.43878371
0.44761078
0.45541363
0.46189392
0.46670404
0.46959341
0.4705144
0.46947795
0.46613006
0.46081476
0.45370447
0.44501293
0.43532721
0.42475132
0.41392095
0.40306397
0.39256577
0.38284798
0.37428535
0.36862334
0.37069249
0.36670446
0.35078862
0.34222824
0.33600068
0.33093383
0.32679196
0.32343243
0.32087887
0.31918555
0.31833664
0.31828639
0.31944483
0.32174519
0.32507794
0.32948567
0.33473811
0.34088341
0.34770675
0.35514084
0.36308003
0.37132006
0.3798192
0.38831043
0.39680988
0.40575648
0.41508633
0.42457636
0.43377163
0.44241516
0.45014794
0.4566646
0.46166784
0.46491532
0.46629092
0.46579495
0.46311625
0.45847426
0.45203427
0.44404042
0.43501513
0.42507541
0.41482489
0.4044402
0.39429266
0.38476648
0.37610203
0.36986792
0.37117413
0.36840096
0.35272673
0.34509859
0.33931224
0.33451616
0.33057073
0.32734159
0.32483228
0.32311744
0.32216831
0.32188488
0.32270809
0.32460175
0.32744327
0.33132532
0.33598759
0.3415431
0.3477757
0.35462029
0.36200896
0.36973918
0.37784
0.38599749
0.39416548
0.40268856
0.41161313
0.42083818
0.42993616
0.43865815
0.44658537
0.45338893
0.45881057
0.46256885
0.46448015
0.4645397
0.46215257
0.45776466
0.45156248
0.44378287
0.43511436
0.42548561
0.4155997
0.40551333
0.39559654
0.38623684
0.37752058
0.37060904
0.37142308
0.36658021
0.35047056
0.34163712
0.33519454
0.33000579
0.32583652
0.32250957
0.32004697
0.3184681
0.3177582
0.31807996
0.31956464
0.32209886
0.32556367
0.33001444
0.33523893
0.34127044
0.34790986
0.35509056
0.36272135
0.37058922
0.37864756
0.38675903
0.39550233
0.40483622
0.41453976
0.42437285
0.43385311
0.44267666
0.45047032
0.45699231
0.46194299
0.46509994
0.46641882
0.46567738
0.46259544
0.4576981
0.45105155
0.44292524
0.43379378
0.42381212
0.41359332
0.40333063
0.39339787
0.3841493
0.37580735
0.36964818
0.37086604
0.36827763
0.35463025
0.3453992
0.33853219
0.3329817
0.3284613
0.32481023
0.32204813
0.3202216
0.31935378
0.31956236
0.32083076
0.32309406
0.32630508
0.33036669
0.33523154
0.34079816
0.3469362
0.35357389
0.36059838
0.36790039
0.37538435
0.38307467
0.391423
0.40031915
0.4094583
0.4185999
0.42739793
0.43553118
0.44277505
0.44891112
0.45359581
0.45661677
0.45793568
0.45750468
0.45545329
0.45179679
0.44657868
0.43998698
0.43222655
0.42360295
0.41445397
0.40510511
0.39590509
0.3872189
0.37941892
0.37382629
0.3729334
0.36775535
0.35376782
0.34414116
0.33705194
0.33142308
0.32690274
0.32329317
0.32058198
0.31882661
0.31806736
0.31839727
0.31979129
0.32217102
0.32549134
0.32966877
0.3346531
0.34035733
0.34664914
0.35346368
0.36069899
0.36824908
0.3760535
0.38415751
0.39290606
0.40217751
0.41158818
0.42087797
0.42973569
0.43787157
0.44510172
0.45117861
0.45570817
0.45851006
0.45959244
0.45893384
0.4566115
0.45270704
0.44722979
0.44040353
0.43244158
0.42363027
0.41429292
0.40478035
0.39545517
0.3867022
0.37896742
0.37363308
0.3728512
0.36748742
0.35300337
0.34302926
0.33579732
0.33016435
0.32571671
0.32222181
0.31962733
0.3179796
0.31732066
0.31773598
0.31919186
0.32160325
0.32492973
0.3291091
0.33410854
0.33985672
0.34624019
0.35319859
0.36063477
0.36844107
0.37657127
0.38503697
0.39405096
0.40357706
0.41318371
0.42255194
0.4314007
0.43950025
0.44669744
0.45271544
0.45714324
0.45983923
0.46082896
0.4600971
0.45770512
0.45372038
0.4481591
0.44123988
0.43317289
0.42423804
0.4147459
0.4050658
0.39555815
0.38663496
0.37879064
0.37352226
0.37287428
0.36747498
0.3530571
0.34324081
0.33615887
0.33062779
0.32623552
0.32276808
0.32017229
0.31846502
0.31767382
0.31791785
0.31923469
0.32154621
0.32480933
0.32895726
0.33395969
0.33973886
0.34619183
0.3532571
0.36082822
0.36878799
0.37703925
0.38554084
0.39444368
0.40385223
0.41336579
0.42263201
0.43137744
0.43938952
0.44650345
0.45244642
0.45683182
0.45952124
0.46053169
0.45984391
0.4575028
0.45356118
0.44806174
0.4412159
0.43320491
0.4243123
0.41486064
0.40521114
0.39570041
0.38673022
0.37881438
0.37358475
0.37294825
0.36775708
0.35392879
0.34461287
0.33779723
0.33233425
0.32788325
0.32429719
0.32156023
0.31967521
0.31866993
0.31868437
0.31983161
0.3220455
0.32527121
0.32941191
0.33441587
0.34019202
0.34663045
0.35366688
0.36117988
0.36903392
0.37709209
0.38530282
0.39377327
0.40274485
0.41192209
0.42096891
0.42959387
0.43755252
0.44463738
0.45058436
0.4550421
0.45786623
0.45903947
0.45853571
0.45638447
0.45260006
0.44726323
0.44060451
0.43276835
0.42404949
0.41479865
0.40533783
0.39598338
0.38710108
0.37917014
0.37389767
0.37306985
0.36839043
0.35498073
0.34603534
0.3393718
0.33391725
0.32941446
0.3257486
0.32291973
0.32095607
0.31988096
0.31974759
0.32073738
0.3228126
0.32592888
0.32998003
0.33489748
0.34057802
0.34691568
0.35383255
0.36119579
0.36886692
0.37669395
0.38458902
0.39256012
0.40092718
0.40960161
0.41834411
0.42683084
0.43477657
0.44191595
0.44796436
0.45263259
0.4557876
0.45734465
0.45726548
0.4555848
0.45219094
0.44720327
0.44086057
0.4332934
0.42479476
0.41572596
0.40635367
0.3970015
0.38805429
0.37992307
0.37431542
0.37330571
0.36693747
0.35112693
0.34246921
0.33606776
0.33085543
0.3266292
0.3232152
0.32060149
0.31884752
0.31793421
0.31780489
0.31889724
0.32115788
0.32449585
0.32893932
0.33424552
0.34048048
0.34739195
0.35491237
0.36292657
0.3712327
0.37978702
0.38830629
0.39674441
0.40542939
0.41442625
0.42366357
0.4327329
0.44135864
0.44912853
0.45569418
0.46079918
0.46424606
0.46588747
0.4656939
0.4632487
0.45886282
0.45261216
0.44485232
0.43600576
0.42615646
0.41596873
0.40552148
0.39524409
0.3855626
0.3767585
0.37036854
0.37139345
0.36552749
0.34843501
0.33884259
0.33206269
0.32674392
0.32255908
0.31927257
0.31689458
0.3154306
0.31486855
0.31538236
0.31711977
0.31995522
0.32374358
0.32856098
0.33419557
0.34068006
0.34780568
0.35550494
0.36366247
0.37205297
0.38067075
0.3894039
0.39869745
0.40852656
0.41858581
0.42866442
0.43832698
0.44728529
0.45514405
0.46164261
0.4664768
0.46941309
0.4704388
0.46933458
0.4657512
0.46032675
0.45313887
0.44444872
0.43473853
0.42416815
0.41340411
0.40261979
0.39223952
0.38269005
0.37431451
0.36864879
0.37057902
0.36779091
0.35387172
0.34431142
0.33725694
0.33162298
0.32707285
0.32341648
0.32066633
0.31886611
0.31804855
0.31832577
0.31967906
0.32204461
0.32536341
0.32954559
0.33455411
0.3402855
0.34661751
0.35348094
0.36076147
0.36835085
0.3761751
0.3842844
0.39300121
0.4022102
0.41152982
0.42072391
0.4295186
0.43762708
0.44482062
0.4508638
0.45541365
0.45826752
0.45941209
0.45879305
0.45650946
0.45261307
0.44719901
0.44042967
0.43248955
0.42370181
0.4144204
0.40494555
0.39562249
0.38685727
0.37908812
0.37373551
0.3729054
0.3672952
0.35324684
0.34354764
0.33643863
0.33083422
0.32634656
0.32277062
0.32007846
0.3183199
0.31756454
0.31788791
0.3192739
0.32165425
0.32496638
0.32914777
0.3341601
0.33992581
0.34632736
0.35330428
0.36076821
0.36861814
0.37679501
0.3853454
0.39453146
0.4042013
0.41389199
0.42330847
0.43219236
0.44030783
0.44747173
0.45342282
0.45778744
0.46039662
0.46125675
0.4603503
0.45771791
0.45349204
0.44775632
0.44070069
0.43254232
0.42357066
0.41413862
0.40456071
0.39517717
0.38640162
0.37871676
0.37356729
0.37278226
0.36698377
0.35242801
0.34243545
0.33524066
0.32967786
0.32529149
0.32184928
0.31928464
0.31763845
0.31698407
0.31737358
0.31879848
0.3211868
0.32447552
0.32862173
0.33360674
0.33937828
0.34584225
0.35294353
0.36060405
0.36871899
0.37724148
0.38618773
0.39573286
0.40577429
0.41578849
0.42538842
0.43433023
0.44244803
0.44958757
0.45547433
0.45974003
0.46222659
0.46294949
0.4619112
0.45914557
0.45477056
0.4488878
0.44168197
0.43336867
0.42422765
0.41461748
0.4048658
0.39530296
0.3863547
0.3785466
0.37342317
0.37276401
0.3669474
0.35242757
0.34257349
0.33552192
0.3300648
0.32573482
0.32232506
0.31978252
0.31811655
0.31736613
0.31761182
0.31891873
0.32122157
0.32445304
0.32856589
0.33353666
0.3393173
0.34582702
0.35300913
0.36077225
0.36898736
0.37758045
0.38654533
0.39600352
0.40598625
0.41597984
0.42553305
0.43440625
0.44245375
0.4495132
0.45531823
0.45952137
0.46196046
0.46265456
0.46161164
0.45885591
0.45449382
0.44865094
0.44150917
0.433249
0.42415872
0.41461929
0.40494799
0.39543713
0.38647157
0.37859733
0.37348641
0.37282023
0.36726148
0.35332935
0.34391221
0.33706505
0.33162258
0.32720088
0.32366067
0.32098442
0.31916021
0.31820927
0.31826848
0.31945179
0.32169683
0.32493303
0.32908255
0.33409252
0.33989503
0.34640047
0.35354902
0.36122957
0.36929072
0.37761897
0.38620099
0.39515238
0.40462333
0.41422
0.4235168
0.4322499
0.44022774
0.44724053
0.45303571
0.45729882
0.4598637
0.46072213
0.45987394
0.45733177
0.45316838
0.44753027
0.44062086
0.43257927
0.42371828
0.4144405
0.40502537
0.39572027
0.38685933
0.37897178
0.3738196
0.37295013
0.36791042
0.35422584
0.3449131
0.33802143
0.33245149
0.32791154
0.32426868
0.32149846
0.3195964
0.31857613
0.31857413
0.31969998
0.32191671
0.32517185
0.32935819
0.3344103
0.34023378
0.34672942
0.35381902
0.36137881
0.36926105
0.37732176
0.38550651
0.39386301
0.40260555
0.41157376
0.42050172
0.42907918
0.43704712
0.44413427
0.45007082
0.45459065
0.45754395
0.45886139
0.45852094
0.45654239
0.45285364
0.44762811
0.44108499
0.43333091
0.42469907
0.41557747
0.40618938
0.39678837
0.387781
0.37968698
0.37424716
0.37320873
0.36590719
0.3491643
0.33969924
0.33289098
0.32750223
0.32325466
0.31991118
0.31742339
0.31579625
0.31500488
0.31510601
0.31647617
0.31906553
0.32276845
0.32762103
0.3333637
0.3400726
0.34746605
0.35547369
0.3639813
0.37276785
0.3817947
0.3907751
0.39971577
0.4088763
0.41826696
0.42784333
0.43718078
0.44599825
0.45385308
0.46039954
0.46539677
0.46862968
0.46996806
0.46938678
0.46639014
0.46143032
0.45459121
0.44625649
0.4368503
0.42645268
0.41579748
0.40490609
0.39422109
0.38426733
0.37548383
0.36952559
0.37108448
0.36509775
0.34737281
0.33733117
0.33037362
0.32502988
0.32089757
0.31768629
0.31539642
0.31403311
0.31353354
0.31408585
0.31586238
0.31876918
0.32265743
0.32761331
0.33342559
0.34014754
0.34755257
0.35556952
0.36408812
0.37288074
0.3819604
0.3911343
0.40069873
0.41075524
0.42097604
0.43113178
0.44082623
0.44980674
0.45764841
0.46409059
0.46886115
0.47169198
0.47258109
0.47136986
0.46764373
0.46205494
0.45467893
0.44573805
0.43572471
0.42481449
0.4137138
0.40258355
0.39186295
0.38205539
0.37359173
0.36817225
0.37052009
0.3675683
0.35324237
0.34340434
0.33623388
0.33058695
0.32607078
0.32245732
0.31976559
0.31803138
0.31724879
0.31754251
0.31889851
0.32127495
0.32462191
0.32884135
0.33391355
0.33974179
0.34620907
0.35325062
0.36076388
0.36864253
0.37680033
0.38522709
0.39411628
0.40348113
0.41292454
0.42214798
0.43092153
0.43900432
0.44613804
0.45210371
0.45660658
0.45941678
0.46052176
0.4598907
0.45761361
0.45370641
0.44827854
0.44145794
0.43340058
0.42446266
0.41502413
0.40536337
0.39580394
0.38682077
0.37893567
0.37368159
0.37297755
0.36702458
0.35255233
0.34262415
0.33544644
0.32985617
0.32540314
0.32187498
0.31925531
0.31756356
0.31684904
0.31719175
0.31856898
0.32093568
0.32424465
0.32843705
0.33348533
0.33932081
0.34584012
0.3529894
0.36070021
0.36886668
0.37740347
0.38630785
0.39574904
0.40568547
0.41562759
0.42518077
0.43411858
0.442253
0.44936132
0.45522788
0.45954207
0.46209862
0.46289141
0.46191899
0.45922657
0.4549184
0.4490967
0.44192473
0.4335908
0.42442175
0.41481261
0.40504151
0.39540572
0.38638643
0.37856112
0.3734856
0.37282501
0.36661753
0.35150962
0.341222
0.33393172
0.32837048
0.32399938
0.32059699
0.31811831
0.31656928
0.31600126
0.31645695
0.31790658
0.32030133
0.3236002
0.32777809
0.33281611
0.33866694
0.34525785
0.35253934
0.3604595
0.36889994
0.37779302
0.38713907
0.39706041
0.40750505
0.41791216
0.42777505
0.43686213
0.44504713
0.45214861
0.45795385
0.46216533
0.46458094
0.4651882
0.46401792
0.46112086
0.45658625
0.4505392
0.44314355
0.43458251
0.42517867
0.4153435
0.40536428
0.39551414
0.386281
0.37830883
0.37322575
0.37272698
0.3665652
0.35146703
0.34128473
0.33410247
0.32861027
0.32426537
0.32088552
0.31846119
0.31696164
0.31637992
0.31676021
0.31814042
0.32047619
0.32372621
0.32786416
0.33286843
0.33870109
0.34529916
0.35260702
0.3605636
0.36902317
0.37791495
0.38726462
0.39717331
0.40764225
0.41810418
0.42798823
0.43704489
0.44517015
0.45219746
0.45792415
0.46206249
0.46438871
0.46491269
0.46367913
0.46073886
0.45617529
0.45013959
0.44279194
0.4342854
0.42495082
0.41523123
0.40540488
0.39568099
0.38646513
0.37842194
0.37327275
0.37273297
0.36697511
0.35258285
0.34286031
0.33585339
0.33033444
0.32587956
0.32237673
0.31983954
0.31821605
0.31746644
0.31768964
0.31896962
0.32125317
0.32449954
0.32863955
0.33364106
0.33945644
0.34600387
0.35322206
0.36102483
0.36925176
0.37779313
0.38666842
0.39602314
0.40592147
0.41592072
0.42550512
0.43438826
0.44242161
0.44939662
0.45511105
0.4592942
0.46173107
0.46241167
0.46137294
0.45865788
0.45432464
0.44854317
0.44148488
0.43327279
0.42426236
0.41491088
0.40545341
0.39603588
0.38699955
0.3789756
0.37371708
0.37289638
0.36770683
0.35360104
0.34390091
0.33675418
0.33103717
0.32644253
0.32284513
0.32021793
0.31851361
0.3176881
0.3178904
0.31915358
0.3214567
0.3247679
0.32897837
0.33404983
0.33990369
0.34644439
0.35359024
0.36123722
0.36923654
0.37744863
0.38585191
0.39453907
0.40362577
0.41288673
0.42201989
0.43070385
0.43870576
0.44575512
0.45162579
0.45607276
0.45890585
0.46006777
0.4595706
0.4574743
0.45367559
0.44836898
0.44173323
0.43386924
0.42515515
0.41600044
0.40658117
0.39707096
0.38792854
0.37976774
0.37423841
0.37319024
0.36548973
0.34811178
0.33808489
0.33094975
0.32539293
0.32110926
0.31784289
0.31551841
0.3140982
0.31350897
0.31386332
0.31542658
0.31819104
0.32205259
0.32706049
0.33296214
0.33985077
0.34743473
0.35563996
0.36436448
0.37337957
0.38266041
0.3919271
0.40125764
0.41083655
0.4205749
0.4304172
0.43993344
0.44885312
0.45671268
0.46320639
0.46810659
0.4711591
0.47226116
0.47141521
0.46812852
0.46288089
0.45575385
0.44712122
0.43742845
0.42676379
0.41589798
0.40480937
0.39392008
0.3838337
0.37507376
0.36924568
0.37097303
0.36516075
0.34752868
0.33756899
0.3306721
0.32536434
0.32122904
0.31798555
0.31563341
0.31420446
0.31359757
0.31399545
0.31563475
0.31843201
0.32226746
0.32722046
0.33305713
0.3398443
0.34734477
0.35547775
0.36414563
0.3731222
0.38236392
0.39159847
0.40103146
0.41090899
0.420939
0.43092924
0.44051295
0.44942932
0.45721595
0.46364767
0.46848797
0.47141357
0.47238916
0.47131952
0.46773914
0.46227762
0.45497703
0.44605891
0.43604076
0.42511764
0.41399054
0.40279904
0.3919775
0.38207254
0.37354909
0.36817205
0.37059344
0.36759914
0.35335487
0.34360959
0.33650399
0.33088148
0.32633991
0.32267329
0.31992649
0.31813065
0.31725701
0.31743027
0.31867847
0.32097125
0.32428116
0.32850636
0.33361423
0.33951702
0.34609083
0.35325751
0.36091735
0.3689702
0.37726073
0.38569164
0.39439997
0.40357863
0.41288701
0.42200059
0.43069619
0.43872434
0.44578762
0.4517181
0.45626587
0.45916142
0.46036674
0.45985384
0.45769592
0.45388587
0.44851678
0.44171194
0.43363541
0.42467851
0.4152279
0.40553095
0.39588497
0.38680272
0.37886962
0.37372215
0.37306014
0.36703902
0.35263425
0.34279616
0.33567953
0.3301022
0.32560172
0.32199793
0.31931885
0.31757776
0.31679279
0.3170527
0.31835031
0.32064875
0.32392689
0.32812826
0.33321899
0.33913124
0.34575007
0.3530122
0.36085191
0.36916081
0.37779387
0.38667266
0.39593401
0.40571728
0.41558677
0.42508509
0.43398377
0.4420762
0.44910094
0.45491875
0.45927162
0.46189917
0.46277617
0.46188942
0.45928868
0.45505763
0.44928043
0.44211156
0.43374367
0.42455101
0.41495157
0.40517932
0.39547914
0.38637219
0.37851117
0.3735489
0.37290939
0.36662225
0.35158118
0.34138527
0.33414457
0.32856857
0.32411151
0.32059831
0.31805844
0.31648291
0.31588572
0.31631015
0.31772138
0.32006939
0.32334448
0.32753735
0.33263104
0.33856423
0.34523655
0.35259399
0.360593
0.36910771
0.37802234
0.38731387
0.39710402
0.40746055
0.41786727
0.42774837
0.43684745
0.44500044
0.45200482
0.45775449
0.46199371
0.46445409
0.4651159
0.46399173
0.46115056
0.45666464
0.45064224
0.44324032
0.43463911
0.42521553
0.41542233
0.40549428
0.39561596
0.3863073
0.37830319
0.37328082
0.3727919
0.36657472
0.35154322
0.34141982
0.33422444
0.32863962
0.32414767
0.32062992
0.31816475
0.31670873
0.31620036
0.31665566
0.31808216
0.32042341
0.32367283
0.32783316
0.33288713
0.33877837
0.34540825
0.35271622
0.36065246
0.36906901
0.37787278
0.38711606
0.39696817
0.4074346
0.41797923
0.42797611
0.43711834
0.44524839
0.45220229
0.45788233
0.46203139
0.46436751
0.46488987
0.46364302
0.46070489
0.4561501
0.45011638
0.44275653
0.43422087
0.42489529
0.41525667
0.40553395
0.39584509
0.38659596
0.3785243
0.37333427
0.37274575
0.36700768
0.35268378
0.34296331
0.33587205
0.33020412
0.32558122
0.32196071
0.31941618
0.31788649
0.31728084
0.31765239
0.31903915
0.32136849
0.32462711
0.32877582
0.33379116
0.33961975
0.34615142
0.35331601
0.36103628
0.36915573
0.37755811
0.38630537
0.39563979
0.40557551
0.41567636
0.42539935
0.4344035
0.4424867
0.44943722
0.45512726
0.45931666
0.4617446
0.46239055
0.4613033
0.45855609
0.45421128
0.44842932
0.44136498
0.43314932
0.42418297
0.41492808
0.40557671
0.39621746
0.3872015
0.37919271
0.37381931
0.37287907
0.36776961
0.35373295
0.34398283
0.33670762
0.33082621
0.32607882
0.32239359
0.31977618
0.31817896
0.31751268
0.31789144
0.31929449
0.32167343
0.32501333
0.32922839
0.3342915
0.34012518
0.34661606
0.35367647
0.36120599
0.36905919
0.37711152
0.38539399
0.39409245
0.40326475
0.41266357
0.42193157
0.43072973
0.43879527
0.44584196
0.45169815
0.45614148
0.4589418
0.46004429
0.4594703
0.45731618
0.45348807
0.44817367
0.44153382
0.43368858
0.42503467
0.41597243
0.40665446
0.39722197
0.38815888
0.38007097
0.37440388
0.37318036
0.36554545
0.34821694
0.33811935
0.33085385
0.32515068
0.32073925
0.31740089
0.31507997
0.31375679
0.31331416
0.31386592
0.31559528
0.3184647
0.32237686
0.32738939
0.33326766
0.34011452
0.34762773
0.35573564
0.36433322
0.37318368
0.38230802
0.39146407
0.4008567
0.41059906
0.42053102
0.43052086
0.4401454
0.44912918
0.45699029
0.46346013
0.46832474
0.47129746
0.47229547
0.47132763
0.46793186
0.46261046
0.45543975
0.44678885
0.43712554
0.42652575
0.41574675
0.40477165
0.39400866
0.38406111
0.3754083
0.36947481
0.37097834
0.36571004
0.34884968
0.33944359
0.33279381
0.32753928
0.32332568
0.3199469
0.31743349
0.31583771
0.31506887
0.31525932
0.31671461
0.31932719
0.32299242
0.3277776
0.33343726
0.34003622
0.3473495
0.35529548
0.36375735
0.372517
0.38152733
0.39046727
0.39943418
0.40882157
0.41847274
0.42817484
0.43756352
0.4463681
0.4541152
0.46060002
0.46558813
0.46872932
0.4699446
0.46916542
0.46589695
0.46073418
0.45372045
0.44510125
0.4354131
0.42486244
0.41409166
0.40321187
0.39264089
0.3828828
0.37433422
0.36872993
0.37080041
0.3678903
0.3541921
0.34485918
0.33796178
0.33238966
0.32779409
0.32402834
0.32115602
0.31921498
0.31819299
0.31820485
0.31933649
0.32154311
0.32478513
0.32896424
0.33402611
0.33988546
0.34642175
0.35354252
0.36112278
0.3690599
0.37718496
0.38533701
0.3935984
0.40233963
0.41134994
0.42028749
0.42889127
0.43687753
0.44392741
0.44989514
0.45454625
0.45760205
0.45899489
0.45865909
0.45663062
0.45292425
0.44763605
0.44091053
0.43295727
0.4241902
0.41495315
0.40545609
0.39597814
0.38701545
0.37912311
0.37398678
0.37316887
0.36736107
0.35351268
0.34405165
0.33710945
0.33155456
0.32699086
0.32327685
0.32045501
0.31855407
0.31761411
0.31774037
0.31895715
0.32121374
0.32446812
0.32865833
0.33373649
0.33962572
0.34621313
0.35341976
0.36115156
0.36929216
0.37767324
0.38617098
0.39490258
0.40416638
0.41366237
0.42293999
0.43172579
0.43976054
0.44675843
0.45260023
0.45704674
0.45983675
0.46092099
0.46023868
0.45780632
0.45372705
0.44809021
0.4410563
0.4328557
0.4239015
0.41457055
0.40505295
0.3955588
0.38660374
0.37881906
0.37388275
0.37303617
0.36704072
0.35269223
0.3429374
0.33588188
0.33030749
0.32577123
0.32213393
0.31943595
0.31768805
0.31692269
0.31721155
0.31854057
0.32084769
0.32410228
0.32828541
0.33336345
0.33925642
0.345865
0.35311966
0.36094407
0.36920015
0.37775385
0.38656239
0.39576262
0.40552676
0.41548539
0.42510928
0.43408685
0.44217745
0.44914355
0.45490303
0.4592115
0.46182716
0.46271122
0.46181535
0.45917508
0.45489048
0.44907447
0.44188143
0.43352196
0.42441186
0.4149578
0.40535898
0.39577085
0.38667899
0.37876835
0.37371878
0.37296269
0.36701942
0.35269524
0.3429726
0.33589725
0.33025262
0.3256491
0.32199904
0.31936693
0.31774561
0.31710462
0.31747402
0.31886021
0.32119361
0.32444847
0.32862079
0.33367623
0.3395333
0.34608747
0.35326622
0.36098437
0.36908507
0.37746918
0.38619505
0.39548027
0.40538719
0.41550331
0.42528107
0.43435737
0.44247498
0.44942769
0.45513779
0.45936038
0.46184893
0.46257295
0.46153245
0.4587806
0.45442608
0.44860606
0.44146469
0.43318304
0.4241737
0.41485057
0.40542617
0.39602084
0.3870192
0.37907202
0.37380197
0.37291216
0.3673923
0.35365686
0.34422728
0.33717855
0.3314152
0.32667539
0.322927
0.32022184
0.31854626
0.31785072
0.31818355
0.31956857
0.3219209
0.32520505
0.32938773
0.33442649
0.34024335
0.34671457
0.35375817
0.36126963
0.36909137
0.37711359
0.38540868
0.39429857
0.40380358
0.41357879
0.42315057
0.43214643
0.44027116
0.44726638
0.45302037
0.45731007
0.45988451
0.46069687
0.45976323
0.45714701
0.45294828
0.44732286
0.44042066
0.43240509
0.42368051
0.4146447
0.40549044
0.39634015
0.38755461
0.37969157
0.37420765
0.37297821
0.36812496
0.35465613
0.34522311
0.33802583
0.33209675
0.32726615
0.32346699
0.32070657
0.31898036
0.31823005
0.31854868
0.31993329
0.32230183
0.32562437
0.32982917
0.33486842
0.34065072
0.34704871
0.35396993
0.36129374
0.36888288
0.37661357
0.38451034
0.39290617
0.40181951
0.41103039
0.42021416
0.42902956
0.43715588
0.44426019
0.45017632
0.45470327
0.45761295
0.45882821
0.45833857
0.45622993
0.45246658
0.44723046
0.44069767
0.43301683
0.42455182
0.41565639
0.40650762
0.39729946
0.38850057
0.38057414
0.37476464
0.3732427
0.3660958
0.34952049
0.33989434
0.33278349
0.32707482
0.32258095
0.31911352
0.31664507
0.31518705
0.31463396
0.31509962
0.31677794
0.31956623
0.32337258
0.32825239
0.33396632
0.34059752
0.34784435
0.355654
0.36390399
0.37237711
0.38106976
0.38977359
0.3988732
0.40838732
0.41813607
0.42798963
0.4375526
0.44652337
0.45438889
0.4608817
0.46581036
0.46889864
0.47003583
0.46920215
0.46595518
0.46081325
0.45387633
0.44551178
0.43618699
0.42595339
0.415503
0.40487606
0.39449171
0.38488935
0.37637255
0.37015616
0.37113283
0.36686364
0.35104271
0.3424365
0.33612297
0.33096803
0.32673256
0.32327395
0.32065436
0.31892841
0.3180193
0.3179601
0.31912197
0.32139633
0.32468877
0.32904962
0.33425973
0.34038376
0.34721909
0.35469166
0.3626722
0.3709636
0.37952912
0.3880106
0.39638784
0.40515236
0.41430434
0.42361913
0.43271798
0.44133573
0.44903474
0.45558669
0.46072496
0.46412635
0.46569418
0.46539249
0.46271421
0.45811805
0.45169506
0.44369637
0.43465727
0.42477347
0.4146049
0.40427747
0.39417124
0.3846885
0.37608587
0.36994107
0.3712582
0.36847635
0.35516776
0.34623869
0.33954933
0.33404422
0.32945536
0.32566652
0.32274917
0.32074168
0.31962996
0.31949259
0.32048751
0.32255859
0.3256486
0.32966185
0.33455538
0.34024362
0.34661666
0.35357281
0.36095959
0.36867483
0.37655303
0.38437978
0.39215346
0.4003634
0.40897906
0.41769742
0.42619985
0.43417452
0.4413087
0.44741958
0.45224391
0.45554336
0.45724603
0.45725733
0.45556635
0.45213224
0.44710105
0.44061847
0.43292911
0.42442959
0.41540276
0.40608246
0.39675789
0.38786218
0.37985207
0.37440063
0.37340899
0.36795231
0.35433057
0.34504247
0.3381523
0.33255066
0.3279297
0.32416151
0.32127793
0.31930045
0.31827201
0.31830706
0.31947628
0.32170448
0.32493363
0.32908524
0.33411815
0.33994286
0.34645715
0.35356773
0.36113453
0.36903734
0.37711113
0.38519876
0.39335178
0.40195943
0.41092459
0.41991009
0.42857435
0.43660504
0.44371353
0.44973614
0.45439713
0.4574885
0.45896363
0.4587047
0.45671026
0.45299627
0.4477063
0.44098401
0.4330798
0.42440168
0.41523106
0.40580936
0.39640692
0.38747246
0.37954478
0.37430343
0.37328978
0.36771084
0.35362943
0.34397555
0.33688099
0.33118057
0.32654576
0.32283766
0.32007255
0.3182463
0.31738685
0.31760658
0.3189168
0.32123606
0.32452457
0.32872823
0.3338119
0.33967554
0.34622993
0.35338902
0.36102158
0.3689851
0.37715527
0.38546813
0.39401919
0.40304401
0.41235329
0.42159896
0.43041375
0.43848851
0.44557303
0.45152468
0.4560566
0.45899094
0.46030752
0.45988971
0.45775427
0.4539117
0.44852479
0.44171654
0.43371912
0.42493107
0.41563243
0.40609973
0.39660616
0.38757704
0.37956765
0.37422702
0.37324573
0.36772569
0.3536765
0.34399649
0.33681696
0.33100784
0.32629338
0.3225624
0.31984438
0.31813474
0.31741272
0.31775585
0.31915811
0.32153333
0.3248521
0.32906736
0.33414149
0.33997122
0.34645954
0.35352204
0.36102278
0.36879715
0.37677825
0.38500972
0.39367654
0.40288469
0.41237202
0.4217615
0.43067619
0.43879928
0.4458923
0.45181049
0.45627371
0.45909829
0.46026074
0.4596987
0.45745559
0.45355253
0.44816626
0.44141403
0.43349834
0.42479582
0.41559274
0.40618139
0.39682891
0.38791115
0.37991482
0.37436727
0.37321215
0.36806276
0.35456399
0.3451801
0.33804738
0.33216554
0.32735624
0.32353857
0.3207361
0.31895556
0.31818032
0.31849137
0.31987897
0.3222459
0.32556175
0.32976412
0.33479791
0.3405654
0.3469508
0.35386777
0.36117213
0.3687035
0.37638103
0.38426572
0.39267877
0.40164102
0.41091655
0.42017093
0.42903921
0.437191
0.44433554
0.45029833
0.45483656
0.45774759
0.45895941
0.4584401
0.45625705
0.45243745
0.44716372
0.44058064
0.43287174
0.42438493
0.41540935
0.4062149
0.39708235
0.38837844
0.3804801
0.37472092
0.37324394
0.36876984
0.35568406
0.34655044
0.33946916
0.33357812
0.32876333
0.32492752
0.32208122
0.32023992
0.3193779
0.31959427
0.32087529
0.32313399
0.3263494
0.33044682
0.33535986
0.34098603
0.34721344
0.35394757
0.36104299
0.3683741
0.37582347
0.38336985
0.39143354
0.39998673
0.40884918
0.41779644
0.42651107
0.43465683
0.44187352
0.4479412
0.45265919
0.455833
0.45734552
0.45714967
0.45532747
0.45182144
0.44682759
0.44053673
0.43312411
0.42486779
0.41605519
0.40694275
0.39785635
0.38922355
0.38129939
0.37519571
0.37342968
0.3672279
0.35167422
0.34281443
0.33604795
0.3304778
0.32599866
0.32245647
0.31985636
0.31822537
0.31747814
0.3177277
0.31914078
0.32160675
0.32506222
0.32955773
0.33485723
0.34101893
0.3477837
0.35510009
0.36283327
0.37080896
0.37899232
0.38714735
0.39579056
0.40486235
0.41419072
0.42367834
0.43297907
0.44179974
0.44962247
0.45615169
0.46120808
0.46454477
0.46601176
0.46555792
0.46278853