/*--------------------------------*- C++ -*----------------------------------*\
| =========                 |                                                 |
| \\      /  F ield         | OpenFOAM: The Open Source CFD Toolbox           |
|  \\    /   O peration     | Version:  4.1                                   |
|   \\  /    A nd           | Web:      www.OpenFOAM.org                      |
|    \\/     M anipulation  |                                                 |
\*---------------------------------------------------------------------------*/
FoamFile
{
    version     2.0;
    format      ascii;
    class       pointVectorField;
    location    "0.000110";
    object      pointDisplacement;
}
// * * * * * * * * * * * * * * * * * * * * * * * * * * * * * * * * * * * * * //

dimensions      [0 1 0 0 0 0 0];

internalField   nonuniform List<vector> 
7105
(
(0 0 0)
(0 -9.6205551e-05 -3.444004e-07)
(0 -0.00015886893 -5.3913859e-07)
(0 -0.00020493489 -6.0177513e-07)
(0 -0.00024167428 -5.8156697e-07)
(0 -0.0002719132 -5.2073367e-07)
(0 -0.00029645945 -4.3727923e-07)
(0 -0.00031541389 -3.3428738e-07)
(0 -0.00032865316 -2.3449935e-07)
(0 -0.0003360262 -1.4930094e-07)
(0 -0.00033743762 -7.9791838e-08)
(0 -0.00033288192 -2.5201183e-08)
(0 -0.00032244992 2.3189233e-08)
(0 -0.00030633198 8.3317703e-08)
(0 -0.00028481933 1.4119971e-07)
(0 -0.00025828361 1.8403873e-07)
(0 -0.00022724801 1.9486607e-07)
(0 -0.00019229801 1.1991881e-07)
(0 -0.00015408365 2.6087791e-09)
(0 -0.00011334815 -9.2887125e-08)
(0 -7.0847265e-05 -1.1012394e-07)
(0 -2.7295534e-05 6.1625344e-08)
(0 1.6614985e-05 4.9590873e-07)
(0 6.0172621e-05 1.1562693e-06)
(0 0.00010260593 1.7997445e-06)
(0 0.00014286588 2.1308822e-06)
(0 0.00018017207 2.2016302e-06)
(0 0.00021416901 2.1146266e-06)
(0 0.00024440611 1.8868665e-06)
(0 0.0002704837 1.645413e-06)
(0 0.00029194079 1.3926448e-06)
(0 0.00030845432 1.1002489e-06)
(0 0.00031975074 7.8456629e-07)
(0 0.00032567508 4.7614924e-07)
(0 0.00032615432 1.8058069e-07)
(0 0.00032124013 -4.7717647e-08)
(0 0.00031108568 -1.7538928e-07)
(0 0.00029589123 -2.2356773e-07)
(0 0.00027576972 -2.4719088e-07)
(0 0.00025098431 -2.802848e-07)
(0 0.00022212294 -2.7462934e-07)
(0 0.00018962558 -2.6652967e-07)
(0 0.00015405454 -2.6509141e-07)
(0 0.00011611941 -2.5509392e-07)
(0 7.6970837e-05 -2.3491179e-07)
(0 3.8765487e-05 -2.0478699e-07)
(0 5.7852979e-06 -1.6672338e-07)
(0 -1.3013946e-05 -1.0143733e-07)
(0 0 0)
(0 0 0)
(0 -8.5095683e-05 9.9105732e-06)
(0 -0.00014201107 1.6556652e-05)
(0 -0.00018385718 2.1593467e-05)
(0 -0.00021710221 2.570423e-05)
(0 -0.00024438111 2.9151162e-05)
(0 -0.0002664483 3.2003182e-05)
(0 -0.00028342506 3.4274952e-05)
(0 -0.00029522287 3.5924063e-05)
(0 -0.00030171748 3.6920118e-05)
(0 -0.00030283194 3.7249874e-05)
(0 -0.00029856866 3.6909889e-05)
(0 -0.00028901383 3.5915517e-05)
(0 -0.00027434473 3.4293267e-05)
(0 -0.00025481675 3.2070637e-05)
(0 -0.00023075434 2.9278493e-05)
(0 -0.00020265189 2.5941847e-05)
(0 -0.0001710383 2.206116e-05)
(0 -0.00013651285 1.7753859e-05)
(0 -9.9778186e-05 1.3170497e-05)
(0 -6.1531118e-05 8.4564809e-06)
(0 -2.2404407e-05 3.8196428e-06)
(0 1.7015628e-05 -5.9835223e-07)
(0 5.6163248e-05 -4.8365791e-06)
(0 9.4303296e-05 -8.9768254e-06)
(0 0.00013024625 -1.3102311e-05)
(0 0.00016332194 -1.7197475e-05)
(0 0.00019342317 -2.1183226e-05)
(0 0.00022014025 -2.4938602e-05)
(0 0.0002431314 -2.8232979e-05)
(0 0.00026198262 -3.10102e-05)
(0 0.00027641153 -3.327623e-05)
(0 0.0002861731 -3.4989976e-05)
(0 0.00029113819 -3.6091373e-05)
(0 0.00029124859 -3.6571845e-05)
(0 0.0002865558 -3.6369859e-05)
(0 0.00027721701 -3.5448175e-05)
(0 0.00026342852 -3.3855653e-05)
(0 0.00024530553 -3.1678066e-05)
(0 0.00022307892 -2.8989612e-05)
(0 0.0001972742 -2.5766222e-05)
(0 0.00016826566 -2.209934e-05)
(0 0.00013654654 -1.8082278e-05)
(0 0.0001027293 -1.3795723e-05)
(0 6.7879454e-05 -9.376732e-06)
(0 3.4041379e-05 -5.066757e-06)
(0 5.2080016e-06 -1.343766e-06)
(0 -1.0647631e-05 8.9096968e-07)
(0 0 0)
(0 0 0)
(0 -7.3394825e-05 2.2921728e-05)
(0 -0.00012374887 3.8564051e-05)
(0 -0.00016103368 5.0247573e-05)
(0 -0.00019066902 5.9618888e-05)
(0 -0.00021495813 6.737451e-05)
(0 -0.00023456834 7.3736308e-05)
(0 -0.00024962772 7.8752022e-05)
(0 -0.00026007888 8.2358136e-05)
(0 -0.00026582679 8.4495093e-05)
(0 -0.0002668135 8.5126232e-05)
(0 -0.00026304684 8.4239999e-05)
(0 -0.00025460602 8.1857445e-05)
(0 -0.00024164769 7.801741e-05)
(0 -0.00022440699 7.2791564e-05)
(0 -0.00020315845 6.6281115e-05)
(0 -0.00017832666 5.8595112e-05)
(0 -0.00015037453 4.9813856e-05)
(0 -0.00011984641 4.0129751e-05)
(0 -8.7391647e-05 2.9791413e-05)
(0 -5.3636743e-05 1.9056856e-05)
(0 -1.9155047e-05 8.2255761e-06)
(0 1.5541971e-05 -2.5013382e-06)
(0 5.0003861e-05 -1.3110928e-05)
(0 8.3626619e-05 -2.3444724e-05)
(0 0.00011517348 -3.3308201e-05)
(0 0.00014406686 -4.2719114e-05)
(0 0.00017040295 -5.1595686e-05)
(0 0.00019380032 -5.9677833e-05)
(0 0.00021393385 -6.6672614e-05)
(0 0.00023043582 -7.2459951e-05)
(0 0.00024306616 -7.701483e-05)
(0 0.00025161802 -8.0277924e-05)
(0 0.00025596376 -8.2168044e-05)
(0 0.00025604839 -8.2674041e-05)
(0 0.00025190696 -8.1751496e-05)
(0 0.00024368222 -7.9376578e-05)
(0 0.0002315535 -7.5624514e-05)
(0 0.00021566798 -7.0602288e-05)
(0 0.00019624671 -6.4417725e-05)
(0 0.00017368692 -5.7093965e-05)
(0 0.00014831305 -4.8782897e-05)
(0 0.00012055397 -3.9684666e-05)
(0 9.0920788e-05 -3.0002923e-05)
(0 6.0386056e-05 -2.0073275e-05)
(0 3.0836618e-05 -1.0493206e-05)
(0 5.8262921e-06 -2.3838726e-06)
(0 -7.8615948e-06 2.1804619e-06)
(0 0 0)
(0 0 0)
(0 -6.0945302e-05 3.6278771e-05)
(0 -0.00010345607 6.1295172e-05)
(0 -0.00013524044 7.9821828e-05)
(0 -0.0001606248 9.4516885e-05)
(0 -0.00018144788 0.00010657951)
(0 -0.00019824772 0.00011640485)
(0 -0.00021113809 0.00012409447)
(0 -0.00022008761 0.00012957103)
(0 -0.00022503006 0.00013274828)
(0 -0.00022592614 0.00013356604)
(0 -0.00022278619 0.00013200539)
(0 -0.00021567736 0.00012809529)
(0 -0.00020472974 0.00012189323)
(0 -0.00019014572 0.00011351303)
(0 -0.0001721561 0.00010312856)
(0 -0.00015111513 9.0939125e-05)
(0 -0.00012740626 7.7113538e-05)
(0 -0.00010149615 6.1927192e-05)
(0 -7.3951799e-05 4.5725069e-05)
(0 -4.5321569e-05 2.8877058e-05)
(0 -1.6125084e-05 1.176617e-05)
(0 1.3197057e-05 -5.3348633e-06)
(0 4.2292575e-05 -2.2310427e-05)
(0 7.0687244e-05 -3.8873456e-05)
(0 9.729157e-05 -5.4618309e-05)
(0 0.00012161768 -6.9405422e-05)
(0 0.000143821 -8.3104454e-05)
(0 0.00016357978 -9.5401885e-05)
(0 0.00018059071 -0.00010595904)
(0 0.00019453838 -0.00011459938)
(0 0.00020523549 -0.00012127373)
(0 0.00021251797 -0.00012590933)
(0 0.00021625788 -0.00012841558)
(0 0.00021640295 -0.0001287808)
(0 0.00021296916 -0.00012698394)
(0 0.00020607549 -0.00012302317)
(0 0.00019588798 -0.00011699194)
(0 0.00018258346 -0.00010900799)
(0 0.00016635595 -9.9212155e-05)
(0 0.00014747375 -8.7679862e-05)
(0 0.00012621047 -7.4619539e-05)
(0 0.0001029253 -6.0361272e-05)
(0 7.7994078e-05 -4.5237301e-05)
(0 5.2253262e-05 -2.9790044e-05)
(0 2.7368422e-05 -1.5008494e-05)
(0 6.3123261e-06 -2.7069714e-06)
(0 -5.4259207e-06 3.807269e-06)
(0 0 0)
(0 0 0)
(0 -4.803701e-05 4.9624926e-05)
(0 -8.1775832e-05 8.395297e-05)
(0 -0.00010730111 0.00010920381)
(0 -0.00012787017 0.00012908457)
(0 -0.00014479692 0.00014531165)
(0 -0.00015846022 0.00015846471)
(0 -0.00016894534 0.00016870041)
(0 -0.0001762412 0.0001759357)
(0 -0.00018030786 0.00018005527)
(0 -0.00018112296 0.00018097761)
(0 -0.0001786968 0.00017867974)
(0 -0.00017308061 0.00017320236)
(0 -0.00016437137 0.00016463227)
(0 -0.00015272759 0.00015313132)
(0 -0.00013834544 0.00013892705)
(0 -0.0001215117 0.00012229164)
(0 -0.00010252371 0.00010348925)
(0 -8.1746909e-05 8.289186e-05)
(0 -5.9634929e-05 6.0944818e-05)
(0 -3.6650102e-05 3.8121029e-05)
(0 -1.3251282e-05 1.4882105e-05)
(0 1.0188593e-05 -8.4134695e-06)
(0 3.3428818e-05 -3.1552742e-05)
(0 5.6096042e-05 -5.4195116e-05)
(0 7.7328401e-05 -7.5800046e-05)
(0 9.6794199e-05 -9.5951085e-05)
(0 0.00011462195 -0.00011436008)
(0 0.00013052083 -0.00013072087)
(0 0.00014422298 -0.00014469332)
(0 0.00015547632 -0.00015605938)
(0 0.00016414785 -0.00016473979)
(0 0.00017011662 -0.00017064876)
(0 0.00017326338 -0.00017369193)
(0 0.00017353288 -0.00017385838)
(0 0.00017091873 -0.00017115014)
(0 0.00016551046 -0.00016559378)
(0 0.00015745981 -0.00015729421)
(0 0.00014697001 -0.00014637028)
(0 0.00013419687 -0.00013299711)
(0 0.00011928497 -0.00011730254)
(0 0.0001024567 -9.9553732e-05)
(0 8.3998341e-05 -8.0194925e-05)
(0 6.4121643e-05 -5.9725523e-05)
(0 4.3502101e-05 -3.8887718e-05)
(0 2.3527548e-05 -1.903569e-05)
(0 6.4945314e-06 -2.6836313e-06)
(0 -3.3729844e-06 5.6478784e-06)
(0 0 0)
(0 0 0)
(0 -3.4836091e-05 6.274913e-05)
(0 -5.9335864e-05 0.00010585765)
(0 -7.81581e-05 0.00013735605)
(0 -9.3530361e-05 0.00016205233)
(0 -0.0001062384 0.0001821621)
(0 -0.0001165021 0.00019841856)
(0 -0.00012438422 0.0002110213)
(0 -0.00012989385 0.00021987709)
(0 -0.0001330093 0.00022484401)
(0 -0.00013372085 0.00022582227)
(0 -0.00013203766 0.00022278786)
(0 -0.00012799512 0.0002157958)
(0 -0.00012165516 0.00020497012)
(0 -0.00011312693 0.00019050757)
(0 -0.00010257019 0.00017268112)
(0 -9.0204503e-05 0.00015183233)
(0 -7.6235743e-05 0.00012831192)
(0 -6.0919345e-05 0.00010259127)
(0 -4.4585833e-05 7.5214737e-05)
(0 -2.7596367e-05 4.6745996e-05)
(0 -1.0331637e-05 1.7725384e-05)
(0 6.918154e-06 -1.1403264e-05)
(0 2.3990077e-05 -4.0320605e-05)
(0 4.056415e-05 -6.8680045e-05)
(0 5.6111058e-05 -9.5878286e-05)
(0 7.0489514e-05 -0.00012119126)
(0 8.3745133e-05 -0.00014411558)
(0 9.5624521e-05 -0.00016434614)
(0 0.00010588673 -0.00018156545)
(0 0.00011434272 -0.00019552595)
(0 0.00012091529 -0.00020611515)
(0 0.00012552304 -0.00021323359)
(0 0.00012806479 -0.00021678452)
(0 0.00012848065 -0.00021676047)
(0 0.00012674105 -0.00021318348)
(0 0.00012290396 -0.00020611054)
(0 0.00011710162 -0.00019565549)
(0 0.00010954902 -0.00018193121)
(0 0.00010036334 -0.00016514089)
(0 8.9589938e-05 -0.00014547339)
(0 7.7393692e-05 -0.00012324953)
(0 6.3981034e-05 -9.9018106e-05)
(0 4.9383847e-05 -7.3448243e-05)
(0 3.4097321e-05 -4.7458018e-05)
(0 1.9202595e-05 -2.2722178e-05)
(0 6.3052043e-06 -2.3877815e-06)
(0 -1.6279675e-06 7.7728951e-06)
(0 0 0)
(0 0 0)
(0 -2.1594532e-05 7.5362232e-05)
(0 -3.6850027e-05 0.0001263083)
(0 -4.8877647e-05 0.00016330165)
(0 -5.8875541e-05 0.00019227696)
(0 -6.7167933e-05 0.00021588854)
(0 -7.3859494e-05 0.00023496896)
(0 -7.9001955e-05 0.00024972385)
(0 -8.2620912e-05 0.00026004405)
(0 -8.4706295e-05 0.00026576832)
(0 -8.5256101e-05 0.00026678456)
(0 -8.4278188e-05 0.00026307)
(0 -8.1793859e-05 0.00025469363)
(0 -7.7836167e-05 0.00024180756)
(0 -7.2467801e-05 0.00022465873)
(0 -6.5799226e-05 0.00020355615)
(0 -5.7976124e-05 0.0001788841)
(0 -4.9118732e-05 0.00015108508)
(0 -3.9376955e-05 0.00012071446)
(0 -2.8957822e-05 8.8399531e-05)
(0 -1.8109601e-05 5.4785814e-05)
(0 -7.1113876e-06 2.049238e-05)
(0 3.8362874e-06 -1.3945874e-05)
(0 1.4616051e-05 -4.813435e-05)
(0 2.5004596e-05 -8.1711763e-05)
(0 3.4773442e-05 -0.00011398368)
(0 4.391585e-05 -0.0001440132)
(0 5.2445439e-05 -0.00017114529)
(0 6.0172274e-05 -0.00019501753)
(0 6.6890143e-05 -0.00021529979)
(0 7.246139e-05 -0.0002317278)
(0 7.685161e-05 -0.00024415877)
(0 8.0016723e-05 -0.00025247308)
(0 8.1887607e-05 -0.0002565656)
(0 8.2401368e-05 -0.00025643228)
(0 8.1507777e-05 -0.00025211137)
(0 7.923342e-05 -0.00024368655)
(0 7.56863e-05 -0.00023128195)
(0 7.1076462e-05 -0.00021499397)
(0 6.5480757e-05 -0.00019505866)
(0 5.8867096e-05 -0.00017174128)
(0 5.134154e-05 -0.00014541237)
(0 4.299217e-05 -0.00011674201)
(0 3.3708249e-05 -8.6510616e-05)
(0 2.384947e-05 -5.5736401e-05)
(0 1.4170847e-05 -2.635402e-05)
(0 5.5598133e-06 -2.0658023e-06)
(0 -2.317561e-07 1.0106699e-05)
(0 0 0)
(0 0 0)
(0 -8.7187413e-06 8.7054628e-05)
(0 -1.5109822e-05 0.00014460515)
(0 -2.056086e-05 0.00018617149)
(0 -2.5211474e-05 0.00021880189)
(0 -2.9029863e-05 0.00024548065)
(0 -3.2088588e-05 0.00026707051)
(0 -3.4429118e-05 0.00028375163)
(0 -3.6081796e-05 0.00029539013)
(0 -3.7047847e-05 0.00030180978)
(0 -3.7332168e-05 0.00030289225)
(0 -3.6942272e-05 0.00029861625)
(0 -3.5887629e-05 0.00028906075)
(0 -3.4178069e-05 0.00027440482)
(0 -3.1843181e-05 0.00025492532)
(0 -2.8934557e-05 0.00023096804)
(0 -2.5515174e-05 0.00020297013)
(0 -2.1630546e-05 0.00017144515)
(0 -1.7336433e-05 0.00013701224)
(0 -1.2726569e-05 0.00010036336)
(0 -7.9323713e-06 6.2214534e-05)
(0 -3.1149638e-06 2.3261654e-05)
(0 1.617367e-06 -1.5873657e-05)
(0 6.2444248e-06 -5.4703848e-05)
(0 1.0649231e-05 -9.2762172e-05)
(0 1.4738668e-05 -0.00012930355)
(0 1.8591944e-05 -0.00016339245)
(0 2.2289596e-05 -0.00019428099)
(0 2.5738365e-05 -0.0002214735)
(0 2.8775987e-05 -0.0002445856)
(0 3.1319869e-05 -0.00026333171)
(0 3.3369589e-05 -0.00027753259)
(0 3.4915934e-05 -0.00028704161)
(0 3.593154e-05 -0.00029174461)
(0 3.6360833e-05 -0.0002916349)
(0 3.6142943e-05 -0.00028676064)
(0 3.5278447e-05 -0.00027722655)
(0 3.3846502e-05 -0.00026316615)
(0 3.2021332e-05 -0.00024466783)
(0 2.9844822e-05 -0.00022200419)
(0 2.7240396e-05 -0.00019552227)
(0 2.4241743e-05 -0.00016565342)
(0 2.0844939e-05 -0.00013313209)
(0 1.6835168e-05 -9.878886e-05)
(0 1.2411227e-05 -6.3726024e-05)
(0 8.0161562e-06 -3.007789e-05)
(0 3.8961592e-06 -1.9428136e-06)
(0 6.8933159e-07 1.2579263e-05)
(0 0 0)
(0 0 0)
(0 1.2490772e-06 9.7809454e-05)
(0 1.5708314e-06 0.00016103824)
(0 1.2259024e-06 0.00020686055)
(0 7.9702667e-07 0.00024308616)
(0 5.4181324e-07 0.00027287115)
(0 3.7944521e-07 0.0002970558)
(0 2.6064907e-07 0.00031577196)
(0 1.6825039e-07 0.00032886998)
(0 1.005905e-07 0.00033616206)
(0 5.1984392e-08 0.00033752461)
(0 1.7792407e-08 0.0003329353)
(0 -2.804757e-09 0.00032248092)
(0 -7.7060928e-09 0.00030635881)
(0 8.4203751e-09 0.00028486495)
(0 3.8603653e-08 0.00025838614)
(0 7.1912601e-08 0.00022740948)
(0 1.2315583e-07 0.00019250251)
(0 2.0412064e-07 0.00015433354)
(0 3.0389185e-07 0.00011364455)
(0 3.849986e-07 7.1211107e-05)
(0 3.9009501e-07 2.7802609e-05)
(0 2.9636799e-07 -1.5864684e-05)
(0 1.5441824e-07 -5.9156427e-05)
(0 -4.0988966e-08 -0.00010151319)
(0 -3.1490339e-07 -0.0001421277)
(0 -5.9925392e-07 -0.00018012315)
(0 -7.6216007e-07 -0.00021477558)
(0 -7.9176844e-07 -0.00024543341)
(0 -7.8904212e-07 -0.00027161926)
(0 -7.831249e-07 -0.00029299342)
(0 -7.3748215e-07 -0.00030932345)
(0 -6.3130185e-07 -0.00032042022)
(0 -4.6216973e-07 -0.00032613988)
(0 -2.6710844e-07 -0.00032645098)
(0 -1.0448559e-07 -0.00032139907)
(0 1.309558e-08 -0.00031109879)
(0 1.4214183e-07 -0.00029569176)
(0 4.0386555e-07 -0.00027528788)
(0 8.0260506e-07 -0.00025018729)
(0 1.2482162e-06 -0.00022081283)
(0 1.7235815e-06 -0.00018766922)
(0 2.1827781e-06 -0.00015150866)
(0 2.372971e-06 -0.00011317722)
(0 2.3207597e-06 -7.3866656e-05)
(0 2.2255034e-06 -3.5826589e-05)
(0 1.943208e-06 -3.3861738e-06)
(0 1.2118636e-06 1.4423077e-05)
(0 0 0)
(0 0 0)
(0 -8.5163359e-05 -1.084665e-05)
(0 -0.00014208817 -1.8052596e-05)
(0 -0.00018391174 -2.3330087e-05)
(0 -0.00021712165 -2.7444598e-05)
(0 -0.00024436759 -3.0742872e-05)
(0 -0.00026641268 -3.3367367e-05)
(0 -0.00028338042 -3.5348892e-05)
(0 -0.00029517999 -3.6710229e-05)
(0 -0.0003016844 -3.7451402e-05)
(0 -0.00030281276 -3.7561682e-05)
(0 -0.00029856475 -3.703669e-05)
(0 -0.00028902279 -3.5875927e-05)
(0 -0.00027435256 -3.4089757e-05)
(0 -0.00025481964 -3.1710433e-05)
(0 -0.00023075947 -2.878483e-05)
(0 -0.00020267256 -2.5393239e-05)
(0 -0.00017109999 -2.1655516e-05)
(0 -0.00013662159 -1.7597218e-05)
(0 -9.9924121e-05 -1.3227104e-05)
(0 -6.1697919e-05 -8.5570722e-06)
(0 -2.2562184e-05 -3.5390012e-06)
(0 1.6906454e-05 1.8110181e-06)
(0 5.6124279e-05 7.3496001e-06)
(0 9.4288893e-05 1.2781733e-05)
(0 0.00013025639 1.7789648e-05)
(0 0.00016336002 2.229355e-05)
(0 0.00019345091 2.6209523e-05)
(0 0.00022015965 2.9484079e-05)
(0 0.00024314572 3.2240162e-05)
(0 0.00026199311 3.4448666e-05)
(0 0.00027642167 3.6029265e-05)
(0 0.0002861783 3.6976435e-05)
(0 0.00029113281 3.7331322e-05)
(0 0.00029123086 3.7082966e-05)
(0 0.00028653299 3.6297017e-05)
(0 0.00027719989 3.5030444e-05)
(0 0.00026342969 3.3274881e-05)
(0 0.00024532778 3.0990099e-05)
(0 0.00022310203 2.8153473e-05)
(0 0.00019729492 2.4875509e-05)
(0 0.00016829027 2.1187531e-05)
(0 0.00013658626 1.7153206e-05)
(0 0.00010280069 1.2880042e-05)
(0 6.7981295e-05 8.5125127e-06)
(0 3.4150616e-05 4.306844e-06)
(0 5.3009519e-06 7.2997409e-07)
(0 -1.0589549e-05 -1.277893e-06)
(0 0 0)
(0 0 0)
(0 -6.7584491e-05 -6.4645444e-07)
(0 -0.00011550629 -1.0663456e-06)
(0 -0.00015096515 -1.2831168e-06)
(0 -0.00017906064 -1.3161786e-06)
(0 -0.00020207001 -1.2211986e-06)
(0 -0.00022062364 -1.0569234e-06)
(0 -0.00023485921 -8.3684205e-07)
(0 -0.00024472888 -6.1299289e-07)
(0 -0.0002501392 -4.100263e-07)
(0 -0.00025103258 -2.3016144e-07)
(0 -0.00024741797 -7.4695389e-08)
(0 -0.00023936859 6.3948506e-08)
(0 -0.00022702593 1.8027666e-07)
(0 -0.00021060314 2.7962563e-07)
(0 -0.00019036578 3.696366e-07)
(0 -0.00016678052 4.1877785e-07)
(0 -0.00014030563 3.4355178e-07)
(0 -0.00011143855 1.9110661e-07)
(0 -8.0809441e-05 4.5956387e-08)
(0 -4.9022114e-05 -4.2359019e-09)
(0 -1.6561819e-05 2.0418023e-07)
(0 1.6168103e-05 7.1883833e-07)
(0 4.8800475e-05 1.3445576e-06)
(0 8.0564989e-05 2.0348433e-06)
(0 0.00011003357 2.7003607e-06)
(0 0.00013668784 3.1233175e-06)
(0 0.00016081623 3.1838908e-06)
(0 0.00018217475 2.92528e-06)
(0 0.00020051513 2.6014807e-06)
(0 0.00021546103 2.2496439e-06)
(0 0.0002268039 1.8012064e-06)
(0 0.00023432885 1.2836216e-06)
(0 0.00023794165 7.8974318e-07)
(0 0.00023761329 3.0532159e-07)
(0 0.00023340967 -9.0404284e-08)
(0 0.00022550244 -3.2657133e-07)
(0 0.00021408539 -4.508177e-07)
(0 0.00019925474 -5.5477825e-07)
(0 0.00018116688 -6.9852043e-07)
(0 0.00016027694 -7.6697115e-07)
(0 0.00013683668 -7.9858531e-07)
(0 0.00011122327 -8.1705681e-07)
(0 8.3877851e-05 -8.0237133e-07)
(0 5.5688464e-05 -7.5090929e-07)
(0 2.847181e-05 -6.5243982e-07)
(0 5.6913575e-06 -5.1512185e-07)
(0 -6.3300444e-06 -3.1854111e-07)
(0 0 0)
(0 0 0)
(0 -5.5229356e-05 1.0175971e-05)
(0 -9.5865049e-05 1.7629151e-05)
(0 -0.00012643592 2.330904e-05)
(0 -0.00015083904 2.7982943e-05)
(0 -0.00017088541 3.1970259e-05)
(0 -0.00018705076 3.534874e-05)
(0 -0.00019945626 3.8133915e-05)
(0 -0.00020808457 4.0242232e-05)
(0 -0.00021287459 4.1614402e-05)
(0 -0.00021379128 4.2220434e-05)
(0 -0.00021084923 4.2044808e-05)
(0 -0.0002041138 4.1095139e-05)
(0 -0.0001937061 3.9367362e-05)
(0 -0.00017981039 3.6896444e-05)
(0 -0.00016263573 3.3769907e-05)
(0 -0.00014257324 3.0046881e-05)
(0 -0.00012000352 2.5707448e-05)
(0 -9.536862e-05 2.0851361e-05)
(0 -6.9242451e-05 1.5642704e-05)
(0 -4.2152767e-05 1.0278365e-05)
(0 -1.4523849e-05 5.0014139e-06)
(0 1.3320606e-05 -9.1180584e-08)
(0 4.113279e-05 -5.1458509e-06)
(0 6.8277219e-05 -9.9999076e-06)
(0 9.3258345e-05 -1.444773e-05)
(0 0.00011566326 -1.8757669e-05)
(0 0.00013599997 -2.3077876e-05)
(0 0.00015407617 -2.7200722e-05)
(0 0.00016966546 -3.0821351e-05)
(0 0.00018240954 -3.385825e-05)
(0 0.0001921378 -3.6369115e-05)
(0 0.00019866872 -3.8309018e-05)
(0 0.00020189023 -3.9555722e-05)
(0 0.00020177 -4.0122727e-05)
(0 0.00019835058 -3.9952834e-05)
(0 0.00019178609 -3.8988218e-05)
(0 0.00018225241 -3.7303606e-05)
(0 0.00016988989 -3.5006867e-05)
(0 0.00015485135 -3.2172275e-05)
(0 0.00013744061 -2.871553e-05)
(0 0.00011785681 -2.473037e-05)
(0 9.6408861e-05 -2.0345702e-05)
(0 7.3403176e-05 -1.5639564e-05)
(0 4.9606989e-05 -1.0782764e-05)
(0 2.6643361e-05 -6.082245e-06)
(0 7.4180618e-06 -2.1194501e-06)
(0 -3.0917321e-06 1.5336237e-07)
(0 0 0)
(0 0 0)
(0 -4.3129575e-05 2.1773009e-05)
(0 -7.5640493e-05 3.776493e-05)
(0 -0.00010059681 4.9714642e-05)
(0 -0.00012079593 5.9262626e-05)
(0 -0.00013748842 6.7197711e-05)
(0 -0.00015096709 7.3771239e-05)
(0 -0.00016131398 7.9053076e-05)
(0 -0.00016853548 8.2940528e-05)
(0 -0.00017260364 8.5344475e-05)
(0 -0.000173506 8.6206855e-05)
(0 -0.00017125987 8.5501145e-05)
(0 -0.00016591722 8.3237588e-05)
(0 -0.00015756877 7.9426306e-05)
(0 -0.00014636766 7.4138232e-05)
(0 -0.00013248383 6.7531177e-05)
(0 -0.00011622812 5.9753679e-05)
(0 -9.7895784e-05 5.086555e-05)
(0 -7.7854173e-05 4.1038446e-05)
(0 -5.6593372e-05 3.0523881e-05)
(0 -3.4565207e-05 1.9623754e-05)
(0 -1.215707e-05 8.6453477e-06)
(0 1.03675e-05 -2.2466053e-06)
(0 3.2844664e-05 -1.3091979e-05)
(0 5.4792919e-05 -2.3650092e-05)
(0 7.4904111e-05 -3.3512674e-05)
(0 9.2848695e-05 -4.2754984e-05)
(0 0.00010918445 -5.1475832e-05)
(0 0.00012377581 -5.9407851e-05)
(0 0.00013640703 -6.6212521e-05)
(0 0.0001467634 -7.1778527e-05)
(0 0.00015472635 -7.6158379e-05)
(0 0.00016016082 -7.9299923e-05)
(0 0.00016293664 -8.1072402e-05)
(0 0.00016302114 -8.1488954e-05)
(0 0.00016043091 -8.052208e-05)
(0 0.00015529155 -7.8139485e-05)
(0 0.00014776637 -7.4428119e-05)
(0 0.00013803886 -6.9496859e-05)
(0 0.00012624904 -6.3442285e-05)
(0 0.00011254851 -5.6219395e-05)
(0 9.7086337e-05 -4.7967573e-05)
(0 8.0103317e-05 -3.8947369e-05)
(0 6.1736691e-05 -2.9365015e-05)
(0 4.2595935e-05 -1.9579941e-05)
(0 2.4061234e-05 -1.0278695e-05)
(0 8.3863486e-06 -2.6925954e-06)
(0 -7.2958573e-07 1.1998152e-06)
(0 0 0)
(0 0 0)
(0 -3.1118408e-05 3.3819319e-05)
(0 -5.4966216e-05 5.8640817e-05)
(0 -7.3765073e-05 7.6982171e-05)
(0 -8.9327058e-05 9.1418269e-05)
(0 -0.00010231226 0.00010326155)
(0 -0.00011282391 0.00011295486)
(0 -0.000120897 0.00012063207)
(0 -0.000126553 0.00012618064)
(0 -0.0001297992 0.00012948407)
(0 -0.0001306441 0.00013046)
(0 -0.00012910589 0.00012907741)
(0 -0.00012521882 0.00012535782)
(0 -0.00011903689 0.00011934588)
(0 -0.00011067371 0.00011116014)
(0 -0.00010027533 0.00010099349)
(0 -8.8080089e-05 8.9059081e-05)
(0 -7.4294385e-05 7.5508393e-05)
(0 -5.9185635e-05 6.0617338e-05)
(0 -4.3128765e-05 4.4745075e-05)
(0 -2.6495591e-05 2.8281717e-05)
(0 -9.6363638e-06 1.1595073e-05)
(0 7.2344737e-06 -5.0671532e-06)
(0 2.4047049e-05 -2.1636453e-05)
(0 4.0410227e-05 -3.788649e-05)
(0 5.5341383e-05 -5.333153e-05)
(0 6.8695301e-05 -6.7663935e-05)
(0 8.0932983e-05 -8.0759855e-05)
(0 9.1939048e-05 -9.2408472e-05)
(0 0.00010151684 -0.00010230301)
(0 0.00010940244 -0.00011030119)
(0 0.00011554159 -0.00011643798)
(0 0.00011984347 -0.00012065826)
(0 0.00012216794 -0.00012283858)
(0 0.00012247788 -0.00012299269)
(0 0.00012076215 -0.0001211219)
(0 0.00011711045 -0.00011722797)
(0 0.00011167143 -0.00011139831)
(0 0.00010467498 -0.00010373958)
(0 9.6231315e-05 -9.437294e-05)
(0 8.6352271e-05 -8.3289034e-05)
(0 7.5147802e-05 -7.0675089e-05)
(0 6.2798358e-05 -5.691811e-05)
(0 4.9240181e-05 -4.2395816e-05)
(0 3.4899523e-05 -2.766425e-05)
(0 2.0886161e-05 -1.3791674e-05)
(0 8.7695776e-06 -2.6782476e-06)
(0 1.0695474e-06 2.6447501e-06)
(0 0 0)
(0 0 0)
(0 -1.9242265e-05 4.6082667e-05)
(0 -3.4348312e-05 7.9536632e-05)
(0 -4.6790873e-05 0.00010401204)
(0 -5.7468053e-05 0.00012310858)
(0 -6.6498686e-05 0.00013867342)
(0 -7.3816915e-05 0.00015132565)
(0 -7.9430519e-05 0.00016124747)
(0 -8.3383648e-05 0.0001683192)
(0 -8.5706824e-05 0.00017240017)
(0 -8.6424407e-05 0.00017339042)
(0 -8.5554602e-05 0.00017125942)
(0 -8.3115919e-05 0.00016604555)
(0 -7.9128602e-05 0.00015783734)
(0 -7.3663989e-05 0.00014679092)
(0 -6.6838809e-05 0.00013312605)
(0 -5.8820279e-05 0.00011711304)
(0 -4.9728723e-05 9.8998643e-05)
(0 -3.9724982e-05 7.9169827e-05)
(0 -2.9058396e-05 5.808979e-05)
(0 -1.8008157e-05 3.623162e-05)
(0 -6.8684044e-06 1.4028938e-05)
(0 4.2053277e-06 -8.1877631e-06)
(0 1.5195167e-05 -3.0250801e-05)
(0 2.5733315e-05 -5.2026861e-05)
(0 3.5282394e-05 -7.2984093e-05)
(0 4.3947509e-05 -9.2347765e-05)
(0 5.2019087e-05 -0.00010972255)
(0 5.9382139e-05 -0.00012496836)
(0 6.5853359e-05 -0.00013784037)
(0 7.1227675e-05 -0.00014817724)
(0 7.5501587e-05 -0.00015598657)
(0 7.8623374e-05 -0.00016120808)
(0 8.0467768e-05 -0.00016373135)
(0 8.0988575e-05 -0.00016357561)
(0 8.0146336e-05 -0.00016076756)
(0 7.7991777e-05 -0.0001553451)
(0 7.4656707e-05 -0.00014740007)
(0 7.0402332e-05 -0.00013702479)
(0 6.5306247e-05 -0.00012436164)
(0 5.9269285e-05 -0.00010945559)
(0 5.2359746e-05 -9.2537691e-05)
(0 4.4672762e-05 -7.4127379e-05)
(0 3.5941406e-05 -5.4789107e-05)
(0 2.6445488e-05 -3.5228233e-05)
(0 1.7021898e-05 -1.6850856e-05)
(0 8.5458642e-06 -2.2246499e-06)
(0 2.4087114e-06 4.4755922e-06)
(0 0 0)
(0 0 0)
(0 -7.7830264e-06 5.835592e-05)
(0 -1.4514931e-05 9.9886044e-05)
(0 -2.0758934e-05 0.00012994407)
(0 -2.6513633e-05 0.00015328792)
(0 -3.146304e-05 0.00017228278)
(0 -3.5445173e-05 0.00018767268)
(0 -3.8475402e-05 0.00019965247)
(0 -4.0620831e-05 0.00020809137)
(0 -4.1922383e-05 0.00021283363)
(0 -4.2412316e-05 0.00021377048)
(0 -4.2108531e-05 0.00021087522)
(0 -4.1018667e-05 0.00020420244)
(0 -3.9140907e-05 0.00019387635)
(0 -3.6497712e-05 0.00018009627)
(0 -3.3166133e-05 0.00016311224)
(0 -2.9247555e-05 0.00014324201)
(0 -2.4781236e-05 0.00012083106)
(0 -1.9830066e-05 9.6358691e-05)
(0 -1.4522492e-05 7.0374004e-05)
(0 -9.0360147e-06 4.343081e-05)
(0 -3.5797565e-06 1.6036564e-05)
(0 1.7558924e-06 -1.1394941e-05)
(0 6.9618296e-06 -3.8645952e-05)
(0 1.172609e-05 -6.5608791e-05)
(0 1.5922092e-05 -9.1665941e-05)
(0 1.9856297e-05 -0.00011573082)
(0 2.3710512e-05 -0.00013719366)
(0 2.7385396e-05 -0.00015590656)
(0 3.0707644e-05 -0.0001716517)
(0 3.3529249e-05 -0.00018426182)
(0 3.5876437e-05 -0.00019370864)
(0 3.7727828e-05 -0.00019992009)
(0 3.8997581e-05 -0.00020279636)
(0 3.9633048e-05 -0.00020236457)
(0 3.9571561e-05 -0.000198671)
(0 3.8827699e-05 -0.00019178612)
(0 3.7512195e-05 -0.00018181189)
(0 3.5886269e-05 -0.00016881544)
(0 3.3994763e-05 -0.00015296932)
(0 3.1670749e-05 -0.00013440134)
(0 2.8923885e-05 -0.00011339245)
(0 2.5731146e-05 -9.059204e-05)
(0 2.1683655e-05 -6.6704059e-05)
(0 1.6975152e-05 -4.2518519e-05)
(0 1.2152303e-05 -1.9740105e-05)
(0 7.4220299e-06 -1.5653528e-06)
(0 3.1720188e-06 6.6493983e-06)
(0 0 0)
(0 0 0)
(0 2.8006787e-06 7.0561477e-05)
(0 3.752181e-06 0.00011938019)
(0 3.3516241e-06 0.0001543676)
(0 2.4358177e-06 0.00018151273)
(0 1.5992299e-06 0.00020362167)
(0 1.0058739e-06 0.00022150718)
(0 6.2182852e-07 0.00023534601)
(0 3.7310504e-07 0.00024499548)
(0 2.1082886e-07 0.0002502921)
(0 9.7400885e-08 0.00025112558)
(0 1.3877045e-08 0.0002474736)
(0 -4.0495464e-08 0.00023940318)
(0 -4.7848769e-08 0.00022706735)
(0 -2.8318301e-09 0.00021070063)
(0 7.1402939e-08 0.00019059449)
(0 1.5189812e-07 0.00016712317)
(0 2.6184943e-07 0.00014071814)
(0 4.2073152e-07 0.00011192854)
(0 6.0495231e-07 8.1372727e-05)
(0 7.4408602e-07 4.9680131e-05)
(0 7.3786011e-07 1.7440058e-05)
(0 5.6812706e-07 -1.4849608e-05)
(0 2.6850095e-07 -4.686621e-05)
(0 -3.3738901e-07 -7.8405378e-05)
(0 -1.1893217e-06 -0.00010881076)
(0 -1.9160803e-06 -0.0001369713)
(0 -2.3136912e-06 -0.00016217002)
(0 -2.4215291e-06 -0.00018412794)
(0 -2.3661199e-06 -0.0002025908)
(0 -2.2393721e-06 -0.00021737459)
(0 -2.0009927e-06 -0.00022840629)
(0 -1.6421393e-06 -0.00023559421)
(0 -1.2014691e-06 -0.00023885078)
(0 -7.2176098e-07 -0.00023820867)
(0 -2.7292798e-07 -0.00023372865)
(0 1.3251702e-07 -0.00022550747)
(0 5.7564842e-07 -0.00021365745)
(0 1.2791286e-06 -0.00019823752)
(0 2.255529e-06 -0.0001794576)
(0 3.3127529e-06 -0.0001575452)
(0 4.4016161e-06 -0.00013284383)
(0 5.4125108e-06 -0.00010606526)
(0 5.8722726e-06 -7.7971027e-05)
(0 5.8607447e-06 -4.9448865e-05)
(0 5.6507704e-06 -2.2438802e-05)
(0 4.9006223e-06 -6.3411494e-07)
(0 3.1028016e-06 9.3744892e-06)
(0 0 0)
(0 0 0)
(0 1.2283076e-05 8.7301643e-05)
(0 1.9747961e-05 0.00014494598)
(0 2.4489894e-05 0.00018644461)
(0 2.7973721e-05 0.00021897466)
(0 3.088262e-05 0.00024561512)
(0 3.3315483e-05 0.00026720984)
(0 3.5234568e-05 0.00028388689)
(0 3.6593256e-05 0.00029550452)
(0 3.7357337e-05 0.00030189406)
(0 3.7498699e-05 0.00030294265)
(0 3.7004968e-05 0.00029863089)
(0 3.588343e-05 0.00028903862)
(0 3.4161486e-05 0.0002743448)
(0 3.1871029e-05 0.00025482301)
(0 2.904252e-05 0.00023082392)
(0 2.5718771e-05 0.00020278772)
(0 2.1974445e-05 0.00017123223)
(0 1.7892213e-05 0.00013677524)
(0 1.353445e-05 0.00010010483)
(0 8.9356314e-06 6.1935727e-05)
(0 4.1136505e-06 2.296566e-05)
(0 -8.6536347e-07 -1.6167068e-05)
(0 -5.9023528e-06 -5.4934128e-05)
(0 -1.0983471e-05 -9.2920308e-05)
(0 -1.5996827e-05 -0.00012940122)
(0 -2.0705085e-05 -0.00016342068)
(0 -2.4880826e-05 -0.00019427984)
(0 -2.8446314e-05 -0.00022146639)
(0 -3.1446794e-05 -0.00024457123)
(0 -3.3897516e-05 -0.00026331847)
(0 -3.5731096e-05 -0.00027753521)
(0 -3.6902319e-05 -0.00028706044)
(0 -3.7404237e-05 -0.00029176962)
(0 -3.7255673e-05 -0.00029165426)
(0 -3.6517623e-05 -0.00028676717)
(0 -3.52162e-05 -0.00027721945)
(0 -3.3301889e-05 -0.00026314072)
(0 -3.0645421e-05 -0.00024463093)
(0 -2.7272354e-05 -0.00022195154)
(0 -2.3354496e-05 -0.0001954606)
(0 -1.8981362e-05 -0.00016561774)
(0 -1.4294828e-05 -0.00013315999)
(0 -9.7201628e-06 -9.8877474e-05)
(0 -5.348693e-06 -6.3822189e-05)
(0 -1.1833451e-06 -3.0136851e-05)
(0 2.0600653e-06 -1.9507831e-06)
(0 3.0476926e-06 1.2586205e-05)
(0 0 0)
(0 0 0)
(0 -7.3596652e-05 -2.3991674e-05)
(0 -0.0001239624 -4.034094e-05)
(0 -0.00016115976 -5.2426766e-05)
(0 -0.00019068708 -6.1898073e-05)
(0 -0.00021488463 -6.9529422e-05)
(0 -0.00023444132 -7.5637048e-05)
(0 -0.00024948386 -8.0296642e-05)
(0 -0.00025994821 -8.3528389e-05)
(0 -0.00026572958 -8.5320575e-05)
(0 -0.00026675944 -8.5645464e-05)
(0 -0.00026303947 -8.449295e-05)
(0 -0.0002546389 -8.1873609e-05)
(0 -0.00024169834 -7.7835438e-05)
(0 -0.00022443343 -7.2441622e-05)
(0 -0.00020316194 -6.576931e-05)
(0 -0.00017836865 -5.7963601e-05)
(0 -0.00015053264 -4.9227609e-05)
(0 -0.00012014272 -3.9707871e-05)
(0 -8.7795835e-05 -2.9530334e-05)
(0 -5.4114062e-05 -1.8806094e-05)
(0 -1.9630473e-05 -7.5927235e-06)
(0 1.5157585e-05 3.991439e-06)
(0 4.9711755e-05 1.5690112e-05)
(0 8.329156e-05 2.7155859e-05)
(0 0.00011490566 3.801014e-05)
(0 0.00014398335 4.7952707e-05)
(0 0.0001703714 5.6795873e-05)
(0 0.00019377037 6.4432515e-05)
(0 0.00021391295 7.0886904e-05)
(0 0.00023042287 7.6101239e-05)
(0 0.00024306923 7.9941685e-05)
(0 0.00025161691 8.238889e-05)
(0 0.00025594107 8.3502315e-05)