/*--------------------------------*- C++ -*----------------------------------*\
| =========                 |                                                 |
| \\      /  F ield         | OpenFOAM: The Open Source CFD Toolbox           |
|  \\    /   O peration     | Version:  4.1                                   |
|   \\  /    A nd           | Web:      www.OpenFOAM.org                      |
|    \\/     M anipulation  |                                                 |
\*---------------------------------------------------------------------------*/
FoamFile
{
    version     2.0;
    format      ascii;
    class       volVectorField;
    location    "0.000020";
    object      wallShearStress;
}
// * * * * * * * * * * * * * * * * * * * * * * * * * * * * * * * * * * * * * //

dimensions      [0 2 -2 0 0 0 0];

internalField   uniform (0 0 0);

boundaryField
{
    inlet
    {
        type            calculated;
        value           uniform (0 0 0);
    }
    outlet
    {
        type            calculated;
        value           nonuniform 0();
    }
    mantle
    {
        type            calculated;
        value           nonuniform List<vector> 
768
(
(-0.014944972 0.00012552827 -1.7724113e-05)
(-0.013806802 0.00028841986 -0.00011186126)
(-0.012940307 0.0002121717 -0.00015980635)
(-0.01223202 0.00026293865 -0.00015734723)
(-0.012291333 -1.1431665e-05 -4.6582827e-05)
(-0.011175384 0.00014136685 -0.00020319923)
(-0.011537145 1.5049448e-06 -2.1579477e-05)
(-0.011462121 -6.8824218e-05 7.1436301e-05)
(-0.013184426 -0.00021132354 -2.8042256e-06)
(-0.012490023 -3.0874426e-05 -3.9481888e-05)
(-0.01190805 -3.2650965e-05 -8.8061343e-05)
(-0.011462484 2.6605068e-05 -8.3909688e-05)
(-0.011178793 -0.00010079785 1.6614929e-05)
(-0.010996683 1.4431766e-05 -0.00013349613)
(-0.010933442 -8.7825064e-05 3.7708473e-05)
(-0.011109651 -7.2275845e-05 0.0002288704)
(-0.012819657 -0.00021390478 1.2581633e-05)
(-0.012251167 -9.8331601e-05 2.3458545e-05)
(-0.011727038 -6.9167348e-05 -1.557855e-06)
(-0.011312592 -4.6381612e-05 1.4338224e-05)
(-0.011012303 -5.3447883e-05 5.0669862e-05)
(-0.010781336 -4.4261846e-05 6.400858e-05)
(-0.010712767 -7.1438301e-05 0.00011729155)
(-0.010737245 -4.271172e-05 0.00026689614)
(-0.012115235 -0.00024205008 4.2892397e-06)
(-0.011632941 -0.00019666038 5.4117669e-05)
(-0.011188841 -0.0001637199 6.9293173e-05)
(-0.01082256 -0.00013285455 9.593918e-05)
(-0.010544789 -0.00010728779 0.00012242682)
(-0.010349419 -7.6033232e-05 0.00013061369)
(-0.010255754 -6.6444848e-05 0.00016520787)
(-0.010256993 -1.9658857e-05 0.00022397018)
(-0.011559056 -0.00019334659 -2.1272678e-06)
(-0.011135963 -0.00017554664 5.2027586e-05)
(-0.010741192 -0.00014828088 7.5391424e-05)
(-0.010409259 -0.0001215993 9.8151112e-05)
(-0.010149441 -9.4491907e-05 0.00011594821)
(-0.0099644259 -6.6754381e-05 0.00012507429)
(-0.0098625859 -4.6230674e-05 0.00014037139)
(-0.0098487565 -4.1845549e-06 0.00015857511)
(-0.011072691 -0.0001656741 -5.1262911e-06)
(-0.010700169 -0.00015954394 4.8951832e-05)
(-0.010347137 -0.0001345055 7.7040289e-05)
(-0.010045716 -0.00010767098 9.746898e-05)
(-0.0098047594 -7.9077406e-05 0.00010860857)
(-0.0096304846 -5.2104355e-05 0.00011146757)
(-0.0095288432 -2.9891088e-05 0.00011531556)
(-0.0095055316 4.051296e-06 0.00011403043)
(-0.010633913 -0.00014857462 -4.322555e-06)
(-0.010305048 -0.00014615524 4.7776713e-05)
(-0.0099895296 -0.00012232546 7.6963813e-05)
(-0.0097172363 -9.4609306e-05 9.561832e-05)
(-0.0094974936 -6.4448342e-05 0.00010197204)
(-0.0093366191 -3.7929418e-05 9.8238025e-05)
(-0.0092402012 -1.7616431e-05 9.442544e-05)
(-0.0092123339 8.4183193e-06 8.34935e-05)
(-0.010235786 -0.00013810812 -1.5891957e-06)
(-0.0099476683 -0.0001351199 4.8463632e-05)
(-0.0096672428 -0.00011049055 7.6776674e-05)
(-0.0094236981 -8.1520457e-05 9.2685352e-05)
(-0.0092264031 -5.0747065e-05 9.487121e-05)
(-0.0090812558 -2.5361783e-05 8.6088389e-05)
(-0.0089929697 -7.8595456e-06 7.6938564e-05)
(-0.0089637849 1.0891059e-05 6.1453604e-05)
(-0.0098760439 -0.00013228501 2.1057785e-06)
(-0.009625713 -0.0001267382 5.0216853e-05)
(-0.0093790812 -0.00010013335 7.6875016e-05)
(-0.0091646617 -6.9743542e-05 8.9688947e-05)
(-0.0089905831 -3.8669101e-05 8.8245303e-05)
(-0.0088625894 -1.4502342e-05 7.5534456e-05)
(-0.0087840848 1.0156481e-07 6.2355793e-05)
(-0.0087561639 1.2239237e-05 4.5087841e-05)
(-0.0095517775 -0.00012907074 6.0453669e-06)
(-0.0093376363 -0.00012032903 5.1821435e-05)
(-0.0091242741 -9.176906e-05 7.6984868e-05)
(-0.0089389159 -5.9846262e-05 8.7002116e-05)
(-0.0087889307 -2.8540192e-05 8.2472157e-05)
(-0.0086792758 -5.318795e-06 6.6919576e-05)
(-0.0086122603 6.811467e-06 5.0073979e-05)
(-0.008586865 1.2690835e-05 3.297812e-05)
(-0.0092622889 -0.00012685879 9.7204941e-06)
(-0.0090833242 -0.00011526303 5.29435e-05)
(-0.008902051 -8.4950418e-05 7.6944561e-05)
(-0.008745594 -5.1256823e-05 8.4394058e-05)
(-0.0086204706 -1.9865294e-05 7.7180716e-05)
(-0.0085300764 2.4385173e-06 5.9307763e-05)
(-0.0084763161 1.2155057e-05 3.950245e-05)
(-0.0084522954 1.2374113e-05 2.3128706e-05)
(-0.009007399 -0.0001247201 1.3004263e-05)
(-0.008861655 -0.00011078584 5.3650319e-05)
(-0.0087118976 -7.8714915e-05 7.6450687e-05)
(-0.0085845797 -4.3524641e-05 8.1573151e-05)
(-0.008484353 -1.216522e-05 7.1956496e-05)
(-0.0084142238 9.0574211e-06 5.2041017e-05)
(-0.0083750355 1.5882405e-05 3.0943053e-05)
(-0.0083541165 1.1322848e-05 1.4138532e-05)
(-0.0087868111 -0.00012249983 1.6149398e-05)
(-0.0086725026 -0.00010621686 5.4024339e-05)
(-0.0085539394 -7.2819831e-05 7.5485359e-05)
(-0.0084553336 -3.6483678e-05 7.8524726e-05)
(-0.0083803099 -5.1688024e-06 6.6463397e-05)
(-0.008331225 1.4621142e-05 4.4827398e-05)
(-0.0083041905 1.8582045e-05 2.3011329e-05)
(-0.0082922526 9.7597421e-06 6.3833844e-06)
(-0.0086000933 -0.00011982891 1.9359419e-05)
(-0.0085158093 -0.00010088612 5.4182529e-05)
(-0.0084274471 -6.6730064e-05 7.3837173e-05)
(-0.0083572705 -2.9717482e-05 7.4815912e-05)
(-0.008308317 1.1794594e-06 6.0482956e-05)
(-0.0082807508 1.8529373e-05 3.8149804e-05)
(-0.0082675502 1.9927167e-05 1.4183483e-05)
(-0.0082657906 7.0808149e-06 -9.3782978e-08)
(-0.0084478706 -0.00011859442 2.3068246e-05)
(-0.0083921946 -9.6290207e-05 5.4633402e-05)
(-0.0083328985 -6.1415101e-05 7.1855701e-05)
(-0.0082911697 -2.4316437e-05 7.0799341e-05)
(-0.0082680838 5.4298685e-06 5.4672327e-05)
(-0.0082583769 2.0894071e-05 3.0417474e-05)
(-0.0082643445 1.9858641e-05 4.8935672e-06)
(-0.0082734763 3.7258784e-06 -6.3652279e-06)
(-0.0083224388 -0.00011754365 2.6632904e-05)
(-0.0082954596 -9.1568981e-05 5.4692182e-05)
(-0.008265847 -5.6095325e-05 6.8836326e-05)
(-0.0082519386 -1.9173705e-05 6.5087166e-05)
(-0.0082536545 9.0651458e-06 4.6726488e-05)
(-0.0082693272 2.3206351e-05 2.0113937e-05)
(-0.0082952066 1.9826273e-05 -5.2536705e-06)
(-0.0083164615 6.7436145e-07 -1.4235834e-05)
(-0.0082268156 -0.00011094207 2.8765486e-05)
(-0.0082281371 -8.2652235e-05 5.2571356e-05)
(-0.0082282365 -4.7505721e-05 6.2934099e-05)
(-0.0082433314 -1.1868917e-05 5.5938959e-05)
(-0.008272989 1.4518151e-05 3.5127556e-05)
(-0.008314059 2.5937262e-05 8.3183888e-06)
(-0.0083610015 2.0368986e-05 -1.6749316e-05)
(-0.0083963769 -1.7510268e-06 -2.400782e-05)
(-0.00817109 -9.8494231e-05 2.9531627e-05)
(-0.0081981278 -6.9723293e-05 4.7953828e-05)
(-0.0082264278 -3.6120605e-05 5.4186793e-05)
(-0.0082693631 -2.5557166e-06 4.4296018e-05)
(-0.0083262187 2.1140542e-05 2.1911039e-05)
(-0.0083930231 2.9541738e-05 -5.3549666e-06)
(-0.0084622688 2.1441386e-05 -3.0016259e-05)
(-0.0085136981 -3.5328485e-06 -3.5861361e-05)
(-0.0081574349 -8.2384971e-05 2.8981226e-05)
(-0.0082069885 -5.3679139e-05 4.0937947e-05)
(-0.0082612405 -2.2742682e-05 4.3237301e-05)
(-0.0083305311 8.2620652e-06 3.0848503e-05)
(-0.0084143796 2.9055327e-05 6.7498586e-06)
(-0.0085079781 3.4078353e-05 -2.1281245e-05)
(-0.0086014877 2.2887476e-05 -4.5831898e-05)
(-0.0086706325 -5.0536226e-06 -5.0456845e-05)
(-0.0081867481 -6.2335475e-05 2.7620102e-05)
(-0.0082559201 -3.4150161e-05 3.2579676e-05)
(-0.0083335081 -6.6753724e-06 3.0546093e-05)
(-0.0084280492 2.1069969e-05 1.543561e-05)
(-0.0085387674 3.8222329e-05 -1.0472342e-05)
(-0.0086598213 3.9454208e-05 -3.9264283e-05)
(-0.0087794704 2.4731148e-05 -6.3955882e-05)
(-0.0088696483 -6.4466137e-06 -6.7756331e-05)
(-0.008260061 -3.9149133e-05 2.5500872e-05)
(-0.0083459554 -1.1468301e-05 2.3393026e-05)
(-0.0084447705 1.2001805e-05 1.6734447e-05)
(-0.0085635528 3.5883043e-05 -1.6668734e-06)
(-0.0087007813 4.8715658e-05 -2.9531515e-05)
(-0.0088498671 4.5790955e-05 -5.9333206e-05)
(-0.0089976634 2.71439e-05 -8.4513297e-05)
(-0.0091128184 -7.5641804e-06 -8.7596955e-05)
(-0.0083788528 -1.2759037e-05 2.2976744e-05)
(-0.0084786324 1.3752439e-05 1.4036212e-05)
(-0.0085966685 3.3225919e-05 1.9340157e-06)
(-0.0087384584 5.2469354e-05 -2.0069561e-05)
(-0.0089017187 6.0567906e-05 -5.0037459e-05)
(-0.0090795592 5.3199438e-05 -8.0985607e-05)
(-0.0092577492 3.0413691e-05 -0.00010698352)
(-0.0094021833 -8.0763209e-06 -0.00010994353)
(-0.0085456643 1.5813246e-05 2.0220126e-05)
(-0.0086561678 4.1616428e-05 4.2003387e-06)
(-0.0087911999 5.7183963e-05 -1.3932056e-05)
(-0.0089544212 7.1300194e-05 -3.9825676e-05)
(-0.0091430925 7.4405116e-05 -7.2052064e-05)
(-0.0093502036 6.2216215e-05 -0.00010423261)
(-0.0095610814 3.487113e-05 -0.00013130658)
(-0.0097401223 -7.9658251e-06 -0.00013472601)
(-0.0087647617 4.7883532e-05 1.7414003e-05)
(-0.008881969 7.316967e-05 -6.2058158e-06)
(-0.0090315329 8.4489225e-05 -3.1084907e-05)
(-0.0092143047 9.3315634e-05 -6.1054599e-05)
(-0.0094275521 9.1403292e-05 -9.5843463e-05)
(-0.0096638677 7.4361571e-05 -0.00012997375)
(-0.0099094669 4.1654395e-05 -0.00015923004)
(-0.010129228 -6.9950966e-06 -0.00016313277)
(-0.011643211 3.7778392e-05 0.00018409221)
(-0.011386252 1.6449854e-05 -8.2657308e-05)
(-0.011738107 -9.2435838e-05 -6.2514407e-05)
(-0.011628084 -0.00025500031 -0.00015712962)
(-0.012214013 -0.00017724454 -0.00015787895)
(-0.01297463 -0.00019888033 -0.00021365279)
(-0.013826937 -0.00028159625 -0.00013530598)
(-0.01495648 -0.00012337691 -3.1486708e-05)
(-0.011113894 8.5589505e-05 0.000279558)
(-0.010989585 8.4697848e-05 -9.659764e-06)
(-0.010984828 8.9939478e-06 3.0850955e-06)
(-0.011127734 -5.9309946e-05 -9.4402051e-05)
(-0.011432056 -4.8204237e-07 -9.789684e-05)
(-0.011897674 3.7571969e-05 -0.00010792036)
(-0.012490887 3.3902784e-05 -4.9251149e-05)
(-0.013191905 0.00021311346 -9.8016184e-06)
(-0.010740677 5.3136819e-05 0.00026820537)
(-0.010711426 7.0394761e-05 0.00012368553)
(-0.010800229 2.4471283e-05 7.5383326e-05)
(-0.010986947 2.1732769e-05 3.6297955e-05)
(-0.011300284 4.5189259e-05 6.158245e-06)
(-0.01172227 6.4882389e-05 -1.0935057e-05)
(-0.01225308 9.5175115e-05 1.7935564e-05)
(-0.012827589 0.00021226804 9.2325731e-06)
(-0.010258412 2.4064805e-05 0.00022419259)
(-0.010259408 6.3058894e-05 0.00016331816)
(-0.010351513 6.9567012e-05 0.00013937352)
(-0.010535851 9.272367e-05 0.00011693189)
(-0.010818494 0.00012853046 9.3028955e-05)
(-0.011189769 0.00016003143 6.6018816e-05)
(-0.011639096 0.00019339663 5.249056e-05)
(-0.012126678 0.00024104587 4.2851007e-06)
(-0.009849436 5.5309976e-06 0.00015880198)
(-0.0098642396 4.4263485e-05 0.00014108029)
(-0.0099646226 6.2665072e-05 0.00012732252)
(-0.010146545 8.8120108e-05 0.00011522869)
(-0.010408833 0.00011805825 9.852687e-05)
(-0.010745477 0.00014591956 7.5939407e-05)
(-0.01114527 0.00017384499 5.3505321e-05)
(-0.011573028 0.00019399359 5.4565516e-07)
(-0.0095060262 -4.4086799e-06 0.0001145469)
(-0.0095294559 2.8327332e-05 0.00011629327)
(-0.0096304343 4.9784682e-05 0.00011282847)
(-0.0098043194 7.5816259e-05 0.00010940421)
(-0.010047225 0.00010508491 9.9107989e-05)
(-0.010352786 0.00013302094 7.9819832e-05)
(-0.01071072 0.00015981481 5.2610817e-05)
(-0.011088206 0.0001678166 -1.2720886e-06)
(-0.0092126006 -9.5478929e-06 8.4078422e-05)
(-0.0092401143 1.6316798e-05 9.5526736e-05)
(-0.0093362378 3.6451182e-05 9.9693932e-05)
(-0.009497544 6.2749622e-05 0.00010357955)
(-0.0097192077 9.3184598e-05 9.7979401e-05)
(-0.0099951343 0.00012191945 8.0362258e-05)
(-0.010315108 0.00014729661 5.1941897e-05)
(-0.010649301 0.0001517378 -1.9892565e-07)
(-0.0089636712 -1.2189267e-05 6.2014976e-05)
(-0.008992195 6.831784e-06 7.8180074e-05)
(-0.0090801277 2.4432513e-05 8.7755361e-05)
(-0.0092258934 4.9963574e-05 9.6875666e-05)
(-0.0094250256 8.1080657e-05 9.5233864e-05)
(-0.0096718762 0.00011090549 7.992734e-05)
(-0.0099562715 0.00013672027 5.2036665e-05)
(-0.010249596 0.00014125021 1.8008123e-06)
(-0.0087557833 -1.3183688e-05 4.554514e-05)
(-0.0087826962 -7.6562468e-07 6.3496792e-05)
(-0.0088604563 1.3962277e-05 7.7139625e-05)
(-0.0089889681 3.8293278e-05 9.0305107e-05)
(-0.0091648448 6.979837e-05 9.2238242e-05)
(-0.0093824008 0.00010104782 7.9643479e-05)
(-0.0096326601 0.00012848211 5.2891606e-05)
(-0.0098879372 0.00013486248 4.4133224e-06)
(-0.0085860944 -1.2863335e-05 3.3323167e-05)
(-0.008610031 -6.8469376e-06 5.0832324e-05)
(-0.0086760167 5.084601e-06 6.787871e-05)
(-0.0087861961 2.8146617e-05 8.4010391e-05)
(-0.0089380604 5.9716755e-05 8.9149367e-05)
(-0.0091264646 9.228452e-05 7.9362832e-05)
(-0.0093432754 0.00012168511 5.4060709e-05)
(-0.0095623841 0.00013111136 7.5901769e-06)
(-0.0084512028 -1.1692428e-05 2.3236544e-05)
(-0.0084730005 -1.1654368e-05 3.9765211e-05)
(-0.0085257065 -2.3268049e-06 5.9747426e-05)
(-0.0086165864 1.9603665e-05 7.8181967e-05)
(-0.0087437909 5.0984453e-05 8.6056362e-05)
(-0.0089036873 8.5062033e-05 7.8943254e-05)
(-0.009088343 0.00011613436 5.4892408e-05)
(-0.0092720568 0.00012844759 1.0845545e-05)
(-0.0083527855 -9.9740972e-06 1.4135774e-05)
(-0.0083708368 -1.500011e-05 3.0537685e-05)
(-0.0084087249 -8.7013895e-06 5.2057122e-05)
(-0.008479203 1.1994701e-05 7.2498167e-05)
(-0.0085817063 4.3140473e-05 8.2705869e-05)
(-0.0087127529 7.8572956e-05 7.7963606e-05)
(-0.0088663451 0.00011129061 5.5143164e-05)
(-0.0090166119 0.00012580927 1.3764247e-05)
(-0.0082904728 -8.100326e-06 6.2771877e-06)
(-0.0082996684 -1.7371464e-05 2.2384309e-05)
(-0.008324462 -1.4089893e-05 4.4371489e-05)
(-0.0083740976 5.1104165e-06 6.644605e-05)
(-0.0084519805 3.6177056e-05 7.885615e-05)
(-0.008554705 7.2547411e-05 7.6079426e-05)
(-0.0086772543 0.00010643367 5.478118e-05)
(-0.0087958182 0.00012309898 1.6483078e-05)
(-0.008263505 -5.5019127e-06 -2.3261931e-07)
(-0.00826205 -1.8594376e-05 1.3608615e-05)
(-0.0082732838 -1.792444e-05 3.7045441e-05)
(-0.0083015479 -1.0057539e-06 5.9567243e-05)
(-0.0083538257 2.9637963e-05 7.4055135e-05)
(-0.0084283437 6.6558223e-05 7.3348027e-05)
(-0.008520465 0.0001010032 5.4102489e-05)
(-0.0086088855 0.00012013339 1.9263547e-05)
(-0.0082710672 -2.7129838e-06 -6.449774e-06)
(-0.0082587821 -1.8718571e-05 4.2719066e-06)
(-0.0082519744 -2.0074026e-05 2.8948889e-05)
(-0.0082620751 -4.9374599e-06 5.2781326e-05)
(-0.0082881657 2.460605e-05 6.893684e-05)
(-0.0083337777 6.1687918e-05 7.0387146e-05)
(-0.0083961935 9.6836947e-05 5.3732576e-05)
(-0.0084558927 0.00011936573 2.2420522e-05)
(-0.0083143408 -3.6527131e-07 -1.4201095e-05)
(-0.0082904504 -1.8956213e-05 -5.7289776e-06)
(-0.0082641468 -2.2121429e-05 1.8883829e-05)
(-0.0082494518 -8.1149357e-06 4.4709612e-05)
(-0.0082498787 1.9977647e-05 6.2797547e-05)
(-0.0082661984 5.6736651e-05 6.669405e-05)
(-0.0082974742 9.2117447e-05 5.2973121e-05)
(-0.0083274296 0.0001180203 2.5373268e-05)
(-0.0083947008 1.5874709e-06 -2.3875196e-05)
(-0.0083573638 -1.9706679e-05 -1.6936029e-05)
(-0.0083101954 -2.4722307e-05 7.4973969e-06)
(-0.0082699503 -1.3089357e-05 3.358395e-05)
(-0.0082420166 1.3117485e-05 5.3851699e-05)
(-0.0082287967 4.8311472e-05 6.0606048e-05)
(-0.008229999 8.282828e-05 5.0346803e-05)
(-0.0082311615 0.00011050287 2.7159819e-05)
(-0.0085124967 3.2680461e-06 -3.5762021e-05)
(-0.0084593393 -2.0916421e-05 -3.0061919e-05)
(-0.0083898512 -2.8445354e-05 -5.7339739e-06)
(-0.0083235461 -1.9640416e-05 2.0875955e-05)
(-0.0082681487 4.0031423e-06 4.2572441e-05)
(-0.0082269891 3.7070986e-05 5.2003052e-05)
(-0.0081998632 6.9969843e-05 4.5735948e-05)
(-0.0081747771 9.8135975e-05 2.782581e-05)
(-0.0086696036 4.652545e-06 -5.0305058e-05)
(-0.0085986413 -2.2517795e-05 -4.5887766e-05)
(-0.0085048563 -3.3299869e-05 -2.1635873e-05)
(-0.0084118595 -2.7892086e-05 5.7885032e-06)
(-0.0083292635 -7.0871903e-06 2.9241118e-05)
(-0.0082616729 2.3510247e-05 4.1267173e-05)
(-0.0082084445 5.3927838e-05 3.8986509e-05)
(-0.0081602946 8.2123927e-05 2.7380045e-05)
(-0.0088687077 5.7011462e-06 -6.7549841e-05)
(-0.0087767379 -2.4673764e-05 -6.4173143e-05)
(-0.0086572042 -3.9066006e-05 -3.9842035e-05)
(-0.0085369172 -3.7465353e-05 -1.152818e-05)
(-0.0084272021 -2.0325806e-05 1.3880867e-05)
(-0.0083338767 7.1299656e-06 2.8882028e-05)
(-0.0082570225 3.4338575e-05 3.1055131e-05)
(-0.0081888969 6.2194551e-05 2.6240695e-05)
(-0.0091118399 6.4039499e-06 -8.7409024e-05)
(-0.0089953982 -2.7456345e-05 -8.4733166e-05)
(-0.0088481914 -4.5711421e-05 -5.9783747e-05)
(-0.00869977 -4.8256322e-05 -3.0371852e-05)
(-0.0085632482 -3.5461832e-05 -2.848789e-06)
(-0.0084452144 -1.1759184e-05 1.5593637e-05)
(-0.0083468585 1.1697604e-05 2.239434e-05)
(-0.0082618314 3.9252886e-05 2.4410869e-05)
(-0.0094012697 6.4439845e-06 -0.00010979548)
(-0.0092559614 -3.1189373e-05 -0.00010704687)
(-0.0090785767 -5.3496741e-05 -8.1168727e-05)
(-0.0089013765 -6.0492818e-05 -5.05529e-05)
(-0.0087386288 -5.237226e-05 -2.0824252e-05)
(-0.00859736 -3.3135487e-05 1.2100338e-06)
(-0.0084797032 -1.3610129e-05 1.3329156e-05)
(-0.0083807665 1.287053e-05 2.1991071e-05)
(-0.0097392984 5.4883408e-06 -0.00013442244)
(-0.0095598039 -3.6304081e-05 -0.00013094865)
(-0.009349955 -6.2964451e-05 -0.00010409577)
(-0.0091436096 -7.4681894e-05 -7.2231356e-05)
(-0.0089553878 -7.1442967e-05 -4.0264435e-05)
(-0.0087924378 -5.7156603e-05 -1.4425513e-05)
(-0.0086577756 -4.1534916e-05 3.5021911e-06)
(-0.0085480503 -1.5915935e-05 1.915251e-05)
(-0.010128647 3.1597274e-06 -0.00016257614)
(-0.0099087953 -4.4063966e-05 -0.00015804617)
(-0.0096645116 -7.5574394e-05 -0.00012901491)
(-0.0094290214 -9.177121e-05 -9.5204253e-05)
(-0.0092161473 -9.3212284e-05 -6.0872489e-05)
(-0.0090334994 -8.4198817e-05 -3.1299409e-05)
(-0.0088842855 -7.2885005e-05 -6.8875482e-06)
(-0.0087677432 -4.8071263e-05 1.6288077e-05)
(-0.014951937 -0.00012618135 1.0153785e-05)
(-0.013807238 -0.00029253539 0.00010523753)
(-0.01293394 -0.00021977688 0.00015709922)
(-0.012220006 -0.00027103789 0.00015870336)
(-0.012277102 4.7792792e-06 5.0782698e-05)
(-0.011159174 -0.00014653563 0.00020862649)
(-0.011519534 -4.7645904e-06 2.7499973e-05)
(-0.011444536 6.6921469e-05 -6.7639059e-05)
(-0.013191329 0.00020902769 -1.0164326e-05)
(-0.012492648 2.2572061e-05 2.8911723e-05)
(-0.0119082 1.9986157e-05 8.3226481e-05)
(-0.011459364 -4.0637897e-05 8.5516664e-05)
(-0.011174124 8.9191008e-05 -1.0568261e-05)
(-0.01098979 -2.3386666e-05 0.00014161168)
(-0.01092522 8.2610062e-05 -2.9331923e-05)
(-0.011100764 6.9860048e-05 -0.0002240336)
(-0.012829194 0.00020952124 -2.1477313e-05)
(-0.012259432 9.0752317e-05 -3.1046962e-05)
(-0.011734356 5.9861195e-05 -2.7920336e-06)
(-0.011318388 3.70538e-05 -1.5129856e-05)
(-0.011015706 4.548337e-05 -4.9672947e-05)
(-0.010781947 3.7323697e-05 -6.1842586e-05)
(-0.010710649 6.7138261e-05 -0.00011471261)
(-0.010731824 4.1080497e-05 -0.00026586363)
(-0.012128081 0.00023898216 -1.0797158e-05)
(-0.011644334 0.00019141566 -6.0871209e-05)
(-0.01119879 0.00015672244 -7.4073549e-05)
(-0.010830193 0.00012563667 -9.8729393e-05)
(-0.010549012 0.00010051144 -0.00012356067)
(-0.010350397 7.0275255e-05 -0.00013077541)
(-0.010252788 6.2239467e-05 -0.00016495204)
(-0.010248893 1.7287186e-05 -0.00022385877)
(-0.011573345 0.00019292462 -1.4125398e-06)
(-0.011148137 0.00017372223 -5.7955216e-05)
(-0.010751965 0.0001441789 -8.0726831e-05)
(-0.010417737 0.00011654084 -0.00010232543)
(-0.010154845 8.8664182e-05 -0.00011833598)
(-0.009965808 6.1487967e-05 -0.00012625083)
(-0.0098586619 4.1732413e-05 -0.00014086304)
(-0.0098382437 7.4637906e-07 -0.00015819579)
(-0.011087718 0.00016794834 4.1536383e-06)
(-0.010711977 0.00016066565 -5.3550131e-05)
(-0.01035739 0.0001329852 -8.2232959e-05)
(-0.010053895 0.00010441004 -0.00010188041)
(-0.0098104415 7.4780871e-05 -0.00011185748)
(-0.0096318977 4.7415491e-05 -0.00011357867)
(-0.0095244833 2.5193318e-05 -0.00011623184)
(-0.0094935704 -8.4002756e-06 -0.00011330203)
(-0.010648643 0.00015233132 5.3721321e-06)
(-0.010315978 0.00014904182 -5.0420071e-05)
(-0.0099988443 0.00012260213 -8.0940527e-05)
(-0.009725057 9.2965775e-05 -9.9439134e-05)
(-0.0095028544 6.1630279e-05 -0.00010516107)
(-0.0093376662 3.4419945e-05 -0.00010068096)
(-0.009235316 1.3458965e-05 -9.5899513e-05)
(-0.0091994022 -1.2966623e-05 -8.291211e-05)
(-0.010249607 0.00014191783 4.1036159e-06)
(-0.0099578675 0.00013856309 -4.8873094e-05)
(-0.0096761116 0.00011220309 -7.8882792e-05)
(-0.0094311495 8.1735992e-05 -9.5478826e-05)
(-0.0092311602 4.9764239e-05 -9.7642005e-05)
(-0.0090815627 2.3450713e-05 -8.8539658e-05)
(-0.0089872356 4.9938984e-06 -7.8611975e-05)
(-0.0089502369 -1.4669276e-05 -6.1079101e-05)
(-0.0098884092 0.00013544033 1.2420534e-06)
(-0.0096349015 0.00013032146 -4.88679e-05)
(-0.0093871476 0.00010324555 -7.7302522e-05)
(-0.0091708241 7.1889547e-05 -9.1462161e-05)
(-0.0089940749 3.9660486e-05 -9.0507978e-05)
(-0.0088615667 1.4432772e-05 -7.7779712e-05)
(-0.0087777052 -1.3152477e-06 -6.4098114e-05)
(-0.008742508 -1.4736458e-05 -4.4931107e-05)
(-0.0095630255 0.00013172253 -2.1731743e-06)
(-0.0093452672 0.00012373558 -4.9477723e-05)
(-0.0091305313 9.5532351e-05 -7.6129798e-05)
(-0.0089431789 6.3180383e-05 -8.7675383e-05)
(-0.0087905928 3.0900611e-05 -8.3952606e-05)
(-0.0086767719 6.7250584e-06 -6.8430831e-05)
(-0.0086049953 -6.3917161e-06 -5.1703758e-05)
(-0.0085737674 -1.3808184e-05 -3.2513702e-05)
(-0.0092723902 0.00012916497 -5.5456784e-06)
(-0.0090898111 0.00011833 -5.0017536e-05)
(-0.0089068089 8.8639798e-05 -7.5114897e-05)
(-0.0087482763 5.4978806e-05 -8.3863698e-05)
(-0.0086206 2.2983436e-05 -7.7575839e-05)
(-0.0085265777 -6.6248084e-08 -6.0138774e-05)
(-0.008468117 -1.0657769e-05 -4.0652942e-05)
(-0.0084419686 -1.2112259e-05 -2.3115943e-05)
(-0.0090165558 0.00012650607 -8.7156077e-06)
(-0.0088671131 0.00011357093 -5.0331375e-05)
(-0.0087152722 8.2113214e-05 -7.3878158e-05)
(-0.0085860696 4.7374792e-05 -8.0002147e-05)
(-0.0084836628 1.5865997e-05 -7.1443219e-05)
(-0.0084099156 -5.826342e-06 -5.2381655e-05)
(-0.0083663383 -1.3674157e-05 -3.1264231e-05)
(-0.0083435454 -9.9905456e-06 -1.5062433e-05)
(-0.0087953921 0.00012372466 -1.1980664e-05)
(-0.0086770288 0.00010855543 -5.0319531e-05)
(-0.008556418 7.6108458e-05 -7.2145258e-05)
(-0.0084559782 4.0745017e-05 -7.6132748e-05)
(-0.0083786803 9.6390444e-06 -6.5346902e-05)
(-0.0083258901 -1.058522e-05 -4.4661823e-05)
(-0.0082969501 -1.5554359e-05 -2.3263889e-05)
(-0.0082816878 -7.8008219e-06 -7.3584286e-06)
(-0.00860816 0.00012061407 -1.5418865e-05)
(-0.0085193842 0.00010270865 -5.0169382e-05)
(-0.0084286973 6.9789935e-05 -6.9795811e-05)
(-0.0083564046 3.4060027e-05 -7.1497316e-05)
(-0.008305247 3.6648778e-06 -5.8438624e-05)
(-0.0082749005 -1.4091218e-05 -3.7114177e-05)
(-0.0082597574 -1.6265883e-05 -1.4481696e-05)
(-0.0082557313 -4.8203518e-06 -7.5851942e-07)
(-0.0084552698 0.00011964131 -1.9350241e-05)
(-0.0083948612 9.7959476e-05 -5.0394217e-05)
(-0.0083331029 6.4184576e-05 -6.7231732e-05)
(-0.0082894819 2.8346694e-05 -6.6524031e-05)
(-0.0082647255 -7.0928857e-07 -5.1483571e-05)
(-0.0082532993 -1.6350019e-05 -2.8611712e-05)
(-0.0082575654 -1.6179843e-05 -4.6219919e-06)
(-0.0082650016 -1.5905295e-06 5.7592261e-06)
(-0.0083270308 0.00011816135 -2.3149258e-05)
(-0.0082962376 9.2680624e-05 -5.0249543e-05)
(-0.0082649701 5.827874e-05 -6.3890296e-05)
(-0.0082499399 2.2616189e-05 -6.0351697e-05)
(-0.0082509725 -4.7664653e-06 -4.3060412e-05)
(-0.0082654702 -1.8955233e-05 -1.8104329e-05)
(-0.0082900007 -1.6505209e-05 5.6884363e-06)
(-0.0083095512 1.1299547e-06 1.380213e-05)
(-0.0082307609 0.00011053466 -2.564452e-05)
(-0.0082288943 8.2978411e-05 -4.8179542e-05)
(-0.0082275846 4.9123739e-05 -5.8052587e-05)
(-0.0082418278 1.4827175e-05 -5.1349559e-05)
(-0.008271158 -1.065334e-05 -3.1701376e-05)
(-0.00831154 -2.2184079e-05 -6.4468575e-06)
(-0.0083569153 -1.7478445e-05 1.7245252e-05)
(-0.008390391 3.3305666e-06 2.3794011e-05)
(-0.0081743321 9.8011743e-05 -2.6777296e-05)
(-0.0081986806 6.9785174e-05 -4.3993487e-05)
(-0.0082257957 3.7369432e-05 -4.98047e-05)
(-0.0082681069 4.903981e-06 -4.0231501e-05)
(-0.0083250207 -1.8050688e-05 -1.883909e-05)
(-0.0083915478 -2.6453424e-05 7.1606264e-06)
(-0.008459302 -1.8898705e-05 3.0808888e-05)
(-0.0085088488 5.0762973e-06 3.5999195e-05)
(-0.0081598709 8.1933316e-05 -2.6568775e-05)
(-0.0082073325 5.3516397e-05 -3.7676212e-05)
(-0.0082607209 2.3190026e-05 -3.9670982e-05)
(-0.0083297485 -7.0438553e-06 -2.7387843e-05)
(-0.0084139222 -2.7069853e-05 -3.8579846e-06)
(-0.0085072743 -3.1675433e-05 2.3249614e-05)
(-0.0085993527 -2.0514706e-05 4.6885683e-05)
(-0.0086669899 6.5753489e-06 5.0730339e-05)
(-0.0081886418 6.204141e-05 -2.5566614e-05)
(-0.0082563057 3.367645e-05 -3.0193203e-05)
(-0.0083334393 6.4084546e-06 -2.8017409e-05)
(-0.0084280497 -2.0769799e-05 -1.2685209e-05)
(-0.0085389168 -3.707323e-05 1.2925449e-05)
(-0.0086595009 -3.7674152e-05 4.112201e-05)
(-0.0087776365 -2.2729179e-05 6.5011056e-05)
(-0.0088668043 7.6188368e-06 6.8020449e-05)
(-0.0082616845 3.874631e-05 -2.4147284e-05)
(-0.0083467047 1.0909981e-05 -2.2043522e-05)
(-0.0084454035 -1.266642e-05 -1.5151237e-05)
(-0.0085642534 -3.612741e-05 3.5882762e-06)
(-0.0087013411 -4.8285667e-05 3.1419778e-05)
(-0.0088497379 -4.4829595e-05 6.0919225e-05)
(-0.0089960547 -2.5916533e-05 8.5622924e-05)
(-0.0091105315 8.1124658e-06 8.8059021e-05)
(-0.0083807672 1.2424454e-05 -2.2582046e-05)
(-0.0084801036 -1.453268e-05 -1.3399383e-05)
(-0.0085981166 -3.4111451e-05 -1.0951854e-06)
(-0.0087399403 -5.3244027e-05 2.1366192e-05)
(-0.0089029114 -6.0903183e-05 5.1540338e-05)
(-0.0090798636 -5.3167185e-05 8.2436959e-05)
(-0.0092565179 -3.0163572e-05 0.00010822414)
(-0.0094003662 7.8245843e-06 0.00011079296)
(-0.0085483542 -1.6399944e-05 -2.0436409e-05)
(-0.0086585475 -4.2481902e-05 -4.0306637e-06)
(-0.0087936049 -5.813682e-05 1.4291251e-05)
(-0.0089569267 -7.2337544e-05 4.0606811e-05)
(-0.0091451903 -7.5229066e-05 7.3110974e-05)
(-0.0093512511 -6.2877595e-05 0.00010538756)
(-0.0095604474 -3.5511579e-05 0.00013233641)
(-0.0097388512 6.754519e-06 0.00013567177)
(-0.0087682332 -4.8459049e-05 -1.7908911e-05)
(-0.0088852675 -7.372521e-05 6.0639212e-06)
(-0.0090348295 -8.5057135e-05 3.0979971e-05)
(-0.0092176792 -9.4020911e-05 6.1022292e-05)
(-0.0094304849 -9.2319364e-05 9.5951816e-05)
(-0.009665679 -7.5528063e-05 0.00013025011)
(-0.0099094807 -4.3250341e-05 0.00015946991)
(-0.01012858 4.48177e-06 0.00016366255)
(-0.011625429 -3.8654317e-05 -0.00018008213)
(-0.011366563 -1.6430826e-05 8.8859433e-05)
(-0.011718763 9.5233979e-05 6.9529611e-05)
(-0.01160737 0.00026093986 0.00016345676)
(-0.012195737 0.00018411674 0.00016176203)
(-0.012959283 0.00020687541 0.00021468725)
(-0.013815718 0.00028779299 0.00013149768)
(-0.014949247 0.00012549691 2.5051862e-05)
(-0.01110405 -8.7064533e-05 -0.00027561041)
(-0.010978681 -8.480573e-05 1.7486648e-05)
(-0.01097383 -4.4437243e-06 6.2197472e-06)
(-0.011116504 6.8548681e-05 0.00010260145)
(-0.011421067 1.2341669e-05 0.00010202367)
(-0.011887812 -2.6377227e-05 0.00010650861)
(-0.012479474 -2.5576902e-05 4.1455734e-05)
(-0.013180309 -0.00021005287 -2.125624e-06)
(-0.010733795 -5.3573331e-05 -0.00026793364)
(-0.010706101 -7.0079839e-05 -0.00012187694)
(-0.010796689 -2.2236286e-05 -7.3020445e-05)
(-0.010985033 -1.7644019e-05 -3.4569528e-05)
(-0.011298773 -3.9603308e-05 -6.1862259e-06)
(-0.011719449 -5.9407492e-05 7.509386e-06)
(-0.012246395 -9.1227953e-05 -2.5128452e-05)
(-0.012816794 -0.00021136177 -1.8588121e-05)
(-0.010248328 -2.4709661e-05 -0.0002241394)
(-0.010251489 -6.3042243e-05 -0.00016304819)
(-0.010346102 -6.8582139e-05 -0.00013877846)
(-0.010532267 -9.0568628e-05 -0.00011681299)
(-0.010815555 -0.00012549392 -9.442124e-05)
(-0.011184967 -0.00015700084 -6.9336702e-05)
(-0.011629985 -0.00019152456 -5.7760251e-05)
(-0.012113288 -0.00023987626 -1.029876e-05)
(-0.009836369 -7.0566568e-06 -0.00015782171)
(-0.0098544704 -4.4743921e-05 -0.00014013521)
(-0.0099580261 -6.2177588e-05 -0.00012631532)
(-0.01014206 -8.6515442e-05 -0.00011483803)
(-0.010404501 -0.00011627203 -9.9433731e-05)
(-0.010738449 -0.00014394037 -7.7801429e-05)
(-0.011133253 -0.00017265103 -5.6161032e-05)
(-0.01155712 -0.00019197213 -2.3888653e-06)
(-0.0094909751 1.7891731e-06 -0.00011249956)
(-0.009518456 -2.9280201e-05 -0.00011424554)
(-0.009622714 -4.9626023e-05 -0.00011131438)
(-0.0097985403 -7.5070304e-05 -0.00010851185)
(-0.010040985 -0.00010403359 -9.8827003e-05)
(-0.01034371 -0.00013174219 -7.9770911e-05)
(-0.010696628 -0.00015835635 -5.2419364e-05)
(-0.011070349 -0.00016524551 2.6411954e-06)
(-0.0091963579 6.531816e-06 -8.1843342e-05)
(-0.0092282059 -1.7913241e-05 -9.3386657e-05)
(-0.0093276785 -3.7161649e-05 -9.7580518e-05)
(-0.009490742 -6.25998e-05 -0.00010162948)
(-0.0097119437 -9.2421571e-05 -9.6335428e-05)
(-0.0099850563 -0.00012062625 -7.8883173e-05)
(-0.010300352 -0.00014637673 -4.9917464e-05)
(-0.010630959 -0.00014892749 3.9318609e-06)
(-0.0089467617 9.1892214e-06 -6.00789e-05)
(-0.0089794749 -8.9166571e-06 -7.6191979e-05)
(-0.009071053 -2.594114e-05 -8.5533466e-05)
(-0.0092187124 -5.0649217e-05 -9.4521798e-05)
(-0.0094175928 -8.1184341e-05 -9.2926292e-05)
(-0.0096620564 -0.00011040241 -7.7399195e-05)
(-0.0099419352 -0.00013635727 -4.8671164e-05)
(-0.010232211 -0.00013894979 2.9944152e-06)
(-0.0087387998 1.062813e-05 -4.4089383e-05)
(-0.008769733 -1.6388211e-06 -6.2141236e-05)
(-0.0088510483 -1.6243437e-05 -7.5380645e-05)
(-0.0089815697 -4.020409e-05 -8.8149975e-05)
(-0.0091572828 -7.1320971e-05 -8.9560305e-05)
(-0.0093731898 -0.0001018527 -7.6140417e-05)
(-0.0096192095 -0.00012859335 -4.8467516e-05)
(-0.0098715352 -0.00013302301 6.8809408e-07)
(-0.0085700493 1.1083085e-05 -3.173251e-05)