# p  FACE_DATA 1536
#  x  y  z  p
-0.024474 -0.0049843 0.00049065 1.3306
-0.024474 -0.0047921 0.0014534 1.3295
-0.024474 -0.0044162 0.0023608 1.3283
-0.024474 -0.0038713 0.0031774 1.328
-0.024474 -0.0031774 0.0038713 1.328
-0.024474 -0.0023608 0.0044162 1.3283
-0.024474 -0.0014534 0.0047921 1.3295
-0.024474 -0.00049065 0.0049843 1.3306
-0.023425 -0.0050408 0.0004959 1.3879
-0.023425 -0.0048451 0.0014691 1.3829
-0.023425 -0.0044647 0.002387 1.3796
-0.023425 -0.0039147 0.0032134 1.3784
-0.023425 -0.0032134 0.0039147 1.3784
-0.023425 -0.002387 0.0044647 1.3796
-0.023425 -0.0014691 0.0048451 1.383
-0.023425 -0.0004959 0.0050408 1.388
-0.022377 -0.005073 0.00049913 1.4056
-0.022377 -0.0048761 0.0014786 1.3973
-0.022377 -0.0044932 0.0024022 1.3925
-0.022377 -0.0039395 0.0032337 1.3904
-0.022377 -0.0032337 0.0039395 1.3905
-0.022377 -0.0024022 0.0044932 1.3925
-0.022377 -0.0014786 0.0048761 1.3974
-0.022377 -0.00049913 0.005073 1.4057
-0.021331 -0.0050766 0.00049992 1.3667
-0.021331 -0.0048812 0.0014806 1.3572
-0.021332 -0.0044981 0.0024044 1.3519
-0.021331 -0.0039424 0.0032356 1.3493
-0.021331 -0.0032356 0.0039424 1.3493
-0.021332 -0.0024044 0.0044981 1.352
-0.021331 -0.0014806 0.0048812 1.3574
-0.021331 -0.00049992 0.0050766 1.3668
-0.02029 -0.005064 0.00049895 1.2657
-0.02029 -0.0048699 0.0014775 1.2602
-0.02029 -0.0044879 0.0023987 1.2551
-0.02029 -0.0039329 0.0032274 1.2525
-0.02029 -0.0032274 0.0039329 1.2525
-0.02029 -0.0023987 0.0044879 1.2552
-0.02029 -0.0014775 0.0048699 1.2603
-0.02029 -0.00049895 0.005064 1.2658
-0.019252 -0.0050461 0.0004971 1.1133
-0.019251 -0.0048523 0.0014721 1.1107
-0.019252 -0.0044718 0.0023901 1.1077
-0.019252 -0.0039193 0.0032163 1.1063
-0.019252 -0.0032163 0.0039193 1.1063
-0.019252 -0.0023901 0.0044719 1.1078
-0.019251 -0.0014721 0.0048523 1.1108
-0.019252 -0.0004971 0.0050461 1.1135
-0.018215 -0.0050267 0.00049502 0.92716
-0.018214 -0.0048334 0.0014661 0.92805
-0.018214 -0.0044544 0.002381 0.92742
-0.018215 -0.0039045 0.0032044 0.92774
-0.018215 -0.0032044 0.0039045 0.92776
-0.018214 -0.002381 0.0044544 0.92747
-0.018214 -0.0014661 0.0048334 0.92815
-0.018215 -0.00049502 0.0050267 0.9273
-0.017177 -0.005008 0.00049311 0.73417
-0.017177 -0.0048153 0.0014606 0.73843
-0.017177 -0.0044379 0.0023722 0.74014
-0.017177 -0.0038903 0.0031928 0.74189
-0.017177 -0.0031928 0.0038903 0.74191
-0.017177 -0.0023722 0.0044379 0.74018
-0.017177 -0.0014606 0.0048153 0.73851
-0.017177 -0.00049311 0.005008 0.73429
-0.016139 -0.0049923 0.00049161 0.56366
-0.016139 -0.0048004 0.0014561 0.56988
-0.016139 -0.0044242 0.0023649 0.57309
-0.016139 -0.0038783 0.003183 0.5756
-0.016139 -0.003183 0.0038783 0.57561
-0.016139 -0.0023649 0.0044242 0.57314
-0.016139 -0.0014561 0.0048004 0.56998
-0.016139 -0.00049161 0.0049923 0.56381
-0.015101 -0.0049809 0.00049055 0.43382
-0.015101 -0.0047896 0.0014529 0.44011
-0.015101 -0.0044144 0.0023596 0.44354
-0.015101 -0.0038695 0.0031757 0.44598
-0.015101 -0.0031757 0.0038695 0.446
-0.015101 -0.0023596 0.0044144 0.44361
-0.015101 -0.0014529 0.0047896 0.44025
-0.015101 -0.00049055 0.0049809 0.43402
-0.014061 -0.0049738 0.00048988 0.34427
-0.014061 -0.0047829 0.0014509 0.34927
-0.014061 -0.0044082 0.0023563 0.35191
-0.014061 -0.0038639 0.0031711 0.35377
-0.014061 -0.0031711 0.0038639 0.3538
-0.014061 -0.0023563 0.0044082 0.35199
-0.014061 -0.0014509 0.0047829 0.34942
-0.014061 -0.00048988 0.0049738 0.34448
-0.013021 -0.0049696 0.00048945 0.28111
-0.013021 -0.0047787 0.0014496 0.28445
-0.013021 -0.0044043 0.0023542 0.28597
-0.013021 -0.0038606 0.0031683 0.28718
-0.013021 -0.0031683 0.0038606 0.28721
-0.013021 -0.0023542 0.0044043 0.28606
-0.013021 -0.0014496 0.0047787 0.2846
-0.013021 -0.00048945 0.0049696 0.28132
-0.024474 0.00049065 0.0049843 1.3306
-0.024474 0.0014534 0.0047921 1.3295
-0.024474 0.0023608 0.0044162 1.3283
-0.024474 0.0031774 0.0038713 1.328
-0.024474 0.0038713 0.0031774 1.328
-0.024474 0.0044162 0.0023608 1.3283
-0.024474 0.0047921 0.0014534 1.3295
-0.024474 0.0049843 0.00049065 1.3306
-0.023425 0.0004959 0.0050408 1.388
-0.023425 0.0014691 0.0048451 1.383
-0.023425 0.002387 0.0044647 1.3796
-0.023425 0.0032134 0.0039147 1.3784
-0.023425 0.0039147 0.0032134 1.3784
-0.023425 0.0044647 0.002387 1.3796
-0.023425 0.0048451 0.0014691 1.3829
-0.023425 0.0050408 0.0004959 1.3878
-0.022377 0.00049913 0.005073 1.4057
-0.022377 0.0014786 0.0048761 1.3974
-0.022377 0.0024022 0.0044932 1.3925
-0.022377 0.0032337 0.0039395 1.3905
-0.022377 0.0039395 0.0032337 1.3904
-0.022377 0.0044932 0.0024022 1.3925
-0.022377 0.0048761 0.0014786 1.3972
-0.022377 0.005073 0.00049913 1.4054
-0.021331 0.00049992 0.0050766 1.3668
-0.021331 0.0014806 0.0048812 1.3574
-0.021332 0.0024044 0.0044981 1.352
-0.021331 0.0032356 0.0039424 1.3494
-0.021331 0.0039424 0.0032356 1.3494
-0.021332 0.0044981 0.0024044 1.3519
-0.021331 0.0048812 0.0014806 1.3572
-0.021331 0.0050766 0.00049992 1.3665
-0.02029 0.00049895 0.005064 1.2658
-0.02029 0.0014775 0.0048699 1.2604
-0.02029 0.0023987 0.0044879 1.2553
-0.02029 0.0032274 0.0039329 1.2526
-0.02029 0.0039329 0.0032274 1.2525
-0.02029 0.0044879 0.0023987 1.2552
-0.02029 0.0048699 0.0014775 1.2602
-0.02029 0.005064 0.00049895 1.2656
-0.019252 0.0004971 0.0050461 1.1135
-0.019251 0.0014721 0.0048523 1.1109
-0.019252 0.0023901 0.0044719 1.1078
-0.019252 0.0032163 0.0039193 1.1064
-0.019252 0.0039193 0.0032163 1.1064
-0.019252 0.0044718 0.0023901 1.1078
-0.019251 0.0048523 0.0014721 1.1108
-0.019252 0.0050461 0.0004971 1.1134
-0.018215 0.00049502 0.0050267 0.92732
-0.018214 0.0014661 0.0048334 0.92822
-0.018214 0.002381 0.0044544 0.92758
-0.018215 0.0032044 0.0039045 0.92787
-0.018215 0.0039045 0.0032044 0.92786
-0.018214 0.0044544 0.002381 0.92753
-0.018214 0.0048334 0.0014661 0.92815
-0.018215 0.0050267 0.00049502 0.92723
-0.017177 0.00049311 0.005008 0.73432
-0.017177 0.0014606 0.0048153 0.73861
-0.017177 0.0023722 0.0044379 0.74033
-0.017177 0.0031928 0.0038903 0.74208
-0.017177 0.0038903 0.0031928 0.74207
-0.017177 0.0044379 0.0023722 0.74032
-0.017177 0.0048153 0.0014606 0.73858
-0.017177 0.005008 0.00049311 0.73429
-0.016139 0.00049161 0.0049923 0.56385
-0.016139 0.0014561 0.0048004 0.57009
-0.016139 0.0023649 0.0044242 0.57331
-0.016139 0.003183 0.0038783 0.57581
-0.016139 0.0038783 0.003183 0.57581
-0.016139 0.0044242 0.0023649 0.57332
-0.016139 0.0048004 0.0014561 0.57009
-0.016139 0.0049923 0.00049161 0.56384
-0.015101 0.00049055 0.0049809 0.43406
-0.015101 0.0014529 0.0047896 0.44036
-0.015101 0.0023596 0.0044144 0.44377
-0.015101 0.0031757 0.0038695 0.4462
-0.015101 0.0038695 0.0031757 0.4462
-0.015101 0.0044144 0.0023596 0.44378
-0.015101 0.0047896 0.0014529 0.44037
-0.015101 0.0049809 0.00049055 0.43407
-0.014061 0.00048988 0.0049738 0.34452
-0.014061 0.0014509 0.0047829 0.34951
-0.014061 0.0023563 0.0044082 0.35212
-0.014061 0.0031711 0.0038639 0.35398
-0.014061 0.0038639 0.0031711 0.35399
-0.014061 0.0044082 0.0023563 0.35214
-0.014061 0.0047829 0.0014509 0.34953
-0.014061 0.0049738 0.00048988 0.34454
-0.013021 0.00048944 0.0049696 0.28134
-0.013021 0.0014496 0.0047787 0.28466
-0.013021 0.0023542 0.0044043 0.28617
-0.013021 0.0031683 0.0038606 0.28735
-0.013021 0.0038606 0.0031683 0.28736
-0.013021 0.0044043 0.0023542 0.28618
-0.013021 0.0047787 0.0014496 0.28468
-0.013021 0.0049696 0.00048945 0.28137
-0.024474 0.0049843 -0.00049065 1.3306
-0.024474 0.0047921 -0.0014534 1.3295
-0.024474 0.0044162 -0.0023608 1.3283
-0.024474 0.0038713 -0.0031774 1.328
-0.024474 0.0031774 -0.0038713 1.328
-0.024474 0.0023608 -0.0044162 1.3283
-0.024474 0.0014534 -0.0047921 1.3295
-0.024474 0.00049065 -0.0049843 1.3306
-0.023425 0.0050408 -0.0004959 1.3878
-0.023425 0.0048451 -0.0014691 1.3829
-0.023425 0.0044647 -0.002387 1.3796
-0.023425 0.0039147 -0.0032134 1.3784
-0.023425 0.0032134 -0.0039147 1.3784
-0.023425 0.002387 -0.0044647 1.3796
-0.023425 0.0014691 -0.0048451 1.3829
-0.023425 0.0004959 -0.0050408 1.3878
-0.022377 0.005073 -0.00049913 1.4054
-0.022377 0.0048761 -0.0014786 1.3972
-0.022377 0.0044932 -0.0024022 1.3925
-0.022377 0.0039395 -0.0032337 1.3904
-0.022377 0.0032337 -0.0039395 1.3904
-0.022377 0.0024022 -0.0044932 1.3925
-0.022377 0.0014786 -0.0048761 1.3972
-0.022377 0.00049913 -0.005073 1.4055
-0.021331 0.0050766 -0.00049992 1.3665
-0.021331 0.0048812 -0.0014806 1.3571
-0.021332 0.0044981 -0.0024044 1.3519
-0.021331 0.0039424 -0.0032356 1.3493
-0.021331 0.0032356 -0.0039424 1.3493
-0.021332 0.0024044 -0.0044981 1.3519
-0.021331 0.0014806 -0.0048812 1.3571
-0.021331 0.00049992 -0.0050766 1.3666
-0.02029 0.005064 -0.00049895 1.2656
-0.02029 0.0048699 -0.0014775 1.2602
-0.02029 0.0044879 -0.0023987 1.2551
-0.02029 0.0039329 -0.0032274 1.2524
-0.02029 0.0032274 -0.0039329 1.2524
-0.02029 0.0023987 -0.0044879 1.2551
-0.02029 0.0014775 -0.0048699 1.2602
-0.02029 0.00049895 -0.005064 1.2656
-0.019252 0.0050461 -0.0004971 1.1133
-0.019251 0.0048523 -0.0014721 1.1107
-0.019252 0.0044718 -0.0023901 1.1076
-0.019252 0.0039193 -0.0032163 1.1062
-0.019252 0.0032163 -0.0039193 1.1062
-0.019252 0.0023901 -0.0044718 1.1076
-0.019251 0.0014721 -0.0048523 1.1107
-0.019252 0.0004971 -0.0050461 1.1133
-0.018215 0.0050267 -0.00049502 0.92721
-0.018214 0.0048334 -0.0014661 0.92806
-0.018214 0.0044544 -0.002381 0.92737
-0.018215 0.0039045 -0.0032044 0.92764
-0.018215 0.0032044 -0.0039045 0.92762
-0.018214 0.002381 -0.0044544 0.92732
-0.018214 0.0014661 -0.0048334 0.92796
-0.018215 0.00049502 -0.0050267 0.92708
-0.017177 0.005008 -0.00049311 0.73426
-0.017177 0.0048153 -0.0014606 0.73848
-0.017177 0.0044379 -0.0023722 0.74014
-0.017177 0.0038903 -0.0031928 0.74183
-0.017177 0.0031928 -0.0038903 0.74179
-0.017177 0.0023722 -0.0044379 0.74003
-0.017177 0.0014606 -0.0048153 0.73831
-0.017177 0.00049311 -0.005008 0.73405
-0.016139 0.0049923 -0.00049161 0.56382
-0.016139 0.0048004 -0.0014561 0.56999
-0.016139 0.0044242 -0.0023649 0.57315
-0.016139 0.0038783 -0.003183 0.57558
-0.016139 0.003183 -0.0038783 0.57553
-0.016139 0.0023649 -0.0044242 0.573
-0.016139 0.0014561 -0.0048004 0.56977
-0.016139 0.00049161 -0.0049923 0.56355
-0.015101 0.0049809 -0.00049055 0.43404
-0.015101 0.0047896 -0.0014529 0.44027
-0.015101 0.0044144 -0.0023596 0.44363
-0.015101 0.0038695 -0.0031757 0.44599
-0.015101 0.0031757 -0.0038695 0.44593
-0.015101 0.0023596 -0.0044144 0.44347
-0.015101 0.0014529 -0.0047896 0.44003
-0.015101 0.00049055 -0.0049809 0.43374
-0.014061 0.0049738 -0.00048988 0.34452
-0.014061 0.0047829 -0.0014509 0.34946
-0.014061 0.0044082 -0.0023563 0.35201
-0.014061 0.0038639 -0.0031711 0.35379
-0.014061 0.0031711 -0.0038639 0.35375
-0.014061 0.0023563 -0.0044082 0.35187
-0.014061 0.0014509 -0.0047829 0.34923
-0.014061 0.00048988 -0.0049738 0.34424
-0.013021 0.0049696 -0.00048944 0.28137
-0.013021 0.0047787 -0.0014496 0.28465
-0.013021 0.0044043 -0.0023542 0.28609
-0.013021 0.0038606 -0.0031683 0.28721
-0.013021 0.0031683 -0.0038606 0.28717
-0.013021 0.0023542 -0.0044043 0.28596
-0.013021 0.0014496 -0.0047787 0.28444
-0.013021 0.00048944 -0.0049696 0.2811
-0.024474 -0.00049065 -0.0049843 1.3306
-0.024474 -0.0014534 -0.0047921 1.3295
-0.024474 -0.0023608 -0.0044162 1.3283
-0.024474 -0.0031774 -0.0038713 1.328
-0.024474 -0.0038713 -0.0031774 1.328
-0.024474 -0.0044162 -0.0023608 1.3283
-0.024474 -0.0047921 -0.0014534 1.3295
-0.024474 -0.0049843 -0.00049065 1.3306
-0.023425 -0.0004959 -0.0050408 1.3878
-0.023425 -0.0014691 -0.0048451 1.3829
-0.023425 -0.002387 -0.0044647 1.3795
-0.023425 -0.0032134 -0.0039147 1.3783
-0.023425 -0.0039147 -0.0032134 1.3783
-0.023425 -0.0044647 -0.002387 1.3795
-0.023425 -0.0048451 -0.0014691 1.3828
-0.023425 -0.0050408 -0.0004959 1.3878
-0.022377 -0.00049913 -0.005073 1.4056
-0.022377 -0.0014786 -0.0048761 1.3973
-0.022377 -0.0024022 -0.0044932 1.3924
-0.022377 -0.0032337 -0.0039395 1.3904
-0.022377 -0.0039395 -0.0032337 1.3903
-0.022377 -0.0044932 -0.0024022 1.3924
-0.022377 -0.0048761 -0.0014786 1.3971
-0.022377 -0.005073 -0.00049913 1.4054
-0.021331 -0.00049992 -0.0050766 1.3667
-0.021331 -0.0014806 -0.0048812 1.3572
-0.021332 -0.0024044 -0.0044981 1.3518
-0.021331 -0.0032356 -0.0039424 1.3492
-0.021331 -0.0039424 -0.0032356 1.3492
-0.021332 -0.0044981 -0.0024044 1.3518
-0.021331 -0.0048812 -0.0014806 1.3571
-0.021331 -0.0050766 -0.00049992 1.3665
-0.02029 -0.00049895 -0.005064 1.2656
-0.02029 -0.0014775 -0.0048699 1.2602
-0.02029 -0.0023987 -0.0044879 1.2551
-0.02029 -0.0032274 -0.0039329 1.2524
-0.02029 -0.0039329 -0.0032274 1.2524
-0.02029 -0.0044879 -0.0023987 1.255
-0.02029 -0.0048699 -0.0014775 1.2602
-0.02029 -0.005064 -0.00049895 1.2656
-0.019252 -0.0004971 -0.0050461 1.1133
-0.019251 -0.0014721 -0.0048523 1.1107
-0.019252 -0.0023901 -0.0044718 1.1076
-0.019252 -0.0032163 -0.0039193 1.1062
-0.019252 -0.0039193 -0.0032163 1.1062
-0.019252 -0.0044719 -0.0023901 1.1076
-0.019251 -0.0048523 -0.0014721 1.1107
-0.019252 -0.0050461 -0.0004971 1.1133
-0.018215 -0.00049502 -0.0050267 0.92709
-0.018214 -0.0014661 -0.0048334 0.92799
-0.018214 -0.002381 -0.0044544 0.92734
-0.018215 -0.0032044 -0.0039045 0.92764
-0.018215 -0.0039045 -0.0032044 0.92764
-0.018214 -0.0044544 -0.002381 0.92736
-0.018214 -0.0048334 -0.0014661 0.92803
-0.018215 -0.0050267 -0.00049502 0.92715
-0.017177 -0.00049311 -0.005008 0.73406
-0.017177 -0.0014606 -0.0048153 0.73834
-0.017177 -0.0023722 -0.0044379 0.74006
-0.017177 -0.0031928 -0.0038903 0.74181
-0.017177 -0.0038903 -0.0031928 0.74182
-0.017177 -0.0044379 -0.0023722 0.7401
-0.017177 -0.0048153 -0.0014606 0.7384
-0.017177 -0.005008 -0.00049311 0.73415
-0.016139 -0.00049161 -0.0049923 0.56355
-0.016139 -0.0014561 -0.0048004 0.56979
-0.016139 -0.0023649 -0.0044242 0.573
-0.016139 -0.003183 -0.0038783 0.57551
-0.016139 -0.0038783 -0.003183 0.57553
-0.016139 -0.0044242 -0.0023649 0.57305
-0.016139 -0.0048004 -0.0014561 0.56985
-0.016139 -0.0049923 -0.00049161 0.56365
-0.015101 -0.00049055 -0.0049809 0.43374
-0.015101 -0.0014529 -0.0047896 0.44004
-0.015101 -0.0023596 -0.0044144 0.44345
-0.015101 -0.0031757 -0.0038695 0.44589
-0.015101 -0.0038695 -0.0031757 0.4459
-0.015101 -0.0044144 -0.0023596 0.44348
-0.015101 -0.0047896 -0.0014529 0.44008
-0.015101 -0.0049809 -0.00049055 0.43381
-0.014061 -0.00048988 -0.0049738 0.34423
-0.014061 -0.0014509 -0.0047829 0.34922
-0.014061 -0.0023563 -0.0044082 0.35182
-0.014061 -0.0031711 -0.0038639 0.35367
-0.014061 -0.0038639 -0.0031711 0.35367
-0.014061 -0.0044082 -0.0023563 0.35183
-0.014061 -0.0047829 -0.0014509 0.34923
-0.014061 -0.0049738 -0.00048988 0.34425
-0.013021 -0.00048945 -0.0049696 0.28109
-0.013021 -0.0014496 -0.0047787 0.28438
-0.013021 -0.0023542 -0.0044043 0.28587
-0.013021 -0.0031683 -0.0038606 0.28705
-0.013021 -0.0038606 -0.0031683 0.28705
-0.013021 -0.0044043 -0.0023542 0.28588
-0.013021 -0.0047787 -0.0014496 0.28439
-0.013021 -0.0049696 -0.00048944 0.28109
-0.01198 -0.0049663 0.00048911 0.22748
-0.01198 -0.0047756 0.0014486 0.2298
-0.01198 -0.0044013 0.0023525 0.23058
-0.01198 -0.0038579 0.0031661 0.23125
-0.01198 -0.0031661 0.0038579 0.23128
-0.01198 -0.0023525 0.0044013 0.23066
-0.01198 -0.0014486 0.0047756 0.22994
-0.01198 -0.00048911 0.0049663 0.22768
-0.010939 -0.004963 0.0004888 0.17488
-0.010939 -0.0047723 0.0014477 0.17707
-0.010939 -0.0043983 0.002351 0.17768
-0.010939 -0.0038553 0.0031639 0.17806
-0.010939 -0.0031639 0.0038553 0.17809
-0.010939 -0.002351 0.0043983 0.17775
-0.010939 -0.0014477 0.0047723 0.17719
-0.010939 -0.0004888 0.004963 0.17506
-0.009897 -0.0049597 0.0004885 0.12613
-0.0098971 -0.0047692 0.0014467 0.12844
-0.0098971 -0.0043954 0.0023494 0.12917
-0.009897 -0.0038527 0.0031618 0.12954
-0.009897 -0.0031618 0.0038527 0.12956
-0.0098971 -0.0023494 0.0043954 0.12922
-0.0098971 -0.0014467 0.0047692 0.12852
-0.009897 -0.0004885 0.0049597 0.12625
-0.0088557 -0.0049571 0.00048823 0.0882
-0.0088557 -0.0047666 0.0014459 0.090344
-0.0088557 -0.004393 0.0023481 0.09116
-0.0088557 -0.0038506 0.0031601 0.091618
-0.0088557 -0.0031601 0.0038506 0.091627
-0.0088557 -0.0023481 0.004393 0.091189
-0.0088557 -0.0014459 0.0047666 0.090396
-0.0088557 -0.00048823 0.0049571 0.08828
-0.0078144 -0.0049553 0.00048805 0.064444
-0.0078144 -0.0047649 0.0014454 0.066024
-0.0078144 -0.0043914 0.0023473 0.066687
-0.0078144 -0.0038492 0.0031589 0.067181
-0.0078144 -0.0031589 0.0038492 0.067185
-0.0078144 -0.0023473 0.0043914 0.066699
-0.0078144 -0.0014454 0.0047649 0.066049
-0.0078144 -0.00048805 0.0049553 0.064486
-0.0067729 -0.0049545 0.00048797 0.051493
-0.0067729 -0.0047641 0.0014452 0.052284
-0.0067729 -0.0043906 0.0023468 0.052671
-0.0067729 -0.0038485 0.0031584 0.053148
-0.0067729 -0.0031584 0.0038485 0.053147
-0.0067729 -0.0023468 0.0043906 0.052669
-0.0067729 -0.0014452 0.0047641 0.052285
-0.0067729 -0.00048797 0.0049545 0.051501
-0.0057312 -0.004954 0.00048792 0.042493
-0.0057312 -0.0047636 0.001445 0.042856
-0.0057312 -0.0043902 0.0023466 0.043024
-0.0057312 -0.0038481 0.0031581 0.043379
-0.0057312 -0.0031581 0.0038481 0.043375
-0.0057312 -0.0023466 0.0043902 0.043014
-0.0057312 -0.001445 0.0047636 0.04284
-0.0057312 -0.00048792 0.004954 0.042474
-0.0046894 -0.0049537 0.00048789 0.033061
-0.0046894 -0.0047633 0.0014449 0.033436
-0.0046894 -0.0043899 0.0023465 0.033562
-0.0046894 -0.0038478 0.0031578 0.033746
-0.0046894 -0.0031578 0.0038478 0.033741
-0.0046894 -0.0023465 0.0043899 0.033544
-0.0046894 -0.0014449 0.0047633 0.03341
-0.0046894 -0.00048789 0.0049537 0.033026
-0.0036476 -0.0049532 0.00048785 0.023604
-0.0036476 -0.0047629 0.0014448 0.024109
-0.0036476 -0.0043895 0.0023462 0.024278
-0.0036476 -0.0038474 0.0031575 0.024364
-0.0036476 -0.0031575 0.0038474 0.024357
-0.0036476 -0.0023462 0.0043895 0.024257
-0.0036476 -0.0014448 0.0047629 0.024078
-0.0036476 -0.00048785 0.0049532 0.023562
-0.002606 -0.0049527 0.00048781 0.016413
-0.0026059 -0.0047624 0.0014447 0.016937
-0.0026059 -0.0043891 0.002346 0.017115
-0.0026059 -0.0038471 0.0031572 0.017163
-0.0026059 -0.0031572 0.0038471 0.017156
-0.0026059 -0.002346 0.0043891 0.017094
-0.0026059 -0.0014447 0.0047624 0.016903
-0.002606 -0.00048781 0.0049527 0.01637
-0.0015643 -0.0049524 0.00048778 0.012604
-0.0015643 -0.0047621 0.0014446 0.012954
-0.0015643 -0.0043888 0.0023459 0.013078
-0.0015643 -0.0038468 0.003157 0.013106
-0.0015643 -0.003157 0.0038468 0.0131
-0.0015643 -0.0023459 0.0043888 0.013059
-0.0015643 -0.0014446 0.0047621 0.01292
-0.0015643 -0.00048778 0.0049524 0.012566
-0.00052256 -0.0049523 0.00048776 0.010991
-0.00052255 -0.004762 0.0014445 0.011126
-0.00052255 -0.0043887 0.0023458 0.011169
-0.00052255 -0.0038467 0.0031569 0.011189
-0.00052255 -0.0031569 0.0038467 0.011184
-0.00052255 -0.0023458 0.0043887 0.011152
-0.00052255 -0.0014445 0.004762 0.011098
-0.00052256 -0.00048776 0.0049523 0.010961
-0.01198 0.00048911 0.0049663 0.2277
-0.01198 0.0014486 0.0047756 0.22999
-0.01198 0.0023525 0.0044013 0.23076
-0.01198 0.0031661 0.0038579 0.23141
-0.01198 0.0038579 0.0031661 0.23141
-0.01198 0.0044013 0.0023525 0.23076
-0.01198 0.0047756 0.0014486 0.23001
-0.01198 0.0049663 0.00048911 0.22771
-0.010939 0.0004888 0.004963 0.17507
-0.010939 0.0014477 0.0047723 0.17724
-0.010939 0.002351 0.0043983 0.17783
-0.010939 0.0031639 0.0038553 0.17821
-0.010939 0.0038553 0.0031639 0.17821
-0.010939 0.0043983 0.002351 0.17784
-0.010939 0.0047723 0.0014477 0.17726
-0.010939 0.004963 0.0004888 0.17509
-0.009897 0.0004885 0.0049597 0.12627
-0.0098971 0.0014467 0.0047692 0.12857
-0.0098971 0.0023494 0.0043954 0.1293
-0.009897 0.0031618 0.0038527 0.12966
-0.009897 0.0038527 0.0031618 0.12967
-0.0098971 0.0043954 0.0023494 0.12931
-0.0098971 0.0047692 0.0014467 0.12859
-0.009897 0.0049597 0.0004885 0.12629
-0.0088557 0.00048823 0.0049571 0.088298
-0.0088557 0.0014459 0.0047666 0.090438
-0.0088557 0.0023481 0.004393 0.091258
-0.0088557 0.0031601 0.0038506 0.091711
-0.0088557 0.0038506 0.0031601 0.091714
-0.0088557 0.004393 0.0023481 0.091266
-0.0088557 0.0047666 0.0014459 0.090458
-0.0088557 0.0049571 0.00048823 0.088316
-0.0078144 0.00048805 0.0049553 0.064497
-0.0078144 0.0014454 0.0047649 0.066083
-0.0078144 0.0023473 0.0043914 0.066751
-0.0078144 0.0031589 0.0038492 0.067249
-0.0078144 0.0038492 0.0031589 0.067254
-0.0078144 0.0043914 0.0023473 0.066765
-0.0078144 0.0047649 0.0014454 0.066106
-0.0078144 0.0049553 0.00048805 0.064529
-0.0067729 0.00048796 0.0049545 0.051508
-0.0067729 0.0014452 0.0047641 0.052309
-0.0067729 0.0023468 0.0043906 0.052707
-0.0067729 0.0031584 0.0038485 0.053194
-0.0067729 0.0038485 0.0031584 0.053202
-0.0067729 0.0043906 0.0023468 0.052728
-0.0067729 0.0047641 0.0014452 0.052344
-0.0067729 0.0049545 0.00048797 0.051557
-0.0057312 0.00048792 0.004954 0.042479
-0.0057312 0.001445 0.0047636 0.042858
-0.0057312 0.0023466 0.0043902 0.043042
-0.0057312 0.0031581 0.0038481 0.043413
-0.0057312 0.0038481 0.0031581 0.043425
-0.0057312 0.0043902 0.0023466 0.043072
-0.0057312 0.0047636 0.001445 0.042907
-0.0057312 0.004954 0.00048792 0.042548
-0.0046894 0.00048789 0.0049537 0.03303
-0.0046894 0.0014449 0.0047633 0.033427
-0.0046894 0.0023465 0.0043899 0.033573
-0.0046894 0.0031578 0.0038478 0.03378
-0.0046894 0.0038478 0.0031578 0.033793
-0.0046894 0.0043899 0.0023465 0.033613
-0.0046894 0.0047633 0.0014449 0.03349
-0.0046894 0.0049537 0.00048789 0.03312
-0.0036476 0.00048785 0.0049532 0.023565
-0.0036476 0.0014448 0.0047629 0.0241
-0.0036476 0.0023462 0.0043895 0.02429
-0.0036476 0.0031575 0.0038474 0.024401
-0.0036476 0.0038474 0.0031575 0.024416
-0.0036476 0.0043895 0.0023462 0.024337
-0.0036476 0.0047629 0.0014448 0.024172
-0.0036476 0.0049532 0.00048785 0.023673
-0.002606 0.00048781 0.0049527 0.016377
-0.0026059 0.0014447 0.0047624 0.016925
-0.0026059 0.002346 0.0043891 0.017129
-0.0026059 0.0031572 0.0038471 0.017203
-0.0026059 0.0038471 0.0031572 0.017219
-0.0026059 0.0043891 0.002346 0.017181
-0.0026059 0.0047624 0.0014447 0.01701
-0.002606 0.0049527 0.00048781 0.016492
-0.0015643 0.00048778 0.0049524 0.012574
-0.0015643 0.0014446 0.0047621 0.012939
-0.0015643 0.0023459 0.0043888 0.013094
-0.0015643 0.003157 0.0038468 0.01315
-0.0015643 0.0038468 0.003157 0.013164
-0.0015643 0.0043888 0.0023459 0.013147
-0.0015643 0.0047621 0.0014446 0.013032
-0.0015643 0.0049524 0.00048778 0.012686
-0.00052256 0.00048776 0.0049523 0.010967
-0.00052255 0.0014445 0.004762 0.011117
-0.00052255 0.0023458 0.0043887 0.011185
-0.00052255 0.0031569 0.0038467 0.01123
-0.00052255 0.0038467 0.0031569 0.011242
-0.00052255 0.0043887 0.0023458 0.011232
-0.00052255 0.004762 0.0014445 0.0112
-0.00052256 0.0049523 0.00048776 0.011068
-0.01198 0.0049663 -0.00048911 0.22771
-0.01198 0.0047756 -0.0014486 0.22998
-0.01198 0.0044013 -0.0023525 0.23069
-0.01198 0.0038579 -0.0031661 0.23129
-0.01198 0.0031661 -0.0038579 0.23125
-0.01198 0.0023525 -0.0044013 0.23058
-0.01198 0.0014486 -0.0047756 0.2298
-0.01198 0.00048911 -0.0049663 0.22748
-0.010939 0.004963 -0.0004888 0.17508
-0.010939 0.0047723 -0.0014477 0.17722
-0.010939 0.0043983 -0.002351 0.17777
-0.010939 0.0038553 -0.0031639 0.1781
-0.010939 0.0031639 -0.0038553 0.17807
-0.010939 0.002351 -0.0043983 0.17768
-0.010939 0.0014477 -0.0047723 0.17708
-0.010939 0.0004888 -0.004963 0.1749
-0.009897 0.0049597 -0.0004885 0.12627
-0.0098971 0.0047692 -0.0014467 0.12855
-0.0098971 0.0043954 -0.0023494 0.12925
-0.009897 0.0038527 -0.0031618 0.12958
-0.009897 0.0031618 -0.0038527 0.12956
-0.0098971 0.0023494 -0.0043954 0.12919
-0.0098971 0.0014467 -0.0047692 0.12845
-0.009897 0.0004885 -0.0049597 0.12614
-0.0088557 0.0049571 -0.00048823 0.088311
-0.0088557 0.0047666 -0.0014459 0.090432
-0.0088557 0.004393 -0.0023481 0.091229
-0.0088557 0.0038506 -0.0031601 0.091665
-0.0088557 0.0031601 -0.0038506 0.091653
-0.0088557 0.0023481 -0.004393 0.091193
-0.0088557 0.0014459 -0.0047666 0.090372
-0.0088557 0.00048823 -0.0049571 0.088229
-0.0078144 0.0049553 -0.00048805 0.064528
-0.0078144 0.0047649 -0.0014454 0.066102
-0.0078144 0.0043914 -0.0023473 0.066758
-0.0078144 0.0038492 -0.0031589 0.067246
-0.0078144 0.0031589 -0.0038492 0.06724
-0.0078144 0.0023473 -0.0043914 0.066743
-0.0078144 0.0014454 -0.0047649 0.066077
-0.0078144 0.00048805 -0.0049553 0.064491
-0.0067729 0.0049545 -0.00048797 0.051561
-0.0067729 0.0047641 -0.0014452 0.052358
-0.0067729 0.0043906 -0.0023468 0.05275
-0.0067729 0.0038485 -0.0031584 0.053234
-0.0067729 0.0031584 -0.0038485 0.053233
-0.0067729 0.0023468 -0.0043906 0.052754
-0.0067729 0.0014452 -0.0047641 0.052362
-0.0067729 0.00048797 -0.0049545 0.051564
-0.0057312 0.004954 -0.00048792 0.042556
-0.0057312 0.0047636 -0.001445 0.04294
-0.0057312 0.0043902 -0.0023466 0.043121
-0.0057312 0.0038481 -0.0031581 0.043492
-0.0057312 0.0031581 -0.0038481 0.043494
-0.0057312 0.0023466 -0.0043902 0.043139
-0.0057312 0.001445 -0.0047636 0.042963
-0.0057312 0.00048792 -0.004954 0.042588
-0.0046894 0.0049537 -0.00048789 0.033132
-0.0046894 0.0047633 -0.0014449 0.033539
-0.0046894 0.0043899 -0.0023465 0.033683
-0.0046894 0.0038478 -0.0031578 0.033889
-0.0046894 0.0031578 -0.0038478 0.033895
-0.0046894 0.0023465 -0.0043899 0.033708
-0.0046894 0.0014449 -0.0047633 0.033574
-0.0046894 0.00048789 -0.0049537 0.033183
-0.0036476 0.0049532 -0.00048785 0.023687
-0.0036476 0.0047629 -0.0014448 0.024232
-0.0036476 0.0043895 -0.0023462 0.024421
-0.0036476 0.0038474 -0.0031575 0.024528
-0.0036476 0.0031575 -0.0038474 0.024536
-0.0036476 0.0023462 -0.0043895 0.024449
-0.0036476 0.0014448 -0.0047629 0.024273
-0.0036476 0.00048785 -0.0049532 0.023747
-0.002606 0.0049527 -0.00048781 0.016509
-0.0026059 0.0047624 -0.0014447 0.017062
-0.0026059 0.0043891 -0.002346 0.017268
-0.0026059 0.0038471 -0.0031572 0.017338
-0.0026059 0.0031572 -0.0038471 0.017347
-0.0026059 0.002346 -0.0043891 0.017297
-0.0026059 0.0014447 -0.0047624 0.017108
-0.002606 0.00048781 -0.0049527 0.016564
-0.0015643 0.0049524 -0.00048778 0.012702
-0.0015643 0.0047621 -0.0014446 0.013073
-0.0015643 0.0043888 -0.0023459 0.013229
-0.0015643 0.0038468 -0.003157 0.01328
-0.0015643 0.003157 -0.0038468 0.013287
-0.0015643 0.0023459 -0.0043888 0.013255
-0.0015643 0.0014446 -0.0047621 0.013117
-0.0015643 0.00048778 -0.0049524 0.012751
-0.00052256 0.0049523 -0.00048776 0.011082
-0.00052255 0.004762 -0.0014445 0.011237
-0.00052255 0.0043887 -0.0023458 0.011305
-0.00052255 0.0038467 -0.0031569 0.011345
-0.00052255 0.0031569 -0.0038467 0.011351
-0.00052255 0.0023458 -0.0043887 0.011327
-0.00052255 0.0014445 -0.004762 0.011272
-0.00052256 0.00048776 -0.0049523 0.011122
-0.01198 -0.00048911 -0.0049663 0.22745
-0.01198 -0.0014486 -0.0047756 0.22972
-0.01198 -0.0023525 -0.0044013 0.23046
-0.01198 -0.0031661 -0.0038579 0.23112
-0.01198 -0.0038579 -0.0031661 0.23112
-0.01198 -0.0044013 -0.0023525 0.23049
-0.01198 -0.0047756 -0.0014486 0.22973
-0.01198 -0.0049663 -0.00048911 0.22745
-0.010939 -0.0004888 -0.004963 0.17487
-0.010939 -0.0014477 -0.0047723 0.17701
-0.010939 -0.002351 -0.0043983 0.17758
-0.010939 -0.0031639 -0.0038553 0.17795
-0.010939 -0.0038553 -0.0031639 0.17796
-0.010939 -0.0043983 -0.002351 0.1776
-0.010939 -0.0047723 -0.0014477 0.17702
-0.010939 -0.004963 -0.0004888 0.17487
-0.009897 -0.0004885 -0.0049597 0.12612
-0.0098971 -0.0014467 -0.0047692 0.1284
-0.0098971 -0.0023494 -0.0043954 0.12911
-0.009897 -0.0031618 -0.0038527 0.12946
-0.009897 -0.0038527 -0.0031618 0.12946
-0.0098971 -0.0043954 -0.0023494 0.12911
-0.0098971 -0.0047692 -0.0014467 0.1284
-0.009897 -0.0049597 -0.0004885 0.12612
-0.0088557 -0.00048823 -0.0049571 0.088213
-0.0088557 -0.0014459 -0.0047666 0.090328
-0.0088557 -0.0023481 -0.004393 0.091127
-0.0088557 -0.0031601 -0.0038506 0.09157
-0.0088557 -0.0038506 -0.0031601 0.091567
-0.0088557 -0.004393 -0.0023481 0.09112
-0.0088557 -0.0047666 -0.0014459 0.090313
-0.0088557 -0.0049571 -0.00048823 0.088196
-0.0078144 -0.00048805 -0.0049553 0.064477
-0.0078144 -0.0014454 -0.0047649 0.06604
-0.0078144 -0.0023473 -0.0043914 0.066688
-0.0078144 -0.0031589 -0.0038492 0.067172
-0.0078144 -0.0038492 -0.0031589 0.067167
-0.0078144 -0.0043914 -0.0023473 0.066674
-0.0078144 -0.0047649 -0.0014454 0.066015
-0.0078144 -0.0049553 -0.00048805 0.064441
-0.0067729 -0.00048797 -0.0049545 0.051552
-0.0067729 -0.0014452 -0.0047641 0.052328
-0.0067729 -0.0023468 -0.0043906 0.052706
-0.0067729 -0.0031584 -0.0038485 0.053174
-0.0067729 -0.0038485 -0.0031584 0.053167
-0.0067729 -0.0043906 -0.0023468 0.052682
-0.0067729 -0.0047641 -0.0014452 0.052289
-0.0067729 -0.0049545 -0.00048797 0.051494
-0.0057312 -0.00048792 -0.004954 0.042579
-0.0057312 -0.001445 -0.0047636 0.042931
-0.0057312 -0.0023466 -0.0043902 0.043093
-0.0057312 -0.0031581 -0.0038481 0.043438
-0.0057312 -0.0038481 -0.0031581 0.043428
-0.0057312 -0.0043902 -0.0023466 0.043057
-0.0057312 -0.0047636 -0.001445 0.042875
-0.0057312 -0.004954 -0.00048792 0.042498
-0.0046894 -0.00048789 -0.0049537 0.033173
-0.0046894 -0.0014449 -0.0047633 0.03354
-0.0046894 -0.0023465 -0.0043899 0.033659
-0.0046894 -0.0031578 -0.0038478 0.033834
-0.0046894 -0.0038478 -0.0031578 0.033821
-0.0046894 -0.0043899 -0.0023465 0.033612
-0.0046894 -0.0047633 -0.0014449 0.033468
-0.0046894 -0.0049537 -0.00048789 0.033068
-0.0036476 -0.00048785 -0.0049532 0.023738
-0.0036476 -0.0014448 -0.0047629 0.024234
-0.0036476 -0.0023462 -0.0043895 0.024395
-0.0036476 -0.0031575 -0.0038474 0.02447
-0.0036476 -0.0038474 -0.0031575 0.024454
-0.0036476 -0.0043895 -0.0023462 0.024342
-0.0036476 -0.0047629 -0.0014448 0.024151
-0.0036476 -0.0049532 -0.00048785 0.023612
-0.002606 -0.00048781 -0.0049527 0.016554
-0.0026059 -0.0014447 -0.0047624 0.017075
-0.0026059 -0.002346 -0.0043891 0.017244
-0.0026059 -0.0031572 -0.0038471 0.017278
-0.0026059 -0.0038471 -0.0031572 0.017261
-0.0026059 -0.0043891 -0.002346 0.017184
-0.0026059 -0.0047624 -0.0014447 0.016976
-0.002606 -0.0049527 -0.00048781 0.016426
-0.0015643 -0.00048778 -0.0049524 0.01274
-0.0015643 -0.0014446 -0.0047621 0.01309
-0.0015643 -0.0023459 -0.0043888 0.013205
-0.0015643 -0.003157 -0.0038468 0.01322
-0.0015643 -0.0038468 -0.003157 0.013204
-0.0015643 -0.0043888 -0.0023459 0.013145
-0.0015643 -0.0047621 -0.0014446 0.012986
-0.0015643 -0.0049524 -0.00048778 0.012616