/*--------------------------------*- C++ -*----------------------------------*\
| =========                 |                                                 |
| \\      /  F ield         | OpenFOAM: The Open Source CFD Toolbox           |
|  \\    /   O peration     | Version:  4.1                                   |
|   \\  /    A nd           | Web:      www.OpenFOAM.org                      |
|    \\/     M anipulation  |                                                 |
\*---------------------------------------------------------------------------*/
FoamFile
{
    version     2.0;
    format      ascii;
    class       pointVectorField;
    location    "0.0033";
    object      pointDisplacement_Next;
}
// * * * * * * * * * * * * * * * * * * * * * * * * * * * * * * * * * * * * * //

dimensions      [0 1 0 0 0 0 0];

internalField   uniform (0 0 0);

boundaryField
{
    inlet
    {
        type            fixedValue;
        value           nonuniform 0();
    }
    outlet
    {
        type            fixedValue;
        value           nonuniform 0();
    }
    mantle
    {
        type            fixedValue;
        value           nonuniform List<vector> 
416
(
(-3.2889e-05 -1.0284e-05 1.7586e-10)
(-3.1336e-05 -8.2563e-06 3.5556e-10)
(-3.1339e-05 -8.084e-06 1.5807e-06)
(-3.2893e-05 -1.0072e-05 1.9734e-06)
(-3.134e-05 -7.6326e-06 3.1532e-06)
(-3.2897e-05 -9.5135e-06 3.9277e-06)
(-3.1324e-05 -6.9503e-06 4.6658e-06)
(-3.2876e-05 -8.6604e-06 5.8081e-06)
(-3.1315e-05 -5.9745e-06 5.974e-06)
(-3.2866e-05 -7.4401e-06 7.4399e-06)
(-3.1324e-05 -4.6661e-06 6.9502e-06)
(-3.2876e-05 -5.8085e-06 8.6602e-06)
(-3.134e-05 -3.1536e-06 7.6327e-06)
(-3.2897e-05 -3.9281e-06 9.5135e-06)
(-3.1339e-05 -1.5811e-06 8.0842e-06)
(-3.2893e-05 -1.9738e-06 1.0072e-05)
(-3.1336e-05 -6.7871e-10 8.2566e-06)
(-3.2889e-05 -5.529e-10 1.0284e-05)
(-2.955e-05 -6.6172e-06 1.8071e-10)
(-2.9556e-05 -6.4842e-06 1.2721e-06)
(-2.9555e-05 -6.1232e-06 2.5402e-06)
(-2.9544e-05 -5.5833e-06 3.7478e-06)
(-2.9532e-05 -4.7911e-06 4.791e-06)
(-2.9544e-05 -3.7481e-06 5.5833e-06)
(-2.9556e-05 -2.5405e-06 6.1235e-06)
(-2.9557e-05 -1.2724e-06 6.4846e-06)
(-2.955e-05 -4.4703e-10 6.6177e-06)
(-2.7684e-05 -5.2207e-06 1.5389e-10)
(-2.7689e-05 -5.1199e-06 1.0082e-06)
(-2.7693e-05 -4.8413e-06 2.0046e-06)
(-2.7681e-05 -4.4083e-06 2.9577e-06)
(-2.7673e-05 -3.7831e-06 3.783e-06)
(-2.7681e-05 -2.958e-06 4.4085e-06)
(-2.7693e-05 -2.0049e-06 4.8416e-06)
(-2.7689e-05 -1.0086e-06 5.1205e-06)
(-2.7684e-05 -3.9439e-10 5.2214e-06)
(-2.5824e-05 -4.0048e-06 1.451e-10)
(-2.5832e-05 -3.9273e-06 7.7001e-07)
(-2.5839e-05 -3.7158e-06 1.5355e-06)
(-2.5827e-05 -3.3847e-06 2.2715e-06)
(-2.5817e-05 -2.9077e-06 2.9076e-06)
(-2.5827e-05 -2.2717e-06 3.3849e-06)
(-2.5839e-05 -1.5358e-06 3.7162e-06)
(-2.5832e-05 -7.7028e-07 3.9279e-06)
(-2.5824e-05 -3.1011e-10 4.0055e-06)
(-2.401e-05 -3.0072e-06 1.1155e-10)
(-2.4009e-05 -2.9593e-06 5.8693e-07)
(-2.4008e-05 -2.8126e-06 1.1641e-06)
(-2.4004e-05 -2.559e-06 1.7115e-06)
(-2.4002e-05 -2.189e-06 2.189e-06)
(-2.4004e-05 -1.7117e-06 2.5592e-06)
(-2.4008e-05 -1.1643e-06 2.813e-06)
(-2.4009e-05 -5.8715e-07 2.9599e-06)
(-2.401e-05 -2.2874e-10 3.0079e-06)
(-2.2221e-05 -2.2747e-06 9.0739e-11)
(-2.2217e-05 -2.2499e-06 4.5162e-07)
(-2.221e-05 -2.1437e-06 8.8983e-07)
(-2.2212e-05 -1.9554e-06 1.3027e-06)
(-2.2211e-05 -1.6603e-06 1.6603e-06)
(-2.2212e-05 -1.3029e-06 1.9555e-06)
(-2.221e-05 -8.9001e-07 2.144e-06)
(-2.2217e-05 -4.5178e-07 2.2504e-06)
(-2.2221e-05 -1.6926e-10 2.2753e-06)
(-2.0437e-05 -1.8359e-06 -1.0446e-10)
(-2.0434e-05 -1.8057e-06 3.5869e-07)
(-2.0433e-05 -1.7155e-06 7.106e-07)
(-2.0429e-05 -1.5632e-06 1.0458e-06)
(-2.0429e-05 -1.3383e-06 1.3385e-06)
(-2.0429e-05 -1.0459e-06 1.5633e-06)
(-2.0433e-05 -7.1074e-07 1.7157e-06)
(-2.0434e-05 -3.5881e-07 1.8061e-06)
(-2.0437e-05 4.7425e-11 1.8364e-06)
(-1.8664e-05 -1.5353e-06 3.8568e-11)
(-1.8669e-05 -1.4968e-06 2.9012e-07)
(-1.8674e-05 -1.4109e-06 5.8177e-07)
(-1.8666e-05 -1.2901e-06 8.6791e-07)
(-1.866e-05 -1.1165e-06 1.1164e-06)
(-1.8666e-05 -8.6803e-07 1.2901e-06)
(-1.8674e-05 -5.819e-07 1.4111e-06)
(-1.8669e-05 -2.9023e-07 1.4971e-06)
(-1.8664e-05 -9.0034e-11 1.5357e-06)
(-1.694e-05 -1.2418e-06 1.8722e-11)
(-1.6942e-05 -1.2145e-06 2.3615e-07)
(-1.6945e-05 -1.1468e-06 4.7335e-07)
(-1.694e-05 -1.0472e-06 7.0386e-07)
(-1.6937e-05 -9.0292e-07 9.0281e-07)
(-1.694e-05 -7.04e-07 1.0472e-06)
(-1.6945e-05 -4.7348e-07 1.1469e-06)
(-1.6942e-05 -2.3626e-07 1.2147e-06)
(-1.694e-05 -7.1956e-11 1.2421e-06)
(-1.5301e-05 -9.542e-07 -4.6607e-12)
(-1.5305e-05 -9.3908e-07 1.856e-07)
(-1.5306e-05 -8.914e-07 3.6934e-07)
(-1.5303e-05 -8.1248e-07 5.4455e-07)
(-1.5298e-05 -6.9605e-07 6.9591e-07)
(-1.5303e-05 -5.4472e-07 8.1241e-07)
(-1.5306e-05 -3.695e-07 8.9143e-07)
(-1.5305e-05 -1.8573e-07 9.3924e-07)
(-1.5301e-05 -5.7066e-11 9.5451e-07)
(-1.378e-05 -7.2587e-07 -8.6934e-12)
(-1.3782e-05 -7.1489e-07 1.4191e-07)
(-1.3786e-05 -6.7997e-07 2.8166e-07)
(-1.378e-05 -6.2002e-07 4.1486e-07)
(-1.3778e-05 -5.3074e-07 5.3059e-07)
(-1.378e-05 -4.1505e-07 6.1994e-07)
(-1.3786e-05 -2.8186e-07 6.8e-07)
(-1.3782e-05 -1.4206e-07 7.1508e-07)
(-1.378e-05 -6.0987e-11 7.2622e-07)
(-1.2357e-05 -5.6566e-07 -1.4949e-11)
(-1.2361e-05 -5.5517e-07 1.0841e-07)
(-1.2367e-05 -5.2578e-07 2.1701e-07)
(-1.236e-05 -4.8069e-07 3.2275e-07)
(-1.2355e-05 -4.1371e-07 4.1356e-07)
(-1.236e-05 -3.2296e-07 4.8063e-07)
(-1.2367e-05 -2.1723e-07 5.2587e-07)
(-1.2361e-05 -1.0859e-07 5.5546e-07)
(-1.2357e-05 -5.7883e-11 5.6616e-07)
(-3.134e-05 1.5801e-06 8.0843e-06)
(-3.2893e-05 1.9727e-06 1.0072e-05)
(-3.134e-05 3.1527e-06 7.633e-06)
(-3.2897e-05 3.9271e-06 9.5137e-06)
(-3.1324e-05 4.6653e-06 6.9506e-06)
(-3.2877e-05 5.8076e-06 8.6605e-06)
(-3.1315e-05 5.9739e-06 5.9745e-06)
(-3.2866e-05 7.4394e-06 7.4402e-06)
(-3.1324e-05 6.9498e-06 4.6662e-06)
(-3.2877e-05 8.6597e-06 5.8084e-06)
(-3.134e-05 7.6322e-06 3.1535e-06)
(-3.2897e-05 9.513e-06 3.928e-06)
(-3.1339e-05 8.0837e-06 1.5809e-06)
(-3.2893e-05 1.0072e-05 1.9735e-06)
(-3.1336e-05 8.2561e-06 3.6523e-10)
(-3.2889e-05 1.0283e-05 1.6896e-10)
(-2.9557e-05 1.2716e-06 6.4848e-06)
(-2.9556e-05 2.5398e-06 6.1238e-06)
(-2.9544e-05 3.7474e-06 5.5837e-06)
(-2.9532e-05 4.7907e-06 4.7914e-06)
(-2.9544e-05 5.5829e-06 3.7482e-06)
(-2.9556e-05 6.123e-06 2.5405e-06)
(-2.9556e-05 6.484e-06 1.2723e-06)
(-2.955e-05 6.6171e-06 2.0279e-10)
(-2.7689e-05 1.0078e-06 5.1207e-06)
(-2.7693e-05 2.0043e-06 4.8419e-06)
(-2.7681e-05 2.9575e-06 4.4089e-06)
(-2.7673e-05 3.7827e-06 3.7834e-06)
(-2.7681e-05 4.4081e-06 2.9581e-06)
(-2.7693e-05 4.8412e-06 2.0049e-06)
(-2.7689e-05 5.1199e-06 1.0084e-06)
(-2.7684e-05 5.2208e-06 2.1091e-10)
(-2.5832e-05 7.6969e-07 3.928e-06)
(-2.5839e-05 1.5353e-06 3.7165e-06)
(-2.5827e-05 2.2713e-06 3.3852e-06)
(-2.5817e-05 2.9074e-06 2.908e-06)
(-2.5827e-05 3.3845e-06 2.2718e-06)
(-2.5839e-05 3.7158e-06 1.5357e-06)
(-2.5832e-05 3.9273e-06 7.7019e-07)
(-2.5824e-05 4.0049e-06 1.8123e-10)
(-2.4009e-05 5.867e-07 2.96e-06)
(-2.4008e-05 1.1639e-06 2.8132e-06)
(-2.4004e-05 1.7114e-06 2.5595e-06)
(-2.4002e-05 2.1888e-06 2.1893e-06)
(-2.4004e-05 2.5589e-06 1.7118e-06)
(-2.4008e-05 2.8126e-06 1.1643e-06)
(-2.4009e-05 2.9594e-06 5.8708e-07)
(-2.401e-05 3.0073e-06 1.674e-10)
(-2.2217e-05 4.5147e-07 2.2505e-06)
(-2.221e-05 8.8976e-07 2.1442e-06)
(-2.2212e-05 1.3027e-06 1.9558e-06)
(-2.2211e-05 1.6602e-06 1.6605e-06)
(-2.2212e-05 1.9553e-06 1.303e-06)
(-2.221e-05 2.1437e-06 8.9002e-07)
(-2.2217e-05 2.25e-06 4.5175e-07)
(-2.2221e-05 2.2748e-06 1.3583e-10)
(-2.0434e-05 3.5859e-07 1.8062e-06)
(-2.0433e-05 7.1058e-07 1.7159e-06)
(-2.0429e-05 1.0458e-06 1.5636e-06)
(-2.0429e-05 1.3385e-06 1.3385e-06)
(-2.0429e-05 1.5632e-06 1.046e-06)
(-2.0433e-05 1.7155e-06 7.1076e-07)
(-2.0434e-05 1.8057e-06 3.5879e-07)
(-2.0437e-05 1.836e-06 2.7579e-10)
(-1.8669e-05 2.9008e-07 1.4972e-06)
(-1.8674e-05 5.8182e-07 1.4113e-06)
(-1.8666e-05 8.6801e-07 1.2904e-06)
(-1.866e-05 1.1165e-06 1.1167e-06)
(-1.8666e-05 1.2902e-06 8.6813e-07)
(-1.8674e-05 1.411e-06 5.8193e-07)
(-1.8669e-05 1.4969e-06 2.9021e-07)
(-1.8664e-05 1.5355e-06 7.6799e-11)
(-1.6942e-05 2.3616e-07 1.2149e-06)
(-1.6945e-05 4.7345e-07 1.1471e-06)
(-1.694e-05 7.0405e-07 1.0475e-06)
(-1.6937e-05 9.0304e-07 9.0312e-07)
(-1.694e-05 1.0474e-06 7.0412e-07)
(-1.6945e-05 1.147e-06 4.7353e-07)
(-1.6942e-05 1.2148e-06 2.3626e-07)
(-1.694e-05 1.242e-06 5.1409e-11)
(-1.5305e-05 1.8565e-07 9.3942e-07)
(-1.5306e-05 3.6951e-07 8.9174e-07)
(-1.5303e-05 5.4484e-07 8.1279e-07)
(-1.5298e-05 6.9628e-07 6.963e-07)
(-1.5303e-05 8.128e-07 5.4489e-07)
(-1.5306e-05 8.9178e-07 3.6959e-07)
(-1.5305e-05 9.395e-07 1.8574e-07)
(-1.5301e-05 9.5465e-07 2.3156e-11)
(-1.3782e-05 1.42e-07 7.1531e-07)
(-1.3786e-05 2.819e-07 6.8041e-07)
(-1.378e-05 4.1525e-07 6.2044e-07)
(-1.3778e-05 5.311e-07 5.3109e-07)
(-1.378e-05 6.2052e-07 4.1531e-07)
(-1.3786e-05 6.8057e-07 2.82e-07)
(-1.3782e-05 7.1557e-07 1.421e-07)
(-1.378e-05 7.2658e-07 2.7536e-12)
(-1.2361e-05 1.0853e-07 5.5576e-07)
(-1.2367e-05 2.1732e-07 5.2642e-07)
(-1.236e-05 3.2326e-07 4.813e-07)
(-1.2355e-05 4.1424e-07 4.1423e-07)
(-1.236e-05 4.8143e-07 3.2335e-07)
(-1.2367e-05 5.2669e-07 2.1746e-07)
(-1.2361e-05 5.5619e-07 1.0866e-07)
(-1.2357e-05 5.6671e-07 2.2695e-12)
(-3.1339e-05 8.0838e-06 -1.5806e-06)
(-3.2893e-05 1.0072e-05 -1.9732e-06)
(-3.134e-05 7.6324e-06 -3.1532e-06)
(-3.2897e-05 9.5132e-06 -3.9277e-06)
(-3.1324e-05 6.95e-06 -4.666e-06)
(-3.2876e-05 8.66e-06 -5.8082e-06)
(-3.1314e-05 5.9741e-06 -5.9743e-06)
(-3.2865e-05 7.4396e-06 -7.4401e-06)
(-3.1324e-05 4.6655e-06 -6.9505e-06)
(-3.2876e-05 5.8078e-06 -8.6605e-06)
(-3.134e-05 3.1529e-06 -7.633e-06)
(-3.2897e-05 3.9273e-06 -9.5137e-06)
(-3.1339e-05 1.5802e-06 -8.0844e-06)
(-3.2892e-05 1.9728e-06 -1.0072e-05)
(-3.1336e-05 -3.5502e-10 -8.2566e-06)
(-3.2888e-05 -5.574e-10 -1.0284e-05)
(-2.9556e-05 6.4842e-06 -1.2719e-06)
(-2.9555e-05 6.1232e-06 -2.5402e-06)
(-2.9544e-05 5.5832e-06 -3.748e-06)
(-2.9532e-05 4.7909e-06 -4.7913e-06)
(-2.9544e-05 3.7476e-06 -5.5837e-06)
(-2.9555e-05 2.5399e-06 -6.1238e-06)
(-2.9556e-05 1.2716e-06 -6.4848e-06)
(-2.955e-05 -4.8062e-10 -6.6177e-06)
(-2.7689e-05 5.12e-06 -1.0081e-06)
(-2.7693e-05 4.8413e-06 -2.0046e-06)
(-2.7681e-05 4.4083e-06 -2.9579e-06)
(-2.7672e-05 3.7829e-06 -3.7833e-06)
(-2.768e-05 2.9577e-06 -4.4088e-06)
(-2.7693e-05 2.0044e-06 -4.8419e-06)
(-2.7689e-05 1.0079e-06 -5.1207e-06)
(-2.7684e-05 -4.0426e-10 -5.2214e-06)
(-2.5832e-05 3.9274e-06 -7.6985e-07)
(-2.5839e-05 3.7159e-06 -1.5355e-06)
(-2.5827e-05 3.3847e-06 -2.2716e-06)
(-2.5817e-05 2.9076e-06 -2.9079e-06)
(-2.5827e-05 2.2714e-06 -3.3852e-06)
(-2.5839e-05 1.5353e-06 -3.7164e-06)
(-2.5832e-05 7.6972e-07 -3.928e-06)
(-2.5824e-05 -3.4798e-10 -4.0054e-06)
(-2.4009e-05 2.9594e-06 -5.8678e-07)
(-2.4008e-05 2.8127e-06 -1.1641e-06)
(-2.4003e-05 2.5591e-06 -1.7116e-06)
(-2.4002e-05 2.189e-06 -2.1892e-06)
(-2.4003e-05 1.7115e-06 -2.5594e-06)
(-2.4008e-05 1.164e-06 -2.8131e-06)
(-2.4009e-05 5.8671e-07 -2.9599e-06)
(-2.401e-05 -2.8174e-10 -3.0078e-06)
(-2.2217e-05 2.25e-06 -4.5149e-07)
(-2.221e-05 2.1438e-06 -8.898e-07)
(-2.2212e-05 1.9554e-06 -1.3028e-06)
(-2.2211e-05 1.6603e-06 -1.6604e-06)
(-2.2212e-05 1.3027e-06 -1.9556e-06)
(-2.221e-05 8.8977e-07 -2.1441e-06)
(-2.2217e-05 4.5144e-07 -2.2503e-06)
(-2.2221e-05 -2.0935e-10 -2.2751e-06)
(-2.0434e-05 1.8058e-06 -3.5859e-07)
(-2.0433e-05 1.7155e-06 -7.1058e-07)
(-2.0429e-05 1.5633e-06 -1.0458e-06)
(-2.0429e-05 1.3386e-06 -1.3384e-06)
(-2.0428e-05 1.0458e-06 -1.5634e-06)
(-2.0432e-05 7.1055e-07 -1.7157e-06)
(-2.0434e-05 3.5854e-07 -1.8059e-06)
(-2.0436e-05 -3.3016e-10 -1.8361e-06)
(-1.8669e-05 1.4969e-06 -2.9006e-07)
(-1.8674e-05 1.411e-06 -5.8178e-07)
(-1.8665e-05 1.2902e-06 -8.6798e-07)
(-1.866e-05 1.1165e-06 -1.1165e-06)
(-1.8665e-05 8.6795e-07 -1.2902e-06)
(-1.8674e-05 5.8174e-07 -1.411e-06)
(-1.8668e-05 2.9e-07 -1.4968e-06)
(-1.8664e-05 -1.2898e-10 -1.5353e-06)
(-1.6942e-05 1.2147e-06 -2.3616e-07)
(-1.6945e-05 1.147e-06 -4.7342e-07)
(-1.694e-05 1.0473e-06 -7.0399e-07)
(-1.6937e-05 9.0294e-07 -9.0296e-07)
(-1.694e-05 7.0394e-07 -1.0472e-06)
(-1.6944e-05 4.7334e-07 -1.1469e-06)
(-1.6942e-05 2.3607e-07 -1.2145e-06)
(-1.694e-05 -1.0698e-10 -1.2417e-06)
(-1.5305e-05 9.3945e-07 -1.8568e-07)
(-1.5306e-05 8.9168e-07 -3.6951e-07)
(-1.5302e-05 8.1267e-07 -5.4477e-07)
(-1.5297e-05 6.9613e-07 -6.9613e-07)
(-1.5302e-05 5.4469e-07 -8.1257e-07)
(-1.5306e-05 3.6938e-07 -8.9144e-07)
(-1.5304e-05 1.8556e-07 -9.3906e-07)
(-1.53e-05 -8.725e-11 -9.5411e-07)
(-1.3782e-05 7.155e-07 -1.4207e-07)
(-1.3785e-05 6.8044e-07 -2.8194e-07)
(-1.378e-05 6.2036e-07 -4.152e-07)
(-1.3777e-05 5.3093e-07 -5.3092e-07)
(-1.378e-05 4.1508e-07 -6.2021e-07)
(-1.3785e-05 2.8176e-07 -6.8011e-07)
(-1.3782e-05 1.419e-07 -7.1497e-07)
(-1.378e-05 -7.3896e-11 -7.2585e-07)
(-1.2361e-05 5.561e-07 -1.0865e-07)
(-1.2367e-05 5.2653e-07 -2.1741e-07)
(-1.236e-05 4.8123e-07 -3.2324e-07)
(-1.2355e-05 4.1404e-07 -4.1405e-07)
(-1.2359e-05 3.2307e-07 -4.8104e-07)
(-1.2367e-05 2.1717e-07 -5.261e-07)
(-1.2361e-05 1.0844e-07 -5.5541e-07)
(-1.2357e-05 -7.5806e-11 -5.6579e-07)
(-3.1339e-05 -1.5812e-06 -8.0841e-06)
(-3.2892e-05 -1.9739e-06 -1.0072e-05)
(-3.1339e-05 -3.1537e-06 -7.6326e-06)
(-3.2897e-05 -3.9282e-06 -9.5133e-06)
(-3.1324e-05 -4.6663e-06 -6.95e-06)
(-3.2876e-05 -5.8086e-06 -8.66e-06)
(-3.1314e-05 -5.9747e-06 -5.9738e-06)
(-3.2865e-05 -7.4403e-06 -7.4397e-06)
(-3.1324e-05 -6.9504e-06 -4.6655e-06)
(-3.2876e-05 -8.6606e-06 -5.8079e-06)
(-3.134e-05 -7.6327e-06 -3.1529e-06)
(-3.2897e-05 -9.5136e-06 -3.9274e-06)
(-3.1339e-05 -8.084e-06 -1.5804e-06)
(-3.2893e-05 -1.0072e-05 -1.9731e-06)
(-2.9556e-05 -1.2725e-06 -6.4845e-06)
(-2.9555e-05 -2.5407e-06 -6.1233e-06)
(-2.9544e-05 -3.7482e-06 -5.5831e-06)
(-2.9532e-05 -4.7913e-06 -4.7907e-06)
(-2.9544e-05 -5.5834e-06 -3.7475e-06)
(-2.9555e-05 -6.1233e-06 -2.5399e-06)
(-2.9556e-05 -6.4842e-06 -1.2717e-06)
(-2.7689e-05 -1.0086e-06 -5.1204e-06)
(-2.7693e-05 -2.005e-06 -4.8414e-06)
(-2.768e-05 -2.9581e-06 -4.4082e-06)
(-2.7672e-05 -3.7831e-06 -3.7827e-06)
(-2.7681e-05 -4.4084e-06 -2.9574e-06)
(-2.7693e-05 -4.8413e-06 -2.0042e-06)
(-2.7689e-05 -5.1199e-06 -1.0079e-06)
(-2.5832e-05 -7.7036e-07 -3.9277e-06)
(-2.5839e-05 -1.5358e-06 -3.716e-06)
(-2.5827e-05 -2.2717e-06 -3.3846e-06)
(-2.5817e-05 -2.9077e-06 -2.9073e-06)
(-2.5827e-05 -3.3847e-06 -2.2711e-06)
(-2.5839e-05 -3.7158e-06 -1.5352e-06)
(-2.5832e-05 -3.9273e-06 -7.6972e-07)
(-2.4009e-05 -5.8721e-07 -2.9597e-06)
(-2.4008e-05 -1.1644e-06 -2.8127e-06)
(-2.4003e-05 -1.7117e-06 -2.5589e-06)
(-2.4002e-05 -2.189e-06 -2.1887e-06)
(-2.4003e-05 -2.559e-06 -1.7112e-06)
(-2.4008e-05 -2.8126e-06 -1.1638e-06)
(-2.4009e-05 -2.9593e-06 -5.8669e-07)
(-2.2217e-05 -4.5182e-07 -2.2502e-06)
(-2.221e-05 -8.9003e-07 -2.1437e-06)
(-2.2212e-05 -1.3029e-06 -1.9552e-06)
(-2.2211e-05 -1.6602e-06 -1.66e-06)
(-2.2212e-05 -1.9553e-06 -1.3025e-06)
(-2.221e-05 -2.1436e-06 -8.8961e-07)
(-2.2217e-05 -2.2499e-06 -4.5143e-07)
(-2.0434e-05 -3.5882e-07 -1.8057e-06)
(-2.0432e-05 -7.1071e-07 -1.7154e-06)
(-2.0428e-05 -1.0458e-06 -1.563e-06)
(-2.0429e-05 -1.3382e-06 -1.3383e-06)
(-2.0429e-05 -1.5631e-06 -1.0456e-06)
(-2.0433e-05 -1.7154e-06 -7.1042e-07)
(-2.0434e-05 -1.8056e-06 -3.5855e-07)
(-1.8668e-05 -2.9021e-07 -1.4967e-06)
(-1.8674e-05 -5.8183e-07 -1.4107e-06)
(-1.8665e-05 -8.6791e-07 -1.2898e-06)
(-1.866e-05 -1.1164e-06 -1.1162e-06)
(-1.8665e-05 -1.29e-06 -8.6771e-07)
(-1.8674e-05 -1.4108e-06 -5.8163e-07)
(-1.8669e-05 -1.4967e-06 -2.9002e-07)
(-1.6942e-05 -2.3623e-07 -1.2143e-06)
(-1.6944e-05 -4.7338e-07 -1.1465e-06)
(-1.694e-05 -7.0384e-07 -1.0468e-06)
(-1.6937e-05 -9.0273e-07 -9.0257e-07)
(-1.694e-05 -1.047e-06 -7.0369e-07)
(-1.6945e-05 -1.1467e-06 -4.7324e-07)
(-1.6942e-05 -1.2144e-06 -2.361e-07)
(-1.5304e-05 -1.8569e-07 -9.3885e-07)
(-1.5306e-05 -3.6938e-07 -8.9106e-07)
(-1.5302e-05 -5.4453e-07 -8.121e-07)
(-1.5297e-05 -6.9583e-07 -6.9568e-07)
(-1.5302e-05 -8.1227e-07 -5.444e-07)
(-1.5306e-05 -8.9124e-07 -3.6927e-07)
(-1.5305e-05 -9.3899e-07 -1.8558e-07)
(-1.3782e-05 -1.4201e-07 -7.1471e-07)
(-1.3785e-05 -2.8173e-07 -6.7965e-07)
(-1.378e-05 -4.1486e-07 -6.1965e-07)
(-1.3777e-05 -5.3052e-07 -5.3037e-07)
(-1.378e-05 -6.1981e-07 -4.1474e-07)
(-1.3785e-05 -6.7981e-07 -2.8163e-07)
(-1.3782e-05 -7.1481e-07 -1.4192e-07)
(-1.2361e-05 -1.0853e-07 -5.5509e-07)
(-1.2367e-05 -2.171e-07 -5.2554e-07)
(-1.2359e-05 -3.2277e-07 -4.8035e-07)
(-1.2355e-05 -4.1349e-07 -4.1335e-07)
(-1.236e-05 -4.8047e-07 -3.2264e-07)
(-1.2367e-05 -5.2562e-07 -2.1698e-07)
(-1.2361e-05 -5.5508e-07 -1.0843e-07)
)
;
    }
    procBoundary2to1
    {
        type            processor;
    }
    procBoundary2to3
    {
        type            processor;
    }
}


// ************************************************************************* //
