/*--------------------------------*- C++ -*----------------------------------*\
| =========                 |                                                 |
| \\      /  F ield         | OpenFOAM: The Open Source CFD Toolbox           |
|  \\    /   O peration     | Version:  4.1                                   |
|   \\  /    A nd           | Web:      www.OpenFOAM.org                      |
|    \\/     M anipulation  |                                                 |
\*---------------------------------------------------------------------------*/
FoamFile
{
    version     2.0;
    format      ascii;
    class       volVectorField;
    location    "0.0034";
    object      cellDisplacement;
}
// * * * * * * * * * * * * * * * * * * * * * * * * * * * * * * * * * * * * * //

dimensions      [0 1 0 0 0 0 0];

internalField   nonuniform List<vector> 
1536
(
(-1.8519e-05 -6.1496e-05 2.1169e-08)
(-1.5139e-05 -6.4936e-05 2.2098e-08)
(-1.1567e-05 -6.6563e-05 2.2599e-08)
(-7.7388e-06 -6.6491e-05 2.2714e-08)
(-3.713e-06 -6.5096e-05 2.236e-08)
(2.3677e-07 -6.269e-05 2.1567e-08)
(3.6635e-06 -5.9264e-05 2.0328e-08)
(6.0983e-06 -5.4409e-05 1.8437e-08)
(7.1757e-06 -4.7369e-05 1.5564e-08)
(6.7029e-06 -3.7324e-05 1.1761e-08)
(4.7451e-06 -2.4003e-05 7.4355e-09)
(1.7083e-06 -8.2422e-06 2.5977e-09)
(-1.8487e-05 -5.3951e-05 9.0164e-06)
(-1.5099e-05 -5.6951e-05 9.5163e-06)
(-1.1522e-05 -5.8394e-05 9.7566e-06)
(-7.7124e-06 -5.8366e-05 9.7519e-06)
(-3.744e-06 -5.7168e-05 9.552e-06)
(1.1789e-07 -5.5046e-05 9.1978e-06)
(3.4523e-06 -5.1984e-05 8.686e-06)
(5.8158e-06 -4.7629e-05 7.9577e-06)
(6.8603e-06 -4.1349e-05 6.908e-06)
(6.4082e-06 -3.2482e-05 5.4271e-06)
(4.5337e-06 -2.0841e-05 3.4834e-06)
(1.6325e-06 -7.1508e-06 1.1969e-06)
(-1.8463e-05 -4.566e-05 1.8251e-05)
(-1.5071e-05 -4.819e-05 1.9262e-05)
(-1.1492e-05 -4.942e-05 1.9752e-05)
(-7.6968e-06 -4.9416e-05 1.9751e-05)
(-3.7679e-06 -4.8415e-05 1.935e-05)
(3.4444e-08 -4.6611e-05 1.8629e-05)
(3.3062e-06 -4.3986e-05 1.7579e-05)
(5.621e-06 -4.0245e-05 1.6082e-05)
(6.6438e-06 -3.4871e-05 1.3935e-05)
(6.2072e-06 -2.7338e-05 1.0925e-05)
(4.3904e-06 -1.7513e-05 7.0006e-06)
(1.5813e-06 -6.0056e-06 2.4024e-06)
(-1.8451e-05 -3.6815e-05 2.7606e-05)
(-1.5057e-05 -3.8852e-05 2.9132e-05)
(-1.1477e-05 -3.9847e-05 2.9878e-05)
(-7.6896e-06 -3.9851e-05 2.9881e-05)
(-3.7809e-06 -3.9048e-05 2.9279e-05)
(-8.4122e-09 -3.759e-05 2.8186e-05)
(3.2317e-06 -3.5459e-05 2.6587e-05)
(5.5219e-06 -3.2419e-05 2.4307e-05)
(6.534e-06 -2.8064e-05 2.1041e-05)
(6.1057e-06 -2.1981e-05 1.6481e-05)
(4.3184e-06 -1.4071e-05 1.0551e-05)
(1.5556e-06 -4.8244e-06 3.6185e-06)
(-1.8451e-05 -2.7604e-05 3.6817e-05)
(-1.5057e-05 -2.913e-05 3.8853e-05)
(-1.1477e-05 -2.9876e-05 3.9849e-05)
(-7.6896e-06 -2.9879e-05 3.9853e-05)
(-3.7809e-06 -2.9277e-05 3.905e-05)
(-8.4482e-09 -2.8184e-05 3.7592e-05)
(3.2316e-06 -2.6585e-05 3.546e-05)
(5.5219e-06 -2.4306e-05 3.242e-05)
(6.534e-06 -2.104e-05 2.8065e-05)
(6.1057e-06 -1.648e-05 2.1981e-05)
(4.3183e-06 -1.0551e-05 1.4072e-05)
(1.5556e-06 -3.6183e-06 4.8245e-06)
(-1.8463e-05 -1.8249e-05 4.5661e-05)
(-1.5071e-05 -1.9259e-05 4.8191e-05)
(-1.1492e-05 -1.975e-05 4.9421e-05)
(-7.6969e-06 -1.9748e-05 4.9417e-05)
(-3.7681e-06 -1.9348e-05 4.8416e-05)
(3.4338e-08 -1.8627e-05 4.6612e-05)
(3.3061e-06 -1.7577e-05 4.3987e-05)
(5.6209e-06 -1.6081e-05 4.0245e-05)
(6.6438e-06 -1.3933e-05 3.4872e-05)
(6.2071e-06 -1.0924e-05 2.7338e-05)
(4.3904e-06 -6.9999e-06 1.7514e-05)
(1.5813e-06 -2.4022e-06 6.0056e-06)
(-1.8487e-05 -9.014e-06 5.3951e-05)
(-1.5099e-05 -9.5139e-06 5.6951e-05)
(-1.1522e-05 -9.7542e-06 5.8394e-05)
(-7.7126e-06 -9.7496e-06 5.8366e-05)
(-3.7442e-06 -9.5498e-06 5.7168e-05)
(1.1772e-07 -9.1957e-06 5.5046e-05)
(3.4522e-06 -8.6841e-06 5.1985e-05)
(5.8156e-06 -7.956e-06 4.7629e-05)
(6.8602e-06 -6.9066e-06 4.1349e-05)
(6.4081e-06 -5.4261e-06 3.2482e-05)
(4.5337e-06 -3.4827e-06 2.0841e-05)
(1.6324e-06 -1.1967e-06 7.1508e-06)
(-1.8519e-05 -1.9185e-08 6.1496e-05)
(-1.5139e-05 -2.0158e-08 6.4936e-05)
(-1.1567e-05 -2.0729e-08 6.6563e-05)
(-7.7391e-06 -2.0927e-08 6.6491e-05)
(-3.7133e-06 -2.0661e-08 6.5095e-05)
(2.3654e-07 -1.9983e-08 6.2689e-05)
(3.6633e-06 -1.8891e-08 5.9264e-05)
(6.0981e-06 -1.7176e-08 5.4408e-05)
(7.1755e-06 -1.4516e-08 4.7369e-05)
(6.7028e-06 -1.0969e-08 3.7324e-05)
(4.745e-06 -6.9412e-09 2.4002e-05)
(1.7082e-06 -2.4296e-09 8.2422e-06)
(-1.8487e-05 -5.3949e-05 -8.9801e-06)
(-1.5099e-05 -5.6949e-05 -9.4783e-06)
(-1.1522e-05 -5.8392e-05 -9.7177e-06)
(-7.7123e-06 -5.8364e-05 -9.7128e-06)
(-3.7439e-06 -5.7166e-05 -9.5136e-06)
(1.1806e-07 -5.5044e-05 -9.1607e-06)
(3.4526e-06 -5.1982e-05 -8.6511e-06)
(5.8161e-06 -4.7628e-05 -7.9262e-06)
(6.8606e-06 -4.1348e-05 -6.8815e-06)
(6.4085e-06 -3.2481e-05 -5.4071e-06)
(4.534e-06 -2.084e-05 -3.4708e-06)
(1.6325e-06 -7.1506e-06 -1.1926e-06)
(-1.845e-05 -4.6077e-05 4.097e-08)
(-1.5056e-05 -4.8623e-05 4.3013e-08)
(-1.1476e-05 -4.9868e-05 4.4103e-08)
(-7.689e-06 -4.9875e-05 4.4284e-08)
(-3.7817e-06 -4.8873e-05 4.3537e-08)
(-1.1373e-08 -4.7051e-05 4.193e-08)
(3.227e-06 -4.4386e-05 3.9428e-08)
(5.5159e-06 -4.0583e-05 3.573e-08)
(6.5266e-06 -3.513e-05 3.0358e-08)
(6.0975e-06 -2.7513e-05 2.3225e-08)
(4.3114e-06 -1.7612e-05 1.4708e-08)
(1.5523e-06 -6.0363e-06 5.0743e-09)
(-1.8424e-05 -3.7596e-05 9.4255e-06)
(-1.5026e-05 -3.9666e-05 9.944e-06)
(-1.1446e-05 -4.0689e-05 1.02e-05)
(-7.6759e-06 -4.071e-05 1.0205e-05)
(-3.8099e-06 -3.9903e-05 1.0003e-05)
(-1.0047e-07 -3.8409e-05 9.6283e-06)
(3.074e-06 -3.6205e-05 9.0755e-06)
(5.3134e-06 -3.3056e-05 8.2856e-06)
(6.3024e-06 -2.856e-05 7.1582e-06)
(5.8899e-06 -2.2322e-05 5.5949e-06)
(4.1638e-06 -1.4266e-05 3.5764e-06)
(1.4996e-06 -4.8864e-06 1.2256e-06)
(-1.841e-05 -2.8523e-05 1.9028e-05)
(-1.5011e-05 -3.0091e-05 2.0074e-05)
(-1.1432e-05 -3.0869e-05 2.0593e-05)
(-7.6701e-06 -3.0891e-05 2.0608e-05)
(-3.825e-06 -3.0282e-05 2.0201e-05)
(-1.4604e-07 -2.9146e-05 1.9443e-05)
(2.9964e-06 -2.7463e-05 1.832e-05)
(5.211e-06 -2.5056e-05 1.6714e-05)
(6.1894e-06 -2.1627e-05 1.4427e-05)
(5.7857e-06 -1.6887e-05 1.1265e-05)
(4.09e-06 -1.0785e-05 7.1945e-06)
(1.4733e-06 -3.693e-06 2.4641e-06)
(-1.8411e-05 -1.9025e-05 2.8525e-05)
(-1.5012e-05 -2.007e-05 3.0093e-05)
(-1.1432e-05 -2.059e-05 3.0872e-05)
(-7.6701e-06 -2.0604e-05 3.0894e-05)
(-3.8251e-06 -2.0198e-05 3.0284e-05)
(-1.4608e-07 -1.944e-05 2.9148e-05)
(2.9963e-06 -1.8317e-05 2.7465e-05)
(5.211e-06 -1.6712e-05 2.5058e-05)
(6.1894e-06 -1.4425e-05 2.1628e-05)
(5.7857e-06 -1.1263e-05 1.6888e-05)
(4.09e-06 -7.1935e-06 1.0785e-05)
(1.4733e-06 -2.4637e-06 3.6932e-06)
(-1.8424e-05 -9.4217e-06 3.7597e-05)
(-1.5026e-05 -9.9401e-06 3.9667e-05)
(-1.1446e-05 -1.0196e-05 4.069e-05)
(-7.676e-06 -1.0202e-05 4.0712e-05)
(-3.8101e-06 -9.9992e-06 3.9904e-05)
(-1.0058e-07 -9.6247e-06 3.841e-05)
(3.0739e-06 -9.0721e-06 3.6206e-05)
(5.3133e-06 -8.2826e-06 3.3057e-05)
(6.3024e-06 -7.1558e-06 2.856e-05)
(5.8899e-06 -5.5931e-06 2.2322e-05)
(4.1638e-06 -3.5752e-06 1.4266e-05)
(1.4996e-06 -1.2252e-06 4.8865e-06)
(-1.845e-05 -3.7072e-08 4.6077e-05)
(-1.5056e-05 -3.9046e-08 4.8623e-05)
(-1.1476e-05 -4.0132e-08 4.9868e-05)
(-7.6892e-06 -4.0359e-08 4.9875e-05)
(-3.7819e-06 -3.9713e-08 4.8873e-05)
(-1.1557e-08 -3.8284e-08 4.7051e-05)
(3.2268e-06 -3.6054e-08 4.4385e-05)
(5.5157e-06 -3.2731e-08 4.0582e-05)
(6.5265e-06 -2.7855e-08 3.513e-05)
(6.0974e-06 -2.1333e-08 2.7512e-05)
(4.3113e-06 -1.3528e-08 1.7611e-05)
(1.5523e-06 -4.6722e-09 6.0362e-06)
(-1.8487e-05 8.9832e-06 5.3948e-05)
(-1.5099e-05 9.4814e-06 5.6948e-05)
(-1.1522e-05 9.7208e-06 5.8391e-05)
(-7.7126e-06 9.7159e-06 5.8363e-05)
(-3.7442e-06 9.5165e-06 5.7165e-05)
(1.1782e-07 9.1635e-06 5.5043e-05)
(3.4524e-06 8.6537e-06 5.1982e-05)
(5.8159e-06 7.9285e-06 4.7627e-05)
(6.8605e-06 6.8834e-06 4.1347e-05)
(6.4084e-06 5.4085e-06 3.2481e-05)
(4.5339e-06 3.4717e-06 2.084e-05)
(1.6325e-06 1.1929e-06 7.1505e-06)
(-1.8463e-05 -4.5667e-05 -1.8257e-05)
(-1.5071e-05 -4.8198e-05 -1.9267e-05)
(-1.1492e-05 -4.9428e-05 -1.9758e-05)
(-7.6967e-06 -4.9424e-05 -1.9757e-05)
(-3.7677e-06 -4.8422e-05 -1.9356e-05)
(3.4942e-08 -4.6618e-05 -1.8635e-05)
(3.3069e-06 -4.3992e-05 -1.7584e-05)
(5.622e-06 -4.0251e-05 -1.6088e-05)
(6.6449e-06 -3.4877e-05 -1.3939e-05)
(6.2081e-06 -2.7343e-05 -1.0929e-05)
(4.3911e-06 -1.7516e-05 -7.0033e-06)
(1.5815e-06 -6.0066e-06 -2.4034e-06)
(-1.8424e-05 -3.7591e-05 -9.3886e-06)
(-1.5026e-05 -3.9661e-05 -9.9053e-06)
(-1.1446e-05 -4.0684e-05 -1.0161e-05)
(-7.6759e-06 -4.0705e-05 -1.0166e-05)
(-3.8098e-06 -3.9897e-05 -9.9637e-06)
(-1.0015e-07 -3.8404e-05 -9.5905e-06)
(3.0745e-06 -3.62e-05 -9.0401e-06)
(5.314e-06 -3.3052e-05 -8.2538e-06)
(6.3031e-06 -2.8556e-05 -7.1315e-06)
(5.8906e-06 -2.2319e-05 -5.5746e-06)
(4.1643e-06 -1.4265e-05 -3.5637e-06)
(1.4998e-06 -4.8859e-06 -1.2212e-06)
(-1.8396e-05 -2.8901e-05 3.1679e-08)
(-1.4996e-05 -3.0488e-05 3.3326e-08)
(-1.1417e-05 -3.128e-05 3.4201e-08)
(-7.6645e-06 -3.1308e-05 3.4314e-08)
(-3.8412e-06 -3.0694e-05 3.371e-08)
(-1.9367e-07 -2.954e-05 3.2424e-08)
(2.9159e-06 -2.7823e-05 3.0402e-08)
(5.1052e-06 -2.5367e-05 2.7459e-08)
(6.0725e-06 -2.1873e-05 2.3351e-08)
(5.6776e-06 -1.706e-05 1.7942e-08)
(4.0132e-06 -1.0886e-05 1.1334e-08)
(1.4459e-06 -3.7258e-06 3.8698e-09)
(-1.8382e-05 -1.9608e-05 9.8476e-06)
(-1.4981e-05 -2.0682e-05 1.0387e-05)
(-1.1402e-05 -2.1222e-05 1.0658e-05)
(-7.6596e-06 -2.1245e-05 1.0669e-05)
(-3.8579e-06 -2.0831e-05 1.0462e-05)
(-2.416e-07 -2.0045e-05 1.0067e-05)
(2.8353e-06 -1.8873e-05 9.478e-06)
(4.9994e-06 -1.7194e-05 8.6346e-06)
(5.9561e-06 -1.4811e-05 7.4377e-06)
(5.5705e-06 -1.154e-05 5.7947e-06)
(3.9374e-06 -7.3574e-06 3.6945e-06)
(1.419e-06 -2.5174e-06 1.2642e-06)
(-1.8382e-05 -9.8429e-06 1.9612e-05)
(-1.4981e-05 -1.0382e-05 2.0686e-05)
(-1.1403e-05 -1.0653e-05 2.1226e-05)
(-7.6596e-06 -1.0664e-05 2.1248e-05)
(-3.8579e-06 -1.0457e-05 2.0835e-05)
(-2.4164e-07 -1.0062e-05 2.0049e-05)
(2.8353e-06 -9.4738e-06 1.8876e-05)
(4.9994e-06 -8.6308e-06 1.7197e-05)
(5.956e-06 -7.4345e-06 1.4813e-05)
(5.5704e-06 -5.7924e-06 1.1542e-05)
(3.9374e-06 -3.6931e-06 7.3585e-06)
(1.419e-06 -1.2637e-06 2.5177e-06)
(-1.8396e-05 -2.5828e-08 2.8904e-05)
(-1.4996e-05 -2.7294e-08 3.049e-05)
(-1.1417e-05 -2.809e-08 3.1282e-05)
(-7.6646e-06 -2.8216e-08 3.131e-05)
(-3.8413e-06 -2.773e-08 3.0696e-05)
(-1.9379e-07 -2.6692e-08 2.9542e-05)
(2.9158e-06 -2.5069e-08 2.7825e-05)
(5.1051e-06 -2.2704e-08 2.5368e-05)
(6.0724e-06 -1.9372e-08 2.1874e-05)
(5.6775e-06 -1.4933e-08 1.7061e-05)
(4.0131e-06 -9.4575e-09 1.0886e-05)
(1.4459e-06 -3.2326e-09 3.726e-06)
(-1.8424e-05 9.395e-06 3.759e-05)
(-1.5027e-05 9.9119e-06 3.966e-05)
(-1.1446e-05 1.0167e-05 4.0683e-05)
(-7.6761e-06 1.0172e-05 4.0704e-05)
(-3.81e-06 9.9703e-06 3.9897e-05)
(-1.0034e-07 9.5968e-06 3.8403e-05)
(3.0743e-06 9.046e-06 3.62e-05)
(5.3139e-06 8.2591e-06 3.3051e-05)
(6.303e-06 7.1359e-06 2.8556e-05)
(5.8904e-06 5.578e-06 2.2319e-05)
(4.1642e-06 3.5658e-06 1.4264e-05)
(1.4998e-06 1.222e-06 4.8858e-06)
(-1.8463e-05 1.8261e-05 4.5665e-05)
(-1.5071e-05 1.9272e-05 4.8196e-05)
(-1.1492e-05 1.9763e-05 4.9426e-05)
(-7.697e-06 1.9761e-05 4.9422e-05)
(-3.768e-06 1.9361e-05 4.842e-05)
(3.4673e-08 1.8639e-05 4.6616e-05)
(3.3067e-06 1.7588e-05 4.399e-05)
(5.6217e-06 1.6091e-05 4.0249e-05)
(6.6446e-06 1.3942e-05 3.4875e-05)
(6.2079e-06 1.0932e-05 2.7341e-05)
(4.391e-06 7.0048e-06 1.7516e-05)
(1.5815e-06 2.4039e-06 6.0063e-06)
(-1.8451e-05 -3.6813e-05 -2.7605e-05)
(-1.5057e-05 -3.885e-05 -2.9131e-05)
(-1.1477e-05 -3.9845e-05 -2.9877e-05)
(-7.6894e-06 -3.9849e-05 -2.988e-05)
(-3.7806e-06 -3.9046e-05 -2.9278e-05)
(-8.0277e-09 -3.7588e-05 -2.8185e-05)
(3.2322e-06 -3.5457e-05 -2.6586e-05)
(5.5225e-06 -3.2418e-05 -2.4306e-05)
(6.5346e-06 -2.8063e-05 -2.1041e-05)
(6.1062e-06 -2.198e-05 -1.6481e-05)
(4.3187e-06 -1.4071e-05 -1.0552e-05)
(1.5557e-06 -4.8242e-06 -3.6185e-06)
(-1.841e-05 -2.8504e-05 -1.9023e-05)
(-1.5011e-05 -3.0071e-05 -2.0068e-05)
(-1.1432e-05 -3.0849e-05 -2.0587e-05)
(-7.67e-06 -3.0871e-05 -2.0602e-05)
(-3.8249e-06 -3.0262e-05 -2.0195e-05)
(-1.4586e-07 -2.9126e-05 -1.9437e-05)
(2.9966e-06 -2.7444e-05 -1.8315e-05)
(5.2112e-06 -2.5039e-05 -1.671e-05)
(6.1896e-06 -2.1613e-05 -1.4423e-05)
(5.7859e-06 -1.6876e-05 -1.1262e-05)
(4.0901e-06 -1.0778e-05 -7.1931e-06)
(1.4734e-06 -3.6907e-06 -2.4636e-06)
(-1.8382e-05 -1.9599e-05 -9.8213e-06)
(-1.498e-05 -2.0673e-05 -1.0359e-05)
(-1.1402e-05 -2.1212e-05 -1.0629e-05)
(-7.6595e-06 -2.1235e-05 -1.0641e-05)
(-3.8578e-06 -2.0821e-05 -1.0434e-05)
(-2.4152e-07 -2.0036e-05 -1.004e-05)
(2.8354e-06 -1.8864e-05 -9.4528e-06)
(4.9995e-06 -1.7186e-05 -8.612e-06)
(5.9562e-06 -1.4804e-05 -7.4186e-06)
(5.5705e-06 -1.1535e-05 -5.7803e-06)
(3.9375e-06 -7.3541e-06 -3.6855e-06)
(1.4191e-06 -2.5163e-06 -1.2612e-06)
(-1.8366e-05 -1.0031e-05 9.5606e-09)
(-1.4965e-05 -1.058e-05 1.0012e-08)
(-1.1388e-05 -1.0857e-05 1.027e-08)
(-7.6551e-06 -1.0871e-05 1.0328e-08)
(-3.8756e-06 -1.066e-05 1.0173e-08)
(-2.9096e-07 -1.0257e-05 9.7896e-09)
(2.7529e-06 -9.6533e-06 9.1413e-09)
(4.8914e-06 -8.788e-06 8.1778e-09)
(5.8373e-06 -7.5625e-06 6.8586e-09)
(5.4614e-06 -5.8859e-06 5.1878e-09)
(3.8604e-06 -3.7494e-06 3.2328e-09)
(1.3917e-06 -1.2824e-06 1.0954e-09)
(-1.8367e-05 -3.436e-09 1.0037e-05)
(-1.4965e-05 -3.6886e-09 1.0586e-05)
(-1.1388e-05 -3.8475e-09 1.0863e-05)
(-7.6551e-06 -3.9018e-09 1.0877e-05)
(-3.8756e-06 -3.8594e-09 1.0666e-05)
(-2.9101e-07 -3.729e-09 1.0263e-05)
(2.7529e-06 -3.5022e-09 9.6585e-06)
(4.8914e-06 -3.1546e-09 8.7926e-06)
(5.8373e-06 -2.6629e-09 7.5663e-06)
(5.4613e-06 -2.0247e-09 5.8888e-06)
(3.8604e-06 -1.2661e-09 3.7512e-06)
(1.3917e-06 -4.2908e-10 1.283e-06)
(-1.8382e-05 9.8299e-06 1.9603e-05)
(-1.4981e-05 1.0368e-05 2.0677e-05)
(-1.1403e-05 1.0639e-05 2.1216e-05)
(-7.6597e-06 1.065e-05 2.1239e-05)
(-3.858e-06 1.0442e-05 2.0826e-05)
(-2.4165e-07 1.0049e-05 2.004e-05)
(2.8353e-06 9.4608e-06 1.8868e-05)
(4.9994e-06 8.6191e-06 1.7189e-05)
(5.9561e-06 7.4246e-06 1.4807e-05)
(5.5705e-06 5.7849e-06 1.1537e-05)
(3.9374e-06 3.6883e-06 7.3555e-06)
(1.419e-06 1.2621e-06 2.5167e-06)
(-1.8411e-05 1.9034e-05 2.8501e-05)
(-1.5012e-05 2.008e-05 3.0068e-05)
(-1.1432e-05 2.0599e-05 3.0846e-05)
(-7.6702e-06 2.0614e-05 3.0868e-05)
(-3.8251e-06 2.0207e-05 3.0259e-05)
(-1.4607e-07 1.9449e-05 2.9123e-05)
(2.9964e-06 1.8325e-05 2.7442e-05)
(5.211e-06 1.6719e-05 2.5037e-05)
(6.1895e-06 1.4431e-05 2.1611e-05)
(5.7858e-06 1.1268e-05 1.6874e-05)
(4.09e-06 7.1971e-06 1.0777e-05)
(1.4734e-06 2.4649e-06 3.6902e-06)
(-1.8451e-05 2.7612e-05 3.6809e-05)
(-1.5057e-05 2.9138e-05 3.8846e-05)
(-1.1477e-05 2.9884e-05 3.9841e-05)
(-7.6897e-06 2.9887e-05 3.9845e-05)
(-3.7809e-06 2.9285e-05 3.9042e-05)
(-8.3302e-09 2.8191e-05 3.7584e-05)
(3.2319e-06 2.6592e-05 3.5453e-05)
(5.5222e-06 2.4312e-05 3.2414e-05)
(6.5344e-06 2.1046e-05 2.806e-05)
(6.106e-06 1.6484e-05 2.1977e-05)
(4.3186e-06 1.0554e-05 1.4069e-05)
(1.5557e-06 3.6193e-06 4.8236e-06)
(-1.8451e-05 -2.7607e-05 -3.6812e-05)
(-1.5057e-05 -2.9134e-05 -3.8848e-05)
(-1.1477e-05 -2.988e-05 -3.9843e-05)
(-7.6894e-06 -2.9883e-05 -3.9847e-05)
(-3.7806e-06 -2.9281e-05 -3.9044e-05)
(-8.0018e-09 -2.8187e-05 -3.7586e-05)
(3.2322e-06 -2.6588e-05 -3.5455e-05)
(5.5225e-06 -2.4309e-05 -3.2416e-05)
(6.5347e-06 -2.1043e-05 -2.8061e-05)
(6.1062e-06 -1.6482e-05 -2.1979e-05)
(4.3187e-06 -1.0552e-05 -1.407e-05)
(1.5557e-06 -3.6188e-06 -4.824e-06)
(-1.841e-05 -1.9026e-05 -2.8501e-05)
(-1.5011e-05 -2.0072e-05 -3.0068e-05)
(-1.1432e-05 -2.0591e-05 -3.0846e-05)
(-7.6699e-06 -2.0605e-05 -3.0868e-05)
(-3.8248e-06 -2.0199e-05 -3.0259e-05)
(-1.4583e-07 -1.9441e-05 -2.9123e-05)
(2.9966e-06 -1.8318e-05 -2.7442e-05)
(5.2113e-06 -1.6713e-05 -2.5037e-05)
(6.1897e-06 -1.4426e-05 -2.1611e-05)
(5.7859e-06 -1.1264e-05 -1.6874e-05)
(4.0901e-06 -7.1943e-06 -1.0777e-05)
(1.4734e-06 -2.464e-06 -3.6904e-06)
(-1.8382e-05 -9.8262e-06 -1.9595e-05)
(-1.498e-05 -1.0365e-05 -2.0669e-05)
(-1.1402e-05 -1.0635e-05 -2.1208e-05)
(-7.6595e-06 -1.0646e-05 -2.123e-05)
(-3.8578e-06 -1.0439e-05 -2.0817e-05)
(-2.4149e-07 -1.0045e-05 -2.0032e-05)
(2.8355e-06 -9.4577e-06 -1.886e-05)
(4.9996e-06 -8.6163e-06 -1.7182e-05)
(5.9562e-06 -7.4223e-06 -1.4801e-05)
(5.5706e-06 -5.783e-06 -1.1533e-05)
(3.9375e-06 -3.6872e-06 -7.3528e-06)
(1.4191e-06 -1.2617e-06 -2.5158e-06)
(-1.8366e-05 3.1437e-09 -1.0025e-05)
(-1.4965e-05 3.2414e-09 -1.0574e-05)
(-1.1388e-05 3.2714e-09 -1.0851e-05)
(-7.655e-06 3.2446e-09 -1.0864e-05)
(-3.8755e-06 3.1585e-09 -1.0654e-05)
(-2.9093e-07 3.0121e-09 -1.0251e-05)
(2.7529e-06 2.8037e-09 -9.6475e-06)
(4.8915e-06 2.5181e-09 -8.7828e-06)
(5.8374e-06 2.1292e-09 -7.5582e-06)
(5.4614e-06 1.6252e-09 -5.8827e-06)
(3.8604e-06 1.0208e-09 -3.7474e-06)
(1.3918e-06 3.4683e-10 -1.2817e-06)
(-1.8366e-05 1.0031e-05 5.3192e-09)
(-1.4965e-05 1.058e-05 5.5502e-09)
(-1.1388e-05 1.0857e-05 5.6889e-09)
(-7.6551e-06 1.087e-05 5.729e-09)
(-3.8756e-06 1.066e-05 5.6552e-09)
(-2.9098e-07 1.0257e-05 5.4485e-09)
(2.7529e-06 9.6527e-06 5.0809e-09)
(4.8914e-06 8.7874e-06 4.5273e-09)
(5.8374e-06 7.562e-06 3.776e-09)
(5.4614e-06 5.8855e-06 2.8399e-09)
(3.8604e-06 3.7492e-06 1.7623e-09)
(1.3917e-06 1.2823e-06 5.9688e-10)
(-1.8382e-05 1.9605e-05 9.8394e-06)
(-1.4981e-05 2.0679e-05 1.0378e-05)
(-1.1403e-05 2.1219e-05 1.0649e-05)
(-7.6596e-06 2.1241e-05 1.066e-05)
(-3.8579e-06 2.0828e-05 1.0453e-05)
(-2.4161e-07 2.0042e-05 1.0059e-05)
(2.8354e-06 1.887e-05 9.4701e-06)
(4.9995e-06 1.7191e-05 8.6274e-06)
(5.9561e-06 1.4809e-05 7.4316e-06)
(5.5705e-06 1.1538e-05 5.7902e-06)
(3.9375e-06 7.3564e-06 3.6916e-06)
(1.4191e-06 2.517e-06 1.2632e-06)
(-1.8411e-05 2.8526e-05 1.9016e-05)
(-1.5012e-05 3.0094e-05 2.0061e-05)
(-1.1432e-05 3.0872e-05 2.058e-05)
(-7.6702e-06 3.0894e-05 2.0595e-05)
(-3.8251e-06 3.0285e-05 2.0189e-05)
(-1.4604e-07 2.9148e-05 1.9431e-05)
(2.9964e-06 2.7465e-05 1.8309e-05)
(5.2111e-06 2.5058e-05 1.6704e-05)
(6.1895e-06 2.1629e-05 1.4418e-05)
(5.7858e-06 1.6888e-05 1.1258e-05)
(4.09e-06 1.0786e-05 7.1903e-06)
(1.4734e-06 3.6933e-06 2.4626e-06)
(-1.8451e-05 3.6819e-05 2.7599e-05)
(-1.5057e-05 3.8856e-05 2.9125e-05)
(-1.1477e-05 3.9851e-05 2.9871e-05)
(-7.6897e-06 3.9855e-05 2.9874e-05)
(-3.7809e-06 3.9052e-05 2.9272e-05)
(-8.3763e-09 3.7594e-05 2.8179e-05)
(3.2318e-06 3.5462e-05 2.658e-05)
(5.5221e-06 3.2422e-05 2.4301e-05)
(6.5342e-06 2.8067e-05 2.1036e-05)
(6.1059e-06 2.1983e-05 1.6477e-05)
(4.3185e-06 1.4073e-05 1.0549e-05)
(1.5556e-06 4.8248e-06 3.6177e-06)
(-1.8463e-05 -1.8259e-05 -4.5666e-05)
(-1.5071e-05 -1.927e-05 -4.8197e-05)
(-1.1492e-05 -1.9761e-05 -4.9427e-05)
(-7.6967e-06 -1.9759e-05 -4.9422e-05)
(-3.7676e-06 -1.9359e-05 -4.842e-05)
(3.5018e-08 -1.8638e-05 -4.6617e-05)
(3.307e-06 -1.7587e-05 -4.3991e-05)
(5.622e-06 -1.609e-05 -4.0249e-05)
(6.6449e-06 -1.3941e-05 -3.4876e-05)
(6.2082e-06 -1.0931e-05 -2.7342e-05)
(4.3911e-06 -7.0042e-06 -1.7516e-05)
(1.5815e-06 -2.4037e-06 -6.0064e-06)
(-1.8424e-05 -9.3926e-06 -3.7589e-05)
(-1.5026e-05 -9.9095e-06 -3.9659e-05)
(-1.1446e-05 -1.0165e-05 -4.0682e-05)
(-7.6758e-06 -1.017e-05 -4.0703e-05)
(-3.8097e-06 -9.9682e-06 -3.9896e-05)
(-1.0007e-07 -9.5948e-06 -3.8402e-05)
(3.0746e-06 -9.0442e-06 -3.6199e-05)
(5.3141e-06 -8.2574e-06 -3.3051e-05)
(6.3032e-06 -7.1345e-06 -2.8555e-05)
(5.8906e-06 -5.5769e-06 -2.2318e-05)
(4.1643e-06 -3.5651e-06 -1.4264e-05)
(1.4998e-06 -1.2217e-06 -4.8858e-06)
(-1.8396e-05 2.5557e-08 -2.8899e-05)
(-1.4996e-05 2.6872e-08 -3.0485e-05)
(-1.1417e-05 2.7534e-08 -3.1277e-05)
(-7.6645e-06 2.7568e-08 -3.1305e-05)
(-3.8411e-06 2.7026e-08 -3.0692e-05)
(-1.9359e-07 2.5961e-08 -2.9537e-05)
(2.916e-06 2.4348e-08 -2.7821e-05)
(5.1053e-06 2.2039e-08 -2.5364e-05)
(6.0726e-06 1.8808e-08 -2.1871e-05)
(5.6777e-06 1.4508e-08 -1.7059e-05)
(4.0132e-06 9.1953e-09 -1.0885e-05)
(1.446e-06 3.1446e-09 -3.7255e-06)
(-1.8382e-05 9.8387e-06 -1.9603e-05)
(-1.4981e-05 1.0378e-05 -2.0678e-05)
(-1.1402e-05 1.0648e-05 -2.1217e-05)
(-7.6595e-06 1.066e-05 -2.124e-05)
(-3.8578e-06 1.0452e-05 -2.0826e-05)
(-2.4152e-07 1.0058e-05 -2.004e-05)
(2.8355e-06 9.4693e-06 -1.8868e-05)
(4.9995e-06 8.6267e-06 -1.719e-05)
(5.9562e-06 7.4311e-06 -1.4808e-05)
(5.5705e-06 5.7898e-06 -1.1537e-05)
(3.9375e-06 3.6914e-06 -7.3558e-06)
(1.4191e-06 1.2632e-06 -2.5168e-06)
(-1.8382e-05 1.9601e-05 -9.8296e-06)
(-1.4981e-05 2.0675e-05 -1.0368e-05)
(-1.1402e-05 2.1214e-05 -1.0638e-05)
(-7.6596e-06 2.1237e-05 -1.065e-05)
(-3.8579e-06 2.0823e-05 -1.0442e-05)
(-2.4156e-07 2.0037e-05 -1.0049e-05)
(2.8354e-06 1.8865e-05 -9.4608e-06)
(4.9995e-06 1.7187e-05 -8.6191e-06)
(5.9562e-06 1.4805e-05 -7.4247e-06)
(5.5705e-06 1.1536e-05 -5.7849e-06)
(3.9375e-06 7.3547e-06 -3.6884e-06)
(1.4191e-06 2.5165e-06 -1.2621e-06)
(-1.8396e-05 2.8901e-05 2.3604e-08)
(-1.4996e-05 3.0487e-05 2.4843e-08)
(-1.1417e-05 3.1279e-05 2.5498e-08)
(-7.6646e-06 3.1307e-05 2.558e-08)
(-3.8412e-06 3.0694e-05 2.5127e-08)
(-1.937e-07 2.9539e-05 2.4174e-08)
(2.9159e-06 2.7823e-05 2.2682e-08)
(5.1052e-06 2.5366e-05 2.0519e-08)
(6.0725e-06 2.1873e-05 1.7495e-08)
(5.6776e-06 1.706e-05 1.3485e-08)
(4.0132e-06 1.0885e-05 8.5419e-09)
(1.446e-06 3.7257e-06 2.9205e-09)
(-1.8424e-05 3.7597e-05 9.4176e-06)
(-1.5026e-05 3.9667e-05 9.9357e-06)
(-1.1446e-05 4.069e-05 1.0192e-05)
(-7.676e-06 4.0711e-05 1.0197e-05)
(-3.81e-06 3.9903e-05 9.9946e-06)
(-1.0049e-07 3.8409e-05 9.6202e-06)
(3.074e-06 3.6206e-05 9.0679e-06)
(5.3135e-06 3.3057e-05 8.2788e-06)
(6.3025e-06 2.856e-05 7.1525e-06)
(5.89e-06 2.2322e-05 5.5906e-06)
(4.1639e-06 1.4266e-05 3.5737e-06)
(1.4997e-06 4.8865e-06 1.2247e-06)
(-1.8463e-05 4.5662e-05 1.8246e-05)
(-1.5071e-05 4.8192e-05 1.9256e-05)
(-1.1492e-05 4.9422e-05 1.9746e-05)
(-7.6969e-06 4.9418e-05 1.9745e-05)
(-3.768e-06 4.8416e-05 1.9344e-05)
(3.4437e-08 4.6613e-05 1.8623e-05)
(3.3062e-06 4.3987e-05 1.7573e-05)
(5.6211e-06 4.0246e-05 1.6077e-05)
(6.644e-06 3.4872e-05 1.393e-05)
(6.2073e-06 2.7339e-05 1.0922e-05)
(4.3905e-06 1.7514e-05 6.9986e-06)
(1.5813e-06 6.0057e-06 2.4017e-06)
(-1.8486e-05 -8.9827e-06 -5.3949e-05)
(-1.5099e-05 -9.481e-06 -5.6949e-05)
(-1.1521e-05 -9.7205e-06 -5.8392e-05)
(-7.7123e-06 -9.7157e-06 -5.8364e-05)
(-3.7438e-06 -9.5164e-06 -5.7165e-05)
(1.1819e-07 -9.1635e-06 -5.5043e-05)
(3.4527e-06 -8.6538e-06 -5.1982e-05)
(5.8162e-06 -7.9286e-06 -4.7627e-05)
(6.8607e-06 -6.8835e-06 -4.1347e-05)
(6.4086e-06 -5.4086e-06 -3.2481e-05)
(4.534e-06 -3.4717e-06 -2.084e-05)
(1.6326e-06 -1.1929e-06 -7.1506e-06)
(-1.845e-05 3.6838e-08 -4.6077e-05)
(-1.5056e-05 3.8665e-08 -4.8623e-05)
(-1.1476e-05 3.9607e-08 -4.9868e-05)
(-7.6889e-06 3.9723e-08 -4.9875e-05)
(-3.7816e-06 3.9003e-08 -4.8873e-05)
(-1.1246e-08 3.7529e-08 -4.705e-05)
(3.2271e-06 3.5293e-08 -4.4385e-05)
(5.516e-06 3.2016e-08 -4.0582e-05)
(6.5268e-06 2.7238e-08 -3.513e-05)
(6.0976e-06 2.0863e-08 -2.7513e-05)
(4.3114e-06 1.3236e-08 -1.7612e-05)
(1.5523e-06 4.5737e-09 -6.0363e-06)
(-1.8424e-05 9.4187e-06 -3.7596e-05)
(-1.5026e-05 9.9368e-06 -3.9667e-05)
(-1.1446e-05 1.0193e-05 -4.069e-05)
(-7.6758e-06 1.0198e-05 -4.0711e-05)
(-3.8098e-06 9.9956e-06 -3.9903e-05)
(-1.0033e-07 9.6212e-06 -3.8409e-05)
(3.0741e-06 9.0688e-06 -3.6205e-05)
(5.3136e-06 8.2796e-06 -3.3057e-05)
(6.3026e-06 7.1532e-06 -2.856e-05)
(5.8901e-06 5.5911e-06 -2.2322e-05)
(4.1639e-06 3.574e-06 -1.4266e-05)
(1.4997e-06 1.2248e-06 -4.8865e-06)
(-1.841e-05 1.9016e-05 -2.8525e-05)
(-1.5011e-05 2.0061e-05 -3.0093e-05)
(-1.1432e-05 2.058e-05 -3.0872e-05)
(-7.67e-06 2.0594e-05 -3.0894e-05)
(-3.8249e-06 2.0188e-05 -3.0285e-05)
(-1.459e-07 1.943e-05 -2.9148e-05)
(2.9965e-06 1.8308e-05 -2.7465e-05)
(5.2112e-06 1.6704e-05 -2.5058e-05)
(6.1896e-06 1.4418e-05 -2.1629e-05)
(5.7859e-06 1.1258e-05 -1.6888e-05)
(4.0901e-06 7.1902e-06 -1.0786e-05)
(1.4734e-06 2.4626e-06 -3.6933e-06)
(-1.841e-05 2.85e-05 -1.9035e-05)
(-1.5011e-05 3.0067e-05 -2.0081e-05)
(-1.1432e-05 3.0845e-05 -2.06e-05)
(-7.6701e-06 3.0866e-05 -2.0614e-05)
(-3.8249e-06 3.0258e-05 -2.0208e-05)
(-1.4594e-07 2.9122e-05 -1.9449e-05)
(2.9965e-06 2.744e-05 -1.8326e-05)
(5.2112e-06 2.5036e-05 -1.672e-05)
(6.1896e-06 2.161e-05 -1.4432e-05)
(5.7859e-06 1.6873e-05 -1.1269e-05)
(4.0901e-06 1.0776e-05 -7.1973e-06)
(1.4734e-06 3.6901e-06 -2.465e-06)
(-1.8424e-05 3.7589e-05 -9.3965e-06)
(-1.5026e-05 3.9659e-05 -9.9136e-06)
(-1.1446e-05 4.0682e-05 -1.0169e-05)
(-7.676e-06 4.0703e-05 -1.0174e-05)
(-3.8099e-06 3.9895e-05 -9.9721e-06)
(-1.0021e-07 3.8401e-05 -9.5986e-06)
(3.0744e-06 3.6199e-05 -9.0477e-06)
(5.314e-06 3.305e-05 -8.2606e-06)
(6.3031e-06 2.8555e-05 -7.1372e-06)
(5.8906e-06 2.2318e-05 -5.579e-06)
(4.1643e-06 1.4264e-05 -3.5664e-06)
(1.4998e-06 4.8857e-06 -1.2222e-06)
(-1.845e-05 4.6077e-05 3.4849e-08)
(-1.5056e-05 4.8622e-05 3.6603e-08)
(-1.1476e-05 4.9867e-05 3.754e-08)
(-7.6891e-06 4.9875e-05 3.7704e-08)
(-3.7818e-06 4.8872e-05 3.7071e-08)
(-1.1422e-08 4.705e-05 3.5708e-08)
(3.227e-06 4.4385e-05 3.3598e-08)
(5.5159e-06 4.0582e-05 3.0488e-08)
(6.5267e-06 3.5129e-05 2.5946e-08)
(6.0975e-06 2.7512e-05 1.9876e-08)
(4.3114e-06 1.7611e-05 1.2612e-08)
(1.5523e-06 6.0362e-06 4.359e-09)
(-1.8487e-05 5.3951e-05 9.012e-06)
(-1.5099e-05 5.6951e-05 9.5116e-06)
(-1.1522e-05 5.8394e-05 9.7518e-06)
(-7.7126e-06 5.8366e-05 9.7471e-06)
(-3.7441e-06 5.7168e-05 9.5473e-06)
(1.1786e-07 5.5046e-05 9.1933e-06)
(3.4524e-06 5.1984e-05 8.6817e-06)
(5.8159e-06 4.7629e-05 7.9538e-06)
(6.8604e-06 4.1349e-05 6.9048e-06)
(6.4083e-06 3.2482e-05 5.4247e-06)
(4.5338e-06 2.0841e-05 3.4819e-06)
(1.6325e-06 7.1508e-06 1.1964e-06)
(-1.8519e-05 1.899e-08 -6.1497e-05)
(-1.5139e-05 1.9814e-08 -6.4937e-05)
(-1.1567e-05 2.0231e-08 -6.6564e-05)
(-7.7387e-06 2.0296e-08 -6.6491e-05)
(-3.7129e-06 1.9937e-08 -6.5096e-05)
(2.3694e-07 1.9196e-08 -6.2689e-05)
(3.6637e-06 1.8077e-08 -5.9264e-05)
(6.0984e-06 1.6395e-08 -5.4408e-05)
(7.1758e-06 1.3829e-08 -4.7369e-05)
(6.703e-06 1.0437e-08 -3.7324e-05)
(4.7452e-06 6.6087e-09 -2.4003e-05)
(1.7083e-06 2.3163e-09 -8.2423e-06)
(-1.8486e-05 9.0131e-06 -5.3952e-05)
(-1.5099e-05 9.5128e-06 -5.6952e-05)
(-1.1521e-05 9.7529e-06 -5.8395e-05)
(-7.7123e-06 9.7482e-06 -5.8367e-05)
(-3.7439e-06 9.5483e-06 -5.7168e-05)
(1.1806e-07 9.1942e-06 -5.5046e-05)
(3.4525e-06 8.6826e-06 -5.1985e-05)
(5.816e-06 7.9546e-06 -4.763e-05)
(6.8605e-06 6.9054e-06 -4.1349e-05)
(6.4083e-06 5.4252e-06 -3.2482e-05)
(4.5338e-06 3.4821e-06 -2.0841e-05)
(1.6325e-06 1.1965e-06 -7.1509e-06)
(-1.8463e-05 1.8246e-05 -4.5662e-05)
(-1.5071e-05 1.9256e-05 -4.8192e-05)
(-1.1492e-05 1.9747e-05 -4.9422e-05)
(-7.6967e-06 1.9745e-05 -4.9418e-05)
(-3.7678e-06 1.9345e-05 -4.8416e-05)
(3.4624e-08 1.8624e-05 -4.6613e-05)
(3.3064e-06 1.7574e-05 -4.3987e-05)
(5.6213e-06 1.6078e-05 -4.0246e-05)
(6.6441e-06 1.3931e-05 -3.4872e-05)
(6.2074e-06 1.0922e-05 -2.7339e-05)
(4.3906e-06 6.9987e-06 -1.7514e-05)
(1.5813e-06 2.4018e-06 -6.0058e-06)
(-1.8451e-05 2.7599e-05 -3.6819e-05)
(-1.5057e-05 2.9125e-05 -3.8856e-05)
(-1.1477e-05 2.9871e-05 -3.9851e-05)
(-7.6895e-06 2.9874e-05 -3.9855e-05)
(-3.7807e-06 2.9272e-05 -3.9052e-05)
(-8.1993e-09 2.8178e-05 -3.7594e-05)
(3.2319e-06 2.658e-05 -3.5462e-05)
(5.5222e-06 2.4301e-05 -3.2423e-05)
(6.5343e-06 2.1036e-05 -2.8067e-05)
(6.1059e-06 1.6477e-05 -2.1983e-05)
(4.3185e-06 1.0549e-05 -1.4073e-05)
(1.5556e-06 3.6176e-06 -4.8249e-06)
(-1.8451e-05 3.6809e-05 -2.7612e-05)
(-1.5057e-05 3.8845e-05 -2.9139e-05)
(-1.1477e-05 3.984e-05 -2.9885e-05)
(-7.6896e-06 3.9844e-05 -2.9888e-05)
(-3.7807e-06 3.9041e-05 -2.9286e-05)
(-8.1586e-09 3.7583e-05 -2.8192e-05)
(3.232e-06 3.5452e-05 -2.6593e-05)
(5.5224e-06 3.2413e-05 -2.4313e-05)
(6.5345e-06 2.8059e-05 -2.1046e-05)
(6.1061e-06 2.1977e-05 -1.6485e-05)
(4.3187e-06 1.4069e-05 -1.0554e-05)
(1.5557e-06 4.8236e-06 -3.6194e-06)
(-1.8463e-05 4.5665e-05 -1.8262e-05)
(-1.5071e-05 4.8195e-05 -1.9273e-05)
(-1.1492e-05 4.9425e-05 -1.9765e-05)
(-7.6969e-06 4.9421e-05 -1.9763e-05)
(-3.7678e-06 4.8419e-05 -1.9362e-05)
(3.4844e-08 4.6615e-05 -1.8641e-05)
(3.3069e-06 4.399e-05 -1.759e-05)
(5.6219e-06 4.0248e-05 -1.6093e-05)
(6.6448e-06 3.4875e-05 -1.3944e-05)
(6.2081e-06 2.7341e-05 -1.0932e-05)
(4.3911e-06 1.7515e-05 -7.0053e-06)
(1.5815e-06 6.0062e-06 -2.404e-06)
(-1.8487e-05 5.3948e-05 -8.9846e-06)
(-1.5099e-05 5.6948e-05 -9.483e-06)
(-1.1522e-05 5.839e-05 -9.7225e-06)
(-7.7125e-06 5.8363e-05 -9.7177e-06)
(-3.7441e-06 5.7164e-05 -9.5183e-06)
(1.1799e-07 5.5043e-05 -9.1653e-06)
(3.4526e-06 5.1981e-05 -8.6554e-06)
(5.8161e-06 4.7626e-05 -7.9301e-06)
(6.8607e-06 4.1347e-05 -6.8847e-06)
(6.4085e-06 3.248e-05 -5.4095e-06)
(4.534e-06 2.084e-05 -3.4723e-06)
(1.6326e-06 7.1505e-06 -1.1931e-06)
(-1.8519e-05 6.1496e-05 1.7817e-08)
(-1.5139e-05 6.4936e-05 1.861e-08)
(-1.1567e-05 6.6562e-05 1.9044e-08)
(-7.739e-06 6.649e-05 1.9161e-08)
(-3.7131e-06 6.5095e-05 1.8873e-08)
(2.3672e-07 6.2689e-05 1.8202e-08)
(3.6635e-06 5.9263e-05 1.7156e-08)
(6.0983e-06 5.4408e-05 1.5578e-08)
(7.1758e-06 4.7368e-05 1.3162e-08)
(6.703e-06 3.7324e-05 9.9467e-09)
(4.7452e-06 2.4002e-05 6.3032e-09)
(1.7083e-06 8.2422e-06 2.2093e-09)
(1.9993e-06 -1.1333e-05 9.8213e-07)
(5.5406e-06 -3.2821e-05 2.8493e-06)
(7.7962e-06 -5.0586e-05 4.4032e-06)
(8.3311e-06 -6.3494e-05 5.5442e-06)
(7.1238e-06 -7.2208e-05 6.3193e-06)
(4.4235e-06 -7.8115e-05 6.8431e-06)
(6.53e-07 -8.2344e-05 7.2148e-06)
(-3.6251e-06 -8.5461e-05 7.4857e-06)
(-7.8589e-06 -8.7436e-05 7.6546e-06)
(-1.1744e-05 -8.7726e-05 7.6767e-06)
(-1.5284e-05 -8.5674e-05 7.4979e-06)
(-1.8624e-05 -8.1062e-05 7.0991e-06)
(1.913e-06 -1.0293e-05 2.7246e-06)
(5.3075e-06 -2.9863e-05 7.9097e-06)
(7.4792e-06 -4.6179e-05 1.2247e-05)
(7.9998e-06 -5.8208e-05 1.5462e-05)
(6.8321e-06 -6.6441e-05 1.7675e-05)
(4.2095e-06 -7.205e-05 1.9184e-05)
(5.416e-07 -7.6037e-05 2.0253e-05)
(-3.6378e-06 -7.8921e-05 2.102e-05)
(-7.8126e-06 -8.0688e-05 2.1484e-05)
(-1.1688e-05 -8.0885e-05 2.1531e-05)
(-1.5245e-05 -7.8963e-05 2.102e-05)
(-1.8602e-05 -7.4745e-05 1.9904e-05)
(1.854e-06 -9.0745e-06 4.4676e-06)
(5.146e-06 -2.636e-05 1.2976e-05)
(7.2564e-06 -4.0846e-05 2.0113e-05)
(7.7633e-06 -5.1625e-05 2.5433e-05)
(6.6224e-06 -5.9075e-05 2.9122e-05)
(4.056e-06 -6.4174e-05 3.1653e-05)
(4.6058e-07 -6.7785e-05 3.3444e-05)
(-3.6506e-06 -7.0363e-05 3.4718e-05)
(-7.7835e-06 -7.1907e-05 3.5476e-05)
(-1.165e-05 -7.2042e-05 3.5538e-05)
(-1.5216e-05 -7.0312e-05 3.4685e-05)
(-1.8584e-05 -6.6575e-05 3.2846e-05)
(1.824e-06 -7.6829e-06 6.137e-06)
(5.0632e-06 -2.2328e-05 1.7833e-05)