/*--------------------------------*- C++ -*----------------------------------*\
| =========                 |                                                 |
| \\      /  F ield         | OpenFOAM: The Open Source CFD Toolbox           |
|  \\    /   O peration     | Version:  4.1                                   |
|   \\  /    A nd           | Web:      www.OpenFOAM.org                      |
|    \\/     M anipulation  |                                                 |
\*---------------------------------------------------------------------------*/
FoamFile
{
    version     2.0;
    format      ascii;
    class       surfaceVectorField;
    location    "0.0077";
    object      Uf;
}
// * * * * * * * * * * * * * * * * * * * * * * * * * * * * * * * * * * * * * //

dimensions      [0 1 -1 0 0 0 0];

internalField   nonuniform List<vector> 
4288
(
(0.11197 0.029339 1.8516e-06)
(0.12269 0.024428 -0.0013357)
(0.12269 0.024428 0.0013391)
(0.1232 0.030037 0.00043089)
(0.1232 0.030039 -0.00042588)
(0.090077 0.028854 1.7392e-06)
(0.10121 0.024814 -0.00092738)
(0.10121 0.024814 0.00093161)
(0.10131 0.030769 0.0002333)
(0.10131 0.030771 -0.00022795)
(0.068472 0.027394 1.0436e-06)
(0.079591 0.024313 -0.00046293)
(0.07959 0.024313 0.00046628)
(0.079351 0.030416 1.9065e-05)
(0.079351 0.030414 -1.8476e-05)
(0.04784 0.025101 1.9617e-07)
(0.058579 0.023042 2.9259e-05)
(0.058579 0.023043 -2.7547e-05)
(0.058052 0.029123 -0.00018229)
(0.058052 0.029123 0.00018334)
(0.028779 0.022052 -9.9651e-07)
(0.038806 0.021093 0.00054452)
(0.038806 0.021094 -0.00054524)
(0.038028 0.027018 -0.00036539)
(0.038027 0.027017 0.0003629)
(0.011881 0.018244 -1.8768e-06)
(0.020856 0.018486 0.0010765)
(0.020856 0.018487 -0.00108)
(0.019837 0.024125 -0.00052236)
(0.019837 0.024121 0.00051534)
(-0.0022417 0.013482 -2.54e-06)
(0.0052547 0.015198 0.0016075)
(0.0052547 0.0152 -0.0016124)
(0.0039446 0.020379 -0.00066677)
(0.0039444 0.020377 0.00065965)
(-0.012584 0.0081532 -3.2707e-06)
(-0.0072866 0.011012 0.0021212)
(-0.0072866 0.011014 -0.0021283)
(-0.0087678 0.015418 -0.00081574)
(-0.0087679 0.015417 0.00080844)
(-0.019055 0.0031412 -3.8319e-06)
(-0.016081 0.0068089 0.0024644)
(-0.016081 0.006811 -0.0024728)
(-0.017469 0.01017 -0.0010439)
(-0.017469 0.010169 0.0010346)
(-0.023052 -0.00084646 -3.9304e-06)
(-0.021543 0.0028741 0.0023714)
(-0.021543 0.0028763 -0.0023807)
(-0.022626 0.0051124 -0.0013328)
(-0.022626 0.0051113 0.0013223)
(-0.024128 -0.0035761 -3.6041e-06)
(-0.024163 -0.00062409 0.0014704)
(-0.024163 -0.0006221 -0.0014788)
(-0.024874 0.0002916 -0.00088176)
(-0.024874 0.00029184 0.00087341)
(-0.023406 -0.0031527 0.00072962)
(-0.023406 -0.0031503 -0.00073771)
(-0.023915 -0.0034727 -0.00030028)
(-0.023914 -0.0034749 0.0002903)
(0.11164 0.019646 -0.0025201)
(0.1223 0.01784 -0.0041616)
(0.12233 0.018072 -0.0017324)
(0.12272 0.021519 -0.0017397)
(0.090022 0.019558 -0.0021055)
(0.10105 0.018095 -0.0039232)
(0.10107 0.018607 -0.0017021)
(0.10118 0.022126 -0.0016145)
(0.068656 0.018784 -0.001611)
(0.079647 0.01769 -0.0035269)
(0.079652 0.01847 -0.0016143)
(0.079531 0.021925 -0.0014237)
(0.048223 0.017413 -0.0010456)
(0.058817 0.01671 -0.0030029)
(0.058812 0.017737 -0.0014709)
(0.058491 0.021021 -0.0011694)
(0.029321 0.015501 -0.00040112)
(0.039199 0.015211 -0.0023696)
(0.039189 0.016474 -0.0012678)
(0.038683 0.019493 -0.0008378)
(0.012562 0.013075 0.00032541)
(0.021389 0.013216 -0.0016287)
(0.021374 0.0147 -0.00099461)
(0.020694 0.01737 -0.00041766)
(-0.0014217 0.010101 0.0011093)
(0.0059402 0.010738 -0.00078806)
(0.0059167 0.012419 -0.00064433)
(0.0050611 0.014656 6.7778e-05)
(-0.011836 0.0069422 0.0018696)
(-0.0065357 0.0077067 9.4506e-05)
(-0.0065908 0.0095641 -0.00023169)
(-0.0074896 0.01122 0.00052517)
(-0.018594 0.0041274 0.0024303)
(-0.015372 0.0048226 0.00081561)
(-0.015484 0.0068114 0.00022816)
(-0.016215 0.0078164 0.00082993)
(-0.022296 0.0016565 0.0024084)
(-0.020764 0.0022675 0.0013127)
(-0.020969 0.0042363 0.00065318)
(-0.021417 0.0048731 0.00074445)
(-0.023332 -0.00059842 0.0018063)
(-0.023278 -9.2569e-05 0.001114)
(-0.023527 0.0014745 0.00081988)
(-0.02373 0.001845 0.00039593)
(-0.022701 -0.0018718 0.00102)
(-0.022844 -0.0012391 0.00081592)
(-0.022954 -0.0014707 0.00052731)
(0.11142 0.016352 -0.0055017)
(0.12206 0.01411 -0.0072085)
(0.12206 0.014594 -0.0040178)
(0.12246 0.018091 -0.0065056)
(0.089982 0.016308 -0.0052624)
(0.10095 0.014296 -0.0071179)
(0.10098 0.014992 -0.0040816)
(0.10112 0.018547 -0.0065814)
(0.068772 0.015711 -0.0048221)
(0.079674 0.01396 -0.0067541)
(0.079722 0.014859 -0.0039856)
(0.079636 0.018343 -0.0064072)
(0.048472 0.014624 -0.0042085)
(0.058955 0.013165 -0.0061586)
(0.059025 0.014256 -0.0037547)
(0.058742 0.017563 -0.0060168)
(0.029704 0.013079 -0.003441)
(0.039439 0.011958 -0.0053586)
(0.039533 0.013227 -0.0034005)
(0.039071 0.016263 -0.0054289)
(0.01308 0.011084 -0.002534)
(0.021729 0.010355 -0.0043657)
(0.021849 0.011786 -0.0029366)
(0.021215 0.014456 -0.0046564)
(-0.00076805 0.008633 -0.0015117)
(0.0063845 0.0083672 -0.0031824)
(0.0065315 0.0099343 -0.0023714)
(0.0057321 0.012138 -0.0037022)
(-0.011121 0.006025 -0.00052065)
(-0.0060346 0.0059818 -0.0018397)
(-0.0059007 0.007629 -0.0017125)
(-0.006732 0.0092646 -0.0026108)
(-0.017938 0.0035756 0.00031067)
(-0.014872 0.0037639 -0.00066083)
(-0.014784 0.0054227 -0.0011345)
(-0.015514 0.0064398 -0.0016551)
(-0.021622 0.0012645 0.00076331)
(-0.020193 0.001714 0.00035101)
(-0.02016 0.0032077 -0.00059372)
(-0.02073 0.0037194 -0.00076623)
(-0.022419 -0.00084862 0.00084402)
(-0.022657 -3.14e-05 0.00093068)
(-0.022619 0.00091088 -0.00031151)
(-0.023013 0.0012029 -0.00037323)
(-0.022249 -0.0015929 0.0011966)
(-0.022189 -0.0013017 7.1315e-05)
(-0.022451 -0.0016211 0.00050633)
(0.11131 0.012103 -0.0087754)
(0.12198 0.010423 -0.010421)
(0.12191 0.010753 -0.0074833)
(0.12228 0.013898 -0.010148)
(0.089955 0.011979 -0.0085773)
(0.10091 0.010458 -0.010455)
(0.10092 0.011002 -0.0076131)
(0.10104 0.014178 -0.01026)
(0.068826 0.011428 -0.0080738)
(0.079681 0.010101 -0.010099)
(0.079744 0.010849 -0.0074664)
(0.07965 0.013938 -0.0099927)
(0.048598 0.010501 -0.0073037)
(0.059 0.0094037 -0.0094032)
(0.05912 0.010339 -0.007076)
(0.058837 0.013243 -0.0093959)
(0.029896 0.0092255 -0.0062888)
(0.039519 0.0084021 -0.0084039)
(0.039695 0.0095061 -0.0064671)
(0.039239 0.012138 -0.0085043)
(0.01333 0.0076133 -0.0050359)
(0.02184 0.0071108 -0.0071153)
(0.022072 0.0083626 -0.0056467)
(0.021449 0.01064 -0.0073284)
(-0.00045967 0.00567 -0.003554)
(0.0065276 0.0055351 -0.0055408)
(0.006819 0.0069181 -0.0046221)
(0.0060347 0.0087492 -0.0058649)
(-0.01078 0.0036531 -0.0020461)
(-0.005877 0.0036839 -0.0036914)
(-0.0055855 0.0051587 -0.0033945)
(-0.0063936 0.0064539 -0.0041224)
(-0.017624 0.0018109 -0.00071128)
(-0.014714 0.0020084 -0.0020166)
(-0.014471 0.0035363 -0.0022825)
(-0.01517 0.0042771 -0.0025184)
(-0.02132 0.00023064 0.00033099)
(-0.020026 0.00050596 -0.00051441)
(-0.019841 0.0019257 -0.0011944)
(-0.020369 0.0021983 -0.0010545)
(-0.022272 -0.00099305 0.0010655)
(-0.022505 -0.00061426 0.00060636)
(-0.022354 0.00046832 -0.00026527)
(-0.022678 0.00043878 4.4429e-05)
(-0.022145 -0.0014517 0.0014448)
(-0.022004 -0.00084047 0.00070106)
(-0.022196 -0.001205 0.0011552)
(0.11131 0.0087768 -0.012101)
(0.12206 0.0072095 -0.014109)
(0.12192 0.0074838 -0.010751)
(0.12228 0.010149 -0.013896)
(0.089956 0.008579 -0.011977)
(0.10095 0.0071203 -0.014294)
(0.10092 0.0076145 -0.010999)
(0.10104 0.010261 -0.014175)
(0.068826 0.0080748 -0.011428)
(0.079675 0.0067565 -0.013958)
(0.079744 0.0074674 -0.010847)
(0.07965 0.0099938 -0.013937)
(0.048598 0.0073032 -0.010502)
(0.058956 0.0061598 -0.013164)
(0.059121 0.0070763 -0.010339)
(0.058838 0.0093964 -0.013243)
(0.029896 0.0062859 -0.0092292)
(0.039441 0.0053579 -0.011959)
(0.039695 0.0064655 -0.0095076)
(0.039239 0.008503 -0.01214)
(0.013331 0.005031 -0.007619)
(0.02173 0.0043622 -0.010359)
(0.022073 0.005643 -0.0083668)
(0.02145 0.007325 -0.010645)
(-0.00045928 0.0035475 -0.0056773)
(0.0063854 0.0031773 -0.008373)
(0.0068196 0.0046172 -0.0069238)
(0.0060352 0.0058603 -0.0087554)
(-0.010779 0.0020382 -0.0036615)
(-0.0060339 0.0018327 -0.0059896)
(-0.0055851 0.0033879 -0.0051662)
(-0.0063933 0.0041159 -0.0064617)
(-0.017624 0.000703 -0.0018196)
(-0.014871 0.00065277 -0.0037726)
(-0.014471 0.0022751 -0.0035445)
(-0.01517 0.002511 -0.0042852)
(-0.02132 -0.00033886 -0.00023907)
(-0.020193 -0.00035905 -0.0017229)
(-0.019842 0.0011869 -0.0019341)
(-0.020369 0.001047 -0.0022068)
(-0.022272 -0.0010726 0.00098563)
(-0.022657 -0.00093755 2.3427e-05)
(-0.022354 0.0002584 -0.0004759)
(-0.022678 -5.0897e-05 -0.00044705)
(-0.022251 -0.0012027 0.0015856)
(-0.022004 -0.00070741 0.00083405)
(-0.022196 -0.0011616 0.0011983)
(0.11142 0.0055033 -0.016351)
(0.1223 0.0041615 -0.01784)
(0.12206 0.0040171 -0.014592)
(0.12246 0.0065045 -0.018089)
(0.089983 0.005265 -0.016307)
(0.10105 0.003926 -0.018093)
(0.10098 0.0040817 -0.014989)
(0.10112 0.0065809 -0.018543)
(0.068773 0.0048239 -0.01571)
(0.079648 0.0035288 -0.017689)
(0.079723 0.0039862 -0.014856)
(0.079636 0.0064071 -0.01834)
(0.048474 0.004209 -0.014624)
(0.058818 0.0030039 -0.01671)
(0.059026 0.003754 -0.014254)
(0.058744 0.006015 -0.01756)
(0.029707 0.0034403 -0.013081)
(0.039201 0.0023685 -0.015213)
(0.039535 0.0033993 -0.013227)
(0.039073 0.005427 -0.016263)
(0.01308 0.0025312 -0.011088)
(0.021391 0.0016243 -0.013221)
(0.02185 0.0029352 -0.011788)
(0.021217 0.0046547 -0.014458)
(-0.00076666 0.0015067 -0.0086388)
(0.0059424 0.00078409 -0.010743)
(0.0065328 0.0023675 -0.0099392)
(0.0057335 0.0036989 -0.012143)
(-0.01112 0.00051424 -0.0060324)
(-0.0065341 -0.00010083 -0.0077144)
(-0.0058997 0.0017077 -0.0076361)
(-0.0067309 0.0026067 -0.0092723)
(-0.017938 -0.00031775 -0.0035838)
(-0.015372 -0.00082254 -0.004831)
(-0.014784 0.0011286 -0.0054311)
(-0.015514 0.00165 -0.0064491)
(-0.021623 -0.00076971 -0.0012724)
(-0.020764 -0.0013192 -0.0022757)
(-0.02016 0.00058756 -0.0032163)
(-0.02073 0.00076146 -0.0037294)
(-0.02242 -0.00084955 0.00084126)
(-0.023279 -0.0011191 8.4921e-05)
(-0.02262 0.00030597 -0.00091792)
(-0.023013 0.0003685 -0.0012112)
(-0.022703 -0.0010263 0.0018634)
(-0.022191 -7.6481e-05 0.0012947)
(-0.022452 -0.00051212 0.0016143)
(0.11164 0.0025196 -0.019646)
(0.12269 0.0013341 -0.024429)
(0.12233 0.0017292 -0.018072)
(0.12272 0.0017355 -0.021518)
(0.090022 0.0021065 -0.019557)
(0.1012 0.00092871 -0.024814)
(0.10107 0.0017 -0.018603)
(0.10118 0.0016103 -0.02212)
(0.068658 0.0016117 -0.018784)
(0.079592 0.00046353 -0.024313)
(0.079652 0.0016129 -0.018467)
(0.079532 0.0014202 -0.02192)
(0.048225 0.0010448 -0.017415)
(0.058582 -2.9759e-05 -0.023043)
(0.058814 0.0014691 -0.017737)
(0.058493 0.0011663 -0.021018)
(0.029323 0.00039916 -0.015504)
(0.038809 -0.00054643 -0.021095)
(0.039191 0.001265 -0.016475)
(0.038685 0.00083442 -0.019494)
(0.012566 -0.00032828 -0.013079)
(0.020859 -0.0010799 -0.018489)
(0.021377 0.00099144 -0.014702)
(0.020697 0.00041536 -0.017372)
(-0.0014191 -0.0011136 -0.010107)
(0.0052579 -0.001611 -0.015203)
(0.0059196 0.0006407 -0.012424)
(0.005064 -7.032e-05 -0.014662)
(-0.011834 -0.0018752 -0.0069496)
(-0.0072843 -0.002126 -0.011017)
(-0.0065887 0.00022685 -0.0095711)
(-0.0074875 -0.00052765 -0.011228)
(-0.018593 -0.0024363 -0.0041354)
(-0.01608 -0.0024699 -0.0068152)
(-0.015483 -0.00023388 -0.0068201)
(-0.016214 -0.00083309 -0.0078267)
(-0.022297 -0.0024136 -0.0016646)
(-0.021544 -0.0023765 -0.0028802)
(-0.020969 -0.00065907 -0.0042447)
(-0.021417 -0.00074716 -0.0048833)
(-0.023335 -0.0018123 0.00058959)
(-0.024164 -0.0014739 0.00061835)
(-0.023528 -0.0008258 -0.0014816)
(-0.023731 -0.00039959 -0.0018535)
(-0.023409 -0.00073504 0.0031456)
(-0.022846 -0.00082307 0.0012313)
(-0.022957 -0.00053327 0.0014625)
(0.11197 -2.434e-06 -0.029341)
(0.12269 -0.0013422 -0.024426)
(0.1232 -0.00043656 -0.030033)
(0.1232 0.00042162 -0.030045)
(0.090079 -2.0251e-06 -0.028857)
(0.1012 -0.00093491 -0.024812)
(0.10131 -0.00023866 -0.030766)
(0.10131 0.00022997 -0.030771)
(0.068474 -1.8813e-06 -0.027396)
(0.079592 -0.00046879 -0.024312)
(0.079352 -2.5381e-05 -0.030411)
(0.079353 1.5948e-05 -0.030418)
(0.047844 -1.8994e-06 -0.025103)
(0.058582 2.5534e-05 -0.023043)
(0.058055 0.00017932 -0.029121)
(0.058055 -0.00018488 -0.029124)
(0.028781 -2.0233e-06 -0.022055)
(0.038809 0.00054328 -0.021096)
(0.038031 0.00036278 -0.027019)
(0.038031 -0.00036688 -0.027021)
(0.011884 -1.6679e-06 -0.018248)
(0.020859 0.0010767 -0.01849)
(0.01984 0.00051731 -0.024126)
(0.01984 -0.00052145 -0.024127)
(-0.0022386 -1.331e-06 -0.013486)
(0.0052579 0.0016089 -0.015203)
(0.0039477 0.00066226 -0.020381)
(0.0039479 -0.00066537 -0.020382)
(-0.012582 -1.3421e-06 -0.0081577)
(-0.007284 0.0021238 -0.011019)
(-0.0087653 0.00081143 -0.015422)
(-0.0087652 -0.00081475 -0.015423)
(-0.019053 -1.2082e-06 -0.0031459)
(-0.01608 0.0024678 -0.0068163)
(-0.017468 0.0010389 -0.010174)
(-0.017468 -0.0010413 -0.010174)
(-0.023053 -1.3134e-06 0.00084084)
(-0.021543 0.0023743 -0.0028813)
(-0.022627 0.0013268 -0.005117)
(-0.022627 -0.0013295 -0.0051173)
(-0.024132 -1.3755e-06 0.00357)
(-0.024163 0.0014721 0.00061669)
(-0.024875 0.00087563 -0.00029651)
(-0.024875 -0.00087911 -0.00029744)
(-0.023409 0.00073218 0.0031445)
(-0.023918 0.000294 0.0034694)
(-0.023918 -0.00029718 0.0034687)
(0.11164 0.019647 0.002524)
(0.12233 0.018073 0.001736)
(0.1223 0.017841 0.0041657)
(0.12272 0.021519 0.0017426)
(0.090021 0.019559 0.0021093)
(0.10107 0.018608 0.0017063)
(0.10105 0.018097 0.0039278)
(0.10118 0.022127 0.0016195)
(0.068656 0.018786 0.0016135)
(0.079651 0.018471 0.001618)
(0.079646 0.017692 0.0035295)
(0.07953 0.021927 0.0014279)
(0.048222 0.017415 0.0010464)
(0.058812 0.017738 0.0014726)
(0.058816 0.016712 0.0030043)
(0.05849 0.021023 0.0011714)
(0.029321 0.015503 0.00039969)
(0.039189 0.016475 0.0012669)
(0.039198 0.015213 0.002369)
(0.038682 0.019494 0.00083656)
(0.012562 0.013077 -0.00032909)
(0.021374 0.0147 0.00099123)
(0.021388 0.013218 0.001625)
(0.020693 0.017371 0.00041417)
(-0.0014217 0.010103 -0.0011152)
(0.0059168 0.01242 0.00063881)
(0.0059397 0.01074 0.00078319)
(0.0050608 0.014658 -7.3541e-05)
(-0.011836 0.006945 -0.0018773)
(-0.0065907 0.0095651 0.00022415)
(-0.006536 0.0077088 -0.00010169)
(-0.0074897 0.011222 -0.00053312)
(-0.018593 0.0041303 -0.002439)
(-0.015484 0.0068125 -0.00023728)
(-0.015372 0.0048248 -0.00082395)
(-0.016215 0.007818 -0.00083961)
(-0.022294 0.0016595 -0.0024171)
(-0.020968 0.0042372 -0.00066308)
(-0.020763 0.0022694 -0.0013214)
(-0.021416 0.0048736 -0.00075544)
(-0.023331 -0.0005951 -0.0018144)
(-0.023526 0.0014761 -0.00082837)
(-0.023277 -9.0048e-05 -0.0011228)
(-0.023729 0.0018476 -0.00040453)
(-0.022844 -0.0012377 -0.00082462)
(-0.022699 -0.0018686 -0.0010278)
(-0.022953 -0.0014687 -0.00053574)
(0.11147 0.016116 1.6073e-06)
(0.1221 0.014435 -0.0010058)
(0.1221 0.014436 0.0010093)
(0.089998 0.016305 1.7558e-06)
(0.10099 0.014836 -0.0010459)
(0.10099 0.014837 0.0010498)
(0.068764 0.015946 1.4036e-06)
(0.079722 0.014703 -0.0010458)
(0.079722 0.014704 0.0010491)
(0.048451 0.015103 3.2477e-07)
(0.059015 0.014093 -0.001016)
(0.059015 0.014094 0.0010175)
(0.029674 0.01381 -9.9402e-07)
(0.039516 0.013052 -0.000964)
(0.039516 0.013053 0.00096337)
(0.01304 0.01208 -2.3059e-06)
(0.021827 0.011595 -0.00089853)
(0.021827 0.011596 0.00089556)
(-0.00083495 0.0098984 -3.3268e-06)
(0.0065021 0.0097281 -0.00082785)
(0.0065021 0.0097292 0.00082233)
(-0.01131 0.007563 -4.1281e-06)
(-0.0059606 0.007415 -0.00075977)
(-0.0059603 0.007416 0.00075237)
(-0.018252 0.0053753 -4.7108e-06)
(-0.014899 0.0052572 -0.00075648)
(-0.014898 0.005258 0.00074763)
(-0.022174 0.0031234 -4.5928e-06)
(-0.020366 0.0031773 -0.00077411)
(-0.020365 0.0031781 0.00076475)
(-0.022908 0.00066813 -4.3411e-06)
(-0.022867 0.001125 -0.00069796)
(-0.022866 0.0011263 0.00068889)
(-0.022332 -0.00093275 -0.00042266)
(-0.022332 -0.00093196 0.00041413)
(0.11134 0.012922 -0.0022859)
(0.12192 0.010855 -0.0040648)
(0.12188 0.011342 -0.0012508)
(0.090029 0.013032 -0.0022949)
(0.10094 0.011147 -0.0041505)
(0.10095 0.011638 -0.0012775)
(0.068942 0.012698 -0.0022137)
(0.079788 0.011033 -0.0040782)
(0.079832 0.011519 -0.0012514)
(0.04876 0.011966 -0.0020548)
(0.059186 0.010558 -0.0038679)
(0.059261 0.011028 -0.0011787)
(0.030107 0.010866 -0.00183)
(0.039784 0.0097582 -0.0035366)
(0.039887 0.010197 -0.001063)
(0.013598 0.0094131 -0.0015527)
(0.022188 0.0086531 -0.0030972)
(0.022317 0.0090397 -0.00090724)
(-0.00015817 0.0075923 -0.0012355)
(0.0069619 0.0072504 -0.0025609)
(0.0071184 0.0075578 -0.00071508)
(-0.01054 0.00566 -0.00096053)
(-0.0054547 0.0055264 -0.0019307)
(-0.0052946 0.0057062 -0.00048455)
(-0.017512 0.0038 -0.00078469)
(-0.014385 0.0039835 -0.0014189)
(-0.01423 0.0040135 -0.00031504)
(-0.021366 0.0019158 -0.00073058)
(-0.01981 0.0024595 -0.00095068)
(-0.019637 0.0022445 -0.00015125)
(-0.022274 7.2502e-06 -0.00063357)
(-0.022316 0.0010329 -0.0005672)
(-0.022079 0.0005194 -0.00012265)
(-0.021943 -0.00055632 -8.3871e-05)
(-0.021733 -0.0010111 -0.00016045)
(0.11125 0.0091701 -0.0058394)
(0.12185 0.0074172 -0.0074163)
(0.12175 0.007809 -0.0046078)
(0.090023 0.0092251 -0.0058552)
(0.10092 0.0075932 -0.0075914)
(0.1009 0.0079993 -0.004705)
(0.06901 0.0089572 -0.0056665)
(0.079803 0.0074885 -0.0074872)
(0.079865 0.0078995 -0.004634)
(0.048894 0.0084013 -0.0052973)
(0.059236 0.0071363 -0.0071358)
(0.059365 0.0075399 -0.0044125)
(0.030302 0.0075825 -0.0047648)
(0.039866 0.0065625 -0.0065636)
(0.040055 0.0069434 -0.0040549)
(0.013852 0.0065142 -0.0040801)
(0.022301 0.0057835 -0.0057866)
(0.022546 0.006121 -0.0035669)
(0.000156 0.0051916 -0.0032477)
(0.0071071 0.004808 -0.0048126)
(0.0074089 0.0050755 -0.0029514)
(-0.010158 0.0038245 -0.0024137)
(-0.0052965 0.003627 -0.0036331)
(-0.0049833 0.003786 -0.0021997)
(-0.017187 0.0025564 -0.0016711)
(-0.014229 0.0026054 -0.0026125)
(-0.013927 0.0026409 -0.0015517)
(-0.021087 0.0013683 -0.00099568)
(-0.019657 0.0016155 -0.0016228)
(-0.019343 0.0014443 -0.0008644)
(-0.02217 0.00023925 -0.00024798)
(-0.022203 0.00074182 -0.00074855)
(-0.021854 0.00033723 -0.00022277)
(-0.021862 -0.000261 0.00025475)
(-0.02157 -0.00057609 0.00041512)
(0.11125 0.0058404 -0.0091684)
(0.12192 0.0040652 -0.010854)
(0.12175 0.004608 -0.0078081)
(0.090023 0.0058564 -0.0092233)
(0.10094 0.0041512 -0.011145)
(0.1009 0.0047063 -0.0079976)
(0.06901 0.0056671 -0.0089562)
(0.079789 0.004079 -0.011031)
(0.079865 0.0046347 -0.0078984)
(0.048894 0.0052968 -0.0084018)
(0.059187 0.003868 -0.010557)
(0.059365 0.0044123 -0.0075397)
(0.030302 0.0047627 -0.0075849)
(0.039785 0.0035354 -0.0097595)
(0.040055 0.0040534 -0.0069448)
(0.013853 0.0040765 -0.0065185)
(0.022189 0.0030952 -0.0086565)
(0.022546 0.0035637 -0.0061242)
(0.00015638 0.0032427 -0.0051975)
(0.0069628 0.002557 -0.0072555)
(0.0074094 0.0029469 -0.0050804)
(-0.010158 0.0024074 -0.0038316)
(-0.005454 0.0019257 -0.0055333)
(-0.0049829 0.0021938 -0.0037923)
(-0.017187 0.0016643 -0.0025641)
(-0.014385 0.0014125 -0.0039915)
(-0.013927 0.0015452 -0.0026482)
(-0.021087 0.00098905 -0.0013757)
(-0.01981 0.00094427 -0.0024676)
(-0.019343 0.00085755 -0.0014517)
(-0.022171 0.0002419 -0.00024585)
(-0.022317 0.0005613 -0.0010401)
(-0.021854 0.00021642 -0.00034394)
(-0.021944 7.7872e-05 0.00054939)
(-0.021571 -0.00042082 0.00056995)
(0.11134 0.0022861 -0.01292)
(0.1221 0.0010046 -0.014435)
(0.12188 0.0012507 -0.011342)
(0.09003 0.0022955 -0.01303)
(0.10099 0.0010457 -0.014834)
(0.10095 0.0012774 -0.011637)
(0.068943 0.0022138 -0.012697)
(0.079723 0.0010456 -0.014701)
(0.079833 0.0012517 -0.011518)
(0.048761 0.0020542 -0.011966)
(0.059016 0.0010152 -0.014092)
(0.059262 0.0011783 -0.011027)
(0.030109 0.0018289 -0.010869)
(0.039518 0.0009627 -0.013053)
(0.039889 0.0010617 -0.010198)
(0.013599 0.0015504 -0.0094174)
(0.021829 0.00089621 -0.011598)
(0.022319 0.00090539 -0.0090427)
(-0.000157 0.0012316 -0.0075984)
(0.0065039 0.00082449 -0.0097333)
(0.0071196 0.00071135 -0.0075623)
(-0.010539 0.00095566 -0.0056676)
(-0.0059592 0.00075509 -0.0074222)
(-0.0052937 0.0004799 -0.0057129)
(-0.017512 0.00077906 -0.0038081)
(-0.014898 0.00075086 -0.0052656)
(-0.01423 0.00030929 -0.0040209)
(-0.021366 0.00072517 -0.0019234)
(-0.020366 0.00076826 -0.0031856)
(-0.019637 0.00014519 -0.0022523)
(-0.022275 0.00062852 -1.4075e-05)
(-0.022868 0.00069223 -0.0011326)
(-0.02208 0.00011721 -0.00052605)
(-0.022334 0.00041712 0.00092606)
(-0.021734 0.00015522 0.0010044)
(0.11147 -3.9076e-06 -0.016116)
(0.12233 -0.0017386 -0.018074)
(0.1221 -0.0010112 -0.014436)
(0.089998 -3.3117e-06 -0.016303)
(0.10107 -0.0017072 -0.018605)
(0.10099 -0.0010513 -0.014835)
(0.068765 -2.7032e-06 -0.015945)
(0.079652 -0.0016189 -0.018469)
(0.079722 -0.0010501 -0.014703)
(0.048453 -2.0425e-06 -0.015103)
(0.058814 -0.0014735 -0.017737)
(0.059016 -0.0010191 -0.014093)
(0.029675 -1.5837e-06 -0.013812)
(0.039191 -0.0012684 -0.016476)
(0.039518 -0.00096564 -0.013054)
(0.013042 -9.5505e-07 -0.012084)
(0.021377 -0.00099387 -0.014703)
(0.021829 -0.00089869 -0.011599)
(-0.00083277 -8.0731e-07 -0.0099046)
(0.0059196 -0.000642 -0.012425)
(0.0065046 -0.00082631 -0.0097344)
(-0.011308 -1.1853e-06 -0.0075709)
(-0.0065884 -0.00022873 -0.0095721)
(-0.0059584 -0.00075752 -0.0074227)
(-0.018252 -1.238e-06 -0.0053841)
(-0.015483 0.00023181 -0.006821)
(-0.014897 -0.00075362 -0.0052662)
(-0.022175 -1.3056e-06 -0.0031315)
(-0.020969 0.00065668 -0.0042455)
(-0.020366 -0.00077135 -0.0031863)
(-0.022909 -1.5668e-06 -0.00067528)
(-0.023527 0.00082328 -0.0014829)
(-0.022867 -0.00069544 -0.0011329)
(-0.022846 0.00082003 0.0012304)
(-0.022333 -0.00042076 0.00092518)
(0.11163 -0.0025246 -0.019646)
(0.12229 -0.0041646 -0.017842)
(0.12272 -0.0017492 -0.021526)
(0.090021 -0.0021104 -0.019558)
(0.10105 -0.0039279 -0.018095)
(0.10118 -0.0016201 -0.022127)
(0.068658 -0.0016149 -0.018785)
(0.079647 -0.0035303 -0.017691)
(0.079532 -0.0014287 -0.021926)
(0.048225 -0.0010478 -0.017416)
(0.058818 -0.0030059 -0.016711)
(0.058493 -0.0011716 -0.021022)
(0.029324 -0.00040164 -0.015506)
(0.039201 -0.0023714 -0.015214)
(0.038686 -0.00083726 -0.019496)
(0.012565 0.00032622 -0.013081)
(0.021391 -0.0016282 -0.013221)
(0.020697 -0.00041664 -0.017374)
(-0.0014186 0.0011117 -0.010109)
(0.0059426 -0.00078675 -0.010745)
(0.0050642 6.9167e-05 -0.014663)
(-0.011834 0.0018734 -0.0069517)
(-0.0065336 9.7765e-05 -0.0077154)
(-0.0074869 0.00052681 -0.01123)
(-0.018592 0.0024341 -0.0041374)
(-0.015371 0.00081951 -0.0048323)
(-0.016214 0.0008318 -0.0078275)
(-0.022296 0.0024115 -0.0016666)
(-0.020764 0.0013161 -0.0022775)
(-0.021416 0.00074528 -0.0048843)
(-0.023334 0.0018098 0.0005873)
(-0.023278 0.0011164 8.3229e-05)
(-0.02373 0.00039813 -0.0018551)
(-0.022702 0.001023 0.0018615)
(-0.022955 0.00053081 0.0014609)
(0.11142 0.016354 0.0055063)
(0.12206 0.014595 0.0040219)
(0.12206 0.014111 0.0072131)
(0.12246 0.018091 0.0065094)
(0.08998 0.01631 0.005266)
(0.10098 0.014993 0.0040849)
(0.10095 0.014298 0.0071221)
(0.10111 0.018548 0.0065855)
(0.06877 0.015713 0.0048239)
(0.079721 0.01486 0.0039885)
(0.079673 0.013961 0.0067565)
(0.079634 0.018345 0.0064098)
(0.048471 0.014625 0.0042086)
(0.059024 0.014257 0.0037557)
(0.058953 0.013166 0.0061598)
(0.058741 0.017564 0.0060173)
(0.029704 0.01308 0.0034391)
(0.039533 0.013228 0.0033996)
(0.039438 0.011959 0.0053574)
(0.039069 0.016265 0.0054279)
(0.013078 0.011086 0.0025299)
(0.021848 0.011788 0.0029339)
(0.021727 0.010356 0.0043615)
(0.021214 0.014458 0.0046539)
(-0.00076912 0.0086349 0.0015053)
(0.006531 0.0099362 0.002366)
(0.0063828 0.0083687 0.0031763)
(0.0057307 0.01214 0.0036971)
(-0.011121 0.0060268 0.00051256)
(-0.0059008 0.0076307 0.001705)
(-0.0060359 0.005983 0.0018315)
(-0.0067329 0.0092662 0.0026031)
(-0.017938 0.0035773 -0.00031956)
(-0.014784 0.0054243 0.0011256)
(-0.014872 0.0037652 0.0006513)
(-0.015515 0.0064413 0.0016461)
(-0.021621 0.0012662 -0.00077236)
(-0.020159 0.0032092 0.00058446)
(-0.020192 0.0017148 -0.00036091)
(-0.020729 0.0037208 0.00075667)
(-0.022418 -0.00084646 -0.00085222)
(-0.022618 0.00091234 0.00030273)
(-0.022656 -3.0829e-05 -0.00093988)
(-0.023012 0.0012036 0.00036344)
(-0.022188 -0.0013 -7.9358e-05)
(-0.022248 -0.001592 -0.0012041)
(-0.022449 -0.0016208 -0.00051578)
(0.11134 0.012924 0.0022898)
(0.12188 0.011343 0.0012546)
(0.12192 0.010856 0.0040688)
(0.090029 0.013034 0.0022986)
(0.10095 0.01164 0.0012811)
(0.10094 0.011148 0.0041544)
(0.068942 0.0127 0.0022159)
(0.079832 0.01152 0.0012543)
(0.079788 0.011034 0.0040811)
(0.04876 0.011968 0.0020551)
(0.059261 0.011029 0.00118)
(0.059185 0.010559 0.0038691)
(0.030107 0.010869 0.0018284)
(0.039887 0.010198 0.0010622)
(0.039783 0.0097597 0.0035357)
(0.013598 0.0094154 0.0015488)
(0.022317 0.0090407 0.00090445)
(0.022187 0.0086548 0.0030941)
(-0.00015772 0.0075944 0.0012292)
(0.0071185 0.0075591 0.00071)
(0.0069614 0.0072521 0.0025551)
(-0.010539 0.0056618 0.00095258)
(-0.0052943 0.005707 0.0004774)
(-0.0054548 0.0055279 0.001923)
(-0.017511 0.0038017 0.00077585)
(-0.01423 0.0040143 0.00030654)
(-0.014385 0.0039847 0.0014099)
(-0.021364 0.0019174 0.00072186)
(-0.019636 0.0022454 0.00014252)
(-0.019809 0.0024607 0.00094131)
(-0.022274 8.6716e-06 0.00062532)
(-0.022079 0.00052007 0.00011457)
(-0.022315 0.001034 0.00055838)
(-0.021732 -0.0010096 0.00015364)
(-0.021942 -0.00055548 7.5359e-05)
(0.11122 0.0098142 1.4705e-06)
(0.12172 0.0079555 -0.0016373)
(0.12171 0.0079554 0.0016409)
(0.090076 0.009889 1.3179e-06)
(0.10091 0.0081609 -0.0016707)
(0.10091 0.0081605 0.0016739)
(0.069131 0.0096303 1.0173e-06)
(0.079908 0.0080738 -0.0016479)
(0.079907 0.008074 0.0016507)
(0.049073 0.0090708 1.2409e-07)
(0.059439 0.0077252 -0.0015765)
(0.059439 0.0077254 0.0015775)
(0.030537 0.00823 -8.2848e-07)
(0.040158 0.0071377 -0.0014608)
(0.040157 0.007138 0.0014597)
(0.014137 0.0071157 -1.9899e-06)
(0.022675 0.0063203 -0.0013015)
(0.022674 0.0063207 0.0012982)
(0.00048671 0.0057097 -3.0714e-06)
(0.0075653 0.0052784 -0.0011003)
(0.007565 0.0052786 0.0010947)
(-0.009712 0.0042239 -3.8111e-06)
(-0.0048231 0.0039845 -0.000851)
(-0.0048233 0.0039849 0.00084361)
(-0.016842 0.0027803 -4.2112e-06)
(-0.013771 0.0028204 -0.00062968)
(-0.013772 0.0028207 0.00062114)
(-0.020722 0.0013088 -4.0472e-06)
(-0.01917 0.0016176 -0.00038782)
(-0.01917 0.0016179 0.00037897)
(-0.021619 -0.00014459 -3.6857e-06)
(-0.021618 0.0004667 -0.0001002)
(-0.021617 0.00046709 9.2176e-05)
(-0.021361 -0.00063918 0.00025986)
(-0.02136 -0.0006399 -0.00026631)
(0.11114 0.0063882 -0.0032235)
(0.12165 0.0047495 -0.0047491)
(0.12158 0.0046665 -0.0015591)
(0.090078 0.0064275 -0.0032378)
(0.10089 0.0048628 -0.0048617)
(0.10086 0.0047838 -0.0015962)
(0.069207 0.0062478 -0.0031458)
(0.079926 0.0048034 -0.0048028)
(0.079944 0.0047272 -0.0015769)
(0.049215 0.0058702 -0.0029586)
(0.059493 0.0045905 -0.0045907)
(0.059547 0.0045139 -0.0015066)
(0.03074 0.0053065 -0.0026821)
(0.040244 0.0042375 -0.0042392)
(0.04033 0.0041571 -0.0013901)
(0.014397 0.0045628 -0.002319)
(0.022791 0.003749 -0.0037521)
(0.022907 0.0036633 -0.0012296)
(0.00079914 0.0036335 -0.0018672)
(0.0077111 0.0031295 -0.0031341)
(0.0078555 0.0030354 -0.0010261)
(-0.0093587 0.002661 -0.0013964)
(-0.0046696 0.0023665 -0.0023724)
(-0.0045171 0.0022698 -0.0007798)
(-0.016512 0.0017272 -0.00094354)
(-0.013624 0.0016851 -0.0016918)
(-0.013478 0.001567 -0.00055047)
(-0.020451 0.00079062 -0.00046892)
(-0.019028 0.00097922 -0.00098617)
(-0.018886 0.00086801 -0.00032763)
(-0.021461 -0.00011434 7.6593e-05)
(-0.021506 0.00027382 -0.00028017)
(-0.021385 0.00021623 -0.00011404)
(-0.021279 -0.00047102 0.000465)
(-0.021187 -0.00031922 0.00012193)
(0.11114 0.0032241 -0.0063873)
(0.12171 0.0016373 -0.0079551)
(0.12158 0.0015593 -0.0046661)
(0.090078 0.0032386 -0.0064265)
(0.10091 0.0016713 -0.0081594)
(0.10086 0.0015972 -0.0047827)
(0.069207 0.0031458 -0.0062475)
(0.079908 0.0016481 -0.0080727)
(0.079944 0.0015772 -0.0047266)
(0.049215 0.0029575 -0.005871)
(0.05944 0.0015758 -0.0077251)
(0.059547 0.0015061 -0.0045141)
(0.03074 0.0026795 -0.0053089)
(0.040159 0.001459 -0.007139)
(0.040331 0.0013883 -0.0041588)
(0.014397 0.0023151 -0.0045668)
(0.022675 0.0012985 -0.0063234)
(0.022907 0.0012264 -0.0036664)
(0.00079953 0.001862 -0.0036389)
(0.0075661 0.001096 -0.0052831)
(0.0078559 0.0010217 -0.00304)
(-0.0093584 0.0013903 -0.0026675)
(-0.0048225 0.00084556 -0.0039908)
(-0.0045168 0.00077428 -0.0022757)
(-0.016512 0.00093697 -0.0017343)
(-0.013771 0.00062353 -0.0028275)
(-0.013478 0.00054429 -0.0015737)
(-0.020451 0.00046245 -0.00079744)
(-0.01917 0.00038135 -0.001625)
(-0.018886 0.00032114 -0.00087489)
(-0.021462 -8.2639e-05 0.00010817)
(-0.021618 9.422e-05 -0.00047333)
(-0.021385 0.00010793 -0.00022255)
(-0.021361 -0.00026518 0.00063326)
(-0.021187 -0.00012776 0.0003138)
(0.11122 -1.9417e-06 -0.0098136)
(0.12188 -0.0012555 -0.011343)
(0.12171 -0.0016409 -0.0079554)
(0.090077 -1.6624e-06 -0.0098879)
(0.10095 -0.0012812 -0.011637)
(0.10091 -0.0016744 -0.0081601)
(0.069132 -1.4306e-06 -0.0096295)
(0.079832 -0.0012549 -0.011519)
(0.079908 -0.0016506 -0.0080732)
(0.049075 -1.2099e-06 -0.009071)
(0.059262 -0.0011812 -0.011028)
(0.05944 -0.0015782 -0.0077255)
(0.030538 -9.1735e-07 -0.0082316)
(0.039889 -0.0010642 -0.010199)
(0.040159 -0.0014609 -0.0071389)
(0.014138 -9.3909e-07 -0.0071192)
(0.022319 -0.00090733 -0.0090436)
(0.022676 -0.0013003 -0.0063235)
(0.0004877 -1.2255e-06 -0.005715)
(0.0071203 -0.00071426 -0.007564)
(0.0075662 -0.0010982 -0.005283)
(-0.0097113 -1.5286e-06 -0.0042307)
(-0.005293 -0.00048251 -0.0057134)
(-0.0048225 -0.00084823 -0.0039912)
(-0.016842 -1.7757e-06 -0.0027877)
(-0.014229 -0.00031247 -0.0040217)
(-0.013771 -0.00062674 -0.0028277)
(-0.020722 -1.801e-06 -0.0013159)
(-0.019637 -0.00014875 -0.0022531)
(-0.01917 -0.00038488 -0.0016253)
(-0.02162 -1.8537e-06 0.00013794)
(-0.022079 -0.00012046 -0.00052672)
(-0.021618 -9.7671e-05 -0.00047354)
(-0.021734 -0.00015926 0.0010032)
(-0.021361 0.00026155 0.00063288)
(0.11134 -0.0022913 -0.012923)
(0.12206 -0.004022 -0.014596)
(0.12192 -0.0040696 -0.010856)
(0.090029 -0.0022997 -0.013032)