/*--------------------------------*- C++ -*----------------------------------*\
| =========                 |                                                 |
| \\      /  F ield         | foam-extend: Open Source CFD                    |
|  \\    /   O peration     | Version:     4.1-20200408                       |
|   \\  /    A nd           | Web:         http://www.foam-extend.org         |
|    \\/     M anipulation  |                                                 |
\*---------------------------------------------------------------------------*/
FoamFile
{
    version     2.0;
    format      ascii;
    class       volVectorField;
    location    "0.0660000";
    object      U;
}
// * * * * * * * * * * * * * * * * * * * * * * * * * * * * * * * * * * * * * //

dimensions      [0 1 0 0 0 0 0];

internalField   nonuniform List<vector> 
1952
(
(0.0637311 -3.26023e-06 0)
(0.0637307 -5.30298e-06 0)
(0.0637302 -7.37058e-06 0)
(0.0637296 -9.43365e-06 0)
(0.0637288 -1.14993e-05 0)
(0.0637279 -1.35461e-05 0)
(0.0637269 -1.55934e-05 0)
(0.0637259 -1.76154e-05 0)
(0.0637249 -1.96366e-05 0)
(0.0637238 -2.16251e-05 0)
(0.0637229 -2.36033e-05 0)
(0.063722 -2.55441e-05 0)
(0.0637214 -2.74547e-05 0)
(0.063721 -2.93252e-05 0)
(0.0637209 -3.11661e-05 0)
(0.0637312 -1.3971e-06 0)
(0.0637269 -3.26118e-06 0)
(0.0637265 -5.30462e-06 0)
(0.063726 -7.37275e-06 0)
(0.0637254 -9.43661e-06 0)
(0.0637246 -1.15028e-05 0)
(0.0637237 -1.35505e-05 0)
(0.0637227 -1.55984e-05 0)
(0.0637217 -1.76214e-05 0)
(0.0637207 -1.96433e-05 0)
(0.0637196 -2.1633e-05 0)
(0.0637187 -2.3612e-05 0)
(0.0637178 -2.55544e-05 0)
(0.0637172 -2.74662e-05 0)
(0.0637168 -2.93389e-05 0)
(0.0637167 -3.1182e-05 0)
(0.063727 -1.39751e-06 0)
(0.0637227 -3.26315e-06 0)
(0.0637223 -5.30787e-06 0)
(0.0637218 -7.37724e-06 0)
(0.0637212 -9.44247e-06 0)
(0.0637204 -1.15099e-05 0)
(0.0637195 -1.35591e-05 0)
(0.0637185 -1.56083e-05 0)
(0.0637175 -1.76328e-05 0)
(0.0637165 -1.96561e-05 0)
(0.0637154 -2.16475e-05 0)
(0.0637145 -2.36281e-05 0)
(0.0637136 -2.55723e-05 0)
(0.063713 -2.74858e-05 0)
(0.0637126 -2.93605e-05 0)
(0.0637125 -3.12053e-05 0)
(0.0637228 -1.39836e-06 0)
(0.0637185 -3.26538e-06 0)
(0.0637181 -5.31152e-06 0)
(0.0637176 -7.38231e-06 0)
(0.063717 -9.44903e-06 0)
(0.0637162 -1.15179e-05 0)
(0.0637153 -1.35687e-05 0)
(0.0637143 -1.56194e-05 0)
(0.0637133 -1.76456e-05 0)
(0.0637123 -1.96705e-05 0)
(0.0637112 -2.16637e-05 0)
(0.0637102 -2.3646e-05 0)
(0.0637094 -2.5592e-05 0)
(0.0637088 -2.75073e-05 0)
(0.0637084 -2.93839e-05 0)
(0.0637083 -3.12305e-05 0)
(0.0637186 -1.39932e-06 0)
(0.0637143 -3.26784e-06 0)
(0.0637139 -5.31554e-06 0)
(0.0637134 -7.38791e-06 0)
(0.0637128 -9.45625e-06 0)
(0.063712 -1.15268e-05 0)
(0.0637111 -1.35792e-05 0)
(0.0637101 -1.56316e-05 0)
(0.0637091 -1.76595e-05 0)
(0.063708 -1.96862e-05 0)
(0.063707 -2.16812e-05 0)
(0.063706 -2.36654e-05 0)
(0.0637052 -2.56133e-05 0)
(0.0637045 -2.75304e-05 0)
(0.0637042 -2.94089e-05 0)
(0.0637041 -3.12571e-05 0)
(0.0637144 -1.40037e-06 0)
(0.0637101 -3.27048e-06 0)
(0.0637097 -5.31984e-06 0)
(0.0637092 -7.39389e-06 0)
(0.0637085 -9.46397e-06 0)
(0.0637078 -1.15362e-05 0)
(0.0637069 -1.35904e-05 0)
(0.0637059 -1.56446e-05 0)
(0.0637049 -1.76744e-05 0)
(0.0637038 -1.97029e-05 0)
(0.0637028 -2.16998e-05 0)
(0.0637018 -2.36859e-05 0)
(0.063701 -2.56357e-05 0)
(0.0637003 -2.75546e-05 0)
(0.0637 -2.94349e-05 0)
(0.0636998 -3.12848e-05 0)
(0.0637102 -1.4015e-06 0)
(0.0637059 -3.27328e-06 0)
(0.0637055 -5.32441e-06 0)
(0.063705 -7.40024e-06 0)
(0.0637043 -9.47216e-06 0)
(0.0637036 -1.15462e-05 0)
(0.0637027 -1.36023e-05 0)
(0.0637017 -1.56583e-05 0)
(0.0637007 -1.76901e-05 0)
(0.0636996 -1.97204e-05 0)
(0.0636986 -2.17193e-05 0)
(0.0636976 -2.37072e-05 0)
(0.0636968 -2.56589e-05 0)
(0.0636961 -2.75796e-05 0)
(0.0636957 -2.94617e-05 0)
(0.0636956 -3.13134e-05 0)
(0.063706 -1.4027e-06 0)
(0.0637016 -3.2762e-06 0)
(0.0637013 -5.32918e-06 0)
(0.0637008 -7.40687e-06 0)
(0.0637001 -9.48069e-06 0)
(0.0636993 -1.15566e-05 0)
(0.0636984 -1.36146e-05 0)
(0.0636975 -1.56726e-05 0)
(0.0636964 -1.77063e-05 0)
(0.0636954 -1.97385e-05 0)
(0.0636943 -2.17393e-05 0)
(0.0636934 -2.37291e-05 0)
(0.0636925 -2.56827e-05 0)
(0.0636919 -2.76053e-05 0)
(0.0636915 -2.94892e-05 0)
(0.0636914 -3.13425e-05 0)
(0.0637018 -1.40396e-06 0)
(0.0636974 -3.27923e-06 0)
(0.063697 -5.33412e-06 0)
(0.0636966 -7.41373e-06 0)
(0.0636959 -9.48951e-06 0)
(0.0636951 -1.15673e-05 0)
(0.0636942 -1.36273e-05 0)
(0.0636932 -1.56872e-05 0)
(0.0636922 -1.77229e-05 0)
(0.0636912 -1.97571e-05 0)
(0.0636901 -2.17598e-05 0)
(0.0636891 -2.37515e-05 0)
(0.0636883 -2.5707e-05 0)
(0.0636876 -2.76313e-05 0)
(0.0636873 -2.9517e-05 0)
(0.0636872 -3.1372e-05 0)
(0.0636975 -1.40525e-06 0)
(0.0636932 -3.28233e-06 0)
(0.0636928 -5.33918e-06 0)
(0.0636923 -7.42075e-06 0)
(0.0636917 -9.49852e-06 0)
(0.0636909 -1.15783e-05 0)
(0.06369 -1.36403e-05 0)
(0.063689 -1.57021e-05 0)
(0.063688 -1.77398e-05 0)
(0.0636869 -1.97759e-05 0)
(0.0636859 -2.17805e-05 0)
(0.0636849 -2.37741e-05 0)
(0.0636841 -2.57315e-05 0)
(0.0636834 -2.76575e-05 0)
(0.063683 -2.95451e-05 0)
(0.0636829 -3.14018e-05 0)
(0.0636933 -1.40658e-06 0)
(0.063689 -3.28549e-06 0)
(0.0636886 -5.34432e-06 0)
(0.0636881 -7.42788e-06 0)
(0.0636874 -9.50767e-06 0)
(0.0636867 -1.15894e-05 0)
(0.0636858 -1.36534e-05 0)
(0.0636848 -1.57172e-05 0)
(0.0636837 -1.77568e-05 0)
(0.0636827 -1.97948e-05 0)
(0.0636816 -2.18014e-05 0)
(0.0636807 -2.37968e-05 0)
(0.0636798 -2.57561e-05 0)
(0.0636792 -2.76839e-05 0)
(0.0636788 -2.95733e-05 0)
(0.0636787 -3.14317e-05 0)
(0.0636891 -1.40794e-06 0)
(0.0636847 -3.28867e-06 0)
(0.0636844 -5.3495e-06 0)
(0.0636839 -7.43506e-06 0)
(0.0636832 -9.51687e-06 0)
(0.0636824 -1.16006e-05 0)
(0.0636815 -1.36666e-05 0)
(0.0636805 -1.57323e-05 0)
(0.0636795 -1.7774e-05 0)
(0.0636784 -1.98138e-05 0)
(0.0636774 -2.18223e-05 0)
(0.0636764 -2.38196e-05 0)
(0.0636756 -2.57807e-05 0)
(0.0636749 -2.77103e-05 0)
(0.0636746 -2.96015e-05 0)
(0.0636744 -3.14617e-05 0)
(0.0636848 -1.4093e-06 0)
(0.0636805 -3.29185e-06 0)
(0.0636801 -5.35467e-06 0)
(0.0636796 -7.44224e-06 0)
(0.0636789 -9.52606e-06 0)
(0.0636782 -1.16117e-05 0)
(0.0636773 -1.36797e-05 0)
(0.0636763 -1.57474e-05 0)
(0.0636753 -1.7791e-05 0)
(0.0636742 -1.98328e-05 0)
(0.0636732 -2.18432e-05 0)
(0.0636722 -2.38423e-05 0)
(0.0636713 -2.58053e-05 0)
(0.0636707 -2.77366e-05 0)
(0.0636703 -2.96296e-05 0)
(0.0636702 -3.14916e-05 0)
(0.0636806 -1.41067e-06 0)
(0.0636762 -3.29502e-06 0)
(0.0636759 -5.35983e-06 0)
(0.0636754 -7.44939e-06 0)
(0.0636747 -9.53523e-06 0)
(0.0636739 -1.16229e-05 0)
(0.063673 -1.36929e-05 0)
(0.063672 -1.57624e-05 0)
(0.063671 -1.7808e-05 0)
(0.0636699 -1.98516e-05 0)
(0.0636689 -2.18639e-05 0)
(0.0636679 -2.38649e-05 0)
(0.0636671 -2.58297e-05 0)
(0.0636664 -2.77628e-05 0)
(0.063666 -2.96576e-05 0)
(0.0636659 -3.15214e-05 0)
(0.0636764 -1.41203e-06 0)
(0.063672 -3.29815e-06 0)
(0.0636716 -5.36492e-06 0)
(0.0636711 -7.45644e-06 0)
(0.0636705 -9.54427e-06 0)
(0.0636697 -1.16338e-05 0)
(0.0636688 -1.37058e-05 0)
(0.0636678 -1.57773e-05 0)
(0.0636667 -1.78248e-05 0)
(0.0636657 -1.98703e-05 0)
(0.0636646 -2.18845e-05 0)
(0.0636637 -2.38873e-05 0)
(0.0636628 -2.5854e-05 0)
(0.0636622 -2.77889e-05 0)
(0.0636618 -2.96855e-05 0)
(0.0636617 -3.15511e-05 0)
(0.0636721 -1.41337e-06 0)
(0.0636677 -3.30124e-06 0)
(0.0636674 -5.36996e-06 0)
(0.0636669 -7.46342e-06 0)
(0.0636662 -9.55322e-06 0)
(0.0636654 -1.16447e-05 0)
(0.0636645 -1.37186e-05 0)
(0.0636635 -1.5792e-05 0)
(0.0636625 -1.78415e-05 0)
(0.0636614 -1.98888e-05 0)
(0.0636604 -2.19049e-05 0)
(0.0636594 -2.39095e-05 0)
(0.0636586 -2.58781e-05 0)
(0.0636579 -2.78148e-05 0)
(0.0636575 -2.97132e-05 0)
(0.0636574 -3.15807e-05 0)
(0.0636679 -1.41469e-06 0)
(0.0636635 -3.30426e-06 0)
(0.0636631 -5.37489e-06 0)
(0.0636626 -7.47026e-06 0)
(0.0636619 -9.562e-06 0)
(0.0636612 -1.16554e-05 0)
(0.0636603 -1.37312e-05 0)
(0.0636593 -1.58065e-05 0)
(0.0636582 -1.78579e-05 0)
(0.0636572 -1.9907e-05 0)
(0.0636561 -2.1925e-05 0)
(0.0636551 -2.39315e-05 0)
(0.0636543 -2.59019e-05 0)
(0.0636536 -2.78404e-05 0)
(0.0636533 -2.97408e-05 0)
(0.0636531 -3.16101e-05 0)
(0.0636636 -1.41599e-06 0)
(0.0636592 -3.30725e-06 0)
(0.0636588 -5.37975e-06 0)
(0.0636583 -7.477e-06 0)
(0.0636577 -9.57066e-06 0)
(0.0636569 -1.16659e-05 0)
(0.063656 -1.37437e-05 0)
(0.063655 -1.58208e-05 0)
(0.063654 -1.78741e-05 0)
(0.0636529 -1.99251e-05 0)
(0.0636519 -2.1945e-05 0)
(0.0636509 -2.39534e-05 0)
(0.06365 -2.59256e-05 0)
(0.0636494 -2.7866e-05 0)
(0.063649 -2.97682e-05 0)
(0.0636489 -3.16395e-05 0)
(0.0636593 -1.41727e-06 0)
(0.0636549 -3.31017e-06 0)
(0.0636546 -5.38452e-06 0)
(0.0636541 -7.48362e-06 0)
(0.0636534 -9.57917e-06 0)
(0.0636526 -1.16762e-05 0)
(0.0636517 -1.37559e-05 0)
(0.0636507 -1.58349e-05 0)
(0.0636497 -1.78902e-05 0)
(0.0636486 -1.99429e-05 0)
(0.0636476 -2.19647e-05 0)
(0.0636466 -2.3975e-05 0)
(0.0636458 -2.59492e-05 0)
(0.0636451 -2.78914e-05 0)
(0.0636447 -2.97956e-05 0)
(0.0636446 -3.16687e-05 0)
(0.0636551 -1.41852e-06 0)
(0.0636507 -3.31306e-06 0)
(0.0636503 -5.38922e-06 0)
(0.0636498 -7.49014e-06 0)
(0.0636491 -9.58756e-06 0)
(0.0636484 -1.16864e-05 0)
(0.0636474 -1.3768e-05 0)
(0.0636465 -1.58488e-05 0)
(0.0636454 -1.7906e-05 0)
(0.0636444 -1.99606e-05 0)
(0.0636433 -2.19844e-05 0)
(0.0636423 -2.39965e-05 0)
(0.0636415 -2.59726e-05 0)
(0.0636408 -2.79167e-05 0)
(0.0636404 -2.98228e-05 0)
(0.0636403 -3.16979e-05 0)
(0.0636508 -1.41976e-06 0)
(0.0636464 -3.3159e-06 0)
(0.063646 -5.39386e-06 0)
(0.0636455 -7.49659e-06 0)
(0.0636449 -9.59587e-06 0)
(0.0636441 -1.16965e-05 0)
(0.0636432 -1.378e-05 0)
(0.0636422 -1.58626e-05 0)
(0.0636411 -1.79218e-05 0)
(0.0636401 -1.99782e-05 0)
(0.063639 -2.20039e-05 0)
(0.063638 -2.40178e-05 0)
(0.0636372 -2.59959e-05 0)
(0.0636365 -2.79418e-05 0)
(0.0636362 -2.98499e-05 0)
(0.063636 -3.17269e-05 0)
(0.0636465 -1.42098e-06 0)
(0.0636421 -3.31872e-06 0)
(0.0636417 -5.39846e-06 0)
(0.0636413 -7.50298e-06 0)
(0.0636406 -9.6041e-06 0)
(0.0636398 -1.17065e-05 0)
(0.0636389 -1.37919e-05 0)
(0.0636379 -1.58763e-05 0)
(0.0636369 -1.79374e-05 0)
(0.0636358 -1.99955e-05 0)
(0.0636347 -2.20232e-05 0)
(0.0636338 -2.4039e-05 0)
(0.0636329 -2.6019e-05 0)
(0.0636322 -2.79668e-05 0)
(0.0636319 -2.98769e-05 0)
(0.0636318 -3.17559e-05 0)
(0.0636422 -1.42219e-06 0)
(0.0636378 -3.32152e-06 0)
(0.0636375 -5.40303e-06 0)
(0.063637 -7.50931e-06 0)
(0.0636363 -9.61226e-06 0)
(0.0636355 -1.17164e-05 0)
(0.0636346 -1.38037e-05 0)
(0.0636336 -1.58898e-05 0)
(0.0636326 -1.79528e-05 0)
(0.0636315 -2.00128e-05 0)
(0.0636305 -2.20424e-05 0)
(0.0636295 -2.406e-05 0)
(0.0636286 -2.6042e-05 0)
(0.063628 -2.79917e-05 0)
(0.0636276 -2.99038e-05 0)
(0.0636275 -3.17848e-05 0)
(0.063638 -1.42339e-06 0)
(0.0636335 -3.3243e-06 0)
(0.0636332 -5.40756e-06 0)
(0.0636327 -7.51559e-06 0)
(0.063632 -9.62036e-06 0)
(0.0636312 -1.17263e-05 0)
(0.0636303 -1.38154e-05 0)
(0.0636293 -1.59033e-05 0)
(0.0636283 -1.79682e-05 0)
(0.0636272 -2.003e-05 0)
(0.0636262 -2.20615e-05 0)
(0.0636252 -2.4081e-05 0)
(0.0636243 -2.6065e-05 0)
(0.0636237 -2.80166e-05 0)
(0.0636233 -2.99307e-05 0)
(0.0636232 -3.18137e-05 0)
(0.0636337 -1.42458e-06 0)
(0.0636293 -3.32707e-06 0)
(0.0636289 -5.41208e-06 0)
(0.0636284 -7.52186e-06 0)
(0.0636277 -9.62845e-06 0)
(0.0636269 -1.17361e-05 0)
(0.063626 -1.38271e-05 0)
(0.063625 -1.59167e-05 0)
(0.063624 -1.79836e-05 0)
(0.0636229 -2.00471e-05 0)
(0.0636219 -2.20806e-05 0)
(0.0636209 -2.41019e-05 0)
(0.06362 -2.60879e-05 0)
(0.0636194 -2.80414e-05 0)
(0.063619 -2.99575e-05 0)
(0.0636189 -3.18425e-05 0)
(0.0636294 -1.42577e-06 0)
(0.063625 -3.32983e-06 0)
(0.0636246 -5.41659e-06 0)
(0.0636241 -7.5281e-06 0)
(0.0636234 -9.63651e-06 0)
(0.0636226 -1.17459e-05 0)
(0.0636217 -1.38387e-05 0)
(0.0636207 -1.59301e-05 0)
(0.0636197 -1.79989e-05 0)
(0.0636186 -2.00641e-05 0)
(0.0636176 -2.20996e-05 0)
(0.0636166 -2.41228e-05 0)
(0.0636157 -2.61108e-05 0)
(0.0636151 -2.80662e-05 0)
(0.0636147 -2.99843e-05 0)
(0.0636146 -3.18714e-05 0)
(0.0636251 -1.42695e-06 0)
(0.0636207 -3.33261e-06 0)
(0.0636203 -5.42112e-06 0)
(0.0636198 -7.53438e-06 0)
(0.0636191 -9.64461e-06 0)
(0.0636183 -1.17557e-05 0)
(0.0636174 -1.38504e-05 0)
(0.0636164 -1.59434e-05 0)
(0.0636154 -1.80143e-05 0)
(0.0636143 -2.00812e-05 0)
(0.0636133 -2.21187e-05 0)
(0.0636123 -2.41436e-05 0)
(0.0636114 -2.61337e-05 0)
(0.0636107 -2.80909e-05 0)
(0.0636104 -3.00112e-05 0)
(0.0636103 -3.19003e-05 0)
(0.0636208 -1.42814e-06 0)
(0.0636164 -3.33541e-06 0)
(0.063616 -5.42568e-06 0)
(0.0636155 -7.54069e-06 0)
(0.0636148 -9.65276e-06 0)
(0.063614 -1.17655e-05 0)
(0.0636131 -1.38622e-05 0)
(0.0636121 -1.59569e-05 0)
(0.0636111 -1.80297e-05 0)
(0.06361 -2.00983e-05 0)
(0.063609 -2.21378e-05 0)
(0.063608 -2.41645e-05 0)
(0.0636071 -2.61566e-05 0)
(0.0636064 -2.81158e-05 0)
(0.0636061 -3.00381e-05 0)
(0.0636059 -3.19293e-05 0)
(0.0636165 -1.42934e-06 0)
(0.0636121 -3.33826e-06 0)
(0.0636117 -5.43034e-06 0)
(0.0636112 -7.54711e-06 0)
(0.0636105 -9.66106e-06 0)
(0.0636097 -1.17755e-05 0)
(0.0636088 -1.38741e-05 0)
(0.0636078 -1.59705e-05 0)
(0.0636068 -1.80452e-05 0)
(0.0636057 -2.01155e-05 0)
(0.0636046 -2.2157e-05 0)
(0.0636036 -2.41856e-05 0)
(0.0636028 -2.61797e-05 0)
(0.0636021 -2.81408e-05 0)
(0.0636017 -3.00652e-05 0)
(0.0636016 -3.19585e-05 0)
(0.0636122 -1.43057e-06 0)
(0.0636078 -3.34119e-06 0)
(0.0636074 -5.43511e-06 0)
(0.0636069 -7.5537e-06 0)
(0.0636062 -9.66955e-06 0)
(0.0636054 -1.17857e-05 0)
(0.0636045 -1.38863e-05 0)
(0.0636035 -1.59843e-05 0)
(0.0636025 -1.80611e-05 0)
(0.0636014 -2.0133e-05 0)
(0.0636003 -2.21765e-05 0)
(0.0635993 -2.42069e-05 0)
(0.0635985 -2.6203e-05 0)
(0.0635978 -2.81661e-05 0)
(0.0635974 -3.00926e-05 0)
(0.0635973 -3.19881e-05 0)
(0.0636079 -1.43182e-06 0)
(0.0636034 -3.34425e-06 0)
(0.0636031 -5.4401e-06 0)
(0.0636026 -7.56056e-06 0)
(0.0636019 -9.6784e-06 0)
(0.0636011 -1.17963e-05 0)
(0.0636002 -1.38989e-05 0)
(0.0635992 -1.59986e-05 0)
(0.0635981 -1.80774e-05 0)
(0.0635971 -2.0151e-05 0)
(0.063596 -2.21965e-05 0)
(0.063595 -2.42286e-05 0)
(0.0635941 -2.62268e-05 0)
(0.0635935 -2.81918e-05 0)
(0.0635931 -3.01205e-05 0)
(0.063593 -3.20182e-05 0)
(0.0636036 -1.43314e-06 0)
(0.0635991 -3.3475e-06 0)
(0.0635987 -5.44538e-06 0)
(0.0635983 -7.56781e-06 0)
(0.0635976 -9.68773e-06 0)
(0.0635968 -1.18075e-05 0)
(0.0635959 -1.39121e-05 0)
(0.0635949 -1.60135e-05 0)
(0.0635938 -1.80944e-05 0)
(0.0635927 -2.01697e-05 0)
(0.0635917 -2.22173e-05 0)
(0.0635907 -2.42511e-05 0)
(0.0635898 -2.62514e-05 0)
(0.0635891 -2.82183e-05 0)
(0.0635888 -3.01491e-05 0)
(0.0635886 -3.20491e-05 0)
(0.0635993 -1.43453e-06 0)
(0.0635948 -3.35103e-06 0)
(0.0635944 -5.45111e-06 0)
(0.0635939 -7.57567e-06 0)
(0.0635932 -9.69782e-06 0)
(0.0635925 -1.18195e-05 0)
(0.0635915 -1.39264e-05 0)
(0.0635905 -1.60295e-05 0)
(0.0635895 -1.81126e-05 0)
(0.0635884 -2.01894e-05 0)
(0.0635873 -2.22391e-05 0)
(0.0635863 -2.42746e-05 0)
(0.0635855 -2.6277e-05 0)
(0.0635848 -2.82458e-05 0)
(0.0635844 -3.01788e-05 0)
(0.0635843 -3.20811e-05 0)
(0.0635949 -1.43604e-06 0)
(0.0635905 -3.35493e-06 0)
(0.0635901 -5.45745e-06 0)
(0.0635896 -7.58433e-06 0)
(0.0635889 -9.70892e-06 0)
(0.0635881 -1.18326e-05 0)
(0.0635872 -1.39419e-05 0)
(0.0635862 -1.60468e-05 0)
(0.0635852 -1.81321e-05 0)
(0.0635841 -2.02106e-05 0)
(0.063583 -2.22624e-05 0)
(0.063582 -2.42996e-05 0)
(0.0635811 -2.6304e-05 0)
(0.0635805 -2.82747e-05 0)
(0.0635801 -3.02098e-05 0)
(0.06358 -3.21145e-05 0)
(0.0635906 -1.43772e-06 0)
(0.0635862 -3.35935e-06 0)
(0.0635858 -5.4646e-06 0)
(0.0635853 -7.5941e-06 0)
(0.0635846 -9.72139e-06 0)
(0.0635838 -1.18474e-05 0)
(0.0635829 -1.39592e-05 0)
(0.0635819 -1.6066e-05 0)
(0.0635808 -1.81538e-05 0)
(0.0635797 -2.02338e-05 0)
(0.0635787 -2.22878e-05 0)
(0.0635777 -2.43266e-05 0)
(0.0635768 -2.63331e-05 0)
(0.0635761 -2.83056e-05 0)
(0.0635757 -3.02428e-05 0)
(0.0635756 -3.21498e-05 0)
(0.0635863 -1.43961e-06 0)
(0.0635818 -3.36443e-06 0)
(0.0635814 -5.47283e-06 0)
(0.0635809 -7.60532e-06 0)
(0.0635803 -9.73568e-06 0)
(0.0635795 -1.18642e-05 0)
(0.0635785 -1.39789e-05 0)
(0.0635776 -1.60878e-05 0)
(0.0635765 -1.81781e-05 0)
(0.0635754 -2.02598e-05 0)
(0.0635743 -2.2316e-05 0)
(0.0635733 -2.43564e-05 0)
(0.0635725 -2.63648e-05 0)
(0.0635718 -2.83391e-05 0)
(0.0635714 -3.02783e-05 0)
(0.0635712 -3.21876e-05 0)
(0.063582 -1.44179e-06 0)
(0.0635775 -3.37037e-06 0)
(0.0635771 -5.48244e-06 0)
(0.0635766 -7.61841e-06 0)
(0.0635759 -9.7523e-06 0)
(0.0635751 -1.18838e-05 0)
(0.0635742 -1.40016e-05 0)
(0.0635732 -1.61129e-05 0)
(0.0635721 -1.82059e-05 0)
(0.0635711 -2.02894e-05 0)
(0.06357 -2.23479e-05 0)
(0.063569 -2.43897e-05 0)
(0.0635681 -2.64001e-05 0)
(0.0635674 -2.8376e-05 0)
(0.063567 -3.03171e-05 0)
(0.0635669 -3.22286e-05 0)
(0.0635776 -1.44434e-06 0)
(0.0635731 -3.37739e-06 0)
(0.0635728 -5.49378e-06 0)
(0.0635723 -7.63384e-06 0)
(0.0635716 -9.77185e-06 0)
(0.0635708 -1.19068e-05 0)
(0.0635699 -1.40283e-05 0)
(0.0635689 -1.61421e-05 0)
(0.0635678 -1.82382e-05 0)
(0.0635667 -2.03235e-05 0)
(0.0635656 -2.23844e-05 0)
(0.0635646 -2.44276e-05 0)
(0.0635638 -2.64399e-05 0)
(0.0635631 -2.84172e-05 0)
(0.0635627 -3.03601e-05 0)
(0.0635625 -3.22738e-05 0)
(0.0635733 -1.44735e-06 0)
(0.0635688 -3.38573e-06 0)
(0.0635684 -5.50726e-06 0)
(0.0635679 -7.65219e-06 0)
(0.0635672 -9.79505e-06 0)
(0.0635664 -1.19341e-05 0)
(0.0635655 -1.40598e-05 0)
(0.0635645 -1.61767e-05 0)
(0.0635634 -1.82763e-05 0)
(0.0635624 -2.03636e-05 0)
(0.0635613 -2.2427e-05 0)
(0.0635603 -2.44714e-05 0)
(0.0635594 -2.64855e-05 0)
(0.0635587 -2.8464e-05 0)
(0.0635583 -3.04085e-05 0)
(0.0635581 -3.23242e-05 0)
(0.0635689 -1.45093e-06 0)
(0.0635644 -3.39566e-06 0)
(0.0635641 -5.52329e-06 0)
(0.0635636 -7.67403e-06 0)
(0.0635629 -9.82265e-06 0)
(0.0635621 -1.19666e-05 0)
(0.0635612 -1.40973e-05 0)
(0.0635602 -1.62179e-05 0)
(0.0635591 -1.83214e-05 0)
(0.063558 -2.04109e-05 0)
(0.0635569 -2.24772e-05 0)
(0.0635559 -2.45228e-05 0)
(0.063555 -2.65387e-05 0)
(0.0635543 -2.8518e-05 0)
(0.0635539 -3.04638e-05 0)
(0.0635538 -3.23813e-05 0)
(0.0635646 -1.45519e-06 0)
(0.0635601 -3.40746e-06 0)
(0.0635597 -5.54236e-06 0)
(0.0635592 -7.70004e-06 0)
(0.0635585 -9.85549e-06 0)
(0.0635577 -1.20053e-05 0)
(0.0635568 -1.4142e-05 0)
(0.0635558 -1.6267e-05 0)
(0.0635547 -1.83752e-05 0)
(0.0635536 -2.04674e-05 0)
(0.0635526 -2.25369e-05 0)
(0.0635515 -2.45837e-05 0)
(0.0635507 -2.66013e-05 0)
(0.06355 -2.85812e-05 0)
(0.0635495 -3.0528e-05 0)
(0.0635494 -3.24469e-05 0)
(0.0635602 -1.46026e-06 0)
(0.0635557 -3.4214e-06 0)
(0.0635553 -5.56489e-06 0)
(0.0635548 -7.73083e-06 0)
(0.0635541 -9.89442e-06 0)
(0.0635533 -1.20514e-05 0)
(0.0635524 -1.41951e-05 0)
(0.0635514 -1.63256e-05 0)
(0.0635504 -1.84394e-05 0)
(0.0635493 -2.0535e-05 0)
(0.0635482 -2.26083e-05 0)
(0.0635472 -2.46564e-05 0)
(0.0635463 -2.66759e-05 0)
(0.0635456 -2.86559e-05 0)
(0.0635452 -3.06033e-05 0)
(0.063545 -3.25233e-05 0)
(0.0635558 -1.46624e-06 0)
(0.0635513 -3.43774e-06 0)
(0.0635509 -5.59131e-06 0)
(0.0635504 -7.76703e-06 0)
(0.0635497 -9.94022e-06 0)
(0.0635489 -1.21058e-05 0)
(0.063548 -1.4258e-05 0)
(0.063547 -1.63952e-05 0)
(0.063546 -1.85159e-05 0)
(0.0635449 -2.06158e-05 0)
(0.0635438 -2.26938e-05 0)
(0.0635428 -2.47437e-05 0)
(0.0635419 -2.67655e-05 0)
(0.0635412 -2.87453e-05 0)
(0.0635408 -3.06928e-05 0)
(0.0635406 -3.26131e-05 0)
(0.0635514 -1.47324e-06 0)
(0.0635468 -3.45664e-06 0)
(0.0635465 -5.62191e-06 0)
(0.063546 -7.80905e-06 0)
(0.0635453 -9.99349e-06 0)
(0.0635445 -1.21694e-05 0)
(0.0635436 -1.43316e-05 0)
(0.0635426 -1.64773e-05 0)
(0.0635416 -1.86064e-05 0)
(0.0635405 -2.07121e-05 0)
(0.0635394 -2.27963e-05 0)
(0.0635384 -2.48486e-05 0)
(0.0635375 -2.68734e-05 0)
(0.0635368 -2.88528e-05 0)
(0.0635364 -3.08e-05 0)
(0.0635362 -3.27193e-05 0)
(0.063547 -1.48135e-06 0)
(0.0635424 -3.47818e-06 0)
(0.063542 -5.65683e-06 0)
(0.0635415 -7.85712e-06 0)
(0.0635409 -1.00546e-05 0)
(0.0635401 -1.22426e-05 0)
(0.0635392 -1.44168e-05 0)
(0.0635382 -1.65728e-05 0)
(0.0635372 -1.87124e-05 0)
(0.0635361 -2.08257e-05 0)
(0.0635351 -2.29181e-05 0)
(0.063534 -2.49747e-05 0)
(0.0635332 -2.70045e-05 0)
(0.0635324 -2.89842e-05 0)
(0.063532 -3.09316e-05 0)
(0.0635318 -3.28487e-05 0)
(0.0635425 -1.49058e-06 0)
(0.0635379 -3.50224e-06 0)
(0.0635376 -5.69588e-06 0)
(0.0635371 -7.91103e-06 0)
(0.0635364 -1.01232e-05 0)
(0.0635357 -1.23252e-05 0)
(0.0635348 -1.45134e-05 0)
(0.0635338 -1.66819e-05 0)
(0.0635328 -1.88342e-05 0)
(0.0635317 -2.09577e-05 0)
(0.0635307 -2.30614e-05 0)
(0.0635297 -2.51252e-05 0)
(0.0635288 -2.71638e-05 0)
(0.063528 -2.91477e-05 0)
(0.0635276 -3.11e-05 0)
(0.0635274 -3.30184e-05 0)
(0.063538 -1.5009e-06 0)
(0.0635334 -3.5285e-06 0)
(0.063533 -5.73856e-06 0)
(0.0635326 -7.9701e-06 0)
(0.0635319 -1.01986e-05 0)
(0.0635312 -1.24165e-05 0)
(0.0635303 -1.46203e-05 0)
(0.0635293 -1.68036e-05 0)
(0.0635283 -1.89709e-05 0)
(0.0635273 -2.11073e-05 0)
(0.0635262 -2.32253e-05 0)
(0.0635253 -2.52997e-05 0)
(0.0635244 -2.73523e-05 0)
(0.0635237 -2.93457e-05 0)
(0.0635232 -3.13117e-05 0)
(0.0635229 -3.32418e-05 0)
(0.0635335 -1.51216e-06 0)
(0.0635289 -3.55642e-06 0)
(0.0635285 -5.78395e-06 0)
(0.063528 -8.03308e-06 0)
(0.0635274 -1.02791e-05 0)
(0.0635267 -1.25143e-05 0)
(0.0635258 -1.47353e-05 0)
(0.0635249 -1.69352e-05 0)
(0.0635239 -1.91193e-05 0)
(0.0635228 -2.12708e-05 0)
(0.0635218 -2.34054e-05 0)
(0.0635208 -2.54926e-05 0)
(0.06352 -2.75619e-05 0)
(0.0635193 -2.95663e-05 0)
(0.0635188 -3.1548e-05 0)
(0.0635185 -3.34897e-05 0)
(0.063529 -1.52412e-06 0)
(0.0635243 -3.58514e-06 0)
(0.0635239 -5.8307e-06 0)
(0.0635235 -8.09806e-06 0)
(0.0635228 -1.03623e-05 0)
(0.0635221 -1.26158e-05 0)
(0.0635213 -1.48548e-05 0)
(0.0635203 -1.70726e-05 0)
(0.0635194 -1.92747e-05 0)
(0.0635184 -2.1443e-05 0)
(0.0635173 -2.35956e-05 0)
(0.0635164 -2.56969e-05 0)
(0.0635155 -2.77843e-05 0)
(0.0635148 -2.97991e-05 0)
(0.0635144 -3.17967e-05 0)
(0.0635141 -3.3748e-05 0)
(0.0635244 -1.53643e-06 0)
(0.0635196 -3.61359e-06 0)
(0.0635193 -5.87703e-06 0)
(0.0635188 -8.16259e-06 0)
(0.0635182 -1.0445e-05 0)
(0.0635175 -1.2717e-05 0)
(0.0635167 -1.49743e-05 0)
(0.0635158 -1.72106e-05 0)
(0.0635148 -1.9431e-05 0)
(0.0635139 -2.16171e-05 0)
(0.0635129 -2.37882e-05 0)
(0.0635119 -2.59044e-05 0)
(0.0635111 -2.80104e-05 0)
(0.0635104 -3.0034e-05 0)
(0.06351 -3.20482e-05 0)
(0.0635097 -3.40062e-05 0)
(0.0635198 -1.54861e-06 0)
(0.063515 -3.6404e-06 0)
(0.0635146 -5.92072e-06 0)
(0.0635142 -8.22355e-06 0)
(0.0635136 -1.05233e-05 0)
(0.0635129 -1.2813e-05 0)
(0.0635121 -1.50878e-05 0)
(0.0635112 -1.73425e-05 0)
(0.0635103 -1.95808e-05 0)
(0.0635093 -2.1785e-05 0)
(0.0635084 -2.39742e-05 0)
(0.0635075 -2.61059e-05 0)
(0.0635067 -2.82302e-05 0)
(0.063506 -3.02613e-05 0)
(0.0635056 -3.22942e-05 0)
(0.0635053 -3.42531e-05 0)
(0.0635151 -1.5601e-06 0)
(0.0635103 -3.66404e-06 0)
(0.0635099 -5.95924e-06 0)
(0.0635095 -8.2774e-06 0)
(0.0635089 -1.05924e-05 0)
(0.0635082 -1.28982e-05 0)
(0.0635074 -1.51886e-05 0)
(0.0635066 -1.74601e-05 0)
(0.0635057 -1.97146e-05 0)
(0.0635048 -2.19361e-05 0)
(0.0635038 -2.41421e-05 0)
(0.063503 -2.62897e-05 0)
(0.0635022 -2.84313e-05 0)
(0.0635016 -3.04717e-05 0)
(0.0635012 -3.25248e-05 0)
(0.063501 -3.44728e-05 0)
(0.0635104 -1.57022e-06 0)
(0.0635055 -3.68274e-06 0)
(0.0635052 -5.98969e-06 0)
(0.0635048 -8.32e-06 0)
(0.0635042 -1.0647e-05 0)
(0.0635035 -1.29657e-05 0)
(0.0635028 -1.52682e-05 0)
(0.0635019 -1.75537e-05 0)
(0.0635011 -1.98212e-05 0)
(0.0635002 -2.20579e-05 0)
(0.0634993 -2.42784e-05 0)
(0.0634985 -2.64418e-05 0)
(0.0634977 -2.86e-05 0)
(0.0634972 -3.06538e-05 0)
(0.0634968 -3.2721e-05 0)
(0.0634967 -3.46376e-05 0)
(0.0635056 -1.57822e-06 0)
(0.0635007 -3.6945e-06 0)
(0.0635004 -6.0088e-06 0)
(0.0635 -8.34682e-06 0)
(0.0634994 -1.06813e-05 0)
(0.0634988 -1.30082e-05 0)
(0.0634981 -1.53183e-05 0)
(0.0634972 -1.76136e-05 0)
(0.0634964 -1.98902e-05 0)
(0.0634955 -2.21394e-05 0)
(0.0634947 -2.43714e-05 0)
(0.0634939 -2.65482e-05 0)
(0.0634933 -2.87178e-05 0)
(0.0634928 -3.07778e-05 0)
(0.0634925 -3.28386e-05 0)
(0.0634924 -3.46996e-05 0)
(0.0635008 -1.58325e-06 0)
(0.0634959 -3.6975e-06 0)
(0.0634956 -6.01372e-06 0)
(0.0634952 -8.3541e-06 0)
(0.0634947 -1.06909e-05 0)
(0.063494 -1.30216e-05 0)
(0.0634933 -1.5335e-05 0)
(0.0634925 -1.76357e-05 0)
(0.0634917 -1.99149e-05 0)
(0.0634909 -2.21701e-05 0)
(0.0634901 -2.44032e-05 0)
(0.0634894 -2.658e-05 0)
(0.0634888 -2.87384e-05 0)
(0.0634884 -3.07764e-05 0)
(0.0634882 -3.28e-05 0)
(0.0634883 -3.45868e-05 0)
(0.063496 -1.58453e-06 0)
(0.063491 -3.69157e-06 0)
(0.0634907 -6.00406e-06 0)
(0.0634903 -8.34086e-06 0)
(0.0634898 -1.06736e-05 0)
(0.0634892 -1.30015e-05 0)
(0.0634885 -1.53102e-05 0)
(0.0634878 -1.76048e-05 0)
(0.063487 -1.98709e-05 0)
(0.0634862 -2.21105e-05 0)
(0.0634855 -2.43172e-05 0)
(0.0634849 -2.64642e-05 0)
(0.0634844 -2.85771e-05 0)
(0.0634841 -3.05626e-05 0)
(0.0634841 -3.25197e-05 0)
(0.0634844 -3.4222e-05 0)
(0.0634911 -1.58196e-06 0)
(0.0634861 -3.67415e-06 0)
(0.0634859 -5.9748e-06 0)
(0.0634855 -8.29803e-06 0)
(0.063485 -1.0614e-05 0)
(0.0634844 -1.29222e-05 0)
(0.0634838 -1.52047e-05 0)
(0.0634831 -1.74686e-05 0)
(0.0634823 -1.96937e-05 0)
(0.0634816 -2.18869e-05 0)
(0.063481 -2.40337e-05 0)
(0.0634804 -2.61185e-05 0)
(0.06348 -2.81543e-05 0)
(0.0634799 -3.00633e-05 0)
(0.0634801 -3.19317e-05 0)
(0.0634806 -3.35452e-05 0)
(0.0634862 -1.57449e-06 0)
(0.0634812 -3.63209e-06 0)
(0.063481 -5.90387e-06 0)
(0.0634806 -8.1941e-06 0)
(0.0634802 -1.04708e-05 0)
(0.0634797 -1.27336e-05 0)
(0.0634791 -1.49613e-05 0)
(0.0634784 -1.7164e-05 0)
(0.0634778 -1.93174e-05 0)
(0.0634771 -2.14335e-05 0)
(0.0634766 -2.34913e-05 0)
(0.0634761 -2.54872e-05 0)
(0.0634759 -2.74222e-05 0)
(0.0634759 -2.92386e-05 0)
(0.0634763 -3.10053e-05 0)
(0.0634771 -3.25347e-05 0)
(0.0634813 -1.55656e-06 0)
(0.0634764 -3.54858e-06 0)
(0.0634762 -5.76459e-06 0)
(0.0634759 -7.99378e-06 0)
(0.0634755 -1.02022e-05 0)
(0.063475 -1.23897e-05 0)
(0.0634745 -1.45331e-05 0)
(0.0634739 -1.66456e-05 0)
(0.0634733 -1.86993e-05 0)
(0.0634728 -2.07129e-05 0)
(0.0634724 -2.26586e-05 0)
(0.063472 -2.45462e-05 0)
(0.0634719 -2.63646e-05 0)
(0.0634721 -2.80801e-05 0)
(0.0634727 -2.97408e-05 0)
(0.0634737 -3.11962e-05 0)
(0.0634765 -1.52097e-06 0)
(0.0634718 -3.41096e-06 0)
(0.0634716 -5.53771e-06 0)
(0.0634713 -7.67289e-06 0)
(0.0634709 -9.78136e-06 0)
(0.0634705 -1.18638e-05 0)
(0.0634701 -1.38956e-05 0)
(0.0634696 -1.58925e-05 0)
(0.0634691 -1.78244e-05 0)
(0.0634687 -1.9716e-05 0)
(0.0634684 -2.15339e-05 0)
(0.0634682 -2.3301e-05 0)
(0.0634682 -2.49942e-05 0)
(0.0634686 -2.66056e-05 0)
(0.0634694 -2.81608e-05 0)
(0.0634706 -2.95531e-05 0)
(0.0634718 -1.46222e-06 0)
(0.0634673 -3.21469e-06 0)
(0.0634672 -5.2169e-06 0)
(0.0634669 -7.22461e-06 0)
(0.0634667 -9.20278e-06 0)
(0.0634663 -1.11529e-05 0)
(0.063466 -1.30498e-05 0)
(0.0634656 -1.4911e-05 0)
(0.0634652 -1.67049e-05 0)
(0.0634649 -1.84612e-05 0)
(0.0634647 -2.01417e-05 0)
(0.0634646 -2.17815e-05 0)
(0.0634648 -2.33459e-05 0)
(0.0634653 -2.48533e-05 0)
(0.0634663 -2.63054e-05 0)
(0.0634677 -2.76436e-05 0)
(0.0634674 -1.37829e-06 0)
(0.0634632 -2.96465e-06 0)
(0.0634631 -4.8105e-06 0)
(0.0634629 -6.66108e-06 0)
(0.0634627 -8.48282e-06 0)
(0.0634624 -1.02781e-05 0)
(0.0634622 -1.20217e-05 0)
(0.0634619 -1.37322e-05 0)
(0.0634616 -1.53769e-05 0)
(0.0634614 -1.69894e-05 0)
(0.0634613 -1.85272e-05 0)
(0.0634614 -2.00361e-05 0)
(0.0634617 -2.1471e-05 0)
(0.0634623 -2.28753e-05 0)
(0.0634635 -2.4227e-05 0)
(0.0634651 -2.55174e-05 0)
(0.0634632 -1.27118e-06 0)
(0.0634595 -2.6736e-06 0)
(0.0634594 -4.33895e-06 0)
(0.0634592 -6.00999e-06 0)
(0.0634591 -7.65581e-06 0)
(0.0634589 -9.27966e-06 0)
(0.0634587 -1.08566e-05 0)
(0.0634585 -1.24061e-05 0)
(0.0634584 -1.38943e-05 0)
(0.0634583 -1.53576e-05 0)
(0.0634583 -1.675e-05 0)
(0.0634584 -1.81264e-05 0)
(0.0634589 -1.94321e-05 0)
(0.0634596 -2.07341e-05 0)
(0.0634609 -2.19873e-05 0)
(0.0634626 -2.32326e-05 0)
(0.0634595 -1.14637e-06 0)
(0.0634562 -2.35927e-06 0)
(0.0634561 -3.83031e-06 0)
(0.063456 -5.30879e-06 0)
(0.0634559 -6.76724e-06 0)
(0.0634558 -8.20968e-06 0)
(0.0634557 -9.61219e-06 0)
(0.0634556 -1.09943e-05 0)
(0.0634555 -1.23217e-05 0)
(0.0634555 -1.36326e-05 0)
(0.0634556 -1.48785e-05 0)
(0.0634558 -1.61212e-05 0)
(0.0634563 -1.72987e-05 0)
(0.0634572 -1.84979e-05 0)
(0.0634585 -1.96532e-05 0)
(0.0634603 -2.0853e-05 0)
(0.0634562 -1.01148e-06 0)
(0.0634533 -2.041e-06 0)
(0.0634533 -3.31513e-06 0)
(0.0634532 -4.5982e-06 0)
(0.0634532 -5.8664e-06 0)
(0.0634531 -7.12446e-06 0)
(0.063453 -8.34996e-06 0)
(0.063453 -9.56223e-06 0)
(0.063453 -1.07275e-05 0)
(0.063453 -1.18847e-05 0)
(0.0634532 -1.2984e-05 0)
(0.0634536 -1.40923e-05 0)
(0.0634541 -1.5142e-05 0)
(0.0634551 -1.62369e-05 0)
(0.0634564 -1.72937e-05 0)
(0.0634583 -1.8444e-05 0)
(0.0634533 -8.74883e-07 0)
(0.0634509 -1.73659e-06 0)
(0.0634509 -2.82166e-06 0)
(0.0634509 -3.91598e-06 0)
(0.0634508 -4.99933e-06 0)
(0.0634508 -6.07691e-06 0)
(0.0634508 -7.1283e-06 0)
(0.0634508 -8.17256e-06 0)
(0.0634508 -9.17731e-06 0)
(0.063451 -1.01815e-05 0)
(0.0634512 -1.11352e-05 0)
(0.0634516 -1.21089e-05 0)
(0.0634522 -1.30314e-05 0)
(0.0634532 -1.40197e-05 0)
(0.0634546 -1.49762e-05 0)
(0.0634564 -1.60704e-05 0)
(0.0634509 -7.44283e-07 0)
(0.063449 -1.45975e-06 0)
(0.0634489 -2.37186e-06 0)
(0.0634489 -3.29201e-06 0)
(0.0634489 -4.20311e-06 0)
(0.0634489 -5.11056e-06 0)
(0.0634489 -5.99617e-06 0)
(0.063449 -6.87873e-06 0)
(0.0634491 -7.72794e-06 0)
(0.0634492 -8.58234e-06 0)
(0.0634495 -9.39354e-06 0)
(0.06345 -1.02334e-05 0)
(0.0634506 -1.10299e-05 0)
(0.0634516 -1.19088e-05 0)
(0.0634529 -1.27629e-05 0)
(0.0634547 -1.37924e-05 0)
(0.063449 -6.25576e-07 0)
(0.0634474 -1.21851e-06 0)
(0.0634474 -1.97901e-06 0)
(0.0634473 -2.74506e-06 0)
(0.0634474 -3.50212e-06 0)
(0.0634474 -4.25536e-06 0)
(0.0634474 -4.98882e-06 0)
(0.0634475 -5.72077e-06 0)
(0.0634476 -6.42351e-06 0)
(0.0634478 -7.13474e-06 0)
(0.0634482 -7.80879e-06 0)
(0.0634486 -8.51758e-06 0)
(0.0634493 -9.19054e-06 0)
(0.0634502 -9.9577e-06 0)
(0.0634515 -1.07079e-05 0)
(0.0634532 -1.16627e-05 0)
(0.0634474 -5.22205e-07 0)