/*--------------------------------*- C++ -*----------------------------------*\
| =========                 |                                                 |
| \\      /  F ield         | OpenFOAM: The Open Source CFD Toolbox           |
|  \\    /   O peration     | Version:  4.1                                   |
|   \\  /    A nd           | Web:      www.OpenFOAM.org                      |
|    \\/     M anipulation  |                                                 |
\*---------------------------------------------------------------------------*/
FoamFile
{
    version     2.0;
    format      ascii;
    class       volVectorField;
    location    "0.000840";
    object      cellDisplacement;
}
// * * * * * * * * * * * * * * * * * * * * * * * * * * * * * * * * * * * * * //

dimensions      [0 1 0 0 0 0 0];

internalField   nonuniform List<vector> 
3072
(
(0 0.00011330011 1.0548415e-07)
(0 0.00021063664 2.3547244e-07)
(0 0.00025196378 3.1151216e-07)
(0 0.00026529935 3.5375047e-07)
(0 0.00026397372 3.7536673e-07)
(0 0.00025398037 3.8856108e-07)
(0 0.00023795265 3.8638213e-07)
(0 0.00021726281 3.7330943e-07)
(0 0.00019267621 3.5626907e-07)
(0 0.00016480713 3.431475e-07)
(0 0.00013414259 3.3913848e-07)
(0 0.00010135704 3.1035861e-07)
(0 6.6797926e-05 2.2976358e-07)
(0 3.1045534e-05 1.4173073e-07)
(0 -5.5219583e-06 6.1228648e-08)
(0 -4.1940772e-05 4.5061093e-09)
(0 -7.7549203e-05 -5.6561336e-08)
(0 -0.00011148464 -4.4461429e-08)
(0 -0.00014350992 -2.4391224e-08)
(0 -0.00017285761 1.017836e-08)
(0 -0.0001990805 4.0627548e-08)
(0 -0.00022186074 5.3450346e-08)
(0 -0.00024090783 6.1342699e-08)
(0 -0.00025611973 4.5600038e-08)
(0 9.2869172e-05 1.1474956e-05)
(0 0.00018139188 2.5455281e-05)
(0 0.00022007419 3.3130425e-05)
(0 0.00023311659 3.6869254e-05)
(0 0.00023261744 3.8268759e-05)
(0 0.00022417003 3.8217709e-05)
(0 0.00021023346 3.7149128e-05)
(0 0.00019212402 3.5296889e-05)
(0 0.00017055148 3.2785047e-05)
(0 0.00014605946 2.9694245e-05)
(0 0.00011914438 2.6111511e-05)
(0 9.0413978e-05 2.2025194e-05)
(0 6.0152116e-05 1.7502632e-05)
(0 2.8633685e-05 1.2616438e-05)
(0 -3.6577721e-06 7.4721062e-06)
(0 -3.5807146e-05 2.1535652e-06)
(0 -6.710528e-05 -3.2642937e-06)
(0 -9.6868813e-05 -8.6098258e-06)
(0 -0.00012481644 -1.3852592e-05)
(0 -0.00015031386 -1.8881143e-05)
(0 -0.00017302716 -2.3648469e-05)
(0 -0.0001927221 -2.8067133e-05)
(0 -0.00020923295 -3.2065076e-05)
(0 -0.00022236566 -3.554595e-05)
(0 7.53118e-05 2.1607049e-05)
(0 0.00015181921 4.9975082e-05)
(0 0.00018585362 6.5942124e-05)
(0 0.00019760103 7.3789815e-05)
(0 0.00019752087 7.6743999e-05)
(0 0.00019051383 7.667548e-05)
(0 0.00017874055 7.4531815e-05)
(0 0.00016341236 7.0798059e-05)
(0 0.00014513457 6.5723458e-05)
(0 0.00012441172 5.9468295e-05)
(0 0.00010172275 5.2176756e-05)
(0 7.7569565e-05 4.392066e-05)
(0 5.200416e-05 3.4845819e-05)
(0 2.5314756e-05 2.5010166e-05)
(0 -2.1108268e-06 1.4648293e-05)
(0 -2.9437078e-05 3.9079032e-06)
(0 -5.5910004e-05 -6.9822113e-06)
(0 -8.1046012e-05 -1.7793392e-05)
(0 -0.00010442158 -2.8381388e-05)
(0 -0.00012587545 -3.8566117e-05)
(0 -0.00014480294 -4.816131e-05)
(0 -0.00016120555 -5.7020965e-05)
(0 -0.0001751797 -6.4962858e-05)
(0 -0.00018617982 -7.1792414e-05)
(0 5.9515896e-05 3.1220755e-05)
(0 0.00012220204 7.4393985e-05)
(0 0.00015033479 9.8970475e-05)
(0 0.00016016039 0.00011106912)
(0 0.00016027052 0.0001156353)
(0 0.00015467424 0.00011557267)
(0 0.00014518126 0.00011233599)
(0 0.00013279673 0.00010670824)
(0 0.00011802164 9.9040154e-05)
(0 0.00010130364 8.9584858e-05)
(0 8.3091534e-05 7.8498559e-05)
(0 6.3687707e-05 6.5975657e-05)
(0 4.3167702e-05 5.2245717e-05)
(0 2.1674282e-05 3.7427982e-05)
(0 -4.4074577e-07 2.1773136e-05)
(0 -2.2534475e-05 5.5588231e-06)
(0 -4.421469e-05 -1.0985491e-05)
(0 -6.4189282e-05 -2.7207279e-05)
(0 -8.2748801e-05 -4.3176142e-05)
(0 -9.9736462e-05 -5.8499109e-05)
(0 -0.00011484346 -7.2865778e-05)
(0 -0.00012792756 -8.6086157e-05)
(0 -0.00013921321 -9.7834959e-05)
(0 -0.00014827946 -0.0001079365)
(0 4.471354e-05 4.0854323e-05)
(0 9.2413944e-05 9.9182116e-05)
(0 0.00011378622 0.00013231626)
(0 0.00012128303 0.00014852839)
(0 0.00012144919 0.00015461412)
(0 0.00011728411 0.00015449773)
(0 0.00011013993 0.00015014116)
(0 0.00010081421 0.00014258939)
(0 8.9700813e-05 0.00013231189)
(0 7.7150305e-05 0.00011963431)
(0 6.3547381e-05 0.00010478688)
(0 4.9053875e-05 8.7990737e-05)
(0 3.3700141e-05 6.9598966e-05)
(0 1.768288e-05 4.9759485e-05)
(0 1.1030742e-06 2.8807188e-05)
(0 -1.5575573e-05 7.1271862e-06)
(0 -3.1754736e-05 -1.4858288e-05)
(0 -4.6618257e-05 -3.6516326e-05)
(0 -6.0245193e-05 -5.7750269e-05)
(0 -7.2896568e-05 -7.8080217e-05)
(0 -8.4193407e-05 -9.7076137e-05)
(0 -9.4011852e-05 -0.0001144644)
(0 -0.00010258851 -0.00012990127)
(0 -0.00010962238 -0.0001431592)
(0 3.0231251e-05 5.1067862e-05)
(0 6.2228934e-05 0.00012477597)
(0 7.6429667e-05 0.0001659775)
(0 8.1419707e-05 0.0001858599)
(0 8.1556547e-05 0.00019320597)
(0 7.8795768e-05 0.00019291109)
(0 7.4036091e-05 0.00018738582)
(0 6.7836356e-05 0.00017788342)
(0 6.0459581e-05 0.00016499693)
(0 5.2117094e-05 0.00014911725)
(0 4.3144816e-05 0.00013054997)
(0 3.3598679e-05 0.00010954728)
(0 2.355911e-05 8.6531265e-05)
(0 1.3010289e-05 6.1792825e-05)
(0 2.0608753e-06 3.570405e-05)
(0 -9.0037776e-06 8.7748712e-06)
(0 -1.9624553e-05 -1.8459318e-05)
(0 -2.934498e-05 -4.5375053e-05)
(0 -3.8153098e-05 -7.1629489e-05)
(0 -4.6538271e-05 -9.6768597e-05)
(0 -5.3999415e-05 -0.00012019945)
(0 -6.0479809e-05 -0.0001415775)
(0 -6.6293278e-05 -0.00016054009)
(0 -7.1256072e-05 -0.0001767999)
(0 1.5471987e-05 6.2521554e-05)
(0 3.14091e-05 0.00015147351)
(0 3.8403179e-05 0.00019972868)
(0 4.0873515e-05 0.00022252569)
(0 4.0963452e-05 0.00023072933)
(0 3.9611446e-05 0.00023007653)
(0 3.7248216e-05 0.0002233327)
(0 3.4181202e-05 0.00021187086)
(0 3.0544283e-05 0.00019639532)
(0 2.6439557e-05 0.00017736783)
(0 2.2007359e-05 0.000155162)
(0 1.7401755e-05 0.00013011521)
(0 1.2583895e-05 0.00010267482)
(0 7.5129684e-06 7.3253569e-05)
(0 2.1190586e-06 4.2320397e-05)
(0 -3.3305801e-06 1.0460325e-05)
(0 -8.557205e-06 -2.1738912e-05)
(0 -1.32073e-05 -5.3494925e-05)
(0 -1.7246209e-05 -8.4465422e-05)
(0 -2.1117959e-05 -0.00011406014)
(0 -2.4737926e-05 -0.00014166608)
(0 -2.802987e-05 -0.00016683857)
(0 -3.1111558e-05 -0.00018913954)
(0 -3.3866363e-05 -0.00020823551)
(0 6.7077824e-08 7.6350179e-05)
(0 1.7227327e-07 0.00017982148)
(0 2.1014973e-07 0.00023349302)
(0 1.5182218e-07 0.00025817488)
(0 2.8347986e-08 0.00026673349)
(0 -1.3661715e-07 0.00026550927)
(0 -3.1414939e-07 0.00025746836)
(0 -4.6227111e-07 0.00024405026)
(0 -5.5489254e-07 0.00022602784)
(0 -6.048947e-07 0.00020392871)
(0 -5.671119e-07 0.00017820101)
(0 -3.8676807e-07 0.00014926794)
(0 -1.5718369e-07 0.00011764506)
(0 6.9883927e-09 8.3835336e-05)
(0 1.9475667e-08 4.8423861e-05)
(0 -3.9948985e-08 1.2054529e-05)
(0 1.6226628e-08 -2.4587053e-05)
(0 3.4114913e-07 -6.0779063e-05)
(0 9.0639674e-07 -9.597572e-05)
(0 1.3614268e-06 -0.00012955926)
(0 1.62182e-06 -0.00016086543)
(0 1.7111701e-06 -0.00018937925)
(0 1.5723664e-06 -0.00021461099)
(0 1.2628215e-06 -0.0002361733)
(0 9.2799202e-05 -1.131667e-05)
(0 0.00018123065 -2.5099963e-05)
(0 0.0002198668 -3.2650298e-05)
(0 0.00023290053 -3.6315309e-05)
(0 0.00023242097 -3.7665016e-05)
(0 0.00022399655 -3.7571371e-05)
(0 0.00021011918 -3.6491094e-05)
(0 0.00019205849 -3.4644487e-05)
(0 0.00017052252 -3.2139844e-05)
(0 0.0001460469 -2.9042685e-05)
(0 0.00011907497 -2.5402081e-05)
(0 9.0198002e-05 -2.1381933e-05)
(0 5.9898921e-05 -1.7012985e-05)
(0 2.8372619e-05 -1.2335742e-05)
(0 -3.9370965e-06 -7.3834787e-06)
(0 -3.6145073e-05 -2.2297447e-06)
(0 -6.7320323e-05 3.0746988e-06)
(0 -9.7193279e-05 8.4434052e-06)
(0 -0.00012516252 1.3752151e-05)
(0 -0.00015077333 1.8872814e-05)
(0 -0.0001735065 2.3706936e-05)
(0 -0.00019319895 2.8144626e-05)
(0 -0.00020968948 3.2150884e-05)
(0 -0.0002226185 3.5619846e-05)
(0 7.4117799e-05 1.3477961e-07)
(0 0.00015208049 2.9670361e-07)
(0 0.00018732445 3.9325349e-07)
(0 0.00019969356 4.5085219e-07)
(0 0.00019983339 4.865305e-07)
(0 0.00019283816 5.0628798e-07)
(0 0.00018097969 5.1304819e-07)
(0 0.00016548478 4.9968561e-07)
(0 0.00014697723 4.8246359e-07)
(0 0.00012596061 4.7556695e-07)
(0 0.00010285868 4.8615404e-07)
(0 7.8178738e-05 4.209035e-07)
(0 5.2308891e-05 3.0110002e-07)
(0 2.5329845e-05 1.7070157e-07)
(0 -2.457188e-06 3.785742e-08)
(0 -3.0079163e-05 -7.6630641e-08)
(0 -5.6825194e-05 -1.6956551e-07)
(0 -8.2120738e-05 -1.4331824e-07)
(0 -0.00010580984 -8.9439159e-08)
(0 -0.00012741192 -4.8156776e-08)
(0 -0.00014640896 -9.7804255e-09)
(0 -0.00016281357 -7.6389317e-11)
(0 -0.00017665388 -1.2870015e-09)
(0 -0.00018748016 -8.4174366e-09)
(0 5.7973395e-05 1.006092e-05)
(0 0.00012267642 2.452571e-05)
(0 0.00015253915 3.298498e-05)
(0 0.00016322641 3.723237e-05)
(0 0.00016360498 3.8881127e-05)
(0 0.00015796887 3.8936873e-05)
(0 0.00014826284 3.7903365e-05)
(0 0.00013559209 3.6052991e-05)
(0 0.00012044708 3.3515775e-05)
(0 0.00010329128 3.0380363e-05)
(0 8.4496222e-05 2.6707377e-05)
(0 6.4512309e-05 2.2483538e-05)
(0 4.3572707e-05 1.7875874e-05)
(0 2.1647985e-05 1.2808991e-05)
(0 -1.1255644e-06 7.4235741e-06)
(0 -2.3797506e-05 1.8218438e-06)
(0 -4.5787234e-05 -3.8936367e-06)
(0 -6.614971e-05 -9.447423e-06)
(0 -8.5141694e-05 -1.4967645e-05)
(0 -0.00010239392 -2.0250219e-05)
(0 -0.0001175314 -2.5279576e-05)
(0 -0.00013058419 -2.9944656e-05)
(0 -0.00014177426 -3.4152886e-05)
(0 -0.00015063883 -3.7801785e-05)
(0 4.3275534e-05 1.9337253e-05)
(0 9.3124696e-05 4.8441483e-05)
(0 0.00011634002 6.5680944e-05)
(0 0.00012470415 7.4360019e-05)
(0 0.00012507967 7.7738561e-05)
(0 0.00012077477 7.7865531e-05)
(0 0.00011331651 7.5800115e-05)
(0 0.00010363525 7.2130186e-05)
(0 9.2043928e-05 6.7040191e-05)
(0 7.897226e-05 6.0725565e-05)
(0 6.4857732e-05 5.3287775e-05)
(0 4.9819398e-05 4.4846904e-05)
(0 3.4014783e-05 3.5601851e-05)
(0 1.7385579e-05 2.550047e-05)
(0 4.7508953e-08 1.4759297e-05)
(0 -1.7326706e-05 3.5681071e-06)
(0 -3.4046874e-05 -7.8584111e-06)
(0 -4.9353162e-05 -1.9069634e-05)
(0 -6.3255556e-05 -3.0170437e-05)
(0 -7.6207616e-05 -4.0859109e-05)
(0 -8.7435266e-05 -5.089207e-05)
(0 -9.7066292e-05 -6.0167769e-05)
(0 -0.00010546902 -6.841652e-05)
(0 -0.00011228072 -7.5487171e-05)
(0 2.9149038e-05 2.8547823e-05)
(0 6.3043464e-05 7.2612523e-05)
(0 7.8802819e-05 9.86903e-05)
(0 8.4444366e-05 0.00011175978)
(0 8.4664314e-05 0.0001168255)
(0 8.1660905e-05 0.00011699308)
(0 7.6539459e-05 0.00011386548)
(0 6.9892076e-05 0.00010830272)
(0 6.2028905e-05 0.00010063374)
(0 5.3224569e-05 9.1123483e-05)
(0 4.3828185e-05 7.991799e-05)
(0 3.3875617e-05 6.7233527e-05)
(0 2.3456108e-05 5.3303282e-05)
(0 1.2525267e-05 3.8145693e-05)
(0 9.2608946e-07 2.2034498e-05)
(0 -1.0800806e-05 5.2844796e-06)
(0 -2.2130885e-05 -1.1786189e-05)
(0 -3.2032906e-05 -2.8603328e-05)
(0 -4.088718e-05 -4.5111759e-05)
(0 -4.9425919e-05 -6.1035245e-05)
(0 -5.6799712e-05 -7.5882627e-05)
(0 -6.3082169e-05 -8.9546861e-05)
(0 -6.8731469e-05 -0.00010164549)
(0 -7.3541725e-05 -0.00011202175)
(0 1.4910814e-05 3.8236234e-05)
(0 3.2090893e-05 9.7494706e-05)
(0 3.9971922e-05 0.00013205489)
(0 4.2717703e-05 0.00014915619)
(0 4.271825e-05 0.00015569403)
(0 4.1080713e-05 0.0001557904)
(0 3.8356402e-05 0.0001515426)
(0 3.4891346e-05 0.00014404694)
(0 3.0883623e-05 0.00013378904)
(0 2.642999e-05 0.00012107645)
(0 2.1787233e-05 0.00010614599)
(0 1.6992062e-05 8.920647e-05)
(0 1.2072592e-05 7.0602185e-05)
(0 6.7874051e-06 5.0479769e-05)
(0 1.0201074e-06 2.9138204e-05)
(0 -4.9281277e-06 7.0133864e-06)
(0 -1.0521634e-05 -1.5466728e-05)
(0 -1.5130022e-05 -3.7635262e-05)
(0 -1.9063878e-05 -5.9357922e-05)
(0 -2.307386e-05 -8.0219213e-05)
(0 -2.6575262e-05 -9.9693603e-05)
(0 -2.9590117e-05 -0.00011740697)
(0 -3.2528396e-05 -0.00013313952)
(0 -3.5236824e-05 -0.0001466553)
(0 8.588402e-08 4.9079946e-05)
(0 2.4207679e-07 0.00012340497)
(0 2.8377015e-07 0.00016552532)
(0 1.7268956e-07 0.00018595596)
(0 -2.9648561e-08 0.0001935765)
(0 -3.0228213e-07 0.00019341235)
(0 -5.828687e-07 0.00018797166)
(0 -8.1787807e-07 0.00017851478)
(0 -9.5438596e-07 0.00016565549)
(0 -9.969021e-07 0.00014978327)
(0 -8.620475e-07 0.00013122405)
(0 -5.1819546e-07 0.00011017954)
(0 -7.5012819e-08 8.7070763e-05)
(0 2.3558595e-07 6.2171619e-05)
(0 2.0691585e-07 3.590017e-05)
(0 -2.2238716e-08 8.7288866e-06)
(0 -6.9514742e-08 -1.8768079e-05)
(0 4.7792094e-07 -4.5939499e-05)
(0 1.2653136e-06 -7.2491801e-05)
(0 1.7070529e-06 -9.7976049e-05)
(0 2.0699906e-06 -0.00012174132)
(0 2.2519684e-06 -0.00014337211)
(0 2.0916988e-06 -0.00016256227)
(0 1.6351747e-06 -0.00017902133)
(0 -1.532204e-05 6.2522338e-05)
(0 -3.1010176e-05 0.00015148197)
(0 -3.7927628e-05 0.0001997379)
(0 -4.0563248e-05 0.00022252796)
(0 -4.0971346e-05 0.00023072266)
(0 -4.0045074e-05 0.00023005661)
(0 -3.8135084e-05 0.00022330699)
(0 -3.544209e-05 0.00021183586)
(0 -3.2034907e-05 0.00019635148)
(0 -2.8013234e-05 0.00017731595)
(0 -2.3422248e-05 0.00015511342)
(0 -1.830121e-05 0.00013006669)
(0 -1.2851338e-05 0.00010262032)
(0 -7.3158864e-06 7.3193636e-05)
(0 -1.9322647e-06 4.2274885e-05)
(0 3.3048417e-06 1.0435414e-05)
(0 8.5392883e-06 -2.1709773e-05)
(0 1.3999596e-05 -5.3487159e-05)
(0 1.9474098e-05 -8.4449828e-05)
(0 2.4295369e-05 -0.00011406239)
(0 2.8552303e-05 -0.00014167148)
(0 3.2138111e-05 -0.00016681339)
(0 3.4918104e-05 -0.00018908075)
(0 3.6928763e-05 -0.00020813098)
(0 7.5166301e-05 -2.1608611e-05)
(0 0.00015157431 -4.9955028e-05)
(0 0.00018559505 -6.5888214e-05)
(0 0.00019734095 -7.3702043e-05)
(0 0.00019728226 -7.6620223e-05)
(0 0.0001903094 -7.6505617e-05)
(0 0.0001786528 -7.4310875e-05)
(0 0.00016340194 -7.0536518e-05)
(0 0.00014516811 -6.5412015e-05)
(0 0.0001244116 -5.9081286e-05)
(0 0.00010146805 -5.1689156e-05)
(0 7.687301e-05 -4.3453738e-05)
(0 5.1199901e-05 -3.4476307e-05)
(0 2.4636619e-05 -2.4803359e-05)
(0 -2.861625e-06 -1.4643128e-05)
(0 -3.0205919e-05 -4.0903849e-06)
(0 -5.6809697e-05 6.6773063e-06)
(0 -8.192062e-05 1.7543324e-05)
(0 -0.00010547547 2.8202982e-05)
(0 -0.00012701564 3.8454193e-05)
(0 -0.00014599615 4.8121625e-05)
(0 -0.00016238666 5.6991321e-05)
(0 -0.00017611008 6.4930625e-05)
(0 -0.00018690033 7.1744131e-05)
(0 5.7933374e-05 -9.9516643e-06)
(0 0.00012258601 -2.4252786e-05)
(0 0.00015242789 -3.2595282e-05)
(0 0.00016310072 -3.6766276e-05)
(0 0.0001634842 -3.8356678e-05)
(0 0.00015787216 -3.8356802e-05)
(0 0.00014823108 -3.7281294e-05)
(0 0.00013560091 -3.5416506e-05)
(0 0.0001204764 -3.2859403e-05)
(0 0.00010327005 -2.9684241e-05)
(0 8.4304364e-05 -2.5952737e-05)
(0 6.4049504e-05 -2.1850294e-05)
(0 4.3039745e-05 -1.7396196e-05)
(0 2.1113123e-05 -1.2541094e-05)
(0 -1.7505767e-06 -7.4357306e-06)
(0 -2.4454469e-05 -2.1066779e-06)
(0 -4.632406e-05 3.3909462e-06)
(0 -6.6794051e-05 9.0734904e-06)
(0 -8.5928185e-05 1.4678176e-05)
(0 -0.00010329857 2.0075523e-05)
(0 -0.00011845206 2.5181697e-05)
(0 -0.00013145837 2.9864404e-05)
(0 -0.00014247832 3.4068116e-05)
(0 -0.00015113151 3.7670279e-05)
(0 4.274977e-05 7.4862839e-08)
(0 9.3107615e-05 1.8785487e-07)
(0 0.00011682851 2.6424931e-07)
(0 0.00012543809 3.1240478e-07)
(0 0.0001258879 3.5013817e-07)
(0 0.00012156532 3.7538913e-07)
(0 0.00011410284 3.9774674e-07)
(0 0.00010439735 3.8536467e-07)
(0 9.2713856e-05 3.8824611e-07)
(0 7.9470342e-05 3.9480278e-07)
(0 6.5033125e-05 4.0306032e-07)
(0 4.9672047e-05 3.1926082e-07)
(0 3.3719607e-05 2.6122457e-07)
(0 1.689119e-05 1.3734225e-07)
(0 -7.9408027e-07 -3.8597969e-08)
(0 -1.8410629e-05 -2.0839618e-07)
(0 -3.5181693e-05 -3.2672376e-07)
(0 -5.0828029e-05 -2.5794101e-07)
(0 -6.509305e-05 -1.9940571e-07)
(0 -7.8318713e-05 -1.8398123e-07)
(0 -8.954211e-05 -1.516551e-07)
(0 -9.9108868e-05 -1.2553701e-07)
(0 -0.00010731862 -1.187774e-07)
(0 -0.00011392416 -1.2477484e-07)
(0 2.8621235e-05 9.2670712e-06)
(0 6.3259058e-05 2.4009662e-05)
(0 7.9715921e-05 3.2988133e-05)
(0 8.567557e-05 3.7583819e-05)
(0 8.5961886e-05 3.9407311e-05)
(0 8.2915049e-05 3.9538129e-05)
(0 7.7713225e-05 3.8548933e-05)
(0 7.1065719e-05 3.6787236e-05)
(0 6.3026401e-05 3.4233195e-05)
(0 5.4000059e-05 3.1041136e-05)
(0 4.4273164e-05 2.7252689e-05)
(0 3.4026174e-05 2.2933388e-05)
(0 2.3377658e-05 1.8261956e-05)
(0 1.2224268e-05 1.3065881e-05)
(0 1.6763265e-07 7.472631e-06)
(0 -1.1962856e-05 1.6359013e-06)
(0 -2.3653238e-05 -4.3284192e-06)
(0 -3.3957849e-05 -1.0103248e-05)
(0 -4.3119618e-05 -1.5865776e-05)
(0 -5.1836766e-05 -2.1434473e-05)
(0 -5.9166492e-05 -2.665472e-05)
(0 -6.5367178e-05 -3.1490687e-05)
(0 -7.0830829e-05 -3.5745001e-05)
(0 -7.5454555e-05 -3.9417217e-05)
(0 1.4623693e-05 1.8292918e-05)
(0 3.2459929e-05 4.7854258e-05)
(0 4.0897885e-05 6.5844208e-05)
(0 4.3853151e-05 7.501452e-05)
(0 4.3854321e-05 7.8638164e-05)
(0 4.2104665e-05 7.8876611e-05)
(0 3.927131e-05 7.6856749e-05)
(0 3.5656011e-05 7.3231024e-05)
(0 3.1495329e-05 6.810019e-05)
(0 2.6884301e-05 6.1716656e-05)
(0 2.2116952e-05 5.4151325e-05)
(0 1.7209244e-05 4.5620974e-05)
(0 1.2228376e-05 3.623533e-05)
(0 6.7892024e-06 2.5939386e-05)
(0 6.422109e-07 1.4929232e-05)
(0 -5.7425125e-06 3.4372455e-06)
(0 -1.1709667e-05 -8.3247235e-06)
(0 -1.6548097e-05 -1.9871651e-05)
(0 -2.0711046e-05 -3.1255107e-05)
(0 -2.4919798e-05 -4.2235998e-05)
(0 -2.8381485e-05 -5.2455147e-05)
(0 -3.1246302e-05 -6.1945923e-05)
(0 -3.401161e-05 -7.0245349e-05)
(0 -3.6585466e-05 -7.7371701e-05)
(0 1.0212143e-07 2.771191e-05)
(0 3.0806853e-07 7.219516e-05)
(0 3.5746575e-07 9.8878858e-05)
(0 1.8284951e-07 0.00011232672)
(0 -1.0836883e-07 0.00011758223)
(0 -4.9452327e-07 0.0001178261)
(0 -8.4238744e-07 0.000114731)
(0 -1.1547761e-06 0.00010917397)
(0 -1.3282727e-06 0.00010147004)
(0 -1.3556156e-06 9.1898877e-05)
(0 -1.1124789e-06 8.0612881e-05)
(0 -6.1719594e-07 6.7855078e-05)
(0 8.1530979e-08 5.3807957e-05)
(0 6.0425944e-07 3.8485775e-05)
(0 4.8905558e-07 2.2184817e-05)
(0 3.3897614e-08 5.2266878e-06)
(0 -2.0399237e-07 -1.2025089e-05)
(0 3.7493142e-07 -2.9108562e-05)
(0 1.1670635e-06 -4.5828081e-05)
(0 1.3228876e-06 -6.1969265e-05)
(0 1.7527821e-06 -7.6992833e-05)
(0 2.1044041e-06 -9.0746928e-05)
(0 2.1341561e-06 -0.00010278264)
(0 1.7223529e-06 -0.00011316743)
(0 -1.47251e-05 3.8237338e-05)
(0 -3.1544519e-05 9.7502414e-05)
(0 -3.9339429e-05 0.00013206102)
(0 -4.2372253e-05 0.00014915346)
(0 -4.2873717e-05 0.00015568036)
(0 -4.1887171e-05 0.00015576229)
(0 -3.9807432e-05 0.00015151373)
(0 -3.6893475e-05 0.00014401019)
(0 -3.3199266e-05 0.00013374305)
(0 -2.8801185e-05 0.00012102149)
(0 -2.3754353e-05 0.00010610538)
(0 -1.8104325e-05 8.9175033e-05)
(0 -1.2025992e-05 7.0565865e-05)
(0 -5.9711986e-06 5.0445379e-05)
(0 -3.3311266e-07 2.9129128e-05)
(0 4.9765843e-06 7.0396613e-06)
(0 1.0307001e-05 -1.5395941e-05)
(0 1.6010657e-05 -3.762029e-05)
(0 2.1731808e-05 -5.9353074e-05)
(0 2.6471728e-05 -8.0281482e-05)
(0 3.0787268e-05 -9.9783879e-05)
(0 3.4348728e-05 -0.00011748532)
(0 3.708171e-05 -0.00013315263)
(0 3.8908272e-05 -0.00014661896)
(0 -3.0067932e-05 5.1069461e-05)
(0 -6.1775396e-05 0.00012478647)
(0 -7.5906212e-05 0.00016598861)
(0 -8.1114211e-05 0.00018585845)
(0 -8.1643275e-05 0.00019318879)
(0 -7.9394685e-05 0.00019287226)
(0 -7.5154778e-05 0.00018734018)
(0 -6.9394053e-05 0.0001778237)
(0 -6.2270792e-05 0.00016492226)
(0 -5.3983839e-05 0.00014902798)
(0 -4.4675574e-05 0.00013046468)
(0 -3.4446746e-05 0.0001094685)
(0 -2.3588427e-05 8.6454314e-05)
(0 -1.2500124e-05 6.1718985e-05)
(0 -1.5825027e-06 3.5663076e-05)
(0 9.0838528e-06 8.780489e-06)
(0 1.9667261e-05 -1.8412731e-05)
(0 3.0252619e-05 -4.5344757e-05)
(0 4.0434279e-05 -7.1632946e-05)
(0 4.9565024e-05 -9.6798027e-05)
(0 5.7728404e-05 -0.00012025752)
(0 6.4708396e-05 -0.00014160864)
(0 7.0318618e-05 -0.00016050921)
(0 7.4562211e-05 -0.00017669341)
(0 5.9442567e-05 -3.120935e-05)
(0 0.00012206952 -7.435577e-05)
(0 0.00015018194 -9.8903393e-05)
(0 0.00015998887 -0.00011097773)
(0 0.00016011708 -0.00011551223)
(0 0.00015456311 -0.00011539858)
(0 0.00014519904 -0.00011211166)
(0 0.00013288848 -0.00010643487)
(0 0.00011813344 -9.8716041e-05)
(0 0.00010127445 -8.9202794e-05)
(0 8.2679994e-05 -7.8048137e-05)
(0 6.2720171e-05 -6.558003e-05)
(0 4.2016674e-05 -5.1937885e-05)
(0 2.048854e-05 -3.7266174e-05)
(0 -1.841906e-06 -2.1832272e-05)
(0 -2.4064922e-05 -5.8360395e-06)
(0 -4.5387932e-05 1.0515076e-05)
(0 -6.5623842e-05 2.6869351e-05)
(0 -8.4470801e-05 4.2892642e-05)
(0 -0.00010172792 5.829982e-05)
(0 -0.00011686252 7.2738077e-05)
(0 -0.00012984672 8.5952305e-05)
(0 -0.00014073975 9.7712187e-05)
(0 -0.00014937506 0.00010777716)
(0 4.3207526e-05 -1.9303299e-05)
(0 9.3000207e-05 -4.8344704e-05)
(0 0.00011618753 -6.5529657e-05)
(0 0.0001245257 -7.4169395e-05)
(0 0.00012490194 -7.750323e-05)
(0 0.00012061957 -7.7577064e-05)
(0 0.00011329078 -7.5447592e-05)
(0 0.00010365622 -7.1715208e-05)
(0 9.2084173e-05 -6.6574838e-05)
(0 7.8890289e-05 -6.0208554e-05)
(0 6.4376749e-05 -5.2719834e-05)
(0 4.8875571e-05 -4.43808e-05)
(0 3.2905211e-05 -3.5253093e-05)
(0 1.6196525e-05 -2.5327892e-05)
(0 -1.3302981e-06 -1.4875323e-05)
(0 -1.8706818e-05 -3.9815999e-06)
(0 -3.5223025e-05 7.2315655e-06)
(0 -5.0743176e-05 1.8597654e-05)
(0 -6.5020361e-05 2.9771782e-05)
(0 -7.8125095e-05 4.0508128e-05)
(0 -8.9348371e-05 5.0614747e-05)
(0 -9.8837299e-05 5.9899394e-05)
(0 -0.00010683113 6.8165957e-05)
(0 -0.00011330543 7.5215219e-05)
(0 2.861378e-05 -9.180363e-06)
(0 6.3240332e-05 -2.3772895e-05)
(0 7.9677412e-05 -3.264491e-05)
(0 8.5615681e-05 -3.7171259e-05)
(0 8.5898142e-05 -3.8935931e-05)
(0 8.2883381e-05 -3.9018599e-05)
(0 7.7737875e-05 -3.7960699e-05)
(0 7.1124099e-05 -3.617525e-05)
(0 6.3082718e-05 -3.359592e-05)
(0 5.3963886e-05 -3.0388516e-05)
(0 4.400336e-05 -2.6634598e-05)
(0 3.3506125e-05 -2.2464541e-05)
(0 2.2692837e-05 -1.7871967e-05)
(0 1.1445162e-05 -1.287123e-05)
(0 -7.2681544e-07 -7.6264261e-06)
(0 -1.2855124e-05 -2.1420432e-06)
(0 -2.4386009e-05 3.5695813e-06)
(0 -3.4830492e-05 9.5082022e-06)
(0 -4.4276836e-05 1.5339595e-05)
(0 -5.2934973e-05 2.0925072e-05)
(0 -6.0242149e-05 2.6184808e-05)
(0 -6.6299286e-05 3.1121633e-05)
(0 -7.1571449e-05 3.5407869e-05)
(0 -7.5992246e-05 3.9076187e-05)
(0 1.4536895e-05 6.4865514e-08)
(0 3.2597514e-05 1.7497354e-07)
(0 4.1226017e-05 2.4787923e-07)
(0 4.4249931e-05 2.9222438e-07)
(0 4.4268306e-05 3.2653096e-07)
(0 4.2518856e-05 3.5307751e-07)
(0 3.9708672e-05 3.8164773e-07)
(0 3.6084866e-05 3.7066739e-07)
(0 3.1857076e-05 3.6891066e-07)
(0 2.7138828e-05 3.5166952e-07)
(0 2.2163699e-05 3.0226586e-07)
(0 1.7035789e-05 2.1032499e-07)
(0 1.1858219e-05 2.1265122e-07)
(0 6.2643986e-06 8.0550366e-08)
(0 -1.2396677e-07 -1.0823063e-07)
(0 -6.6683441e-06 -2.9870832e-07)
(0 -1.2653605e-05 -4.1430708e-07)
(0 -1.7809454e-05 -3.4408308e-07)
(0 -2.2240967e-05 -3.2941573e-07)
(0 -2.6529328e-05 -3.5164714e-07)
(0 -2.9905664e-05 -3.2899623e-07)
(0 -3.269377e-05 -2.5973818e-07)
(0 -3.5252888e-05 -2.3825541e-07)
(0 -3.760169e-05 -2.1091571e-07)
(0 1.1273196e-07 9.0141981e-06)
(0 3.4865576e-07 2.3857506e-05)
(0 3.985002e-07 3.3015124e-05)
(0 1.7345292e-07 3.7726867e-05)
(0 -1.689948e-07 3.9605282e-05)
(0 -5.836941e-07 3.9763687e-05)
(0 -9.1830664e-07 3.8792793e-05)
(0 -1.2475216e-06 3.7107728e-05)
(0 -1.4297757e-06 3.4540548e-05)
(0 -1.485388e-06 3.1310819e-05)
(0 -1.2713532e-06 2.7473915e-05)
(0 -7.9973639e-07 2.3130047e-05)
(0 -4.498401e-08 1.8381781e-05)
(0 5.5465232e-07 1.3120385e-05)
(0 3.3336416e-07 7.4690214e-06)
(0 -2.3652647e-07 1.5630296e-06)
(0 -5.7044354e-07 -4.4741115e-06)
(0 -2.5398867e-07 -1.0420161e-05)
(0 3.7525136e-07 -1.6293366e-05)
(0 3.2262042e-07 -2.2022574e-05)
(0 8.3577614e-07 -2.7266735e-05)
(0 1.3831652e-06 -3.2095737e-05)
(0 1.6056937e-06 -3.6366096e-05)
(0 1.362229e-06 -3.9975983e-05)
(0 -1.4411122e-05 1.8295607e-05)
(0 -3.1800302e-05 4.7863595e-05)
(0 -4.0140752e-05 6.5850067e-05)
(0 -4.3497584e-05 7.5011276e-05)
(0 -4.4142729e-05 7.862403e-05)
(0 -4.318909e-05 7.8852443e-05)
(0 -4.1053296e-05 7.6834286e-05)
(0 -3.808484e-05 7.3202536e-05)
(0 -3.4276259e-05 6.8062263e-05)
(0 -2.9730101e-05 6.1665526e-05)
(0 -2.4464199e-05 5.410958e-05)
(0 -1.8553216e-05 4.5588653e-05)
(0 -1.2022464e-05 3.6190292e-05)
(0 -5.543384e-06 2.5893436e-05)
(0 2.8401561e-07 1.4907683e-05)
(0 5.6431642e-06 3.4500492e-06)
(0 1.1064373e-05 -8.2646706e-06)
(0 1.6819574e-05 -1.9885733e-05)
(0 2.2346979e-05 -3.1294669e-05)
(0 2.6887959e-05 -4.2342686e-05)
(0 3.1294327e-05 -5.2576057e-05)
(0 3.5046963e-05 -6.2012612e-05)
(0 3.7915748e-05 -7.030618e-05)
(0 3.9803756e-05 -7.7385269e-05)
(0 -2.8939564e-05 2.8551636e-05)
(0 -6.2447847e-05 7.26236e-05)
(0 -7.8132415e-05 9.8698613e-05)
(0 -8.4113101e-05 0.00011175301)
(0 -8.4892458e-05 0.00011680194)
(0 -8.2596666e-05 0.00011695324)
(0 -7.8137056e-05 0.00011382418)
(0 -7.2076228e-05 0.0001082514)
(0 -6.4536122e-05 0.0001005672)
(0 -5.5766347e-05 9.1037409e-05)
(0 -4.588647e-05 7.9835215e-05)
(0 -3.4998122e-05 6.7166895e-05)
(0 -2.3358976e-05 5.3231688e-05)
(0 -1.1518469e-05 3.8075956e-05)
(0 -1.1056627e-07 2.200924e-05)
(0 1.0855905e-05 5.3150858e-06)
(0 2.1739335e-05 -1.1673263e-05)
(0 3.2586135e-05 -2.8592039e-05)
(0 4.2796554e-05 -4.5202463e-05)
(0 5.1790622e-05 -6.1234746e-05)
(0 6.0023602e-05 -7.6139344e-05)
(0 6.7076414e-05 -8.9746897e-05)
(0 7.2608331e-05 -0.00010171346)
(0 7.6725147e-05 -0.00011199929)
(0 -4.4521764e-05 4.0856326e-05)
(0 -9.1901015e-05 9.9196486e-05)
(0 -0.00011322684 0.00013232842)
(0 -0.00012099266 0.00014852456)
(0 -0.0001216091 0.00015459042)
(0 -0.00011798967 0.00015444852)
(0 -0.00011141175 0.00015008568)
(0 -0.0001025613 0.00014251765)
(0 -9.1712471e-05 0.00013222005)
(0 -7.9178664e-05 0.00011951826)
(0 -6.5166295e-05 0.00010466452)
(0 -4.9885021e-05 8.7879278e-05)
(0 -3.365346e-05 6.9480956e-05)
(0 -1.6999915e-05 4.9661359e-05)
(0 -4.8802899e-07 2.8751397e-05)
(0 1.5691058e-05 7.1409406e-06)
(0 3.1682281e-05 -1.4762716e-05)
(0 4.7290439e-05 -3.6534925e-05)
(0 6.2063486e-05 -5.7830693e-05)
(0 7.5370008e-05 -7.8281573e-05)
(0 8.7362667e-05 -9.7321106e-05)
(0 9.7695786e-05 -0.0001146809)
(0 0.00010606144 -0.00013001751)
(0 0.00011248185 -0.00014319137)
(0 4.4676487e-05 -4.0836929e-05)
(0 9.2337596e-05 -9.9133414e-05)
(0 0.00011369311 -0.00013224429)
(0 0.00012116584 -0.00014843707)
(0 0.00012132168 -0.00015449404)
(0 0.00011717674 -0.0001543332)
(0 0.00011017107 -0.00014993046)
(0 0.00010090807 -0.00014233389)
(0 8.9782447e-05 -0.00013201527)
(0 7.7035819e-05 -0.00011930151)
(0 6.2921976e-05 -0.00010442965)
(0 4.7860902e-05 -8.7689448e-05)
(0 3.2248149e-05 -6.9371019e-05)
(0 1.6130452e-05 -4.9651122e-05)
(0 -6.7522413e-07 -2.8922499e-05)
(0 -1.7393541e-05 -7.4785423e-06)
(0 -3.3531039e-05 1.4313394e-05)
(0 -4.8529324e-05 3.6102456e-05)
(0 -6.2559747e-05 5.7377251e-05)
(0 -7.5469244e-05 7.7761108e-05)
(0 -8.6773728e-05 9.6815722e-05)
(0 -9.6396242e-05 0.00011418689)
(0 -0.00010449204 0.00012964543)
(0 -0.0001111033 0.00014287405)
(0 2.913614e-05 -2.8518104e-05)
(0 6.3009066e-05 -7.2528534e-05)
(0 7.8732802e-05 -9.8569287e-05)
(0 8.4329339e-05 -0.00011161327)
(0 8.4532618e-05 -0.00011664688)
(0 8.1576877e-05 -0.00011676798)
(0 7.6577095e-05 -0.00011357842)
(0 6.99863e-05 -0.00010795901)
(0 6.2104632e-05 -0.00010024314)
(0 5.308411e-05 -9.0701785e-05)
(0 4.3171953e-05 -7.9501266e-05)
(0 3.2666558e-05 -6.6902786e-05)
(0 2.1902979e-05 -5.3061715e-05)
(0 1.0782852e-05 -3.8043021e-05)
(0 -1.0578066e-06 -2.2211104e-05)
(0 -1.2809174e-05 -5.7598587e-06)
(0 -2.3914942e-05 1.1082539e-05)
(0 -3.4052763e-05 2.8051762e-05)
(0 -4.3419364e-05 4.4637503e-05)
(0 -5.1948497e-05 6.0587627e-05)
(0 -5.9273203e-05 7.5514734e-05)
(0 -6.5319086e-05 8.9122572e-05)
(0 -7.0522737e-05 0.00010125309)
(0 -7.488717e-05 0.00011161078)
(0 1.4640266e-05 -1.8250331e-05)
(0 3.2502287e-05 -4.7737591e-05)
(0 4.0923724e-05 -6.567629e-05)
(0 4.3845534e-05 -7.4817302e-05)
(0 4.3840627e-05 -7.8406234e-05)
(0 4.2136506e-05 -7.8593165e-05)
(0 3.9391003e-05 -7.649957e-05)
(0 3.5831447e-05 -7.2806621e-05)
(0 3.1639459e-05 -6.7631389e-05)
(0 2.6845678e-05 -6.1236054e-05)
(0 2.1698439e-05 -5.3710819e-05)
(0 1.6341626e-05 -4.527927e-05)
(0 1.0948857e-05 -3.6003607e-05)
(0 5.2774932e-06 -2.5869577e-05)
(0 -1.0433423e-06 -1.5164317e-05)
(0 -7.4075322e-06 -4.0062162e-06)
(0 -1.3144824e-05 7.5222438e-06)
(0 -1.8286467e-05 1.9207683e-05)
(0 -2.2797932e-05 3.0625703e-05)
(0 -2.7048547e-05 4.15659e-05)
(0 -3.03755e-05 5.1839331e-05)
(0 -3.3016081e-05 6.1391911e-05)
(0 -3.5404181e-05 6.9767909e-05)
(0 -3.7592212e-05 7.6939812e-05)
(0 1.2482322e-07 -8.9244495e-06)
(0 3.6605835e-07 -2.361003e-05)
(0 4.0025728e-07 -3.2668565e-05)
(0 1.4917124e-07 -3.7323738e-05)
(0 -2.0017343e-07 -3.9154805e-05)
(0 -5.7731729e-07 -3.9266592e-05)
(0 -8.7309719e-07 -3.8226825e-05)
(0 -1.183752e-06 -3.6520617e-05)
(0 -1.3729834e-06 -3.3942954e-05)
(0 -1.5056706e-06 -3.0744669e-05)
(0 -1.4604723e-06 -2.6998183e-05)
(0 -1.211846e-06 -2.2795433e-05)
(0 -7.0982368e-07 -1.8114212e-05)
(0 -2.5463812e-07 -1.307323e-05)
(0 -5.6084076e-07 -7.7572149e-06)
(0 -1.109062e-06 -2.19708e-06)
(0 -1.3803246e-06 3.6359146e-06)
(0 -1.1916595e-06 9.6540431e-06)
(0 -7.389774e-07 1.5547941e-05)
(0 -5.9555441e-07 2.1156626e-05)
(0 3.7240923e-08 2.6446493e-05)
(0 6.5850129e-07 3.1472623e-05)
(0 1.0022474e-06 3.5783431e-05)
(0 9.2795127e-07 3.9497899e-05)
(0 -1.4308363e-05 6.9900893e-08)
(0 -3.1886361e-05 1.8620614e-07)
(0 -4.0423698e-05 2.5554374e-07)
(0 -4.3922788e-05 2.9373778e-07)
(0 -4.4626503e-05 3.20133e-07)
(0 -4.3657045e-05 3.4366195e-07)
(0 -4.1470199e-05 3.7064748e-07)
(0 -3.8478419e-05 3.5513362e-07)
(0 -3.4604717e-05 3.4488699e-07)
(0 -3.005925e-05 3.1179118e-07)
(0 -2.4814107e-05 2.5122878e-07)
(0 -1.8952801e-05 1.607343e-07)
(0 -1.2453725e-05 1.4297131e-07)
(0 -5.913129e-06 1.623083e-09)
(0 -6.0797216e-08 -1.6655493e-07)
(0 5.3488143e-06 -3.3077349e-07)
(0 1.0822355e-05 -4.1813795e-07)
(0 1.6465445e-05 -4.056146e-07)
(0 2.1641648e-05 -4.3708915e-07)
(0 2.6112624e-05 -4.8820788e-07)
(0 3.0622846e-05 -4.6154296e-07)
(0 3.4625588e-05 -3.6654145e-07)
(0 3.7684343e-05 -3.2544348e-07)
(0 3.9751894e-05 -2.5616852e-07)
(0 -2.8387078e-05 9.2754951e-06)
(0 -6.2582304e-05 2.4027696e-05)
(0 -7.8958529e-05 3.3001295e-05)