/*--------------------------------*- C++ -*----------------------------------*\
| =========                 |                                                 |
| \\      /  F ield         | foam-extend: Open Source CFD                    |
|  \\    /   O peration     | Version:     4.1-20200408                       |
|   \\  /    A nd           | Web:         http://www.foam-extend.org         |
|    \\/     M anipulation  |                                                 |
\*---------------------------------------------------------------------------*/
FoamFile
{
    version     2.0;
    format      ascii;
    class       volScalarField;
    location    "0.0880000";
    object      sigmaY;
}
// * * * * * * * * * * * * * * * * * * * * * * * * * * * * * * * * * * * * * //

dimensions      [1 -1 -2 0 0 0 0];

internalField   nonuniform List<scalar> 
1952
(
1.28467e+09
1.28471e+09
1.28482e+09
1.28493e+09
1.28506e+09
1.28517e+09
1.2853e+09
1.28536e+09
1.28534e+09
1.28508e+09
1.28463e+09
1.28384e+09
1.28276e+09
1.28194e+09
1.28148e+09
1.28462e+09
1.28469e+09
1.28474e+09
1.28484e+09
1.28495e+09
1.28508e+09
1.28519e+09
1.28533e+09
1.28539e+09
1.28536e+09
1.2851e+09
1.28465e+09
1.28386e+09
1.28278e+09
1.28196e+09
1.2815e+09
1.28464e+09
1.28471e+09
1.28476e+09
1.28486e+09
1.28497e+09
1.2851e+09
1.28521e+09
1.28535e+09
1.28541e+09
1.28538e+09
1.28512e+09
1.28467e+09
1.28388e+09
1.2828e+09
1.28199e+09
1.28152e+09
1.28466e+09
1.28473e+09
1.28478e+09
1.28488e+09
1.28499e+09
1.28513e+09
1.28524e+09
1.28537e+09
1.28543e+09
1.2854e+09
1.28515e+09
1.2847e+09
1.2839e+09
1.28282e+09
1.28201e+09
1.28155e+09
1.28468e+09
1.28475e+09
1.2848e+09
1.2849e+09
1.28501e+09
1.28515e+09
1.28526e+09
1.28539e+09
1.28545e+09
1.28542e+09
1.28517e+09
1.28472e+09
1.28392e+09
1.28284e+09
1.28203e+09
1.28157e+09
1.28471e+09
1.28477e+09
1.28482e+09
1.28493e+09
1.28504e+09
1.28517e+09
1.28528e+09
1.28542e+09
1.28547e+09
1.28545e+09
1.28519e+09
1.28474e+09
1.28395e+09
1.28286e+09
1.28205e+09
1.28159e+09
1.28473e+09
1.2848e+09
1.28485e+09
1.28495e+09
1.28506e+09
1.28519e+09
1.2853e+09
1.28544e+09
1.2855e+09
1.28547e+09
1.28521e+09
1.28476e+09
1.28397e+09
1.28289e+09
1.28207e+09
1.28161e+09
1.28475e+09
1.28482e+09
1.28487e+09
1.28497e+09
1.28508e+09
1.28521e+09
1.28532e+09
1.28546e+09
1.28552e+09
1.28549e+09
1.28524e+09
1.28478e+09
1.28399e+09
1.28291e+09
1.2821e+09
1.28163e+09
1.28477e+09
1.28484e+09
1.28489e+09
1.28499e+09
1.2851e+09
1.28523e+09
1.28535e+09
1.28548e+09
1.28554e+09
1.28551e+09
1.28526e+09
1.28481e+09
1.28401e+09
1.28293e+09
1.28212e+09
1.28166e+09
1.28479e+09
1.28486e+09
1.28491e+09
1.28501e+09
1.28512e+09
1.28526e+09
1.28537e+09
1.2855e+09
1.28556e+09
1.28553e+09
1.28528e+09
1.28483e+09
1.28403e+09
1.28295e+09
1.28214e+09
1.28168e+09
1.28481e+09
1.28488e+09
1.28493e+09
1.28503e+09
1.28514e+09
1.28528e+09
1.28539e+09
1.28553e+09
1.28558e+09
1.28556e+09
1.2853e+09
1.28485e+09
1.28405e+09
1.28297e+09
1.28216e+09
1.2817e+09
1.28484e+09
1.2849e+09
1.28495e+09
1.28506e+09
1.28517e+09
1.2853e+09
1.28541e+09
1.28555e+09
1.28561e+09
1.28558e+09
1.28532e+09
1.28487e+09
1.28408e+09
1.28299e+09
1.28218e+09
1.28172e+09
1.28486e+09
1.28493e+09
1.28497e+09
1.28508e+09
1.28519e+09
1.28532e+09
1.28543e+09
1.28557e+09
1.28563e+09
1.2856e+09
1.28535e+09
1.28489e+09
1.2841e+09
1.28302e+09
1.2822e+09
1.28174e+09
1.28488e+09
1.28495e+09
1.285e+09
1.2851e+09
1.28521e+09
1.28534e+09
1.28546e+09
1.28559e+09
1.28565e+09
1.28562e+09
1.28537e+09
1.28492e+09
1.28412e+09
1.28304e+09
1.28223e+09
1.28176e+09
1.2849e+09
1.28497e+09
1.28502e+09
1.28512e+09
1.28523e+09
1.28536e+09
1.28548e+09
1.28561e+09
1.28567e+09
1.28564e+09
1.28539e+09
1.28494e+09
1.28414e+09
1.28306e+09
1.28225e+09
1.28179e+09
1.28492e+09
1.28499e+09
1.28504e+09
1.28514e+09
1.28525e+09
1.28538e+09
1.2855e+09
1.28563e+09
1.28569e+09
1.28566e+09
1.28541e+09
1.28496e+09
1.28416e+09
1.28308e+09
1.28227e+09
1.28181e+09
1.28494e+09
1.28501e+09
1.28506e+09
1.28516e+09
1.28527e+09
1.28541e+09
1.28552e+09
1.28566e+09
1.28572e+09
1.28569e+09
1.28543e+09
1.28498e+09
1.28418e+09
1.2831e+09
1.28229e+09
1.28183e+09
1.28496e+09
1.28503e+09
1.28508e+09
1.28518e+09
1.28529e+09
1.28543e+09
1.28554e+09
1.28568e+09
1.28574e+09
1.28571e+09
1.28546e+09
1.285e+09
1.28421e+09
1.28312e+09
1.28231e+09
1.28185e+09
1.28499e+09
1.28505e+09
1.2851e+09
1.28521e+09
1.28532e+09
1.28545e+09
1.28556e+09
1.2857e+09
1.28576e+09
1.28573e+09
1.28548e+09
1.28503e+09
1.28423e+09
1.28315e+09
1.28234e+09
1.28187e+09
1.28501e+09
1.28508e+09
1.28512e+09
1.28523e+09
1.28534e+09
1.28547e+09
1.28559e+09
1.28572e+09
1.28578e+09
1.28575e+09
1.2855e+09
1.28505e+09
1.28425e+09
1.28317e+09
1.28236e+09
1.2819e+09
1.28503e+09
1.2851e+09
1.28515e+09
1.28525e+09
1.28536e+09
1.28549e+09
1.28561e+09
1.28575e+09
1.2858e+09
1.28577e+09
1.28552e+09
1.28507e+09
1.28427e+09
1.28319e+09
1.28238e+09
1.28192e+09
1.28505e+09
1.28512e+09
1.28517e+09
1.28527e+09
1.28538e+09
1.28551e+09
1.28563e+09
1.28577e+09
1.28583e+09
1.2858e+09
1.28555e+09
1.28509e+09
1.28429e+09
1.28321e+09
1.2824e+09
1.28194e+09
1.28507e+09
1.28514e+09
1.28519e+09
1.28529e+09
1.2854e+09
1.28554e+09
1.28565e+09
1.28579e+09
1.28585e+09
1.28582e+09
1.28557e+09
1.28512e+09
1.28431e+09
1.28323e+09
1.28242e+09
1.28196e+09
1.28509e+09
1.28516e+09
1.28521e+09
1.28532e+09
1.28542e+09
1.28556e+09
1.28567e+09
1.28581e+09
1.28587e+09
1.28584e+09
1.28559e+09
1.28514e+09
1.28434e+09
1.28325e+09
1.28245e+09
1.28198e+09
1.28512e+09
1.28519e+09
1.28523e+09
1.28534e+09
1.28545e+09
1.28558e+09
1.2857e+09
1.28583e+09
1.28589e+09
1.28586e+09
1.28561e+09
1.28516e+09
1.28436e+09
1.28328e+09
1.28247e+09
1.28201e+09
1.28514e+09
1.28521e+09
1.28526e+09
1.28536e+09
1.28547e+09
1.2856e+09
1.28572e+09
1.28586e+09
1.28592e+09
1.28588e+09
1.28563e+09
1.28518e+09
1.28438e+09
1.2833e+09
1.28249e+09
1.28203e+09
1.28516e+09
1.28523e+09
1.28528e+09
1.28538e+09
1.28549e+09
1.28562e+09
1.28574e+09
1.28588e+09
1.28594e+09
1.28591e+09
1.28566e+09
1.2852e+09
1.2844e+09
1.28332e+09
1.28251e+09
1.28205e+09
1.28518e+09
1.28525e+09
1.2853e+09
1.2854e+09
1.28551e+09
1.28564e+09
1.28576e+09
1.2859e+09
1.28596e+09
1.28593e+09
1.28568e+09
1.28523e+09
1.28442e+09
1.28334e+09
1.28253e+09
1.28207e+09
1.2852e+09
1.28527e+09
1.28532e+09
1.28542e+09
1.28553e+09
1.28567e+09
1.28578e+09
1.28592e+09
1.28598e+09
1.28595e+09
1.2857e+09
1.28525e+09
1.28445e+09
1.28336e+09
1.28255e+09
1.28209e+09
1.28523e+09
1.28529e+09
1.28534e+09
1.28545e+09
1.28556e+09
1.28569e+09
1.28581e+09
1.28595e+09
1.286e+09
1.28597e+09
1.28572e+09
1.28527e+09
1.28447e+09
1.28338e+09
1.28258e+09
1.28211e+09
1.28525e+09
1.28532e+09
1.28536e+09
1.28547e+09
1.28558e+09
1.28571e+09
1.28583e+09
1.28597e+09
1.28603e+09
1.28599e+09
1.28575e+09
1.28529e+09
1.28449e+09
1.28341e+09
1.2826e+09
1.28214e+09
1.28527e+09
1.28534e+09
1.28539e+09
1.28549e+09
1.2856e+09
1.28573e+09
1.28585e+09
1.28599e+09
1.28605e+09
1.28601e+09
1.28577e+09
1.28531e+09
1.28451e+09
1.28343e+09
1.28262e+09
1.28216e+09
1.28529e+09
1.28536e+09
1.28541e+09
1.28551e+09
1.28562e+09
1.28575e+09
1.28587e+09
1.28601e+09
1.28607e+09
1.28604e+09
1.28579e+09
1.28534e+09
1.28453e+09
1.28345e+09
1.28264e+09
1.28218e+09
1.28531e+09
1.28538e+09
1.28543e+09
1.28553e+09
1.28564e+09
1.28577e+09
1.28589e+09
1.28603e+09
1.28609e+09
1.28606e+09
1.28581e+09
1.28536e+09
1.28455e+09
1.28347e+09
1.28266e+09
1.2822e+09
1.28533e+09
1.2854e+09
1.28545e+09
1.28555e+09
1.28566e+09
1.28579e+09
1.28591e+09
1.28605e+09
1.28611e+09
1.28608e+09
1.28583e+09
1.28538e+09
1.28457e+09
1.28349e+09
1.28268e+09
1.28222e+09
1.28535e+09
1.28542e+09
1.28547e+09
1.28557e+09
1.28568e+09
1.28582e+09
1.28594e+09
1.28608e+09
1.28614e+09
1.2861e+09
1.28585e+09
1.2854e+09
1.2846e+09
1.28351e+09
1.28271e+09
1.28224e+09
1.28538e+09
1.28544e+09
1.28549e+09
1.2856e+09
1.28571e+09
1.28584e+09
1.28596e+09
1.2861e+09
1.28616e+09
1.28612e+09
1.28588e+09
1.28542e+09
1.28462e+09
1.28353e+09
1.28273e+09
1.28227e+09
1.2854e+09
1.28546e+09
1.28551e+09
1.28562e+09
1.28573e+09
1.28586e+09
1.28598e+09
1.28612e+09
1.28618e+09
1.28614e+09
1.2859e+09
1.28545e+09
1.28464e+09
1.28356e+09
1.28275e+09
1.28229e+09
1.28542e+09
1.28549e+09
1.28553e+09
1.28564e+09
1.28575e+09
1.28588e+09
1.286e+09
1.28614e+09
1.2862e+09
1.28617e+09
1.28592e+09
1.28547e+09
1.28466e+09
1.28358e+09
1.28277e+09
1.28231e+09
1.28544e+09
1.28551e+09
1.28556e+09
1.28566e+09
1.28577e+09
1.2859e+09
1.28602e+09
1.28616e+09
1.28622e+09
1.28619e+09
1.28594e+09
1.28549e+09
1.28468e+09
1.2836e+09
1.28279e+09
1.28233e+09
1.28546e+09
1.28553e+09
1.28558e+09
1.28568e+09
1.28579e+09
1.28592e+09
1.28604e+09
1.28619e+09
1.28625e+09
1.28621e+09
1.28597e+09
1.28551e+09
1.2847e+09
1.28362e+09
1.28282e+09
1.28235e+09
1.28548e+09
1.28555e+09
1.2856e+09
1.2857e+09
1.28581e+09
1.28594e+09
1.28607e+09
1.28621e+09
1.28627e+09
1.28623e+09
1.28599e+09
1.28553e+09
1.28473e+09
1.28364e+09
1.28284e+09
1.28238e+09
1.2855e+09
1.28557e+09
1.28562e+09
1.28573e+09
1.28583e+09
1.28597e+09
1.28609e+09
1.28623e+09
1.28629e+09
1.28625e+09
1.28601e+09
1.28556e+09
1.28475e+09
1.28366e+09
1.28286e+09
1.2824e+09
1.28553e+09
1.28559e+09
1.28564e+09
1.28575e+09
1.28586e+09
1.28599e+09
1.28611e+09
1.28625e+09
1.28631e+09
1.28628e+09
1.28603e+09
1.28558e+09
1.28477e+09
1.28369e+09
1.28288e+09
1.28242e+09
1.28555e+09
1.28562e+09
1.28567e+09
1.28577e+09
1.28588e+09
1.28601e+09
1.28613e+09
1.28627e+09
1.28633e+09
1.2863e+09
1.28605e+09
1.2856e+09
1.28479e+09
1.28371e+09
1.2829e+09
1.28244e+09
1.28557e+09
1.28564e+09
1.28569e+09
1.28579e+09
1.2859e+09
1.28603e+09
1.28616e+09
1.2863e+09
1.28636e+09
1.28632e+09
1.28608e+09
1.28562e+09
1.28481e+09
1.28373e+09
1.28293e+09
1.28246e+09
1.28559e+09
1.28566e+09
1.28571e+09
1.28581e+09
1.28592e+09
1.28605e+09
1.28618e+09
1.28632e+09
1.28638e+09
1.28634e+09
1.2861e+09
1.28565e+09
1.28483e+09
1.28375e+09
1.28295e+09
1.28249e+09
1.28561e+09
1.28568e+09
1.28573e+09
1.28583e+09
1.28594e+09
1.28608e+09
1.2862e+09
1.28634e+09
1.2864e+09
1.28637e+09
1.28612e+09
1.28567e+09
1.28486e+09
1.28377e+09
1.28297e+09
1.28251e+09
1.28563e+09
1.2857e+09
1.28575e+09
1.28586e+09
1.28597e+09
1.2861e+09
1.28622e+09
1.28636e+09
1.28642e+09
1.28639e+09
1.28614e+09
1.28569e+09
1.28488e+09
1.2838e+09
1.28299e+09
1.28252e+09
1.28566e+09
1.28573e+09
1.28578e+09
1.28588e+09
1.28599e+09
1.28612e+09
1.28624e+09
1.28639e+09
1.28645e+09
1.28641e+09
1.28617e+09
1.28571e+09
1.2849e+09
1.28382e+09
1.28301e+09
1.28246e+09
1.28568e+09
1.28575e+09
1.2858e+09
1.2859e+09
1.28601e+09
1.28614e+09
1.28627e+09
1.28641e+09
1.28647e+09
1.28643e+09
1.28619e+09
1.28573e+09
1.28492e+09
1.28384e+09
1.283e+09
1.28227e+09
1.2857e+09
1.28577e+09
1.28582e+09
1.28592e+09
1.28603e+09
1.28616e+09
1.28629e+09
1.28643e+09
1.28649e+09
1.28645e+09
1.28621e+09
1.28576e+09
1.28494e+09
1.28386e+09
1.28285e+09
1.28184e+09
1.28572e+09
1.28579e+09
1.28584e+09
1.28594e+09
1.28605e+09
1.28618e+09
1.28631e+09
1.28645e+09
1.28651e+09
1.28647e+09
1.28623e+09
1.28578e+09
1.28496e+09
1.28378e+09
1.28246e+09
1.28113e+09
1.28574e+09
1.28581e+09
1.28586e+09
1.28596e+09
1.28607e+09
1.2862e+09
1.28633e+09
1.28647e+09
1.28653e+09
1.28649e+09
1.28621e+09
1.28566e+09
1.2847e+09
1.28337e+09
1.28178e+09
1.28015e+09
1.28576e+09
1.28583e+09
1.28588e+09
1.28599e+09
1.2861e+09
1.28623e+09
1.28632e+09
1.28639e+09
1.28635e+09
1.28621e+09
1.2858e+09
1.28512e+09
1.28401e+09
1.28254e+09
1.28078e+09
1.27898e+09
1.28579e+09
1.28582e+09
1.28584e+09
1.28589e+09
1.28594e+09
1.28598e+09
1.28598e+09
1.28593e+09
1.28576e+09
1.28547e+09
1.28493e+09
1.28412e+09
1.2829e+09
1.28135e+09
1.2795e+09
1.27764e+09
1.28578e+09
1.28551e+09
1.28548e+09
1.28545e+09
1.2854e+09
1.28532e+09
1.28519e+09
1.285e+09
1.2847e+09
1.28428e+09
1.28362e+09
1.28273e+09
1.28145e+09
1.27987e+09
1.27803e+09
1.27621e+09
1.28549e+09
1.28472e+09
1.28463e+09
1.28452e+09
1.28436e+09
1.28417e+09
1.28392e+09
1.28361e+09
1.28321e+09
1.28268e+09
1.28196e+09
1.28101e+09
1.27973e+09
1.27818e+09
1.27643e+09
1.27473e+09
1.28472e+09
1.28332e+09
1.28319e+09
1.28302e+09
1.28279e+09
1.28251e+09
1.28218e+09
1.2818e+09
1.28132e+09
1.28074e+09
1.27999e+09
1.27904e+09
1.2778e+09
1.27633e+09
1.27473e+09
1.2732e+09
1.28335e+09
1.28128e+09
1.28113e+09
1.28093e+09
1.28067e+09
1.28037e+09
1.28001e+09
1.2796e+09
1.27911e+09
1.27853e+09
1.27779e+09
1.27687e+09
1.27572e+09
1.27436e+09
1.27294e+09
1.27164e+09
1.28132e+09
1.27865e+09
1.27852e+09
1.27833e+09
1.27809e+09
1.27781e+09
1.27747e+09
1.27709e+09
1.27663e+09
1.27609e+09
1.27541e+09
1.27456e+09
1.27351e+09
1.27229e+09
1.27109e+09
1.27003e+09
1.27869e+09
1.27557e+09
1.27547e+09
1.27533e+09
1.27515e+09
1.27493e+09
1.27466e+09
1.27434e+09
1.27396e+09
1.27348e+09
1.27289e+09
1.27214e+09
1.27123e+09
1.27016e+09
1.26919e+09
1.26839e+09
1.2756e+09
1.27222e+09
1.27217e+09
1.2721e+09
1.27199e+09
1.27185e+09
1.27167e+09
1.27144e+09
1.27115e+09
1.27077e+09
1.27028e+09
1.26964e+09
1.26888e+09
1.26799e+09
1.26726e+09
1.26675e+09
1.27224e+09
1.26882e+09
1.26881e+09
1.26879e+09
1.26876e+09
1.2687e+09
1.26861e+09
1.26847e+09
1.26828e+09
1.268e+09
1.26763e+09
1.26711e+09
1.26651e+09
1.26581e+09
1.26533e+09
1.2651e+09
1.26882e+09
1.26554e+09
1.26555e+09
1.26558e+09
1.2656e+09
1.2656e+09
1.26558e+09
1.26553e+09
1.26542e+09
1.26524e+09
1.26497e+09
1.26458e+09
1.26413e+09
1.26363e+09
1.26341e+09
1.26348e+09
1.26552e+09
1.26252e+09
1.26254e+09
1.26258e+09
1.26262e+09
1.26266e+09
1.26269e+09
1.26269e+09
1.26264e+09
1.26254e+09
1.26237e+09
1.2621e+09
1.2618e+09
1.26149e+09
1.26153e+09
1.26189e+09
1.2625e+09
1.25985e+09
1.25987e+09
1.2599e+09
1.25993e+09
1.25997e+09
1.26e+09
1.26003e+09
1.26002e+09
1.25997e+09
1.25986e+09
1.2597e+09
1.25954e+09
1.25943e+09
1.25972e+09
1.26035e+09
1.25983e+09
1.25757e+09
1.25757e+09
1.25757e+09
1.25758e+09
1.25759e+09
1.2576e+09
1.25761e+09
1.2576e+09
1.25757e+09
1.25751e+09
1.25744e+09
1.25741e+09
1.25748e+09
1.25799e+09
1.25886e+09
1.25756e+09
1.25565e+09
1.25563e+09
1.2556e+09
1.25557e+09
1.25554e+09
1.25551e+09
1.25549e+09
1.25545e+09
1.25541e+09
1.25537e+09
1.25535e+09
1.25542e+09
1.25567e+09
1.25638e+09
1.25744e+09
1.25565e+09
1.25406e+09
1.25402e+09
1.25397e+09
1.25391e+09
1.25384e+09
1.25376e+09
1.25369e+09
1.25361e+09
1.25353e+09
1.25348e+09
1.2535e+09
1.25364e+09
1.25402e+09
1.25487e+09
1.25606e+09
1.25406e+09
1.25273e+09
1.25269e+09
1.25263e+09
1.25255e+09
1.25245e+09
1.25234e+09
1.25223e+09
1.2521e+09
1.25198e+09
1.2519e+09
1.25192e+09
1.2521e+09
1.25256e+09
1.25349e+09
1.25473e+09
1.25274e+09
1.25161e+09
1.25157e+09
1.25151e+09
1.25143e+09
1.25133e+09
1.2512e+09
1.25106e+09
1.2509e+09
1.25077e+09
1.25068e+09
1.25069e+09
1.25086e+09
1.25133e+09
1.25221e+09
1.25342e+09
1.25162e+09
1.25065e+09
1.25062e+09
1.25057e+09
1.25051e+09
1.25043e+09
1.25032e+09
1.2502e+09
1.25007e+09
1.25e+09
1.25e+09
1.25e+09
1.25007e+09
1.25042e+09
1.25111e+09
1.25218e+09
1.25066e+09
1.25e+09
1.25e+09
1.25e+09
1.25e+09
1.25e+09
1.25e+09
1.25e+09
1.25e+09
1.25e+09
1.25e+09
1.25e+09
1.25e+09
1.25e+09
1.25032e+09
1.25112e+09
1.25e+09
1.25e+09
1.25e+09
1.25e+09
1.25e+09
1.25e+09
1.25e+09
1.25e+09
1.25e+09
1.25e+09
1.25e+09
1.25e+09
1.25e+09
1.25e+09
1.25e+09
1.25038e+09
1.25e+09
1.25e+09
1.25e+09
1.25e+09
1.25e+09
1.25e+09
1.25e+09
1.25e+09
1.25e+09
1.25e+09
1.25e+09
1.25e+09
1.25e+09
1.25e+09
1.25e+09
1.25e+09
1.25e+09
1.25e+09
1.25e+09
1.25e+09
1.25e+09
1.25e+09
1.25e+09
1.25e+09
1.25e+09
1.25e+09
1.25e+09
1.25e+09
1.25e+09
1.25e+09
1.25e+09
1.25e+09
1.25e+09
1.25e+09
1.25e+09
1.25e+09
1.25e+09
1.25e+09
1.25e+09
1.25e+09
1.25e+09
1.25e+09
1.25e+09
1.25e+09
1.25e+09
1.25e+09
1.25e+09
1.25e+09
1.25e+09
1.25e+09
1.25e+09
1.25e+09
1.25e+09
1.25e+09
1.25e+09
1.25e+09
1.25e+09
1.25e+09
1.25e+09
1.25e+09
1.25e+09
1.25e+09
1.25e+09
1.25e+09
1.25e+09
1.25e+09
1.25e+09
1.25e+09
1.25e+09
1.25e+09
1.25e+09
1.25e+09
1.25e+09
1.25e+09
1.25e+09
1.25e+09
1.25e+09
1.25e+09
1.25e+09
1.25e+09
1.25e+09
1.25e+09
1.25e+09
1.25e+09
1.25e+09
1.25e+09
1.25e+09
1.25e+09
1.25e+09
1.25e+09
1.25e+09
1.25e+09
1.25e+09
1.25e+09
1.25e+09
1.25e+09
1.25e+09
1.25e+09
1.25e+09
1.25e+09
1.25e+09
1.25e+09
1.25e+09
1.25e+09
1.25e+09
1.25e+09
1.25e+09
1.25e+09
1.25e+09
1.25e+09
1.25e+09
1.25e+09
1.25e+09
1.25e+09
1.25e+09
1.25e+09
1.25e+09
1.25e+09
1.25e+09
1.25e+09
1.25e+09
1.25e+09
1.25e+09
1.25e+09
1.25e+09
1.25e+09
1.25e+09
1.25e+09
1.25e+09
1.25e+09
1.25e+09
1.25e+09
1.25e+09
1.25e+09
1.25e+09
1.25e+09
1.25e+09
1.25e+09
1.25e+09
1.25e+09
1.25e+09
1.25e+09
1.25e+09
1.25e+09
1.25e+09
1.25e+09
1.25e+09
1.25e+09
1.25e+09
1.25e+09
1.25e+09
1.25e+09
1.25e+09
1.25e+09
1.25e+09
1.25e+09
1.25e+09
1.25e+09
1.25e+09
1.25e+09
1.25e+09
1.25e+09
1.25e+09
1.25e+09
1.25e+09
1.25e+09
1.25e+09
1.25e+09
1.25e+09
1.25e+09
1.25e+09
1.25e+09
1.25e+09
1.25e+09
1.25e+09
1.25e+09
1.25e+09
1.25e+09
1.25e+09
1.25e+09
1.25e+09
1.25e+09
1.25e+09
1.25e+09
1.25e+09
1.25e+09
1.25e+09
1.25e+09
1.25e+09
1.25e+09
1.25e+09
1.25e+09
1.25e+09
1.25e+09
1.25e+09
1.25e+09
1.25e+09
1.25e+09
1.25e+09
1.25e+09
1.25e+09
1.25e+09
1.25e+09
1.25e+09
1.25e+09
1.25e+09
1.25e+09
1.25e+09
1.25e+09
1.25e+09
1.25e+09
1.25e+09
1.25e+09
1.25e+09
1.25e+09
1.25e+09
1.25e+09
1.25e+09
1.25e+09
1.25e+09
1.25e+09
1.25e+09
1.25e+09
1.25e+09
1.25e+09
1.25e+09
1.25e+09
1.25e+09
1.25e+09
1.25e+09
1.25e+09
1.25e+09
1.25e+09
1.25e+09
1.25e+09
1.25e+09
1.25e+09
1.25e+09
1.25e+09
1.25e+09
1.25e+09
1.25e+09
1.25e+09
1.25e+09
1.25e+09
1.25e+09
1.25e+09
1.25e+09
1.25e+09
1.25e+09
1.25e+09
1.25e+09
1.25e+09
1.25e+09
1.25e+09
1.25e+09
1.25e+09
1.25e+09
1.25e+09
1.25e+09
1.25e+09
1.25e+09
1.25e+09
1.25e+09
1.25e+09
1.25e+09
1.25e+09
1.25e+09
1.25e+09
1.25e+09
1.25e+09
1.25e+09
1.25e+09
1.25e+09
1.25e+09
1.25e+09
1.25e+09
1.25e+09
1.25e+09
1.25e+09
1.25e+09
1.25e+09
1.25e+09
1.25e+09
1.25e+09
1.25e+09
1.25e+09
1.25e+09
1.25e+09
1.25e+09
1.25e+09
1.25e+09
1.25e+09
1.25e+09
1.25e+09
1.25e+09
1.25e+09
1.25e+09
1.25e+09
1.25e+09
1.25e+09
1.25e+09
1.25e+09
1.25e+09
1.25e+09
1.25e+09
1.25e+09
1.25e+09
1.25e+09
1.25e+09
1.25e+09
1.25e+09
1.25e+09
1.25e+09
1.25e+09
1.25e+09
1.25e+09
1.25e+09
1.25e+09
1.25e+09
1.25e+09
1.25e+09
1.25e+09
1.25e+09
1.25e+09
1.25e+09
1.25e+09
1.25e+09
1.25e+09
1.25e+09
1.25e+09
1.25e+09
1.25e+09
1.25e+09
1.25e+09
1.25e+09
1.25e+09
1.25e+09
1.25e+09
1.25e+09
1.25e+09
1.25e+09
1.25e+09
1.25e+09
1.25e+09
1.25e+09
1.25e+09
1.25e+09
1.25e+09
1.25e+09
1.25e+09
1.25e+09
1.25e+09
1.25e+09
1.25e+09
1.25e+09
1.25e+09
1.25e+09
1.25e+09
1.25e+09
1.25e+09
1.25e+09
1.25e+09
1.25e+09
1.25e+09
1.25e+09
1.25e+09
1.25e+09
1.25e+09
1.25e+09
1.25e+09
1.25e+09
1.25e+09
1.25e+09
1.25e+09
1.25e+09
1.25e+09
1.25e+09
1.25e+09
1.25e+09
1.25e+09
1.25e+09
1.25e+09
1.25e+09
1.25e+09
1.25e+09
1.25e+09
1.25e+09
1.25e+09
1.25e+09
1.25e+09
1.25e+09
1.25e+09
1.25e+09
1.25e+09
1.25e+09
1.25e+09
1.25e+09
1.25e+09
1.25e+09
1.25e+09
1.25e+09
1.25e+09
1.25e+09
1.25e+09
1.25e+09
1.25e+09
1.25e+09
1.25e+09
1.25e+09
1.25e+09
1.25e+09
1.25e+09
1.25e+09
1.25e+09
1.25e+09
1.25e+09
1.25e+09
1.25e+09
1.25e+09
1.25e+09
1.25e+09
1.25e+09
1.25e+09
1.25e+09
1.25e+09
1.25e+09
1.25e+09
1.25e+09
1.25e+09
1.25e+09
1.25e+09
1.25e+09
1.25e+09
1.25e+09
1.25e+09
1.25e+09
1.25e+09
1.25e+09
1.25e+09
1.25e+09
1.25e+09
1.25e+09
1.25e+09
1.25e+09
1.25e+09
1.25e+09
1.25e+09
1.25e+09
1.25e+09
1.25e+09
1.25e+09
1.25e+09
1.25e+09
1.25e+09
1.25e+09
1.25e+09
1.25e+09
1.25e+09
1.25e+09
1.25e+09
1.25e+09
1.25e+09
1.25e+09
1.25e+09
1.25e+09
1.25e+09
1.25e+09
1.25e+09
1.25e+09
1.25e+09
1.25e+09
1.25e+09
1.25e+09
1.25e+09
1.25e+09
1.25e+09
1.25e+09
1.25e+09
1.25e+09
1.25e+09
1.25e+09
1.25e+09
1.25e+09
1.25e+09
1.25e+09
1.25e+09
1.25e+09
1.25e+09
1.25e+09
1.25e+09
1.25e+09
1.25e+09
1.25e+09
1.25e+09
1.25e+09
1.25e+09
1.25e+09
1.25e+09
1.25e+09
1.25e+09
1.25e+09
1.25e+09
1.25e+09
1.25e+09
1.25e+09
1.25e+09
1.25e+09
1.25e+09
1.25e+09
1.25e+09
1.25e+09
1.25e+09
1.25e+09
1.25e+09
1.25e+09
1.25e+09
1.25e+09
1.25e+09
1.25e+09
1.25e+09
1.25e+09
1.25e+09
1.25e+09
1.25e+09
1.25e+09
1.25e+09
1.25e+09
1.25e+09
1.25e+09
1.25e+09
1.25e+09
1.25e+09
1.25e+09
1.25e+09
1.25e+09
1.25e+09
1.25e+09
1.25e+09
1.25e+09
1.25e+09
1.25e+09
1.25e+09
1.25e+09
1.25e+09
1.25e+09
1.25e+09
1.25e+09
1.25e+09
1.25e+09
1.25e+09
1.25e+09
1.25e+09
1.25e+09
1.25e+09
1.25e+09
1.25e+09
1.25e+09
1.25e+09
1.25e+09
1.25e+09
1.25e+09
1.25e+09
1.25e+09
1.25e+09
1.25e+09
1.25e+09
1.25e+09
1.25e+09
1.25e+09
1.25e+09
1.25e+09
1.25e+09
1.25e+09
1.25e+09
1.25e+09
1.25e+09
1.25e+09
1.25e+09
1.25e+09
1.25e+09
1.25e+09
1.25e+09
1.25e+09
1.25e+09
1.25e+09
1.25e+09
1.25e+09
1.25e+09
1.25e+09
1.25e+09
1.25e+09
1.25e+09
1.25e+09
1.25e+09
1.25e+09
1.25e+09
1.25e+09
1.25e+09
1.25e+09
1.25e+09
1.25e+09
1.25e+09
1.25e+09
1.25e+09
1.25e+09
1.25e+09
1.25e+09
1.25e+09
1.25e+09
1.25e+09
1.25e+09
1.25e+09
1.25e+09
1.25e+09
1.25e+09
1.25e+09
1.25e+09
1.25e+09
1.25e+09
1.25e+09
1.25e+09
1.25e+09
1.25e+09
1.25e+09
1.25e+09
1.25e+09
1.25e+09
1.25e+09
1.25e+09
1.25e+09
1.25e+09
1.25e+09
1.25e+09
1.25e+09
1.25e+09
1.25e+09
1.25e+09
1.25e+09
1.25e+09
1.25e+09
1.25e+09
1.25e+09
1.25e+09
1.25e+09
1.25e+09
1.25e+09
1.25e+09
1.25e+09
1.25e+09
1.25e+09
1.25e+09
1.25e+09
1.25e+09
1.25e+09
1.25e+09
1.25e+09
1.25e+09
1.25e+09
1.25e+09
1.25e+09
1.25e+09
1.25e+09
1.25e+09
1.25e+09
1.25e+09
1.25e+09
1.25e+09
1.25e+09
1.25e+09
1.25e+09
1.25e+09
1.25e+09
1.25e+09
1.25e+09
1.25e+09
1.25e+09
1.25e+09
1.25e+09
1.25e+09
1.25e+09
1.25e+09
1.25e+09
1.25e+09
1.25e+09
1.25e+09
1.25e+09
1.25e+09
1.25e+09
1.25e+09
1.25e+09
1.25e+09
1.25e+09
1.25e+09
1.25e+09
1.25e+09
1.25e+09
1.25e+09
1.25e+09
1.25e+09
1.25e+09
1.25e+09
1.25e+09
1.25e+09
1.25e+09
1.25e+09
1.25e+09
1.25e+09
1.25e+09
1.25e+09
1.25e+09
1.25e+09
1.25e+09
1.25e+09
1.25e+09
1.25e+09
1.25e+09
1.25e+09
1.25e+09
1.25e+09
1.25e+09
1.25e+09
1.25e+09
1.25e+09
1.25e+09
1.25e+09
1.25e+09
1.25e+09
1.25e+09
1.25e+09
1.25e+09
1.25e+09
1.25e+09
1.25e+09
1.25e+09
1.25e+09
1.25e+09
1.25e+09
1.25e+09
1.25e+09
1.25e+09
1.25e+09
1.25e+09
1.25e+09
1.25e+09
1.25e+09
1.25e+09
1.25e+09
1.25e+09
1.25e+09
1.25e+09
1.25e+09
1.25e+09
)
;

boundaryField
{
    wireUpstream
    {
        type            calculated;
        value           uniform 1.25e+09;
    }
    wireDownstream
    {
        type            calculated;
        value           nonuniform List<scalar> 
16
(
1.28467e+09
1.28471e+09
1.28482e+09
1.28493e+09
1.28506e+09
1.28517e+09
1.2853e+09
1.28536e+09
1.28534e+09
1.28508e+09
1.28463e+09
1.28384e+09
1.28276e+09
1.28194e+09
1.28148e+09
1.28462e+09
)
;
    }
    wireTopContact
    {
        type            calculated;
        value           nonuniform List<scalar> 
122
(
1.28139e+09
1.28141e+09
1.28144e+09
1.28146e+09
1.28148e+09
1.2815e+09
1.28152e+09
1.28155e+09
1.28157e+09
1.28159e+09
1.28161e+09
1.28163e+09
1.28165e+09
1.28168e+09
1.2817e+09
1.28172e+09
1.28174e+09
1.28176e+09
1.28179e+09
1.28181e+09
1.28183e+09
1.28185e+09
1.28187e+09
1.28189e+09
1.28192e+09
1.28194e+09
1.28196e+09
1.28198e+09
1.282e+09
1.28202e+09
1.28205e+09
1.28207e+09
1.28209e+09
1.28211e+09
1.28213e+09
1.28216e+09
1.28218e+09
1.2822e+09
1.28222e+09
1.28224e+09
1.28226e+09
1.28229e+09
1.28231e+09
1.28233e+09
1.28235e+09
1.28237e+09
1.2824e+09
1.28241e+09
1.28236e+09
1.28216e+09
1.28173e+09
1.281e+09
1.28003e+09
1.27886e+09
1.27753e+09
1.27611e+09
1.27463e+09
1.27311e+09
1.27155e+09
1.26994e+09
1.26831e+09
1.26666e+09
1.26502e+09
1.2634e+09
1.26182e+09
1.26028e+09
1.25881e+09
1.2574e+09
1.25604e+09
1.25472e+09
1.25343e+09
1.25219e+09
1.25114e+09
1.25038e+09
1.25e+09
1.25e+09
1.25e+09
1.25e+09
1.25e+09
1.25e+09
1.25e+09
1.25e+09
1.25e+09
1.25e+09
1.25e+09
1.25e+09
1.25e+09
1.25e+09
1.25e+09
1.25e+09
1.25e+09
1.25e+09
1.25e+09
1.25e+09
1.25e+09
1.25e+09
1.25e+09
1.25e+09
1.25e+09
1.25e+09
1.25e+09
1.25e+09
1.25e+09
1.25e+09
1.25e+09
1.25e+09
1.25e+09
1.25e+09
1.25e+09
1.25e+09
1.25e+09
1.25e+09
1.25e+09
1.25e+09
1.25e+09
1.25e+09
1.25e+09
1.25e+09
1.25e+09
1.25e+09
1.25e+09
1.28137e+09
)
;
    }
    front
    {
        type            wedge;
    }
    back
    {
        type            wedge;
    }
}


// ************************************************************************* //
