/*--------------------------------*- C++ -*----------------------------------*\
| =========                 |                                                 |
| \\      /  F ield         | foam-extend: Open Source CFD                    |
|  \\    /   O peration     | Version:     4.1-20200408                       |
|   \\  /    A nd           | Web:         http://www.foam-extend.org         |
|    \\/     M anipulation  |                                                 |
\*---------------------------------------------------------------------------*/
FoamFile
{
    version     2.0;
    format      ascii;
    class       volVectorField;
    location    "0.0880000";
    object      U_0_0;
}
// * * * * * * * * * * * * * * * * * * * * * * * * * * * * * * * * * * * * * //

dimensions      [0 1 0 0 0 0 0];

internalField   nonuniform List<vector> 
1952
(
(0.0847014 -3.31444e-06 0)
(0.0847011 -5.39129e-06 0)
(0.0847006 -7.4931e-06 0)
(0.0846999 -9.59078e-06 0)
(0.0846991 -1.16905e-05 0)
(0.0846982 -1.37718e-05 0)
(0.0846973 -1.58531e-05 0)
(0.0846962 -1.79094e-05 0)
(0.0846952 -1.99643e-05 0)
(0.0846942 -2.1987e-05 0)
(0.0846932 -2.3999e-05 0)
(0.0846924 -2.59743e-05 0)
(0.0846917 -2.79189e-05 0)
(0.0846914 -2.98252e-05 0)
(0.0846913 -3.17018e-05 0)
(0.0847016 -1.42034e-06 0)
(0.0846972 -3.31596e-06 0)
(0.0846968 -5.39379e-06 0)
(0.0846963 -7.49658e-06 0)
(0.0846956 -9.59531e-06 0)
(0.0846949 -1.16961e-05 0)
(0.084694 -1.37785e-05 0)
(0.084693 -1.58609e-05 0)
(0.084692 -1.79184e-05 0)
(0.0846909 -1.99745e-05 0)
(0.0846899 -2.19985e-05 0)
(0.0846889 -2.40118e-05 0)
(0.0846881 -2.59885e-05 0)
(0.0846874 -2.79345e-05 0)
(0.0846871 -2.98422e-05 0)
(0.084687 -3.17201e-05 0)
(0.0846973 -1.421e-06 0)
(0.0846929 -3.31771e-06 0)
(0.0846925 -5.39666e-06 0)
(0.084692 -7.50058e-06 0)
(0.0846914 -9.60048e-06 0)
(0.0846906 -1.17024e-05 0)
(0.0846897 -1.37861e-05 0)
(0.0846887 -1.58697e-05 0)
(0.0846877 -1.79285e-05 0)
(0.0846867 -1.99859e-05 0)
(0.0846856 -2.20113e-05 0)
(0.0846846 -2.4026e-05 0)
(0.0846838 -2.60042e-05 0)
(0.0846832 -2.79515e-05 0)
(0.0846828 -2.98606e-05 0)
(0.0846827 -3.17397e-05 0)
(0.084693 -1.42175e-06 0)
(0.0846886 -3.31964e-06 0)
(0.0846883 -5.39982e-06 0)
(0.0846878 -7.50497e-06 0)
(0.0846871 -9.60615e-06 0)
(0.0846863 -1.17093e-05 0)
(0.0846854 -1.37943e-05 0)
(0.0846845 -1.58793e-05 0)
(0.0846834 -1.79396e-05 0)
(0.0846824 -1.99983e-05 0)
(0.0846813 -2.20252e-05 0)
(0.0846804 -2.40413e-05 0)
(0.0846795 -2.60209e-05 0)
(0.0846789 -2.79695e-05 0)
(0.0846785 -2.988e-05 0)
(0.0846784 -3.17603e-05 0)
(0.0846888 -1.42258e-06 0)
(0.0846844 -3.32174e-06 0)
(0.084684 -5.40323e-06 0)
(0.0846835 -7.50973e-06 0)
(0.0846828 -9.61228e-06 0)
(0.0846821 -1.17168e-05 0)
(0.0846812 -1.38032e-05 0)
(0.0846802 -1.58896e-05 0)
(0.0846791 -1.79513e-05 0)
(0.0846781 -2.00114e-05 0)
(0.0846771 -2.20397e-05 0)
(0.0846761 -2.40573e-05 0)
(0.0846753 -2.60383e-05 0)
(0.0846746 -2.79882e-05 0)
(0.0846742 -2.99001e-05 0)
(0.0846741 -3.17817e-05 0)
(0.0846845 -1.42347e-06 0)
(0.0846801 -3.32393e-06 0)
(0.0846797 -5.40681e-06 0)
(0.0846792 -7.51471e-06 0)
(0.0846786 -9.61869e-06 0)
(0.0846778 -1.17246e-05 0)
(0.0846769 -1.38125e-05 0)
(0.0846759 -1.59003e-05 0)
(0.0846749 -1.79635e-05 0)
(0.0846738 -2.0025e-05 0)
(0.0846728 -2.20548e-05 0)
(0.0846718 -2.40738e-05 0)
(0.084671 -2.60562e-05 0)
(0.0846703 -2.80074e-05 0)
(0.08467 -2.99207e-05 0)
(0.0846698 -3.18035e-05 0)
(0.0846802 -1.42441e-06 0)
(0.0846758 -3.32621e-06 0)
(0.0846754 -5.41053e-06 0)
(0.0846749 -7.51987e-06 0)
(0.0846743 -9.62532e-06 0)
(0.0846735 -1.17327e-05 0)
(0.0846726 -1.38221e-05 0)
(0.0846716 -1.59113e-05 0)
(0.0846706 -1.7976e-05 0)
(0.0846695 -2.0039e-05 0)
(0.0846685 -2.20702e-05 0)
(0.0846675 -2.40906e-05 0)
(0.0846667 -2.60745e-05 0)
(0.084666 -2.8027e-05 0)
(0.0846657 -2.99417e-05 0)
(0.0846656 -3.18257e-05 0)
(0.0846759 -1.42539e-06 0)
(0.0846715 -3.32854e-06 0)
(0.0846712 -5.41433e-06 0)
(0.0846707 -7.52515e-06 0)
(0.08467 -9.63211e-06 0)
(0.0846692 -1.1741e-05 0)
(0.0846683 -1.38318e-05 0)
(0.0846673 -1.59225e-05 0)
(0.0846663 -1.79887e-05 0)
(0.0846652 -2.00532e-05 0)
(0.0846642 -2.20859e-05 0)
(0.0846632 -2.41077e-05 0)
(0.0846624 -2.6093e-05 0)
(0.0846617 -2.80469e-05 0)
(0.0846614 -2.99628e-05 0)
(0.0846613 -3.18482e-05 0)
(0.0846716 -1.42639e-06 0)
(0.0846672 -3.33091e-06 0)
(0.0846669 -5.41818e-06 0)
(0.0846664 -7.53049e-06 0)
(0.0846657 -9.63897e-06 0)
(0.0846649 -1.17493e-05 0)
(0.084664 -1.38417e-05 0)
(0.0846631 -1.59339e-05 0)
(0.084662 -1.80016e-05 0)
(0.084661 -2.00675e-05 0)
(0.0846599 -2.21017e-05 0)
(0.0846589 -2.41249e-05 0)
(0.0846581 -2.61115e-05 0)
(0.0846574 -2.80668e-05 0)
(0.0846571 -2.99841e-05 0)
(0.084657 -3.18708e-05 0)
(0.0846674 -1.4274e-06 0)
(0.0846629 -3.33329e-06 0)
(0.0846626 -5.42206e-06 0)
(0.0846621 -7.53588e-06 0)
(0.0846614 -9.64589e-06 0)
(0.0846606 -1.17577e-05 0)
(0.0846597 -1.38516e-05 0)
(0.0846588 -1.59453e-05 0)
(0.0846577 -1.80145e-05 0)
(0.0846567 -2.00818e-05 0)
(0.0846556 -2.21175e-05 0)
(0.0846546 -2.41421e-05 0)
(0.0846538 -2.61302e-05 0)
(0.0846531 -2.80868e-05 0)
(0.0846528 -3.00055e-05 0)
(0.0846527 -3.18935e-05 0)
(0.0846631 -1.42843e-06 0)
(0.0846587 -3.33567e-06 0)
(0.0846583 -5.42594e-06 0)
(0.0846578 -7.54125e-06 0)
(0.0846571 -9.65278e-06 0)
(0.0846563 -1.17661e-05 0)
(0.0846554 -1.38615e-05 0)
(0.0846545 -1.59567e-05 0)
(0.0846534 -1.80274e-05 0)
(0.0846524 -2.00962e-05 0)
(0.0846513 -2.21333e-05 0)
(0.0846503 -2.41593e-05 0)
(0.0846495 -2.61488e-05 0)
(0.0846488 -2.81067e-05 0)
(0.0846485 -3.00268e-05 0)
(0.0846484 -3.19161e-05 0)
(0.0846588 -1.42945e-06 0)
(0.0846544 -3.33804e-06 0)
(0.084654 -5.42981e-06 0)
(0.0846535 -7.54662e-06 0)
(0.0846528 -9.65967e-06 0)
(0.084652 -1.17745e-05 0)
(0.0846511 -1.38714e-05 0)
(0.0846502 -1.5968e-05 0)
(0.0846491 -1.80403e-05 0)
(0.0846481 -2.01104e-05 0)
(0.084647 -2.2149e-05 0)
(0.084646 -2.41764e-05 0)
(0.0846452 -2.61673e-05 0)
(0.0846445 -2.81266e-05 0)
(0.0846442 -3.00481e-05 0)
(0.0846441 -3.19387e-05 0)
(0.0846545 -1.43047e-06 0)
(0.0846501 -3.3404e-06 0)
(0.0846497 -5.43365e-06 0)
(0.0846492 -7.55194e-06 0)
(0.0846485 -9.6665e-06 0)
(0.0846477 -1.17828e-05 0)
(0.0846468 -1.38812e-05 0)
(0.0846459 -1.59793e-05 0)
(0.0846448 -1.8053e-05 0)
(0.0846438 -2.01246e-05 0)
(0.0846427 -2.21646e-05 0)
(0.0846417 -2.41934e-05 0)
(0.0846409 -2.61857e-05 0)
(0.0846402 -2.81463e-05 0)
(0.0846399 -3.00692e-05 0)
(0.0846398 -3.19612e-05 0)
(0.0846502 -1.43148e-06 0)
(0.0846457 -3.34273e-06 0)
(0.0846454 -5.43745e-06 0)
(0.0846449 -7.55721e-06 0)
(0.0846442 -9.67326e-06 0)
(0.0846434 -1.1791e-05 0)
(0.0846425 -1.38909e-05 0)
(0.0846416 -1.59904e-05 0)
(0.0846405 -1.80656e-05 0)
(0.0846394 -2.01385e-05 0)
(0.0846384 -2.218e-05 0)
(0.0846374 -2.42102e-05 0)
(0.0846366 -2.6204e-05 0)
(0.0846359 -2.81659e-05 0)
(0.0846356 -3.00902e-05 0)
(0.0846355 -3.19836e-05 0)
(0.0846459 -1.43248e-06 0)
(0.0846414 -3.34502e-06 0)
(0.0846411 -5.44119e-06 0)
(0.0846406 -7.56239e-06 0)
(0.0846399 -9.67992e-06 0)
(0.0846391 -1.1799e-05 0)
(0.0846382 -1.39005e-05 0)
(0.0846372 -1.60013e-05 0)
(0.0846362 -1.8078e-05 0)
(0.0846351 -2.01524e-05 0)
(0.0846341 -2.21953e-05 0)
(0.0846331 -2.42269e-05 0)
(0.0846323 -2.62221e-05 0)
(0.0846316 -2.81854e-05 0)
(0.0846313 -3.01111e-05 0)
(0.0846311 -3.2006e-05 0)
(0.0846416 -1.43346e-06 0)
(0.0846371 -3.34728e-06 0)
(0.0846368 -5.44486e-06 0)
(0.0846363 -7.56749e-06 0)
(0.0846356 -9.68647e-06 0)
(0.0846348 -1.1807e-05 0)
(0.0846339 -1.39099e-05 0)
(0.0846329 -1.60121e-05 0)
(0.0846319 -1.80903e-05 0)
(0.0846308 -2.0166e-05 0)
(0.0846298 -2.22104e-05 0)
(0.0846288 -2.42434e-05 0)
(0.084628 -2.62401e-05 0)
(0.0846273 -2.82048e-05 0)
(0.0846269 -3.0132e-05 0)
(0.0846268 -3.20283e-05 0)
(0.0846373 -1.43443e-06 0)
(0.0846328 -3.34949e-06 0)
(0.0846324 -5.44847e-06 0)
(0.084632 -7.57249e-06 0)
(0.0846313 -9.69291e-06 0)
(0.0846305 -1.18148e-05 0)
(0.0846296 -1.39191e-05 0)
(0.0846286 -1.60228e-05 0)
(0.0846276 -1.81024e-05 0)
(0.0846265 -2.01795e-05 0)
(0.0846255 -2.22254e-05 0)
(0.0846245 -2.42598e-05 0)
(0.0846236 -2.62579e-05 0)
(0.084623 -2.82241e-05 0)
(0.0846226 -3.01527e-05 0)
(0.0846225 -3.20505e-05 0)
(0.0846329 -1.43538e-06 0)
(0.0846285 -3.35166e-06 0)
(0.0846281 -5.45202e-06 0)
(0.0846276 -7.5774e-06 0)
(0.084627 -9.69924e-06 0)
(0.0846262 -1.18225e-05 0)
(0.0846253 -1.39283e-05 0)
(0.0846243 -1.60333e-05 0)
(0.0846232 -1.81145e-05 0)
(0.0846222 -2.01929e-05 0)
(0.0846211 -2.22403e-05 0)
(0.0846202 -2.4276e-05 0)
(0.0846193 -2.62757e-05 0)
(0.0846187 -2.82432e-05 0)
(0.0846183 -3.01734e-05 0)
(0.0846182 -3.20727e-05 0)
(0.0846286 -1.43631e-06 0)
(0.0846242 -3.35381e-06 0)
(0.0846238 -5.45552e-06 0)
(0.0846233 -7.58226e-06 0)
(0.0846226 -9.70551e-06 0)
(0.0846219 -1.18301e-05 0)
(0.084621 -1.39374e-05 0)
(0.08462 -1.60437e-05 0)
(0.0846189 -1.81264e-05 0)
(0.0846179 -2.02061e-05 0)
(0.0846168 -2.2255e-05 0)
(0.0846158 -2.42922e-05 0)
(0.084615 -2.62934e-05 0)
(0.0846143 -2.82623e-05 0)
(0.084614 -3.0194e-05 0)
(0.0846139 -3.20948e-05 0)
(0.0846243 -1.43723e-06 0)
(0.0846199 -3.35592e-06 0)
(0.0846195 -5.45897e-06 0)
(0.084619 -7.58704e-06 0)
(0.0846183 -9.71169e-06 0)
(0.0846175 -1.18376e-05 0)
(0.0846166 -1.39463e-05 0)
(0.0846156 -1.6054e-05 0)
(0.0846146 -1.81381e-05 0)
(0.0846135 -2.02193e-05 0)
(0.0846125 -2.22697e-05 0)
(0.0846115 -2.43082e-05 0)
(0.0846107 -2.63109e-05 0)
(0.08461 -2.82813e-05 0)
(0.0846096 -3.02146e-05 0)
(0.0846095 -3.21168e-05 0)
(0.08462 -1.43813e-06 0)
(0.0846155 -3.35802e-06 0)
(0.0846152 -5.4624e-06 0)
(0.0846147 -7.5918e-06 0)
(0.084614 -9.71784e-06 0)
(0.0846132 -1.18451e-05 0)
(0.0846123 -1.39552e-05 0)
(0.0846113 -1.60642e-05 0)
(0.0846103 -1.81498e-05 0)
(0.0846092 -2.02323e-05 0)
(0.0846082 -2.22842e-05 0)
(0.0846072 -2.43242e-05 0)
(0.0846063 -2.63284e-05 0)
(0.0846057 -2.83003e-05 0)
(0.0846053 -3.0235e-05 0)
(0.0846052 -3.21388e-05 0)
(0.0846157 -1.43903e-06 0)
(0.0846112 -3.36009e-06 0)
(0.0846108 -5.46578e-06 0)
(0.0846103 -7.5965e-06 0)
(0.0846097 -9.72391e-06 0)
(0.0846089 -1.18524e-05 0)
(0.084608 -1.3964e-05 0)
(0.084607 -1.60743e-05 0)
(0.0846059 -1.81615e-05 0)
(0.0846049 -2.02453e-05 0)
(0.0846038 -2.22987e-05 0)
(0.0846028 -2.434e-05 0)
(0.084602 -2.63458e-05 0)
(0.0846013 -2.83191e-05 0)
(0.084601 -3.02554e-05 0)
(0.0846009 -3.21607e-05 0)
(0.0846113 -1.43992e-06 0)
(0.0846069 -3.36217e-06 0)
(0.0846065 -5.46917e-06 0)
(0.084606 -7.60119e-06 0)
(0.0846053 -9.72998e-06 0)
(0.0846045 -1.18598e-05 0)
(0.0846036 -1.39728e-05 0)
(0.0846027 -1.60844e-05 0)
(0.0846016 -1.8173e-05 0)
(0.0846005 -2.02581e-05 0)
(0.0845995 -2.23131e-05 0)
(0.0845985 -2.43558e-05 0)
(0.0845977 -2.63631e-05 0)
(0.084597 -2.83379e-05 0)
(0.0845966 -3.02757e-05 0)
(0.0845965 -3.21826e-05 0)
(0.084607 -1.44081e-06 0)
(0.0846025 -3.36423e-06 0)
(0.0846022 -5.47254e-06 0)
(0.0846017 -7.60585e-06 0)
(0.084601 -9.73601e-06 0)
(0.0846002 -1.18671e-05 0)
(0.0845993 -1.39815e-05 0)
(0.0845983 -1.60944e-05 0)
(0.0845973 -1.81845e-05 0)
(0.0845962 -2.02709e-05 0)
(0.0845951 -2.23274e-05 0)
(0.0845942 -2.43715e-05 0)
(0.0845933 -2.63803e-05 0)
(0.0845926 -2.83565e-05 0)
(0.0845923 -3.0296e-05 0)
(0.0845922 -3.22045e-05 0)
(0.0846027 -1.4417e-06 0)
(0.0845982 -3.3663e-06 0)
(0.0845978 -5.47592e-06 0)
(0.0845973 -7.61051e-06 0)
(0.0845967 -9.74204e-06 0)
(0.0845959 -1.18744e-05 0)
(0.084595 -1.39902e-05 0)
(0.084594 -1.61043e-05 0)
(0.0845929 -1.81959e-05 0)
(0.0845919 -2.02836e-05 0)
(0.0845908 -2.23416e-05 0)
(0.0845898 -2.43871e-05 0)
(0.084589 -2.63976e-05 0)
(0.0845883 -2.83753e-05 0)
(0.0845879 -3.03164e-05 0)
(0.0845878 -3.22265e-05 0)
(0.0845983 -1.44259e-06 0)
(0.0845939 -3.36838e-06 0)
(0.0845935 -5.47932e-06 0)
(0.084593 -7.6152e-06 0)
(0.0845923 -9.74812e-06 0)
(0.0845915 -1.18817e-05 0)
(0.0845906 -1.3999e-05 0)
(0.0845896 -1.61143e-05 0)
(0.0845886 -1.82075e-05 0)
(0.0845875 -2.02963e-05 0)
(0.0845865 -2.23559e-05 0)
(0.0845855 -2.44028e-05 0)
(0.0845846 -2.64149e-05 0)
(0.0845839 -2.83941e-05 0)
(0.0845836 -3.03368e-05 0)
(0.0845835 -3.22486e-05 0)
(0.084594 -1.44348e-06 0)
(0.0845895 -3.37051e-06 0)
(0.0845891 -5.48279e-06 0)
(0.0845886 -7.61998e-06 0)
(0.084588 -9.75431e-06 0)
(0.0845872 -1.18891e-05 0)
(0.0845863 -1.40079e-05 0)
(0.0845853 -1.61244e-05 0)
(0.0845842 -1.82191e-05 0)
(0.0845832 -2.03093e-05 0)
(0.0845821 -2.23704e-05 0)
(0.0845811 -2.44186e-05 0)
(0.0845803 -2.64323e-05 0)
(0.0845796 -2.8413e-05 0)
(0.0845792 -3.03574e-05 0)
(0.0845791 -3.22709e-05 0)
(0.0845896 -1.44439e-06 0)
(0.0845852 -3.37271e-06 0)
(0.0845848 -5.48638e-06 0)
(0.0845843 -7.62493e-06 0)
(0.0845836 -9.76073e-06 0)
(0.0845828 -1.18968e-05 0)
(0.0845819 -1.40171e-05 0)
(0.0845809 -1.61348e-05 0)
(0.0845799 -1.82311e-05 0)
(0.0845788 -2.03225e-05 0)
(0.0845777 -2.23852e-05 0)
(0.0845768 -2.44348e-05 0)
(0.0845759 -2.64501e-05 0)
(0.0845752 -2.84322e-05 0)
(0.0845749 -3.03783e-05 0)
(0.0845748 -3.22935e-05 0)
(0.0845853 -1.44534e-06 0)
(0.0845808 -3.37505e-06 0)
(0.0845804 -5.4902e-06 0)
(0.08458 -7.63018e-06 0)
(0.0845793 -9.7675e-06 0)
(0.0845785 -1.19049e-05 0)
(0.0845776 -1.40268e-05 0)
(0.0845766 -1.61457e-05 0)
(0.0845755 -1.82436e-05 0)
(0.0845744 -2.03361e-05 0)
(0.0845734 -2.24005e-05 0)
(0.0845724 -2.44513e-05 0)
(0.0845716 -2.64682e-05 0)
(0.0845709 -2.84519e-05 0)
(0.0845705 -3.03996e-05 0)
(0.0845704 -3.23165e-05 0)
(0.084581 -1.44634e-06 0)
(0.0845765 -3.37759e-06 0)
(0.0845761 -5.49433e-06 0)
(0.0845756 -7.63582e-06 0)
(0.0845749 -9.77477e-06 0)
(0.0845741 -1.19135e-05 0)
(0.0845732 -1.40371e-05 0)
(0.0845722 -1.61572e-05 0)
(0.0845712 -1.82567e-05 0)
(0.0845701 -2.03504e-05 0)
(0.084569 -2.24164e-05 0)
(0.084568 -2.44685e-05 0)
(0.0845672 -2.6487e-05 0)
(0.0845665 -2.84722e-05 0)
(0.0845661 -3.04216e-05 0)
(0.084566 -3.23403e-05 0)
(0.0845766 -1.44743e-06 0)
(0.0845721 -3.3804e-06 0)
(0.0845717 -5.4989e-06 0)
(0.0845712 -7.64206e-06 0)
(0.0845706 -9.78279e-06 0)
(0.0845698 -1.1923e-05 0)
(0.0845689 -1.40483e-05 0)
(0.0845679 -1.61697e-05 0)
(0.0845668 -1.82709e-05 0)
(0.0845657 -2.03658e-05 0)
(0.0845647 -2.24334e-05 0)
(0.0845637 -2.44867e-05 0)
(0.0845628 -2.65068e-05 0)
(0.0845621 -2.84934e-05 0)
(0.0845618 -3.04446e-05 0)
(0.0845617 -3.23651e-05 0)
(0.0845722 -1.44864e-06 0)
(0.0845678 -3.38359e-06 0)
(0.0845674 -5.50406e-06 0)
(0.0845669 -7.64909e-06 0)
(0.0845662 -9.79179e-06 0)
(0.0845654 -1.19336e-05 0)
(0.0845645 -1.40608e-05 0)
(0.0845635 -1.61835e-05 0)
(0.0845624 -1.82866e-05 0)
(0.0845614 -2.03825e-05 0)
(0.0845603 -2.24518e-05 0)
(0.0845593 -2.45063e-05 0)
(0.0845584 -2.65281e-05 0)
(0.0845578 -2.85161e-05 0)
(0.0845574 -3.04689e-05 0)
(0.0845573 -3.23914e-05 0)
(0.0845679 -1.45001e-06 0)
(0.0845634 -3.38727e-06 0)
(0.084563 -5.51003e-06 0)
(0.0845625 -7.65721e-06 0)
(0.0845618 -9.80215e-06 0)
(0.0845611 -1.19458e-05 0)
(0.0845601 -1.4075e-05 0)
(0.0845591 -1.61993e-05 0)
(0.0845581 -1.83042e-05 0)
(0.084557 -2.04014e-05 0)
(0.0845559 -2.24723e-05 0)
(0.0845549 -2.4528e-05 0)
(0.0845541 -2.65513e-05 0)
(0.0845534 -2.85407e-05 0)
(0.084553 -3.04952e-05 0)
(0.0845529 -3.24195e-05 0)
(0.0845635 -1.45159e-06 0)
(0.084559 -3.39163e-06 0)
(0.0845587 -5.51707e-06 0)
(0.0845582 -7.66678e-06 0)
(0.0845575 -9.81431e-06 0)
(0.0845567 -1.196e-05 0)
(0.0845558 -1.40917e-05 0)
(0.0845548 -1.62175e-05 0)
(0.0845537 -1.83245e-05 0)
(0.0845526 -2.04228e-05 0)
(0.0845516 -2.24956e-05 0)
(0.0845506 -2.45523e-05 0)
(0.0845497 -2.65772e-05 0)
(0.084549 -2.85679e-05 0)
(0.0845486 -3.0524e-05 0)
(0.0845485 -3.24501e-05 0)
(0.0845592 -1.45346e-06 0)
(0.0845547 -3.39682e-06 0)
(0.0845543 -5.52547e-06 0)
(0.0845538 -7.67816e-06 0)
(0.0845531 -9.82876e-06 0)
(0.0845523 -1.19769e-05 0)
(0.0845514 -1.41113e-05 0)
(0.0845504 -1.6239e-05 0)
(0.0845493 -1.83483e-05 0)
(0.0845483 -2.0448e-05 0)
(0.0845472 -2.25225e-05 0)
(0.0845462 -2.45803e-05 0)
(0.0845453 -2.66067e-05 0)
(0.0845446 -2.85985e-05 0)
(0.0845442 -3.05561e-05 0)
(0.0845441 -3.2484e-05 0)
(0.0845548 -1.45568e-06 0)
(0.0845503 -3.4031e-06 0)
(0.0845499 -5.53561e-06 0)
(0.0845494 -7.69194e-06 0)
(0.0845487 -9.84619e-06 0)
(0.084548 -1.19974e-05 0)
(0.084547 -1.41349e-05 0)
(0.084546 -1.62648e-05 0)
(0.084545 -1.83767e-05 0)
(0.0845439 -2.04777e-05 0)
(0.0845428 -2.25542e-05 0)
(0.0845418 -2.46129e-05 0)
(0.0845409 -2.66407e-05 0)
(0.0845402 -2.86335e-05 0)
(0.0845399 -3.05924e-05 0)
(0.0845397 -3.25221e-05 0)
(0.0845504 -1.45838e-06 0)
(0.0845459 -3.4107e-06 0)
(0.0845455 -5.54787e-06 0)
(0.084545 -7.7086e-06 0)
(0.0845444 -9.86724e-06 0)
(0.0845436 -1.2022e-05 0)
(0.0845427 -1.41634e-05 0)
(0.0845417 -1.62959e-05 0)
(0.0845406 -1.84108e-05 0)
(0.0845395 -2.05133e-05 0)
(0.0845384 -2.2592e-05 0)
(0.0845374 -2.46514e-05 0)
(0.0845365 -2.66807e-05 0)
(0.0845359 -2.86742e-05 0)
(0.0845355 -3.06343e-05 0)
(0.0845353 -3.25656e-05 0)
(0.084546 -1.46164e-06 0)
(0.0845415 -3.41989e-06 0)
(0.0845412 -5.56272e-06 0)
(0.0845407 -7.7288e-06 0)
(0.08454 -9.89274e-06 0)
(0.0845392 -1.2052e-05 0)
(0.0845383 -1.41979e-05 0)
(0.0845373 -1.63335e-05 0)
(0.0845362 -1.8452e-05 0)
(0.0845351 -2.05564e-05 0)
(0.084534 -2.26374e-05 0)
(0.084533 -2.46976e-05 0)
(0.0845322 -2.67282e-05 0)
(0.0845315 -2.87222e-05 0)
(0.0845311 -3.06831e-05 0)
(0.0845309 -3.26158e-05 0)
(0.0845417 -1.46559e-06 0)
(0.0845371 -3.43097e-06 0)
(0.0845368 -5.5806e-06 0)
(0.0845363 -7.75317e-06 0)
(0.0845356 -9.92351e-06 0)
(0.0845348 -1.20882e-05 0)
(0.0845339 -1.42396e-05 0)
(0.0845329 -1.63793e-05 0)
(0.0845318 -1.8502e-05 0)
(0.0845307 -2.06086e-05 0)
(0.0845297 -2.26924e-05 0)
(0.0845286 -2.47534e-05 0)
(0.0845278 -2.67853e-05 0)
(0.0845271 -2.87794e-05 0)
(0.0845267 -3.07409e-05 0)
(0.0845265 -3.26746e-05 0)
(0.0845373 -1.47034e-06 0)
(0.0845327 -3.4442e-06 0)
(0.0845323 -5.60197e-06 0)
(0.0845318 -7.78236e-06 0)
(0.0845312 -9.96037e-06 0)
(0.0845304 -1.21318e-05 0)
(0.0845295 -1.42898e-05 0)
(0.0845285 -1.64345e-05 0)
(0.0845274 -1.85624e-05 0)
(0.0845263 -2.0672e-05 0)
(0.0845253 -2.27593e-05 0)
(0.0845242 -2.48212e-05 0)
(0.0845234 -2.68545e-05 0)
(0.0845227 -2.88484e-05 0)
(0.0845222 -3.081e-05 0)
(0.0845221 -3.27443e-05 0)
(0.0845328 -1.47601e-06 0)
(0.0845283 -3.45984e-06 0)
(0.0845279 -5.62727e-06 0)
(0.0845274 -7.81698e-06 0)
(0.0845268 -1.00042e-05 0)
(0.084526 -1.21838e-05 0)
(0.0845251 -1.43498e-05 0)
(0.0845241 -1.65009e-05 0)
(0.084523 -1.86353e-05 0)
(0.0845219 -2.07488e-05 0)
(0.0845209 -2.28403e-05 0)
(0.0845199 -2.49036e-05 0)
(0.084519 -2.69388e-05 0)
(0.0845183 -2.8932e-05 0)
(0.0845178 -3.08934e-05 0)
(0.0845177 -3.28276e-05 0)
(0.0845284 -1.48272e-06 0)
(0.0845238 -3.47804e-06 0)
(0.0845235 -5.65674e-06 0)
(0.084523 -7.85743e-06 0)
(0.0845223 -1.00554e-05 0)
(0.0845215 -1.22449e-05 0)
(0.0845206 -1.44207e-05 0)
(0.0845197 -1.65797e-05 0)
(0.0845186 -1.87221e-05 0)
(0.0845175 -2.0841e-05 0)
(0.0845165 -2.29383e-05 0)
(0.0845155 -2.50037e-05 0)
(0.0845146 -2.70416e-05 0)
(0.0845139 -2.9034e-05 0)
(0.0845134 -3.09946e-05 0)
(0.0845132 -3.29273e-05 0)
(0.084524 -1.49053e-06 0)
(0.0845194 -3.49888e-06 0)
(0.084519 -5.69053e-06 0)
(0.0845185 -7.90395e-06 0)
(0.0845179 -1.01145e-05 0)
(0.0845171 -1.23157e-05 0)
(0.0845162 -1.4503e-05 0)
(0.0845152 -1.6672e-05 0)
(0.0845142 -1.88244e-05 0)
(0.0845131 -2.09506e-05 0)
(0.0845121 -2.30559e-05 0)
(0.084511 -2.51251e-05 0)
(0.0845102 -2.71676e-05 0)
(0.0845094 -2.91601e-05 0)
(0.084509 -3.11206e-05 0)
(0.0845088 -3.30508e-05 0)
(0.0845195 -1.49946e-06 0)
(0.0845149 -3.52224e-06 0)
(0.0845145 -5.72843e-06 0)
(0.084514 -7.95628e-06 0)
(0.0845134 -1.01812e-05 0)
(0.0845126 -1.23959e-05 0)
(0.0845117 -1.45967e-05 0)
(0.0845108 -1.67778e-05 0)
(0.0845097 -1.89426e-05 0)
(0.0845087 -2.10786e-05 0)
(0.0845076 -2.31947e-05 0)
(0.0845066 -2.52709e-05 0)
(0.0845058 -2.73221e-05 0)
(0.084505 -2.93185e-05 0)
(0.0845046 -3.12838e-05 0)
(0.0845044 -3.32152e-05 0)
(0.084515 -1.50948e-06 0)
(0.0845103 -3.5478e-06 0)
(0.08451 -5.76996e-06 0)
(0.0845095 -8.01375e-06 0)
(0.0845089 -1.02545e-05 0)
(0.0845081 -1.24846e-05 0)
(0.0845072 -1.47007e-05 0)
(0.0845063 -1.68961e-05 0)
(0.0845053 -1.90755e-05 0)
(0.0845042 -2.1224e-05 0)
(0.0845032 -2.33541e-05 0)
(0.0845022 -2.54406e-05 0)
(0.0845013 -2.75053e-05 0)
(0.0845006 -2.95111e-05 0)
(0.0845002 -3.14898e-05 0)
(0.0844999 -3.34326e-05 0)
(0.0845105 -1.52043e-06 0)
(0.0845058 -3.57499e-06 0)
(0.0845054 -5.81417e-06 0)
(0.0845049 -8.07508e-06 0)
(0.0845043 -1.03329e-05 0)
(0.0845036 -1.25799e-05 0)
(0.0845027 -1.48127e-05 0)
(0.0845018 -1.70243e-05 0)
(0.0845008 -1.922e-05 0)
(0.0844998 -2.13832e-05 0)
(0.0844987 -2.35295e-05 0)
(0.0844978 -2.56283e-05 0)
(0.0844969 -2.77093e-05 0)
(0.0844962 -2.97256e-05 0)
(0.0844958 -3.17196e-05 0)
(0.0844955 -3.36736e-05 0)
(0.0845059 -1.53208e-06 0)
(0.0845012 -3.60297e-06 0)
(0.0845008 -5.85973e-06 0)
(0.0845004 -8.13841e-06 0)
(0.0844997 -1.0414e-05 0)
(0.084499 -1.26788e-05 0)
(0.0844982 -1.49292e-05 0)
(0.0844973 -1.71582e-05 0)
(0.0844963 -1.93714e-05 0)
(0.0844953 -2.15509e-05 0)
(0.0844943 -2.37147e-05 0)
(0.0844933 -2.58272e-05 0)
(0.0844925 -2.79259e-05 0)
(0.0844918 -2.99521e-05 0)
(0.0844913 -3.19615e-05 0)
(0.0844911 -3.39244e-05 0)
(0.0845013 -1.54408e-06 0)
(0.0844965 -3.63068e-06 0)
(0.0844962 -5.90484e-06 0)
(0.0844957 -8.20125e-06 0)
(0.0844951 -1.04946e-05 0)
(0.0844944 -1.27773e-05 0)
(0.0844936 -1.50455e-05 0)
(0.0844927 -1.72926e-05 0)
(0.0844917 -1.95237e-05 0)
(0.0844907 -2.17205e-05 0)
(0.0844898 -2.39023e-05 0)
(0.0844888 -2.60291e-05 0)
(0.084488 -2.81459e-05 0)
(0.0844874 -3.01805e-05 0)
(0.0844869 -3.22058e-05 0)
(0.0844867 -3.41749e-05 0)
(0.0844966 -1.55594e-06 0)
(0.0844918 -3.65676e-06 0)
(0.0844915 -5.94734e-06 0)
(0.0844911 -8.26055e-06 0)
(0.0844905 -1.05707e-05 0)
(0.0844898 -1.28708e-05 0)
(0.084489 -1.5156e-05 0)
(0.0844881 -1.74209e-05 0)
(0.0844871 -1.96694e-05 0)
(0.0844862 -2.18837e-05 0)
(0.0844852 -2.40832e-05 0)
(0.0844843 -2.62249e-05 0)
(0.0844835 -2.83594e-05 0)
(0.0844829 -3.0401e-05 0)
(0.0844825 -3.24445e-05 0)
(0.0844823 -3.44141e-05 0)
(0.0844919 -1.56711e-06 0)
(0.0844871 -3.67968e-06 0)
(0.0844868 -5.98471e-06 0)
(0.0844863 -8.31278e-06 0)
(0.0844858 -1.06377e-05 0)
(0.0844851 -1.29534e-05 0)
(0.0844843 -1.52537e-05 0)
(0.0844834 -1.7535e-05 0)
(0.0844825 -1.97992e-05 0)
(0.0844816 -2.20304e-05 0)
(0.0844807 -2.4246e-05 0)
(0.0844798 -2.64031e-05 0)
(0.0844791 -2.85544e-05 0)
(0.0844785 -3.06047e-05 0)
(0.0844781 -3.26677e-05 0)
(0.0844779 -3.46264e-05 0)
(0.0844872 -1.57693e-06 0)
(0.0844823 -3.6977e-06 0)
(0.084482 -6.01405e-06 0)
(0.0844816 -8.35384e-06 0)
(0.084481 -1.06904e-05 0)
(0.0844804 -1.30185e-05 0)
(0.0844796 -1.53305e-05 0)
(0.0844788 -1.76252e-05 0)
(0.0844779 -1.9902e-05 0)
(0.084477 -2.21478e-05 0)
(0.0844761 -2.43774e-05 0)
(0.0844753 -2.65498e-05 0)
(0.0844746 -2.8717e-05 0)
(0.084474 -3.07802e-05 0)
(0.0844737 -3.2857e-05 0)
(0.0844735 -3.47844e-05 0)
(0.0844824 -1.58464e-06 0)
(0.0844775 -3.70883e-06 0)
(0.0844772 -6.03214e-06 0)
(0.0844768 -8.37921e-06 0)
(0.0844763 -1.07228e-05 0)
(0.0844756 -1.30588e-05 0)
(0.0844749 -1.53779e-05 0)
(0.0844741 -1.7682e-05 0)
(0.0844732 -1.99672e-05 0)
(0.0844724 -2.22251e-05 0)
(0.0844715 -2.44658e-05 0)
(0.0844708 -2.66511e-05 0)
(0.0844701 -2.88293e-05 0)
(0.0844696 -3.08983e-05 0)
(0.0844693 -3.29684e-05 0)
(0.0844693 -3.48401e-05 0)
(0.0844776 -1.58941e-06 0)
(0.0844727 -3.71125e-06 0)
(0.0844724 -6.03611e-06 0)
(0.084472 -8.38514e-06 0)
(0.0844715 -1.07306e-05 0)
(0.0844708 -1.307e-05 0)
(0.0844701 -1.5392e-05 0)
(0.0844693 -1.77011e-05 0)
(0.0844685 -1.99887e-05 0)
(0.0844677 -2.2252e-05 0)
(0.0844669 -2.44936e-05 0)
(0.0844662 -2.66787e-05 0)
(0.0844656 -2.88456e-05 0)
(0.0844652 -3.08925e-05 0)
(0.0844651 -3.29252e-05 0)
(0.0844652 -3.47225e-05 0)
(0.0844728 -1.59043e-06 0)
(0.0844678 -3.70479e-06 0)
(0.0844675 -6.02559e-06 0)
(0.0844671 -8.3707e-06 0)
(0.0844666 -1.07118e-05 0)
(0.084466 -1.3048e-05 0)
(0.0844653 -1.53651e-05 0)
(0.0844646 -1.7668e-05 0)
(0.0844638 -1.99425e-05 0)
(0.084463 -2.21903e-05 0)
(0.0844623 -2.44055e-05 0)
(0.0844617 -2.65609e-05 0)
(0.0844612 -2.86824e-05 0)
(0.0844609 -3.06768e-05 0)
(0.0844609 -3.26433e-05 0)
(0.0844612 -3.43563e-05 0)
(0.0844679 -1.58764e-06 0)
(0.0844629 -3.68703e-06 0)
(0.0844627 -5.99581e-06 0)
(0.0844623 -8.32719e-06 0)
(0.0844618 -1.06515e-05 0)
(0.0844612 -1.29679e-05 0)
(0.0844606 -1.52589e-05 0)
(0.0844599 -1.75313e-05 0)
(0.0844591 -1.97651e-05 0)
(0.0844584 -2.19667e-05 0)
(0.0844578 -2.41224e-05 0)
(0.0844572 -2.62158e-05 0)
(0.0844568 -2.82605e-05 0)
(0.0844567 -3.01784e-05 0)
(0.0844569 -3.20559e-05 0)
(0.0844574 -3.36798e-05 0)
(0.084463 -1.58002e-06 0)
(0.084458 -3.64508e-06 0)
(0.0844578 -5.9251e-06 0)
(0.0844574 -8.22366e-06 0)
(0.084457 -1.0509e-05 0)
(0.0844564 -1.27802e-05 0)
(0.0844558 -1.50168e-05 0)
(0.0844552 -1.72285e-05 0)
(0.0844545 -1.93909e-05 0)
(0.0844539 -2.15159e-05 0)
(0.0844534 -2.35828e-05 0)
(0.0844529 -2.55877e-05 0)
(0.0844527 -2.75318e-05 0)
(0.0844527 -2.93571e-05 0)
(0.0844531 -3.11329e-05 0)
(0.0844539 -3.2672e-05 0)
(0.0844581 -1.56214e-06 0)
(0.0844532 -3.56228e-06 0)
(0.084453 -5.78701e-06 0)
(0.0844527 -8.02501e-06 0)
(0.0844522 -1.02425e-05 0)
(0.0844518 -1.24391e-05 0)
(0.0844512 -1.4592e-05 0)
(0.0844507 -1.67138e-05 0)
(0.0844501 -1.87771e-05 0)
(0.0844496 -2.07999e-05 0)
(0.0844491 -2.27552e-05 0)
(0.0844488 -2.46521e-05 0)
(0.0844487 -2.64799e-05 0)
(0.0844489 -2.82043e-05 0)
(0.0844495 -2.98742e-05 0)
(0.0844505 -3.13389e-05 0)
(0.0844533 -1.52684e-06 0)
(0.0844485 -3.42592e-06 0)
(0.0844483 -5.56217e-06 0)
(0.084448 -7.70694e-06 0)
(0.0844477 -9.82526e-06 0)
(0.0844473 -1.19174e-05 0)
(0.0844468 -1.39593e-05 0)
(0.0844464 -1.5966e-05 0)
(0.0844459 -1.7908e-05 0)
(0.0844455 -1.98093e-05 0)
(0.0844451 -2.16372e-05 0)
(0.084445 -2.34138e-05 0)
(0.084445 -2.51168e-05 0)
(0.0844454 -2.67374e-05 0)
(0.0844462 -2.8302e-05 0)
(0.0844474 -2.97031e-05 0)
(0.0844486 -1.46864e-06 0)
(0.084444 -3.23125e-06 0)
(0.0844439 -5.24392e-06 0)
(0.0844437 -7.26211e-06 0)
(0.0844434 -9.25094e-06 0)
(0.0844431 -1.12115e-05 0)
(0.0844427 -1.31191e-05 0)
(0.0844423 -1.49907e-05 0)
(0.084442 -1.67951e-05 0)
(0.0844416 -1.85616e-05 0)
(0.0844414 -2.02525e-05 0)
(0.0844414 -2.19021e-05 0)
(0.0844416 -2.34766e-05 0)
(0.0844421 -2.49934e-05 0)
(0.0844431 -2.64551e-05 0)
(0.0844445 -2.78017e-05 0)
(0.0844441 -1.38539e-06 0)
(0.0844399 -2.98281e-06 0)
(0.0844398 -4.84007e-06 0)
(0.0844396 -6.702e-06 0)
(0.0844394 -8.5352e-06 0)
(0.0844391 -1.03417e-05 0)
(0.0844389 -1.20965e-05 0)
(0.0844386 -1.38179e-05 0)
(0.0844383 -1.54736e-05 0)
(0.0844381 -1.70966e-05 0)
(0.084438 -1.86451e-05 0)
(0.0844381 -2.01643e-05 0)
(0.0844384 -2.16097e-05 0)
(0.0844391 -2.30236e-05 0)
(0.0844402 -2.43851e-05 0)
(0.0844418 -2.56835e-05 0)
(0.0844399 -1.27898e-06 0)
(0.0844361 -2.69299e-06 0)
(0.0844361 -4.37049e-06 0)
(0.0844359 -6.05358e-06 0)
(0.0844358 -7.7115e-06 0)
(0.0844356 -9.34706e-06 0)
(0.0844354 -1.09358e-05 0)
(0.0844352 -1.24966e-05 0)
(0.0844351 -1.39962e-05 0)
(0.084435 -1.54703e-05 0)
(0.084435 -1.68739e-05 0)
(0.0844351 -1.82609e-05 0)
(0.0844356 -1.95775e-05 0)
(0.0844363 -2.08893e-05 0)
(0.0844376 -2.21524e-05 0)
(0.0844393 -2.34057e-05 0)
(0.0844362 -1.15469e-06 0)
(0.0844328 -2.37925e-06 0)
(0.0844328 -3.86281e-06 0)
(0.0844327 -5.35374e-06 0)
(0.0844326 -6.82468e-06 0)
(0.0844325 -8.2792e-06 0)
(0.0844323 -9.69388e-06 0)
(0.0844322 -1.10876e-05 0)
(0.0844321 -1.24268e-05 0)
(0.0844321 -1.37489e-05 0)
(0.0844322 -1.50062e-05 0)
(0.0844325 -1.62599e-05 0)
(0.084433 -1.74485e-05 0)
(0.0844339 -1.86578e-05 0)
(0.0844352 -1.98233e-05 0)
(0.084437 -2.10311e-05 0)
(0.0844329 -1.02005e-06 0)
(0.08443 -2.06078e-06 0)
(0.0844299 -3.34735e-06 0)
(0.0844299 -4.64284e-06 0)
(0.0844298 -5.9236e-06 0)
(0.0844297 -7.19384e-06 0)
(0.0844297 -8.43169e-06 0)
(0.0844296 -9.65577e-06 0)
(0.0844296 -1.08331e-05 0)
(0.0844297 -1.20017e-05 0)
(0.0844299 -1.31127e-05 0)
(0.0844302 -1.42324e-05 0)
(0.0844308 -1.52935e-05 0)
(0.0844317 -1.63989e-05 0)
(0.0844331 -1.7466e-05 0)
(0.0844349 -1.86244e-05 0)
(0.08443 -8.83373e-07 0)
(0.0844275 -1.7554e-06 0)
(0.0844275 -2.85235e-06 0)
(0.0844275 -3.95863e-06 0)
(0.0844275 -5.05418e-06 0)
(0.0844274 -6.14371e-06 0)
(0.0844274 -7.20735e-06 0)
(0.0844274 -8.26339e-06 0)
(0.0844275 -9.28023e-06 0)
(0.0844276 -1.0296e-05 0)
(0.0844278 -1.12617e-05 0)
(0.0844282 -1.2247e-05 0)
(0.0844289 -1.31811e-05 0)
(0.0844298 -1.41801e-05 0)
(0.0844312 -1.51474e-05 0)
(0.084433 -1.625e-05 0)
(0.0844276 -7.52351e-07 0)
(0.0844255 -1.47699e-06 0)
(0.0844255 -2.40003e-06 0)
(0.0844255 -3.33127e-06 0)
(0.0844255 -4.25378e-06 0)
(0.0844255 -5.17254e-06 0)
(0.0844255 -6.06997e-06 0)
(0.0844256 -6.96395e-06 0)
(0.0844257 -7.82512e-06 0)
(0.0844258 -8.69107e-06 0)
(0.0844261 -9.51435e-06 0)
(0.0844266 -1.03659e-05 0)
(0.0844272 -1.11742e-05 0)
(0.0844282 -1.20641e-05 0)
(0.0844296 -1.29293e-05 0)
(0.0844314 -1.39675e-05 0)
(0.0844256 -6.32969e-07 0)
(0.0844239 -1.23388e-06 0)
(0.0844239 -2.00411e-06 0)
(0.0844239 -2.78005e-06 0)
(0.0844239 -3.54736e-06 0)
(0.084424 -4.31085e-06 0)
(0.084424 -5.05524e-06 0)
(0.0844241 -5.79788e-06 0)
(0.0844242 -6.51215e-06 0)
(0.0844244 -7.23465e-06 0)
(0.0844247 -7.92063e-06 0)
(0.0844252 -8.64101e-06 0)
(0.0844259 -9.32564e-06 0)
(0.0844268 -1.01041e-05 0)
(0.0844281 -1.08656e-05 0)
(0.0844298 -1.18298e-05 0)
(0.0844239 -5.28793e-07 0)
(0.0844226 -1.02857e-06 0)
(0.0844226 -1.66923e-06 0)
(0.0844227 -2.31251e-06 0)
(0.0844227 -2.94604e-06 0)
(0.0844227 -3.57405e-06 0)
(0.0844228 -4.18321e-06 0)
(0.0844229 -4.78993e-06 0)
(0.0844231 -5.37044e-06 0)
(0.0844233 -5.95975e-06 0)
(0.0844236 -6.5168e-06 0)
(0.0844241 -7.11112e-06 0)
(0.0844248 -7.6762e-06 0)
(0.0844257 -8.34235e-06 0)
(0.0844269 -8.99937e-06 0)
(0.0844285 -9.87996e-06 0)
(0.0844226 -4.40865e-07 0)
(0.0844216 -8.58781e-07 0)
(0.0844216 -1.3923e-06 0)
(0.0844217 -1.92572e-06 0)
(0.0844217 -2.44814e-06 0)
(0.0844218 -2.9628e-06 0)
(0.0844219 -3.45779e-06 0)
(0.084422 -3.94808e-06 0)
(0.0844222 -4.41233e-06 0)
(0.0844224 -4.88318e-06 0)
(0.0844228 -5.32364e-06 0)
(0.0844233 -5.80044e-06 0)
(0.0844239 -6.25261e-06 0)
(0.0844248 -6.80763e-06 0)
(0.0844259 -7.36106e-06 0)
(0.0844273 -8.14899e-06 0)
(0.0844216 -3.68157e-07 0)