/*--------------------------------*- C++ -*----------------------------------*\
| =========                 |                                                 |
| \\      /  F ield         | foam-extend: Open Source CFD                    |
|  \\    /   O peration     | Version:     4.1-20200408                       |
|   \\  /    A nd           | Web:         http://www.foam-extend.org         |
|    \\/     M anipulation  |                                                 |
\*---------------------------------------------------------------------------*/
FoamFile
{
    version     2.0;
    format      ascii;
    class       volScalarField;
    location    "0.0215000";
    object      epsilonTrueEq;
}
// * * * * * * * * * * * * * * * * * * * * * * * * * * * * * * * * * * * * * //

dimensions      [0 0 0 0 0 0 0];

internalField   nonuniform List<scalar> 
1952
(
0.00984718
0.00986934
0.00990297
0.0099458
0.0100016
0.010059
0.0101247
0.0101873
0.010246
0.0102801
0.0102908
0.0102492
0.0101587
0.0100042
0.00983339
0.00983755
0.0100137
0.010036
0.0100698
0.0101133
0.0101691
0.0102266
0.0102924
0.0103548
0.010412
0.0104445
0.0104516
0.0104017
0.0103043
0.0101234
0.00990109
0.0100038
0.0101649
0.0101869
0.0102206
0.010264
0.0103192
0.0103762
0.0104414
0.010503
0.0105575
0.010588
0.0105891
0.0105283
0.0104228
0.0102252
0.00999766
0.0101549
0.0103007
0.0103223
0.0103559
0.0103992
0.0104539
0.0105107
0.0105756
0.0106357
0.0106875
0.0107159
0.0107108
0.0106441
0.0105293
0.0103206
0.0100913
0.0102906
0.0104243
0.0104455
0.0104791
0.0105219
0.0105753
0.0106331
0.0106975
0.0107556
0.0108057
0.0108314
0.0108241
0.0107539
0.0106302
0.0104168
0.0101918
0.0104143
0.0105368
0.0105583
0.0105923
0.0106344
0.0106866
0.0107451
0.0108086
0.0108657
0.0109152
0.0109381
0.0109326
0.0108572
0.0107276
0.0105132
0.0102919
0.0105268
0.0106424
0.0106647
0.0106987
0.0107409
0.010793
0.0108503
0.010913
0.0109685
0.0110186
0.0110398
0.0110334
0.0109549
0.0108225
0.0106086
0.0103912
0.010632
0.0107418
0.0107642
0.010798
0.0108404
0.0108932
0.0109506
0.0110135
0.0110677
0.0111197
0.0111397
0.0111292
0.0110485
0.0109154
0.0107022
0.0104889
0.0107314
0.0108368
0.0108591
0.010893
0.0109355
0.0109893
0.0110474
0.0111114
0.0111659
0.0112182
0.0112369
0.0112232
0.0111415
0.0110086
0.0107963
0.0105865
0.0108265
0.0109281
0.0109507
0.0109851
0.0110282
0.0110834
0.0111419
0.0112071
0.0112622
0.011314
0.0113317
0.0113165
0.0112348
0.0111017
0.0108898
0.0106829
0.0109178
0.0110168
0.0110398
0.0110749
0.0111187
0.0111752
0.0112345
0.0113006
0.0113561
0.011408
0.0114255
0.0114094
0.0113282
0.0111946
0.0109826
0.0107778
0.0110063
0.0111041
0.0111276
0.0111634
0.0112079
0.0112657
0.0113256
0.0113923
0.0114482
0.0115007
0.0115179
0.0115021
0.0114207
0.0112859
0.0110744
0.010871
0.0110935
0.0111905
0.0112145
0.0112508
0.011296
0.011355
0.0114152
0.0114828
0.0115391
0.0115926
0.0116097
0.0115944
0.0115123
0.011376
0.0111658
0.0109635
0.0111797
0.011278
0.0113024
0.011339
0.0113848
0.0114447
0.0115052
0.0115739
0.0116307
0.0116854
0.011703
0.0116879
0.0116059
0.011469
0.0112593
0.0110568
0.0112672
0.0113651
0.0113899
0.0114268
0.0114734
0.0115338
0.0115943
0.0116649
0.0117224
0.0117782
0.0117964
0.0117815
0.0116996
0.0115626
0.0113529
0.0111495
0.0113542
0.0114522
0.0114775
0.0115147
0.0115621
0.0116227
0.0116831
0.011756
0.0118145
0.0118713
0.0118903
0.0118755
0.0117936
0.0116565
0.0114463
0.0112411
0.0114412
0.0115391
0.0115647
0.0116024
0.0116506
0.0117116
0.011773
0.0118474
0.0119069
0.0119649
0.0119845
0.0119702
0.0118883
0.0117506
0.01154
0.0113333
0.0115279
0.0116258
0.0116518
0.0116902
0.0117389
0.0118007
0.0118639
0.0119389
0.0119997
0.0120588
0.0120788
0.012065
0.0119828
0.0118445
0.0116339
0.0114286
0.0116145
0.0117126
0.011739
0.011778
0.0118277
0.0118903
0.0119554
0.0120311
0.0120936
0.0121536
0.0121737
0.0121613
0.0120788
0.01194
0.0117294
0.011524
0.011701
0.0117991
0.011826
0.0118658
0.0119166
0.0119804
0.0120473
0.0121241
0.0121882
0.0122492
0.0122693
0.0122587
0.0121761
0.0120369
0.0118256
0.0116187
0.0117873
0.0118854
0.0119129
0.0119536
0.0120056
0.0120707
0.0121395
0.0122177
0.0122834
0.0123454
0.0123667
0.012357
0.0122742
0.0121347
0.0119222
0.0117145
0.0118734
0.0119715
0.0119998
0.0120414
0.0120947
0.0121613
0.0122319
0.0123119
0.0123792
0.0124425
0.0124654
0.012456
0.0123729
0.012233
0.0120187
0.0118101
0.0119593
0.0120574
0.0120865
0.0121291
0.0121838
0.012252
0.0123246
0.0124066
0.0124755
0.0125402
0.0125647
0.0125557
0.0124721
0.0123316
0.0121152
0.0119056
0.0120449
0.012143
0.0121729
0.0122166
0.0122728
0.0123428
0.0124176
0.0125014
0.0125722
0.0126384
0.0126647
0.012656
0.0125719
0.0124303
0.0122119
0.0120012
0.0121301
0.012228
0.0122588
0.0123038
0.0123616
0.0124335
0.0125106
0.0125963
0.0126691
0.0127371
0.012765
0.0127566
0.0126719
0.0125292
0.0123089
0.0120976
0.0122149
0.012313
0.0123447
0.012391
0.0124503
0.0125242
0.0126037
0.0126912
0.0127665
0.0128362
0.0128658
0.0128578
0.0127725
0.0126289
0.0124067
0.0121947
0.0122995
0.0123975
0.01243
0.0124777
0.0125385
0.0126147
0.0126965
0.012786
0.0128641
0.0129355
0.0129669
0.0129594
0.0128736
0.0127293
0.0125053
0.0122923
0.0123837
0.0124811
0.0125147
0.0125638
0.0126262
0.0127049
0.0127886
0.0128797
0.0129616
0.0130351
0.0130681
0.0130616
0.0129753
0.0128304
0.0126045
0.0123903
0.0124669
0.0125636
0.0125983
0.0126489
0.0127132
0.0127943
0.01288
0.0129731
0.0130587
0.0131344
0.0131691
0.0131638
0.0130772
0.0129317
0.0127041
0.0124891
0.0125491
0.0126448
0.0126805
0.0127326
0.0127989
0.0128823
0.0129704
0.013067
0.0131549
0.013233
0.0132699
0.0132658
0.013179
0.0130331
0.0128043
0.0125888
0.0126299
0.0127249
0.0127617
0.0128152
0.0128835
0.0129693
0.0130599
0.0131601
0.0132505
0.0133312
0.0133705
0.0133675
0.0132812
0.0131349
0.0129052
0.0126899
0.0127096
0.0128039
0.0128418
0.0128967
0.0129669
0.0130553
0.0131484
0.0132522
0.0133453
0.0134288
0.0134708
0.0134691
0.0133834
0.0132374
0.0130074
0.0127929
0.0127883
0.0128825
0.0129213
0.0129777
0.0130498
0.0131407
0.0132364
0.0133439
0.0134396
0.0135263
0.0135712
0.013571
0.0134868
0.0133415
0.0131116
0.0128982
0.0128666
0.0129611
0.0130007
0.0130585
0.0131323
0.0132256
0.0133239
0.0134347
0.0135334
0.0136234
0.0136713
0.0136733
0.0135913
0.0134471
0.0132179
0.0130059
0.0129449
0.01304
0.0130805
0.0131395
0.0132149
0.0133105
0.013411
0.0135254
0.0136268
0.0137207
0.0137714
0.0137754
0.0136968
0.0135545
0.0133261
0.013116
0.0130235
0.0131204
0.0131618
0.0132217
0.0132982
0.0133957
0.0134982
0.0136157
0.01372
0.0138174
0.0138712
0.0138777
0.0138031
0.0136632
0.0134361
0.013229
0.013103
0.0132034
0.0132463
0.0133068
0.0133835
0.0134823
0.0135861
0.0137061
0.0138131
0.0139136
0.0139709
0.0139812
0.0139097
0.0137729
0.0135484
0.0133451
0.0131854
0.0132925
0.0133358
0.0133965
0.0134722
0.0135717
0.0136757
0.0137974
0.0139065
0.0140094
0.0140701
0.0140846
0.0140169
0.0138842
0.0136633
0.0134646
0.0132748
0.0133912
0.0134329
0.0134927
0.0135667
0.0136652
0.0137685
0.0138904
0.0140003
0.014105
0.0141688
0.0141873
0.0141241
0.0139966
0.0137803
0.0135878
0.0133737
0.0135017
0.0135409
0.013599
0.0136697
0.0137653
0.013866
0.0139863
0.0140954
0.0142005
0.0142669
0.0142891
0.0142313
0.0141096
0.0138993
0.0137161
0.0134849
0.0136287
0.0136636
0.0137192
0.0137848
0.0138749
0.0139707
0.0140868
0.0141927
0.0142966
0.0143644
0.0143894
0.0143377
0.0142226
0.0140202
0.0138513
0.0136133
0.0137775
0.0138068
0.013858
0.0139162
0.0139978
0.0140858
0.0141944
0.0142943
0.0143947
0.0144613
0.0144884
0.0144426
0.0143353
0.014144
0.0139927
0.013764
0.013954
0.0139776
0.0140211
0.0140691
0.0141396
0.0142161
0.0143131
0.0144021
0.0144964
0.0145591
0.0145862
0.0145463
0.0144475
0.0142699
0.0141394
0.0139422
0.0141656
0.0141819
0.0142157
0.0142508
0.0143068
0.0143673
0.014448
0.0145213
0.0146049
0.0146594
0.0146834
0.0146482
0.0145581
0.0143968
0.0142915
0.0141561
0.0144197
0.0144271
0.0144492
0.0144685
0.0145063
0.014546
0.0146056
0.0146585
0.014724
0.0147644
0.0147815
0.0147476
0.0146662
0.0145278
0.0144496
0.014413
0.0147244
0.0147215
0.0147297
0.0147311
0.0147471
0.0147615
0.0147944
0.0148203
0.0148606
0.0148794
0.0148833
0.0148455
0.014771
0.014659
0.014611
0.0147209
0.015087
0.0150726
0.0150651
0.0150475
0.0150391
0.0150239
0.015025
0.015017
0.0150243
0.0150125
0.0149937
0.0149439
0.0148705
0.0147842
0.0147729
0.015087
0.0155136
0.0154876
0.0154644
0.0154266
0.015392
0.0153449
0.0153103
0.0152624
0.0152286
0.015176
0.0151218
0.0150465
0.0149628
0.0148972
0.01493
0.0155171
0.016008
0.0159717
0.0159346
0.0158762
0.0158158
0.0157368
0.0156647
0.0155737
0.0154933
0.0153909
0.0152889
0.015171
0.0150581
0.0149937
0.0150687
0.0160149
0.0165708
0.016526
0.0164768
0.0164004
0.0163169
0.0162087
0.016101
0.015968
0.0158408
0.0156856
0.0155311
0.0153619
0.015206
0.0151192
0.0152059
0.0165807
0.0171972
0.017146
0.0170877
0.0169976
0.0168957
0.0167635
0.0166259
0.0164561
0.0162874
0.0160837
0.0158816
0.0156648
0.015469
0.0153527
0.0154109
0.0172092
0.0178775
0.0178228
0.0177591
0.0176606
0.0175464
0.0173972
0.0172372
0.0170383
0.0168354
0.0165889
0.0163437
0.0160783
0.0158369
0.0156715
0.0156527
0.0178906
0.0185953
0.0185404
0.0184753
0.0183741
0.0182546
0.0180964
0.0179225
0.0177028
0.0174728
0.017188
0.0169
0.0165773
0.0162722
0.0160236
0.0158868
0.0186087
0.0193279
0.0192757
0.0192136
0.0191156
0.018998
0.0188392
0.0186602
0.0184287
0.018179
0.0178608
0.0175293
0.0171398
0.0167532
0.0163906
0.0161048
0.0193406
0.0200469
0.0200005
0.0199452
0.0198558
0.0197475
0.0195965
0.0194213
0.0191879
0.018927
0.0185817
0.0182087
0.0177458
0.0172639
0.0167618
0.0163
0.020058
0.0207193
0.0206812
0.020636
0.0205596
0.0204677
0.0203326
0.0201699
0.0199453
0.0196831
0.0193199
0.0189118
0.0183744
0.0177892
0.0171265
0.0164636
0.020728
0.0213089
0.021281
0.0212486
0.0211897
0.0211188
0.0210067
0.0208647
0.0206597
0.0204074
0.0200398
0.0196082
0.019003
0.0183163
0.0174799
0.016596
0.0213145
0.0217752
0.0217581
0.0217406
0.0217023
0.0216543
0.0215695
0.0214547
0.0212783
0.021047
0.0206915
0.0202542
0.0196005
0.0188331
0.0178237
0.0166779
0.0217771
0.0220995
0.022093
0.0220904
0.0220727
0.022048
0.021992
0.0219071
0.0217647
0.0215626
0.0212372
0.0208151
0.0201478
0.0193359
0.0181398
0.016657
0.0220976
0.0222267
0.0222299
0.0222411
0.0222423
0.0222388
0.0222084
0.0221494
0.0220362
0.0218568
0.0215578
0.0211415
0.0204696
0.0196069
0.0182039
0.0164045
0.0222212
0.0220388
0.0220484
0.0220695
0.0220839
0.0220942
0.0220793
0.0220324
0.0219279
0.0217414
0.0214305
0.0209626
0.0202302
0.0192383
0.0176654
0.0157081
0.0220305
0.0214798
0.0214885
0.0215091
0.0215235
0.021532
0.0215136
0.0214562
0.0213333
0.0211081
0.020746
0.020183
0.0193527
0.0182083
0.0165867
0.0146988
0.0214709
0.0205594
0.0205569
0.0205625
0.0205583
0.0205434
0.020497
0.0204039
0.020238
0.0199553
0.0195258
0.0188731
0.0179754
0.0167617
0.015247
0.0136229
0.0205528
0.0193083
0.0192858
0.0192625
0.0192217
0.0191619
0.0190634
0.0189119
0.0186837
0.0183352
0.0178442
0.0171397
0.0162402
0.0150765
0.0138011
0.0125631
0.0193073
0.0177849
0.0177378
0.0176779
0.0175884
0.017468
0.017299
0.017073
0.0167697
0.0163538
0.0158149
0.0151048
0.0142715
0.0132665
0.012323
0.0115371
0.0177912
0.0160577
0.0159878
0.0158927
0.0157534
0.0155677
0.0153211
0.0150152
0.0146339
0.0141531
0.0135751
0.0128914
0.0121701
0.0114023
0.0108502
0.0105521
0.0160708
0.0141987
0.0141115
0.0139911
0.0138136
0.0135724
0.0132571
0.0128818
0.0124343
0.0119021
0.011293
0.0106453
0.0100453
0.00954489
0.0093975
0.00959207
0.014217
0.0122879
0.0121877
0.0120524
0.0118547
0.0115813
0.0112231
0.0108007
0.0103077
0.00974911
0.00913414
0.00853741
0.00805345
0.00779962
0.00798971
0.00860329
0.0123107
0.0104064
0.0102918
0.01014
0.00992471
0.00963673
0.00926607
0.00882648
0.00831184
0.00776607
0.00724191
0.00681213
0.00651088
0.00645216
0.00676802
0.00755813
0.010435
0.0085663
0.00843671
0.00825804
0.00800847
0.0077079
0.00738779
0.00703323
0.00662022
0.00622536
0.00591503
0.00572449
0.00562037
0.00567493
0.00594124
0.00659775
0.00860207
0.00686137
0.0067499
0.00658991
0.00636612
0.00612441
0.00591778
0.00572154
0.00550504
0.00532075
0.00516461
0.00508463
0.00508214
0.00521929
0.00548932
0.00595785
0.00689368
0.00557982
0.00551645
0.00542885
0.00531019
0.00518504
0.00504417
0.00490715
0.00477266
0.00467504
0.00459333
0.00457883
0.00464726
0.00484431
0.00515687
0.00559086
0.00559837
0.00474336
0.0046991
0.00464204
0.004568
0.00448849
0.00437914
0.00427287
0.00417854
0.00412799
0.00411361
0.00416655
0.00429094
0.00451472
0.00483439
0.00525924
0.00475654
0.00407309
0.00403664
0.00398939
0.00392945
0.00386958
0.00380174
0.00374551
0.00370514
0.00370371
0.00373771
0.00383122
0.00398788
0.00422333
0.00453424
0.00492081
0.00408438
0.00350247
0.00348001
0.00345112
0.0034161
0.0033822
0.003346
0.00332388
0.00332138
0.00335525
0.00342613
0.00354806
0.00372259
0.00395684
0.00424906
0.00459945
0.00350976
0.00304
0.00302723
0.00301049
0.00299321
0.00297984
0.00297262
0.00298137
0.00301154
0.00307321
0.00316891
0.00330596
0.0034861
0.00371107
0.00397977
0.00429178
0.00304481
0.00266072
0.00265764
0.00265302
0.00265288
0.00265811
0.0026739
0.00270531
0.00275876
0.00283889
0.00294977
0.00309321
0.00327132
0.00348242
0.00372606
0.00400246
0.00266281
0.00235463
0.00235929
0.00236423
0.00237774
0.00239773
0.00243156
0.00247993
0.0025499
0.00264163
0.00276016
0.0029035
0.00307442
0.00326919
0.0034879
0.00373136
0.00235454
0.00210784
0.00211897
0.00213183
0.00215637
0.00218779
0.00223473
0.00229447
0.00237469
0.00247218
0.00259275
0.00273174
0.00289251
0.00307015
0.00326518
0.00347911
0.00210581
0.00190992
0.00192598
0.00194481
0.00197747
0.00201698
0.00207277
0.00213946
0.00222516
0.00232417
0.00244284
0.00257478
0.00272382
0.00288446
0.0030575
0.0032451
0.00190635
0.00175124
0.00177087
0.00179396
0.00183219
0.00187693
0.00193796
0.00200802
0.00209543
0.00219286
0.00230696
0.00243032
0.00256705
0.00271142
0.00286444
0.00302887
0.0017465
0.00162389
0.0016458
0.00167159
0.00171312
0.00176065
0.00182403
0.00189473
0.00198113
0.00207487
0.00218273
0.00229675
0.00242117
0.00255033
0.0026853
0.0028294
0.00161833
0.00152115
0.00154426
0.00157144
0.00161441
0.00166279
0.00172628
0.00179561
0.00187907
0.00196774
0.00206837
0.00217285
0.00228537
0.00240051
0.00251937
0.00264574
0.00151511
0.00143754
0.00146096
0.00148847
0.00153139
0.00157915
0.00164108
0.00170764
0.00178685
0.00186964
0.00196257
0.00205764
0.00215889
0.00226128
0.00236584
0.00247681
0.0014313
0.00136859
0.00139163
0.00141865
0.00146041
0.00150647
0.00156568
0.00162853
0.00170267
0.00177917
0.00186428
0.00195031
0.00204105
0.0021319
0.00222383
0.00232144
0.00136238
0.00131074
0.00133287
0.00135881
0.00139863
0.00144225
0.00149796
0.00155654
0.00162518
0.00169527
0.00177269
0.00185016
0.00193121
0.00201171
0.00209252
0.0021786
0.00130471
0.00126111
0.00128201
0.00130646
0.00134383
0.00138454
0.0014363
0.00149031
0.00155328
0.00161705
0.00168706
0.00175658
0.00182875
0.00189999
0.00197104
0.00204718
0.0012554
0.0012175
0.00123694
0.00125967
0.00129428
0.00133184
0.00137943
0.0014288
0.00148613
0.00154381
0.00160682
0.00166898
0.0017331
0.00179611
0.00185862
0.0019262
0.00121218
0.00117817
0.00119604
0.00121693
0.00124866
0.00128298
0.00132636
0.00137117
0.00142303
0.00147495
0.00153141
0.00158686
0.0016437
0.00169942
0.00175447
0.00181468
0.00117327
0.00114181
0.00115809
0.00117711
0.00120594
0.00123707
0.00127633
0.00131675
0.00136341
0.00140995
0.00146037
0.00150972
0.00156003
0.00160931
0.00165784
0.00171173
0.00113735
0.00110743
0.00112216
0.00113933
0.00116536
0.00119341
0.00122873
0.00126502
0.00130681
0.00134839
0.00139328
0.00143713
0.0014816
0.0015252
0.00156808
0.00161654
0.00110341
0.00107432
0.00108755
0.00110298
0.00112633
0.00115148
0.00118311
0.00121556
0.00125284
0.0012899
0.00132975
0.00136868
0.00140795
0.00144656
0.0014845
0.00152831
0.00107071
0.00104195
0.00105378
0.00106757
0.00108843
0.00111089
0.0011391
0.00116803
0.0012012
0.00123415
0.00126947
0.001304
0.00133865
0.0013729
0.00140657
0.00144639
0.00103873
0.00100997
0.00102052
0.0010328
0.00105137
0.00107137
0.00109644
0.00112218
0.00115161
0.00118089
0.00121213
0.00124277
0.00127334
0.00130377
0.00133373
0.00137013
0.00100711
0.000978151
0.000987527
0.00099844
0.00101493
0.0010327
0.00105494
0.00107781
0.00110387
0.00112987
0.00115749
0.00118469
0.00121167
0.00123877
0.00126551
0.001299
0.000975622
0.000946358
0.000954677
0.000964359
0.000978968
0.000994745
0.00101445
0.00103475
0.00105782
0.0010809
0.00110531
0.00112949
0.00115332
0.00117755
0.00120151
0.00123249
0.000944121
0.00091452
0.000921894
0.00093048
0.000943414
0.00095742
0.000974855
0.000992896
0.0010133
0.00103383
0.00105541
0.00107695
0.00109803
0.00111976
0.00114131
0.00117015
0.000912543
0.000882617
0.000889153
0.000896772
0.000908221
0.000920668
0.000936097
0.00095215
0.000970207
0.000988503
0.0010076
0.00102685
0.00104554
0.00106512
0.0010846
0.0011116
0.000880868
0.000850667
0.000856464
0.000863236
0.000873376
0.00088446
0.000898126
0.000912446
0.000928446
0.000944803
0.000961733
0.00097901
0.000995617
0.00101335
0.00103104
0.00105648
0.000849117
0.000818708
0.000823858
0.000829894
0.000838888
0.000848788
0.000860912
0.000873733
0.000887939
0.000902624
0.000917676
0.000933256
0.000948071
0.000964223
0.000980384
0.00100448
0.000817331
0.000786797
0.000791383
0.000796783
0.000804777
0.000813659
0.00082444
0.000835973
0.000848624
0.000861879
0.000875309
0.000889445
0.000902721
0.000917535
0.000932382
0.000955349
0.000785569
0.000755003
0.000759098
0.000763952
0.000771078
0.000779087
0.000788705
0.00079914
0.000810448
0.00082249
0.000834529
0.000847447
0.000859411
0.000873101
0.000886829
0.000908839
0.000753901
0.000723401
0.000727069
0.000731458
0.00073783
0.000745096
0.000753708
0.000763213
0.000773368
0.00078439
0.000795244
0.000807147
0.000818003
0.000830762
0.000843551
0.000864766
0.000722407
0.000692073
0.000695371
0.000699362
0.000705081
0.000711716
0.000719461
0.000728182
0.000737349
0.000747522
0.000757372
0.000768439
0.000778368
0.000790367
0.000802371
0.000822928
0.000691172
0.00066111
0.000664084
0.000667737
0.000672886
0.000678985
0.000685979
0.000694042
0.000702364
0.000711835
0.00072084
0.000731232
0.000740398
0.000751796
0.000763165
0.000783204
0.000660287
0.00063061
0.000633298
0.000636658
0.000641308
0.000646948
0.000653288
0.000660797
0.000668392
0.000677288
0.000685583
0.000695439
0.000703986
0.000714923
0.00072579
0.000745433
0.000629854
0.000600682
0.000603114
0.000606216
0.00061042
0.000615661
0.000621423
0.00062846
0.000635422
0.000643847
0.000651546
0.000660987
0.000669044
0.00067965
0.000690146
0.00070952
0.000599985
0.000571448
0.000573645
0.000576514
0.000580311
0.000585193
0.000590431
0.000597054
0.000603456
0.000611487
0.000618681
0.000627807
0.000635486
0.000645881
0.000656131
0.000675361
0.000570805
0.00054305
0.000545025
0.000547672
0.000551085
0.000555628
0.000560377
0.000566619
0.000572507
0.000580197
0.000586951
0.000595842
0.00060324
0.000613528
0.000623657
0.000642868
0.000542458
0.000515649
0.000517406
0.00051983
0.000522869
0.000527073
0.000531345
0.000537211
0.000542606
0.000549977
0.000556331
0.000565039
0.000572235
0.000582512
0.00059265
0.00061198
0.000515108
0.00048943
0.000490968
0.000493157
0.000495817
0.00049966
0.000503448
0.000508914
0.000513807
0.000520846
0.000526807
0.000535355
0.000542403
0.000552745
0.000563016
0.000582601
0.000488943
0.000464604
0.000465917
0.000467846
0.000470113
0.000473553
0.00047683
0.00048184
0.000486195
0.000492848
0.00049839
0.000506759
0.000513685
0.00052415
0.000534687
0.000554685
0.000464178
0.000441409
0.000442486
0.000444124
0.000445974
0.000448952
0.000451676
0.000456141
0.000459894
0.000466062
0.000471114
0.000479234
0.000486023
0.000496628
0.000507558
0.000528128
0.00044105
0.000420104
0.000420934
0.000422245
0.000423654
0.000426097
0.000428216
0.00043202
0.000435085
0.000440616
0.000445064
0.000452798
0.000459373
0.000470085
0.000481522
0.000502841
0.000419821
0.000400962
0.000401541
0.000402488
0.000403437
0.00040527
0.000406735
0.000409744
0.000412018
0.00041671
0.000420394
0.000427519
0.000433729
0.00044443
0.00045645
0.000478688
0.000400763
0.000384265
0.000384596
0.000385153
0.000385639
0.000386795
0.000387575
0.000389648
0.000391037
0.000394647
0.000397371
0.000403568
0.000409158
0.000419615
0.000432214
0.000455464
0.000384156
0.000370283
0.000370381
0.00037054
0.000370587
0.000371026
0.000371127
0.00037215
0.000372588
0.000374858
0.000376408
0.000381245
0.000385832
0.000395639
0.000408668
0.000432928
0.000370266
0.000359247
0.000359144
0.000358921
0.000358584
0.000358316
0.000357798
0.000357722
0.000357216
0.000357925
0.000358114
0.000361039
0.000364048
0.000372427
0.000385333
0.000410593
0.000359316
0.000351283
0.000351026
0.000350465
0.000349836
0.000348926
0.000347925
0.000346804
0.000345495
0.000344576
0.000343388
0.000343892
0.000344699
0.000350318
0.000361677
0.000387561
0.000351429
0.00034644
0.000346091
0.000345259
0.000344471
0.000343043
0.00034178
0.000339803
0.000338033
0.000335718
0.000333599
0.000331743
0.000330483
0.000332301
0.000340227
0.000364234
0.000346645
0.000345702
0.000345314
0.000344285
0.00034345
0.000341639
0.00034031
0.0003377
0.000335795
0.00033246
0.000329965
0.000326318
0.000323733
0.000321755
0.000324383
0.000339918
0.00034595
0.000346873
0.000346479
0.000345373
0.00034454
0.000342577
0.000341254
0.000338386
0.000336472
0.000332704
0.000330101
0.000325659
0.000322522
0.000318619
0.000318252
0.000326346
0.000347137
)
;

boundaryField
{
    wireUpstream
    {
        type            calculated;
        value           nonuniform List<scalar> 
16
(
0.000348428
0.000348056
0.00034688
0.000346112
0.000344002
0.000342785
0.000339657
0.000337868
0.000333647
0.000331095
0.000325799
0.000322284
0.000316513
0.000313362
0.000311585
0.000348705
)
;
    }
    wireDownstream
    {
        type            calculated;
        value           nonuniform List<scalar> 
16
(
0.00984491
0.00986674
0.00989994
0.0099422
0.00999724
0.0100539
0.0101187
0.0101806
0.0102384
0.0102723
0.0102823
0.0102414
0.0101516
0.0100038
0.0098719
0.00983542
)
;
    }
    wireTopContact
    {
        type            calculated;
        value           nonuniform List<scalar> 
122
(
0.00988826
0.00998283
0.0100756
0.0101757
0.0102757
0.0103748
0.0104724
0.01057
0.0106663
0.010761
0.0108541
0.0109464
0.0110396
0.0111321
0.0112235
0.0113154
0.0114102
0.0115051
0.0115991
0.0116947
0.0117901
0.0118854
0.0119807
0.0120768
0.0121736
0.0122709
0.0123686
0.012467
0.0125663
0.012667
0.0127696
0.0128745
0.0129816
0.0130912
0.0132036
0.0133192
0.0134381
0.0135607
0.0136887
0.0138236
0.0139646
0.0141111
0.0142632
0.0144213
0.0145832
0.0147464
0.0149067
0.0150509
0.0151922
0.0154064
0.0156553
0.0158927
0.0161126
0.0163091
0.0164732
0.0166057
0.0166846
0.0166552
0.0164036
0.0156866
0.0146443
0.0135461
0.0124753
0.011448
0.0104709
0.00952892
0.00856561
0.00754354
0.00659365
0.00595401
0.00559227
0.00526291
0.00492453
0.00460297
0.00429492
0.00400527
0.00373383
0.00348132
0.00324707
0.00303065
0.00283102
0.00264721
0.00247815
0.00232266
0.00217972
0.00204818
0.0019271
0.00181548
0.00171243
0.00161715
0.00152883
0.00144682
0.00137048
0.00129927
0.00123269
0.00117027
0.00111166
0.00105647
0.00100441
0.000955218
0.000908647
0.000864517
0.000822617
0.000782834
0.000744998
0.00070902
0.000674794
0.000642229
0.000611273
0.000581821
0.00055384
0.000527223
0.000501899
0.000477743
0.000454566
0.000432149
0.000410106
0.000387821
0.000365731
0.000342772
0.000329259
0.00983412
)
;
    }
    front
    {
        type            wedge;
    }
    back
    {
        type            wedge;
    }
}


// ************************************************************************* //
