/*--------------------------------*- C++ -*----------------------------------*\
| =========                 |                                                 |
| \\      /  F ield         | foam-extend: Open Source CFD                    |
|  \\    /   O peration     | Version:     4.1-20200408                       |
|   \\  /    A nd           | Web:         http://www.foam-extend.org         |
|    \\/     M anipulation  |                                                 |
\*---------------------------------------------------------------------------*/
FoamFile
{
    version     2.0;
    format      ascii;
    class       volScalarField;
    location    "0.0215000";
    object      rho;
}
// * * * * * * * * * * * * * * * * * * * * * * * * * * * * * * * * * * * * * //

dimensions      [1 -3 0 0 0 0 0];

internalField   nonuniform List<scalar> 
1952
(
7823.8
7823.83
7823.93
7824
7824.14
7824.25
7824.4
7824.49
7824.6
7824.56
7824.56
7824.14
7823.55
7821.82
7819.53
7823.76
7824.32
7824.35
7824.45
7824.52
7824.66
7824.77
7824.93
7825.02
7825.15
7825.14
7825.17
7824.79
7824.27
7822.61
7820.45
7824.29
7824.78
7824.81
7824.9
7824.98
7825.12
7825.22
7825.39
7825.48
7825.61
7825.6
7825.64
7825.25
7824.71
7822.98
7820.67
7824.75
7825.21
7825.23
7825.33
7825.4
7825.54
7825.64
7825.8
7825.89
7826.02
7826.01
7826.03
7825.61
7825.04
7823.24
7820.82
7825.17
7825.6
7825.62
7825.71
7825.79
7825.92
7826.01
7826.17
7826.25
7826.37
7826.35
7826.36
7825.9
7825.28
7823.4
7820.87
7825.56
7825.96
7825.98
7826.07
7826.14
7826.27
7826.36
7826.5
7826.57
7826.68
7826.64
7826.62
7826.13
7825.45
7823.51
7820.89
7825.93
7826.29
7826.31
7826.4
7826.46
7826.58
7826.66
7826.79
7826.85
7826.94
7826.89
7826.83
7826.3
7825.58
7823.58
7820.88
7826.26
7826.58
7826.6
7826.68
7826.74
7826.85
7826.93
7827.05
7827.09
7827.17
7827.09
7827.01
7826.45
7825.68
7823.63
7820.87
7826.55
7826.85
7826.86
7826.94
7827
7827.1
7827.16
7827.27
7827.3
7827.36
7827.27
7827.16
7826.56
7825.75
7823.66
7820.85
7826.82
7827.09
7827.1
7827.18
7827.23
7827.32
7827.38
7827.47
7827.48
7827.53
7827.42
7827.28
7826.66
7825.81
7823.68
7820.83
7827.06
7827.31
7827.32
7827.39
7827.43
7827.52
7827.57
7827.65
7827.65
7827.69
7827.56
7827.4
7826.75
7825.87
7823.7
7820.81
7827.28
7827.51
7827.52
7827.58
7827.62
7827.7
7827.74
7827.81
7827.8
7827.83
7827.69
7827.5
7826.83
7825.92
7823.72
7820.79
7827.49
7827.7
7827.7
7827.76
7827.8
7827.87
7827.9
7827.95
7827.94
7827.96
7827.8
7827.59
7826.9
7825.96
7823.74
7820.78
7827.67
7827.87
7827.87
7827.93
7827.95
7828.02
7828.05
7828.09
7828.07
7828.08
7827.91
7827.68
7826.97
7826.01
7823.76
7820.77
7827.85
7828.03
7828.03
7828.08
7828.1
7828.17
7828.18
7828.22
7828.19
7828.19
7828
7827.76
7827.04
7826.05
7823.78
7820.77
7828.01
7828.17
7828.17
7828.22
7828.24
7828.3
7828.3
7828.34
7828.3
7828.29
7828.09
7827.84
7827.1
7826.1
7823.8
7820.77
7828.15
7828.31
7828.31
7828.36
7828.37
7828.42
7828.42
7828.45
7828.41
7828.39
7828.18
7827.91
7827.16
7826.14
7823.83
7820.78
7828.29
7828.45
7828.44
7828.48
7828.49
7828.54
7828.53
7828.56
7828.52
7828.49
7828.27
7827.99
7827.22
7826.19
7823.85
7820.79
7828.43
7828.57
7828.56
7828.6
7828.61
7828.65
7828.64
7828.67
7828.62
7828.58
7828.35
7828.06
7827.28
7826.24
7823.88
7820.8
7828.55
7828.69
7828.68
7828.72
7828.72
7828.76
7828.75
7828.77
7828.72
7828.67
7828.44
7828.13
7827.34
7826.28
7823.91
7820.81
7828.68
7828.81
7828.8
7828.83
7828.83
7828.87
7828.86
7828.87
7828.82
7828.76
7828.52
7828.21
7827.4
7826.33
7823.94
7820.83
7828.79
7828.93
7828.91
7828.95
7828.94
7828.97
7828.96
7828.97
7828.91
7828.85
7828.6
7828.28
7827.46
7826.38
7823.97
7820.85
7828.91
7829.04
7829.02
7829.06
7829.05
7829.08
7829.06
7829.08
7829.01
7828.94
7828.68
7828.35
7827.52
7826.42
7824.01
7820.86
7829.02
7829.16
7829.13
7829.17
7829.15
7829.18
7829.16
7829.18
7829.1
7829.03
7828.76
7828.42
7827.58
7826.47
7824.04
7820.88
7829.14
7829.27
7829.25
7829.28
7829.26
7829.29
7829.26
7829.27
7829.19
7829.11
7828.83
7828.48
7827.63
7826.51
7824.06
7820.9
7829.25
7829.38
7829.36
7829.38
7829.36
7829.38
7829.36
7829.36
7829.27
7829.19
7828.91
7828.55
7827.68
7826.55
7824.09
7820.91
7829.37
7829.49
7829.47
7829.49
7829.47
7829.49
7829.47
7829.46
7829.37
7829.28
7828.98
7828.62
7827.74
7826.59
7824.11
7820.92
7829.48
7829.62
7829.59
7829.61
7829.59
7829.6
7829.58
7829.56
7829.46
7829.36
7829.06
7828.68
7827.79
7826.63
7824.13
7820.92
7829.6
7829.75
7829.71
7829.73
7829.7
7829.72
7829.68
7829.66
7829.55
7829.44
7829.13
7828.74
7827.84
7826.67
7824.15
7820.92
7829.73
7829.87
7829.84
7829.85
7829.82
7829.83
7829.79
7829.76
7829.65
7829.53
7829.21
7828.8
7827.88
7826.69
7824.16
7820.91
7829.86
7830.01
7829.98
7829.98
7829.95
7829.96
7829.91
7829.87
7829.75
7829.61
7829.28
7828.86
7827.93
7826.72
7824.16
7820.9
7830.01
7830.17
7830.12
7830.13
7830.09
7830.09
7830.03
7829.98
7829.85
7829.7
7829.35
7828.92
7827.96
7826.74
7824.15
7820.87
7830.16
7830.33
7830.28
7830.28
7830.24
7830.23
7830.16
7830.1
7829.95
7829.79
7829.43
7828.97
7828
7826.75
7824.14
7820.84
7830.32
7830.5
7830.46
7830.46
7830.41
7830.38
7830.31
7830.23
7830.07
7829.89
7829.51
7829.03
7828.03
7826.75
7824.12
7820.79
7830.5
7830.71
7830.66
7830.65
7830.59
7830.55
7830.46
7830.37
7830.19
7829.99
7829.59
7829.08
7828.06
7826.75
7824.08
7820.73
7830.7
7830.94
7830.88
7830.86
7830.8
7830.74
7830.64
7830.53
7830.33
7830.1
7829.67
7829.14
7828.08
7826.75
7824.04
7820.65
7830.94
7831.21
7831.15
7831.12
7831.04
7830.97
7830.85
7830.72
7830.49
7830.24
7829.78
7829.21
7828.11
7826.74
7823.99
7820.56
7831.21
7831.51
7831.45
7831.41
7831.32
7831.23
7831.09
7830.93
7830.68
7830.39
7829.9
7829.29
7828.15
7826.73
7823.93
7820.45
7831.52
7831.86
7831.79
7831.73
7831.63
7831.52
7831.36
7831.18
7830.9
7830.57
7830.04
7829.38
7828.19
7826.71
7823.86
7820.32
7831.87
7832.26
7832.18
7832.11
7831.99
7831.86
7831.68
7831.46
7831.15
7830.78
7830.2
7829.49
7828.24
7826.7
7823.77
7820.18
7832.27
7832.72
7832.64
7832.56
7832.42
7832.27
7832.06
7831.81
7831.46
7831.04
7830.41
7829.63
7828.32
7826.7
7823.69
7820.02
7832.74
7833.26
7833.17
7833.07
7832.92
7832.74
7832.51
7832.22
7831.83
7831.35
7830.66
7829.82
7828.42
7826.71
7823.62
7819.84
7833.27
7833.86
7833.77
7833.66
7833.5
7833.29
7833.03
7832.7
7832.26
7831.73
7830.98
7830.05
7828.57
7826.75
7823.55
7819.66
7833.88
7834.56
7834.46
7834.34
7834.16
7833.94
7833.64
7833.28
7832.8
7832.2
7831.38
7830.36
7828.78
7826.83
7823.5
7819.47
7834.58
7835.36
7835.26
7835.13
7834.94
7834.69
7834.37
7833.97
7833.45
7832.79
7831.89
7830.77
7829.08
7826.98
7823.5
7819.28
7835.39
7836.26
7836.16
7836.03
7835.83
7835.57
7835.23
7834.8
7834.23
7833.51
7832.54
7831.31
7829.5
7827.23
7823.56
7819.12
7836.29
7837.27
7837.18
7837.04
7836.84
7836.57
7836.22
7835.77
7835.17
7834.4
7833.36
7832.02
7830.07
7827.61
7823.74
7819
7837.3
7838.39
7838.3
7838.17
7837.97
7837.71
7837.36
7836.91
7836.29
7835.48
7834.38
7832.95
7830.87
7828.2
7824.07
7818.97
7838.41
7839.6
7839.53
7839.41
7839.24
7839
7838.67
7838.23
7837.62
7836.8
7835.67
7834.16
7831.97
7829.08
7824.66
7819.09
7839.63
7840.91
7840.86
7840.77
7840.63
7840.42
7840.14
7839.74
7839.17
7838.38
7837.26
7835.73
7833.48
7830.42
7825.73
7819.59
7840.93
7842.29
7842.27
7842.21
7842.12
7841.97
7841.75
7841.44
7840.94
7840.25
7839.2
7837.74
7835.51
7832.42
7827.64
7821.2
7842.3
7843.72
7843.72
7843.71
7843.69
7843.63
7843.5
7843.31
7842.94
7842.4
7841.51
7840.22
7838.16
7835.23
7830.65
7824.38
7843.71
7845.15
7845.19
7845.24
7845.3
7845.34
7845.35
7845.31
7845.13
7844.81
7844.14
7843.14
7841.36
7838.78
7834.55
7828.69
7845.12
7846.54
7846.62
7846.74
7846.89
7847.07
7847.23
7847.39
7847.43
7847.4
7847.05
7846.44
7845.08
7843.02
7839.33
7834.12
7846.5
7847.83
7847.96
7848.16
7848.42
7848.73
7849.07
7849.46
7849.77
7850.08
7850.12
7850.01
7849.19
7847.82
7844.84
7840.52
7847.77
7848.96
7849.15
7849.42
7849.79
7850.26
7850.78
7851.42
7852.03
7852.73
7853.22
7853.69
7853.53
7853.01
7850.93
7847.73
7848.89
7849.88
7850.11
7850.46
7850.94
7851.55
7852.27
7853.16
7854.08
7855.19
7856.17
7857.3
7857.88
7858.38
7857.38
7855.65
7849.78
7850.5
7850.78
7851.2
7851.77
7852.52
7853.41
7854.54
7855.76
7857.27
7858.75
7860.56
7861.96
7863.62
7863.94
7864.11
7850.4
7850.8
7851.11
7851.58
7852.24
7853.09
7854.14
7855.46
7856.94
7858.81
7860.74
7863.21
7865.41
7868.27
7870.03
7872.34
7850.69
7850.67
7851
7851.49
7852.2
7853.11
7854.25
7855.69
7857.35
7859.47
7861.75
7864.72
7867.61
7871.58
7874.82
7879.8
7850.55
7850.19
7850.52
7851.02
7851.74
7852.67
7853.84
7855.33
7857.08
7859.32
7861.8
7865.1
7868.47
7873.31
7877.74
7885.36
7850.07
7849.89
7850.24
7850.75
7851.49
7852.42
7853.62
7855.14
7856.93
7859.23
7861.81
7865.26
7868.83
7873.88
7878.49
7886.22
7849.78
7850.18
7850.56
7851.08
7851.84
7852.8
7854.03
7855.57
7857.39
7859.7
7862.29
7865.69
7869.2
7873.97
7878.11
7884.44
7850.06
7851.07
7851.47
7852.02
7852.82
7853.8
7855.07
7856.62
7858.44
7860.69
7863.19
7866.32
7869.47
7873.44
7876.58
7880.92
7850.94
7852.51
7852.95
7853.52
7854.36
7855.36
7856.65
7858.19
7859.98
7862.11
7864.43
7867.12
7869.73
7872.54
7874.36
7876.34
7852.37
7854.46
7854.91
7855.5
7856.35
7857.36
7858.64
7860.13
7861.86
7863.84
7865.94
7868.14
7870.13
7871.64
7871.95
7871.46
7854.31
7856.79
7857.23
7857.8
7858.67
7859.68
7860.95
7862.39
7864.07
7865.96
7867.83
7869.45
7870.43
7870.37
7869.19
7866.93
7856.64
7859.48
7859.92
7860.49
7861.41
7862.49
7863.82
7865.2
7866.74
7868.09
7869.05
7869.32
7868.86
7867.57
7865.57
7862.78
7859.34
7862.98
7863.42
7863.96
7864.73
7865.56
7866.46
7867.18
7867.72
7867.81
7867.53
7866.58
7865.29
7863.58
7861.61
7859.07
7862.83
7865.45
7865.69
7865.88
7866.1
7866.23
7866.29
7866.12
7865.69
7864.97
7864.11
7862.93
7861.68
7860.07
7858.24
7855.87
7865.35
7864.42
7864.43
7864.33
7864.21
7863.97
7863.64
7863.15
7862.52
7861.83
7861.04
7859.94
7858.71
7857.14
7855.43
7853.28
7864.42
7861.95
7861.86
7861.67
7861.49
7861.26
7860.95
7860.5
7859.93
7859.18
7858.33
7857.24
7856.06
7854.58
7853.03
7851.08
7861.99
7859.73
7859.65
7859.48
7859.27
7858.96
7858.58
7858.07
7857.47
7856.73
7855.91
7854.87
7853.77
7852.4
7850.98
7849.22
7859.77
7857.57
7857.47
7857.29
7857.05
7856.74
7856.35
7855.86
7855.28
7854.56
7853.76
7852.78
7851.75
7850.5
7849.22
7847.63
7857.61
7855.59
7855.48
7855.3
7855.05
7854.73
7854.34
7853.85
7853.28
7852.6
7851.85
7850.94
7849.99
7848.85
7847.7
7846.28
7855.63
7853.73
7853.61
7853.43
7853.19
7852.88
7852.49
7852.02
7851.49
7850.84
7850.14
7849.31
7848.44
7847.41
7846.38
7845.11
7853.77
7852.01
7851.9
7851.73
7851.49
7851.19
7850.82
7850.37
7849.87
7849.27
7848.62
7847.86
7847.08
7846.15
7845.23
7844.11
7852.05
7850.43
7850.32
7850.16
7849.93
7849.64
7849.3
7848.88
7848.41
7847.86
7847.27
7846.58
7845.87
7845.04
7844.22
7843.22
7850.47
7848.98
7848.87
7848.72
7848.5
7848.24
7847.91
7847.53
7847.1
7846.59
7846.06
7845.43
7844.8
7844.06
7843.33
7842.44
7849.02
7847.65
7847.54
7847.41
7847.2
7846.96
7846.66
7846.31
7845.91
7845.45
7844.97
7844.41
7843.84
7843.18
7842.54
7841.75
7847.69
7846.44
7846.33
7846.21
7846.02
7845.8
7845.52
7845.2
7844.84
7844.43
7843.99
7843.49
7842.99
7842.4
7841.83
7841.14
7846.47
7845.33
7845.23
7845.11
7844.94
7844.74
7844.49
7844.2
7843.87
7843.5
7843.11
7842.66
7842.22
7841.7
7841.2
7840.58
7845.35
7844.31
7844.22
7844.12
7843.96
7843.78
7843.55
7843.29
7843
7842.66
7842.31
7841.92
7841.52
7841.06
7840.62
7840.07
7844.34
7843.39
7843.3
7843.21
7843.06
7842.9
7842.69
7842.46
7842.2
7841.9
7841.59
7841.24
7840.89
7840.48
7840.09
7839.6
7843.41
7842.54
7842.46
7842.38
7842.25
7842.1
7841.91
7841.71
7841.47
7841.21
7840.93
7840.62
7840.31
7839.95
7839.6
7839.17
7842.56
7841.76
7841.7
7841.62
7841.5
7841.37
7841.2
7841.02
7840.81
7840.57
7840.33
7840.05
7839.78
7839.46
7839.15
7838.77
7841.78
7841.05
7840.99
7840.92
7840.82
7840.7
7840.55
7840.39
7840.2
7839.99
7839.77
7839.53
7839.29
7839.01
7838.74
7838.39
7841.07
7840.4
7840.35
7840.29
7840.19
7840.09
7839.95
7839.81
7839.64
7839.46
7839.26
7839.05
7838.83
7838.59
7838.34
7838.03
7840.42
7839.81
7839.75
7839.7
7839.62
7839.52
7839.4
7839.27
7839.13
7838.96
7838.79
7838.6
7838.41
7838.19
7837.98
7837.7
7839.82
7839.25
7839.21
7839.16
7839.09
7839
7838.9
7838.78
7838.65
7838.5
7838.35
7838.18
7838.01
7837.82
7837.63
7837.37
7839.27
7838.75
7838.7
7838.66
7838.59
7838.52
7838.43
7838.32
7838.21
7838.08
7837.94
7837.79
7837.64
7837.47
7837.3
7837.07
7838.76
7838.28
7838.24
7838.2
7838.14
7838.07
7837.99
7837.9
7837.8
7837.68
7837.56
7837.43
7837.3
7837.14
7836.99
7836.78
7838.28
7837.84
7837.81
7837.77
7837.72
7837.66
7837.59
7837.5
7837.41
7837.31
7837.2
7837.08
7836.97
7836.83
7836.69
7836.5
7837.85
7837.43
7837.4
7837.37
7837.33
7837.27
7837.21
7837.13
7837.05
7836.96
7836.87
7836.76
7836.66
7836.53
7836.41
7836.23
7837.44
7837.06
7837.03
7837
7836.96
7836.91
7836.85
7836.79
7836.72
7836.63
7836.55
7836.46
7836.36
7836.25
7836.14
7835.97
7837.06
7836.7
7836.68
7836.66
7836.62
7836.58
7836.52
7836.46
7836.4
7836.33
7836.25
7836.17
7836.08
7835.98
7835.88
7835.72
7836.71
7836.37
7836.35
7836.33
7836.3
7836.26
7836.21
7836.16
7836.1
7836.03
7835.97
7835.89
7835.81
7835.73
7835.63
7835.48
7836.38
7836.06
7836.04
7836.03
7835.99
7835.96
7835.92
7835.87
7835.82
7835.76
7835.7
7835.63
7835.56
7835.48
7835.39
7835.25
7836.07
7835.77
7835.76
7835.74
7835.71
7835.68
7835.64
7835.6
7835.55
7835.5
7835.44
7835.38
7835.32
7835.24
7835.16
7835.03
7835.78
7835.5
7835.48
7835.47
7835.44
7835.41
7835.38
7835.34
7835.3
7835.25
7835.2
7835.14
7835.09
7835.02
7834.94
7834.81
7835.5
7835.24
7835.23
7835.21
7835.19
7835.16
7835.13
7835.1
7835.06
7835.01
7834.97
7834.92
7834.86
7834.8
7834.73
7834.61
7835.25
7835
7834.98
7834.97
7834.95
7834.93
7834.9
7834.87
7834.83
7834.79
7834.75
7834.7
7834.65
7834.59
7834.52
7834.41
7835
7834.77
7834.76
7834.74
7834.72
7834.7
7834.68
7834.65
7834.61
7834.57
7834.54
7834.49
7834.45
7834.39
7834.32
7834.22
7834.77
7834.55
7834.54
7834.53
7834.51
7834.49
7834.46
7834.44
7834.41
7834.37
7834.33
7834.29
7834.25
7834.2
7834.13
7834.03
7834.55
7834.35
7834.34
7834.33
7834.31
7834.29
7834.26
7834.24
7834.21
7834.18
7834.14
7834.1
7834.06
7834.01
7833.95
7833.85
7834.35
7834.15
7834.14
7834.13
7834.12
7834.1
7834.08
7834.05
7834.02
7833.99
7833.96
7833.92
7833.88
7833.83
7833.77
7833.67
7834.16
7833.97
7833.96
7833.95
7833.94
7833.92
7833.9
7833.87
7833.84
7833.81
7833.78
7833.75
7833.71
7833.66
7833.6
7833.5
7833.97
7833.8
7833.79
7833.78
7833.77
7833.75
7833.73
7833.7
7833.68
7833.65
7833.61
7833.58
7833.54
7833.5
7833.44
7833.34
7833.8
7833.64
7833.63
7833.62
7833.61
7833.59
7833.57
7833.54
7833.52
7833.49
7833.46
7833.42
7833.38
7833.34
7833.28
7833.18
7833.64
7833.49
7833.48
7833.47
7833.46
7833.44
7833.42
7833.39
7833.37
7833.34
7833.3
7833.27
7833.23
7833.18
7833.13
7833.03
7833.49
7833.35
7833.34
7833.33
7833.32
7833.3
7833.28
7833.25
7833.23
7833.19
7833.16
7833.12
7833.08
7833.04
7832.98
7832.88
7833.35
7833.22
7833.21
7833.2
7833.19
7833.17
7833.15
7833.12
7833.09
7833.06
7833.03
7832.99
7832.95
7832.9
7832.83
7832.73
7833.22
7833.1
7833.09
7833.08
7833.07
7833.05
7833.03
7833
7832.97
7832.94
7832.9
7832.86
7832.82
7832.77
7832.7
7832.59
7833.1
7832.99
7832.98
7832.97
7832.96
7832.94
7832.92
7832.89
7832.86
7832.83
7832.79
7832.74
7832.7
7832.64
7832.57
7832.46
7832.99
7832.89
7832.89
7832.87
7832.86
7832.84
7832.82
7832.79
7832.76
7832.72
7832.68
7832.64
7832.59
7832.53
7832.45
7832.33
7832.9
7832.81
7832.8
7832.79
7832.77
7832.75
7832.73
7832.7
7832.67
7832.63
7832.59
7832.54
7832.49
7832.42
7832.34
7832.21
7832.81
7832.73
7832.72
7832.71
7832.7
7832.68
7832.65
7832.63
7832.59
7832.56
7832.51
7832.46
7832.4
7832.33
7832.23
7832.1
7832.73
7832.67
7832.66
7832.65
7832.63
7832.61
7832.59
7832.56
7832.53
7832.49
7832.45
7832.39
7832.33
7832.25
7832.15
7831.99
7832.67
7832.61
7832.6
7832.59
7832.58
7832.56
7832.54
7832.51
7832.48
7832.44
7832.4
7832.35
7832.28
7832.2
7832.08
7831.91
7832.61
7832.57
7832.56
7832.55
7832.54
7832.52
7832.5
7832.47
7832.44
7832.41
7832.37
7832.32
7832.25
7832.17
7832.05
7831.86
7832.57
7832.53
7832.52
7832.51
7832.5
7832.49
7832.47
7832.44
7832.42
7832.39
7832.35
7832.31
7832.26
7832.2
7832.11
7831.96
7832.53
7832.51
7832.51
7832.5
7832.49
7832.47
7832.46
7832.44
7832.41
7832.39
7832.36
7832.32
7832.28
7832.23
7832.18
7832.07
7832.51
)
;

boundaryField
{
    wireUpstream
    {
        type            calculated;
        value           nonuniform List<scalar> 
16
(
7832.49
7832.49
7832.48
7832.47
7832.46
7832.44
7832.43
7832.41
7832.38
7832.35
7832.32
7832.29
7832.26
7832.24
7832.22
7832.5
)
;
    }
    wireDownstream
    {
        type            calculated;
        value           nonuniform List<scalar> 
16
(
7823.82
7823.85
7823.95
7824.02
7824.16
7824.26
7824.43
7824.51
7824.63
7824.6
7824.6
7824.19
7823.6
7821.78
7818.89
7823.78
)
;
    }
    wireTopContact
    {
        type            calculated;
        value           nonuniform List<scalar> 
122
(
7820.56
7820.75
7820.89
7820.94
7820.97
7820.96
7820.95
7820.93
7820.91
7820.89
7820.88
7820.86
7820.85
7820.85
7820.85
7820.85
7820.86
7820.87
7820.88
7820.9
7820.91
7820.93
7820.94
7820.96
7820.97
7820.98
7820.98
7820.98
7820.97
7820.95
7820.92
7820.88
7820.83
7820.77
7820.69
7820.59
7820.48
7820.35
7820.2
7820.04
7819.86
7819.67
7819.49
7819.3
7819.13
7819.02
7819.01
7819.16
7819.66
7821.23
7824.48
7828.81
7834.26
7840.67
7847.87
7855.75
7864.21
7872.31
7879.7
7885.54
7886.02
7884.01
7880.53
7876.13
7871.46
7867.01
7862.8
7859.14
7855.94
7853.33
7851.11
7849.23
7847.64
7846.28
7845.1
7844.09
7843.2
7842.42
7841.73
7841.11
7840.55
7840.04
7839.58
7839.15
7838.74
7838.37
7838.01
7837.68
7837.36
7837.05
7836.76
7836.48
7836.21
7835.96
7835.71
7835.47
7835.24
7835.02
7834.81
7834.6
7834.4
7834.21
7834.02
7833.84
7833.67
7833.5
7833.33
7833.17
7833.02
7832.87
7832.73
7832.59
7832.45
7832.32
7832.2
7832.09
7831.99
7831.91
7831.86
7831.95
7832.03
7820
)
;
    }
    front
    {
        type            wedge;
    }
    back
    {
        type            wedge;
    }
}


// ************************************************************************* //
