/*--------------------------------*- C++ -*----------------------------------*\
| =========                 |                                                 |
| \\      /  F ield         | foam-extend: Open Source CFD                    |
|  \\    /   O peration     | Version:     4.1-20200408                       |
|   \\  /    A nd           | Web:         http://www.foam-extend.org         |
|    \\/     M anipulation  |                                                 |
\*---------------------------------------------------------------------------*/
FoamFile
{
    version     2.0;
    format      ascii;
    class       volVectorField;
    location    "0.0215000";
    object      U_0;
}
// * * * * * * * * * * * * * * * * * * * * * * * * * * * * * * * * * * * * * //

dimensions      [0 1 0 0 0 0 0];

internalField   nonuniform List<vector> 
1952
(
(0.0213926 -1.77771e-07 0)
(0.0213926 -2.90075e-07 0)
(0.0213926 -4.03683e-07 0)
(0.0213926 -5.19566e-07 0)
(0.0213926 -6.34695e-07 0)
(0.0213926 -7.53354e-07 0)
(0.0213927 -8.69869e-07 0)
(0.0213927 -9.91663e-07 0)
(0.0213927 -1.10954e-06 0)
(0.0213927 -1.23409e-06 0)
(0.0213928 -1.35206e-06 0)
(0.0213928 -1.47833e-06 0)
(0.0213929 -1.59136e-06 0)
(0.021393 -1.71241e-06 0)
(0.0213931 -1.80375e-06 0)
(0.0213926 -7.61794e-08 0)
(0.0213923 -1.82758e-07 0)
(0.0213923 -2.98131e-07 0)
(0.0213923 -4.14918e-07 0)
(0.0213923 -5.33947e-07 0)
(0.0213923 -6.5225e-07 0)
(0.0213924 -7.74e-07 0)
(0.0213924 -8.93654e-07 0)
(0.0213924 -1.01845e-06 0)
(0.0213924 -1.1394e-06 0)
(0.0213925 -1.26678e-06 0)
(0.0213925 -1.3877e-06 0)
(0.0213925 -1.51639e-06 0)
(0.0213926 -1.63163e-06 0)
(0.0213927 -1.75396e-06 0)
(0.0213928 -1.84557e-06 0)
(0.0213923 -7.83113e-08 0)
(0.021392 -1.87183e-07 0)
(0.021392 -3.05291e-07 0)
(0.021392 -4.24865e-07 0)
(0.021392 -5.46686e-07 0)
(0.0213921 -6.67721e-07 0)
(0.0213921 -7.92179e-07 0)
(0.0213921 -9.14465e-07 0)
(0.0213921 -1.04181e-06 0)
(0.0213921 -1.16519e-06 0)
(0.0213922 -1.29478e-06 0)
(0.0213922 -1.41783e-06 0)
(0.0213923 -1.54816e-06 0)
(0.0213923 -1.66474e-06 0)
(0.0213924 -1.78773e-06 0)
(0.0213925 -1.87952e-06 0)
(0.021392 -8.02054e-08 0)
(0.0213917 -1.91074e-07 0)
(0.0213917 -3.11623e-07 0)
(0.0213917 -4.33625e-07 0)
(0.0213917 -5.57855e-07 0)
(0.0213918 -6.81252e-07 0)
(0.0213918 -8.08014e-07 0)
(0.0213918 -9.32508e-07 0)
(0.0213918 -1.06196e-06 0)
(0.0213918 -1.18726e-06 0)
(0.0213919 -1.31858e-06 0)
(0.0213919 -1.4432e-06 0)
(0.021392 -1.57471e-06 0)
(0.021392 -1.69222e-06 0)
(0.0213921 -1.8157e-06 0)
(0.0213922 -1.90796e-06 0)
(0.0213917 -8.18743e-08 0)
(0.0213914 -1.94465e-07 0)
(0.0213914 -3.1714e-07 0)
(0.0213914 -4.41251e-07 0)
(0.0213915 -5.67557e-07 0)
(0.0213915 -6.93007e-07 0)
(0.0213915 -8.21707e-07 0)
(0.0213915 -9.481e-07 0)
(0.0213915 -1.07929e-06 0)
(0.0213915 -1.20618e-06 0)
(0.0213916 -1.33885e-06 0)
(0.0213916 -1.46464e-06 0)
(0.0213917 -1.59709e-06 0)
(0.0213917 -1.71532e-06 0)
(0.0213918 -1.83929e-06 0)
(0.021392 -1.93214e-06 0)
(0.0213914 -8.33295e-08 0)
(0.0213911 -1.97423e-07 0)
(0.0213911 -3.2195e-07 0)
(0.0213911 -4.47864e-07 0)
(0.0213912 -5.75961e-07 0)
(0.0213912 -7.03167e-07 0)
(0.0213912 -8.33504e-07 0)
(0.0213912 -9.61485e-07 0)
(0.0213912 -1.09411e-06 0)
(0.0213913 -1.22229e-06 0)
(0.0213913 -1.35608e-06 0)
(0.0213913 -1.48286e-06 0)
(0.0213914 -1.61613e-06 0)
(0.0213914 -1.735e-06 0)
(0.0213915 -1.85952e-06 0)
(0.0213917 -1.95308e-06 0)
(0.0213911 -8.45996e-08 0)
(0.0213908 -1.99988e-07 0)
(0.0213908 -3.26119e-07 0)
(0.0213909 -4.53577e-07 0)
(0.0213909 -5.83183e-07 0)
(0.0213909 -7.11944e-07 0)
(0.0213909 -8.43602e-07 0)
(0.0213909 -9.73008e-07 0)
(0.0213909 -1.1067e-06 0)
(0.021391 -1.23604e-06 0)
(0.021391 -1.37097e-06 0)
(0.021391 -1.4986e-06 0)
(0.0213911 -1.63273e-06 0)
(0.0213911 -1.75225e-06 0)
(0.0213912 -1.87745e-06 0)
(0.0213914 -1.97182e-06 0)
(0.0213908 -8.57014e-08 0)
(0.0213905 -2.02218e-07 0)
(0.0213905 -3.29727e-07 0)
(0.0213906 -4.58553e-07 0)
(0.0213906 -5.89473e-07 0)
(0.0213906 -7.19577e-07 0)
(0.0213906 -8.52403e-07 0)
(0.0213906 -9.83037e-07 0)
(0.0213906 -1.11769e-06 0)
(0.0213907 -1.24807e-06 0)
(0.0213907 -1.38404e-06 0)
(0.0213907 -1.51244e-06 0)
(0.0213908 -1.6474e-06 0)
(0.0213908 -1.76763e-06 0)
(0.0213909 -1.89358e-06 0)
(0.0213911 -1.98878e-06 0)
(0.0213905 -8.66575e-08 0)
(0.0213902 -2.04157e-07 0)
(0.0213902 -3.32849e-07 0)
(0.0213903 -4.629e-07 0)
(0.0213903 -5.94962e-07 0)
(0.0213903 -7.26222e-07 0)
(0.0213903 -8.60107e-07 0)
(0.0213903 -9.91793e-07 0)
(0.0213903 -1.12739e-06 0)
(0.0213904 -1.25871e-06 0)
(0.0213904 -1.3956e-06 0)
(0.0213904 -1.52483e-06 0)
(0.0213905 -1.66062e-06 0)
(0.0213905 -1.78163e-06 0)
(0.0213906 -1.90838e-06 0)
(0.0213908 -2.00441e-06 0)
(0.0213902 -8.74874e-08 0)
(0.0213899 -2.05871e-07 0)
(0.0213899 -3.35611e-07 0)
(0.02139 -4.66746e-07 0)
(0.02139 -5.99825e-07 0)
(0.02139 -7.32128e-07 0)
(0.02139 -8.66956e-07 0)
(0.02139 -9.99621e-07 0)
(0.02139 -1.13607e-06 0)
(0.02139 -1.26828e-06 0)
(0.0213901 -1.40608e-06 0)
(0.0213901 -1.53611e-06 0)
(0.0213902 -1.67275e-06 0)
(0.0213902 -1.79459e-06 0)
(0.0213903 -1.92219e-06 0)
(0.0213905 -2.01903e-06 0)
(0.0213899 -8.82205e-08 0)
(0.0213896 -2.07405e-07 0)
(0.0213896 -3.38082e-07 0)
(0.0213896 -4.70199e-07 0)
(0.0213897 -6.04195e-07 0)
(0.0213897 -7.37447e-07 0)
(0.0213897 -8.73158e-07 0)
(0.0213897 -1.00673e-06 0)
(0.0213897 -1.14401e-06 0)
(0.0213897 -1.27707e-06 0)
(0.0213898 -1.41575e-06 0)
(0.0213898 -1.54659e-06 0)
(0.0213899 -1.68406e-06 0)
(0.0213899 -1.80676e-06 0)
(0.02139 -1.9352e-06 0)
(0.0213902 -2.03288e-06 0)
(0.0213896 -8.88765e-08 0)
(0.0213893 -2.08804e-07 0)
(0.0213893 -3.40338e-07 0)
(0.0213893 -4.73354e-07 0)
(0.0213894 -6.08194e-07 0)
(0.0213894 -7.42327e-07 0)
(0.0213894 -8.78875e-07 0)
(0.0213894 -1.01331e-06 0)
(0.0213894 -1.15138e-06 0)
(0.0213894 -1.28528e-06 0)
(0.0213895 -1.42481e-06 0)
(0.0213895 -1.5565e-06 0)
(0.0213896 -1.6948e-06 0)
(0.0213896 -1.81837e-06 0)
(0.0213897 -1.94763e-06 0)
(0.0213899 -2.04616e-06 0)
(0.0213893 -8.94745e-08 0)
(0.021389 -2.10106e-07 0)
(0.021389 -3.42441e-07 0)
(0.021389 -4.76302e-07 0)
(0.0213891 -6.11919e-07 0)
(0.0213891 -7.46882e-07 0)
(0.0213891 -8.84245e-07 0)
(0.0213891 -1.01952e-06 0)
(0.0213891 -1.15834e-06 0)
(0.0213891 -1.29307e-06 0)
(0.0213892 -1.43344e-06 0)
(0.0213892 -1.566e-06 0)
(0.0213893 -1.70514e-06 0)
(0.0213893 -1.82958e-06 0)
(0.0213894 -1.95968e-06 0)
(0.0213896 -2.05902e-06 0)
(0.021389 -9.00317e-08 0)
(0.0213887 -2.11338e-07 0)
(0.0213887 -3.44438e-07 0)
(0.0213887 -4.79089e-07 0)
(0.0213887 -6.15451e-07 0)
(0.0213888 -7.51162e-07 0)
(0.0213888 -8.89376e-07 0)
(0.0213888 -1.02537e-06 0)
(0.0213888 -1.16505e-06 0)
(0.0213888 -1.30067e-06 0)
(0.0213889 -1.44182e-06 0)
(0.0213889 -1.57528e-06 0)
(0.0213889 -1.71524e-06 0)
(0.021389 -1.84054e-06 0)
(0.0213891 -1.97147e-06 0)
(0.0213892 -2.07162e-06 0)
(0.0213887 -9.05591e-08 0)
(0.0213884 -2.12512e-07 0)
(0.0213884 -3.46357e-07 0)
(0.0213884 -4.8174e-07 0)
(0.0213884 -6.18866e-07 0)
(0.0213885 -7.55286e-07 0)
(0.0213885 -8.94328e-07 0)
(0.0213885 -1.03102e-06 0)
(0.0213885 -1.17154e-06 0)
(0.0213885 -1.3081e-06 0)
(0.0213885 -1.45003e-06 0)
(0.0213886 -1.58441e-06 0)
(0.0213886 -1.7252e-06 0)
(0.0213887 -1.85139e-06 0)
(0.0213888 -1.98317e-06 0)
(0.0213889 -2.08412e-06 0)
(0.0213884 -9.10631e-08 0)
(0.0213881 -2.13645e-07 0)
(0.0213881 -3.48218e-07 0)
(0.0213881 -4.84299e-07 0)
(0.0213881 -6.22205e-07 0)
(0.0213881 -7.59335e-07 0)
(0.0213882 -8.99186e-07 0)
(0.0213882 -1.03661e-06 0)
(0.0213882 -1.17795e-06 0)
(0.0213882 -1.31541e-06 0)
(0.0213882 -1.45816e-06 0)
(0.0213883 -1.59347e-06 0)
(0.0213883 -1.7351e-06 0)
(0.0213884 -1.8622e-06 0)
(0.0213885 -1.99484e-06 0)
(0.0213886 -2.0966e-06 0)
(0.0213881 -9.15496e-08 0)
(0.0213878 -2.14756e-07 0)
(0.0213878 -3.50043e-07 0)
(0.0213878 -4.86822e-07 0)
(0.0213878 -6.2549e-07 0)
(0.0213878 -7.63338e-07 0)
(0.0213879 -9.04003e-07 0)
(0.0213879 -1.04216e-06 0)
(0.0213879 -1.18432e-06 0)
(0.0213879 -1.32267e-06 0)
(0.0213879 -1.46627e-06 0)
(0.021388 -1.60251e-06 0)
(0.021388 -1.74502e-06 0)
(0.0213881 -1.87302e-06 0)
(0.0213882 -2.00652e-06 0)
(0.0213883 -2.10906e-06 0)
(0.0213878 -9.20266e-08 0)
(0.0213875 -2.1585e-07 0)
(0.0213875 -3.51842e-07 0)
(0.0213875 -4.89319e-07 0)
(0.0213875 -6.28743e-07 0)
(0.0213875 -7.67321e-07 0)
(0.0213875 -9.08786e-07 0)
(0.0213876 -1.04771e-06 0)
(0.0213876 -1.19069e-06 0)
(0.0213876 -1.32993e-06 0)
(0.0213876 -1.47441e-06 0)
(0.0213877 -1.61156e-06 0)
(0.0213877 -1.75495e-06 0)
(0.0213878 -1.88385e-06 0)
(0.0213879 -2.0182e-06 0)
(0.021388 -2.12151e-06 0)
(0.0213875 -9.24963e-08 0)
(0.0213872 -2.16943e-07 0)
(0.0213872 -3.53632e-07 0)
(0.0213872 -4.91826e-07 0)
(0.0213872 -6.3197e-07 0)
(0.0213872 -7.71329e-07 0)
(0.0213872 -9.13508e-07 0)
(0.0213872 -1.05328e-06 0)
(0.0213873 -1.19719e-06 0)
(0.0213873 -1.33724e-06 0)
(0.0213873 -1.48263e-06 0)
(0.0213873 -1.62066e-06 0)
(0.0213874 -1.76493e-06 0)
(0.0213875 -1.89469e-06 0)
(0.0213875 -2.02987e-06 0)
(0.0213877 -2.13393e-06 0)
(0.0213872 -9.29652e-08 0)
(0.0213869 -2.18036e-07 0)
(0.0213869 -3.55421e-07 0)
(0.0213869 -4.94326e-07 0)
(0.0213869 -6.35183e-07 0)
(0.0213869 -7.7532e-07 0)
(0.0213869 -9.18204e-07 0)
(0.0213869 -1.05885e-06 0)
(0.0213869 -1.20369e-06 0)
(0.021387 -1.34458e-06 0)
(0.021387 -1.49088e-06 0)
(0.021387 -1.62978e-06 0)
(0.0213871 -1.77494e-06 0)
(0.0213871 -1.90559e-06 0)
(0.0213872 -2.04161e-06 0)
(0.0213874 -2.14644e-06 0)
(0.0213869 -9.34342e-08 0)
(0.0213866 -2.19135e-07 0)
(0.0213866 -3.57219e-07 0)
(0.0213866 -4.96841e-07 0)
(0.0213866 -6.38432e-07 0)
(0.0213866 -7.79351e-07 0)
(0.0213866 -9.22986e-07 0)
(0.0213866 -1.06446e-06 0)
(0.0213866 -1.2102e-06 0)
(0.0213867 -1.35196e-06 0)
(0.0213867 -1.49918e-06 0)
(0.0213867 -1.63897e-06 0)
(0.0213867 -1.78501e-06 0)
(0.0213868 -1.91657e-06 0)
(0.0213869 -2.05338e-06 0)
(0.021387 -2.15897e-06 0)
(0.0213866 -9.39053e-08 0)
(0.0213863 -2.20233e-07 0)
(0.0213863 -3.59015e-07 0)
(0.0213863 -4.99354e-07 0)
(0.0213863 -6.41689e-07 0)
(0.0213863 -7.8336e-07 0)
(0.0213863 -9.2772e-07 0)
(0.0213863 -1.07006e-06 0)
(0.0213863 -1.21668e-06 0)
(0.0213863 -1.35933e-06 0)
(0.0213864 -1.50748e-06 0)
(0.0213864 -1.64818e-06 0)
(0.0213864 -1.79513e-06 0)
(0.0213865 -1.9276e-06 0)
(0.0213866 -2.06521e-06 0)
(0.0213867 -2.17155e-06 0)
(0.0213863 -9.43756e-08 0)
(0.021386 -2.21318e-07 0)
(0.021386 -3.608e-07 0)
(0.021386 -5.01827e-07 0)
(0.021386 -6.44943e-07 0)
(0.021386 -7.87271e-07 0)
(0.021386 -9.32452e-07 0)
(0.021386 -1.07573e-06 0)
(0.021386 -1.22318e-06 0)
(0.021386 -1.36674e-06 0)
(0.021386 -1.51575e-06 0)
(0.0213861 -1.65743e-06 0)
(0.0213861 -1.80529e-06 0)
(0.0213862 -1.93866e-06 0)
(0.0213863 -2.07714e-06 0)
(0.0213864 -2.18423e-06 0)
(0.021386 -9.48409e-08 0)
(0.0213857 -2.22382e-07 0)
(0.0213857 -3.62545e-07 0)
(0.0213857 -5.04268e-07 0)
(0.0213857 -6.48125e-07 0)
(0.0213857 -7.91149e-07 0)
(0.0213857 -9.37169e-07 0)
(0.0213857 -1.0814e-06 0)
(0.0213857 -1.22968e-06 0)
(0.0213857 -1.37415e-06 0)
(0.0213857 -1.52404e-06 0)
(0.0213857 -1.66669e-06 0)
(0.0213858 -1.81547e-06 0)
(0.0213859 -1.94974e-06 0)
(0.0213859 -2.0891e-06 0)
(0.0213861 -2.19695e-06 0)
(0.0213857 -9.52965e-08 0)
(0.0213853 -2.23426e-07 0)
(0.0213853 -3.6425e-07 0)
(0.0213853 -5.06668e-07 0)
(0.0213853 -6.51222e-07 0)
(0.0213854 -7.9498e-07 0)
(0.0213854 -9.41833e-07 0)
(0.0213854 -1.08698e-06 0)
(0.0213854 -1.23611e-06 0)
(0.0213854 -1.38154e-06 0)
(0.0213854 -1.53234e-06 0)
(0.0213854 -1.67596e-06 0)
(0.0213855 -1.82568e-06 0)
(0.0213855 -1.96086e-06 0)
(0.0213856 -2.1011e-06 0)
(0.0213857 -2.20973e-06 0)
(0.0213853 -9.57433e-08 0)
(0.021385 -2.24452e-07 0)
(0.021385 -3.65909e-07 0)
(0.021385 -5.0905e-07 0)
(0.021385 -6.54238e-07 0)
(0.021385 -7.98828e-07 0)
(0.021385 -9.46551e-07 0)
(0.021385 -1.09253e-06 0)
(0.021385 -1.24253e-06 0)
(0.0213851 -1.38889e-06 0)
(0.0213851 -1.54061e-06 0)
(0.0213851 -1.68518e-06 0)
(0.0213851 -1.83585e-06 0)
(0.0213852 -1.97195e-06 0)
(0.0213853 -2.11311e-06 0)
(0.0213854 -2.22253e-06 0)
(0.021385 -9.61809e-08 0)
(0.0213847 -2.25463e-07 0)
(0.0213847 -3.67554e-07 0)
(0.0213847 -5.11425e-07 0)
(0.0213847 -6.57263e-07 0)
(0.0213847 -8.02682e-07 0)
(0.0213847 -9.51206e-07 0)
(0.0213847 -1.09801e-06 0)
(0.0213847 -1.24886e-06 0)
(0.0213847 -1.39613e-06 0)
(0.0213848 -1.54875e-06 0)
(0.0213848 -1.69431e-06 0)
(0.0213848 -1.84591e-06 0)
(0.0213849 -1.98296e-06 0)
(0.021385 -2.12502e-06 0)
(0.0213851 -2.23524e-06 0)
(0.0213847 -9.66122e-08 0)
(0.0213844 -2.26453e-07 0)
(0.0213844 -3.69172e-07 0)
(0.0213844 -5.13717e-07 0)
(0.0213844 -6.60229e-07 0)
(0.0213844 -8.06462e-07 0)
(0.0213844 -9.55741e-07 0)
(0.0213844 -1.10338e-06 0)
(0.0213844 -1.25507e-06 0)
(0.0213844 -1.40325e-06 0)
(0.0213844 -1.55677e-06 0)
(0.0213845 -1.70331e-06 0)
(0.0213845 -1.85586e-06 0)
(0.0213845 -1.99386e-06 0)
(0.0213846 -2.13686e-06 0)
(0.0213847 -2.24791e-06 0)
(0.0213844 -9.70348e-08 0)
(0.0213841 -2.27388e-07 0)
(0.0213841 -3.70724e-07 0)
(0.0213841 -5.15857e-07 0)
(0.0213841 -6.63078e-07 0)
(0.0213841 -8.10172e-07 0)
(0.0213841 -9.60169e-07 0)
(0.0213841 -1.10867e-06 0)
(0.0213841 -1.26117e-06 0)
(0.0213841 -1.41026e-06 0)
(0.0213841 -1.56467e-06 0)
(0.0213841 -1.71222e-06 0)
(0.0213842 -1.8657e-06 0)
(0.0213842 -2.0047e-06 0)
(0.0213843 -2.14866e-06 0)
(0.0213844 -2.26062e-06 0)
(0.0213841 -9.74359e-08 0)
(0.0213838 -2.28325e-07 0)
(0.0213838 -3.72227e-07 0)
(0.0213838 -5.18024e-07 0)
(0.0213838 -6.65984e-07 0)
(0.0213838 -8.13827e-07 0)
(0.0213838 -9.64545e-07 0)
(0.0213838 -1.11387e-06 0)
(0.0213838 -1.26718e-06 0)
(0.0213838 -1.41718e-06 0)
(0.0213838 -1.5725e-06 0)
(0.0213838 -1.72107e-06 0)
(0.0213838 -1.87549e-06 0)
(0.0213839 -2.01552e-06 0)
(0.021384 -2.1605e-06 0)
(0.0213841 -2.27341e-06 0)
(0.0213838 -9.7834e-08 0)
(0.0213835 -2.29261e-07 0)
(0.0213835 -3.73739e-07 0)
(0.0213835 -5.20254e-07 0)
(0.0213835 -6.68896e-07 0)
(0.0213834 -8.17421e-07 0)
(0.0213834 -9.68844e-07 0)
(0.0213834 -1.11896e-06 0)
(0.0213834 -1.27307e-06 0)
(0.0213834 -1.42396e-06 0)
(0.0213834 -1.58021e-06 0)
(0.0213835 -1.72978e-06 0)
(0.0213835 -1.88521e-06 0)
(0.0213835 -2.02629e-06 0)
(0.0213836 -2.1723e-06 0)
(0.0213837 -2.28619e-06 0)
(0.0213835 -9.82325e-08 0)
(0.0213831 -2.30169e-07 0)
(0.0213831 -3.75292e-07 0)
(0.0213831 -5.22528e-07 0)
(0.0213831 -6.71778e-07 0)
(0.0213831 -8.21014e-07 0)
(0.0213831 -9.73108e-07 0)
(0.0213831 -1.12401e-06 0)
(0.0213831 -1.27892e-06 0)
(0.0213831 -1.4307e-06 0)
(0.0213831 -1.58789e-06 0)
(0.0213831 -1.73847e-06 0)
(0.0213832 -1.89493e-06 0)
(0.0213832 -2.0371e-06 0)
(0.0213833 -2.18417e-06 0)
(0.0213834 -2.29912e-06 0)
(0.0213831 -9.86224e-08 0)
(0.0213828 -2.31201e-07 0)
(0.0213828 -3.76974e-07 0)
(0.0213828 -5.24869e-07 0)
(0.0213828 -6.74725e-07 0)
(0.0213828 -8.24656e-07 0)
(0.0213828 -9.77409e-07 0)
(0.0213828 -1.12906e-06 0)
(0.0213828 -1.28479e-06 0)
(0.0213828 -1.43744e-06 0)
(0.0213828 -1.59558e-06 0)
(0.0213828 -1.74717e-06 0)
(0.0213828 -1.90468e-06 0)
(0.0213829 -2.04799e-06 0)
(0.0213829 -2.19616e-06 0)
(0.0213831 -2.31223e-06 0)
(0.0213828 -9.90619e-08 0)
(0.0213825 -2.32309e-07 0)
(0.0213825 -3.7874e-07 0)
(0.0213825 -5.27286e-07 0)
(0.0213825 -6.77784e-07 0)
(0.0213825 -8.28424e-07 0)
(0.0213825 -9.81831e-07 0)
(0.0213825 -1.13422e-06 0)
(0.0213825 -1.29079e-06 0)
(0.0213825 -1.4443e-06 0)
(0.0213824 -1.60338e-06 0)
(0.0213825 -1.75601e-06 0)
(0.0213825 -1.91457e-06 0)
(0.0213825 -2.05905e-06 0)
(0.0213826 -2.20837e-06 0)
(0.0213827 -2.32562e-06 0)
(0.0213825 -9.95359e-08 0)
(0.0213822 -2.33462e-07 0)
(0.0213822 -3.80594e-07 0)
(0.0213822 -5.29848e-07 0)
(0.0213822 -6.81055e-07 0)
(0.0213822 -8.32403e-07 0)
(0.0213822 -9.86533e-07 0)
(0.0213821 -1.13967e-06 0)
(0.0213821 -1.29707e-06 0)
(0.0213821 -1.45144e-06 0)
(0.0213821 -1.61145e-06 0)
(0.0213821 -1.76512e-06 0)
(0.0213821 -1.92474e-06 0)
(0.0213822 -2.07043e-06 0)
(0.0213823 -2.22093e-06 0)
(0.0213824 -2.33945e-06 0)
(0.0213822 -1.00029e-07 0)
(0.0213819 -2.34741e-07 0)
(0.0213819 -3.82655e-07 0)
(0.0213819 -5.32684e-07 0)
(0.0213819 -6.84684e-07 0)
(0.0213818 -8.36767e-07 0)
(0.0213818 -9.91694e-07 0)
(0.0213818 -1.14561e-06 0)
(0.0213818 -1.30383e-06 0)
(0.0213818 -1.45907e-06 0)
(0.0213818 -1.62e-06 0)
(0.0213818 -1.77472e-06 0)
(0.0213818 -1.9354e-06 0)
(0.0213818 -2.08233e-06 0)
(0.0213819 -2.23403e-06 0)
(0.021382 -2.35391e-06 0)
(0.0213819 -1.00577e-07 0)
(0.0213816 -2.36221e-07 0)
(0.0213816 -3.85044e-07 0)
(0.0213816 -5.35968e-07 0)
(0.0213815 -6.88866e-07 0)
(0.0213815 -8.41773e-07 0)
(0.0213815 -9.97561e-07 0)
(0.0213815 -1.15229e-06 0)
(0.0213815 -1.31136e-06 0)
(0.0213815 -1.46749e-06 0)
(0.0213814 -1.62933e-06 0)
(0.0213814 -1.78509e-06 0)
(0.0213815 -1.9468e-06 0)
(0.0213815 -2.09498e-06 0)
(0.0213816 -2.24789e-06 0)
(0.0213817 -2.36918e-06 0)
(0.0213816 -1.01211e-07 0)
(0.0213813 -2.38006e-07 0)
(0.0213812 -3.87924e-07 0)
(0.0213812 -5.3991e-07 0)
(0.0213812 -6.93862e-07 0)
(0.0213812 -8.47718e-07 0)
(0.0213812 -1.00447e-06 0)
(0.0213812 -1.16008e-06 0)
(0.0213811 -1.32004e-06 0)
(0.0213811 -1.47706e-06 0)
(0.0213811 -1.6398e-06 0)
(0.0213811 -1.79658e-06 0)
(0.0213811 -1.95929e-06 0)
(0.0213811 -2.10873e-06 0)
(0.0213812 -2.26285e-06 0)
(0.0213813 -2.38563e-06 0)
(0.0213813 -1.01975e-07 0)
(0.0213809 -2.40224e-07 0)
(0.0213809 -3.91496e-07 0)
(0.0213809 -5.44787e-07 0)
(0.0213809 -7.0001e-07 0)
(0.0213809 -8.55001e-07 0)
(0.0213809 -1.01287e-06 0)
(0.0213808 -1.16946e-06 0)
(0.0213808 -1.33038e-06 0)
(0.0213808 -1.48833e-06 0)
(0.0213808 -1.65197e-06 0)
(0.0213808 -1.80976e-06 0)
(0.0213808 -1.97345e-06 0)
(0.0213808 -2.12416e-06 0)
(0.0213808 -2.27952e-06 0)
(0.021381 -2.4039e-06 0)
(0.0213809 -1.02926e-07 0)
(0.0213806 -2.43032e-07 0)
(0.0213806 -3.96015e-07 0)
(0.0213806 -5.50943e-07 0)
(0.0213806 -7.07744e-07 0)
(0.0213806 -8.64127e-07 0)
(0.0213805 -1.02332e-06 0)
(0.0213805 -1.18105e-06 0)
(0.0213805 -1.34305e-06 0)
(0.0213805 -1.50196e-06 0)
(0.0213804 -1.66651e-06 0)
(0.0213804 -1.82528e-06 0)
(0.0213804 -1.98993e-06 0)
(0.0213804 -2.14189e-06 0)
(0.0213805 -2.29847e-06 0)
(0.0213806 -2.42454e-06 0)
(0.0213806 -1.04131e-07 0)
(0.0213803 -2.46608e-07 0)
(0.0213803 -4.01767e-07 0)
(0.0213803 -5.58772e-07 0)
(0.0213803 -7.17558e-07 0)
(0.0213802 -8.75682e-07 0)
(0.0213802 -1.03651e-06 0)
(0.0213802 -1.19559e-06 0)
(0.0213801 -1.35882e-06 0)
(0.0213801 -1.51879e-06 0)
(0.0213801 -1.68426e-06 0)
(0.0213801 -1.84397e-06 0)
(0.0213801 -2.00953e-06 0)
(0.0213801 -2.16267e-06 0)
(0.0213801 -2.32042e-06 0)
(0.0213802 -2.4482e-06 0)
(0.0213803 -1.05665e-07 0)
(0.02138 -2.51167e-07 0)
(0.02138 -4.091e-07 0)
(0.02138 -5.68751e-07 0)
(0.0213799 -7.30059e-07 0)
(0.0213799 -8.90395e-07 0)
(0.0213799 -1.05327e-06 0)
(0.0213798 -1.21402e-06 0)
(0.0213798 -1.37874e-06 0)
(0.0213798 -1.53989e-06 0)
(0.0213797 -1.70634e-06 0)
(0.0213797 -1.86693e-06 0)
(0.0213797 -2.03334e-06 0)
(0.0213797 -2.18756e-06 0)
(0.0213798 -2.34636e-06 0)
(0.0213798 -2.47587e-06 0)
(0.02138 -1.07621e-07 0)
(0.0213797 -2.5695e-07 0)
(0.0213796 -4.18407e-07 0)
(0.0213796 -5.81428e-07 0)
(0.0213796 -7.45941e-07 0)
(0.0213796 -9.09103e-07 0)
(0.0213796 -1.07458e-06 0)
(0.0213795 -1.23742e-06 0)
(0.0213795 -1.404e-06 0)
(0.0213794 -1.5665e-06 0)
(0.0213794 -1.73409e-06 0)
(0.0213794 -1.89553e-06 0)
(0.0213793 -2.0627e-06 0)
(0.0213794 -2.21786e-06 0)
(0.0213794 -2.37757e-06 0)
(0.0213795 -2.50882e-06 0)
(0.0213797 -1.10102e-07 0)
(0.0213793 -2.64227e-07 0)
(0.0213793 -4.30128e-07 0)
(0.0213793 -5.97418e-07 0)
(0.0213793 -7.65995e-07 0)
(0.0213793 -9.32772e-07 0)
(0.0213792 -1.10157e-06 0)
(0.0213792 -1.2671e-06 0)
(0.0213791 -1.43605e-06 0)
(0.0213791 -1.60021e-06 0)
(0.0213791 -1.76918e-06 0)
(0.021379 -1.93149e-06 0)
(0.021379 -2.09935e-06 0)
(0.021379 -2.25527e-06 0)
(0.021379 -2.41567e-06 0)
(0.0213791 -2.54856e-06 0)
(0.0213793 -1.13225e-07 0)
(0.021379 -2.73279e-07 0)
(0.021379 -4.44725e-07 0)
(0.021379 -6.17367e-07 0)
(0.021379 -7.91062e-07 0)
(0.0213789 -9.62442e-07 0)
(0.0213789 -1.13548e-06 0)
(0.0213788 -1.30451e-06 0)
(0.0213788 -1.47651e-06 0)
(0.0213788 -1.64285e-06 0)
(0.0213787 -1.81354e-06 0)
(0.0213787 -1.97686e-06 0)
(0.0213786 -2.14535e-06 0)
(0.0213786 -2.30183e-06 0)
(0.0213786 -2.46252e-06 0)
(0.0213787 -2.59699e-06 0)
(0.021379 -1.17108e-07 0)
(0.0213787 -2.84377e-07 0)
(0.0213787 -4.62648e-07 0)
(0.0213786 -6.41923e-07 0)
(0.0213786 -8.21991e-07 0)
(0.0213786 -9.99192e-07 0)
(0.0213785 -1.17763e-06 0)
(0.0213785 -1.35122e-06 0)
(0.0213785 -1.52723e-06 0)
(0.0213784 -1.69654e-06 0)
(0.0213784 -1.86957e-06 0)
(0.0213783 -2.0342e-06 0)
(0.0213783 -2.20346e-06 0)
(0.0213782 -2.36026e-06 0)
(0.0213782 -2.52091e-06 0)
(0.0213783 -2.65669e-06 0)
(0.0213787 -1.2187e-07 0)
(0.0213783 -2.97767e-07 0)
(0.0213783 -4.84307e-07 0)
(0.0213783 -6.71684e-07 0)
(0.0213783 -8.59595e-07 0)
(0.0213782 -1.04408e-06 0)
(0.0213782 -1.22937e-06 0)
(0.0213782 -1.40887e-06 0)
(0.0213781 -1.59017e-06 0)
(0.0213781 -1.76361e-06 0)
(0.021378 -1.93995e-06 0)
(0.021378 -2.10655e-06 0)
(0.0213779 -2.27697e-06 0)
(0.0213779 -2.43399e-06 0)
(0.0213779 -2.59432e-06 0)
(0.0213779 -2.73083e-06 0)
(0.0213783 -1.27614e-07 0)
(0.0213779 -3.13627e-07 0)
(0.0213779 -5.10011e-07 0)
(0.0213779 -7.07116e-07 0)
(0.0213779 -9.04526e-07 0)
(0.0213779 -1.09802e-06 0)
(0.0213778 -1.29186e-06 0)
(0.0213778 -1.47901e-06 0)
(0.0213778 -1.6673e-06 0)
(0.0213777 -1.84651e-06 0)
(0.0213776 -2.02766e-06 0)
(0.0213776 -2.19743e-06 0)
(0.0213775 -2.36993e-06 0)
(0.0213775 -2.5275e-06 0)
(0.0213775 -2.68737e-06 0)
(0.0213775 -2.82373e-06 0)
(0.021378 -1.34416e-07 0)
(0.0213776 -3.3204e-07 0)
(0.0213776 -5.3991e-07 0)
(0.0213775 -7.48467e-07 0)
(0.0213775 -9.57156e-07 0)
(0.0213775 -1.16158e-06 0)
(0.0213775 -1.36592e-06 0)
(0.0213774 -1.56288e-06 0)
(0.0213774 -1.76033e-06 0)
(0.0213773 -1.9475e-06 0)
(0.0213773 -2.13572e-06 0)
(0.0213772 -2.31074e-06 0)
(0.0213772 -2.48737e-06 0)
(0.0213771 -2.64689e-06 0)
(0.0213771 -2.80738e-06 0)
(0.0213771 -2.94352e-06 0)
(0.0213776 -1.42312e-07 0)
(0.0213772 -3.52942e-07 0)
(0.0213772 -5.73915e-07 0)
(0.0213772 -7.95655e-07 0)
(0.0213771 -1.01746e-06 0)
(0.0213771 -1.23482e-06 0)
(0.0213771 -1.4518e-06 0)
(0.0213771 -1.66097e-06 0)
(0.021377 -1.87014e-06 0)
(0.021377 -2.06805e-06 0)
(0.0213769 -2.26637e-06 0)
(0.0213769 -2.44978e-06 0)
(0.0213768 -2.63405e-06 0)
(0.0213767 -2.79892e-06 0)
(0.0213767 -2.96392e-06 0)
(0.0213767 -3.10308e-06 0)
(0.0213772 -1.51272e-07 0)
(0.0213768 -3.76082e-07 0)
(0.0213768 -6.11632e-07 0)
(0.0213767 -8.48168e-07 0)
(0.0213767 -1.08483e-06 0)
(0.0213767 -1.31712e-06 0)
(0.0213767 -1.54894e-06 0)
(0.0213767 -1.77281e-06 0)
(0.0213766 -1.99647e-06 0)
(0.0213766 -2.20826e-06 0)
(0.0213765 -2.42017e-06 0)
(0.0213765 -2.61577e-06 0)
(0.0213764 -2.81207e-06 0)
(0.0213764 -2.98675e-06 0)
(0.0213763 -3.16186e-06 0)
(0.0213762 -3.30918e-06 0)
(0.0213768 -1.61189e-07 0)
(0.0213763 -4.00994e-07 0)
(0.0213763 -6.52314e-07 0)
(0.0213763 -9.04986e-07 0)
(0.0213763 -1.15802e-06 0)
(0.0213763 -1.407e-06 0)
(0.0213763 -1.65567e-06 0)
(0.0213762 -1.89664e-06 0)
(0.0213762 -2.13749e-06 0)
(0.0213762 -2.36632e-06 0)
(0.0213761 -2.59535e-06 0)
(0.0213761 -2.807e-06 0)
(0.021376 -3.01959e-06 0)
(0.021376 -3.20821e-06 0)
(0.0213759 -3.39781e-06 0)
(0.0213758 -3.5563e-06 0)
(0.0213763 -1.71863e-07 0)
(0.0213758 -4.26986e-07 0)
(0.0213758 -6.94835e-07 0)
(0.0213758 -9.64556e-07 0)
(0.0213758 -1.23504e-06 0)
(0.0213758 -1.50207e-06 0)
(0.0213758 -1.76922e-06 0)
(0.0213758 -2.02933e-06 0)
(0.0213758 -2.28976e-06 0)
(0.0213758 -2.53854e-06 0)
(0.0213757 -2.78795e-06 0)
(0.0213757 -3.0194e-06 0)
(0.0213756 -3.25232e-06 0)
(0.0213755 -3.45884e-06 0)
(0.0213755 -3.66704e-06 0)
(0.0213754 -3.83949e-06 0)
(0.0213758 -1.82996e-07 0)
(0.0213753 -4.53135e-07 0)
(0.0213754 -7.37701e-07 0)
(0.0213753 -1.02479e-06 0)
(0.0213754 -1.31321e-06 0)
(0.0213753 -1.59903e-06 0)
(0.0213753 -1.88565e-06 0)
(0.0213753 -2.16633e-06 0)
(0.0213753 -2.4481e-06 0)
(0.0213753 -2.71919e-06 0)
(0.0213753 -2.99167e-06 0)
(0.0213752 -3.2462e-06 0)
(0.0213752 -3.50297e-06 0)
(0.0213751 -3.73097e-06 0)
(0.0213751 -3.96139e-06 0)
(0.021375 -4.15019e-06 0)
(0.0213753 -1.94192e-07 0)
(0.0213748 -4.7834e-07 0)
(0.0213748 -7.79098e-07 0)
(0.0213748 -1.08314e-06 0)
(0.0213748 -1.38919e-06 0)
(0.0213748 -1.69374e-06 0)
(0.0213748 -2e-06 0)
(0.0213748 -2.3018e-06 0)
(0.0213748 -2.60578e-06 0)
(0.0213748 -2.90064e-06 0)
(0.0213748 -3.19801e-06 0)
(0.0213748 -3.47818e-06 0)
(0.0213747 -3.76164e-06 0)
(0.0213747 -4.01431e-06 0)
(0.0213746 -4.27021e-06 0)
(0.0213745 -4.47749e-06 0)
(0.0213748 -2.0498e-07 0)
(0.0213743 -5.01394e-07 0)
(0.0213743 -8.17009e-07 0)
(0.0213743 -1.13675e-06 0)
(0.0213743 -1.45922e-06 0)
(0.0213743 -1.78144e-06 0)
(0.0213743 -2.10644e-06 0)
(0.0213743 -2.42876e-06 0)
(0.0213743 -2.75462e-06 0)
(0.0213743 -3.07351e-06 0)
(0.0213743 -3.39635e-06 0)
(0.0213743 -3.70366e-06 0)
(0.0213743 -4.01559e-06 0)
(0.0213742 -4.29569e-06 0)
(0.0213742 -4.57999e-06 0)
(0.0213741 -4.80832e-06 0)
(0.0213743 -2.14847e-07 0)
(0.0213737 -5.21053e-07 0)
(0.0213737 -8.49358e-07 0)
(0.0213737 -1.1826e-06 0)
(0.0213737 -1.5193e-06 0)
(0.0213737 -1.85702e-06 0)
(0.0213737 -2.19864e-06 0)
(0.0213737 -2.53951e-06 0)
(0.0213737 -2.88539e-06 0)
(0.0213738 -3.22691e-06 0)
(0.0213738 -3.57405e-06 0)
(0.0213738 -3.90832e-06 0)
(0.0213738 -4.24887e-06 0)
(0.0213738 -4.558e-06 0)
(0.0213738 -4.87262e-06 0)
(0.0213737 -5.12444e-06 0)
(0.0213737 -2.23255e-07 0)
(0.0213731 -5.36104e-07 0)
(0.0213731 -8.7414e-07 0)
(0.0213731 -1.21779e-06 0)
(0.0213731 -1.56554e-06 0)
(0.0213731 -1.91544e-06 0)
(0.0213731 -2.27024e-06 0)
(0.0213731 -2.62613e-06 0)
(0.0213732 -2.9884e-06 0)
(0.0213732 -3.34908e-06 0)
(0.0213732 -3.71705e-06 0)
(0.0213732 -4.07567e-06 0)
(0.0213732 -4.44238e-06 0)
(0.0213733 -4.78001e-06 0)
(0.0213733 -5.12471e-06 0)
(0.0213733 -5.4011e-06 0)
(0.0213731 -2.29686e-07 0)
(0.0213725 -5.45566e-07 0)
(0.0213725 -8.89696e-07 0)
(0.0213725 -1.23993e-06 0)
(0.0213725 -1.59469e-06 0)
(0.0213725 -1.95241e-06 0)
(0.0213725 -2.31568e-06 0)
(0.0213725 -2.68153e-06 0)
(0.0213726 -3.05468e-06 0)
(0.0213726 -3.4287e-06 0)
(0.0213726 -3.81125e-06 0)
(0.0213727 -4.18828e-06 0)
(0.0213727 -4.57505e-06 0)
(0.0213728 -4.93736e-06 0)
(0.0213728 -5.30944e-06 0)
(0.0213729 -5.61127e-06 0)
(0.0213725 -2.33725e-07 0)
(0.0213719 -5.4893e-07 0)
(0.0213719 -8.95154e-07 0)
(0.0213719 -1.24768e-06 0)
(0.0213719 -1.60486e-06 0)
(0.0213719 -1.96532e-06 0)
(0.0213719 -2.33143e-06 0)
(0.0213719 -2.70092e-06 0)
(0.0213719 -3.07784e-06 0)
(0.021372 -3.45718e-06 0)
(0.021372 -3.84512e-06 0)
(0.0213721 -4.23039e-06 0)
(0.0213721 -4.6251e-06 0)
(0.0213722 -4.99997e-06 0)
(0.0213724 -5.38457e-06 0)
(0.0213725 -5.70022e-06 0)
(0.0213719 -2.35154e-07 0)
(0.0213712 -5.45989e-07 0)
(0.0213712 -8.90192e-07 0)
(0.0213712 -1.24052e-06 0)
(0.0213712 -1.59517e-06 0)
(0.0213713 -1.9529e-06 0)
(0.0213713 -2.31559e-06 0)
(0.0213713 -2.68153e-06 0)
(0.0213713 -3.05384e-06 0)
(0.0213713 -3.42865e-06 0)
(0.0213714 -3.81028e-06 0)
(0.0213715 -4.1896e-06 0)
(0.0213716 -4.5743e-06 0)
(0.0213717 -4.94034e-06 0)
(0.0213719 -5.30685e-06 0)
(0.0213722 -5.60839e-06 0)
(0.0213712 -2.33888e-07 0)
(0.0213706 -5.36477e-07 0)
(0.0213706 -8.74383e-07 0)
(0.0213706 -1.21785e-06 0)
(0.0213706 -1.56486e-06 0)
(0.0213706 -1.91418e-06 0)
(0.0213707 -2.26692e-06 0)
(0.0213707 -2.62177e-06 0)
(0.0213707 -2.9805e-06 0)
(0.0213708 -3.3401e-06 0)
(0.0213708 -3.70264e-06 0)
(0.0213709 -4.06099e-06 0)
(0.021371 -4.41835e-06 0)
(0.0213712 -4.75695e-06 0)
(0.0213715 -5.08631e-06 0)
(0.0213718 -5.36374e-06 0)
(0.0213706 -2.29815e-07 0)
(0.02137 -5.20412e-07 0)
(0.02137 -8.47771e-07 0)
(0.02137 -1.17982e-06 0)
(0.02137 -1.51429e-06 0)
(0.02137 -1.84978e-06 0)
(0.0213701 -2.18652e-06 0)
(0.0213701 -2.5235e-06 0)
(0.0213701 -2.86068e-06 0)
(0.0213702 -3.19581e-06 0)
(0.0213703 -3.52844e-06 0)
(0.0213704 -3.85394e-06 0)
(0.0213706 -4.17168e-06 0)
(0.0213708 -4.47199e-06 0)
(0.0213711 -4.75855e-06 0)
(0.0213715 -5.01345e-06 0)
(0.02137 -2.22945e-07 0)
(0.0213694 -4.98126e-07 0)
(0.0213694 -8.10999e-07 0)
(0.0213695 -1.12755e-06 0)
(0.0213695 -1.44518e-06 0)
(0.0213695 -1.7622e-06 0)
(0.0213695 -2.07802e-06 0)
(0.0213696 -2.392e-06 0)
(0.0213696 -2.70218e-06 0)
(0.0213697 -3.00698e-06 0)
(0.0213698 -3.30372e-06 0)
(0.02137 -3.59029e-06 0)
(0.0213702 -3.86357e-06 0)
(0.0213704 -4.12204e-06 0)
(0.0213708 -4.36592e-06 0)
(0.0213712 -4.59936e-06 0)
(0.0213694 -2.13416e-07 0)
(0.0213689 -4.70253e-07 0)
(0.0213689 -7.65268e-07 0)
(0.0213689 -1.06299e-06 0)
(0.021369 -1.36047e-06 0)
(0.021369 -1.65562e-06 0)
(0.021369 -1.94714e-06 0)
(0.0213691 -2.23497e-06 0)
(0.0213692 -2.51558e-06 0)
(0.0213693 -2.7881e-06 0)
(0.0213694 -3.04813e-06 0)
(0.0213696 -3.29563e-06 0)
(0.0213698 -3.52698e-06 0)
(0.0213701 -3.7471e-06 0)
(0.0213705 -3.95359e-06 0)
(0.021371 -4.16561e-06 0)
(0.0213689 -2.01493e-07 0)
(0.0213684 -4.37968e-07 0)
(0.0213685 -7.12531e-07 0)
(0.0213685 -9.88944e-07 0)
(0.0213685 -1.2641e-06 0)
(0.0213686 -1.53549e-06 0)
(0.0213686 -1.80106e-06 0)
(0.0213687 -2.06117e-06 0)
(0.0213688 -2.31137e-06 0)
(0.0213689 -2.55221e-06 0)
(0.0213691 -2.77852e-06 0)
(0.0213693 -2.99158e-06 0)
(0.0213696 -3.18949e-06 0)
(0.0213699 -3.38211e-06 0)
(0.0213703 -3.56366e-06 0)
(0.0213708 -3.75629e-06 0)
(0.0213684 -1.87666e-07 0)
(0.021368 -4.0302e-07 0)
(0.0213681 -6.55288e-07 0)
(0.0213681 -9.08409e-07 0)
(0.0213681 -1.15956e-06 0)
(0.0213682 -1.4063e-06 0)
(0.0213683 -1.64575e-06 0)
(0.0213684 -1.87795e-06 0)
(0.0213685 -2.09774e-06 0)
(0.0213687 -2.30881e-06 0)
(0.0213689 -2.50765e-06 0)
(0.0213691 -2.69636e-06 0)
(0.0213694 -2.87298e-06 0)
(0.0213697 -3.05017e-06 0)
(0.0213701 -3.21974e-06 0)
(0.0213705 -3.39893e-06 0)
(0.021368 -1.72699e-07 0)
(0.0213677 -3.66989e-07 0)
(0.0213677 -5.95758e-07 0)
(0.0213678 -8.23831e-07 0)
(0.0213678 -1.0491e-06 0)
(0.0213679 -1.27046e-06 0)
(0.021368 -1.48495e-06 0)
(0.0213681 -1.6919e-06 0)
(0.0213683 -1.88641e-06 0)
(0.0213685 -2.07366e-06 0)
(0.0213687 -2.25248e-06 0)
(0.0213689 -2.42721e-06 0)
(0.0213692 -2.5922e-06 0)
(0.0213695 -2.75837e-06 0)
(0.0213699 -2.91867e-06 0)
(0.0213703 -3.08999e-06 0)
(0.0213677 -1.57309e-07 0)