/*--------------------------------*- C++ -*----------------------------------*\
| =========                 |                                                 |
| \\      /  F ield         | foam-extend: Open Source CFD                    |
|  \\    /   O peration     | Version:     4.1-20200408                       |
|   \\  /    A nd           | Web:         http://www.foam-extend.org         |
|    \\/     M anipulation  |                                                 |
\*---------------------------------------------------------------------------*/
FoamFile
{
    version     2.0;
    format      ascii;
    class       volVectorField;
    location    "0.0215000";
    object      Velocity;
}
// * * * * * * * * * * * * * * * * * * * * * * * * * * * * * * * * * * * * * //

dimensions      [0 1 -1 0 0 0 0];

internalField   nonuniform List<vector> 
1952
(
(1.00004 8.50823e-05 0)
(1.00004 0.000137943 0)
(1.00004 0.000190815 0)
(1.00004 0.000241999 0)
(1.00004 0.000292825 0)
(1.00003 0.000339805 0)
(1.00003 0.000387126 0)
(1.00003 0.000428344 0)
(1.00003 0.000471193 0)
(1.00003 0.000506026 0)
(1.00002 0.000544159 0)
(1.00002 0.000573171 0)
(1.00001 0.00060576 0)
(0.99999 0.000627711 0)
(0.999912 0.000638675 0)
(1.00004 3.64911e-05 0)
(1.0001 6.82974e-05 0)
(1.0001 0.000110565 0)
(1.0001 0.000152818 0)
(1.00009 0.000193545 0)
(1.00009 0.000233577 0)
(1.00009 0.000270616 0)
(1.00008 0.000306879 0)
(1.00008 0.000338634 0)
(1.00007 0.000369594 0)
(1.00007 0.000394374 0)
(1.00006 0.000417887 0)
(1.00004 0.000432866 0)
(1.00002 0.000443949 0)
(0.999987 0.000442648 0)
(0.999921 0.00043004 0)
(1.0001 2.92828e-05 0)
(1.00013 5.42654e-05 0)
(1.00013 8.77359e-05 0)
(1.00013 0.000121127 0)
(1.00013 0.00015313 0)
(1.00012 0.000184292 0)
(1.00012 0.000212941 0)
(1.00011 0.00024033 0)
(1.0001 0.000264027 0)
(1.00009 0.000285928 0)
(1.00008 0.000302666 0)
(1.00007 0.000316614 0)
(1.00005 0.000323315 0)
(1.00002 0.000325525 0)
(0.999973 0.000318558 0)
(0.999903 0.000307117 0)
(1.00013 2.3265e-05 0)
(1.00016 4.21464e-05 0)
(1.00015 6.80535e-05 0)
(1.00015 9.37849e-05 0)
(1.00015 0.000118238 0)
(1.00014 0.000141794 0)
(1.00013 0.000163089 0)
(1.00013 0.000182972 0)
(1.00012 0.000199553 0)
(1.00011 0.000214091 0)
(1.00009 0.000224055 0)
(1.00007 0.000231211 0)
(1.00005 0.000232305 0)
(1.00001 0.000230442 0)
(0.999969 0.000222217 0)
(0.999909 0.000215714 0)
(1.00016 1.80723e-05 0)
(1.00017 3.15104e-05 0)
(1.00017 5.079e-05 0)
(1.00016 6.98285e-05 0)
(1.00016 8.76971e-05 0)
(1.00015 0.000104694 0)
(1.00014 0.000119657 0)
(1.00013 0.000133266 0)
(1.00012 0.000143959 0)
(1.00011 0.000152781 0)
(1.00009 0.000157738 0)
(1.00007 0.000160487 0)
(1.00004 0.000158616 0)
(1.00001 0.000155385 0)
(0.999964 0.000148228 0)
(0.999912 0.000144475 0)
(1.00017 1.35148e-05 0)
(1.00017 2.23776e-05 0)
(1.00017 3.59766e-05 0)
(1.00016 4.9306e-05 0)
(1.00016 6.15796e-05 0)
(1.00015 7.30723e-05 0)
(1.00014 8.27666e-05 0)
(1.00013 9.1294e-05 0)
(1.00012 9.73179e-05 0)
(1.0001 0.000101845 0)
(1.00008 0.000103249 0)
(1.00006 0.000103203 0)
(1.00003 9.98197e-05 0)
(1 9.63296e-05 0)
(0.999962 9.05497e-05 0)
(0.999919 8.89281e-05 0)
(1.00017 9.60075e-06 0)
(1.00017 1.46472e-05 0)
(1.00016 2.34519e-05 0)
(1.00016 3.19928e-05 0)
(1.00015 3.96054e-05 0)
(1.00015 4.65773e-05 0)
(1.00013 5.20088e-05 0)
(1.00012 5.6534e-05 0)
(1.00011 5.89989e-05 0)
(1.00009 6.04144e-05 0)
(1.00007 5.94376e-05 0)
(1.00005 5.77147e-05 0)
(1.00002 5.37331e-05 0)
(0.999994 5.04338e-05 0)
(0.99996 4.59157e-05 0)
(0.999925 4.53764e-05 0)
(1.00017 6.28698e-06 0)
(1.00016 8.21773e-06 0)
(1.00015 1.30487e-05 0)
(1.00015 1.76481e-05 0)
(1.00014 2.14553e-05 0)
(1.00013 2.47895e-05 0)
(1.00012 2.68494e-05 0)
(1.00011 2.82904e-05 0)
(1.0001 2.81059e-05 0)
(1.00008 2.7309e-05 0)
(1.00006 2.47714e-05 0)
(1.00004 2.2059e-05 0)
(1.00001 1.79176e-05 0)
(0.999987 1.49175e-05 0)
(0.999959 1.13722e-05 0)
(0.99993 1.14287e-05 0)
(1.00016 3.53019e-06 0)
(1.00014 2.96413e-06 0)
(1.00014 4.56121e-06 0)
(1.00013 5.97633e-06 0)
(1.00013 6.73765e-06 0)
(1.00012 7.20424e-06 0)
(1.00011 6.65528e-06 0)
(1.0001 5.77131e-06 0)
(1.00008 3.66195e-06 0)
(1.00007 1.32754e-06 0)
(1.00005 -2.19966e-06 0)
(1.00003 -5.47616e-06 0)
(1 -9.56942e-06 0)
(0.99998 -1.23071e-05 0)
(0.999956 -1.5182e-05 0)
(0.999933 -1.49493e-05 0)
(1.00014 1.27693e-06 0)
(1.00012 -1.25223e-06 0)
(1.00012 -2.23947e-06 0)
(1.00012 -3.34997e-06 0)
(1.00011 -4.98119e-06 0)
(1.0001 -6.7334e-06 0)
(1.00009 -9.26277e-06 0)
(1.00008 -1.18684e-05 0)
(1.00006 -1.53513e-05 0)
(1.00005 -1.87395e-05 0)
(1.00003 -2.28828e-05 0)
(1.00001 -2.64787e-05 0)
(0.999993 -3.04574e-05 0)
(0.999973 -3.30169e-05 0)
(0.999953 -3.54729e-05 0)
(0.999935 -3.53037e-05 0)
(1.00012 -5.3197e-07 0)
(1.0001 -4.57399e-06 0)
(1.0001 -7.58825e-06 0)
(1.00009 -1.06642e-05 0)
(1.00009 -1.41395e-05 0)
(1.00008 -1.75751e-05 0)
(1.00007 -2.15793e-05 0)
(1.00006 -2.5435e-05 0)
(1.00005 -2.98795e-05 0)
(1.00003 -3.3977e-05 0)
(1.00002 -3.84945e-05 0)
(1 -4.22712e-05 0)
(0.999982 -4.61341e-05 0)
(0.999965 -4.86075e-05 0)
(0.999949 -5.0845e-05 0)
(0.999935 -5.09055e-05 0)
(1.0001 -1.95751e-06 0)
(1.00008 -7.14492e-06 0)
(1.00008 -1.17209e-05 0)
(1.00007 -1.62995e-05 0)
(1.00007 -2.11705e-05 0)
(1.00006 -2.58609e-05 0)
(1.00005 -3.09436e-05 0)
(1.00004 -3.56921e-05 0)
(1.00003 -4.0798e-05 0)
(1.00001 -4.53676e-05 0)
(1 -5.01087e-05 0)
(0.999986 -5.39936e-05 0)
(0.999971 -5.77693e-05 0)
(0.999957 -6.02364e-05 0)
(0.999943 -6.24016e-05 0)
(0.999932 -6.27846e-05 0)
(1.00008 -3.06118e-06 0)
(1.00006 -9.09909e-06 0)
(1.00005 -1.48569e-05 0)
(1.00005 -2.05627e-05 0)
(1.00004 -2.64716e-05 0)
(1.00004 -3.20789e-05 0)
(1.00003 -3.79362e-05 0)
(1.00002 -4.33091e-05 0)
(1.00001 -4.88619e-05 0)
(0.999997 -5.37398e-05 0)
(0.999984 -5.86128e-05 0)
(0.999972 -6.25687e-05 0)
(0.999959 -6.6294e-05 0)
(0.999948 -6.88155e-05 0)
(0.999937 -7.10115e-05 0)
(0.999929 -7.17659e-05 0)
(1.00006 -3.90037e-06 0)
(1.00003 -1.05629e-05 0)
(1.00003 -1.72021e-05 0)
(1.00003 -2.37412e-05 0)
(1.00002 -3.041e-05 0)
(1.00001 -3.66778e-05 0)
(1.00001 -4.30824e-05 0)
(0.999999 -4.88862e-05 0)
(0.999988 -5.47356e-05 0)
(0.99998 -5.9814e-05 0)
(0.999968 -6.47652e-05 0)
(0.999958 -6.8776e-05 0)
(0.999947 -7.24857e-05 0)
(0.999938 -7.51037e-05 0)
(0.999929 -7.7397e-05 0)
(0.999923 -7.85368e-05 0)
(1.00003 -4.52923e-06 0)
(1.00001 -1.16466e-05 0)
(1 -1.89355e-05 0)
(1 -2.60825e-05 0)
(0.999996 -3.33019e-05 0)
(0.999992 -4.00381e-05 0)
(0.999984 -4.68254e-05 0)
(0.999978 -5.29211e-05 0)
(0.999969 -5.89658e-05 0)
(0.999962 -6.41726e-05 0)
(0.999952 -6.91725e-05 0)
(0.999944 -7.32303e-05 0)
(0.999934 -7.69528e-05 0)
(0.999928 -7.96904e-05 0)
(0.999921 -8.21197e-05 0)
(0.999916 -8.36349e-05 0)
(1.00001 -4.99495e-06 0)
(0.999982 -1.24494e-05 0)
(0.999979 -2.0218e-05 0)
(0.999977 -2.78091e-05 0)
(0.999973 -3.5428e-05 0)
(0.999969 -4.24975e-05 0)
(0.999962 -4.95528e-05 0)
(0.999958 -5.58482e-05 0)
(0.99995 -6.20218e-05 0)
(0.999944 -6.73139e-05 0)
(0.999935 -7.23473e-05 0)
(0.99993 -7.64498e-05 0)
(0.999922 -8.02045e-05 0)
(0.999917 -8.30708e-05 0)
(0.999911 -8.56522e-05 0)
(0.999908 -8.75153e-05 0)
(0.999982 -5.34016e-06 0)
(0.999957 -1.30534e-05 0)
(0.999955 -2.11822e-05 0)
(0.999953 -2.91027e-05 0)
(0.999949 -3.70177e-05 0)
(0.999946 -4.43286e-05 0)
(0.999941 -5.15771e-05 0)
(0.999937 -5.8012e-05 0)
(0.99993 -6.42755e-05 0)
(0.999927 -6.9626e-05 0)
(0.999919 -7.46876e-05 0)
(0.999915 -7.88312e-05 0)
(0.999909 -8.26301e-05 0)
(0.999905 -8.562e-05 0)
(0.999901 -8.8353e-05 0)
(0.999899 -9.05237e-05 0)
(0.999957 -5.59999e-06 0)
(0.999931 -1.35304e-05 0)
(0.99993 -2.19437e-05 0)
(0.999929 -3.01221e-05 0)
(0.999926 -3.82695e-05 0)
(0.999924 -4.57679e-05 0)
(0.999919 -5.31658e-05 0)
(0.999917 -5.97086e-05 0)
(0.999911 -6.60418e-05 0)
(0.999909 -7.14393e-05 0)
(0.999903 -7.65279e-05 0)
(0.9999 -8.07101e-05 0)
(0.999895 -8.45568e-05 0)
(0.999893 -8.76561e-05 0)
(0.99989 -9.05264e-05 0)
(0.999889 -9.29556e-05 0)
(0.999932 -5.80527e-06 0)
(0.999906 -1.39363e-05 0)
(0.999905 -2.25927e-05 0)
(0.999905 -3.09901e-05 0)
(0.999902 -3.93375e-05 0)
(0.999901 -4.69964e-05 0)
(0.999898 -5.45246e-05 0)
(0.999897 -6.1162e-05 0)
(0.999892 -6.75595e-05 0)
(0.999891 -7.29998e-05 0)
(0.999887 -7.81185e-05 0)
(0.999886 -8.23332e-05 0)
(0.999882 -8.62256e-05 0)
(0.999881 -8.94105e-05 0)
(0.999878 -9.23939e-05 0)
(0.999878 -9.50249e-05 0)
(0.999906 -5.98e-06 0)
(0.999881 -1.43186e-05 0)
(0.99988 -2.32056e-05 0)
(0.99988 -3.18113e-05 0)
(0.999879 -4.03512e-05 0)
(0.999879 -4.81678e-05 0)
(0.999876 -5.58256e-05 0)
(0.999877 -6.25617e-05 0)
(0.999873 -6.90284e-05 0)
(0.999874 -7.45158e-05 0)
(0.99987 -7.96685e-05 0)
(0.999871 -8.39093e-05 0)
(0.999868 -8.78393e-05 0)
(0.999868 -9.10801e-05 0)
(0.999866 -9.41444e-05 0)
(0.999867 -9.69151e-05 0)
(0.999881 -6.14456e-06 0)
(0.999855 -1.47111e-05 0)
(0.999855 -2.38365e-05 0)
(0.999856 -3.26595e-05 0)
(0.999855 -4.14026e-05 0)
(0.999856 -4.93901e-05 0)
(0.999855 -5.71906e-05 0)
(0.999856 -6.40395e-05 0)
(0.999854 -7.05879e-05 0)
(0.999856 -7.61302e-05 0)
(0.999854 -8.13222e-05 0)
(0.999855 -8.55796e-05 0)
(0.999854 -8.95355e-05 0)
(0.999855 -9.27957e-05 0)
(0.999854 -9.59025e-05 0)
(0.999855 -9.87459e-05 0)
(0.999855 -6.31346e-06 0)
(0.999829 -1.51401e-05 0)
(0.99983 -2.45281e-05 0)
(0.999831 -3.3593e-05 0)
(0.999831 -4.25642e-05 0)
(0.999833 -5.07493e-05 0)
(0.999833 -5.87156e-05 0)
(0.999836 -6.57015e-05 0)
(0.999835 -7.23493e-05 0)
(0.999838 -7.79588e-05 0)
(0.999837 -8.31959e-05 0)
(0.99984 -8.74602e-05 0)
(0.999839 -9.14265e-05 0)
(0.999842 -9.4666e-05 0)
(0.999841 -9.77719e-05 0)
(0.999843 -0.000100616 0)
(0.999829 -6.49806e-06 0)
(0.999803 -1.562e-05 0)
(0.999804 -2.53033e-05 0)
(0.999805 -3.46432e-05 0)
(0.999806 -4.38748e-05 0)
(0.99981 -5.22916e-05 0)
(0.99981 -6.04525e-05 0)
(0.999815 -6.76044e-05 0)
(0.999815 -7.43729e-05 0)
(0.99982 -8.00635e-05 0)
(0.99982 -8.5352e-05 0)
(0.999825 -8.96112e-05 0)
(0.999825 -9.35704e-05 0)
(0.999828 -9.67443e-05 0)
(0.999829 -9.9802e-05 0)
(0.99983 -0.000102571 0)
(0.999802 -6.70447e-06 0)
(0.999775 -1.61572e-05 0)
(0.999777 -2.61726e-05 0)
(0.999779 -3.5825e-05 0)
(0.999781 -4.53531e-05 0)
(0.999785 -5.40405e-05 0)
(0.999787 -6.2428e-05 0)
(0.999793 -6.97792e-05 0)
(0.999795 -7.66916e-05 0)
(0.999802 -8.24799e-05 0)
(0.999803 -8.78266e-05 0)
(0.999809 -9.20689e-05 0)
(0.999811 -9.60024e-05 0)
(0.999815 -9.9063e-05 0)
(0.999816 -0.000102022 0)
(0.999818 -0.000104635 0)
(0.999775 -6.93547e-06 0)
(0.999747 -1.67458e-05 0)
(0.999749 -2.71268e-05 0)
(0.999752 -3.7127e-05 0)
(0.999755 -4.69849e-05 0)
(0.999761 -5.59812e-05 0)
(0.999764 -6.46258e-05 0)
(0.999771 -7.22104e-05 0)
(0.999775 -7.92896e-05 0)
(0.999783 -8.5193e-05 0)
(0.999786 -9.06048e-05 0)
(0.999794 -9.4818e-05 0)
(0.999796 -9.87064e-05 0)
(0.999802 -0.000101603 0)
(0.999804 -0.000104411 0)
(0.999806 -0.000106781 0)
(0.999746 -7.18856e-06 0)
(0.999717 -1.73692e-05 0)
(0.99972 -2.81398e-05 0)
(0.999724 -3.85147e-05 0)
(0.999728 -4.87282e-05 0)
(0.999735 -5.80669e-05 0)
(0.999739 -6.69947e-05 0)
(0.999748 -7.48452e-05 0)
(0.999754 -8.21131e-05 0)
(0.999763 -8.81499e-05 0)
(0.999769 -9.36349e-05 0)
(0.999778 -9.78075e-05 0)
(0.999782 -0.000101633 0)
(0.999789 -0.000104315 0)
(0.999792 -0.000106918 0)
(0.999795 -0.000108953 0)
(0.999716 -7.45665e-06 0)
(0.999686 -1.7997e-05 0)
(0.999689 -2.91628e-05 0)
(0.999694 -3.99235e-05 0)
(0.999699 -5.05032e-05 0)
(0.999708 -6.02076e-05 0)
(0.999714 -6.94351e-05 0)
(0.999725 -7.75799e-05 0)
(0.999732 -8.50546e-05 0)
(0.999744 -9.12431e-05 0)
(0.999751 -9.68101e-05 0)
(0.999762 -0.000100932 0)
(0.999768 -0.000104679 0)
(0.999777 -0.000107093 0)
(0.99978 -0.000109437 0)
(0.999785 -0.00011104 0)
(0.999685 -7.72659e-06 0)
(0.999653 -1.85816e-05 0)
(0.999657 -3.01205e-05 0)
(0.999663 -4.12525e-05 0)
(0.999669 -5.21863e-05 0)
(0.999679 -6.22619e-05 0)
(0.999687 -7.17909e-05 0)
(0.9997 -8.02497e-05 0)
(0.999709 -8.79434e-05 0)
(0.999723 -9.43013e-05 0)
(0.999732 -9.99599e-05 0)
(0.999746 -0.000104025 0)
(0.999754 -0.000107681 0)
(0.999765 -0.000109776 0)
(0.99977 -0.00011181 0)
(0.999775 -0.000112879 0)
(0.999652 -7.97805e-06 0)
(0.999619 -1.90573e-05 0)
(0.999623 -3.09079e-05 0)
(0.99963 -4.23618e-05 0)
(0.999637 -5.36048e-05 0)
(0.999649 -6.40328e-05 0)
(0.999659 -7.38441e-05 0)
(0.999674 -8.26244e-05 0)
(0.999685 -9.05409e-05 0)
(0.999702 -9.70847e-05 0)
(0.999714 -0.000102846 0)
(0.99973 -0.000106853 0)
(0.99974 -0.000110411 0)
(0.999753 -0.000112141 0)
(0.99976 -0.000113816 0)
(0.999767 -0.000114245 0)
(0.999617 -8.1828e-06 0)
(0.999582 -1.93323e-05 0)
(0.999588 -3.13784e-05 0)
(0.999596 -4.30544e-05 0)
(0.999604 -5.45161e-05 0)
(0.999618 -6.52411e-05 0)
(0.999629 -7.52851e-05 0)
(0.999647 -8.4375e-05 0)
(0.99966 -9.25045e-05 0)
(0.99968 -9.92475e-05 0)
(0.999695 -0.000105124 0)
(0.999714 -0.000109076 0)
(0.999727 -0.000112541 0)
(0.999742 -0.000113864 0)
(0.999752 -0.00011514 0)
(0.99976 -0.000114821 0)
(0.999581 -8.30138e-06 0)
(0.999544 -1.92886e-05 0)
(0.99955 -3.13434e-05 0)
(0.999559 -4.30774e-05 0)
(0.999569 -5.46083e-05 0)
(0.999585 -6.55278e-05 0)
(0.999598 -7.5716e-05 0)
(0.999618 -8.50786e-05 0)
(0.999635 -9.33945e-05 0)
(0.999657 -0.000100346 0)
(0.999675 -0.000106351 0)
(0.999697 -0.000110265 0)
(0.999714 -0.000113652 0)
(0.999733 -0.000114539 0)
(0.999744 -0.000115387 0)
(0.999755 -0.000114209 0)
(0.999542 -8.28314e-06 0)
(0.999504 -1.87698e-05 0)
(0.999511 -3.05526e-05 0)
(0.999521 -4.20936e-05 0)
(0.999532 -5.3465e-05 0)
(0.99955 -6.44109e-05 0)
(0.999565 -7.46005e-05 0)
(0.999588 -8.41616e-05 0)
(0.999607 -9.26116e-05 0)
(0.999633 -9.9774e-05 0)
(0.999655 -0.000105922 0)
(0.999681 -0.000109824 0)
(0.999701 -0.000113167 0)
(0.999724 -0.000113605 0)
(0.999739 -0.000114014 0)
(0.999752 -0.00011187 0)
(0.999502 -8.06092e-06 0)
(0.999463 -1.75818e-05 0)
(0.99947 -2.86951e-05 0)
(0.999482 -3.96837e-05 0)
(0.999494 -5.05676e-05 0)
(0.999513 -6.12892e-05 0)
(0.999531 -7.1269e-05 0)
(0.999557 -8.09078e-05 0)
(0.999579 -8.94069e-05 0)
(0.999609 -9.67725e-05 0)
(0.999634 -0.000103077 0)
(0.999664 -0.000107016 0)
(0.999689 -0.000110367 0)
(0.999716 -0.000110369 0)
(0.999735 -0.000110352 0)
(0.999753 -0.000107147 0)
(0.999461 -7.55136e-06 0)
(0.999421 -1.54782e-05 0)
(0.999429 -2.53753e-05 0)
(0.999441 -3.53122e-05 0)
(0.999454 -4.52522e-05 0)
(0.999476 -5.5389e-05 0)
(0.999495 -6.48568e-05 0)
(0.999524 -7.43855e-05 0)
(0.999549 -8.28026e-05 0)
(0.999583 -9.03464e-05 0)
(0.999612 -9.68201e-05 0)
(0.999648 -0.000100862 0)
(0.999677 -0.000104306 0)
(0.99971 -0.000103918 0)
(0.999734 -0.000103525 0)
(0.999756 -9.91757e-05 0)
(0.999419 -6.64859e-06 0)
(0.999379 -1.216e-05 0)
(0.999387 -2.01126e-05 0)
(0.999401 -2.83271e-05 0)
(0.999414 -3.67088e-05 0)
(0.999437 -4.57628e-05 0)
(0.999458 -5.43007e-05 0)
(0.99949 -6.34471e-05 0)
(0.999518 -7.15889e-05 0)
(0.999556 -7.92631e-05 0)
(0.99959 -8.59099e-05 0)
(0.999631 -9.01517e-05 0)
(0.999666 -9.38075e-05 0)
(0.999705 -9.31246e-05 0)
(0.999735 -9.24522e-05 0)
(0.999763 -8.69042e-05 0)
(0.999376 -5.22424e-06 0)
(0.999338 -7.26371e-06 0)
(0.999346 -1.23216e-05 0)
(0.99936 -1.79305e-05 0)
(0.999374 -2.3942e-05 0)
(0.999399 -3.12391e-05 0)
(0.999421 -3.8281e-05 0)
(0.999455 -4.66559e-05 0)
(0.999487 -5.42454e-05 0)
(0.999528 -6.19614e-05 0)
(0.999567 -6.87723e-05 0)
(0.999613 -7.33414e-05 0)
(0.999656 -7.73714e-05 0)
(0.999701 -7.65508e-05 0)
(0.999738 -7.57618e-05 0)
(0.999773 -6.89995e-05 0)
(0.999336 -3.12219e-06 0)
(0.999301 -3.60759e-07 0)
(0.999308 -1.30987e-06 0)
(0.999322 -3.17518e-06 0)
(0.999336 -5.76518e-06 0)
(0.999361 -1.04127e-05 0)
(0.999385 -1.5203e-05 0)
(0.99942 -2.22666e-05 0)
(0.999454 -2.89092e-05 0)
(0.999499 -3.65218e-05 0)
(0.999544 -4.34554e-05 0)
(0.999596 -4.8517e-05 0)
(0.999645 -5.31302e-05 0)
(0.999699 -5.24166e-05 0)
(0.999745 -5.17573e-05 0)
(0.999789 -4.38238e-05 0)
(0.999298 -1.58409e-07 0)
(0.999268 9.04425e-06 0)
(0.999274 1.37253e-05 0)
(0.999288 1.70439e-05 0)
(0.999301 1.92142e-05 0)
(0.999326 1.83799e-05 0)
(0.999349 1.68345e-05 0)
(0.999386 1.18253e-05 0)
(0.999422 6.68047e-06 0)
(0.99947 -5.87243e-07 0)
(0.999519 -7.5534e-06 0)
(0.999578 -1.32993e-05 0)
(0.999636 -1.87628e-05 0)
(0.999698 -1.85051e-05 0)
(0.999754 -1.83358e-05 0)
(0.999809 -9.35467e-06 0)
(0.999265 3.87978e-06 0)
(0.999243 2.15096e-05 0)
(0.999248 3.36922e-05 0)
(0.999261 4.39863e-05 0)
(0.999272 5.25955e-05 0)
(0.999296 5.70692e-05 0)
(0.999317 6.00631e-05 0)
(0.999354 5.81175e-05 0)
(0.999391 5.52431e-05 0)
(0.999441 4.87043e-05 0)
(0.999495 4.18947e-05 0)
(0.999559 3.52525e-05 0)
(0.999626 2.86291e-05 0)
(0.999699 2.7942e-05 0)
(0.999767 2.71231e-05 0)
(0.999835 3.69123e-05 0)
(0.99924 9.23199e-06 0)
(0.99923 3.76359e-05 0)
(0.999232 5.95738e-05 0)
(0.999244 7.90269e-05 0)
(0.999251 9.6144e-05 0)
(0.999272 0.000107815 0)
(0.999291 0.000117015 0)
(0.999325 0.000119492 0)
(0.999361 0.000119961 0)
(0.999412 0.000114761 0)
(0.99947 0.000108455 0)
(0.99954 0.000100729 0)
(0.999615 9.26055e-05 0)
(0.9997 9.03266e-05 0)
(0.999782 8.78475e-05 0)
(0.999866 9.80511e-05 0)
(0.999228 1.61558e-05 0)
(0.999233 5.80442e-05 0)
(0.999232 9.23938e-05 0)
(0.99924 0.000123618 0)
(0.999242 0.00015175 0)
(0.999259 0.000172976 0)
(0.999273 0.000190504 0)
(0.999303 0.000199224 0)
(0.999336 0.000204524 0)
(0.999386 0.00020162 0)
(0.999445 0.000196431 0)
(0.999519 0.000187531 0)
(0.999604 0.000177591 0)
(0.999701 0.00017289 0)
(0.9998 0.000167873 0)
(0.999903 0.000177875 0)
(0.999232 2.49173e-05 0)
(0.999258 8.33152e-05 0)
(0.999252 0.000133122 0)
(0.999256 0.000179161 0)
(0.999251 0.000221282 0)
(0.999261 0.000254946 0)
(0.999267 0.000283476 0)
(0.999289 0.000300842 0)
(0.999316 0.00031303 0)
(0.999362 0.000313894 0)
(0.999421 0.000310875 0)
(0.999498 0.000300941 0)
(0.999592 0.000288993 0)
(0.999702 0.000280843 0)
(0.99982 0.000272164 0)
(0.999946 0.000281016 0)
(0.999257 3.57652e-05 0)
(0.99931 0.000113928 0)
(0.999299 0.000182577 0)
(0.999297 0.000246883 0)
(0.999283 0.000306433 0)
(0.999283 0.000355996 0)
(0.999278 0.00039884 0)
(0.99929 0.000428004 0)
(0.999307 0.000449894 0)
(0.999345 0.000456784 0)
(0.999399 0.000457682 0)
(0.999476 0.000447361 0)
(0.999577 0.000433546 0)
(0.9997 0.00042081 0)
(0.99984 0.000407102 0)
(0.999994 0.000413392 0)
(0.999311 4.89038e-05 0)
(0.999397 0.000150142 0)
(0.99938 0.000241232 0)
(0.99937 0.000327566 0)
(0.999345 0.0004084 0)
(0.999332 0.000477893 0)
(0.999312 0.000539073 0)
(0.999309 0.000584073 0)
(0.999312 0.000619489 0)
(0.999337 0.000635773 0)
(0.999381 0.000643455 0)
(0.999454 0.00063435 0)
(0.999559 0.000619628 0)
(0.999695 0.000601369 0)
(0.999859 0.000581327 0)
(1.00005 0.000583165 0)
(0.9994 6.44424e-05 0)
(0.999527 0.000191874 0)
(0.999502 0.000309021 0)
(0.999482 0.000421282 0)
(0.999444 0.00052753 0)
(0.999415 0.000621486 0)
(0.999377 0.000705727 0)
(0.999355 0.000771623 0)
(0.999337 0.00082561 0)
(0.999343 0.000856176 0)
(0.999372 0.000875101 0)
(0.999434 0.000870434 0)
(0.999539 0.000857191 0)
(0.999683 0.000833245 0)
(0.999874 0.000806194 0)
(1.0001 0.000801167 0)
(0.999532 8.23432e-05 0)
(0.999707 0.00023852 0)
(0.999673 0.000385038 0)
(0.999642 0.000526959 0)
(0.999589 0.000662763 0)
(0.999542 0.000786007 0)
(0.999482 0.000898635 0)
(0.999436 0.000991507 0)
(0.999391 0.00107053 0)
(0.999372 0.00112217 0)
(0.999376 0.00115898 0)
(0.99942 0.0011643 0)
(0.999516 0.00115694 0)
(0.999664 0.00112819 0)
(0.999881 0.0010937 0)
(1.00016 0.00107747 0)
(0.999714 0.000102344 0)
(0.999944 0.000288794 0)
(0.999901 0.000467267 0)
(0.999859 0.000641984 0)
(0.999788 0.000811083 0)
(0.999721 0.00096835 0)
(0.999636 0.00111498 0)
(0.999561 0.0012418 0)
(0.999485 0.00135382 0)
(0.999432 0.00143576 0)
(0.999403 0.00150027 0)
(0.999416 0.0015251 0)
(0.999492 0.0015319 0)
(0.999634 0.00150196 0)
(0.999876 0.00145925 0)
(1.0002 0.0014226 0)
(0.999954 0.00012389 0)
(1.00024 0.000340545 0)
(1.00019 0.00055226 0)
(1.00014 0.000761708 0)
(1.00005 0.000966803 0)
(0.999961 0.00116207 0)
(0.999849 0.00134796 0)
(0.999743 0.001516 0)
(0.99963 0.00167018 0)
(0.999537 0.00179435 0)
(0.999464 0.00190099 0)
(0.999435 0.00196229 0)
(0.999472 0.00200207 0)
(0.999591 0.00198778 0)
(0.999843 0.00194858 0)
(1.00023 0.0018885 0)
(1.00026 0.000146055 0)
(1.00061 0.000390679 0)
(1.00055 0.000634984 0)
(1.00048 0.00087917 0)
(1.00038 0.00112108 0)
(1.00027 0.00135655 0)
(1.00013 0.00158537 0)
(0.999994 0.00180077 0)
(0.999842 0.00200578 0)
(0.999706 0.00218514 0)
(0.999582 0.00235166 0)
(0.999499 0.00247452 0)
(0.999481 0.00258213 0)
(0.99955 0.00262895 0)
(0.999783 0.00265241 0)
(1.00022 0.00262603 0)
(1.00063 0.000167512 0)
(1.00104 0.000435171 0)
(1.00098 0.000708834 0)
(1.0009 0.000985061 0)
(1.00078 0.00126178 0)
(1.00065 0.00153664 0)
(1.00049 0.00180884 0)
(1.00032 0.00207419 0)
(1.00013 0.00233469 0)
(0.999955 0.0025778 0)
(0.999781 0.00281683 0)
(0.999644 0.00302163 0)
(0.999567 0.00322855 0)
(0.999579 0.00338556 0)
(0.999764 0.00355463 0)
(1.00018 0.00367917 0)
(1.00106 0.000186537 0)
(1.00154 0.000469307 0)
(1.00146 0.000766019 0)
(1.00138 0.00106831 0)
(1.00125 0.00137427 0)
(1.00111 0.00168375 0)
(1.00092 0.00199517 0)
(1.00073 0.00230756 0)
(1.00051 0.00262107 0)
(1.00029 0.0029268 0)
(1.00007 0.00323616 0)
(0.99988 0.00352034 0)
(0.999743 0.00381809 0)
(0.999693 0.00406903 0)
(0.999808 0.00434969 0)
(1.00013 0.00456961 0)
(1.00156 0.000201111 0)
(1.00208 0.00048802 0)
(1.00201 0.000798161 0)
(1.00192 0.00111696 0)
(1.00178 0.00144277 0)
(1.00162 0.00177781 0)
(1.00143 0.00211964 0)
(1.00121 0.00247082 0)
(1.00096 0.00282881 0)
(1.00071 0.00318912 0)
(1.00044 0.00355846 0)
(1.00019 0.00391021 0)
(0.999982 0.00427878 0)
(0.999847 0.00459476 0)
(0.999855 0.00493678 0)
(1.00003 0.00518327 0)
(1.0021 0.000209068 0)
(1.00266 0.000486318 0)
(1.00258 0.000796986 0)
(1.00249 0.00111919 0)
(1.00235 0.00145163 0)
(1.00219 0.00179893 0)
(1.00198 0.00215774 0)
(1.00175 0.00253444 0)
(1.00148 0.00292317 0)
(1.00119 0.00332492 0)
(1.00087 0.00373954 0)
(1.00057 0.00414511 0)
(1.00027 0.0045674 0)
(1.00002 0.0049328 0)
(0.999889 0.00531775 0)
(0.999888 0.00557985 0)
(1.00268 0.000208272 0)
(1.00324 0.000459725 0)
(1.00317 0.000755057 0)
(1.00308 0.00106432 0)
(1.00294 0.0013866 0)
(1.00278 0.0017289 0)
(1.00257 0.002087 0)
(1.00233 0.0024713 0)
(1.00204 0.00287243 0)
(1.00173 0.00329807 0)
(1.00136 0.00373985 0)
(1.00099 0.00418409 0)
(1.00059 0.00464437 0)
(1.00022 0.00504917 0)
(0.999911 0.00546821 0)
(0.999698 0.00574465 0)
(1.00326 0.000196811 0)
(1.00381 0.000404723 0)
(1.00374 0.000666475 0)
(1.00366 0.000943728 0)
(1.00353 0.00123605 0)
(1.00337 0.00155253 0)
(1.00317 0.00188831 0)
(1.00292 0.00225776 0)
(1.00262 0.00264829 0)
(1.00229 0.00307548 0)
(1.00188 0.00352214 0)
(1.00144 0.00398697 0)
(1.00094 0.00446839 0)
(1.00042 0.00490364 0)
(0.999918 0.00534939 0)
(0.999461 0.00563852 0)
(1.00383 0.000173182 0)
(1.00433 0.000319127 0)
(1.00427 0.000527486 0)
(1.0042 0.000751749 0)
(1.00408 0.000991962 0)
(1.00393 0.00125878 0)
(1.00373 0.00154698 0)
(1.0035 0.00187453 0)
(1.0032 0.00222628 0)
(1.00285 0.00262657 0)
(1.0024 0.00304973 0)
(1.00191 0.00351163 0)
(1.0013 0.00399296 0)
(1.00063 0.00444834 0)
(0.999912 0.00491675 0)
(0.999177 0.00522723 0)
(1.00435 0.000136458 0)
(1.00477 0.000202921 0)
(1.00472 0.000337865 0)
(1.00465 0.000487578 0)
(1.00455 0.000652431 0)
(1.00441 0.000843819 0)
(1.00423 0.0010563 0)
(1.00401 0.00131045 0)
(1.00372 0.00158945 0)
(1.00337 0.00192638 0)
(1.00291 0.00228854 0)
(1.00237 0.00271435 0)
(1.00167 0.00316516 0)
(1.00086 0.0036282 0)
(0.999904 0.00412513 0)
(0.998867 0.00447163 0)
(1.00479 8.66407e-05 0)
(1.00509 5.98597e-05 0)
(1.00504 0.000103608 0)
(1.00499 0.000159301 0)
(1.00489 0.000227316 0)
(1.00478 0.000318658 0)
(1.00461 0.000427528 0)
(1.00441 0.00057525 0)
(1.00413 0.000743833 0)
(1.00379 0.000972782 0)
(1.00333 0.00122421 0)
(1.00277 0.00156173 0)
(1.00201 0.00192588 0)
(1.00109 0.0023644 0)
(0.999911 0.00285919 0)
(0.99848 0.00319882 0)
(1.0051 2.53396e-05 0)
(1.00531 -0.000104163 0)
(1.00527 -0.000165745 0)
(1.00522 -0.000219655 0)
(1.00514 -0.000265681 0)
(1.00504 -0.000294426 0)
(1.00489 -0.000312225 0)
(1.0047 -0.000299851 0)
(1.00445 -0.000276997 0)
(1.00413 -0.000204671 0)
(1.00369 -0.000126843 0)
(1.00314 3.3378e-05 0)
(1.00236 0.000188825 0)
(1.00138 0.000465449 0)
(0.999938 0.000738163 0)
(0.998001 0.000917843 0)
(1.00531 -4.49243e-05 0)
(1.00526 -0.000292175 0)
(1.00523 -0.000475421 0)
(1.00519 -0.000657714 0)
(1.00512 -0.000838817 0)
(1.00503 -0.00101246 0)
(1.00489 -0.00118574 0)
(1.00471 -0.00134454 0)
(1.00446 -0.00151112 0)
(1.00413 -0.00165543 0)
(1.00369 -0.00182878 0)
(1.0031 -0.0019664 0)
(1.00228 -0.00218202 0)
(1.0012 -0.00232608 0)
(0.999523 -0.00261863 0)
(0.997212 -0.00284599 0)
(1.00527 -0.000125383 0)
(1.0048 -0.000498644 0)
(1.00477 -0.000816593 0)
(1.00473 -0.00114389 0)
(1.00466 -0.00148126 0)
(1.00456 -0.00182616 0)
(1.00441 -0.00218799 0)
(1.00421 -0.00255759 0)
(1.00393 -0.0029603 0)
(1.00355 -0.00337219 0)
(1.00304 -0.00384998 0)
(1.00235 -0.00433648 0)
(1.00141 -0.00495058 0)
(1.00016 -0.00552977 0)
(0.998379 -0.00630744 0)
(0.996057 -0.00681909 0)
(1.00481 -0.00021371 0)
(1.00395 -0.000701751 0)
(1.0039 -0.00115293 0)
(1.00384 -0.00162524 0)
(1.00375 -0.00212124 0)
(1.00362 -0.00264227 0)
(1.00344 -0.00320036 0)
(1.00319 -0.0037904 0)
(1.00285 -0.0044382 0)
(1.00239 -0.00512057 0)
(1.00179 -0.00589186 0)
(1.00097 -0.00668647 0)
(0.999942 -0.00760872 0)
(0.9986 -0.00846213 0)
(0.996912 -0.00945222 0)
(0.994892 -0.0100103 0)
(1.00396 -0.000300503 0)
(1.00271 -0.00088289 0)
(1.00264 -0.00145223 0)
(1.00254 -0.0020524 0)
(1.0024 -0.00268772 0)
(1.00222 -0.00336325 0)
(1.00198 -0.00409295 0)
(1.00165 -0.0048748 0)
(1.00124 -0.00573125 0)
(1.00069 -0.00663761 0)
(1 -0.00763664 0)
(0.99911 -0.00864927 0)
(0.998062 -0.0097532 0)
(0.99678 -0.010731 0)
(0.995374 -0.0117578 0)
(0.993849 -0.0122768 0)
(1.00273 -0.000377842 0)
(1.00114 -0.00102846 0)
(1.00104 -0.00169033 0)
(1.0009 -0.00238731 0)
(1.0007 -0.00312445 0)
(1.00045 -0.00391003 0)
(1.00013 -0.00475911 0)
(0.999713 -0.00567169 0)
(0.999209 -0.00666421 0)
(0.998579 -0.00771295 0)
(0.997836 -0.00884574 0)
(0.996938 -0.00997712 0)
(0.995969 -0.0111529 0)
(0.994881 -0.0121625 0)
(0.993875 -0.0131479 0)
(0.992928 -0.0136257 0)
(1.00117 -0.00044004 0)
(0.99932 -0.00113192 0)
(0.999186 -0.00185622 0)
(0.999003 -0.00261328 0)
(0.998744 -0.00340654 0)
(0.998416 -0.00424639 0)
(0.998007 -0.00514813 0)
(0.997507 -0.00611271 0)
(0.99692 -0.00714857 0)
(0.996228 -0.00823764 0)
(0.995461 -0.00939641 0)
(0.994615 -0.0105506 0)
(0.993799 -0.0117171 0)
(0.993001 -0.0127153 0)
(0.99246 -0.0136404 0)
(0.992114 -0.0141018 0)
(0.99936 -0.000484395 0)
(0.997322 -0.00119066 0)
(0.997166 -0.00194792 0)
(0.996948 -0.00273131 0)
(0.996642 -0.00353912 0)
(0.99625 -0.00438097 0)
(0.995766 -0.00527104 0)
(0.995196 -0.00621104 0)
(0.99455 -0.00720068 0)
(0.993822 -0.00822871 0)
(0.993056 -0.00930243 0)
(0.992292 -0.0103781 0)
(0.991661 -0.0114572 0)
(0.991194 -0.0124107 0)
(0.991135 -0.0132763 0)
(0.991381 -0.0137651 0)
(0.997369 -0.000509717 0)
(0.995224 -0.00120142 0)
(0.995056 -0.0019631 0)
(0.994823 -0.00274499 0)
(0.994495 -0.00353837 0)
(0.994069 -0.00434737 0)
(0.993541 -0.00517938 0)
(0.992936 -0.00603772 0)
(0.992271 -0.00692013 0)
(0.991546 -0.00782116 0)
(0.990805 -0.00872465 0)
(0.990128 -0.00961463 0)
(0.989666 -0.0104942 0)
(0.98951 -0.0113188 0)
(0.989885 -0.0120886 0)
(0.990667 -0.0126505 0)
(0.995275 -0.000514412 0)
(0.993122 -0.00116281 0)
(0.99295 -0.00189947 0)
(0.992716 -0.0026545 0)
(0.992392 -0.00341903 0)
(0.991969 -0.00419069 0)
(0.991435 -0.00495436 0)
(0.990829 -0.0057059 0)
(0.99017 -0.00645629 0)
(0.98948 -0.00721108 0)
(0.988806 -0.00791317 0)
(0.988254 -0.00853879 0)
(0.987962 -0.00909298 0)
(0.988062 -0.00964389 0)
(0.988721 -0.0102089 0)
(0.989861 -0.0108447 0)
(0.993176 -0.00049779 0)
(0.991094 -0.00109346 0)
(0.990912 -0.00178357 0)
(0.990667 -0.0024891 0)
(0.990334 -0.00321444 0)
(0.989913 -0.00395866 0)
(0.989401 -0.00467411 0)
(0.988823 -0.00532268 0)
(0.9882 -0.00592415 0)
(0.987614 -0.00648435 0)
(0.987212 -0.00697162 0)
(0.98703 -0.00737338 0)
(0.987045 -0.00765862 0)
(0.987302 -0.00794457 0)
(0.987865 -0.00821492 0)
(0.988952 -0.00878727 0)
(0.991152 -0.000467999 0)
(0.98905 -0.00103204 0)
(0.98886 -0.00167515 0)
(0.988592 -0.00231487 0)
(0.988233 -0.00296119 0)
(0.987833 -0.00360259 0)
(0.987496 -0.00422316 0)
(0.987181 -0.0047775 0)
(0.986881 -0.00525638 0)
(0.986669 -0.00563222 0)
(0.986597 -0.00593591 0)
(0.986648 -0.00624059 0)
(0.986797 -0.0064791 0)
(0.987082 -0.00671616 0)
(0.987508 -0.00681768 0)
(0.988234 -0.00713343 0)
(0.989114 -0.000442 0)
(0.987372 -0.000954248 0)
(0.987258 -0.0015437 0)
(0.987101 -0.00211171 0)
(0.986901 -0.00264989 0)
(0.98671 -0.00311311 0)
(0.986574 -0.00355514 0)
(0.986465 -0.0040045 0)
(0.986388 -0.00442198 0)
(0.986355 -0.00479201 0)
(0.986337 -0.00509122 0)
(0.986394 -0.00535685 0)
(0.986568 -0.00556438 0)
(0.986903 -0.00575867 0)
(0.987365 -0.00589004 0)
(0.987935 -0.00604791 0)
(0.987413 -0.000408924 0)
(0.986517 -0.0007976 0)
(0.986472 -0.00129271 0)
(0.986416 -0.00178044 0)
(0.986351 -0.002249 0)
(0.986278 -0.00268473 0)
(0.986159 -0.00308559 0)
(0.986043 -0.00346201 0)
(0.985964 -0.00379959 0)
(0.98595 -0.00410629 0)
(0.986003 -0.00436363 0)
(0.986142 -0.0045863 0)
(0.986367 -0.00475873 0)
(0.986709 -0.00492369 0)
(0.987156 -0.00506277 0)
(0.987737 -0.00522114 0)
(0.986533 -0.000342096 0)
(0.985964 -0.00068604 0)
(0.985916 -0.00110823 0)
(0.985855 -0.00152327 0)
(0.985786 -0.00192195 0)
(0.985723 -0.00230277 0)
(0.985669 -0.00265539 0)
(0.985636 -0.00297561 0)
(0.985636 -0.00325612 0)
(0.985685 -0.00350702 0)
(0.98578 -0.00371899 0)
(0.985946 -0.00390971 0)
(0.986187 -0.00406534 0)
(0.986528 -0.00421868 0)
(0.98695 -0.00435175 0)
(0.987462 -0.00451469 0)
(0.985981 -0.000294358 0)
(0.985452 -0.000589907 0)
(0.985431 -0.000952057 0)
(0.985406 -0.00130673 0)
(0.985381 -0.00164457 0)
(0.985359 -0.00196344 0)
(0.985339 -0.00225735 0)
(0.985338 -0.00252699 0)
(0.985369 -0.00276556 0)
(0.985447 -0.00298211 0)
(0.985573 -0.00316733 0)
(0.985764 -0.00333599 0)