/*--------------------------------*- C++ -*----------------------------------*\
| =========                 |                                                 |
| \\      /  F ield         | foam-extend: Open Source CFD                    |
|  \\    /   O peration     | Version:     4.1-20200408                       |
|   \\  /    A nd           | Web:         http://www.foam-extend.org         |
|    \\/     M anipulation  |                                                 |
\*---------------------------------------------------------------------------*/
FoamFile
{
    version     2.0;
    format      ascii;
    class       volTensorField;
    location    "0.0670000";
    object      grad(DU);
}
// * * * * * * * * * * * * * * * * * * * * * * * * * * * * * * * * * * * * * //

dimensions      [0 0 0 0 0 0 0];

internalField   nonuniform List<tensor> 
1952
(
(-7.47089e-06 -2.60939e-05 8.05179e-11 1.29512e-06 -2.53686e-05 8.66839e-13 6.42874e-14 1.51387e-13 -2.64032e-05)
(-7.88577e-06 -1.75871e-05 5.44707e-11 2.28801e-06 -2.62179e-05 -3.91078e-13 1.83031e-14 -6.0147e-13 -2.54133e-05)
(-8.49668e-06 -5.18112e-05 -6.10626e-11 3.14005e-06 -2.50449e-05 -5.03284e-12 -6.14761e-14 2.11924e-13 -2.62515e-05)
(-9.27531e-06 -3.85697e-05 -1.69559e-10 4.19117e-06 -2.51082e-05 1.37792e-13 -6.89308e-14 4.2669e-13 -2.50914e-05)
(-1.03654e-05 -7.74446e-05 4.32715e-11 5.04203e-06 -2.40639e-05 9.01788e-12 6.48928e-14 -3.66258e-13 -2.57173e-05)
(-1.15086e-05 -6.27281e-05 2.28408e-10 6.29157e-06 -2.33215e-05 3.74834e-12 9.76405e-14 -1.46198e-13 -2.45344e-05)
(-1.31075e-05 -0.000103679 6.09329e-11 8.2106e-06 -2.20619e-05 -7.94711e-12 7.82811e-14 -1.26083e-12 -2.48893e-05)
(-1.49121e-05 -8.85519e-05 -1.04712e-10 1.06465e-05 -2.03137e-05 -2.77087e-12 2.64324e-13 -1.25383e-12 -2.36524e-05)
(-1.72651e-05 -0.000132016 1.73985e-11 1.35853e-05 -1.8287e-05 8.12182e-12 4.40196e-14 -1.95551e-13 -2.36858e-05)
(-1.98483e-05 -0.000118404 8.40644e-11 1.81101e-05 -1.52281e-05 -5.96309e-13 -6.02735e-13 1.24668e-12 -2.23012e-05)
(-2.31378e-05 -0.000163666 -3.14928e-11 2.61735e-05 -1.17681e-05 -7.92123e-12 3.83029e-13 1.15829e-12 -2.19512e-05)
(-2.7107e-05 -0.000151928 -3.7026e-11 3.92926e-05 -6.33995e-06 8.02169e-13 1.27633e-12 -7.40647e-13 -2.0305e-05)
(-3.20281e-05 -0.000203377 3.82907e-12 6.31919e-05 -6.58723e-07 6.47478e-12 5.43047e-15 -3.92621e-14 -1.94062e-05)
(-3.82169e-05 -0.000199066 3.67072e-11 0.000109349 9.53584e-06 1.06456e-12 -5.85194e-12 4.78646e-15 -1.73702e-05)
(-4.65797e-05 -0.000266708 1.85233e-11 0.000199714 1.84779e-05 -1.28597e-12 -5.67603e-12 -8.63188e-13 -1.55257e-05)
(-7.3279e-06 -2.37957e-06 1.77856e-11 7.44526e-07 -2.66183e-05 -9.08559e-13 2.22582e-14 -2.09831e-12 -2.5834e-05)
(-5.54228e-06 -5.84412e-06 -1.16448e-15 1.91874e-06 -1.06967e-05 2.52738e-13 9.98926e-14 6.21257e-14 -1.11443e-05)
(-5.73634e-06 -9.06316e-06 2.43194e-15 3.44115e-06 -1.08294e-05 -2.83308e-13 2.83195e-14 -2.80414e-13 -1.07289e-05)
(-6.0149e-06 -1.32948e-05 8.34278e-16 4.64189e-06 -1.00934e-05 -1.91458e-12 -8.79618e-14 8.55354e-14 -1.09167e-05)
(-6.33753e-06 -1.61891e-05 -4.64613e-15 6.25865e-06 -9.8258e-06 6.64608e-13 -7.04169e-14 2.64264e-13 -1.03668e-05)
(-6.83653e-06 -2.06702e-05 -3.26718e-17 7.4975e-06 -8.87902e-06 3.47572e-12 9.75971e-14 -1.37185e-13 -1.04201e-05)
(-7.44176e-06 -2.33157e-05 2.93836e-15 9.22297e-06 -8.11231e-06 4.59089e-13 1.33716e-13 -1.22747e-13 -9.78056e-06)
(-8.19488e-06 -2.7859e-05 1.35625e-15 1.14197e-05 -6.87146e-06 -3.37565e-12 1.79674e-13 -4.77675e-13 -9.66322e-06)
(-8.74634e-06 -3.0248e-05 -1.27985e-15 1.39088e-05 -5.76062e-06 -5.41346e-13 2.66482e-13 -4.19726e-13 -8.93365e-06)
(-9.39132e-06 -3.45388e-05 -1.25071e-16 1.64275e-05 -4.23752e-06 2.8924e-12 6.71563e-14 -6.73146e-14 -8.67614e-06)
(-9.8827e-06 -3.63908e-05 -2.03166e-15 1.92992e-05 -2.62648e-06 -5.81739e-13 -1.85179e-13 5.00846e-13 -7.86522e-06)
(-1.01261e-05 -3.99867e-05 1.9077e-15 2.32797e-05 -6.75091e-07 -2.56889e-12 1.86672e-14 4.43445e-13 -7.46053e-06)
(-9.21266e-06 -4.07119e-05 3.88456e-15 2.73594e-05 1.00749e-06 3.76062e-13 -7.23026e-14 -5.4005e-13 -6.56142e-06)
(-6.865e-06 -4.25782e-05 -4.63813e-16 3.17835e-05 2.46147e-06 2.02016e-12 2.46073e-14 -1.14242e-14 -6.08163e-06)
(-5.12052e-07 -4.13443e-05 -3.65195e-15 3.68481e-05 2.05912e-06 2.67829e-13 7.75667e-14 1.08834e-12 -5.22438e-06)
(1.36291e-05 -4.0393e-05 8.08902e-16 4.02072e-05 -2.6828e-06 -6.12336e-13 2.57212e-13 1.00243e-13 -4.97889e-06)
(-5.48974e-06 -2.45406e-06 2.12423e-17 1.05358e-06 -1.12206e-05 -4.03971e-13 3.0888e-14 -8.89925e-13 -1.09533e-05)
(-8.21909e-06 -4.86388e-06 -7.5297e-16 1.99841e-06 -7.14397e-06 1.66284e-13 1.05915e-13 2.5063e-14 -7.33215e-06)
(-8.38066e-06 -7.61295e-06 1.60716e-15 3.60395e-06 -6.9832e-06 -1.89157e-13 3.03286e-14 -2.28999e-13 -7.15932e-06)
(-8.59181e-06 -1.10362e-05 6.64286e-16 4.83413e-06 -6.44605e-06 -1.24412e-12 -9.09911e-14 6.72461e-14 -7.09359e-06)
(-8.82095e-06 -1.35496e-05 -3.03276e-15 6.52485e-06 -6.02627e-06 4.34558e-13 -6.70463e-14 3.16409e-13 -6.77688e-06)
(-9.19209e-06 -1.71176e-05 -2.16897e-16 7.96302e-06 -5.18897e-06 2.20887e-12 1.02714e-13 -7.8006e-14 -6.62197e-06)
(-9.64635e-06 -1.94009e-05 1.87251e-15 9.83323e-06 -4.37083e-06 2.90091e-13 1.67309e-13 -2.15436e-13 -6.18217e-06)
(-1.01784e-05 -2.28847e-05 1.08104e-15 1.18954e-05 -3.2315e-06 -2.06251e-12 2.0876e-13 -2.41921e-13 -5.90387e-06)
(-1.04254e-05 -2.48504e-05 -6.0486e-16 1.42617e-05 -2.23178e-06 -3.24425e-13 2.63555e-13 -6.87346e-14 -5.35436e-06)
(-1.06787e-05 -2.80489e-05 -4.14441e-16 1.68592e-05 -9.7711e-07 1.66508e-12 6.84136e-14 -3.01474e-14 -4.99451e-06)
(-1.07278e-05 -2.94749e-05 -9.76994e-16 1.97924e-05 2.44293e-07 -3.23957e-13 -1.69696e-13 1.83516e-13 -4.37908e-06)
(-1.05253e-05 -3.19446e-05 1.25992e-15 2.34255e-05 1.50181e-06 -1.36041e-12 -2.75345e-14 2.04418e-13 -3.95075e-06)
(-9.356e-06 -3.22602e-05 1.96763e-15 2.72806e-05 2.24957e-06 1.90059e-13 -3.33907e-14 -3.38344e-13 -3.31571e-06)
(-7.61109e-06 -3.33835e-05 -3.84143e-16 3.13366e-05 2.74083e-06 9.74645e-13 2.57209e-14 -3.51492e-15 -2.93405e-06)
(-4.2104e-06 -3.22076e-05 -1.67901e-15 3.52509e-05 2.12158e-06 1.2346e-13 2.12965e-13 6.46784e-13 -2.40845e-06)
(1.18892e-06 -3.23409e-05 4.6979e-16 3.50418e-05 2.37107e-07 -2.37949e-13 5.65494e-13 -3.011e-14 -2.24032e-06)
(-8.19603e-06 -2.05091e-06 1.58689e-17 1.07604e-06 -7.34e-06 -2.69794e-13 3.39563e-14 -5.89691e-13 -7.31248e-06)
(-1.26592e-05 -4.06555e-06 -4.2184e-16 2.08156e-06 -3.96985e-06 9.32104e-14 1.15163e-13 1.79135e-14 -4.11041e-06)
(-1.27993e-05 -6.5446e-06 8.97072e-16 3.79044e-06 -3.76773e-06 -1.05276e-13 3.50246e-14 -1.33966e-13 -3.9825e-06)
(-1.29779e-05 -9.15201e-06 3.72411e-16 5.03855e-06 -3.3159e-06 -6.80733e-13 -9.39977e-14 3.0515e-14 -3.88124e-06)
(-1.31608e-05 -1.1507e-05 -1.62748e-15 6.81417e-06 -2.88933e-06 2.32997e-13 -6.09763e-14 1.85534e-13 -3.63227e-06)
(-1.3461e-05 -1.40627e-05 -1.26966e-16 8.28852e-06 -2.1564e-06 1.15072e-12 1.07387e-13 -3.51625e-14 -3.4497e-06)
(-1.36871e-05 -1.61733e-05 9.38032e-16 1.01863e-05 -1.46447e-06 1.44951e-13 1.69681e-13 -9.061e-14 -3.09097e-06)
(-1.39824e-05 -1.84543e-05 5.39549e-16 1.21505e-05 -5.15173e-07 -9.85926e-13 2.35038e-13 -1.31267e-13 -2.82195e-06)
(-1.39838e-05 -2.01397e-05 -2.64041e-16 1.43331e-05 3.00077e-07 -1.43989e-13 2.54157e-13 -6.83333e-14 -2.37708e-06)
(-1.39097e-05 -2.19989e-05 -1.83409e-16 1.66487e-05 1.28e-06 6.848e-13 7.13359e-14 -1.11233e-14 -2.05405e-06)
(-1.33909e-05 -2.30699e-05 -3.44595e-16 1.90374e-05 2.08306e-06 -1.16158e-13 -8.3796e-14 2.07575e-13 -1.56934e-06)
(-1.24259e-05 -2.41706e-05 4.04831e-16 2.169e-05 2.81472e-06 -4.23777e-13 -1.00289e-13 1.11154e-13 -1.23066e-06)
(-1.04173e-05 -2.43121e-05 4.60106e-16 2.40722e-05 2.94681e-06 4.44776e-14 -1.67637e-13 -3.44568e-13 -7.75366e-07)
(-7.38245e-06 -2.45362e-05 -7.42398e-17 2.60172e-05 2.67137e-06 1.78831e-13 2.5278e-14 1.166e-17 -5.38333e-07)
(-2.57582e-06 -2.37456e-05 -1.73152e-16 2.69825e-05 1.06161e-06 1.27217e-14 4.63332e-13 6.66463e-13 -2.48327e-07)
(4.14247e-06 -2.33725e-05 6.11403e-17 2.56222e-05 -1.43012e-06 -3.96533e-14 4.39997e-13 1.10691e-14 -3.03408e-07)
(-1.26391e-05 -1.73763e-06 9.63202e-18 1.07135e-06 -4.11123e-06 -1.51599e-13 3.05814e-14 -3.3094e-13 -4.10836e-06)
(-1.51414e-05 -3.30127e-06 -1.49661e-16 2.1344e-06 -1.34406e-06 3.3073e-14 1.19067e-13 1.35801e-14 -1.45881e-06)
(-1.52106e-05 -5.32739e-06 3.0648e-16 3.89461e-06 -1.1566e-06 -3.59101e-14 3.63061e-14 -4.89237e-14 -1.35655e-06)
(-1.53128e-05 -7.37032e-06 1.23226e-16 5.1453e-06 -7.79212e-07 -2.20833e-13 -9.47375e-14 -1.67445e-15 -1.25917e-06)
(-1.53787e-05 -9.28348e-06 -4.73986e-16 6.9533e-06 -4.14875e-07 6.78794e-14 -5.70923e-14 4.59023e-14 -1.05659e-06)
(-1.55112e-05 -1.11791e-05 -3.5878e-17 8.42425e-06 1.8618e-07 2.98525e-13 1.09941e-13 -2.83159e-15 -8.94979e-07)
(-1.55236e-05 -1.28299e-05 1.83887e-16 1.02828e-05 7.18725e-07 2.82414e-14 1.7412e-13 4.25941e-14 -6.04816e-07)
(-1.55314e-05 -1.44025e-05 7.63888e-17 1.20957e-05 1.43625e-06 -1.35093e-13 2.53183e-13 -5.7007e-14 -3.86502e-07)
(-1.52399e-05 -1.56199e-05 -4.43184e-18 1.40541e-05 1.98869e-06 -2.36142e-15 2.35975e-13 -1.37528e-13 -4.02911e-08)
(-1.47927e-05 -1.67228e-05 1.8778e-17 1.60869e-05 2.60832e-06 -6.65064e-14 7.18867e-14 8.94294e-16 1.99448e-07)
(-1.39115e-05 -1.73333e-05 1.19091e-16 1.80471e-05 2.9911e-06 4.05193e-14 -3.44907e-14 2.68917e-13 5.48735e-07)
(-1.26024e-05 -1.7781e-05 -2.56699e-16 2.00461e-05 3.22473e-06 2.62743e-13 -1.41199e-13 5.32884e-14 7.62898e-07)
(-1.05196e-05 -1.76528e-05 -6.20093e-16 2.16093e-05 2.9517e-06 -5.9829e-14 -2.08047e-13 -3.3706e-13 1.04466e-06)
(-7.73301e-06 -1.75574e-05 1.63021e-16 2.256e-05 2.34308e-06 -3.78696e-13 2.40728e-14 1.42472e-15 1.13994e-06)
(-3.98092e-06 -1.69983e-05 8.78966e-16 2.2367e-05 9.69453e-07 -6.46097e-14 5.00129e-13 4.96491e-13 1.26e-06)
(6.17223e-07 -1.72075e-05 -2.41302e-16 1.99593e-05 -7.26757e-07 1.32231e-13 4.57515e-13 -7.07538e-15 1.13776e-06)
(-1.51204e-05 -1.41313e-06 3.64703e-18 1.08726e-06 -1.45493e-06 -5.4138e-14 3.03142e-14 -1.17779e-13 -1.46682e-06)
(-1.73504e-05 -2.59333e-06 6.75476e-17 2.15298e-06 7.53462e-07 -1.49431e-14 1.21295e-13 1.05087e-14 6.58583e-07)
(-1.73572e-05 -4.18325e-06 -1.681e-16 3.9378e-06 9.00335e-07 1.9553e-14 3.60649e-14 2.21523e-14 7.4219e-07)
(-1.73911e-05 -5.74357e-06 -8.12667e-17 5.16434e-06 1.20885e-06 1.43497e-13 -9.32179e-14 -2.78047e-14 8.17841e-07)
(-1.73441e-05 -7.22159e-06 4.41648e-16 6.96396e-06 1.48088e-06 -6.2913e-14 -4.97136e-14 -7.99527e-14 9.83402e-07)
(-1.73333e-05 -8.59758e-06 4.70217e-17 8.37136e-06 1.94881e-06 -3.68159e-13 1.1016e-13 2.11665e-14 1.10349e-06)
(-1.71486e-05 -9.82142e-06 -4.06159e-16 1.01283e-05 2.3071e-06 -6.27556e-14 1.67452e-13 1.64042e-13 1.33392e-06)
(-1.69237e-05 -1.08714e-05 -3.0064e-16 1.1759e-05 2.80896e-06 5.18581e-13 2.6667e-13 -8.92858e-15 1.48441e-06)
(-1.63953e-05 -1.17045e-05 1.89634e-16 1.34403e-05 3.12586e-06 1.05835e-13 2.14205e-13 -2.20038e-13 1.7447e-06)
(-1.56686e-05 -1.23358e-05 1.85163e-16 1.51131e-05 3.45694e-06 -6.31636e-13 7.08491e-14 8.23852e-15 1.89441e-06)
(-1.4514e-05 -1.26801e-05 4.58956e-16 1.65521e-05 3.53668e-06 1.57744e-13 1.79162e-14 3.32197e-13 2.13318e-06)
(-1.29259e-05 -1.28392e-05 -7.64897e-16 1.78783e-05 3.4379e-06 7.70388e-13 -1.73394e-13 2.32698e-14 2.23688e-06)
(-1.07166e-05 -1.26997e-05 -1.41958e-15 1.86122e-05 2.92947e-06 -1.36961e-13 -2.47785e-13 -3.38952e-13 2.39054e-06)
(-7.88822e-06 -1.25912e-05 3.48535e-16 1.86921e-05 2.11847e-06 -7.89643e-13 2.1785e-14 2.20026e-15 2.37689e-06)
(-4.4344e-06 -1.22829e-05 1.66014e-15 1.76292e-05 7.83585e-07 -1.2194e-13 5.02501e-13 4.26788e-13 2.37821e-06)
(-4.4324e-07 -1.24599e-05 -4.70861e-16 1.50065e-05 -6.99811e-07 2.4908e-13 3.95608e-13 -4.1932e-15 2.18469e-06)
(-1.73396e-05 -1.11191e-06 -1.69887e-18 1.09574e-06 6.62942e-07 2.39829e-14 3.36537e-14 5.27283e-14 6.49982e-07)
(-1.86323e-05 -1.95556e-06 2.34698e-16 2.13012e-06 2.36362e-06 -5.18836e-14 1.19289e-13 7.8037e-15 2.28782e-06)
(-1.85765e-05 -3.14832e-06 -5.34339e-16 3.90625e-06 2.46185e-06 6.21737e-14 3.41201e-14 7.79807e-14 2.35426e-06)
(-1.854e-05 -4.29679e-06 -2.41552e-16 5.08372e-06 2.70272e-06 4.21621e-13 -8.9659e-14 -4.74063e-14 2.40321e-06)
(-1.83813e-05 -5.38059e-06 1.13952e-15 6.83557e-06 2.87258e-06 -1.62374e-13 -3.94296e-14 -1.81845e-13 2.53452e-06)
(-1.8237e-05 -6.34164e-06 1.15933e-16 8.1481e-06 3.21327e-06 -8.69826e-13 1.08067e-13 3.83479e-14 2.6072e-06)
(-1.7888e-05 -7.19707e-06 -8.48573e-16 9.76743e-06 3.40645e-06 -1.30755e-13 1.5478e-13 2.60748e-13 2.78293e-06)
(-1.74764e-05 -7.86516e-06 -5.90346e-16 1.12019e-05 3.71556e-06 1.00079e-12 2.74263e-13 2.31896e-14 2.86438e-06)
(-1.67687e-05 -8.3934e-06 3.29507e-16 1.26047e-05 3.82226e-06 1.84879e-13 1.96272e-13 -2.94295e-13 3.04854e-06)
(-1.58576e-05 -8.715e-06 3.12078e-16 1.39494e-05 3.91404e-06 -1.03772e-12 6.83358e-14 1.25801e-14 3.11226e-06)
(-1.45791e-05 -8.86913e-06 6.96904e-16 1.49539e-05 3.77333e-06 2.40937e-13 4.83609e-14 3.79469e-13 3.25737e-06)
(-1.29308e-05 -8.87086e-06 -1.12942e-15 1.57838e-05 3.45537e-06 1.12514e-12 -1.89365e-13 7.71926e-15 3.26679e-06)
(-1.08495e-05 -8.72897e-06 -1.97403e-15 1.596e-05 2.85347e-06 -1.90359e-13 -2.56901e-13 -3.28603e-13 3.32229e-06)
(-8.32849e-06 -8.65239e-06 4.81672e-16 1.55209e-05 2.01107e-06 -1.07334e-12 1.93721e-14 2.5153e-15 3.23074e-06)
(-5.4829e-06 -8.53118e-06 2.20624e-15 1.40311e-05 9.07144e-07 -1.61927e-13 4.68062e-13 3.48133e-13 3.15809e-06)
(-2.38097e-06 -8.85959e-06 -6.38361e-16 1.13114e-05 -2.36573e-07 3.35433e-13 3.56397e-13 -6.3317e-15 2.93955e-06)
(-1.86351e-05 -8.3927e-07 -6.14534e-18 1.09186e-06 2.29152e-06 8.41878e-14 3.37191e-14 1.8401e-13 2.2809e-06)
(-1.94172e-05 -1.39831e-06 3.5756e-16 2.07011e-06 3.54274e-06 -7.90058e-14 1.13764e-13 5.51714e-15 3.48426e-06)
(-1.93116e-05 -2.24567e-06 -8.0381e-16 3.81342e-06 3.59336e-06 9.34214e-14 2.94826e-14 1.19671e-13 3.53557e-06)
(-1.92177e-05 -3.04642e-06 -3.6051e-16 4.91733e-06 3.7737e-06 6.2425e-13 -8.45077e-14 -6.13727e-14 3.55809e-06)
(-1.89695e-05 -3.79658e-06 1.64704e-15 6.59466e-06 3.84779e-06 -2.34521e-13 -2.31742e-14 -2.59479e-13 3.65954e-06)
(-1.87258e-05 -4.42856e-06 1.68584e-16 7.78792e-06 4.0805e-06 -1.23013e-12 1.04406e-13 5.01046e-14 3.68707e-06)
(-1.82557e-05 -4.99126e-06 -1.16526e-15 9.24764e-06 4.13276e-06 -1.79266e-13 1.32143e-13 3.33724e-13 3.81681e-06)
(-1.77198e-05 -5.38122e-06 -7.99887e-16 1.04829e-05 4.29071e-06 1.34055e-12 2.78101e-13 4.28924e-14 3.83657e-06)
(-1.69005e-05 -5.69484e-06 4.26831e-16 1.16092e-05 4.23789e-06 2.40145e-13 1.85935e-13 -3.5376e-13 3.95997e-06)
(-1.58909e-05 -5.82845e-06 4.02722e-16 1.26517e-05 4.16232e-06 -1.3179e-12 6.50399e-14 1.49233e-14 3.9524e-06)
(-1.4572e-05 -5.88857e-06 8.59058e-16 1.32678e-05 3.88651e-06 2.97966e-13 6.62314e-14 4.12749e-13 4.02783e-06)
(-1.29388e-05 -5.83726e-06 -1.38096e-15 1.3699e-05 3.44488e-06 1.36636e-12 -1.96292e-13 1.50509e-15 3.96699e-06)
(-1.1007e-05 -5.74751e-06 -2.35218e-15 1.3451e-05 2.82491e-06 -2.26679e-13 -2.5301e-13 -3.18596e-13 3.95608e-06)
(-8.74717e-06 -5.73114e-06 5.74529e-16 1.26736e-05 2.00119e-06 -1.26711e-12 1.69724e-14 2.68898e-15 3.81385e-06)
(-6.34413e-06 -5.73894e-06 2.58472e-15 1.09642e-05 1.08079e-06 -1.89551e-13 4.2266e-13 2.97167e-13 3.69683e-06)
(-3.81947e-06 -6.08212e-06 -7.57448e-16 8.33664e-06 1.4604e-07 3.94148e-13 3.10476e-13 -4.72751e-15 3.4663e-06)
(-1.94335e-05 -6.00734e-07 -9.5854e-18 1.07321e-06 3.48657e-06 1.28484e-13 3.40424e-14 2.80493e-13 3.48048e-06)
(-1.96573e-05 -9.2525e-07 4.42395e-16 1.98077e-06 4.35244e-06 -9.76903e-14 1.07732e-13 3.65741e-15 4.3087e-06)
(-1.95144e-05 -1.48161e-06 -9.89652e-16 3.67101e-06 4.36116e-06 1.14906e-13 2.45956e-14 1.48872e-13 4.34728e-06)
(-1.93785e-05 -1.99434e-06 -4.426e-16 4.68518e-06 4.4912e-06 7.62588e-13 -7.72594e-14 -7.06297e-14 4.34638e-06)
(-1.90651e-05 -2.47189e-06 1.9927e-15 6.27031e-06 4.48319e-06 -2.83505e-13 -3.47328e-15 -3.14955e-13 4.42327e-06)
(-1.87565e-05 -2.84412e-06 2.04932e-16 7.33484e-06 4.63122e-06 -1.47192e-12 9.97056e-14 5.75464e-14 4.41166e-06)
(-1.82097e-05 -3.18123e-06 -1.37688e-15 8.62904e-06 4.57146e-06 -2.11559e-13 1.0408e-13 3.8557e-13 4.50519e-06)
(-1.76073e-05 -3.36745e-06 -9.3902e-16 9.67744e-06 4.61889e-06 1.56333e-12 2.78078e-13 5.34231e-14 4.4739e-06)
(-1.67401e-05 -3.53154e-06 4.90396e-16 1.05516e-05 4.45235e-06 2.76044e-13 1.81756e-13 -3.98935e-13 4.55179e-06)
(-1.57106e-05 -3.54439e-06 4.61382e-16 1.13419e-05 4.2677e-06 -1.49679e-12 6.09733e-14 1.58931e-14 4.48877e-06)
(-1.44337e-05 -3.55483e-06 9.61915e-16 1.16462e-05 3.92045e-06 3.34071e-13 7.16187e-14 4.34479e-13 4.51541e-06)
(-1.29044e-05 -3.48474e-06 -1.53951e-15 1.17896e-05 3.42344e-06 1.51744e-12 -1.95273e-13 1.18314e-15 4.4054e-06)
(-1.1189e-05 -3.44619e-06 -2.5901e-15 1.12577e-05 2.8413e-06 -2.49433e-13 -2.3904e-13 -3.07202e-13 4.35318e-06)
(-9.24162e-06 -3.48271e-06 6.33897e-16 1.0289e-05 2.08028e-06 -1.38973e-12 1.46333e-14 2.77274e-15 4.18278e-06)
(-7.26987e-06 -3.58465e-06 2.83075e-15 8.50769e-06 1.3493e-06 -2.07424e-13 3.7369e-13 2.56556e-13 4.04535e-06)
(-5.26384e-06 -3.95616e-06 -8.38105e-16 6.02605e-06 6.00291e-07 4.33365e-13 2.7099e-13 -3.30517e-15 3.81969e-06)
(-1.96846e-05 -3.97993e-07 -1.20241e-17 1.04097e-06 4.30952e-06 1.59064e-13 3.1112e-14 3.47027e-13 4.30826e-06)
(-1.95184e-05 -5.32948e-07 4.95399e-16 1.87081e-06 4.85459e-06 -1.09313e-13 1.00488e-13 2.33056e-15 4.82174e-06)
(-1.93528e-05 -8.49892e-07 -1.1054e-15 3.49776e-06 4.82895e-06 1.2825e-13 1.80973e-14 1.6761e-13 4.8509e-06)
(-1.91936e-05 -1.12885e-06 -4.93144e-16 4.41027e-06 4.92239e-06 8.47556e-13 -6.88984e-14 -7.62349e-14 4.8304e-06)
(-1.88423e-05 -1.38927e-06 2.20483e-15 5.89721e-06 4.84917e-06 -3.13422e-13 2.14858e-14 -3.52321e-13 4.88964e-06)
(-1.85045e-05 -1.5597e-06 2.26602e-16 6.83067e-06 4.93905e-06 -1.61692e-12 9.43947e-14 6.1616e-14 4.84609e-06)
(-1.79234e-05 -1.72808e-06 -1.50344e-15 7.96334e-06 4.79754e-06 -2.30769e-13 6.90995e-14 4.21265e-13 4.91479e-06)
(-1.73057e-05 -1.76729e-06 -1.01978e-15 8.84365e-06 4.77492e-06 1.69271e-12 2.76694e-13 5.6388e-14 4.84389e-06)
(-1.64443e-05 -1.83302e-06 5.27763e-16 9.49116e-06 4.53837e-06 2.96714e-13 1.86463e-13 -4.33688e-13 4.89234e-06)
(-1.54515e-05 -1.77234e-06 4.94091e-16 1.00765e-05 4.29523e-06 -1.59716e-12 5.6736e-14 1.58889e-14 4.7896e-06)
(-1.4266e-05 -1.76655e-06 1.02008e-15 1.01276e-05 3.9263e-06 3.54221e-13 6.79235e-14 4.50068e-13 4.78734e-06)
(-1.2877e-05 -1.69967e-06 -1.62678e-15 1.00644e-05 3.41995e-06 1.60069e-12 -1.89666e-13 4.84867e-15 4.64686e-06)
(-1.13856e-05 -1.71277e-06 -2.72358e-15 9.34017e-06 2.90427e-06 -2.62099e-13 -2.20642e-13 -2.98331e-13 4.57424e-06)
(-9.72385e-06 -1.79079e-06 6.67613e-16 8.273e-06 2.21651e-06 -1.4595e-12 1.25753e-14 2.8196e-15 4.39262e-06)
(-8.11156e-06 -1.95388e-06 2.9773e-15 6.50313e-06 1.64822e-06 -2.17983e-13 3.26478e-13 2.28379e-13 4.25124e-06)
(-6.50808e-06 -2.32273e-06 -8.88797e-16 4.20399e-06 1.03455e-06 4.57019e-13 2.34736e-13 -1.01989e-15 4.03914e-06)
(-1.95529e-05 -2.29739e-07 -1.35469e-17 9.99596e-07 4.82112e-06 1.78154e-13 3.18196e-14 3.88484e-13 4.82465e-06)
(-1.90559e-05 -2.1432e-07 5.22256e-16 1.75136e-06 5.10502e-06 -1.15142e-13 9.27837e-14 1.49056e-15 5.07927e-06)
(-1.88815e-05 -3.38299e-07 -1.16352e-15 3.31029e-06 5.05386e-06 1.34921e-13 1.23087e-14 1.77595e-13 5.10214e-06)
(-1.87175e-05 -4.30664e-07 -5.17642e-16 4.11819e-06 5.12455e-06 8.8906e-13 -6.04036e-14 -7.89422e-14 5.06666e-06)
(-1.83535e-05 -5.21493e-07 2.30844e-15 5.50756e-06 5.00393e-06 -3.27881e-13 4.8194e-14 -3.74407e-13 5.11494e-06)
(-1.80193e-05 -5.36315e-07 2.36076e-16 6.31698e-06 5.06092e-06 -1.68412e-12 8.90303e-14 6.30965e-14 5.04733e-06)
(-1.74411e-05 -5.80739e-07 -1.5619e-15 7.29922e-06 4.86571e-06 -2.39538e-13 3.19688e-14 4.43819e-13 5.10187e-06)
(-1.6852e-05 -5.13084e-07 -1.05375e-15 8.03608e-06 4.80825e-06 1.74827e-12 2.73845e-13 5.37323e-14 5.00261e-06)
(-1.60399e-05 -5.15392e-07 5.44594e-16 8.48738e-06 4.53767e-06 3.05441e-13 1.94847e-13 -4.59984e-13 5.03586e-06)
(-1.5129e-05 -4.0784e-07 5.06274e-16 8.91407e-06 4.27548e-06 -1.63653e-12 5.2645e-14 1.52197e-14 4.90748e-06)
(-1.4073e-05 -4.01754e-07 1.04386e-15 8.76728e-06 3.9208e-06 3.62056e-13 6.09639e-14 4.61587e-13 4.89286e-06)
(-1.28534e-05 -3.43356e-07 -1.65882e-15 8.5627e-06 3.43655e-06 1.63187e-12 -1.80871e-13 1.10946e-14 4.73716e-06)
(-1.15944e-05 -4.00192e-07 -2.77695e-15 7.71714e-06 3.00513e-06 -2.67033e-13 -2.01864e-13 -2.91706e-13 4.66042e-06)
(-1.02059e-05 -5.08055e-07 6.81299e-16 6.61054e-06 2.39593e-06 -1.48879e-12 1.07398e-14 2.84425e-15 4.48064e-06)
(-8.90955e-06 -7.13132e-07 3.04737e-15 4.89981e-06 1.97287e-06 -2.22934e-13 2.84343e-13 2.08393e-13 4.34774e-06)
(-7.64087e-06 -1.07611e-06 -9.16231e-16 2.78437e-06 1.46612e-06 4.69062e-13 2.03414e-13 1.38281e-15 4.15634e-06)
(-1.90937e-05 -9.3004e-08 -1.42863e-17 9.53008e-07 5.07747e-06 1.87797e-13 2.91204e-14 4.0935e-13 5.08513e-06)
(-1.83574e-05 4.01613e-08 5.28086e-16 1.63104e-06 5.15459e-06 -1.16322e-13 8.38077e-14 1.16826e-15 5.13175e-06)
(-1.81868e-05 6.91902e-08 -1.17551e-15 3.12719e-06 5.08587e-06 1.36259e-13 5.04417e-15 1.80655e-13 5.15179e-06)
(-1.80353e-05 1.2366e-07 -5.21327e-16 3.83069e-06 5.14813e-06 8.95884e-13 -5.16743e-14 -7.95363e-14 5.10525e-06)
(-1.76812e-05 1.63283e-07 2.32607e-15 5.13223e-06 4.99596e-06 -3.30116e-13 7.83152e-14 -3.8517e-13 5.14966e-06)
(-1.73791e-05 2.67398e-07 2.35921e-16 5.82823e-06 5.04392e-06 -1.68997e-12 8.37479e-14 6.25839e-14 5.0647e-06)
(-1.68352e-05 3.12509e-07 -1.56719e-15 6.67616e-06 4.81912e-06 -2.40174e-13 -8.56653e-15 4.57654e-13 5.11561e-06)
(-1.6309e-05 4.5769e-07 -1.05126e-15 7.29594e-06 4.75702e-06 1.74655e-12 2.71933e-13 4.61867e-14 4.99743e-06)
(-1.55802e-05 4.94423e-07 5.45581e-16 7.57854e-06 4.48178e-06 3.05027e-13 2.09127e-13 -4.82227e-13 5.0286e-06)
(-1.47812e-05 6.31691e-07 5.02667e-16 7.88817e-06 4.23057e-06 -1.62943e-12 4.89241e-14 1.40271e-14 4.88604e-06)
(-1.38783e-05 6.29039e-07 1.04174e-15 7.58446e-06 3.91639e-06 3.60626e-13 5.15041e-14 4.72733e-13 4.87319e-06)
(-1.28383e-05 6.7752e-07 -1.64913e-15 7.28742e-06 3.47355e-06 1.624e-12 -1.70477e-13 1.94263e-14 4.71409e-06)
(-1.18068e-05 5.84402e-07 -2.77044e-15 6.36565e-06 3.13543e-06 -2.66204e-13 -1.84972e-13 -2.88447e-13 4.64601e-06)
(-1.06656e-05 4.56551e-07 6.79931e-16 5.25423e-06 2.60158e-06 -1.48778e-12 9.04228e-15 2.85049e-15 4.47747e-06)
(-9.64052e-06 2.24492e-07 3.0597e-15 3.62381e-06 2.30509e-06 -2.23661e-13 2.48722e-13 1.95455e-13 4.36185e-06)
(-8.64311e-06 -1.25964e-07 -9.25864e-16 1.67919e-06 1.87784e-06 4.72199e-13 1.76537e-13 3.9633e-15 4.1955e-06)
(-1.83945e-05 1.62509e-08 -1.43961e-17 9.06695e-07 5.12898e-06 1.89859e-13 2.64286e-14 4.13695e-13 5.14031e-06)
(-1.74741e-05 2.40447e-07 5.17172e-16 1.51961e-06 5.04478e-06 -1.13812e-13 7.53529e-14 1.26497e-15 5.02135e-06)
(-1.73182e-05 3.89109e-07 -1.15084e-15 2.96239e-06 4.96628e-06 1.33361e-13 -2.04982e-15 1.7809e-13 5.04136e-06)
(-1.71946e-05 5.5789e-07 -5.08622e-16 3.56908e-06 5.03259e-06 8.75321e-13 -4.36235e-14 -7.84763e-14 4.98777e-06)
(-1.68694e-05 6.96464e-07 2.27577e-15 4.79561e-06 4.86334e-06 -3.22725e-13 1.09302e-13 -3.86593e-13 5.03427e-06)
(-1.66239e-05 8.91505e-07 2.28281e-16 5.39477e-06 4.92264e-06 -1.64786e-12 7.94165e-14 6.0576e-14 4.93832e-06)
(-1.6139e-05 1.00009e-06 -1.53105e-15 6.12604e-06 4.68862e-06 -2.34482e-13 -4.76214e-14 4.64461e-13 4.99444e-06)
(-1.57037e-05 1.2028e-06 -1.02075e-15 6.6564e-06 4.64644e-06 1.7006e-12 2.70209e-13 3.51111e-14 4.86569e-06)
(-1.50833e-05 1.26202e-06 5.34241e-16 6.79621e-06 4.38944e-06 2.97589e-13 2.22648e-13 -5.01093e-13 4.90552e-06)
(-1.44189e-05 1.41996e-06 4.87199e-16 7.02415e-06 4.17189e-06 -1.58691e-12 4.53061e-14 1.24824e-14 4.75837e-06)
(-1.36848e-05 1.40446e-06 1.01974e-15 6.59726e-06 3.9167e-06 3.52156e-13 4.60262e-14 4.8375e-13 4.75844e-06)
(-1.28303e-05 1.44522e-06 -1.60824e-15 6.2415e-06 3.528e-06 1.58659e-12 -1.58993e-13 2.90863e-14 4.60526e-06)
(-1.20202e-05 1.32252e-06 -2.71849e-15 5.27448e-06 3.28772e-06 -2.61015e-13 -1.73799e-13 -2.87851e-13 4.55553e-06)
(-1.11059e-05 1.18185e-06 6.67386e-16 4.17269e-06 2.82514e-06 -1.46385e-12 7.75608e-15 2.84488e-15 4.40528e-06)
(-1.03175e-05 9.31362e-07 3.02808e-15 2.62802e-06 2.64039e-06 -2.21179e-13 2.21105e-13 1.87655e-13 4.31337e-06)
(-9.54489e-06 5.93402e-07 -9.21908e-16 8.27382e-07 2.27314e-06 4.68611e-13 1.54447e-13 6.56886e-15 4.17525e-06)
(-1.7507e-05 1.02271e-07 -1.40138e-17 8.64347e-07 5.01792e-06 1.85887e-13 2.36686e-14 4.04906e-13 5.03214e-06)
(-1.64542e-05 3.96227e-07 4.93184e-16 1.42349e-06 4.81169e-06 -1.08428e-13 6.87583e-14 1.7764e-15 4.78418e-06)
(-1.6322e-05 6.3737e-07 -1.09774e-15 2.83086e-06 4.72933e-06 1.27181e-13 -9.77899e-15 1.71284e-13 4.80699e-06)
(-1.62397e-05 8.9446e-07 -4.83324e-16 3.34943e-06 4.81156e-06 8.33503e-13 -3.556e-14 -7.62918e-14 4.7492e-06)
(-1.59584e-05 1.1073e-06 2.17319e-15 4.52059e-06 4.63617e-06 -3.07943e-13 1.42759e-13 -3.81857e-13 4.80367e-06)
(-1.57895e-05 1.37196e-06 2.15162e-16 5.04024e-06 4.72495e-06 -1.5688e-12 7.58686e-14 5.74124e-14 4.70121e-06)
(-1.53835e-05 1.52496e-06 -1.46338e-15 5.67483e-06 4.49727e-06 -2.23986e-13 -8.77907e-14 4.67735e-13 4.77087e-06)
(-1.50599e-05 1.77112e-06 -9.69419e-16 6.14274e-06 4.49504e-06 1.62093e-12 2.7091e-13 2.059e-14 4.63752e-06)
(-1.45675e-05 1.84214e-06 5.13471e-16 6.16158e-06 4.27381e-06 2.84882e-13 2.39592e-13 -5.2047e-13 4.69558e-06)
(-1.40519e-05 2.01538e-06 4.63239e-16 6.33906e-06 4.1063e-06 -1.51771e-12 4.25614e-14 1.05992e-14 4.5507e-06)
(-1.34974e-05 1.98582e-06 9.82756e-16 5.81169e-06 3.92385e-06 3.38455e-13 4.31303e-14 4.97402e-13 4.57303e-06)
(-1.28281e-05 2.02115e-06 -1.54457e-15 5.42184e-06 3.59625e-06 1.52713e-12 -1.47747e-13 4.02293e-14 4.43243e-06)
(-1.22326e-05 1.8745e-06 -2.63279e-15 4.42506e-06 3.45676e-06 -2.52594e-13 -1.68141e-13 -2.90504e-13 4.40867e-06)
(-1.15247e-05 1.7256e-06 6.46596e-16 3.3358e-06 3.05937e-06 -1.42281e-12 6.52353e-15 2.82199e-15 4.28163e-06)
(-1.09454e-05 1.46217e-06 2.96355e-15 1.86883e-06 2.97499e-06 -2.16301e-13 2.01437e-13 1.84104e-13 4.21817e-06)
(-1.03599e-05 1.1353e-06 -9.07697e-16 1.78368e-07 2.65134e-06 4.59979e-13 1.36814e-13 9.16722e-15 4.11032e-06)
(-1.64797e-05 1.69194e-07 -1.32605e-17 8.30711e-07 4.78029e-06 1.77223e-13 2.42391e-14 3.859e-13 4.79697e-06)
(-1.53271e-05 5.15893e-07 4.58985e-16 1.34979e-06 4.48263e-06 -1.00812e-13 6.3334e-14 2.59321e-15 4.44842e-06)
(-1.52258e-05 8.27725e-07 -1.02251e-15 2.74214e-06 4.40178e-06 1.18445e-13 -1.64846e-14 1.61088e-13 4.47613e-06)
(-1.5196e-05 1.15261e-06 -4.48482e-16 3.18685e-06 4.50938e-06 7.75219e-13 -2.88148e-14 -7.3216e-14 4.41683e-06)
(-1.49707e-05 1.4204e-06 2.03003e-15 4.32276e-06 4.33718e-06 -2.87436e-13 1.76257e-13 -3.72001e-13 4.48382e-06)
(-1.48949e-05 1.73903e-06 1.98251e-16 4.78456e-06 4.46981e-06 -1.46129e-12 7.36497e-14 5.33891e-14 4.37888e-06)
(-1.45829e-05 1.92206e-06 -1.37139e-15 5.34122e-06 4.26109e-06 -2.09796e-13 -1.2388e-13 4.67931e-13 4.46853e-06)
(-1.43879e-05 2.20279e-06 -9.02752e-16 5.77409e-06 4.31432e-06 1.5155e-12 2.73136e-13 3.66552e-15 4.33568e-06)
(-1.40376e-05 2.27802e-06 4.85285e-16 5.69072e-06 4.14233e-06 2.68149e-13 2.52004e-13 -5.39635e-13 4.4193e-06)
(-1.36822e-05 2.46473e-06 4.33098e-16 5.84372e-06 4.03709e-06 -1.42826e-12 4.0542e-14 8.49358e-15 4.28234e-06)
(-1.33145e-05 2.42047e-06 9.3418e-16 5.23339e-06 3.9373e-06 3.20781e-13 4.94554e-14 5.12546e-13 4.33399e-06)
(-1.28304e-05 2.45342e-06 -1.46377e-15 4.82366e-06 3.67564e-06 1.45099e-12 -1.36146e-13 5.22652e-14 4.21124e-06)
(-1.24437e-05 2.28638e-06 -2.52151e-15 3.80568e-06 3.6385e-06 -2.41726e-13 -1.71602e-13 -2.95296e-13 4.2191e-06)
(-1.19278e-05 2.13201e-06 6.19552e-16 2.71985e-06 3.3018e-06 -1.36884e-12 5.7205e-15 2.78971e-15 4.1191e-06)
(-1.15368e-05 1.85778e-06 2.87401e-15 1.31668e-06 3.30904e-06 -2.09609e-13 1.91012e-13 1.83508e-13 4.08759e-06)
(-1.11115e-05 1.53825e-06 -8.85732e-16 -3.05352e-07 3.01753e-06 4.47533e-13 1.23657e-13 1.17641e-14 4.01164e-06)
(-1.53426e-05 2.20619e-07 -1.2235e-17 8.0842e-07 4.44432e-06 1.649e-13 2.46144e-14 3.5894e-13 4.46286e-06)
(-1.4116e-05 6.06314e-07 4.17025e-16 1.30256e-06 4.08148e-06 -9.15075e-14 5.91294e-14 3.70243e-15 4.03809e-06)
(-1.40509e-05 9.71294e-07 -9.30641e-16 2.7072e-06 4.00543e-06 1.07785e-13 -2.43367e-14 1.4848e-13 4.07272e-06)
(-1.40834e-05 1.34783e-06 -4.06529e-16 3.09184e-06 4.14727e-06 7.04451e-13 -2.31266e-14 -6.96081e-14 4.01337e-06)
(-1.39228e-05 1.65551e-06 1.85646e-15 4.21796e-06 3.98385e-06 -2.62658e-13 2.12127e-13 -3.59548e-13 4.09737e-06)
(-1.39536e-05 2.01637e-06 1.78644e-16 4.64283e-06 4.17317e-06 -1.33224e-12 7.32249e-14 4.86791e-14 3.99202e-06)
(-1.37473e-05 2.21903e-06 -1.26138e-15 5.14197e-06 3.99169e-06 -1.9287e-13 -1.59466e-13 4.68e-13 4.10785e-06)
(-1.36938e-05 2.52818e-06 -8.24719e-16 5.56594e-06 4.11309e-06 1.39063e-12 2.79271e-13 -1.60792e-14 3.97825e-06)
(-1.34974e-05 2.60302e-06 4.51508e-16 5.39609e-06 4.00016e-06 2.48452e-13 2.64817e-13 -5.62405e-13 4.09421e-06)
(-1.33097e-05 2.80229e-06 3.98415e-16 5.54807e-06 3.96589e-06 -1.32362e-12 3.91079e-14 6.10433e-15 3.96847e-06)
(-1.3136e-05 2.74396e-06 8.76988e-16 4.86494e-06 3.95704e-06 3.00193e-13 6.1881e-14 5.31944e-13 4.05564e-06)
(-1.28358e-05 2.77658e-06 -1.37029e-15 4.44535e-06 3.76335e-06 1.36244e-12 -1.25434e-13 6.57391e-14 3.95405e-06)
(-1.2656e-05 2.59201e-06 -2.39137e-15 3.40524e-06 3.8315e-06 -2.29068e-13 -1.82612e-13 -3.02985e-13 3.99827e-06)
(-1.23205e-05 2.43294e-06 5.87998e-16 2.30901e-06 3.55057e-06 -1.30536e-12 5.11526e-15 2.73955e-15 3.92792e-06)
(-1.21049e-05 2.1484e-06 2.76613e-15 9.47639e-07 3.64491e-06 -2.01592e-13 1.89516e-13 1.85426e-13 3.93117e-06)
(-1.18206e-05 1.83114e-06 -8.58164e-16 -6.5032e-07 3.37629e-06 4.32318e-13 1.14933e-13 1.43412e-14 3.88838e-06)
(-1.41192e-05 2.59482e-07 -1.10173e-17 8.01152e-07 4.03392e-06 1.49812e-13 2.47397e-14 3.25968e-13 4.05402e-06)
(-1.28324e-05 6.72414e-07 3.69173e-16 1.28628e-06 3.6257e-06 -8.09284e-14 5.6433e-14 5.00622e-15 3.57144e-06)
(-1.28075e-05 1.07615e-06 -8.26135e-16 2.73177e-06 3.55714e-06 9.5666e-14 -3.1743e-14 1.33992e-13 3.61433e-06)