/*--------------------------------*- C++ -*----------------------------------*\
| =========                 |                                                 |
| \\      /  F ield         | OpenFOAM: The Open Source CFD Toolbox           |
|  \\    /   O peration     | Version:  4.1                                   |
|   \\  /    A nd           | Web:      www.OpenFOAM.org                      |
|    \\/     M anipulation  |                                                 |
\*---------------------------------------------------------------------------*/
FoamFile
{
    version     2.0;
    format      ascii;
    class       volScalarField;
    location    "0.000040";
    object      p;
}
// * * * * * * * * * * * * * * * * * * * * * * * * * * * * * * * * * * * * * //

dimensions      [0 2 -2 0 0 0 0];

internalField   nonuniform List<scalar> 
3072
(
781.31691
806.92527
831.85529
856.18343
879.95937
903.19936
925.97072
948.35559
970.43055
992.27222
1013.9589
1035.571
1057.1903
1078.901
1100.7892
1122.9445
1145.4586
1168.4178
1191.8909
1215.9009
1240.5306
1265.604
1291.6051
1318.6784
781.26945
806.90731
831.86473
856.21141
880.00281
903.26447
926.05737
948.46106
970.55221
992.40743
1014.1048
1035.7245
1057.3489
1079.0615
1100.9478
1123.0962
1145.5979
1168.5392
1191.9893
1215.9807
1240.5614
1265.5847
1291.5844
1318.731
781.25791
806.91856
831.8984
856.2593
880.06005
903.33664
926.1449
948.56166
970.6631
992.52602
1014.2287
1035.8516
1057.4765
1079.1872
1101.068
1123.2067
1145.6943
1168.6168
1192.0441
1216.0207
1240.5689
1265.5748
1291.5994
1318.7784
781.27493
806.9615
831.9555
856.32539
880.1299
903.41427
926.2317
948.65548
970.76103
992.62582
1014.3285
1035.9494
1057.5706
1079.2755
1101.1482
1123.2756
1145.7483
1168.6529
1192.0605
1216.0204
1240.5538
1265.5573
1291.5987
1318.8073
781.33367
807.02615
832.03601
856.41213
880.21198
903.49544
926.31534
948.73958
970.84313
992.70432
1014.4017
1036.0156
1057.6289
1079.3252
1101.1881
1123.3037
1145.7622
1168.6508
1192.0427
1215.9904
1240.5172
1265.5318
1291.585
1318.8141
781.43273
807.12525
832.13287
856.50862
880.30802
903.58279
926.39665
948.81451
970.90925
992.76138
1014.4482
1036.0499
1057.651
1079.336
1101.1876
1123.2914
1145.7362
1168.6111
1191.9901
1215.9304
1240.4556
1265.4871
1291.5523
1318.7965
781.56997
807.25745
832.25802
856.62374
880.41051
903.67768
926.48182
948.88542
970.96213
992.7991
1014.4689
1036.0522
1057.6368
1079.3067
1101.1457
1123.2379
1145.672
1168.5341
1191.9014
1215.8384
1240.3658
1265.4015
1291.4978
1318.7616
781.74018
807.41827
832.40876
856.76126
880.53207
903.7821
926.57093
948.95409
971.01064
992.82172
1014.4614
1036.0233
1057.5877
1079.2391
1101.0607
1123.1378
1145.5593
1168.4101
1191.7705
1215.713
1240.2591
1265.3293
1291.466
1318.7303
781.26962
806.90506
831.86165
856.20827
879.99964
903.26123
926.05433
948.45807
970.54918
992.40404
1014.1004
1035.7192
1057.344
1079.0587
1100.9476
1123.0989
1145.6028
1168.5448
1191.9938
1215.9807
1240.5628
1265.5878
1291.5865
1318.7324
781.21403
806.87482
831.85541
856.21938
880.02457
903.30538
926.11982
948.54385
970.65353
992.52471
1014.2344
1035.8634
1057.4955
1079.2141
1101.1025
1123.2477
1145.7397
1168.6635
1192.0871
1216.0463
1240.597
1265.5732
1291.5766
1318.7291
781.18282
806.86613
831.8674
856.24646
880.06155
903.35585
926.18531
948.62292
970.74388
992.62434
1014.3417
1035.9763
1057.6111
1079.3294
1101.2138
1123.3506
1145.8299
1168.7371
1192.1412
1216.0838
1240.6053
1265.562
1291.5924
1318.7662
781.18707
806.88672
831.90161
856.29024
880.11022
903.4118
926.24994
948.69486
970.82077
992.70449
1014.424
1036.0594
1057.6929
1079.4076
1101.2858
1123.4131
1145.8797
1168.772
1192.1602
1216.0912
1240.5943
1265.5464
1291.5941
1318.7869
781.23044
806.93605
831.95792
856.35031
880.16938
903.47104
926.31055
948.75597
970.8805
992.76162
1014.4777
1036.1085
1057.7367
1079.4453
1101.3163
1123.4344
1145.8895
1168.7693
1192.1457
1216.069
1240.5645
1265.5269
1291.5825
1318.7928
781.31181
807.01629
832.03598
856.42523
880.23961
903.53509
926.36789
948.80659
970.9228
992.79493
1014.502
1036.123
1057.7416
1079.4414
1101.3042
1123.4139
1145.8594
1168.7294
1192.0976
1216.0183
1240.5143
1265.5013
1291.5576
1318.7864
781.42924
807.12689
832.13822
856.51715
880.31954
903.60322
926.42518
948.85057
970.95178
992.80664
1014.498
1036.1038
1057.7086
1079.3966
1101.2499
1123.3514
1145.7896
1168.652
1192.0152
1215.9383
1240.437
1265.4442
1291.5201
1318.7494
781.57445
807.26025
832.25869
856.62278
880.40889
903.67637
926.4809
948.88495
970.9627
992.79785
1014.4658
1036.0502
1057.6365
1079.3089
1101.1499
1123.2421
1145.6738
1168.5313
1191.8931
1215.8262
1240.3546
1265.4002
1291.5034
1318.7665
781.25809
806.91552
831.893
856.25375
880.05426
903.33051
926.13896
948.55568
970.65695
992.51897
1014.2194
1035.84
1057.4658
1079.181
1101.0678
1123.2125
1145.7043
1168.6279
1192.0527
1216.0253
1240.5732
1265.5801
1291.6029
1318.7813
781.18316
806.86479
831.865
856.2437
880.05857
903.35272
926.1823
948.61992
970.74101
992.62095
1014.3367
1035.9694
1057.6041
1079.3251
1101.2132
1123.3535
1145.8353
1168.7434
1192.1463
1216.0886
1240.6077
1265.564
1291.5932
1318.7673
781.1359
806.83735
831.8558
856.24941
880.07546
903.38211
926.22602
948.67737
970.81054
992.7012
1014.4265
1036.0668
1057.7064
1079.4287
1101.3141
1123.4471
1145.9175
1168.8113
1192.1974
1216.1218
1240.6183
1265.5532
1291.6028
1318.7895
781.12711
806.83963
831.86868
856.27101
880.10308
903.41644
926.26827
948.72701
970.86587
992.76108
1014.4903
1036.1339
1057.7747
1079.4953
1101.3762
1123.5012
1145.9607
1168.8424
1192.216
1216.1288
1240.6116
1265.5415
1291.6032
1318.8027
781.15522
806.87083
831.90285
856.30705
880.13942
903.45272
926.30534
948.76479
970.90302
992.79662
1014.5239
1036.1653
1057.8033
1079.5203
1101.3963
1123.5145
1145.9654
1168.8381
1192.2036
1216.1116
1240.5902
1265.5289
1291.5948
1318.8077
781.21928
806.93131
831.95883
856.35768
880.18357
903.49103
926.33778
948.79063
970.92103
992.80648
1014.5262
1036.1601
1057.7913
1079.5025
1101.3735
1123.4869
1145.9324
1168.7995
1192.1614
1216.0707
1240.5541
1265.5147
1291.5811
1318.8074
781.31778
807.02037
832.03734
856.42451
880.23771
903.5333
926.3672
948.8064
970.92258
992.7935
1014.4996
1036.1209
1057.7412
1079.4437
1101.3087
1123.4182
1145.8608
1168.7255
1192.0878
1216.0041
1240.4967
1265.4936
1291.564
1318.8012
781.44235
807.13146
832.13438
856.50677
880.30455
903.57886
926.39458
948.81355
970.9085
992.75867
1014.4436
1036.0457
1057.6502
1079.3402
1101.1961
1123.3003
1145.7404
1168.6054
1191.9727
1215.9044
1240.4295
1265.4782
1291.5632
1318.8117
781.27402
806.95697
831.94923
856.31775
880.12176
903.40574
926.22317
948.6468
970.75176
992.61475
1014.314
1035.9319
1057.5543
1079.2656
1101.147
1123.2831
1145.7621
1168.669
1192.0736
1216.0288
1240.5604
1265.564
1291.6048
1318.8121
781.18696
806.88417
831.89772
856.28519
880.1046
903.40599
926.24431
948.68911
970.8148
992.69715
1014.4138
1036.0459
1057.6793
1079.3985
1101.2835
1123.4176
1145.8894
1168.7845
1192.1712
1216.0987
1240.5988
1265.5499
1291.5971
1318.789
781.12699
806.83886
831.86713
856.26869
880.1004
903.41388
926.26572
948.72423
970.863
992.75748
1014.4852
1036.1269
1057.767
1079.4896
1101.3739
1123.5025
1145.9653
1168.8492
1192.2225
1216.1337
1240.6144
1265.5429
1291.6046
1318.8038
781.10365
806.82229
831.85895
856.26794
880.10603
903.42571
926.28474
948.75057
970.89579
992.79606
1014.5293
1036.1761
1057.8199
1079.5432
1101.4249
1123.5474
1146.0017
1168.8767
1192.2408
1216.1435
1240.6134
1265.5366
1291.6081
1318.8141
781.11561
806.8353
831.8716
856.28072
880.11879
903.43839
926.29794
948.76416
970.90927
992.80905
1014.5419
1036.1888
1057.8326
1079.5548
1101.434
1123.5524
1146.0011
1168.8706
1192.23
1216.1297
1240.6008
1265.53
1291.6063
1318.8189
781.16169
806.87566
831.90515
856.30723
880.13868
903.45172
926.30506
948.76475
970.90272
992.79557
1014.5224
1036.1642
1057.804
1079.5233
1101.4006
1123.518
1145.9654
1168.833
1192.1925
1216.0965
1240.5769
1265.523
1291.6009
1318.8155
781.24207
806.94426
831.96126
856.34992
880.16656
903.46829
926.30902
948.75523
970.87945
992.75894
1014.4735
1036.1048
1057.7364
1079.4502
1101.3251
1123.4431
1145.8925
1168.7617
1192.1257
1216.0403
1240.5366
1265.5149
1291.5933
1318.8077
781.34796
807.03583
832.03866
856.41107
880.20849
903.49127
926.31224
948.73752
970.84094
992.70012
1014.3953
1036.0096
1057.6277
1079.3315
1101.2008
1123.318
1145.7697
1168.6429
1192.0162
1215.9505
1240.481
1265.5167
1291.5982
1318.8302
781.33137
807.01996
832.02799
856.40236
880.20148
903.48487
926.30503
948.72906
970.83138
992.68972
1014.3831
1035.9942
1057.6089
1079.3119
1101.1848
1123.3108
1145.7773
1168.6698
1192.0595
1216.0015
1240.5252
1265.54
1291.5945
1318.822
781.22947
806.9326
831.95274
856.34334
880.16158
903.4629
926.30316
948.74822
970.87166
992.75033
1014.463
1036.0906
1057.7189
1079.4322
1101.3112
1123.4381
1145.9011
1168.786
1192.1616
1216.0792
1240.5701
1265.5318
1291.5885
1318.7978
781.15453
806.86908
831.90009
856.30297
880.13457
903.44835
926.30089
948.75964
970.89724
992.78929
1014.5144
1036.1532
1057.7903
1079.5096
1101.3904
1123.5148
1145.9722
1168.8502
1192.2161
1216.1202
1240.5952
1265.5319
1291.5991
1318.8111
781.11501
806.83437
831.8704
856.27903
880.11678
903.43639
926.29556
948.76179
970.90666
992.80581
1014.5377
1036.1834
1057.8262
1079.5489
1101.4298
1123.551
1146.0038
1168.8766
1192.2367
1216.1348
1240.604
1265.5318
1291.6095
1318.8206
781.10975
806.8277
831.86171
856.26892
880.10599
903.4253
926.28449
948.75065
970.89599
992.79602
1014.5293
1036.177
1057.8223
1079.5466
1101.428
1123.5485
1145.9995
1168.8696
1192.228
1216.1268
1240.6012
1265.5314
1291.6147
1318.822
781.13866
806.84852
831.87352
856.2722
880.10224
903.41505
926.26743
948.72674
970.86549
992.75975
1014.4884
1036.1331
1057.777
1079.5011
1101.3837
1123.5069
1145.9601
1168.8315
1192.1928
1216.0981
1240.5864
1265.5314
1291.6148
1318.8162
781.20268
806.89795
831.90762
856.29118
880.10818
903.40888
926.24771
948.69343
970.81909
992.70109
1014.4189
1036.055
1057.6932
1079.4145
1101.2979
1123.4257
1145.8847
1168.7609
1192.1295
1216.0481
1240.5554
1265.5304
1291.6087
1318.804
781.29241
806.97478
831.96298
856.32633
880.1274
903.41028
926.22805
948.65255
970.75775
992.62049
1014.3207
1035.9422
1057.5692
1079.2832
1101.1643
1123.295
1145.7602
1168.6439
1192.0248
1215.9667
1240.505
1265.5364
1291.6138
1318.8241
781.42931
807.11788
832.12354
856.49735
880.29572
903.571
926.38521
948.80281
970.89577
992.74436
1014.4273
1036.0267
1057.6291
1079.3198
1101.1811
1123.2958
1145.7503
1168.6311
1192.0089
1215.943
1240.4631
1265.4988
1291.5662
1318.8085
781.30986
807.0117
832.02952
856.4169
880.23033
903.52519
926.35918
948.79711
970.91194
992.78095
1014.4847
1036.1032
1057.7215
1079.425
1101.2952
1123.4144
1145.8699
1168.7474
1192.116
1216.0303
1240.5204
1265.5094
1291.5666
1318.7956
781.21753
806.9283
831.95483
856.35239
880.17767
903.48485
926.33122
948.78305
970.91337
992.79655
1014.514
1036.1457
1057.7756
1079.4878
1101.3632
1123.4837
1145.9382
1168.8134
1192.1769
1216.0816
1240.5618
1265.52
1291.5832
1318.8135
781.15987
806.8735
831.90286
856.30446
880.13535
903.44819
926.3006
948.7593
970.89773
992.79003
1014.5156
1036.1557
1057.7937
1079.5124
1101.3912
1123.5128
1145.967
1168.8411
1192.2026
1216.1047
1240.5841
1265.5279
1291.6066
1318.8191
781.13749
806.84749
831.87263
856.27121
880.10108
903.41359
926.2654
948.72435
970.86353
992.75788
1014.4861
1036.1297
1057.7722
1079.4953
1101.378
1123.5029
1145.9593
1168.8338
1192.1965
1216.1027
1240.5912
1265.5347
1291.6168
1318.8174
781.15075
806.84935
831.86313
856.25224
880.07546
903.38094
926.22506
948.67702
970.81018
992.69993
1014.4248
1036.067
1057.7105
1079.436
1101.3229
1123.4538
1145.9158
1168.7939
1192.162
1216.0772
1240.5827
1265.5401
1291.6185
1318.8065
781.20074
806.88013
831.87557
856.24916
880.06068
903.35336
926.18301
948.62123
970.74184
992.62056
1014.3361
1035.9719
1057.6121
1079.3372
1101.2275
1123.3661
1145.8368
1168.7221
1192.0999
1216.0286
1240.5561
1265.5422
1291.6095
1318.785
781.27768
806.93435
831.90705
856.26213
880.05885
903.33317
926.14128
948.55839
970.65922
992.51999
1014.2202
1035.8438
1057.4752
1079.1954
1101.0861
1123.2301
1145.7097
1168.6059
1191.9997
1215.9531
1240.5083
1265.5487
1291.6155
1318.796
781.56608
807.24959
832.24801
856.6121
880.39785
903.66391
926.46894
948.87305
970.94723
992.78054
1014.4471
1036.0291
1057.6145
1079.2886
1101.1354
1123.2383
1145.6831
1168.5529
1191.9204
1215.8526
1240.3738
1265.4208
1291.5137
1318.7712
781.4265
807.12146
832.13092
856.50818
880.30989
903.59279
926.41446
948.83896
970.93969
992.79134
1014.4801
1036.084
1057.6879
1079.3777
1101.2367
1123.3476
1145.7969
1168.6686
1192.0337
1215.9523
1240.4475
1265.4549
1291.5316
1318.7604
781.31515
807.01651
832.03256
856.41855
880.23152
903.52618
926.35893
948.79707
970.91213
992.78202
1014.4864
1036.106
1057.7245
1079.4262
1101.2937
1123.4102
1145.8631
1168.7376
1192.1033
1216.0173
1240.5118
1265.5041
1291.5714
1318.8058
781.23947
806.94154
831.95846
856.34662
880.16341
903.46393
926.30334
948.74848
970.87251
992.75176
1014.4655
1036.0954
1057.7247
1079.4358
1101.3108
1123.4331
1145.8903
1168.7676
1192.1355
1216.0512
1240.5503
1265.5245
1291.5996
1318.8117
781.20094
806.89691
831.9067
856.28971
880.10643
903.40654
926.24453
948.68961
970.8155
992.69779
1014.4153
1036.0502
1057.6861
1079.4045
1101.2868
1123.4165
1145.8798
1168.7607
1192.1332
1216.0562
1240.5672
1265.5388
1291.6121
1318.8057
781.20019
806.87998
831.87542
856.24868
880.05992
903.35233
926.1817
948.61974
970.74063
992.61966
1014.3351
1035.9702
1057.6089
1079.3323
1101.2216
1123.3604
1145.8324
1168.7195
1192.1001
1216.0336
1240.5638
1265.5473
1291.6102
1318.7857
781.23344
806.89123
831.86635
856.2244
880.02533
903.3038
926.11788
948.54221
970.65135
992.52078
1014.2288
1035.8593
1057.4968
1079.2217
1101.1163
1123.2646
1145.7472
1168.6438
1192.0364
1215.9811
1240.5389
1265.5487
1291.5932
1318.7485
781.29048
806.9245
831.87601
856.21669
880.00345
903.26205
926.05418
948.45785
970.54818
992.40125
1014.0963
1035.7171
1057.3478
1079.0698
1100.9662
1123.121
1145.6141
1168.525
1191.9376
1215.9058
1240.4906
1265.5527
1291.5991
1318.7485
781.7368
807.41094
832.39887
856.74974
880.51978
903.76865
926.55654
948.94027
970.99471
992.80213
1014.4411
1036.0016
1057.5658
1079.2194
1101.047
1123.1336
1145.5658
1168.4252
1191.789
1215.7285
1240.2705
1265.3456
1291.4825
1318.7403
781.57195
807.25512
832.25144
856.61374
880.39917
903.6658
926.46913
948.87183
970.94792
992.78179
1014.4487
1036.0314
1057.6161
1079.2884
1101.1328
1123.2333
1145.676
1168.5435
1191.91
1215.8422
1240.3689
1265.4157
1291.5161
1318.7754
781.43993
807.12778
832.12948
856.50024
880.29788
903.57121
926.3857
948.80329
970.89707
992.7464
1014.4305
1036.0313
1057.6334
1079.3207
1101.1773
1123.2876
1145.7377
1168.6129
1191.9862
1215.92
1240.4493
1265.4917
1291.5719
1318.8159
781.34576
807.03338
832.03576
856.40734
880.20452
903.4864
926.30615
948.73018
970.83287
992.69167
1014.3865
1036
1057.6155
1079.3149
1101.1826
1123.3034
1145.7624
1168.644
1192.0242
1215.9644
1240.4997
1265.5304
1291.6069
1318.8349
781.29127
806.97389
831.96341
856.32476
880.12506
903.40725
926.22415
948.6479
970.7528
992.61561
1014.3159
1035.9367
1057.5611
1079.2705
1101.1487
1123.2807
1145.75
1168.6392
1192.0275
1215.9782
1240.5226
1265.5495
1291.6198
1318.8277
781.27791
806.93514
831.90741
856.26145
880.05742
903.33126
926.13903
948.55588
970.65676
992.51782
1014.2181
1035.841
1057.4704
1079.1871
1101.0749
1123.2186
1145.6997
1168.599
1191.9992
1215.9624
1240.5226
1265.5585
1291.6182
1318.7981
781.29101
806.92487
831.87617
856.21633
880.00266
903.26112
926.05321
948.45682
970.54716
992.40031
1014.0953
1035.7156
1057.3454
1079.0656
1100.9603
1123.1146
1145.6079
1168.5203
1191.9364
1215.9065
1240.498
1265.5579
1291.5999
1318.75
781.33905
806.94535
831.87001
856.19196
879.96253
903.19868
925.96861
948.35293
970.42683
992.26643
1013.9513
1035.5644
1057.1899
1078.909
1100.8064
1122.9674
1145.4715
1168.3985
1191.8328
1215.8192
1240.4529
1265.5659
1291.6148
1318.6939
1318.2145
1291.6923
1265.677
1240.3974
1215.6743
1191.523
1167.9541
1144.9417
1122.4
1100.2351
1078.3528
1056.6603
1035.0686
1013.4932
991.85344
970.06949
948.06083
925.75074
903.06316
879.91496
856.22828
831.99577
807.17275
781.65214
1318.3607
1291.6217
1265.6682
1240.472
1215.8213
1191.7045
1168.1573
1145.1565
1122.6197
1100.4545
1078.5674
1056.8676
1035.2658
1013.6776
992.0221
970.21953
948.18882
925.85203
903.1315
879.94296
856.21613
831.9403
807.06233
781.48874
1318.5075
1291.594
1265.6425
1240.4718
1215.8289
1191.7538
1168.254
1145.2833
1122.767
1100.6158
1078.7374
1057.0423
1035.4429
1013.8549
992.1965
970.38598
948.34279
925.98873
903.24594
880.02998
856.28053
831.97385
807.05254
781.43901
1318.6089
1291.5696
1265.6082
1240.4376
1215.8075
1191.76
1168.2966
1145.357
1122.8662
1100.735
1078.8725
1057.19
1035.6011
1014.0217
992.36835
970.55749
948.50908
926.14445
903.38604
880.15033
856.38122
832.0558
807.10245
781.47834
1318.6639
1291.5343
1265.5537
1240.3594
1215.7347
1191.7179
1168.2851
1145.3779
1122.9162
1100.8092
1078.9674
1057.3035
1035.7319
1014.168
992.52571
970.7205
948.67221
926.30354
903.53121
880.28406
856.51118
832.18936
807.23857
781.59692
1318.6889
1291.4944
1265.4716
1240.2409
1215.6238
1191.633
1168.2298
1145.3492
1122.9188
1100.8374
1079.0186
1057.3766
1035.827
1014.2843
992.65698
970.86071
948.81619
926.44354
903.66559
880.43877
856.69917
832.38648
807.43063
781.78023
1318.6929
1291.4714
1265.3858
1240.1138
1215.4869
1191.5174
1168.1486
1145.2963
1122.8775
1100.8145
1079.019
1057.4025
1035.8794
1014.3618
992.75324
970.96775
948.92542
926.5714
903.83154
880.63636
856.91954
832.61454
807.66488
782.02179
1318.7108
1291.4609
1265.287
1239.9355
1215.2799
1191.3002
1167.9412
1145.1167
1122.7342
1100.7111
1078.9535
1057.3728
1035.8847
1014.3984
992.81123
971.0467
949.04617
926.73307
904.03385
880.87102
857.18094
832.89972
807.97071
782.35133
1318.2707
1292.2378
1265.0732
1238.9531
1213.8393
1189.5857
1166.0819
1143.1692
1120.7363
1098.6887
1076.9338
1055.3791
1033.9338
1012.5118
991.03261
969.41993
947.60365
925.51389
903.0842
880.25705
856.96973
833.10095
808.56333
783.34029
1318.3043
1291.9515
1264.975
1238.9941
1213.9488
1189.7503
1166.2619
1143.3494
1120.9184
1098.8738
1077.1215
1055.5685
1034.1239
1012.7014
991.22059
969.60576
947.78589
925.69027
903.25231
880.41321
857.10284
833.20758
808.65487
783.41195
1318.2916
1291.6186
1264.7869
1238.9143
1213.9523
1189.8176
1166.3719
1143.4987
1121.1028
1099.0888
1077.3625
1055.831
1034.4041
1012.9957
991.52541
969.91855
948.10344
926.00921
903.56821
880.72002
857.38468
833.463
808.88718
783.61147
1318.2299
1291.2799
1264.5526
1238.7886
1213.93
1189.8716
1166.4753
1143.6511
1121.3008
1099.328
1077.6379
1056.138
1034.738
1013.3525
991.90136
970.31099
948.50832
926.42214
903.9827
881.12873
857.77611
833.82091
809.21149
783.87239
1318.1417
1290.9677
1264.3057
1238.6423
1213.878
1189.8849
1166.5531
1143.7821
1121.4813
1099.5541
1077.9057
1056.4432
1035.0765
1013.7201
992.29581
970.72976
948.94812
926.87712
904.45135
881.59643
858.21938
834.21745
809.54889
784.15702
1318.073
1290.6585
1264.0757
1238.5039
1213.8069
1189.8725
1166.5996
1143.8786
1121.6234
1099.7392
1078.1311
1056.706
1035.3738
1014.049
992.65661
971.12178
949.3689
927.32701
904.91901
882.04046
858.6163
834.57877
809.87442
784.43644
1317.9906
1290.4275
1263.8929
1238.3668
1213.7242
1189.8362
1166.5981
1143.9282
1121.7101
1099.8607
1078.2861
1056.8929
1035.591
1014.297
992.93824
971.44052
949.72736
927.69849
905.27322
882.37537
858.93177
834.87981
810.14928
784.66987
1317.9112
1290.2379
1263.7429
1238.2402
1213.6219
1189.7425
1166.5246
1143.8766
1121.7021
1099.8911
1078.3479
1056.9808
1035.7011
1014.4324
993.10865
971.64567
949.94051
927.915
905.49091
882.59628
859.1544
835.09681
810.3525
784.84396
1318.6862
1291.4567
1265.2856
1239.931
1215.2752
1191.2963
1167.9402
1145.1176
1122.7364
1100.7127
1078.9548
1057.373
1035.8838
1014.3971
992.81068
971.04568
949.04566
926.73263
904.03317
880.87092
857.18171
832.90135
807.9723
782.3524
1318.6973
1291.4749
1265.3812
1240.0993
1215.4708
1191.5078
1168.1458
1145.2995
1122.8843
1100.8214
1079.0223
1057.4018
1035.8763
1014.358
992.75026
970.96542
948.92377
926.57007
903.83002
880.63564
856.92017
832.61688
807.66792
782.02435
1318.6984
1291.5018
1265.4605
1240.2145
1215.5942
1191.6154
1168.2268
1145.3557
1122.9292
1100.8473
1079.0234
1057.3754
1035.8218
1014.278
992.65172
970.85651
948.81279
926.44086
903.66339
880.43726
856.69973
832.38989
807.4363
781.78645
1318.6763
1291.5385
1265.533
1240.3182
1215.6911
1191.6909
1168.2781
1145.3884
1122.9324
1100.8228
1078.9738
1057.3018
1035.7247
1014.1595
992.51846
970.71463
948.6673
926.29925
903.52774
880.282
856.51174
832.19443
807.24692
781.60715
1318.6188
1291.5721
1265.577
1240.3791
1215.7493
1191.7233
1168.2901
1145.3726
1122.8881
1100.7522
1078.8804
1057.1882
1035.5928
1014.0117
992.35973
970.55053
948.50328
926.13944
903.38217
880.14876
856.383
832.06142
807.11288
781.49144
1318.5148
1291.5945
1265.604
1240.3977
1215.757
1191.71
1168.2458
1145.3016
1122.7928
1100.6356
1078.7467
1057.0411
1035.4347
1013.8446
992.18745
970.37868
948.33685
925.98384
903.24276
880.03002
856.2848
831.98264
807.06526
781.45396
1318.3655
1291.6187
1265.6228
1240.3891
1215.7397
1191.6582
1168.1464
1145.1743
1122.6462
1100.4754
1078.5778
1056.8675
1035.2586
1013.6681
992.0135
970.21262
948.18342
925.84802
903.12983
879.94542
856.22365
831.95252
807.07826
781.50548
1318.217
1291.6857
1265.6275
1240.314
1215.5913
1191.4709
1167.9386
1144.9553
1122.4241
1100.2552
1078.3634
1056.661
1035.0624
1013.4847
991.84556
970.06334
948.05638
925.748
903.06314
879.91967
856.23855
832.0107
807.19082
781.66947
1317.9294
1290.2542
1263.7413
1238.2344
1213.6149
1189.7379
1166.5231
1143.8772
1121.7032
1099.8923
1078.3483
1056.9803
1035.7
1014.4308
993.10701
971.64447
949.93967
927.91448
905.49061
882.59549
859.15395
835.09669
810.35284
784.8445
1317.9863
1290.4234
1263.8829
1238.3526
1213.7074
1189.8241
1166.5928
1143.929
1121.715
1099.8653
1078.2883
1056.8922
1035.5881
1014.2929
992.93421
971.43701
949.72452
927.69644
905.27211
882.37495
858.93227
834.88091
810.15094
784.67164
1318.0688
1290.6677
1264.0614
1238.4791
1213.7789
1189.852
1166.5913
1143.8811
1121.631
1099.7463
1078.1344
1056.7048
1035.3692
1014.0429
992.65036
971.1163
949.36452
927.32357
904.91695
882.0402
858.61789
834.58181
809.87818
784.43994
1318.1665
1290.9537
1264.278
1238.6026
1213.8363
1189.8561
1166.5433
1143.7869
1121.4921
1099.5638
1077.9102
1056.4416
1035.0704
1013.712
992.28762
970.72257
948.94234
926.87286
904.44873
881.59629
858.22231
834.22236
809.55491
784.1624
1318.2412
1291.2747
1264.5232
1238.7382
1213.8766
1189.8351
1166.4635
1143.6583
1121.3155
1099.3407
1077.6439
1056.1365
1034.731
1013.343
991.89176
970.30255
948.50156
926.4173
903.98012
881.12904
857.77994
833.82793
809.21991
783.88035
1318.2907
1291.6111
1264.7465
1238.8545
1213.889
1189.7727
1166.357
1143.5076
1121.121
1099.1048
1077.3707
1055.8306
1034.3971
1012.9858
991.51528
969.90965
948.09636
926.00438
903.56623
880.72138
857.39003
833.47208
808.89842
783.6223
1318.3026
1291.9373
1264.9259
1238.9244
1213.8728
1189.6952
1166.2429
1143.3585
1120.9394
1098.8933
1077.1328
1055.5702
1034.1181
1012.6922
991.21096
969.59729
947.77923
925.68606
903.25144
880.41623
857.11019
833.21892
808.66849
783.4248
1318.2727
1292.2277
1265.0193
1238.8742
1213.758
1189.5275
1166.0597
1143.1769
1120.7579
1098.71
1076.9473
1055.3827
1033.9296
1012.504
991.02425
969.41258
947.59797
925.51068
903.08457
880.26166
856.97902
833.11443
808.57899
783.35468
1318.2171
1291.6839
1265.6269
1240.3156
1215.5896
1191.4643
1167.9333
1144.9512
1122.4208
1100.2528
1078.362
1056.6603
1035.0622
1013.4847
991.84549
970.0631
948.05602
925.74754
903.06268
879.91931
856.23805
832.01053
807.19116
781.66957
1318.367
1291.62
1265.6267
1240.3993
1215.7376
1191.6603
1168.1393
1145.1639
1122.636
1100.4668
1078.5719
1056.8642
1035.2567
1013.6668
992.01224
970.21124
948.18192
925.84635
903.12821
879.94399
856.22251
831.95192
807.07843
781.50571
1318.5157
1291.597
1265.6132
1240.4152
1215.7758
1191.7091
1168.2352
1145.2865
1122.7771
1100.6217
1078.7369
1057.0354
1035.4312
1013.8419
992.18466
970.37578
948.33387
925.98078
903.23984
880.02753
856.28283
831.98135
807.06484
781.45432
1318.618
1291.5763
1265.5907
1240.3989
1215.7676
1191.7246
1168.2803
1145.3563
1122.8692
1100.7342
1078.8667
1057.1796
1035.587
1014.0066
992.3546
970.54551
948.49844
926.13482
903.37806
880.14511
856.38002
832.05903
807.11222
781.4921
1318.6734
1291.5433
1265.5468
1240.3386
1215.7095
1191.697
1168.2734
1145.3749
1122.9134
1100.8024
1078.9566
1057.2894
1035.7156
1014.1514
992.51047
970.70707
948.66031
926.29286
903.52198
880.27709
856.50783
832.19224
807.24635
781.60858
1318.698
1291.5046
1265.4728
1240.2335
1215.6124
1191.6254
1168.2285
1145.3474
1122.9125
1100.8267
1079.004
1057.3595
1035.8088
1014.2663
992.64068
970.84631
948.80356
926.43229
903.65603
880.43112
856.69485
832.38664
807.43546
781.78905
1318.7008
1291.481
1265.392
1240.1161
1215.4863
1191.5177
1168.1492
1145.2951
1122.8718
1100.8035
1079.0027
1057.3836
1035.8602
1014.3433
992.73661
970.95313
948.91278
926.55978
903.82087
880.62764
856.91324
832.61165
807.66612
782.02728
1318.7139
1291.4668
1265.2968
1239.9439
1215.2869
1191.3075
1167.9466
1145.1173
1122.7285
1100.6987
1078.9372
1057.3545
1035.866
1014.3803
992.79581
971.03196
949.03299
926.72094
904.02259
880.86116
857.17266
832.89364
807.96785
782.35312
1318.2733
1292.2249
1265.0211
1238.8776
1213.7632
1189.5327
1166.062
1143.177
1120.7571
1098.7092
1076.9467
1055.3822
1033.9293
1012.5037
991.02402
969.41221
947.59745
925.51017
903.08421
880.2616
856.97936
833.11486
808.57953
783.3552
1318.3082
1291.9451
1264.9327
1238.9266
1213.8821
1189.7016
1166.2425
1143.3534
1120.9332
1098.888
1077.129
1055.5677
1034.1165
1012.6911
991.20998
969.59605
947.77772
925.68465
903.2505
880.41617
857.11076
833.22015
808.67015
783.42648
1318.2959
1291.6149
1264.7564
1238.8663
1213.8992
1189.7789
1166.354
1143.4987
1121.1108
1099.0961
1077.3645
1055.8265
1034.3944
1012.9837
991.51322
969.90732
948.09379
926.002
903.56457
880.72074
857.39051
833.47349
808.9006
783.62495
1318.2345
1291.2801
1264.5346
1238.756
1213.8902
1189.8406
1166.4595
1143.6479
1121.3032
1099.3296
1077.6355
1056.1306
1034.7267
1013.3392
991.88808
970.29874
948.49769
926.41379
903.97744
881.12781
857.78008
833.82923
809.22228
783.8839
1318.1465
1290.9709
1264.2963
1238.6207
1213.851
1189.8624
1166.5408
1143.7775
1121.4798
1099.5515
1077.8999
1056.4336
1035.0639
1013.706
992.28186
970.71689
948.93686
926.86793
904.44511
881.59409
858.22165
834.22303
809.55752
784.16723
1318.0776
1290.6637
1264.0727
1238.4937
1213.7924
1189.8592
1166.5908
1143.8742
1121.6201
1099.734
1078.1229
1056.6947
1035.3602
1014.0345
992.64229
971.10852
949.35722
927.31724
904.91167
882.03607
858.61541
834.58149
809.88079
784.44554
1317.9948
1290.4341
1263.8939
1238.3651
1213.7199
1189.8318
1166.5953
1143.9253
1121.707
1099.8546
1078.2767
1056.8807
1035.5769
1014.2822
992.92394
971.42702
949.71547
927.6883
905.26486
882.3689
858.92796
834.87919
810.15254
784.67704
1317.9146
1290.2458
1263.7484
1238.246
1213.6274
1189.7489
1166.528
1143.8775
1121.6985
1099.8838
1078.3375
1056.9683
1035.6871
1014.418
993.0944
971.63257
949.92872
927.90452
905.48164
882.5876
859.14781
835.0931
810.35256
784.84828
1318.6929
1291.4654
1265.2976
1239.9481
1215.2925
1191.3138
1167.9515
1145.1213
1122.7313
1100.701
1078.9381
1057.354
1035.865
1014.3796
992.79545
971.03218
949.03331
926.72216
904.02345
880.86095
857.17129
832.89084
807.96414
782.34908
1318.7005
1291.484
1265.3977
1240.1267
1215.4998
1191.5303
1168.1637
1145.3062
1122.8788
1100.8066
1079.0037
1057.3825
1035.8576
1014.341
992.73543
970.95252
948.91172
926.55929
903.82028
880.62492
856.90807
832.60291
807.65465
782.01579
1318.6982
1291.5087
1265.4829
1240.2531
1215.6382
1191.6501
1168.2491
1145.3632
1122.9245
1100.8336
1079.0058
1057.3574
1035.8051
1014.2632
992.63885
970.84521
948.80236
926.43082
903.65352
880.42664
856.68688
832.37372
807.41859
781.77273
1318.6737
1291.5436
1265.5627
1240.3696
1215.7492
1191.7346
1168.3018
1145.3932
1122.9245
1100.8081
1078.9572
1057.2862
1035.7114
1014.1484
992.50871
970.70574
948.65886
926.29106
903.51904
880.27182
856.49859
832.17636
807.22673
781.58966
1318.6151
1291.5765
1265.6142
1240.4441
1215.8211
1191.7728
1168.3125
1145.3714
1122.8744
1100.7352
1078.8647
1057.176
1035.5842
1014.0052
992.35394
970.54477
948.49729
926.13323
903.37502
880.13906
856.36937
832.04326
807.09175
781.47266
1318.5109
1291.5994
1265.6481
1240.4751
1215.8407
1191.7643
1168.2661
1145.2939
1122.773
1100.6159
1078.732
1057.0328
1035.4313
1013.8434
992.18608
970.37649
948.33381
925.98002
903.23718
880.02096
856.27094
831.96409
807.04419
781.4347
1318.3618
1291.6248
1265.6712
1240.472
1215.8182
1191.7183
1168.1658
1145.1624
1122.6226
1100.4542
1078.5643
1056.8625
1035.2597
1013.6712
992.01607
970.21389
948.18346
925.84682
903.12629
879.93747
856.21028
831.93443
807.05767
781.48616
1318.2138
1291.6919
1265.6769
1240.3964
1215.6729
1191.5208
1167.9537
1144.9424
1122.4004
1100.2348
1078.3516
1056.6586
1035.0667
1013.4912
991.85146
970.06767
948.05929
925.74932
903.0617
879.91341
856.22636
831.99384
807.17143
781.65105
1317.9321
1290.2595
1263.7498
1238.2473
1213.6291
1189.7502
1166.5299
1143.8792
1121.7009
1099.8851
1078.3379
1056.968
1035.6864
1014.4172
993.0937
971.63219
949.9284
927.90424
905.48133
882.58779
859.14742
835.09201
810.35075
784.84622
1317.9878
1290.4278
1263.8961
1238.3723
1213.7302
1189.8442
1166.6063
1143.9341
1121.7113
1099.8567
1078.277
1056.8795
1035.5749
1014.2803
992.92227
971.42578
949.71419
927.68676
905.26283
882.36604
858.92358
834.87342
810.14534
784.66967
1318.0699
1290.6734
1264.0821
1238.5104
1213.8133
1189.8806
1166.6093
1143.8868
1121.6273
1099.7374
1078.1233
1056.693
1035.3576
1014.032
992.64026
971.10678
949.35542
927.31476