/*--------------------------------*- C++ -*----------------------------------*\
| =========                 |                                                 |
| \\      /  F ield         | OpenFOAM: The Open Source CFD Toolbox           |
|  \\    /   O peration     | Version:  4.1                                   |
|   \\  /    A nd           | Web:      www.OpenFOAM.org                      |
|    \\/     M anipulation  |                                                 |
\*---------------------------------------------------------------------------*/
FoamFile
{
    version     2.0;
    format      ascii;
    class       volVectorField;
    location    "0.0057";
    object      cellDisplacement;
}
// * * * * * * * * * * * * * * * * * * * * * * * * * * * * * * * * * * * * * //

dimensions      [0 1 0 0 0 0 0];

internalField   nonuniform List<vector> 
1536
(
(-5.4162e-05 -5.3609e-05 1.8967e-08)
(-5.0263e-05 -5.6965e-05 1.9983e-08)
(-4.6115e-05 -5.9444e-05 2.0683e-08)
(-4.182e-05 -6.0723e-05 2.0966e-08)
(-3.7451e-05 -6.0549e-05 2.0743e-08)
(-3.3045e-05 -5.8809e-05 2.0012e-08)
(-2.8634e-05 -5.5576e-05 1.8874e-08)
(-2.4281e-05 -5.1095e-05 1.7388e-08)
(-2.0097e-05 -4.5691e-05 1.5577e-08)
(-1.6221e-05 -3.9623e-05 1.3525e-08)
(-1.2771e-05 -3.3042e-05 1.1315e-08)
(-9.803e-06 -2.606e-05 9.0008e-09)
(-5.4085e-05 -4.7113e-05 7.8756e-06)
(-5.0209e-05 -5.0032e-05 8.3616e-06)
(-4.6081e-05 -5.2179e-05 8.7187e-06)
(-4.1802e-05 -5.3276e-05 8.901e-06)
(-3.7442e-05 -5.311e-05 8.8724e-06)
(-3.3045e-05 -5.1586e-05 8.6173e-06)
(-2.8648e-05 -4.8764e-05 8.1463e-06)
(-2.4317e-05 -4.4854e-05 7.4941e-06)
(-2.0159e-05 -4.0126e-05 6.7054e-06)
(-1.6305e-05 -3.4804e-05 5.8176e-06)
(-1.2866e-05 -2.9028e-05 4.854e-06)
(-9.8947e-06 -2.2907e-05 3.8333e-06)
(-5.4031e-05 -3.9918e-05 1.5958e-05)
(-5.0171e-05 -4.2374e-05 1.6937e-05)
(-4.6058e-05 -4.4174e-05 1.7655e-05)
(-4.1789e-05 -4.5089e-05 1.8019e-05)
(-3.7436e-05 -4.494e-05 1.7959e-05)
(-3.3045e-05 -4.365e-05 1.7443e-05)
(-2.8658e-05 -4.127e-05 1.6492e-05)
(-2.4342e-05 -3.7971e-05 1.5174e-05)
(-2.0202e-05 -3.3977e-05 1.3579e-05)
(-1.6363e-05 -2.9474e-05 1.1781e-05)
(-1.2931e-05 -2.4585e-05 9.8293e-06)
(-9.9581e-06 -1.941e-05 7.7634e-06)
(-5.4004e-05 -3.2203e-05 2.4149e-05)
(-5.0152e-05 -3.4177e-05 2.5627e-05)
(-4.6046e-05 -3.5621e-05 2.6709e-05)
(-4.1782e-05 -3.6352e-05 2.7257e-05)
(-3.7433e-05 -3.6229e-05 2.7164e-05)
(-3.3046e-05 -3.5189e-05 2.6383e-05)
(-2.8664e-05 -3.3273e-05 2.4947e-05)
(-2.4356e-05 -3.0618e-05 2.2957e-05)
(-2.0224e-05 -2.7401e-05 2.0545e-05)
(-1.6392e-05 -2.3771e-05 1.7825e-05)
(-1.2964e-05 -1.9831e-05 1.4871e-05)
(-9.9904e-06 -1.5661e-05 1.1746e-05)
(-5.4004e-05 -2.4147e-05 3.2205e-05)
(-5.0152e-05 -2.5625e-05 3.4178e-05)
(-4.6046e-05 -2.6707e-05 3.5622e-05)
(-4.1782e-05 -2.7255e-05 3.6354e-05)
(-3.7433e-05 -2.7162e-05 3.623e-05)
(-3.3046e-05 -2.6382e-05 3.519e-05)
(-2.8664e-05 -2.4946e-05 3.3274e-05)
(-2.4356e-05 -2.2956e-05 3.0619e-05)
(-2.0224e-05 -2.0544e-05 2.7401e-05)
(-1.6392e-05 -1.7824e-05 2.3772e-05)
(-1.2964e-05 -1.487e-05 1.9831e-05)
(-9.9904e-06 -1.1745e-05 1.5661e-05)
(-5.4032e-05 -1.5955e-05 3.9918e-05)
(-5.0171e-05 -1.6935e-05 4.2374e-05)
(-4.6058e-05 -1.7653e-05 4.4175e-05)
(-4.1789e-05 -1.8017e-05 4.509e-05)
(-3.7436e-05 -1.7957e-05 4.4941e-05)
(-3.3045e-05 -1.7441e-05 4.3651e-05)
(-2.8658e-05 -1.649e-05 4.1271e-05)
(-2.4342e-05 -1.5173e-05 3.7972e-05)
(-2.0202e-05 -1.3578e-05 3.3977e-05)
(-1.6363e-05 -1.178e-05 2.9474e-05)
(-1.2931e-05 -9.8284e-06 2.4586e-05)
(-9.9581e-06 -7.7628e-06 1.941e-05)
(-5.4085e-05 -7.8732e-06 4.7114e-05)
(-5.0209e-05 -8.3593e-06 5.0032e-05)
(-4.6082e-05 -8.7165e-06 5.2179e-05)
(-4.1802e-05 -8.899e-06 5.3276e-05)
(-3.7442e-05 -8.8705e-06 5.311e-05)
(-3.3045e-05 -8.6156e-06 5.1585e-05)
(-2.8648e-05 -8.1448e-06 4.8764e-05)
(-2.4317e-05 -7.4928e-06 4.4854e-05)
(-2.0159e-05 -6.7043e-06 4.0126e-05)
(-1.6305e-05 -5.8167e-06 3.4804e-05)
(-1.2866e-05 -4.8533e-06 2.9028e-05)
(-9.8946e-06 -3.8328e-06 2.2907e-05)
(-5.4162e-05 -1.6968e-08 5.3609e-05)
(-5.0263e-05 -1.8074e-08 5.6964e-05)
(-4.6115e-05 -1.8887e-08 5.9443e-05)
(-4.182e-05 -1.9322e-08 6.0722e-05)
(-3.7451e-05 -1.9289e-08 6.0549e-05)
(-3.3045e-05 -1.8757e-08 5.8809e-05)
(-2.8634e-05 -1.7812e-08 5.5575e-05)
(-2.4281e-05 -1.6497e-08 5.1095e-05)
(-2.0097e-05 -1.4831e-08 4.5691e-05)
(-1.6221e-05 -1.291e-08 3.9623e-05)
(-1.2771e-05 -1.0836e-08 3.3042e-05)
(-9.803e-06 -8.678e-09 2.606e-05)
(-5.4085e-05 -4.7112e-05 -7.8429e-06)
(-5.0209e-05 -5.003e-05 -8.3272e-06)
(-4.6081e-05 -5.2177e-05 -8.6831e-06)
(-4.1802e-05 -5.3274e-05 -8.865e-06)
(-3.7442e-05 -5.3108e-05 -8.8368e-06)
(-3.3045e-05 -5.1584e-05 -8.5829e-06)
(-2.8648e-05 -4.8762e-05 -8.1139e-06)
(-2.4317e-05 -4.4852e-05 -7.4643e-06)
(-2.0159e-05 -4.0124e-05 -6.6787e-06)
(-1.6305e-05 -3.4803e-05 -5.7944e-06)
(-1.2866e-05 -2.9027e-05 -4.8346e-06)
(-9.8946e-06 -2.2906e-05 -3.8178e-06)
(-5.4001e-05 -4.0311e-05 3.6356e-08)
(-5.0149e-05 -4.2782e-05 3.84e-08)
(-4.6044e-05 -4.4589e-05 3.9837e-08)
(-4.1781e-05 -4.5505e-05 4.0478e-08)
(-3.7432e-05 -4.5352e-05 4.0172e-08)
(-3.3046e-05 -4.4052e-05 3.8885e-08)
(-2.8664e-05 -4.1656e-05 3.6728e-08)
(-2.4357e-05 -3.8335e-05 3.3825e-08)
(-2.0227e-05 -3.4309e-05 3.0293e-08)
(-1.6396e-05 -2.9766e-05 2.6288e-08)
(-1.2968e-05 -2.483e-05 2.1958e-08)
(-9.9943e-06 -1.9607e-05 1.7413e-08)
(-5.3943e-05 -3.2928e-05 8.2558e-06)
(-5.0108e-05 -3.4932e-05 8.7575e-06)
(-4.6018e-05 -3.6394e-05 9.1232e-06)
(-4.1766e-05 -3.713e-05 9.3072e-06)
(-3.7426e-05 -3.6998e-05 9.2737e-06)
(-3.3047e-05 -3.5938e-05 9.0076e-06)
(-2.8677e-05 -3.399e-05 8.5193e-06)
(-2.4385e-05 -3.1288e-05 7.8424e-06)
(-2.0273e-05 -2.8008e-05 7.0207e-06)
(-1.6457e-05 -2.4302e-05 6.0923e-06)
(-1.3037e-05 -2.0275e-05 5.0835e-06)
(-1.0062e-05 -1.6017e-05 4.0171e-06)
(-5.3914e-05 -2.4995e-05 1.6675e-05)
(-5.0087e-05 -2.6511e-05 1.7686e-05)
(-4.6004e-05 -2.7615e-05 1.8422e-05)
(-4.1759e-05 -2.8169e-05 1.8791e-05)
(-3.7422e-05 -2.8066e-05 1.8722e-05)
(-3.3047e-05 -2.7262e-05 1.8185e-05)
(-2.8683e-05 -2.5786e-05 1.7201e-05)
(-2.44e-05 -2.374e-05 1.5836e-05)
(-2.0296e-05 -2.1254e-05 1.4178e-05)
(-1.6488e-05 -1.8443e-05 1.2303e-05)
(-1.3072e-05 -1.5388e-05 1.0266e-05)
(-1.0096e-05 -1.2159e-05 8.1127e-06)
(-5.3914e-05 -1.6672e-05 2.4997e-05)
(-5.0087e-05 -1.7683e-05 2.6513e-05)
(-4.6004e-05 -1.8419e-05 2.7617e-05)
(-4.1759e-05 -1.8788e-05 2.8171e-05)
(-3.7422e-05 -1.8719e-05 2.8068e-05)
(-3.3047e-05 -1.8183e-05 2.7264e-05)
(-2.8683e-05 -1.7199e-05 2.5788e-05)
(-2.44e-05 -1.5834e-05 2.3741e-05)
(-2.0296e-05 -1.4176e-05 2.1255e-05)
(-1.6488e-05 -1.2302e-05 1.8444e-05)
(-1.3072e-05 -1.0265e-05 1.5389e-05)
(-1.0096e-05 -8.1117e-06 1.216e-05)
(-5.3944e-05 -8.2522e-06 3.2929e-05)
(-5.0108e-05 -8.7538e-06 3.4933e-05)
(-4.6018e-05 -9.1196e-06 3.6395e-05)
(-4.1766e-05 -9.3037e-06 3.7131e-05)
(-3.7426e-05 -9.2704e-06 3.6999e-05)
(-3.3047e-05 -9.0046e-06 3.5939e-05)
(-2.8677e-05 -8.5165e-06 3.3991e-05)
(-2.4385e-05 -7.8399e-06 3.1289e-05)
(-2.0273e-05 -7.0185e-06 2.8009e-05)
(-1.6457e-05 -6.0904e-06 2.4303e-05)
(-1.3037e-05 -5.082e-06 2.0276e-05)
(-1.0062e-05 -4.0159e-06 1.6017e-05)
(-5.4001e-05 -3.2629e-08 4.0311e-05)
(-5.015e-05 -3.4663e-08 4.2782e-05)
(-4.6044e-05 -3.6139e-08 4.4589e-05)
(-4.1781e-05 -3.689e-08 4.5505e-05)
(-3.7432e-05 -3.6771e-08 4.5352e-05)
(-3.3046e-05 -3.5736e-08 4.4052e-05)
(-2.8665e-05 -3.3872e-08 4.1656e-05)
(-2.4357e-05 -3.1283e-08 3.8335e-05)
(-2.0227e-05 -2.807e-08 3.4308e-05)
(-1.6396e-05 -2.4394e-08 2.9765e-05)
(-1.2968e-05 -2.0412e-08 2.483e-05)
(-9.9943e-06 -1.6243e-08 1.9607e-05)
(-5.4085e-05 7.8459e-06 4.7111e-05)
(-5.0209e-05 8.3302e-06 5.0029e-05)
(-4.6082e-05 8.6861e-06 5.2176e-05)
(-4.1802e-05 8.8678e-06 5.3273e-05)
(-3.7442e-05 8.8394e-06 5.3107e-05)
(-3.3045e-05 8.5853e-06 5.1583e-05)
(-2.8648e-05 8.116e-06 4.8761e-05)
(-2.4317e-05 7.4661e-06 4.4851e-05)
(-2.0159e-05 6.6803e-06 4.0123e-05)
(-1.6305e-05 5.7957e-06 3.4802e-05)
(-1.2866e-05 4.8357e-06 2.9026e-05)
(-9.8945e-06 3.8186e-06 2.2906e-05)
(-5.4032e-05 -3.9923e-05 -1.5961e-05)
(-5.0171e-05 -4.238e-05 -1.6941e-05)
(-4.6058e-05 -4.418e-05 -1.766e-05)
(-4.1789e-05 -4.5095e-05 -1.8024e-05)
(-3.7436e-05 -4.4947e-05 -1.7964e-05)
(-3.3045e-05 -4.3656e-05 -1.7448e-05)
(-2.8658e-05 -4.1276e-05 -1.6497e-05)
(-2.4342e-05 -3.7977e-05 -1.5179e-05)
(-2.0202e-05 -3.3981e-05 -1.3583e-05)
(-1.6363e-05 -2.9478e-05 -1.1785e-05)
(-1.2931e-05 -2.4589e-05 -9.8321e-06)
(-9.9578e-06 -1.9413e-05 -7.7655e-06)
(-5.3944e-05 -3.2923e-05 -8.2226e-06)
(-5.0108e-05 -3.4927e-05 -8.7225e-06)
(-4.6018e-05 -3.6389e-05 -9.0871e-06)
(-4.1766e-05 -3.7125e-05 -9.2707e-06)
(-3.7426e-05 -3.6993e-05 -9.2376e-06)
(-3.3047e-05 -3.5933e-05 -8.9727e-06)
(-2.8677e-05 -3.3985e-05 -8.4864e-06)
(-2.4385e-05 -3.1284e-05 -7.8121e-06)
(-2.0273e-05 -2.8004e-05 -6.9936e-06)
(-1.6457e-05 -2.4299e-05 -6.0687e-06)
(-1.3037e-05 -2.0272e-05 -5.0638e-06)
(-1.0062e-05 -1.6014e-05 -4.0013e-06)
(-5.3883e-05 -2.534e-05 2.8191e-08)
(-5.0065e-05 -2.6873e-05 2.9736e-08)
(-4.599e-05 -2.7987e-05 3.0811e-08)
(-4.175e-05 -2.8544e-05 3.1277e-08)
(-3.7419e-05 -2.8438e-05 3.1033e-08)
(-3.3048e-05 -2.7623e-05 3.0047e-08)
(-2.869e-05 -2.613e-05 2.8371e-08)
(-2.4415e-05 -2.406e-05 2.6107e-08)
(-2.0321e-05 -2.1542e-05 2.3373e-08)
(-1.6521e-05 -1.8693e-05 2.0291e-08)
(-1.3109e-05 -1.5597e-05 1.696e-08)
(-1.0133e-05 -1.2325e-05 1.3468e-08)
(-5.3852e-05 -1.7201e-05 8.6391e-06)
(-5.0042e-05 -1.8238e-05 9.1596e-06)
(-4.5975e-05 -1.899e-05 9.5373e-06)
(-4.1742e-05 -1.9366e-05 9.7255e-06)
(-3.7415e-05 -1.9292e-05 9.6884e-06)
(-3.3049e-05 -1.8739e-05 9.4105e-06)
(-2.8697e-05 -1.7728e-05 8.9026e-06)
(-2.443e-05 -1.6325e-05 8.198e-06)
(-2.0346e-05 -1.4618e-05 7.3409e-06)
(-1.6554e-05 -1.2686e-05 6.3706e-06)
(-1.3145e-05 -1.0585e-05 5.3157e-06)
(-1.0169e-05 -8.3662e-06 4.2018e-06)
(-5.3853e-05 -8.6347e-06 1.7204e-05)
(-5.0043e-05 -9.1551e-06 1.8241e-05)
(-4.5975e-05 -9.5328e-06 1.8994e-05)
(-4.1742e-05 -9.7211e-06 1.9369e-05)
(-3.7415e-05 -9.6842e-06 1.9295e-05)
(-3.3049e-05 -9.4066e-06 1.8742e-05)
(-2.8697e-05 -8.8989e-06 1.7731e-05)
(-2.443e-05 -8.1947e-06 1.6327e-05)
(-2.0346e-05 -7.338e-06 1.462e-05)
(-1.6554e-05 -6.3681e-06 1.2687e-05)
(-1.3145e-05 -5.3136e-06 1.0586e-05)
(-1.0169e-05 -4.2002e-06 8.3674e-06)
(-5.3883e-05 -2.2712e-08 2.5342e-05)
(-5.0065e-05 -2.4141e-08 2.6875e-05)
(-4.599e-05 -2.5178e-08 2.7989e-05)
(-4.175e-05 -2.5713e-08 2.8546e-05)
(-3.7419e-05 -2.5659e-08 2.844e-05)
(-3.3048e-05 -2.4976e-08 2.7625e-05)
(-2.869e-05 -2.3696e-08 2.6132e-05)
(-2.4415e-05 -2.189e-08 2.4061e-05)
(-2.0321e-05 -1.9653e-08 2.1543e-05)
(-1.6521e-05 -1.7101e-08 1.8694e-05)
(-1.3109e-05 -1.4336e-08 1.5597e-05)
(-1.0133e-05 -1.1441e-08 1.2326e-05)
(-5.3944e-05 8.2286e-06 3.2923e-05)
(-5.0109e-05 8.7287e-06 3.4927e-05)
(-4.6018e-05 9.0934e-06 3.6388e-05)
(-4.1766e-05 9.2768e-06 3.7124e-05)
(-3.7426e-05 9.2436e-06 3.6993e-05)
(-3.3047e-05 8.9784e-06 3.5932e-05)
(-2.8677e-05 8.4916e-06 3.3984e-05)
(-2.4385e-05 7.8168e-06 3.1283e-05)
(-2.0273e-05 6.9977e-06 2.8004e-05)
(-1.6457e-05 6.0722e-06 2.4298e-05)
(-1.3037e-05 5.0667e-06 2.0272e-05)
(-1.0062e-05 4.0036e-06 1.6014e-05)
(-5.4032e-05 1.5966e-05 3.9922e-05)
(-5.0172e-05 1.6946e-05 4.2378e-05)
(-4.6058e-05 1.7664e-05 4.4178e-05)
(-4.1789e-05 1.8029e-05 4.5093e-05)
(-3.7436e-05 1.7968e-05 4.4945e-05)
(-3.3045e-05 1.7452e-05 4.3654e-05)
(-2.8658e-05 1.65e-05 4.1274e-05)
(-2.4342e-05 1.5182e-05 3.7975e-05)
(-2.0202e-05 1.3586e-05 3.398e-05)
(-1.6363e-05 1.1787e-05 2.9477e-05)
(-1.2931e-05 9.8341e-06 2.4587e-05)
(-9.9577e-06 7.767e-06 1.9412e-05)
(-5.4004e-05 -3.2201e-05 -2.4147e-05)
(-5.0152e-05 -3.4175e-05 -2.5626e-05)
(-4.6046e-05 -3.5619e-05 -2.6708e-05)
(-4.1782e-05 -3.635e-05 -2.7255e-05)
(-3.7433e-05 -3.6227e-05 -2.7162e-05)
(-3.3046e-05 -3.5187e-05 -2.6382e-05)
(-2.8664e-05 -3.3272e-05 -2.4946e-05)
(-2.4356e-05 -3.0616e-05 -2.2956e-05)
(-2.0224e-05 -2.7399e-05 -2.0544e-05)
(-1.6392e-05 -2.377e-05 -1.7824e-05)
(-1.2964e-05 -1.9829e-05 -1.487e-05)
(-9.9903e-06 -1.566e-05 -1.1745e-05)
(-5.3914e-05 -2.4978e-05 -1.667e-05)
(-5.0087e-05 -2.6493e-05 -1.768e-05)
(-4.6004e-05 -2.7596e-05 -1.8416e-05)
(-4.1759e-05 -2.815e-05 -1.8785e-05)
(-3.7422e-05 -2.8048e-05 -1.8717e-05)
(-3.3047e-05 -2.7244e-05 -1.818e-05)
(-2.8683e-05 -2.5769e-05 -1.7196e-05)
(-2.4399e-05 -2.3724e-05 -1.5832e-05)
(-2.0296e-05 -2.124e-05 -1.4174e-05)
(-1.6488e-05 -1.8431e-05 -1.23e-05)
(-1.3072e-05 -1.5378e-05 -1.0263e-05)
(-1.0096e-05 -1.2151e-05 -8.1102e-06)
(-5.3852e-05 -1.7193e-05 -8.6153e-06)
(-5.0042e-05 -1.8229e-05 -9.1346e-06)
(-4.5975e-05 -1.8981e-05 -9.5115e-06)
(-4.1742e-05 -1.9357e-05 -9.6995e-06)
(-3.7415e-05 -1.9283e-05 -9.6627e-06)
(-3.3049e-05 -1.873e-05 -9.3858e-06)
(-2.8697e-05 -1.772e-05 -8.8792e-06)
(-2.443e-05 -1.6317e-05 -8.1766e-06)
(-2.0346e-05 -1.4611e-05 -7.3217e-06)
(-1.6554e-05 -1.268e-05 -6.3538e-06)
(-1.3145e-05 -1.058e-05 -5.3016e-06)
(-1.0169e-05 -8.3623e-06 -4.1906e-06)
(-5.3821e-05 -8.8044e-06 8.7471e-09)
(-5.0019e-05 -9.3335e-06 9.1254e-09)
(-4.596e-05 -9.7169e-06 9.3663e-09)
(-4.1734e-05 -9.9076e-06 9.4321e-09)
(-3.7411e-05 -9.8692e-06 9.2944e-09)
(-3.305e-05 -9.5863e-06 8.9505e-09)
(-2.8704e-05 -9.0696e-06 8.4225e-09)
(-2.4446e-05 -8.3528e-06 7.7419e-09)
(-2.0372e-05 -7.48e-06 6.9411e-09)
(-1.6587e-05 -6.4913e-06 6.0512e-09)
(-1.3183e-05 -5.4164e-06 5.0975e-09)
(-1.0206e-05 -4.2818e-06 4.1025e-09)
(-5.3821e-05 -3.0159e-09 8.8096e-06)
(-5.0019e-05 -3.2619e-09 9.3388e-06)
(-4.596e-05 -3.451e-09 9.7223e-06)
(-4.1734e-05 -3.5761e-09 9.9129e-06)
(-3.7411e-05 -3.626e-09 9.8743e-06)
(-3.305e-05 -3.591e-09 9.5912e-06)
(-2.8704e-05 -3.4716e-09 9.0741e-06)
(-2.4446e-05 -3.27e-09 8.3568e-06)
(-2.0372e-05 -2.9945e-09 7.4837e-06)
(-1.6587e-05 -2.6672e-09 6.4945e-06)
(-1.3183e-05 -2.3117e-09 5.4189e-06)
(-1.0206e-05 -1.9429e-09 4.2838e-06)
(-5.3853e-05 8.6232e-06 1.7197e-05)
(-5.0043e-05 9.1428e-06 1.8233e-05)
(-4.5975e-05 9.5199e-06 1.8986e-05)
(-4.1742e-05 9.7078e-06 1.9361e-05)
(-3.7415e-05 9.6708e-06 1.9287e-05)
(-3.3049e-05 9.3935e-06 1.8734e-05)
(-2.8697e-05 8.8864e-06 1.7723e-05)
(-2.443e-05 8.183e-06 1.632e-05)
(-2.0346e-05 7.3274e-06 1.4614e-05)
(-1.6554e-05 6.3587e-06 1.2682e-05)
(-1.3145e-05 5.3057e-06 1.0582e-05)
(-1.0169e-05 4.1937e-06 8.3638e-06)
(-5.3914e-05 1.668e-05 2.4976e-05)
(-5.0087e-05 1.7691e-05 2.6491e-05)
(-4.6005e-05 1.8427e-05 2.7594e-05)
(-4.1759e-05 1.8796e-05 2.8147e-05)
(-3.7422e-05 1.8728e-05 2.8045e-05)
(-3.3047e-05 1.8191e-05 2.7241e-05)
(-2.8683e-05 1.7206e-05 2.5766e-05)
(-2.4399e-05 1.5841e-05 2.3721e-05)
(-2.0296e-05 1.4182e-05 2.1237e-05)
(-1.6488e-05 1.2307e-05 1.8429e-05)
(-1.3072e-05 1.0269e-05 1.5376e-05)
(-1.0096e-05 8.1146e-06 1.215e-05)
(-5.4004e-05 2.4153e-05 3.2198e-05)
(-5.0152e-05 2.5632e-05 3.4171e-05)
(-4.6046e-05 2.6714e-05 3.5615e-05)
(-4.1782e-05 2.7262e-05 3.6346e-05)
(-3.7433e-05 2.7169e-05 3.6223e-05)
(-3.3046e-05 2.6388e-05 3.5183e-05)
(-2.8664e-05 2.4952e-05 3.3267e-05)
(-2.4356e-05 2.2961e-05 3.0612e-05)
(-2.0224e-05 2.0549e-05 2.7395e-05)
(-1.6392e-05 1.7828e-05 2.3767e-05)
(-1.2964e-05 1.4873e-05 1.9827e-05)
(-9.9902e-06 1.1747e-05 1.5658e-05)
(-5.4004e-05 -2.4149e-05 -3.2199e-05)
(-5.0152e-05 -2.5628e-05 -3.4173e-05)
(-4.6046e-05 -2.671e-05 -3.5617e-05)
(-4.1782e-05 -2.7258e-05 -3.6348e-05)
(-3.7433e-05 -2.7165e-05 -3.6225e-05)
(-3.3046e-05 -2.6385e-05 -3.5185e-05)
(-2.8664e-05 -2.4949e-05 -3.327e-05)
(-2.4356e-05 -2.2958e-05 -3.0615e-05)
(-2.0224e-05 -2.0546e-05 -2.7397e-05)
(-1.6392e-05 -1.7826e-05 -2.3769e-05)
(-1.2964e-05 -1.4872e-05 -1.9828e-05)
(-9.9903e-06 -1.1746e-05 -1.5659e-05)
(-5.3914e-05 -1.6673e-05 -2.4976e-05)
(-5.0087e-05 -1.7684e-05 -2.649e-05)
(-4.6004e-05 -1.842e-05 -2.7593e-05)
(-4.1759e-05 -1.8789e-05 -2.8147e-05)
(-3.7422e-05 -1.872e-05 -2.8045e-05)
(-3.3047e-05 -1.8183e-05 -2.7241e-05)
(-2.8683e-05 -1.7199e-05 -2.5767e-05)
(-2.4399e-05 -1.5835e-05 -2.3722e-05)
(-2.0296e-05 -1.4177e-05 -2.1237e-05)
(-1.6488e-05 -1.2302e-05 -1.8429e-05)
(-1.3072e-05 -1.0265e-05 -1.5376e-05)
(-1.0096e-05 -8.1121e-06 -1.215e-05)
(-5.3852e-05 -8.62e-06 -1.7189e-05)
(-5.0042e-05 -9.1395e-06 -1.8225e-05)
(-4.5975e-05 -9.5166e-06 -1.8977e-05)
(-4.1742e-05 -9.7046e-06 -1.9352e-05)
(-3.7415e-05 -9.6677e-06 -1.9279e-05)
(-3.3049e-05 -9.3906e-06 -1.8727e-05)
(-2.8697e-05 -8.8838e-06 -1.7716e-05)
(-2.443e-05 -8.1809e-06 -1.6314e-05)
(-2.0346e-05 -7.3256e-06 -1.4608e-05)
(-1.6554e-05 -6.3573e-06 -1.2677e-05)
(-1.3145e-05 -5.3047e-06 -1.0577e-05)
(-1.0169e-05 -4.1932e-06 -8.3602e-06)
(-5.3821e-05 2.7759e-09 -8.7988e-06)
(-5.0019e-05 2.8807e-09 -9.3277e-06)
(-4.596e-05 2.9428e-09 -9.711e-06)
(-4.1733e-05 2.9392e-09 -9.9016e-06)
(-3.7411e-05 2.8581e-09 -9.8632e-06)
(-3.305e-05 2.7009e-09 -9.5806e-06)
(-2.8704e-05 2.4768e-09 -9.0642e-06)
(-2.4446e-05 2.2029e-09 -8.3477e-06)
(-2.0372e-05 1.8948e-09 -7.4754e-06)
(-1.6587e-05 1.5597e-09 -6.4873e-06)
(-1.3183e-05 1.2013e-09 -5.4128e-06)
(-1.0206e-05 8.2886e-10 -4.2788e-06)
(-5.3821e-05 8.8041e-06 4.9883e-09)
(-5.0019e-05 9.3331e-06 5.1382e-09)
(-4.596e-05 9.7164e-06 5.2151e-09)
(-4.1734e-05 9.9069e-06 5.2017e-09)
(-3.7411e-05 9.8684e-06 5.0848e-09)
(-3.305e-05 9.5854e-06 4.8668e-09)
(-2.8704e-05 9.0686e-06 4.5634e-09)
(-2.4446e-05 8.3517e-06 4.193e-09)
(-2.0372e-05 7.4789e-06 3.7718e-09)
(-1.6587e-05 6.4902e-06 3.3114e-09)
(-1.3183e-05 5.4153e-06 2.821e-09)
(-1.0206e-05 4.2807e-06 2.3083e-09)
(-5.3853e-05 1.7199e-05 8.6318e-06)
(-5.0043e-05 1.8235e-05 9.1518e-06)
(-4.5975e-05 1.8988e-05 9.5292e-06)
(-4.1742e-05 1.9363e-05 9.7173e-06)
(-3.7415e-05 1.9289e-05 9.6802e-06)
(-3.3049e-05 1.8736e-05 9.4026e-06)
(-2.8697e-05 1.7725e-05 8.895e-06)
(-2.443e-05 1.6322e-05 8.1911e-06)
(-2.0346e-05 1.4615e-05 7.3347e-06)
(-1.6554e-05 1.2683e-05 6.3652e-06)
(-1.3145e-05 1.0582e-05 5.3112e-06)
(-1.0169e-05 8.3641e-06 4.1983e-06)
(-5.3914e-05 2.4998e-05 1.6665e-05)
(-5.0087e-05 2.6514e-05 1.7675e-05)
(-4.6005e-05 2.7617e-05 1.841e-05)
(-4.1759e-05 2.8171e-05 1.8779e-05)
(-3.7422e-05 2.8069e-05 1.871e-05)
(-3.3047e-05 2.7264e-05 1.8174e-05)
(-2.8683e-05 2.5788e-05 1.719e-05)
(-2.4399e-05 2.3741e-05 1.5826e-05)
(-2.0296e-05 2.1255e-05 1.4169e-05)
(-1.6488e-05 1.8444e-05 1.2295e-05)
(-1.3072e-05 1.5389e-05 1.0259e-05)
(-1.0096e-05 1.2159e-05 8.1076e-06)
(-5.4004e-05 3.2206e-05 2.4142e-05)
(-5.0152e-05 3.418e-05 2.562e-05)
(-4.6046e-05 3.5624e-05 2.6702e-05)
(-4.1782e-05 3.6356e-05 2.7249e-05)
(-3.7433e-05 3.6232e-05 2.7156e-05)
(-3.3046e-05 3.5192e-05 2.6376e-05)
(-2.8664e-05 3.3276e-05 2.4941e-05)
(-2.4356e-05 3.062e-05 2.2951e-05)
(-2.0224e-05 2.7402e-05 2.0539e-05)
(-1.6392e-05 2.3773e-05 1.782e-05)
(-1.2964e-05 1.9832e-05 1.4867e-05)
(-9.9903e-06 1.5662e-05 1.1742e-05)
(-5.4031e-05 -1.5964e-05 -3.9922e-05)
(-5.0171e-05 -1.6944e-05 -4.2378e-05)
(-4.6058e-05 -1.7662e-05 -4.4179e-05)
(-4.1789e-05 -1.8027e-05 -4.5094e-05)
(-3.7436e-05 -1.7967e-05 -4.4945e-05)
(-3.3045e-05 -1.745e-05 -4.3655e-05)
(-2.8658e-05 -1.6499e-05 -4.1275e-05)
(-2.4342e-05 -1.5181e-05 -3.7976e-05)
(-2.0202e-05 -1.3586e-05 -3.398e-05)
(-1.6363e-05 -1.1787e-05 -2.9477e-05)
(-1.2931e-05 -9.8339e-06 -2.4588e-05)
(-9.9578e-06 -7.7671e-06 -1.9412e-05)
(-5.3944e-05 -8.2265e-06 -3.2921e-05)
(-5.0108e-05 -8.7267e-06 -3.4925e-05)
(-4.6018e-05 -9.0913e-06 -3.6387e-05)
(-4.1766e-05 -9.2749e-06 -3.7123e-05)
(-3.7426e-05 -9.2418e-06 -3.6992e-05)
(-3.3046e-05 -8.9768e-06 -3.5932e-05)
(-2.8676e-05 -8.4902e-06 -3.3984e-05)
(-2.4385e-05 -7.8157e-06 -3.1283e-05)
(-2.0273e-05 -6.9968e-06 -2.8003e-05)
(-1.6457e-05 -6.0716e-06 -2.4298e-05)
(-1.3037e-05 -5.0664e-06 -2.0271e-05)
(-1.0062e-05 -4.0036e-06 -1.6013e-05)
(-5.3883e-05 2.2442e-08 -2.5338e-05)
(-5.0065e-05 2.3724e-08 -2.687e-05)
(-4.599e-05 2.4631e-08 -2.7984e-05)
(-4.175e-05 2.5039e-08 -2.8542e-05)
(-3.7419e-05 2.4858e-08 -2.8436e-05)
(-3.3048e-05 2.4059e-08 -2.7621e-05)
(-2.869e-05 2.2678e-08 -2.6128e-05)
(-2.4415e-05 2.0803e-08 -2.4058e-05)
(-2.0321e-05 1.8538e-08 -2.154e-05)
(-1.6521e-05 1.5982e-08 -1.8691e-05)
(-1.3109e-05 1.3216e-08 -1.5595e-05)
(-1.0133e-05 1.0315e-08 -1.2324e-05)
(-5.3852e-05 8.631e-06 -1.7197e-05)
(-5.0042e-05 9.151e-06 -1.8233e-05)
(-4.5975e-05 9.5284e-06 -1.8986e-05)
(-4.1742e-05 9.7166e-06 -1.9361e-05)
(-3.7415e-05 9.6795e-06 -1.9287e-05)
(-3.3049e-05 9.4019e-06 -1.8735e-05)
(-2.8697e-05 8.8944e-06 -1.7724e-05)
(-2.443e-05 8.1904e-06 -1.6321e-05)
(-2.0346e-05 7.334e-06 -1.4614e-05)
(-1.6554e-05 6.3644e-06 -1.2682e-05)
(-1.3145e-05 5.3104e-06 -1.0582e-05)
(-1.0169e-05 4.1975e-06 -8.3637e-06)
(-5.3852e-05 1.7195e-05 -8.6226e-06)
(-5.0042e-05 1.8231e-05 -9.1424e-06)
(-4.5975e-05 1.8983e-05 -9.5196e-06)
(-4.1742e-05 1.9358e-05 -9.7078e-06)
(-3.7415e-05 1.9285e-05 -9.6709e-06)
(-3.3049e-05 1.8732e-05 -9.3937e-06)
(-2.8697e-05 1.7721e-05 -8.8868e-06)
(-2.443e-05 1.6318e-05 -8.1835e-06)
(-2.0346e-05 1.4612e-05 -7.3279e-06)
(-1.6554e-05 1.268e-05 -6.3592e-06)
(-1.3145e-05 1.058e-05 -5.3061e-06)
(-1.0169e-05 8.3622e-06 -4.1941e-06)
(-5.3883e-05 2.534e-05 2.1007e-08)
(-5.0065e-05 2.6872e-05 2.2111e-08)
(-4.599e-05 2.7986e-05 2.2867e-08)
(-4.175e-05 2.8544e-05 2.3177e-08)
(-3.7419e-05 2.8438e-05 2.2969e-08)
(-3.3048e-05 2.7623e-05 2.2225e-08)
(-2.869e-05 2.6129e-05 2.0982e-08)
(-2.4415e-05 2.4059e-05 1.9315e-08)
(-2.0321e-05 2.1541e-05 1.731e-08)
(-1.6521e-05 1.8692e-05 1.5051e-08)
(-1.3109e-05 1.5595e-05 1.2608e-08)
(-1.0133e-05 1.2324e-05 1.0039e-08)
(-5.3944e-05 3.2929e-05 8.2488e-06)
(-5.0108e-05 3.4933e-05 8.75e-06)
(-4.6018e-05 3.6395e-05 9.1154e-06)
(-4.1766e-05 3.7131e-05 9.2992e-06)
(-3.7426e-05 3.6999e-05 9.2658e-06)
(-3.3047e-05 3.5938e-05 9e-06)
(-2.8677e-05 3.399e-05 8.5121e-06)
(-2.4385e-05 3.1288e-05 7.8357e-06)
(-2.0273e-05 2.8008e-05 7.0147e-06)
(-1.6457e-05 2.4302e-05 6.0871e-06)
(-1.3037e-05 2.0275e-05 5.0793e-06)
(-1.0062e-05 1.6016e-05 4.0137e-06)
(-5.4032e-05 3.9919e-05 1.5952e-05)
(-5.0172e-05 4.2375e-05 1.6932e-05)
(-4.6058e-05 4.4175e-05 1.7649e-05)
(-4.1789e-05 4.509e-05 1.8013e-05)
(-3.7436e-05 4.4941e-05 1.7953e-05)
(-3.3045e-05 4.3651e-05 1.7437e-05)
(-2.8658e-05 4.1271e-05 1.6486e-05)
(-2.4342e-05 3.7972e-05 1.5169e-05)
(-2.0202e-05 3.3977e-05 1.3575e-05)
(-1.6363e-05 2.9474e-05 1.1777e-05)
(-1.2931e-05 2.4585e-05 9.8261e-06)
(-9.9579e-06 1.941e-05 7.7609e-06)
(-5.4085e-05 -7.8456e-06 -4.7111e-05)
(-5.0209e-05 -8.33e-06 -5.003e-05)
(-4.6081e-05 -8.686e-06 -5.2176e-05)
(-4.1802e-05 -8.8678e-06 -5.3274e-05)
(-3.7442e-05 -8.8396e-06 -5.3108e-05)
(-3.3045e-05 -8.5856e-06 -5.1583e-05)
(-2.8648e-05 -8.1164e-06 -4.8762e-05)
(-2.4317e-05 -7.4666e-06 -4.4852e-05)
(-2.0159e-05 -6.6809e-06 -4.0124e-05)
(-1.6305e-05 -5.7964e-06 -3.4802e-05)
(-1.2866e-05 -4.8364e-06 -2.9026e-05)
(-9.8945e-06 -3.8194e-06 -2.2906e-05)
(-5.4001e-05 3.2313e-08 -4.0311e-05)
(-5.0149e-05 3.4192e-08 -4.2781e-05)
(-4.6044e-05 3.5533e-08 -4.4589e-05)
(-4.1781e-05 3.6157e-08 -4.5505e-05)
(-3.7432e-05 3.592e-08 -4.5352e-05)
(-3.3045e-05 3.4777e-08 -4.4052e-05)
(-2.8664e-05 3.2819e-08 -4.1656e-05)
(-2.4357e-05 3.0167e-08 -3.8335e-05)
(-2.0227e-05 2.6934e-08 -3.4308e-05)
(-1.6396e-05 2.3261e-08 -2.9765e-05)
(-1.2968e-05 1.9279e-08 -2.483e-05)
(-9.9943e-06 1.51e-08 -1.9607e-05)
(-5.3943e-05 8.2495e-06 -3.2928e-05)
(-5.0108e-05 8.7509e-06 -3.4932e-05)
(-4.6018e-05 9.1164e-06 -3.6394e-05)
(-4.1766e-05 9.3003e-06 -3.713e-05)
(-3.7426e-05 9.267e-06 -3.6999e-05)
(-3.3047e-05 9.0011e-06 -3.5938e-05)
(-2.8677e-05 8.5131e-06 -3.399e-05)
(-2.4385e-05 7.8366e-06 -3.1289e-05)
(-2.0273e-05 7.0154e-06 -2.8009e-05)
(-1.6457e-05 6.0875e-06 -2.4302e-05)
(-1.3037e-05 5.0794e-06 -2.0275e-05)
(-1.0062e-05 4.0136e-06 -1.6016e-05)
(-5.3914e-05 1.6664e-05 -2.4997e-05)
(-5.0087e-05 1.7675e-05 -2.6513e-05)
(-4.6004e-05 1.841e-05 -2.7617e-05)
(-4.1759e-05 1.8779e-05 -2.8171e-05)
(-3.7422e-05 1.871e-05 -2.8068e-05)
(-3.3047e-05 1.8174e-05 -2.7264e-05)
(-2.8683e-05 1.719e-05 -2.5788e-05)
(-2.4399e-05 1.5826e-05 -2.3742e-05)
(-2.0296e-05 1.4169e-05 -2.1255e-05)
(-1.6488e-05 1.2295e-05 -1.8444e-05)
(-1.3072e-05 1.0259e-05 -1.5389e-05)
(-1.0096e-05 8.107e-06 -1.216e-05)
(-5.3914e-05 2.4975e-05 -1.668e-05)
(-5.0087e-05 2.649e-05 -1.7691e-05)
(-4.6004e-05 2.7593e-05 -1.8428e-05)
(-4.1759e-05 2.8146e-05 -1.8797e-05)
(-3.7422e-05 2.8044e-05 -1.8728e-05)
(-3.3047e-05 2.724e-05 -1.8192e-05)
(-2.8683e-05 2.5765e-05 -1.7207e-05)
(-2.4399e-05 2.372e-05 -1.5842e-05)
(-2.0296e-05 2.1236e-05 -1.4183e-05)
(-1.6488e-05 1.8427e-05 -1.2307e-05)
(-1.3072e-05 1.5375e-05 -1.0269e-05)
(-1.0096e-05 1.2149e-05 -8.1152e-06)
(-5.3944e-05 3.2922e-05 -8.2296e-06)
(-5.0108e-05 3.4926e-05 -8.73e-06)
(-4.6018e-05 3.6387e-05 -9.095e-06)
(-4.1766e-05 3.7123e-05 -9.2786e-06)
(-3.7426e-05 3.6992e-05 -9.2456e-06)
(-3.3047e-05 3.5931e-05 -8.9804e-06)
(-2.8677e-05 3.3983e-05 -8.4937e-06)
(-2.4385e-05 3.1282e-05 -7.8188e-06)
(-2.0273e-05 2.8002e-05 -6.9995e-06)
(-1.6457e-05 2.4297e-05 -6.0738e-06)
(-1.3037e-05 2.0271e-05 -5.0681e-06)
(-1.0062e-05 1.6013e-05 -4.0047e-06)
(-5.4001e-05 4.0311e-05 3.0854e-08)
(-5.0149e-05 4.2781e-05 3.2544e-08)
(-4.6044e-05 4.4589e-05 3.3719e-08)
(-4.1781e-05 4.5505e-05 3.4224e-08)
(-3.7432e-05 4.5351e-05 3.394e-08)
(-3.3046e-05 4.4051e-05 3.2845e-08)
(-2.8664e-05 4.1656e-05 3.1033e-08)
(-2.4357e-05 3.8334e-05 2.8605e-08)
(-2.0227e-05 3.4308e-05 2.5646e-08)
(-1.6396e-05 2.9764e-05 2.2283e-08)
(-1.2968e-05 2.4829e-05 1.8638e-08)
(-9.9942e-06 1.9606e-05 1.4807e-08)
(-5.4085e-05 4.7114e-05 7.8715e-06)
(-5.0209e-05 5.0033e-05 8.3572e-06)
(-4.6082e-05 5.2179e-05 8.7142e-06)
(-4.1802e-05 5.3277e-05 8.8963e-06)
(-3.7442e-05 5.311e-05 8.8677e-06)
(-3.3045e-05 5.1585e-05 8.6127e-06)
(-2.8648e-05 4.8764e-05 8.142e-06)
(-2.4317e-05 4.4853e-05 7.4902e-06)
(-2.0159e-05 4.0125e-05 6.702e-06)
(-1.6305e-05 3.4803e-05 5.8146e-06)
(-1.2866e-05 2.9027e-05 4.8515e-06)
(-9.8945e-06 2.2907e-05 3.8314e-06)
(-5.4162e-05 1.6608e-08 -5.3609e-05)
(-5.0263e-05 1.7549e-08 -5.6964e-05)
(-4.6114e-05 1.8222e-08 -5.9444e-05)
(-4.182e-05 1.853e-08 -6.0723e-05)
(-3.7451e-05 1.8386e-08 -6.0549e-05)
(-3.3045e-05 1.7758e-08 -5.8809e-05)
(-2.8634e-05 1.6721e-08 -5.5576e-05)
(-2.4281e-05 1.5348e-08 -5.1096e-05)
(-2.0097e-05 1.3673e-08 -4.5692e-05)
(-1.6221e-05 1.1762e-08 -3.9624e-05)
(-1.2771e-05 9.6891e-09 -3.3042e-05)
(-9.803e-06 7.5156e-09 -2.606e-05)
(-5.4085e-05 7.8722e-06 -4.7114e-05)
(-5.0209e-05 8.3581e-06 -5.0032e-05)
(-4.6081e-05 8.7152e-06 -5.2179e-05)
(-4.1802e-05 8.8974e-06 -5.3277e-05)
(-3.7442e-05 8.8689e-06 -5.3111e-05)
(-3.3045e-05 8.6139e-06 -5.1586e-05)
(-2.8648e-05 8.1431e-06 -4.8765e-05)
(-2.4317e-05 7.4911e-06 -4.4854e-05)
(-2.0159e-05 6.7026e-06 -4.0126e-05)
(-1.6305e-05 5.815e-06 -3.4804e-05)
(-1.2866e-05 4.8517e-06 -2.9028e-05)
(-9.8946e-06 3.8313e-06 -2.2907e-05)
(-5.4031e-05 1.5953e-05 -3.9919e-05)
(-5.0171e-05 1.6932e-05 -4.2375e-05)
(-4.6058e-05 1.765e-05 -4.4175e-05)
(-4.1789e-05 1.8014e-05 -4.509e-05)
(-3.7436e-05 1.7954e-05 -4.4942e-05)
(-3.3045e-05 1.7438e-05 -4.3652e-05)
(-2.8658e-05 1.6487e-05 -4.1272e-05)
(-2.4342e-05 1.517e-05 -3.7973e-05)
(-2.0202e-05 1.3575e-05 -3.3978e-05)
(-1.6363e-05 1.1778e-05 -2.9475e-05)
(-1.2931e-05 9.826e-06 -2.4586e-05)
(-9.958e-06 7.7606e-06 -1.941e-05)
(-5.4004e-05 2.4142e-05 -3.2206e-05)
(-5.0152e-05 2.562e-05 -3.418e-05)
(-4.6046e-05 2.6702e-05 -3.5624e-05)
(-4.1782e-05 2.725e-05 -3.6356e-05)
(-3.7433e-05 2.7157e-05 -3.6233e-05)
(-3.3046e-05 2.6377e-05 -3.5193e-05)
(-2.8664e-05 2.4941e-05 -3.3277e-05)
(-2.4356e-05 2.2951e-05 -3.0621e-05)
(-2.0224e-05 2.0539e-05 -2.7403e-05)
(-1.6392e-05 1.7819e-05 -2.3774e-05)
(-1.2964e-05 1.4866e-05 -1.9832e-05)
(-9.9903e-06 1.1742e-05 -1.5662e-05)
(-5.4004e-05 3.2198e-05 -2.4153e-05)
(-5.0152e-05 3.4171e-05 -2.5633e-05)
(-4.6046e-05 3.5615e-05 -2.6715e-05)
(-4.1782e-05 3.6346e-05 -2.7263e-05)
(-3.7433e-05 3.6222e-05 -2.717e-05)
(-3.3046e-05 3.5182e-05 -2.639e-05)
(-2.8664e-05 3.3267e-05 -2.4953e-05)
(-2.4356e-05 3.0612e-05 -2.2962e-05)
(-2.0224e-05 2.7395e-05 -2.055e-05)
(-1.6392e-05 2.3766e-05 -1.7829e-05)
(-1.2964e-05 1.9826e-05 -1.4874e-05)
(-9.9903e-06 1.5657e-05 -1.1748e-05)
(-5.4032e-05 3.9921e-05 -1.5966e-05)
(-5.0172e-05 4.2377e-05 -1.6947e-05)
(-4.6058e-05 4.4178e-05 -1.7665e-05)
(-4.1789e-05 4.5093e-05 -1.803e-05)
(-3.7436e-05 4.4944e-05 -1.797e-05)
(-3.3045e-05 4.3654e-05 -1.7454e-05)
(-2.8658e-05 4.1273e-05 -1.6502e-05)
(-2.4342e-05 3.7974e-05 -1.5184e-05)
(-2.0202e-05 3.3979e-05 -1.3588e-05)
(-1.6363e-05 2.9476e-05 -1.1789e-05)
(-1.2931e-05 2.4587e-05 -9.8352e-06)
(-9.9577e-06 1.9411e-05 -7.7679e-06)
(-5.4085e-05 4.7111e-05 -7.8469e-06)
(-5.0209e-05 5.0029e-05 -8.3315e-06)
(-4.6082e-05 5.2176e-05 -8.6877e-06)
(-4.1802e-05 5.3273e-05 -8.8697e-06)
(-3.7442e-05 5.3107e-05 -8.8415e-06)
(-3.3045e-05 5.1582e-05 -8.5874e-06)
(-2.8648e-05 4.8761e-05 -8.1182e-06)
(-2.4317e-05 4.4851e-05 -7.4682e-06)
(-2.0159e-05 4.0123e-05 -6.6822e-06)
(-1.6305e-05 3.4801e-05 -5.7973e-06)
(-1.2866e-05 2.9025e-05 -4.837e-06)
(-9.8945e-06 2.2905e-05 -3.8197e-06)
(-5.4162e-05 5.3609e-05 1.5879e-08)
(-5.0263e-05 5.6964e-05 1.6663e-08)
(-4.6115e-05 5.9443e-05 1.7186e-08)
(-4.182e-05 6.0723e-05 1.7368e-08)
(-3.7451e-05 6.0549e-05 1.7149e-08)
(-3.3045e-05 5.8808e-05 1.6541e-08)
(-2.8634e-05 5.5575e-05 1.5624e-08)
(-2.4281e-05 5.1094e-05 1.4436e-08)
(-2.0097e-05 4.569e-05 1.2975e-08)
(-1.6221e-05 3.9622e-05 1.1299e-08)
(-1.2771e-05 3.3041e-05 9.4846e-09)
(-9.8029e-06 2.6059e-05 7.582e-09)
(-9.4707e-06 -3.4207e-05 3.0027e-06)
(-1.2427e-05 -4.3423e-05 3.8074e-06)
(-1.5915e-05 -5.2067e-05 4.5634e-06)
(-1.9875e-05 -6.0055e-05 5.2616e-06)
(-2.4157e-05 -6.7227e-05 5.8871e-06)
(-2.8591e-05 -7.3222e-05 6.4089e-06)
(-3.305e-05 -7.7553e-05 6.7869e-06)
(-3.7481e-05 -7.9849e-05 6.9893e-06)
(-4.1881e-05 -8.0011e-05 7.0058e-06)
(-4.6228e-05 -7.821e-05 6.8503e-06)
(-5.0452e-05 -7.4813e-05 6.5553e-06)
(-5.4436e-05 -7.0281e-05 6.1614e-06)
(-9.5574e-06 -3.161e-05 8.4369e-06)
(-1.2519e-05 -4.0103e-05 1.0692e-05)
(-1.5997e-05 -4.8082e-05 1.2813e-05)
(-1.9932e-05 -5.5447e-05 1.4771e-05)
(-2.4186e-05 -6.2038e-05 1.652e-05)
(-2.8597e-05 -6.7529e-05 1.7975e-05)
(-3.3045e-05 -7.1495e-05 1.9027e-05)
(-3.7474e-05 -7.361e-05 1.9592e-05)
(-4.1868e-05 -7.3784e-05 1.9643e-05)
(-4.6202e-05 -7.2166e-05 1.9218e-05)
(-5.0405e-05 -6.9082e-05 1.8405e-05)
(-5.4365e-05 -6.4944e-05 1.7311e-05)
(-9.6194e-06 -2.8206e-05 1.3936e-05)
(-1.2584e-05 -3.5762e-05 1.7656e-05)