/*--------------------------------*- C++ -*----------------------------------*\
| =========                 |                                                 |
| \\      /  F ield         | OpenFOAM: The Open Source CFD Toolbox           |
|  \\    /   O peration     | Version:  4.1                                   |
|   \\  /    A nd           | Web:      www.OpenFOAM.org                      |
|    \\/     M anipulation  |                                                 |
\*---------------------------------------------------------------------------*/
FoamFile
{
    version     2.0;
    format      ascii;
    class       pointVectorField;
    location    "0.0057";
    object      pointDisplacement_Next;
}
// * * * * * * * * * * * * * * * * * * * * * * * * * * * * * * * * * * * * * //

dimensions      [0 1 0 0 0 0 0];

internalField   uniform (0 0 0);

boundaryField
{
    inlet
    {
        type            fixedValue;
        value           nonuniform 0();
    }
    outlet
    {
        type            fixedValue;
        value           nonuniform 0();
    }
    mantle
    {
        type            fixedValue;
        value           nonuniform List<vector> 
416
(
(-5.0189e-06 -3.2796e-05 4.5388e-11)
(-7.1607e-06 -4.6118e-05 -1.0065e-10)
(-7.1129e-06 -4.5168e-05 8.9339e-06)
(-4.9384e-06 -3.2118e-05 6.342e-06)
(-7.0456e-06 -4.2474e-05 1.7571e-05)
(-4.8393e-06 -3.0252e-05 1.2517e-05)
(-7.0393e-06 -3.8254e-05 2.5586e-05)
(-4.8587e-06 -2.7312e-05 1.8285e-05)
(-7.0566e-06 -3.259e-05 3.259e-05)
(-4.9075e-06 -2.3321e-05 2.3321e-05)
(-7.0396e-06 -2.5588e-05 3.8256e-05)
(-4.859e-06 -1.8286e-05 2.7313e-05)
(-7.0462e-06 -1.7574e-05 4.2478e-05)
(-4.8399e-06 -1.2518e-05 3.0255e-05)
(-7.1136e-06 -8.9357e-06 4.5173e-05)
(-4.939e-06 -6.3433e-06 3.2122e-05)
(-7.1613e-06 -7.7933e-10 4.6123e-05)
(-5.0193e-06 -5.9801e-10 3.2801e-05)
(-9.9522e-06 -5.8392e-05 -4.1577e-10)
(-9.9351e-06 -5.7171e-05 1.133e-05)
(-9.8905e-06 -5.3715e-05 2.2242e-05)
(-9.8649e-06 -4.8333e-05 3.233e-05)
(-9.8496e-06 -4.1152e-05 4.1152e-05)
(-9.8651e-06 -3.2332e-05 4.8336e-05)
(-9.8909e-06 -2.2245e-05 5.3721e-05)
(-9.9357e-06 -1.1332e-05 5.7179e-05)
(-9.9529e-06 -8.2956e-10 5.8399e-05)
(-1.3602e-05 -6.9733e-05 -1.8151e-10)
(-1.3562e-05 -6.8296e-05 1.3567e-05)
(-1.3506e-05 -6.4166e-05 2.66e-05)
(-1.3503e-05 -5.7675e-05 3.8586e-05)
(-1.3518e-05 -4.9066e-05 4.9066e-05)
(-1.3503e-05 -3.8589e-05 5.7679e-05)
(-1.3506e-05 -2.6604e-05 6.4174e-05)
(-1.3562e-05 -1.3569e-05 6.8305e-05)
(-1.3602e-05 -1.1747e-09 6.9742e-05)
(-1.7921e-05 -8.0628e-05 -3.5244e-10)
(-1.7858e-05 -7.898e-05 1.5701e-05)
(-1.7782e-05 -7.4179e-05 3.0763e-05)
(-1.781e-05 -6.6647e-05 4.4585e-05)
(-1.7854e-05 -5.6663e-05 5.6662e-05)
(-1.7809e-05 -4.4588e-05 6.665e-05)
(-1.7781e-05 -3.0767e-05 7.4186e-05)
(-1.7857e-05 -1.5703e-05 7.8989e-05)
(-1.7921e-05 -8.8603e-10 8.0637e-05)
(-2.2566e-05 -9.1161e-05 -1.3879e-10)
(-2.2505e-05 -8.9251e-05 1.7711e-05)
(-2.2436e-05 -8.3792e-05 3.4713e-05)
(-2.2458e-05 -7.5272e-05 5.0344e-05)
(-2.2498e-05 -6.4019e-05 6.4019e-05)
(-2.2458e-05 -5.0347e-05 7.5273e-05)
(-2.2435e-05 -3.4716e-05 8.3796e-05)
(-2.2504e-05 -1.7713e-05 8.9256e-05)
(-2.2565e-05 -8.9091e-10 9.1166e-05)
(-2.7239e-05 -0.00010027 -6.0263e-10)
(-2.7185e-05 -9.8113e-05 1.9446e-05)
(-2.7123e-05 -9.207e-05 3.8121e-05)
(-2.7145e-05 -8.2705e-05 5.5316e-05)
(-2.7175e-05 -7.0369e-05 7.0368e-05)
(-2.7144e-05 -5.5317e-05 8.2705e-05)
(-2.7122e-05 -3.8122e-05 9.207e-05)
(-2.7185e-05 -1.9447e-05 9.8112e-05)
(-2.7238e-05 -2.6353e-10 0.00010027)
(-3.1725e-05 -0.00010659 -3.4451e-10)
(-3.1691e-05 -0.00010434 2.0711e-05)
(-3.1655e-05 -9.7942e-05 4.058e-05)
(-3.1672e-05 -8.7937e-05 5.8815e-05)
(-3.1698e-05 -7.4772e-05 7.4771e-05)
(-3.1672e-05 -5.8815e-05 8.7935e-05)
(-3.1655e-05 -4.0581e-05 9.7939e-05)
(-3.1692e-05 -2.0711e-05 0.00010434)
(-3.1726e-05 -5.6041e-10 0.00010658)
(-3.6089e-05 -0.00010965 -6.4785e-10)
(-3.6079e-05 -0.00010737 2.1346e-05)
(-3.6075e-05 -0.00010081 4.1807e-05)
(-3.6097e-05 -9.0497e-05 6.0528e-05)
(-3.6115e-05 -7.6916e-05 7.6915e-05)
(-3.6097e-05 -6.0527e-05 9.0495e-05)
(-3.6075e-05 -4.1806e-05 0.00010081)
(-3.608e-05 -2.1346e-05 0.00010737)
(-3.6091e-05 -3.4497e-10 0.00010965)
(-4.0468e-05 -0.00010936 -5.2918e-10)
(-4.0472e-05 -0.00010709 2.1272e-05)
(-4.0494e-05 -0.00010057 4.1677e-05)
(-4.0523e-05 -9.0321e-05 6.0404e-05)
(-4.0542e-05 -7.6794e-05 7.6793e-05)
(-4.0524e-05 -6.0404e-05 9.0319e-05)
(-4.0494e-05 -4.1677e-05 0.00010057)
(-4.0473e-05 -2.1272e-05 0.00010709)
(-4.0469e-05 -4.0542e-10 0.00010936)
(-4.4913e-05 -0.00010605 -5.2426e-10)
(-4.4936e-05 -0.00010383 2.0595e-05)
(-4.4969e-05 -9.7528e-05 4.0391e-05)
(-4.5007e-05 -8.7652e-05 5.8618e-05)
(-4.5013e-05 -7.4575e-05 7.4575e-05)
(-4.5007e-05 -5.8618e-05 8.7651e-05)
(-4.497e-05 -4.0391e-05 9.7527e-05)
(-4.4937e-05 -2.0596e-05 0.00010383)
(-4.4914e-05 -2.0721e-10 0.00010605)
(-4.9379e-05 -0.00010033 -3.583e-10)
(-4.9402e-05 -9.826e-05 1.9489e-05)
(-4.9444e-05 -9.2337e-05 3.8243e-05)
(-4.9461e-05 -8.3027e-05 5.5533e-05)
(-4.9463e-05 -7.065e-05 7.065e-05)
(-4.9461e-05 -5.5533e-05 8.3027e-05)
(-4.9444e-05 -3.8244e-05 9.2337e-05)
(-4.9403e-05 -1.949e-05 9.8261e-05)
(-4.938e-05 9.918e-11 0.00010033)
(-5.3648e-05 -9.3371e-05 -1.2371e-10)
(-5.3676e-05 -9.147e-05 1.815e-05)
(-5.372e-05 -8.5978e-05 3.5627e-05)
(-5.3719e-05 -7.7354e-05 5.1754e-05)
(-5.3708e-05 -6.5837e-05 6.5837e-05)
(-5.3719e-05 -5.1754e-05 7.7354e-05)
(-5.3721e-05 -3.5627e-05 8.5978e-05)
(-5.3677e-05 -1.8151e-05 9.1471e-05)
(-5.3649e-05 3.4553e-10 9.3372e-05)
(-7.1134e-06 8.9336e-06 4.517e-05)
(-4.9387e-06 6.3413e-06 3.2118e-05)
(-7.0458e-06 1.757e-05 4.2473e-05)
(-4.8394e-06 1.2515e-05 3.025e-05)
(-7.0393e-06 2.5584e-05 3.8251e-05)
(-4.8585e-06 1.8283e-05 2.7309e-05)
(-7.0562e-06 3.2586e-05 3.2586e-05)
(-4.907e-06 2.3318e-05 2.3319e-05)
(-7.0389e-06 3.8251e-05 2.5585e-05)
(-4.8582e-06 2.731e-05 1.8284e-05)
(-7.0452e-06 4.2474e-05 1.7571e-05)
(-4.8388e-06 3.0253e-05 1.2517e-05)
(-7.1125e-06 4.5171e-05 8.9343e-06)
(-4.9379e-06 3.2123e-05 6.3426e-06)
(-7.1604e-06 4.6125e-05 -3.5292e-10)
(-5.0184e-06 3.2806e-05 -3.0672e-10)
(-9.9356e-06 1.133e-05 5.7175e-05)
(-9.8908e-06 2.2241e-05 5.3716e-05)
(-9.8649e-06 3.2328e-05 4.8331e-05)
(-9.8493e-06 4.1148e-05 4.1148e-05)
(-9.8646e-06 4.8329e-05 3.2328e-05)
(-9.8902e-06 5.3714e-05 2.2241e-05)
(-9.9349e-06 5.7172e-05 1.133e-05)
(-9.9522e-06 5.8396e-05 -4.436e-10)
(-1.3562e-05 1.3567e-05 6.8303e-05)
(-1.3506e-05 2.66e-05 6.4169e-05)
(-1.3503e-05 3.8585e-05 5.7674e-05)
(-1.3518e-05 4.9062e-05 4.9063e-05)
(-1.3503e-05 5.7672e-05 3.8584e-05)
(-1.3505e-05 6.4165e-05 2.6599e-05)
(-1.3562e-05 6.8297e-05 1.3566e-05)
(-1.3602e-05 6.9737e-05 -1.2337e-10)
(-1.7857e-05 1.5701e-05 7.8987e-05)
(-1.7782e-05 3.0764e-05 7.4183e-05)
(-1.7809e-05 4.4585e-05 6.6647e-05)
(-1.7854e-05 5.6659e-05 5.666e-05)
(-1.7809e-05 6.6644e-05 4.4584e-05)
(-1.7781e-05 7.4177e-05 3.0762e-05)
(-1.7857e-05 7.8981e-05 1.57e-05)
(-1.7921e-05 8.0632e-05 -2.5118e-10)
(-2.2505e-05 1.7712e-05 8.9254e-05)
(-2.2435e-05 3.4714e-05 8.3794e-05)
(-2.2458e-05 5.0344e-05 7.5271e-05)
(-2.2498e-05 6.4016e-05 6.4017e-05)
(-2.2458e-05 7.5268e-05 5.0343e-05)
(-2.2435e-05 8.3789e-05 3.4712e-05)
(-2.2505e-05 8.9249e-05 1.771e-05)
(-2.2566e-05 9.116e-05 -1.4738e-10)
(-2.7185e-05 1.9446e-05 9.8112e-05)
(-2.7123e-05 3.8121e-05 9.2069e-05)
(-2.7145e-05 5.5316e-05 8.2704e-05)
(-2.7175e-05 7.0366e-05 7.0367e-05)
(-2.7145e-05 8.2702e-05 5.5315e-05)
(-2.7123e-05 9.2067e-05 3.812e-05)
(-2.7185e-05 9.8109e-05 1.9445e-05)
(-2.7239e-05 0.00010026 -6.7651e-10)
(-3.1692e-05 2.0711e-05 0.00010434)
(-3.1655e-05 4.058e-05 9.7941e-05)
(-3.1673e-05 5.8815e-05 8.7937e-05)
(-3.1698e-05 7.4772e-05 7.4772e-05)
(-3.1673e-05 8.7937e-05 5.8815e-05)
(-3.1656e-05 9.7941e-05 4.058e-05)
(-3.1692e-05 0.00010434 2.0711e-05)
(-3.1726e-05 0.00010659 -3.8541e-10)
(-3.608e-05 2.1346e-05 0.00010737)
(-3.6075e-05 4.1807e-05 0.00010082)
(-3.6098e-05 6.053e-05 9.0499e-05)
(-3.6115e-05 7.6919e-05 7.6919e-05)
(-3.6098e-05 9.05e-05 6.053e-05)
(-3.6076e-05 0.00010082 4.1808e-05)
(-3.6081e-05 0.00010737 2.1346e-05)
(-3.6091e-05 0.00010966 -5.7517e-10)
(-4.0473e-05 2.1272e-05 0.00010709)
(-4.0494e-05 4.1678e-05 0.00010057)
(-4.0524e-05 6.0407e-05 9.0324e-05)
(-4.0542e-05 7.6799e-05 7.6798e-05)
(-4.0524e-05 9.0327e-05 6.0408e-05)
(-4.0495e-05 0.00010058 4.168e-05)
(-4.0473e-05 0.0001071 2.1273e-05)
(-4.0469e-05 0.00010937 -2.216e-10)
(-4.4937e-05 2.0596e-05 0.00010383)
(-4.497e-05 4.0393e-05 9.7532e-05)
(-4.5007e-05 5.8622e-05 8.7657e-05)
(-4.5013e-05 7.4581e-05 7.4581e-05)
(-4.5007e-05 8.7659e-05 5.8623e-05)
(-4.497e-05 9.7536e-05 4.0394e-05)
(-4.4937e-05 0.00010384 2.0597e-05)
(-4.4913e-05 0.00010606 -9.2375e-11)
(-4.9403e-05 1.949e-05 9.8263e-05)
(-4.9444e-05 3.8246e-05 9.2342e-05)
(-4.9461e-05 5.5538e-05 8.3033e-05)
(-4.9463e-05 7.0657e-05 7.0656e-05)
(-4.9461e-05 8.3035e-05 5.5538e-05)
(-4.9444e-05 9.2346e-05 3.8247e-05)
(-4.9402e-05 9.8269e-05 1.9491e-05)
(-4.9379e-05 0.00010033 -2.9515e-11)
(-5.3677e-05 1.8152e-05 9.1473e-05)
(-5.3721e-05 3.5629e-05 8.5983e-05)
(-5.372e-05 5.1758e-05 7.7359e-05)
(-5.3709e-05 6.5843e-05 6.5843e-05)
(-5.372e-05 7.7361e-05 5.1759e-05)
(-5.3721e-05 8.5986e-05 3.563e-05)
(-5.3676e-05 9.1478e-05 1.8152e-05)
(-5.3649e-05 9.3378e-05 -1.0356e-10)
(-7.1128e-06 4.5175e-05 -8.9359e-06)
(-4.9382e-06 3.2127e-05 -6.344e-06)
(-7.0456e-06 4.248e-05 -1.7575e-05)
(-4.8393e-06 3.0259e-05 -1.252e-05)
(-7.0394e-06 3.8258e-05 -2.5589e-05)
(-4.8587e-06 2.7316e-05 -1.8289e-05)
(-7.0566e-06 3.2592e-05 -3.2592e-05)
(-4.9075e-06 2.3323e-05 -2.3324e-05)
(-7.0395e-06 2.5588e-05 -3.8258e-05)
(-4.8589e-06 1.8287e-05 -2.7316e-05)
(-7.0459e-06 1.7573e-05 -4.2479e-05)
(-4.8397e-06 1.2518e-05 -3.0257e-05)
(-7.1132e-06 8.9349e-06 -4.5174e-05)
(-4.9388e-06 6.3428e-06 -3.2124e-05)
(-7.161e-06 -2.4868e-10 -4.6125e-05)
(-5.0192e-06 -2.4821e-10 -3.2803e-05)
(-9.9351e-06 5.7176e-05 -1.1332e-05)
(-9.8905e-06 5.372e-05 -2.2244e-05)
(-9.8649e-06 4.8336e-05 -3.2333e-05)
(-9.8496e-06 4.1153e-05 -4.1154e-05)
(-9.865e-06 3.2332e-05 -4.8337e-05)
(-9.8906e-06 2.2243e-05 -5.3721e-05)
(-9.9352e-06 1.1331e-05 -5.7178e-05)
(-9.9523e-06 -4.8266e-10 -5.8399e-05)
(-1.3562e-05 6.8301e-05 -1.3568e-05)
(-1.3506e-05 6.417e-05 -2.6602e-05)
(-1.3503e-05 5.7677e-05 -3.8588e-05)
(-1.3518e-05 4.9066e-05 -4.9067e-05)
(-1.3503e-05 3.8587e-05 -5.7678e-05)
(-1.3505e-05 2.6601e-05 -6.4172e-05)
(-1.3562e-05 1.3567e-05 -6.8303e-05)
(-1.3601e-05 -3.3761e-10 -6.974e-05)
(-1.7857e-05 7.8984e-05 -1.5702e-05)
(-1.7781e-05 7.4182e-05 -3.0765e-05)
(-1.7809e-05 6.6647e-05 -4.4587e-05)
(-1.7854e-05 5.6661e-05 -5.6663e-05)
(-1.7809e-05 4.4586e-05 -6.6649e-05)
(-1.7781e-05 3.0764e-05 -7.4184e-05)
(-1.7857e-05 1.5701e-05 -7.8985e-05)
(-1.792e-05 -6.534e-10 -8.0634e-05)
(-2.2505e-05 8.925e-05 -1.7712e-05)
(-2.2435e-05 8.3791e-05 -3.4714e-05)
(-2.2457e-05 7.5269e-05 -5.0345e-05)
(-2.2498e-05 6.4017e-05 -6.4018e-05)
(-2.2457e-05 5.0344e-05 -7.5271e-05)
(-2.2435e-05 3.4713e-05 -8.3793e-05)
(-2.2504e-05 1.7711e-05 -8.9252e-05)
(-2.2565e-05 -1.0318e-09 -9.1162e-05)
(-2.7185e-05 9.8109e-05 -1.9446e-05)
(-2.7123e-05 9.2066e-05 -3.8121e-05)
(-2.7144e-05 8.2701e-05 -5.5315e-05)
(-2.7174e-05 7.0365e-05 -7.0366e-05)
(-2.7144e-05 5.5315e-05 -8.2703e-05)
(-2.7122e-05 3.812e-05 -9.2069e-05)
(-2.7185e-05 1.9446e-05 -9.8111e-05)
(-2.7238e-05 -7.6321e-10 -0.00010027)
(-3.1692e-05 0.00010434 -2.0712e-05)
(-3.1655e-05 9.7938e-05 -4.058e-05)
(-3.1672e-05 8.7934e-05 -5.8815e-05)
(-3.1698e-05 7.4771e-05 -7.4771e-05)
(-3.1672e-05 5.8815e-05 -8.7937e-05)
(-3.1655e-05 4.058e-05 -9.7942e-05)
(-3.1692e-05 2.0711e-05 -0.00010434)
(-3.1726e-05 -4.8921e-10 -0.00010659)
(-3.608e-05 0.00010737 -2.1347e-05)
(-3.6075e-05 0.00010081 -4.1807e-05)
(-3.6097e-05 9.0497e-05 -6.0529e-05)
(-3.6115e-05 7.6918e-05 -7.6919e-05)
(-3.6097e-05 6.053e-05 -9.05e-05)
(-3.6075e-05 4.1808e-05 -0.00010082)
(-3.608e-05 2.1346e-05 -0.00010737)
(-3.609e-05 -6.9268e-10 -0.00010966)
(-4.0473e-05 0.00010709 -2.1273e-05)
(-4.0494e-05 0.00010057 -4.1679e-05)
(-4.0523e-05 9.0324e-05 -6.0407e-05)
(-4.0542e-05 7.6798e-05 -7.6798e-05)
(-4.0523e-05 6.0407e-05 -9.0326e-05)
(-4.0494e-05 4.1679e-05 -0.00010058)
(-4.0472e-05 2.1273e-05 -0.0001071)
(-4.0468e-05 -4.8828e-10 -0.00010937)
(-4.4937e-05 0.00010384 -2.0597e-05)
(-4.4969e-05 9.7534e-05 -4.0394e-05)
(-4.5007e-05 8.7657e-05 -5.8622e-05)
(-4.5012e-05 7.458e-05 -7.4581e-05)
(-4.5006e-05 5.8623e-05 -8.7659e-05)
(-4.4969e-05 4.0394e-05 -9.7537e-05)
(-4.4936e-05 2.0597e-05 -0.00010384)
(-4.4912e-05 -1.6656e-10 -0.00010606)
(-4.9402e-05 9.8268e-05 -1.9491e-05)
(-4.9444e-05 9.2344e-05 -3.8247e-05)
(-4.946e-05 8.3034e-05 -5.5538e-05)
(-4.9462e-05 7.0657e-05 -7.0657e-05)
(-4.946e-05 5.5539e-05 -8.3035e-05)
(-4.9443e-05 3.8247e-05 -9.2346e-05)
(-4.9402e-05 1.9491e-05 -9.827e-05)
(-4.9378e-05 9.9285e-12 -0.00010033)
(-5.3676e-05 9.1477e-05 -1.8152e-05)
(-5.3721e-05 8.5985e-05 -3.563e-05)
(-5.3719e-05 7.7361e-05 -5.1759e-05)
(-5.3708e-05 6.5844e-05 -6.5844e-05)
(-5.3719e-05 5.176e-05 -7.7362e-05)
(-5.372e-05 3.5631e-05 -8.5987e-05)
(-5.3676e-05 1.8152e-05 -9.148e-05)
(-5.3648e-05 5.6746e-11 -9.3381e-05)
(-7.1131e-06 -8.9351e-06 -4.5172e-05)
(-4.9387e-06 -6.3428e-06 -3.2121e-05)
(-7.0458e-06 -1.7572e-05 -4.2475e-05)
(-4.8395e-06 -1.2517e-05 -3.0252e-05)
(-7.0394e-06 -2.5585e-05 -3.8253e-05)
(-4.8586e-06 -1.8284e-05 -2.731e-05)
(-7.0566e-06 -3.2587e-05 -3.2587e-05)
(-4.9072e-06 -2.3318e-05 -2.3317e-05)
(-7.0395e-06 -3.825e-05 -2.5584e-05)
(-4.8586e-06 -2.7307e-05 -1.8282e-05)
(-7.0458e-06 -4.247e-05 -1.757e-05)
(-4.8394e-06 -3.0248e-05 -1.2515e-05)
(-7.113e-06 -4.5166e-05 -8.9336e-06)
(-4.9385e-06 -3.2115e-05 -6.3413e-06)
(-9.9351e-06 -1.1332e-05 -5.7176e-05)
(-9.8906e-06 -2.2243e-05 -5.3718e-05)
(-9.8651e-06 -3.233e-05 -4.8333e-05)
(-9.8498e-06 -4.115e-05 -4.115e-05)
(-9.8652e-06 -4.8331e-05 -3.2329e-05)
(-9.8908e-06 -5.3713e-05 -2.2241e-05)
(-9.9352e-06 -5.717e-05 -1.133e-05)
(-1.3562e-05 -1.3568e-05 -6.8302e-05)
(-1.3505e-05 -2.6602e-05 -6.4171e-05)
(-1.3503e-05 -3.8588e-05 -5.7677e-05)
(-1.3518e-05 -4.9066e-05 -4.9066e-05)
(-1.3503e-05 -5.7675e-05 -3.8587e-05)
(-1.3506e-05 -6.4166e-05 -2.6601e-05)
(-1.3562e-05 -6.8296e-05 -1.3567e-05)
(-1.7857e-05 -1.5702e-05 -7.8985e-05)
(-1.7781e-05 -3.0765e-05 -7.4184e-05)
(-1.7809e-05 -4.4588e-05 -6.665e-05)
(-1.7854e-05 -5.6664e-05 -5.6664e-05)
(-1.7809e-05 -6.6649e-05 -4.4588e-05)
(-1.7782e-05 -7.4181e-05 -3.0765e-05)
(-1.7858e-05 -7.898e-05 -1.5701e-05)
(-2.2504e-05 -1.7713e-05 -8.9253e-05)
(-2.2434e-05 -3.4715e-05 -8.3796e-05)
(-2.2457e-05 -5.0348e-05 -7.5275e-05)
(-2.2498e-05 -6.4022e-05 -6.4022e-05)
(-2.2457e-05 -7.5274e-05 -5.0348e-05)
(-2.2435e-05 -8.3795e-05 -3.4715e-05)
(-2.2505e-05 -8.9252e-05 -1.7712e-05)
(-2.7185e-05 -1.9448e-05 -9.8113e-05)
(-2.7122e-05 -3.8124e-05 -9.2073e-05)
(-2.7144e-05 -5.532e-05 -8.2709e-05)
(-2.7174e-05 -7.0372e-05 -7.0373e-05)
(-2.7144e-05 -8.2709e-05 -5.532e-05)
(-2.7122e-05 -9.2073e-05 -3.8124e-05)
(-2.7185e-05 -9.8114e-05 -1.9447e-05)
(-3.1691e-05 -2.0713e-05 -0.00010434)
(-3.1654e-05 -4.0583e-05 -9.7945e-05)
(-3.1672e-05 -5.882e-05 -8.7942e-05)
(-3.1697e-05 -7.4777e-05 -7.4777e-05)
(-3.1671e-05 -8.7942e-05 -5.882e-05)
(-3.1654e-05 -9.7945e-05 -4.0583e-05)
(-3.1691e-05 -0.00010434 -2.0713e-05)
(-3.608e-05 -2.1348e-05 -0.00010738)
(-3.6074e-05 -4.181e-05 -0.00010082)
(-3.6096e-05 -6.0533e-05 -9.0504e-05)
(-3.6114e-05 -7.6923e-05 -7.6923e-05)
(-3.6096e-05 -9.0503e-05 -6.0533e-05)
(-3.6074e-05 -0.00010082 -4.1809e-05)
(-3.6079e-05 -0.00010737 -2.1347e-05)
(-4.0472e-05 -2.1274e-05 -0.0001071)
(-4.0493e-05 -4.1681e-05 -0.00010058)
(-4.0522e-05 -6.0409e-05 -9.0328e-05)
(-4.0541e-05 -7.6801e-05 -7.68e-05)
(-4.0522e-05 -9.0327e-05 -6.0409e-05)
(-4.0493e-05 -0.00010057 -4.168e-05)
(-4.0472e-05 -0.00010709 -2.1273e-05)
(-4.4936e-05 -2.0597e-05 -0.00010384)
(-4.4969e-05 -4.0394e-05 -9.7537e-05)
(-4.5006e-05 -5.8623e-05 -8.766e-05)
(-4.5012e-05 -7.4581e-05 -7.4581e-05)
(-4.5006e-05 -8.7658e-05 -5.8623e-05)
(-4.4969e-05 -9.7532e-05 -4.0393e-05)
(-4.4936e-05 -0.00010383 -2.0597e-05)
(-4.9402e-05 -1.9491e-05 -9.827e-05)
(-4.9443e-05 -3.8247e-05 -9.2346e-05)
(-4.946e-05 -5.5538e-05 -8.3035e-05)
(-4.9462e-05 -7.0656e-05 -7.0657e-05)
(-4.946e-05 -8.3033e-05 -5.5538e-05)
(-4.9443e-05 -9.2342e-05 -3.8246e-05)
(-4.9402e-05 -9.8263e-05 -1.949e-05)
(-5.3676e-05 -1.8152e-05 -9.1479e-05)
(-5.372e-05 -3.563e-05 -8.5986e-05)
(-5.3719e-05 -5.1759e-05 -7.7361e-05)
(-5.3708e-05 -6.5843e-05 -6.5844e-05)
(-5.3719e-05 -7.736e-05 -5.1758e-05)
(-5.372e-05 -8.5982e-05 -3.5629e-05)
(-5.3676e-05 -9.1472e-05 -1.8151e-05)
)
;
    }
    procBoundary1to0
    {
        type            processor;
    }
    procBoundary1to2
    {
        type            processor;
    }
}


// ************************************************************************* //
