/*--------------------------------*- C++ -*----------------------------------*\
  =========                 |
  \\      /  F ield         | OpenFOAM: The Open Source CFD Toolbox
   \\    /   O peration     | Website:  https://openfoam.org
    \\  /    A nd           | Version:  8
     \\/     M anipulation  |
\*---------------------------------------------------------------------------*/
FoamFile
{
    version     2.0;
    format      ascii;
    class       volScalarField;
    location    "0.0985000";
    object      p;
}
// * * * * * * * * * * * * * * * * * * * * * * * * * * * * * * * * * * * * * //

dimensions      [0 2 -2 0 0 0 0];

internalField   nonuniform List<scalar> 
900
(
1486532.06834025
4556557.18802133
7746616.50189605
11009142.7130735
14363400.4909312
17812066.9733644
21359406.9194231
25009229.8239527
28765636.4470585
32633107.2051026
36616491.5961799
40720924.1869415
44951836.5100029
49314900.0660208
53816307.4361052
58462552.0072634
63260602.201332
68217691.3676364
73341702.1373584
78640998.8424133
84124552.8186508
89801818.4993524
95682927.4456885
101778809.12857
108101166.322989
114662582.386716
121476295.383799
128556849.69512
135919801.035296
143582081.256383
151561446.728565
159877479.700684
168551306.355189
177605978.993615
187066108.314607
196958290.895335
207311842.572432
218158623.379609
229533602.542851
241473205.013656
254018880.817961
267215424.023915
281113344.775877
295763348.684771
311224145.255169
327559742.654452
344841993.656416
363145314.059434
382549513.123328
403146259.086018
425035698.18069
448328059.666583
473123184.955722
499547260.261029
527729707.084613
557828071.383215
589952294.263856
624210162.159465
660665059.901404
699409360.248442
740167453.254303
782568514.99541
826226840.045047
870699951.97004
915167860.845421
958773066.820565
1000858876.09148
1040776688.29713
1077652836.58265
1110869733.44803
1140075459.81792
1164979366.85006
1185295662.62321
1201026847.23958
1212162573.8953
1218722210.79972
1220772405.21668
1218411390.78457
1211384298.3298
1199841939.52948
1183002428.41848
1161267928.65356
1132261831.0805
1097838915.04815
1051055603.53907
999075187.061765
923121901.323419
860754873.148196
791287377.950164
726560321.078646
659003863.299647
592677359.908195
524971463.061349
457262547.054609
388600146.29928
319473882.461007
249586225.517245
179068415.123962
107954455.545072
36159396.1929979
1516512.44449015
4580508.46736786
7774924.99752259
11039723.7709975
14395332.8651716
17844766.3853754
21392600.1559703
25042791.4173535
28799554.9638586
32667395.8627703
36651155.9390337
40755969.3041771
44987256.29226
49350737.6471183
53852563.0336578
58499243.4207795
63297708.5148622
68255254.6597976
73379730.6593095
78679508.8506449
84163530.9289888
89841278.5800989
95722897.3479071
101819298.729631
108142185.507002
114704096.206391
121518363.719272
128599469.168416
135962998.688095
143625779.338448
151605710.866496
159922310.218256
168596723.658432
177651910.246135
187112522.051425
197005240.207721
207359300.130378
218206574.956727
229581749.499814
241521744.625934
254067683.100184
267264577.444987
281162093.180267
295811989.1317
311272496.63696
327607806.55566
344888897.884738
363190548.86226
382593319.118407
403188210.770429
425075300.551926
448362271.181645
473153650.012508
499572390.321107
527750727.600872
557837597.380382
589948515.904831
624187499.882978
660627306.287581
699320029.682987
740026563.780118
782384041.183852
826003298.101108
870410568.62968
914821420.675161
958398160.976621
1000462811.80763
1040342773.09048
1077207754.92875
1110438035.03998
1139661218.66159
1164582197.80512
1184938080.05519
1200709812.924
1211883961.2792
1218492876.76775
1220585057.92664
1218263181.94634
1211273021.32196
1199759295.57949
1182945213.1574
1161237549.317
1132232321.12423
1097806128.06724
1051029995.76614
999083380.314082
923266509.263537
860887086.95233
791402930.04837
726637858.425448
659067366.244892
592732706.72498
525013327.855004
457291051.070825
388621482.96884
319484066.655228
249588049.328403
179060842.043244
107928490.703751
36082615.0029265
1516224.1225515
4591500.5780188
7793638.98838066
11060292.3168421
14416963.1634285
17866998.248242
21415199.5988867
25065647.5694305
28822639.8250364
32690710.2020808
36674700.5404454
40779742.3839088
45011258.8943409
49374988.5996642
53877066.7698062
58524002.7178334
63322716.6917514
68280528.1458092
73405277.7196636
78705332.2897522
84189621.8732503
89867640.5845206
95749542.9980755
101846232.499001
108169401.604527
114731578.196187
121546130.202677
128627522.647773
135991331.293506
143654353.078184
151634537.838412
159951392.301972
168626047.270363
177681420.776604
187142184.48081
197035056.223204
207389241.713475
218236562.677269
229611637.601575
241551540.435297
254097337.737955
267293959.880008
281190851.937441
295840080.516541
311299835.199082
327634164.034528
344913714.899703
363213412.346319
382614103.497004
403206564.307715
425090317.813071
448372671.437114
473159212.520788
499572672.124218
527744305.181402
557820808.26799
589917951.158893
624140001.38942
660555710.008042
699210654.677177
739873359.402183
782188776.906124
825764023.80406
870122229.483955
914488935.183838
958034294.556385
1000074456.93132
1039934526.69728
1076792919.21635
1110031955.08215
1139272411.49933
1164217909.35031
1184607814.90784
1200418231.71335
1211633114.41668
1218286217.09995
1220419644.23316
1218136448.695
1211181435.15936
1199702971.94965
1182912334.36419
1161229851.60479
1132235841.40619
1097830290.50985
1051047242.52182
999147012.844529
923420860.474541
861030748.147381
791511706.460975
726733837.913784
659140607.586029
592794678.293662
525061284.324344
457328881.279418
388648379.981357
319502065.094612
249596813.396509
179060719.912302
107919993.574378
36082068.6042631
1509702.93088432
4591511.40606012
7793596.87027945
11060442.0428257
14417210.6130141
17867354.181692
21415568.4616179
25065959.5855052
28822860.3440287
32690825.0227484
36674698.6793928
40779611.8760208
45010992.2684866
49374584.9390613
53876519.9468712
58523301.4807637
63321847.7522627
68279486.6655374
73404056.9791263
78703918.6797435
84187996.0875823
89865788.5744478
95747455.1897309
101843894.477745
108166788.835511
114728663.528426
121542899.621651
128623957.832454
135987397.821071
143650006.460452
151629751.833375
159946141.137034
168620285.941702
177675081.362586
187135207.510737
197027398.439648
207380845.153681
218227316.980608
229601417.032869
241540272.646774
254084952.538471
267280271.85142
281175606.659329
295823134.099042
311281079.002534
327613328.478581
344890355.136837
363187160.230783
382584743.665862
403173780.006548
425053289.21802
448330572.983025
473111582.141718
499519289.637595
527683787.677673
557750802.617139
589835759.5797
624043893.581352
660439730.630297
699066591.779863
739696808.268509
781981972.967238
825525880.813095
869850833.611002
914188765.02502
957715419.983811
999742577.575114
1039594858.60065
1076455387.7835
1109708070.08752
1138968879.87885
1163940995.62175
1184363522.26793
1200210331.75335
1211463693.20862
1218156688.04921
1220328526.36584
1218082095.16661
1211161575.93738
1199717943.19318
1182954574.04294
1161301885.33697
1132328680.11712
1097955844.02145
1051182711.33994
999334989.775066
923548585.10662
861162905.011926
791614650.891854
726826920.574473
659215388.775998
592858777.142002
525113314.525958
457371756.431493
388681167.449963
319526452.930982
249612495.577597
179068316.897079
107921481.008033
36087657.4676142
1508832.76304038
4586898.11611287
7777001.45880291
11041962.4160588
14397897.8268053
17847677.8812339
21395557.0023289
25045574.4732227
28802063.6903345
32669591.1620066
36653005.4962392
40757437.6339355
44988317.8693903
49351395.701839
53852796.7150048
58499021.2860052
63296984.8732142
68254020.7811381
73377965.01347
78677172.305014
84160561.8208509
89837635.4868916
95718554.0062311
101814211.228606
108136281.657574
114697286.439752
121510614.963962
128590722.186974
135953156.117775
143614692.965515
151593313.056244
159908519.808167
168581410.388208
177634860.436065
187093553.314224
196984231.466741
207336071.66695
218180805.933116
229553017.054151
241489873.181893
254032432.603672
267225436.740777
281118191.881028
295762967.745316
311217991.929881
327547048.511273
344820470.191551
363113313.462432
382506687.318012
403091181.373436
424965487.533454
448236835.064321
473011540.682611
499412633.639639
527569575.297967
557627261.51421
589701145.944677
623897118.575704
660277544.772897
698883143.151484
739490325.157512
781755293.741686
825279671.351898
869584235.71834
913906538.590247
957426497.627332
999452034.541444
1039306519.74481
1076177729.44842
1109450050.88989
1138735276.85811
1163736110.57439
1184192182.92151
1200074907.32557
1211365466.43153
1218096842.46453
1220305960.98594
1218095890.47435
1211210794.5179
1199802787.81956
1183071739.43295
1161454545.56614
1132512156.94316
1098180540.5979
1051438849.45781
999646156.594691
923657452.065575
861284342.67776
791717016.77577
726916744.178453
659292495.770559
592925713.109643
525170132.788281
457419420.237802
388719799.761815
319556514.808538
249634039.340737
179081623.327373
107927166.097244
36088698.3659144
1495593.16727134
4570358.15465289
7743869.95830575
11005860.4204369
14360418.883658
17809495.3115403
21356741.399533
25006090.8968669
28761865.8570072
32628642.707975
36611274.3007313
40714892.6529922
44944929.2050287
49307136.0473175
53807634.6205879
58452922.3003222
63249911.2007015
68205937.5733745
73328833.9677517
78626950.8699731
84109202.5407111
89785091.2685701
95664777.1805474
101759149.337795
108079875.791536
114639472.37298
121451332.728693
128529904.888524
135890728.243887
143550568.095756
151527411.544596
159840755.05375
168511684.682295
177563059.561285
187019561.769255
196907935.356624
207257343.113965
218099491.584133
229468941.376956
241402887.244436
253942368.84369
267132085.089974
281021280.813631
295662292.022078
311113327.64545
327438112.353745
344706880.338496
362994721.131138
382382805.500244
402961657.694886
424829788.507268
448094350.743454
472861937.308416
499255541.69406
527404356.606346
557452765.761025
589516447.574774
623701738.786476
660070226.806633
698661057.855777
739253874.576982
781507540.20958
825022607.070049
869319011.047206
913638088.038981
957161988.028759
999196049.826981
1039062741.353
1075952777.86501
1109250162.22643
1138563776.4233
1163595874.20212
1184086456.95663
1200004948.24433
1211331941.8114
1218100538.89828
1220346212.49183
1218172354.56028
1211323652.72676
1199952811.38437
1183258634.84135
1161681776.35538
1132780312.60675
1098498449.93343
1051807990.51073
1000071546.2572
923755103.581673
861396969.321085
791820026.673887
727005431.567629
659373047.867391
592995956.313083
525231982.725814
457472125.798554
388764102.140569
319592108.506771
249661099.514858
179100127.535478
107937182.430526
36090166.1584836
1465615.95788942
4535039.80649848
7691203.78502676
10950174.2664098
14303357.4832043
17751541.2102907
21297875.0494576
24946238.2625467
28700961.7070876
32566638.0136495
36548126.4339422
40650560.4723159
44879371.3497812
49240311.4242949
53739498.4022425
58383427.0074906
63179005.7956935
68133571.0937378
73254951.5926163
78551494.0652414
84032108.2132625
89706294.3787229
95584209.8785311
101676738.823724
107995543.750429
114553134.527036
121362904.171951
128439293.250386
135797834.3609
143455282.901835
151429625.764029
159740350.262319
168408533.415252
177457021.485271
186910490.443212
196795678.421329
207141734.951847
217980350.889077
229346067.455942
241276085.208788
253811422.313779
266996758.543643
280881299.30939
295517405.406018
310963255.307309
327282548.892858
344545475.217188
362827131.39907
382208693.756677
402780648.43393
424641460.688352
447898254.559926
472657732.04864
499042826.847344
527182740.524687
557221813.280589
589276052.084206
623452132.164464
659811954.096333
698394902.526814
738982418.114235
781234054.364214
824750341.731779
869051685.550586
913380850.958147
956919945.462857
998973265.22623
1038863249.15083
1075781068.96736
1109109477.73354
1138456018.00849
1163522636.83603
1184049030.85925
1200003506.7432
1211366616.63508
1218171483.44279
1220453302.27971
1218315834.33795
1211504825.00381
1200173231.82579
1183520875.99977
1161989586.67732
1133140001.89229
1098917940.27391
1052300243.1469
1000621989.10715
923844618.980809
861501298.089707
791925123.484869
727094832.92326
659458602.93316
593070749.476842
525299979.938961
457530948.019947
388814929.932428
319634024.82248
249694335.209394
179124459.960142
107952563.378356
36093474.5939198
1410527.99220347
4468618.60817896
7611749.30308053
10869104.9842092
14221494.9323142
17668713.7730974
21213829.0835089
24860818.8540854
28614075.1210919
32478220.1309531
36458122.4856796
40558917.1381534
44786033.3845295
49145221.1642755
53642594.5582386
58284645.8448293
63078279.6935771
68030829.4510211
73150119.272392
78444492.5606191
83922854.6113618
89594701.3459768
95470184.7070085
101560183.40569
107876355.013659
114431202.816408
121238113.672449
128311519.881657
135666948.486529
143321146.111788
151292091.606986
159599260.500847
168263722.123298
177308313.433641
186757699.015341
196638602.342307
206980159.849579
217814055.585788
229174815.468341
241099621.785409
253629468.34619
266809036.492583
280687519.445727
295317254.960486
310756379.133032
327068598.587137
344324116.013814
362598009.998748
381971398.565852
402534757.390831
424386641.215726
447634215.017139
472384094.405638
498759139.479869
526888819.160234
556917964.59857
588963003.53147
623130871.30541
659484830.615091
698066616.270371
738657973.996856
780917088.65372
824445512.959904
868765668.263776
913119316.23397
956686051.228327
998770684.151105
1038696675.30849
1075652986.4791
1109020119.02524
1138405878.25706
1163512106.54014
1184077341.14705
1200069729.87451
1211470320.81273
1218312137.71222
1220631242.74317
1218532089.89105
1211761573.98992
1200473344.4257
1183869109.26228
1162391657.09045
1133605561.49346
1099459085.18534
1052935965.86262
1001329376.5028
923926472.200762
861603983.508
792035767.834298
727190465.890116
659552835.858215
593154222.968022
525377340.38105
457598996.37723
388874806.334211
319684452.900827
249735468.547819
179155959.106074
107974596.308607
36101299.8533168
1331156.20136935
4378380.64610082
7513813.24868469
10771226.7642967
14123263.4212364
17569493.6610893
21113235.0377658
24758657.2550971
28510242.8217334
32372647.597614
36350749.727498
40449684.9473093
44674879.5058061
49032078.98692
53527394.148915
58167315.0152939
62958742.4372208
67909004.699954
73025921.1113934
78317832.0868027
83793638.7478206
89462831.1923892
95335554.3540114
101422681.519266
107735865.402734
114287603.378759
121091271.788631
128161295.006154
135513194.699701
143163710.731267
151130808.127559
159433949.768493
168094197.625749
177134382.246067
186579153.932378
196455215.328103
206791690.635919
217620260.78949
228975442.83593
240894381.633436
253418048.41637
266591131.590839
280462839.023018
295085446.275686
310517045.96464
326821361.327624
344068649.030879
362333953.287484
381698287.923715
402252137.344811
424094202.834429
447331768.307763
472071199.376551
498435310.557357
526553893.769107
556572638.018917
588608328.480251
622768151.747221
659117000.129006
697700494.184462
738299639.61234
780570176.00471
824115189.815118
868460278.31989
912844774.605951
956444380.443568
998565355.688609
1038533001.45978
1075532398.90352
1108941343.78049
1138368821.74814
1163516744.96862
1184121747.61599
1200152574.00963
1211590850.82004
1218469510.93533
1220825723.235
1218765536.76013
1212035504.86245
1200792647.51428
1184236710.30607
1162818575.79945
1134094702.17194
1100037549.98673
1053603037.02077
1002100459.58089
923990857.037884
861714099.016372
792142748.357714
727291528.754594
659648536.89652
593242214.690686
525457819.749017
457671193.771498
388938215.438741
319738552.896727
249779909.321874
179190452.501843
107999820.908555
36124860.9354119
)
;

boundaryField
{
    dieWall
    {
        type            zeroGradient;
    }
    outlet
    {
        type            fixedValue;
        value           uniform 0;
    }
    Wire
    {
        type            zeroGradient;
    }
    inlet
    {
        type            fixedValue;
        value           uniform 0;
    }
    back
    {
        type            wedge;
    }
    front
    {
        type            wedge;
    }
}


// ************************************************************************* //
