/*--------------------------------*- C++ -*----------------------------------*\
| =========                 |                                                 |
| \\      /  F ield         | OpenFOAM: The Open Source CFD Toolbox           |
|  \\    /   O peration     | Version:  4.1                                   |
|   \\  /    A nd           | Web:      www.OpenFOAM.org                      |
|    \\/     M anipulation  |                                                 |
\*---------------------------------------------------------------------------*/
FoamFile
{
    version     2.0;
    format      ascii;
    class       volVectorField;
    location    "0.0070";
    object      U;
}
// * * * * * * * * * * * * * * * * * * * * * * * * * * * * * * * * * * * * * //

dimensions      [0 1 -1 0 0 0 0];

internalField   nonuniform List<vector> 
1536
(
(-0.020748 0.00052672 1.825e-06)
(-0.023085 -0.0029054 -1.551e-08)
(-0.021793 -0.0050213 -5.5739e-07)
(-0.017948 -0.0066059 -5.8211e-07)
(-0.013136 -0.0066773 -5.7964e-07)
(-0.0085212 -0.0054266 -6.2768e-07)
(-0.0049535 -0.0034248 -9.1286e-07)
(-0.002895 -0.0012983 -6.5238e-07)
(-0.0022048 -8.8298e-05 -8.4349e-07)
(-0.0018642 -1.8827e-05 -3.5266e-07)
(-0.0017903 -0.0019702 3.3165e-08)
(0.0015284 -0.0026096 2.595e-08)
(-0.019936 0.0027647 0.0027338)
(-0.02224 0.00028886 0.0021584)
(-0.021099 -0.0018122 0.0015113)
(-0.017499 -0.0031525 0.0013186)
(-0.012995 -0.0034095 0.0010062)
(-0.0086139 -0.0027961 0.0006427)
(-0.0052001 -0.0017347 0.00021416)
(-0.0031918 -0.00053488 -0.00012008)
(-0.0025301 7.1726e-05 -0.00027938)
(-0.0022428 4.0931e-05 -0.00018333)
(-0.0022098 -0.0012985 9.713e-06)
(0.001601 -0.0020304 0.00015343)
(-0.019053 0.0022922 0.00076237)
(-0.021266 -5.8977e-05 0.00084674)
(-0.020426 -0.0019393 0.00089443)
(-0.017225 -0.0030652 0.0011499)
(-0.012949 -0.0033306 0.0011181)
(-0.0087356 -0.0028556 0.00082057)
(-0.0054546 -0.0019565 0.00036363)
(-0.0035103 -0.00094363 -1.4252e-05)
(-0.00284 -0.00033758 -0.00019223)
(-0.002526 -0.00033553 -9.7168e-05)
(-0.0025535 -0.0013864 0.00029042)
(0.001409 -0.0017289 0.00054912)
(-0.018681 0.00080301 1.7278e-05)
(-0.020974 -0.00061746 0.00080658)
(-0.020248 -0.00161 0.0014984)
(-0.017102 -0.0023136 0.001955)
(-0.012915 -0.002421 0.0019486)
(-0.0087865 -0.001988 0.0015632)
(-0.0055793 -0.001243 0.00094913)
(-0.0036689 -0.00046924 0.00038466)
(-0.0029856 6.8249e-06 2.9691e-05)
(-0.0026324 -4.1801e-05 8.6369e-05)
(-0.0026498 -0.0008985 0.00063628)
(0.0013585 -0.0013576 0.00087605)
(-0.01868 -1.6295e-05 -0.00080234)
(-0.020974 -0.00080711 0.00061686)
(-0.020248 -0.0014989 0.0016097)
(-0.017102 -0.0019554 0.0023137)
(-0.012915 -0.0019489 0.0024214)
(-0.0087866 -0.0015633 0.0019893)
(-0.0055793 -0.00094872 0.001244)
(-0.0036688 -0.00038379 0.00047055)
(-0.0029855 -2.9029e-05 -5.7159e-06)
(-0.0026325 -8.5728e-05 4.2865e-05)
(-0.0026498 -0.00063511 0.0009)
(0.0013587 -0.00087549 0.0013582)
(-0.019053 -0.00076026 -0.0022906)
(-0.021266 -0.00084679 5.8892e-05)
(-0.020426 -0.00089438 0.0019392)
(-0.017226 -0.00115 0.0030653)
(-0.01295 -0.0011185 0.0033307)
(-0.0087359 -0.00082002 0.0028564)
(-0.0054549 -0.0003643 0.0019576)
(-0.0035104 1.3489e-05 0.00094488)
(-0.0028399 0.00019167 0.00033843)
(-0.0025262 9.6747e-05 0.00033588)
(-0.0025532 -0.00029029 0.0013871)
(0.00141 -0.00054921 0.0017292)
(-0.019937 -0.0027296 -0.0027592)
(-0.022239 -0.0021588 -0.00028884)
(-0.021099 -0.001512 0.0018121)
(-0.017499 -0.0013188 0.0031533)
(-0.012995 -0.0010075 0.00341)
(-0.0086143 -0.00064477 0.0027974)
(-0.0051999 -0.00021503 0.0017357)
(-0.0031917 0.0001195 0.00053574)
(-0.0025298 0.00028003 -7.0452e-05)
(-0.0022431 0.00018305 -4.0406e-05)
(-0.0022098 -9.1434e-06 0.0012994)
(0.0016017 -0.00015378 0.0020301)
(-0.020751 -5.3768e-07 -0.00052738)
(-0.023081 -6.5463e-07 0.0029055)
(-0.021794 -3.9255e-07 0.005022)
(-0.017948 -5.465e-07 0.0066071)
(-0.013136 -1.6896e-07 0.0066784)
(-0.0085219 -9.5581e-07 0.0054275)
(-0.0049541 -2.2327e-07 0.0034259)
(-0.0028957 -5.1343e-07 0.001299)
(-0.0022047 1.1035e-08 8.8811e-05)
(-0.0018641 -8.8211e-09 1.833e-05)
(-0.0017895 -4.3025e-07 0.0019696)
(0.0015297 -2.9729e-07 0.0026089)
(-0.019936 0.0027657 -0.002733)
(-0.022239 0.00029114 -0.002159)
(-0.021098 -0.0018096 -0.0015123)
(-0.017498 -0.00315 -0.0013199)
(-0.012994 -0.0034068 -0.0010076)
(-0.0086132 -0.0027935 -0.00064432)
(-0.0051992 -0.0017317 -0.00021576)
(-0.0031915 -0.00053184 0.00011907)
(-0.0025303 7.4329e-05 0.00027833)
(-0.0022431 4.2815e-05 0.00018282)
(-0.0022102 -0.0012977 -9.6448e-06)
(0.0016011 -0.0020303 -0.00015334)
(-0.019533 0.0042445 6.586e-07)
(-0.021812 0.001684 2.527e-07)
(-0.020742 -0.0007074 -3.0825e-07)
(-0.017413 -0.0019727 -5.7801e-07)
(-0.013171 -0.0023915 -5.7116e-07)
(-0.0089908 -0.0021386 -9.5114e-07)
(-0.0057246 -0.0014918 -8.4509e-07)
(-0.0037211 -0.0007379 -7.7357e-07)
(-0.0029468 -0.00020638 -6.5481e-07)
(-0.0025789 -0.00021912 -1.551e-07)
(-0.0025785 -0.0012756 2.1927e-07)
(0.0016286 -0.0017228 1.5936e-07)
(-0.01863 0.0027746 -0.0006845)
(-0.020917 0.00068996 -0.00074686)
(-0.020172 -0.0010797 -0.00052465)
(-0.017174 -0.0020136 -0.00028027)
(-0.013158 -0.0023148 -0.00020185)
(-0.009166 -0.002033 -0.00020229)
(-0.0060038 -0.0014225 -0.00025716)
(-0.0040548 -0.00078379 -0.00029954)
(-0.0032548 -0.00026872 -0.00025999)
(-0.0028029 -0.00025709 -0.00019507)
(-0.0028757 -0.0010989 -7.8219e-06)
(0.0013851 -0.0014302 0.00026671)
(-0.018296 0.0018418 -0.0012639)
(-0.02068 0.00064304 -0.00058442)
(-0.020043 -0.00046354 0.00024982)
(-0.017107 -0.0010986 0.00073297)
(-0.013162 -0.0013002 0.00087117)
(-0.0092448 -0.0010901 0.00073977)
(-0.0061339 -0.00067964 0.00048163)
(-0.0042113 -0.00027654 0.00025674)
(-0.003387 4.4082e-05 7.5246e-05)
(-0.002879 -5.3432e-06 9.6207e-05)
(-0.0029319 -0.00064257 0.00043616)
(0.0013369 -0.001048 0.00060057)
(-0.018296 0.0012645 -0.0018413)
(-0.020679 0.00058408 -0.00064355)
(-0.020043 -0.00025035 0.00046328)
(-0.017107 -0.00073356 0.0010984)
(-0.013162 -0.00087183 0.0012998)
(-0.0092449 -0.00074032 0.0010901)
(-0.0061341 -0.00048234 0.00067918)
(-0.0042112 -0.0002574 0.00027622)
(-0.0033869 -7.5817e-05 -4.4246e-05)
(-0.002879 -9.6701e-05 5.2035e-06)
(-0.0029319 -0.00043642 0.00064296)
(0.0013369 -0.00060073 0.0010481)
(-0.01863 0.00068448 -0.0027737)
(-0.020917 0.00074663 -0.00069016)
(-0.020172 0.00052449 0.0010796)
(-0.017174 0.00028001 0.0020136)
(-0.013159 0.00020136 0.0023145)
(-0.0091658 0.00020149 0.002033)
(-0.0060035 0.000256 0.0014228)
(-0.004055 0.00029818 0.00078421)
(-0.003255 0.00025906 0.00026894)
(-0.0028031 0.00019399 0.00025726)
(-0.0028758 7.0231e-06 0.0010995)
(0.0013852 -0.00026739 0.0014305)
(-0.019533 -1.2533e-06 -0.0042421)
(-0.021811 -1.399e-06 -0.0016845)
(-0.020743 -1.1631e-06 0.00070701)
(-0.017413 -5.6334e-07 0.0019726)
(-0.013171 -4.885e-07 0.0023915)
(-0.0089909 -1.695e-06 0.0021387)
(-0.0057248 6.0872e-08 0.0014919)
(-0.0037211 1.9976e-07 0.00073826)
(-0.0029467 7.6874e-08 0.00020668)
(-0.0025791 -3.8267e-07 0.00021931)
(-0.0025787 -6.8225e-07 0.0012766)
(0.0016286 -5.1494e-07 0.0017231)
(-0.019936 0.002728 -0.0027619)
(-0.022238 0.0021575 -0.00029146)
(-0.021098 0.0015105 0.0018088)
(-0.017498 0.0013178 0.00315)
(-0.012994 0.001007 0.0034064)
(-0.0086132 0.00064395 0.0027933)
(-0.0051995 0.00021448 0.0017321)
(-0.0031918 -0.00012031 0.00053261)
(-0.0025304 -0.00027997 -7.2997e-05)
(-0.0022435 -0.00018387 -4.2022e-05)
(-0.0022102 8.1804e-06 0.001299)
(0.0016016 0.00015317 0.0020302)
(-0.019052 0.0022941 -0.00076182)
(-0.021267 -5.7056e-05 -0.00084787)
(-0.020425 -0.0019377 -0.00089537)
(-0.017224 -0.0030632 -0.0011511)
(-0.012948 -0.0033284 -0.0011196)
(-0.0087348 -0.0028536 -0.00082106)
(-0.005454 -0.0019546 -0.00036456)
(-0.0035102 -0.00094143 1.3672e-05)
(-0.0028408 -0.00033597 0.00019137)
(-0.0025269 -0.00033429 9.6222e-05)
(-0.002554 -0.0013856 -0.00029096)
(0.0014093 -0.0017289 -0.00054952)
(-0.018629 0.0027775 0.00068642)
(-0.020917 0.00069195 0.00074703)
(-0.020171 -0.0010778 0.00052428)
(-0.017173 -0.0020114 0.00027963)
(-0.013157 -0.0023128 0.00020118)
(-0.0091645 -0.0020309 0.0002016)
(-0.0060028 -0.0014204 0.00025623)
(-0.0040544 -0.00078169 0.000299)
(-0.003255 -0.00026725 0.00025958)
(-0.0028035 -0.00025602 0.00019473)
(-0.0028757 -0.0010983 7.76e-06)
(0.0013857 -0.0014301 -0.00026672)
(-0.017918 0.0019668 7.8625e-07)
(-0.020194 0.00038221 3.0385e-07)
(-0.019615 -0.0009991 1.1057e-07)
(-0.016912 -0.001721 -8.0909e-08)
(-0.01311 -0.001937 -2.2778e-07)
(-0.0092834 -0.0016688 -9.5035e-08)
(-0.0062247 -0.0011982 -1.0333e-07)
(-0.0043076 -0.0006856 -1.1867e-07)
(-0.0034868 -0.00029342 4.2464e-08)
(-0.0030057 -0.00026958 4.4361e-08)
(-0.0031215 -0.0008761 1.4905e-09)
(0.0012385 -0.0010963 -7.158e-08)
(-0.017602 0.0012089 -0.00069534)
(-0.019962 0.00019714 -0.00016913)
(-0.019471 -0.00065412 0.0004331)
(-0.016819 -0.0011076 0.00070065)
(-0.013108 -0.0012383 0.00075835)
(-0.0093562 -0.0010564 0.00068524)
(-0.0063368 -0.0007472 0.00051239)
(-0.0044561 -0.00043183 0.00035336)
(-0.0036235 -0.00016089 0.00022406)
(-0.0030898 -0.00015857 0.00019962)
(-0.0031912 -0.00058034 0.00034641)
(0.0011801 -0.0007518 0.00032224)
(-0.017602 0.00069567 -0.0012084)
(-0.019962 0.00016868 -0.00019763)
(-0.01947 -0.00043371 0.00065371)
(-0.016819 -0.00070121 0.0011073)
(-0.013108 -0.00075857 0.0012381)
(-0.0093563 -0.00068524 0.0010562)
(-0.0063369 -0.00051262 0.0007471)
(-0.004456 -0.00035346 0.00043187)
(-0.0036235 -0.00022406 0.000161)
(-0.0030899 -0.00019955 0.00015852)
(-0.0031912 -0.00034615 0.00058064)
(0.0011801 -0.00032227 0.0007518)
(-0.017918 -7.6768e-07 -0.0019663)
(-0.020194 -8.2955e-07 -0.00038256)
(-0.019615 -6.0203e-07 0.0009988)
(-0.016912 -3.9308e-07 0.0017207)
(-0.01311 -3.1557e-07 0.0019364)
(-0.0092833 -1.9705e-07 0.0016682)
(-0.0062246 -8.4569e-08 0.0011981)
(-0.0043079 -2.3839e-08 0.00068554)
(-0.0034869 -2.5124e-07 0.00029333)
(-0.0030058 -4.6221e-07 0.00026947)
(-0.0031214 -2.6718e-07 0.00087638)
(0.0012388 -2.5883e-07 0.0010963)
(-0.018629 -0.00068592 -0.0027762)
(-0.020916 -0.00074811 -0.00069244)
(-0.020171 -0.00052566 0.0010774)
(-0.017173 -0.00028092 0.0020115)
(-0.013157 -0.00020203 0.0023127)
(-0.0091648 -0.000202 0.0020311)
(-0.0060031 -0.00025641 0.0014205)
(-0.0040542 -0.00029901 0.00078172)
(-0.0032549 -0.00025959 0.00026735)
(-0.0028036 -0.00019482 0.00025578)
(-0.0028758 -7.8428e-06 0.0010985)
(0.0013857 0.00026681 0.0014303)
(-0.019052 0.00076005 -0.0022935)
(-0.021265 0.00084667 5.6231e-05)
(-0.020426 0.00089411 0.0019369)
(-0.017225 0.0011495 0.0030627)
(-0.012949 0.001119 0.0033278)
(-0.008735 0.00082122 0.0028536)
(-0.005454 0.00036365 0.0019544)
(-0.0035104 -1.493e-05 0.00094152)
(-0.0028407 -0.00019216 0.00033643)
(-0.0025269 -9.7265e-05 0.00033444)
(-0.0025539 0.00029009 0.0013863)
(0.0014099 0.00054911 0.001729)
(-0.018681 0.00080365 -1.8443e-05)
(-0.020974 -0.00061778 -0.00080803)
(-0.020248 -0.0016104 -0.0014993)
(-0.017102 -0.0023139 -0.0019565)
(-0.012915 -0.0024214 -0.0019506)
(-0.0087866 -0.0019881 -0.0015648)
(-0.0055795 -0.0012428 -0.0009508)
(-0.0036694 -0.00046909 -0.00038628)
(-0.0029862 6.977e-06 -3.1702e-05)
(-0.0026327 -4.191e-05 -8.7519e-05)
(-0.00265 -0.00089838 -0.00063694)
(0.0013588 -0.0013576 -0.00087642)
(-0.018296 0.001843 0.0012643)
(-0.02068 0.00064387 0.00058382)
(-0.020043 -0.00046281 -0.00025048)
(-0.017106 -0.0010981 -0.00073414)
(-0.013162 -0.0012997 -0.00087234)
(-0.0092444 -0.0010892 -0.00074101)
(-0.0061337 -0.00067869 -0.00048294)
(-0.0042113 -0.00027573 -0.00025783)
(-0.0033874 4.4495e-05 -7.6269e-05)
(-0.0028791 -4.9435e-06 -9.6967e-05)
(-0.0029313 -0.00064221 -0.00043651)
(0.0013377 -0.0010477 -0.00060071)
(-0.017602 0.0012095 0.00069612)
(-0.019962 0.00019774 0.00016915)
(-0.01947 -0.00065364 -0.00043341)
(-0.016819 -0.0011071 -0.00070134)
(-0.013108 -0.0012376 -0.00075904)
(-0.0093561 -0.0010557 -0.000686)
(-0.0063367 -0.00074641 -0.00051341)
(-0.0044563 -0.00043105 -0.00035405)
(-0.0036236 -0.00015991 -0.00022454)
(-0.003089 -0.00015804 -0.00019991)
(-0.00319 -0.00058008 -0.00034663)
(0.001181 -0.00075167 -0.00032246)
(-0.017286 0.00051678 1.75e-07)
(-0.019698 4.4454e-05 -2.3841e-07)
(-0.0193 -0.00030041 -2.4913e-07)
(-0.01674 -0.00045164 -3.9238e-07)
(-0.013097 -0.00048716 -5.4427e-07)
(-0.0094176 -0.00042148 -5.3191e-07)
(-0.0064485 -0.00025783 -7.2487e-07)
(-0.004603 -0.000118 -5.7166e-07)
(-0.0037674 2.9126e-05 -4.4144e-07)
(-0.0031824 3.2022e-06 -2.6074e-07)
(-0.0032682 -0.00025631 -1.8571e-07)
(0.0011113 -0.00042465 -1.8287e-07)
(-0.017286 -6.4919e-08 -0.00051642)
(-0.019697 -2.8251e-07 -4.4934e-05)
(-0.0193 -3.4855e-07 0.00029984)
(-0.01674 -3.3537e-07 0.00045103)
(-0.013097 -4.8509e-08 0.00048669)
(-0.0094176 4.1075e-07 0.00042156)
(-0.0064486 -2.2992e-08 0.00025723)
(-0.0046029 -2.9087e-08 0.00011743)
(-0.0037674 4.8794e-09 -2.9632e-05)
(-0.0031827 -1.5128e-07 -3.6133e-06)
(-0.0032684 -1.2675e-08 0.00025607)
(0.0011111 -7.0323e-08 0.00042453)
(-0.017602 -0.000696 -0.0012094)
(-0.019961 -0.0001695 -0.00019839)
(-0.01947 0.00043287 0.00065312)
(-0.016819 0.00070063 0.0011066)
(-0.013108 0.00075815 0.0012371)
(-0.0093559 0.00068549 0.0010547)
(-0.0063361 0.00051259 0.00074627)
(-0.0044563 0.00035316 0.00043115)
(-0.0036237 0.00022374 0.00016007)
(-0.0030894 0.00019912 0.00015803)
(-0.0031906 0.00034592 0.00058039)
(0.0011806 0.00032198 0.00075169)
(-0.018296 -0.0012646 -0.0018428)
(-0.020679 -0.00058472 -0.00064491)
(-0.020042 0.00024925 0.00046188)
(-0.017106 0.00073288 0.0010973)
(-0.013162 0.00087164 0.0012993)
(-0.0092445 0.00073934 0.0010882)
(-0.0061338 0.00048205 0.00067835)
(-0.0042111 0.00025697 0.00027524)
(-0.0033872 7.5554e-05 -4.5049e-05)
(-0.0028792 9.6392e-05 4.4268e-06)
(-0.0029316 0.00043612 0.00064218)
(0.0013373 0.00060045 0.0010478)
(-0.01868 1.6279e-05 -0.00080358)
(-0.020973 0.00080693 0.00061638)
(-0.020248 0.001498 0.0016093)
(-0.017102 0.001955 0.0023133)
(-0.012915 0.0019497 0.0024211)
(-0.0087863 0.0015633 0.0019888)
(-0.0055792 0.00094877 0.0012431)
(-0.0036694 0.00038362 0.00046971)
(-0.0029862 2.9453e-05 -6.2575e-06)
(-0.0026328 8.5606e-05 4.2252e-05)
(-0.0026502 0.00063532 0.00089921)
(0.0013586 0.00087553 0.001358)
(-0.018681 -1.6375e-05 0.00080167)
(-0.020974 -0.00080774 -0.00061786)
(-0.020248 -0.001499 -0.0016107)
(-0.017102 -0.0019559 -0.0023148)
(-0.012915 -0.0019495 -0.0024229)
(-0.0087868 -0.0015635 -0.0019904)
(-0.0055796 -0.00094895 -0.0012457)
(-0.0036693 -0.00038401 -0.00047167)
(-0.002986 -2.9977e-05 4.3814e-06)
(-0.0026326 -8.5978e-05 -4.3929e-05)
(-0.0026499 -0.00063507 -0.00090059)
(0.0013592 -0.0008757 -0.0013585)
(-0.018296 0.0012651 0.0018421)
(-0.02068 0.00058432 0.00064347)
(-0.020043 -0.00024984 -0.00046343)
(-0.017106 -0.0007332 -0.0010988)
(-0.013162 -0.0008718 -0.0013003)
(-0.0092445 -0.00074011 -0.0010905)
(-0.0061339 -0.00048196 -0.00067999)
(-0.0042112 -0.00025728 -0.00027662)
(-0.0033872 -7.5637e-05 4.3149e-05)
(-0.0028791 -9.6437e-05 -5.7836e-06)
(-0.0029313 -0.00043607 -0.0006434)
(0.0013378 -0.00060064 -0.0010481)
(-0.017602 0.0006964 0.001209)
(-0.019962 0.0001694 0.00019746)
(-0.01947 -0.00043317 -0.00065398)
(-0.016819 -0.00070072 -0.0011079)
(-0.013108 -0.00075787 -0.0012387)
(-0.0093562 -0.00068468 -0.0010569)
(-0.0063368 -0.00051171 -0.00074791)
(-0.0044561 -0.00035282 -0.00043239)
(-0.0036234 -0.00022317 -0.00016136)
(-0.0030889 -0.00019891 -0.00015901)
(-0.0031899 -0.00034576 -0.00058109)
(0.0011811 -0.00032232 -0.00075191)
(-0.017286 2.3892e-07 0.00051644)
(-0.019698 -5.2933e-09 4.4295e-05)
(-0.0193 -6.1057e-08 -0.00030068)
(-0.01674 -5.2133e-08 -0.0004522)
(-0.013097 1.5829e-07 -0.00048802)
(-0.0094177 6.5431e-07 -0.00042291)
(-0.0064487 1.8262e-07 -0.00025897)
(-0.0046028 4.8385e-08 -0.00011871)
(-0.0037671 2.8437e-07 2.8131e-05)
(-0.0031822 1.6224e-07 2.655e-06)
(-0.0032679 2.8058e-07 -0.00025677)
(0.0011114 -1.6423e-07 -0.00042478)
(-0.017286 -0.00051636 1.6297e-08)
(-0.019697 -4.4728e-05 -3.8583e-07)
(-0.0193 0.00029997 -4.2187e-07)
(-0.01674 0.00045153 -5.653e-07)
(-0.013097 0.00048743 -6.2542e-07)
(-0.0094178 0.00042288 -5.974e-07)
(-0.0064488 0.00025827 -8.0229e-07)
(-0.0046028 0.000118 -5.7695e-07)
(-0.0037671 -2.8698e-05 -6.3157e-07)
(-0.0031824 -3.1719e-06 -4.687e-07)
(-0.0032681 0.00025645 -3.9634e-07)
(0.0011113 0.00042442 -1.3589e-07)
(-0.017602 -0.0012085 -0.00069596)
(-0.019962 -0.00019742 -0.00016957)
(-0.019471 0.00065392 0.00043276)
(-0.01682 0.0011077 0.00070047)
(-0.013109 0.0012385 0.00075756)
(-0.0093564 0.001056 0.00068486)
(-0.0063365 0.00074779 0.00051181)
(-0.0044563 0.0004323 0.00035304)
(-0.0036235 0.00016124 0.00022337)
(-0.0030894 0.00015863 0.00019913)
(-0.0031907 0.00058061 0.00034601)
(0.0011804 0.00075145 0.0003222)
(-0.018296 -0.0018413 -0.0012649)
(-0.02068 -0.00064303 -0.00058492)
(-0.020043 0.0004635 0.00024924)
(-0.017107 0.0010989 0.00073261)
(-0.013162 0.0013008 0.00087158)
(-0.0092453 0.0010904 0.00073899)
(-0.0061347 0.0006803 0.00048169)
(-0.0042112 0.0002765 0.00025691)
(-0.0033868 -4.3159e-05 7.5296e-05)
(-0.002879 5.5031e-06 9.5946e-05)
(-0.0029316 0.0006428 0.00043581)
(0.001337 0.0010477 0.0006005)
(-0.018681 -0.00080267 1.5432e-05)
(-0.020974 0.00061723 0.00080617)
(-0.020248 0.0016099 0.0014981)
(-0.017103 0.0023138 0.001955)
(-0.012916 0.002422 0.0019496)
(-0.0087866 0.0019901 0.0015634)
(-0.0055793 0.0012444 0.00094857)
(-0.0036691 0.00046955 0.00038387)
(-0.0029857 -5.7755e-06 2.9856e-05)
(-0.0026322 4.2088e-05 8.5997e-05)
(-0.0026499 0.00089893 0.00063569)
(0.0013584 0.0013575 0.00087608)
(-0.019053 -0.00075981 0.0022914)
(-0.021266 -0.00084692 -5.7782e-05)
(-0.020425 -0.00089425 -0.0019383)
(-0.017225 -0.0011496 -0.0030648)
(-0.012949 -0.0011189 -0.0033306)
(-0.0087351 -0.00081971 -0.0028558)
(-0.0054542 -0.00036398 -0.0019566)
(-0.0035101 1.3909e-05 -0.00094458)
(-0.0028405 0.00019211 -0.00033776)
(-0.0025269 9.7042e-05 -0.00033603)
(-0.0025534 -0.0002899 -0.0013872)
(0.0014107 -0.00054934 -0.0017294)
(-0.018629 0.00068556 0.0027753)
(-0.020916 0.00074758 0.00069144)
(-0.020171 0.00052484 -0.0010785)
(-0.017173 0.0002807 -0.002013)
(-0.013157 0.00020235 -0.0023143)
(-0.0091647 0.0002023 -0.0020323)
(-0.0060023 0.00025674 -0.0014221)
(-0.0040543 0.00029914 -0.00078368)
(-0.0032552 0.00025999 -0.00026837)
(-0.0028034 0.00019473 -0.00025724)
(-0.0028755 7.6831e-06 -0.0010996)
(0.0013862 -0.00026707 -0.0014307)
(-0.017918 4.6095e-07 0.001966)
(-0.020194 3.7039e-07 0.00038167)
(-0.019615 3.8078e-07 -0.0010001)
(-0.016912 6.3633e-07 -0.0017223)
(-0.01311 9.683e-07 -0.0019378)
(-0.0092834 1.0012e-06 -0.0016697)
(-0.0062245 9.0288e-07 -0.0011997)
(-0.0043076 1.1138e-06 -0.00068688)
(-0.0034868 9.0623e-07 -0.00029448)
(-0.0030056 5.9555e-07 -0.00027056)
(-0.0031211 4.08e-07 -0.00087709)
(0.0012392 -6.4768e-08 -0.0010965)
(-0.017602 -0.00069569 0.0012085)
(-0.019962 -0.00016923 0.00019679)
(-0.019471 0.00043312 -0.00065459)
(-0.01682 0.00070104 -0.0011085)
(-0.013109 0.0007585 -0.0012394)
(-0.0093563 0.0006858 -0.001057)
(-0.0063363 0.00051251 -0.00074866)
(-0.0044564 0.0003535 -0.00043353)
(-0.0036237 0.00022397 -0.00016193)
(-0.0030893 0.00019948 -0.00015959)
(-0.0031905 0.00034622 -0.0005813)
(0.0011807 0.0003221 -0.00075196)
(-0.017602 -0.0012092 0.00069597)
(-0.019962 -0.00019811 0.00016897)
(-0.01947 0.0006533 -0.00043365)
(-0.016819 0.0011071 -0.0007017)
(-0.013108 0.0012379 -0.00075896)
(-0.0093561 0.0010554 -0.00068633)
(-0.0063361 0.000747 -0.00051343)
(-0.0044562 0.00043187 -0.00035441)
(-0.0036236 0.00016051 -0.00022479)
(-0.0030893 0.00015823 -0.00020023)
(-0.0031904 0.00058032 -0.00034681)
(0.0011808 0.00075151 -0.00032243)
(-0.017918 -0.0019662 4.2915e-07)
(-0.020194 -0.00038243 1.9303e-07)
(-0.019614 0.00099907 1.4216e-07)
(-0.016912 0.0017209 -9.4488e-08)
(-0.01311 0.0019363 -3.9929e-07)
(-0.0092832 0.0016681 -2.869e-07)
(-0.0062243 0.0011984 -3.353e-07)
(-0.0043078 0.00068549 -4.9761e-07)
(-0.003487 0.00029341 -2.723e-07)
(-0.0030056 0.00026963 -2.8763e-07)
(-0.0031213 0.00087626 -2.1643e-07)
(0.0012387 0.001096 -8.8736e-08)
(-0.01863 -0.0027734 -0.00068469)
(-0.020917 -0.00069026 -0.00074706)
(-0.020172 0.0010792 -0.000525)
(-0.017174 0.0020138 -0.00028074)
(-0.013158 0.0023153 -0.00020246)
(-0.0091663 0.0020337 -0.0002022)
(-0.0060036 0.0014234 -0.00025648)
(-0.0040548 0.00078449 -0.0002996)
(-0.003255 0.00026913 -0.00026014)
(-0.002803 0.00025721 -0.0001952)
(-0.0028756 0.001099 -8.2115e-06)
(0.0013851 0.0014299 0.00026669)
(-0.019053 -0.0022907 0.00075942)
(-0.021266 5.8413e-05 0.00084636)
(-0.020426 0.0019388 0.00089433)
(-0.017226 0.0030655 0.0011496)
(-0.01295 0.0033311 0.0011194)
(-0.008736 0.0028568 0.00082068)
(-0.0054543 0.0019573 0.00036407)
(-0.0035102 0.00094477 -1.4148e-05)
(-0.00284 0.00033766 -0.00019179)
(-0.0025258 0.00033552 -9.7345e-05)
(-0.0025532 0.0013864 0.0002902)
(0.001409 0.0017286 0.00054929)
(-0.019937 -0.0027301 0.0027613)
(-0.022238 -0.0021581 0.00029042)
(-0.021099 -0.0015116 -0.001811)
(-0.017498 -0.0013187 -0.0031519)
(-0.012994 -0.001007 -0.0034088)
(-0.0086133 -0.00064416 -0.0027962)
(-0.0051991 -0.00021501 -0.0017346)
(-0.0031914 0.00011964 -0.00053433)
(-0.0025298 0.00027973 7.1031e-05)
(-0.002243 0.00018344 4.0512e-05)
(-0.0022095 -8.6568e-06 -0.0012996)
(0.0016026 -0.00015352 -0.0020306)
(-0.019533 -1.0678e-06 0.0042419)
(-0.021812 -3.9882e-07 0.0016836)
(-0.020743 -3.0481e-07 -0.0007079)
(-0.017414 -3.8723e-08 -0.0019741)
(-0.013171 2.2396e-07 -0.0023933)
(-0.0089907 -1.1948e-06 -0.0021404)
(-0.0057248 3.6744e-07 -0.0014934)
(-0.0037207 4.2105e-07 -0.00074026)
(-0.0029462 2.9672e-07 -0.00020858)
(-0.0025789 2.1427e-07 -0.00022074)
(-0.0025782 2.0505e-07 -0.0012776)
(0.0016292 1.2123e-08 -0.0017234)
(-0.018631 -0.00068527 0.0027738)
(-0.020918 -0.00074711 0.00068939)
(-0.020172 -0.00052445 -0.0010808)
(-0.017174 -0.00027975 -0.0020155)
(-0.013158 -0.00020129 -0.0023167)
(-0.0091662 -0.0002011 -0.002035)
(-0.0060041 -0.00025541 -0.0014247)
(-0.0040544 -0.00029806 -0.00078563)
(-0.0032543 -0.00025889 -0.0002704)
(-0.0028027 -0.00019398 -0.00025842)
(-0.0028753 -7.2377e-06 -0.0011001)
(0.0013857 0.00026691 -0.0014307)
(-0.018297 -0.0012646 0.0018412)
(-0.02068 -0.00058451 0.00064236)
(-0.020043 0.00024943 -0.00046439)
(-0.017107 0.00073306 -0.0011001)
(-0.013162 0.00087173 -0.0013021)
(-0.0092451 0.0007397 -0.0010912)
(-0.0061344 0.00048226 -0.00068161)
(-0.0042111 0.00025727 -0.00027805)
(-0.0033867 7.6014e-05 4.1965e-05)
(-0.0028789 9.6658e-05 -6.64e-06)
(-0.0029313 0.00043637 -0.00064364)
(0.0013374 0.00060039 -0.0010483)
(-0.018296 -0.0018426 0.0012645)
(-0.020679 -0.00064444 0.00058361)
(-0.020043 0.00046235 -0.00025063)
(-0.017106 0.0010979 -0.00073455)
(-0.013162 0.0012996 -0.00087315)
(-0.0092446 0.0010892 -0.00074067)
(-0.0061342 0.00067898 -0.00048328)
(-0.0042109 0.00027535 -0.0002583)
(-0.0033868 -4.4069e-05 -7.6891e-05)
(-0.002879 4.9257e-06 -9.744e-05)
(-0.0029312 0.00064241 -0.0004369)
(0.0013376 0.0010476 -0.00060083)
(-0.018629 -0.0027757 0.00068532)
(-0.020916 -0.00069229 0.00074687)
(-0.020171 0.0010773 0.00052426)
(-0.017173 0.0020118 0.00027971)
(-0.013157 0.0023129 0.00020153)
(-0.0091648 0.0020313 0.00020119)
(-0.0060027 0.001421 0.00025536)
(-0.0040543 0.000782 0.00029858)
(-0.003255 0.0002673 0.00025907)
(-0.0028034 0.00025612 0.00019412)
(-0.0028755 0.0010986 7.4664e-06)
(0.0013857 0.0014299 -0.00026695)
(-0.019533 -0.0042411 1.5131e-07)
(-0.021811 -0.0016841 -1.2624e-07)
(-0.020743 0.00070681 -6.0767e-07)
(-0.017414 0.0019736 -8.514e-07)
(-0.013171 0.0023925 -7.696e-07)
(-0.008991 0.00214 -1.2116e-06)
(-0.0057253 0.0014926 -9.1655e-07)
(-0.0037209 0.00073913 -1.0369e-06)
(-0.0029462 0.00020719 -1.114e-06)
(-0.002579 0.00021943 -7.4121e-07)
(-0.0025783 0.001276 -4.7731e-07)
(0.0016287 0.0017224 -9.3234e-08)
(-0.019937 -0.00276 0.0027279)
(-0.022238 -0.00028909 0.0021571)
(-0.021099 0.0018119 0.0015109)
(-0.017499 0.0031529 0.0013175)
(-0.012995 0.0034086 0.0010073)
(-0.0086143 0.0027963 0.00064457)
(-0.0051999 0.0017361 0.00021378)
(-0.0031917 0.00053487 -0.00012057)
(-0.0025297 -7.0773e-05 -0.00027996)
(-0.0022426 -4.0632e-05 -0.0001838)
(-0.0022095 0.0012988 9.0435e-06)
(0.0016009 0.0020301 0.00015375)
(-0.020752 -2.7819e-07 0.00052642)
(-0.023082 -7.9052e-08 -0.0029059)
(-0.021794 1.7935e-07 -0.0050236)
(-0.017948 -2.3175e-07 -0.0066086)
(-0.013137 1.4126e-08 -0.0066802)
(-0.0085218 -7.0953e-07 -0.0054293)
(-0.0049537 1.0374e-07 -0.0034278)
(-0.0028951 -5.1907e-07 -0.0013006)
(-0.0022046 -1.2236e-08 -8.9547e-05)
(-0.0018636 7.9644e-08 -1.9809e-05)
(-0.0017888 1.7021e-07 -0.0019701)
(0.0015306 -6.3568e-08 -0.0026095)
(-0.019938 0.0027287 0.0027597)
(-0.02224 0.0021577 0.00028839)
(-0.0211 0.0015111 -0.001813)
(-0.017499 0.0013188 -0.0031538)
(-0.012995 0.0010071 -0.0034109)
(-0.0086142 0.00064409 -0.0027979)
(-0.0052001 0.00021526 -0.0017368)
(-0.0031919 -0.00011972 -0.00053678)
(-0.0025298 -0.00027904 6.876e-05)
(-0.0022424 -0.00018311 3.9021e-05)
(-0.0022091 9.0602e-06 -0.0013004)
(0.0016023 0.00015343 -0.0020308)
(-0.019054 0.00076092 0.0022915)
(-0.021267 0.00084723 -5.8952e-05)
(-0.020427 0.00089465 -0.0019402)
(-0.017226 0.0011503 -0.0030665)
(-0.01295 0.0011197 -0.0033319)
(-0.0087361 0.00082219 -0.0028573)
(-0.0054545 0.00036485 -0.0019583)
(-0.0035099 -1.3888e-05 -0.00094554)
(-0.0028398 -0.00019113 -0.00033918)
(-0.0025256 -9.6493e-05 -0.00033689)
(-0.0025527 0.00029044 -0.0013877)
(0.0014104 0.00054905 -0.0017295)
(-0.018681 1.6819e-05 0.00080285)
(-0.020974 0.00080728 -0.0006178)
(-0.020248 0.0014985 -0.0016108)
(-0.017103 0.0019555 -0.002315)
(-0.012916 0.0019499 -0.002423)
(-0.0087867 0.0015638 -0.0019907)
(-0.0055791 0.0009492 -0.0012458)
(-0.0036692 0.00038382 -0.00047157)
(-0.0029858 3.0889e-05 4.3724e-06)
(-0.0026319 8.6263e-05 -4.3879e-05)
(-0.0026493 0.00063563 -0.00090043)
(0.0013592 0.00087557 -0.0013585)
(-0.018681 -0.00080292 -1.5883e-05)
(-0.020974 0.00061703 -0.0008074)
(-0.020248 0.0016099 -0.0014989)
(-0.017102 0.002314 -0.0019563)
(-0.012915 0.0024218 -0.0019508)
(-0.0087865 0.0019897 -0.0015649)
(-0.005579 0.0012439 -0.00094998)
(-0.0036694 0.00046926 -0.00038492)
(-0.0029862 -6.1074e-06 -3.17e-05)
(-0.0026323 4.223e-05 -8.7337e-05)
(-0.0026496 0.00089884 -0.0006369)
(0.0013591 0.0013575 -0.00087638)
(-0.019052 -0.0022925 -0.00075935)
(-0.021265 5.6629e-05 -0.00084714)
(-0.020425 0.0019373 -0.00089495)
(-0.017225 0.0030637 -0.0011506)
(-0.012949 0.0033289 -0.0011202)
(-0.0087351 0.0028547 -0.00082095)
(-0.0054536 0.0019554 -0.00036504)
(-0.0035101 0.00094242 1.3681e-05)
(-0.0028409 0.00033648 0.00019088)
(-0.0025267 0.00033462 9.6134e-05)
(-0.0025535 0.0013862 -0.00029105)
(0.0014097 0.0017287 -0.00054966)
(-0.019936 -0.0027617 -0.0027282)
(-0.022238 -0.00029143 -0.002158)
(-0.021099 0.0018094 -0.0015124)
(-0.017498 0.0031505 -0.0013194)
(-0.012994 0.0034061 -0.0010087)
(-0.0086135 0.0027938 -0.00064629)
(-0.0051988 0.001733 -0.00021524)
(-0.0031916 0.00053197 0.00011934)
(-0.0025303 -7.3065e-05 0.0002783)
(-0.002243 -4.2292e-05 0.00018236)
(-0.0022096 0.0012981 -9.9865e-06)
(0.0016015 0.00203 -0.00015398)
(-0.02075 -0.00052928 -2.6037e-07)
(-0.023081 0.0029031 -3.0653e-07)
(-0.021793 0.0050209 -4.9474e-07)
(-0.017948 0.0066052 -5.3339e-07)
(-0.013136 0.0066766 -3.4866e-07)
(-0.0085227 0.0054254 -7.1322e-07)
(-0.0049538 0.0034255 -9.9448e-07)
(-0.0028948 0.0012982 -5.7186e-07)
(-0.0022049 8.8322e-05 -1.203e-06)
(-0.0018637 1.86e-05 -5.7726e-07)
(-0.0017895 0.00197 -5.2789e-07)
(0.0015285 0.0026094 -1.9257e-07)
(0.0024743 -0.0039013 0.00044479)
(0.00031741 -0.0038736 0.00061992)
(0.00033456 -0.0014441 0.00023467)
(-9.2444e-05 -0.0022209 0.00034056)
(-0.00075449 -0.0039927 0.00072422)
(-0.0028344 -0.0063348 0.0013158)
(-0.0067933 -0.008243 0.0019015)
(-0.012105 -0.0089858 0.0023209)
(-0.017815 -0.0077982 0.0023715)
(-0.022264 -0.0040703 0.0018671)
(-0.024239 0.0024953 0.00099759)
(-0.02352 0.011338 -0.00030992)
(0.0025901 -0.0034928 0.00077054)
(6.7259e-05 -0.0032666 0.00078625)
(0.0003844 -0.00093552 0.0002477)
(-0.00010205 -0.0014912 0.00024356)
(-0.00084183 -0.0030768 0.00041008)
(-0.0028752 -0.0051846 0.00081006)
(-0.0065749 -0.0070065 0.0011543)
(-0.011511 -0.0078588 0.0012792)
(-0.016794 -0.0070231 0.00094759)
(-0.020759 -0.0039071 2.2639e-05)
(-0.022218 0.0013567 -0.0013756)
(-0.020987 0.008722 -0.003091)
(0.0025659 -0.0030855 0.0016786)
(-0.0001121 -0.002875 0.0017653)
(9.6035e-05 -0.00082115 0.00069607)
(-0.00042603 -0.0012498 0.00091872)
(-0.001169 -0.0025463 0.0015806)
(-0.0032085 -0.0043045 0.0024972)
(-0.0069374 -0.005801 0.0032216)
(-0.011854 -0.0065112 0.0034372)
(-0.017031 -0.0057057 0.0027956)
(-0.020923 -0.0029524 0.0010555)
(-0.022263 0.001662 -0.0018072)
(-0.020802 0.008008 -0.0055721)
(0.0025394 -0.0027287 0.0021257)
(-0.00031881 -0.0026145 0.0020573)
(-9.8155e-06 -0.00086391 0.00063834)
(-0.00047612 -0.0011921 0.00090682)
(-0.0012112 -0.0022659 0.0018516)
(-0.0032428 -0.0037652 0.0031115)
(-0.0069007 -0.0049973 0.0042017)
(-0.011704 -0.0055057 0.0047269)
(-0.016764 -0.0046833 0.0042404)
(-0.020544 -0.0022105 0.0023862)
(-0.021808 0.0018729 -0.00071272)
(-0.020361 0.0074454 -0.00512)
(0.0025393 -0.002126 0.0027283)
(-0.00031878 -0.002058 0.002614)
(-9.7256e-06 -0.00063889 0.00086347)
(-0.00047593 -0.00090714 0.0011921)
(-0.0012111 -0.0018519 0.002266)
(-0.0032425 -0.0031117 0.0037657)
(-0.0069009 -0.0042017 0.0049981)
(-0.011704 -0.0047272 0.0055063)
(-0.016764 -0.0042404 0.004684)
(-0.020544 -0.0023861 0.0022111)
(-0.021809 0.00071267 -0.0018726)
(-0.020361 0.0051195 -0.0074457)
(0.0025654 -0.0016789 0.0030851)
(-0.00011225 -0.0017654 0.0028742)
(9.6214e-05 -0.00069639 0.00082092)
(-0.00042598 -0.00091933 0.0012496)
(-0.0011691 -0.0015806 0.0025463)
(-0.0032086 -0.002497 0.0043051)
(-0.0069373 -0.0032214 0.0058016)
(-0.011854 -0.0034369 0.0065122)
(-0.017031 -0.0027953 0.0057062)
(-0.020922 -0.0010557 0.0029529)
(-0.022264 0.0018074 -0.0016618)
(-0.020802 0.0055736 -0.0080086)
(0.0025895 -0.00077056 0.0034925)
(6.735e-05 -0.00078651 0.0032662)
(0.00038451 -0.00024883 0.00093561)
(-0.00010162 -0.00024443 0.0014914)
(-0.00084111 -0.00041018 0.0030778)