/*--------------------------------*- C++ -*----------------------------------*\
| =========                 |                                                 |
| \\      /  F ield         | OpenFOAM: The Open Source CFD Toolbox           |
|  \\    /   O peration     | Version:  4.1                                   |
|   \\  /    A nd           | Web:      www.OpenFOAM.org                      |
|    \\/     M anipulation  |                                                 |
\*---------------------------------------------------------------------------*/
FoamFile
{
    version     2.0;
    format      ascii;
    class       surfaceVectorField;
    location    "0.000210";
    object      Uf;
}
// * * * * * * * * * * * * * * * * * * * * * * * * * * * * * * * * * * * * * //

dimensions      [0 1 -1 0 0 0 0];

internalField   nonuniform List<vector> 
8704
(
(5.9364905 0.027340057 -0.00017088044)
(5.7368758 0.027431186 -0.010026426)
(5.7368866 0.027472631 0.0096064326)
(6.0678501 0.02115408 -0.0042241417)
(6.0679095 0.021163468 0.00385939)
(5.9469143 0.026376831 -0.00016414412)
(5.7359814 0.026220167 -0.009205146)
(5.7360694 0.026233241 0.0088773718)
(6.0473178 0.021065793 -0.0032817001)
(6.047366 0.021071655 0.0029788417)
(5.9514503 0.024840525 -0.00020232773)
(5.7386367 0.024381195 -0.0085075643)
(5.7388391 0.024390446 0.0081537482)
(6.0283713 0.020895577 -0.0025321706)
(6.0284085 0.020901421 0.0022020919)
(5.9503126 0.022545807 -0.0002717667)
(5.7333721 0.021757314 -0.0077959282)
(5.733658 0.021774531 0.0073288202)
(5.9986997 0.019841355 -0.0018841095)
(5.9987344 0.01986139 0.0014618002)
(5.9450418 0.019639537 -0.00035688897)
(5.7315436 0.018541612 -0.0068841201)
(5.7318842 0.018577663 0.0062465637)
(5.973719 0.01820726 -0.0011819031)
(5.9737515 0.018232235 0.00060860946)
(5.9343195 0.015684982 -0.00041482838)
(5.7239018 0.014531927 -0.0059531088)
(5.7242325 0.014600825 0.0051135474)
(5.943171 0.016334126 -0.00058234664)
(5.9432006 0.016370311 -0.00014993134)
(5.9217898 0.010218627 -0.00038193319)
(5.7162697 0.009456103 -0.0046049233)
(5.7164702 0.0095468754 0.0036863708)
(5.9147242 0.013013814 0.00030534609)
(5.9147448 0.01304477 -0.0010922295)
(5.9073473 0.0038877902 -0.00026717416)
(5.7097663 0.0031593083 -0.0031652152)
(5.7098082 0.0032327827 0.0024277618)
(5.8902805 0.0085680761 0.0011881258)
(5.8903035 0.008587572 -0.0018143172)
(5.8923692 -0.0022817658 -0.00017989153)
(5.6996452 -0.0027510897 -0.0013033872)
(5.6997064 -0.0027175239 0.00086215528)
(5.8654547 0.0039833577 0.0014232158)
(5.8654862 0.0039447994 -0.0018544529)
(5.8747981 -0.0091266017 -0.00017659336)
(5.6947338 -0.0073661632 0.0013999624)
(5.6949936 -0.0072394798 -0.001859978)
(5.8485257 0.001040623 7.088287e-05)
(5.8485706 0.0010480829 -0.00037198598)
(5.8656263 -0.016958528 -0.00019506784)
(5.6862276 -0.01509577 0.0021152552)
(5.6865892 -0.015086058 -0.0025003201)
(5.8295949 -0.0069113896 0.0025487154)
(5.8296523 -0.0068730043 -0.0028605572)
(5.8638931 -0.024866723 -0.00018817141)
(5.6942632 -0.021060566 0.0047921451)
(5.6944605 -0.020988962 -0.0052641284)
(5.8264766 -0.012874663 0.0025182522)
(5.8265438 -0.012858026 -0.0028774329)
(5.8715351 -0.032106335 -0.00016496347)
(5.7078382 -0.027442864 0.006470637)
(5.7078288 -0.027401699 -0.0068768916)
(5.8303098 -0.019841653 0.0036288802)
(5.8303676 -0.019812093 -0.0039627182)
(5.8885965 -0.037516088 -0.00013039797)
(5.7287318 -0.0333124 0.0077135923)
(5.7286029 -0.033279031 -0.0080512072)
(5.8413334 -0.026199211 0.0050946879)
(5.8413619 -0.026185472 -0.0054013163)
(5.9114173 -0.041044003 -4.7041833e-05)
(5.7625236 -0.035981877 0.0099196677)
(5.7621495 -0.035940459 -0.010157961)
(5.8656923 -0.029078033 0.0045814099)
(5.8657061 -0.029067307 -0.004801749)
(5.9435329 -0.041893718 8.8082363e-05)
(5.7965852 -0.038493089 0.010529632)
(5.7959696 -0.038498162 -0.010461737)
(5.8900287 -0.032441153 0.0062182865)
(5.8900161 -0.032439648 -0.0062275626)
(5.979023 -0.038968357 0.00020698249)
(5.8439076 -0.03682309 0.011876235)
(5.8431938 -0.0368521 -0.011482038)
(5.9280148 -0.03093673 0.0058695383)
(5.9279739 -0.030956445 -0.0056406119)
(6.0142598 -0.030529536 0.00028921654)
(5.8872771 -0.032759381 0.011409946)
(5.8864133 -0.032801169 -0.010815915)
(5.9624121 -0.026677909 0.0063998992)
(5.962327 -0.026723565 -0.0060215543)
(6.0419686 -0.014227055 0.00037902084)
(5.9296845 -0.022522327 0.010439369)
(5.9286163 -0.022542385 -0.009741038)
(5.9958059 -0.0153905 0.0060144978)
(5.9956687 -0.015451685 -0.0055013962)
(6.0512766 0.012136554 0.00044400103)
(5.9604062 -0.0061685411 0.0075792736)
(5.9592631 -0.0062108256 -0.0066915051)
(6.0195195 0.0037607784 0.0062054918)
(6.0193549 0.0036645555 -0.0055171963)
(6.0237331 0.046162532 0.00049001912)
(5.9637714 0.019131174 0.0029842452)
(5.9627705 0.019034711 -0.0020696117)
(6.0151885 0.035051079 0.0057960303)
(6.0150347 0.034940786 -0.0050536726)
(5.9364165 0.063812074 0.00056665482)
(5.9300275 0.044760992 -0.0027474095)
(5.9292808 0.044526463 0.0038430011)
(5.9685626 0.072999699 0.0062122204)
(5.9684468 0.07290361 -0.0053383126)
(5.8060135 0.030965743 0.00046778733)
(5.8689285 0.0387488 -0.0033089947)
(5.8686278 0.038492023 0.0046059764)
(5.8884614 0.081988649 0.0087461189)
(5.8884005 0.081889475 -0.0077566448)
(5.7122987 -0.012000192 0.004179582)
(5.7124907 -0.012135728 -0.0034602922)
(5.6940352 0.014382424 0.011477275)
(5.6940355 0.014352879 -0.010948439)
(5.5362467 0.030980801 -0.014687839)
(5.4641625 0.029924484 -0.023427767)
(5.4155691 0.028680638 -0.0061306049)
(5.704407 0.029855119 -0.021281091)
(5.5271029 0.028948531 -0.013043463)
(5.4427555 0.028428574 -0.020753898)
(5.389367 0.02724785 -0.005313055)
(5.6790086 0.028613327 -0.018520206)
(5.5198958 0.02613668 -0.011402004)
(5.4272484 0.026058291 -0.018018485)
(5.3705144 0.02475037 -0.00446382)
(5.6584221 0.026879785 -0.015879789)
(5.5140724 0.022636906 -0.0095805412)
(5.4121387 0.022937143 -0.015167037)
(5.3535674 0.021533132 -0.003633426)
(5.6353423 0.024356526 -0.013186444)
(5.5095893 0.018333312 -0.0075506117)
(5.4030516 0.019142412 -0.011963968)
(5.3428353 0.017673369 -0.002664158)
(5.6183067 0.021258299 -0.010148413)
(5.5053962 0.013088684 -0.0052460845)
(5.3944328 0.014324454 -0.0086185742)
(5.3343201 0.012749261 -0.0016686861)
(5.6003964 0.017435419 -0.0070530156)
(5.5031609 0.0068346147 -0.0027733961)
(5.3896131 0.0086831674 -0.004871238)
(5.3301824 0.0072770295 -0.00052214101)
(5.5863676 0.012540409 -0.003356978)
(5.5020872 0.00043223599 -7.1420663e-05)
(5.3885819 0.0021453341 -0.001491589)
(5.3310209 0.00086792819 0.00058544651)
(5.5769784 0.0066171403 -0.00021113889)
(5.5027295 -0.005344918 0.0029460967)
(5.3883232 -0.003434686 0.0026346768)
(5.3337088 -0.0043802888 0.0017769279)
(5.5685373 0.0019802134 0.0024956349)
(5.5057715 -0.011633524 0.005557148)
(5.394451 -0.0091814861 0.0064935342)
(5.3433282 -0.0096878475 0.0032158267)
(5.5674962 -0.0040011174 0.0070281415)
(5.5168485 -0.018006219 0.0084268062)
(5.4018754 -0.015317758 0.010234992)
(5.3557562 -0.015813519 0.0042336397)
(5.5671374 -0.010654011 0.010123632)
(5.5377076 -0.023956844 0.011128904)
(5.4257309 -0.020690526 0.014287147)
(5.3811604 -0.01965636 0.0049756132)
(5.5816942 -0.016912794 0.014593499)
(5.565846 -0.029428423 0.013513001)
(5.454739 -0.025856516 0.017653022)
(5.4128057 -0.024917957 0.0060432041)
(5.602055 -0.023337194 0.01756646)
(5.6035743 -0.033214597 0.016172068)
(5.4935002 -0.029948887 0.021025305)
(5.4523636 -0.028446402 0.0070623672)
(5.6304294 -0.028079765 0.020468499)
(5.6475807 -0.035540957 0.018131816)
(5.5419385 -0.032959624 0.023751201)
(5.5012922 -0.03053587 0.0079613146)
(5.6693434 -0.031772923 0.024023321)
(5.6982262 -0.035815722 0.019597916)
(5.5946035 -0.034358831 0.025879798)
(5.5533502 -0.031830646 0.0086567106)
(5.7104529 -0.03361824 0.025617919)
(5.7518904 -0.033336104 0.0199528)
(5.6553863 -0.033296438 0.02736934)
(5.612582 -0.030071477 0.0089512676)
(5.7608463 -0.032627239 0.027296178)
(5.804216 -0.026934612 0.018983983)
(5.714408 -0.029728911 0.026907742)
(5.6697211 -0.026871368 0.0088561577)
(5.8087085 -0.028942619 0.026749443)
(5.8487632 -0.015505084 0.016273898)
(5.7722733 -0.021508252 0.025366071)
(5.723764 -0.018977928 0.0083134284)
(5.8549214 -0.019335182 0.025018229)
(5.8750519 0.0019434579 0.011065471)
(5.8172905 -0.0091489653 0.02053975)
(5.7652886 -0.007640423 0.0067419903)
(5.8893465 -0.004629404 0.02097671)
(5.8694365 0.022573517 0.0047299558)
(5.8395076 0.0094948466 0.013432788)
(5.7840871 0.0094540425 0.0043822576)
(5.8987761 0.019386458 0.014486227)
(5.8199466 0.028458249 0.0025828672)
(5.8293047 0.026050969 0.0065092476)
(5.7735377 0.023520055 0.0028302629)
(5.8718708 0.046317638 0.0082769849)
(5.7512279 0.0029812578 0.0075187495)
(5.8046662 0.017058921 0.010475568)
(5.756863 0.012899951 0.0045320685)
(5.8285307 0.049952648 0.0085230175)
(5.699172 -0.018602168 0.020701637)
(5.6774551 -0.020563681 0.0055948914)
(5.6940977 0.00030376098 0.016579592)
(5.3725145 0.029034628 -0.027966675)
(5.3468279 0.028770846 -0.036979704)
(5.3050509 0.024914071 -0.022452293)
(5.5273626 0.029451341 -0.035852699)
(5.3442473 0.02707299 -0.024301332)
(5.3101067 0.02728068 -0.032383003)
(5.262892 0.023708991 -0.019574986)
(5.4918905 0.028030648 -0.031300152)
(5.3206131 0.024280183 -0.020439774)
(5.2792117 0.024848896 -0.027496573)
(5.2276677 0.021432288 -0.016503662)
(5.4612513 0.025893497 -0.026593307)
(5.3020984 0.020787515 -0.016253764)
(5.2527768 0.021802266 -0.022214693)
(5.1979766 0.018526263 -0.013326548)
(5.4330157 0.023052843 -0.021517905)
(5.2884373 0.016393174 -0.011789674)
(5.2337547 0.018056751 -0.01655312)
(5.1761586 0.014937197 -0.0098585463)
(5.412262 0.01958643 -0.016059206)
(5.2791657 0.01108833 -0.0070606318)
(5.2190264 0.013220115 -0.010782327)
(5.16029 0.01034423 -0.0062917358)
(5.3941664 0.015132543 -0.010438051)
(5.2751414 0.0052523438 -0.0022832196)
(5.2107942 0.0078136139 -0.0048364346)
(5.1518419 0.0053282403 -0.002615485)
(5.3823905 0.0097698259 -0.0045067525)
(5.275248 -0.00044943222 0.0025625229)
(5.2082946 0.0024614729 0.0011229238)
(5.1506746 0.00010558252 0.00080079205)
(5.3763362 0.0049711896 -0.00011749383)
(5.2804928 -0.0059683985 0.0075932603)
(5.2103533 -0.002859085 0.0071945738)
(5.1554605 -0.0049582303 0.0049019393)
(5.3739034 -0.00067817199 0.0061810234)
(5.2909845 -0.011660884 0.012503652)
(5.2198375 -0.0081947509 0.013204651)
(5.1685125 -0.010107577 0.008883425)
(5.3791217 -0.0062165431 0.012136323)
(5.3117187 -0.016878967 0.01736121)
(5.234931 -0.013375142 0.019125446)
(5.1878373 -0.014219693 0.011626867)
(5.3878599 -0.012202273 0.01793176)
(5.3425579 -0.021580876 0.021964678)
(5.2650469 -0.017425584 0.025234971)
(5.2202288 -0.018105599 0.015401514)
(5.4119184 -0.01789386 0.02423148)
(5.3825194 -0.025680659 0.025982992)
(5.3013962 -0.021693653 0.030326742)
(5.2594296 -0.021624612 0.017994665)
(5.4413445 -0.023030505 0.029230845)
(5.4317497 -0.028812723 0.029625744)
(5.3496401 -0.024558811 0.035242087)
(5.308531 -0.024279586 0.020570071)
(5.4808538 -0.027333698 0.0337849)
(5.4885768 -0.030801914 0.032617828)
(5.4055621 -0.02707622 0.039136979)
(5.3657149 -0.026250725 0.022962374)
(5.528757 -0.030632938 0.038053405)
(5.5517369 -0.030984849 0.034618952)
(5.4689946 -0.028150819 0.042070208)
(5.4287823 -0.026661551 0.024225895)
(5.5820615 -0.032149642 0.040753938)
(5.6174938 -0.028978918 0.035101907)
(5.5375796 -0.027369131 0.043855709)
(5.4964772 -0.025799844 0.025475449)
(5.6413198 -0.031687223 0.042703173)
(5.6827469 -0.023880851 0.033703999)
(5.6070298 -0.024547087 0.043326182)
(5.5637455 -0.022743816 0.024726565)
(5.6999354 -0.028417226 0.041871064)
(5.7409657 -0.014966663 0.029733431)
(5.6745159 -0.018502403 0.040646146)
(5.6280679 -0.016374628 0.022818195)
(5.7572717 -0.020971287 0.039236866)
(5.7821781 -0.0016253333 0.022727231)
(5.7304472 -0.0091034119 0.034276356)
(5.6804075 -0.0074318638 0.019077418)
(5.8025763 -0.0085839913 0.032314646)
(5.7944621 0.012933719 0.015058377)
(5.7673461 0.0042593841 0.024608736)
(5.7137505 0.0057474974 0.013493332)
(5.8264992 0.01051846 0.022223732)
(5.7682555 0.014916094 0.01467579)
(5.7739631 0.014551474 0.016516022)
(5.720702 0.015166893 0.0096451746)
(5.816553 0.030662178 0.012386364)
(5.7300053 -0.0052736747 0.022586166)
(5.7720274 0.0048057396 0.024329634)
(5.725559 0.0043184635 0.015761634)
(5.7962823 0.02962757 0.015975528)
(5.6975058 -0.020905075 0.035671988)
(5.6742114 -0.019593198 0.020234314)
(5.6974929 -0.0104955 0.029735588)
(5.2867839 0.027026695 -0.041430421)
(5.2835829 0.025364091 -0.052679387)
(5.252113 0.022449362 -0.03823001)
(5.4222071 0.027977035 -0.050490537)
(5.2470295 0.025074264 -0.035603715)
(5.2361281 0.023980896 -0.045977065)
(5.2016899 0.021212115 -0.033291065)
(5.3793459 0.026423085 -0.043949151)
(5.2132018 0.02236699 -0.029312448)
(5.1947386 0.021667585 -0.038731797)
(5.1580529 0.019011252 -0.027952992)
(5.3412914 0.024064738 -0.036962237)
(5.1860978 0.01905072 -0.022563586)
(5.1600888 0.018905507 -0.030855486)
(5.1215628 0.016378135 -0.022287502)
(5.3084836 0.021202945 -0.029300199)
(5.1656396 0.014868276 -0.015580147)
(5.1331679 0.015583254 -0.022681577)
(5.0935277 0.013167909 -0.016268475)
(5.2833515 0.017659136 -0.021334323)
(5.1519628 0.010123793 -0.0083854961)
(5.1129569 0.011413522 -0.014460679)
(5.0732795 0.0091151251 -0.010175818)
(5.2634916 0.013079547 -0.013394337)
(5.1449482 0.0052358041 -0.0012105531)
(5.1008289 0.0074193054 -0.005575146)
(5.0617599 0.0053355292 -0.0042397436)
(5.251201 0.0093398974 -0.0062633695)
(5.1444206 0.00021754125 0.0059425346)
(5.0958398 0.0027878397 0.0026213178)
(5.0586026 0.00033510716 0.0024236791)
(5.2451483 0.0037323104 0.0022664306)
(5.1507225 -0.004794022 0.013137814)
(5.0977433 -0.0017828817 0.011141648)
(5.0634567 -0.0040525643 0.0087212675)
(5.2447384 -0.0011087772 0.010537254)
(5.1649088 -0.0096043369 0.020185179)
(5.1080257 -0.0062404292 0.019330795)
(5.0771927 -0.0082975191 0.014769958)
(5.2522003 -0.0063632953 0.018749136)
(5.1894873 -0.013806159 0.02716446)
(5.127671 -0.010247982 0.027517289)
(5.0995886 -0.011856434 0.020432847)
(5.2664748 -0.011580067 0.02703284)
(5.2242003 -0.01753288 0.033650274)
(5.1593561 -0.013561023 0.035399564)
(5.1333457 -0.014553833 0.025797645)
(5.293421 -0.016215336 0.035230415)
(5.2690369 -0.020688218 0.039503273)
(5.2000091 -0.016628768 0.042518754)
(5.1751469 -0.017392961 0.030718532)
(5.3270839 -0.020599489 0.042303263)
(5.3235641 -0.023064385 0.044529533)
(5.2517008 -0.018844615 0.048975234)
(5.2274244 -0.019018632 0.034885165)
(5.3722654 -0.023907071 0.048920201)
(5.3859355 -0.024600519 0.048425791)
(5.31117 -0.020568316 0.054110232)
(5.2869669 -0.020616675 0.038568293)
(5.4241845 -0.026747711 0.054067706)
(5.454895 -0.024816336 0.051006457)
(5.379029 -0.021395187 0.058016351)
(5.35387 -0.021075773 0.041197208)
(5.4838758 -0.028239377 0.058097577)
(5.5271503 -0.023346183 0.051607575)
(5.4512948 -0.020916406 0.060051861)
(5.4245844 -0.020141271 0.042225439)
(5.5476104 -0.027949904 0.059879715)
(5.5990366 -0.019640007 0.049688585)
(5.5263826 -0.018948524 0.059522851)
(5.4965695 -0.017918204 0.041628222)
(5.6133761 -0.025538168 0.05921855)
(5.6643818 -0.013186396 0.04448037)
(5.5986051 -0.014721454 0.055993709)
(5.5649573 -0.013492823 0.03872531)
(5.6762943 -0.02000781 0.055215859)
(5.7151407 -0.0036607225 0.03553429)
(5.6620449 -0.0081010319 0.048253615)
(5.623475 -0.0066298949 0.032709968)
(5.7293955 -0.010493656 0.046356426)
(5.7395157 0.0058695583 0.02597673)
(5.7086994 0.00096190617 0.036228366)
(5.6658524 0.0027891648 0.023971962)
(5.7643661 0.0037749029 0.032617773)
(5.7303209 0.0052563109 0.027049638)
(5.7278062 0.0065650107 0.026708154)
(5.6843325 0.0085956372 0.017744741)
(5.7675325 0.017620587 0.019714374)
(5.7155963 -0.0099881899 0.038038526)
(5.7454077 -0.0026349736 0.039554119)
(5.7052339 -0.0013315735 0.027555306)
(5.767847 0.015029696 0.026161196)
(5.7001375 -0.019335416 0.05436877)
(5.6762287 -0.017723157 0.035752538)
(5.7009878 -0.014485574 0.043239719)
(5.2355528 0.022607533 -0.056987414)
(5.2519146 0.018730994 -0.069954671)
(5.222181 0.018494572 -0.054982223)
(5.3543117 0.023549083 -0.067158217)
(5.1860868 0.020826357 -0.048898787)
(5.1950458 0.017561853 -0.061242636)
(5.1649222 0.017367461 -0.048025685)
(5.3031423 0.022095473 -0.058569507)
(5.143792 0.018415071 -0.040103923)
(5.1449982 0.015724454 -0.051665038)
(5.1149002 0.015520518 -0.040442431)
(5.257641 0.019837261 -0.049195578)
(5.1091182 0.015773446 -0.030671636)
(5.1027448 0.01359887 -0.041381227)
(5.0732959 0.013349897 -0.032340278)
(5.2194906 0.017215527 -0.039070558)
(5.0822259 0.012746654 -0.020973134)
(5.0685525 0.011762566 -0.030022231)
(5.0404333 0.010899783 -0.023564358)
(5.1886965 0.014995611 -0.028974853)
(5.0634029 0.0091835344 -0.011189442)
(5.0429339 0.009312261 -0.018664159)
(5.0164925 0.0081839548 -0.015014471)
(5.1649561 0.01230239 -0.019176925)
(5.0530979 0.0052010512 -0.0015103002)
(5.0265824 0.005971068 -0.0077132919)
(5.0020829 0.0047552226 -0.0058845531)
(5.149671 0.0076630215 -0.0074932298)
(5.0505113 0.00098705975 0.0080351267)
(5.0187817 0.0023849076 0.0030134935)
(4.9967965 0.0010229504 0.0027701603)
(5.1414519 0.0034962577 0.0030832197)
(5.0563735 -0.003067372 0.017522519)
(5.019548 -0.0011775896 0.01370585)
(5.0005563 -0.0024997204 0.011402568)
(5.1402767 -0.00093296083 0.014000876)
(5.0721481 -0.0067916671 0.026787745)
(5.0298385 -0.0043324735 0.02426529)
(5.0138121 -0.0056345081 0.019647963)
(5.1474807 -0.0052027301 0.024670742)
(5.0987312 -0.0099896331 0.035800764)
(5.051602 -0.0071776824 0.034558614)
(5.0374505 -0.0081365761 0.027454368)
(5.1648603 -0.0093587258 0.035214129)
(5.1358588 -0.012766323 0.044188467)
(5.083727 -0.0093768083 0.044482625)
(5.0711299 -0.010263073 0.035129103)
(5.1920923 -0.012985891 0.045409826)
(5.1831955 -0.015085313 0.051703958)
(5.1265039 -0.011466898 0.053368484)
(5.1145858 -0.012091334 0.04187934)
(5.2294937 -0.016399568 0.054531699)
(5.2396898 -0.016769174 0.058131006)
(5.178629 -0.012946368 0.061267293)
(5.1669194 -0.013562953 0.048149764)
(5.2755321 -0.019246769 0.062906988)
(5.3043226 -0.017880888 0.063157325)
(5.2394338 -0.013917651 0.067833612)
(5.2271831 -0.014444231 0.053021679)
(5.329785 -0.021133611 0.069292883)
(5.375621 -0.018098979 0.066403103)
(5.3078846 -0.014538322 0.072566038)
(5.2944795 -0.014844476 0.056674739)
(5.3915881 -0.022609454 0.074359306)
(5.4507375 -0.017108791 0.067296697)
(5.3813544 -0.01410181 0.075284661)
(5.3660061 -0.01442011 0.058519125)
(5.4576105 -0.022516688 0.076733536)
(5.5263045 -0.01463559 0.065104658)
(5.4578803 -0.012731946 0.074919214)
(5.4397151 -0.012877297 0.057903947)
(5.5272122 -0.020845343 0.076025719)
(5.5966337 -0.010289024 0.058950466)
(5.5325918 -0.010099657 0.070738243)
(5.5104984 -0.0099360679 0.05416629)
(5.5939678 -0.017039059 0.071276471)
(5.6543495 -0.0039853279 0.048266032)
(5.6007685 -0.005699315 0.061901723)
(5.5738604 -0.0052979476 0.046615794)
(5.6542254 -0.010233998 0.060873393)
(5.6884705 0.0016583193 0.036899447)
(5.6542936 -4.8771798e-05 0.047694577)
(5.6228752 0.00083040263 0.035136927)
(5.6977647 -0.00035972473 0.044160874)
(5.6939574 -0.0010388436 0.03953285)
(5.6833275 0.0023391891 0.036751812)
(5.6507306 0.0037619514 0.027050416)
(5.7132477 0.0082697048 0.029019887)
(5.7025097 -0.012508168 0.055100906)
(5.7193823 -0.0074286651 0.053191898)
(5.687089 -0.0047925906 0.040390778)
(5.7357233 0.0017162658 0.041660065)
(5.7053389 -0.017830896 0.075208981)
(5.6817781 -0.014811709 0.053563037)
(5.7054463 -0.018113392 0.065399827)
(5.2141953 0.01417659 -0.073776209)
(5.2516781 0.0083201343 -0.088205385)
(5.2129289 0.011686805 -0.072114394)
(5.3182767 0.014456852 -0.085955452)
(5.1563574 0.013272777 -0.063272378)
(5.1864162 0.0079273505 -0.077112403)
(5.1498729 0.01081222 -0.06313881)
(5.2584019 0.013836612 -0.075593796)
(5.1064305 0.012184005 -0.051760248)
(5.1286725 0.0080242644 -0.064102027)
(5.0946209 0.0098600293 -0.053055067)
(5.2054422 0.013710158 -0.064604955)
(5.0641259 0.010786442 -0.039608371)
(5.0793085 0.007812334 -0.050412644)
(5.0480766 0.0089199798 -0.042496497)
(5.1600164 0.01367964 -0.053040766)
(5.0312322 0.0089502434 -0.027126301)
(5.0388275 0.0066498585 -0.036800797)
(5.0108114 0.0073510941 -0.031040732)
(5.122305 0.011145653 -0.038697515)
(5.0077997 0.0065076836 -0.014794193)
(5.0082784 0.0051368799 -0.023112688)
(4.9834764 0.0056005391 -0.019610272)
(5.0932718 0.0085603691 -0.024497631)
(4.9938729 0.003499549 -0.0028471493)
(4.9881035 0.0030719396 -0.0098248335)
(4.9663022 0.0034149424 -0.0085278104)
(5.0732215 0.0055878151 -0.010901809)
(4.9893409 0.00038249551 0.0088564415)
(4.9781315 0.00062121919 0.0028193595)
(4.9591361 0.00089516277 0.0022424482)
(5.0613005 0.0019732669 0.0025275054)
(4.9944778 -0.0024245339 0.020483798)
(4.9781174 -0.0016292773 0.015415611)
(4.9616506 -0.0013556319 0.012777446)
(5.0575589 -0.001311654 0.015705088)
(5.0106777 -0.0048292676 0.031946003)
(4.9885681 -0.0034698539 0.028130549)
(4.9740244 -0.0032207707 0.023137672)
(5.0637008 -0.0043802165 0.029083562)
(5.0377266 -0.0068142475 0.043008787)
(5.0101985 -0.0048765398 0.040667016)
(4.9971916 -0.0047221972 0.033231778)
(5.0807557 -0.006918132 0.041785889)
(5.0751692 -0.0084717309 0.053278463)
(5.0418867 -0.0059401825 0.052462579)
(5.0299891 -0.0059273772 0.042915815)
(5.1075787 -0.0092723596 0.054075198)
(5.1224993 -0.0098074969 0.062452007)
(5.0837143 -0.0067245228 0.063213307)
(5.0725054 -0.0070044117 0.051745914)
(5.1442953 -0.011296176 0.064947427)
(5.1788002 -0.010717648 0.070326785)
(5.1344559 -0.0071713628 0.072683308)
(5.1236202 -0.0078029334 0.059577031)
(5.1901388 -0.012943857 0.074611884)
(5.2431336 -0.011290751 0.076485706)
(5.1935872 -0.0073216522 0.080514027)
(5.1828204 -0.0082939853 0.066051836)
(5.2439676 -0.014235916 0.082612727)
(5.3138871 -0.011351485 0.080566211)
(5.2597328 -0.0072344626 0.086167395)
(5.2486734 -0.0086134938 0.07085123)
(5.3054252 -0.015145879 0.088394203)
(5.3887379 -0.010598155 0.08192951)
(5.3311356 -0.0067210837 0.089393345)
(5.3193978 -0.0084056913 0.073547823)
(5.3719815 -0.015241853 0.091774466)
(5.4646055 -0.0089445969 0.079680189)
(5.405384 -0.0056734249 0.089412612)
(5.3923456 -0.0075597265 0.073287253)
(5.442031 -0.013998555 0.09145839)
(5.5369875 -0.0061493517 0.072900154)
(5.4792108 -0.0040690843 0.084957064)
(5.464065 -0.0059275653 0.069307124)
(5.511427 -0.011499372 0.086606654)
(5.5988848 -0.0022715326 0.060658662)
(5.5482895 -0.001493138 0.075205847)
(5.5301636 -0.0032486774 0.060703725)
(5.576189 -0.0070495372 0.075567427)
(5.6404238 0.00045370807 0.04729928)
(5.6055711 0.0013355834 0.058589619)
(5.5843655 0.00011487531 0.046869246)
(5.6274904 -0.0012321527 0.057112352)
(5.6587201 -0.0033846993 0.051156994)
(5.6407739 0.0012525287 0.045298865)
(5.619401 0.0011195078 0.036705723)
(5.653933 0.0024732686 0.040910629)
(5.6888451 -0.012555298 0.073282591)
(5.6929635 -0.0073429507 0.067617127)
(5.670311 -0.0053088416 0.053819173)
(5.6989247 -0.003833143 0.057305518)
(5.7114421 -0.015362293 0.10054073)
(5.6897341 -0.011023376 0.073840389)
(5.7102008 -0.017395943 0.091579453)
(5.2268051 0.0037123606 -0.090059055)
(5.3099383 0.0005003802 -0.10793241)
(5.2298439 0.0025988523 -0.088605328)
(5.317822 0.0041647499 -0.11000901)
(5.1610031 0.0040338621 -0.076716444)
(5.2369523 0.0010926361 -0.093288115)
(5.1616202 0.0028121526 -0.077361034)
(5.2488337 0.0056584408 -0.097480602)
(5.1041151 0.0041444354 -0.062320387)
(5.1712282 0.0011337325 -0.077948068)
(5.1015187 0.0028082514 -0.064544241)
(5.1871336 0.0047795072 -0.081375475)
(5.0558789 0.0038301686 -0.047481092)
(5.1140654 0.0010844197 -0.061563351)
(5.0506124 0.0027178874 -0.051038045)
(5.1334748 0.0043400453 -0.06472295)
(5.0177757 0.0030558897 -0.03259698)
(5.066458 0.00076080186 -0.044893045)
(5.0094559 0.002332095 -0.037371314)
(5.0882327 0.0036099754 -0.047944506)
(4.9903399 0.0018634392 -0.018000662)
(5.0297685 0.00028841862 -0.028304319)
(4.9787638 0.0018925888 -0.023814803)
(5.0522562 0.0026853768 -0.031130618)
(4.9739441 0.00024660482 -0.0041121884)
(5.0049136 -0.00044502876 -0.012611849)
(4.9590792 0.0011387994 -0.01076035)
(5.0259134 0.0010415483 -0.014842681)
(4.968445 -0.0014005862 0.0093717776)
(4.9925134 -0.0013346105 0.0020924014)
(4.9504507 0.00018523904 0.0015939679)
(5.0090474 -0.00086362832 0.00058759804)
(4.9735271 -0.0027297236 0.023018022)
(4.9917053 -0.0022162037 0.017051868)
(4.9519334 -0.0006346918 0.013812945)
(5.002922 -0.0021607503 0.015903487)
(4.9892863 -0.0036561092 0.036727289)
(5.001419 -0.0028451217 0.032552016)
(4.9634013 -0.001208794 0.026208286)
(5.007515 -0.0028531238 0.03136525)
(5.0152808 -0.0041973022 0.049942659)
(5.0210262 -0.0031192419 0.04779696)
(4.9848804 -0.0015340659 0.038488481)
(5.0225431 -0.0031984437 0.046413634)
(5.051116 -0.0044155178 0.062191221)
(5.0500909 -0.0030455226 0.062195733)
(5.0160153 -0.001712573 0.050211675)
(5.0477559 -0.0032919995 0.060588122)
(5.0961441 -0.0043704381 0.073174412)
(5.0880869 -0.0027222014 0.075338577)
(5.0561997 -0.0018255005 0.061066037)
(5.0827326 -0.0032222198 0.073537786)
(5.149526 -0.0040823539 0.082569086)
(5.1343358 -0.0021707825 0.086900647)
(5.1047853 -0.0018879369 0.070786019)
(5.126842 -0.0030553668 0.085022861)
(5.2103587 -0.0035621214 0.089896597)
(5.1881445 -0.0014137583 0.09645451)
(5.1610799 -0.0018569598 0.078942803)
(5.1791767 -0.0027641658 0.094634606)
(5.2771763 -0.0028154666 0.094775785)
(5.2484438 -0.00049621497 0.10350705)
(5.223895 -0.0017849762 0.085081309)
(5.2388577 -0.0022676864 0.10171174)
(5.3479446 -0.001931692 0.096722157)
(5.3136445 0.00047900065 0.10771624)
(5.2915304 -0.0016375715 0.08881433)
(5.3040769 -0.0014693099 0.10601717)
(5.4203932 -0.00083991818 0.094612818)
(5.3818329 0.0013830744 0.10794043)
(5.361865 -0.0013710464 0.089260856)
(5.3727327 -0.00069341215 0.10687403)
(5.4906175 0.00077701117 0.087413667)
(5.4502084 0.0024226212 0.10276727)
(5.4319554 -0.0008367595 0.085252663)
(5.4421105 0.00043920574 0.10249964)
(5.5528307 0.003090681 0.074143409)
(5.5155378 0.0035776046 0.091243945)
(5.4982654 0.000131334 0.076048074)
(5.5087547 0.0021902118 0.091913731)
(5.5979519 0.0032806371 0.05783464)
(5.5724463 0.0037035692 0.070622953)
(5.5548107 0.0017136877 0.060216695)
(5.5648246 0.0043473126 0.073249241)
(5.624642 -0.0017050651 0.062910448)
(5.6080715 0.0035239289 0.054247402)
(5.5933888 0.00029649898 0.04673706)
(5.5981792 0.0034919328 0.053458048)
(5.6734281 -0.009652404 0.095111374)
(5.6705386 -0.0032622775 0.083111656)
(5.6559592 -0.0022881327 0.068286889)
(5.6635708 -0.002801328 0.075892829)
(5.7185683 -0.012893678 0.12964132)
(5.6986198 -0.0045245328 0.097217542)
(5.7188818 -0.013626097 0.12373371)
(5.3231968 -0.00019079209 -0.10945991)
(5.3087644 -0.00089779678 -0.10776597)
(5.3984105 0.00010015599 -0.13519988)
(5.398096 -0.000220133 -0.13510575)
(5.2494613 -0.00026709206 -0.093146336)
(5.2357779 -0.0016684314 -0.09312847)
(5.3212761 -0.00039428554 -0.11800158)
(5.3208981 -1.487161e-05 -0.11796671)
(5.1835934 -0.00030119772 -0.075717407)
(5.1701995 -0.001904567 -0.077760763)
(5.2497929 -0.00072196854 -0.099708099)
(5.2493883 0.00010633749 -0.099703321)
(5.1264618 -0.00027136712 -0.057396429)
(5.1132017 -0.0018226141 -0.061413305)
(5.1850139 -0.00084555149 -0.080186279)
(5.1846101 0.00020653511 -0.080194331)
(5.0801052 -0.00019300728 -0.038903264)
(5.0657928 -0.0013690812 -0.044781275)
(5.1279953 -0.00091533314 -0.060040971)
(5.1276189 0.00035137839 -0.060067936)
(5.045845 -0.00011598477 -0.021106033)
(5.02922 -0.00065477709 -0.028247083)
(5.0800073 -0.00089986868 -0.039805582)
(5.0796854 0.00053303245 -0.03984074)
(5.0248371 -0.00010175818 -0.0045491507)
(5.0043478 0.00021492028 -0.012585176)
(5.0439044 -0.00098318473 -0.020438869)
(5.0436241 0.00071304822 -0.020475986)
(5.01704 -0.00015262289 0.011731192)
(4.9918126 0.0010767991 0.0021175582)
(5.022901 -0.00097169666 -0.002079659)
(5.0226827 0.00068957837 -0.0021160309)
(5.0204808 -0.00022368592 0.02868071)
(4.9909985 0.001771231 0.017117987)
(5.0172112 -0.00054896329 0.016368954)
(5.0170057 0.00017131066 0.016350893)
(5.0338721 -0.00023801629 0.045704548)
(5.0008423 0.0022792681 0.032636579)
(5.022645 -3.3760218e-05 0.035138124)
(5.022443 -0.00043771124 0.035129158)
(5.0563755 -0.00018297226 0.061866286)
(5.0207177 0.0026334251 0.047851916)
(5.0374278 0.00045529151 0.053393086)
(5.0372378 -0.0008925581 0.053376464)
(5.087401 -9.6817526e-05 0.076633509)
(5.0500423 0.0027644301 0.06219782)
(5.060905 0.00090808848 0.070653045)
(5.0607354 -0.0012141828 0.070622284)
(5.1264869 6.9865306e-06 0.089608579)
(5.0881969 0.0026618246 0.075298733)
(5.0925592 0.0013223457 0.086543264)
(5.0924241 -0.0014648845 0.086502122)
(5.1730357 0.00013278897 0.10038397)
(5.1345748 0.0023690929 0.086820882)
(5.1320065 0.0016333726 0.10060124)
(5.1319124 -0.0015610278 0.10055249)
(5.2263253 0.00026241772 0.10855205)
(5.1884738 0.0019237645 0.096333844)
(5.1787286 0.001858629 0.11237819)
(5.1786719 -0.0015363245 0.11231993)
(5.2850792 0.00035044784 0.11376092)
(5.2487493 0.0012772595 0.10336924)
(5.2319195 0.0021123754 0.12138938)
(5.2319139 -0.0015637731 0.12133173)
(5.3476852 0.00041266712 0.11518276)
(5.3138333 0.00041924294 0.10757448)
(5.290396 0.0023065374 0.12716663)
(5.2904249 -0.0016536628 0.12710665)
(5.4122298 0.0004871836 0.11142413)
(5.3817655 -0.00043507952 0.10781914)
(5.3526415 0.002426248 0.12824559)
(5.3526988 -0.0015901561 0.12826474)
(5.475641 0.00051067693 0.101241)
(5.4497378 -0.0013182966 0.10266839)
(5.4163467 0.0025272484 0.12324169)
(5.4164289 -0.0015272326 0.12325087)
(5.5318442 0.00041816806 0.08335352)
(5.5147483 -0.0025381396 0.091172718)
(5.479087 0.0024603646 0.11054014)
(5.479172 -0.0015428027 0.11053662)
(5.5785104 0.00019607537 0.062709858)
(5.5715675 -0.0030514592 0.070664438)
(5.5345119 0.0023787096 0.087742835)
(5.5346336 -0.0017772967 0.087745587)
(5.6030385 1.2829552e-05 0.072263928)
(5.6073872 -0.0033765674 0.054277481)
(5.5667279 0.0017059347 0.065572658)
(5.5669457 -0.0017345264 0.065480569)
(5.6587878 5.7448419e-05 0.12406663)