/*--------------------------------*- C++ -*----------------------------------*\
| =========                 |                                                 |
| \\      /  F ield         | OpenFOAM: The Open Source CFD Toolbox           |
|  \\    /   O peration     | Version:  4.1                                   |
|   \\  /    A nd           | Web:      www.OpenFOAM.org                      |
|    \\/     M anipulation  |                                                 |
\*---------------------------------------------------------------------------*/
FoamFile
{
    version     2.0;
    format      ascii;
    class       pointVectorField;
    location    "0.0008";
    object      pointDisplacement_Next;
}
// * * * * * * * * * * * * * * * * * * * * * * * * * * * * * * * * * * * * * //

dimensions      [0 1 0 0 0 0 0];

internalField   uniform (0 0 0);

boundaryField
{
    inlet
    {
        type            fixedValue;
        value           uniform (0 0 0);
    }
    outlet
    {
        type            fixedValue;
        value           nonuniform 0();
    }
    mantle
    {
        type            fixedValue;
        value           nonuniform List<vector> 
416
(
(1.8371e-12 -1.8144e-11 2.8148e-18)
(5.2014e-06 -4.7163e-05 1.9088e-11)
(5.3416e-06 -4.5151e-05 8.2987e-06)
(-5.5141e-09 -1.9732e-07 -1.0997e-07)
(5.4329e-06 -4.1356e-05 1.7141e-05)
(1.3694e-12 -2.2921e-11 8.9346e-12)
(5.2312e-06 -3.8006e-05 2.6215e-05)
(-1.0822e-08 -7.5977e-08 2.1777e-07)
(5.0429e-06 -3.3608e-05 3.3608e-05)
(2.3948e-12 -6.171e-12 6.1711e-12)
(5.2311e-06 -2.6214e-05 3.8006e-05)
(-1.0821e-08 -2.1777e-07 7.5979e-08)
(5.4329e-06 -1.7141e-05 4.1356e-05)
(1.3694e-12 -8.9346e-12 2.2921e-11)
(5.3415e-06 -8.2985e-06 4.5151e-05)
(-5.5147e-09 1.0997e-07 1.9732e-07)
(5.2014e-06 1.2213e-10 4.7163e-05)
(1.8371e-12 3.0598e-17 1.8144e-11)
(1.1552e-05 -7.8433e-05 6.15e-11)
(1.1837e-05 -7.4549e-05 1.3798e-05)
(1.1988e-05 -6.8362e-05 2.8308e-05)
(1.1651e-05 -6.2978e-05 4.3291e-05)
(1.1275e-05 -5.6075e-05 5.6075e-05)
(1.1651e-05 -4.329e-05 6.2978e-05)
(1.1988e-05 -2.8308e-05 6.8362e-05)
(1.1837e-05 -1.3797e-05 7.4549e-05)
(1.1551e-05 2.2308e-10 7.8432e-05)
(1.8113e-05 -7.8228e-05 1.2954e-10)
(1.8138e-05 -7.6039e-05 1.4573e-05)
(1.8138e-05 -7.1147e-05 2.9398e-05)
(1.7992e-05 -6.4913e-05 4.3937e-05)
(1.7901e-05 -5.63e-05 5.6301e-05)
(1.7992e-05 -4.3936e-05 6.4913e-05)
(1.8138e-05 -2.9397e-05 7.1147e-05)
(1.8138e-05 -1.4573e-05 7.6039e-05)
(1.8113e-05 1.6251e-10 7.8228e-05)
(2.0605e-05 -5.7911e-05 1.7927e-10)
(2.0403e-05 -5.7821e-05 1.1621e-05)
(2.0337e-05 -5.5583e-05 2.2902e-05)
(2.0366e-05 -5.0158e-05 3.3247e-05)
(2.0553e-05 -4.2203e-05 4.2204e-05)
(2.0366e-05 -3.3247e-05 5.0159e-05)
(2.0337e-05 -2.2902e-05 5.5583e-05)
(2.0403e-05 -1.162e-05 5.7821e-05)
(2.0605e-05 1.0295e-10 5.7911e-05)
(1.631e-05 -3.5318e-05 1.9715e-10)
(1.6405e-05 -3.5681e-05 7.4782e-06)
(1.6533e-05 -3.4975e-05 1.4458e-05)
(1.6481e-05 -3.1509e-05 2.0589e-05)
(1.6421e-05 -2.6184e-05 2.6185e-05)
(1.6481e-05 -2.0589e-05 3.151e-05)
(1.6533e-05 -1.4458e-05 3.4975e-05)
(1.6405e-05 -7.4777e-06 3.5681e-05)
(1.6311e-05 1.54e-10 3.5318e-05)
(8.9118e-06 -1.8438e-05 1.9431e-10)
(9.3144e-06 -1.8879e-05 4.0921e-06)
(9.6625e-06 -1.8825e-05 7.838e-06)
(9.4614e-06 -1.7035e-05 1.106e-05)
(9.1276e-06 -1.405e-05 1.4051e-05)
(9.4614e-06 -1.106e-05 1.7036e-05)
(9.6625e-06 -7.8375e-06 1.8826e-05)
(9.3145e-06 -4.0916e-06 1.8879e-05)
(8.9119e-06 2.4942e-10 1.8438e-05)
(3.3801e-06 -1.0311e-05 1.6982e-10)
(3.6082e-06 -1.0273e-05 2.0616e-06)
(3.8562e-06 -1.0028e-05 4.1629e-06)
(3.7569e-06 -9.3079e-06 6.2221e-06)
(3.5937e-06 -8.0171e-06 8.0176e-06)
(3.7569e-06 -6.2216e-06 9.3083e-06)
(3.8561e-06 -4.1624e-06 1.0028e-05)
(3.6082e-06 -2.0611e-06 1.0274e-05)
(3.38e-06 2.8909e-10 1.0311e-05)
(6.3865e-07 -8.0362e-06 1.488e-10)
(6.788e-07 -7.5494e-06 1.2988e-06)
(7.5369e-07 -6.9238e-06 2.8128e-06)
(7.9256e-07 -6.6754e-06 4.6295e-06)
(8.0025e-07 -6.1533e-06 6.1538e-06)
(7.9252e-07 -4.629e-06 6.676e-06)
(7.5362e-07 -2.8123e-06 6.9244e-06)
(6.787e-07 -1.2984e-06 7.5501e-06)
(6.3854e-07 2.8725e-10 8.037e-06)
(-1.1051e-07 -7.1984e-06 8.7254e-10)
(-1.3983e-07 -6.7821e-06 1.1069e-06)
(-1.4783e-07 -6.1583e-06 2.497e-06)
(-6.5039e-08 -5.8673e-06 4.1277e-06)
(-5.1638e-09 -5.3981e-06 5.3978e-06)
(-6.5078e-08 -4.1272e-06 5.868e-06)
(-1.479e-07 -2.4966e-06 6.1592e-06)
(-1.3992e-07 -1.1065e-06 6.7832e-06)
(-1.1061e-07 -4.1048e-10 7.1997e-06)
(8.4903e-09 -6.0817e-06 2.6473e-10)
(-7.6106e-08 -5.8332e-06 1.0213e-06)
(-1.1249e-07 -5.386e-06 2.2091e-06)
(-3.24e-08 -5.042e-06 3.5007e-06)
(7.0419e-08 -4.5211e-06 4.5217e-06)
(-3.2425e-08 -3.5003e-06 5.0429e-06)
(-1.1253e-07 -2.2087e-06 5.3871e-06)
(-7.6148e-08 -1.0209e-06 5.8346e-06)
(8.4456e-09 2.5287e-10 6.0832e-06)
(-3.4269e-08 -4.064e-06 3.2227e-10)
(-8.1462e-08 -4.0249e-06 7.9366e-07)
(-1.1515e-07 -3.8554e-06 1.5993e-06)
(-5.5771e-08 -3.5357e-06 2.3755e-06)
(1.6112e-09 -3.0313e-06 3.0321e-06)
(-5.5787e-08 -2.3751e-06 3.5366e-06)
(-1.1517e-07 -1.599e-06 3.8566e-06)
(-8.148e-08 -7.9321e-07 4.0264e-06)
(-3.4288e-08 3.0313e-10 4.0656e-06)
(-3.8973e-07 -2.0808e-06 2.6692e-10)
(-3.9297e-07 -2.1799e-06 4.7901e-07)
(-3.9436e-07 -2.2e-06 9.2291e-07)
(-3.7551e-07 -1.9612e-06 1.2759e-06)
(-3.6555e-07 -1.5794e-06 1.5801e-06)
(-3.7552e-07 -1.2754e-06 1.962e-06)
(-3.9438e-07 -9.2249e-07 2.201e-06)
(-3.9299e-07 -4.7846e-07 2.1812e-06)
(-3.8975e-07 4.5868e-10 2.0821e-06)
(5.3415e-06 8.2986e-06 4.5151e-05)
(-5.5148e-09 -1.0996e-07 1.9731e-07)
(5.4329e-06 1.7141e-05 4.1355e-05)
(1.3694e-12 8.9345e-12 2.2921e-11)
(5.2311e-06 2.6214e-05 3.8005e-05)
(-1.0821e-08 2.1776e-07 7.5969e-08)
(5.0429e-06 3.3608e-05 3.3608e-05)
(2.3947e-12 6.1707e-12 6.1708e-12)
(5.2311e-06 3.8005e-05 2.6214e-05)
(-1.0821e-08 7.596e-08 2.1777e-07)
(5.4329e-06 4.1356e-05 1.7141e-05)
(1.3694e-12 2.2921e-11 8.9344e-12)
(5.3415e-06 4.5152e-05 8.2986e-06)
(-5.515e-09 1.9734e-07 -1.0996e-07)
(5.2014e-06 4.7163e-05 2.06e-11)
(1.8371e-12 1.8145e-11 -1.8439e-17)
(1.1837e-05 1.3797e-05 7.4549e-05)
(1.1988e-05 2.8308e-05 6.8361e-05)
(1.1651e-05 4.329e-05 6.2977e-05)
(1.1275e-05 5.6074e-05 5.6074e-05)
(1.1651e-05 6.2978e-05 4.329e-05)
(1.1988e-05 6.8362e-05 2.8308e-05)
(1.1837e-05 7.455e-05 1.3797e-05)
(1.1551e-05 7.8434e-05 9.1813e-11)
(1.8138e-05 1.4573e-05 7.6039e-05)
(1.8138e-05 2.9397e-05 7.1146e-05)
(1.7992e-05 4.3936e-05 6.4912e-05)
(1.7901e-05 5.63e-05 5.63e-05)
(1.7992e-05 6.4912e-05 4.3936e-05)
(1.8138e-05 7.1147e-05 2.9397e-05)
(1.8138e-05 7.604e-05 1.4573e-05)
(1.8113e-05 7.8229e-05 6.5209e-11)
(2.0403e-05 1.162e-05 5.782e-05)
(2.0336e-05 2.2902e-05 5.5582e-05)
(2.0366e-05 3.3247e-05 5.0158e-05)
(2.0553e-05 4.2203e-05 4.2203e-05)
(2.0366e-05 5.0158e-05 3.3247e-05)
(2.0336e-05 5.5583e-05 2.2902e-05)
(2.0403e-05 5.7821e-05 1.1621e-05)
(2.0605e-05 5.7911e-05 2.4993e-11)
(1.6405e-05 7.4779e-06 3.5681e-05)
(1.6533e-05 1.4458e-05 3.4975e-05)
(1.6481e-05 2.0589e-05 3.1509e-05)
(1.6421e-05 2.6184e-05 2.6184e-05)
(1.6481e-05 3.1509e-05 2.0589e-05)
(1.6533e-05 3.4975e-05 1.4458e-05)
(1.6405e-05 3.5681e-05 7.4781e-06)
(1.6311e-05 3.5318e-05 1.1025e-10)
(9.3144e-06 4.092e-06 1.8879e-05)
(9.6625e-06 7.8377e-06 1.8825e-05)
(9.4614e-06 1.106e-05 1.7035e-05)
(9.1277e-06 1.405e-05 1.405e-05)
(9.4614e-06 1.7035e-05 1.106e-05)
(9.6625e-06 1.8825e-05 7.8377e-06)
(9.3144e-06 1.8879e-05 4.092e-06)
(8.9118e-06 1.8438e-05 2.0146e-10)
(3.6081e-06 2.0616e-06 1.0273e-05)
(3.8561e-06 4.1627e-06 1.0028e-05)
(3.7568e-06 6.2217e-06 9.3077e-06)
(3.5936e-06 8.017e-06 8.017e-06)
(3.7569e-06 9.3075e-06 6.2215e-06)
(3.8561e-06 1.0027e-05 4.1625e-06)
(3.6082e-06 1.0273e-05 2.0614e-06)
(3.38e-06 1.0311e-05 2.3086e-10)
(6.7866e-07 1.2988e-06 7.5499e-06)
(7.5353e-07 2.8126e-06 6.924e-06)
(7.924e-07 4.6292e-06 6.6756e-06)
(8.0011e-07 6.1533e-06 6.1533e-06)
(7.9243e-07 6.675e-06 4.6289e-06)
(7.5359e-07 6.9231e-06 2.8122e-06)
(6.7873e-07 7.5489e-06 1.2986e-06)
(6.386e-07 8.0361e-06 2.5013e-10)
(-1.3996e-07 1.107e-06 6.783e-06)
(-1.4799e-07 2.497e-06 6.159e-06)
(-6.5199e-08 4.1276e-06 5.8678e-06)
(-5.3065e-09 5.3984e-06 5.3975e-06)
(-6.5184e-08 5.8671e-06 4.1273e-06)
(-1.4796e-07 6.1578e-06 2.4966e-06)
(-1.3994e-07 6.7815e-06 1.1067e-06)
(-1.106e-07 7.1981e-06 9.2532e-10)
(-7.6183e-08 1.0214e-06 5.8344e-06)
(-1.126e-07 2.2092e-06 5.3869e-06)
(-3.2501e-08 3.5008e-06 5.0427e-06)
(7.033e-08 4.5216e-06 4.5215e-06)
(-3.2511e-08 5.0422e-06 3.5004e-06)
(-1.1262e-07 5.3857e-06 2.2087e-06)
(-7.6233e-08 5.8327e-06 1.0211e-06)
(8.3687e-09 6.0813e-06 2.9911e-10)
(-8.1502e-08 7.9382e-07 4.0261e-06)
(-1.1521e-07 1.5994e-06 3.8562e-06)
(-5.5827e-08 2.3756e-06 3.5363e-06)
(1.5609e-09 3.0318e-06 3.0319e-06)
(-5.5852e-08 3.5359e-06 2.3753e-06)
(-1.1526e-07 3.8553e-06 1.599e-06)
(-8.1583e-08 4.0246e-06 7.9349e-07)
(-3.4382e-08 4.0637e-06 2.8416e-10)
(-3.93e-07 4.7919e-07 2.1808e-06)
(-3.9441e-07 9.2294e-07 2.2005e-06)
(-3.7555e-07 1.2758e-06 1.9616e-06)
(-3.6559e-07 1.5797e-06 1.5798e-06)
(-3.7558e-07 1.9613e-06 1.2755e-06)
(-3.9446e-07 2.1998e-06 9.2252e-07)
(-3.9307e-07 2.1795e-06 4.7881e-07)
(-3.8981e-07 2.0804e-06 3.5102e-10)
(5.3415e-06 4.5152e-05 -8.2987e-06)
(-5.5152e-09 1.9732e-07 1.0997e-07)
(5.4329e-06 4.1356e-05 -1.7141e-05)
(1.3694e-12 2.2921e-11 -8.9348e-12)
(5.2311e-06 3.8006e-05 -2.6215e-05)
(-1.0821e-08 7.597e-08 -2.1777e-07)
(5.0429e-06 3.3609e-05 -3.3608e-05)
(2.3948e-12 6.1711e-12 -6.171e-12)
(5.2312e-06 2.6215e-05 -3.8006e-05)
(-1.0821e-08 2.1778e-07 -7.5977e-08)
(5.4329e-06 1.7141e-05 -4.1356e-05)
(1.3694e-12 8.9347e-12 -2.2921e-11)
(5.3415e-06 8.2989e-06 -4.5152e-05)
(-5.5155e-09 -1.0997e-07 -1.9732e-07)
(5.2014e-06 1.3082e-10 -4.7164e-05)
(1.8371e-12 5.7497e-17 -1.8145e-11)
(1.1837e-05 7.455e-05 -1.3797e-05)
(1.1988e-05 6.8363e-05 -2.8308e-05)
(1.1651e-05 6.2979e-05 -4.3291e-05)
(1.1275e-05 5.6075e-05 -5.6075e-05)
(1.1651e-05 4.3291e-05 -6.2979e-05)
(1.1988e-05 2.8309e-05 -6.8363e-05)
(1.1837e-05 1.3798e-05 -7.4551e-05)
(1.1551e-05 1.971e-10 -7.8434e-05)
(1.8138e-05 7.604e-05 -1.4573e-05)
(1.8138e-05 7.1147e-05 -2.9397e-05)
(1.7992e-05 6.4913e-05 -4.3937e-05)
(1.7901e-05 5.6301e-05 -5.6301e-05)
(1.7992e-05 4.3937e-05 -6.4913e-05)
(1.8138e-05 2.9398e-05 -7.1148e-05)
(1.8138e-05 1.4574e-05 -7.6041e-05)
(1.8113e-05 1.8378e-10 -7.823e-05)
(2.0403e-05 5.7821e-05 -1.162e-05)
(2.0337e-05 5.5583e-05 -2.2902e-05)
(2.0366e-05 5.0159e-05 -3.3247e-05)
(2.0553e-05 4.2204e-05 -4.2204e-05)
(2.0366e-05 3.3248e-05 -5.0159e-05)
(2.0337e-05 2.2903e-05 -5.5584e-05)
(2.0403e-05 1.1621e-05 -5.7822e-05)
(2.0605e-05 1.4326e-10 -5.7912e-05)
(1.6405e-05 3.5681e-05 -7.4778e-06)
(1.6533e-05 3.4975e-05 -1.4458e-05)
(1.6481e-05 3.1509e-05 -2.0589e-05)
(1.6421e-05 2.6185e-05 -2.6185e-05)
(1.6481e-05 2.059e-05 -3.151e-05)
(1.6533e-05 1.4458e-05 -3.4976e-05)
(1.6405e-05 7.4783e-06 -3.5682e-05)
(1.6311e-05 1.3573e-10 -3.5319e-05)
(9.3144e-06 1.8879e-05 -4.0916e-06)
(9.6625e-06 1.8825e-05 -7.8374e-06)
(9.4614e-06 1.7036e-05 -1.106e-05)
(9.1276e-06 1.4051e-05 -1.405e-05)
(9.4614e-06 1.106e-05 -1.7036e-05)
(9.6626e-06 7.8381e-06 -1.8826e-05)
(9.3145e-06 4.0921e-06 -1.8879e-05)
(8.9119e-06 1.5236e-10 -1.8438e-05)
(3.6082e-06 1.0273e-05 -2.061e-06)
(3.8561e-06 1.0028e-05 -4.1622e-06)
(3.7568e-06 9.3078e-06 -6.2213e-06)
(3.5936e-06 8.0172e-06 -8.0168e-06)
(3.7569e-06 6.2219e-06 -9.3076e-06)
(3.8561e-06 4.1628e-06 -1.0028e-05)
(3.6082e-06 2.0616e-06 -1.0273e-05)
(3.38e-06 1.7272e-10 -1.0311e-05)
(6.7871e-07 7.5492e-06 -1.2982e-06)
(7.5357e-07 6.9234e-06 -2.8119e-06)
(7.9245e-07 6.675e-06 -4.6284e-06)
(8.0017e-07 6.1529e-06 -6.1525e-06)
(7.9249e-07 4.6289e-06 -6.6747e-06)
(7.5363e-07 2.8124e-06 -6.9233e-06)
(6.7873e-07 1.2987e-06 -7.5493e-06)
(6.3858e-07 1.9718e-10 -8.0364e-06)
(-1.3994e-07 6.7817e-06 -1.1063e-06)
(-1.4796e-07 6.1578e-06 -2.4961e-06)
(-6.5169e-08 5.8669e-06 -4.1265e-06)
(-5.2629e-09 5.3978e-06 -5.3964e-06)
(-6.5127e-08 4.127e-06 -5.8664e-06)
(-1.4791e-07 2.4966e-06 -6.1575e-06)
(-1.399e-07 1.1068e-06 -6.7816e-06)
(-1.1057e-07 -3.9188e-10 -7.1982e-06)
(-7.6226e-08 5.8327e-06 -1.0206e-06)
(-1.1261e-07 5.3855e-06 -2.2081e-06)
(-3.25e-08 5.0417e-06 -3.4996e-06)
(7.0345e-08 4.5208e-06 -4.5203e-06)
(-3.2463e-08 3.5001e-06 -5.0411e-06)
(-1.1255e-07 2.2086e-06 -5.385e-06)
(-7.6148e-08 1.0211e-06 -5.8323e-06)
(8.4588e-09 3.188e-10 -6.081e-06)
(-8.1561e-08 4.0244e-06 -7.9285e-07)
(-1.1523e-07 3.8549e-06 -1.5983e-06)
(-5.5819e-08 3.5352e-06 -2.3742e-06)
(1.5921e-09 3.0309e-06 -3.0304e-06)
(-5.5789e-08 2.3747e-06 -3.5345e-06)
(-1.1517e-07 1.5987e-06 -3.8541e-06)
(-8.148e-08 7.9341e-07 -4.0238e-06)
(-3.4284e-08 2.8952e-10 -4.0632e-06)
(-3.9304e-07 2.1793e-06 -4.7813e-07)
(-3.9441e-07 2.1993e-06 -9.2174e-07)
(-3.7552e-07 1.9605e-06 -1.2744e-06)
(-3.6554e-07 1.5787e-06 -1.5781e-06)
(-3.755e-07 1.2749e-06 -1.9596e-06)
(-3.9436e-07 9.222e-07 -2.1984e-06)
(-3.9297e-07 4.7872e-07 -2.1786e-06)
(-3.8973e-07 3.484e-10 -2.0798e-06)
(5.3416e-06 -8.2986e-06 -4.5152e-05)
(-5.5157e-09 1.0997e-07 -1.9732e-07)
(5.4329e-06 -1.7141e-05 -4.1356e-05)
(1.3694e-12 -8.9345e-12 -2.2921e-11)
(5.2312e-06 -2.6214e-05 -3.8006e-05)
(-1.082e-08 -2.1777e-07 -7.5972e-08)
(5.043e-06 -3.3608e-05 -3.3608e-05)
(2.3948e-12 -6.171e-12 -6.1709e-12)
(5.2312e-06 -3.8006e-05 -2.6214e-05)
(-1.0821e-08 -7.5978e-08 -2.1777e-07)
(5.433e-06 -4.1356e-05 -1.7141e-05)
(1.3694e-12 -2.2921e-11 -8.9346e-12)
(5.3416e-06 -4.5151e-05 -8.2986e-06)
(-5.5144e-09 -1.9731e-07 1.0996e-07)
(1.1837e-05 -1.3797e-05 -7.4551e-05)
(1.1988e-05 -2.8308e-05 -6.8363e-05)
(1.1651e-05 -4.329e-05 -6.2979e-05)
(1.1275e-05 -5.6075e-05 -5.6074e-05)
(1.1651e-05 -6.2978e-05 -4.329e-05)
(1.1988e-05 -6.8362e-05 -2.8308e-05)
(1.1837e-05 -7.4549e-05 -1.3797e-05)
(1.8138e-05 -1.4573e-05 -7.6041e-05)
(1.8138e-05 -2.9397e-05 -7.1148e-05)
(1.7992e-05 -4.3937e-05 -6.4913e-05)
(1.7901e-05 -5.63e-05 -5.63e-05)
(1.7992e-05 -6.4912e-05 -4.3936e-05)
(1.8138e-05 -7.1147e-05 -2.9397e-05)
(1.8138e-05 -7.6039e-05 -1.4573e-05)
(2.0403e-05 -1.162e-05 -5.7822e-05)
(2.0337e-05 -2.2902e-05 -5.5584e-05)
(2.0366e-05 -3.3247e-05 -5.0159e-05)
(2.0553e-05 -4.2203e-05 -4.2203e-05)
(2.0366e-05 -5.0158e-05 -3.3247e-05)
(2.0337e-05 -5.5583e-05 -2.2902e-05)
(2.0403e-05 -5.7821e-05 -1.162e-05)
(1.6405e-05 -7.478e-06 -3.5682e-05)
(1.6533e-05 -1.4458e-05 -3.4976e-05)
(1.6481e-05 -2.0589e-05 -3.151e-05)
(1.6421e-05 -2.6185e-05 -2.6185e-05)
(1.6481e-05 -3.1509e-05 -2.0589e-05)
(1.6533e-05 -3.4975e-05 -1.4458e-05)
(1.6405e-05 -3.5681e-05 -7.4778e-06)
(9.3145e-06 -4.0918e-06 -1.8879e-05)
(9.6625e-06 -7.8377e-06 -1.8826e-05)
(9.4614e-06 -1.106e-05 -1.7036e-05)
(9.1276e-06 -1.4051e-05 -1.4051e-05)
(9.4614e-06 -1.7035e-05 -1.106e-05)
(9.6625e-06 -1.8825e-05 -7.8376e-06)
(9.3144e-06 -1.8879e-05 -4.0917e-06)
(3.6082e-06 -2.0611e-06 -1.0273e-05)
(3.8561e-06 -4.1624e-06 -1.0028e-05)
(3.7569e-06 -6.2217e-06 -9.308e-06)
(3.5937e-06 -8.0173e-06 -8.0174e-06)
(3.7569e-06 -9.3078e-06 -6.2217e-06)
(3.8561e-06 -1.0027e-05 -4.1624e-06)
(3.6082e-06 -1.0273e-05 -2.0611e-06)
(6.7874e-07 -1.2982e-06 -7.5492e-06)
(7.5367e-07 -2.8119e-06 -6.9232e-06)
(7.9257e-07 -4.6288e-06 -6.6752e-06)
(8.0029e-07 -6.1532e-06 -6.1532e-06)
(7.9257e-07 -6.6752e-06 -4.6289e-06)
(7.5368e-07 -6.9233e-06 -2.812e-06)
(6.7878e-07 -7.5491e-06 -1.2983e-06)
(-1.3988e-07 -1.1062e-06 -6.7815e-06)
(-1.4785e-07 -2.4961e-06 -6.1576e-06)
(-6.5027e-08 -4.1268e-06 -5.8668e-06)
(-5.1252e-09 -5.3978e-06 -5.3969e-06)
(-6.5024e-08 -5.8669e-06 -4.1269e-06)
(-1.4784e-07 -6.1578e-06 -2.4963e-06)
(-1.3984e-07 -6.7817e-06 -1.1064e-06)
(-7.6135e-08 -1.0205e-06 -5.8324e-06)
(-1.1251e-07 -2.208e-06 -5.3851e-06)
(-3.2389e-08 -3.4996e-06 -5.0413e-06)
(7.0452e-08 -4.5206e-06 -4.5206e-06)
(-3.2384e-08 -5.0415e-06 -3.4999e-06)
(-1.125e-07 -5.3854e-06 -2.2083e-06)
(-7.6112e-08 -5.8329e-06 -1.0207e-06)
(-8.1481e-08 -7.9279e-07 -4.0239e-06)
(-1.1517e-07 -1.5982e-06 -3.8544e-06)
(-5.5767e-08 -2.3742e-06 -3.5348e-06)
(1.6341e-09 -3.0305e-06 -3.0307e-06)
(-5.576e-08 -3.535e-06 -2.3745e-06)
(-1.1516e-07 -3.8548e-06 -1.5985e-06)
(-8.1468e-08 -4.0246e-06 -7.9304e-07)
(-3.9298e-07 -4.7811e-07 -2.1788e-06)
(-3.9437e-07 -9.2175e-07 -2.1988e-06)
(-3.7551e-07 -1.2745e-06 -1.9601e-06)
(-3.6553e-07 -1.5785e-06 -1.5785e-06)
(-3.755e-07 -1.9604e-06 -1.2748e-06)
(-3.9437e-07 -2.1994e-06 -9.221e-07)
(-3.9298e-07 -2.1796e-06 -4.784e-07)
)
;
    }
    procBoundary0to1
    {
        type            processor;
    }
}


// ************************************************************************* //
