/*--------------------------------*- C++ -*----------------------------------*\
| =========                 |                                                 |
| \\      /  F ield         | OpenFOAM: The Open Source CFD Toolbox           |
|  \\    /   O peration     | Version:  4.1                                   |
|   \\  /    A nd           | Web:      www.OpenFOAM.org                      |
|    \\/     M anipulation  |                                                 |
\*---------------------------------------------------------------------------*/
FoamFile
{
    version     2.0;
    format      ascii;
    class       volVectorField;
    location    "0.000760";
    object      cellDisplacement;
}
// * * * * * * * * * * * * * * * * * * * * * * * * * * * * * * * * * * * * * //

dimensions      [0 1 0 0 0 0 0];

internalField   nonuniform List<vector> 
3072
(
(0 -6.6875257e-05 -4.5339341e-10)
(0 -0.00015042908 4.7568337e-09)
(0 -0.00018210247 3.4318584e-08)
(0 -0.00018244281 9.7784942e-08)
(0 -0.00016615456 1.362544e-07)
(0 -0.00014004924 1.6049725e-07)
(0 -0.00010877724 2.0001502e-07)
(0 -7.404298e-05 2.2260783e-07)
(0 -3.767049e-05 2.3837942e-07)
(0 -2.964152e-07 2.3865897e-07)
(0 3.7028429e-05 2.2307698e-07)
(0 7.3701243e-05 1.9935466e-07)
(0 0.00010927359 2.107555e-07)
(0 0.00014260128 1.9981869e-07)
(0 0.00017340791 1.6775829e-07)
(0 0.00020094351 9.0537788e-08)
(0 0.00022470803 4.5157405e-08)
(0 0.00024417226 1.9554491e-08)
(0 0.0002591491 2.3873292e-08)
(0 0.00026957583 3.31988e-08)
(0 0.00027536454 2.1307307e-08)
(0 0.00027653251 -1.5712158e-08)
(0 0.00027312308 -5.8892846e-08)
(0 0.00026528541 -1.0089376e-07)
(0 -5.4284766e-05 9.2795467e-06)
(0 -0.00012648519 2.2225118e-05)
(0 -0.00015644954 3.0411422e-05)
(0 -0.00015868554 3.5471582e-05)
(0 -0.00014561067 3.8695388e-05)
(0 -0.0001233571 4.0616586e-05)
(0 -9.627965e-05 4.1533665e-05)
(0 -6.6006492e-05 4.1560962e-05)
(0 -3.4218516e-05 4.0792771e-05)
(0 -1.4953416e-06 3.9284842e-05)
(0 3.1216545e-05 3.7074304e-05)
(0 6.3500929e-05 3.4236269e-05)
(0 9.4812064e-05 3.0848118e-05)
(0 0.00012397238 2.6955495e-05)
(0 0.00015119907 2.2616177e-05)
(0 0.00017567537 1.7871394e-05)
(0 0.00019676568 1.2904265e-05)
(0 0.00021400831 7.781058e-06)
(0 0.00022722921 2.5641604e-06)
(0 0.00023648148 -2.6296439e-06)
(0 0.00024170043 -7.7948001e-06)
(0 0.00024281604 -1.2848705e-05)
(0 0.00023990108 -1.7710791e-05)
(0 0.00023309622 -2.2249107e-05)
(0 -4.4086419e-05 1.7965995e-05)
(0 -0.00010439108 4.419993e-05)
(0 -0.00013083027 6.1188586e-05)
(0 -0.00013386727 7.1848706e-05)
(0 -0.00012360462 7.8543705e-05)
(0 -0.00010517773 8.2457189e-05)
(0 -8.252925e-05 8.4259695e-05)
(0 -5.699477e-05 8.4223427e-05)
(0 -3.0182732e-05 8.2563974e-05)
(0 -2.4834476e-06 7.9432775e-05)
(0 2.5211849e-05 7.488284e-05)
(0 5.2540284e-05 6.9035225e-05)
(0 7.9143839e-05 6.2080591e-05)
(0 0.00010391937 5.4121122e-05)
(0 0.00012718302 4.5260562e-05)
(0 0.00014818484 3.5723493e-05)
(0 0.00016625072 2.5688915e-05)
(0 0.00018093022 1.5305775e-05)
(0 0.00019215617 4.754899e-06)
(0 0.00019999309 -5.7797349e-06)
(0 0.0002044446 -1.619442e-05)
(0 0.00020538885 -2.6331634e-05)
(0 0.00020290644 -3.6026367e-05)
(0 0.00019711832 -4.5093528e-05)
(0 -3.5160784e-05 2.6456516e-05)
(0 -8.3490938e-05 6.6102298e-05)
(0 -0.00010521689 9.213427e-05)
(0 -0.0001082497 0.00010863646)
(0 -0.00010035971 0.00011893188)
(0 -8.5853016e-05 0.00012489014)
(0 -6.7758068e-05 0.00012757018)
(0 -4.7328855e-05 0.00012747746)
(0 -2.5789717e-05 0.00012489316)
(0 -3.5349175e-06 0.00012005744)
(0 1.87375e-05 0.00011309513)
(0 4.0979065e-05 0.0001042181)
(0 6.2532624e-05 9.3621614e-05)
(0 8.2615266e-05 8.1517072e-05)
(0 0.00010168247 6.8109121e-05)
(0 0.00011890092 5.3728017e-05)
(0 0.00013365434 3.8547661e-05)
(0 0.00014565589 2.2828475e-05)
(0 0.00015485535 6.8697578e-06)
(0 0.00016122653 -9.0932044e-06)
(0 0.00016489108 -2.4819448e-05)
(0 0.00016567338 -4.0101452e-05)
(0 0.00016366483 -5.4695968e-05)
(0 0.000158989 -6.8337955e-05)
(0 -2.6845607e-05 3.500082e-05)
(0 -6.309813e-05 8.7916896e-05)
(0 -7.9432165e-05 0.0001227554)
(0 -8.1836158e-05 0.00014487465)
(0 -7.607668e-05 0.00015866741)
(0 -6.5387089e-05 0.0001666817)
(0 -5.1971535e-05 0.00017032263)
(0 -3.6784778e-05 0.00017024949)
(0 -2.0740051e-05 0.00016684592)
(0 -4.1522939e-06 0.00016034931)
(0 1.2505358e-05 0.00015105313)
(0 2.906352e-05 0.00013917131)
(0 4.5327322e-05 0.00012498788)
(0 6.0540968e-05 0.00010875724)
(0 7.5111388e-05 9.0833947e-05)
(0 8.8326793e-05 7.1612299e-05)
(0 9.9629231e-05 5.1310554e-05)
(0 0.00010886588 3.0277332e-05)
(0 0.00011590289 8.9240764e-06)
(0 0.00012079706 -1.2422612e-05)
(0 0.00012369072 -3.3461905e-05)
(0 0.00012436383 -5.3871514e-05)
(0 0.00012291077 -7.3321333e-05)
(0 0.00011943066 -9.1495155e-05)
(0 -1.8641966e-05 4.3837777e-05)
(0 -4.2854186e-05 0.00010969087)
(0 -5.3398797e-05 0.00015267539)
(0 -5.4911387e-05 0.00017985539)
(0 -5.1133078e-05 0.00019680117)
(0 -4.422209e-05 0.00020668803)
(0 -3.5476641e-05 0.00021123144)
(0 -2.5554768e-05 0.00021120512)
(0 -1.5060356e-05 0.00020710007)
(0 -4.2047252e-06 0.00019913576)
(0 6.6450915e-06 0.00018765484)
(0 1.7474622e-05 0.00017294998)
(0 2.8283804e-05 0.00015535514)
(0 3.8622218e-05 0.00013521599)
(0 4.8452856e-05 0.00011295559)
(0 5.7416197e-05 8.8996148e-05)
(0 6.5133653e-05 6.3713128e-05)
(0 7.149905e-05 3.7537559e-05)
(0 7.6344676e-05 1.0952533e-05)
(0 7.971134e-05 -1.5658099e-05)
(0 8.176108e-05 -4.1850112e-05)
(0 8.2321499e-05 -6.7237603e-05)
(0 8.147047e-05 -9.1406493e-05)
(0 7.9266615e-05 -0.00011397556)
(0 -1.0040242e-05 5.3372003e-05)
(0 -2.2101076e-05 0.00013157601)
(0 -2.7063192e-05 0.0001816073)
(0 -2.7663257e-05 0.00021296682)
(0 -2.577745e-05 0.0002325462)
(0 -2.2470795e-05 0.00024416105)
(0 -1.8263487e-05 0.00024948322)
(0 -1.3481826e-05 0.00024948715)
(0 -8.4176824e-06 0.00024469582)
(0 -3.1959287e-06 0.00023539659)
(0 1.9783434e-06 0.0002219331)
(0 7.1623226e-06 0.00020464139)
(0 1.2518805e-05 0.00018390584)
(0 1.7634384e-05 0.00016014493)
(0 2.2626098e-05 0.00013382944)
(0 2.7269952e-05 0.00010544661)
(0 3.1311727e-05 7.5489544e-05)
(0 3.4691781e-05 4.447354e-05)
(0 3.7269363e-05 1.2920679e-05)
(0 3.9075252e-05 -1.8649387e-05)
(0 4.0218052e-05 -4.9731957e-05)
(0 4.0596302e-05 -7.9846145e-05)
(0 4.0270052e-05 -0.0001085056)
(0 3.9269042e-05 -0.00013525927)
(0 -3.2312157e-08 6.4329713e-05)
(0 2.8208452e-08 0.00015397424)
(0 8.7731884e-08 0.00020944327)
(0 1.0260271e-07 0.00024391796)
(0 7.8164412e-08 0.00026552375)
(0 5.3745368e-08 0.00027841518)
(0 -3.6794649e-08 0.00028438505)
(0 -1.2361279e-07 0.00028442717)
(0 -2.414973e-07 0.00027904175)
(0 -4.0729318e-07 0.00026856018)
(0 -6.6498129e-07 0.00025332646)
(0 -8.9134768e-07 0.00023370844)
(0 -9.0028225e-07 0.00021012864)
(0 -8.0932964e-07 0.00018304567)
(0 -6.1714713e-07 0.00015301271)
(0 -4.055656e-07 0.00012058739)
(0 -1.9603491e-07 8.633862e-05)
(0 -4.0675025e-08 5.0857094e-05)
(0 -1.1756797e-08 1.4763136e-05)
(0 -7.1356944e-08 -2.134374e-05)
(0 -1.5773932e-07 -5.6893058e-05)
(0 -2.837929e-07 -9.1298492e-05)
(0 -3.9588408e-07 -0.0001240059)
(0 -4.9173539e-07 -0.00015450762)
(0 -5.4279429e-05 -9.280817e-06)
(0 -0.00012647428 -2.2199606e-05)
(0 -0.00015642508 -3.0315289e-05)
(0 -0.00015861992 -3.5270503e-05)
(0 -0.00014553826 -3.8432773e-05)
(0 -0.00012326877 -4.0333575e-05)
(0 -9.6178659e-05 -4.119024e-05)
(0 -6.5875806e-05 -4.1187681e-05)
(0 -3.4050941e-05 -4.0405095e-05)
(0 -1.3011518e-06 -3.891663e-05)
(0 3.1424182e-05 -3.6747937e-05)
(0 6.3588001e-05 -3.3946767e-05)
(0 9.4828363e-05 -3.0540425e-05)
(0 0.00012401698 -2.6624019e-05)
(0 0.00015124486 -2.2322218e-05)
(0 0.00017564058 -1.772235e-05)
(0 0.00019670198 -1.282117e-05)
(0 0.00021391405 -7.7230116e-06)
(0 0.00022717922 -2.5079736e-06)
(0 0.00023642939 2.751702e-06)
(0 0.00024163647 7.8962581e-06)
(0 0.00024273591 1.2860823e-05)
(0 0.00023979892 1.7575164e-05)
(0 0.00023297461 2.2010488e-05)
(0 -4.2108652e-05 1.8637051e-09)
(0 -0.00010278699 4.2188177e-08)
(0 -0.00013026441 1.102929e-07)
(0 -0.00013405848 2.0282021e-07)
(0 -0.00012409794 2.5661963e-07)
(0 -0.00010572191 1.9828714e-07)
(0 -8.2975381e-05 2.2440279e-07)
(0 -5.7283527e-05 2.315473e-07)
(0 -3.0230275e-05 2.3470812e-07)
(0 -2.2829093e-06 2.171516e-07)
(0 2.5653554e-05 1.9114101e-07)
(0 5.3220908e-05 1.6728892e-07)
(0 7.9987564e-05 1.7939268e-07)
(0 0.00010510231 2.0801773e-07)
(0 0.00012872268 1.580702e-07)
(0 0.0001499613 9.1624167e-08)
(0 0.0001683061 6.0486969e-08)
(0 0.00018323944 5.1844768e-08)
(0 0.00019467025 3.6529986e-08)
(0 0.00020270753 6.4983742e-08)
(0 0.00020725549 4.4758327e-08)
(0 0.00020822664 -2.0727593e-08)
(0 0.00020570737 -1.0095212e-07)
(0 0.00019985234 -1.6637274e-07)
(0 -3.2647949e-05 8.6461868e-06)
(0 -8.1387738e-05 2.2175081e-05)
(0 -0.00010475603 3.1249269e-05)
(0 -0.00010894588 3.6918439e-05)
(0 -0.00010153621 4.0479252e-05)
(0 -8.7003983e-05 4.2505766e-05)
(0 -6.8675816e-05 4.3446063e-05)
(0 -4.782509e-05 4.3397924e-05)
(0 -2.5818922e-05 4.2499792e-05)
(0 -3.0311231e-06 4.0834581e-05)
(0 1.9760198e-05 3.844839e-05)
(0 4.2322806e-05 3.5413824e-05)
(0 6.4319424e-05 3.1840127e-05)
(0 8.4759403e-05 2.7755748e-05)
(0 0.00010434542 2.3187802e-05)
(0 0.0001220825 1.8291276e-05)
(0 0.00013727905 1.3154014e-05)
(0 0.00014957683 7.8109574e-06)
(0 0.00015895408 2.4031001e-06)
(0 0.00016552105 -2.9986994e-06)
(0 0.00016923021 -8.3578441e-06)
(0 0.00016997399 -1.3618336e-05)
(0 0.00016783599 -1.8664474e-05)
(0 0.00016297369 -2.3381367e-05)
(0 -2.4291175e-05 1.6962819e-05)
(0 -6.0993947e-05 4.4142567e-05)
(0 -7.9079944e-05 6.2579615e-05)
(0 -8.2702113e-05 7.4365219e-05)
(0 -7.7430977e-05 8.1641811e-05)
(0 -6.6674168e-05 8.579825e-05)
(0 -5.2958645e-05 8.7638877e-05)
(0 -3.7269305e-05 8.7512061e-05)
(0 -2.0660417e-05 8.5613412e-05)
(0 -3.4448801e-06 8.2225007e-05)
(0 1.3790245e-05 7.7385899e-05)
(0 3.0963833e-05 7.1249255e-05)
(0 4.7654755e-05 6.3966242e-05)
(0 6.3310348e-05 5.5692442e-05)
(0 7.8436102e-05 4.6516054e-05)
(0 9.2241162e-05 3.6691879e-05)
(0 0.00010399581 2.63195e-05)
(0 0.00011350677 1.5566513e-05)
(0 0.00012069042 4.6530822e-06)
(0 0.00012568528 -6.2568629e-06)
(0 0.00012855298 -1.7038166e-05)
(0 0.00012910265 -2.7563571e-05)
(0 0.00012741259 -3.7628908e-05)
(0 0.00012363835 -4.7061736e-05)
(0 -1.6387351e-05 2.5200427e-05)
(0 -4.0821877e-05 6.5900824e-05)
(0 -5.2905367e-05 9.3619837e-05)
(0 -5.5435165e-05 0.00011139782)
(0 -5.2076325e-05 0.00012243309)
(0 -4.5065206e-05 0.00012873071)
(0 -3.6061995e-05 0.00013151512)
(0 -2.5712015e-05 0.00013137667)
(0 -1.4747489e-05 0.00012859494)
(0 -3.3557302e-06 0.00012350407)
(0 8.0319027e-06 0.00011625247)
(0 1.9404806e-05 0.00010703514)
(0 3.0646675e-05 9.6059835e-05)
(0 4.1158995e-05 8.3568525e-05)
(0 5.1600137e-05 6.9796316e-05)
(0 6.1229112e-05 5.5020932e-05)
(0 6.9353105e-05 3.9416094e-05)
(0 7.5873779e-05 2.3245656e-05)
(0 8.0773129e-05 6.8379013e-06)
(0 8.4123177e-05 -9.5863999e-06)
(0 8.6048094e-05 -2.5791645e-05)
(0 8.6414182e-05 -4.1571567e-05)
(0 8.5239947e-05 -5.6632919e-05)
(0 8.2649347e-05 -7.0738441e-05)
(0 -8.4610965e-06 3.3615969e-05)
(0 -2.0548465e-05 8.7443162e-05)
(0 -2.6400867e-05 0.00012377919)
(0 -2.7589024e-05 0.00014699309)
(0 -2.5926861e-05 0.00016141508)
(0 -2.2573599e-05 0.00016963646)
(0 -1.8202826e-05 0.00017340297)
(0 -1.3170432e-05 0.00017334007)
(0 -7.867779e-06 0.00016990366)
(0 -2.366377e-06 0.00016328514)
(0 3.0498268e-06 0.00015378729)
(0 8.48597e-06 0.00014166523)
(0 1.4036551e-05 0.00012718973)
(0 1.9317117e-05 0.00011065645)
(0 2.4704853e-05 9.2420142e-05)
(0 2.9785799e-05 7.2822049e-05)
(0 3.4077701e-05 5.2133465e-05)
(0 3.7550071e-05 3.0704199e-05)
(0 4.0084603e-05 8.936546e-06)
(0 4.1740414e-05 -1.2846224e-05)
(0 4.2706844e-05 -3.4325141e-05)
(0 4.2851166e-05 -5.5194135e-05)
(0 4.2209908e-05 -7.5092489e-05)
(0 4.0860887e-05 -9.3708669e-05)
(0 4.6998948e-08 4.2626538e-05)
(0 2.152346e-07 0.00010897202)
(0 2.3214918e-07 0.00015286772)
(0 2.2084554e-07 0.00018064582)
(0 1.7196124e-07 0.00019792414)
(0 1.3176575e-07 0.00020797076)
(0 -1.2198062e-09 0.00021258583)
(0 -1.3723998e-07 0.00021257591)
(0 -3.3333652e-07 0.00020846017)
(0 -6.0174426e-07 0.00020045771)
(0 -1.0197794e-06 0.00018891052)
(0 -1.3806644e-06 0.00017412041)
(0 -1.4545319e-06 0.00015641584)
(0 -1.4578121e-06 0.00013613768)
(0 -1.1225789e-06 0.00011373126)
(0 -7.0619436e-07 8.9599578e-05)
(0 -3.2051443e-07 6.4128853e-05)
(0 -5.5555513e-08 3.7748748e-05)
(0 5.2124305e-09 1.0925681e-05)
(0 -6.6691773e-08 -1.5913387e-05)
(0 -1.1919786e-07 -4.2377519e-05)
(0 -2.7103372e-07 -6.8058603e-05)
(0 -4.5628194e-07 -9.2526572e-05)
(0 -6.3668706e-07 -0.00011541232)
(0 1.006106e-05 5.3356158e-05)
(0 2.2397784e-05 0.00013156984)
(0 2.7477744e-05 0.00018160171)
(0 2.8085051e-05 0.00021296004)
(0 2.6112385e-05 0.00023253874)
(0 2.2719859e-05 0.00024416806)
(0 1.8281583e-05 0.00024947753)
(0 1.3271606e-05 0.00024947384)
(0 7.8808149e-06 0.00024467127)
(0 2.239391e-06 0.00023537108)
(0 -3.5810006e-06 0.00022190678)
(0 -9.3260113e-06 0.00020461416)
(0 -1.471237e-05 0.00018386643)
(0 -1.9811078e-05 0.00016008794)
(0 -2.4319516e-05 0.00013375901)
(0 -2.8290186e-05 0.00010535074)
(0 -3.1778052e-05 7.5384074e-05)
(0 -3.4777875e-05 4.4367547e-05)
(0 -3.7272521e-05 1.2826432e-05)
(0 -3.9216349e-05 -1.8725464e-05)
(0 -4.0495817e-05 -4.9793398e-05)
(0 -4.1145547e-05 -7.9894105e-05)
(0 -4.1111643e-05 -0.00010853609)
(0 -4.0384958e-05 -0.00013528279)
(0 -4.4086934e-05 -1.7969584e-05)
(0 -0.00010445625 -4.4208589e-05)
(0 -0.00013081262 -6.1155231e-05)
(0 -0.00013388999 -7.1803398e-05)
(0 -0.00012352226 -7.8480268e-05)
(0 -0.00010512048 -8.2314672e-05)
(0 -8.2381061e-05 -8.4070149e-05)
(0 -5.6841641e-05 -8.4032492e-05)
(0 -2.9922828e-05 -8.2375835e-05)
(0 -2.2039451e-06 -7.9284258e-05)
(0 2.5484968e-05 -7.4769776e-05)
(0 5.2702926e-05 -6.8963698e-05)
(0 7.9146006e-05 -6.1968537e-05)
(0 0.00010415034 -5.395664e-05)
(0 0.00012743214 -4.5152997e-05)
(0 0.00014825603 -3.5679294e-05)
(0 0.00016624212 -2.5654842e-05)
(0 0.0001809073 -1.5272751e-05)
(0 0.00019217509 -4.6989314e-06)
(0 0.00020006942 5.9031954e-06)
(0 0.00020445706 1.6313451e-05)
(0 0.00020531729 2.6360939e-05)
(0 0.00020275825 3.5938221e-05)
(0 0.00019693348 4.4901383e-05)
(0 -3.2650214e-05 -8.6441868e-06)
(0 -8.139629e-05 -2.2133555e-05)
(0 -0.00010474068 -3.10994e-05)
(0 -0.0001089362 -3.667427e-05)
(0 -0.00010146652 -4.0173037e-05)
(0 -8.6955935e-05 -4.2218732e-05)
(0 -6.8575239e-05 -4.3134963e-05)
(0 -4.7706623e-05 -4.3097705e-05)
(0 -2.5644016e-05 -4.2210088e-05)
(0 -2.8392605e-06 -4.059528e-05)
(0 1.9942054e-05 -3.8256403e-05)
(0 4.2390102e-05 -3.5254122e-05)
(0 6.4287516e-05 -3.1629445e-05)
(0 8.4998759e-05 -2.7503508e-05)
(0 0.00010455931 -2.2992406e-05)
(0 0.00012221398 -1.8157542e-05)
(0 0.00013738294 -1.3018814e-05)
(0 0.00014968758 -7.7119264e-06)
(0 0.00015907525 -2.2986371e-06)
(0 0.00016566062 3.1484356e-06)
(0 0.00016931625 8.4752557e-06)
(0 0.00016999366 1.3586677e-05)
(0 0.00016779152 1.8457971e-05)
(0 0.00016288976 2.3044459e-05)
(0 -2.3600273e-05 -3.9328525e-09)
(0 -6.050958e-05 3.4003332e-08)
(0 -7.9200532e-05 1.1208928e-07)
(0 -8.3261271e-05 1.7715006e-07)
(0 -7.8107371e-05 2.4871891e-07)
(0 -6.7330336e-05 1.9181151e-07)
(0 -5.339133e-05 1.5395417e-07)
(0 -3.7444888e-05 1.4308402e-07)
(0 -2.0542493e-05 1.5833291e-07)
(0 -3.0581651e-06 1.3910514e-07)
(0 1.4381206e-05 1.2405187e-07)
(0 3.1609029e-05 1.1843865e-07)
(0 4.8393224e-05 1.402089e-07)
(0 6.435124e-05 1.5140414e-07)
(0 7.9695894e-05 1.1821858e-07)
(0 9.3638344e-05 1.0542666e-07)
(0 0.00010555285 8.7146186e-08)
(0 0.0001151081 5.9999945e-08)
(0 0.00012232589 5.5043248e-08)
(0 0.00012733824 7.6913382e-08)
(0 0.0001300969 4.7464828e-08)
(0 0.0001305433 -5.016222e-08)
(0 0.00012873042 -1.4516521e-07)
(0 0.00012485837 -2.1590606e-07)
(0 -1.5519958e-05 8.4125826e-06)
(0 -4.0226388e-05 2.239236e-05)
(0 -5.3203619e-05 3.2134882e-05)
(0 -5.6325254e-05 3.842316e-05)
(0 -5.313601e-05 4.2249124e-05)
(0 -4.6012945e-05 4.4409424e-05)
(0 -3.6748227e-05 4.5356057e-05)
(0 -2.6050191e-05 4.5254344e-05)
(0 -1.4689431e-05 4.4164405e-05)
(0 -2.938517e-06 4.2354071e-05)
(0 8.7494354e-06 3.9817697e-05)
(0 2.0342521e-05 3.662516e-05)
(0 3.1705411e-05 3.2879116e-05)
(0 4.2436902e-05 2.8600397e-05)
(0 5.3264169e-05 2.3881521e-05)
(0 6.3170507e-05 1.8831282e-05)
(0 7.1536769e-05 1.3495436e-05)
(0 7.8170407e-05 7.9672822e-06)
(0 8.3111807e-05 2.3840331e-06)
(0 8.6488879e-05 -3.1894211e-06)
(0 8.8335657e-05 -8.7213897e-06)
(0 8.8582797e-05 -1.4156019e-05)
(0 8.7234437e-05 -1.9361815e-05)
(0 8.4472948e-05 -2.4236683e-05)
(0 -7.7261377e-06 1.6624725e-05)
(0 -1.9959241e-05 4.4427391e-05)
(0 -2.6528871e-05 6.379671e-05)
(0 -2.8200018e-05 7.6352942e-05)
(0 -2.6754407e-05 8.4102275e-05)
(0 -2.3297183e-05 8.8486499e-05)
(0 -1.8786199e-05 9.0396086e-05)
(0 -1.3549625e-05 9.0241561e-05)
(0 -8.0277066e-06 8.8135981e-05)
(0 -2.2975142e-06 8.4562485e-05)
(0 3.3254828e-06 7.9506972e-05)
(0 8.9342071e-06 7.313673e-05)
(0 1.456448e-05 6.5591467e-05)
(0 2.0058197e-05 5.7030312e-05)
(0 2.5877168e-05 4.7581656e-05)
(0 3.1364915e-05 3.7506576e-05)
(0 3.5929479e-05 2.6848655e-05)
(0 3.9488876e-05 1.5808517e-05)
(0 4.2045942e-05 4.6400824e-06)
(0 4.3717998e-05 -6.5240001e-06)
(0 4.4607502e-05 -1.7552664e-05)
(0 4.4626812e-05 -2.8327274e-05)
(0 4.3821365e-05 -3.8629576e-05)
(0 4.2278896e-05 -4.8277729e-05)
(0 2.0099601e-07 2.4868776e-05)
(0 4.8694729e-07 6.5979591e-05)
(0 4.0982391e-07 9.4327156e-05)
(0 3.1917808e-07 0.00011262875)
(0 2.1775882e-07 0.00012399149)
(0 1.0956687e-07 0.00013044406)
(0 -8.2538489e-08 0.00013333501)
(0 -2.8493405e-07 0.00013322413)
(0 -5.6988025e-07 0.00013040006)
(0 -9.3916211e-07 0.00012523962)
(0 -1.4920261e-06 0.00011787409)
(0 -1.9964265e-06 0.00010851033)
(0 -2.2060401e-06 9.7323832e-05)
(0 -2.3398636e-06 8.4606253e-05)
(0 -1.694057e-06 7.061056e-05)
(0 -9.3321908e-07 5.5597529e-05)
(0 -3.4486096e-07 3.9760119e-05)
(0 -3.4234574e-08 2.338828e-05)
(0 4.4577481e-08 6.7854027e-06)
(0 -4.6741698e-08 -9.8123887e-06)
(0 -9.9340757e-08 -2.6192608e-05)
(0 -2.908436e-07 -4.2146894e-05)
(0 -5.4843393e-07 -5.7354998e-05)
(0 -7.8409325e-07 -7.1600216e-05)
(0 8.7313679e-06 3.359845e-05)
(0 2.1363402e-05 8.73986e-05)
(0 2.7243484e-05 0.00012371207)
(0 2.8337028e-05 0.00014693054)
(0 2.6488211e-05 0.00016135065)
(0 2.2966053e-05 0.00016958671)
(0 1.8246598e-05 0.0001733584)
(0 1.2863219e-05 0.0001733092)
(0 7.0522687e-06 0.00016989102)
(0 9.3002968e-07 0.00016329172)
(0 -5.4223175e-06 0.00015380613)
(0 -1.1678014e-05 0.00014168826)
(0 -1.7495058e-05 0.00012719145)
(0 -2.3000525e-05 0.00011063455)
(0 -2.7536676e-05 9.2371307e-05)
(0 -3.1382325e-05 7.2707136e-05)
(0 -3.4738352e-05 5.1997609e-05)
(0 -3.7636704e-05 3.0593212e-05)
(0 -4.0027437e-05 8.8420339e-06)
(0 -4.1864806e-05 -1.2916343e-05)
(0 -4.2925102e-05 -3.4372882e-05)
(0 -4.3403509e-05 -5.5222592e-05)
(0 -4.3197687e-05 -7.5096118e-05)
(0 -4.2259516e-05 -9.3700813e-05)
(0 1.8813061e-05 4.3810386e-05)
(0 4.3349312e-05 0.00010964594)
(0 5.3998176e-05 0.00015266266)
(0 5.5404902e-05 0.00017983998)
(0 5.1397213e-05 0.00019678187)
(0 4.4284149e-05 0.00020669323)
(0 3.5211707e-05 0.0002112201)
(0 2.4971215e-05 0.00021118744)
(0 1.4024629e-05 0.00020706047)
(0 2.6450023e-06 0.00019911131)
(0 -8.9419721e-06 0.00018764127)
(0 -2.0352683e-05 0.00017293926)
(0 -3.1223138e-05 0.00015532556)
(0 -4.1430679e-05 0.0001351531)
(0 -5.0505853e-05 0.00011285131)
(0 -5.8602778e-05 8.8832421e-05)
(0 -6.5628101e-05 6.3531194e-05)
(0 -7.1557371e-05 3.7373985e-05)
(0 -7.6298639e-05 1.0798665e-05)
(0 -7.9840749e-05 -1.5770048e-05)
(0 -8.2010402e-05 -4.1935782e-05)
(0 -8.2863594e-05 -6.7299266e-05)
(0 -8.2350025e-05 -9.143954e-05)
(0 -8.0451864e-05 -0.00011399475)
(0 -3.5178531e-05 -2.646512e-05)
(0 -8.3511557e-05 -6.6119253e-05)
(0 -0.00010518329 -9.2106163e-05)
(0 -0.00010820052 -0.00010858086)
(0 -0.00010020383 -0.00011885937)
(0 -8.568606e-05 -0.00012476398)
(0 -6.7473693e-05 -0.00012738898)
(0 -4.6966003e-05 -0.00012729516)
(0 -2.5300417e-05 -0.0001247283)
(0 -2.9823085e-06 -0.00011993488)
(0 1.930331e-05 -0.00011301014)
(0 4.1239245e-05 -0.00010414143)
(0 6.2662915e-05 -9.3518311e-05)
(0 8.3145389e-05 -8.1389048e-05)
(0 0.00010216348 -6.8014345e-05)
(0 0.00011917471 -5.3637933e-05)
(0 0.00013387594 -3.8457856e-05)
(0 0.00014587704 -2.2765168e-05)
(0 0.00015511433 -6.7920784e-06)
(0 0.0001615198 9.2041511e-06)
(0 0.00016507379 2.4911487e-05)
(0 0.00016572326 4.0090805e-05)
(0 0.00016359208 5.4558383e-05)
(0 0.00015884148 6.809938e-05)
(0 -2.4319187e-05 -1.6975318e-05)
(0 -6.1036976e-05 -4.4167889e-05)
(0 -7.9111213e-05 -6.2537008e-05)
(0 -8.2728834e-05 -7.4279755e-05)
(0 -7.7391054e-05 -8.1557242e-05)
(0 -6.6683776e-05 -8.5633226e-05)
(0 -5.2850997e-05 -8.7395884e-05)
(0 -3.7119812e-05 -8.727602e-05)
(0 -2.0424129e-05 -8.5422753e-05)
(0 -3.1903339e-06 -8.2087724e-05)
(0 1.4015622e-05 -7.7286233e-05)
(0 3.0980343e-05 -7.116156e-05)
(0 4.7681319e-05 -6.3847183e-05)
(0 6.3805704e-05 -5.5551777e-05)
(0 7.9036194e-05 -4.6423632e-05)
(0 9.2640053e-05 -3.657871e-05)
(0 0.00010440644 -2.6215888e-05)
(0 0.00011390249 -1.5490251e-05)
(0 0.00012111344 -4.5614732e-06)
(0 0.00012609888 6.4024516e-06)
(0 0.00012883541 1.7152735e-05)
(0 0.00012923436 2.7525121e-05)
(0 0.0001274117 3.7428698e-05)
(0 0.00012357879 4.6733734e-05)
(0 -1.5546936e-05 -8.4320932e-06)
(0 -4.0292815e-05 -2.2405113e-05)
(0 -5.3295293e-05 -3.2028432e-05)
(0 -5.6422994e-05 -3.8240782e-05)
(0 -5.3194076e-05 -4.2016832e-05)
(0 -4.6074247e-05 -4.4160635e-05)
(0 -3.6765403e-05 -4.5099805e-05)
(0 -2.60523e-05 -4.5006122e-05)
(0 -1.4659949e-05 -4.3919476e-05)
(0 -2.9166052e-06 -4.2144287e-05)
(0 8.7387647e-06 -3.962344e-05)
(0 2.0247941e-05 -3.6431709e-05)
(0 3.164126e-05 -3.2655808e-05)
(0 4.2746053e-05 -2.8404701e-05)
(0 5.3626778e-05 -2.3715063e-05)
(0 6.3406728e-05 -1.864968e-05)
(0 7.1767046e-05 -1.3352683e-05)
(0 7.8406265e-05 -7.8791464e-06)
(0 8.3347202e-05 -2.2803468e-06)
(0 8.6718131e-05 3.3443474e-06)
(0 8.848523e-05 8.8258454e-06)
(0 8.8651711e-05 1.4066891e-05)
(0 8.72192e-05 1.9078206e-05)
(0 8.4430944e-05 2.3811709e-05)
(0 -7.5511482e-06 -1.903906e-08)
(0 -1.9936467e-05 -3.1482938e-08)
(0 -2.6790996e-05 6.348116e-09)
(0 -2.8669476e-05 4.4567219e-08)
(0 -2.7317932e-05 1.1101823e-07)
(0 -2.3835564e-05 1.4552915e-07)
(0 -1.9245161e-05 1.1742318e-07)
(0 -1.3899968e-05 1.2112427e-07)
(0 -8.242929e-06 1.5002348e-07)
(0 -2.4354721e-06 1.4998408e-07)
(0 3.2426006e-06 1.7654079e-07)
(0 8.8784791e-06 1.810526e-07)
(0 1.4589644e-05 1.6214519e-07)
(0 2.046864e-05 1.2330361e-07)
(0 2.6558324e-05 1.0641145e-07)
(0 3.212599e-05 1.3067246e-07)
(0 3.6824777e-05 9.0042643e-08)
(0 4.0411643e-05 4.7435793e-08)
(0 4.2977405e-05 4.8774736e-08)
(0 4.4659614e-05 7.3710126e-08)
(0 4.5502004e-05 3.9964708e-08)
(0 4.5453579e-05 -7.5538231e-08)
(0 4.4523105e-05 -1.7121092e-07)
(0 4.2901584e-05 -2.4091136e-07)
(0 2.8170577e-07 8.3570566e-06)
(0 5.9001613e-07 2.2541424e-05)
(0 4.385309e-07 3.2516312e-05)
(0 2.4499297e-07 3.9032991e-05)
(0 6.1789404e-08 4.2974626e-05)
(0 -1.0458857e-07 4.5235108e-05)
(0 -3.3636672e-07 4.6184994e-05)
(0 -5.9750818e-07 4.607765e-05)
(0 -9.5674043e-07 4.4876894e-05)
(0 -1.4202485e-06 4.3016703e-05)
(0 -2.0845052e-06 4.0427269e-05)
(0 -2.7091271e-06 3.7161104e-05)
(0 -2.9650795e-06 3.332089e-05)
(0 -2.9405274e-06 2.8923136e-05)
(0 -1.9524436e-06 2.4110168e-05)
(0 -9.3329699e-07 1.8997783e-05)
(0 -1.9859021e-07 1.355849e-05)
(0 1.1726398e-07 7.9649314e-06)
(0 1.8637012e-07 2.3284124e-06)
(0 6.8942311e-08 -3.2946939e-06)
(0 -2.2358791e-08 -8.8828559e-06)
(0 -2.8100238e-07 -1.4365714e-05)
(0 -6.1739535e-07 -1.9615576e-05)
(0 -8.8473699e-07 -2.4548955e-05)
(0 8.2521138e-06 1.6608537e-05)
(0 2.1169072e-05 4.4378154e-05)
(0 2.7555192e-05 6.3696219e-05)
(0 2.8945045e-05 7.6246345e-05)
(0 2.7172658e-05 8.4006204e-05)
(0 2.3442894e-05 8.8408446e-05)
(0 1.8488993e-05 9.0335563e-05)
(0 1.2780835e-05 9.0208837e-05)
(0 6.5932621e-06 8.8136878e-05)
(0 3.9946221e-08 8.4592814e-05)
(0 -6.7723143e-06 7.9554723e-05)
(0 -1.3467955e-05 7.3184498e-05)
(0 -1.9636584e-05 6.5610219e-05)
(0 -2.5172875e-05 5.7012711e-05)
(0 -2.9498985e-05 4.7528786e-05)
(0 -3.3270444e-05 3.7388455e-05)
(0 -3.6548808e-05 2.6707379e-05)
(0 -3.9458364e-05 1.5702571e-05)
(0 -4.1871518e-05 4.5527458e-06)
(0 -4.3753919e-05 -6.5876228e-06)
(0 -4.4764422e-05 -1.7597199e-05)
(0 -4.521092e-05 -2.8343702e-05)
(0 -4.4981705e-05 -3.8616407e-05)
(0 -4.3927557e-05 -4.8249466e-05)
(0 1.6801186e-05 2.5173091e-05)
(0 4.1788254e-05 6.5831124e-05)
(0 5.3873862e-05 9.345913e-05)
(0 5.6186837e-05 0.00011121482)
(0 5.2479675e-05 0.00012224014)
(0 4.5231739e-05 0.00012857052)
(0 3.5802016e-05 0.00013138287)
(0 2.5024205e-05 0.00013129321)
(0 1.3441261e-05 0.00012858172)
(0 1.3357494e-06 0.00012353834)
(0 -1.1035468e-05 0.00011631564)
(0 -2.3206202e-05 0.00010710627)
(0 -3.46956e-05 9.6095082e-05)
(0 -4.5369793e-05 8.3534372e-05)
(0 -5.4577086e-05 6.9680884e-05)
(0 -6.279775e-05 5.4851595e-05)
(0 -6.9884306e-05 3.9215719e-05)
(0 -7.5879176e-05 2.3076238e-05)
(0 -8.0658659e-05 6.6904509e-06)
(0 -8.4196066e-05 -9.6869748e-06)
(0 -8.623985e-05 -2.5863987e-05)
(0 -8.696851e-05 -4.1612284e-05)
(0 -8.6261924e-05 -5.6633714e-05)
(0 -8.4074128e-05 -7.0715885e-05)
(0 2.7128121e-05 3.49717e-05)
(0 6.3796313e-05 8.7864078e-05)
(0 8.0055122e-05 0.00012266793)
(0 8.2277972e-05 0.00014477127)
(0 7.6186062e-05 0.00015855901)
(0 6.5296176e-05 0.00016659011)
(0 5.1498948e-05 0.00017022929)
(0 3.5941607e-05 0.00017017626)
(0 1.9350217e-05 0.00016679474)
(0 2.1684348e-06 0.00016033255)
(0 -1.5215148e-05 0.00015105395)
(0 -3.228858e-05 0.00013917886)
(0 -4.8541149e-05 0.0001249562)
(0 -6.3763811e-05 0.00010867573)
(0 -7.7361176e-05 9.0713857e-05)
(0 -8.9548199e-05 7.1410648e-05)
(0 -0.0001000715 5.1077421e-05)
(0 -0.00010887853 3.0085026e-05)
(0 -0.00011584333 8.7593717e-06)
(0 -0.00012091597 -1.255512e-05)
(0 -0.00012392949 -3.3565334e-05)
(0 -0.00012489718 -5.3944336e-05)
(0 -0.00012380264 -7.3351437e-05)
(0 -0.00012061905 -9.1502252e-05)
(0 -2.6859238e-05 -3.5006451e-05)
(0 -6.3187722e-05 -8.7954276e-05)
(0 -7.9505832e-05 -0.00012277144)
(0 -8.1905478e-05 -0.00014486186)
(0 -7.6034714e-05 -0.00015862343)
(0 -6.5311072e-05 -0.00016659669)
(0 -5.1749862e-05 -0.00017017693)
(0 -3.6487674e-05 -0.00017008744)
(0 -2.0314548e-05 -0.00016668753)
(0 -3.6907545e-06 -0.00016021614)
(0 1.2926499e-05 -0.00015093568)
(0 2.9327183e-05 -0.00013906643)
(0 4.5530981e-05 -0.00012486744)
(0 6.1252164e-05 -0.00010865074)
(0 7.5839519e-05 -9.0771542e-05)
(0 8.876541e-05 -7.1505663e-05)
(0 0.00010001123 -5.1211184e-05)
(0 0.00010925399 -3.0214186e-05)
(0 0.00011631442 -8.8534165e-06)
(0 0.00012121586 1.2512401e-05)
(0 0.0001239669 3.3528875e-05)
(0 0.00012446621 5.3835375e-05)
(0 0.00012287275 7.3172375e-05)
(0 0.00011934794 9.1259369e-05)
(0 -1.6420794e-05 -2.521682e-05)
(0 -4.0921198e-05 -6.5949285e-05)
(0 -5.3064268e-05 -9.359435e-05)
(0 -5.5581322e-05 -0.00011132511)
(0 -5.2115984e-05 -0.00012231744)
(0 -4.5062743e-05 -0.00012857125)
(0 -3.5917292e-05 -0.00013129317)
(0 -2.5498612e-05 -0.00013115303)
(0 -1.443782e-05 -0.00012841783)
(0 -3.0525322e-06 -0.00012335969)
(0 8.2794303e-06 -0.00011613153)
(0 1.9498639e-05 -0.00010692377)
(0 3.0754056e-05 -9.5926268e-05)
(0 4.1930032e-05 -8.347057e-05)
(0 5.2430136e-05 -6.9725627e-05)
(0 6.1773726e-05 -5.490438e-05)
(0 6.985255e-05 -3.9313261e-05)
(0 7.6385582e-05 -2.3188158e-05)
(0 8.1285812e-05 -6.754694e-06)
(0 8.4620757e-05 9.7065688e-06)
(0 8.6378387e-05 2.588316e-05)
(0 8.6561096e-05 4.1523859e-05)
(0 8.5221309e-05 5.6434261e-05)
(0 8.2580397e-05 7.042493e-05)
(0 -7.7929499e-06 -1.6658207e-05)
(0 -2.0154133e-05 -4.4497313e-05)
(0 -2.670922e-05 -6.3807292e-05)
(0 -2.840895e-05 -7.6309218e-05)
(0 -2.6934733e-05 -8.4034477e-05)
(0 -2.3454797e-05 -8.8382159e-05)
(0 -1.8880831e-05 -9.0200249e-05)
(0 -1.3621081e-05 -9.0030756e-05)
(0 -8.067803e-06 -8.7951724e-05)
(0 -2.3898373e-06 -8.4402631e-05)
(0 3.1653109e-06 -7.9378093e-05)
(0 8.7023032e-06 -7.3010774e-05)
(0 1.4485969e-05 -6.5443708e-05)
(0 2.0603649e-05 -5.6944444e-05)
(0 2.6602003e-05 -4.7544337e-05)
(0 3.1870547e-05 -3.7393894e-05)
(0 3.642279e-05 -2.6768455e-05)
(0 3.9957742e-05 -1.5769068e-05)
(0 4.2495065e-05 -4.5614729e-06)
(0 4.4102036e-05 6.6735539e-06)
(0 4.4850296e-05 1.7666283e-05)
(0 4.4741597e-05 2.8274744e-05)
(0 4.3787134e-05 3.8384937e-05)
(0 4.2235475e-05 4.790136e-05)
(0 2.4142002e-07 -8.407181e-06)
(0 4.8863341e-07 -2.2652517e-05)
(0 3.3614545e-07 -3.2601344e-05)
(0 1.1025276e-07 -3.905459e-05)
(0 -1.0965664e-07 -4.290446e-05)
(0 -2.5603139e-07 -4.5094773e-05)
(0 -4.3958883e-07 -4.60058e-05)
(0 -6.9004444e-07 -4.5866758e-05)
(0 -1.0510109e-06 -4.4630087e-05)
(0 -1.5607507e-06 -4.2760281e-05)
(0 -2.2664595e-06 -4.0148744e-05)
(0 -2.9007361e-06 -3.6884067e-05)
(0 -3.0368484e-06 -3.3082738e-05)
(0 -2.6014206e-06 -2.8800326e-05)
(0 -1.5597804e-06 -2.4053422e-05)
(0 -6.2995498e-07 -1.8875311e-05)
(0 7.6966518e-08 -1.3524727e-05)
(0 3.8763274e-07 -7.9693231e-06)
(0 4.4252374e-07 -2.2881148e-06)
(0 3.0147284e-07 3.4109566e-06)
(0 1.3439993e-07 8.951918e-06)
(0 -2.1015629e-07 1.4260007e-05)
(0 -6.100485e-07 1.9347182e-05)
(0 -8.8028486e-07 2.4153129e-05)
(0 8.1039342e-06 -3.2843706e-08)
(0 2.1051367e-05 -7.1981864e-08)
(0 2.7559146e-05 -7.6502239e-08)
(0 2.8992321e-05 -4.12675e-08)
(0 2.720608e-05 4.5742181e-08)
(0 2.3404059e-05 9.5357142e-08)
(0 1.8381467e-05 7.9046407e-08)
(0 1.2516248e-05 1.0048705e-07)
(0 6.1229919e-06 1.4862834e-07)
(0 -6.6593144e-07 1.6920899e-07)
(0 -7.7098892e-06 2.0534689e-07)
(0 -1.458226e-05 2.0034142e-07)
(0 -2.0733746e-05 1.5044051e-07)
(0 -2.5872094e-05 7.442402e-08)
(0 -2.9970479e-05 4.0342125e-08)
(0 -3.3761375e-05 5.5047176e-08)
(0 -3.7024026e-05 1.1162524e-08)
(0 -3.9963593e-05 -8.5410561e-09)
(0 -4.2423736e-05 8.0877808e-09)
(0 -4.435084e-05 4.1489718e-08)
(0 -4.5430116e-05 1.4547367e-08)
(0 -4.5963505e-05 -6.9443258e-08)
(0 -4.5755359e-05 -1.3434421e-07)
(0 -4.4653095e-05 -1.8867642e-07)
(0 1.6103275e-05 8.3853337e-06)
(0 4.147071e-05 2.230869e-05)
(0 5.4223369e-05 3.195658e-05)
(0 5.7009931e-05 3.8235342e-05)