/*--------------------------------*- C++ -*----------------------------------*\
| =========                 |                                                 |
| \\      /  F ield         | OpenFOAM: The Open Source CFD Toolbox           |
|  \\    /   O peration     | Version:  4.1                                   |
|   \\  /    A nd           | Web:      www.OpenFOAM.org                      |
|    \\/     M anipulation  |                                                 |
\*---------------------------------------------------------------------------*/
FoamFile
{
    version     2.0;
    format      ascii;
    class       pointVectorField;
    location    "0.0076";
    object      pointDisplacement;
}
// * * * * * * * * * * * * * * * * * * * * * * * * * * * * * * * * * * * * * //

dimensions      [0 1 0 0 0 0 0];

internalField   nonuniform List<vector> 
1885
(
(5.1501e-05 -4.5453e-05 6.0039e-09)
(5.317e-05 -3.8611e-05 5.0797e-09)
(5.4355e-05 -3.1455e-05 4.1075e-09)
(5.4995e-05 -2.4266e-05 3.124e-09)
(5.5058e-05 -1.7265e-05 2.1709e-09)
(5.4553e-05 -1.0652e-05 1.2917e-09)
(5.3533e-05 -4.6276e-06 5.1963e-10)
(5.2078e-05 5.9227e-07 -1.3617e-10)
(5.0281e-05 4.7838e-06 -6.7018e-10)
(4.8219e-05 7.7316e-06 -1.0558e-09)
(4.5936e-05 9.2839e-06 -1.2755e-09)
(4.3439e-05 9.445e-06 -1.3347e-09)
(4.0722e-05 8.4339e-06 -1.2546e-09)
(5.1388e-05 -4.0685e-05 5.0831e-06)
(5.3042e-05 -3.4589e-05 4.3237e-06)
(5.4214e-05 -2.8206e-05 3.5277e-06)
(5.4848e-05 -2.1787e-05 2.7268e-06)
(5.4914e-05 -1.5535e-05 1.9466e-06)
(5.4421e-05 -9.6305e-06 1.2096e-06)
(5.342e-05 -4.2562e-06 5.3831e-07)
(5.1986e-05 3.9601e-07 -4.3258e-08)
(5.0207e-05 4.1284e-06 -5.0984e-07)
(4.8156e-05 6.7545e-06 -8.3786e-07)
(4.5877e-05 8.1483e-06 -1.0121e-06)
(4.3383e-05 8.3196e-06 -1.0345e-06)
(4.067e-05 7.4604e-06 -9.2858e-07)
(5.1309e-05 -3.5812e-05 1.1524e-05)
(5.2953e-05 -3.0467e-05 9.8069e-06)
(5.4117e-05 -2.4864e-05 8.0066e-06)
(5.4746e-05 -1.9226e-05 6.1944e-06)
(5.4814e-05 -1.3732e-05 4.4289e-06)
(5.433e-05 -8.5464e-06 2.7619e-06)
(5.3341e-05 -3.8284e-06 1.245e-06)
(5.1922e-05 2.5292e-07 -6.7738e-08)
(5.0155e-05 3.5252e-06 -1.1203e-06)
(4.8112e-05 5.8288e-06 -1.8613e-06)
(4.5836e-05 7.059e-06 -2.2577e-06)
(4.3343e-05 7.2284e-06 -2.3141e-06)
(4.0633e-05 6.5036e-06 -2.0837e-06)
(5.1259e-05 -3.0307e-05 1.7993e-05)
(5.2897e-05 -2.5795e-05 1.5317e-05)
(5.4056e-05 -2.1062e-05 1.2509e-05)
(5.4682e-05 -1.6298e-05 9.6823e-06)
(5.4751e-05 -1.1656e-05 6.9283e-06)
(5.4273e-05 -7.2736e-06 4.3284e-06)
(5.3292e-05 -3.2885e-06 1.9637e-06)
(5.1881e-05 1.5745e-07 -8.1237e-08)
(5.0122e-05 2.9195e-06 -1.7205e-06)
(4.8084e-05 4.8649e-06 -2.8754e-06)
(4.581e-05 5.9082e-06 -3.4955e-06)
(4.3318e-05 6.0619e-06 -3.5883e-06)
(4.061e-05 5.4656e-06 -3.2367e-06)
(5.1242e-05 -2.4313e-05 2.4315e-05)
(5.2878e-05 -2.0698e-05 2.0699e-05)
(5.4035e-05 -1.6905e-05 1.6906e-05)
(5.4661e-05 -1.3085e-05 1.3086e-05)
(5.473e-05 -9.3641e-06 9.3645e-06)
(5.4253e-05 -5.8515e-06 5.8516e-06)
(5.3275e-05 -2.6572e-06 2.6571e-06)
(5.1868e-05 1.0443e-07 -1.048e-07)
(5.0111e-05 2.3179e-06 -2.3185e-06)
(4.8074e-05 3.8776e-06 -3.8783e-06)
(4.5801e-05 4.7156e-06 -4.7165e-06)
(4.3309e-05 4.8424e-06 -4.8434e-06)
(4.0602e-05 4.3697e-06 -4.3707e-06)
(5.1259e-05 -1.7991e-05 3.0308e-05)
(5.2897e-05 -1.5315e-05 2.5796e-05)
(5.4056e-05 -1.2508e-05 2.1063e-05)
(5.4682e-05 -9.6817e-06 1.6298e-05)
(5.4751e-05 -6.9279e-06 1.1656e-05)
(5.4273e-05 -4.3283e-06 7.2738e-06)
(5.3292e-05 -1.9639e-06 3.2884e-06)
(5.1881e-05 8.0835e-08 -1.5779e-07)
(5.0122e-05 1.7199e-06 -2.92e-06)
(4.8084e-05 2.8746e-06 -4.8657e-06)
(4.581e-05 3.4946e-06 -5.9092e-06)
(4.3318e-05 3.5873e-06 -6.063e-06)
(4.061e-05 3.2356e-06 -5.4667e-06)
(5.1309e-05 -1.1522e-05 3.5813e-05)
(5.2953e-05 -9.8057e-06 3.0468e-05)
(5.4117e-05 -8.0057e-06 2.4865e-05)
(5.4746e-05 -6.1938e-06 1.9226e-05)
(5.4814e-05 -4.4286e-06 1.3733e-05)
(5.433e-05 -2.7619e-06 8.5465e-06)
(5.3341e-05 -1.2452e-06 3.8284e-06)
(5.1922e-05 6.7319e-08 -2.5323e-07)
(5.0155e-05 1.1197e-06 -3.5258e-06)
(4.8112e-05 1.8605e-06 -5.8296e-06)
(4.5837e-05 2.2568e-06 -7.0599e-06)
(4.3343e-05 2.3131e-06 -7.2294e-06)
(4.0633e-05 2.0827e-06 -6.5047e-06)
(5.1388e-05 -5.0818e-06 4.0685e-05)
(5.3042e-05 -4.3227e-06 3.459e-05)
(5.4214e-05 -3.5269e-06 2.8207e-05)
(5.4848e-05 -2.7263e-06 2.1787e-05)
(5.4914e-05 -1.9463e-06 1.5535e-05)
(5.4421e-05 -1.2096e-06 9.6307e-06)
(5.342e-05 -5.3854e-07 4.2562e-06)
(5.1986e-05 4.283e-08 -3.9627e-07)
(5.0207e-05 5.0925e-07 -4.1289e-06)
(4.8156e-05 8.3714e-07 -6.7552e-06)
(4.5878e-05 1.0113e-06 -8.1492e-06)
(4.3383e-05 1.0336e-06 -8.3206e-06)
(4.067e-05 9.2769e-07 -7.4615e-06)
(5.1501e-05 -5.0452e-09 4.5454e-05)
(5.317e-05 -4.3674e-09 3.8612e-05)
(5.4355e-05 -3.6247e-09 3.1456e-05)
(5.4995e-05 -2.8564e-09 2.4266e-05)
(5.5058e-05 -2.1094e-09 1.7266e-05)
(5.4553e-05 -1.4187e-09 1.0652e-05)
(5.3533e-05 -8.1359e-10 4.6276e-06)
(5.2078e-05 -3.0252e-10 -5.9248e-07)
(5.0281e-05 1.1248e-10 -4.7842e-06)
(4.8219e-05 4.0523e-10 -7.7323e-06)
(4.5936e-05 5.5499e-10 -9.2848e-06)
(4.344e-05 5.6604e-10 -9.4459e-06)
(4.0722e-05 4.6129e-10 -8.4349e-06)
(5.1388e-05 -4.0685e-05 -5.0671e-06)
(5.3042e-05 -3.459e-05 -4.3101e-06)
(5.4214e-05 -2.8207e-05 -3.5166e-06)
(5.4848e-05 -2.1787e-05 -2.7183e-06)
(5.4914e-05 -1.5535e-05 -1.9406e-06)
(5.4421e-05 -9.6306e-06 -1.2059e-06)
(5.342e-05 -4.2562e-06 -5.3669e-07)
(5.1986e-05 3.9609e-07 4.3107e-08)
(5.0207e-05 4.1285e-06 5.0827e-07)
(4.8156e-05 6.7548e-06 8.3526e-07)
(4.5877e-05 8.1485e-06 1.0089e-06)
(4.3383e-05 8.3198e-06 1.0311e-06)
(4.067e-05 7.4606e-06 9.2544e-07)
(5.1215e-05 -3.3512e-05 1.5951e-08)
(5.2848e-05 -2.8525e-05 1.3599e-08)
(5.4001e-05 -2.3294e-05 1.1112e-08)
(5.4625e-05 -1.8026e-05 8.5968e-09)
(5.4695e-05 -1.2895e-05 6.1504e-09)
(5.4221e-05 -8.0531e-06 3.8606e-09)
(5.3247e-05 -3.6519e-06 1.7989e-09)
(5.1844e-05 1.5158e-07 2.8141e-11)
(5.0092e-05 3.1985e-06 -1.3913e-09)
(4.8059e-05 5.3445e-06 -2.4048e-09)
(4.5788e-05 6.498e-06 -2.9788e-09)
(4.3298e-05 6.6743e-06 -3.1215e-09)
(4.0593e-05 6.0268e-06 -2.8969e-09)
(5.1135e-05 -2.8529e-05 5.7177e-06)
(5.2758e-05 -2.4298e-05 4.8704e-06)
(5.3903e-05 -1.9856e-05 3.9808e-06)
(5.4524e-05 -1.5381e-05 3.0845e-06)
(5.4596e-05 -1.102e-05 2.2113e-06)
(5.4129e-05 -6.9057e-06 1.3875e-06)
(5.3168e-05 -3.1679e-06 6.391e-07)
(5.1779e-05 6.0146e-08 -7.3432e-09)
(5.0038e-05 2.6449e-06 -5.2498e-07)
(4.8013e-05 4.4666e-06 -8.8985e-07)
(4.5747e-05 5.4515e-06 -1.0874e-06)
(4.3259e-05 5.6152e-06 -1.1207e-06)
(4.0558e-05 5.0862e-06 -1.0156e-06)
(5.1085e-05 -2.3138e-05 1.157e-05)
(5.2702e-05 -1.9713e-05 9.8586e-06)
(5.3843e-05 -1.6116e-05 8.0605e-06)
(5.4461e-05 -1.2491e-05 6.2484e-06)
(5.4535e-05 -8.9584e-06 4.4828e-06)
(5.4073e-05 -5.6264e-06 2.8174e-06)
(5.3119e-05 -2.6003e-06 1.3049e-06)
(5.1738e-05 1.2103e-08 -9.3504e-10)
(5.0005e-05 2.1033e-06 -1.0463e-06)
(4.7985e-05 3.5779e-06 -1.7835e-06)
(4.5721e-05 4.3781e-06 -2.1838e-06)
(4.3235e-05 4.5176e-06 -2.2542e-06)
(4.0536e-05 4.1e-06 -2.0463e-06)
(5.1069e-05 -1.7436e-05 1.7438e-05)
(5.2684e-05 -1.4857e-05 1.4859e-05)
(5.3822e-05 -1.2148e-05 1.215e-05)
(5.444e-05 -9.4181e-06 9.4191e-06)
(5.4514e-05 -6.7577e-06 6.7584e-06)
(5.4054e-05 -4.2485e-06 4.2489e-06)
(5.3102e-05 -1.9699e-06 1.9699e-06)
(5.1724e-05 -3.0828e-09 2.7897e-09)
(4.9994e-05 1.5712e-06 -1.5718e-06)
(4.7975e-05 2.6816e-06 -2.6824e-06)
(4.5713e-05 3.285e-06 -3.286e-06)
(4.3227e-05 3.3922e-06 -3.3932e-06)
(4.0529e-05 3.0808e-06 -3.0819e-06)
(5.1085e-05 -1.1568e-05 2.3139e-05)
(5.2702e-05 -9.8566e-06 1.9714e-05)
(5.3843e-05 -8.0589e-06 1.6117e-05)
(5.4461e-05 -6.2472e-06 1.2492e-05)
(5.4535e-05 -4.482e-06 8.959e-06)
(5.4073e-05 -2.817e-06 5.6267e-06)
(5.3119e-05 -1.3049e-06 2.6003e-06)
(5.1738e-05 6.235e-10 -1.2371e-08)
(5.0005e-05 1.0457e-06 -2.1038e-06)
(4.7985e-05 1.7826e-06 -3.5786e-06)
(4.5721e-05 2.1828e-06 -4.379e-06)
(4.3235e-05 2.2531e-06 -4.5186e-06)
(4.0537e-05 2.0452e-06 -4.1011e-06)
(5.1135e-05 -5.7152e-06 2.853e-05)
(5.2758e-05 -4.8683e-06 2.4299e-05)
(5.3903e-05 -3.9791e-06 1.9857e-05)
(5.4524e-05 -3.0833e-06 1.5381e-05)
(5.4596e-05 -2.2105e-06 1.102e-05)
(5.4129e-05 -1.3872e-06 6.9059e-06)
(5.3168e-05 -6.391e-07 3.1679e-06)
(5.1779e-05 7.0184e-09 -6.0385e-08)
(5.0038e-05 5.2438e-07 -2.6453e-06)
(4.8013e-05 8.8905e-07 -4.4672e-06)
(4.5747e-05 1.0864e-06 -5.4523e-06)
(4.3259e-05 1.1197e-06 -5.6161e-06)
(4.0558e-05 1.0146e-06 -5.0872e-06)
(5.1215e-05 -1.3678e-08 3.3513e-05)
(5.2848e-05 -1.173e-08 2.8526e-05)
(5.4001e-05 -9.6549e-09 2.3294e-05)
(5.4625e-05 -7.5455e-09 1.8027e-05)
(5.4695e-05 -5.4933e-09 1.2896e-05)
(5.4221e-05 -3.5723e-09 8.0533e-06)
(5.3247e-05 -1.8443e-09 3.6519e-06)
(5.1844e-05 -3.6504e-10 -1.5178e-07)
(5.0092e-05 8.1415e-10 -3.1989e-06)
(4.8059e-05 1.6444e-09 -5.3451e-06)
(4.5788e-05 2.0924e-09 -6.4987e-06)
(4.3298e-05 2.1643e-09 -6.6752e-06)
(4.0593e-05 1.9209e-09 -6.0277e-06)
(5.1388e-05 5.0686e-06 4.0686e-05)
(5.3042e-05 4.3112e-06 3.459e-05)
(5.4214e-05 3.5175e-06 2.8207e-05)
(5.4848e-05 2.7189e-06 2.1788e-05)
(5.4914e-05 1.9409e-06 1.5535e-05)
(5.4421e-05 1.2059e-06 9.6308e-06)
(5.342e-05 5.3652e-07 4.2563e-06)
(5.1986e-05 -4.3472e-08 -3.9625e-07)
(5.0207e-05 -5.0879e-07 -4.1289e-06)
(4.8156e-05 -8.359e-07 -6.7553e-06)
(4.5878e-05 -1.0097e-06 -8.1493e-06)
(4.3383e-05 -1.0319e-06 -8.3206e-06)
(4.067e-05 -9.2625e-07 -7.4616e-06)
(5.1309e-05 -3.5814e-05 -1.1517e-05)
(5.2954e-05 -3.0469e-05 -9.8009e-06)
(5.4117e-05 -2.4866e-05 -8.0017e-06)
(5.4746e-05 -1.9227e-05 -6.1907e-06)
(5.4814e-05 -1.3733e-05 -4.4263e-06)
(5.433e-05 -8.5468e-06 -2.7603e-06)
(5.3341e-05 -3.8285e-06 -1.2443e-06)
(5.1922e-05 2.5309e-07 6.7681e-08)
(5.0155e-05 3.5256e-06 1.1197e-06)
(4.8112e-05 5.8294e-06 1.8602e-06)
(4.5836e-05 7.0596e-06 2.2563e-06)
(4.3343e-05 7.229e-06 2.3126e-06)
(4.0633e-05 6.5041e-06 2.0822e-06)
(5.1135e-05 -2.8529e-05 -5.693e-06)
(5.2758e-05 -2.4298e-05 -4.8493e-06)
(5.3903e-05 -1.9856e-05 -3.9635e-06)
(5.4524e-05 -1.538e-05 -3.0711e-06)
(5.4596e-05 -1.102e-05 -2.2017e-06)
(5.413e-05 -6.9056e-06 -1.3815e-06)
(5.3168e-05 -3.1678e-06 -6.362e-07)
(5.1779e-05 6.0288e-08 7.5192e-09)
(5.0038e-05 2.645e-06 5.2297e-07)
(4.8013e-05 4.4667e-06 8.8629e-07)
(4.5747e-05 5.4517e-06 1.0829e-06)
(4.3259e-05 5.6153e-06 1.116e-06)
(4.0558e-05 5.0863e-06 1.0112e-06)
(5.105e-05 -2.3396e-05 1.7729e-08)
(5.2662e-05 -1.9938e-05 1.5134e-08)
(5.3799e-05 -1.6305e-05 1.2391e-08)
(5.4416e-05 -1.2642e-05 9.6184e-09)
(5.4491e-05 -9.0715e-06 6.9205e-09)
(5.4033e-05 -5.7041e-06 4.3908e-09)
(5.3084e-05 -2.6463e-06 2.1093e-09)
(5.1709e-05 -7.0147e-09 1.4957e-10)
(4.9981e-05 2.1053e-06 -1.4191e-09)
(4.7965e-05 3.5951e-06 -2.5389e-09)
(4.5703e-05 4.4055e-06 -3.1779e-09)
(4.3218e-05 4.551e-06 -3.3485e-09)
(4.0522e-05 4.1356e-06 -3.1203e-09)
(5.0997e-05 -1.7866e-05 5.9749e-06)
(5.2604e-05 -1.523e-05 5.0937e-06)
(5.3736e-05 -1.246e-05 4.1674e-06)
(5.435e-05 -9.6659e-06 3.2334e-06)
(5.4426e-05 -6.9429e-06 2.323e-06)
(5.3973e-05 -4.3749e-06 1.4645e-06)
(5.3032e-05 -2.0439e-06 6.8518e-07)
(5.1666e-05 -3.2702e-08 1.2817e-08)
(4.9946e-05 1.5764e-06 -5.2517e-07)
(4.7935e-05 2.7119e-06 -9.0487e-07)
(4.5676e-05 3.3318e-06 -1.1123e-06)
(4.3193e-05 3.4481e-06 -1.1514e-06)
(4.05e-05 3.1397e-06 -1.0486e-06)
(5.0979e-05 -1.2002e-05 1.2005e-05)
(5.2584e-05 -1.0233e-05 1.0235e-05)
(5.3714e-05 -8.3728e-06 8.3747e-06)
(5.4328e-05 -6.4968e-06 6.4983e-06)
(5.4405e-05 -4.6685e-06 4.6695e-06)
(5.3953e-05 -2.9444e-06 2.9449e-06)
(5.3015e-05 -1.3795e-06 1.3796e-06)
(5.1651e-05 -2.9538e-08 2.9298e-08)
(4.9934e-05 1.0505e-06 -1.051e-06)
(4.7925e-05 1.8127e-06 -1.8135e-06)
(4.5667e-05 2.2295e-06 -2.2304e-06)
(4.3184e-05 2.3089e-06 -2.31e-06)
(4.0492e-05 2.1038e-06 -2.1049e-06)
(5.0997e-05 -5.9717e-06 1.7868e-05)
(5.2604e-05 -5.091e-06 1.5232e-05)
(5.3736e-05 -4.1652e-06 1.2461e-05)
(5.435e-05 -3.2317e-06 9.667e-06)
(5.4426e-05 -2.3218e-06 6.9437e-06)
(5.3973e-05 -1.4639e-06 4.3754e-06)
(5.3032e-05 -6.8501e-07 2.0439e-06)
(5.1666e-05 -1.3068e-08 3.248e-08)
(4.9946e-05 5.2457e-07 -1.5769e-06)
(4.7935e-05 9.04e-07 -2.7127e-06)
(4.5676e-05 1.1112e-06 -3.3327e-06)
(4.3193e-05 1.1503e-06 -3.4491e-06)
(4.05e-05 1.0475e-06 -3.1407e-06)
(5.1049e-05 -1.4086e-08 2.3397e-05)
(5.2662e-05 -1.2072e-08 1.9939e-05)
(5.3799e-05 -9.9344e-09 1.6305e-05)
(5.4416e-05 -7.7696e-09 1.2642e-05)
(5.4491e-05 -5.6647e-09 9.072e-06)
(5.4033e-05 -3.6938e-09 5.7044e-06)
(5.3084e-05 -1.9212e-09 2.6463e-06)
(5.1709e-05 -4.0614e-10 6.8167e-09)
(4.9981e-05 7.9707e-10 -2.1057e-06)
(4.7965e-05 1.6414e-09 -3.5957e-06)
(4.5703e-05 2.0985e-09 -4.4062e-06)
(4.3218e-05 2.178e-09 -4.5518e-06)
(4.0522e-05 1.9409e-09 -4.1365e-06)
(5.1135e-05 5.6964e-06 2.853e-05)
(5.2758e-05 4.8521e-06 2.4298e-05)
(5.3903e-05 3.9658e-06 1.9856e-05)
(5.4524e-05 3.0728e-06 1.5381e-05)
(5.4596e-05 2.2028e-06 1.102e-05)
(5.413e-05 1.3821e-06 6.9056e-06)
(5.3168e-05 6.3634e-07 3.1678e-06)
(5.1779e-05 -7.7823e-09 -6.0454e-08)
(5.0038e-05 -5.2357e-07 -2.6454e-06)
(4.8013e-05 -8.8712e-07 -4.4672e-06)
(4.5747e-05 -1.0839e-06 -5.4522e-06)
(4.3259e-05 -1.1171e-06 -5.6159e-06)
(4.0558e-05 -1.0123e-06 -5.0871e-06)
(5.1309e-05 1.1519e-05 3.5814e-05)
(5.2953e-05 9.8026e-06 3.0469e-05)
(5.4117e-05 8.003e-06 2.4866e-05)
(5.4746e-05 6.1916e-06 1.9227e-05)
(5.4814e-05 4.4269e-06 1.3733e-05)
(5.433e-05 2.7606e-06 8.5469e-06)
(5.3342e-05 1.2442e-06 3.8286e-06)
(5.1922e-05 -6.796e-08 -2.532e-07)
(5.0155e-05 -1.1201e-06 -3.5259e-06)
(4.8112e-05 -1.8608e-06 -5.8298e-06)
(4.5837e-05 -2.257e-06 -7.0602e-06)
(4.3343e-05 -2.3134e-06 -7.2297e-06)
(4.0633e-05 -2.083e-06 -6.5049e-06)
(5.126e-05 -3.0309e-05 -1.7992e-05)
(5.2898e-05 -2.5796e-05 -1.5316e-05)
(5.4056e-05 -2.1064e-05 -1.2509e-05)
(5.4683e-05 -1.6299e-05 -9.6821e-06)
(5.4752e-05 -1.1656e-05 -6.9282e-06)
(5.4273e-05 -7.274e-06 -4.3283e-06)
(5.3292e-05 -3.2886e-06 -1.9637e-06)
(5.1881e-05 1.576e-07 8.1229e-08)
(5.0122e-05 2.9198e-06 1.7205e-06)
(4.8084e-05 4.8654e-06 2.8754e-06)
(4.581e-05 5.9088e-06 3.4954e-06)
(4.3317e-05 6.0625e-06 3.5881e-06)
(4.061e-05 5.4661e-06 3.2364e-06)
(5.1086e-05 -2.3135e-05 -1.1563e-05)
(5.2703e-05 -1.971e-05 -9.8521e-06)
(5.3843e-05 -1.6114e-05 -8.0552e-06)
(5.4461e-05 -1.2489e-05 -6.2442e-06)
(5.4535e-05 -8.9572e-06 -4.4798e-06)
(5.4073e-05 -5.6256e-06 -2.8154e-06)
(5.3119e-05 -2.5999e-06 -1.3039e-06)
(5.1738e-05 1.2276e-08 1.1409e-09)
(5.0005e-05 2.1032e-06 1.0458e-06)
(4.7985e-05 3.5776e-06 1.7825e-06)
(4.5721e-05 4.3777e-06 2.1826e-06)
(4.3235e-05 4.5172e-06 2.2528e-06)
(4.0536e-05 4.0996e-06 2.0449e-06)
(5.0997e-05 -1.7861e-05 -5.9529e-06)
(5.2604e-05 -1.5226e-05 -5.0749e-06)
(5.3736e-05 -1.2456e-05 -4.152e-06)
(5.435e-05 -9.6631e-06 -3.2213e-06)
(5.4426e-05 -6.9409e-06 -2.3143e-06)
(5.3973e-05 -4.3736e-06 -1.4589e-06)
(5.3032e-05 -2.0432e-06 -6.8244e-07)
(5.1666e-05 -3.2608e-08 -1.25e-08)
(4.9946e-05 1.5761e-06 5.2354e-07)
(4.7935e-05 2.7113e-06 9.0184e-07)
(4.5676e-05 3.331e-06 1.1084e-06)
(4.3193e-05 3.4473e-06 1.1473e-06)
(4.05e-05 3.1389e-06 1.0448e-06)
(5.0942e-05 -1.2183e-05 1.1271e-08)
(5.2543e-05 -1.0389e-05 9.6467e-09)
(5.367e-05 -8.5022e-06 7.9228e-09)
(5.4282e-05 -6.5992e-06 6.1744e-09)
(5.436e-05 -4.7444e-06 4.4693e-09)
(5.3912e-05 -2.9955e-06 2.8678e-09)
(5.2979e-05 -1.4086e-06 1.4221e-09)
(5.1621e-05 -4.0073e-08 1.7883e-10)
(4.9909e-05 1.0546e-06 -8.1955e-10)
(4.7904e-05 1.8273e-06 -1.5383e-09)
(4.5648e-05 2.2508e-06 -1.9595e-09)
(4.3167e-05 2.3335e-06 -2.0917e-09)
(4.0477e-05 2.129e-06 -1.9764e-09)
(5.0924e-05 -6.1569e-06 6.1606e-06)
(5.2523e-05 -5.2508e-06 5.2539e-06)
(5.3648e-05 -4.2979e-06 4.3004e-06)
(5.4259e-05 -3.3366e-06 3.3385e-06)
(5.4337e-05 -2.3996e-06 2.401e-06)
(5.3891e-05 -1.5163e-06 1.517e-06)
(5.2961e-05 -7.148e-07 7.1506e-07)
(5.1606e-05 -2.376e-08 2.356e-08)
(4.9897e-05 5.2892e-07 -5.295e-07)
(4.7893e-05 9.1916e-07 -9.2005e-07)
(4.5639e-05 1.1333e-06 -1.1343e-06)
(4.3158e-05 1.1757e-06 -1.1769e-06)
(4.0469e-05 1.0733e-06 -1.0746e-06)
(5.0942e-05 -6.8e-09 1.2186e-05)
(5.2543e-05 -5.8614e-09 1.0391e-05)
(5.367e-05 -4.8587e-09 8.5043e-06)
(5.4282e-05 -3.8389e-09 6.6008e-06)
(5.436e-05 -2.8458e-09 4.7455e-06)
(5.3912e-05 -1.9177e-09 2.9962e-06)
(5.2979e-05 -1.0871e-09 1.4088e-06)
(5.1621e-05 -3.8196e-10 3.9888e-08)
(4.9909e-05 1.7372e-10 -1.0551e-06)
(4.7904e-05 5.5937e-10 -1.8281e-06)
(4.5648e-05 7.6325e-10 -2.2518e-06)
(4.3167e-05 7.9139e-10 -2.3346e-06)
(4.0477e-05 6.7301e-10 -2.1301e-06)
(5.0997e-05 5.9585e-06 1.7862e-05)
(5.2604e-05 5.0796e-06 1.5227e-05)
(5.3736e-05 4.1558e-06 1.2457e-05)
(5.435e-05 3.2242e-06 9.6638e-06)
(5.4426e-05 2.3163e-06 6.9414e-06)
(5.3973e-05 1.4601e-06 4.3739e-06)
(5.3032e-05 6.8289e-07 2.0432e-06)
(5.1666e-05 1.2305e-08 3.2441e-08)
(4.9946e-05 -5.2427e-07 -1.5764e-06)
(4.7935e-05 -9.0295e-07 -2.7118e-06)
(4.5676e-05 -1.1098e-06 -3.3317e-06)
(4.3193e-05 -1.1488e-06 -3.448e-06)
(4.05e-05 -1.0462e-06 -3.1397e-06)
(5.1085e-05 1.1568e-05 2.3134e-05)
(5.2702e-05 9.8565e-06 1.971e-05)
(5.3843e-05 8.0587e-06 1.6113e-05)
(5.4461e-05 6.2469e-06 1.2489e-05)
(5.4535e-05 4.4816e-06 8.9569e-06)
(5.4073e-05 2.8165e-06 5.6254e-06)
(5.3119e-05 1.3043e-06 2.5997e-06)
(5.1738e-05 -1.3288e-09 -1.2419e-08)
(5.0005e-05 -1.0465e-06 -2.1034e-06)
(4.7985e-05 -1.7836e-06 -3.5778e-06)
(4.5721e-05 -2.1838e-06 -4.378e-06)
(4.3235e-05 -2.2541e-06 -4.5176e-06)
(4.0537e-05 -2.0462e-06 -4.1001e-06)
(5.1259e-05 1.7995e-05 3.0308e-05)
(5.2898e-05 1.5319e-05 2.5796e-05)
(5.4056e-05 1.2511e-05 2.1063e-05)
(5.4683e-05 9.6835e-06 1.6298e-05)
(5.4752e-05 6.9291e-06 1.1656e-05)
(5.4273e-05 4.3288e-06 7.2739e-06)
(5.3292e-05 1.9638e-06 3.2885e-06)
(5.1882e-05 -8.1421e-08 -1.5769e-07)
(5.0122e-05 -1.7209e-06 -2.92e-06)
(4.8084e-05 -2.876e-06 -4.8656e-06)
(4.5811e-05 -3.4961e-06 -5.9091e-06)
(4.3318e-05 -3.5889e-06 -6.0628e-06)
(4.061e-05 -3.2372e-06 -5.4666e-06)
(5.1243e-05 -2.4314e-05 -2.4312e-05)
(5.2878e-05 -2.0699e-05 -2.0697e-05)
(5.4035e-05 -1.6905e-05 -1.6904e-05)
(5.4661e-05 -1.3086e-05 -1.3085e-05)
(5.473e-05 -9.3645e-06 -9.3635e-06)
(5.4253e-05 -5.8517e-06 -5.851e-06)
(5.3275e-05 -2.6573e-06 -2.6568e-06)
(5.1868e-05 1.0451e-07 1.0483e-07)
(5.0111e-05 2.3181e-06 2.3183e-06)
(4.8074e-05 3.8779e-06 3.878e-06)
(4.5801e-05 4.7159e-06 4.7161e-06)
(4.3309e-05 4.8427e-06 4.8428e-06)
(4.0602e-05 4.37e-06 4.3701e-06)
(5.1069e-05 -1.7433e-05 -1.743e-05)
(5.2684e-05 -1.4855e-05 -1.4853e-05)
(5.3823e-05 -1.2147e-05 -1.2144e-05)
(5.444e-05 -9.4167e-06 -9.415e-06)
(5.4514e-05 -6.7568e-06 -6.7555e-06)
(5.4054e-05 -4.2479e-06 -4.2469e-06)
(5.3103e-05 -1.9696e-06 -1.9689e-06)
(5.1724e-05 -2.9936e-09 -2.5772e-09)
(4.9994e-05 1.5711e-06 1.5714e-06)
(4.7975e-05 2.6813e-06 2.6814e-06)
(4.5712e-05 3.2847e-06 3.2848e-06)
(4.3226e-05 3.3918e-06 3.3918e-06)
(4.0529e-05 3.0805e-06 3.0805e-06)
(5.0979e-05 -1.1995e-05 -1.1992e-05)
(5.2584e-05 -1.0227e-05 -1.0224e-05)
(5.3714e-05 -8.3681e-06 -8.3655e-06)
(5.4328e-05 -6.4932e-06 -6.4911e-06)
(5.4405e-05 -4.6659e-06 -4.6643e-06)
(5.3953e-05 -2.9427e-06 -2.9415e-06)
(5.3015e-05 -1.3787e-06 -1.3779e-06)
(5.1651e-05 -2.9474e-08 -2.9e-08)
(4.9934e-05 1.0499e-06 1.0502e-06)
(4.7924e-05 1.8118e-06 1.8118e-06)
(4.5667e-05 2.2283e-06 2.2282e-06)
(4.3184e-05 2.3077e-06 2.3076e-06)
(4.0492e-05 2.1027e-06 2.1026e-06)
(5.0924e-05 -6.1519e-06 -6.1475e-06)
(5.2523e-05 -5.2466e-06 -5.2427e-06)
(5.3648e-05 -4.2944e-06 -4.2911e-06)
(5.4259e-05 -3.3339e-06 -3.3312e-06)
(5.4337e-05 -2.3977e-06 -2.3956e-06)
(5.3891e-05 -1.5151e-06 -1.5136e-06)
(5.2961e-05 -7.1423e-07 -7.1327e-07)
(5.1606e-05 -2.3733e-08 -2.3212e-08)
(4.9897e-05 5.2852e-07 5.2868e-07)
(4.7893e-05 9.1846e-07 9.1837e-07)
(4.5639e-05 1.1324e-06 1.1321e-06)
(4.3158e-05 1.1748e-06 1.1745e-06)
(4.0469e-05 1.0725e-06 1.0722e-06)
(5.0905e-05 -3.9295e-10 4.951e-09)
(5.2502e-05 -4.1161e-10 4.2782e-09)
(5.3625e-05 -4.1273e-10 3.5495e-09)
(5.4236e-05 -4.0156e-10 2.7997e-09)
(5.4315e-05 -3.857e-10 2.0618e-09)
(5.387e-05 -3.7214e-10 1.3646e-09)
(5.2942e-05 -3.6514e-10 7.3219e-10)
(5.1591e-05 -3.6527e-10 1.8408e-10)
(4.9884e-05 -3.7097e-10 -2.6303e-10)
(4.7882e-05 -3.8097e-10 -5.9527e-10)
(4.5629e-05 -3.9483e-10 -8.0538e-10)
(4.315e-05 -4.1159e-10 -8.9639e-10)
(4.0462e-05 -4.2861e-10 -8.8318e-10)
(5.0924e-05 6.1528e-06 6.1574e-06)
(5.2523e-05 5.2472e-06 5.2512e-06)
(5.3648e-05 4.2948e-06 4.2982e-06)
(5.4259e-05 3.334e-06 3.3368e-06)
(5.4337e-05 2.3976e-06 2.3998e-06)
(5.3891e-05 1.5147e-06 1.5163e-06)
(5.2961e-05 7.1371e-07 7.1473e-07)
(5.1606e-05 2.3031e-08 2.3574e-08)
(4.9897e-05 -5.2937e-07 -5.2922e-07)
(4.7893e-05 -9.1944e-07 -9.1957e-07)
(4.5639e-05 -1.1335e-06 -1.1338e-06)
(4.3158e-05 -1.1759e-06 -1.1763e-06)
(4.0469e-05 -1.0736e-06 -1.074e-06)
(5.0979e-05 1.2001e-05 1.1997e-05)
(5.2584e-05 1.0232e-05 1.0228e-05)
(5.3714e-05 8.3718e-06 8.3691e-06)
(5.4328e-05 6.4959e-06 6.494e-06)
(5.4405e-05 4.6677e-06 4.6664e-06)
(5.3953e-05 2.9436e-06 2.943e-06)
(5.3015e-05 1.3788e-06 1.3787e-06)
(5.1651e-05 2.8848e-08 2.9328e-08)
(4.9934e-05 -1.0512e-06 -1.0503e-06)
(4.7925e-05 -1.8134e-06 -1.8123e-06)
(4.5667e-05 -2.2302e-06 -2.2289e-06)
(4.3185e-05 -2.3096e-06 -2.3084e-06)
(4.0492e-05 -2.1046e-06 -2.1035e-06)
(5.1069e-05 1.7439e-05 1.743e-05)
(5.2684e-05 1.486e-05 1.4852e-05)
(5.3822e-05 1.215e-05 1.2144e-05)
(5.444e-05 9.4195e-06 9.415e-06)
(5.4514e-05 6.7586e-06 6.7555e-06)
(5.4054e-05 4.2489e-06 4.2471e-06)
(5.3103e-05 1.9698e-06 1.9692e-06)
(5.1725e-05 2.4577e-09 2.8592e-09)
(4.9994e-05 -1.5722e-06 -1.571e-06)
(4.7975e-05 -2.6829e-06 -2.6812e-06)
(4.5713e-05 -3.2865e-06 -3.2845e-06)
(4.3227e-05 -3.3937e-06 -3.3917e-06)
(4.0529e-05 -3.0823e-06 -3.0805e-06)
(5.1242e-05 2.4315e-05 2.4312e-05)
(5.2878e-05 2.0699e-05 2.0697e-05)
(5.4035e-05 1.6906e-05 1.6904e-05)
(5.4661e-05 1.3086e-05 1.3085e-05)
(5.473e-05 9.3647e-06 9.3637e-06)
(5.4253e-05 5.8516e-06 5.8512e-06)
(5.3275e-05 2.6571e-06 2.657e-06)
(5.1868e-05 -1.0495e-07 -1.046e-07)
(5.0111e-05 -2.3187e-06 -2.3181e-06)
(4.8074e-05 -3.8786e-06 -3.8778e-06)
(4.5802e-05 -4.7168e-06 -4.7159e-06)
(4.3309e-05 -4.8436e-06 -4.8427e-06)
(4.0602e-05 -4.3709e-06 -4.3701e-06)
(5.126e-05 -1.7995e-05 -3.0307e-05)
(5.2898e-05 -1.5318e-05 -2.5795e-05)
(5.4056e-05 -1.251e-05 -2.1062e-05)
(5.4683e-05 -9.6835e-06 -1.6298e-05)
(5.4752e-05 -6.9292e-06 -1.1655e-05)
(5.4273e-05 -4.3291e-06 -7.2734e-06)
(5.3292e-05 -1.9643e-06 -3.2881e-06)
(5.1881e-05 8.0865e-08 1.579e-07)
(5.0122e-05 1.7203e-06 2.9201e-06)
(4.8084e-05 2.8752e-06 4.8656e-06)
(4.581e-05 3.4953e-06 5.909e-06)
(4.3317e-05 3.5881e-06 6.0627e-06)
(4.061e-05 3.2363e-06 5.4663e-06)
(5.1086e-05 -1.1566e-05 -2.3132e-05)
(5.2703e-05 -9.8549e-06 -1.9708e-05)
(5.3843e-05 -8.0575e-06 -1.6112e-05)
(5.4461e-05 -6.2461e-06 -1.2488e-05)
(5.4535e-05 -4.4812e-06 -8.9561e-06)
(5.4073e-05 -2.8165e-06 -5.6248e-06)
(5.3119e-05 -1.3046e-06 -2.5993e-06)
(5.1738e-05 6.9876e-10 1.267e-08)
(5.0005e-05 1.0456e-06 2.1035e-06)
(4.7985e-05 1.7825e-06 3.5778e-06)
(4.5721e-05 2.1826e-06 4.3779e-06)
(4.3234e-05 2.2529e-06 4.5174e-06)
(4.0536e-05 2.045e-06 4.0998e-06)
(5.0997e-05 -5.9569e-06 -1.7858e-05)
(5.2604e-05 -5.0785e-06 -1.5223e-05)
(5.3736e-05 -4.155e-06 -1.2454e-05)
(5.435e-05 -3.2238e-06 -9.6614e-06)
(5.4426e-05 -2.3162e-06 -6.9396e-06)
(5.3973e-05 -1.4603e-06 -4.3727e-06)
(5.3032e-05 -6.8333e-07 -2.0425e-06)
(5.1666e-05 -1.2997e-08 -3.2153e-08)
(4.9946e-05 5.2337e-07 1.5764e-06)
(4.7935e-05 9.019e-07 2.7114e-06)
(4.5676e-05 1.1086e-06 3.3311e-06)
(4.3193e-05 1.1476e-06 3.4473e-06)
(4.0499e-05 1.045e-06 3.1389e-06)
(5.0942e-05 6.0186e-09 -1.2179e-05)
(5.2543e-05 5.036e-09 -1.0385e-05)
(5.367e-05 4.0258e-09 -8.4994e-06)
(5.4282e-05 3.0248e-09 -6.5969e-06)
(5.436e-05 2.0613e-09 -4.7426e-06)
(5.3912e-05 1.1593e-09 -2.9942e-06)
(5.2979e-05 3.4306e-10 -1.4077e-06)
(5.1621e-05 -3.6071e-10 -3.9563e-08)
(4.9909e-05 -9.2473e-10 1.0548e-06)
(4.7903e-05 -1.3266e-09 1.8274e-06)
(4.5648e-05 -1.5545e-09 2.2507e-06)
(4.3167e-05 -1.6131e-09 2.3334e-06)
(4.0477e-05 -1.5264e-09 2.1289e-06)
(5.0924e-05 6.1544e-06 -6.1507e-06)
(5.2523e-05 5.2486e-06 -5.2454e-06)
(5.3648e-05 4.2959e-06 -4.2933e-06)
(5.4259e-05 3.3348e-06 -3.3329e-06)
(5.4337e-05 2.3982e-06 -2.3968e-06)
(5.3891e-05 1.5151e-06 -1.5143e-06)
(5.2961e-05 7.1386e-07 -7.1361e-07)
(5.1606e-05 2.3002e-08 -2.3203e-08)
(4.9897e-05 -5.2954e-07 5.2896e-07)
(4.7893e-05 -9.197e-07 9.1884e-07)
(4.5639e-05 -1.1338e-06 1.1327e-06)
(4.3158e-05 -1.1762e-06 1.1751e-06)
(4.0469e-05 -1.0739e-06 1.0728e-06)
(5.0942e-05 1.2182e-05 6.9086e-09)
(5.2543e-05 1.0388e-05 5.9564e-09)
(5.367e-05 8.5014e-06 4.9309e-09)
(5.4282e-05 6.5984e-06 3.8809e-09)
(5.436e-05 4.7436e-06 2.8499e-09)
(5.3912e-05 2.9948e-06 1.8749e-09)
(5.2979e-05 1.4079e-06 9.8757e-10)
(5.1621e-05 3.9356e-08 2.1575e-10)
(4.9909e-05 -1.0553e-06 -4.1424e-10)
(4.7904e-05 -1.8281e-06 -8.7815e-10)
(4.5648e-05 -2.2516e-06 -1.1613e-09)
(4.3167e-05 -2.3344e-06 -1.2668e-09)
(4.0477e-05 -2.1299e-06 -1.2194e-09)
(5.0997e-05 1.7865e-05 5.9695e-06)
(5.2604e-05 1.523e-05 5.0891e-06)
(5.3736e-05 1.2459e-05 4.1637e-06)
(5.435e-05 9.6654e-06 3.2305e-06)
(5.4426e-05 6.9424e-06 2.321e-06)
(5.3973e-05 4.3744e-06 1.4633e-06)
(5.3032e-05 2.0432e-06 6.8466e-07)
(5.1666e-05 3.2031e-08 1.2892e-08)
(4.9946e-05 -1.5772e-06 -5.2463e-07)
(4.7935e-05 -2.7127e-06 -9.0401e-07)
(4.5676e-05 -3.3327e-06 -1.1113e-06)
(4.3193e-05 -3.449e-06 -1.1504e-06)
(4.05e-05 -3.1406e-06 -1.0477e-06)
(5.1085e-05 2.3139e-05 1.1566e-05)
(5.2702e-05 1.9714e-05 9.8545e-06)
(5.3843e-05 1.6116e-05 8.0572e-06)
(5.4461e-05 1.2491e-05 6.2459e-06)
(5.4535e-05 8.9584e-06 4.481e-06)
(5.4073e-05 5.6263e-06 2.8164e-06)
(5.3119e-05 2.5999e-06 1.3045e-06)
(5.1738e-05 -1.2704e-08 -8.0212e-10)
(5.0005e-05 -2.1041e-06 -1.0457e-06)
(4.7985e-05 -3.5788e-06 -1.7826e-06)
(4.5721e-05 -4.3791e-06 -2.1828e-06)
(4.3235e-05 -4.5187e-06 -2.2532e-06)
(4.0536e-05 -4.1012e-06 -2.0454e-06)
(5.1259e-05 3.0308e-05 1.799e-05)
(5.2897e-05 2.5795e-05 1.5315e-05)
(5.4056e-05 2.1063e-05 1.2507e-05)
(5.4682e-05 1.6298e-05 9.6812e-06)
(5.4752e-05 1.1656e-05 6.9276e-06)
(5.4273e-05 7.2735e-06 4.3281e-06)
(5.3292e-05 3.2882e-06 1.9637e-06)
(5.1882e-05 -1.5794e-07 -8.0975e-08)
(5.0122e-05 -2.9201e-06 -1.72e-06)
(4.8084e-05 -4.8657e-06 -2.8748e-06)
(4.581e-05 -5.9092e-06 -3.4949e-06)
(4.3318e-05 -6.0629e-06 -3.5877e-06)
(4.061e-05 -5.4667e-06 -3.2361e-06)
(5.1309e-05 -1.1519e-05 -3.5813e-05)
(5.2954e-05 -9.8029e-06 -3.0468e-05)
(5.4117e-05 -8.0034e-06 -2.4864e-05)
(5.4747e-05 -6.1921e-06 -1.9226e-05)
(5.4814e-05 -4.4274e-06 -1.3733e-05)
(5.433e-05 -2.7612e-06 -8.5463e-06)
(5.3341e-05 -1.2449e-06 -3.8282e-06)
(5.1922e-05 6.7281e-08 2.5337e-07)
(5.0155e-05 1.1194e-06 3.5259e-06)
(4.8112e-05 1.8601e-06 5.8296e-06)
(4.5836e-05 2.2563e-06 7.0599e-06)
(4.3342e-05 2.3126e-06 7.2293e-06)
(4.0633e-05 2.0822e-06 6.5045e-06)
(5.1135e-05 -5.6962e-06 -2.8528e-05)
(5.2758e-05 -4.8522e-06 -2.4297e-05)
(5.3903e-05 -3.966e-06 -1.9855e-05)
(5.4524e-05 -3.0731e-06 -1.5379e-05)
(5.4596e-05 -2.2032e-06 -1.1019e-05)
(5.413e-05 -1.3826e-06 -6.9049e-06)
(5.3168e-05 -6.3698e-07 -3.1673e-06)
(5.1779e-05 7.0511e-09 6.0665e-08)
(5.0038e-05 5.2276e-07 2.6454e-06)
(4.8013e-05 8.8627e-07 4.467e-06)
(4.5747e-05 1.083e-06 5.4519e-06)
(4.3258e-05 1.1161e-06 5.6155e-06)
(4.0558e-05 1.0113e-06 5.0866e-06)
(5.105e-05 1.3317e-08 -2.3394e-05)
(5.2662e-05 1.124e-08 -1.9937e-05)
(5.3799e-05 9.0811e-09 -1.6303e-05)
(5.4416e-05 6.9259e-09 -1.264e-05)
(5.4491e-05 4.8447e-09 -9.0706e-06)
(5.4033e-05 2.8971e-09 -5.7034e-06)
(5.3084e-05 1.1388e-09 -2.6457e-06)
(5.1709e-05 -3.7099e-10 -6.5743e-09)
(4.9981e-05 -1.5741e-09 2.1056e-06)
(4.7965e-05 -2.424e-09 3.5954e-06)
(4.5703e-05 -2.8952e-09 4.4058e-06)
(4.3218e-05 -2.997e-09 4.5512e-06)
(4.0522e-05 -2.7851e-09 4.1359e-06)
(5.0997e-05 5.9685e-06 -1.7864e-05)
(5.2604e-05 5.0882e-06 -1.5229e-05)
(5.3736e-05 4.1627e-06 -1.2458e-05)
(5.435e-05 3.2296e-06 -9.6647e-06)
(5.4426e-05 2.3201e-06 -6.9419e-06)
(5.3973e-05 1.4625e-06 -4.3741e-06)
(5.3032e-05 6.8394e-07 -2.0432e-06)
(5.1666e-05 1.2252e-08 -3.2205e-08)
(4.9946e-05 -5.2519e-07 1.5768e-06)
(4.7935e-05 -9.0449e-07 2.7123e-06)
(4.5676e-05 -1.1117e-06 3.3321e-06)
(4.3193e-05 -1.1507e-06 3.4484e-06)
(4.0499e-05 -1.048e-06 3.1399e-06)
(5.0979e-05 1.1995e-05 -1.2e-05)
(5.2584e-05 1.0227e-05 -1.0231e-05)
(5.3714e-05 8.3674e-06 -8.3711e-06)
(5.4328e-05 6.4925e-06 -6.4954e-06)
(5.4405e-05 4.6652e-06 -4.6673e-06)
(5.3953e-05 2.942e-06 -2.9434e-06)
(5.3015e-05 1.3779e-06 -1.3787e-06)
(5.1651e-05 2.8706e-08 -2.8987e-08)
(4.9934e-05 -1.0507e-06 1.0509e-06)
(4.7925e-05 -1.8126e-06 1.813e-06)
(4.5667e-05 -2.2292e-06 2.2297e-06)
(4.3184e-05 -2.3085e-06 2.3091e-06)
(4.0492e-05 -2.1036e-06 2.104e-06)
(5.0997e-05 1.7859e-05 -5.9583e-06)
(5.2604e-05 1.5225e-05 -5.0795e-06)
(5.3736e-05 1.2455e-05 -4.1557e-06)
(5.435e-05 9.6621e-06 -3.2242e-06)
(5.4426e-05 6.94e-06 -2.3163e-06)
(5.3973e-05 4.3728e-06 -1.4601e-06)
(5.3032e-05 2.0424e-06 -6.8296e-07)
(5.1666e-05 3.1871e-08 -1.2437e-08)
(4.9946e-05 -1.5768e-06 5.2406e-07)
(4.7935e-05 -2.712e-06 9.0268e-07)
(4.5676e-05 -3.3317e-06 1.1094e-06)
(4.3193e-05 -3.448e-06 1.1483e-06)
(4.05e-05 -3.1397e-06 1.0457e-06)
(5.105e-05 2.3395e-05 1.3277e-08)
(5.2662e-05 1.9937e-05 1.1391e-08)
(5.3799e-05 1.6304e-05 9.3795e-09)
(5.4416e-05 1.2641e-05 7.3351e-09)
(5.4491e-05 9.0708e-06 5.339e-09)
(5.4033e-05 5.7035e-06 3.4579e-09)
(5.3084e-05 2.6456e-06 1.7496e-09)
(5.1709e-05 6.3347e-09 2.6814e-10)
(4.9981e-05 -2.106e-06 -9.3284e-10)
(4.7965e-05 -3.5959e-06 -1.8035e-09)
(4.5703e-05 -4.4063e-06 -2.312e-09)
(4.3218e-05 -4.5518e-06 -2.4641e-09)
(4.0522e-05 -4.1365e-06 -2.3135e-09)
(5.1135e-05 2.8529e-05 5.7141e-06)
(5.2758e-05 2.4298e-05 4.8674e-06)
(5.3903e-05 1.9856e-05 3.9784e-06)
(5.4524e-05 1.538e-05 3.0827e-06)
(5.4596e-05 1.1019e-05 2.2101e-06)
(5.4129e-05 6.9052e-06 1.3869e-06)
(5.3168e-05 3.1674e-06 6.389e-07)
(5.1779e-05 -6.0749e-08 -7.1618e-09)
(5.0038e-05 -2.6456e-06 -5.2451e-07)
(4.8013e-05 -4.4674e-06 -8.8919e-07)
(4.5747e-05 -5.4524e-06 -1.0866e-06)
(4.3259e-05 -5.6161e-06 -1.1199e-06)
(4.0558e-05 -5.0872e-06 -1.0149e-06)
(5.1309e-05 3.5812e-05 1.1522e-05)
(5.2953e-05 3.0467e-05 9.8054e-06)
(5.4117e-05 2.4864e-05 8.0054e-06)
(5.4746e-05 1.9225e-05 6.1936e-06)
(5.4814e-05 1.3732e-05 4.4285e-06)
(5.433e-05 8.5461e-06 2.7618e-06)
(5.3341e-05 3.828e-06 1.2451e-06)
(5.1922e-05 -2.5342e-07 -6.7441e-08)
(5.0155e-05 -3.5259e-06 -1.1199e-06)