/*--------------------------------*- C++ -*----------------------------------*\
| =========                 |                                                 |
| \\      /  F ield         | OpenFOAM: The Open Source CFD Toolbox           |
|  \\    /   O peration     | Version:  4.1                                   |
|   \\  /    A nd           | Web:      www.OpenFOAM.org                      |
|    \\/     M anipulation  |                                                 |
\*---------------------------------------------------------------------------*/
FoamFile
{
    version     2.0;
    format      ascii;
    class       volVectorField;
    location    "0.0067";
    object      U;
}
// * * * * * * * * * * * * * * * * * * * * * * * * * * * * * * * * * * * * * //

dimensions      [0 1 -1 0 0 0 0];

internalField   nonuniform List<vector> 
6144
(
(0.037521 -0.00024604 -9.0355e-08)
(0.037829 -0.00086798 -2.3372e-07)
(0.038737 -0.0018816 -3.2445e-07)
(0.040573 -0.0032538 -5.1205e-07)
(0.04347 -0.0047393 -7.1936e-07)
(0.04747 -0.0061673 -4.8305e-07)
(0.052511 -0.0075372 -3.2354e-07)
(0.058569 -0.0088783 -1.4903e-07)
(0.065642 -0.010193 -5.8599e-08)
(0.073713 -0.011455 3.9732e-07)
(0.082754 -0.012656 1.0594e-06)
(0.092749 -0.013803 1.3739e-06)
(0.10369 -0.014876 1.793e-06)
(0.11552 -0.015793 2.1635e-06)
(0.12812 -0.016399 2.4657e-06)
(0.1412 -0.016503 2.4982e-06)
(0.15434 -0.015947 2.3911e-06)
(0.16702 -0.014653 2.1174e-06)
(0.17867 -0.012614 1.6395e-06)
(0.18874 -0.0098196 1.0692e-06)
(0.19665 -0.0062415 3.7027e-07)
(0.20198 -0.0019924 -7.6717e-07)
(0.20483 0.0024397 -2.1843e-06)
(0.20435 0.0069303 -1.7905e-06)
(0.1995 0.012638 -1.5858e-06)
(0.19024 0.018247 -2.9897e-07)
(0.17676 0.023002 -2.8194e-07)
(0.15982 0.026524 1.3393e-07)
(0.14031 0.028735 1.5491e-07)
(0.11916 0.029782 -2.5479e-07)
(0.09712 0.029849 1.0225e-07)
(0.07486 0.028995 1.499e-07)
(0.053054 0.027141 3.3334e-07)
(0.032504 0.024116 5.148e-07)
(0.014189 0.01973 5.4967e-07)
(-0.0010127 0.013879 5.8019e-07)
(-0.011822 0.0074244 2.7301e-06)
(-0.018328 0.0017526 1.2266e-06)
(-0.021729 -0.0021534 1.1585e-06)
(-0.021403 -0.0043933 1.7224e-06)
(-0.017954 -0.0061617 1.7704e-06)
(-0.013426 -0.0064261 1.5831e-06)
(-0.0088957 -0.0053649 9.9635e-07)
(-0.0051908 -0.003554 9.5534e-07)
(-0.0027667 -0.0020682 4.7061e-07)
(-0.0012771 -0.0012886 4.6783e-07)
(-0.00040877 -0.002703 5.6368e-07)
(0.0033039 -0.0029733 1.5455e-07)
(0.037623 -0.00019123 5.9865e-05)
(0.038002 -0.00065556 0.00017255)
(0.038982 -0.0013886 0.0002803)
(0.040854 -0.0023055 0.00043128)
(0.043762 -0.0033155 0.0005868)
(0.04776 -0.0043155 0.00074016)
(0.052798 -0.0052992 0.00088679)
(0.058853 -0.0062772 0.0010203)
(0.065917 -0.0072434 0.001131)
(0.073975 -0.0081835 0.00122)
(0.083002 -0.0090923 0.0012804)
(0.092979 -0.0099699 0.0013091)
(0.10388 -0.010801 0.0013035)
(0.11565 -0.011523 0.0012596)
(0.12815 -0.012031 0.0011616)
(0.14108 -0.012197 0.00099058)
(0.15404 -0.01191 0.00073365)
(0.16653 -0.01111 0.00038534)
(0.178 -0.0097901 -5.2154e-05)
(0.18789 -0.0079652 -0.00057179)
(0.19567 -0.0056708 -0.0011553)
(0.20091 -0.003061 -0.0017386)
(0.20355 -0.00040621 -0.0020818)
(0.20281 0.0029872 -0.0019356)
(0.19787 0.0069227 -0.0023848)
(0.18867 0.010906 -0.0027992)
(0.17541 0.014378 -0.0030378)
(0.15875 0.017054 -0.0030718)
(0.13957 0.018852 -0.0029345)
(0.1187 0.019839 -0.0026721)
(0.096919 0.020121 -0.0023164)
(0.074912 0.019744 -0.0018751)
(0.053363 0.018656 -0.0013154)
(0.03308 0.016753 -0.00059476)
(0.015028 0.013954 0.00029403)
(-4.0413e-05 0.010301 0.0013263)
(-0.010934 0.0065616 0.0022239)
(-0.01751 0.0035549 0.0027689)
(-0.020849 0.0010617 0.0025135)
(-0.020599 -0.0012867 0.0016199)
(-0.017449 -0.0027748 0.0013052)
(-0.013245 -0.0032031 0.0010331)
(-0.0090128 -0.0028221 0.00064574)
(-0.00549 -0.001852 0.00031383)
(-0.0031755 -0.0010059 2.0535e-05)
(-0.0017301 -0.00058815 -4.5449e-05)
(-0.00085879 -0.0016725 9.6381e-05)
(0.0033196 -0.0022354 0.00021658)
(0.037693 -0.00016334 7.52e-05)
(0.038112 -0.00054688 0.00024178)
(0.039144 -0.0011264 0.00046655)
(0.041048 -0.0018644 0.0007485)
(0.043962 -0.0026842 0.0010494)
(0.047947 -0.0034928 0.0013525)
(0.052975 -0.0042808 0.0016544)
(0.059026 -0.0050585 0.0019487)
(0.066086 -0.0058263 0.0022263)
(0.074135 -0.0065769 0.0024864)
(0.083152 -0.007305 0.002725)
(0.093113 -0.0080087 0.0029404)
(0.10399 -0.008673 0.0031268)
(0.11571 -0.0092484 0.0032681)
(0.12813 -0.0096511 0.0033323)
(0.14096 -0.0097808 0.003281)
(0.1538 -0.0095497 0.0030833)
(0.16616 -0.0089072 0.0027248)
(0.17749 -0.0078407 0.0022069)
(0.18724 -0.0063567 0.0015396)
(0.19489 -0.0044859 0.00075644)
(0.20001 -0.0023394 -5.1936e-05)
(0.20238 -3.921e-05 -0.00075466)
(0.20156 0.0028709 -0.0013063)
(0.19674 0.0061128 -0.0024964)
(0.18762 0.0093144 -0.0036276)
(0.1745 0.012104 -0.0045416)
(0.15803 0.014266 -0.0051635)
(0.13905 0.015741 -0.0054919)
(0.11838 0.016566 -0.0055764)
(0.096793 0.016815 -0.0054579)
(0.074961 0.016532 -0.0051427)
(0.053588 0.015673 -0.0046043)
(0.033494 0.01414 -0.0038085)
(0.015635 0.011869 -0.0027385)
(0.00072477 0.008902 -0.0014194)
(-0.010128 0.0057659 -0.00025276)
(-0.016665 0.0030606 0.00058931)
(-0.019837 0.0007011 0.00093216)
(-0.019792 -0.0014578 0.00079519)
(-0.017112 -0.0027476 0.0010627)
(-0.013167 -0.0031384 0.0010792)
(-0.0091417 -0.0028247 0.00078838)
(-0.0057734 -0.0020544 0.00044512)
(-0.003522 -0.0012874 0.00013505)
(-0.0020874 -0.00095498 4.8542e-05)
(-0.0012808 -0.0017359 0.00038267)
(0.0030601 -0.0018859 0.00062329)
(0.037736 -0.00013435 0.00010012)
(0.038168 -0.00044191 0.00032857)
(0.039221 -0.00088338 0.00065652)
(0.04114 -0.0014445 0.0010714)
(0.044059 -0.0020643 0.0015235)
(0.048042 -0.0026813 0.0019726)
(0.053068 -0.0032863 0.002411)
(0.059116 -0.0038812 0.0028409)
(0.066173 -0.004463 0.003257)
(0.074219 -0.0050287 0.0036559)
(0.08323 -0.0055733 0.0040338)
(0.093184 -0.006095 0.0043887)
(0.10405 -0.0065816 0.0047113)
(0.11575 -0.0069955 0.0049753)
(0.12813 -0.0072734 0.005134)
(0.14091 -0.0073387 0.0051323)
(0.15369 -0.0071253 0.0049226)
(0.16598 -0.0065947 0.0044785)
(0.17724 -0.0057371 0.0037947)
(0.18693 -0.0045586 0.0028776)
(0.19452 -0.0030926 0.00176)
(0.19958 -0.0014424 0.00053673)
(0.20189 0.00026094 -0.0006666)
(0.20102 0.0022323 -0.0020201)
(0.1962 0.0046626 -0.0037885)
(0.1871 0.0070541 -0.0054993)
(0.17404 0.0091143 -0.0069351)
(0.15767 0.01068 -0.0079847)
(0.13879 0.01171 -0.0086312)
(0.11822 0.012248 -0.0089191)
(0.096716 0.012351 -0.0088901)
(0.074966 0.012045 -0.0085567)
(0.053686 0.011291 -0.0078891)
(0.033692 0.010013 -0.0068479)
(0.015927 0.0081676 -0.0053964)
(0.0010937 0.0058027 -0.0035683)
(-0.0097359 0.0033427 -0.0017505)
(-0.0163 0.0013226 -0.00034442)
(-0.01951 -0.00020329 0.00062907)
(-0.019556 -0.0012998 0.001242)
(-0.016987 -0.0020974 0.0017889)
(-0.013127 -0.0023022 0.0018738)
(-0.0092052 -0.0019805 0.0015458)
(-0.0059146 -0.0013832 0.0010886)
(-0.0036852 -0.00075682 0.00059172)
(-0.0022298 -0.00051686 0.00040688)
(-0.0014166 -0.0011757 0.00082809)
(0.0029763 -0.0014856 0.00097634)
(0.037736 -0.00010027 0.00013417)
(0.038168 -0.00032887 0.00044147)
(0.039221 -0.00065674 0.00088294)
(0.04114 -0.0010713 0.0014444)
(0.044059 -0.001523 0.0020645)
(0.048042 -0.0019718 0.0026818)
(0.053067 -0.0024099 0.0032872)
(0.059115 -0.0028391 0.0038829)
(0.066173 -0.0032545 0.0044657)
(0.074218 -0.0036524 0.0050324)
(0.08323 -0.0040288 0.0055783)
(0.093184 -0.0043824 0.0061013)
(0.10405 -0.0047046 0.0065884)
(0.11575 -0.0049684 0.0070026)
(0.12813 -0.0051278 0.0072798)
(0.14091 -0.0051269 0.0073444)
(0.15369 -0.004918 0.0071302)
(0.16598 -0.0044743 0.0065991)
(0.17724 -0.0037909 0.005741)
(0.18693 -0.0028743 0.0045619)
(0.19452 -0.0017576 0.0030952)
(0.19958 -0.00053548 0.0014441)
(0.20189 0.00066661 -0.00026006)
(0.20102 0.0020196 -0.0022322)
(0.1962 0.0037872 -0.0046629)
(0.1871 0.0054978 -0.0070548)
(0.17404 0.0069341 -0.0091151)
(0.15767 0.0079842 -0.010681)
(0.13879 0.0086307 -0.011711)
(0.11822 0.0089182 -0.012249)
(0.096716 0.0088908 -0.012351)
(0.074966 0.0085579 -0.012044)
(0.053685 0.0078913 -0.011289)
(0.033692 0.0068503 -0.010011)
(0.015927 0.005398 -0.0081661)
(0.0010938 0.0035694 -0.0058014)
(-0.0097357 0.0017525 -0.0033412)
(-0.0163 0.00034474 -0.0013221)
(-0.01951 -0.00062874 0.0002044)
(-0.019556 -0.0012409 0.0013015)
(-0.016987 -0.0017873 0.0020996)
(-0.013127 -0.0018715 0.0023059)
(-0.0092054 -0.0015425 0.0019842)
(-0.0059146 -0.0010846 0.0013873)
(-0.0036851 -0.000588 0.0007607)
(-0.0022296 -0.00040397 0.00051987)
(-0.0014162 -0.00082558 0.0011784)
(0.0029769 -0.00097542 0.0014866)
(0.037694 -7.5341e-05 0.00016308)
(0.038112 -0.00024201 0.00054621)
(0.039144 -0.00046697 0.0011253)
(0.041047 -0.00074886 0.0018633)
(0.043962 -0.0010497 0.0026835)
(0.047947 -0.0013524 0.0034924)
(0.052975 -0.001654 0.0042809)
(0.059025 -0.0019476 0.0050597)
(0.066085 -0.0022243 0.0058288)
(0.074134 -0.0024831 0.0065808)
(0.083151 -0.00272 0.0073102)
(0.093112 -0.0029337 0.0080153)
(0.10399 -0.0031204 0.0086795)
(0.11572 -0.0032624 0.0092547)
(0.12813 -0.0033278 0.0096563)
(0.14096 -0.0032774 0.0097851)
(0.15381 -0.0030804 0.0095532)
(0.16616 -0.0027219 0.0089104)
(0.17749 -0.0022042 0.0078436)
(0.18724 -0.0015374 0.0063589)
(0.19489 -0.00075511 0.0044874)
(0.20001 5.1882e-05 0.0023401)
(0.20238 0.00075335 3.9312e-05)
(0.20156 0.001305 -0.0028716)
(0.19674 0.0024952 -0.0061137)
(0.18762 0.0036273 -0.0093155)
(0.1745 0.0045426 -0.012104)
(0.15803 0.0051645 -0.014265)
(0.13905 0.0054937 -0.015739)
(0.11838 0.0055791 -0.016563)
(0.096792 0.0054598 -0.016812)
(0.07496 0.0051456 -0.016529)
(0.053588 0.0046073 -0.01567)
(0.033494 0.0038112 -0.014138)
(0.015635 0.0027397 -0.011868)
(0.00072457 0.001419 -0.0089018)
(-0.010128 0.00025644 -0.005762)
(-0.016665 -0.00058944 -0.0030593)
(-0.019837 -0.00093162 -0.0006992)
(-0.019793 -0.00079388 0.0014597)
(-0.017113 -0.0010614 0.0027493)
(-0.013168 -0.0010761 0.0031409)
(-0.0091422 -0.00078625 0.0028276)
(-0.0057736 -0.00044294 0.0020574)
(-0.0035216 -0.00013291 0.0012898)
(-0.0020869 -4.7004e-05 0.00095625)
(-0.0012798 -0.00038132 0.0017372)
(0.0030618 -0.00062303 0.0018862)
(0.037624 -5.9686e-05 0.00019116)
(0.038002 -0.00017239 0.00065499)
(0.038983 -0.00028071 0.001387)
(0.040853 -0.00043179 0.0023034)
(0.043761 -0.00058718 0.0033134)
(0.04776 -0.0007401 0.0043141)
(0.052797 -0.00088601 0.005299)
(0.058851 -0.0010189 0.0062785)
(0.065916 -0.0011288 0.0072459)
(0.073973 -0.0012166 0.0081873)
(0.083 -0.0012747 0.0090973)
(0.092978 -0.0013011 0.0099765)
(0.10388 -0.0012977 0.010806)
(0.11566 -0.0012544 0.011528)
(0.12815 -0.001158 0.012036)
(0.14108 -0.00098808 0.012201)
(0.15404 -0.00073174 0.011913)
(0.16653 -0.0003832 0.011113)
(0.178 5.4114e-05 0.0097925)
(0.18789 0.00057295 0.0079669)
(0.19567 0.0011557 0.0056721)
(0.20091 0.0017373 0.0030616)
(0.20355 0.0020785 0.00040662)
(0.20281 0.0019327 -0.0029873)
(0.19787 0.0023829 -0.0069228)
(0.18867 0.0027987 -0.010905)
(0.17541 0.0030387 -0.014376)
(0.15875 0.0030733 -0.017052)
(0.13956 0.0029356 -0.01885)
(0.1187 0.0026743 -0.019836)
(0.096918 0.0023179 -0.02012)
(0.074911 0.001877 -0.019743)
(0.053363 0.0013172 -0.018656)
(0.033081 0.00059659 -0.016753)
(0.01503 -0.00029458 -0.013955)
(-4.1824e-05 -0.0013315 -0.010307)
(-0.010934 -0.0022167 -0.0065527)
(-0.017508 -0.0027693 -0.003553)
(-0.02085 -0.0025129 -0.0010575)
(-0.020599 -0.001619 0.0012896)
(-0.01745 -0.0013049 0.0027766)
(-0.013246 -0.0010331 0.0032057)
(-0.0090128 -0.00064405 0.002824)
(-0.0054898 -0.00031207 0.0018533)
(-0.0031746 -1.7688e-05 0.0010073)
(-0.0017293 4.6617e-05 0.0005883)
(-0.00085776 -9.4921e-05 0.0016733)
(0.0033212 -0.00021662 0.0022352)
(0.037521 -5.0551e-08 0.00024561)
(0.037829 -1.2725e-07 0.00086644)
(0.038737 -3.9802e-07 0.001879)
(0.040573 -4.2137e-07 0.0032504)
(0.043469 -3.0183e-07 0.0047358)
(0.047469 1.27e-08 0.0061642)
(0.052509 3.6413e-07 0.0075352)
(0.058567 6.7023e-07 0.0088773)
(0.06564 7.1683e-07 0.010193)
(0.07371 8.1478e-07 0.011456)
(0.082751 9.5514e-07 0.012656)
(0.092748 8.9069e-07 0.013801)
(0.10369 4.4244e-07 0.014875)
(0.11552 2.1592e-07 0.015794)
(0.12812 3.7561e-08 0.016401)
(0.1412 -1.3106e-07 0.016505)
(0.15434 -1.2222e-07 0.015949)
(0.16702 -9.4616e-08 0.014655)
(0.17867 6.4878e-08 0.012616)
(0.18874 4.6357e-07 0.0098217)
(0.19666 1.0349e-06 0.0062442)
(0.20198 1.5287e-06 0.0019966)
(0.20483 1.763e-06 -0.0024327)
(0.20435 2.4632e-06 -0.0069227)
(0.1995 2.6655e-06 -0.012631)
(0.19024 2.1159e-06 -0.01824)
(0.17676 1.5477e-06 -0.022997)
(0.15981 8.7569e-07 -0.026519)
(0.14031 2.0838e-07 -0.028732)
(0.11916 -4.1377e-07 -0.029779)
(0.097119 1.396e-07 -0.029847)
(0.074859 -1.3098e-07 -0.028995)
(0.053054 -7.1795e-08 -0.027142)
(0.032506 -3.5594e-08 -0.024118)
(0.014193 -3.3323e-07 -0.019731)
(-0.0010182 -5.4983e-07 -0.013881)
(-0.011825 -4.4718e-07 -0.0074245)
(-0.018324 -6.8495e-07 -0.0017485)
(-0.02173 -3.8232e-07 0.0021594)
(-0.021402 -1.4884e-06 0.0043959)
(-0.017955 -1.0279e-06 0.0061634)
(-0.013427 -2.1741e-06 0.0064267)
(-0.0088964 -9.6239e-07 0.0053648)
(-0.0051912 -1.1358e-06 0.0035529)
(-0.0027656 -6.2336e-07 0.0020674)
(-0.0012759 -7.0762e-07 0.0012873)
(-0.00040707 -6.8216e-07 0.0027022)
(0.0033063 -3.1899e-07 0.0029728)
(0.037623 -0.0001912 -6.0153e-05)
(0.038001 -0.00065554 -0.00017333)
(0.038982 -0.0013885 -0.0002814)
(0.040853 -0.0023054 -0.00043263)
(0.043762 -0.0033153 -0.0005884)
(0.04776 -0.0043153 -0.00074152)
(0.052799 -0.0052994 -0.00088733)
(0.058853 -0.0062772 -0.0010205)
(0.065917 -0.0072436 -0.0011305)
(0.073975 -0.0081838 -0.0012183)
(0.083002 -0.0090927 -0.0012773)
(0.092978 -0.0099703 -0.0013051)
(0.10388 -0.010801 -0.0012991)
(0.11565 -0.011524 -0.0012543)
(0.12814 -0.012032 -0.0011556)
(0.14107 -0.012197 -0.00098457)
(0.15404 -0.01191 -0.00072803)
(0.16652 -0.01111 -0.00038055)
(0.17799 -0.0097897 5.5743e-05)
(0.18788 -0.0079646 0.000574)
(0.19567 -0.0056699 0.0011559)
(0.20091 -0.0030601 0.0017368)
(0.20354 -0.00040588 0.0020766)
(0.2028 0.0029874 0.0019304)
(0.19786 0.0069227 0.0023809)
(0.18867 0.010906 0.0027975)
(0.1754 0.014379 0.0030367)
(0.15875 0.017055 0.0030718)
(0.13956 0.018853 0.0029353)
(0.11869 0.019839 0.0026736)
(0.096918 0.020122 0.0023178)
(0.074912 0.019745 0.0018762)
(0.053363 0.018658 0.0013168)
(0.033081 0.016755 0.00059671)
(0.015029 0.013956 -0.00029192)
(-3.8965e-05 0.010303 -0.0013244)
(-0.010933 0.0065626 -0.0022195)
(-0.017509 0.0035568 -0.0027655)
(-0.020848 0.0010634 -0.0025097)
(-0.020598 -0.0012849 -0.001616)
(-0.017449 -0.0027726 -0.001301)
(-0.013244 -0.003201 -0.0010296)
(-0.0090121 -0.0028193 -0.00064277)
(-0.0054899 -0.0018492 -0.00031108)
(-0.003176 -0.0010034 -1.859e-05)
(-0.0017308 -0.00058628 4.6943e-05)
(-0.00085958 -0.0016717 -9.5283e-05)
(0.0033194 -0.0022353 -0.00021622)
(0.037745 -0.00015638 -1.686e-07)
(0.038172 -0.00053149 -4.226e-07)
(0.039208 -0.001118 -5.3454e-07)
(0.041113 -0.0018262 -6.8097e-07)
(0.044041 -0.0026208 -7.351e-07)
(0.048048 -0.0034174 -5.8929e-07)
(0.053094 -0.0042077 -3.6051e-07)
(0.05915 -0.0049979 6.7792e-08)
(0.066213 -0.0057802 3.5477e-07)
(0.074273 -0.0065513 9.7791e-07)
(0.083303 -0.00731 1.8124e-06)
(0.093284 -0.0080548 2.2502e-06)
(0.10419 -0.0087695 2.3988e-06)
(0.11594 -0.0094035 2.778e-06)
(0.12839 -0.0098761 3.1182e-06)
(0.14125 -0.010091 3.1433e-06)
(0.15413 -0.0099629 3.0332e-06)
(0.16652 -0.0094401 2.6825e-06)
(0.17789 -0.0085079 2.0147e-06)
(0.1877 -0.0071727 1.2544e-06)
(0.19543 -0.0054636 4.0672e-07)
(0.20067 -0.0034714 -7.9405e-07)
(0.20321 -0.0012692 -2.3848e-06)
(0.20222 0.0018057 -3.0034e-06)
(0.19712 0.0050442 -2.0106e-06)
(0.18793 0.0083055 -1.6266e-06)
(0.17476 0.011216 -1.9013e-07)
(0.15824 0.013554 2.9616e-07)
(0.1392 0.015242 6.2161e-07)
(0.11846 0.016294 4.8789e-07)
(0.096811 0.016767 2.9183e-07)
(0.074936 0.016713 5.6943e-07)
(0.053552 0.016095 7.1425e-07)
(0.033467 0.014835 9.9249e-07)
(0.015616 0.012874 1.0801e-06)
(0.0006487 0.010291 1.4333e-06)
(-0.010351 0.0074503 2.7131e-06)
(-0.017089 0.0049967 2.3037e-06)
(-0.020422 0.0026245 2.5749e-06)
(-0.020211 -8.189e-05 2.6662e-06)
(-0.0173 -0.001604 2.5774e-06)
(-0.013377 -0.0022187 1.9708e-06)
(-0.0094089 -0.0021763 1.7134e-06)
(-0.0060343 -0.0016844 1.3578e-06)
(-0.0036799 -0.00097283 1.0927e-06)
(-0.0021172 -0.00074143 1.0361e-06)
(-0.0012473 -0.0015737 8.2119e-07)
(0.0033027 -0.0018406 3.335e-07)
(0.037822 -0.00013112 3.6221e-05)
(0.038284 -0.00043978 0.00011851)
(0.039366 -0.00089986 0.00023398)
(0.041302 -0.0014644 0.00035201)
(0.044238 -0.0020972 0.00048136)
(0.048235 -0.002732 0.00062207)
(0.053272 -0.0033577 0.00077521)
(0.059325 -0.0039791 0.00093242)
(0.066386 -0.0045946 0.0010811)
(0.074439 -0.0052022 0.001224)
(0.083463 -0.0058002 0.0013609)
(0.093433 -0.0063858 0.0014908)
(0.10431 -0.0069445 0.0016104)
(0.11603 -0.0074363 0.0017126)
(0.12842 -0.0077971 0.001783)
(0.14119 -0.0079513 0.0018046)
(0.15396 -0.0078315 0.0017638)
(0.16623 -0.0073953 0.0016541)
(0.17748 -0.006628 0.0014762)
(0.18717 -0.0055335 0.0012373)
(0.19478 -0.0041364 0.00095673)
(0.19991 -0.0024995 0.00067636)
(0.20224 -0.0006396 0.00045558)
(0.20119 0.0017635 0.00024236)
(0.19618 0.0043245 -0.00033666)
(0.18706 0.0068745 -0.00092444)
(0.17401 0.0091429 -0.0014378)
(0.15767 0.010959 -0.0018366)
(0.1388 0.012259 -0.0021106)
(0.11825 0.013066 -0.0022736)
(0.096758 0.013419 -0.0023452)
(0.075043 0.013339 -0.002326)
(0.053826 0.012794 -0.0022078)
(0.033924 0.01172 -0.0019781)
(0.016255 0.010082 -0.0016414)
(0.0014423 0.007972 -0.0012393)
(-0.0094953 0.0055351 -0.00088409)
(-0.016215 0.003392 -0.00071892)
(-0.019484 0.0014007 -0.0007285)
(-0.019502 -0.0006016 -0.00059131)
(-0.017015 -0.00174 -0.00035882)
(-0.013353 -0.0021421 -0.00021889)
(-0.0095575 -0.0020118 -0.00019658)
(-0.0063289 -0.0016206 -0.00022521)
(-0.0040251 -0.00097792 -0.00026485)
(-0.002427 -0.00076391 -0.00024613)
(-0.0016455 -0.0013861 -2.2224e-05)
(0.0029821 -0.001522 0.00027767)
(0.037866 -0.00010274 6.6687e-05)
(0.03834 -0.00033966 0.00022278)
(0.039441 -0.00068138 0.00045405)
(0.041393 -0.0010919 0.00071982)
(0.044335 -0.0015496 0.0010134)
(0.04833 -0.0020154 0.0013142)
(0.053363 -0.00248 0.0016184)
(0.059413 -0.0029423 0.001924)
(0.066472 -0.0033958 0.0022217)
(0.074523 -0.0038413 0.0025113)
(0.083543 -0.0042775 0.0027925)
(0.093508 -0.0047018 0.0030633)
(0.10438 -0.0051031 0.0033164)
(0.11607 -0.0054526 0.0035339)
(0.12843 -0.0057036 0.0036855)
(0.14116 -0.0058014 0.0037361)
(0.15387 -0.0056973 0.0036548)
(0.16608 -0.0053615 0.0034236)
(0.17727 -0.0047847 0.0030382)
(0.18689 -0.0039723 0.0025047)
(0.19445 -0.0029498 0.0018466)
(0.19952 -0.0017755 0.0011137)
(0.2018 -0.00048774 0.00034198)
(0.20072 0.0010943 -0.00063)
(0.1957 0.0029607 -0.0018556)
(0.1866 0.0048196 -0.0030699)
(0.17362 0.0064636 -0.0041347)
(0.15736 0.0077686 -0.0049709)
(0.13859 0.0086923 -0.0055551)
(0.11811 0.0092574 -0.0059031)
(0.096705 0.0094946 -0.0060382)
(0.075071 0.0094103 -0.005966)
(0.053942 0.0089812 -0.0056732)
(0.034132 0.008168 -0.0051387)
(0.016546 0.0069524 -0.0043503)
(0.0018148 0.0054277 -0.003373)
(-0.0091041 0.0036829 -0.0023229)
(-0.015867 0.0022392 -0.0014878)
(-0.019232 0.001014 -0.00081286)
(-0.019348 -0.0001107 3.1239e-05)
(-0.016923 -0.00089647 0.00059336)
(-0.013346 -0.0011706 0.00078384)
(-0.0096268 -0.0010911 0.00073109)
(-0.0064683 -0.00086007 0.0005992)
(-0.0041809 -0.00042179 0.00032033)
(-0.002541 -0.00031584 0.00024237)
(-0.001743 -0.00082984 0.00052712)
(0.0028969 -0.001111 0.00063487)
(0.037866 -6.6873e-05 0.00010256)
(0.03834 -0.00022321 0.00033925)
(0.039441 -0.00045476 0.00068086)
(0.041393 -0.00072048 0.0010916)
(0.044335 -0.0010139 0.0015494)
(0.04833 -0.0013142 0.0020157)
(0.053363 -0.0016179 0.0024808)
(0.059413 -0.0019228 0.0029439)
(0.066472 -0.0022196 0.0033982)
(0.074523 -0.0025081 0.0038448)
(0.083543 -0.0027882 0.0042822)
(0.093507 -0.0030581 0.0047077)
(0.10438 -0.0033111 0.0051093)
(0.11607 -0.0035288 0.0054588)
(0.12843 -0.003681 0.0057092)
(0.14116 -0.0037322 0.0058063)
(0.15387 -0.0036515 0.0057016)
(0.16608 -0.0034208 0.0053653)
(0.17727 -0.0030357 0.004788)
(0.18689 -0.0025028 0.003975)
(0.19445 -0.0018453 0.0029518)
(0.19952 -0.0011131 0.0017766)
(0.2018 -0.00034195 0.00048805)
(0.20072 0.00063038 -0.001094)
(0.1957 0.0018556 -0.0029609)
(0.1866 0.0030707 -0.0048198)
(0.17362 0.0041356 -0.0064636)
(0.15736 0.0049722 -0.0077685)
(0.13859 0.0055564 -0.0086919)
(0.11811 0.0059043 -0.0092572)
(0.096705 0.0060399 -0.0094936)
(0.075071 0.005968 -0.0094087)
(0.053942 0.0056754 -0.0089791)
(0.034132 0.0051407 -0.0081658)
(0.016546 0.0043517 -0.0069508)
(0.0018148 0.0033738 -0.0054267)
(-0.009104 0.0023251 -0.0036812)
(-0.015867 0.0014889 -0.0022386)
(-0.019233 0.00081378 -0.0010128)
(-0.019348 -3.0189e-05 0.00011204)
(-0.016923 -0.00059225 0.00089791)
(-0.013346 -0.00078235 0.0011729)
(-0.009627 -0.00072976 0.0010932)
(-0.0064682 -0.00059785 0.00086246)
(-0.0041807 -0.00031921 0.00042417)
(-0.0025408 -0.0002416 0.00031758)
(-0.0017429 -0.00052652 0.0008314)
(0.002897 -0.00063482 0.0011114)
(0.037822 -3.643e-05 0.00013091)
(0.038284 -0.00011901 0.00043931)
(0.039366 -0.00023497 0.0008993)
(0.041302 -0.00035317 0.0014641)
(0.044238 -0.00048241 0.0020972)
(0.048235 -0.00062263 0.0027323)
(0.053271 -0.00077501 0.0033584)
(0.059324 -0.00093147 0.0039806)
(0.066385 -0.0010792 0.0045971)
(0.074438 -0.0012211 0.005206)
(0.083462 -0.001357 0.0058055)
(0.093433 -0.0014861 0.0063927)
(0.10431 -0.0016061 0.0069516)
(0.11603 -0.0017088 0.0074433)
(0.12842 -0.0017796 0.007803)
(0.14119 -0.0018017 0.0079563)
(0.15396 -0.0017613 0.0078356)
(0.16623 -0.001652 0.0073989)
(0.17748 -0.0014746 0.0066313)
(0.18717 -0.0012362 0.0055363)
(0.19478 -0.00095603 0.0041384)
(0.19991 -0.00067623 0.0025005)
(0.20224 -0.00045581 0.00063951)
(0.20119 -0.00024195 -0.001764)
(0.19618 0.00033763 -0.0043253)
(0.18705 0.00092627 -0.0068758)
(0.17401 0.0014399 -0.0091431)
(0.15767 0.0018389 -0.010958)
(0.1388 0.0021133 -0.012259)
(0.11825 0.0022771 -0.013065)
(0.096758 0.0023476 -0.013417)
(0.075042 0.0023287 -0.013337)
(0.053826 0.0022099 -0.012791)
(0.033925 0.0019799 -0.011717)
(0.016256 0.0016425 -0.010081)
(0.0014421 0.0012396 -0.007971)
(-0.0094953 0.00088621 -0.0055325)
(-0.016215 0.00072005 -0.0033915)
(-0.019484 0.00073001 -0.0013999)
(-0.019502 0.00059281 0.00060325)
(-0.017016 0.00036007 0.0017414)
(-0.013353 0.00021974 0.0021444)
(-0.0095572 0.00019704 0.0020149)
(-0.006329 0.00022528 0.001624)
(-0.004025 0.00026505 0.00098104)
(-0.0024267 0.00024579 0.00076606)
(-0.0016449 2.1946e-05 0.0013879)
(0.0029829 -0.00027821 0.0015226)
(0.037746 -7.8221e-09 0.00015619)
(0.038173 -8.7414e-08 0.00053103)
(0.039208 -3.7025e-07 0.0011172)
(0.041112 -3.0584e-07 0.0018254)
(0.044041 -1.4875e-08 0.0026202)
(0.048048 4.1994e-07 0.0034172)
(0.053093 9.1811e-07 0.0042081)
(0.059148 1.3356e-06 0.0049994)
(0.066212 1.4365e-06 0.0057827)
(0.074271 1.6913e-06 0.0065553)
(0.083301 2.0308e-06 0.0073163)
(0.093283 2.2289e-06 0.0080633)
(0.10419 1.6092e-06 0.008777)
(0.11594 1.0595e-06 0.0094107)
(0.12839 5.0457e-07 0.0098815)
(0.14125 1.3538e-08 0.010095)
(0.15413 -3.436e-07 0.0099661)
(0.16652 -5.1535e-07 0.0094434)
(0.1779 -4.0439e-07 0.008511)
(0.1877 9.1723e-09 0.0071753)
(0.19543 6.9521e-07 0.0054654)
(0.20068 1.3141e-06 0.0034717)
(0.20321 1.3878e-06 0.0012673)
(0.20222 2.0022e-06 -0.001808)
(0.19712 2.6979e-06 -0.0050462)
(0.18793 1.8041e-06 -0.0083067)
(0.17476 1.3895e-06 -0.011216)
(0.15824 9.4354e-07 -0.013553)
(0.1392 7.8262e-07 -0.01524)
(0.11846 6.0327e-07 -0.016291)
(0.09681 1.5075e-06 -0.016766)
(0.074936 6.3834e-07 -0.01671)
(0.053552 4.1528e-07 -0.016092)
(0.033468 1.6685e-07 -0.014831)
(0.015617 -2.8623e-07 -0.012873)
(0.00064808 -9.5075e-07 -0.010292)
(-0.010351 -1.0513e-06 -0.0074452)
(-0.017088 -1.5471e-06 -0.004997)
(-0.020423 -1.9253e-06 -0.0026238)
(-0.020212 -1.9112e-06 8.337e-05)
(-0.0173 -1.9575e-06 0.0016055)
(-0.013377 -3.5337e-06 0.0022208)
(-0.0094092 -1.1023e-06 0.002179)
(-0.0060341 -6.7509e-07 0.0016874)
(-0.0036791 -6.9794e-07 0.00097579)
(-0.0021165 -9.8406e-07 0.00074332)
(-0.0012465 -9.5944e-07 0.0015757)
(0.0033035 -5.7992e-07 0.0018413)
(0.037624 5.9643e-05 0.00019118)
(0.038002 0.00017222 0.00065511)
(0.038983 0.0002801 0.0013872)
(0.040853 0.00043121 0.0023037)
(0.043761 0.00058705 0.0033137)
(0.047759 0.00074073 0.0043142)
(0.052797 0.00088727 0.0052989)
(0.058851 0.0010212 0.006278)
(0.065915 0.0011315 0.0072454)
(0.073972 0.0012199 0.0081865)
(0.082999 0.0012785 0.0090966)
(0.092977 0.0013048 0.0099759)
(0.10388 0.0013005 0.010805)
(0.11565 0.0012558 0.011528)
(0.12814 0.0011587 0.012035)
(0.14108 0.00098814 0.0122)
(0.15404 0.00073148 0.011912)
(0.16653 0.00038279 0.011112)
(0.17799 -5.4319e-05 0.0097917)
(0.18789 -0.00057251 0.007966)
(0.19567 -0.0011542 0.0056713)
(0.20091 -0.0017347 0.0030611)
(0.20354 -0.0020753 0.00040607)
(0.2028 -0.0019278 -0.0029878)
(0.19786 -0.0023779 -0.0069231)
(0.18867 -0.0027941 -0.010906)
(0.1754 -0.0030353 -0.014377)
(0.15875 -0.0030707 -0.017052)
(0.13956 -0.002934 -0.01885)
(0.11869 -0.0026721 -0.019837)
(0.096917 -0.002316 -0.02012)
(0.074911 -0.0018747 -0.019745)
(0.053363 -0.0013156 -0.018657)
(0.033082 -0.00059616 -0.016755)
(0.015031 0.00029389 -0.013957)
(-4.0628e-05 0.0013298 -0.010309)
(-0.010933 0.0022146 -0.006556)
(-0.017507 0.0027673 -0.0035557)
(-0.020849 0.0025103 -0.0010605)
(-0.020599 0.0016162 0.0012866)
(-0.017449 0.0013022 0.0027732)
(-0.013245 0.00103 0.0032019)
(-0.0090127 0.00064192 0.0028206)
(-0.00549 0.00031012 0.0018505)
(-0.0031753 1.687e-05 0.0010052)
(-0.00173 -4.7825e-05 0.00058723)
(-0.00085846 9.3743e-05 0.0016731)
(0.003321 0.00021605 0.0022353)
(0.037693 -0.00016331 -7.543e-05)
(0.038112 -0.0005468 -0.00024243)
(0.039144 -0.0011262 -0.00046777)
(0.041047 -0.0018643 -0.00074994)
(0.043962 -0.0026845 -0.0010513)
(0.047947 -0.0034929 -0.0013541)
(0.052975 -0.0042808 -0.0016551)
(0.059026 -0.0050585 -0.0019493)
(0.066086 -0.0058267 -0.0022259)
(0.074135 -0.0065773 -0.0024848)
(0.083152 -0.0073051 -0.0027223)
(0.093112 -0.008009 -0.0029365)
(0.10399 -0.0086735 -0.0031218)
(0.11571 -0.0092487 -0.0032623)
(0.12813 -0.0096512 -0.0033259)
(0.14096 -0.0097808 -0.0032747)
(0.1538 -0.0095496 -0.0030776)
(0.16615 -0.0089069 -0.00272)
(0.17748 -0.0078404 -0.0022031)
(0.18723 -0.0063563 -0.0015371)
(0.19488 -0.0044855 -0.00075572)
(0.2 -0.0023393 5.0569e-05)
(0.20237 -4.0045e-05 0.00075129)
(0.20155 0.0028708 0.0013036)
(0.19674 0.0061129 0.0024943)
(0.18761 0.0093161 0.0036273)
(0.17449 0.012105 0.0045406)
(0.15803 0.014267 0.0051636)
(0.13905 0.015742 0.0054926)
(0.11838 0.016566 0.0055781)
(0.096791 0.016815 0.00546)
(0.07496 0.016532 0.0051444)
(0.053588 0.015673 0.0046061)
(0.033494 0.014142 0.0038105)
(0.015635 0.011871 0.0027409)
(0.00072657 0.0089035 0.001422)
(-0.010127 0.0057678 0.00025619)
(-0.016665 0.0030623 -0.00058602)
(-0.019836 0.00070191 -0.00092857)
(-0.019792 -0.0014561 -0.00079137)
(-0.017111 -0.0027455 -0.0010588)
(-0.013167 -0.0031363 -0.0010746)
(-0.0091416 -0.0028228 -0.00078493)
(-0.0057739 -0.0020521 -0.0004423)
(-0.0035234 -0.0012853 -0.0001336)
(-0.0020889 -0.00095333 -4.8029e-05)
(-0.0012818 -0.0017349 -0.00038231)
(0.0030601 -0.0018858 -0.00062347)
(0.037822 -0.00013114 -3.6519e-05)
(0.038284 -0.0004398 -0.00011928)
(0.039366 -0.00089985 -0.0002352)
(0.041302 -0.0014644 -0.00035344)
(0.044238 -0.0020974 -0.0004829)
(0.048235 -0.0027321 -0.00062344)
(0.053272 -0.0033574 -0.00077581)
(0.059325 -0.0039792 -0.00093255)
(0.066386 -0.0045946 -0.0010803)
(0.074439 -0.0052022 -0.001222)
(0.083462 -0.0058 -0.0013575)
(0.093432 -0.0063856 -0.0014863)
(0.10431 -0.0069446 -0.0016054)
(0.11603 -0.0074363 -0.0017069)
(0.12841 -0.007797 -0.0017766)
(0.14119 -0.0079512 -0.0017981)
(0.15396 -0.0078313 -0.0017577)
(0.16623 -0.007395 -0.0016488)
(0.17748 -0.0066278 -0.0014721)
(0.18716 -0.0055334 -0.0012347)
(0.19478 -0.0041363 -0.00095584)
(0.1999 -0.0024996 -0.0006776)
(0.20223 -0.00064005 -0.00045906)
(0.20118 0.0017639 -0.0002466)
(0.19618 0.0043254 0.00033368)
(0.18705 0.006876 0.00092302)
(0.17401 0.0091436 0.0014376)
(0.15766 0.010959 0.0018372)
(0.1388 0.01226 0.0021121)
(0.11824 0.013067 0.0022759)
(0.096757 0.01342 0.0023472)
(0.075042 0.01334 0.002328)
(0.053826 0.012796 0.0022099)
(0.033925 0.011722 0.0019807)
(0.016257 0.010084 0.0016442)
(0.0014439 0.0079736 0.0012425)
(-0.0094939 0.005538 0.00088956)
(-0.016214 0.003394 0.00072347)
(-0.019482 0.0014028 0.00073385)
(-0.019501 -0.00059934 0.00059658)
(-0.017014 -0.0017378 0.00036417)
(-0.013352 -0.0021399 0.00022373)
(-0.0095568 -0.0020096 0.00020043)
(-0.0063288 -0.0016183 0.00022856)
(-0.0040257 -0.0009763 0.00026748)
(-0.0024279 -0.00076271 0.0002477)
(-0.0016457 -0.0013854 2.3175e-05)
(0.0029825 -0.0015218 -0.00027738)
(0.037904 -0.00010088 -1.3916e-07)
(0.038397 -0.00033549 -3.7508e-07)
(0.039518 -0.00067708 -6.2361e-07)
(0.04148 -0.0011024 -7.0199e-07)
(0.044424 -0.0015789 -6.5409e-07)
(0.048416 -0.0020547 -6.3128e-07)
(0.053447 -0.0025192 -4.9325e-07)
(0.059496 -0.0029803 -8.4548e-08)
(0.066552 -0.0034395 4.418e-07)
(0.074597 -0.0038936 1.0287e-06)
(0.083611 -0.0043406 1.6798e-06)
(0.093567 -0.0047777 2.1859e-06)
(0.10442 -0.0051931 2.5849e-06)
(0.1161 -0.0055565 2.9496e-06)
(0.12842 -0.0058207 3.2231e-06)
(0.1411 -0.0059299 3.2514e-06)
(0.15376 -0.0058338 3.0829e-06)
(0.16592 -0.0054999 2.7044e-06)
(0.17705 -0.0049156 2.142e-06)
(0.18662 -0.0040826 1.4269e-06)
(0.19413 -0.0030181 5.9232e-07)
(0.19917 -0.0017599 -3.6317e-07)
(0.20136 -0.00030015 -1.2631e-06)
(0.20022 0.0015448 -2.0675e-06)
(0.19523 0.003457 -1.3808e-06)
(0.18618 0.0053459 -1.6188e-06)
(0.17328 0.0070247 -5.0979e-08)
(0.1571 0.008371 3.7574e-07)
(0.13842 0.0093386 8.3688e-07)
(0.11804 0.0099387 1.2328e-06)
(0.096712 0.010202 1.0289e-06)
(0.07516 0.010129 1.2396e-06)
(0.054113 0.0097005 1.2413e-06)
(0.034386 0.0088726 1.3739e-06)
(0.016872 0.0076235 1.4918e-06)
(0.0021984 0.006053 1.8789e-06)
(-0.0087202 0.0041267 2.5528e-06)
(-0.015502 0.0024361 2.4096e-06)
(-0.018728 0.0008899 2.9303e-06)
(-0.018883 -0.00066712 2.7719e-06)
(-0.016721 -0.0015138 2.7136e-06)
(-0.013297 -0.0017365 2.6577e-06)