/*--------------------------------*- C++ -*----------------------------------*\
| =========                 |                                                 |
| \\      /  F ield         | OpenFOAM: The Open Source CFD Toolbox           |
|  \\    /   O peration     | Version:  4.1                                   |
|   \\  /    A nd           | Web:      www.OpenFOAM.org                      |
|    \\/     M anipulation  |                                                 |
\*---------------------------------------------------------------------------*/
FoamFile
{
    version     2.0;
    format      ascii;
    class       surfaceVectorField;
    location    "0.0067";
    object      Uf;
}
// * * * * * * * * * * * * * * * * * * * * * * * * * * * * * * * * * * * * * //

dimensions      [0 1 -1 0 0 0 0];

internalField   nonuniform List<vector> 
17536
(
(0.037623 -0.00055703 -1.6204e-07)
(0.037572 -0.00020423 4.4298e-05)
(0.037572 -0.00020416 -4.4587e-05)
(0.037411 -0.00019179 -4.7299e-06)
(0.037411 -0.00019168 4.638e-06)
(0.038065 -0.0013748 -2.7906e-07)
(0.037915 -0.00071751 0.00013044)
(0.037915 -0.00071742 -0.00013115)
(0.037675 -0.00074021 -2.1423e-05)
(0.037675 -0.00074029 2.0784e-05)
(0.039384 -0.0025678 -4.1825e-07)
(0.03886 -0.001551 0.0002241)
(0.03886 -0.0015509 -0.00022504)
(0.038508 -0.0017604 -3.9154e-05)
(0.038508 -0.0017599 3.8881e-05)
(0.041735 -0.0039966 -6.157e-07)
(0.040713 -0.0026753 0.0003198)
(0.040713 -0.0026751 -0.0003211)
(0.040292 -0.0031485 -9.026e-05)
(0.040292 -0.0031481 8.9528e-05)
(0.045229 -0.0054532 -6.0118e-07)
(0.043616 -0.003907 0.00041351)
(0.043616 -0.0039068 -0.00041513)
(0.043189 -0.0046651 -0.00012638)
(0.043189 -0.004665 0.00012499)
(0.049773 -0.0068521 -4.033e-07)
(0.047615 -0.0051021 0.00050916)
(0.047615 -0.005102 -0.00051042)
(0.047213 -0.0061069 -0.00015324)
(0.047213 -0.006107 0.00015197)
(0.055328 -0.0082076 -2.363e-07)
(0.052654 -0.0062554 0.00060617)
(0.052654 -0.0062555 -0.00060681)
(0.052273 -0.007493 -0.0001777)
(0.052273 -0.0074934 0.00017644)
(0.061902 -0.0095353 -1.0382e-07)
(0.05871 -0.0073895 0.00069865)
(0.05871 -0.0073894 -0.00069896)
(0.058346 -0.0088667 -0.00020235)
(0.058346 -0.0088678 0.0002008)
(0.069489 -0.010824 1.6931e-07)
(0.065779 -0.0085093 0.0007746)
(0.065779 -0.0085094 -0.00077444)
(0.065438 -0.010238 -0.00022137)
(0.065438 -0.010239 0.00022019)
(0.07806 -0.012056 7.2825e-07)
(0.073843 -0.0096021 0.00082799)
(0.073843 -0.0096024 -0.00082667)
(0.073534 -0.011586 -0.00022967)
(0.073534 -0.011588 0.00022907)
(0.087589 -0.013229 1.2166e-06)
(0.082878 -0.010665 0.00085035)
(0.082878 -0.010666 -0.00084747)
(0.082606 -0.012916 -0.00022372)
(0.082606 -0.012918 0.00022399)
(0.098066 -0.014339 1.5834e-06)
(0.092863 -0.011704 0.00083815)
(0.092863 -0.011705 -0.0008345)
(0.092636 -0.014242 -0.00020622)
(0.092636 -0.014245 0.00020648)
(0.10948 -0.015334 1.9782e-06)
(0.10378 -0.012702 0.00079022)
(0.10378 -0.012702 -0.00078606)
(0.10362 -0.015552 -0.00017316)
(0.10362 -0.015549 0.00018041)
(0.12175 -0.016096 2.3146e-06)
(0.11559 -0.013584 0.00070646)
(0.11559 -0.013584 -0.00070142)
(0.11554 -0.016749 -0.00013638)
(0.11554 -0.016748 0.0001427)
(0.13468 -0.016451 2.482e-06)
(0.12813 -0.014222 0.0005757)
(0.12813 -0.014222 -0.00056996)
(0.12826 -0.017675 -8.6452e-05)
(0.12826 -0.017677 9.012e-05)
(0.14792 -0.016225 2.4447e-06)
(0.14114 -0.014464 0.00038249)
(0.14114 -0.014465 -0.00037668)
(0.14151 -0.01814 -1.166e-05)
(0.14151 -0.018141 1.6496e-05)
(0.16096 -0.0153 2.2543e-06)
(0.15419 -0.014175 0.00012084)
(0.15419 -0.014175 -0.00011533)
(0.15484 -0.017967 8.5015e-05)
(0.15484 -0.017968 -8.1055e-05)
(0.17326 -0.013634 1.8785e-06)
(0.16677 -0.013278 -0.00020474)
(0.16677 -0.013278 0.00020954)
(0.16773 -0.017063 0.00019741)
(0.16773 -0.017065 -0.00019477)
(0.18424 -0.011218 1.3544e-06)
(0.17833 -0.011754 -0.00058102)
(0.17833 -0.011754 0.0005846)
(0.1796 -0.015405 0.00031424)
(0.1796 -0.015406 -0.00031177)
(0.19335 -0.0080313 7.1979e-07)
(0.18832 -0.0095955 -0.00099377)
(0.18831 -0.0095952 0.00099597)
(0.18989 -0.012978 0.00042938)
(0.18989 -0.012978 -0.00042684)
(0.20004 -0.0041177 -1.9835e-07)
(0.19617 -0.0067946 -0.0014232)
(0.19616 -0.0067943 0.0014238)
(0.19803 -0.0097339 0.00055905)
(0.19803 -0.0097332 -0.0005576)
(0.20396 0.00022319 -1.4756e-06)
(0.20145 -0.0034411 -0.0017927)
(0.20145 -0.0034407 0.001791)
(0.2035 -0.0056987 0.00076558)
(0.2035 -0.0056958 -0.00076442)
(0.20567 0.0046849 -1.9875e-06)
(0.20419 0.00032341 -0.0017425)
(0.20419 0.00032379 0.0017374)
(0.2063 -0.0010031 0.00095806)
(0.2063 -0.0010001 -0.00096028)
(0.20291 0.0097846 -1.6882e-06)
(0.20358 0.0047348 -0.0011955)
(0.20358 0.0047362 0.0011898)
(0.20589 0.0047768 0.00039041)
(0.20589 0.0047748 -0.00039678)
(0.19585 0.015443 -9.4218e-07)
(0.19868 0.0094239 -0.001554)
(0.19868 0.0094243 0.0015502)
(0.20114 0.010698 0.00066155)
(0.20114 0.010698 -0.00066506)
(0.18426 0.020626 -2.9045e-07)
(0.18946 0.014172 -0.0018091)
(0.18945 0.014173 0.0018068)
(0.19171 0.016675 0.00075181)
(0.19171 0.016674 -0.00075537)
(0.16878 0.024764 -7.3865e-08)
(0.17608 0.018321 -0.0018927)
(0.17608 0.018321 0.0018919)
(0.17795 0.021935 0.0007576)
(0.17795 0.021936 -0.00075737)
(0.15028 0.02763 1.4443e-07)
(0.15928 0.021533 -0.0017948)
(0.15928 0.021534 0.0017948)
(0.16068 0.02608 0.00067519)
(0.16068 0.026081 -0.00067434)
(0.12972 0.029259 -5.0091e-08)
(0.13994 0.023713 -0.0015503)
(0.13994 0.023713 0.0015511)
(0.14087 0.028977 0.00053075)
(0.14087 0.028979 -0.00052866)
(0.10794 0.029816 -7.615e-08)
(0.11893 0.024936 -0.0012114)
(0.11893 0.024937 0.0012114)
(0.11945 0.030718 0.00035208)
(0.11945 0.030721 -0.00035023)
(0.085625 0.029422 1.2606e-07)
(0.097021 0.025327 -0.00081608)
(0.097021 0.025328 0.00081672)
(0.09718 0.031462 0.0001652)
(0.09718 0.031463 -0.00016377)
(0.063419 0.028067 2.4162e-07)
(0.074889 0.024934 -0.00037188)
(0.074889 0.024935 0.00037239)
(0.074695 0.031276 -1.9988e-05)
(0.074695 0.031277 2.1138e-05)
(0.042034 0.025627 4.2405e-07)
(0.053213 0.023699 0.00014393)
(0.053213 0.0237 -0.00014308)
(0.052644 0.030099 -0.00020838)
(0.052644 0.0301 0.00020988)
(0.022382 0.021921 5.3214e-07)
(0.032797 0.021482 0.00075111)
(0.032798 0.021484 -0.00074986)
(0.031817 0.027756 -0.00040241)
(0.031817 0.027755 0.00040276)
(0.0055983 0.016802 5.6483e-07)
(0.014614 0.018129 0.0014342)
(0.014615 0.018131 -0.0014329)
(0.013195 0.024013 -0.00059453)
(0.013195 0.024014 0.00059666)
(-0.0070478 0.01065 1.6555e-06)
(-0.00052168 0.013572 0.0021437)
(-0.00052095 0.013573 -0.0021422)
(-0.0022592 0.018685 -0.00079739)
(-0.0022586 0.01871 0.00082372)
(-0.015125 0.004588 1.9782e-06)
(-0.011375 0.0085532 0.0026706)
(-0.011374 0.0085541 -0.002666)
(-0.013092 0.012525 -0.0011531)
(-0.013092 0.012482 0.0011146)
(-0.019939 -0.00020026 1.1926e-06)
(-0.017918 0.0039462 0.0026748)
(-0.017917 0.003947 -0.0026718)
(-0.019261 0.0065243 -0.0015266)
(-0.019261 0.0065271 0.0015312)
(-0.021686 -0.0032731 1.4404e-06)
(-0.021289 2.1416e-05 0.0018235)
(-0.021288 2.1957e-05 -0.0018201)
(-0.022128 0.00114 -0.0012232)
(-0.022128 0.0011377 0.0012228)
(-0.018855 -0.005277 1.7465e-06)
(-0.021001 -0.0028136 0.00083713)
(-0.021 -0.0028128 -0.00083341)
(-0.021537 -0.0031205 -0.00029425)
(-0.021537 -0.0031209 0.00029669)
(-0.014704 -0.0062937 1.6769e-06)
(-0.017702 -0.0045338 0.000588)
(-0.017702 -0.0045326 -0.00058426)
(-0.017965 -0.0054791 -0.00028899)
(-0.017965 -0.0054791 0.00029196)
(-0.01011 -0.0058956 1.2899e-06)
(-0.013335 -0.0050072 0.00032487)
(-0.013335 -0.005007 -0.00032065)
(-0.013177 -0.0062433 -0.00018357)
(-0.013177 -0.0062436 0.00018621)
(-0.0061792 -0.0044596 9.7593e-07)
(-0.0089538 -0.0044051 1.1772e-05)
(-0.0089535 -0.0044039 -9.0869e-06)
(-0.0084319 -0.0056137 -4.3075e-05)
(-0.008432 -0.0056139 4.4939e-05)
(-0.0034188 -0.0028112 7.1307e-07)
(-0.00534 -0.003091 -0.00023068)
(-0.00534 -0.0030897 0.00023311)
(-0.0046039 -0.0040846 6.3599e-05)
(-0.0046039 -0.0040855 -6.2643e-05)
(-0.0017648 -0.0016784 4.6924e-07)
(-0.0029709 -0.0019066 -0.00035926)
(-0.0029711 -0.0019055 0.00036079)
(-0.0020722 -0.0026665 9.4573e-05)
(-0.0020723 -0.0026671 -9.4157e-05)
(-0.00078439 -0.0019958 5.1575e-07)
(-0.0015035 -0.0012502 -0.00033443)
(-0.0015039 -0.0012493 0.0003357)
(-0.00051271 -0.0018043 7.5449e-05)
(-0.00051268 -0.0018034 -7.3815e-05)
(0.0011267 -0.0028382 3.5909e-07)
(-0.00063385 -0.0024784 -0.00024222)
(-0.00063425 -0.0024781 0.00024346)
(0.00029925 -0.0031936 0.00010322)
(0.00029935 -0.0031912 -9.9819e-05)
(0.0033117 -0.002722 -9.3162e-06)
(0.0033116 -0.0027221 9.7447e-06)
(0.0036998 -0.0032534 6.8709e-05)
(0.0036998 -0.0032534 -6.853e-05)
(0.037741 -0.00042339 0.0001162)
(0.037658 -0.00018157 6.3248e-05)
(0.037684 -0.00016402 2.0066e-05)
(0.037531 -0.00017819 4.97e-05)
(0.038291 -0.0010221 0.00022639)
(0.038057 -0.00061061 0.00019777)
(0.038087 -0.00056744 5.997e-05)
(0.037881 -0.00064293 0.0001396)
(0.039661 -0.001847 0.00035575)
(0.039063 -0.0012572 0.00037372)
(0.039095 -0.0012119 9.8467e-05)
(0.038814 -0.0014496 0.00023746)
(0.042031 -0.0028105 0.000509)
(0.040951 -0.0020805 0.00059432)
(0.040983 -0.0020227 0.00017212)
(0.040652 -0.0024355 0.00030913)
(0.04552 -0.0038154 0.00066345)
(0.043862 -0.0029924 0.00082555)
(0.043901 -0.0029292 0.0002541)
(0.04356 -0.0035404 0.0004064)
(0.050061 -0.0048072 0.00081344)
(0.047854 -0.003896 0.0010545)
(0.047904 -0.0038262 0.00032955)
(0.047572 -0.0046185 0.00050852)
(0.055615 -0.005788 0.0009535)
(0.052887 -0.0047799 0.0012807)
(0.052946 -0.0047044 0.00039415)
(0.052625 -0.0056734 0.0006091)
(0.062184 -0.0067601 0.0010756)
(0.058939 -0.0056513 0.0015011)
(0.059001 -0.0055777 0.00045034)
(0.058693 -0.0067308 0.00070519)
(0.069758 -0.0077133 0.0011755)
(0.066002 -0.0065086 0.001705)
(0.066065 -0.0064508 0.00050476)
(0.065775 -0.0077913 0.0007932)
(0.078316 -0.0086377 0.0012501)
(0.074055 -0.0073454 0.0018882)
(0.074124 -0.0073151 0.00055831)
(0.073857 -0.008841 0.00087588)
(0.08783 -0.0095309 0.0012947)
(0.083077 -0.0081556 0.0020459)
(0.083153 -0.0081698 0.00060985)
(0.082915 -0.0098766 0.00094622)
(0.098285 -0.010385 0.0013063)
(0.093046 -0.0089381 0.0021761)
(0.093132 -0.0090145 0.00065807)
(0.092927 -0.010901 0.00099742)
(0.10965 -0.011162 0.0012815)
(0.10394 -0.0096772 0.0022751)
(0.10403 -0.0098326 0.00070057)
(0.10388 -0.011897 0.0010248)
(0.12184 -0.011777 0.0012106)
(0.11568 -0.010317 0.0023327)
(0.1158 -0.010565 0.00073287)
(0.11572 -0.012796 0.0010225)
(0.13464 -0.012114 0.0010761)
(0.12814 -0.010765 0.0023238)
(0.12827 -0.011119 0.00074745)
(0.12832 -0.013482 0.00098322)
(0.14771 -0.012054 0.0008622)
(0.14102 -0.010907 0.0022183)
(0.14117 -0.011383 0.00073541)
(0.14139 -0.013812 0.0008959)
(0.16057 -0.01151 0.00055962)
(0.15392 -0.010644 0.0019942)
(0.15409 -0.011256 0.00068843)
(0.15451 -0.013662 0.0007517)
(0.17267 -0.01045 0.00016674)
(0.16634 -0.0099207 0.0016433)
(0.16653 -0.010679 0.00059804)
(0.16717 -0.012959 0.00054078)
(0.18347 -0.0088782 -0.00031181)
(0.17774 -0.0087222 0.001171)
(0.17795 -0.0096316 0.00045731)
(0.17881 -0.011687 0.00025763)
(0.19242 -0.0068185 -0.00086341)
(0.18756 -0.007056 0.00058921)
(0.1878 -0.0081167 0.00026214)
(0.18887 -0.0098553 -8.9957e-05)
(0.199 -0.0043664 -0.0014469)
(0.19528 -0.0049504 -7.0996e-05)
(0.19555 -0.0061571 1.2042e-05)
(0.19679 -0.0074829 -0.0004613)
(0.20286 -0.0017339 -0.0019101)
(0.20046 -0.0025273 -0.00072164)
(0.20079 -0.003844 -0.00029235)
(0.20207 -0.0046802 -0.00074036)
(0.2042 0.0012905 -0.0020087)
(0.20297 6.6416e-06 -0.0011877)
(0.20338 -0.0012387 -0.000641)
(0.20468 -0.0017996 -0.0006178)
(0.20128 0.0049553 -0.0021603)
(0.20218 0.0030585 -0.001491)
(0.20252 0.0023339 -0.00090602)
(0.20403 0.0023434 -0.00073673)
(0.1942 0.0089153 -0.0025921)
(0.19731 0.0066252 -0.0023328)
(0.19749 0.0059186 -0.0011281)
(0.19918 0.0067717 -0.0010788)
(0.18277 0.012643 -0.0029186)
(0.18815 0.010188 -0.003136)
(0.1883 0.0095701 -0.0013645)
(0.18988 0.011263 -0.0014206)
(0.16755 0.015717 -0.0030548)
(0.17495 0.013285 -0.0037459)
(0.17508 0.012837 -0.0015585)
(0.1764 0.015232 -0.0016525)
(0.14937 0.017954 -0.0030031)
(0.15839 0.015673 -0.0041049)
(0.1585 0.015464 -0.0016951)
(0.1595 0.018386 -0.001775)
(0.12911 0.019346 -0.0028032)
(0.13931 0.017281 -0.0042288)
(0.13938 0.017355 -0.0017744)
(0.14007 0.020625 -0.0018053)
(0.1076 0.01998 -0.0024941)
(0.11854 0.018172 -0.0041549)
(0.11858 0.018529 -0.001798)
(0.11899 0.021998 -0.0017598)
(0.08554 0.019932 -0.0020955)
(0.096856 0.018441 -0.0039138)
(0.096868 0.019051 -0.0017639)
(0.097034 0.022612 -0.001645)
(0.063584 0.0192 -0.0015949)
(0.074936 0.018112 -0.003535)
(0.074928 0.018966 -0.0016747)
(0.074847 0.022514 -0.0014573)
(0.042463 0.017704 -0.00095469)
(0.053475 0.017132 -0.0029928)
(0.053462 0.018238 -0.0015185)
(0.053104 0.02165 -0.0011684)
(0.023085 0.015352 -0.00014993)
(0.033287 0.015396 -0.002253)
(0.033278 0.016773 -0.0012749)
(0.032612 0.019893 -0.00074167)
(0.0065527 0.012126 0.00081055)
(0.015331 0.012826 -0.0013074)
(0.015327 0.014487 -0.0009248)
(0.014354 0.017126 -0.00017764)
(-0.0057463 0.0084307 0.0017753)
(0.00034185 0.0094653 -0.00018282)
(0.00030768 0.011418 -0.0004581)
(-0.00080469 0.013317 0.00049592)
(-0.014231 0.005058 0.0024964)
(-0.010532 0.0059105 0.00073255)
(-0.01064 0.008037 8.2617e-05)
(-0.011579 0.0092844 0.00082873)
(-0.019126 0.0023084 0.0026412)
(-0.017088 0.0029468 0.0013186)
(-0.017299 0.0050703 0.00059144)
(-0.017876 0.0058039 0.00075173)
(-0.020924 -0.00011225 0.0020668)
(-0.020343 0.00044672 0.0012887)
(-0.020636 0.0022386 0.00086272)
(-0.0209 0.0026939 0.00035185)
(-0.018535 -0.0020304 0.0014626)
(-0.020196 -0.0015193 0.0010606)
(-0.020405 -0.00071085 0.00083794)
(-0.020514 -0.00095829 0.00049972)
(-0.014573 -0.0029888 0.0011692)
(-0.017281 -0.002878 0.0010673)
(-0.017374 -0.0023732 0.00083779)
(-0.01729 -0.0029382 0.00050631)
(-0.010148 -0.0030126 0.00083947)
(-0.013206 -0.0032637 0.00096328)
(-0.01331 -0.002981 0.00078769)
(-0.012917 -0.0036031 0.00042997)
(-0.0063645 -0.0023371 0.00047981)
(-0.0090772 -0.0029028 0.00063763)
(-0.0092104 -0.0028121 0.00063664)
(-0.0085397 -0.0033327 0.00025192)
(-0.0037656 -0.001429 0.0001672)
(-0.0056317 -0.0020016 0.00033107)
(-0.0057618 -0.002096 0.00048537)
(-0.0049181 -0.0023933 9.2411e-05)
(-0.0021569 -0.00079701 -1.2463e-05)
(-0.0033488 -0.0011743 5.0102e-05)
(-0.0034275 -0.0012754 0.00029687)
(-0.0024957 -0.0014565 -6.2884e-05)
(-0.0011754 -0.0011303 2.5456e-05)
(-0.0019087 -0.00077821 -5.0968e-06)
(-0.0019236 -0.00089603 0.00020905)
(-0.00099588 -0.00095465 -6.301e-05)
(0.00092154 -0.001954 0.00015649)
(-0.0010698 -0.0017269 0.00021682)
(-0.0010531 -0.0018551 0.00028062)
(-0.00025469 -0.0020843 9.7433e-05)
(0.0031898 -0.0020989 0.00038169)
(0.0033111 -0.0021496 0.0002201)
(0.0036401 -0.0024793 0.00022329)
(0.037818 -0.00035509 0.00015848)
(0.037714 -0.00014928 8.7229e-05)
(0.037758 -0.00014031 4.8795e-05)
(0.037612 -0.00016141 7.2394e-05)
(0.038433 -0.0008366 0.00035414)
(0.03814 -0.00049565 0.00028392)
(0.038198 -0.00047687 0.00016368)
(0.038002 -0.00056341 0.00024365)
(0.039848 -0.0014954 0.00060749)
(0.039182 -0.0010079 0.00055849)
(0.039255 -0.00099793 0.00033508)
(0.038987 -0.0012298 0.00051632)
(0.042238 -0.0022743 0.00089892)
(0.041094 -0.0016554 0.00090905)
(0.041175 -0.0016452 0.00053108)
(0.040857 -0.002048 0.0008194)
(0.045714 -0.0030884 0.0012009)
(0.044011 -0.0023733 0.0012875)
(0.0441 -0.0023706 0.00074533)
(0.04377 -0.0029614 0.001156)
(0.050239 -0.0038867 0.0015034)
(0.047995 -0.0030861 0.0016635)
(0.048091 -0.00309 0.00096488)
(0.04777 -0.0038563 0.0014935)
(0.055788 -0.0046695 0.0018015)
(0.053021 -0.003784 0.0020323)
(0.053124 -0.0037899 0.0011854)
(0.052812 -0.0047293 0.0018299)
(0.062355 -0.0054422 0.0020874)
(0.059071 -0.0044721 0.0023925)
(0.059175 -0.0044852 0.001407)
(0.058874 -0.0056022 0.0021677)
(0.069922 -0.0062014 0.0023563)
(0.066129 -0.005149 0.0027374)
(0.066236 -0.005181 0.0016243)
(0.065949 -0.0064726 0.0024973)
(0.078469 -0.0069408 0.0026057)
(0.074177 -0.0058092 0.0030648)
(0.074287 -0.0058695 0.0018352)
(0.074018 -0.007331 0.0028171)
(0.087972 -0.0076566 0.0028326)
(0.083191 -0.006448 0.0033706)
(0.083307 -0.0065482 0.0020387)
(0.08306 -0.0081737 0.0031248)
(0.098407 -0.0083407 0.0030335)
(0.093149 -0.0070631 0.0036534)
(0.093273 -0.0072147 0.0022331)
(0.093053 -0.0089999 0.0034173)
(0.10974 -0.0089606 0.0031974)
(0.10402 -0.0076407 0.0039056)
(0.10415 -0.0078531 0.002413)
(0.10397 -0.0097935 0.0036865)
(0.12187 -0.0094497 0.0033002)
(0.11573 -0.0081379 0.0041059)
(0.11587 -0.0084183 0.0025664)
(0.11577 -0.010501 0.0039141)
(0.13458 -0.0097159 0.0033066)
(0.12813 -0.0084807 0.0042147)
(0.12827 -0.0088374 0.002671)
(0.12828 -0.011027 0.004065)
(0.14754 -0.0096654 0.0031822)
(0.14094 -0.0085805 0.0041859)
(0.14108 -0.0090233 0.0027)
(0.14124 -0.011257 0.0040961)
(0.16026 -0.0092287 0.0029042)
(0.15375 -0.0083608 0.0039797)
(0.15388 -0.008898 0.002631)
(0.15423 -0.011091 0.0039726)
(0.17223 -0.0083743 0.002466)
(0.16607 -0.0077769 0.0035758)
(0.1662 -0.0084124 0.0024506)
(0.16674 -0.010469 0.0036731)
(0.18289 -0.0070991 0.0018735)
(0.17736 -0.0068178 0.0029719)
(0.17749 -0.0075492 0.0021564)
(0.17823 -0.0093745 0.0031918)
(0.1917 -0.0054218 0.0011482)
(0.18708 -0.0054904 0.0021758)
(0.18721 -0.0063107 0.001754)
(0.18815 -0.0078146 0.0025335)
(0.19815 -0.0034131 0.00035242)
(0.1947 -0.0038276 0.0012199)
(0.19484 -0.0047201 0.0012655)
(0.19593 -0.0058158 0.001738)
(0.20189 -0.0011896 -0.00040322)
(0.19979 -0.0019372 0.00019602)
(0.19996 -0.0028459 0.00073852)
(0.20111 -0.0034755 0.00090787)
(0.20284 0.0014158 -0.0010305)
(0.20214 5.2257e-05 -0.00076939)
(0.20231 -0.00070272 0.00021392)
(0.20355 -0.00090936 0.00012617)
(0.20015 0.0044922 -0.0019015)
(0.20129 0.0024728 -0.0017423)
(0.20137 0.0021627 -0.0003771)
(0.20284 0.0025064 -0.00086401)
(0.1931 0.0077143 -0.0030622)
(0.19647 0.005318 -0.0032125)
(0.19646 0.0050555 -0.0012531)
(0.19806 0.0061919 -0.0023006)
(0.18178 0.01071 -0.0040849)
(0.18736 0.0081187 -0.0046292)
(0.18734 0.0079474 -0.0021289)
(0.18882 0.0098475 -0.0036635)
(0.16673 0.013186 -0.0048529)
(0.17427 0.010552 -0.0057959)
(0.17426 0.010513 -0.0028794)
(0.17551 0.013069 -0.0048218)
(0.14875 0.015005 -0.0053278)
(0.15785 0.012426 -0.0066213)
(0.15785 0.012566 -0.0034538)
(0.15881 0.015619 -0.0057008)
(0.1287 0.016154 -0.0055342)
(0.13892 0.013689 -0.0070983)
(0.13893 0.014037 -0.003838)
(0.1396 0.017425 -0.0062855)
(0.10738 0.01669 -0.0055171)
(0.1183 0.014381 -0.0072737)
(0.11832 0.014949 -0.0040581)
(0.11873 0.018522 -0.0066071)
(0.085497 0.016673 -0.0053001)
(0.096754 0.01457 -0.0071867)
(0.096777 0.015356 -0.0041411)
(0.09696 0.018986 -0.0066967)
(0.063714 0.016102 -0.0048732)
(0.074963 0.014284 -0.0068545)
(0.075003 0.015277 -0.0040761)
(0.074952 0.018864 -0.0065605)
(0.042774 0.014906 -0.0042059)
(0.053637 0.013476 -0.006253)
(0.05371 0.014678 -0.0038506)
(0.053397 0.018105 -0.0061715)
(0.023592 0.013004 -0.0032729)
(0.033593 0.012074 -0.0053309)
(0.033712 0.01348 -0.0034427)
(0.033109 0.016595 -0.0054901)
(0.0072457 0.010385 -0.0020784)
(0.015781 0.010022 -0.0040644)
(0.015948 0.011627 -0.0028405)
(0.015056 0.014248 -0.0044831)
(-0.004974 0.0073332 -0.00083579)
(0.00090924 0.0073697 -0.0024766)
(0.0010859 0.0091789 -0.002071)
(5.4497e-05 0.011049 -0.0031409)
(-0.013242 0.004413 0.00016835)
(-0.0099321 0.0045871 -0.00096887)
(-0.0098103 0.0064092 -0.0013269)
(-0.010726 0.0076774 -0.0019854)
(-0.018074 0.0018809 0.00076071)
(-0.016482 0.0022323 0.0001631)
(-0.01644 0.0038879 -0.00072616)
(-0.017114 0.004587 -0.0010478)
(-0.019787 -0.00037809 0.00086369)
(-0.019673 0.00036815 0.00089979)
(-0.01966 0.001499 -0.00034608)
(-0.020107 0.0018896 -0.00051185)
(-0.018105 -0.0021024 0.00092889)
(-0.019674 -0.0012414 0.001156)
(-0.019647 -0.00097825 5.0633e-05)
(-0.019926 -0.0012566 0.00040398)
(-0.014505 -0.0029428 0.0010709)
(-0.017049 -0.002354 0.0014943)
(-0.017064 -0.0022141 0.00032232)
(-0.017099 -0.0028133 0.00092387)
(-0.010308 -0.0029815 0.00093383)
(-0.013147 -0.0026652 0.0015316)
(-0.01326 -0.0026401 0.00043004)
(-0.012948 -0.0033281 0.001085)
(-0.006594 -0.0024396 0.00061678)
(-0.0091735 -0.0023599 0.0012098)
(-0.0093495 -0.0025025 0.00038015)
(-0.0087459 -0.0030813 0.00090856)
(-0.0040541 -0.001671 0.0002901)
(-0.005844 -0.0016798 0.00080583)
(-0.006051 -0.0019756 0.00024802)
(-0.0052725 -0.0023266 0.0006207)
(-0.0024918 -0.0011212 9.1789e-05)
(-0.0036036 -0.00099371 0.00039181)
(-0.0037735 -0.0012944 9.6866e-05)
(-0.0029265 -0.001492 0.00031233)
(-0.0015096 -0.0013454 0.00021558)
(-0.0021586 -0.00070829 0.00025534)
(-0.0022572 -0.0010015 4.328e-05)
(-0.0014306 -0.0010969 0.00020573)
(0.00061428 -0.0018109 0.00050299)
(-0.0013487 -0.0014307 0.00063047)
(-0.0014632 -0.0016891 0.00030831)
(-0.00069816 -0.0019704 0.00058965)
(0.0030182 -0.0016757 0.00080989)
(0.0030211 -0.0017647 0.00051125)
(0.0033807 -0.00208 0.00075304)
(0.037863 -0.00028812 0.00021433)
(0.037736 -0.00011731 0.00011714)
(0.037801 -0.00011348 7.8341e-05)
(0.037659 -0.00013565 0.00010167)
(0.0385 -0.00066261 0.00049251)
(0.038168 -0.00038539 0.00038502)
(0.038254 -0.00038026 0.00026515)
(0.038065 -0.00046604 0.00034862)
(0.039937 -0.0011639 0.00086393)
(0.039221 -0.00077005 0.00076974)
(0.039331 -0.00078045 0.00055336)
(0.039074 -0.00099633 0.00074809)
(0.042337 -0.0017544 0.0012974)
(0.04114 -0.0012579 0.001258)
(0.041266 -0.0012707 0.00089807)
(0.040962 -0.0016395 0.00122)
(0.04581 -0.0023727 0.001748)
(0.044059 -0.0017936 0.0017941)
(0.044197 -0.0018143 0.0012759)
(0.043881 -0.0023492 0.001736)
(0.050332 -0.0029837 0.0021917)
(0.048042 -0.0023265 0.0023272)
(0.048186 -0.0023586 0.0016536)
(0.047879 -0.0030528 0.0022483)
(0.055878 -0.0035836 0.0026259)
(0.053068 -0.0028481 0.0028492)
(0.053215 -0.0028942 0.0020258)
(0.052918 -0.0037451 0.0027518)
(0.062443 -0.004172 0.0030489)
(0.059115 -0.0033601 0.003362)
(0.059265 -0.0034287 0.0023994)
(0.058977 -0.0044376 0.0032562)
(0.070007 -0.0047457 0.0034564)
(0.066173 -0.0038588 0.0038614)
(0.066323 -0.0039594 0.0027694)
(0.066049 -0.0051205 0.0037497)
(0.07855 -0.0053009 0.0038448)
(0.074218 -0.0043406 0.0043441)
(0.074371 -0.00448 0.0031287)
(0.074114 -0.0057883 0.0042267)
(0.088046 -0.005834 0.0042111)
(0.08323 -0.0048011 0.004806)
(0.083387 -0.0049892 0.0034769)
(0.083151 -0.0064392 0.0046862)
(0.098473 -0.0063382 0.0045499)
(0.093184 -0.0052388 0.0052449)
(0.093346 -0.0054845 0.0038121)
(0.093136 -0.0070722 0.0051264)
(0.10979 -0.0067884 0.0048432)
(0.10405 -0.0056432 0.0056498)
(0.10421 -0.0059539 0.0041254)
(0.10404 -0.0076737 0.0055366)
(0.12189 -0.0071344 0.0050546)
(0.11575 -0.0059819 0.005989)
(0.11591 -0.0063638 0.0043943)
(0.11581 -0.0082007 0.005886)
(0.13456 -0.007306 0.0051331)
(0.12813 -0.0062005 0.006207)
(0.12828 -0.006659 0.0045803)
(0.12829 -0.0085805 0.0061217)
(0.14745 -0.0072321 0.0050276)
(0.14091 -0.0062327 0.0062385)
(0.14104 -0.0067738 0.004638)
(0.14119 -0.0087243 0.0061804)
(0.16012 -0.0068602 0.0047008)
(0.15369 -0.0060216 0.0060265)
(0.15378 -0.0066501 0.0045275)
(0.15411 -0.0085545 0.0060058)
(0.17201 -0.0061662 0.0041369)
(0.16598 -0.0055345 0.0055389)
(0.16603 -0.0062517 0.0042247)
(0.16656 -0.0080246 0.0055648)
(0.18261 -0.0051483 0.0033364)
(0.17724 -0.004764 0.0047679)
(0.17725 -0.0055668 0.0037224)
(0.17797 -0.0071216 0.0048476)
(0.19136 -0.003826 0.0023191)
(0.18693 -0.0037165 0.0037197)
(0.18691 -0.0046004 0.0030262)
(0.18781 -0.0058511 0.0038583)
(0.19775 -0.0022678 0.0011486)
(0.19452 -0.0024251 0.0024276)
(0.19448 -0.0033801 0.0021622)
(0.19553 -0.0042485 0.002635)
(0.20144 -0.0005909 -6.4802e-05)
(0.19958 -0.00098887 0.00099046)
(0.19955 -0.0019722 0.0011886)
(0.20066 -0.0024169 0.0012811)
(0.20231 0.0012466 -0.0013434)
(0.20189 0.00046386 -0.00046325)
(0.20185 -0.00040804 0.00013255)
(0.20303 -0.00045767 -9.4475e-05)
(0.19961 0.0034477 -0.0029045)
(0.20102 0.0021259 -0.0021262)
(0.20087 0.0015242 -0.0011857)
(0.20225 0.0019129 -0.0017475)
(0.19255 0.0058589 -0.0046443)
(0.1962 0.004225 -0.0042256)
(0.19595 0.003688 -0.0026981)
(0.19745 0.0048035 -0.0038511)
(0.18128 0.0080849 -0.0062177)
(0.1871 0.0062758 -0.0062772)
(0.18685 0.0058564 -0.0042039)
(0.18824 0.0076461 -0.0058946)
(0.16632 0.0098979 -0.0074604)
(0.17404 0.0080241 -0.0080252)
(0.17383 0.0077719 -0.0055176)
(0.17501 0.010125 -0.0076433)
(0.14844 0.011196 -0.0083083)
(0.15767 0.0093321 -0.0093328)
(0.15752 0.0092891 -0.0065424)
(0.15842 0.012059 -0.0089753)
(0.12849 0.011979 -0.0087753)
(0.13879 0.01017 -0.010171)
(0.13869 0.01036 -0.0072513)
(0.13932 0.013398 -0.0098638)
(0.10727 0.012299 -0.0089046)
(0.11822 0.010583 -0.010584)
(0.11817 0.010998 -0.0076561)
(0.11855 0.014181 -0.010347)
(0.085462 0.012198 -0.0087232)
(0.096716 0.010621 -0.01062)
(0.096712 0.011248 -0.0077895)
(0.096875 0.014471 -0.010469)
(0.063761 0.011668 -0.0082225)
(0.074966 0.010302 -0.010301)
(0.075021 0.011129 -0.0076627)
(0.074957 0.014295 -0.010242)
(0.042921 0.010651 -0.0073679)
(0.053686 0.0095913 -0.0095893)
(0.053816 0.010609 -0.0072543)
(0.0535 0.013612 -0.0096363)
(0.02384 0.0090893 -0.0061214)
(0.033692 0.0084315 -0.0084294)
(0.033915 0.0096332 -0.006536)
(0.03332 0.012333 -0.0085977)
(0.0075797 0.0069842 -0.0044816)
(0.015927 0.0067827 -0.0067813)
(0.016239 0.0081681 -0.0054814)
(0.015368 0.010395 -0.0070719)
(-0.0045945 0.0045721 -0.0026589)
(0.0010937 0.0046861 -0.0046849)
(0.0014564 0.0062906 -0.0041461)
(0.00044287 0.0077955 -0.0050512)
(-0.012899 0.0023324 -0.0010473)
(-0.0097358 0.0025476 -0.0025458)
(-0.0094186 0.0041783 -0.0027021)
(-0.010313 0.0051432 -0.0030936)
(-0.017536 0.0005597 0.00014227)
(-0.0163 0.00083373 -0.0008332)
(-0.016083 0.0023528 -0.0014879)
(-0.016709 0.0027765 -0.0014426)
(-0.01942 -0.00075143 0.00093546)
(-0.01951 -0.00041584 0.00041691)
(-0.019371 0.00077264 -0.00045914)
(-0.019741 0.00086221 -0.00022882)
(-0.017925 -0.0016985 0.0015153)
(-0.019556 -0.0012704 0.0012717)
(-0.019452 -0.00062263 0.00055398)
(-0.019651 -0.00096756 0.0010155)
(-0.01443 -0.0021997 0.0018313)
(-0.016987 -0.0019422 0.0019444)
(-0.016955 -0.0014565 0.0011507)
(-0.016936 -0.0020713 0.0017629)
(-0.010377 -0.0021413 0.0017098)
(-0.013127 -0.0020868 0.0020899)
(-0.013236 -0.0017641 0.0013566)
(-0.012893 -0.0024427 0.0019647)
(-0.0067147 -0.0016819 0.0013172)
(-0.0092053 -0.0017614 0.0017651)
(-0.0094158 -0.0016298 0.0012325)
(-0.0088077 -0.0022001 0.0016996)
(-0.0041857 -0.00107 0.00084019)
(-0.0059146 -0.0012338 0.001238)
(-0.0061913 -0.0012501 0.00097235)
(-0.0054141 -0.0016089 0.0012492)
(-0.0026437 -0.00063684 0.00049929)
(-0.0036851 -0.00067247 0.00067616)
(-0.003933 -0.00073994 0.00060666)
(-0.0030942 -0.00094518 0.00071909)
(-0.001626 -0.00084625 0.00061746)
(-0.0022297 -0.0004605 0.00046329)
(-0.0023854 -0.00054485 0.00045313)
(-0.0015963 -0.00065921 0.0004926)
(0.00051844 -0.0013307 0.00090223)
(-0.0014164 -0.0010007 0.0010032)
(-0.0015798 -0.0011211 0.00079593)
(-0.00087634 -0.0014021 0.00099693)
(0.0029766 -0.0012305 0.0012314)
(0.0029366 -0.0013529 0.00086018)
(0.0032929 -0.0016564 0.0011201)
(0.037863 -0.00021455 0.0002878)
(0.037715 -8.7364e-05 0.00014906)
(0.037801 -7.8512e-05 0.0001133)
(0.037659 -0.00010187 0.00013545)
(0.0385 -0.00049277 0.00066217)
(0.03814 -0.00028418 0.0004951)
(0.038254 -0.00026554 0.00037986)
(0.038065 -0.0003491 0.00046555)
(0.039936 -0.00086398 0.0011637)
(0.039182 -0.00055873 0.0010072)
(0.039331 -0.00055392 0.00078007)
(0.039074 -0.00074892 0.00099596)
(0.042337 -0.0012971 0.0017544)
(0.041094 -0.00090899 0.0016549)
(0.041266 -0.00089854 0.0012707)
(0.040962 -0.001221 0.0016397)
(0.04581 -0.0017473 0.0023731)
(0.04401 -0.0012871 0.0023732)
(0.044197 -0.001276 0.0018145)
(0.043881 -0.0017365 0.0023496)
(0.050332 -0.0021908 0.0029844)
(0.047995 -0.0016629 0.0030862)
(0.048186 -0.0016534 0.0023592)
(0.047878 -0.0022485 0.0030535)
(0.055878 -0.0026244 0.003585)
(0.053021 -0.0020315 0.0037845)
(0.053215 -0.0020251 0.0028952)
(0.052918 -0.0027517 0.0037464)
(0.062442 -0.0030467 0.0041742)
(0.05907 -0.0023911 0.0044736)
(0.059264 -0.002398 0.0034305)
(0.058977 -0.0032553 0.0044398)
(0.070006 -0.0034533 0.0047489)
(0.066129 -0.0027352 0.0051515)
(0.066322 -0.0027671 0.003962)
(0.066048 -0.0037476 0.0051233)
(0.078549 -0.0038405 0.0053052)
(0.074176 -0.0030613 0.005813)
(0.074371 -0.0031253 0.0044836)
(0.074114 -0.0042233 0.0057918)
(0.088046 -0.0042055 0.0058397)
(0.08319 -0.0033657 0.006453)
(0.083387 -0.0034724 0.0049941)
(0.08315 -0.0046817 0.006444)
(0.098473 -0.0045434 0.0063447)
(0.093148 -0.003647 0.0070694)
(0.093346 -0.0038065 0.0054907)
(0.093136 -0.0051209 0.007078)
(0.10979 -0.0048364 0.0067954)
(0.10402 -0.0038988 0.0076476)
(0.10421 -0.0041196 0.0059606)
(0.10404 -0.0055306 0.0076799)
(0.12189 -0.0050481 0.0071411)
(0.11573 -0.0040992 0.0081449)
(0.11591 -0.0043886 0.0063707)
(0.11581 -0.0058806 0.0082079)
(0.13456 -0.0051274 0.0073121)
(0.12813 -0.0042092 0.0084867)
(0.12828 -0.0045752 0.0066652)
(0.12829 -0.0061173 0.0085874)
(0.14745 -0.0050225 0.0072374)
(0.14094 -0.0041813 0.0085857)
(0.14104 -0.0046336 0.0067794)
(0.14119 -0.0061768 0.0087308)
(0.16012 -0.0046963 0.0068649)
(0.15375 -0.003976 0.008365)
(0.15378 -0.0045238 0.0066549)
(0.15411 -0.006003 0.0085603)
(0.17201 -0.0041329 0.0061704)
(0.16607 -0.0035723 0.0077806)
(0.16603 -0.0042213 0.0062559)
(0.16656 -0.0055623 0.0080297)
(0.18261 -0.0033329 0.0051519)
(0.17736 -0.0029686 0.0068213)
(0.17725 -0.0037194 0.0055705)
(0.17797 -0.0048451 0.0071259)
(0.19136 -0.0023163 0.003829)
(0.18708 -0.002173 0.0054933)
(0.18691 -0.0030237 0.0046035)
(0.18781 -0.0038563 0.0058546)
(0.19775 -0.0011468 0.00227)
(0.1947 -0.001218 0.0038297)
(0.19448 -0.0021605 0.0033824)
(0.19553 -0.0026337 0.0042514)
(0.20144 6.5432e-05 0.00059221)
(0.19979 -0.00019529 0.0019385)
(0.19955 -0.0011877 0.0019736)
(0.20066 -0.0012805 0.0024191)
(0.20231 0.0013431 -0.0012461)
(0.20214 0.00076885 -5.1653e-05)
(0.20185 -0.00013239 0.00040851)
(0.20303 9.4491e-05 0.00045914)
(0.19961 0.0029036 -0.0034478)
(0.20129 0.0017417 -0.0024729)
(0.20087 0.0011855 -0.001524)
(0.20225 0.0017475 -0.0019124)
(0.19255 0.0046429 -0.0058594)
(0.19647 0.0032112 -0.0053186)