/*--------------------------------*- C++ -*----------------------------------*\
| =========                 |                                                 |
| \\      /  F ield         | foam-extend: Open Source CFD                    |
|  \\    /   O peration     | Version:     4.1-20200408                       |
|   \\  /    A nd           | Web:         http://www.foam-extend.org         |
|    \\/     M anipulation  |                                                 |
\*---------------------------------------------------------------------------*/
FoamFile
{
    version     2.0;
    format      ascii;
    class       volScalarField;
    location    "0.0065000";
    object      rho_0_0;
}
// * * * * * * * * * * * * * * * * * * * * * * * * * * * * * * * * * * * * * //

dimensions      [1 -3 0 0 0 0 0];

internalField   nonuniform List<scalar> 
1952
(
7823.09
7823.12
7823.17
7823.24
7823.33
7823.45
7823.6
7823.78
7824.01
7824.29
7824.64
7825.07
7825.61
7826.27
7827.16
7823.08
7823.34
7823.38
7823.43
7823.52
7823.62
7823.75
7823.91
7824.11
7824.36
7824.65
7825.02
7825.43
7825.96
7826.56
7827.34
7823.33
7823.58
7823.63
7823.69
7823.78
7823.89
7824.03
7824.2
7824.41
7824.66
7824.96
7825.32
7825.72
7826.21
7826.74
7827.42
7823.57
7823.81
7823.86
7823.92
7824.02
7824.13
7824.28
7824.46
7824.67
7824.93
7825.22
7825.57
7825.95
7826.4
7826.88
7827.48
7823.79
7824.02
7824.07
7824.13
7824.23
7824.35
7824.51
7824.69
7824.9
7825.15
7825.44
7825.77
7826.13
7826.55
7826.99
7827.53
7824
7824.2
7824.26
7824.32
7824.43
7824.55
7824.7
7824.88
7825.1
7825.35
7825.63
7825.95
7826.29
7826.68
7827.08
7827.57
7824.19
7824.37
7824.43
7824.5
7824.6
7824.72
7824.88
7825.06
7825.27
7825.52
7825.79
7826.09
7826.42
7826.78
7827.16
7827.61
7824.36
7824.52
7824.58
7824.64
7824.75
7824.87
7825.03
7825.21
7825.42
7825.66
7825.93
7826.22
7826.53
7826.87
7827.23
7827.65
7824.5
7824.65
7824.71
7824.77
7824.88
7825
7825.16
7825.34
7825.55
7825.78
7826.04
7826.33
7826.63
7826.96
7827.3
7827.7
7824.63
7824.75
7824.81
7824.88
7824.99
7825.11
7825.27
7825.45
7825.65
7825.88
7826.14
7826.42
7826.71
7827.03
7827.36
7827.75
7824.73
7824.84
7824.9
7824.97
7825.08
7825.2
7825.36
7825.53
7825.74
7825.97
7826.22
7826.5
7826.78
7827.1
7827.42
7827.8
7824.82
7824.9
7824.96
7825.03
7825.14
7825.26
7825.42
7825.6
7825.8
7826.03
7826.28
7826.55
7826.84
7827.15
7827.48
7827.86
7824.88
7824.95
7825.01
7825.08
7825.19
7825.31
7825.47
7825.64
7825.85
7826.08
7826.32
7826.59
7826.88
7827.19
7827.52
7827.92
7824.93
7825.04
7825.1
7825.17
7825.28
7825.4
7825.56
7825.73
7825.93
7826.15
7826.4
7826.67
7826.95
7827.26
7827.58
7827.97
7825.02
7825.14
7825.21
7825.27
7825.38
7825.5
7825.66
7825.83
7826.03
7826.25
7826.49
7826.75
7827.03
7827.33
7827.65
7828.02
7825.13
7825.25
7825.31
7825.38
7825.49
7825.6
7825.76
7825.93
7826.12
7826.34
7826.58
7826.84
7827.11
7827.41
7827.72
7828.08
7825.24
7825.36
7825.42
7825.49
7825.59
7825.71
7825.86
7826.03
7826.22
7826.43
7826.67
7826.92
7827.19
7827.48
7827.78
7828.13
7825.34
7825.46
7825.52
7825.59
7825.69
7825.81
7825.96
7826.12
7826.31
7826.52
7826.75
7827
7827.27
7827.55
7827.85
7828.18
7825.45
7825.57
7825.63
7825.69
7825.8
7825.91
7826.06
7826.22
7826.41
7826.61
7826.84
7827.08
7827.34
7827.62
7827.91
7828.23
7825.56
7825.67
7825.73
7825.79
7825.9
7826.01
7826.15
7826.31
7826.5
7826.7
7826.92
7827.16
7827.41
7827.69
7827.96
7828.28
7825.66
7825.78
7825.84
7825.9
7826
7826.11
7826.25
7826.41
7826.59
7826.79
7827
7827.24
7827.48
7827.75
7828.02
7828.32
7825.76
7825.88
7825.94
7826
7826.1
7826.21
7826.35
7826.5
7826.68
7826.87
7827.08
7827.31
7827.55
7827.81
7828.07
7828.37
7825.87
7825.99
7826.04
7826.11
7826.2
7826.31
7826.44
7826.59
7826.77
7826.96
7827.16
7827.39
7827.62
7827.87
7828.12
7828.41
7825.98
7826.1
7826.15
7826.21
7826.3
7826.41
7826.54
7826.68
7826.85
7827.04
7827.24
7827.46
7827.68
7827.93
7828.17
7828.44
7826.09
7826.21
7826.26
7826.32
7826.41
7826.51
7826.64
7826.78
7826.94
7827.12
7827.31
7827.52
7827.74
7827.98
7828.22
7828.48
7826.2
7826.32
7826.37
7826.43
7826.51
7826.61
7826.73
7826.87
7827.03
7827.2
7827.38
7827.59
7827.8
7828.03
7828.26
7828.51
7826.31
7826.44
7826.49
7826.54
7826.62
7826.71
7826.83
7826.96
7827.11
7827.28
7827.45
7827.65
7827.85
7828.07
7828.29
7828.53
7826.43
7826.57
7826.61
7826.66
7826.74
7826.82
7826.93
7827.05
7827.2
7827.35
7827.52
7827.71
7827.9
7828.11
7828.32
7828.55
7826.55
7826.7
7826.73
7826.78
7826.85
7826.93
7827.04
7827.15
7827.28
7827.43
7827.59
7827.76
7827.94
7828.14
7828.34
7828.57
7826.69
7826.83
7826.87
7826.91
7826.98
7827.05
7827.15
7827.25
7827.37
7827.51
7827.65
7827.82
7827.98
7828.17
7828.36
7828.57
7826.83
7826.98
7827.02
7827.05
7827.11
7827.18
7827.26
7827.35
7827.46
7827.58
7827.72
7827.86
7828.02
7828.19
7828.36
7828.56
7826.98
7827.15
7827.17
7827.21
7827.26
7827.31
7827.38
7827.46
7827.56
7827.66
7827.78
7827.91
7828.05
7828.21
7828.36
7828.54
7827.14
7827.33
7827.35
7827.37
7827.41
7827.46
7827.52
7827.58
7827.66
7827.75
7827.85
7827.96
7828.07
7828.21
7828.34
7828.51
7827.32
7827.53
7827.54
7827.56
7827.59
7827.62
7827.67
7827.71
7827.77
7827.84
7827.91
7828
7828.09
7828.21
7828.32
7828.47
7827.53
7827.76
7827.76
7827.77
7827.79
7827.81
7827.83
7827.86
7827.9
7827.94
7827.99
7828.05
7828.11
7828.2
7828.28
7828.4
7827.75
7828.01
7828.01
7828.01
7828.02
7828.02
7828.02
7828.02
7828.04
7828.05
7828.07
7828.09
7828.13
7828.18
7828.23
7828.32
7828.01
7828.31
7828.3
7828.29
7828.28
7828.26
7828.24
7828.22
7828.2
7828.18
7828.16
7828.15
7828.15
7828.16
7828.17
7828.22
7828.31
7828.65
7828.63
7828.61
7828.58
7828.54
7828.5
7828.44
7828.4
7828.33
7828.28
7828.22
7828.17
7828.13
7828.09
7828.1
7828.65
7829.04
7829.02
7828.98
7828.93
7828.87
7828.8
7828.71
7828.63
7828.52
7828.42
7828.3
7828.2
7828.1
7828.01
7827.95
7829.05
7829.49
7829.46
7829.41
7829.34
7829.25
7829.16
7829.03
7828.9
7828.74
7828.59
7828.41
7828.25
7828.08
7827.91
7827.79
7829.51
7830.02
7829.98
7829.91
7829.83
7829.71
7829.58
7829.41
7829.24
7829.02
7828.81
7828.56
7828.32
7828.06
7827.82
7827.6
7830.04
7830.63
7830.58
7830.49
7830.39
7830.24
7830.08
7829.87
7829.65
7829.37
7829.1
7828.76
7828.44
7828.07
7827.73
7827.39
7830.65
7831.32
7831.27
7831.17
7831.04
7830.87
7830.68
7830.42
7830.15
7829.81
7829.46
7829.03
7828.61
7828.12
7827.65
7827.17
7831.35
7832.12
7832.06
7831.95
7831.81
7831.61
7831.38
7831.08
7830.76
7830.35
7829.92
7829.39
7828.86
7828.22
7827.61
7826.94
7832.15
7833.03
7832.97
7832.84
7832.69
7832.47
7832.21
7831.88
7831.51
7831.03
7830.52
7829.88
7829.22
7828.42
7827.62
7826.73
7833.06
7834.06
7833.99
7833.86
7833.7
7833.46
7833.19
7832.82
7832.41
7831.87
7831.29
7830.53
7829.75
7828.75
7827.74
7826.55
7834.09
7835.21
7835.14
7835.01
7834.85
7834.6
7834.32
7833.93
7833.49
7832.91
7832.26
7831.4
7830.48
7829.28
7828.01
7826.42
7835.24
7836.49
7836.42
7836.3
7836.13
7835.9
7835.62
7835.23
7834.78
7834.17
7833.48
7832.55
7831.52
7830.11
7828.57
7826.48
7836.51
7837.88
7837.82
7837.71
7837.56
7837.35
7837.09
7836.72
7836.29
7835.7
7835.01
7834.05
7832.97
7831.42
7829.69
7827.13
7837.9
7839.37
7839.33
7839.24
7839.13
7838.95
7838.73
7838.42
7838.03
7837.5
7836.86
7835.96
7834.92
7833.41
7831.73
7829.2
7839.39
7840.96
7840.94
7840.88
7840.8
7840.68
7840.52
7840.29
7839.99
7839.56
7839.04
7838.26
7837.36
7835.99
7834.47
7832.1
7840.97
7842.61
7842.62
7842.6
7842.57
7842.52
7842.44
7842.32
7842.15
7841.88
7841.52
7840.95
7840.28
7839.18
7837.95
7835.9
7842.61
7844.3
7844.33
7844.36
7844.39
7844.43
7844.46
7844.47
7844.45
7844.38
7844.24
7843.97
7843.6
7842.89
7842.08
7840.51
7844.29
7845.98
7846.04
7846.12
7846.23
7846.36
7846.51
7846.68
7846.83
7847
7847.14
7847.22
7847.25
7847.06
7846.81
7845.93
7845.96
7847.62
7847.72
7847.85
7848.03
7848.26
7848.53
7848.87
7849.23
7849.66
7850.1
7850.6
7851.09
7851.53
7851.97
7851.98
7847.59
7849.18
7849.3
7849.49
7849.74
7850.07
7850.47
7850.97
7851.53
7852.24
7853
7853.94
7854.96
7856.13
7857.4
7858.57
7849.13
7850.61
7850.76
7850.99
7851.32
7851.74
7852.25
7852.9
7853.65
7854.61
7855.69
7857.07
7858.62
7860.58
7862.83
7865.47
7850.55
7851.87
7852.05
7852.32
7852.7
7853.19
7853.8
7854.58
7855.49
7856.66
7858
7859.76
7861.77
7864.45
7867.61
7871.77
7851.81
7852.94
7853.14
7853.44
7853.85
7854.4
7855.08
7855.94
7856.96
7858.27
7859.79
7861.8
7864.14
7867.38
7871.28
7877.03
7852.87
7853.79
7854
7854.31
7854.75
7855.33
7856.04
7856.94
7858
7859.36
7860.93
7862.99
7865.33
7868.54
7872.22
7877.56
7853.72
7854.41
7854.62
7854.94
7855.38
7855.95
7856.67
7857.56
7858.61
7859.94
7861.45
7863.41
7865.58
7868.47
7871.57
7875.85
7854.34
7854.79
7855.01
7855.31
7855.74
7856.29
7856.98
7857.82
7858.81
7860.05
7861.43
7863.17
7865.05
7867.48
7869.92
7873.15
7854.72
7854.95
7855.16
7855.44
7855.84
7856.35
7856.99
7857.76
7858.65
7859.75
7860.95
7862.44
7863.98
7865.92
7867.74
7870.06
7854.89
7854.9
7855.09
7855.34
7855.71
7856.17
7856.73
7857.41
7858.19
7859.12
7860.13
7861.34
7862.55
7864.03
7865.33
7866.9
7854.84
7854.65
7854.82
7855.05
7855.37
7855.77
7856.25
7856.83
7857.48
7858.25
7859.06
7860
7860.92
7861.98
7862.85
7863.84
7854.6
7854.24
7854.39
7854.58
7854.86
7855.19
7855.59
7856.06
7856.59
7857.19
7857.82
7858.52
7859.18
7859.9
7860.43
7860.98
7854.2
7853.68
7853.81
7853.97
7854.2
7854.46
7854.79
7855.16
7855.57
7856.03
7856.48
7856.98
7857.41
7857.86
7858.12
7858.34
7853.65
7853.01
7853.12
7853.24
7853.43
7853.63
7853.88
7854.16
7854.47
7854.79
7855.1
7855.42
7855.67
7855.9
7855.97
7855.94
7852.99
7852.26
7852.34
7852.43
7852.57
7852.72
7852.91
7853.1
7853.31
7853.52
7853.71
7853.89
7854
7854.06
7853.97
7853.78
7852.23
7851.43
7851.5
7851.56
7851.66
7851.76
7851.89
7852.01
7852.14
7852.26
7852.35
7852.41
7852.41
7852.34
7852.15
7851.83
7851.42
7850.56
7850.61
7850.65
7850.71
7850.77
7850.85
7850.91
7850.98
7851.01
7851.03
7851
7850.91
7850.75
7850.49
7850.09
7850.55
7849.67
7849.7
7849.72
7849.75
7849.78
7849.81
7849.83
7849.83
7849.81
7849.76
7849.67
7849.52
7849.29
7848.98
7848.53
7849.66
7848.76
7848.78
7848.78
7848.79
7848.79
7848.79
7848.76
7848.73
7848.66
7848.57
7848.42
7848.23
7847.96
7847.62
7847.15
7848.76
7847.86
7847.87
7847.85
7847.85
7847.82
7847.79
7847.74
7847.67
7847.56
7847.44
7847.25
7847.03
7846.74
7846.38
7845.9
7847.86
7846.97
7846.97
7846.95
7846.92
7846.88
7846.83
7846.75
7846.66
7846.53
7846.38
7846.17
7845.94
7845.63
7845.27
7844.8
7846.98
7846.11
7846.09
7846.06
7846.03
7845.97
7845.91
7845.81
7845.7
7845.56
7845.39
7845.18
7844.93
7844.62
7844.27
7843.81
7846.11
7845.27
7845.25
7845.22
7845.17
7845.11
7845.03
7844.92
7844.8
7844.65
7844.47
7844.25
7844.01
7843.7
7843.36
7842.92
7845.28
7844.46
7844.44
7844.4
7844.35
7844.28
7844.19
7844.09
7843.96
7843.8
7843.62
7843.4
7843.16
7842.86
7842.54
7842.12
7844.47
7843.69
7843.67
7843.63
7843.57
7843.5
7843.41
7843.3
7843.17
7843.01
7842.83
7842.62
7842.39
7842.1
7841.8
7841.4
7843.7
7842.96
7842.93
7842.89
7842.83
7842.76
7842.67
7842.56
7842.43
7842.27
7842.1
7841.89
7841.67
7841.4
7841.12
7840.75
7842.97
7842.27
7842.24
7842.2
7842.14
7842.07
7841.98
7841.87
7841.74
7841.59
7841.42
7841.23
7841.02
7840.77
7840.5
7840.15
7842.28
7841.61
7841.58
7841.54
7841.48
7841.41
7841.32
7841.22
7841.1
7840.95
7840.8
7840.61
7840.42
7840.18
7839.94
7839.61
7841.62
7841
7840.97
7840.93
7840.87
7840.8
7840.72
7840.61
7840.5
7840.36
7840.22
7840.04
7839.86
7839.64
7839.42
7839.12
7841
7840.41
7840.39
7840.35
7840.29
7840.23
7840.15
7840.05
7839.94
7839.81
7839.68
7839.52
7839.35
7839.15
7838.94
7838.66
7840.42
7839.87
7839.84
7839.81
7839.75
7839.69
7839.61
7839.52
7839.42
7839.3
7839.18
7839.03
7838.87
7838.69
7838.5
7838.24
7839.88
7839.36
7839.33
7839.3
7839.25
7839.19
7839.12
7839.03
7838.94
7838.83
7838.71
7838.57
7838.43
7838.26
7838.09
7837.85
7839.36
7838.87
7838.85
7838.82
7838.77
7838.72
7838.65
7838.57
7838.48
7838.38
7838.27
7838.15
7838.02
7837.87
7837.71
7837.49
7838.88
7838.42
7838.4
7838.37
7838.33
7838.28
7838.21
7838.14
7838.06
7837.97
7837.87
7837.76
7837.64
7837.5
7837.35
7837.15
7838.43
7838
7837.98
7837.95
7837.91
7837.86
7837.81
7837.74
7837.67
7837.58
7837.49
7837.39
7837.28
7837.15
7837.02
7836.83
7838.01
7837.6
7837.58
7837.56
7837.52
7837.48
7837.42
7837.36
7837.3
7837.22
7837.14
7837.04
7836.94
7836.83
7836.71
7836.54
7837.61
7837.23
7837.21
7837.19
7837.15
7837.11
7837.07
7837.01
7836.95
7836.88
7836.8
7836.72
7836.63
7836.52
7836.41
7836.25
7837.24
7836.88
7836.86
7836.84
7836.81
7836.77
7836.73
7836.68
7836.62
7836.56
7836.49
7836.41
7836.33
7836.24
7836.13
7835.99
7836.88
7836.55
7836.53
7836.51
7836.48
7836.45
7836.41
7836.37
7836.31
7836.26
7836.19
7836.12
7836.05
7835.96
7835.87
7835.73
7836.55
7836.24
7836.22
7836.21
7836.18
7836.15
7836.11
7836.07
7836.02
7835.97
7835.91
7835.85
7835.78
7835.71
7835.62
7835.49
7836.24
7835.95
7835.93
7835.92
7835.89
7835.87
7835.83
7835.79
7835.75
7835.7
7835.65
7835.59
7835.53
7835.46
7835.38
7835.26
7835.95
7835.67
7835.66
7835.64
7835.62
7835.6
7835.57
7835.53
7835.49
7835.45
7835.4
7835.35
7835.29
7835.23
7835.15
7835.04
7835.67
7835.41
7835.4
7835.39
7835.36
7835.34
7835.31
7835.28
7835.25
7835.21
7835.16
7835.12
7835.07
7835.01
7834.94
7834.83
7835.41
7835.17
7835.15
7835.14
7835.12
7835.1
7835.08
7835.05
7835.01
7834.98
7834.94
7834.89
7834.85
7834.79
7834.73
7834.63
7835.17
7834.93
7834.92
7834.91
7834.89
7834.87
7834.85
7834.82
7834.79
7834.76
7834.72
7834.68
7834.64
7834.59
7834.53
7834.43
7834.94
7834.71
7834.7
7834.69
7834.68
7834.66
7834.64
7834.61
7834.58
7834.55
7834.52
7834.48
7834.44
7834.4
7834.34
7834.24
7834.72
7834.51
7834.5
7834.49
7834.47
7834.46
7834.43
7834.41
7834.38
7834.36
7834.33
7834.29
7834.25
7834.21
7834.16
7834.07
7834.51
7834.31
7834.3
7834.29
7834.28
7834.26
7834.24
7834.22
7834.2
7834.17
7834.14
7834.11
7834.07
7834.03
7833.98
7833.89
7834.31
7834.12
7834.11
7834.11
7834.09
7834.08
7834.06
7834.04
7834.02
7833.99
7833.96
7833.93
7833.9
7833.86
7833.81
7833.72
7834.13
7833.95
7833.94
7833.93
7833.92
7833.9
7833.89
7833.87
7833.84
7833.82
7833.79
7833.76
7833.73
7833.7
7833.65
7833.56
7833.95
7833.78
7833.77
7833.77
7833.75
7833.74
7833.72
7833.7
7833.68
7833.66
7833.63
7833.6
7833.57
7833.54
7833.49
7833.41
7833.78
7833.63
7833.62
7833.61
7833.6
7833.58
7833.57
7833.55
7833.53
7833.5
7833.48
7833.45
7833.42
7833.38
7833.34
7833.25
7833.63
7833.48
7833.47
7833.47
7833.45
7833.44
7833.42
7833.4
7833.38
7833.36
7833.33
7833.3
7833.27
7833.24
7833.19
7833.11
7833.48
7833.34
7833.34
7833.33
7833.32
7833.3
7833.28
7833.27
7833.24
7833.22
7833.19
7833.16
7833.13
7833.1
7833.05
7832.96
7833.35
7833.22
7833.21
7833.2
7833.19
7833.17
7833.16
7833.14
7833.11
7833.09
7833.06
7833.03
7833
7832.96
7832.91
7832.83
7833.22
7833.1
7833.09
7833.08
7833.07
7833.06
7833.04
7833.02
7832.99
7832.97
7832.94
7832.91
7832.87
7832.83
7832.78
7832.69
7833.1
7832.99
7832.98
7832.97
7832.96
7832.95
7832.93
7832.91
7832.88
7832.85
7832.82
7832.79
7832.75
7832.71
7832.65
7832.56
7832.99
7832.89
7832.89
7832.88
7832.86
7832.85
7832.83
7832.81
7832.78
7832.75
7832.72
7832.68
7832.64
7832.59
7832.53
7832.44
7832.89
7832.8
7832.8
7832.79
7832.77
7832.76
7832.74
7832.72
7832.69
7832.66
7832.62
7832.58
7832.54
7832.49
7832.42
7832.32
7832.81
7832.73
7832.72
7832.71
7832.7
7832.68
7832.66
7832.63
7832.61
7832.57
7832.54
7832.5
7832.45
7832.39
7832.32
7832.2
7832.73
7832.66
7832.65
7832.64
7832.63
7832.61
7832.59
7832.57
7832.54
7832.5
7832.47
7832.42
7832.37
7832.3
7832.22
7832.1
7832.66
7832.6
7832.59
7832.58
7832.57
7832.55
7832.53
7832.51
7832.48
7832.45
7832.41
7832.36
7832.3
7832.23
7832.14
7832
7832.6
7832.55
7832.54
7832.54
7832.52
7832.51
7832.49
7832.46
7832.44
7832.4
7832.36
7832.31
7832.26
7832.18
7832.08
7831.92
7832.55
7832.51
7832.51
7832.5
7832.49
7832.47
7832.45
7832.43
7832.4
7832.37
7832.33
7832.29
7832.23
7832.16
7832.05
7831.87
7832.52
7832.48
7832.48
7832.47
7832.46
7832.44
7832.43
7832.41
7832.38
7832.35
7832.32
7832.28
7832.24
7832.18
7832.1
7831.96
7832.48
7832.47
7832.46
7832.46
7832.45
7832.43
7832.42
7832.4
7832.38
7832.35
7832.33
7832.29
7832.26
7832.21
7832.16
7832.06
7832.47
7832.47
7832.46
7832.46
7832.45
7832.43
7832.42
7832.4
7832.38
7832.35
7832.33
7832.29
7832.26
7832.21
7832.16
7832.06
7832.47
7832.47
7832.46
7832.46
7832.45
7832.43
7832.42
7832.4
7832.38
7832.35
7832.33
7832.29
7832.26
7832.21
7832.16
7832.06
7832.47
)
;

boundaryField
{
    wireUpstream
    {
        type            calculated;
        value           nonuniform List<scalar> 
16
(
7832.46
7832.45
7832.44
7832.44
7832.42
7832.41
7832.39
7832.37
7832.35
7832.33
7832.3
7832.27
7832.24
7832.22
7832.2
7832.46
)
;
    }
    wireDownstream
    {
        type            calculated;
        value           nonuniform List<scalar> 
16
(
7823.09
7823.12
7823.17
7823.24
7823.33
7823.45
7823.6
7823.78
7824.01
7824.29
7824.64
7825.07
7825.61
7826.27
7827.16
7823.08
)
;
    }
    wireTopContact
    {
        type            calculated;
        value           nonuniform List<scalar> 
122
(
7827.33
7827.42
7827.49
7827.54
7827.58
7827.62
7827.67
7827.71
7827.77
7827.82
7827.88
7827.93
7827.98
7828.04
7828.09
7828.14
7828.19
7828.24
7828.29
7828.33
7828.38
7828.42
7828.45
7828.49
7828.52
7828.54
7828.56
7828.57
7828.57
7828.56
7828.54
7828.51
7828.46
7828.39
7828.31
7828.2
7828.07
7827.93
7827.76
7827.57
7827.36
7827.14
7826.92
7826.71
7826.55
7826.46
7826.55
7827.13
7829.26
7832.17
7835.99
7840.6
7846.03
7852.06
7858.61
7865.47
7871.7
7877.35
7877.64
7875.78
7873.07
7869.99
7866.85
7863.81
7860.97
7858.33
7855.95
7853.78
7851.84
7850.1
7848.54
7847.15
7845.9
7844.8
7843.8
7842.91
7842.11
7841.39
7840.74
7840.14
7839.6
7839.11
7838.65
7838.23
7837.84
7837.48
7837.14
7836.83
7836.53
7836.24
7835.98
7835.72
7835.48
7835.25
7835.03
7834.82
7834.62
7834.42
7834.24
7834.06
7833.89
7833.72
7833.56
7833.4
7833.25
7833.1
7832.96
7832.82
7832.69
7832.56
7832.43
7832.31
7832.2
7832.1
7832
7831.93
7831.87
7831.95
7832.02
7832.02
7832.02
7827.16
)
;
    }
    front
    {
        type            wedge;
    }
    back
    {
        type            wedge;
    }
}


// ************************************************************************* //
