/*--------------------------------*- C++ -*----------------------------------*\
| =========                 |                                                 |
| \\      /  F ield         | foam-extend: Open Source CFD                    |
|  \\    /   O peration     | Version:     4.1-20200408                       |
|   \\  /    A nd           | Web:         http://www.foam-extend.org         |
|    \\/     M anipulation  |                                                 |
\*---------------------------------------------------------------------------*/
FoamFile
{
    version     2.0;
    format      ascii;
    class       volVectorField;
    location    "0.0065000";
    object      Velocity;
}
// * * * * * * * * * * * * * * * * * * * * * * * * * * * * * * * * * * * * * //

dimensions      [0 1 -1 0 0 0 0];

internalField   nonuniform List<vector> 
1952
(
(1.00001 3.95285e-05 0)
(1.00001 6.51525e-05 0)
(1.00001 9.2363e-05 0)
(1.00001 0.00012126 0)
(1.00001 0.00015278 0)
(1.00001 0.000186624 0)
(1.00002 0.000224442 0)
(1.00002 0.000265147 0)
(1.00002 0.000310995 0)
(1.00002 0.000359858 0)
(1.00002 0.000414055 0)
(1.00002 0.000469843 0)
(1.00001 0.00052759 0)
(0.999991 0.000578448 0)
(0.999906 0.000610775 0)
(1.00001 1.69061e-05 0)
(1.00003 3.65432e-05 0)
(1.00003 5.99787e-05 0)
(1.00003 8.45186e-05 0)
(1.00003 0.000110038 0)
(1.00003 0.000137122 0)
(1.00004 0.000165297 0)
(1.00004 0.000195552 0)
(1.00004 0.000226575 0)
(1.00004 0.000259618 0)
(1.00004 0.00029204 0)
(1.00004 0.000324789 0)
(1.00004 0.000353069 0)
(1.00002 0.000375657 0)
(0.999982 0.000384754 0)
(0.999906 0.000374404 0)
(1.00003 1.56366e-05 0)
(1.00004 3.22146e-05 0)
(1.00004 5.26572e-05 0)
(1.00004 7.37326e-05 0)
(1.00004 9.51613e-05 0)
(1.00004 0.000117243 0)
(1.00005 0.000139362 0)
(1.00005 0.000162079 0)
(1.00005 0.000183956 0)
(1.00005 0.000205755 0)
(1.00005 0.00022475 0)
(1.00004 0.00024178 0)
(1.00003 0.000252295 0)
(0.999997 0.000257323 0)
(0.99995 0.000251316 0)
(0.999872 0.000238224 0)
(1.00004 1.37918e-05 0)
(1.00004 2.6688e-05 0)
(1.00004 4.34368e-05 0)
(1.00005 6.04248e-05 0)
(1.00005 7.72687e-05 0)
(1.00005 9.4095e-05 0)
(1.00005 0.000110187 0)
(1.00005 0.000125915 0)
(1.00005 0.000139817 0)
(1.00005 0.00015255 0)
(1.00004 0.000161593 0)
(1.00003 0.000168145 0)
(1.00001 0.000168407 0)
(0.999976 0.000165355 0)
(0.99993 0.000154626 0)
(0.999865 0.000145847 0)
(1.00004 1.14323e-05 0)
(1.00004 2.06976e-05 0)
(1.00004 3.35227e-05 0)
(1.00004 4.62911e-05 0)
(1.00004 5.85709e-05 0)
(1.00004 7.03933e-05 0)
(1.00004 8.10191e-05 0)
(1.00004 9.07486e-05 0)
(1.00004 9.82249e-05 0)
(1.00003 0.000104153 0)
(1.00002 0.0001064 0)
(1.00001 0.000106513 0)
(0.999984 0.000101576 0)
(0.999951 9.53121e-05 0)
(0.999908 8.44386e-05 0)
(0.999854 7.78805e-05 0)
(1.00004 8.87199e-06 0)
(1.00003 1.47121e-05 0)
(1.00003 2.36789e-05 0)
(1.00003 3.23951e-05 0)
(1.00003 4.04239e-05 0)
(1.00003 4.77648e-05 0)
(1.00003 5.37072e-05 0)
(1.00003 5.8557e-05 0)
(1.00002 6.11174e-05 0)
(1.00001 6.21812e-05 0)
(1 6.00189e-05 0)
(0.999983 5.63695e-05 0)
(0.999959 4.90254e-05 0)
(0.999928 4.17776e-05 0)
(0.99989 3.19736e-05 0)
(0.999846 2.72531e-05 0)
(1.00003 6.3115e-06 0)
(1.00002 9.09121e-06 0)
(1.00002 1.44835e-05 0)
(1.00002 1.95201e-05 0)
(1.00002 2.37926e-05 0)
(1.00002 2.73108e-05 0)
(1.00001 2.94235e-05 0)
(1.00001 3.04765e-05 0)
(1 2.9447e-05 0)
(0.999989 2.71998e-05 0)
(0.999975 2.23583e-05 0)
(0.999957 1.66893e-05 0)
(0.999933 8.51322e-06 0)
(0.999905 1.24366e-06 0)
(0.999872 -7.29611e-06 0)
(0.999836 -1.12027e-05 0)
(1.00002 3.90513e-06 0)
(1 4.04726e-06 0)
(1 6.2696e-06 0)
(1 8.10033e-06 0)
(0.999999 9.17858e-06 0)
(0.999995 9.54903e-06 0)
(0.99999 8.63015e-06 0)
(0.999984 6.81708e-06 0)
(0.999975 3.24173e-06 0)
(0.999963 -1.19132e-06 0)
(0.999948 -7.5886e-06 0)
(0.99993 -1.42622e-05 0)
(0.999908 -2.25328e-05 0)
(0.999882 -2.94815e-05 0)
(0.999855 -3.69424e-05 0)
(0.999826 -4.04035e-05 0)
(1 1.74437e-06 0)
(0.999981 -3.13024e-07 0)
(0.99998 -8.02214e-07 0)
(0.999978 -1.67051e-06 0)
(0.999975 -3.22253e-06 0)
(0.99997 -5.36713e-06 0)
(0.999964 -8.61936e-06 0)
(0.999957 -1.25372e-05 0)
(0.999947 -1.78655e-05 0)
(0.999935 -2.36906e-05 0)
(0.99992 -3.09276e-05 0)
(0.999903 -3.80258e-05 0)
(0.999883 -4.60679e-05 0)
(0.99986 -5.26389e-05 0)
(0.999837 -5.93034e-05 0)
(0.999814 -6.26632e-05 0)
(0.999982 -1.24607e-07 0)
(0.999956 -3.96582e-06 0)
(0.999954 -6.70495e-06 0)
(0.999951 -9.78086e-06 0)
(0.999948 -1.3441e-05 0)
(0.999943 -1.75451e-05 0)
(0.999936 -2.25522e-05 0)
(0.999928 -2.79809e-05 0)
(0.999918 -3.44873e-05 0)
(0.999906 -4.11701e-05 0)
(0.999892 -4.88186e-05 0)
(0.999875 -5.60374e-05 0)
(0.999857 -6.37549e-05 0)
(0.999838 -6.99983e-05 0)
(0.999819 -7.61166e-05 0)
(0.9998 -7.95439e-05 0)
(0.999956 -1.69113e-06 0)
(0.999927 -6.94081e-06 0)
(0.999925 -1.14964e-05 0)
(0.999922 -1.6331e-05 0)
(0.999918 -2.16394e-05 0)
(0.999913 -2.72347e-05 0)
(0.999906 -3.35331e-05 0)
(0.999898 -4.00219e-05 0)
(0.999888 -4.72997e-05 0)
(0.999877 -5.4489e-05 0)
(0.999863 -6.23032e-05 0)
(0.999848 -6.94965e-05 0)
(0.999832 -7.6899e-05 0)
(0.999816 -8.29037e-05 0)
(0.9998 -8.86835e-05 0)
(0.999785 -9.22964e-05 0)
(0.999928 -2.96756e-06 0)
(0.999897 -9.30928e-06 0)
(0.999895 -1.52991e-05 0)
(0.999892 -2.15051e-05 0)
(0.999888 -2.80764e-05 0)
(0.999882 -3.47839e-05 0)
(0.999876 -4.20144e-05 0)
(0.999867 -4.92306e-05 0)
(0.999858 -5.6999e-05 0)
(0.999847 -6.44691e-05 0)
(0.999835 -7.23146e-05 0)
(0.999821 -7.9421e-05 0)
(0.999807 -8.65569e-05 0)
(0.999793 -9.24062e-05 0)
(0.99978 -9.79978e-05 0)
(0.999768 -0.000101857 0)
(0.999898 -3.9842e-06 0)
(0.999865 -1.1145e-05 0)
(0.999863 -1.82377e-05 0)
(0.99986 -2.54852e-05 0)
(0.999856 -3.29998e-05 0)
(0.999851 -4.05152e-05 0)
(0.999844 -4.84016e-05 0)
(0.999836 -5.61012e-05 0)
(0.999828 -6.41689e-05 0)
(0.999818 -7.17788e-05 0)
(0.999806 -7.95906e-05 0)
(0.999795 -8.65971e-05 0)
(0.999783 -9.35305e-05 0)
(0.999771 -9.92992e-05 0)
(0.99976 -0.000104814 0)
(0.99975 -0.00010895 0)
(0.999866 -4.77249e-06 0)
(0.999835 -1.24479e-05 0)
(0.999833 -2.03175e-05 0)
(0.99983 -2.82901e-05 0)
(0.999826 -3.64514e-05 0)
(0.999821 -4.45051e-05 0)
(0.999815 -5.28155e-05 0)
(0.999808 -6.08074e-05 0)
(0.9998 -6.90388e-05 0)
(0.99979 -7.67005e-05 0)
(0.99978 -8.44557e-05 0)
(0.99977 -9.13735e-05 0)
(0.99976 -9.8169e-05 0)
(0.999749 -0.000103908 0)
(0.99974 -0.000109416 0)
(0.999732 -0.00011381 0)
(0.999836 -5.33214e-06 0)
(0.999805 -1.34606e-05 0)
(0.999803 -2.19302e-05 0)
(0.9998 -3.04566e-05 0)
(0.999796 -3.91051e-05 0)
(0.999792 -4.75527e-05 0)
(0.999786 -5.61651e-05 0)
(0.999779 -6.435e-05 0)
(0.999772 -7.26776e-05 0)
(0.999764 -8.03495e-05 0)
(0.999755 -8.80424e-05 0)
(0.999746 -9.48829e-05 0)
(0.999737 -0.00010158 0)
(0.999728 -0.00010732 0)
(0.99972 -0.000112857 0)
(0.999714 -0.0001175 0)
(0.999805 -5.76733e-06 0)
(0.999772 -1.42841e-05 0)
(0.99977 -2.32378e-05 0)
(0.999767 -3.2205e-05 0)
(0.999764 -4.12359e-05 0)
(0.99976 -4.99812e-05 0)
(0.999755 -5.88148e-05 0)
(0.999749 -6.71252e-05 0)
(0.999742 -7.55043e-05 0)
(0.999735 -8.31569e-05 0)
(0.999728 -9.07845e-05 0)
(0.99972 -9.75544e-05 0)
(0.999712 -0.000104181 0)
(0.999705 -0.000109943 0)
(0.999698 -0.000115538 0)
(0.999693 -0.00012043 0)
(0.999772 -6.1213e-06 0)
(0.999738 -1.4916e-05 0)
(0.999737 -2.42388e-05 0)
(0.999734 -3.35374e-05 0)
(0.999732 -4.28529e-05 0)
(0.999728 -5.18105e-05 0)
(0.999724 -6.07985e-05 0)
(0.999718 -6.91836e-05 0)
(0.999713 -7.75863e-05 0)
(0.999707 -8.52056e-05 0)
(0.9997 -9.27757e-05 0)
(0.999694 -9.94857e-05 0)
(0.999687 -0.000106066 0)
(0.999681 -0.000111858 0)
(0.999675 -0.00011752 0)
(0.999671 -0.000122632 0)
(0.999739 -6.39298e-06 0)
(0.999705 -1.54138e-05 0)
(0.999703 -2.50262e-05 0)
(0.999701 -3.45818e-05 0)
(0.999699 -4.41169e-05 0)
(0.999696 -5.32322e-05 0)
(0.999692 -6.23343e-05 0)
(0.999688 -7.07656e-05 0)
(0.999683 -7.91799e-05 0)
(0.999678 -8.67618e-05 0)
(0.999673 -9.42848e-05 0)
(0.999667 -0.000100943 0)
(0.999662 -0.000107493 0)
(0.999657 -0.000113311 0)
(0.999652 -0.000119036 0)
(0.999649 -0.000124332 0)
(0.999705 -6.60709e-06 0)
(0.999671 -1.58345e-05 0)
(0.99967 -2.56914e-05 0)
(0.999668 -3.54626e-05 0)
(0.999667 -4.51835e-05 0)
(0.999664 -5.44293e-05 0)
(0.999661 -6.36282e-05 0)
(0.999658 -7.20954e-05 0)
(0.999654 -8.05212e-05 0)
(0.99965 -8.80682e-05 0)
(0.999646 -9.55546e-05 0)
(0.999641 -0.000102164 0)
(0.999637 -0.000108689 0)
(0.999633 -0.00011452 0)
(0.999629 -0.000120294 0)
(0.999626 -0.000125729 0)
(0.999671 -6.78799e-06 0)
(0.999637 -1.62266e-05 0)
(0.999637 -2.63126e-05 0)
(0.999635 -3.62863e-05 0)
(0.999634 -4.61845e-05 0)
(0.999632 -5.55564e-05 0)
(0.99963 -6.48531e-05 0)
(0.999628 -7.33606e-05 0)
(0.999625 -8.1807e-05 0)
(0.999622 -8.93264e-05 0)
(0.999618 -9.67865e-05 0)
(0.999615 -0.000103347 0)
(0.999611 -0.000109847 0)
(0.999608 -0.000115672 0)
(0.999605 -0.000121469 0)
(0.999602 -0.000126997 0)
(0.999638 -6.95659e-06 0)
(0.999604 -1.66298e-05 0)
(0.999603 -2.69532e-05 0)
(0.999602 -3.71389e-05 0)
(0.999602 -4.72266e-05 0)
(0.999601 -5.67381e-05 0)
(0.9996 -6.61483e-05 0)
(0.999598 -7.47113e-05 0)
(0.999596 -8.31942e-05 0)
(0.999594 -9.06964e-05 0)
(0.999591 -9.81395e-05 0)
(0.999589 -0.000104646 0)
(0.999586 -0.000111115 0)
(0.999584 -0.000116905 0)
(0.999581 -0.000122698 0)
(0.999579 -0.000128265 0)
(0.999604 -7.12985e-06 0)
(0.999569 -1.70773e-05 0)
(0.99957 -2.76667e-05 0)
(0.999569 -3.80929e-05 0)
(0.999569 -4.83991e-05 0)
(0.999569 -5.80789e-05 0)
(0.999569 -6.76296e-05 0)
(0.999568 -7.62729e-05 0)
(0.999567 -8.48133e-05 0)
(0.999566 -9.23114e-05 0)
(0.999564 -9.97464e-05 0)
(0.999563 -0.000106193 0)
(0.999561 -0.000112619 0)
(0.999559 -0.000118342 0)
(0.999557 -0.000124093 0)
(0.999555 -0.000129643 0)
(0.99957 -7.32214e-06 0)
(0.999535 -1.75947e-05 0)
(0.999536 -2.8494e-05 0)
(0.999536 -3.92038e-05 0)
(0.999537 -4.9771e-05 0)
(0.999537 -5.96595e-05 0)
(0.999538 -6.93871e-05 0)
(0.999538 -7.81425e-05 0)
(0.999538 -8.67662e-05 0)
(0.999538 -9.42754e-05 0)
(0.999538 -0.000101711 0)
(0.999537 -0.000108087 0)
(0.999536 -0.000114455 0)
(0.999535 -0.000120072 0)
(0.999533 -0.000125741 0)
(0.999531 -0.00013121 0)
(0.999535 -7.54439e-06 0)
(0.9995 -1.8202e-05 0)
(0.999501 -2.9467e-05 0)
(0.999501 -4.05151e-05 0)
(0.999503 -5.13955e-05 0)
(0.999504 -6.15425e-05 0)
(0.999506 -7.14903e-05 0)
(0.999507 -8.03961e-05 0)
(0.999509 -8.91316e-05 0)
(0.99951 -9.66691e-05 0)
(0.999511 -0.000104112 0)
(0.999512 -0.000110407 0)
(0.999511 -0.000116699 0)
(0.999511 -0.000122166 0)
(0.999509 -0.000127708 0)
(0.999507 -0.000133028 0)
(0.9995 -7.80516e-06 0)
(0.999464 -1.89116e-05 0)
(0.999465 -3.06059e-05 0)
(0.999466 -4.20547e-05 0)
(0.999469 -5.33076e-05 0)
(0.999471 -6.37697e-05 0)
(0.999474 -7.39861e-05 0)
(0.999477 -8.30852e-05 0)
(0.999479 -9.19643e-05 0)
(0.999482 -9.95494e-05 0)
(0.999484 -0.000107009 0)
(0.999486 -0.000113208 0)
(0.999486 -0.000119403 0)
(0.999487 -0.000124673 0)
(0.999485 -0.000130036 0)
(0.999484 -0.000135132 0)
(0.999463 -8.10985e-06 0)
(0.999427 -1.97298e-05 0)
(0.999429 -3.19212e-05 0)
(0.999431 -4.38371e-05 0)
(0.999434 -5.55252e-05 0)
(0.999437 -6.63636e-05 0)
(0.999442 -7.68997e-05 0)
(0.999446 -8.6239e-05 0)
(0.99945 -9.52952e-05 0)
(0.999454 -0.000102949 0)
(0.999457 -0.000110434 0)
(0.99946 -0.000116523 0)
(0.999461 -0.000122599 0)
(0.999463 -0.000127619 0)
(0.999462 -0.000132748 0)
(0.999461 -0.000137539 0)
(0.999426 -8.46118e-06 0)
(0.999388 -2.06542e-05 0)
(0.999391 -3.34088e-05 0)
(0.999393 -4.5858e-05 0)
(0.999398 -5.80434e-05 0)
(0.999402 -6.93204e-05 0)
(0.999408 -8.02281e-05 0)
(0.999414 -8.98566e-05 0)
(0.999419 -9.91247e-05 0)
(0.999425 -0.00010687 0)
(0.99943 -0.00011439 0)
(0.999434 -0.000120354 0)
(0.999437 -0.000126287 0)
(0.99944 -0.000130999 0)
(0.999439 -0.000135835 0)
(0.999438 -0.000140229 0)
(0.999387 -8.85802e-06 0)
(0.999348 -2.16736e-05 0)
(0.999351 -3.50517e-05 0)
(0.999355 -4.80952e-05 0)
(0.999361 -6.08356e-05 0)
(0.999366 -7.26114e-05 0)
(0.999374 -8.39404e-05 0)
(0.999381 -9.3908e-05 0)
(0.999388 -0.000103423 0)
(0.999396 -0.000111284 0)
(0.999402 -0.00011885 0)
(0.999409 -0.000124675 0)
(0.999413 -0.000130441 0)
(0.999417 -0.000134786 0)
(0.999417 -0.000139265 0)
(0.999417 -0.000143163 0)
(0.999347 -9.29571e-06 0)
(0.999306 -2.27641e-05 0)
(0.99931 -3.68117e-05 0)
(0.999314 -5.04984e-05 0)
(0.999322 -6.38404e-05 0)
(0.999329 -7.61685e-05 0)
(0.999338 -8.79622e-05 0)
(0.999347 -9.8317e-05 0)
(0.999356 -0.000108112 0)
(0.999366 -0.000116117 0)
(0.999375 -0.00012374 0)
(0.999383 -0.000129413 0)
(0.999389 -0.00013499 0)
(0.999395 -0.000138902 0)
(0.999396 -0.000142959 0)
(0.999396 -0.000146251 0)
(0.999305 -9.76386e-06 0)
(0.999261 -2.38886e-05 0)
(0.999267 -3.86301e-05 0)
(0.999272 -5.29901e-05 0)
(0.999281 -6.69629e-05 0)
(0.99929 -7.98846e-05 0)
(0.999301 -9.21765e-05 0)
(0.999312 -0.000102962 0)
(0.999324 -0.000113069 0)
(0.999336 -0.000121244 0)
(0.999347 -0.00012894 0)
(0.999358 -0.00013445 0)
(0.999366 -0.000139819 0)
(0.999373 -0.000143232 0)
(0.999376 -0.000146799 0)
(0.999377 -0.000149363 0)
(0.99926 -1.02466e-05 0)
(0.999215 -2.49903e-05 0)
(0.999221 -4.04164e-05 0)
(0.999227 -5.54493e-05 0)
(0.999238 -7.00549e-05 0)
(0.999248 -8.35912e-05 0)
(0.999262 -9.63978e-05 0)
(0.999275 -0.00010765 0)
(0.99929 -0.000118093 0)
(0.999305 -0.000126468 0)
(0.999319 -0.000134253 0)
(0.999333 -0.000139593 0)
(0.999343 -0.000144739 0)
(0.999353 -0.000147587 0)
(0.999357 -0.000150595 0)
(0.99936 -0.000152301 0)
(0.999213 -1.07196e-05 0)
(0.999165 -2.59915e-05 0)
(0.999173 -4.20468e-05 0)
(0.99918 -5.77106e-05 0)
(0.999192 -7.29133e-05 0)
(0.999205 -8.70564e-05 0)
(0.999221 -0.00010037 0)
(0.999237 -0.00011211 0)
(0.999255 -0.000122905 0)
(0.999273 -0.000131509 0)
(0.99929 -0.000139402 0)
(0.999308 -0.000144573 0)
(0.999321 -0.000149489 0)
(0.999333 -0.000151709 0)
(0.99934 -0.000154093 0)
(0.999344 -0.000154799 0)
(0.999164 -1.11493e-05 0)
(0.999113 -2.67846e-05 0)
(0.999121 -4.33495e-05 0)
(0.99913 -5.95438e-05 0)
(0.999144 -7.52545e-05 0)
(0.999159 -8.99541e-05 0)
(0.999178 -0.000103733 0)
(0.999198 -0.000115962 0)
(0.999219 -0.00012711 0)
(0.999241 -0.00013597 0)
(0.999261 -0.000143993 0)
(0.999282 -0.000149006 0)
(0.999299 -0.000153694 0)
(0.999315 -0.000155228 0)
(0.999325 -0.00015693 0)
(0.999331 -0.000156485 0)
(0.999111 -1.14897e-05 0)
(0.999058 -2.72305e-05 0)
(0.999067 -4.41018e-05 0)
(0.999078 -6.06488e-05 0)
(0.999094 -7.67085e-05 0)
(0.999111 -9.18571e-05 0)
(0.999133 -0.000106013 0)
(0.999156 -0.000118699 0)
(0.999181 -0.000130181 0)
(0.999207 -0.000139321 0)
(0.999232 -0.000147499 0)
(0.999257 -0.000152376 0)
(0.999279 -0.000156856 0)
(0.999299 -0.000157659 0)
(0.999311 -0.000158631 0)
(0.999321 -0.000156878 0)
(0.999056 -1.16809e-05 0)
(0.999001 -2.7147e-05 0)
(0.999011 -4.4012e-05 0)
(0.999023 -6.06319e-05 0)
(0.999041 -7.67882e-05 0)
(0.999061 -9.22005e-05 0)
(0.999085 -0.000106579 0)
(0.999112 -0.000119648 0)
(0.999141 -0.000131414 0)
(0.999172 -0.000140851 0)
(0.999202 -0.000149206 0)
(0.999232 -0.000153988 0)
(0.999259 -0.000158299 0)
(0.999284 -0.000158346 0)
(0.999301 -0.00015856 0)
(0.999314 -0.000155339 0)
(0.998998 -1.16446e-05 0)
(0.99894 -2.63065e-05 0)
(0.998952 -4.27144e-05 0)
(0.998965 -5.89978e-05 0)
(0.998985 -7.48791e-05 0)
(0.999008 -9.02673e-05 0)
(0.999036 -0.000104629 0)
(0.999066 -0.000117945 0)
(0.9991 -0.000129902 0)
(0.999135 -0.000139635 0)
(0.999171 -0.000148192 0)
(0.999207 -0.000152941 0)
(0.99924 -0.000157147 0)
(0.999271 -0.000156441 0)
(0.999293 -0.000155898 0)
(0.99931 -0.000151052 0)
(0.998937 -1.12833e-05 0)
(0.998878 -2.44252e-05 0)
(0.998891 -3.97524e-05 0)
(0.998906 -5.51251e-05 0)
(0.998927 -7.02072e-05 0)
(0.998953 -8.51497e-05 0)
(0.998984 -9.91424e-05 0)
(0.999018 -0.000112485 0)
(0.999057 -0.000124476 0)
(0.999097 -0.000134481 0)
(0.99914 -0.000143252 0)
(0.999182 -0.000148055 0)
(0.999222 -0.000152255 0)
(0.99926 -0.00015084 0)
(0.999288 -0.000149581 0)
(0.999312 -0.000142965 0)
(0.998875 -1.04748e-05 0)
(0.998815 -2.11607e-05 0)
(0.998828 -3.45734e-05 0)
(0.998845 -4.8259e-05 0)
(0.998868 -6.18279e-05 0)
(0.998896 -7.57315e-05 0)
(0.99893 -8.88549e-05 0)
(0.998969 -0.000101886 0)
(0.999012 -0.000113667 0)
(0.999058 -0.000123876 0)
(0.999107 -0.000132855 0)
(0.999157 -0.000137826 0)
(0.999205 -0.000142156 0)
(0.999251 -0.000140134 0)
(0.999287 -0.000138259 0)
(0.999318 -0.000129751 0)
(0.998812 -9.07224e-06 0)
(0.998752 -1.61057e-05 0)
(0.998766 -2.65184e-05 0)
(0.998783 -3.74937e-05 0)
(0.998808 -4.86013e-05 0)
(0.998838 -6.06556e-05 0)
(0.998875 -7.22172e-05 0)
(0.998918 -8.44402e-05 0)
(0.998966 -9.5641e-05 0)
(0.999018 -0.000105915 0)
(0.999074 -0.000115056 0)
(0.999132 -0.000120336 0)
(0.999188 -0.000124973 0)
(0.999245 -0.000122523 0)
(0.99929 -0.000120209 0)
(0.999331 -0.000109728 0)
(0.998748 -6.90074e-06 0)
(0.998691 -8.79185e-06 0)
(0.998705 -1.48262e-05 0)
(0.998723 -2.17768e-05 0)
(0.998749 -2.91931e-05 0)
(0.998781 -3.8317e-05 0)
(0.99882 -4.73787e-05 0)
(0.998866 -5.80831e-05 0)
(0.998918 -6.81574e-05 0)
(0.998976 -7.82438e-05 0)
(0.99904 -8.74267e-05 0)
(0.999106 -9.31675e-05 0)
(0.999173 -9.83277e-05 0)
(0.999241 -9.5727e-05 0)
(0.999298 -9.32536e-05 0)
(0.99935 -8.07825e-05 0)
(0.998687 -3.75929e-06 0)
(0.998634 1.30489e-06 0)
(0.998648 1.35858e-06 0)
(0.998666 8.42205e-08 0)
(0.998692 -2.07714e-06 0)
(0.998725 -6.85811e-06 0)
(0.998766 -1.21695e-05 0)
(0.998814 -2.03578e-05 0)
(0.998871 -2.85114e-05 0)
(0.998934 -3.79776e-05 0)
(0.999005 -4.69532e-05 0)
(0.99908 -5.32898e-05 0)
(0.999159 -5.92104e-05 0)
(0.999239 -5.6856e-05 0)
(0.99931 -5.46303e-05 0)
(0.999377 -4.02462e-05 0)
(0.99863 5.76886e-07 0)
(0.998585 1.47439e-05 0)
(0.998597 2.29549e-05 0)
(0.998616 2.9384e-05 0)
(0.998641 3.44237e-05 0)
(0.998674 3.57948e-05 0)
(0.998715 3.5873e-05 0)
(0.998764 3.15769e-05 0)
(0.998824 2.64835e-05 0)
(0.998891 1.83489e-05 0)
(0.998969 1.00476e-05 0)
(0.999054 3.05647e-06 0)
(0.999145 -3.84391e-06 0)
(0.999239 -2.2736e-06 0)
(0.999327 -8.60528e-07 0)
(0.999411 1.52089e-05 0)
(0.998581 6.34755e-06 0)
(0.998546 3.20897e-05 0)
(0.998557 5.08979e-05 0)
(0.998574 6.74588e-05 0)
(0.998598 8.20693e-05 0)
(0.998629 9.18635e-05 0)
(0.998669 9.94465e-05 0)
(0.998718 0.000100912 0)
(0.998779 0.000100494 0)
(0.998849 9.48268e-05 0)
(0.998934 8.80253e-05 0)
(0.999027 8.0511e-05 0)
(0.999131 7.25113e-05 0)
(0.999242 7.26134e-05 0)
(0.999349 7.24551e-05 0)
(0.999455 8.97446e-05 0)
(0.998542 1.37944e-05 0)
(0.998523 5.38595e-05 0)
(0.998532 8.60563e-05 0)
(0.998547 0.000115576 0)
(0.998567 0.000142572 0)
(0.998595 0.000163575 0)
(0.998632 0.000181342 0)
(0.998679 0.000191064 0)
(0.998739 0.00019758 0)
(0.99881 0.000196152 0)
(0.998899 0.000192258 0)
(0.999 0.00018476 0)
(0.999117 0.00017583 0)
(0.999245 0.000173707 0)
(0.999375 0.000171053 0)
(0.999508 0.000188772 0)
(0.998519 2.31384e-05 0)
(0.99852 8.04532e-05 0)
(0.998526 0.000129118 0)
(0.998538 0.00017478 0)
(0.998553 0.000217404 0)
(0.998577 0.000252942 0)
(0.998608 0.000284208 0)
(0.998651 0.000305445 0)
(0.998707 0.000321998 0)
(0.998777 0.000327491 0)
(0.998867 0.000328817 0)
(0.998973 0.000322651 0)
(0.999103 0.000313613 0)
(0.999248 0.000308698 0)
(0.999405 0.00030271 0)
(0.999571 0.00031974 0)
(0.998517 3.45498e-05 0)
(0.998543 0.000112057 0)
(0.998546 0.000180436 0)
(0.998553 0.000245673 0)
(0.998563 0.000307519 0)
(0.99858 0.000361427 0)
(0.998604 0.000410171 0)
(0.998639 0.000447055 0)
(0.998688 0.000477786 0)
(0.998752 0.000494108 0)
(0.99884 0.000504263 0)
(0.998948 0.000502002 0)
(0.999088 0.000494784 0)
(0.999251 0.000487061 0)
(0.999437 0.000477309 0)
(0.999642 0.000492035 0)
(0.998541 4.81067e-05 0)
(0.998598 0.000148531 0)
(0.998597 0.000239835 0)
(0.998599 0.000328145 0)
(0.998602 0.000413 0)
(0.998611 0.000489502 0)
(0.998624 0.00056031 0)
(0.998649 0.000617896 0)
(0.998687 0.000668159 0)
(0.998742 0.000700795 0)
(0.998823 0.000725185 0)
(0.998928 0.000731289 0)
(0.999073 0.000729434 0)
(0.999251 0.000719678 0)
(0.999469 0.000705677 0)
(0.99972 0.000714665 0)
(0.998597 6.37468e-05 0)
(0.998691 0.000189285 0)
(0.998685 0.000306405 0)
(0.998682 0.000421063 0)
(0.998677 0.000532623 0)
(0.998676 0.000636074 0)
(0.998678 0.000733945 0)
(0.998689 0.000818122 0)
(0.998713 0.000894589 0)
(0.998753 0.000951038 0)
(0.998821 0.000997737 0)
(0.998917 0.00102002 0)
(0.99906 0.00103061 0)
(0.999248 0.00102244 0)
(0.999498 0.00100419 0)
(0.999804 0.00100089 0)
(0.998692 8.12139e-05 0)
(0.998827 0.000233163 0)
(0.998817 0.000378303 0)
(0.998808 0.000521956 0)
(0.998795 0.000663401 0)
(0.998784 0.000797831 0)
(0.998773 0.000927698 0)
(0.99877 0.00104476 0)
(0.998776 0.00115514 0)
(0.998798 0.00124502 0)
(0.998846 0.00132569 0)
(0.998924 0.00137781 0)
(0.999055 0.00141658 0)
(0.999241 0.00142512 0)
(0.999515 0.0014153 0)
(0.999885 0.0014023 0)
(0.998829 0.000100011 0)
(0.99901 0.000278381 0)
(0.998996 0.000452625 0)
(0.998982 0.000626806 0)
(0.998961 0.000800222 0)
(0.99894 0.000968634 0)
(0.998917 0.00113451 0)
(0.998899 0.0012901 0)
(0.998887 0.00144178 0)
(0.998889 0.00157534 0)
(0.998914 0.00170362 0)
(0.998968 0.00180425 0)
(0.999077 0.0018973 0)
(0.999246 0.001957 0)
(0.999525 0.00200293 0)
(0.999948 0.0020301 0)
(0.999013 0.000119371 0)
(0.999241 0.00032255 0)
(0.999225 0.00052544 0)
(0.999206 0.000730065 0)
(0.999178 0.000935831 0)
(0.999149 0.0011394 0)
(0.999115 0.00134329 0)
(0.999084 0.00154081 0)
(0.999056 0.00173857 0)
(0.999039 0.00192291 0)
(0.999042 0.00210837 0)
(0.999074 0.00227131 0)
(0.999161 0.00243845 0)
(0.999312 0.00257854 0)
(0.999582 0.00272982 0)
(1.00001 0.00286946 0)
(0.999245 0.000138272 0)
(0.999519 0.000362814 0)
(0.999501 0.000592022 0)
(0.99948 0.000824995 0)
(0.999448 0.0010613 0)
(0.999413 0.00129875 0)
(0.99937 0.00153986 0)
(0.999329 0.00177937 0)
(0.999286 0.00202369 0)
(0.999253 0.00226025 0)
(0.999236 0.0025037 0)
(0.999245 0.00272898 0)
(0.999306 0.00296501 0)
(0.999433 0.00317135 0)
(0.99968 0.00339284 0)
(1.00008 0.00358083 0)
(0.999524 0.000155491 0)
(0.99984 0.000396072 0)
(0.999822 0.000647232 0)
(0.999799 0.000904246 0)
(0.999765 0.00116688 0)
(0.999727 0.00143426 0)
(0.99968 0.00170883 0)
(0.999631 0.00198715 0)
(0.999578 0.00227503 0)
(0.99953 0.0025617 0)
(0.999492 0.00286086 0)
(0.999476 0.0031472 0)
(0.999504 0.0034495 0)
(0.99959 0.00371976 0)
(0.999786 0.0040072 0)
(1.00012 0.00424095 0)
(0.999846 0.000169701 0)
(1.0002 0.000419235 0)
(1.00018 0.000685928 0)
(1.00016 0.00096042 0)
(1.00012 0.00124268 0)
(1.00009 0.00153322 0)
(1.00004 0.00183432 0)
(0.999985 0.00214466 0)
(0.999925 0.0024691 0)
(0.999866 0.00279944 0)
(0.999809 0.00314735 0)
(0.999767 0.00348886 0)
(0.999754 0.00385028 0)
(0.999788 0.0041791 0)
(0.999914 0.00452583 0)
(1.00016 0.0048026 0)
(1.0002 0.000179584 0)
(1.00057 0.000429532 0)
(1.00056 0.00070348 0)
(1.00054 0.000986814 0)
(1.00051 0.00127967 0)
(1.00048 0.00158393 0)
(1.00043 0.00190165 0)
(1.00038 0.00223384 0)
(1.00032 0.00258422 0)
(1.00025 0.00294804 0)
(1.00018 0.00333434 0)
(1.00011 0.00372261 0)
(1.00005 0.00413489 0)
(1.00002 0.00451756 0)
(1.00005 0.00491798 0)
(1.00018 0.00523404 0)
(1.00058 0.000183955 0)
(1.00096 0.000424812 0)
(1.00095 0.000696267 0)
(1.00093 0.000978111 0)
(1.00091 0.00127056 0)
(1.00088 0.00157672 0)
(1.00084 0.00189833 0)
(1.0008 0.00223877 0)
(1.00074 0.00260058 0)
(1.00067 0.00298328 0)
(1.00058 0.00339316 0)
(1.00049 0.00381574 0)
(1.00039 0.00426829 0)
(1.00029 0.00470138 0)
(1.00021 0.00515608 0)
(1.00019 0.00551894 0)
(1.00096 0.000181899 0)
(1.00134 0.00040387 0)
(1.00133 0.000662217 0)
(1.00132 0.000931159 0)
(1.0013 0.00121085 0)
(1.00128 0.00150531 0)
(1.00125 0.00181575 0)
(1.00122 0.00214779 0)
(1.00117 0.00250261 0)
(1.0011 0.00288447 0)
(1.00101 0.00329692 0)
(1.00091 0.00373392 0)
(1.00076 0.00420816 0)
(1.00059 0.00468123 0)
(1.0004 0.00518866 0)
(1.0002 0.00561724 0)
(1.00134 0.000172903 0)
(1.00169 0.000366715 0)
(1.00169 0.000601269 0)
(1.00168 0.000845682 0)
(1.00167 0.00109982 0)
(1.00166 0.00136815 0)
(1.00164 0.00165104 0)
(1.00162 0.00195574 0)
(1.00158 0.00228173 0)
(1.00152 0.00263766 0)
(1.00144 0.00302386 0)
(1.00133 0.0034437 0)
(1.00116 0.00390383 0)
(1.00093 0.00438048 0)
(1.00061 0.00489671 0)
(1.00022 0.00534825 0)
(1.00169 0.000156978 0)
(1.002 0.000314759 0)
(1.002 0.000515724 0)
(1.002 0.000724845 0)
(1.002 0.00094145 0)
(1.00199 0.00116983 0)
(1.00198 0.00140913 0)
(1.00197 0.00166725 0)
(1.00194 0.0019414 0)
(1.0019 0.00224344 0)
(1.00183 0.00256977 0)
(1.00171 0.00293329 0)
(1.00153 0.00333476 0)
(1.00125 0.00377104 0)
(1.00082 0.00425408 0)
(1.00021 0.00470011 0)
(1.002 0.000134731 0)
(1.00225 0.000250819 0)
(1.00225 0.000410262 0)
(1.00225 0.000575355 0)
(1.00225 0.000744655 0)
(1.00226 0.000921704 0)
(1.00225 0.00110397 0)
(1.00225 0.00129882 0)
(1.00223 0.00150034 0)
(1.00219 0.00172126 0)
(1.00213 0.00195229 0)
(1.00203 0.00221274 0)
(1.00185 0.00249535 0)
(1.00158 0.00282225 0)
(1.0011 0.00320966 0)
(1.00033 0.00364296 0)
(1.00225 0.000107369 0)
(1.00243 0.000178852 0)
(1.00243 0.000291527 0)
(1.00243 0.000406891 0)
(1.00244 0.000522651 0)
(1.00244 0.000641196 0)
(1.00244 0.000758135 0)
(1.00243 0.000879228 0)
(1.00241 0.000994824 0)
(1.00237 0.00111546 0)
(1.0023 0.00122309 0)
(1.00219 0.00133407 0)
(1.00201 0.00141835 0)
(1.00172 0.00149658 0)
(1.00123 0.00152741 0)
(1.00037 0.00152974 0)
(1.00242 7.65817e-05 0)
(1.00253 0.000103452 0)
(1.00253 0.000167264 0)
(1.00253 0.000230838 0)
(1.00253 0.000291202 0)
(1.00253 0.000349614 0)
(1.00252 0.000400302 0)
(1.00251 0.000447491 0)
(1.00247 0.000479268 0)
(1.00242 0.000504503 0)
(1.00233 0.000500881 0)
(1.00219 0.000484436 0)
(1.00198 0.000416111 0)
(1.00164 0.000323971 0)
(1.00113 0.000148883 0)
(1.00034 -4.47655e-05 0)
(1.00253 4.43265e-05 0)
(1.00256 2.91172e-05 0)
(1.00256 4.49986e-05 0)
(1.00255 5.81288e-05 0)
(1.00255 6.51509e-05 0)
(1.00254 6.64366e-05 0)
(1.00252 5.55043e-05 0)
(1.00249 3.54267e-05 0)
(1.00244 -6.31449e-06 0)
(1.00236 -6.1744e-05 0)
(1.00225 -0.000153213 0)
(1.00209 -0.000263028 0)
(1.00185 -0.000428139 0)
(1.0015 -0.000608386 0)
(1.00102 -0.000855432 0)
(1.00035 -0.0010701 0)
(1.00256 1.2522e-05 0)
(1.00252 -4.02343e-05 0)
(1.00251 -6.87517e-05 0)
(1.0025 -0.000101869 0)
(1.00249 -0.000142967 0)
(1.00247 -0.00019219 0)
(1.00243 -0.000256021 0)
(1.00239 -0.000332021 0)
(1.00232 -0.000431885 0)
(1.00223 -0.000547975 0)
(1.00209 -0.000700018 0)
(1.00191 -0.000869234 0)
(1.00166 -0.00108669 0)
(1.00133 -0.0013078 0)
(1.00091 -0.00157605 0)
(1.00038 -0.00178826 0)
(1.00252 -1.71595e-05 0)
(1.00241 -0.00010167 0)
(1.0024 -0.00016918 0)
(1.00238 -0.000242403 0)
(1.00236 -0.000324422 0)
(1.00233 -0.000415556 0)
(1.00228 -0.000521736 0)
(1.00222 -0.000640769 0)
(1.00214 -0.000782645 0)
(1.00203 -0.00093987 0)
(1.00189 -0.00112831 0)
(1.0017 -0.0013292 0)
(1.00146 -0.00156661 0)
(1.00116 -0.00179756 0)
(1.00081 -0.00205752 0)
(1.00042 -0.00225675 0)
(1.00241 -4.34638e-05 0)
(1.00225 -0.000153334 0)
(1.00223 -0.000253304 0)
(1.00222 -0.000359415 0)
(1.00218 -0.000474214 0)
(1.00214 -0.000597927 0)
(1.00209 -0.0007356 0)
(1.00201 -0.000885054 0)
(1.00192 -0.00105421 0)
(1.0018 -0.0012358 0)
(1.00165 -0.0014417 0)
(1.00147 -0.00165429 0)
(1.00125 -0.00189121 0)
(1.00099 -0.00211458 0)
(1.00072 -0.00235232 0)
(1.00044 -0.00253259 0)
(1.00225 -6.55957e-05 0)
(1.00205 -0.000194413 0)
(1.00203 -0.000319884 0)
(1.00201 -0.000451375 0)
(1.00197 -0.000590763 0)
(1.00192 -0.000738024 0)
(1.00186 -0.000897175 0)
(1.00178 -0.00106598 0)
(1.00168 -0.00125031 0)
(1.00156 -0.00144335 0)
(1.00141 -0.00165342 0)
(1.00124 -0.00186498 0)
(1.00105 -0.00209043 0)
(1.00084 -0.0022986 0)
(1.00064 -0.00251103 0)
(1.00045 -0.00267342 0)
(1.00205 -8.32032e-05 0)
(1.00182 -0.000224949 0)
(1.0018 -0.000369094 0)
(1.00177 -0.000518753 0)
(1.00173 -0.00067509 0)
(1.00168 -0.000837766 0)
(1.00161 -0.00100978 0)
(1.00153 -0.00118886 0)
(1.00143 -0.00137907 0)
(1.00131 -0.00157428 0)
(1.00118 -0.00177998 0)
(1.00103 -0.00198317 0)
(1.00087 -0.00219236 0)
(1.0007 -0.0023834 0)
(1.00056 -0.00257297 0)
(1.00045 -0.00272211 0)
(1.00183 -9.63019e-05 0)
(1.00157 -0.000245633 0)
(1.00155 -0.000402157 0)
(1.00152 -0.000563465 0)
(1.00148 -0.000730035 0)
(1.00142 -0.000901223 0)
(1.00135 -0.00107911 0)
(1.00127 -0.00126144 0)
(1.00118 -0.00145083 0)
(1.00107 -0.00164196 0)
(1.00095 -0.00183819 0)
(1.00082 -0.00202915 0)
(1.00069 -0.00222046 0)
(1.00057 -0.00239428 0)
(1.00048 -0.00256312 0)
(1.00042 -0.0027001 0)
(1.00158 -0.000105184 0)
(1.00131 -0.000257573 0)
(1.00129 -0.000420959 0)
(1.00126 -0.000588306 0)
(1.00122 -0.000759484 0)
(1.00117 -0.000933595 0)
(1.0011 -0.00111194 0)
(1.00102 -0.00129239 0)
(1.00094 -0.00147641 0)
(1.00084 -0.0016596 0)
(1.00074 -0.00184378 0)
(1.00063 -0.0020211 0)
(1.00053 -0.00219514 0)
(1.00045 -0.0023534 0)
(1.0004 -0.00250524 0)
(1.00039 -0.00263302 0)
(1.00132 -0.00011032 0)
(1.00106 -0.000262095 0)
(1.00103 -0.000427721 0)
(1.00101 -0.00059649 0)
(1.00097 -0.00076777 0)
(1.00092 -0.000940476 0)
(1.00085 -0.00111529 0)
(1.00079 -0.00129026 0)
(1.00071 -0.00146603 0)
(1.00063 -0.0016391 0)
(1.00054 -0.00181022 0)
(1.00046 -0.00197375 0)
(1.00039 -0.00213182 0)
(1.00033 -0.00227622 0)
(1.00031 -0.00241367 0)
(1.00034 -0.00253346 0)
(1.00106 -0.000112278 0)
(1.00081 -0.000260592 0)
(1.00078 -0.000424747 0)
(1.00076 -0.000591299 0)
(1.00072 -0.000759223 0)
(1.00067 -0.000927326 0)
(1.00062 -0.00109581 0)
(1.00056 -0.00126297 0)
(1.00049 -0.00142884 0)
(1.00043 -0.0015908 0)
(1.00036 -0.00174886 0)
(1.0003 -0.00189927 0)
(1.00025 -0.00204309 0)
(1.00022 -0.0021755 0)
(1.00023 -0.0023011 0)
(1.00028 -0.00241418 0)
(1.00081 -0.000111652 0)
(1.00056 -0.000254409 0)
(1.00055 -0.000414247 0)
(1.00052 -0.000575843 0)
(1.00049 -0.000737887 0)
(1.00045 -0.000899145 0)
(1.0004 -0.00105947 0)
(1.00035 -0.00121742 0)
(1.0003 -0.00137263 0)
(1.00024 -0.00152324 0)
(1.00019 -0.0016688 0)
(1.00015 -0.00180708 0)
(1.00012 -0.0019384 0)
(1.00012 -0.00206048 0)
(1.00014 -0.0021763 0)
(1.00021 -0.00228382 0)
(1.00057 -0.000109017 0)
(1.00034 -0.000244772 0)
(1.00032 -0.000398222 0)
(1.0003 -0.000552912 0)
(1.00027 -0.000707341 0)
(1.00024 -0.000860297 0)
(1.0002 -0.00101139 0)