/*--------------------------------*- C++ -*----------------------------------*\
| =========                 |                                                 |
| \\      /  F ield         | OpenFOAM: The Open Source CFD Toolbox           |
|  \\    /   O peration     | Version:  4.1                                   |
|   \\  /    A nd           | Web:      www.OpenFOAM.org                      |
|    \\/     M anipulation  |                                                 |
\*---------------------------------------------------------------------------*/
FoamFile
{
    version     2.0;
    format      ascii;
    class       surfaceScalarField;
    location    "0.000140";
    object      phi;
}
// * * * * * * * * * * * * * * * * * * * * * * * * * * * * * * * * * * * * * //

dimensions      [0 3 -1 0 0 0 0];

internalField   nonuniform List<scalar> 
8704
(
-6.5815194e-07
-1.153246e-06
-1.1439023e-06
1.3180449e-06
1.3229879e-06
-6.5693907e-07
-7.971142e-07
-7.8961048e-07
9.1112112e-07
9.1511133e-07
-6.5732999e-07
-4.1884433e-07
-4.1375258e-07
4.7974195e-07
4.8278695e-07
-6.5567896e-07
-2.6532506e-08
-2.3595952e-08
3.0646766e-08
3.2719159e-08
-6.5302058e-07
3.6916516e-07
3.7078026e-07
-4.228439e-07
-4.2139869e-07
-6.5272892e-07
7.583075e-07
7.5951423e-07
-8.6886973e-07
-8.6778706e-07
-6.5488694e-07
1.132952e-06
1.1344674e-06
-1.2995445e-06
-1.298503e-06
-6.6117513e-07
1.4844929e-06
1.4868648e-06
-1.7039205e-06
-1.7028809e-06
-6.7162566e-07
1.8073845e-06
1.8109713e-06
-2.0755604e-06
-2.0741652e-06
-6.8628285e-07
2.0964573e-06
2.1017071e-06
-2.4074043e-06
-2.4049954e-06
-7.0465742e-07
2.3467454e-06
2.3540185e-06
-2.6934222e-06
-2.6898918e-06
-7.2594473e-07
2.5543037e-06
2.5631135e-06
-2.9284321e-06
-2.9245577e-06
-7.4883615e-07
2.7156489e-06
2.7242738e-06
-3.1080518e-06
-3.1046858e-06
-7.7243413e-07
2.8281235e-06
2.8341269e-06
-3.2289828e-06
-3.2266972e-06
-7.9537316e-07
2.889548e-06
2.8907395e-06
-3.2891259e-06
-3.2887387e-06
-8.1647006e-07
2.8979742e-06
2.8932605e-06
-3.2873691e-06
-3.2899118e-06
-8.3499608e-07
2.8493365e-06
2.8395687e-06
-3.2229609e-06
-3.2285879e-06
-8.4982797e-07
2.7409483e-06
2.7289232e-06
-3.0974992e-06
-3.1046981e-06
-8.6045145e-07
2.5747863e-06
2.5636585e-06
-2.9132677e-06
-2.9199078e-06
-8.6583909e-07
2.3499802e-06
2.3421779e-06
-2.6686048e-06
-2.673572e-06
-8.6554121e-07
2.0600323e-06
2.0562177e-06
-2.3556608e-06
-2.3588803e-06
-8.5960316e-07
1.6862416e-06
1.6853401e-06
-1.9524458e-06
-1.9539138e-06
-8.4633204e-07
1.1840113e-06
1.1846045e-06
-1.3961063e-06
-1.396199e-06
5.4130764e-07
5.4189264e-07
-6.4442138e-07
-6.4420586e-07
-6.5912555e-07
-1.0603533e-06
-9.16435e-07
1.1397407e-06
-6.5929062e-07
-7.4365991e-07
-6.2563231e-07
7.793333e-07
-6.6090456e-07
-4.0455936e-07
-3.1490441e-07
3.9441689e-07
-6.6223678e-07
-5.0904448e-08
8.8404851e-09
-7.881506e-09
-6.6367697e-07
3.067494e-07
3.3624035e-07
-4.1512193e-07
-6.6646992e-07
6.579274e-07
6.5800025e-07
-8.1567575e-07
-6.7043891e-07
9.9546471e-07
9.6718458e-07
-1.201712e-06
-6.7641506e-07
1.3115638e-06
1.2563506e-06
-1.5628827e-06
-6.8428961e-07
1.6017371e-06
1.5215592e-06
-1.8934388e-06
-6.9427906e-07
1.862399e-06
1.7601006e-06
-2.1874217e-06
-7.0648061e-07
2.088826e-06
1.9671882e-06
-2.438541e-06
-7.2055041e-07
2.2774303e-06
2.1387635e-06
-2.642137e-06
-7.3601833e-07
2.4258786e-06
2.2713421e-06
-2.7946158e-06
-7.5231908e-07
2.5320172e-06
2.3616151e-06
-2.8931034e-06
-7.6870966e-07
2.5935027e-06
2.4065973e-06
-2.9345941e-06
-7.8433679e-07
2.6076147e-06
2.4041842e-06
-2.9179368e-06
-7.9856749e-07
2.5681788e-06
2.3512214e-06
-2.8426907e-06
-8.106051e-07
2.4707983e-06
2.2459987e-06
-2.7102415e-06
-8.1980284e-07
2.3185261e-06
2.0923599e-06
-2.5244442e-06
-8.2530579e-07
2.1125114e-06
1.8916083e-06
-2.2859542e-06
-8.2690821e-07
1.847085e-06
1.6375016e-06
-1.9894083e-06
-8.2553428e-07
1.5063063e-06
1.3146566e-06
-1.6181305e-06
-8.2130005e-07
1.0577021e-06
8.9623416e-07
-1.1286183e-06
4.8885295e-07
3.9110461e-07
-5.0175363e-07
-6.6220757e-07
-9.4816007e-07
-7.3439895e-07
9.3783099e-07
-6.6295405e-07
-6.7698475e-07
-5.001314e-07
6.3511706e-07
-6.6487586e-07
-3.8422434e-07
-2.4725871e-07
3.1018552e-07
-6.6692472e-07
-7.6994826e-08
1.8613844e-08
-3.0659649e-08
-6.6936613e-07
2.3442612e-07
2.8834815e-07
-3.763212e-07
-6.729717e-07
5.3938852e-07
5.5284733e-07
-7.1600157e-07
-6.7755919e-07
8.320773e-07
8.0614778e-07
-1.0424752e-06
-6.836398e-07
1.1057717e-06
1.0418205e-06
-1.3470599e-06
-6.910424e-07
1.3566892e-06
1.2570343e-06
-1.6250819e-06
-6.9980395e-07
1.5828879e-06
1.450376e-06
-1.8719699e-06
-7.1005214e-07
1.7803489e-06
1.6177121e-06
-2.0818621e-06
-7.214576e-07
1.9467401e-06
1.7561799e-06
-2.2510426e-06
-7.3371163e-07
2.0806467e-06
1.8640445e-06
-2.3772167e-06
-7.4639801e-07
2.1800975e-06
1.937684e-06
-2.4575719e-06
-7.5905841e-07
2.2428166e-06
1.9726402e-06
-2.4879763e-06
-7.7112255e-07
2.2648599e-06
1.9662503e-06
-2.4671026e-06
-7.8214808e-07
2.2382358e-06
1.9151507e-06
-2.3943258e-06
-7.9164847e-07
2.1580634e-06
1.8165796e-06
-2.2698655e-06
-7.9923811e-07
2.0278379e-06
1.6756718e-06
-2.0982756e-06
-8.0452353e-07
1.8494273e-06
1.4976898e-06
-1.8826104e-06
-8.0749973e-07
1.6181135e-06
1.2792996e-06
-1.6193209e-06
-8.0918311e-07
1.3211343e-06
1.0093624e-06
-1.2954635e-06
-8.0915885e-07
9.3490495e-07
6.7218774e-07
-8.8195391e-07
4.4209721e-07
2.820582e-07
-3.7732182e-07
-6.6526372e-07
-8.2351965e-07
-5.4266242e-07
7.250195e-07
-6.664717e-07
-6.019445e-07
-3.6732342e-07
4.8578757e-07
-6.6864966e-07
-3.6098279e-07
-1.7583641e-07
2.2693025e-07
-6.7130178e-07
-1.0687502e-07
2.7951587e-08
-4.626037e-08
-6.7457952e-07
1.5132268e-07
2.3594364e-07
-3.2451938e-07
-6.7879434e-07
4.0400671e-07
4.3979675e-07
-5.9795712e-07
-6.8381628e-07
6.4653189e-07
6.3438169e-07
-8.5967225e-07
-6.8989255e-07
8.7353795e-07
8.1438365e-07
-1.1032086e-06
-6.9687226e-07
1.0815412e-06
9.7702734e-07
-1.3245375e-06
-7.0472889e-07
1.2692204e-06
1.1216644e-06
-1.5200212e-06
-7.1356318e-07
1.43388e-06
1.2455234e-06
-1.6845033e-06
-7.2312316e-07
1.5743946e-06
1.3475584e-06
-1.8152469e-06
-7.3315931e-07
1.6904888e-06
1.4274535e-06
-1.911285e-06
-7.4334594e-07
1.7817652e-06
1.481342e-06
-1.9703949e-06
-7.5339553e-07
1.8465528e-06
1.5042025e-06
-1.9890002e-06
-7.6293446e-07
1.8787526e-06
1.4938257e-06
-1.9655132e-06
-7.71651e-07
1.868888e-06
1.4464974e-06
-1.8984818e-06
-7.7927969e-07
1.8121657e-06
1.3584921e-06
-1.7871488e-06
-7.8565848e-07
1.7109685e-06
1.2355049e-06
-1.6361498e-06
-7.9074562e-07
1.5662093e-06
1.0853651e-06
-1.4500342e-06
-7.9455486e-07
1.3755833e-06
9.0896566e-07
-1.2282723e-06
-7.9790264e-07
1.1306437e-06
7.0012886e-07
-9.628075e-07
-8.0043935e-07
8.1269816e-07
4.5037106e-07
-6.3582612e-07
3.9809803e-07
1.7679688e-07
-2.5677454e-07
-6.6699842e-07
-6.8575594e-07
-3.4342983e-07
5.0426458e-07
-6.6834585e-07
-5.1685175e-07
-2.2842415e-07
3.3102046e-07
-6.7059505e-07
-3.3228731e-07
-1.0059003e-07
1.4200568e-07
-6.7353918e-07
-1.3685115e-07
3.7918473e-08
-5.9302902e-08
-6.7730378e-07
6.1945196e-08
1.8078521e-07
-2.6532229e-07
-6.8185548e-07
2.5760522e-07
3.2133311e-07
-4.6854519e-07
-6.8715082e-07
4.4627257e-07
4.5514881e-07
-6.6232932e-07
-6.9322029e-07
6.2370731e-07
5.7788689e-07
-8.4201909e-07
-6.9993028e-07
7.8645915e-07
6.8677306e-07
-1.0040575e-06
-7.0721651e-07
9.3299342e-07
7.8077286e-07
-1.1447019e-06
-7.1509318e-07
1.0621985e-06
8.5885999e-07
-1.260374e-06
-7.2335096e-07
1.1738457e-06
9.2082432e-07
-1.348939e-06
-7.317635e-07
1.2695067e-06
9.6758075e-07
-1.4104245e-06
-7.4009187e-07
1.3513948e-06
9.9801858e-07
-1.4452992e-06
-7.4817012e-07
1.418225e-06
1.0085495e-06
-1.4517729e-06
-7.5579619e-07
1.4616208e-06
9.9573399e-07
-1.4271609e-06
-7.6275908e-07
1.4703201e-06
9.5442156e-07
-1.3683961e-06
-7.6895476e-07
1.4404261e-06
8.8172859e-07
-1.2748337e-06
-7.7444334e-07
1.3734483e-06
7.8318741e-07
-1.1505507e-06
-7.7939959e-07
1.2682707e-06
6.6633718e-07
-9.9990739e-07
-7.8387359e-07
1.1241892e-06
5.3641095e-07
-8.2592517e-07
-7.8834442e-07
9.3644001e-07
3.9287904e-07
-6.2596046e-07
-7.9320141e-07
6.9054221e-07
2.319594e-07
-3.9025609e-07
3.5597679e-07
7.3122168e-08
-1.3621931e-07
-6.6724852e-07
-5.3200384e-07
-1.3176659e-07
2.7210212e-07
-6.6839963e-07
-4.1830424e-07
-7.806464e-08
1.6621157e-07
-6.7048324e-07
-2.9330971e-07
-1.5401826e-08
4.9106044e-08
-6.7341248e-07
-1.6022868e-07
5.5325733e-08
-7.7137934e-08
-6.7725958e-07
-2.4502393e-08
1.2984332e-07
-2.0719716e-07
-6.8188674e-07
1.10108e-07
2.0392607e-07
-3.36167e-07
-6.8729386e-07
2.4130308e-07
2.7410834e-07
-4.5948089e-07
-6.9336143e-07
3.6606935e-07
3.3726076e-07
-5.7299838e-07
-6.9993088e-07
4.8156611e-07
3.9089816e-07
-6.7282888e-07
-7.0692778e-07
5.8632843e-07
4.3352121e-07
-7.5589024e-07
-7.1429428e-07
6.7960651e-07
4.6474015e-07
-8.2019456e-07
-7.2181444e-07
7.6165274e-07
4.843454e-07
-8.6414089e-07
-7.2929223e-07
8.3621373e-07
4.9472525e-07
-8.8893603e-07
-7.3655294e-07
9.0786566e-07
4.9982008e-07
-8.9833563e-07
-7.4347315e-07
9.7483936e-07
4.9874606e-07
-8.9246857e-07
-7.4998235e-07
1.0266829e-06
4.8485523e-07
-8.6689902e-07
-7.5591713e-07
1.0523079e-06
4.5089043e-07
-8.1710415e-07
-7.6124684e-07
1.0498928e-06
3.9734118e-07
-7.4401715e-07
-7.6625934e-07
1.0195516e-06
3.2922467e-07
-6.5127366e-07
-7.7126898e-07
9.5749416e-07
2.5023479e-07
-5.4121338e-07
-7.7623218e-07
8.6460696e-07
1.6839897e-07
-4.1988639e-07
-7.8125497e-07
7.3780512e-07
9.0227643e-08
-2.8879331e-07
-7.8746168e-07
5.6729869e-07
1.6237556e-08
-1.4536988e-07
3.1484146e-07
-3.1451457e-08
-1.2979575e-08
-6.6704297e-07
-3.6384456e-07
9.7817832e-08
2.6517618e-08
-6.6774181e-07
-3.0378063e-07
9.0899633e-08
-1.2978636e-08
-6.6931316e-07
-2.3802911e-07
8.8447466e-08
-5.8586306e-08
-6.7191309e-07
-1.6751461e-07
9.0382412e-08
-1.087936e-07
-6.7551553e-07
-9.5248376e-08
9.4742335e-08
-1.6102702e-07
-6.8000893e-07
-2.3089288e-08
9.9528623e-08
-2.1326333e-07
-6.8537444e-07
4.7928126e-08
1.0277501e-07
-2.6282264e-07
-6.9144585e-07
1.1726337e-07
1.0319969e-07
-3.0683413e-07
-6.9801394e-07
1.8393764e-07
9.9339759e-08
-3.4200618e-07
-7.0499485e-07
2.467629e-07
8.9733073e-08
-3.662488e-07
-7.1226248e-07
3.0478038e-07
7.3924582e-08
-3.7871455e-07
-7.1960771e-07
3.5862925e-07
5.1864701e-08
-3.784482e-07
-7.2685481e-07
4.1288736e-07
2.7363496e-08
-3.6775044e-07
-7.338568e-07
4.726284e-07
7.6400765e-09
-3.5238978e-07
-7.4052667e-07
5.353154e-07
-6.3307165e-09
-3.3371105e-07
-7.468064e-07
5.9052359e-07
-2.3187273e-08
-3.0616091e-07
-7.5255071e-07
6.2968464e-07
-5.0397364e-08
-2.649687e-07
-7.5781244e-07
6.5233501e-07
-8.4198719e-08
-2.1279184e-07
-7.6288576e-07
6.5641463e-07
-1.2080954e-07
-1.5269541e-07
-7.6795511e-07
6.3654315e-07
-1.6072312e-07
-8.4514648e-08
-7.7327135e-07
5.945255e-07
-1.9464836e-07
-1.4218718e-08
-7.775809e-07
5.3042886e-07
-2.0957759e-07
4.7123915e-08
-7.8277551e-07
4.3713293e-07
-2.0079176e-07
1.0059858e-07
2.7160361e-07
-1.4077607e-07
1.160786e-07
-6.7471829e-07
3.4186074e-07
-2.1980639e-07
-2.3906997e-07
-6.747048e-07
2.7784018e-07
-1.9936345e-07
-2.216212e-07
-6.7556328e-07
2.1209351e-07
-1.7940273e-07
-2.0222128e-07
-6.7756534e-07
1.459633e-07
-1.5969047e-07
-1.7989518e-07
-6.8066365e-07
8.045894e-08
-1.4048982e-07
-1.5595994e-07
-6.8486288e-07
1.5034409e-08
-1.2114734e-07
-1.3140698e-07
-6.9009553e-07
-5.06048e-08
-1.0089298e-07
-1.0641225e-07
-6.9623757e-07
-1.1549879e-07
-7.8468681e-08
-7.9597515e-08
-7.0300907e-07
-1.7935598e-07
-5.2339775e-08
-4.999022e-08
-7.1024899e-07
-2.4287845e-07
-2.137532e-08
-1.8168474e-08
-7.1771824e-07
-3.0616728e-07
1.4386175e-08
1.480943e-08
-7.2511036e-07
-3.6834559e-07
5.4841929e-08
4.9880749e-08
-7.3227615e-07
-4.2487327e-07
9.7060354e-08
9.0664228e-08
-7.3910427e-07
-4.6866766e-07
1.3529184e-07
1.3998431e-07
-7.4548791e-07
-4.9865736e-07
1.6796625e-07
1.9539708e-07
-7.5131589e-07
-5.2216114e-07
1.9975283e-07
2.4975594e-07
-7.5649062e-07
-5.4432375e-07
2.3413422e-07
2.9743041e-07
-7.6111418e-07
-5.607911e-07
2.6810431e-07
3.3776122e-07
-7.6534544e-07
-5.6920273e-07
2.9950692e-07
3.6803085e-07
-7.6921262e-07
-5.7099291e-07
3.2911972e-07
3.8309849e-07
-7.7316944e-07
-5.5765333e-07
3.5138187e-07
3.8391002e-07
-7.7503105e-07
-5.1357529e-07
3.5323217e-07
3.6907422e-07
-7.7672903e-07
-4.302076e-07
3.3038585e-07
3.3721003e-07
-2.6948853e-07
2.4598177e-07
2.4807541e-07
-6.590592e-07
-9.2381036e-07
-1.0404974e-06
1.1420809e-06
-6.5925583e-07
-6.3078125e-07
-7.282652e-07
7.8075543e-07
-6.6089538e-07
-3.1812574e-07
-3.9488931e-07
3.9558431e-07
-6.6224566e-07
7.3412184e-09
-4.6055914e-08
-7.0468066e-09
-6.6370426e-07
3.3576994e-07
3.0838003e-07
-4.1446907e-07
-6.6651602e-07
6.5778067e-07
6.582411e-07
-8.1508483e-07
-6.7048084e-07
9.6687643e-07
9.9620721e-07
-1.2013435e-06
-6.7644541e-07
1.2560041e-06
1.3142833e-06
-1.563107e-06
-6.8434315e-07
1.5206728e-06
1.607251e-06
-1.8938353e-06
-6.9436692e-07
1.7573657e-06
1.8711971e-06
-2.1867971e-06
-7.0655042e-07
1.9624855e-06
2.101636e-06
-2.4369912e-06
-7.2054147e-07
2.1337796e-06
2.2940414e-06
-2.6411706e-06
-7.3594175e-07
2.2672634e-06
2.442761e-06
-2.7945134e-06
-7.5222069e-07
2.3587814e-06
2.5435166e-06
-2.8926534e-06
-7.6858947e-07
2.4068636e-06
2.5959859e-06
-2.9342277e-06
-7.8419436e-07
2.4098514e-06
2.6003859e-06
-2.9196383e-06
-7.9839504e-07
2.362289e-06
2.5535954e-06
-2.8475304e-06
-8.1038745e-07
2.2596082e-06
2.4534485e-06
-2.7170628e-06
-8.1955755e-07
2.1045327e-06
2.3023758e-06
-2.5307591e-06
-8.2508309e-07
1.9001283e-06
2.100769e-06
-2.2907925e-06
-8.2673712e-07
1.6427498e-06
1.8413199e-06
-1.9933042e-06
-8.2542508e-07
1.3171171e-06
1.5050301e-06
-1.6206015e-06
-8.2132554e-07
8.9638242e-07
1.0583433e-06
-1.1292732e-06
3.9066277e-07
4.8957869e-07
-5.0170928e-07
-6.6414274e-07
-8.1702042e-07
-7.9729514e-07
-6.6579536e-07
-5.6840263e-07
-5.5327562e-07
-6.6873572e-07
-3.0067672e-07
-2.9104684e-07
-6.7232065e-07
-2.0456142e-08
-1.5591082e-08
-6.7657831e-07
2.6260967e-07
2.6428837e-07
-6.8154714e-07
5.3884307e-07
5.3921458e-07
-6.8697179e-07
8.0298886e-07
8.0357607e-07
-6.9302262e-07
1.0493336e-06
1.0512335e-06
-6.9946737e-07
1.2748742e-06
1.2790321e-06
-7.0640707e-07
1.4783341e-06
1.4859746e-06
-7.1403419e-07
1.6563115e-06
1.6680239e-06
-7.2221783e-07
1.80705e-06
1.8216845e-06
-7.3101899e-07
1.9281205e-06
1.9426702e-06
-7.4022865e-07
2.0159661e-06
2.0260793e-06
-7.4959814e-07
2.0691062e-06
2.0707282e-06
-7.5876077e-07
2.0839323e-06
2.0756763e-06
-7.6736262e-07
2.0516331e-06
2.035934e-06
-7.7515838e-07
1.9660108e-06
1.9475425e-06
-7.8172901e-07
1.8316068e-06
1.8145027e-06
-7.8681074e-07
1.6540384e-06
1.6413406e-06
-7.9085046e-07
1.4297938e-06
1.4225789e-06
-7.9517742e-07
1.1450452e-06
1.1422811e-06
-8.006327e-07
7.8122767e-07
7.8111714e-07
3.4474945e-07
3.4533638e-07
-6.6429041e-07
-6.9497851e-07
-6.0423424e-07
-6.6584087e-07
-4.9389004e-07
-4.1805245e-07
-6.6852476e-07
-2.7554691e-07
-2.1531751e-07
-6.7182908e-07
-4.5030222e-08
4.3355106e-10
-6.7583574e-07
1.8806344e-07
2.206303e-07
-6.8066316e-07
4.135206e-07
4.3588858e-07
-6.8606243e-07
6.2797018e-07
6.4199145e-07
-6.9213688e-07
8.271044e-07
8.3390879e-07
-6.986579e-07
1.0090999e-06
1.0095591e-06
-7.0558795e-07
1.1750086e-06
1.1695927e-06
-7.1300067e-07
1.3218772e-06
1.3102644e-06
-7.2070108e-07
1.4486837e-06
1.4294502e-06
-7.2865213e-07
1.554774e-06
1.5249356e-06
-7.3667516e-07
1.6370476e-06
1.5912932e-06
-7.4461539e-07
1.693835e-06
1.6254973e-06
-7.5224206e-07
1.7200918e-06
1.6260284e-06
-7.5933532e-07
1.7046869e-06
1.5879379e-06
-7.6589122e-07
1.6406597e-06
1.5061205e-06
-7.7184132e-07
1.5332418e-06
1.3861916e-06
-7.7738369e-07
1.3887555e-06
1.237407e-06
-7.8313413e-07
1.2045949e-06
1.0576926e-06
-7.8998425e-07
9.6924328e-07
8.3484784e-07
-7.9736687e-07
6.6870017e-07
5.5773367e-07
3.0249946e-07
2.3718388e-07
-6.6455483e-07
-5.6436682e-07
-4.0204821e-07
-6.6597714e-07
-4.1301957e-07
-2.764101e-07
-6.6840551e-07
-2.4720865e-07
-1.3692801e-07
-6.7155033e-07
-7.0455198e-08
1.4703181e-08
-6.754691e-07
1.0854766e-07
1.7092389e-07
-6.8018664e-07
2.8088686e-07
3.2361153e-07
-6.8552058e-07
4.441756e-07
4.692401e-07
-6.9146418e-07
5.9516447e-07
6.035895e-07
-6.9787774e-07
7.3253462e-07
7.2487316e-07
-7.0470034e-07
8.5823513e-07
8.3418414e-07
-7.1193891e-07
9.7083347e-07
9.2956795e-07
-7.1939781e-07
1.0703825e-06
1.0109024e-06
-7.2697821e-07
1.1577322e-06
1.0776238e-06
-7.3451219e-07
1.2317562e-06
1.1242042e-06
-7.4189095e-07
1.2908401e-06
1.1461272e-06
-7.4895248e-07
1.3276687e-06
1.1419017e-06
-7.5551124e-07
1.3298283e-06
1.1069595e-06
-7.6165686e-07
1.2909766e-06
1.0353859e-06
-7.6755254e-07
1.2154557e-06
9.3375459e-07
-7.7361008e-07
1.1082213e-06
8.1446774e-07
-7.8033621e-07
9.6857207e-07
6.7978112e-07
-7.8804866e-07
7.8830032e-07
5.2211513e-07
-7.9562716e-07
5.5545384e-07
3.3538998e-07
2.617406e-07
1.3249487e-07
-6.6318245e-07
-4.2440233e-07
-1.9098268e-07
-6.6417592e-07
-3.2432986e-07
-1.2782656e-07
-6.6611051e-07
-2.1324447e-07
-5.4267115e-08
-6.688955e-07
-9.3819141e-08
2.9674169e-08
-6.7254659e-07
2.7368593e-08
1.1825631e-07
-6.7701821e-07
1.4433712e-07
2.0588147e-07
-6.8221675e-07
2.5519368e-07
2.8890639e-07
-6.8804878e-07
3.5757866e-07
3.6387473e-07
-6.9440859e-07
4.5051164e-07
4.2926997e-07
-7.0125108e-07
5.3519034e-07
4.8552893e-07
-7.0852187e-07
6.11913e-07
5.3283349e-07
-7.1600088e-07
6.8176141e-07
5.7236836e-07
-7.2353311e-07
7.4729469e-07
6.0521599e-07
-7.3099711e-07
8.108163e-07
6.2852232e-07
-7.3827836e-07
8.7128409e-07
6.3807748e-07
-7.4525583e-07
9.1846129e-07
6.3080695e-07
-7.5179968e-07
9.3845361e-07
6.0122033e-07
-7.5801775e-07
9.2664798e-07
5.450076e-07
-7.6423733e-07
8.8638126e-07
4.6894153e-07
-7.7094227e-07
8.1965365e-07
3.849942e-07
-7.7846331e-07
7.2731738e-07
2.9952751e-07
-7.8673268e-07
6.047645e-07
2.1039536e-07
-7.9473201e-07
4.4180169e-07
1.1558054e-07
2.2210907e-07
2.957672e-08
-6.6058651e-07
-2.7318955e-07
3.2498128e-08
-6.6090856e-07
-2.2455375e-07
3.2593458e-08
-6.6221025e-07
-1.6962895e-07
3.8883417e-08
-6.6444796e-07
-1.0941505e-07
5.2690103e-08
-6.6765175e-07
-4.77483e-08
7.0837865e-08
-6.7176617e-07
1.1748706e-08
9.0015853e-08
-6.7675111e-07
6.8154273e-08
1.0702933e-07
-6.8250162e-07
1.2074474e-07
1.1987809e-07
-6.8885743e-07
1.693083e-07
1.2789973e-07
-6.9577809e-07
2.1434085e-07
1.3089994e-07
-7.0320376e-07
2.5612612e-07
1.2942541e-07
-7.1086397e-07
2.9654712e-07
1.2480331e-07
-7.1857783e-07
3.4075942e-07
1.2038656e-07
-7.2626174e-07
3.9343085e-07
1.1852504e-07
-7.338172e-07
4.5278829e-07
1.1655281e-07
-7.4112328e-07
5.0682423e-07
1.0768197e-07
-7.4803308e-07
5.4243143e-07
8.5161792e-08
-7.54667e-07
5.5765739e-07
4.9154953e-08
-7.6145336e-07
5.5352188e-07
5.2696207e-09
-7.6886629e-07
5.2773977e-07
-3.9430729e-08
-7.7706972e-07
4.8291226e-07
-7.5265085e-08
-7.856813e-07
4.1905836e-07
-9.6758861e-08
-7.9423145e-07
3.2768282e-07
-1.0171145e-07
1.8327266e-07
-7.3672937e-08
-6.5858899e-07
-1.1438346e-07
2.6595753e-07
-6.5838083e-07
-1.1475549e-07
2.053383e-07
-6.5914417e-07
-1.1398959e-07
1.4598211e-07
-6.6090824e-07
-1.111723e-07
9.037906e-08
-6.6373073e-07
-1.0749656e-07
3.7900767e-08
-6.6755207e-07
-1.045486e-07
-1.3085138e-08
-6.7235112e-07
-1.0229288e-07
-6.4171462e-08
-6.7802777e-07
-9.9283242e-08
-1.1522978e-07
-6.8438567e-07
-9.4454816e-08
-1.6555005e-07
-6.9136786e-07
-8.7488725e-08
-2.153783e-07
-6.9887934e-07
-7.8290343e-08
-2.6459598e-07
-7.0666143e-07
-6.4477308e-08
-3.1185621e-07
-7.1455857e-07
-3.9789421e-08
-3.5207613e-07
-7.2247928e-07
6.0577837e-10
-3.7919692e-07
-7.3036066e-07
5.3560914e-08
-3.944206e-07
-7.3804081e-07
1.0778539e-07
-4.0686768e-07
-7.4534806e-07
1.5389463e-07
-4.2291281e-07
-7.5249738e-07
1.9178182e-07
-4.3846599e-07
-7.5981841e-07
2.1956028e-07
-4.4974732e-07
-7.6767802e-07
2.3243405e-07
-4.5497943e-07
-7.7618197e-07
2.3391795e-07
-4.4282443e-07
-7.8448993e-07
2.2753828e-07
-4.001347e-07
-7.9295827e-07
2.0818255e-07
-3.2000473e-07
1.4296337e-07
-1.813287e-07
-6.6694019e-07
5.1621056e-07
1.1359702e-08
-6.6766344e-07
3.9590407e-07
-3.2782347e-08
-6.6925622e-07
2.697684e-07
-7.9625121e-08
-6.7184078e-07
1.4149133e-07
-1.2700891e-07
-6.7540914e-07
1.3513868e-08
-1.7390456e-07
-6.7988985e-07
-1.1396202e-07
-2.2032822e-07
-6.8523052e-07
-2.4024469e-07
-2.6542169e-07
-6.9133503e-07
-3.6242383e-07
-3.0581834e-07
-6.9796023e-07
-4.7784751e-07
-3.3881623e-07
-7.0501027e-07
-5.8566056e-07
-3.6360008e-07
-7.1233079e-07
-6.853194e-07
-3.7983681e-07
-7.1966001e-07
-7.7478629e-07
-3.8497898e-07
-7.2688032e-07
-8.4860293e-07
-3.7433936e-07
-7.3390398e-07
-9.0059671e-07
-3.4532249e-07
-7.406272e-07
-9.3127635e-07
-3.0084407e-07
-7.4686437e-07
-9.4842419e-07
-2.4839923e-07
-7.5252282e-07
-9.5650129e-07
-1.9359855e-07
-7.5781794e-07
-9.5087915e-07
-1.3671754e-07
-7.6287615e-07
-9.291569e-07
-8.0560801e-08
-7.6787406e-07
-8.9150384e-07
-2.9869209e-08
-7.7317558e-07
-8.2821072e-07
1.7312949e-08
-7.7749694e-07
-7.2144502e-07
6.2124045e-08
-7.8273026e-07
-5.6100782e-07
1.0696256e-07
-3.1331359e-07
1.1821442e-07
-6.6212084e-07
-7.2750986e-07
-9.1200175e-07
9.3103754e-07
-6.6287676e-07
-4.9332259e-07
-6.4825003e-07
6.2887844e-07
-6.6478281e-07
-2.4172628e-07
-3.6503661e-07
3.057729e-07
-6.6681947e-07
2.3021846e-08
-6.6212498e-08
-3.3533612e-08
-6.6925254e-07
2.9154124e-07
2.3914716e-07
-3.7792657e-07
-6.7283318e-07
5.5467131e-07
5.4121577e-07
-7.1655453e-07
-6.7737146e-07
8.0711247e-07
8.3400974e-07
-1.0426893e-06
-6.8338206e-07
1.0431688e-06
1.1106033e-06
-1.3480293e-06
-6.9075393e-07
1.259041e-06
1.3663665e-06
-1.6269317e-06
-6.9951493e-07
1.4517855e-06
1.5982776e-06
-1.8736689e-06
-7.0969175e-07
1.6186398e-06
1.8021194e-06
-2.0836777e-06
-7.209558e-07
1.7584053e-06
1.9739743e-06
-2.2544141e-06
-7.3311556e-07
1.8667443e-06
2.1075605e-06
-2.3809916e-06
-7.4578266e-07
1.9383035e-06
2.1980643e-06
-2.4585791e-06
-7.5843335e-07
1.9725269e-06
2.2467342e-06
-2.4863367e-06
-7.7049975e-07
1.9685504e-06
2.2543131e-06
-2.4653914e-06
-7.8151763e-07
1.9211311e-06
2.2173302e-06
-2.3945533e-06
-7.9101368e-07
1.8251232e-06
2.1333525e-06
-2.2723129e-06
-7.9863815e-07
1.6832971e-06
2.0041333e-06
-2.101011e-06
-8.0400705e-07
1.5027925e-06
1.8308086e-06
-1.8847498e-06
-8.0711117e-07
1.2832278e-06
1.6073554e-06
-1.6218378e-06
-8.0897067e-07
1.0117493e-06
1.3170127e-06
-1.2976928e-06
-8.0929421e-07
6.7229031e-07
9.3426181e-07
-8.8269199e-07
2.8165724e-07
4.4252265e-07
-3.7731758e-07
-6.6435948e-07
-6.085413e-07
-6.5506058e-07
-6.6593895e-07
-4.2061915e-07
-4.6206094e-07
-6.6863961e-07
-2.1616914e-07
-2.5383694e-07
-6.7196276e-07
1.1091753e-09
-3.2454725e-08
-6.7598147e-07
2.2209108e-07
1.939389e-07
-6.8079037e-07
4.3717107e-07
4.1615767e-07
-6.861619e-07
6.4262421e-07
6.3051802e-07
-6.9220152e-07
8.341417e-07
8.3225691e-07
-6.9868016e-07
1.0092467e-06
1.0190591e-06
-7.0556601e-07
1.1674341e-06
1.1913441e-06
-7.1291876e-07
1.3058042e-06
1.3451408e-06
-7.2054476e-07
1.4237933e-06
1.4771466e-06
-7.2846194e-07
1.5188653e-06
1.5827369e-06
-7.3646058e-07
1.5862376e-06
1.6561838e-06
-7.4435948e-07
1.6251427e-06
1.6980776e-06
-7.5196567e-07
1.6322778e-06
1.7086597e-06
-7.5906759e-07
1.5991529e-06
1.6824748e-06
-7.6563501e-07
1.5195144e-06
1.6146702e-06
-7.7159444e-07
1.3986666e-06
1.5082137e-06
-7.7718154e-07
1.2467955e-06
1.3686064e-06
-7.8300049e-07
1.0638406e-06
1.1919189e-06
-7.8995043e-07
8.3769169e-07
9.6319894e-07
-7.9757847e-07
5.5781315e-07
6.6688831e-07
2.3663847e-07
3.0270557e-07
-6.6446906e-07
-4.7350937e-07
-4.4862192e-07
-6.660136e-07
-3.358042e-07
-3.1562648e-07
-6.6854119e-07
-1.8356785e-07
-1.6955177e-07
-6.716797e-07
-1.8676915e-08
-1.0496732e-08
-6.7551434e-07
1.4987402e-07
1.5368184e-07
-6.8018368e-07
3.1191788e-07
3.1362502e-07
-6.8547539e-07
4.6543858e-07
4.6715127e-07
-6.9145776e-07
6.07476e-07
6.1061466e-07
-6.9794188e-07
7.3700953e-07
7.4295054e-07
-7.0482915e-07
8.5622383e-07
8.6673655e-07
-7.1214164e-07
9.6225207e-07
9.7792977e-07
-7.1965669e-07
1.0550161e-06
1.0743345e-06
-7.2728603e-07
1.1341345e-06
1.1536924e-06
-7.3486347e-07
1.1955047e-06
1.2094967e-06
-7.4223925e-07
1.2379091e-06
1.240214e-06
-7.4921014e-07
1.2565407e-06
1.2463742e-06
-7.5564141e-07
1.2405225e-06
1.2227292e-06
-7.6165741e-07
1.1828153e-06
1.1626029e-06
-7.6740858e-07
1.0903101e-06
1.0707642e-06
-7.7342037e-07
9.7442021e-07
9.580814e-07
-7.8036439e-07
8.3546383e-07
8.2404048e-07
-7.885455e-07
6.6259805e-07
6.5643758e-07
-7.9636214e-07
4.4747041e-07
4.4549198e-07
1.955283e-07
1.9561246e-07
-6.6462161e-07
-3.2869155e-07
-2.3408798e-07
-6.6606587e-07
-2.4378003e-07
-1.6445842e-07
-6.6840409e-07
-1.4715484e-07
-8.4495579e-08
-6.7145279e-07
-3.8967911e-08
7.1366579e-09
-6.7524091e-07
7.2872453e-08
1.0414274e-07
-6.7980915e-07
1.7942889e-07
1.9945756e-07
-6.8502876e-07
2.7907158e-07
2.9046242e-07
-6.9086444e-07
3.6970795e-07
3.7411952e-07
-6.9720639e-07
4.5152183e-07
4.5010542e-07
-7.0399441e-07
5.281292e-07
5.208011e-07
-7.1118649e-07
5.9809123e-07
5.8465637e-07
-7.1858733e-07
6.6207326e-07
6.4191649e-07
-7.2605521e-07
7.2152612e-07
6.9187024e-07
-7.3344258e-07
7.7439653e-07
7.2807545e-07
-7.4063367e-07
8.1893231e-07
7.4689081e-07
-7.4743737e-07
8.4822409e-07
7.4854232e-07
-7.5371677e-07
8.5052587e-07
7.2860524e-07
-7.596351e-07
8.1958434e-07
6.7946675e-07
-7.6550584e-07
7.6177929e-07
6.0719256e-07
-7.7190499e-07
6.8749144e-07
5.2685298e-07
-7.7940223e-07
5.9783848e-07
4.417677e-07
-7.8787927e-07
4.8358589e-07
3.4276273e-07
-7.9520768e-07
3.3682503e-07
2.2376541e-07
1.5572873e-07
9.1551163e-08
-6.62995e-07
-1.7522641e-07
-1.3403077e-08
-6.6404618e-07
-1.4410123e-07
-8.5403876e-09
-6.6597951e-07
-1.0486022e-07
3.2080606e-09
-6.6876192e-07
-5.6727229e-08
2.4215114e-08
-6.7237179e-07
-5.2792785e-09
5.0806785e-08
-6.7677045e-07
4.341019e-08
7.924e-08
-6.8191546e-07
8.7507954e-08
1.0573154e-07
-6.8768222e-07
1.2605712e-07
1.2792007e-07
-6.9398514e-07
1.601808e-07
1.460822e-07
-7.0082022e-07
1.9303056e-07
1.6125853e-07
-7.0808797e-07
2.2484927e-07
1.7478934e-07
-7.1556492e-07
2.5756191e-07
1.8915482e-07
-7.2310041e-07
2.945038e-07
2.053569e-07
-7.3055186e-07
3.3685736e-07
2.1921061e-07
-7.378105e-07
3.8285372e-07
2.2630059e-07
-7.4471333e-07
4.2263338e-07
2.2487595e-07
-7.5113149e-07
4.4394292e-07
2.1036819e-07
-7.5722461e-07
4.4287972e-07
1.7696048e-07
-7.6343426e-07
4.2400812e-07
1.3117274e-07
-7.7035293e-07
3.9392412e-07
8.8527099e-08
-7.7837148e-07
3.5494628e-07
5.591234e-08
-7.8727671e-07
3.0090454e-07
2.8211377e-08
-7.9481078e-07
2.2429063e-07
2.8045892e-09
1.1591205e-07
-1.1281348e-08
-6.6098012e-07
-1.8411659e-08
2.1202546e-07
-6.6153419e-07
-3.8618041e-08
1.5356238e-07
-6.6299806e-07
-5.5718351e-08
9.7691508e-08
-6.6540984e-07
-6.7725156e-08
4.8072669e-08
-6.6873509e-07
-7.7339834e-08
3.8053261e-09
-6.7293514e-07
-8.7737919e-08
-3.6903514e-08
-6.7797262e-07
-9.997028e-08
-7.7429543e-08
-6.8373275e-07
-1.132045e-07
-1.1852699e-07
-6.9008799e-07
-1.2545366e-07
-1.5895862e-07
-6.9702937e-07
-1.3442287e-07
-1.9813539e-07
-7.0445492e-07
-1.3921189e-07
-2.3438432e-07
-7.1209221e-07
-1.3660494e-07
-2.6444388e-07
-7.1977283e-07
-1.2107543e-07
-2.8454253e-07
-7.2740536e-07
-8.9570729e-08
-2.9483866e-07
-7.3489498e-07
-4.460739e-08
-2.9950104e-07
-7.4205492e-07
2.5762704e-09
-3.0347271e-07
-7.4875718e-07
4.0893954e-08
-3.1162364e-07
-7.552123e-07
6.9027374e-08
-3.2537777e-07
-7.6183661e-07
8.8729091e-08
-3.3909723e-07
-7.6920431e-07
1.0133818e-07
-3.4164579e-07
-7.7760548e-07
1.1056771e-07
-3.2344925e-07
-7.8674097e-07
1.1548066e-07
-2.8222344e-07
-7.9497745e-07
1.0983335e-07
-2.1605434e-07
7.5606034e-08
-1.1418224e-07
-6.6043004e-07
1.3116123e-07
4.3464123e-07
-6.6077874e-07
6.4429347e-08
3.1747412e-07
-6.6208489e-07
-4.0521767e-09
1.9832647e-07
-6.6431138e-07
-7.1643101e-08
8.1896475e-08
-6.6749198e-07
-1.3830503e-07
-3.0868215e-08
-6.7158622e-07
-2.0468149e-07
-1.4001311e-07
-6.765523e-07
-2.7008045e-07
-2.4709045e-07
-6.8231977e-07
-3.3200233e-07
-3.5082986e-07
-6.8872097e-07
-3.8766646e-07
-4.4880517e-07
-6.9570117e-07
-4.3498589e-07
-5.4004109e-07
-7.0315648e-07
-4.7242759e-07
-6.2323661e-07
-7.1081745e-07
-4.9611838e-07
-6.9530523e-07
-7.1853873e-07
-4.9983314e-07
-7.5069914e-07
-7.2625305e-07
-4.8049077e-07
-7.860595e-07
-7.3386561e-07
-4.416034e-07
-8.0455136e-07
-7.4115515e-07
-3.9333436e-07
-8.1331414e-07
-7.4802065e-07
-3.435588e-07
-8.1648114e-07
-7.5473938e-07
-2.9201916e-07
-8.11302e-07
-7.6154856e-07
-2.3955332e-07
-7.9339579e-07
-7.6889823e-07
-1.8839031e-07
-7.5713503e-07
-7.77116e-07
-1.3431006e-07
-6.920076e-07
-7.857062e-07
-7.385682e-08
-5.8699282e-07
-7.9420536e-07
-9.3953452e-09
-4.3457981e-07
3.3190565e-08
-2.2058971e-07
-6.6697814e-07
6.8277413e-07
2.6757821e-07
-6.6819309e-07
5.0433699e-07
1.5406377e-07
-6.7028861e-07
3.1674541e-07
3.3637678e-08
-6.7320185e-07
1.2532451e-07
-9.0577436e-08
-6.7701549e-07
-6.6188202e-08
-2.1548755e-07
-6.8160658e-07
-2.5542017e-07
-3.3917585e-07
-6.8698972e-07
-4.4085307e-07
-4.5863284e-07
-6.9310773e-07
-6.185908e-07
-5.7021662e-07
-6.9978051e-07
-7.8460921e-07
-6.7021406e-07
-7.0691047e-07
-9.3640863e-07
-7.5553206e-07
-7.1435914e-07
-1.071655e-06
-8.2361596e-07
-7.2186792e-07
-1.1870382e-06
-8.7053377e-07
-7.2931726e-07
-1.2770166e-06
-8.9149276e-07
-7.3661195e-07
-1.3374169e-06
-8.8491966e-07
-7.4357571e-07
-1.3700925e-06
-8.5424623e-07
-7.4997613e-07
-1.3815735e-06
-8.0593892e-07
-7.5576744e-07
-1.3747571e-06
-7.4461083e-07
-7.6113708e-07
-1.345898e-06
-6.7050329e-07
-7.6612793e-07
-1.2920943e-06
-5.8572816e-07
-7.7105718e-07
-1.2108543e-06
-4.9368362e-07
-7.7597948e-07
-1.0922835e-06
-3.9283227e-07
-7.8098179e-07
-9.2165315e-07
-2.7564587e-07
-7.8720265e-07
-6.8486029e-07
-1.3967691e-07
-3.5477527e-07
-1.1345546e-08
-6.6512199e-07
-5.1419495e-07
-7.7057919e-07
7.0472565e-07
-6.6630627e-07
-3.4301927e-07
-5.588793e-07
4.6842225e-07
-6.6842684e-07
-1.5744973e-07
-3.3069724e-07
2.140916e-07
-6.7103068e-07
4.1365965e-08
-8.7935828e-08
-5.5278299e-08
-6.7425171e-07
2.4523222e-07
1.6180151e-07
-3.3056795e-07
-6.7838028e-07
4.4562673e-07
4.1005599e-07
-6.0175084e-07
-6.8329202e-07
6.3817225e-07
6.5192551e-07
-8.623868e-07
-6.8925101e-07
8.1848275e-07
8.8180654e-07
-1.1065789e-06
-6.9612815e-07
9.8327677e-07
1.0957788e-06
-1.3296252e-06
-7.0389807e-07
1.1300654e-06
1.2914743e-06
-1.5266598e-06
-7.1260169e-07
1.2559543e-06
1.4645779e-06