/*--------------------------------*- C++ -*----------------------------------*\
| =========                 |                                                 |
| \\      /  F ield         | OpenFOAM: The Open Source CFD Toolbox           |
|  \\    /   O peration     | Version:  4.1                                   |
|   \\  /    A nd           | Web:      www.OpenFOAM.org                      |
|    \\/     M anipulation  |                                                 |
\*---------------------------------------------------------------------------*/
FoamFile
{
    version     2.0;
    format      ascii;
    class       surfaceScalarField;
    location    "0.0052";
    object      phi;
}
// * * * * * * * * * * * * * * * * * * * * * * * * * * * * * * * * * * * * * //

dimensions      [0 3 -1 0 0 0 0];

internalField   nonuniform List<scalar> 
4288
(
-3.171e-09
-2.0144e-11
-1.9997e-11
2.1859e-11
2.1916e-11
-3.6014e-09
-2.1747e-11
-2.1325e-11
1.574e-11
1.5797e-11
-3.9664e-09
-1.0699e-11
-9.9963e-12
1.6444e-12
1.7477e-12
-4.2228e-09
1.2142e-11
1.31e-11
-2.0558e-11
-1.9938e-11
-4.3886e-09
1.1292e-11
1.2578e-11
-1.436e-11
-1.3612e-11
-4.5303e-09
4.4489e-12
5.5044e-12
6.0296e-12
6.6269e-12
-4.6814e-09
-3.2245e-12
-2.1061e-12
1.2404e-11
1.3066e-11
-4.8871e-09
2.8622e-11
2.9528e-11
-2.805e-11
-2.6969e-11
-5.1794e-09
6.9152e-11
7.0005e-11
-8.7619e-11
-8.7027e-11
-5.5913e-09
1.234e-10
1.2433e-10
-1.667e-10
-1.664e-10
-6.1475e-09
1.8906e-10
1.9008e-10
-2.6053e-10
-2.6022e-10
2.6158e-10
2.6278e-10
-3.6367e-10
-3.6261e-10
-3.1762e-09
-7.7635e-12
-4.7969e-12
-8.5528e-12
-3.5878e-09
-2.8411e-12
9.0248e-12
-4.8388e-11
-3.942e-09
4.0984e-12
1.5732e-11
-5.5192e-11
-4.2001e-09
1.1916e-11
1.9017e-11
-3.7083e-11
-4.3801e-09
7.6926e-12
4.122e-12
-8.869e-13
-4.5332e-09
-4.4961e-14
-7.6239e-12
3.2772e-11
-4.6969e-09
2.0047e-12
-4.2025e-12
1.526e-11
-4.9127e-09
2.4493e-11
3.2466e-11
-3.7038e-11
-5.2135e-09
6.3389e-11
8.787e-11
-1.389e-10
-5.632e-09
1.1467e-10
1.6123e-10
-2.7171e-10
-6.1922e-09
1.7597e-10
2.4711e-10
-4.2484e-10
2.4374e-10
3.4224e-10
-5.9293e-10
-3.1787e-09
-3.7635e-12
-2.6782e-12
-4.3862e-12
-3.5811e-09
-1.2163e-12
1.2995e-11
-3.8843e-11
-3.9297e-09
2.5725e-12
2.0555e-11
-4.7732e-11
-4.1894e-09
6.4309e-12
2.1787e-11
-3.6296e-11
-4.375e-09
4.544e-12
8.2659e-12
-6.8745e-12
-4.5357e-09
1.2544e-12
-5.1026e-12
2.2915e-11
-4.7057e-09
4.4358e-12
3.8905e-12
4.3208e-12
-4.9288e-09
1.4677e-11
3.752e-11
-4.5661e-11
-5.2358e-09
3.4226e-11
9.9177e-11
-1.4429e-10
-5.6588e-09
6.0469e-11
1.8228e-10
-2.7553e-10
-6.2219e-09
9.2073e-11
2.7914e-10
-4.2694e-10
1.272e-10
3.8644e-10
-5.9362e-10
-3.1801e-09
1.6958e-14
3.8843e-13
-8.4731e-12
-3.5777e-09
6.7845e-14
1.9074e-11
-4.6764e-11
-3.9233e-09
7.4016e-14
2.5567e-11
-5.3932e-11
-4.1838e-09
1.1838e-13
2.2864e-11
-3.7484e-11
-4.3724e-09
1.2457e-13
5.8209e-12
-3.7469e-12
-4.5366e-09
1.3516e-13
-8.416e-12
2.7203e-11
-4.7107e-09
1.6681e-13
2.9418e-12
9.4602e-12
-4.937e-09
4.0713e-13
3.9615e-11
-4.9099e-11
-5.2471e-09
4.9425e-13
1.0552e-10
-1.5561e-10
-5.6723e-09
4.7419e-13
1.94e-10
-2.9654e-10
-6.2369e-09
4.4494e-13
2.9674e-10
-4.5839e-10
4.2528e-13
4.1051e-10
-6.3644e-10
-3.1801e-09
3.7839e-12
3.6264e-13
-8.4298e-12
-3.5777e-09
1.3071e-12
1.9008e-11
-4.6645e-11
-3.9233e-09
-2.5011e-12
2.547e-11
-5.3752e-11
-4.1837e-09
-6.3148e-12
2.2719e-11
-3.7201e-11
-4.3723e-09
-4.2882e-12
5.7426e-12
-3.6843e-12
-4.5366e-09
-9.9496e-13
-8.4418e-12
2.722e-11
-4.7106e-09
-4.0747e-12
2.9545e-12
9.3403e-12
-4.937e-09
-1.4049e-11
3.9541e-11
-4.8876e-11
-5.2471e-09
-3.3478e-11
1.0543e-10
-1.5532e-10
-5.6723e-09
-5.9736e-11
1.9396e-10
-2.9637e-10
-6.2369e-09
-9.1372e-11
2.9673e-10
-4.5828e-10
-1.2649e-10
4.105e-10
-6.3634e-10
-3.1788e-09
7.741e-12
-2.7526e-12
-4.2567e-12
-3.5812e-09
2.7915e-12
1.281e-11
-3.8494e-11
-3.9297e-09
-4.2612e-12
2.0274e-11
-4.7197e-11
-4.1893e-09
-1.2113e-11
2.1446e-11
-3.5634e-11
-4.3748e-09
-7.6949e-12
8.0561e-12
-6.3901e-12
-4.5355e-09
9.3646e-14
-5.2362e-12
2.3182e-11
-4.7055e-09
-1.8422e-12
3.7794e-12
4.4376e-12
-4.9287e-09
-2.4405e-11
3.7518e-11
-4.5191e-11
-5.2358e-09
-6.3136e-11
9.9011e-11
-1.4379e-10
-5.6588e-09
-1.1431e-10
1.8226e-10
-2.7534e-10
-6.2219e-09
-1.7551e-10
2.792e-10
-4.2699e-10
-2.4316e-10
3.8649e-10
-5.9372e-10
-3.1764e-09
2.0095e-11
-4.8921e-12
-8.4122e-12
-3.5879e-09
2.1582e-11
8.797e-12
-4.8032e-11
-3.942e-09
1.0369e-11
1.5407e-11
-5.4674e-11
-4.1999e-09
-1.2535e-11
1.8613e-11
-3.651e-11
-4.3799e-09
-1.1706e-11
4.0205e-12
-3.6857e-13
-4.5329e-09
-4.5799e-12
-7.7682e-12
3.3031e-11
-4.6966e-09
3.104e-12
-4.1247e-12
1.5255e-11
-4.9124e-09
-2.8959e-11
3.2425e-11
-3.6783e-11
-5.2134e-09
-6.9182e-11
8.7922e-11
-1.3882e-10
-5.632e-09
-1.233e-10
1.6144e-10
-2.7192e-10
-6.1922e-09
-1.8881e-10
2.4738e-10
-4.2517e-10
-2.6106e-10
3.4243e-10
-5.9322e-10
-3.1712e-09
-2.0123e-11
2.2019e-11
2.1873e-11
-3.6015e-09
-2.1595e-11
1.6047e-11
1.5613e-11
-3.9663e-09
-1.04e-11
2.086e-12
1.4038e-12
-4.2224e-09
1.2668e-11
-2.0108e-11
-2.0414e-11
-4.3882e-09
1.2049e-11
-1.3687e-11
-1.4122e-11
-4.5298e-09
5.1215e-12
6.6118e-12
6.3166e-12
-4.6811e-09
-2.1946e-12
1.2689e-11
1.2777e-11
-4.8866e-09
3.0133e-11
-2.8309e-11
-2.802e-11
-5.1792e-09
7.0449e-11
-8.8179e-11
-8.694e-11
-5.5912e-09
1.2493e-10
-1.6766e-10
-1.6613e-10
-6.1474e-09
1.9068e-10
-2.6156e-10
-2.5981e-10
2.632e-10
-3.6411e-10
-3.62e-10
-3.1762e-09
-4.9277e-12
-7.6049e-12
-8.4665e-12
-3.5878e-09
8.6584e-12
-2.3964e-12
-4.8137e-11
-3.942e-09
1.5137e-11
4.8517e-12
-5.4776e-11
-4.2001e-09
1.8148e-11
1.2891e-11
-3.6389e-11
-4.3802e-09
3.4342e-12
8.9405e-12
-4.367e-14
-4.5334e-09
-8.6233e-12
1.0612e-12
3.3703e-11
-4.697e-09
-5.196e-12
3.1243e-12
1.6086e-11
-4.9126e-09
3.1607e-11
2.5598e-11
-3.6608e-11
-5.2136e-09
8.7023e-11
6.4415e-11
-1.385e-10
-5.6321e-09
1.6025e-10
1.1571e-10
-2.7135e-10
-6.1923e-09
2.4601e-10
1.7708e-10
-4.2461e-10
3.4092e-10
2.4493e-10
-5.9268e-10
-3.1768e-09
-2.987e-12
-2.8469e-12
-3.5732e-09
5.7977e-12
6.1878e-12
-3.9198e-09
1.0295e-11
1.0944e-11
-4.1797e-09
1.1851e-11
1.2702e-11
-4.3728e-09
2.6808e-12
3.6831e-12
-4.5355e-09
-4.5755e-12
-3.6206e-12
-4.7113e-09
-1.3511e-12
-4.2596e-13
-4.9344e-09
2.5245e-11
2.6022e-11
-5.243e-09
6.4683e-11
6.5698e-11
-5.6672e-09
1.1635e-10
1.1751e-10
-6.2303e-09
1.773e-10
1.7864e-10
2.4498e-10
2.4657e-10
-3.1785e-09
-1.9457e-12
-1.1179e-12
-3.567e-09
1.803e-12
9.5239e-12
-3.9087e-09
4.4976e-12
1.4617e-11
-4.1705e-09
6.0507e-12
1.4731e-11
-4.368e-09
2.708e-12
5.6779e-12
-4.5379e-09
-4.8228e-13
-2.1806e-12
-4.7194e-09
1.5069e-12
4.347e-12
-4.9498e-09
1.4494e-11
3.0547e-11
-5.2643e-09
3.471e-11
7.4856e-11
-5.6929e-09
6.1493e-11
1.3397e-10
-6.2588e-09
9.3259e-11
2.0345e-10
1.2862e-10
2.807e-10
-3.1795e-09
-4.0768e-15
2.6938e-13
-3.5639e-09
9.1714e-15
1.2272e-11
-3.9031e-09
-1.9334e-14
1.7165e-11
-4.1655e-09
-1.1254e-14
1.5707e-11
-4.3657e-09
-3.619e-14
5.6326e-12
-4.5391e-09
1.6358e-14
-2.6094e-12
-4.7237e-09
7.1665e-14
5.5205e-12
-4.9575e-09
1.6705e-13
3.3016e-11
-5.275e-09
2.7883e-13
8.019e-11
-5.7057e-09
2.7438e-13
1.4341e-10
-6.2731e-09
2.6273e-13
2.1758e-10
2.4574e-13
3.0003e-10
-3.1795e-09
1.9313e-12
2.5244e-13
-3.564e-09
-1.8002e-12
1.2229e-11
-3.9031e-09
-4.5689e-12
1.7103e-11
-4.1655e-09
-6.1332e-12
1.5632e-11
-4.3656e-09
-2.8086e-12
5.5619e-12
-4.5391e-09
4.8965e-13
-2.6337e-12
-4.7236e-09
-1.383e-12
5.5159e-12
-4.9575e-09
-1.4289e-11
3.3017e-11
-5.275e-09
-3.425e-11
8.0154e-11
-5.7057e-09
-6.1019e-11
1.434e-10
-6.2731e-09
-9.2792e-11
2.1757e-10
-1.2816e-10
3.0001e-10
-3.1786e-09
2.9546e-12
-1.1665e-12
-3.5671e-09
-5.8471e-12
9.405e-12
-3.9087e-09
-1.0461e-11
1.444e-11
-4.1704e-09
-1.206e-11
1.4532e-11
-4.3679e-09
-2.8813e-12
5.5033e-12
-4.5377e-09
4.4902e-12
-2.2838e-12
-4.7192e-09
1.2991e-12
4.2831e-12
-4.9497e-09
-2.5064e-11
3.0461e-11
-5.2642e-09
-6.4436e-11
7.4775e-11
-5.6928e-09
-1.1602e-10
1.3394e-10
-6.2588e-09
-1.7691e-10
2.0343e-10
-2.4452e-10
2.8063e-10
-3.177e-09
4.8821e-12
-2.9196e-12
-3.5733e-09
-8.7589e-12
6.0114e-12
-3.9198e-09
-1.5354e-11
1.0685e-11
-4.1796e-09
-1.8472e-11
1.2409e-11
-4.3725e-09
-3.6186e-12
3.4526e-12
-4.5352e-09
8.4611e-12
-3.7953e-12
-4.711e-09
5.088e-12
-4.6418e-13
-4.9341e-09
-3.1825e-11
2.6134e-11
-5.2428e-09
-8.6828e-11
6.5637e-11
-5.6671e-09
-1.5994e-10
1.175e-10
-6.2303e-09
-2.4559e-10
1.7861e-10
-3.4032e-10
2.4646e-10
-3.1764e-09
-7.7025e-12
-8.5075e-12
-3.5879e-09
-2.6213e-12
-4.8241e-11
-3.942e-09
4.4995e-12
-5.4964e-11
-4.1999e-09
1.2486e-11
-3.6703e-11
-4.3798e-09
8.3437e-12
-2.0044e-13
-4.5329e-09
6.3315e-13
3.3551e-11
-4.6965e-09
2.8559e-12
1.5985e-11
-4.9123e-09
2.553e-11
-3.6257e-11
-5.2133e-09
6.4287e-11
-1.3797e-10
-5.6319e-09
1.1564e-10
-2.7065e-10
-6.1922e-09
1.7697e-10
-4.2375e-10
2.4467e-10
-5.9151e-10
-3.1786e-09
-2.7732e-12
-3.6245e-12
-4.3229e-12
-3.5811e-09
1.2724e-11
-8.2808e-13
-3.8644e-11
-3.9296e-09
2.0059e-11
3.2219e-12
-4.7349e-11
-4.1893e-09
2.1031e-11
7.2801e-12
-3.5663e-11
-4.3751e-09
7.3692e-12
5.5616e-12
-5.6206e-12
-4.536e-09
-6.0072e-12
2.437e-12
2.3724e-11
-4.7057e-09
2.6494e-12
5.2846e-12
5.4055e-12
-4.9289e-09
3.6862e-11
1.5533e-11
-4.4851e-11
-5.2359e-09
9.8372e-11
3.4991e-11
-1.4362e-10
-5.6589e-09
1.8143e-10
6.1194e-11
-2.7497e-10
-6.2219e-09
2.7828e-10
9.2813e-11
-4.2661e-10
3.8552e-10
1.2798e-10
-5.9354e-10
-3.1785e-09
-1.236e-12
-1.8288e-12
-3.567e-09
9.1968e-12
2.13e-12
-3.9087e-09
1.4054e-11
5.0553e-12
-4.1705e-09
1.3987e-11
6.7996e-12
-4.368e-09
4.7998e-12
3.6228e-12
-4.5379e-09
-3.031e-12
3.798e-13
-4.7195e-09
3.3573e-12
2.129e-12
-4.9499e-09
2.9645e-11
1.5265e-11
-5.2643e-09
7.3886e-11
3.5469e-11
-5.6929e-09
1.3283e-10
6.2273e-11
-6.2588e-09
2.0212e-10
9.4075e-11
2.791e-10
1.2952e-10
-3.1798e-09
-5.8007e-13
-4.718e-13
-3.5608e-09
4.5383e-12
4.8367e-12
-3.8979e-09
7.0864e-12
7.6016e-12
-4.1612e-09
7.1292e-12
7.8184e-12
-4.3636e-09
2.7593e-12
3.6353e-12
-4.5399e-09
-7.0713e-13
1.0701e-13
-4.728e-09
2.8716e-12
3.6148e-12
-4.9648e-09
1.6868e-11
1.7599e-11
-5.2849e-09
4.0063e-11
4.0879e-11
-5.7178e-09
7.0946e-11
7.1855e-11
-6.2865e-09
1.074e-10
1.0842e-10
1.4799e-10
1.4918e-10
-3.1804e-09
-1.2301e-14
2.4795e-13
-3.5577e-09
-5.6536e-15
6.2943e-12
-3.8926e-09
-4.7345e-14
8.9798e-12
-4.1565e-09
-5.1587e-14
8.4056e-12
-4.3613e-09
-5.0394e-14
3.6121e-12
-4.5409e-09
-1.3875e-14
-1.9131e-14
-4.7322e-09
4.1167e-14
4.4058e-12
-4.9723e-09
1.1316e-13
1.9252e-11
-5.2952e-09
1.6491e-13
4.4257e-11
-5.7303e-09
1.6947e-13
7.7708e-11
-6.3004e-09
1.5863e-13
1.1714e-10
1.3998e-13
1.611e-10
-3.1805e-09
5.5329e-13
2.3781e-13
-3.5577e-09
-4.5582e-12
6.2709e-12
-3.8926e-09
-7.1979e-12
8.9466e-12
-4.1565e-09
-7.2584e-12
8.3682e-12
-4.3613e-09
-2.8809e-12
3.5638e-12
-4.5409e-09
6.592e-13
-3.2168e-14
-4.7322e-09
-2.8042e-12
4.3975e-12
-4.9722e-09
-1.6638e-11
1.9222e-11
-5.2952e-09
-3.977e-11
4.4229e-11
-5.7303e-09
-7.0643e-11
7.7683e-11
-6.3004e-09
-1.0711e-10
1.1711e-10
-1.4772e-10
1.6104e-10
-3.1799e-09
1.2047e-12
-5.0322e-13
-3.5609e-09
-9.2325e-12
4.7628e-12
-3.898e-09
-1.4204e-11
7.4982e-12
-4.1612e-09
-1.4174e-11
7.7055e-12
-4.3635e-09
-4.9996e-12
3.5369e-12
-4.5397e-09
2.9337e-12
2.6883e-14
-4.7278e-09
-3.3949e-12
3.5857e-12
-4.9647e-09
-2.9553e-11
1.7584e-11
-5.2848e-09
-7.3679e-11
4.0791e-11
-5.7178e-09
-1.3259e-10
7.1755e-11
-6.2865e-09
-2.0185e-10
1.0829e-10
-2.788e-10
1.4898e-10
-3.1786e-09
2.7429e-12
-1.8851e-12
-3.5671e-09
-1.277e-11
1.9961e-12
-3.9087e-09
-2.0228e-11
4.8713e-12
-4.1704e-09
-2.1284e-11
6.5975e-12
-4.3678e-09
-7.704e-12
3.5199e-12
-4.5377e-09
5.8039e-12
2.4843e-13
-4.7192e-09
-2.8096e-12
2.0778e-12
-4.9497e-09
-3.6772e-11
1.5291e-11
-5.2642e-09
-9.8212e-11
3.5288e-11
-5.6928e-09
-1.812e-10
6.2066e-11
-6.2588e-09
-2.7796e-10
9.3801e-11
-3.8508e-10
1.2913e-10
-3.1789e-09
-3.7176e-12
-4.31e-12
-3.5813e-09
-1.0436e-12
-3.8612e-11
-3.9297e-09
2.923e-12
-4.7408e-11
-4.1892e-09
6.9256e-12
-3.5808e-11
-4.3748e-09
5.0236e-12
-6.0296e-12
-4.5355e-09
1.9699e-12
2.356e-11
-4.7052e-09
5.1056e-12
5.1076e-12
-4.9286e-09
1.5303e-11
-4.4668e-11
-5.2357e-09
3.4637e-11
-1.4349e-10
-5.6587e-09
6.0804e-11
-2.7469e-10
-6.2219e-09
9.2319e-11
-4.262e-10
1.273e-10
-5.929e-10
-3.1799e-09
3.1793e-13
1.2931e-13
-8.4206e-12
-3.5776e-09
1.8873e-11
3.7406e-13
-4.6593e-11
-3.9232e-09
2.5177e-11
5.8332e-13
-5.3629e-11
-4.1836e-09
2.2234e-11
8.1032e-13
-3.698e-11
-4.3725e-09
4.743e-12
9.7589e-13
-2.451e-12
-4.537e-09
-9.2451e-12
9.6293e-13
2.8383e-11
-4.7106e-09
2.4292e-12
9.5453e-13
9.5363e-12
-4.9371e-09
3.9002e-11
1.0876e-12
-4.8341e-11
-5.2472e-09
1.0481e-10
1.07e-12
-1.5489e-10
-5.6723e-09
1.933e-10
1.0178e-12
-2.959e-10
-6.2369e-09
2.9605e-10
9.9172e-13
-4.5783e-10
4.0981e-10
1.0249e-12
-6.3601e-10
-3.1793e-09
1.7652e-13
9.1919e-14
-3.5638e-09
1.2013e-11
2.7688e-13
-3.903e-09
1.6702e-11
4.4334e-13
-4.1655e-09
1.5071e-11
6.1338e-13
-4.3657e-09
4.7082e-12
6.4768e-13
-4.5392e-09
-3.388e-12
7.4326e-13
-4.7238e-09
4.8072e-12
7.6794e-13
-4.9576e-09
3.23e-11
8.2093e-13
-5.275e-09
7.9361e-11
8.7757e-13
-5.7058e-09
1.4247e-10
8.731e-13
-6.2731e-09
2.165e-10
8.6119e-13
2.9877e-10
8.8036e-13
-3.1804e-09
1.5067e-13
7.7314e-14
-3.5576e-09
6.0275e-12
2.3827e-13
-3.8925e-09
8.5117e-12
3.8953e-13
-4.1565e-09
7.7702e-12
5.5387e-13
-4.3614e-09
2.8533e-12
6.437e-13
-4.541e-09
-7.7709e-13
7.1252e-13
-4.7323e-09
3.6771e-12
7.2845e-13
-4.9723e-09
1.8527e-11
7.491e-13
-5.2952e-09
4.3466e-11
7.9202e-13
-5.7303e-09
7.6817e-11
8.0381e-13
-6.3004e-09
1.1613e-10
8.0249e-13
1.5992e-10
8.2931e-13
-3.1809e-09
-1.679e-14
7.1396e-14
-3.5546e-09
-1.5259e-14
2.2399e-13
-3.8873e-09
-5.926e-14
3.7017e-13
-4.1519e-09
-6.732e-14
5.323e-13
-4.3592e-09
-5.2887e-14
6.4354e-13
-4.5419e-09
-2.3742e-14
7.0655e-13
-4.7365e-09
3.1829e-14
7.1323e-13
-4.9796e-09
7.7681e-14
7.3336e-13
-5.3053e-09
1.1495e-13
7.6122e-13
-5.7427e-09
1.076e-13
7.7837e-13
-6.3142e-09
8.679e-14
7.7965e-13
4.9867e-14
8.0762e-13
-3.181e-09
-1.8541e-13
6.9195e-14
-3.5546e-09
-6.0603e-12
2.1978e-13
-3.8873e-09
-8.6398e-12
3.6824e-13
-4.1519e-09
-7.9193e-12
5.3086e-13
-4.3592e-09
-2.9891e-12
6.4484e-13
-4.5418e-09
7.1824e-13
7.1286e-13
-4.7364e-09
-3.6227e-12
7.172e-13
-4.9796e-09
-1.8415e-11
7.3217e-13
-5.3053e-09
-4.3267e-11
7.4979e-13
-5.7426e-09
-7.6638e-11
7.6096e-13
-6.3142e-09
-1.16e-10
7.5397e-13
-1.5986e-10
7.6599e-13
-3.1805e-09
-2.1102e-13
6.4912e-14
-3.5577e-09
-1.2046e-11
2.1098e-13
-3.8926e-09
-1.6841e-11
3.6137e-13
-4.1565e-09
-1.5243e-11
5.2935e-13
-4.3613e-09
-4.9014e-12
6.4328e-13
-4.5408e-09
3.2702e-12
7.1464e-13
-4.7321e-09
-4.7879e-12
7.1819e-13
-4.9722e-09
-3.2138e-11
6.9354e-13
-5.2951e-09
-7.922e-11
6.9563e-13
-5.7303e-09
-1.4233e-10
6.6107e-13
-6.3004e-09
-2.1639e-10
5.9806e-13
-2.987e-10
5.377e-13
-3.1796e-09
-3.4837e-13
6.0538e-14
-3.564e-09
-1.8897e-11
2.0408e-13
-3.9031e-09
-2.5309e-11
3.5612e-13
-4.1654e-09
-2.2445e-11
5.3325e-13
-4.3656e-09
-4.9275e-12
6.2823e-13
-4.539e-09
9.0551e-12
7.0085e-13
-4.7235e-09
-2.4287e-12
6.9035e-13
-4.9574e-09
-3.8645e-11
6.7983e-13
-5.2749e-09
-1.0473e-10
6.3371e-13
-5.7057e-09
-1.9316e-10
5.2443e-13
-6.2731e-09
-2.9588e-10
3.7794e-13
-4.0959e-10
2.2336e-13
-3.1802e-09
7.0298e-14
-8.4239e-12
-3.5778e-09
2.3862e-13
-4.6572e-11
-3.9233e-09
4.0956e-13
-5.3645e-11
-4.1836e-09
5.8508e-13
-3.7047e-11
-4.3722e-09
6.8087e-13
-2.8338e-12
-4.5366e-09
7.375e-13
2.8033e-11
-4.7103e-09
8.0619e-13
9.6004e-12
-4.9368e-09
7.0421e-13
-4.7836e-11
-5.247e-09
6.6956e-13
-1.5495e-10
-5.6722e-09
5.0539e-13
-2.9586e-10
-6.2368e-09
3.0321e-13
-4.5771e-10
1.0138e-13
-6.3572e-10
-3.1799e-09
3.1463e-13
3.869e-12
-8.4114e-12
-3.5775e-09
1.8873e-11
1.5439e-12
-4.6588e-11
-3.9231e-09
2.5182e-11
-2.1167e-12
-5.3621e-11
-4.1836e-09
2.222e-11
-5.7915e-12
-3.6887e-11
-4.3725e-09
4.86e-12
-3.5432e-12
-2.6804e-12
-4.5369e-09
-9.1042e-12
-3.5134e-13
2.7994e-11
-4.7106e-09
2.5523e-12
-3.1099e-12
9.0243e-12
-4.9371e-09
3.9056e-11
-1.3466e-11
-4.8362e-11
-5.2472e-09
1.0489e-10
-3.298e-11
-1.5494e-10
-5.6723e-09
1.9342e-10
-5.9235e-11
-2.9605e-10
-6.2369e-09
2.9619e-10
-9.0889e-11
-4.5803e-10
4.0994e-10
-1.2606e-10
-6.361e-10
-3.1793e-09
1.7633e-13
2.0003e-12
-3.5638e-09
1.2018e-11
-1.6106e-12
-3.903e-09
1.6713e-11
-4.2243e-12
-4.1655e-09
1.5084e-11
-5.6364e-12
-4.3657e-09
4.7831e-12
-2.3717e-12
-4.5392e-09
-3.3004e-12
1.084e-12
-4.7238e-09
4.9168e-12
-6.8194e-13
-4.9576e-09
3.2357e-11
-1.3721e-11
-5.275e-09
7.9424e-11
-3.3787e-11
-5.7058e-09
1.4255e-10
-6.0585e-11
-6.2731e-09
2.166e-10
-9.2395e-11
2.9887e-10
-1.2781e-10
-3.1803e-09
1.505e-13
6.1876e-13
-3.5576e-09
6.0297e-12
-4.3814e-12
-3.8925e-09
8.5182e-12
-6.8556e-12
-4.1565e-09
7.7823e-12
-6.7457e-12
-4.3614e-09
2.892e-12
-2.3652e-12
-4.5409e-09
-7.4029e-13
1.311e-12
-4.7322e-09
3.7151e-12
-2.1568e-12
-4.9723e-09
1.8574e-11
-1.6169e-11
-5.2952e-09
4.3501e-11
-3.9337e-11
-5.7303e-09
7.686e-11
-7.0281e-11
-6.3004e-09
1.1618e-10
-1.0684e-10
1.5996e-10
-1.4755e-10
-3.1809e-09
-1.8922e-14
-1.0967e-13
-3.5545e-09
-1.8657e-14
-5.8588e-12
-3.8873e-09
-6.5297e-14
-8.2564e-12
-4.1518e-09
-7.1668e-14
-7.3522e-12
-4.3592e-09
-5.2788e-14
-2.321e-12
-4.5419e-09
-2.0702e-14
1.423e-12
-4.7364e-09
3.3586e-14
-3.0001e-12
-4.9796e-09
7.1473e-14
-1.7791e-11
-5.3053e-09
1.0246e-13
-4.2747e-11
-5.7427e-09
9.0773e-14
-7.6154e-11
-6.3142e-09
6.0268e-14
-1.1557e-10
7.8673e-15
-1.5946e-10
-3.1809e-09
-1.9323e-13
-9.8907e-14
-3.5546e-09
-6.0794e-12
-5.829e-12
-3.8873e-09
-8.6641e-12
-8.2118e-12
-4.1518e-09
-7.9437e-12
-7.3029e-12
-4.3592e-09
-3.0103e-12
-2.273e-12
-4.5418e-09
6.925e-13
1.4605e-12
-4.7364e-09
-3.6552e-12
-2.9698e-12
-4.9796e-09
-1.8476e-11
-1.7745e-11
-5.3053e-09
-4.3365e-11
-4.269e-11
-5.7426e-09
-7.6788e-11
-7.6077e-11
-6.3142e-09
-1.1621e-10
-1.1546e-10
-1.6014e-10
-1.5932e-10
-3.1805e-09
-2.1833e-13
6.4157e-13
-3.5577e-09
-1.2062e-11
-4.3182e-12
-3.8926e-09
-1.6864e-11
-6.7555e-12
-4.1564e-09
-1.5265e-11
-6.631e-12
-4.3613e-09
-4.9565e-12
-2.2156e-12
-4.5408e-09
3.2189e-12
1.421e-12
-4.7321e-09
-4.8604e-12
-2.1109e-12
-4.9722e-09
-3.2206e-11
-1.6171e-11
-5.2951e-09
-7.9359e-11
-3.9272e-11
-5.7303e-09
-1.4256e-10
-7.0198e-11
-6.3004e-09
-2.1672e-10
-1.0673e-10
-2.9914e-10
-1.4741e-10
-3.1796e-09
-3.435e-13
2.0176e-12
-3.564e-09
-1.8879e-11
-1.5631e-12
-3.9031e-09
-2.5289e-11
-4.1349e-12
-4.1654e-09
-2.2424e-11
-5.5188e-12
-4.3656e-09
-4.9952e-12
-2.2321e-12
-4.539e-09
8.9902e-12
1.1788e-12
-4.7235e-09
-2.4593e-12
-7.1438e-13
-4.9574e-09
-3.8685e-11
-1.3856e-11
-5.2749e-09
-1.048e-10
-3.3874e-11
-5.7057e-09
-1.9332e-10
-6.0731e-11
-6.2731e-09
-2.9612e-10
-9.2593e-11
-4.0992e-10
-1.2809e-10
-3.1802e-09
3.8636e-12
-8.4136e-12
-3.5778e-09
1.5277e-12
-4.6534e-11
-3.9233e-09
-2.106e-12
-5.3589e-11
-4.1836e-09
-5.7712e-12
-3.6976e-11
-4.3722e-09
-3.5563e-12
-2.996e-12
-4.5366e-09
-3.5479e-13
2.7829e-11
-4.7103e-09
-3.2717e-12
9.3855e-12
-4.9368e-09
-1.376e-11
-4.7952e-11
-5.2469e-09
-3.3272e-11
-1.5493e-10
-5.6722e-09
-5.9651e-11
-2.9599e-10
-6.2369e-09
-9.141e-11
-4.5798e-10
-1.2668e-10
-6.3613e-10
-3.1785e-09
-2.7911e-12
7.7609e-12
-4.2358e-12
-3.5809e-09
1.2705e-11
2.8609e-12
-3.8434e-11
-3.9295e-09
2.0058e-11
-4.1026e-12
-4.7117e-11
-4.1891e-09
2.1054e-11
-1.1808e-11
-3.5457e-11
-4.375e-09
7.681e-12
-7.274e-12
-5.6719e-12
-4.5359e-09
-5.7854e-12
5.7438e-13
2.3722e-11
-4.7056e-09
2.8361e-12
-8.1374e-13
4.8559e-12
-4.9288e-09
3.7128e-11
-2.397e-11
-4.495e-11
-5.2359e-09
9.856e-11
-6.2763e-11
-1.437e-10
-5.6588e-09
1.8175e-10
-1.14e-10
-2.7534e-10
-6.222e-09
2.7865e-10
-1.7529e-10
-4.2713e-10
3.8591e-10
-2.4322e-10
-5.9404e-10
-3.1783e-09
-1.2368e-12
2.9786e-12
-3.5669e-09
9.2115e-12
-5.7885e-12
-3.9086e-09
1.4098e-11
-1.0291e-11
-4.1704e-09
1.4066e-11
-1.1708e-11
-4.3679e-09
5.0538e-12
-2.6036e-12
-4.5379e-09
-2.7888e-12
4.8656e-12
-4.7194e-09
3.7328e-12
1.3973e-12
-4.9498e-09
2.9861e-11
-2.4682e-11
-5.2643e-09
7.4076e-11
-6.4262e-11
-5.6929e-09
1.3308e-10
-1.1601e-10
-6.2588e-09
2.0239e-10
-1.7709e-10
2.7938e-10
-2.4501e-10
-3.1797e-09
-5.817e-13
1.2463e-12
-3.5607e-09
4.5439e-12
-9.1296e-12
-3.8978e-09
7.108e-12
-1.3959e-11
-4.1611e-09
7.1738e-12
-1.3733e-11
-4.3635e-09
2.9473e-12
-4.4819e-12
-4.5398e-09
-5.8491e-13
3.5383e-12
-4.7279e-09
2.9434e-12
-2.7877e-12
-4.9648e-09
1.696e-11
-2.9203e-11
-5.2848e-09
4.0169e-11
-7.3446e-11
-5.7178e-09
7.1078e-11
-1.325e-10
-6.2865e-09
1.0755e-10
-2.0196e-10
1.4815e-10
-2.7916e-10
-3.1804e-09
-1.7806e-14
-1.4325e-13
-3.5576e-09
-1.5222e-14
-1.1877e-11
-3.8925e-09
-5.8781e-14
-1.6498e-11
-4.1564e-09
-6.8353e-14
-1.469e-11
-4.3613e-09
-4.6131e-14
-4.224e-12
-4.5409e-09
-1.3684e-14
3.9918e-12
-4.7322e-09
3.9963e-14
-4.2124e-12
-4.9722e-09
1.06e-13
-3.1625e-11
-5.2951e-09
1.6208e-13
-7.8753e-11
-5.7303e-09
1.8082e-13
-1.4192e-10
-6.3004e-09
1.8569e-13
-2.1606e-10
1.6274e-13
-2.9846e-10
-3.1804e-09
5.3468e-13
-1.2198e-13
-3.5577e-09
-4.6054e-12
-1.1818e-11
-3.8925e-09
-7.2633e-12
-1.6408e-11
-4.1564e-09
-7.34e-12
-1.4586e-11
-4.3613e-09
-3.0518e-12
-4.1209e-12
-4.5409e-09
5.6422e-13
4.0664e-12
-4.7321e-09
-2.871e-12
-4.1589e-12
-4.9722e-09
-1.6802e-11
-3.1556e-11
-5.2951e-09
-3.9989e-11
-7.865e-11
-5.7303e-09
-7.0948e-11
-1.4181e-10
-6.3004e-09
-1.0752e-10
-2.1591e-10
-1.4827e-10
-2.9827e-10
-3.1798e-09
1.1811e-12
1.3061e-12
-3.5608e-09
-9.292e-12
-8.9659e-12
-3.8979e-09
-1.4284e-11
-1.371e-11
-4.1611e-09
-1.4266e-11
-1.3455e-11
-4.3635e-09
-5.1685e-12
-4.1838e-12
-4.5397e-09
2.7869e-12
3.756e-12
-4.7278e-09
-3.6953e-12
-2.6216e-12
-4.9646e-09
-2.9847e-11
-2.8987e-11
-5.2848e-09
-7.4078e-11
-7.3159e-11
-5.7177e-09
-1.3322e-10
-1.3216e-10
-6.2865e-09
-2.0273e-10
-2.0149e-10
-2.7999e-10
-2.7856e-10
-3.1786e-09
2.7477e-12
3.0646e-12
-3.5671e-09
-1.2747e-11
-5.5584e-12
-3.9087e-09
-2.0202e-11
-9.9431e-12
-4.1704e-09
-2.1278e-11
-1.132e-11
-4.3678e-09
-7.8438e-12
-2.1468e-12
-4.5377e-09
5.7039e-12
5.2316e-12
-4.7191e-09
-3.0685e-12
1.8218e-12
-4.9496e-09
-3.6966e-11
-2.4633e-11
-5.2641e-09
-9.851e-11
-6.3946e-11
-5.6928e-09
-1.8176e-10
-1.1562e-10
-6.2588e-09
-2.7876e-10
-1.7656e-10
-3.8611e-10
-2.4436e-10
-3.1789e-09
7.8491e-12
-4.2737e-12
-3.5812e-09
3.0619e-12
-3.8467e-11
-3.9297e-09
-3.7728e-12
-4.7196e-11
-4.1892e-09
-1.1407e-11
-3.5652e-11
-4.3748e-09
-6.9287e-12
-6.0758e-12
-4.5355e-09
8.7351e-13
2.3591e-11
-4.7053e-09
-8.7199e-13
4.8498e-12
-4.9286e-09
-2.4031e-11
-4.4705e-11
-5.2356e-09
-6.2677e-11
-1.4367e-10
-5.6587e-09
-1.1388e-10
-2.7533e-10
-6.2219e-09
-1.7508e-10
-4.2716e-10
-2.4297e-10
-5.9396e-10
-3.176e-09
-4.9135e-12
2.0087e-11
-8.4328e-12
-3.5876e-09
8.7284e-12
2.1543e-11
-4.8031e-11
-3.9417e-09
1.5282e-11
1.0367e-11
-5.4699e-11
-4.1997e-09
1.8339e-11
-1.2345e-11
-3.6484e-11
-4.3801e-09
3.9162e-12
-1.1789e-11
3.2279e-13
-4.5333e-09
-8.0032e-12
-4.3334e-12
3.3368e-11
-4.6968e-09
-4.2145e-12
3.6302e-12
1.5498e-11
-4.9125e-09
3.1992e-11
-2.8525e-11
-3.6644e-11
-5.2135e-09
8.7358e-11
-6.8922e-11
-1.3854e-10
-5.632e-09
1.6075e-10
-1.2317e-10
-2.7164e-10
-6.1923e-09
2.4655e-10
-1.8879e-10
-4.2493e-10
3.4152e-10
-2.6151e-10
-5.9323e-10
-3.1766e-09
-2.9744e-12
4.8969e-12
-3.573e-09
5.8554e-12
-8.7324e-12
-3.9195e-09
1.0415e-11
-1.5257e-11
-4.1796e-09
1.2033e-11
-1.8125e-11
-4.3725e-09
3.2049e-12
-3.4684e-12
-4.5354e-09
-4.1177e-12
8.7662e-12
-4.7112e-09
-5.7587e-13
5.0892e-12
-4.9342e-09
2.5699e-11
-3.1655e-11
-5.2429e-09
6.5043e-11
-8.6768e-11
-5.6671e-09
1.1675e-10
-1.6e-10
-6.2303e-09
1.7772e-10
-2.4578e-10
2.4543e-10
-3.409e-10
-3.1784e-09
-1.9487e-12
2.7898e-12
-3.5669e-09
1.8094e-12
-1.2658e-11
-3.9085e-09
4.5292e-12
-1.9999e-11
-4.1703e-09
6.1151e-12
-2.0812e-11
-4.3679e-09
2.9359e-12
-7.0485e-12
-4.5378e-09
-3.1965e-13
6.4744e-12
-4.7194e-09
1.3166e-12
-1.5777e-12
-4.9497e-09
1.4742e-11
-3.6384e-11
-5.2642e-09
3.4882e-11
-9.791e-11
-5.6928e-09
6.1694e-11
-1.8094e-10
-6.2588e-09
9.3481e-11
-2.7776e-10
1.2887e-10
-3.8502e-10
-3.1793e-09
-1.7341e-14
-2.7968e-13
-3.5638e-09
-1.7252e-14
-1.8735e-11
-3.9029e-09
-5.8528e-14
-2.4989e-11
-4.1654e-09
-7.6151e-14
-2.1837e-11
-4.3656e-09
-4.8857e-14
-4.3577e-12
-4.5391e-09
-3.1701e-14
9.8342e-12
-4.7236e-09
1.6582e-14
-2.0537e-12
-4.9574e-09
1.2173e-13
-3.8225e-11
-5.2749e-09
2.3915e-13
-1.0417e-10
-5.7057e-09
2.92e-13
-1.9262e-10
-6.2731e-09
3.2834e-13
-2.9535e-10
3.6896e-13
-4.0911e-10
-3.1794e-09
1.9024e-12
-2.5739e-13
-3.5639e-09
-1.8764e-12
-1.8667e-11
-3.903e-09
-4.6865e-12
-2.4871e-11
-4.1654e-09
-6.2967e-12
-2.1681e-11
-4.3656e-09
-3.0266e-12
-4.1991e-12
-4.5391e-09
2.725e-13
9.9526e-12
-4.7236e-09
-1.2861e-12
-1.9836e-12
-4.9574e-09
-1.4558e-11
-3.816e-11
-5.2749e-09
-3.4521e-11
-1.0413e-10
-5.7057e-09
-6.1307e-11
-1.9268e-10
-6.2731e-09
-9.3099e-11
-2.9548e-10
-1.2854e-10
-4.0929e-10
-3.1785e-09
2.9156e-12
2.857e-12
-3.5671e-09
-5.9561e-12
-1.246e-11
-3.9086e-09
-1.0623e-11
-1.9655e-11
-4.1704e-09
-1.2253e-11
-2.04e-11
-4.3678e-09
-3.2502e-12
-6.6227e-12
-4.5377e-09
4.163e-12
6.7729e-12
-4.7192e-09
8.3731e-13
-1.5891e-12
-4.9496e-09
-2.5574e-11
-3.6169e-11
-5.2641e-09
-6.4965e-11
-9.7637e-11
-5.6928e-09
-1.1675e-10
-1.8084e-10
-6.2588e-09
-1.7787e-10
-2.7774e-10
-2.4586e-10
-3.8501e-10
-3.177e-09
4.8688e-12
5.0152e-12
-3.5732e-09
-8.8046e-12
-8.4023e-12
-3.9197e-09
-1.5439e-11
-1.4735e-11
-4.1796e-09
-1.8575e-11
-1.7531e-11
-4.3725e-09
-3.775e-12
-2.8889e-12
-4.5353e-09
8.1257e-12
9.2923e-12
-4.711e-09
4.5204e-12
5.6488e-12
-4.934e-09
-3.2156e-11
-3.1171e-11
-5.2427e-09
-8.7382e-11
-8.6205e-11
-5.667e-09
-1.6082e-10
-1.5948e-10
-6.2303e-09
-2.4676e-10
-2.4517e-10
-3.4197e-10
-3.4018e-10
-3.1764e-09
2.0252e-11
-8.4789e-12
-3.5879e-09
2.1982e-11
-4.8173e-11
-3.942e-09
1.1044e-11
-5.4911e-11
-4.1999e-09
-1.1608e-11
-3.6742e-11
-4.3799e-09
-1.0799e-11
-1.1418e-13
-4.533e-09
-3.6176e-12
3.3283e-11
-4.6965e-09
4.0382e-12
1.5595e-11
-4.9123e-09
-2.873e-11
-3.6314e-11
-5.2133e-09
-6.8524e-11
-1.3856e-10
-5.6318e-09
-1.2263e-10
-2.7162e-10
-6.1922e-09
-1.8808e-10
-4.2489e-10
-2.6072e-10
-5.9312e-10
-3.1708e-09
-2.0122e-11
2.1898e-11
2.1962e-11
-3.6011e-09
-2.1593e-11
1.5633e-11
1.5943e-11
-3.966e-09
-1.0404e-11
1.4339e-12
1.9089e-12
-4.2221e-09
1.2589e-11
-2.0289e-11
-2.0224e-11
-4.3884e-09
1.2368e-11
-1.4061e-11
-1.383e-11
-4.5302e-09
5.0847e-12
6.4222e-12
6.7553e-12
-4.6813e-09
-2.6813e-12
1.3159e-11
1.3125e-11
-4.8868e-09
2.9555e-11
-2.7813e-11
-2.7551e-11
-5.1792e-09
6.9852e-11
-8.6952e-11
-8.7412e-11
-5.5913e-09
1.2424e-10
-1.6613e-10
-1.669e-10
-6.1475e-09
1.8987e-10
-2.5972e-10
-2.6077e-10
2.6246e-10
-3.6263e-10
-3.636e-10
-3.176e-09
-7.7435e-12
-8.476e-12
-3.5876e-09
-2.744e-12
-4.8149e-11
-3.9417e-09
4.3015e-12
-5.4852e-11
-4.1996e-09
1.2207e-11
-3.644e-11
-4.38e-09
8.1161e-12
5.9683e-13
-4.5333e-09
3.1456e-13
3.4022e-11
-4.6967e-09
1.6872e-12
1.6376e-11
-4.9124e-09
2.5265e-11
-3.6465e-11
-5.2134e-09
6.3978e-11
-1.3803e-10
-5.632e-09
1.1524e-10
-2.7062e-10
-6.1923e-09
1.7648e-10
-4.2359e-10
2.4431e-10
-5.9178e-10
-3.1785e-09
-3.7839e-12
-4.2749e-12
-3.5809e-09
-1.2512e-12
-3.851e-11
-3.9294e-09
2.5612e-12
-4.7237e-11
-4.1889e-09
6.4436e-12
-3.5522e-11
-4.3749e-09
4.6393e-12
-5.1657e-12
-4.5359e-09
1.4055e-12
2.4272e-11
-4.7054e-09
4.1105e-12
5.7368e-12
-4.9287e-09
1.5047e-11
-4.4416e-11
-5.2357e-09
3.443e-11
-1.4314e-10
-5.6587e-09
6.064e-11
-2.7429e-10
-6.2219e-09
9.2251e-11
-4.2575e-10
1.2738e-10
-5.9236e-10
-3.1799e-09
-2.7388e-14
-8.3818e-12
-3.5775e-09
-3.9523e-14
-4.6485e-11
-3.9231e-09
-8.196e-14
-5.3474e-11
-4.1833e-09
-1.1129e-13
-3.6681e-11
-4.3724e-09
-1.6239e-13
-1.714e-12
-4.5369e-09
-8.3248e-14
2.8878e-11
-4.7102e-09
-6.1781e-16
9.0878e-12
-4.9369e-09
1.2973e-13
-4.7163e-11
-5.247e-09
2.2749e-13
-1.543e-10
-5.6722e-09
2.0987e-13
-2.9523e-10
-6.2369e-09
2.2252e-13
-4.5711e-10
1.8411e-13
-6.3511e-10
-3.18e-09
3.7193e-12
-8.3475e-12
-3.5776e-09
1.1366e-12
-4.637e-11
-3.9231e-09
-2.7614e-12
-5.3288e-11
-4.1834e-09
-6.6789e-12
-3.6445e-11
-4.3724e-09
-4.9389e-12
-1.5389e-12
-4.5369e-09
-1.5913e-12
2.9085e-11
-4.7102e-09
-4.2606e-12
9.3368e-12
-4.9369e-09
-1.463e-11
-4.7266e-11
-5.247e-09
-3.3923e-11
-1.5439e-10
-5.6722e-09
-6.0152e-11
-2.9554e-10
-6.2369e-09
-9.1741e-11
-4.5759e-10
-1.2691e-10
-6.3579e-10
-3.1787e-09
7.6824e-12
-4.2104e-12
-3.5811e-09
2.6127e-12
-3.8286e-11
-3.9295e-09
-4.5415e-12
-4.6784e-11
-4.189e-09
-1.2459e-11
-3.4945e-11
-4.375e-09
-8.4076e-12
-4.6296e-12
-4.5358e-09
-3.5429e-13
2.4578e-11
-4.7052e-09
-2.0822e-12
5.9908e-12
-4.9286e-09
-2.5064e-11
-4.3981e-11
-5.2357e-09
-6.3571e-11
-1.4302e-10
-5.6587e-09
-1.1475e-10
-2.7476e-10
-6.2219e-09
-1.7601e-10
-4.2654e-10
-2.44e-10
-5.9335e-10
-3.1763e-09
2.0077e-11
-8.366e-12
-3.5879e-09
2.1498e-11
-4.7845e-11
-3.9419e-09
1.0209e-11
-5.4279e-11
-4.1998e-09
-1.2791e-11
-3.5735e-11
-4.38e-09
-1.2374e-11
9.6517e-13
-4.5331e-09
-4.9602e-12
3.4524e-11
-4.6965e-09
2.706e-12
1.6607e-11
-4.9122e-09
-2.9877e-11
-3.5487e-11
-5.2133e-09
-6.9719e-11
-1.374e-10
-5.6318e-09
-1.2395e-10
-2.7038e-10
-6.1923e-09
-1.8963e-10
-4.2346e-10
-2.6246e-10
-5.9166e-10
-3.1713e-09
2.1905e-11
2.2086e-11
-3.6015e-09
1.573e-11
1.6181e-11
-3.9663e-09
1.6005e-12
2.2658e-12
-4.2224e-09
-2.0423e-11
-1.9443e-11
-4.3883e-09
-1.4103e-11
-1.3002e-11
-4.53e-09
6.5464e-12
7.5146e-12
-4.6812e-09
1.3041e-11
1.3913e-11
-4.8863e-09
-2.8735e-11
-2.7555e-11
-5.179e-09
-8.7604e-11
-8.6022e-11
-5.591e-09
-1.6697e-10
-1.6522e-10
-6.1475e-09
-2.607e-10
-2.5877e-10
-3.6368e-10
-3.6162e-10
2.0466e-08
1.1397e-10
-2.8653e-10
2.1089e-12
1.8615e-08
7.8162e-11
-2.0689e-10
1.5538e-12
1.7302e-08
4.3114e-11
-1.3162e-10
1.3688e-12
1.6436e-08
1.1134e-11
-5.6196e-11
1.4215e-12
1.5875e-08
-8.9351e-12
1.9496e-11
8.2026e-13
1.5458e-08
-1.9889e-11
9.0928e-11
1.7616e-12
1.5038e-08
-2.7694e-11
1.0846e-10
1.5639e-12
1.4486e-08
-2.1733e-11
5.0579e-11
2.0057e-12
1.3628e-08
7.9706e-12
-2.3564e-11
1.7984e-12
1.238e-08
2.7887e-11
-4.4362e-11
1.3377e-12
1.0885e-08
2.8568e-11
-5.3493e-11
9.4059e-13
6.1546e-12
1.8196e-11
3.0699e-13
2.4509e-08
1.1586e-10
-5.9079e-10
2.2293e-08
8.0144e-11
-4.2393e-10
2.0697e-08
4.5811e-11
-2.6897e-10
1.9615e-08
1.5693e-11
-1.2333e-10
1.8891e-08
-4.171e-12
7.3285e-12
1.8324e-08
-1.5334e-11
1.1947e-10
1.7752e-08
-1.3036e-11
1.5637e-10
1.7056e-08
-8.2117e-12
5.4714e-11
1.6031e-08
9.8788e-12
-4.5153e-11
1.4619e-08
1.1e-11
-1.3266e-10
1.2939e-08
4.5031e-12
-1.5017e-10
-6.2586e-12
-2.5769e-11
2.7287e-08
7.7633e-11
-6.2838e-10
2.482e-08
5.4191e-11
-4.5036e-10
2.3028e-08
3.141e-11
-2.8517e-10
2.1798e-08