/*--------------------------------*- C++ -*----------------------------------*\
| =========                 |                                                 |
| \\      /  F ield         | OpenFOAM: The Open Source CFD Toolbox           |
|  \\    /   O peration     | Version:  4.1                                   |
|   \\  /    A nd           | Web:      www.OpenFOAM.org                      |
|    \\/     M anipulation  |                                                 |
\*---------------------------------------------------------------------------*/
FoamFile
{
    version     2.0;
    format      ascii;
    class       surfaceScalarField;
    location    "0.0065";
    object      phi;
}
// * * * * * * * * * * * * * * * * * * * * * * * * * * * * * * * * * * * * * //

dimensions      [0 3 -1 0 0 0 0];

internalField   nonuniform List<scalar> 
4288
(
6.0338e-09
-2.4148e-10
-2.451e-10
7.4975e-10
7.7086e-10
6.8911e-09
-5.7793e-12
-7.4706e-12
3.9248e-10
3.8984e-10
7.1777e-09
2.5039e-10
2.4994e-10
-1.8686e-10
-1.8509e-10
6.7855e-09
1.8678e-10
1.8732e-10
-3.0726e-10
-3.0648e-10
5.702e-09
2.2001e-10
2.2148e-10
-3.6249e-10
-3.6204e-10
4.4537e-09
3.5264e-10
3.542e-10
-5.8697e-10
-5.8557e-10
3.2457e-09
3.6715e-10
3.6955e-10
-6.1759e-10
-6.1597e-10
2.2333e-09
3.8591e-10
3.8811e-10
-6.1615e-10
-6.1424e-10
1.4513e-09
3.3033e-10
3.3221e-10
-5.2583e-10
-5.2422e-10
8.2881e-10
1.78e-10
1.7918e-10
-3.2368e-10
-3.2325e-10
3.3394e-11
-4.6609e-10
-4.6561e-10
5.125e-10
5.1196e-10
-7.5337e-10
-7.5328e-10
9.0284e-10
9.0317e-10
5.8194e-09
-6.3458e-10
-1.3895e-09
3.0554e-09
6.7478e-09
-3.0471e-10
-9.6655e-10
2.1248e-09
7.0359e-09
1.2864e-10
-3.9256e-10
7.5998e-10
6.6886e-09
2.6907e-10
5.1359e-11
-3.3812e-10
5.6491e-09
4.1199e-10
2.8144e-10
-7.5695e-10
4.4386e-09
5.0202e-10
4.9055e-10
-1.1368e-09
3.2714e-09
4.8434e-10
5.6994e-10
-1.2533e-09
2.3067e-09
4.7918e-10
5.7425e-10
-1.2264e-09
1.5328e-09
4.0467e-10
5.5202e-10
-1.0851e-09
9.028e-10
2.6823e-10
3.5124e-10
-7.7455e-10
7.4751e-11
-1.7581e-10
-2.626e-10
7.1442e-11
-4.6202e-10
-6.327e-10
6.7891e-10
5.6083e-09
-2.5341e-10
-1.6676e-09
2.8097e-09
6.5681e-09
-8.3805e-11
-1.094e-09
1.8383e-09
6.8327e-09
1.5331e-10
-3.8616e-10
7.283e-10
6.5069e-09
2.6517e-10
2.0996e-10
-3.7063e-10
5.6069e-09
2.2064e-10
4.5644e-10
-6.6041e-10
4.4582e-09
2.6099e-10
7.2679e-10
-1.0471e-09
3.3091e-09
2.4551e-10
7.9536e-10
-1.1697e-09
2.36e-09
2.3622e-10
7.5395e-10
-1.1319e-09
1.602e-09
1.9926e-10
6.8769e-10
-1.0072e-09
9.7134e-10
1.2211e-10
4.3875e-10
-6.6548e-10
1.4459e-10
-9.8193e-11
-1.7239e-10
1.7028e-10
-2.3119e-10
-5.9022e-10
7.1142e-10
5.5372e-09
4.0986e-13
-1.9868e-09
3.3538e-09
6.4612e-09
-1.8692e-13
-1.3993e-09
2.389e-09
6.7457e-09
-2.4598e-13
-6.7465e-10
1.2276e-09
6.4529e-09
-1.4603e-13
1.4194e-11
8.7405e-11
5.5856e-09
-4.8022e-14
4.2197e-10
-6.1261e-10
4.4659e-09
1.1786e-13
6.8528e-10
-1.0143e-09
3.3297e-09
2.5343e-13
7.8947e-10
-1.1839e-09
2.3833e-09
4.3912e-13
7.4934e-10
-1.1601e-09
1.6343e-09
4.2842e-13
7.0266e-10
-1.0631e-09
9.9603e-10
4.4684e-13
4.5606e-10
-7.2027e-10
1.6701e-10
4.4648e-13
-1.4504e-10
1.1254e-10
1.7905e-13
-5.6861e-10
6.9187e-10
5.5371e-09
2.5423e-10
-1.9864e-09
3.3533e-09
6.4612e-09
8.3295e-11
-1.399e-09
2.3887e-09
6.7457e-09
-1.538e-10
-6.7452e-10
1.2274e-09
6.4529e-09
-2.657e-10
1.415e-11
8.7683e-11
5.5856e-09
-2.2115e-10
4.2202e-10
-6.1231e-10
4.4659e-09
-2.6094e-10
6.8468e-10
-1.0134e-09
3.3297e-09
-2.4543e-10
7.8912e-10
-1.183e-09
2.3833e-09
-2.3591e-10
7.4897e-10
-1.1591e-09
1.6342e-09
-1.9881e-10
7.0215e-10
-1.0621e-09
9.9604e-10
-1.2169e-10
4.556e-10
-7.1927e-10
1.6701e-10
9.8797e-11
-1.4541e-10
1.1329e-10
2.314e-10
-5.6877e-10
6.9221e-10
5.608e-09
6.3733e-10
-1.6668e-09
2.8069e-09
6.5679e-09
3.0437e-10
-1.0932e-09
1.8371e-09
6.8326e-09
-1.2848e-10
-3.8546e-10
7.2671e-10
6.5068e-09
-2.689e-10
2.1041e-10
-3.7193e-10
5.6069e-09
-4.1275e-10
4.5658e-10
-6.6041e-10
4.4581e-09
-5.0228e-10
7.2664e-10
-1.0464e-09
3.309e-09
-4.8487e-10
7.9425e-10
-1.1679e-09
2.36e-09
-4.7965e-10
7.526e-10
-1.1296e-09
1.6019e-09
-4.0481e-10
6.8628e-10
-1.005e-09
9.7139e-10
-2.6853e-10
4.3757e-10
-6.6343e-10
1.4458e-10
1.7589e-10
-1.7331e-10
1.7197e-10
4.6188e-10
-5.9062e-10
7.1227e-10
5.8188e-09
2.4485e-10
-1.389e-09
3.0548e-09
6.7476e-09
5.3434e-12
-9.6533e-10
2.1231e-09
7.0356e-09
-2.5003e-10
-3.9214e-10
7.593e-10
6.6884e-09
-1.865e-10
5.15e-11
-3.3857e-10
5.6489e-09
-2.2094e-10
2.8124e-10
-7.5676e-10
4.4382e-09
-3.5207e-10
4.889e-10
-1.1356e-09
3.2712e-09
-3.6804e-10
5.6884e-10
-1.2518e-09
2.3066e-09
-3.8674e-10
5.7307e-10
-1.2247e-09
1.5328e-09
-3.3066e-10
5.5084e-10
-1.0835e-09
9.0295e-10
-1.7863e-10
3.5023e-10
-7.7316e-10
7.488e-11
4.6607e-10
-2.6347e-10
7.2634e-11
7.5297e-10
-6.3302e-10
6.7951e-10
6.0329e-09
-2.4655e-10
7.64e-10
7.6406e-10
6.8908e-09
-6.2295e-12
3.9159e-10
3.8827e-10
7.1771e-09
2.4964e-10
-1.8563e-10
-1.8534e-10
6.7849e-09
1.8729e-10
-3.0613e-10
-3.0748e-10
5.7015e-09
2.213e-10
-3.6201e-10
-3.6335e-10
4.4534e-09
3.5462e-10
-5.8584e-10
-5.8672e-10
3.2456e-09
3.683e-10
-6.1612e-10
-6.1719e-10
2.2332e-09
3.8689e-10
-6.1415e-10
-6.1579e-10
1.4512e-09
3.3063e-10
-5.2341e-10
-5.2531e-10
8.2901e-10
1.7808e-10
-3.2189e-10
-3.2473e-10
3.3573e-11
-4.6677e-10
5.1376e-10
5.1198e-10
-7.534e-10
9.0349e-10
9.022e-10
5.8192e-09
-1.3844e-09
-6.3675e-10
3.0526e-09
6.7476e-09
-9.6333e-10
-3.0519e-10
2.1229e-09
7.0357e-09
-3.9065e-10
1.287e-10
7.5902e-10
6.6884e-09
5.217e-11
2.7007e-10
-3.3906e-10
5.649e-09
2.8095e-10
4.1376e-10
-7.5744e-10
4.4384e-09
4.8913e-10
5.0357e-10
-1.1363e-09
3.2713e-09
5.6868e-10
4.8654e-10
-1.2531e-09
2.3067e-09
5.7315e-10
4.8124e-10
-1.2265e-09
1.5329e-09
5.5122e-10
4.0663e-10
-1.0854e-09
9.0286e-10
3.5091e-10
2.6963e-10
-7.7521e-10
7.4778e-11
-2.6275e-10
-1.7496e-10
7.0801e-11
-6.3273e-10
-4.6173e-10
6.7864e-10
5.655e-09
-9.1785e-10
-9.2221e-10
6.6594e-09
-6.7746e-10
-6.7995e-10
6.9791e-09
-3.0522e-10
-3.0633e-10
6.6344e-09
-6.7429e-13
-2.8016e-13
5.6591e-09
2.0585e-10
2.0605e-10
4.5105e-09
3.2387e-10
3.2575e-10
3.3692e-09
3.7362e-10
3.7581e-10
2.409e-09
3.6434e-10
3.6627e-10
1.6205e-09
3.7495e-10
3.7661e-10
9.643e-10
2.2608e-10
2.272e-10
1.1578e-10
-1.8389e-10
-1.8329e-10
-4.3056e-10
-4.3037e-10
5.4986e-09
-3.8044e-10
-1.1685e-09
6.4559e-09
-2.469e-10
-8.2854e-10
6.7581e-09
-6.3571e-11
-3.7579e-10
6.4552e-09
8.4431e-11
2.7745e-11
5.6036e-09
9.8221e-11
3.2385e-10
4.5267e-09
1.7499e-10
4.8975e-10
3.4158e-09
1.9827e-10
5.4761e-10
2.4562e-09
1.7437e-10
5.0704e-10
1.6918e-09
1.7657e-10
4.8397e-10
1.0287e-09
9.2306e-11
3.0796e-10
1.8708e-10
-1.0849e-10
-1.0858e-10
-2.1708e-10
-3.9994e-10
5.4254e-09
4.9136e-13
-1.2732e-09
6.3932e-09
4.7689e-14
-9.1871e-10
6.6703e-09
-8.4199e-14
-4.2717e-10
6.41e-09
-1.9379e-13
-1.495e-11
5.5799e-09
-2.9806e-13
2.7613e-10
4.5272e-09
-2.5775e-13
4.5788e-10
3.4485e-09
-2.7614e-13
5.3016e-10
2.4845e-09
-2.1426e-13
4.8089e-10
1.7214e-09
-9.5455e-14
4.6194e-10
1.0479e-09
-5.9815e-14
2.8211e-10
2.0646e-10
3.3681e-14
-1.2098e-10
-2.2736e-14
-3.8389e-10
5.4253e-09
3.815e-10
-1.2729e-09
6.3931e-09
2.4686e-10
-9.1838e-10
6.6702e-09
6.3357e-11
-4.2705e-10
6.41e-09
-8.4921e-11
-1.4913e-11
5.5798e-09
-9.8682e-11
2.7607e-10
4.5273e-09
-1.7623e-10
4.5788e-10
3.4485e-09
-1.9874e-10
5.299e-10
2.4845e-09
-1.7474e-10
4.8055e-10
1.7213e-09
-1.7678e-10
4.6154e-10
1.048e-09
-9.2517e-11
2.818e-10
2.0651e-10
1.0851e-10
-1.2125e-10
2.1698e-10
-3.8398e-10
5.4984e-09
9.1911e-10
-1.1679e-09
6.4557e-09
6.7724e-10
-8.2784e-10
6.7579e-09
3.0495e-10
-3.7522e-10
6.455e-09
1.5191e-13
2.812e-11
5.6035e-09
-2.0612e-10
3.2364e-10
4.5263e-09
-3.2438e-10
4.8925e-10
3.4156e-09
-3.7427e-10
5.4675e-10
2.4562e-09
-3.6499e-10
5.0607e-10
1.6918e-09
-3.7538e-10
4.8305e-10
1.0288e-09
-2.2638e-10
3.071e-10
1.8725e-10
1.8384e-10
-1.0927e-10
4.3045e-10
-4.0024e-10
5.6546e-09
1.3857e-09
-9.2162e-10
6.6591e-09
9.6282e-10
-6.7888e-10
6.9788e-09
3.8996e-10
-3.0579e-10
6.6339e-09
-5.2508e-11
-3.8191e-13
5.6586e-09
-2.8135e-10
2.0596e-10
4.5103e-09
-4.9036e-10
3.2473e-10
3.369e-09
-5.693e-10
3.7491e-10
2.4089e-09
-5.736e-10
3.6519e-10
1.6205e-09
-5.5146e-10
3.7555e-10
9.6449e-10
-3.5117e-10
2.2633e-10
1.1605e-10
2.6275e-10
-1.8402e-10
6.3262e-10
-4.3063e-10
5.8184e-09
-6.3731e-10
3.0537e-09
6.7472e-09
-3.0385e-10
2.1217e-09
7.0353e-09
1.2929e-10
7.5704e-10
6.6879e-09
2.6973e-10
-3.3925e-10
5.6484e-09
4.1411e-10
-7.5832e-10
4.4381e-09
5.0349e-10
-1.1371e-09
3.271e-09
4.8544e-10
-1.2536e-09
2.3066e-09
4.7992e-10
-1.2266e-09
1.5329e-09
4.0507e-10
-1.0853e-09
9.0315e-10
2.6853e-10
-7.7531e-10
7.5087e-11
-1.7607e-10
7.1051e-11
-4.6197e-10
6.787e-10
5.6083e-09
-1.6638e-09
-2.5241e-10
2.8068e-09
6.568e-09
-1.0918e-09
-8.2985e-11
1.8378e-09
6.8325e-09
-3.8454e-10
1.5403e-10
7.2763e-10
6.5067e-09
2.1089e-10
2.6625e-10
-3.7142e-10
5.6068e-09
4.5701e-10
2.2178e-10
-6.6096e-10
4.4581e-09
7.2676e-10
2.6211e-10
-1.0479e-09
3.309e-09
7.9519e-10
2.4667e-10
-1.17e-09
2.3601e-09
7.5383e-10
2.3738e-10
-1.1325e-09
1.6021e-09
6.8753e-10
2.0066e-10
-1.0078e-09
9.7145e-10
4.3866e-10
1.2312e-10
-6.6586e-10
1.4455e-10
-1.7246e-10
-9.7607e-11
1.7019e-10
-5.9033e-10
-2.3102e-10
7.1159e-10
5.4984e-09
-1.1632e-09
-3.8129e-10
6.4556e-09
-8.252e-10
-2.4709e-10
6.7576e-09
-3.737e-10
-6.3309e-11
6.4549e-09
2.8446e-11
8.5186e-11
5.6033e-09
3.2321e-10
9.8866e-11
4.5264e-09
4.8898e-10
1.762e-10
3.4157e-09
5.4647e-10
1.9956e-10
2.4562e-09
5.0603e-10
1.7559e-10
1.6919e-09
4.8312e-10
1.7751e-10
1.0287e-09
3.0731e-10
9.3071e-11
1.87e-10
-1.0898e-10
-1.0803e-10
-4.0013e-10
-2.1693e-10
5.3616e-09
-5.8302e-10
-5.8576e-10
6.3275e-09
-4.325e-10
-4.3421e-10
6.5983e-09
-1.9509e-10
-1.9581e-10
6.2656e-09
2.0627e-11
2.0687e-11
5.525e-09
1.6266e-10
1.6327e-10
4.5158e-09
2.6597e-10
2.67e-10
3.4648e-09
2.9836e-10
2.9951e-10
2.5021e-09
2.7466e-10
2.7577e-10
1.7504e-09
2.5847e-10
2.5941e-10
1.0786e-09
1.6498e-10
1.6566e-10
2.3567e-10
-4.6671e-11
-4.6242e-11
-1.9824e-10
-1.9809e-10
5.3338e-09
6.0402e-13
-6.5225e-10
6.2683e-09
1.7322e-13
-4.7367e-10
6.5488e-09
-7.3863e-15
-2.3031e-10
6.2373e-09
-1.0939e-13
-2.242e-12
5.4807e-09
-1.8238e-13
1.4813e-10
4.5058e-09
-3.0315e-13
2.4526e-10
3.484e-09
-2.5199e-13
2.9325e-10
2.5304e-09
-1.3642e-13
2.6608e-10
1.7795e-09
-7.6946e-14
2.502e-10
1.0993e-09
-6.8413e-14
1.5428e-10
2.5601e-10
4.6384e-14
-5.2156e-11
-3.3918e-14
-1.9327e-10
5.3337e-09
5.8441e-10
-6.521e-10
6.2682e-09
4.3291e-10
-4.7348e-10
6.5487e-09
1.9499e-10
-2.3016e-10
6.2372e-09
-2.0881e-11
-2.1978e-12
5.4806e-09
-1.6311e-10
1.4816e-10
4.5058e-09
-2.6656e-10
2.4523e-10
3.484e-09
-2.9881e-10
2.9306e-10
2.5304e-09
-2.7496e-10
2.6585e-10
1.7795e-09
-2.5874e-10
2.4997e-10
1.0993e-09
-1.652e-10
1.5411e-10
2.5607e-10
4.6643e-11
-5.2257e-11
1.9815e-10
-1.9332e-10
5.3614e-09
1.1645e-09
-5.8516e-10
6.3273e-09
8.2539e-10
-4.3348e-10
6.5981e-09
3.7363e-10
-1.9538e-10
6.2654e-09
-2.8611e-11
2.0886e-11
5.5249e-09
-3.2388e-10
1.6328e-10
4.5156e-09
-4.8976e-10
2.6686e-10
3.4647e-09
-5.4711e-10
2.9893e-10
2.5021e-09
-5.0638e-10
2.7501e-10
1.7504e-09
-4.833e-10
2.5864e-10
1.0787e-09
-3.0755e-10
1.6498e-10
2.3585e-10
1.0895e-10
-4.6807e-11
4.0009e-10
-1.9829e-10
5.498e-09
1.6649e-09
-3.8044e-10
6.4553e-09
1.0916e-09
-2.46e-10
6.7574e-09
3.8414e-10
-6.2671e-11
6.4544e-09
-2.1115e-10
8.5286e-11
5.6029e-09
-4.5757e-10
9.8612e-11
4.5263e-09
-7.2784e-10
1.7535e-10
3.4155e-09
-7.9533e-10
1.9861e-10
2.4561e-09
-7.5397e-10
1.7454e-10
1.6919e-09
-6.874e-10
1.7645e-10
1.0289e-09
-4.3875e-10
9.2284e-11
1.8733e-10
1.7249e-10
-1.0866e-10
5.9033e-10
-2.1714e-10
5.6077e-09
-2.5245e-10
2.8076e-09
6.5674e-09
-8.1863e-11
1.8375e-09
6.8321e-09
1.5482e-10
7.2656e-10
6.5062e-09
2.6616e-10
-3.7199e-10
5.6063e-09
2.2155e-10
-6.6089e-10
4.4577e-09
2.6117e-10
-1.0479e-09
3.3088e-09
2.4522e-10
-1.1695e-09
2.36e-09
2.3551e-10
-1.1317e-09
1.6022e-09
1.9877e-10
-1.0068e-09
9.7171e-10
1.2151e-10
-6.6508e-10
1.449e-10
-9.8839e-11
1.707e-10
-2.3148e-10
7.1193e-10
5.5373e-09
-1.9854e-09
6.5766e-13
3.3544e-09
6.4616e-09
-1.3987e-09
1.5798e-13
2.3896e-09
6.7458e-09
-6.7426e-10
2.3683e-13
1.2281e-09
6.4531e-09
1.4091e-11
4.871e-13
8.7967e-11
5.5856e-09
4.2186e-10
5.8636e-13
-6.1207e-10
4.466e-09
6.848e-10
8.8096e-13
-1.014e-09
3.3298e-09
7.8913e-10
9.9853e-13
-1.1837e-09
2.3835e-09
7.4885e-10
1.1524e-12
-1.1599e-09
1.6343e-09
7.0241e-10
1.1668e-12
-1.0625e-09
9.9599e-10
4.5572e-10
1.002e-12
-7.1979e-10
1.6688e-10
-1.4518e-10
8.1751e-13
1.127e-10
-5.6869e-10
2.9783e-13
6.9199e-10
5.4254e-09
-1.2696e-09
2.3422e-13
6.3931e-09
-9.1644e-10
1.2259e-13
6.6703e-09
-4.2587e-10
2.1863e-13
6.41e-09
-1.4645e-11
3.1888e-13
5.5799e-09
2.7568e-10
1.7722e-13
4.5272e-09
4.5721e-10
3.4814e-13
3.4485e-09
5.2923e-10
5.2898e-13
2.4846e-09
4.8001e-10
4.2455e-13
1.7214e-09
4.6118e-10
5.2654e-13
1.0479e-09
2.8154e-10
4.4887e-13
2.0626e-10
-1.2129e-10
3.7964e-13
-3.8402e-10
9.9305e-14
5.3338e-09
-6.494e-10
2.487e-14
6.2683e-09
-4.7198e-10
4.2968e-14
6.5488e-09
-2.2942e-10
1.4678e-13
6.2373e-09
-2.2068e-12
2.93e-13
5.4806e-09
1.4758e-10
3.5914e-13
4.5058e-09
2.4439e-10
3.9912e-13
3.484e-09
2.922e-10
5.0042e-13
2.5305e-09
2.6514e-10
4.8812e-13
1.7795e-09
2.4949e-10
5.2093e-13
1.0991e-09
1.5372e-10
4.0081e-13
2.5578e-10
-5.2534e-11
3.6314e-13
-1.9343e-10
6.7809e-14
5.2831e-09
7.798e-13
-1.159e-13
6.2306e-09
3.6316e-13
2.9518e-15
6.4977e-09
1.088e-13
1.4744e-13
6.2043e-09
-8.4756e-14
2.5836e-13
5.4624e-09
-2.6268e-13
3.1291e-13
4.491e-09
-2.7026e-13
4.0679e-13
3.4991e-09
-4.542e-13
2.8706e-13
2.5595e-09
-4.0306e-13
2.6865e-13
1.8095e-09
-3.3389e-13
2.7014e-13
1.1216e-09
-2.8237e-13
2.0308e-13
2.7593e-10
-1.9516e-13
1.5603e-13
-9.0878e-14
2.06e-14
5.283e-09
6.511e-10
-9.7581e-14
6.2306e-09
4.7277e-10
8.8694e-14
6.4977e-09
2.2974e-10
1.8029e-13
6.2042e-09
2.0371e-12
2.961e-13
5.4624e-09
-1.4806e-10
3.0122e-13
4.491e-09
-2.4493e-10
3.6077e-13
3.4991e-09
-2.9313e-10
2.0683e-13
2.5594e-09
-2.6598e-10
1.4495e-13
1.8096e-09
-2.502e-10
1.1794e-13
1.1217e-09
-1.5429e-10
6.2926e-14
2.7603e-10
5.218e-11
7.5318e-14
1.9325e-10
-2.1871e-14
5.3336e-09
1.2711e-09
7.931e-13
6.2681e-09
9.1711e-10
7.7756e-13
6.5485e-09
4.2611e-10
6.0436e-13
6.2371e-09
1.4506e-11
4.5389e-13
5.4806e-09
-2.7628e-10
3.1328e-13
4.5054e-09
-4.5711e-10
1.3971e-13
3.4839e-09
-5.3032e-10
4.3243e-14
2.5305e-09
-4.8088e-10
-1.3371e-13
1.7795e-09
-4.6188e-10
-8.7131e-14
1.0993e-09
-2.821e-10
-1.642e-13
2.5605e-10
1.2101e-10
-1.455e-13
3.8386e-10
-1.173e-13
5.425e-09
1.9861e-09
1.9803e-12
6.3928e-09
1.3988e-09
1.5964e-12
6.6699e-09
6.7418e-10
1.0755e-12
6.4094e-09
-1.426e-11
6.3966e-13
5.5793e-09
-4.2267e-10
1.6131e-13
4.5271e-09
-6.8528e-10
-1.4096e-13
3.4483e-09
-7.8985e-10
-3.6655e-13
2.4845e-09
-7.4948e-10
-5.7646e-13
1.7215e-09
-7.0292e-10
-4.1891e-13
1.0481e-09
-4.5617e-10
-2.6735e-13
2.0662e-10
1.4498e-10
-1.4672e-13
5.6858e-10
-1.1261e-13
5.5368e-09
1.9495e-12
3.3538e-09
6.4609e-09
1.6235e-12
2.3893e-09
6.7453e-09
1.0906e-12
1.2276e-09
6.4526e-09
5.4236e-13
8.7678e-11
5.585e-09
3.2738e-14
-6.1229e-10
4.4655e-09
-1.7095e-13
-1.0142e-09
3.3295e-09
-5.3064e-13
-1.1839e-09
2.3834e-09
-7.2629e-13
-1.16e-09
1.6344e-09
-6.6227e-13
-1.0625e-09
9.9634e-10
-6.0852e-13
-7.1983e-10
1.6736e-10
-3.9621e-13
1.1284e-10
-2.3676e-13
6.9204e-10
5.5373e-09
-1.9853e-09
2.5408e-10
3.354e-09
6.4617e-09
-1.3986e-09
8.3218e-11
2.3893e-09
6.7458e-09
-6.7416e-10
-1.5349e-10
1.228e-09
6.4531e-09
1.4087e-11
-2.6543e-10
8.8089e-11
5.5857e-09
4.2188e-10
-2.2079e-10
-6.1197e-10
4.466e-09
6.844e-10
-2.6049e-10
-1.0134e-09
3.3298e-09
7.8874e-10
-2.4518e-10
-1.1828e-09
2.3835e-09
7.485e-10
-2.3558e-10
-1.159e-09
1.6343e-09
7.019e-10
-1.9871e-10
-1.0616e-09
9.9594e-10
4.5533e-10
-1.2145e-10
-7.1905e-10
1.6681e-10
-1.4553e-10
9.9011e-11
1.1332e-10
-5.6887e-10
2.3145e-10
6.9237e-10
5.4254e-09
-1.2696e-09
3.8185e-10
6.3931e-09
-9.1637e-10
2.4732e-10
6.6703e-09
-4.2582e-10
6.3755e-11
6.4099e-09
-1.4586e-11
-8.4604e-11
5.5798e-09
2.7567e-10
-9.8514e-11
4.5272e-09
4.5724e-10
-1.76e-10
3.4486e-09
5.2908e-10
-1.9873e-10
2.4845e-09
4.7978e-10
-1.7475e-10
1.7214e-09
4.6081e-10
-1.766e-10
1.0479e-09
2.8132e-10
-9.2313e-11
2.0624e-10
-1.2153e-10
1.0871e-10
-3.841e-10
2.1707e-10
5.3338e-09
-6.4952e-10
5.8594e-10
6.2683e-09
-4.7192e-10
4.3426e-10
6.5488e-09
-2.2938e-10
1.9609e-10
6.2373e-09
-2.1833e-12
-2.0075e-11
5.4806e-09
1.4767e-10
-1.6265e-10
4.5058e-09
2.4443e-10
-2.6623e-10
3.484e-09
2.9215e-10
-2.9857e-10
2.5304e-09
2.6498e-10
-2.7479e-10
1.7794e-09
2.4929e-10
-2.5855e-10
1.0991e-09
1.5358e-10
-1.6492e-10
2.5578e-10
-5.2616e-11
4.6827e-11
-1.9348e-10
1.9819e-10
5.2831e-09
8.4616e-13
6.5184e-10
6.2306e-09
4.9496e-13
4.7363e-10
6.4977e-09
1.945e-13
2.3049e-10
6.2043e-09
-6.9045e-15
2.6984e-12
5.4624e-09
-2.2507e-13
-1.4747e-10
4.491e-09
-2.5858e-13
-2.4439e-10
3.4991e-09
-5.1936e-13
-2.9267e-10
2.5594e-09
-5.2903e-13
-2.655e-10
1.8095e-09
-4.4492e-13
-2.4977e-10
1.1215e-09
-3.761e-13
-1.5388e-10
2.759e-10
-2.5187e-13
5.2453e-11
-1.4684e-13
1.933e-10
5.283e-09
6.5208e-10
6.5098e-10
6.2305e-09
4.7351e-10
4.7307e-10
6.4977e-09
2.3022e-10
2.301e-10
6.2042e-09
2.336e-12
2.5764e-12
5.4624e-09
-1.4803e-10
-1.4755e-10
4.4909e-09
-2.45e-10
-2.4438e-10
3.4991e-09
-2.9327e-10
-2.9258e-10
2.5594e-09
-2.6613e-10
-2.6546e-10
1.8095e-09
-2.5032e-10
-2.4976e-10
1.1216e-09
-1.5439e-10
-1.5394e-10
2.76e-10
5.211e-11
5.2425e-11
1.9317e-10
1.9329e-10
5.3336e-09
1.2726e-09
5.848e-10
6.2681e-09
9.1834e-10
4.3357e-10
6.5486e-09
4.27e-10
1.9568e-10
6.2371e-09
1.5096e-11
-2.0311e-11
5.4807e-09
-2.7597e-10
-1.627e-10
4.5055e-09
-4.5694e-10
-2.6634e-10
3.4839e-09
-5.3018e-10
-2.9859e-10
2.5304e-09
-4.8083e-10
-2.7493e-10
1.7796e-09
-4.6174e-10
-2.5873e-10
1.0993e-09
-2.8214e-10
-1.6512e-10
2.5612e-10
1.2097e-10
4.6626e-11
3.838e-10
1.9807e-10
5.4252e-09
1.9867e-09
3.8245e-10
6.3929e-09
1.3993e-09
2.4799e-10
6.6701e-09
6.7466e-10
6.4281e-11
6.4096e-09
-1.373e-11
-8.4076e-11
5.5795e-09
-4.2224e-10
-9.7854e-11
4.5272e-09
-6.846e-10
-1.7532e-10
3.4485e-09
-7.8944e-10
-1.986e-10
2.4844e-09
-7.4926e-10
-1.7477e-10
1.7214e-09
-7.0265e-10
-1.7671e-10
1.0481e-09
-4.5603e-10
-9.2474e-11
2.0669e-10
1.4511e-10
1.0848e-10
5.6862e-10
2.169e-10
5.5368e-09
2.5523e-10
3.354e-09
6.461e-09
8.4545e-11
2.3894e-09
6.7453e-09
-1.5272e-10
1.2278e-09
6.4526e-09
-2.6488e-10
8.7994e-11
5.5851e-09
-2.2088e-10
-6.1221e-10
4.4656e-09
-2.6066e-10
-1.0138e-09
3.3295e-09
-2.4558e-10
-1.1836e-09
2.3834e-09
-2.3621e-10
-1.16e-09
1.6343e-09
-1.9961e-10
-1.0624e-09
9.9628e-10
-1.223e-10
-7.1986e-10
1.6739e-10
9.8178e-11
1.1292e-10
2.3099e-10
6.9213e-10
5.6081e-09
-1.6646e-09
6.3907e-10
2.8071e-09
6.568e-09
-1.0915e-09
3.0576e-10
1.8368e-09
6.8326e-09
-3.843e-10
-1.2741e-10
7.2645e-10
6.5068e-09
2.1116e-10
-2.6897e-10
-3.7216e-10
5.6068e-09
4.5679e-10
-4.1302e-10
-6.6059e-10
4.458e-09
7.2668e-10
-5.0305e-10
-1.0467e-09
3.309e-09
7.9447e-10
-4.8596e-10
-1.1685e-09
2.3601e-09
7.5279e-10
-4.8084e-10
-1.1301e-09
1.6021e-09
6.8661e-10
-4.0582e-10
-1.0056e-09
9.7134e-10
4.3768e-10
-2.6906e-10
-6.6367e-10
1.4433e-10
-1.7321e-10
1.7574e-10
1.7172e-10
-5.9071e-10
4.6183e-10
7.1239e-10
5.4984e-09
-1.1639e-09
9.2267e-10
6.4555e-09
-8.2507e-10
6.8012e-10
6.7576e-09
-3.7362e-10
3.0685e-10
6.4547e-09
2.8499e-11
1.1097e-12
5.6034e-09
3.2342e-10
-2.0648e-10
4.5262e-09
4.8871e-10
-3.2508e-10
3.4156e-09
5.4595e-10
-3.7519e-10
2.4563e-09
5.0541e-10
-3.6594e-10
1.6919e-09
4.8252e-10
-3.7587e-10
1.0287e-09
3.067e-10
-2.2667e-10
1.8695e-10
-1.0948e-10
1.8382e-10
-4.0035e-10
4.3045e-10
5.3615e-09
-5.8353e-10
1.1686e-09
6.3275e-09
-4.326e-10
8.2867e-10
6.5983e-09
-1.9514e-10
3.7611e-10
6.2656e-09
2.0593e-11
-2.7107e-11
5.5249e-09
1.6281e-10
-3.2312e-10
4.5157e-09
2.6605e-10
-4.8935e-10
3.4647e-09
2.98e-10
-5.4677e-10
2.5022e-09
2.7421e-10
-5.0627e-10
1.7504e-09
2.5801e-10
-4.8311e-10
1.0786e-09
1.6449e-10
-3.0725e-10
2.3565e-10
-4.7093e-11
1.0915e-10
-1.9836e-10
4.0009e-10
5.3338e-09
1.0638e-13
1.2727e-09
6.2682e-09
-2.6854e-14
9.187e-10
6.5487e-09
-9.8117e-14
4.2733e-10
6.2372e-09
-1.8752e-13
1.5451e-11
5.4807e-09
-2.0667e-13
-2.7541e-10
4.5056e-09
-4.7589e-13
-4.564e-10
3.484e-09
-5.7945e-13
-5.2974e-10
2.5305e-09
-6.2325e-13
-4.8037e-10
1.7795e-09
-6.0295e-13
-4.6126e-10
1.0992e-09
-5.2599e-13
-2.8164e-10
2.5595e-10
-3.8495e-13
1.2133e-10
-1.6096e-13
3.8392e-10
5.3337e-09
5.8582e-10
1.2713e-09
6.2681e-09
4.3407e-10
9.1763e-10
6.5486e-09
1.9565e-10
4.2671e-10
6.2371e-09
-2.0681e-11
1.512e-11
5.4805e-09
-1.6336e-10
-2.7552e-10
4.5054e-09
-2.6717e-10
-4.5669e-10
3.4839e-09
-2.9945e-10
-5.298e-10
2.5305e-09
-2.758e-10
-4.8042e-10
1.7795e-09
-2.5949e-10
-4.6132e-10
1.0993e-09
-1.6572e-10
-2.8173e-10
2.56e-10
4.6239e-11
1.2127e-10
1.9799e-10
3.839e-10
5.3614e-09
1.1686e-09
1.165e-09
6.3273e-09
8.284e-10
8.2614e-10
6.5981e-09
3.7561e-10
3.7426e-10
6.2654e-09
-2.7755e-11
-2.8162e-11
5.5247e-09
-3.2387e-10
-3.2315e-10
4.5154e-09
-4.8988e-10
-4.8917e-10
3.4646e-09
-5.4748e-10
-5.4667e-10
2.5022e-09
-5.0703e-10
-5.0631e-10
1.7505e-09
-4.8389e-10
-4.8324e-10
1.0788e-09
-3.0796e-10
-3.0733e-10
2.3595e-10
1.0855e-10
1.0905e-10
3.9989e-10
4.0007e-10
5.4983e-09
1.6677e-09
9.1989e-10
6.4555e-09
1.094e-09
6.783e-10
6.7577e-09
3.8605e-10
3.0579e-10
6.4546e-09
-2.0988e-10
1.1249e-12
5.6033e-09
-4.5658e-10
-2.0551e-10
4.5263e-09
-7.2769e-10
-3.2313e-10
3.4155e-09
-7.9518e-10
-3.7372e-10
2.4563e-09
-7.5396e-10
-3.6463e-10
1.6919e-09
-6.8755e-10
-3.7482e-10
1.0289e-09
-4.3871e-10
-2.2602e-10
1.8748e-10
1.7239e-10
1.8399e-10
5.9021e-10
4.3045e-10
5.6078e-09
6.3817e-10
2.8081e-09
6.5676e-09
3.0528e-10
1.8382e-09
6.8323e-09
-1.2852e-10
7.2853e-10
6.5064e-09
-2.6911e-10
-3.7017e-10
5.6065e-09
-4.1305e-10
-6.5956e-10
4.4578e-09
-5.0244e-10
-1.0469e-09
3.3088e-09
-4.8441e-10
-1.1692e-09
2.36e-09
-4.7959e-10
-1.1313e-09
1.6021e-09
-4.0496e-10
-1.0067e-09
9.7164e-10
-2.6848e-10
-6.6504e-10
1.4501e-10
1.7565e-10
1.7069e-10
4.6163e-10
7.1168e-10
5.8189e-09
-1.3856e-09
2.4727e-10
3.0545e-09
6.7478e-09
-9.6303e-10
7.7151e-12
2.1223e-09
7.0356e-09
-3.9087e-10
-2.4851e-10
7.5899e-10
6.6885e-09
5.2142e-11
-1.868e-10
-3.3897e-10
5.6488e-09
2.8111e-10
-2.2095e-10
-7.5731e-10
4.4382e-09
4.8837e-10
-3.5321e-10
-1.1361e-09
3.2713e-09
5.6837e-10
-3.6969e-10
-1.2523e-09
2.3066e-09
5.7261e-10
-3.8817e-10
-1.2254e-09
1.5328e-09
5.5041e-10
-3.32e-10
-1.0839e-09
9.0274e-10
3.5006e-10
-1.793e-10
-7.7359e-10
7.4537e-11
-2.6356e-10
4.659e-10
7.226e-11
-6.3304e-10
7.5306e-10
6.7935e-10
5.6549e-09
-9.1881e-10
1.3898e-09
6.6595e-09
-6.7733e-10
9.6646e-10
6.979e-09
-3.0526e-10
3.9295e-10
6.6344e-09
-6.9317e-13
-5.0857e-11
5.6588e-09
2.0524e-10
-2.8084e-10
4.5102e-09
3.234e-10
-4.9024e-10
3.3692e-09
3.7341e-10
-5.6956e-10
2.4089e-09
3.6378e-10
-5.7368e-10
1.6205e-09
3.7421e-10
-5.5126e-10
9.6429e-10
2.255e-10
-3.5089e-10
1.1572e-10
-1.8446e-10
2.6302e-10
-4.3074e-10
6.3275e-10
5.4986e-09
-3.8134e-10
1.6676e-09
6.4558e-09
-2.4711e-10
1.0943e-09
6.7579e-09
-6.3791e-11
3.8654e-10
6.4551e-09
8.4272e-11
-2.0928e-10
5.6034e-09
9.7844e-11
-4.5591e-10
4.5266e-09
1.7458e-10
-7.2659e-10
3.4158e-09
1.9793e-10
-7.9433e-10
2.4562e-09
1.7388e-10
-7.5306e-10
1.6918e-09
1.7579e-10
-6.8668e-10
1.0287e-09
9.1748e-11
-4.3795e-10
1.8708e-10
-1.0899e-10
1.7297e-10
-2.1724e-10
5.9045e-10
5.4254e-09
-9.7854e-13
1.9869e-09
6.3931e-09
-8.5938e-13
1.3999e-09
6.6702e-09
-7.1124e-13
6.751e-10
6.4099e-09
-6.1415e-13
-1.3406e-11
5.5797e-09
-4.2605e-13
-4.2143e-10
4.5272e-09
-3.1181e-13
-6.8434e-10
3.4486e-09
-5.8918e-13
-7.8904e-10
2.4845e-09
-6.6816e-13
-7.4862e-10
1.7214e-09
-6.3132e-13
-7.022e-10
1.048e-09
-5.3435e-13
-4.5556e-10
2.0646e-10
-3.7452e-13
1.4541e-10
-2.0181e-13
5.6869e-10
5.4251e-09
3.8134e-10
1.9864e-09
6.3929e-09
2.4672e-10
1.3995e-09
6.67e-09
6.3054e-11
6.7482e-10
6.4096e-09
-8.5293e-11
-1.3692e-11
5.5794e-09
-9.8794e-11
-4.219e-10
4.5271e-09
-1.7633e-10
-6.8444e-10
3.4485e-09
-1.9952e-10
-7.896e-10
2.4844e-09
-1.7571e-10
-7.4906e-10
1.7215e-09
-1.7752e-10
-7.0253e-10
1.0481e-09
-9.314e-11
-4.5582e-10
2.065e-10
1.0806e-10
1.4527e-10
2.1679e-10
5.6866e-10
5.4981e-09
9.2269e-10
1.6653e-09
6.4552e-09
6.798e-10
1.0924e-09
6.7572e-09
3.0617e-10
3.8497e-10
6.4544e-09
2.3428e-13
-2.1061e-10
5.603e-09
-2.0603e-10
-4.5698e-10
4.526e-09
-3.2503e-10
-7.2759e-10
3.4155e-09
-3.7573e-10
-7.9522e-10
2.4562e-09
-3.6638e-10
-7.5402e-10
1.692e-09
-3.7661e-10
-6.8737e-10
1.0289e-09
-2.2728e-10
-4.3842e-10
1.8737e-10
1.8325e-10
1.7272e-10
4.3024e-10
5.9034e-10
5.6545e-09
1.3903e-09
1.3865e-09
6.659e-09
9.6638e-10
9.6393e-10
6.9787e-09
3.9234e-10
3.9132e-10
6.634e-09
-5.1376e-11
-5.1878e-11
5.6583e-09
-2.8114e-10
-2.804e-10
4.5101e-09
-4.9014e-10
-4.8823e-10
3.3691e-09
-5.699e-10
-5.6863e-10
2.4089e-09
-5.7432e-10
-5.7302e-10
1.6206e-09
-5.5211e-10
-5.5081e-10
9.6462e-10
-3.5149e-10
-3.505e-10
1.1619e-10
2.6244e-10
2.6317e-10
6.3251e-10
6.3275e-10
5.8187e-09
2.4511e-10
3.0569e-09
6.7473e-09
6.3127e-12
2.1244e-09
7.0353e-09
-2.5017e-10
7.5969e-10
6.6883e-09
-1.8725e-10
-3.3788e-10
5.6483e-09
-2.2004e-10
-7.5712e-10
4.4381e-09
-3.5286e-10
-1.1366e-09
3.2711e-09
-3.6695e-10
-1.2533e-09
2.3066e-09
-3.8557e-10
-1.227e-09
1.5329e-09
-3.3001e-10
-1.0855e-09
9.0316e-10
-1.7774e-10
-7.7512e-10
7.5259e-11
4.6657e-10
7.0808e-11
7.533e-10
6.784e-10
6.0335e-09
-2.4408e-10
7.621e-10
7.6505e-10
6.8914e-09
-5.3205e-12
3.8982e-10
3.9126e-10
7.1773e-09
2.4969e-10
-1.8413e-10
-1.8526e-10
6.7854e-09
1.8708e-10
-3.0742e-10
-3.0681e-10
5.7019e-09
2.1983e-10
-3.6163e-10
-3.6245e-10
4.4536e-09
3.5361e-10
-5.8697e-10
-5.8576e-10
3.2456e-09
3.6688e-10
-6.1734e-10
-6.1617e-10
2.2333e-09
3.8565e-10
-6.1591e-10
-6.145e-10
1.4512e-09
3.299e-10
-5.2527e-10
-5.241e-10
8.2867e-10
1.7763e-10
-3.2436e-10
-3.2232e-10
3.309e-11
-4.6679e-10
5.1253e-10
5.1306e-10
-7.5343e-10
9.0284e-10
9.0294e-10
5.8192e-09
-6.3638e-10
3.0552e-09
6.7479e-09
-3.04e-10
2.1239e-09
7.0357e-09
1.2842e-10
7.5987e-10
6.6885e-09
2.6902e-10
-3.3765e-10
5.6486e-09
4.125e-10
-7.5695e-10
4.4385e-09
5.0222e-10
-1.1362e-09
3.2713e-09
4.8393e-10
-1.2527e-09
2.3068e-09
4.7873e-10
-1.2258e-09
1.5327e-09
4.0418e-10
-1.0841e-09
9.0274e-10
2.679e-10
-7.7417e-10
7.4625e-11
-1.7642e-10
7.1909e-11
-4.6214e-10
6.7911e-10
5.6082e-09
-2.5402e-10
2.8083e-09
6.5681e-09
-8.3498e-11
1.8386e-09
6.8326e-09
1.5335e-10
7.2832e-10
6.5067e-09
2.6534e-10
-3.7043e-10
5.6067e-09
2.2079e-10
-6.5956e-10
4.4581e-09
2.6065e-10
-1.0466e-09
3.309e-09
2.4484e-10
-1.1684e-09
2.3601e-09
2.3507e-10
-1.1305e-09
1.602e-09
1.9846e-10
-1.0057e-09
9.7131e-10
1.2113e-10
-6.6391e-10
1.4448e-10
-9.9157e-11
1.7137e-10
-2.3158e-10
7.1202e-10
5.5371e-09
-5.7608e-13
3.3541e-09
6.4614e-09
-5.9567e-13
2.3898e-09
6.7455e-09
-4.7766e-13
1.2285e-09
6.4528e-09
-4.4905e-13
8.8471e-11
5.5853e-09
-2.9036e-13
-6.115e-10
4.4657e-09
-2.7818e-13
-1.0135e-09
3.3296e-09
-5.8456e-13
-1.1832e-09
2.3836e-09
-7.6831e-13
-1.1596e-09
1.6343e-09
-8.3273e-13
-1.0618e-09
9.9605e-10
-7.9544e-13
-7.1937e-10
1.6703e-10
-6.1952e-13
1.1309e-10
-2.9298e-13
6.9209e-10
5.537e-09
2.5335e-10
3.3546e-09
6.4613e-09
8.2654e-11
2.3901e-09
6.7454e-09
-1.5412e-10
1.2286e-09
6.4527e-09
-2.6609e-10
8.8226e-11
5.5852e-09
-2.2176e-10
-6.1174e-10
4.4656e-09
-2.6133e-10
-1.0138e-09
3.3295e-09
-2.4632e-10
-1.1839e-09
2.3836e-09
-2.3683e-10
-1.1603e-09
1.6344e-09
-2.0027e-10
-1.0623e-09
9.962e-10
-1.2278e-10
-7.198e-10
1.6717e-10
9.784e-11
1.1293e-10
2.3093e-10
6.921e-10
5.6078e-09
6.3894e-10
2.8075e-09
6.5676e-09
3.0521e-10
1.8378e-09
6.8321e-09
-1.2892e-10
7.2813e-10
6.5063e-09
-2.7046e-10
-3.7059e-10
5.6064e-09
-4.1466e-10
-6.6001e-10
4.4577e-09
-5.0374e-10
-1.0475e-09
3.3087e-09
-4.8617e-10
-1.1698e-09
2.3602e-09
-4.8125e-10
-1.1321e-09
1.6023e-09
-4.0648e-10
-1.007e-09
9.7172e-10
-2.6953e-10
-6.6508e-10
1.4488e-10
1.7507e-10
1.7082e-10
4.615e-10
7.1178e-10
5.8186e-09
2.4787e-10
3.055e-09
6.7472e-09
7.6998e-12
2.123e-09
7.035e-09
-2.501e-10
7.5973e-10
6.6881e-09
-1.8774e-10
-3.3906e-10
5.6483e-09
-2.2183e-10
-7.5697e-10
4.4379e-09
-3.5439e-10
-1.1353e-09
3.271e-09
-3.6947e-10
-1.2526e-09
2.3067e-09
-3.88e-10
-1.2264e-09
1.533e-09
-3.3216e-10
-1.0846e-09
9.0319e-10
-1.7945e-10
-7.7419e-10
7.5161e-11
4.6549e-10
7.1674e-11
7.5295e-10
6.7877e-10
6.0327e-09
7.6691e-10
7.6238e-10
6.8904e-09
3.9262e-10
3.8997e-10
7.1767e-09
-1.8552e-10
-1.8606e-10
6.785e-09
-3.0751e-10
-3.0758e-10
5.7013e-09
-3.6382e-10
-3.6067e-10
4.4536e-09
-5.8762e-10
-5.8565e-10
3.2453e-09
-6.175e-10
-6.1525e-10
2.2333e-09
-6.1622e-10
-6.1389e-10
1.4515e-09
-5.2632e-10
-5.2328e-10
8.2917e-10
-3.2511e-10
-3.2176e-10
3.3936e-11
5.1093e-10
5.1388e-10
9.0193e-10
9.0342e-10
1.2962e-09
-2.9267e-10
1.9257e-09
5.1575e-13
-1.1384e-09
-1.9133e-11
9.5068e-10
9.7568e-13
-3.2756e-09
2.9191e-10
-8.4246e-10
1.7604e-12
-6.0753e-09
2.9533e-10
-9.9901e-10
1.8389e-12
-9.7663e-09
2.646e-10
-1.1133e-09
2.315e-12
-1.4431e-08
3.4919e-10
-1.1502e-09
1.9047e-12
-1.9469e-08
4.8943e-10
-1.213e-09
1.6884e-12
-2.3363e-08
5.7236e-10
-1.5078e-09
2.4278e-12
-2.5731e-08
4.8471e-10
-1.0463e-09
4.0851e-13
-2.6142e-08
-3.12e-10
6.5381e-10
1.6678e-12
-2.3541e-08
-7.3537e-10
1.8326e-09
1.9926e-12
-8.327e-10
1.8216e-09
-1.3189e-12
1.311e-09
-4.0647e-10
1.7633e-09
-1.5437e-09
-1.6265e-10
5.8275e-10
-3.9274e-09
2.0375e-10
-1.2991e-09
-7.1518e-09
1.9067e-10
-1.5413e-09
-1.1411e-08
1.0383e-10
-1.7127e-09
-1.6692e-08
2.0285e-10
-1.7701e-09
-2.2166e-08
2.2848e-10
-1.6334e-09
-2.6201e-08
1.7096e-10
-1.5772e-09
-2.8359e-08
-1.1538e-11
-5.9474e-10
-2.8469e-08
-4.0312e-10
1.4835e-09
-2.5771e-08
-4.9504e-10
3.6946e-09
-5.3951e-10
4.3725e-09
1.2073e-09
-2.7725e-10
1.7669e-09
-2.0646e-09
-2.3736e-11
5.1929e-10
-4.7214e-09
2.4974e-10
-1.4463e-09
-8.3005e-09
2.174e-10
-1.7349e-09
-1.3028e-08
1.6137e-10
-1.9481e-09
-1.8805e-08
2.5514e-10
-2.0072e-09
-2.479e-08
2.9813e-10
-1.9333e-09
-2.914e-08
1.8488e-10
-1.9895e-09
-3.1514e-08
-1.0741e-10
-9.4243e-10
-3.1314e-08
-4.4229e-10
1.3324e-09
-2.802e-08
-4.2919e-10
3.6579e-09
-4.7101e-10
4.5121e-09
1.1544e-09
-1.1135e-12
1.7868e-09
-2.2958e-09
-2.305e-12
6.0518e-10
-5.0313e-09
-3.2998e-12
-1.3267e-09
-8.7604e-09
-3.9094e-12
-1.647e-09
-1.3689e-08
-3.9989e-12
-1.8473e-09
-1.9601e-08
-3.2235e-12
-1.8832e-09
-2.5655e-08
-2.5039e-12
-1.7352e-09
-3.0252e-08
-7.4477e-13
-1.6818e-09
-3.2701e-08
2.0759e-13
-6.5818e-10
-3.2637e-08
2.4451e-12
1.6273e-09
-2.9143e-08
2.18e-12
4.0027e-09
1.9506e-12