/*--------------------------------*- C++ -*----------------------------------*\
| =========                 |                                                 |
| \\      /  F ield         | foam-extend: Open Source CFD                    |
|  \\    /   O peration     | Version:     4.1-20200408                       |
|   \\  /    A nd           | Web:         http://www.foam-extend.org         |
|    \\/     M anipulation  |                                                 |
\*---------------------------------------------------------------------------*/
FoamFile
{
    version     2.0;
    format      ascii;
    class       volVectorField;
    location    "0.0155000";
    object      DU_0;
}
// * * * * * * * * * * * * * * * * * * * * * * * * * * * * * * * * * * * * * //

dimensions      [0 1 0 0 0 0 0];

internalField   nonuniform List<vector> 
1952
(
(5.00034e-05 3.50654e-09 0)
(5.00034e-05 5.68036e-09 0)
(5.00034e-05 7.96595e-09 0)
(5.00034e-05 1.01552e-08 0)
(5.00034e-05 1.25124e-08 0)
(5.00035e-05 1.47065e-08 0)
(5.00035e-05 1.71346e-08 0)
(5.00035e-05 1.93354e-08 0)
(5.00036e-05 2.17933e-08 0)
(5.00035e-05 2.39225e-08 0)
(5.00033e-05 2.62322e-08 0)
(5.00027e-05 2.79975e-08 0)
(5.00016e-05 2.95511e-08 0)
(4.99992e-05 3.0062e-08 0)
(4.99944e-05 2.92414e-08 0)
(5.00034e-05 1.49907e-09 0)
(5.00047e-05 2.93284e-09 0)
(5.00047e-05 4.76122e-09 0)
(5.00047e-05 6.63411e-09 0)
(5.00047e-05 8.46071e-09 0)
(5.00047e-05 1.0334e-08 0)
(5.00047e-05 1.21052e-08 0)
(5.00047e-05 1.39277e-08 0)
(5.00046e-05 1.55739e-08 0)
(5.00044e-05 1.72379e-08 0)
(5.00041e-05 1.86006e-08 0)
(5.00035e-05 1.98639e-08 0)
(5.00024e-05 2.06073e-08 0)
(5.00005e-05 2.0999e-08 0)
(4.99973e-05 2.06115e-08 0)
(4.99921e-05 1.96781e-08 0)
(5.00047e-05 1.25562e-09 0)
(5.00056e-05 2.37278e-09 0)
(5.00056e-05 3.84693e-09 0)
(5.00055e-05 5.33446e-09 0)
(5.00055e-05 6.77778e-09 0)
(5.00054e-05 8.2112e-09 0)
(5.00053e-05 9.54473e-09 0)
(5.00052e-05 1.08455e-08 0)
(5.0005e-05 1.19679e-08 0)
(5.00046e-05 1.30071e-08 0)
(5.0004e-05 1.37492e-08 0)
(5.0003e-05 1.43181e-08 0)
(5.00016e-05 1.4431e-08 0)
(4.99994e-05 1.42964e-08 0)
(4.99962e-05 1.36285e-08 0)
(4.99917e-05 1.30182e-08 0)
(5.00056e-05 1.01649e-09 0)
(5.00059e-05 1.83053e-09 0)
(5.00058e-05 2.96011e-09 0)
(5.00058e-05 4.0841e-09 0)
(5.00057e-05 5.15811e-09 0)
(5.00055e-05 6.1931e-09 0)
(5.00053e-05 7.12322e-09 0)
(5.00051e-05 7.98262e-09 0)
(5.00046e-05 8.66457e-09 0)
(5.0004e-05 9.23104e-09 0)
(5.00032e-05 9.52738e-09 0)
(5.0002e-05 9.66333e-09 0)
(5.00003e-05 9.44167e-09 0)
(4.9998e-05 9.09901e-09 0)
(4.9995e-05 8.42966e-09 0)
(4.99912e-05 8.00579e-09 0)
(5.00059e-05 7.84641e-10 0)
(5.00057e-05 1.3267e-09 0)
(5.00056e-05 2.13707e-09 0)
(5.00055e-05 2.93065e-09 0)
(5.00053e-05 3.6695e-09 0)
(5.00051e-05 4.35711e-09 0)
(5.00048e-05 4.93875e-09 0)
(5.00044e-05 5.43915e-09 0)
(5.00038e-05 5.77287e-09 0)
(5.00031e-05 5.99527e-09 0)
(5.0002e-05 5.98827e-09 0)
(5.00007e-05 5.86443e-09 0)
(4.9999e-05 5.47869e-09 0)
(4.99967e-05 5.07327e-09 0)
(4.9994e-05 4.48037e-09 0)
(4.99909e-05 4.20574e-09 0)
(5.00057e-05 5.69036e-10 0)
(5.0005e-05 8.73819e-10 0)
(5.00049e-05 1.3991e-09 0)
(5.00048e-05 1.90191e-09 0)
(5.00045e-05 2.34942e-09 0)
(5.00042e-05 2.74415e-09 0)
(5.00038e-05 3.03879e-09 0)
(5.00033e-05 3.25745e-09 0)
(5.00026e-05 3.3296e-09 0)
(5.00018e-05 3.31171e-09 0)
(5.00006e-05 3.11131e-09 0)
(4.99992e-05 2.84182e-09 0)
(4.99975e-05 2.39245e-09 0)
(4.99955e-05 1.98624e-09 0)
(4.99931e-05 1.48108e-09 0)
(4.99905e-05 1.2804e-09 0)
(5.00051e-05 3.75106e-10 0)
(5.0004e-05 4.79008e-10 0)
(5.00038e-05 7.5754e-10 0)
(5.00037e-05 1.01195e-09 0)
(5.00034e-05 1.21433e-09 0)
(5.0003e-05 1.36904e-09 0)
(5.00025e-05 1.43477e-09 0)
(5.00019e-05 1.43798e-09 0)
(5.00012e-05 1.31945e-09 0)
(5.00002e-05 1.13764e-09 0)
(4.99991e-05 8.18246e-10 0)
(4.99977e-05 4.70824e-10 0)
(4.99961e-05 7.07167e-12 0)
(4.99942e-05 -3.78053e-10 0)
(4.99922e-05 -8.07915e-10 0)
(4.99901e-05 -9.661e-10 0)
(5.0004e-05 2.0595e-10 0)
(5.00026e-05 1.44401e-10 0)
(5.00025e-05 2.15367e-10 0)
(5.00022e-05 2.63355e-10 0)
(5.00019e-05 2.65318e-10 0)
(5.00015e-05 2.2846e-10 0)
(5.0001e-05 1.16719e-10 0)
(5.00004e-05 -4.06626e-11 0)
(4.99995e-05 -2.94129e-10 0)
(4.99986e-05 -5.84572e-10 0)
(4.99974e-05 -9.73376e-10 0)
(4.99961e-05 -1.35882e-09 0)
(4.99946e-05 -1.81405e-09 0)
(4.9993e-05 -2.1749e-09 0)
(4.99913e-05 -2.54897e-09 0)
(4.99896e-05 -2.69267e-09 0)
(5.00027e-05 6.25185e-11 0)
(5.0001e-05 -1.31908e-10 0)
(5.00008e-05 -2.31098e-10 0)
(5.00006e-05 -3.50418e-10 0)
(5.00003e-05 -5.08296e-10 0)
(4.99998e-05 -6.94537e-10 0)
(4.99993e-05 -9.4073e-10 0)
(4.99986e-05 -1.21535e-09 0)
(4.99978e-05 -1.5622e-09 0)
(4.99969e-05 -1.92304e-09 0)
(4.99958e-05 -2.3503e-09 0)
(4.99945e-05 -2.75199e-09 0)
(4.99932e-05 -3.19082e-09 0)
(4.99918e-05 -3.53117e-09 0)
(4.99903e-05 -3.86699e-09 0)
(4.9989e-05 -4.01122e-09 0)
(5.00011e-05 -5.59753e-11 0)
(4.99992e-05 -3.54475e-10 0)
(4.9999e-05 -5.89752e-10 0)
(4.99988e-05 -8.4144e-10 0)
(4.99984e-05 -1.12381e-09 0)
(4.9998e-05 -1.4239e-09 0)
(4.99974e-05 -1.76967e-09 0)
(4.99968e-05 -2.12799e-09 0)
(4.9996e-05 -2.53787e-09 0)
(4.99951e-05 -2.94303e-09 0)
(4.99941e-05 -3.38983e-09 0)
(4.9993e-05 -3.79642e-09 0)
(4.99918e-05 -4.21814e-09 0)
(4.99905e-05 -4.54419e-09 0)
(4.99893e-05 -4.85649e-09 0)
(4.99882e-05 -5.01193e-09 0)
(4.99993e-05 -1.5146e-10 0)
(4.99973e-05 -5.29504e-10 0)
(4.99971e-05 -8.71058e-10 0)
(4.99969e-05 -1.22506e-09 0)
(4.99965e-05 -1.60217e-09 0)
(4.99961e-05 -1.98711e-09 0)
(4.99955e-05 -2.40498e-09 0)
(4.99949e-05 -2.82174e-09 0)
(4.99941e-05 -3.27302e-09 0)
(4.99933e-05 -3.70517e-09 0)
(4.99923e-05 -4.1605e-09 0)
(4.99914e-05 -4.56671e-09 0)
(4.99903e-05 -4.97379e-09 0)
(4.99893e-05 -5.29153e-09 0)
(4.99883e-05 -5.59134e-09 0)
(4.99874e-05 -5.7639e-09 0)
(4.99973e-05 -2.26579e-10 0)
(4.99953e-05 -6.63906e-10 0)
(4.99951e-05 -1.08651e-09 0)
(4.99948e-05 -1.51773e-09 0)
(4.99945e-05 -1.96527e-09 0)
(4.99941e-05 -2.41193e-09 0)
(4.99935e-05 -2.88075e-09 0)
(4.9993e-05 -3.3372e-09 0)
(4.99922e-05 -3.81477e-09 0)
(4.99915e-05 -4.26252e-09 0)
(4.99906e-05 -4.72024e-09 0)
(4.99898e-05 -5.12403e-09 0)
(4.99889e-05 -5.51996e-09 0)
(4.9988e-05 -5.83445e-09 0)
(4.99872e-05 -6.12983e-09 0)
(4.99865e-05 -6.32284e-09 0)
(4.99953e-05 -2.84283e-10 0)
(4.99932e-05 -7.64716e-10 0)
(4.9993e-05 -1.24767e-09 0)
(4.99928e-05 -1.73581e-09 0)
(4.99925e-05 -2.23443e-09 0)
(4.99921e-05 -2.72486e-09 0)
(4.99916e-05 -3.22867e-09 0)
(4.9991e-05 -3.71121e-09 0)
(4.99904e-05 -4.20468e-09 0)
(4.99897e-05 -4.66073e-09 0)
(4.99889e-05 -5.11764e-09 0)
(4.99882e-05 -5.51864e-09 0)
(4.99874e-05 -5.90682e-09 0)
(4.99867e-05 -6.22184e-09 0)
(4.9986e-05 -6.51825e-09 0)
(4.99854e-05 -6.73295e-09 0)
(4.99932e-05 -3.27579e-10 0)
(4.99911e-05 -8.3861e-10 0)
(4.99909e-05 -1.36548e-09 0)
(4.99907e-05 -1.89455e-09 0)
(4.99904e-05 -2.42932e-09 0)
(4.999e-05 -2.94989e-09 0)
(4.99896e-05 -3.47701e-09 0)
(4.99891e-05 -3.97592e-09 0)
(4.99885e-05 -4.47835e-09 0)
(4.99879e-05 -4.93808e-09 0)
(4.99872e-05 -5.39278e-09 0)
(4.99866e-05 -5.79129e-09 0)
(4.99859e-05 -6.17465e-09 0)
(4.99853e-05 -6.49277e-09 0)
(4.99848e-05 -6.79373e-09 0)
(4.99843e-05 -7.02997e-09 0)
(4.99911e-05 -3.59327e-10 0)
(4.9989e-05 -8.9172e-10 0)
(4.99888e-05 -1.44988e-09 0)
(4.99886e-05 -2.00777e-09 0)
(4.99883e-05 -2.5675e-09 0)
(4.9988e-05 -3.10825e-09 0)
(4.99876e-05 -3.65031e-09 0)
(4.99872e-05 -4.15896e-09 0)
(4.99867e-05 -4.6658e-09 0)
(4.99861e-05 -5.12648e-09 0)
(4.99856e-05 -5.57843e-09 0)
(4.9985e-05 -5.97502e-09 0)
(4.99844e-05 -6.35577e-09 0)
(4.99839e-05 -6.67849e-09 0)
(4.99835e-05 -6.98594e-09 0)
(4.99831e-05 -7.24256e-09 0)
(4.9989e-05 -3.82155e-10 0)
(4.99868e-05 -9.29439e-10 0)
(4.99867e-05 -1.50963e-09 0)
(4.99865e-05 -2.08749e-09 0)
(4.99863e-05 -2.6642e-09 0)
(4.9986e-05 -3.21811e-09 0)
(4.99857e-05 -3.76948e-09 0)
(4.99853e-05 -4.28341e-09 0)
(4.99848e-05 -4.79198e-09 0)
(4.99844e-05 -5.25198e-09 0)
(4.99839e-05 -5.70132e-09 0)
(4.99834e-05 -6.09643e-09 0)
(4.9983e-05 -6.47618e-09 0)
(4.99825e-05 -6.80406e-09 0)
(4.99822e-05 -7.11881e-09 0)
(4.99819e-05 -7.39394e-09 0)
(4.99869e-05 -3.98374e-10 0)
(4.99847e-05 -9.56467e-10 0)
(4.99846e-05 -1.55229e-09 0)
(4.99845e-05 -2.14411e-09 0)
(4.99843e-05 -2.73245e-09 0)
(4.9984e-05 -3.29495e-09 0)
(4.99837e-05 -3.852e-09 0)
(4.99834e-05 -4.36862e-09 0)
(4.9983e-05 -4.87738e-09 0)
(4.99827e-05 -5.336e-09 0)
(4.99822e-05 -5.78296e-09 0)
(4.99819e-05 -6.17698e-09 0)
(4.99815e-05 -6.55662e-09 0)
(4.99811e-05 -6.88957e-09 0)
(4.99808e-05 -7.21146e-09 0)
(4.99806e-05 -7.50273e-09 0)
(4.99848e-05 -4.09999e-10 0)
(4.99826e-05 -9.76742e-10 0)
(4.99825e-05 -1.58423e-09 0)
(4.99824e-05 -2.18628e-09 0)
(4.99822e-05 -2.78307e-09 0)
(4.9982e-05 -3.35148e-09 0)
(4.99818e-05 -3.91235e-09 0)
(4.99815e-05 -4.43027e-09 0)
(4.99812e-05 -4.93874e-09 0)
(4.99809e-05 -5.39569e-09 0)
(4.99806e-05 -5.84078e-09 0)
(4.99803e-05 -6.23377e-09 0)
(4.99799e-05 -6.61381e-09 0)
(4.99797e-05 -6.95105e-09 0)
(4.99794e-05 -7.27931e-09 0)
(4.99793e-05 -7.58397e-09 0)
(4.99826e-05 -4.18723e-10 0)
(4.99805e-05 -9.93597e-10 0)
(4.99805e-05 -1.61077e-09 0)
(4.99804e-05 -2.2213e-09 0)
(4.99802e-05 -2.8251e-09 0)
(4.99801e-05 -3.39836e-09 0)
(4.99799e-05 -3.96238e-09 0)
(4.99797e-05 -4.48133e-09 0)
(4.99794e-05 -4.98959e-09 0)
(4.99792e-05 -5.44509e-09 0)
(4.99789e-05 -5.8887e-09 0)
(4.99787e-05 -6.28064e-09 0)
(4.99784e-05 -6.66102e-09 0)
(4.99782e-05 -7.00138e-09 0)
(4.9978e-05 -7.33464e-09 0)
(4.99779e-05 -7.64966e-09 0)
(4.99805e-05 -4.25974e-10 0)
(4.99784e-05 -1.00971e-09 0)
(4.99784e-05 -1.63623e-09 0)
(4.99783e-05 -2.25498e-09 0)
(4.99782e-05 -2.86579e-09 0)
(4.99781e-05 -3.44405e-09 0)
(4.9978e-05 -4.01164e-09 0)
(4.99779e-05 -4.53206e-09 0)
(4.99777e-05 -5.04077e-09 0)
(4.99775e-05 -5.4952e-09 0)
(4.99773e-05 -5.93784e-09 0)
(4.99771e-05 -6.32845e-09 0)
(4.99769e-05 -6.70886e-09 0)
(4.99768e-05 -7.05074e-09 0)
(4.99766e-05 -7.38726e-09 0)
(4.99765e-05 -7.70936e-09 0)
(4.99785e-05 -4.32904e-10 0)
(4.99763e-05 -1.02729e-09 0)
(4.99763e-05 -1.66415e-09 0)
(4.99763e-05 -2.29214e-09 0)
(4.99762e-05 -2.91108e-09 0)
(4.99762e-05 -3.49551e-09 0)
(4.99761e-05 -4.06779e-09 0)
(4.9976e-05 -4.59084e-09 0)
(4.99759e-05 -5.10097e-09 0)
(4.99758e-05 -5.55498e-09 0)
(4.99757e-05 -5.99706e-09 0)
(4.99756e-05 -6.38595e-09 0)
(4.99754e-05 -6.76572e-09 0)
(4.99753e-05 -7.10722e-09 0)
(4.99752e-05 -7.44488e-09 0)
(4.99751e-05 -7.77057e-09 0)
(4.99764e-05 -4.4046e-10 0)
(4.99742e-05 -1.04802e-09 0)
(4.99743e-05 -1.6972e-09 0)
(4.99742e-05 -2.33643e-09 0)
(4.99742e-05 -2.96547e-09 0)
(4.99742e-05 -3.558e-09 0)
(4.99742e-05 -4.13676e-09 0)
(4.99742e-05 -4.66399e-09 0)
(4.99741e-05 -5.17686e-09 0)
(4.99741e-05 -5.63121e-09 0)
(4.9974e-05 -6.07319e-09 0)
(4.9974e-05 -6.45979e-09 0)
(4.99739e-05 -6.83808e-09 0)
(4.99738e-05 -7.17699e-09 0)
(4.99737e-05 -7.51343e-09 0)
(4.99736e-05 -7.839e-09 0)
(4.99742e-05 -4.49364e-10 0)
(4.99721e-05 -1.07318e-09 0)
(4.99722e-05 -1.73746e-09 0)
(4.99722e-05 -2.39066e-09 0)
(4.99722e-05 -3.03243e-09 0)
(4.99723e-05 -3.6356e-09 0)
(4.99723e-05 -4.22305e-09 0)
(4.99724e-05 -4.75646e-09 0)
(4.99724e-05 -5.27355e-09 0)
(4.99724e-05 -5.72918e-09 0)
(4.99724e-05 -6.17145e-09 0)
(4.99724e-05 -6.55512e-09 0)
(4.99724e-05 -6.93088e-09 0)
(4.99724e-05 -7.26477e-09 0)
(4.99723e-05 -7.59735e-09 0)
(4.99722e-05 -7.91883e-09 0)
(4.99721e-05 -4.60169e-10 0)
(4.997e-05 -1.1036e-09 0)
(4.997e-05 -1.78625e-09 0)
(4.99701e-05 -2.45664e-09 0)
(4.99702e-05 -3.11422e-09 0)
(4.99703e-05 -3.73098e-09 0)
(4.99704e-05 -4.32964e-09 0)
(4.99705e-05 -4.87152e-09 0)
(4.99706e-05 -5.39449e-09 0)
(4.99707e-05 -5.85241e-09 0)
(4.99708e-05 -6.29539e-09 0)
(4.99709e-05 -6.6754e-09 0)
(4.99708e-05 -7.04747e-09 0)
(4.99709e-05 -7.37365e-09 0)
(4.99708e-05 -7.69952e-09 0)
(4.99708e-05 -8.01267e-09 0)
(4.997e-05 -4.73231e-10 0)
(4.99678e-05 -1.13972e-09 0)
(4.99679e-05 -1.84429e-09 0)
(4.9968e-05 -2.53537e-09 0)
(4.99681e-05 -3.21204e-09 0)
(4.99683e-05 -3.84565e-09 0)
(4.99684e-05 -4.45821e-09 0)
(4.99686e-05 -5.01104e-09 0)
(4.99688e-05 -5.54167e-09 0)
(4.9969e-05 -6.003e-09 0)
(4.99691e-05 -6.44715e-09 0)
(4.99693e-05 -6.8227e-09 0)
(4.99693e-05 -7.18981e-09 0)
(4.99694e-05 -7.50539e-09 0)
(4.99694e-05 -7.82148e-09 0)
(4.99694e-05 -8.12172e-09 0)
(4.99678e-05 -4.88738e-10 0)
(4.99655e-05 -1.18148e-09 0)
(4.99656e-05 -1.91151e-09 0)
(4.99658e-05 -2.62679e-09 0)
(4.9966e-05 -3.32587e-09 0)
(4.99662e-05 -3.97962e-09 0)
(4.99664e-05 -4.60884e-09 0)
(4.99667e-05 -5.17524e-09 0)
(4.9967e-05 -5.71535e-09 0)
(4.99673e-05 -6.18132e-09 0)
(4.99675e-05 -6.62709e-09 0)
(4.99677e-05 -6.99739e-09 0)
(4.99678e-05 -7.35822e-09 0)
(4.9968e-05 -7.66012e-09 0)
(4.9968e-05 -7.96318e-09 0)
(4.9968e-05 -8.24556e-09 0)
(4.99655e-05 -5.06667e-10 0)
(4.99632e-05 -1.22832e-09 0)
(4.99633e-05 -1.987e-09 0)
(4.99635e-05 -2.72975e-09 0)
(4.99638e-05 -3.45428e-09 0)
(4.99641e-05 -4.1314e-09 0)
(4.99644e-05 -4.77988e-09 0)
(4.99648e-05 -5.36249e-09 0)
(4.99651e-05 -5.91391e-09 0)
(4.99655e-05 -6.38582e-09 0)
(4.99658e-05 -6.83374e-09 0)
(4.99662e-05 -7.19798e-09 0)
(4.99664e-05 -7.55125e-09 0)
(4.99666e-05 -7.83618e-09 0)
(4.99666e-05 -8.1228e-09 0)
(4.99666e-05 -8.38194e-09 0)
(4.99631e-05 -5.26775e-10 0)
(4.99607e-05 -1.27905e-09 0)
(4.9961e-05 -2.06888e-09 0)
(4.99612e-05 -2.84176e-09 0)
(4.99615e-05 -3.59425e-09 0)
(4.99619e-05 -4.29759e-09 0)
(4.99623e-05 -4.96765e-09 0)
(4.99628e-05 -5.56903e-09 0)
(4.99632e-05 -6.13349e-09 0)
(4.99638e-05 -6.61273e-09 0)
(4.99642e-05 -7.06338e-09 0)
(4.99646e-05 -7.42086e-09 0)
(4.99649e-05 -7.76529e-09 0)
(4.99652e-05 -8.02988e-09 0)
(4.99653e-05 -8.2965e-09 0)
(4.99653e-05 -8.52659e-09 0)
(4.99607e-05 -5.4855e-10 0)
(4.99582e-05 -1.33168e-09 0)
(4.99585e-05 -2.15401e-09 0)
(4.99587e-05 -2.95865e-09 0)
(4.99591e-05 -3.74065e-09 0)
(4.99596e-05 -4.47243e-09 0)
(4.99601e-05 -5.16579e-09 0)
(4.99607e-05 -5.78822e-09 0)
(4.99613e-05 -6.36729e-09 0)
(4.9962e-05 -6.85529e-09 0)
(4.99625e-05 -7.30936e-09 0)
(4.99631e-05 -7.65946e-09 0)
(4.99635e-05 -7.99398e-09 0)
(4.99639e-05 -8.23472e-09 0)
(4.9964e-05 -8.47777e-09 0)
(4.99641e-05 -8.67248e-09 0)
(4.99581e-05 -5.71142e-10 0)
(4.99555e-05 -1.38332e-09 0)
(4.99559e-05 -2.23779e-09 0)
(4.99562e-05 -3.07427e-09 0)
(4.99567e-05 -3.88597e-09 0)
(4.99572e-05 -4.64734e-09 0)
(4.99579e-05 -5.36489e-09 0)
(4.99586e-05 -6.01022e-09 0)
(4.99593e-05 -6.60516e-09 0)
(4.99601e-05 -7.10338e-09 0)
(4.99608e-05 -7.56166e-09 0)
(4.99615e-05 -7.90403e-09 0)
(4.9962e-05 -8.22777e-09 0)
(4.99626e-05 -8.44122e-09 0)
(4.99628e-05 -8.6571e-09 0)
(4.9963e-05 -8.80963e-09 0)
(4.99555e-05 -5.93307e-10 0)
(4.99528e-05 -1.42986e-09 0)
(4.99531e-05 -2.31364e-09 0)
(4.99535e-05 -3.17986e-09 0)
(4.99541e-05 -4.01942e-09 0)
(4.99548e-05 -4.81e-09 0)
(4.99555e-05 -5.55133e-09 0)
(4.99564e-05 -6.22064e-09 0)
(4.99573e-05 -6.83221e-09 0)
(4.99582e-05 -7.34207e-09 0)
(4.99591e-05 -7.80548e-09 0)
(4.996e-05 -8.14005e-09 0)
(4.99606e-05 -8.45256e-09 0)
(4.99613e-05 -8.63542e-09 0)
(4.99617e-05 -8.82073e-09 0)
(4.99619e-05 -8.92382e-09 0)
(4.99527e-05 -6.13281e-10 0)
(4.99498e-05 -1.46579e-09 0)
(4.99502e-05 -2.37281e-09 0)
(4.99507e-05 -3.26364e-09 0)
(4.99514e-05 -4.12653e-09 0)
(4.99522e-05 -4.94377e-09 0)
(4.99531e-05 -5.70672e-09 0)
(4.99541e-05 -6.40001e-09 0)
(4.99552e-05 -7.02824e-09 0)
(4.99563e-05 -7.55108e-09 0)
(4.99573e-05 -8.02066e-09 0)
(4.99584e-05 -8.34787e-09 0)
(4.99593e-05 -8.64925e-09 0)
(4.99601e-05 -8.79856e-09 0)
(4.99606e-05 -8.95025e-09 0)
(4.9961e-05 -8.99623e-09 0)
(4.99497e-05 -6.28702e-10 0)
(4.99468e-05 -1.48381e-09 0)
(4.99472e-05 -2.40359e-09 0)
(4.99478e-05 -3.30987e-09 0)
(4.99486e-05 -4.18787e-09 0)
(4.99495e-05 -5.02623e-09 0)
(4.99505e-05 -5.80618e-09 0)
(4.99517e-05 -6.52182e-09 0)
(4.9953e-05 -7.16567e-09 0)
(4.99543e-05 -7.70259e-09 0)
(4.99556e-05 -8.17949e-09 0)
(4.99569e-05 -8.5004e-09 0)
(4.9958e-05 -8.79154e-09 0)
(4.9959e-05 -8.90498e-09 0)
(4.99597e-05 -9.02063e-09 0)
(4.99602e-05 -9.00159e-09 0)
(4.99467e-05 -6.36426e-10 0)
(4.99436e-05 -1.47457e-09 0)
(4.99441e-05 -2.39101e-09 0)
(4.99447e-05 -3.29836e-09 0)
(4.99456e-05 -4.1785e-09 0)
(4.99466e-05 -5.02845e-09 0)
(4.99479e-05 -5.81754e-09 0)
(4.99492e-05 -6.55163e-09 0)
(4.99507e-05 -7.20854e-09 0)
(4.99523e-05 -7.7602e-09 0)
(4.99538e-05 -8.24566e-09 0)
(4.99554e-05 -8.56219e-09 0)
(4.99567e-05 -8.84501e-09 0)
(4.9958e-05 -8.92123e-09 0)
(4.99589e-05 -8.99943e-09 0)
(4.99596e-05 -8.90735e-09 0)
(4.99435e-05 -6.32441e-10 0)
(4.99403e-05 -1.42615e-09 0)
(4.99408e-05 -2.31595e-09 0)
(4.99415e-05 -3.20321e-09 0)
(4.99425e-05 -4.06635e-09 0)
(4.99437e-05 -4.91306e-09 0)
(4.99451e-05 -5.69903e-09 0)
(4.99466e-05 -6.44457e-09 0)
(4.99483e-05 -7.10979e-09 0)
(4.99501e-05 -7.67612e-09 0)
(4.9952e-05 -8.17128e-09 0)
(4.99538e-05 -8.48645e-09 0)
(4.99555e-05 -8.76425e-09 0)
(4.99571e-05 -8.80338e-09 0)
(4.99582e-05 -8.84419e-09 0)
(4.99591e-05 -8.67132e-09 0)
(4.99401e-05 -6.11625e-10 0)
(4.99369e-05 -1.32387e-09 0)
(4.99375e-05 -2.1548e-09 0)
(4.99382e-05 -2.99237e-09 0)
(4.99393e-05 -3.81153e-09 0)
(4.99406e-05 -4.63336e-09 0)
(4.99422e-05 -5.39824e-09 0)
(4.9944e-05 -6.14392e-09 0)
(4.99459e-05 -6.80962e-09 0)
(4.9948e-05 -7.38929e-09 0)
(4.99501e-05 -7.89495e-09 0)
(4.99523e-05 -8.21305e-09 0)
(4.99543e-05 -8.49082e-09 0)
(4.99562e-05 -8.49509e-09 0)
(4.99577e-05 -8.50069e-09 0)
(4.99589e-05 -8.23993e-09 0)
(4.99367e-05 -5.67677e-10 0)
(4.99334e-05 -1.14973e-09 0)
(4.99341e-05 -1.87859e-09 0)
(4.99349e-05 -2.62628e-09 0)
(4.99361e-05 -3.3647e-09 0)
(4.99375e-05 -4.13117e-09 0)
(4.99392e-05 -4.84955e-09 0)
(4.99412e-05 -5.57816e-09 0)
(4.99433e-05 -6.23226e-09 0)
(4.99457e-05 -6.82188e-09 0)
(4.99482e-05 -7.33807e-09 0)
(4.99507e-05 -7.66487e-09 0)
(4.99531e-05 -7.94969e-09 0)
(4.99555e-05 -7.92425e-09 0)
(4.99574e-05 -7.89978e-09 0)
(4.9959e-05 -7.54532e-09 0)
(4.99332e-05 -4.9287e-10 0)
(4.993e-05 -8.82465e-10 0)
(4.99307e-05 -1.45289e-09 0)
(4.99315e-05 -2.05778e-09 0)
(4.99328e-05 -2.6666e-09 0)
(4.99343e-05 -3.33618e-09 0)
(4.99362e-05 -3.9729e-09 0)
(4.99383e-05 -4.65943e-09 0)
(4.99407e-05 -5.28368e-09 0)
(4.99434e-05 -5.87656e-09 0)
(4.99462e-05 -6.40155e-09 0)
(4.99492e-05 -6.74425e-09 0)
(4.9952e-05 -7.04546e-09 0)
(4.99549e-05 -6.99932e-09 0)
(4.99572e-05 -6.95388e-09 0)
(4.99593e-05 -6.50204e-09 0)
(4.99298e-05 -3.78066e-10 0)
(4.99267e-05 -4.97157e-10 0)
(4.99273e-05 -8.3734e-10 0)
(4.99283e-05 -1.23114e-09 0)
(4.99295e-05 -1.64695e-09 0)
(4.99312e-05 -2.16413e-09 0)
(4.99331e-05 -2.67177e-09 0)
(4.99354e-05 -3.28046e-09 0)
(4.99381e-05 -3.84822e-09 0)
(4.9941e-05 -4.43238e-09 0)
(4.99442e-05 -4.96134e-09 0)
(4.99476e-05 -5.32822e-09 0)
(4.9951e-05 -5.65749e-09 0)
(4.99544e-05 -5.60475e-09 0)
(4.99573e-05 -5.55269e-09 0)
(4.996e-05 -5.00313e-09 0)
(4.99265e-05 -2.12575e-10 0)
(4.99236e-05 3.41109e-11 0)
(4.99242e-05 1.35916e-11 0)
(4.99252e-05 -8.3173e-11 0)
(4.99264e-05 -2.251e-10 0)
(4.99281e-05 -5.17448e-10 0)
(4.99301e-05 -8.32702e-10 0)
(4.99326e-05 -1.31373e-09 0)
(4.99354e-05 -1.7863e-09 0)
(4.99386e-05 -2.34148e-09 0)
(4.99422e-05 -2.86389e-09 0)
(4.9946e-05 -3.26308e-09 0)
(4.995e-05 -3.63385e-09 0)
(4.99541e-05 -3.59485e-09 0)
(4.99577e-05 -3.55715e-09 0)
(4.99611e-05 -2.91443e-09 0)
(4.99234e-05 1.55842e-11 0)
(4.99209e-05 7.41831e-10 0)
(4.99215e-05 1.14981e-09 0)
(4.99224e-05 1.45621e-09 0)
(4.99236e-05 1.68908e-09 0)
(4.99253e-05 1.71469e-09 0)
(4.99273e-05 1.67466e-09 0)
(4.99298e-05 1.38999e-09 0)
(4.99328e-05 1.06778e-09 0)
(4.99362e-05 5.74707e-10 0)
(4.99401e-05 7.89489e-11 0)
(4.99444e-05 -3.58225e-10 0)
(4.9949e-05 -7.84207e-10 0)
(4.99538e-05 -7.86817e-10 0)
(4.99582e-05 -7.92685e-10 0)
(4.99625e-05 -6.87949e-11 0)
(4.99207e-05 3.19483e-10 0)
(4.99188e-05 1.65725e-09 0)
(4.99193e-05 2.62297e-09 0)
(4.99201e-05 3.46032e-09 0)
(4.99212e-05 4.19159e-09 0)
(4.99228e-05 4.65229e-09 0)
(4.99247e-05 4.99475e-09 0)
(4.99272e-05 4.99956e-09 0)
(4.99302e-05 4.90588e-09 0)
(4.99338e-05 4.52772e-09 0)
(4.9938e-05 4.09463e-09 0)
(4.99428e-05 3.62117e-09 0)
(4.9948e-05 3.1293e-09 0)
(4.99536e-05 3.04917e-09 0)
(4.9959e-05 2.96051e-09 0)
(4.99644e-05 3.74241e-09 0)
(4.99186e-05 7.12512e-10 0)
(4.99175e-05 2.81027e-09 0)
(4.99179e-05 4.48296e-09 0)
(4.99186e-05 6.00142e-09 0)
(4.99195e-05 7.37888e-09 0)
(4.99209e-05 8.41937e-09 0)
(4.99227e-05 9.28065e-09 0)
(4.9925e-05 9.69953e-09 0)
(4.99279e-05 9.94377e-09 0)
(4.99315e-05 9.76273e-09 0)
(4.9936e-05 9.45428e-09 0)
(4.99411e-05 8.96238e-09 0)
(4.9947e-05 8.4045e-09 0)
(4.99535e-05 8.20459e-09 0)
(4.99601e-05 7.98409e-09 0)
(4.99668e-05 8.78504e-09 0)
(4.99173e-05 1.20745e-09 0)
(4.99173e-05 4.22556e-09 0)
(4.99175e-05 6.77188e-09 0)
(4.99181e-05 9.14243e-09 0)
(4.99187e-05 1.13382e-08 0)
(4.99198e-05 1.31327e-08 0)
(4.99213e-05 1.46829e-08 0)
(4.99233e-05 1.56795e-08 0)
(4.9926e-05 1.64126e-08 0)
(4.99295e-05 1.65539e-08 0)
(4.99341e-05 1.64726e-08 0)
(4.99395e-05 1.60121e-08 0)
(4.9946e-05 1.54126e-08 0)
(4.99534e-05 1.50526e-08 0)
(4.99613e-05 1.46476e-08 0)
(4.99696e-05 1.54093e-08 0)
(4.99172e-05 1.81483e-09 0)
(4.99186e-05 5.91789e-09 0)
(4.99186e-05 9.51637e-09 0)
(4.99189e-05 1.29264e-08 0)
(4.99191e-05 1.61342e-08 0)
(4.99199e-05 1.88866e-08 0)
(4.99209e-05 2.13325e-08 0)
(4.99225e-05 2.31169e-08 0)
(4.99248e-05 2.45425e-08 0)
(4.9928e-05 2.5191e-08 0)
(4.99324e-05 2.55002e-08 0)
(4.99379e-05 2.51751e-08 0)
(4.99449e-05 2.46044e-08 0)
(4.99532e-05 2.40604e-08 0)
(4.99626e-05 2.34259e-08 0)
(4.99729e-05 2.40622e-08 0)
(4.99185e-05 2.54089e-09 0)
(4.99216e-05 7.88572e-09 0)
(4.99213e-05 1.27171e-08 0)
(4.99213e-05 1.73618e-08 0)
(4.99212e-05 2.17902e-08 0)
(4.99214e-05 2.57295e-08 0)
(4.99218e-05 2.93145e-08 0)
(4.99228e-05 3.21482e-08 0)
(4.99245e-05 3.45344e-08 0)
(4.99271e-05 3.59547e-08 0)
(4.99311e-05 3.69042e-08 0)
(4.99364e-05 3.69066e-08 0)
(4.99438e-05 3.6511e-08 0)
(4.99529e-05 3.57956e-08 0)
(4.99639e-05 3.48937e-08 0)
(4.99765e-05 3.52549e-08 0)
(4.99216e-05 3.38485e-09 0)
(4.99266e-05 1.01041e-08 0)
(4.99262e-05 1.63368e-08 0)
(4.99258e-05 2.24054e-08 0)
(4.99251e-05 2.82648e-08 0)
(4.99248e-05 3.36352e-08 0)
(4.99244e-05 3.86321e-08 0)
(4.99246e-05 4.28281e-08 0)
(4.99255e-05 4.65157e-08 0)
(4.99273e-05 4.90748e-08 0)
(4.99305e-05 5.10403e-08 0)
(4.99354e-05 5.17094e-08 0)
(4.99427e-05 5.17845e-08 0)
(4.99524e-05 5.10227e-08 0)
(4.99651e-05 4.98572e-08 0)
(4.99803e-05 4.9699e-08 0)
(4.99267e-05 4.33586e-09 0)
(4.99341e-05 1.25172e-08 0)
(4.99334e-05 2.02876e-08 0)
(4.99326e-05 2.79424e-08 0)
(4.99315e-05 3.5425e-08 0)
(4.99304e-05 4.2465e-08 0)
(4.99293e-05 4.91585e-08 0)
(4.99286e-05 5.50675e-08 0)
(4.99284e-05 6.04661e-08 0)
(4.9929e-05 6.46478e-08 0)
(4.99312e-05 6.81734e-08 0)
(4.99351e-05 7.00905e-08 0)
(4.99419e-05 7.12463e-08 0)
(4.99516e-05 7.09314e-08 0)
(4.99657e-05 6.98792e-08 0)
(4.99841e-05 6.91699e-08 0)
(4.99343e-05 5.36979e-09 0)
(4.99443e-05 1.50322e-08 0)
(4.99433e-05 2.44204e-08 0)
(4.99422e-05 3.37706e-08 0)
(4.99405e-05 4.30208e-08 0)
(4.99388e-05 5.19312e-08 0)
(4.99369e-05 6.05819e-08 0)
(4.99351e-05 6.8555e-08 0)
(4.99337e-05 7.61037e-08 0)
(4.99331e-05 8.24765e-08 0)
(4.99338e-05 8.82572e-08 0)
(4.99363e-05 9.22744e-08 0)
(4.99419e-05 9.55545e-08 0)
(4.9951e-05 9.68503e-08 0)
(4.99658e-05 9.73119e-08 0)
(4.99872e-05 9.72426e-08 0)
(4.99446e-05 6.4468e-09 0)
(4.99573e-05 1.75171e-08 0)
(4.9956e-05 2.85195e-08 0)
(4.99546e-05 3.95898e-08 0)
(4.99525e-05 5.06686e-08 0)
(4.99502e-05 6.15689e-08 0)
(4.99475e-05 7.23611e-08 0)
(4.99448e-05 8.2683e-08 0)
(4.99422e-05 9.2767e-08 0)
(4.99402e-05 1.01874e-07 0)
(4.99392e-05 1.10604e-07 0)
(4.99401e-05 1.1764e-07 0)
(4.99441e-05 1.24223e-07 0)
(4.99519e-05 1.28594e-07 0)
(4.99666e-05 1.32595e-07 0)
(4.99897e-05 1.35488e-07 0)
(4.99576e-05 7.51012e-09 0)
(4.9973e-05 1.98037e-08 0)
(4.99716e-05 3.23082e-08 0)
(4.997e-05 4.50092e-08 0)
(4.99675e-05 5.78576e-08 0)
(4.99648e-05 7.07403e-08 0)
(4.99614e-05 8.37234e-08 0)
(4.99579e-05 9.65371e-08 0)
(4.99542e-05 1.09387e-07 0)
(4.99509e-05 1.21607e-07 0)
(4.99483e-05 1.33776e-07 0)
(4.99473e-05 1.44508e-07 0)
(4.99492e-05 1.55169e-07 0)
(4.99552e-05 1.63469e-07 0)
(4.99688e-05 1.71818e-07 0)
(4.99919e-05 1.78039e-07 0)
(4.99733e-05 8.48779e-09 0)
(4.99912e-05 2.16978e-08 0)
(4.99898e-05 3.54646e-08 0)
(4.99881e-05 4.95685e-08 0)
(4.99855e-05 6.39776e-08 0)
(4.99825e-05 7.86688e-08 0)
(4.99788e-05 9.371e-08 0)
(4.99747e-05 1.08956e-07 0)
(4.99701e-05 1.24579e-07 0)
(4.99656e-05 1.40054e-07 0)
(4.99614e-05 1.5589e-07 0)
(4.99585e-05 1.7074e-07 0)
(4.9958e-05 1.85982e-07 0)
(4.99614e-05 1.9889e-07 0)
(4.99723e-05 2.1235e-07 0)
(4.99931e-05 2.22594e-07 0)
(4.99916e-05 9.2967e-09 0)
(5.00115e-05 2.29957e-08 0)
(5.00102e-05 3.76488e-08 0)
(5.00085e-05 5.27768e-08 0)
(5.0006e-05 6.83688e-08 0)
(5.0003e-05 8.45011e-08 0)
(4.99991e-05 1.01246e-07 0)
(4.99948e-05 1.18609e-07 0)
(4.99897e-05 1.36723e-07 0)
(4.99844e-05 1.55262e-07 0)
(4.99788e-05 1.74613e-07 0)
(4.9974e-05 1.93587e-07 0)
(4.99707e-05 2.13394e-07 0)
(4.99708e-05 2.31026e-07 0)
(4.99775e-05 2.49554e-07 0)
(4.99933e-05 2.63632e-07 0)
(5.00119e-05 9.84979e-09 0)
(5.00332e-05 2.35065e-08 0)
(5.00321e-05 3.85399e-08 0)
(5.00306e-05 5.41651e-08 0)
(5.00283e-05 7.0392e-08 0)
(5.00256e-05 8.73961e-08 0)
(5.0022e-05 1.05254e-07 0)
(5.00178e-05 1.24139e-07 0)
(5.00126e-05 1.4414e-07 0)
(5.00068e-05 1.65191e-07 0)
(5.00002e-05 1.8752e-07 0)
(4.99936e-05 2.10244e-07 0)
(4.99873e-05 2.3423e-07 0)
(4.99832e-05 2.56462e-07 0)
(4.9984e-05 2.7979e-07 0)
(4.99922e-05 2.9744e-07 0)
(5.00335e-05 1.00656e-08 0)
(5.00553e-05 2.30769e-08 0)
(5.00545e-05 3.78779e-08 0)
(5.00533e-05 5.33469e-08 0)
(5.00515e-05 6.95094e-08 0)
(5.00493e-05 8.66272e-08 0)
(5.00463e-05 1.04777e-07 0)
(5.00426e-05 1.24298e-07 0)
(5.00377e-05 1.45238e-07 0)
(5.0032e-05 1.67838e-07 0)
(5.00248e-05 1.9216e-07 0)
(5.00168e-05 2.17801e-07 0)
(5.00075e-05 2.45176e-07 0)
(4.99987e-05 2.71703e-07 0)
(4.99919e-05 2.99625e-07 0)
(4.99898e-05 3.21109e-07 0)
(5.00556e-05 9.87893e-09 0)
(5.00768e-05 2.16204e-08 0)
(5.00763e-05 3.55119e-08 0)
(5.00756e-05 5.00895e-08 0)
(5.00744e-05 6.53807e-08 0)
(5.00729e-05 8.17098e-08 0)
(5.00707e-05 9.91351e-08 0)
(5.00678e-05 1.18146e-07 0)
(5.00638e-05 1.38741e-07 0)
(5.00587e-05 1.61476e-07 0)
(5.00516e-05 1.86269e-07 0)
(5.00428e-05 2.13332e-07 0)
(5.00309e-05 2.42581e-07 0)
(5.00175e-05 2.72437e-07 0)
(5.00021e-05 3.04285e-07 0)
(4.99869e-05 3.30248e-07 0)
(5.0077e-05 9.25313e-09 0)
(5.00965e-05 1.91399e-08 0)
(5.00963e-05 3.14405e-08 0)
(5.00961e-05 4.43727e-08 0)
(5.00955e-05 5.79492e-08 0)
(5.00948e-05 7.25152e-08 0)
(5.00935e-05 8.80861e-08 0)
(5.00917e-05 1.05248e-07 0)
(5.00889e-05 1.23923e-07 0)
(5.00848e-05 1.44938e-07 0)
(5.00784e-05 1.68072e-07 0)
(5.00695e-05 1.94154e-07 0)
(5.00559e-05 2.22556e-07 0)
(5.00385e-05 2.53189e-07 0)
(5.0014e-05 2.85839e-07 0)
(4.99838e-05 3.13502e-07 0)
(5.00966e-05 8.18995e-09 0)
(5.01134e-05 1.57452e-08 0)
(5.01134e-05 2.58421e-08 0)
(5.01136e-05 3.64417e-08 0)
(5.01136e-05 4.75193e-08 0)
(5.01136e-05 5.93913e-08 0)
(5.01132e-05 7.19794e-08 0)
(5.01124e-05 8.58879e-08 0)
(5.01108e-05 1.00916e-07 0)
(5.0108e-05 1.18063e-07 0)
(5.01028e-05 1.36978e-07 0)
(5.00943e-05 1.58993e-07 0)
(5.008e-05 1.8322e-07 0)
(5.00595e-05 2.11628e-07 0)
(5.00259e-05 2.42077e-07 0)
(4.99791e-05 2.70107e-07 0)
(5.01133e-05 6.7367e-09 0)
(5.01264e-05 1.16347e-08 0)
(5.01266e-05 1.90509e-08 0)
(5.0127e-05 2.67832e-08 0)
(5.01274e-05 3.47576e-08 0)
(5.01278e-05 4.32058e-08 0)
(5.0128e-05 5.19052e-08 0)
(5.01278e-05 6.1395e-08 0)
(5.01271e-05 7.12593e-08 0)
(5.01253e-05 8.2487e-08 0)
(5.01213e-05 9.45193e-08 0)
(5.01138e-05 1.08891e-07 0)
(5.01008e-05 1.24786e-07 0)
(5.00808e-05 1.45103e-07 0)
(5.00422e-05 1.65457e-07 0)
(4.99798e-05 1.90407e-07 0)
(5.01263e-05 4.97818e-09 0)
(5.01348e-05 7.10253e-09 0)
(5.0135e-05 1.15639e-08 0)
(5.01355e-05 1.61327e-08 0)
(5.01359e-05 2.07092e-08 0)
(5.01364e-05 2.54204e-08 0)
(5.01366e-05 2.99738e-08 0)
(5.01365e-05 3.48322e-08 0)
(5.01361e-05 3.91639e-08 0)
(5.01349e-05 4.35409e-08 0)
(5.01318e-05 4.68047e-08 0)
(5.01251e-05 4.99711e-08 0)
(5.01128e-05 5.11553e-08 0)
(5.00887e-05 5.08471e-08 0)
(5.0045e-05 4.11002e-08 0)
(4.99756e-05 3.8363e-08 0)
(5.01346e-05 3.03942e-09 0)
(5.0139e-05 2.62242e-09 0)
(5.01392e-05 4.15373e-09 0)
(5.01397e-05 5.56486e-09 0)
(5.01401e-05 6.75452e-09 0)
(5.01405e-05 7.76554e-09 0)
(5.01406e-05 8.38057e-09 0)
(5.01402e-05 8.93151e-09 0)
(5.01387e-05 8.11563e-09 0)
(5.01357e-05 5.91003e-09 0)
(5.01299e-05 3.5266e-10 0)
(5.0119e-05 -8.01565e-09 0)
(5.01006e-05 -2.3116e-08 0)
(5.0067e-05 -4.29879e-08 0)
(5.00219e-05 -6.88402e-08 0)
(4.99674e-05 -8.21997e-08 0)
(5.01388e-05 1.12347e-09 0)
(5.01378e-05 -1.58421e-09 0)
(5.01377e-05 -2.79983e-09 0)
(5.01377e-05 -4.3755e-09 0)
(5.01375e-05 -6.47238e-09 0)
(5.01373e-05 -9.17389e-09 0)
(5.01365e-05 -1.27459e-08 0)
(5.01345e-05 -1.74016e-08 0)
(5.01298e-05 -2.44609e-08 0)
(5.0122e-05 -3.40593e-08 0)
(5.01099e-05 -4.87247e-08 0)
(5.00906e-05 -6.71826e-08 0)
(5.00637e-05 -9.22241e-08 0)
(5.00289e-05 -1.1772e-07 0)
(4.99974e-05 -1.38797e-07 0)
(4.9965e-05 -1.49842e-07 0)
(5.01378e-05 -6.76704e-10 0)
(5.01286e-05 -5.9731e-09 0)
(5.01277e-05 -9.97584e-09 0)
(5.01268e-05 -1.44852e-08 0)
(5.01253e-05 -1.98123e-08 0)
(5.01232e-05 -2.62242e-08 0)
(5.01201e-05 -3.43216e-08 0)
(5.01145e-05 -4.46126e-08 0)
(5.01052e-05 -5.79281e-08 0)
(5.00913e-05 -7.40066e-08 0)
(5.00727e-05 -9.50159e-08 0)
(5.00485e-05 -1.17632e-07 0)
(5.00223e-05 -1.40903e-07 0)
(5.00012e-05 -1.58614e-07 0)
(4.99872e-05 -1.71781e-07 0)
(4.99669e-05 -1.81424e-07 0)
(5.01288e-05 -2.55609e-09 0)
(5.01106e-05 -1.06895e-08 0)
(5.0109e-05 -1.76785e-08 0)
(5.01068e-05 -2.52579e-08 0)
(5.01032e-05 -3.38566e-08 0)
(5.00983e-05 -4.38707e-08 0)
(5.00912e-05 -5.62846e-08 0)
(5.0081e-05 -7.16705e-08 0)
(5.00669e-05 -8.95772e-08 0)
(5.00485e-05 -1.08113e-07 0)
(5.00282e-05 -1.2778e-07 0)
(5.00112e-05 -1.45958e-07 0)
(4.99988e-05 -1.60446e-07 0)
(4.99899e-05 -1.70742e-07 0)
(4.99816e-05 -1.8349e-07 0)
(4.99682e-05 -1.93785e-07 0)
(5.0111e-05 -4.57473e-09 0)
(5.00817e-05 -1.57632e-08 0)
(5.00791e-05 -2.60349e-08 0)
(5.00753e-05 -3.69399e-08 0)
(5.00693e-05 -4.88023e-08 0)