/*--------------------------------*- C++ -*----------------------------------*\
| =========                 |                                                 |
| \\      /  F ield         | foam-extend: Open Source CFD                    |
|  \\    /   O peration     | Version:     4.1-20200408                       |
|   \\  /    A nd           | Web:         http://www.foam-extend.org         |
|    \\/     M anipulation  |                                                 |
\*---------------------------------------------------------------------------*/
FoamFile
{
    version     2.0;
    format      ascii;
    class       volScalarField;
    location    "0.0155000";
    object      rho_0;
}
// * * * * * * * * * * * * * * * * * * * * * * * * * * * * * * * * * * * * * //

dimensions      [1 -3 0 0 0 0 0];

internalField   nonuniform List<scalar> 
1952
(
7821.66
7821.73
7821.82
7821.95
7822.1
7822.29
7822.47
7822.65
7822.82
7823.02
7823.13
7823.02
7822.67
7822.43
7823.18
7821.65
7822.14
7822.21
7822.3
7822.43
7822.59
7822.79
7822.97
7823.17
7823.35
7823.56
7823.69
7823.59
7823.23
7822.9
7823.48
7822.13
7822.59
7822.66
7822.75
7822.89
7823.04
7823.25
7823.44
7823.64
7823.82
7824.04
7824.17
7824.05
7823.66
7823.23
7823.7
7822.58
7823.01
7823.08
7823.17
7823.31
7823.46
7823.66
7823.85
7824.05
7824.23
7824.44
7824.55
7824.4
7823.97
7823.42
7823.79
7822.99
7823.39
7823.46
7823.55
7823.68
7823.83
7824.04
7824.22
7824.41
7824.58
7824.78
7824.86
7824.69
7824.2
7823.57
7823.84
7823.38
7823.74
7823.81
7823.89
7824.03
7824.17
7824.37
7824.54
7824.73
7824.88
7825.06
7825.12
7824.92
7824.38
7823.66
7823.86
7823.72
7824.05
7824.12
7824.2
7824.33
7824.47
7824.66
7824.83
7825
7825.14
7825.3
7825.34
7825.1
7824.53
7823.73
7823.87
7824.04
7824.34
7824.41
7824.48
7824.61
7824.74
7824.92
7825.08
7825.25
7825.37
7825.51
7825.52
7825.26
7824.64
7823.78
7823.87
7824.33
7824.6
7824.66
7824.73
7824.86
7824.98
7825.16
7825.3
7825.46
7825.57
7825.69
7825.68
7825.4
7824.75
7823.82
7823.88
7824.59
7824.83
7824.9
7824.96
7825.09
7825.2
7825.37
7825.5
7825.65
7825.74
7825.85
7825.82
7825.52
7824.84
7823.86
7823.88
7824.83
7825.04
7825.11
7825.17
7825.29
7825.39
7825.56
7825.68
7825.82
7825.9
7826
7825.94
7825.63
7824.92
7823.89
7823.89
7825.04
7825.24
7825.3
7825.36
7825.47
7825.57
7825.73
7825.84
7825.97
7826.04
7826.13
7826.06
7825.73
7825.01
7823.93
7823.9
7825.23
7825.41
7825.47
7825.53
7825.64
7825.73
7825.88
7825.99
7826.11
7826.17
7826.25
7826.17
7825.83
7825.08
7823.97
7823.92
7825.41
7825.57
7825.63
7825.69
7825.79
7825.88
7826.02
7826.12
7826.24
7826.29
7826.37
7826.27
7825.93
7825.16
7824.01
7823.94
7825.57
7825.72
7825.78
7825.83
7825.94
7826.02
7826.16
7826.25
7826.36
7826.41
7826.48
7826.37
7826.03
7825.25
7824.06
7823.96
7825.72
7825.86
7825.92
7825.97
7826.07
7826.15
7826.28
7826.37
7826.48
7826.52
7826.58
7826.47
7826.13
7825.33
7824.13
7823.98
7825.86
7825.99
7826.05
7826.1
7826.19
7826.27
7826.4
7826.48
7826.58
7826.62
7826.68
7826.56
7826.21
7825.41
7824.19
7824.01
7825.99
7826.11
7826.17
7826.21
7826.31
7826.38
7826.5
7826.58
7826.68
7826.72
7826.77
7826.65
7826.29
7825.49
7824.25
7824.05
7826.11
7826.22
7826.28
7826.32
7826.42
7826.49
7826.61
7826.68
7826.78
7826.81
7826.86
7826.74
7826.37
7825.58
7824.31
7824.1
7826.22
7826.34
7826.39
7826.44
7826.53
7826.59
7826.71
7826.79
7826.88
7826.91
7826.95
7826.82
7826.45
7825.66
7824.38
7824.13
7826.34
7826.45
7826.5
7826.55
7826.63
7826.7
7826.81
7826.88
7826.97
7827
7827.04
7826.91
7826.53
7825.75
7824.46
7824.17
7826.45
7826.55
7826.6
7826.65
7826.74
7826.8
7826.91
7826.98
7827.06
7827.09
7827.12
7826.99
7826.61
7825.83
7824.53
7824.21
7826.55
7826.65
7826.7
7826.75
7826.83
7826.9
7827
7827.07
7827.14
7827.18
7827.21
7827.08
7826.69
7825.92
7824.61
7824.26
7826.65
7826.75
7826.8
7826.85
7826.93
7826.99
7827.09
7827.16
7827.23
7827.27
7827.29
7827.16
7826.77
7826
7824.69
7824.29
7826.75
7826.85
7826.9
7826.95
7827.03
7827.09
7827.18
7827.25
7827.31
7827.36
7827.38
7827.25
7826.86
7826.09
7824.77
7824.33
7826.85
7826.96
7827
7827.05
7827.13
7827.19
7827.28
7827.34
7827.4
7827.45
7827.46
7827.33
7826.94
7826.17
7824.84
7824.37
7826.96
7827.07
7827.11
7827.15
7827.23
7827.29
7827.37
7827.43
7827.49
7827.53
7827.55
7827.41
7827.01
7826.25
7824.91
7824.4
7827.06
7827.17
7827.21
7827.25
7827.33
7827.38
7827.47
7827.52
7827.58
7827.62
7827.62
7827.48
7827.08
7826.33
7824.98
7824.43
7827.17
7827.28
7827.32
7827.36
7827.43
7827.48
7827.56
7827.61
7827.66
7827.7
7827.7
7827.55
7827.15
7826.4
7825.04
7824.45
7827.28
7827.4
7827.43
7827.47
7827.54
7827.59
7827.66
7827.7
7827.75
7827.78
7827.78
7827.62
7827.22
7826.46
7825.1
7824.46
7827.39
7827.52
7827.55
7827.59
7827.65
7827.7
7827.77
7827.8
7827.84
7827.87
7827.86
7827.7
7827.28
7826.53
7825.15
7824.47
7827.52
7827.66
7827.69
7827.72
7827.78
7827.82
7827.88
7827.91
7827.94
7827.96
7827.94
7827.76
7827.34
7826.58
7825.19
7824.46
7827.66
7827.82
7827.84
7827.87
7827.92
7827.95
7828
7828.02
7828.04
7828.05
7828.01
7827.83
7827.39
7826.63
7825.22
7824.44
7827.82
7827.99
7828
7828.03
7828.07
7828.1
7828.14
7828.14
7828.14
7828.14
7828.09
7827.89
7827.44
7826.67
7825.24
7824.41
7827.99
7828.18
7828.19
7828.21
7828.24
7828.26
7828.29
7828.27
7828.26
7828.25
7828.18
7827.96
7827.49
7826.7
7825.25
7824.36
7828.18
7828.4
7828.4
7828.41
7828.43
7828.44
7828.46
7828.42
7828.4
7828.36
7828.27
7828.03
7827.53
7826.73
7825.25
7824.3
7828.4
7828.65
7828.65
7828.65
7828.66
7828.65
7828.65
7828.6
7828.55
7828.49
7828.37
7828.1
7827.57
7826.74
7825.23
7824.22
7828.65
7828.94
7828.93
7828.92
7828.92
7828.9
7828.87
7828.8
7828.72
7828.63
7828.48
7828.17
7827.61
7826.76
7825.2
7824.12
7828.95
7829.27
7829.26
7829.24
7829.22
7829.18
7829.13
7829.03
7828.93
7828.8
7828.62
7828.27
7827.67
7826.77
7825.16
7823.99
7829.28
7829.67
7829.65
7829.62
7829.58
7829.52
7829.45
7829.31
7829.18
7829.01
7828.78
7828.39
7827.73
7826.78
7825.11
7823.84
7829.68
7830.13
7830.1
7830.06
7830
7829.92
7829.82
7829.65
7829.47
7829.26
7828.98
7828.53
7827.81
7826.79
7825.04
7823.67
7830.15
7830.67
7830.62
7830.57
7830.49
7830.38
7830.25
7830.05
7829.83
7829.57
7829.23
7828.7
7827.91
7826.81
7824.98
7823.48
7830.68
7831.28
7831.23
7831.16
7831.07
7830.93
7830.77
7830.53
7830.27
7829.95
7829.54
7828.94
7828.06
7826.86
7824.92
7823.27
7831.31
7832
7831.94
7831.86
7831.75
7831.58
7831.39
7831.11
7830.79
7830.41
7829.94
7829.24
7828.27
7826.95
7824.88
7823.04
7832.02
7832.82
7832.76
7832.66
7832.53
7832.35
7832.13
7831.8
7831.44
7830.99
7830.44
7829.64
7828.56
7827.1
7824.88
7822.82
7832.85
7833.76
7833.69
7833.58
7833.44
7833.24
7832.99
7832.63
7832.22
7831.71
7831.08
7830.17
7828.96
7827.34
7824.93
7822.6
7833.78
7834.82
7834.75
7834.64
7834.49
7834.27
7834.01
7833.62
7833.17
7832.6
7831.89
7830.87
7829.53
7827.71
7825.08
7822.42
7834.84
7836
7835.94
7835.83
7835.68
7835.46
7835.19
7834.78
7834.31
7833.69
7832.92
7831.79
7830.31
7828.28
7825.39
7822.31
7836.03
7837.31
7837.26
7837.16
7837.02
7836.81
7836.54
7836.14
7835.66
7835.02
7834.2
7833
7831.39
7829.15
7825.97
7822.37
7837.34
7838.75
7838.71
7838.62
7838.5
7838.32
7838.08
7837.71
7837.25
7836.63
7835.8
7834.56
7832.88
7830.47
7827.03
7822.88
7838.77
7840.29
7840.27
7840.21
7840.12
7839.99
7839.8
7839.49
7839.09
7838.53
7837.76
7836.56
7834.88
7832.42
7828.88
7824.42
7840.3
7841.91
7841.92
7841.9
7841.86
7841.8
7841.68
7841.47
7841.17
7840.74
7840.08
7839.02
7837.45
7835.09
7831.61
7827.05
7841.91
7843.6
7843.63
7843.66
7843.69
7843.71
7843.69
7843.62
7843.47
7843.23
7842.76
7841.94
7840.62
7838.55
7835.35
7831.01
7843.59
7845.3
7845.37
7845.45
7845.56
7845.68
7845.8
7845.89
7845.94
7845.94
7845.75
7845.29
7844.34
7842.76
7840.04
7836.23
7845.28
7846.98
7847.08
7847.23
7847.42
7847.67
7847.92
7848.21
7848.49
7848.8
7848.95
7848.95
7848.51
7847.6
7845.59
7842.64
7846.94
7848.59
7848.72
7848.94
7849.22
7849.59
7850
7850.49
7851.03
7851.67
7852.23
7852.77
7852.95
7852.9
7851.81
7850.07
7848.53
7850.06
7850.24
7850.52
7850.88
7851.37
7851.94
7852.64
7853.43
7854.42
7855.4
7856.54
7857.44
7858.42
7858.53
7858.51
7849.99
7851.37
7851.58
7851.91
7852.35
7852.94
7853.65
7854.53
7855.56
7856.87
7858.26
7859.97
7861.61
7863.69
7865.15
7867.22
7851.29
7852.46
7852.69
7853.06
7853.57
7854.24
7855.06
7856.09
7857.3
7858.86
7860.58
7862.77
7865.04
7868.06
7870.77
7875.01
7852.37
7853.3
7853.56
7853.96
7854.5
7855.22
7856.1
7857.21
7858.52
7860.19
7862.07
7864.54
7867.25
7871.09
7875.12
7882.14
7853.21
7853.85
7854.11
7854.51
7855.06
7855.79
7856.68
7857.8
7859.12
7860.8
7862.7
7865.25
7868.06
7872.02
7876.2
7882.95
7853.76
7854.15
7854.42
7854.81
7855.36
7856.08
7857
7858.14
7859.52
7861.26
7863.26
7865.88
7868.67
7872.33
7875.85
7880.61
7854.06
7854.58
7854.87
7855.28
7855.87
7856.62
7857.57
7858.77
7860.25
7862.09
7864.17
7866.76
7869.31
7872.1
7874.26
7877.15
7854.49
7855.38
7855.71
7856.16
7856.82
7857.63
7858.68
7859.97
7861.56
7863.42
7865.37
7867.4
7869.06
7870.6
7871.59
7873.23
7855.28
7856.7
7857.09
7857.61
7858.35
7859.27
7860.39
7861.68
7863.08
7864.47
7865.69
7866.76
7867.44
7868.1
7868.5
7869.31
7856.58
7858.74
7859.09
7859.55
7860.19
7860.94
7861.76
7862.58
7863.33
7864
7864.43
7864.79
7864.98
7865.34
7865.46
7865.68
7858.63
7859.97
7860.16
7860.39
7860.71
7861.05
7861.41
7861.71
7861.96
7862.18
7862.3
7862.51
7862.6
7862.7
7862.56
7862.39
7859.91
7859.21
7859.33
7859.44
7859.59
7859.73
7859.86
7859.97
7860.11
7860.26
7860.34
7860.37
7860.3
7860.18
7859.86
7859.43
7859.18
7857.84
7857.93
7858
7858.12
7858.22
7858.32
7858.39
7858.44
7858.44
7858.39
7858.3
7858.11
7857.84
7857.4
7856.8
7857.82
7856.63
7856.68
7856.7
7856.75
7856.77
7856.79
7856.77
7856.74
7856.67
7856.54
7856.35
7856.07
7855.69
7855.16
7854.46
7856.62
7855.3
7855.33
7855.32
7855.33
7855.31
7855.29
7855.22
7855.13
7854.98
7854.79
7854.52
7854.18
7853.72
7853.15
7852.39
7855.3
7854.01
7854.01
7853.99
7853.96
7853.9
7853.83
7853.72
7853.58
7853.38
7853.14
7852.82
7852.43
7851.93
7851.34
7850.56
7854.01
7852.72
7852.71
7852.66
7852.61
7852.53
7852.43
7852.28
7852.11
7851.87
7851.6
7851.24
7850.84
7850.31
7849.72
7848.94
7852.73
7851.47
7851.44
7851.39
7851.32
7851.21
7851.09
7850.92
7850.72
7850.46
7850.17
7849.79
7849.38
7848.85
7848.27
7847.51
7851.48
7850.26
7850.22
7850.16
7850.08
7849.96
7849.82
7849.63
7849.42
7849.15
7848.85
7848.47
7848.05
7847.53
7846.97
7846.24
7850.27
7849.1
7849.06
7848.99
7848.9
7848.77
7848.62
7848.43
7848.21
7847.93
7847.63
7847.25
7846.84
7846.34
7845.81
7845.12
7849.11
7847.99
7847.95
7847.88
7847.78
7847.65
7847.49
7847.3
7847.08
7846.8
7846.5
7846.13
7845.74
7845.26
7844.76
7844.11
7848.01
7846.95
7846.9
7846.83
7846.73
7846.6
7846.44
7846.25
7846.03
7845.76
7845.47
7845.11
7844.74
7844.29
7843.82
7843.22
7846.97
7845.96
7845.91
7845.84
7845.74
7845.61
7845.45
7845.27
7845.05
7844.79
7844.51
7844.18
7843.83
7843.41
7842.97
7842.41
7845.98
7845.03
7844.98
7844.91
7844.81
7844.69
7844.54
7844.36
7844.15
7843.9
7843.64
7843.33
7843
7842.61
7842.2
7841.69
7845.05
7844.16
7844.11
7844.04
7843.95
7843.83
7843.68
7843.51
7843.32
7843.08
7842.84
7842.54
7842.24
7841.88
7841.51
7841.03
7844.18
7843.35
7843.3
7843.23
7843.14
7843.03
7842.89
7842.73
7842.54
7842.33
7842.1
7841.82
7841.54
7841.21
7840.87
7840.44
7843.36
7842.59
7842.54
7842.48
7842.39
7842.28
7842.15
7842
7841.83
7841.63
7841.41
7841.16
7840.91
7840.6
7840.29
7839.89
7842.6
7841.88
7841.83
7841.77
7841.69
7841.59
7841.47
7841.33
7841.17
7840.98
7840.78
7840.55
7840.32
7840.04
7839.76
7839.39
7841.89
7841.21
7841.17
7841.12
7841.04
7840.95
7840.83
7840.7
7840.55
7840.38
7840.2
7839.99
7839.78
7839.53
7839.27
7838.93
7841.23
7840.59
7840.55
7840.51
7840.43
7840.35
7840.24
7840.12
7839.99
7839.83
7839.66
7839.47
7839.28
7839.05
7838.81
7838.51
7840.61
7840.02
7839.98
7839.94
7839.87
7839.79
7839.69
7839.58
7839.46
7839.31
7839.16
7838.99
7838.81
7838.6
7838.39
7838.11
7840.03
7839.48
7839.45
7839.4
7839.34
7839.27
7839.18
7839.08
7838.97
7838.84
7838.7
7838.54
7838.38
7838.19
7838
7837.74
7839.49
7838.98
7838.95
7838.91
7838.85
7838.79
7838.71
7838.61
7838.51
7838.39
7838.26
7838.12
7837.97
7837.8
7837.63
7837.39
7838.99
7838.51
7838.48
7838.45
7838.39
7838.33
7838.26
7838.18
7838.08
7837.97
7837.86
7837.73
7837.6
7837.44
7837.28
7837.06
7838.52
7838.07
7838.05
7838.01
7837.97
7837.91
7837.84
7837.77
7837.68
7837.58
7837.48
7837.36
7837.24
7837.1
7836.95
7836.75
7838.08
7837.66
7837.64
7837.61
7837.57
7837.52
7837.45
7837.38
7837.31
7837.22
7837.12
7837.02
7836.91
7836.78
7836.65
7836.46
7837.67
7837.28
7837.26
7837.23
7837.19
7837.15
7837.09
7837.03
7836.95
7836.87
7836.79
7836.69
7836.59
7836.48
7836.36
7836.18
7837.29
7836.92
7836.9
7836.88
7836.84
7836.8
7836.75
7836.69
7836.62
7836.55
7836.47
7836.39
7836.3
7836.19
7836.08
7835.91
7836.93
7836.58
7836.56
7836.54
7836.51
7836.47
7836.42
7836.37
7836.31
7836.25
7836.18
7836.1
7836.02
7835.92
7835.82
7835.66
7836.59
7836.27
7836.25
7836.23
7836.2
7836.16
7836.12
7836.07
7836.02
7835.96
7835.89
7835.82
7835.75
7835.66
7835.56
7835.42
7836.27
7835.97
7835.95
7835.93
7835.9
7835.87
7835.83
7835.79
7835.74
7835.69
7835.63
7835.56
7835.5
7835.42
7835.33
7835.19
7835.97
7835.68
7835.67
7835.65
7835.63
7835.6
7835.56
7835.52
7835.48
7835.43
7835.38
7835.32
7835.25
7835.18
7835.1
7834.97
7835.69
7835.42
7835.4
7835.39
7835.37
7835.34
7835.31
7835.27
7835.23
7835.18
7835.13
7835.08
7835.02
7834.96
7834.88
7834.76
7835.42
7835.17
7835.15
7835.14
7835.12
7835.09
7835.06
7835.03
7834.99
7834.95
7834.91
7834.86
7834.8
7834.74
7834.67
7834.55
7835.17
7834.93
7834.92
7834.9
7834.88
7834.86
7834.83
7834.8
7834.77
7834.73
7834.69
7834.64
7834.59
7834.54
7834.47
7834.35
7834.93
7834.71
7834.69
7834.68
7834.66
7834.64
7834.62
7834.59
7834.56
7834.52
7834.48
7834.44
7834.39
7834.34
7834.27
7834.16
7834.71
7834.49
7834.48
7834.47
7834.45
7834.43
7834.41
7834.38
7834.35
7834.32
7834.28
7834.24
7834.2
7834.15
7834.09
7833.98
7834.5
7834.29
7834.28
7834.27
7834.26
7834.24
7834.21
7834.19
7834.16
7834.13
7834.09
7834.06
7834.02
7833.97
7833.91
7833.81
7834.3
7834.1
7834.09
7834.08
7834.07
7834.05
7834.03
7834
7833.98
7833.95
7833.91
7833.88
7833.84
7833.79
7833.73
7833.63
7834.11
7833.93
7833.92
7833.91
7833.89
7833.87
7833.85
7833.83
7833.8
7833.77
7833.74
7833.71
7833.67
7833.62
7833.57
7833.47
7833.93
7833.76
7833.75
7833.74
7833.72
7833.71
7833.69
7833.66
7833.64
7833.61
7833.58
7833.54
7833.51
7833.46
7833.41
7833.31
7833.76
7833.6
7833.59
7833.58
7833.57
7833.55
7833.53
7833.51
7833.48
7833.45
7833.42
7833.39
7833.35
7833.31
7833.25
7833.15
7833.6
7833.45
7833.45
7833.44
7833.42
7833.4
7833.38
7833.36
7833.33
7833.3
7833.27
7833.24
7833.2
7833.16
7833.1
7833
7833.46
7833.32
7833.31
7833.3
7833.28
7833.27
7833.25
7833.22
7833.2
7833.17
7833.13
7833.1
7833.06
7833.01
7832.95
7832.86
7833.32
7833.19
7833.18
7833.17
7833.16
7833.14
7833.12
7833.09
7833.07
7833.04
7833
7832.97
7832.93
7832.88
7832.82
7832.72
7833.19
7833.07
7833.07
7833.05
7833.04
7833.02
7833
7832.98
7832.95
7832.92
7832.88
7832.84
7832.8
7832.75
7832.68
7832.58
7833.08
7832.97
7832.96
7832.95
7832.93
7832.92
7832.89
7832.87
7832.84
7832.81
7832.77
7832.73
7832.68
7832.63
7832.56
7832.45
7832.97
7832.87
7832.86
7832.85
7832.84
7832.82
7832.8
7832.77
7832.74
7832.71
7832.67
7832.62
7832.57
7832.51
7832.44
7832.32
7832.87
7832.79
7832.78
7832.77
7832.75
7832.73
7832.71
7832.68
7832.65
7832.62
7832.58
7832.53
7832.48
7832.41
7832.33
7832.2
7832.79
7832.71
7832.7
7832.69
7832.68
7832.66
7832.64
7832.61
7832.58
7832.54
7832.5
7832.45
7832.39
7832.32
7832.23
7832.09
7832.71
7832.65
7832.64
7832.63
7832.62
7832.6
7832.58
7832.55
7832.52
7832.48
7832.44
7832.38
7832.32
7832.25
7832.14
7831.99
7832.65
7832.59
7832.59
7832.58
7832.56
7832.55
7832.53
7832.5
7832.47
7832.43
7832.39
7832.34
7832.27
7832.19
7832.08
7831.91
7832.6
7832.55
7832.55
7832.54
7832.52
7832.51
7832.49
7832.46
7832.43
7832.4
7832.36
7832.31
7832.25
7832.17
7832.05
7831.86
7832.55
7832.51
7832.51
7832.5
7832.49
7832.47
7832.46
7832.43
7832.41
7832.38
7832.34
7832.3
7832.25
7832.19
7832.1
7831.96
7832.52
7832.5
7832.5
7832.49
7832.48
7832.46
7832.45
7832.43
7832.4
7832.38
7832.35
7832.31
7832.27
7832.23
7832.17
7832.07
7832.5
7832.5
7832.5
7832.49
7832.48
7832.46
7832.45
7832.43
7832.4
7832.38
7832.35
7832.31
7832.27
7832.23
7832.17
7832.07
7832.5
)
;

boundaryField
{
    wireUpstream
    {
        type            calculated;
        value           nonuniform List<scalar> 
16
(
7832.48
7832.48
7832.47
7832.46
7832.45
7832.43
7832.42
7832.4
7832.37
7832.35
7832.32
7832.29
7832.25
7832.23
7832.21
7832.48
)
;
    }
    wireDownstream
    {
        type            calculated;
        value           nonuniform List<scalar> 
16
(
7821.66
7821.73
7821.82
7821.95
7822.1
7822.29
7822.47
7822.65
7822.82
7823.02
7823.13
7823.02
7822.67
7822.43
7823.18
7821.65
)
;
    }
    wireTopContact
    {
        type            calculated;
        value           nonuniform List<scalar> 
122
(
7823.51
7823.72
7823.81
7823.87
7823.89
7823.91
7823.92
7823.92
7823.93
7823.94
7823.95
7823.97
7823.99
7824.02
7824.05
7824.08
7824.12
7824.15
7824.19
7824.23
7824.27
7824.31
7824.34
7824.38
7824.41
7824.44
7824.47
7824.49
7824.5
7824.51
7824.5
7824.48
7824.45
7824.4
7824.33
7824.25
7824.14
7824.01
7823.86
7823.68
7823.49
7823.28
7823.06
7822.83
7822.63
7822.47
7822.39
7822.47
7822.97
7824.53
7827.18
7831.16
7836.4
7842.81
7850.17
7858.62
7867.28
7874.77
7882.37
7882.97
7880.61
7877.14
7873.17
7869.26
7865.65
7862.38
7859.42
7856.8
7854.46
7852.39
7850.56
7848.94
7847.51
7846.23
7845.11
7844.1
7843.2
7842.4
7841.67
7841.02
7840.42
7839.88
7839.38
7838.92
7838.49
7838.09
7837.72
7837.37
7837.05
7836.74
7836.45
7836.17
7835.9
7835.65
7835.41
7835.18
7834.96
7834.75
7834.54
7834.35
7834.16
7833.97
7833.8
7833.63
7833.46
7833.3
7833.15
7833
7832.85
7832.71
7832.57
7832.44
7832.32
7832.2
7832.09
7831.99
7831.91
7831.86
7831.95
7832.02
7832.02
7823.24
)
;
    }
    front
    {
        type            wedge;
    }
    back
    {
        type            wedge;
    }
}


// ************************************************************************* //
