/*--------------------------------*- C++ -*----------------------------------*\
  =========                 |
  \\      /  F ield         | OpenFOAM: The Open Source CFD Toolbox
   \\    /   O peration     | Website:  https://openfoam.org
    \\  /    A nd           | Version:  8
     \\/     M anipulation  |
\*---------------------------------------------------------------------------*/
FoamFile
{
    version     2.0;
    format      ascii;
    class       volScalarField::Internal;
    location    "0.0430000";
    object      V0;
}
// * * * * * * * * * * * * * * * * * * * * * * * * * * * * * * * * * * * * * //

dimensions      [0 3 0 0 0 0 0];

value           nonuniform List<scalar> 
600
(
6.0028009353151e-14
5.93128991217549e-14
5.85975200842804e-14
5.78825084830461e-14
5.71679268886862e-14
5.6453754610646e-14
5.5740149682535e-14
5.50271243748313e-14
5.43145158067053e-14
5.36022898690323e-14
5.28905826875006e-14
5.21793876358121e-14
5.14685616836852e-14
5.07581205798358e-14
5.00481748519434e-14
4.93387058186301e-14
4.86295936861636e-14
4.79208835359991e-14
4.7212661072145e-14
4.65048942407182e-14
4.57974901927362e-14
4.50905070644629e-14
4.43840263959542e-14
4.36780040103843e-14
4.29723540308421e-14
4.22671643227507e-14
4.15625090874511e-14
4.08583181414183e-14
4.01545053472959e-14
3.94512242051709e-14
3.8748544305521e-14
3.80463443910437e-14
3.73445376871406e-14
3.66433888239478e-14
3.59429600411738e-14
3.52430233407893e-14
3.45435815566033e-14
3.38449898679857e-14
3.3147288396673e-14
3.2450152245454e-14
3.17537322538918e-14
3.10584951629744e-14
3.03644160022422e-14
2.96710575700824e-14
2.89788476992299e-14
2.82884399145343e-14
2.75996372464597e-14
2.69117800907932e-14
2.62259830189528e-14
2.55431056090625e-14
2.48624697350333e-14
2.41830674998025e-14
2.35076022265669e-14
2.28370433407754e-14
2.21692294511896e-14
2.15039717901504e-14
2.08455311626095e-14
2.01946592478234e-14
1.95474835375163e-14
1.89058485534475e-14
1.82740653796071e-14
1.76545142243374e-14
1.70416906477006e-14
1.64496255095446e-14
1.58997983738266e-14
1.53848748372605e-14
1.48878809438882e-14
1.44440222508971e-14
1.40530629731192e-14
1.36781760088641e-14
1.33331059656072e-14
1.30317622081661e-14
1.27572671530285e-14
1.24923018972739e-14
1.22492072171522e-14
1.20159200953982e-14
1.1777972459218e-14
1.15434440548028e-14
1.12883598288804e-14
1.10013224636434e-14
1.07070954811554e-14
1.03746035416972e-14
9.97827053068859e-15
9.54811455600027e-15
9.08739955815623e-15
8.58239042422581e-15
8.34949663417032e-15
8.39467001439759e-15
8.38457076939274e-15
8.33454012329935e-15
8.28329712622907e-15
8.21950457874437e-15
8.14381403283287e-15
8.06646097488027e-15
7.98719797532126e-15
7.90520166127015e-15
7.82409455063773e-15
7.74078270294479e-15
7.65250738229517e-15
7.5194491936938e-15
6.22148746253566e-14
6.1450176195667e-14
6.06853894093722e-14
5.99218004306238e-14
5.91593527474525e-14
5.83979953549614e-14
5.76377263146427e-14
5.68785333683469e-14
5.61203822748479e-14
5.53632566597999e-14
5.46071632306287e-14
5.3852094321878e-14
5.30980267733551e-14
5.23449562491818e-14
5.15928940955313e-14
5.08418355185375e-14
5.00917653918921e-14
4.93426863317444e-14
4.85946103269894e-14
4.7847533527753e-14
4.7101447199259e-14
4.63563604928288e-14
4.56122876829958e-14
4.48692261095712e-14
4.41271719631797e-14
4.33861404989347e-14
4.26461470374991e-14
4.19071878272959e-14
4.11692662222875e-14
4.04324101072982e-14
3.96966391923128e-14
3.89619482583962e-14
3.82283524023643e-14
3.74959009123564e-14
3.67646214999283e-14
3.60345118450278e-14
3.53056099920481e-14
3.4577995313312e-14
3.38517087926496e-14
3.31267648246135e-14
3.24032443046912e-14
3.16812702451176e-14
3.09609039571986e-14
3.02421979905295e-14
2.95253154978353e-14
2.88104507770538e-14
2.80976913946421e-14
2.73871651314138e-14
2.6679189368458e-14
2.59740607463339e-14
2.52718816723305e-14
2.45729320898578e-14
2.38778230895532e-14
2.31869829689478e-14
2.25005307142682e-14
2.18190162583558e-14
2.11434579929258e-14
2.0474452620878e-14
1.9812307424443e-14
1.91581796467775e-14
1.85142200463663e-14
1.78828000010817e-14
1.72678382980551e-14
1.66762894982466e-14
1.61149037662394e-14
1.55862523063801e-14
1.50925216124052e-14
1.46376076560271e-14
1.4221012043731e-14
1.38378362185652e-14
1.34859238705364e-14
1.31643854951322e-14
1.28679925644115e-14
1.25901850448941e-14
1.23259749267238e-14
1.20691350821308e-14
1.18123884004248e-14
1.15487123610066e-14
1.12694189539345e-14
1.09679028041806e-14
1.0639906902394e-14
1.02763851299961e-14
9.86955991197778e-15
9.41912748472922e-15
8.92186701782262e-15
8.4134694459745e-15
8.20211865427128e-15
8.24570361361411e-15
8.2514424199931e-15
8.227418243924e-15
8.18507598052039e-15
8.12954162636617e-15
8.06416244309575e-15
7.99293514143693e-15
7.91832027352138e-15
7.84191397821871e-15
7.76542927355225e-15
7.69036551845755e-15
7.61934500683709e-15
7.56677270991315e-15
6.43917344310795e-14
6.35779031986713e-14
6.27641692088496e-14
6.19522615644254e-14
6.11420695760508e-14
6.03335420082864e-14
5.95266777424477e-14
5.87214636474478e-14
5.7917862887911e-14
5.71158582638718e-14
5.63154574697608e-14
5.55166521152465e-14
5.47194170357398e-14
5.39237478356179e-14
5.31296569109724e-14
5.23371387881924e-14
5.15461767615275e-14
5.0756773824243e-14
4.99689428763146e-14
4.91826793269283e-14
4.83979732312612e-14
4.7614834436156e-14
4.68332781627463e-14
4.60533008905325e-14
4.52748977295934e-14
4.44980850734609e-14
4.37228791146398e-14
4.2949274830705e-14
4.21772746367158e-14
4.14069085721923e-14
4.06381971782882e-14
3.98711330974157e-14
3.91057306685096e-14
3.83420431442833e-14
3.758009886373e-14
3.68198917939529e-14
3.60614604865734e-14
3.5304890140499e-14
3.45502217349109e-14
3.37974643254672e-14
3.30467016775135e-14
3.22980648604248e-14
3.15516134166813e-14
3.08073923401431e-14
3.00655725705581e-14
2.93263599859342e-14
2.85898354221483e-14
2.78561147090359e-14
2.71255357610533e-14
2.63984105277214e-14
2.56748204979188e-14
2.49550265940855e-14
2.42396928112981e-14
2.35292619782361e-14
2.28237955314096e-14
2.21238351143455e-14
2.14304896269064e-14
2.07443564838057e-14
2.00656366362661e-14
1.93955021157036e-14
1.87361898637966e-14
1.80900488365784e-14
1.74608155406876e-14
1.68557458638824e-14
1.62820425203297e-14
1.57419642717807e-14
1.52372899678337e-14
1.47725693858323e-14
1.4347234932841e-14
1.39556037804577e-14
1.35956698053207e-14
1.32666393493265e-14
1.29629944847802e-14
1.26779317219229e-14
1.24063276684896e-14
1.21418265198273e-14
1.18770154529189e-14
1.16045460225154e-14
1.13160179629306e-14
1.10047690855334e-14
1.0665550474919e-14
1.02902306564691e-14
9.87194706030801e-15
9.408701844131e-15
8.89726397246725e-15
8.37873834820866e-15
8.16706513132242e-15
8.21079732361787e-15
8.21911822254723e-15
8.19916860840479e-15
8.15969947293625e-15
8.10658229403828e-15
8.0436921829769e-15
7.97456602863808e-15
7.90179125360353e-15
7.82722250117427e-15
7.75263289564502e-15
7.68021059248171e-15
7.61449168038977e-15
7.57009155928413e-15
6.65737645045897e-14
6.57106126148031e-14
6.48477896546176e-14
6.39874498124796e-14
6.31294039899078e-14
6.22735990085931e-14
6.14200330148589e-14
6.05686919716023e-14
5.9719537585385e-14
5.88725518054479e-14
5.80277421644939e-14
5.71850997075794e-14
5.63445983284509e-14
5.55062332781576e-14
5.46700170330497e-14
5.38359437454267e-14
5.30039960917123e-14
5.21741769652131e-14
5.13464993971502e-14
5.0520958496655e-14
4.96975439273149e-14
4.88762656375821e-14
4.80571390469382e-14
4.72401603840517e-14
4.64253245156355e-14
4.56126480790392e-14
4.48021474558172e-14
4.399381734254e-14
4.31876601037324e-14
4.23837063057524e-14
4.15819767283121e-14
4.07824636834411e-14
3.99851817344157e-14
3.91901850912233e-14
3.83975024194585e-14
3.76071273933519e-14
3.68190992515361e-14
3.60335046517829e-14
3.52503850359011e-14
3.44697494445519e-14
3.36916830739572e-14
3.29163190271327e-14
3.21437174390946e-14
3.13739238644127e-14
3.06071119163504e-14
2.98434902508508e-14
2.90831402632273e-14
2.8326179327671e-14
2.75729499949571e-14
2.68237675670566e-14
2.60787134228386e-14
2.53380517975427e-14
2.46024544142725e-14
2.38723673347123e-14
2.31478507400151e-14
2.24294516177367e-14
2.17182890065134e-14
2.10149627326126e-14
2.0319672831127e-14
1.96336005619952e-14
1.8959002354925e-14
1.82982466861897e-14
1.76551043973677e-14
1.70368886872004e-14
1.64508447623846e-14
1.5899221606407e-14
1.53837701359136e-14
1.49090172032759e-14
1.44743388252001e-14
1.40739480517629e-14
1.37057332923047e-14
1.33688248232986e-14
1.30576104409955e-14
1.27651693624905e-14
1.24862736977105e-14
1.22144727210475e-14
1.19422656619701e-14
1.16622250771973e-14
1.1365888401818e-14
1.10465384977748e-14
1.06988745249815e-14
1.03148008780173e-14
9.8874871381178e-15
9.41484345870458e-15
8.89376587727656e-15
8.36698487016383e-15
8.1541999068591e-15
8.19736341234113e-15
8.20597134717998e-15
8.18685508900398e-15
8.14835434161244e-15
8.09626122707511e-15
8.03446068695043e-15
7.96642545315249e-15
7.89471814638992e-15
7.82120622493939e-15
7.74768486640191e-15
7.67644011802783e-15
7.61212634773202e-15
7.56895911181856e-15
6.87605742727392e-14
6.78480145674622e-14
6.69359965527221e-14
6.60271243021862e-14
6.5121127422264e-14
6.42179490154259e-14
6.33175863820416e-14
6.24200248470176e-14
6.15252246590379e-14
6.06331666666209e-14
5.97438582613707e-14
5.88572901373541e-14
5.79734351976931e-14
5.70922881497388e-14
5.62138616174506e-14
5.53381495490331e-14
5.44651339358447e-14
5.35948174391345e-14
5.27272133109801e-14
5.18623164827567e-14
5.10001161393721e-14
5.01406222357096e-14
4.92838504944786e-14
4.8429796990927e-14
4.75784562554404e-14
4.67298451092389e-14
4.58839802562988e-14
4.5040856165125e-14
4.42004749890268e-14
4.33628678050295e-14
4.25280558337209e-14
4.16960310550179e-14
4.08668080095929e-14
4.00404419072721e-14
3.92169620113771e-14
3.83963616095248e-14
3.75786803122419e-14
3.67640063612975e-14
3.59523819676669e-14
3.51438159288374e-14
3.43383945273946e-14
3.35362531741289e-14
3.27374528742796e-14
3.19420392704094e-14
3.11501883377345e-14
3.03621120713722e-14
2.95778925769495e-14
2.87976478521928e-14
2.80217250256974e-14
2.72504438264878e-14
2.64838851991885e-14
2.57223149519687e-14
2.49664133225356e-14
2.42166313882729e-14
2.34730265517053e-14
2.27361488955964e-14
2.20071296495527e-14
2.12865727425457e-14
2.05746737129916e-14
1.98726197338949e-14
1.91826868198814e-14
1.85072593119593e-14
1.78501321751801e-14
1.72186813731603e-14
1.66202117892261e-14
1.60569593293301e-14
1.55306362783107e-14
1.50457581885171e-14
1.46016426023444e-14
1.41923796762445e-14
1.38157496691211e-14
1.34708040628078e-14
1.31518306087661e-14
1.28517908224368e-14
1.25653569252043e-14
1.22859918778947e-14
1.20061234359845e-14
1.17182692027233e-14
1.14139213882619e-14
1.10863447090719e-14
1.07302511162384e-14
1.03375715843283e-14
9.90150598667341e-15
9.42001632696487e-15
8.89019397988879e-15
8.35606387736319e-15
8.1424248533955e-15
8.18468886237403e-15
8.19309014376579e-15
8.17425914280214e-15
8.13630630071781e-15
8.08491516274953e-15
8.023916666576e-15
7.95673698109313e-15
7.88590394261071e-15
7.8132645304897e-15
7.74059710636503e-15
7.67015216391288e-15
7.60640734242452e-15
7.56332500845352e-15
7.09493063892971e-14
6.99739851178857e-14
6.90126587969157e-14
6.8055101563453e-14
6.71010038171547e-14
6.61503020316668e-14
6.520299291202e-14
6.42590616736072e-14
6.33184675624439e-14
6.23811895756212e-14
6.14472345627903e-14
6.05165937351276e-14
5.95892392589071e-14
5.86651646885463e-14
5.77443823231456e-14
5.68268866707384e-14
5.59126592633069e-14
5.50017021426222e-14
5.40940285262312e-14
5.31896335933442e-14
5.22885061264569e-14
5.13906555574248e-14
5.04960983599274e-14
4.96048309354393e-14
4.87168464019201e-14
4.7832161644256e-14
4.69507944811838e-14
4.60727391539769e-14
4.51979975383252e-14
4.43266007146983e-14
4.34585707305139e-14
4.25938994639633e-14
4.1732600939046e-14
4.08747308889974e-14
4.00203199515486e-14
3.91693610394727e-14
3.83218931082155e-14
3.74780063049652e-14
3.66377439987707e-14
3.58011143559274e-14
3.49682038558933e-14
3.41391504409409e-14
3.33140166457646e-14
3.24928473902328e-14
3.16758200208701e-14
3.08631499419925e-14
3.00549207754882e-14
2.92512499055515e-14
2.84524870799836e-14
2.7658958215046e-14
2.68707449223449e-14
2.60881106022526e-14
2.53117421395893e-14
2.45420994369738e-14
2.37792380623092e-14
2.30237043767481e-14
2.22766401289282e-14
2.15386602829574e-14
2.0809953049481e-14
2.00917016788238e-14
1.93861972847774e-14
1.86958371150738e-14
1.80244211932445e-14
1.73793650381581e-14
1.67680474534334e-14
1.61927183043791e-14
1.56550366819804e-14
1.51595037504211e-14
1.4705419514832e-14
1.42867609020039e-14
1.39011862412299e-14
1.35476853291785e-14
1.3220473125363e-14
1.29124025005862e-14
1.26180587478897e-14
1.23308424000267e-14
1.20431255207058e-14
1.17473905948753e-14
1.14351055294507e-14
1.10995232683537e-14
1.07353865853915e-14
1.03346715701531e-14
9.89060513269798e-15
9.40123377290791e-15
8.86432223064574e-15
8.32655864639479e-15
8.11255397715005e-15
8.15171527571138e-15
8.15973598632593e-15
8.14104372316723e-15
8.10344297403858e-15
8.05252797004219e-15
7.99208523986539e-15
7.92550740904951e-15
7.85529606693221e-15
7.78327956153658e-15
7.71121594505709e-15
7.64129762928399e-15
7.57759906950902e-15
7.53018145257641e-15
)
;


// ************************************************************************* //
