/*--------------------------------*- C++ -*----------------------------------*\
| =========                 |                                                 |
| \\      /  F ield         | OpenFOAM: The Open Source CFD Toolbox           |
|  \\    /   O peration     | Version:  4.1                                   |
|   \\  /    A nd           | Web:      www.OpenFOAM.org                      |
|    \\/     M anipulation  |                                                 |
\*---------------------------------------------------------------------------*/
FoamFile
{
    version     2.0;
    format      ascii;
    class       pointVectorField;
    location    "0.0054";
    object      pointDisplacement_Next_Iter4;
}
// * * * * * * * * * * * * * * * * * * * * * * * * * * * * * * * * * * * * * //

dimensions      [0 1 0 0 0 0 0];

internalField   uniform (0 0 0);

boundaryField
{
    inlet
    {
        type            fixedValue;
        value           uniform (0 0 0);
    }
    outlet
    {
        type            fixedValue;
        value           uniform (0 0 0);
    }
    mantle
    {
        type            fixedValue;
        value           nonuniform List<vector> 
1568
(
(-1.0839e-13 1.3798e-12 -6.0214e-17)
(-2.0684e-07 3.7481e-06 -1.7461e-10)
(-1.9801e-07 3.6312e-06 -7.136e-07)
(-6.4972e-10 8.4716e-09 -3.0215e-09)
(-2.0993e-07 3.3276e-06 -1.3721e-06)
(-3.7178e-13 -7.3856e-13 3.0636e-13)
(-2.6418e-07 2.9321e-06 -1.9614e-06)
(-3.7825e-09 -1.4481e-09 -3.4512e-09)
(-3.0167e-07 2.4786e-06 -2.479e-06)
(2.2396e-13 3.2098e-12 -3.2099e-12)
(-2.6413e-07 1.961e-06 -2.9327e-06)
(-3.7843e-09 3.4516e-09 1.4478e-09)
(-2.0981e-07 1.3719e-06 -3.3283e-06)
(-3.7167e-13 -3.0658e-13 7.3844e-13)
(-1.9782e-07 7.1338e-07 -3.6319e-06)
(-6.464e-10 3.0233e-09 -8.4741e-09)
(-2.0661e-07 -5.0284e-11 -3.7489e-06)
(-1.083e-13 -3.0048e-17 -1.3801e-12)
(-8.887e-08 7.8024e-06 -3.298e-10)
(-6.6887e-08 7.5511e-06 -1.507e-06)
(-8.6999e-08 6.9242e-06 -2.877e-06)
(-1.8167e-07 6.0726e-06 -4.0621e-06)
(-2.5936e-07 5.1167e-06 -5.1175e-06)
(-1.8159e-07 4.0615e-06 -6.0736e-06)
(-8.683e-08 2.8766e-06 -6.9254e-06)
(-6.6623e-08 1.5066e-06 -7.5525e-06)
(-8.8544e-08 -6.884e-11 -7.8039e-06)
(3.83e-07 1.1644e-05 -3.9341e-10)
(3.7435e-07 1.1322e-05 -2.3027e-06)
(3.3588e-07 1.0411e-05 -4.3651e-06)
(2.7118e-07 9.0878e-06 -6.0798e-06)
(2.3477e-07 7.5997e-06 -7.6006e-06)
(2.7123e-07 6.0792e-06 -9.0891e-06)
(3.3598e-07 4.3647e-06 -1.0412e-05)
(3.7449e-07 2.3024e-06 -1.1324e-05)
(3.8316e-07 -9.7113e-11 -1.1646e-05)
(7.2771e-07 1.505e-05 -4.0751e-10)
(6.9306e-07 1.4659e-05 -2.9809e-06)
(6.5036e-07 1.3481e-05 -5.6647e-06)
(6.3102e-07 1.1763e-05 -7.8717e-06)
(6.4127e-07 9.8058e-06 -9.8068e-06)
(6.3101e-07 7.8711e-06 -1.1764e-05)
(6.5035e-07 5.6643e-06 -1.3483e-05)
(6.9301e-07 2.9805e-06 -1.4661e-05)
(7.2762e-07 -1.2647e-10 -1.5052e-05)
(4.3753e-07 1.7405e-05 -4.2772e-10)
(4.2117e-07 1.6854e-05 -3.3433e-06)
(3.999e-07 1.5434e-05 -6.4026e-06)
(3.9294e-07 1.3533e-05 -9.0572e-06)
(3.9799e-07 1.1393e-05 -1.1394e-05)
(3.9289e-07 9.0565e-06 -1.3535e-05)
(3.9979e-07 6.4022e-06 -1.5436e-05)
(4.2102e-07 3.3429e-06 -1.6856e-05)
(4.3734e-07 -1.6252e-10 -1.7408e-05)
(-5.2753e-07 1.6938e-05 -4.0125e-10)
(-5.2176e-07 1.6284e-05 -3.1745e-06)
(-5.1394e-07 1.4828e-05 -6.1121e-06)
(-5.2407e-07 1.3014e-05 -8.7157e-06)
(-5.3135e-07 1.1035e-05 -1.1036e-05)
(-5.2417e-07 8.7151e-06 -1.3016e-05)
(-5.1411e-07 6.1117e-06 -1.4831e-05)
(-5.2198e-07 3.1741e-06 -1.6287e-05)
(-5.2777e-07 -1.9831e-10 -1.6941e-05)
(-1.9975e-06 1.1947e-05 -3.1157e-10)
(-1.9586e-06 1.1514e-05 -2.2903e-06)
(-1.914e-06 1.0428e-05 -4.3331e-06)
(-1.932e-06 9.0145e-06 -6.0266e-06)
(-1.9603e-06 7.5343e-06 -7.5353e-06)
(-1.9322e-06 6.0261e-06 -9.0161e-06)
(-1.9143e-06 4.3328e-06 -1.0431e-05)
(-1.9589e-06 2.29e-06 -1.1517e-05)
(-1.9979e-06 -2.5021e-10 -1.195e-05)
(-3.7023e-06 2.6785e-06 -1.8965e-10)
(-3.6346e-06 2.5476e-06 -5.9906e-07)
(-3.5525e-06 2.1429e-06 -9.6891e-07)
(-3.5686e-06 1.521e-06 -9.9654e-07)
(-3.6098e-06 1.0651e-06 -1.0659e-06)
(-3.5688e-06 9.9621e-07 -1.5224e-06)
(-3.5529e-06 9.6877e-07 -2.1449e-06)
(-3.635e-06 5.9882e-07 -2.5502e-06)
(-3.7027e-06 -3.0251e-10 -2.6812e-06)
(-5.4154e-06 -9.8404e-06 -5.5724e-11)
(-5.3462e-06 -9.6934e-06 1.8469e-06)
(-5.25e-06 -9.3069e-06 3.8022e-06)
(-5.234e-06 -8.686e-06 5.8329e-06)
(-5.2549e-06 -7.5678e-06 7.5673e-06)
(-5.2342e-06 -5.8331e-06 8.6849e-06)
(-5.2504e-06 -3.8023e-06 9.3053e-06)
(-5.3467e-06 -1.8471e-06 9.6914e-06)
(-5.4158e-06 -3.4852e-10 9.8381e-06)
(-7.154e-06 -2.4199e-05 -5.0921e-12)
(-7.0863e-06 -2.3733e-05 4.6722e-06)
(-6.9772e-06 -2.2436e-05 9.2947e-06)
(-6.9527e-06 -2.0378e-05 1.3667e-05)
(-6.9538e-06 -1.7465e-05 1.7464e-05)
(-6.9529e-06 -1.3667e-05 2.0378e-05)
(-6.9776e-06 -9.2949e-06 2.2435e-05)
(-7.0868e-06 -4.6724e-06 2.3731e-05)
(-7.1544e-06 -3.4755e-10 2.4198e-05)
(-9.0711e-06 -3.8894e-05 -5.0349e-10)
(-8.9978e-06 -3.8104e-05 7.5517e-06)
(-8.8929e-06 -3.5872e-05 1.4873e-05)
(-8.8815e-06 -3.2355e-05 2.1672e-05)
(-8.9051e-06 -2.7598e-05 2.7597e-05)
(-8.8816e-06 -2.1672e-05 3.2355e-05)
(-8.8932e-06 -1.4873e-05 3.5871e-05)
(-8.9981e-06 -7.552e-06 3.8104e-05)
(-9.0713e-06 1.3011e-10 3.8893e-05)
(-1.1444e-05 -5.2743e-05 -7.623e-11)
(-1.1369e-05 -5.1635e-05 1.0242e-05)
(-1.1271e-05 -4.8531e-05 2.0113e-05)
(-1.1287e-05 -4.3653e-05 2.9212e-05)
(-1.1329e-05 -3.7171e-05 3.717e-05)
(-1.1287e-05 -2.9212e-05 4.3653e-05)
(-1.1271e-05 -2.0114e-05 4.8531e-05)
(-1.137e-05 -1.0242e-05 5.1635e-05)
(-1.1443e-05 -3.7176e-10 5.2742e-05)
(-1.4515e-05 -6.5061e-05 -2.0815e-10)
(-1.4474e-05 -6.3732e-05 1.2655e-05)
(-1.4414e-05 -5.989e-05 2.48e-05)
(-1.4406e-05 -5.3807e-05 3.5963e-05)
(-1.442e-05 -4.5743e-05 4.5743e-05)
(-1.4406e-05 -3.5964e-05 5.3807e-05)
(-1.4414e-05 -2.4801e-05 5.9891e-05)
(-1.4474e-05 -1.2656e-05 6.3733e-05)
(-1.4515e-05 -3.8701e-10 6.5061e-05)
(-1.8444e-05 -7.6093e-05 -2.5771e-10)
(-1.8433e-05 -7.4546e-05 1.4818e-05)
(-1.8396e-05 -7.0039e-05 2.9004e-05)
(-1.8371e-05 -6.2901e-05 4.203e-05)
(-1.8352e-05 -5.3444e-05 5.3444e-05)
(-1.837e-05 -4.2032e-05 6.2901e-05)
(-1.8395e-05 -2.9006e-05 7.004e-05)
(-1.8433e-05 -1.4819e-05 7.4548e-05)
(-1.8444e-05 -5.0481e-10 7.6094e-05)
(-2.3157e-05 -8.6305e-05 1.6315e-10)
(-2.3118e-05 -8.4541e-05 1.6819e-05)
(-2.3066e-05 -7.9411e-05 3.2922e-05)
(-2.3065e-05 -7.1289e-05 4.7665e-05)
(-2.308e-05 -6.0576e-05 6.0576e-05)
(-2.3064e-05 -4.7667e-05 7.1289e-05)
(-2.3066e-05 -3.2924e-05 7.9413e-05)
(-2.3117e-05 -1.6821e-05 8.4543e-05)
(-2.3156e-05 -1.0896e-09 8.6307e-05)
(-2.8148e-05 -9.5884e-05 -4.6908e-10)
(-2.8083e-05 -9.3904e-05 1.8676e-05)
(-2.8018e-05 -8.8154e-05 3.6568e-05)
(-2.8047e-05 -7.9146e-05 5.2946e-05)
(-2.8096e-05 -6.7262e-05 6.7261e-05)
(-2.8046e-05 -5.2947e-05 7.9146e-05)
(-2.8017e-05 -3.657e-05 8.8156e-05)
(-2.8082e-05 -1.8677e-05 9.3906e-05)
(-2.8147e-05 -6.0974e-10 9.5885e-05)
(-3.2915e-05 -0.00010437 -2.3244e-10)
(-3.2864e-05 -0.00010213 2.0245e-05)
(-3.2816e-05 -9.5809e-05 3.9695e-05)
(-3.2848e-05 -8.6058e-05 5.7587e-05)
(-3.2891e-05 -7.3224e-05 7.3223e-05)
(-3.2848e-05 -5.7589e-05 8.6058e-05)
(-3.2815e-05 -3.9697e-05 9.581e-05)
(-3.2863e-05 -2.0247e-05 0.00010213)
(-3.2914e-05 -1.0459e-09 0.00010437)
(-3.7354e-05 -0.0001102 -6.5726e-10)
(-3.7326e-05 -0.00010774 2.131e-05)
(-3.73e-05 -0.00010103 4.1825e-05)
(-3.7335e-05 -9.0791e-05 6.0766e-05)
(-3.7362e-05 -7.7332e-05 7.7331e-05)
(-3.7335e-05 -6.0767e-05 9.079e-05)
(-3.73e-05 -4.1827e-05 0.00010103)
(-3.7326e-05 -2.1312e-05 0.00010774)
(-3.7353e-05 -7.6112e-10 0.0001102)
(-4.1576e-05 -0.00011186 -6.3145e-10)
(-4.1574e-05 -0.00010948 2.1698e-05)
(-4.1581e-05 -0.00010274 4.2559e-05)
(-4.1603e-05 -9.2303e-05 6.1756e-05)
(-4.1618e-05 -7.8539e-05 7.8537e-05)
(-4.1603e-05 -6.1758e-05 9.2302e-05)
(-4.158e-05 -4.256e-05 0.00010274)
(-4.1573e-05 -2.17e-05 0.00010948)
(-4.1576e-05 -8.5615e-10 0.00011186)
(-4.5858e-05 -0.00010981 -6.37e-10)
(-4.5884e-05 -0.00010756 2.138e-05)
(-4.5917e-05 -0.00010105 4.1896e-05)
(-4.5935e-05 -9.0756e-05 6.0701e-05)
(-4.5931e-05 -7.7153e-05 7.7151e-05)
(-4.5934e-05 -6.0703e-05 9.0754e-05)
(-4.5917e-05 -4.1898e-05 0.00010105)
(-4.5883e-05 -2.1382e-05 0.00010756)
(-4.5858e-05 -8.2238e-10 0.00010981)
(-5.0389e-05 -0.00010502 -4.2917e-10)
(-5.0399e-05 -0.0001029 2.0463e-05)
(-5.0431e-05 -9.673e-05 4.0094e-05)
(-5.0464e-05 -8.6908e-05 5.811e-05)
(-5.0481e-05 -7.3882e-05 7.3881e-05)
(-5.0464e-05 -5.8112e-05 8.6907e-05)
(-5.0431e-05 -4.0096e-05 9.6729e-05)
(-5.0399e-05 -2.0465e-05 0.0001029)
(-5.0389e-05 -8.536e-10 0.00010502)
(-5.4944e-05 -9.8419e-05 -4.2897e-10)
(-5.4947e-05 -9.6432e-05 1.9154e-05)
(-5.4965e-05 -9.0672e-05 3.7561e-05)
(-5.5014e-05 -8.1517e-05 5.45e-05)
(-5.5039e-05 -6.9331e-05 6.9329e-05)
(-5.5014e-05 -5.4501e-05 8.1516e-05)
(-5.4966e-05 -3.7562e-05 9.067e-05)
(-5.4947e-05 -1.9155e-05 9.6431e-05)
(-5.4944e-05 -5.9579e-10 9.8418e-05)
(-5.9184e-05 -9.0753e-05 -2.6439e-10)
(-5.9196e-05 -8.891e-05 1.7635e-05)
(-5.9226e-05 -8.3602e-05 3.4623e-05)
(-5.9247e-05 -7.5217e-05 5.0307e-05)
(-5.9256e-05 -6.402e-05 6.4019e-05)
(-5.9247e-05 -5.0308e-05 7.5216e-05)
(-5.9226e-05 -3.4624e-05 8.3601e-05)
(-5.9196e-05 -1.7636e-05 8.8909e-05)
(-5.9185e-05 -4.3142e-10 9.0752e-05)
(-6.2885e-05 -8.268e-05 -2.2885e-11)
(-6.2914e-05 -8.0975e-05 1.6043e-05)
(-6.296e-05 -7.6122e-05 3.153e-05)
(-6.295e-05 -6.8552e-05 4.5877e-05)
(-6.2934e-05 -5.8403e-05 5.8402e-05)
(-6.2951e-05 -4.5878e-05 6.8551e-05)
(-6.296e-05 -3.153e-05 7.6121e-05)
(-6.2915e-05 -1.6044e-05 8.0974e-05)
(-6.2886e-05 -3.0061e-10 8.268e-05)
(-6.5947e-05 -7.4538e-05 4.8802e-10)
(-6.5965e-05 -7.3013e-05 1.4464e-05)
(-6.5996e-05 -6.8671e-05 2.8447e-05)
(-6.5998e-05 -6.1857e-05 4.1406e-05)
(-6.5993e-05 -5.2711e-05 5.2711e-05)
(-6.5998e-05 -4.1406e-05 6.1857e-05)
(-6.5997e-05 -2.8447e-05 6.8671e-05)
(-6.5966e-05 -1.4464e-05 7.3013e-05)
(-6.5948e-05 -4.0412e-10 7.4538e-05)
(-6.8338e-05 -6.6421e-05 4.6596e-10)
(-6.8352e-05 -6.5067e-05 1.2886e-05)
(-6.8373e-05 -6.1224e-05 2.5368e-05)
(-6.8384e-05 -5.5166e-05 3.693e-05)
(-6.8385e-05 -4.7024e-05 4.7024e-05)
(-6.8384e-05 -3.6929e-05 5.5167e-05)
(-6.8374e-05 -2.5367e-05 6.1224e-05)
(-6.8352e-05 -1.2886e-05 6.5067e-05)
(-6.8339e-05 2.7018e-11 6.6422e-05)
(-7.0094e-05 -5.8288e-05 7.2071e-10)
(-7.0111e-05 -5.7114e-05 1.1307e-05)
(-7.0137e-05 -5.3754e-05 2.2258e-05)
(-7.0135e-05 -4.8468e-05 3.244e-05)
(-7.0129e-05 -4.1319e-05 4.132e-05)
(-7.0135e-05 -3.2439e-05 4.8469e-05)
(-7.0137e-05 -2.2257e-05 5.3755e-05)
(-7.0112e-05 -1.1306e-05 5.7114e-05)
(-7.0095e-05 1.5999e-10 5.8289e-05)
(-7.1264e-05 -5.0355e-05 9.5641e-10)
(-7.1291e-05 -4.9328e-05 9.7525e-06)
(-7.1325e-05 -4.6427e-05 1.9219e-05)
(-7.1305e-05 -4.1897e-05 2.8053e-05)
(-7.1282e-05 -3.575e-05 3.5751e-05)
(-7.1305e-05 -2.8052e-05 4.1898e-05)
(-7.1325e-05 -1.9217e-05 4.6428e-05)
(-7.1292e-05 -9.7512e-06 4.9329e-05)
(-7.1264e-05 2.5333e-10 5.0356e-05)
(-7.1893e-05 -4.2856e-05 1.1663e-09)
(-7.1904e-05 -4.2014e-05 8.3234e-06)
(-7.1921e-05 -3.959e-05 1.6398e-05)
(-7.1913e-05 -3.5727e-05 2.3914e-05)
(-7.1905e-05 -3.0467e-05 3.0468e-05)
(-7.1913e-05 -2.3913e-05 3.5728e-05)
(-7.1921e-05 -1.6396e-05 3.9592e-05)
(-7.1905e-05 -8.3218e-06 4.2015e-05)
(-7.1894e-05 3.0524e-10 4.2856e-05)
(-7.1969e-05 -3.6075e-05 1.3233e-09)
(-7.1971e-05 -3.5394e-05 7.0231e-06)
(-7.1973e-05 -3.3375e-05 1.383e-05)
(-7.1978e-05 -3.0139e-05 2.0167e-05)
(-7.1977e-05 -2.5685e-05 2.5687e-05)
(-7.1978e-05 -2.0165e-05 3.0141e-05)
(-7.1974e-05 -1.3828e-05 3.3376e-05)
(-7.1971e-05 -7.0213e-06 3.5395e-05)
(-7.1969e-05 3.2577e-10 3.6076e-05)
(-7.1481e-05 -3.019e-05 4.1029e-10)
(-7.1483e-05 -2.9604e-05 5.8625e-06)
(-7.1489e-05 -2.7916e-05 1.156e-05)
(-7.1485e-05 -2.5228e-05 1.6887e-05)
(-7.1483e-05 -2.1528e-05 2.1531e-05)
(-7.1485e-05 -1.6885e-05 2.5229e-05)
(-7.149e-05 -1.1558e-05 2.7917e-05)
(-7.1484e-05 -5.8605e-06 2.9605e-05)
(-7.1481e-05 1.3277e-09 3.0191e-05)
(-7.0442e-05 -2.5089e-05 1.4895e-09)
(-7.0453e-05 -2.4568e-05 4.8395e-06)
(-7.0465e-05 -2.3141e-05 9.5712e-06)
(-7.0448e-05 -2.0948e-05 1.4039e-05)
(-7.0436e-05 -1.7922e-05 1.7924e-05)
(-7.0448e-05 -1.4037e-05 2.0949e-05)
(-7.0466e-05 -9.5691e-06 2.3143e-05)
(-7.0453e-05 -4.8375e-06 2.4569e-05)
(-7.0443e-05 2.7582e-10 2.5089e-05)
(-6.8886e-05 -2.0619e-05 1.5809e-09)
(-6.8887e-05 -2.0211e-05 3.9906e-06)
(-6.8887e-05 -1.9062e-05 7.8905e-06)
(-6.8878e-05 -1.725e-05 1.1557e-05)
(-6.8873e-05 -1.4745e-05 1.4747e-05)
(-6.8878e-05 -1.1555e-05 1.7252e-05)
(-6.8887e-05 -7.8885e-06 1.9064e-05)
(-6.8887e-05 -3.9887e-06 2.0212e-05)
(-6.8886e-05 1.5993e-10 2.0619e-05)
(-6.6858e-05 -1.6756e-05 1.5337e-09)
(-6.6856e-05 -1.6447e-05 3.263e-06)
(-6.6849e-05 -1.5532e-05 6.4373e-06)
(-6.6846e-05 -1.4055e-05 9.4094e-06)
(-6.6842e-05 -1.1995e-05 1.1996e-05)
(-6.6846e-05 -9.4075e-06 1.4057e-05)
(-6.6849e-05 -6.4353e-06 1.5533e-05)
(-6.6856e-05 -3.2611e-06 1.6448e-05)
(-6.6859e-05 1.1511e-10 1.6757e-05)
(-6.4414e-05 -1.3491e-05 1.5413e-09)
(-6.441e-05 -1.3245e-05 2.6308e-06)
(-6.4407e-05 -1.2517e-05 5.1857e-06)
(-6.44e-05 -1.1326e-05 7.5767e-06)
(-6.44e-05 -9.6633e-06 9.6651e-06)
(-6.44e-05 -7.575e-06 1.1328e-05)
(-6.4407e-05 -5.1839e-06 1.2518e-05)
(-6.4411e-05 -2.6292e-06 1.3246e-05)
(-6.4415e-05 -7.3228e-11 1.3492e-05)
(-6.1585e-05 -1.0624e-05 1.3387e-09)
(-6.1588e-05 -1.0418e-05 2.0583e-06)
(-6.1591e-05 -9.8389e-06 4.0695e-06)
(-6.1579e-05 -8.9094e-06 5.9647e-06)
(-6.1573e-05 -7.6167e-06 7.6182e-06)
(-6.1579e-05 -5.9632e-06 8.9106e-06)
(-6.1591e-05 -4.068e-06 9.84e-06)
(-6.1588e-05 -2.0569e-06 1.0418e-05)
(-6.1585e-05 -9.5942e-11 1.0625e-05)
(-5.8403e-05 -8.0361e-06 1.0029e-09)
(-5.84e-05 -7.8849e-06 1.5615e-06)
(-5.8396e-05 -7.4525e-06 3.0839e-06)
(-5.8391e-05 -6.7522e-06 4.5175e-06)
(-5.8391e-05 -5.7693e-06 5.7702e-06)
(-5.8391e-05 -4.5162e-06 6.7533e-06)
(-5.8396e-05 -3.0827e-06 7.4534e-06)
(-5.84e-05 -1.5603e-06 7.8856e-06)
(-5.8403e-05 6.7008e-12 8.0366e-06)
(-5.4906e-05 -5.657e-06 1.0427e-09)
(-5.4905e-05 -5.5518e-06 1.1042e-06)
(-5.4895e-05 -5.2471e-06 2.1775e-06)
(-5.4899e-05 -4.7717e-06 3.1881e-06)
(-5.4893e-05 -4.0737e-06 4.0747e-06)
(-5.4899e-05 -3.1871e-06 4.7726e-06)
(-5.4895e-05 -2.1766e-06 5.248e-06)
(-5.4905e-05 -1.1034e-06 5.5526e-06)
(-5.4906e-05 -2.6238e-10 5.6576e-06)
(-5.1101e-05 -3.4428e-06 1.5586e-09)
(-5.1107e-05 -3.3715e-06 6.4691e-07)
(-5.1114e-05 -3.1704e-06 1.3124e-06)
(-5.1101e-05 -2.8916e-06 1.9603e-06)
(-5.1092e-05 -2.4958e-06 2.4956e-06)
(-5.1101e-05 -1.9596e-06 2.8923e-06)
(-5.1114e-05 -1.3118e-06 3.1712e-06)
(-5.1107e-05 -6.4633e-07 3.3722e-06)
(-5.1101e-05 -1.0035e-09 3.4435e-06)
(-4.7095e-05 -1.4274e-06 6.9017e-10)
(-4.7099e-05 -1.347e-06 2.0642e-07)
(-4.7098e-05 -1.1949e-06 4.9138e-07)
(-4.7096e-05 -1.1415e-06 8.3199e-07)
(-4.709e-05 -1.0603e-06 1.0608e-06)
(-4.7096e-05 -8.3159e-07 1.142e-06)
(-4.7097e-05 -4.9105e-07 1.1955e-06)
(-4.7099e-05 -2.061e-07 1.3477e-06)
(-4.7095e-05 -3.5948e-10 1.4282e-06)
(-4.2961e-05 4.6466e-07 4.9439e-10)
(-4.2905e-05 6.616e-07 -2.573e-07)
(-4.2851e-05 8.3292e-07 -3.4548e-07)
(-4.2902e-05 6.1495e-07 -2.6232e-07)
(-4.2956e-05 2.8591e-07 -2.8565e-07)
(-4.2902e-05 2.6248e-07 -6.1457e-07)
(-4.2851e-05 3.4558e-07 -8.3242e-07)
(-4.2905e-05 2.5739e-07 -6.6098e-07)
(-4.2961e-05 -3.8027e-10 -4.6395e-07)
(-3.8544e-05 2.7802e-06 3.2796e-10)
(-3.8425e-05 3.062e-06 -7.3718e-07)
(-3.8329e-05 3.1484e-06 -1.3011e-06)
(-3.842e-05 2.6607e-06 -1.6213e-06)
(-3.8536e-05 1.931e-06 -1.9309e-06)
(-3.842e-05 1.6213e-06 -2.6605e-06)
(-3.8328e-05 1.301e-06 -3.148e-06)
(-3.8425e-05 7.371e-07 -3.0615e-06)
(-3.8543e-05 -3.7552e-10 -2.7796e-06)
(-3.3986e-05 5.085e-06 2.1942e-10)
(-3.3964e-05 4.9826e-06 -1.0237e-06)
(-3.3929e-05 4.7213e-06 -1.9515e-06)
(-3.3958e-05 4.2304e-06 -2.7827e-06)
(-3.3976e-05 3.5722e-06 -3.5722e-06)
(-3.3958e-05 2.7826e-06 -4.2303e-06)
(-3.3929e-05 1.9513e-06 -4.7211e-06)
(-3.3964e-05 1.0236e-06 -4.9822e-06)
(-3.3986e-05 -3.4415e-10 -5.0845e-06)
(-3.0393e-05 3.5482e-06 1.3306e-10)
(-3.0447e-05 3.1991e-06 -6.3842e-07)
(-3.0415e-05 2.9542e-06 -1.223e-06)
(-3.044e-05 2.7052e-06 -1.8038e-06)
(-3.0383e-05 2.4982e-06 -2.4982e-06)
(-3.044e-05 1.8037e-06 -2.7052e-06)
(-3.0415e-05 1.2227e-06 -2.9541e-06)
(-3.0446e-05 6.3821e-07 -3.1988e-06)
(-3.0392e-05 -3.0409e-10 -3.5478e-06)
(-2.7773e-05 -3.5564e-06 4.7292e-11)
(-2.7586e-05 -3.1676e-06 4.2177e-07)
(-2.7407e-05 -2.6119e-06 1.0799e-06)
(-2.7581e-05 -2.5397e-06 1.9396e-06)
(-2.7767e-05 -2.5149e-06 2.5147e-06)
(-2.7581e-05 -1.9398e-06 2.5396e-06)
(-2.7407e-05 -1.0802e-06 2.6119e-06)
(-2.7586e-05 -4.2202e-07 3.1677e-06)
(-2.7773e-05 -2.7188e-10 3.5566e-06)
(-2.2894e-05 -9.4122e-06 -1.8078e-11)
(-2.247e-05 -8.297e-06 1.2613e-06)
(-2.2143e-05 -7.0136e-06 2.9021e-06)
(-2.2468e-05 -6.7568e-06 4.9688e-06)
(-2.289e-05 -6.6499e-06 6.6498e-06)
(-2.2468e-05 -4.969e-06 6.7567e-06)
(-2.2143e-05 -2.9023e-06 7.0136e-06)
(-2.247e-05 -1.2615e-06 8.2971e-06)
(-2.2894e-05 -2.1747e-10 9.4123e-06)
(-1.3034e-05 -7.2565e-06 -3.682e-11)
(-1.2848e-05 -6.6776e-06 1.0683e-06)
(-1.2663e-05 -5.8105e-06 2.4048e-06)
(-1.2847e-05 -5.4753e-06 3.962e-06)
(-1.3033e-05 -5.1271e-06 5.127e-06)
(-1.2847e-05 -3.9621e-06 5.4752e-06)
(-1.2663e-05 -2.4049e-06 5.8105e-06)
(-1.2848e-05 -1.0684e-06 6.6776e-06)
(-1.3034e-05 -1.1252e-10 7.2565e-06)
(-5.2027e-12 -2.9481e-12 -2.384e-17)
(-2.1009e-08 -5.6115e-08 -4.371e-08)
(-6.1902e-12 -5.7395e-12 2.1835e-12)
(-2.0983e-08 -8.6562e-09 7.0486e-08)
(-3.6977e-12 1.3558e-12 -1.3559e-12)
(-2.0983e-08 -7.0486e-08 8.6552e-09)
(-6.1902e-12 -2.1835e-12 5.7394e-12)
(-2.1009e-08 4.3709e-08 5.6115e-08)
(-5.2027e-12 -3.8895e-17 2.9481e-12)
(-1.9785e-07 -7.1351e-07 -3.632e-06)
(-6.4619e-10 -3.0204e-09 -8.4734e-09)
(-2.0988e-07 -1.3721e-06 -3.3284e-06)
(-3.7169e-13 3.0642e-13 7.3842e-13)
(-2.6422e-07 -1.9613e-06 -2.9328e-06)
(-3.7852e-09 -3.4547e-09 1.4457e-09)
(-3.0177e-07 -2.4789e-06 -2.4791e-06)
(2.239e-13 -3.2099e-12 -3.21e-12)
(-2.6427e-07 -2.9326e-06 -1.9614e-06)
(-3.7841e-09 1.4491e-09 -3.4536e-09)
(-2.0998e-07 -3.3282e-06 -1.3722e-06)
(-3.7176e-13 7.3826e-13 3.0636e-13)
(-1.98e-07 -3.6319e-06 -7.1353e-07)
(-6.4863e-10 -8.4733e-09 -3.0204e-09)
(-2.0679e-07 -3.7489e-06 -1.5762e-11)
(-1.0836e-13 -1.3801e-12 6.5095e-19)
(-6.6687e-08 -1.5068e-06 -7.5526e-06)
(-8.6951e-08 -2.877e-06 -6.9255e-06)
(-1.8176e-07 -4.062e-06 -6.0738e-06)
(-2.5954e-07 -5.1174e-06 -5.1177e-06)
(-1.8184e-07 -6.0734e-06 -4.0622e-06)
(-8.7106e-08 -6.9251e-06 -2.877e-06)
(-6.6916e-08 -7.5523e-06 -1.5069e-06)
(-8.8812e-08 -7.8037e-06 -3.8356e-11)
(3.7442e-07 -2.3026e-06 -1.1324e-05)
(3.3585e-07 -4.3651e-06 -1.0413e-05)
(2.7106e-07 -6.0797e-06 -9.0893e-06)
(2.3457e-07 -7.6004e-06 -7.6007e-06)
(2.71e-07 -9.0886e-06 -6.0798e-06)
(3.3573e-07 -1.0412e-05 -4.3651e-06)
(3.7426e-07 -1.1323e-05 -2.3026e-06)
(3.8299e-07 -1.1645e-05 -2.9948e-11)
(6.9296e-07 -2.9808e-06 -1.4661e-05)
(6.5025e-07 -5.6647e-06 -1.3483e-05)
(6.3089e-07 -7.8716e-06 -1.1764e-05)
(6.4115e-07 -9.8064e-06 -9.8067e-06)
(6.3089e-07 -1.1763e-05 -7.8716e-06)
(6.5024e-07 -1.3481e-05 -5.6645e-06)
(6.9297e-07 -1.466e-05 -2.9806e-06)
(7.2765e-07 -1.5051e-05 -6.2742e-12)
(4.21e-07 -3.3433e-06 -1.6856e-05)
(3.9977e-07 -6.4026e-06 -1.5436e-05)
(3.9287e-07 -9.057e-06 -1.3535e-05)
(3.9798e-07 -1.1393e-05 -1.1394e-05)
(3.9293e-07 -1.3534e-05 -9.0569e-06)
(3.9989e-07 -1.5435e-05 -6.4023e-06)
(4.2118e-07 -1.6855e-05 -3.343e-06)
(4.3754e-07 -1.7406e-05 7.5979e-12)
(-5.2195e-07 -3.1745e-06 -1.6286e-05)
(-5.1404e-07 -6.1122e-06 -1.4831e-05)
(-5.2407e-07 -8.7156e-06 -1.3016e-05)
(-5.3123e-07 -1.1036e-05 -1.1036e-05)
(-5.2394e-07 -1.3015e-05 -8.7154e-06)
(-5.1381e-07 -1.4829e-05 -6.1117e-06)
(-5.2164e-07 -1.6285e-05 -3.1741e-06)
(-5.2743e-07 -1.6939e-05 2.934e-11)
(-1.9589e-06 -2.2905e-06 -1.1517e-05)
(-1.9141e-06 -4.3334e-06 -1.0431e-05)
(-1.932e-06 -6.0267e-06 -9.016e-06)
(-1.9601e-06 -7.535e-06 -7.5352e-06)
(-1.9318e-06 -9.0152e-06 -6.0263e-06)
(-1.9138e-06 -1.0429e-05 -4.3328e-06)
(-1.9585e-06 -1.1515e-05 -2.29e-06)
(-1.9974e-06 -1.1948e-05 5.0395e-11)
(-3.6349e-06 -5.9947e-07 -2.5502e-06)
(-3.5527e-06 -9.6952e-07 -2.145e-06)
(-3.5685e-06 -9.9706e-07 -1.5225e-06)
(-3.6095e-06 -1.066e-06 -1.0659e-06)
(-3.5683e-06 -1.522e-06 -9.965e-07)
(-3.5523e-06 -2.1439e-06 -9.6875e-07)
(-3.6344e-06 -2.5486e-06 -5.9882e-07)
(-3.7022e-06 -2.6795e-06 6.4838e-11)
(-5.3466e-06 1.8463e-06 9.6911e-06)
(-5.2501e-06 3.8013e-06 9.3049e-06)
(-5.2338e-06 5.8319e-06 8.6845e-06)
(-5.2546e-06 7.5666e-06 7.5669e-06)
(-5.2337e-06 8.6847e-06 5.8327e-06)
(-5.2498e-06 9.3058e-06 3.8022e-06)
(-5.3462e-06 9.6924e-06 1.847e-06)
(-5.4154e-06 9.8395e-06 8.6372e-11)
(-7.0866e-06 4.6715e-06 2.3731e-05)
(-6.9772e-06 9.2937e-06 2.2434e-05)
(-6.9526e-06 1.3666e-05 2.0377e-05)
(-6.9534e-06 1.7463e-05 1.7464e-05)
(-6.9524e-06 2.0377e-05 1.3667e-05)
(-6.977e-06 2.2434e-05 9.2947e-06)
(-7.0863e-06 2.3732e-05 4.6722e-06)
(-7.1541e-06 2.4199e-05 4.4553e-11)
(-8.9979e-06 7.5511e-06 3.8103e-05)
(-8.8929e-06 1.4872e-05 3.587e-05)
(-8.8813e-06 2.1671e-05 3.2354e-05)
(-8.9049e-06 2.7596e-05 2.7596e-05)
(-8.8813e-06 3.2354e-05 2.1672e-05)
(-8.8929e-06 3.587e-05 1.4873e-05)
(-8.9978e-06 3.8104e-05 7.5517e-06)
(-9.0712e-06 3.8894e-05 4.6549e-10)
(-1.1369e-05 1.0241e-05 5.1634e-05)
(-1.1271e-05 2.0113e-05 4.853e-05)
(-1.1287e-05 2.921e-05 4.3652e-05)
(-1.1329e-05 3.7169e-05 3.717e-05)
(-1.1287e-05 4.3652e-05 2.9211e-05)
(-1.1271e-05 4.853e-05 2.0113e-05)
(-1.1369e-05 5.1634e-05 1.0242e-05)
(-1.1444e-05 5.2742e-05 -1.1685e-10)
(-1.4474e-05 1.2654e-05 6.3732e-05)
(-1.4413e-05 2.48e-05 5.9889e-05)
(-1.4406e-05 3.5962e-05 5.3806e-05)
(-1.442e-05 4.5742e-05 4.5742e-05)
(-1.4406e-05 5.3806e-05 3.5963e-05)
(-1.4413e-05 5.9889e-05 2.48e-05)
(-1.4474e-05 6.3731e-05 1.2655e-05)
(-1.4515e-05 6.506e-05 -2.791e-10)
(-1.8433e-05 1.4817e-05 7.4547e-05)
(-1.8395e-05 2.9004e-05 7.0039e-05)
(-1.837e-05 4.203e-05 6.2901e-05)
(-1.8352e-05 5.3443e-05 5.3444e-05)
(-1.837e-05 6.29e-05 4.203e-05)
(-1.8395e-05 7.0038e-05 2.9004e-05)
(-1.8433e-05 7.4545e-05 1.4817e-05)
(-1.8444e-05 7.6092e-05 -3.7356e-10)
(-2.3117e-05 1.6819e-05 8.4542e-05)
(-2.3066e-05 3.2922e-05 7.9411e-05)
(-2.3064e-05 4.7665e-05 7.1288e-05)
(-2.308e-05 6.0575e-05 6.0575e-05)
(-2.3064e-05 7.1287e-05 4.7665e-05)
(-2.3066e-05 7.941e-05 3.2922e-05)
(-2.3118e-05 8.454e-05 1.6819e-05)
(-2.3156e-05 8.6304e-05 -3.245e-11)
(-2.8082e-05 1.8676e-05 9.3905e-05)
(-2.8017e-05 3.6568e-05 8.8155e-05)
(-2.8046e-05 5.2946e-05 7.9145e-05)
(-2.8095e-05 6.7261e-05 6.7261e-05)
(-2.8046e-05 7.9145e-05 5.2945e-05)
(-2.8017e-05 8.8153e-05 3.6567e-05)
(-2.8083e-05 9.3902e-05 1.8675e-05)
(-2.8148e-05 9.5882e-05 -7.7996e-10)
(-3.2863e-05 2.0245e-05 0.00010213)
(-3.2815e-05 3.9695e-05 9.5809e-05)
(-3.2847e-05 5.7587e-05 8.6057e-05)
(-3.2891e-05 7.3222e-05 7.3223e-05)
(-3.2848e-05 8.6056e-05 5.7586e-05)
(-3.2816e-05 9.5808e-05 3.9694e-05)
(-3.2864e-05 0.00010213 2.0245e-05)
(-3.2914e-05 0.00010437 -5.9367e-10)
(-3.7326e-05 2.131e-05 0.00010774)
(-3.73e-05 4.1826e-05 0.00010103)
(-3.7335e-05 6.0766e-05 9.079e-05)
(-3.7362e-05 7.733e-05 7.733e-05)
(-3.7335e-05 9.0789e-05 6.0765e-05)
(-3.73e-05 0.00010103 4.1825e-05)
(-3.7326e-05 0.00010774 2.1309e-05)
(-3.7354e-05 0.0001102 -1.0388e-09)
(-4.1573e-05 2.1699e-05 0.00010948)
(-4.1581e-05 4.2559e-05 0.00010274)
(-4.1603e-05 6.1756e-05 9.2302e-05)
(-4.1619e-05 7.8538e-05 7.8538e-05)
(-4.1603e-05 9.2302e-05 6.1756e-05)
(-4.1581e-05 0.00010274 4.2558e-05)
(-4.1574e-05 0.00010948 2.1698e-05)
(-4.1576e-05 0.00011186 -9.9902e-10)
(-4.5884e-05 2.1381e-05 0.00010756)
(-4.5917e-05 4.1897e-05 0.00010105)
(-4.5935e-05 6.0702e-05 9.0755e-05)
(-4.5932e-05 7.7152e-05 7.7152e-05)
(-4.5935e-05 9.0755e-05 6.0702e-05)
(-4.5918e-05 0.00010105 4.1897e-05)
(-4.5884e-05 0.00010756 2.138e-05)
(-4.5859e-05 0.00010981 -9.3058e-10)
(-5.04e-05 2.0463e-05 0.0001029)
(-5.0431e-05 4.0095e-05 9.673e-05)
(-5.0464e-05 5.8111e-05 8.6907e-05)
(-5.0482e-05 7.3882e-05 7.3882e-05)
(-5.0464e-05 8.6908e-05 5.8111e-05)
(-5.0431e-05 9.673e-05 4.0095e-05)
(-5.04e-05 0.0001029 2.0463e-05)
(-5.039e-05 0.00010502 -5.9359e-10)
(-5.4947e-05 1.9154e-05 9.6431e-05)
(-5.4966e-05 3.7561e-05 9.0671e-05)
(-5.5015e-05 5.45e-05 8.1516e-05)
(-5.5039e-05 6.933e-05 6.933e-05)
(-5.5015e-05 8.1517e-05 5.4501e-05)
(-5.4966e-05 9.0672e-05 3.7561e-05)
(-5.4947e-05 9.6433e-05 1.9155e-05)
(-5.4944e-05 9.8419e-05 -4.6827e-10)
(-5.9197e-05 1.7635e-05 8.8909e-05)
(-5.9227e-05 3.4623e-05 8.3601e-05)
(-5.9247e-05 5.0308e-05 7.5216e-05)
(-5.9257e-05 6.4019e-05 6.4019e-05)
(-5.9247e-05 7.5217e-05 5.0308e-05)
(-5.9227e-05 8.3602e-05 3.4624e-05)
(-5.9196e-05 8.891e-05 1.7635e-05)
(-5.9185e-05 9.0753e-05 -1.8271e-10)
(-6.2915e-05 1.6043e-05 8.0974e-05)
(-6.296e-05 3.1529e-05 7.6122e-05)
(-6.2951e-05 4.5877e-05 6.8552e-05)
(-6.2935e-05 5.8403e-05 5.8403e-05)
(-6.2951e-05 6.8552e-05 4.5878e-05)
(-6.296e-05 7.6122e-05 3.153e-05)
(-6.2915e-05 8.0975e-05 1.6044e-05)
(-6.2885e-05 8.2681e-05 5.5834e-11)
(-6.5966e-05 1.4464e-05 7.3013e-05)
(-6.5997e-05 2.8447e-05 6.8671e-05)
(-6.5998e-05 4.1406e-05 6.1858e-05)
(-6.5994e-05 5.2711e-05 5.2711e-05)
(-6.5998e-05 6.1858e-05 4.1407e-05)
(-6.5997e-05 6.8671e-05 2.8448e-05)
(-6.5965e-05 7.3013e-05 1.4464e-05)
(-6.5947e-05 7.4538e-05 5.799e-10)
(-6.8353e-05 1.2886e-05 6.5068e-05)
(-6.8374e-05 2.5367e-05 6.1225e-05)
(-6.8384e-05 3.6929e-05 5.5167e-05)
(-6.8386e-05 4.7024e-05 4.7024e-05)
(-6.8384e-05 5.5167e-05 3.693e-05)
(-6.8374e-05 6.1225e-05 2.5368e-05)
(-6.8352e-05 6.5068e-05 1.2886e-05)
(-6.8338e-05 6.6422e-05 5.6111e-10)
(-7.0112e-05 1.1306e-05 5.7114e-05)
(-7.0138e-05 2.2258e-05 5.3755e-05)
(-7.0136e-05 3.244e-05 4.8469e-05)
(-7.0129e-05 4.1319e-05 4.132e-05)
(-7.0136e-05 4.8469e-05 3.2441e-05)
(-7.0137e-05 5.3755e-05 2.2259e-05)
(-7.0111e-05 5.7114e-05 1.1307e-05)
(-7.0095e-05 5.8289e-05 8.1371e-10)
(-7.1292e-05 9.7517e-06 4.9329e-05)
(-7.1326e-05 1.9218e-05 4.6429e-05)
(-7.1305e-05 2.8052e-05 4.1899e-05)
(-7.1283e-05 3.5751e-05 3.5751e-05)
(-7.1305e-05 4.1898e-05 2.8053e-05)
(-7.1325e-05 4.6428e-05 1.9219e-05)
(-7.1291e-05 4.9329e-05 9.7527e-06)
(-7.1264e-05 5.0356e-05 1.0502e-09)
(-7.1905e-05 8.3225e-06 4.2016e-05)
(-7.1921e-05 1.6397e-05 3.9592e-05)
(-7.1913e-05 2.3914e-05 3.5729e-05)
(-7.1905e-05 3.0468e-05 3.0469e-05)
(-7.1913e-05 3.5728e-05 2.3915e-05)
(-7.1921e-05 3.9592e-05 1.6398e-05)
(-7.1905e-05 4.2015e-05 8.3236e-06)
(-7.1894e-05 4.2857e-05 1.2478e-09)
(-7.1972e-05 7.022e-06 3.5395e-05)
(-7.1974e-05 1.3828e-05 3.3377e-05)
(-7.1978e-05 2.0166e-05 3.0141e-05)
(-7.1977e-05 2.5687e-05 2.5688e-05)
(-7.1978e-05 3.0141e-05 2.0167e-05)
(-7.1974e-05 3.3376e-05 1.383e-05)
(-7.1971e-05 3.5395e-05 7.0233e-06)
(-7.1969e-05 3.6076e-05 1.396e-09)
(-7.1484e-05 5.8612e-06 2.9606e-05)
(-7.149e-05 1.1559e-05 2.7918e-05)
(-7.1485e-05 1.6886e-05 2.523e-05)
(-7.1483e-05 2.1531e-05 2.1531e-05)
(-7.1485e-05 2.5229e-05 1.6888e-05)
(-7.149e-05 2.7917e-05 1.156e-05)
(-7.1484e-05 2.9606e-05 5.8627e-06)
(-7.1481e-05 3.0191e-05 2.4886e-09)
(-7.0453e-05 4.8381e-06 2.4569e-05)
(-7.0466e-05 9.5699e-06 2.3143e-05)
(-7.0448e-05 1.4038e-05 2.095e-05)
(-7.0436e-05 1.7923e-05 1.7925e-05)
(-7.0448e-05 2.0949e-05 1.4039e-05)
(-7.0465e-05 2.3143e-05 9.5716e-06)
(-7.0453e-05 2.4569e-05 4.8397e-06)
(-7.0442e-05 2.509e-05 1.5156e-09)
(-6.8887e-05 3.9891e-06 2.0212e-05)
(-6.8887e-05 7.8891e-06 1.9064e-05)
(-6.8878e-05 1.1556e-05 1.7253e-05)
(-6.8873e-05 1.4746e-05 1.4748e-05)
(-6.8878e-05 1.7252e-05 1.1558e-05)
(-6.8887e-05 1.9063e-05 7.8909e-06)
(-6.8887e-05 2.0212e-05 3.9908e-06)
(-6.8886e-05 2.0619e-05 1.576e-09)
(-6.6856e-05 3.2614e-06 1.6449e-05)
(-6.6849e-05 6.4357e-06 1.5534e-05)
(-6.6846e-05 9.408e-06 1.4057e-05)
(-6.6842e-05 1.1995e-05 1.1997e-05)
(-6.6845e-05 1.4056e-05 9.4098e-06)
(-6.6849e-05 1.5533e-05 6.4375e-06)
(-6.6856e-05 1.6448e-05 3.2631e-06)
(-6.6858e-05 1.6757e-05 1.5028e-09)
(-6.4411e-05 2.6292e-06 1.3246e-05)
(-6.4407e-05 5.1841e-06 1.2519e-05)
(-6.44e-05 7.5752e-06 1.1328e-05)
(-6.44e-05 9.6638e-06 9.6653e-06)
(-6.44e-05 1.1327e-05 7.5769e-06)
(-6.4407e-05 1.2517e-05 5.1858e-06)
(-6.4411e-05 1.3246e-05 2.6309e-06)
(-6.4415e-05 1.3492e-05 1.3417e-09)
(-6.1588e-05 2.0568e-06 1.0419e-05)
(-6.1591e-05 4.0679e-06 9.8402e-06)
(-6.1579e-05 5.9632e-06 8.9108e-06)
(-6.1573e-05 7.6168e-06 7.6183e-06)
(-6.1579e-05 8.9094e-06 5.9648e-06)
(-6.1591e-05 9.839e-06 4.0696e-06)
(-6.1588e-05 1.0418e-05 2.0583e-06)
(-6.1585e-05 1.0624e-05 1.3079e-09)
(-5.84e-05 1.56e-06 7.8857e-06)
(-5.8396e-05 3.0824e-06 7.4536e-06)
(-5.8391e-05 4.516e-06 6.7535e-06)
(-5.8391e-05 5.7691e-06 5.7703e-06)
(-5.8391e-05 6.7521e-06 4.5176e-06)
(-5.8396e-05 7.4524e-06 3.0839e-06)
(-5.84e-05 7.8849e-06 1.5615e-06)
(-5.8403e-05 8.0361e-06 1.3499e-09)
(-5.4905e-05 1.1029e-06 5.5527e-06)
(-5.4895e-05 2.1761e-06 5.2481e-06)
(-5.4899e-05 3.1868e-06 4.7728e-06)
(-5.4893e-05 4.0734e-06 4.0748e-06)
(-5.4899e-05 4.7715e-06 3.1882e-06)
(-5.4895e-05 5.247e-06 2.1775e-06)
(-5.4905e-05 5.5517e-06 1.1043e-06)
(-5.4906e-05 5.6569e-06 9.9106e-10)
(-5.1107e-05 6.4572e-07 3.3723e-06)
(-5.1114e-05 1.3113e-06 3.1714e-06)
(-5.1101e-05 1.9592e-06 2.8926e-06)
(-5.1092e-05 2.4955e-06 2.4958e-06)
(-5.1101e-05 2.8913e-06 1.9605e-06)
(-5.1114e-05 3.1702e-06 1.3125e-06)
(-5.1107e-05 3.3713e-06 6.4695e-07)
(-5.1101e-05 3.4427e-06 1.5058e-09)
(-4.7099e-05 2.0542e-07 1.3478e-06)
(-4.7097e-05 4.9046e-07 1.1958e-06)
(-4.7096e-05 8.311e-07 1.1423e-06)
(-4.709e-05 1.0599e-06 1.0611e-06)
(-4.7096e-05 1.1412e-06 8.3224e-07)
(-4.7098e-05 1.1947e-06 4.9157e-07)
(-4.7099e-05 1.3469e-06 2.065e-07)
(-4.7095e-05 1.4274e-06 6.396e-10)
(-4.2905e-05 -2.5811e-07 -6.6081e-07)
(-4.2851e-05 -3.462e-07 -8.3214e-07)
(-4.2902e-05 -2.6297e-07 -6.1422e-07)
(-4.2956e-05 -2.8626e-07 -2.8529e-07)
(-4.2902e-05 -6.1515e-07 -2.6199e-07)
(-4.2851e-05 -8.3298e-07 -3.4524e-07)
(-4.2905e-05 -6.6154e-07 -2.5719e-07)
(-4.2961e-05 -4.6456e-07 4.5044e-10)
(-3.8425e-05 -7.3781e-07 -3.0613e-06)
(-3.8328e-05 -1.3016e-06 -3.1477e-06)
(-3.842e-05 -1.6217e-06 -2.6601e-06)
(-3.8536e-05 -1.9313e-06 -1.9305e-06)
(-3.842e-05 -2.6608e-06 -1.6209e-06)
(-3.8329e-05 -3.1483e-06 -1.3008e-06)
(-3.8425e-05 -3.0618e-06 -7.3703e-07)
(-3.8544e-05 -2.7799e-06 2.9072e-10)
(-3.3964e-05 -1.0242e-06 -4.982e-06)
(-3.3929e-05 -1.9519e-06 -4.7207e-06)
(-3.3958e-05 -2.783e-06 -4.2298e-06)
(-3.3976e-05 -3.5724e-06 -3.5718e-06)
(-3.3958e-05 -4.2304e-06 -2.7823e-06)