/*--------------------------------*- C++ -*----------------------------------*\
| =========                 |                                                 |
| \\      /  F ield         | OpenFOAM: The Open Source CFD Toolbox           |
|  \\    /   O peration     | Version:  4.1                                   |
|   \\  /    A nd           | Web:      www.OpenFOAM.org                      |
|    \\/     M anipulation  |                                                 |
\*---------------------------------------------------------------------------*/
FoamFile
{
    version     2.0;
    format      ascii;
    class       volScalarField;
    location    "0.000800";
    object      epsilon;
}
// * * * * * * * * * * * * * * * * * * * * * * * * * * * * * * * * * * * * * //

dimensions      [0 2 -3 0 0 0 0];

internalField   nonuniform List<scalar> 
3072
(
234.55186
238.50068
242.27785
245.31182
247.90734
249.60332
250.56459
250.70005
249.94558
248.41254
245.93451
242.73567
238.54516
233.33501
228.65088
222.03398
212.40576
198.58103
177.52692
149.30705
115.90413
84.3315
58.73149
36.272868
234.71304
237.13481
239.32559
240.95724
242.10558
242.63123
242.75393
242.63262
242.50091
242.71594
243.49026
244.91986
246.06328
244.94716
238.2482
223.46116
199.17631
167.41759
131.90855
98.329032
70.933544
51.364048
37.216295
25.032246
179.67038
183.46484
186.63722
188.91378
190.31774
190.7002
190.30189
189.30012
187.93196
186.50681
185.10466
183.50133
180.5115
174.22195
162.76559
145.07686
122.62697
98.623776
76.630399
59.204512
46.941767
38.482661
31.347286
23.024361
128.98125
132.90243
136.22666
138.66924
140.14563
140.52472
139.89954
138.45255
136.35324
133.86568
131.00625
127.56836
122.78624
115.65226
105.50489
92.285313
77.618187
63.506036
51.787752
43.265548
37.772017
33.92597
29.701969
22.933431
94.256821
98.064517
101.29489
103.742
105.14476
105.41577
104.59031
102.83748
100.37276
97.417594
94.102923
90.322489
85.701642
79.769347
72.269687
63.483157
54.42045
46.359729
40.255495
36.388326
34.355668
33.002145
30.198975
23.764936
73.805657
77.933528
81.327492
83.650258
84.672692
84.283535
82.668404
80.030311
76.752108
73.123107
69.415913
65.661984
61.700727
57.310544
52.278724
46.923508
41.889329
37.939832
35.692915
35.200342
35.839895
36.335611
34.201615
26.691183
71.04582
76.370627
80.429054
82.57655
82.516082
80.350139
76.580184
71.681029
66.34798
61.158756
56.421071
52.302341
48.770041
45.624237
42.743251
40.230085
38.556799
38.350394
39.997192
43.191727
46.998934
49.581192
47.406725
36.245775
128.52732
138.80912
143.06683
140.80765
132.93713
121.18691
107.61267
94.226907
83.394072
74.016694
65.895906
59.377126
54.563367
51.278763
49.279225
48.453417
49.052827
51.635334
56.493338
62.859128
68.363795
70.069434
65.380382
48.498027
234.67975
237.09246
239.27005
240.88344
242.00452
242.50408
242.602
242.45983
242.31831
242.53975
243.34258
244.82676
246.04403
245.02556
238.37258
223.58792
199.26221
167.44773
131.89448
98.29423
70.895389
51.334763
37.200561
25.02893
235.1344
237.99095
240.50981
242.52709
243.91076
244.68799
245.10219
245.46441
246.18865
247.69875
250.21781
253.19995
254.28707
249.22919
232.7221
203.29845
163.50389
121.52226
84.836434
58.461268
42.323787
33.106866
26.146247
19.356744
149.40931
153.23376
156.57185
159.19544
161.03245
161.98917
162.25589
162.0519
161.64948
161.29697
160.93964
159.92005
156.42006
147.93126
132.67605
111.03866
86.71716
64.394695
47.338203
36.521944
30.767153
27.668386
24.294755
19.217867
87.342465
89.843815
92.04306
93.769475
94.934496
95.460763
95.418801
94.942891
94.160507
93.195232
91.968174
90.09637
86.712507
80.84705
72.102296
61.050048
49.663044
39.83437
32.757116
28.61269
26.756392
25.77108
23.665395
19.32201
53.727732
55.124637
56.339627
57.280489
57.844075
57.981947
57.721649
57.136211
56.317103
55.336667
54.196816
52.73981
50.611783
47.490014
43.179044
38.112229
33.100535
29.014179
26.374228
25.237181
25.17985
25.238307
23.68063
19.520299
37.948121
39.005893
39.962919
40.685999
41.068189
41.04943
40.642198
39.908435
38.938553
37.825042
36.642884
35.391146
33.992576
32.291462
30.206685
27.932951
25.880177
24.524641
24.168079
24.815911
26.01513
26.80097
25.287886
20.548317
37.036217
38.658085
40.092313
41.113557
41.571749
41.386914
40.643187
39.544613
38.107838
36.462071
34.766535
33.145038
31.627424
30.155833
28.689783
27.34442
26.462728
26.506562
27.792364
30.102403
32.749169
34.507997
32.672383
25.538091
71.024864
76.252089
80.181151
82.160647
82.129387
80.052628
76.2599
71.340926
66.033303
60.856972
56.136161
52.022232
48.512157
45.393313
42.54962
40.077805
38.440221
38.269348
39.94499
43.156959
46.972565
49.560915
47.386743
36.23257
179.34688
183.14683
186.31495
188.57347
189.95521
190.32376
189.90734
188.89108
187.52608
186.11941
184.73474
183.14817
180.18034
173.91485
162.47024
144.80943
122.4048
98.429934
76.484819
59.09681
46.867982
38.431849
31.315598
23.018451
149.14077
152.98726
156.3517
158.99628
160.84118
161.8135
162.08632
161.88473
161.49133
161.14911
160.7814
159.72924
156.18619
147.6137
132.36862
110.76006
86.513779
64.243555
47.242116
36.460035
30.727618
27.64136
24.27961
19.215336
81.27807
84.192381
86.784943
88.817234
90.237483
90.967736
91.091111
90.753475
90.098831
89.250759
88.097521
86.207226
82.62513
76.292979
67.170006
55.817686
44.461604
35.000291
28.546607
25.241935
24.397592
24.60226
23.417156
19.455417
45.755691
47.208148
48.488735
49.469713
50.095213
50.321865
50.171469
49.727108
49.053668
48.214684
47.173363
45.764937
43.655742
40.544981
36.467931
31.810172
27.412362
23.947972
21.881287
21.364727
22.13017
23.246102
22.767637
19.363318
31.367258
32.083973
32.683456
33.102294
33.291488
33.223103
32.910596
32.398491
31.744011
30.993362
30.166891
29.224347
28.066777
26.609223
24.810105
22.879152
21.146339
19.918948
19.46651
19.940606
21.214151
22.548792
22.216828
19.0411
28.178489
28.72452
29.177765
29.473937
29.567176
29.434558
29.0782
28.532439
27.851804
27.089711
26.290292
25.467479
24.58209
23.566027
22.400899
21.193242
20.162665
19.550649
19.577578
20.378567
21.784303
23.011207
22.367533
18.953272
37.749378
38.77456
39.698275
40.403775
40.789324
40.771394
40.353567
39.608558
38.633887
37.519863
36.331425
35.068704
33.662808
31.968322
29.924389
27.697995
25.710471
24.396048
24.071303
24.740342
25.954424
26.765397
25.276083
20.549162
73.410354
77.422253
80.755129
83.033695
84.059189
83.699093
82.063419
79.424956
76.151677
72.549214
68.858686
65.118946
61.177805
56.816495
51.850881
46.589788
41.625305
37.743191
35.549448
35.092133
35.763069
36.27326
34.165515
26.6824
128.59377
132.53937
135.87712
138.3214
139.79687
140.17701
139.54473
138.0929
136.00087
133.52372
130.65641
127.19651
122.4044
115.27531
105.1526
91.995286
77.384472
63.325826
51.657357
43.173052
37.702929
33.872797
29.665022
22.923735
87.058528
89.599803
91.842322
93.606169
94.799254
95.346627
95.315167
94.843889
94.069336
93.110046
91.863929
89.948876
86.522213
80.616864
71.875803
60.865469
49.520744
39.727787
32.679835
28.555987
26.7125
25.738093
23.64446
19.316763
45.695001
47.157664
48.45122
49.442775
50.075048
50.303991
50.15394
49.70881
49.035975
48.198053
47.151613
45.731603
43.60951
40.474604
36.424417
31.774368
27.385482
23.926956
21.865209
21.351158
22.118047
23.235327
22.759429
19.360856
29.208375
29.919529
30.523978
30.943648
31.13389
31.070629
30.761257
30.256174
29.599418
28.83546
27.975881
26.988752
25.791278
24.317098
22.620131
20.859725
19.349524
18.367829
18.170411
18.92463
20.505377
22.239233
22.363564
19.40081
25.372137
25.858715
26.253184
26.496615
26.543522
26.376643
26.010347
25.480932
24.834747
24.114936
23.349775
22.542526
21.666493
20.689083
19.620718
18.573447
17.73529
17.306214
17.501364
18.481403
20.168736
21.940193
22.096601
19.229314
31.239271
31.917646
32.496423
32.905753
33.07641
32.985677
32.656089
32.132566
31.474762
30.731495
29.910569
28.973776
27.822784
26.376686
24.614456
22.740832
21.043157
19.848637
19.41649
19.904776
21.184263
22.525787
22.20703
19.040782
53.284674
54.594716
55.749021
56.645258
57.16173
57.264979
56.976615
56.372937
55.554875
54.591391
53.460477
51.998682
49.864784
46.767871
42.537686
37.602079
32.708755
28.734689
26.169162
25.085659
25.064474
25.162464
23.655123
19.519654
93.653433
97.3257
100.44211
102.81151
104.15488
104.39773
103.54828
101.80085
99.360068
96.441781
93.153355
89.386512
84.783384
78.911106
71.52349
62.877643
53.956138
46.024936
40.009821
36.20391
34.209951
32.894738
30.147026
23.75735
93.937889
97.793315
101.07085
103.55502
104.98834
105.2801
104.46442
102.71511
100.25701
97.300808
93.962785
90.144935
85.502254
79.564177
72.090378
63.326657
54.290074
46.247806
40.163353
36.316106
34.295132
32.949466
30.177823
23.756524
53.52786
54.96238
56.220836
57.201835
57.797782
57.957799
57.71068
57.131014
56.317021
55.340391
54.187294
52.700129
50.542543
47.392183
43.088207
38.032059
33.032163
28.954577
26.320984
25.191963
25.13929
25.20677
23.660395
19.51385
31.316208
32.041062
32.653473
33.084789
33.283823
33.221689
32.910678
32.398046
31.743832
30.994654
30.165529
29.215044
28.048074
26.575165
24.775789
22.86248
21.130248
19.902422
19.451483
19.926422
21.200981
22.539529
22.20742
19.037678
25.361375
25.84914
26.247942
26.497222
26.549227
26.386104
26.021352
25.491669
24.844329
24.122995
23.356122
22.546923
21.667294
20.683135
19.612431
18.568805
17.734235
17.306589
17.500997
18.479054
20.16503
21.936183
22.093294
19.227628
29.143209
29.809853
30.389377
30.79698
30.963373
30.870808
30.546922
30.026
29.364027
28.602249
27.746879
26.768844
25.586341
24.12927
22.474854
20.756387
19.280929
18.319248
18.138872
18.900222
20.483477
22.221037
22.355778
19.402148
45.528473
46.868222
48.063989
48.992141
49.54549
49.698124
49.508088
49.030669
48.352883
47.525833
46.493464
45.091745
42.997077
39.925261
35.957303
31.42745
27.148014
23.770101
21.76693
21.288793
22.070088
23.198579
22.744196
19.360718
86.663354
88.975814
90.97416
92.529232
93.536584
93.954147
93.844239
93.322571
92.530806
91.576481
90.332814
88.411287
84.990587
79.170025
70.625594
59.883508
48.82001
39.268149
32.391541
28.378177
26.59141
25.656684
23.613157
19.313204
128.30941
132.05685
135.17276
137.42408
138.73903
139.03691
138.36577
136.91441
134.82824
132.35721
129.48213
126.00502
121.21093
114.14401
104.17021
91.213285
76.815748
62.938956
51.399937
43.001374
37.577424
33.783846
29.62301
22.922379
73.598293
77.783079
81.245052
83.62798
84.683535
84.311315
82.695597
80.052781
76.773483
73.137068
69.406571
65.619081
61.629574
57.221203
52.186119
46.860789
41.820141
37.874512
35.620364
35.139338
35.81996
36.310649
34.177827
26.683385
37.843064
38.926051
39.912924
40.664506
41.064767
41.05204
40.65234
39.919523
38.949298
37.836219
36.646307
35.376893
33.956826
32.236203
30.145805
27.877319
25.850249
24.501043
24.148256
24.797427
25.990372
26.77965
25.271575
20.543557
28.16002
28.706813
29.165414
29.472171
29.580441
29.461356
29.109746
28.563355
27.880174
27.115065
26.312488
25.482593
24.588333
23.5648
22.395384
21.186833
20.156101
19.544043
19.570131
20.370139
21.775312
23.002339
22.359733
18.950087
31.275862
31.948048
32.525793
32.939555
33.116371
33.033162
32.708741
32.187669
31.527632
30.778083
29.949594
29.007881
27.853266
26.39497
24.634854
22.762167
21.058452
19.854501
19.41747
19.903
21.18167
22.522132
22.204085
19.038811
45.597719
46.932155
48.124291
49.050172
49.604834
49.761094
49.573727
49.095349
48.411193
47.574099
46.529469
45.116838
43.0153
39.931603
35.974148
31.445067
27.157606
23.776463
21.770587
21.292158
22.073989
23.201178
22.745209
19.360503
80.94564
83.612547
85.969712
87.804637
89.030807
89.60204
89.63148
89.228482
88.553501
87.694584
86.510558
84.57469
80.974666
74.715724
65.817817
54.784664
43.770349
34.567679
28.301729
25.100506
24.306142
24.538936
23.385113
19.44994
148.49953
152.00366
154.90612
157.10278
158.63454
159.40229
159.53635
159.25303
158.80079
158.39624
157.90164
156.68104
153.02158
144.55921
129.63718
108.58372
84.96944
63.249584
46.679963
36.160956
30.555478
27.532056
24.22512
19.202388
179.07989
182.66653
185.53439
187.49306
188.68343
188.95442
188.49004
187.46523
186.0743
184.60443
183.08279
181.34198
178.27847
172.04924
160.81034
143.45734
121.39884
97.726312
76.032999
58.827393
46.69638
38.313579
31.252339
23.007253
70.997285
76.36003
80.504258
82.778658
82.736778
80.504448
76.652453
71.732467
66.39385
61.191855
56.437556
52.295897
48.74058
45.573182
42.685815
40.171425
38.492804
38.297242
39.943086
43.14761
46.969266
49.561932
47.396204
36.238232
37.020119
38.639825
40.082348
41.117817
41.585322
41.422539
40.710763
39.621932
38.163397
36.502708
34.802622
33.17318
31.644255
30.162051
28.689717
27.339873
26.454867
26.496791
27.781815
30.091185
32.738664
34.498872
32.663048
25.53275
37.84091
38.853387
39.771898
40.477855
40.864823
40.854559
40.449536
39.71344
38.73706
37.614235
36.417783
35.148052
33.728439
32.032868
29.985131
27.754657
25.759001
24.426589
24.086258
24.747572
25.963528
26.769013
25.275488
20.545844
53.512709
54.809791
55.951737
56.839072
57.350733
57.457851
57.168231
56.556367
55.719708
54.729392
53.571227
52.087823
49.953923
46.837494
42.61636
37.669369
32.762193
28.769771
26.194409
25.106888
25.085101
25.178396
23.660993
19.519289
86.978765
89.280657
91.27546
92.816203
93.816269
94.232238
94.1163
93.578873
92.761031
91.772457
90.494797
88.544809
85.109193
79.275293
70.723574
59.971833
48.885835
39.31325
32.423403
28.408851
26.621381
25.679927
23.624575
19.315717
148.75569
152.24469
155.1513
157.33627
158.86228
159.62918
159.75998
159.46521
158.99557
158.56991
158.0569
156.82065
153.14971
144.66534
129.73295
108.66356
85.043869
63.299344
46.711194
36.187778
30.583642
27.55365
24.236789
19.204977
234.18578
236.67466
238.53332
239.86333
240.9521
241.59002
241.89305
242.19021
242.81019
244.18281
246.39172
248.97807
249.74523
244.66745
228.46328
199.69389
160.76456
119.64362
83.714649
57.8766
42.038826
32.958027
26.075388
19.341526
234.35005
236.58003
238.43004
239.71839
240.72495
241.17605
241.26198
241.12081
240.93258
241.05014
241.63539
242.89169
243.96767
242.96075
236.48886
221.9928
197.98321
166.46079
131.16794
97.816829
70.607184
51.177812
37.119989
25.01328
128.5379
138.80197
143.05011
140.79256
132.92996
121.20739
107.67712
94.393576
83.658771
74.127393
65.964658
59.44594
54.612161
51.309661
49.289518
48.442421
49.025265
51.593894
56.446497
62.82188
68.341718
70.06186
65.378064
48.496983
71.177094
76.342151
80.233942
82.16434
82.082016
80.090873
76.337926
71.469748
66.192836
61.007669
56.272637
52.150609
48.618332
45.482488
42.619566
40.127648
38.473609
38.289451
39.956229
43.161949
46.975483
49.565047
47.385268
36.231943
73.691445
77.683125
81.006201
83.287676
84.299975
83.960834
82.32912
79.688344
76.393514
72.76171
69.041645
65.272678
61.305631
56.92904
51.949589
46.686315
41.694771
37.792071
35.576593
35.111965
35.76692
36.288701
34.173161
26.681828
94.017124
97.704033
100.83677
103.20646
104.54544
104.79394
103.93346
102.16267
99.685457
96.723095
93.388793
89.578821
84.950316
79.033293
71.6245
62.962807
54.025189
46.075046
40.046703
36.233247
34.236603
32.91851
30.157571
23.758057
128.59612
132.37424
135.52117
137.78037
139.10956
139.42311
138.75631
137.29245
135.18291
132.67822
129.76774
126.253
121.41872
114.30931
104.298
91.321579
76.905916
63.008874
51.45138
43.045287
37.616421
33.816079
29.642632
22.924802
179.12493
182.73236
185.62827
187.61304
188.83199
189.13501
188.69578
187.68137
186.29094
184.81659
183.28914
181.53482
178.44367
172.1819
160.89891
143.53011
121.48455
97.802255
76.08722
58.869115
46.733412
38.344916
31.273108
23.009245
234.12109
236.38735
238.27335
239.59806
240.6369
241.11976
241.23539
241.11974
240.95259
241.08813
241.68773
242.94664
244.00308
242.9754
236.47132
221.97393
197.98831
166.49172
131.2017
97.837002
70.6254
51.184867
37.127984
25.015283
234.49381
238.35026
242.01934
244.93367
247.42122
248.97983
249.85818
249.9178
249.07633
247.42344
244.8076
241.5199
237.3231
232.21437
227.76625
221.41775
211.99123
198.21628
177.11814
148.85455
115.49861
84.069568
58.589338
36.243828
72.340493
137.86839
207.5175
269.04545
314.08435
343.87874
364.52499
380.74767
392.51527
399.15744
401.83314
399.84718
395.74582
390.2445
383.65914
376.02139
367.59824
358.50082
348.87405
338.89128
328.53879
318.24167
308.06792
298.50185
50.880229
87.679445
123.18424
154.35919
180.10276
200.87104
218.05635
232.47667
243.59251
251.07792
255.46258
257.32619
257.67592
256.87998
255.24419
252.70402
249.4181
245.39652
240.72472
235.51577
229.75662
223.76287
217.55029
211.50879
41.830765
63.810984
83.44976
101.61497
118.15331
132.85195
145.79031
156.8832
165.57494
171.75574
175.72238
178.21835
179.68166
180.37443
180.48401
179.97086
178.92345
177.29033
175.08342
172.37268
169.10958
165.49673
161.5082
157.42996
36.354811
50.475492
63.5665
76.387526
88.604013
99.934612
110.12323
118.91028
125.85825
130.97049
134.55882
137.27253
139.48981
141.42168
143.20732
144.74503
146.01413
146.77822
146.92719
146.33007
144.86644
142.6608
139.57578
135.91183
34.662434
45.115043
55.340546
65.768998
75.461657
84.142901
91.972041
99.052979
105.10256
110.21412
114.79259
119.39178
124.44567
130.23835
136.80576
143.95708
151.2876
158.14603
163.84467
167.63337
168.94272
167.52349
163.28045
156.55317
36.434007
46.837496
56.765128
66.705709
74.548151
80.211429
84.868887
89.391835
94.15974
99.458579
105.70468
113.59795
123.74349
136.72558
152.75955
171.67549
192.58219
213.93729
233.45951
248.87659
258.3464
259.95308
253.0199
237.91807
41.372931
55.593703
70.253993
83.688979
91.161223
92.876429
91.824423
90.542745
90.530695
92.679837
97.637785
106.19952
119.39515
138.34177
164.15644
197.91257
239.78288
288.22647
339.794
388.69602
427.92551
449.82425
448.91588
424.02445
55.466939
78.719645
105.49196
130.12905
141.78371
140.31825
131.01602
119.36819
109.18735
102.99802
102.50519
109.36678
125.79423
154.90072
200.76837
267.20191
357.17833
470.9328
604.24044
745.52255
875.52446
970.37277
1007.0249
972.11619
165.80084
186.76572
209.69373
221.36254
224.45829
223.31813
221.98971
221.1381
222.27434
225.45388
229.84131
235.08442
240.73692
246.55926
252.346
257.94081
263.36772
268.42129
273.1478
277.39245
281.13568
284.43263
287.14906
289.61149
140.59398
148.99217
161.93519
170.48649
174.79099
176.76321
178.16608
179.57816
181.86647
185.16384
189.17291
193.70784
198.49764
203.35926
208.13531
212.68635
216.96088
220.80691
224.21265
227.07561
229.3826
231.15594
232.35214
233.17806
124.43592
127.70461
135.82169
142.83637
147.72954
151.2575
154.16023
156.90545
160.04718
163.69526
167.79915
172.25011
176.86694
181.49404
185.98435
190.20286
194.04243
197.37901
200.16529
202.31355
203.8214
204.68823
204.95774
204.72644
114.67988
116.55192
122.65923
129.25453
134.84232
139.56881
143.65137
147.47968
151.44897
155.70958
160.30336
165.16928
170.16521
175.14582
179.94622
184.41873
188.40577
191.77377
194.42715
196.26383
197.30127
197.51213
196.99114
195.80956
109.68752
112.16687
117.74906
124.78454
131.46492
137.38759
142.64983
147.63647
152.63194
157.87939
163.46534
169.36731
175.44879
181.56423
187.49063
193.05204
197.99331
202.13605
205.26794
207.26981
208.07463
207.67223
206.164
203.64282
108.84181
113.16873
119.32752
127.51686
135.69324
143.10227
149.77081
156.06612
162.38745
169.04533
176.19565
183.87323
191.97134
200.31134
208.64423
216.63964
223.97722
230.22703
235.07783
238.14222
239.26547
238.26395
235.26197
230.46338
112.18483
119.20174
127.10384
137.45306
147.80045
157.11076
165.46068
173.35894
181.35846
189.88438
199.21906
209.51117
220.78489
232.94322
245.76498
258.8757
271.77831
283.81227
294.31451
302.46011
306.66655
306.00927
300.26439
290.03505
120.30262
131.04899
142.03161
155.86494
169.40941
181.37976
192.02873
202.10462
212.45393
223.81325
236.80076
251.95905
269.76339
290.77544
315.83105
344.65295
376.33518
409.10748
440.06556
465.2017
480.00148
480.86999
466.40967
438.35568
55.473002
78.725544
105.48998
130.10942
141.75101
140.28031
130.97894
119.34317
109.1772
103.00609
102.52829
109.405
125.85173
154.98242
200.86108
267.28821
357.20814
470.91042
604.14094
745.2779
875.0704
969.76871
1006.6093
971.87838
41.386455
55.614164
70.264446
83.66642
91.097717
92.780449
91.704533
90.402873
90.382674
92.531089
97.496517
106.06644
119.27239
138.22622
164.05153
197.81266
239.64566
287.94937
339.34123
388.04013
427.04361
448.79508
447.75735
422.86911
36.448525
46.855251
56.767277
66.665682
74.458876
80.072933
84.679741
89.150724
93.873461
99.144519
105.37184
113.25222
123.38128
136.33856
152.35967
171.2593
192.12574
213.39033
232.80612
248.13123
257.50986
259.05385
252.04431
236.91893
34.674066
45.122871
55.328703
65.712304
75.351717
83.974267
91.738385
98.752794
104.74376
109.80951
114.36102
118.94228
123.97754
129.74809
136.29515
143.4371
150.77173
157.64429
163.34921
167.16714
168.50185
167.0879
162.84065
156.1159
36.365602
50.473653
63.537124
76.308177
88.460786
99.716961
109.82096
118.52719
125.40123
130.45813
134.01805
136.7255
138.94342
140.87984
142.67212
144.2208
145.51364
146.32206
146.52409
145.9967
144.60039
142.43563
139.38953
135.76278
41.843192
63.801371
83.401876
101.50004
117.94478
132.53341
145.35439
156.33233
164.90776
171.00447
174.92912
177.42678
178.91355
179.63788
179.78443
179.30695
178.30837
176.74453
174.61297
171.9906
168.81551
165.28961
161.3813
157.36889
50.888646
87.660511
123.10148
154.17997
179.77224
200.35904
217.36175
231.60741
242.54766
249.88809
254.19341
256.05685
256.45672
255.73216
254.18402
251.731
248.54232
244.63303
240.07279
234.99206
229.36439
223.52027
217.44378
211.49981
72.356176
137.83923
207.38013
268.70938
313.46532
342.962
363.37816
379.38363
390.92325
397.36206
399.91361
397.89878
393.87174
388.50499
382.09294
374.62738
366.3875
357.47939
348.02573
338.22428
328.07528
318.01006
308.03098
298.58307
120.30324
131.05301
142.0407
155.87945
169.4284
181.40121
192.04972
202.12264
212.4689
223.82518
236.80981
251.9641
269.76716
290.7712
315.81767
344.62319
376.27726
409.01051
439.92068
465.00515
479.75724
480.60645
466.18698
438.19036
112.18616
119.2074
127.11448
137.46763
147.81699
157.12738
165.47559
173.37039
181.3665
189.89002
199.22282
209.51148
220.78023
232.93192
245.73712
258.83682
271.72739
283.71647
294.1397
302.22368
306.38732
305.71269
299.97093
289.76633
108.84224
113.17063
119.32981
127.51717
135.68981
143.09441
149.75811
156.04852
162.36552
169.02021
176.16865
183.84289
191.93499
200.26576
208.58542
216.56233
223.87195
230.09315
234.90688
237.9326
239.0247
238.00816
235.01447
230.23714
109.68718
112.16324
117.73958
124.76621
131.43621
137.34921
142.60369
147.58356
152.57317
157.81586
163.39896
169.29864
175.3755
181.48306
187.39803
192.94349
197.86573
201.98567
205.09465
207.07367
207.86126
207.45346
205.95193
203.449
114.67918
116.54568
122.64137
129.21998
134.78971
139.49959
143.56961
147.3889
151.34969
155.60307
160.19325
165.05886
170.055
175.03363
179.82838
184.29057
188.26428
191.61717
194.2571
196.08482
197.11486
197.32652
196.81683
195.65293
124.43464
127.69523
135.79358
142.78159
147.64565
151.14692
154.02947
156.76105
159.89085
163.52884
167.62879
172.08243
176.70594
181.34043
185.83539
190.05243
193.88633
197.21633
199.99869
202.1487
203.65903
204.53553
204.82349
204.61211
140.58954
148.97692
161.89206
170.39883
174.65581
176.5841
177.95538
179.34743
181.62003
184.90508
188.91213
193.45655
198.26497
203.15076
207.95005
212.51455
216.79551
220.64556
224.05961
226.93913
229.25948
231.05383
232.27958
233.12932
165.78881
186.73363
209.61867
221.21843
224.24009
223.03034
221.6566
220.77809
221.89287
225.05741
229.44609
234.70974
240.4002
246.27334
252.11243
257.74388
263.19631
268.27004
273.02118
277.29973
281.06674
284.39548
287.14167
289.63841
72.355057
137.843
207.38989
268.72264
313.49501
342.99139
363.39098
379.37929
390.91184
397.33736
399.88581
397.84225
393.80707
388.43534
382.01843
374.54606
366.29748
357.37947
347.92083
338.12037
327.97228
317.90413
307.92211
298.47172
50.881583
87.65014
123.09935
154.17886
179.76031
200.33978
217.32969
231.55858
242.48444
249.8118
254.10605
255.96324
256.36173
255.64581
254.10864
251.66528
248.48321
244.57681
240.01759
234.93914
229.31838
223.48007
217.40742
211.46785
41.834775
63.79363
83.395496
101.49478
117.9383
132.51927
145.33255
156.30255
164.86399
170.95126
174.86214
177.35427
178.84452
179.58129
179.74317
179.27979
178.29104
176.7317
174.60521
171.9861
168.81791
165.30282
161.40423
157.39918
36.361959
50.473641
63.537761
76.308412
88.460214
99.714865
109.82105
118.5295
125.40379
130.45732
134.01242
136.72241
138.95239
140.90963
142.72516
144.29264
145.5974
146.41218
146.62112
146.09646
144.70128
142.5497
139.50676
135.87206
34.671652
45.121635
55.326849
65.710785
75.350675
83.978769
91.755147
98.783931
104.78994
109.86788
114.43621
119.041
124.11172
129.93103
136.53444
143.72666
151.09865
158.00178
163.74171
167.57973
168.93229
167.52114
163.24092
156.4652
36.443898
46.850576
56.759392
66.660072
74.457769
80.08395
84.710237
89.206689
93.955565
99.258755
105.52162
113.44914
123.64518
136.69661
152.82152
171.82589
192.82902
214.20029
233.69438
249.07204
258.47113
259.96989
252.89199
237.67998
41.380591
55.602013
70.246553
83.644904
91.078958
92.772751
91.711882
90.432079
90.439147
92.619969
97.623405
106.24395
119.51653
138.55086
164.47109
198.34347
240.2977
288.72676
340.21551
388.93651
427.88829
449.60455
448.55587
423.63205
55.468406
78.717757
105.47984
130.09602
141.72641
140.23712
130.92609
119.29366
109.14442
103.00074
102.55827
109.47417
125.97253
155.17761
201.1408
267.67516
357.72103
471.49025
604.73415
745.86319
875.64164
970.32901
1006.9953
972.09822
165.79092
186.73713
209.62011
221.22077
224.24362
223.0312
221.65766
220.7779
221.88938
225.05125
229.43892
234.70377
240.3978
246.27606
252.12053
257.75579
263.20986
268.28389
273.03521
277.31457
281.08348
284.4135
287.16068
289.65503
140.59014
148.97749
161.89087
170.39841
174.65589
176.58258
177.95387
179.34376
181.61167
184.89339
188.90042
193.44871
198.26517
203.16232
207.97393
212.54968
216.83935
220.69621
224.11654
227.00156
229.32941
231.13023
232.3577
233.20869
124.43404
127.69549
135.79279
142.78031
147.64547
151.14659
154.02882
156.7571
159.88149
163.51556
167.61522
172.07295
176.70551
181.35364
185.86445
190.09727
193.94513
197.2872
200.08063
202.24062
203.76154
204.64631
204.93615
204.72383
114.67833
116.54576
122.64084
129.21931
134.79019
139.50009
143.56852
147.38267
151.33647
155.58428
160.1726
165.04109
170.04581
175.0387
179.85141
184.33316
188.32605
191.69719
194.35354
196.19516
197.23803
197.45856
196.94966
195.78187
109.68599
112.16133
117.7359
124.76148
131.43205
137.34519
142.59645
147.5692
152.54947
157.78403
163.36279
169.26364
175.3486
181.47161
187.4076
192.97798
197.92643
202.07269
205.20536
207.20394
208.00749
207.60588
206.10537
203.59722
108.84053
113.16472
119.3198
127.50447
135.67559
143.07738
149.73452
156.01451
162.31898
168.96142
176.10076
183.77232
191.87063
200.21681
208.55941
216.56737
223.91487
230.16972
235.01615
238.0601
239.17135
238.16982
235.1873
230.40806
112.18414
119.19981
127.10034
137.44668
147.78926
157.09058
165.42573
173.30446
181.28252
189.78673
199.10118
209.37596
220.63942
232.79406
245.62155
258.75056
271.65211
283.69968
294.19655
302.33629
306.53678
305.88443
300.15399
289.94639
120.30195
131.04727
142.02809
155.85657
169.39181
181.34705
191.97359
202.02057
212.33516
223.65533
236.59947
251.70979
269.47925
290.46961
315.51121
344.33814
376.03301
408.81862
439.78698
464.93195
479.74344
480.6422
466.24027
438.24564
55.465336
78.713476
105.48247
130.10889
141.74457
140.26177
130.94474
119.29966
109.13823
102.9813
102.52845
109.43476
125.91189
155.06783
200.97185
267.40008
357.37235
471.03317
604.16685
745.20997
874.97792
969.68123
1006.2385
971.26257
41.373554
55.595207
70.254156
83.679995
91.133702
92.821034
91.735944
90.434563
90.416604
92.574166
97.549243
106.1293
119.33673
138.28866
164.09363
197.80166
239.57301
287.85543
339.21751
387.94646
427.07862
448.88401
447.8787
422.9526
36.431665
46.829487
56.753357
66.685748
74.512163
80.146599
84.771515
89.263124
93.995993
99.2676
105.48554
113.34908
123.45816
136.3933
152.36405
171.20549
191.97256
213.19129
232.57362
247.85927
257.24826
258.84034
251.93007
236.88892
34.658153
45.097182
55.31297
65.729197
75.404854
84.065297
91.873735
98.934336
104.95861
110.04222
114.60168
119.18422
124.21594
129.9793
136.50272
143.5999
150.86909
157.67173
163.31892
167.0707
168.359
166.94789
162.73783
156.05444
36.348854
50.448849
63.517849
76.321219
88.523613
99.843385
110.02343
118.80969
125.75232
130.85949
134.45177
137.18072
139.41012
141.34559
143.12007
144.63648
145.88613
146.63495
146.77713
146.18156
144.72276
142.52479
139.44537
135.78311
41.818238
63.769947
83.378495
101.52152
118.04696
132.74513
145.69357
156.80684
165.5117
171.70792
175.69291
178.21993
179.70571
180.40752
180.51182
179.98206
178.92062
177.27857
175.06854
172.36069
169.10242
165.498
161.51609
157.44083
50.86995
87.638894
123.11589
154.27445
180.02077
200.80661
218.02185
232.48341
243.63131
251.13954
255.54539
257.43482
257.79445
256.99092
255.33727
252.77242
249.46548
245.42917
240.74462
235.52919
229.76952
223.78318
217.58129
211.55059
72.333685
137.84834
207.49133
269.02526
314.08301
343.90589
364.59878
380.864
392.67065
399.33843
402.04147
400.02024
395.90465
390.39011
383.78899
376.13703
367.70076
358.58849
348.94354
338.94342
328.5858
318.28479
308.1134
298.55562
120.30314
131.05192
142.03706
155.86963
169.40758
181.36303
191.98734
202.02892
212.33346
223.63772
236.56119
251.64848
269.38128
290.323
315.31191
344.07459
375.70949
408.44006
439.3676
464.49134
479.30478
480.22404
465.84418
437.88599
112.18644
119.20741
127.11284
137.4618
147.8036
157.10179
165.43109
173.30106
181.26499
189.74923
199.0367
209.27804
220.50002
232.60904
245.38387
258.4485
271.33604
283.31562
293.7554
301.88083
306.10168
305.48326
299.79141
289.62902
108.84374
113.17417
119.33452
127.52174
135.69106
143.08797
149.73851
156.00982
162.30205
168.92731
176.04251
183.68273
191.74199
200.04156
208.33445
216.29032
223.59236