/*--------------------------------*- C++ -*----------------------------------*\
| =========                 |                                                 |
| \\      /  F ield         | OpenFOAM: The Open Source CFD Toolbox           |
|  \\    /   O peration     | Version:  4.1                                   |
|   \\  /    A nd           | Web:      www.OpenFOAM.org                      |
|    \\/     M anipulation  |                                                 |
\*---------------------------------------------------------------------------*/
FoamFile
{
    version     2.0;
    format      ascii;
    class       surfaceVectorField;
    location    "0.0011";
    object      Uf;
}
// * * * * * * * * * * * * * * * * * * * * * * * * * * * * * * * * * * * * * //

dimensions      [0 1 -1 0 0 0 0];

internalField   nonuniform List<vector> 
17536
(
(4.4043e-07 -6.6518e-07 4.2723e-07)
(4.6852e-07 -2.3668e-07 2.7837e-07)
(6.3994e-07 -3.4328e-07 3.1256e-07)
(6.6647e-07 -2.8094e-07 2.8615e-07)
(7.495e-07 -2.2682e-07 2.7534e-07)
(8.9764e-08 -1.5245e-06 8.5485e-07)
(2.8316e-07 -8.4914e-07 8.43e-07)
(4.5438e-07 -1.1785e-06 8.9213e-07)
(4.247e-07 -1.0124e-06 8.205e-07)
(5.0854e-07 -8.4754e-07 8.1405e-07)
(9.0449e-09 -2.582e-06 1.3018e-06)
(9.8931e-08 -1.5669e-06 1.5112e-06)
(2.7787e-07 -2.1274e-06 1.432e-06)
(1.8644e-07 -1.9472e-06 1.3856e-06)
(2.7406e-07 -1.6431e-06 1.4092e-06)
(3.756e-07 -3.8393e-06 1.7611e-06)
(1.1631e-07 -2.4475e-06 2.2111e-06)
(3.0316e-07 -3.2474e-06 1.9459e-06)
(1.5221e-07 -3.0939e-06 1.953e-06)
(2.3951e-07 -2.626e-06 2.0233e-06)
(1.3897e-06 -5.0654e-06 2.2374e-06)
(7.7763e-07 -3.4745e-06 2.9566e-06)
(9.7312e-07 -4.4573e-06 2.3739e-06)
(8.3089e-07 -4.363e-06 2.4756e-06)
(9.1988e-07 -3.774e-06 2.6552e-06)
(3.1307e-06 -5.8018e-06 2.7275e-06)
(2.082e-06 -4.2667e-06 3.689e-06)
(2.2867e-06 -5.4586e-06 2.8536e-06)
(2.2916e-06 -5.4115e-06 3.0475e-06)
(2.3799e-06 -4.717e-06 3.2416e-06)
(5.3149e-06 -6.0753e-06 3.2336e-06)
(3.9055e-06 -4.4994e-06 4.3266e-06)
(4.1133e-06 -5.9556e-06 3.5045e-06)
(4.2549e-06 -5.9732e-06 3.6843e-06)
(4.35e-06 -5.1133e-06 3.8273e-06)
(7.5829e-06 -6.0306e-06 3.7898e-06)
(6.1362e-06 -4.6693e-06 4.939e-06)
(6.3612e-06 -6.3987e-06 4.2752e-06)
(6.5842e-06 -6.3352e-06 4.5268e-06)
(6.6922e-06 -5.2658e-06 4.3629e-06)
(9.9642e-06 -5.6456e-06 4.405e-06)
(8.4932e-06 -4.5036e-06 5.4866e-06)
(8.7392e-06 -6.3273e-06 5.0701e-06)
(9.0457e-06 -6.3257e-06 5.3576e-06)
(9.1683e-06 -5.1291e-06 4.9695e-06)
(1.2338e-05 -5.2322e-06 5.0201e-06)
(1.092e-05 -4.2032e-06 6.0416e-06)
(1.1167e-05 -6.0851e-06 5.943e-06)
(1.1479e-05 -6.0778e-06 6.2661e-06)
(1.1601e-05 -4.8363e-06 5.5663e-06)
(1.4973e-05 -5.1353e-06 5.6273e-06)
(1.3493e-05 -4.1411e-06 6.617e-06)
(1.3752e-05 -6.0961e-06 6.7737e-06)
(1.3968e-05 -6.0763e-06 7.2107e-06)
(1.4074e-05 -4.7662e-06 6.0781e-06)
(1.8428e-05 -5.7356e-06 6.225e-06)
(1.656e-05 -4.4175e-06 7.2017e-06)
(1.6813e-05 -6.452e-06 7.5938e-06)
(1.682e-05 -6.4803e-06 8.0855e-06)
(1.6925e-05 -5.2496e-06 6.4807e-06)
(2.3536e-05 -7.125e-06 6.7782e-06)
(2.0881e-05 -5.4384e-06 7.9464e-06)
(2.1109e-05 -7.603e-06 8.1801e-06)
(2.0889e-05 -7.9364e-06 8.9914e-06)
(2.0993e-05 -6.4773e-06 7.0658e-06)
(3.0568e-05 -8.6957e-06 7.2251e-06)
(2.6874e-05 -7.0135e-06 8.5806e-06)
(2.7062e-05 -9.1844e-06 8.6797e-06)
(2.6817e-05 -9.909e-06 9.7288e-06)
(2.6897e-05 -8.4176e-06 7.5391e-06)
(3.9514e-05 -1.0616e-05 7.4636e-06)
(3.4853e-05 -8.5185e-06 8.9199e-06)
(3.495e-05 -1.0675e-05 9.1173e-06)
(3.4662e-05 -1.1712e-05 1.032e-05)
(3.4708e-05 -1.0359e-05 7.6334e-06)
(4.9769e-05 -1.3457e-05 7.4913e-06)
(4.469e-05 -1.0796e-05 9.0645e-06)
(4.4712e-05 -1.2926e-05 9.1664e-06)
(4.4211e-05 -1.3936e-05 1.0543e-05)
(4.4206e-05 -1.2868e-05 7.3705e-06)
(6.1413e-05 -1.8358e-05 7.2933e-06)
(5.5922e-05 -1.3475e-05 9.3674e-06)
(5.5865e-05 -1.5313e-05 8.4145e-06)
(5.4815e-05 -1.64e-05 9.9229e-06)
(5.4752e-05 -1.5816e-05 7.3167e-06)
(7.717e-05 -2.6551e-05 6.7481e-06)
(6.9562e-05 -1.84e-05 9.9611e-06)
(6.9339e-05 -2.0004e-05 6.8179e-06)
(6.7405e-05 -2.1899e-05 8.8768e-06)
(6.7302e-05 -2.1393e-05 7.4537e-06)
(9.9556e-05 -3.6534e-05 5.9556e-06)
(8.8806e-05 -2.6042e-05 1.0503e-05)
(8.8475e-05 -2.7495e-05 4.5833e-06)
(8.6079e-05 -3.0715e-05 7.1584e-06)
(8.5935e-05 -3.0478e-05 7.3037e-06)
(0.00012825 -4.5844e-05 5.018e-06)
(0.00011465 -3.376e-05 1.0893e-05)
(0.00011428 -3.4802e-05 1.971e-06)
(0.00011213 -3.9565e-05 4.9948e-06)
(0.00011194 -3.9588e-05 7.2934e-06)
(0.00016076 -5.6357e-05 3.8722e-06)
(0.00014537 -4.0688e-05 1.0704e-05)
(0.00014491 -4.1519e-05 -3.4349e-07)
(0.00014245 -4.6923e-05 3.4323e-06)
(0.00014223 -4.6852e-05 6.544e-06)
(0.00019956 -7.4727e-05 2.6517e-06)
(0.00018149 -5.0946e-05 1.0981e-05)
(0.00018099 -5.1719e-05 -3.3552e-06)
(0.0001762 -5.771e-05 1.9203e-06)
(0.00017596 -5.7442e-05 5.4622e-06)
(0.00025613 -0.00010581 1.5294e-06)
(0.00023014 -7.005e-05 1.3144e-05)
(0.00022968 -7.0558e-05 -8.3388e-06)
(0.00022103 -7.9594e-05 -6.914e-07)
(0.00022082 -7.9437e-05 5.2707e-06)
(0.00034184 -0.00014471 5.3123e-07)
(0.00030179 -9.9776e-05 1.6758e-05)
(0.00030135 -9.9888e-05 -1.4633e-05)
(0.00029031 -0.00011486 -4.6593e-06)
(0.00029015 -0.00011553 6.0353e-06)
(0.00045921 -0.0001833 -3.2589e-07)
(0.00040348 -0.00013262 1.9293e-05)
(0.00040311 -0.00013241 -1.952e-05)
(0.0003921 -0.00015501 -6.4026e-06)
(0.00039196 -0.00015469 6.6692e-06)
(0.00059794 -0.00022852 -9.901e-07)
(0.00053261 -0.00016514 2.1325e-05)
(0.00053233 -0.00016475 -2.3324e-05)
(0.00051926 -0.00019017 -7.2492e-06)
(0.00051914 -0.00019063 5.0853e-06)
(0.00076264 -0.00031353 -1.5391e-06)
(0.00068776 -0.00021133 2.6451e-05)
(0.00068754 -0.00021079 -2.9766e-05)
(0.00066246 -0.00023681 -6.4913e-06)
(0.00066235 -0.00023741 2.9998e-06)
(0.0010036 -0.00047991 -2.0608e-06)
(0.00089653 -0.00030657 4.133e-05)
(0.00089633 -0.0003059 -4.5886e-05)
(0.00084677 -0.00034159 -9.4666e-06)
(0.00084666 -0.00034235 4.652e-06)
(0.0014056 -0.00073322 -2.5715e-06)
(0.0012237 -0.00047749 6.8716e-05)
(0.0012235 -0.00047664 -7.4468e-05)
(0.0011478 -0.00054316 -2.0645e-05)
(0.0011477 -0.00054415 1.4515e-05)
(0.0020263 -0.0010377 -3.0659e-06)
(0.0017386 -0.00071044 0.00010079)
(0.0017384 -0.00070945 -0.0001077)
(0.0016472 -0.0008224 -3.4541e-05)
(0.0016472 -0.00082339 2.7348e-05)
(0.0028655 -0.0013884 -3.5136e-06)
(0.0024737 -0.00097575 0.00012872)
(0.0024736 -0.00097467 -0.00013673)
(0.0023684 -0.0011309 -4.0756e-05)
(0.0023683 -0.0011314 3.289e-05)
(0.0039312 -0.0018946 -3.9504e-06)
(0.0034415 -0.0013009 0.00016553)
(0.0034413 -0.0012997 -0.00017453)
(0.0032894 -0.0014868 -4.1108e-05)
(0.0032893 -0.0014871 3.2462e-05)
(0.0053894 -0.0027521 -4.4056e-06)
(0.0047327 -0.0018183 0.00024203)
(0.0047325 -0.0018169 -0.00025219)
(0.004475 -0.0020559 -5.1691e-05)
(0.0044749 -0.0020553 4.3002e-05)
(0.0076141 -0.0040919 -4.855e-06)
(0.0066085 -0.0026886 0.00037926)
(0.0066083 -0.0026872 -0.00039062)
(0.0062057 -0.0030594 -9.2984e-05)
(0.0062056 -0.0030589 8.303e-05)
(0.011049 -0.0058211 -5.1943e-06)
(0.0094617 -0.0039625 0.00056053)
(0.0094615 -0.0039609 -0.00057297)
(0.0089417 -0.0045871 -0.00016522)
(0.0089417 -0.0045866 0.00015435)
(0.015903 -0.0076897 -5.3637e-06)
(0.013611 -0.0054787 0.00073867)
(0.013611 -0.0054771 -0.0007519)
(0.01305 -0.006423 -0.00023439)
(0.01305 -0.0064201 0.00022496)
(0.022062 -0.0096766 -5.348e-06)
(0.019125 -0.0070493 0.00088868)
(0.019125 -0.0070477 -0.00090184)
(0.01853 -0.0082637 -0.00026528)
(0.01853 -0.008265 0.00025165)
(0.029515 -0.012289 -5.2235e-06)
(0.02598 -0.008832 0.001067)
(0.02598 -0.0088304 -0.0010801)
(0.0252 -0.010267 -0.00027246)
(0.0252 -0.010268 0.00025899)
(0.038977 -0.016295 -5.0272e-06)
(0.034548 -0.011417 0.0013832)
(0.034548 -0.011415 -0.0013959)
(0.033353 -0.013202 -0.00032842)
(0.033353 -0.013202 0.00031647)
(0.051871 -0.022091 -4.8306e-06)
(0.045849 -0.015377 0.0018915)
(0.045849 -0.015376 -0.0019034)
(0.044125 -0.017875 -0.00050578)
(0.044125 -0.017877 0.00049336)
(0.06987 -0.029086 -4.6272e-06)
(0.061331 -0.020809 0.0024784)
(0.061331 -0.020808 -0.0024898)
(0.059262 -0.024558 -0.00078564)
(0.059262 -0.024558 0.00077505)
(0.093778 -0.035613 -4.2634e-06)
(0.082163 -0.026847 0.0028856)
(0.082162 -0.026846 -0.0028961)
(0.080268 -0.032253 -0.0010415)
(0.080268 -0.032254 0.0010303)
(0.12271 -0.039684 -3.7971e-06)
(0.10832 -0.031883 0.0028457)
(0.10832 -0.031881 -0.0028551)
(0.10722 -0.038925 -0.0010907)
(0.10722 -0.038926 0.001081)
(0.1543 -0.039904 -3.2549e-06)
(0.13826 -0.034365 0.0022891)
(0.13826 -0.034364 -0.0022974)
(0.13841 -0.042569 -0.00086552)
(0.13841 -0.042571 0.00085606)
(0.18544 -0.035691 -2.4981e-06)
(0.16934 -0.03331 0.0014177)
(0.16934 -0.033309 -0.0014248)
(0.17091 -0.04186 -0.00045794)
(0.17091 -0.041859 0.00045255)
(0.21242 -0.027073 -1.553e-06)
(0.19817 -0.028186 0.00061459)
(0.19817 -0.028185 -0.00061936)
(0.20109 -0.035916 -9.7142e-05)
(0.20109 -0.035916 9.2469e-05)
(0.2312 -0.015959 -7.3176e-07)
(0.2212 -0.019004 0.00017049)
(0.2212 -0.019004 -0.00017287)
(0.22527 -0.024567 2.4395e-05)
(0.22527 -0.024566 -2.6435e-05)
(0.23497 -0.0089355 8.9689e-05)
(0.23497 -0.0089357 -9.0449e-05)
(0.23957 -0.011757 3.9232e-05)
(0.23957 -0.011756 -3.9767e-05)
(2.1313e-07 -5.6322e-07 5.5155e-07)
(3.6806e-07 -2.4687e-07 2.7429e-07)
(3.5857e-07 -2.6266e-07 2.9003e-07)
(4.8933e-07 -2.2607e-07 2.6029e-07)
(-1.0021e-07 -1.2175e-06 1.1734e-06)
(1.8768e-07 -8.526e-07 8.4703e-07)
(1.8323e-07 -9.029e-07 8.6524e-07)
(2.6858e-07 -8.0171e-07 7.7787e-07)
(-1.5823e-07 -1.9848e-06 1.8682e-06)
(1.4511e-08 -1.5162e-06 1.5293e-06)
(2.4117e-08 -1.553e-06 1.504e-06)
(5.8577e-08 -1.5086e-06 1.4447e-06)
(1.1563e-07 -2.8755e-06 2.6139e-06)
(5.2181e-08 -2.3353e-06 2.2579e-06)
(7.875e-08 -2.3732e-06 2.1608e-06)
(6.6884e-08 -2.4018e-06 2.1375e-06)
(1.1515e-06 -3.6991e-06 3.3849e-06)
(6.8425e-07 -3.2001e-06 3.0985e-06)
(7.1501e-07 -3.2289e-06 2.8749e-06)
(7.2181e-07 -3.3875e-06 2.9216e-06)
(2.803e-06 -4.156e-06 4.0964e-06)
(1.8951e-06 -3.881e-06 3.8958e-06)
(1.924e-06 -3.9176e-06 3.6133e-06)
(2.0649e-06 -4.2019e-06 3.7273e-06)
(4.8235e-06 -4.3401e-06 4.7853e-06)
(3.6429e-06 -4.0917e-06 4.5987e-06)
(3.6751e-06 -4.2319e-06 4.373e-06)
(3.9077e-06 -4.6032e-06 4.5343e-06)
(7.0878e-06 -4.3145e-06 5.4637e-06)
(5.8136e-06 -4.2678e-06 5.3788e-06)
(5.8556e-06 -4.4614e-06 5.1264e-06)
(6.155e-06 -4.7731e-06 5.3321e-06)
(9.4284e-06 -4.0582e-06 6.1262e-06)
(8.1065e-06 -4.0665e-06 6.089e-06)
(8.1574e-06 -4.3748e-06 5.928e-06)
(8.5295e-06 -4.5992e-06 6.0684e-06)
(1.1845e-05 -3.929e-06 6.8216e-06)
(1.0563e-05 -3.8227e-06 6.7943e-06)
(1.0627e-05 -4.2597e-06 6.7764e-06)
(1.0948e-05 -4.4249e-06 6.9279e-06)
(1.4641e-05 -4.0957e-06 7.5191e-06)
(1.3225e-05 -3.8868e-06 7.5736e-06)
(1.3304e-05 -4.4812e-06 7.6726e-06)
(1.353e-05 -4.6387e-06 7.9818e-06)
(1.8464e-05 -4.8185e-06 8.2248e-06)
(1.6457e-05 -4.186e-06 8.3504e-06)
(1.6553e-05 -4.9732e-06 8.6038e-06)
(1.6604e-05 -5.3413e-06 9.1495e-06)
(2.3685e-05 -6.1124e-06 8.9634e-06)
(2.0941e-05 -5.2079e-06 9.2167e-06)
(2.1042e-05 -6.0623e-06 9.3721e-06)
(2.0908e-05 -6.8149e-06 1.0251e-05)
(3.1115e-05 -7.5788e-06 9.533e-06)
(2.7036e-05 -6.486e-06 1.0144e-05)
(2.709e-05 -7.4149e-06 1.0128e-05)
(2.6952e-05 -8.6199e-06 1.129e-05)
(3.9701e-05 -9.3599e-06 9.859e-06)
(3.5182e-05 -7.9067e-06 1.0698e-05)
(3.5151e-05 -8.9647e-06 1.063e-05)
(3.4992e-05 -1.0378e-05 1.1979e-05)
(5.0243e-05 -1.1578e-05 1.0177e-05)
(4.5152e-05 -9.7e-06 1.113e-05)
(4.5051e-05 -1.074e-05 1.0749e-05)
(4.4765e-05 -1.2413e-05 1.2239e-05)
(6.2454e-05 -1.4897e-05 1.0655e-05)
(5.6665e-05 -1.1933e-05 1.1548e-05)
(5.6516e-05 -1.27e-05 1.0729e-05)
(5.5855e-05 -1.4671e-05 1.2362e-05)
(7.8679e-05 -2.0264e-05 1.1342e-05)
(7.0855e-05 -1.5779e-05 1.223e-05)
(7.066e-05 -1.6086e-05 1.0499e-05)
(6.9324e-05 -1.9015e-05 1.2415e-05)
(0.00010128 -2.6658e-05 1.205e-05)
(9.0398e-05 -2.1584e-05 1.3251e-05)
(9.0171e-05 -2.1296e-05 9.9722e-06)
(8.8525e-05 -2.5474e-05 1.2149e-05)
(0.00013003 -3.2784e-05 1.2398e-05)
(0.00011627 -2.7268e-05 1.4089e-05)
(0.00011601 -2.6328e-05 9.2167e-06)
(0.00011456 -3.1676e-05 1.1426e-05)
(0.0001634 -4.0285e-05 1.2805e-05)
(0.00014738 -3.2682e-05 1.4557e-05)
(0.00014714 -3.1525e-05 8.3677e-06)
(0.00014526 -3.7277e-05 1.0777e-05)
(0.00020449 -5.3149e-05 1.4592e-05)
(0.00018469 -4.103e-05 1.5923e-05)
(0.00018471 -3.9727e-05 7.8962e-06)
(0.00018079 -4.6251e-05 1.1173e-05)
(0.00026332 -7.4061e-05 1.8324e-05)
(0.00023518 -5.6082e-05 1.9816e-05)
(0.00023558 -5.3878e-05 7.8847e-06)
(0.00022866 -6.3548e-05 1.2869e-05)
(0.00035064 -0.00010053 2.2679e-05)
(0.0003083 -7.8571e-05 2.6062e-05)
(0.00030894 -7.4996e-05 8.5096e-06)
(0.00030017 -9.0162e-05 1.5225e-05)
(0.00046757 -0.00012864 2.6772e-05)
(0.00041054 -0.00010352 3.2304e-05)
(0.00041133 -9.9219e-05 9.3281e-06)
(0.00040214 -0.00011931 1.727e-05)
(0.00060966 -0.00016394 3.279e-05)
(0.00054125 -0.00012967 3.8708e-05)
(0.00054252 -0.00012508 1.0634e-05)
(0.00053058 -0.00014764 2.0462e-05)
(0.00078587 -0.00022742 4.6266e-05)
(0.00070261 -0.00016893 4.9382e-05)
(0.00070532 -0.00016334 1.3563e-05)
(0.00068267 -0.00018896 2.8327e-05)
(0.0010444 -0.0003437 7.2544e-05)
(0.00092335 -0.00024637 7.3285e-05)
(0.00092853 -0.00023699 2.0161e-05)
(0.00088619 -0.00027593 4.4164e-05)
(0.0014617 -0.00051665 0.00011013)
(0.0012641 -0.0003794 0.00011569)
(0.0012717 -0.00036273 3.1559e-05)
(0.001209 -0.00043208 6.7573e-05)
(0.0020923 -0.00072936 0.00015172)
(0.0017896 -0.00055762 0.00017027)
(0.001799 -0.0005332 4.6686e-05)
(0.0017231 -0.0006419 9.4076e-05)
(0.0029475 -0.00098631 0.0001997)
(0.002536 -0.00076397 0.00022862)
(0.0025476 -0.00073509 6.388e-05)
(0.0024565 -0.00087768 0.00012292)
(0.0040592 -0.0013592 0.00027686)
(0.0035297 -0.001027 0.00030286)
(0.003547 -0.00099231 8.6628e-05)
(0.0034124 -0.0011672 0.00016778)
(0.0056009 -0.0019682 0.00041224)
(0.004874 -0.0014466 0.00042999)
(0.0049024 -0.0013944 0.00012411)
(0.0046794 -0.0016354 0.00024918)
(0.0079225 -0.0028906 0.00061312)
(0.0068236 -0.0021329 0.00064483)
(0.0068658 -0.0020457 0.00018526)
(0.0065292 -0.0024294 0.00037486)
(0.011421 -0.0040733 0.00085072)
(0.0097429 -0.0031083 0.00094496)
(0.009796 -0.0029767 0.00026972)
(0.0093707 -0.0035847 0.00052581)
(0.016298 -0.0053829 0.0010875)
(0.01393 -0.0042574 0.0012817)
(0.013988 -0.0040902 0.00036637)
(0.013526 -0.0049469 0.00067762)
(0.022513 -0.0068277 0.0013373)
(0.019478 -0.0054711 0.0016156)
(0.019545 -0.0052858 0.00046743)
(0.019038 -0.0063498 0.00083797)
(0.030155 -0.0087265 0.0016872)
(0.026436 -0.0068861 0.0020033)
(0.026524 -0.0066792 0.00058663)
(0.025853 -0.0079364 0.0010507)
(0.03994 -0.011543 0.0022328)
(0.035212 -0.0089263 0.0025874)
(0.035342 -0.0086587 0.00075828)
(0.03434 -0.010253 0.0013733)
(0.053185 -0.015503 0.0029621)
(0.046787 -0.01197 0.0034732)
(0.046962 -0.011588 0.0010101)
(0.04557 -0.013814 0.0018031)
(0.071339 -0.020241 0.0036868)
(0.062479 -0.016019 0.0045918)
(0.062682 -0.015517 0.0013284)
(0.06107 -0.018712 0.0022356)
(0.095026 -0.024732 0.0041059)
(0.083294 -0.020406 0.0056495)
(0.083492 -0.019887 0.0016434)
(0.082062 -0.024208 0.0025178)
(0.12335 -0.027699 0.0039929)
(0.10912 -0.023976 0.006254)
(0.10929 -0.023641 0.0018568)
(0.10849 -0.028911 0.0025362)
(0.15405 -0.028123 0.0033575)
(0.13845 -0.02563 0.0061643)
(0.1386 -0.025681 0.0019017)
(0.13872 -0.031441 0.0022804)
(0.18413 -0.025409 0.0024373)
(0.1687 -0.024664 0.0054015)
(0.16885 -0.025166 0.0017605)
(0.16996 -0.030827 0.0018417)
(0.21003 -0.019387 0.0015117)
(0.19663 -0.02073 0.0041593)
(0.19674 -0.021497 0.0014349)
(0.19879 -0.026391 0.0013434)
(0.22796 -0.011431 0.00078868)
(0.21883 -0.013886 0.0026233)
(0.2188 -0.014566 0.00093711)
(0.22168 -0.018014 0.00084275)
(0.23205 -0.0065081 0.0012347)
(0.23177 -0.0068773 0.00044422)
(0.23514 -0.0086868 0.00052463)
(2.3667e-07 -5.4982e-07 5.5619e-07)
(3.854e-07 -2.5412e-07 2.6379e-07)
(3.6787e-07 -2.5992e-07 2.7811e-07)
(5.0241e-07 -2.3377e-07 2.5048e-07)
(-2.1467e-08 -1.1747e-06 1.1795e-06)
(2.0698e-07 -8.4611e-07 8.4431e-07)
(1.9927e-07 -8.6969e-07 8.6353e-07)
(2.9412e-07 -7.9197e-07 7.826e-07)
(-9.418e-08 -1.896e-06 1.8898e-06)
(3.702e-08 -1.4936e-06 1.5134e-06)
(4.9719e-08 -1.4974e-06 1.5014e-06)
(9.4331e-08 -1.4868e-06 1.4618e-06)
(1.7588e-07 -2.696e-06 2.7065e-06)
(6.6629e-08 -2.2598e-06 2.2858e-06)
(1.1036e-07 -2.2584e-06 2.2203e-06)
(1.0518e-07 -2.3124e-06 2.2249e-06)
(1.1468e-06 -3.4144e-06 3.5769e-06)
(6.5838e-07 -3.0227e-06 3.2225e-06)
(7.1249e-07 -2.999e-06 3.0226e-06)
(7.2167e-07 -3.1734e-06 3.1295e-06)
(2.7305e-06 -3.8364e-06 4.3785e-06)
(1.8011e-06 -3.6047e-06 4.12e-06)
(1.8467e-06 -3.593e-06 3.8355e-06)
(1.9713e-06 -3.8627e-06 4.0155e-06)
(4.632e-06 -4.0311e-06 5.1807e-06)
(3.4807e-06 -3.8151e-06 4.9197e-06)
(3.529e-06 -3.8519e-06 4.6133e-06)
(3.7247e-06 -4.1588e-06 4.8496e-06)
(6.8464e-06 -4.0283e-06 5.9957e-06)
(5.5885e-06 -3.9708e-06 5.838e-06)
(5.6435e-06 -4.0181e-06 5.448e-06)
(5.8952e-06 -4.3082e-06 5.7303e-06)
(9.1753e-06 -3.814e-06 6.7741e-06)
(7.8289e-06 -3.7994e-06 6.6564e-06)
(7.8907e-06 -3.9008e-06 6.2728e-06)
(8.2155e-06 -4.1614e-06 6.575e-06)
(1.1626e-05 -3.7092e-06 7.6176e-06)
(1.0298e-05 -3.5424e-06 7.5193e-06)
(1.0384e-05 -3.7376e-06 7.1316e-06)
(1.0653e-05 -3.9231e-06 7.411e-06)
(1.4525e-05 -3.8678e-06 8.5142e-06)
(1.3023e-05 -3.5598e-06 8.5083e-06)
(1.313e-05 -3.8415e-06 8.1028e-06)
(1.3298e-05 -3.9989e-06 8.423e-06)
(1.8411e-05 -4.4388e-06 9.4789e-06)
(1.6359e-05 -3.7851e-06 9.5247e-06)
(1.6493e-05 -4.2063e-06 9.0935e-06)
(1.6511e-05 -4.476e-06 9.5805e-06)
(2.4047e-05 -5.4589e-06 1.052e-05)
(2.0954e-05 -4.4841e-06 1.0733e-05)
(2.1101e-05 -4.9355e-06 1.0098e-05)
(2.0958e-05 -5.4387e-06 1.0736e-05)
(3.1225e-05 -6.7295e-06 1.1393e-05)
(2.7174e-05 -5.578e-06 1.191e-05)
(2.7273e-05 -6.0516e-06 1.1114e-05)
(2.7103e-05 -6.818e-06 1.198e-05)
(4.0077e-05 -8.1831e-06 1.2032e-05)
(3.5446e-05 -6.8758e-06 1.2747e-05)
(3.5479e-05 -7.4868e-06 1.1922e-05)
(3.5324e-05 -8.5171e-06 1.3123e-05)
(5.0791e-05 -9.9668e-06 1.2589e-05)
(4.5539e-05 -8.1955e-06 1.3485e-05)
(4.5519e-05 -8.8081e-06 1.2324e-05)
(4.5292e-05 -1.0063e-05 1.3637e-05)
(6.3462e-05 -1.2671e-05 1.3267e-05)
(5.7292e-05 -1.0009e-05 1.414e-05)
(5.7258e-05 -1.0532e-05 1.2603e-05)
(5.6721e-05 -1.2099e-05 1.4123e-05)
(8.0001e-05 -1.692e-05 1.4317e-05)
(7.1834e-05 -1.2971e-05 1.5151e-05)
(7.1855e-05 -1.34e-05 1.2954e-05)
(7.0746e-05 -1.5728e-05 1.4819e-05)
(0.00010276 -2.2006e-05 1.5479e-05)
(9.1594e-05 -1.7472e-05 1.6777e-05)
(9.1638e-05 -1.7609e-05 1.3321e-05)
(9.025e-05 -2.1129e-05 1.5816e-05)
(0.00013154 -2.7028e-05 1.6387e-05)
(0.00011752 -2.2019e-05 1.8125e-05)
(0.00011754 -2.1824e-05 1.3492e-05)
(0.00011624 -2.6575e-05 1.6726e-05)
(0.00016551 -3.3353e-05 1.7749e-05)
(0.00014889 -2.6582e-05 1.9195e-05)
(0.00014903 -2.6362e-05 1.3678e-05)
(0.00014721 -3.1934e-05 1.775e-05)
(0.00020827 -4.3986e-05 2.1124e-05)
(0.00018689 -3.352e-05 2.1688e-05)
(0.00018755 -3.3349e-05 1.4734e-05)
(0.00018383 -4.0227e-05 2.0235e-05)
(0.00026822 -6.0792e-05 2.7353e-05)
(0.00023837 -4.5805e-05 2.7524e-05)
(0.00023977 -4.5256e-05 1.7541e-05)
(0.00023334 -5.5204e-05 2.5574e-05)
(0.00035627 -8.1922e-05 3.5324e-05)
(0.00031226 -6.3585e-05 3.6827e-05)
(0.00031421 -6.2297e-05 2.217e-05)
(0.00030596 -7.759e-05 3.3951e-05)
(0.00047348 -0.00010488 4.3915e-05)
(0.00041487 -8.3302e-05 4.7277e-05)
(0.00041717 -8.1789e-05 2.7546e-05)
(0.00040819 -0.00010171 4.2759e-05)
(0.00061828 -0.00013455 5.5407e-05)
(0.00054672 -0.00010446 5.8626e-05)
(0.00054997 -0.00010325 3.3812e-05)
(0.00053808 -0.00012629 5.2517e-05)
(0.00080201 -0.00018715 7.7129e-05)
(0.00071189 -0.00013649 7.6021e-05)
(0.00071792 -0.00013577 4.4022e-05)
(0.00069607 -0.00016304 6.7926e-05)
(0.0010715 -0.00028119 0.0001173)
(0.00093951 -0.00019865 0.00011138)
(0.00095036 -0.00019712 6.4424e-05)
(0.00091055 -0.00023778 9.9636e-05)
(0.0014985 -0.00042 0.00017618)
(0.001288 -0.00030424 0.00017234)
(0.001304 -0.00029972 9.8961e-05)
(0.0012451 -0.00036885 0.00015428)
(0.0021362 -0.00059243 0.00024696)
(0.0018201 -0.00044562 0.00025259)
(0.0018398 -0.00043799 0.00014462)
(0.0017674 -0.00054498 0.00022599)
(0.003004 -0.00080429 0.00033212)
(0.0025739 -0.00061115 0.00034383)
(0.0025986 -0.00060336 0.00019801)
(0.00251 -0.00074639 0.0003078)
(0.0041472 -0.001112 0.00045842)
(0.003584 -0.00082408 0.00046057)
(0.0036202 -0.00081796 0.00026766)
(0.0034905 -0.00099871 0.00041248)
(0.0057427 -0.0016072 0.00066668)
(0.0049599 -0.0011617 0.00064968)
(0.0050179 -0.0011531 0.00037885)
(0.0048073 -0.0014032 0.00058213)
(0.008124 -0.0023483 0.0009788)
(0.0069519 -0.001708 0.00095971)
(0.0070375 -0.0016878 0.00055763)
(0.0067222 -0.0020755 0.00086062)
(0.011662 -0.0032966 0.0013715)
(0.0099088 -0.0024798 0.001397)
(0.010017 -0.002441 0.0008071)
(0.0096163 -0.0030412 0.0012528)
(0.016558 -0.0043565 0.0017987)
(0.014118 -0.0033913 0.0019063)
(0.01424 -0.0033381 0.0010996)
(0.013796 -0.0041805 0.0017102)
(0.022816 -0.005542 0.0022686)
(0.01969 -0.0043632 0.0024378)
(0.019829 -0.0043114 0.0014122)
(0.019335 -0.0053706 0.0021889)
(0.030583 -0.0070971 0.0028914)
(0.026711 -0.005504 0.0030597)
(0.026894 -0.0054609 0.0017822)
(0.026245 -0.0067373 0.0027468)
(0.040573 -0.0093697 0.0038104)
(0.035609 -0.0071359 0.0039596)
(0.035874 -0.007086 0.0023087)
(0.034924 -0.0087119 0.0035489)
(0.054031 -0.012522 0.0050637)
(0.04734 -0.0095419 0.0052897)
(0.047698 -0.009455 0.0030718)
(0.046391 -0.011694 0.004727)
(0.07227 -0.01626 0.0064717)
(0.06315 -0.012706 0.0070034)
(0.063566 -0.012574 0.0040487)
(0.062049 -0.015716 0.0062432)
(0.095802 -0.019785 0.0076567)
(0.083952 -0.016105 0.008753)
(0.084348 -0.015981 0.0050644)
(0.082977 -0.020144 0.0078094)
(0.12372 -0.022101 0.0082281)
(0.10958 -0.018846 0.010013)
(0.10988 -0.018849 0.00585)
(0.10907 -0.023842 0.008992)
(0.15384 -0.022405 0.0079732)
(0.13854 -0.020079 0.010367)
(0.13872 -0.020337 0.0061719)
(0.13873 -0.025714 0.0094418)
(0.18324 -0.020221 0.0068844)
(0.1683 -0.019266 0.0096525)
(0.16834 -0.019805 0.0058879)
(0.1693 -0.025019 0.0089869)
(0.20848 -0.015418 0.0050666)
(0.19569 -0.016152 0.0078871)
(0.19556 -0.016824 0.0049174)
(0.19744 -0.021286 0.0075401)
(0.22588 -0.0090781 0.00293)
(0.21741 -0.010795 0.0051809)
(0.217 -0.011335 0.0032667)
(0.21974 -0.014453 0.0050901)
(0.23033 -0.0050444 0.0024233)
(0.22956 -0.0053174 0.0015435)
(0.23286 -0.0069252 0.0024972)
(2.4728e-07 -5.4779e-07 5.5452e-07)
(3.8971e-07 -2.5748e-07 2.5832e-07)
(3.7338e-07 -2.7033e-07 2.7407e-07)
(5.0834e-07 -2.4114e-07 2.4315e-07)
(9.273e-09 -1.1605e-06 1.1828e-06)
(2.0823e-07 -8.3423e-07 8.5184e-07)
(2.0497e-07 -8.8027e-07 8.81e-07)
(3.0122e-07 -8.0067e-07 7.9838e-07)
(-8.0761e-08 -1.8497e-06 1.9172e-06)
(2.9582e-08 -1.4756e-06 1.5256e-06)
(5.1678e-08 -1.4963e-06 1.5206e-06)
(9.7767e-08 -1.4582e-06 1.4744e-06)
(1.8863e-07 -2.5857e-06 2.8026e-06)
(2.805e-08 -2.1857e-06 2.3582e-06)
(9.108e-08 -2.2049e-06 2.2955e-06)
(8.3498e-08 -2.2198e-06 2.2958e-06)
(1.1124e-06 -3.2251e-06 3.7533e-06)
(5.7133e-07 -2.8964e-06 3.3675e-06)
(6.4927e-07 -2.8718e-06 3.1895e-06)
(6.5709e-07 -3.02e-06 3.3242e-06)
(2.5969e-06 -3.6014e-06 4.6432e-06)
(1.6534e-06 -3.4101e-06 4.3385e-06)
(1.7211e-06 -3.3771e-06 4.0769e-06)
(1.8317e-06 -3.6324e-06 4.2992e-06)
(4.402e-06 -3.7769e-06 5.555e-06)
(3.2663e-06 -3.617e-06 5.2366e-06)
(3.3376e-06 -3.5883e-06 4.9123e-06)
(3.5047e-06 -3.87e-06 5.1986e-06)
(6.5636e-06 -3.7661e-06 6.4745e-06)
(5.3159e-06 -3.7397e-06 6.2594e-06)
(5.3914e-06 -3.6838e-06 5.8263e-06)
(5.6126e-06 -3.9939e-06 6.1606e-06)
(8.8573e-06 -3.5665e-06 7.363e-06)
(7.509e-06 -3.5737e-06 7.1615e-06)
(7.587e-06 -3.5423e-06 6.7029e-06)
(7.8727e-06 -3.8434e-06 7.0472e-06)
(1.1314e-05 -3.4356e-06 8.3676e-06)
(9.964e-06 -3.3425e-06 8.1045e-06)
(1.0079e-05 -3.3511e-06 7.6404e-06)
(1.0305e-05 -3.6601e-06 8.0206e-06)
(1.4307e-05 -3.5176e-06 9.4783e-06)
(1.2721e-05 -3.2815e-06 9.2776e-06)
(1.2874e-05 -3.3319e-06 8.7112e-06)
(1.2999e-05 -3.6532e-06 9.1376e-06)
(1.8248e-05 -3.8823e-06 1.0727e-05)
(1.61e-05 -3.4004e-06 1.0515e-05)
(1.63e-05 -3.5026e-06 9.8197e-06)
(1.6294e-05 -3.9282e-06 1.0384e-05)
(2.3733e-05 -4.6313e-06 1.2095e-05)
(2.0774e-05 -3.7969e-06 1.2073e-05)
(2.1007e-05 -3.9456e-06 1.11e-05)
(2.0845e-05 -4.5196e-06 1.179e-05)
(3.1091e-05 -5.6891e-06 1.3299e-05)
(2.7137e-05 -4.6066e-06 1.3605e-05)
(2.7326e-05 -4.7922e-06 1.2347e-05)
(2.7118e-05 -5.6034e-06 1.3285e-05)
(4.0251e-05 -6.8523e-06 1.4236e-05)
(3.552e-05 -5.6056e-06 1.484e-05)
(3.5633e-05 -5.8782e-06 1.3331e-05)
(3.5473e-05 -6.8517e-06 1.449e-05)
(5.1123e-05 -8.229e-06 1.5045e-05)
(4.5716e-05 -6.6519e-06 1.5771e-05)
(4.5778e-05 -6.9814e-06 1.4108e-05)
(4.5595e-05 -8.2647e-06 1.5518e-05)
(6.4075e-05 -1.0285e-05 1.6048e-05)
(5.7614e-05 -8.0254e-06 1.6712e-05)
(5.7723e-05 -8.3786e-06 1.4753e-05)
(5.7281e-05 -9.9709e-06 1.6377e-05)
(8.0824e-05 -1.3514e-05 1.7621e-05)
(7.2337e-05 -1.0218e-05 1.8239e-05)
(7.2585e-05 -1.0593e-05 1.5644e-05)
(7.1625e-05 -1.2764e-05 1.7682e-05)
(0.00010373 -1.75e-05 1.9409e-05)
(9.2259e-05 -1.3686e-05 2.058e-05)
(9.2554e-05 -1.3911e-05 1.6954e-05)
(9.1306e-05 -1.7166e-05 1.9853e-05)
(0.0001326 -2.1566e-05 2.0941e-05)
(0.00011829 -1.7272e-05 2.2586e-05)
(0.00011855 -1.7378e-05 1.8082e-05)
(0.00011735 -2.1719e-05 2.1854e-05)
(0.00016687 -2.6688e-05 2.3194e-05)
(0.00014975 -2.0899e-05 2.437e-05)
(0.00015025 -2.1117e-05 1.9185e-05)
(0.00014852 -2.6284e-05 2.3719e-05)
(0.00021021 -3.5229e-05 2.8198e-05)
(0.00018796 -2.6349e-05 2.8144e-05)
(0.00018923 -2.6626e-05 2.1605e-05)
(0.00018565 -3.3135e-05 2.7475e-05)
(0.00027078 -4.8521e-05 3.7075e-05)
(0.0002397 -3.6054e-05 3.6287e-05)
(0.00024205 -3.619e-05 2.7068e-05)
(0.00023588 -4.5496e-05 3.5591e-05)
(0.00035903 -6.5025e-05 4.8721e-05)
(0.00031372 -4.9884e-05 4.8966e-05)
(0.00031691 -4.9446e-05 3.5495e-05)
(0.00030895 -6.3662e-05 4.8382e-05)
(0.00047643 -8.3047e-05 6.1831e-05)
(0.00041634 -6.507e-05 6.3602e-05)
(0.00042013 -6.4588e-05 4.5591e-05)
(0.00041127 -8.3389e-05 6.2671e-05)
(0.00062269 -0.00010647 7.9176e-05)
(0.00054855 -8.1314e-05 7.9784e-05)
(0.00055378 -8.1408e-05 5.7219e-05)
(0.00054201 -0.00010396 7.8112e-05)
(0.0008101 -0.0001479 0.00011037)
(0.00071496 -0.00010578 0.00010445)
(0.0007243 -0.00010702 7.5293e-05)
(0.00070297 -0.00013439 0.00010123)
(0.0010849 -0.00022169 0.00016642)
(0.00094483 -0.00015375 0.0001527)
(0.00096123 -0.00015521 0.00010989)
(0.00092273 -0.00019562 0.00014814)
(0.0015168 -0.00033011 0.00024847)
(0.001296 -0.00023541 0.00023455)
(0.0013199 -0.0002353 0.00016755)
(0.0012633 -0.00030189 0.00022907)
(0.0021584 -0.00046466 0.00034913)
(0.0018302 -0.00034412 0.00034331)
(0.0018603 -0.00034268 0.00024422)
(0.0017902 -0.00044377 0.00033591)
(0.0030329 -0.00063072 0.00047249)
(0.0025867 -0.00047069 0.00046974)
(0.0026246 -0.00047127 0.00033523)
(0.0025382 -0.00060695 0.00045807)
(0.0041919 -0.00087256 0.00065304)
(0.0036023 -0.00063371 0.00063258)
(0.0036575 -0.00063942 0.0004543)
(0.0035313 -0.00081348 0.0006136)
(0.0058138 -0.0012605 0.0009446)
(0.0049888 -0.00089331 0.00089194)
(0.0050761 -0.00090237 0.00064173)
(0.0048727 -0.0011436 0.00086372)
(0.0082241 -0.001838 0.0013791)
(0.0069947 -0.0013135 0.0013117)
(0.0071231 -0.0013196 0.00093989)
(0.0068203 -0.0016867 0.0012741)
(0.011782 -0.0025747 0.0019312)
(0.0099639 -0.0019058 0.0019034)
(0.010128 -0.0019032 0.0013561)
(0.0097421 -0.0024615 0.0018557)
(0.016688 -0.0033989 0.0025442)
(0.014181 -0.0026031 0.0025997)
(0.014366 -0.0025963 0.001848)
(0.013937 -0.003375 0.002538)
(0.022969 -0.0043243 0.0032293)
(0.019762 -0.0033437 0.0033397)
(0.019973 -0.00335 0.0023803)
(0.019493 -0.0043354 0.0032535)
(0.030798 -0.005539 0.0041309)
(0.026803 -0.0042141 0.0042098)
(0.027081 -0.0042454 0.0030132)
(0.026451 -0.0054489 0.0040872)
(0.040889 -0.0073029 0.0054423)
(0.035742 -0.0054603 0.0054559)
(0.036141 -0.0055087 0.003908)
(0.035227 -0.0070487 0.0052859)
(0.054452 -0.0097226 0.0072295)
(0.047525 -0.0072899 0.0072855)
(0.048064 -0.007335 0.0051988)
(0.046819 -0.0094319 0.0070572)
(0.072735 -0.01255 0.0092808)
(0.063374 -0.0096682 0.0096633)
(0.064006 -0.0097075 0.0068595)
(0.062572 -0.012592 0.0093655)
(0.096196 -0.015162 0.011109)
(0.084172 -0.01217 0.012164)
(0.084777 -0.012254 0.0086111)
(0.083491 -0.016001 0.01179)
(0.12392 -0.016809 0.012164)
(0.10974 -0.014108 0.014102)
(0.11018 -0.014347 0.010006)
(0.10943 -0.018767 0.013669)
(0.15374 -0.016914 0.012073)
(0.13857 -0.014872 0.014866)
(0.13878 -0.015369 0.010633)
(0.13881 -0.020074 0.014447)
(0.18279 -0.015163 0.010686)
(0.16817 -0.014121 0.014115)
(0.16809 -0.014871 0.010213)
(0.16899 -0.019402 0.013824)
(0.20769 -0.011495 0.0080214)
(0.19538 -0.011735 0.01173)
(0.19496 -0.012563 0.0085772)
(0.19673 -0.016432 0.011629)
(0.22482 -0.0067351 0.0046769)
(0.21694 -0.0077917 0.0077889)
(0.21609 -0.0084228 0.0057242)
(0.21867 -0.011118 0.0078393)
(0.22975 -0.0036338 0.0036328)
(0.22845 -0.0039409 0.0026839)
(0.23156 -0.0053189 0.0037724)
(2.4287e-07 -5.5666e-07 5.4291e-07)
(3.8775e-07 -2.7343e-07 2.3736e-07)
(3.7326e-07 -2.8733e-07 2.6938e-07)
(5.0986e-07 -2.7238e-07 2.499e-07)
(-9.9017e-10 -1.165e-06 1.179e-06)
(1.9338e-07 -8.5881e-07 8.1586e-07)
(1.9895e-07 -9.1065e-07 8.9094e-07)
(2.9486e-07 -8.731e-07 8.4274e-07)
(-1.1356e-07 -1.8275e-06 1.9507e-06)
(-9.6481e-09 -1.494e-06 1.5127e-06)
(2.8955e-08 -1.5225e-06 1.5418e-06)
(7.2531e-08 -1.5035e-06 1.5247e-06)
(1.2107e-07 -2.5168e-06 2.9026e-06)
(-5.7244e-08 -2.1693e-06 2.4093e-06)
(2.8647e-08 -2.1798e-06 2.3661e-06)
(1.5653e-08 -2.2072e-06 2.412e-06)
(9.892e-07 -3.1033e-06 3.9307e-06)
(4.3225e-07 -2.8371e-06 3.4921e-06)
(5.3613e-07 -2.7814e-06 3.3298e-06)
(5.371e-07 -2.9372e-06 3.5111e-06)
(2.393e-06 -3.4548e-06 4.9028e-06)
(1.4606e-06 -3.3057e-06 4.5596e-06)
(1.5512e-06 -3.2149e-06 4.2908e-06)
(1.6448e-06 -3.4515e-06 4.5709e-06)
(4.1316e-06 -3.6262e-06 5.8948e-06)
(3.0134e-06 -3.5312e-06 5.5217e-06)
(3.1027e-06 -3.4021e-06 5.1842e-06)
(3.2471e-06 -3.6989e-06 5.5598e-06)
(6.243e-06 -3.598e-06 6.8958e-06)
(5.0006e-06 -3.6322e-06 6.6083e-06)
(5.0992e-06 -3.4547e-06 6.1769e-06)
(5.3012e-06 -3.8291e-06 6.6129e-06)
(8.5059e-06 -3.3839e-06 7.8689e-06)
(7.1463e-06 -3.4411e-06 7.5864e-06)
(7.2533e-06 -3.2725e-06 7.1066e-06)
(7.5179e-06 -3.6458e-06 7.5335e-06)
(1.0954e-05 -3.2116e-06 8.9914e-06)
(9.5691e-06 -3.1665e-06 8.6224e-06)