/*--------------------------------*- C++ -*----------------------------------*\
| =========                 |                                                 |
| \\      /  F ield         | OpenFOAM: The Open Source CFD Toolbox           |
|  \\    /   O peration     | Version:  4.1                                   |
|   \\  /    A nd           | Web:      www.OpenFOAM.org                      |
|    \\/     M anipulation  |                                                 |
\*---------------------------------------------------------------------------*/
FoamFile
{
    version     2.0;
    format      ascii;
    class       pointVectorField;
    location    "0.0096";
    object      pointDisplacement_Next;
}
// * * * * * * * * * * * * * * * * * * * * * * * * * * * * * * * * * * * * * //

dimensions      [0 1 0 0 0 0 0];

internalField   uniform (0 0 0);

boundaryField
{
    inlet
    {
        type            fixedValue;
        value           uniform (0 0 0);
    }
    outlet
    {
        type            fixedValue;
        value           uniform (0 0 0);
    }
    mantle
    {
        type            fixedValue;
        value           nonuniform List<vector> 
1568
(
(3.4132e-12 -1.5762e-12 -6.3831e-18)
(8.568e-06 -3.7748e-06 -2.0796e-11)
(8.4446e-06 -3.4229e-06 5.1553e-07)
(1.3814e-08 -3.5043e-08 -2.8083e-08)
(8.3222e-06 -2.9212e-06 1.2092e-06)
(4.0837e-12 -3.6157e-12 1.3754e-12)
(8.4421e-06 -2.7888e-06 2.0571e-06)
(1.3707e-08 -5.1847e-09 4.4607e-08)
(8.5646e-06 -2.673e-06 2.6729e-06)
(2.3901e-12 1.3624e-12 -1.3624e-12)
(8.4421e-06 -2.0573e-06 2.7886e-06)
(1.3706e-08 -4.4608e-08 5.1844e-09)
(8.3222e-06 -1.2094e-06 2.921e-06)
(4.0838e-12 -1.3755e-12 3.6155e-12)
(8.4447e-06 -5.1565e-07 3.4228e-06)
(1.3815e-08 2.8084e-08 3.5044e-08)
(8.5682e-06 -9.3363e-11 3.7746e-06)
(3.4133e-12 -3.5001e-17 1.5761e-12)
(1.5091e-05 -4.1661e-06 -5.6221e-11)
(1.481e-05 -3.4947e-06 4.4867e-07)
(1.4593e-05 -2.7893e-06 1.1535e-06)
(1.4806e-05 -2.7983e-06 2.1575e-06)
(1.5084e-05 -2.9562e-06 2.9559e-06)
(1.4806e-05 -2.1578e-06 2.798e-06)
(1.4593e-05 -1.1538e-06 2.7889e-06)
(1.4811e-05 -4.4893e-07 3.4944e-06)
(1.5091e-05 -1.9246e-10 4.1657e-06)
(1.8397e-05 6.0219e-07 -1.0809e-10)
(1.8271e-05 7.8353e-07 -2.8593e-07)
(1.815e-05 9.5861e-07 -4.001e-07)
(1.8265e-05 7.3808e-07 -3.4417e-07)
(1.8389e-05 4.0594e-07 -4.0635e-07)
(1.8265e-05 3.4374e-07 -7.3845e-07)
(1.815e-05 3.9968e-07 -9.5897e-07)
(1.8271e-05 2.8553e-07 -7.8392e-07)
(1.8397e-05 -2.8729e-10 -6.0267e-07)
(2.029e-05 6.1204e-06 -1.6107e-10)
(2.0322e-05 5.807e-06 -1.1545e-06)
(2.0296e-05 5.4119e-06 -2.2446e-06)
(2.0316e-05 4.8956e-06 -3.2753e-06)
(2.0282e-05 4.2963e-06 -4.2967e-06)
(2.0316e-05 3.2748e-06 -4.8959e-06)
(2.0296e-05 2.244e-06 -5.4122e-06)
(2.0321e-05 1.1539e-06 -5.8072e-06)
(2.029e-05 -3.7029e-10 -6.1207e-06)
(2.2896e-05 7.9855e-06 -2.0211e-10)
(2.288e-05 7.8241e-06 -1.5795e-06)
(2.2854e-05 7.3766e-06 -3.0548e-06)
(2.2876e-05 6.6152e-06 -4.3919e-06)
(2.289e-05 5.6042e-06 -5.6047e-06)
(2.2875e-05 4.3912e-06 -6.6154e-06)
(2.2853e-05 3.054e-06 -7.3765e-06)
(2.288e-05 1.5788e-06 -7.8239e-06)
(2.2896e-05 -4.43e-10 -7.9853e-06)
(2.6194e-05 7.3721e-06 -2.2401e-10)
(2.6115e-05 7.4553e-06 -1.5736e-06)
(2.605e-05 7.189e-06 -2.9763e-06)
(2.6113e-05 6.3425e-06 -4.1285e-06)
(2.6191e-05 5.1601e-06 -5.1606e-06)
(2.6113e-05 4.1277e-06 -6.3425e-06)
(2.605e-05 2.9754e-06 -7.1885e-06)
(2.6115e-05 1.5727e-06 -7.4546e-06)
(2.6194e-05 -4.9057e-10 -7.3714e-06)
(2.9429e-05 6.7986e-06 -2.3453e-10)
(2.9389e-05 6.8004e-06 -1.4401e-06)
(2.9352e-05 6.5353e-06 -2.7099e-06)
(2.9391e-05 5.7786e-06 -3.7611e-06)
(2.9431e-05 4.7491e-06 -4.7495e-06)
(2.9391e-05 3.7601e-06 -5.7784e-06)
(2.9352e-05 2.7088e-06 -6.5344e-06)
(2.9389e-05 1.4391e-06 -6.7991e-06)
(2.9429e-05 -5.0953e-10 -6.7973e-06)
(3.2463e-05 6.4199e-06 -2.3426e-10)
(3.2462e-05 6.3249e-06 -1.3012e-06)
(3.2462e-05 5.9993e-06 -2.4932e-06)
(3.2471e-05 5.3483e-06 -3.5322e-06)
(3.2475e-05 4.4878e-06 -4.4883e-06)
(3.2471e-05 3.5312e-06 -5.3479e-06)
(3.2462e-05 2.4919e-06 -5.9981e-06)
(3.2462e-05 1.3002e-06 -6.3233e-06)
(3.2463e-05 -5.0445e-10 -6.4183e-06)
(3.5378e-05 5.7678e-06 2.4032e-10)
(3.5379e-05 5.6561e-06 -1.1412e-06)
(3.5388e-05 5.3319e-06 -2.213e-06)
(3.5397e-05 4.7887e-06 -3.1864e-06)
(3.5403e-05 4.0584e-06 -4.0595e-06)
(3.5397e-05 3.1854e-06 -4.7882e-06)
(3.5388e-05 2.2118e-06 -5.3306e-06)
(3.5379e-05 1.1402e-06 -5.6543e-06)
(3.5378e-05 -9.4653e-10 -5.7661e-06)
(3.8151e-05 4.7302e-06 -1.7759e-10)
(3.815e-05 4.6329e-06 -9.1152e-07)
(3.8149e-05 4.3635e-06 -1.8058e-06)
(3.8178e-05 3.9453e-06 -2.642e-06)
(3.8187e-05 3.3693e-06 -3.3696e-06)
(3.8178e-05 2.6411e-06 -3.9447e-06)
(3.8149e-05 1.8047e-06 -4.3621e-06)
(3.815e-05 9.1059e-07 -4.631e-06)
(3.8151e-05 -4.406e-10 -4.7284e-06)
(4.0787e-05 3.3902e-06 3.2251e-11)
(4.0785e-05 3.3233e-06 -6.4376e-07)
(4.0793e-05 3.1462e-06 -1.2922e-06)
(4.0811e-05 2.8716e-06 -1.9241e-06)
(4.0824e-05 2.4705e-06 -2.4705e-06)
(4.0811e-05 1.9233e-06 -2.8709e-06)
(4.0793e-05 1.2912e-06 -3.1448e-06)
(4.0785e-05 6.4298e-07 -3.3215e-06)
(4.0787e-05 -5.0233e-10 -3.3885e-06)
(4.3394e-05 1.906e-06 -1.1909e-11)
(4.3399e-05 1.877e-06 -3.5665e-07)
(4.3412e-05 1.8058e-06 -7.3539e-07)
(4.3422e-05 1.6852e-06 -1.1314e-06)
(4.3426e-05 1.4709e-06 -1.471e-06)
(4.3422e-05 1.1308e-06 -1.6845e-06)
(4.3413e-05 7.3463e-07 -1.8044e-06)
(4.3399e-05 3.5607e-07 -1.8752e-06)
(4.3394e-05 -2.5951e-10 -1.9043e-06)
(4.605e-05 5.9647e-07 5.6002e-11)
(4.6045e-05 6.2183e-07 -1.2481e-07)
(4.6049e-05 6.5983e-07 -2.741e-07)
(4.6062e-05 6.5951e-07 -4.4336e-07)
(4.6075e-05 5.8489e-07 -5.8474e-07)
(4.6062e-05 4.43e-07 -6.5875e-07)
(4.6049e-05 2.736e-07 -6.5845e-07)
(4.6045e-05 1.2447e-07 -6.2008e-07)
(4.6051e-05 -1.1783e-10 -5.9473e-07)
(4.8743e-05 -2.0967e-08 2.043e-10)
(4.8732e-05 3.3837e-08 -1.244e-08)
(4.8723e-05 1.2464e-07 -5.7982e-08)
(4.8742e-05 1.8666e-07 -1.3115e-07)
(4.8757e-05 1.8185e-07 -1.8159e-07)
(4.8742e-05 1.3104e-07 -1.8586e-07)
(4.8723e-05 5.7773e-08 -1.233e-07)
(4.8732e-05 1.2354e-08 -3.2141e-08)
(4.8743e-05 -4.9898e-11 2.2719e-08)
(5.1446e-05 5.0079e-07 3.2976e-10)
(5.1426e-05 5.1954e-07 -8.8855e-08)
(5.1408e-05 5.6385e-07 -2.2718e-07)
(5.1422e-05 6.0435e-07 -4.1604e-07)
(5.1441e-05 5.6605e-07 -5.6563e-07)
(5.1423e-05 4.1618e-07 -6.0352e-07)
(5.1408e-05 2.2724e-07 -5.626e-07)
(5.1426e-05 8.9012e-08 -5.1796e-07)
(5.1446e-05 3.0137e-11 -4.9911e-07)
(5.4121e-05 2.2659e-06 4.237e-10)
(5.4099e-05 2.2221e-06 -4.0714e-07)
(5.4074e-05 2.1294e-06 -8.5764e-07)
(5.4076e-05 2.0259e-06 -1.3676e-06)
(5.4089e-05 1.7981e-06 -1.7975e-06)
(5.4076e-05 1.368e-06 -2.0251e-06)
(5.4074e-05 8.5793e-07 -2.1283e-06)
(5.4099e-05 4.0751e-07 -2.2207e-06)
(5.4121e-05 1.0969e-10 -2.2644e-06)
(5.6742e-05 5.1723e-06 5.3229e-10)
(5.6715e-05 5.0768e-06 -9.8661e-07)
(5.668e-05 4.8079e-06 -1.9768e-06)
(5.6669e-05 4.3874e-06 -2.9402e-06)
(5.6676e-05 3.7718e-06 -3.7711e-06)
(5.6669e-05 2.9407e-06 -4.3866e-06)
(5.668e-05 1.9772e-06 -4.8069e-06)
(5.6716e-05 9.8713e-07 -5.0756e-06)
(5.6742e-05 1.2354e-10 -5.171e-06)
(5.9294e-05 9.0021e-06 5.3342e-10)
(5.927e-05 8.8344e-06 -1.7572e-06)
(5.9224e-05 8.3256e-06 -3.453e-06)
(5.9212e-05 7.4869e-06 -5.0088e-06)
(5.9204e-05 6.3691e-06 -6.3685e-06)
(5.9212e-05 5.0093e-06 -7.4862e-06)
(5.9224e-05 3.4535e-06 -8.3248e-06)
(5.9271e-05 1.7578e-06 -8.8334e-06)
(5.9294e-05 1.591e-10 -9.001e-06)
(6.1745e-05 1.336e-05 7.1335e-10)
(6.171e-05 1.309e-05 -2.6182e-06)
(6.1663e-05 1.2285e-05 -5.1067e-06)
(6.1652e-05 1.1001e-05 -7.3573e-06)
(6.1662e-05 9.3294e-06 -9.3292e-06)
(6.1652e-05 7.3578e-06 -1.1e-05)
(6.1663e-05 5.1072e-06 -1.2285e-05)
(6.1711e-05 2.6188e-06 -1.3089e-05)
(6.1746e-05 -9.1769e-11 -1.3359e-05)
(6.4004e-05 1.7664e-05 4.7378e-10)
(6.3967e-05 1.728e-05 -3.4461e-06)
(6.3924e-05 1.6175e-05 -6.7203e-06)
(6.3921e-05 1.4459e-05 -9.6714e-06)
(6.3939e-05 1.2257e-05 -1.2257e-05)
(6.3921e-05 9.6718e-06 -1.4459e-05)
(6.3924e-05 6.7207e-06 -1.6175e-05)
(6.3968e-05 3.4465e-06 -1.7279e-05)
(6.4004e-05 -9.3555e-12 -1.7663e-05)
(6.6005e-05 2.124e-05 3.6342e-10)
(6.5977e-05 2.0741e-05 -4.1052e-06)
(6.5943e-05 1.9371e-05 -8.0203e-06)
(6.5941e-05 1.7319e-05 -1.1585e-05)
(6.5955e-05 1.4707e-05 -1.4707e-05)
(6.5941e-05 1.1585e-05 -1.7319e-05)
(6.5943e-05 8.0205e-06 -1.9371e-05)
(6.5977e-05 4.1054e-06 -2.0741e-05)
(6.6006e-05 -1.0998e-10 -2.124e-05)
(6.7822e-05 2.3447e-05 3.0836e-10)
(6.7811e-05 2.2861e-05 -4.5161e-06)
(6.7785e-05 2.1326e-05 -8.8194e-06)
(6.7787e-05 1.9061e-05 -1.2753e-05)
(6.7785e-05 1.6209e-05 -1.6209e-05)
(6.7787e-05 1.2753e-05 -1.9062e-05)
(6.7786e-05 8.8194e-06 -2.1327e-05)
(6.7811e-05 4.5161e-06 -2.2862e-05)
(6.7823e-05 -3.1136e-10 -2.3447e-05)
(6.9543e-05 2.3821e-05 1.6288e-11)
(6.9534e-05 2.3272e-05 -4.631e-06)
(6.9525e-05 2.1731e-05 -9.0155e-06)
(6.9522e-05 1.9396e-05 -1.2971e-05)
(6.9525e-05 1.6441e-05 -1.6442e-05)
(6.9522e-05 1.2971e-05 -1.9396e-05)
(6.9525e-05 9.0152e-06 -2.1732e-05)
(6.9534e-05 4.6307e-06 -2.3273e-05)
(6.9543e-05 -3.0415e-10 -2.3822e-05)
(7.1155e-05 2.2641e-05 1.0444e-10)
(7.1156e-05 2.2157e-05 -4.4447e-06)
(7.116e-05 2.0716e-05 -8.623e-06)
(7.1159e-05 1.8451e-05 -1.2332e-05)
(7.1159e-05 1.559e-05 -1.5591e-05)
(7.1159e-05 1.2332e-05 -1.8452e-05)
(7.116e-05 8.6225e-06 -2.0716e-05)
(7.1156e-05 4.4441e-06 -2.2158e-05)
(7.1156e-05 -6.8775e-10 -2.2642e-05)
(7.2591e-05 2.0219e-05 8.3749e-11)
(7.2585e-05 1.9761e-05 -3.9469e-06)
(7.2587e-05 1.8451e-05 -7.6621e-06)
(7.26e-05 1.6433e-05 -1.0983e-05)
(7.2614e-05 1.3903e-05 -1.3904e-05)
(7.26e-05 1.0982e-05 -1.6434e-05)
(7.2587e-05 7.6612e-06 -1.8452e-05)
(7.2585e-05 3.946e-06 -1.9762e-05)
(7.2592e-05 -9.4676e-10 -2.022e-05)
(7.3704e-05 1.6493e-05 -5.6833e-11)
(7.37e-05 1.6095e-05 -3.1988e-06)
(7.37e-05 1.5005e-05 -6.2108e-06)
(7.3725e-05 1.3355e-05 -8.9178e-06)
(7.3737e-05 1.1304e-05 -1.1306e-05)
(7.3725e-05 8.9166e-06 -1.3356e-05)
(7.3701e-05 6.2097e-06 -1.5006e-05)
(7.37e-05 3.1977e-06 -1.6096e-05)
(7.3704e-05 -1.0504e-09 -1.6494e-05)
(7.4343e-05 1.1292e-05 2.0094e-10)
(7.435e-05 1.1029e-05 -2.2042e-06)
(7.4369e-05 1.0271e-05 -4.258e-06)
(7.4376e-05 9.1076e-06 -6.0737e-06)
(7.438e-05 7.6794e-06 -7.6803e-06)
(7.4376e-05 6.0724e-06 -9.1089e-06)
(7.4369e-05 4.2566e-06 -1.0272e-05)
(7.435e-05 2.2028e-06 -1.103e-05)
(7.4344e-05 -8.9409e-10 -1.1293e-05)
(7.4427e-05 4.7545e-06 -1.2801e-10)
(7.4453e-05 4.6545e-06 -9.585e-07)
(7.4492e-05 4.3201e-06 -1.8115e-06)
(7.4484e-05 3.7608e-06 -2.4989e-06)
(7.447e-05 3.1166e-06 -3.118e-06)
(7.4484e-05 2.4974e-06 -3.7621e-06)
(7.4492e-05 1.81e-06 -4.3213e-06)
(7.4453e-05 9.5698e-07 -4.6555e-06)
(7.4428e-05 -1.3108e-09 -4.7552e-06)
(7.3934e-05 -2.9493e-06 5.3561e-10)
(7.3949e-05 -2.9117e-06 5.622e-07)
(7.398e-05 -2.7957e-06 1.1437e-06)
(7.3991e-05 -2.5963e-06 1.7363e-06)
(7.3993e-05 -2.2475e-06 2.2469e-06)
(7.3991e-05 -1.7379e-06 2.595e-06)
(7.398e-05 -1.1454e-06 2.7946e-06)
(7.3949e-05 -5.6384e-07 2.9107e-06)
(7.3935e-05 -2.0633e-09 2.9486e-06)
(7.2839e-05 -1.1724e-05 -1.4476e-10)
(7.2855e-05 -1.1518e-05 2.2883e-06)
(7.288e-05 -1.0883e-05 4.5132e-06)
(7.2906e-05 -9.8243e-06 6.5687e-06)
(7.2912e-05 -8.3657e-06 8.3641e-06)
(7.2906e-05 -6.5704e-06 9.8229e-06)
(7.2881e-05 -4.515e-06 1.0881e-05)
(7.2855e-05 -2.2901e-06 1.1517e-05)
(7.284e-05 -1.4207e-09 1.1723e-05)
(7.116e-05 -2.1401e-05 3.368e-11)
(7.1185e-05 -2.0971e-05 4.1665e-06)
(7.1227e-05 -1.9729e-05 8.1819e-06)
(7.1231e-05 -1.7756e-05 1.1884e-05)
(7.1225e-05 -1.5118e-05 1.5116e-05)
(7.1231e-05 -1.1886e-05 1.7755e-05)
(7.1227e-05 -8.1837e-06 1.9728e-05)
(7.1185e-05 -4.1682e-06 2.097e-05)
(7.116e-05 -1.5762e-09 2.14e-05)
(6.8949e-05 -3.1491e-05 -1.4695e-10)
(6.8992e-05 -3.0825e-05 6.1129e-06)
(6.9049e-05 -2.8944e-05 1.1997e-05)
(6.9032e-05 -2.6029e-05 1.7422e-05)
(6.9005e-05 -2.2161e-05 2.2159e-05)
(6.9032e-05 -1.7424e-05 2.6028e-05)
(6.9049e-05 -1.1999e-05 2.8943e-05)
(6.8992e-05 -6.1146e-06 3.0824e-05)
(6.8949e-05 -1.3261e-09 3.149e-05)
(6.627e-05 -4.1388e-05 -5.2521e-10)
(6.6292e-05 -4.0508e-05 8.0249e-06)
(6.6328e-05 -3.802e-05 1.5743e-05)
(6.6334e-05 -3.4166e-05 2.2856e-05)
(6.6331e-05 -2.9075e-05 2.9074e-05)
(6.6334e-05 -2.2857e-05 3.4165e-05)
(6.6328e-05 -1.5745e-05 3.8019e-05)
(6.6292e-05 -8.0265e-06 4.0507e-05)
(6.627e-05 -8.5261e-10 4.1387e-05)
(6.3082e-05 -5.0489e-05 -2.2148e-10)
(6.309e-05 -4.9401e-05 9.7902e-06)
(6.3112e-05 -4.636e-05 1.9199e-05)
(6.3134e-05 -4.1637e-05 2.7852e-05)
(6.3146e-05 -3.5431e-05 3.543e-05)
(6.3134e-05 -2.7853e-05 4.1636e-05)
(6.3112e-05 -1.92e-05 4.6359e-05)
(6.309e-05 -9.7916e-06 4.94e-05)
(6.3082e-05 -1.0209e-09 5.0488e-05)
(5.9378e-05 -5.8255e-05 -4.2933e-10)
(5.9388e-05 -5.7033e-05 1.1329e-05)
(5.9413e-05 -5.3533e-05 2.2189e-05)
(5.9424e-05 -4.8055e-05 3.2144e-05)
(5.9429e-05 -4.0854e-05 4.0853e-05)
(5.9424e-05 -3.2146e-05 4.8054e-05)
(5.9413e-05 -2.2191e-05 5.3532e-05)
(5.9388e-05 -1.133e-05 5.7032e-05)
(5.9378e-05 -6.296e-10 5.8254e-05)
(5.5229e-05 -6.4617e-05 -3.518e-10)
(5.5251e-05 -6.3278e-05 1.2586e-05)
(5.5282e-05 -5.9397e-05 2.4636e-05)
(5.5275e-05 -5.3301e-05 3.5651e-05)
(5.5262e-05 -4.5287e-05 4.5286e-05)
(5.5275e-05 -3.5652e-05 5.33e-05)
(5.5282e-05 -2.4637e-05 5.9396e-05)
(5.525e-05 -1.2587e-05 6.3277e-05)
(5.5228e-05 -4.9334e-10 6.4616e-05)
(5.0743e-05 -6.9435e-05 -3.1813e-10)
(5.075e-05 -6.7963e-05 1.3489e-05)
(5.0766e-05 -6.3766e-05 2.642e-05)
(5.077e-05 -5.7229e-05 3.8277e-05)
(5.0772e-05 -4.8653e-05 4.8652e-05)
(5.077e-05 -3.8278e-05 5.7228e-05)
(5.0765e-05 -2.6421e-05 6.3765e-05)
(5.075e-05 -1.3489e-05 6.7962e-05)
(5.0743e-05 -3.0379e-10 6.9434e-05)
(4.5979e-05 -7.2312e-05 -5.2148e-10)
(4.5978e-05 -7.0736e-05 1.4017e-05)
(4.5975e-05 -6.6338e-05 2.7467e-05)
(4.5998e-05 -5.9541e-05 3.9828e-05)
(4.6003e-05 -5.0648e-05 5.0647e-05)
(4.5998e-05 -3.9828e-05 5.954e-05)
(4.5975e-05 -2.7467e-05 6.6337e-05)
(4.5978e-05 -1.4017e-05 7.0735e-05)
(4.5978e-05 1.0179e-10 7.2311e-05)
(4.0998e-05 -7.2878e-05 -1.0005e-09)
(4.0988e-05 -7.1329e-05 1.4169e-05)
(4.0984e-05 -6.6916e-05 2.773e-05)
(4.0995e-05 -6.0036e-05 4.0147e-05)
(4.1008e-05 -5.1023e-05 5.1023e-05)
(4.0995e-05 -4.0148e-05 6.0035e-05)
(4.0984e-05 -2.7731e-05 6.6915e-05)
(4.0988e-05 -1.417e-05 7.1328e-05)
(4.0997e-05 7.3887e-10 7.2877e-05)
(3.5912e-05 -7.1486e-05 -6.9579e-10)
(3.5895e-05 -7.0011e-05 1.395e-05)
(3.5876e-05 -6.5719e-05 2.7263e-05)
(3.5886e-05 -5.893e-05 3.939e-05)
(3.59e-05 -5.0027e-05 5.0026e-05)
(3.5886e-05 -3.939e-05 5.893e-05)
(3.5876e-05 -2.7263e-05 6.5719e-05)
(3.5895e-05 -1.3951e-05 7.0011e-05)
(3.5912e-05 5.5634e-10 7.1486e-05)
(3.0846e-05 -6.8487e-05 -7.3794e-10)
(3.0805e-05 -6.7111e-05 1.3376e-05)
(3.0758e-05 -6.304e-05 2.6126e-05)
(3.0778e-05 -5.6512e-05 3.774e-05)
(3.0807e-05 -4.7943e-05 4.7943e-05)
(3.0778e-05 -3.774e-05 5.6512e-05)
(3.0758e-05 -2.6126e-05 6.304e-05)
(3.0805e-05 -1.3376e-05 6.7111e-05)
(3.0846e-05 7.0616e-10 6.8487e-05)
(2.588e-05 -6.3944e-05 -7.3044e-10)
(2.5815e-05 -6.2688e-05 1.2481e-05)
(2.5747e-05 -5.8905e-05 2.4389e-05)
(2.5777e-05 -5.2806e-05 3.5248e-05)
(2.5825e-05 -4.4779e-05 4.4779e-05)
(2.5777e-05 -3.5248e-05 5.2806e-05)
(2.5747e-05 -2.4388e-05 5.8905e-05)
(2.5815e-05 -1.2481e-05 6.2688e-05)
(2.588e-05 7.856e-10 6.3944e-05)
(2.1201e-05 -5.7449e-05 -6.7067e-10)
(2.1157e-05 -5.6242e-05 1.1179e-05)
(2.1097e-05 -5.2796e-05 2.1869e-05)
(2.1121e-05 -4.7371e-05 3.1656e-05)
(2.115e-05 -4.0249e-05 4.0249e-05)
(2.1121e-05 -3.1656e-05 4.7371e-05)
(2.1097e-05 -2.1869e-05 5.2796e-05)
(2.1157e-05 -1.1179e-05 5.6242e-05)
(2.1201e-05 7.8624e-10 5.7449e-05)
(1.7285e-05 -4.7866e-05 -5.811e-10)
(1.7253e-05 -4.677e-05 9.2972e-06)
(1.7179e-05 -4.3875e-05 1.8197e-05)
(1.7219e-05 -3.9385e-05 2.6348e-05)
(1.7238e-05 -3.3537e-05 3.3537e-05)
(1.7219e-05 -2.6347e-05 3.9385e-05)
(1.7179e-05 -1.8197e-05 4.3875e-05)
(1.7253e-05 -9.297e-06 4.677e-05)
(1.7285e-05 7.2503e-10 4.7866e-05)
(1.4147e-05 -3.486e-05 -4.8942e-10)
(1.4041e-05 -3.4192e-05 6.8453e-06)
(1.3927e-05 -3.2168e-05 1.3339e-05)
(1.3998e-05 -2.8824e-05 1.9226e-05)
(1.4086e-05 -2.4422e-05 2.4422e-05)
(1.3998e-05 -1.9225e-05 2.8824e-05)
(1.3927e-05 -1.3339e-05 3.2168e-05)
(1.4041e-05 -6.8451e-06 3.4192e-05)
(1.4147e-05 6.1786e-10 3.486e-05)
(1.0626e-05 -2.0999e-05 -3.6824e-10)
(1.045e-05 -2.078e-05 4.2195e-06)
(1.0297e-05 -1.9688e-05 8.1551e-06)
(1.0404e-05 -1.7558e-05 1.1629e-05)
(1.0559e-05 -1.4701e-05 1.4702e-05)
(1.0404e-05 -1.1629e-05 1.7558e-05)
(1.0297e-05 -8.155e-06 1.9688e-05)
(1.045e-05 -4.2194e-06 2.078e-05)
(1.0626e-05 4.5571e-10 2.0998e-05)
(5.7031e-06 -9.2013e-06 -1.9148e-10)
(5.6271e-06 -9.1206e-06 1.8724e-06)
(5.5441e-06 -8.6719e-06 3.5882e-06)
(5.6009e-06 -7.7223e-06 5.0855e-06)
(5.6656e-06 -6.4421e-06 6.4421e-06)
(5.6009e-06 -5.0855e-06 7.7223e-06)
(5.5441e-06 -3.5881e-06 8.6719e-06)
(5.6271e-06 -1.8723e-06 9.1205e-06)
(5.7031e-06 2.2553e-10 9.2012e-06)
(2.1908e-12 -3.2206e-12 -7.0118e-17)
(8.1165e-09 2.771e-09 1.3408e-08)
(2.7562e-12 9.5721e-13 -3.5202e-13)
(6.8737e-09 -4.0006e-09 -1.1665e-08)
(1.2972e-12 -6.9233e-12 6.9234e-12)
(6.8739e-09 1.1664e-08 4.0011e-09)
(2.7562e-12 3.5198e-13 -9.5727e-13)
(8.1158e-09 -1.3407e-08 -2.7712e-09)
(2.1908e-12 7.7001e-17 3.2206e-12)
(8.4447e-06 5.1546e-07 3.4227e-06)
(1.3814e-08 -2.8083e-08 3.5042e-08)
(8.3224e-06 1.2092e-06 2.921e-06)
(4.0838e-12 1.3755e-12 3.6156e-12)
(8.4423e-06 2.0571e-06 2.7886e-06)
(1.3708e-08 4.4607e-08 5.184e-09)
(8.5648e-06 2.6729e-06 2.6729e-06)
(2.3902e-12 -1.3625e-12 -1.3624e-12)
(8.4423e-06 2.7887e-06 2.0571e-06)
(1.3708e-08 5.1836e-09 4.4609e-08)
(8.3224e-06 2.9211e-06 1.2093e-06)
(4.0838e-12 3.6156e-12 1.3754e-12)
(8.4447e-06 3.4229e-06 5.1553e-07)
(1.3814e-08 3.5045e-08 -2.8082e-08)
(8.5682e-06 3.7748e-06 -4.4097e-11)
(3.4133e-12 1.5762e-12 -1.552e-17)
(1.4811e-05 4.4853e-07 3.4943e-06)
(1.4593e-05 1.1533e-06 2.7889e-06)
(1.4806e-05 2.1574e-06 2.7979e-06)
(1.5084e-05 2.9559e-06 2.9559e-06)
(1.4806e-05 2.798e-06 2.1576e-06)
(1.4593e-05 2.7891e-06 1.1535e-06)
(1.4811e-05 3.4947e-06 4.4869e-07)
(1.5091e-05 4.1661e-06 -1.0272e-10)
(1.8271e-05 -2.8613e-07 -7.8404e-07)
(1.815e-05 -4.0032e-07 -9.5914e-07)
(1.8265e-05 -3.4438e-07 -7.3858e-07)
(1.8389e-05 -4.065e-07 -4.0639e-07)
(1.8265e-05 -7.3847e-07 -3.4411e-07)
(1.815e-05 -9.5881e-07 -4.0002e-07)
(1.8271e-05 -7.8357e-07 -2.8589e-07)
(1.8398e-05 -6.0217e-07 -1.7755e-10)
(2.0322e-05 -1.1547e-06 -5.8074e-06)
(2.0296e-05 -2.2448e-06 -5.4124e-06)
(2.0316e-05 -3.2756e-06 -4.8961e-06)
(2.0282e-05 -4.297e-06 -4.2968e-06)
(2.0316e-05 -4.8961e-06 -3.2753e-06)
(2.0296e-05 -5.4121e-06 -2.2445e-06)
(2.0322e-05 -5.807e-06 -1.1544e-06)
(2.029e-05 -6.1203e-06 -2.5281e-10)
(2.288e-05 -1.5797e-06 -7.8241e-06)
(2.2854e-05 -3.055e-06 -7.3768e-06)
(2.2876e-05 -4.3921e-06 -6.6156e-06)
(2.289e-05 -5.6049e-06 -5.6047e-06)
(2.2876e-05 -6.6156e-06 -4.3918e-06)
(2.2854e-05 -7.3767e-06 -3.0547e-06)
(2.288e-05 -7.8239e-06 -1.5794e-06)
(2.2896e-05 -7.9852e-06 -3.134e-10)
(2.6115e-05 -1.5737e-06 -7.4548e-06)
(2.605e-05 -2.9764e-06 -7.1888e-06)
(2.6113e-05 -4.1287e-06 -6.3427e-06)
(2.6191e-05 -5.1609e-06 -5.1607e-06)
(2.6113e-05 -6.3429e-06 -4.1284e-06)
(2.6051e-05 -7.189e-06 -2.9761e-06)
(2.6115e-05 -7.455e-06 -1.5735e-06)
(2.6194e-05 -7.3716e-06 -3.5307e-10)
(2.9389e-05 -1.4401e-06 -6.7993e-06)
(2.9352e-05 -2.7099e-06 -6.5348e-06)
(2.9391e-05 -3.7612e-06 -5.7787e-06)
(2.9431e-05 -4.7499e-06 -4.7496e-06)
(2.9391e-05 -5.779e-06 -3.761e-06)
(2.9352e-05 -6.5353e-06 -2.7097e-06)
(2.9389e-05 -6.7999e-06 -1.44e-06)
(2.9429e-05 -6.798e-06 -3.7557e-10)
(3.2462e-05 -1.3012e-06 -6.3236e-06)
(3.2462e-05 -2.4931e-06 -5.9985e-06)
(3.2471e-05 -3.5323e-06 -5.3482e-06)
(3.2475e-05 -4.4887e-06 -4.4884e-06)
(3.2471e-05 -5.3487e-06 -3.5321e-06)
(3.2462e-05 -5.9993e-06 -2.493e-06)
(3.2462e-05 -6.3245e-06 -1.3011e-06)
(3.2463e-05 -6.4194e-06 -3.7816e-10)
(3.5379e-05 -1.1412e-06 -5.6546e-06)
(3.5388e-05 -2.2129e-06 -5.331e-06)
(3.5397e-05 -3.1865e-06 -4.7886e-06)
(3.5403e-05 -4.0593e-06 -4.0596e-06)
(3.5397e-05 -4.7893e-06 -3.1863e-06)
(3.5388e-05 -5.332e-06 -2.2128e-06)
(3.5379e-05 -5.6559e-06 -1.1411e-06)
(3.5378e-05 -5.7676e-06 1.0956e-10)
(3.815e-05 -9.1151e-07 -4.6313e-06)
(3.8149e-05 -1.8057e-06 -4.3625e-06)
(3.8178e-05 -2.6421e-06 -3.945e-06)
(3.8187e-05 -3.3702e-06 -3.3698e-06)
(3.8178e-05 -3.9458e-06 -2.642e-06)
(3.8149e-05 -4.3637e-06 -1.8057e-06)
(3.815e-05 -4.6328e-06 -9.1148e-07)
(3.8151e-05 -4.7301e-06 -2.7927e-10)
(4.0785e-05 -6.4374e-07 -3.3217e-06)
(4.0793e-05 -1.2921e-06 -3.1451e-06)
(4.0811e-05 -1.9241e-06 -2.8712e-06)
(4.0824e-05 -2.4711e-06 -2.4705e-06)
(4.0811e-05 -2.872e-06 -1.924e-06)
(4.0793e-05 -3.1463e-06 -1.2921e-06)
(4.0785e-05 -3.3233e-06 -6.437e-07)
(4.0787e-05 -3.3902e-06 -3.0005e-10)
(4.3399e-05 -3.5661e-07 -1.8753e-06)
(4.3412e-05 -7.3519e-07 -1.8045e-06)
(4.3421e-05 -1.1314e-06 -1.6846e-06)
(4.3425e-05 -1.4714e-06 -1.4709e-06)
(4.3421e-05 -1.6854e-06 -1.1313e-06)
(4.3412e-05 -1.8058e-06 -7.3521e-07)
(4.3399e-05 -1.877e-06 -3.5654e-07)
(4.3394e-05 -1.9061e-06 4.4798e-12)
(4.6045e-05 -1.2477e-07 -6.2005e-07)
(4.6048e-05 -2.7388e-07 -6.5836e-07)
(4.6062e-05 -4.4321e-07 -6.5857e-07)
(4.6075e-05 -5.8499e-07 -5.8449e-07)
(4.6062e-05 -6.5948e-07 -4.4307e-07)
(4.6049e-05 -6.5971e-07 -2.7384e-07)
(4.6045e-05 -6.2171e-07 -1.2464e-07)
(4.6051e-05 -5.9649e-07 1.571e-10)
(4.8732e-05 -1.2418e-08 -3.1933e-08)
(4.8723e-05 -5.7744e-08 -1.2292e-07)
(4.8742e-05 -1.309e-07 -1.8538e-07)
(4.8757e-05 -1.816e-07 -1.8109e-07)
(4.8742e-05 -1.8633e-07 -1.307e-07)
(4.8723e-05 -1.2432e-07 -5.763e-08)
(4.8732e-05 -3.362e-08 -1.2186e-08)
(4.8743e-05 2.0973e-08 3.9775e-10)
(5.1426e-05 -8.8864e-08 -5.1758e-07)
(5.1408e-05 -2.2693e-07 -5.6193e-07)
(5.1422e-05 -4.157e-07 -6.0273e-07)
(5.1441e-05 -5.6544e-07 -5.6488e-07)
(5.1422e-05 -6.0373e-07 -4.1543e-07)
(5.1408e-05 -5.6335e-07 -2.2673e-07)
(5.1426e-05 -5.1925e-07 -8.8526e-08)
(5.1446e-05 -5.0079e-07 6.11e-10)
(5.4099e-05 -4.072e-07 -2.2202e-06)
(5.4074e-05 -8.574e-07 -2.1274e-06)
(5.4076e-05 -1.3672e-06 -2.0241e-06)
(5.4089e-05 -1.7972e-06 -1.7966e-06)
(5.4076e-05 -2.0251e-06 -1.3669e-06)
(5.4074e-05 -2.1288e-06 -8.5711e-07)
(5.4099e-05 -2.2218e-06 -4.0675e-07)
(5.4121e-05 -2.2659e-06 7.7959e-10)
(5.6716e-05 -9.8671e-07 -5.075e-06)
(5.668e-05 -1.9766e-06 -4.8059e-06)
(5.6669e-05 -2.9398e-06 -4.3855e-06)
(5.6676e-05 -3.7708e-06 -3.77e-06)
(5.6669e-05 -4.3865e-06 -2.9393e-06)
(5.6681e-05 -4.8073e-06 -1.9762e-06)
(5.6716e-05 -5.0765e-06 -9.8615e-07)
(5.6742e-05 -5.1725e-06 9.3699e-10)
(5.9271e-05 -1.7574e-06 -8.8328e-06)
(5.9224e-05 -3.4529e-06 -8.3237e-06)
(5.9212e-05 -5.0084e-06 -7.485e-06)
(5.9205e-05 -6.3681e-06 -6.3673e-06)
(5.9212e-05 -7.486e-06 -5.0078e-06)
(5.9225e-05 -8.325e-06 -3.4523e-06)
(5.9271e-05 -8.8342e-06 -1.7567e-06)
(5.9295e-05 -9.0023e-06 9.5871e-10)
(6.1711e-05 -2.6185e-06 -1.3088e-05)
(6.1664e-05 -5.1067e-06 -1.2284e-05)
(6.1653e-05 -7.357e-06 -1.0999e-05)
(6.1663e-05 -9.3285e-06 -9.328e-06)
(6.1653e-05 -1.1e-05 -7.3563e-06)
(6.1664e-05 -1.2285e-05 -5.106e-06)
(6.1711e-05 -1.3089e-05 -2.6177e-06)
(6.1746e-05 -1.336e-05 1.1329e-09)
(6.3968e-05 -3.4465e-06 -1.7279e-05)
(6.3924e-05 -6.7204e-06 -1.6174e-05)
(6.3922e-05 -9.6712e-06 -1.4457e-05)
(6.3939e-05 -1.2257e-05 -1.2256e-05)
(6.3922e-05 -1.4458e-05 -9.6704e-06)
(6.3925e-05 -1.6175e-05 -6.7196e-06)
(6.3968e-05 -1.7279e-05 -3.4456e-06)
(6.4005e-05 -1.7664e-05 8.6693e-10)
(6.5977e-05 -4.1056e-06 -2.0741e-05)
(6.5944e-05 -8.0204e-06 -1.937e-05)
(6.5942e-05 -1.1585e-05 -1.7318e-05)
(6.5956e-05 -1.4706e-05 -1.4706e-05)
(6.5942e-05 -1.7318e-05 -1.1584e-05)
(6.5944e-05 -1.9371e-05 -8.0195e-06)
(6.5978e-05 -2.0741e-05 -4.1047e-06)
(6.6006e-05 -2.124e-05 7.1482e-10)
(6.7811e-05 -4.5166e-06 -2.2861e-05)
(6.7786e-05 -8.8197e-06 -2.1326e-05)
(6.7788e-05 -1.2753e-05 -1.906e-05)
(6.7786e-05 -1.6208e-05 -1.6208e-05)
(6.7788e-05 -1.9061e-05 -1.2752e-05)
(6.7786e-05 -2.1326e-05 -8.8186e-06)
(6.7812e-05 -2.2861e-05 -4.5156e-06)
(6.7823e-05 -2.3447e-05 6.1873e-10)
(6.9535e-05 -4.6316e-06 -2.3272e-05)
(6.9525e-05 -9.0159e-06 -2.1731e-05)
(6.9523e-05 -1.2971e-05 -1.9395e-05)
(6.9526e-05 -1.6441e-05 -1.6441e-05)
(6.9523e-05 -1.9396e-05 -1.297e-05)
(6.9526e-05 -2.1731e-05 -9.0147e-06)
(6.9535e-05 -2.3272e-05 -4.6305e-06)
(6.9544e-05 -2.3821e-05 6.7458e-10)
(7.1157e-05 -4.4455e-06 -2.2157e-05)
(7.1161e-05 -8.6236e-06 -2.0716e-05)
(7.1159e-05 -1.2333e-05 -1.8451e-05)
(7.116e-05 -1.559e-05 -1.559e-05)
(7.116e-05 -1.8452e-05 -1.2331e-05)
(7.1161e-05 -2.0716e-05 -8.6223e-06)
(7.1157e-05 -2.2157e-05 -4.4442e-06)
(7.1156e-05 -2.2641e-05 3.5822e-10)
(7.2586e-05 -3.9477e-06 -1.9762e-05)
(7.2588e-05 -7.6628e-06 -1.8451e-05)
(7.2601e-05 -1.0983e-05 -1.6433e-05)
(7.2614e-05 -1.3904e-05 -1.3903e-05)
(7.2601e-05 -1.6433e-05 -1.0982e-05)
(7.2588e-05 -1.8452e-05 -7.6614e-06)
(7.2586e-05 -1.9762e-05 -3.9464e-06)
(7.2593e-05 -2.022e-05 3.19e-10)
(7.3701e-05 -3.1997e-06 -1.6096e-05)
(7.3701e-05 -6.2116e-06 -1.5005e-05)
(7.3726e-05 -8.9184e-06 -1.3355e-05)
(7.3738e-05 -1.1306e-05 -1.1305e-05)
(7.3726e-05 -1.3356e-05 -8.917e-06)
(7.3701e-05 -1.5006e-05 -6.2102e-06)
(7.3701e-05 -1.6096e-05 -3.1983e-06)
(7.3705e-05 -1.6494e-05 1.5892e-10)
(7.4351e-05 -2.2052e-06 -1.103e-05)
(7.437e-05 -4.2588e-06 -1.0272e-05)
(7.4376e-05 -6.0744e-06 -9.1082e-06)
(7.4381e-05 -7.6812e-06 -7.6796e-06)
(7.4377e-05 -9.1092e-06 -6.073e-06)
(7.437e-05 -1.0273e-05 -4.2573e-06)
(7.4351e-05 -1.103e-05 -2.2038e-06)
(7.4344e-05 -1.1293e-05 -2.1334e-10)
(7.4454e-05 -9.5957e-07 -4.6554e-06)
(7.4492e-05 -1.8125e-06 -4.321e-06)
(7.4484e-05 -2.4997e-06 -3.7616e-06)
(7.447e-05 -3.1186e-06 -3.1174e-06)
(7.4484e-05 -3.7626e-06 -2.4983e-06)
(7.4492e-05 -4.3217e-06 -1.811e-06)
(7.4454e-05 -4.656e-06 -9.5811e-07)
(7.4428e-05 -4.7559e-06 3.0818e-11)
(7.395e-05 5.6108e-07 2.9108e-06)
(7.398e-05 1.1427e-06 2.7948e-06)
(7.3991e-05 1.7354e-06 2.5953e-06)
(7.3994e-05 2.2452e-06 2.2474e-06)
(7.3991e-05 2.5943e-06 1.7368e-06)
(7.398e-05 2.794e-06 1.1442e-06)
(7.3949e-05 2.9102e-06 5.6255e-07)
(7.3934e-05 2.948e-06 -6.9829e-10)
(7.2855e-05 2.2872e-06 1.1517e-05)
(7.2881e-05 4.5122e-06 1.0881e-05)
(7.2907e-05 6.5677e-06 9.823e-06)
(7.2912e-05 8.3632e-06 8.3644e-06)
(7.2907e-05 9.8221e-06 6.5691e-06)
(7.2881e-05 1.0881e-05 4.5136e-06)
(7.2855e-05 1.1516e-05 2.2886e-06)
(7.2839e-05 1.1722e-05 -8.2031e-11)
(7.1185e-05 4.1654e-06 2.097e-05)
(7.1227e-05 8.1809e-06 1.9728e-05)
(7.1231e-05 1.1883e-05 1.7755e-05)
(7.1225e-05 1.5115e-05 1.5116e-05)
(7.1231e-05 1.7754e-05 1.1884e-05)
(7.1227e-05 1.9727e-05 8.1822e-06)
(7.1185e-05 2.097e-05 4.1667e-06)
(7.116e-05 2.1399e-05 -3.2884e-10)
(6.8992e-05 6.1119e-06 3.0824e-05)
(6.9049e-05 1.1996e-05 2.8943e-05)
(6.9032e-05 1.7421e-05 2.6027e-05)
(6.9005e-05 2.2158e-05 2.2159e-05)
(6.9032e-05 2.6027e-05 1.7422e-05)
(6.9049e-05 2.8943e-05 1.1997e-05)
(6.8992e-05 3.0824e-05 6.1131e-06)
(6.8949e-05 3.149e-05 -2.337e-10)
(6.6292e-05 8.0241e-06 4.0506e-05)
(6.6328e-05 1.5742e-05 3.8018e-05)
(6.6334e-05 2.2855e-05 3.4164e-05)
(6.633e-05 2.9073e-05 2.9073e-05)
(6.6334e-05 3.4164e-05 2.2856e-05)
(6.6327e-05 3.8018e-05 1.5743e-05)
(6.6291e-05 4.0506e-05 8.025e-06)
(6.627e-05 4.1387e-05 -6.6733e-10)
(6.309e-05 9.7896e-06 4.94e-05)
(6.3111e-05 1.9198e-05 4.6359e-05)
(6.3134e-05 2.7851e-05 4.1636e-05)
(6.3146e-05 3.5429e-05 3.543e-05)
(6.3134e-05 4.1636e-05 2.7852e-05)
(6.3111e-05 4.6358e-05 1.9199e-05)
(6.3089e-05 4.9399e-05 9.7901e-06)
(6.3081e-05 5.0488e-05 -4.031e-10)
(5.9388e-05 1.1328e-05 5.7032e-05)
(5.9412e-05 2.2189e-05 5.3532e-05)
(5.9423e-05 3.2144e-05 4.8054e-05)
(5.9428e-05 4.0853e-05 4.0853e-05)
(5.9423e-05 4.8054e-05 3.2144e-05)
(5.9412e-05 5.3532e-05 2.2189e-05)
(5.9388e-05 5.7032e-05 1.1329e-05)
(5.9377e-05 5.8254e-05 -3.4193e-10)
(5.525e-05 1.2586e-05 6.3277e-05)
(5.5282e-05 2.4637e-05 5.9397e-05)
(5.5274e-05 3.5651e-05 5.33e-05)
(5.5261e-05 4.5286e-05 4.5286e-05)
(5.5274e-05 5.33e-05 3.5651e-05)
(5.5281e-05 5.9397e-05 2.4636e-05)
(5.525e-05 6.3277e-05 1.2586e-05)
(5.5228e-05 6.4616e-05 -5.6686e-10)
(5.075e-05 1.3489e-05 6.7962e-05)
(5.0765e-05 2.642e-05 6.3766e-05)
(5.0769e-05 3.8278e-05 5.7228e-05)
(5.0771e-05 4.8652e-05 4.8652e-05)
(5.0769e-05 5.7229e-05 3.8277e-05)
(5.0765e-05 6.3766e-05 2.642e-05)
(5.0749e-05 6.7962e-05 1.3488e-05)
(5.0742e-05 6.9434e-05 -7.5424e-10)
(4.5978e-05 1.4017e-05 7.0736e-05)
(4.5975e-05 2.7468e-05 6.6337e-05)
(4.5997e-05 3.9829e-05 5.9541e-05)
(4.6002e-05 5.0649e-05 5.0648e-05)
(4.5997e-05 5.9541e-05 3.9828e-05)
(4.5974e-05 6.6338e-05 2.7467e-05)
(4.5977e-05 7.0736e-05 1.4016e-05)
(4.5978e-05 7.2312e-05 -6.8826e-10)
(4.0988e-05 1.417e-05 7.1329e-05)
(4.0984e-05 2.7732e-05 6.6916e-05)
(4.0995e-05 4.0149e-05 6.0036e-05)
(4.1007e-05 5.1024e-05 5.1024e-05)
(4.0994e-05 6.0037e-05 4.0147e-05)
(4.0983e-05 6.6916e-05 2.773e-05)
(4.0987e-05 7.1329e-05 1.4169e-05)
(4.0997e-05 7.2878e-05 -1.1107e-09)
(3.5895e-05 1.3952e-05 7.0011e-05)
(3.5875e-05 2.7265e-05 6.5719e-05)
(3.5886e-05 3.9391e-05 5.893e-05)
(3.5899e-05 5.0028e-05 5.0027e-05)
(3.5885e-05 5.8931e-05 3.939e-05)
(3.5875e-05 6.572e-05 2.7263e-05)
(3.5894e-05 7.0012e-05 1.395e-05)
(3.5912e-05 7.1486e-05 -7.3895e-10)
(3.0805e-05 1.3377e-05 6.7111e-05)
(3.0758e-05 2.6128e-05 6.304e-05)
(3.0778e-05 3.7742e-05 5.6512e-05)
(3.0807e-05 4.7944e-05 4.7943e-05)
(3.0778e-05 5.6513e-05 3.774e-05)
(3.0757e-05 6.3041e-05 2.6126e-05)
(3.0804e-05 6.7112e-05 1.3376e-05)
(3.0845e-05 6.8487e-05 -7.2298e-10)
(2.5815e-05 1.2483e-05 6.2688e-05)
(2.5747e-05 2.439e-05 5.8905e-05)
(2.5777e-05 3.525e-05 5.2806e-05)
(2.5824e-05 4.4781e-05 4.4779e-05)
(2.5777e-05 5.2807e-05 3.5248e-05)
(2.5747e-05 5.8906e-05 2.4388e-05)
(2.5815e-05 6.2689e-05 1.2481e-05)
(2.5879e-05 6.3945e-05 -6.8028e-10)
(2.1157e-05 1.118e-05 5.6242e-05)
(2.1097e-05 2.1871e-05 5.2796e-05)
(2.1121e-05 3.1658e-05 4.7371e-05)
(2.115e-05 4.025e-05 4.0249e-05)
(2.1121e-05 4.7372e-05 3.1656e-05)
(2.1097e-05 5.2797e-05 2.1869e-05)
(2.1157e-05 5.6244e-05 1.1179e-05)
(2.1201e-05 5.745e-05 -6.1881e-10)
(1.7253e-05 9.2984e-06 4.677e-05)
(1.7179e-05 1.8198e-05 4.3874e-05)
(1.7219e-05 2.6349e-05 3.9384e-05)
(1.7238e-05 3.3538e-05 3.3537e-05)
(1.7219e-05 3.9386e-05 2.6347e-05)
(1.7179e-05 4.3876e-05 1.8197e-05)
(1.7253e-05 4.6772e-05 9.2972e-06)
(1.7285e-05 4.7867e-05 -5.562e-10)
(1.4041e-05 6.8463e-06 3.4192e-05)
(1.3927e-05 1.334e-05 3.2168e-05)
(1.3998e-05 1.9226e-05 2.8823e-05)
(1.4086e-05 2.4422e-05 2.4421e-05)