/*--------------------------------*- C++ -*----------------------------------*\
| =========                 |                                                 |
| \\      /  F ield         | OpenFOAM: The Open Source CFD Toolbox           |
|  \\    /   O peration     | Version:  4.1                                   |
|   \\  /    A nd           | Web:      www.OpenFOAM.org                      |
|    \\/     M anipulation  |                                                 |
\*---------------------------------------------------------------------------*/
FoamFile
{
    version     2.0;
    format      ascii;
    class       surfaceVectorField;
    location    "0.0096";
    object      Uf;
}
// * * * * * * * * * * * * * * * * * * * * * * * * * * * * * * * * * * * * * //

dimensions      [0 1 -1 0 0 0 0];

internalField   nonuniform List<vector> 
17536
(
(0.24955 0.00052675 -1.4244e-07)
(0.2495 5.6619e-05 -0.00016681)
(0.2495 5.6705e-05 0.0001666)
(0.24983 -1.3778e-05 4.1207e-05)
(0.24983 -1.3391e-05 -4.0917e-05)
(0.24925 0.0012809 -3.2496e-07)
(0.24926 0.00034739 -0.00049114)
(0.24926 0.00034754 0.0004905)
(0.24963 0.0001026 0.00015287)
(0.24963 0.0001029 -0.00015305)
(0.24878 0.0021969 -5.5157e-07)
(0.24884 0.00082182 -0.00078724)
(0.24884 0.00082202 0.00078618)
(0.24929 0.00048166 0.00030251)
(0.24929 0.00048213 -0.00030294)
(0.24819 0.0031846 -8.2291e-07)
(0.24829 0.0014197 -0.00098855)
(0.24828 0.0014199 0.00098702)
(0.24883 0.0010653 0.00045495)
(0.24883 0.0010658 -0.00045595)
(0.24727 0.0042601 -9.6446e-07)
(0.2475 0.0022522 -0.00098367)
(0.2475 0.0022524 0.00098153)
(0.24815 0.0019968 0.00044927)
(0.24815 0.0019977 -0.00045044)
(0.24547 0.005592 -9.0607e-07)
(0.24609 0.0033439 -0.00083856)
(0.24609 0.0033442 0.00083626)
(0.2469 0.003344 0.00028498)
(0.2469 0.0033454 -0.00028584)
(0.24244 0.0074036 -8.3767e-07)
(0.24362 0.0046108 -0.00093065)
(0.24362 0.004611 0.00092859)
(0.24464 0.0049293 0.00032108)
(0.24464 0.0049291 -0.00032342)
(0.23792 0.009662 -6.8195e-07)
(0.23982 0.0062923 -0.0011082)
(0.23982 0.0062927 0.0011062)
(0.24102 0.0069891 0.00041784)
(0.24102 0.0069897 -0.00041931)
(0.23161 0.012181 -5.5431e-07)
(0.23441 0.0082833 -0.0012731)
(0.2344 0.0082836 0.0012717)
(0.23569 0.0094334 0.0004905)
(0.23569 0.009434 -0.00049149)
(0.22329 0.014876 -4.7995e-07)
(0.22711 0.010484 -0.0014326)
(0.2271 0.010484 0.0014317)
(0.22842 0.012141 0.00054048)
(0.22842 0.01214 -0.0005425)
(0.21287 0.017675 -2.9082e-07)
(0.21776 0.012853 -0.0015443)
(0.21776 0.012853 0.0015434)
(0.21907 0.015075 0.00057424)
(0.21907 0.015076 -0.00057482)
(0.20012 0.020468 -1.904e-08)
(0.2062 0.015312 -0.0016263)
(0.2062 0.015312 0.0016259)
(0.20745 0.018169 0.00058309)
(0.20745 0.018171 -0.00058222)
(0.18502 0.023053 4.013e-07)
(0.19235 0.017741 -0.0016407)
(0.19235 0.017742 0.0016409)
(0.19345 0.021286 0.00056461)
(0.19345 0.021282 -0.0005688)
(0.16785 0.025195 8.5003e-07)
(0.1763 0.019943 -0.0015634)
(0.1763 0.019943 0.0015648)
(0.17718 0.02415 0.00052588)
(0.17718 0.024147 -0.00052739)
(0.14888 0.02666 1.7426e-06)
(0.15833 0.021708 -0.0014088)
(0.15834 0.021708 0.0014106)
(0.15892 0.026527 0.00045326)
(0.15892 0.026529 -0.00044897)
(0.12868 0.027248 2.2718e-06)
(0.13887 0.022851 -0.0011524)
(0.13887 0.022851 0.0011568)
(0.13911 0.028168 0.00033096)
(0.13911 0.028167 -0.00032762)
(0.10794 0.026877 2.122e-06)
(0.11852 0.023246 -0.0007904)
(0.11852 0.023246 0.0007948)
(0.1184 0.028908 0.00016608)
(0.1184 0.028908 -0.00016162)
(0.08742 0.02557 2.173e-06)
(0.097991 0.022845 -0.00034136)
(0.097992 0.022845 0.00034603)
(0.097535 0.02868 -2.8059e-05)
(0.097535 0.02868 3.2122e-05)
(0.067826 0.023454 2.0808e-06)
(0.078007 0.021686 0.00014535)
(0.078008 0.021686 -0.00014036)
(0.077281 0.027514 -0.0002241)
(0.077281 0.027514 0.00022877)
(0.049763 0.020707 1.7781e-06)
(0.059223 0.019888 0.00063486)
(0.059224 0.019888 -0.00063013)
(0.0583 0.025552 -0.00040044)
(0.0583 0.025552 0.0004046)
(0.033688 0.017493 1.3307e-06)
(0.042168 0.017592 0.001099)
(0.042168 0.017592 -0.0010949)
(0.041114 0.022968 -0.0005433)
(0.041114 0.022968 0.00054635)
(0.019932 0.013941 1.1805e-06)
(0.027233 0.014919 0.0015108)
(0.027233 0.01492 -0.0015079)
(0.026101 0.019895 -0.00065043)
(0.026101 0.019894 0.00065222)
(0.0087211 0.010159 1.1578e-06)
(0.014685 0.011975 0.0018524)
(0.014686 0.011976 -0.0018496)
(0.013516 0.016438 -0.00073572)
(0.013516 0.016437 0.00073695)
(0.00017441 0.0062406 1.1283e-06)
(0.0046506 0.0088656 0.0021122)
(0.0046512 0.0088663 -0.0021101)
(0.0034743 0.012669 -0.00084723)
(0.0034743 0.012675 0.00085531)
(-0.0058449 0.0026074 1.1092e-06)
(-0.0029168 0.0056626 0.0022378)
(-0.0029162 0.0056635 -0.0022357)
(-0.0039775 0.008656 -0.0010351)
(-0.0039775 0.0086524 0.0010337)
(-0.0097536 -0.0002914 8.6448e-07)
(-0.0080412 0.0028615 0.0020777)
(-0.0080408 0.0028626 -0.0020761)
(-0.0088556 0.0049133 -0.0011814)
(-0.0088557 0.0049156 0.0011851)
(-0.011799 -0.0023024 7.1554e-07)
(-0.010966 0.00029508 0.0014747)
(-0.010966 0.00029611 -0.0014732)
(-0.011492 0.0014127 -0.00096429)
(-0.011492 0.0014097 0.00096252)
(-0.010476 -0.0037878 6.5319e-07)
(-0.011421 -0.001756 0.00066878)
(-0.011421 -0.0017554 -0.00066718)
(-0.011773 -0.0017213 -0.00023821)
(-0.011773 -0.0017222 0.00023802)
(-0.0077696 -0.0049744 3.9552e-07)
(-0.0094857 -0.0031555 0.00047297)
(-0.0094856 -0.0031534 -0.00047266)
(-0.0097403 -0.0037604 -0.00027038)
(-0.0097402 -0.0037604 0.00027124)
(-0.004082 -0.0053054 6.2461e-08)
(-0.0063864 -0.0040808 0.00033145)
(-0.0063863 -0.0040803 -0.00033052)
(-0.0063812 -0.00504 -0.00018956)
(-0.0063811 -0.0050397 0.00019011)
(-0.00055042 -0.0045777 4.8484e-08)
(-0.0028182 -0.0041085 8.3074e-05)
(-0.0028179 -0.0041074 -8.2944e-05)
(-0.0024968 -0.0051608 -8.2924e-05)
(-0.0024967 -0.0051618 8.1942e-05)
(0.0022216 -0.0031177 -1.1834e-07)
(0.00075153 -0.0032539 -0.00015835)
(0.00075172 -0.0032531 0.00015845)
(0.0012879 -0.0042498 -1.1944e-05)
(0.0012879 -0.0042511 1.06e-05)
(0.0038755 -0.0013581 -6.2553e-07)
(0.0032111 -0.0019465 -0.00035612)
(0.0032113 -0.0019454 0.00035526)
(0.0038351 -0.0027117 8.2217e-05)
(0.003835 -0.0027125 -8.399e-05)
(0.0041491 0.00025797 -7.2264e-07)
(0.004228 -0.00054969 -0.00043279)
(0.0042285 -0.00054826 0.00043063)
(0.004807 -0.0009096 0.0001524)
(0.0048068 -0.00090864 -0.00015357)
(0.0035437 0.0015969 -2.5488e-07)
(0.0041541 0.00078608 -0.00027248)
(0.0041548 0.00078777 0.00027072)
(0.0046477 0.00076893 7.1649e-05)
(0.0046476 0.00076904 -7.3364e-05)
(0.0018397 0.0026264 -1.0958e-07)
(0.0029706 0.001791 -0.0003497)
(0.002971 0.0017926 0.00034883)
(0.0033647 0.002075 0.00012298)
(0.0033649 0.0020756 -0.00012351)
(-0.00057058 0.0031287 -2.7572e-07)
(0.00082605 0.0024849 -0.00035661)
(0.00082621 0.0024861 0.00035559)
(0.0010543 0.0029729 0.00012132)
(0.0010546 0.0029719 -0.00012361)
(-0.0031822 0.0030853 -2.9288e-07)
(-0.001744 0.0026798 -0.00030452)
(-0.0017436 0.0026808 0.00030356)
(-0.0016848 0.0032514 9.3945e-05)
(-0.0016848 0.0032514 -9.5131e-05)
(-0.0055563 0.0027058 -3.8613e-07)
(-0.0042055 0.0025134 -0.00019543)
(-0.004205 0.0025146 0.0001947)
(-0.0042513 0.0030837 5.5696e-05)
(-0.0042514 0.0030846 -5.5902e-05)
(-0.0075471 0.0021973 -4.9702e-07)
(-0.0063703 0.0021611 -0.00011379)
(-0.0063699 0.0021626 0.00011287)
(-0.006464 0.0026584 1.4461e-05)
(-0.006464 0.0026583 -1.5812e-05)
(-0.0090844 0.0017348 -7.7423e-07)
(-0.0081269 0.0017566 -4.419e-05)
(-0.0081267 0.0017583 4.2732e-05)
(-0.0082212 0.0021532 -2.0393e-05)
(-0.0082211 0.0021534 1.9039e-05)
(-0.010193 0.0014547 -1.2423e-06)
(-0.0094747 0.0014394 8.2292e-07)
(-0.0094745 0.0014408 -3.2066e-06)
(-0.0095106 0.0017263 -4.7985e-05)
(-0.0095106 0.0017262 4.5419e-05)
(-0.011118 0.0014705 -1.504e-06)
(-0.010553 0.0013069 9.5962e-06)
(-0.010553 0.0013086 -1.2748e-05)
(-0.010448 0.0015147 -8.238e-05)
(-0.010448 0.0015144 7.885e-05)
(-0.01214 0.0016649 -1.554e-06)
(-0.011622 0.0014286 -1.7782e-05)
(-0.011622 0.0014303 1.4313e-05)
(-0.011324 0.0016277 -9.3386e-05)
(-0.011324 0.0016272 8.9263e-05)
(-0.013308 0.0016195 -1.3424e-06)
(-0.01291 0.0015125 -9.6699e-05)
(-0.01291 0.001514 9.3274e-05)
(-0.012389 0.0017285 -4.1994e-05)
(-0.012389 0.0017276 3.7646e-05)
(-0.014479 0.00037636 -8.4951e-07)
(-0.014056 0.0012001 -9.6339e-05)
(-0.014056 0.0012013 9.367e-05)
(-0.013392 0.0014849 2.6402e-05)
(-0.013392 0.001484 -3.0061e-05)
(-0.013719 -0.0013651 -3.8057e-07)
(-0.015126 -0.00078932 -6.734e-05)
(-0.015126 -0.00078867 6.5812e-05)
(-0.014486 -0.00095677 0.00012434)
(-0.014486 -0.00095686 -0.00012593)
(-0.012153 -0.001947 -3.6432e-06)
(-0.012153 -0.0019468 3.088e-06)
(-0.012175 -0.0022784 0.00010623)
(-0.012175 -0.0022785 -0.00010692)
(0.2495 0.00019804 -0.00033599)
(0.24943 7.9452e-05 -0.00011875)
(0.24944 -1.937e-05 -2.744e-05)
(0.24972 2.6609e-05 -0.00012989)
(0.24922 0.00047003 -0.00069412)
(0.24919 0.00032922 -0.00037726)
(0.24927 2.976e-05 -0.00011329)
(0.24954 8.7259e-05 -0.00032401)
(0.24873 0.00077657 -0.0010398)
(0.24876 0.00065826 -0.00063986)
(0.2489 0.00016927 -0.00023612)
(0.24917 0.00022639 -0.00046543)
(0.24804 0.0011525 -0.0013022)
(0.24813 0.0010088 -0.0008632)
(0.24835 0.00036663 -0.00037654)
(0.24863 0.00037937 -0.00050002)
(0.24698 0.0017285 -0.0014256)
(0.24722 0.0015007 -0.00099257)
(0.2475 0.00079355 -0.00052719)
(0.24783 0.00073923 -0.00047317)
(0.24496 0.0026417 -0.0014862)
(0.24565 0.0022467 -0.0010151)
(0.24595 0.001592 -0.00066121)
(0.2464 0.0016468 -0.00057872)
(0.24177 0.0039034 -0.0016299)
(0.24308 0.0031744 -0.0012738)
(0.24333 0.0026681 -0.00072813)
(0.24394 0.0029125 -0.00066815)
(0.23715 0.0054373 -0.0018518)
(0.23921 0.0044617 -0.0016111)
(0.23943 0.0039179 -0.00082228)
(0.24016 0.0044336 -0.00081698)
(0.23078 0.0072028 -0.0020826)
(0.23372 0.0059608 -0.0020078)
(0.23392 0.0054187 -0.00093145)
(0.23474 0.0062379 -0.00098226)
(0.22241 0.0091299 -0.0023019)
(0.22638 0.0076283 -0.0024233)
(0.22655 0.0071263 -0.0010454)
(0.22742 0.0083048 -0.00117)
(0.21196 0.011177 -0.0024769)
(0.217 0.009432 -0.002803)
(0.21714 0.0089564 -0.0011662)
(0.21802 0.010527 -0.0013461)
(0.19923 0.013255 -0.0025925)
(0.20545 0.011274 -0.0031995)
(0.20555 0.01092 -0.001264)
(0.2064 0.012907 -0.0014834)
(0.18427 0.015178 -0.0026537)
(0.19167 0.0131 -0.0035056)
(0.19172 0.012842 -0.0013541)
(0.1925 0.015267 -0.0015932)
(0.16722 0.016802 -0.0026243)
(0.17573 0.014718 -0.0037485)
(0.17575 0.014619 -0.0014545)
(0.17638 0.017417 -0.0016737)
(0.14846 0.017984 -0.0024762)
(0.15791 0.016001 -0.0038675)
(0.15788 0.016098 -0.0015132)
(0.15833 0.019209 -0.0016827)
(0.1285 0.018581 -0.0022123)
(0.13863 0.016815 -0.0038334)
(0.13857 0.017137 -0.0015302)
(0.13879 0.02046 -0.0016316)
(0.10801 0.018514 -0.0018328)
(0.11848 0.017064 -0.0036265)
(0.1184 0.017628 -0.0015037)
(0.11838 0.021036 -0.0015123)
(0.087703 0.017801 -0.0013567)
(0.098147 0.016712 -0.0032536)
(0.098045 0.017529 -0.0014308)
(0.097804 0.02088 -0.0013185)
(0.068276 0.01653 -0.00080983)
(0.078327 0.0158 -0.00275)
(0.078211 0.016858 -0.0012978)
(0.077787 0.020035 -0.0010575)
(0.050333 0.014822 -0.00021505)
(0.059666 0.014419 -0.0021504)
(0.059549 0.015693 -0.0011031)
(0.058991 0.018603 -0.00073143)
(0.034332 0.0128 0.00039487)
(0.042699 0.012672 -0.0015022)
(0.042584 0.014146 -0.00085703)
(0.041942 0.016726 -0.00035643)
(0.020605 0.010571 0.00098557)
(0.027822 0.010671 -0.00084536)
(0.027706 0.012311 -0.00057393)
(0.027025 0.014529 2.9376e-05)
(0.0093856 0.0082455 0.0015336)
(0.015303 0.0085214 -0.00021156)
(0.015184 0.010277 -0.00026617)
(0.014506 0.012113 0.00038114)
(0.00077548 0.0059334 0.0020006)
(0.0052731 0.0063089 0.00035445)
(0.0051472 0.0081463 5.6023e-05)
(0.0045163 0.0095651 0.00064915)
(-0.0052591 0.003894 0.0022965)
(-0.0023401 0.0041234 0.00080452)
(-0.0024841 0.005987 0.00037929)
(-0.0029657 0.0069909 0.00075566)
(-0.0091769 0.0021298 0.0022362)
(-0.007455 0.0023279 0.0011151)
(-0.0076389 0.0041152 0.00063687)
(-0.0079164 0.0049102 0.00059197)
(-0.011095 0.00041911 0.0017212)
(-0.010273 0.00063657 0.0010309)
(-0.010495 0.002164 0.00074167)
(-0.010607 0.0027542 0.00029032)
(-0.0098645 -0.0010783 0.001186)
(-0.010795 -0.00075669 0.0008076)
(-0.010948 -1.7606e-05 0.00072854)
(-0.010976 4.3824e-05 0.00038487)
(-0.007453 -0.002102 0.00096343)
(-0.0090988 -0.0019324 0.00076455)
(-0.0091649 -0.0015346 0.00065728)
(-0.009135 -0.001771 0.00034398)
(-0.0039728 -0.0025238 0.00077425)
(-0.0061908 -0.0025968 0.00080165)
(-0.0062538 -0.0022836 0.00067553)
(-0.0060461 -0.0027192 0.00036198)
(-0.00061107 -0.0022162 0.00049328)
(-0.0028139 -0.0027008 0.00062182)
(-0.0028858 -0.0025477 0.0005937)
(-0.0024249 -0.0029474 0.0002543)
(0.002076 -0.0013759 0.00019283)
(0.00060578 -0.0020451 0.0003444)
(0.00051602 -0.002006 0.00048105)
(0.0011438 -0.0022953 8.4542e-05)
(0.0037292 -0.00044413 -9.4032e-05)
(0.0030382 -0.0011411 3.5478e-05)
(0.002954 -0.0011753 0.0003078)
(0.0036055 -0.0013123 -3.88e-05)
(0.0041028 0.00040185 -0.00028096)
(0.0040546 -0.00026278 -0.00020393)
(0.0040105 -0.00031879 9.3022e-05)
(0.0046083 -0.00025805 -0.0001391)
(0.0033922 0.0012071 -0.00039498)
(0.0039739 0.00060221 -0.00028475)
(0.0039063 0.00057783 -9.8456e-05)
(0.0044709 0.00072346 -0.00018187)
(0.0017235 0.0018841 -0.00047162)
(0.0028205 0.0013545 -0.00047897)
(0.0027052 0.0013383 -0.00014705)
(0.0032184 0.0016535 -0.00026389)
(-0.00057996 0.0022271 -0.00046979)
(0.0007554 0.0018564 -0.0005618)
(0.00064076 0.0018565 -0.00018476)
(0.0010268 0.0022862 -0.00029849)
(-0.0031094 0.0022206 -0.00038702)
(-0.001731 0.0019897 -0.00054893)
(-0.001834 0.0020253 -0.00018477)
(-0.0015809 0.0024897 -0.00029775)
(-0.005411 0.0019943 -0.00028322)
(-0.0041288 0.0018616 -0.00044342)
(-0.0042303 0.0019588 -0.00016222)
(-0.0040541 0.0023647 -0.0002318)
(-0.0073748 0.0016772 -0.00020056)
(-0.006256 0.0016083 -0.00035109)
(-0.0063552 0.0017446 -0.00013881)
(-0.0062055 0.0020681 -0.00019816)
(-0.0089218 0.0013697 -0.00013393)
(-0.0080127 0.0013153 -0.0002538)
(-0.0081063 0.0014742 -0.00011573)
(-0.0079513 0.0017031 -0.00015967)
(-0.010114 0.0011712 -0.00010862)
(-0.0094025 0.0010888 -0.00018477)
(-0.0095027 0.0012445 -9.7191e-05)
(-0.0092863 0.0013814 -0.00013591)
(-0.011157 0.0011498 -0.00012173)
(-0.010574 0.00099745 -0.00016988)
(-0.010683 0.0011328 -9.8097e-05)
(-0.010345 0.001212 -0.00015296)
(-0.012325 0.0012164 -0.00017269)
(-0.011743 0.0010773 -0.00018748)
(-0.011852 0.0011627 -0.00010301)
(-0.01136 0.0012626 -0.00017973)
(-0.013597 0.0011058 -0.00017913)
(-0.01312 0.0011272 -0.0002537)
(-0.013211 0.0011712 -0.00011884)
(-0.012574 0.0013042 -0.00020463)
(-0.014734 0.00011034 -8.7903e-05)
(-0.014279 0.00084902 -0.00018831)
(-0.014332 0.00088016 -7.0861e-05)
(-0.013635 0.0010696 -0.00011851)
(-0.013883 -0.0012562 4.4358e-05)
(-0.015391 -0.00069755 0.00010301)
(-0.015445 -0.00077143 2.3327e-05)
(-0.014811 -0.00091468 0.00012503)
(-0.012133 -0.0016194 0.00030807)
(-0.012104 -0.001699 0.00010564)
(-0.012 -0.0019601 0.00023423)
(0.24941 0.00016624 -0.00020391)
(0.24937 6.7145e-05 -9.4676e-05)
(0.24936 -1.5417e-07 -2.4736e-05)
(0.24958 3.886e-05 -7.3465e-05)
(0.24911 0.00041701 -0.0004229)
(0.24912 0.00027637 -0.00032438)
(0.24918 8.0529e-05 -6.8642e-05)
(0.24938 0.00015059 -0.00018289)
(0.24857 0.00071699 -0.00063644)
(0.24867 0.00054453 -0.00057952)
(0.24878 0.00023452 -0.00012068)
(0.24898 0.00034094 -0.00028994)
(0.24778 0.0010956 -0.0008151)
(0.24799 0.00082884 -0.00081813)
(0.24817 0.00043528 -0.00016368)
(0.24839 0.00057454 -0.00037324)
(0.24655 0.0016649 -0.00093664)
(0.24698 0.0012041 -0.0010534)
(0.24719 0.00081225 -0.00021223)
(0.24747 0.00096919 -0.00045224)
(0.24446 0.0024845 -0.0010979)
(0.24533 0.00175 -0.0012826)
(0.24554 0.0015476 -0.00034262)
(0.24594 0.0017693 -0.0006467)
(0.24129 0.0035349 -0.0014526)
(0.24273 0.0025693 -0.0016245)
(0.2429 0.0023545 -0.00047352)
(0.24345 0.0028336 -0.00098514)
(0.23661 0.0047965 -0.0019559)
(0.23883 0.0035911 -0.0021999)
(0.23897 0.0034041 -0.00082828)
(0.23964 0.0041255 -0.0015329)
(0.23018 0.0062404 -0.0024947)
(0.23329 0.0047922 -0.0028478)
(0.23341 0.0046186 -0.0012172)
(0.23416 0.0056431 -0.0021464)
(0.22182 0.0078039 -0.0030514)
(0.22593 0.0061211 -0.0035222)
(0.22602 0.0059616 -0.0016148)
(0.22681 0.00734 -0.0027786)
(0.21134 0.0094427 -0.0036126)
(0.21655 0.0075243 -0.0042302)
(0.21659 0.0074474 -0.0020852)
(0.2174 0.0091766 -0.0034711)
(0.19866 0.011086 -0.0041465)
(0.20501 0.0089876 -0.0049317)
(0.20501 0.0089682 -0.0025282)
(0.20581 0.011102 -0.004169)
(0.18376 0.012629 -0.0046116)
(0.19126 0.010394 -0.0055984)
(0.19123 0.010505 -0.0030004)
(0.19197 0.012999 -0.0048482)
(0.16682 0.013948 -0.0049612)
(0.17539 0.011659 -0.0061539)
(0.17533 0.011897 -0.0033863)
(0.17596 0.014746 -0.0054419)
(0.14819 0.014905 -0.0051518)
(0.15766 0.01266 -0.0065459)
(0.15758 0.013044 -0.0036916)
(0.15804 0.016179 -0.0059106)
(0.12839 0.0154 -0.0051453)
(0.13849 0.013287 -0.0067247)
(0.1384 0.013838 -0.0038835)
(0.13866 0.01716 -0.0061974)
(0.10806 0.015378 -0.0049296)
(0.11846 0.013466 -0.006653)
(0.11838 0.014205 -0.0039384)
(0.11842 0.017592 -0.0062686)
(0.087903 0.014837 -0.0045198)
(0.098242 0.013173 -0.0063232)
(0.098176 0.014106 -0.0038467)
(0.098001 0.017432 -0.0061108)
(0.068601 0.013828 -0.0039496)
(0.078526 0.012437 -0.0057667)
(0.078479 0.01355 -0.0036248)
(0.078125 0.016699 -0.005741)
(0.050745 0.012445 -0.0032592)
(0.059947 0.011328 -0.0050261)
(0.059923 0.012597 -0.0032943)
(0.059432 0.015476 -0.0051911)
(0.034816 0.010787 -0.0024966)
(0.043039 0.0099348 -0.0041537)
(0.043036 0.011333 -0.0028768)
(0.042455 0.013877 -0.0045022)
(0.02115 0.0089435 -0.0017189)
(0.028207 0.0083395 -0.0032097)
(0.028221 0.0098391 -0.0024075)
(0.027595 0.012009 -0.0037231)
(0.0099568 0.0070001 -0.00097485)
(0.015718 0.0066351 -0.0022475)
(0.01574 0.0081903 -0.0019287)
(0.01511 0.00996 -0.0029252)
(0.0013444 0.0050374 -0.00030329)
(0.0057045 0.0049019 -0.0013179)
(0.0057273 0.0064561 -0.0014595)
(0.0051288 0.007812 -0.0021639)
(-0.0046054 0.0031949 0.00025979)
(-0.0019232 0.0032076 -0.0004684)
(-0.0019094 0.0046839 -0.0010205)
(-0.0024255 0.0056132 -0.0014501)
(-0.0084718 0.0015198 0.00059357)
(-0.0070297 0.0017267 0.00020886)
(-0.0070421 0.003009 -0.00062393)
(-0.0074273 0.0036105 -0.0008193)
(-0.010188 -5.0381e-05 0.00060523)
(-0.009792 0.00045957 0.00065457)
(-0.0098049 0.0013861 -0.00039824)
(-0.010052 0.0017726 -0.00048119)
(-0.0093989 -0.0013885 0.00060768)
(-0.010386 -0.00062549 0.00080555)
(-0.010345 -0.00034283 -0.00016744)
(-0.010508 -0.00043638 8.0351e-05)
(-0.0072481 -0.0022629 0.00076649)
(-0.0088788 -0.0016376 0.0010298)
(-0.0088532 -0.0015726 0.00010551)
(-0.0089179 -0.0018861 0.00051444)
(-0.0039661 -0.0026286 0.00079406)
(-0.0060845 -0.0021202 0.0012299)
(-0.0061284 -0.002112 0.00027836)
(-0.0059964 -0.0026372 0.00080603)
(-0.00064277 -0.0024059 0.00059687)
(-0.0028171 -0.0022142 0.0011333)
(-0.0029107 -0.0023492 0.00030985)
(-0.0025291 -0.0028399 0.00080465)
(0.00192 -0.0017166 0.00028103)
(0.00049972 -0.0016872 0.00079001)
(0.00035918 -0.0019336 0.00020998)
(0.00091804 -0.0022897 0.0005805)
(0.0034993 -0.00092339 -3.788e-05)
(0.0029037 -0.00096887 0.0003654)
(0.0027566 -0.0012728 3.5574e-05)
(0.003348 -0.0014659 0.00028339)
(0.003893 -0.00011788 -0.00026316)
(0.0038898 -0.00026385 -2.2326e-05)
(0.0037603 -0.00058578 -9.9471e-05)
(0.0043285 -0.00056555 -2.4857e-05)
(0.0032274 0.00064805 -0.00047032)
(0.0038172 0.00039184 -0.00032672)
(0.003666 0.00026019 -0.00026203)
(0.0042192 0.00039017 -0.00027792)
(0.0016088 0.0012385 -0.00065735)
(0.002712 0.0010085 -0.00065541)
(0.00255 0.0008841 -0.00042146)
(0.0030449 0.0011776 -0.00057334)
(-0.00062185 0.0015332 -0.00072674)
(0.00070233 0.0014051 -0.00081944)
(0.0005694 0.0013044 -0.00051943)
(0.00093914 0.0017095 -0.00073887)
(-0.0030734 0.0015485 -0.00068758)
(-0.001731 0.0015061 -0.00085356)
(-0.0018401 0.0014337 -0.00054457)
(-0.00159 0.0018653 -0.00078987)
(-0.0053362 0.0013985 -0.00058835)
(-0.0040945 0.001414 -0.00075234)
(-0.0041877 0.0013931 -0.00050761)
(-0.004011 0.0017729 -0.00072308)
(-0.0072896 0.0011721 -0.00047846)
(-0.0061992 0.0012258 -0.00063412)
(-0.0062881 0.001224 -0.0004422)
(-0.006141 0.0015412 -0.00062614)
(-0.0088658 0.00096206 -0.00037687)
(-0.0079602 0.0010057 -0.00050299)
(-0.0080522 0.0010243 -0.00036705)
(-0.0078958 0.0012624 -0.00051129)
(-0.01012 0.00084601 -0.00031501)
(-0.0093811 0.00083816 -0.0004009)
(-0.0094925 0.00086761 -0.00030001)
(-0.0092721 0.0010363 -0.00041341)
(-0.011233 0.00085737 -0.0003031)
(-0.010609 0.00077461 -0.00036841)
(-0.010742 0.00080856 -0.00026253)
(-0.010406 0.00093997 -0.00037468)
(-0.012468 0.00092502 -0.00033156)
(-0.011833 0.00082395 -0.00038704)
(-0.011978 0.00084848 -0.00025663)
(-0.011509 0.0010004 -0.00038952)
(-0.013769 0.00082442 -0.00030905)
(-0.013245 0.00087026 -0.00044361)
(-0.01337 0.00087028 -0.00025788)
(-0.012793 0.001047 -0.00041185)
(-0.014871 -2.5044e-06 -4.2021e-05)
(-0.01439 0.00063403 -0.00031758)
(-0.01446 0.00062299 -0.00019334)
(-0.013864 0.00081663 -0.0003145)
(-0.013994 -0.0010887 0.0003387)
(-0.015513 -0.00058432 0.0002556)
(-0.015604 -0.00067617 0.00018353)
(-0.015049 -0.00080906 0.00030771)
(-0.01215 -0.001313 0.00063688)
(-0.012153 -0.0014021 0.00044017)
(-0.012033 -0.001647 0.00064503)
(0.24938 0.00018083 -0.00021112)
(0.24936 8.33e-05 -8.3384e-05)
(0.24932 1.8086e-05 -3.4413e-05)
(0.24955 6.1366e-05 -9.2251e-05)
(0.24907 0.00042436 -0.00045996)
(0.24911 0.00030872 -0.00030886)
(0.24914 0.0001074 -0.00012538)
(0.24934 0.00020169 -0.00026948)
(0.24851 0.00069691 -0.00072008)
(0.24864 0.00057556 -0.0005759)
(0.24873 0.00024595 -0.00024068)
(0.24893 0.00039351 -0.00046816)
(0.24768 0.0010056 -0.00098744)
(0.24795 0.00084118 -0.00084181)
(0.24809 0.000408 -0.00036489)
(0.24831 0.00060461 -0.00066373)
(0.24639 0.001405 -0.0012827)
(0.24692 0.0011515 -0.0011523)
(0.24707 0.00067578 -0.00055204)
(0.24734 0.00093647 -0.00093175)
(0.24427 0.0019609 -0.0016822)
(0.24524 0.0015358 -0.0015366)
(0.24538 0.0011384 -0.00086853)
(0.24575 0.0015007 -0.0013448)
(0.24107 0.0027335 -0.0022628)
(0.24262 0.0021067 -0.0021079)
(0.24271 0.0017122 -0.0012666)
(0.24322 0.0021769 -0.001826)
(0.23635 0.0036947 -0.0029831)
(0.23871 0.0028887 -0.0028902)
(0.23874 0.0024861 -0.001817)
(0.23937 0.0032117 -0.0026065)
(0.22989 0.0047753 -0.0037726)
(0.23315 0.0037875 -0.0037899)
(0.23316 0.0034087 -0.002475)
(0.23385 0.0044188 -0.0034996)
(0.22151 0.0059413 -0.0046012)
(0.22578 0.0047578 -0.0047607)
(0.22574 0.0044424 -0.0032067)
(0.22648 0.0057481 -0.0044616)
(0.21104 0.0071589 -0.0054599)
(0.21639 0.0057816 -0.0057844)
(0.21631 0.0055482 -0.0039696)
(0.21707 0.0071837 -0.0054831)
(0.19837 0.0083719 -0.0063076)
(0.20486 0.0068341 -0.0068367)
(0.20474 0.0066957 -0.0047639)
(0.20549 0.0086589 -0.0065332)
(0.1835 0.0094974 -0.0070678)
(0.19112 0.0078427 -0.0078444)
(0.19098 0.0078157 -0.0055196)
(0.19167 0.010115 -0.0075513)
(0.16662 0.010436 -0.0076745)
(0.17527 0.0087207 -0.0087214)
(0.17512 0.0088403 -0.0062079)
(0.1757 0.011434 -0.0084491)
(0.14806 0.011092 -0.0080689)
(0.15757 0.009389 -0.0093884)
(0.15742 0.00967 -0.0067565)
(0.15785 0.012496 -0.0091515)
(0.12834 0.011389 -0.0081954)
(0.13844 0.0097724 -0.0097708)
(0.13831 0.010224 -0.0071074)
(0.13855 0.013196 -0.009587)
(0.10808 0.011285 -0.0080213)
(0.11845 0.009814 -0.0098109)
(0.11837 0.010445 -0.0072218)
(0.11839 0.013459 -0.0096966)
(0.088002 0.010784 -0.0075586)
(0.098272 0.0094958 -0.0094915)
(0.098234 0.010312 -0.0070899)
(0.098063 0.013254 -0.0094568)
(0.068762 0.0099304 -0.0068485)
(0.078592 0.0088516 -0.0088465)
(0.078604 0.0098361 -0.0067199)
(0.078261 0.012602 -0.0088966)
(0.050958 0.0087924 -0.0059443)
(0.060041 0.0079331 -0.007928)
(0.060102 0.0090678 -0.0061518)
(0.059628 0.01157 -0.0080628)
(0.035054 0.0074505 -0.0049015)
(0.043152 0.0068092 -0.0068047)
(0.043254 0.0080689 -0.0054346)
(0.042692 0.010244 -0.0070245)
(0.021405 0.0059874 -0.0037805)
(0.028331 0.0055472 -0.0055445)
(0.028463 0.0069076 -0.0046072)
(0.027855 0.0087186 -0.0058392)
(0.010225 0.0044767 -0.0026496)
(0.01585 0.0042233 -0.0042217)
(0.015998 0.0056511 -0.0037246)
(0.015387 0.0070809 -0.0045887)
(0.0016126 0.0029863 -0.0015682)
(0.0058418 0.0029042 -0.0029037)
(0.0059933 0.0043551 -0.002832)
(0.0054175 0.0054005 -0.0033417)
(-0.0043614 0.0016335 -0.00062522)
(-0.0017891 0.0016504 -0.0016504)
(-0.0016508 0.0030657 -0.0019625)
(-0.0021314 0.0037184 -0.0021319)
(-0.0081499 0.00050312 0.00010622)
(-0.0069021 0.00060782 -0.00060789)
(-0.0068018 0.0018692 -0.0011633)
(-0.0071414 0.0022242 -0.0011299)
(-0.0098495 -0.00036634 0.00060391)
(-0.0096751 -0.0002117 0.00021123)
(-0.009605 0.00083445 -0.00050352)
(-0.0097867 0.00092312 -0.00031293)
(-0.0092887 -0.0010685 0.0010334)
(-0.010301 -0.00075892 0.00075925)
(-0.010199 -0.00017152 0.00022806)
(-0.0103 -0.00037542 0.00053789)
(-0.0071382 -0.0015953 0.0013926)
(-0.0088262 -0.0013431 0.0013431)
(-0.0087588 -0.00097712 0.00082885)
(-0.008779 -0.0013055 0.0011744)
(-0.0039839 -0.0017963 0.0014785)
(-0.0060477 -0.0016451 0.0016446)
(-0.0060734 -0.0013218 0.0010655)
(-0.0059092 -0.0018509 0.0015278)
(-0.00067893 -0.0015759 0.0012462)
(-0.0028115 -0.0016303 0.0016295)
(-0.0029106 -0.0014649 0.0011336)
(-0.0025178 -0.0019622 0.0015287)
(0.0018437 -0.0010114 0.00080274)
(0.00046606 -0.0011927 0.0011912)
(0.00028598 -0.001157 0.00090009)
(0.0008483 -0.0015205 0.001147)
(0.0033733 -0.00036884 0.00032165)
(0.0028587 -0.0006226 0.00062126)
(0.0026557 -0.00064214 0.00055779)
(0.0032532 -0.00085606 0.00065516)
(0.0038115 0.00023341 -9.8256e-05)
(0.0038392 -6.912e-05 6.7681e-05)
(0.0036552 -0.00011667 0.00020376)
(0.004223 -0.00016607 0.00013118)
(0.0031743 0.00077694 -0.00048715)
(0.0037755 0.00039939 -0.00040085)
(0.0035797 0.00043192 -0.00015369)
(0.0041226 0.00054419 -0.00035603)
(0.0015932 0.0011987 -0.00079387)
(0.0026829 0.00086354 -0.00086461)
(0.0024892 0.00088118 -0.00049048)
(0.0029723 0.001141 -0.00082194)
(-0.00064142 0.001401 -0.00092324)
(0.00068625 0.0011292 -0.0011282)
(0.00053556 0.0011777 -0.00067656)
(0.00089805 0.0015334 -0.001072)
(-0.0030554 0.0013901 -0.00089976)
(-0.0017283 0.0011961 -0.0011951)
(-0.0018384 0.001266 -0.00073981)
(-0.0015887 0.0016428 -0.0011541)
(-0.0052974 0.0012587 -0.00078064)
(-0.0040837 0.001095 -0.0010935)
(-0.004168 0.0012114 -0.00068963)
(-0.0039889 0.0015369 -0.0010434)
(-0.0072374 0.0010747 -0.00064325)
(-0.0061773 0.0009461 -0.00094433)
(-0.0062526 0.0010797 -0.00058924)
(-0.0060984 0.0013456 -0.00089197)
(-0.0088225 0.00089509 -0.00051369)
(-0.0079381 0.00077375 -0.00077179)
(-0.0080137 0.00091486 -0.0004775)
(-0.0078516 0.0011147 -0.00072336)
(-0.010108 0.00078153 -0.00043951)
(-0.0093678 0.00063667 -0.00063466)
(-0.0094706 0.00077735 -0.00038757)
(-0.009247 0.00091904 -0.00057809)
(-0.01126 0.00076058 -0.00043293)
(-0.010615 0.00058597 -0.00058412)
(-0.010755 0.00070904 -0.00035298)
(-0.010421 0.0008243 -0.00052116)
(-0.012525 0.00079289 -0.0004754)
(-0.011859 0.00060919 -0.00060751)
(-0.012027 0.00070879 -0.00035957)
(-0.011564 0.00084934 -0.00053961)
(-0.013847 0.00070129 -0.00043093)
(-0.013283 0.0006605 -0.00065911)
(-0.013439 0.00071737 -0.00039196)
(-0.01288 0.00088197 -0.00059204)
(-0.014931 6.8051e-05 -5.0761e-06)
(-0.014423 0.00047262 -0.00047172)
(-0.014516 0.00051554 -0.00027315)
(-0.01395 0.00067917 -0.00044238)
(-0.014027 -0.00080757 0.00055473)
(-0.015543 -0.00039908 0.00040024)
(-0.01565 -0.00045377 0.00035979)
(-0.015139 -0.00058315 0.00043968)
(-0.012145 -0.00096258 0.00096296)
(-0.012145 -0.0010872 0.00070924)
(-0.012028 -0.001326 0.00090936)
(0.24938 0.00021095 -0.00018086)
(0.24937 9.4527e-05 -6.7159e-05)
(0.24932 3.4429e-05 -1.818e-05)
(0.24955 9.2313e-05 -6.1431e-05)
(0.24907 0.00045966 -0.00042446)
(0.24912 0.00032416 -0.0002763)
(0.24914 0.00012554 -0.00010748)
(0.24934 0.00026977 -0.00020177)
(0.24851 0.00071959 -0.00069729)
(0.24867 0.00057918 -0.0005446)
(0.24873 0.00024086 -0.00024613)
(0.24893 0.00046848 -0.00039377)
(0.24768 0.00098678 -0.0010063)
(0.24799 0.00081769 -0.00082938)
(0.24809 0.00036501 -0.00040841)
(0.24831 0.00066386 -0.00060531)
(0.24639 0.001282 -0.0014058)
(0.24698 0.0010529 -0.0012047)
(0.24707 0.0005521 -0.00067628)
(0.24734 0.00093197 -0.00093745)
(0.24427 0.0016814 -0.0019618)
(0.24533 0.0012822 -0.0017506)
(0.24538 0.00086837 -0.0011388)
(0.24575 0.0013448 -0.0015015)
(0.24107 0.0022616 -0.0027347)
(0.24273 0.0016238 -0.0025701)
(0.24271 0.0012661 -0.001713)
(0.24322 0.001826 -0.0021783)
(0.23635 0.0029813 -0.0036966)
(0.23883 0.002199 -0.0035922)
(0.23874 0.0018163 -0.0024873)
(0.23937 0.0026061 -0.0032135)
(0.22989 0.0037703 -0.0047777)
(0.23329 0.002846 -0.0047938)
(0.23316 0.0024736 -0.003411)
(0.23386 0.0034991 -0.0044219)
(0.22151 0.0045987 -0.0059437)
(0.22593 0.00352 -0.0061232)
(0.22574 0.0032054 -0.004445)
(0.22648 0.0044612 -0.0057514)
(0.21104 0.0054576 -0.0071611)
(0.21655 0.0042282 -0.0075259)
(0.21631 0.0039684 -0.0055508)
(0.21707 0.005483 -0.0071871)
(0.19837 0.0063058 -0.0083735)
(0.20501 0.0049298 -0.0089888)
(0.20474 0.0047631 -0.0066981)
(0.20549 0.0065338 -0.0086624)
(0.1835 0.0070668 -0.0094981)
(0.19126 0.0055971 -0.010395)
(0.19098 0.0055192 -0.0078172)
(0.19166 0.007552 -0.010117)
(0.16662 0.0076746 -0.010436)
(0.17539 0.0061531 -0.011659)
(0.17512 0.0062077 -0.0088409)
(0.1757 0.0084496 -0.011435)
(0.14806 0.00807 -0.01109)
(0.15766 0.0065452 -0.012659)
(0.15742 0.0067575 -0.0096702)
(0.15785 0.0091522 -0.012495)
(0.12834 0.0081974 -0.011386)
(0.13849 0.0067251 -0.013286)
(0.13831 0.0071083 -0.010222)
(0.13855 0.0095873 -0.013194)
(0.10808 0.0080246 -0.011281)
(0.11846 0.0066543 -0.013464)
(0.11836 0.0072237 -0.010442)
(0.11839 0.0096974 -0.013455)
(0.088002 0.0075629 -0.010779)
(0.098241 0.0063257 -0.013169)
(0.098234 0.0070928 -0.010309)
(0.098062 0.0094584 -0.013248)
(0.068762 0.0068532 -0.0099253)
(0.078526 0.0057703 -0.012433)
(0.078603 0.0067234 -0.0098316)
(0.078261 0.0088988 -0.012596)
(0.050958 0.0059487 -0.0087876)
(0.059947 0.0050299 -0.011324)
(0.060102 0.0061553 -0.0090632)
(0.059628 0.008065 -0.011565)
(0.035055 0.0049048 -0.0074469)
(0.043039 0.004157 -0.0099313)
(0.043255 0.0054377 -0.0080649)