/*--------------------------------*- C++ -*----------------------------------*\
| =========                 |                                                 |
| \\      /  F ield         | OpenFOAM: The Open Source CFD Toolbox           |
|  \\    /   O peration     | Version:  4.1                                   |
|   \\  /    A nd           | Web:      www.OpenFOAM.org                      |
|    \\/     M anipulation  |                                                 |
\*---------------------------------------------------------------------------*/
FoamFile
{
    version     2.0;
    format      ascii;
    class       pointVectorField;
    location    "0.0048";
    object      pointDisplacement_Next;
}
// * * * * * * * * * * * * * * * * * * * * * * * * * * * * * * * * * * * * * //

dimensions      [0 1 0 0 0 0 0];

internalField   uniform (0 0 0);

boundaryField
{
    inlet
    {
        type            fixedValue;
        value           nonuniform 0();
    }
    outlet
    {
        type            fixedValue;
        value           nonuniform 0();
    }
    mantle
    {
        type            fixedValue;
        value           nonuniform List<vector> 
416
(
(-6.6841e-05 -5.7361e-05 -6.3227e-10)
(-6.8284e-05 -4.9227e-05 -1.5103e-11)
(-6.8302e-05 -4.8244e-05 9.5479e-06)
(-6.6877e-05 -5.6169e-05 1.1098e-05)
(-6.8327e-05 -4.5436e-05 1.8816e-05)
(-6.692e-05 -5.2838e-05 2.1872e-05)
(-6.8317e-05 -4.0997e-05 2.7448e-05)
(-6.6896e-05 -4.7674e-05 3.1926e-05)
(-6.8305e-05 -3.4969e-05 3.4968e-05)
(-6.6867e-05 -4.0687e-05 4.0687e-05)
(-6.8317e-05 -2.7448e-05 4.0996e-05)
(-6.6896e-05 -3.1926e-05 4.7673e-05)
(-6.8327e-05 -1.8817e-05 4.5434e-05)
(-6.692e-05 -2.1872e-05 5.2836e-05)
(-6.8302e-05 -9.5483e-06 4.8242e-05)
(-6.6877e-05 -1.1099e-05 5.6167e-05)
(-6.8284e-05 -6.8596e-10 4.9225e-05)
(-6.6841e-05 -9.9318e-11 5.7359e-05)
(-6.9221e-05 -4.1633e-05 -4.8484e-10)
(-6.9231e-05 -4.0835e-05 8.0958e-06)
(-6.9242e-05 -3.8503e-05 1.5959e-05)
(-6.9246e-05 -3.4752e-05 2.3256e-05)
(-6.9242e-05 -2.9626e-05 2.9625e-05)
(-6.9246e-05 -2.3256e-05 3.4751e-05)
(-6.9242e-05 -1.5959e-05 3.85e-05)
(-6.9231e-05 -8.0961e-06 4.0832e-05)
(-6.9222e-05 -1.6171e-10 4.163e-05)
(-6.9684e-05 -3.4821e-05 -3.7855e-10)
(-6.9693e-05 -3.4151e-05 6.7624e-06)
(-6.9707e-05 -3.2206e-05 1.3333e-05)
(-6.9701e-05 -2.91e-05 1.9473e-05)
(-6.9695e-05 -2.4827e-05 2.4826e-05)
(-6.9701e-05 -1.9473e-05 2.9099e-05)
(-6.9707e-05 -1.3333e-05 3.2204e-05)
(-6.9693e-05 -6.7624e-06 3.4148e-05)
(-6.9684e-05 -1.7638e-10 3.4818e-05)
(-6.9685e-05 -2.8842e-05 -2.2359e-10)
(-6.9704e-05 -2.826e-05 5.5716e-06)
(-6.9725e-05 -2.6637e-05 1.1015e-05)
(-6.9703e-05 -2.4106e-05 1.6146e-05)
(-6.9684e-05 -2.0611e-05 2.061e-05)
(-6.9703e-05 -1.6145e-05 2.4104e-05)
(-6.9725e-05 -1.1014e-05 2.6634e-05)
(-6.9704e-05 -5.5713e-06 2.8256e-05)
(-6.9685e-05 -9.3739e-11 2.8838e-05)
(-6.9249e-05 -2.3686e-05 -1.1839e-10)
(-6.9253e-05 -2.3233e-05 4.5932e-06)
(-6.9258e-05 -2.1932e-05 9.0774e-06)
(-6.9245e-05 -1.9846e-05 1.3287e-05)
(-6.9238e-05 -1.6953e-05 1.6952e-05)
(-6.9245e-05 -1.3286e-05 1.9844e-05)
(-6.9258e-05 -9.0765e-06 2.1929e-05)
(-6.9253e-05 -4.5926e-06 2.3229e-05)
(-6.925e-05 -2.446e-11 2.3681e-05)
(-6.837e-05 -1.9395e-05 -3.2992e-11)
(-6.8367e-05 -1.9051e-05 3.7796e-06)
(-6.8358e-05 -1.7999e-05 7.4587e-06)
(-6.8356e-05 -1.63e-05 1.0906e-05)
(-6.8354e-05 -1.39e-05 1.39e-05)
(-6.8356e-05 -1.0905e-05 1.6299e-05)
(-6.8358e-05 -7.4576e-06 1.7997e-05)
(-6.8367e-05 -3.7789e-06 1.9047e-05)
(-6.8371e-05 5.5473e-11 1.939e-05)
(-6.706e-05 -1.5959e-05 -8.4976e-10)
(-6.7056e-05 -1.5659e-05 3.1001e-06)
(-6.7052e-05 -1.4792e-05 6.1249e-06)
(-6.7045e-05 -1.3398e-05 8.9688e-06)
(-6.7045e-05 -1.1445e-05 1.1446e-05)
(-6.7045e-05 -8.9678e-06 1.3397e-05)
(-6.7052e-05 -6.1237e-06 1.479e-05)
(-6.7056e-05 -3.0993e-06 1.5656e-05)
(-6.7061e-05 1.0228e-09 1.5955e-05)
(-6.5355e-05 -1.307e-05 8.9666e-11)
(-6.5357e-05 -1.2794e-05 2.5124e-06)
(-6.5361e-05 -1.2062e-05 4.9849e-06)
(-6.5347e-05 -1.0943e-05 7.3376e-06)
(-6.5341e-05 -9.3816e-06 9.3819e-06)
(-6.5348e-05 -7.3366e-06 1.0942e-05)
(-6.5361e-05 -4.9837e-06 1.2061e-05)
(-6.5358e-05 -2.5114e-06 1.2792e-05)
(-6.5355e-05 2.3136e-10 1.3067e-05)
(-6.3306e-05 -1.048e-05 1.8326e-10)
(-6.3303e-05 -1.0273e-05 2.0237e-06)
(-6.33e-05 -9.7e-06 4.0122e-06)
(-6.3293e-05 -8.7953e-06 5.8937e-06)
(-6.3291e-05 -7.5283e-06 7.5288e-06)
(-6.3293e-05 -5.8927e-06 8.7952e-06)
(-6.33e-05 -4.011e-06 9.6992e-06)
(-6.3303e-05 -2.0228e-06 1.0272e-05)
(-6.3306e-05 3.0431e-10 1.0478e-05)
(-6.0985e-05 -8.2111e-06 2.1882e-10)
(-6.0983e-05 -8.0671e-06 1.6008e-06)
(-6.0976e-05 -7.631e-06 3.1626e-06)
(-6.0973e-05 -6.9178e-06 4.6305e-06)
(-6.0969e-05 -5.9066e-06 5.9072e-06)
(-6.0973e-05 -4.6296e-06 6.9181e-06)
(-6.0976e-05 -3.1615e-06 7.6307e-06)
(-6.0983e-05 -1.5999e-06 8.0664e-06)
(-6.0985e-05 4.2521e-10 8.2099e-06)
(-5.8453e-05 -6.3815e-06 3.2376e-10)
(-5.8447e-05 -6.2715e-06 1.2479e-06)
(-5.8442e-05 -5.9383e-06 2.4608e-06)
(-5.8438e-05 -5.3829e-06 3.5995e-06)
(-5.844e-05 -4.5939e-06 4.5948e-06)
(-5.8438e-05 -3.5985e-06 5.3835e-06)
(-5.8442e-05 -2.4599e-06 5.9387e-06)
(-5.8447e-05 -1.247e-06 6.2715e-06)
(-5.8454e-05 4.3752e-10 6.3812e-06)
(-5.5696e-05 -4.9389e-06 2.3417e-10)
(-5.5693e-05 -4.8469e-06 9.5792e-07)
(-5.5691e-05 -4.5838e-06 1.8955e-06)
(-5.5684e-05 -4.1575e-06 2.7828e-06)
(-5.5684e-05 -3.5556e-06 3.5565e-06)
(-5.5684e-05 -2.7819e-06 4.1583e-06)
(-5.5691e-05 -1.8946e-06 4.5846e-06)
(-5.5693e-05 -9.5706e-07 4.8475e-06)
(-5.5696e-05 6.0302e-10 4.9393e-06)
(-6.8302e-05 9.5479e-06 4.8241e-05)
(-6.6877e-05 1.1098e-05 5.6166e-05)
(-6.8327e-05 1.8816e-05 4.5432e-05)
(-6.692e-05 2.1871e-05 5.2834e-05)
(-6.8317e-05 2.7446e-05 4.0993e-05)
(-6.6896e-05 3.1924e-05 4.7671e-05)
(-6.8305e-05 3.4966e-05 3.4966e-05)
(-6.6867e-05 4.0684e-05 4.0684e-05)
(-6.8317e-05 4.0993e-05 2.7446e-05)
(-6.6896e-05 4.7671e-05 3.1924e-05)
(-6.8327e-05 4.5432e-05 1.8815e-05)
(-6.692e-05 5.2834e-05 2.187e-05)
(-6.8302e-05 4.824e-05 9.5474e-06)
(-6.6877e-05 5.6166e-05 1.1098e-05)
(-6.8284e-05 4.9223e-05 1.9535e-10)
(-6.6841e-05 5.7358e-05 -3.9911e-10)
(-6.9231e-05 8.0955e-06 4.0831e-05)
(-6.9242e-05 1.5958e-05 3.8499e-05)
(-6.9246e-05 2.3254e-05 3.4749e-05)
(-6.9242e-05 2.9623e-05 2.9623e-05)
(-6.9246e-05 3.4748e-05 2.3254e-05)
(-6.9242e-05 3.8498e-05 1.5957e-05)
(-6.9231e-05 4.083e-05 8.0952e-06)
(-6.9221e-05 4.1629e-05 -2.8314e-10)
(-6.9693e-05 6.7618e-06 3.4147e-05)
(-6.9708e-05 1.3331e-05 3.2202e-05)
(-6.9701e-05 1.9471e-05 2.9097e-05)
(-6.9695e-05 2.4824e-05 2.4824e-05)
(-6.9701e-05 2.9096e-05 1.9471e-05)
(-6.9707e-05 3.2201e-05 1.3331e-05)
(-6.9693e-05 3.4146e-05 6.7616e-06)
(-6.9684e-05 3.4816e-05 -1.0787e-10)
(-6.9704e-05 5.5708e-06 2.8255e-05)
(-6.9725e-05 1.1013e-05 2.6632e-05)
(-6.9703e-05 1.6143e-05 2.4102e-05)
(-6.9684e-05 2.0608e-05 2.0608e-05)
(-6.9703e-05 2.4102e-05 1.6143e-05)
(-6.9725e-05 2.6632e-05 1.1013e-05)
(-6.9704e-05 2.8254e-05 5.5707e-06)
(-6.9685e-05 2.8836e-05 2.5603e-11)
(-6.9253e-05 4.5923e-06 2.3228e-05)
(-6.9258e-05 9.0756e-06 2.1927e-05)
(-6.9245e-05 1.3285e-05 1.9842e-05)
(-6.9238e-05 1.695e-05 1.695e-05)
(-6.9245e-05 1.9842e-05 1.3285e-05)
(-6.9258e-05 2.1927e-05 9.0757e-06)
(-6.9253e-05 2.3227e-05 4.5923e-06)
(-6.9249e-05 2.368e-05 1.2109e-10)
(-6.8367e-05 3.7788e-06 1.9046e-05)
(-6.8358e-05 7.4572e-06 1.7996e-05)
(-6.8357e-05 1.0904e-05 1.6297e-05)
(-6.8354e-05 1.3898e-05 1.3898e-05)
(-6.8357e-05 1.6297e-05 1.0904e-05)
(-6.8358e-05 1.7995e-05 7.4572e-06)
(-6.8367e-05 1.9046e-05 3.7789e-06)
(-6.8371e-05 1.9389e-05 1.6097e-10)
(-6.7056e-05 3.0995e-06 1.5656e-05)
(-6.7052e-05 6.1238e-06 1.4789e-05)
(-6.7045e-05 8.9674e-06 1.3396e-05)
(-6.7045e-05 1.1445e-05 1.1444e-05)
(-6.7045e-05 1.3396e-05 8.9675e-06)
(-6.7052e-05 1.4789e-05 6.1238e-06)
(-6.7056e-05 1.5656e-05 3.0996e-06)
(-6.7061e-05 1.5955e-05 1.0646e-09)
(-6.5358e-05 2.5119e-06 1.2792e-05)
(-6.5362e-05 4.9841e-06 1.2061e-05)
(-6.5348e-05 7.3368e-06 1.0942e-05)
(-6.5341e-05 9.3813e-06 9.3813e-06)
(-6.5348e-05 1.0942e-05 7.3368e-06)
(-6.5362e-05 1.2061e-05 4.9842e-06)
(-6.5358e-05 1.2792e-05 2.512e-06)
(-6.5355e-05 1.3068e-05 2.1435e-10)
(-6.3303e-05 2.0235e-06 1.0272e-05)
(-6.33e-05 4.0117e-06 9.6994e-06)
(-6.3293e-05 5.8934e-06 8.7952e-06)
(-6.3291e-05 7.5287e-06 7.5287e-06)
(-6.3293e-05 8.7955e-06 5.8934e-06)
(-6.33e-05 9.6999e-06 4.0119e-06)
(-6.3303e-05 1.0273e-05 2.0236e-06)
(-6.3306e-05 1.0479e-05 2.8045e-10)
(-6.0983e-05 1.6007e-06 8.0665e-06)
(-6.0976e-05 3.1625e-06 7.631e-06)
(-6.0973e-05 4.6306e-06 6.9184e-06)
(-6.0969e-05 5.9076e-06 5.9074e-06)
(-6.0973e-05 6.9189e-06 4.6307e-06)
(-6.0976e-05 7.632e-06 3.1627e-06)
(-6.0983e-05 8.0682e-06 1.6009e-06)
(-6.0985e-05 8.2121e-06 2.9073e-10)
(-5.8447e-05 1.248e-06 6.2716e-06)
(-5.8442e-05 2.461e-06 5.9389e-06)
(-5.8438e-05 3.5998e-06 5.3839e-06)
(-5.844e-05 4.5955e-06 4.5951e-06)
(-5.8438e-05 5.3846e-06 3.5999e-06)
(-5.8442e-05 5.9402e-06 2.4612e-06)
(-5.8447e-05 6.2735e-06 1.2481e-06)
(-5.8454e-05 6.3836e-06 1.9941e-10)
(-5.5693e-05 9.5826e-07 4.8476e-06)
(-5.5691e-05 1.8959e-06 4.5848e-06)
(-5.5684e-05 2.7833e-06 4.1587e-06)
(-5.5684e-05 3.5573e-06 3.557e-06)
(-5.5684e-05 4.1594e-06 2.7833e-06)
(-5.5691e-05 4.5861e-06 1.896e-06)
(-5.5693e-05 4.8494e-06 9.5823e-07)
(-5.5696e-05 4.9416e-06 2.5581e-10)
(-6.8302e-05 4.824e-05 -9.548e-06)
(-6.6877e-05 5.6166e-05 -1.1099e-05)
(-6.8327e-05 4.5431e-05 -1.8816e-05)
(-6.692e-05 5.2834e-05 -2.1871e-05)
(-6.8317e-05 4.0992e-05 -2.7446e-05)
(-6.6896e-05 4.767e-05 -3.1924e-05)
(-6.8305e-05 3.4965e-05 -3.4965e-05)
(-6.6867e-05 4.0684e-05 -4.0684e-05)
(-6.8317e-05 2.7445e-05 -4.0992e-05)
(-6.6896e-05 3.1923e-05 -4.7671e-05)
(-6.8327e-05 1.8815e-05 -4.543e-05)
(-6.692e-05 2.187e-05 -5.2834e-05)
(-6.8302e-05 9.5471e-06 -4.8239e-05)
(-6.6877e-05 1.1098e-05 -5.6165e-05)
(-6.8284e-05 1.9604e-10 -4.9222e-05)
(-6.6841e-05 -3.1633e-10 -5.7358e-05)
(-6.9231e-05 4.083e-05 -8.0956e-06)
(-6.9242e-05 3.8497e-05 -1.5957e-05)
(-6.9246e-05 3.4747e-05 -2.3253e-05)
(-6.9241e-05 2.9621e-05 -2.9621e-05)
(-6.9246e-05 2.3252e-05 -3.4747e-05)
(-6.9242e-05 1.5956e-05 -3.8496e-05)
(-6.9231e-05 8.0946e-06 -4.0828e-05)
(-6.9221e-05 -3.7863e-10 -4.1627e-05)
(-6.9693e-05 3.4145e-05 -6.7618e-06)
(-6.9707e-05 3.22e-05 -1.3331e-05)
(-6.97e-05 2.9095e-05 -1.947e-05)
(-6.9695e-05 2.4822e-05 -2.4823e-05)
(-6.97e-05 1.9469e-05 -2.9094e-05)
(-6.9707e-05 1.333e-05 -3.2199e-05)
(-6.9693e-05 6.7609e-06 -3.4144e-05)
(-6.9684e-05 -3.4101e-10 -3.4815e-05)
(-6.9704e-05 2.8254e-05 -5.5707e-06)
(-6.9725e-05 2.6631e-05 -1.1013e-05)
(-6.9703e-05 2.41e-05 -1.6142e-05)
(-6.9684e-05 2.0606e-05 -2.0607e-05)
(-6.9703e-05 1.6142e-05 -2.41e-05)
(-6.9725e-05 1.1012e-05 -2.663e-05)
(-6.9703e-05 5.57e-06 -2.8253e-05)
(-6.9685e-05 -3.1092e-10 -2.8835e-05)
(-6.9253e-05 2.3227e-05 -4.5921e-06)
(-6.9258e-05 2.1926e-05 -9.0753e-06)
(-6.9245e-05 1.9841e-05 -1.3284e-05)
(-6.9238e-05 1.6949e-05 -1.6949e-05)
(-6.9245e-05 1.3284e-05 -1.9841e-05)
(-6.9257e-05 9.0749e-06 -2.1926e-05)
(-6.9253e-05 4.5919e-06 -2.3227e-05)
(-6.9249e-05 -2.2865e-10 -2.368e-05)
(-6.8367e-05 1.9046e-05 -3.7786e-06)
(-6.8358e-05 1.7995e-05 -7.457e-06)
(-6.8356e-05 1.6297e-05 -1.0904e-05)
(-6.8354e-05 1.3898e-05 -1.3898e-05)
(-6.8356e-05 1.0904e-05 -1.6297e-05)
(-6.8358e-05 7.4571e-06 -1.7996e-05)
(-6.8367e-05 3.7787e-06 -1.9047e-05)
(-6.837e-05 -1.1249e-10 -1.9391e-05)
(-6.7056e-05 1.5656e-05 -3.0993e-06)
(-6.7052e-05 1.479e-05 -6.1237e-06)
(-6.7045e-05 1.3396e-05 -8.9676e-06)
(-6.7045e-05 1.1446e-05 -1.1444e-05)
(-6.7045e-05 8.9681e-06 -1.3397e-05)
(-6.7052e-05 6.1243e-06 -1.4791e-05)
(-6.7056e-05 3.0998e-06 -1.5658e-05)
(-6.7061e-05 -8.8487e-10 -1.5957e-05)
(-6.5358e-05 1.2793e-05 -2.5117e-06)
(-6.5361e-05 1.2062e-05 -4.9843e-06)
(-6.5348e-05 1.0943e-05 -7.3374e-06)
(-6.5341e-05 9.3827e-06 -9.3824e-06)
(-6.5347e-05 7.3382e-06 -1.0944e-05)
(-6.5361e-05 4.9852e-06 -1.2063e-05)
(-6.5358e-05 2.5125e-06 -1.2795e-05)
(-6.5355e-05 9.8295e-11 -1.3071e-05)
(-6.3303e-05 1.0274e-05 -2.0233e-06)
(-6.33e-05 9.7014e-06 -4.012e-06)
(-6.3293e-05 8.7973e-06 -5.8942e-06)
(-6.3291e-05 7.5306e-06 -7.5302e-06)
(-6.3293e-05 5.8951e-06 -8.7975e-06)
(-6.33e-05 4.0131e-06 -9.7024e-06)
(-6.3303e-05 2.0242e-06 -1.0276e-05)
(-6.3306e-05 1.9845e-10 -1.0482e-05)
(-6.0983e-05 8.069e-06 -1.6005e-06)
(-6.0976e-05 7.6335e-06 -3.1628e-06)
(-6.0973e-05 6.9208e-06 -4.6315e-06)
(-6.0969e-05 5.9096e-06 -5.909e-06)
(-6.0973e-05 4.6325e-06 -6.9207e-06)
(-6.0976e-05 3.1639e-06 -7.634e-06)
(-6.0983e-05 1.6015e-06 -8.0701e-06)
(-6.0985e-05 3.5147e-10 -8.2137e-06)
(-5.8447e-05 6.2742e-06 -1.2477e-06)
(-5.8442e-05 5.9415e-06 -2.4612e-06)
(-5.8438e-05 5.3863e-06 -3.6005e-06)
(-5.844e-05 4.5973e-06 -4.5964e-06)
(-5.8438e-05 3.6014e-06 -5.3859e-06)
(-5.8442e-05 2.4622e-06 -5.9415e-06)
(-5.8447e-05 1.2487e-06 -6.2745e-06)
(-5.8453e-05 5.6353e-10 -6.3842e-06)
(-5.5693e-05 4.85e-06 -9.5781e-07)
(-5.5691e-05 4.5871e-06 -1.8959e-06)
(-5.5684e-05 4.1607e-06 -2.7837e-06)
(-5.5684e-05 3.5586e-06 -3.5578e-06)
(-5.5684e-05 2.7846e-06 -4.16e-06)
(-5.5691e-05 1.8968e-06 -4.5865e-06)
(-5.5693e-05 9.5872e-07 -4.8495e-06)
(-5.5696e-05 5.8492e-10 -4.9412e-06)
(-6.8302e-05 -9.5479e-06 -4.824e-05)
(-6.6877e-05 -1.1099e-05 -5.6166e-05)
(-6.8327e-05 -1.8816e-05 -4.5432e-05)
(-6.692e-05 -2.1871e-05 -5.2835e-05)
(-6.8317e-05 -2.7446e-05 -4.0994e-05)
(-6.6896e-05 -3.1925e-05 -4.7672e-05)
(-6.8305e-05 -3.4967e-05 -3.4967e-05)
(-6.6867e-05 -4.0686e-05 -4.0686e-05)
(-6.8317e-05 -4.0995e-05 -2.7447e-05)
(-6.6896e-05 -4.7672e-05 -3.1926e-05)
(-6.8327e-05 -4.5434e-05 -1.8817e-05)
(-6.692e-05 -5.2836e-05 -2.1872e-05)
(-6.8302e-05 -4.8243e-05 -9.5488e-06)
(-6.6877e-05 -5.6169e-05 -1.1099e-05)
(-6.9231e-05 -8.0955e-06 -4.0829e-05)
(-6.9242e-05 -1.5957e-05 -3.8498e-05)
(-6.9245e-05 -2.3254e-05 -3.4749e-05)
(-6.9241e-05 -2.9623e-05 -2.9624e-05)
(-6.9246e-05 -3.475e-05 -2.3255e-05)
(-6.9242e-05 -3.8501e-05 -1.5959e-05)
(-6.9231e-05 -4.0834e-05 -8.0966e-06)
(-6.9693e-05 -6.7618e-06 -3.4145e-05)
(-6.9707e-05 -1.3331e-05 -3.2201e-05)
(-6.97e-05 -1.9471e-05 -2.9097e-05)
(-6.9695e-05 -2.4825e-05 -2.4825e-05)
(-6.97e-05 -2.9098e-05 -1.9473e-05)
(-6.9707e-05 -3.2205e-05 -1.3333e-05)
(-6.9693e-05 -3.415e-05 -6.7629e-06)
(-6.9703e-05 -5.5709e-06 -2.8254e-05)
(-6.9725e-05 -1.1013e-05 -2.6632e-05)
(-6.9703e-05 -1.6144e-05 -2.4103e-05)
(-6.9684e-05 -2.0609e-05 -2.0609e-05)
(-6.9703e-05 -2.4104e-05 -1.6145e-05)
(-6.9725e-05 -2.6636e-05 -1.1015e-05)
(-6.9703e-05 -2.8259e-05 -5.5719e-06)
(-6.9253e-05 -4.5925e-06 -2.3228e-05)
(-6.9257e-05 -9.0762e-06 -2.1928e-05)
(-6.9245e-05 -1.3286e-05 -1.9844e-05)
(-6.9238e-05 -1.6952e-05 -1.6952e-05)
(-6.9245e-05 -1.9845e-05 -1.3287e-05)
(-6.9257e-05 -2.1931e-05 -9.0774e-06)
(-6.9253e-05 -2.3232e-05 -4.5934e-06)
(-6.8367e-05 -3.7792e-06 -1.9047e-05)
(-6.8358e-05 -7.458e-06 -1.7997e-05)
(-6.8356e-05 -1.0905e-05 -1.63e-05)
(-6.8353e-05 -1.39e-05 -1.39e-05)
(-6.8356e-05 -1.6301e-05 -1.0906e-05)
(-6.8358e-05 -1.8e-05 -7.4589e-06)
(-6.8366e-05 -1.9051e-05 -3.7797e-06)
(-6.7056e-05 -3.0999e-06 -1.5658e-05)
(-6.7052e-05 -6.1248e-06 -1.4792e-05)
(-6.7044e-05 -8.9692e-06 -1.3398e-05)
(-6.7044e-05 -1.1446e-05 -1.1448e-05)
(-6.7044e-05 -1.3399e-05 -8.9696e-06)
(-6.7051e-05 -1.4793e-05 -6.1253e-06)
(-6.7056e-05 -1.566e-05 -3.1002e-06)
(-6.5357e-05 -2.5124e-06 -1.2795e-05)
(-6.5361e-05 -4.9853e-06 -1.2064e-05)
(-6.5347e-05 -7.3386e-06 -1.0945e-05)
(-6.534e-05 -9.3838e-06 -9.3838e-06)
(-6.5347e-05 -1.0945e-05 -7.3388e-06)
(-6.5361e-05 -1.2064e-05 -4.9854e-06)
(-6.5357e-05 -1.2795e-05 -2.5124e-06)
(-6.3303e-05 -2.0238e-06 -1.0276e-05)
(-6.33e-05 -4.0127e-06 -9.7027e-06)
(-6.3293e-05 -5.8949e-06 -8.798e-06)
(-6.3291e-05 -7.5307e-06 -7.5309e-06)
(-6.3293e-05 -8.7976e-06 -5.8949e-06)
(-6.33e-05 -9.7019e-06 -4.0126e-06)
(-6.3303e-05 -1.0274e-05 -2.0236e-06)
(-6.0983e-05 -1.6008e-06 -8.07e-06)
(-6.0976e-05 -3.1631e-06 -7.6339e-06)
(-6.0973e-05 -4.6316e-06 -6.9206e-06)
(-6.0969e-05 -5.9088e-06 -5.909e-06)
(-6.0973e-05 -6.9199e-06 -4.6315e-06)
(-6.0976e-05 -7.6326e-06 -3.1628e-06)
(-6.0983e-05 -8.068e-06 -1.6005e-06)
(-5.8447e-05 -1.2477e-06 -6.2743e-06)
(-5.8442e-05 -2.4611e-06 -5.9411e-06)
(-5.8437e-05 -3.6001e-06 -5.3854e-06)
(-5.844e-05 -4.5957e-06 -4.5959e-06)
(-5.8437e-05 -5.3845e-06 -3.6e-06)
(-5.8442e-05 -5.9395e-06 -2.4608e-06)
(-5.8447e-05 -6.2721e-06 -1.2475e-06)
(-5.5693e-05 -9.5752e-07 -4.8492e-06)
(-5.5691e-05 -1.8955e-06 -4.586e-06)
(-5.5684e-05 -2.783e-06 -4.1594e-06)
(-5.5684e-05 -3.5567e-06 -3.5571e-06)
(-5.5684e-05 -4.1584e-06 -2.7829e-06)
(-5.5691e-05 -4.5845e-06 -1.8953e-06)
(-5.5693e-05 -4.8473e-06 -9.575e-07)
)
;
    }
    procBoundary2to1
    {
        type            processor;
    }
    procBoundary2to3
    {
        type            processor;
    }
}


// ************************************************************************* //
