/*--------------------------------*- C++ -*----------------------------------*\
| =========                 |                                                 |
| \\      /  F ield         | OpenFOAM: The Open Source CFD Toolbox           |
|  \\    /   O peration     | Version:  4.1                                   |
|   \\  /    A nd           | Web:      www.OpenFOAM.org                      |
|    \\/     M anipulation  |                                                 |
\*---------------------------------------------------------------------------*/
FoamFile
{
    version     2.0;
    format      ascii;
    class       pointVectorField;
    location    "0.0048";
    object      pointDisplacement_Next;
}
// * * * * * * * * * * * * * * * * * * * * * * * * * * * * * * * * * * * * * //

dimensions      [0 1 0 0 0 0 0];

internalField   uniform (0 0 0);

boundaryField
{
    inlet
    {
        type            fixedValue;
        value           nonuniform 0();
    }
    outlet
    {
        type            fixedValue;
        value           nonuniform 0();
    }
    mantle
    {
        type            fixedValue;
        value           nonuniform List<vector> 
416
(
(-6.712e-05 -5.728e-05 -4.8966e-10)
(-6.856e-05 -4.9096e-05 1.3834e-10)
(-6.8578e-05 -4.8116e-05 9.5225e-06)
(-6.7156e-05 -5.609e-05 1.1082e-05)
(-6.8603e-05 -4.5316e-05 1.8767e-05)
(-6.72e-05 -5.2764e-05 2.1841e-05)
(-6.8592e-05 -4.0891e-05 2.7378e-05)
(-6.7175e-05 -4.7609e-05 3.1883e-05)
(-6.8581e-05 -3.488e-05 3.4879e-05)
(-6.7145e-05 -4.0633e-05 4.0633e-05)
(-6.8593e-05 -2.7378e-05 4.0891e-05)
(-6.7175e-05 -3.1884e-05 4.7609e-05)
(-6.8603e-05 -1.8768e-05 4.5317e-05)
(-6.72e-05 -2.1842e-05 5.2764e-05)
(-6.8578e-05 -9.5232e-06 4.8117e-05)
(-6.7156e-05 -1.1083e-05 5.6091e-05)
(-6.856e-05 -6.0332e-10 4.9098e-05)
(-6.712e-05 -2.8429e-11 5.7281e-05)
(-6.9496e-05 -4.1463e-05 -3.263e-10)
(-6.9505e-05 -4.0668e-05 8.0628e-06)
(-6.9516e-05 -3.8346e-05 1.5894e-05)
(-6.952e-05 -3.4613e-05 2.3164e-05)
(-6.9517e-05 -2.9509e-05 2.9509e-05)
(-6.952e-05 -2.3164e-05 3.4614e-05)
(-6.9516e-05 -1.5895e-05 3.8347e-05)
(-6.9506e-05 -8.0634e-06 4.067e-05)
(-6.9497e-05 -3.9549e-11 4.1465e-05)
(-6.9956e-05 -3.4621e-05 -2.149e-10)
(-6.9965e-05 -3.3955e-05 6.7234e-06)
(-6.998e-05 -3.2023e-05 1.3257e-05)
(-6.9973e-05 -2.8937e-05 1.9365e-05)
(-6.9968e-05 -2.4689e-05 2.469e-05)
(-6.9973e-05 -1.9365e-05 2.8938e-05)
(-6.998e-05 -1.3258e-05 3.2024e-05)
(-6.9966e-05 -6.7239e-06 3.3957e-05)
(-6.9957e-05 -4.323e-11 3.4623e-05)
(-6.9959e-05 -2.8625e-05 -2.9737e-11)
(-6.9978e-05 -2.8048e-05 5.5296e-06)
(-7e-05 -2.6439e-05 1.0933e-05)
(-6.9977e-05 -2.393e-05 1.6028e-05)
(-6.9958e-05 -2.0462e-05 2.0462e-05)
(-6.9977e-05 -1.6028e-05 2.393e-05)
(-7e-05 -1.0933e-05 2.644e-05)
(-6.9978e-05 -5.5298e-06 2.805e-05)
(-6.9959e-05 2.4024e-11 2.8627e-05)
(-6.9531e-05 -2.347e-05 1.2431e-10)
(-6.9535e-05 -2.3023e-05 4.5521e-06)
(-6.9539e-05 -2.1736e-05 8.9969e-06)
(-6.9527e-05 -1.9671e-05 1.3171e-05)
(-6.952e-05 -1.6805e-05 1.6805e-05)
(-6.9527e-05 -1.3171e-05 1.9673e-05)
(-6.9539e-05 -8.997e-06 2.1738e-05)
(-6.9535e-05 -4.5522e-06 2.3025e-05)
(-6.9532e-05 7.3897e-11 2.3473e-05)
(-6.8661e-05 -1.92e-05 2.7876e-10)
(-6.8657e-05 -1.8862e-05 3.7432e-06)
(-6.8647e-05 -1.7824e-05 7.3867e-06)
(-6.8646e-05 -1.6144e-05 1.0801e-05)
(-6.8644e-05 -1.3766e-05 1.3767e-05)
(-6.8646e-05 -1.0801e-05 1.6145e-05)
(-6.8647e-05 -7.3866e-06 1.7826e-05)
(-6.8657e-05 -3.743e-06 1.8864e-05)
(-6.8662e-05 1.0613e-10 1.9202e-05)
(-6.7354e-05 -1.58e-05 -4.8232e-10)
(-6.7349e-05 -1.5505e-05 3.0703e-06)
(-6.7344e-05 -1.4649e-05 6.066e-06)
(-6.7337e-05 -1.3269e-05 8.8831e-06)
(-6.7337e-05 -1.1336e-05 1.1338e-05)
(-6.7337e-05 -8.8826e-06 1.327e-05)
(-6.7344e-05 -6.0656e-06 1.465e-05)
(-6.7349e-05 -3.0699e-06 1.5507e-05)
(-6.7354e-05 1.0159e-09 1.5802e-05)
(-6.5644e-05 -1.2945e-05 4.8204e-10)
(-6.5647e-05 -1.2672e-05 2.4884e-06)
(-6.5651e-05 -1.1948e-05 4.9377e-06)
(-6.5637e-05 -1.084e-05 7.2693e-06)
(-6.563e-05 -9.2949e-06 9.2958e-06)
(-6.5637e-05 -7.2686e-06 1.0841e-05)
(-6.5651e-05 -4.9372e-06 1.1949e-05)
(-6.5647e-05 -2.4878e-06 1.2673e-05)
(-6.5645e-05 1.6047e-10 1.2947e-05)
(-6.3591e-05 -1.037e-05 5.6604e-10)
(-6.3588e-05 -1.0166e-05 2.0028e-06)
(-6.3585e-05 -9.5995e-06 3.9708e-06)
(-6.3578e-05 -8.7051e-06 5.8336e-06)
(-6.3576e-05 -7.4518e-06 7.4527e-06)
(-6.3578e-05 -5.8329e-06 8.7063e-06)
(-6.3585e-05 -3.9701e-06 9.6009e-06)
(-6.3588e-05 -2.0021e-06 1.0168e-05)
(-6.3591e-05 1.5346e-10 1.0371e-05)
(-6.1267e-05 -8.1044e-06 5.65e-10)
(-6.1266e-05 -7.9637e-06 1.5809e-06)
(-6.1259e-05 -7.5346e-06 3.123e-06)
(-6.1256e-05 -6.8312e-06 4.5726e-06)
(-6.1251e-05 -5.8325e-06 5.8334e-06)
(-6.1256e-05 -4.5718e-06 6.8323e-06)
(-6.1259e-05 -3.1223e-06 7.5359e-06)
(-6.1266e-05 -1.5801e-06 7.9651e-06)
(-6.1267e-05 1.8809e-10 8.1058e-06)
(-5.8739e-05 -6.2814e-06 6.3853e-10)
(-5.8733e-05 -6.1743e-06 1.2292e-06)
(-5.8727e-05 -5.8477e-06 2.4235e-06)
(-5.8723e-05 -5.3012e-06 3.5447e-06)
(-5.8725e-05 -4.524e-06 4.525e-06)
(-5.8723e-05 -3.5439e-06 5.3022e-06)
(-5.8727e-05 -2.4227e-06 5.8486e-06)
(-5.8733e-05 -1.2284e-06 6.1752e-06)
(-5.8739e-05 1.0329e-10 6.2823e-06)
(-5.5985e-05 -4.856e-06 5.0718e-10)
(-5.5981e-05 -4.7664e-06 9.4237e-07)
(-5.5979e-05 -4.5083e-06 1.8644e-06)
(-5.5973e-05 -4.0894e-06 2.7372e-06)
(-5.5973e-05 -3.4973e-06 3.498e-06)
(-5.5973e-05 -2.7363e-06 4.0901e-06)
(-5.5979e-05 -1.8636e-06 4.5089e-06)
(-5.5981e-05 -9.4157e-07 4.7668e-06)
(-5.5985e-05 1.8296e-10 4.8564e-06)
(-6.8578e-05 9.523e-06 4.8117e-05)
(-6.7156e-05 1.1082e-05 5.609e-05)
(-6.8603e-05 1.8768e-05 4.5316e-05)
(-6.72e-05 2.1841e-05 5.2763e-05)
(-6.8593e-05 2.7377e-05 4.089e-05)
(-6.7175e-05 3.1883e-05 4.7608e-05)
(-6.8581e-05 3.4879e-05 3.4878e-05)
(-6.7145e-05 4.0632e-05 4.0632e-05)
(-6.8592e-05 4.089e-05 2.7377e-05)
(-6.7175e-05 4.7608e-05 3.1883e-05)
(-6.8603e-05 4.5315e-05 1.8767e-05)
(-6.72e-05 5.2763e-05 2.1841e-05)
(-6.8577e-05 4.8116e-05 9.5224e-06)
(-6.7156e-05 5.6089e-05 1.1082e-05)
(-6.856e-05 4.9096e-05 1.1994e-10)
(-6.712e-05 5.728e-05 -5.1557e-10)
(-6.9506e-05 8.0632e-06 4.0669e-05)
(-6.9516e-05 1.5895e-05 3.8347e-05)
(-6.952e-05 2.3163e-05 3.4613e-05)
(-6.9517e-05 2.9508e-05 2.9508e-05)
(-6.952e-05 3.4613e-05 2.3163e-05)
(-6.9516e-05 3.8346e-05 1.5894e-05)
(-6.9505e-05 4.0668e-05 8.0628e-06)
(-6.9496e-05 4.1463e-05 -3.3849e-10)
(-6.9966e-05 6.7238e-06 3.3956e-05)
(-6.998e-05 1.3257e-05 3.2023e-05)
(-6.9974e-05 1.9365e-05 2.8937e-05)
(-6.9968e-05 2.4689e-05 2.4689e-05)
(-6.9973e-05 2.8937e-05 1.9364e-05)
(-6.998e-05 3.2022e-05 1.3257e-05)
(-6.9966e-05 3.3955e-05 6.7235e-06)
(-6.9957e-05 3.4621e-05 -1.7148e-10)
(-6.9978e-05 5.5298e-06 2.805e-05)
(-7e-05 1.0933e-05 2.644e-05)
(-6.9977e-05 1.6028e-05 2.393e-05)
(-6.9958e-05 2.0462e-05 2.0462e-05)
(-6.9977e-05 2.3929e-05 1.6028e-05)
(-7e-05 2.6439e-05 1.0933e-05)
(-6.9978e-05 2.8048e-05 5.5297e-06)
(-6.9959e-05 2.8626e-05 -3.2329e-11)
(-6.9535e-05 4.5523e-06 2.3025e-05)
(-6.9539e-05 8.997e-06 2.1738e-05)
(-6.9527e-05 1.317e-05 1.9672e-05)
(-6.952e-05 1.6805e-05 1.6805e-05)
(-6.9527e-05 1.9672e-05 1.3171e-05)
(-6.9539e-05 2.1736e-05 8.997e-06)
(-6.9535e-05 2.3023e-05 4.5523e-06)
(-6.9532e-05 2.3471e-05 1.5574e-10)
(-6.8657e-05 3.7432e-06 1.8864e-05)
(-6.8647e-05 7.3867e-06 1.7826e-05)
(-6.8646e-05 1.0801e-05 1.6145e-05)
(-6.8644e-05 1.3766e-05 1.3766e-05)
(-6.8646e-05 1.6144e-05 1.0801e-05)
(-6.8647e-05 1.7824e-05 7.3868e-06)
(-6.8657e-05 1.8862e-05 3.7433e-06)
(-6.8662e-05 1.92e-05 3.1168e-10)
(-6.7349e-05 3.0702e-06 1.5507e-05)
(-6.7344e-05 6.0659e-06 1.465e-05)
(-6.7337e-05 8.8828e-06 1.327e-05)
(-6.7337e-05 1.1337e-05 1.1337e-05)
(-6.7337e-05 1.3269e-05 8.8831e-06)
(-6.7344e-05 1.4649e-05 6.0661e-06)
(-6.7349e-05 1.5506e-05 3.0704e-06)
(-6.7354e-05 1.5801e-05 1.31e-09)
(-6.5647e-05 2.4882e-06 1.2673e-05)
(-6.5651e-05 4.9375e-06 1.1949e-05)
(-6.5637e-05 7.2689e-06 1.0841e-05)
(-6.563e-05 9.2951e-06 9.2956e-06)
(-6.5637e-05 1.084e-05 7.2692e-06)
(-6.5651e-05 1.1948e-05 4.9377e-06)
(-6.5647e-05 1.2672e-05 2.4884e-06)
(-6.5645e-05 1.2945e-05 5.1688e-10)
(-6.3588e-05 2.0025e-06 1.0167e-05)
(-6.3585e-05 3.9704e-06 9.6007e-06)
(-6.3578e-05 5.833e-06 8.706e-06)
(-6.3576e-05 7.4518e-06 7.4524e-06)
(-6.3578e-05 8.7051e-06 5.8333e-06)
(-6.3585e-05 9.5994e-06 3.9706e-06)
(-6.3588e-05 1.0166e-05 2.0027e-06)
(-6.3591e-05 1.037e-05 5.9642e-10)
(-6.1266e-05 1.5805e-06 7.9649e-06)
(-6.1259e-05 3.1225e-06 7.5354e-06)
(-6.1256e-05 4.5718e-06 6.8317e-06)
(-6.1251e-05 5.8322e-06 5.8328e-06)
(-6.1256e-05 6.8308e-06 4.572e-06)
(-6.1259e-05 7.5341e-06 3.1226e-06)
(-6.1266e-05 7.9631e-06 1.5807e-06)
(-6.1267e-05 8.1039e-06 5.9207e-10)
(-5.8733e-05 1.2287e-06 6.1749e-06)
(-5.8727e-05 2.4229e-06 5.8479e-06)
(-5.8723e-05 3.5437e-06 5.3013e-06)
(-5.8725e-05 4.5236e-06 4.5239e-06)
(-5.8723e-05 5.3003e-06 3.5438e-06)
(-5.8727e-05 5.8465e-06 2.4229e-06)
(-5.8733e-05 6.173e-06 1.2289e-06)
(-5.8739e-05 6.2802e-06 4.915e-10)
(-5.5981e-05 9.4185e-07 4.7663e-06)
(-5.5979e-05 1.8636e-06 4.508e-06)
(-5.5973e-05 2.7359e-06 4.0889e-06)
(-5.5973e-05 3.4963e-06 3.4968e-06)
(-5.5973e-05 4.088e-06 2.736e-06)
(-5.5979e-05 4.5066e-06 1.8635e-06)
(-5.5981e-05 4.7644e-06 9.4191e-07)
(-5.5985e-05 4.8541e-06 5.2905e-10)
(-6.8577e-05 4.8116e-05 -9.5233e-06)
(-6.7156e-05 5.6089e-05 -1.1083e-05)
(-6.8603e-05 4.5316e-05 -1.8768e-05)
(-6.72e-05 5.2763e-05 -2.1842e-05)
(-6.8592e-05 4.089e-05 -2.7378e-05)
(-6.7175e-05 4.7608e-05 -3.1884e-05)
(-6.8581e-05 3.4879e-05 -3.4879e-05)
(-6.7145e-05 4.0632e-05 -4.0633e-05)
(-6.8592e-05 2.7377e-05 -4.0891e-05)
(-6.7175e-05 3.1883e-05 -4.7609e-05)
(-6.8603e-05 1.8767e-05 -4.5316e-05)
(-6.72e-05 2.1841e-05 -5.2763e-05)
(-6.8578e-05 9.5227e-06 -4.8116e-05)
(-6.7156e-05 1.1082e-05 -5.609e-05)
(-6.856e-05 5.3683e-10 -4.9097e-05)
(-6.712e-05 -2.9026e-11 -5.728e-05)
(-6.9505e-05 4.0668e-05 -8.0634e-06)
(-6.9516e-05 3.8346e-05 -1.5895e-05)
(-6.952e-05 3.4612e-05 -2.3164e-05)
(-6.9517e-05 2.9508e-05 -2.9508e-05)
(-6.952e-05 2.3163e-05 -3.4613e-05)
(-6.9516e-05 1.5894e-05 -3.8346e-05)
(-6.9505e-05 8.0629e-06 -4.0668e-05)
(-6.9496e-05 -2.1794e-11 -4.1463e-05)
(-6.9965e-05 3.3955e-05 -6.7239e-06)
(-6.998e-05 3.2022e-05 -1.3257e-05)
(-6.9973e-05 2.8937e-05 -1.9365e-05)
(-6.9968e-05 2.4689e-05 -2.4689e-05)
(-6.9973e-05 1.9364e-05 -2.8937e-05)
(-6.998e-05 1.3257e-05 -3.2023e-05)
(-6.9965e-05 6.7235e-06 -3.3955e-05)
(-6.9956e-05 1.5537e-11 -3.4622e-05)
(-6.9978e-05 2.8048e-05 -5.5297e-06)
(-7e-05 2.6439e-05 -1.0933e-05)
(-6.9977e-05 2.3929e-05 -1.6028e-05)
(-6.9958e-05 2.0462e-05 -2.0462e-05)
(-6.9977e-05 1.6028e-05 -2.393e-05)
(-6.9999e-05 1.0933e-05 -2.6439e-05)
(-6.9978e-05 5.5296e-06 -2.8049e-05)
(-6.9959e-05 9.0841e-12 -2.8626e-05)
(-6.9535e-05 2.3023e-05 -4.552e-06)
(-6.9539e-05 2.1736e-05 -8.9967e-06)
(-6.9527e-05 1.9671e-05 -1.317e-05)
(-6.952e-05 1.6805e-05 -1.6805e-05)
(-6.9527e-05 1.317e-05 -1.9672e-05)
(-6.9539e-05 8.9967e-06 -2.1737e-05)
(-6.9535e-05 4.552e-06 -2.3023e-05)
(-6.9531e-05 3.3707e-11 -2.3471e-05)
(-6.8657e-05 1.8862e-05 -3.7427e-06)
(-6.8647e-05 1.7824e-05 -7.3862e-06)
(-6.8646e-05 1.6144e-05 -1.08e-05)
(-6.8644e-05 1.3766e-05 -1.3766e-05)
(-6.8646e-05 1.08e-05 -1.6144e-05)
(-6.8647e-05 7.3864e-06 -1.7824e-05)
(-6.8657e-05 3.743e-06 -1.8862e-05)
(-6.8661e-05 8.1258e-11 -1.92e-05)
(-6.7349e-05 1.5506e-05 -3.0695e-06)
(-6.7344e-05 1.4649e-05 -6.0652e-06)
(-6.7337e-05 1.3269e-05 -8.8821e-06)
(-6.7337e-05 1.1337e-05 -1.1335e-05)
(-6.7337e-05 8.8825e-06 -1.3269e-05)
(-6.7344e-05 6.0656e-06 -1.4649e-05)
(-6.7348e-05 3.07e-06 -1.5505e-05)
(-6.7354e-05 -7.6217e-10 -1.58e-05)
(-6.5647e-05 1.2672e-05 -2.4874e-06)
(-6.5651e-05 1.1948e-05 -4.9366e-06)
(-6.5637e-05 1.084e-05 -7.268e-06)
(-6.563e-05 9.2947e-06 -9.2943e-06)
(-6.5637e-05 7.2685e-06 -1.084e-05)
(-6.5651e-05 4.9372e-06 -1.1947e-05)
(-6.5647e-05 2.488e-06 -1.2671e-05)
(-6.5644e-05 1.3863e-10 -1.2945e-05)
(-6.3588e-05 1.0166e-05 -2.0016e-06)
(-6.3585e-05 9.5992e-06 -3.9694e-06)
(-6.3578e-05 8.7048e-06 -5.832e-06)
(-6.3576e-05 7.4515e-06 -7.4509e-06)
(-6.3577e-05 5.8326e-06 -8.7043e-06)
(-6.3585e-05 3.9701e-06 -9.5988e-06)
(-6.3588e-05 2.0023e-06 -1.0165e-05)
(-6.3591e-05 1.2582e-10 -1.0369e-05)
(-6.1266e-05 7.9631e-06 -1.5795e-06)
(-6.1259e-05 7.5339e-06 -3.1213e-06)
(-6.1256e-05 6.8305e-06 -4.5706e-06)
(-6.1251e-05 5.8319e-06 -5.8313e-06)
(-6.1256e-05 4.5714e-06 -6.83e-06)
(-6.1259e-05 3.1221e-06 -7.5335e-06)
(-6.1266e-05 1.5803e-06 -7.9628e-06)
(-6.1267e-05 1.5829e-10 -8.1036e-06)
(-5.8733e-05 6.1729e-06 -1.2277e-06)
(-5.8727e-05 5.8463e-06 -2.4217e-06)
(-5.8723e-05 5.3001e-06 -3.5425e-06)
(-5.8725e-05 4.5232e-06 -4.5225e-06)
(-5.8723e-05 3.5433e-06 -5.2996e-06)
(-5.8727e-05 2.4226e-06 -5.8461e-06)
(-5.8733e-05 1.2285e-06 -6.1729e-06)
(-5.8739e-05 2.5042e-10 -6.2802e-06)
(-5.5981e-05 4.7643e-06 -9.4084e-07)
(-5.5979e-05 4.5064e-06 -1.8624e-06)
(-5.5973e-05 4.0878e-06 -2.7348e-06)
(-5.5973e-05 3.4961e-06 -3.4954e-06)
(-5.5973e-05 2.7356e-06 -4.0875e-06)
(-5.5979e-05 1.8634e-06 -4.5064e-06)
(-5.5981e-05 9.417e-07 -4.7646e-06)
(-5.5985e-05 1.6703e-10 -4.8545e-06)
(-6.8578e-05 -9.5227e-06 -4.8116e-05)
(-6.7156e-05 -1.1082e-05 -5.6089e-05)
(-6.8603e-05 -1.8767e-05 -4.5315e-05)
(-6.72e-05 -2.1841e-05 -5.2762e-05)
(-6.8592e-05 -2.7377e-05 -4.089e-05)
(-6.7175e-05 -3.1883e-05 -4.7608e-05)
(-6.8581e-05 -3.4878e-05 -3.4878e-05)
(-6.7146e-05 -4.0632e-05 -4.0632e-05)
(-6.8592e-05 -4.0889e-05 -2.7377e-05)
(-6.7175e-05 -4.7607e-05 -3.1883e-05)
(-6.8603e-05 -4.5315e-05 -1.8768e-05)
(-6.72e-05 -5.2762e-05 -2.1842e-05)
(-6.8578e-05 -4.8116e-05 -9.5232e-06)
(-6.7156e-05 -5.6089e-05 -1.1083e-05)
(-6.9505e-05 -8.0629e-06 -4.0668e-05)
(-6.9516e-05 -1.5894e-05 -3.8345e-05)
(-6.952e-05 -2.3163e-05 -3.4612e-05)
(-6.9516e-05 -2.9507e-05 -2.9508e-05)
(-6.952e-05 -3.4612e-05 -2.3163e-05)
(-6.9516e-05 -3.8345e-05 -1.5894e-05)
(-6.9505e-05 -4.0667e-05 -8.0633e-06)
(-6.9965e-05 -6.7235e-06 -3.3955e-05)
(-6.998e-05 -1.3257e-05 -3.2022e-05)
(-6.9973e-05 -1.9364e-05 -2.8936e-05)
(-6.9968e-05 -2.4688e-05 -2.4688e-05)
(-6.9973e-05 -2.8936e-05 -1.9364e-05)
(-6.998e-05 -3.2021e-05 -1.3257e-05)
(-6.9965e-05 -3.3954e-05 -6.7237e-06)
(-6.9978e-05 -5.5295e-06 -2.8048e-05)
(-6.9999e-05 -1.0932e-05 -2.6438e-05)
(-6.9977e-05 -1.6027e-05 -2.3929e-05)
(-6.9958e-05 -2.0461e-05 -2.0461e-05)
(-6.9977e-05 -2.3928e-05 -1.6027e-05)
(-6.9999e-05 -2.6438e-05 -1.0932e-05)
(-6.9978e-05 -2.8047e-05 -5.5295e-06)
(-6.9535e-05 -4.5519e-06 -2.3023e-05)
(-6.9539e-05 -8.9963e-06 -2.1736e-05)
(-6.9526e-05 -1.317e-05 -1.9671e-05)
(-6.952e-05 -1.6804e-05 -1.6804e-05)
(-6.9527e-05 -1.967e-05 -1.317e-05)
(-6.9539e-05 -2.1735e-05 -8.9962e-06)
(-6.9535e-05 -2.3022e-05 -4.5518e-06)
(-6.8657e-05 -3.7428e-06 -1.8862e-05)
(-6.8647e-05 -7.386e-06 -1.7824e-05)
(-6.8646e-05 -1.08e-05 -1.6143e-05)
(-6.8644e-05 -1.3765e-05 -1.3765e-05)
(-6.8646e-05 -1.6143e-05 -1.08e-05)
(-6.8647e-05 -1.7823e-05 -7.3858e-06)
(-6.8657e-05 -1.8861e-05 -3.7425e-06)
(-6.7348e-05 -3.0697e-06 -1.5505e-05)
(-6.7343e-05 -6.0652e-06 -1.4648e-05)
(-6.7337e-05 -8.8819e-06 -1.3268e-05)
(-6.7337e-05 -1.1335e-05 -1.1336e-05)
(-6.7337e-05 -1.3268e-05 -8.8817e-06)
(-6.7343e-05 -1.4648e-05 -6.0649e-06)
(-6.7348e-05 -1.5505e-05 -3.0694e-06)
(-6.5647e-05 -2.4877e-06 -1.2671e-05)
(-6.565e-05 -4.9368e-06 -1.1947e-05)
(-6.5637e-05 -7.268e-06 -1.0839e-05)
(-6.563e-05 -9.2941e-06 -9.294e-06)
(-6.5637e-05 -1.0839e-05 -7.2678e-06)
(-6.565e-05 -1.1947e-05 -4.9365e-06)
(-6.5647e-05 -1.2671e-05 -2.4873e-06)
(-6.3588e-05 -2.002e-06 -1.0165e-05)
(-6.3585e-05 -3.9697e-06 -9.5987e-06)
(-6.3577e-05 -5.8323e-06 -8.7043e-06)
(-6.3575e-05 -7.4511e-06 -7.4509e-06)
(-6.3577e-05 -8.7045e-06 -5.832e-06)
(-6.3585e-05 -9.5989e-06 -3.9695e-06)
(-6.3588e-05 -1.0166e-05 -2.0016e-06)
(-6.1266e-05 -1.58e-06 -7.9629e-06)
(-6.1259e-05 -3.1219e-06 -7.5338e-06)
(-6.1256e-05 -4.5712e-06 -6.8303e-06)
(-6.1251e-05 -5.8319e-06 -5.8316e-06)
(-6.1256e-05 -6.8306e-06 -4.571e-06)
(-6.1259e-05 -7.5342e-06 -3.1216e-06)
(-6.1266e-05 -7.9635e-06 -1.5797e-06)
(-5.8733e-05 -1.2282e-06 -6.1731e-06)
(-5.8727e-05 -2.4224e-06 -5.8466e-06)
(-5.8723e-05 -3.5434e-06 -5.3003e-06)
(-5.8725e-05 -4.5236e-06 -4.5232e-06)
(-5.8723e-05 -5.3007e-06 -3.5432e-06)
(-5.8727e-05 -5.8472e-06 -2.4222e-06)
(-5.8733e-05 -6.174e-06 -1.228e-06)
(-5.5981e-05 -9.4142e-07 -4.765e-06)
(-5.5979e-05 -1.8633e-06 -4.5071e-06)
(-5.5973e-05 -2.7359e-06 -4.0885e-06)
(-5.5973e-05 -3.4968e-06 -3.4966e-06)
(-5.5973e-05 -4.089e-06 -2.7359e-06)
(-5.5979e-05 -4.5079e-06 -1.8633e-06)
(-5.5981e-05 -4.7661e-06 -9.413e-07)
)
;
    }
    procBoundary2to1
    {
        type            processor;
    }
    procBoundary2to3
    {
        type            processor;
    }
}


// ************************************************************************* //
