/*--------------------------------*- C++ -*----------------------------------*\
| =========                 |                                                 |
| \\      /  F ield         | foam-extend: Open Source CFD                    |
|  \\    /   O peration     | Version:     4.1-20200408                       |
|   \\  /    A nd           | Web:         http://www.foam-extend.org         |
|    \\/     M anipulation  |                                                 |
\*---------------------------------------------------------------------------*/
FoamFile
{
    version     2.0;
    format      ascii;
    class       volScalarField;
    location    "0.0540000";
    object      sigmaY;
}
// * * * * * * * * * * * * * * * * * * * * * * * * * * * * * * * * * * * * * //

dimensions      [1 -1 -2 0 0 0 0];

internalField   nonuniform List<scalar> 
1952
(
1.27695e+09
1.27699e+09
1.27707e+09
1.27714e+09
1.27725e+09
1.27736e+09
1.27746e+09
1.27748e+09
1.27743e+09
1.27721e+09
1.2768e+09
1.27607e+09
1.27506e+09
1.27418e+09
1.27372e+09
1.27691e+09
1.27698e+09
1.27702e+09
1.2771e+09
1.27718e+09
1.27728e+09
1.27739e+09
1.27749e+09
1.27751e+09
1.27746e+09
1.27724e+09
1.27683e+09
1.2761e+09
1.27509e+09
1.27421e+09
1.27375e+09
1.27694e+09
1.27701e+09
1.27705e+09
1.27713e+09
1.27721e+09
1.27731e+09
1.27742e+09
1.27752e+09
1.27755e+09
1.27749e+09
1.27727e+09
1.27687e+09
1.27613e+09
1.27512e+09
1.27424e+09
1.27378e+09
1.27697e+09
1.27704e+09
1.27708e+09
1.27716e+09
1.27724e+09
1.27734e+09
1.27745e+09
1.27755e+09
1.27758e+09
1.27752e+09
1.2773e+09
1.2769e+09
1.27617e+09
1.27515e+09
1.27427e+09
1.27381e+09
1.277e+09
1.27707e+09
1.27711e+09
1.27719e+09
1.27727e+09
1.27738e+09
1.27748e+09
1.27758e+09
1.27761e+09
1.27755e+09
1.27734e+09
1.27693e+09
1.2762e+09
1.27518e+09
1.2743e+09
1.27384e+09
1.27703e+09
1.2771e+09
1.27714e+09
1.27722e+09
1.2773e+09
1.27741e+09
1.27751e+09
1.27761e+09
1.27764e+09
1.27758e+09
1.27737e+09
1.27696e+09
1.27623e+09
1.27521e+09
1.27433e+09
1.27387e+09
1.27707e+09
1.27713e+09
1.27717e+09
1.27725e+09
1.27733e+09
1.27744e+09
1.27754e+09
1.27765e+09
1.27767e+09
1.27761e+09
1.2774e+09
1.27699e+09
1.27626e+09
1.27524e+09
1.27436e+09
1.2739e+09
1.2771e+09
1.27717e+09
1.2772e+09
1.27728e+09
1.27736e+09
1.27747e+09
1.27758e+09
1.27768e+09
1.2777e+09
1.27765e+09
1.27743e+09
1.27702e+09
1.27629e+09
1.27527e+09
1.27439e+09
1.27393e+09
1.27713e+09
1.2772e+09
1.27724e+09
1.27731e+09
1.27739e+09
1.2775e+09
1.27761e+09
1.27771e+09
1.27774e+09
1.27768e+09
1.27746e+09
1.27705e+09
1.27632e+09
1.2753e+09
1.27442e+09
1.27396e+09
1.27716e+09
1.27723e+09
1.27727e+09
1.27735e+09
1.27742e+09
1.27753e+09
1.27764e+09
1.27774e+09
1.27777e+09
1.27771e+09
1.27749e+09
1.27709e+09
1.27635e+09
1.27533e+09
1.27446e+09
1.27399e+09
1.27719e+09
1.27726e+09
1.2773e+09
1.27738e+09
1.27745e+09
1.27756e+09
1.27767e+09
1.27777e+09
1.2778e+09
1.27774e+09
1.27753e+09
1.27712e+09
1.27638e+09
1.27536e+09
1.27449e+09
1.27402e+09
1.27722e+09
1.27729e+09
1.27733e+09
1.27741e+09
1.27748e+09
1.27759e+09
1.2777e+09
1.2778e+09
1.27783e+09
1.27777e+09
1.27756e+09
1.27715e+09
1.27641e+09
1.27539e+09
1.27452e+09
1.27406e+09
1.27725e+09
1.27732e+09
1.27736e+09
1.27744e+09
1.27751e+09
1.27763e+09
1.27773e+09
1.27783e+09
1.27786e+09
1.2778e+09
1.27759e+09
1.27718e+09
1.27644e+09
1.27542e+09
1.27455e+09
1.27409e+09
1.27728e+09
1.27735e+09
1.27739e+09
1.27747e+09
1.27755e+09
1.27766e+09
1.27776e+09
1.27787e+09
1.27789e+09
1.27784e+09
1.27762e+09
1.27721e+09
1.27647e+09
1.27545e+09
1.27458e+09
1.27412e+09
1.27731e+09
1.27738e+09
1.27742e+09
1.2775e+09
1.27758e+09
1.27769e+09
1.2778e+09
1.2779e+09
1.27792e+09
1.27787e+09
1.27765e+09
1.27724e+09
1.2765e+09
1.27548e+09
1.27461e+09
1.27415e+09
1.27734e+09
1.27741e+09
1.27745e+09
1.27753e+09
1.27761e+09
1.27772e+09
1.27783e+09
1.27793e+09
1.27795e+09
1.2779e+09
1.27769e+09
1.27728e+09
1.27653e+09
1.27552e+09
1.27464e+09
1.27418e+09
1.27737e+09
1.27744e+09
1.27748e+09
1.27756e+09
1.27764e+09
1.27775e+09
1.27786e+09
1.27796e+09
1.27799e+09
1.27793e+09
1.27772e+09
1.27731e+09
1.27656e+09
1.27555e+09
1.27467e+09
1.27421e+09
1.2774e+09
1.27747e+09
1.27751e+09
1.27759e+09
1.27767e+09
1.27778e+09
1.27789e+09
1.27799e+09
1.27802e+09
1.27796e+09
1.27775e+09
1.27734e+09
1.2766e+09
1.27558e+09
1.2747e+09
1.27424e+09
1.27744e+09
1.2775e+09
1.27754e+09
1.27762e+09
1.2777e+09
1.27781e+09
1.27792e+09
1.27802e+09
1.27805e+09
1.278e+09
1.27778e+09
1.27737e+09
1.27663e+09
1.27561e+09
1.27473e+09
1.27427e+09
1.27747e+09
1.27754e+09
1.27758e+09
1.27765e+09
1.27773e+09
1.27785e+09
1.27795e+09
1.27806e+09
1.27808e+09
1.27803e+09
1.27781e+09
1.2774e+09
1.27666e+09
1.27564e+09
1.27476e+09
1.2743e+09
1.2775e+09
1.27757e+09
1.27761e+09
1.27769e+09
1.27776e+09
1.27788e+09
1.27799e+09
1.27809e+09
1.27811e+09
1.27806e+09
1.27785e+09
1.27743e+09
1.27669e+09
1.27567e+09
1.2748e+09
1.27433e+09
1.27753e+09
1.2776e+09
1.27764e+09
1.27772e+09
1.27779e+09
1.27791e+09
1.27802e+09
1.27812e+09
1.27814e+09
1.27809e+09
1.27788e+09
1.27747e+09
1.27672e+09
1.2757e+09
1.27483e+09
1.27436e+09
1.27756e+09
1.27763e+09
1.27767e+09
1.27775e+09
1.27782e+09
1.27794e+09
1.27805e+09
1.27815e+09
1.27817e+09
1.27812e+09
1.27791e+09
1.2775e+09
1.27675e+09
1.27573e+09
1.27486e+09
1.2744e+09
1.27759e+09
1.27766e+09
1.2777e+09
1.27778e+09
1.27786e+09
1.27797e+09
1.27808e+09
1.27818e+09
1.27821e+09
1.27816e+09
1.27794e+09
1.27753e+09
1.27678e+09
1.27576e+09
1.27489e+09
1.27443e+09
1.27762e+09
1.27769e+09
1.27773e+09
1.27781e+09
1.27789e+09
1.278e+09
1.27811e+09
1.27821e+09
1.27824e+09
1.27819e+09
1.27797e+09
1.27756e+09
1.27681e+09
1.27579e+09
1.27492e+09
1.27446e+09
1.27765e+09
1.27772e+09
1.27776e+09
1.27784e+09
1.27792e+09
1.27803e+09
1.27814e+09
1.27824e+09
1.27827e+09
1.27822e+09
1.27801e+09
1.27759e+09
1.27684e+09
1.27582e+09
1.27495e+09
1.27449e+09
1.27768e+09
1.27775e+09
1.27779e+09
1.27787e+09
1.27795e+09
1.27807e+09
1.27817e+09
1.27828e+09
1.2783e+09
1.27825e+09
1.27804e+09
1.27762e+09
1.27687e+09
1.27585e+09
1.27498e+09
1.27452e+09
1.27771e+09
1.27778e+09
1.27782e+09
1.2779e+09
1.27798e+09
1.2781e+09
1.27821e+09
1.27831e+09
1.27833e+09
1.27828e+09
1.27807e+09
1.27766e+09
1.2769e+09
1.27588e+09
1.27501e+09
1.27455e+09
1.27775e+09
1.27781e+09
1.27785e+09
1.27793e+09
1.27801e+09
1.27813e+09
1.27824e+09
1.27834e+09
1.27836e+09
1.27832e+09
1.2781e+09
1.27769e+09
1.27694e+09
1.27591e+09
1.27504e+09
1.27458e+09
1.27778e+09
1.27785e+09
1.27788e+09
1.27796e+09
1.27804e+09
1.27816e+09
1.27827e+09
1.27837e+09
1.27839e+09
1.27835e+09
1.27813e+09
1.27772e+09
1.27697e+09
1.27595e+09
1.27507e+09
1.27461e+09
1.27781e+09
1.27788e+09
1.27792e+09
1.278e+09
1.27807e+09
1.27819e+09
1.2783e+09
1.2784e+09
1.27842e+09
1.27838e+09
1.27816e+09
1.27775e+09
1.277e+09
1.27598e+09
1.27511e+09
1.27464e+09
1.27784e+09
1.27791e+09
1.27795e+09
1.27803e+09
1.2781e+09
1.27822e+09
1.27833e+09
1.27843e+09
1.27846e+09
1.27841e+09
1.2782e+09
1.27778e+09
1.27703e+09
1.27601e+09
1.27514e+09
1.27467e+09
1.27787e+09
1.27794e+09
1.27798e+09
1.27806e+09
1.27813e+09
1.27825e+09
1.27836e+09
1.27846e+09
1.27849e+09
1.27844e+09
1.27823e+09
1.27781e+09
1.27706e+09
1.27604e+09
1.27517e+09
1.2747e+09
1.2779e+09
1.27797e+09
1.27801e+09
1.27809e+09
1.27817e+09
1.27828e+09
1.27839e+09
1.2785e+09
1.27852e+09
1.27847e+09
1.27826e+09
1.27784e+09
1.27709e+09
1.27607e+09
1.2752e+09
1.27473e+09
1.27793e+09
1.278e+09
1.27804e+09
1.27812e+09
1.2782e+09
1.27831e+09
1.27842e+09
1.27853e+09
1.27855e+09
1.27851e+09
1.27829e+09
1.27788e+09
1.27712e+09
1.2761e+09
1.27523e+09
1.27477e+09
1.27796e+09
1.27803e+09
1.27807e+09
1.27815e+09
1.27823e+09
1.27835e+09
1.27846e+09
1.27856e+09
1.27858e+09
1.27854e+09
1.27832e+09
1.27791e+09
1.27715e+09
1.27613e+09
1.27526e+09
1.2748e+09
1.27799e+09
1.27806e+09
1.2781e+09
1.27818e+09
1.27826e+09
1.27838e+09
1.27849e+09
1.27859e+09
1.27861e+09
1.27857e+09
1.27835e+09
1.27794e+09
1.27718e+09
1.27616e+09
1.27529e+09
1.27483e+09
1.27802e+09
1.27809e+09
1.27813e+09
1.27821e+09
1.27829e+09
1.27841e+09
1.27852e+09
1.27862e+09
1.27864e+09
1.2786e+09
1.27839e+09
1.27797e+09
1.27721e+09
1.27619e+09
1.27532e+09
1.27486e+09
1.27805e+09
1.27812e+09
1.27816e+09
1.27824e+09
1.27832e+09
1.27844e+09
1.27855e+09
1.27865e+09
1.27867e+09
1.27863e+09
1.27842e+09
1.278e+09
1.27724e+09
1.27622e+09
1.27535e+09
1.27489e+09
1.27808e+09
1.27815e+09
1.27819e+09
1.27827e+09
1.27835e+09
1.27847e+09
1.27858e+09
1.27868e+09
1.27871e+09
1.27866e+09
1.27845e+09
1.27803e+09
1.27727e+09
1.27625e+09
1.27538e+09
1.27492e+09
1.27811e+09
1.27818e+09
1.27822e+09
1.2783e+09
1.27838e+09
1.2785e+09
1.27861e+09
1.27872e+09
1.27874e+09
1.2787e+09
1.27848e+09
1.27806e+09
1.2773e+09
1.27628e+09
1.27541e+09
1.27495e+09
1.27815e+09
1.27821e+09
1.27825e+09
1.27833e+09
1.27841e+09
1.27853e+09
1.27864e+09
1.27875e+09
1.27877e+09
1.27873e+09
1.27851e+09
1.2781e+09
1.27734e+09
1.27631e+09
1.27544e+09
1.27498e+09
1.27818e+09
1.27825e+09
1.27829e+09
1.27836e+09
1.27845e+09
1.27857e+09
1.27868e+09
1.27878e+09
1.2788e+09
1.27876e+09
1.27855e+09
1.27813e+09
1.27737e+09
1.27634e+09
1.27548e+09
1.27501e+09
1.27821e+09
1.27828e+09
1.27832e+09
1.27839e+09
1.27848e+09
1.2786e+09
1.27871e+09
1.27881e+09
1.27883e+09
1.27879e+09
1.27858e+09
1.27816e+09
1.2774e+09
1.27637e+09
1.27551e+09
1.27504e+09
1.27824e+09
1.27831e+09
1.27835e+09
1.27843e+09
1.27851e+09
1.27863e+09
1.27874e+09
1.27884e+09
1.27886e+09
1.27882e+09
1.27861e+09
1.27819e+09
1.27743e+09
1.2764e+09
1.27554e+09
1.27507e+09
1.27827e+09
1.27834e+09
1.27838e+09
1.27846e+09
1.27854e+09
1.27866e+09
1.27877e+09
1.27887e+09
1.27889e+09
1.27885e+09
1.27864e+09
1.27822e+09
1.27746e+09
1.27643e+09
1.27557e+09
1.2751e+09
1.2783e+09
1.27837e+09
1.27841e+09
1.27849e+09
1.27857e+09
1.27869e+09
1.2788e+09
1.2789e+09
1.27892e+09
1.27889e+09
1.27867e+09
1.27825e+09
1.27749e+09
1.27646e+09
1.2756e+09
1.27514e+09
1.27833e+09
1.2784e+09
1.27844e+09
1.27852e+09
1.2786e+09
1.27872e+09
1.27883e+09
1.27894e+09
1.27895e+09
1.27892e+09
1.2787e+09
1.27828e+09
1.27752e+09
1.2765e+09
1.27563e+09
1.27517e+09
1.27836e+09
1.27843e+09
1.27847e+09
1.27855e+09
1.27863e+09
1.27875e+09
1.27886e+09
1.27897e+09
1.27899e+09
1.27895e+09
1.27874e+09
1.27832e+09
1.27755e+09
1.27653e+09
1.27566e+09
1.2752e+09
1.27839e+09
1.27846e+09
1.2785e+09
1.27858e+09
1.27866e+09
1.27878e+09
1.2789e+09
1.279e+09
1.27902e+09
1.27898e+09
1.27877e+09
1.27835e+09
1.27758e+09
1.27656e+09
1.27569e+09
1.2752e+09
1.27842e+09
1.27849e+09
1.27853e+09
1.27861e+09
1.27869e+09
1.27882e+09
1.27893e+09
1.27903e+09
1.27905e+09
1.27901e+09
1.2788e+09
1.27838e+09
1.27761e+09
1.27659e+09
1.27572e+09
1.27514e+09
1.27845e+09
1.27852e+09
1.27856e+09
1.27864e+09
1.27873e+09
1.27885e+09
1.27896e+09
1.27906e+09
1.27908e+09
1.27904e+09
1.27883e+09
1.27841e+09
1.27764e+09
1.27662e+09
1.27573e+09
1.27495e+09
1.27848e+09
1.27855e+09
1.27859e+09
1.27867e+09
1.27876e+09
1.27888e+09
1.27899e+09
1.27909e+09
1.27911e+09
1.27908e+09
1.27886e+09
1.27844e+09
1.27767e+09
1.27665e+09
1.2756e+09
1.27456e+09
1.27851e+09
1.27858e+09
1.27862e+09
1.2787e+09
1.27879e+09
1.27891e+09
1.27902e+09
1.27912e+09
1.27914e+09
1.27911e+09
1.2789e+09
1.27847e+09
1.2777e+09
1.27659e+09
1.27527e+09
1.27394e+09
1.27854e+09
1.27861e+09
1.27865e+09
1.27873e+09
1.27882e+09
1.27894e+09
1.27905e+09
1.27916e+09
1.27917e+09
1.2791e+09
1.27881e+09
1.2783e+09
1.27743e+09
1.2762e+09
1.27469e+09
1.27312e+09
1.27858e+09
1.27865e+09
1.27868e+09
1.27876e+09
1.27883e+09
1.27891e+09
1.27896e+09
1.27898e+09
1.27892e+09
1.27874e+09
1.27835e+09
1.27773e+09
1.27675e+09
1.27544e+09
1.27382e+09
1.27215e+09
1.27861e+09
1.27854e+09
1.27855e+09
1.27857e+09
1.27858e+09
1.27858e+09
1.27853e+09
1.27844e+09
1.27826e+09
1.27797e+09
1.27747e+09
1.27676e+09
1.27569e+09
1.27434e+09
1.2727e+09
1.27103e+09
1.27851e+09
1.27809e+09
1.27806e+09
1.27801e+09
1.27794e+09
1.27784e+09
1.27769e+09
1.27749e+09
1.27721e+09
1.27681e+09
1.27623e+09
1.27544e+09
1.27435e+09
1.27299e+09
1.2714e+09
1.26982e+09
1.27809e+09
1.27718e+09
1.2771e+09
1.27699e+09
1.27685e+09
1.27666e+09
1.27643e+09
1.27615e+09
1.27578e+09
1.27532e+09
1.27469e+09
1.27386e+09
1.27278e+09
1.27146e+09
1.26999e+09
1.26856e+09
1.27719e+09
1.27572e+09
1.27562e+09
1.27548e+09
1.27529e+09
1.27506e+09
1.27477e+09
1.27444e+09
1.27404e+09
1.27354e+09
1.2729e+09
1.27208e+09
1.27105e+09
1.26981e+09
1.26849e+09
1.26727e+09
1.27575e+09
1.27374e+09
1.27364e+09
1.27349e+09
1.2733e+09
1.27306e+09
1.27277e+09
1.27244e+09
1.27203e+09
1.27155e+09
1.27093e+09
1.27015e+09
1.2692e+09
1.26807e+09
1.26694e+09
1.26593e+09
1.27377e+09
1.27134e+09
1.27125e+09
1.27113e+09
1.27096e+09
1.27075e+09
1.2705e+09
1.2702e+09
1.26983e+09
1.26939e+09
1.26883e+09
1.26812e+09
1.26727e+09
1.26627e+09
1.26534e+09
1.26458e+09
1.27136e+09
1.26865e+09
1.26859e+09
1.26851e+09
1.26839e+09
1.26823e+09
1.26803e+09
1.26779e+09
1.26749e+09
1.26711e+09
1.26663e+09
1.266e+09
1.26528e+09
1.26443e+09
1.26372e+09
1.26321e+09
1.26867e+09
1.26586e+09
1.26583e+09
1.26578e+09
1.26571e+09
1.26561e+09
1.26548e+09
1.2653e+09
1.26507e+09
1.26477e+09
1.26437e+09
1.26385e+09
1.26326e+09
1.26258e+09
1.26209e+09
1.26184e+09
1.26587e+09
1.26313e+09
1.26312e+09
1.2631e+09
1.26306e+09
1.26301e+09
1.26293e+09
1.26281e+09
1.26264e+09
1.26242e+09
1.26211e+09
1.2617e+09
1.26124e+09
1.26073e+09
1.26048e+09
1.2605e+09
1.26313e+09
1.26059e+09
1.26058e+09
1.26057e+09
1.26055e+09
1.26052e+09
1.26046e+09
1.26039e+09
1.26027e+09
1.26011e+09
1.25988e+09
1.25957e+09
1.25925e+09
1.25892e+09
1.25891e+09
1.25919e+09
1.26059e+09
1.25833e+09
1.25831e+09
1.25829e+09
1.25826e+09
1.25822e+09
1.25817e+09
1.25811e+09
1.25802e+09
1.2579e+09
1.25774e+09
1.25752e+09
1.25733e+09
1.25718e+09
1.2574e+09
1.25793e+09
1.25832e+09
1.25636e+09
1.25633e+09
1.25629e+09
1.25624e+09
1.25618e+09
1.25611e+09
1.25604e+09
1.25595e+09
1.25585e+09
1.25572e+09
1.25559e+09
1.25551e+09
1.25554e+09
1.25597e+09
1.25672e+09
1.25636e+09
1.25468e+09
1.25464e+09
1.25459e+09
1.25452e+09
1.25443e+09
1.25433e+09
1.25422e+09
1.25411e+09
1.254e+09
1.25389e+09
1.25381e+09
1.25383e+09
1.25402e+09
1.25463e+09
1.25555e+09
1.25469e+09
1.25326e+09
1.25322e+09
1.25316e+09
1.25308e+09
1.25297e+09
1.25284e+09
1.2527e+09
1.25255e+09
1.25242e+09
1.2523e+09
1.25225e+09
1.25233e+09
1.25265e+09
1.25339e+09
1.25442e+09
1.25327e+09
1.25207e+09
1.25202e+09
1.25196e+09
1.25188e+09
1.25177e+09
1.25163e+09
1.25147e+09
1.2513e+09
1.25114e+09
1.251e+09
1.25096e+09
1.25108e+09
1.25146e+09
1.25223e+09
1.25329e+09
1.25208e+09
1.25105e+09
1.251e+09
1.25094e+09
1.25084e+09
1.25074e+09
1.25063e+09
1.25051e+09
1.25036e+09
1.25023e+09
1.25012e+09
1.25011e+09
1.25021e+09
1.25052e+09
1.25118e+09
1.25218e+09
1.25107e+09
1.25024e+09
1.25019e+09
1.25013e+09
1.25005e+09
1.25e+09
1.25e+09
1.25e+09
1.25e+09
1.25e+09
1.25e+09
1.25e+09
1.25e+09
1.25e+09
1.25039e+09
1.25118e+09
1.25025e+09
1.25e+09
1.25e+09
1.25e+09
1.25e+09
1.25e+09
1.25e+09
1.25e+09
1.25e+09
1.25e+09
1.25e+09
1.25e+09
1.25e+09
1.25e+09
1.25e+09
1.25042e+09
1.25e+09
1.25e+09
1.25e+09
1.25e+09
1.25e+09
1.25e+09
1.25e+09
1.25e+09
1.25e+09
1.25e+09
1.25e+09
1.25e+09
1.25e+09
1.25e+09
1.25e+09
1.25e+09
1.25e+09
1.25e+09
1.25e+09
1.25e+09
1.25e+09
1.25e+09
1.25e+09
1.25e+09
1.25e+09
1.25e+09
1.25e+09
1.25e+09
1.25e+09
1.25e+09
1.25e+09
1.25e+09
1.25e+09
1.25e+09
1.25e+09
1.25e+09
1.25e+09
1.25e+09
1.25e+09
1.25e+09
1.25e+09
1.25e+09
1.25e+09
1.25e+09
1.25e+09
1.25e+09
1.25e+09
1.25e+09
1.25e+09
1.25e+09
1.25e+09
1.25e+09
1.25e+09
1.25e+09
1.25e+09
1.25e+09
1.25e+09
1.25e+09
1.25e+09
1.25e+09
1.25e+09
1.25e+09
1.25e+09
1.25e+09
1.25e+09
1.25e+09
1.25e+09
1.25e+09
1.25e+09
1.25e+09
1.25e+09
1.25e+09
1.25e+09
1.25e+09
1.25e+09
1.25e+09
1.25e+09
1.25e+09
1.25e+09
1.25e+09
1.25e+09
1.25e+09
1.25e+09
1.25e+09
1.25e+09
1.25e+09
1.25e+09
1.25e+09
1.25e+09
1.25e+09
1.25e+09
1.25e+09
1.25e+09
1.25e+09
1.25e+09
1.25e+09
1.25e+09
1.25e+09
1.25e+09
1.25e+09
1.25e+09
1.25e+09
1.25e+09
1.25e+09
1.25e+09
1.25e+09
1.25e+09
1.25e+09
1.25e+09
1.25e+09
1.25e+09
1.25e+09
1.25e+09
1.25e+09
1.25e+09
1.25e+09
1.25e+09
1.25e+09
1.25e+09
1.25e+09
1.25e+09
1.25e+09
1.25e+09
1.25e+09
1.25e+09
1.25e+09
1.25e+09
1.25e+09
1.25e+09
1.25e+09
1.25e+09
1.25e+09
1.25e+09
1.25e+09
1.25e+09
1.25e+09
1.25e+09
1.25e+09
1.25e+09
1.25e+09
1.25e+09
1.25e+09
1.25e+09
1.25e+09
1.25e+09
1.25e+09
1.25e+09
1.25e+09
1.25e+09
1.25e+09
1.25e+09
1.25e+09
1.25e+09
1.25e+09
1.25e+09
1.25e+09
1.25e+09
1.25e+09
1.25e+09
1.25e+09
1.25e+09
1.25e+09
1.25e+09
1.25e+09
1.25e+09
1.25e+09
1.25e+09
1.25e+09
1.25e+09
1.25e+09
1.25e+09
1.25e+09
1.25e+09
1.25e+09
1.25e+09
1.25e+09
1.25e+09
1.25e+09
1.25e+09
1.25e+09
1.25e+09
1.25e+09
1.25e+09
1.25e+09
1.25e+09
1.25e+09
1.25e+09
1.25e+09
1.25e+09
1.25e+09
1.25e+09
1.25e+09
1.25e+09
1.25e+09
1.25e+09
1.25e+09
1.25e+09
1.25e+09
1.25e+09
1.25e+09
1.25e+09
1.25e+09
1.25e+09
1.25e+09
1.25e+09
1.25e+09
1.25e+09
1.25e+09
1.25e+09
1.25e+09
1.25e+09
1.25e+09
1.25e+09
1.25e+09
1.25e+09
1.25e+09
1.25e+09
1.25e+09
1.25e+09
1.25e+09
1.25e+09
1.25e+09
1.25e+09
1.25e+09
1.25e+09
1.25e+09
1.25e+09
1.25e+09
1.25e+09
1.25e+09
1.25e+09
1.25e+09
1.25e+09
1.25e+09
1.25e+09
1.25e+09
1.25e+09
1.25e+09
1.25e+09
1.25e+09
1.25e+09
1.25e+09
1.25e+09
1.25e+09
1.25e+09
1.25e+09
1.25e+09
1.25e+09
1.25e+09
1.25e+09
1.25e+09
1.25e+09
1.25e+09
1.25e+09
1.25e+09
1.25e+09
1.25e+09
1.25e+09
1.25e+09
1.25e+09
1.25e+09
1.25e+09
1.25e+09
1.25e+09
1.25e+09
1.25e+09
1.25e+09
1.25e+09
1.25e+09
1.25e+09
1.25e+09
1.25e+09
1.25e+09
1.25e+09
1.25e+09
1.25e+09
1.25e+09
1.25e+09
1.25e+09
1.25e+09
1.25e+09
1.25e+09
1.25e+09
1.25e+09
1.25e+09
1.25e+09
1.25e+09
1.25e+09
1.25e+09
1.25e+09
1.25e+09
1.25e+09
1.25e+09
1.25e+09
1.25e+09
1.25e+09
1.25e+09
1.25e+09
1.25e+09
1.25e+09
1.25e+09
1.25e+09
1.25e+09
1.25e+09
1.25e+09
1.25e+09
1.25e+09
1.25e+09
1.25e+09
1.25e+09
1.25e+09
1.25e+09
1.25e+09
1.25e+09
1.25e+09
1.25e+09
1.25e+09
1.25e+09
1.25e+09
1.25e+09
1.25e+09
1.25e+09
1.25e+09
1.25e+09
1.25e+09
1.25e+09
1.25e+09
1.25e+09
1.25e+09
1.25e+09
1.25e+09
1.25e+09
1.25e+09
1.25e+09
1.25e+09
1.25e+09
1.25e+09
1.25e+09
1.25e+09
1.25e+09
1.25e+09
1.25e+09
1.25e+09
1.25e+09
1.25e+09
1.25e+09
1.25e+09
1.25e+09
1.25e+09
1.25e+09
1.25e+09
1.25e+09
1.25e+09
1.25e+09
1.25e+09
1.25e+09
1.25e+09
1.25e+09
1.25e+09
1.25e+09
1.25e+09
1.25e+09
1.25e+09
1.25e+09
1.25e+09
1.25e+09
1.25e+09
1.25e+09
1.25e+09
1.25e+09
1.25e+09
1.25e+09
1.25e+09
1.25e+09
1.25e+09
1.25e+09
1.25e+09
1.25e+09
1.25e+09
1.25e+09
1.25e+09
1.25e+09
1.25e+09
1.25e+09
1.25e+09
1.25e+09
1.25e+09
1.25e+09
1.25e+09
1.25e+09
1.25e+09
1.25e+09
1.25e+09
1.25e+09
1.25e+09
1.25e+09
1.25e+09
1.25e+09
1.25e+09
1.25e+09
1.25e+09
1.25e+09
1.25e+09
1.25e+09
1.25e+09
1.25e+09
1.25e+09
1.25e+09
1.25e+09
1.25e+09
1.25e+09
1.25e+09
1.25e+09
1.25e+09
1.25e+09
1.25e+09
1.25e+09
1.25e+09
1.25e+09
1.25e+09
1.25e+09
1.25e+09
1.25e+09
1.25e+09
1.25e+09
1.25e+09
1.25e+09
1.25e+09
1.25e+09
1.25e+09
1.25e+09
1.25e+09
1.25e+09
1.25e+09
1.25e+09
1.25e+09
1.25e+09
1.25e+09
1.25e+09
1.25e+09
1.25e+09
1.25e+09
1.25e+09
1.25e+09
1.25e+09
1.25e+09
1.25e+09
1.25e+09
1.25e+09
1.25e+09
1.25e+09
1.25e+09
1.25e+09
1.25e+09
1.25e+09
1.25e+09
1.25e+09
1.25e+09
1.25e+09
1.25e+09
1.25e+09
1.25e+09
1.25e+09
1.25e+09
1.25e+09
1.25e+09
1.25e+09
1.25e+09
1.25e+09
1.25e+09
1.25e+09
1.25e+09
1.25e+09
1.25e+09
1.25e+09
1.25e+09
1.25e+09
1.25e+09
1.25e+09
1.25e+09
1.25e+09
1.25e+09
1.25e+09
1.25e+09
1.25e+09
1.25e+09
1.25e+09
1.25e+09
1.25e+09
1.25e+09
1.25e+09
1.25e+09
1.25e+09
1.25e+09
1.25e+09
1.25e+09
1.25e+09
1.25e+09
1.25e+09
1.25e+09
1.25e+09
1.25e+09
1.25e+09
1.25e+09
1.25e+09
1.25e+09
1.25e+09
1.25e+09
1.25e+09
1.25e+09
1.25e+09
1.25e+09
1.25e+09
1.25e+09
1.25e+09
1.25e+09
1.25e+09
1.25e+09
1.25e+09
1.25e+09
1.25e+09
1.25e+09
1.25e+09
1.25e+09
1.25e+09
1.25e+09
1.25e+09
1.25e+09
1.25e+09
1.25e+09
1.25e+09
1.25e+09
1.25e+09
1.25e+09
1.25e+09
1.25e+09
1.25e+09
1.25e+09
1.25e+09
1.25e+09
1.25e+09
1.25e+09
1.25e+09
1.25e+09
1.25e+09
1.25e+09
1.25e+09
1.25e+09
1.25e+09
1.25e+09
1.25e+09
1.25e+09
1.25e+09
1.25e+09
1.25e+09
1.25e+09
1.25e+09
1.25e+09
1.25e+09
1.25e+09
1.25e+09
1.25e+09
1.25e+09
1.25e+09
1.25e+09
1.25e+09
1.25e+09
1.25e+09
1.25e+09
1.25e+09
1.25e+09
1.25e+09
1.25e+09
1.25e+09
1.25e+09
1.25e+09
1.25e+09
1.25e+09
1.25e+09
1.25e+09
1.25e+09
1.25e+09
1.25e+09
1.25e+09
1.25e+09
1.25e+09
1.25e+09
1.25e+09
1.25e+09
1.25e+09
1.25e+09
1.25e+09
1.25e+09
1.25e+09
1.25e+09
1.25e+09
1.25e+09
1.25e+09
1.25e+09
1.25e+09
1.25e+09
1.25e+09
1.25e+09
1.25e+09
1.25e+09
1.25e+09
1.25e+09
1.25e+09
1.25e+09
1.25e+09
1.25e+09
1.25e+09
1.25e+09
1.25e+09
1.25e+09
1.25e+09
1.25e+09
1.25e+09
1.25e+09
1.25e+09
1.25e+09
1.25e+09
1.25e+09
1.25e+09
1.25e+09
1.25e+09
1.25e+09
1.25e+09
1.25e+09
1.25e+09
1.25e+09
1.25e+09
1.25e+09
1.25e+09
1.25e+09
1.25e+09
1.25e+09
1.25e+09
1.25e+09
1.25e+09
1.25e+09
1.25e+09
1.25e+09
1.25e+09
1.25e+09
1.25e+09
1.25e+09
1.25e+09
1.25e+09
1.25e+09
1.25e+09
1.25e+09
1.25e+09
1.25e+09
1.25e+09
1.25e+09
1.25e+09
1.25e+09
1.25e+09
1.25e+09
1.25e+09
1.25e+09
1.25e+09
1.25e+09
1.25e+09
1.25e+09
1.25e+09
1.25e+09
1.25e+09
1.25e+09
1.25e+09
1.25e+09
1.25e+09
1.25e+09
1.25e+09
1.25e+09
1.25e+09
1.25e+09
1.25e+09
1.25e+09
1.25e+09
1.25e+09
1.25e+09
1.25e+09
1.25e+09
1.25e+09
1.25e+09
1.25e+09
1.25e+09
1.25e+09
1.25e+09
1.25e+09
1.25e+09
1.25e+09
1.25e+09
1.25e+09
1.25e+09
1.25e+09
1.25e+09
1.25e+09
1.25e+09
1.25e+09
1.25e+09
1.25e+09
1.25e+09
1.25e+09
1.25e+09
1.25e+09
1.25e+09
1.25e+09
1.25e+09
1.25e+09
1.25e+09
1.25e+09
1.25e+09
1.25e+09
1.25e+09
1.25e+09
1.25e+09
1.25e+09
1.25e+09
1.25e+09
1.25e+09
1.25e+09
1.25e+09
1.25e+09
1.25e+09
1.25e+09
1.25e+09
1.25e+09
1.25e+09
1.25e+09
1.25e+09
1.25e+09
1.25e+09
1.25e+09
1.25e+09
1.25e+09
1.25e+09
1.25e+09
1.25e+09
1.25e+09
1.25e+09
1.25e+09
1.25e+09
1.25e+09
1.25e+09
1.25e+09
1.25e+09
1.25e+09
1.25e+09
1.25e+09
1.25e+09
1.25e+09
1.25e+09
1.25e+09
1.25e+09
1.25e+09
1.25e+09
1.25e+09
1.25e+09
1.25e+09
1.25e+09
1.25e+09
1.25e+09
1.25e+09
1.25e+09
1.25e+09
1.25e+09
)
;

boundaryField
{
    wireUpstream
    {
        type            calculated;
        value           uniform 1.25e+09;
    }
    wireDownstream
    {
        type            calculated;
        value           nonuniform List<scalar> 
16
(
1.27695e+09
1.27699e+09
1.27707e+09
1.27714e+09
1.27725e+09
1.27736e+09
1.27746e+09
1.27748e+09
1.27743e+09
1.27721e+09
1.2768e+09
1.27607e+09
1.27506e+09
1.27418e+09
1.27372e+09
1.27691e+09
)
;
    }
    wireTopContact
    {
        type            calculated;
        value           nonuniform List<scalar> 
122
(
1.27366e+09
1.27369e+09
1.27372e+09
1.27375e+09
1.27378e+09
1.27381e+09
1.27384e+09
1.27387e+09
1.2739e+09
1.27393e+09
1.27396e+09
1.274e+09
1.27403e+09
1.27406e+09
1.27409e+09
1.27412e+09
1.27415e+09
1.27418e+09
1.27421e+09
1.27424e+09
1.27427e+09
1.2743e+09
1.27433e+09
1.27437e+09
1.2744e+09
1.27443e+09
1.27446e+09
1.27449e+09
1.27452e+09
1.27455e+09
1.27458e+09
1.27461e+09
1.27464e+09
1.27467e+09
1.2747e+09
1.27473e+09
1.27477e+09
1.2748e+09
1.27483e+09
1.27486e+09
1.27489e+09
1.27492e+09
1.27495e+09
1.27498e+09
1.27501e+09
1.27504e+09
1.27507e+09
1.2751e+09
1.27511e+09
1.27505e+09
1.27486e+09
1.27446e+09
1.27383e+09
1.27301e+09
1.27205e+09
1.27094e+09
1.26974e+09
1.26849e+09
1.26719e+09
1.26586e+09
1.2645e+09
1.26313e+09
1.26177e+09
1.26043e+09
1.25913e+09
1.25787e+09
1.25667e+09
1.25552e+09
1.25441e+09
1.25329e+09
1.25219e+09
1.2512e+09
1.25043e+09
1.25e+09
1.25e+09
1.25e+09
1.25e+09
1.25e+09
1.25e+09
1.25e+09
1.25e+09
1.25e+09
1.25e+09
1.25e+09
1.25e+09
1.25e+09
1.25e+09
1.25e+09
1.25e+09
1.25e+09
1.25e+09
1.25e+09
1.25e+09
1.25e+09
1.25e+09
1.25e+09
1.25e+09
1.25e+09
1.25e+09
1.25e+09
1.25e+09
1.25e+09
1.25e+09
1.25e+09
1.25e+09
1.25e+09
1.25e+09
1.25e+09
1.25e+09
1.25e+09
1.25e+09
1.25e+09
1.25e+09
1.25e+09
1.25e+09
1.25e+09
1.25e+09
1.25e+09
1.25e+09
1.25e+09
1.25e+09
1.27363e+09
)
;
    }
    front
    {
        type            wedge;
    }
    back
    {
        type            wedge;
    }
}


// ************************************************************************* //
