/*--------------------------------*- C++ -*----------------------------------*\
| =========                 |                                                 |
| \\      /  F ield         | foam-extend: Open Source CFD                    |
|  \\    /   O peration     | Version:     4.1-20200408                       |
|   \\  /    A nd           | Web:         http://www.foam-extend.org         |
|    \\/     M anipulation  |                                                 |
\*---------------------------------------------------------------------------*/
FoamFile
{
    version     2.0;
    format      ascii;
    class       volVectorField;
    location    "0.0540000";
    object      U_0;
}
// * * * * * * * * * * * * * * * * * * * * * * * * * * * * * * * * * * * * * //

dimensions      [0 1 0 0 0 0 0];

internalField   nonuniform List<vector> 
1952
(
(0.0525844 -2.58616e-06 0)
(0.0525841 -4.20668e-06 0)
(0.0525837 -5.84697e-06 0)
(0.0525831 -7.4837e-06 0)
(0.0525825 -9.12203e-06 0)
(0.0525817 -1.07456e-05 0)
(0.0525808 -1.23701e-05 0)
(0.0525799 -1.39725e-05 0)
(0.052579 -1.55741e-05 0)
(0.0525781 -1.71459e-05 0)
(0.0525772 -1.87118e-05 0)
(0.0525765 -2.02408e-05 0)
(0.052576 -2.17447e-05 0)
(0.0525756 -2.32051e-05 0)
(0.0525756 -2.46325e-05 0)
(0.0525846 -1.10814e-06 0)
(0.0525811 -2.58844e-06 0)
(0.0525808 -4.21043e-06 0)
(0.0525804 -5.85213e-06 0)
(0.0525798 -7.49039e-06 0)
(0.0525791 -9.13013e-06 0)
(0.0525783 -1.07553e-05 0)
(0.0525775 -1.23812e-05 0)
(0.0525766 -1.39852e-05 0)
(0.0525757 -1.55883e-05 0)
(0.0525747 -1.71619e-05 0)
(0.0525739 -1.87294e-05 0)
(0.0525732 -2.02602e-05 0)
(0.0525726 -2.17659e-05 0)
(0.0525723 -2.32282e-05 0)
(0.0525722 -2.46575e-05 0)
(0.0525812 -1.10912e-06 0)
(0.0525778 -2.5909e-06 0)
(0.0525775 -4.21444e-06 0)
(0.052577 -5.85771e-06 0)
(0.0525765 -7.49756e-06 0)
(0.0525758 -9.13889e-06 0)
(0.052575 -1.07657e-05 0)
(0.0525742 -1.23932e-05 0)
(0.0525732 -1.3999e-05 0)
(0.0525723 -1.56038e-05 0)
(0.0525714 -1.71792e-05 0)
(0.0525706 -1.87485e-05 0)
(0.0525698 -2.02812e-05 0)
(0.0525693 -2.17886e-05 0)
(0.052569 -2.3253e-05 0)
(0.0525689 -2.4684e-05 0)
(0.0525779 -1.11017e-06 0)
(0.0525745 -2.59354e-06 0)
(0.0525741 -4.21874e-06 0)
(0.0525737 -5.8637e-06 0)
(0.0525731 -7.50525e-06 0)
(0.0525725 -9.14828e-06 0)
(0.0525717 -1.07769e-05 0)
(0.0525708 -1.24061e-05 0)
(0.0525699 -1.40138e-05 0)
(0.052569 -1.56203e-05 0)
(0.0525681 -1.71975e-05 0)
(0.0525672 -1.87687e-05 0)
(0.0525665 -2.03034e-05 0)
(0.0525659 -2.18127e-05 0)
(0.0525656 -2.32789e-05 0)
(0.0525655 -2.47118e-05 0)
(0.0525746 -1.11131e-06 0)
(0.0525711 -2.59632e-06 0)
(0.0525708 -4.22327e-06 0)
(0.0525704 -5.87e-06 0)
(0.0525698 -7.51334e-06 0)
(0.0525691 -9.15817e-06 0)
(0.0525683 -1.07887e-05 0)
(0.0525675 -1.24197e-05 0)
(0.0525666 -1.40292e-05 0)
(0.0525656 -1.56377e-05 0)
(0.0525647 -1.72168e-05 0)
(0.0525639 -1.87898e-05 0)
(0.0525631 -2.03264e-05 0)
(0.0525626 -2.18376e-05 0)
(0.0525623 -2.33057e-05 0)
(0.0525622 -2.47403e-05 0)
(0.0525712 -1.1125e-06 0)
(0.0525678 -2.59922e-06 0)
(0.0525674 -4.228e-06 0)
(0.052567 -5.87659e-06 0)
(0.0525664 -7.5218e-06 0)
(0.0525658 -9.1685e-06 0)
(0.052565 -1.08009e-05 0)
(0.0525641 -1.24339e-05 0)
(0.0525632 -1.40453e-05 0)
(0.0525623 -1.56557e-05 0)
(0.0525614 -1.72367e-05 0)
(0.0525605 -1.88117e-05 0)
(0.0525598 -2.03502e-05 0)
(0.0525592 -2.18631e-05 0)
(0.0525589 -2.33331e-05 0)
(0.0525588 -2.47695e-05 0)
(0.0525679 -1.11374e-06 0)
(0.0525644 -2.60223e-06 0)
(0.0525641 -4.23289e-06 0)
(0.0525637 -5.88339e-06 0)
(0.0525631 -7.53053e-06 0)
(0.0525624 -9.17915e-06 0)
(0.0525616 -1.08135e-05 0)
(0.0525608 -1.24484e-05 0)
(0.0525599 -1.40618e-05 0)
(0.0525589 -1.56741e-05 0)
(0.052558 -1.7257e-05 0)
(0.0525572 -1.88339e-05 0)
(0.0525564 -2.03743e-05 0)
(0.0525559 -2.18891e-05 0)
(0.0525555 -2.3361e-05 0)
(0.0525555 -2.47991e-05 0)
(0.0525645 -1.11503e-06 0)
(0.0525611 -2.60529e-06 0)
(0.0525607 -4.23788e-06 0)
(0.0525603 -5.89033e-06 0)
(0.0525597 -7.53942e-06 0)
(0.0525591 -9.19e-06 0)
(0.0525583 -1.08263e-05 0)
(0.0525574 -1.24632e-05 0)
(0.0525565 -1.40786e-05 0)
(0.0525556 -1.56928e-05 0)
(0.0525547 -1.72777e-05 0)
(0.0525538 -1.88564e-05 0)
(0.0525531 -2.03988e-05 0)
(0.0525525 -2.19153e-05 0)
(0.0525522 -2.33891e-05 0)
(0.0525521 -2.48289e-05 0)
(0.0525612 -1.11634e-06 0)
(0.0525577 -2.60841e-06 0)
(0.0525574 -4.24295e-06 0)
(0.052557 -5.89738e-06 0)
(0.0525564 -7.54845e-06 0)
(0.0525557 -9.201e-06 0)
(0.0525549 -1.08393e-05 0)
(0.0525541 -1.24781e-05 0)
(0.0525531 -1.40955e-05 0)
(0.0525522 -1.57117e-05 0)
(0.0525513 -1.72985e-05 0)
(0.0525504 -1.88791e-05 0)
(0.0525497 -2.04234e-05 0)
(0.0525491 -2.19418e-05 0)
(0.0525488 -2.34173e-05 0)
(0.0525487 -2.4859e-05 0)
(0.0525578 -1.11768e-06 0)
(0.0525543 -2.61154e-06 0)
(0.052554 -4.24804e-06 0)
(0.0525536 -5.90447e-06 0)
(0.052553 -7.55751e-06 0)
(0.0525523 -9.21205e-06 0)
(0.0525515 -1.08524e-05 0)
(0.0525507 -1.24932e-05 0)
(0.0525498 -1.41125e-05 0)
(0.0525488 -1.57306e-05 0)
(0.0525479 -1.73195e-05 0)
(0.0525471 -1.8902e-05 0)
(0.0525463 -2.04482e-05 0)
(0.0525458 -2.19683e-05 0)
(0.0525454 -2.34458e-05 0)
(0.0525453 -2.48893e-05 0)
(0.0525545 -1.11902e-06 0)
(0.052551 -2.61469e-06 0)
(0.0525507 -4.25316e-06 0)
(0.0525502 -5.91159e-06 0)
(0.0525496 -7.56661e-06 0)
(0.052549 -9.22315e-06 0)
(0.0525482 -1.08655e-05 0)
(0.0525473 -1.25083e-05 0)
(0.0525464 -1.41296e-05 0)
(0.0525455 -1.57497e-05 0)
(0.0525445 -1.73405e-05 0)
(0.0525437 -1.89249e-05 0)
(0.052543 -2.0473e-05 0)
(0.0525424 -2.1995e-05 0)
(0.0525421 -2.34743e-05 0)
(0.052542 -2.49196e-05 0)
(0.0525511 -1.12037e-06 0)
(0.0525476 -2.61784e-06 0)
(0.0525473 -4.25829e-06 0)
(0.0525469 -5.91872e-06 0)
(0.0525463 -7.57575e-06 0)
(0.0525456 -9.2343e-06 0)
(0.0525448 -1.08786e-05 0)
(0.0525439 -1.25234e-05 0)
(0.052543 -1.41467e-05 0)
(0.0525421 -1.57688e-05 0)
(0.0525412 -1.73616e-05 0)
(0.0525403 -1.89479e-05 0)
(0.0525396 -2.04979e-05 0)
(0.052539 -2.20217e-05 0)
(0.0525387 -2.35029e-05 0)
(0.0525386 -2.49501e-05 0)
(0.0525477 -1.12172e-06 0)
(0.0525442 -2.62099e-06 0)
(0.0525439 -4.26341e-06 0)
(0.0525435 -5.92585e-06 0)
(0.0525429 -7.58485e-06 0)
(0.0525422 -9.2454e-06 0)
(0.0525414 -1.08917e-05 0)
(0.0525406 -1.25385e-05 0)
(0.0525396 -1.41638e-05 0)
(0.0525387 -1.57878e-05 0)
(0.0525378 -1.73826e-05 0)
(0.0525369 -1.89708e-05 0)
(0.0525362 -2.05228e-05 0)
(0.0525356 -2.20484e-05 0)
(0.0525353 -2.35315e-05 0)
(0.0525352 -2.49805e-05 0)
(0.0525443 -1.12307e-06 0)
(0.0525409 -2.62415e-06 0)
(0.0525405 -4.26854e-06 0)
(0.0525401 -5.93298e-06 0)
(0.0525395 -7.59398e-06 0)
(0.0525388 -9.25653e-06 0)
(0.052538 -1.09049e-05 0)
(0.0525372 -1.25536e-05 0)
(0.0525363 -1.41809e-05 0)
(0.0525353 -1.58068e-05 0)
(0.0525344 -1.74036e-05 0)
(0.0525335 -1.89937e-05 0)
(0.0525328 -2.05476e-05 0)
(0.0525322 -2.20751e-05 0)
(0.0525319 -2.35601e-05 0)
(0.0525318 -2.50109e-05 0)
(0.052541 -1.12442e-06 0)
(0.0525375 -2.62729e-06 0)
(0.0525371 -4.27365e-06 0)
(0.0525367 -5.94009e-06 0)
(0.0525361 -7.60308e-06 0)
(0.0525354 -9.26762e-06 0)
(0.0525346 -1.09179e-05 0)
(0.0525338 -1.25687e-05 0)
(0.0525329 -1.41979e-05 0)
(0.0525319 -1.58258e-05 0)
(0.052531 -1.74245e-05 0)
(0.0525301 -1.90166e-05 0)
(0.0525294 -2.05724e-05 0)
(0.0525288 -2.21017e-05 0)
(0.0525285 -2.35886e-05 0)
(0.0525284 -2.50414e-05 0)
(0.0525376 -1.12577e-06 0)
(0.0525341 -2.63043e-06 0)
(0.0525338 -4.27875e-06 0)
(0.0525333 -5.94717e-06 0)
(0.0525327 -7.61213e-06 0)
(0.0525321 -9.27864e-06 0)
(0.0525313 -1.0931e-05 0)
(0.0525304 -1.25837e-05 0)
(0.0525295 -1.42149e-05 0)
(0.0525285 -1.58446e-05 0)
(0.0525276 -1.74454e-05 0)
(0.0525268 -1.90394e-05 0)
(0.052526 -2.05971e-05 0)
(0.0525254 -2.21283e-05 0)
(0.0525251 -2.36171e-05 0)
(0.052525 -2.50717e-05 0)
(0.0525342 -1.12711e-06 0)
(0.0525307 -2.63354e-06 0)
(0.0525304 -4.28381e-06 0)
(0.0525299 -5.95421e-06 0)
(0.0525293 -7.62114e-06 0)
(0.0525287 -9.28962e-06 0)
(0.0525279 -1.09439e-05 0)
(0.052527 -1.25986e-05 0)
(0.0525261 -1.42318e-05 0)
(0.0525251 -1.58635e-05 0)
(0.0525242 -1.74662e-05 0)
(0.0525234 -1.9062e-05 0)
(0.0525226 -2.06217e-05 0)
(0.052522 -2.21547e-05 0)
(0.0525217 -2.36454e-05 0)
(0.0525216 -2.5102e-05 0)
(0.0525308 -1.12845e-06 0)
(0.0525273 -2.63664e-06 0)
(0.052527 -4.28885e-06 0)
(0.0525265 -5.96121e-06 0)
(0.0525259 -7.63011e-06 0)
(0.0525253 -9.30053e-06 0)
(0.0525245 -1.09568e-05 0)
(0.0525236 -1.26134e-05 0)
(0.0525227 -1.42485e-05 0)
(0.0525217 -1.58821e-05 0)
(0.0525208 -1.74869e-05 0)
(0.05252 -1.90845e-05 0)
(0.0525192 -2.06461e-05 0)
(0.0525186 -2.21811e-05 0)
(0.0525183 -2.36737e-05 0)
(0.0525182 -2.51322e-05 0)
(0.0525274 -1.12977e-06 0)
(0.0525239 -2.63969e-06 0)
(0.0525236 -4.29382e-06 0)
(0.0525231 -5.96812e-06 0)
(0.0525225 -7.63894e-06 0)
(0.0525219 -9.31129e-06 0)
(0.0525211 -1.09695e-05 0)
(0.0525202 -1.2628e-05 0)
(0.0525193 -1.42651e-05 0)
(0.0525183 -1.59006e-05 0)
(0.0525174 -1.75074e-05 0)
(0.0525165 -1.9107e-05 0)
(0.0525158 -2.06705e-05 0)
(0.0525152 -2.22073e-05 0)
(0.0525149 -2.3702e-05 0)
(0.0525148 -2.51624e-05 0)
(0.052524 -1.13108e-06 0)
(0.0525205 -2.64272e-06 0)
(0.0525202 -4.29874e-06 0)
(0.0525197 -5.97496e-06 0)
(0.0525191 -7.64771e-06 0)
(0.0525185 -9.32197e-06 0)
(0.0525176 -1.09822e-05 0)
(0.0525168 -1.26426e-05 0)
(0.0525159 -1.42816e-05 0)
(0.0525149 -1.5919e-05 0)
(0.052514 -1.75277e-05 0)
(0.0525131 -1.91293e-05 0)
(0.0525124 -2.06948e-05 0)
(0.0525118 -2.22335e-05 0)
(0.0525115 -2.37301e-05 0)
(0.0525114 -2.51925e-05 0)
(0.0525206 -1.13238e-06 0)
(0.0525171 -2.64571e-06 0)
(0.0525167 -4.3036e-06 0)
(0.0525163 -5.98172e-06 0)
(0.0525157 -7.65638e-06 0)
(0.052515 -9.33253e-06 0)
(0.0525142 -1.09947e-05 0)
(0.0525134 -1.2657e-05 0)
(0.0525124 -1.4298e-05 0)
(0.0525115 -1.59372e-05 0)
(0.0525106 -1.7548e-05 0)
(0.0525097 -1.91514e-05 0)
(0.052509 -2.07189e-05 0)
(0.0525084 -2.22595e-05 0)
(0.0525081 -2.37581e-05 0)
(0.052508 -2.52224e-05 0)
(0.0525172 -1.13366e-06 0)
(0.0525137 -2.64866e-06 0)
(0.0525133 -4.3084e-06 0)
(0.0525129 -5.9884e-06 0)
(0.0525123 -7.66494e-06 0)
(0.0525116 -9.34296e-06 0)
(0.0525108 -1.10071e-05 0)
(0.05251 -1.26712e-05 0)
(0.052509 -1.43142e-05 0)
(0.0525081 -1.59553e-05 0)
(0.0525072 -1.75681e-05 0)
(0.0525063 -1.91734e-05 0)
(0.0525056 -2.07429e-05 0)
(0.052505 -2.22854e-05 0)
(0.0525046 -2.3786e-05 0)
(0.0525046 -2.52523e-05 0)
(0.0525138 -1.13493e-06 0)
(0.0525102 -2.65158e-06 0)
(0.0525099 -4.31316e-06 0)
(0.0525095 -5.99502e-06 0)
(0.0525089 -7.67344e-06 0)
(0.0525082 -9.3533e-06 0)
(0.0525074 -1.10193e-05 0)
(0.0525065 -1.26853e-05 0)
(0.0525056 -1.43303e-05 0)
(0.0525047 -1.59733e-05 0)
(0.0525037 -1.7588e-05 0)
(0.0525029 -1.91952e-05 0)
(0.0525021 -2.07667e-05 0)
(0.0525015 -2.23112e-05 0)
(0.0525012 -2.38138e-05 0)
(0.0525011 -2.52821e-05 0)
(0.0525104 -1.13618e-06 0)
(0.0525068 -2.65448e-06 0)
(0.0525065 -4.31788e-06 0)
(0.0525061 -6.00157e-06 0)
(0.0525055 -7.68186e-06 0)
(0.0525048 -9.36355e-06 0)
(0.052504 -1.10315e-05 0)
(0.0525031 -1.26993e-05 0)
(0.0525022 -1.43462e-05 0)
(0.0525012 -1.5991e-05 0)
(0.0525003 -1.76078e-05 0)
(0.0524994 -1.92169e-05 0)
(0.0524987 -2.07904e-05 0)
(0.0524981 -2.23368e-05 0)
(0.0524978 -2.38414e-05 0)
(0.0524977 -2.53118e-05 0)
(0.0525069 -1.13742e-06 0)
(0.0525034 -2.65735e-06 0)
(0.0525031 -4.32255e-06 0)
(0.0525026 -6.00807e-06 0)
(0.052502 -7.6902e-06 0)
(0.0525014 -9.37369e-06 0)
(0.0525005 -1.10436e-05 0)
(0.0524997 -1.27132e-05 0)
(0.0524987 -1.43621e-05 0)
(0.0524978 -1.60087e-05 0)
(0.0524969 -1.76274e-05 0)
(0.052496 -1.92384e-05 0)
(0.0524953 -2.0814e-05 0)
(0.0524947 -2.23623e-05 0)
(0.0524943 -2.3869e-05 0)
(0.0524943 -2.53414e-05 0)
(0.0525035 -1.13865e-06 0)
(0.0525 -2.66022e-06 0)
(0.0524996 -4.32722e-06 0)
(0.0524992 -6.01454e-06 0)
(0.0524986 -7.69853e-06 0)
(0.0524979 -9.3838e-06 0)
(0.0524971 -1.10556e-05 0)
(0.0524962 -1.2727e-05 0)
(0.0524953 -1.43778e-05 0)
(0.0524944 -1.60262e-05 0)
(0.0524934 -1.7647e-05 0)
(0.0524926 -1.92599e-05 0)
(0.0524918 -2.08375e-05 0)
(0.0524912 -2.23877e-05 0)
(0.0524909 -2.38965e-05 0)
(0.0524908 -2.5371e-05 0)
(0.0525001 -1.13988e-06 0)
(0.0524965 -2.66308e-06 0)
(0.0524962 -4.33187e-06 0)
(0.0524958 -6.021e-06 0)
(0.0524952 -7.70682e-06 0)
(0.0524945 -9.39386e-06 0)
(0.0524937 -1.10676e-05 0)
(0.0524928 -1.27407e-05 0)
(0.0524919 -1.43935e-05 0)
(0.0524909 -1.60437e-05 0)
(0.05249 -1.76665e-05 0)
(0.0524891 -1.92813e-05 0)
(0.0524884 -2.0861e-05 0)
(0.0524878 -2.24132e-05 0)
(0.0524875 -2.39241e-05 0)
(0.0524874 -2.54007e-05 0)
(0.0524966 -1.14111e-06 0)
(0.0524931 -2.66598e-06 0)
(0.0524928 -4.33658e-06 0)
(0.0524923 -6.02754e-06 0)
(0.0524917 -7.71522e-06 0)
(0.052491 -9.40403e-06 0)
(0.0524902 -1.10797e-05 0)
(0.0524894 -1.27546e-05 0)
(0.0524884 -1.44093e-05 0)
(0.0524875 -1.60613e-05 0)
(0.0524865 -1.76862e-05 0)
(0.0524857 -1.93028e-05 0)
(0.0524849 -2.08846e-05 0)
(0.0524843 -2.24388e-05 0)
(0.052484 -2.39518e-05 0)
(0.0524839 -2.54306e-05 0)
(0.0524932 -1.14235e-06 0)
(0.0524897 -2.66893e-06 0)
(0.0524893 -4.34138e-06 0)
(0.0524889 -6.03418e-06 0)
(0.0524883 -7.72377e-06 0)
(0.0524876 -9.41438e-06 0)
(0.0524868 -1.1092e-05 0)
(0.0524859 -1.27687e-05 0)
(0.052485 -1.44254e-05 0)
(0.052484 -1.60792e-05 0)
(0.0524831 -1.77061e-05 0)
(0.0524822 -1.93246e-05 0)
(0.0524815 -2.09084e-05 0)
(0.0524809 -2.24646e-05 0)
(0.0524806 -2.39797e-05 0)
(0.0524805 -2.54607e-05 0)
(0.0524898 -1.14361e-06 0)
(0.0524862 -2.67199e-06 0)
(0.0524859 -4.34637e-06 0)
(0.0524855 -6.04106e-06 0)
(0.0524849 -7.73264e-06 0)
(0.0524842 -9.42507e-06 0)
(0.0524833 -1.11047e-05 0)
(0.0524825 -1.27831e-05 0)
(0.0524815 -1.44419e-05 0)
(0.0524806 -1.60974e-05 0)
(0.0524796 -1.77263e-05 0)
(0.0524788 -1.93467e-05 0)
(0.052478 -2.09326e-05 0)
(0.0524774 -2.24908e-05 0)
(0.0524771 -2.40081e-05 0)
(0.052477 -2.54913e-05 0)
(0.0524863 -1.14492e-06 0)
(0.0524828 -2.67521e-06 0)
(0.0524824 -4.35162e-06 0)
(0.052482 -6.04827e-06 0)
(0.0524814 -7.74193e-06 0)
(0.0524807 -9.43626e-06 0)
(0.0524799 -1.11179e-05 0)
(0.052479 -1.27981e-05 0)
(0.0524781 -1.44589e-05 0)
(0.0524771 -1.61162e-05 0)
(0.0524762 -1.77472e-05 0)
(0.0524753 -1.93694e-05 0)
(0.0524746 -2.09573e-05 0)
(0.052474 -2.25175e-05 0)
(0.0524736 -2.4037e-05 0)
(0.0524735 -2.55224e-05 0)
(0.0524829 -1.14631e-06 0)
(0.0524793 -2.67868e-06 0)
(0.052479 -4.35725e-06 0)
(0.0524786 -6.05601e-06 0)
(0.052478 -7.75185e-06 0)
(0.0524773 -9.44812e-06 0)
(0.0524764 -1.11319e-05 0)
(0.0524756 -1.28139e-05 0)
(0.0524746 -1.44768e-05 0)
(0.0524737 -1.61358e-05 0)
(0.0524727 -1.77689e-05 0)
(0.0524718 -1.93929e-05 0)
(0.0524711 -2.09829e-05 0)
(0.0524705 -2.25451e-05 0)
(0.0524702 -2.40667e-05 0)
(0.0524701 -2.55545e-05 0)
(0.0524794 -1.14779e-06 0)
(0.0524759 -2.68245e-06 0)
(0.0524755 -4.36338e-06 0)
(0.0524751 -6.06439e-06 0)
(0.0524745 -7.76259e-06 0)
(0.0524738 -9.46095e-06 0)
(0.052473 -1.1147e-05 0)
(0.0524721 -1.28309e-05 0)
(0.0524712 -1.4496e-05 0)
(0.0524702 -1.61567e-05 0)
(0.0524693 -1.77919e-05 0)
(0.0524684 -1.94176e-05 0)
(0.0524676 -2.10098e-05 0)
(0.052467 -2.25738e-05 0)
(0.0524667 -2.40976e-05 0)
(0.0524666 -2.55877e-05 0)
(0.052476 -1.14941e-06 0)
(0.0524724 -2.68667e-06 0)
(0.0524721 -4.37021e-06 0)
(0.0524716 -6.07374e-06 0)
(0.052471 -7.77452e-06 0)
(0.0524703 -9.47511e-06 0)
(0.0524695 -1.11637e-05 0)
(0.0524686 -1.28494e-05 0)
(0.0524677 -1.45168e-05 0)
(0.0524667 -1.61792e-05 0)
(0.0524658 -1.78166e-05 0)
(0.0524649 -1.9444e-05 0)
(0.0524641 -2.10382e-05 0)
(0.0524635 -2.26042e-05 0)
(0.0524632 -2.41301e-05 0)
(0.0524631 -2.56226e-05 0)
(0.0524725 -1.15122e-06 0)
(0.0524689 -2.69145e-06 0)
(0.0524686 -4.37795e-06 0)
(0.0524682 -6.08431e-06 0)
(0.0524676 -7.78796e-06 0)
(0.0524669 -9.49103e-06 0)
(0.0524661 -1.11822e-05 0)
(0.0524652 -1.28701e-05 0)
(0.0524642 -1.45399e-05 0)
(0.0524633 -1.6204e-05 0)
(0.0524623 -1.78436e-05 0)
(0.0524614 -1.94727e-05 0)
(0.0524607 -2.10689e-05 0)
(0.0524601 -2.26367e-05 0)
(0.0524597 -2.41648e-05 0)
(0.0524596 -2.56596e-05 0)
(0.0524691 -1.15327e-06 0)
(0.0524655 -2.69696e-06 0)
(0.0524651 -4.38685e-06 0)
(0.0524647 -6.09643e-06 0)
(0.0524641 -7.80336e-06 0)
(0.0524634 -9.50924e-06 0)
(0.0524626 -1.12035e-05 0)
(0.0524617 -1.28936e-05 0)
(0.0524608 -1.4566e-05 0)
(0.0524598 -1.62319e-05 0)
(0.0524588 -1.78737e-05 0)
(0.0524579 -1.95044e-05 0)
(0.0524572 -2.11026e-05 0)
(0.0524566 -2.26721e-05 0)
(0.0524562 -2.42022e-05 0)
(0.0524561 -2.56993e-05 0)
(0.0524656 -1.15563e-06 0)
(0.052462 -2.70341e-06 0)
(0.0524617 -4.39728e-06 0)
(0.0524612 -6.11064e-06 0)
(0.0524606 -7.82135e-06 0)
(0.0524599 -9.53043e-06 0)
(0.0524591 -1.1228e-05 0)
(0.0524582 -1.29206e-05 0)
(0.0524573 -1.45959e-05 0)
(0.0524563 -1.62636e-05 0)
(0.0524554 -1.79077e-05 0)
(0.0524545 -1.954e-05 0)
(0.0524537 -2.114e-05 0)
(0.0524531 -2.27112e-05 0)
(0.0524527 -2.42431e-05 0)
(0.0524526 -2.57425e-05 0)
(0.0524621 -1.1584e-06 0)
(0.0524585 -2.71102e-06 0)
(0.0524582 -4.40955e-06 0)
(0.0524578 -6.12736e-06 0)
(0.0524571 -7.84245e-06 0)
(0.0524564 -9.55529e-06 0)
(0.0524556 -1.12567e-05 0)
(0.0524547 -1.29522e-05 0)
(0.0524538 -1.46306e-05 0)
(0.0524528 -1.63003e-05 0)
(0.0524519 -1.79469e-05 0)
(0.052451 -1.95806e-05 0)
(0.0524502 -2.11825e-05 0)
(0.0524496 -2.27551e-05 0)
(0.0524492 -2.42887e-05 0)
(0.0524491 -2.57903e-05 0)
(0.0524586 -1.16166e-06 0)
(0.052455 -2.72003e-06 0)
(0.0524547 -4.42409e-06 0)
(0.0524543 -6.14716e-06 0)
(0.0524537 -7.86744e-06 0)
(0.052453 -9.58474e-06 0)
(0.0524521 -1.12907e-05 0)
(0.0524513 -1.29895e-05 0)
(0.0524503 -1.46715e-05 0)
(0.0524493 -1.63434e-05 0)
(0.0524484 -1.79926e-05 0)
(0.0524475 -1.96276e-05 0)
(0.0524467 -2.12312e-05 0)
(0.0524461 -2.2805e-05 0)
(0.0524457 -2.43401e-05 0)
(0.0524456 -2.58437e-05 0)
(0.0524552 -1.16553e-06 0)
(0.0524515 -2.73073e-06 0)
(0.0524512 -4.44138e-06 0)
(0.0524508 -6.17073e-06 0)
(0.0524502 -7.89717e-06 0)
(0.0524495 -9.61978e-06 0)
(0.0524486 -1.13311e-05 0)
(0.0524478 -1.30339e-05 0)
(0.0524468 -1.472e-05 0)
(0.0524458 -1.63943e-05 0)
(0.0524449 -1.80464e-05 0)
(0.052444 -1.96826e-05 0)
(0.0524432 -2.1288e-05 0)
(0.0524426 -2.28626e-05 0)
(0.0524422 -2.43989e-05 0)
(0.0524421 -2.59042e-05 0)
(0.0524516 -1.17012e-06 0)
(0.052448 -2.74339e-06 0)
(0.0524477 -4.46183e-06 0)
(0.0524473 -6.19863e-06 0)
(0.0524467 -7.9324e-06 0)
(0.052446 -9.66141e-06 0)
(0.0524451 -1.1379e-05 0)
(0.0524443 -1.30866e-05 0)
(0.0524433 -1.47777e-05 0)
(0.0524423 -1.6455e-05 0)
(0.0524414 -1.81103e-05 0)
(0.0524405 -1.97478e-05 0)
(0.0524397 -2.13549e-05 0)
(0.0524391 -2.293e-05 0)
(0.0524387 -2.44671e-05 0)
(0.0524386 -2.59737e-05 0)
(0.0524481 -1.17556e-06 0)
(0.0524445 -2.7583e-06 0)
(0.0524442 -4.48592e-06 0)
(0.0524437 -6.23156e-06 0)
(0.0524431 -7.97401e-06 0)
(0.0524424 -9.71072e-06 0)
(0.0524416 -1.14359e-05 0)
(0.0524408 -1.31494e-05 0)
(0.0524398 -1.48464e-05 0)
(0.0524388 -1.65273e-05 0)
(0.0524379 -1.81867e-05 0)
(0.052437 -1.98256e-05 0)
(0.0524362 -2.14345e-05 0)
(0.0524356 -2.30096e-05 0)
(0.0524352 -2.45471e-05 0)
(0.052435 -2.60547e-05 0)
(0.0524446 -1.18195e-06 0)
(0.052441 -2.77567e-06 0)
(0.0524406 -4.51404e-06 0)
(0.0524402 -6.27009e-06 0)
(0.0524396 -8.02277e-06 0)
(0.0524389 -9.76871e-06 0)
(0.0524381 -1.15029e-05 0)
(0.0524372 -1.32237e-05 0)
(0.0524363 -1.4928e-05 0)
(0.0524353 -1.66136e-05 0)
(0.0524344 -1.82779e-05 0)
(0.0524335 -1.99187e-05 0)
(0.0524327 -2.15298e-05 0)
(0.052432 -2.31046e-05 0)
(0.0524317 -2.46421e-05 0)
(0.0524315 -2.61497e-05 0)
(0.0524411 -1.18941e-06 0)
(0.0524374 -2.79567e-06 0)
(0.0524371 -4.54643e-06 0)
(0.0524366 -6.31459e-06 0)
(0.052436 -8.0792e-06 0)
(0.0524354 -9.8361e-06 0)
(0.0524346 -1.1581e-05 0)
(0.0524337 -1.33109e-05 0)
(0.0524328 -1.50241e-05 0)
(0.0524318 -1.67159e-05 0)
(0.0524308 -1.83867e-05 0)
(0.05243 -2.00303e-05 0)
(0.0524292 -2.16444e-05 0)
(0.0524285 -2.32187e-05 0)
(0.0524281 -2.47556e-05 0)
(0.0524279 -2.62619e-05 0)
(0.0524375 -1.19798e-06 0)
(0.0524338 -2.8183e-06 0)
(0.0524335 -4.58314e-06 0)
(0.052433 -6.36515e-06 0)
(0.0524325 -8.14346e-06 0)
(0.0524318 -9.91325e-06 0)
(0.052431 -1.16708e-05 0)
(0.0524301 -1.34117e-05 0)
(0.0524292 -1.5136e-05 0)
(0.0524283 -1.68362e-05 0)
(0.0524273 -1.85157e-05 0)
(0.0524264 -2.0164e-05 0)
(0.0524256 -2.17832e-05 0)
(0.052425 -2.33579e-05 0)
(0.0524246 -2.48947e-05 0)
(0.0524244 -2.63984e-05 0)
(0.0524339 -1.20769e-06 0)
(0.0524302 -2.8434e-06 0)
(0.0524299 -4.62389e-06 0)
(0.0524294 -6.42146e-06 0)
(0.0524289 -8.21523e-06 0)
(0.0524282 -9.99984e-06 0)
(0.0524274 -1.1772e-05 0)
(0.0524266 -1.35264e-05 0)
(0.0524257 -1.52641e-05 0)
(0.0524247 -1.69753e-05 0)
(0.0524238 -1.86668e-05 0)
(0.0524229 -2.03229e-05 0)
(0.0524221 -2.19514e-05 0)
(0.0524215 -2.35305e-05 0)
(0.0524211 -2.50722e-05 0)
(0.0524209 -2.65769e-05 0)
(0.0524303 -1.21845e-06 0)
(0.0524265 -2.87056e-06 0)
(0.0524262 -4.66807e-06 0)
(0.0524258 -6.48265e-06 0)
(0.0524252 -8.29342e-06 0)
(0.0524246 -1.00946e-05 0)
(0.0524238 -1.18834e-05 0)
(0.052423 -1.36533e-05 0)
(0.0524221 -1.5407e-05 0)
(0.0524212 -1.71321e-05 0)
(0.0524202 -1.88388e-05 0)
(0.0524194 -2.05065e-05 0)
(0.0524186 -2.21497e-05 0)
(0.052418 -2.37391e-05 0)
(0.0524175 -2.5295e-05 0)
(0.0524173 -2.68116e-05 0)
(0.0524266 -1.23009e-06 0)
(0.0524228 -2.89914e-06 0)
(0.0524225 -4.71459e-06 0)
(0.0524221 -6.54726e-06 0)
(0.0524216 -8.37615e-06 0)
(0.0524209 -1.01954e-05 0)
(0.0524202 -1.20021e-05 0)
(0.0524193 -1.37895e-05 0)
(0.0524185 -1.5561e-05 0)
(0.0524176 -1.73023e-05 0)
(0.0524166 -1.90269e-05 0)
(0.0524158 -2.07087e-05 0)
(0.052415 -2.23698e-05 0)
(0.0524144 -2.39713e-05 0)
(0.052414 -2.55437e-05 0)
(0.0524138 -2.70728e-05 0)
(0.0524229 -1.24234e-06 0)
(0.0524191 -2.92818e-06 0)
(0.0524188 -4.7619e-06 0)
(0.0524184 -6.61312e-06 0)
(0.0524178 -8.46066e-06 0)
(0.0524172 -1.02987e-05 0)
(0.0524165 -1.21242e-05 0)
(0.0524157 -1.39305e-05 0)
(0.0524148 -1.57209e-05 0)
(0.0524139 -1.74803e-05 0)
(0.052413 -1.92243e-05 0)
(0.0524122 -2.09218e-05 0)
(0.0524115 -2.26024e-05 0)
(0.0524109 -2.42157e-05 0)
(0.0524105 -2.58053e-05 0)
(0.0524102 -2.73445e-05 0)
(0.0524192 -1.25478e-06 0)
(0.0524153 -2.9565e-06 0)
(0.052415 -4.80808e-06 0)
(0.0524146 -6.67753e-06 0)
(0.0524141 -8.54343e-06 0)
(0.0524135 -1.04003e-05 0)
(0.0524128 -1.22446e-05 0)
(0.052412 -1.40702e-05 0)
(0.0524111 -1.588e-05 0)
(0.0524103 -1.76583e-05 0)
(0.0524094 -1.94222e-05 0)
(0.0524086 -2.11364e-05 0)
(0.0524079 -2.28374e-05 0)
(0.0524073 -2.44612e-05 0)
(0.0524069 -2.60688e-05 0)
(0.0524067 -2.76148e-05 0)
(0.0524154 -1.26691e-06 0)
(0.0524115 -2.98264e-06 0)
(0.0524112 -4.85074e-06 0)
(0.0524108 -6.73714e-06 0)
(0.0524103 -8.62016e-06 0)
(0.0524097 -1.04948e-05 0)
(0.052409 -1.23569e-05 0)
(0.0524082 -1.42012e-05 0)
(0.0524074 -1.60296e-05 0)
(0.0524066 -1.78271e-05 0)
(0.0524058 -1.96105e-05 0)
(0.052405 -2.1342e-05 0)
(0.0524043 -2.30631e-05 0)
(0.0524038 -2.46965e-05 0)
(0.0524034 -2.63242e-05 0)
(0.0524032 -2.78714e-05 0)
(0.0524116 -1.27811e-06 0)
(0.0524076 -3.00496e-06 0)
(0.0524074 -4.88719e-06 0)
(0.052407 -6.78815e-06 0)
(0.0524065 -8.68586e-06 0)
(0.0524059 -1.05761e-05 0)
(0.0524052 -1.24536e-05 0)
(0.0524045 -1.43149e-05 0)
(0.0524037 -1.61597e-05 0)
(0.0524029 -1.79751e-05 0)
(0.0524021 -1.97763e-05 0)
(0.0524014 -2.15255e-05 0)
(0.0524007 -2.32657e-05 0)
(0.0524002 -2.49104e-05 0)
(0.0523999 -2.65595e-05 0)
(0.0523997 -2.80974e-05 0)
(0.0524077 -1.28767e-06 0)
(0.0524037 -3.02164e-06 0)
(0.0524035 -4.91442e-06 0)
(0.0524031 -6.82628e-06 0)
(0.0524026 -8.73491e-06 0)
(0.052402 -1.0637e-05 0)
(0.0524014 -1.25261e-05 0)
(0.0524007 -1.44008e-05 0)
(0.0523999 -1.62584e-05 0)
(0.0523991 -1.80891e-05 0)
(0.0523984 -1.99053e-05 0)
(0.0523977 -2.16716e-05 0)
(0.0523971 -2.34294e-05 0)
(0.0523966 -2.50891e-05 0)
(0.0523964 -2.67534e-05 0)
(0.0523962 -2.82651e-05 0)
(0.0524038 -1.29481e-06 0)
(0.0523998 -3.03077e-06 0)
(0.0523995 -4.92931e-06 0)
(0.0523992 -6.84713e-06 0)
(0.0523987 -8.76169e-06 0)
(0.0523981 -1.06707e-05 0)
(0.0523975 -1.25666e-05 0)
(0.0523968 -1.44504e-05 0)
(0.0523961 -1.63166e-05 0)
(0.0523954 -1.81594e-05 0)
(0.0523947 -1.99856e-05 0)
(0.052394 -2.17643e-05 0)
(0.0523935 -2.35327e-05 0)
(0.0523931 -2.51996e-05 0)
(0.0523929 -2.68601e-05 0)
(0.0523929 -2.83269e-05 0)
(0.0523999 -1.29872e-06 0)
(0.0523958 -3.03089e-06 0)
(0.0523956 -4.92969e-06 0)
(0.0523952 -6.84825e-06 0)
(0.0523948 -8.76383e-06 0)
(0.0523942 -1.06747e-05 0)
(0.0523936 -1.25716e-05 0)
(0.052393 -1.44581e-05 0)
(0.0523923 -1.63255e-05 0)
(0.0523916 -1.81715e-05 0)
(0.0523909 -1.99945e-05 0)
(0.0523903 -2.17693e-05 0)
(0.0523898 -2.35246e-05 0)
(0.0523896 -2.5173e-05 0)
(0.0523895 -2.68029e-05 0)
(0.0523896 -2.82127e-05 0)
(0.0523959 -1.29875e-06 0)
(0.0523918 -3.02123e-06 0)
(0.0523916 -4.91407e-06 0)
(0.0523912 -6.82692e-06 0)
(0.0523908 -8.73654e-06 0)
(0.0523903 -1.06408e-05 0)
(0.0523897 -1.25275e-05 0)
(0.0523891 -1.44021e-05 0)
(0.0523884 -1.62517e-05 0)
(0.0523878 -1.80777e-05 0)
(0.0523872 -1.98716e-05 0)
(0.0523867 -2.16153e-05 0)
(0.0523863 -2.33265e-05 0)
(0.0523861 -2.49295e-05 0)
(0.0523862 -2.65036e-05 0)
(0.0523865 -2.78502e-05 0)
(0.0523919 -1.29459e-06 0)
(0.0523878 -2.99689e-06 0)
(0.0523876 -4.87335e-06 0)
(0.0523873 -6.76774e-06 0)
(0.0523869 -8.65556e-06 0)
(0.0523864 -1.05348e-05 0)
(0.0523858 -1.23906e-05 0)
(0.0523852 -1.42297e-05 0)
(0.0523846 -1.6035e-05 0)
(0.052384 -1.78129e-05 0)
(0.0523835 -1.95486e-05 0)
(0.0523831 -2.12333e-05 0)
(0.0523828 -2.28732e-05 0)
(0.0523828 -2.44094e-05 0)
(0.052383 -2.59068e-05 0)
(0.0523836 -2.71862e-05 0)
(0.0523879 -1.28418e-06 0)
(0.0523838 -2.94465e-06 0)
(0.0523836 -4.78598e-06 0)
(0.0523833 -6.64128e-06 0)
(0.0523829 -8.48453e-06 0)
(0.0523825 -1.03143e-05 0)
(0.052382 -1.21136e-05 0)
(0.0523815 -1.38908e-05 0)
(0.0523809 -1.56255e-05 0)
(0.0523804 -1.73291e-05 0)
(0.05238 -1.89814e-05 0)
(0.0523796 -2.05842e-05 0)
(0.0523795 -2.21322e-05 0)
(0.0523796 -2.35869e-05 0)
(0.05238 -2.49954e-05 0)
(0.0523808 -2.62105e-05 0)
(0.0523839 -1.2619e-06 0)
(0.0523799 -2.85141e-06 0)
(0.0523797 -4.63162e-06 0)
(0.0523795 -6.42154e-06 0)
(0.0523791 -8.19397e-06 0)
(0.0523787 -9.94807e-06 0)
(0.0523783 -1.16653e-05 0)
(0.0523778 -1.33559e-05 0)
(0.0523774 -1.4997e-05 0)
(0.052377 -1.6605e-05 0)
(0.0523766 -1.81547e-05 0)
(0.0523764 -1.9659e-05 0)
(0.0523764 -2.11021e-05 0)
(0.0523766 -2.24675e-05 0)
(0.0523772 -2.37829e-05 0)
(0.0523782 -2.49412e-05 0)
(0.05238 -1.22211e-06 0)
(0.0523762 -2.71001e-06 0)
(0.052376 -4.39966e-06 0)
(0.0523758 -6.0957e-06 0)
(0.0523755 -7.77048e-06 0)
(0.0523752 -9.42378e-06 0)
(0.0523748 -1.10362e-05 0)
(0.0523744 -1.26195e-05 0)
(0.052374 -1.41492e-05 0)
(0.0523737 -1.5646e-05 0)
(0.0523735 -1.70805e-05 0)
(0.0523734 -1.84762e-05 0)
(0.0523735 -1.98073e-05 0)
(0.0523739 -2.10808e-05 0)
(0.0523747 -2.23033e-05 0)
(0.0523758 -2.34123e-05 0)
(0.0523762 -1.16167e-06 0)
(0.0523726 -2.52121e-06 0)
(0.0523725 -4.09194e-06 0)
(0.0523723 -5.66728e-06 0)
(0.0523721 -7.22022e-06 0)
(0.0523718 -8.7511e-06 0)
(0.0523715 -1.02402e-05 0)
(0.0523712 -1.17004e-05 0)
(0.052371 -1.3106e-05 0)
(0.0523707 -1.44813e-05 0)
(0.0523706 -1.57931e-05 0)
(0.0523706 -1.70748e-05 0)
(0.0523708 -1.82914e-05 0)
(0.0523713 -1.94727e-05 0)
(0.0523723 -2.06044e-05 0)
(0.0523736 -2.167e-05 0)
(0.0523727 -1.08086e-06 0)
(0.0523694 -2.29358e-06 0)
(0.0523693 -3.72233e-06 0)
(0.0523692 -5.1554e-06 0)
(0.052369 -6.56737e-06 0)
(0.0523688 -7.95919e-06 0)
(0.0523686 -9.31126e-06 0)
(0.0523684 -1.06372e-05 0)
(0.0523682 -1.19103e-05 0)
(0.052368 -1.31577e-05 0)
(0.052368 -1.43431e-05 0)
(0.0523681 -1.55084e-05 0)
(0.0523684 -1.66104e-05 0)
(0.0523691 -1.77001e-05 0)
(0.0523701 -1.87431e-05 0)
(0.0523716 -1.97684e-05 0)
(0.0523695 -9.83309e-07 0)
(0.0523666 -2.04126e-06 0)
(0.0523665 -3.31332e-06 0)
(0.0523664 -4.5902e-06 0)
(0.0523663 -5.84887e-06 0)
(0.0523661 -7.09084e-06 0)
(0.052366 -8.29719e-06 0)
(0.0523658 -9.48173e-06 0)
(0.0523657 -1.06175e-05 0)
(0.0523656 -1.17334e-05 0)
(0.0523657 -1.27911e-05 0)
(0.0523659 -1.3839e-05 0)
(0.0523663 -1.48274e-05 0)
(0.052367 -1.58258e-05 0)
(0.0523682 -1.67816e-05 0)
(0.0523697 -1.77668e-05 0)
(0.0523666 -8.75102e-07 0)
(0.0523641 -1.78085e-06 0)
(0.052364 -2.89119e-06 0)
(0.0523639 -4.00676e-06 0)
(0.0523639 -5.10734e-06 0)
(0.0523638 -6.19497e-06 0)
(0.0523637 -7.2519e-06 0)
(0.0523636 -8.29194e-06 0)
(0.0523635 -9.28856e-06 0)
(0.0523636 -1.02715e-05 0)
(0.0523637 -1.12016e-05 0)
(0.052364 -1.2132e-05 0)
(0.0523645 -1.30082e-05 0)
(0.0523652 -1.39149e-05 0)
(0.0523664 -1.47839e-05 0)
(0.052368 -1.57264e-05 0)
(0.0523641 -7.63403e-07 0)
(0.052362 -1.5282e-06 0)
(0.0523619 -2.48113e-06 0)
(0.0523619 -3.43891e-06 0)
(0.0523618 -4.38414e-06 0)
(0.0523618 -5.31926e-06 0)
(0.0523617 -6.22818e-06 0)
(0.0523617 -7.12458e-06 0)
(0.0523617 -7.98312e-06 0)
(0.0523618 -8.83396e-06 0)
(0.052362 -9.63794e-06 0)
(0.0523623 -1.04514e-05 0)
(0.0523629 -1.12168e-05 0)
(0.0523637 -1.20307e-05 0)
(0.0523649 -1.28128e-05 0)
(0.0523664 -1.37075e-05 0)
(0.052362 -6.55052e-07 0)
(0.0523602 -1.29567e-06 0)
(0.0523602 -2.10309e-06 0)
(0.0523602 -2.91394e-06 0)
(0.0523601 -3.71335e-06 0)
(0.0523601 -4.50391e-06 0)
(0.0523601 -5.27137e-06 0)
(0.0523601 -6.02925e-06 0)
(0.0523602 -6.75409e-06 0)
(0.0523603 -7.476e-06 0)
(0.0523606 -8.15711e-06 0)
(0.0523609 -8.85514e-06 0)
(0.0523615 -9.51192e-06 0)
(0.0523624 -1.02317e-05 0)
(0.0523635 -1.09262e-05 0)
(0.0523651 -1.17662e-05 0)
(0.0523602 -5.55373e-07 0)
(0.0523588 -1.09057e-06 0)
(0.0523588 -1.76921e-06 0)
(0.0523587 -2.44925e-06 0)
(0.0523587 -3.11783e-06 0)
(0.0523588 -3.77716e-06 0)
(0.0523588 -4.41478e-06 0)
(0.0523588 -5.0438e-06 0)
(0.052359 -5.64313e-06 0)
(0.0523591 -6.24241e-06 0)
(0.0523594 -6.80608e-06 0)
(0.0523598 -7.39182e-06 0)
(0.0523604 -7.94291e-06 0)
(0.0523612 -8.5676e-06 0)
(0.0523624 -9.17419e-06 0)
(0.0523638 -9.95196e-06 0)
(0.0523588 -4.67487e-07 0)
(0.0523576 -9.1504e-07 0)
(0.0523576 -1.4835e-06 0)
(0.0523576 -2.05145e-06 0)
(0.0523577 -2.60753e-06 0)
(0.0523577 -3.15311e-06 0)
(0.0523577 -3.67697e-06 0)
(0.0523578 -4.19138e-06 0)
(0.052358 -4.67765e-06 0)
(0.0523582 -5.16437e-06 0)
(0.0523585 -5.61902e-06 0)
(0.0523589 -6.09791e-06 0)
(0.0523595 -6.54782e-06 0)
(0.0523603 -7.07745e-06 0)
(0.0523614 -7.59657e-06 0)
(0.0523627 -8.30423e-06 0)