/*--------------------------------*- C++ -*----------------------------------*\
  =========                 |
  \\      /  F ield         | OpenFOAM: The Open Source CFD Toolbox
   \\    /   O peration     | Website:  https://openfoam.org
    \\  /    A nd           | Version:  8
     \\/     M anipulation  |
\*---------------------------------------------------------------------------*/
FoamFile
{
    version     2.0;
    format      ascii;
    class       surfaceVectorField;
    location    "0.0970000";
    object      Uf;
}
// * * * * * * * * * * * * * * * * * * * * * * * * * * * * * * * * * * * * * //

dimensions      [0 1 -1 0 0 0 0];

internalField   nonuniform List<vector> 
1691
(
(0.694929523530931 0.000294379619472326 -5.91721224909227e-19)
(0.519522145873194 0.00100886933425081 -3.22136894293902e-19)
(0.694999685018492 0.000192577954709381 -4.42139379365901e-18)
(0.520530178293417 0.00102225694966082 -4.28240408987668e-18)
(0.695051711172315 0.000187383597280351 -3.52697544818935e-18)
(0.520463639098526 0.00104633479271056 -6.459827262705e-18)
(0.694968364986212 0.000203432880231015 5.12750700753621e-18)
(0.520423486685487 0.00111939488418149 -1.38885839062977e-18)
(0.694816126531294 0.000210287998859307 7.84068646770782e-18)
(0.520144364294586 0.00115834117760365 1.74721103858346e-17)
(0.694633576910144 0.000215182332341933 -6.63719109073906e-18)
(0.519794217502101 0.00117879312567761 1.09233814563526e-17)
(0.694440397691813 0.000219095506752324 -1.2810673722167e-17)
(0.519411587015947 0.00119025208487383 -9.45691821467212e-18)
(0.69424297136387 0.000222747722061845 -6.5562424261518e-18)
(0.519017236282552 0.0011995012967168 -8.49565137092885e-18)
(0.694041832280037 0.00022588809742152 -5.62756026084732e-18)
(0.518615271105243 0.001207555085601 -1.37044235923662e-17)
(0.693836216089843 0.000228689799700928 -3.00402028195109e-18)
(0.518205555573331 0.00121479600065167 -8.2761759791564e-18)
(0.693625723603747 0.000231508517053281 1.07246743697965e-17)
(0.517786944002553 0.00122193904899486 -2.7516813391577e-18)
(0.693410325537958 0.000234459435679786 3.50274252532089e-18)
(0.517359030745583 0.00122938474371537 1.62373114199049e-17)
(0.693190240792404 0.000237211240863671 1.87429486209487e-17)
(0.516921700026596 0.00123710286952769 9.4070164446663e-18)
(0.692964414982696 0.000239617191677106 4.28509477716702e-17)
(0.516474291629152 0.00124408607722489 6.45219884008715e-17)
(0.692732579482962 0.000241977092191015 2.22844566946692e-17)
(0.516015744811714 0.00125089656461328 6.25926231719893e-17)
(0.692494467595906 0.000244606076774923 1.09769652465819e-17)
(0.515545632874083 0.00125787676083451 2.36267866229654e-17)
(0.6922507855685 0.000247234231654744 -7.67226814738018e-18)
(0.515063979325037 0.00126568823456357 1.82046334525665e-17)
(0.692000483155363 0.000249556965655091 -1.47325022752719e-17)
(0.514570347892192 0.00127286107547123 -2.0548611745411e-17)
(0.691743110848056 0.000251857148333939 1.88003040544178e-17)
(0.514063721093745 0.00127991149815619 -5.0159611781088e-18)
(0.691478283876729 0.000254416105527511 3.40821443321655e-17)
(0.513543270684803 0.00128723058003299 2.55875029902532e-17)
(0.691206409200722 0.00025714986705196 -4.24525641843714e-18)
(0.513008837037159 0.00129529429027544 5.76554391559654e-17)
(0.690927378413104 0.000259727057067676 -2.08919827939715e-17)
(0.512460252558831 0.00130342108009702 -2.86967070897848e-17)
(0.690640497312949 0.000262213301795985 1.27904266472147e-18)
(0.511896819486663 0.00131125174881003 -1.39109455899649e-17)
(0.690345256966399 0.000264971368742387 1.87653092986906e-18)
(0.511317445604961 0.00131937977275759 2.15092030663279e-17)
(0.690041474150009 0.000268264405874234 -2.0748913033575e-18)
(0.510721557303475 0.00132833651362553 -1.27030045370463e-17)
(0.689729698757014 0.00027167502541692 -1.34684418043125e-17)
(0.510109051812162 0.00133848716976109 9.71398524597451e-18)
(0.689408746306377 0.000274894117400088 -3.59573439467441e-17)
(0.509479273529242 0.00134815713242419 -5.71881387752701e-17)
(0.689078319259602 0.000278321146387999 -2.02425437195363e-17)
(0.508830904532295 0.00135806528489034 -8.62808447356225e-17)
(0.688738174894672 0.000282590600790657 3.5261178339624e-17)
(0.508163378828194 0.00136875902657015 -3.96907116793119e-17)
(0.688389536778352 0.000287381924640886 2.76676088846009e-17)
(0.507476905903183 0.00138176252502463 9.94136045035721e-17)
(0.688031166401502 0.000292068824545993 -1.32878838439317e-17)
(0.506770959176392 0.0013945764588668 -7.21106703727176e-17)
(0.68766254448882 0.00029705334704154 -3.15889793222777e-17)
(0.506044323808159 0.00140770487234477 -7.16131508447846e-17)
(0.687283439702255 0.000303195709716503 -3.11790400368308e-17)
(0.505296002796622 0.00142198500366241 -5.70877748220684e-17)
(0.686895163882073 0.000310711913777692 -4.57479180182083e-18)
(0.504526559889454 0.00143934622146865 -3.7116088720365e-17)
(0.686498109897879 0.000318654508827203 -3.59842466550376e-17)
(0.503736286729632 0.00145866195460384 1.17819033081317e-17)
(0.686091039830249 0.000326895822872307 -5.87570119062532e-17)
(0.502924636521048 0.00147802134854971 -9.67503362452333e-17)
(0.685673887358156 0.000336666011127417 -4.19667455265325e-17)
(0.502090257965338 0.00149900964731566 -8.02157331183741e-17)
(0.685247737116556 0.000349561369857752 -3.2431679923581e-17)
(0.501234204281487 0.00152398397838249 -3.78873842979448e-17)
(0.684816373102936 0.000364131045318439 -2.3413894837612e-17)
(0.500358706798256 0.00155590960243172 -4.22769336982963e-17)
(0.684377184024068 0.000378876882096586 6.22883076711117e-17)
(0.499464434128752 0.00158718215238079 -5.32514030842062e-17)
(0.683931480774099 0.0003955863539094 6.45037341045538e-17)
(0.498550267059564 0.00162063143398354 2.04814524873573e-16)
(0.683480366814583 0.000418143285645656 -4.88821434616226e-18)
(0.49761954618198 0.00165922049782636 2.7551698161246e-17)
(0.683031520014345 0.000444972550762266 3.66069378906479e-17)
(0.496677115419451 0.00171271127681585 1.80697321298875e-17)
(0.682583155757483 0.000472213647931145 3.31524478377501e-17)
(0.49572576432667 0.00176643020649493 6.22092327218506e-17)
(0.682137883802065 0.00050204024658813 -3.74585037802996e-17)
(0.494768805047695 0.00182249234636458 4.08098805792845e-18)
(0.681698989545472 0.000540201361834264 -2.45412881284112e-17)
(0.4938108417068 0.00188597322093446 -7.65605977154515e-17)
(0.681276106883299 0.000588248486942039 1.08894135651886e-17)
(0.492863711049245 0.00197050606228471 -4.64964686784671e-18)
(0.680875305452532 0.000639533627846766 -2.16346241295009e-17)
(0.49193527403965 0.00206776012512508 -1.09950206314097e-17)
(0.680499083890365 0.000692941776857062 -1.94633403575552e-17)
(0.491036176623845 0.00216455893323359 -9.04506878591165e-17)
(0.680157722310514 0.000756848197760648 -5.24825896529899e-17)
(0.490177771450615 0.00227055190656385 -6.91487650448367e-19)
(0.679862794969178 0.000841727735027179 -3.87726358048589e-17)
(0.489385971423297 0.00240347665696962 -9.10635390385053e-17)
(0.679637489104787 0.000936486976015031 -6.43951414921292e-18)
(0.488680632509481 0.00257928386345031 -2.07658400409016e-18)
(0.679483366147338 0.00103023050762733 1.30730917308361e-17)
(0.488084036034183 0.00274670547556982 -7.66797536525991e-17)
(0.679437210852806 0.00113425261406832 -1.84330156258597e-17)
(0.487625565132872 0.0029216235471416 7.30416895178069e-17)
(0.679524645426148 0.0012838316074692 -7.44099970140132e-17)
(0.487378778063543 0.00312685754669537 -1.99569512603999e-16)
(0.679860512123769 0.00149563380347411 -6.75774074495475e-17)
(0.487425193459589 0.00345474107565203 -9.82189097056916e-17)
(0.680665750096503 0.0017582804859223 -4.0415505922822e-17)
(0.487956472350001 0.00386967034990244 -1.68252166732197e-16)
(0.682275738532082 0.00209135345377491 -2.61287522813316e-17)
(0.489316473409434 0.00437409877724284 1.48240442793162e-17)
(0.684929414015241 0.00261317252792916 -8.86808104100199e-17)
(0.491998302721557 0.00504071134048216 -1.12459645117082e-16)
(0.688804508050864 0.00330534440283062 -4.19374812935819e-17)
(0.496363184541527 0.00616209472455204 -1.90641828091305e-16)
(0.693881695430201 0.00397843768440017 3.92607008218825e-17)
(0.502500352068223 0.00737758529923764 3.99821178397406e-17)
(0.700198897888884 0.00459457518533885 6.9575246127627e-17)
(0.510662773322873 0.00844501301619956 8.10569453402894e-17)
(0.707777041922826 0.00525848310004691 5.57267993853998e-17)
(0.521094388606041 0.00947014331332822 1.95653188668507e-16)
(0.716651041298602 0.00592610261411617 5.03382624801639e-17)
(0.533842376687491 0.0106501941396759 1.00910072698867e-17)
(0.726827977386935 0.00640398612045156 7.01303182576527e-17)
(0.548818392990944 0.0116326824988653 1.72160398583951e-16)
(0.738321683184042 0.00668685446766736 1.45947486887997e-17)
(0.566160078187932 0.0121698430842327 1.09942360021311e-16)
(0.751042474056779 0.00690632111563544 -6.24104732948097e-17)
(0.585887194070975 0.0124824419372786 -4.88149392192281e-17)
(0.764859872283378 0.00700903995797133 -1.20445113623252e-16)
(0.607645597177455 0.0127356681612129 -1.98019238613873e-16)
(0.779611095332794 0.00686726800025574 -9.06809983641635e-17)
(0.631110595849157 0.0126019995630831 -2.82409034016489e-16)
(0.795144909165646 0.00653515909046501 -2.45163306069773e-17)
(0.656147973657556 0.0120276830085403 -8.00223594345549e-17)
(0.81125413299192 0.00610015189041822 -3.13705936385915e-17)
(0.682416937921302 0.0112289799457271 -9.32214990477213e-17)
(0.827781006792618 0.00553511275956953 8.36565851389589e-18)
(0.709455870954291 0.0102643291605284 -1.36397902699382e-16)
(0.844569358498136 0.00484610668848301 4.01247218886707e-17)
(0.737028114557055 0.00901155231407845 1.36631314163217e-16)
(0.861498417014834 0.00410728673752572 -1.05531824266075e-18)
(0.764973952700428 0.00762945238798291 1.98326748467044e-17)
(0.87847206335253 0.00332045123465421 1.34591483260559e-17)
(0.79291679523609 0.00619423731151715 -2.36721749593323e-17)
(0.89544247531773 0.00252072619256892 1.910027419498e-17)
(0.820863540379792 0.00465022066410059 7.73931447627279e-17)
(0.912379217286964 0.00176482433415981 2.95600685167406e-17)
(0.848645917335896 0.00317989663709607 -1.06910861965194e-18)
(0.929352662474819 0.00106131095223367 1.41090099082772e-17)
(0.876451006439293 0.00179178609817748 4.34416045428097e-17)
(0.946311795113628 0.000414744926267154 -6.15749562712743e-17)
(0.903918868756062 0.000504719058575569 3.54286230665254e-17)
(0.963467383849691 -0.000129478956796615 -7.02662938072891e-17)
(0.931900859846587 -0.000698131737075855 -1.81926365574781e-16)
(0.980727720429045 -0.000599766882471907 -2.99513045648841e-17)
(0.959309283711111 -0.00163342930344124 -1.02692767821657e-16)
(0.99880201067305 -0.000910160007821062 -7.35892218680593e-17)
(0.988670913848728 -0.00252316011974844 5.19686048074021e-17)
(1.01688735968763 -0.0011233860791595 -7.29663242976891e-17)
(1.01656681678909 -0.00300665481048425 -1.97481583966446e-16)
(1.03678865885901 -0.00117483109507694 3.95370036693128e-17)
(1.04958334340859 -0.00354119802918727 -2.17242058819085e-17)
(1.05620406228663 -0.00127209378668174 4.46561111430541e-17)
(1.07762460570111 -0.00352002563217502 1.11734867716343e-16)
(1.07745876547809 -0.000682463588746855 2.38665284653961e-17)
(1.11884494614914 -0.00371019040660672 -2.99046598109477e-19)
(1.07737175859017 -0.000184501802314932 -5.32071252842772e-18)
(1.13431809736199 -0.00067451277979587 9.52787526902299e-17)
(1.08057516476242 -6.22903231670964e-05 -7.50393073242484e-17)
(1.12826093701167 -0.00063185128661655 -1.29738255922508e-16)
(1.08144971476677 0.000120700154604185 -6.11996120138402e-17)
(1.13436413844829 -0.000115327083642517 -1.83420556762638e-16)
(1.08296345603849 0.000254449757784167 -4.67836369325855e-17)
(1.13245213421346 8.26012734739425e-05 -6.83461450359791e-17)
(1.08340023644769 0.000326235977835601 -5.53730454107885e-17)
(1.13451529510752 0.00034709662034861 -1.24574436632516e-16)
(1.08395220813376 0.000362267014145697 -1.01287752550188e-17)
(1.1337331080199 0.000416060804813604 -6.10225772565085e-17)
(1.08404900799744 0.000394660048099312 1.07122900872838e-17)
(1.13432488940667 0.000525105273206282 5.50696776189325e-17)
(1.08410243161287 0.000401024837487559 1.37604928142674e-18)
(1.1338073389521 0.000565981219248111 -1.13306438453943e-17)
(1.08400359794253 0.000395693350861253 5.68659241248513e-18)
(1.13374813153799 0.000590387439501652 2.2281613538105e-18)
(1.08390312247297 0.000381937179174783 -2.14081817804264e-18)
(1.13332472612464 0.000590382618227059 5.83533278583954e-18)
(1.08375429551511 0.00036040722687964 5.12224894074882e-19)
(1.13308691619575 0.000577539619901046 -1.41302544538507e-17)
(1.08354832089191 0.000343035710134334 4.46776853669199e-18)
(1.13266130051907 0.000549556540217719 9.34718231294276e-18)
(1.0831308628802 0.000330516221067553 -8.65214969265028e-19)
(1.13230056603763 0.000515810903988108 1.20725868699278e-18)
(1.13129570365591 0.000376220277308045 -3.42809705568455e-18)
(0.343645264666427 0.00202176256205148 -4.03789688663878e-18)
(0.204220107640105 0.00316586159915171 -1.84494613787596e-18)
(0.344137761895451 0.00210580238018332 -6.33470252814544e-18)
(0.206417316004349 0.00338772541900932 -7.53803149618211e-18)
(0.344212439554502 0.00221312058924708 -4.31460372750033e-18)
(0.20638929915021 0.00361849330453265 -2.32330244257508e-18)
(0.343942482585071 0.00231911424450911 1.1024509029038e-17)
(0.206242423167205 0.00385462167030467 1.29141679056803e-19)
(0.343484273046294 0.00237658549353272 2.06001243629869e-17)
(0.205703339148003 0.00398387436607541 2.33686806364645e-17)
(0.34294640246822 0.00240557746345488 8.12671060199986e-18)
(0.205042872128281 0.004044440348592 1.85097799973847e-17)
(0.34237698618661 0.00242301034627666 -5.10438817248689e-18)
(0.204326777874004 0.00407461192228077 6.03620421029527e-18)
(0.34179296994983 0.00243684633189457 -1.56971941513445e-17)
(0.203588454201547 0.00409517631075693 -1.27860691448554e-17)
(0.341197428497108 0.00244919787629127 -1.63888456001337e-17)
(0.202835443101607 0.00411270408898841 -2.9745040128985e-17)
(0.340589351553849 0.00246101213946474 -8.03329821084328e-18)
(0.202067749183673 0.00412910258641929 -1.59871498781661e-17)
(0.339967778808873 0.00247300650477109 2.77098221063492e-18)
(0.201283779531005 0.00414550456180065 -5.13907021935787e-18)
(0.339332383088153 0.00248537424320917 2.22066124722155e-17)
(0.200482870881694 0.00416246781404268 -1.48063133595647e-18)
(0.338682777357319 0.00249750835753053 5.54787979234144e-17)
(0.199664792566793 0.00417979199639555 5.70643422962177e-17)
(0.338017416470893 0.00250914284685388 8.44361581685415e-17)
(0.198828333710426 0.00419647308135618 9.14233946058651e-17)
(0.337335263795523 0.00252082382696491 6.4013209412631e-17)
(0.197971707139764 0.00421296490024676 8.19070516548113e-17)
(0.336635917348364 0.00253313947410356 3.09238552538532e-17)
(0.197094028447146 0.00422993158931444 4.20547952897556e-17)
(0.335919495594223 0.00254562228055625 5.28164889862352e-18)
(0.196195364376292 0.00424787599384426 1.75972621215877e-17)
(0.335184463844977 0.0025577286379055 -1.07752337206421e-17)
(0.195274852394685 0.00426539577378048 1.2673241089286e-17)
(0.334429542287272 0.00256998349470259 1.78412446111779e-18)
(0.194330531030521 0.00428284218422541 -6.25381496280079e-18)
(0.333654040788678 0.00258293312955288 4.93080228010311e-17)
(0.193361139016759 0.0043008958395967 3.32080714225714e-18)
(0.332857834358856 0.00259644654792712 3.31141487435287e-17)
(0.192366328569773 0.00432003468743606 8.06833252587614e-17)
(0.332040035623775 0.00260991732931926 -2.16774465450332e-17)
(0.191345543304359 0.00433950806510943 -2.27591508970695e-17)
(0.33119908043907 0.00262348698960178 6.43936318122249e-18)
(0.190297119926482 0.00435888646840906 -2.90941356345966e-17)
(0.330333805849025 0.00263787821359697 6.85003731230078e-18)
(0.189219177969683 0.00437888857219564 5.12783073518551e-17)
(0.32944376423848 0.00265361820068817 -8.4389025458685e-19)
(0.188110736733656 0.00440035643755435 -2.88041208575964e-17)
(0.328528740946513 0.00266992444966223 -3.42817974023424e-17)
(0.186971716494372 0.00442348372306593 -1.01931559482543e-17)
(0.327586734494008 0.00268622234534375 -1.07862234547318e-16)
(0.185800721338349 0.00444653677654272 -1.17363163059437e-16)
(0.326616216213232 0.00270332125331779 -1.05894009162912e-16)
(0.184595136478721 0.00447008752088601 -1.77615321573105e-16)
(0.325616586578559 0.0027224926917354 2.4861100313882e-17)
(0.183353452257729 0.00449529986209044 -8.12116294671589e-17)
(0.324588377709485 0.00274314300356453 -1.01296419762405e-18)
(0.182076108335994 0.0045236003510979 1.27850895050852e-16)
(0.323529578239772 0.00276407744554924 -1.30841036888247e-16)
(0.180762251987881 0.00455239999191598 -1.58881388630145e-16)
(0.322438263671188 0.00278613391336129 -9.7288057789049e-17)
(0.179408929537255 0.00458191146884574 -1.44112642937178e-16)
(0.321313695090519 0.00281110108734821 -6.30646731263562e-17)
(0.178014038683021 0.00461366489393716 -7.16440167492236e-17)
(0.320156991298907 0.00283945094963887 -2.06443961674653e-17)
(0.176578154507181 0.00464996510849848 -1.34997694484758e-17)
(0.318967937304731 0.00286933211986066 -4.940914995755e-17)
(0.175102289564294 0.00468943076984913 -3.51060374681445e-17)
(0.317744134008262 0.00290054593192859 -1.18341784467208e-16)
(0.173584447450666 0.00472976452562896 -1.13682411514121e-16)
(0.31648467573216 0.00293572456063674 -7.60899961637289e-17)
(0.172021493593489 0.00477285003696896 -1.64050247173676e-16)
(0.31519179206434 0.00297815047566978 -4.77971298964141e-17)
(0.170413852756866 0.00482264938910803 -1.7964672807205e-17)
(0.313869751533399 0.00302493126953575 -7.23071108472684e-17)
(0.168767250381026 0.0048817446355157 -8.55495382330727e-17)
(0.312515846927673 0.0030730618529429 9.03641366527975e-17)
(0.167082644717602 0.00494180750027258 -1.22936200923143e-16)
(0.311129935283188 0.0031264179786231 1.67465894864996e-16)
(0.165355740359186 0.00500491527628854 2.45062269202424e-16)
(0.309716578529259 0.00319308459960894 5.06353145236797e-17)
(0.163587772436807 0.00507763812819417 1.13007750345663e-16)
(0.308287621003014 0.0032698727636074 4.38764364777265e-17)
(0.161792247869494 0.00516991193548964 3.44443662720999e-17)
(0.306843340109713 0.00334884087227884 3.28903346084716e-17)
(0.159977429477288 0.00526533845099631 5.99698001167702e-17)
(0.305385835619722 0.00343462634852746 -3.53653576670255e-17)
(0.15814106692929 0.00536402579805137 1.09164581843662e-17)
(0.303924600676178 0.00353959747041222 -5.64390487994645e-17)
(0.156286584014093 0.00547564152133561 -8.01333188293284e-17)
(0.302481224094057 0.00366694567156599 -2.66666569393396e-17)
(0.154436521928717 0.00561705594237119 -7.26840945781085e-17)
(0.301071298011355 0.00380279524062451 -8.03389220435972e-17)
(0.152618285145178 0.00577735524529973 -1.86989683148869e-17)
(0.29970148898678 0.00394474218676857 -7.13915193946266e-17)
(0.150841961226567 0.00593915165491039 -2.45729248730742e-16)
(0.298391810985158 0.00411128402412303 -3.96772111026091e-17)
(0.149115317099396 0.00611438381064635 5.65059485096206e-18)
(0.297181546754324 0.00432410839960533 -5.39670555191615e-17)
(0.147473371564269 0.0063323267897927 -7.93401966502734e-17)
(0.296123486277718 0.00455982667702129 -7.28683899736665e-17)
(0.145988750184882 0.00660620531577769 -5.08899415899531e-17)
(0.295235096477618 0.00479485843219985 -1.60121292955463e-17)
(0.144703171126389 0.0068754265376525 -1.52874697426739e-16)
(0.294564290151991 0.00505532848353985 -1.09781759146406e-16)
(0.143634391890127 0.0071497317028296 6.04142094848604e-17)
(0.294200567144517 0.00541859236528657 -2.2323865429308e-16)
(0.142844127932572 0.00748010627441631 -3.59018461608081e-16)
(0.294366156299385 0.00592229955344241 -1.99666794738162e-16)
(0.142514404273168 0.00798050559411601 -1.91163309154279e-16)
(0.295365217470449 0.00654353596405025 -1.12229984644488e-16)
(0.142952858586972 0.00861835298014192 -2.8848115090046e-16)
(0.297626940708439 0.00733442028335218 -7.23886569888418e-17)
(0.144544457771628 0.00937905206714166 2.87480626927141e-17)
(0.30167381814765 0.00854277454440967 -2.15384506766108e-16)
(0.147756824961038 0.0104195389944027 -1.69265626711746e-16)
(0.308174866186505 0.0101166184209371 -1.07886492336921e-16)
(0.153471672596699 0.0120793441929983 -2.83497236326762e-16)
(0.317462314682715 0.0116431284229451 8.21615160247457e-17)
(0.162450903507335 0.0138845233259397 2.04012726805626e-17)
(0.329707106081489 0.0130313371541563 2.08293112792918e-16)
(0.174913155234532 0.0154533376915513 2.30746933665524e-16)
(0.345139056946655 0.014492628507136 1.49761689585576e-16)
(0.190997262389173 0.0169566276816863 3.23177136826409e-16)
(0.364078064525536 0.0159144674235676 1.32833515176829e-16)
(0.211225556573495 0.0186237058453312 -2.30673877691815e-17)
(0.386521542626365 0.0168808018232117 2.12434367486708e-16)
(0.235927688596953 0.0199583947630425 3.4944977740028e-16)
(0.412240210821446 0.0173823891474831 4.62823089015143e-17)
(0.264788690544022 0.020609736517739 2.24291347033037e-16)
(0.441044340230028 0.0176894536360039 -1.85197564087417e-16)
(0.297425309585526 0.0209026304054003 -9.54844370482371e-17)
(0.472759012213851 0.0176813923677922 -3.60892137672267e-16)
(0.33379657546073 0.0210307613203601 -3.96969840471586e-16)
(0.506907645215513 0.0170962144079611 -2.72041929321833e-16)
(0.37356780729938 0.0205550165268096 -4.9592594373012e-16)
(0.5429289280438 0.016056918101471 -1.48928513003103e-16)
(0.415931920810682 0.0194039372852298 -1.58078516773104e-16)
(0.580346844106412 0.0147514197224768 -1.98391672371994e-16)
(0.460202714046517 0.0178937137691392 -1.64438334732261e-16)
(0.618756930818529 0.0131333672002738 -8.17749246903016e-18)
(0.505941974494872 0.0160936567560324 -1.74229810390008e-16)
(0.65770072838124 0.0112325974581903 1.16224928791886e-16)
(0.55257189288386 0.0138759451940367 2.73914728337622e-16)
(0.696841069954872 0.00920903809558261 -2.76886754669867e-18)
(0.599584138802111 0.011456093621686 4.08886397274545e-17)
(0.735927704089221 0.00707868831943844 4.01373796856726e-17)
(0.646581490950405 0.00893995024635539 -4.82090218306046e-17)
(0.774769297680263 0.00493106664110321 5.6977496482995e-17)
(0.693388761988769 0.00628986771636356 1.55619373540936e-16)
(0.813340836379089 0.00288957428102214 1.29684466475792e-17)
(0.739607389443209 0.00375006749555528 -2.95771690425207e-18)
(0.851735681417535 0.000972597079503517 6.42627581848251e-17)
(0.785742678463753 0.00133778778392259 1.12566697166356e-17)
(0.889979059083909 -0.000809308649838493 -8.50217465409279e-17)
(0.83118261685319 -0.000914703299135699 1.68144446580999e-16)
(0.928323804215732 -0.00234933242952372 -2.12563913907059e-16)
(0.877194028409894 -0.00302831301620197 -3.59393171788098e-16)
(0.967039683836118 -0.00370477225016603 -2.05063015251297e-17)
(0.922038759576172 -0.0047380907883218 -1.14534648616529e-16)
(1.00686405428937 -0.00472667890999327 -7.28082091038416e-17)
(0.96996516609644 -0.00638729106127227 1.07385857241154e-16)
(1.04771434354179 -0.00553099560753756 -1.44234010359198e-16)
(1.01520603145008 -0.00741763672112135 -2.50722845360886e-16)
(1.09113411372822 -0.00596581178091613 5.10718736744238e-17)
(1.06901755464629 -0.00858681997060228 -4.15582750376002e-17)
(1.13613509335654 -0.00618277312724523 6.57440018487612e-17)
(1.11434963855794 -0.0088047563228415 9.12856007450175e-17)
(1.17983737684164 -0.00346110676897598 7.04831743466168e-17)
(1.18146255187024 -0.00896675788110095 -2.64452871871338e-18)
(1.18018059826978 -0.000834769485122343 -2.8742819530259e-17)
(1.20584028231342 -0.00103411579371974 1.27733264466933e-16)
(1.18231722862205 -0.000451174914658197 -2.35565885986893e-16)
(1.19422731709945 -0.000981419084551733 -2.00145446607839e-16)
(1.18264011636062 9.57805809522923e-06 -1.88584608166702e-16)
(1.20288202459479 -0.000164147739291188 -3.13448633531883e-16)
(1.18324670326076 0.000336615670944064 -1.44822080054124e-16)
(1.19846936572807 0.000108419362125749 -8.41691697796725e-17)
(1.18314712948325 0.000540032101968277 -1.29204211185372e-16)
(1.20122341277266 0.000512495126693489 -2.1049622843227e-16)
(1.18309647037917 0.000654147281990063 4.11000842671283e-18)
(1.19937066150013 0.000617468966713213 -8.59326857532555e-17)
(1.18276233533494 0.000751477385949363 3.26941018506595e-17)
(1.1999897227 0.00078126065932238 8.01321397872338e-17)
(1.18239420333888 0.000792773249421692 -1.03300041151901e-17)
(1.19895199509592 0.000840599316492021 -2.36912389991608e-17)
(1.18192856763728 0.000805992774919202 2.41803348608163e-18)
(1.19876959992645 0.000880670041435184 1.04350022570022e-17)
(1.18146367657223 0.0007976151691004 -6.13193093682347e-18)
(1.19799982822646 0.000879395445100852 1.00354138424332e-17)
(1.18097118977336 0.000771833407726397 -5.2101404201307e-18)
(1.19758979609091 0.00086158970282288 -2.06762636566389e-17)
(1.18044204646947 0.000745680492118106 6.06187611742443e-18)
(1.19689017890477 0.000820884612852677 1.50405134896993e-17)
(1.17979403166031 0.000681476529344676 -1.35989308395853e-18)
(1.19646528549579 0.000765703641260955 4.29570490452923e-18)
(1.19561930498527 0.000524772007241802 -4.51476682324744e-18)
(0.0660654188853175 0.00446328603503328 -5.36336384591045e-18)
(-0.0368935121589378 0.00576613838951979 -4.74658389735705e-18)
(0.0671873271054452 0.00494238009267238 -3.50242057025172e-18)
(-0.0341293681796642 0.00614467401029628 -8.45155968669568e-18)
(0.0672351692827596 0.00534818032093315 2.15507405275542e-18)
(-0.0342225186919382 0.00688134895350071 2.77284195348487e-18)
(0.0667623658905984 0.00561428546014621 1.25314861257591e-17)
(-0.0345711858585175 0.00735694473820818 1.12350485201578e-17)
(0.0660359485672737 0.00574965838861434 2.12704275149326e-17)
(-0.0353535149218275 0.00760287088165388 2.0330108133746e-17)
(0.0652051521001456 0.00581265806482506 1.64274685524263e-17)
(-0.0362661745108878 0.00771223491204941 2.51169153388251e-17)
(0.0643308745519704 0.0058466886673273 -1.67373789182085e-18)
(-0.0372397110247387 0.00776422670447219 1.89047545713988e-17)
(0.0634344780337927 0.00587148916783545 -2.69216634582294e-17)
(-0.0382405154437395 0.00779726909814028 -1.72291062776749e-17)
(0.0625203838197297 0.00589354668076146 -2.93662984547086e-17)
(-0.0392610053907055 0.0078249788112054 -5.14919029042521e-17)
(0.061587723626753 0.00591501939964983 -1.30883903607842e-17)
(-0.0403010997617031 0.00785136544704656 -2.31163012190382e-17)
(0.0606353210273495 0.00593687939522405 -9.43279065921281e-18)
(-0.0413624317441849 0.00787796449066079 -6.61825002981082e-18)
(0.059662615281322 0.00595930835173323 3.35673477318075e-17)
(-0.0424458549246631 0.00790534513566671 -4.15736806777362e-18)
(0.058668827985103 0.00598168488875968 9.3248592281106e-17)
(-0.0435518482775495 0.00793326653830023 1.01927793552975e-16)
(0.0576521368244762 0.00600372851687633 8.88883566714055e-17)
(-0.0446818707610526 0.00796082846574777 1.21567070119679e-16)
(0.0566110502607359 0.00602601054735569 5.98302065868219e-17)
(-0.0458379446467208 0.0079884040413656 5.67391830981943e-17)
(0.0555449495931059 0.00604913214338354 2.86559497778145e-17)
(-0.0470212537104771 0.00801667632421853 5.75684147084064e-17)
(0.0544534997537526 0.00607264289718889 2.50531939168255e-17)
(-0.0482320132792121 0.00804606781720102 1.92219139450321e-17)
(0.0533348625516779 0.00609601663789388 1.72526121340795e-17)
(-0.049471387841878 0.00807536584104168 4.06118733283517e-17)
(0.0521872466449861 0.00611978792337328 -4.71607447729664e-18)
(-0.05074167063349 0.00810484795274849 -5.96806509564207e-18)
(0.0510096605192862 0.00614456136395009 3.48539129605407e-17)
(-0.0520444009272145 0.00813521705045632 1.12091733356139e-17)
(0.0498015540252896 0.00617020581639325 2.4489514015958e-17)
(-0.053380252006438 0.00816692351597124 6.5978082793723e-17)
(0.0485615213325456 0.00619612279505624 -3.02252897432645e-17)
(-0.0547501641283553 0.00819928991058169 -4.32788010392521e-17)
(0.0472874329452612 0.00622247476415664 1.60108156836969e-17)
(-0.0561562633654424 0.00823192392505298 -6.94984924933889e-17)
(0.0459776450365304 0.00625008540333048 1.54209344062344e-17)
(-0.057600798790023 0.00826553303853524 5.22040663746609e-17)
(0.0446314393730729 0.00627950138267833 -3.8230771497187e-17)
(-0.059085088257768 0.00830099677386607 -5.14063379456806e-17)
(0.0432480747701745 0.0063099289046674 -9.38069206798707e-17)
(-0.0606095076869928 0.00833845503583561 -8.55175672399704e-17)
(0.0418249810969343 0.00634077854084625 -1.87577105003085e-16)
(-0.0621759024126339 0.00837633241349108 -1.81527436095983e-16)
(0.040359792374962 0.00637297326836272 -1.52791684865151e-16)
(-0.0637874208483981 0.00841512313544219 -2.38624652773163e-16)
(0.038851588787409 0.00640788121998197 2.24351239838787e-17)
(-0.0654461172231926 0.00845611001702856 -8.2318760090963e-17)
(0.0373004280523637 0.0064449022912511 -3.1045774592533e-17)
(-0.0671518369397139 0.00850058879728764 1.11416945828604e-16)
(0.0357037287813658 0.0064828127216798 -1.72239870991432e-16)
(-0.0689057840736297 0.00854618804903691 -2.41078236291925e-16)
(0.0340585730655419 0.0065225519410014 -1.18292999117166e-16)
(-0.0707116275474169 0.00859303223499324 -1.79485828940972e-16)
(0.0323638038497764 0.00656616739935137 -2.17487384379533e-17)
(-0.0725720080218908 0.00864279201053136 -8.9632325595998e-17)
(0.0306204435351326 0.00661415524787897 -2.80598438922591e-17)
(-0.0744866622893036 0.00869774795457457 3.86278376878721e-17)
(0.0288278895255394 0.00666459087583375 -9.98144607679268e-17)
(-0.0764545664524012 0.00875656412280974 -1.36019184729885e-16)
(0.026982836491422 0.00671729081700703 -1.59699222516521e-16)
(-0.0784783674398621 0.00881702181655322 -9.34773780113548e-17)
(0.0250836005085025 0.00677540414745669 -1.05472418804677e-16)
(-0.0805618024010063 0.00888100493827854 -1.83828790327951e-16)
(0.0231333256914464 0.00684241281734128 -5.59963219486378e-17)
(-0.0827048299020935 0.008952792053587 -8.34273397675666e-18)
(0.0211370000418956 0.00691525897892324 -1.36508698373968e-16)