/*--------------------------------*- C++ -*----------------------------------*\
| =========                 |                                                 |
| \\      /  F ield         | foam-extend: Open Source CFD                    |
|  \\    /   O peration     | Version:     4.1-20200408                       |
|   \\  /    A nd           | Web:         http://www.foam-extend.org         |
|    \\/     M anipulation  |                                                 |
\*---------------------------------------------------------------------------*/
FoamFile
{
    version     2.0;
    format      ascii;
    class       volVectorField;
    location    "0.0430000";
    object      U_0_0;
}
// * * * * * * * * * * * * * * * * * * * * * * * * * * * * * * * * * * * * * //

dimensions      [0 1 0 0 0 0 0];

internalField   nonuniform List<vector> 
1952
(
(0.0424275 -1.31584e-06 0)
(0.0424273 -2.14101e-06 0)
(0.0424271 -2.97692e-06 0)
(0.0424268 -3.81232e-06 0)
(0.0424264 -4.64909e-06 0)
(0.0424259 -5.47961e-06 0)
(0.0424254 -6.31009e-06 0)
(0.0424249 -7.12993e-06 0)
(0.0424244 -7.94782e-06 0)
(0.0424238 -8.74987e-06 0)
(0.0424233 -9.5454e-06 0)
(0.0424229 -1.03194e-05 0)
(0.0424225 -1.10733e-05 0)
(0.0424223 -1.17983e-05 0)
(0.0424223 -1.24835e-05 0)
(0.0424275 -5.63709e-07 0)
(0.0424258 -1.31873e-06 0)
(0.0424256 -2.1457e-06 0)
(0.0424254 -2.98342e-06 0)
(0.0424251 -3.82063e-06 0)
(0.0424247 -4.65918e-06 0)
(0.0424242 -5.49147e-06 0)
(0.0424237 -6.32368e-06 0)
(0.0424232 -7.14521e-06 0)
(0.0424227 -7.96476e-06 0)
(0.0424221 -8.76841e-06 0)
(0.0424216 -9.56557e-06 0)
(0.0424212 -1.03411e-05 0)
(0.0424208 -1.10965e-05 0)
(0.0424206 -1.1823e-05 0)
(0.0424206 -1.25097e-05 0)
(0.0424258 -5.64946e-07 0)
(0.0424241 -1.32155e-06 0)
(0.0424239 -2.15028e-06 0)
(0.0424237 -2.98978e-06 0)
(0.0424234 -3.82875e-06 0)
(0.042423 -4.66906e-06 0)
(0.0424225 -5.50308e-06 0)
(0.042422 -6.33699e-06 0)
(0.0424215 -7.16022e-06 0)
(0.042421 -7.98141e-06 0)
(0.0424204 -8.78665e-06 0)
(0.0424199 -9.58543e-06 0)
(0.0424194 -1.03625e-05 0)
(0.0424191 -1.11195e-05 0)
(0.0424189 -1.18475e-05 0)
(0.0424189 -1.25356e-05 0)
(0.0424241 -5.66154e-07 0)
(0.0424224 -1.32431e-06 0)
(0.0424222 -2.15476e-06 0)
(0.042422 -2.99602e-06 0)
(0.0424216 -3.83671e-06 0)
(0.0424213 -4.67876e-06 0)
(0.0424208 -5.51447e-06 0)
(0.0424203 -6.35008e-06 0)
(0.0424198 -7.17497e-06 0)
(0.0424192 -7.99781e-06 0)
(0.0424187 -8.80468e-06 0)
(0.0424182 -9.60506e-06 0)
(0.0424177 -1.03837e-05 0)
(0.0424174 -1.11422e-05 0)
(0.0424172 -1.18717e-05 0)
(0.0424172 -1.25613e-05 0)
(0.0424224 -5.67337e-07 0)
(0.0424207 -1.32703e-06 0)
(0.0424205 -2.15918e-06 0)
(0.0424203 -3.00216e-06 0)
(0.0424199 -3.84455e-06 0)
(0.0424196 -4.68832e-06 0)
(0.0424191 -5.5257e-06 0)
(0.0424186 -6.36302e-06 0)
(0.0424181 -7.18952e-06 0)
(0.0424175 -8.01405e-06 0)
(0.042417 -8.82255e-06 0)
(0.0424165 -9.62451e-06 0)
(0.042416 -1.04047e-05 0)
(0.0424157 -1.11648e-05 0)
(0.0424155 -1.18957e-05 0)
(0.0424155 -1.25868e-05 0)
(0.0424207 -5.68502e-07 0)
(0.042419 -1.32971e-06 0)
(0.0424188 -2.16354e-06 0)
(0.0424186 -3.00822e-06 0)
(0.0424182 -3.8523e-06 0)
(0.0424178 -4.69778e-06 0)
(0.0424174 -5.53681e-06 0)
(0.0424169 -6.37584e-06 0)
(0.0424164 -7.20393e-06 0)
(0.0424158 -8.03014e-06 0)
(0.0424152 -8.84027e-06 0)
(0.0424147 -9.64382e-06 0)
(0.0424143 -1.04256e-05 0)
(0.042414 -1.11872e-05 0)
(0.0424138 -1.19196e-05 0)
(0.0424137 -1.26122e-05 0)
(0.042419 -5.69651e-07 0)
(0.0424172 -1.33237e-06 0)
(0.0424171 -2.16786e-06 0)
(0.0424168 -3.01424e-06 0)
(0.0424165 -3.85997e-06 0)
(0.0424161 -4.70716e-06 0)
(0.0424157 -5.54782e-06 0)
(0.0424152 -6.38855e-06 0)
(0.0424146 -7.21824e-06 0)
(0.0424141 -8.04612e-06 0)
(0.0424135 -8.85786e-06 0)
(0.042413 -9.66301e-06 0)
(0.0424126 -1.04464e-05 0)
(0.0424122 -1.12095e-05 0)
(0.042412 -1.19434e-05 0)
(0.042412 -1.26375e-05 0)
(0.0424173 -5.70789e-07 0)
(0.0424155 -1.33501e-06 0)
(0.0424153 -2.17214e-06 0)
(0.0424151 -3.02021e-06 0)
(0.0424148 -3.8676e-06 0)
(0.0424144 -4.71648e-06 0)
(0.0424139 -5.55877e-06 0)
(0.0424135 -6.4012e-06 0)
(0.0424129 -7.23248e-06 0)
(0.0424124 -8.06201e-06 0)
(0.0424118 -8.87534e-06 0)
(0.0424113 -9.68211e-06 0)
(0.0424108 -1.0467e-05 0)
(0.0424105 -1.12317e-05 0)
(0.0424103 -1.19671e-05 0)
(0.0424103 -1.26626e-05 0)
(0.0424156 -5.71919e-07 0)
(0.0424138 -1.33763e-06 0)
(0.0424136 -2.1764e-06 0)
(0.0424134 -3.02615e-06 0)
(0.0424131 -3.87518e-06 0)
(0.0424127 -4.72576e-06 0)
(0.0424122 -5.56966e-06 0)
(0.0424117 -6.41376e-06 0)
(0.0424112 -7.24663e-06 0)
(0.0424106 -8.0778e-06 0)
(0.0424101 -8.89273e-06 0)
(0.0424096 -9.7011e-06 0)
(0.0424091 -1.04876e-05 0)
(0.0424088 -1.12538e-05 0)
(0.0424086 -1.19907e-05 0)
(0.0424086 -1.26877e-05 0)
(0.0424139 -5.73043e-07 0)
(0.0424121 -1.34024e-06 0)
(0.0424119 -2.18065e-06 0)
(0.0424117 -3.03206e-06 0)
(0.0424113 -3.88273e-06 0)
(0.042411 -4.73498e-06 0)
(0.0424105 -5.5805e-06 0)
(0.04241 -6.42627e-06 0)
(0.0424094 -7.26071e-06 0)
(0.0424089 -8.09351e-06 0)
(0.0424083 -8.91003e-06 0)
(0.0424078 -9.72001e-06 0)
(0.0424074 -1.0508e-05 0)
(0.042407 -1.12758e-05 0)
(0.0424068 -1.20142e-05 0)
(0.0424068 -1.27127e-05 0)
(0.0424121 -5.74161e-07 0)
(0.0424103 -1.34284e-06 0)
(0.0424102 -2.18487e-06 0)
(0.0424099 -3.03794e-06 0)
(0.0424096 -3.89024e-06 0)
(0.0424092 -4.74415e-06 0)
(0.0424088 -5.59128e-06 0)
(0.0424083 -6.4387e-06 0)
(0.0424077 -7.27473e-06 0)
(0.0424072 -8.10915e-06 0)
(0.0424066 -8.92725e-06 0)
(0.0424061 -9.73883e-06 0)
(0.0424056 -1.05284e-05 0)
(0.0424053 -1.12977e-05 0)
(0.0424051 -1.20376e-05 0)
(0.0424051 -1.27376e-05 0)
(0.0424104 -5.75274e-07 0)
(0.0424086 -1.34543e-06 0)
(0.0424084 -2.18906e-06 0)
(0.0424082 -3.04378e-06 0)
(0.0424079 -3.8977e-06 0)
(0.0424075 -4.75327e-06 0)
(0.042407 -5.602e-06 0)
(0.0424065 -6.45107e-06 0)
(0.042406 -7.28866e-06 0)
(0.0424054 -8.1247e-06 0)
(0.0424049 -8.94439e-06 0)
(0.0424043 -9.75757e-06 0)
(0.0424039 -1.05487e-05 0)
(0.0424036 -1.13196e-05 0)
(0.0424034 -1.20609e-05 0)
(0.0424033 -1.27624e-05 0)
(0.0424087 -5.7638e-07 0)
(0.0424069 -1.34799e-06 0)
(0.0424067 -2.19323e-06 0)
(0.0424065 -3.04959e-06 0)
(0.0424061 -3.90512e-06 0)
(0.0424057 -4.76234e-06 0)
(0.0424053 -5.61265e-06 0)
(0.0424048 -6.46336e-06 0)
(0.0424042 -7.30252e-06 0)
(0.0424037 -8.14017e-06 0)
(0.0424031 -8.96145e-06 0)
(0.0424026 -9.77623e-06 0)
(0.0424021 -1.05689e-05 0)
(0.0424018 -1.13413e-05 0)
(0.0424016 -1.20842e-05 0)
(0.0424016 -1.27872e-05 0)
(0.0424069 -5.77479e-07 0)
(0.0424051 -1.35054e-06 0)
(0.042405 -2.19737e-06 0)
(0.0424047 -3.05535e-06 0)
(0.0424044 -3.91248e-06 0)
(0.042404 -4.77134e-06 0)
(0.0424035 -5.62324e-06 0)
(0.042403 -6.47558e-06 0)
(0.0424025 -7.31631e-06 0)
(0.0424019 -8.15556e-06 0)
(0.0424014 -8.97843e-06 0)
(0.0424009 -9.79481e-06 0)
(0.0424004 -1.05891e-05 0)
(0.0424001 -1.1363e-05 0)
(0.0423999 -1.21074e-05 0)
(0.0423998 -1.28119e-05 0)
(0.0424052 -5.7857e-07 0)
(0.0424034 -1.35307e-06 0)
(0.0424032 -2.20147e-06 0)
(0.042403 -3.06107e-06 0)
(0.0424026 -3.91979e-06 0)
(0.0424023 -4.78027e-06 0)
(0.0424018 -5.63376e-06 0)
(0.0424013 -6.48772e-06 0)
(0.0424007 -7.33002e-06 0)
(0.0424002 -8.17088e-06 0)
(0.0423996 -8.99534e-06 0)
(0.0423991 -9.81331e-06 0)
(0.0423986 -1.06092e-05 0)
(0.0423983 -1.13846e-05 0)
(0.0423981 -1.21305e-05 0)
(0.0423981 -1.28365e-05 0)
(0.0424035 -5.79651e-07 0)
(0.0424017 -1.35557e-06 0)
(0.0424015 -2.20554e-06 0)
(0.0424012 -3.06674e-06 0)
(0.0424009 -3.92704e-06 0)
(0.0424005 -4.78914e-06 0)
(0.0424 -5.6442e-06 0)
(0.0423995 -6.49979e-06 0)
(0.042399 -7.34365e-06 0)
(0.0423984 -8.18611e-06 0)
(0.0423979 -9.01215e-06 0)
(0.0423974 -9.83172e-06 0)
(0.0423969 -1.06291e-05 0)
(0.0423966 -1.14062e-05 0)
(0.0423963 -1.21536e-05 0)
(0.0423963 -1.28611e-05 0)
(0.0424017 -5.80724e-07 0)
(0.0423999 -1.35805e-06 0)
(0.0423997 -2.20957e-06 0)
(0.0423995 -3.07237e-06 0)
(0.0423991 -3.93424e-06 0)
(0.0423988 -4.79794e-06 0)
(0.0423983 -5.65457e-06 0)
(0.0423978 -6.51176e-06 0)
(0.0423972 -7.35719e-06 0)
(0.0423967 -8.20124e-06 0)
(0.0423961 -9.02888e-06 0)
(0.0423956 -9.85004e-06 0)
(0.0423951 -1.0649e-05 0)
(0.0423948 -1.14277e-05 0)
(0.0423946 -1.21765e-05 0)
(0.0423946 -1.28855e-05 0)
(0.0424 -5.81786e-07 0)
(0.0423981 -1.36051e-06 0)
(0.042398 -2.21357e-06 0)
(0.0423977 -3.07794e-06 0)
(0.0423974 -3.94137e-06 0)
(0.042397 -4.80667e-06 0)
(0.0423965 -5.66486e-06 0)
(0.042396 -6.52365e-06 0)
(0.0423955 -7.37063e-06 0)
(0.0423949 -8.21628e-06 0)
(0.0423943 -9.0455e-06 0)
(0.0423938 -9.86826e-06 0)
(0.0423934 -1.06688e-05 0)
(0.042393 -1.1449e-05 0)
(0.0423928 -1.21994e-05 0)
(0.0423928 -1.291e-05 0)
(0.0423982 -5.82839e-07 0)
(0.0423964 -1.36295e-06 0)
(0.0423962 -2.21753e-06 0)
(0.042396 -3.08346e-06 0)
(0.0423956 -3.94843e-06 0)
(0.0423952 -4.81532e-06 0)
(0.0423948 -5.67505e-06 0)
(0.0423943 -6.53544e-06 0)
(0.0423937 -7.38397e-06 0)
(0.0423932 -8.2312e-06 0)
(0.0423926 -9.06202e-06 0)
(0.0423921 -9.88637e-06 0)
(0.0423916 -1.06885e-05 0)
(0.0423913 -1.14703e-05 0)
(0.0423911 -1.22222e-05 0)
(0.042391 -1.29343e-05 0)
(0.0423965 -5.83882e-07 0)
(0.0423946 -1.36536e-06 0)
(0.0423945 -2.22145e-06 0)
(0.0423942 -3.08892e-06 0)
(0.0423939 -3.95543e-06 0)
(0.0423935 -4.82388e-06 0)
(0.042393 -5.68515e-06 0)
(0.0423925 -6.54712e-06 0)
(0.0423919 -7.3972e-06 0)
(0.0423914 -8.246e-06 0)
(0.0423908 -9.07841e-06 0)
(0.0423903 -9.90436e-06 0)
(0.0423898 -1.07081e-05 0)
(0.0423895 -1.14915e-05 0)
(0.0423893 -1.22449e-05 0)
(0.0423893 -1.29585e-05 0)
(0.0423947 -5.84914e-07 0)
(0.0423929 -1.36774e-06 0)
(0.0423927 -2.22532e-06 0)
(0.0423924 -3.09433e-06 0)
(0.0423921 -3.96235e-06 0)
(0.0423917 -4.83235e-06 0)
(0.0423912 -5.69514e-06 0)
(0.0423907 -6.55869e-06 0)
(0.0423902 -7.41029e-06 0)
(0.0423896 -8.26066e-06 0)
(0.042389 -9.09467e-06 0)
(0.0423885 -9.92222e-06 0)
(0.0423881 -1.07276e-05 0)
(0.0423877 -1.15125e-05 0)
(0.0423875 -1.22675e-05 0)
(0.0423875 -1.29827e-05 0)
(0.0423929 -5.85934e-07 0)
(0.0423911 -1.37009e-06 0)
(0.0423909 -2.22915e-06 0)
(0.0423907 -3.09966e-06 0)
(0.0423903 -3.96918e-06 0)
(0.04239 -4.84072e-06 0)
(0.0423895 -5.70503e-06 0)
(0.042389 -6.57015e-06 0)
(0.0423884 -7.42326e-06 0)
(0.0423879 -8.27518e-06 0)
(0.0423873 -9.1108e-06 0)
(0.0423868 -9.93994e-06 0)
(0.0423863 -1.07469e-05 0)
(0.0423859 -1.15334e-05 0)
(0.0423857 -1.229e-05 0)
(0.0423857 -1.30067e-05 0)
(0.0423912 -5.86941e-07 0)
(0.0423893 -1.37241e-06 0)
(0.0423892 -2.23292e-06 0)
(0.0423889 -3.10493e-06 0)
(0.0423886 -3.97594e-06 0)
(0.0423882 -4.849e-06 0)
(0.0423877 -5.71482e-06 0)
(0.0423872 -6.58148e-06 0)
(0.0423866 -7.4361e-06 0)
(0.0423861 -8.28957e-06 0)
(0.0423855 -9.1268e-06 0)
(0.042385 -9.95752e-06 0)
(0.0423845 -1.07661e-05 0)
(0.0423842 -1.15542e-05 0)
(0.042384 -1.23124e-05 0)
(0.0423839 -1.30307e-05 0)
(0.0423894 -5.87935e-07 0)
(0.0423876 -1.37471e-06 0)
(0.0423874 -2.23666e-06 0)
(0.0423871 -3.11013e-06 0)
(0.0423868 -3.98262e-06 0)
(0.0423864 -4.85717e-06 0)
(0.0423859 -5.7245e-06 0)
(0.0423854 -6.59267e-06 0)
(0.0423849 -7.44883e-06 0)
(0.0423843 -8.30384e-06 0)
(0.0423837 -9.14267e-06 0)
(0.0423832 -9.97498e-06 0)
(0.0423827 -1.07852e-05 0)
(0.0423824 -1.15749e-05 0)
(0.0423822 -1.23347e-05 0)
(0.0423822 -1.30546e-05 0)
(0.0423876 -5.88917e-07 0)
(0.0423858 -1.37698e-06 0)
(0.0423856 -2.24035e-06 0)
(0.0423854 -3.11529e-06 0)
(0.042385 -3.98924e-06 0)
(0.0423846 -4.86526e-06 0)
(0.0423842 -5.7341e-06 0)
(0.0423836 -6.60377e-06 0)
(0.0423831 -7.46146e-06 0)
(0.0423825 -8.318e-06 0)
(0.0423819 -9.15842e-06 0)
(0.0423814 -9.99234e-06 0)
(0.0423809 -1.08042e-05 0)
(0.0423806 -1.15955e-05 0)
(0.0423804 -1.23569e-05 0)
(0.0423804 -1.30784e-05 0)
(0.0423859 -5.89888e-07 0)
(0.042384 -1.37923e-06 0)
(0.0423838 -2.24403e-06 0)
(0.0423836 -3.12041e-06 0)
(0.0423833 -3.99582e-06 0)
(0.0423829 -4.87331e-06 0)
(0.0423824 -5.74364e-06 0)
(0.0423819 -6.61479e-06 0)
(0.0423813 -7.47402e-06 0)
(0.0423807 -8.33207e-06 0)
(0.0423801 -9.1741e-06 0)
(0.0423796 -1.00096e-05 0)
(0.0423792 -1.08231e-05 0)
(0.0423788 -1.16161e-05 0)
(0.0423786 -1.2379e-05 0)
(0.0423786 -1.31022e-05 0)
(0.0423841 -5.9085e-07 0)
(0.0423822 -1.38148e-06 0)
(0.0423821 -2.2477e-06 0)
(0.0423818 -3.12552e-06 0)
(0.0423815 -4.0024e-06 0)
(0.0423811 -4.88134e-06 0)
(0.0423806 -5.75317e-06 0)
(0.0423801 -6.6258e-06 0)
(0.0423795 -7.48655e-06 0)
(0.0423789 -8.3461e-06 0)
(0.0423784 -9.18973e-06 0)
(0.0423778 -1.00268e-05 0)
(0.0423774 -1.08419e-05 0)
(0.042377 -1.16366e-05 0)
(0.0423768 -1.24012e-05 0)
(0.0423768 -1.31261e-05 0)
(0.0423823 -5.91814e-07 0)
(0.0423805 -1.38376e-06 0)
(0.0423803 -2.2514e-06 0)
(0.04238 -3.13067e-06 0)
(0.0423797 -4.00901e-06 0)
(0.0423793 -4.88941e-06 0)
(0.0423788 -5.76274e-06 0)
(0.0423783 -6.63684e-06 0)
(0.0423777 -7.49911e-06 0)
(0.0423771 -8.36016e-06 0)
(0.0423766 -9.20539e-06 0)
(0.042376 -1.00441e-05 0)
(0.0423756 -1.08609e-05 0)
(0.0423752 -1.16572e-05 0)
(0.042375 -1.24235e-05 0)
(0.042375 -1.31501e-05 0)
(0.0423805 -5.92788e-07 0)
(0.0423787 -1.38607e-06 0)
(0.0423785 -2.25517e-06 0)
(0.0423782 -3.13592e-06 0)
(0.0423779 -4.01574e-06 0)
(0.0423775 -4.89761e-06 0)
(0.042377 -5.77244e-06 0)
(0.0423765 -6.64801e-06 0)
(0.0423759 -7.51182e-06 0)
(0.0423754 -8.37435e-06 0)
(0.0423748 -9.22118e-06 0)
(0.0423742 -1.00615e-05 0)
(0.0423738 -1.08799e-05 0)
(0.0423734 -1.1678e-05 0)
(0.0423732 -1.24459e-05 0)
(0.0423732 -1.31743e-05 0)
(0.0423787 -5.9378e-07 0)
(0.0423769 -1.38845e-06 0)
(0.0423767 -2.25905e-06 0)
(0.0423765 -3.14132e-06 0)
(0.0423761 -4.02267e-06 0)
(0.0423757 -4.90602e-06 0)
(0.0423752 -5.78239e-06 0)
(0.0423747 -6.65942e-06 0)
(0.0423741 -7.52478e-06 0)
(0.0423736 -8.38882e-06 0)
(0.042373 -9.23723e-06 0)
(0.0423724 -1.00792e-05 0)
(0.042372 -1.08992e-05 0)
(0.0423716 -1.1699e-05 0)
(0.0423714 -1.24686e-05 0)
(0.0423714 -1.31988e-05 0)
(0.042377 -5.94804e-07 0)
(0.0423751 -1.39097e-06 0)
(0.0423749 -2.26314e-06 0)
(0.0423747 -3.14699e-06 0)
(0.0423743 -4.02993e-06 0)
(0.0423739 -4.91478e-06 0)
(0.0423734 -5.79276e-06 0)
(0.0423729 -6.67122e-06 0)
(0.0423723 -7.5382e-06 0)
(0.0423718 -8.40375e-06 0)
(0.0423712 -9.25374e-06 0)
(0.0423706 -1.00973e-05 0)
(0.0423702 -1.09189e-05 0)
(0.0423698 -1.17204e-05 0)
(0.0423696 -1.24917e-05 0)
(0.0423696 -1.32238e-05 0)
(0.0423752 -5.95884e-07 0)
(0.0423733 -1.39368e-06 0)
(0.0423731 -2.26754e-06 0)
(0.0423729 -3.15305e-06 0)
(0.0423725 -4.0377e-06 0)
(0.0423721 -4.9241e-06 0)
(0.0423716 -5.80376e-06 0)
(0.0423711 -6.68368e-06 0)
(0.0423705 -7.55231e-06 0)
(0.04237 -8.41936e-06 0)
(0.0423694 -9.27093e-06 0)
(0.0423688 -1.0116e-05 0)
(0.0423683 -1.09393e-05 0)
(0.042368 -1.17425e-05 0)
(0.0423678 -1.25155e-05 0)
(0.0423677 -1.32495e-05 0)
(0.0423734 -5.97048e-07 0)
(0.0423715 -1.39667e-06 0)
(0.0423713 -2.27237e-06 0)
(0.0423711 -3.15968e-06 0)
(0.0423707 -4.04617e-06 0)
(0.0423703 -4.93422e-06 0)
(0.0423698 -5.81567e-06 0)
(0.0423693 -6.69709e-06 0)
(0.0423687 -7.56742e-06 0)
(0.0423681 -8.43595e-06 0)
(0.0423676 -9.28914e-06 0)
(0.042367 -1.01358e-05 0)
(0.0423665 -1.09607e-05 0)
(0.0423662 -1.17656e-05 0)
(0.0423659 -1.25403e-05 0)
(0.0423659 -1.32762e-05 0)
(0.0423716 -5.98326e-07 0)
(0.0423697 -1.40002e-06 0)
(0.0423695 -2.2778e-06 0)
(0.0423693 -3.16711e-06 0)
(0.0423689 -4.05563e-06 0)
(0.0423685 -4.94548e-06 0)
(0.042368 -5.82884e-06 0)
(0.0423675 -6.71183e-06 0)
(0.0423669 -7.58391e-06 0)
(0.0423663 -8.45393e-06 0)
(0.0423657 -9.30875e-06 0)
(0.0423652 -1.01569e-05 0)
(0.0423647 -1.09834e-05 0)
(0.0423643 -1.17901e-05 0)
(0.0423641 -1.25664e-05 0)
(0.0423641 -1.33043e-05 0)
(0.0423698 -5.99762e-07 0)
(0.0423679 -1.40386e-06 0)
(0.0423677 -2.28401e-06 0)
(0.0423675 -3.17559e-06 0)
(0.0423671 -4.0664e-06 0)
(0.0423667 -4.95824e-06 0)
(0.0423662 -5.84369e-06 0)
(0.0423657 -6.72836e-06 0)
(0.0423651 -7.60228e-06 0)
(0.0423645 -8.4738e-06 0)
(0.0423639 -9.33026e-06 0)
(0.0423634 -1.01799e-05 0)
(0.0423629 -1.1008e-05 0)
(0.0423625 -1.18163e-05 0)
(0.0423623 -1.25943e-05 0)
(0.0423623 -1.33341e-05 0)
(0.042368 -6.0141e-07 0)
(0.0423661 -1.40834e-06 0)
(0.0423659 -2.29124e-06 0)
(0.0423657 -3.18545e-06 0)
(0.0423653 -4.07889e-06 0)
(0.0423649 -4.97298e-06 0)
(0.0423644 -5.86076e-06 0)
(0.0423639 -6.74726e-06 0)
(0.0423633 -7.62314e-06 0)
(0.0423627 -8.4962e-06 0)
(0.0423621 -9.35432e-06 0)
(0.0423616 -1.02054e-05 0)
(0.0423611 -1.1035e-05 0)
(0.0423607 -1.18448e-05 0)
(0.0423605 -1.26245e-05 0)
(0.0423604 -1.33663e-05 0)
(0.0423662 -6.03331e-07 0)
(0.0423643 -1.41364e-06 0)
(0.0423641 -2.29979e-06 0)
(0.0423639 -3.19709e-06 0)
(0.0423635 -4.09357e-06 0)
(0.0423631 -4.99027e-06 0)
(0.0423626 -5.88071e-06 0)
(0.0423621 -6.76925e-06 0)
(0.0423615 -7.64728e-06 0)
(0.0423609 -8.52193e-06 0)
(0.0423603 -9.38175e-06 0)
(0.0423597 -1.02342e-05 0)
(0.0423592 -1.10652e-05 0)
(0.0423589 -1.18766e-05 0)
(0.0423586 -1.26577e-05 0)
(0.0423586 -1.34015e-05 0)
(0.0423644 -6.05603e-07 0)
(0.0423625 -1.41996e-06 0)
(0.0423623 -2.30998e-06 0)
(0.0423621 -3.21095e-06 0)
(0.0423617 -4.11104e-06 0)
(0.0423613 -5.01082e-06 0)
(0.0423608 -5.90432e-06 0)
(0.0423603 -6.79521e-06 0)
(0.0423597 -7.67563e-06 0)
(0.0423591 -8.55197e-06 0)
(0.0423585 -9.41356e-06 0)
(0.0423579 -1.02673e-05 0)
(0.0423574 -1.10996e-05 0)
(0.042357 -1.19124e-05 0)
(0.0423568 -1.26949e-05 0)
(0.0423567 -1.34406e-05 0)
(0.0423626 -6.08315e-07 0)
(0.0423607 -1.42754e-06 0)
(0.0423605 -2.3222e-06 0)
(0.0423602 -3.22757e-06 0)
(0.0423599 -4.13197e-06 0)
(0.0423595 -5.03543e-06 0)
(0.042359 -5.93255e-06 0)
(0.0423584 -6.82618e-06 0)
(0.0423578 -7.70934e-06 0)
(0.0423572 -8.58752e-06 0)
(0.0423566 -9.45098e-06 0)
(0.0423561 -1.03059e-05 0)
(0.0423556 -1.11395e-05 0)
(0.0423552 -1.19534e-05 0)
(0.0423549 -1.27371e-05 0)
(0.0423549 -1.34847e-05 0)
(0.0423607 -6.11567e-07 0)
(0.0423589 -1.43664e-06 0)
(0.0423587 -2.33688e-06 0)
(0.0423584 -3.24756e-06 0)
(0.0423581 -4.15712e-06 0)
(0.0423576 -5.06503e-06 0)
(0.0423571 -5.96646e-06 0)
(0.0423566 -6.86338e-06 0)
(0.042356 -7.74974e-06 0)
(0.0423554 -8.63002e-06 0)
(0.0423548 -9.49553e-06 0)
(0.0423542 -1.03516e-05 0)
(0.0423537 -1.11864e-05 0)
(0.0423533 -1.20012e-05 0)
(0.0423531 -1.27857e-05 0)
(0.042353 -1.3535e-05 0)
(0.0423589 -6.15474e-07 0)
(0.042357 -1.44756e-06 0)
(0.0423568 -2.35448e-06 0)
(0.0423566 -3.27155e-06 0)
(0.0423562 -4.18731e-06 0)
(0.0423558 -5.10063e-06 0)
(0.0423553 -6.00726e-06 0)
(0.0423548 -6.9082e-06 0)
(0.0423542 -7.79839e-06 0)
(0.0423536 -8.68114e-06 0)
(0.042353 -9.549e-06 0)
(0.0423524 -1.04062e-05 0)
(0.0423519 -1.1242e-05 0)
(0.0423515 -1.20574e-05 0)
(0.0423512 -1.28425e-05 0)
(0.0423512 -1.35931e-05 0)
(0.0423571 -6.20156e-07 0)
(0.0423552 -1.46055e-06 0)
(0.042355 -2.37547e-06 0)
(0.0423547 -3.30021e-06 0)
(0.0423544 -4.22342e-06 0)
(0.042354 -5.14332e-06 0)
(0.0423535 -6.05624e-06 0)
(0.0423529 -6.96215e-06 0)
(0.0423523 -7.85703e-06 0)
(0.0423517 -8.74285e-06 0)
(0.0423511 -9.61353e-06 0)
(0.0423506 -1.0472e-05 0)
(0.04235 -1.13088e-05 0)
(0.0423496 -1.21244e-05 0)
(0.0423494 -1.29097e-05 0)
(0.0423493 -1.36613e-05 0)
(0.0423552 -6.25732e-07 0)
(0.0423533 -1.4759e-06 0)
(0.0423531 -2.40027e-06 0)
(0.0423529 -3.33414e-06 0)
(0.0423525 -4.26626e-06 0)
(0.0423521 -5.19414e-06 0)
(0.0423516 -6.11472e-06 0)
(0.0423511 -7.02683e-06 0)
(0.0423505 -7.92755e-06 0)
(0.0423499 -8.81729e-06 0)
(0.0423493 -9.69156e-06 0)
(0.0423487 -1.05515e-05 0)
(0.0423482 -1.13896e-05 0)
(0.0423478 -1.22051e-05 0)
(0.0423475 -1.29901e-05 0)
(0.0423474 -1.37421e-05 0)
(0.0423534 -6.32314e-07 0)
(0.0423514 -1.49379e-06 0)
(0.0423512 -2.42922e-06 0)
(0.042351 -3.37387e-06 0)
(0.0423507 -4.31653e-06 0)
(0.0423502 -5.25405e-06 0)
(0.0423498 -6.18389e-06 0)
(0.0423492 -7.10376e-06 0)
(0.0423486 -8.01181e-06 0)
(0.042348 -8.90675e-06 0)
(0.0423474 -9.78576e-06 0)
(0.0423469 -1.06479e-05 0)
(0.0423463 -1.14876e-05 0)
(0.0423459 -1.23027e-05 0)
(0.0423456 -1.30869e-05 0)
(0.0423455 -1.38385e-05 0)
(0.0423515 -6.39987e-07 0)
(0.0423495 -1.51432e-06 0)
(0.0423493 -2.46251e-06 0)
(0.0423491 -3.41968e-06 0)
(0.0423488 -4.37467e-06 0)
(0.0423484 -5.32368e-06 0)
(0.0423479 -6.26468e-06 0)
(0.0423474 -7.19421e-06 0)
(0.0423468 -8.11152e-06 0)
(0.0423462 -9.01344e-06 0)
(0.0423456 -9.89895e-06 0)
(0.042345 -1.07645e-05 0)
(0.0423445 -1.16069e-05 0)
(0.0423441 -1.24215e-05 0)
(0.0423438 -1.32045e-05 0)
(0.0423437 -1.39541e-05 0)
(0.0423496 -6.48794e-07 0)
(0.0423476 -1.53747e-06 0)
(0.0423474 -2.50007e-06 0)
(0.0423472 -3.47153e-06 0)
(0.0423468 -4.44071e-06 0)
(0.0423464 -5.40319e-06 0)
(0.042346 -6.35742e-06 0)
(0.0423455 -7.29887e-06 0)
(0.0423449 -8.22783e-06 0)
(0.0423443 -9.13917e-06 0)
(0.0423437 -1.00338e-05 0)
(0.0423432 -1.09051e-05 0)
(0.0423426 -1.17527e-05 0)
(0.0423422 -1.25683e-05 0)
(0.0423419 -1.33507e-05 0)
(0.0423418 -1.4097e-05 0)
(0.0423477 -6.58717e-07 0)
(0.0423456 -1.56297e-06 0)
(0.0423455 -2.54151e-06 0)
(0.0423452 -3.52892e-06 0)
(0.0423449 -4.51406e-06 0)
(0.0423445 -5.49199e-06 0)
(0.0423441 -6.46161e-06 0)
(0.0423436 -7.41743e-06 0)
(0.042343 -8.36076e-06 0)
(0.0423424 -9.28461e-06 0)
(0.0423418 -1.01921e-05 0)
(0.0423413 -1.1073e-05 0)
(0.0423408 -1.19306e-05 0)
(0.0423403 -1.27521e-05 0)
(0.04234 -1.35398e-05 0)
(0.0423399 -1.42873e-05 0)
(0.0423457 -6.69647e-07 0)
(0.0423436 -1.59031e-06 0)
(0.0423435 -2.58604e-06 0)
(0.0423432 -3.59077e-06 0)
(0.0423429 -4.59336e-06 0)
(0.0423426 -5.58852e-06 0)
(0.0423421 -6.57547e-06 0)
(0.0423416 -7.54803e-06 0)
(0.0423411 -8.50842e-06 0)
(0.0423405 -9.44798e-06 0)
(0.0423399 -1.03721e-05 0)
(0.0423394 -1.12671e-05 0)
(0.0423389 -1.21408e-05 0)
(0.0423385 -1.29753e-05 0)
(0.0423382 -1.3779e-05 0)
(0.042338 -1.45403e-05 0)
(0.0423437 -6.81365e-07 0)
(0.0423416 -1.61871e-06 0)
(0.0423415 -2.63239e-06 0)
(0.0423412 -3.65532e-06 0)
(0.0423409 -4.67637e-06 0)
(0.0423406 -5.69007e-06 0)
(0.0423401 -6.69583e-06 0)
(0.0423396 -7.68705e-06 0)
(0.0423391 -8.6666e-06 0)
(0.0423386 -9.62445e-06 0)
(0.042338 -1.05681e-05 0)
(0.0423375 -1.14803e-05 0)
(0.042337 -1.23736e-05 0)
(0.0423366 -1.32238e-05 0)
(0.0423363 -1.40461e-05 0)
(0.0423361 -1.48216e-05 0)
(0.0423417 -6.93537e-07 0)
(0.0423396 -1.64713e-06 0)
(0.0423394 -2.67883e-06 0)
(0.0423392 -3.72018e-06 0)
(0.0423389 -4.76001e-06 0)
(0.0423385 -5.79288e-06 0)
(0.0423381 -6.81819e-06 0)
(0.0423376 -7.82927e-06 0)
(0.0423371 -8.8293e-06 0)
(0.0423366 -9.80727e-06 0)
(0.0423361 -1.07724e-05 0)
(0.0423356 -1.17037e-05 0)
(0.0423351 -1.26188e-05 0)
(0.0423347 -1.34854e-05 0)
(0.0423344 -1.43268e-05 0)
(0.0423342 -1.51147e-05 0)
(0.0423396 -7.05713e-07 0)
(0.0423375 -1.67426e-06 0)
(0.0423373 -2.72321e-06 0)
(0.0423371 -3.78234e-06 0)
(0.0423368 -4.84041e-06 0)
(0.0423365 -5.89215e-06 0)
(0.0423361 -6.93683e-06 0)
(0.0423356 -7.96803e-06 0)
(0.0423351 -8.98883e-06 0)
(0.0423346 -9.98782e-06 0)
(0.0423341 -1.09753e-05 0)
(0.0423336 -1.19267e-05 0)
(0.0423332 -1.28647e-05 0)
(0.0423328 -1.37474e-05 0)
(0.0423325 -1.46081e-05 0)
(0.0423324 -1.54065e-05 0)
(0.0423375 -7.17332e-07 0)
(0.0423353 -1.69857e-06 0)
(0.0423352 -2.76305e-06 0)
(0.042335 -3.83831e-06 0)
(0.0423347 -4.913e-06 0)
(0.0423344 -5.98227e-06 0)
(0.042334 -7.04499e-06 0)
(0.0423335 -8.09545e-06 0)
(0.0423331 -9.13609e-06 0)
(0.0423326 -1.01559e-05 0)
(0.0423321 -1.11653e-05 0)
(0.0423317 -1.21373e-05 0)
(0.0423312 -1.30984e-05 0)
(0.0423309 -1.39967e-05 0)
(0.0423307 -1.48778e-05 0)
(0.0423305 -1.56834e-05 0)
(0.0423354 -7.27741e-07 0)
(0.0423331 -1.71837e-06 0)
(0.042333 -2.79556e-06 0)
(0.0423328 -3.88415e-06 0)
(0.0423325 -4.97269e-06 0)
(0.0423322 -6.05684e-06 0)
(0.0423318 -7.13495e-06 0)
(0.0423314 -8.20236e-06 0)
(0.042331 -9.26042e-06 0)
(0.0423305 -1.02995e-05 0)
(0.0423301 -1.13289e-05 0)
(0.0423297 -1.23212e-05 0)
(0.0423293 -1.33048e-05 0)
(0.042329 -1.42186e-05 0)
(0.0423288 -1.51223e-05 0)
(0.0423287 -1.59317e-05 0)
(0.0423332 -7.36217e-07 0)
(0.0423309 -1.73185e-06 0)
(0.0423308 -2.81776e-06 0)
(0.0423306 -3.91565e-06 0)
(0.0423303 -5.01394e-06 0)
(0.04233 -6.10897e-06 0)
(0.0423297 -7.19836e-06 0)
(0.0423293 -8.27886e-06 0)
(0.0423289 -9.35036e-06 0)
(0.0423285 -1.04056e-05 0)
(0.042328 -1.14515e-05 0)
(0.0423277 -1.24626e-05 0)
(0.0423273 -1.34662e-05 0)
(0.0423271 -1.4397e-05 0)
(0.0423269 -1.53238e-05 0)
(0.0423269 -1.61317e-05 0)
(0.042331 -7.41982e-07 0)
(0.0423287 -1.73734e-06 0)
(0.0423286 -2.82693e-06 0)
(0.0423284 -3.92899e-06 0)
(0.0423281 -5.03184e-06 0)
(0.0423278 -6.1326e-06 0)
(0.0423275 -7.22811e-06 0)
(0.0423271 -8.31687e-06 0)
(0.0423267 -9.39686e-06 0)
(0.0423263 -1.04632e-05 0)
(0.042326 -1.15197e-05 0)
(0.0423256 -1.25451e-05 0)
(0.0423253 -1.35618e-05 0)
(0.0423252 -1.45076e-05 0)
(0.0423251 -1.54479e-05 0)
(0.0423251 -1.6245e-05 0)
(0.0423287 -7.44323e-07 0)
(0.0423264 -1.73395e-06 0)
(0.0423263 -2.82158e-06 0)
(0.0423261 -3.922e-06 0)
(0.0423259 -5.0234e-06 0)
(0.0423256 -6.12367e-06 0)
(0.0423253 -7.21865e-06 0)
(0.0423249 -8.30879e-06 0)
(0.0423246 -9.38937e-06 0)
(0.0423242 -1.04575e-05 0)
(0.0423239 -1.15131e-05 0)
(0.0423236 -1.25402e-05 0)
(0.0423233 -1.35545e-05 0)
(0.0423232 -1.45008e-05 0)
(0.0423233 -1.54353e-05 0)
(0.0423235 -1.62149e-05 0)
(0.0423265 -7.42858e-07 0)
(0.0423241 -1.7197e-06 0)
(0.042324 -2.79831e-06 0)
(0.0423238 -3.88947e-06 0)
(0.0423236 -4.98114e-06 0)
(0.0423234 -6.07156e-06 0)
(0.0423231 -7.15536e-06 0)
(0.0423227 -8.23407e-06 0)
(0.0423224 -9.30052e-06 0)
(0.0423221 -1.03545e-05 0)
(0.0423218 -1.13912e-05 0)
(0.0423215 -1.24008e-05 0)
(0.0423214 -1.33907e-05 0)
(0.0423214 -1.43168e-05 0)
(0.0423215 -1.52245e-05 0)
(0.0423219 -1.59822e-05 0)
(0.0423242 -7.36746e-07 0)
(0.0423219 -1.68883e-06 0)
(0.0423218 -2.74757e-06 0)
(0.0423216 -3.81786e-06 0)
(0.0423214 -4.88722e-06 0)
(0.0423211 -5.95399e-06 0)
(0.0423209 -7.01153e-06 0)
(0.0423206 -8.06204e-06 0)
(0.0423203 -9.09637e-06 0)
(0.04232 -1.0117e-05 0)
(0.0423197 -1.11148e-05 0)
(0.0423195 -1.20857e-05 0)
(0.0423195 -1.3029e-05 0)
(0.0423196 -1.39138e-05 0)
(0.0423198 -1.4772e-05 0)
(0.0423203 -1.54963e-05 0)
(0.0423219 -7.23539e-07 0)
(0.0423196 -1.6354e-06 0)
(0.0423195 -2.65979e-06 0)
(0.0423194 -3.69417e-06 0)
(0.0423192 -4.72559e-06 0)
(0.042319 -5.7524e-06 0)
(0.0423187 -6.76684e-06 0)
(0.0423185 -7.77173e-06 0)
(0.0423182 -8.75616e-06 0)
(0.042318 -9.7251e-06 0)
(0.0423178 -1.06655e-05 0)
(0.0423177 -1.15796e-05 0)
(0.0423177 -1.24588e-05 0)
(0.0423179 -1.32874e-05 0)
(0.0423183 -1.40824e-05 0)
(0.0423189 -1.47693e-05 0)
(0.0423197 -7.00678e-07 0)
(0.0423175 -1.5562e-06 0)
(0.0423174 -2.53004e-06 0)
(0.0423173 -3.51207e-06 0)
(0.0423171 -4.48914e-06 0)
(0.0423169 -5.45955e-06 0)
(0.0423167 -6.4147e-06 0)
(0.0423165 -7.35796e-06 0)
(0.0423163 -8.27692e-06 0)
(0.0423161 -9.17889e-06 0)
(0.042316 -1.00477e-05 0)
(0.0423159 -1.08918e-05 0)
(0.042316 -1.1696e-05 0)
(0.0423163 -1.24606e-05 0)
(0.0423169 -1.31883e-05 0)
(0.0423177 -1.38404e-05 0)
(0.0423175 -6.66791e-07 0)
(0.0423155 -1.4522e-06 0)
(0.0423154 -2.36006e-06 0)
(0.0423153 -3.27434e-06 0)
(0.0423152 -4.18203e-06 0)
(0.042315 -5.08144e-06 0)
(0.0423148 -5.96348e-06 0)
(0.0423147 -6.83198e-06 0)
(0.0423145 -7.67347e-06 0)
(0.0423144 -8.49743e-06 0)
(0.0423143 -9.28518e-06 0)
(0.0423144 -1.00515e-05 0)
(0.0423145 -1.07754e-05 0)
(0.0423149 -1.14733e-05 0)
(0.0423156 -1.21336e-05 0)
(0.0423165 -1.27537e-05 0)
(0.0423155 -6.22276e-07 0)
(0.0423136 -1.32863e-06 0)
(0.0423136 -2.15834e-06 0)
(0.0423135 -2.99276e-06 0)
(0.0423134 -3.81935e-06 0)
(0.0423132 -4.63651e-06 0)
(0.0423131 -5.43504e-06 0)
(0.042313 -6.21923e-06 0)
(0.0423129 -6.97511e-06 0)
(0.0423128 -7.71408e-06 0)
(0.0423128 -8.41577e-06 0)
(0.042313 -9.10061e-06 0)
(0.0423132 -9.74295e-06 0)
(0.0423137 -1.03739e-05 0)
(0.0423144 -1.09688e-05 0)
(0.0423154 -1.15582e-05 0)
(0.0423137 -5.69364e-07 0)
(0.042312 -1.19357e-06 0)
(0.042312 -1.93796e-06 0)
(0.0423119 -2.68522e-06 0)
(0.0423118 -3.42361e-06 0)
(0.0423117 -4.15162e-06 0)
(0.0423116 -4.86035e-06 0)
(0.0423115 -5.55455e-06 0)
(0.0423115 -6.22036e-06 0)
(0.0423115 -6.87082e-06 0)
(0.0423116 -7.48466e-06 0)
(0.0423117 -8.08703e-06 0)
(0.0423121 -8.64894e-06 0)
(0.0423126 -9.21373e-06 0)
(0.0423134 -9.74561e-06 0)
(0.0423144 -1.03046e-05 0)
(0.042312 -5.11527e-07 0)
(0.0423106 -1.05585e-06 0)
(0.0423105 -1.71321e-06 0)
(0.0423105 -2.37141e-06 0)
(0.0423104 -3.0197e-06 0)
(0.0423104 -3.65659e-06 0)
(0.0423103 -4.27378e-06 0)
(0.0423103 -4.87639e-06 0)
(0.0423103 -5.45124e-06 0)
(0.0423103 -6.01262e-06 0)
(0.0423105 -6.53927e-06 0)
(0.0423107 -7.05996e-06 0)
(0.0423111 -7.54381e-06 0)
(0.0423117 -8.04358e-06 0)
(0.0423125 -8.51473e-06 0)
(0.0423135 -9.04176e-06 0)
(0.0423106 -4.52554e-07 0)
(0.0423093 -9.22932e-07 0)
(0.0423093 -1.49633e-06 0)
(0.0423093 -2.06859e-06 0)
(0.0423093 -2.62987e-06 0)
(0.0423092 -3.17861e-06 0)
(0.0423092 -3.70722e-06 0)
(0.0423092 -4.22102e-06 0)
(0.0423093 -4.70778e-06 0)
(0.0423094 -5.18249e-06 0)
(0.0423096 -5.62473e-06 0)
(0.0423099 -6.06583e-06 0)
(0.0423103 -6.4747e-06 0)
(0.0423109 -6.91049e-06 0)
(0.0423117 -7.32299e-06 0)
(0.0423127 -7.81557e-06 0)
(0.0423094 -3.95642e-07 0)
(0.0423083 -7.99621e-07 0)
(0.0423083 -1.29546e-06 0)
(0.0423083 -1.78861e-06 0)
(0.0423083 -2.27e-06 0)
(0.0423083 -2.73784e-06 0)
(0.0423083 -3.18519e-06 0)
(0.0423084 -3.61731e-06 0)
(0.0423085 -4.02295e-06 0)
(0.0423086 -4.41694e-06 0)
(0.0423089 -4.78025e-06 0)
(0.0423092 -5.14544e-06 0)
(0.0423096 -5.48299e-06 0)
(0.0423102 -5.85568e-06 0)
(0.042311 -6.21126e-06 0)
(0.042312 -6.66585e-06 0)
(0.0423083 -3.42838e-07 0)
(0.0423075 -6.88003e-07 0)
(0.0423075 -1.11426e-06 0)
(0.0423075 -1.53713e-06 0)
(0.0423075 -1.9482e-06 0)
(0.0423076 -2.34524e-06 0)
(0.0423076 -2.72187e-06 0)
(0.0423077 -3.08304e-06 0)
(0.0423079 -3.41838e-06 0)
(0.0423081 -3.7417e-06 0)
(0.0423083 -4.03538e-06 0)
(0.0423087 -4.33133e-06 0)
(0.0423091 -4.60283e-06 0)
(0.0423097 -4.91366e-06 0)
(0.0423104 -5.21356e-06 0)
(0.0423113 -5.62519e-06 0)
(0.0423075 -2.95013e-07 0)
(0.0423068 -5.88534e-07 0)
(0.0423069 -9.5336e-07 0)
(0.0423069 -1.31499e-06 0)
(0.0423069 -1.66583e-06 0)
(0.042307 -2.00326e-06 0)
(0.0423071 -2.32119e-06 0)
(0.0423072 -2.6241e-06 0)
(0.0423074 -2.90225e-06 0)
(0.0423076 -3.16799e-06 0)
(0.0423079 -3.40579e-06 0)
(0.0423083 -3.64452e-06 0)
(0.0423087 -3.85979e-06 0)
(0.0423093 -4.11231e-06 0)
(0.0423099 -4.35758e-06 0)