/*--------------------------------*- C++ -*----------------------------------*\
| =========                 |                                                 |
| \\      /  F ield         | foam-extend: Open Source CFD                    |
|  \\    /   O peration     | Version:     4.1-20200408                       |
|   \\  /    A nd           | Web:         http://www.foam-extend.org         |
|    \\/     M anipulation  |                                                 |
\*---------------------------------------------------------------------------*/
FoamFile
{
    version     2.0;
    format      ascii;
    class       volScalarField;
    location    "0.0775000";
    object      ccz;
}
// * * * * * * * * * * * * * * * * * * * * * * * * * * * * * * * * * * * * * //

dimensions      [0 1 0 0 0 0 0];

internalField   nonuniform List<scalar> 
1952
(
1.11092e-12
4.00098e-12
-2.97976e-12
-1.25e-11
6.82793e-12
2.5e-11
-5.71198e-13
-3.77533e-11
9.10617e-13
2.45869e-11
-1.26888e-11
-2.49999e-11
-1.23406e-11
0
-7.6631e-22
1.51449e-12
1.11115e-12
4.00015e-12
-2.97631e-12
-1.25e-11
6.81855e-12
1.21793e-11
-1.39184e-22
-2.54908e-11
8.78448e-13
2.46025e-11
-2.53639e-11
-5e-11
-2.46903e-11
5.72759e-22
-5.35493e-22
1.51441e-12
2.22221e-12
4.00004e-12
-4.28584e-12
-1.5e-11
5.60639e-12
1.21793e-11
5.56669e-22
-1.27454e-11
4.39224e-13
1.23013e-11
-1.26811e-11
-2.5e-11
-1.23452e-11
1.1455e-21
4.46199e-22
3.18108e-12
-2.7779e-13
4.16672e-12
-1.78584e-12
-1.25e-11
-6.06051e-12
1.28208e-11
1.22223e-11
6.54667e-22
1.272e-11
1.23012e-11
-4.8285e-22
-1.26671e-11
-1.23452e-11
1.26442e-11
-2.69831e-13
1.51441e-12
-1.38889e-12
4.16672e-12
-4.76302e-13
-1e-11
-4.84824e-12
1.28208e-11
-5.56042e-13
-2.5e-11
1.31576e-11
2.46017e-11
1.02607e-21
-1.26671e-11
-1.23448e-11
1.26443e-11
-2.68999e-13
-1.52256e-13
1.11107e-12
5.33338e-12
-4.76302e-13
-1e-11
-4.84857e-12
0
-1.27784e-11
-2.5e-11
1.31588e-11
2.46025e-11
4.22457e-22
-3.32785e-22
-1.33403e-21
1.9092e-22
3.56961e-22
1.51441e-12
2.22229e-12
5.33354e-12
-4.76302e-13
-1e-11
-4.8484e-12
0
-1.85543e-22
-1.27453e-11
4.4006e-13
1.23017e-11
1.93144e-21
-1.165e-21
2.05256e-22
-2.86349e-22
1.78481e-22
3.18108e-12
2.22221e-12
5.33337e-12
-1.78584e-12
-1.25e-11
6.81848e-12
2.49999e-11
1.22224e-11
-2.54916e-11
-2.45616e-11
4.63045e-22
-5.43171e-22
1.66429e-22
-2.05239e-22
7.63594e-22
-1.26353e-11
3.18108e-12
2.22221e-12
5.33321e-12
-3.09579e-12
-1.5e-11
5.60645e-12
2.49999e-11
1.2222e-11
-2.54907e-11
-2.45608e-11
5.95413e-22
5.43172e-22
-1.26671e-11
3.08815e-13
2.49999e-11
-2.69849e-13
3.18108e-12
2.22213e-12
5.33337e-12
-1.78547e-12
-1.25e-11
6.81916e-12
1.21796e-11
-7.42124e-22
-2.54899e-11
-2.45599e-11
6.61441e-22
-3.62117e-22
-1.26671e-11
3.10483e-13
2.5e-11
1.23651e-11
3.18108e-12
8.3332e-13
4.16672e-12
-4.76302e-13
-1e-11
8.03008e-12
2.5e-11
1.2222e-11
-2.54907e-11
-2.45608e-11
-5.95419e-22
-5.43183e-22
4.99199e-22
7.1834e-22
-9.54525e-23
-8.03098e-22
3.18108e-12
-5.55415e-13
1.66672e-12
-2.97629e-12
-1.25e-11
-6.0605e-12
2.56423e-11
2.44448e-11
-1.27458e-11
-1.22808e-11
1.32317e-22
-1.26815e-11
-1.23328e-11
-4.10481e-22
1.26438e-11
1.2365e-11
3.18108e-12
-5.55576e-13
3.33375e-13
-5.4763e-12
-1.5e-11
5.60638e-12
2.5e-11
-5.56957e-13
-1.2255e-11
2.1949e-22
-1.98437e-22
-2.53631e-11
-2.46658e-11
1.26544e-11
2.5e-11
1.23651e-11
3.18108e-12
8.33316e-13
2.83337e-12
-2.9763e-12
-1.25e-11
6.81917e-12
2.5e-11
-5.5616e-13
-1.22546e-11
1.46342e-22
-9.92402e-22
-2.53631e-11
-3.73328e-11
3.10504e-13
1.23562e-11
-1.60658e-21
3.18108e-12
2.22221e-12
5.33337e-12
-1.78621e-12
-1.12037e-11
8.03059e-12
2.5e-11
1.2222e-11
-1.27458e-11
-1.22808e-11
-2.64645e-22
-2.53631e-11
-5e-11
-2.46903e-11
1.26446e-11
1.23655e-11
3.18108e-12
-2.77785e-13
4.16693e-12
-3.09496e-12
-1.24073e-11
8.03002e-12
1.21793e-11
-2.3195e-22
-2.54908e-11
-1.184e-11
1.23012e-11
-2.53631e-11
-5e-11
-2.46904e-11
2.52876e-11
2.47293e-11
1.51442e-12
-2.7779e-13
4.16651e-12
-3.09538e-12
-1.37037e-11
6.81911e-12
1.21793e-11
-6.95713e-22
-1.27454e-11
1.31576e-11
2.46025e-11
-2.53631e-11
-5e-11
-2.46903e-11
1.26446e-11
1.23655e-11
1.51441e-12
2.22221e-12
5.33338e-12
-3.09579e-12
-1.37037e-11
6.81854e-12
1.21793e-11
1.85542e-22
-1.2745e-11
4.4006e-13
1.23013e-11
-1.26816e-11
-3.76671e-11
-2.46903e-11
-9.54577e-23
-1.78493e-22
3.18108e-12
1.11111e-12
5.33337e-12
-3.09496e-12
-1.37036e-11
-6.06051e-12
-1.60624e-22
-1.02049e-21
-1.27458e-11
4.39206e-13
1.23012e-11
9.05278e-22
-1.26672e-11
-1.23452e-11
-1.04993e-21
-6.24674e-22
1.51442e-12
-1.38889e-12
4.16692e-12
-1.78584e-12
-1.37963e-11
-7.27285e-12
1.28212e-11
1.22219e-11
-1.27454e-11
4.38493e-13
1.23012e-11
-1.26819e-11
-1.23329e-11
3.07885e-22
1.05004e-21
2.76646e-21
-1.52253e-13
-2.77789e-13
4.16651e-12
-4.76633e-13
-1.12963e-11
6.81854e-12
3.78207e-11
2.4444e-11
-1.27454e-11
4.39208e-13
1.23008e-11
-1.26811e-11
-1.23329e-11
1.26552e-11
1.23562e-11
1.78482e-22
1.51441e-12
8.33319e-13
2.83338e-12
-1.66647e-12
-1e-11
2.09106e-11
3.71792e-11
1.2222e-11
2.86345e-22
1.27196e-11
1.23013e-11
1.14672e-21
-1.26671e-11
3.0957e-13
1.23558e-11
5.35446e-22
3.18108e-12
8.33318e-13
2.83337e-12
-2.9763e-12
-1.12037e-11
8.0306e-12
1.21793e-11
9.27651e-23
-1.27454e-11
-1.22799e-11
-5.29157e-22
-7.24255e-22
-1.26671e-11
-1.23452e-11
1.26446e-11
1.23651e-11
3.18114e-12
2.22221e-12
5.33338e-12
-1.78584e-12
-1.12037e-11
-4.8484e-12
1.12439e-21
-5.10208e-22
-2.54907e-11
-1.18412e-11
1.23012e-11
4.82788e-22
-1.26671e-11
-1.23452e-11
2.52876e-11
2.47302e-11
3.18108e-12
1.11107e-12
5.33338e-12
-1.78584e-12
-1.12037e-11
-4.8484e-12
9.63764e-22
8.34895e-22
-1.27453e-11
1.31588e-11
2.46017e-11
-3.62093e-22
-1.26671e-11
3.09543e-13
3.76446e-11
2.47302e-11
1.51438e-12
-1.38885e-12
2.83337e-12
-2.97663e-12
-1.12037e-11
-4.8484e-12
6.95984e-22
3.24649e-22
3.27187e-22
1.27196e-11
2.5e-11
1.2318e-11
-2.21851e-22
1.26548e-11
2.50001e-11
1.23651e-11
-1.52252e-13
-1.38889e-12
1.50003e-12
-2.85723e-12
-1e-11
-4.8484e-12
1.28211e-11
1.22223e-11
-1.27454e-11
4.40046e-13
2.5e-11
1.23185e-11
-1.26671e-11
-1.23451e-11
1.04982e-21
-1.42766e-21
-1.52263e-13
1.11111e-12
4.00016e-12
-1.66648e-12
-1.12963e-11
6.81844e-12
2.5e-11
1.22215e-11
-1.27454e-11
4.38382e-13
2.5e-11
1.23184e-11
-1.26671e-11
-1.23452e-11
1.26442e-11
1.23651e-11
1.51441e-12
2.22221e-12
4.00004e-12
-2.9763e-12
-1.37964e-11
5.6064e-12
1.21793e-11
1.85516e-22
-1.27458e-11
4.39215e-13
2.5e-11
1.23185e-11
-6.65566e-22
2.05191e-21
1.26442e-11
1.23651e-11
3.18107e-12
-2.77782e-13
1.50003e-12
-5.4763e-12
-1.5e-11
5.60643e-12
1.21792e-11
4.63794e-23
-2.54899e-11
8.80098e-13
2.46025e-11
1.2069e-22
-1.26675e-11
-1.23456e-11
1.26441e-11
1.23651e-11
1.51441e-12
-1.38894e-12
2.83321e-12
-2.97665e-12
-1.25e-11
6.81856e-12
1.21792e-11
-7.4216e-22
-2.54916e-11
-1.18412e-11
1.23013e-11
-1.26815e-11
-2.5e-11
3.09518e-13
3.76446e-11
1.20953e-11
-1.5226e-13
1.1111e-12
5.33338e-12
-1.78584e-12
-1.12037e-11
8.03114e-12
1.21791e-11
-4.63762e-23
-2.54899e-11
-2.45608e-11
-2.64597e-22
-1.26816e-11
-1.23329e-11
1.26553e-11
2.50001e-11
-1.29059e-11
1.5144e-12
1.11111e-12
5.33338e-12
-1.78585e-12
-1.25e-11
6.8186e-12
2.5e-11
1.22219e-11
-2.54916e-11
-2.45608e-11
-5.29202e-22
2.29339e-21
0
1.26544e-11
1.23554e-11
-1.2635e-11
1.51442e-12
1.11113e-12
4.00017e-12
-1.66647e-12
-1.12964e-11
-6.06072e-12
1.28213e-11
1.2222e-11
-2.54908e-11
-2.45608e-11
3.96827e-22
3.62052e-22
1.33125e-21
1.26553e-11
2.5e-11
1.23651e-11
1.51442e-12
1.11111e-12
3.99996e-12
-2.97654e-12
-1.25e-11
6.81859e-12
1.21794e-11
-1.39167e-22
-1.27455e-11
-1.22802e-11
6.61534e-23
-3.01754e-22
9.98374e-22
0
2.52887e-11
2.473e-11
1.5144e-12
-2.77783e-13
4.16675e-12
-1.78587e-12
-1.37963e-11
1.84854e-11
2.43585e-11
9.27699e-23
-1.27453e-11
4.39327e-13
1.23011e-11
-1.26816e-11
-1.23327e-11
1.2655e-11
3.76443e-11
2.47298e-11
1.51437e-12
-2.77787e-13
2.8334e-12
-1.66668e-12
-1.25926e-11
1.84854e-11
2.43587e-11
-1.27779e-11
-3.77453e-11
-1.18409e-11
1.23013e-11
-1.26818e-11
-1.23328e-11
1.26551e-11
2.50001e-11
1.2365e-11
1.51445e-12
-3.08803e-23
2.66667e-12
-4.16674e-12
-1.37963e-11
5.60676e-12
2.5e-11
-5.56484e-13
-2.50005e-11
4.38968e-13
1.2301e-11
-1.26816e-11
-1.23326e-11
-4.10408e-22
-9.54297e-22
-1.26351e-11
-1.52264e-13
6.3879e-23
2.66668e-12
-4.16678e-12
-1.25001e-11
6.81794e-12
2.5e-11
1.22223e-11
-7.36454e-22
1.27199e-11
1.23013e-11
-2.53633e-11
-2.46653e-11
-1.64164e-21
-1.52688e-21
-1.26354e-11
-1.52264e-13
1.11105e-12
3.99995e-12
-2.97625e-12
-1.12036e-11
8.03098e-12
1.21798e-11
-4.64003e-22
-1.27449e-11
4.39254e-13
1.23009e-11
-1.26819e-11
-1.23329e-11
3.07834e-22
1.26445e-11
1.23645e-11
1.51431e-12
1.11118e-12
4.0001e-12
-4.28565e-12
-1.24074e-11
-4.84844e-12
4.28538e-22
0
-2.54906e-11
-1.18408e-11
1.23016e-11
-1.26813e-11
-1.23324e-11
1.2655e-11
2.5e-11
1.23647e-11
1.51451e-12
-1.38879e-12
2.83331e-12
-4.28582e-12
-1.24074e-11
-4.84847e-12
-2.41078e-22
-5.10495e-22
-1.27459e-11
-1.22811e-11
1.85295e-21
-2.53631e-11
-2.46654e-11
1.26554e-11
1.23555e-11
-2.67638e-22
-1.52266e-13
-1.66675e-12
3.00002e-12
-3.09522e-12
-1.37036e-11
-6.06053e-12
1.28195e-11
1.22213e-11
-5.73074e-22
-4.39265e-22
1.98573e-21
-1.26821e-11
-1.23332e-11
-1.02644e-22
1.26446e-11
1.23639e-11
1.51425e-12
-1.66654e-12
1.66678e-12
-4.28551e-12
-1.37038e-11
-6.06076e-12
1.28216e-11
1.22234e-11
-1.2744e-11
4.38724e-13
1.23006e-11
-6.03966e-23
0
5.1332e-22
2.52897e-11
2.47277e-11
1.51456e-12
-1.66677e-12
1.66648e-12
-4.28576e-12
-1.24074e-11
8.02878e-12
2.49974e-11
1.22211e-11
-1.27461e-11
1.31564e-11
2.46032e-11
7.24944e-22
6.10746e-22
0
1.26457e-11
1.2365e-11
1.51421e-12
-2.77801e-13
2.83332e-12
-4.28546e-12
-1.37036e-11
6.81946e-12
2.50029e-11
1.22238e-11
-1.27434e-11
1.31586e-11
2.46035e-11
-1.268e-11
-1.2332e-11
-1.33566e-21
1.9113e-22
-1.16123e-21
1.51459e-12
1.11098e-12
3.9998e-12
-4.28568e-12
-1.37039e-11
-6.06088e-12
1.28187e-11
1.22211e-11
-2.54894e-11
-1.18415e-11
1.23032e-11
-1.26824e-11
-2.5e-11
3.0918e-13
2.49976e-11
1.23637e-11
1.51419e-12
1.11126e-12
5.33327e-12
-3.09503e-12
-1.24075e-11
-4.84862e-12
2.56402e-11
2.44453e-11
-1.27462e-11
4.3473e-13
1.23007e-11
-1.20954e-22
-2.53329e-11
-1.20353e-11
2.50022e-11
1.2366e-11
1.5146e-12
1.111e-12
5.33327e-12
-1.78564e-12
-1.25e-11
6.81622e-12
2.50001e-11
1.22242e-11
-1.2743e-11
4.40232e-13
1.23036e-11
1.14951e-21
-1.26674e-11
3.05917e-13
1.23552e-11
-1.07408e-21
1.51419e-12
8.33514e-13
4.16668e-12
-4.75927e-13
-1.25925e-11
1.84836e-11
3.71787e-11
1.22216e-11
-2.54887e-11
-1.18459e-11
1.23011e-11
-1.81567e-22
-1.26647e-11
1.29628e-11
3.73559e-11
-2.67706e-13
3.18105e-12
-1.66653e-12
2.99985e-12
-1.78531e-12
-1.25e-11
1.96955e-11
5e-11
2.4446e-11
-2.54884e-11
8.73313e-13
2.46053e-11
6.05437e-22
-2.53311e-11
-1.20391e-11
2.49999e-11
-2.65134e-13
1.51452e-12
-2.77866e-13
4.16647e-12
-1.78544e-12
-1.12038e-11
8.03013e-12
2.50014e-11
1.22239e-11
-2.54882e-11
-1.18446e-11
1.23036e-11
-1.26789e-11
-3.76643e-11
-1.20435e-11
1.23606e-11
1.3458e-21
1.5143e-12
1.11114e-12
5.33321e-12
-4.7584e-13
-1e-11
-4.84875e-12
1.28195e-11
1.2223e-11
-2.5488e-11
-1.18463e-11
1.23031e-11
-1.26788e-11
-2.49983e-11
3.01371e-13
1.2358e-11
-1.26329e-11
1.5144e-12
1.39585e-22
5.3332e-12
-1.78534e-12
-1.25001e-11
-6.06101e-12
1.2819e-11
1.22226e-11
-2.54874e-11
-1.18489e-11
1.2302e-11
-1.26806e-11
-1.234e-11
-1.03215e-22
1.26424e-11
-2.42143e-13
-1.52277e-13
-2.77756e-13
4.16635e-12
-1.78507e-12
-1.37961e-11
5.60617e-12
2.50041e-11
1.22262e-11
-1.27401e-11
-1.22797e-11
3.3158e-22
-2.53549e-11
-3.73433e-11
2.96894e-13
3.76427e-11
2.47495e-11
1.51453e-12
8.33725e-13
4.16659e-12
-4.75477e-13
-1.12958e-11
1.96935e-11
3.71769e-11
1.22196e-11
-4.09382e-23
1.27224e-11
1.23117e-11
-1.26696e-11
-3.76541e-11
5.9094e-13
3.73564e-11
1.2368e-11
3.18102e-12
1.11073e-12
3.99914e-12
-2.97623e-12
-1.12045e-11
2.0904e-11
3.71892e-11
1.22325e-11
-1.27503e-11
1.31387e-11
2.46113e-11
4.84714e-22
-2.53223e-11
-1.20667e-11
1.23557e-11
-6.31082e-22
1.51372e-12
1.11191e-12
4.0005e-12
-4.2833e-12
-1.24078e-11
8.01694e-12
2.49802e-11
1.22154e-11
-1.27307e-11
4.30346e-13
1.22951e-11
7.27167e-22
-1.26501e-11
-1.2342e-11
1.26457e-11
-2.50202e-13
1.51541e-12
1.11016e-12
3.99829e-12
-2.97444e-12
-1.12028e-11
8.03909e-12
1.2195e-11
-1.85458e-22
1.22787e-22
7.32766e-23
1.98988e-22
1.3332e-21
-1.26736e-11
-1.23631e-11
1.26265e-11
-2.51936e-13
1.51279e-12
-1.39047e-12
1.49812e-12
-2.85592e-12
-1.12976e-11
6.79706e-12
1.21683e-11
-2.78199e-22
-1.27561e-11
4.31222e-13
2.5028e-11
1.23368e-11
-1.26488e-11
-1.2339e-11
1.26486e-11
1.23819e-11
-1.52291e-13
-2.77761e-12
1.66781e-12
-2.97474e-12
-1.37977e-11
-7.27439e-12
1.60442e-22
-5.56411e-22
-1.27255e-11
4.30715e-13
2.49701e-11
1.23087e-11
8.36875e-22
-5.16997e-22
1.26278e-11
1.23616e-11
-1.52292e-13
-1.38665e-12
4.16783e-12
-1.78225e-12
-1.37943e-11
-7.27421e-12
5.88414e-22
6.95648e-22
-1.27587e-11
4.32511e-13
1.23203e-11
3.03069e-22
-1.26773e-11
3.02107e-13
2.50226e-11
1.23789e-11
-1.52291e-13
-1.39105e-12
2.82899e-12
-1.66751e-12
-1.12942e-11
-6.05985e-12
1.28365e-11
1.22418e-11
-1.27252e-11
1.31654e-11
2.4609e-11
-6.06122e-22
-1.26498e-11
3.03909e-13
3.76305e-11
1.20917e-11
-1.52291e-13
-1.38669e-12
1.50156e-12
-2.85653e-12
-1e-11
8.04664e-12
3.78358e-11
2.44486e-11
-2.45745e-22
2.54339e-11
2.46078e-11
1.09112e-21
1.11601e-21
2.06743e-22
1.26319e-11
-2.69481e-13
-1.5229e-13
-1.39085e-12
2.83335e-12
-1.66444e-12
-1e-11
2.09061e-11
5e-11
2.44478e-11
-1.27595e-11
1.31374e-11
3.73185e-11
1.23343e-11
-1.26795e-11
-1.2358e-11
0
1.80202e-22
-1.5229e-13
-2.74548e-13
4.16794e-12
-4.75676e-13
-7.40431e-12
2.33342e-11
3.71649e-11
1.22087e-11
-1.27285e-11
1.31682e-11
3.72884e-11
1.2306e-11
-1.26537e-11
3.35747e-13
2.50221e-11
1.23713e-11
1.51648e-12
-2.80449e-13
2.83044e-12
-2.97851e-12
-6.0202e-12
1.28639e-11
2.50007e-11
1.22365e-11
-1.27578e-11
1.31422e-11
2.46045e-11
0
-1.26799e-11
1.29588e-11
3.73416e-11
1.23501e-11
1.51256e-12
-1.38761e-12
2.83544e-12
-2.97345e-12
-6.01774e-12
4.43367e-22
1.28077e-11
1.22116e-11
-1.27323e-11
1.31677e-11
2.46035e-11
-1.26933e-11
-2.49997e-11
3.15385e-13
2.50002e-11
1.2368e-11
-1.5229e-13
1.11196e-12
5.33316e-12
-4.75738e-13
-4.8151e-12
3.16863e-23
1.28296e-11
1.22325e-11
-4.92225e-22
2.54379e-11
2.46029e-11
-1.2672e-11
-1.23212e-11
-1.03234e-22
1.26402e-11
1.23484e-11
1.51559e-12
2.22228e-12
5.33315e-12
-4.75704e-13
-4.81508e-12
-5.70684e-22
1.28119e-11
1.22154e-11
-1.27525e-11
4.21975e-13
1.22932e-11
2.42546e-22
-1.11556e-21
-1.03206e-21
0
1.34688e-21
3.18102e-12
2.22228e-12
5.33316e-12
-4.75764e-13
-4.8151e-12
3.17226e-22
2.14753e-22
-4.65287e-22
-2.5489e-11
-1.18367e-11
1.23075e-11
1.45556e-21
-5.57759e-22
1.65093e-21
-1.05648e-21
3.58969e-22
3.18102e-12
8.32824e-13
4.16604e-12
-4.75779e-13
-4.81508e-12
1.2883e-11
2.50091e-11
1.22274e-11
-2.5489e-11
-1.18474e-11
1.22967e-11
-1.26876e-11
-1.23356e-11
9.2856e-22
1.26576e-11
1.2365e-11
3.18102e-12
8.33861e-13
2.83318e-12
-1.6668e-12
-4.81496e-12
1.28743e-11
2.49926e-11
1.22193e-11
-2.54895e-11
-2.45612e-11
0
-2.5365e-11
-2.46619e-11
6.19015e-22
1.26436e-11
1.23512e-11
3.18103e-12
8.32974e-13
2.83333e-12
-2.97611e-12
-6.01894e-12
-5.39773e-22
1.28237e-11
1.22252e-11
-2.54905e-11
-2.45606e-11
-1.99307e-22
-1.268e-11
-2.5e-11
3.13862e-13
1.23559e-11
-1.16597e-21
3.18104e-12
-2.77707e-13
4.16689e-12
-1.78536e-12
-1.8984e-11
7.5771e-13
2.49999e-11
1.22196e-11
-1.2743e-11
4.43834e-13
2.50038e-11
1.23195e-11
-1.26664e-11
3.11788e-13
1.23514e-11
2.69092e-22
1.51399e-12
1.11136e-12
5.33342e-12
-1.78566e-12
-3.19451e-11
-1.13665e-11
1.21772e-11
-5.11399e-22
-5.33118e-22
1.27179e-11
2.49967e-11
1.2316e-11
-4.45512e-22
1.23694e-21
1.91852e-22
9.86533e-22
1.51472e-12
-2.78299e-13
4.16626e-12
-1.78595e-12
-1.8979e-11
-1.21188e-11
5.36222e-23
-6.96994e-22
-1.63967e-22
-2.19972e-22
1.27003e-11
-3.64239e-13
-1.23331e-11
-6.18217e-22
-2.68489e-21
0
1.51409e-12
-1.66637e-12
1.66649e-12
-1.66686e-12
-4.81461e-12
1.28805e-11
2.5003e-11
1.22231e-11
-6.55562e-22
1.2721e-11
2.5e-11
-3.64133e-13
-2.5e-11
-1.23454e-11
-5.75305e-22
4.48278e-22
1.51462e-12
-1.66693e-12
1.66684e-12
-2.97622e-12
-6.01864e-12
2.57576e-11
3.71773e-11
1.22211e-11
-1.27467e-11
4.38425e-13
1.22998e-11
-1.26825e-11
-2.5e-11
-1.2344e-11
2.01315e-21
-9.8609e-22
1.51414e-12
-1.66642e-12
3.00028e-12
-3.09525e-12
-7.22221e-12
1.28781e-11
1.21785e-11
-1.2531e-21
-2.54911e-11
-2.45614e-11
6.62715e-22
-1.26812e-11
-1.23318e-11
-4.11956e-22
-7.66872e-22
5.3794e-22
1.51458e-12
-2.77753e-13
2.83332e-12
-2.97655e-12
-1.89824e-11
-1.21216e-11
1.28213e-11
1.22226e-11
-1.27448e-11
4.4175e-13
1.23019e-11
7.86087e-22
5.56176e-23
9.26695e-22
-7.66762e-22
-1.26359e-11
1.51424e-12
1.11114e-12
4.00008e-12
-1.66626e-12
-1.77775e-11
7.58964e-13
2.5e-11
1.22216e-11
1.63692e-22
2.54394e-11
3.73013e-11
1.23185e-11
-1.11213e-22
1.26553e-11
1.23561e-11
-1.2635e-11
1.51449e-12
8.33265e-13
4.1666e-12
-1.78618e-12
-6.01859e-12
2.57575e-11
3.71792e-11
1.22223e-11
1.59557e-21
1.27197e-11
2.4999e-11
1.23179e-11
-1.72372e-21
2.53094e-11
2.4711e-11
5.37807e-22
3.18104e-12
8.33398e-13
4.16694e-12
-1.78605e-12
-6.01848e-12
1.28787e-11
3.782e-11
2.44436e-11
1.39068e-21
-2.19538e-22
1.7213e-21
1.20883e-22
-1.26675e-11
3.09314e-13
2.5e-11
1.23658e-11
3.18104e-12
8.33292e-13
4.16662e-12
-4.76171e-13
-4.81464e-12
-5.05753e-22
1.28206e-11
1.22214e-11
1.63578e-22
1.27201e-11
1.23011e-11
-1.26819e-11
-3.76675e-11
-1.20355e-11
3.76446e-11
2.47305e-11
3.18104e-12
8.33378e-13
4.16669e-12
-4.76536e-13
-4.81483e-12
-2.84472e-22
1.28213e-11
1.22221e-11
-1.27459e-11
1.31588e-11
2.46024e-11
-1.26812e-11
-2.49993e-11
1.29659e-11
3.73555e-11
1.23647e-11
3.18104e-12
1.11109e-12
5.33351e-12
-4.76169e-13
-4.81483e-12
4.74001e-22
2.56409e-11
2.44436e-11
-2.5491e-11
-1.18412e-11
1.23009e-11
2.4169e-22
-1.11168e-22
1.26539e-11
1.23555e-11
1.79291e-22
1.51434e-12
2.81392e-23
5.33315e-12
-1.78571e-12
-6.01832e-12
1.28795e-11
2.5e-11
1.2222e-11
-2.5491e-11
-1.1842e-11
1.23014e-11
-1.26819e-11
-1.23332e-11
1.1322e-21
5.74909e-22
7.17107e-22
-1.52284e-13
-2.77778e-13
2.83347e-12
-2.97617e-12
-6.01828e-12
1.28786e-11
1.21793e-11
-5.55995e-22
-2.5491e-11
8.78817e-13
2.46033e-11
-2.5364e-11
-2.46668e-11
1.26551e-11
2.50006e-11
1.23655e-11
1.51436e-12
-2.7777e-13
2.83336e-12
-1.66663e-12
-1.77779e-11
7.58445e-13
2.50003e-11
1.22224e-11
-1.27448e-11
1.31593e-11
2.46024e-11
-1.26809e-11
-1.23327e-11
2.53094e-11
5e-11
2.47313e-11
1.51439e-12
-2.77776e-13
4.16688e-12
-4.76534e-13
-1.77776e-11
1.36364e-11
3.71794e-11
1.22216e-11
2.04346e-22
2.54385e-11
2.46024e-11
8.45753e-22
-1.26673e-11
3.07982e-13
2.49994e-11
1.23649e-11
1.51436e-12
-5.55546e-13
2.99999e-12
-1.7857e-12
-6.01854e-12
1.28791e-11
2.5e-11
1.22219e-11
-2.86095e-22
2.54394e-11
2.46033e-11
-1.26818e-11
-3.76673e-11
-2.46915e-11
1.26444e-11
1.23659e-11
3.18111e-12
8.33351e-13
4.16667e-12
-1.78568e-12
-6.01829e-12
1.28789e-11
3.7821e-11
2.44445e-11
-1.27452e-11
1.3159e-11
3.73014e-11
-1.30431e-11
-3.73332e-11
-1.2345e-11
1.26434e-11
1.23654e-11
3.18104e-12
1.11106e-12
5.33315e-12
-1.78612e-12
-6.01853e-12
2.57575e-11
5e-11
2.44436e-11
-1.27454e-11
1.31579e-11
3.73014e-11
-3.63143e-13
-1.23331e-11
-2.05808e-22
1.26439e-11
1.23659e-11
1.51437e-12
-1.3889e-12
4.16688e-12
-1.78568e-12
-6.01852e-12
2.57575e-11
3.71789e-11
1.22226e-11
-3.26927e-22
2.54385e-11
2.46032e-11
6.6448e-22
1.11145e-22
1.2655e-11
2.5e-11
1.2365e-11
-1.52295e-13
-2.77769e-12
3e-12
-1.78571e-12
-6.01831e-12
1.28786e-11
1.21794e-11
-1.27783e-11
-1.22551e-11
2.54385e-11
3.73014e-11
1.2319e-11
4.44542e-22
2.53086e-11
3.73561e-11
1.23663e-11
-1.52284e-13
-2.77786e-12
1.66665e-12
-2.97617e-12
-1.89816e-11
-1.21213e-11
1.28211e-11
-1.33332e-11
-2.45099e-11
1.27196e-11
2.49998e-11
1.23187e-11
3.88937e-22
1.26541e-11
2.49997e-11
1.2365e-11
-1.52295e-13
-2.77769e-12
3.33513e-13
-2.85713e-12
-3.07407e-11
-1.13636e-11
2.5e-11
-5.55498e-13
-2.5e-11
4.3856e-13
1.23018e-11
-1.26813e-11
-2.50002e-11
-1.23459e-11
1.26439e-11
1.23658e-11
-1.52284e-13
-2.77786e-12
1.66667e-12
-2.97618e-12
-1.89814e-11
7.5846e-13
1.21798e-11
0
-1.27445e-11
4.39475e-13
1.23015e-11
-2.53632e-11
-3.73332e-11
-1.23456e-11
1.26435e-11
1.23654e-11
-1.52295e-13
-2.77777e-12
2.99973e-12
-1.78569e-12
-6.01828e-12
-9.47076e-22
1.28211e-11
1.22228e-11
-1.27456e-11
-1.22809e-11
-6.61411e-22
-1.2681e-11
-1.23332e-11
-1.02896e-22
9.57919e-23
-4.48035e-22
-1.52284e-13
-2.77769e-12
3.00027e-12
-4.76179e-13
-4.81482e-12
1.28789e-11
3.78206e-11
2.44436e-11
-1.2745e-11
-1.22811e-11
6.61437e-22
-8.45425e-22
-1.26668e-11
-1.23454e-11
-2.87355e-22
8.96211e-23
-1.52289e-13
-2.77786e-12
1.66666e-12
-2.9762e-12
-6.01876e-12
1.28792e-11
2.49997e-11
1.22222e-11
5.71953e-22
5.11705e-22
6.61327e-23
-1.26808e-11
-2.5e-11
-1.23456e-11
5.74733e-22
5.37633e-22
-1.52289e-13
-1.38883e-12
2.83335e-12
-2.97654e-12
-6.01851e-12
-1.89391e-22
-6.67727e-22
3.7038e-22
-1.27452e-11
-1.22808e-11
1.26985e-11
-3.62922e-13
-1.23333e-11
1.33739e-21
-1.91564e-22
2.86749e-21
-1.52289e-13
-7.3647e-23
5.33333e-12
-4.75815e-13
-1.77781e-11
7.56658e-13
1.21791e-11
-3.70361e-22
-1.27449e-11
-1.22806e-11
1.26983e-11
1.23187e-11
-1.26667e-11
-1.23458e-11
1.26442e-11
1.23662e-11
-1.52289e-13
-2.04284e-22
5.33333e-12
-1.78613e-12
-3.19438e-11
-1.13624e-11
1.21799e-11
3.70384e-22
2.45082e-22
1.27194e-11
1.23013e-11
-3.62237e-22
-1.26666e-11
3.08903e-13
3.76438e-11
2.47312e-11
-1.52289e-13
-1.03007e-22
5.33333e-12
-3.09477e-12
-3.31488e-11
-1.13635e-11
1.21796e-11
9.25811e-22
1.22536e-22
2.54386e-11
2.46032e-11
-1.26812e-11
-2.50003e-11
1.29628e-11
3.73562e-11
1.23655e-11
-1.52289e-13
-2.77776e-13
4.16666e-12
-3.09568e-12
-3.31475e-11
-1.13637e-11
1.2179e-11
-3.70351e-22
-4.9017e-22
2.54386e-11
2.46041e-11
-1.26815e-11
-2.49998e-11
1.29631e-11
3.73564e-11
1.23652e-11
1.51439e-12
8.33347e-13
2.83333e-12
-2.97618e-12
-3.19451e-11
-1.13649e-11
1.21796e-11
-4.62916e-22
-6.53535e-22
1.27196e-11
2.5e-11
-3.62293e-13
-1.23335e-11
1.26542e-11
3.76436e-11
2.47312e-11
3.18104e-12
-2.7779e-13
1.5e-12
-2.85714e-12
-3.07407e-11
-1.13623e-11
2.5e-11
1.22223e-11
-1.27457e-11
4.37675e-13
2.5e-11
-3.61374e-13
-2.5e-11
-1.23458e-11
2.52873e-11
2.47312e-11
1.51433e-12
-1.66666e-12
1.66667e-12
-1.66665e-12
-1.77777e-11
-1.21211e-11
1.28204e-11
1.22222e-11
-1.2745e-11
1.3158e-11
2.46032e-11
1.08657e-21
-1.26661e-11
-1.23456e-11
1.2644e-11
1.2366e-11
1.51442e-12
-2.77773e-13
4.16668e-12
-1.78571e-12
-6.01853e-12
1.89371e-22
8.545e-22
-6.48002e-22
-4.08455e-22
1.27197e-11
1.23015e-11
-1.26808e-11
-1.2333e-11
2.05709e-22
4.78871e-22
1.16479e-21
1.51437e-12
1.74404e-22
5.33333e-12
-1.7857e-12
-1.89816e-11
-1.21213e-11
4.27287e-22
5.55468e-22
-1.27452e-11
4.38598e-13
1.23017e-11
-1.26811e-11
-1.23333e-11
1.02862e-22
-3.83034e-22
9.85455e-22
-1.52289e-13
-2.77776e-13
2.83332e-12
-1.66667e-12
-1.77777e-11
7.57633e-13
1.21796e-11
0
-1.2745e-11
1.3158e-11
3.73016e-11
1.23185e-11
-1.26662e-11
-1.23458e-11
1.26437e-11
1.23657e-11
1.51438e-12
-1.66667e-12
1.66667e-12
-1.66665e-12
-4.81482e-12
1.28788e-11
1.21794e-11
3.24e-22
-1.27452e-11
1.31579e-11
3.73015e-11
1.23188e-11
-1.2667e-11
-1.23461e-11
2.52883e-11
2.47312e-11
1.51437e-12
-2.77777e-12
3e-12
-1.7853e-12
-6.01852e-12
1.28789e-11
2.50001e-11
1.22218e-11
-1.2745e-11
4.38599e-13
1.23016e-11
-3.62237e-22
-1.26667e-11
-1.23453e-11
1.26432e-11
1.23655e-11
-1.52289e-13
-1.38888e-12
2.83333e-12
-2.97655e-12
-6.01852e-12
1.28787e-11
2.5e-11
1.22222e-11
-4.0839e-23
1.27194e-11
1.23017e-11
1.38853e-21
-2.53333e-11
-1.2037e-11
1.23564e-11
-5.37493e-22
-1.52289e-13
-1.53349e-23
4e-12
-2.97618e-12
-6.01853e-12
1.28788e-11
1.21795e-11
0
-1.30682e-21
1.27192e-11
1.23015e-11
-6.03703e-23
-1.26666e-11
1.2963e-11
3.73559e-11
1.23661e-11
-1.52289e-13
2.97979e-23
4e-12
-4.28571e-12
-2.01852e-11
7.57559e-13
1.21794e-11
4.16542e-22
5.30883e-22
-4.38466e-22
1.26984e-11
1.23189e-11
3.33238e-22
1.26543e-11
2.49999e-11
1.23651e-11
-1.52289e-13
1.11111e-12
4e-12
-2.97618e-12
-1.89815e-11
7.57593e-13
1.21795e-11
-1.27778e-11
-1.22549e-11
9.50215e-22
1.26984e-11
-3.62327e-13
-1.23333e-11
1.02871e-21
1.26441e-11
1.23657e-11
1.51438e-12
1.11111e-12
5.33333e-12
-1.78571e-12
-6.01852e-12
1.28788e-11
1.21794e-11
-1.27778e-11
-1.22549e-11
-1.46154e-22
1.26984e-11
-3.6222e-13
-2.5e-11
3.08648e-13
2.5e-11
1.23656e-11
1.51438e-12
1.44631e-23
5.33333e-12
-3.09523e-12
-7.22222e-12
5.99563e-22
-3.73809e-22
-2.77693e-22
3.26691e-22
-2.19231e-22
2.53968e-11
2.46377e-11
-2.53333e-11
6.17296e-13
2.47126e-11
-1.79165e-22
-1.52289e-13
1.44631e-23
5.33333e-12
-3.09523e-12
-7.22222e-12
5.99563e-22
1.06803e-22
9.25643e-23
2.85854e-22
-2.19231e-22
2.53968e-11
2.46377e-11
-2.53333e-11
6.17296e-13
2.47126e-11
-1.79165e-22
-1.52289e-13
)
;

boundaryField
{
    wireUpstream
    {
        type            calculated;
        value           nonuniform List<scalar> 
16
(
0
5.33333e-12
-3.09523e-12
-7.22222e-12
0
0
0
-2.48339e-22
0
2.53968e-11
2.46377e-11
-2.53333e-11
6.17296e-13
2.47126e-11
5.63006e-22
-1.52289e-13
)
;
    }
    wireDownstream
    {
        type            calculated;
        value           nonuniform List<scalar> 
16
(
2.22221e-12
2.66669e-12
-5.4763e-12
-1.5e-11
1.84854e-11
5e-11
-1.11211e-12
-5e-11
8.78464e-13
2.46025e-11
5.27519e-22
0
0
0
0
3.18108e-12
)
;
    }
    wireTopContact
    {
        type            calculated;
        value           nonuniform List<scalar> 
122
(
0
0
-2.5e-11
-2.5e-11
-6.75535e-22
0
-2.5e-11
-2.5e-11
6.75681e-22
0
0
0
6.75693e-22
0
-6.75563e-22
0
0
-6.75572e-22
0
0
-6.75578e-22
0
-6.75583e-22
-1.3509e-21
0
0
0
0
0
-2.5e-11
-5e-11
-2.5e-11
6.75356e-22
-6.75274e-22
-6.75237e-22
0
-2.49998e-11
-2.50002e-11
0
0
6.75166e-22
0
-6.75274e-22
6.755e-22
0
6.76242e-22
6.76621e-22
0
-2.49989e-11
-2.50007e-11
0
-2.50011e-11
-2.49975e-11
1.37505e-21
-6.89739e-22
6.91599e-22
-2.50099e-11
-2.49885e-11
0
-6.956e-22
0
-2.50147e-11
-2.49854e-11
6.96543e-22
0
6.97258e-22
0
0
6.99604e-22
-7.00845e-22
0
-1.40811e-21
-7.05807e-22
0
0
1.4168e-21
0
0
0
-2.50007e-11
-2.49994e-11
0
0
0
0
0
7.09637e-22
0
0
0
0
0
7.10033e-22
0
-7.10132e-22
0
0
0
-7.10033e-22
0
7.0999e-22
1.42025e-21
0
0
0
0
-7.1019e-22
0
0
1.42029e-21
-1.42026e-21
0
0
7.10251e-22
7.10083e-22
0
7.10222e-22
-7.10217e-22
0
0
0
-8.28498e-22
)
;
    }
    front
    {
        type            wedge;
    }
    back
    {
        type            wedge;
    }
}


// ************************************************************************* //
