/*--------------------------------*- C++ -*----------------------------------*\
| =========                 |                                                 |
| \\      /  F ield         | foam-extend: Open Source CFD                    |
|  \\    /   O peration     | Version:     4.1-20200408                       |
|   \\  /    A nd           | Web:         http://www.foam-extend.org         |
|    \\/     M anipulation  |                                                 |
\*---------------------------------------------------------------------------*/
FoamFile
{
    version     2.0;
    format      ascii;
    class       pointVectorField;
    location    "0.0775000";
    object      pointDU;
}
// * * * * * * * * * * * * * * * * * * * * * * * * * * * * * * * * * * * * * //

dimensions      [0 1 0 0 0 0 0];

internalField   nonuniform List<vector> 
4059
(
(0 -1.63641e-18 4.16893e-17)
(0 -1.27185e-16 7.62005e-18)
(0 -3.88421e-11 1.69588e-12)
(0 -1.92976e-18 4.92461e-17)
(0 -1.27185e-16 3.6166e-17)
(0 -3.88421e-11 -1.69584e-12)
(0 1.03856e-16 -2.46742e-18)
(0 3.16965e-17 6.83117e-19)
(0 2.67205e-17 9.00378e-19)
(0 5.9432e-18 1.80753e-18)
(0 1.05597e-17 1.60597e-18)
(0 -4.31355e-19 2.08585e-18)
(0 -3.55756e-18 2.22235e-18)
(0 -3.41385e-19 2.08192e-18)
(0 -1.91214e-17 2.90186e-18)
(0 1.26834e-18 2.01164e-18)
(0 -3.60463e-17 3.64086e-18)
(0 -8.28286e-19 2.10318e-18)
(0 -5.11372e-17 4.29969e-18)
(0 -6.29149e-18 2.34171e-18)
(0 -4.56436e-17 4.05987e-18)
(0 -2.67816e-11 1.16931e-12)
(0 -1.47275e-11 6.43014e-13)
(0 -5.57157e-12 2.43258e-13)
(0 1.43581e-12 -6.26902e-14)
(0 5.6876e-12 -2.48327e-13)
(0 1.04041e-11 -4.54256e-13)
(0 1.43434e-11 -6.26245e-13)
(0 1.10889e-11 -4.8415e-13)
(0 5.91104e-12 -2.58082e-13)
(0 1.0192e-12 -4.44991e-14)
(0 -3.97531e-12 1.73566e-13)
(0 -7.34015e-12 3.20479e-13)
(0 -5.96938e-12 2.6063e-13)
(0 -3.61885e-12 1.58004e-13)
(0 -2.06018e-12 8.99513e-14)
(0 1.03856e-16 4.62534e-17)
(0 3.16965e-17 4.31029e-17)
(0 2.67205e-17 4.28856e-17)
(0 5.9432e-18 4.19785e-17)
(0 1.05597e-17 4.218e-17)
(0 -4.31355e-19 4.17002e-17)
(0 -3.55756e-18 4.15637e-17)
(0 -3.41385e-19 4.17041e-17)
(0 -1.91214e-17 4.08841e-17)
(0 1.26834e-18 4.17744e-17)
(0 -3.60463e-17 4.01452e-17)
(0 -8.28286e-19 4.16828e-17)
(0 -5.11372e-17 3.94863e-17)
(0 -6.29149e-18 4.14443e-17)
(0 -4.56436e-17 3.97262e-17)
(0 -2.67816e-11 -1.16926e-12)
(0 -1.47275e-11 -6.42969e-13)
(0 -5.57157e-12 -2.43212e-13)
(0 1.43581e-12 6.27372e-14)
(0 5.6876e-12 2.48375e-13)
(0 1.04041e-11 4.54304e-13)
(0 1.43434e-11 6.26295e-13)
(0 1.10889e-11 4.84199e-13)
(0 5.91104e-12 2.58131e-13)
(0 1.0192e-12 4.45481e-14)
(0 -3.97531e-12 -1.73517e-13)
(0 -7.34015e-12 -3.2043e-13)
(0 -5.96938e-12 -2.6058e-13)
(0 -3.61885e-12 -1.57953e-13)
(0 -2.06018e-12 -8.99003e-14)
(5.00051e-05 -7.53474e-10 3.28974e-11)
(5.00051e-05 -7.53474e-10 -3.28974e-11)
(5.0005e-05 -3.83492e-10 -1.67436e-11)
(5.0005e-05 -3.83492e-10 1.67436e-11)
(5.00053e-05 -1.11611e-09 4.87302e-11)
(5.00053e-05 -1.11611e-09 -4.87303e-11)
(5.00055e-05 -1.44561e-09 6.31165e-11)
(5.00055e-05 -1.44561e-09 -6.31167e-11)
(5.00058e-05 -1.75038e-09 7.64234e-11)
(5.00058e-05 -1.75038e-09 -7.64235e-11)
(5.00062e-05 -2.00645e-09 8.76034e-11)
(5.00062e-05 -2.00645e-09 -8.76036e-11)
(5.00067e-05 -2.22267e-09 9.7044e-11)
(5.00067e-05 -2.22267e-09 -9.70442e-11)
(5.00073e-05 -2.37602e-09 1.03739e-10)
(5.00073e-05 -2.37602e-09 -1.03739e-10)
(5.0008e-05 -2.47706e-09 1.08151e-10)
(5.0008e-05 -2.47706e-09 -1.08151e-10)
(5.00088e-05 -2.50495e-09 1.09368e-10)
(5.00088e-05 -2.50495e-09 -1.09369e-10)
(5.00097e-05 -2.47501e-09 1.08061e-10)
(5.00097e-05 -2.47501e-09 -1.08062e-10)
(5.00108e-05 -2.3735e-09 1.03629e-10)
(5.00108e-05 -2.3735e-09 -1.0363e-10)
(5.00122e-05 -2.2358e-09 9.76172e-11)
(5.00122e-05 -2.2358e-09 -9.76174e-11)
(5.00136e-05 -2.07597e-09 9.06388e-11)
(5.00136e-05 -2.07597e-09 -9.0639e-11)
(5.00153e-05 -1.98362e-09 8.66068e-11)
(5.00153e-05 -1.98362e-09 -8.6607e-11)
(5.00169e-05 -2.06161e-09 9.00116e-11)
(5.00169e-05 -2.06161e-09 -9.00118e-11)
(5.0005e-05 -1.80762e-18 4.6051e-17)
(5.00056e-05 -4.40202e-10 1.92196e-11)
(5.00056e-05 -4.40202e-10 -1.92197e-11)
(5.00055e-05 -2.24182e-10 -9.78798e-12)
(5.00055e-05 -2.24182e-10 9.788e-12)
(5.00058e-05 -6.44347e-10 2.81328e-11)
(5.00058e-05 -6.44347e-10 -2.81328e-11)
(5.0006e-05 -8.21974e-10 3.58881e-11)
(5.0006e-05 -8.21974e-10 -3.58882e-11)
(5.00064e-05 -9.74417e-10 4.25439e-11)
(5.00064e-05 -9.74417e-10 -4.2544e-11)
(5.00068e-05 -1.08536e-09 4.73878e-11)
(5.00068e-05 -1.08536e-09 -4.73878e-11)
(5.00073e-05 -1.15946e-09 5.06232e-11)
(5.00073e-05 -1.15946e-09 -5.06233e-11)
(5.00079e-05 -1.18153e-09 5.15866e-11)
(5.00079e-05 -1.18153e-09 -5.15867e-11)
(5.00086e-05 -1.15934e-09 5.06178e-11)
(5.00086e-05 -1.15934e-09 -5.06179e-11)
(5.00094e-05 -1.08281e-09 4.72764e-11)
(5.00094e-05 -1.08281e-09 -4.72765e-11)
(5.00103e-05 -9.67168e-10 4.22275e-11)
(5.00103e-05 -9.67168e-10 -4.22275e-11)
(5.00114e-05 -8.12446e-10 3.54721e-11)
(5.00114e-05 -8.12446e-10 -3.54722e-11)
(5.00126e-05 -6.53148e-10 2.85171e-11)
(5.00126e-05 -6.53148e-10 -2.85171e-11)
(5.00139e-05 -5.07276e-10 2.21481e-11)
(5.00139e-05 -5.07276e-10 -2.21481e-11)
(5.00154e-05 -4.40151e-10 1.92174e-11)
(5.00154e-05 -4.40151e-10 -1.92174e-11)
(5.00167e-05 -4.77742e-10 2.08587e-11)
(5.00167e-05 -4.77742e-10 -2.08587e-11)
(5.00055e-05 -1.80763e-18 4.60515e-17)
(5.00064e-05 -1.78118e-10 7.7768e-12)
(5.00064e-05 -1.78118e-10 -7.77677e-12)
(5.00063e-05 -9.22983e-11 -4.02979e-12)
(5.00063e-05 -9.22983e-11 4.02983e-12)
(5.00065e-05 -2.5275e-10 1.10353e-11)
(5.00065e-05 -2.5275e-10 -1.10353e-11)
(5.00068e-05 -3.05531e-10 1.33398e-11)
(5.00068e-05 -3.05531e-10 -1.33398e-11)
(5.00071e-05 -3.36679e-10 1.46997e-11)
(5.00071e-05 -3.36679e-10 -1.46997e-11)
(5.00076e-05 -3.33929e-10 1.45797e-11)
(5.00076e-05 -3.33929e-10 -1.45797e-11)
(5.00081e-05 -3.01606e-10 1.31684e-11)
(5.00081e-05 -3.01606e-10 -1.31684e-11)
(5.00087e-05 -2.29207e-10 1.00074e-11)
(5.00087e-05 -2.29207e-10 -1.00074e-11)
(5.00094e-05 -1.24983e-10 5.45689e-12)
(5.00094e-05 -1.24983e-10 -5.45686e-12)
(5.00101e-05 1.54901e-11 -6.76307e-13)
(5.00101e-05 1.54901e-11 6.7636e-13)
(5.0011e-05 1.76606e-10 -7.71076e-12)
(5.0011e-05 1.76606e-10 7.71083e-12)
(5.0012e-05 3.52674e-10 -1.53981e-11)
(5.0012e-05 3.52674e-10 1.53982e-11)
(5.00131e-05 5.12851e-10 -2.23915e-11)
(5.00131e-05 5.12851e-10 2.23916e-11)
(5.00142e-05 6.39779e-10 -2.79333e-11)
(5.00142e-05 6.39779e-10 2.79335e-11)
(5.00153e-05 6.80895e-10 -2.97285e-11)
(5.00153e-05 6.80895e-10 2.97286e-11)
(5.00163e-05 6.25154e-10 -2.72948e-11)
(5.00163e-05 6.25154e-10 2.72949e-11)
(5.00062e-05 -1.80766e-18 4.60521e-17)
(5.00072e-05 3.20816e-11 -1.40071e-12)
(5.00072e-05 3.20816e-11 1.40076e-12)
(5.00071e-05 1.33945e-11 5.84866e-13)
(5.00071e-05 1.33945e-11 -5.84816e-13)
(5.00074e-05 5.97831e-11 -2.61018e-12)
(5.00074e-05 5.97831e-11 2.61024e-12)
(5.00077e-05 1.051e-10 -4.58877e-12)
(5.00077e-05 1.051e-10 4.58883e-12)
(5.0008e-05 1.66982e-10 -7.29058e-12)
(5.0008e-05 1.66982e-10 7.29065e-12)
(5.00084e-05 2.55185e-10 -1.11416e-11)
(5.00084e-05 2.55185e-10 1.11417e-11)
(5.00089e-05 3.64273e-10 -1.59045e-11)
(5.00089e-05 3.64273e-10 1.59046e-11)
(5.00095e-05 5.01692e-10 -2.19043e-11)
(5.00095e-05 5.01692e-10 2.19044e-11)
(5.00102e-05 6.58067e-10 -2.87318e-11)
(5.00102e-05 6.58067e-10 2.87319e-11)
(5.00109e-05 8.34371e-10 -3.64294e-11)
(5.00109e-05 8.34371e-10 3.64295e-11)
(5.00118e-05 1.01547e-09 -4.43362e-11)
(5.00118e-05 1.01547e-09 4.43364e-11)
(5.00126e-05 1.1935e-09 -5.21094e-11)
(5.00126e-05 1.1935e-09 5.21096e-11)
(5.00136e-05 1.34417e-09 -5.86875e-11)
(5.00136e-05 1.34417e-09 5.86877e-11)
(5.00145e-05 1.454e-09 -6.34832e-11)
(5.00145e-05 1.454e-09 6.34834e-11)
(5.00154e-05 1.49142e-09 -6.51166e-11)
(5.00154e-05 1.49142e-09 6.51168e-11)
(5.00161e-05 1.45734e-09 -6.36286e-11)
(5.00161e-05 1.45734e-09 6.36289e-11)
(5.00071e-05 -1.80769e-18 4.60529e-17)
(5.00082e-05 1.9486e-10 -8.50778e-12)
(5.00082e-05 1.9486e-10 8.50785e-12)
(5.00081e-05 9.53135e-11 4.16153e-12)
(5.00081e-05 9.53135e-11 -4.16147e-12)
(5.00084e-05 3.00732e-10 -1.31302e-11)
(5.00084e-05 3.00732e-10 1.31303e-11)
(5.00086e-05 4.20314e-10 -1.83513e-11)
(5.00086e-05 4.20314e-10 1.83514e-11)
(5.0009e-05 5.50911e-10 -2.40533e-11)
(5.0009e-05 5.50911e-10 2.40534e-11)
(5.00094e-05 7.00824e-10 -3.05986e-11)
(5.00094e-05 7.00824e-10 3.05987e-11)
(5.00099e-05 8.63116e-10 -3.76844e-11)
(5.00099e-05 8.63116e-10 3.76846e-11)
(5.00104e-05 1.04354e-09 -4.55621e-11)
(5.00104e-05 1.04354e-09 4.55623e-11)
(5.0011e-05 1.2319e-09 -5.37861e-11)
(5.0011e-05 1.2319e-09 5.37863e-11)
(5.00117e-05 1.42769e-09 -6.23343e-11)
(5.00117e-05 1.42769e-09 6.23345e-11)
(5.00125e-05 1.61717e-09 -7.06071e-11)
(5.00125e-05 1.61717e-09 7.06073e-11)
(5.00133e-05 1.79239e-09 -7.82573e-11)
(5.00133e-05 1.79239e-09 7.82576e-11)
(5.00141e-05 1.93528e-09 -8.4496e-11)
(5.00141e-05 1.93528e-09 8.44963e-11)
(5.00148e-05 2.03533e-09 -8.88644e-11)
(5.00148e-05 2.03533e-09 8.88647e-11)
(5.00155e-05 2.07323e-09 -9.05192e-11)
(5.00155e-05 2.07323e-09 9.05195e-11)
(5.00161e-05 2.0529e-09 -8.96317e-11)
(5.00161e-05 2.0529e-09 8.9632e-11)
(5.0008e-05 -1.80773e-18 4.60538e-17)
(5.00092e-05 3.15327e-10 -1.37674e-11)
(5.00092e-05 3.15327e-10 1.37675e-11)
(5.00091e-05 1.56031e-10 6.81253e-12)
(5.00091e-05 1.56031e-10 -6.81247e-12)
(5.00094e-05 4.78282e-10 -2.08822e-11)
(5.00094e-05 4.78282e-10 2.08823e-11)
(5.00096e-05 6.5144e-10 -2.84425e-11)
(5.00096e-05 6.5144e-10 2.84426e-11)
(5.00099e-05 8.3036e-10 -3.62543e-11)
(5.00099e-05 8.3036e-10 3.62544e-11)
(5.00103e-05 1.02253e-09 -4.46447e-11)
(5.00103e-05 1.02253e-09 4.46448e-11)
(5.00108e-05 1.21953e-09 -5.32459e-11)
(5.00108e-05 1.21953e-09 5.32461e-11)
(5.00113e-05 1.42637e-09 -6.22765e-11)
(5.00113e-05 1.42637e-09 6.22767e-11)
(5.00119e-05 1.63234e-09 -7.12696e-11)
(5.00119e-05 1.63234e-09 7.12698e-11)
(5.00126e-05 1.8366e-09 -8.01875e-11)
(5.00126e-05 1.8366e-09 8.01878e-11)
(5.00132e-05 2.02729e-09 -8.85135e-11)
(5.00132e-05 2.02729e-09 8.85138e-11)
(5.00139e-05 2.19733e-09 -9.59376e-11)
(5.00139e-05 2.19733e-09 9.59379e-11)
(5.00146e-05 2.3346e-09 -1.01931e-10)
(5.00146e-05 2.3346e-09 1.01931e-10)
(5.00152e-05 2.4311e-09 -1.06144e-10)
(5.00152e-05 2.4311e-09 1.06144e-10)
(5.00158e-05 2.47763e-09 -1.08175e-10)
(5.00158e-05 2.47763e-09 1.08176e-10)
(5.00162e-05 2.4788e-09 -1.08227e-10)
(5.00162e-05 2.4788e-09 1.08227e-10)
(5.0009e-05 -1.80776e-18 4.60547e-17)
(5.00102e-05 3.99401e-10 -1.74382e-11)
(5.00102e-05 3.99401e-10 1.74383e-11)
(5.00101e-05 1.98487e-10 8.66618e-12)
(5.00101e-05 1.98487e-10 -8.66611e-12)
(5.00104e-05 6.01609e-10 -2.62668e-11)
(5.00104e-05 6.01609e-10 2.62669e-11)
(5.00106e-05 8.11089e-10 -3.54129e-11)
(5.00106e-05 8.11089e-10 3.54131e-11)
(5.0011e-05 1.02179e-09 -4.46124e-11)
(5.0011e-05 1.02179e-09 4.46126e-11)
(5.00113e-05 1.24093e-09 -5.41802e-11)
(5.00113e-05 1.24093e-09 5.41804e-11)
(5.00118e-05 1.4588e-09 -6.36928e-11)
(5.00118e-05 1.4588e-09 6.3693e-11)
(5.00123e-05 1.6804e-09 -7.33676e-11)
(5.00123e-05 1.6804e-09 7.33679e-11)
(5.00128e-05 1.89484e-09 -8.27305e-11)
(5.00128e-05 1.89484e-09 8.27307e-11)
(5.00134e-05 2.10165e-09 -9.17601e-11)
(5.00134e-05 2.10165e-09 9.17604e-11)
(5.00139e-05 2.291e-09 -1.00027e-10)
(5.00139e-05 2.291e-09 1.00027e-10)
(5.00145e-05 2.45684e-09 -1.07268e-10)
(5.00145e-05 2.45684e-09 1.07268e-10)
(5.00151e-05 2.59193e-09 -1.13166e-10)
(5.00151e-05 2.59193e-09 1.13166e-10)
(5.00156e-05 2.68972e-09 -1.17436e-10)
(5.00156e-05 2.68972e-09 1.17436e-10)
(5.0016e-05 2.74775e-09 -1.19969e-10)
(5.0016e-05 2.74775e-09 1.1997e-10)
(5.00163e-05 2.76948e-09 -1.20918e-10)
(5.00163e-05 2.76948e-09 1.20918e-10)
(5.00101e-05 -1.8078e-18 4.60557e-17)
(5.00113e-05 4.52956e-10 -1.97765e-11)
(5.00113e-05 4.52956e-10 1.97766e-11)
(5.00112e-05 2.25595e-10 9.84975e-12)
(5.00112e-05 2.25595e-10 -9.84968e-12)
(5.00114e-05 6.79659e-10 -2.96745e-11)
(5.00114e-05 6.79659e-10 2.96747e-11)
(5.00117e-05 9.11393e-10 -3.97923e-11)
(5.00117e-05 9.11393e-10 3.97924e-11)
(5.0012e-05 1.1407e-09 -4.9804e-11)
(5.0012e-05 1.1407e-09 4.98042e-11)
(5.00123e-05 1.37496e-09 -6.00322e-11)
(5.00123e-05 1.37496e-09 6.00324e-11)
(5.00127e-05 1.60339e-09 -7.00053e-11)
(5.00127e-05 1.60339e-09 7.00055e-11)
(5.00132e-05 1.83145e-09 -7.99628e-11)
(5.00132e-05 1.83145e-09 7.9963e-11)
(5.00137e-05 2.04829e-09 -8.94302e-11)
(5.00137e-05 2.04829e-09 8.94305e-11)
(5.00142e-05 2.25417e-09 -9.84194e-11)
(5.00142e-05 2.25417e-09 9.84197e-11)
(5.00147e-05 2.44117e-09 -1.06584e-10)
(5.00147e-05 2.44117e-09 1.06584e-10)
(5.00152e-05 2.60421e-09 -1.13702e-10)
(5.00152e-05 2.60421e-09 1.13703e-10)
(5.00156e-05 2.74006e-09 -1.19633e-10)
(5.00156e-05 2.74006e-09 1.19634e-10)
(5.00161e-05 2.84281e-09 -1.2412e-10)
(5.00161e-05 2.84281e-09 1.2412e-10)
(5.00164e-05 2.91498e-09 -1.27271e-10)
(5.00164e-05 2.91498e-09 1.27271e-10)
(5.00166e-05 2.95813e-09 -1.29155e-10)
(5.00166e-05 2.95813e-09 1.29155e-10)
(5.00111e-05 -1.80784e-18 4.60567e-17)
(5.00123e-05 4.81516e-10 -2.10234e-11)
(5.00123e-05 4.81516e-10 2.10235e-11)
(5.00122e-05 2.4011e-10 1.04835e-11)
(5.00122e-05 2.4011e-10 -1.04834e-11)
(5.00125e-05 7.20774e-10 -3.14697e-11)
(5.00125e-05 7.20774e-10 3.14698e-11)
(5.00127e-05 9.63555e-10 -4.20697e-11)
(5.00127e-05 9.63555e-10 4.20699e-11)
(5.0013e-05 1.20119e-09 -5.2445e-11)
(5.0013e-05 1.20119e-09 5.24452e-11)
(5.00133e-05 1.44162e-09 -6.29424e-11)
(5.00133e-05 1.44162e-09 6.29426e-11)
(5.00137e-05 1.67308e-09 -7.30484e-11)
(5.00137e-05 1.67308e-09 7.30486e-11)
(5.00141e-05 1.90196e-09 -8.30413e-11)
(5.00141e-05 1.90196e-09 8.30416e-11)
(5.00145e-05 2.11743e-09 -9.24489e-11)
(5.00145e-05 2.11743e-09 9.24492e-11)
(5.00149e-05 2.32069e-09 -1.01323e-10)
(5.00149e-05 2.32069e-09 1.01324e-10)
(5.00154e-05 2.50546e-09 -1.09391e-10)
(5.00154e-05 2.50546e-09 1.09391e-10)
(5.00158e-05 2.66741e-09 -1.16462e-10)
(5.00158e-05 2.66741e-09 1.16462e-10)
(5.00162e-05 2.80644e-09 -1.22532e-10)
(5.00162e-05 2.80644e-09 1.22532e-10)
(5.00165e-05 2.91662e-09 -1.27342e-10)
(5.00165e-05 2.91662e-09 1.27343e-10)
(5.00168e-05 3.00397e-09 -1.31156e-10)
(5.00168e-05 3.00397e-09 1.31157e-10)
(5.00169e-05 3.06774e-09 -1.3394e-10)
(5.00169e-05 3.06774e-09 1.33941e-10)
(5.00122e-05 -1.80788e-18 4.60576e-17)
(5.00133e-05 4.90005e-10 -2.13941e-11)
(5.00133e-05 4.90005e-10 2.13942e-11)
(5.00132e-05 2.44493e-10 1.06749e-11)
(5.00132e-05 2.44493e-10 -1.06748e-11)
(5.00135e-05 7.32324e-10 -3.1974e-11)
(5.00135e-05 7.32324e-10 3.19741e-11)
(5.00137e-05 9.77375e-10 -4.26731e-11)
(5.00137e-05 9.77375e-10 4.26733e-11)
(5.00139e-05 1.21542e-09 -5.30664e-11)
(5.00139e-05 1.21542e-09 5.30666e-11)
(5.00142e-05 1.45531e-09 -6.35402e-11)
(5.00142e-05 1.45531e-09 6.35404e-11)
(5.00146e-05 1.68438e-09 -7.35416e-11)
(5.00146e-05 1.68438e-09 7.35418e-11)
(5.00149e-05 1.91018e-09 -8.34001e-11)
(5.00149e-05 1.91018e-09 8.34004e-11)
(5.00153e-05 2.1219e-09 -9.26441e-11)
(5.00153e-05 2.1219e-09 9.26444e-11)
(5.00157e-05 2.32172e-09 -1.01368e-10)
(5.00157e-05 2.32172e-09 1.01369e-10)
(5.00161e-05 2.50475e-09 -1.0936e-10)
(5.00161e-05 2.50475e-09 1.0936e-10)
(5.00165e-05 2.66709e-09 -1.16448e-10)
(5.00165e-05 2.66709e-09 1.16448e-10)
(5.00168e-05 2.81116e-09 -1.22738e-10)
(5.00168e-05 2.81116e-09 1.22738e-10)
(5.00171e-05 2.93045e-09 -1.27946e-10)
(5.00171e-05 2.93045e-09 1.27946e-10)
(5.00172e-05 3.0336e-09 -1.3245e-10)
(5.00172e-05 3.0336e-09 1.3245e-10)
(5.00173e-05 3.11731e-09 -1.36105e-10)
(5.00173e-05 3.11731e-09 1.36105e-10)
(5.00132e-05 -1.80791e-18 4.60586e-17)
(5.00143e-05 4.8264e-10 -2.10725e-11)
(5.00143e-05 4.8264e-10 2.10726e-11)
(5.00142e-05 2.40861e-10 1.05163e-11)
(5.00142e-05 2.40861e-10 -1.05162e-11)
(5.00144e-05 7.20587e-10 -3.14615e-11)
(5.00144e-05 7.20587e-10 3.14616e-11)
(5.00146e-05 9.61134e-10 -4.1964e-11)
(5.00146e-05 9.61134e-10 4.19642e-11)
(5.00149e-05 1.19357e-09 -5.21124e-11)
(5.00149e-05 1.19357e-09 5.21126e-11)
(5.00151e-05 1.42796e-09 -6.23462e-11)
(5.00151e-05 1.42796e-09 6.23464e-11)
(5.00154e-05 1.65074e-09 -7.20726e-11)
(5.00154e-05 1.65074e-09 7.20729e-11)
(5.00158e-05 1.87083e-09 -8.16823e-11)
(5.00158e-05 1.87083e-09 8.16825e-11)
(5.00161e-05 2.07736e-09 -9.06996e-11)
(5.00161e-05 2.07736e-09 9.06999e-11)
(5.00165e-05 2.27346e-09 -9.92616e-11)
(5.00165e-05 2.27346e-09 9.92619e-11)
(5.00168e-05 2.45539e-09 -1.07205e-10)
(5.00168e-05 2.45539e-09 1.07205e-10)
(5.00171e-05 2.61936e-09 -1.14364e-10)
(5.00171e-05 2.61936e-09 1.14364e-10)
(5.00174e-05 2.76984e-09 -1.20934e-10)
(5.00174e-05 2.76984e-09 1.20934e-10)
(5.00176e-05 2.8993e-09 -1.26586e-10)
(5.00176e-05 2.8993e-09 1.26586e-10)
(5.00177e-05 3.01837e-09 -1.31785e-10)
(5.00177e-05 3.01837e-09 1.31785e-10)
(5.00178e-05 3.12109e-09 -1.3627e-10)
(5.00178e-05 3.12109e-09 1.3627e-10)
(5.00142e-05 -1.80795e-18 4.60595e-17)
(5.00152e-05 4.62934e-10 -2.02121e-11)
(5.00152e-05 4.62934e-10 2.02122e-11)
(5.00151e-05 2.30979e-10 1.00848e-11)
(5.00151e-05 2.30979e-10 -1.00847e-11)
(5.00153e-05 6.90762e-10 -3.01593e-11)
(5.00153e-05 6.90762e-10 3.01594e-11)
(5.00155e-05 9.2164e-10 -4.02396e-11)
(5.00155e-05 9.2164e-10 4.02398e-11)
(5.00157e-05 1.14392e-09 -4.99447e-11)
(5.00157e-05 1.14392e-09 4.99449e-11)
(5.0016e-05 1.36918e-09 -5.97795e-11)
(5.0016e-05 1.36918e-09 5.97797e-11)
(5.00163e-05 1.58285e-09 -6.91087e-11)
(5.00163e-05 1.58285e-09 6.91089e-11)
(5.00166e-05 1.79546e-09 -7.83916e-11)
(5.00166e-05 1.79546e-09 7.83918e-11)
(5.00169e-05 1.99592e-09 -8.71436e-11)
(5.00169e-05 1.99592e-09 8.71438e-11)
(5.00172e-05 2.18827e-09 -9.55417e-11)
(5.00172e-05 2.18827e-09 9.5542e-11)
(5.00175e-05 2.3697e-09 -1.03463e-10)
(5.00175e-05 2.3697e-09 1.03464e-10)
(5.00178e-05 2.53627e-09 -1.10736e-10)
(5.00178e-05 2.53627e-09 1.10736e-10)
(5.0018e-05 2.69417e-09 -1.1763e-10)
(5.0018e-05 2.69417e-09 1.1763e-10)
(5.00182e-05 2.83448e-09 -1.23756e-10)
(5.00182e-05 2.83448e-09 1.23756e-10)
(5.00183e-05 2.96947e-09 -1.2965e-10)
(5.00183e-05 2.96947e-09 1.2965e-10)
(5.00183e-05 3.09036e-09 -1.34928e-10)
(5.00183e-05 3.09036e-09 1.34929e-10)
(5.00151e-05 -1.80798e-18 4.60603e-17)
(5.00161e-05 4.3374e-10 -1.89375e-11)
(5.00161e-05 4.3374e-10 1.89376e-11)
(5.0016e-05 2.16285e-10 9.44329e-12)
(5.0016e-05 2.16285e-10 -9.44321e-12)
(5.00162e-05 6.47048e-10 -2.82507e-11)
(5.00162e-05 6.47048e-10 2.82508e-11)
(5.00164e-05 8.64357e-10 -3.77386e-11)
(5.00164e-05 8.64357e-10 3.77388e-11)
(5.00166e-05 1.07307e-09 -4.68512e-11)
(5.00166e-05 1.07307e-09 4.68514e-11)
(5.00168e-05 1.28652e-09 -5.61707e-11)
(5.00168e-05 1.28652e-09 5.61709e-11)
(5.00171e-05 1.48908e-09 -6.50145e-11)
(5.00171e-05 1.48908e-09 6.50147e-11)
(5.00174e-05 1.69299e-09 -7.39176e-11)
(5.00174e-05 1.69299e-09 7.39179e-11)
(5.00177e-05 1.88682e-09 -8.23805e-11)
(5.00177e-05 1.88682e-09 8.23808e-11)
(5.0018e-05 2.0755e-09 -9.06181e-11)
(5.0018e-05 2.0755e-09 9.06184e-11)
(5.00182e-05 2.25697e-09 -9.85415e-11)
(5.00182e-05 2.25697e-09 9.85418e-11)
(5.00185e-05 2.42689e-09 -1.0596e-10)
(5.00185e-05 2.42689e-09 1.05961e-10)
(5.00187e-05 2.59297e-09 -1.13211e-10)
(5.00187e-05 2.59297e-09 1.13212e-10)
(5.00188e-05 2.74459e-09 -1.19831e-10)
(5.00188e-05 2.74459e-09 1.19832e-10)
(5.00189e-05 2.89543e-09 -1.26417e-10)
(5.00189e-05 2.89543e-09 1.26418e-10)
(5.00188e-05 3.03382e-09 -1.32459e-10)
(5.00188e-05 3.03382e-09 1.3246e-10)
(5.0016e-05 -1.80801e-18 4.60611e-17)
(5.00169e-05 3.97355e-10 -1.73489e-11)
(5.00169e-05 3.97355e-10 1.7349e-11)
(5.00168e-05 1.97941e-10 8.64236e-12)
(5.00168e-05 1.97941e-10 -8.64229e-12)
(5.0017e-05 5.92812e-10 -2.58827e-11)
(5.0017e-05 5.92812e-10 2.58828e-11)
(5.00172e-05 7.93643e-10 -3.46512e-11)
(5.00172e-05 7.93643e-10 3.46513e-11)
(5.00174e-05 9.86228e-10 -4.30596e-11)
(5.00174e-05 9.86228e-10 4.30598e-11)
(5.00176e-05 1.18594e-09 -5.1779e-11)
(5.00176e-05 1.18594e-09 5.17792e-11)
(5.00178e-05 1.3759e-09 -6.00731e-11)
(5.00178e-05 1.3759e-09 6.00733e-11)
(5.00181e-05 1.57027e-09 -6.85596e-11)
(5.00181e-05 1.57027e-09 6.85599e-11)
(5.00184e-05 1.75714e-09 -7.67182e-11)
(5.00184e-05 1.75714e-09 7.67185e-11)
(5.00187e-05 1.94223e-09 -8.47995e-11)
(5.00187e-05 1.94223e-09 8.47997e-11)
(5.00189e-05 2.1242e-09 -9.27443e-11)
(5.00189e-05 2.1242e-09 9.27446e-11)
(5.00191e-05 2.29803e-09 -1.00334e-10)
(5.00191e-05 2.29803e-09 1.00334e-10)
(5.00193e-05 2.47289e-09 -1.07969e-10)
(5.00193e-05 2.47289e-09 1.07969e-10)
(5.00194e-05 2.63619e-09 -1.15099e-10)
(5.00194e-05 2.63619e-09 1.15099e-10)
(5.00195e-05 2.80289e-09 -1.22377e-10)
(5.00195e-05 2.80289e-09 1.22377e-10)
(5.00194e-05 2.95835e-09 -1.29164e-10)
(5.00194e-05 2.95835e-09 1.29165e-10)
(5.00168e-05 -1.80804e-18 4.60619e-17)
(5.00176e-05 3.55634e-10 -1.55273e-11)
(5.00176e-05 3.55634e-10 1.55274e-11)
(5.00175e-05 1.76885e-10 7.72304e-12)
(5.00175e-05 1.76885e-10 -7.72297e-12)
(5.00177e-05 5.3076e-10 -2.31735e-11)
(5.00177e-05 5.3076e-10 2.31736e-11)
(5.00179e-05 7.12977e-10 -3.11292e-11)
(5.00179e-05 7.12977e-10 3.11294e-11)
(5.00181e-05 8.87531e-10 -3.87504e-11)
(5.00181e-05 8.87531e-10 3.87506e-11)
(5.00183e-05 1.07209e-09 -4.68083e-11)
(5.00183e-05 1.07209e-09 4.68084e-11)
(5.00186e-05 1.24837e-09 -5.45052e-11)
(5.00186e-05 1.24837e-09 5.45054e-11)
(5.00188e-05 1.4326e-09 -6.25488e-11)
(5.00188e-05 1.4326e-09 6.2549e-11)
(5.00191e-05 1.61225e-09 -7.03925e-11)
(5.00191e-05 1.61225e-09 7.03928e-11)
(5.00194e-05 1.79385e-09 -7.83211e-11)
(5.00194e-05 1.79385e-09 7.83214e-11)
(5.00196e-05 1.97668e-09 -8.63035e-11)
(5.00196e-05 1.97668e-09 8.63038e-11)
(5.00198e-05 2.15487e-09 -9.40836e-11)
(5.00198e-05 2.15487e-09 9.40839e-11)
(5.002e-05 2.33904e-09 -1.02125e-10)
(5.002e-05 2.33904e-09 1.02125e-10)
(5.00201e-05 2.51437e-09 -1.0978e-10)
(5.00201e-05 2.51437e-09 1.0978e-10)
(5.00201e-05 2.69711e-09 -1.17758e-10)
(5.00201e-05 2.69711e-09 1.17759e-10)
(5.00201e-05 2.86949e-09 -1.25285e-10)
(5.00201e-05 2.86949e-09 1.25285e-10)
(5.00175e-05 -1.80807e-18 4.60626e-17)
(5.00183e-05 3.10129e-10 -1.35405e-11)
(5.00183e-05 3.10129e-10 1.35406e-11)
(5.00182e-05 1.53905e-10 6.71971e-12)
(5.00182e-05 1.53905e-10 -6.71964e-12)
(5.00184e-05 4.63147e-10 -2.02214e-11)
(5.00184e-05 4.63147e-10 2.02215e-11)
(5.00186e-05 6.25248e-10 -2.72989e-11)
(5.00186e-05 6.25248e-10 2.7299e-11)
(5.00188e-05 7.80388e-10 -3.40724e-11)
(5.00188e-05 7.80388e-10 3.40726e-11)
(5.0019e-05 9.48795e-10 -4.14253e-11)
(5.0019e-05 9.48795e-10 4.14254e-11)
(5.00193e-05 1.1106e-09 -4.849e-11)
(5.00193e-05 1.1106e-09 4.84902e-11)
(5.00195e-05 1.28425e-09 -5.60716e-11)
(5.00195e-05 1.28425e-09 5.60718e-11)
(5.00198e-05 1.45651e-09 -6.35925e-11)
(5.00198e-05 1.45651e-09 6.35927e-11)
(5.00201e-05 1.63466e-09 -7.13706e-11)
(5.00201e-05 1.63466e-09 7.13709e-11)
(5.00203e-05 1.81865e-09 -7.94038e-11)
(5.00203e-05 1.81865e-09 7.94041e-11)
(5.00205e-05 2.00155e-09 -8.73896e-11)
(5.00205e-05 2.00155e-09 8.73899e-11)
(5.00207e-05 2.19554e-09 -9.58593e-11)
(5.00207e-05 2.19554e-09 9.58596e-11)
(5.00208e-05 2.38331e-09 -1.04057e-10)
(5.00208e-05 2.38331e-09 1.04058e-10)
(5.00208e-05 2.58247e-09 -1.12753e-10)
(5.00208e-05 2.58247e-09 1.12753e-10)
(5.00207e-05 2.772e-09 -1.21028e-10)
(5.00207e-05 2.772e-09 1.21028e-10)
(5.00182e-05 -1.80809e-18 4.60632e-17)
(5.00189e-05 2.62239e-10 -1.14496e-11)
(5.00189e-05 2.62239e-10 1.14497e-11)
(5.00188e-05 1.2971e-10 5.66334e-12)
(5.00188e-05 1.2971e-10 -5.66327e-12)
(5.0019e-05 3.91992e-10 -1.71147e-11)
(5.0019e-05 3.91992e-10 1.71148e-11)
(5.00192e-05 5.33037e-10 -2.32729e-11)
(5.00192e-05 5.33037e-10 2.3273e-11)
(5.00194e-05 6.67827e-10 -2.91579e-11)
(5.00194e-05 6.67827e-10 2.91581e-11)
(5.00196e-05 8.19446e-10 -3.57778e-11)
(5.00196e-05 8.19446e-10 3.57779e-11)
(5.00199e-05 9.66207e-10 -4.21855e-11)
(5.00199e-05 9.66207e-10 4.21856e-11)
(5.00202e-05 1.12896e-09 -4.92914e-11)
(5.00202e-05 1.12896e-09 4.92916e-11)
(5.00204e-05 1.29368e-09 -5.64833e-11)
(5.00204e-05 1.29368e-09 5.64835e-11)
(5.00207e-05 1.4684e-09 -6.41116e-11)
(5.00207e-05 1.4684e-09 6.41118e-11)
(5.0021e-05 1.6538e-09 -7.22065e-11)
(5.0021e-05 1.6538e-09 7.22068e-11)
(5.00212e-05 1.84171e-09 -8.0411e-11)
(5.00212e-05 1.84171e-09 8.04112e-11)
(5.00214e-05 2.04605e-09 -8.93325e-11)
(5.00214e-05 2.04605e-09 8.93328e-11)
(5.00215e-05 2.24675e-09 -9.80952e-11)
(5.00215e-05 2.24675e-09 9.80955e-11)
(5.00215e-05 2.46297e-09 -1.07536e-10)
(5.00215e-05 2.46297e-09 1.07536e-10)
(5.00215e-05 2.67024e-09 -1.16585e-10)
(5.00215e-05 2.67024e-09 1.16586e-10)
(5.00188e-05 -1.80812e-18 4.60637e-17)
(5.00194e-05 2.13359e-10 -9.31547e-12)
(5.00194e-05 2.13359e-10 9.31554e-12)
(5.00193e-05 1.0501e-10 4.5849e-12)
(5.00193e-05 1.0501e-10 -4.58484e-12)
(5.00196e-05 3.19314e-10 -1.39416e-11)
(5.00196e-05 3.19314e-10 1.39416e-11)
(5.00197e-05 4.38919e-10 -1.91636e-11)
(5.00197e-05 4.38919e-10 1.91637e-11)
(5.002e-05 5.52868e-10 -2.41387e-11)
(5.002e-05 5.52868e-10 2.41388e-11)
(5.00202e-05 6.87405e-10 -3.00127e-11)
(5.00202e-05 6.87405e-10 3.00129e-11)
(5.00205e-05 8.18773e-10 -3.57484e-11)
(5.00205e-05 8.18773e-10 3.57485e-11)
(5.00208e-05 9.70449e-10 -4.23707e-11)
(5.00208e-05 9.70449e-10 4.23709e-11)
(5.00211e-05 1.12753e-09 -4.9229e-11)
(5.00211e-05 1.12753e-09 4.92292e-11)
(5.00214e-05 1.29881e-09 -5.6707e-11)
(5.00214e-05 1.29881e-09 5.67072e-11)
(5.00217e-05 1.48584e-09 -6.4873e-11)
(5.00217e-05 1.48584e-09 6.48732e-11)
(5.00219e-05 1.67901e-09 -7.33071e-11)
(5.00219e-05 1.67901e-09 7.33074e-11)
(5.00221e-05 1.89426e-09 -8.27053e-11)
(5.00221e-05 1.89426e-09 8.27056e-11)
(5.00222e-05 2.1085e-09 -9.20592e-11)
(5.00222e-05 2.1085e-09 9.20595e-11)
(5.00223e-05 2.34269e-09 -1.02284e-10)
(5.00223e-05 2.34269e-09 1.02284e-10)
(5.00222e-05 2.56868e-09 -1.12151e-10)
(5.00222e-05 2.56868e-09 1.12151e-10)
(5.00193e-05 -1.80813e-18 4.60642e-17)
(5.00199e-05 1.65061e-10 -7.2067e-12)
(5.00199e-05 1.65061e-10 7.20677e-12)
(5.00198e-05 8.06012e-11 3.51918e-12)
(5.00198e-05 8.06012e-11 -3.51912e-12)
(5.002e-05 2.47383e-10 -1.0801e-11)
(5.002e-05 2.47383e-10 1.0801e-11)
(5.00202e-05 3.45794e-10 -1.50977e-11)
(5.00202e-05 3.45794e-10 1.50978e-11)
(5.00205e-05 4.38917e-10 -1.91635e-11)
(5.00205e-05 4.38917e-10 1.91636e-11)
(5.00207e-05 5.56479e-10 -2.42964e-11)
(5.00207e-05 5.56479e-10 2.42965e-11)
(5.0021e-05 6.7238e-10 -2.93567e-11)
(5.0021e-05 6.7238e-10 2.93568e-11)
(5.00214e-05 8.12954e-10 -3.54943e-11)
(5.00214e-05 8.12954e-10 3.54945e-11)
(5.00217e-05 9.62358e-10 -4.20175e-11)
(5.00217e-05 9.62358e-10 4.20176e-11)
(5.0022e-05 1.13017e-09 -4.93441e-11)
(5.0022e-05 1.13017e-09 4.93443e-11)
(5.00223e-05 1.31901e-09 -5.7589e-11)
(5.00223e-05 1.31901e-09 5.75892e-11)
(5.00226e-05 1.51765e-09 -6.62621e-11)
(5.00226e-05 1.51765e-09 6.62623e-11)
(5.00228e-05 1.74443e-09 -7.61634e-11)
(5.00228e-05 1.74443e-09 7.61636e-11)
(5.0023e-05 1.97292e-09 -8.61396e-11)
(5.0023e-05 1.97292e-09 8.61399e-11)
(5.00231e-05 2.22624e-09 -9.71997e-11)
(5.00231e-05 2.22624e-09 9.72e-11)
(5.0023e-05 2.47233e-09 -1.07944e-10)
(5.0023e-05 2.47233e-09 1.07944e-10)
(5.00197e-05 -1.80815e-18 4.60646e-17)
(5.00202e-05 1.19261e-10 -5.20704e-12)
(5.00202e-05 1.19261e-10 5.2071e-12)
(5.00202e-05 5.74569e-11 2.50867e-12)
(5.00202e-05 5.74569e-11 -2.50862e-12)
(5.00204e-05 1.78977e-10 -7.81431e-12)
(5.00204e-05 1.78977e-10 7.81438e-12)
(5.00206e-05 2.57217e-10 -1.12303e-11)
(5.00206e-05 2.57217e-10 1.12304e-11)
(5.00209e-05 3.30165e-10 -1.44153e-11)
(5.00209e-05 3.30165e-10 1.44154e-11)
(5.00212e-05 4.31368e-10 -1.88339e-11)
(5.00212e-05 4.31368e-10 1.8834e-11)
(5.00215e-05 5.32083e-10 -2.32313e-11)
(5.00215e-05 5.32083e-10 2.32314e-11)
(5.00219e-05 6.61754e-10 -2.88928e-11)
(5.00219e-05 6.61754e-10 2.88929e-11)
(5.00223e-05 8.03547e-10 -3.50836e-11)
(5.00223e-05 8.03547e-10 3.50837e-11)
(5.00227e-05 9.67868e-10 -4.2258e-11)
(5.00227e-05 9.67868e-10 4.22582e-11)
(5.0023e-05 1.15867e-09 -5.05886e-11)
(5.0023e-05 1.15867e-09 5.05888e-11)
(5.00233e-05 1.36294e-09 -5.95074e-11)
(5.00233e-05 1.36294e-09 5.95076e-11)
(5.00236e-05 1.60187e-09 -6.99389e-11)
(5.00236e-05 1.60187e-09 6.99392e-11)
(5.00238e-05 1.8454e-09 -8.0572e-11)
(5.00238e-05 1.8454e-09 8.05723e-11)
(5.00239e-05 2.11926e-09 -9.2529e-11)
(5.00239e-05 2.11926e-09 9.25293e-11)
(5.00239e-05 2.3872e-09 -1.04227e-10)
(5.00239e-05 2.3872e-09 1.04227e-10)
(5.00201e-05 -1.80816e-18 4.6065e-17)
(5.00205e-05 7.84433e-11 -3.4249e-12)
(5.00205e-05 7.84433e-11 3.42496e-12)
(5.00205e-05 3.68344e-11 1.60827e-12)
(5.00205e-05 3.68344e-11 -1.60822e-12)
(5.00207e-05 1.17701e-10 -5.13894e-12)
(5.00207e-05 1.17701e-10 5.139e-12)
(5.0021e-05 1.77812e-10 -7.76345e-12)
(5.0021e-05 1.77812e-10 7.76352e-12)
(5.00213e-05 2.32082e-10 -1.01329e-11)
(5.00213e-05 2.32082e-10 1.0133e-11)
(5.00216e-05 3.18232e-10 -1.38943e-11)
(5.00216e-05 3.18232e-10 1.38944e-11)
(5.0022e-05 4.04536e-10 -1.76624e-11)
(5.0022e-05 4.04536e-10 1.76625e-11)
(5.00224e-05 5.23827e-10 -2.28708e-11)
(5.00224e-05 5.23827e-10 2.28709e-11)
(5.00228e-05 6.58239e-10 -2.87393e-11)
(5.00228e-05 6.58239e-10 2.87394e-11)
(5.00233e-05 8.19089e-10 -3.57622e-11)
(5.00233e-05 8.19089e-10 3.57623e-11)
(5.00237e-05 1.01198e-09 -4.41838e-11)
(5.00237e-05 1.01198e-09 4.41839e-11)
(5.00241e-05 1.22194e-09 -5.3351e-11)
(5.00241e-05 1.22194e-09 5.33511e-11)
(5.00244e-05 1.4736e-09 -6.43388e-11)
(5.00244e-05 1.4736e-09 6.4339e-11)
(5.00246e-05 1.73299e-09 -7.5664e-11)
(5.00246e-05 1.73299e-09 7.56643e-11)
(5.00248e-05 2.029e-09 -8.8588e-11)
(5.00248e-05 2.029e-09 8.85883e-11)
(5.00248e-05 2.32087e-09 -1.01331e-10)
(5.00248e-05 2.32087e-09 1.01332e-10)
(5.00204e-05 -1.80817e-18 4.60652e-17)
(5.00208e-05 4.58797e-11 -2.00315e-12)
(5.00208e-05 4.58797e-11 2.0032e-12)
(5.00207e-05 2.03908e-11 8.90331e-13)
(5.00207e-05 2.03908e-11 -8.9028e-13)
(5.0021e-05 6.83171e-11 -2.98278e-12)
(5.0021e-05 6.83171e-11 2.98284e-12)
(5.00212e-05 1.13698e-10 -4.96417e-12)
(5.00212e-05 1.13698e-10 4.96423e-12)
(5.00216e-05 1.5193e-10 -6.63342e-12)
(5.00216e-05 1.5193e-10 6.63348e-12)
(5.0022e-05 2.25269e-10 -9.83546e-12)
(5.0022e-05 2.25269e-10 9.83554e-12)
(5.00224e-05 2.98627e-10 -1.30383e-11)
(5.00224e-05 2.98627e-10 1.30384e-11)
(5.00229e-05 4.0853e-10 -1.78368e-11)
(5.00229e-05 4.0853e-10 1.78369e-11)
(5.00233e-05 5.36038e-10 -2.34039e-11)
(5.00233e-05 5.36038e-10 2.3404e-11)