/*--------------------------------*- C++ -*----------------------------------*\
  =========                 |
  \\      /  F ield         | OpenFOAM: The Open Source CFD Toolbox
   \\    /   O peration     | Website:  https://openfoam.org
    \\  /    A nd           | Version:  8
     \\/     M anipulation  |
\*---------------------------------------------------------------------------*/
FoamFile
{
    version     2.0;
    format      ascii;
    class       volVectorField;
    location    "0.0900000";
    object      U;
}
// * * * * * * * * * * * * * * * * * * * * * * * * * * * * * * * * * * * * * //

dimensions      [0 1 -1 0 0 0 0];

internalField   nonuniform List<vector> 
900
(
(0.695396832854973 0.000378441907555954 -5.65671862277719e-19)
(0.695817272225115 0.000210085888301531 5.69653739147439e-18)
(0.695754238158831 0.000174938144642968 3.01489303716277e-18)
(0.695765295574881 0.000198969664464937 1.54271153822476e-18)
(0.695634729788279 0.000206786642024082 4.35474314104547e-18)
(0.695464870965599 0.000212925036439314 7.60007925422467e-18)
(0.695276248286832 0.000217022450755395 -5.58996518804802e-19)
(0.695082442687392 0.000220728089763316 3.33686969217051e-17)
(0.694886457628169 0.000223872458136149 3.58217697480656e-18)
(0.694686872044558 0.000226697568220386 -2.33312243312661e-17)
(0.694482421341271 0.000229511245590429 -6.9349136529361e-18)
(0.694272814809985 0.000232478831569459 -2.09427435280328e-18)
(0.694058588308389 0.000235499858031993 2.57661423529527e-18)
(0.693839059429388 0.000238052423438112 2.29517843588042e-17)
(0.693613185867261 0.000240345109542084 1.48795450784591e-17)
(0.693381559304645 0.00024259163027699 6.95172518577053e-18)
(0.693145174777249 0.000245310562118699 1.1150823528606e-18)
(0.692903033213698 0.000247750290760775 -1.00579524609992e-17)
(0.692653302638502 0.000250112157467694 -3.04003482554057e-17)
(0.692395719379302 0.000252490155144967 1.23399791586706e-17)
(0.692131485417719 0.000255210909342194 -4.88226937716192e-17)
(0.691860907962602 0.000257777840477255 2.10741018495998e-17)
(0.691582714759291 0.000260168669544255 5.75911167150252e-17)
(0.691296463051545 0.000262590386391518 -1.84354207917105e-17)
(0.691002881856921 0.000265555132206754 -2.84921989302022e-17)
(0.690701072898822 0.00026914074973103 -3.24655376118058e-17)
(0.690389552429368 0.000272462139652011 4.68963297559876e-17)
(0.69006865827803 0.00027555412892073 2.35468916965709e-17)
(0.689739196610196 0.000279069730465546 5.00187628501244e-17)
(0.689400797491765 0.000284027771737518 6.23772000319967e-17)
(0.689053521889744 0.000288391962548724 5.7552418458026e-17)
(0.688697191856372 0.000292942628194118 8.26025133307864e-17)
(0.688329479774553 0.000298322371968887 -1.90826624941906e-17)
(0.687951750213046 0.000305440549639234 -2.5862307964921e-18)
(0.687566438736644 0.000312782185693871 1.54747635884829e-17)
(0.687172321043301 0.00032028036156548 8.73385984547459e-18)
(0.686767161399875 0.000328823327190077 2.02039216939224e-19)
(0.686352725400735 0.000340194369063702 5.24391302994895e-17)
(0.685931684586194 0.000354091623851555 -2.21710420149833e-17)
(0.685503612902575 0.000367643532860186 4.0382495559842e-18)
(0.685067397975828 0.000382213263670418 3.45757142045631e-17)
(0.684626867152087 0.000400617026565185 -2.71498931716127e-17)
(0.684185234765862 0.000427301837592124 -5.49219245418475e-17)
(0.683742996750439 0.000452389874556179 -1.07249956909569e-16)
(0.683300983867627 0.000478751668727491 -2.89452911812505e-17)
(0.682863442516342 0.000510067593420498 5.09286208966367e-18)
(0.682439392938063 0.000556990691980215 -1.27185025373736e-16)
(0.682033189849713 0.000603560164937285 -2.00953774189874e-17)
(0.68164750359732 0.000651293068225146 -1.12271615838249e-16)
(0.681289912969095 0.000706236883222998 -5.55336650509843e-17)
(0.680973654989375 0.000784318715559562 -7.29183683727071e-17)
(0.68071204926826 0.000872106597233146 7.18196374121171e-17)
(0.680517395086683 0.000958160088837574 -6.01917324413842e-18)
(0.680402377133975 0.00105234699208681 2.56002385307732e-17)
(0.680408367262169 0.00117588863187593 9.47337735058516e-17)
(0.680566253318748 0.00134513703977808 3.81692530315761e-17)
(0.681007009587096 0.00155505323227677 -2.45347536803113e-17)
(0.681983633928645 0.00181223763421355 -6.19328295414391e-17)
(0.683905405858416 0.00218287204595053 -3.92998320724004e-17)
(0.686992981296089 0.0028742251499017 -2.29432802610975e-17)
(0.691226408792838 0.00349609519417101 3.41899406610244e-17)
(0.696662577551778 0.00409748093594151 -4.49834733927888e-17)
(0.70342208779802 0.00471415420502718 -5.5332640780554e-17)
(0.711399713176146 0.00558426326091096 5.80391856920504e-19)
(0.72057340181426 0.00607011504413317 3.44452733751725e-17)
(0.731155046295288 0.00641394803449394 1.7902127080055e-17)
(0.743057777971715 0.0066805884576172 8.09464479193828e-17)
(0.756088021577515 0.00701749318868034 1.34786511145149e-17)
(0.770107042913432 0.00693630993246932 5.67105319859153e-17)
(0.785119664378786 0.00669541417258476 7.03928547633489e-17)
(0.80080687014217 0.00636545074914391 6.7886653712696e-17)
(0.816994615500473 0.00590494638818883 8.53116910296772e-17)
(0.833561286564857 0.00526647834727107 -3.02818071564062e-17)
(0.850376475282976 0.00456924585320959 2.05087801212493e-17)
(0.867258822576755 0.0038186079571253 2.0867337185112e-17)
(0.884214880894352 0.00300974860367087 1.21224654689006e-18)
(0.901137699880206 0.00224711903873238 1.77228922820677e-17)
(0.918125364434962 0.00151124390172497 -1.62024331361655e-16)
(0.93497518614803 0.000819549007305264 -7.09361490363624e-17)
(0.952144053171044 0.00020055857785123 -1.0131731560557e-16)
(0.969067894239819 -0.000285170163762679 -4.92146706474362e-18)
(0.987205024737363 -0.000751607922719522 1.78671809079883e-16)
(1.00439480421382 -0.000902317395011842 6.81043571413183e-17)
(1.02461004980897 -0.00120674986105112 1.47244486164158e-16)
(1.04211312415455 -0.00113123414164274 -6.9536872828914e-17)
(1.06707661519663 -0.00120250851398258 -2.62913407608931e-17)
(1.07698156052616 -0.00013196551007579 -1.73998227552249e-17)
(1.07474874818244 -0.000232111264228194 -4.65905762833494e-18)
(1.07938420070239 0.000101925227340649 1.9605467137168e-18)
(1.0790152992068 0.000222461916083671 -8.40991387584427e-20)
(1.08078063908872 0.000323791156793084 2.77735714582599e-17)
(1.08081084095354 0.00034588982653315 -1.25129736487942e-17)
(1.08140152285117 0.000416928013718984 -3.01372298082261e-17)
(1.08121937145947 0.000413257151126371 -1.8466079483731e-17)
(1.08128083804751 0.000418103391316043 6.04541348969724e-18)
(1.08106828368712 0.000409427286791027 5.54113505279618e-18)
(1.08095787314296 0.000389298001785747 1.96814395099851e-18)
(1.0807314182843 0.000371350217162723 -1.86901575169079e-18)
(1.08044268890715 0.000374722413292002 -2.92125517247388e-18)
(1.07963321819372 0.000343805879707599 1.2883189257766e-18)
(0.343332464396478 0.00197403946998095 4.14963826018149e-18)
(0.344962960481475 0.00206432364593259 4.62920561118108e-18)
(0.344918089746928 0.00214302496822279 1.97738091973854e-17)
(0.34485364386216 0.00227767183288511 7.94133470049397e-18)
(0.34445368087411 0.00235479859564197 1.95380571398962e-17)
(0.343948712329825 0.00239331378460908 1.51759871196415e-17)
(0.343395529841155 0.00241363916333411 3.20759881642844e-17)
(0.342824536417299 0.00242811332923773 6.51212772044029e-17)
(0.342242594026877 0.00244041784564947 -6.05157444134775e-18)
(0.341649268235392 0.00245209673679174 -1.31552775502238e-17)
(0.341043005513514 0.00246393076512254 -1.23704748298602e-17)
(0.340423203791325 0.00247621523845433 -1.35403184021542e-17)
(0.339789791913238 0.00248872840756587 7.11710193685999e-17)
(0.339141645071718 0.00250048879179561 7.55945138976173e-17)
(0.338477171509801 0.00251188736682035 4.43986826692222e-17)
(0.337795996892048 0.00252334475644502 2.04480377338594e-17)
(0.337098550030271 0.00253581832049534 1.96054703344567e-18)
(0.336383812663815 0.00254795835749496 1.5448115093772e-17)
(0.335649729349432 0.0025601407546686 -7.06544631822687e-17)
(0.334895356660432 0.00257256128367306 -4.35288328328578e-17)
(0.334121034001441 0.00258583813412907 -1.4064026726465e-16)
(0.333326346741373 0.00259904913825822 -3.83517446531045e-17)
(0.332509548194314 0.00261216298420077 5.46214995946672e-17)
(0.331669263940758 0.00262564103914682 4.74176667258607e-18)
(0.330805294573387 0.00264048554084128 8.88448855366485e-18)
(0.329917004861304 0.00265682952251475 -1.38592052823167e-17)
(0.329002787348663 0.00267301100671636 1.16483668335998e-16)
(0.328061058654077 0.00268913103781793 6.54402470262215e-17)
(0.327091175788464 0.00270648279924689 1.49964807571624e-16)
(0.326093327002215 0.00272703248980432 1.88954848559976e-16)
(0.325066713613352 0.00274694627506802 1.40415918619894e-17)
(0.324009138703854 0.00276768952481403 7.82596839517662e-17)
(0.322918427740274 0.00279064830834254 -6.4424351884282e-17)
(0.321795851629196 0.00281765946547906 -2.95667786595254e-17)
(0.320642435428911 0.00284579535416791 4.66774113870491e-17)
(0.319455879634912 0.00287488860210689 2.20471876860035e-17)
(0.318233584326182 0.00290689290278958 -4.18120555265972e-18)
(0.316977598384994 0.00294552240845857 1.6182423756172e-16)
(0.315691535032225 0.00299014363484804 7.40211108739702e-17)
(0.314374902404642 0.0030350291205087 2.88055118883999e-17)
(0.313024926505053 0.00308295973811984 -3.80574046304615e-17)
(0.311645526280946 0.00314024974868389 -8.45240965998205e-17)
(0.310246501023328 0.00321553612940932 -1.6273234456696e-16)
(0.308831577758389 0.00328916386011342 -1.88860038765861e-16)
(0.307399078193513 0.00336631157216051 -8.24382638630565e-17)
(0.305955001084539 0.00345601845766748 2.13164144322154e-16)
(0.304521707115496 0.00357929805074571 -1.52993725536344e-16)
(0.303113850987738 0.00370422571131722 -4.97637643756534e-17)
(0.301735278250674 0.0038324715378356 -3.42916499240393e-16)
(0.300398927311446 0.00397864091712549 -1.60663594528661e-16)
(0.299143999959385 0.00417530068270304 -1.91906550667888e-16)
(0.298011999500008 0.00439477059273476 1.59206576521317e-16)
(0.29702792421354 0.00461208673475912 8.39113103387753e-17)
(0.296217980782614 0.00484862830175515 7.67092419904527e-17)
(0.295659058440604 0.00515204081607157 1.85130680023982e-16)
(0.295472239834353 0.00555798802068624 1.12470703647239e-16)
(0.295864376531783 0.00605909277658644 2.09348022229395e-17)
(0.297150583670717 0.00666865599917419 -3.02239122081489e-16)
(0.299863433296009 0.00755878982709443 -6.38511840519826e-18)
(0.304709869533033 0.0091135149495694 -1.73733090364975e-16)
(0.312079195156421 0.0105496514939889 9.00537659990255e-18)
(0.322172751335846 0.0119021723198204 -1.48477466665583e-16)
(0.335297700596774 0.0133142105782065 -1.15735537045913e-16)
(0.351875397426755 0.0151687815327587 1.11303248145424e-17)
(0.371933405074791 0.0162094340847729 1.02426177393137e-16)
(0.395315835794057 0.0168558715364653 5.17261999426273e-17)
(0.421900776442113 0.0173302877371418 2.47598132520909e-16)
(0.451635144929041 0.0178393009038908 3.90030993607639e-17)
(0.484120450427605 0.0174361172013559 1.68757025014384e-16)
(0.518814648791114 0.0166193880868576 2.09317784287587e-16)
(0.555206468082824 0.0155708496273159 2.00269971414942e-16)
(0.592897711226873 0.0141949678124923 2.61223835115077e-16)
(0.631424467689256 0.0124183452652094 -9.08514505979928e-17)
(0.670393007464408 0.0104931504898361 2.59442640091611e-17)
(0.709424824574189 0.00844068171146232 6.27132778120584e-17)
(0.748414176190686 0.00627038661591935 3.06263287712026e-18)
(0.787075549847982 0.00420864115221043 5.75520360750643e-17)
(0.825723458051082 0.0022106388122059 -2.96453751754248e-16)
(0.863818720743739 0.000320852151096316 -5.16298942179536e-17)
(0.902467532239934 -0.00138710891285015 -1.54091716707869e-16)
(0.94030252954995 -0.00279060882458645 -1.67405552785995e-17)
(0.980770658163757 -0.00413919207114416 3.88078528455858e-16)
(1.01891273792294 -0.00484005987297408 1.79256882383333e-16)
(1.06434249870101 -0.00581158458467994 3.02472333927466e-16)
(1.10277411702386 -0.0059285594884966 -2.07330158022967e-16)
(1.15942146792273 -0.00595123852322739 -9.38342361319614e-17)
(1.18004998390209 -0.000811883422370606 -5.17112112533333e-17)
(1.17089551521727 -0.000827429271000554 -1.42750674106047e-17)
(1.17860429455123 -5.99303798744743e-05 5.7656947781609e-18)
(1.17508185076357 0.000246902984390988 1.07866253538011e-20)
(1.17750541544825 0.000521779102668614 2.07326952199966e-17)
(1.17606230841704 0.000612866471877811 -3.7978057541872e-17)
(1.1765864496836 0.000785737149632659 -2.81769435523086e-17)
(1.17564838297683 0.000814210988516536 -6.52984279859512e-17)
(1.17543808665829 0.000848396370349211 1.7192465636418e-17)
(1.17469946241626 0.000851138970093009 -2.07237056466311e-17)
(1.17426038524298 0.000831115631592103 5.24658485757548e-18)
(1.17356385446844 0.000811224569255072 -5.94773029853048e-18)
(1.17299780506137 0.000813704561243058 -1.86642682656476e-18)
(1.17190775977754 0.00066544174508636 -1.89224433473904e-19)
(0.0651657090991704 0.00420903967302138 4.22806339409137e-18)
(0.0679625589431986 0.00470397706881042 3.22195826449681e-18)
(0.0679809161914003 0.00516824720441211 8.20122554048546e-18)
(0.0677817072413983 0.00551461433933678 9.34922513114264e-18)
(0.0671336943068917 0.00570101090331487 1.43064400495486e-18)
(0.0663469556505062 0.0057866369297723 1.86318895898193e-17)
(0.06549681463581 0.00582811227506573 3.62133448665866e-17)
(0.0646203689857162 0.00585460695329972 5.17876369534732e-17)
(0.0637262650906604 0.00587663264620522 -1.65956182159067e-17)
(0.0628147310782946 0.00589774800249846 -4.49599880913937e-18)
(0.061884286245094 0.00591922311263885 -1.78336526775764e-17)
(0.060934161449885 0.00594140668413126 -2.37773507378601e-17)
(0.0599639619153347 0.00596397056365192 6.08341030454736e-17)
(0.058972250097061 0.00598597313570785 1.3057406148456e-16)
(0.0579570699956217 0.00600770647902047 7.19880920861978e-17)
(0.056917430439629 0.00602974527681063 3.36324130155375e-17)
(0.0558533653260443 0.00605294320780737 -2.07299641324615e-18)
(0.0547637598040045 0.00607613825188395 9.07140430883782e-18)
(0.0536463272152842 0.00609956238845547 -1.11352298851127e-16)
(0.0524997011842291 0.00612354332946049 -1.52487626929371e-16)
(0.0513236317807197 0.00614861693210055 -2.60302063762483e-16)
(0.0501172259652449 0.00617395144931609 -7.29513522112819e-17)
(0.0488782767347633 0.0061994673020849 6.73741663857861e-17)
(0.0476048367971197 0.00622573012684724 4.744815426583e-17)
(0.046296091348277 0.00625385040203563 4.41994613409353e-17)
(0.0449515018399191 0.0062839295069012 -1.98049556233566e-17)
(0.0435692240761797 0.00631429334157158 8.72229302143604e-17)
(0.0421465483393558 0.00634494081806827 9.14183065280954e-17)
(0.040681721484127 0.00637753294073344 1.58153570540426e-16)
(0.0391752567830073 0.0064138348741904 1.20568918813399e-16)
(0.0376258504611481 0.00645021248861424 -2.90848858266071e-17)
(0.0360298439666467 0.00648789705179843 2.99679081628219e-17)
(0.0343849656338628 0.00652881169329106 -5.13746503573022e-17)
(0.032692436912972 0.00657463488585156 9.55011472496485e-17)
(0.0309526903686943 0.00662251367996792 8.21549643246882e-17)
(0.0291623598396119 0.00667213022148019 2.66395426343467e-17)
(0.0273183663856742 0.0067259144112257 -1.79819395689714e-18)
(0.0254228140495156 0.00678799174338061 1.50612806736169e-16)
(0.0234808248312153 0.00685745203894367 7.37723465289504e-17)
(0.0214914876923248 0.00692844822007154 5.34586973294592e-17)
(0.0194505301516233 0.00700359924790805 -1.09874116557246e-16)
(0.0173607624752115 0.00709134583665695 -1.39427041884659e-16)
(0.0152388530851331 0.00719923786164428 -2.73367839238577e-16)
(0.0130912500658072 0.00730780185462753 -1.41114890904129e-16)
(0.0109125389489636 0.00742041349598432 -1.40063625812326e-16)
(0.00870765215565888 0.00755073258215786 2.40345332442257e-16)
(0.00651212594471666 0.00771818402797343 -2.23431595046577e-16)
(0.00435107990929921 0.00789104210849832 -6.21441056300482e-17)
(0.00222392775333127 0.00806754644976793 -4.29955907183715e-16)
(0.000144057689147579 0.00826837844483272 -2.66621986459385e-16)
(-0.00182806903804523 0.00852680253075514 -2.26066418516508e-16)
(-0.00362096638478119 0.00881318675015621 1.42903609731099e-16)
(-0.00520773899115024 0.0090985387895955 1.70513848054919e-16)
(-0.00656096224103233 0.00940738710420433 1.23971572950384e-16)
(-0.00758313831539326 0.0097976091719446 2.79894215701635e-16)
(-0.00808543595763915 0.0103091238737485 9.02383478967877e-17)
(-0.00781107930530526 0.0109380535689407 7.26760592691565e-17)
(-0.00640408619932983 0.0116936142505341 -4.47202486543686e-16)
(-0.00337301426391389 0.0128324024541005 8.94960895731273e-17)
(0.00252982141765036 0.0146680968887943 -2.14957054377596e-16)
(0.0120726083415366 0.0164272129895815 -2.26963168792682e-17)
(0.0253697261512611 0.0180230823080716 -1.92167363226259e-16)
(0.0427401246646082 0.0197426628627389 -1.01393373477067e-16)
(0.065337490652362 0.0217879153081459 -1.73859068527381e-16)
(0.0932583118321687 0.0229605887729995 1.81231405239853e-16)
(0.125701446786425 0.0235418447995018 8.14762110111081e-17)
(0.162567146066606 0.0239337638885429 2.75073981067379e-16)
(0.204236224342629 0.0241834421632306 5.82211568570588e-17)
(0.25006357629266 0.023414892229274 4.26778803277731e-16)
(0.298775550341165 0.0220602254708379 3.48747922482175e-16)
(0.349934353541228 0.0203909920772356 1.38514038353399e-16)
(0.403038725752701 0.0182881148344912 4.31817365151292e-16)
(0.457262013692097 0.0157108415583873 -1.54436539943914e-16)
(0.511990979109992 0.0129253067818731 -1.27175118226972e-16)
(0.566791358974057 0.00997991032211516 1.0388990653609e-16)
(0.621363918690964 0.00691035852211392 3.17699332893976e-18)
(0.675299309609397 0.00397001802788287 9.49248915512625e-17)
(0.729161531194333 0.00111213886781235 -4.37404903974672e-16)
(0.782055751641383 -0.00160086565588305 -4.9065326476525e-17)
(0.835510274367381 -0.00408821881693298 -1.99051634974266e-16)
(0.887693340390582 -0.00618603400493937 -3.21671637112276e-17)
(0.943337907862633 -0.00820939033417573 4.62719125088879e-16)
(0.995588775390395 -0.00952124274041182 1.86902080126026e-16)
(1.05787755772799 -0.0110982059260201 3.27337898820709e-16)
(1.11013275696374 -0.0115517607693031 -3.48776758823406e-16)
(1.18778791000974 -0.0114740758104579 -4.28896459114238e-17)
(1.21574902228291 -0.00115113647314573 -8.51088606690836e-17)
(1.20186130292435 -0.00107077449507579 -2.4077976329204e-17)
(1.21156497797631 -0.000124457496366385 9.51480575960423e-18)
(1.20607980199902 0.000217932658895099 -1.30112771791304e-19)
(1.20907547276985 0.000595305566569317 1.10324739884679e-17)
(1.20672542805343 0.000720780982826713 -2.40994688959053e-18)
(1.20728843772983 0.000919353298473901 -2.44250754550123e-17)
(1.20594320141626 0.000970879864440681 -4.45849491338651e-17)
(1.20562630180741 0.00101614785392197 9.73678937576703e-18)
(1.20461601558489 0.00101933338401335 -5.62771859864126e-17)
(1.20403978355177 0.00100078184425976 8.60532194359285e-18)
(1.2031305092959 0.000973074277144157 -1.14221683064468e-17)
(1.20259040644314 0.000931267399635797 1.03230979346511e-18)
(1.20175837247242 0.00062808248751087 -1.28039554235604e-18)
(-0.138583259067918 0.00723587726876015 2.18924039874607e-18)
(-0.135826038375906 0.00753817985737434 1.95465786213734e-19)
(-0.136000609327174 0.00857834886015175 -2.8179131026752e-18)
(-0.136467662098414 0.00918761954684146 1.08943116941195e-17)
(-0.137353184300478 0.00949442603191656 8.97516626955117e-18)
(-0.138360991217069 0.00962906985805917 2.21106534129865e-17)
(-0.139426709562722 0.00969217908209598 3.64088428093809e-17)
(-0.14052018059674 0.00973097735933588 6.60771332871728e-17)
(-0.141634966145004 0.00976304367672437 -1.35654222365246e-17)
(-0.142771024890501 0.00979398276947221 1.21338096177203e-17)
(-0.143929723094446 0.00982548623802553 -2.26590443824651e-17)
(-0.145111922499849 0.00985791571830707 -1.96801891621112e-18)
(-0.146318265279179 0.00989092122318732 5.81184574964955e-17)
(-0.147550293435604 0.00992372244323246 1.30039970259602e-16)
(-0.148810029066796 0.00995650847369791 9.61411999429283e-17)
(-0.150098811756242 0.00998985617068047 4.6787408556412e-17)
(-0.151417031860715 0.0100244368233378 -1.11974935271321e-17)
(-0.152765901808497 0.0100593889658725 -5.24134731438678e-17)
(-0.154147667652314 0.0100948377340349 -1.31010241004947e-16)
(-0.155563922118336 0.0101311422457704 -2.37437907241069e-16)
(-0.157015414370916 0.0101687188884884 -2.94510130135907e-16)
(-0.15850339592539 0.0102069252250571 -1.10529910196502e-16)
(-0.160030234337239 0.0102456813377077 1.89918180414293e-18)
(-0.161598124127303 0.0102855432153455 1.33697227008573e-16)
(-0.16320829999126 0.0103275263741651 8.53725520484507e-17)
(-0.164861439096104 0.0103717078437937 3.69951319301038e-17)
(-0.166559516418789 0.0104166752077158 1.30149010627258e-16)
(-0.168305670657119 0.0104623836379046 1.11303493130971e-16)
(-0.170102250754321 0.0105104625438097 1.83858259467621e-16)
(-0.171948955388608 0.0105623297165874 6.28440085746054e-17)
(-0.173847430074388 0.0106150103536319 -8.21908393156421e-17)
(-0.175801804425955 0.0106694421440458 -2.6570072315739e-17)
(-0.177814376837274 0.0107275842968923 -2.25569025004757e-17)
(-0.179884313139618 0.0107908191915315 1.86609520744499e-16)
(-0.182011713458479 0.0108567500429483 9.67971419547138e-17)
(-0.18420025649436 0.0109250333959438 6.1287854743748e-17)
(-0.186453000660385 0.0109980437270803 -5.16408828541759e-17)
(-0.188768067711527 0.0110795939777946 1.06931459121659e-16)
(-0.191140011326007 0.0111687529453883 7.38951765613907e-17)
(-0.193569804722474 0.0112603899464508 -6.36867439080826e-18)
(-0.196061821174945 0.0113566966075361 -1.89618513203466e-16)
(-0.198613857248421 0.0114661677239384 -1.87524961407932e-16)
(-0.20120646383228 0.0115948002855802 -3.97078886824809e-16)
(-0.203831660595557 0.011725634221938 -2.19226338510029e-16)
(-0.206495517277449 0.0118606431284784 -2.1402311193016e-16)
(-0.209193308067969 0.0120141847493755 2.15324973509178e-16)
(-0.2118836035616 0.012202465896199 -3.10369847731014e-16)
(-0.21453562661583 0.0123974834695981 -4.92572000280875e-17)
(-0.217150484991048 0.0125958295480882 -5.42569848542749e-16)
(-0.219713415100952 0.0128187110287238 -3.18621236490727e-16)
(-0.222153241469273 0.0130957922558824 -2.68183501670174e-16)
(-0.224382099125332 0.0133993853663641 1.74555087370225e-16)
(-0.226370098772417 0.0137013585380363 1.51774694720957e-16)
(-0.228086552839959 0.0140247954127545 1.64898487464793e-16)
(-0.229422064092729 0.0144257499305162 2.84700962391116e-16)
(-0.230148795322713 0.0149409556420669 1.59261119878055e-16)
(-0.229984847295932 0.0155674213108541 1.36465672468725e-16)
(-0.228548977550696 0.0163086044302221 -4.63488219885907e-16)
(-0.225388252189716 0.0174314051425303 1.44865437845656e-16)
(-0.218949856143651 0.0191848523993068 -1.36500608313668e-16)
(-0.208231380190644 0.0208612814058773 -4.24315437050974e-17)
(-0.19314388220643 0.0223273632050742 -2.5784941542981e-16)
(-0.173366549023363 0.0239033212760287 -1.15340750637168e-17)
(-0.147309910935492 0.0256947099484245 -2.32718342403077e-16)
(-0.114820244152119 0.0266208799436093 1.11643417299422e-16)
(-0.077082162949043 0.026891890258081 1.05513857616845e-16)
(-0.0341952190740721 0.0269510006601316 3.13562147342397e-16)
(0.0144846341740612 0.0267745656921962 6.8182037974065e-17)
(0.0681781032538496 0.0255886900069145 5.43990634538995e-16)
(0.125158282778358 0.0237762212901418 4.881998437632e-16)
(0.185032559937523 0.0216244131254837 2.13641561213858e-16)
(0.247237638914328 0.0190176798870676 6.27825425132255e-16)
(0.310722842507362 0.0159396680035989 -2.18314651910925e-16)
(0.374734134275111 0.0126440939055175 -3.14132932746889e-16)
(0.438804530066184 0.00918831583454137 1.47802336895265e-16)
(0.502504362306322 0.00562266228075494 1.18727169975569e-18)
(0.565342573533641 0.00218700660176139 -5.07513764628436e-19)
(0.628034107945393 -0.00116160956898392 -5.75658998681716e-16)
(0.689459797584582 -0.00435505162696563 -1.53223192313736e-16)
(0.751380760485379 -0.00731915716380486 -1.0779468990005e-16)
(0.811700872969629 -0.00990006176769339 -5.16209800342557e-17)
(0.875874685449238 -0.0123996373689547 5.33605504278601e-16)
(0.935954874187865 -0.01424024780068 2.8567762298335e-16)
(1.00753081182555 -0.0163165156189767 3.61299085425192e-16)
(1.06726211114522 -0.0172643467059608 -3.71870363196063e-16)
(1.15670084479435 -0.0168876594472116 -3.31091346817188e-18)
(1.18873517123643 -0.0012830880150117 -1.11131728118867e-16)
(1.17174454475249 -0.00104058750123511 -4.15952495769202e-17)
(1.18243974249184 -0.000158109288090634 1.33599110412195e-17)
(1.17582396663096 0.000211273959215432 -4.84914836946828e-19)
(1.17913028915494 0.000562863257512172 5.46827319479543e-18)
(1.17628158001501 0.000705389988676894 1.6593452583596e-17)
(1.17689289065285 0.000886237548237707 -5.12039906732553e-17)
(1.17536482787284 0.000945848329124803 -3.61534005408209e-17)
(1.17503424110401 0.000987577899991322 8.0475360280251e-19)
(1.1739230961886 0.00099172185484284 -6.64158576969715e-17)
(1.1733232893403 0.000973327835067201 -1.93055992622045e-18)
(1.17235322544074 0.000942569047952369 -4.89443845956775e-18)
(1.17190635177188 0.000884493851144484 5.20793803437617e-18)
(1.17131423482193 0.000575664549800249 9.97330815306375e-20)
(-0.268627696160619 0.00949293069949658 1.37319906744342e-18)
(-0.267398803646767 0.0100614310000038 -4.23421865811144e-19)
(-0.268115347995367 0.0116276973483154 -1.40749531741302e-18)
(-0.26898546834557 0.0124461748417871 1.76969799751048e-17)
(-0.270080610936432 0.0128371716777658 1.21580909153176e-17)
(-0.271230704628005 0.0130043166604964 2.51715197503634e-17)
(-0.272414101158808 0.0130825170794551 3.25623319142901e-17)
(-0.273619835862464 0.0131310428974475 3.86344775845444e-17)
(-0.2748472819025 0.0131717265985918 -1.68736903556643e-17)
(-0.276097499265997 0.0132113053967145 -2.00049039476287e-17)
(-0.277371815856902 0.0132516333458606 -4.03798181814798e-17)
(-0.278671095482558 0.0132930418544086 -2.81704906260932e-17)
(-0.279996099776635 0.0133352229946154 5.77471294460347e-17)
(-0.281348317753414 0.0133775658891275 1.43607946142172e-16)
(-0.282729651479926 0.0134202027106618 1.21298267758211e-16)
(-0.284141579923644 0.0134636134825078 6.1776997858623e-17)
(-0.285584814698194 0.0135083215585476 -2.40446368622525e-17)
(-0.287060600074472 0.0135537072936899 -8.7920238664367e-17)
(-0.288570986098967 0.0135998636985621 -1.641388187547e-16)
(-0.290117622617402 0.0136471023632807 -2.5973907134144e-16)
(-0.291701589440042 0.0136957540275151 -2.81061153635504e-16)
(-0.293324332743596 0.0137453492822377 -1.31987103792833e-16)
(-0.29498816427317 0.0137958426479663 -6.9379597205141e-17)
(-0.296695290008598 0.0138477113477109 8.82786921967577e-17)
(-0.298447167947741 0.0139017877170579 1.29128310202685e-16)
(-0.300244630425866 0.0139581443185041 7.24706840221882e-17)
(-0.302089645393245 0.01401569662951 1.92652559027351e-16)
(-0.303985349725375 0.0140744181775683 1.24601685211386e-16)
(-0.305934315306371 0.0141356599830224 1.12508830945321e-16)
(-0.307936582655244 0.0142005530049527 9.86401706274206e-17)
(-0.309993948994921 0.0142667968051067 -6.32080913524639e-17)
(-0.312110445432229 0.0143351315750464 -6.08763204618417e-17)
(-0.314288293306497 0.0144072049780378 6.22245749446891e-17)
(-0.316527095701712 0.0144841372236624 2.05606880429125e-16)
(-0.318827338343391 0.0145640470925874 1.57975463676055e-16)
(-0.321192566250884 0.0146466666407983 -4.78027786338817e-17)
(-0.323625559703867 0.0147339824414265 1.79820378366164e-17)
(-0.326124783676098 0.0148291328647407 2.50326455685905e-16)
(-0.328685099148894 0.0149313395996023 1.25874713948698e-16)
(-0.331307367263465 0.0150364546369899 8.6022102652801e-17)
(-0.333995430747342 0.0151462404258213 -1.36737233997098e-16)
(-0.33674753022957 0.0152678186324555 -2.22941441990494e-16)
(-0.339544025744587 0.0154058928273102 -4.044764203153e-16)
(-0.342376373816035 0.0155466085462346 -2.86675463485999e-16)
(-0.345249933746519 0.0156913497143138 -1.76996565546685e-16)
(-0.348160150004382 0.0158522580400137 2.26233568610799e-16)
(-0.351064777686969 0.0160422662015411 -4.20973894936843e-16)
(-0.353931179189948 0.0162381721134256 -7.84726989800416e-19)
(-0.356759573540377 0.0164367001472851 -6.68941241396488e-16)
(-0.359534520413983 0.016655658268772 -2.63325203388721e-16)
(-0.362182452988617 0.0169191270408802 -3.40196791883435e-16)
(-0.364610015498153 0.0172033459402298 1.98601279427387e-16)
(-0.3667856748571 0.0174842175160731 1.30792574062415e-16)
(-0.368676887842326 0.0177806742176486 2.02461479490466e-16)
(-0.370172094616194 0.0181391422210798 2.96464668235958e-16)
(-0.371030492674864 0.0185886806836296 2.24919231742274e-16)
(-0.370969112421034 0.0191249303380619 2.09123243924469e-16)
(-0.369606107473616 0.0197466380106257 -5.58683988592611e-16)
(-0.366538170480081 0.0206791541875274 -1.89999953575458e-17)
(-0.360102436734455 0.0221142551697129 -8.67844519989068e-17)
(-0.349192278779116 0.023447481657432 -5.46728355192034e-17)
(-0.333723372440553 0.0245552996006509 -2.74768880752576e-16)
(-0.313392669104965 0.0257124427516323 6.09120193122595e-17)
(-0.286415817038941 0.0269830275902253 -1.20098965247839e-16)
(-0.252599806859001 0.0274550832981168 5.63244534591186e-17)
(-0.213307785621034 0.0273098414939623 1.23380059825128e-16)
(-0.16864593636449 0.0269328997540707 2.1636162958148e-16)
(-0.117838223169119 0.0262888743003162 6.64610322221093e-17)
(-0.0617031916460278 0.0247349031233367 6.6743304489826e-16)
(-0.0021751705764321 0.0226100334800041 4.85247292169871e-16)
(0.0603915607521656 0.0201640848770128 1.22047197546535e-16)
(0.125418489245534 0.0173044860972893 6.49413864224884e-16)
(0.191760970342607 0.0140307936622031 -2.84595601087316e-16)
(0.258605265809012 0.0105663750340831 -4.96602450529511e-16)
(0.32548118279265 0.00696398385357872 5.37071022821508e-17)
(0.391893482531182 0.00327693940555571 -2.7867167580146e-18)