/*--------------------------------*- C++ -*----------------------------------*\
  =========                 |
  \\      /  F ield         | OpenFOAM: The Open Source CFD Toolbox
   \\    /   O peration     | Website:  https://openfoam.org
    \\  /    A nd           | Version:  8
     \\/     M anipulation  |
\*---------------------------------------------------------------------------*/
FoamFile
{
    version     2.0;
    format      ascii;
    class       volVectorField;
    location    "0.0830000";
    object      U;
}
// * * * * * * * * * * * * * * * * * * * * * * * * * * * * * * * * * * * * * //

dimensions      [0 1 -1 0 0 0 0];

internalField   nonuniform List<vector> 
900
(
(0.701783587899124 0.000376129224528642 7.16652804450357e-18)
(0.702223408236082 0.000210185822903635 -2.32241346045197e-18)
(0.702172677921274 0.000173704272524427 -8.76197469780595e-18)
(0.702199733704387 0.000197752142793491 -3.19854905303247e-18)
(0.702084992606736 0.000205523706976593 -2.15473945674981e-18)
(0.701930664027499 0.000211457301572804 2.54188214878799e-18)
(0.701758434401889 0.000215463948909535 -1.34098689594723e-18)
(0.701581382600826 0.000219424305576069 9.33550227866311e-18)
(0.701401609871488 0.000222531289508381 9.47420040134097e-18)
(0.701218140366166 0.000225247118879223 9.33823501268728e-18)
(0.701030432872439 0.000227965072445688 4.5954956666031e-17)
(0.700838845152596 0.000230964844080945 9.80214591068349e-18)
(0.700643189089939 0.000233669495069444 2.17175202052266e-18)
(0.700442565002438 0.000236042080735233 3.23229543562163e-18)
(0.700236582792011 0.000238413454750234 1.28050460012236e-17)
(0.700025040325005 0.000240977069729961 9.35144712009588e-18)
(0.699808771385697 0.000243442318502368 3.19869531855217e-17)
(0.69958757892862 0.000245597939139826 -5.24913306723646e-18)
(0.699359984760002 0.000247794617567469 3.5074393463251e-18)
(0.699125913799088 0.000250258784576618 -2.3127512021252e-17)
(0.69888573965226 0.000253031616946888 2.38909003221261e-17)
(0.698639110399252 0.000255371527146348 2.51121321456183e-17)
(0.698385366233899 0.000257570658189416 3.75976292771901e-17)
(0.698124572209899 0.000260041768966923 2.41485803849344e-18)
(0.697857071967411 0.000263315246817928 3.63116720840766e-17)
(0.697582389738622 0.000266114155028266 1.99372562414429e-17)
(0.697299563948223 0.000268850697002521 -1.51107171361229e-17)
(0.697008168630812 0.000271949664739935 3.39634403131303e-17)
(0.696708924701681 0.000276075394148249 4.60760623129245e-17)
(0.69640213238535 0.000279954036268088 -2.31255630970871e-17)
(0.696086936420546 0.000283729201376206 8.96934955951075e-17)
(0.695762775088126 0.000287995806734551 7.33244936921542e-17)
(0.695429855004232 0.000293730712013438 6.85652977221004e-17)
(0.695088993450587 0.000299856296184225 6.80436464725149e-17)
(0.694740062880597 0.000305757480730161 -3.4440730998517e-18)
(0.694382179295701 0.000312387286528451 -1.3867903350451e-17)
(0.694015487047312 0.000321299106063018 -9.8726417761161e-19)
(0.693641933964246 0.000331996907541438 -6.53446079254433e-17)
(0.693261875429571 0.00034225858796602 -7.02652389683973e-17)
(0.692873907862133 0.000353463902882405 5.57192849309018e-17)
(0.692479789851893 0.00036805480554013 -6.31486331446563e-17)
(0.692083007736317 0.000387809331955223 -6.01565558494522e-18)
(0.691684583311981 0.000406383869751522 -3.51897845567261e-17)
(0.691283901825607 0.000426177064563276 3.07213337636045e-17)
(0.690884219868521 0.000450922286768575 -8.30546814055968e-17)
(0.690492161737084 0.000487914376166437 -6.89728742526367e-17)
(0.690110890619525 0.000522038356568929 -2.43225551868703e-17)
(0.689740908344814 0.000557686630043991 -7.35212737213484e-17)
(0.689388439653003 0.000600216100007006 3.50868474881841e-17)
(0.689065992553083 0.000665842639285786 1.76358709318563e-17)
(0.688780330202417 0.000727833740847452 5.89126074479607e-17)
(0.688537909826444 0.000791002169042491 2.01893718291654e-17)
(0.688353885384453 0.000864606167228416 -6.90587646378131e-17)
(0.688244524538223 0.000975338829162653 -5.95913801110022e-17)
(0.68823031820198 0.00108670781820617 -2.7587620698251e-17)
(0.688334893392488 0.00119826181238301 -9.61365254837195e-17)
(0.688609684263197 0.00133185742376794 8.47005810061018e-18)
(0.689225049046534 0.00157024894100367 4.52337446890314e-17)
(0.690480676753989 0.00191091176989475 -3.83953006143026e-17)
(0.692626581164674 0.00229775609285214 -2.67186886527044e-18)
(0.695863450630481 0.00276530088043338 4.74231790749915e-17)
(0.700323463750354 0.00347567328082527 8.3106139468508e-18)
(0.70591159589348 0.00421771050682126 -8.99065534862713e-18)
(0.712654504454693 0.00477586199060528 9.13708633151611e-17)
(0.720684803977908 0.00527457287263003 -1.46390176826534e-16)
(0.729958922497727 0.00587022939812259 -2.43163074099246e-17)
(0.740406757788517 0.00630712788784366 -4.29247458383258e-17)
(0.752087041840613 0.00647769697048548 4.58981944141473e-17)
(0.764968344852785 0.00653062734872431 -1.48311450966393e-17)
(0.778800909351696 0.00656892184430536 -1.30517518636917e-18)
(0.793431543287054 0.00633548846423628 6.91892560568095e-17)
(0.808802202549629 0.00592958722519897 3.49014717965512e-17)
(0.824671995398541 0.00543842324729757 9.36761924978873e-17)
(0.84089708021871 0.0048432538075825 5.97217067404645e-18)
(0.857373682106957 0.00414603716869298 1.54815822909453e-18)
(0.874040533447547 0.00342950164219794 -2.31103729255169e-18)
(0.890713220493339 0.00269423288191984 7.32009043538198e-17)
(0.907552079804651 0.00192990868877113 -2.1196905689685e-17)
(0.924310739898168 0.00126189154982572 -5.36913915561284e-17)
(0.941489013463424 0.000624257299173671 5.1860605095982e-17)
(0.958386223653446 0.000102032775248795 1.6844646719876e-16)
(0.976416199426942 -0.000381144807804904 1.91873684965033e-16)
(0.993579743476647 -0.000666397988226901 1.30970000515018e-16)
(1.01411710606979 -0.00102771673748623 -3.86639537092401e-17)
(1.03145168246421 -0.000834695137894415 -5.83896041758079e-17)
(1.05636105430847 -0.00109862800530777 4.50046239383318e-18)
(1.06662878020474 -0.000196942708805387 -3.60242733258936e-17)
(1.0643585630027 -0.000148968837481986 -3.49379709371253e-17)
(1.06874255468136 0.000148717627438246 -5.29333777336294e-17)
(1.06834200592831 0.000146590558792317 -2.87612080446761e-17)
(1.07031892890276 0.000289335564417738 2.93144374330959e-18)
(1.07021727211681 0.00033559778441976 -1.47864598529976e-17)
(1.07073779977486 0.00036438897987888 -3.70187924962458e-18)
(1.07057646076636 0.000366112510042634 -9.08226976874501e-18)
(1.07058715552838 0.000380561547450622 -6.67047349624952e-18)
(1.07031224502369 0.000362908943180962 6.15720325604855e-18)
(1.07014729519194 0.000352414319019074 4.70228646276199e-18)
(1.06983452962338 0.000333835037408491 -2.71279146732739e-18)
(1.06955369425728 0.000311503984783157 -1.20659762667601e-18)
(1.06867967229481 0.000363240425574175 9.59149434898381e-19)
(0.348425213233168 0.0019631000640347 3.67433065293187e-18)
(0.350098778367197 0.00206009188566312 -1.07051430583057e-17)
(0.350088627997538 0.00213621566779806 -1.78788173524776e-17)
(0.350065035551383 0.00227090718699839 -8.20318263636918e-18)
(0.349706109537088 0.00234857243875002 -7.08986992995215e-18)
(0.349240893011626 0.00238713676605657 9.29240062818287e-18)
(0.348727713561848 0.00240732630638727 -5.05451451794738e-18)
(0.348197592780702 0.00242201760111398 2.78636262790426e-17)
(0.347657275167221 0.00243395772355114 2.76201289642327e-17)
(0.347106312305137 0.00244513190604221 2.61846078719819e-17)
(0.346543695360544 0.00245644031300438 7.115784818594e-17)
(0.345969442127056 0.00246839538713354 1.99743501241103e-17)
(0.345382969009645 0.00247995708265316 5.31419577309925e-18)
(0.344782811677755 0.00249103881624072 1.28027426926555e-17)
(0.344168006103858 0.00250221049321186 -4.21946127702277e-17)
(0.343538317137218 0.00251384312216327 2.32178307534254e-17)
(0.342893823324237 0.00252545067568139 -1.37877179170574e-17)
(0.34223354339363 0.00253664135199526 2.90712681258534e-17)
(0.341555850435188 0.00254807535116977 1.64620840964983e-17)
(0.340860299393188 0.00256020200551535 -4.81279659765396e-17)
(0.340146934924327 0.00257309860797979 2.81907994558911e-17)
(0.339414802929662 0.0025854008915515 1.03500152139186e-16)
(0.338662256457966 0.00259767304361108 1.12058263874914e-16)
(0.337888625168073 0.00261071718497209 1.23854675453164e-16)
(0.337094197631649 0.00262554186052712 1.42935428126926e-16)
(0.336278015916103 0.00263978115346357 7.20718812431771e-17)
(0.335437988594379 0.00265420741442772 -5.20517101730464e-17)
(0.334573010221039 0.00266968374536405 1.28739202186649e-17)
(0.33368360827439 0.0026875010190093 5.48883523112975e-17)
(0.332769373835707 0.00270525440499534 7.37490803799857e-18)
(0.331828203774916 0.00272320921428659 1.59563230281465e-16)
(0.33085859517795 0.00274260630463398 2.23010931014408e-16)
(0.329860910931064 0.00276539013501045 1.08911966209154e-16)
(0.328835583404707 0.00278950250302393 1.01195230522388e-16)
(0.327780988059615 0.00281373933690288 -1.55812415527251e-17)
(0.326695109875139 0.00284008354766691 -4.10517560238057e-17)
(0.325578752032231 0.00287173331660781 1.71335454582252e-18)
(0.324434426715543 0.002907713715659 -8.13227185548273e-17)
(0.323261490535488 0.0029436293491585 -5.99325701378737e-17)
(0.322057268785917 0.00298230401037125 2.60920773840742e-17)
(0.320824308812902 0.00302901477157772 -3.79585761512821e-17)
(0.319569657155028 0.00308717037222832 -1.18206905974233e-17)
(0.318295263432216 0.00314416869605421 -1.0715874402644e-16)
(0.31699859900979 0.00320461522754497 -3.73434109045044e-17)
(0.31568496189546 0.00327717665287742 -2.54085649918431e-16)
(0.314371425521588 0.00337599415473306 -2.05683001956422e-16)
(0.313066429431885 0.00347091818175632 -6.95904712683986e-17)
(0.311769062824808 0.00356970002939141 -6.9744482812498e-17)
(0.310490266389783 0.00368582923386678 -2.50740230013659e-17)
(0.309265353417617 0.0038509460279947 4.24648225237516e-17)
(0.308116895596455 0.0040115391230665 1.91503720078954e-16)
(0.307053207914619 0.00417474836570846 6.15861746875526e-17)
(0.306100130089095 0.00436405227114801 -1.05720918076045e-16)
(0.305321409272966 0.00463206078241877 -1.80378874014676e-16)
(0.304775019466717 0.00490540467925163 -7.8108804238409e-17)
(0.304500299204695 0.00517943704077741 -3.90417591740587e-16)
(0.304584655759007 0.00551010444301476 3.83698642840325e-17)
(0.30531160536197 0.0060726975199515 2.28227398617373e-16)
(0.307133514526939 0.00686451815784101 9.72763898844052e-17)
(0.310465067074906 0.00776467112972942 -6.09301031637646e-18)
(0.315726159470522 0.00885948503395344 4.44758404936922e-17)
(0.323510247447368 0.0104641419756777 -7.19179614338308e-18)
(0.334212201707699 0.0121213873571065 -5.9536586307919e-17)
(0.347939013611028 0.0133604284948722 2.22049054827806e-16)
(0.364777832701295 0.0144464764915933 -2.85610492773686e-16)
(0.384931514220854 0.0156823488472251 -7.06897140283937e-17)
(0.408441824388036 0.0165298620389593 -1.311029062025e-16)
(0.435076410952205 0.0167545774128447 1.45279311717845e-16)
(0.464548774460665 0.0166858682218621 -4.54968879338239e-17)
(0.496584506303926 0.0165058557663182 -5.97824733486376e-18)
(0.530793021832549 0.0157090113847078 2.71869633668731e-16)
(0.5666854933153 0.0144955763995099 -4.12569403114076e-17)
(0.603759974458477 0.0130631538064442 2.68297332364512e-16)
(0.641677762825261 0.0113789945922674 1.82578414199547e-16)
(0.680051536641896 0.00946684029899729 6.28366118381891e-18)
(0.718724649131855 0.00750274639975386 -7.18566297432528e-18)
(0.757290519616217 0.00549365444145127 -6.29553056738872e-17)
(0.796020149821422 0.00343551474926169 -2.29989102295234e-16)
(0.834311681592081 0.00160039807335701 -1.62457662175928e-16)
(0.873436342669561 -0.000161383173008499 1.51445249515324e-16)
(0.911675596760501 -0.00166978841084783 7.5557608486874e-17)
(0.95252089417233 -0.00307455482384172 5.64499010997281e-16)
(0.991043872398087 -0.00403475038652686 2.48829878170264e-16)
(1.03736729381453 -0.00515618893959319 1.40381052679151e-17)
(1.07606368705793 -0.00511216851850487 -4.66723903939925e-17)
(1.13344865116967 -0.00551427322464177 1.58818479884675e-17)
(1.15475184580246 -0.000883296214109135 -1.24096727110733e-16)
(1.14548352969426 -0.000663794458568338 -9.51134259857611e-17)
(1.15317159923246 2.98029780027992e-05 -1.59348779097856e-16)
(1.14952126686728 0.000113124179364573 -6.41993318244088e-17)
(1.15211720196099 0.000444727369807465 1.09673131339946e-17)
(1.15045632030089 0.000580191046422832 -5.03556131772572e-17)
(1.15084643874162 0.000680069264611972 -1.08150145973097e-17)
(1.14978158778962 0.000712146123359141 -3.14842713008818e-17)
(1.14941474786501 0.000762951092396489 -2.01864389288462e-17)
(1.14848792098469 0.000752013729285137 1.78995819774388e-18)
(1.14786933874151 0.000747257141972107 1.39592568213797e-17)
(1.14698213001006 0.000722506475101882 -3.22512996079038e-18)
(1.14630377607123 0.000689974112695832 -3.56210286998497e-18)
(1.14507661758846 0.000671770958197393 3.9341666615419e-18)
(0.0692213842704368 0.00418542377647543 8.28255582368751e-19)
(0.072072365070031 0.00468936364180156 -7.85118939914407e-18)
(0.072143446520358 0.00515044687133228 -1.11397213997533e-17)
(0.072002899047446 0.00549837904560659 -8.536939543187e-18)
(0.071412906101448 0.00568665247162359 -1.54699080506194e-17)
(0.0706825807171906 0.0057730375174541 2.35276685625504e-17)
(0.0698890202628798 0.00581446109211138 -1.31761068838386e-17)
(0.0690704345308505 0.0058408362336388 1.69824963908772e-17)
(0.0682357084856855 0.00586207878950539 3.78649053448362e-17)
(0.0673849039395895 0.00588215225968152 3.63139112383755e-17)
(0.0665169756310241 0.00590255877616853 5.29803223019582e-17)
(0.0656317285878244 0.00592377309206768 2.04755989261491e-17)
(0.0647283629839448 0.0059448153682225 5.73054292199756e-18)
(0.0638050863235655 0.00596551375486671 2.23152320725609e-17)
(0.0628606020247799 0.00598645987191716 -3.81653041169521e-18)
(0.061894484604618 0.00600802904807509 5.33663910173259e-17)
(0.0609063588363852 0.00602973971352299 3.66804389470705e-17)
(0.0598947603078492 0.0060512482832647 7.28421915381518e-17)
(0.0588578885398191 0.00607321297872885 2.9343643045795e-17)
(0.0577949958462105 0.00609617615193527 -8.96877754267305e-17)
(0.0567058892756418 0.00612012605703518 4.72867951054751e-17)
(0.0555891824563279 0.00614378262852201 7.11007063823501e-17)
(0.0544426001082955 0.00616762597355999 1.97530649204586e-16)
(0.0532649172573631 0.00619268564081894 1.13450331542709e-16)
(0.0520563387805245 0.00621981741247146 1.7572522302354e-16)
(0.0508155731137353 0.00624682378430853 1.00005132584753e-17)
(0.0495397346207496 0.00627429648671228 -1.0274781017666e-16)
(0.04822721047358 0.00630341038678771 -9.98182597543376e-17)
(0.0468783626911638 0.0063353118134525 7.15442933570956e-17)
(0.0454923679039569 0.00636771720472303 1.93045380011494e-17)
(0.0440661615809663 0.00640072934968802 7.00124157620283e-17)
(0.0425975479451689 0.00643593592823934 2.59277727445779e-16)
(0.0410869177893519 0.00647528610679883 1.40650870457169e-16)
(0.0395346342423685 0.00651671425276341 1.30041212140109e-16)
(0.0379379366762572 0.00655889736518725 -3.17738085820274e-17)
(0.0362938481847185 0.00660415362785456 -6.97264084619717e-17)
(0.034603461004437 0.00665603372327642 1.26684531342589e-17)
(0.0328702507282942 0.0067133282723374 -1.15368807383327e-16)
(0.0310927308905934 0.00677156160712017 -5.69681915310303e-17)
(0.0292668966563602 0.00683364191395338 7.72286448332397e-18)
(0.0273952743691627 0.00690613038612929 -4.68907692319757e-17)
(0.0254889243739937 0.00699169628360547 -9.85905020007714e-18)
(0.0235504588424126 0.0070777952162604 -4.7172560258277e-17)
(0.0215748414786356 0.00716820540167041 -8.94314699599911e-17)
(0.0195668206253716 0.00727512327447213 -3.01649722764465e-16)
(0.0175547216507706 0.00741079188026266 -3.44180401919904e-16)
(0.0155519026101137 0.00754546102602294 -1.06566279171378e-16)
(0.0135526516395027 0.00768391153815074 -7.04699101849928e-17)
(0.0115670037100201 0.00784694271921359 -1.53290515589189e-16)
(0.00965401150606785 0.00806288440657775 4.76879734066778e-17)
(0.00785215504094154 0.0082788249263725 1.19210680378466e-16)
(0.0061617051116869 0.00849588422327579 1.04594175386568e-16)
(0.00460830358811502 0.00874941520723451 -4.3518335813279e-17)
(0.00330130962699173 0.00908827513068083 -2.03832575132485e-16)
(0.00233731918981088 0.00943900394685277 -1.16508474669624e-16)
(0.00174871274068816 0.0097883563432478 -5.05349888495308e-16)
(0.00161414440836245 0.010217391660954 4.61643847736331e-17)
(0.00229087232923865 0.0109167139671566 3.25197153497639e-16)
(0.00439764399666379 0.011885691996906 4.62617256770287e-17)
(0.00846362969230523 0.0129875195674167 -8.6762204265334e-18)
(0.0149449640757935 0.0143472050752748 2.52333619138057e-17)
(0.0248531492357 0.0162593514858006 -8.52960300480146e-17)
(0.0391412651138151 0.0182073688269989 -1.85089694104765e-16)
(0.0578238073533166 0.0196530091425219 1.78009982192357e-16)
(0.080755627968858 0.0208912480920525 -3.11544775425662e-16)
(0.108523345399889 0.0222075767128546 -1.11579890164957e-16)
(0.141412263912877 0.0230260444649162 -2.26237916098032e-16)
(0.17876022024403 0.0230722366304545 2.63044414996258e-16)
(0.219965275349757 0.0227286988810954 6.51179635657179e-17)
(0.265007247551393 0.022140704780861 -1.22275360955063e-17)
(0.313316900785946 0.0208265822992179 1.83589987393963e-16)
(0.363876735070542 0.0189689819169195 1.67149004097181e-17)
(0.416088308767627 0.0168121032518236 4.59550185182226e-16)
(0.469518756016182 0.0143326201778141 1.43710480854904e-16)
(0.523484867899743 0.0115841607433575 8.87705257628059e-18)
(0.577764860536378 0.00875595905535689 -1.02475986797706e-17)
(0.631866151411996 0.00587215463339373 -1.9378037495543e-16)
(0.685985110202853 0.00294938422794521 -4.04144924479565e-16)
(0.73930689540557 0.0002959750094761 -2.74247159088527e-16)
(0.793729831327492 -0.0022596258039485 2.47980843548486e-16)
(0.846720243075682 -0.00451064149434634 1.34049185561664e-17)
(0.903161168504345 -0.00664085549588426 8.51203224936604e-16)
(0.956218672952688 -0.0081987900377948 3.58188638894884e-16)
(1.01984604495829 -0.00996306156525468 6.40854546727215e-17)
(1.07280672894324 -0.0103861265014876 -3.45931372591781e-17)
(1.1520629378608 -0.0106905075570446 -2.98926250675203e-17)
(1.18079355652184 -0.00114506285042579 -1.40318854901269e-16)
(1.16667675698636 -0.000916591792522509 -1.74593825937922e-16)
(1.17665887971179 -4.96482813374373e-05 -2.285593596127e-16)
(1.17093238064175 0.000105457722703973 -5.54071584239166e-17)
(1.17397950327274 0.000498402239598227 1.69693408043386e-17)
(1.17137194436509 0.000660713259460501 -3.40393543979604e-17)
(1.17176171387129 0.000804530124040866 -1.72899720815701e-17)
(1.17015164608536 0.000849596873451663 -1.741047197561e-17)
(1.16959906778558 0.000907745659519388 -3.44581597251781e-17)
(1.1683048989311 0.000904381568862216 -2.40351488268782e-18)
(1.16745298498991 0.00089569385379596 2.38327047064098e-17)
(1.1662818815048 0.00085930474475984 -9.21215940896281e-19)
(1.16549429007658 0.000808046619104977 -5.36681614653505e-18)
(1.16446256473932 0.000582414775486775 1.41473924123621e-18)
(-0.135367851240635 0.00720554970769007 -2.22608261124415e-18)
(-0.132548865270255 0.00750904421464577 -9.74161185684383e-18)
(-0.132661060481966 0.00854548993311304 -5.70848920846222e-18)
(-0.133060430512156 0.00915890467905782 -8.20597506174206e-18)
(-0.133879409923462 0.00946929783751009 -1.01136106623322e-18)
(-0.134821747105843 0.00960551927755821 4.87576909958908e-17)
(-0.13582139947824 0.00966863729257436 6.88844497927262e-18)
(-0.136847142408861 0.00970687262161585 4.40629530314677e-18)
(-0.137892217132367 0.00973765903435582 6.15137394799651e-17)
(-0.138956762809137 0.00976699252060354 4.21504811512915e-17)
(-0.140041843646434 0.00979684123074674 4.03053945618184e-17)
(-0.141147866555821 0.0098276280354862 1.82188863676092e-17)
(-0.142275748729136 0.00985855719218568 7.64267028715249e-19)
(-0.143427290876328 0.0098894243685805 3.86802868460462e-17)
(-0.144603911849381 0.00992073055442972 1.11886552099493e-17)
(-0.14580628473321 0.00995279918176338 9.38864161927418e-17)
(-0.147035137189974 0.00998524239491595 7.82457832888177e-17)
(-0.14829211932676 0.0100178061426088 1.23561141261365e-16)
(-0.149579044245927 0.010051050573169 4.47771792477485e-17)
(-0.150896893843554 0.0100854956238402 -2.89766617674649e-18)
(-0.152246171114063 0.0101210920896414 -1.7614084487026e-17)
(-0.153628487163459 0.0101568173635828 1.54695451949955e-17)
(-0.155046296233285 0.0101930392072039 2.14363906395622e-16)
(-0.156501147948585 0.0102307660853589 1.3829365556134e-16)
(-0.157993163241413 0.0102706530755519 1.80652361269484e-16)
(-0.159523847934546 0.0103109447561549 6.47139403660843e-17)
(-0.161096280320543 0.0103520531426793 -1.75008903941097e-16)
(-0.162712350405599 0.0103951615568782 -1.36375521425785e-16)
(-0.164372084139108 0.0104411827577033 1.97528451338716e-17)
(-0.1660766417426 0.0104882535234794 2.11270991182034e-17)
(-0.167829386716658 0.0105363837542091 5.97535222824729e-17)
(-0.169632803252941 0.0105871367396091 3.57407109079663e-16)
(-0.171486760675596 0.0106422035045505 1.60617249308334e-16)
(-0.173391168724628 0.0106998277632466 1.76934121764897e-16)
(-0.175349198709471 0.0107588216938973 -6.41422108605053e-17)
(-0.177364095267952 0.0108213761576106 -1.22912517305917e-16)
(-0.179434847431727 0.0108907642669424 4.87935411437326e-17)
(-0.181557889568558 0.0109658286645502 -1.70815339994164e-17)
(-0.18373498757769 0.0110426670988406 -5.62640905077637e-17)
(-0.185970305892031 0.0111238467999948 -9.87987144370699e-17)
(-0.188261450458999 0.0112157683983688 -4.91463647565469e-17)
(-0.19059595552966 0.0113203534865537 -4.06713430896646e-18)
(-0.192970743011352 0.0114267025613299 1.23778266037219e-17)
(-0.195391079703806 0.011537646271451 4.18114124338242e-18)
(-0.197852383104398 0.0116657009844139 -3.54691054733428e-16)
(-0.20032144604647 0.0118205547264334 -4.84236623675853e-16)
(-0.202782166429497 0.0119762243256845 -1.31833138867697e-16)
(-0.205240893345223 0.0121352896557321 -6.01117701498416e-17)
(-0.207687594924093 0.0123197524508507 -6.40304546411702e-17)
(-0.210051777293502 0.012552817672906 -6.56240228468074e-17)
(-0.212286026204654 0.0127876941602282 6.4567737479366e-17)
(-0.214391725019809 0.0130221617380398 4.10469762905781e-17)
(-0.216342406437769 0.0132932655082732 1.70129177181057e-17)
(-0.218004662710431 0.0136423593562108 -2.38798975813746e-16)
(-0.219259906241102 0.0140031533637335 -1.40848454691177e-16)
(-0.220075389925766 0.0143591165357972 -5.47636919976977e-16)
(-0.220374358691779 0.0147937901814264 -8.59540814742057e-18)
(-0.219764110820761 0.0154844436355966 4.43882841423423e-16)
(-0.217541569153652 0.0164287262139344 2.73001455431257e-17)
(-0.213109728740394 0.0174913761818266 -6.15225110139499e-18)
(-0.205988655579224 0.0187985571734267 1.71632940120979e-17)
(-0.194925943201361 0.0206048717230541 -2.24405127296033e-16)
(-0.178626115723466 0.0224066179685088 -2.37506728110684e-16)
(-0.157108889969672 0.023680831298976 2.18513714187517e-16)
(-0.130657987963335 0.0247115565397916 -3.46440327776795e-16)
(-0.0984636868354064 0.0257509801655675 -1.45917260569299e-16)
(-0.0600873250684296 0.0262514530126927 -3.3256853824668e-16)
(-0.0164440782154078 0.025949509881394 2.47003471656186e-16)
(0.0316631562464907 0.025224510492372 1.73459853368184e-16)
(0.0843721900434122 0.0241940692458289 -2.11255084743292e-17)
(0.141012112114828 0.0224286961204093 1.67554309502592e-16)
(0.200236636830589 0.0200985989658453 6.65869815356414e-17)
(0.26138797037204 0.0174499613098512 4.71437446114379e-16)
(0.323975281983041 0.0144687702010778 1.16701663867767e-16)
(0.387127892237826 0.0112219810144573 1.04103481844867e-17)
(0.450578112597948 0.00789058696331056 -1.12935749804335e-17)
(0.513784637066045 0.00450374988187765 -1.70330536005901e-16)
(0.576878096959033 0.00109392049450759 -4.70552265476795e-16)
(0.638913941874839 -0.00205202354961185 -3.90197915252361e-16)
(0.7021613787067 -0.00509565230638004 3.43355032355465e-16)
(0.763595946645143 -0.007840611900803 -7.31488993368327e-17)
(0.828890061635273 -0.0104649214725656 9.11756550690728e-16)
(0.890115594663345 -0.0125394347172969 3.26011507357869e-16)
(0.963377270316646 -0.0148119608671662 1.12467072239083e-16)
(1.02418128990692 -0.0157876514450743 -1.5626398772034e-16)
(1.11585628099693 -0.0158265300383191 -7.43116920148238e-17)
(1.14874701871056 -0.00124125449353418 -1.18895576869941e-16)
(1.13147815811629 -0.000898754709201573 -1.8146197321574e-16)
(1.14266321904205 -9.42902428083784e-05 -2.55443948233008e-16)
(1.13572683232103 0.000115477981145784 -2.4306943851825e-17)
(1.13898987150475 0.000468960169633568 2.58895114951696e-17)
(1.13585746681881 0.00064225454693361 -2.53160489658005e-17)
(1.13626951056182 0.000778713575974421 -2.33712265653059e-17)
(1.13438154563088 0.000829594552946727 -4.00154169667133e-17)
(1.13376207169489 0.000881869408091157 -4.00405352125424e-17)
(1.13230391471266 0.000882054807712761 2.45187091659906e-18)
(1.13136496732316 0.00087100194746314 2.03605900709003e-17)
(1.13008584515852 0.000831816334466864 3.87080706368303e-18)
(1.12929644793664 0.000772386456084712 -7.27520187396137e-18)
(1.12846586634488 0.000520687689069042 -1.15559004197478e-19)
(-0.266108430007318 0.00945188386809586 -2.96076117280942e-18)
(-0.264809176033384 0.0100172282916521 -4.99554267229158e-18)
(-0.265462843851983 0.0115801352246732 -5.71767076394923e-19)
(-0.266265572103615 0.0124051258596996 -5.99666049314898e-18)
(-0.267293905041729 0.0128009880293091 1.07537270904469e-17)
(-0.268376837549672 0.0129701686733725 6.310103929689e-17)
(-0.269491664722891 0.0130482691962748 1.910442192046e-17)
(-0.270626783987952 0.0130957744793693 -1.15040596998467e-17)
(-0.271781381634805 0.0131347065020642 3.31272935069841e-17)
(-0.272956706748317 0.0131722015084366 4.83547381862939e-17)
(-0.27415391718513 0.0132103697500895 3.15101531147701e-17)
(-0.275373551573539 0.0132495858634226 1.53957103951897e-17)
(-0.276616529646403 0.0132892331327765 -5.50071239547695e-18)
(-0.277884483933388 0.013329124611274 -2.00053769199681e-17)
(-0.279178806969417 0.0133696401198071 7.29226556212577e-18)
(-0.280500351852724 0.013411040133979 5.41233844930205e-17)
(-0.281850060664964 0.0134530490293187 1.08169985479771e-16)
(-0.283229577058669 0.0134954912372172 1.3683572000214e-16)
(-0.284640608359682 0.0135388128078671 1.40393835409827e-17)
(-0.286084262930177 0.0135834470153872 7.29674253144746e-17)
(-0.287561286068795 0.0136293614609607 2.43958191316721e-18)
(-0.289073338698028 0.0136757912032687 4.63837227197703e-17)
(-0.290622785132828 0.0137230271978719 1.68521725343882e-16)
(-0.292211302684 0.0137719043162968 9.38137205002754e-18)
(-0.293839333606164 0.013822939645418 1.31320447247445e-16)
(-0.295508456742336 0.0138748038509589 1.459137305124e-17)
(-0.297221599185255 0.0139278146571735 -1.73009149579219e-16)
(-0.298980729121882 0.0139829608392681 -9.47058360601962e-17)
(-0.300786241464297 0.0140409702749136 -1.074887273872e-16)
(-0.302639489308425 0.0141004139428843 2.0248966142115e-17)
(-0.304543735511319 0.0141613008996769 2.90776785002934e-17)
(-0.306501475359983 0.014224936099968 3.11009053846237e-16)
(-0.308512878374673 0.0142926919925921 1.66656210519574e-16)
(-0.31057812909913 0.0143631976161967 2.25009818382754e-16)
(-0.312700368359574 0.0144355150054634 5.52704348111558e-17)
(-0.314882716523884 0.0145114570391273 -1.89012487883785e-16)
(-0.31712438970389 0.0145937123789262 -5.97204464423119e-17)
(-0.319422148412087 0.0146813397681175 6.97086064830928e-17)
(-0.321777722032105 0.014771208991654 -5.15547053584383e-17)
(-0.324194877340935 0.0148654071198276 -1.77287254139785e-16)
(-0.326671475812239 0.0149692580618968 -4.92234080062676e-17)
(-0.329195217129393 0.0150842117441411 2.71205789568482e-18)
(-0.331762811952396 0.0152014184955703 7.20626353698174e-17)
(-0.334378777660246 0.0153230632591281 -1.80416344072653e-17)
(-0.337038791518672 0.0154596771971083 -4.1466205148128e-16)
(-0.339709023074728 0.0156188378597547 -5.14984366115102e-16)
(-0.342372450102118 0.0157792103483925 -1.3964375773553e-16)
(-0.345034334710693 0.015942510450701 -4.80047520476137e-17)
(-0.347684909256156 0.0161273758930911 -2.37128004474032e-17)
(-0.350251140572137 0.0163521883870812 -1.98225697185628e-16)
(-0.352682442079629 0.0165780551513433 2.18831133033033e-17)
(-0.354979389901646 0.0168023325522691 -2.3340706458821e-17)
(-0.357115841250056 0.0170563534658837 8.39148558134013e-17)
(-0.358951217975557 0.0173731271839169 -1.83247737418622e-16)
(-0.360359057483468 0.0176966438914264 -1.50308440710526e-16)
(-0.361305286221811 0.0180118092376231 -4.19391317043884e-16)
(-0.361716344206408 0.0183890841745779 -8.88141905484846e-17)
(-0.36119922946511 0.0189745900332845 4.60085547106499e-16)
(-0.359036187241853 0.0197613121091719 -8.38602255750159e-17)
(-0.354613384760047 0.0206290349036626 9.02966252086341e-18)
(-0.347456217312225 0.0216804354646516 -5.23485432071703e-18)
(-0.336225134916912 0.0231170556420924 -2.06917116947822e-16)
(-0.319467461477799 0.0244986117169721 -1.61932376713204e-16)
(-0.297209783092702 0.0253783271341668 2.58548131581139e-16)
(-0.269808306658988 0.0259994748378942 -5.4837084373407e-16)
(-0.236358191930387 0.0265664382921959 -1.73540492186928e-16)
(-0.196341601017642 0.026609869364958 -4.53531794839293e-16)
(-0.150783287807488 0.0259139037498326 1.21623154882043e-16)
(-0.100581669630483 0.0248108205926078 2.81963659090822e-16)
(-0.0455105555319145 0.0233955120443344 -3.37949424600504e-17)
(0.0137293609715706 0.021313148973068 5.85281700984511e-18)
(0.0756451100259611 0.0187218460859111 1.09022720136651e-16)
(0.139565563411626 0.0158373179166995 5.05969702239681e-16)
(0.204983190260846 0.0126544834443553 1.06046930412204e-16)
(0.270945462732394 0.00924005817768509 1.06856021567055e-17)
(0.33716342539802 0.00575289869770685 -1.085897109322e-17)
(0.403086652412423 0.00221846095631614 -1.42648598224915e-16)