/*--------------------------------*- C++ -*----------------------------------*\
| =========                 |                                                 |
| \\      /  F ield         | foam-extend: Open Source CFD                    |
|  \\    /   O peration     | Version:     4.1-20200408                       |
|   \\  /    A nd           | Web:         http://www.foam-extend.org         |
|    \\/     M anipulation  |                                                 |
\*---------------------------------------------------------------------------*/
FoamFile
{
    version     2.0;
    format      ascii;
    class       volScalarField;
    location    "0.0335000";
    object      ccy;
}
// * * * * * * * * * * * * * * * * * * * * * * * * * * * * * * * * * * * * * //

dimensions      [0 1 0 0 0 0 0];

internalField   nonuniform List<scalar> 
1952
(
7.205e-05
0.000117338
0.000163216
0.000209289
0.000255453
0.000301666
0.000347909
0.000394173
0.000440453
0.000486747
0.000533055
0.000579378
0.00062572
0.000672086
0.000718478
3.08783e-05
7.20419e-05
0.000117327
0.000163198
0.000209269
0.000255428
0.000301636
0.000347875
0.000394135
0.000440412
0.000486705
0.000533011
0.000579335
0.000625677
0.000672047
0.000718441
3.0876e-05
7.20397e-05
0.00011732
0.000163192
0.000209258
0.000255415
0.000301621
0.000347858
0.000394116
0.000440392
0.000486681
0.000532986
0.000579309
0.00062565
0.000672017
0.00071841
3.08735e-05
7.20348e-05
0.000117316
0.000163183
0.000209248
0.000255404
0.000301607
0.000347842
0.000394099
0.000440372
0.00048666
0.000532963
0.000579284
0.000625625
0.00067199
0.000718381
3.0873e-05
7.20324e-05
0.00011731
0.000163177
0.000209239
0.000255391
0.000301594
0.000347828
0.000394082
0.000440353
0.00048664
0.000532942
0.000579261
0.0006256
0.000671965
0.000718355
3.08706e-05
7.20302e-05
0.000117305
0.000163169
0.00020923
0.000255382
0.000301582
0.000347813
0.000394066
0.000440336
0.000486621
0.000532923
0.00057924
0.000625576
0.00067194
0.000718329
3.08699e-05
7.20266e-05
0.0001173
0.000163163
0.000209223
0.000255371
0.000301571
0.000347799
0.000394052
0.000440321
0.000486604
0.000532903
0.000579219
0.000625555
0.000671917
0.000718305
3.08687e-05
7.20232e-05
0.000117296
0.000163158
0.000209213
0.000255363
0.000301559
0.000347788
0.000394037
0.000440303
0.000486587
0.000532883
0.0005792
0.000625534
0.000671895
0.000718281
3.0868e-05
7.20214e-05
0.000117292
0.000163151
0.000209207
0.000255353
0.000301549
0.000347775
0.000394024
0.000440289
0.00048657
0.000532866
0.000579179
0.000625514
0.000671873
0.000718257
3.08664e-05
7.20197e-05
0.000117288
0.000163146
0.0002092
0.000255344
0.000301539
0.000347764
0.00039401
0.000440275
0.000486554
0.000532849
0.000579161
0.000625492
0.000671851
0.000718236
3.08649e-05
7.20166e-05
0.000117284
0.000163141
0.000209193
0.000255336
0.000301529
0.000347752
0.000393998
0.000440261
0.000486539
0.000532831
0.000579143
0.000625473
0.00067183
0.000718212
3.08644e-05
7.20135e-05
0.000117281
0.000163135
0.000209187
0.000255328
0.000301519
0.000347741
0.000393986
0.000440246
0.000486523
0.000532816
0.000579123
0.000625455
0.000671809
0.000718189
3.08639e-05
7.20127e-05
0.000117276
0.000163131
0.00020918
0.00025532
0.000301509
0.00034773
0.000393973
0.000440233
0.000486508
0.000532798
0.000579107
0.000625434
0.000671789
0.000718169
3.08619e-05
7.20089e-05
0.000117274
0.000163125
0.000209172
0.000255312
0.000301501
0.00034772
0.000393961
0.000440219
0.000486493
0.000532782
0.000579087
0.000625416
0.000671768
0.000718145
3.08619e-05
7.20083e-05
0.000117269
0.00016312
0.000209168
0.000255304
0.00030149
0.00034771
0.000393949
0.000440206
0.000486478
0.000532765
0.00057907
0.000625396
0.000671748
0.000718125
3.08605e-05
7.20053e-05
0.000117266
0.000163115
0.000209161
0.000255296
0.000301482
0.000347697
0.000393937
0.000440193
0.000486463
0.000532749
0.000579054
0.000625377
0.000671728
0.000718103
3.0859e-05
7.20032e-05
0.000117262
0.00016311
0.000209154
0.000255289
0.000301472
0.000347688
0.000393925
0.000440179
0.000486448
0.000532733
0.000579036
0.000625359
0.000671708
0.000718081
3.08586e-05
7.2001e-05
0.000117259
0.000163105
0.000209148
0.000255281
0.000301464
0.000347677
0.000393914
0.000440166
0.000486433
0.000532718
0.000579018
0.00062534
0.000671687
0.00071806
3.08582e-05
7.19989e-05
0.000117255
0.0001631
0.000209142
0.000255273
0.000301455
0.000347667
0.0003939
0.000440153
0.00048642
0.000532702
0.000579001
0.000625321
0.000671667
0.000718038
3.08568e-05
7.19968e-05
0.000117253
0.000163096
0.000209136
0.000255266
0.000301446
0.000347656
0.000393889
0.00044014
0.000486405
0.000532686
0.000578984
0.000625302
0.000671647
0.000718017
3.08554e-05
7.19947e-05
0.000117248
0.000163092
0.00020913
0.000255259
0.000301437
0.000347646
0.000393879
0.000440125
0.00048639
0.000532669
0.000578966
0.000625284
0.000671628
0.000717996
3.08555e-05
7.19927e-05
0.000117246
0.000163085
0.000209124
0.000255251
0.000301428
0.000347636
0.000393867
0.000440114
0.000486376
0.000532654
0.000578949
0.000625265
0.000671607
0.000717974
3.08536e-05
7.19906e-05
0.000117242
0.000163082
0.000209117
0.000255244
0.000301419
0.000347627
0.000393855
0.0004401
0.000486361
0.000532638
0.000578933
0.000625246
0.000671586
0.000717953
3.08532e-05
7.19886e-05
0.000117238
0.000163077
0.000209112
0.000255237
0.000301411
0.000347616
0.000393843
0.000440087
0.000486347
0.000532623
0.000578914
0.000625228
0.000671566
0.000717931
3.08524e-05
7.19866e-05
0.000117235
0.000163072
0.000209107
0.000255228
0.000301402
0.000347606
0.000393833
0.000440075
0.000486334
0.000532606
0.000578898
0.000625208
0.000671547
0.000717909
3.0852e-05
7.19846e-05
0.000117232
0.000163068
0.0002091
0.000255222
0.000301394
0.000347596
0.00039382
0.000440063
0.000486319
0.000532591
0.00057888
0.00062519
0.000671526
0.000717889
3.08506e-05
7.19826e-05
0.00011723
0.000163063
0.000209094
0.000255215
0.000301385
0.000347586
0.00039381
0.000440049
0.000486304
0.000532575
0.000578863
0.000625172
0.000671506
0.000717866
3.08493e-05
7.19806e-05
0.000117225
0.00016306
0.000209088
0.000255208
0.000301376
0.000347576
0.000393798
0.000440036
0.00048629
0.00053256
0.000578846
0.000625153
0.000671486
0.000717846
3.08494e-05
7.19786e-05
0.000117222
0.000163054
0.000209083
0.000255201
0.000301368
0.000347566
0.000393787
0.000440024
0.000486276
0.000532544
0.000578829
0.000625133
0.000671466
0.000717823
3.08481e-05
7.19766e-05
0.000117219
0.00016305
0.000209076
0.000255193
0.00030136
0.000347556
0.000393775
0.000440011
0.000486263
0.000532528
0.000578812
0.000625116
0.000671446
0.000717801
3.08472e-05
7.19745e-05
0.000117216
0.000163045
0.00020907
0.000255187
0.00030135
0.000347547
0.000393764
0.000439999
0.000486248
0.000532512
0.000578794
0.000625096
0.000671425
0.000717779
3.08463e-05
7.1973e-05
0.000117212
0.00016304
0.000209065
0.000255177
0.000301342
0.000347536
0.000393752
0.000439985
0.000486233
0.000532497
0.000578777
0.000625077
0.000671404
0.000717758
3.08449e-05
7.19692e-05
0.000117209
0.000163035
0.000209058
0.00025517
0.000301332
0.000347526
0.00039374
0.000439971
0.000486218
0.000532479
0.000578758
0.000625057
0.000671384
0.000717733
3.08449e-05
7.19682e-05
0.000117203
0.000163029
0.00020905
0.000255162
0.000301322
0.000347514
0.000393728
0.000439957
0.000486201
0.000532462
0.00057874
0.000625038
0.00067136
0.00071771
3.08433e-05
7.19647e-05
0.000117201
0.000163023
0.000209042
0.000255152
0.000301311
0.000347502
0.000393712
0.000439942
0.000486185
0.000532444
0.000578719
0.000625016
0.000671338
0.000717685
3.08421e-05
7.19615e-05
0.000117195
0.000163016
0.000209033
0.000255142
0.000301298
0.000347487
0.000393698
0.000439924
0.000486166
0.000532424
0.000578698
0.000624994
0.000671313
0.00071766
3.08407e-05
7.19578e-05
0.000117189
0.000163008
0.000209024
0.000255128
0.000301285
0.000347471
0.00039368
0.000439906
0.000486146
0.000532403
0.000578675
0.000624968
0.000671287
0.000717631
3.08392e-05
7.19535e-05
0.000117182
0.000162998
0.000209011
0.000255116
0.000301268
0.000347453
0.00039366
0.000439884
0.000486125
0.000532377
0.00057865
0.000624941
0.000671258
0.0007176
3.08373e-05
7.19481e-05
0.000117174
0.000162987
0.000208997
0.000255098
0.000301249
0.000347432
0.000393637
0.000439859
0.000486096
0.000532351
0.00057862
0.000624911
0.000671226
0.000717565
3.08351e-05
7.19421e-05
0.000117163
0.000162973
0.00020898
0.000255078
0.000301226
0.000347406
0.000393609
0.000439829
0.000486066
0.000532318
0.000578587
0.000624875
0.000671189
0.000717527
3.08324e-05
7.19345e-05
0.000117151
0.000162956
0.000208959
0.000255053
0.000301198
0.000347375
0.000393575
0.000439794
0.000486029
0.000532279
0.000578547
0.000624834
0.000671147
0.000717484
3.08291e-05
7.19254e-05
0.000117136
0.000162936
0.000208934
0.000255023
0.000301164
0.000347337
0.000393535
0.000439751
0.000485984
0.000532233
0.0005785
0.000624787
0.000671099
0.000717434
3.08252e-05
7.19144e-05
0.000117119
0.000162912
0.000208904
0.000254987
0.000301123
0.000347292
0.000393486
0.000439699
0.00048593
0.000532178
0.000578444
0.00062473
0.000671041
0.000717375
3.08205e-05
7.19013e-05
0.000117098
0.000162883
0.000208867
0.000254944
0.000301073
0.000347237
0.000393427
0.000439636
0.000485864
0.000532111
0.000578375
0.000624661
0.000670972
0.000717305
3.08148e-05
7.18858e-05
0.000117073
0.000162849
0.000208824
0.000254892
0.000301014
0.000347171
0.000393355
0.00043956
0.000485785
0.000532028
0.000578292
0.000624578
0.000670889
0.000717222
3.08082e-05
7.18678e-05
0.000117044
0.000162809
0.000208773
0.000254831
0.000300944
0.000347093
0.000393269
0.000439468
0.000485688
0.000531929
0.000578191
0.000624476
0.000670788
0.000717121
3.08004e-05
7.1847e-05
0.00011701
0.000162763
0.000208714
0.000254761
0.000300862
0.000347
0.000393167
0.000439358
0.000485571
0.000531807
0.000578066
0.000624351
0.000670663
0.000716998
3.07916e-05
7.1824e-05
0.000116972
0.00016271
0.000208648
0.000254681
0.000300768
0.000346894
0.000393049
0.000439229
0.000485433
0.000531661
0.000577914
0.000624194
0.000670505
0.00071684
3.07815e-05
7.17985e-05
0.000116931
0.000162653
0.000208575
0.000254592
0.000300664
0.000346774
0.000392915
0.000439081
0.000485272
0.000531488
0.00057773
0.000624001
0.000670304
0.000716632
3.07707e-05
7.17715e-05
0.000116887
0.000162591
0.000208496
0.000254495
0.00030055
0.000346643
0.000392766
0.000438915
0.000485089
0.000531289
0.000577516
0.000623773
0.000670061
0.000716377
3.07592e-05
7.17435e-05
0.000116841
0.000162528
0.000208414
0.000254394
0.00030043
0.000346504
0.000392608
0.000438737
0.000484892
0.000531073
0.000577281
0.000623519
0.00066979
0.00071609
3.07471e-05
7.17157e-05
0.000116796
0.000162464
0.000208331
0.000254293
0.000300309
0.000346362
0.000392446
0.000438554
0.000484687
0.000530847
0.000577034
0.000623252
0.000669505
0.000715789
3.07352e-05
7.16893e-05
0.000116752
0.000162403
0.000208253
0.000254196
0.000300193
0.000346226
0.000392288
0.000438374
0.000484485
0.000530621
0.000576787
0.000622984
0.000669219
0.000715488
3.0724e-05
7.16659e-05
0.000116714
0.000162349
0.000208182
0.000254108
0.000300087
0.0003461
0.000392142
0.000438207
0.000484295
0.000530409
0.000576552
0.000622728
0.000668945
0.000715199
3.0714e-05
7.1647e-05
0.000116683
0.000162305
0.000208125
0.000254036
0.000299999
0.000345996
0.000392019
0.000438064
0.000484132
0.000530224
0.000576344
0.000622499
0.000668696
0.000714938
3.0706e-05
7.16345e-05
0.000116662
0.000162276
0.000208086
0.000253986
0.000299937
0.000345921
0.00039193
0.000437959
0.000484009
0.000530081
0.00057618
0.000622314
0.000668493
0.000714722
3.07006e-05
7.16296e-05
0.000116654
0.000162264
0.000208069
0.000253964
0.000299908
0.000345885
0.000391885
0.000437903
0.00048394
0.000529998
0.000576083
0.0006222
0.000668364
0.000714586
3.06985e-05
7.16339e-05
0.000116661
0.000162273
0.00020808
0.000253976
0.00029992
0.000345896
0.000391895
0.000437912
0.000483946
0.000530001
0.000576082
0.000622193
0.000668353
0.000714575
3.07004e-05
7.16495e-05
0.000116686
0.000162308
0.000208125
0.00025403
0.000299985
0.00034597
0.000391979
0.000438006
0.000484052
0.000530119
0.000576213
0.000622337
0.000668511
0.000714746
3.07071e-05
7.16791e-05
0.000116734
0.000162375
0.000208212
0.000254138
0.000300113
0.000346121
0.000392154
0.000438207
0.000484281
0.000530377
0.000576502
0.00062266
0.000668867
0.000715128
3.07198e-05
7.17246e-05
0.000116809
0.00016248
0.000208347
0.000254305
0.000300314
0.000346358
0.000392429
0.000438522
0.000484639
0.000530781
0.000576954
0.00062316
0.000669411
0.000715708
3.07392e-05
7.17858e-05
0.000116909
0.00016262
0.00020853
0.000254532
0.000300587
0.000346679
0.0003928
0.000438947
0.000485119
0.000531319
0.000577549
0.000623811
0.000670111
0.000716444
3.07654e-05
7.18601e-05
0.000117031
0.000162792
0.000208753
0.000254808
0.000300919
0.000347069
0.00039325
0.000439459
0.000485696
0.00053196
0.000578253
0.000624574
0.000670923
0.000717291
3.07971e-05
7.19438e-05
0.000117168
0.000162985
0.000209003
0.000255118
0.000301292
0.000347507
0.000393754
0.000440031
0.000486336
0.000532668
0.000579026
0.000625405
0.000671801
0.000718203
3.08329e-05
7.20324e-05
0.000117313
0.000163188
0.000209267
0.000255445
0.000301683
0.000347965
0.000394281
0.000440628
0.000487002
0.000533402
0.000579823
0.000626259
0.000672702
0.000719135
3.08707e-05
7.21214e-05
0.000117459
0.000163392
0.00020953
0.00025577
0.000302071
0.000348418
0.0003948
0.000441215
0.000487656
0.000534121
0.000580603
0.000627094
0.000673581
0.000720047
3.09088e-05
7.22078e-05
0.0001176
0.000163588
0.000209783
0.000256079
0.000302439
0.000348845
0.000395288
0.000441763
0.000488265
0.000534789
0.000581328
0.000627871
0.000674402
0.000720902
3.09458e-05
7.2289e-05
0.000117732
0.000163772
0.000210018
0.000256366
0.000302777
0.000349234
0.000395729
0.000442254
0.000488806
0.00053538
0.000581967
0.000628556
0.00067513
0.000721667
3.09807e-05
7.23631e-05
0.000117853
0.00016394
0.000210232
0.000256625
0.000303081
0.000349581
0.000396117
0.000442682
0.000489273
0.000535882
0.000582503
0.000629128
0.00067574
0.000722318
3.10124e-05
7.24295e-05
0.00011796
0.000164089
0.000210423
0.000256858
0.000303351
0.000349886
0.000396454
0.000443049
0.000489666
0.000536298
0.00058294
0.000629587
0.000676227
0.000722842
3.10409e-05
7.24885e-05
0.000118056
0.000164221
0.000210591
0.00025706
0.000303586
0.00035015
0.000396744
0.000443361
0.000489995
0.000536643
0.000583299
0.000629958
0.000676614
0.000723256
3.10662e-05
7.25405e-05
0.00011814
0.000164336
0.000210736
0.000257232
0.000303784
0.000350373
0.000396988
0.000443623
0.000490272
0.000536933
0.0005836
0.000630268
0.000676933
0.00072359
3.10886e-05
7.25848e-05
0.000118211
0.000164434
0.000210858
0.000257377
0.000303951
0.00035056
0.000397193
0.000443844
0.000490507
0.000537179
0.000583855
0.000630531
0.000677204
0.000723869
3.11076e-05
7.26219e-05
0.000118272
0.000164517
0.000210962
0.000257501
0.000304093
0.000350719
0.000397367
0.00044403
0.000490705
0.000537386
0.00058407
0.000630753
0.000677433
0.000724106
3.11235e-05
7.26533e-05
0.000118322
0.000164586
0.00021105
0.000257606
0.000304213
0.000350853
0.000397513
0.000444187
0.000490871
0.00053756
0.000584251
0.000630942
0.000677629
0.00072431
3.11372e-05
7.26796e-05
0.000118365
0.000164644
0.000211123
0.000257693
0.000304314
0.000350964
0.000397636
0.000444319
0.000491011
0.000537707
0.000584405
0.000631102
0.000677796
0.000724485
3.11484e-05
7.27015e-05
0.0001184
0.000164693
0.000211184
0.000257766
0.000304397
0.000351058
0.000397738
0.000444429
0.000491128
0.000537831
0.000584535
0.000631239
0.00067794
0.000724636
3.11579e-05
7.27197e-05
0.000118429
0.000164733
0.000211235
0.000257826
0.000304467
0.000351136
0.000397823
0.000444521
0.000491227
0.000537936
0.000584646
0.000631356
0.000678064
0.000724767
3.11657e-05
7.27343e-05
0.000118454
0.000164766
0.000211276
0.000257876
0.000304525
0.0003512
0.000397894
0.000444599
0.000491311
0.000538024
0.000584741
0.000631456
0.00067817
0.000724881
3.1172e-05
7.27478e-05
0.000118473
0.000164794
0.000211311
0.000257919
0.000304572
0.000351255
0.000397955
0.000444665
0.00049138
0.000538102
0.000584822
0.000631543
0.000678263
0.000724981
3.11775e-05
7.27573e-05
0.000118491
0.000164816
0.000211341
0.000257953
0.000304613
0.0003513
0.000398005
0.00044472
0.000491441
0.000538166
0.000584892
0.000631619
0.000678345
0.000725069
3.11819e-05
7.27651e-05
0.000118504
0.000164836
0.000211365
0.000257982
0.000304646
0.000351339
0.000398048
0.000444766
0.000491492
0.000538222
0.000584953
0.000631685
0.000678417
0.000725146
3.11861e-05
7.27737e-05
0.000118515
0.000164851
0.000211383
0.000258007
0.000304675
0.000351371
0.000398085
0.000444808
0.000491537
0.000538271
0.000585007
0.000631743
0.000678481
0.000725215
3.11886e-05
7.27789e-05
0.000118525
0.000164865
0.000211402
0.000258027
0.000304699
0.000351399
0.000398116
0.000444843
0.000491577
0.000538314
0.000585054
0.000631795
0.000678536
0.000725278
3.11906e-05
7.2784e-05
0.000118534
0.000164876
0.000211416
0.000258045
0.000304721
0.000351423
0.000398144
0.000444873
0.000491611
0.000538353
0.000585096
0.000631842
0.000678588
0.000725334
3.11933e-05
7.27883e-05
0.00011854
0.000164886
0.000211428
0.000258061
0.000304739
0.000351445
0.000398167
0.000444901
0.000491641
0.000538387
0.000585135
0.000631884
0.000678635
0.000725385
3.11952e-05
7.27921e-05
0.000118546
0.000164895
0.000211441
0.000258073
0.000304755
0.000351464
0.000398189
0.000444925
0.00049167
0.000538418
0.000585169
0.000631923
0.000678678
0.000725432
3.11974e-05
7.27954e-05
0.000118552
0.000164903
0.00021145
0.000258086
0.000304769
0.00035148
0.000398209
0.000444948
0.000491694
0.000538447
0.000585201
0.000631959
0.000678715
0.000725475
3.11983e-05
7.27985e-05
0.000118557
0.000164909
0.000211459
0.000258098
0.000304783
0.000351496
0.000398226
0.000444968
0.000491719
0.000538472
0.00058523
0.00063199
0.000678754
0.000725515
3.11995e-05
7.28012e-05
0.000118561
0.000164916
0.000211467
0.000258107
0.000304795
0.000351511
0.000398243
0.000444988
0.00049174
0.000538497
0.000585259
0.000632021
0.000678787
0.000725553
3.12007e-05
7.28045e-05
0.000118566
0.000164922
0.000211475
0.000258117
0.000304807
0.000351523
0.00039826
0.000445006
0.00049176
0.000538521
0.000585284
0.00063205
0.000678819
0.000725587
3.12018e-05
7.28054e-05
0.00011857
0.000164927
0.000211482
0.000258126
0.000304816
0.000351538
0.000398274
0.000445023
0.00049178
0.000538542
0.000585308
0.000632078
0.000678849
0.00072562
3.12028e-05
7.28093e-05
0.000118572
0.000164933
0.000211488
0.000258134
0.000304828
0.000351549
0.000398288
0.000445039
0.000491798
0.000538563
0.000585332
0.000632103
0.000678877
0.000725652
3.12033e-05
7.281e-05
0.000118578
0.000164937
0.000211496
0.000258142
0.000304836
0.000351561
0.000398302
0.000445056
0.000491816
0.000538583
0.000585354
0.000632128
0.000678904
0.000725683
3.12053e-05
7.28128e-05
0.00011858
0.000164942
0.000211502
0.000258151
0.000304848
0.000351572
0.000398315
0.00044507
0.000491833
0.000538602
0.000585375
0.000632152
0.00067893
0.00072571
3.12057e-05
7.28157e-05
0.000118583
0.000164948
0.000211508
0.000258158
0.000304856
0.000351583
0.000398328
0.000445084
0.00049185
0.00053862
0.000585395
0.000632174
0.000678955
0.000725737
3.12066e-05
7.2817e-05
0.000118588
0.000164951
0.000211514
0.000258166
0.000304865
0.000351593
0.000398341
0.000445098
0.000491865
0.000538638
0.000585416
0.000632195
0.00067898
0.000725763
3.12074e-05
7.2819e-05
0.00011859
0.000164957
0.00021152
0.000258173
0.000304874
0.000351604
0.000398352
0.000445112
0.000491879
0.000538655
0.000585434
0.000632217
0.000679002
0.000725788
3.12083e-05
7.28209e-05
0.000118595
0.00016496
0.000211526
0.000258179
0.000304883
0.000351614
0.000398364
0.000445125
0.000491895
0.000538671
0.000585452
0.000632237
0.000679023
0.000725812
3.12091e-05
7.28228e-05
0.000118597
0.000164965
0.000211531
0.000258187
0.000304892
0.000351624
0.000398374
0.000445138
0.00049191
0.000538688
0.00058547
0.000632255
0.000679046
0.000725834
3.12099e-05
7.28247e-05
0.000118599
0.00016497
0.000211537
0.000258194
0.000304898
0.000351634
0.000398385
0.00044515
0.000491923
0.000538703
0.000585487
0.000632276
0.000679065
0.000725856
3.12107e-05
7.28266e-05
0.000118603
0.000164974
0.000211542
0.000258201
0.000304908
0.000351642
0.000398396
0.000445163
0.000491937
0.000538718
0.000585504
0.000632293
0.000679084
0.000725878
3.12115e-05
7.28284e-05
0.000118607
0.000164978
0.000211547
0.000258208
0.000304914
0.000351652
0.000398406
0.000445174
0.00049195
0.000538732
0.00058552
0.00063231
0.000679104
0.000725897
3.12123e-05
7.28302e-05
0.000118609
0.000164982
0.000211554
0.000258213
0.000304923
0.000351659
0.000398418
0.000445185
0.000491963
0.000538748
0.000585535
0.000632327
0.000679122
0.000725918
3.12131e-05
7.28319e-05
0.000118612
0.000164986
0.000211557
0.000258221
0.00030493
0.000351669
0.000398427
0.000445196
0.000491975
0.00053876
0.00058555
0.000632343
0.000679139
0.000725937
3.12138e-05
7.28335e-05
0.000118614
0.00016499
0.000211564
0.000258225
0.000304937
0.000351678
0.000398435
0.000445208
0.000491987
0.000538773
0.000585565
0.000632359
0.000679156
0.000725954
3.12145e-05
7.28351e-05
0.000118617
0.000164994
0.000211568
0.000258232
0.000304944
0.000351685
0.000398445
0.000445217
0.000491998
0.000538786
0.000585578
0.000632374
0.000679173
0.000725972
3.12152e-05
7.28367e-05
0.00011862
0.000164997
0.000211572
0.000258238
0.00030495
0.000351693
0.000398455
0.000445226
0.00049201
0.000538798
0.000585592
0.000632389
0.000679188
0.000725989
3.12159e-05
7.28381e-05
0.000118622
0.000165
0.000211576
0.000258242
0.000304958
0.0003517
0.000398463
0.000445238
0.000492019
0.00053881
0.000585605
0.000632403
0.000679203
0.000726005
3.12165e-05
7.28395e-05
0.000118624
0.000165003
0.00021158
0.000258247
0.000304963
0.000351708
0.000398471
0.000445245
0.000492031
0.000538821
0.000585617
0.000632416
0.000679218
0.000726021
3.12171e-05
7.28409e-05
0.000118626
0.000165006
0.000211585
0.000258251
0.000304969
0.000351714
0.000398478
0.000445256
0.000492039
0.000538832
0.000585629
0.000632428
0.000679232
0.000726035
3.12177e-05
7.28421e-05
0.000118628
0.000165009
0.000211588
0.000258258
0.000304974
0.00035172
0.000398485
0.000445263
0.000492049
0.000538842
0.000585639
0.000632441
0.000679246
0.000726049
3.12182e-05
7.28433e-05
0.00011863
0.000165012
0.000211591
0.00025826
0.000304979
0.000351726
0.000398492
0.00044527
0.000492058
0.000538851
0.000585649
0.000632453
0.000679256
0.000726062
3.12187e-05
7.28443e-05
0.000118632
0.000165014
0.000211595
0.000258266
0.000304983
0.000351731
0.000398498
0.000445277
0.000492065
0.00053886
0.000585659
0.000632462
0.000679269
0.000726075
3.12191e-05
7.28452e-05
0.000118633
0.000165016
0.000211597
0.000258268
0.000304987
0.000351736
0.000398503
0.000445282
0.000492072
0.000538868
0.000585668
0.000632472
0.000679278
0.000726087
3.12195e-05
7.28459e-05
0.000118635
0.000165018
0.000211599
0.000258271
0.000304991
0.00035174
0.000398508
0.000445289
0.000492077
0.000538875
0.000585675
0.00063248
0.000679289
0.000726096
3.12198e-05
7.28465e-05
0.000118636
0.000165019
0.000211601
0.000258273
0.000304993
0.000351743
0.000398511
0.000445292
0.000492083
0.00053888
0.000585682
0.000632487
0.000679296
0.000726105
3.12201e-05
7.2847e-05
0.000118636
0.00016502
0.000211603
0.000258275
0.000304996
0.000351745
0.000398514
0.000445296
0.000492086
0.000538884
0.000585687
0.000632493
0.000679303
0.000726114
3.12203e-05
7.28473e-05
0.000118637
0.000165021
0.000211604
0.000258276
0.000304997
0.000351748
0.000398516
0.000445298
0.000492089
0.000538887
0.00058569
0.000632497
0.000679307
0.000726118
3.12204e-05
7.28474e-05
0.000118637
0.000165022
0.000211604
0.000258277
0.000304997
0.000351748
0.000398517
0.000445299
0.00049209
0.000538889
0.000585692
0.000632499
0.000679309
0.000726121
3.12205e-05
7.28475e-05
0.000118637
0.000165022
0.000211604
0.000258277
0.000304998
0.000351748
0.000398518
0.0004453
0.000492091
0.000538889
0.000585692
0.000632499
0.00067931
0.000726122
3.12205e-05
7.28475e-05
0.000118637
0.000165022
0.000211604
0.000258277
0.000304998
0.000351748
0.000398518
0.0004453
0.000492091
0.000538889
0.000585692
0.000632499
0.00067931
0.000726122
3.12205e-05
)
;

boundaryField
{
    wireUpstream
    {
        type            calculated;
        value           nonuniform List<scalar> 
16
(
7.28475e-05
0.000118637
0.000165022
0.000211604
0.000258277
0.000304998
0.000351748
0.000398518
0.0004453
0.000492091
0.000538889
0.000585692
0.000632499
0.00067931
0.000726122
3.12205e-05
)
;
    }
    wireDownstream
    {
        type            calculated;
        value           nonuniform List<scalar> 
16
(
7.20487e-05
0.000117336
0.000163213
0.000209286
0.000255448
0.00030166
0.000347903
0.000394167
0.000440448
0.000486742
0.000533052
0.000579378
0.000625724
0.000672095
0.00071849
3.08781e-05
)
;
    }
    wireTopContact
    {
        type            calculated;
        value           nonuniform List<scalar> 
122
(
0.000741401
0.00074137
0.000741341
0.000741314
0.000741287
0.000741262
0.000741237
0.000741213
0.00074119
0.000741167
0.000741144
0.000741121
0.000741098
0.000741076
0.000741054
0.000741032
0.000741009
0.000740987
0.000740965
0.000740943
0.000740921
0.000740899
0.000740877
0.000740855
0.000740832
0.00074081
0.000740788
0.000740766
0.000740743
0.00074072
0.000740697
0.000740673
0.000740648
0.000740622
0.000740595
0.000740566
0.000740534
0.000740499
0.000740459
0.000740415
0.000740364
0.000740304
0.000740233
0.00074015
0.000740049
0.000739925
0.000739767
0.000739557
0.000739296
0.000739002
0.000738695
0.000738389
0.000738095
0.00073783
0.000737613
0.000737478
0.000737472
0.00073765
0.000738044
0.000738636
0.000739383
0.000740241
0.000741163
0.000742106
0.000743029
0.000743896
0.000744677
0.000745346
0.000745892
0.000746325
0.00074667
0.000746954
0.000747196
0.000747404
0.000747583
0.000747738
0.000747873
0.000747991
0.000748095
0.000748186
0.000748267
0.000748339
0.000748404
0.000748463
0.000748517
0.000748566
0.000748611
0.000748653
0.000748692
0.000748729
0.000748763
0.000748796
0.000748827
0.000748857
0.000748885
0.000748911
0.000748937
0.000748962
0.000748986
0.000749008
0.00074903
0.000749052
0.000749072
0.000749092
0.00074911
0.000749128
0.000749146
0.000749163
0.000749179
0.000749194
0.000749208
0.000749222
0.000749235
0.000749247
0.000749257
0.000749267
0.000749275
0.00074928
0.000749283
0.000749284
0.000749284
0.000741434
)
;
    }
    front
    {
        type            wedge;
    }
    back
    {
        type            wedge;
    }
}


// ************************************************************************* //
