/*--------------------------------*- C++ -*----------------------------------*\
| =========                 |                                                 |
| \\      /  F ield         | foam-extend: Open Source CFD                    |
|  \\    /   O peration     | Version:     4.1-20200408                       |
|   \\  /    A nd           | Web:         http://www.foam-extend.org         |
|    \\/     M anipulation  |                                                 |
\*---------------------------------------------------------------------------*/
FoamFile
{
    version     2.0;
    format      ascii;
    class       volTensorField;
    location    "0.0335000";
    object      grad(DU);
}
// * * * * * * * * * * * * * * * * * * * * * * * * * * * * * * * * * * * * * //

dimensions      [0 0 0 0 0 0 0];

internalField   nonuniform List<tensor> 
1952
(
(-1.96285e-05 1.12431e-05 3.53195e-11 -2.65235e-07 2.50728e-05 -5.56434e-13 -2.58704e-14 9.74746e-14 2.50633e-05)
(-1.91938e-05 2.1827e-05 2.47205e-11 -3.71915e-07 2.45333e-05 6.27429e-13 -2.71684e-14 9.3876e-13 2.51015e-05)
(-1.89606e-05 2.69464e-05 -2.48836e-11 -5.65904e-07 2.3821e-05 4.09037e-12 1.82148e-14 -2.57436e-13 2.475e-05)
(-1.81528e-05 3.6576e-05 -7.12584e-11 -6.64979e-07 2.32644e-05 -1.7577e-12 9.622e-14 -1.41121e-12 2.45125e-05)
(-1.77375e-05 4.26301e-05 2.69765e-11 -8.64466e-07 2.18587e-05 -7.75367e-12 -9.22344e-15 3.39783e-13 2.41777e-05)
(-1.65513e-05 4.95895e-05 1.23541e-10 -9.63798e-07 2.12366e-05 -6.66084e-13 -1.44571e-13 1.23329e-12 2.36562e-05)
(-1.59295e-05 5.74444e-05 2.65878e-11 -1.1735e-06 1.93905e-05 7.94479e-12 3.25099e-14 7.1894e-13 2.33453e-05)
(-1.4341e-05 6.07412e-05 -6.64649e-11 -1.34287e-06 1.86735e-05 9.78948e-13 1.81427e-13 -2.57803e-14 2.25969e-05)
(-1.33579e-05 7.10507e-05 1.8795e-11 -1.65596e-06 1.66405e-05 -7.14686e-12 -1.4315e-15 1.64814e-13 2.23039e-05)
(-1.1185e-05 7.04954e-05 1.06366e-10 -2.1437e-06 1.57404e-05 1.9877e-12 -1.43165e-13 -4.24354e-13 2.1398e-05)
(-9.32409e-06 8.38887e-05 1.05778e-11 -3.14232e-06 1.36668e-05 7.0342e-12 -1.2147e-13 -6.53869e-13 2.11028e-05)
(-5.71169e-06 8.09121e-05 -7.8126e-11 -5.49783e-06 1.19827e-05 -1.46742e-12 -1.96907e-13 5.58112e-13 2.00978e-05)
(-1.12479e-06 9.98474e-05 1.50293e-11 -1.22942e-05 9.20759e-06 -6.32568e-12 -1.7295e-14 5.46278e-14 1.96996e-05)
(7.98862e-06 0.00010373 1.06883e-10 -3.45022e-05 2.92132e-06 -7.12008e-13 3.59738e-12 1.76084e-13 1.85438e-05)
(2.5217e-05 0.000159846 4.08732e-11 -0.000107826 -7.97741e-06 1.38259e-12 5.57316e-12 1.15624e-12 1.74911e-05)
(-1.96719e-05 6.19878e-06 9.0899e-12 -3.473e-08 2.49863e-05 8.75085e-13 7.49058e-16 2.1843e-12 2.52371e-05)
(-1.49774e-05 6.07844e-06 6.01961e-16 -6.39834e-07 1.8393e-05 -4.35695e-13 -5.66624e-14 5.20472e-14 1.85341e-05)
(-1.462e-05 1.00522e-05 -1.55366e-15 -8.81547e-07 1.80509e-05 4.33259e-13 -6.1051e-14 6.62695e-13 1.84277e-05)
(-1.43808e-05 1.36719e-05 -7.23956e-16 -1.37351e-06 1.74431e-05 3.05329e-12 4.43198e-14 -1.75777e-13 1.82469e-05)
(-1.36567e-05 1.75656e-05 2.9091e-15 -1.61198e-06 1.686e-05 -1.15073e-12 2.30936e-13 -9.8243e-13 1.79682e-05)
(-1.32406e-05 2.11788e-05 5.25721e-16 -2.12419e-06 1.58126e-05 -5.74181e-12 -2.2967e-14 2.47835e-13 1.77104e-05)
(-1.21322e-05 2.46628e-05 -2.27198e-15 -2.40537e-06 1.49617e-05 -8.1403e-13 -3.5044e-13 9.26788e-13 1.72637e-05)
(-1.14645e-05 2.84319e-05 -2.5405e-15 -2.96446e-06 1.353e-05 5.68232e-12 7.97123e-14 4.94849e-13 1.69279e-05)
(-9.92246e-06 3.142e-05 1.94815e-15 -3.46848e-06 1.23523e-05 9.20921e-13 4.24284e-13 -2.97125e-13 1.63282e-05)
(-8.81198e-06 3.55423e-05 9.89791e-17 -4.28778e-06 1.05126e-05 -5.15703e-12 -7.20503e-15 1.06511e-13 1.59029e-05)
(-6.67318e-06 3.81833e-05 3.46792e-16 -5.4925e-06 8.81882e-06 1.05877e-12 -3.51549e-13 1.64083e-13 1.51537e-05)
(-4.73923e-06 4.28593e-05 -2.78915e-15 -7.3977e-06 6.33845e-06 4.8373e-12 -2.31526e-13 -3.90673e-13 1.46042e-05)
(-1.70929e-06 4.54524e-05 -2.32774e-15 -1.07601e-05 3.6104e-06 -7.87949e-13 -4.31092e-14 -3.45406e-14 1.36761e-05)
(1.21612e-06 5.04253e-05 1.36026e-15 -1.65719e-05 2.8855e-09 -4.17803e-12 -3.47994e-14 1.74972e-14 1.29147e-05)
(3.20672e-06 5.25304e-05 3.43124e-15 -2.66654e-05 -3.70688e-06 -6.01214e-13 7.64797e-13 -1.19122e-13 1.17368e-05)
(-2.70046e-06 5.427e-05 -1.43959e-15 -4.26519e-05 -3.62831e-06 1.18272e-12 8.33024e-13 -3.22723e-14 1.07326e-05)
(-1.50499e-05 2.63074e-06 -6.15028e-17 -1.30857e-07 1.85087e-05 6.39527e-13 -4.6839e-15 1.61217e-12 1.85795e-05)
(-9.44711e-06 5.43271e-06 4.32453e-16 -8.50809e-07 1.42859e-05 -3.40188e-13 -7.05103e-14 3.06371e-14 1.44729e-05)
(-9.166e-06 8.88233e-06 -1.08563e-15 -1.16657e-06 1.40366e-05 3.36778e-13 -7.48197e-14 5.02548e-13 1.43218e-05)
(-8.94876e-06 1.22093e-05 -8.2561e-16 -1.84278e-06 1.35061e-05 2.37854e-12 5.8176e-14 -1.29563e-13 1.42135e-05)
(-8.33911e-06 1.55903e-05 2.22371e-15 -2.17066e-06 1.29468e-05 -8.92756e-13 2.9852e-13 -7.38216e-13 1.39395e-05)
(-7.96496e-06 1.88656e-05 8.31822e-16 -2.88259e-06 1.20911e-05 -4.44967e-12 -3.10583e-14 1.90528e-13 1.37243e-05)
(-7.00073e-06 2.19777e-05 -1.79627e-15 -3.30851e-06 1.1201e-05 -6.28688e-13 -4.57613e-13 7.27648e-13 1.33339e-05)
(-6.37796e-06 2.52403e-05 -2.28237e-15 -4.10143e-06 1.00003e-05 4.3665e-12 1.01348e-13 3.68194e-13 1.30073e-05)
(-5.01509e-06 2.80048e-05 8.92693e-16 -4.86078e-06 8.72396e-06 7.0498e-13 5.35848e-13 -3.6112e-13 1.24988e-05)
(-3.98738e-06 3.12855e-05 1.28132e-15 -5.99314e-06 7.0945e-06 -3.90787e-12 -1.20022e-14 7.24619e-14 1.20505e-05)
(-2.17026e-06 3.36601e-05 -2.98778e-16 -7.62193e-06 5.31462e-06 7.97317e-13 -4.52825e-13 3.25685e-13 1.14105e-05)
(-6.03913e-07 3.68256e-05 -2.43011e-15 -9.90651e-06 3.11781e-06 3.58402e-12 -2.68564e-13 -2.44359e-13 1.082e-05)
(1.47308e-06 3.85434e-05 -1.75562e-15 -1.37014e-05 7.60826e-07 -5.7765e-13 2.78482e-14 -1.51978e-13 1.00258e-05)
(3.04015e-06 4.07385e-05 1.34865e-15 -1.90579e-05 -1.79173e-06 -3.00167e-12 -4.39952e-14 4.20218e-15 9.27825e-06)
(3.27064e-06 4.05692e-05 2.44168e-15 -2.75461e-05 -3.65973e-06 -4.27886e-13 4.2976e-13 -1.45937e-13 8.35334e-06)
(3.81146e-07 3.95931e-05 -1.18656e-15 -3.5166e-05 -3.53689e-06 8.36325e-13 6.78672e-14 -2.49746e-14 7.58047e-06)
(-9.52657e-06 2.33787e-06 -4.11023e-17 -2.29285e-07 1.44671e-05 4.98143e-13 -9.75543e-15 1.25765e-12 1.44709e-05)
(-4.75781e-06 4.68594e-06 3.30408e-16 -1.02371e-06 1.07915e-05 -2.57665e-13 -8.13688e-14 1.98091e-14 1.0963e-05)
(-4.52889e-06 7.59635e-06 -8.15166e-16 -1.39517e-06 1.05765e-05 2.54583e-13 -8.72029e-14 3.78278e-13 1.08241e-05)
(-4.3452e-06 1.0519e-05 -5.96663e-16 -2.22854e-06 1.01027e-05 1.79632e-12 6.99264e-14 -9.37825e-14 1.07337e-05)
(-3.8442e-06 1.33691e-05 1.67592e-15 -2.62591e-06 9.58909e-06 -6.71647e-13 3.58559e-13 -5.51029e-13 1.04866e-05)
(-3.53034e-06 1.62048e-05 5.75808e-16 -3.51137e-06 8.8348e-06 -3.33729e-12 -3.81818e-14 1.40245e-13 1.0293e-05)
(-2.73209e-06 1.88705e-05 -1.341e-15 -4.05431e-06 7.99266e-06 -4.68937e-13 -5.53708e-13 5.41125e-13 9.94669e-06)
(-2.22246e-06 2.15666e-05 -1.60493e-15 -5.03758e-06 6.92743e-06 3.23685e-12 1.21935e-13 2.72695e-13 9.64169e-06)
(-1.11996e-06 2.39546e-05 6.81682e-16 -5.97869e-06 5.72278e-06 5.18534e-13 6.487e-13 -3.0821e-13 9.19285e-06)
(-3.48181e-07 2.64171e-05 8.66644e-16 -7.28815e-06 4.2889e-06 -2.84393e-12 -1.5732e-14 4.7927e-14 8.76942e-06)
(9.72075e-07 2.83619e-05 -1.77336e-16 -9.08487e-06 2.7146e-06 5.73662e-13 -5.8515e-13 2.70422e-13 8.20885e-06)
(1.88669e-06 3.03088e-05 -1.6285e-15 -1.12816e-05 9.27144e-07 2.53956e-12 -2.73514e-13 -1.68081e-13 7.66653e-06)
(2.87394e-06 3.13907e-05 -1.23273e-15 -1.46683e-05 -7.48027e-07 -4.03104e-13 1.93359e-13 -7.3065e-14 6.99612e-06)
(2.92106e-06 3.21106e-05 8.69137e-16 -1.85034e-05 -2.31481e-06 -2.06352e-12 -4.59952e-14 -1.21245e-15 6.37824e-06)
(1.35419e-06 3.15545e-05 1.67024e-15 -2.37847e-05 -2.56494e-06 -2.90909e-13 -7.14012e-14 -3.30519e-13 5.67926e-06)
(-3.22416e-06 3.02821e-05 -7.86705e-16 -2.7525e-05 -1.3065e-06 5.87621e-13 -5.39433e-14 -4.42281e-14 5.20375e-06)
(-4.82094e-06 2.00894e-06 -2.88943e-17 -3.07621e-07 1.09588e-05 3.77273e-13 -1.1852e-14 9.52525e-13 1.09583e-05)
(-8.60855e-07 4.00586e-06 2.41108e-16 -1.161e-06 7.79076e-06 -1.866e-13 -9.03417e-14 1.15731e-14 7.94007e-06)
(-6.82572e-07 6.48274e-06 -5.85689e-16 -1.5912e-06 7.60283e-06 1.8395e-13 -9.56739e-14 2.7295e-13 7.81925e-06)
(-5.27906e-07 8.97852e-06 -4.1391e-16 -2.55033e-06 7.18619e-06 1.29542e-12 7.90211e-14 -6.39333e-14 7.74023e-06)
(-1.38601e-07 1.13852e-05 1.20453e-15 -3.00988e-06 6.73224e-06 -4.81902e-13 4.02019e-13 -3.92006e-13 7.52354e-06)
(1.16825e-07 1.37692e-05 3.82233e-16 -4.03508e-06 6.07537e-06 -2.38408e-12 -4.37846e-14 9.75257e-14 7.35285e-06)
(7.31116e-07 1.5989e-05 -9.51464e-16 -4.66744e-06 5.33017e-06 -3.32379e-13 -6.27833e-13 3.74743e-13 7.05101e-06)
(1.11318e-06 1.81626e-05 -1.07729e-15 -5.78441e-06 4.41938e-06 2.2767e-12 1.34808e-13 1.94541e-13 6.7813e-06)
(1.91553e-06 2.00734e-05 4.88613e-16 -6.82855e-06 3.38593e-06 3.60735e-13 7.41297e-13 -2.24105e-13 6.39514e-06)
(2.40232e-06 2.18843e-05 5.57932e-16 -8.19741e-06 2.22144e-06 -1.95455e-12 -1.87523e-14 2.94377e-14 6.0268e-06)
(3.20895e-06 2.32732e-05 -9.85081e-17 -9.99163e-06 9.91851e-07 3.88506e-13 -7.0591e-13 1.70482e-13 5.55871e-06)
(3.54314e-06 2.44317e-05 -1.03486e-15 -1.19265e-05 -2.82245e-07 1.69284e-12 -2.65221e-13 -1.09955e-13 5.11021e-06)
(3.73758e-06 2.49247e-05 -8.12468e-16 -1.4802e-05 -1.30695e-06 -2.64237e-13 3.26354e-13 2.88671e-15 4.58585e-06)
(3.00706e-06 2.50189e-05 5.32302e-16 -1.74097e-05 -2.07542e-06 -1.33513e-12 -4.53391e-14 -3.09163e-15 4.12675e-06)
(1.05481e-06 2.42984e-05 1.07649e-15 -2.08982e-05 -1.75803e-06 -1.86564e-13 -2.79301e-13 -3.10356e-13 3.64222e-06)
(-2.64461e-06 2.35833e-05 -4.92261e-16 -2.22084e-05 -6.26107e-07 3.75644e-13 -1.64508e-13 -2.27497e-14 3.35217e-06)
(-9.09086e-07 1.71684e-06 -1.95807e-17 -3.68638e-07 7.93638e-06 2.73251e-13 -1.42238e-14 6.89828e-13 7.93595e-06)
(2.34888e-06 3.37327e-06 1.64402e-16 -1.26332e-06 5.25019e-06 -1.2637e-13 -9.74394e-14 4.93518e-15 5.37772e-06)
(2.47674e-06 5.45377e-06 -3.93388e-16 -1.73701e-06 5.09127e-06 1.24118e-13 -1.02364e-13 1.83619e-13 5.2746e-06)
(2.58451e-06 7.5408e-06 -2.69279e-16 -2.78963e-06 4.73415e-06 8.71674e-13 8.56203e-14 -3.91529e-14 5.20806e-06)
(2.86323e-06 9.54004e-06 8.05538e-16 -3.28843e-06 4.35093e-06 -3.21726e-13 4.36445e-13 -2.56069e-13 5.02235e-06)
(3.02623e-06 1.14952e-05 2.37364e-16 -4.41094e-06 3.79734e-06 -1.58196e-12 -4.81915e-14 6.21717e-14 4.87888e-06)
(3.45162e-06 1.32949e-05 -6.24459e-16 -5.08708e-06 3.17656e-06 -2.17879e-13 -6.87231e-13 2.30991e-13 4.62287e-06)
(3.65917e-06 1.5002e-05 -6.70767e-16 -6.27039e-06 2.43585e-06 1.47666e-12 1.44871e-13 1.31099e-13 4.3981e-06)
(4.15709e-06 1.64712e-05 3.19102e-16 -7.32728e-06 1.61338e-06 2.30024e-13 8.28036e-13 -1.35413e-13 4.07789e-06)
(4.32573e-06 1.77724e-05 3.30326e-16 -8.64315e-06 7.32539e-07 -1.22566e-12 -2.01831e-14 1.56693e-14 3.77919e-06)
(4.66372e-06 1.87173e-05 -4.92584e-17 -1.02853e-05 -1.43674e-07 2.38152e-13 -8.23402e-13 7.21056e-14 3.40698e-06)
(4.48597e-06 1.93925e-05 -5.95806e-16 -1.18279e-05 -9.6639e-07 1.01505e-12 -2.51753e-13 -6.90419e-14 3.06405e-06)
(4.09033e-06 1.95765e-05 -4.76589e-16 -1.40763e-05 -1.48465e-06 -1.54256e-13 4.49159e-13 6.20661e-14 2.67699e-06)
(2.81812e-06 1.94634e-05 2.91037e-16 -1.55969e-05 -1.72235e-06 -7.65086e-13 -4.17575e-14 -3.6054e-15 2.36474e-06)
(6.59556e-07 1.88756e-05 6.08879e-16 -1.76659e-05 -1.07162e-06 -1.05075e-13 -4.2534e-13 -2.94458e-13 2.05136e-06)
(-2.76022e-06 1.84052e-05 -2.73682e-16 -1.75796e-05 5.65687e-08 2.15112e-13 -1.84794e-13 -1.51409e-14 1.91008e-06)
(2.31462e-06 1.44579e-06 -1.25056e-17 -4.12883e-07 5.37446e-06 1.85072e-13 -1.35139e-14 4.67166e-13 5.37441e-06)
(4.91742e-06 2.80008e-06 9.95566e-17 -1.3311e-06 3.13001e-06 -7.6043e-14 -1.01434e-13 -3.15971e-16 3.23644e-06)
(4.99372e-06 4.5223e-06 -2.34202e-16 -1.83061e-06 3.00489e-06 7.41527e-14 -1.07429e-13 1.08565e-13 3.15023e-06)
(5.04792e-06 6.23682e-06 -1.5571e-16 -2.94609e-06 2.71002e-06 5.18715e-13 9.0798e-14 -1.89219e-14 3.09909e-06)
(5.21803e-06 7.86898e-06 4.7316e-16 -3.45926e-06 2.40616e-06 -1.88656e-13 4.62821e-13 -1.40885e-13 2.94453e-06)
(5.27713e-06 9.43905e-06 1.29953e-16 -4.63861e-06 1.96318e-06 -9.18477e-13 -5.07258e-14 3.36043e-14 2.83258e-06)
(5.5209e-06 1.08635e-05 -3.54872e-16 -5.3166e-06 1.48022e-06 -1.2363e-13 -7.3355e-13 1.10681e-13 2.62396e-06)
(5.5491e-06 1.2174e-05 -3.60806e-16 -6.51014e-06 9.18297e-07 8.22615e-13 1.53846e-13 8.0047e-14 2.44993e-06)
(5.77138e-06 1.32668e-05 1.75304e-16 -7.51527e-06 3.14948e-07 1.23967e-13 9.05701e-13 -5.49963e-14 2.19788e-06)
(5.65791e-06 1.41804e-05 1.64182e-16 -8.71313e-06 -2.91422e-07 -6.40251e-13 -1.99322e-14 5.60187e-15 1.9741e-06)
(5.6258e-06 1.4791e-05 -1.99086e-17 -1.01417e-05 -8.49632e-07 1.18637e-13 -9.24059e-13 -7.35468e-15 1.69682e-06)
(5.08769e-06 1.51676e-05 -2.73816e-16 -1.12885e-05 -1.30158e-06 4.82709e-13 -2.40598e-13 -3.91078e-14 1.45707e-06)
(4.34637e-06 1.51788e-05 -2.13408e-16 -1.29892e-05 -1.46683e-06 -6.87861e-14 5.4038e-13 9.48809e-14 1.19357e-06)
(2.86835e-06 1.50191e-05 1.18787e-16 -1.36939e-05 -1.38445e-06 -3.24987e-13 -3.72086e-14 -3.58845e-15 1.00445e-06)
(8.11119e-07 1.45769e-05 2.45445e-16 -1.48582e-05 -6.59411e-07 -4.21949e-14 -4.9369e-13 -2.50902e-13 8.23812e-07)
(-2.06073e-06 1.43664e-05 -1.0968e-16 -1.38968e-05 2.94929e-07 8.83268e-14 -1.91471e-13 -6.89181e-15 7.81438e-07)
(4.89677e-06 1.20039e-06 -7.1561e-18 -4.41873e-07 3.23388e-06 1.11353e-13 -1.63996e-14 2.81078e-13 3.23331e-06)
(6.93161e-06 2.29022e-06 4.55722e-17 -1.36282e-06 1.38667e-06 -3.46021e-14 -1.0337e-13 -4.38002e-15 1.47304e-06)
(6.95652e-06 3.6943e-06 -1.04038e-16 -1.86508e-06 1.29881e-06 3.30364e-14 -1.1074e-13 4.63216e-14 1.40267e-06)
(6.95175e-06 5.07993e-06 -6.71491e-17 -3.01431e-06 1.06691e-06 2.29172e-13 9.33474e-14 -2.68975e-15 1.36918e-06)
(7.01825e-06 6.38994e-06 2.00464e-16 -3.51355e-06 8.45736e-07 -7.9812e-14 4.83411e-13 -4.47653e-14 1.2451e-06)
(6.96708e-06 7.62797e-06 5.08651e-17 -4.71274e-06 5.14682e-07 -3.7837e-13 -5.09515e-14 1.09532e-14 1.16689e-06)
(7.04431e-06 8.73332e-06 -1.3613e-16 -5.35383e-06 1.69262e-07 -4.73121e-14 -7.68685e-13 1.25905e-14 1.00519e-06)
(6.89889e-06 9.72068e-06 -1.26266e-16 -6.5129e-06 -2.20114e-07 2.96533e-13 1.63534e-13 3.96343e-14 8.83049e-07)
(6.88576e-06 1.05156e-05 5.6449e-17 -7.41972e-06 -6.20842e-07 3.92919e-14 9.76407e-13 1.20921e-14 6.97038e-07)
(6.53398e-06 1.11472e-05 4.34882e-17 -8.46193e-06 -9.8675e-07 -1.76919e-13 -1.76152e-14 -1.67701e-15 5.45499e-07)
(6.22369e-06 1.15306e-05 -3.36644e-18 -9.65212e-06 -1.2862e-06 2.4864e-14 -1.00923e-12 -6.57219e-14 3.55165e-07)
(5.4368e-06 1.17362e-05 -3.77767e-17 -1.04305e-05 -1.45966e-06 6.85041e-14 -2.33849e-13 -1.79083e-14 2.06789e-07)
(4.49752e-06 1.16787e-05 -8.38956e-18 -1.1668e-05 -1.3911e-06 -2.71056e-15 6.08568e-13 1.1112e-13 4.67531e-08)
(2.95006e-06 1.15415e-05 -5.10899e-18 -1.17665e-05 -1.12457e-06 1.44521e-14 -3.19875e-14 -3.44879e-15 -4.46618e-08)
(1.05667e-06 1.12394e-05 -3.74846e-17 -1.23265e-05 -4.02169e-07 6.42726e-15 -5.26999e-13 -2.12013e-13 -1.25388e-07)
(-1.38975e-06 1.11705e-05 1.35374e-17 -1.08514e-05 4.09046e-07 -9.02279e-15 -1.80441e-13 -3.1095e-15 -9.68911e-08)
(6.92472e-06 9.82115e-07 -3.11351e-18 -4.54792e-07 1.4715e-06 5.06083e-14 -1.9544e-14 1.27809e-13 1.46937e-06)
(8.46559e-06 1.84701e-06 1.32432e-18 -1.3597e-06 -2.48758e-08 -9.87519e-16 -1.03347e-13 -7.41442e-15 4.25047e-08)
(8.44157e-06 2.97516e-06 9.69209e-19 -1.84114e-06 -7.42291e-08 -2.84313e-16 -1.11795e-13 -4.50626e-15 -1.30875e-08)
(8.37847e-06 4.0784e-06 1.34276e-18 -2.99849e-06 -2.44838e-07 -4.69284e-15 9.4426e-14 1.00897e-14 -2.79577e-08)
(8.35043e-06 5.11343e-06 -1.98432e-17 -3.45769e-06 -3.84593e-07 7.8171e-15 4.99705e-13 3.40476e-14 -1.22996e-07)
(8.19452e-06 6.07405e-06 -6.98172e-18 -4.64683e-06 -6.08217e-07 5.42957e-14 -4.94021e-14 -6.68344e-15 -1.6738e-07)
(8.12755e-06 6.91708e-06 3.8592e-17 -5.2219e-06 -8.24755e-07 1.34856e-14 -7.93999e-13 -6.56092e-14 -2.84516e-07)
(7.83055e-06 7.64889e-06 4.97954e-17 -6.31727e-06 -1.05699e-06 -1.19811e-13 1.75341e-13 8.22117e-15 -3.56897e-07)
(7.63028e-06 8.2161e-06 -3.95055e-17 -7.10218e-06 -1.28162e-06 -2.72319e-14 1.03932e-12 6.55117e-14 -4.81971e-07)
(7.09696e-06 8.6461e-06 -4.37071e-17 -7.97943e-06 -1.44772e-06 1.84225e-13 -1.42357e-14 -6.85181e-15 -5.67969e-07)
(6.59752e-06 8.87871e-06 5.19424e-18 -8.94327e-06 -1.54766e-06 -4.76586e-14 -1.07724e-12 -1.05954e-13 -6.82312e-07)
(5.66572e-06 8.98678e-06 1.34594e-16 -9.41047e-06 -1.52114e-06 -2.49746e-13 -2.32276e-13 -3.09316e-15 -7.53787e-07)
(4.64787e-06 8.9091e-06 1.49526e-16 -1.02922e-05 -1.30955e-06 4.78161e-14 6.55582e-13 1.156e-13 -8.30194e-07)
(3.14358e-06 8.81405e-06 -9.43273e-17 -9.96511e-06 -9.51187e-07 2.74108e-13 -2.67652e-14 -3.34104e-15 -8.47149e-07)
(1.46711e-06 8.62504e-06 -2.56297e-16 -1.01561e-05 -2.86782e-07 4.37869e-14 -5.35063e-13 -1.75104e-13 -8.5471e-07)
(-5.70363e-07 8.66132e-06 1.06499e-16 -8.39424e-06 3.74977e-07 -8.43958e-14 -1.63385e-13 -6.92575e-16 -7.79274e-07)
(8.47209e-06 7.92325e-07 -7.76465e-20 -4.51909e-07 4.22233e-08 1.29804e-15 -1.6243e-14 3.45318e-15 3.77615e-08)
(9.60446e-06 1.4713e-06 -3.44665e-17 -1.32336e-06 -1.15288e-06 2.59264e-14 -1.01484e-13 -9.622e-15 -1.103e-06)
(9.53563e-06 2.36641e-06 8.47091e-17 -1.76097e-06 -1.16456e-06 -2.69367e-14 -1.12015e-13 -4.54728e-14 -1.14512e-06)
(9.4176e-06 3.23368e-06 5.3946e-17 -2.90423e-06 -1.27776e-06 -1.91112e-13 9.37245e-14 2.00045e-14 -1.14155e-06)
(9.30648e-06 4.04074e-06 -1.95569e-16 -3.30017e-06 -1.3413e-06 7.74348e-14 5.11286e-13 9.76822e-14 -1.20982e-06)
(9.05603e-06 4.77645e-06 -4.91101e-17 -4.45633e-06 -1.46646e-06 3.96327e-13 -4.60212e-14 -2.02242e-14 -1.2221e-06)
(8.86929e-06 5.41057e-06 1.7644e-16 -4.94427e-06 -1.56832e-06 6.12832e-14 -8.11854e-13 -1.26776e-13 -1.29856e-06)
(8.44617e-06 5.94632e-06 1.81281e-16 -5.95898e-06 -1.66419e-06 -4.45125e-13 1.89381e-13 -1.58535e-14 -1.32566e-06)
(8.10386e-06 6.34522e-06 -1.15597e-16 -6.61287e-06 -1.74323e-06 -7.88591e-14 1.09505e-12 1.06401e-13 -1.39686e-06)
(7.43891e-06 6.63529e-06 -1.06606e-16 -7.33155e-06 -1.75076e-06 4.62615e-13 -9.47407e-15 -1.05027e-14 -1.42625e-06)
(6.81926e-06 6.77251e-06 9.01405e-18 -8.09534e-06 -1.70358e-06 -1.03205e-13 -1.13111e-12 -1.32185e-13 -1.47682e-06)
(5.81348e-06 6.82872e-06 2.6062e-16 -8.31213e-06 -1.53962e-06 -4.9241e-13 -2.35603e-13 7.10819e-15 -1.48617e-06)
(4.78762e-06 6.75654e-06 2.70501e-16 -8.93291e-06 -1.24619e-06 8.62415e-14 6.87299e-13 1.13674e-13 -1.49712e-06)
(3.37484e-06 6.70348e-06 -1.59056e-16 -8.31861e-06 -8.50161e-07 4.72023e-13 -2.18957e-14 -3.30947e-15 -1.45879e-06)
(1.91761e-06 6.59873e-06 -4.25052e-16 -8.30121e-06 -2.59514e-07 7.24173e-14 -5.29523e-13 -1.4397e-13 -1.41362e-06)
(2.27214e-07 6.69471e-06 1.76902e-16 -6.40627e-06 2.74704e-07 -1.42159e-13 -1.42365e-13 6.9731e-17 -1.30722e-06)
(9.62357e-06 6.31381e-07 2.18195e-18 -4.33647e-07 -1.10191e-06 -3.82151e-14 -1.65312e-14 -9.61423e-14 -1.10918e-06)
(1.04263e-05 1.16153e-06 -6.30853e-17 -1.25732e-06 -2.04378e-06 4.72269e-14 -9.80184e-14 -1.11812e-14 -2.00971e-06)
(1.03179e-05 1.86535e-06 1.50825e-16 -1.63012e-06 -2.02021e-06 -4.80079e-14 -1.12108e-13 -7.80943e-14 -2.03977e-06)
(1.01508e-05 2.54087e-06 9.41163e-17 -2.74135e-06 -2.08136e-06 -3.37985e-13 9.14364e-14 2.75951e-14 -2.01882e-06)
(9.96927e-06 3.16445e-06 -3.34208e-16 -3.05507e-06 -2.07623e-06 1.32096e-13 5.20091e-13 1.48345e-13 -2.06309e-06)
(9.63782e-06 3.72273e-06 -7.97227e-17 -4.16216e-06 -2.11429e-06 6.63568e-13 -4.13776e-14 -3.04932e-14 -2.04613e-06)
(9.35564e-06 4.1953e-06 2.84067e-16 -4.55019e-06 -2.11772e-06 9.84261e-14 -8.23226e-13 -1.73862e-13 -2.08663e-06)
(8.83314e-06 4.58421e-06 2.79162e-16 -5.4772e-06 -2.09927e-06 -6.96462e-13 2.06239e-13 -3.40707e-14 -2.07405e-06)
(8.38883e-06 4.86193e-06 -1.74994e-16 -6.00291e-06 -2.0618e-06 -1.18493e-13 1.14433e-12 1.36849e-13 -2.09914e-06)
(7.63571e-06 5.05639e-06 -1.52045e-16 -6.57957e-06 -1.94735e-06 6.75066e-13 -3.98186e-15 -1.30536e-14 -2.08119e-06)
(6.9495e-06 5.13485e-06 1.0213e-17 -7.17848e-06 -1.79526e-06 -1.45363e-13 -1.17238e-12 -1.48319e-13 -2.07975e-06)
(5.92169e-06 5.1644e-06 3.53073e-16 -7.20443e-06 -1.54054e-06 -6.76011e-13 -2.43e-13 1.40175e-14 -2.04024e-06)
(4.93411e-06 5.10693e-06 3.62589e-16 -7.64778e-06 -1.20658e-06 1.15278e-13 7.07159e-13 1.0826e-13 -2.0011e-06)
(3.64017e-06 5.08817e-06 -2.06565e-16 -6.85335e-06 -8.05988e-07 6.22159e-13 -1.70996e-14 -3.35514e-15 -1.92274e-06)
(2.3951e-06 5.04336e-06 -5.54815e-16 -6.74365e-06 -2.94886e-07 9.42808e-14 -5.1561e-13 -1.17747e-13 -1.84041e-06)
(1.00719e-06 5.17384e-06 2.30591e-16 -4.81933e-06 1.27082e-07 -1.8646e-13 -1.19754e-13 3.86465e-17 -1.71494e-06)
(1.04568e-05 4.98636e-07 3.85701e-18 -4.01239e-07 -2.00722e-06 -6.95129e-14 -1.70472e-14 -1.74988e-13 -2.01746e-06)
(1.10089e-05 9.13965e-07 -8.58455e-17 -1.165e-06 -2.74347e-06 6.39881e-14 -9.31441e-14 -1.2271e-14 -2.72328e-06)
(1.08664e-05 1.46564e-06 2.02837e-16 -1.45464e-06 -2.68785e-06 -6.45737e-14 -1.09983e-13 -1.03937e-13 -2.74285e-06)
(1.06564e-05 1.99014e-06 1.24847e-16 -2.51946e-06 -2.70307e-06 -4.53045e-13 8.86495e-14 3.33841e-14 -2.706e-06)
(1.04169e-05 2.47056e-06 -4.43116e-16 -2.73594e-06 -2.63778e-06 1.74777e-13 5.26191e-13 1.8846e-13 -2.72931e-06)
(1.00177e-05 2.89328e-06 -1.02187e-16 -3.78342e-06 -2.60076e-06 8.71251e-13 -3.515e-14 -3.82375e-14 -2.68648e-06)
(9.66165e-06 3.24447e-06 3.67796e-16 -4.06459e-06 -2.5219e-06 1.27143e-13 -8.29301e-13 -2.09858e-13 -2.696e-06)
(9.0628e-06 3.52685e-06 3.52524e-16 -4.90384e-06 -2.4098e-06 -8.8975e-13 2.25239e-13 -4.77594e-14 -2.64953e-06)
(8.54836e-06 3.71951e-06 -2.20951e-16 -5.31037e-06 -2.28122e-06 -1.488e-13 1.18797e-12 1.59135e-13 -2.63605e-06)
(7.7395e-06 3.85063e-06 -1.8538e-16 -5.76624e-06 -2.07493e-06 8.36696e-13 2.09265e-15 -1.48352e-14 -2.57943e-06)
(7.02361e-06 3.89413e-06 1.01863e-17 -6.23607e-06 -1.84992e-06 -1.77298e-13 -1.2045e-12 -1.57636e-13 -2.53638e-06)
(6.00534e-06 3.91123e-06 4.21916e-16 -6.1243e-06 -1.53747e-06 -8.14831e-13 -2.53958e-13 1.86472e-14 -2.45912e-06)
(5.07967e-06 3.86985e-06 4.3275e-16 -6.45876e-06 -1.18853e-06 1.37235e-13 7.19005e-13 1.0149e-13 -2.3822e-06)
(3.91028e-06 3.87525e-06 -2.42078e-16 -5.56514e-06 -8.00932e-07 7.3625e-13 -1.29245e-14 -3.45838e-15 -2.27528e-06)
(2.85867e-06 3.86944e-06 -6.55045e-16 -5.44581e-06 -3.65736e-07 1.11016e-13 -4.97635e-13 -9.6281e-14 -2.16709e-06)
(1.72678e-06 4.01293e-06 2.71849e-16 -3.56198e-06 -3.80732e-08 -2.20445e-13 -9.67934e-14 -5.83313e-16 -2.03045e-06)
(1.10494e-05 3.92505e-07 5.10744e-18 -3.56224e-07 -2.71945e-06 -9.41636e-14 -1.44194e-14 -2.37051e-13 -2.73267e-06)
(1.14201e-05 7.23512e-07 -1.03959e-16 -1.05036e-06 -3.29288e-06 7.71744e-14 -8.59845e-14 -1.30203e-14 -3.28475e-06)
(1.12487e-05 1.15878e-06 2.43824e-16 -1.24091e-06 -3.20883e-06 -7.75954e-14 -1.07663e-13 -1.24389e-13 -3.29528e-06)
(1.10019e-05 1.56869e-06 1.48502e-16 -2.24855e-06 -3.18407e-06 -5.43184e-13 8.50428e-14 3.77932e-14 -3.24427e-06)
(1.07152e-05 1.94173e-06 -5.28797e-16 -2.35619e-06 -3.0672e-06 2.08105e-13 5.30378e-13 2.20078e-13 -3.24949e-06)
(1.02601e-05 2.26455e-06 -1.18902e-16 -3.33787e-06 -2.9663e-06 1.03273e-12 -2.82329e-14 -4.40859e-14 -3.18432e-06)
(9.8478e-06 2.52805e-06 4.33074e-16 -3.5099e-06 -2.81974e-06 1.49358e-13 -8.31334e-13 -2.37151e-13 -3.16743e-06)
(9.19121e-06 2.73566e-06 4.08085e-16 -4.26542e-06 -2.63182e-06 -1.03859e-12 2.4662e-13 -5.8137e-14 -3.09262e-06)
(8.6302e-06 2.87095e-06 -2.56548e-16 -4.56587e-06 -2.43269e-06 -1.72012e-13 1.22653e-12 1.75013e-13 -3.04719e-06)
(7.7887e-06 2.96117e-06 -2.10146e-16 -4.92308e-06 -2.15802e-06 9.59978e-13 8.73789e-15 -1.60947e-14 -2.95942e-06)
(7.06682e-06 2.98506e-06 9.50966e-18 -5.29834e-06 -1.88289e-06 -2.01567e-13 -1.22891e-12 -1.62357e-13 -2.88332e-06)
(6.07619e-06 2.99647e-06 4.73602e-16 -5.09437e-06 -1.5352e-06 -9.20238e-13 -2.67652e-13 2.17754e-14 -2.77713e-06)
(5.22224e-06 2.96882e-06 4.86662e-16 -5.37578e-06 -1.18615e-06 1.53921e-13 7.25175e-13 9.44429e-14 -2.67183e-06)
(4.17316e-06 2.98828e-06 -2.68501e-16 -4.44437e-06 -8.20204e-07 8.23439e-13 -9.16697e-15 -3.59556e-15 -2.54466e-06)
(3.29309e-06 3.00507e-06 -7.33078e-16 -4.37497e-06 -4.54069e-07 1.239e-13 -4.77764e-13 -7.87881e-14 -2.41859e-06)
(2.37708e-06 3.14684e-06 3.03586e-16 -2.57997e-06 -2.05648e-07 -2.467e-13 -7.41074e-14 -1.45884e-15 -2.27599e-06)
(1.14693e-05 3.10831e-07 6.04852e-18 -3.00206e-07 -3.27967e-06 -1.13574e-13 -1.1963e-14 -2.85892e-13 -3.29569e-06)
(1.17241e-05 5.84101e-07 -1.18599e-16 -9.1644e-07 -3.73055e-06 8.76931e-14 -7.66969e-14 -1.35606e-14 -3.7327e-06)
(1.1528e-05 9.34655e-07 2.76634e-16 -9.94354e-07 -3.62134e-06 -8.79795e-14 -1.0438e-13 -1.40831e-13 -3.7356e-06)
(1.12492e-05 1.26193e-06 1.66964e-16 -1.93644e-06 -3.56215e-06 -6.14822e-13 8.11713e-14 4.12315e-14 -3.67201e-06)
(1.09239e-05 1.55828e-06 -5.97334e-16 -1.92632e-06 -3.40122e-06 2.34525e-13 5.33089e-13 2.45475e-13 -3.66184e-06)
(1.04216e-05 1.81142e-06 -1.31503e-16 -2.83887e-06 -3.24619e-06 1.16023e-12 -2.00183e-14 -4.85786e-14 -3.57739e-06)
(9.96613e-06 2.01447e-06 4.84852e-16 -2.9021e-06 -3.04395e-06 1.66827e-13 -8.30383e-13 -2.58323e-13 -3.53819e-06)
(9.26448e-06 2.17274e-06 4.50837e-16 -3.58028e-06 -2.79449e-06 -1.15518e-12 2.69891e-13 -6.60807e-14 -3.43964e-06)
(8.6724e-06 2.27099e-06 -2.84813e-16 -3.78859e-06 -2.54026e-06 -1.9012e-13 1.26166e-12 1.86711e-13 -3.36785e-06)
(7.81171e-06 2.33658e-06 -2.28768e-16 -4.06864e-06 -2.21416e-06 1.05583e-12 1.55878e-14 -1.70023e-14 -3.25483e-06)
(7.09629e-06 2.35006e-06 8.27878e-18 -4.37991e-06 -1.90404e-06 -2.20393e-13 -1.24777e-12 -1.64711e-13 -3.15239e-06)
(6.13951e-06 2.35897e-06 5.1288e-16 -4.12209e-06 -1.53498e-06 -1.00198e-12 -2.83686e-13 2.38571e-14 -3.02371e-06)
(5.35653e-06 2.34076e-06 5.2917e-16 -4.395e-06 -1.193e-06 1.66882e-13 7.27582e-13 8.80494e-14 -2.8968e-06)
(4.41533e-06 2.36524e-06 -2.88296e-16 -3.47246e-06 -8.50832e-07 8.91494e-13 -5.59957e-15 -3.74073e-15 -2.75491e-06)
(3.68247e-06 2.39127e-06 -7.95101e-16 -3.49676e-06 -5.44822e-07 1.34023e-13 -4.57409e-13 -6.47707e-14 -2.61618e-06)
(2.94508e-06 2.51979e-06 3.28451e-16 -1.82364e-06 -3.61441e-07 -2.67372e-13 -5.19838e-14 -2.4043e-15 -2.47048e-06)
(1.17808e-05 2.51025e-07 6.76874e-18 -2.34721e-07 -3.72647e-06 -1.29074e-13 -6.3003e-15 -3.24867e-13 -3.74514e-06)
(1.1974e-05 4.89293e-07 -1.3077e-16 -7.6599e-07 -4.0887e-06 9.63095e-14 -6.76826e-14 -1.39637e-14 -4.09971e-06)
(1.17562e-05 7.82688e-07 3.03688e-16 -7.19062e-07 -3.95737e-06 -9.64848e-14 -1.00849e-13 -1.54369e-13 -4.09608e-06)
(1.14487e-05 1.05468e-06 1.81856e-16 -1.58942e-06 -3.86811e-06 -6.73352e-13 7.66641e-14 4.39829e-14 -4.02142e-06)
(1.10908e-05 1.30045e-06 -6.53759e-16 -1.45418e-06 -3.66966e-06 2.5606e-13 5.3459e-13 2.66182e-13 -3.99792e-06)
(1.05471e-05 1.50877e-06 -1.41316e-16 -2.29605e-06 -3.46795e-06 1.26392e-12 -1.14073e-14 -5.21578e-14 -3.89699e-06)
(1.00565e-05 1.67359e-06 5.27121e-16 -2.25235e-06 -3.21951e-06 1.8098e-13 -8.27042e-13 -2.74875e-13 -3.83857e-06)
(9.31716e-06 1.80213e-06 4.84831e-16 -2.85992e-06 -2.91898e-06 -1.24944e-12 2.94792e-13 -7.25662e-14 -3.72017e-06)
(8.70203e-06 1.87885e-06 -3.08182e-16 -2.99011e-06 -2.62044e-06 -2.04707e-13 1.29358e-12 1.95041e-13 -3.6261e-06)
(7.8281e-06 1.93093e-06 -2.43353e-16 -3.21196e-06 -2.25439e-06 1.13292e-12 2.24468e-14 -1.77084e-14 -3.49239e-06)
(7.12244e-06 1.93989e-06 6.66609e-18 -3.48613e-06 -1.91799e-06 -2.35505e-13 -1.2626e-12 -1.65479e-13 -3.36832e-06)
(6.19788e-06 1.94685e-06 5.44028e-16 -3.20584e-06 -1.53543e-06 -1.0676e-12 -3.0155e-13 2.54151e-14 -3.22164e-06)
(5.47767e-06 1.93367e-06 5.63831e-16 -3.50605e-06 -1.20207e-06 1.77298e-13 7.27185e-13 8.24747e-14 -3.0776e-06)
(4.62791e-06 1.95518e-06 -3.04065e-16 -2.6283e-06 -8.82292e-07 9.46343e-13 -2.61352e-15 -3.87374e-15 -2.92434e-06)
(4.0173e-06 1.97998e-06 -8.45871e-16 -2.77897e-06 -6.26606e-07 1.42211e-13 -4.37304e-13 -5.3551e-14 -2.776e-06)
(3.42538e-06 2.08651e-06 3.48806e-16 -1.25181e-06 -4.96197e-07 -2.84118e-13 -3.04708e-14 -3.25225e-15 -2.62839e-06)
(1.20373e-05 2.10339e-07 7.3524e-18 -1.6087e-07 -4.09244e-06 -1.41782e-13 -4.12636e-15 -3.56805e-13 -4.11352e-06)
(1.22188e-05 4.32628e-07 -1.41401e-16 -6.00453e-07 -4.39678e-06 1.0372e-13 -5.78937e-14 -1.43209e-14 -4.4154e-06)
(1.19811e-05 6.92291e-07 3.27278e-16 -4.17545e-07 -4.24552e-06 -1.03806e-13 -9.70215e-14 -1.66101e-13 -4.40626e-06)
(1.16463e-05 9.32107e-07 1.94686e-16 -1.21088e-06 -4.12968e-06 -7.23634e-13 7.10671e-14 4.63486e-14 -4.32155e-06)
(1.12591e-05 1.14892e-06 -7.0264e-16 -9.44072e-07 -3.89845e-06 2.7455e-13 5.35872e-13 2.84103e-13 -4.28647e-06)
(1.0676e-05 1.333e-06 -1.49527e-16 -1.71419e-06 -3.6556e-06 1.35282e-12 -2.10164e-15 -5.51888e-14 -4.17102e-06)
(1.0154e-05 1.47712e-06 5.63592e-16 -1.56573e-06 -3.36734e-06 1.93098e-13 -8.22005e-13 -2.88891e-13 -4.0958e-06)
(9.37869e-06 1.59158e-06 5.13671e-16 -2.10893e-06 -3.02284e-06 -1.3301e-12 3.21673e-13 -7.80723e-14 -3.96018e-06)
(8.74218e-06 1.65803e-06 -3.28667e-16 -2.17353e-06 -2.68633e-06 -2.17178e-13 1.32317e-12 2.02e-13 -3.84682e-06)
(7.85377e-06 1.70483e-06 -2.55658e-16 -2.35367e-06 -2.28699e-06 1.19877e-12 2.96412e-14 -1.82895e-14 -3.69529e-06)
(7.15412e-06 1.71256e-06 4.89301e-18 -2.61324e-06 -1.92803e-06 -2.48416e-13 -1.27391e-12 -1.66371e-13 -3.55277e-06)
(6.25302e-06 1.71726e-06 5.70643e-16 -2.33654e-06 -1.53463e-06 -1.12363e-12 -3.20907e-13 2.65601e-14 -3.39058e-06)
(5.58219e-06 1.70461e-06 5.93949e-16 -2.69267e-06 -1.20772e-06 1.86195e-13 7.24896e-13 7.83289e-14 -3.23204e-06)
(4.80363e-06 1.71646e-06 -3.17703e-16 -1.88827e-06 -9.05743e-07 9.93112e-13 1.57495e-16 -3.97226e-15 -3.06879e-06)
(4.2901e-06 1.73153e-06 -8.89543e-16 -2.19094e-06 -6.90456e-07 1.49186e-13 -4.17598e-13 -4.48165e-14 -2.91215e-06)
(3.81283e-06 1.80903e-06 3.6645e-16 -8.28157e-07 -6.01759e-07 -2.98373e-13 -9.5494e-15 -3.86899e-15 -2.76231e-06)
(1.22883e-05 1.86011e-07 7.8493e-18 -7.94535e-08 -4.40716e-06 -1.52722e-13 -5.43153e-15 -3.84282e-13 -4.43053e-06)