/*--------------------------------*- C++ -*----------------------------------*\
| =========                 |                                                 |
| \\      /  F ield         | OpenFOAM: The Open Source CFD Toolbox           |
|  \\    /   O peration     | Version:  4.1                                   |
|   \\  /    A nd           | Web:      www.OpenFOAM.org                      |
|    \\/     M anipulation  |                                                 |
\*---------------------------------------------------------------------------*/
FoamFile
{
    version     2.0;
    format      ascii;
    class       volScalarField;
    location    "0.000480";
    object      epsilon;
}
// * * * * * * * * * * * * * * * * * * * * * * * * * * * * * * * * * * * * * //

dimensions      [0 2 -3 0 0 0 0];

internalField   nonuniform List<scalar> 
3072
(
94.026185
84.784014
86.76777
86.639079
87.494965
87.901609
88.261955
88.475795
88.411281
88.335237
87.83263
87.225057
86.363753
85.340576
84.238677
82.877227
81.453988
79.777373
78.185556
76.994069
75.942443
75.635357
75.441518
75.589894
61.059529
62.977935
64.786885
65.177519
65.903488
66.453717
67.08506
67.640639
68.041102
68.39258
68.371239
68.238056
67.857677
67.335791
66.738917
65.95024
65.169547
64.223569
63.338776
62.634785
62.113666
62.072362
62.128153
62.446886
44.558682
46.81421
48.023774
48.451981
48.944665
49.333884
49.792052
50.191611
50.503573
50.740354
50.747892
50.665613
50.382422
49.985321
49.487369
48.855771
48.196669
47.413233
46.701017
46.145199
45.738416
45.740413
45.865308
46.241284
36.03731
37.242443
37.939169
38.271239
38.608811
38.928788
39.304683
39.614505
39.873111
40.018888
40.01448
39.895199
39.620714
39.257664
38.775562
38.202644
37.574443
36.87181
36.229259
35.711026
35.329973
35.288739
35.421951
35.809375
31.382602
31.037411
31.403308
31.661145
31.984845
32.377214
32.791451
33.167139
33.489
33.680888
33.751584
33.666618
33.446264
33.11186
32.649233
32.098583
31.455879
30.758126
30.078727
29.505781
29.057511
28.891972
28.940162
29.255751
30.049439
27.054711
27.130963
27.332624
27.773258
28.333823
28.941603
29.527202
30.026072
30.384984
30.582901
30.594304
30.439538
30.118172
29.635917
29.025916
28.300455
27.499399
26.668414
25.94237
25.323815
24.957891
24.847296
25.022405
34.202371
26.295784
25.895815
26.143591
26.933443
27.933293
29.014333
30.060877
30.974489
31.65913
32.062796
32.172328
31.990779
31.539005
30.837186
29.927114
28.838292
27.625373
26.368118
25.212637
24.21565
23.487353
23.097843
23.050277
48.448265
32.396073
30.969784
31.512656
33.060553
34.954387
36.949013
38.858792
40.516238
41.780284
42.57208
42.867811
42.661206
41.955512
40.799958
39.248754
37.369058
35.217958
32.871558
30.523127
28.440064
26.786044
25.699133
25.197543
61.056008
62.983962
64.79723
65.1878
65.91211
66.461336
67.093988
67.654887
68.058767
68.41057
68.387976
68.253083
67.870346
67.346871
66.748681
65.960859
65.182633
64.239213
63.356195
62.652907
62.131744
62.087048
62.139704
62.456387
38.121443
43.210417
44.962974
45.582164
46.062027
46.480909
47.033569
47.601946
48.134198
48.634553
48.890866
49.062889
49.041828
48.910898
48.695385
48.321585
47.919999
47.353009
46.808234
46.342249
45.99483
45.975433
45.977551
46.181269
27.753661
30.706778
31.733628
32.111613
32.328351
32.491761
32.719515
32.950309
33.160714
33.334514
33.381937
33.370142
33.234039
33.024799
32.742275
32.366873
31.954989
31.451974
30.991314
30.624482
30.35128
30.334099
30.387486
30.613979
23.357504
24.894729
25.327869
25.415606
25.428576
25.439738
25.493981
25.544071
25.585741
25.584629
25.515072
25.39068
25.193607
24.952707
24.653032
24.307857
23.93462
23.530501
23.16382
22.874582
22.673963
22.665451
22.765978
23.021652
21.22786
21.748778
21.841548
21.760856
21.702821
21.691462
21.715825
21.743336
21.761734
21.733544
21.657518
21.520634
21.330745
21.095339
20.805389
20.481705
20.127959
19.763856
19.423505
19.150312
18.959293
18.923986
19.018894
19.265377
20.754404
20.128701
20.017095
19.853794
19.822323
19.872404
19.975644
20.089118
20.178489
20.219785
20.196423
20.097084
19.927621
19.684959
19.377241
19.021553
18.630717
18.230126
17.842826
17.518515
17.280612
17.186696
17.249731
17.479616
23.570346
20.787203
20.542614
20.424286
20.609413
20.933629
21.343919
21.769303
22.143893
22.413362
22.548883
22.537336
22.373141
22.05714
21.609616
21.06148
20.438551
19.778369
19.125567
18.543208
18.083951
17.803053
17.749108
17.918418
34.222087
26.304647
25.899873
26.142798
26.933039
27.936699
29.034382
30.096994
31.008075
31.686045
32.095141
32.208946
32.025007
31.563177
30.848316
29.924424
28.832373
27.618797
26.362305
25.210822
24.20551
23.475514
23.080951
23.030166
44.53762
46.797874
48.01406
48.447733
48.948152
49.349016
49.826616
50.248302
50.571065
50.804036
50.798932
50.70092
50.400222
49.987997
49.479258
48.842101
48.181488
47.397033
46.684769
46.130774
45.723839
45.722918
45.843506
46.214094
27.740381
30.689714
31.718336
32.100108
32.3242
32.498892
32.743803
32.990159
33.208202
33.378773
33.414844
33.390066
33.23932
33.017268
32.725507
32.343966
31.928905
31.423633
30.963102
30.598263
30.326223
30.309571
30.361842
30.586624
20.697017
22.064569
22.519003
22.629474
22.624803
22.586592
22.57231
22.560078
22.536664
22.489899
22.385056
22.250831
22.058177
21.833625
21.579526
21.290322
20.990749
20.664643
20.385654
20.189375
20.068832
20.112436
20.236931
20.486301
18.292772
18.923811
18.989562
18.870638
18.70072
18.531354
18.381187
18.236843
18.092118
17.937466
17.762744
17.576345
17.371498
17.1601
16.942771
16.724137
16.513581
16.312433
16.152412
16.056268
16.028206
16.112037
16.281227
16.551878
17.508183
17.797574
17.676449
17.444591
17.211012
17.002322
16.816942
16.63948
16.46192
16.275756
16.081723
15.880109
15.673614
15.466122
15.259654
15.062815
14.879915
14.719528
14.596115
14.52742
14.522565
14.607772
14.782311
15.053078
17.845498
17.861916
17.674438
17.419677
17.217841
17.059188
16.932651
16.815991
16.692118
16.550063
16.385803
16.199299
15.993591
15.770445
15.536023
15.300695
15.072707
14.864498
14.689103
14.567476
14.518252
14.564518
14.719661
14.985097
20.726368
20.100046
19.991437
19.839889
19.830395
19.892019
20.002733
20.126458
20.226619
20.272141
20.242685
20.133332
19.954264
19.700596
19.381074
19.016539
18.619229
18.213807
17.828208
17.50659
17.270354
17.177132
17.240582
17.47069
30.018438
26.995349
27.077661
27.292627
27.773953
28.354147
28.974532
29.574613
30.091951
30.469781
30.667987
30.671803
30.503535
30.167145
29.66888
29.045965
28.309878
27.498967
26.66469
25.93943
25.317517
24.949046
24.835936
25.009637
36.00985
37.214306
37.917926
38.259123
38.610251
38.947802
39.35881
39.703802
39.981272
40.124615
40.104332
39.964303
39.667165
39.284773
38.78614
38.20232
37.567037
36.857261
36.209734
35.689611
35.303841
35.25849
35.38532
35.768044
23.337852
24.868922
25.305905
25.400263
25.425189
25.45291
25.533135
25.60924
25.665091
25.662346
25.580645
25.440179
25.225415
24.96941
24.656733
24.302318
23.922446
23.512341
23.143036
22.853026
22.650333
22.640706
22.73909
22.994538
18.287447
18.916857
18.983032
18.864862
18.697807
18.532378
18.388313
18.250595
18.110045
17.9561
17.779349
17.589592
17.380821
17.166661
16.947037
16.726402
16.513942
16.310993
16.150537
16.053775
16.02486
16.10877
16.27848
16.550828
16.779783
17.020822
16.87001
16.610343
16.330678
16.066257
15.82094
15.587976
15.361595
15.140054
14.921912
14.71239
14.510393
14.321512
14.14888
13.996205
13.86791
13.766245
13.706564
13.698556
13.749138
13.876939
14.078875
14.361473
16.58188
16.739725
16.529514
16.231536
15.927848
15.647323
15.387573
15.139638
14.898362
14.662323
14.433784
14.215409
14.009153
13.818604
13.647533
13.501116
13.382814
13.296599
13.250169
13.253329
13.31303
13.440725
13.64223
13.921233
17.500431
17.78758
17.666941
17.440614
17.217644
17.019201
16.838881
16.665603
16.492913
16.310809
16.117026
15.91048
15.696667
15.482117
15.268074
15.064338
14.877121
14.714041
14.588919
14.522629
14.51884
14.604237
14.779242
15.049206
21.166863
21.677326
21.780088
21.716434
21.688786
21.709474
21.751328
21.792962
21.823877
21.806161
21.734526
21.588434
21.383648
21.132785
20.826077
20.486779
20.122024
19.751229
19.408261
19.141675
18.954684
18.921702
19.018718
19.264426
31.313829
30.947301
31.330719
31.600546
31.951862
32.390416
32.826319
33.220816
33.5626
33.771569
33.854283
33.762572
33.527364
33.177536
32.697605
32.12929
31.471859
30.761082
30.076563
29.504487
29.05398
28.887954
28.934538
29.246369
31.355327
31.005376
31.378227
31.645948
31.985445
32.399985
32.85117
33.263537
33.608132
33.80248
33.862179
33.759072
33.518774
33.164238
32.684645
32.12201
31.470032
30.762586
30.078341
29.501111
29.045775
28.874368
28.914664
29.224704
21.208856
21.725108
21.820931
21.746478
21.699881
21.705748
21.75499
21.807088
21.840102
21.813767
21.731336
21.582059
21.378114
21.128278
20.826274
20.494105
20.13302
19.761547
19.418179
19.141896
18.946803
18.90923
19.000979
19.247703
17.500333
17.786774
17.664649
17.432664
17.201152
16.996286
16.816582
16.644816
16.471965
16.289105
16.09673
15.893609
15.684535
15.474902
15.26709
15.068951
14.883857
14.720932
14.596266
14.525696
14.519109
14.604251
14.779981
15.052423
16.578736
16.734656
16.522646
16.222696
15.917299
15.635221
15.373742
15.124702
14.884194
14.651008
14.425756
14.209965
14.005826
13.817123
13.647605
13.502133
13.384229
13.298145
13.251941
13.255248
13.315118
13.443247
13.645858
13.925261
16.786032
17.021889
16.869721
16.61181
16.336023
16.077103
15.833761
15.600599
15.377286
15.159624
14.94445
14.733715
14.528203
14.334855
14.15681
13.998875
13.86756
13.764913
13.702792
13.697607
13.749507
13.876901
14.078263
14.358543
18.28632
18.906313
18.974867
18.862348
18.70535
18.552998
18.411261
18.269368
18.130735
17.983103
17.812692
17.621819
17.408011
17.186248
16.9564
16.725023
16.506286
16.301664
16.139487
16.049853
16.026333
16.113232
16.285131
16.554406
23.275683
24.786187
25.23625
25.34235
25.386636
25.439011
25.520328
25.5867
25.644474
25.659993
25.603067
25.476265
25.266499
25.007955
24.684147
24.312592
23.919775
23.505079
23.13617
22.856444
22.662897
22.663036
22.770842
23.028099
35.953844
37.136505
37.858202
38.207604
38.574473
38.933656
39.335978
39.665729
39.941956
40.106485
40.1163
39.996003
39.709445
39.32996
38.826224
38.228974
37.580418
36.86272
36.212627
35.696401
35.315889
35.27457
35.408922
35.794824
30.028191
27.027686
27.107054
27.31543
27.768345
28.347901
28.984056
29.60337
30.126013
30.494389
30.687081
30.685661
30.514526
30.175679
29.679591
29.056629
28.321012
27.510418
26.676186
25.94536
25.318755
24.946669
24.830476
25.00128
20.740282
20.110894
19.998563
19.837673
19.812214
19.872367
19.990822
20.12346
20.227649
20.274953
20.249318
20.145395
19.968537
19.716493
19.399423
19.035371
18.637695
18.231279
17.840228
17.51395
17.272324
17.176876
17.239851
17.468539
17.838309
17.850185
17.658454
17.398952
17.193381
17.032543
16.904767
16.788545
16.668575
16.533906
16.377817
16.197848
15.99577
15.774329
15.541286
15.306685
15.078403
14.868945
14.692081
14.569965
14.519689
14.56633
14.723523
14.989854
17.498314
17.782042
17.656454
17.423449
17.192984
16.987287
16.799737
16.622003
16.449835
16.273748
16.089078
15.892199
15.686266
15.477049
15.267213
15.066124
14.880596
14.718457
14.593837
14.528619
14.525894
14.612182
14.787854
15.058453
18.289302
18.909343
18.974927
18.857335
18.69338
18.533695
18.384773
18.23814
18.099543
17.954717
17.78886
17.604352
17.396041
17.178328
16.951046
16.721312
16.503919
16.300431
16.139352
16.051003
16.028569
16.116377
16.289257
16.559306
20.67713
22.020178
22.480287
22.598634
22.604449
22.582005
22.574695
22.559188
22.54233
22.509988
22.421105
22.29399
22.100618
21.86712
21.595392
21.284811
20.970001
20.638434
20.357625
20.174463
20.065209
20.120407
20.255641
20.506838
27.633115
30.536159
31.58538
31.984056
32.231982
32.432292
32.693917
32.944111
33.175185
33.376237
33.452619
33.458214
33.32384
33.099292
32.786095
32.372807
31.930206
31.411015
30.947601
30.592706
30.330207
30.327819
30.396058
30.62875
44.458639
46.688683
47.933262
48.37936
48.894939
49.310621
49.799131
50.216145
50.544518
50.80165
50.829448
50.757764
50.472395
50.062366
49.543993
48.887805
48.206665
47.407383
46.689104
46.134733
45.726599
45.729441
45.854264
46.226872
34.19303
26.273529
25.867285
26.110379
26.900692
27.907914
29.006595
30.079169
31.010166
31.707884
32.120521
32.233297
32.049964
31.587665
30.871887
29.946375
28.850127
27.633951
26.373741
25.219558
24.213788
23.480014
23.089033
23.038269
23.563849
20.774157
20.523167
20.399657
20.582747
20.908343
21.322297
21.756237
22.140521
22.420603
22.564446
22.559249
22.396829
22.077376
21.6247
21.073032
20.448086
19.786021
19.131617
18.549256
18.087996
17.808195
17.755451
17.924908
20.728201
20.096935
19.97964
19.816806
19.794497
19.844949
19.946606
20.065173
20.166909
20.221247
20.208363
20.118107
19.951767
19.703601
19.386942
19.025399
18.630661
18.227004
17.840893
17.51962
17.284449
17.192925
17.258261
17.489008
21.179487
21.690746
21.785948
21.709656
21.664499
21.667592
21.694618
21.72728
21.757296
21.74727
21.689887
21.561748
21.370965
21.126965
20.824002
20.487147
20.124489
19.754944
19.41163
19.145654
18.959413
18.92763
19.025974
19.272395
23.297236
24.815906
25.259615
25.354282
25.382484
25.413791
25.478179
25.533178
25.589943
25.609861
25.561137
25.446692
25.247123
24.994404
24.673148
24.303192
23.911486
23.497228
23.128258
22.848593
22.655713
22.658218
22.768145
23.027081
27.653004
30.566895
31.61328
32.004361
32.239824
32.425155
32.67419
32.915349
33.144074
33.345245
33.423999
33.434692
33.305011
33.083541
32.772411
32.3606
31.919142
31.400705
30.938206
30.584119
30.324416
30.324525
30.394998
30.628473
37.904687
42.921691
44.715337
45.364761
45.878583
46.330467
46.915623
47.518539
48.082312
48.626824
48.938159
49.158893
49.163528
49.029558
48.788821
48.377032
47.939192
47.349183
46.803018
46.338348
45.995672
45.977756
45.986796
46.193755
60.93918
62.809842
64.673739
65.089795
65.840692
66.412893
67.065587
67.636717
68.051896
68.427137
68.43006
68.314233
67.940685
67.416478
66.812065
66.011583
65.215807
64.255723
63.365735
62.657075
62.133138
62.081224
62.124611
62.429828
48.439637
32.382015
30.949179
31.486464
33.029244
34.920089
36.915992
38.833346
40.505407
41.788032
42.597455
42.904185
42.700564
41.991396
40.828854
39.269752
37.383274
35.228071
32.881418
30.53681
28.44835
26.794489
25.706964
25.203977
34.216196
26.297853
25.884632
26.12023
26.902949
27.89976
28.985218
30.045705
30.966808
31.663634
32.089059
32.212602
32.032704
31.574059
30.861037
29.939054
28.845005
27.629812
26.374488
25.222567
24.220443
23.491893
23.101027
23.05142
30.027008
27.004028
27.077498
27.278948
27.738985
28.300655
28.905454
29.498946
30.01458
30.400471
30.619473
30.644346
30.492512
30.163256
29.668472
29.049266
28.315351
27.505431
26.670704
25.946115
25.326217
24.961039
24.850644
25.025164
31.333419
30.970199
31.343947
31.602419
31.935895
32.349609
32.768421
33.153284
33.492752
33.710647
33.805898
33.732431
33.511913
33.169082
32.692373
32.125526
31.46868
30.757444
30.071017
29.497682
29.047361
28.882992
28.930524
29.242204
35.976564
37.162166
37.876806
38.216905
38.568629
38.907975
39.294519
39.612343
39.887002
40.056008
40.07326
39.964551
39.688735
39.316804
38.81645
38.220719
37.572137
36.852896
36.200036
35.681071
35.299677
35.260487
35.39516
35.779808
44.473963
46.704612
47.9439
48.385616
48.892629
49.296718
49.775669
50.184621
50.509823
50.767566
50.797339
50.729961
50.450775
50.046803
49.532731
48.878954
48.198789
47.399204
46.679538
46.123041
45.716823
45.718821
45.843348
46.213114
60.936548
62.798613
64.657326
65.074738
65.828123
66.402672
67.056896
67.629466
68.043931
68.418388
68.420831
68.304825
67.933376
67.412585
66.810964
66.012119
65.217082
64.257121
63.365824
62.653977
62.127043
62.071863
62.111976
62.413941
94.13003
84.788669
86.818535
86.697261
87.554093
87.970297
88.353026
88.542148
88.471591
88.399893
87.892005
87.272839
86.405094
85.381976
84.282083
82.919921
81.488199
79.797146
78.189556
76.992266
75.939779
75.620005
75.406614
75.532877
121.26331
120.20389
119.40894
118.76042
118.43356
118.30265
118.23587
118.21387
118.1671
118.23887
118.25296
118.35478
118.45355
118.49899
118.56988
118.46182
118.50083
118.53074
118.73313
119.21024
120.05621
122.21036
124.08435
148.21474
91.0019
90.154415
89.609779
89.25797
89.364132
89.67429
90.162686
90.75647
91.29498
91.899891
92.415802
92.944388
93.418179
93.79375
94.145037
94.272695
94.454924
94.55723
94.69885
94.953624
95.282656
96.337186
96.824996
108.64651
72.298833
71.631363
71.281441
71.168201
71.513168
72.050211
72.766128
73.581912
74.338397
75.118915
75.814421
76.4497
77.000442
77.395177
77.733691
77.861126
77.921311
77.869438
77.760392
77.68688
77.564922
77.834064
77.837293
83.978679
60.042944
59.536846
59.387686
59.532241
60.097368
60.855619
61.7523
62.73187
63.653388
64.531999
65.326144
65.989058
66.552386
66.930024
67.164671
67.194154
67.039818
66.762082
66.325813
65.890264
65.395969
65.044023
64.754136
69.262966
51.493518
51.173807
51.286512
51.766017
52.636714
53.694518
54.873936
56.065595
57.192658
58.197347
59.090968
59.805293
60.335484
60.647077
60.691992
60.508647
60.051844
59.399039
58.563682
57.617585
56.666849
55.768191
55.25899
61.155475
45.535439
45.548548
46.085103
47.100468
48.503692
50.068165
51.742579
53.344554
54.814942
56.108407
57.192285
58.004408
58.534814
58.723334
58.534692
57.972189
57.027776
55.777548
54.261685
52.621275
50.955028
49.609848
49.130338
60.005245
42.164969
42.893344
44.296014
46.329429
48.773588
51.384361
53.996707
56.46196
58.695345
60.624699
62.201743
63.359896
64.04952
64.207601
63.775848
62.716299
61.034322
58.822412
56.219037
53.441766
50.739652
48.855825
49.078963
68.109992
44.179709
46.168672
49.325358
53.353337
57.843912
62.490222
66.973749
71.151834
74.932307
78.229225
80.931987
82.95049
84.175657
84.523857
83.911933
82.263923
79.572113
75.962258
71.693946
67.153913
62.848567
60.36057
61.246339
91.599816
137.71398
134.79192
132.72003
131.36479
130.73709
130.62362
130.98936
131.81243
133.08587
134.79893
136.94601
139.54105
142.57985
146.07417
150.02343
154.42415
159.28512
164.58439
170.35748
176.6991
183.95073
193.28311
207.31341
258.10786
121.52977
118.95214
117.08235
115.84168
115.18406
115.00155
115.26321
115.94346
117.03642
118.52512
120.40304
122.67128
125.32453
128.37142
131.80407
135.6248
139.83278
144.41871
149.40634
154.86963
161.0875
168.93563
180.48118
217.90659
111.45184
109.02726
107.24219
106.0433
105.36342
105.14013
105.34528
105.95424
106.96151
108.35181
110.11722
112.2549
114.7558
117.62385
120.84633
124.42375
128.35411
132.63161
137.27106
142.32851
148.02917
155.03661
165.01117
194.18802
106.24126
103.86022
102.09464
100.89583
100.1928
99.937234
100.10399
100.6723
101.63571
102.9853
104.71211
106.8133
109.28037
112.11042
115.29271
118.82001
122.68751
126.88675
131.42345
136.3398
141.8066
148.33761
157.31974
181.43819
105.08172
102.6425
100.83067
99.587518
98.84058
98.54368
98.672209
99.210981
100.1533
101.49261
103.22554
105.34657
107.85497
110.74529
114.00673
117.63075
121.60013
125.90758
130.54305
135.53747
141.01849
147.39887
155.95407
177.21112
107.78063
105.16498
103.2233
101.87706
101.04626
100.68181
100.75715
101.26087
102.19002
103.54144
105.31382
107.50531
110.11927
113.15201
116.59994
120.45083
124.68176
129.27875
134.21923
139.52101
145.28147
151.86674
160.59448
180.75754
114.70753
111.74645
109.54442
107.9976
107.00827
106.516
106.48842
106.92019
107.81753
109.18096
111.0146
113.31854
116.0983
119.35908
123.09892
127.31
131.96989
137.05936
142.54981
148.43812
154.8167
162.04713
171.67234
192.58245
126.63026
123.00462
120.2484
118.2681
116.96903
116.26865
116.11937
116.49976
117.40998
118.84854
120.82212
123.33364
126.39383
130.01562
134.20975
138.98647
144.34131
150.253
156.67067
163.56731
171.02872
179.45702
190.82545
214.8212
44.176583
46.165813
49.326094
53.35675
57.850237
62.498634
66.983151
71.161255
74.941654
78.236841
80.934608
82.945232
84.160588
84.501504
83.885466
82.232764
79.541858
75.935573
71.668863
67.129034
62.827467
60.342805
61.231126
91.585435
42.157737
42.884205
44.286977
46.323847
48.77227
51.389117
54.005981
56.474842
58.712567
60.643214
62.224369
63.387519
64.078285
64.232625
63.796969
62.736062
61.052511
58.836353
56.219369
53.433787
50.725469
48.846234
49.065223
68.099655
45.53358
45.545237
46.08318
47.100659
48.507164
50.074138
51.751121
53.35528
54.831788
56.130924
57.22094
58.039659
58.574216
58.762679
58.577988
58.018351
57.063832
55.79933
54.274001
52.621264
50.940964
49.589884
49.104879
59.990576
51.49407
51.175969
51.289719
51.768652
52.639406
53.69747
54.878363
56.074686
57.206432
58.216193
59.117458
59.841058
60.381221
60.699884
60.749123
60.559944
60.096209
59.437548
58.588943
57.625102
56.659016
55.752303
55.234
61.143767
60.045033
59.541214
59.391478
59.532954
60.094594
60.849455
61.74625
62.727983
63.65399
64.540762
65.345944
66.021659
66.598775
66.985797
67.221605
67.250372
67.098721
66.815819
66.36635
65.916479
65.408353
65.043515
64.741017
69.25953
72.309036
71.643348
71.29054
71.170275
71.506554
72.035304
72.746707
73.562616
74.325485
75.117445
75.828167
76.480373
77.047106
77.450268
77.792093
77.922641
77.989208
77.93783
77.816761
77.736196
77.604156
77.86145
77.846755
83.99426
91.027758
90.180825
89.6308
89.268045
89.358799
89.655804
90.13656
90.731179
91.281282
91.902073
92.437847
92.986362
93.476085
93.858769
94.211245
94.341952
94.532449
94.641601
94.778745
95.027576
95.344601
96.384221
96.850317
108.66422
121.28883
120.23273
119.43142
118.76683
118.42402
118.2798
118.2049
118.18659
118.15426
118.24693
118.2853
118.41028
118.52488
118.57592
118.64617
118.54484
118.59377
118.63749
118.84014
119.31573
120.15723
122.29698
124.14409
148.27144
126.62798
123.006
120.25014
118.26911
116.96882
116.26689
116.11601
116.49488
117.40408
118.84226
120.81617
123.32883
126.39017
130.01235
134.20734
138.98635
144.34373
150.25596
156.67085
163.56363
171.02263
179.45077
190.82086
214.81925
114.70436
111.74913
109.5477
107.99881
107.00614
106.50945
106.47685
106.90389
107.79845
109.16221
110.99987
113.30987
116.09539
119.3612
123.10586
127.3231
131.99164
137.08569
142.57129
148.4501
154.8212
162.04797
171.67321
192.58602
107.77632
105.16716
103.22573
101.87624
101.04006
100.66856
100.73611
101.23275
102.15812
103.51091
105.29069
107.49338
110.11822
113.16045
116.61898
120.48336
124.72821
129.33127
134.26536
139.5544
145.30343
151.88042
160.60331
180.76468
105.07589
102.64325
100.83124
99.58369
98.829391
98.523205
98.642004
99.172496
100.11068
101.45249
103.19597
105.33293
107.85727
110.76248
114.03977
117.68167
121.66632
125.97716
130.60333
135.58406
141.05234
147.42166
155.96735
177.21879
106.23319
103.85866
102.0926
100.88845
100.17624
99.909323
100.06485
100.62468
101.58488
102.93893
104.68039
106.80333
109.29216
112.1417
115.34266
118.88817
122.7674
126.96518
131.49057
136.39387
141.84866
148.36684
157.33448
181.44225
111.44183
109.02388
107.23837
106.03358
105.34304
105.10661
105.29964
105.90082
106.90695
108.30505
110.09006
112.25511
114.78246
117.67187
120.91143
124.50296
128.43869
132.70893
137.33582
142.38228
148.07242
155.06385
165.01715
194.17805
121.51726
118.94672
117.07723
115.83133
115.16231
114.96639
115.21694
115.8919
116.98717
118.48812
120.38974
122.68723
125.36712
128.43406
131.87917
135.70527
139.90958
144.48257
149.4553
154.90765
161.11354
168.93911
180.45443
217.86261
137.69849
134.78293
132.71185
131.3521
130.71351
130.5884
130.94655
131.76878
133.04916
134.77818
136.9493
139.57015
142.63067
146.13916
150.09284
154.48754
159.33282
164.61118
170.36511
176.69425
183.93145
193.23458
207.22572
258.00488
121.27529
120.21679
119.41678
118.75682
118.41606
118.27312
118.20016
118.18341
118.15196
118.24442
118.2812
118.40461
118.51815
118.56834
118.6375
118.5372
118.5841
118.6283
118.83084
119.30714
120.15129
122.29346
124.14214
148.27474
91.018318
90.171099
89.618743
89.254084
89.345057
89.643514
90.124747
90.719505
91.268992
91.887328
92.419006
92.962773
93.448142
93.828515
94.179685
94.3095
94.499639
94.608851
94.74876
95.0018
95.323154
96.364355
96.833692
108.6537
72.296988
71.631171
71.276318
71.154108
71.490441
72.020888
72.73304
73.548793
74.310182
75.098708
75.803839
76.448655
77.007635
77.406634
77.745356
77.873304
77.938761
77.888669
77.775556
77.702785
77.577532
77.83907
77.829998
83.978413
60.034381
59.530982
59.38048
59.521274
60.083222
60.839666
61.736648
62.717321
63.640762
64.523122
65.321465
65.988116
66.555729
66.934695
67.165259
67.189877
67.035529
66.754688
66.314296
65.876865
65.379703
65.024156
64.72901
69.250729
51.490912
51.174611
51.287944
51.766383
52.636383
53.694126
54.874202
56.067658
57.195309
58.198909
59.092929
59.808391
60.339167
60.647938
60.687013
60.49198
60.025843
59.368011
58.5289
57.579227
56.627913
55.733259
55.225476
61.137716
45.539247
45.553699
46.09162
47.107665
48.511351
50.075476
51.750115
53.351717
54.822714
56.114593
57.196557
58.008619
58.537387
58.717829
58.519363
57.946002
56.987006
55.72568
54.20731
52.567495
50.903943
49.566791
49.093362
59.98058
42.171605
42.899575
44.301453
46.33619
48.781109
51.392461
54.006209
56.472756
58.706678
60.633734
62.209321
63.366892
64.053941
64.20208
63.754723
62.678161
60.980372
58.758619
56.150757
53.37759
50.686209
48.819364
49.045812
68.082852
44.180733
46.174894
49.336347
53.366517
57.859914
62.5064
66.98874
71.166828
74.948497
78.245427
80.945975
82.960816
84.177575
84.515991
83.890847
82.225206
79.519611
75.899458
71.625509
67.085458
62.788626
60.311001
61.207395
91.568703
137.6937
134.77664
132.70587
131.34675
130.70891
130.58516
130.9452
131.76904
133.04969
134.77661
136.94254
139.55697
142.61255
146.11731
150.06716
154.45872
159.30266
164.58106
170.33533
176.66542
183.9041
193.2088
207.20348
257.98978
121.51405
118.94042
117.07076
115.8253
115.15751
114.96396
115.21746
115.89465
116.99009
118.48648
120.37705
122.66097
125.32968
128.38739
131.82247
135.63821
139.83574
144.40665
149.38064
154.83652
161.04703
168.87719
180.40106
217.82592
111.43897
109.01669
107.23082
106.02694
105.33821
105.10488
105.30146
105.90499
106.91055
108.30256
110.07427
112.22289
114.73634
117.61343
120.83831
124.41297
128.33552
132.60055
137.22947
142.2836
147.98401
154.98541
164.95235
194.13406
106.23075
103.85075
102.0841
100.8812
100.17129
99.90773
100.06683
100.62877
101.58764
102.93427
104.66131
106.76713
109.24091
112.07651
115.26012
118.78351
122.64253
126.83066
131.35924
136.27535
141.74716
148.28219
157.26829
181.39635
105.07416
102.63532
100.82264
99.576486
98.824546
98.521583
98.643783
99.176282
100.11253
101.44578
103.17403
105.29366
107.80327
110.69434
113.95251
117.56882
121.528
125.82515
130.45399
135.4505
140.94093
147.3326
155.9004
177.17187
107.77624
105.16061
103.21823
101.86979
101.03548
100.66662
100.73719
101.23572
102.15882
103.50246
105.26661
107.45214
110.063
113.09234
116.53215
120.37009
124.58729
129.17348
134.10814
139.41296
145.18534
151.78704
160.5339
180.71553
114.70639
111.74498
109.54217
107.99376
107.00226
106.50737
106.47712
106.90577
107.79806
109.15301
110.97602
113.27081
116.04436
119.29832
123.02625
127.2207
131.86419
136.94082
142.4235
148.31372
154.70491
161.95446
171.60266
192.53545
126.63172
123.00559
120.24834
118.26676
116.96678
116.2655
116.1159
116.49572
117.40257
118.83298
120.79493
123.29504
126.34599
129.95792
134.13963
138.90238
144.24181
150.13923
156.54899
163.44818
170.9214
179.3674
190.75662
214.77257
44.185393
46.176773
49.337037
53.366024
57.859315
62.506635
66.992579
71.174625
74.960978
78.262387
80.966772
82.981903
84.200088
84.533028
83.900659
82.229111
79.518292
75.897631
71.626413
67.089027
62.791338
60.314322
61.213091
91.574413
42.1573
42.889378
44.29778
46.337826
48.789018
51.406314
54.024982
56.49699
58.738992
60.676042
62.264876
63.433337
64.127546
64.281821
63.838228
62.759855
61.05483
58.819917
56.197653
53.404041
50.693073
48.811942
49.047336
68.091747
45.523988
45.541363
46.086003
47.10943
48.52067
50.090657
51.772496
53.382653
54.863559
56.168245
57.265258
58.089663
58.628643
58.820958
58.6302
58.057269
57.088714
55.806942
54.261956
52.596817
50.922811
49.575663
49.098767
59.983959
51.478633
51.164572
51.284133
51.769872
52.646342
53.709234
54.895055
56.094783
57.229142
58.242366
59.148076
59.876172
60.418042
60.739605
60.79209
60.605165
60.129716
59.446587
58.577223
57.609049
56.643207
55.736706
55.225654
61.127947
60.021943
59.521468
59.378587
59.527815
60.096306
60.857024
61.758243
62.741774
63.666605
64.551026
65.35631
66.033194
66.611357
67.003193
67.249349
67.282047
67.115262
66.80966
66.344493
65.888722
65.3791
65.01855
64.724441
69.235753
72.277862
71.616994
71.272195
71.161186
71.506525
72.042727
72.75881
73.574274
74.331123
75.115149
75.820552
76.470148
77.036866
77.445989
77.796283
77.928751
77.9806
77.907234
77.778201
77.688388
77.554574
77.8165
77.815004
83.955808
90.992548
90.151965
89.611712
89.261265
89.364719
89.672005
90.157405
90.748402
91.286854
91.894194
92.41715
92.956923
93.44445
93.829852
94.188504
94.318735
94.495783
94.586102
94.715155
94.960523
95.283153
96.332599
96.816266
108.64133
121.26169
120.20461
119.41139
118.76549
118.43912
118.30779
118.23953
118.21652
118.17027
118.2434
118.25696
118.36072
118.46272
118.51237
118.58665
118.47779
118.51541
118.54499
118.74511
119.22
120.06493
122.21768
124.08903
148.21872
126.62933
123.00616
120.24897
118.2666
116.96566
116.26332
116.11259
116.49108
117.39682
118.82715
120.79083
123.29397
126.34826
129.96471
134.15157
138.91813
144.25953
150.15779
156.56851
163.46749
170.93837
179.38059
190.76514
214.77488
114.70259
111.74694
109.54462
107.99537
107.00307
106.50741
106.47584
106.90202
107.79157
109.14623
110.97289
113.27268
116.04988
119.30681
123.04008
127.24394
131.89761
136.98183
142.4687
148.35773
154.74232
161.98284
171.62114
192.54369
107.76873
105.16021
103.21891
101.87024
101.03573
100.66636
100.7352
101.2301
102.14885
103.49076
105.25817
107.44922
110.06394
113.09647
116.54246
120.39209
124.6242
129.22297