/*--------------------------------*- C++ -*----------------------------------*\
| =========                 |                                                 |
| \\      /  F ield         | OpenFOAM: The Open Source CFD Toolbox           |
|  \\    /   O peration     | Version:  4.1                                   |
|   \\  /    A nd           | Web:      www.OpenFOAM.org                      |
|    \\/     M anipulation  |                                                 |
\*---------------------------------------------------------------------------*/
FoamFile
{
    version     2.0;
    format      ascii;
    class       volScalarField;
    location    "0.000480";
    object      k;
}
// * * * * * * * * * * * * * * * * * * * * * * * * * * * * * * * * * * * * * //

dimensions      [0 2 -2 0 0 0 0];

internalField   nonuniform List<scalar> 
3072
(
0.53765237
0.48904045
0.47579619
0.45904933
0.44699835
0.43546169
0.42507217
0.41551124
0.40675193
0.39927416
0.39257959
0.38703033
0.38236546
0.37865827
0.37591583
0.37387741
0.37265566
0.37199656
0.37234505
0.37391238
0.37605481
0.3796998
0.38414647
0.39013024
0.49720164
0.49120919
0.4790769
0.46408019
0.45162758
0.44034019
0.43046454
0.42159811
0.41367133
0.40698337
0.40106329
0.39629413
0.39256193
0.38995137
0.38855873
0.38815419
0.38896823
0.39071447
0.39336398
0.39669889
0.40075242
0.40541608
0.41073888
0.4172606
0.46575061
0.46528649
0.45356922
0.44008995
0.4279897
0.41688656
0.40702003
0.39819477
0.3903504
0.38366673
0.37792395
0.37334153
0.3697838
0.36730835
0.36595151
0.36558388
0.36633426
0.36796542
0.37057787
0.37402666
0.37820955
0.38319631
0.38882758
0.39560625
0.44822043
0.44784722
0.43626646
0.42354343
0.41171897
0.40085291
0.39105547
0.38217147
0.37423386
0.36729593
0.36134779
0.35647027
0.35260921
0.34982242
0.34806049
0.34731658
0.34762315
0.3488895
0.35119114
0.35442232
0.35849965
0.36349797
0.36928022
0.37619332
0.4385359
0.43531864
0.42452603
0.41256431
0.40149532
0.39137769
0.38214152
0.37368352
0.36602486
0.35916983
0.35320954
0.34816005
0.34408481
0.34100412
0.33886906
0.33770917
0.33751062
0.33828852
0.34006592
0.34281169
0.34644937
0.35101948
0.35643621
0.36295434
0.43778979
0.42662647
0.41684087
0.40545449
0.39567392
0.38679424
0.37868394
0.37109246
0.36398971
0.35741111
0.35147359
0.3462713
0.34188761
0.33833823
0.33562584
0.3338063
0.33288862
0.332898
0.33384688
0.33578711
0.3386021
0.34233412
0.34693217
0.35258485
0.45386038
0.42728187
0.41760016
0.40669597
0.39889242
0.39202143
0.38562476
0.37923344
0.3727715
0.36634683
0.36015812
0.35436492
0.34902448
0.34430904
0.34033474
0.33716709
0.33485039
0.33339925
0.33287151
0.33336953
0.33485672
0.33731175
0.34073997
0.34525706
0.47055768
0.43999188
0.42695812
0.41580587
0.40855115
0.40208414
0.39578077
0.38928997
0.38264828
0.37605746
0.36973771
0.36383165
0.35839925
0.35351388
0.34927173
0.34572309
0.3429152
0.34082517
0.33942694
0.33879671
0.33906384
0.34023194
0.34240931
0.34582611
0.4972279
0.49124722
0.47910685
0.46408705
0.45159689
0.44027114
0.43036017
0.42146346
0.4135135
0.40681841
0.40089833
0.39612633
0.39239022
0.38977972
0.38840251
0.38802976
0.38888281
0.39067101
0.39335775
0.39672237
0.40079643
0.40546479
0.41078333
0.41729196
0.46682929
0.48586237
0.47895549
0.46777456
0.45652095
0.44645146
0.43787552
0.43042108
0.42396254
0.41864973
0.41410541
0.41069152
0.40838042
0.40723148
0.40730436
0.40837242
0.41056268
0.41348738
0.41689692
0.42049236
0.42439494
0.42839675
0.43249284
0.43747251
0.43993056
0.45215296
0.44611946
0.43667311
0.42667331
0.41732027
0.40896676
0.4014716
0.39478682
0.38900502
0.38403103
0.38006433
0.37704767
0.37502564
0.37397728
0.37379236
0.3744831
0.37581955
0.37781437
0.38033512
0.38330575
0.38683086
0.39075398
0.39568968
0.42831688
0.43506793
0.4281598
0.41864485
0.40892721
0.39979327
0.39142339
0.38370617
0.37667729
0.37034718
0.36478926
0.36009432
0.35628388
0.35339391
0.35134689
0.35016094
0.34980194
0.35021539
0.35141913
0.35331689
0.35590069
0.359281
0.36337022
0.36854862
0.42249618
0.42431209
0.41678657
0.40714385
0.3979089
0.38933701
0.38142168
0.37403335
0.36716171
0.36079817
0.35507992
0.35006629
0.34585583
0.34244587
0.33978532
0.33793555
0.33688207
0.33665304
0.33725201
0.33865174
0.34085837
0.34395819
0.34793299
0.35302318
0.4223141
0.41778341
0.40990258
0.4000862
0.39153221
0.38375082
0.37662626
0.3698966
0.36344129
0.35730318
0.35159506
0.34641725
0.34187841
0.3379587
0.33469894
0.33219971
0.33048812
0.32961548
0.32961147
0.33051621
0.33231204
0.33506107
0.33879607
0.34367994
0.43466344
0.41899447
0.41085138
0.40074266
0.39310978
0.38644529
0.38042282
0.3745669
0.3686802
0.36278436
0.35703352
0.35157993
0.34648331
0.34180065
0.33769991
0.33432974
0.33174767
0.33002502
0.32924166
0.32945365
0.33065853
0.33288961
0.33619787
0.34069853
0.45396292
0.42715066
0.41739984
0.40642875
0.39864775
0.39185078
0.38552119
0.37918273
0.3727453
0.36631503
0.36013034
0.35433635
0.34899208
0.34426344
0.34027265
0.33708638
0.33476224
0.33331043
0.33277994
0.33328564
0.33477102
0.33723023
0.3406609
0.34518244
0.46566686
0.4651697
0.45344611
0.43995958
0.42785634
0.41676804
0.40693605
0.39812452
0.39024804
0.38351436
0.37770761
0.3730505
0.36941667
0.36688306
0.36551811
0.36517841
0.36597187
0.36765086
0.3703132
0.37381521
0.37804585
0.38305461
0.38868415
0.39542919
0.43982173
0.4519822
0.44594214
0.43650722
0.42654135
0.41725319
0.4089906
0.4015562
0.39486694
0.38902935
0.38396873
0.3799097
0.37680318
0.37470693
0.37362185
0.37342646
0.37412216
0.37547474
0.37749767
0.38006306
0.38308161
0.38663773
0.39056902
0.39548732
0.41618153
0.42107291
0.41561803
0.40765854
0.39904397
0.39078504
0.38311927
0.37602598
0.36950853
0.36364998
0.35848407
0.35412588
0.35057071
0.3478443
0.3459461
0.3448178
0.34442796
0.34469628
0.34571525
0.34750902
0.34994902
0.35321097
0.35721057
0.362314
0.4089977
0.41073561
0.40441037
0.39612894
0.3875007
0.37925351
0.3715067
0.36423494
0.35747296
0.35128857
0.34576986
0.34098816
0.33697123
0.33373646
0.33128816
0.32963792
0.32876964
0.32867723
0.32941692
0.33103528
0.33349949
0.33691598
0.34129322
0.3468212
0.40756611
0.40810222
0.4011846
0.39251632
0.38384366
0.37562905
0.3679177
0.36062418
0.35374411
0.34734589
0.34155606
0.33645338
0.33208282
0.32846047
0.32560903
0.32357412
0.32237096
0.32202807
0.32258247
0.32407141
0.32648982
0.32990308
0.33435921
0.33997964
0.41004847
0.40928588
0.40196847
0.39298071
0.38449097
0.37655463
0.36915098
0.3621084
0.35536587
0.34899638
0.34312728
0.3378548
0.33324123
0.32931251
0.32612183
0.32374177
0.32220842
0.32156066
0.32183297
0.3230607
0.32525201
0.3284447
0.33270133
0.33812184
0.42192295
0.41733642
0.40949981
0.39977712
0.39139437
0.38375007
0.37671605
0.37002078
0.3635738
0.35742537
0.35167251
0.34643256
0.34181693
0.33782439
0.33450796
0.33197756
0.33025479
0.32938446
0.32941014
0.33035402
0.3321857
0.33497146
0.33874145
0.34365561
0.4374801
0.4260015
0.41620879
0.40483381
0.3952083
0.38651537
0.37854736
0.37105011
0.36400664
0.35745235
0.35151166
0.34628635
0.34185867
0.33825982
0.33551095
0.33366973
0.33274427
0.33275837
0.33372392
0.33568992
0.33852581
0.34227665
0.34688929
0.35254749
0.44804566
0.44758219
0.43599732
0.42328713
0.41150211
0.4007134
0.39101477
0.38219913
0.37425493
0.36724991
0.36119995
0.35621473
0.35225625
0.34939927
0.34761844
0.34689549
0.34723519
0.34853112
0.35086429
0.35413578
0.35824621
0.36326264
0.36903578
0.37591456
0.42811571
0.43476067
0.42784934
0.4183645
0.40872186
0.3997124
0.39149864
0.38389661
0.37688929
0.37049159
0.36482025
0.36000661
0.3560895
0.35311799
0.35102714
0.34982913
0.34947189
0.34989182
0.35111367
0.35304875
0.35567109
0.35907828
0.36317437
0.36834562
0.4089285
0.41063138
0.40429346
0.39600561
0.38739092
0.37917232
0.37145684
0.36420821
0.3574501
0.35125098
0.34570749
0.34089984
0.33686558
0.3336289
0.33118901
0.32955122
0.32869276
0.32861039
0.32936547
0.33099751
0.33347601
0.33691021
0.34130659
0.34685669
0.40335784
0.40295165
0.3960726
0.3875616
0.37882948
0.37051809
0.36268714
0.35530659
0.34840185
0.34206383
0.3363889
0.33143763
0.32723941
0.32380773
0.32117309
0.3193639
0.31837818
0.31822449
0.31897112
0.32068022
0.32336674
0.32710277
0.33194065
0.3379818
0.40319872
0.40266966
0.39559076
0.38692346
0.37813523
0.3697967
0.36195174
0.35454135
0.34756134
0.34109884
0.33527584
0.33016283
0.32578692
0.32216769
0.31935097
0.31738266
0.31627493
0.31604552
0.31674355
0.31842663
0.32110931
0.32484387
0.32970594
0.33577663
0.40735265
0.40782038
0.40089672
0.39227761
0.38370613
0.3755969
0.36796455
0.36072607
0.35388212
0.34749796
0.34169445
0.3365495
0.33212467
0.3284486
0.32555095
0.32348367
0.3222667
0.32192554
0.32248401
0.32398537
0.32641189
0.32983549
0.3343075
0.33994274
0.42165878
0.42332356
0.41587369
0.40636464
0.39737071
0.38906128
0.38134152
0.3740757
0.36728232
0.36096499
0.35525325
0.35019083
0.34589634
0.34239744
0.33965364
0.33773519
0.33664368
0.33641895
0.3370558
0.33851865
0.3407853
0.34394408
0.34796617
0.35308556
0.43783014
0.43431643
0.42350994
0.41155743
0.40064476
0.39075154
0.38174799
0.37347431
0.36594203
0.35916118
0.35324093
0.34820312
0.34409966
0.34097539
0.3387975
0.33759682
0.33736868
0.33814419
0.33994436
0.34272694
0.34639421
0.35099377
0.35642752
0.36294856
0.4383247
0.43498771
0.42418423
0.41223576
0.40123082
0.39122392
0.38210553
0.37372403
0.36606689
0.35915229
0.35310493
0.34796358
0.34381086
0.34068003
0.33853651
0.33740587
0.3372454
0.33805173
0.33985294
0.34262481
0.34628328
0.3508617
0.35626021
0.36273936
0.42227877
0.42399509
0.41645432
0.4068313
0.39767213
0.38922939
0.38145981
0.3741686
0.36731456
0.36090477
0.35511526
0.35001815
0.34573012
0.34226334
0.33957974
0.33773459
0.33669067
0.3364645
0.33707082
0.33848475
0.34071053
0.34383029
0.34781229
0.35290114
0.40744952
0.40792523
0.40096778
0.39227167
0.38360214
0.37540721
0.36770777
0.36041078
0.35353272
0.34714875
0.34137361
0.33627274
0.33190784
0.32830974
0.32549305
0.32349163
0.32230758
0.32197367
0.32253428
0.32402461
0.32645163
0.32988727
0.33437509
0.34002894
0.40314177
0.4025791
0.39546763
0.38676452
0.37794648
0.36957976
0.3616973
0.35425526
0.34727589
0.34084574
0.33506218
0.32998133
0.32563873
0.32206186
0.31928742
0.31735185
0.31626514
0.31605095
0.31676365
0.31846001
0.32115534
0.32490372
0.329783
0.33586659
0.40328008
0.40280606
0.39589382
0.38738411
0.37869193
0.37042879
0.36264117
0.35531613
0.34847984
0.34219662
0.33654846
0.33159206
0.32736291
0.3238915
0.32121499
0.31936812
0.3183597
0.31819995
0.31893777
0.32065202
0.32333263
0.32705659
0.33188472
0.33791471
0.40861508
0.41022132
0.4038879
0.39565931
0.38716307
0.379061
0.37142852
0.36425167
0.35758842
0.3514846
0.34599736
0.34118972
0.33710731
0.33379304
0.33125701
0.32952006
0.3285974
0.32849682
0.32925403
0.33091671
0.3334202
0.33687696
0.34129441
0.34684661
0.42705132
0.43352812
0.42670696
0.41732858
0.40787356
0.39902972
0.39094055
0.38343996
0.3765822
0.37039752
0.36493935
0.36027814
0.35642484
0.35344313
0.35126459
0.34992846
0.3494543
0.3498374
0.35109585
0.35308366
0.35575994
0.35924453
0.36342648
0.3686709
0.44719781
0.44653533
0.43492875
0.42220869
0.4105321
0.39985215
0.39033461
0.38170889
0.37396525
0.36715785
0.36129886
0.35648723
0.352631
0.3498015
0.34797139
0.34714537
0.34737684
0.3486185
0.35094748
0.35422668
0.35834184
0.36338107
0.36920038
0.37614059
0.43761883
0.42633667
0.41651773
0.40512213
0.3953849
0.38659323
0.37856697
0.37102568
0.36392394
0.35730643
0.35131449
0.34605482
0.34162663
0.338055
0.33535442
0.33356844
0.33268594
0.33271962
0.33368895
0.33564644
0.338472
0.34220907
0.34679546
0.35241871
0.42213929
0.41752605
0.40959853
0.39975983
0.39122647
0.38350549
0.37645314
0.36977742
0.36334246
0.35719594
0.35146803
0.34627381
0.34171313
0.33777441
0.33451669
0.33202956
0.33033097
0.32946224
0.32946115
0.33037379
0.33218297
0.33495552
0.33871334
0.34360683
0.40991914
0.40907646
0.40167913
0.39260999
0.38406124
0.37607801
0.36862488
0.36155505
0.35483515
0.34852862
0.34273753
0.33754341
0.3330022
0.32914303
0.32601824
0.32368921
0.32218623
0.32155158
0.32182882
0.32306756
0.32527592
0.3284949
0.332784
0.33822937
0.40728968
0.40770757
0.40070521
0.39198605
0.38331568
0.37510694
0.36737247
0.36007891
0.35325495
0.34694899
0.34125008
0.33621261
0.33188517
0.3282995
0.32547996
0.32346824
0.32228659
0.32197147
0.32255402
0.32408203
0.3265318
0.32997613
0.33446738
0.34011532
0.40863647
0.4102481
0.40386913
0.39556896
0.38698975
0.37879975
0.37108056
0.36385435
0.35719244
0.35112307
0.34569261
0.34095187
0.33692901
0.33366445
0.33116748
0.32945945
0.32855866
0.32848045
0.32926218
0.33094655
0.33346775
0.3369426
0.34137876
0.34694411
0.41544135
0.42013755
0.41467882
0.40676062
0.39826506
0.3901235
0.38254856
0.37554986
0.36918275
0.36350148
0.35849306
0.35423357
0.35069283
0.34790936
0.34588982
0.34460667
0.34410051
0.34434257
0.34540179
0.34729484
0.34983996
0.35322679
0.35735262
0.36254364
0.4380885
0.44991124
0.44396021
0.43461772
0.42487935
0.41579111
0.40772522
0.40053877
0.39412775
0.38861015
0.38389534
0.38014074
0.37720341
0.37512893
0.37392578
0.3735294
0.37403274
0.37530018
0.37735679
0.37998279
0.3830727
0.38674292
0.39081596
0.39587848
0.46437573
0.46359804
0.45187844
0.43839371
0.42644232
0.41550814
0.40588808
0.39738254
0.38979664
0.38329634
0.37771268
0.37327749
0.3697857
0.36729425
0.36587927
0.36543076
0.36609823
0.36769947
0.37034644
0.37384768
0.3780679
0.38308773
0.3887471
0.39555114
0.45378809
0.42708614
0.41732378
0.40635263
0.39852116
0.3916496
0.3852601
0.37888729
0.37244167
0.36601283
0.35982013
0.35403584
0.3487207
0.3440362
0.34010119
0.3369744
0.33469208
0.33326844
0.33275776
0.33327709
0.33477433
0.33724078
0.34067643
0.34518191
0.43454944
0.41878298
0.41054349
0.40034852
0.39265754
0.38596002
0.37992712
0.37410494
0.36826542
0.36240923
0.35670112
0.35131624
0.34628435
0.34164377
0.33757838
0.33424009
0.33168777
0.32998634
0.32922205
0.3294556
0.33068514
0.33294727
0.33628375
0.34079812
0.42187216
0.4172102
0.40925228
0.39938525
0.39085787
0.38307851
0.37593556
0.36921499
0.36281121
0.35674954
0.35113006
0.34605028
0.34158112
0.33769656
0.33446675
0.33200325
0.33032887
0.32949215
0.32953675
0.33050091
0.33235842
0.33517383
0.33897033
0.34390295
0.42174111
0.4234118
0.41585098
0.40619299
0.39703179
0.38854876
0.38068085
0.37334931
0.36657704
0.36034936
0.35477524
0.34986607
0.34569826
0.34228872
0.33960966
0.3377364
0.33667617
0.33647437
0.33712263
0.33859118
0.34086845
0.34404841
0.34809854
0.3532409
0.42724708
0.43382441
0.42693205
0.41743081
0.40782047
0.39880476
0.39055886
0.38297294
0.37610799
0.36996548
0.36458726
0.3600188
0.35623886
0.35330183
0.35115267
0.34983842
0.34937994
0.34977608
0.35104282
0.35303126
0.35571834
0.35923275
0.363448
0.36871836
0.4382736
0.45021258
0.4442366
0.4348313
0.42499106
0.41579149
0.40761653
0.40036015
0.39392308
0.38840373
0.38370517
0.37997412
0.37705941
0.37499964
0.3738106
0.37342679
0.37394151
0.37522049
0.37728922
0.37992432
0.383041
0.38673926
0.39083924
0.39591507
0.46411234
0.4826372
0.47587965
0.4648261
0.45387963
0.44409067
0.43577942
0.42881845
0.42278613
0.4178558
0.4137298
0.41071574
0.40864136
0.40754422
0.40753649
0.40843928
0.41044942
0.41328545
0.41675811
0.42039516
0.42435529
0.4284078
0.43257973
0.4376646
0.49543667
0.4890485
0.47699977
0.4620809
0.44981705
0.43874127
0.42906903
0.4205947
0.41299356
0.40652273
0.40078825
0.3961938
0.3925719
0.3900005
0.38860985
0.3881817
0.38895758
0.39068425
0.39336243
0.39672403
0.40079064
0.40543271
0.41071541
0.41721023
0.4704531
0.43983566
0.42674363
0.41554045
0.40823432
0.40172584
0.39540423
0.38891002
0.38229334
0.37573486
0.36945312
0.36358854
0.35820015
0.35336083
0.34916028
0.34564091
0.34284957
0.34077317
0.33939063
0.33878246
0.3390638
0.34025319
0.34244731
0.34587151
0.45381829
0.4269719
0.41714659
0.40611604
0.39827117
0.39141863
0.38505758
0.3787221
0.37233217
0.36597435
0.35986773
0.35415318
0.34887667
0.34420735
0.34025761
0.33709598
0.33478478
0.3333447
0.33283387
0.33335981
0.33487345
0.33736582
0.34083208
0.34538099
0.43745523
0.42597417
0.41608465
0.40460172
0.39484289
0.38601648
0.37794764
0.37040961
0.36339414
0.35693156
0.35112063
0.34602988
0.34172361
0.33821905
0.3355289
0.33372113
0.33281229
0.33283486
0.33380667
0.33578168
0.33863465
0.3424122
0.34705474
0.35274454
0.43790943
0.43444178
0.42355865
0.41151904
0.40048541
0.39045594
0.38133863
0.37300047
0.3654768
0.35877478
0.35296539
0.34803302
0.3440198
0.34096385
0.33882259
0.33763438
0.33740474
0.33817249
0.3399597
0.3427307
0.34639839
0.35101348
0.35647176
0.36301836
0.44730564
0.44670286
0.4350629
0.42229658
0.41053645
0.39975902
0.39014415
0.38145198
0.37369344
0.3669215
0.36112125
0.35636494
0.35256082
0.34977285
0.34796774
0.34714855
0.34737282
0.34859999
0.35090934
0.35417213
0.35828826
0.36334339
0.36918013
0.37613112
0.46443882
0.46369514
0.45196666
0.43848557
0.42649995
0.41552302
0.40584943
0.39729433
0.38967809
0.383176
0.37760137
0.37317651
0.36970799
0.36724515
0.36585587
0.36541777
0.36608445
0.36767918
0.37031623
0.37381159
0.3780426
0.3830738
0.38874577
0.39555245
0.49540512
0.48897083
0.47691487
0.46202317
0.44977837
0.43872238
0.42906954
0.42059421
0.41298106
0.4065044
0.40076517
0.39616915
0.39255649
0.39000304
0.38862894
0.38820789
0.38898413
0.39070778
0.39337728
0.39673033
0.40078477
0.40542032
0.41069691
0.41718973
0.53702136
0.48789439
0.47469374
0.45799257
0.44602009
0.43465462
0.42448814
0.41515113
0.40660717
0.39924408
0.39258027
0.38705402
0.38241933
0.3787352
0.37599894
0.37394818
0.37269894
0.37200452
0.37232455
0.37389553
0.37603287
0.37964075
0.38402092
0.3899423
0.43301039
0.42806233
0.42377988
0.41996976
0.41597425
0.412243
0.4084435
0.40498715
0.40217589
0.40015068
0.39883676
0.39829832
0.39854829
0.39954044
0.40140029
0.4040416
0.40761184
0.4121517
0.41781706
0.42499254
0.43424056
0.44742498
0.46044176
0.51231821
0.39847001
0.39343457
0.38925445
0.38565522
0.38242673
0.37961189
0.37718721
0.3753287
0.37408227
0.37356031
0.37366558
0.37450659
0.37605654
0.37830939
0.38135967
0.38506775
0.38965231
0.39503006
0.40134129
0.40880088
0.41767779
0.42921721
0.43993892
0.47229833
0.37749914
0.37272353
0.36883431
0.36556993
0.36286406
0.36065662
0.35898321
0.35794545
0.35750256
0.35776231
0.3586269
0.3601578
0.36233446
0.36512958
0.36864101
0.37275161
0.37759135
0.38310558
0.38936201
0.39649596
0.40467757
0.41455531
0.42442572
0.44370628
0.36591809
0.36150666
0.35801038
0.35517841
0.35297263
0.35133406
0.35027262
0.34988356
0.35010722
0.35100021
0.3524974
0.35458593
0.35729638
0.36054282
0.36439844
0.36878973
0.3737223
0.37919713
0.3851991
0.39187129
0.39929169
0.40763515
0.41650349
0.42727653
0.35998594
0.35599125
0.35302884
0.35082376
0.34930009
0.34842145
0.34814753
0.34855425
0.349606
0.35127126
0.35351293
0.35626717
0.35956432
0.36332185
0.36751908
0.37210816
0.37699622
0.3822081
0.38770313
0.39362912
0.40008686
0.40690891
0.41408564
0.41951619
0.35726835
0.35389955
0.35183344
0.35071591
0.35038784
0.350805
0.35186595
0.35359087
0.3559512
0.35884646
0.36222539
0.36602914
0.37019706
0.37467389
0.37934743
0.38410377
0.38879868
0.39335839
0.39779349
0.40227664
0.40694833
0.41207696
0.41635123
0.42096004
0.35449179
0.35296348
0.35293753
0.35406286
0.35610005
0.358896
0.36232282
0.36634729
0.37089866
0.37586489
0.38115041
0.38667271
0.39235142
0.39810284
0.403746
0.40899817
0.41358761
0.41725522
0.41992293
0.42191551
0.42341362
0.42643418
0.42710341
0.43486361
0.3528082
0.3552762
0.35961283
0.36509241
0.37133462
0.37814548
0.38545102
0.39312703
0.40110038
0.40927744
0.41755978
0.4258119
0.43380196
0.44132894
0.44816731
0.45390437
0.45791495
0.45962261
0.45890613
0.45647549
0.45286138
0.45281944
0.44861437
0.46164689
0.37157136
0.36687763
0.36338467
0.36091074
0.35948128
0.35876453
0.35888748
0.3597426
0.36121365
0.36325971
0.36584883
0.36898242
0.37263691
0.37681707
0.38151153
0.38671245
0.39242561
0.39860709
0.4052714
0.41243867
0.42026876
0.42947554
0.44081561
0.46869027
0.36549373
0.36099345
0.35761112
0.35522809
0.35376917
0.35303775
0.35305459
0.35375283
0.35508068
0.35698775
0.35944243
0.3624282
0.3659194
0.36991868
0.37440221
0.37937171
0.38482019
0.3907198
0.39707617
0.40390378
0.41134609
0.41993351
0.43038999
0.45345415
0.36150773
0.3569559
0.35348528
0.35101356
0.34941579
0.34856913
0.3484465
0.34900503
0.35021891
0.35204174
0.35444016
0.35739117
0.36086053
0.36484274
0.36930426
0.37424291
0.37964855
0.38549792
0.39178793
0.39852068
0.40580323
0.41398316
0.42366081
0.44239813
0.35883171
0.3541185
0.35048445
0.34785213
0.34608328
0.34507809
0.34479832
0.34521489
0.34630977
0.3480512
0.35040538
0.35334979
0.35685011
0.36088747
0.3654299
0.37045677
0.37595303
0.38189142
0.38825549
0.39503234
0.40226488
0.41013176
0.41906841
0.43392499
0.35683094
0.35187375
0.34802793
0.34519438
0.34322925
0.34203599
0.34157618
0.34183214
0.34278839
0.34442138
0.34670936
0.3496255
0.35315188
0.3572627
0.3619249
0.36711344
0.37278899
0.37892513
0.38547676
0.3924156
0.39971763
0.40740626
0.41580499
0.42721882
0.35522086
0.34993178
0.34581632
0.34273856
0.3405413
0.33912457
0.33845685
0.33851764
0.33930188
0.34079466
0.34298068
0.34584178
0.34936948
0.35354197
0.35833842
0.36372605
0.36965348
0.3760797
0.38293531
0.39016812
0.3976963
0.40542613
0.4136294
0.4219783
0.35399244
0.34824778
0.34375967
0.34035746
0.33785862
0.33615616
0.33520372
0.33499215
0.33553466
0.3368261
0.33886282
0.34163132
0.34512728
0.34934597
0.35426987
0.35987233
0.36610122
0.37290192
0.38019174
0.38788151
0.39586216
0.40395031
0.41244819
0.4181179
0.35345055
0.34698314
0.341814
0.33781865
0.33484711
0.33280239
0.33158066
0.33115189
0.33151348
0.33265612
0.33458029
0.33727745
0.34075084
0.34500824
0.35005395
0.35588837
0.36248224
0.36977416
0.37764823
0.38596947
0.39458737
0.40326032
0.41240564
0.41578063
0.35279883
0.35527988
0.35962455
0.36509602
0.37132454
0.37812011
0.38540264
0.39305197
0.40099895
0.40915006
0.41740874
0.42564998
0.43363393
0.44116117
0.44800731
0.45375208
0.4577809
0.45951094
0.45881043
0.4563935
0.4527987
0.45277093
0.44857146
0.46162522
0.35444967
0.35293593
0.35291228
0.354029
0.35604816
0.3588158
0.36220364
0.36618883
0.3707054
0.37565941
0.38095422
0.38649934
0.39220078
0.39797554
0.40364403
0.40894134
0.41357862
0.41726028
0.41990651
0.42187817
0.42335815
0.42637077
0.42703196
0.4348094
0.35724199
0.35389403
0.35182743
0.35069279
0.35033385
0.35071026
0.35172749
0.35341842
0.35574917
0.35862827
0.36201398
0.36584232
0.37004452
0.37456106
0.37927259
0.38404852
0.38875917
0.39331749
0.39771097
0.40212539
0.40671685
0.41181411
0.4161035
0.42081581
0.35995393
0.35598364
0.35302217
0.35079891
0.34923979
0.34831464
0.347996
0.34836851
0.34939721
0.35105798
0.35331761
0.35610854
0.35945077
0.36325118
0.36747155
0.37207361
0.37696506
0.38215278
0.38758815
0.39341522
0.39978609
0.40657659
0.41376532
0.41933084
0.36587157
0.36148163
0.35798337
0.35512939
0.35288235
0.35118866
0.35007925
0.34965863
0.34987391
0.3507828
0.35231743
0.35445671
0.35722035
0.36051042
0.36438954
0.36879113
0.37371442
0.37914689
0.38507834
0.3916597
0.39900263
0.40730916
0.41616577
0.42706398
0.37746754
0.37271017
0.36881324
0.36551903
0.36276316
0.36049247
0.35876542
0.3576987
0.35726081
0.35755359
0.35847216
0.36006221
0.36229001
0.36512124
0.36865446
0.372773
0.37759303
0.38305852
0.38924272
0.39630306
0.40441313
0.41423858
0.42407028
0.4434421
0.39847918
0.39345495
0.38926411
0.3856301
0.38234667
0.37946688
0.37699063
0.3751138
0.37388785
0.37341436
0.3735836
0.37448387
0.37607301
0.37834648
0.38140674
0.38511284
0.38966666
0.39499373
0.40123235
0.40862398
0.41742544
0.42888576
0.43954512
0.47194115
0.43300103
0.42806447
0.42377584
0.41993902
0.41590244
0.41212342
0.4082867
0.40482972
0.40205164
0.40008006
0.3988321
0.39835167
0.39863385
0.39963619
0.4014981
0.40413185
0.40767692
0.41217579
0.41778745
0.42491379
0.43409914
0.44721515
0.46015998
0.5120484
0.35344442
0.34698329
0.34181511
0.33781873
0.33484507
0.33279709
0.33157106
0.33113688
0.33149256
0.33262947
0.3345491
0.33724367
0.3407158
0.34497231
0.35001815
0.35585382
0.36244955
0.36974546
0.37762352
0.38594671
0.39456762
0.40324715
0.41239986
0.41577925
0.35398261
0.3482488
0.34376228
0.34035685
0.33785174
0.33613954
0.33517407
0.33494726
0.33547539
0.33675626
0.33878909
0.34155929
0.34505813
0.34927904
0.35420689
0.35981663
0.36605587
0.37286787
0.38016566
0.38785789
0.3958419
0.40393941
0.41244894
0.41812473
0.35520624
0.34993061
0.34581705
0.34273451
0.34052708
0.33909472
0.33840674
0.33844481
0.33920884
0.34068866
0.34287315
0.34574177
0.34927869
0.35345958
0.35826728
0.36367081
0.36961642
0.3760589
0.38292341
0.39015646
0.39768442
0.40541945
0.41363133
0.42198603
0.35680973
0.35186675
0.34802302
0.34518363
0.34320527
0.34199202
0.34150698
0.34173524
0.34266709
0.34428572
0.34657484
0.34950486
0.35304801
0.35717491
0.36185434
0.36706283
0.37275879
0.37890974
0.38546647
0.39240292
0.39970149
0.40739091
0.41579508
0.42721864
0.35880323
0.35410362
0.35047172
0.34783281
0.34604844
0.34502015
0.34471206
0.34509888
0.34616867
0.3478966
0.35025576
0.35322097
0.35674638
0.36080712
0.36537057
0.37041657
0.37592727
0.38187201
0.38823467
0.39500549
0.40223191
0.41009573
0.41903466
0.43390655
0.36147696
0.35693699
0.3534684
0.35098956
0.34937465
0.34850305
0.34835146
0.3488811
0.35007204
0.35188422
0.35429136
0.35726762
0.36076723
0.36477705
0.3692601
0.37421313
0.37962265
0.38546547
0.39174433
0.39846508
0.40573781
0.41390925
0.42358543
0.44234593
0.36546575
0.36097444
0.35759373
0.35520419
0.35372727
0.35297188
0.35296351
0.35363807
0.35494795
0.35684812
0.35931258
0.36232229
0.36584287
0.36987031
0.37437522
0.37935314
0.38479349
0.39067192
0.39700329
0.40380927
0.41123445
0.41980527
0.43025437
0.45335194
0.37154433
0.36685548
0.36336371
0.3608841
0.35943823
0.35870216
0.35880864
0.35964903
0.36110817
0.36314926
0.36574498
0.36889609
0.37257527
0.3767833
0.38149982
0.38670292
0.39239421
0.39853882
0.40516292
0.41229801
0.42010447
0.42928966
0.44061685
0.46853222
0.43299251
0.42805204
0.42376427
0.4199307
0.41589566
0.41211959
0.40828875
0.40483748
0.40206269
0.4000906
0.39883771
0.39835126
0.39863015
0.39963134
0.40149337
0.40412683
0.40766961
0.41216852
0.41778004
0.4249082
0.43409939
0.44722214
0.46016946
0.51207033
0.398507
0.39346811
0.38926359
0.38561879
0.3823286
0.37944812
0.37697647
0.37510548
0.37388201
0.37340299
0.37355663
0.37443473
0.37600313
0.37826252
0.38131451
0.38501433
0.38956219
0.39488577
0.40113353
0.40854271
0.41736349
0.42883797
0.4395081
0.47192499
0.37748704
0.37270904
0.36879437
0.36548489
0.36272253
0.3604554
0.3587384
0.35768176
0.35724895
0.35753446
0.35842905
0.35998168
0.36216994
0.36497042
0.36848422
0.37258864
0.37739859
0.38286362
0.38906814
0.39616403
0.40430953
0.41415768
0.42400888
0.44338628
0.36589707
0.36148331
0.35796756
0.35510097
0.35285172
0.3511666
0.35007013
0.34966036
0.34987968
0.35077778
0.35227866
0.35436303
0.35706502
0.36029959
0.36413793
0.36850958
0.37341311
0.3788465
0.38480977
0.3914474
0.39884882
0.40719795
0.41608634
0.42699071
0.36001538
0.35601896
0.35303955
0.35080443
0.34924235
0.3483231
0.34801308
0.34839169
0.34941964
0.35106288
0.35327702
0.35599728
0.35925767
0.36297761
0.36713214
0.37168486
0.37654716
0.38173547
0.38721441
0.39311953
0.39957319
0.4064309
0.41367101
0.41925767
0.35733687
0.35396463
0.35188044
0.35073139
0.350364
0.35073922
0.35175941
0.3534505
0.35577263
0.35862085
0.36194705
0.36569231
0.36979867
0.37422043
0.37884846
0.38356492
0.38824126
0.39279703
0.39723983
0.40173833
0.40642652
0.41161048
0.41597229
0.42072314
0.35454882
0.35301142
0.35296837
0.35406859
0.35607414
0.3588345
0.3622221
0.36620617
0.37071177
0.37562536
0.38084718
0.38629982
0.39191379
0.39761572
0.40322114
0.40845934
0.41305321
0.41673051
0.41942118
0.42145799
0.42301465
0.42611341
0.426856
0.43469189
0.35283056
0.3552978
0.35962566
0.3650896
0.3713129
0.37810182
0.38537487
0.39301538
0.40094513
0.40905804
0.41725831
0.42543933
0.43338416
0.44090082
0.44774741
0.45348488
0.45749229
0.45919749
0.45848807
0.45608306
0.45251926
0.45254082
0.44840032
0.46151289
0.37153458
0.36684373
0.36335224
0.36087326
0.35942839
0.35869487
0.35880573
0.35965057
0.36111177
0.36315142
0.36574284
0.36888919
0.37256612
0.37677519
0.38149421
0.38669864
0.39238885
0.39853182
0.40515521
0.41229103
0.42009894
0.42928526
0.44061194
0.4685257
0.36545788
0.36096126
0.35757944
0.35518959
0.35371443
0.35296439
0.35296487
0.35364812
0.35496218
0.35685911
0.35931309
0.3623103
0.36582362
0.36985119
0.37435881
0.37933514
0.38476866
0.39063909
0.39696664
0.40377455
0.41120449
0.41977915
0.43022866
0.45332621
0.36147048
0.35692218
0.353452
0.35097369
0.34936202
0.34849837
0.34835855
0.34889967
0.35009631
0.35190314
0.35429338
0.35724924
0.36073566
0.36474168
0.36922374
0.37416908
0.37956308
0.38539045
0.3916628
0.39838819
0.4056717
0.41385354
0.42353638
0.44230396
0.35880043
0.35408917
0.35045506
0.34781735
0.34603755
0.34501844
0.34472305
0.34512195
0.3461972
0.34791726
0.35025417
0.35319263
0.35669902
0.36075037
0.36530602
0.37033613
0.37582249
0.38174507
0.38809971
0.39487931
0.40212438
0.41000761
0.41896285
0.43385014
0.3568129
0.35185558
0.34800876
0.34517051
0.34319666
0.34199205
0.34151883
0.3417584
0.34269458
0.34430318
0.34656696
0.34946698
0.35298821
0.35710123
0.36176491
0.36694802
0.37261132
0.37873572
0.38528455
0.39223382
0.39955746
0.4072744
0.41570405
0.42715174
0.35521647
0.34992561
0.34580797
0.34272558
0.34052123
0.33909543
0.33841715
0.33846469
0.33923109
0.34069928
0.34285776
0.34569706
0.34921291
0.35337847
0.35816433
0.36353506
0.36944383
0.37585877
0.38271494
0.38996151
0.39751629
0.40528219
0.41352563
0.42191198
0.35399779
0.34825028
0.34375904
0.34035257
0.33784867
0.33614037
0.33518177
0.33496198
0.33549043
0.33675878
0.33876752
0.3415127
0.34499455
0.34920143
0.35410661
0.35968318
0.36588729
0.37267395
0.37996326
0.38766562
0.39567216
0.40379785
0.41233931
0.41805002
0.35346086
0.34699053
0.34181778
0.33781885
0.3348448
0.33279785
0.33157519
0.33114432
0.33149732
0.3326214
0.33452105
0.33719667