/*--------------------------------*- C++ -*----------------------------------*\
| =========                 |                                                 |
| \\      /  F ield         | OpenFOAM: The Open Source CFD Toolbox           |
|  \\    /   O peration     | Version:  4.1                                   |
|   \\  /    A nd           | Web:      www.OpenFOAM.org                      |
|    \\/     M anipulation  |                                                 |
\*---------------------------------------------------------------------------*/
FoamFile
{
    version     2.0;
    format      ascii;
    class       pointVectorField;
    location    "0.0056";
    object      pointDisplacement_Next;
}
// * * * * * * * * * * * * * * * * * * * * * * * * * * * * * * * * * * * * * //

dimensions      [0 1 0 0 0 0 0];

internalField   uniform (0 0 0);

boundaryField
{
    inlet
    {
        type            fixedValue;
        value           nonuniform 0();
    }
    outlet
    {
        type            fixedValue;
        value           nonuniform 0();
    }
    mantle
    {
        type            fixedValue;
        value           nonuniform List<vector> 
416
(
(-5.7299e-05 -9.0053e-05 1.4186e-10)
(-6.0914e-05 -8.2414e-05 4.3108e-10)
(-6.0928e-05 -8.0731e-05 1.6006e-05)
(-5.7327e-05 -8.8213e-05 1.7496e-05)
(-6.0956e-05 -7.5915e-05 3.1454e-05)
(-5.7372e-05 -8.292e-05 3.4355e-05)
(-6.0965e-05 -6.8343e-05 4.5739e-05)
(-5.7368e-05 -7.4626e-05 4.9933e-05)
(-6.0967e-05 -5.8208e-05 5.8208e-05)
(-5.7356e-05 -6.3535e-05 6.3535e-05)
(-6.0965e-05 -4.5738e-05 6.8343e-05)
(-5.7368e-05 -4.9933e-05 7.4626e-05)
(-6.0957e-05 -3.1453e-05 7.5915e-05)
(-5.7372e-05 -3.4355e-05 8.2919e-05)
(-6.0929e-05 -1.6006e-05 8.0731e-05)
(-5.7328e-05 -1.7496e-05 8.8212e-05)
(-6.0915e-05 -2.8693e-10 8.2414e-05)
(-5.73e-05 -2.8018e-10 9.0052e-05)
(-6.3877e-05 -7.4651e-05 4.2432e-10)
(-6.3884e-05 -7.3113e-05 1.4482e-05)
(-6.3903e-05 -6.8764e-05 2.849e-05)
(-6.392e-05 -6.1929e-05 4.1454e-05)
(-6.3931e-05 -5.2775e-05 5.2776e-05)
(-6.3921e-05 -4.1453e-05 6.193e-05)
(-6.3904e-05 -2.8489e-05 6.8764e-05)
(-6.3885e-05 -1.4482e-05 7.3113e-05)
(-6.3878e-05 1.3474e-11 7.4651e-05)
(-6.6154e-05 -6.6592e-05 5.98e-10)
(-6.6169e-05 -6.5235e-05 1.2916e-05)
(-6.6195e-05 -6.1366e-05 2.5412e-05)
(-6.6198e-05 -5.53e-05 3.7013e-05)
(-6.6196e-05 -4.7131e-05 4.7132e-05)
(-6.6198e-05 -3.7012e-05 5.53e-05)
(-6.6195e-05 -2.5411e-05 6.1367e-05)
(-6.617e-05 -1.2915e-05 6.5236e-05)
(-6.6155e-05 1.4908e-10 6.6593e-05)
(-6.7804e-05 -5.8448e-05 7.4945e-10)
(-6.7834e-05 -5.7247e-05 1.1324e-05)
(-6.787e-05 -5.3855e-05 2.2299e-05)
(-6.7853e-05 -4.8566e-05 3.2516e-05)
(-6.783e-05 -4.1422e-05 4.1423e-05)
(-6.7853e-05 -3.2515e-05 4.8567e-05)
(-6.7871e-05 -2.2297e-05 5.3856e-05)
(-6.7834e-05 -1.1323e-05 5.7248e-05)
(-6.7805e-05 2.3145e-10 5.8448e-05)
(-6.8902e-05 -5.0475e-05 9.1142e-10)
(-6.8915e-05 -4.9474e-05 9.8032e-06)
(-6.8936e-05 -4.6593e-05 1.93e-05)
(-6.893e-05 -4.2016e-05 2.8123e-05)
(-6.8924e-05 -3.5817e-05 3.5818e-05)
(-6.8931e-05 -2.8121e-05 4.2018e-05)
(-6.8936e-05 -1.9298e-05 4.6594e-05)
(-6.8916e-05 -9.8018e-06 4.9475e-05)
(-6.8903e-05 2.7342e-10 5.0476e-05)
(-6.943e-05 -4.3028e-05 1.0394e-09)
(-6.9434e-05 -4.2201e-05 8.3725e-06)
(-6.9439e-05 -3.977e-05 1.6478e-05)
(-6.9447e-05 -3.5885e-05 2.401e-05)
(-6.9449e-05 -3.0576e-05 3.0577e-05)
(-6.9447e-05 -2.4009e-05 3.5886e-05)
(-6.944e-05 -1.6476e-05 3.9771e-05)
(-6.9434e-05 -8.371e-06 4.2202e-05)
(-6.9431e-05 2.9432e-10 4.3028e-05)
(-6.9361e-05 -3.6351e-05 1.2781e-10)
(-6.9366e-05 -3.5639e-05 7.0587e-06)
(-6.9376e-05 -3.3589e-05 1.3908e-05)
(-6.9373e-05 -3.0331e-05 2.03e-05)
(-6.9371e-05 -2.5871e-05 2.5874e-05)
(-6.9373e-05 -2.0298e-05 3.0332e-05)
(-6.9377e-05 -1.3907e-05 3.359e-05)
(-6.9367e-05 -7.0571e-06 3.564e-05)
(-6.9362e-05 1.2984e-09 3.6352e-05)
(-6.8701e-05 -3.0439e-05 1.2417e-09)
(-6.8715e-05 -2.981e-05 5.8789e-06)
(-6.8732e-05 -2.8071e-05 1.1613e-05)
(-6.8715e-05 -2.5386e-05 1.7008e-05)
(-6.87e-05 -2.1702e-05 2.1704e-05)
(-6.8715e-05 -1.7007e-05 2.5388e-05)
(-6.8732e-05 -1.1611e-05 2.8072e-05)
(-6.8716e-05 -5.8772e-06 2.9811e-05)
(-6.8702e-05 2.1273e-10 3.0439e-05)
(-6.748e-05 -2.521e-05 1.3218e-09)
(-6.7483e-05 -2.4712e-05 4.8841e-06)
(-6.7487e-05 -2.33e-05 9.6462e-06)
(-6.7477e-05 -2.1067e-05 1.411e-05)
(-6.7471e-05 -1.7995e-05 1.7996e-05)
(-6.7477e-05 -1.4109e-05 2.1068e-05)
(-6.7487e-05 -9.6445e-06 2.3301e-05)
(-6.7483e-05 -4.8825e-06 2.4712e-05)
(-6.748e-05 8.2071e-11 2.521e-05)
(-6.5728e-05 -2.0664e-05 1.2602e-09)
(-6.5727e-05 -2.028e-05 4.0235e-06)
(-6.5722e-05 -1.9142e-05 7.9326e-06)
(-6.5718e-05 -1.7308e-05 1.1585e-05)
(-6.5715e-05 -1.4764e-05 1.4766e-05)
(-6.5718e-05 -1.1583e-05 1.7309e-05)
(-6.5722e-05 -7.931e-06 1.9143e-05)
(-6.5727e-05 -4.022e-06 2.028e-05)
(-6.5728e-05 3.106e-11 2.0664e-05)
(-6.3489e-05 -1.6773e-05 1.2741e-09)
(-6.3487e-05 -1.6461e-05 3.2671e-06)
(-6.3485e-05 -1.5546e-05 6.4392e-06)
(-6.3478e-05 -1.4059e-05 9.4049e-06)
(-6.3477e-05 -1.1993e-05 1.1995e-05)
(-6.3478e-05 -9.4035e-06 1.406e-05)
(-6.3485e-05 -6.4378e-06 1.5547e-05)
(-6.3487e-05 -3.2657e-06 1.6462e-05)
(-6.3489e-05 -1.4999e-10 1.6773e-05)
(-6.0802e-05 -1.3292e-05 1.0981e-09)
(-6.0807e-05 -1.3028e-05 2.5722e-06)
(-6.0813e-05 -1.2296e-05 5.0854e-06)
(-6.0799e-05 -1.113e-05 7.4525e-06)
(-6.0792e-05 -9.5163e-06 9.5174e-06)
(-6.0799e-05 -7.4514e-06 1.1131e-05)
(-6.0813e-05 -5.0841e-06 1.2296e-05)
(-6.0807e-05 -2.5711e-06 1.3029e-05)
(-6.0802e-05 -1.8237e-10 1.3292e-05)
(-6.0929e-05 1.6006e-05 8.0731e-05)
(-5.7328e-05 1.7495e-05 8.8212e-05)
(-6.0957e-05 3.1453e-05 7.5915e-05)
(-5.7373e-05 3.4355e-05 8.292e-05)
(-6.0966e-05 4.5739e-05 6.8343e-05)
(-5.7369e-05 4.9933e-05 7.4626e-05)
(-6.0967e-05 5.8208e-05 5.8209e-05)
(-5.7356e-05 6.3535e-05 6.3535e-05)
(-6.0965e-05 6.8343e-05 4.5739e-05)
(-5.7368e-05 7.4626e-05 4.9933e-05)
(-6.0957e-05 7.5915e-05 3.1454e-05)
(-5.7372e-05 8.292e-05 3.4355e-05)
(-6.0928e-05 8.0731e-05 1.6006e-05)
(-5.7328e-05 8.8213e-05 1.7496e-05)
(-6.0915e-05 8.2415e-05 2.9258e-10)
(-5.73e-05 9.0053e-05 -6.9786e-11)
(-6.3885e-05 1.4482e-05 7.3113e-05)
(-6.3904e-05 2.849e-05 6.8765e-05)
(-6.3921e-05 4.1453e-05 6.193e-05)
(-6.3932e-05 5.2775e-05 5.2776e-05)
(-6.3921e-05 6.193e-05 4.1454e-05)
(-6.3904e-05 6.8765e-05 2.849e-05)
(-6.3885e-05 7.3114e-05 1.4482e-05)
(-6.3878e-05 7.4651e-05 3.3641e-10)
(-6.617e-05 1.2915e-05 6.5236e-05)
(-6.6196e-05 2.5411e-05 6.1367e-05)
(-6.6199e-05 3.7013e-05 5.5301e-05)
(-6.6196e-05 4.7132e-05 4.7132e-05)
(-6.6199e-05 5.53e-05 3.7013e-05)
(-6.6195e-05 6.1367e-05 2.5412e-05)
(-6.617e-05 6.5236e-05 1.2916e-05)
(-6.6155e-05 6.6593e-05 5.081e-10)
(-6.7835e-05 1.1323e-05 5.7248e-05)
(-6.7871e-05 2.2298e-05 5.3857e-05)
(-6.7853e-05 3.2516e-05 4.8567e-05)
(-6.7831e-05 4.1423e-05 4.1423e-05)
(-6.7853e-05 4.8567e-05 3.2516e-05)
(-6.7871e-05 5.3857e-05 2.2299e-05)
(-6.7834e-05 5.7248e-05 1.1324e-05)
(-6.7805e-05 5.8449e-05 6.8427e-10)
(-6.8916e-05 9.8025e-06 4.9475e-05)
(-6.8936e-05 1.9299e-05 4.6594e-05)
(-6.8931e-05 2.8122e-05 4.2018e-05)
(-6.8924e-05 3.5818e-05 3.5819e-05)
(-6.8931e-05 4.2018e-05 2.8123e-05)
(-6.8936e-05 4.6594e-05 1.93e-05)
(-6.8916e-05 4.9475e-05 9.8033e-06)
(-6.8903e-05 5.0476e-05 8.314e-10)
(-6.9434e-05 8.3716e-06 4.2202e-05)
(-6.944e-05 1.6477e-05 3.9771e-05)
(-6.9448e-05 2.401e-05 3.5887e-05)
(-6.9449e-05 3.0577e-05 3.0578e-05)
(-6.9448e-05 3.5886e-05 2.4011e-05)
(-6.944e-05 3.9771e-05 1.6478e-05)
(-6.9434e-05 4.2203e-05 8.3727e-06)
(-6.943e-05 4.3029e-05 9.8649e-10)
(-6.9367e-05 7.0577e-06 3.5641e-05)
(-6.9377e-05 1.3908e-05 3.359e-05)
(-6.9373e-05 2.0299e-05 3.0333e-05)
(-6.9371e-05 2.5874e-05 2.5874e-05)
(-6.9373e-05 3.0332e-05 2.0301e-05)
(-6.9377e-05 3.359e-05 1.3909e-05)
(-6.9367e-05 3.5641e-05 7.0589e-06)
(-6.9361e-05 3.6353e-05 2.1306e-09)
(-6.8716e-05 5.8777e-06 2.9811e-05)
(-6.8732e-05 1.1612e-05 2.8073e-05)
(-6.8715e-05 1.7007e-05 2.5388e-05)
(-6.87e-05 2.1703e-05 2.1704e-05)
(-6.8715e-05 2.5387e-05 1.7009e-05)
(-6.8732e-05 2.8072e-05 1.1613e-05)
(-6.8715e-05 2.9811e-05 5.879e-06)
(-6.8702e-05 3.044e-05 1.1774e-09)
(-6.7483e-05 4.8828e-06 2.4713e-05)
(-6.7487e-05 9.6449e-06 2.3301e-05)
(-6.7477e-05 1.4109e-05 2.1069e-05)
(-6.7471e-05 1.7995e-05 1.7997e-05)
(-6.7477e-05 2.1068e-05 1.4111e-05)
(-6.7487e-05 2.3301e-05 9.6465e-06)
(-6.7483e-05 2.4713e-05 4.8842e-06)
(-6.748e-05 2.5211e-05 1.2681e-09)
(-6.5727e-05 4.022e-06 2.0281e-05)
(-6.5722e-05 7.9311e-06 1.9144e-05)
(-6.5718e-05 1.1584e-05 1.731e-05)
(-6.5715e-05 1.4765e-05 1.4766e-05)
(-6.5718e-05 1.7309e-05 1.1585e-05)
(-6.5722e-05 1.9143e-05 7.9328e-06)
(-6.5727e-05 2.0281e-05 4.0235e-06)
(-6.5728e-05 2.0664e-05 1.2139e-09)
(-6.3487e-05 3.2656e-06 1.6462e-05)
(-6.3485e-05 6.4377e-06 1.5547e-05)
(-6.3478e-05 9.4034e-06 1.406e-05)
(-6.3477e-05 1.1993e-05 1.1995e-05)
(-6.3478e-05 1.4059e-05 9.4051e-06)
(-6.3485e-05 1.5546e-05 6.4393e-06)
(-6.3487e-05 1.6462e-05 3.2671e-06)
(-6.3489e-05 1.6773e-05 1.0813e-09)
(-6.0807e-05 2.5707e-06 1.3029e-05)
(-6.0813e-05 5.0838e-06 1.2296e-05)
(-6.0799e-05 7.4511e-06 1.1131e-05)
(-6.0791e-05 9.5161e-06 9.5175e-06)
(-6.0799e-05 1.113e-05 7.4527e-06)
(-6.0813e-05 1.2296e-05 5.0854e-06)
(-6.0807e-05 1.3028e-05 2.5722e-06)
(-6.0802e-05 1.3292e-05 1.0482e-09)
(-6.0928e-05 8.0731e-05 -1.6006e-05)
(-5.7327e-05 8.8212e-05 -1.7496e-05)
(-6.0956e-05 7.5915e-05 -3.1453e-05)
(-5.7372e-05 8.292e-05 -3.4355e-05)
(-6.0965e-05 6.8342e-05 -4.5738e-05)
(-5.7368e-05 7.4626e-05 -4.9933e-05)
(-6.0967e-05 5.8208e-05 -5.8208e-05)
(-5.7356e-05 6.3535e-05 -6.3535e-05)
(-6.0965e-05 4.5738e-05 -6.8342e-05)
(-5.7368e-05 4.9932e-05 -7.4626e-05)
(-6.0956e-05 3.1453e-05 -7.5914e-05)
(-5.7372e-05 3.4355e-05 -8.2919e-05)
(-6.0928e-05 1.6006e-05 -8.073e-05)
(-5.7327e-05 1.7496e-05 -8.8212e-05)
(-6.0914e-05 1.7331e-10 -8.2414e-05)
(-5.7299e-05 -6.7468e-11 -9.0052e-05)
(-6.3885e-05 7.3114e-05 -1.4482e-05)
(-6.3903e-05 6.8765e-05 -2.8489e-05)
(-6.3921e-05 6.193e-05 -4.1453e-05)
(-6.3931e-05 5.2775e-05 -5.2775e-05)
(-6.3921e-05 4.1453e-05 -6.1929e-05)
(-6.3903e-05 2.849e-05 -6.8764e-05)
(-6.3884e-05 1.4482e-05 -7.3113e-05)
(-6.3877e-05 1.0965e-10 -7.465e-05)
(-6.6169e-05 6.5236e-05 -1.2914e-05)
(-6.6195e-05 6.1367e-05 -2.5411e-05)
(-6.6198e-05 5.5301e-05 -3.7012e-05)
(-6.6195e-05 4.7132e-05 -4.7131e-05)
(-6.6198e-05 3.7013e-05 -5.53e-05)
(-6.6195e-05 2.5412e-05 -6.1367e-05)
(-6.6169e-05 1.2915e-05 -6.5235e-05)
(-6.6154e-05 1.9012e-10 -6.6592e-05)
(-6.7834e-05 5.7248e-05 -1.1323e-05)
(-6.787e-05 5.3857e-05 -2.2297e-05)
(-6.7853e-05 4.8567e-05 -3.2515e-05)
(-6.783e-05 4.1423e-05 -4.1422e-05)
(-6.7853e-05 3.2516e-05 -4.8566e-05)
(-6.787e-05 2.2298e-05 -5.3856e-05)
(-6.7834e-05 1.1324e-05 -5.7247e-05)
(-6.7804e-05 2.7658e-10 -5.8448e-05)
(-6.8916e-05 4.9475e-05 -9.8016e-06)
(-6.8936e-05 4.6595e-05 -1.9299e-05)
(-6.893e-05 4.2018e-05 -2.8122e-05)
(-6.8923e-05 3.5819e-05 -3.5818e-05)
(-6.893e-05 2.8123e-05 -4.2017e-05)
(-6.8935e-05 1.93e-05 -4.6594e-05)
(-6.8915e-05 9.8027e-06 -4.9474e-05)
(-6.8902e-05 3.3829e-10 -5.0475e-05)
(-6.9434e-05 4.2203e-05 -8.3707e-06)
(-6.9439e-05 3.9772e-05 -1.6476e-05)
(-6.9447e-05 3.5887e-05 -2.401e-05)
(-6.9448e-05 3.0578e-05 -3.0577e-05)
(-6.9447e-05 2.4011e-05 -3.5886e-05)
(-6.9439e-05 1.6478e-05 -3.9771e-05)
(-6.9433e-05 8.372e-06 -4.2202e-05)
(-6.943e-05 3.3812e-10 -4.3028e-05)
(-6.9366e-05 3.5641e-05 -7.0567e-06)
(-6.9376e-05 3.3591e-05 -1.3907e-05)
(-6.9373e-05 3.0333e-05 -2.0299e-05)
(-6.9371e-05 2.5875e-05 -2.5872e-05)
(-6.9373e-05 2.03e-05 -3.0332e-05)
(-6.9376e-05 1.3908e-05 -3.359e-05)
(-6.9366e-05 7.0581e-06 -3.564e-05)
(-6.9361e-05 -7.2071e-10 -3.6352e-05)
(-6.8715e-05 2.9812e-05 -5.8767e-06)
(-6.8732e-05 2.8073e-05 -1.1611e-05)
(-6.8714e-05 2.5388e-05 -1.7007e-05)
(-6.87e-05 2.1704e-05 -2.1703e-05)
(-6.8714e-05 1.7008e-05 -2.5387e-05)
(-6.8732e-05 1.1613e-05 -2.8072e-05)
(-6.8715e-05 5.8782e-06 -2.9811e-05)
(-6.8701e-05 2.485e-10 -3.0439e-05)
(-6.7483e-05 2.4713e-05 -4.8818e-06)
(-6.7487e-05 2.3302e-05 -9.6443e-06)
(-6.7477e-05 2.1069e-05 -1.4109e-05)
(-6.747e-05 1.7997e-05 -1.7995e-05)
(-6.7476e-05 1.411e-05 -2.1068e-05)
(-6.7487e-05 9.6458e-06 -2.3301e-05)
(-6.7483e-05 4.8833e-06 -2.4713e-05)
(-6.748e-05 1.1782e-10 -2.5211e-05)
(-6.5727e-05 2.0281e-05 -4.0212e-06)
(-6.5721e-05 1.9144e-05 -7.9307e-06)
(-6.5718e-05 1.731e-05 -1.1584e-05)
(-6.5715e-05 1.4766e-05 -1.4765e-05)
(-6.5718e-05 1.1585e-05 -1.7309e-05)
(-6.5721e-05 7.9322e-06 -1.9143e-05)
(-6.5726e-05 4.0226e-06 -2.0281e-05)
(-6.5728e-05 7.0138e-11 -2.0664e-05)
(-6.3487e-05 1.6462e-05 -3.2649e-06)
(-6.3485e-05 1.5547e-05 -6.4374e-06)
(-6.3478e-05 1.406e-05 -9.4035e-06)
(-6.3476e-05 1.1995e-05 -1.1994e-05)
(-6.3478e-05 9.4047e-06 -1.4059e-05)
(-6.3485e-05 6.4387e-06 -1.5547e-05)
(-6.3487e-05 3.2662e-06 -1.6462e-05)
(-6.3489e-05 4.1091e-11 -1.6773e-05)
(-6.0807e-05 1.3029e-05 -2.5702e-06)
(-6.0813e-05 1.2297e-05 -5.0837e-06)
(-6.0799e-05 1.1131e-05 -7.4513e-06)
(-6.0792e-05 9.5173e-06 -9.5166e-06)
(-6.0799e-05 7.4523e-06 -1.1131e-05)
(-6.0813e-05 5.0848e-06 -1.2296e-05)
(-6.0807e-05 2.5713e-06 -1.3029e-05)
(-6.0802e-05 -1.3341e-10 -1.3293e-05)
(-6.0928e-05 -1.6006e-05 -8.0731e-05)
(-5.7327e-05 -1.7496e-05 -8.8212e-05)
(-6.0956e-05 -3.1454e-05 -7.5915e-05)
(-5.7372e-05 -3.4355e-05 -8.292e-05)
(-6.0965e-05 -4.5739e-05 -6.8343e-05)
(-5.7368e-05 -4.9933e-05 -7.4626e-05)
(-6.0966e-05 -5.8209e-05 -5.8208e-05)
(-5.7355e-05 -6.3536e-05 -6.3536e-05)
(-6.0964e-05 -6.8343e-05 -4.5739e-05)
(-5.7368e-05 -7.4627e-05 -4.9933e-05)
(-6.0956e-05 -7.5915e-05 -3.1453e-05)
(-5.7372e-05 -8.292e-05 -3.4355e-05)
(-6.0928e-05 -8.0731e-05 -1.6006e-05)
(-5.7327e-05 -8.8213e-05 -1.7496e-05)
(-6.3884e-05 -1.4482e-05 -7.3113e-05)
(-6.3903e-05 -2.849e-05 -6.8764e-05)
(-6.392e-05 -4.1454e-05 -6.193e-05)
(-6.3931e-05 -5.2776e-05 -5.2775e-05)
(-6.392e-05 -6.193e-05 -4.1453e-05)
(-6.3903e-05 -6.8765e-05 -2.8489e-05)
(-6.3884e-05 -7.3113e-05 -1.4482e-05)
(-6.6169e-05 -1.2915e-05 -6.5235e-05)
(-6.6194e-05 -2.5411e-05 -6.1367e-05)
(-6.6198e-05 -3.7013e-05 -5.53e-05)
(-6.6195e-05 -4.7132e-05 -4.7131e-05)
(-6.6198e-05 -5.53e-05 -3.7012e-05)
(-6.6194e-05 -6.1367e-05 -2.5411e-05)
(-6.6169e-05 -6.5235e-05 -1.2914e-05)
(-6.7834e-05 -1.1323e-05 -5.7247e-05)
(-6.787e-05 -2.2298e-05 -5.3856e-05)
(-6.7852e-05 -3.2515e-05 -4.8566e-05)
(-6.783e-05 -4.1423e-05 -4.1422e-05)
(-6.7852e-05 -4.8567e-05 -3.2515e-05)
(-6.787e-05 -5.3856e-05 -2.2297e-05)
(-6.7834e-05 -5.7248e-05 -1.1323e-05)
(-6.8915e-05 -9.8021e-06 -4.9474e-05)
(-6.8935e-05 -1.9299e-05 -4.6594e-05)
(-6.893e-05 -2.8122e-05 -4.2017e-05)
(-6.8923e-05 -3.5818e-05 -3.5817e-05)
(-6.893e-05 -4.2017e-05 -2.8122e-05)
(-6.8935e-05 -4.6594e-05 -1.9298e-05)
(-6.8915e-05 -4.9474e-05 -9.8015e-06)
(-6.9433e-05 -8.3713e-06 -4.2202e-05)
(-6.9439e-05 -1.6477e-05 -3.977e-05)
(-6.9447e-05 -2.401e-05 -3.5886e-05)
(-6.9448e-05 -3.0577e-05 -3.0577e-05)
(-6.9447e-05 -3.5886e-05 -2.4009e-05)
(-6.9439e-05 -3.9771e-05 -1.6476e-05)
(-6.9434e-05 -4.2202e-05 -8.3705e-06)
(-6.9366e-05 -7.0575e-06 -3.564e-05)
(-6.9376e-05 -1.3908e-05 -3.359e-05)
(-6.9373e-05 -2.0299e-05 -3.0332e-05)
(-6.937e-05 -2.5873e-05 -2.5873e-05)
(-6.9373e-05 -3.0332e-05 -2.0299e-05)
(-6.9376e-05 -3.359e-05 -1.3907e-05)
(-6.9366e-05 -3.564e-05 -7.0565e-06)
(-6.8715e-05 -5.8777e-06 -2.9811e-05)
(-6.8732e-05 -1.1612e-05 -2.8072e-05)
(-6.8714e-05 -1.7008e-05 -2.5387e-05)
(-6.87e-05 -2.1703e-05 -2.1703e-05)
(-6.8714e-05 -2.5388e-05 -1.7007e-05)
(-6.8732e-05 -2.8072e-05 -1.1611e-05)
(-6.8715e-05 -2.981e-05 -5.8765e-06)
(-6.7483e-05 -4.883e-06 -2.4713e-05)
(-6.7487e-05 -9.6455e-06 -2.3301e-05)
(-6.7477e-05 -1.411e-05 -2.1068e-05)
(-6.747e-05 -1.7996e-05 -1.7995e-05)
(-6.7477e-05 -2.1068e-05 -1.4109e-05)
(-6.7487e-05 -2.3301e-05 -9.6442e-06)
(-6.7483e-05 -2.4712e-05 -4.8817e-06)
(-6.5726e-05 -4.0225e-06 -2.0281e-05)
(-6.5721e-05 -7.932e-06 -1.9143e-05)
(-6.5718e-05 -1.1585e-05 -1.7309e-05)
(-6.5715e-05 -1.4766e-05 -1.4765e-05)
(-6.5718e-05 -1.731e-05 -1.1584e-05)
(-6.5721e-05 -1.9144e-05 -7.9306e-06)
(-6.5727e-05 -2.0281e-05 -4.0211e-06)
(-6.3487e-05 -3.2663e-06 -1.6462e-05)
(-6.3485e-05 -6.4388e-06 -1.5547e-05)
(-6.3478e-05 -9.4048e-06 -1.4059e-05)
(-6.3477e-05 -1.1995e-05 -1.1994e-05)
(-6.3478e-05 -1.406e-05 -9.4034e-06)
(-6.3485e-05 -1.5547e-05 -6.4373e-06)
(-6.3487e-05 -1.6462e-05 -3.2648e-06)
(-6.0807e-05 -2.5715e-06 -1.3029e-05)
(-6.0813e-05 -5.0851e-06 -1.2296e-05)
(-6.08e-05 -7.4526e-06 -1.1131e-05)
(-6.0792e-05 -9.5176e-06 -9.5166e-06)
(-6.08e-05 -1.1131e-05 -7.4512e-06)
(-6.0813e-05 -1.2297e-05 -5.0836e-06)
(-6.0807e-05 -1.3029e-05 -2.5701e-06)
)
;
    }
    procBoundary2to1
    {
        type            processor;
    }
    procBoundary2to3
    {
        type            processor;
    }
}


// ************************************************************************* //
