/*--------------------------------*- C++ -*----------------------------------*\
| =========                 |                                                 |
| \\      /  F ield         | OpenFOAM: The Open Source CFD Toolbox           |
|  \\    /   O peration     | Version:  4.1                                   |
|   \\  /    A nd           | Web:      www.OpenFOAM.org                      |
|    \\/     M anipulation  |                                                 |
\*---------------------------------------------------------------------------*/
FoamFile
{
    version     2.0;
    format      ascii;
    class       pointVectorField;
    location    "0.0022";
    object      pointDisplacement_Next_Iter2;
}
// * * * * * * * * * * * * * * * * * * * * * * * * * * * * * * * * * * * * * //

dimensions      [0 1 0 0 0 0 0];

internalField   uniform (0 0 0);

boundaryField
{
    inlet
    {
        type            fixedValue;
        value           uniform (0 0 0);
    }
    outlet
    {
        type            fixedValue;
        value           uniform (0 0 0);
    }
    mantle
    {
        type            fixedValue;
        value           nonuniform List<vector> 
1568
(
(2.93e-12 -2.3299e-11 2.5667e-17)
(7.465e-06 -6.1596e-05 1.2207e-10)
(7.5076e-06 -5.9188e-05 1.1059e-05)
(2.322e-09 -2.1705e-07 -1.0313e-07)
(7.5606e-06 -5.4337e-05 2.2493e-05)
(2.8781e-12 -2.1546e-11 8.3531e-12)
(7.5773e-06 -4.9522e-05 3.3911e-05)
(5.6857e-09 -7.0379e-08 2.2563e-07)
(7.5651e-06 -4.3364e-05 4.3364e-05)
(3.0629e-12 -1.677e-11 1.677e-11)
(7.5773e-06 -3.3911e-05 4.9522e-05)
(5.6867e-09 -2.2569e-07 7.0404e-08)
(7.5606e-06 -2.2493e-05 5.4337e-05)
(2.878e-12 -8.3532e-12 2.1546e-11)
(7.5076e-06 -1.1059e-05 5.9188e-05)
(2.3187e-09 1.0316e-07 2.1708e-07)
(7.465e-06 1.2365e-10 6.1595e-05)
(2.93e-12 2.9527e-17 2.3299e-11)
(1.3954e-05 -0.00010985 2.2255e-10)
(1.4025e-05 -0.00010509 1.9857e-05)
(1.4112e-05 -9.6612e-05 4.0014e-05)
(1.4141e-05 -8.8e-05 6.0023e-05)
(1.4127e-05 -7.7245e-05 7.7245e-05)
(1.4141e-05 -6.0024e-05 8.8001e-05)
(1.4112e-05 -4.0014e-05 9.6613e-05)
(1.4025e-05 -1.9856e-05 0.00010509)
(1.3954e-05 3.3672e-10 0.00010985)
(1.8191e-05 -0.00012823 9.0631e-11)
(1.8204e-05 -0.00012479 2.4351e-05)
(1.8258e-05 -0.00011636 4.8241e-05)
(1.8296e-05 -0.0001049 7.0701e-05)
(1.8323e-05 -9.0016e-05 9.0015e-05)
(1.8296e-05 -7.0702e-05 0.0001049)
(1.8258e-05 -4.8241e-05 0.00011636)
(1.8204e-05 -2.435e-05 0.00012479)
(1.8191e-05 5.9567e-10 0.00012823)
(1.864e-05 -0.00012763 -2.0746e-10)
(1.8612e-05 -0.00012588 2.5244e-05)
(1.866e-05 -0.00011876 4.9271e-05)
(1.8645e-05 -0.00010616 7.0778e-05)
(1.8684e-05 -8.9423e-05 8.9423e-05)
(1.8645e-05 -7.0779e-05 0.00010616)
(1.8661e-05 -4.9272e-05 0.00011876)
(1.8612e-05 -2.5244e-05 0.00012587)
(1.864e-05 7.5629e-10 0.00012762)
(1.5117e-05 -0.00012377 -5.2008e-10)
(1.5246e-05 -0.0001217 2.4419e-05)
(1.537e-05 -0.00011474 4.7544e-05)
(1.5231e-05 -0.00010264 6.8341e-05)
(1.5094e-05 -8.6689e-05 8.6689e-05)
(1.5231e-05 -6.8342e-05 0.00010264)
(1.5371e-05 -4.7545e-05 0.00011474)
(1.5247e-05 -2.4419e-05 0.00012169)
(1.5117e-05 4.0317e-10 0.00012376)
(1.03e-05 -0.0001183 -6.7492e-10)
(1.0585e-05 -0.00011569 2.2984e-05)
(1.0781e-05 -0.00010858 4.4944e-05)
(1.0536e-05 -9.7455e-05 6.5093e-05)
(1.0229e-05 -8.2878e-05 8.2878e-05)
(1.0536e-05 -6.5093e-05 9.7456e-05)
(1.0781e-05 -4.4944e-05 0.00010858)
(1.0585e-05 -2.2984e-05 0.00011569)
(1.03e-05 1.0877e-10 0.00011829)
(6.9292e-06 -0.00010882 -4.9274e-10)
(7.0175e-06 -0.00010628 2.0963e-05)
(7.0713e-06 -9.9517e-05 4.1212e-05)
(6.9394e-06 -8.9447e-05 5.995e-05)
(6.8186e-06 -7.6281e-05 7.6281e-05)
(6.9398e-06 -5.9951e-05 8.9448e-05)
(7.0718e-06 -4.1212e-05 9.9517e-05)
(7.018e-06 -2.0963e-05 0.00010628)
(6.9297e-06 1.6159e-10 0.00010882)
(4.4925e-06 -9.547e-05 -2.5315e-10)
(4.3819e-06 -9.3225e-05 1.842e-05)
(4.2707e-06 -8.7284e-05 3.6199e-05)
(4.2703e-06 -7.8517e-05 5.2656e-05)
(4.3348e-06 -6.6998e-05 6.6997e-05)
(4.2708e-06 -5.2656e-05 7.8517e-05)
(4.2715e-06 -3.6199e-05 8.7284e-05)
(4.3827e-06 -1.842e-05 9.3225e-05)
(4.4933e-06 2.9154e-10 9.5469e-05)
(1.6876e-06 -7.9315e-05 3.2711e-10)
(1.5961e-06 -7.7617e-05 1.5368e-05)
(1.4659e-06 -7.2849e-05 3.0219e-05)
(1.4492e-06 -6.5524e-05 4.3926e-05)
(1.4777e-06 -5.5838e-05 5.5837e-05)
(1.4497e-06 -4.3926e-05 6.5524e-05)
(1.4666e-06 -3.0219e-05 7.2849e-05)
(1.5969e-06 -1.5368e-05 7.7616e-05)
(1.6884e-06 -3.36e-10 7.9314e-05)
(-1.5147e-06 -6.2905e-05 -4.0352e-10)
(-1.5819e-06 -6.1753e-05 1.227e-05)
(-1.6798e-06 -5.8181e-05 2.4117e-05)
(-1.7353e-06 -5.2365e-05 3.5032e-05)
(-1.7391e-06 -4.4524e-05 4.4524e-05)
(-1.735e-06 -3.5032e-05 5.2364e-05)
(-1.6793e-06 -2.4117e-05 5.818e-05)
(-1.5814e-06 -1.227e-05 6.1751e-05)
(-1.5141e-06 1.5818e-10 6.2904e-05)
(-4.6748e-06 -4.8619e-05 -4.8991e-10)
(-4.7286e-06 -4.7754e-05 9.4694e-06)
(-4.8135e-06 -4.5102e-05 1.866e-05)
(-4.8331e-06 -4.0717e-05 2.7218e-05)
(-4.8243e-06 -3.4683e-05 3.4683e-05)
(-4.8329e-06 -2.7219e-05 4.0717e-05)
(-4.813e-06 -1.8661e-05 4.5101e-05)
(-4.7281e-06 -9.4696e-06 4.7752e-05)
(-4.6743e-06 1.2142e-10 4.8618e-05)
(-7.2385e-06 -3.7637e-05 -6.9528e-10)
(-7.2811e-06 -3.6937e-05 7.2682e-06)
(-7.3445e-06 -3.4889e-05 1.4403e-05)
(-7.3181e-06 -3.1661e-05 2.1198e-05)
(-7.2883e-06 -2.7096e-05 2.7095e-05)
(-7.3179e-06 -2.1199e-05 3.166e-05)
(-7.3442e-06 -1.4403e-05 3.4888e-05)
(-7.2805e-06 -7.2685e-06 3.6936e-05)
(-7.2379e-06 3.1198e-10 3.7636e-05)
(-8.8447e-06 -2.9884e-05 -3.229e-10)
(-8.866e-06 -2.9315e-05 5.7621e-06)
(-8.8871e-06 -2.772e-05 1.1465e-05)
(-8.8569e-06 -2.5208e-05 1.691e-05)
(-8.8303e-06 -2.1622e-05 2.1621e-05)
(-8.8567e-06 -1.6911e-05 2.5207e-05)
(-8.8868e-06 -1.1465e-05 2.7719e-05)
(-8.8655e-06 -5.7623e-06 2.9313e-05)
(-8.8441e-06 -5.3535e-11 2.9883e-05)
(-9.4551e-06 -2.4379e-05 -7.4823e-10)
(-9.4584e-06 -2.3894e-05 4.6944e-06)
(-9.46e-06 -2.259e-05 9.3767e-06)
(-9.4264e-06 -2.0567e-05 1.3822e-05)
(-9.412e-06 -1.7668e-05 1.7668e-05)
(-9.4263e-06 -1.3822e-05 2.0566e-05)
(-9.4597e-06 -9.3768e-06 2.2589e-05)
(-9.458e-06 -4.6946e-06 2.3891e-05)
(-9.4546e-06 3.8449e-10 2.4377e-05)
(-9.3407e-06 -1.9849e-05 -2.4947e-09)
(-9.354e-06 -1.9462e-05 3.8241e-06)
(-9.3567e-06 -1.8406e-05 7.6171e-06)
(-9.3242e-06 -1.676e-05 1.1248e-05)
(-9.2981e-06 -1.4392e-05 1.4389e-05)
(-9.3241e-06 -1.1248e-05 1.6759e-05)
(-9.3565e-06 -7.6171e-06 1.8404e-05)
(-9.3537e-06 -3.8242e-06 1.946e-05)
(-9.3404e-06 2.1706e-09 1.9847e-05)
(-8.9329e-06 -1.5574e-05 -6.0949e-10)
(-8.959e-06 -1.5263e-05 2.9831e-06)
(-8.9715e-06 -1.4447e-05 5.9557e-06)
(-8.9337e-06 -1.3159e-05 8.8214e-06)
(-8.8976e-06 -1.1311e-05 1.131e-05)
(-8.9337e-06 -8.8214e-06 1.3158e-05)
(-8.9714e-06 -5.9556e-06 1.4446e-05)
(-8.9589e-06 -2.9832e-06 1.5262e-05)
(-8.9328e-06 3.3942e-10 1.5573e-05)
(-8.574e-06 -1.1397e-05 -6.505e-10)
(-8.5898e-06 -1.1234e-05 2.2274e-06)
(-8.5958e-06 -1.0701e-05 4.4165e-06)
(-8.5643e-06 -9.7311e-06 6.4902e-06)
(-8.538e-06 -8.3074e-06 8.307e-06)
(-8.5643e-06 -6.4902e-06 9.7303e-06)
(-8.5958e-06 -4.4165e-06 1.07e-05)
(-8.5898e-06 -2.2274e-06 1.1233e-05)
(-8.574e-06 4.2478e-10 1.1396e-05)
(-8.3005e-06 -7.9036e-06 -5.4434e-10)
(-8.3051e-06 -7.8603e-06 1.5961e-06)
(-8.3038e-06 -7.5547e-06 3.134e-06)
(-8.2785e-06 -6.8555e-06 4.5451e-06)
(-8.2618e-06 -5.7978e-06 5.7976e-06)
(-8.2785e-06 -4.5452e-06 6.8551e-06)
(-8.3037e-06 -3.134e-06 7.5542e-06)
(-8.305e-06 -1.5962e-06 7.8597e-06)
(-8.3004e-06 3.8872e-10 7.9033e-06)
(-8.0004e-06 -5.721e-06 -1.12e-09)
(-8.0021e-06 -5.6649e-06 1.1436e-06)
(-7.9975e-06 -5.4292e-06 2.2495e-06)
(-7.9786e-06 -4.9447e-06 3.2872e-06)
(-7.9668e-06 -4.2053e-06 4.2061e-06)
(-7.9786e-06 -3.2874e-06 4.9447e-06)
(-7.9975e-06 -2.2497e-06 5.4292e-06)
(-8.0021e-06 -1.1438e-06 5.6651e-06)
(-8.0003e-06 1.0414e-09 5.7214e-06)
(-7.5266e-06 -4.4759e-06 -4.35e-10)
(-7.5284e-06 -4.3783e-06 8.5437e-07)
(-7.53e-06 -4.1473e-06 1.7108e-06)
(-7.5105e-06 -3.7996e-06 2.5505e-06)
(-7.5014e-06 -3.282e-06 3.282e-06)
(-7.5105e-06 -2.5506e-06 3.7998e-06)
(-7.53e-06 -1.7111e-06 4.1478e-06)
(-7.5284e-06 -8.5456e-07 4.3791e-06)
(-7.5266e-06 4.3325e-10 4.477e-06)
(-6.8157e-06 -3.6384e-06 -2.9018e-10)
(-6.8257e-06 -3.5486e-06 6.8387e-07)
(-6.8323e-06 -3.3445e-06 1.38e-06)
(-6.8129e-06 -3.0681e-06 2.0688e-06)
(-6.7975e-06 -2.6604e-06 2.6603e-06)
(-6.8129e-06 -2.069e-06 3.0685e-06)
(-6.8323e-06 -1.3802e-06 3.3451e-06)
(-6.8257e-06 -6.8401e-07 3.5497e-06)
(-6.8156e-06 3.8025e-10 3.6398e-06)
(-6.0244e-06 -2.885e-06 -2.8056e-10)
(-6.0427e-06 -2.8108e-06 5.4257e-07)
(-6.0542e-06 -2.6458e-06 1.0959e-06)
(-6.034e-06 -2.4301e-06 1.643e-06)
(-6.0118e-06 -2.1116e-06 2.1117e-06)
(-6.034e-06 -1.6431e-06 2.4304e-06)
(-6.0542e-06 -1.096e-06 2.6465e-06)
(-6.0427e-06 -5.4262e-07 2.8119e-06)
(-6.0243e-06 4.2423e-10 2.8864e-06)
(-5.3449e-06 -2.1154e-06 -2.1836e-10)
(-5.3567e-06 -2.0752e-06 4.064e-07)
(-5.3666e-06 -1.9675e-06 8.1487e-07)
(-5.3515e-06 -1.8044e-06 1.2138e-06)
(-5.3374e-06 -1.5564e-06 1.5566e-06)
(-5.3515e-06 -1.2137e-06 1.8046e-06)
(-5.3666e-06 -8.1485e-07 1.9679e-06)
(-5.3567e-06 -4.0637e-07 2.0759e-06)
(-5.3449e-06 3.5267e-10 2.1164e-06)
(-4.8125e-06 -1.4245e-06 -1.9063e-10)
(-4.8195e-06 -1.4099e-06 2.7749e-07)
(-4.8258e-06 -1.3486e-06 5.5685e-07)
(-4.8157e-06 -1.2355e-06 8.2792e-07)
(-4.8074e-06 -1.0588e-06 1.059e-06)
(-4.8157e-06 -8.2772e-07 1.2356e-06)
(-4.8258e-06 -5.5671e-07 1.3487e-06)
(-4.8195e-06 -2.7738e-07 1.4102e-06)
(-4.8125e-06 2.9628e-10 1.4249e-06)
(-4.3863e-06 -9.6659e-07 -1.0768e-10)
(-4.3852e-06 -9.59e-07 1.9233e-07)
(-4.3833e-06 -9.2398e-07 3.8253e-07)
(-4.3801e-06 -8.4702e-07 5.6447e-07)
(-4.3789e-06 -7.2377e-07 7.2388e-07)
(-4.3801e-06 -5.642e-07 8.4704e-07)
(-4.3833e-06 -3.8228e-07 9.2386e-07)
(-4.3853e-06 -1.9215e-07 9.5887e-07)
(-4.3863e-06 2.1165e-10 9.6648e-07)
(-3.9964e-06 -7.2296e-07 -1.0474e-10)
(-3.9899e-06 -7.1649e-07 1.4436e-07)
(-3.9825e-06 -6.8713e-07 2.8626e-07)
(-3.9843e-06 -6.3514e-07 4.2265e-07)
(-3.9871e-06 -5.4049e-07 5.4065e-07)
(-3.9843e-06 -4.2236e-07 6.3507e-07)
(-3.9826e-06 -2.8596e-07 6.8684e-07)
(-3.99e-06 -1.4413e-07 7.1605e-07)
(-3.9965e-06 2.1494e-10 7.2242e-07)
(-3.5972e-06 -6.2033e-07 -6.885e-11)
(-3.5946e-06 -6.0788e-07 1.1957e-07)
(-3.5916e-06 -5.7713e-07 2.3924e-07)
(-3.5904e-06 -5.3043e-07 3.5652e-07)
(-3.5912e-06 -4.5817e-07 4.5828e-07)
(-3.5905e-06 -3.5625e-07 5.3029e-07)
(-3.5917e-06 -2.3892e-07 5.7673e-07)
(-3.5948e-06 -1.1932e-07 6.0725e-07)
(-3.5974e-06 1.6585e-10 6.1953e-07)
(-3.216e-06 -5.329e-07 -3.1047e-11)
(-3.2196e-06 -5.1634e-07 9.9085e-08)
(-3.2219e-06 -4.8602e-07 2.0023e-07)
(-3.218e-06 -4.4648e-07 3.0127e-07)
(-3.2141e-06 -3.8965e-07 3.8972e-07)
(-3.2181e-06 -3.0102e-07 4.4632e-07)
(-3.2221e-06 -1.9992e-07 4.8559e-07)
(-3.2198e-06 -9.8838e-08 5.1568e-07)
(-3.2164e-06 1.2748e-10 5.3206e-07)
(-2.8958e-06 -3.9062e-07 3.3419e-12)
(-2.8972e-06 -3.844e-07 7.5904e-08)
(-2.8985e-06 -3.663e-07 1.5116e-07)
(-2.8963e-06 -3.3423e-07 2.2326e-07)
(-2.8946e-06 -2.8635e-07 2.8644e-07)
(-2.8965e-06 -2.2303e-07 3.3414e-07)
(-2.8987e-06 -1.5088e-07 3.6598e-07)
(-2.8976e-06 -7.566e-08 3.8387e-07)
(-2.8962e-06 1.2296e-10 3.8994e-07)
(-2.6334e-06 -2.4182e-07 6.3411e-11)
(-2.6339e-06 -2.4648e-07 5.227e-08)
(-2.6331e-06 -2.4154e-07 1.0042e-07)
(-2.6332e-06 -2.1872e-07 1.4278e-07)
(-2.6316e-06 -1.8004e-07 1.8021e-07)
(-2.6334e-06 -1.4252e-07 2.1876e-07)
(-2.6334e-06 -1.0012e-07 2.4141e-07)
(-2.6343e-06 -5.199e-08 2.4618e-07)
(-2.6339e-06 1.4453e-10 2.4141e-07)
(-2.4098e-06 -1.6235e-07 1.0019e-10)
(-2.4096e-06 -1.6439e-07 3.5299e-08)
(-2.4095e-06 -1.6181e-07 6.7377e-08)
(-2.4083e-06 -1.4659e-07 9.5664e-08)
(-2.4081e-06 -1.2167e-07 1.2202e-07)
(-2.4085e-06 -9.532e-08 1.4681e-07)
(-2.4098e-06 -6.7e-08 1.6192e-07)
(-2.41e-06 -3.4922e-08 1.6433e-07)
(-2.4103e-06 2.4615e-10 1.6219e-07)
(-2.2008e-06 -1.3495e-07 2.1414e-10)
(-2.2012e-06 -1.325e-07 2.6569e-08)
(-2.2022e-06 -1.2678e-07 5.2506e-08)
(-2.2005e-06 -1.1623e-07 7.772e-08)
(-2.1998e-06 -9.9996e-08 1.0044e-07)
(-2.2006e-06 -7.7241e-08 1.1664e-07)
(-2.2025e-06 -5.1996e-08 1.2709e-07)
(-2.2017e-06 -2.6049e-08 1.3264e-07)
(-2.2014e-06 2.9483e-10 1.3497e-07)
(-1.9948e-06 -1.2262e-07 2.7915e-10)
(-1.9954e-06 -1.1914e-07 2.3116e-08)
(-1.9962e-06 -1.1201e-07 4.6531e-08)
(-1.9951e-06 -1.0319e-07 7.0143e-08)
(-1.9943e-06 -8.9905e-08 9.0542e-08)
(-1.9952e-06 -6.9464e-08 1.0376e-07)
(-1.9965e-06 -4.5828e-08 1.1245e-07)
(-1.9959e-06 -2.2416e-08 1.194e-07)
(-1.9954e-06 3.9292e-10 1.2277e-07)
(-1.7972e-06 -1.051e-07 3.4784e-10)
(-1.7988e-06 -1.0152e-07 1.9513e-08)
(-1.7999e-06 -9.4714e-08 3.9788e-08)
(-1.7987e-06 -8.7394e-08 6.0391e-08)
(-1.797e-06 -7.6877e-08 7.7728e-08)
(-1.7989e-06 -5.9462e-08 8.8117e-08)
(-1.8002e-06 -3.8831e-08 9.525e-08)
(-1.7993e-06 -1.8583e-08 1.0185e-07)
(-1.7978e-06 5.1113e-10 1.053e-07)
(-1.6217e-06 -7.7962e-08 4.3365e-10)
(-1.6224e-06 -7.6011e-08 1.5123e-08)
(-1.6233e-06 -7.1425e-08 3.0336e-08)
(-1.6223e-06 -6.577e-08 4.5582e-08)
(-1.6216e-06 -5.7208e-08 5.8285e-08)
(-1.6225e-06 -4.4375e-08 6.6641e-08)
(-1.6237e-06 -2.9082e-08 7.2033e-08)
(-1.6229e-06 -1.3911e-08 7.6344e-08)
(-1.6223e-06 6.6065e-10 7.8106e-08)
(-1.4639e-06 -5.1559e-08 5.1678e-10)
(-1.4643e-06 -5.0949e-08 1.052e-08)
(-1.465e-06 -4.8237e-08 2.0822e-08)
(-1.4642e-06 -4.4261e-08 3.1014e-08)
(-1.4638e-06 -3.7937e-08 3.9235e-08)
(-1.4643e-06 -2.9517e-08 4.5263e-08)
(-1.4653e-06 -1.9249e-08 4.8877e-08)
(-1.4647e-06 -9.0023e-09 5.1216e-08)
(-1.4645e-06 8.236e-10 5.155e-08)
(-1.3173e-06 -3.8765e-08 5.825e-10)
(-1.3171e-06 -3.7813e-08 8.0643e-09)
(-1.317e-06 -3.5563e-08 1.5703e-08)
(-1.3169e-06 -3.2541e-08 2.3235e-08)
(-1.3171e-06 -2.7996e-08 2.9493e-08)
(-1.317e-06 -2.1459e-08 3.3637e-08)
(-1.3172e-06 -1.382e-08 3.6179e-08)
(-1.3174e-06 -6.2602e-09 3.7949e-08)
(-1.3177e-06 9.7097e-10 3.8525e-08)
(-1.1773e-06 -3.569e-08 6.3065e-10)
(-1.1773e-06 -3.4108e-08 7.4367e-09)
(-1.1767e-06 -3.1466e-08 1.4135e-08)
(-1.1775e-06 -2.8952e-08 2.0896e-08)
(-1.1772e-06 -2.5015e-08 2.6686e-08)
(-1.1775e-06 -1.8873e-08 3.0111e-08)
(-1.1769e-06 -1.1977e-08 3.2031e-08)
(-1.1775e-06 -5.3892e-09 3.4085e-08)
(-1.1776e-06 1.0879e-09 3.5186e-08)
(-1.0435e-06 -3.3742e-08 6.7078e-10)
(-1.0436e-06 -3.2661e-08 7.0503e-09)
(-1.0439e-06 -3.0172e-08 1.3711e-08)
(-1.0436e-06 -2.7198e-08 2.0115e-08)
(-1.0434e-06 -2.3263e-08 2.5052e-08)
(-1.0436e-06 -1.7895e-08 2.8401e-08)
(-1.0439e-06 -1.1334e-08 3.0688e-08)
(-1.0437e-06 -4.8184e-09 3.2504e-08)
(-1.0436e-06 1.1567e-09 3.302e-08)
(-9.1698e-07 -3.2451e-08 6.8637e-10)
(-9.1742e-07 -3.13e-08 6.445e-09)
(-9.1772e-07 -2.8282e-08 1.298e-08)
(-9.1738e-07 -2.5619e-08 1.9569e-08)
(-9.1693e-07 -2.2143e-08 2.4024e-08)
(-9.1736e-07 -1.7234e-08 2.6852e-08)
(-9.1769e-07 -1.0475e-08 2.8765e-08)
(-9.1736e-07 -4.1107e-09 3.1048e-08)
(-9.1689e-07 1.1983e-09 3.1582e-08)
(-7.9907e-07 -2.9412e-08 7.0019e-10)
(-7.978e-07 -2.5226e-08 3.9527e-09)
(-7.966e-07 -1.985e-08 9.4326e-09)
(-7.9767e-07 -1.9381e-08 1.6836e-08)
(-7.9887e-07 -1.9706e-08 2.1606e-08)
(-7.9762e-07 -1.4504e-08 2.0639e-08)
(-7.9649e-07 -6.9475e-09 2.0344e-08)
(-7.9763e-07 -1.6266e-09 2.4948e-08)
(-7.9886e-07 1.1937e-09 2.8487e-08)
(-6.8222e-07 -6.0757e-09 6.8788e-10)
(-6.7953e-07 6.0425e-10 -1.7465e-09)
(-6.7733e-07 6.1121e-09 -1.4551e-09)
(-6.7936e-07 2.9991e-09 2.313e-09)
(-6.8193e-07 -3.0192e-09 4.8506e-09)
(-6.7928e-07 -1.1441e-10 -1.7333e-09)
(-6.7716e-07 3.7823e-09 -5.5338e-09)
(-6.7928e-07 3.9417e-09 -7.4862e-10)
(-6.819e-07 1.1352e-09 5.317e-09)
(-5.666e-07 3.9966e-08 6.2905e-10)
(-5.6618e-07 4.0413e-08 -8.2721e-09)
(-5.6553e-07 3.9924e-08 -1.559e-08)
(-5.6613e-07 3.5613e-08 -2.1408e-08)
(-5.6648e-07 2.9389e-08 -2.775e-08)
(-5.6601e-07 2.3345e-08 -3.4397e-08)
(-5.6529e-07 1.764e-08 -3.9223e-08)
(-5.6584e-07 1.0216e-08 -4.0266e-08)
(-5.6617e-07 1.0103e-09 -4.0301e-08)
(-4.7732e-07 4.7126e-08 5.4013e-10)
(-4.7892e-07 4.2794e-08 -7.9575e-09)
(-4.7898e-07 3.999e-08 -1.5728e-08)
(-4.7898e-07 3.6781e-08 -2.3386e-08)
(-4.7736e-07 3.4087e-08 -3.2723e-08)
(-4.7881e-07 2.4984e-08 -3.5709e-08)
(-4.7865e-07 1.7427e-08 -3.9271e-08)
(-4.7845e-07 9.5761e-09 -4.2472e-08)
(-4.7673e-07 8.3749e-10 -4.7155e-08)
(-4.2207e-07 -2.2679e-08 4.4128e-10)
(-4.1932e-07 -1.8607e-08 1.9197e-09)
(-4.1672e-07 -1.323e-08 6.2237e-09)
(-4.193e-07 -1.395e-08 1.3017e-08)
(-4.2198e-07 -1.5703e-08 1.6767e-08)
(-4.191e-07 -1.1784e-08 1.4777e-08)
(-4.1632e-07 -4.916e-09 1.3758e-08)
(-4.1871e-07 -6.5958e-10 1.8791e-08)
(-4.213e-07 6.4602e-10 2.2556e-08)
(-3.4514e-07 -9.1147e-08 3.1647e-10)
(-3.3806e-07 -7.8393e-08 1.1521e-08)
(-3.3263e-07 -6.4484e-08 2.7287e-08)
(-3.3794e-07 -6.3296e-08 4.8307e-08)
(-3.4489e-07 -6.4439e-08 6.5154e-08)
(-3.3775e-07 -4.748e-08 6.3817e-08)
(-3.3224e-07 -2.6414e-08 6.4743e-08)
(-3.3745e-07 -1.0668e-08 7.8345e-08)
(-3.4436e-07 4.2778e-10 9.0836e-08)
(-1.9592e-07 -7.3951e-08 1.5654e-10)
(-1.9274e-07 -6.7329e-08 1.0584e-08)
(-1.8964e-07 -5.782e-08 2.425e-08)
(-1.9264e-07 -5.4985e-08 4.0667e-08)
(-1.9572e-07 -5.2339e-08 5.2665e-08)
(-1.9253e-07 -4.0282e-08 5.5206e-08)
(-1.894e-07 -2.3842e-08 5.7892e-08)
(-1.9237e-07 -1.0185e-08 6.7229e-08)
(-1.9544e-07 1.8698e-10 7.3717e-08)
(-7.7677e-14 -3.0431e-14 5.5566e-17)
(-3.3918e-10 -6.241e-10 -5.2374e-10)
(-9.881e-14 -5.9413e-14 2.2363e-14)
(-3.3623e-10 -7.8641e-11 8.1609e-10)
(-4.52e-14 1.3947e-14 -1.3576e-14)
(-3.3813e-10 -8.1579e-10 8.2547e-11)
(-9.8671e-14 -2.2436e-14 5.9376e-14)
(-3.3559e-10 5.2529e-10 6.1961e-10)
(-7.7497e-14 5.5098e-17 3.0339e-14)
(7.5076e-06 1.1059e-05 5.9187e-05)
(2.3177e-09 -1.0315e-07 2.1705e-07)
(7.5607e-06 2.2493e-05 5.4336e-05)
(2.8781e-12 8.3531e-12 2.1546e-11)
(7.5774e-06 3.3911e-05 4.9521e-05)
(5.6896e-09 2.2566e-07 7.0395e-08)
(7.5652e-06 4.3364e-05 4.3363e-05)
(3.063e-12 1.6769e-11 1.6769e-11)
(7.5773e-06 4.9522e-05 3.391e-05)
(5.6883e-09 7.0376e-08 2.2564e-07)
(7.5606e-06 5.4336e-05 2.2492e-05)
(2.8781e-12 2.1546e-11 8.3529e-12)
(7.5076e-06 5.9188e-05 1.1058e-05)
(2.3183e-09 2.1706e-07 -1.0313e-07)
(7.465e-06 6.1596e-05 -1.4064e-10)
(2.93e-12 2.3299e-11 -4.8612e-17)
(1.4025e-05 1.9856e-05 0.00010509)
(1.4112e-05 4.0013e-05 9.661e-05)
(1.4141e-05 6.0023e-05 8.7998e-05)
(1.4128e-05 7.7244e-05 7.7243e-05)
(1.4141e-05 8.7999e-05 6.0022e-05)
(1.4112e-05 9.6611e-05 4.0013e-05)
(1.4025e-05 0.00010509 1.9856e-05)
(1.3954e-05 0.00010985 -2.3976e-10)
(1.8204e-05 2.4351e-05 0.00012479)
(1.8258e-05 4.824e-05 0.00011636)
(1.8296e-05 7.0701e-05 0.0001049)
(1.8323e-05 9.0015e-05 9.0014e-05)
(1.8296e-05 0.0001049 7.07e-05)
(1.8258e-05 0.00011636 4.824e-05)
(1.8204e-05 0.00012479 2.435e-05)
(1.8191e-05 0.00012823 -1.6501e-10)
(1.8613e-05 2.5244e-05 0.00012587)
(1.8661e-05 4.927e-05 0.00011875)
(1.8645e-05 7.0778e-05 0.00010616)
(1.8684e-05 8.9423e-05 8.9422e-05)
(1.8645e-05 0.00010616 7.0778e-05)
(1.8661e-05 0.00011876 4.927e-05)
(1.8612e-05 0.00012587 2.5244e-05)
(1.864e-05 0.00012762 -4.2577e-11)
(1.5247e-05 2.4419e-05 0.00012169)
(1.5371e-05 4.7544e-05 0.00011473)
(1.5231e-05 6.8341e-05 0.00010264)
(1.5094e-05 8.6689e-05 8.6688e-05)
(1.5231e-05 0.00010264 6.834e-05)
(1.5371e-05 0.00011473 4.7544e-05)
(1.5246e-05 0.00012169 2.4419e-05)
(1.5117e-05 0.00012376 -2.6491e-10)
(1.0585e-05 2.2984e-05 0.00011569)
(1.0781e-05 4.4943e-05 0.00010858)
(1.0536e-05 6.5092e-05 9.7453e-05)
(1.023e-05 8.2877e-05 8.2876e-05)
(1.0536e-05 9.7453e-05 6.5091e-05)
(1.0781e-05 0.00010858 4.4943e-05)
(1.0585e-05 0.00011569 2.2983e-05)
(1.03e-05 0.00011829 -5.003e-10)
(7.018e-06 2.0963e-05 0.00010628)
(7.0719e-06 4.1212e-05 9.9514e-05)
(6.94e-06 5.9949e-05 8.9444e-05)
(6.819e-06 7.6279e-05 7.6278e-05)
(6.9398e-06 8.9445e-05 5.9948e-05)
(7.0716e-06 9.9514e-05 4.121e-05)
(7.0178e-06 0.00010628 2.0962e-05)
(6.9295e-06 0.00010881 -5.3918e-10)
(4.3826e-06 1.842e-05 9.3224e-05)
(4.2713e-06 3.6199e-05 8.7281e-05)
(4.2708e-06 5.2655e-05 7.8514e-05)
(4.335e-06 6.6995e-05 6.6994e-05)
(4.2706e-06 7.8515e-05 5.2653e-05)
(4.271e-06 8.7281e-05 3.6197e-05)
(4.3823e-06 9.3222e-05 1.8419e-05)
(4.493e-06 9.5466e-05 -5.1158e-10)
(1.5968e-06 1.5369e-05 7.7615e-05)
(1.4664e-06 3.0219e-05 7.2847e-05)
(1.4496e-06 4.3925e-05 6.5522e-05)
(1.4778e-06 5.5836e-05 5.5835e-05)
(1.4494e-06 6.5522e-05 4.3924e-05)
(1.4662e-06 7.2846e-05 3.0218e-05)
(1.5965e-06 7.7614e-05 1.5367e-05)
(1.688e-06 7.9312e-05 4.3049e-11)
(-1.5815e-06 1.227e-05 6.1751e-05)
(-1.6794e-06 2.4117e-05 5.8179e-05)
(-1.7351e-06 3.5032e-05 5.2363e-05)
(-1.7391e-06 4.4523e-05 4.4522e-05)
(-1.7352e-06 5.2363e-05 3.5031e-05)
(-1.6796e-06 5.8179e-05 2.4116e-05)
(-1.5816e-06 6.175e-05 1.2269e-05)
(-1.5143e-06 6.2903e-05 -6.1478e-10)
(-4.7281e-06 9.4699e-06 4.7752e-05)
(-4.8131e-06 1.8661e-05 4.51e-05)
(-4.8329e-06 2.7219e-05 4.0716e-05)
(-4.8242e-06 3.4683e-05 3.4682e-05)
(-4.8329e-06 4.0716e-05 2.7217e-05)
(-4.8131e-06 4.51e-05 1.8659e-05)
(-4.7281e-06 4.7752e-05 9.4686e-06)
(-4.6743e-06 4.8617e-05 -8.2589e-10)
(-7.2806e-06 7.269e-06 3.6935e-05)
(-7.3442e-06 1.4403e-05 3.4888e-05)
(-7.3179e-06 2.1199e-05 3.1659e-05)
(-7.2882e-06 2.7096e-05 2.7094e-05)
(-7.3178e-06 3.166e-05 2.1197e-05)
(-7.3441e-06 3.4887e-05 1.4402e-05)
(-7.2805e-06 3.6935e-05 7.2675e-06)
(-7.2379e-06 3.7635e-05 -8.7696e-10)
(-8.8655e-06 5.7629e-06 2.9313e-05)
(-8.8868e-06 1.1466e-05 2.7718e-05)
(-8.8567e-06 1.6911e-05 2.5206e-05)
(-8.8302e-06 2.1622e-05 2.162e-05)
(-8.8567e-06 2.5207e-05 1.6909e-05)
(-8.8867e-06 2.7718e-05 1.1464e-05)
(-8.8655e-06 2.9313e-05 5.7614e-06)
(-8.8442e-06 2.9882e-05 -4.9513e-10)
(-9.458e-06 4.6953e-06 2.3891e-05)
(-9.4597e-06 9.3774e-06 2.2588e-05)
(-9.4262e-06 1.3822e-05 2.0565e-05)
(-9.4119e-06 1.7668e-05 1.7667e-05)
(-9.4262e-06 2.0566e-05 1.3821e-05)
(-9.4597e-06 2.2589e-05 9.3759e-06)
(-9.4581e-06 2.3892e-05 4.6939e-06)
(-9.4547e-06 2.4378e-05 -8.7838e-10)
(-9.3537e-06 3.8249e-06 1.946e-05)
(-9.3564e-06 7.6177e-06 1.8404e-05)
(-9.324e-06 1.1249e-05 1.6758e-05)
(-9.2979e-06 1.4389e-05 1.4391e-05)
(-9.324e-06 1.6759e-05 1.1247e-05)
(-9.3564e-06 1.8405e-05 7.6163e-06)
(-9.3537e-06 1.946e-05 3.8236e-06)
(-9.3404e-06 1.9847e-05 -2.6191e-09)
(-8.9588e-06 2.9838e-06 1.5261e-05)
(-8.9713e-06 5.9562e-06 1.4446e-05)
(-8.9335e-06 8.8217e-06 1.3158e-05)
(-8.8974e-06 1.131e-05 1.1309e-05)
(-8.9335e-06 1.3159e-05 8.8205e-06)
(-8.9713e-06 1.4446e-05 5.9549e-06)
(-8.9587e-06 1.5262e-05 2.9826e-06)
(-8.9326e-06 1.5573e-05 -7.4839e-10)
(-8.5897e-06 2.2281e-06 1.1233e-05)
(-8.5957e-06 4.417e-06 1.07e-05)
(-8.5642e-06 6.4906e-06 9.7297e-06)
(-8.5379e-06 8.3074e-06 8.3062e-06)
(-8.5642e-06 9.7306e-06 6.4893e-06)
(-8.5957e-06 1.07e-05 4.4158e-06)
(-8.5897e-06 1.1233e-05 2.2269e-06)
(-8.5739e-06 1.1395e-05 -7.486e-10)
(-8.305e-06 1.5969e-06 7.8597e-06)
(-8.3037e-06 3.1347e-06 7.554e-06)
(-8.2785e-06 4.5457e-06 6.8548e-06)
(-8.2617e-06 5.798e-06 5.797e-06)
(-8.2785e-06 6.8554e-06 4.5444e-06)
(-8.3037e-06 7.5541e-06 3.1334e-06)
(-8.305e-06 7.8593e-06 1.5957e-06)
(-8.3004e-06 7.9026e-06 -6.0063e-10)
(-8.0021e-06 1.1446e-06 5.6651e-06)
(-7.9975e-06 2.2505e-06 5.4292e-06)
(-7.9786e-06 3.2882e-06 4.9447e-06)
(-7.9669e-06 4.206e-06 4.206e-06)
(-7.9786e-06 4.9451e-06 3.2869e-06)
(-7.9975e-06 5.429e-06 2.2491e-06)
(-8.0021e-06 5.6644e-06 1.1434e-06)
(-8.0004e-06 5.7204e-06 -1.1584e-09)
(-7.5284e-06 8.5543e-07 4.3792e-06)
(-7.53e-06 1.712e-06 4.148e-06)
(-7.5106e-06 2.5517e-06 3.8001e-06)
(-7.5015e-06 3.283e-06 3.2822e-06)
(-7.5106e-06 3.8003e-06 2.5504e-06)
(-7.5301e-06 4.1475e-06 1.7106e-06)
(-7.5284e-06 4.3782e-06 8.5418e-07)
(-7.5267e-06 4.4757e-06 -4.5616e-10)
(-6.8257e-06 6.849e-07 3.5498e-06)
(-6.8324e-06 1.3812e-06 3.3454e-06)
(-6.813e-06 2.07e-06 3.0688e-06)
(-6.7976e-06 2.6613e-06 2.6607e-06)
(-6.813e-06 3.0689e-06 2.0689e-06)
(-6.8324e-06 3.3448e-06 1.3799e-06)
(-6.8258e-06 3.5487e-06 6.8374e-07)
(-6.8158e-06 3.6383e-06 -2.9775e-10)
(-6.0427e-06 5.4348e-07 2.812e-06)
(-6.0543e-06 1.0969e-06 2.6466e-06)
(-6.0341e-06 1.644e-06 2.4306e-06)
(-6.0119e-06 2.1124e-06 2.1118e-06)
(-6.0342e-06 2.4307e-06 1.643e-06)
(-6.0544e-06 2.646e-06 1.0957e-06)
(-6.0429e-06 2.8108e-06 5.4246e-07)
(-6.0246e-06 2.8848e-06 -2.727e-10)
(-5.3568e-06 4.0711e-07 2.0759e-06)
(-5.3667e-06 8.1558e-07 1.968e-06)
(-5.3516e-06 1.2144e-06 1.8045e-06)
(-5.3376e-06 1.5569e-06 1.5564e-06)
(-5.3517e-06 1.8046e-06 1.2136e-06)
(-5.3668e-06 1.9674e-06 8.1461e-07)
(-5.357e-06 2.0748e-06 4.0625e-07)
(-5.3452e-06 2.1148e-06 -2.1553e-10)
(-4.8196e-06 2.7798e-07 1.4101e-06)
(-4.8259e-06 5.5726e-07 1.3486e-06)
(-4.8159e-06 8.2814e-07 1.2353e-06)
(-4.8076e-06 1.059e-06 1.0586e-06)
(-4.816e-06 1.2353e-06 8.2745e-07)
(-4.8261e-06 1.3481e-06 5.5644e-07)
(-4.8199e-06 1.409e-06 2.7727e-07)
(-4.8129e-06 1.4234e-06 -1.4207e-10)
(-4.3854e-06 1.9262e-07 9.587e-07)
(-4.3835e-06 3.8265e-07 9.2352e-07)
(-4.3804e-06 5.6435e-07 8.465e-07)
(-4.3792e-06 7.2361e-07 7.232e-07)
(-4.3805e-06 8.4648e-07 5.6378e-07)
(-4.3837e-06 9.2305e-07 3.8197e-07)
(-4.3857e-06 9.5774e-07 1.9204e-07)
(-4.3868e-06 9.6516e-07 -5.6448e-11)
(-3.9901e-06 1.445e-07 7.1581e-07)
(-3.9828e-06 2.8617e-07 6.8636e-07)
(-3.9847e-06 4.2229e-07 6.3436e-07)
(-3.9876e-06 5.4005e-07 5.398e-07)
(-3.9848e-06 6.3428e-07 4.2181e-07)
(-3.9831e-06 6.8587e-07 2.8561e-07)
(-3.9905e-06 7.1494e-07 1.4402e-07)
(-3.997e-06 7.2125e-07 -5.5335e-11)
(-3.595e-06 1.196e-07 6.0697e-07)
(-3.592e-06 2.3903e-07 5.7619e-07)
(-3.5909e-06 3.5606e-07 5.2953e-07)
(-3.5917e-06 4.5759e-07 4.574e-07)
(-3.591e-06 5.294e-07 3.5566e-07)
(-3.5923e-06 5.7569e-07 2.3856e-07)
(-3.5954e-06 6.0615e-07 1.1921e-07)
(-3.5979e-06 6.1846e-07 -1.7942e-11)
(-3.22e-06 9.9046e-08 5.154e-07)
(-3.2224e-06 1.9997e-07 4.8506e-07)
(-3.2186e-06 3.008e-07 4.4559e-07)
(-3.2147e-06 3.8905e-07 3.8889e-07)
(-3.2188e-06 4.4543e-07 3.0045e-07)
(-3.2227e-06 4.8454e-07 1.9958e-07)
(-3.2204e-06 5.1459e-07 9.8742e-08)
(-3.2169e-06 5.3103e-07 1.8229e-11)
(-2.8977e-06 7.5853e-08 3.836e-07)
(-2.8991e-06 1.5093e-07 3.6547e-07)
(-2.897e-06 2.2283e-07 3.3345e-07)
(-2.8953e-06 2.858e-07 2.8567e-07)
(-2.8971e-06 3.3329e-07 2.2253e-07)
(-2.8994e-06 3.6498e-07 1.5059e-07)
(-2.8982e-06 3.8281e-07 7.5607e-08)
(-2.8968e-06 3.889e-07 6.0095e-11)
(-2.6345e-06 5.2231e-08 2.4591e-07)
(-2.6338e-06 1.002e-07 2.4091e-07)
(-2.6339e-06 1.4236e-07 2.1808e-07)
(-2.6323e-06 1.7957e-07 1.7947e-07)
(-2.6341e-06 2.1795e-07 1.421e-07)
(-2.6341e-06 2.4049e-07 9.992e-08)
(-2.635e-06 2.4519e-07 5.202e-08)
(-2.6345e-06 2.4041e-07 1.0297e-10)
(-2.4102e-06 3.5282e-08 1.6405e-07)
(-2.4102e-06 6.7173e-08 1.6139e-07)
(-2.4091e-06 9.5199e-08 1.4608e-07)
(-2.4088e-06 1.2132e-07 1.2116e-07)
(-2.4093e-06 1.46e-07 9.4979e-08)
(-2.4106e-06 1.6108e-07 6.6915e-08)
(-2.4107e-06 1.6348e-07 3.5077e-08)
(-2.4109e-06 1.6134e-07 1.938e-10)
(-2.2019e-06 2.6574e-08 1.3235e-07)
(-2.203e-06 5.2315e-08 1.2653e-07)
(-2.2012e-06 7.7222e-08 1.1585e-07)
(-2.2006e-06 9.9679e-08 9.9565e-08)
(-2.2014e-06 1.1582e-07 7.7001e-08)
(-2.2033e-06 1.2631e-07 5.2053e-08)
(-2.2023e-06 1.319e-07 2.6355e-08)
(-2.202e-06 1.3427e-07 2.1357e-10)
(-1.9961e-06 2.3133e-08 1.1908e-07)
(-1.997e-06 4.6336e-08 1.1184e-07)
(-1.9959e-06 6.9661e-08 1.0293e-07)
(-1.9951e-06 8.9821e-08 8.9652e-08)
(-1.996e-06 1.0294e-07 6.9394e-08)
(-1.9972e-06 1.1165e-07 4.6038e-08)
(-1.9965e-06 1.1865e-07 2.2885e-08)
(-1.9959e-06 1.2208e-07 2.7968e-10)
(-1.7996e-06 1.9536e-08 1.0149e-07)
(-1.8006e-06 3.9585e-08 9.4592e-08)
(-1.7995e-06 5.9933e-08 8.7259e-08)
(-1.7978e-06 7.7059e-08 7.6823e-08)
(-1.7996e-06 8.7322e-08 5.9598e-08)
(-1.8009e-06 9.4426e-08 3.9228e-08)
(-1.7999e-06 1.0106e-07 1.924e-08)
(-1.7983e-06 1.0462e-07 3.5165e-10)
(-1.6231e-06 1.5154e-08 7.5949e-08)
(-1.6241e-06 3.011e-08 7.1315e-08)
(-1.6231e-06 4.5109e-08 6.5727e-08)
(-1.6223e-06 5.7617e-08 5.7321e-08)
(-1.6232e-06 6.5852e-08 4.4708e-08)
(-1.6243e-06 7.1226e-08 2.9683e-08)
(-1.6234e-06 7.5636e-08 1.4787e-08)
(-1.6227e-06 7.7596e-08 4.2419e-10)
(-1.4649e-06 1.0554e-08 5.0778e-08)
(-1.4656e-06 2.0554e-08 4.8084e-08)
(-1.4648e-06 3.049e-08 4.4262e-08)
(-1.4644e-06 3.853e-08 3.8176e-08)
(-1.4649e-06 4.4468e-08 3.0032e-08)
(-1.4658e-06 4.812e-08 2.0062e-08)
(-1.4652e-06 5.0651e-08 1.0115e-08)
(-1.4648e-06 5.1284e-08 5.0278e-10)
(-1.3175e-06 8.0983e-09 3.7471e-08)
(-1.3174e-06 1.5383e-08 3.5309e-08)
(-1.3174e-06 2.2632e-08 3.2524e-08)
(-1.3176e-06 2.8721e-08 2.8303e-08)
(-1.3175e-06 3.2821e-08 2.2129e-08)
(-1.3176e-06 3.5476e-08 1.4848e-08)
(-1.3177e-06 3.7512e-08 7.6039e-09)
(-1.318e-06 3.8456e-08 5.7432e-10)
(-1.1776e-06 7.4605e-09 3.3567e-08)
(-1.177e-06 1.3749e-08 3.1075e-08)
(-1.1777e-06 2.0191e-08 2.8866e-08)
(-1.1775e-06 2.5812e-08 2.5342e-08)
(-1.1778e-06 2.9246e-08 1.9652e-08)
(-1.1771e-06 3.1347e-08 1.3183e-08)
(-1.1777e-06 3.3724e-08 6.9251e-09)
(-1.1777e-06 3.524e-08 6.3222e-10)
(-1.0437e-06 7.0505e-09 3.1948e-08)
(-1.0439e-06 1.3251e-08 2.9649e-08)
(-1.0436e-06 1.93e-08 2.7021e-08)
(-1.0435e-06 2.4076e-08 2.3546e-08)
(-1.0436e-06 2.7465e-08 1.873e-08)
(-1.0439e-06 2.9991e-08 1.2661e-08)
(-1.0437e-06 3.2166e-08 6.4843e-09)
(-1.0436e-06 3.3128e-08 6.7439e-10)
(-9.1732e-07 6.4164e-09 3.0472e-08)
(-9.1762e-07 1.2464e-08 2.7678e-08)
(-9.1727e-07 1.867e-08 2.5386e-08)
(-9.1681e-07 2.2944e-08 2.2408e-08)
(-9.1725e-07 2.5855e-08 1.809e-08)
(-9.1759e-07 2.8045e-08 1.1867e-08)
(-9.1727e-07 3.0699e-08 5.8386e-09)
(-9.1682e-07 3.1694e-08 6.766e-10)
(-7.9756e-07 3.9125e-09 2.4387e-08)
(-7.9636e-07 8.9121e-09 1.9283e-08)
(-7.9743e-07 1.5941e-08 1.9203e-08)
(-7.9863e-07 2.0535e-08 2.0018e-08)
(-7.9739e-07 1.9653e-08 1.5382e-08)
(-7.9629e-07 1.9625e-08 8.3367e-09)
(-7.9746e-07 2.459e-08 3.3533e-09)
(-7.9872e-07 2.8586e-08 6.8201e-10)
(-6.7918e-07 -1.7682e-09 -1.245e-09)
(-6.7697e-07 -1.8916e-09 -6.4611e-09)
(-6.7901e-07 1.5614e-09 -2.971e-09)
(-6.8159e-07 3.9463e-09 3.4818e-09)
(-6.7896e-07 -2.5661e-09 1.0567e-09)
(-6.7687e-07 -6.155e-09 -2.4143e-09)
(-6.7904e-07 -1.0685e-09 -2.2768e-09)
(-6.8171e-07 5.406e-09 6.6751e-10)
(-5.6571e-07 -8.2621e-09 -4.0667e-08)
(-5.6504e-07 -1.5886e-08 -3.9943e-08)
(-5.6564e-07 -2.1901e-08 -3.5299e-08)
(-5.6601e-07 -2.8323e-08 -2.8707e-08)
(-5.6557e-07 -3.4956e-08 -2.2323e-08)
(-5.649e-07 -3.9676e-08 -1.6332e-08)
(-5.6551e-07 -4.0516e-08 -8.6917e-09)
(-5.6591e-07 -4.0218e-08 6.2186e-10)
(-4.7829e-07 -7.9434e-09 -4.279e-08)
(-4.7832e-07 -1.5934e-08 -3.9822e-08)
(-4.7832e-07 -2.3706e-08 -3.6344e-08)
(-4.7672e-07 -3.3072e-08 -3.335e-08)
(-4.7822e-07 -3.6095e-08 -2.4029e-08)
(-4.7814e-07 -3.9635e-08 -1.6287e-08)