/*--------------------------------*- C++ -*----------------------------------*\
  =========                 |
  \\      /  F ield         | OpenFOAM: The Open Source CFD Toolbox
   \\    /   O peration     | Website:  https://openfoam.org
    \\  /    A nd           | Version:  8
     \\/     M anipulation  |
\*---------------------------------------------------------------------------*/
FoamFile
{
    version     2.0;
    format      ascii;
    class       volVectorField;
    location    "0.0690000";
    object      cellDisplacement;
}
// * * * * * * * * * * * * * * * * * * * * * * * * * * * * * * * * * * * * * //

dimensions      [0 1 0 0 0 0 0];

internalField   nonuniform List<vector> 
600
(
(5.8965526388455e-28 -1.69051504056486e-06 -1.22376254946437e-13)
(5.71032374314014e-28 -1.69214867750738e-06 -1.15350951237962e-13)
(5.58137507426009e-28 -1.6955017201036e-06 -1.35053056531667e-14)
(5.45395726015851e-28 -1.69994503703717e-06 -1.44948079508708e-13)
(5.32889028128458e-28 -1.70524869859485e-06 1.88937945070724e-13)
(5.20472366206394e-28 -1.71117066323016e-06 5.17189880548984e-13)
(5.08294320378463e-28 -1.71766442104959e-06 3.01347868525143e-13)
(4.96206008776997e-28 -1.72475963813466e-06 1.06068695546127e-13)
(4.84353645103573e-28 -1.73245073694058e-06 2.29740545962107e-13)
(4.7257686427524e-28 -1.74062979840644e-06 1.99196784497045e-13)
(4.61018648589296e-28 -1.74923450635461e-06 -3.57571739502768e-14)
(4.49534978889346e-28 -1.75826417180748e-06 -4.81686628412665e-15)
(4.38269309238293e-28 -1.7677681251188e-06 1.8430684086451e-13)
(4.27073635784984e-28 -1.7777150698645e-06 -1.33130527856527e-13)
(4.16085515561601e-28 -1.78802697515375e-06 -3.0474367919317e-13)
(4.05166918132089e-28 -1.79869178777323e-06 4.38078221387085e-14)
(3.94455409971128e-28 -1.80977466259956e-06 2.85568474058496e-14)
(3.83814599641855e-28 -1.82128983496562e-06 -2.71205900980219e-13)
(3.7337430530715e-28 -1.83317079946474e-06 -2.53419598830255e-13)
(3.63003435843679e-28 -1.84541076055107e-06 1.69012124657326e-13)
(3.52833675063139e-28 -1.85805718624421e-06 1.05497155185536e-13)
(3.42738447545639e-28 -1.87115781722158e-06 3.31175673514686e-14)
(3.3283951886837e-28 -1.88468475533946e-06 -1.09625868388344e-14)
(3.23013388993888e-28 -1.89861727426506e-06 -7.65893398137611e-14)
(3.1338559613576e-28 -1.9129896048602e-06 2.57661088070212e-13)
(3.03838114018483e-28 -1.92791844537718e-06 5.05193463922361e-13)
(2.94485979773631e-28 -1.94342771849983e-06 2.65048293441764e-13)
(2.85213167476324e-28 -1.9594642992604e-06 -5.35352995168894e-15)
(2.76136630047366e-28 -1.97605484565639e-06 -3.9732402518578e-14)
(2.67149196841755e-28 -1.99337184763839e-06 -2.25101231965816e-14)
(2.58359435403362e-28 -2.011515475263e-06 1.59979484594492e-14)
(2.49657654611565e-28 -2.03043684680319e-06 -3.72304572429115e-15)
(2.41151459914373e-28 -2.05018018128762e-06 -1.52594245966784e-13)
(2.3274626202954e-28 -2.07093835274105e-06 -1.5069683967983e-13)
(2.24543917347114e-28 -2.09297358749394e-06 -1.71259642739293e-13)
(2.1644149258742e-28 -2.11634936614088e-06 -1.9974298818826e-13)
(2.08538151831937e-28 -2.14109189126296e-06 1.21129636856998e-14)
(2.00750302287026e-28 -2.16739112463009e-06 -2.6526698352163e-13)
(1.93174401085913e-28 -2.19581860471888e-06 -1.58954212479053e-13)
(1.85715286379466e-28 -2.22664978750501e-06 3.04285069604538e-13)
(1.78461681617773e-28 -2.25984705200546e-06 2.54052034715148e-13)
(1.71341220463519e-28 -2.29565700252869e-06 -2.36636094343414e-13)
(1.64445292821621e-28 -2.33509982956928e-06 -4.75354566503119e-13)
(1.57689576512845e-28 -2.378876866267e-06 4.81252517722885e-14)
(1.51149361814672e-28 -2.42691474234258e-06 5.05070709722543e-14)
(1.44761540335705e-28 -2.47955755251505e-06 -1.23827683089302e-13)
(1.38615245144237e-28 -2.53815934002936e-06 -1.30633206895504e-13)
(1.32637929738972e-28 -2.60431350077193e-06 4.36460499777045e-14)
(1.26886819215021e-28 -2.67833474467169e-06 1.15453812003069e-13)
(1.21305425754706e-28 -2.76049866429608e-06 1.24020090985364e-13)
(1.15986699684479e-28 -2.85232616565781e-06 1.93531884325733e-13)
(1.10872057601582e-28 -2.95721679084722e-06 -8.77084868772142e-14)
(1.0599409975051e-28 -3.07648626391484e-06 -3.09959984217882e-13)
(1.01297323543661e-28 -3.20992678087844e-06 -2.18630416118894e-13)
(9.68880228347234e-29 -3.35904411323049e-06 3.32949456882766e-13)
(9.2703046570328e-29 -3.53109462944607e-06 5.04579651767677e-13)
(8.87896443882206e-29 -3.73580246779515e-06 5.11590720489972e-13)
(8.52012827345324e-29 -3.98220953933909e-06 1.78845323008877e-13)
(8.21266995715059e-29 -4.28133324427608e-06 -1.78451500582756e-13)
(7.9777124650915e-29 -4.66636270797773e-06 -8.3354785751067e-14)
(7.81815352260532e-29 -5.16432286534461e-06 -2.62414502218846e-13)
(7.73175513074439e-29 -5.77200353297267e-06 -2.05255181909759e-13)
(7.75001651837381e-29 -6.48830558472904e-06 -2.94934544035955e-13)
(7.87344794185885e-29 -7.33509690490338e-06 -3.78609635560092e-13)
(8.08320126575785e-29 -8.32250827226339e-06 1.15682977863639e-13)
(8.36567996542104e-29 -9.42911842783575e-06 1.98486836909612e-13)
(8.7614059097214e-29 -1.0642164288935e-05 -3.60951385632065e-15)
(9.25825656795661e-29 -1.19748389534638e-05 -7.33151262317284e-14)
(9.83413475514769e-29 -1.34213962486765e-05 5.3063580372274e-14)
(1.04799061566174e-28 -1.49485586827983e-05 2.92898059768162e-13)
(1.1230997395341e-28 -1.65386199855343e-05 5.42059212753891e-14)
(1.20360504533679e-28 -1.81854380645537e-05 -5.83129889364944e-13)
(1.28780162011975e-28 -1.98646123043077e-05 -4.75827780776421e-13)
(1.37461345336417e-28 -2.15465584553387e-05 1.54885893504093e-13)
(1.46021570955589e-28 -2.32170271801729e-05 -1.59579065545354e-13)
(1.53969302490698e-28 -2.48444288430822e-05 -1.35923069372368e-13)
(1.6137408666735e-28 -2.64042593691954e-05 9.00921960989409e-16)
(1.67497750898617e-28 -2.78906137628744e-05 -9.55627975650225e-14)
(1.71631124497236e-28 -2.92789345704094e-05 4.29959736506188e-13)
(1.73936872501895e-28 -3.05357615993812e-05 3.3468774862033e-13)
(1.74554222030672e-28 -3.1658330384381e-05 -1.39973159989533e-13)
(1.72004801893452e-28 -3.26541103945662e-05 -5.97401222616675e-14)
(1.66640629423886e-28 -3.34868439388753e-05 1.46734644396776e-13)
(1.59422279484158e-28 -3.41472100893964e-05 -1.60546723650468e-13)
(1.4994149040245e-28 -3.46648791317964e-05 -2.59050547495242e-13)
(1.38330814105495e-28 -3.50403382420081e-05 -2.16836167942519e-14)
(1.3133253964316e-28 -3.52689377537188e-05 4.25597670796002e-13)
(1.33042145733317e-28 -3.53836143909434e-05 6.04403015040841e-13)
(1.33161371105235e-28 -3.54187164996153e-05 1.80566484968089e-13)
(1.3210930171946e-28 -3.53804675763902e-05 -1.54277235263141e-13)
(1.3067516209262e-28 -3.52889316379758e-05 -9.69557330086323e-14)
(1.288301125514e-28 -3.51689596206867e-05 2.38260184882739e-13)
(1.26654177097819e-28 -3.50281962287322e-05 2.78285293843777e-13)
(1.24398459784016e-28 -3.48736484228099e-05 9.61635998659541e-14)
(1.22092612160313e-28 -3.47127436517805e-05 4.14949414954916e-14)
(1.19784383541863e-28 -3.45494389890986e-05 -2.2012912651397e-13)
(1.17517852297473e-28 -3.43875462636323e-05 -2.87710747041825e-15)
(1.15301937343605e-28 -3.42310644591678e-05 2.77020874099528e-13)
(1.13110393359635e-28 -3.40835810790092e-05 1.50840309768935e-13)
(1.10726263330301e-28 -3.39616756339889e-05 1.94280863597e-14)
(1.61733125987537e-27 -4.74068923896687e-06 -3.5858786448058e-13)
(1.56942001534001e-27 -4.73947372273847e-06 -3.38859575355634e-13)
(1.53423279323195e-27 -4.73989280966421e-06 -3.90571101432987e-14)
(1.49951086316332e-27 -4.74118338825007e-06 -4.26940407985454e-13)
(1.46532276438471e-27 -4.74316940024558e-06 5.50266587751598e-13)
(1.43142193614114e-27 -4.7456528310976e-06 1.51759829578032e-12)
(1.39806163480046e-27 -4.74859772835408e-06 8.86856027717953e-13)
(1.36498780803995e-27 -4.75202950724109e-06 3.11404652262558e-13)
(1.33245135430309e-27 -4.75594466826216e-06 6.74347163974552e-13)
(1.30017327100449e-27 -4.76025435350719e-06 5.86961630517943e-13)
(1.26839946398281e-27 -4.76490805083416e-06 -1.042187291173e-13)
(1.23688324633659e-27 -4.76990564009826e-06 -1.56077789541812e-14)
(1.20587182589986e-27 -4.7752888381047e-06 5.43219401081812e-13)
(1.17510806370503e-27 -4.78103203685888e-06 -3.88947804704958e-13)
(1.14483069014327e-27 -4.78707076549204e-06 -8.9811117649297e-13)
(1.11480255334454e-27 -4.79339537552613e-06 1.27440630857763e-13)
(1.08526058161436e-27 -4.80006051248969e-06 8.60992162504667e-14)
(1.05596940050067e-27 -4.80707835277747e-06 -7.97354647739868e-13)
(1.02715462243818e-27 -4.81439323745857e-06 -7.49241086588203e-13)
(9.98590160885671e-28 -4.82199993240556e-06 4.96470789399605e-13)
(9.70503902085688e-28 -4.82993790696092e-06 3.11664870294954e-13)
(9.42678086122037e-28 -4.83824729513564e-06 9.82344218914924e-14)
(9.15323994081278e-28 -4.84690449026307e-06 -3.17234096448311e-14)
(8.88228110268119e-28 -4.85589215023978e-06 -2.2766968721259e-13)
(8.61610356966964e-28 -4.86523797853238e-06 7.57306236770121e-13)
(8.35266434789139e-28 -4.87503959821472e-06 1.49146779494495e-12)
(8.09396055255635e-28 -4.88531663251521e-06 7.85219732290029e-13)
(7.83798973315526e-28 -4.89602380870155e-06 -1.44074013460115e-14)
(7.58680593592745e-28 -4.90718201217582e-06 -1.17325072774537e-13)
(7.33856018141406e-28 -4.91893518630147e-06 -6.68167416250798e-14)
(7.09514773105135e-28 -4.93136674047017e-06 4.72304799350885e-14)
(6.85466523096437e-28 -4.94443329657964e-06 -1.00890814119921e-14)
(6.61900802814974e-28 -4.9581702076154e-06 -4.5069460307135e-13)
(6.3865553837277e-28 -4.97273617749181e-06 -4.45753979683268e-13)
(6.15909157139741e-28 -4.98835015371967e-06 -5.0660100457879e-13)
(5.93482774360681e-28 -5.00506158640317e-06 -5.92334010296683e-13)
(5.71552455733269e-28 -5.02288855768465e-06 3.64210871515428e-14)
(5.49974861612511e-28 -5.04198255746564e-06 -7.85111836547415e-13)
(5.28920705573394e-28 -5.06282258459353e-06 -4.73869889211006e-13)
(5.08224483060322e-28 -5.08563498644698e-06 9.00110003394666e-13)
(4.88044108760148e-28 -5.11037843552854e-06 7.5594261507895e-13)
(4.68257180466012e-28 -5.1372442265653e-06 -6.98427461929964e-13)
(4.49026092328748e-28 -5.16708720256834e-06 -1.41176749310968e-12)
(4.30204947642966e-28 -5.20049245773049e-06 1.40506099201699e-13)
(4.11928731031639e-28 -5.23737546024867e-06 1.50777731351859e-13)
(3.94092158285114e-28 -5.27800524763442e-06 -3.66863572974889e-13)
(3.76853938676851e-28 -5.32350342897663e-06 -3.8882005670584e-13)
(3.60089073692958e-28 -5.37520937425055e-06 1.28537894619243e-13)
(3.43901469854334e-28 -5.43335494313577e-06 3.42735702644395e-13)
(3.28198413258698e-28 -5.49813570210859e-06 3.68280644782348e-13)
(3.13145148468332e-28 -5.57077893566947e-06 5.76547330921153e-13)
(2.98642657765026e-28 -5.65415763523478e-06 -2.58479972150666e-13)
(2.8475036103906e-28 -5.74934472726232e-06 -9.2161067881795e-13)
(2.71379263806587e-28 -5.85609209790321e-06 -6.53844014267495e-13)
(2.58715469725399e-28 -5.97552490092545e-06 9.8772236765235e-13)
(2.46656459456152e-28 -6.11363707381129e-06 1.50180782662706e-12)
(2.35290420539149e-28 -6.27847216407658e-06 1.52580723470808e-12)
(2.24776918206867e-28 -6.4773539785514e-06 5.36685493197711e-13)
(2.15454531287963e-28 -6.71870152615504e-06 -5.30739796039962e-13)
(2.07757345013607e-28 -7.03029323409755e-06 -2.48159745922171e-13)
(2.0178968670581e-28 -7.43510116033372e-06 -7.82292890508442e-13)
(1.97568171045134e-28 -7.92955391047328e-06 -6.1237576719378e-13)
(1.95529964573994e-28 -8.5122147029517e-06 -8.79351595085937e-13)
(1.95764017832842e-28 -9.20159927756806e-06 -1.13417241144914e-12)
(1.97956660970243e-28 -1.00068114919966e-05 3.40390508672906e-13)
(2.01834238687869e-28 -1.09091762893916e-05 5.93696424332674e-13)
(2.07741020426165e-28 -1.18978694490485e-05 -8.19468153501876e-15)
(2.15799426984162e-28 -1.29840431121976e-05 -2.19471071574128e-13)
(2.25609211199791e-28 -1.41636014714092e-05 1.54418962792431e-13)
(2.36912284498295e-28 -1.54083009541249e-05 8.73583496098145e-13)
(2.49879451598616e-28 -1.6703644844004e-05 1.71464184262259e-13)
(2.64388994589747e-28 -1.80443833351876e-05 -1.73146346428314e-12)
(2.79758343188274e-28 -1.94109319206621e-05 -1.42540959856274e-12)
(2.95545038373098e-28 -2.07787108133267e-05 4.57289934111364e-13)
(3.11622804527655e-28 -2.21355947963839e-05 -4.71102182709996e-13)
(3.2667519884523e-28 -2.34566850243883e-05 -4.05642917902616e-13)
(3.40567007977872e-28 -2.47217796026905e-05 2.25564070282336e-15)
(3.52368649331763e-28 -2.59249567242281e-05 -2.88206509780932e-13)
(3.60972438452193e-28 -2.70468053410269e-05 1.26988698296033e-12)
(3.6545600601299e-28 -2.80621423895844e-05 9.96787110556374e-13)
(3.65918801910198e-28 -2.89673097657188e-05 -4.10947650172619e-13)
(3.61651410277126e-28 -2.97649770367546e-05 -1.79117740189405e-13)
(3.50885040867664e-28 -3.04312896040989e-05 4.34347630279691e-13)
(3.35597090220862e-28 -3.09595285268225e-05 -4.7175587157668e-13)
(3.15711240413097e-28 -3.13678247285357e-05 -7.65865358399266e-13)
(2.92098482073888e-28 -3.16599193961321e-05 -6.75438499153659e-14)
(2.7783410532077e-28 -3.18408698661471e-05 1.25429574964578e-12)
(2.81708538953728e-28 -3.19358887343967e-05 1.78593380210214e-12)
(2.82538481008005e-28 -3.19656460471786e-05 5.35137087756383e-13)
(2.80952374689691e-28 -3.19385943618954e-05 -4.5564572653398e-13)
(2.78204599914591e-28 -3.18695787863214e-05 -2.87373448409625e-13)
(2.74524782038285e-28 -3.17755722913947e-05 7.04620753177119e-13)
(2.70167416318552e-28 -3.16645719413335e-05 8.23830590588944e-13)
(2.65559305445098e-28 -3.15424732694281e-05 2.84862461872561e-13)
(2.60796798489162e-28 -3.14147690604323e-05 1.23041294205409e-13)
(2.56032581518827e-28 -3.1285019750812e-05 -6.52043569944238e-13)
(2.51340621724284e-28 -3.1156416927493e-05 -8.56854774479813e-15)
(2.4679878263411e-28 -3.10323878255665e-05 8.20931866885869e-13)
(2.42456568472568e-28 -3.09178795430903e-05 4.47164697913275e-13)
(2.3821086632345e-28 -3.08293948344356e-05 5.75984528430308e-14)
(2.32062173958039e-27 -7.70726290857543e-06 -5.8846707171232e-13)
(2.26114187226106e-27 -7.70444230496445e-06 -5.58701184241647e-13)
(2.21091068373686e-27 -7.70306341193539e-06 -6.23361096476972e-14)
(2.16135169010477e-27 -7.70234963150888e-06 -7.06988940886074e-13)
(2.11250026438121e-27 -7.70216886011732e-06 8.90801447244262e-13)
(2.06403477241129e-27 -7.70236913352012e-06 2.4926119743171e-12)
(2.01628809456716e-27 -7.70292255392361e-06 1.4644092614692e-12)
(1.96892789350253e-27 -7.70384866239123e-06 5.11594564520411e-13)
(1.92228595358634e-27 -7.70514492490753e-06 1.10705098567296e-12)
(1.87600078651811e-27 -7.70674338158956e-06 9.70414019334852e-13)
(1.83039680553379e-27 -7.70860523722727e-06 -1.68670598786764e-13)
(1.78515134169626e-27 -7.71073045274064e-06 -3.02296846806633e-14)
(1.74058953057019e-27 -7.71315113529837e-06 8.97526213741944e-13)
(1.69637605950065e-27 -7.71584785302818e-06 -6.31736395038462e-13)
(1.65282683945709e-27 -7.71877123269967e-06 -1.48251415253513e-12)
(1.60963171328907e-27 -7.7219138936479e-06 2.0523394009409e-13)
(1.56710119113321e-27 -7.72531790296437e-06 1.47972744629806e-13)
(1.52492758700509e-27 -7.72899285647418e-06 -1.30891790965474e-12)
(1.48341017874461e-27 -7.73289621276863e-06 -1.24223399897508e-12)
(1.44225277137266e-27 -7.73702399768026e-06 8.13243048570884e-13)
(1.40175394769817e-27 -7.7414067096799e-06 5.15589933295514e-13)
(1.36162843566274e-27 -7.74607544355055e-06 1.63628547814312e-13)
(1.32215666471321e-27 -7.75101232404993e-06 -5.04565501082313e-14)
(1.28305846447016e-27 -7.75620417048974e-06 -3.80478711247411e-13)
(1.24462333786191e-27 -7.761672531548e-06 1.23974827301211e-12)
(1.20658210193184e-27 -7.76749277412716e-06 2.46038395958577e-12)
(1.16919953232843e-27 -7.77368041644002e-06 1.30275755194517e-12)
(1.13221338808213e-27 -7.78020095034457e-06 -1.9777319829415e-14)
(1.09589451634763e-27 -7.78707070543367e-06 -1.93425892864393e-13)
(1.0599983378653e-27 -7.79440086790726e-06 -1.11114864609228e-13)
(1.02477634206024e-27 -7.80225627689449e-06 7.77990337167403e-14)
(9.89979354246064e-28 -7.81060410951892e-06 -1.40378129213958e-14)
(9.55857837942342e-28 -7.81947198967708e-06 -7.42468905557095e-13)
(9.22196019387014e-28 -7.82898281198114e-06 -7.35914009035258e-13)
(8.89230421241161e-28 -7.83930613331498e-06 -8.36192083103549e-13)
(8.5672779009456e-28 -7.85048111983023e-06 -9.81552517170009e-13)
(8.2492124448094e-28 -7.86252255389231e-06 6.18253276479271e-14)
(7.93618360691846e-28 -7.87554819750171e-06 -1.29610356081817e-12)
(7.6304528270908e-28 -7.88992861556582e-06 -7.91204823533042e-13)
(7.32987090902382e-28 -7.90584028816384e-06 1.48392290077807e-12)
(7.03652828919731e-28 -7.92325301859164e-06 1.25753448114649e-12)
(6.74878080517875e-28 -7.94231592043053e-06 -1.14678039094445e-12)
(6.4687662749042e-28 -7.96369047791228e-06 -2.3402521927177e-12)
(6.19459575635799e-28 -7.98783148939076e-06 2.26865279742336e-13)
(5.92806960044194e-28 -8.01467695896716e-06 2.51758072210667e-13)
(5.66778153970897e-28 -8.04443695460843e-06 -6.0545452886199e-13)
(5.41579286640187e-28 -8.07798061351296e-06 -6.45938295217771e-13)
(5.17048522888613e-28 -8.11634694295169e-06 2.10219103660909e-13)
(4.93328242262492e-28 -8.15972097263777e-06 5.66935271483261e-13)
(4.70296717738322e-28 -8.20825837999507e-06 6.09302067987203e-13)
(4.48163662032085e-28 -8.26291207237938e-06 9.58040476554907e-13)
(4.26800132171607e-28 -8.32590808202143e-06 -4.23106472038194e-13)
(4.06295493575743e-28 -8.39808595184084e-06 -1.52672621694838e-12)
(3.86537125285349e-28 -8.47926302530963e-06 -1.09121325550274e-12)
(3.67754784940709e-28 -8.57031762726752e-06 1.63091316471117e-12)
(3.49817252379707e-28 -8.67589496986595e-06 2.48971874671224e-12)
(3.32859509109708e-28 -8.80223654703775e-06 2.53544714141996e-12)
(3.17077823446263e-28 -8.95504244974193e-06 8.98001341333657e-13)
(3.02886018759092e-28 -9.14086165527203e-06 -8.78675221632245e-13)
(2.90788152326812e-28 -9.38118817041607e-06 -4.11206371742703e-13)
(2.80939574692056e-28 -9.69384792180116e-06 -1.29835289778056e-12)
(2.7337335223038e-28 -1.00761629860806e-05 -1.0170232835182e-12)
(2.68601500076266e-28 -1.05269980383857e-05 -1.45931677903205e-12)
(2.66664892195745e-28 -1.10606236565768e-05 -1.89041737196278e-12)
(2.67254340341922e-28 -1.16841147142793e-05 5.5838338419989e-13)
(2.70008148942815e-28 -1.23830464239981e-05 9.88086547624674e-13)
(2.7533250167637e-28 -1.3148900605671e-05 -9.92387892941234e-15)
(2.83221668339935e-28 -1.39901957769638e-05 -3.6543131795497e-13)
(2.93335140249306e-28 -1.49037736186994e-05 2.51122464517961e-13)
(3.05297453983705e-28 -1.58677137968779e-05 1.45008583968655e-12)
(3.19330155310529e-28 -1.6870605270905e-05 2.97699875469158e-13)
(3.35081428263128e-28 -1.79082883267624e-05 -2.86359527597965e-12)
(3.52007504093853e-28 -1.89655690194111e-05 -2.37363407557816e-12)
(3.69450588185805e-28 -2.00233056998816e-05 7.52809469097386e-13)
(3.87181831138188e-28 -2.10720303391213e-05 -7.75412288198659e-13)
(4.03796935167689e-28 -2.20924767308166e-05 -6.73221884955536e-13)
(4.19062451902427e-28 -2.30689182638429e-05 3.23542046162899e-15)
(4.31791238096079e-28 -2.39967049779116e-05 -4.82146521517284e-13)
(4.40805361589231e-28 -2.48609319016398e-05 2.08893803380496e-12)
(4.45112864098374e-28 -2.56422250067098e-05 1.65073803365044e-12)
(4.44538381637635e-28 -2.63375846463798e-05 -6.72198642803512e-13)
(4.38231520877157e-28 -2.69489294197457e-05 -2.98064428309342e-13)
(4.24717291227856e-28 -2.74582430015028e-05 7.15185653774577e-13)
(4.05600820731922e-28 -2.7860324960187e-05 -7.7110081999195e-13)
(3.80937226433825e-28 -2.8168763275423e-05 -1.2587123662016e-12)
(3.52171088851851e-28 -2.83874734788688e-05 -1.16488534338722e-13)
(3.3541302994693e-28 -2.85223549659797e-05 2.05455462934339e-12)
(3.40024840767814e-28 -2.85940425468628e-05 2.93196175753533e-12)
(3.41256752325374e-28 -2.86170444572593e-05 8.80645107892113e-13)
(3.3972072964665e-28 -2.85972103988443e-05 -7.47717088708787e-13)
(3.36645528232693e-28 -2.85455525776601e-05 -4.73191668860835e-13)
(3.32440908886432e-28 -2.84746424252104e-05 1.15780999221887e-12)
(3.27428447508815e-28 -2.8390655582763e-05 1.35503946970954e-12)
(3.22072934528179e-28 -2.82981521423871e-05 4.68843300545092e-13)
(3.1651230584227e-28 -2.82012911079228e-05 2.02773779048965e-13)
(3.10943605606903e-28 -2.81028183278257e-05 -1.07314795120267e-12)
(3.05450786710092e-28 -2.80052145684517e-05 -1.431154446494e-14)
(3.00172824557589e-28 -2.79112066315342e-05 1.35171557658856e-12)
(2.95225205884273e-28 -2.78247872129447e-05 7.36735861880992e-13)
(2.90765815837459e-28 -2.7757899472633e-05 9.50812863492798e-14)
(2.52397472392764e-27 -1.05938268620924e-05 -8.1234614919963e-13)
(2.47487298937986e-27 -1.0590602707699e-05 -7.76667648250856e-13)
(2.4205206645414e-27 -1.05884588727169e-05 -8.2312254176215e-14)
(2.36692196831048e-27 -1.05867833746776e-05 -9.88675594725163e-13)
(2.31401098061561e-27 -1.05854823038155e-05 1.20366172463978e-12)
(2.2615242600023e-27 -1.05844484254198e-05 3.44318177991612e-12)
(2.20973022422641e-27 -1.05836616628396e-05 2.03888609978838e-12)
(2.15836184271774e-27 -1.05831358194966e-05 7.06898318691002e-13)
(2.10768954959809e-27 -1.05828693418327e-05 1.52758393576618e-12)
(2.05741840299384e-27 -1.05828144962843e-05 1.35303210620663e-12)
(2.00781196021737e-27 -1.05829438226883e-05 -2.27593856827352e-13)
(1.95861036836331e-27 -1.05832572449465e-05 -5.12607193200291e-14)
(1.91007872624147e-27 -1.05837775188975e-05 1.24970014205562e-12)
(1.86194365287444e-27 -1.05844911890222e-05 -8.57156654957762e-13)
(1.8144639118977e-27 -1.05853634789468e-05 -2.06098516230388e-12)
(1.76738924386439e-27 -1.05863890897204e-05 2.74701746188121e-13)
(1.72097196348004e-27 -1.05875977806503e-05 2.17582731050531e-13)
(1.67496299513692e-27 -1.0588996595775e-05 -1.80407230266309e-12)
(1.6296077808072e-27 -1.05905556469841e-05 -1.73729997140957e-12)
(1.58466658000969e-27 -1.05922720772571e-05 1.11708323275031e-12)
(1.54038270871172e-27 -1.05941675070766e-05 7.18515191998116e-13)
(1.49652614487712e-27 -1.0596264138471e-05 2.30286883068438e-13)
(1.45332636028196e-27 -1.05985495624937e-05 -6.61250157236155e-14)
(1.41055621050183e-27 -1.06010145152865e-05 -5.37819719330357e-13)
(1.36845425922964e-27 -1.06036743062987e-05 1.70051664859244e-12)
(1.32680215349291e-27 -1.06065824296306e-05 3.41283145247825e-12)
(1.2858165008828e-27 -1.0609750243651e-05 1.82191382414128e-12)
(1.24528535649995e-27 -1.06131535432969e-05 -1.93439828970481e-14)
(1.20543210144287e-27 -1.0616803893299e-05 -2.67949665068013e-13)
(1.16605915106759e-27 -1.06207802008014e-05 -1.55860477951151e-13)
(1.12737337877541e-27 -1.06251289127129e-05 1.076087287142e-13)
(1.08917250234933e-27 -1.0629827179111e-05 -1.42220382780194e-14)
(1.05166312098327e-27 -1.0634894651694e-05 -1.02710233032433e-12)
(1.01467225523687e-27 -1.0640418658504e-05 -1.02108395180375e-12)
(9.78395177018073e-28 -1.06465199687543e-05 -1.15973096204573e-12)
(9.42642551924576e-28 -1.06532271216488e-05 -1.36894823364259e-12)
(9.076075477173e-28 -1.06605510002528e-05 8.91841597470367e-14)
(8.73135778003356e-28 -1.06685753497753e-05 -1.7974900634871e-12)
(8.39416051959931e-28 -1.06775637105369e-05 -1.11481077333458e-12)
(8.06274049966082e-28 -1.0687642764556e-05 2.05356905832664e-12)
(7.73882572548498e-28 -1.06987920222755e-05 1.76233105167666e-12)
(7.42111545923684e-28 -1.0711117522934e-05 -1.57758417990059e-12)
(7.11140662698401e-28 -1.07250897258525e-05 -3.26289431707898e-12)
(6.80817869079044e-28 -1.07410340568795e-05 3.04612222711591e-13)
(6.51292159434251e-28 -1.0758908360663e-05 3.54428189536933e-13)
(6.2245341282762e-28 -1.0778862284368e-05 -8.38721760349432e-13)
(5.94476438613476e-28 -1.08015144490548e-05 -9.02892671462577e-13)
(5.67231882380767e-28 -1.08276064287486e-05 2.87523892222582e-13)
(5.40838196257108e-28 -1.08572734832936e-05 7.8767177210091e-13)
(5.15200232057551e-28 -1.08906277459486e-05 8.46641593461968e-13)
(4.90498114679124e-28 -1.09283476456641e-05 1.33900164924565e-12)
(4.66630850429742e-28 -1.09720199303153e-05 -5.7941539774343e-13)
(4.43672507844538e-28 -1.10222488365314e-05 -2.12468543546232e-12)
(4.21533957533447e-28 -1.10789080844912e-05 -1.53329367654042e-12)
(4.0041549604304e-28 -1.11426218319379e-05 2.25968330804317e-12)
(3.80217830919322e-28 -1.12166963285221e-05 3.46715670167312e-12)
(3.61058669679103e-28 -1.13055824209296e-05 3.54099500370093e-12)
(3.43126365398148e-28 -1.14133489702889e-05 1.26467913670072e-12)
(3.26813331060127e-28 -1.154465461723e-05 -1.22113994861251e-12)
(3.12597865082067e-28 -1.17147997129634e-05 -5.71881276386418e-13)
(3.00650139039035e-28 -1.19365228133956e-05 -1.80938984713784e-12)
(2.91013102163538e-28 -1.2207952389141e-05 -1.41832048172831e-12)
(2.84143182741389e-28 -1.25282450471946e-05 -2.03315341321925e-12)
(2.8008365748241e-28 -1.29075298772249e-05 -2.64610589391385e-12)
(2.78565284069057e-28 -1.33508736512672e-05 7.68514182465265e-13)
(2.79225718202247e-28 -1.38480045704758e-05 1.38101112836501e-12)
(2.82399832861874e-28 -1.43927612775217e-05 -8.64314516694156e-15)
(2.8805664657438e-28 -1.49911334814762e-05 -5.10934940715286e-13)
(2.95908564976629e-28 -1.56408816410861e-05 3.42877491131235e-13)
(3.05562588706917e-28 -1.63263626868099e-05 2.02195127756336e-12)
(3.17188530479072e-28 -1.70393383676259e-05 4.32928739792108e-13)
(3.30415122838224e-28 -1.77767883958437e-05 -3.9796839346503e-12)
(3.44790945985723e-28 -1.85278901021634e-05 -3.32144021629851e-12)
(3.59660552140571e-28 -1.92789688066497e-05 1.04205402949769e-12)
(3.74755948137803e-28 -2.0023255964279e-05 -1.07334717077003e-12)
(3.8885825019267e-28 -2.07470654068595e-05 -9.39561433928683e-13)
(4.01686523138043e-28 -2.14391785919631e-05 3.90360422819469e-15)
(4.12150725811665e-28 -2.20962932973929e-05 -6.78520452031065e-13)
(4.1921239854541e-28 -2.27079007830723e-05 2.8919945076502e-12)
(4.21995180560021e-28 -2.32602637713149e-05 2.30108772183476e-12)
(4.20240288026747e-28 -2.37512132939781e-05 -9.25294029015656e-13)
(4.13178742843124e-28 -2.41821471677699e-05 -4.17892565666724e-13)
(3.99719223437031e-28 -2.4540349723895e-05 9.91985131098033e-13)
(3.81017217928932e-28 -2.48220718305096e-05 -1.06079168742033e-12)
(3.57209694136342e-28 -2.50370030502379e-05 -1.74252585664506e-12)
(3.29981767744341e-28 -2.51885617592353e-05 -1.69898967693048e-13)
(3.15050368779557e-28 -2.52811339335353e-05 2.83455887476934e-12)
(3.19222261854703e-28 -2.53302092890223e-05 4.05206039470215e-12)
(3.20452774949969e-28 -2.53461780524784e-05 1.2198049445565e-12)
(3.19201203837722e-28 -2.53324211140509e-05 -1.0326510479118e-12)
(3.16472570829494e-28 -2.52964600593414e-05 -6.55621220698687e-13)
(3.12694871675366e-28 -2.52470251499267e-05 1.6004324912861e-12)
(3.08174816030968e-28 -2.51884162569963e-05 1.87488273375206e-12)
(3.03315535351923e-28 -2.51238251079381e-05 6.49092547806181e-13)
(2.98257934048461e-28 -2.50561618355963e-05 2.81184025004274e-13)
(2.93186159543354e-28 -2.49873495867776e-05 -1.48553292081961e-12)
(2.88180832927407e-28 -2.49191324023561e-05 -2.02505733758412e-14)
(2.83386348780241e-28 -2.48534208498924e-05 1.87177510667229e-12)
(2.78936444184952e-28 -2.47929056716989e-05 1.02066034351915e-12)
(2.75061197902019e-28 -2.4745349818692e-05 1.31826888251042e-13)
(2.10336421749408e-27 -1.34043097822162e-05 -1.0305286020559e-12)
(2.08062676464924e-27 -1.34018255085965e-05 -9.94581051904172e-13)
(2.03558359594943e-27 -1.33998547154241e-05 -9.79097749546324e-14)
(1.99109509324883e-27 -1.33981628581489e-05 -1.27525594260005e-12)
(1.94712315287537e-27 -1.33966914445957e-05 1.4820567438394e-12)
(1.90350017934547e-27 -1.33953768643464e-05 4.37002371928674e-12)
(1.86039143858588e-27 -1.3394206847386e-05 2.61515563820284e-12)
(1.81763348755484e-27 -1.33931895707715e-05 8.97742618665908e-13)
(1.77539569801217e-27 -1.33923243311361e-05 1.93564237439793e-12)
(1.73349376556559e-27 -1.33915830043327e-05 1.73821907971045e-12)
(1.69209152691889e-27 -1.33909492220674e-05 -2.79338922821928e-13)
(1.65102951658534e-27 -1.33904228483219e-05 -8.12644789458401e-14)
(1.61047366301515e-27 -1.33900174508457e-05 1.60201614952548e-12)
(1.57025340639724e-27 -1.33897252772762e-05 -1.06084221771837e-12)
(1.53053133128768e-27 -1.33895257545841e-05 -2.63640859605796e-12)
(1.49115351537447e-27 -1.33894156151544e-05 3.33240972793544e-13)
(1.45227701433112e-27 -1.33894125303879e-05 2.98165466624775e-13)
(1.41374804735771e-27 -1.33895209063408e-05 -2.28089242072308e-12)
(1.37572106528627e-27 -1.33897231251448e-05 -2.2392292500817e-12)
(1.33804803557431e-27 -1.33900174128085e-05 1.40568897372108e-12)
(1.30088088476552e-27 -1.33904166157133e-05 9.2162072108172e-13)
(1.26407848845972e-27 -1.3390934092254e-05 2.9919263472995e-13)
(1.22778478719108e-27 -1.33915626409349e-05 -7.76153311673951e-14)
(1.19185926325362e-27 -1.33922967698167e-05 -7.023380634316e-13)
(1.15645301167126e-27 -1.33931455768014e-05 2.1352142937764e-12)
(1.12143105193418e-27 -1.33941409600726e-05 4.34966386856006e-12)
(1.08692922105413e-27 -1.33952899595157e-05 2.34694526392774e-12)
(1.05281701265741e-27 -1.33965783319902e-05 -1.09300668201701e-14)
(1.01923594274956e-27 -1.33980128691086e-05 -3.40772545580726e-13)
(9.86064670791032e-28 -1.33996405867452e-05 -2.01508658565482e-13)
(9.53433953405043e-28 -1.34014895208638e-05 1.3653129204543e-13)
(9.21218498477445e-28 -1.34035463504573e-05 -9.33222255733287e-15)
(8.89549010209346e-28 -1.34058227416871e-05 -1.30382395560078e-12)
(8.5832053351041e-28 -1.34083707468274e-05 -1.30122321018981e-12)
(8.27657223576333e-28 -1.34112626653004e-05 -1.47695323081171e-12)
(7.97441838666402e-28 -1.34145160516331e-05 -1.7561496222513e-12)
(7.67797124933383e-28 -1.34181376112535e-05 1.19308162683943e-13)
(7.38629375319066e-28 -1.3422177181516e-05 -2.28854414804165e-12)
(7.10060600908925e-28 -1.34267921714828e-05 -1.44852163687692e-12)
(6.81983000029727e-28 -1.343205916385e-05 2.60690635243995e-12)
(6.54505768587272e-28 -1.34379665577377e-05 2.27380976789142e-12)
(6.27551529234925e-28 -1.34445773935347e-05 -1.98676443827013e-12)