/*--------------------------------*- C++ -*----------------------------------*\
| =========                 |                                                 |
| \\      /  F ield         | OpenFOAM: The Open Source CFD Toolbox           |
|  \\    /   O peration     | Version:  4.1                                   |
|   \\  /    A nd           | Web:      www.OpenFOAM.org                      |
|    \\/     M anipulation  |                                                 |
\*---------------------------------------------------------------------------*/
FoamFile
{
    version     2.0;
    format      ascii;
    class       volScalarField;
    location    "0.0053";
    object      p;
}
// * * * * * * * * * * * * * * * * * * * * * * * * * * * * * * * * * * * * * //

dimensions      [0 2 -2 0 0 0 0];

internalField   nonuniform List<scalar> 
1536
(
0.67335
0.54142
0.40746
0.27931
0.16588
0.074972
0.010111
-0.025297
-0.046567
-0.050599
-0.036005
-0.014132
0.67114
0.5408
0.40888
0.2829
0.17123
0.081149
0.015993
-0.0212
-0.041818
-0.046846
-0.033483
-0.013261
0.66987
0.54054
0.40992
0.28535
0.17494
0.08566
0.020993
-0.017096
-0.036763
-0.042036
-0.031481
-0.012644
0.66919
0.54037
0.41039
0.28653
0.17674
0.087826
0.023367
-0.015214
-0.034755
-0.040429
-0.030764
-0.012336
0.66918
0.54036
0.41039
0.28653
0.17674
0.087838
0.023382
-0.015197
-0.03474
-0.040414
-0.030755
-0.012333
0.66985
0.54053
0.40991
0.28536
0.17496
0.085693
0.021038
-0.017047
-0.036716
-0.041993
-0.031454
-0.012635
0.67111
0.54078
0.40887
0.2829
0.17126
0.081204
0.016068
-0.021117
-0.041741
-0.046775
-0.033436
-0.013245
0.67329
0.54139
0.40745
0.27932
0.16593
0.075049
0.010215
-0.02518
-0.046461
-0.050486
-0.035937
-0.014109
0.67119
0.54084
0.40892
0.28292
0.17125
0.081146
0.015979
-0.021221
-0.04184
-0.046872
-0.033501
-0.013267
0.66947
0.54057
0.41048
0.2864
0.17626
0.086799
0.021256
-0.017859
-0.038763
-0.044113
-0.031391
-0.012469
0.66841
0.54053
0.41173
0.28906
0.18017
0.091494
0.026329
-0.0135
-0.034162
-0.039417
-0.029555
-0.011874
0.66785
0.54048
0.41232
0.29033
0.18204
0.093754
0.028765
-0.011595
-0.032406
-0.038369
-0.028867
-0.011597
0.66784
0.54048
0.41231
0.29033
0.18205
0.093764
0.028779
-0.011579
-0.032391
-0.038356
-0.028858
-0.011594
0.66838
0.54051
0.41172
0.28906
0.18018
0.091523
0.026371
-0.013452
-0.034116
-0.039376
-0.029528
-0.011865
0.66942
0.54053
0.41046
0.2864
0.17628
0.086848
0.021326
-0.01778
-0.038688
-0.044044
-0.031346
-0.012453
0.67111
0.54079
0.40888
0.28292
0.17128
0.081219
0.01608
-0.021107
-0.041737
-0.046773
-0.033436
-0.013245
0.66996
0.54062
0.40999
0.2854
0.17496
0.085651
0.02096
-0.017142
-0.036811
-0.042083
-0.031515
-0.012656
0.66845
0.54057
0.41176
0.28908
0.18018
0.091488
0.026312
-0.013523
-0.034186
-0.039438
-0.029571
-0.01188
0.66746
0.54058
0.41301
0.29165
0.18386
0.095813
0.030768
-0.010098
-0.031039
-0.036187
-0.027938
-0.011328
0.66697
0.54059
0.41364
0.29293
0.1857
0.097983
0.033039
-0.0083877
-0.029568
-0.035157
-0.027254
-0.011065
0.66696
0.54058
0.41363
0.29293
0.1857
0.097992
0.033053
-0.0083722
-0.029553
-0.035144
-0.027245
-0.011062
0.66742
0.54055
0.41299
0.29164
0.18387
0.095841
0.030808
-0.010052
-0.030995
-0.036147
-0.027911
-0.011319
0.66839
0.54052
0.41173
0.28907
0.1802
0.091535
0.02638
-0.013445
-0.034112
-0.039373
-0.029527
-0.011864
0.66986
0.54055
0.40994
0.28538
0.17499
0.08572
0.02106
-0.017029
-0.036707
-0.041988
-0.031452
-0.012633
0.66933
0.54049
0.41049
0.2866
0.17676
0.087808
0.023313
-0.015289
-0.034833
-0.0405
-0.030812
-0.012353
0.66795
0.54056
0.41238
0.29037
0.18206
0.09374
0.028729
-0.011644
-0.032456
-0.038411
-0.028897
-0.011607
0.66702
0.54063
0.41367
0.29295
0.1857
0.097975
0.033021
-0.0084121
-0.029593
-0.035179
-0.027268
-0.011069
0.66656
0.54067
0.41432
0.29423
0.18752
0.1001
0.035216
-0.0067724
-0.028177
-0.03402
-0.026575
-0.010812
0.66655
0.54066
0.41431
0.29423
0.18753
0.10011
0.035229
-0.0067571
-0.028163
-0.034008
-0.026566
-0.010809
0.66697
0.54059
0.41365
0.29294
0.18571
0.098002
0.033061
-0.0083659
-0.029549
-0.03514
-0.027242
-0.011061
0.66787
0.5405
0.41234
0.29036
0.18207
0.093785
0.028796
-0.011566
-0.032382
-0.03835
-0.028855
-0.011592
0.66921
0.5404
0.41043
0.28657
0.17678
0.087872
0.023411
-0.015175
-0.034726
-0.040406
-0.030751
-0.012331
0.66937
0.54053
0.41052
0.28661
0.17676
0.087805
0.023304
-0.015303
-0.034847
-0.040508
-0.030817
-0.012354
0.66798
0.5406
0.4124
0.29039
0.18206
0.093738
0.028721
-0.011655
-0.032467
-0.038417
-0.028901
-0.011609
0.66705
0.54066
0.41369
0.29296
0.18571
0.097974
0.033015
-0.0084218
-0.029602
-0.035185
-0.027271
-0.011071
0.66659
0.5407
0.41434
0.29425
0.18753
0.1001
0.035211
-0.0067813
-0.028186
-0.034027
-0.026578
-0.010814
0.66658
0.54068
0.41433
0.29424
0.18753
0.10011
0.035224
-0.006766
-0.028172
-0.034015
-0.02657
-0.010811
0.667
0.54061
0.41366
0.29295
0.18572
0.098001
0.033054
-0.0083754
-0.029559
-0.035149
-0.027248
-0.011063
0.66789
0.54052
0.41235
0.29037
0.18207
0.093783
0.028788
-0.011577
-0.032393
-0.03836
-0.028861
-0.011595
0.66923
0.54041
0.41044
0.28658
0.17678
0.087867
0.023399
-0.01519
-0.034739
-0.040418
-0.030758
-0.012334
0.67008
0.54073
0.41006
0.28544
0.17498
0.085643
0.020931
-0.017187
-0.036852
-0.042105
-0.031528
-0.01266
0.66856
0.54067
0.41183
0.28913
0.1802
0.091484
0.02629
-0.013557
-0.034217
-0.039456
-0.029583
-0.011884
0.66756
0.54067
0.41308
0.29169
0.18388
0.095811
0.030749
-0.010127
-0.031067
-0.036206
-0.027949
-0.011332
0.66707
0.54067
0.4137
0.29297
0.18572
0.097982
0.033023
-0.0084143
-0.029596
-0.035178
-0.027266
-0.011069
0.66705
0.54065
0.41369
0.29297
0.18572
0.097991
0.033036
-0.0083989
-0.029581
-0.035166
-0.027259
-0.011066
0.6675
0.54062
0.41305
0.29168
0.18389
0.095839
0.030789
-0.01008
-0.031024
-0.036171
-0.027927
-0.011325
0.66846
0.54058
0.41178
0.28911
0.18021
0.091529
0.026358
-0.013477
-0.034144
-0.039402
-0.029545
-0.011871
0.66993
0.5406
0.40998
0.28541
0.175
0.085707
0.021028
-0.017071
-0.036745
-0.042022
-0.031472
-0.012641
0.67139
0.54101
0.40904
0.283
0.17127
0.081134
0.015932
-0.021291
-0.041902
-0.046906
-0.033523
-0.013273
0.66965
0.54073
0.4106
0.28648
0.17629
0.086793
0.021221
-0.017913
-0.038813
-0.044139
-0.031412
-0.012476
0.66858
0.54067
0.41184
0.28913
0.1802
0.091492
0.026299
-0.013546
-0.034208
-0.039447
-0.029576
-0.011881
0.66801
0.54062
0.41242
0.2904
0.18208
0.093754
0.028738
-0.011639
-0.032451
-0.038402
-0.028889
-0.011604
0.66799
0.5406
0.41241
0.2904
0.18208
0.093763
0.028751
-0.011623
-0.032437
-0.038392
-0.028882
-0.011602
0.66851
0.54062
0.41181
0.28912
0.18021
0.09152
0.026341
-0.013499
-0.034165
-0.039416
-0.029555
-0.011874
0.66954
0.54064
0.41054
0.28645
0.17631
0.086841
0.021291
-0.017832
-0.038742
-0.04409
-0.031376
-0.012464
0.67123
0.54088
0.40896
0.28297
0.1713
0.081202
0.016033
-0.02117
-0.041796
-0.046825
-0.033469
-0.013257
0.67363
0.54166
0.40764
0.27942
0.16593
0.074962
0.010055
-0.025384
-0.046647
-0.050633
-0.036031
-0.01414
0.6714
0.54102
0.40905
0.283
0.17128
0.081146
0.015949
-0.021269
-0.041889
-0.046886
-0.033511
-0.01327
0.67011
0.54074
0.41007
0.28545
0.17499
0.085662
0.020956
-0.017158
-0.036829
-0.04208
-0.03151
-0.012653
0.66941
0.54056
0.41054
0.28663
0.17678
0.087829
0.023332
-0.015274
-0.034819
-0.040477
-0.030795
-0.012346
0.66938
0.54053
0.41053
0.28662
0.17679
0.087837
0.023345
-0.015259
-0.034806
-0.040468
-0.030788
-0.012344
0.67003
0.54068
0.41004
0.28544
0.175
0.085689
0.020996
-0.017111
-0.036786
-0.042051
-0.031492
-0.012647
0.67128
0.54092
0.40899
0.28298
0.1713
0.081195
0.016021
-0.021186
-0.041816
-0.04684
-0.033478
-0.01326
0.67346
0.54152
0.40755
0.2794
0.16596
0.075035
0.01016
-0.02526
-0.046541
-0.050563
-0.035984
-0.014126
-0.015955
-0.040716
-0.053051
-0.055725
-0.047197
-0.022369
0.044207
0.13973
0.25974
0.39572
0.53716
0.67482
-0.014669
-0.036466
-0.046765
-0.046833
-0.034749
-0.0078533
0.055153
0.14709
0.26404
0.3969
0.53552
0.67116
-0.014566
-0.036827
-0.047432
-0.04686
-0.033265
-0.0017487
0.060828
0.15255
0.26843
0.39984
0.53704
0.67157
-0.014158
-0.035479
-0.045549
-0.044568
-0.031037
0.00040533
0.062737
0.15427
0.26957
0.40016
0.53657
0.67048
-0.014154
-0.035467
-0.045534
-0.044551
-0.031015
0.00042598
0.062755
0.15428
0.26958
0.40017
0.53658
0.67048
-0.014554
-0.036792
-0.047386
-0.046801
-0.033195
-0.0016814
0.060882
0.15259
0.26846
0.39987
0.53707
0.67159
-0.014648
-0.036404
-0.046686
-0.046735
-0.034633
-0.0077458
0.055236
0.14715
0.26408
0.39693
0.53555
0.67118
-0.015925
-0.040629
-0.052894
-0.055592
-0.047036
-0.022233
0.044311
0.1398
0.25979
0.39575
0.53718
0.67483
-0.025408
-0.074122
-0.11489
-0.14176
-0.14355
-0.10806
-0.032768
0.088514
0.23258
0.39476
0.55776
0.70925
-0.024388
-0.070967
-0.10901
-0.13409
-0.13565
-0.10048
-0.024745
0.091814
0.23411
0.39411
0.55542
0.70603
-0.024054
-0.069827
-0.10692
-0.13099
-0.13066
-0.095346
-0.01987
0.095111
0.23637
0.39516
0.55544
0.70539
-0.023765
-0.068842
-0.10529
-0.12878
-0.12796
-0.092946
-0.017899
0.096603
0.23749
0.39563
0.55521
0.70456
-0.023758
-0.068822
-0.10526
-0.12874
-0.12791
-0.092898
-0.017863
0.096635
0.23753
0.39568
0.55526
0.7046
-0.024032
-0.069766
-0.10682
-0.13087
-0.13053
-0.095221
-0.019772
0.095204
0.23646
0.39527
0.55556
0.70551
-0.024352
-0.07087
-0.10886
-0.13389
-0.13545
-0.1003
-0.024603
0.091951
0.23425
0.39426
0.55559
0.70619
-0.02536
-0.073991
-0.1147
-0.14151
-0.14328
-0.10783
-0.032593
0.088661
0.23271
0.39491
0.55792
0.70939
-0.015925
-0.040629
-0.052893
-0.055587
-0.047031
-0.022221
0.044323
0.13981
0.25979
0.39575
0.53718
0.67482
-0.014648
-0.036403
-0.046684
-0.046731
-0.034619
-0.0077268
0.055265
0.14718
0.2641
0.39694
0.53555
0.67117
-0.014554
-0.03679
-0.04738
-0.046788
-0.03317
-0.001645
0.060929
0.15264
0.2685
0.3999
0.53709
0.67159
-0.014152
-0.035464
-0.045525
-0.044527
-0.030977
0.0004777
0.062819
0.15435
0.26965
0.40023
0.53663
0.67052
-0.014156
-0.035473
-0.045537
-0.04454
-0.03099
0.00046509
0.062814
0.15436
0.26966
0.40025
0.53665
0.67054
-0.014563
-0.036818
-0.047418
-0.04683
-0.033219
-0.0016857
0.060912
0.15265
0.26854
0.39995
0.53715
0.67167
-0.014664
-0.036452
-0.046751
-0.046805
-0.034706
-0.0077949
0.055234
0.14719
0.26416
0.39702
0.53566
0.6713
-0.015947
-0.040696
-0.053009
-0.055698
-0.047155
-0.022312
0.044284
0.13983
0.25986
0.39586
0.53731
0.67499
-0.02536
-0.073993
-0.1147
-0.1415
-0.14326
-0.1078
-0.032571
0.088668
0.2327
0.39489
0.55789
0.70935
-0.024354
-0.070876
-0.10886
-0.13387
-0.1354
-0.10023
-0.024534
0.091993
0.23426
0.39425
0.55553
0.7061
-0.024034
-0.06977
-0.10682
-0.13085
-0.13048
-0.095122
-0.01966
0.095296
0.23652
0.39529
0.55553
0.70543
-0.02376
-0.068824
-0.10526
-0.12874
-0.12786
-0.092782
-0.017715
0.096778
0.23765
0.39576
0.55529
0.70458
-0.023767
-0.068845
-0.10529
-0.12878
-0.12791
-0.092824
-0.017733
0.096784
0.23767
0.39579
0.55531
0.70461
-0.024055
-0.069829
-0.10692
-0.131
-0.13063
-0.095245
-0.019714
0.095311
0.23659
0.39537
0.5556
0.70552
-0.024388
-0.070971
-0.10902
-0.1341
-0.13565
-0.10041
-0.024617
0.092014
0.23435
0.39435
0.55565
0.70626
-0.025405
-0.074118
-0.11489
-0.14177
-0.14355
-0.10802
-0.032675
0.08869
0.23281
0.39501
0.55803
0.70956
-0.015949
-0.040701
-0.053022
-0.055708
-0.047168
-0.02233
0.044278
0.13984
0.25988
0.39588
0.53735
0.67504
-0.01467
-0.03647
-0.046775
-0.046847
-0.034742
-0.0078208
0.055218
0.1472
0.2642
0.3971
0.53576
0.67144
-0.014574
-0.036849
-0.04747
-0.046906
-0.033292
-0.0017426
0.06088
0.15265
0.2686
0.40006
0.53731
0.67189
-0.014172
-0.035521
-0.045618
-0.04466
-0.031121
0.00036687
0.062759
0.15436
0.26973
0.4004
0.53687
0.67082
-0.014174
-0.035529
-0.045636
-0.044686
-0.031146
0.00034179
0.06274
0.15435
0.26974
0.40041
0.53689
0.67086
-0.014582
-0.036877
-0.047525
-0.046991
-0.033395
-0.0018248
0.060823
0.15263
0.2686
0.40011
0.5374
0.67199
-0.014683
-0.036512
-0.046864
-0.046979
-0.034891
-0.0079462
0.055133
0.14716
0.26421
0.39718
0.5359
0.67161
-0.015968
-0.04076
-0.053108
-0.055864
-0.047341
-0.022467
0.044172
0.13979
0.25992
0.39602
0.53757
0.67531
-0.025408
-0.074128
-0.11491
-0.14178
-0.14355
-0.10804
-0.03269
0.088693
0.23283
0.39505
0.5581
0.70965
-0.024396
-0.071001
-0.10906
-0.13413
-0.13568
-0.10046
-0.024645
0.09203
0.23443
0.39448
0.55584
0.70653
-0.024067
-0.069873
-0.10699
-0.13107
-0.13071
-0.095331
-0.019765
0.095331
0.2367
0.39557
0.55591
0.70594
-0.023784
-0.068901
-0.10539
-0.12891
-0.12806
-0.092972
-0.017824
0.096797
0.23781
0.39605
0.5557
0.70513
-0.023784
-0.068902
-0.10539
-0.12891
-0.12809
-0.093013
-0.017861
0.096767
0.2378
0.39607
0.55574
0.70517
-0.02407
-0.069883
-0.10701
-0.1311
-0.13078
-0.095435
-0.01987
0.095247
0.23667
0.39562
0.55604
0.70611
-0.024403
-0.071029
-0.10911
-0.13419
-0.13578
-0.1006
-0.024796
0.091908
0.23439
0.39458
0.55607
0.70683
-0.025422
-0.07418
-0.11499
-0.14189
-0.14371
-0.10823
-0.032864
0.088564
0.23283
0.39523
0.55845
0.71007
-0.015973
-0.040775
-0.053124
-0.055886
-0.047359
-0.022478
0.044166
0.13979
0.25992
0.39602
0.53757
0.67531
-0.014695
-0.036547
-0.046915
-0.047017
-0.034937
-0.0079775
0.055115
0.14716
0.26423
0.39719
0.53591
0.6716
-0.0146
-0.036925
-0.047595
-0.047045
-0.033455
-0.0018696
0.060798
0.15262
0.26861
0.40012
0.53739
0.67196
-0.014194
-0.035584
-0.045713
-0.044746
-0.031203
0.00029177
0.062707
0.15434
0.26973
0.4004
0.53687
0.6708
-0.014191
-0.035575
-0.045692
-0.044715
-0.031174
0.00031437
0.062717
0.15433
0.26971
0.40036
0.53681
0.67073
-0.014591
-0.036899
-0.047538
-0.046954
-0.033349
-0.0017999
0.060827
0.15261
0.26855
0.39999
0.53722
0.67176
-0.014686
-0.036513
-0.04683
-0.046886
-0.034793
-0.0078777
0.055158
0.14713
0.26412
0.397
0.53564
0.67128
-0.015961
-0.040735
-0.053073
-0.055742
-0.047211
-0.022378
0.044212
0.13975
0.25977
0.39576
0.5372
0.67486
-0.025433
-0.074209
-0.11503
-0.14195
-0.14377
-0.10827
-0.032875
0.088569
0.23286
0.39527
0.55848
0.71009
-0.024434
-0.071118
-0.10925
-0.13436
-0.13594
-0.10071
-0.024833
0.091921
0.23446
0.39467
0.55614
0.70685
-0.024118
-0.07002
-0.10722
-0.13135
-0.13099
-0.095563
-0.019914
0.095273
0.23675
0.39573
0.55611
0.70612
-0.023839
-0.069057
-0.10562
-0.12918
-0.12829
-0.093138
-0.017906
0.096797
0.23788
0.39616
0.55578
0.70513
-0.023835
-0.069041
-0.10559
-0.12914
-0.12824
-0.093081
-0.017869
0.096809
0.23786
0.39609
0.55568
0.705
-0.024107
-0.069978
-0.10714
-0.13124
-0.13084
-0.095412
-0.019812
0.095301
0.23666
0.39551
0.5558
0.70572
-0.024422
-0.071073
-0.10916
-0.13423
-0.13575
-0.1005
-0.024694
0.091946
0.2343
0.39432
0.55564
0.70623
-0.025421
-0.074164
-0.11494
-0.14181
-0.14357
-0.10806
-0.032745
0.088562
0.23264
0.39483
0.55783
0.70932
)
;

boundaryField
{
    inlet
    {
        type            uniformTotalPressure;
        rho             rho;
        psi             none;
        gamma           1;
        p0              table
        
4
(
(0 1.3332)
(0.003 1.3332)
(0.0031 0)
(0.01 0)
)
;
        value           uniform 0;
    }
    outlet
    {
        type            fixedValue;
        value           nonuniform 0();
    }
    mantle
    {
        type            zeroGradient;
    }
    procBoundary0to1
    {
        type            processor;
        value           nonuniform List<scalar> 
128
(
0.79784
0.79451
0.79248
0.79143
0.79142
0.79246
0.79446
0.79778
0.79455
0.79178
0.78995
0.78902
0.789
0.78991
0.79172
0.79446
0.79258
0.78999
0.78825
0.78739
0.78737
0.78821
0.78992
0.79247
0.79157
0.78911
0.78743
0.7866
0.78658
0.78738
0.78903
0.79145
0.79161
0.78915
0.78747
0.78663
0.78661
0.78741
0.78905
0.79147
0.79271
0.79011
0.78836
0.78749
0.78747
0.7883
0.79001
0.79255
0.79477
0.79197
0.79013
0.78919
0.78916
0.79006
0.79186
0.79461
0.79814
0.79478
0.79274
0.79167
0.79164
0.79267
0.79467
0.79798
0.80321
0.79821
0.79789
0.79636
0.79636
0.79789
0.7982
0.80318
0.84554
0.84196
0.84099
0.83972
0.83975
0.84108
0.84207
0.84561
0.80317
0.79819
0.79788
0.79638
0.79641
0.79799
0.79836
0.8034
0.84557
0.84195
0.84096
0.83967
0.83972
0.8411
0.8422
0.84588
0.80346
0.79852
0.79823
0.79673
0.79677
0.79833
0.79869
0.80372
0.84598
0.84251
0.84159
0.84034
0.84038
0.84174
0.84279
0.8464
0.80371
0.79867
0.79828
0.79668
0.79661
0.79807
0.79832
0.80324
0.84639
0.84278
0.84171
0.84027
0.84012
0.84127
0.84213
0.84559
)
;
    }
}


// ************************************************************************* //
