/*--------------------------------*- C++ -*----------------------------------*\
| =========                 |                                                 |
| \\      /  F ield         | OpenFOAM: The Open Source CFD Toolbox           |
|  \\    /   O peration     | Version:  4.1                                   |
|   \\  /    A nd           | Web:      www.OpenFOAM.org                      |
|    \\/     M anipulation  |                                                 |
\*---------------------------------------------------------------------------*/
FoamFile
{
    version     2.0;
    format      ascii;
    class       pointVectorField;
    location    "0.0073";
    object      pointDisplacement_Next_Iter3;
}
// * * * * * * * * * * * * * * * * * * * * * * * * * * * * * * * * * * * * * //

dimensions      [0 1 0 0 0 0 0];

internalField   uniform (0 0 0);

boundaryField
{
    inlet
    {
        type            fixedValue;
        value           uniform (0 0 0);
    }
    outlet
    {
        type            fixedValue;
        value           uniform (0 0 0);
    }
    mantle
    {
        type            fixedValue;
        value           nonuniform List<vector> 
1568
(
(2.4188e-12 -1.4445e-12 -2.3859e-17)
(6.0563e-06 -3.5828e-06 -6.9439e-11)
(5.9617e-06 -3.3205e-06 5.4886e-07)
(1.0419e-08 -2.4807e-08 -1.8976e-08)
(5.8691e-06 -2.9177e-06 1.2102e-06)
(3.0001e-12 -2.0734e-12 7.733e-13)
(5.9627e-06 -2.7337e-06 1.9609e-06)
(1.0436e-08 -3.949e-09 3.103e-08)
(6.0577e-06 -2.5323e-06 2.5322e-06)
(1.5323e-12 -2.1309e-13 2.1298e-13)
(5.9628e-06 -1.961e-06 2.7335e-06)
(1.0436e-08 -3.103e-08 3.9487e-09)
(5.8692e-06 -1.2103e-06 2.9175e-06)
(3.0001e-12 -7.7335e-13 2.0735e-12)
(5.9619e-06 -5.4905e-07 3.3204e-06)
(1.0421e-08 1.8975e-08 2.4807e-08)
(6.0565e-06 -1.2094e-10 3.5827e-06)
(2.4189e-12 -4.2023e-17 1.4445e-12)
(1.0571e-05 -5.0492e-06 -1.3928e-10)
(1.0358e-05 -4.5438e-06 7.3955e-07)
(1.0195e-05 -3.9313e-06 1.6317e-06)
(1.0361e-05 -3.7292e-06 2.6906e-06)
(1.0575e-05 -3.5654e-06 3.5651e-06)
(1.0361e-05 -2.6909e-06 3.7289e-06)
(1.0195e-05 -1.632e-06 3.931e-06)
(1.0358e-05 -7.3993e-07 4.5435e-06)
(1.0571e-05 -2.3356e-10 5.0491e-06)
(1.2711e-05 -3.1314e-06 -1.8042e-10)
(1.2622e-05 -2.9444e-06 5.0611e-07)
(1.254e-05 -2.6203e-06 1.0895e-06)
(1.2629e-05 -2.4259e-06 1.7206e-06)
(1.2721e-05 -2.2007e-06 2.2002e-06)
(1.2629e-05 -1.7211e-06 2.4254e-06)
(1.2541e-05 -1.09e-06 2.6199e-06)
(1.2623e-05 -5.0661e-07 2.9439e-06)
(1.2712e-05 -3.0141e-10 3.1311e-06)
(1.3952e-05 -7.9999e-07 -2.0027e-10)
(1.399e-05 -9.2973e-07 1.933e-07)
(1.3986e-05 -9.0498e-07 3.7717e-07)
(1.3998e-05 -7.7207e-07 5.0821e-07)
(1.3965e-05 -5.399e-07 5.3935e-07)
(1.3998e-05 -5.0875e-07 7.7148e-07)
(1.3986e-05 -3.7772e-07 9.0436e-07)
(1.399e-05 -1.9387e-07 9.2912e-07)
(1.3953e-05 -3.4191e-10 7.9956e-07)
(1.6e-05 -8.3139e-07 -2.1596e-10)
(1.5995e-05 -7.9771e-07 1.3726e-07)
(1.5984e-05 -7.0762e-07 2.8838e-07)
(1.6e-05 -6.3277e-07 4.4137e-07)
(1.6007e-05 -5.5e-07 5.4937e-07)
(1.6e-05 -4.4196e-07 6.3207e-07)
(1.5984e-05 -2.8897e-07 7.069e-07)
(1.5995e-05 -1.3788e-07 7.9705e-07)
(1.6e-05 -3.8371e-10 8.3098e-07)
(1.8839e-05 -1.7114e-06 -2.3619e-10)
(1.8779e-05 -1.4812e-06 2.2469e-07)
(1.8729e-05 -1.2265e-06 4.9988e-07)
(1.8777e-05 -1.1729e-06 8.5281e-07)
(1.8836e-05 -1.1626e-06 1.1619e-06)
(1.8777e-05 -8.5342e-07 1.172e-06)
(1.873e-05 -5.0049e-07 1.2256e-06)
(1.878e-05 -2.2534e-07 1.4805e-06)
(1.8839e-05 -4.2075e-10 1.711e-06)
(2.1865e-05 -1.0257e-06 -2.57e-10)
(2.1826e-05 -9.109e-07 1.3036e-07)
(2.1785e-05 -7.5368e-07 3.0729e-07)
(2.1814e-05 -7.0478e-07 5.2109e-07)
(2.1848e-05 -6.8017e-07 6.7941e-07)
(2.1814e-05 -5.2171e-07 7.038e-07)
(2.1785e-05 -3.0789e-07 7.5258e-07)
(2.1827e-05 -1.3101e-07 9.0991e-07)
(2.1866e-05 -4.3701e-10 1.025e-06)
(2.4922e-05 1.4976e-06 -2.8064e-10)
(2.4904e-05 1.4492e-06 -2.8848e-07)
(2.4876e-05 1.3467e-06 -5.5359e-07)
(2.4875e-05 1.234e-06 -8.2158e-07)
(2.4882e-05 1.0683e-06 -1.0692e-06)
(2.4875e-05 8.2095e-07 -1.2352e-06)
(2.4877e-05 5.5301e-07 -1.3481e-06)
(2.4904e-05 2.8783e-07 -1.4506e-06)
(2.4922e-05 -4.4396e-10 -1.4987e-06)
(2.7997e-05 5.2818e-06 -1.8126e-11)
(2.7983e-05 5.1393e-06 -1.0073e-06)
(2.7956e-05 4.7791e-06 -1.9714e-06)
(2.7933e-05 4.2793e-06 -2.8654e-06)
(2.7926e-05 3.6484e-06 -3.6498e-06)
(2.7933e-05 2.8648e-06 -4.2806e-06)
(2.7956e-05 1.9708e-06 -4.7808e-06)
(2.7983e-05 1.0066e-06 -5.141e-06)
(2.7998e-05 -7.368e-10 -5.2833e-06)
(3.1012e-05 9.7e-06 -3.6754e-10)
(3.0998e-05 9.477e-06 -1.8828e-06)
(3.0961e-05 8.8402e-06 -3.656e-06)
(3.0938e-05 7.8549e-06 -5.2504e-06)
(3.0922e-05 6.6464e-06 -6.6474e-06)
(3.0939e-05 5.2497e-06 -7.8564e-06)
(3.0962e-05 3.6554e-06 -8.8421e-06)
(3.0999e-05 1.8822e-06 -9.479e-06)
(3.1013e-05 -4.2013e-10 -9.7017e-06)
(3.386e-05 1.3917e-05 -6.0555e-10)
(3.3841e-05 1.3615e-05 -2.7387e-06)
(3.381e-05 1.2712e-05 -5.2869e-06)
(3.3791e-05 1.1277e-05 -7.525e-06)
(3.3788e-05 9.5016e-06 -9.503e-06)
(3.3791e-05 7.5243e-06 -1.1279e-05)
(3.381e-05 5.2863e-06 -1.2714e-05)
(3.3841e-05 2.738e-06 -1.3617e-05)
(3.3861e-05 -2.2433e-10 -1.3918e-05)
(3.6444e-05 1.6989e-05 -4.4779e-10)
(3.6426e-05 1.662e-05 -3.3481e-06)
(3.6406e-05 1.5516e-05 -6.4655e-06)
(3.64e-05 1.375e-05 -9.1781e-06)
(3.6407e-05 1.1574e-05 -1.1575e-05)
(3.64e-05 9.1774e-06 -1.3752e-05)
(3.6406e-05 6.4649e-06 -1.5518e-05)
(3.6426e-05 3.3473e-06 -1.6621e-05)
(3.6445e-05 -4.3168e-10 -1.6991e-05)
(3.8696e-05 1.8023e-05 -5.5406e-10)
(3.8691e-05 1.7573e-05 -3.4941e-06)
(3.8687e-05 1.6347e-05 -6.7784e-06)
(3.8688e-05 1.4524e-05 -9.7091e-06)
(3.8692e-05 1.2288e-05 -1.2289e-05)
(3.8688e-05 9.7082e-06 -1.4526e-05)
(3.8687e-05 6.7777e-06 -1.6348e-05)
(3.8691e-05 3.4932e-06 -1.7575e-05)
(3.8696e-05 -3.5417e-10 -1.8024e-05)
(4.0713e-05 1.6329e-05 -5.2521e-10)
(4.0727e-05 1.5867e-05 -3.1301e-06)
(4.0742e-05 1.4714e-05 -6.0811e-06)
(4.074e-05 1.3086e-05 -8.7495e-06)
(4.0732e-05 1.1107e-05 -1.1108e-05)
(4.074e-05 8.7485e-06 -1.3087e-05)
(4.0742e-05 6.0801e-06 -1.4715e-05)
(4.0728e-05 3.1292e-06 -1.5869e-05)
(4.0714e-05 -4.1542e-10 -1.633e-05)
(4.2614e-05 1.1579e-05 -6.9389e-10)
(4.2638e-05 1.1284e-05 -2.2542e-06)
(4.2669e-05 1.0462e-05 -4.3393e-06)
(4.2658e-05 9.2441e-06 -6.1672e-06)
(4.2642e-05 7.786e-06 -7.7873e-06)
(4.2658e-05 6.1661e-06 -9.2454e-06)
(4.2669e-05 4.3382e-06 -1.0463e-05)
(4.2639e-05 2.2532e-06 -1.1285e-05)
(4.2614e-05 -2.8577e-10 -1.158e-05)
(4.4391e-05 4.527e-06 -6.1225e-10)
(4.4428e-05 4.4518e-06 -9.442e-07)
(4.4474e-05 4.1188e-06 -1.7402e-06)
(4.4455e-05 3.5136e-06 -2.3171e-06)
(4.4428e-05 2.8473e-06 -2.8485e-06)
(4.4456e-05 2.3159e-06 -3.5149e-06)
(4.4475e-05 1.739e-06 -4.12e-06)
(4.4429e-05 9.4305e-07 -4.4526e-06)
(4.4391e-05 -4.2674e-10 -4.5275e-06)
(4.5971e-05 -3.9484e-06 4.0432e-10)
(4.5995e-05 -3.8762e-06 7.2826e-07)
(4.6032e-05 -3.7129e-06 1.5169e-06)
(4.6035e-05 -3.4905e-06 2.3559e-06)
(4.6028e-05 -3.0648e-06 3.065e-06)
(4.6035e-05 -2.357e-06 3.4893e-06)
(4.6032e-05 -1.5181e-06 3.7118e-06)
(4.5995e-05 -7.2948e-07 3.8754e-06)
(4.5971e-05 -1.5319e-09 3.9481e-06)
(4.716e-05 -1.3473e-05 -6.6944e-10)
(4.7178e-05 -1.3219e-05 2.6051e-06)
(4.7209e-05 -1.2488e-05 5.1733e-06)
(4.7227e-05 -1.1346e-05 7.6091e-06)
(4.7231e-05 -9.7153e-06 9.7142e-06)
(4.7227e-05 -7.6102e-06 1.1345e-05)
(4.7209e-05 -5.1745e-06 1.2486e-05)
(4.7178e-05 -2.6064e-06 1.3219e-05)
(4.7161e-05 -5.2657e-10 1.3472e-05)
(4.7769e-05 -2.3848e-05 -8.4715e-10)
(4.78e-05 -2.3364e-05 4.6223e-06)
(4.7847e-05 -2.2e-05 9.1177e-06)
(4.7846e-05 -1.9866e-05 1.3312e-05)
(4.7834e-05 -1.6962e-05 1.6961e-05)
(4.7846e-05 -1.3313e-05 1.9865e-05)
(4.7847e-05 -9.1188e-06 2.1999e-05)
(4.7801e-05 -4.6235e-06 2.3363e-05)
(4.777e-05 -3.5688e-10 2.3847e-05)
(4.7709e-05 -3.4811e-05 -6.5149e-10)
(4.776e-05 -3.4078e-05 6.7404e-06)
(4.7826e-05 -3.2029e-05 1.3265e-05)
(4.7802e-05 -2.8868e-05 1.9331e-05)
(4.7767e-05 -2.4621e-05 2.462e-05)
(4.7802e-05 -1.9332e-05 2.8867e-05)
(4.7826e-05 -1.3266e-05 3.2027e-05)
(4.776e-05 -6.7415e-06 3.4076e-05)
(4.7709e-05 -4.5709e-10 3.481e-05)
(4.6973e-05 -4.6084e-05 -6.2876e-10)
(4.7005e-05 -4.514e-05 8.9481e-06)
(4.7053e-05 -4.2429e-05 1.7567e-05)
(4.7055e-05 -3.8175e-05 2.5531e-05)
(4.7045e-05 -3.2494e-05 3.2493e-05)
(4.7055e-05 -2.5532e-05 3.8174e-05)
(4.7053e-05 -1.7568e-05 4.2428e-05)
(4.7005e-05 -8.949e-06 4.5138e-05)
(4.6974e-05 -1.9481e-10 4.6082e-05)
(4.5566e-05 -5.7416e-05 -3.2111e-10)
(4.5585e-05 -5.6244e-05 1.1166e-05)
(4.5623e-05 -5.2864e-05 2.19e-05)
(4.5642e-05 -4.7513e-05 3.1767e-05)
(4.5649e-05 -4.0408e-05 4.0407e-05)
(4.5643e-05 -3.1768e-05 4.7512e-05)
(4.5623e-05 -2.19e-05 5.2863e-05)
(4.5586e-05 -1.1167e-05 5.6243e-05)
(4.5566e-05 -2.3011e-10 5.7415e-05)
(4.3579e-05 -6.8468e-05 -4.5323e-10)
(4.3611e-05 -6.7063e-05 1.3329e-05)
(4.3658e-05 -6.3006e-05 2.6118e-05)
(4.3661e-05 -5.66e-05 3.7856e-05)
(4.3651e-05 -4.8127e-05 4.8126e-05)
(4.3661e-05 -3.7857e-05 5.66e-05)
(4.3659e-05 -2.6119e-05 6.3006e-05)
(4.3611e-05 -1.3329e-05 6.7062e-05)
(4.3579e-05 4.0494e-11 6.8466e-05)
(4.1216e-05 -7.8776e-05 -1.2075e-10)
(4.1266e-05 -7.7141e-05 1.5328e-05)
(4.1326e-05 -7.2438e-05 3.0038e-05)
(4.1304e-05 -6.5065e-05 4.3529e-05)
(4.1268e-05 -5.5325e-05 5.5325e-05)
(4.1304e-05 -4.353e-05 6.5066e-05)
(4.1326e-05 -3.0038e-05 7.2438e-05)
(4.1267e-05 -1.5329e-05 7.714e-05)
(4.1216e-05 -1.1701e-10 7.8775e-05)
(3.8664e-05 -8.7676e-05 -7.9024e-11)
(3.8692e-05 -8.5816e-05 1.7016e-05)
(3.8728e-05 -8.0545e-05 3.3366e-05)
(3.8719e-05 -7.2361e-05 4.8411e-05)
(3.8704e-05 -6.1565e-05 6.1565e-05)
(3.872e-05 -4.8411e-05 7.2361e-05)
(3.8728e-05 -3.3366e-05 8.0545e-05)
(3.8692e-05 -1.7016e-05 8.5815e-05)
(3.8665e-05 5.5902e-11 8.7674e-05)
(3.5892e-05 -9.425e-05 2.0145e-10)
(3.59e-05 -9.2195e-05 1.8256e-05)
(3.591e-05 -8.6499e-05 3.5813e-05)
(3.5919e-05 -7.7725e-05 5.2004e-05)
(3.5918e-05 -6.6172e-05 6.6172e-05)
(3.5919e-05 -5.2004e-05 7.7725e-05)
(3.5911e-05 -3.5813e-05 8.6498e-05)
(3.5901e-05 -1.8256e-05 9.2193e-05)
(3.5892e-05 2.5826e-11 9.4248e-05)
(3.2823e-05 -9.7756e-05 4.5263e-10)
(3.2818e-05 -9.5692e-05 1.8983e-05)
(3.2816e-05 -8.9826e-05 3.7215e-05)
(3.2818e-05 -8.0685e-05 5.3976e-05)
(3.2824e-05 -6.8633e-05 6.8633e-05)
(3.2818e-05 -5.3976e-05 8.0685e-05)
(3.2816e-05 -3.7215e-05 8.9825e-05)
(3.2818e-05 -1.8982e-05 9.5691e-05)
(3.2823e-05 1.6865e-10 9.7755e-05)
(2.9399e-05 -9.8668e-05 4.3061e-10)
(2.9387e-05 -9.6634e-05 1.9209e-05)
(2.9375e-05 -9.0756e-05 3.7632e-05)
(2.9367e-05 -8.1504e-05 5.4516e-05)
(2.9371e-05 -6.9282e-05 6.9283e-05)
(2.9368e-05 -5.4515e-05 8.1503e-05)
(2.9375e-05 -3.7631e-05 9.0755e-05)
(2.9387e-05 -1.9208e-05 9.6633e-05)
(2.9399e-05 6.8341e-11 9.8667e-05)
(2.5636e-05 -9.7594e-05 5.8428e-10)
(2.5622e-05 -9.5587e-05 1.8991e-05)
(2.56e-05 -8.9796e-05 3.7214e-05)
(2.5585e-05 -8.0666e-05 5.3946e-05)
(2.5583e-05 -6.8588e-05 6.8588e-05)
(2.5585e-05 -5.3946e-05 8.0666e-05)
(2.56e-05 -3.7213e-05 8.9796e-05)
(2.5622e-05 -1.899e-05 9.5586e-05)
(2.5636e-05 8.7867e-12 9.7593e-05)
(2.1704e-05 -9.4806e-05 4.0769e-10)
(2.1692e-05 -9.2836e-05 1.842e-05)
(2.1664e-05 -8.7219e-05 3.6125e-05)
(2.1649e-05 -7.839e-05 5.2425e-05)
(2.1639e-05 -6.6693e-05 6.6694e-05)
(2.1649e-05 -5.2425e-05 7.839e-05)
(2.1663e-05 -3.6124e-05 8.7219e-05)
(2.1691e-05 -1.8419e-05 9.2835e-05)
(2.1704e-05 2.4194e-10 9.4805e-05)
(1.7817e-05 -9.0418e-05 2.6841e-10)
(1.7792e-05 -8.8553e-05 1.7564e-05)
(1.7758e-05 -8.321e-05 3.4465e-05)
(1.7754e-05 -7.4819e-05 5.0047e-05)
(1.7762e-05 -6.3668e-05 6.3669e-05)
(1.7754e-05 -5.0047e-05 7.482e-05)
(1.7758e-05 -3.4465e-05 8.321e-05)
(1.7792e-05 -1.7563e-05 8.8553e-05)
(1.7817e-05 3.6446e-10 9.0417e-05)
(1.4108e-05 -8.4871e-05 1.8431e-10)
(1.4074e-05 -8.3118e-05 1.6487e-05)
(1.403e-05 -7.8106e-05 3.2365e-05)
(1.4041e-05 -7.0265e-05 4.7017e-05)
(1.4063e-05 -5.9815e-05 5.9816e-05)
(1.4041e-05 -4.7017e-05 7.0266e-05)
(1.403e-05 -3.2365e-05 7.8107e-05)
(1.4074e-05 -1.6486e-05 8.3118e-05)
(1.4108e-05 3.6999e-10 8.4871e-05)
(1.0639e-05 -7.8487e-05 1.2135e-11)
(1.0607e-05 -7.6874e-05 1.5244e-05)
(1.0565e-05 -7.2265e-05 2.9942e-05)
(1.0571e-05 -6.5028e-05 4.3517e-05)
(1.0588e-05 -5.5371e-05 5.5372e-05)
(1.057e-05 -4.3517e-05 6.5029e-05)
(1.0565e-05 -2.9942e-05 7.2266e-05)
(1.0607e-05 -1.5244e-05 7.6874e-05)
(1.0639e-05 4.3543e-10 7.8487e-05)
(7.4372e-06 -7.1429e-05 -3.3211e-11)
(7.4069e-06 -6.9956e-05 1.3863e-05)
(7.3674e-06 -6.5775e-05 2.7245e-05)
(7.3672e-06 -5.9218e-05 3.9629e-05)
(7.3792e-06 -5.0445e-05 5.0445e-05)
(7.3671e-06 -3.9629e-05 5.9219e-05)
(7.3672e-06 -2.7244e-05 6.5775e-05)
(7.4068e-06 -1.3862e-05 6.9957e-05)
(7.4371e-06 3.8763e-10 7.1429e-05)
(4.5073e-06 -6.3791e-05 -6.7943e-11)
(4.472e-06 -6.2497e-05 1.2383e-05)
(4.4304e-06 -5.8789e-05 2.4345e-05)
(4.4409e-06 -5.295e-05 3.543e-05)
(4.4629e-06 -4.5107e-05 4.5107e-05)
(4.4408e-06 -3.5429e-05 5.2951e-05)
(4.4303e-06 -2.4345e-05 5.8789e-05)
(4.4719e-06 -1.2382e-05 6.2497e-05)
(4.5072e-06 3.6887e-10 6.3791e-05)
(1.8698e-06 -5.6023e-05 -1.6736e-10)
(1.8302e-06 -5.4887e-05 1.0869e-05)
(1.7862e-06 -5.1638e-05 2.1384e-05)
(1.8106e-06 -4.6541e-05 3.1149e-05)
(1.8429e-06 -3.9667e-05 3.9668e-05)
(1.8106e-06 -3.1149e-05 4.6541e-05)
(1.7861e-06 -2.1383e-05 5.1638e-05)
(1.8301e-06 -1.0869e-05 5.4887e-05)
(1.8697e-06 4.287e-10 5.6023e-05)
(-4.4174e-07 -4.8518e-05 -6.1039e-10)
(-4.6886e-07 -4.7555e-05 9.4274e-06)
(-4.9915e-07 -4.4777e-05 1.8548e-05)
(-4.8356e-07 -4.0362e-05 2.701e-05)
(-4.6254e-07 -3.4394e-05 3.4394e-05)
(-4.8365e-07 -2.7009e-05 4.0362e-05)
(-4.9929e-07 -1.8548e-05 4.4777e-05)
(-4.6904e-07 -9.427e-06 4.7555e-05)
(-4.4193e-07 8.1592e-10 4.8518e-05)
(-2.3492e-06 -4.1458e-05 -3.025e-10)
(-2.3623e-06 -4.0646e-05 8.0607e-06)
(-2.385e-06 -3.8291e-05 1.5869e-05)
(-2.3731e-06 -3.4533e-05 2.3105e-05)
(-2.3684e-06 -2.9425e-05 2.9425e-05)
(-2.3732e-06 -2.3104e-05 3.4533e-05)
(-2.3852e-06 -1.5869e-05 3.8291e-05)
(-2.3625e-06 -8.0604e-06 4.0646e-05)
(-2.3495e-06 4.583e-10 4.1458e-05)
(-3.7914e-06 -3.4849e-05 -1.7803e-10)
(-3.8147e-06 -3.4158e-05 6.7581e-06)
(-3.8381e-06 -3.2173e-05 1.332e-05)
(-3.8237e-06 -2.904e-05 1.944e-05)
(-3.8042e-06 -2.4769e-05 2.477e-05)
(-3.8237e-06 -1.9439e-05 2.904e-05)
(-3.8383e-06 -1.332e-05 3.2173e-05)
(-3.8149e-06 -6.7579e-06 3.4158e-05)
(-3.7917e-06 3.1006e-10 3.4849e-05)
(-4.8364e-06 -2.8653e-05 -3.5604e-10)
(-4.8651e-06 -2.8049e-05 5.5211e-06)
(-4.8917e-06 -2.6391e-05 1.0918e-05)
(-4.8688e-06 -2.386e-05 1.5996e-05)
(-4.8416e-06 -2.0403e-05 2.0404e-05)
(-4.8689e-06 -1.5996e-05 2.386e-05)
(-4.8919e-06 -1.0918e-05 2.6392e-05)
(-4.8653e-06 -5.5209e-06 2.805e-05)
(-4.8367e-06 4.8258e-10 2.8653e-05)
(-5.5669e-06 -2.2832e-05 -3.4231e-10)
(-5.5766e-06 -2.2332e-05 4.3853e-06)
(-5.585e-06 -2.1003e-05 8.6956e-06)
(-5.5764e-06 -1.9013e-05 1.2767e-05)
(-5.5668e-06 -1.629e-05 1.629e-05)
(-5.5765e-06 -1.2767e-05 1.9013e-05)
(-5.5852e-06 -8.6954e-06 2.1004e-05)
(-5.5768e-06 -4.3852e-06 2.2333e-05)
(-5.5671e-06 4.7539e-10 2.2833e-05)
(-5.9797e-06 -1.7424e-05 -2.9852e-10)
(-5.9658e-06 -1.7028e-05 3.3465e-06)
(-5.9564e-06 -1.6014e-05 6.6369e-06)
(-5.9631e-06 -1.4522e-05 9.7584e-06)
(-5.9758e-06 -1.2465e-05 1.2465e-05)
(-5.9631e-06 -9.7582e-06 1.4522e-05)
(-5.9565e-06 -6.6368e-06 1.6015e-05)
(-5.966e-06 -3.3463e-06 1.7029e-05)
(-5.9799e-06 4.504e-10 1.7425e-05)
(-6.1208e-06 -1.2724e-05 -2.2353e-10)
(-6.1293e-06 -1.2493e-05 2.464e-06)
(-6.1337e-06 -1.1802e-05 4.8906e-06)
(-6.1238e-06 -1.0687e-05 7.1668e-06)
(-6.1131e-06 -9.1333e-06 9.1336e-06)
(-6.1239e-06 -7.1666e-06 1.0688e-05)
(-6.1338e-06 -4.8905e-06 1.1802e-05)
(-6.1295e-06 -2.4639e-06 1.2494e-05)
(-6.1211e-06 4.1681e-10 1.2725e-05)
(-6.2458e-06 -9.6687e-06 -1.3738e-10)
(-6.2723e-06 -9.5516e-06 1.8751e-06)
(-6.2757e-06 -9.0295e-06 3.7302e-06)
(-6.2625e-06 -8.1827e-06 5.4866e-06)
(-6.2322e-06 -6.9589e-06 6.9592e-06)
(-6.2626e-06 -5.4865e-06 8.1831e-06)
(-6.2758e-06 -3.7301e-06 9.0301e-06)
(-6.2725e-06 -1.8749e-06 9.5525e-06)
(-6.2461e-06 3.8798e-10 9.6696e-06)
(-6.3284e-06 -8.5567e-06 -4.6045e-11)
(-6.2863e-06 -8.2883e-06 1.5665e-06)
(-6.2426e-06 -7.707e-06 3.1862e-06)
(-6.2711e-06 -7.0464e-06 4.7978e-06)
(-6.3066e-06 -6.1421e-06 6.1424e-06)
(-6.2711e-06 -4.7976e-06 7.0469e-06)
(-6.2427e-06 -3.1861e-06 7.7076e-06)
(-6.2865e-06 -1.5663e-06 8.2891e-06)
(-6.3287e-06 3.3575e-10 8.5576e-06)
(-5.5528e-06 -7.3784e-06 2.3836e-11)
(-5.4452e-06 -6.9605e-06 1.2608e-06)
(-5.3578e-06 -6.3303e-06 2.6217e-06)
(-5.4286e-06 -5.8605e-06 4.0619e-06)
(-5.5282e-06 -5.2749e-06 5.2751e-06)
(-5.4287e-06 -4.0616e-06 5.8609e-06)
(-5.3579e-06 -2.6215e-06 6.3308e-06)
(-5.4454e-06 -1.2606e-06 6.9612e-06)
(-5.553e-06 2.5521e-10 7.3792e-06)
(-3.2704e-06 -4.2189e-06 4.5998e-11)
(-3.222e-06 -4.0104e-06 7.1945e-07)
(-3.171e-06 -3.6448e-06 1.511e-06)
(-3.2125e-06 -3.3643e-06 2.3421e-06)
(-3.2568e-06 -3.0078e-06 3.008e-06)
(-3.2125e-06 -2.342e-06 3.3645e-06)
(-3.1711e-06 -1.5109e-06 3.6451e-06)
(-3.2221e-06 -7.193e-07 4.0108e-06)
(-3.2705e-06 1.3962e-10 4.2193e-06)
(-1.3375e-12 -1.5932e-12 3.0591e-17)
(-5.6851e-09 -1.6906e-08 -1.3657e-08)
(-1.4223e-12 -2.0325e-12 7.8159e-13)
(-5.2354e-09 -3.6497e-09 2.1672e-08)
(-1.2017e-12 -5.5013e-13 5.5014e-13)
(-5.2353e-09 -2.1673e-08 3.6485e-09)
(-1.4223e-12 -7.8146e-13 2.0326e-12)
(-5.6852e-09 1.3656e-08 1.6908e-08)
(-1.3375e-12 5.5834e-17 1.5933e-12)
(5.9619e-06 5.4882e-07 3.3204e-06)
(1.042e-08 -1.8977e-08 2.4807e-08)
(5.8692e-06 1.2101e-06 2.9175e-06)
(3.0002e-12 7.7325e-13 2.0734e-12)
(5.9628e-06 1.9609e-06 2.7336e-06)
(1.0437e-08 3.103e-08 3.9498e-09)
(6.0578e-06 2.5322e-06 2.5322e-06)
(1.5323e-12 2.1307e-13 2.1305e-13)
(5.9628e-06 2.7336e-06 1.9608e-06)
(1.0436e-08 3.9489e-09 3.103e-08)
(5.8692e-06 2.9176e-06 1.2101e-06)
(3.0002e-12 2.0735e-12 7.7325e-13)
(5.9619e-06 3.3204e-06 5.4876e-07)
(1.042e-08 2.4807e-08 -1.8977e-08)
(6.0565e-06 3.5828e-06 -1.9524e-10)
(2.4188e-12 1.4445e-12 -7.6388e-17)
(1.0358e-05 7.3949e-07 4.5436e-06)
(1.0195e-05 1.6316e-06 3.931e-06)
(1.0361e-05 2.6906e-06 3.729e-06)
(1.0575e-05 3.5651e-06 3.5651e-06)
(1.0361e-05 3.7289e-06 2.6905e-06)
(1.0195e-05 3.931e-06 1.6316e-06)
(1.0358e-05 4.5436e-06 7.3938e-07)
(1.0571e-05 5.0491e-06 -3.4649e-10)
(1.2623e-05 5.0603e-07 2.944e-06)
(1.2541e-05 1.0894e-06 2.62e-06)
(1.2629e-05 1.7206e-06 2.4255e-06)
(1.2721e-05 2.2002e-06 2.2002e-06)
(1.2629e-05 2.4254e-06 1.7206e-06)
(1.2541e-05 2.6199e-06 1.0893e-06)
(1.2623e-05 2.9439e-06 5.0591e-07)
(1.2712e-05 3.1309e-06 -4.149e-10)
(1.399e-05 1.932e-07 9.2925e-07)
(1.3986e-05 3.7712e-07 9.0455e-07)
(1.3998e-05 5.0823e-07 7.7165e-07)
(1.3965e-05 5.3941e-07 5.3942e-07)
(1.3998e-05 7.7153e-07 5.0816e-07)
(1.3986e-05 9.0432e-07 3.7701e-07)
(1.399e-05 9.2894e-07 1.9308e-07)
(1.3952e-05 7.992e-07 -4.2863e-10)
(1.5995e-05 1.3715e-07 7.9725e-07)
(1.5984e-05 2.8836e-07 7.0721e-07)
(1.6e-05 4.4146e-07 6.3239e-07)
(1.6007e-05 5.4953e-07 5.4957e-07)
(1.6e-05 6.3221e-07 4.4141e-07)
(1.5984e-05 7.0688e-07 2.8826e-07)
(1.5995e-05 7.9678e-07 1.3705e-07)
(1.6e-05 8.304e-07 -4.3341e-10)
(1.878e-05 2.2458e-07 1.4808e-06)
(1.873e-05 4.9989e-07 1.226e-06)
(1.8777e-05 8.5298e-07 1.1725e-06)
(1.8836e-05 1.1622e-06 1.1623e-06)
(1.8777e-05 1.1723e-06 8.5295e-07)
(1.8729e-05 1.2257e-06 4.998e-07)
(1.8779e-05 1.4802e-06 2.2449e-07)
(1.8839e-05 1.7102e-06 -4.3376e-10)
(2.1827e-05 1.3023e-07 9.1024e-07)
(2.1785e-05 3.073e-07 7.5313e-07)
(2.1814e-05 5.2129e-07 7.0439e-07)
(2.1848e-05 6.7978e-07 6.7986e-07)
(2.1814e-05 7.0422e-07 5.2128e-07)
(2.1785e-05 7.5279e-07 3.0723e-07)
(2.1826e-05 9.0964e-07 1.3017e-07)
(2.1866e-05 1.0241e-06 -4.1104e-10)
(2.4904e-05 -2.8863e-07 -1.4502e-06)
(2.4876e-05 -5.5363e-07 -1.3475e-06)
(2.4875e-05 -8.2143e-07 -1.2346e-06)
(2.4882e-05 -1.0688e-06 -1.0687e-06)
(2.4875e-05 -1.2347e-06 -8.2142e-07)
(2.4876e-05 -1.3477e-06 -5.5367e-07)
(2.4904e-05 -1.4507e-06 -2.8866e-07)
(2.4922e-05 -1.4995e-06 -3.915e-10)
(2.7983e-05 -1.0074e-06 -5.1407e-06)
(2.7956e-05 -1.9715e-06 -4.7803e-06)
(2.7933e-05 -2.8654e-06 -4.2802e-06)
(2.7926e-05 -3.649e-06 -3.6495e-06)
(2.7933e-05 -4.2801e-06 -2.8653e-06)
(2.7956e-05 -4.7802e-06 -1.9715e-06)
(2.7983e-05 -5.1408e-06 -1.0074e-06)
(2.7997e-05 -5.2837e-06 -7.4767e-11)
(3.0999e-05 -1.883e-06 -9.4787e-06)
(3.0962e-05 -3.6561e-06 -8.8416e-06)
(3.0939e-05 -5.2503e-06 -7.856e-06)
(3.0922e-05 -6.6471e-06 -6.6471e-06)
(3.0938e-05 -7.8557e-06 -5.2502e-06)
(3.0961e-05 -8.8411e-06 -3.656e-06)
(3.0998e-05 -9.4783e-06 -1.8829e-06)
(3.1012e-05 -9.7016e-06 -3.7595e-10)
(3.3841e-05 -2.7388e-06 -1.3617e-05)
(3.381e-05 -5.2869e-06 -1.2713e-05)
(3.3791e-05 -7.5248e-06 -1.1278e-05)
(3.3788e-05 -9.502e-06 -9.5024e-06)
(3.3791e-05 -1.1278e-05 -7.5246e-06)
(3.381e-05 -1.2712e-05 -5.2867e-06)
(3.3841e-05 -1.3616e-05 -2.7387e-06)
(3.386e-05 -1.3918e-05 -1.7112e-10)
(3.6426e-05 -3.3481e-06 -1.6621e-05)
(3.6406e-05 -6.4654e-06 -1.5517e-05)
(3.64e-05 -9.1777e-06 -1.3751e-05)
(3.6407e-05 -1.1574e-05 -1.1574e-05)
(3.64e-05 -1.375e-05 -9.1775e-06)
(3.6406e-05 -1.5516e-05 -6.4651e-06)
(3.6426e-05 -1.662e-05 -3.3479e-06)
(3.6444e-05 -1.699e-05 -3.7299e-10)
(3.8691e-05 -3.494e-06 -1.7575e-05)
(3.8687e-05 -6.7782e-06 -1.6348e-05)
(3.8688e-05 -9.7085e-06 -1.4525e-05)
(3.8692e-05 -1.2288e-05 -1.2288e-05)
(3.8688e-05 -1.4524e-05 -9.7083e-06)
(3.8687e-05 -1.6347e-05 -6.7779e-06)
(3.8691e-05 -1.7574e-05 -3.4938e-06)
(3.8696e-05 -1.8023e-05 -4.2834e-10)
(4.0728e-05 -3.1299e-06 -1.5868e-05)
(4.0742e-05 -6.0808e-06 -1.4715e-05)
(4.074e-05 -8.749e-06 -1.3086e-05)
(4.0732e-05 -1.1107e-05 -1.1107e-05)
(4.074e-05 -1.3086e-05 -8.7488e-06)
(4.0742e-05 -1.4714e-05 -6.0806e-06)
(4.0727e-05 -1.5868e-05 -3.1298e-06)
(4.0713e-05 -1.633e-05 -3.5058e-10)
(4.2639e-05 -2.254e-06 -1.1285e-05)
(4.2669e-05 -4.3389e-06 -1.0463e-05)
(4.2658e-05 -6.1668e-06 -9.2449e-06)
(4.2642e-05 -7.7867e-06 -7.7865e-06)
(4.2658e-05 -9.2447e-06 -6.1666e-06)
(4.2669e-05 -1.0463e-05 -4.3388e-06)
(4.2638e-05 -1.1285e-05 -2.2538e-06)
(4.2614e-05 -1.158e-05 -4.5349e-10)
(4.4429e-05 -9.439e-07 -4.4524e-06)
(4.4475e-05 -1.7399e-06 -4.1197e-06)
(4.4456e-05 -2.3167e-06 -3.5145e-06)
(4.4428e-05 -2.848e-06 -2.8479e-06)
(4.4456e-05 -3.5144e-06 -2.3166e-06)
(4.4475e-05 -4.1196e-06 -1.7397e-06)
(4.4428e-05 -4.4526e-06 -9.4378e-07)
(4.4391e-05 -4.528e-06 -2.8341e-10)
(4.5995e-05 7.2854e-07 3.8756e-06)
(4.6032e-05 1.5172e-06 3.7121e-06)
(4.6035e-05 2.3562e-06 3.4897e-06)
(4.6028e-05 3.0639e-06 3.0654e-06)
(4.6035e-05 3.4896e-06 2.3563e-06)
(4.6032e-05 3.7119e-06 1.5173e-06)
(4.5995e-05 3.8751e-06 7.2869e-07)
(4.5971e-05 3.9472e-06 8.3026e-10)
(4.7178e-05 2.6054e-06 1.3219e-05)
(4.7209e-05 5.1736e-06 1.2487e-05)
(4.7227e-05 7.6094e-06 1.1346e-05)
(4.7231e-05 9.7144e-06 9.7145e-06)
(4.7227e-05 1.1345e-05 7.6094e-06)
(4.7209e-05 1.2486e-05 5.1736e-06)
(4.7178e-05 1.3218e-05 2.6056e-06)
(4.716e-05 1.3471e-05 -1.4277e-10)
(4.7801e-05 4.6226e-06 2.3363e-05)
(4.7847e-05 9.118e-06 2.1999e-05)
(4.7846e-05 1.3312e-05 1.9866e-05)
(4.7834e-05 1.6961e-05 1.6961e-05)
(4.7846e-05 1.9865e-05 1.3312e-05)
(4.7847e-05 2.1999e-05 9.118e-06)
(4.7801e-05 2.3363e-05 4.6227e-06)
(4.7769e-05 2.3846e-05 -2.3582e-10)
(4.776e-05 6.7407e-06 3.4077e-05)
(4.7826e-05 1.3265e-05 3.2028e-05)
(4.7802e-05 1.9331e-05 2.8867e-05)
(4.7767e-05 2.462e-05 2.462e-05)
(4.7802e-05 2.8867e-05 1.9331e-05)
(4.7826e-05 3.2027e-05 1.3265e-05)
(4.776e-05 3.4076e-05 6.7408e-06)
(4.7709e-05 3.4809e-05 -4.809e-11)
(4.7005e-05 8.9484e-06 4.5139e-05)
(4.7053e-05 1.7567e-05 4.2429e-05)
(4.7055e-05 2.5532e-05 3.8175e-05)
(4.7045e-05 3.2493e-05 3.2494e-05)
(4.7055e-05 3.8174e-05 2.5532e-05)
(4.7053e-05 4.2428e-05 1.7567e-05)
(4.7005e-05 4.5137e-05 8.9485e-06)
(4.6974e-05 4.6081e-05 -1.7156e-10)
(4.5586e-05 1.1166e-05 5.6243e-05)
(4.5623e-05 2.19e-05 5.2864e-05)
(4.5643e-05 3.1768e-05 4.7513e-05)
(4.565e-05 4.0408e-05 4.0408e-05)
(4.5643e-05 4.7513e-05 3.1768e-05)
(4.5623e-05 5.2863e-05 2.19e-05)
(4.5585e-05 5.6242e-05 1.1167e-05)
(4.5566e-05 5.7413e-05 1.5959e-12)
(4.3611e-05 1.3329e-05 6.7062e-05)
(4.3659e-05 2.6118e-05 6.3007e-05)
(4.3661e-05 3.7857e-05 5.6601e-05)
(4.3651e-05 4.8127e-05 4.8127e-05)
(4.3661e-05 5.66e-05 3.7857e-05)
(4.3658e-05 6.3006e-05 2.6118e-05)
(4.3611e-05 6.7062e-05 1.3329e-05)
(4.3579e-05 6.8466e-05 3.487e-10)
(4.1267e-05 1.5328e-05 7.714e-05)
(4.1326e-05 3.0038e-05 7.2438e-05)
(4.1304e-05 4.353e-05 6.5066e-05)
(4.1269e-05 5.5326e-05 5.5326e-05)
(4.1304e-05 6.5066e-05 4.353e-05)
(4.1326e-05 7.2438e-05 3.0038e-05)
(4.1266e-05 7.7141e-05 1.5329e-05)
(4.1216e-05 7.8777e-05 2.6817e-10)
(3.8692e-05 1.7016e-05 8.5815e-05)
(3.8728e-05 3.3366e-05 8.0545e-05)
(3.872e-05 4.8412e-05 7.2362e-05)
(3.8704e-05 6.1566e-05 6.1566e-05)
(3.872e-05 7.2362e-05 4.8412e-05)
(3.8728e-05 8.0546e-05 3.3367e-05)
(3.8692e-05 8.5817e-05 1.7016e-05)
(3.8664e-05 8.7678e-05 1.6248e-10)
(3.5901e-05 1.8256e-05 9.2194e-05)
(3.5911e-05 3.5814e-05 8.6499e-05)
(3.5919e-05 5.2004e-05 7.7726e-05)
(3.5918e-05 6.6173e-05 6.6173e-05)
(3.5919e-05 7.7726e-05 5.2005e-05)
(3.5911e-05 8.65e-05 3.5814e-05)
(3.59e-05 9.2196e-05 1.8257e-05)
(3.5892e-05 9.4252e-05 2.5647e-10)
(3.2818e-05 1.8983e-05 9.5691e-05)
(3.2816e-05 3.7215e-05 8.9826e-05)
(3.2819e-05 5.3976e-05 8.0686e-05)
(3.2824e-05 6.8634e-05 6.8634e-05)
(3.2819e-05 8.0686e-05 5.3976e-05)
(3.2816e-05 8.9826e-05 3.7215e-05)
(3.2818e-05 9.5693e-05 1.8983e-05)
(3.2823e-05 9.7757e-05 2.0964e-10)
(2.9388e-05 1.9208e-05 9.6634e-05)
(2.9375e-05 3.7632e-05 9.0755e-05)
(2.9368e-05 5.4516e-05 8.1503e-05)
(2.9371e-05 6.9282e-05 6.9282e-05)
(2.9368e-05 8.1504e-05 5.4516e-05)
(2.9375e-05 9.0756e-05 3.7632e-05)
(2.9387e-05 9.6634e-05 1.9209e-05)
(2.9399e-05 9.8668e-05 4.1964e-10)
(2.5622e-05 1.8991e-05 9.5586e-05)
(2.56e-05 3.7214e-05 8.9796e-05)
(2.5586e-05 5.3946e-05 8.0666e-05)
(2.5583e-05 6.8588e-05 6.8588e-05)
(2.5586e-05 8.0666e-05 5.3946e-05)
(2.56e-05 8.9796e-05 3.7214e-05)
(2.5622e-05 9.5587e-05 1.8991e-05)
(2.5636e-05 9.7594e-05 2.8614e-10)
(2.1691e-05 1.8419e-05 9.2836e-05)
(2.1664e-05 3.6124e-05 8.7219e-05)
(2.1649e-05 5.2425e-05 7.8391e-05)
(2.164e-05 6.6694e-05 6.6694e-05)
(2.1649e-05 7.8391e-05 5.2425e-05)
(2.1664e-05 8.722e-05 3.6124e-05)
(2.1692e-05 9.2836e-05 1.8419e-05)
(2.1704e-05 9.4806e-05 3.9891e-10)
(1.7792e-05 1.7564e-05 8.8553e-05)
(1.7758e-05 3.4466e-05 8.321e-05)
(1.7754e-05 5.0047e-05 7.482e-05)
(1.7762e-05 6.3669e-05 6.3669e-05)
(1.7754e-05 7.482e-05 5.0047e-05)
(1.7758e-05 8.321e-05 3.4465e-05)
(1.7792e-05 8.8553e-05 1.7564e-05)
(1.7817e-05 9.0418e-05 3.8444e-10)
(1.4074e-05 1.6487e-05 8.3118e-05)
(1.403e-05 3.2366e-05 7.8107e-05)
(1.4041e-05 4.7018e-05 7.0266e-05)
(1.4063e-05 5.9816e-05 5.9816e-05)
(1.4041e-05 7.0265e-05 4.7017e-05)
(1.403e-05 7.8106e-05 3.2365e-05)
(1.4074e-05 8.3118e-05 1.6487e-05)
(1.4108e-05 8.4871e-05 2.5942e-10)
(1.0607e-05 1.5244e-05 7.6874e-05)
(1.0565e-05 2.9942e-05 7.2266e-05)
(1.0571e-05 4.3517e-05 6.5029e-05)
(1.0588e-05 5.5372e-05 5.5371e-05)
(1.0571e-05 6.5029e-05 4.3517e-05)
(1.0565e-05 7.2266e-05 2.9942e-05)
(1.0607e-05 7.6874e-05 1.5244e-05)
(1.0639e-05 7.8487e-05 1.221e-10)
(7.4068e-06 1.3863e-05 6.9956e-05)
(7.3673e-06 2.7245e-05 6.5775e-05)
(7.3672e-06 3.9629e-05 5.9218e-05)
(7.3793e-06 5.0445e-05 5.0445e-05)
(7.3673e-06 5.9219e-05 3.9629e-05)
(7.3675e-06 6.5775e-05 2.7244e-05)
(7.407e-06 6.9956e-05 1.3863e-05)
(7.4373e-06 7.1429e-05 9.4358e-11)
(4.4719e-06 1.2383e-05 6.2497e-05)
(4.4304e-06 2.4346e-05 5.8789e-05)
(4.4409e-06 3.543e-05 5.295e-05)
(4.463e-06 4.5107e-05 4.5106e-05)
(4.441e-06 5.2951e-05 3.5429e-05)
(4.4306e-06 5.8789e-05 2.4345e-05)
(4.4722e-06 6.2497e-05 1.2383e-05)
(4.5074e-06 6.3791e-05 -6.6875e-11)
(1.8302e-06 1.087e-05 5.4887e-05)
(1.7862e-06 2.1384e-05 5.1638e-05)
(1.8106e-06 3.1149e-05 4.6541e-05)
(1.843e-06 3.9668e-05 3.9667e-05)
(1.8108e-06 4.6541e-05 3.1149e-05)
(1.7864e-06 5.1639e-05 2.1384e-05)
(1.8305e-06 5.4887e-05 1.0869e-05)
(1.8701e-06 5.6023e-05 -1.5279e-10)
(-4.69e-07 9.4279e-06 4.7555e-05)
(-4.9924e-07 1.8548e-05 4.4776e-05)
(-4.8358e-07 2.701e-05 4.0361e-05)
(-4.6245e-07 3.4394e-05 3.4394e-05)
(-4.8344e-07 4.0362e-05 2.7009e-05)
(-4.9898e-07 4.4777e-05 1.8548e-05)
(-4.6865e-07 4.7555e-05 9.4273e-06)
(-4.4151e-07 4.8518e-05 1.2954e-10)
(-2.3625e-06 8.0613e-06 4.0646e-05)
(-2.3851e-06 1.5869e-05 3.8291e-05)
(-2.3731e-06 2.3105e-05 3.4533e-05)
(-2.3683e-06 2.9426e-05 2.9425e-05)
(-2.373e-06 3.4533e-05 2.3104e-05)
(-2.3849e-06 3.8291e-05 1.5869e-05)
(-2.3621e-06 4.0646e-05 8.0605e-06)
(-2.3491e-06 4.1458e-05 -3.0182e-10)
(-3.8149e-06 6.7588e-06 3.4158e-05)
(-3.8382e-06 1.3321e-05 3.2173e-05)
(-3.8236e-06 1.944e-05 2.904e-05)
(-3.8041e-06 2.477e-05 2.4769e-05)
(-3.8235e-06 2.904e-05 1.9439e-05)
(-3.8379e-06 3.2174e-05 1.332e-05)
(-3.8145e-06 3.4159e-05 6.758e-06)
(-3.7913e-06 3.4849e-05 -1.7112e-10)
(-4.8653e-06 5.5219e-06 2.805e-05)
(-4.8918e-06 1.0919e-05 2.6392e-05)
(-4.8688e-06 1.5997e-05 2.386e-05)
(-4.8414e-06 2.0404e-05 2.0404e-05)
(-4.8686e-06 2.3861e-05 1.5996e-05)
(-4.8916e-06 2.6392e-05 1.0918e-05)
(-4.8649e-06 2.805e-05 5.521e-06)
(-4.8363e-06 2.8653e-05 -3.4373e-10)
(-5.5767e-06 4.3861e-06 2.2333e-05)
(-5.5851e-06 8.6965e-06 2.1004e-05)
(-5.5764e-06 1.2768e-05 1.9013e-05)
(-5.5666e-06 1.6291e-05 1.629e-05)
(-5.5762e-06 1.9014e-05 1.2767e-05)
(-5.5848e-06 2.1004e-05 8.6956e-06)
(-5.5764e-06 2.2333e-05 4.3853e-06)
(-5.5667e-06 2.2833e-05 -3.32e-10)
(-5.966e-06 3.3472e-06 1.7029e-05)
(-5.9564e-06 6.6377e-06 1.6015e-05)
(-5.963e-06 9.7591e-06 1.4523e-05)
(-5.9756e-06 1.2466e-05 1.2465e-05)
(-5.9629e-06 1.4523e-05 9.7584e-06)
(-5.9562e-06 1.6015e-05 6.6369e-06)
(-5.9656e-06 1.7029e-05 3.3465e-06)
(-5.9794e-06 1.7425e-05 -2.9736e-10)
(-6.1295e-06 2.4647e-06 1.2494e-05)
(-6.1338e-06 4.8914e-06 1.1802e-05)
(-6.1237e-06 7.1676e-06 1.0688e-05)
(-6.113e-06 9.1344e-06 9.1338e-06)
(-6.1236e-06 1.0689e-05 7.167e-06)
(-6.1335e-06 1.1803e-05 4.8907e-06)
(-6.1291e-06 1.2495e-05 2.4641e-06)
(-6.1206e-06 1.2725e-05 -2.4171e-10)
(-6.2725e-06 1.8757e-06 9.5525e-06)
(-6.2758e-06 3.7309e-06 9.0302e-06)
(-6.2625e-06 5.4874e-06 8.1833e-06)
(-6.2321e-06 6.9599e-06 6.9595e-06)
(-6.2624e-06 8.1838e-06 5.4869e-06)
(-6.2756e-06 9.0307e-06 3.7304e-06)
(-6.2722e-06 9.553e-06 1.8751e-06)
(-6.2457e-06 9.6701e-06 -1.6888e-10)
(-6.2865e-06 1.567e-06 8.2891e-06)
(-6.2426e-06 3.1868e-06 7.7077e-06)
(-6.2711e-06 4.7984e-06 7.047e-06)
(-6.3065e-06 6.143e-06 6.1426e-06)
(-6.2709e-06 7.0474e-06 4.7981e-06)
(-6.2424e-06 7.7081e-06 3.1864e-06)