/*--------------------------------*- C++ -*----------------------------------*\
| =========                 |                                                 |
| \\      /  F ield         | OpenFOAM: The Open Source CFD Toolbox           |
|  \\    /   O peration     | Version:  4.1                                   |
|   \\  /    A nd           | Web:      www.OpenFOAM.org                      |
|    \\/     M anipulation  |                                                 |
\*---------------------------------------------------------------------------*/
FoamFile
{
    version     2.0;
    format      ascii;
    class       volVectorField;
    location    "0.0033";
    object      U;
}
// * * * * * * * * * * * * * * * * * * * * * * * * * * * * * * * * * * * * * //

dimensions      [0 1 -1 0 0 0 0];

internalField   nonuniform List<vector> 
6144
(
(0.0011334 -8.2774e-05 -1.5645e-07)
(0.0012768 -0.00018089 -5.1235e-07)
(0.0014514 -0.00015967 -9.1369e-07)
(0.0015457 -5.6646e-05 -1.2525e-06)
(0.0015325 1.8807e-05 -1.7049e-06)
(0.0014819 1.474e-05 -2.2452e-06)
(0.0014726 -4.7127e-05 -2.3554e-06)
(0.0015322 -0.00012786 -2.6104e-06)
(0.0016548 -0.00020532 -2.6339e-06)
(0.0018327 -0.00028014 -2.4111e-06)
(0.0020643 -0.00036236 -1.9584e-06)
(0.0023596 -0.00046631 -1.3898e-06)
(0.0027406 -0.00060271 -7.5709e-07)
(0.0032329 -0.00076921 -1.0594e-07)
(0.0038556 -0.00095801 4.5375e-07)
(0.0046234 -0.0011779 7.8405e-07)
(0.0055644 -0.001463 9.6047e-07)
(0.0067425 -0.0018639 9.479e-07)
(0.0082618 -0.0024118 8.1603e-07)
(0.010235 -0.0030904 6.9706e-07)
(0.012743 -0.0038591 5.9913e-07)
(0.015842 -0.0047172 5.511e-07)
(0.019609 -0.005743 6.8292e-07)
(0.024208 -0.0070681 9.1528e-07)
(0.029912 -0.0087876 1.1945e-06)
(0.037038 -0.01087 1.5126e-06)
(0.045831 -0.013148 1.7759e-06)
(0.056381 -0.01542 1.9985e-06)
(0.068636 -0.017588 2.1893e-06)
(0.082524 -0.019732 2.3058e-06)
(0.098101 -0.021994 2.2248e-06)
(0.11552 -0.024329 2.0199e-06)
(0.13483 -0.02634 1.7658e-06)
(0.15566 -0.027299 1.4762e-06)
(0.17703 -0.026404 1.0891e-06)
(0.19739 -0.023143 8.2677e-07)
(0.21488 -0.017465 6.9754e-07)
(0.22763 -0.0097701 5.8473e-07)
(0.23493 -0.0016262 4.4129e-07)
(0.23752 0.0047074 3.9086e-07)
(0.23533 0.0096833 -1.1544e-07)
(0.22838 0.014548 -5.2963e-09)
(0.2176 0.019181 -2.0251e-07)
(0.20294 0.024003 -1.0114e-06)
(0.18426 0.027665 -2.077e-06)
(0.16364 0.027226 -1.7884e-06)
(0.14671 0.019189 -1.15e-06)
(0.13727 0.0043981 -1.5639e-07)
(0.0011616 -5.4839e-05 6.9536e-06)
(0.0012849 -0.00012009 1.5428e-05)
(0.0014376 -0.00010715 1.3779e-05)
(0.0015256 -4.0067e-05 5.5232e-06)
(0.0015243 1.1086e-05 -1.9671e-06)
(0.0014887 9.0418e-06 -2.1645e-06)
(0.0014873 -3.3096e-05 5.2443e-06)
(0.0015486 -8.8669e-05 1.4207e-05)
(0.0016707 -0.00014349 2.3136e-05)
(0.0018488 -0.00019721 3.2423e-05)
(0.002083 -0.00025641 4.3875e-05)
(0.0023835 -0.0003302 5.9091e-05)
(0.002771 -0.00042565 7.8428e-05)
(0.0032695 -0.00054195 0.00010041)
(0.0038989 -0.00067635 0.00012356)
(0.004677 -0.00083578 0.00015038)
(0.0056355 -0.0010423 0.00018742)
(0.0068393 -0.0013277 0.00024124)
(0.0083873 -0.0017115 0.0003131)
(0.010385 -0.0021858 0.00039707)
(0.012917 -0.00273 0.00048603)
(0.016044 -0.003348 0.00058218)
(0.019858 -0.0040905 0.00070016)
(0.024525 -0.0050397 0.00085802)
(0.030306 -0.0062546 0.001061)
(0.037494 -0.0077167 0.0012924)
(0.046317 -0.0093263 0.001516)
(0.056865 -0.01096 0.0017048)
(0.069103 -0.012554 0.0018576)
(0.082985 -0.014149 0.0019963)
(0.098556 -0.015817 0.0021367)
(0.11593 -0.017516 0.0022529)
(0.13507 -0.018982 0.0022634)
(0.15559 -0.019738 0.0020595)
(0.1765 -0.019256 0.0015558)
(0.19634 -0.01718 0.00073005)
(0.21336 -0.013482 -0.00036425)
(0.22589 -0.0085868 -0.0015901)
(0.23318 -0.0036951 -0.002582)
(0.23574 0.00034737 -0.0027269)
(0.23348 0.0043591 -0.0024578)
(0.22666 0.0081352 -0.0025872)
(0.21605 0.011586 -0.0030031)
(0.20159 0.014963 -0.0035592)
(0.18344 0.01736 -0.004038)
(0.16373 0.016956 -0.0040035)
(0.14787 0.011589 -0.0030038)
(0.1393 0.0018639 -0.0011576)
(0.0011783 -4.1647e-05 1.5808e-05)
(0.0012901 -9.1573e-05 3.4855e-05)
(0.0014303 -8.2554e-05 3.1006e-05)
(0.0015149 -3.2738e-05 1.1706e-05)
(0.0015198 5.551e-06 -4.2198e-06)
(0.0014925 4.8024e-06 -3.7065e-06)
(0.0014964 -2.7819e-05 9.5623e-06)
(0.0015593 -7.1543e-05 2.6651e-05)
(0.0016813 -0.00011559 4.3637e-05)
(0.0018597 -0.00015923 6.0927e-05)
(0.0020956 -0.0002074 8.079e-05)
(0.0023994 -0.0002671 0.00010594)
(0.0027909 -0.00034377 0.00013817)
(0.0032936 -0.00043723 0.00017664)
(0.0039277 -0.00054593 0.00021995)
(0.0047127 -0.00067546 0.00027078)
(0.005683 -0.00084355 0.00033729)
(0.0069033 -0.0010742 0.00042972)
(0.0084693 -0.0013828 0.00055355)
(0.010484 -0.0017638 0.00070446)
(0.01303 -0.002203 0.00087469)
(0.016178 -0.0027045 0.0010662)
(0.020022 -0.0033077 0.0012972)
(0.024732 -0.0040751 0.0015943)
(0.03056 -0.0050507 0.0019732)
(0.037786 -0.0062206 0.0024214)
(0.046628 -0.007508 0.0028993)
(0.057174 -0.0088187 0.0033656)
(0.069401 -0.010104 0.0038049)
(0.083275 -0.01139 0.0042356)
(0.098833 -0.012727 0.0046813)
(0.11616 -0.014075 0.0051191)
(0.13519 -0.015224 0.0054501)
(0.15549 -0.015804 0.0055145)
(0.17609 -0.015409 0.0051511)
(0.19557 -0.013758 0.004273)
(0.21225 -0.010821 0.0029124)
(0.22455 -0.0069174 0.0012552)
(0.23172 -0.0029348 -0.00020416)
(0.23414 0.00059221 -0.0011081)
(0.232 0.0041156 -0.0017574)
(0.22543 0.00719 -0.0027864)
(0.21494 0.010069 -0.0038262)
(0.20068 0.012765 -0.0049026)
(0.18303 0.014562 -0.0056884)
(0.1641 0.014039 -0.0056142)
(0.14906 0.0095323 -0.0039658)
(0.14108 0.0016913 -0.00087859)
(0.0011863 -3.1272e-05 2.2882e-05)
(0.0012926 -6.9027e-05 5.0583e-05)
(0.001427 -6.2562e-05 4.5479e-05)
(0.0015098 -2.5523e-05 1.785e-05)
(0.0015177 3.5294e-06 -3.9846e-06)
(0.0014946 2.6345e-06 -3.6528e-06)
(0.0015011 -2.2462e-05 1.4603e-05)
(0.0015647 -5.5744e-05 3.876e-05)
(0.0016867 -8.9394e-05 6.3383e-05)
(0.0018652 -0.00012301 8.8466e-05)
(0.0021019 -0.00016039 0.00011695)
(0.0024072 -0.00020677 0.00015257)
(0.0028007 -0.00026609 0.0001981)
(0.0033055 -0.00033831 0.00025294)
(0.003942 -0.00042218 0.00031581)
(0.0047307 -0.00052227 0.00039022)
(0.005707 -0.00065262 0.00048664)
(0.0069355 -0.00083147 0.00061907)
(0.0085106 -0.0010702 0.00079571)
(0.010533 -0.0013642 0.0010122)
(0.013088 -0.0017024 0.0012598)
(0.016245 -0.0020885 0.0015413)
(0.020105 -0.0025533 0.0018806)
(0.024837 -0.0031443 0.0023134)
(0.030689 -0.0038933 0.0028628)
(0.037934 -0.0047874 0.0035154)
(0.046785 -0.0057658 0.0042225)
(0.057332 -0.0067571 0.0049294)
(0.069555 -0.0077257 0.0056113)
(0.083425 -0.0086935 0.0062875)
(0.098978 -0.0096975 0.0069869)
(0.11628 -0.010701 0.0076794)
(0.13525 -0.011538 0.0082341)
(0.15545 -0.011921 0.0084343)
(0.1759 -0.011542 0.0080524)
(0.19521 -0.010196 0.0069476)
(0.21172 -0.0078702 0.0051259)
(0.22391 -0.0048224 0.0027967)
(0.23104 -0.0017745 0.00054875)
(0.23345 0.00077398 -0.0012035)
(0.23136 0.003138 -0.0027759)
(0.22486 0.0053626 -0.0043706)
(0.21441 0.0074852 -0.0059225)
(0.20024 0.0095083 -0.0074236)
(0.18278 0.010867 -0.0084607)
(0.16417 0.010524 -0.008198)
(0.14948 0.0071823 -0.0056784)
(0.14174 0.0012561 -0.0012299)
(0.0011863 -2.2954e-05 3.1207e-05)
(0.0012927 -5.0771e-05 6.8841e-05)
(0.0014271 -4.6033e-05 6.1981e-05)
(0.00151 -1.8871e-05 2.4429e-05)
(0.0015179 2.4815e-06 -5.1221e-06)
(0.0014947 1.5593e-06 -4.933e-06)
(0.0015012 -1.7198e-05 1.9582e-05)
(0.0015648 -4.1643e-05 5.2508e-05)
(0.0016866 -6.6179e-05 8.6237e-05)
(0.001865 -9.0834e-05 0.00012036)
(0.0021015 -0.00011844 0.00015872)
(0.0024067 -0.00015287 0.00020641)
(0.0028003 -0.00019694 0.00026737)
(0.0033051 -0.00025035 0.00034116)
(0.0039416 -0.00031198 0.00042641)
(0.0047305 -0.00038542 0.00052756)
(0.005707 -0.00048154 0.00065814)
(0.0069356 -0.00061415 0.00083666)
(0.0085108 -0.00079144 0.0010746)
(0.010534 -0.0010089 0.0013675)
(0.013088 -0.0012573 0.0017046)
(0.016246 -0.0015394 0.0020899)
(0.020105 -0.0018791 0.0025544)
(0.024837 -0.002312 0.0031452)
(0.030689 -0.0028609 0.0038947)
(0.037934 -0.003513 0.0047893)
(0.046785 -0.0042195 0.0057684)
(0.057331 -0.004926 0.0067602)
(0.069555 -0.0056079 0.007729)
(0.083425 -0.0062847 0.0086965)
(0.098978 -0.0069851 0.0096995)
(0.11628 -0.0076789 0.010702)
(0.13525 -0.0082351 0.011537)
(0.15545 -0.0084363 0.011919)
(0.1759 -0.0080551 0.011539)
(0.19521 -0.0069506 0.010193)
(0.21172 -0.0051287 0.0078666)
(0.22391 -0.0027984 0.0048202)
(0.23104 -0.00054888 0.0017743)
(0.23345 0.0012053 -0.00077125)
(0.23136 0.00278 -0.0031327)
(0.22486 0.0043761 -0.0053555)
(0.21441 0.0059303 -0.0074755)
(0.20024 0.0074333 -0.0094959)
(0.18278 0.0084707 -0.010854)
(0.16417 0.0082057 -0.010514)
(0.14948 0.0056832 -0.007176)
(0.14174 0.0012316 -0.0012538)
(0.0011784 -1.5873e-05 4.1588e-05)
(0.0012903 -3.5022e-05 9.1391e-05)
(0.0014307 -3.1523e-05 8.1981e-05)
(0.0015154 -1.2566e-05 3.1653e-05)
(0.0015203 2.7846e-06 -7.2647e-06)
(0.001493 1.9043e-06 -7.1962e-06)
(0.0014968 -1.1925e-05 2.479e-05)
(0.0015594 -2.9106e-05 6.821e-05)
(0.0016811 -4.6028e-05 0.00011231)
(0.0018591 -6.2886e-05 0.00015647)
(0.0020947 -8.2003e-05 0.00020572)
(0.0023981 -0.00010611 0.0002669)
(0.0027896 -0.00013711 0.00034524)
(0.0032923 -0.00017433 0.00044047)
(0.0039266 -0.00021664 0.00055064)
(0.0047122 -0.00026676 0.0006811)
(0.005683 -0.00033298 0.00084934)
(0.0069037 -0.00042567 0.0010794)
(0.0084701 -0.0005501 0.0013868)
(0.010485 -0.00070171 0.0017664)
(0.013031 -0.00087262 0.0022043)
(0.016178 -0.0010646 0.0027049)
(0.020022 -0.0012956 0.0033079)
(0.024732 -0.0015926 0.0040751)
(0.03056 -0.0019711 0.0050513)
(0.037786 -0.0024189 0.0062215)
(0.046627 -0.0028964 0.0075093)
(0.057173 -0.0033626 0.0088205)
(0.069402 -0.0038022 0.010106)
(0.083275 -0.0042336 0.011392)
(0.098834 -0.0046804 0.012729)
(0.11616 -0.0051191 0.014075)
(0.13519 -0.0054509 0.015223)
(0.15549 -0.005516 0.015802)
(0.17609 -0.005153 0.015406)
(0.19557 -0.0042749 0.013755)
(0.21225 -0.0029137 0.010817)
(0.22455 -0.0012557 0.0069149)
(0.23171 0.00020461 0.0029341)
(0.23413 0.0011098 -0.00059036)
(0.232 0.0017588 -0.0041117)
(0.22543 0.0027895 -0.0071837)
(0.21494 0.0038307 -0.010059)
(0.20068 0.004908 -0.012752)
(0.18303 0.0056941 -0.014548)
(0.1641 0.005619 -0.014028)
(0.14906 0.0039683 -0.0095254)
(0.14109 0.00087966 -0.001689)
(0.0011618 -6.9942e-06 5.4761e-05)
(0.0012853 -1.5531e-05 0.00011984)
(0.0014382 -1.4179e-05 0.0001065)
(0.0015263 -6.2112e-06 3.8985e-05)
(0.0015251 7.267e-07 -1.3063e-05)
(0.0014895 4.5687e-07 -1.1717e-05)
(0.0014879 -7.363e-06 2.9804e-05)
(0.0015488 -1.6476e-05 8.5162e-05)
(0.0016703 -2.5373e-05 0.00014008)
(0.0018478 -3.4269e-05 0.0001944)
(0.0020814 -4.5066e-05 0.00025477)
(0.0023815 -5.937e-05 0.0003302)
(0.0027687 -7.7577e-05 0.00042748)
(0.0032675 -9.8428e-05 0.00054575)
(0.0038973 -0.00012068 0.00068179)
(0.0046761 -0.00014687 0.00084192)
(0.0056356 -0.00018362 0.0010486)
(0.0068402 -0.00023763 0.001333)
(0.0083887 -0.00030996 0.0017154)
(0.010387 -0.00039445 0.0021879)
(0.012918 -0.00048394 0.0027305)
(0.016045 -0.00058048 0.0033472)
(0.019858 -0.00069817 0.0040894)
(0.024525 -0.00085568 0.0050387)
(0.030305 -0.0010583 0.0062541)
(0.037493 -0.0012895 0.0077167)
(0.046316 -0.001513 0.0093268)
(0.056864 -0.0017019 0.010961)
(0.069103 -0.0018552 0.012556)
(0.082986 -0.0019947 0.014151)
(0.098558 -0.0021361 0.015819)
(0.11593 -0.002253 0.017518)
(0.13508 -0.002264 0.018982)
(0.15559 -0.0020604 0.019736)
(0.1765 -0.0015566 0.019253)
(0.19634 -0.00073073 0.017176)
(0.21336 0.00036518 0.013478)
(0.22589 0.0015908 0.0085835)
(0.23318 0.0025827 0.0036936)
(0.23573 0.0027273 -0.00034625)
(0.23348 0.0024569 -0.0043555)
(0.22666 0.0025875 -0.0081293)
(0.21605 0.0030038 -0.011578)
(0.20158 0.0035598 -0.014951)
(0.18344 0.0040381 -0.017347)
(0.16374 0.0040047 -0.016944)
(0.14788 0.0030047 -0.011582)
(0.13931 0.0011583 -0.0018611)
(0.0011336 1.2006e-07 8.2728e-05)
(0.0012773 4.4814e-07 0.00018067)
(0.0014522 6.0813e-07 0.00015917)
(0.0015468 7.1312e-07 5.5574e-05)
(0.0015338 8.7223e-07 -2.0954e-05)
(0.0014831 8.1241e-07 -1.7784e-05)
(0.0014734 6.4704e-07 4.3412e-05)
(0.0015323 6.3998e-07 0.00012364)
(0.0016542 7.1707e-07 0.00020112)
(0.0018312 8.2768e-07 0.00027652)
(0.002062 9.9611e-07 0.00036004)
(0.0023567 1.2914e-06 0.00046585)
(0.0027374 1.6669e-06 0.00060451)
(0.0032299 1.9972e-06 0.00077329)
(0.0038534 2.2822e-06 0.00096413)
(0.0046223 2.4452e-06 0.0011847)
(0.0055646 2.5163e-06 0.0014699)
(0.0067439 2.34e-06 0.0018696)
(0.0082638 1.8826e-06 0.0024155)
(0.010237 1.3031e-06 0.0030915)
(0.012745 6.8923e-07 0.0038576)
(0.015843 1.5629e-07 0.0047135)
(0.019609 -1.8334e-07 0.0057381)
(0.024208 -2.8234e-07 0.0070628)
(0.029912 -1.0044e-07 0.0087826)
(0.037037 1.3556e-07 0.010867)
(0.04583 3.1267e-07 0.013145)
(0.056381 3.0836e-07 0.015418)
(0.068636 -2.7573e-09 0.017588)
(0.082525 -5.133e-07 0.019733)
(0.098103 -1.1373e-06 0.021995)
(0.11552 -1.7788e-06 0.02433)
(0.13483 -2.2829e-06 0.026339)
(0.15566 -2.4845e-06 0.027296)
(0.17703 -2.4357e-06 0.026398)
(0.19739 -2.5214e-06 0.023135)
(0.21488 -2.3415e-06 0.017456)
(0.22763 -1.8438e-06 0.0097622)
(0.23492 -1.5372e-06 0.0016222)
(0.23752 -1.3035e-06 -0.0047078)
(0.23533 -7.0348e-07 -0.0096792)
(0.22837 -3.8014e-07 -0.014543)
(0.21759 2.3861e-07 -0.019173)
(0.20294 8.6179e-07 -0.02399)
(0.18426 1.212e-06 -0.02765)
(0.16365 1.517e-06 -0.027214)
(0.14671 1.0965e-06 -0.019181)
(0.13728 1.1301e-07 -0.0043955)
(0.0011613 -5.4796e-05 -7.3384e-06)
(0.0012846 -0.00012 -1.6634e-05)
(0.0014372 -0.0001069 -1.5966e-05)
(0.0015252 -3.9832e-05 -8.6754e-06)
(0.0015238 1.1443e-05 -2.2463e-06)
(0.0014884 9.4506e-06 -3.1705e-06)
(0.0014871 -3.271e-05 -1.1284e-05)
(0.0015485 -8.8362e-05 -2.0815e-05)
(0.0016708 -0.00014321 -2.973e-05)
(0.0018491 -0.00019695 -3.8439e-05)
(0.0020835 -0.00025622 -4.882e-05)
(0.002384 -0.00033011 -6.2628e-05)
(0.0027715 -0.00042563 -8.0397e-05)
(0.0032701 -0.00054205 -0.00010076)
(0.0038993 -0.00067648 -0.00012257)
(0.0046772 -0.00083599 -0.00014852)
(0.0056356 -0.0010426 -0.00018509)
(0.0068393 -0.0013279 -0.00023895)
(0.0083872 -0.0017118 -0.00031111)
(0.010385 -0.0021861 -0.00039536)
(0.012917 -0.0027304 -0.0004845)
(0.016044 -0.0033484 -0.00058059)
(0.019858 -0.0040909 -0.00069816)
(0.024525 -0.0050401 -0.00085539)
(0.030306 -0.0062549 -0.0010578)
(0.037494 -0.0077171 -0.0012885)
(0.046317 -0.0093267 -0.0015114)
(0.056864 -0.01096 -0.0016996)
(0.069103 -0.012555 -0.0018519)
(0.082984 -0.014149 -0.0019904)
(0.098555 -0.015817 -0.0021309)
(0.11592 -0.017516 -0.0022476)
(0.13507 -0.018981 -0.0022589)
(0.15558 -0.019737 -0.002056)
(0.17649 -0.019255 -0.0015534)
(0.19633 -0.017179 -0.00072865)
(0.21335 -0.013481 0.00036543)
(0.22588 -0.0085852 0.0015907)
(0.23317 -0.0036931 0.0025826)
(0.23573 0.00034924 0.0027272)
(0.23347 0.0043613 0.002457)
(0.22665 0.0081369 0.0025861)
(0.21605 0.011588 0.0030005)
(0.20158 0.014964 0.0035549)
(0.18344 0.01736 0.0040326)
(0.16373 0.016956 0.003999)
(0.14787 0.011589 0.0030009)
(0.1393 0.0018635 0.0011573)
(0.0011852 -4.1469e-05 -2.1711e-07)
(0.0012915 -9.1074e-05 -6.6365e-07)
(0.0014258 -8.1965e-05 -1.224e-06)
(0.0015078 -3.2196e-05 -1.7203e-06)
(0.0015159 7.8279e-06 -2.3307e-06)
(0.0014948 7.2553e-06 -3.0469e-06)
(0.001501 -2.6726e-05 -3.1521e-06)
(0.0015635 -6.9735e-05 -3.5368e-06)
(0.0016856 -0.00011332 -3.535e-06)
(0.0018645 -0.00015661 -3.2189e-06)
(0.0021016 -0.0002042 -2.6374e-06)
(0.0024071 -0.00026273 -1.8846e-06)
(0.0028005 -0.0003377 -1.0303e-06)
(0.0033048 -0.00042942 -1.5984e-07)
(0.0039406 -0.00053714 5.808e-07)
(0.0047289 -0.00066613 1.0442e-06)
(0.0057049 -0.00083257 1.3154e-06)
(0.006933 -0.0010591 1.3532e-06)
(0.0085072 -0.001361 1.2125e-06)
(0.010529 -0.0017349 1.0871e-06)
(0.013082 -0.0021694 1.018e-06)
(0.01624 -0.002669 1.0682e-06)
(0.0201 -0.0032701 1.2789e-06)
(0.024833 -0.0040305 1.5837e-06)
(0.030686 -0.0049932 1.8529e-06)
(0.037933 -0.0061486 2.2397e-06)
(0.04679 -0.0074305 2.5628e-06)
(0.057349 -0.0087519 2.8447e-06)
(0.069598 -0.010063 3.0413e-06)
(0.083505 -0.011382 3.1362e-06)
(0.099109 -0.012752 3.0319e-06)
(0.11648 -0.014134 2.7081e-06)
(0.13554 -0.015338 2.2315e-06)
(0.15586 -0.01602 1.7493e-06)
(0.17649 -0.015796 1.1487e-06)
(0.19602 -0.014391 5.7853e-07)
(0.21278 -0.011758 3.9872e-07)
(0.22525 -0.0081867 1.5585e-07)
(0.23267 -0.0044425 1.4213e-07)
(0.2352 -0.00091742 6.1049e-08)
(0.23281 0.0029737 -1.1048e-06)
(0.22597 0.0062406 -5.5029e-07)
(0.21538 0.0092124 -1.2929e-06)
(0.20106 0.011877 -2.1391e-06)
(0.18344 0.013572 -2.7926e-06)
(0.16456 0.012979 -1.649e-06)
(0.14942 0.0085464 -8.2306e-07)
(0.14134 0.0010051 3.6164e-07)
(0.0012006 -3.1241e-05 7.5633e-06)
(0.0012965 -6.8927e-05 1.6524e-05)
(0.0014195 -6.2697e-05 1.4281e-05)
(0.0014982 -2.6057e-05 4.5403e-06)
(0.0015119 3.5478e-06 -4.8425e-06)
(0.0014984 3.2951e-06 -4.8249e-06)
(0.0015097 -2.2227e-05 2.5681e-06)
(0.0015739 -5.5906e-05 1.0516e-05)
(0.0016961 -9.0478e-05 1.8679e-05)
(0.0018754 -0.00012521 2.7222e-05)
(0.0021142 -0.00016355 3.7077e-05)
(0.0024229 -0.00021059 4.9372e-05)
(0.0028203 -0.00027038 6.4947e-05)
(0.0033287 -0.00034353 8.3586e-05)
(0.0039692 -0.00042967 0.00010488)
(0.0047648 -0.00053331 0.00013)
(0.0057525 -0.00066734 0.00016235)
(0.0069968 -0.0008491 0.0002062)
(0.0085887 -0.0010901 0.00026417)
(0.010626 -0.001388 0.0003352)
(0.013195 -0.0017346 0.00041698)
(0.016373 -0.0021346 0.00051085)
(0.020265 -0.0026166 0.00062455)
(0.02504 -0.0032246 0.00076882)
(0.030938 -0.0039901 0.00095053)
(0.038222 -0.0049048 0.0011659)
(0.047097 -0.0059167 0.0014005)
(0.057657 -0.0069597 0.0016381)
(0.069901 -0.0079964 0.0018709)
(0.083806 -0.0090405 0.0021042)
(0.099404 -0.01012 0.0023458)
(0.11674 -0.0112 0.0025855)
(0.1357 -0.012126 0.0027833)
(0.15582 -0.012631 0.0028741)
(0.17618 -0.012415 0.0027904)
(0.19537 -0.011264 0.0024936)
(0.21183 -0.0091413 0.0019989)
(0.22409 -0.00627 0.0013949)
(0.23141 -0.0032159 0.00088232)
(0.23388 -0.00029305 0.00058813)
(0.23162 0.0027016 0.00019833)
(0.22499 0.0052681 -0.00045728)
(0.21448 0.0076271 -0.0010373)
(0.20037 0.0097003 -0.001569)
(0.1832 0.010964 -0.0019283)
(0.16504 0.010443 -0.0019074)
(0.15067 0.0069089 -0.0012228)
(0.1431 0.00093459 6.6139e-05)
(0.001208 -2.2686e-05 1.4976e-05)
(0.001299 -5.0166e-05 3.3046e-05)
(0.0014166 -4.5778e-05 2.9608e-05)
(0.0014936 -1.935e-05 1.1474e-05)
(0.0015099 2.7979e-06 -4.2468e-06)
(0.0015003 2.447e-06 -4.3263e-06)
(0.0015141 -1.6976e-05 8.6268e-06)
(0.0015791 -4.1803e-05 2.4763e-05)
(0.0017013 -6.7323e-05 4.1503e-05)
(0.0018809 -9.3125e-05 5.8812e-05)
(0.0021205 -0.00012174 7.843e-05)
(0.0024307 -0.00015684 0.00010269)
(0.00283 -0.00020134 0.00013338)
(0.0033405 -0.00025568 0.00017044)
(0.0039835 -0.00031966 0.00021348)
(0.0047828 -0.00039683 0.00026484)
(0.0057765 -0.00049688 0.00033099)
(0.0070289 -0.00063261 0.00042039)
(0.0086296 -0.00081216 0.00053841)
(0.010676 -0.0010335 0.00068351)
(0.013252 -0.0012908 0.00085162)
(0.01644 -0.0015877 0.0010454)
(0.020347 -0.0019459 0.0012797)
(0.025144 -0.0023972 0.0015755)
(0.031065 -0.0029639 0.0019474)
(0.038367 -0.0036382 0.0023886)
(0.047251 -0.0043812 0.0028722)
(0.057812 -0.0051444 0.0033658)
(0.070053 -0.0059015 0.0038528)
(0.083957 -0.0066633 0.0043413)
(0.09955 -0.0074491 0.0048448)
(0.11686 -0.0082297 0.005343)
(0.13577 -0.0088881 0.0057568)
(0.1558 -0.0092265 0.0059551)
(0.17601 -0.0090288 0.0057976)
(0.19505 -0.0081462 0.0051926)
(0.21135 -0.0065646 0.0041415)
(0.22351 -0.0044655 0.0027787)
(0.2308 -0.0022874 0.0014216)
(0.23328 -0.00030024 0.00024514)
(0.23109 0.0016968 -0.0010298)
(0.22451 0.0035638 -0.0023274)
(0.21403 0.0052819 -0.0034975)
(0.2 0.006799 -0.0045275)
(0.18303 0.0077402 -0.0051781)
(0.16518 0.0073905 -0.0049571)
(0.15113 0.0048697 -0.0032805)
(0.14379 0.00055713 -0.00041857)
(0.001208 -1.5044e-05 2.262e-05)
(0.001299 -3.3211e-05 4.9992e-05)
(0.0014167 -3.0137e-05 4.5226e-05)
(0.0014938 -1.2417e-05 1.8338e-05)
(0.0015101 2.7386e-06 -4.3512e-06)
(0.0015005 2.3096e-06 -4.5415e-06)
(0.0015142 -1.1152e-05 1.4324e-05)
(0.0015792 -2.7534e-05 3.8863e-05)
(0.0017013 -4.4215e-05 6.445e-05)
(0.0018807 -6.1081e-05 9.0716e-05)
(0.0021202 -7.9871e-05 0.0001202)
(0.0024303 -0.00010295 0.00015652)
(0.0028296 -0.00013226 0.0002025)
(0.0033401 -0.00016796 0.00025826)
(0.0039832 -0.00020988 0.00032344)
(0.0047827 -0.00026049 0.00040151)
(0.0057765 -0.00032629 0.00050189)
(0.007029 -0.00041598 0.00063736)
(0.0086299 -0.0005347 0.00081622)
(0.010676 -0.00068068 0.0010366)
(0.013253 -0.00084967 0.001293)
(0.01644 -0.0010441 0.0015893)
(0.020347 -0.0012787 0.0019471)
(0.025143 -0.0015745 0.0023983)
(0.031065 -0.0019459 0.0029654)
(0.038367 -0.0023866 0.0036403)
(0.047251 -0.0028698 0.0043838)
(0.057812 -0.0033631 0.0051474)
(0.070053 -0.0038501 0.0059047)
(0.083957 -0.0043389 0.006666)
(0.09955 -0.0048432 0.007451)
(0.11686 -0.0053424 0.0082303)
(0.13577 -0.0057573 0.0088874)
(0.1558 -0.0059565 0.0092247)
(0.17601 -0.0057996 0.0090262)
(0.19505 -0.0051948 0.0081433)
(0.21135 -0.0041436 0.0065618)
(0.22351 -0.0027801 0.0044637)
(0.2308 -0.0014221 0.0022871)
(0.23328 -0.00024446 0.00030182)
(0.23109 0.0010317 -0.0016935)
(0.22451 0.0023302 -0.0035591)
(0.21403 0.003502 -0.005275)
(0.2 0.004533 -0.0067902)
(0.18303 0.0051839 -0.0077309)
(0.16518 0.0049621 -0.0073829)
(0.15113 0.0032835 -0.0048652)
(0.14379 0.00041966 -0.00055542)
(0.0012007 -7.6235e-06 3.1183e-05)
(0.0012967 -1.6645e-05 6.8761e-05)
(0.0014198 -1.4763e-05 6.215e-05)
(0.0014987 -5.3675e-06 2.5038e-05)
(0.0015124 3.4462e-06 -5.0348e-06)
(0.0014989 2.8716e-06 -5.4432e-06)
(0.00151 -4.9903e-06 1.9483e-05)
(0.001574 -1.3158e-05 5.2873e-05)
(0.0016958 -2.1299e-05 8.7523e-05)
(0.0018748 -2.9392e-05 0.00012274)
(0.0021133 -3.8472e-05 0.00016201)
(0.0024217 -4.9642e-05 0.0002103)
(0.002819 -6.3893e-05 0.00027163)
(0.0033275 -8.1207e-05 0.00034629)
(0.0039683 -0.00010146 0.00043371)
(0.0047643 -0.0001259 0.00053828)
(0.0057525 -0.00015795 0.00067254)
(0.0069972 -0.00020211 0.00085395)
(0.0085895 -0.00026081 0.0010941)
(0.010627 -0.00033273 0.001391)
(0.013196 -0.00041537 0.0017366)
(0.016373 -0.00050987 0.0021359)
(0.020265 -0.00062378 0.0026177)
(0.02504 -0.00076788 0.0032255)
(0.030938 -0.00094923 0.0039915)
(0.038222 -0.0011641 0.0049067)
(0.047097 -0.0013983 0.0059191)
(0.057657 -0.0016356 0.0069625)
(0.069901 -0.0018685 0.0079992)
(0.083806 -0.0021021 0.0090429)
(0.099404 -0.0023443 0.010122)
(0.11674 -0.0025847 0.011201)
(0.1357 -0.0027834 0.012125)
(0.15582 -0.002875 0.012629)
(0.17618 -0.0027917 0.012412)
(0.19537 -0.0024952 0.011261)
(0.21183 -0.0020003 0.0091382)
(0.22409 -0.0013961 0.0062681)
(0.23141 -0.00088296 0.0032157)
(0.23388 -0.00058796 0.0002952)
(0.23162 -0.00019901 -0.0026981)
(0.22498 0.00045795 -0.0052622)
(0.21448 0.0010392 -0.0076178)
(0.20037 0.001571 -0.0096891)
(0.1832 0.0019308 -0.010953)
(0.16504 0.0019096 -0.010434)
(0.15067 0.001224 -0.0069033)
(0.14311 -6.5627e-05 -0.0009326)
(0.0011854 1.5978e-07 4.1416e-05)
(0.0012919 5.6572e-07 9.089e-05)
(0.0014264 7.8392e-07 8.1415e-05)
(0.0015085 9.5175e-07 3.1189e-05)
(0.0015168 1.2541e-06 -9.4137e-06)
(0.0014957 1.0698e-06 -9.4813e-06)
(0.0015016 7.9728e-07 2.3866e-05)
(0.0015637 7.8787e-07 6.663e-05)
(0.0016852 8.2209e-07 0.00011029)
(0.0018635 9.5125e-07 0.00015413)
(0.0021 1.1853e-06 0.00020273)
(0.0024051 1.5938e-06 0.00026262)
(0.0027984 2.1014e-06 0.00033912)
(0.0033029 2.5772e-06 0.00043248)
(0.0039391 2.9691e-06 0.00054156)
(0.0047281 3.224e-06 0.00067139)
(0.0057049 3.2523e-06 0.00083796)
(0.0069338 2.9523e-06 0.0010639)
(0.0085085 2.3573e-06 0.0013648)
(0.01053 1.6022e-06 0.0017375)
(0.013083 7.9977e-07 0.0021709)
(0.01624 1.2948e-07 0.0026697)
(0.020101 -3.5827e-07 0.0032708)
(0.024833 -5.4582e-07 0.0040312)
(0.030685 -3.6476e-07 0.0049944)
(0.037932 -1.1004e-07 0.0061501)
(0.046789 1.5142e-07 0.0074324)
(0.057349 2.5444e-07 0.0087542)
(0.069598 6.63e-08 0.010065)
(0.083506 -3.7953e-07 0.011384)
(0.09911 -1.0073e-06 0.012753)
(0.11648 -1.6762e-06 0.014134)
(0.13554 -2.1309e-06 0.015337)
(0.15587 -2.2058e-06 0.016018)
(0.17649 -2.0505e-06 0.015793)
(0.19602 -1.9518e-06 0.014388)
(0.21278 -1.6922e-06 0.011755)
(0.22525 -1.4035e-06 0.0081849)
(0.23267 -1.1073e-06 0.0044424)
(0.2352 -7.942e-07 0.00091952)
(0.2328 -7.6614e-07 -0.0029702)
(0.22597 5.3026e-07 -0.0062342)
(0.21537 1.2475e-06 -0.0092038)
(0.20106 2.116e-06 -0.011864)
(0.18344 2.2547e-06 -0.013559)
(0.16457 2.1326e-06 -0.012968)
(0.14942 1.2157e-06 -0.0085399)
(0.14134 -3.2394e-07 -0.0010028)
(0.0011616 7.3025e-06 5.4762e-05)
(0.0012851 1.6596e-05 0.00011981)
(0.0014381 1.5668e-05 0.00010646)
(0.0015262 7.9804e-06 3.889e-05)
(0.0015251 1.1496e-06 -1.3107e-05)
(0.0014897 1.3284e-06 -1.1854e-05)
(0.001488 8.8395e-06 2.9679e-05)
(0.0015487 1.7839e-05 8.4978e-05)
(0.0016702 2.669e-05 0.00013985)
(0.0018476 3.5799e-05 0.00019412)
(0.0020812 4.702e-05 0.00025445)
(0.0023812 6.2102e-05 0.0003298)
(0.0027685 8.1285e-05 0.00042708)
(0.0032673 0.00010312 0.00054534)
(0.0038972 0.00012622 0.00068143)
(0.0046761 0.00015297 0.00084162)
(0.0056357 0.00018995 0.0010484)
(0.0068405 0.00024357 0.001333)
(0.008389 0.00031486 0.0017155)
(0.010387 0.00039798 0.0021882)
(0.012918 0.00048593 0.0027308)
(0.016045 0.00058113 0.0033475)
(0.019858 0.00069789 0.0040898)
(0.024525 0.00085513 0.0050391)
(0.030305 0.001058 0.0062545)
(0.037493 0.0012898 0.007717)
(0.046316 0.0015137 0.0093271)
(0.056864 0.0017027 0.010961)
(0.069103 0.0018554 0.012556)
(0.082985 0.0019939 0.014151)
(0.098557 0.002134 0.015819)
(0.11593 0.0022495 0.017517)
(0.13507 0.0022596 0.018981)
(0.15558 0.0020557 0.019735)
(0.1765 0.001552 0.019251)
(0.19633 0.00072644 0.017174)
(0.21335 -0.00036883 0.013477)
(0.22588 -0.0015935 0.0085819)
(0.23317 -0.0025844 0.0036923)
(0.23573 -0.0027285 -0.00034821)
(0.23347 -0.0024574 -0.0043571)
(0.22665 -0.0025867 -0.0081322)
(0.21604 -0.0030021 -0.011581)
(0.20158 -0.0035565 -0.014953)
(0.18344 -0.0040338 -0.017349)
(0.16373 -0.0040005 -0.016945)
(0.14787 -0.0030021 -0.011582)
(0.13931 -0.0011579 -0.0018608)
(0.0011778 -4.1624e-05 -1.6195e-05)
(0.0012895 -9.1547e-05 -3.6034e-05)
(0.0014297 -8.2473e-05 -3.3231e-05)
(0.0015143 -3.2611e-05 -1.4883e-05)
(0.0015191 5.7552e-06 -1.2e-08)
(0.001492 4.9114e-06 -1.4167e-06)
(0.0014961 -2.771e-05 -1.5721e-05)
(0.0015592 -7.1523e-05 -3.3064e-05)
(0.0016815 -0.00011564 -4.9992e-05)
(0.0018603 -0.00015926 -6.6711e-05)
(0.0020964 -0.00020747 -8.5481e-05)
(0.0024003 -0.00026717 -0.00010925)
(0.0027919 -0.0003439 -0.00013988)
(0.0032945 -0.00043732 -0.00017678)
(0.0039283 -0.00054592 -0.00021881)
(0.0047132 -0.0006756 -0.00026883)
(0.0056831 -0.00084366 -0.0003349)
(0.0069032 -0.0010744 -0.00042746)
(0.0084692 -0.001383 -0.00055156)
(0.010484 -0.0017641 -0.0007028)
(0.01303 -0.0022034 -0.00087324)
(0.016178 -0.0027051 -0.0010647)
(0.020022 -0.0033083 -0.0012952)
(0.024733 -0.0040757 -0.0015917)
(0.030561 -0.0050514 -0.0019699)
(0.037787 -0.0062212 -0.0024174)
(0.046628 -0.0075085 -0.0028945)
(0.057173 -0.0088191 -0.0033602)
(0.069401 -0.010104 -0.003799)
(0.083273 -0.01139 -0.0042294)
(0.098832 -0.012727 -0.0046755)
(0.11616 -0.014074 -0.0051139)
(0.13518 -0.015223 -0.0054459)
(0.15548 -0.015803 -0.0055114)
(0.17609 -0.015407 -0.0051491)
(0.19557 -0.013756 -0.0042717)
(0.21224 -0.010819 -0.0029114)
(0.22454 -0.0069154 -0.0012548)
(0.23171 -0.0029326 0.00020446)
(0.23413 0.00059459 0.0011087)
(0.23199 0.0041177 0.0017582)
(0.22543 0.007193 0.0027854)
(0.21493 0.010071 0.0038239)
(0.20068 0.012766 0.004899)
(0.18302 0.014562 0.0056849)
(0.1641 0.014039 0.0056102)
(0.14906 0.009532 0.0039628)
(0.14108 0.0016911 0.00087727)
(0.0012003 -3.1242e-05 -7.9896e-06)
(0.0012962 -6.8941e-05 -1.7803e-05)
(0.0014191 -6.2736e-05 -1.6679e-05)
(0.0014979 -2.6068e-05 -7.9112e-06)
(0.0015115 3.5187e-06 3.0744e-07)
(0.0014982 3.2415e-06 -8.5702e-07)
(0.0015096 -2.2347e-05 -8.8655e-06)
(0.0015738 -5.6049e-05 -1.728e-05)
(0.0016962 -9.0637e-05 -2.5387e-05)
(0.0018757 -0.00012537 -3.3327e-05)
(0.0021146 -0.00016371 -4.2045e-05)
(0.0024234 -0.00021071 -5.2885e-05)
(0.0028208 -0.00027052 -6.6797e-05)
(0.0033291 -0.00034358 -8.3773e-05)
(0.0039696 -0.00042969 -0.00010372)
(0.004765 -0.00053332 -0.0001279)
(0.0057526 -0.00066734 -0.00015976)
(0.0069967 -0.00084915 -0.00020361)
(0.0085886 -0.0010902 -0.00026178)
(0.010626 -0.0013881 -0.00033305)
(0.013195 -0.0017348 -0.00041494)
(0.016373 -0.0021348 -0.00050868)
(0.020265 -0.0026168 -0.00062194)
(0.02504 -0.0032247 -0.00076555)
(0.030939 -0.0039904 -0.00094667)
(0.038222 -0.004905 -0.0011614)
(0.047097 -0.0059169 -0.0013953)
(0.057657 -0.0069598 -0.0016323)
(0.0699 -0.0079964 -0.0018648)
(0.083805 -0.0090403 -0.0020981)
(0.099402 -0.01012 -0.00234)
(0.11673 -0.0112 -0.0025804)
(0.13569 -0.012126 -0.0027793)
(0.15582 -0.01263 -0.0028712)
(0.17617 -0.012413 -0.0027885)
(0.19537 -0.011263 -0.0024927)
(0.21182 -0.00914 -0.0019984)
(0.22408 -0.0062687 -0.0013949)
(0.2314 -0.0032145 -0.00088241)
(0.23387 -0.00029163 -0.00058823)
(0.23161 0.0027032 -0.00019995)
(0.22498 0.00527 0.00045561)
(0.21447 0.0076289 0.0010344)
(0.20036 0.0097017 0.0015651)
(0.1832 0.010966 0.0019244)
(0.16504 0.010444 0.0019045)
(0.15066 0.0069091 0.001221)
(0.1431 0.00093481 -6.617e-05)
(0.0012148 -2.2037e-05 -2.1272e-07)
(0.001301 -4.8895e-05 -6.3093e-07)
(0.0014133 -4.5031e-05 -1.1784e-06)
(0.0014888 -1.9727e-05 -1.675e-06)
(0.0015076 4.7298e-07 -2.278e-06)
(0.0015018 3.8548e-07 -2.8362e-06)
(0.0015181 -1.7235e-05 -3.072e-06)
(0.001584 -4.2003e-05 -3.3047e-06)
(0.0017065 -6.7812e-05 -3.2649e-06)
(0.0018865 -9.4006e-05 -2.9654e-06)
(0.0021273 -0.00012299 -2.4014e-06)
(0.0024391 -0.00015837 -1.6949e-06)
(0.0028404 -0.00020308 -8.6138e-07)
(0.0033527 -0.00025775 -6.6799e-08)
(0.0039978 -0.00032245 5.9276e-07)
(0.0048006 -0.00040081 1.0506e-06)
(0.0057999 -0.00050227 1.2868e-06)
(0.0070599 -0.00063925 1.3196e-06)
(0.0086688 -0.00081994 1.2329e-06)
(0.010722 -0.0010429 1.12e-06)
(0.013306 -0.0013031 1.0812e-06)
(0.016504 -0.0016046 1.1876e-06)
(0.020426 -0.0019685 1.4115e-06)
(0.025242 -0.0024257 1.7441e-06)
(0.031184 -0.0029985 2.0738e-06)
(0.038502 -0.0036802 2.4096e-06)
(0.047392 -0.0044337 2.718e-06)
(0.057951 -0.0052118 2.9557e-06)
(0.070188 -0.0059883 3.07e-06)