/*--------------------------------*- C++ -*----------------------------------*\
| =========                 |                                                 |
| \\      /  F ield         | OpenFOAM: The Open Source CFD Toolbox           |
|  \\    /   O peration     | Version:  4.1                                   |
|   \\  /    A nd           | Web:      www.OpenFOAM.org                      |
|    \\/     M anipulation  |                                                 |
\*---------------------------------------------------------------------------*/
FoamFile
{
    version     2.0;
    format      ascii;
    class       pointVectorField;
    location    "0.0021";
    object      pointDisplacement_Next;
}
// * * * * * * * * * * * * * * * * * * * * * * * * * * * * * * * * * * * * * //

dimensions      [0 1 0 0 0 0 0];

internalField   uniform (0 0 0);

boundaryField
{
    inlet
    {
        type            fixedValue;
        value           uniform (0 0 0);
    }
    outlet
    {
        type            fixedValue;
        value           uniform (0 0 0);
    }
    mantle
    {
        type            fixedValue;
        value           nonuniform List<vector> 
1568
(
(2.9428e-12 -2.3704e-11 -3.2353e-17)
(7.5249e-06 -6.2668e-05 -6.9038e-11)
(7.5728e-06 -6.0219e-05 1.1252e-05)
(1.6887e-09 -2.2182e-07 -1.0327e-07)
(7.6343e-06 -5.5275e-05 2.2874e-05)
(2.8683e-12 -2.2147e-11 8.5916e-12)
(7.6545e-06 -5.0357e-05 3.4472e-05)
(5.6877e-09 -7.1624e-08 2.288e-07)
(7.6424e-06 -4.4079e-05 4.408e-05)
(3.1215e-12 -1.6746e-11 1.6746e-11)
(7.6545e-06 -3.4472e-05 5.0357e-05)
(5.6886e-09 -2.288e-07 7.1622e-08)
(7.6343e-06 -2.2874e-05 5.5275e-05)
(2.8682e-12 -8.5915e-12 2.2147e-11)
(7.5727e-06 -1.1252e-05 6.022e-05)
(1.6862e-09 1.0327e-07 2.2182e-07)
(7.5247e-06 2.0189e-10 6.2669e-05)
(2.9428e-12 8.1614e-17 2.3704e-11)
(1.4167e-05 -0.00011165 -1.1092e-10)
(1.4248e-05 -0.00010681 2.0184e-05)
(1.4347e-05 -9.817e-05 4.0651e-05)
(1.4381e-05 -8.9378e-05 6.0948e-05)
(1.4367e-05 -7.8424e-05 7.8424e-05)
(1.4381e-05 -6.0948e-05 8.9378e-05)
(1.4347e-05 -4.0651e-05 9.8171e-05)
(1.4248e-05 -2.0183e-05 0.00010681)
(1.4167e-05 3.4653e-10 0.00011165)
(1.8679e-05 -0.00012996 -1.4946e-10)
(1.8692e-05 -0.00012646 2.4684e-05)
(1.8747e-05 -0.00011788 4.8872e-05)
(1.8788e-05 -0.00010622 7.1576e-05)
(1.8816e-05 -9.1109e-05 9.1109e-05)
(1.8788e-05 -7.1575e-05 0.00010622)
(1.8747e-05 -4.8872e-05 0.00011788)
(1.8692e-05 -2.4684e-05 0.00012646)
(1.8679e-05 4.0268e-10 0.00012996)
(1.9452e-05 -0.0001284 -1.9033e-10)
(1.9415e-05 -0.00012664 2.5414e-05)
(1.9449e-05 -0.00011945 4.9572e-05)
(1.9429e-05 -0.00010671 7.114e-05)
(1.947e-05 -8.9844e-05 8.9845e-05)
(1.9429e-05 -7.114e-05 0.00010671)
(1.9449e-05 -4.9572e-05 0.00011945)
(1.9415e-05 -2.5414e-05 0.00012664)
(1.9452e-05 4.1178e-10 0.0001284)
(1.6214e-05 -0.00012286 -2.4256e-10)
(1.6333e-05 -0.0001208 2.4253e-05)
(1.6436e-05 -0.00011387 4.7199e-05)
(1.6281e-05 -0.00010183 6.7798e-05)
(1.6139e-05 -8.5976e-05 8.5977e-05)
(1.6281e-05 -6.7798e-05 0.00010183)
(1.6436e-05 -4.7199e-05 0.00011387)
(1.6333e-05 -2.4253e-05 0.0001208)
(1.6215e-05 4.1738e-10 0.00012286)
(1.16e-05 -0.00011523 -3.0887e-10)
(1.1875e-05 -0.00011268 2.2381e-05)
(1.2048e-05 -0.00010573 4.3767e-05)
(1.1783e-05 -9.4904e-05 6.3396e-05)
(1.1467e-05 -8.0723e-05 8.0723e-05)
(1.1783e-05 -6.3395e-05 9.4905e-05)
(1.2049e-05 -4.3767e-05 0.00010574)
(1.1875e-05 -2.238e-05 0.00011268)
(1.1601e-05 4.253e-10 0.00011523)
(8.3186e-06 -0.00010353 -3.861e-10)
(8.3949e-06 -0.0001011 1.9915e-05)
(8.4279e-06 -9.4651e-05 3.9187e-05)
(8.2839e-06 -8.5118e-05 5.7065e-05)
(8.1607e-06 -7.2633e-05 7.2633e-05)
(8.2841e-06 -5.7065e-05 8.5118e-05)
(8.4282e-06 -3.9187e-05 9.4652e-05)
(8.3954e-06 -1.9915e-05 0.0001011)
(8.3192e-06 4.1918e-10 0.00010353)
(5.8296e-06 -8.8431e-05 -4.7362e-10)
(5.7065e-06 -8.6341e-05 1.7036e-05)
(5.5812e-06 -8.0843e-05 3.3516e-05)
(5.5805e-06 -7.2795e-05 4.8834e-05)
(5.6513e-06 -6.217e-05 6.217e-05)
(5.5806e-06 -4.8834e-05 7.2795e-05)
(5.5816e-06 -3.3516e-05 8.0843e-05)
(5.707e-06 -1.7036e-05 8.6341e-05)
(5.8302e-06 4.0422e-10 8.843e-05)
(2.8492e-06 -7.1458e-05 8.5948e-12)
(2.7574e-06 -6.9953e-05 1.3848e-05)
(2.6284e-06 -6.5705e-05 2.7258e-05)
(2.6153e-06 -5.9152e-05 3.9664e-05)
(2.6463e-06 -5.0433e-05 5.0432e-05)
(2.6155e-06 -3.9664e-05 5.9152e-05)
(2.6287e-06 -2.7258e-05 6.5705e-05)
(2.7579e-06 -1.3848e-05 6.9953e-05)
(2.8497e-06 -2.0156e-10 7.1457e-05)
(-5.1196e-07 -5.531e-05 -6.3011e-10)
(-5.6748e-07 -5.4368e-05 1.0821e-05)
(-6.5081e-07 -5.1312e-05 2.1278e-05)
(-7.0252e-07 -4.6215e-05 3.0911e-05)
(-7.0962e-07 -3.9278e-05 3.9277e-05)
(-7.0237e-07 -3.0911e-05 4.6214e-05)
(-6.5053e-07 -2.1278e-05 5.1312e-05)
(-5.6709e-07 -1.0821e-05 5.4368e-05)
(-5.115e-07 3.3679e-10 5.531e-05)
(-3.6684e-06 -4.2217e-05 -6.3621e-10)
(-3.7094e-06 -4.151e-05 8.2398e-06)
(-3.7765e-06 -3.9278e-05 1.6251e-05)
(-3.7925e-06 -3.5498e-05 2.3721e-05)
(-3.7871e-06 -3.0238e-05 3.0238e-05)
(-3.7924e-06 -2.3722e-05 3.5498e-05)
(-3.7762e-06 -1.6251e-05 3.9278e-05)
(-3.7091e-06 -8.2401e-06 4.1509e-05)
(-3.668e-06 2.6967e-10 4.2216e-05)
(-6.0321e-06 -3.2731e-05 -7.3878e-10)
(-6.0628e-06 -3.2126e-05 6.3072e-06)
(-6.1114e-06 -3.038e-05 1.2529e-05)
(-6.0812e-06 -2.7619e-05 1.8494e-05)
(-6.0553e-06 -2.3669e-05 2.3669e-05)
(-6.0811e-06 -1.8494e-05 2.7618e-05)
(-6.1112e-06 -1.2529e-05 3.0379e-05)
(-6.0625e-06 -6.3076e-06 3.2126e-05)
(-6.0317e-06 3.2617e-10 3.273e-05)
(-7.2945e-06 -2.6174e-05 -2.7502e-10)
(-7.3152e-06 -2.5666e-05 5.0252e-06)
(-7.3317e-06 -2.428e-05 1.0032e-05)
(-7.2925e-06 -2.2124e-05 1.485e-05)
(-7.2608e-06 -1.9012e-05 1.9011e-05)
(-7.2924e-06 -1.4851e-05 2.2124e-05)
(-7.3315e-06 -1.0032e-05 2.428e-05)
(-7.3149e-06 -5.0256e-06 2.5666e-05)
(-7.2941e-06 -1.5651e-10 2.6173e-05)
(-7.5857e-06 -2.138e-05 -7.8778e-10)
(-7.5997e-06 -2.0935e-05 4.0974e-06)
(-7.606e-06 -1.9789e-05 8.212e-06)
(-7.5595e-06 -1.8053e-05 1.2144e-05)
(-7.5309e-06 -1.5543e-05 1.5543e-05)
(-7.5594e-06 -1.2145e-05 1.8052e-05)
(-7.6059e-06 -8.2125e-06 1.9788e-05)
(-7.5994e-06 -4.0979e-06 2.0935e-05)
(-7.5854e-06 3.6086e-10 2.138e-05)
(-7.3322e-06 -1.7151e-05 -2.6357e-09)
(-7.3513e-06 -1.6815e-05 3.3001e-06)
(-7.3578e-06 -1.5907e-05 6.5833e-06)
(-7.3179e-06 -1.4504e-05 9.7395e-06)
(-7.2844e-06 -1.2469e-05 1.2466e-05)
(-7.3178e-06 -9.74e-06 1.4504e-05)
(-7.3576e-06 -6.5839e-06 1.5907e-05)
(-7.3511e-06 -3.3006e-06 1.6815e-05)
(-7.3319e-06 2.2449e-09 1.7151e-05)
(-6.9615e-06 -1.3088e-05 -7.2514e-10)
(-6.9874e-06 -1.284e-05 2.512e-06)
(-6.9989e-06 -1.2169e-05 5.0177e-06)
(-6.9612e-06 -1.1091e-05 7.4338e-06)
(-6.9253e-06 -9.5293e-06 9.5289e-06)
(-6.9612e-06 -7.4343e-06 1.1091e-05)
(-6.9987e-06 -5.0181e-06 1.2169e-05)
(-6.9871e-06 -2.5125e-06 1.284e-05)
(-6.9612e-06 3.8757e-10 1.3088e-05)
(-6.7408e-06 -9.3084e-06 -7.362e-10)
(-6.7514e-06 -9.1905e-06 1.8292e-06)
(-6.7523e-06 -8.7754e-06 3.6226e-06)
(-6.7256e-06 -7.9824e-06 5.3172e-06)
(-6.7044e-06 -6.8063e-06 6.8059e-06)
(-6.7255e-06 -5.3175e-06 7.9822e-06)
(-6.7521e-06 -3.623e-06 8.7753e-06)
(-6.7511e-06 -1.8296e-06 9.1905e-06)
(-6.7405e-06 4.5557e-10 9.3085e-06)
(-6.6071e-06 -6.3515e-06 -6.1283e-10)
(-6.6012e-06 -6.3325e-06 1.2934e-06)
(-6.5921e-06 -6.1056e-06 2.5336e-06)
(-6.5745e-06 -5.5413e-06 3.6664e-06)
(-6.5679e-06 -4.6763e-06 4.6761e-06)
(-6.5744e-06 -3.6667e-06 5.5411e-06)
(-6.592e-06 -2.5339e-06 6.1055e-06)
(-6.601e-06 -1.2937e-06 6.3325e-06)
(-6.6068e-06 3.9514e-10 6.3515e-06)
(-6.381e-06 -4.683e-06 -1.0381e-09)
(-6.3777e-06 -4.6388e-06 9.3762e-07)
(-6.3688e-06 -4.4506e-06 1.8439e-06)
(-6.3554e-06 -4.0563e-06 2.6951e-06)
(-6.3491e-06 -3.4499e-06 3.4505e-06)
(-6.3553e-06 -2.6953e-06 4.0562e-06)
(-6.3686e-06 -1.8441e-06 4.4505e-06)
(-6.3776e-06 -9.3779e-07 4.6388e-06)
(-6.3808e-06 8.8954e-10 4.683e-06)
(-5.9609e-06 -3.7917e-06 -4.7159e-10)
(-5.9631e-06 -3.6998e-06 7.1942e-07)
(-5.9644e-06 -3.5004e-06 1.4432e-06)
(-5.9478e-06 -3.2099e-06 2.1564e-06)
(-5.9394e-06 -2.7802e-06 2.7801e-06)
(-5.9477e-06 -2.1565e-06 3.2098e-06)
(-5.9642e-06 -1.4433e-06 3.5003e-06)
(-5.9629e-06 -7.195e-07 3.6997e-06)
(-5.9607e-06 3.8776e-10 3.7917e-06)
(-5.3462e-06 -3.0895e-06 -3.2515e-10)
(-5.3575e-06 -3.0122e-06 5.8004e-07)
(-5.3659e-06 -2.8388e-06 1.171e-06)
(-5.3473e-06 -2.6047e-06 1.7562e-06)
(-5.3316e-06 -2.2593e-06 2.2591e-06)
(-5.3472e-06 -1.7562e-06 2.6046e-06)
(-5.3658e-06 -1.171e-06 2.8387e-06)
(-5.3574e-06 -5.8005e-07 3.0122e-06)
(-5.346e-06 2.9655e-10 3.0895e-06)
(-4.7068e-06 -2.363e-06 -3.3373e-10)
(-4.7269e-06 -2.3095e-06 4.4877e-07)
(-4.7399e-06 -2.1808e-06 9.0353e-07)
(-4.7195e-06 -2.0016e-06 1.3503e-06)
(-4.6962e-06 -1.7334e-06 1.7335e-06)
(-4.7195e-06 -1.3502e-06 2.0016e-06)
(-4.7398e-06 -9.0348e-07 2.1807e-06)
(-4.7268e-06 -4.4873e-07 2.3094e-06)
(-4.7066e-06 3.4026e-10 2.3629e-06)
(-4.2128e-06 -1.6464e-06 -2.687e-10)
(-4.2243e-06 -1.6214e-06 3.206e-07)
(-4.2338e-06 -1.5448e-06 6.4012e-07)
(-4.219e-06 -1.4164e-06 9.4974e-07)
(-4.2052e-06 -1.2173e-06 1.2174e-06)
(-4.2189e-06 -9.4967e-07 1.4164e-06)
(-4.2337e-06 -6.4005e-07 1.5447e-06)
(-4.2241e-06 -3.2054e-07 1.6213e-06)
(-4.2126e-06 2.8978e-10 1.6463e-06)
(-3.8509e-06 -1.0636e-06 -2.3609e-10)
(-3.8552e-06 -1.0572e-06 2.0904e-07)
(-3.8597e-06 -1.0158e-06 4.1917e-07)
(-3.8507e-06 -9.3161e-07 6.2287e-07)
(-3.8447e-06 -7.9614e-07 7.9619e-07)
(-3.8507e-06 -6.228e-07 9.3161e-07)
(-3.8596e-06 -4.1909e-07 1.0157e-06)
(-3.855e-06 -2.0898e-07 1.0571e-06)
(-3.8507e-06 2.5625e-10 1.0634e-06)
(-3.5446e-06 -7.3981e-07 -1.9155e-10)
(-3.5434e-06 -7.3204e-07 1.4531e-07)
(-3.5414e-06 -7.0386e-07 2.909e-07)
(-3.5383e-06 -6.4781e-07 4.3267e-07)
(-3.5373e-06 -5.5627e-07 5.5626e-07)
(-3.5383e-06 -4.3261e-07 6.4779e-07)
(-3.5413e-06 -2.9083e-07 7.0378e-07)
(-3.5433e-06 -1.4526e-07 7.319e-07)
(-3.5444e-06 2.031e-10 7.3961e-07)
(-3.2399e-06 -5.9798e-07 -1.8121e-10)
(-3.2354e-06 -5.8504e-07 1.1417e-07)
(-3.2301e-06 -5.5409e-07 2.3048e-07)
(-3.2307e-06 -5.1616e-07 3.4681e-07)
(-3.2322e-06 -4.4597e-07 4.4598e-07)
(-3.2306e-06 -3.4677e-07 5.1612e-07)
(-3.23e-06 -2.3043e-07 5.5398e-07)
(-3.2354e-06 -1.1413e-07 5.8486e-07)
(-3.2398e-06 1.8009e-10 5.9773e-07)
(-2.9217e-06 -5.2103e-07 -1.608e-10)
(-2.9202e-06 -5.0693e-07 9.7552e-08)
(-2.9183e-06 -4.7713e-07 1.977e-07)
(-2.9171e-06 -4.402e-07 2.9819e-07)
(-2.9172e-06 -3.8389e-07 3.8389e-07)
(-2.9171e-06 -2.9815e-07 4.4014e-07)
(-2.9183e-06 -1.9765e-07 4.7699e-07)
(-2.9202e-06 -9.7515e-08 5.0669e-07)
(-2.9217e-06 1.4706e-10 5.207e-07)
(-2.6265e-06 -4.2501e-07 -1.3348e-10)
(-2.6296e-06 -4.1238e-07 7.8952e-08)
(-2.6314e-06 -3.8795e-07 1.6012e-07)
(-2.6287e-06 -3.5648e-07 2.4113e-07)
(-2.6254e-06 -3.1109e-07 3.111e-07)
(-2.6287e-06 -2.4108e-07 3.5641e-07)
(-2.6315e-06 -1.6005e-07 3.8777e-07)
(-2.6297e-06 -7.8899e-08 4.1207e-07)
(-2.6266e-06 1.3383e-10 4.246e-07)
(-2.3922e-06 -2.9071e-07 -1.0875e-10)
(-2.3923e-06 -2.8761e-07 5.7549e-08)
(-2.3923e-06 -2.7566e-07 1.1405e-07)
(-2.3916e-06 -2.5103e-07 1.6719e-07)
(-2.3912e-06 -2.1389e-07 2.1392e-07)
(-2.3916e-06 -1.671e-07 2.5096e-07)
(-2.3924e-06 -1.1393e-07 2.7546e-07)
(-2.3924e-06 -5.745e-08 2.8727e-07)
(-2.3923e-06 1.4363e-10 2.9025e-07)
(-2.2021e-06 -1.7007e-07 -7.097e-11)
(-2.2003e-06 -1.7573e-07 3.8456e-08)
(-2.1979e-06 -1.7443e-07 7.2673e-08)
(-2.1995e-06 -1.5721e-07 1.014e-07)
(-2.2001e-06 -1.2725e-07 1.2735e-07)
(-2.1996e-06 -1.0122e-07 1.5718e-07)
(-2.198e-06 -7.2462e-08 1.7424e-07)
(-2.2005e-06 -3.8271e-08 1.7539e-07)
(-2.2023e-06 1.7717e-10 1.6959e-07)
(-2.0257e-06 -1.2197e-07 -4.4239e-11)
(-2.0245e-06 -1.2381e-07 2.683e-08)
(-2.0233e-06 -1.2235e-07 5.0848e-08)
(-2.0233e-06 -1.1048e-07 7.1618e-08)
(-2.0241e-06 -9.1108e-08 9.1351e-08)
(-2.0234e-06 -7.1306e-08 1.1054e-07)
(-2.0235e-06 -5.0498e-08 1.2223e-07)
(-2.0247e-06 -2.6513e-08 1.2351e-07)
(-2.0261e-06 2.6399e-10 1.2151e-07)
(-1.8491e-06 -1.145e-07 3.4629e-11)
(-1.8494e-06 -1.1128e-07 2.2036e-08)
(-1.85e-06 -1.0582e-07 4.3638e-08)
(-1.8489e-06 -9.6907e-08 6.4772e-08)
(-1.8485e-06 -8.3861e-08 8.4226e-08)
(-1.849e-06 -6.4286e-08 9.7093e-08)
(-1.8502e-06 -4.3108e-08 1.0579e-07)
(-1.8497e-06 -2.1545e-08 1.1105e-07)
(-1.8495e-06 3.4142e-10 1.141e-07)
(-1.6734e-06 -1.0338e-07 1.1125e-10)
(-1.674e-06 -1.0047e-07 1.9537e-08)
(-1.6748e-06 -9.453e-08 3.9164e-08)
(-1.6739e-06 -8.6709e-08 5.8688e-08)
(-1.6732e-06 -7.5152e-08 7.5714e-08)
(-1.674e-06 -5.7988e-08 8.7066e-08)
(-1.675e-06 -3.8413e-08 9.4644e-08)
(-1.6744e-06 -1.883e-08 1.0034e-07)
(-1.6738e-06 4.6303e-10 1.0305e-07)
(-1.5063e-06 -8.0724e-08 1.9889e-10)
(-1.5078e-06 -7.9145e-08 1.5674e-08)
(-1.5087e-06 -7.4828e-08 3.1437e-08)
(-1.5077e-06 -6.838e-08 4.6744e-08)
(-1.5062e-06 -5.8875e-08 5.9668e-08)
(-1.5078e-06 -4.5798e-08 6.8944e-08)
(-1.5089e-06 -3.0434e-08 7.5117e-08)
(-1.5081e-06 -1.4718e-08 7.9154e-08)
(-1.5067e-06 6.0725e-10 8.049e-08)
(-1.358e-06 -5.6457e-08 2.9195e-10)
(-1.3586e-06 -5.5639e-08 1.1481e-08)
(-1.3594e-06 -5.2958e-08 2.2578e-08)
(-1.3585e-06 -4.835e-08 3.3225e-08)
(-1.3578e-06 -4.1266e-08 4.2312e-08)
(-1.3586e-06 -3.2014e-08 4.9149e-08)
(-1.3596e-06 -2.1305e-08 5.3455e-08)
(-1.359e-06 -1.0259e-08 5.582e-08)
(-1.3585e-06 7.6595e-10 5.6363e-08)
(-1.2222e-06 -3.8637e-08 3.8708e-10)
(-1.2224e-06 -3.813e-08 7.9913e-09)
(-1.2229e-06 -3.6111e-08 1.5688e-08)
(-1.2222e-06 -3.3008e-08 2.3228e-08)
(-1.222e-06 -2.8094e-08 2.9398e-08)
(-1.2223e-06 -2.1748e-08 3.4052e-08)
(-1.2231e-06 -1.414e-08 3.6838e-08)
(-1.2227e-06 -6.4997e-09 3.8514e-08)
(-1.2226e-06 9.2677e-10 3.8714e-08)
(-1.0918e-06 -3.2731e-08 4.8183e-10)
(-1.0917e-06 -3.1584e-08 6.6423e-09)
(-1.0918e-06 -2.9367e-08 1.3054e-08)
(-1.0916e-06 -2.6964e-08 1.9562e-08)
(-1.0917e-06 -2.3415e-08 2.4961e-08)
(-1.0917e-06 -1.7829e-08 2.8239e-08)
(-1.092e-06 -1.1248e-08 3.0313e-08)
(-1.092e-06 -4.8965e-09 3.2176e-08)
(-1.0921e-06 1.072e-09 3.2997e-08)
(-9.6616e-07 -3.2324e-08 5.6669e-10)
(-9.6654e-07 -3.0521e-08 6.4632e-09)
(-9.6643e-07 -2.78e-08 1.2605e-08)
(-9.6672e-07 -2.585e-08 1.9089e-08)
(-9.6615e-07 -2.2797e-08 2.4554e-08)
(-9.6677e-07 -1.7131e-08 2.7324e-08)
(-9.6653e-07 -1.0565e-08 2.8931e-08)
(-9.6669e-07 -4.4894e-09 3.1278e-08)
(-9.6634e-07 1.1963e-09 3.2727e-08)
(-8.4872e-07 -2.9279e-08 6.4384e-10)
(-8.4903e-07 -2.8273e-08 6.1255e-09)
(-8.4946e-07 -2.6067e-08 1.202e-08)
(-8.4903e-07 -2.371e-08 1.7886e-08)
(-8.4872e-07 -2.0515e-08 2.2428e-08)
(-8.4903e-07 -1.5745e-08 2.5331e-08)
(-8.4946e-07 -9.7883e-09 2.7319e-08)
(-8.4904e-07 -3.9651e-09 2.9112e-08)
(-8.4872e-07 1.2845e-09 2.9719e-08)
(-7.4022e-07 -2.6572e-08 6.8599e-10)
(-7.4063e-07 -2.5906e-08 5.54e-09)
(-7.4096e-07 -2.3623e-08 1.1076e-08)
(-7.4057e-07 -2.149e-08 1.6694e-08)
(-7.4012e-07 -1.8491e-08 2.0516e-08)
(-7.4053e-07 -1.4436e-08 2.3192e-08)
(-7.4087e-07 -8.7189e-09 2.4923e-08)
(-7.405e-07 -3.2604e-09 2.6744e-08)
(-7.4004e-07 1.3448e-09 2.6971e-08)
(-6.4024e-07 -2.5628e-08 7.0899e-10)
(-6.3921e-07 -2.2451e-08 3.8772e-09)
(-6.3825e-07 -1.8244e-08 8.8336e-09)
(-6.3907e-07 -1.771e-08 1.5306e-08)
(-6.4e-07 -1.7594e-08 1.9649e-08)
(-6.3899e-07 -1.3022e-08 1.9429e-08)
(-6.3809e-07 -6.4571e-09 1.9533e-08)
(-6.3897e-07 -1.5748e-09 2.3249e-08)
(-6.3994e-07 1.3472e-09 2.5971e-08)
(-5.4198e-07 -1.044e-08 7.0182e-10)
(-5.3982e-07 -5.0769e-09 -6.3359e-11)
(-5.3804e-07 -4.5349e-10 1.372e-09)
(-5.3965e-07 -2.5281e-09 5.5686e-09)
(-5.4169e-07 -6.6604e-09 8.6508e-09)
(-5.3954e-07 -3.3706e-09 4.2053e-09)
(-5.3782e-07 9.0889e-10 1.7305e-09)
(-5.3951e-07 2.2769e-09 5.8947e-09)
(-5.4159e-07 1.2883e-09 1.0831e-08)
(-4.4534e-07 2.4004e-08 6.5965e-10)
(-4.4502e-07 2.459e-08 -4.9028e-09)
(-4.445e-07 2.4691e-08 -9.1642e-09)
(-4.4495e-07 2.1824e-08 -1.2211e-08)
(-4.4519e-07 1.7687e-08 -1.5875e-08)
(-4.4482e-07 1.4207e-08 -2.0258e-08)
(-4.4424e-07 1.1241e-08 -2.3428e-08)
(-4.4465e-07 6.9146e-09 -2.3675e-08)
(-4.4488e-07 1.1545e-09 -2.3418e-08)
(-3.7067e-07 3.1499e-08 5.9196e-10)
(-3.7201e-07 2.8335e-08 -5.0012e-09)
(-3.7212e-07 2.6468e-08 -1.0011e-08)
(-3.7202e-07 2.4374e-08 -1.4942e-08)
(-3.7065e-07 2.2805e-08 -2.1252e-08)
(-3.7186e-07 1.6657e-08 -2.3003e-08)
(-3.7179e-07 1.1803e-08 -2.5317e-08)
(-3.7154e-07 6.7327e-09 -2.744e-08)
(-3.7008e-07 9.6862e-10 -3.0844e-08)
(-3.2492e-07 -1.7832e-08 5.0456e-10)
(-3.2284e-07 -1.4875e-08 1.8908e-09)
(-3.2086e-07 -1.0893e-08 5.3563e-09)
(-3.2279e-07 -1.1288e-08 1.0628e-08)
(-3.2478e-07 -1.2361e-08 1.3619e-08)
(-3.2259e-07 -9.2452e-09 1.2374e-08)
(-3.2046e-07 -3.9204e-09 1.176e-08)
(-3.2224e-07 -4.9403e-10 1.5492e-08)
(-3.2416e-07 7.6409e-10 1.8225e-08)
(-2.6465e-07 -6.7039e-08 3.7434e-10)
(-2.5915e-07 -5.7708e-08 8.683e-09)
(-2.5494e-07 -4.7518e-08 2.0339e-08)
(-2.5902e-07 -4.6617e-08 3.5844e-08)
(-2.6438e-07 -4.739e-08 4.8277e-08)
(-2.5883e-07 -3.4875e-08 4.7345e-08)
(-2.5455e-07 -1.9341e-08 4.8031e-08)
(-2.5855e-07 -7.7036e-09 5.7975e-08)
(-2.6387e-07 5.2249e-10 6.7096e-08)
(-1.4992e-07 -5.4132e-08 1.9134e-10)
(-1.4745e-07 -4.9285e-08 7.8484e-09)
(-1.4503e-07 -4.2329e-08 1.788e-08)
(-1.4734e-07 -4.0252e-08 2.9929e-08)
(-1.4972e-07 -3.8306e-08 3.8736e-08)
(-1.4723e-07 -2.9455e-08 4.0593e-08)
(-1.4479e-07 -1.7392e-08 4.2541e-08)
(-1.4707e-07 -7.369e-09 4.9353e-08)
(-1.4944e-07 2.4324e-10 5.4089e-08)
(-5.9303e-14 -2.2263e-14 6.9622e-17)
(-2.6194e-10 -4.5527e-10 -3.8448e-10)
(-7.6574e-14 -4.3002e-14 1.6227e-14)
(-2.5885e-10 -5.6758e-11 5.9753e-10)
(-3.271e-14 9.6069e-15 -9.2708e-15)
(-2.609e-10 -5.9686e-10 6.0451e-11)
(-7.6435e-14 -1.6193e-14 4.3013e-14)
(-2.5813e-10 3.8569e-10 4.5107e-10)
(-5.9119e-14 7.9484e-17 2.2243e-14)
(7.5727e-06 1.1252e-05 6.022e-05)
(1.6867e-09 -1.0327e-07 2.2183e-07)
(7.6343e-06 2.2875e-05 5.5275e-05)
(2.8682e-12 8.5917e-12 2.2147e-11)
(7.6545e-06 3.4473e-05 5.0357e-05)
(5.6891e-09 2.288e-07 7.1625e-08)
(7.6424e-06 4.408e-05 4.408e-05)
(3.1216e-12 1.6746e-11 1.6746e-11)
(7.6545e-06 5.0357e-05 3.4472e-05)
(5.6875e-09 7.1628e-08 2.288e-07)
(7.6343e-06 5.5275e-05 2.2874e-05)
(2.8683e-12 2.2147e-11 8.5917e-12)
(7.5728e-06 6.0219e-05 1.1252e-05)
(1.6885e-09 2.2181e-07 -1.0328e-07)
(7.5249e-06 6.2668e-05 -1.3954e-10)
(2.9428e-12 2.3704e-11 -4.957e-17)
(1.4248e-05 2.0184e-05 0.00010681)
(1.4347e-05 4.0652e-05 9.8171e-05)
(1.4381e-05 6.0948e-05 8.9378e-05)
(1.4367e-05 7.8425e-05 7.8424e-05)
(1.4381e-05 8.9378e-05 6.0948e-05)
(1.4347e-05 9.8171e-05 4.0651e-05)
(1.4248e-05 0.00010681 2.0183e-05)
(1.4167e-05 0.00011165 -2.5326e-10)
(1.8692e-05 2.4685e-05 0.00012646)
(1.8747e-05 4.8873e-05 0.00011788)
(1.8788e-05 7.1577e-05 0.00010622)
(1.8816e-05 9.111e-05 9.1109e-05)
(1.8788e-05 0.00010622 7.1576e-05)
(1.8747e-05 0.00011788 4.8872e-05)
(1.8692e-05 0.00012646 2.4684e-05)
(1.8679e-05 0.00012996 -2.7661e-10)
(1.9415e-05 2.5415e-05 0.00012664)
(1.9449e-05 4.9573e-05 0.00011945)
(1.9429e-05 7.1141e-05 0.00010671)
(1.947e-05 8.9846e-05 8.9845e-05)
(1.9429e-05 0.00010671 7.114e-05)
(1.9449e-05 0.00011945 4.9572e-05)
(1.9415e-05 0.00012664 2.5414e-05)
(1.9452e-05 0.0001284 -2.657e-10)
(1.6333e-05 2.4254e-05 0.0001208)
(1.6436e-05 4.72e-05 0.00011387)
(1.6282e-05 6.7799e-05 0.00010183)
(1.6139e-05 8.5978e-05 8.5977e-05)
(1.6281e-05 0.00010183 6.7798e-05)
(1.6436e-05 0.00011387 4.7199e-05)
(1.6333e-05 0.0001208 2.4253e-05)
(1.6214e-05 0.00012286 -3.3097e-10)
(1.1875e-05 2.2381e-05 0.00011268)
(1.2049e-05 4.3768e-05 0.00010574)
(1.1783e-05 6.3397e-05 9.4905e-05)
(1.1468e-05 8.0724e-05 8.0723e-05)
(1.1783e-05 9.4905e-05 6.3396e-05)
(1.2049e-05 0.00010574 4.3766e-05)
(1.1875e-05 0.00011268 2.238e-05)
(1.16e-05 0.00011523 -4.2531e-10)
(8.3955e-06 1.9916e-05 0.0001011)
(8.4284e-06 3.9188e-05 9.4651e-05)
(8.2844e-06 5.7066e-05 8.5117e-05)
(8.1611e-06 7.2633e-05 7.2633e-05)
(8.2843e-06 8.5118e-05 5.7065e-05)
(8.4282e-06 9.4652e-05 3.9187e-05)
(8.3952e-06 0.0001011 1.9915e-05)
(8.3189e-06 0.00010353 -5.1381e-10)
(5.7071e-06 1.7037e-05 8.634e-05)
(5.5818e-06 3.3517e-05 8.0843e-05)
(5.5809e-06 4.8835e-05 7.2795e-05)
(5.6516e-06 6.217e-05 6.2169e-05)
(5.5808e-06 7.2796e-05 4.8834e-05)
(5.5816e-06 8.0843e-05 3.3516e-05)
(5.7069e-06 8.6341e-05 1.7036e-05)
(5.83e-06 8.843e-05 -6.0118e-10)
(2.7579e-06 1.3849e-05 6.9952e-05)
(2.6288e-06 2.7259e-05 6.5704e-05)
(2.6156e-06 3.9664e-05 5.9151e-05)
(2.6465e-06 5.0434e-05 5.0432e-05)
(2.6156e-06 5.9152e-05 3.9663e-05)
(2.6287e-06 6.5705e-05 2.7258e-05)
(2.7579e-06 6.9953e-05 1.3848e-05)
(2.8497e-06 7.1458e-05 -1.2082e-10)
(-5.671e-07 1.0822e-05 5.4368e-05)
(-6.5054e-07 2.1279e-05 5.1311e-05)
(-7.0235e-07 3.0912e-05 4.6214e-05)
(-7.0954e-07 3.9278e-05 3.9277e-05)
(-7.0232e-07 4.6215e-05 3.0911e-05)
(-6.5048e-07 5.1312e-05 2.1278e-05)
(-5.6701e-07 5.4368e-05 1.0821e-05)
(-5.114e-07 5.531e-05 -7.4936e-10)
(-3.7091e-06 8.2407e-06 4.1509e-05)
(-3.7763e-06 1.6252e-05 3.9277e-05)
(-3.7924e-06 2.3722e-05 3.5497e-05)
(-3.787e-06 3.0239e-05 3.0237e-05)
(-3.7923e-06 3.5498e-05 2.3721e-05)
(-3.7762e-06 3.9278e-05 1.625e-05)
(-3.709e-06 4.1509e-05 8.2395e-06)
(-3.6679e-06 4.2216e-05 -8.6765e-10)
(-6.0625e-06 6.3083e-06 3.2126e-05)
(-6.1112e-06 1.253e-05 3.0379e-05)
(-6.0811e-06 1.8495e-05 2.7618e-05)
(-6.0553e-06 2.367e-05 2.3668e-05)
(-6.0811e-06 2.7619e-05 1.8493e-05)
(-6.1112e-06 3.038e-05 1.2528e-05)
(-6.0625e-06 3.2126e-05 6.307e-06)
(-6.0318e-06 3.273e-05 -8.489e-10)
(-7.3149e-06 5.0263e-06 2.5666e-05)
(-7.3315e-06 1.0033e-05 2.4279e-05)
(-7.2924e-06 1.4851e-05 2.2124e-05)
(-7.2607e-06 1.9013e-05 1.9011e-05)
(-7.2924e-06 2.2125e-05 1.485e-05)
(-7.3315e-06 2.428e-05 1.0031e-05)
(-7.315e-06 2.5666e-05 5.025e-06)
(-7.2942e-06 2.6174e-05 -3.4842e-10)
(-7.5994e-06 4.0986e-06 2.0935e-05)
(-7.6058e-06 8.2132e-06 1.9788e-05)
(-7.5593e-06 1.2145e-05 1.8052e-05)
(-7.5308e-06 1.5544e-05 1.5542e-05)
(-7.5594e-06 1.8053e-05 1.2144e-05)
(-7.6059e-06 1.9789e-05 8.2118e-06)
(-7.5995e-06 2.0935e-05 4.0973e-06)
(-7.5855e-06 2.138e-05 -8.213e-10)
(-7.351e-06 3.3014e-06 1.6815e-05)
(-7.3575e-06 6.5845e-06 1.5907e-05)
(-7.3177e-06 9.7406e-06 1.4504e-05)
(-7.2843e-06 1.2467e-05 1.2468e-05)
(-7.3177e-06 1.4505e-05 9.7394e-06)
(-7.3576e-06 1.5908e-05 6.5832e-06)
(-7.3511e-06 1.6815e-05 3.3001e-06)
(-7.332e-06 1.7152e-05 -2.6499e-09)
(-6.9871e-06 2.5132e-06 1.284e-05)
(-6.9986e-06 5.0189e-06 1.2168e-05)
(-6.961e-06 7.4349e-06 1.1091e-05)
(-6.9252e-06 9.5299e-06 9.5288e-06)
(-6.9611e-06 1.1092e-05 7.4337e-06)
(-6.9987e-06 1.2169e-05 5.0176e-06)
(-6.9872e-06 1.284e-05 2.512e-06)
(-6.9613e-06 1.3088e-05 -7.3326e-10)
(-6.7511e-06 1.8303e-06 9.1904e-06)
(-6.7521e-06 3.6237e-06 8.7751e-06)
(-6.7254e-06 5.3182e-06 7.982e-06)
(-6.7043e-06 6.8069e-06 6.8057e-06)
(-6.7255e-06 7.983e-06 5.317e-06)
(-6.7521e-06 8.7759e-06 3.6225e-06)
(-6.7512e-06 9.191e-06 1.8292e-06)
(-6.7406e-06 9.3089e-06 -7.3752e-10)
(-6.601e-06 1.2945e-06 6.3323e-06)
(-6.5919e-06 2.5345e-06 6.1052e-06)
(-6.5743e-06 3.6672e-06 5.5408e-06)
(-6.5678e-06 4.6768e-06 4.6757e-06)
(-6.5744e-06 5.5417e-06 3.6661e-06)
(-6.592e-06 6.106e-06 2.5334e-06)
(-6.6011e-06 6.3328e-06 1.2933e-06)
(-6.6069e-06 6.3517e-06 -6.1141e-10)
(-6.3775e-06 9.3854e-07 4.6386e-06)
(-6.3686e-06 1.8447e-06 4.4501e-06)
(-6.3553e-06 2.6958e-06 4.0558e-06)
(-6.349e-06 3.4503e-06 3.45e-06)
(-6.3554e-06 4.0566e-06 2.6948e-06)
(-6.3687e-06 4.4508e-06 1.8437e-06)
(-6.3777e-06 4.639e-06 9.3749e-07)
(-6.3809e-06 4.683e-06 -1.035e-09)
(-5.9629e-06 7.2022e-07 3.6995e-06)
(-5.9643e-06 1.4439e-06 3.4999e-06)
(-5.9477e-06 2.1569e-06 3.2093e-06)
(-5.9394e-06 2.7805e-06 2.7796e-06)
(-5.9477e-06 3.2101e-06 2.156e-06)
(-5.9643e-06 3.5005e-06 1.4429e-06)
(-5.963e-06 3.6997e-06 7.1926e-07)
(-5.9609e-06 3.7916e-06 -4.6711e-10)
(-5.3574e-06 5.8074e-07 3.0119e-06)
(-5.3658e-06 1.1716e-06 2.8383e-06)
(-5.3472e-06 1.7566e-06 2.6041e-06)
(-5.3316e-06 2.2594e-06 2.2588e-06)
(-5.3473e-06 2.6047e-06 1.7558e-06)
(-5.366e-06 2.8387e-06 1.1707e-06)
(-5.3576e-06 3.012e-06 5.7986e-07)
(-5.3462e-06 3.0893e-06 -3.2209e-10)
(-4.7268e-06 4.4936e-07 2.3092e-06)
(-4.7398e-06 9.0396e-07 2.1803e-06)
(-4.7195e-06 1.3505e-06 2.001e-06)
(-4.6963e-06 1.7335e-06 1.7329e-06)
(-4.7196e-06 2.0015e-06 1.3498e-06)
(-4.74e-06 2.1805e-06 9.0316e-07)
(-4.727e-06 2.3092e-06 4.4858e-07)
(-4.7069e-06 2.3626e-06 -3.3095e-10)
(-4.2242e-06 3.2109e-07 1.621e-06)
(-4.2338e-06 6.4046e-07 1.5443e-06)
(-4.219e-06 9.4988e-07 1.4158e-06)
(-4.2054e-06 1.2173e-06 1.2167e-06)
(-4.2191e-06 1.4162e-06 9.4921e-07)
(-4.234e-06 1.5445e-06 6.3974e-07)
(-4.2245e-06 1.621e-06 3.204e-07)
(-4.213e-06 1.646e-06 -2.8408e-10)
(-3.8551e-06 2.0945e-07 1.0568e-06)
(-3.8597e-06 4.1942e-07 1.0153e-06)
(-3.8508e-06 6.2293e-07 9.3104e-07)
(-3.8449e-06 7.9606e-07 7.9559e-07)
(-3.851e-06 9.3134e-07 6.2234e-07)
(-3.8599e-06 1.0154e-06 4.1879e-07)
(-3.8554e-06 1.0567e-06 2.0885e-07)
(-3.8511e-06 1.063e-06 -2.2581e-10)
(-3.5434e-06 1.4564e-07 7.3167e-07)
(-3.5415e-06 2.9108e-07 7.0336e-07)
(-3.5385e-06 4.3267e-07 6.4725e-07)
(-3.5375e-06 5.5612e-07 5.5568e-07)
(-3.5386e-06 6.4747e-07 4.3216e-07)
(-3.5417e-06 7.0336e-07 2.9053e-07)
(-3.5438e-06 7.3146e-07 1.4513e-07)
(-3.5449e-06 7.3922e-07 -1.7527e-10)
(-3.2355e-06 1.1444e-07 5.8464e-07)
(-3.2302e-06 2.3061e-07 5.5358e-07)
(-3.2309e-06 3.4676e-07 5.156e-07)
(-3.2325e-06 4.4576e-07 4.4542e-07)
(-3.231e-06 5.1575e-07 3.4632e-07)
(-3.2305e-06 5.5352e-07 2.3012e-07)
(-3.2359e-06 5.8439e-07 1.1399e-07)
(-3.2404e-06 5.9731e-07 -1.5912e-10)
(-2.9203e-06 9.7765e-08 5.0648e-07)
(-2.9185e-06 1.9777e-07 4.766e-07)
(-2.9174e-06 2.9809e-07 4.3963e-07)
(-2.9176e-06 3.8363e-07 3.8333e-07)
(-2.9175e-06 4.3974e-07 2.977e-07)
(-2.9189e-06 4.7651e-07 1.9734e-07)
(-2.9208e-06 5.0621e-07 9.7384e-08)
(-2.9222e-06 5.2028e-07 -1.3048e-10)
(-2.6298e-06 7.9118e-08 4.1187e-07)
(-2.6317e-06 1.6014e-07 3.8739e-07)
(-2.629e-06 2.41e-07 3.559e-07)
(-2.6258e-06 3.108e-07 3.1054e-07)
(-2.6292e-06 3.56e-07 2.4064e-07)
(-2.6321e-06 3.8729e-07 1.5977e-07)
(-2.6303e-06 4.1161e-07 7.8784e-08)
(-2.6272e-06 4.2421e-07 -1.0708e-10)
(-2.3926e-06 5.7687e-08 2.8707e-07)
(-2.3927e-06 1.1404e-07 2.7508e-07)
(-2.392e-06 1.6704e-07 2.5046e-07)
(-2.3917e-06 2.1363e-07 2.1337e-07)
(-2.3922e-06 2.5056e-07 1.667e-07)
(-2.3931e-06 2.7501e-07 1.1369e-07)
(-2.3931e-06 2.8684e-07 5.7376e-08)
(-2.3929e-06 2.8991e-07 -7.7994e-11)
(-2.2007e-06 3.8583e-08 1.7519e-07)
(-2.1983e-06 7.2656e-08 1.7387e-07)
(-2.2001e-06 1.0123e-07 1.5668e-07)
(-2.2007e-06 1.2706e-07 1.268e-07)
(-2.2003e-06 1.568e-07 1.009e-07)
(-2.1987e-06 1.7383e-07 7.2303e-08)
(-2.2012e-06 1.7502e-07 3.8272e-08)
(-2.2029e-06 1.6932e-07 -4.9538e-11)
(-2.0249e-06 2.6961e-08 1.2331e-07)
(-2.0239e-06 5.0824e-08 1.2184e-07)
(-2.0239e-06 7.1448e-08 1.1002e-07)
(-2.0248e-06 9.1059e-08 9.0744e-08)
(-2.0241e-06 1.1016e-07 7.1088e-08)
(-2.0242e-06 1.2184e-07 5.0451e-08)
(-2.0254e-06 1.2318e-07 2.6628e-08)
(-2.0267e-06 1.213e-07 9.2949e-12)
(-1.8499e-06 2.2181e-08 1.1083e-07)
(-1.8506e-06 4.3611e-08 1.0537e-07)
(-1.8495e-06 6.459e-08 9.6528e-08)
(-1.8491e-06 8.3924e-08 8.36e-08)
(-1.8497e-06 9.6721e-08 6.4193e-08)
(-1.8509e-06 1.0542e-07 4.3203e-08)
(-1.8504e-06 1.1076e-07 2.1811e-08)
(-1.8501e-06 1.1395e-07 4.4342e-11)
(-1.6746e-06 1.9704e-08 1.0009e-07)
(-1.6754e-06 3.9137e-08 9.4171e-08)
(-1.6745e-06 5.8488e-08 8.6431e-08)
(-1.6738e-06 7.5388e-08 7.5016e-08)
(-1.6746e-06 8.6684e-08 5.8045e-08)
(-1.6756e-06 9.4289e-08 3.8682e-08)
(-1.675e-06 1.0009e-07 1.9285e-08)
(-1.6743e-06 1.0298e-07 1.1429e-10)
(-1.5083e-06 1.5873e-08 7.8867e-08)
(-1.5093e-06 3.1419e-08 7.458e-08)
(-1.5083e-06 4.6532e-08 6.8231e-08)
(-1.5068e-06 5.9321e-08 5.8889e-08)
(-1.5084e-06 6.8552e-08 4.6035e-08)
(-1.5095e-06 7.4774e-08 3.0908e-08)
(-1.5087e-06 7.8951e-08 1.5395e-08)
(-1.5072e-06 8.0494e-08 1.9774e-10)
(-1.3591e-06 1.1724e-08 5.5499e-08)
(-1.3599e-06 2.2582e-08 5.2858e-08)
(-1.359e-06 3.3017e-08 4.8362e-08)
(-1.3584e-06 4.1961e-08 4.1462e-08)
(-1.3591e-06 4.8753e-08 3.2456e-08)
(-1.3601e-06 5.3124e-08 2.2008e-08)
(-1.3594e-06 5.5652e-08 1.1181e-08)
(-1.3588e-06 5.6431e-08 2.8902e-10)
(-1.2228e-06 8.2809e-09 3.8158e-08)
(-1.2234e-06 1.5719e-08 3.6182e-08)
(-1.2227e-06 2.3034e-08 3.3198e-08)
(-1.2224e-06 2.9048e-08 2.8484e-08)
(-1.2228e-06 3.3651e-08 2.2405e-08)
(-1.2235e-06 3.6505e-08 1.5078e-08)
(-1.223e-06 3.8363e-08 7.6692e-09)
(-1.2229e-06 3.8825e-08 3.8414e-10)
(-1.0921e-06 6.9663e-09 3.1782e-08)
(-1.0922e-06 1.3103e-08 2.9594e-08)
(-1.092e-06 1.9372e-08 2.7317e-08)
(-1.092e-06 2.4602e-08 2.3985e-08)
(-1.092e-06 2.7813e-08 1.868e-08)
(-1.0922e-06 2.995e-08 1.2393e-08)
(-1.0922e-06 3.2007e-08 6.2902e-09)
(-1.0923e-06 3.3114e-08 4.7558e-10)
(-9.6672e-07 6.8007e-09 3.0834e-08)
(-9.6659e-07 1.2644e-08 2.8127e-08)
(-9.6688e-07 1.8867e-08 2.6306e-08)
(-9.6629e-07 2.4143e-08 2.3488e-08)
(-9.6689e-07 2.6823e-08 1.8124e-08)
(-9.6662e-07 2.8484e-08 1.1875e-08)
(-9.6675e-07 3.1037e-08 6.0708e-09)
(-9.6638e-07 3.28e-08 5.6143e-10)
(-8.4901e-07 6.4563e-09 2.8612e-08)
(-8.4942e-07 1.2018e-08 2.6415e-08)
(-8.4898e-07 1.7588e-08 2.419e-08)
(-8.4865e-07 2.1921e-08 2.1236e-08)
(-8.4896e-07 2.4707e-08 1.681e-08)
(-8.4938e-07 2.6744e-08 1.1208e-08)
(-8.4895e-07 2.8756e-08 5.6878e-09)
(-8.4864e-07 2.9706e-08 6.3822e-10)
(-7.4043e-07 5.8486e-09 2.6203e-08)
(-7.4073e-07 1.1018e-08 2.3939e-08)
(-7.4034e-07 1.6307e-08 2.1947e-08)
(-7.3988e-07 1.9886e-08 1.9211e-08)
(-7.4029e-07 2.2449e-08 1.552e-08)
(-7.4064e-07 2.4233e-08 1.0195e-08)
(-7.4029e-07 2.6287e-08 5.0684e-09)
(-7.3987e-07 2.6876e-08 6.8058e-10)
(-6.3888e-07 4.1612e-09 2.2716e-08)
(-6.3789e-07 8.7425e-09 1.8555e-08)
(-6.387e-07 1.487e-08 1.8167e-08)
(-6.3964e-07 1.8964e-08 1.8311e-08)
(-6.3864e-07 1.8653e-08 1.4113e-08)
(-6.3777e-07 1.8834e-08 7.9517e-09)
(-6.387e-07 2.2779e-08 3.4092e-09)
(-6.3971e-07 2.5852e-08 7.0484e-10)
(-5.3939e-07 2.0116e-10 5.4214e-09)
(-5.3759e-07 1.2991e-09 8.6193e-10)
(-5.3919e-07 5.1838e-09 3.0771e-09)
(-5.4124e-07 8.0419e-09 7.4429e-09)
(-5.3912e-07 3.5396e-09 4.5005e-09)
(-5.3744e-07 1.1528e-09 5.879e-10)
(-5.3918e-07 5.5266e-09 -4.7845e-10)
(-5.4133e-07 1.0773e-08 6.9891e-10)
(-4.4451e-07 -4.6676e-09 -2.4058e-08)
(-4.4396e-07 -9.1848e-09 -2.4116e-08)
(-4.4441e-07 -1.245e-08 -2.1119e-08)
(-4.4466e-07 -1.6265e-08 -1.6769e-08)
(-4.4432e-07 -2.0703e-08 -1.3017e-08)
(-4.4379e-07 -2.381e-08 -9.7757e-09)
(-4.4427e-07 -2.3875e-08 -5.2333e-09)
(-4.4457e-07 -2.3349e-08 6.5748e-10)
(-3.7137e-07 -4.8263e-09 -2.7742e-08)
(-3.7145e-07 -1.0024e-08 -2.5849e-08)
(-3.7134e-07 -1.5101e-08 -2.3641e-08)
(-3.6998e-07 -2.1499e-08 -2.1882e-08)
(-3.7124e-07 -2.3308e-08 -1.5532e-08)