/*--------------------------------*- C++ -*----------------------------------*\
| =========                 |                                                 |
| \\      /  F ield         | OpenFOAM: The Open Source CFD Toolbox           |
|  \\    /   O peration     | Version:  4.1                                   |
|   \\  /    A nd           | Web:      www.OpenFOAM.org                      |
|    \\/     M anipulation  |                                                 |
\*---------------------------------------------------------------------------*/
FoamFile
{
    version     2.0;
    format      ascii;
    class       surfaceScalarField;
    location    "0.0044";
    object      phi;
}
// * * * * * * * * * * * * * * * * * * * * * * * * * * * * * * * * * * * * * //

dimensions      [0 3 -1 0 0 0 0];

internalField   nonuniform List<scalar> 
4288
(
-8.453e-09
1.3717e-10
1.3731e-10
-1.8724e-10
-1.8737e-10
-8.9333e-09
1.7941e-10
1.7962e-10
-2.4501e-10
-2.4493e-10
-9.4883e-09
2.2875e-10
2.2912e-10
-3.136e-10
-3.1361e-10
-1.0137e-08
2.8424e-10
2.8483e-10
-3.9191e-10
-3.915e-10
-1.0888e-08
3.4661e-10
3.4748e-10
-4.7988e-10
-4.7916e-10
-1.1752e-08
4.1839e-10
4.1965e-10
-5.8054e-10
-5.7946e-10
-1.2757e-08
5.0311e-10
5.0486e-10
-6.9926e-10
-6.9749e-10
-1.3951e-08
6.0251e-10
6.0484e-10
-8.3954e-10
-8.3738e-10
-1.5393e-08
7.1438e-10
7.1729e-10
-1.0004e-09
-9.978e-10
-1.7125e-08
8.3218e-10
8.3573e-10
-1.1739e-09
-1.1709e-09
-1.9161e-08
9.4857e-10
9.5257e-10
-1.3486e-09
-1.346e-09
1.0577e-09
1.0619e-09
-1.5167e-09
-1.5118e-09
-8.4687e-09
1.2707e-10
1.7789e-10
-3.0323e-10
-8.9562e-09
1.6528e-10
2.3076e-10
-3.931e-10
-9.5173e-09
2.1105e-10
2.9403e-10
-5.0359e-10
-1.0171e-08
2.6385e-10
3.6806e-10
-6.3428e-10
-1.0927e-08
3.2336e-10
4.535e-10
-7.8395e-10
-1.1801e-08
3.9088e-10
5.5202e-10
-9.5396e-10
-1.2819e-08
4.694e-10
6.666e-10
-1.1506e-09
-1.4028e-08
5.6147e-10
8.0029e-10
-1.3827e-09
-1.5483e-08
6.667e-10
9.534e-10
-1.6543e-09
-1.7222e-08
7.8056e-10
1.1221e-09
-1.9602e-09
-1.9259e-08
8.9604e-10
1.2989e-09
-2.2849e-09
1.0062e-09
1.4742e-09
-2.608e-09
-8.4803e-09
6.6956e-11
2.0115e-10
-3.0593e-10
-8.9723e-09
8.6898e-11
2.6055e-10
-3.967e-10
-9.5373e-09
1.1087e-10
3.3182e-10
-5.0703e-10
-1.0194e-08
1.3859e-10
4.1566e-10
-6.3686e-10
-1.0955e-08
1.6979e-10
5.1279e-10
-7.8623e-10
-1.1834e-08
2.0508e-10
6.2483e-10
-9.5727e-10
-1.2861e-08
2.4593e-10
7.5476e-10
-1.1556e-09
-1.408e-08
2.9363e-10
9.0604e-10
-1.3885e-09
-1.5543e-08
3.4786e-10
1.0795e-09
-1.6589e-09
-1.7287e-08
4.0635e-10
1.2717e-09
-1.9613e-09
-1.9326e-08
4.6537e-10
1.4744e-09
-2.2819e-09
5.2099e-10
1.6767e-09
-2.6011e-09
-8.486e-09
1.9833e-13
2.1316e-10
-3.2681e-10
-8.9803e-09
1.2521e-13
2.7602e-10
-4.2377e-10
-9.5474e-09
1.1751e-13
3.5142e-10
-5.4129e-10
-1.0206e-08
2.1508e-13
4.4028e-10
-6.7972e-10
-1.0969e-08
2.8425e-13
5.4353e-10
-8.3942e-10
-1.1851e-08
3.3895e-13
6.6289e-10
-1.0228e-09
-1.2882e-08
3.3519e-13
8.0138e-10
-1.2358e-09
-1.4107e-08
2.4838e-13
9.6267e-10
-1.4859e-09
-1.5573e-08
1.5984e-13
1.148e-09
-1.7765e-09
-1.732e-08
1.9317e-13
1.354e-09
-2.1022e-09
-1.936e-08
3.2402e-13
1.5725e-09
-2.449e-09
4.4179e-13
1.7922e-09
-2.7975e-09
-8.486e-09
-6.6576e-11
2.131e-10
-3.2675e-10
-8.9803e-09
-8.675e-11
2.7594e-10
-4.2361e-10
-9.5474e-09
-1.1085e-10
3.5131e-10
-5.4098e-10
-1.0206e-08
-1.3849e-10
4.4012e-10
-6.7925e-10
-1.0969e-08
-1.6952e-10
5.433e-10
-8.3888e-10
-1.1851e-08
-2.0465e-10
6.6262e-10
-1.0223e-09
-1.2882e-08
-2.4542e-10
8.011e-10
-1.2354e-09
-1.4107e-08
-2.9315e-10
9.6242e-10
-1.4856e-09
-1.5573e-08
-3.4748e-10
1.1478e-09
-1.7763e-09
-1.732e-08
-4.059e-10
1.3537e-09
-2.102e-09
-1.936e-08
-4.6466e-10
1.5722e-09
-2.4488e-09
-5.2e-10
1.7919e-09
-2.7973e-09
-8.4803e-09
-1.2682e-10
2.0095e-10
-3.0566e-10
-8.9723e-09
-1.6529e-10
2.6039e-10
-3.9646e-10
-9.5373e-09
-2.1132e-10
3.3165e-10
-5.0663e-10
-1.0194e-08
-2.6421e-10
4.1538e-10
-6.362e-10
-1.0955e-08
-3.2368e-10
5.1234e-10
-7.8522e-10
-1.1834e-08
-3.9118e-10
6.2428e-10
-9.56e-10
-1.2861e-08
-4.6952e-10
7.5413e-10
-1.1543e-09
-1.408e-08
-5.6151e-10
9.0538e-10
-1.3873e-09
-1.5543e-08
-6.6675e-10
1.0789e-09
-1.6578e-09
-1.7287e-08
-7.8052e-10
1.271e-09
-1.9602e-09
-1.9326e-08
-8.9567e-10
1.4736e-09
-2.2807e-09
-1.0048e-09
1.6758e-09
-2.6006e-09
-8.4688e-09
-1.3711e-10
1.7768e-10
-3.0292e-10
-8.9563e-09
-1.7949e-10
2.3063e-10
-3.9305e-10
-9.5173e-09
-2.2897e-10
2.9394e-10
-5.0367e-10
-1.0171e-08
-2.8461e-10
3.6794e-10
-6.3428e-10
-1.0927e-08
-3.471e-10
4.5326e-10
-7.8362e-10
-1.1801e-08
-4.1907e-10
5.5171e-10
-9.5333e-10
-1.2819e-08
-5.0372e-10
6.6616e-10
-1.1497e-09
-1.4028e-08
-6.0316e-10
7.9972e-10
-1.3815e-09
-1.5483e-08
-7.1508e-10
9.5272e-10
-1.653e-09
-1.7222e-08
-8.3276e-10
1.1213e-09
-1.9588e-09
-1.9259e-08
-9.4894e-10
1.2978e-09
-2.2834e-09
-1.057e-09
1.4726e-09
-2.6054e-09
-8.4532e-09
1.3731e-10
-1.875e-10
-1.8717e-10
-8.9334e-09
1.7962e-10
-2.4525e-10
-2.4494e-10
-9.4884e-09
2.2913e-10
-3.1408e-10
-3.1357e-10
-1.0137e-08
2.8492e-10
-3.9233e-10
-3.9164e-10
-1.0888e-08
3.477e-10
-4.8029e-10
-4.7956e-10
-1.1752e-08
4.2006e-10
-5.8103e-10
-5.802e-10
-1.2757e-08
5.0518e-10
-6.9956e-10
-6.9808e-10
-1.3951e-08
6.0501e-10
-8.397e-10
-8.3797e-10
-1.5393e-08
7.172e-10
-1.0003e-09
-9.986e-10
-1.7125e-08
8.3528e-10
-1.1735e-09
-1.1714e-09
-1.916e-08
9.5185e-10
-1.3482e-09
-1.3464e-09
1.0601e-09
-1.5134e-09
-1.5118e-09
-8.4687e-09
1.7756e-10
1.2707e-10
-3.0329e-10
-8.9562e-09
2.3033e-10
1.6539e-10
-3.9327e-10
-9.5173e-09
2.9343e-10
2.1137e-10
-5.0381e-10
-1.0171e-08
3.6719e-10
2.6428e-10
-6.3436e-10
-1.0927e-08
4.523e-10
3.2389e-10
-7.8379e-10
-1.1801e-08
5.5039e-10
3.916e-10
-9.5346e-10
-1.2819e-08
6.6444e-10
4.7037e-10
-1.1497e-09
-1.4028e-08
7.9749e-10
5.6269e-10
-1.3811e-09
-1.5483e-08
9.4999e-10
6.6822e-10
-1.6524e-09
-1.7222e-08
1.1181e-09
7.8251e-10
-1.9579e-09
-1.926e-08
1.2944e-09
8.9848e-10
-2.2827e-09
1.4695e-09
1.0089e-09
-2.6065e-09
-8.4788e-09
1.2796e-10
1.283e-10
-8.9722e-09
1.6597e-10
1.6647e-10
-9.5377e-09
2.1132e-10
2.1204e-10
-1.0194e-08
2.6421e-10
2.6519e-10
-1.0955e-08
3.2504e-10
3.2631e-10
-1.1834e-08
3.9504e-10
3.9669e-10
-1.2862e-08
4.7643e-10
4.7855e-10
-1.4082e-08
5.7132e-10
5.7396e-10
-1.5543e-08
6.7971e-10
6.8292e-10
-1.7282e-08
7.9857e-10
8.0241e-10
-1.9313e-08
9.2243e-10
9.2687e-10
1.0448e-09
1.0497e-09
-8.4896e-09
6.7469e-11
1.4626e-10
-8.9872e-09
8.7431e-11
1.895e-10
-9.5564e-09
1.1126e-10
2.412e-10
-1.0216e-08
1.3905e-10
3.0182e-10
-1.098e-08
1.7094e-10
3.7184e-10
-1.1866e-08
2.0755e-10
4.5258e-10
-1.2901e-08
2.5002e-10
5.4626e-10
-1.413e-08
2.9945e-10
6.5527e-10
-1.5598e-08
3.5573e-10
7.7988e-10
-1.7341e-08
4.1722e-10
9.1722e-10
-1.9371e-08
4.8092e-10
1.0613e-09
5.4339e-10
1.2045e-09
-8.495e-09
9.7494e-14
1.5623e-10
-8.9947e-09
5.479e-15
2.0233e-10
-9.5658e-09
-6.2805e-14
2.5746e-10
-1.0227e-08
-5.7172e-14
3.2221e-10
-1.0993e-08
-4.3668e-15
3.9716e-10
-1.1881e-08
2.7137e-14
4.837e-10
-1.2921e-08
2.7711e-14
5.841e-10
-1.4154e-08
-1.7271e-14
7.009e-10
-1.5626e-08
-7.2838e-14
8.3455e-10
-1.737e-08
-6.6402e-14
9.8224e-10
-1.9401e-08
-2.7912e-15
1.1378e-09
9.6582e-14
1.2933e-09
-8.495e-09
-6.7274e-11
1.5617e-10
-8.9947e-09
-8.7444e-11
2.0227e-10
-9.5658e-09
-1.1143e-10
2.5739e-10
-1.0227e-08
-1.3923e-10
3.2211e-10
-1.0993e-08
-1.7103e-10
3.9701e-10
-1.1881e-08
-2.0758e-10
4.8351e-10
-1.2921e-08
-2.5003e-10
5.8389e-10
-1.4154e-08
-2.9951e-10
7.0068e-10
-1.5626e-08
-3.559e-10
8.3433e-10
-1.737e-08
-4.1737e-10
9.82e-10
-1.9401e-08
-4.8095e-10
1.1375e-09
-5.4316e-10
1.293e-09
-8.4897e-09
-1.2778e-10
1.4607e-10
-8.9872e-09
-1.66e-10
1.8934e-10
-9.5565e-09
-2.1152e-10
2.4103e-10
-1.0216e-08
-2.6444e-10
3.0158e-10
-1.098e-08
-3.2521e-10
3.7148e-10
-1.1866e-08
-3.9516e-10
4.5212e-10
-1.2901e-08
-4.765e-10
5.4572e-10
-1.413e-08
-5.7143e-10
6.5468e-10
-1.5598e-08
-6.7995e-10
7.7928e-10
-1.7341e-08
-7.9882e-10
9.1655e-10
-1.9371e-08
-9.2253e-10
1.0605e-09
-1.0445e-09
1.2036e-09
-8.4789e-09
-1.7737e-10
1.2804e-10
-8.9722e-09
-2.3032e-10
1.6626e-10
-9.5378e-09
-2.9354e-10
2.1183e-10
-1.0194e-08
-3.673e-10
2.6491e-10
-1.0955e-08
-4.5232e-10
3.2592e-10
-1.1834e-08
-5.5034e-10
3.962e-10
-1.2862e-08
-6.6428e-10
4.7791e-10
-1.4082e-08
-7.9742e-10
5.7323e-10
-1.5543e-08
-9.5016e-10
6.8214e-10
-1.7282e-08
-1.1183e-09
8.015e-10
-1.9313e-08
-1.2945e-09
9.2569e-10
-1.469e-09
1.0481e-09
-8.4689e-09
1.2675e-10
-3.0282e-10
-8.9563e-09
1.6512e-10
-3.9311e-10
-9.5173e-09
2.1108e-10
-5.0374e-10
-1.0171e-08
2.6399e-10
-6.3419e-10
-1.0927e-08
3.2362e-10
-7.8334e-10
-1.1801e-08
3.9138e-10
-9.528e-10
-1.2819e-08
4.699e-10
-1.1487e-09
-1.4029e-08
5.621e-10
-1.3802e-09
-1.5483e-08
6.6759e-10
-1.652e-09
-1.7222e-08
7.8162e-10
-1.9577e-09
-1.9259e-08
8.9715e-10
-2.2823e-09
1.0066e-09
-2.6049e-09
-8.4803e-09
2.0097e-10
6.6622e-11
-3.0601e-10
-8.9723e-09
2.6032e-10
8.6638e-11
-3.9684e-10
-9.5373e-09
3.3147e-10
1.1066e-10
-5.0713e-10
-1.0194e-08
4.1513e-10
1.3839e-10
-6.3694e-10
-1.0955e-08
5.1209e-10
1.6962e-10
-7.8638e-10
-1.1834e-08
6.2389e-10
2.0492e-10
-9.5733e-10
-1.2861e-08
7.535e-10
2.4582e-10
-1.1555e-09
-1.408e-08
9.0442e-10
2.9358e-10
-1.3884e-09
-1.5543e-08
1.0776e-09
3.4789e-10
-1.6588e-09
-1.7287e-08
1.2694e-09
4.0644e-10
-1.961e-09
-1.9326e-08
1.4718e-09
4.6558e-10
-2.2814e-09
1.674e-09
5.2153e-10
-2.6015e-09
-8.4896e-09
1.4585e-10
6.7387e-11
-8.9872e-09
1.8891e-10
8.7414e-11
-9.5564e-09
2.4038e-10
1.1132e-10
-1.0216e-08
3.0073e-10
1.392e-10
-1.098e-08
3.7044e-10
1.712e-10
-1.1866e-08
4.5078e-10
2.0795e-10
-1.2901e-08
5.4401e-10
2.5062e-10
-1.413e-08
6.5248e-10
3.0023e-10
-1.5598e-08
7.7653e-10
3.5671e-10
-1.7341e-08
9.1325e-10
4.1841e-10
-1.9371e-08
1.0567e-09
4.8234e-10
1.1995e-09
5.4503e-10
-8.4999e-09
7.7487e-11
7.7637e-11
-9.0017e-09
1.0032e-10
1.0058e-10
-9.5745e-09
1.2758e-10
1.2799e-10
-1.0237e-08
1.5951e-10
1.601e-10
-1.1005e-08
1.9635e-10
1.9713e-10
-1.1896e-08
2.3877e-10
2.3981e-10
-1.294e-08
2.8798e-10
2.8931e-10
-1.4177e-08
3.4518e-10
3.4685e-10
-1.5652e-08
4.1045e-10
4.1247e-10
-1.7398e-08
4.8219e-10
4.8458e-10
-1.943e-08
5.5721e-10
5.5997e-10
6.3165e-10
6.3474e-10
-8.5052e-09
3.1228e-14
8.3823e-11
-9.009e-09
-5.184e-14
1.0855e-10
-9.5837e-09
-1.2549e-13
1.381e-10
-1.0248e-08
-1.4835e-13
1.7274e-10
-1.1018e-08
-1.4544e-13
2.1278e-10
-1.1912e-08
-1.5205e-13
2.5898e-10
-1.296e-08
-1.7652e-13
3.1259e-10
-1.4201e-08
-2.2791e-13
3.7488e-10
-1.568e-08
-2.9234e-13
4.4601e-10
-1.7428e-08
-3.1228e-13
5.2436e-10
-1.946e-08
-3.02e-13
6.0658e-10
-2.5218e-13
6.8854e-10
-8.5052e-09
-7.7423e-11
8.3763e-11
-9.009e-09
-1.0043e-10
1.085e-10
-9.5837e-09
-1.2785e-10
1.3803e-10
-1.0248e-08
-1.5982e-10
1.7265e-10
-1.1018e-08
-1.9665e-10
2.1264e-10
-1.1912e-08
-2.3907e-10
2.588e-10
-1.296e-08
-2.8832e-10
3.1237e-10
-1.4201e-08
-3.4563e-10
3.7466e-10
-1.568e-08
-4.1104e-10
4.4579e-10
-1.7428e-08
-4.8283e-10
5.2413e-10
-1.946e-08
-5.5783e-10
6.0631e-10
-6.3216e-10
6.8823e-10
-8.5e-09
-1.4577e-10
7.7435e-11
-9.0018e-09
-1.8901e-10
1.004e-10
-9.5746e-09
-2.4062e-10
1.2778e-10
-1.0237e-08
-3.0099e-10
1.5979e-10
-1.1005e-08
-3.7065e-10
1.9668e-10
-1.1896e-08
-4.5096e-10
2.3923e-10
-1.294e-08
-5.442e-10
2.8863e-10
-1.4177e-08
-6.5278e-10
3.4612e-10
-1.5652e-08
-7.77e-10
4.1174e-10
-1.7398e-08
-9.1381e-10
4.8379e-10
-1.943e-08
-1.0573e-09
5.5907e-10
-1.1999e-09
6.3368e-10
-8.4897e-09
-2.0084e-10
6.7045e-11
-8.9873e-09
-2.6034e-10
8.7097e-11
-9.5565e-09
-3.3159e-10
1.1096e-10
-1.0216e-08
-4.152e-10
1.3869e-10
-1.098e-08
-5.1195e-10
1.7045e-10
-1.1866e-08
-6.2357e-10
2.0698e-10
-1.2901e-08
-7.5316e-10
2.4945e-10
-1.413e-08
-9.0421e-10
2.99e-10
-1.5598e-08
-1.0776e-09
3.5547e-10
-1.7341e-08
-1.2696e-09
4.1709e-10
-1.9371e-08
-1.472e-09
4.8079e-10
-1.6741e-09
5.4318e-10
-8.4804e-09
6.6111e-11
-3.0571e-10
-8.9724e-09
8.6174e-11
-3.9675e-10
-9.5374e-09
1.1013e-10
-5.0706e-10
-1.0194e-08
1.3763e-10
-6.3661e-10
-1.0955e-08
1.6849e-10
-7.8537e-10
-1.1834e-08
2.0347e-10
-9.5573e-10
-1.2861e-08
2.4411e-10
-1.1538e-09
-1.408e-08
2.9184e-10
-1.3869e-09
-1.5543e-08
3.4627e-10
-1.6578e-09
-1.7287e-08
4.0481e-10
-1.9605e-09
-1.9326e-08
4.6365e-10
-2.2811e-09
5.1919e-10
-2.6013e-09
-8.486e-09
2.1312e-10
-7.0409e-14
-3.2692e-10
-8.9803e-09
2.7592e-10
-1.3893e-13
-4.2383e-10
-9.5473e-09
3.5124e-10
-9.3556e-14
-5.4137e-10
-1.0206e-08
4.4003e-10
5.8258e-14
-6.7983e-10
-1.0969e-08
5.4323e-10
2.4873e-13
-8.3969e-10
-1.1851e-08
6.6247e-10
4.2607e-13
-1.0232e-09
-1.2882e-08
8.0079e-10
5.6418e-13
-1.2363e-09
-1.4106e-08
9.619e-10
6.0148e-13
-1.4864e-09
-1.5573e-08
1.147e-09
5.7407e-13
-1.777e-09
-1.732e-08
1.3528e-09
6.2648e-13
-2.1027e-09
-1.936e-08
1.5711e-09
7.5559e-13
-2.4493e-09
1.7907e-09
9.8035e-13
-2.7978e-09
-8.495e-09
1.5596e-10
-7.6093e-14
-8.9947e-09
2.0191e-10
-1.5143e-13
-9.5658e-09
2.5687e-10
-1.7417e-13
-1.0227e-08
3.2141e-10
-1.0884e-13
-1.0993e-08
3.9615e-10
2.6681e-14
-1.1881e-08
4.8239e-10
1.7083e-13
-1.2921e-08
5.8245e-10
2.9473e-13
-1.4154e-08
6.9886e-10
3.5063e-13
-1.5626e-08
8.321e-10
3.7852e-13
-1.737e-08
9.7934e-10
4.5077e-13
-1.9401e-08
1.1344e-09
5.7973e-13
1.2896e-09
7.6596e-13
-8.5052e-09
8.3635e-11
-8.1994e-14
-9.009e-09
1.0825e-10
-1.3523e-13
-9.5837e-09
1.3764e-10
-1.5044e-13
-1.0248e-08
1.721e-10
-1.0678e-13
-1.1018e-08
2.1194e-10
-1.6398e-14
-1.1912e-08
2.5788e-10
9.3207e-14
-1.296e-08
3.1118e-10
2.0321e-13
-1.4201e-08
3.7314e-10
2.782e-13
-1.568e-08
4.4392e-10
3.2831e-13
-1.7428e-08
5.219e-10
4.1166e-13
-1.946e-08
6.0374e-10
5.3121e-13
6.8538e-10
6.754e-13
-8.5103e-09
-3.3816e-14
-9.5085e-14
-9.0162e-09
-1.1024e-13
-1.2692e-13
-9.5928e-09
-1.9003e-13
-1.3812e-13
-1.0259e-08
-2.4285e-13
-1.1275e-13
-1.1031e-08
-2.8925e-13
-5.8449e-14
-1.1928e-08
-3.392e-13
2.3654e-14
-1.298e-08
-3.9724e-13
1.1978e-13
-1.4226e-08
-4.6159e-13
2.0867e-13
-1.5708e-08
-5.2937e-13
2.9239e-13
-1.7458e-08
-5.6858e-13
3.974e-13
-1.9492e-08
-5.9689e-13
5.2e-13
-5.9395e-13
6.4652e-13
-8.5104e-09
-8.3722e-11
-1.3592e-13
-9.0163e-09
-1.085e-10
-1.5267e-13
-9.5929e-09
-1.3805e-10
-1.6695e-13
-1.0259e-08
-1.7263e-10
-1.6876e-13
-1.1031e-08
-2.1256e-10
-1.6091e-13
-1.1928e-08
-2.586e-10
-1.1889e-13
-1.298e-08
-3.1203e-10
-4.4387e-14
-1.4226e-08
-3.7413e-10
5.0372e-14
-1.5708e-08
-4.4507e-10
1.5277e-13
-1.7458e-08
-5.2315e-10
2.6955e-13
-1.9492e-08
-6.0508e-10
3.8473e-13
-6.8673e-10
4.9291e-13
-8.5052e-09
-1.5604e-10
-2.9012e-13
-9.009e-09
-2.0216e-10
-3.2176e-13
-9.5837e-09
-2.5727e-10
-3.7321e-13
-1.0248e-08
-3.2191e-10
-4.4951e-13
-1.1018e-08
-3.9669e-10
-5.3975e-13
-1.1912e-08
-4.83e-10
-5.9385e-13
-1.296e-08
-5.8317e-10
-6.0471e-13
-1.4201e-08
-6.9972e-10
-5.7276e-13
-1.568e-08
-8.3313e-10
-5.2498e-13
-1.7428e-08
-9.8051e-10
-4.8207e-13
-1.946e-08
-1.1357e-09
-4.5795e-13
-1.2909e-09
-4.4327e-13
-8.4951e-09
-2.1313e-10
-5.0522e-13
-8.9948e-09
-2.7608e-10
-5.5746e-13
-9.5659e-09
-3.5153e-10
-6.6156e-13
-1.0227e-08
-4.4033e-10
-8.4038e-13
-1.0993e-08
-5.4343e-10
-1.0553e-12
-1.1881e-08
-6.6263e-10
-1.251e-12
-1.2921e-08
-8.0101e-10
-1.3717e-12
-1.4154e-08
-9.6223e-10
-1.4304e-12
-1.5626e-08
-1.1475e-09
-1.4554e-12
-1.737e-08
-1.3534e-09
-1.5033e-12
-1.9401e-08
-1.5718e-09
-1.5978e-12
-1.7914e-09
-1.7001e-12
-8.4861e-09
-6.1894e-13
-3.2693e-10
-8.9804e-09
-6.2222e-13
-4.24e-10
-9.5474e-09
-7.2713e-13
-5.4154e-10
-1.0206e-08
-9.7549e-13
-6.7989e-10
-1.0969e-08
-1.2874e-12
-8.3946e-10
-1.1851e-08
-1.5552e-12
-1.0228e-09
-1.2882e-08
-1.7049e-12
-1.2359e-09
-1.4107e-08
-1.7401e-12
-1.4861e-09
-1.5573e-08
-1.6992e-12
-1.7768e-09
-1.732e-08
-1.6584e-12
-2.1027e-09
-1.936e-08
-1.6784e-12
-2.4495e-09
-1.7301e-12
-2.7981e-09
-8.486e-09
2.1305e-10
-6.6772e-11
-3.2683e-10
-8.9803e-09
2.7586e-10
-8.6926e-11
-4.2376e-10
-9.5472e-09
3.5116e-10
-1.1094e-10
-5.4119e-10
-1.0206e-08
4.3988e-10
-1.3848e-10
-6.7946e-10
-1.0969e-08
5.4297e-10
-1.6941e-10
-8.3911e-10
-1.1851e-08
6.6215e-10
-2.0446e-10
-1.0225e-09
-1.2882e-08
8.0046e-10
-2.4509e-10
-1.2355e-09
-1.4106e-08
9.616e-10
-2.9275e-10
-1.4857e-09
-1.5573e-08
1.1468e-09
-3.4709e-10
-1.7764e-09
-1.732e-08
1.3525e-09
-4.0554e-10
-2.1021e-09
-1.936e-08
1.5708e-09
-4.6438e-10
-2.4488e-09
1.7905e-09
-5.1964e-10
-2.7974e-09
-8.495e-09
1.5591e-10
-6.7539e-11
-8.9947e-09
2.0187e-10
-8.772e-11
-9.5657e-09
2.5683e-10
-1.1169e-10
-1.0227e-08
3.2134e-10
-1.3949e-10
-1.0993e-08
3.9603e-10
-1.7126e-10
-1.1881e-08
4.8224e-10
-2.0775e-10
-1.2921e-08
5.8229e-10
-2.5017e-10
-1.4154e-08
6.987e-10
-2.9965e-10
-1.5626e-08
8.3198e-10
-3.5609e-10
-1.737e-08
9.7923e-10
-4.1765e-10
-1.9401e-08
1.1343e-09
-4.8131e-10
1.2895e-09
-5.4355e-10
-8.5052e-09
8.3595e-11
-7.7789e-11
-9.009e-09
1.0823e-10
-1.0085e-10
-9.5837e-09
1.3762e-10
-1.283e-10
-1.0248e-08
1.7206e-10
-1.6032e-10
-1.1018e-08
2.1186e-10
-1.9718e-10
-1.1912e-08
2.5777e-10
-2.3963e-10
-1.296e-08
3.1106e-10
-2.8892e-10
-1.4201e-08
3.7303e-10
-3.463e-10
-1.568e-08
4.4383e-10
-4.1183e-10
-1.7428e-08
5.2183e-10
-4.8378e-10
-1.946e-08
6.0369e-10
-5.5893e-10
6.853e-10
-6.334e-10
-8.5104e-09
-7.889e-14
-8.3983e-11
-9.0162e-09
-1.3952e-13
-1.0878e-10
-9.5928e-09
-2.2146e-13
-1.3834e-10
-1.0259e-08
-3.0258e-13
-1.7292e-10
-1.1031e-08
-3.9692e-13
-2.1284e-10
-1.1928e-08
-4.8894e-13
-2.5887e-10
-1.298e-08
-5.7454e-13
-3.1227e-10
-1.4226e-08
-6.3718e-13
-3.7437e-10
-1.5708e-08
-6.885e-13
-4.4533e-10
-1.7458e-08
-7.2063e-13
-5.2346e-10
-1.9492e-08
-7.5733e-13
-6.0542e-10
-7.7696e-13
-6.871e-10
-8.5104e-09
-8.3859e-11
-8.3919e-11
-9.0163e-09
-1.0864e-10
-1.0866e-10
-9.5928e-09
-1.3824e-10
-1.3819e-10
-1.0259e-08
-1.7288e-10
-1.7276e-10
-1.1031e-08
-2.1291e-10
-2.1269e-10
-1.1928e-08
-2.5906e-10
-2.587e-10
-1.298e-08
-3.1257e-10
-3.1206e-10
-1.4226e-08
-3.7475e-10
-3.7409e-10
-1.5708e-08
-4.4575e-10
-4.4493e-10
-1.7458e-08
-5.2392e-10
-5.2295e-10
-1.9491e-08
-6.0595e-10
-6.0481e-10
-6.8771e-10
-6.8642e-10
-8.5052e-09
-1.5622e-10
-7.7748e-11
-9.009e-09
-2.0236e-10
-1.007e-10
-9.5837e-09
-2.5752e-10
-1.2809e-10
-1.0248e-08
-3.2226e-10
-1.6015e-10
-1.1018e-08
-3.9718e-10
-1.9709e-10
-1.1912e-08
-4.8365e-10
-2.3959e-10
-1.296e-08
-5.8394e-10
-2.8885e-10
-1.4201e-08
-7.0058e-10
-3.461e-10
-1.568e-08
-8.3409e-10
-4.1143e-10
-1.7428e-08
-9.8157e-10
-4.832e-10
-1.946e-08
-1.1369e-09
-5.5819e-10
-1.2922e-09
-6.3256e-10
-8.4951e-09
-2.1321e-10
-6.774e-11
-8.9948e-09
-2.7612e-10
-8.7817e-11
-9.5659e-09
-3.5157e-10
-1.1178e-10
-1.0227e-08
-4.4046e-10
-1.3972e-10
-1.0993e-08
-5.4369e-10
-1.7174e-10
-1.1881e-08
-6.6304e-10
-2.0847e-10
-1.2921e-08
-8.0148e-10
-2.51e-10
-1.4154e-08
-9.6267e-10
-3.0048e-10
-1.5626e-08
-1.1479e-09
-3.5683e-10
-1.737e-08
-1.3537e-09
-4.1835e-10
-1.9401e-08
-1.572e-09
-4.8203e-10
-1.7917e-09
-5.4438e-10
-8.4861e-09
-6.716e-11
-3.2695e-10
-8.9804e-09
-8.7186e-11
-4.2394e-10
-9.5474e-09
-1.1126e-10
-5.415e-10
-1.0206e-08
-1.3911e-10
-6.8e-10
-1.0969e-08
-1.7045e-10
-8.3978e-10
-1.1851e-08
-2.0586e-10
-1.0233e-09
-1.2882e-08
-2.467e-10
-1.2364e-09
-1.4106e-08
-2.9441e-10
-1.4865e-09
-1.5573e-08
-3.4868e-10
-1.777e-09
-1.732e-08
-4.0716e-10
-2.1026e-09
-1.936e-08
-4.6606e-10
-2.4492e-09
-5.2164e-10
-2.7977e-09
-8.4803e-09
2.0077e-10
-1.2727e-10
-3.0569e-10
-8.9723e-09
2.6014e-10
-1.6575e-10
-3.9661e-10
-9.5372e-09
3.3126e-10
-2.1181e-10
-5.0676e-10
-1.0194e-08
4.1483e-10
-2.6478e-10
-6.362e-10
-1.0955e-08
5.1161e-10
-3.2432e-10
-7.8522e-10
-1.1834e-08
6.2332e-10
-3.919e-10
-9.5595e-10
-1.2861e-08
7.5291e-10
-4.7041e-10
-1.1541e-09
-1.408e-08
9.0389e-10
-5.6261e-10
-1.387e-09
-1.5543e-08
1.0771e-09
-6.6812e-10
-1.6576e-09
-1.7287e-08
1.269e-09
-7.8225e-10
-1.96e-09
-1.9326e-08
1.4714e-09
-8.9788e-10
-2.2805e-09
1.6733e-09
-1.0072e-09
-2.6004e-09
-8.4896e-09
1.4569e-10
-1.2845e-10
-8.9872e-09
1.8879e-10
-1.668e-10
-9.5564e-09
2.4027e-10
-2.1246e-10
-1.0216e-08
3.0056e-10
-2.6557e-10
-1.098e-08
3.7018e-10
-3.2653e-10
-1.1865e-08
4.5047e-10
-3.9667e-10
-1.2901e-08
5.4366e-10
-4.7825e-10
-1.413e-08
6.5217e-10
-5.7353e-10
-1.5598e-08
7.763e-10
-6.8246e-10
-1.7341e-08
9.1307e-10
-8.0183e-10
-1.9371e-08
1.0565e-09
-9.2606e-10
1.1992e-09
-1.0484e-09
-8.5e-09
7.7379e-11
-1.4639e-10
-9.0017e-09
1.0027e-10
-1.8978e-10
-9.5745e-09
1.2755e-10
-2.4153e-10
-1.0237e-08
1.5944e-10
-3.0207e-10
-1.1005e-08
1.9617e-10
-3.7191e-10
-1.1896e-08
2.3851e-10
-4.5239e-10
-1.294e-08
2.8768e-10
-5.4583e-10
-1.4177e-08
3.4493e-10
-6.547e-10
-1.5652e-08
4.103e-10
-7.7927e-10
-1.7398e-08
4.8212e-10
-9.1649e-10
-1.943e-08
5.5716e-10
-1.0603e-09
6.3157e-10
-1.2034e-09
-8.5052e-09
-2.1782e-14
-1.5638e-10
-9.009e-09
-3.2988e-14
-2.0255e-10
-9.5837e-09
-8.1871e-14
-2.577e-10
-1.0248e-08
-1.5351e-13
-3.2238e-10
-1.1018e-08
-2.5272e-13
-3.9722e-10
-1.1912e-08
-3.4162e-13
-4.8357e-10
-1.296e-08
-3.9695e-13
-5.8377e-10
-1.4201e-08
-3.8509e-13
-7.004e-10
-1.568e-08
-3.3135e-13
-8.3392e-10
-1.7428e-08
-2.5741e-13
-9.8142e-10
-1.946e-08
-1.9474e-13
-1.1367e-09
-1.2954e-13
-1.292e-09
-8.5052e-09
-7.7672e-11
-1.5627e-10
-9.009e-09
-1.0066e-10
-2.0236e-10
-9.5837e-09
-1.2812e-10
-2.5747e-10
-1.0248e-08
-1.6025e-10
-3.2213e-10
-1.1018e-08
-1.9729e-10
-3.9696e-10
-1.1912e-08
-2.3993e-10
-4.8329e-10
-1.296e-08
-2.8935e-10
-5.8344e-10
-1.4201e-08
-3.4677e-10
-6.9994e-10
-1.568e-08
-4.1226e-10
-8.3328e-10
-1.7428e-08
-4.8418e-10
-9.8061e-10
-1.946e-08
-5.5936e-10
-1.1358e-09
-6.3388e-10
-1.2909e-09
-8.5e-09
-1.4625e-10
-1.4609e-10
-9.0018e-09
-1.8953e-10
-1.8926e-10
-9.5746e-09
-2.4127e-10
-2.4086e-10
-1.0237e-08
-3.0191e-10
-3.0135e-10
-1.1005e-08
-3.7194e-10
-3.7116e-10
-1.1896e-08
-4.5265e-10
-4.5158e-10
-1.294e-08
-5.4624e-10
-5.4487e-10
-1.4177e-08
-6.5511e-10
-6.534e-10
-1.5652e-08
-7.796e-10
-7.7752e-10
-1.7398e-08
-9.1676e-10
-9.1429e-10
-1.943e-08
-1.0606e-09
-1.0577e-09
-1.2037e-09
-1.2004e-09
-8.4897e-09
-2.0113e-10
-1.2817e-10
-8.9873e-09
-2.6059e-10
-1.6625e-10
-9.5565e-09
-3.3188e-10
-2.1172e-10
-1.0216e-08
-4.1574e-10
-2.6478e-10
-1.098e-08
-5.1288e-10
-3.2572e-10
-1.1865e-08
-6.2494e-10
-3.9582e-10
-1.2901e-08
-7.5479e-10
-4.7724e-10
-1.413e-08
-9.0592e-10
-5.722e-10
-1.5598e-08
-1.0793e-09
-6.8072e-10
-1.734e-08
-1.2712e-09
-7.9969e-10
-1.9371e-08
-1.4737e-09
-9.235e-10
-1.676e-09
-1.0455e-09
-8.4804e-09
-1.2724e-10
-3.0587e-10
-8.9724e-09
-1.6549e-10
-3.9668e-10
-9.5374e-09
-2.1139e-10
-5.0695e-10
-1.0194e-08
-2.6439e-10
-6.3677e-10
-1.0955e-08
-3.2407e-10
-7.8614e-10
-1.1834e-08
-3.9164e-10
-9.5726e-10
-1.2861e-08
-4.7001e-10
-1.1556e-09
-1.408e-08
-5.6209e-10
-1.3885e-09
-1.5543e-08
-6.6751e-10
-1.6586e-09
-1.7287e-08
-7.8162e-10
-1.9607e-09
-1.9325e-08
-8.9713e-10
-2.2808e-09
-1.0066e-09
-2.6007e-09
-8.4688e-09
1.7728e-10
-1.3769e-10
-3.0277e-10
-8.9562e-09
2.3004e-10
-1.8009e-10
-3.9291e-10
-9.5171e-09
2.9312e-10
-2.2967e-10
-5.0345e-10
-1.0171e-08
3.6688e-10
-2.855e-10
-6.339e-10
-1.0927e-08
4.5194e-10
-3.4821e-10
-7.8309e-10
-1.18e-08
5.5007e-10
-4.2039e-10
-9.5265e-10
-1.2818e-08
6.6415e-10
-5.0542e-10
-1.1488e-09
-1.4028e-08
7.973e-10
-6.0522e-10
-1.3804e-09
-1.5483e-08
9.4991e-10
-7.1759e-10
-1.6519e-09
-1.7222e-08
1.118e-09
-8.3578e-10
-1.9575e-09
-1.9259e-08
1.2943e-09
-9.5259e-10
-2.2822e-09
1.4686e-09
-1.0607e-09
-2.6043e-09
-8.4789e-09
1.2774e-10
-1.7802e-10
-8.9721e-09
1.6579e-10
-2.3116e-10
-9.5376e-09
2.1115e-10
-2.9454e-10
-1.0194e-08
2.6401e-10
-3.685e-10
-1.0954e-08
3.2474e-10
-4.5371e-10
-1.1834e-08
3.9472e-10
-5.5192e-10
-1.2862e-08
4.7606e-10
-6.6611e-10
-1.4082e-08
5.7097e-10
-7.9958e-10
-1.5543e-08
6.7947e-10
-9.5275e-10
-1.7282e-08
7.9839e-10
-1.1214e-09
-1.9312e-08
9.2223e-10
-1.2981e-09
1.0442e-09
-1.4728e-09
-8.4896e-09
6.7284e-11
-2.0122e-10
-8.9872e-09
8.7369e-11
-2.6088e-10
-9.5563e-09
1.1123e-10
-3.3222e-10
-1.0216e-08
1.3895e-10
-4.1592e-10
-1.098e-08
1.7066e-10
-5.1276e-10
-1.1865e-08
2.0712e-10
-6.2441e-10
-1.2901e-08
2.495e-10
-7.5401e-10
-1.413e-08
2.9899e-10
-9.0522e-10
-1.5598e-08
3.5546e-10
-1.0788e-09
-1.734e-08
4.1709e-10
-1.271e-09
-1.9371e-08
4.8086e-10
-1.4736e-09
5.4328e-10
-1.6758e-09
-8.495e-09
6.5132e-14
-2.1334e-10
-8.9947e-09
1.2165e-13
-2.7631e-10
-9.5657e-09
1.1413e-13
-3.5175e-10
-1.0227e-08
5.0204e-14
-4.4054e-10
-1.0993e-08
-5.6745e-14
-5.4368e-10
-1.1881e-08
-1.421e-13
-6.6287e-10
-1.2921e-08
-1.4849e-13
-8.0124e-10
-1.4154e-08
-2.1498e-14
-9.6248e-10
-1.5626e-08
1.9799e-13
-1.1478e-09
-1.737e-08
4.477e-13
-1.3537e-09
-1.9401e-08
6.7264e-13
-1.5721e-09
8.8867e-13
-1.7917e-09
-8.4951e-09
-6.7409e-11
-2.1338e-10
-8.9948e-09
-8.7458e-11
-2.763e-10
-9.5658e-09
-1.1142e-10
-3.5174e-10
-1.0227e-08
-1.3935e-10
-4.4061e-10
-1.0993e-08
-1.7138e-10
-5.4382e-10
-1.1881e-08
-2.0811e-10
-6.6313e-10
-1.2921e-08
-2.5066e-10
-8.0153e-10
-1.4154e-08
-3.0012e-10
-9.627e-10
-1.5626e-08
-3.5644e-10
-1.1479e-09
-1.737e-08
-4.1791e-10
-1.3537e-09
-1.9401e-08
-4.8154e-10
-1.5719e-09
-5.4383e-10
-1.7915e-09
-8.4897e-09
-1.283e-10
-2.0119e-10
-8.9873e-09
-1.6649e-10
-2.6061e-10
-9.5565e-09
-2.121e-10
-3.3188e-10
-1.0216e-08
-2.6535e-10
-4.1567e-10
-1.098e-08
-3.2653e-10
-5.1269e-10
-1.1866e-08
-3.9688e-10
-6.2458e-10
-1.2901e-08
-4.7859e-10
-7.5428e-10
-1.413e-08
-5.7387e-10
-9.0525e-10
-1.5598e-08
-6.8276e-10
-1.0784e-09
-1.7341e-08
-8.0214e-10
-1.2702e-09
-1.9371e-08
-9.264e-10
-1.4724e-09
-1.0489e-09
-1.6743e-09
-8.4789e-09
-1.7786e-10
-1.7776e-10
-8.9723e-09
-2.3076e-10
-2.3053e-10
-9.5378e-09
-2.9407e-10
-2.9371e-10
-1.0194e-08
-3.682e-10
-3.6767e-10
-1.0955e-08
-4.5368e-10
-4.5294e-10
-1.1834e-08
-5.5214e-10
-5.5115e-10
-1.2862e-08
-6.6654e-10
-6.6523e-10
-1.4082e-08
-8.0002e-10
-7.9843e-10
-1.5543e-08
-9.5305e-10
-9.5112e-10
-1.7282e-08
-1.1217e-09
-1.1193e-09
-1.9312e-08
-1.2984e-09
-1.2955e-09
-1.4734e-09
-1.4699e-09
-8.4689e-09
-1.3727e-10
-3.0324e-10
-8.9563e-09
-1.7954e-10
-3.9312e-10
-9.5174e-09
-2.2897e-10
-5.036e-10
-1.0171e-08
-2.8465e-10
-6.3445e-10
-1.0927e-08
-3.4715e-10
-7.8426e-10
-1.18e-08
-4.1904e-10
-9.5411e-10
-1.2818e-08
-5.0382e-10
-1.1503e-09
-1.4028e-08
-6.0347e-10
-1.3819e-09
-1.5483e-08
-7.1567e-10
-1.6534e-09
-1.7222e-08
-8.338e-10
-1.9592e-09
-1.9259e-08
-9.5031e-10
-2.2839e-09
-1.0586e-09
-2.6066e-09
-8.4531e-09
1.3696e-10
-1.8756e-10
-1.8723e-10
-8.9333e-09
1.79e-10
-2.4522e-10
-2.4487e-10
-9.4881e-09
2.2827e-10
-3.1399e-10
-3.1343e-10
-1.0137e-08
2.839e-10
-3.9217e-10
-3.9164e-10
-1.0888e-08
3.4653e-10
-4.801e-10
-4.7962e-10
-1.1752e-08
4.1863e-10
-5.8089e-10
-5.8015e-10
-1.2757e-08
5.0352e-10
-6.9936e-10
-6.983e-10
-1.3951e-08
6.0299e-10
-8.3933e-10
-8.3834e-10
-1.5393e-08
7.1485e-10
-1.0002e-09
-9.9888e-10
-1.7125e-08
8.3254e-10
-1.1733e-09
-1.1718e-09
-1.916e-08
9.4896e-10
-1.3486e-09
-1.3469e-09
1.0568e-09
-1.5132e-09
-1.5123e-09
-8.4688e-09
1.2674e-10
-3.0317e-10
-8.9562e-09
1.6501e-10
-3.9368e-10
-9.5171e-09
2.1085e-10
-5.044e-10
-1.017e-08
2.6365e-10
-6.3488e-10
-1.0927e-08
3.2312e-10
-7.8398e-10
-1.18e-08
3.9066e-10
-9.5335e-10
-1.2818e-08
4.6901e-10
-1.1492e-09
-1.4028e-08
5.6095e-10
-1.3809e-09
-1.5483e-08
6.6623e-10
-1.6528e-09
-1.7222e-08
7.8008e-10
-1.9587e-09
-1.9259e-08
8.9556e-10
-2.2835e-09
1.0047e-09
-2.6056e-09
-8.4803e-09
6.6538e-11
-3.0578e-10
-8.9723e-09
8.6724e-11
-3.9705e-10
-9.5372e-09
1.1075e-10
-5.0743e-10
-1.0194e-08
1.3828e-10
-6.3695e-10
-1.0954e-08
1.6913e-10
-7.8565e-10
-1.1834e-08
2.0404e-10
-9.5587e-10
-1.2861e-08
2.4462e-10
-1.1537e-09
-1.408e-08
2.9237e-10
-1.3868e-09
-1.5543e-08
3.4684e-10
-1.6576e-09
-1.7287e-08
4.0551e-10
-1.9603e-09
-1.9325e-08
4.6457e-10
-2.2807e-09
5.2031e-10
-2.601e-09
-8.4861e-09
-9.9533e-15
-3.2702e-10
-8.9803e-09
7.3524e-14
-4.2401e-10
-9.5473e-09
6.2403e-14
-5.415e-10
-1.0206e-08
-1.0023e-13
-6.7981e-10
-1.0968e-08
-3.3516e-13
-8.3941e-10
-1.1851e-08
-5.0471e-13
-1.0228e-09
-1.2882e-08
-5.4257e-13
-1.2359e-09
-1.4106e-08
-3.7375e-13
-1.4861e-09
-1.5573e-08
-1.0652e-13
-1.7769e-09
-1.732e-08
2.327e-13
-2.1027e-09
-1.936e-08
5.4195e-13
-2.4495e-09
8.1865e-13
-2.7979e-09
-8.4861e-09
-6.6688e-11
-3.2714e-10
-8.9804e-09
-8.6675e-11
-4.2414e-10
-9.5474e-09
-1.1072e-10
-5.4169e-10
-1.0206e-08
-1.3854e-10
-6.8021e-10
-1.0969e-08
-1.6983e-10
-8.4003e-10
-1.1851e-08
-2.0513e-10
-1.0236e-09
-1.2882e-08
-2.4587e-10
-1.2368e-09
-1.4106e-08
-2.9346e-10
-1.4869e-09
-1.5573e-08
-3.4764e-10
-1.7774e-09
-1.732e-08
-4.0595e-10
-2.103e-09
-1.936e-08
-4.6467e-10
-2.4496e-09
-5.1999e-10
-2.7981e-09
-8.4804e-09
-1.2713e-10
-3.0615e-10
-8.9724e-09
-1.6539e-10
-3.9706e-10
-9.5374e-09
-2.1136e-10
-5.0744e-10
-1.0194e-08
-2.6446e-10
-6.3733e-10
-1.0955e-08
-3.2427e-10
-7.8667e-10
-1.1834e-08
-3.9198e-10
-9.5769e-10
-1.2861e-08
-4.7053e-10
-1.156e-09
-1.408e-08
-5.6281e-10
-1.3887e-09
-1.5543e-08
-6.6843e-10
-1.6589e-09
-1.7287e-08
-7.8274e-10
-1.9609e-09
-1.9326e-08
-8.985e-10
-2.281e-09
-1.0082e-09
-2.6006e-09
-8.4689e-09
-1.3723e-10
-3.0362e-10
-8.9564e-09
-1.7961e-10
-3.934e-10
-9.5174e-09
-2.2914e-10
-5.0392e-10
-1.0171e-08
-2.8497e-10
-6.3477e-10
-1.0927e-08
-3.4767e-10
-7.8455e-10
-1.18e-08
-4.1981e-10
-9.5432e-10
-1.2819e-08
-5.0489e-10
-1.1504e-09
-1.4028e-08
-6.0479e-10
-1.3821e-09
-1.5483e-08
-7.1726e-10
-1.6536e-09
-1.7222e-08
-8.3577e-10
-1.9592e-09
-1.9259e-08
-9.5277e-10
-2.2837e-09
-1.0617e-09
-2.6057e-09
-8.4532e-09
-1.872e-10
-1.8751e-10
-8.9335e-09
-2.4505e-10
-2.4499e-10
-9.4885e-09
-3.1385e-10
-3.1355e-10
-1.0137e-08
-3.9203e-10
-3.9186e-10
-1.0888e-08
-4.7987e-10
-4.7991e-10
-1.1752e-08
-5.8038e-10
-5.8041e-10
-1.2757e-08
-6.9872e-10
-6.9858e-10
-1.3951e-08
-8.3871e-10
-8.3894e-10
-1.5393e-08
-9.9951e-10
-9.9987e-10
-1.7125e-08
-1.1731e-09
-1.1732e-09
-1.916e-08
-1.3486e-09
-1.3482e-09
-1.515e-09
-1.5135e-09
6.4468e-08
5.2354e-10
-1.3098e-09
3.0575e-12
5.7471e-08
4.5451e-10
-1.1341e-09
2.6599e-12
5.1582e-08
3.8254e-10
-9.7173e-10
1.9682e-12
4.6774e-08
3.1512e-10
-8.3484e-10
1.3204e-12
4.2859e-08
2.5903e-10
-7.1186e-10
8.1373e-13
3.9579e-08
2.1588e-10
-5.9533e-10
4.1438e-13
3.6725e-08
1.8205e-10
-4.8448e-10
2.1527e-13
3.4209e-08
1.5187e-10
-3.8426e-10
9.9249e-14
3.2032e-08
1.2177e-10
-3.0439e-10
-3.3389e-15
3.0198e-08
9.3023e-11
-2.4596e-10
-1.0934e-13
2.8642e-08
6.8833e-11
-1.9852e-10
-2.1056e-13
5.1949e-11
-1.5554e-10
-3.6188e-13
7.6943e-08
5.0656e-10
-2.7191e-09
6.8647e-08
4.4559e-10
-2.3504e-09
6.1631e-08
3.8089e-10
-1.9976e-09
5.586e-08
3.1704e-10
-1.6858e-09
5.1133e-08
2.6046e-10
-1.415e-09
4.7171e-08
2.1507e-10
-1.1786e-09
4.3741e-08
1.8029e-10
-9.6952e-10
4.0732e-08
1.5152e-10
-7.8417e-10
3.8129e-08
1.2351e-10
-6.2597e-10
3.5922e-08
9.6163e-11
-4.9689e-10
3.4036e-08
7.1557e-11