/*--------------------------------*- C++ -*----------------------------------*\
| =========                 |                                                 |
| \\      /  F ield         | OpenFOAM: The Open Source CFD Toolbox           |
|  \\    /   O peration     | Version:  4.1                                   |
|   \\  /    A nd           | Web:      www.OpenFOAM.org                      |
|    \\/     M anipulation  |                                                 |
\*---------------------------------------------------------------------------*/
FoamFile
{
    version     2.0;
    format      ascii;
    class       surfaceScalarField;
    location    "0.000070";
    object      phi;
}
// * * * * * * * * * * * * * * * * * * * * * * * * * * * * * * * * * * * * * //

dimensions      [0 3 -1 0 0 0 0];

internalField   nonuniform List<scalar> 
8704
(
-3.494093e-07
6.020109e-07
6.026824e-07
-7.1199727e-07
-7.117032e-07
-3.441231e-07
1.331846e-06
1.3341562e-06
-1.5285252e-06
-1.5273256e-06
-3.4712275e-07
1.7132071e-06
1.717212e-06
-1.9493745e-06
-1.9468798e-06
-3.5314281e-07
1.9544374e-06
1.9595863e-06
-2.2263642e-06
-2.222742e-06
-3.6029441e-07
2.1227585e-06
2.1283103e-06
-2.4252004e-06
-2.4213016e-06
-3.6774418e-07
2.2419009e-06
2.2465439e-06
-2.5702775e-06
-2.5672473e-06
-3.7515841e-07
2.3198669e-06
2.3229748e-06
-2.6697066e-06
-2.6679265e-06
-3.8217357e-07
2.3611797e-06
2.3626412e-06
-2.7276509e-06
-2.7270631e-06
-3.8861536e-07
2.3685794e-06
2.3686343e-06
-2.7465859e-06
-2.7471677e-06
-3.9442971e-07
2.3427091e-06
2.3424541e-06
-2.7272911e-06
-2.7288067e-06
-3.9940544e-07
2.2860851e-06
2.2854981e-06
-2.6709544e-06
-2.6736779e-06
-4.0355359e-07
2.1997702e-06
2.1975167e-06
-2.5774307e-06
-2.5821026e-06
-4.0697739e-07
2.080405e-06
2.074858e-06
-2.4439539e-06
-2.4512976e-06
-4.0940673e-07
1.9260431e-06
1.9156429e-06
-2.2695334e-06
-2.2800147e-06
-4.1089792e-07
1.7347828e-06
1.7197125e-06
-2.0546271e-06
-2.0672502e-06
-4.1123747e-07
1.5057546e-06
1.4886709e-06
-1.8002229e-06
-1.8126186e-06
-4.1077527e-07
1.2420991e-06
1.2266852e-06
-1.5075807e-06
-1.5181104e-06
-4.0923822e-07
9.5061655e-07
9.3922947e-07
-1.1815181e-06
-1.1897172e-06
-4.0678083e-07
6.3755139e-07
6.3042857e-07
-8.2684479e-07
-8.3248298e-07
-4.0364843e-07
3.0701932e-07
3.0285657e-07
-4.4741941e-07
-4.5065932e-07
-4.001128e-07
-3.7731537e-08
-4.0620084e-08
-4.7423016e-08
-4.9460594e-08
-3.9614244e-07
-3.9709708e-07
-3.996249e-07
3.7032443e-07
3.6915766e-07
-3.9161565e-07
-7.6594196e-07
-7.6812229e-07
7.9893398e-07
7.9905215e-07
-1.1338026e-06
-1.1354511e-06
1.2281348e-06
1.2296556e-06
-3.5051387e-07
5.1643643e-07
4.7946331e-07
-6.0709606e-07
-3.4057063e-07
1.1686765e-06
1.0712471e-06
-1.3019376e-06
-3.3987027e-07
1.5108976e-06
1.3898901e-06
-1.6627261e-06
-3.4286826e-07
1.7205872e-06
1.5884326e-06
-1.8960439e-06
-3.474593e-07
1.8609955e-06
1.7258591e-06
-2.0621817e-06
-3.5276655e-07
1.9545854e-06
1.821958e-06
-2.1833189e-06
-3.5835685e-07
2.0112133e-06
1.8836035e-06
-2.2661996e-06
-3.6392816e-07
2.0359065e-06
1.9159048e-06
-2.314921e-06
-3.6930495e-07
2.0310547e-06
1.9221562e-06
-2.3324894e-06
-3.7441971e-07
1.9980485e-06
1.9036726e-06
-2.3196608e-06
-3.7913896e-07
1.9391908e-06
1.862888e-06
-2.2779116e-06
-3.8342047e-07
1.8557125e-06
1.8000427e-06
-2.2074458e-06
-3.8728123e-07
1.7457275e-06
1.7100172e-06
-2.1046686e-06
-3.9054137e-07
1.6074827e-06
1.5890398e-06
-1.9671351e-06
-3.9313071e-07
1.436923e-06
1.435673e-06
-1.7941394e-06
-3.9507795e-07
1.231971e-06
1.251982e-06
-1.5866318e-06
-3.9632395e-07
9.9617152e-07
1.0426496e-06
-1.3455511e-06
-3.96898e-07
7.3699682e-07
8.1290296e-07
-1.0735975e-06
-3.9685361e-07
4.621948e-07
5.6613762e-07
-7.7441312e-07
-3.9618824e-07
1.7605261e-07
3.0389164e-07
-4.5115117e-07
-3.9502133e-07
-1.2130077e-07
2.6160016e-08
-1.0512452e-07
-3.9301539e-07
-4.3091073e-07
-2.6883605e-07
2.6176956e-07
-3.9016451e-07
-7.4821728e-07
-5.759958e-07
6.436446e-07
-1.0638488e-06
-8.8500708e-07
1.0305957e-06
-3.5125432e-07
4.3137969e-07
3.8254993e-07
-5.043813e-07
-3.3855748e-07
9.9885693e-07
8.4867525e-07
-1.0760714e-06
-3.3580288e-07
1.2952053e-06
1.1074502e-06
-1.3841441e-06
-3.3740285e-07
1.4706797e-06
1.2701434e-06
-1.5856179e-06
-3.4092927e-07
1.5822453e-06
1.3846675e-06
-1.7320018e-06
-3.4536762e-07
1.6514845e-06
1.466463e-06
-1.8410294e-06
-3.5024787e-07
1.6882273e-06
1.5201274e-06
-1.9176921e-06
-3.5529378e-07
1.6967864e-06
1.5508783e-06
-1.9662028e-06
-3.6034445e-07
1.6794847e-06
1.5619335e-06
-1.9892733e-06
-3.6531723e-07
1.6391824e-06
1.5534177e-06
-1.9868788e-06
-3.7011709e-07
1.5785609e-06
1.5284566e-06
-1.960721e-06
-3.7468319e-07
1.498361e-06
1.4883229e-06
-1.9116756e-06
-3.7897505e-07
1.3979243e-06
1.4277026e-06
-1.8363896e-06
-3.828701e-07
1.2760012e-06
1.3409439e-06
-1.7308845e-06
-3.8629954e-07
1.1272838e-06
1.2245059e-06
-1.5923949e-06
-3.8921589e-07
9.4851494e-07
1.0803358e-06
-1.4221554e-06
-3.9153784e-07
7.4317842e-07
9.1479579e-07
-1.2234263e-06
-3.9325324e-07
5.1968292e-07
7.3294911e-07
-9.9823725e-07
-3.9432077e-07
2.8608596e-07
5.3850287e-07
-7.4967664e-07
-3.9477535e-07
4.5997639e-08
3.3160963e-07
-4.788974e-07
-3.9454555e-07
-2.0104485e-07
1.1017641e-07
-1.8715091e-07
-3.9351254e-07
-4.5708975e-07
-1.2852274e-07
1.2532781e-07
-3.9164379e-07
-7.1795981e-07
-3.806124e-07
4.5328052e-07
-9.7559237e-07
-6.3727036e-07
7.8820286e-07
-3.5209194e-07
3.4675744e-07
2.864465e-07
-3.9910403e-07
-3.3805122e-07
8.2482753e-07
6.2070844e-07
-8.3597354e-07
-3.3401959e-07
1.0703906e-06
8.1306345e-07
-1.0833058e-06
-3.3474895e-07
1.2090348e-06
9.3763455e-07
-1.2493806e-06
-3.3752653e-07
1.2911759e-06
1.0287906e-06
-1.3748343e-06
-3.4134655e-07
1.3363382e-06
1.0962715e-06
-1.4711001e-06
-3.4571589e-07
1.3532035e-06
1.1424872e-06
-1.5416327e-06
-3.5037075e-07
1.3458674e-06
1.1727093e-06
-1.5905974e-06
-3.551743e-07
1.3174721e-06
1.1903722e-06
-1.6206436e-06
-3.6003577e-07
1.2712783e-06
1.1943916e-06
-1.6309398e-06
-3.6485412e-07
1.2097274e-06
1.1870203e-06
-1.6225346e-06
-3.6953994e-07
1.1336826e-06
1.1703469e-06
-1.596571e-06
-3.7402425e-07
1.0431916e-06
1.139872e-06
-1.5503102e-06
-3.7822506e-07
9.3691964e-07
1.0883494e-06
-1.4786713e-06
-3.8203772e-07
8.102945e-07
1.0101833e-06
-1.3775806e-06
-3.8540333e-07
6.5962947e-07
9.0729435e-07
-1.2480944e-06
-3.8826288e-07
4.8698381e-07
7.8609914e-07
-1.0936517e-06
-3.9058018e-07
3.0135404e-07
6.5272851e-07
-9.1733276e-07
-3.9226021e-07
1.1125543e-07
5.1125879e-07
-7.2238629e-07
-3.9329612e-07
-8.0619809e-08
3.6007182e-07
-5.085623e-07
-3.9362651e-07
-2.7546241e-07
1.961918e-07
-2.7520455e-07
-3.9332442e-07
-4.7533705e-07
1.607463e-08
-2.1987366e-08
-3.9225688e-07
-6.7634541e-07
-1.7777526e-07
2.4641359e-07
-8.719513e-07
-3.7881848e-07
5.237382e-07
-3.529005e-07
2.6220032e-07
1.9018208e-07
-2.9144441e-07
-3.3857594e-07
6.4820501e-07
3.8888744e-07
-5.8548907e-07
-3.3397409e-07
8.3966028e-07
5.1204679e-07
-7.6621489e-07
-3.3416343e-07
9.40341e-07
5.9757893e-07
-8.9438996e-07
-3.3635513e-07
9.9344335e-07
6.6488322e-07
-9.9739404e-07
-3.3961279e-07
1.0143466e-06
7.1852111e-07
-1.0804445e-06
-3.4346002e-07
1.0116807e-06
7.5876383e-07
-1.1454131e-06
-3.4763915e-07
9.9020463e-07
7.8966828e-07
-1.1954307e-06
-3.5205109e-07
9.5326934e-07
8.1521471e-07
-1.2333042e-06
-3.5661098e-07
9.0311747e-07
8.3437463e-07
-1.2583449e-06
-3.6121064e-07
8.4157749e-07
8.4680974e-07
-1.2697288e-06
-3.6575346e-07
7.7071339e-07
8.5383564e-07
-1.2678217e-06
-3.7015912e-07
6.9116193e-07
8.5223954e-07
-1.2506201e-06
-3.7436584e-07
6.0025615e-07
8.3447335e-07
-1.2130183e-06
-3.7825759e-07
4.941466e-07
7.9387063e-07
-1.1502474e-06
-3.8174897e-07
3.7103653e-07
7.3238295e-07
-1.0633696e-06
-3.8481481e-07
2.3239913e-07
6.5628899e-07
-9.5565475e-07
-3.8741459e-07
8.6048596e-08
5.7184887e-07
-8.3041298e-07
-3.8947094e-07
-5.9759301e-08
4.8299284e-07
-6.9064732e-07
-3.9096337e-07
-2.0280354e-07
3.8670521e-07
-5.3503604e-07
-3.9181221e-07
-3.4454947e-07
2.7966516e-07
-3.6251868e-07
-3.9200808e-07
-4.8678104e-07
1.5864287e-07
-1.7271137e-07
-3.9147484e-07
-6.2672367e-07
2.3716716e-08
3.2838699e-08
-7.5942598e-07
-1.2006783e-07
2.4897359e-07
-3.5359583e-07
1.7883189e-07
9.4028517e-08
-1.8193806e-07
-3.3992201e-07
4.7350758e-07
1.5620948e-07
-3.2844976e-07
-3.3542642e-07
6.0899857e-07
2.0960716e-07
-4.3940305e-07
-3.3525723e-07
6.712186e-07
2.5658103e-07
-5.296826e-07
-3.370577e-07
6.9470229e-07
3.0062434e-07
-6.0811767e-07
-3.3979013e-07
6.9304293e-07
3.4130949e-07
-6.7749591e-07
-3.4308458e-07
6.733515e-07
3.7660724e-07
-7.3693861e-07
-3.4671548e-07
6.3992474e-07
4.0898727e-07
-7.8819502e-07
-3.5057991e-07
5.9563152e-07
4.4262834e-07
-8.3369764e-07
-3.5462948e-07
5.4219977e-07
4.7701154e-07
-8.7312079e-07
-3.5877662e-07
4.8146653e-07
5.0952123e-07
-9.0440736e-07
-3.6292931e-07
4.161105e-07
5.3963546e-07
-9.2676854e-07
-3.6703304e-07
3.4690838e-07
5.6488189e-07
-9.3843658e-07
-3.7102727e-07
2.7038166e-07
5.7865809e-07
-9.3474262e-07
-3.7478882e-07
1.8330044e-07
5.7427685e-07
-9.1084116e-07
-3.7822283e-07
8.6399571e-08
5.5380685e-07
-8.6761135e-07
-3.8130397e-07
-1.8119537e-08
5.2346603e-07
-8.0831938e-07
-3.8399814e-07
-1.2439655e-07
4.8814797e-07
-7.3592372e-07
-3.8623424e-07
-2.2563705e-07
4.5060415e-07
-6.5259238e-07
-3.8796309e-07
-3.2006905e-07
4.0738734e-07
-5.5595699e-07
-3.8910485e-07
-4.0938682e-07
3.5523095e-07
-4.4434384e-07
-3.8963588e-07
-4.9489617e-07
2.9111901e-07
-3.171724e-07
-3.8946277e-07
-5.744071e-07
2.139743e-07
-1.7539871e-07
-6.4436406e-07
1.2627267e-07
-2.2366269e-08
-3.5427348e-07
9.8648549e-08
-5.539207e-10
-7.1655803e-08
-3.422262e-07
3.0694591e-07
-7.1825732e-08
-7.0010032e-08
-3.3843449e-07
3.8501912e-07
-8.6246736e-08
-1.1072858e-07
-3.3831376e-07
4.066847e-07
-7.5946034e-08
-1.6263134e-07
-3.3985227e-07
4.0002178e-07
-5.3673307e-08
-2.1741126e-07
-3.4221188e-07
3.7666136e-07
-2.5683989e-08
-2.7166102e-07
-3.4505547e-07
3.4097535e-07
4.1175384e-09
-3.2415029e-07
-3.4817661e-07
2.961222e-07
3.7254372e-08
-3.7582401e-07
-3.5147292e-07
2.4457842e-07
7.7336193e-08
-4.2769929e-07
-3.5492414e-07
1.8853078e-07
1.2374069e-07
-4.7948818e-07
-3.584867e-07
1.2937982e-07
1.732587e-07
-5.2893663e-07
-3.6208064e-07
6.924438e-08
2.2425782e-07
-5.7460134e-07
-3.6567526e-07
8.9792371e-09
2.7436881e-07
-6.1456756e-07
-3.6922422e-07
-5.4214177e-08
3.1765858e-07
-6.442484e-07
-3.7261636e-07
-1.2252506e-07
3.4819082e-07
-6.590617e-07
-3.7576082e-07
-1.9357802e-07
3.683552e-07
-6.5999016e-07
-3.786135e-07
-2.6439613e-07
3.8361364e-07
-6.501288e-07
-3.8113712e-07
-3.3092206e-07
3.9656897e-07
-6.3110321e-07
-3.8326336e-07
-3.8827004e-07
4.0844171e-07
-6.0362251e-07
-3.8492533e-07
-4.3531238e-07
4.1614783e-07
-5.6523269e-07
-3.8605097e-07
-4.735903e-07
4.1629882e-07
-5.1381369e-07
-3.8660391e-07
-5.0394679e-07
4.0598229e-07
-4.4836597e-07
-3.8649056e-07
-5.2495755e-07
3.8347449e-07
-3.6888997e-07
-5.3458699e-07
3.4954596e-07
-2.7697741e-07
-3.548571e-07
-9.623006e-08
3.1681081e-08
3.4043319e-08
-3.4544347e-07
-3.0004698e-07
1.7286142e-07
1.7963474e-07
-3.4262642e-07
-3.7535921e-07
1.9669503e-07
2.061272e-07
-3.4261094e-07
-3.9718082e-07
1.8077743e-07
1.8990008e-07
-3.4383754e-07
-3.9283499e-07
1.4724368e-07
1.5377911e-07
-3.4572908e-07
-3.7428235e-07
1.0547422e-07
1.0747034e-07
-3.4798636e-07
-3.4664914e-07
5.8446998e-08
5.3642609e-08
-3.5049709e-07
-3.1005979e-07
6.5298383e-09
-4.9700135e-09
-3.5306895e-07
-2.6223751e-07
-5.1367871e-08
-6.6288162e-08
-3.5580767e-07
-2.0443822e-07
-1.1395287e-07
-1.2812708e-07
-3.5871814e-07
-1.3934488e-07
-1.7914081e-07
-1.8921303e-07
-3.6172688e-07
-6.8771699e-08
-2.4528193e-07
-2.4792844e-07
-3.6480075e-07
4.8394559e-09
-3.1012453e-07
-3.0346977e-07
-3.6792149e-07
7.6571513e-08
-3.6934464e-07
-3.5737906e-07
-3.7098956e-07
1.420071e-07
-4.1912703e-07
-4.1050554e-07
-3.739046e-07
2.0286884e-07
-4.604741e-07
-4.5991567e-07
-3.7657292e-07
2.6252758e-07
-4.9553074e-07
-5.0249588e-07
-3.7892652e-07
3.2156208e-07
-5.2427816e-07
-5.3547646e-07
-3.8087719e-07
3.7974938e-07
-5.462489e-07
-5.5567018e-07
-3.8235389e-07
4.3443651e-07
-5.5915881e-07
-5.6244617e-07
-3.8329287e-07
4.8241624e-07
-5.6066649e-07
-5.5710315e-07
-3.8365799e-07
5.2095863e-07
-5.4939797e-07
-5.4031796e-07
-3.8336037e-07
5.4817505e-07
-5.2474498e-07
-5.1155591e-07
5.6373571e-07
-4.8725522e-07
-4.7019262e-07
-3.5053984e-07
4.7850844e-07
5.1748061e-07
-6.0659709e-07
-3.4061627e-07
1.0682297e-06
1.1724029e-06
-1.3002509e-06
-3.3992791e-07
1.3851201e-06
1.5171977e-06
-1.6596472e-06
-3.4293833e-07
1.5824353e-06
1.7281553e-06
-1.8918814e-06
-3.47534e-07
1.7192705e-06
1.8688095e-06
-2.0579122e-06
-3.5283452e-07
1.8164726e-06
1.961845e-06
-2.1801386e-06
-3.5842949e-07
1.8802264e-06
2.0172998e-06
-2.2645839e-06
-3.6401005e-07
1.9147692e-06
2.0405031e-06
-2.3148669e-06
-3.6940501e-07
1.9232756e-06
2.0345345e-06
-2.3341098e-06
-3.7453348e-07
1.9063761e-06
2.0018029e-06
-2.3230674e-06
-3.7924553e-07
1.8669348e-06
1.9434716e-06
-2.2833493e-06
-3.8351874e-07
1.8060394e-06
1.8589481e-06
-2.2151861e-06
-3.8737782e-07
1.7191442e-06
1.7452856e-06
-2.1149949e-06
-3.9064407e-07
1.6028491e-06
1.6003442e-06
-1.9803235e-06
-3.9325228e-07
1.4541307e-06
1.4225922e-06
-1.8094252e-06
-3.9521017e-07
1.2721601e-06
1.2134538e-06
-1.6016097e-06
-3.9644128e-07
1.0603201e-06
9.786426e-07
-1.357901e-06
-3.9698407e-07
8.257009e-07
7.2497752e-07
-1.0828928e-06
-3.969075e-07
5.7372203e-07
4.559918e-07
-7.8044163e-07
-3.9618677e-07
3.0695083e-07
1.7310896e-07
-4.5392285e-07
-3.9496572e-07
2.6713173e-08
-1.2338279e-07
-1.060211e-07
-3.9292957e-07
-2.6968071e-07
-4.3419332e-07
2.6236581e-07
-3.9006311e-07
-5.7888184e-07
-7.5372114e-07
6.4682036e-07
-8.9070842e-07
-1.0714434e-06
1.0370965e-06
-3.6083195e-07
3.9794926e-07
3.9935286e-07
-3.4905127e-07
9.1286758e-07
9.1744613e-07
-3.4572662e-07
1.1946217e-06
1.2015549e-06
-3.4616224e-07
1.3666596e-06
1.374617e-06
-3.4819049e-07
1.4813192e-06
1.4901201e-06
-3.5097798e-07
1.5574295e-06
1.5659095e-06
-3.5407499e-07
1.6036026e-06
1.6103836e-06
-3.5727381e-07
1.6245547e-06
1.629031e-06
-3.604495e-07
1.6225113e-06
1.6249138e-06
-3.635709e-07
1.5989359e-06
1.6007609e-06
-3.6661818e-07
1.5570307e-06
1.5588014e-06
-3.6955867e-07
1.4980803e-06
1.4986568e-06
-3.7236256e-07
1.4190098e-06
1.4159215e-06
-3.7496689e-07
1.3167342e-06
1.3066346e-06
-3.773056e-07
1.1858434e-06
1.1677411e-06
-3.793381e-07
1.0239316e-06
1.0012116e-06
-3.8107297e-07
8.3549235e-07
8.14522e-07
-3.8242332e-07
6.2950085e-07
6.1544795e-07
-3.8335009e-07
4.1367319e-07
4.0701087e-07
-3.8386103e-07
1.9067028e-07
1.8878998e-07
-3.8375446e-07
-4.1211132e-08
-4.0964065e-08
-3.8260819e-07
-2.8596054e-07
-2.855841e-07
-3.8047287e-07
-5.4053351e-07
-5.4064863e-07
-7.9578885e-07
-7.9598354e-07
-3.6153726e-07
3.183838e-07
3.0476116e-07
-3.4842259e-07
7.5163773e-07
6.9501493e-07
-3.442252e-07
9.9042158e-07
9.1453833e-07
-3.4419464e-07
1.1328608e-06
1.0488603e-06
-3.4595646e-07
1.2237699e-06
1.1394435e-06
-3.4851296e-07
1.2797604e-06
1.1996952e-06
-3.5139499e-07
1.3092225e-06
1.2350353e-06
-3.5442027e-07
1.3159125e-06
1.2510639e-06
-3.5747144e-07
1.3025036e-06
1.2509644e-06
-3.6052154e-07
1.2726383e-06
1.236404e-06
-3.6358984e-07
1.2291508e-06
1.2107617e-06
-3.6663693e-07
1.1725033e-06
1.1745376e-06
-3.6962572e-07
1.1014465e-06
1.1223873e-06
-3.7250818e-07
1.0137299e-06
1.0483478e-06
-3.7523637e-07
9.0240041e-07
9.4777585e-07
-3.7770159e-07
7.6314607e-07
8.2247891e-07
-3.7988127e-07
6.0109787e-07
6.8118454e-07
-3.8171961e-07
4.2700505e-07
5.3173361e-07
-3.831082e-07
2.4954469e-07
3.7701732e-07
-3.8402706e-07
7.1082103e-08
2.1529359e-07
-3.8428318e-07
-1.1140854e-07
4.3165181e-08
-3.8358503e-07
-3.0246855e-07
-1.4368206e-07
-3.819699e-07
-4.9944752e-07
-3.4237942e-07
-6.945019e-07
-5.4423541e-07
-3.6203872e-07
2.3891136e-07
2.0994893e-07
-3.4840377e-07
5.8504969e-07
4.6588543e-07
-3.4389155e-07
7.7405367e-07
6.1454275e-07
-3.4380492e-07
8.8191905e-07
7.0786171e-07
-3.4564898e-07
9.4589687e-07
7.7297495e-07
-3.4833059e-07
9.8013396e-07
8.1828466e-07
-3.5135885e-07
9.912853e-07
8.4624595e-07
-3.5453279e-07
9.8314681e-07
8.6201586e-07
-3.5775852e-07
9.5981984e-07
8.687802e-07
-3.609773e-07
9.255233e-07
8.6665664e-07
-3.6418836e-07
8.8213925e-07
8.5895281e-07
-3.6734079e-07
8.2969414e-07
8.4752284e-07
-3.7040717e-07
7.6800839e-07
8.2713457e-07
-3.7334771e-07
6.9519771e-07
7.8941838e-07
-3.7606597e-07
6.045672e-07
7.2812906e-07
-3.7851244e-07
4.9116836e-07
6.4546832e-07
-3.8064095e-07
3.5930907e-07
5.5011613e-07
-3.8244451e-07
2.2054327e-07
4.5032243e-07
-3.8380626e-07
8.3719705e-08
3.4890371e-07
-3.846961e-07
-4.9451866e-08
2.4312196e-07
-3.8496961e-07
-1.8191789e-07
1.2893582e-07
-3.8453522e-07
-3.1821993e-07
1.5714506e-09
-3.8335076e-07
-4.5602901e-07
-1.3769952e-07
-5.8906098e-07
-2.8259766e-07
-3.6201798e-07
1.5864743e-07
1.1425101e-07
-3.4840208e-07
4.1296552e-07
2.3186481e-07
-3.4399962e-07
5.468651e-07
3.0645596e-07
-3.4407096e-07
6.175207e-07
3.579526e-07
-3.4610997e-07
6.5266067e-07
3.9800471e-07
-3.4898557e-07
6.6311115e-07
4.2933935e-07
-3.5219791e-07
6.5528854e-07
4.5180139e-07
-3.5552522e-07
6.3401889e-07
4.689657e-07
-3.5890239e-07
6.034579e-07
4.8420885e-07
-3.6224387e-07
5.6622386e-07
4.973106e-07
-3.6550586e-07
5.2347039e-07
5.0970546e-07
-3.6865705e-07
4.7654181e-07
5.2334827e-07
-3.71667e-07
4.2616807e-07
5.3372031e-07
-3.7450535e-07
3.6893308e-07
5.3111993e-07
-3.7706549e-07
2.9889999e-07
5.0841501e-07
-3.7931629e-07
2.129472e-07
4.6831983e-07
-3.812452e-07
1.140594e-07
4.1933414e-07
-3.8286264e-07
1.23952e-08
3.6897378e-07
-3.840945e-07
-8.3051805e-08
3.1973301e-07
-3.8488253e-07
-1.7035264e-07
2.684844e-07
-3.8515272e-07
-2.5288866e-07
2.1130219e-07
-3.8486646e-07
-3.3487587e-07
1.4339284e-07
-3.8398507e-07
-4.144018e-07
6.4122988e-08
-4.865032e-07
-2.2441188e-08
-3.6147444e-07
7.910916e-08
1.817414e-08
-3.4830684e-07
2.4128683e-07
-3.3404976e-09
-3.4429094e-07
3.1716783e-07
-3.3125474e-09
-3.446114e-07
3.486637e-07
6.4931049e-09
-3.4682334e-07
3.5453267e-07
2.2376992e-08
-3.4982625e-07
3.42414e-07
4.1154235e-08
-3.5313949e-07
3.179659e-07
5.9009447e-08
-3.5654352e-07
2.8544487e-07
7.7943101e-08
-3.5994961e-07
2.4805196e-07
1.0238091e-07
-3.632754e-07
2.0763308e-07
1.3221686e-07
-3.6645746e-07
1.6557114e-07
1.6588983e-07
-3.6948891e-07
1.2437689e-07
2.034299e-07
-3.7236786e-07
8.5008554e-08
2.4114904e-07
-3.7505807e-07
4.2384703e-08
2.7080377e-07
-3.7745526e-07
-8.7164187e-09
2.8537156e-07
-3.7953549e-07
-6.8316603e-08
2.8728943e-07
-3.8129943e-07
-1.3358382e-07
2.8473975e-07
-3.8276602e-07
-1.9702802e-07
2.8347209e-07
-3.8387905e-07
-2.5057014e-07
2.8503608e-07
-3.8457692e-07
-2.9226885e-07
2.8667933e-07
-3.8482471e-07
-3.2587168e-07
2.8470044e-07
-3.8458499e-07
-3.5500108e-07
2.7417094e-07
-3.8379617e-07
-3.780833e-07
2.5304549e-07
-3.9173915e-07
2.2326495e-07
-3.6071161e-07
3.3935209e-09
-7.6302559e-08
-3.4857581e-07
8.021598e-08
-2.3273997e-07
-3.4519346e-07
9.8486585e-08
-3.0390864e-07
-3.4581791e-07
8.8578853e-08
-3.3373807e-07
-3.4817452e-07
6.3862509e-08
-3.4107892e-07
-3.5127691e-07
2.9944587e-08
-3.3501785e-07
-3.5466094e-07
-1.03942e-08
-3.2267752e-07
-3.5811763e-07
-5.4596555e-08
-3.0293867e-07
-3.6150925e-07
-9.9726059e-08
-2.7104161e-07
-3.6476088e-07
-1.4370609e-07
-2.2743646e-07
-3.6782527e-07
-1.8505822e-07
-1.7553352e-07
-3.7069246e-07
-2.2158414e-07
-1.1702308e-07
-3.7339072e-07
-2.5263217e-07
-5.486854e-08
-3.7587288e-07
-2.8272701e-07
4.8067587e-09
-3.7806789e-07
-3.1587499e-07
5.5703488e-08
-3.7996083e-07
-3.5034328e-07
9.9493144e-08
-3.8153377e-07
-3.8274294e-07
1.4311624e-07
-3.8280351e-07
-4.0775351e-07
1.9027448e-07
-3.8372434e-07
-4.1948152e-07
2.4149215e-07
-3.842381e-07
-4.1687994e-07
2.9432328e-07
-3.8431593e-07
-4.0318122e-07
3.4506495e-07
-3.8393142e-07
-3.8110087e-07
3.888079e-07
-3.829994e-07
-3.4988528e-07
4.2264363e-07
-3.0770582e-07
4.4694438e-07
-3.5432963e-07
-1.7667359e-07
-6.9249672e-08
-3.423049e-07
-4.671969e-07
-6.2961139e-08
-3.3850205e-07
-5.9968135e-07
-1.0066349e-07
-3.3835346e-07
-6.6130754e-07
-1.5268494e-07
-3.3986912e-07
-6.8654493e-07
-2.1022773e-07
-3.4218767e-07
-6.8984207e-07
-2.6965899e-07
-3.450057e-07
-6.790591e-07
-3.2965298e-07
-3.4812444e-07
-6.5468012e-07
-3.8894459e-07
-3.5143128e-07
-6.1426035e-07
-4.4470146e-07
-3.5485401e-07
-5.5876601e-07
-4.9542641e-07
-3.5835254e-07
-4.9114897e-07
-5.3986271e-07
-3.6188257e-07
-4.13396e-07
-5.7640097e-07
-3.6542382e-07
-3.2800863e-07
-6.0449667e-07
-3.6892045e-07
-2.3962152e-07
-6.2634721e-07
-3.723012e-07
-1.52837e-07
-6.4372825e-07
-3.7549707e-07
-6.6729678e-08
-6.5448556e-07
-3.7840927e-07
2.3084015e-08
-6.5541562e-07
-3.8099101e-07
1.1829197e-07
-6.4305838e-07
-3.8315426e-07
2.1839137e-07
-6.1406239e-07
-3.8482494e-07
3.2113987e-07
-5.6811664e-07
-3.8595611e-07
4.2302328e-07
-5.0759495e-07
-3.8651806e-07
5.1955995e-07
-4.3455499e-07
-3.8639342e-07
6.0755051e-07
-3.4936404e-07
6.8596543e-07
-2.5201023e-07
-3.5133962e-07
3.8171488e-07
4.3258656e-07
-5.0381916e-07
-3.3869063e-07
8.4644777e-07
1.0033252e-06
-1.0745907e-06
-3.3596431e-07
1.1042351e-06
1.303125e-06
-1.381834e-06
-3.3758597e-07
1.2662372e-06
1.4799979e-06
-1.582694e-06
-3.4111714e-07
1.3805623e-06
1.5910257e-06
-1.7294075e-06
-3.455433e-07
1.4635764e-06
1.6596669e-06
-1.8396648e-06
-3.5042218e-07
1.5197528e-06
1.6960823e-06
-1.9181543e-06
-3.5547967e-07
1.5531362e-06
1.7041748e-06
-1.9685405e-06
-3.605526e-07
1.5666831e-06
1.6869894e-06
-1.9935306e-06
-3.6553043e-07
1.5606362e-06
1.6482124e-06
-1.9934973e-06
-3.7031308e-07
1.5377568e-06
1.5888421e-06
-1.9698377e-06
-3.7485412e-07
1.4993805e-06
1.5076662e-06
-1.9230415e-06
-3.7912459e-07
1.4409138e-06
1.4028145e-06
-1.8496463e-06
-3.8302527e-07
1.3577785e-06
1.2723966e-06
-1.746317e-06
-3.8648413e-07
1.2459125e-06
1.1145409e-06
-1.6102966e-06
-3.8942154e-07
1.103578e-06
9.303749e-07
-1.4402722e-06
-3.9172248e-07
9.3508016e-07
7.2559993e-07
-1.2383812e-06
-3.9339548e-07
7.4780905e-07
5.0804141e-07
-1.0092238e-06
-3.943904e-07
5.4719168e-07
2.8119131e-07
-7.5675235e-07
-3.9474468e-07
3.3424754e-07
4.4656166e-08
-4.8178053e-07
-3.9442127e-07
1.0813746e-07
-2.0200556e-07
-1.8682569e-07
-3.9333274e-07
-1.3479475e-07
-4.6054092e-07
1.2879874e-07
-3.9144676e-07
-3.9230769e-07
-7.2622368e-07
4.616074e-07
-6.5526728e-07
-9.8906443e-07
8.0234422e-07
-3.6158918e-07
3.0346287e-07
3.200113e-07
-3.4850848e-07
6.912632e-07
7.5721038e-07
-3.4431684e-07
9.0957806e-07
9.9954083e-07
-3.4428427e-07
1.0433266e-06
1.1432913e-06
-3.4605959e-07
1.1326882e-06
1.2340999e-06
-3.4861576e-07
1.1931338e-06
1.2898478e-06
-3.5150101e-07
1.230949e-06
1.3187049e-06
-3.5452905e-07
1.2500838e-06
1.3244706e-06
-3.5758668e-07
1.2526469e-06
1.3105603e-06
-3.6062964e-07
1.2396879e-06
1.281428e-06
-3.6368798e-07
1.2146446e-06
1.2387794e-06
-3.6671824e-07
1.1789305e-06
1.1811438e-06
-3.6968335e-07
1.1291774e-06
1.1054293e-06
-3.7256497e-07
1.0610124e-06
1.0083092e-06
-3.7531416e-07
9.6828913e-07
8.8631903e-07
-3.7779939e-07
8.4774197e-07
7.406583e-07
-3.7997743e-07
7.0424221e-07
5.7982034e-07
-3.8179536e-07
5.4721188e-07
4.1337189e-07
-3.8314111e-07
3.8403908e-07
2.4440959e-07
-3.840038e-07
2.1613624e-07
7.1031767e-08
-3.8421152e-07
3.9725993e-08
-1.0989846e-07
-3.8349657e-07
-1.5062006e-07
-3.0251191e-07
-3.8188657e-07
-3.5279382e-07
-5.0309571e-07
-5.5836181e-07
-7.0207404e-07
-3.6222172e-07
2.2517034e-07
2.2677927e-07
-3.4784669e-07
5.293143e-07
5.3424734e-07
-3.4283388e-07
7.0154507e-07
7.0863536e-07
-3.4239776e-07
8.0452636e-07
8.1231473e-07
-3.4396568e-07
8.6958907e-07
8.7827406e-07
-3.4637947e-07
9.0939367e-07
9.1833219e-07
-3.4914947e-07
9.3003436e-07
9.3755585e-07
-3.5209785e-07
9.3446652e-07
9.4014559e-07
-3.5508931e-07
9.2545125e-07
9.2987506e-07
-3.5810445e-07
9.0643952e-07
9.1061471e-07
-3.6119622e-07
8.8029684e-07
8.8502719e-07
-3.6431576e-07
8.4756899e-07
8.5225043e-07
-3.6743522e-07
8.0648591e-07
8.0778342e-07
-3.7054902e-07
7.5335832e-07
7.4630802e-07
-3.7356727e-07
6.8041515e-07
6.6276062e-07
-3.7640372e-07
5.8274479e-07
5.5833691e-07
-3.7893138e-07
4.6586629e-07
4.4316848e-07
-3.8115177e-07
3.4117365e-07
3.2692504e-07
-3.8296455e-07
2.1675262e-07
2.1171527e-07
-3.8425311e-07
9.3589163e-08
9.4646819e-08
-3.848835e-07
-3.3115581e-08
-2.8544253e-08
-3.846514e-07
-1.6931397e-07
-1.6297158e-07
-3.8357517e-07
-3.132499e-07
-3.0645801e-07
-4.5741274e-07
-4.5092899e-07
-3.6249475e-07
1.4604315e-07
1.3183335e-07
-3.475204e-07
3.6128583e-07
3.0186427e-07
-3.4218996e-07
4.8153993e-07
4.0150326e-07
-3.4169416e-07
5.4973155e-07
4.6218511e-07
-3.4334636e-07
5.8886201e-07
5.0186634e-07
-3.4591624e-07
6.0771278e-07
5.2649215e-07
-3.4888011e-07
6.1043044e-07
5.3828141e-07
-3.5203654e-07
6.0021839e-07
5.4130437e-07
-3.5524394e-07
5.818096e-07
5.3883517e-07
-3.5846054e-07
5.5967544e-07
5.3283816e-07
-3.6171913e-07
5.3490602e-07
5.2613955e-07
-3.649511e-07
5.0694774e-07
5.193525e-07
-3.6815247e-07
4.7491716e-07
5.0778438e-07
-3.7131582e-07
4.3613067e-07
4.8345226e-07
-3.7432108e-07
3.8291011e-07
4.4003565e-07
-3.7709162e-07
3.0957557e-07
3.7949956e-07
-3.7956631e-07
2.2190083e-07
3.1169319e-07
-3.817571e-07
1.3201864e-07
2.4573656e-07
-3.8358219e-07
4.7378158e-08
1.8334022e-07
-3.8490846e-07
-3.1314214e-08
1.2168313e-07
-3.8563747e-07
-1.0835823e-07
5.6404664e-08
-3.8568215e-07
-1.8943943e-07
-1.8182912e-08
-3.8503817e-07
-2.7325133e-07
-1.0163538e-07
-3.5365294e-07
-1.8831756e-07
-3.623106e-07
6.5147176e-08
3.4864723e-08
-3.473399e-07
1.8663013e-07
6.2525939e-08
-3.4214841e-07
2.5055197e-07
8.3988273e-08
-3.4185933e-07
2.815948e-07
1.0075094e-07
-3.437597e-07
2.9299528e-07
1.1433251e-07
-3.4658534e-07
2.8969115e-07
1.2474957e-07
-3.4979793e-07
2.7449385e-07
1.3159142e-07
-3.5317496e-07
2.5190347e-07
1.3754169e-07
-3.5661234e-07
2.2743941e-07
1.4524622e-07
-3.600151e-07
2.0394368e-07
1.5515802e-07
-3.6338289e-07
1.8077743e-07
1.6889897e-07
-3.6665182e-07
1.5768427e-07
1.8810027e-07
-3.6981324e-07
1.352341e-07
2.0876429e-07
-3.7286982e-07
1.1087251e-07
2.2091612e-07
-3.7569037e-07
7.7770099e-08
2.1762552e-07
-3.7822743e-07
3.1056223e-08
2.0150696e-07
-3.8046379e-07
-2.4770254e-08
1.8136616e-07
-3.8243171e-07
-7.8921517e-08
1.6493016e-07
-3.8404732e-07
-1.2379203e-07
1.5396871e-07
-3.8520841e-07
-1.5763598e-07
1.4683381e-07
-3.8587115e-07
-1.8473833e-07
1.3918564e-07
-3.8598153e-07
-2.109682e-07
1.2461459e-07
-3.8552955e-07
-2.3542461e-07
1.0186399e-07
-2.5326941e-07
7.4297202e-08
-3.6192093e-07
-1.492609e-08
-6.2015808e-08
-3.4753017e-07
1.3560886e-08
-1.7610184e-07
-3.4280288e-07
1.9761295e-08
-2.3239787e-07
-3.4279831e-07
1.27734e-08
-2.5916446e-07
-3.4489674e-07
-3.9806265e-09
-2.7072261e-07
-3.4786308e-07
-2.8885636e-08
-2.7338454e-07
-3.5117198e-07
-5.9595738e-08
-2.709086e-07
-3.5462593e-07
-9.2537299e-08
-2.6230127e-07
-3.5814232e-07
-1.2369104e-07
-2.44601e-07
-3.6158398e-07
-1.5090026e-07
-2.1795257e-07
-3.6488484e-07
-1.7419865e-07
-1.8289566e-07
-3.6804907e-07
-1.9259054e-07
-1.3853966e-07
-3.710785e-07
-2.0481281e-07
-8.8705181e-08
-3.7394965e-07
-2.1490021e-07
-4.2656548e-08
-3.7654492e-07
-2.2897299e-07
-7.2277651e-09
-3.7885201e-07
-2.4942858e-07
1.9537761e-08
-3.8085941e-07
-2.727908e-07
4.6188205e-08
-3.8259281e-07
-2.9042547e-07
7.9146296e-08
-3.8398972e-07
-2.9483767e-07
1.1920818e-07
-3.8495787e-07
-2.8385065e-07
1.6530734e-07
-3.8546741e-07
-2.6196653e-07
2.1364408e-07
-3.8547732e-07
-2.3480575e-07
2.5724842e-07
-3.8493708e-07
-2.0193833e-07
2.9317594e-07
-1.6001033e-07
3.2311475e-07
-3.6151199e-07
-9.1036343e-08
-1.5628934e-07
-3.4835937e-07
-1.4713352e-07
-4.0527844e-07
-3.4433099e-07
-1.958627e-07
-5.3397409e-07
-3.4462876e-07
-2.4172529e-07
-6.0206903e-07
-3.4683218e-07
-2.8808926e-07
-6.383117e-07
-3.4982693e-07
-3.3503876e-07
-6.54774e-07
-3.5312523e-07
-3.8109761e-07
-6.5829802e-07
-3.5655201e-07
-4.2500454e-07
-6.4894169e-07
-3.6000587e-07
-4.6451767e-07
-6.234741e-07
-3.6335167e-07
-4.9702245e-07
-5.82658e-07
-3.6648987e-07
-5.2127019e-07
-5.2880898e-07
-3.6945856e-07
-5.3566161e-07
-4.6237586e-07
-3.7229165e-07
-5.3955574e-07
-3.8716754e-07
-3.7492214e-07
-5.3730717e-07
-3.1008265e-07
-3.7728223e-07
-5.3375662e-07
-2.3728601e-07
-3.7937496e-07
-5.2934966e-07
-1.6828892e-07
-3.8115945e-07
-5.2049524e-07
-9.5202416e-08
-3.8264027e-07
-5.0048446e-07
-1.2966502e-08
-3.8377564e-07
-4.6357056e-07
7.7832617e-08
-3.8448627e-07
-4.0853232e-07
1.7570825e-07
-3.8472488e-07
-3.3933486e-07
2.77371e-07
-3.8448088e-07
-2.6060702e-07
3.760562e-07
-3.836503e-07
-1.7276285e-07
4.6751529e-07
-7.4225913e-08
5.5189961e-07
-3.5368651e-07
-2.6066414e-07
-1.7965881e-07
-3.4005152e-07
-6.4351927e-07
-3.2167329e-07
-3.355517e-07
-8.3228682e-07
-4.2947828e-07
-3.3535476e-07
-9.3203393e-07
-5.1958275e-07
-3.3712457e-07
-9.8662219e-07
-6.0072714e-07
-3.3980552e-07
-1.0122242e-06
-6.7534234e-07
-3.4306462e-07
-1.0175976e-06
-7.4207845e-07
-3.4670645e-07
-1.0041266e-06
-8.0079382e-07
-3.5060315e-07
-9.7024146e-07
-8.5030435e-07
-3.5462675e-07
-9.1731084e-07
-8.887041e-07
-3.5865491e-07
-8.4777383e-07
-9.1475228e-07
-3.6266995e-07
-7.6265649e-07
-9.2713304e-07
-3.6666399e-07
-6.6512712e-07
-9.2554704e-07
-3.7055611e-07
-5.5988443e-07
-9.123646e-07
-3.7428003e-07
-4.5127866e-07
-8.8978495e-07
-3.7776855e-07
-3.3942567e-07
-8.5708895e-07
-3.8091544e-07
-2.1900882e-07
-8.1109418e-07
-3.8366818e-07
-8.7005593e-08
-7.4754281e-07
-3.8594543e-07
5.5420027e-08
-6.6331146e-07
-3.8768401e-07
2.064328e-07
-5.5822837e-07
-3.8883657e-07
3.6274162e-07
-4.3548987e-07
-3.8939161e-07
5.1826539e-07
-2.988382e-07
-3.8920572e-07
6.6832631e-07
-1.4993943e-07
8.1151488e-07
1.0428631e-08
-3.5221282e-07
2.8572061e-07
3.4769351e-07
-3.9848558e-07
-3.3822206e-07
6.1913876e-07
8.2872374e-07
-8.3458181e-07
-3.3424087e-07
8.1134638e-07
1.0779258e-06
-1.0816229e-06
-3.3500377e-07
9.3613124e-07
1.2184204e-06
-1.2477521e-06
-3.3779152e-07
1.0279056e-06
1.3005676e-06
-1.373868e-06
-3.4160176e-07
1.0970424e-06
1.3461183e-06
-1.4716142e-06
-3.4596473e-07
1.1463967e-06
1.3642637e-06
-1.544505e-06
-3.5063761e-07
1.1798981e-06
1.3581561e-06
-1.5958986e-06
-3.5545423e-07
1.2002447e-06
1.330732e-06
-1.6282474e-06
-3.6027943e-07
1.2070064e-06
1.2861037e-06
-1.6412619e-06
-3.6503303e-07
1.2018886e-06
1.2254028e-06