/*--------------------------------*- C++ -*----------------------------------*\
| =========                 |                                                 |
| \\      /  F ield         | OpenFOAM: The Open Source CFD Toolbox           |
|  \\    /   O peration     | Version:  4.1                                   |
|   \\  /    A nd           | Web:      www.OpenFOAM.org                      |
|    \\/     M anipulation  |                                                 |
\*---------------------------------------------------------------------------*/
FoamFile
{
    version     2.0;
    format      ascii;
    class       pointVectorField;
    location    "0.000070";
    object      pointDisplacement;
}
// * * * * * * * * * * * * * * * * * * * * * * * * * * * * * * * * * * * * * //

dimensions      [0 1 0 0 0 0 0];

internalField   nonuniform List<vector> 
3625
(
(0 0 0)
(0 0.00014280615 -3.3195246e-09)
(0 0.00016839214 6.6062124e-09)
(0 0.00015796473 1.9878371e-08)
(0 0.00013020361 3.2971938e-08)
(0 9.4273851e-05 3.9445729e-08)
(0 5.4366093e-05 3.6300534e-08)
(0 1.2595805e-05 3.1261709e-08)
(0 -2.9795258e-05 2.3266458e-08)
(0 -7.1891441e-05 1.4322088e-08)
(0 -0.00011289803 5.553461e-09)
(0 -0.00015216621 -1.4339137e-08)
(0 -0.00018893514 -4.0754717e-08)
(0 -0.00022251397 -7.3543407e-08)
(0 -0.00025236826 -1.0335667e-07)
(0 -0.00027798247 -1.1049924e-07)
(0 -0.00029894488 -1.0235355e-07)
(0 -0.00031491857 -8.6814707e-08)
(0 -0.00032572608 -7.050947e-08)
(0 -0.00033106289 -5.710057e-08)
(0 -0.00033073867 -5.3922474e-08)
(0 -0.00032463226 -5.1953627e-08)
(0 -0.00031272042 -4.9707995e-08)
(0 -0.0002952832 -5.2217734e-08)
(0 -0.00027255454 -5.034319e-08)
(0 0 0)
(0 0.00011968701 -1.2032648e-05)
(0 0.00014541459 -1.9048379e-05)
(0 0.00013773843 -2.4101508e-05)
(0 0.00011367704 -2.802229e-05)
(0 8.1832887e-05 -3.1163368e-05)
(0 4.6242822e-05 -3.3643678e-05)
(0 8.946061e-06 -3.5505933e-05)
(0 -2.8897233e-05 -3.6750172e-05)
(0 -6.6440375e-05 -3.7364945e-05)
(0 -0.00010294404 -3.7340711e-05)
(0 -0.00013786524 -3.6691247e-05)
(0 -0.0001705084 -3.5420304e-05)
(0 -0.00020023674 -3.3557767e-05)
(0 -0.00022662171 -3.1118936e-05)
(0 -0.00024919992 -2.8112269e-05)
(0 -0.0002676186 -2.4595635e-05)
(0 -0.00028161979 -2.0638898e-05)
(0 -0.00029108797 -1.6327372e-05)
(0 -0.00029572359 -1.1741596e-05)
(0 -0.00029533839 -6.9647252e-06)
(0 -0.00028979798 -2.0722138e-06)
(0 -0.00027906229 2.8567571e-06)
(0 -0.00026339705 7.7383418e-06)
(0 -0.0002429993 1.2495883e-05)
(0 0 0)
(0 0.00010056995 -2.6387328e-05)
(0 0.00012516177 -4.2613833e-05)
(0 0.00011962044 -5.4252419e-05)
(0 9.9038333e-05 -6.3230684e-05)
(0 7.1265847e-05 -7.0396412e-05)
(0 4.0058729e-05 -7.6055604e-05)
(0 7.3041878e-06 -8.0313812e-05)
(0 -2.5942052e-05 -8.316959e-05)
(0 -5.8909429e-05 -8.460908e-05)
(0 -9.092506e-05 -8.460663e-05)
(0 -0.00012151368 -8.3168812e-05)
(0 -0.00015008282 -8.0309469e-05)
(0 -0.00017608579 -7.6091243e-05)
(0 -0.00019914519 -7.0566605e-05)
(0 -0.00021884245 -6.3779508e-05)
(0 -0.00023489659 -5.5831988e-05)
(0 -0.0002471033 -4.6871707e-05)
(0 -0.00025536998 -3.7086972e-05)
(0 -0.00025943896 -2.6661527e-05)
(0 -0.00025911613 -1.5779347e-05)
(0 -0.00025429449 -4.6238107e-06)
(0 -0.00024494971 6.6196296e-06)
(0 -0.00023128377 1.7761868e-05)
(0 -0.00021345528 2.8609066e-05)
(0 0 0)
(0 8.2909444e-05 -4.0508599e-05)
(0 0.00010458363 -6.6162535e-05)
(0 0.00010046659 -8.4481704e-05)
(0 8.3354442e-05 -9.8507517e-05)
(0 6.0001161e-05 -0.00010964575)
(0 3.36763e-05 -0.00011844699)
(0 6.0172652e-06 -0.0001250645)
(0 -2.207118e-05 -0.00012948373)
(0 -4.9923035e-05 -0.00013169552)
(0 -7.6942337e-05 -0.00013167485)
(0 -0.00010272481 -0.00012941699)
(0 -0.00012679022 -0.00012494677)
(0 -0.00014870278 -0.00011835003)
(0 -0.00016811426 -0.00010973215)
(0 -0.00018467041 -9.9182581e-05)
(0 -0.00019817604 -8.683144e-05)
(0 -0.00020845003 -7.2906257e-05)
(0 -0.00021542515 -5.7683605e-05)
(0 -0.00021889366 -4.1438268e-05)
(0 -0.00021866922 -2.4463381e-05)
(0 -0.00021467047 -7.038026e-06)
(0 -0.00020688585 1.0539947e-05)
(0 -0.00019546737 2.7960413e-05)
(0 -0.00018054086 4.4913039e-05)
(0 0 0)
(0 6.615551e-05 -5.4402016e-05)
(0 8.3858082e-05 -8.9322772e-05)
(0 8.069874e-05 -0.00011412893)
(0 6.7054976e-05 -0.00013303319)
(0 4.8363643e-05 -0.00014800567)
(0 2.7271348e-05 -0.00015981983)
(0 5.1048657e-06 -0.00016868533)
(0 -1.7423982e-05 -0.00017458368)
(0 -3.9774472e-05 -0.00017749334)
(0 -6.1430539e-05 -0.00017740307)
(0 -8.2071977e-05 -0.00017430005)
(0 -0.00010133809 -0.00016822612)
(0 -0.00011888021 -0.00015929474)
(0 -0.00013440897 -0.00014764873)
(0 -0.00014764778 -0.0001334331)
(0 -0.0001584592 -0.00011681272)
(0 -0.00016670352 -9.8080432e-05)
(0 -0.00017232304 -7.7589431e-05)
(0 -0.00017514143 -5.5703478e-05)
(0 -0.00017501478 -3.281972e-05)
(0 -0.0001718924 -9.3054008e-06)
(0 -0.00016576338 1.4432409e-05)
(0 -0.00015674526 3.7960114e-05)
(0 -0.00014493081 6.0850523e-05)
(0 0 0)
(0 4.9758855e-05 -6.8039498e-05)
(0 6.2868855e-05 -0.00011167497)
(0 6.0415563e-05 -0.00014248674)
(0 5.0257787e-05 -0.00016592571)
(0 3.6405857e-05 -0.00018448088)
(0 2.0794224e-05 -0.00019909392)
(0 4.382557e-06 -0.00021003144)
(0 -1.2323043e-05 -0.00021729598)
(0 -2.8915056e-05 -0.00022083252)
(0 -4.4981604e-05 -0.00022063291)
(0 -6.0282065e-05 -0.00021670011)
(0 -7.4568207e-05 -0.00020908819)
(0 -8.7565457e-05 -0.00019793499)
(0 -9.9042814e-05 -0.00018340192)
(0 -0.00010883377 -0.00016569328)
(0 -0.00011686428 -0.00014503773)
(0 -0.00012301604 -0.00012177115)
(0 -0.00012724611 -9.630671e-05)
(0 -0.00012939677 -6.9102163e-05)
(0 -0.00012935755 -4.0647583e-05)
(0 -0.00012713161 -1.1397124e-05)
(0 -0.00012270375 1.8143411e-05)
(0 -0.00011614175 4.7426542e-05)
(0 -0.00010750975 7.5916801e-05)
(0 0 0)
(0 3.311815e-05 -8.1390596e-05)
(0 4.1351779e-05 -0.00013279672)
(0 3.9557624e-05 -0.00016888659)
(0 3.2929359e-05 -0.00019634994)
(0 2.4013202e-05 -0.00021811687)
(0 1.3998653e-05 -0.00023525342)
(0 3.4626638e-06 -0.00024806963)
(0 -7.2885966e-06 -0.00025656913)
(0 -1.7988789e-05 -0.00026067321)
(0 -2.8348868e-05 -0.00026036343)
(0 -3.8209646e-05 -0.0002556595)
(0 -4.742126e-05 -0.00024662313)
(0 -5.5779571e-05 -0.00023340516)
(0 -6.3122138e-05 -0.00021619351)
(0 -6.9395983e-05 -0.00019524879)
(0 -7.4581962e-05 -0.00017086737)
(0 -7.8590259e-05 -0.00014343139)
(0 -8.1383787e-05 -0.00011341378)
(0 -8.2829385e-05 -8.1343019e-05)
(0 -8.2855898e-05 -4.7784952e-05)
(0 -8.1490643e-05 -1.3288204e-05)
(0 -7.8729176e-05 2.1547805e-05)
(0 -7.4601503e-05 5.6079657e-05)
(0 -6.9144325e-05 8.9677899e-05)
(0 0 0)
(0 1.5482875e-05 -9.4441295e-05)
(0 1.8836747e-05 -0.00015216457)
(0 1.7833048e-05 -0.00019255306)
(0 1.480236e-05 -0.00022338068)
(0 1.0827286e-05 -0.00024788756)
(0 6.395999e-06 -0.00026720472)
(0 1.7280956e-06 -0.00028165059)
(0 -3.062217e-06 -0.00029121158)
(0 -7.849825e-06 -0.00029580405)
(0 -1.2481968e-05 -0.00029539326)
(0 -1.6887581e-05 -0.00028999604)
(0 -2.0998128e-05 -0.00027968753)
(0 -2.4687932e-05 -0.00026463214)
(0 -2.7874044e-05 -0.00024505097)
(0 -3.0597129e-05 -0.00022124581)
(0 -3.2892943e-05 -0.00019356613)
(0 -3.4704212e-05 -0.00016244971)
(0 -3.5992409e-05 -0.00012842755)
(0 -3.6660927e-05 -9.2079915e-05)
(0 -3.6676991e-05 -5.4033122e-05)
(0 -3.6073293e-05 -1.4923154e-05)
(0 -3.4860889e-05 2.456576e-05)
(0 -3.3053787e-05 6.3710737e-05)
(0 -3.0662838e-05 0.00010180673)
(0 0 0)
(0 -3.4589505e-08 -0.00010861358)
(0 -8.8643186e-08 -0.00017178571)
(0 -1.4080959e-07 -0.00021607723)
(0 -1.6177269e-07 -0.00025011226)
(0 -1.5009047e-07 -0.00027730343)
(0 -1.1288025e-07 -0.00029878997)
(0 -8.3516737e-08 -0.00031485835)
(0 -9.1173204e-08 -0.00032547835)
(0 -1.2580613e-07 -0.00033055737)
(0 -1.5083245e-07 -0.00033004708)
(0 -1.7125089e-07 -0.00032396238)
(0 -1.8168329e-07 -0.00031239238)
(0 -1.3358537e-07 -0.00029551787)
(0 -7.0344033e-09 -0.00027359446)
(0 1.0944052e-07 -0.00024696376)
(0 1.4144851e-07 -0.00021603276)
(0 1.1324543e-07 -0.00018129613)
(0 4.2628515e-08 -0.00014333759)
(0 -1.3626718e-08 -0.00010279782)
(0 -3.7585701e-08 -6.0367056e-05)
(0 -5.6066053e-08 -1.6763864e-05)
(0 -8.0244901e-08 2.7249503e-05)
(0 -1.1243444e-07 7.0879212e-05)
(0 -1.4952484e-07 0.00011335134)
(0 0 0)
(0 0.00011966652 1.2035695e-05)
(0 0.00014536396 1.9086804e-05)
(0 0.00013766829 2.4169014e-05)
(0 0.00011359651 2.8112732e-05)
(0 8.1746128e-05 3.126629e-05)
(0 4.6151112e-05 3.3739247e-05)
(0 8.850132e-06 3.5589068e-05)
(0 -2.8995621e-05 3.681156e-05)
(0 -6.654362e-05 3.7401663e-05)
(0 -0.00010306786 3.7353787e-05)
(0 -0.00013800917 3.6655325e-05)
(0 -0.00017065578 3.5322732e-05)
(0 -0.00020037467 3.3382491e-05)
(0 -0.00022672892 3.0875969e-05)
(0 -0.00024927185 2.7859091e-05)
(0 -0.000267669 2.4374187e-05)
(0 -0.00028165721 2.0470053e-05)
(0 -0.00029111657 1.620825e-05)
(0 -0.00029574181 1.165801e-05)
(0 -0.00029534346 6.8844766e-06)
(0 -0.00028979099 1.9754274e-06)
(0 -0.00027903464 -2.9753987e-06)
(0 -0.00026333816 -7.8753588e-06)
(0 -0.00024290564 -1.2628716e-05)
(0 0 0)
(0 8.7916272e-05 2.9202992e-10)
(0 0.00011237828 2.5682877e-08)
(0 0.00010833003 3.4701217e-08)
(0 8.9752763e-05 4.2373976e-08)
(0 6.4144387e-05 5.5132365e-08)
(0 3.5193239e-05 5.5913987e-08)
(0 4.7556991e-06 5.1306748e-08)
(0 -2.6163994e-05 3.5696288e-08)
(0 -5.6840892e-05 1.8280676e-08)
(0 -8.6636752e-05 3.1630802e-09)
(0 -0.00011515678 -2.719758e-08)
(0 -0.00014176088 -6.3867987e-08)
(0 -0.00016587918 -1.1280095e-07)
(0 -0.00018722378 -1.5588375e-07)
(0 -0.00020541458 -1.588146e-07)
(0 -0.00022020945 -1.305577e-07)
(0 -0.00023145257 -8.351947e-08)
(0 -0.00023913026 -3.9029109e-08)
(0 -0.00024293708 -1.0652719e-08)
(0 -0.00024266508 -1.1756316e-08)
(0 -0.00023815084 -3.7374496e-08)
(0 -0.00022930677 -6.9234198e-08)
(0 -0.00021638763 -8.8350769e-08)
(0 -0.00019954643 -8.5266531e-08)
(0 0 0)
(0 7.2044183e-05 -1.2191107e-05)
(0 9.4193261e-05 -2.0374537e-05)
(0 9.1656817e-05 -2.6273404e-05)
(0 7.6328494e-05 -3.0845819e-05)
(0 5.4782416e-05 -3.4495703e-05)
(0 3.0312694e-05 -3.7389039e-05)
(0 4.5462598e-06 -3.9593309e-05)
(0 -2.1651209e-05 -4.1109583e-05)
(0 -4.7644478e-05 -4.1934705e-05)
(0 -7.2861013e-05 -4.2040457e-05)
(0 -9.6980588e-05 -4.1433311e-05)
(0 -0.00011947 -4.0113065e-05)
(0 -0.00013985468 -3.8127555e-05)
(0 -0.00015789521 -3.5481601e-05)
(0 -0.00017323916 -3.2154564e-05)
(0 -0.00018571523 -2.8197599e-05)
(0 -0.00019522824 -2.3688544e-05)
(0 -0.00020180985 -1.8751769e-05)
(0 -0.00020520957 -1.3504535e-05)
(0 -0.00020519277 -8.0480755e-06)
(0 -0.00020161338 -2.4695326e-06)
(0 -0.00019439745 3.1500587e-06)
(0 -0.00018373324 8.7309267e-06)
(0 -0.00016973507 1.4179322e-05)
(0 0 0)
(0 5.7230456e-05 -2.444319e-05)
(0 7.5759897e-05 -4.1216301e-05)
(0 7.4091684e-05 -5.3269787e-05)
(0 6.1894956e-05 -6.2515537e-05)
(0 4.4583726e-05 -6.9858412e-05)
(0 2.488407e-05 -7.5684027e-05)
(0 4.12929e-06 -8.010115e-05)
(0 -1.6995089e-05 -8.3090437e-05)
(0 -3.7969588e-05 -8.4672646e-05)
(0 -5.8289348e-05 -8.4820211e-05)
(0 -7.7699195e-05 -8.3515702e-05)
(0 -9.5798796e-05 -8.0770361e-05)
(0 -0.00011223104 -7.6661927e-05)
(0 -0.00012677551 -7.1238279e-05)
(0 -0.00013912746 -6.4517096e-05)
(0 -0.00014919341 -5.657216e-05)
(0 -0.00015690337 -4.7551282e-05)
(0 -0.000162307 -3.765843e-05)
(0 -0.0001652108 -2.709794e-05)
(0 -0.00016538538 -1.607777e-05)
(0 -0.00016271796 -4.7669242e-06)
(0 -0.00015714783 6.6477803e-06)
(0 -0.00014880408 1.796954e-05)
(0 -0.00013777034 2.8993902e-05)
(0 0 0)
(0 4.3128932e-05 -3.6795105e-05)
(0 5.7321957e-05 -6.2252319e-05)
(0 5.6145925e-05 -8.0459416e-05)
(0 4.7015568e-05 -9.4307866e-05)
(0 3.4035493e-05 -0.00010524622)
(0 1.9271967e-05 -0.00011389528)
(0 3.7257509e-06 -0.00012041835)
(0 -1.2128895e-05 -0.00012479129)
(0 -2.7899246e-05 -0.00012703052)
(0 -4.3147032e-05 -0.00012713414)
(0 -5.7692123e-05 -0.00012506241)
(0 -7.1272843e-05 -0.0001208475)
(0 -8.3615318e-05 -0.00011459461)
(0 -9.4527758e-05 -0.00010638925)
(0 -0.00010379471 -9.630161e-05)
(0 -0.00011138366 -8.4425999e-05)
(0 -0.00011723634 -7.0971478e-05)
(0 -0.00012139444 -5.6206009e-05)
(0 -0.00012370006 -4.0414627e-05)
(0 -0.00012397618 -2.3907814e-05)
(0 -0.00012216302 -6.9302373e-06)
(0 -0.00011819806 1.0230361e-05)
(0 -0.00011215702 2.7254152e-05)
(0 -0.00010410713 4.3817536e-05)
(0 0 0)
(0 2.9264953e-05 -4.9196414e-05)
(0 3.8762737e-05 -8.3092357e-05)
(0 3.7907984e-05 -0.00010717042)
(0 3.1810973e-05 -0.0001254097)
(0 2.3216939e-05 -0.00013977065)
(0 1.3474011e-05 -0.0001510691)
(0 3.2073719e-06 -0.00015954511)
(0 -7.3114559e-06 -0.00016520482)
(0 -1.781205e-05 -0.00016801065)
(0 -2.7948374e-05 -0.00016798385)
(0 -3.7609754e-05 -0.00016511337)
(0 -4.665342e-05 -0.00015943909)
(0 -5.4865358e-05 -0.00015109225)
(0 -6.2083553e-05 -0.00014017461)
(0 -6.8216746e-05 -0.00012681026)
(0 -7.3293738e-05 -0.0001111371)
(0 -7.725566e-05 -9.3409668e-05)
(0 -8.0125649e-05 -7.3957727e-05)
(0 -8.176313e-05 -5.3147919e-05)
(0 -8.2054438e-05 -3.1368893e-05)
(0 -8.1012097e-05 -8.9421275e-06)
(0 -7.8569291e-05 1.3747657e-05)
(0 -7.4735806e-05 3.6262501e-05)
(0 -6.9556824e-05 5.8168471e-05)
(0 0 0)
(0 1.5103866e-05 -6.1590895e-05)
(0 1.980389e-05 -0.00010337674)
(0 1.92899e-05 -0.00013283478)
(0 1.6228401e-05 -0.00015510534)
(0 1.198991e-05 -0.00017261975)
(0 7.2167814e-06 -0.00018636154)
(0 2.1732974e-06 -0.00019664971)
(0 -3.0506037e-06 -0.00020349723)
(0 -8.3121515e-06 -0.00020682572)
(0 -1.3380192e-05 -0.0002066565)
(0 -1.8205949e-05 -0.0002030161)
(0 -2.2740362e-05 -0.00019594502)
(0 -2.6824607e-05 -0.00018558381)
(0 -3.0338679e-05 -0.00017205879)
(0 -3.3320741e-05 -0.0001555524)
(0 -3.5858444e-05 -0.00013626073)
(0 -3.7895958e-05 -0.00011448383)
(0 -3.9432135e-05 -9.061193e-05)
(0 -4.0343123e-05 -6.5073421e-05)
(0 -4.0569636e-05 -3.8321377e-05)
(0 -4.0153361e-05 -1.0768731e-05)
(0 -3.9061913e-05 1.7105638e-05)
(0 -3.7284788e-05 4.4765243e-05)
(0 -3.4825351e-05 7.1682513e-05)
(0 0 0)
(0 -1.7232472e-08 -7.3998909e-05)
(0 -8.2317599e-08 -0.00012272934)
(0 -1.6782557e-07 -0.00015683247)
(0 -2.2001324e-07 -0.00018260172)
(0 -2.2815093e-07 -0.00020289499)
(0 -1.8594685e-07 -0.00021880687)
(0 -1.5117191e-07 -0.00023070227)
(0 -1.9418977e-07 -0.00023858471)
(0 -2.9646393e-07 -0.00024238294)
(0 -3.598589e-07 -0.00024209357)
(0 -4.0294489e-07 -0.00023773976)
(0 -4.4543038e-07 -0.00022937785)
(0 -3.9648823e-07 -0.00021715059)
(0 -2.0703583e-07 -0.00020121952)
(0 -1.3570328e-08 -0.00018181267)
(0 5.7202853e-08 -0.00015918668)
(0 4.4157593e-08 -0.0001336912)
(0 -4.2540734e-08 -0.00010576665)
(0 -1.1233289e-07 -7.5887984e-05)
(0 -1.4676581e-07 -4.456547e-05)
(0 -1.9331175e-07 -1.2308141e-05)
(0 -2.588394e-07 2.0317799e-05)
(0 -3.3844673e-07 5.2697826e-05)
(0 -4.0989634e-07 8.4228753e-05)
(0 0 0)
(0 -1.5536062e-05 -9.4452453e-05)
(0 -1.9002049e-05 -0.00015218761)
(0 -1.8126699e-05 -0.00019258327)
(0 -1.51617e-05 -0.00022341162)
(0 -1.1176532e-05 -0.00024791332)
(0 -6.6682167e-06 -0.00026722287)
(0 -1.9406179e-06 -0.00028166349)
(0 2.8107277e-06 -0.00029121899)
(0 7.4886101e-06 -0.00029580715)
(0 1.2052359e-05 -0.00029539235)
(0 1.6411063e-05 -0.00028998833)
(0 2.0489421e-05 -0.00027967324)
(0 2.428676e-05 -0.00026461186)
(0 2.776357e-05 -0.00024502493)
(0 3.0759652e-05 -0.00022121183)
(0 3.314574e-05 -0.00019352888)
(0 3.4911881e-05 -0.00016241835)
(0 3.6051528e-05 -0.00012840818)
(0 3.6603871e-05 -9.207243e-05)
(0 3.6566623e-05 -5.4027199e-05)
(0 3.590307e-05 -1.4915154e-05)
(0 3.4607714e-05 2.4575819e-05)
(0 3.2698531e-05 6.3724869e-05)
(0 3.020619e-05 0.00010182683)
(0 0 0)
(0 0.00010048685 2.6430092e-05)
(0 0.00012499941 4.2709968e-05)
(0 0.00011940728 5.4383656e-05)
(0 9.8794771e-05 6.3368897e-05)
(0 7.0993634e-05 7.0524878e-05)
(0 3.9761071e-05 7.6165475e-05)
(0 6.9839087e-06 8.0403254e-05)
(0 -2.6277346e-05 8.3234709e-05)
(0 -5.9262025e-05 8.464649e-05)
(0 -9.1318373e-05 8.4617509e-05)
(0 -0.00012194691 8.3131751e-05)
(0 -0.0001505254 8.0213378e-05)
(0 -0.00017649785 7.5915946e-05)
(0 -0.00019949078 7.0312946e-05)
(0 -0.00021910978 6.3503664e-05)
(0 -0.00023507057 5.5597892e-05)
(0 -0.00024720197 4.6718085e-05)
(0 -0.00025543136 3.7009968e-05)
(0 -0.00025948011 2.6632746e-05)
(0 -0.00025914994 1.575148e-05)
(0 -0.00025430442 4.5561123e-06)
(0 -0.0002448944 -6.7375557e-06)
(0 -0.00023114038 -1.7907438e-05)
(0 -0.00021321873 -2.8747722e-05)
(0 0 0)
(0 7.1943381e-05 1.2229496e-05)
(0 9.4009064e-05 2.0474474e-05)
(0 9.1418326e-05 2.6385099e-05)
(0 7.6054143e-05 3.094648e-05)
(0 5.4472163e-05 3.4600104e-05)
(0 2.996782e-05 3.7489106e-05)
(0 4.1698317e-06 3.967966e-05)
(0 -2.2049017e-05 4.1164468e-05)
(0 -4.8058963e-05 4.1954356e-05)
(0 -7.3308937e-05 4.2031471e-05)
(0 -9.7455961e-05 4.1372841e-05)
(0 -0.00011994813 3.9989934e-05)
(0 -0.00014030504 3.7907122e-05)
(0 -0.00015828403 3.5160557e-05)
(0 -0.00017355102 3.1811669e-05)
(0 -0.00018593009 2.7919673e-05)
(0 -0.00019536462 2.3538342e-05)
(0 -0.00020189798 1.8729158e-05)
(0 -0.00020526417 1.3558134e-05)
(0 -0.00020522649 8.0961126e-06)
(0 -0.00020161237 2.4453762e-06)
(0 -0.00019433122 -3.2646684e-06)
(0 -0.00018358307 -8.8946636e-06)
(0 -0.00016949311 -1.4332004e-05)
(0 0 0)
(0 5.6604651e-05 1.8123248e-08)
(0 7.5697532e-05 4.6011683e-08)
(0 7.4298291e-05 2.9945873e-08)
(0 6.2080905e-05 6.1370984e-09)
(0 4.4590173e-05 1.4330771e-08)
(0 2.4656355e-05 2.4306504e-08)
(0 3.646969e-06 2.4244933e-08)
(0 -1.7721995e-05 9.6900841e-09)
(0 -3.8922683e-05 -6.8275553e-09)
(0 -5.9469216e-05 -1.8005504e-08)
(0 -7.9099554e-05 -3.3098334e-08)
(0 -9.7362884e-05 -5.3456701e-08)
(0 -0.00011387182 -1.0104113e-07)
(0 -0.00012844326 -1.5849583e-07)
(0 -0.00014076838 -1.7702556e-07)
(0 -0.00015073654 -1.4201621e-07)
(0 -0.00015835305 -6.592054e-08)
(0 -0.00016371614 1.4082906e-08)
(0 -0.00016661974 6.0248799e-08)
(0 -0.00016680829 5.5121045e-08)
(0 -0.00016411606 1.5352931e-08)
(0 -0.00015845356 -3.6003894e-08)
(0 -0.00014996964 -6.4768483e-08)
(0 -0.0001387537 -5.7251023e-08)
(0 0 0)
(0 4.2218658e-05 -1.2283157e-05)
(0 5.7149009e-05 -2.1019513e-05)
(0 5.6322081e-05 -2.7357834e-05)
(0 4.7137698e-05 -3.223848e-05)
(0 3.3893906e-05 -3.6102664e-05)
(0 1.8790227e-05 -3.9173148e-05)
(0 2.8782556e-06 -4.1504081e-05)
(0 -1.3325181e-05 -4.3078161e-05)
(0 -2.941746e-05 -4.3927877e-05)
(0 -4.4973446e-05 -4.4030189e-05)
(0 -5.9804266e-05 -4.3359197e-05)
(0 -7.3600925e-05 -4.1936148e-05)
(0 -8.6076895e-05 -3.9829976e-05)
(0 -9.7080236e-05 -3.705383e-05)
(0 -0.00010635068 -3.3584445e-05)
(0 -0.00011383895 -2.9444215e-05)
(0 -0.00011957843 -2.4717637e-05)
(0 -0.00012367954 -1.9530701e-05)
(0 -0.00012599819 -1.4018583e-05)
(0 -0.00012630144 -8.3003331e-06)
(0 -0.00012446507 -2.445628e-06)
(0 -0.00012040976 3.4584718e-06)
(0 -0.00011421415 9.3198156e-06)
(0 -0.00010595001 1.5036475e-05)
(0 0 0)
(0 2.8307458e-05 -2.4666044e-05)
(0 3.8403143e-05 -4.2350471e-05)
(0 3.7816815e-05 -5.5102856e-05)
(0 3.1624415e-05 -6.4817191e-05)
(0 2.2739689e-05 -7.2491221e-05)
(0 1.2649941e-05 -7.8559423e-05)
(0 2.0371155e-06 -8.3127291e-05)
(0 -8.8074625e-06 -8.6182116e-05)
(0 -1.9609045e-05 -8.7786294e-05)
(0 -3.0008101e-05 -8.7919769e-05)
(0 -3.9900919e-05 -8.6505759e-05)
(0 -4.9120153e-05 -8.3599827e-05)
(0 -5.7451768e-05 -7.9302978e-05)
(0 -6.4763382e-05 -7.3667112e-05)
(0 -7.0886422e-05 -6.6714725e-05)
(0 -7.5832867e-05 -5.8500683e-05)
(0 -7.9638774e-05 -4.9171613e-05)
(0 -8.2388216e-05 -3.8926127e-05)
(0 -8.3983062e-05 -2.7984704e-05)
(0 -8.4268505e-05 -1.656746e-05)
(0 -8.3194096e-05 -4.8283317e-06)
(0 -8.0680533e-05 7.0396156e-06)
(0 -7.6724202e-05 1.8811243e-05)
(0 -7.13998e-05 3.0260882e-05)
(0 0 0)
(0 1.4358847e-05 -3.7030444e-05)
(0 1.9333218e-05 -6.3427465e-05)
(0 1.8904989e-05 -8.233559e-05)
(0 1.5732403e-05 -9.6658837e-05)
(0 1.1285328e-05 -0.00010792484)
(0 6.2954531e-06 -0.00011677819)
(0 1.0513297e-06 -0.0001234085)
(0 -4.3734734e-06 -0.00012783889)
(0 -9.8291729e-06 -0.00013008265)
(0 -1.5043372e-05 -0.00013013905)
(0 -1.9982488e-05 -0.00012793376)
(0 -2.4607659e-05 -0.00012354548)
(0 -2.8763142e-05 -0.00011711049)
(0 -3.233336e-05 -0.00010869302)
(0 -3.527195e-05 -9.8372617e-05)
(0 -3.7651448e-05 -8.6244849e-05)
(0 -3.9498878e-05 -7.2506821e-05)
(0 -4.0865937e-05 -5.7426973e-05)
(0 -4.1683796e-05 -4.1304891e-05)
(0 -4.1877241e-05 -2.4436604e-05)
(0 -4.1446668e-05 -7.0568599e-06)
(0 -4.0332723e-05 1.0535142e-05)
(0 -3.8497883e-05 2.7989394e-05)
(0 -3.5983057e-05 4.4961323e-05)
(0 0 0)
(0 -1.1521892e-08 -4.9317745e-05)
(0 -1.1305022e-07 -8.3865784e-05)
(0 -2.673321e-07 -0.00010842075)
(0 -3.8137434e-07 -0.00012698885)
(0 -4.2824579e-07 -0.00014156299)
(0 -3.9435602e-07 -0.00015299385)
(0 -3.5553142e-07 -0.00016155436)
(0 -4.2426645e-07 -0.00016726566)
(0 -5.8432141e-07 -0.00017006742)
(0 -6.8032949e-07 -0.00016998743)
(0 -7.3581823e-07 -0.0001670144)
(0 -8.0958564e-07 -0.00016121107)
(0 -8.0089044e-07 -0.00015272938)
(0 -6.3600298e-07 -0.00014164775)
(0 -3.9578438e-07 -0.00012810824)
(0 -2.0757606e-07 -0.00011226235)
(0 -8.8613152e-08 -9.4357921e-05)
(0 -6.7107642e-08 -7.4728744e-05)
(0 -9.2296657e-08 -5.3737474e-05)
(0 -1.4210987e-07 -3.174103e-05)
(0 -2.2911677e-07 -9.0691845e-06)
(0 -3.5058707e-07 1.3877039e-05)
(0 -4.9824201e-07 3.6645159e-05)
(0 -6.5040528e-07 5.8788276e-05)
(0 0 0)
(0 -1.5118548e-05 -6.1612907e-05)
(0 -1.9964541e-05 -0.00010342524)
(0 -1.9676032e-05 -0.00013289635)
(0 -1.6772574e-05 -0.00015516498)
(0 -1.2573932e-05 -0.00017266044)
(0 -7.7107714e-06 -0.00018637518)
(0 -2.5858463e-06 -0.0001966465)
(0 2.541764e-06 -0.00020347598)
(0 7.5647498e-06 -0.00020678947)
(0 1.2496439e-05 -0.0002066056)
(0 1.7237207e-05 -0.00020294097)
(0 2.1665663e-05 -0.00019585041)
(0 2.581514e-05 -0.00018547358)
(0 2.9671984e-05 -0.00017192895)
(0 3.3067057e-05 -0.0001554081)
(0 3.5849016e-05 -0.00013612475)
(0 3.7981076e-05 -0.00011437893)
(0 3.9438023e-05 -9.0556126e-05)
(0 4.0249238e-05 -6.506489e-05)
(0 4.0386842e-05 -3.832634e-05)
(0 3.9815401e-05 -1.077383e-05)
(0 3.8517383e-05 1.7100559e-05)
(0 3.6496968e-05 4.4763358e-05)
(0 3.3800231e-05 7.168666e-05)
(0 0 0)
(0 -3.3142451e-05 -8.141915e-05)
(0 -4.1479775e-05 -0.00013285931)
(0 -3.983944e-05 -0.00016896977)
(0 -3.3310724e-05 -0.00019643457)
(0 -2.4399817e-05 -0.00021817983)
(0 -1.4307252e-05 -0.00023528634)
(0 -3.7092841e-06 -0.00024808553)
(0 6.9963124e-06 -0.00025656661)
(0 1.7573337e-05 -0.00026065753)
(0 2.7871867e-05 -0.00026033602)
(0 3.7699189e-05 -0.00025561045)
(0 4.6875379e-05 -0.00024655483)
(0 5.5324899e-05 -0.00023331975)
(0 6.2932788e-05 -0.00021608954)
(0 6.9489119e-05 -0.00019512648)
(0 7.4826476e-05 -0.00017074256)
(0 7.8868358e-05 -0.00014332909)
(0 8.1568371e-05 -0.00011335564)
(0 8.2917045e-05 -8.1326905e-05)
(0 8.2871814e-05 -4.7778056e-05)
(0 8.1395156e-05 -1.327612e-05)
(0 7.8490318e-05 2.1565533e-05)
(0 7.4195674e-05 5.6104676e-05)
(0 6.8568984e-05 8.9711512e-05)
(0 0 0)
(0 8.2774367e-05 4.0563456e-05)
(0 0.00010432613 6.6267696e-05)
(0 0.00010012049 8.4619576e-05)
(0 8.2942719e-05 9.8640228e-05)
(0 5.9525441e-05 0.00010975306)
(0 3.3139451e-05 0.0001185297)
(0 5.4223196e-06 0.00012512625)
(0 -2.2706698e-05 0.00012952815)
(0 -5.0588479e-05 0.00013171904)
(0 -7.7661142e-05 0.00013167908)
(0 -0.00010348834 0.00012938261)
(0 -0.00012756117 0.0001248646)
(0 -0.0001494254 0.00011819685)
(0 -0.00016874934 0.00010949041)
(0 -0.00018519206 9.8903211e-05)
(0 -0.00019853022 8.6597142e-05)
(0 -0.0002086615 7.2767594e-05)
(0 -0.00021555165 5.763578e-05)
(0 -0.00021897947 4.1444953e-05)
(0 -0.00021873761 2.4466465e-05)
(0 -0.00021469135 6.9977448e-06)
(0 -0.00020679817 -1.0632288e-05)
(0 -0.00019522734 -2.8082731e-05)
(0 -0.0001801397 -4.5026891e-05)
(0 0 0)
(0 5.7054483e-05 2.4504131e-05)
(0 7.5415772e-05 4.1332471e-05)
(0 7.3617411e-05 5.3407405e-05)
(0 6.1322246e-05 6.2629172e-05)
(0 4.3920983e-05 6.9941404e-05)
(0 2.4134145e-05 7.5744019e-05)
(0 3.2946817e-06 8.0139106e-05)
(0 -1.7888745e-05 8.3108283e-05)
(0 -3.8898129e-05 8.4666155e-05)
(0 -5.9274641e-05 8.479601e-05)
(0 -7.8718502e-05 8.3454795e-05)
(0 -9.6811004e-05 8.0662998e-05)
(0 -0.00011318599 7.6467551e-05)
(0 -0.00012761612 7.0933562e-05)
(0 -0.0001398162 6.4171815e-05)
(0 -0.00014966655 5.6291254e-05)
(0 -0.00015719427 4.7409979e-05)
(0 -0.00016248033 3.7661859e-05)
(0 -0.00016531928 2.7189395e-05)
(0 -0.00016545814 1.6161542e-05)
(0 -0.00016271806 4.7815033e-06)
(0 -0.0001570089 -6.7178614e-06)
(0 -0.00014847742 -1.8086431e-05)
(0 -0.00013724411 -2.9096762e-05)
(0 0 0)
(0 4.2127672e-05 1.2326503e-05)
(0 5.6957923e-05 2.1105137e-05)
(0 5.6043659e-05 2.7413457e-05)
(0 4.679065e-05 3.2231583e-05)
(0 3.348811e-05 3.6088102e-05)
(0 1.832453e-05 3.9166716e-05)
(0 2.3517414e-06 4.1487834e-05)
(0 -1.389575e-05 4.3041827e-05)
(0 -3.0011137e-05 4.3867532e-05)
(0 -4.5600453e-05 4.3957625e-05)
(0 -6.0440853e-05 4.3287287e-05)
(0 -7.4219826e-05 4.1855289e-05)
(0 -8.6660934e-05 3.9665018e-05)
(0 -9.7594821e-05 3.6765699e-05)
(0 -0.00010676748 3.3240655e-05)
(0 -0.00011411691 2.9166037e-05)
(0 -0.00011973787 2.4597014e-05)
(0 -0.00012376363 1.9581071e-05)
(0 -0.00012605435 1.4163319e-05)
(0 -0.0001263495 8.4302382e-06)
(0 -0.00012446925 2.5059741e-06)
(0 -0.00012032325 -3.4820705e-06)
(0 -0.00011400214 -9.3864336e-06)
(0 -0.00010560688 -1.5083258e-05)
(0 0 0)
(0 2.7963435e-05 1.2235173e-08)
(0 3.8210699e-05 2.4838078e-08)
(0 3.7658304e-05 -5.9510477e-09)
(0 3.1375039e-05 -4.8784444e-08)
(0 2.2340654e-05 -4.8794513e-08)
(0 1.2072316e-05 -3.9220844e-08)
(0 1.2701498e-06 -4.1380065e-08)
(0 -9.7410513e-06 -4.7504464e-08)
(0 -2.0686485e-05 -5.434353e-08)
(0 -3.1229545e-05 -5.3638551e-08)
(0 -4.1239522e-05 -3.352524e-08)
(0 -5.0534212e-05 -1.8946442e-08)
(0 -5.890803e-05 -5.5549412e-08)
(0 -6.6226521e-05 -1.186913e-07)
(0 -7.2289732e-05 -1.5318367e-07)
(0 -7.7092666e-05 -1.2595396e-07)
(0 -8.0754866e-05 -4.7824079e-08)
(0 -8.341296e-05 3.7438231e-08)
(0 -8.4992982e-05 7.5726438e-08)
(0 -8.5290746e-05 6.2682097e-08)
(0 -8.4174163e-05 3.5409016e-08)
(0 -8.1559582e-05 9.7870908e-09)
(0 -7.7456147e-05 1.5705474e-09)
(0 -7.1961904e-05 1.674741e-08)
(0 0 0)
(0 1.4035154e-05 -1.2433395e-05)
(0 1.9136529e-05 -2.1525828e-05)
(0 1.8716181e-05 -2.8129007e-05)
(0 1.5430232e-05 -3.3176466e-05)
(0 1.0817348e-05 -3.7166003e-05)
(0 5.6496085e-06 -4.0316252e-05)
(0 2.2520057e-07 -4.2672953e-05)
(0 -5.3623216e-06 -4.4231866e-05)
(0 -1.0965709e-05 -4.5062646e-05)
(0 -1.6310156e-05 -4.514476e-05)
(0 -2.1358343e-05 -4.4416208e-05)
(0 -2.6067383e-05 -4.2925673e-05)
(0 -3.0281971e-05 -4.0736662e-05)
(0 -3.3889968e-05 -3.7877404e-05)
(0 -3.6777997e-05 -3.4333244e-05)
(0 -3.8995132e-05 -3.011543e-05)
(0 -4.0660422e-05 -2.5301603e-05)
(0 -4.1874542e-05 -2.0012493e-05)
(0 -4.2622543e-05 -1.4381421e-05)
(0 -4.2806535e-05 -8.5196303e-06)
(0 -4.2354263e-05 -2.4865075e-06)
(0 -4.1188375e-05 3.6314768e-06)
(0 -3.9265675e-05 9.7066009e-06)
(0 -3.6667423e-05 1.5617582e-05)
(0 0 0)
(0 -4.5963427e-08 -2.4821639e-05)
(0 -2.357478e-07 -4.2857625e-05)
(0 -5.109605e-07 -5.5862636e-05)
(0 -7.2362073e-07 -6.5733157e-05)
(0 -8.3167892e-07 -7.3523766e-05)
(0 -8.340545e-07 -7.9645295e-05)
(0 -8.3119521e-07 -8.4207402e-05)
(0 -9.4889022e-07 -8.7239671e-05)
(0 -1.1654041e-06 -8.8819451e-05)
(0 -1.2923796e-06 -8.8917331e-05)
(0 -1.3592909e-06 -8.7434808e-05)
(0 -1.4568686e-06 -8.4462587e-05)
(0 -1.4820912e-06 -8.0089803e-05)
(0 -1.3542201e-06 -7.4370056e-05)
(0 -1.061666e-06 -6.7341226e-05)
(0 -6.9577676e-07 -5.9062945e-05)
(0 -3.6963135e-07 -4.9671687e-05)
(0 -1.4555845e-07 -3.9361759e-05)
(0 -5.82166e-08 -2.8339375e-05)
(0 -1.0020767e-07 -1.6800557e-05)
(0 -2.1470242e-07 -4.9025025e-06)
(0 -3.6524389e-07 7.1593317e-06)
(0 -5.3320761e-07 1.9130933e-05)
(0 -7.3615756e-07 3.0767493e-05)
(0 0 0)
(0 -1.4394577e-05 -3.705706e-05)
(0 -1.9628932e-05 -6.3474966e-05)
(0 -1.9606418e-05 -8.2385718e-05)
(0 -1.6747999e-05 -9.6704758e-05)
(0 -1.2437696e-05 -0.0001079762)
(0 -7.3998583e-06 -0.00011683392)
(0 -2.1078356e-06 -0.00012345889)
(0 3.1427136e-06 -0.00012787798)
(0 8.2438034e-06 -0.00013010096)
(0 1.3258158e-05 -0.0001301268)
(0 1.8078105e-05 -0.00012788751)
(0 2.252787e-05 -0.00012347892)
(0 2.6661419e-05 -0.00011702627)
(0 3.048388e-05 -0.00010858113)
(0 3.3907598e-05 -9.8243218e-05)
(0 3.6819705e-05 -8.6127853e-05)
(0 3.9101111e-05 -7.2426641e-05)
(0 4.0707986e-05 -5.7405943e-05)
(0 4.1606507e-05 -4.134018e-05)
(0 4.1720735e-05 -2.4484284e-05)
(0 4.1069743e-05 -7.0938683e-06)
(0 3.9660408e-05 1.0515462e-05)
(0 3.7484476e-05 2.7987047e-05)
(0 3.4581438e-05 4.4969214e-05)
(0 0 0)
(0 -2.9255339e-05 -4.9244664e-05)
(0 -3.8893266e-05 -8.3188413e-05)
(0 -3.8306718e-05 -0.00010728478)
(0 -3.2421999e-05 -0.00012552176)
(0 -2.3889063e-05 -0.00013987018)
(0 -1.4063499e-05 -0.00015114972)
(0 -3.7397501e-06 -0.00015961057)
(0 6.6584812e-06 -0.000165247)
(0 1.6912639e-05 -0.00016802373)
(0 2.6932955e-05 -0.00016796178)
(0 3.6507937e-05 -0.00016503336)
(0 4.5417051e-05 -0.00015931287)
(0 5.3647957e-05 -0.00015093289)
(0 6.1099315e-05 -0.00013996818)
(0 6.7605947e-05 -0.00012657207)
(0 7.303439e-05 -0.00011091746)
(0 7.7248999e-05 -9.3250172e-05)
(0 8.019515e-05 -7.3890663e-05)
(0 8.1835673e-05 -5.3168901e-05)
(0 8.204561e-05 -3.1408179e-05)
(0 8.0783515e-05 -8.9634088e-06)
(0 7.806463e-05 1.3748336e-05)
(0 7.3916209e-05 3.6283725e-05)
(0 6.8393897e-05 5.8201207e-05)
(0 0 0)
(0 -4.9748617e-05 -6.8087264e-05)
(0 -6.2926871e-05 -0.00011177563)
(0 -6.0625109e-05 -0.00014261633)
(0 -5.0588976e-05 -0.00016605765)
(0 -3.6761735e-05 -0.00018459136)
(0 -2.1089932e-05 -0.00019917453)
(0 -4.6432404e-06 -0.0002100922)
(0 1.1991639e-05 -0.00021733125)
(0 2.8451521e-05 -0.0002208442)
(0 4.4469742e-05 -0.00022062017)
(0 5.9727931e-05 -0.00021664789)
(0 7.3945571e-05 -0.00020900267)
(0 8.6986422e-05 -0.00019781943)
(0 9.8644144e-05 -0.00018324389)
(0 0.00010868344 -0.00016549894)
(0 0.00011692122 -0.00014484869)
(0 0.00012319902 -0.00012162673)
(0 0.00012742709 -9.6232568e-05)
(0 0.00012953844 -6.9090629e-05)
(0 0.00012942719 -4.0644406e-05)
(0 0.00012704964 -1.1377101e-05)
(0 0.00012243457 1.818177e-05)
(0 0.0001156529 4.7482462e-05)
(0 0.00010678457 7.5982548e-05)
(0 0 0)
(0 6.6014738e-05 5.4445189e-05)
(0 8.357018e-05 8.9406779e-05)
(0 8.0286364e-05 0.00011423227)
(0 6.6536604e-05 0.00013312223)
(0 4.7744093e-05 0.00014806777)