/*--------------------------------*- C++ -*----------------------------------*\
  =========                 |
  \\      /  F ield         | OpenFOAM: The Open Source CFD Toolbox
   \\    /   O peration     | Website:  https://openfoam.org
    \\  /    A nd           | Version:  8
     \\/     M anipulation  |
\*---------------------------------------------------------------------------*/
FoamFile
{
    version     2.0;
    format      ascii;
    class       volVectorField;
    location    "0.0785000";
    object      cellDisplacement;
}
// * * * * * * * * * * * * * * * * * * * * * * * * * * * * * * * * * * * * * //

dimensions      [0 1 0 0 0 0 0];

internalField   nonuniform List<vector> 
900
(
(3.30907377658548e-28 -9.91814984349517e-07 -6.83441596514406e-14)
(3.20358821029593e-28 -9.94261636386643e-07 -6.42114989651997e-14)
(3.13371289462048e-28 -9.98539898323164e-07 -7.63753938554767e-15)
(3.06729815844121e-28 -1.00394858370776e-06 -8.05153984967736e-14)
(2.99760690248936e-28 -1.01019857253533e-06 1.06778565021418e-13)
(2.93083892125287e-28 -1.01706953378096e-06 2.89049324150668e-13)
(2.86290836043647e-28 -1.02453408875538e-06 1.67604762691985e-13)
(2.79797755444758e-28 -1.03265913877303e-06 5.91765588566487e-14)
(2.73191281133772e-28 -1.04138496069568e-06 1.28494250139256e-13)
(2.66861499358103e-28 -1.05056178506233e-06 1.10789020794832e-13)
(2.60417337039739e-28 -1.06017065219504e-06 -2.02954090349534e-14)
(2.54243279052589e-28 -1.0702708582703e-06 -2.28701477073758e-15)
(2.47962759807872e-28 -1.08085185161594e-06 1.0268274564351e-13)
(2.41935506034737e-28 -1.09181728332485e-06 -7.51945533041405e-14)
(2.35804924238074e-28 -1.10315257127807e-06 -1.69904018359373e-13)
(2.29923027483491e-28 -1.11490972332971e-06 2.49806058783335e-14)
(2.23945463779667e-28 -1.12710989111092e-06 1.53994453912478e-14)
(2.18203930859248e-28 -1.13968609098422e-06 -1.51960391464369e-13)
(2.12372021211256e-28 -1.15260933225136e-06 -1.40846164014824e-13)
(2.06770718291042e-28 -1.16594070429797e-06 9.49512560943156e-14)
(2.01087108836771e-28 -1.17972085293654e-06 5.873926503644e-14)
(1.95624248403533e-28 -1.19389833370107e-06 1.83293152451283e-14)
(1.90085023231832e-28 -1.20845466576925e-06 -6.29785390443266e-15)
(1.84760624909533e-28 -1.22344461617712e-06 -4.23425324125906e-14)
(1.79369955042248e-28 -1.2389445502427e-06 1.44859837916459e-13)
(1.74186753422925e-28 -1.25493148194658e-06 2.82290053093872e-13)
(1.68941329263451e-28 -1.27137125401495e-06 1.47378864550212e-13)
(1.63897755126318e-28 -1.28833047770096e-06 -3.40575982121219e-15)
(1.58803435893533e-28 -1.30593351567093e-06 -2.22255910493699e-14)
(1.53905182428958e-28 -1.32418676638241e-06 -1.25001322761553e-14)
(1.48961054624245e-28 -1.34305747154656e-06 8.96118196635138e-15)
(1.4420768562208e-28 -1.36263097225179e-06 -2.3271595177434e-15)
(1.39420185659887e-28 -1.3831273791041e-06 -8.54748298323571e-14)
(1.34819844915826e-28 -1.40460898431125e-06 -8.42606563497521e-14)
(1.30190702280802e-28 -1.42702128778992e-06 -9.57940648299645e-14)
(1.25742819598925e-28 -1.45045006543776e-06 -1.1138708806001e-13)
(1.21279778577962e-28 -1.47530556101014e-06 6.6371388630566e-15)
(1.16998067822166e-28 -1.50177037996103e-06 -1.48461534454842e-13)
(1.12732149343592e-28 -1.52974651267406e-06 -8.81126028911299e-14)
(1.08849359939108e-28 -1.55937400055869e-06 1.70554673202801e-13)
(1.03656331113086e-28 -1.59136786922203e-06 1.41323550090272e-13)
(1.00729936264003e-28 -1.6261243127709e-06 -1.33132108990442e-13)
(9.54750327409432e-29 -1.66349795081505e-06 -2.65343508982993e-13)
(9.30103933247976e-29 -1.70371579773418e-06 2.74619275249162e-14)
(8.79397241883514e-29 -1.74792684895472e-06 2.80261436355398e-14)
(8.57086108712672e-29 -1.79693820792991e-06 -6.94134489993142e-14)
(8.09539984368365e-29 -1.85063821661791e-06 -7.28365434194909e-14)
(7.88174836806666e-29 -1.90937007454264e-06 2.46546861772771e-14)
(7.44034684176809e-29 -1.97492528636272e-06 6.46211789949225e-14)
(7.23787128724485e-29 -2.04886085385453e-06 6.94181359269707e-14)
(6.83168574328736e-29 -2.13114693109318e-06 1.07962849823886e-13)
(6.63865969102752e-29 -2.22213101599112e-06 -4.95215695786938e-14)
(6.26780319969861e-29 -2.32460446365108e-06 -1.73370106487217e-13)
(6.09078962674431e-29 -2.44153752034201e-06 -1.21581206659636e-13)
(5.75592715835962e-29 -2.573121857982e-06 1.86785735333735e-13)
(5.59200063388381e-29 -2.71966743405991e-06 2.82263541658614e-13)
(5.29245471340953e-29 -2.88578786238803e-06 2.85711804418361e-13)
(5.15136866810191e-29 -3.08028731101507e-06 9.94288609181085e-14)
(4.89528257862983e-29 -3.31143083582799e-06 -9.99698283047144e-14)
(4.78370365838882e-29 -3.5876041754937e-06 -4.6664611599972e-14)
(4.5919768961984e-29 -3.93235838463183e-06 -1.46544827521269e-13)
(4.56440559409512e-29 -4.37726257463428e-06 -1.14546883246561e-13)
(4.47116086554971e-29 -4.92746338879832e-06 -1.64761615685891e-13)
(4.52684683572026e-29 -5.57640356731359e-06 -2.11083077979791e-13)
(4.53545695310511e-29 -6.3416813366388e-06 6.46323859188279e-14)
(4.71376861199341e-29 -7.23621811058313e-06 1.10551614982206e-13)
(4.81274408373987e-29 -8.24237263971848e-06 -2.08415044756668e-15)
(5.07085650992335e-29 -9.34432737487179e-06 -4.08303897687671e-14)
(5.2682768439786e-29 -1.0554545790592e-05 2.9575057565555e-14)
(5.64504373786266e-29 -1.18675059429388e-05 1.63095297684024e-13)
(5.89646760144128e-29 -1.32522670106224e-05 3.01321366090042e-14)
(6.34501830638582e-29 -1.4693029568506e-05 -3.24567002256907e-13)
(6.65206342064562e-29 -1.61839828660326e-05 -2.64818393771356e-13)
(7.14191624865302e-29 -1.77010283898579e-05 8.63177279183562e-14)
(7.43522293491356e-29 -1.92169886055172e-05 -8.8859696995662e-14)
(7.92126844413809e-29 -2.07179029245786e-05 -7.57394146549278e-14)
(8.12398663082779e-29 -2.21735460696605e-05 5.14651533172557e-16)
(8.51618343528957e-29 -2.35628855879576e-05 -5.32961796773789e-14)
(8.61077893335316e-29 -2.48809615907254e-05 2.3992481297746e-13)
(8.81373203069429e-29 -2.6097035079363e-05 1.87104676452491e-13)
(8.63537416136161e-29 -2.71836179425226e-05 -7.83305981977091e-14)
(8.65508268801769e-29 -2.81449476067826e-05 -3.33548230166111e-14)
(8.2571484826036e-29 -2.89804143409531e-05 8.22556799421508e-14)
(7.96709452518468e-29 -2.96513953769392e-05 -9.02786590841808e-14)
(7.31067579098344e-29 -3.01587876424383e-05 -1.45275111029071e-13)
(6.87123891759221e-29 -3.05368816566037e-05 -1.20920166585793e-14)
(6.36660464346634e-29 -3.07802116166554e-05 2.39538147604792e-13)
(6.52258526180338e-29 -3.08995467973652e-05 3.39383078096405e-13)
(6.52815629293629e-29 -3.09313153194899e-05 1.01077273759514e-13)
(6.36860111950851e-29 -3.0897848544718e-05 -8.64727436254291e-14)
(6.3904879983442e-29 -3.08089120304526e-05 -5.425443776739e-14)
(6.17432335549074e-29 -3.06841143112827e-05 1.33222280201461e-13)
(6.17294916332577e-29 -3.05400863011259e-05 1.55515947973772e-13)
(5.9444414476015e-29 -3.03812068732632e-05 5.37041334251458e-14)
(5.92598702231428e-29 -3.02137918358229e-05 2.31586875466934e-14)
(5.69838295893392e-29 -3.00438470333289e-05 -1.22901982243723e-13)
(5.68103281679915e-29 -2.9874770965881e-05 -1.58792172168165e-15)
(5.46232814974504e-29 -2.97114180051615e-05 1.54491955767416e-13)
(5.44403996664037e-29 -2.9559913919183e-05 8.40430828350931e-14)
(5.19699823619927e-29 -2.9432025277326e-05 1.07640932555415e-14)
(9.56378400342425e-28 -2.71258568745886e-06 -2.01724376578172e-13)
(9.26789472945099e-28 -2.7130841182025e-06 -1.89757901766604e-13)
(9.06601085745255e-28 -2.71538952424223e-06 -2.24130208283417e-14)
(8.8734503860029e-28 -2.71867433050339e-06 -2.38272048917078e-13)
(8.67207388116246e-28 -2.72269579153345e-06 3.14366697017314e-13)
(8.47890753546342e-28 -2.72725814416063e-06 8.53974925448457e-13)
(8.28225603712394e-28 -2.7323406134165e-06 4.95890725835029e-13)
(8.09410602804388e-28 -2.73800224327268e-06 1.74896104436586e-13)
(7.90252398315152e-28 -2.74419235977094e-06 3.79751963189538e-13)
(7.71892022457385e-28 -2.75077573256123e-06 3.28047686889714e-13)
(7.5318564195777e-28 -2.75773847430989e-06 -5.97924291844227e-14)
(7.35263238015395e-28 -2.76513238747834e-06 -7.15142284485411e-15)
(7.17012552794372e-28 -2.77295039946261e-06 3.04136804620897e-13)
(6.99507463574704e-28 -2.78110437124541e-06 -2.21804014735717e-13)
(6.81682169024798e-28 -2.78958388361288e-06 -5.03279026333579e-13)
(6.64593184117496e-28 -2.7984338814266e-06 7.35460802536775e-14)
(6.47201351946653e-28 -2.80767552790156e-06 4.6150008672577e-14)
(6.30516087017976e-28 -2.81724677306468e-06 -4.4968258155498e-13)
(6.13542459835689e-28 -2.8271238563523e-06 -4.17956822718957e-13)
(5.97263198668137e-28 -2.83735972756794e-06 2.80888645075677e-13)
(5.80714481558018e-28 -2.84799304743766e-06 1.74263803577818e-13)
(5.64836461906194e-28 -2.85897542037208e-06 5.4491520053926e-14)
(5.48705463212042e-28 -2.8702921159272e-06 -1.85034531396759e-14)
(5.33230669362529e-28 -2.88199012507438e-06 -1.26030484167716e-13)
(5.17528313852452e-28 -2.89414013744242e-06 4.28758056062405e-13)
(5.02463585915771e-28 -2.90671902649047e-06 8.37415503858435e-13)
(4.87183200832905e-28 -2.9196975150235e-06 4.37994660781692e-13)
(4.72526240354976e-28 -2.93313284125254e-06 -9.70681041289122e-15)
(4.57683121203614e-28 -2.94713882279744e-06 -6.59500847366915e-14)
(4.43447893269004e-28 -2.9617183332241e-06 -3.71919252776447e-14)
(4.29041688175034e-28 -2.97684251017868e-06 2.65903224971701e-14)
(4.15229238686656e-28 -2.99258417587351e-06 -6.64739311340183e-15)
(4.01276106064465e-28 -3.00914343035289e-06 -2.53702130355547e-13)
(3.8790547251607e-28 -3.0265730059103e-06 -2.50303358073804e-13)
(3.74411548721479e-28 -3.04482308133354e-06 -2.84584463968364e-13)
(3.61484382468226e-28 -3.06396460094519e-06 -3.31350646823167e-13)
(3.48469784616853e-28 -3.0843691657137e-06 1.98871823531971e-14)
(3.36017846201068e-28 -3.10619715793438e-06 -4.41227874960066e-13)
(3.23585705152882e-28 -3.12935619291704e-06 -2.6289058342958e-13)
(3.12198006681732e-28 -3.15396209666316e-06 5.06790720937968e-13)
(2.97251528396011e-28 -3.18066037223639e-06 4.21271338695349e-13)
(2.88463975145978e-28 -3.20980538449105e-06 -3.95149917633725e-13)
(2.73526265736292e-28 -3.24125272077037e-06 -7.90217197227396e-13)
(2.65968525342055e-28 -3.27519312802706e-06 8.10507411264395e-14)
(2.51560923470685e-28 -3.31266049670944e-06 8.37105501350837e-14)
(2.44634166223128e-28 -3.35438005314902e-06 -2.06472538623485e-13)
(2.31097406248855e-28 -3.40022701317287e-06 -2.17211859555985e-13)
(2.2446587812417e-28 -3.45048465821623e-06 7.3105051055891e-14)
(2.1186560005125e-28 -3.5067627770867e-06 1.92453110233139e-13)
(2.05559137266359e-28 -3.57046644991737e-06 2.06781734867324e-13)
(1.939230739147e-28 -3.64152960705977e-06 3.2218104161161e-13)
(1.87918603038123e-28 -3.72021554992697e-06 -1.46908751986718e-13)
(1.77253420066374e-28 -3.8090283090636e-06 -5.16875850811209e-13)
(1.71695003134131e-28 -3.91065782867353e-06 -3.63692905524266e-13)
(1.62014842043786e-28 -4.02521286614888e-06 5.56153929923142e-13)
(1.56861166484093e-28 -4.15287467699141e-06 8.42064501246139e-13)
(1.48158857179425e-28 -4.29770117469648e-06 8.53431733491875e-13)
(1.43627649591844e-28 -4.46755941374627e-06 2.98063669016808e-13)
(1.3609698795788e-28 -4.66973227900109e-06 -2.98154476084382e-13)
(1.32412570195287e-28 -4.91125203760858e-06 -1.39303717768434e-13)
(1.2655686295115e-28 -5.21296291550033e-06 -4.38023606110078e-13)
(1.24875661983637e-28 -5.60353805190059e-06 -3.42579122560856e-13)
(1.21463689415918e-28 -6.0873292346779e-06 -4.92473662143989e-13)
(1.21948979606395e-28 -6.65764084195838e-06 -6.327655084975e-13)
(1.208940563513e-28 -7.33042422135004e-06 1.91899775877381e-13)
(1.24167902547866e-28 -8.11783631175386e-06 3.31254817026129e-13)
(1.25376091448649e-28 -9.00370584609721e-06 -5.38685187120211e-15)
(1.30726665103389e-28 -9.97349144505704e-06 -1.22388656633042e-13)
(1.33745198013465e-28 -1.10383523553026e-05 8.72043177199777e-14)
(1.41705701045543e-28 -1.21942338617989e-05 4.87716654674316e-13)
(1.46389056932196e-28 -1.3412921753716e-05 9.33182927591302e-14)
(1.55807098406233e-28 -1.46804703065478e-05 -9.67845534602636e-13)
(1.61551976451661e-28 -1.59914205107078e-05 -7.93657011589066e-13)
(1.72259927167371e-28 -1.73251930359787e-05 2.56287804016876e-13)
(1.77866327853765e-28 -1.86571736487294e-05 -2.63799486994966e-13)
(1.88539918812381e-28 -1.99747005966458e-05 -2.26212983066425e-13)
(1.92724123570187e-28 -2.1252212977361e-05 1.38567587254065e-15)
(2.01634965578643e-28 -2.24706354210899e-05 -1.60081205929478e-13)
(2.02621047567215e-28 -2.36241720712906e-05 7.11124141905388e-13)
(2.08610973057481e-28 -2.46876803613764e-05 5.56995403015152e-13)
(2.04155578713977e-28 -2.56379517510198e-05 -2.31119859482704e-13)
(2.04542363157767e-28 -2.64764614423773e-05 -9.96887223556936e-14)
(1.95145707128748e-28 -2.72003567634811e-05 2.43637444484619e-13)
(1.89470308995906e-28 -2.77823213136936e-05 -2.6604015064519e-13)
(1.73739747981652e-28 -2.82222009842036e-05 -4.29863145433555e-13)
(1.63257787954011e-28 -2.85442785379006e-05 -3.70611581424571e-14)
(1.5186338325584e-28 -2.87529393575433e-05 7.0669204457446e-13)
(1.5625113629203e-28 -2.886112658834e-05 1.00375969574728e-12)
(1.56662558774239e-28 -2.88925272123398e-05 2.99755702154861e-13)
(1.52953665646931e-28 -2.88657347250626e-05 -2.55891953939466e-13)
(1.53906976009957e-28 -2.87917215150273e-05 -1.60947162455634e-13)
(1.48796758917679e-28 -2.86860878444414e-05 3.94965906332087e-13)
(1.48978963006479e-28 -2.8562027852148e-05 4.61404110135958e-13)
(1.43459662760741e-28 -2.8425021595122e-05 1.59417797378725e-13)
(1.43240054727826e-28 -2.82805009808294e-05 6.8800414101132e-14)
(1.3771117089689e-28 -2.81334162661993e-05 -3.64924336610939e-13)
(1.37490134185462e-28 -2.79872697342296e-05 -4.71736732997439e-15)
(1.32186586567909e-28 -2.784646183978e-05 4.59029408658655e-13)
(1.32034530325533e-28 -2.77175669591539e-05 2.49830334173581e-13)
(1.26559294915448e-28 -2.76166736626634e-05 3.19989324708349e-14)
(1.48692505303781e-27 -4.40010098138679e-06 -3.32567755545783e-13)
(1.44325181036114e-27 -4.39912054509876e-06 -3.13515938342009e-13)
(1.41195958627616e-27 -4.39989805393036e-06 -3.65044645375303e-14)
(1.38197680005414e-27 -4.40151139515894e-06 -3.94532843187695e-13)
(1.35076455827503e-27 -4.40375845846515e-06 5.15221272017997e-13)
(1.32073736199183e-27 -4.40646946291655e-06 1.40876916637475e-12)
(1.29021842809484e-27 -4.40962828694805e-06 8.20075972471152e-13)
(1.26093708683074e-27 -4.41328379458797e-06 2.88554134457168e-13)
(1.23116745866865e-27 -4.4173943288351e-06 6.26399914716764e-13)
(1.20257119424579e-27 -4.42184226338744e-06 5.42905397359647e-13)
(1.17347948295186e-27 -4.4266174563551e-06 -9.80218893461578e-14)
(1.14554734787692e-27 -4.43176263816394e-06 -1.29938413322653e-14)
(1.11713974595929e-27 -4.43727358515882e-06 5.03269462667862e-13)
(1.08984488703124e-27 -4.44307301622674e-06 -3.64182285781258e-13)
(1.0620832106417e-27 -4.44915383280261e-06 -8.3250137972847e-13)
(1.03542661199301e-27 -4.45555293185804e-06 1.20322720645406e-13)
(1.00832281435202e-27 -4.4622903671004e-06 7.7897928600064e-14)
(9.82287526875562e-28 -4.4693111986002e-06 -7.42028376816714e-13)
(9.55823800771531e-28 -4.47659693880176e-06 -6.929318897129e-13)
(9.30416010499803e-28 -4.48419137402123e-06 4.63075055541291e-13)
(9.04602084680634e-28 -4.49212965703789e-06 2.88638616661482e-13)
(8.79815141136654e-28 -4.50036856966383e-06 9.05560376266927e-14)
(8.54644001431873e-28 -4.5088974083957e-06 -3.01189758270897e-14)
(8.30482919528375e-28 -4.5177549127187e-06 -2.0981024015123e-13)
(8.05970678932417e-28 -4.52700385079988e-06 7.06775921644216e-13)
(7.82445509915082e-28 -4.53662272791896e-06 1.38545646314185e-12)
(7.58584829161616e-28 -4.54658841973065e-06 7.26657123237802e-13)
(7.3569416784583e-28 -4.55694854809286e-06 -1.4993581592252e-14)
(7.12507489552734e-28 -4.56780309119451e-06 -1.09096361171579e-13)
(6.90271123759218e-28 -4.57915299382804e-06 -6.17822735543121e-14)
(6.67760399470299e-28 -4.5909756008377e-06 4.3973426831847e-14)
(6.46182183630599e-28 -4.60333209729265e-06 -1.02923570587185e-14)
(6.24370422084356e-28 -4.61639691323659e-06 -4.19574815446206e-13)
(6.03476143212302e-28 -4.63021406804148e-06 -4.14400981284828e-13)
(5.82374311468973e-28 -4.64474303987301e-06 -4.71128934490575e-13)
(5.62169630162816e-28 -4.6600436562176e-06 -5.49619528222021e-13)
(5.41807014286487e-28 -4.67643831107275e-06 3.33937226851843e-14)
(5.22334334456196e-28 -4.69406405295967e-06 -7.30588842927849e-13)
(5.02871573674607e-28 -4.7128440942653e-06 -4.37779312419217e-13)
(4.8496159748151e-28 -4.73287744380388e-06 8.38651915721825e-13)
(4.6190272743325e-28 -4.75472217295185e-06 7.00297874541976e-13)
(4.47775189983019e-28 -4.7786849449837e-06 -6.52648359658293e-13)
(4.24877881592198e-28 -4.80464244257283e-06 -1.31137324554426e-12)
(4.12520121328847e-28 -4.83276112310551e-06 1.32795972203359e-13)
(3.9044914800049e-28 -4.8639331711493e-06 1.39452709103766e-13)
(3.79054264343244e-28 -4.89878658137668e-06 -3.41919170716475e-13)
(3.58273384910952e-28 -4.93721605362972e-06 -3.60924842303314e-13)
(3.47370617800406e-28 -4.97946892232348e-06 1.20519695185733e-13)
(3.27984598671803e-28 -5.02693538492927e-06 3.19108903260483e-13)
(3.17601214283367e-28 -5.08083142487372e-06 3.42911195637042e-13)
(2.99649100515009e-28 -5.14110433628393e-06 5.35503093238755e-13)
(2.89770994933945e-28 -5.20798596690041e-06 -2.42300850960456e-13)
(2.73269638974927e-28 -5.28363974506797e-06 -8.57827462387178e-13)
(2.64081091215953e-28 -5.37039263886699e-06 -6.06014403686023e-13)
(2.49046862593095e-28 -5.46834621398731e-06 9.21430885141885e-13)
(2.40517703409562e-28 -5.57766485324145e-06 1.39815623949055e-12)
(2.26956657598847e-28 -5.70185800316061e-06 1.4189444363549e-12)
(2.19372808539921e-28 -5.84772812845606e-06 4.97492287257038e-13)
(2.07545523116459e-28 -6.02158323997195e-06 -4.94761367777419e-13)
(2.01257993585135e-28 -6.22952252628987e-06 -2.31316320381427e-13)
(1.91895962407147e-28 -6.48955370689226e-06 -7.28284492146987e-13)
(1.88400338912036e-28 -6.82645258106932e-06 -5.69878383544601e-13)
(1.82475099576009e-28 -7.2440340558878e-06 -8.18761676100821e-13)
(1.82084154704424e-28 -7.73653068853878e-06 -1.05486294048021e-12)
(1.7956186801795e-28 -8.31767489332198e-06 3.17123885243934e-13)
(1.82981178324881e-28 -8.99797794171317e-06 5.51873696729944e-13)
(1.83598529740717e-28 -9.76350133032763e-06 -7.75493432671666e-15)
(1.89996531944115e-28 -1.06016050055872e-05 -2.03963242383795e-13)
(1.93257114268782e-28 -1.15218493949701e-05 1.43379933591698e-13)
(2.03084870713219e-28 -1.25207417466191e-05 8.11109083361492e-13)
(2.08550278140407e-28 -1.35738759726114e-05 1.59531654254956e-13)
(2.20582004260051e-28 -1.46690797614116e-05 -1.60580544044108e-12)
(2.27472377858206e-28 -1.58015763351773e-05 -1.32189898044599e-12)
(2.4118048442415e-28 -1.69535672160592e-05 4.23743501304839e-13)
(2.47957428895108e-28 -1.81037048768091e-05 -4.36084913579394e-13)
(2.61720725276769e-28 -1.92409900719268e-05 -3.75652283322585e-13)
(2.66512690662698e-28 -2.0343346292758e-05 2.1132379621823e-15)
(2.78054825865808e-28 -2.13942032658892e-05 -2.66984382102687e-13)
(2.78720136302099e-28 -2.23884841100491e-05 1.17343988681634e-12)
(2.86024619108656e-28 -2.33045928284869e-05 9.22069575143917e-13)
(2.79604041060951e-28 -2.41225026588312e-05 -3.79717029418417e-13)
(2.79780728230062e-28 -2.4843243643749e-05 -1.65477464880576e-13)
(2.66291165742313e-28 -2.54642315341807e-05 4.01354507211911e-13)
(2.58302479469069e-28 -2.59623328496006e-05 -4.36056160901302e-13)
(2.36676142925925e-28 -2.63373266419027e-05 -7.07193605752392e-13)
(2.22230501056044e-28 -2.66101024248834e-05 -6.26454232799458e-14)
(2.06555320544276e-28 -2.67865310490742e-05 1.15901386151432e-12)
(2.12934192877992e-28 -2.68792116101138e-05 1.65001820186009e-12)
(2.13675151175666e-28 -2.69067835615327e-05 4.93904924180386e-13)
(2.08739270920894e-28 -2.68845473775924e-05 -4.20879610094126e-13)
(2.10341283221492e-28 -2.68219785559142e-05 -2.65414095538766e-13)
(2.03472229401554e-28 -2.67322801649992e-05 6.50743037774476e-13)
(2.03886283475251e-28 -2.66265929407341e-05 7.60767883646358e-13)
(1.96409867566433e-28 -2.65097312088144e-05 2.62999486294443e-13)
(1.96266585215485e-28 -2.63863890721194e-05 1.1360354229239e-13)
(1.88749003098663e-28 -2.62607993088341e-05 -6.02168955252148e-13)
(1.88590377928744e-28 -2.61360258827353e-05 -7.84768783894321e-15)
(1.81387033135894e-28 -2.60159411368787e-05 7.57955223658756e-13)
(1.81443929054636e-28 -2.59064394132362e-05 4.12817654164741e-13)
(1.74545483628364e-28 -2.58210162505116e-05 5.30909198491883e-14)
(1.88156781922526e-27 -6.05533761161578e-06 -4.60971768207221e-13)
(1.83120070012453e-27 -6.05335049257479e-06 -4.35946700002637e-13)
(1.79166699204967e-27 -6.0530214395803e-06 -4.96547105028719e-14)
(1.75377761090043e-27 -6.05338904593329e-06 -5.5027339131611e-13)
(1.71434059176054e-27 -6.05428857129422e-06 7.0760028897016e-13)
(1.67647106483754e-27 -6.05557610283212e-06 1.95375986000056e-12)
(1.63786332106907e-27 -6.05723946061881e-06 1.14142420446711e-12)
(1.60089220357946e-27 -6.05931813224317e-06 4.00195954231296e-13)
(1.56318858954999e-27 -6.06177886630988e-06 8.68396828995248e-13)
(1.52705202641633e-27 -6.06452166962669e-06 7.5627579868964e-13)
(1.49017584750114e-27 -6.06753946041506e-06 -1.34624059633811e-13)
(1.4548526683576e-27 -6.07086661355613e-06 -2.04739987782466e-14)
(1.41881313519813e-27 -6.07450124025771e-06 7.00760565861525e-13)
(1.38427490984446e-27 -6.07837713422058e-06 -5.01243329759324e-13)
(1.34903200223329e-27 -6.08248984631996e-06 -1.15839580331086e-12)
(1.31528321984001e-27 -6.08686888131192e-06 1.6470423294351e-13)
(1.28085242074508e-27 -6.09153272131516e-06 1.11540477167523e-13)
(1.24787434276779e-27 -6.09643386970077e-06 -1.0285752359712e-12)
(1.21423869644813e-27 -6.10155838645875e-06 -9.6706119253561e-13)
(1.18204205026965e-27 -6.10694154902016e-06 6.40967011876885e-13)
(1.14921397383832e-27 -6.11261456121481e-06 4.02198310017705e-13)
(1.11779156170393e-27 -6.11853976237697e-06 1.26777045660966e-13)
(1.08576618915128e-27 -6.12470977141076e-06 -4.08921799258689e-14)
(1.05512649782724e-27 -6.13115567168886e-06 -2.94431063076992e-13)
(1.02392403603466e-27 -6.13793191956483e-06 9.77783803299077e-13)
(9.94079807749563e-28 -6.14501911022769e-06 1.92669220915852e-12)
(9.63693981881098e-28 -6.15239949871255e-06 1.01447298591207e-12)
(9.34645622187741e-28 -6.16011166051071e-06 -1.87365174667606e-14)
(9.05104163590784e-28 -6.16824140781734e-06 -1.51652200309892e-13)
(8.76875557923626e-28 -6.17678826734035e-06 -8.63899352364354e-14)
(8.48183446927384e-28 -6.18573497027885e-06 6.10931841360403e-14)
(8.20781581221321e-28 -6.19513156509033e-06 -1.2910440388539e-14)
(7.92966471602218e-28 -6.20512662221468e-06 -5.82891166394061e-13)
(7.66421095491211e-28 -6.21575605745188e-06 -5.7653409692565e-13)
(7.39498466879631e-28 -6.22698769980241e-06 -6.55358439088534e-13)
(7.13819484092945e-28 -6.23887056025365e-06 -7.66597375334462e-13)
(6.87824906237579e-28 -6.25167792009385e-06 4.73900535808875e-14)
(6.63059857339848e-28 -6.26552429480074e-06 -1.01637305429776e-12)
(6.38207675114547e-28 -6.28034724812858e-06 -6.13789613110225e-13)
(6.15245427080251e-28 -6.29622901626679e-06 1.16560922372891e-12)
(5.86502611925794e-28 -6.31364101288735e-06 9.79333175644472e-13)
(5.67795249003553e-28 -6.33284270934246e-06 -9.04581798293633e-13)
(5.39352059869346e-28 -6.35373089463716e-06 -1.82938249403288e-12)
(5.22795479653342e-28 -6.37644676393659e-06 1.82038044285136e-13)
(4.95354069967313e-28 -6.40174250200679e-06 1.95516929290254e-13)
(4.80023168557823e-28 -6.43014974513744e-06 -4.75529711567312e-13)
(4.54125846924955e-28 -6.46158111425183e-06 -5.04217461615377e-13)
(4.394719013068e-28 -6.49624637123137e-06 1.6659585033171e-13)
(4.1525322214161e-28 -6.53531841244058e-06 4.4448401751708e-13)
(4.01295048652159e-28 -6.57982602541976e-06 4.77687501298529e-13)
(3.78805595612084e-28 -6.62972742420432e-06 7.48191366292428e-13)
(3.65539425777679e-28 -6.68521987141871e-06 -3.3512511808232e-13)
(3.4480590522286e-28 -6.74812937378441e-06 -1.1960304016702e-12)
(3.3243150866826e-28 -6.82042399856131e-06 -8.49203244664431e-13)
(3.13477025728414e-28 -6.90219420276031e-06 1.28183410344462e-12)
(3.01978776149093e-28 -6.99358079839214e-06 1.9501827651729e-12)
(2.84821701523683e-28 -7.09754563330153e-06 1.98226078253632e-12)
(2.74511627260951e-28 -7.21983488377249e-06 6.98162941859689e-13)
(2.59454500124251e-28 -7.36578154644876e-06 -6.894290913253e-13)
(2.50752779944951e-28 -7.5405371942178e-06 -3.22486559436774e-13)
(2.38656848829902e-28 -7.75929756161743e-06 -1.01659924718207e-12)
(2.33192748736268e-28 -8.04299766099419e-06 -7.95847648245285e-13)
(2.25146988205515e-28 -8.39489704116658e-06 -1.14274702334629e-12)
(2.23348422642785e-28 -8.81011573213467e-06 -1.47633879902837e-12)
(2.19344774536615e-28 -9.30021250738371e-06 4.39651946268751e-13)
(2.21912986329867e-28 -9.87408192161731e-06 7.71839606890774e-13)
(2.21611317652482e-28 -1.05199711695018e-05 -9.10210632431918e-15)
(2.27689427572277e-28 -1.12271381551522e-05 -2.85342031300102e-13)
(2.30525756727064e-28 -1.20035897366435e-05 1.97833508061216e-13)
(2.40444562891166e-28 -1.28463941460406e-05 1.13279638622104e-12)
(2.45843642385693e-28 -1.37349238257244e-05 2.28862093347006e-13)
(2.58363377145138e-28 -1.46588116490225e-05 -2.23807292321495e-12)
(2.6539822601777e-28 -1.56139846292501e-05 -1.84996948211924e-12)
(2.79776358076107e-28 -1.65854167065402e-05 5.88964103601316e-13)
(2.8675067160257e-28 -1.7555046698604e-05 -6.06125967261669e-13)
(3.01218363829627e-28 -1.85135665949224e-05 -5.24663226929979e-13)
(3.05958197208452e-28 -1.94423549435437e-05 2.71242778651581e-15)
(3.18006252710513e-28 -2.03273903090442e-05 -3.74671987628435e-13)
(3.18199964284148e-28 -2.1164395981145e-05 1.63020186433415e-12)
(3.25390323465355e-28 -2.19352134539127e-05 1.28570907604857e-12)
(3.17790023877213e-28 -2.26229332623194e-05 -5.25506054144302e-13)
(3.17259960780382e-28 -2.32283663260406e-05 -2.31460474023433e-13)
(3.01544542391735e-28 -2.37493430311847e-05 5.57492747362245e-13)
(2.91986475384285e-28 -2.41663824193946e-05 -6.02677887369602e-13)
(2.67387783178735e-28 -2.44792445186481e-05 -9.80976217641271e-13)
(2.5070187178341e-28 -2.47057570594179e-05 -8.94534387911455e-14)
(2.33078276464989e-28 -2.48518143710401e-05 1.60338118504992e-12)
(2.40256527648302e-28 -2.49288618846682e-05 2.28627728991791e-12)
(2.41190234881538e-28 -2.49519438116018e-05 6.85674214100636e-13)
(2.35873880035604e-28 -2.49335125845084e-05 -5.83176858682314e-13)
(2.3770434041416e-28 -2.48814015546912e-05 -3.68612097698315e-13)
(2.3022205545904e-28 -2.4806613917359e-05 9.02649620865944e-13)
(2.30642868878923e-28 -2.47184373709929e-05 1.05599204679159e-12)
(2.22450621790718e-28 -2.46208917997516e-05 3.65232784964618e-13)
(2.22241460029831e-28 -2.45179065951066e-05 1.57910745870376e-13)
(2.13981985461824e-28 -2.44130236429866e-05 -8.36287835792583e-13)
(2.13749781909704e-28 -2.43088117902229e-05 -1.10245213326917e-14)
(2.0584475894457e-28 -2.42085220231929e-05 1.05311854867475e-12)
(2.05930209904116e-28 -2.41170509210481e-05 5.73878479226822e-13)
(1.98634056620672e-28 -2.40453729590218e-05 7.39540358209237e-14)
(2.10546653192945e-27 -7.67944311687792e-06 -5.87040604762209e-13)
(2.05631290216513e-27 -7.67690418966529e-06 -5.57519651393882e-13)
(2.01212788968199e-27 -7.6758610175531e-06 -6.1604150955501e-14)
(1.96978902601088e-27 -7.67538024485043e-06 -7.06432812826136e-13)
(1.92571629280486e-27 -7.67533076010581e-06 8.89797183474739e-13)
(1.88347657311831e-27 -7.67559488748879e-06 2.48927961669468e-12)
(1.84028235277441e-27 -7.67616335113533e-06 1.46121109611867e-12)
(1.79899846438504e-27 -7.67706736958006e-06 5.09894017593661e-13)
(1.7567704874237e-27 -7.67828105707305e-06 1.10571249738729e-12)
(1.71638427981375e-27 -7.67972255660569e-06 9.69071174411234e-13)
(1.67504876957581e-27 -7.68138682605716e-06 -1.69228030862149e-13)
(1.63554120890794e-27 -7.68330093827432e-06 -3.02462859796678e-14)
(1.59511088811419e-27 -7.68546439307311e-06 8.97273991262752e-13)
(1.5564561551536e-27 -7.68782272352937e-06 -6.31912876921461e-13)
(1.51689330039975e-27 -7.69037311025848e-06 -1.48178481992608e-12)
(1.47909916685398e-27 -7.69313868210789e-06 2.06075959494938e-13)
(1.44042228025977e-27 -7.69613545065907e-06 1.47951596032969e-13)
(1.40347108802684e-27 -7.69932412405094e-06 -1.30890818199721e-12)
(1.36566599302073e-27 -7.7026942405378e-06 -1.24163096814931e-12)
(1.32957216296403e-27 -7.70627359716536e-06 8.14027740093916e-13)
(1.2926535381664e-27 -7.71008856123956e-06 5.15275386751174e-13)
(1.25741096917287e-27 -7.71410783343397e-06 1.63409359606223e-13)
(1.22137689725193e-27 -7.71832630454161e-06 -5.05634583405863e-14)
(1.18699679689358e-27 -7.72276838949189e-06 -3.80624186528891e-13)
(1.15187029319713e-27 -7.72747938093369e-06 1.24068287596436e-12)
(1.11836802002438e-27 -7.73244283289928e-06 2.46142829427241e-12)
(1.08414483856362e-27 -7.7376452760843e-06 1.3025617314449e-12)
(1.05152237222706e-27 -7.74311722240258e-06 -2.04015202797206e-14)
(1.01823345687445e-27 -7.74892950324765e-06 -1.93603392502905e-13)
(9.8651770200749e-28 -7.75508113556765e-06 -1.11134555699919e-13)
(9.54170967887772e-28 -7.76155911118303e-06 7.7929199846106e-14)
(9.23371121866286e-28 -7.76840329750087e-06 -1.41563306219131e-14)
(8.91996755362393e-28 -7.77573566958892e-06 -7.43465428551135e-13)
(8.62144980512854e-28 -7.78358500519605e-06 -7.36699156937221e-13)
(8.31761898564899e-28 -7.79192629360035e-06 -8.37219457062146e-13)
(8.02870828686029e-28 -7.80079858823769e-06 -9.82709429017277e-13)
(7.73517876614001e-28 -7.81042548223621e-06 6.21033179575278e-14)
(7.45637398820038e-28 -7.82090002260403e-06 -1.2984292786112e-12)
(7.17567845162837e-28 -7.83217279006572e-06 -7.91936837836393e-13)
(6.91583756792884e-28 -7.84430998776965e-06 1.48715793565085e-12)
(6.59566323287014e-28 -7.85769642087714e-06 1.25932016203452e-12)
(6.37946205769165e-28 -7.87254456726825e-06 -1.14992893267819e-12)