/*--------------------------------*- C++ -*----------------------------------*\
  =========                 |
  \\      /  F ield         | OpenFOAM: The Open Source CFD Toolbox
   \\    /   O peration     | Website:  https://openfoam.org
    \\  /    A nd           | Version:  8
     \\/     M anipulation  |
\*---------------------------------------------------------------------------*/
FoamFile
{
    version     2.0;
    format      ascii;
    class       surfaceScalarField;
    location    "0.0785000";
    object      phi;
}
// * * * * * * * * * * * * * * * * * * * * * * * * * * * * * * * * * * * * * //

dimensions      [0 3 -1 0 0 0 0];

internalField   nonuniform List<scalar> 
1094
(
9.55540147597686e-10
1.16091547890581e-11
9.43834281440475e-10
1.20023487990109e-11
9.31930188893125e-10
1.22742227744201e-11
9.19734633915214e-10
1.26344467550878e-11
9.07377148671924e-10
1.2840278265952e-11
8.94963093308543e-10
1.29358326717691e-11
8.82538686669991e-10
1.29827322264533e-11
8.70123495346433e-10
1.30137509107513e-11
8.57720798023124e-10
1.30383844832352e-11
8.45326859421707e-10
1.30579980996093e-11
8.32942369886293e-10
1.30758403504699e-11
8.20565984062571e-10
1.30947585899728e-11
8.08203554353591e-10
1.31154983612322e-11
7.9584787618222e-10
1.31329292853601e-11
7.83500610176677e-10
1.31481370528536e-11
7.71160818361259e-10
1.31638708727632e-11
7.58832567077582e-10
1.3181830460053e-11
7.46513702042468e-10
1.3198948320033e-11
7.34203012539672e-10
1.32142641384071e-11
7.2190065682281e-10
1.32294965212795e-11
7.09607318660144e-10
1.32470067649741e-11
6.97327112788069e-10
1.32670460885243e-11
6.85055037199204e-10
1.32854165920181e-11
6.72792478479347e-10
1.33035100264582e-11
6.60538229617371e-10
1.33240627254041e-11
6.48299991608208e-10
1.33497384433945e-11
6.3607279266126e-10
1.33753671722799e-11
6.23856800503022e-10
1.34009815944279e-11
6.11651485444107e-10
1.34291079298915e-11
5.99461399628612e-10
1.34639858947514e-11
5.87290088208503e-10
1.35042466030694e-11
5.75132539568015e-10
1.35443021557089e-11
5.62991084410429e-10
1.35869549443782e-11
5.50862664204624e-10
1.36399111742379e-11
5.38768829853935e-10
1.37112513047929e-11
5.26693151792634e-10
1.37817166861639e-11
5.14641736813972e-10
1.38561152453152e-11
5.02610540738783e-10
1.39453880478127e-11
4.90622507675082e-10
1.40654451032743e-11
4.78674653638603e-10
1.41994394501579e-11
4.66762620335272e-10
1.43375793464017e-11
4.54888537902135e-10
1.44922466913706e-11
4.4305979331976e-10
1.46907523471241e-11
4.31318936521857e-10
1.49434374165885e-11
4.19631732724685e-10
1.51977098057414e-11
4.08016313666248e-10
1.5469186211827e-11
3.9644871919497e-10
1.58015274373979e-11
3.85046405469188e-10
1.62635679041223e-11
3.73736168037294e-10
1.67280391171407e-11
3.62544720480257e-10
1.72141440778241e-11
3.51457192595637e-10
1.7780711317023e-11
3.4056693845875e-10
1.85344061370859e-11
3.2990715341385e-10
1.94027851277536e-11
3.19428791483665e-10
2.02785040698549e-11
3.09178602502479e-10
2.12435564607133e-11
2.99064944062841e-10
2.26180723575045e-11
2.89855857734754e-10
2.50630689210303e-11
2.81451019718606e-10
2.80797145727056e-11
2.74140169766352e-10
3.17446738571234e-11
2.67583778462745e-10
3.66740366137936e-11
2.63580735174708e-10
4.38848668855418e-11
2.60740988913778e-10
5.05004609020481e-11
2.593312594606e-10
5.66561592132901e-11
2.58952596432364e-10
6.32415268928251e-11
2.6109673037332e-10
7.11233877760218e-11
2.64604240252642e-10
7.79441775793688e-11
2.69353833397052e-10
8.36074236394225e-11
2.75085037771624e-10
8.91079995690997e-11
2.82952290263247e-10
9.48197880980934e-11
2.91492893780158e-10
9.88270155650484e-11
3.00645835751192e-10
1.01457045492941e-10
3.10436162976573e-10
1.03317413812711e-10
3.20829981680909e-10
1.04082151666293e-10
3.30881947474857e-10
1.03351245564609e-10
3.40833691616231e-10
1.01655088420495e-10
3.50899588901934e-10
9.86700365210514e-11
3.59005428570794e-10
9.39745304908581e-11
3.66472398925711e-10
8.88231141658732e-11
3.73427753532078e-10
8.30115794080302e-11
3.7855956195351e-10
7.56947269272396e-11
3.8085849671897e-10
6.76389572276444e-11
3.82340109920538e-10
5.98730586725136e-11
3.83278154500927e-10
5.16688827995705e-11
3.79796725144117e-10
4.25788324187758e-11
3.74505370747093e-10
3.47228669227505e-11
3.70425649234642e-10
2.54305779378086e-11
3.73114025963077e-10
9.9111010585978e-12
3.73495781475657e-10
3.70642285676131e-12
3.73356985501918e-10
1.38758523492363e-13
3.72755185699199e-10
-2.91916471693698e-12
3.70791619998807e-10
-4.95681550169573e-12
3.68917502758084e-10
-6.34012998685098e-12
3.66936374369134e-10
-7.10284938163466e-12
3.64736160419868e-10
-7.5653060267887e-12
3.62527088394012e-10
-7.7824323417042e-12
3.60344978887645e-10
-7.78415233391763e-12
3.58067644665006e-10
-7.56079714773023e-12
3.5589933474026e-10
-7.03861023082354e-12
3.5356359456987e-10
-5.97088333118897e-12
-3.14859961202551e-12
2.16332891184693e-10
1.18618419436297e-11
2.15095750060103e-10
1.32394411541961e-11
2.12444792668338e-10
1.49251386964379e-11
2.08947165112284e-10
1.61320397608066e-11
2.05062189964969e-10
1.67252138074506e-11
2.01035292155291e-10
1.69626891492449e-11
1.96972168149693e-10
1.70458180265559e-11
1.92911710454421e-10
1.70741558759311e-11
1.88864362395758e-10
1.70856784876644e-11
1.84830496646426e-10
1.7091843493954e-11
1.80809476728883e-10
1.70968742307234e-11
1.76801557964184e-10
1.71027087028317e-11
1.72807561146489e-10
1.71095229138812e-11
1.68825749691822e-10
1.71147555390245e-11
1.64855392840462e-10
1.71185113846666e-11
1.60896915502102e-10
1.71223753724511e-11
1.56951439969512e-10
1.71273253089931e-11
1.53018523561992e-10
1.71318514952684e-11
1.49097408207915e-10
1.7135347483554e-11
1.45188154729429e-10
1.7138739668957e-11
1.41291706514996e-10
1.71434545944576e-11
1.37409039456869e-10
1.71496821637655e-11
1.33539174932853e-10
1.71552247534136e-11
1.29681955535688e-10
1.7160693704486e-11
1.2583836152318e-10
1.71676770029121e-11
1.22010478901019e-10
1.71776722433753e-11
1.18197764635194e-10
1.71880957475426e-11
1.14399819754676e-10
1.71988715881246e-11
1.10617448376679e-10
1.72113975946623e-11
1.06853144414855e-10
1.72282423849395e-11
1.03108552499337e-10
1.72488321708936e-11
9.93830252963809e-11
1.7269843259697e-11
9.56770842668083e-11
1.72929204735172e-11
9.19938050528349e-11
1.73232073911858e-11
8.83392244980011e-11
1.73658433398499e-11
8.47120438905107e-11
1.74089508470686e-11
8.11130450992892e-11
1.74552390430878e-11
7.75463873154531e-11
1.75122131882359e-11
7.40213070886291e-11
1.75906837991675e-11
7.05410119855776e-11
1.76798596260312e-11
6.71058282775034e-11
1.77728705762148e-11
6.37201564435358e-11
1.78780350786154e-11
6.03963353301574e-11
1.80146898923826e-11
5.7149329399319e-11
1.81905335615409e-11
5.39781373576055e-11
1.83689545850099e-11
5.08873429644995e-11
1.85599025651029e-11
4.78933554437539e-11
1.8795265759053e-11
4.50311345362619e-11
1.91255797005127e-11
4.23001717366322e-11
1.94589871191655e-11
3.97066756684849e-11
1.98077122439555e-11
3.72727911620937e-11
2.02146932446871e-11
3.50464322909561e-11
2.07609843356972e-11
3.30564957611552e-11
2.13931286248778e-11
3.1307355627174e-11
2.2028187268883e-11
2.98323903127007e-11
2.27191174593969e-11
2.87621486158979e-11
2.36889330948918e-11
2.8401497829117e-11
2.5424327065456e-11
2.89325464267535e-11
2.7549099176977e-11
3.05502198126436e-11
3.01269860099486e-11
3.35592776489869e-11
3.36643636301967e-11
3.84380127617636e-11
3.90050271501299e-11
4.5048224196721e-11
4.38888363446378e-11
5.33107607362543e-11
4.83919460009877e-11
6.33265908719792e-11
5.32237556732441e-11
7.5353231323326e-11
5.9094175055129e-11
8.9160777206721e-11
6.41326393946194e-11
1.04508642685289e-10
6.82544747735353e-11
1.21337622840083e-10
7.22740554787503e-11
1.39647553771889e-10
7.65047411147466e-11
1.59051760689729e-10
7.94168867341463e-11
1.79224244454741e-10
8.12787613225663e-11
1.99953624014304e-10
8.2583599945633e-11
2.20969056244772e-10
8.306412439579e-11
2.41906932359391e-10
8.24115268867112e-11
2.62515848052909e-10
8.10430122454757e-11
2.82474824847349e-10
7.87056534794094e-11
3.01335825134491e-10
7.51064891775946e-11
3.19002231350618e-10
7.11499379212072e-11
3.35323424681036e-10
6.66858309943734e-11
3.49867849682163e-10
6.114843953518e-11
3.62393688028615e-10
5.51125576631433e-11
3.73110416507033e-10
4.91551562183562e-11
3.81901662779037e-10
4.28752251153788e-11
3.88293932632557e-10
3.61840103309409e-11
3.92340565046508e-10
3.06743874660288e-11
3.94660549371489e-10
2.31096280312709e-11
3.9810180967111e-10
6.47080984701722e-12
3.99543691437079e-10
2.26659637764903e-12
3.99606793913791e-10
7.76969815745619e-14
3.98835945724733e-10
-2.1449272952513e-12
3.97340161946088e-10
-3.45668087851177e-12
3.95456093302334e-10
-4.45394842008777e-12
3.93361033976796e-10
-5.00882950548651e-12
3.91119356664388e-10
-5.32396365933202e-12
3.8881468722601e-10
-5.47634127222026e-12
3.86505896344323e-10
-5.47538328783363e-12
3.84237256744621e-10
-5.29444479180219e-12
3.82083210130574e-10
-4.88703895824888e-12
3.80108261410497e-10
-3.99646973447388e-12
-2.00604097384648e-12
-2.97305539479358e-10
5.69249141263946e-12
-2.91945193914068e-10
7.87904466057794e-12
-2.88481967876687e-10
1.1461869394775e-11
-2.85904129522045e-10
1.35541657509446e-11
-2.83666624704802e-10
1.4487667791194e-11
-2.81545300656786e-10
1.4841321517752e-11
-2.79454057709023e-10
1.49545360250499e-11
-2.77362564735695e-10
1.49826076607436e-11
-2.75262405693794e-10
1.498546236479e-11
-2.73152750904364e-10
1.49821685539649e-11
-2.71033976940189e-10
1.49781148538581e-11
-2.68905819617631e-10
1.49745843663936e-11
-2.66767950453561e-10
1.49716828018478e-11
-2.64621335840466e-10
1.49681553851194e-11
-2.62466684626242e-10
1.49638784111095e-11
-2.6030371930226e-10
1.49594390858956e-11
-2.58131810877747e-10
1.49554377376821e-11
-2.55951210693035e-10
1.49512369779944e-11
-2.53762448341409e-10
1.49465505074472e-11
-2.51565474850969e-10
1.49417563003956e-11
-2.4935958249694e-10
1.49375633142535e-11
-2.47144161658208e-10
1.49342288336111e-11
-2.44919663881169e-10
1.49306675305234e-11
-2.42686190067341e-10
1.49271823328039e-11
-2.40442877278463e-10
1.49243864291306e-11
-2.38188376707642e-10
1.4923227221519e-11
-2.3592277927894e-10
1.4922514237226e-11
-2.33646259480481e-10
1.49222934578815e-11
-2.31358016211203e-10
1.49230671355458e-11
-2.29056044520565e-10
1.49262223907205e-11
-2.26738913043111e-10
1.49316962532235e-11
-2.24406758937048e-10
1.49377034335338e-11
-2.22059029485287e-10
1.4945217184884e-11
-2.19692661616587e-10
1.49568574987259e-11
-2.17302924785893e-10
1.49761162288446e-11
-2.14889873392748e-10
1.49959532485155e-11
-2.12452737185595e-10
1.50182335032115e-11
-2.09987218615532e-10
1.50468701202044e-11
-2.07485250671916e-10
1.50888805821182e-11
-2.04943143875734e-10
1.51378806052529e-11
-2.023599843955e-10
1.5189819814077e-11
-1.99731296470565e-10
1.5249467410645e-11
-1.97044886472921e-10
1.53284026310283e-11
-1.94287002614293e-10
1.54327408454659e-11
-1.9145689083591e-10
1.55388966471341e-11
-1.88550714645002e-10
1.56536555325303e-11
-1.85550636068928e-10
1.57949212857245e-11
-1.82423948824943e-10
1.59986679346631e-11
-1.79168435469027e-10
1.62034681830925e-11
-1.75779440967198e-10
1.64187918698175e-11
-1.72233966623233e-10
1.66693146204615e-11
-1.68483206348011e-10
1.70104430346751e-11
-1.64497284190372e-10
1.7407625490181e-11
-1.60273428218731e-10
1.78048956596883e-11
-1.55787796120088e-10
1.82340832916292e-11
-1.50919447447696e-10
1.88212209726538e-11
-1.45390946027267e-10
1.98964731798325e-11
-1.3903953410938e-10
2.11981504109188e-11
-1.31693869238857e-10
2.2781319656868e-11
-1.23000700244687e-10
2.49705590422374e-11
-1.12411871818099e-10
2.84150664832726e-11
-1.00057309162517e-10
3.15328378835694e-11
-8.60629534931169e-11
3.43958826270327e-11
-7.03008849976754e-11
3.74597445079396e-11
-5.24653694590931e-11
4.12561438065723e-11
-3.28153882707346e-11
4.4478653624488e-11
-1.16508177804506e-11
4.70846782341625e-11
1.09919964108604e-11
4.96262049161066e-11
3.51457678530443e-11
5.23458363737803e-11
6.03819677114811e-11
5.41746995990012e-11
8.63397543987015e-11
5.53151143836667e-11
1.12816238964184e-10
5.61026331453727e-11
1.39523675887646e-10
5.63539962773845e-11
1.66078138593159e-10
5.58551142442599e-11
1.92217553232573e-10
5.49004366176826e-11
2.17597478184641e-10
5.33203992209618e-11
2.41789742201234e-10
5.09073105467827e-11
2.64660604354751e-10
4.82724045142448e-11
2.86033412083091e-10
4.530849186117e-11
3.05523228621939e-10
4.16565958900478e-11
3.22951923453969e-10
3.76829984480855e-11
3.3834970381621e-10
3.37560581746723e-11
3.51651678667582e-10
2.95709812689019e-11
3.62537282615344e-10
2.52958167705889e-11
3.71335768245377e-10
2.18738733569769e-11
3.76866297686283e-10
1.75783476801115e-11
3.80532485340778e-10
2.80538606018029e-12
3.8163417233969e-10
1.16642813308155e-12
3.81801249692316e-10
-8.74130122001265e-14
3.81013545209688e-10
-1.35402538431885e-12
3.79699858292962e-10
-2.13924327353058e-12
3.77974555950842e-10
-2.72665854095861e-12
3.76033660714465e-10
-3.06801025670768e-12
3.73961141375388e-10
-3.25132152721493e-12
3.71828830959728e-10
-3.34317564091345e-12
3.69693892085928e-10
-3.3406844983961e-12
3.67620253878804e-10
-3.22263601838103e-12
3.6570036666324e-10
-2.96906291847612e-12
3.64121356085073e-10
-2.41792910697022e-12
-1.24987783890572e-12
-5.61769219545293e-10
-1.65214128351669e-12
-5.55587953311722e-10
1.69772545664274e-12
-5.4994922310786e-10
5.82309419327137e-12
-5.44405214364747e-10
8.01011986627556e-12
-5.38833412197316e-10
8.91582282619077e-12
-5.3323366317392e-10
9.2415272671087e-12
-5.27619672722368e-10
9.34050490323671e-12
-5.21998713516728e-10
9.36159119452986e-12
-5.16373655927526e-10
9.36034580477016e-12
-5.10745721067343e-10
9.35421281585028e-12
-5.05115291973512e-10
9.34770078089257e-12
-4.99482238152271e-10
9.34156455474483e-12
-4.93846365682528e-10
9.33584029853632e-12
-4.88208144057923e-10
9.32994880241378e-12
-4.82567984555271e-10
9.32373788665305e-12
-4.76925864536144e-10
9.31734914486338e-12
-4.71281513778362e-10
9.31110850920734e-12
-4.65635082052847e-10
9.30479052516871e-12
-4.59986837355794e-10
9.29827028914368e-12
-4.54336742654547e-10
9.29165142016977e-12
-4.48684426852119e-10
9.28524848671765e-12
-4.43029505027216e-10
9.27927357520853e-12
-4.37372129529684e-10
9.27323102379344e-12
-4.31712227891832e-10
9.26724231508129e-12
-4.26049289465128e-10
9.2614710596942e-12
-4.20382467336232e-10
9.25646226184543e-12
-4.14711673128866e-10
9.25173642549922e-12
-4.0903678991603e-10
9.24735043954928e-12
-4.03357187389121e-10
9.24337524037909e-12
-3.97671471125681e-10
9.24045665176843e-12
-3.91978486797069e-10
9.23870749345548e-12
-3.86278048321579e-10
9.23727983736548e-12
-3.80569434575993e-10
9.23663046244232e-12
-3.74850390349927e-10
9.23783193435736e-12
-3.69117243873949e-10
9.2429801668239e-12
-3.63369580990778e-10
9.2483460271322e-12
-3.57606243384051e-10
9.25503024948647e-12
-3.51823823500146e-10
9.26463047712289e-12
-3.46015861628722e-10
9.28108794743646e-12
-3.40178952602652e-10
9.30110301947609e-12
-3.34311641881333e-10
9.32262096414243e-12
-3.28409847550293e-10
9.34779659884184e-12
-3.22463684252863e-10
9.38236518064418e-12
-3.16461314095164e-10
9.4304640392648e-12
-3.10401397390715e-10
9.47903490021026e-12
-3.04279780441189e-10
9.5319660958192e-12
-2.9808200724384e-10
9.59687715273544e-12
-2.91779302661801e-10
9.69573488696732e-12
-2.85369337582266e-10
9.7934972442539e-12
-2.78847127985704e-10
9.89665802808109e-12
-2.72193560566017e-10
1.00158458562633e-11
-2.65365473739664e-10
1.01825803956795e-11
-2.58335875168012e-10
1.03784544758999e-11
-2.5110269726618e-10
1.05722936034287e-11
-2.43647219277205e-10
1.07792165605382e-11
-2.35877207031013e-10
1.10518588589359e-11
-2.27558927418549e-10
1.15788538411522e-11
-2.18565858633156e-10
1.22055550618726e-11
-2.08752838419803e-10
1.29683019978071e-11
-1.97804539923945e-10
1.40216207040891e-11
-1.85176008668379e-10
1.57853921216042e-11
-1.70991586809303e-10
1.73469648747302e-11
-1.55371952031714e-10
1.87745216320389e-11
-1.38206550360721e-10
2.02923811082649e-11
-1.19186858383043e-10
2.22339163104137e-11
-9.85644300664244e-11
2.38521912145803e-11
-7.66281250417646e-11
2.51431030126785e-11
-5.34074014129082e-11
2.64003926173148e-11
-2.88480864216432e-11
2.77813346383915e-11
-3.35644944280798e-12
2.86770242080156e-11
2.27334376701475e-11
2.92193136160782e-11
4.92443454503137e-11
2.95871874179732e-11
7.59147991894593e-11
2.96808103724503e-11
1.02387694532141e-10
2.93802551909839e-11
1.28429852083119e-10
2.8855121498672e-11
1.53730614135166e-10
2.80143065348996e-11
1.77894697584899e-10
2.67362921427727e-11
2.00804194565017e-10
2.53562001687446e-11
2.22301115235519e-10
2.38069976293318e-11
2.42043252355717e-10
2.19123769139404e-11
2.59876057166904e-10
1.98492572270098e-11
2.75799041979349e-10
1.78316825221673e-11
2.8975500691941e-10
1.56126792787067e-11
3.01504571623527e-10
1.35435532440816e-11
3.11560706627308e-10
1.18155862083456e-11
3.18495980503843e-10
1.06422520339391e-11
3.21196736703912e-10
1.05287492606722e-13
3.21832975257237e-10
5.31533248571849e-13
3.21925068942515e-10
-1.77686601013048e-13
3.21225333461524e-10
-6.51183435748469e-13
3.20143471442603e-10
-1.05369558398825e-12
3.18729017316425e-10
-1.31022354567489e-12
3.17139711192574e-10
-1.47869030427161e-12
3.15447811675426e-10
-1.55921310240109e-12
3.13709178287434e-10
-1.60368196859137e-12
3.11969903156644e-10
-1.60165408446048e-12
3.10287486089285e-10
-1.54198405624956e-12
3.08743473062255e-10
-1.42687465231774e-12
3.0750608585723e-10
-1.18098765028353e-12
-6.72553758641718e-13
-5.60167836037388e-10
-4.20791737183676e-12
-5.5728289956141e-10
-1.18726603618672e-12
-5.52817075179288e-10
1.35722305274093e-12
-5.47378221577185e-10
2.57122767529957e-12
-5.41488630400796e-10
3.02618731512642e-12
-5.35426448528617e-10
3.17929854023411e-12
-5.29309135553224e-10
3.22314973162457e-12
-5.23178923427104e-10
3.231319847437e-12
-5.17048458117981e-10
3.22981948697858e-12
-5.10920696079465e-10
3.22642897995081e-12
-5.04795986462864e-10
3.22300651632854e-12
-4.98674176911161e-10
3.2197900535837e-12
-4.92555076126213e-10
3.21677047894283e-12
-4.86438841360776e-10
3.21372964454413e-12
-4.8032567416464e-10
3.21059028399689e-12
-4.74215668443382e-10
3.20737451359762e-12
-4.68108750493034e-10
3.20421293809813e-12
-4.62005009137359e-10
3.20103421561752e-12
-4.55904564941903e-10
3.19778962468655e-12
-4.49807405520574e-10
3.19448143650141e-12
-4.43713387233262e-10
3.19123118064187e-12
-4.37622283465741e-10
3.1881355887362e-12
-4.31534120946933e-10
3.1850059038795e-12
-4.25448784811125e-10
3.18186672458112e-12
-4.1936604422517e-10
3.17875412213541e-12
-4.13285405866745e-10
3.17588272671942e-12
-4.0720676379795e-10
3.17311153671138e-12
-4.01129925130856e-10
3.17045074100777e-12
-3.95054501576826e-10
3.16786007775411e-12
-3.88979642270521e-10
3.1655464816287e-12
-3.82904533618213e-10
3.16359426701173e-12
-3.76828950263402e-10
3.16171187546774e-12
-3.70752313511281e-10
3.16002157136136e-12
-3.64673267096724e-10
3.15880486330111e-12
-3.5858918041111e-10
3.15890442026183e-12
-3.52499698292127e-10
3.15892107105441e-12
-3.46403807215523e-10
3.15927688229694e-12
-3.40299352172066e-10
3.16036031063148e-12
-3.3418174379833e-10
3.16365337599372e-12
-3.28048475085664e-10
3.1679694388414e-12
-3.21898338533661e-10
3.17259936166535e-12
-3.15728519064336e-10
3.17810382741056e-12
-3.09532313079562e-10
3.18628819210657e-12
-3.03300706408064e-10
3.19895300182298e-12
-2.97032913654619e-10
3.21129844651063e-12
-2.9072580101242e-10
3.22477996331526e-12
-2.84370257563434e-10
3.24105838227181e-12
-2.77943618588026e-10
3.26886363286933e-12
-2.71445244057066e-10
3.29511639692019e-12
-2.64871328521165e-10
3.32281955767533e-12
-2.58209634567957e-10
3.35425286034127e-12
-2.51427568616954e-10
3.40074317883121e-12
-2.44504801523497e-10
3.45612313850634e-12
-2.37441401822708e-10
3.50948052352611e-12
-2.30226567817116e-10
3.56500535623226e-12
-2.22806939309305e-10
3.63289335870864e-12
-2.15009384887299e-10
3.781973544182e-12
-2.06756313038573e-10
3.95296799010121e-12
-1.97948447148764e-10
4.16044291646817e-12
-1.88369149560526e-10
4.44167859032084e-12
-1.77554471856596e-10
4.96955990482962e-12
-1.65623831779873e-10
5.41485781738249e-12
-1.52670150213711e-10
5.8190951451745e-12
-1.38622670477835e-10
6.24292146921173e-12
-1.23209949615656e-10
6.81864148466111e-12
-1.06643820436036e-10
7.28199827079309e-12
-8.91499515728234e-11
7.6439200528777e-12
-7.07500110335636e-11
7.99531513825065e-12
-5.13746809261861e-11
8.40076980835903e-12
-3.13509870675423e-11
8.64724487718565e-12
-1.0928165924134e-11
8.79053031270943e-12
9.76838802182556e-12
8.88604657971876e-12
3.05448643183753e-11
8.9015661194149e-12
5.11265792685635e-11
8.79656311818376e-12
7.13473382591271e-11
8.63120457417633e-12
9.09803882244393e-11
8.37592010200522e-12
1.09723316729614e-10
7.98640867163118e-12
1.27499112950251e-10
7.57366572005029e-12
1.44191510205254e-10
7.10998785759264e-12
1.59553735168329e-10
6.54802338423979e-12
1.73468595547517e-10
5.9334093105764e-12
1.85948992115145e-10
5.34984224827759e-12
1.96896847295217e-10
4.66242769243683e-12
2.06299873296901e-10
4.13775821514293e-12
2.14501335888882e-10
3.61189471402136e-12
2.21200089976777e-10
3.94259557462862e-12
2.22031289352996e-10
-7.2534859579223e-13
2.22377968852751e-10
1.86090836944491e-13
2.22324056711026e-10
-1.22051098990137e-13
2.21843579156158e-10
-1.67676879898543e-13
2.21096197105881e-10
-3.0268786247296e-13
2.20146497185686e-10
-3.58572159148531e-13
2.19076456807232e-10
-4.08626305991871e-13
2.17944643406878e-10
-4.27168370481195e-13
2.16781995199508e-10
-4.4016010338317e-13
2.15619232967104e-10
-4.39117481055727e-13
2.14496624455821e-10
-4.21105093225243e-13
2.13461435932054e-10
-3.9347209948049e-13
2.12617961876364e-10
-3.37938135705394e-13
-2.65309597092255e-13
-2.78818884140599e-10
-2.80006207116022e-10
-2.78649032559283e-10
-2.76077844791547e-10
-2.73051703043197e-10
-2.69872452883503e-10
-2.6664934665075e-10
-2.63418087548552e-10
-2.60188331288372e-10
-2.56961925503638e-10
-2.53738903641805e-10
-2.50519077694416e-10
-2.47302275132478e-10
-2.44088529331551e-10
-2.40877919137758e-10
-2.37670512707265e-10
-2.34466276287887e-10
-2.31265256729231e-10
-2.2806750453138e-10
-2.24873034383467e-10
-2.21681802007239e-10
-2.18493700899176e-10
-2.15308759031408e-10
-2.12126933330263e-10
-2.089481557112e-10
-2.05772212602107e-10
-2.02599082361093e-10
-1.99428693039619e-10
-1.96260926723356e-10
-1.9309543298961e-10
-1.89931843746649e-10
-1.86770116158838e-10
-1.83610066033034e-10
-1.80451241082388e-10
-1.77292325461567e-10
-1.74133346653486e-10
-1.70973929814673e-10
-1.67813380687194e-10
-1.6464954913642e-10
-1.61481440925224e-10
-1.58308723825154e-10
-1.55130490594659e-10
-1.51944070428452e-10
-1.48745019355046e-10
-1.45533663036861e-10
-1.42308956221775e-10
-1.39068176218659e-10
-1.35799549456115e-10
-1.32504440723883e-10
-1.29181543032629e-10
-1.25827187840087e-10
-1.2242621321082e-10
-1.18969648527185e-10
-1.154595725525e-10
-1.1189393476803e-10
-1.08260368206944e-10
-1.04477708635956e-10
-1.00524244381658e-10
-9.63637880319534e-11
-9.19227554954389e-11
-8.69543589001072e-11
-8.15409810647554e-11
-7.5723646603989e-11
-6.94827208702859e-11
-6.26666468416374e-11
-5.53887322056105e-11
-4.77501622803087e-11
-3.97600259342478e-11
-3.13645280766383e-11
-2.27234075881878e-11
-1.39388840501068e-11
-5.05747097999533e-12
3.84129061632846e-12
1.26358627840016e-11
2.1263911320958e-11
2.96344939797731e-11
3.76139325901386e-11
4.5180829934824e-11
5.22861651203783e-11
5.88320172914144e-11
6.47644014412261e-11
7.01127689690392e-11
7.47727695335418e-11
7.89077215325654e-11
8.25173413162495e-11
8.64589806925146e-11
8.57341331211003e-11
8.59213950977676e-11
8.58010070069884e-11
8.56363032821759e-11
8.53371917888839e-11
8.49805444726674e-11
8.45719427507164e-11
8.41450146951959e-11
8.3705733612842e-11
8.32664039075978e-11
8.28435955406698e-11
8.24483633794259e-11
8.21100123481569e-11
)
;

boundaryField
{
    dieWall
    {
        type            calculated;
        value           uniform 0;
    }
    outlet
    {
        type            calculated;
        value           nonuniform List<scalar> 6(3.49404800222633e-10 3.78967218497714e-10 3.63366235628425e-10 3.06929772908464e-10 2.12211727816514e-10 8.18457100686311e-11);
    }
    Wire
    {
        type            calculated;
        value           nonuniform List<scalar> 
100
(
-1.63150487318097e-13
-2.96536693859631e-13
-3.70186707586867e-13
-4.38886101863936e-13
-4.82816185259427e-13
-5.21903710296427e-13
-5.58245423211636e-13
-5.98636606522907e-13
-6.35886409113729e-13
-6.63991070130143e-13
-6.91361051855586e-13
-7.18288107098156e-13
-7.52994246133227e-13
-7.77320959075515e-13
-8.00838158869995e-13
-8.24043625334724e-13
-8.53487387341247e-13
-8.80091696338837e-13
-9.03768831128344e-13
-9.27092054365392e-13
-9.5354806984098e-13
-9.86911603895114e-13
-1.01346848363521e-12
-1.04108401323193e-12
-1.06975262673226e-12
-1.11128908066121e-12
-1.14809716531338e-12
-1.18511337175071e-12
-1.22404348584556e-12
-1.27392332809586e-12
-1.33285440381997e-12
-1.38680109734829e-12
-1.44540136853126e-12
-1.51144587669663e-12
-1.61753785804454e-12
-1.70605046658396e-12
-1.80450833500277e-12
-1.91392964304347e-12
-2.07721545308736e-12
-2.25149720421279e-12
-2.42551092633018e-12
-2.61804377279505e-12
-2.86178733878154e-12
-3.20252352730705e-12
-3.51044530759851e-12
-3.85331110506426e-12
-4.23486747897525e-12
-4.86196131662719e-12
-5.41712431327775e-12
-6.02273377712557e-12
-6.6932399891985e-12
-7.64409350305587e-12
-8.74256630898708e-12
-9.79923610087085e-12
-1.09929406345051e-11
-1.25038226445194e-11
-1.58530523447621e-11
-1.96741195839692e-11
-2.44332948364818e-11
-3.01186597527706e-11
-3.98833251085052e-11
-4.76618982242015e-11
-5.52482340517274e-11
-6.28648586520337e-11
-7.32679104769234e-11
-8.14549742349002e-11
-8.83673727976363e-11
-9.48419682783545e-11
-1.02689081279611e-10
-1.07377648485782e-10
-1.10616534268778e-10
-1.13114033395026e-10
-1.14476618683627e-10
-1.13400137180807e-10
-1.11609345349582e-10
-1.0874181178093e-10
-1.02091327434028e-10
-9.63007257477949e-11
-8.99723843612551e-11
-8.08253680169264e-11
-6.99344801763019e-11
-6.13549603255019e-11
-5.26114878443446e-11
-3.91017799501877e-11
-2.94330162067844e-11
-2.13548443234765e-11
-1.25958519642372e-11
-4.0828498018928e-12
-2.44341276007683e-15
3.52538933413304e-12
6.93226915914272e-12
8.2190136947637e-12
9.07264141190941e-12
9.76292074508042e-12
1.0001480694186e-11
9.96676542634857e-12
9.83141087729976e-12
9.20029946054924e-12
8.30547288396377e-12
7.31346757848305e-12
)
;
    }
    inlet
    {
        type            calculated;
        value           nonuniform List<scalar> 6(-9.66986203172204e-10 -2.16585629247903e-10 3.03474836830023e-10 5.6911379687488e-10 5.62723554604825e-10 2.74610907524557e-10);
    }
    back
    {
        type            wedge;
        value           nonuniform List<scalar> 
600
(
-1.11472983727394e-25
-2.87052837429591e-25
-8.32950874361922e-25
-1.11497614273096e-24
-1.09069987896848e-24
-5.80990566802809e-25
-1.10416040510754e-25
-5.5959807842623e-25
-8.82940886986942e-25
-1.09780728532758e-24
-1.03026991161005e-24
-5.77880883430898e-25
1.28846777644454e-25
-4.60802715319751e-25
-1.02981837314376e-24
-1.10946789215885e-24
-1.18787231267796e-24
-6.31678566531905e-25
8.37248001002284e-26
-4.10321897063698e-25
-1.05019883258062e-24
-1.31825043177646e-24
-1.29189319174454e-24
-6.64407056129094e-25
9.14237618899871e-26
-6.05329090662019e-25
-1.0391425734602e-24
-1.22579577207764e-24
-1.19653166737293e-24
-5.60988717868507e-25
6.42694413523855e-26
-4.10638805632423e-25
-1.20272643713078e-24
-1.34788497572132e-24
-1.16812936999701e-24
-7.15006052819676e-25
-2.56136221711852e-26
-4.34273507619231e-25
-1.0281998434147e-24
-1.29969157007322e-24
-1.17906301601683e-24
-7.59468371042505e-25
-1.10294328694606e-25
-5.02120431946829e-25
-1.05401406249774e-24
-1.41500986865186e-24
-1.44567282348777e-24
-6.53756199147544e-25
-1.37387068629805e-25
-5.51191803699254e-25
-1.0680020436571e-24
-1.22154134294889e-24
-1.44328210483304e-24
-6.79236309558176e-25
1.83107558104032e-26
-5.63568939975044e-25
-1.22456881349762e-24
-1.41141369227204e-24
-1.35484408328891e-24
-6.28029312195933e-25
-5.37230855008245e-26
-4.21086251885748e-25
-1.12494924861461e-24
-1.44070225861011e-24
-1.28175432089322e-24
-6.73367845622824e-25
-4.94991828698796e-26
-5.18745569534419e-25
-1.1872804968583e-24
-1.29095897200498e-24
-1.27185468490509e-24
-6.83409632759849e-25
-4.88972313737512e-26
-5.50575955695958e-25
-1.13307875613761e-24
-1.44672540383649e-24
-1.15212719622706e-24
-6.17873004693895e-25
-6.31192670412019e-26
-6.41135920569827e-25
-1.16142398162413e-24
-1.43406532319182e-24
-1.19564215376658e-24
-5.67421382429046e-25
-1.30091330849466e-25
-5.69627901322138e-25
-1.05976127110321e-24
-1.26261683642412e-24
-9.95480514727677e-25
-6.54883189953437e-25
-1.83793825837388e-25
-5.06203088375961e-25
-9.310594263208e-25
-1.17586537494556e-24
-1.07423021703823e-24
-4.57246566247329e-25
-1.20235348543479e-25
-4.631201710259e-25
-8.72559092591779e-25
-1.36451022819947e-24
-1.12835246755259e-24
-6.25457088833068e-25
-1.89183625124813e-25
-4.70823566805055e-25
-8.5732154113208e-25
-1.07060617346164e-24
-1.10762825152943e-24
-4.89231748805445e-25
-2.57491659069467e-25
-4.88938342688737e-25
-8.35311879991602e-25
-9.39880117396153e-25
-9.69871461706248e-25
-3.90987594896505e-25
3.99014812450359e-27
-3.86281317861378e-25
-8.81524776038819e-25
-9.83954738450081e-25
-9.52346054165484e-25
-4.92590801876161e-25
-1.90825232955562e-25
-4.30759064383025e-25
-8.60102382829739e-25
-1.16921663205604e-24
-1.1035291885e-24
-5.67585212291961e-25
-1.55001056295465e-26
-4.40537953780372e-25
-7.73495347514066e-25
-9.8531012109005e-25
-8.48916137077611e-25
-5.13403822321577e-25
-1.89184354967609e-26
-4.14516796458403e-25
-8.54976389185322e-25
-9.04721581558013e-25
-1.09731919083436e-24
-4.19928901666143e-25
-7.20765849486595e-26
-3.91914052400216e-25
-7.55744666121254e-25
-1.07962169752192e-24