/*--------------------------------*- C++ -*----------------------------------*\
| =========                 |                                                 |
| \\      /  F ield         | OpenFOAM: The Open Source CFD Toolbox           |
|  \\    /   O peration     | Version:  4.1                                   |
|   \\  /    A nd           | Web:      www.OpenFOAM.org                      |
|    \\/     M anipulation  |                                                 |
\*---------------------------------------------------------------------------*/
FoamFile
{
    version     2.0;
    format      ascii;
    class       volVectorField;
    location    "0.0093";
    object      U;
}
// * * * * * * * * * * * * * * * * * * * * * * * * * * * * * * * * * * * * * //

dimensions      [0 1 -1 0 0 0 0];

internalField   nonuniform List<vector> 
1536
(
(0.0012939 0.0017318 6.2406e-07)
(-0.00056781 0.0026675 2.4803e-07)
(-0.0028934 0.0029477 9.1835e-08)
(-0.0052032 0.0028203 -2.1368e-07)
(-0.0073024 0.0024778 -1.3706e-07)
(-0.0090648 0.0021169 -4.4223e-07)
(-0.010508 0.0018869 -5.5983e-07)
(-0.011829 0.001924 -4.416e-07)
(-0.01322 0.0019146 -3.9471e-07)
(-0.014337 0.0014404 -1.2527e-07)
(-0.01527 -0.00082212 1.5736e-07)
(-0.012429 -0.0020672 6.6047e-08)
(0.0011431 0.0012588 -0.00041463)
(-0.00065348 0.0018883 -0.00046781)
(-0.0028775 0.0020898 -0.00040917)
(-0.0051061 0.0020522 -0.00035595)
(-0.0071631 0.0018495 -0.00027895)
(-0.0089349 0.0016113 -0.00021732)
(-0.010468 0.0014362 -0.00019638)
(-0.011907 0.0014108 -0.00019185)
(-0.013429 0.0013369 -0.00024115)
(-0.014609 0.00094457 -0.00015623)
(-0.015617 -0.00079995 -3.4674e-05)
(-0.012353 -0.0017906 0.00012165)
(0.00096949 0.00071413 -0.00047926)
(-0.00074404 0.0012338 -0.00064951)
(-0.0028926 0.0014341 -0.00067244)
(-0.0050785 0.0014315 -0.00063883)
(-0.0071238 0.0013013 -0.00055773)
(-0.0089214 0.0011586 -0.00047179)
(-0.010513 0.0010667 -0.00041237)
(-0.012016 0.0010642 -0.00038496)
(-0.01358 0.0010241 -0.00038921)
(-0.014746 0.00067386 -0.00026082)
(-0.015803 -0.00075147 0.00018869)
(-0.012407 -0.001501 0.00050543)
(0.00090123 0.00081346 -0.00050573)
(-0.00077802 0.0011875 -0.00079142)
(-0.002901 0.0013155 -0.00085092)
(-0.0050558 0.0013033 -0.00083128)
(-0.0070904 0.0011873 -0.00074454)
(-0.0088968 0.0010511 -0.00064115)
(-0.010521 0.00095159 -0.00057974)
(-0.012058 0.00091285 -0.00054798)
(-0.013645 0.00087421 -0.00055415)
(-0.014806 0.00058112 -0.00034747)
(-0.015861 -0.00048315 0.00036331)
(-0.012402 -0.0011786 0.00077649)
(0.00090135 0.0005073 -0.00081176)
(-0.00077791 0.00079171 -0.0011869)
(-0.0029008 0.00085095 -0.0013153)
(-0.0050556 0.0008313 -0.0013037)
(-0.0070905 0.00074427 -0.0011871)
(-0.0088969 0.00064078 -0.0010504)
(-0.010521 0.00058004 -0.00095115)
(-0.012058 0.00054848 -0.00091229)
(-0.013645 0.00055464 -0.00087363)
(-0.014806 0.00034773 -0.00058071)
(-0.015861 -0.00036252 0.00048409)
(-0.012402 -0.00077621 0.0011789)
(0.00096954 0.00048071 -0.00071228)
(-0.00074329 0.00064989 -0.001233)
(-0.0028924 0.00067259 -0.0014338)
(-0.0050786 0.0006387 -0.0014314)
(-0.0071239 0.00055767 -0.0013014)
(-0.0089216 0.00047195 -0.0011588)
(-0.010514 0.00041184 -0.0010664)
(-0.012016 0.0003844 -0.0010638)
(-0.01358 0.0003886 -0.001024)
(-0.014746 0.00026024 -0.00067409)
(-0.015803 -0.00018862 0.00075184)
(-0.012406 -0.00050559 0.001501)
(0.0011433 0.00041489 -0.0012561)
(-0.00065257 0.00046725 -0.0018877)
(-0.002877 0.00040878 -0.0020897)
(-0.0051058 0.0003552 -0.0020524)
(-0.0071632 0.00027837 -0.0018498)
(-0.008935 0.00021622 -0.0016113)
(-0.010468 0.00019572 -0.0014365)
(-0.011907 0.00019109 -0.0014111)
(-0.013429 0.00024085 -0.0013372)
(-0.014609 0.0001556 -0.00094517)
(-0.015617 3.468e-05 0.00080015)
(-0.012353 -0.00012204 0.0017903)
(0.0012943 2.0654e-07 -0.0017303)
(-0.00056616 -1.0042e-08 -0.0026663)
(-0.0028929 -5.7192e-07 -0.0029469)
(-0.0052032 -2.1576e-07 -0.0028192)
(-0.0073025 -1.8381e-07 -0.0024777)
(-0.009065 -2.352e-07 -0.0021173)
(-0.010508 -6.52e-07 -0.0018875)
(-0.011829 -5.6356e-07 -0.0019249)
(-0.01322 -3.0663e-07 -0.0019152)
(-0.014337 -3.1876e-07 -0.001441)
(-0.01527 -3.4636e-07 0.00082149)
(-0.012428 -2.0906e-07 0.0020665)
(0.0011433 0.0012604 0.00041585)
(-0.0006528 0.0018901 0.00046811)
(-0.0028765 0.0020917 0.00040957)
(-0.0051052 0.0020547 0.00035612)
(-0.0071625 0.0018521 0.00027849)
(-0.0089343 0.0016135 0.00021631)
(-0.010467 0.0014389 0.00019553)
(-0.011906 0.0014135 0.00019119)
(-0.013429 0.0013392 0.00024073)
(-0.014609 0.00094616 0.00015617)
(-0.015617 -0.00079929 3.4913e-05)
(-0.012353 -0.0017906 -0.00012151)
(0.00075454 0.00091381 6.5444e-07)
(-0.00097959 0.001451 1.52e-07)
(-0.0031188 0.0016716 3.0799e-07)
(-0.0052939 0.0017065 3.1074e-08)
(-0.007319 0.0015916 -1.1076e-07)
(-0.0091216 0.0014326 -5.0195e-07)
(-0.010726 0.0013035 -4.4151e-07)
(-0.012225 0.0012221 -4.2995e-07)
(-0.01375 0.0011388 -3.2274e-07)
(-0.014849 0.00077388 -4.1042e-08)
(-0.015912 -0.00076602 2.5841e-07)
(-0.012341 -0.0015602 1.3718e-07)
(0.00057947 0.00063419 -0.00031033)
(-0.0010697 0.0010542 -0.000388)
(-0.0031396 0.0012347 -0.00040638)
(-0.0052685 0.0012505 -0.00039997)
(-0.0072906 0.0011702 -0.00036414)
(-0.0091193 0.0010597 -0.00031698)
(-0.010773 0.00097575 -0.00026825)
(-0.012327 0.00092001 -0.00023149)
(-0.013873 0.00086042 -0.00019591)
(-0.014936 0.00055948 -0.00014463)
(-0.016043 -0.00061412 0.00011351)
(-0.01241 -0.00126 0.00029871)
(0.000508 0.00066262 -0.00028084)
(-0.0011109 0.00096713 -0.00047332)
(-0.0031507 0.0010741 -0.00054772)
(-0.0052614 0.0010848 -0.0005423)
(-0.0072684 0.0010137 -0.00049602)
(-0.0091035 0.00091343 -0.00043786)
(-0.010781 0.00082697 -0.0003883)
(-0.012364 0.00075036 -0.00034596)
(-0.013923 0.0006949 -0.00033002)
(-0.014972 0.0004569 -0.00020885)
(-0.016074 -0.00040269 0.00031953)
(-0.012404 -0.00094588 0.00057886)
(0.00050813 0.00028241 -0.0006609)
(-0.0011107 0.00047361 -0.00096652)
(-0.0031506 0.00054759 -0.0010735)
(-0.0052612 0.00054246 -0.0010847)
(-0.0072682 0.00049579 -0.0010137)
(-0.0091036 0.00043714 -0.00091308)
(-0.010781 0.00038791 -0.0008272)
(-0.012364 0.00034556 -0.00075063)
(-0.013923 0.0003296 -0.00069513)
(-0.014972 0.00020837 -0.00045723)
(-0.016074 -0.00031973 0.00040282)
(-0.012405 -0.00057904 0.00094586)
(0.00057983 0.00031056 -0.00063303)
(-0.001069 0.00038836 -0.0010536)
(-0.0031396 0.00040687 -0.0012345)
(-0.0052685 0.00039982 -0.0012505)
(-0.0072907 0.00036414 -0.00117)
(-0.0091191 0.00031703 -0.0010598)
(-0.010773 0.00026727 -0.00097566)
(-0.012327 0.00023025 -0.00091999)
(-0.013873 0.00019482 -0.00086046)
(-0.014936 0.00014367 -0.00055965)
(-0.016044 -0.00011421 0.00061447)
(-0.012409 -0.00029922 0.00126)
(0.00075545 -2.0677e-07 -0.00091171)
(-0.00097924 -3.162e-07 -0.0014502)
(-0.0031184 -8.9018e-07 -0.0016713)
(-0.0052936 -6.5603e-07 -0.0017066)
(-0.0073188 -7.2283e-07 -0.0015919)
(-0.0091214 -9.5035e-07 -0.001433)
(-0.010726 -5.5977e-07 -0.0013037)
(-0.012225 -6.5265e-07 -0.0012224)
(-0.01375 -5.5585e-07 -0.0011393)
(-0.014849 -6.4628e-07 -0.00077443)
(-0.015912 -6.1957e-07 0.00076649)
(-0.012341 -3.7035e-07 0.0015602)
(0.0011447 -0.00041501 -0.0012586)
(-0.00065133 -0.00046808 -0.0018898)
(-0.0028761 -0.00041005 -0.0020919)
(-0.005105 -0.0003563 -0.002055)
(-0.0071623 -0.00027924 -0.0018528)
(-0.0089341 -0.00021729 -0.0016138)
(-0.010467 -0.00019675 -0.0014389)
(-0.011906 -0.0001925 -0.0014134)
(-0.013429 -0.00024173 -0.0013391)
(-0.01461 -0.00015659 -0.00094635)
(-0.015618 -3.5389e-05 0.00079981)
(-0.012353 0.00012155 0.0017903)
(0.00096978 0.00071598 0.00048058)
(-0.00074343 0.0012353 0.00065055)
(-0.0028919 0.0014353 0.00067332)
(-0.005078 0.0014334 0.00063875)
(-0.0071231 0.0013032 0.00055735)
(-0.0089206 0.0011605 0.00047132)
(-0.010513 0.0010686 0.00041171)
(-0.012016 0.0010662 0.00038459)
(-0.013581 0.0010257 0.000389)
(-0.014747 0.00067507 0.00026054)
(-0.015804 -0.00075082 -0.00018883)
(-0.012406 -0.0015009 -0.00050563)
(0.00058049 0.00063628 0.00031228)
(-0.0010685 0.0010562 0.00038926)
(-0.0031386 0.001237 0.00040734)
(-0.0052674 0.0012524 0.00040058)
(-0.0072892 0.0011716 0.00036458)
(-0.009118 0.0010614 0.00031713)
(-0.010773 0.00097766 0.00026804)
(-0.012327 0.00092188 0.00023143)
(-0.013874 0.00086209 0.00019595)
(-0.014936 0.00056065 0.00014474)
(-0.016044 -0.00061354 -0.00011328)
(-0.012409 -0.0012598 -0.00029863)
(0.00047752 0.00030671 8.121e-07)
(-0.0011186 0.00061933 7.6146e-07)
(-0.003119 0.00076057 4.3896e-07)
(-0.0052149 0.0007641 3.7574e-07)
(-0.0072371 0.00071497 4.1345e-07)
(-0.0090966 0.0006618 6.198e-07)
(-0.010808 0.00062996 1.5405e-07)
(-0.012411 0.00062186 2.1691e-07)
(-0.013981 0.00058403 6.6145e-08)
(-0.015031 0.00035139 1.1752e-07)
(-0.016189 -0.00049615 1.0564e-07)
(-0.012467 -0.00095249 -2.2256e-08)
(0.00041929 0.00030258 4.474e-05)
(-0.0011478 0.00050061 -6.4145e-05)
(-0.0031213 0.0005969 -0.00010845)
(-0.0051914 0.00060239 -0.00010869)
(-0.0072057 0.00056532 -0.00010129)
(-0.0090741 0.00052258 -9.0357e-05)
(-0.01081 0.00048876 -9.4683e-05)
(-0.012451 0.0004645 -0.00010281)
(-0.014039 0.00044068 -0.00010539)
(-0.01507 0.00027685 -4.7477e-05)
(-0.016219 -0.00030835 0.00020819)
(-0.012473 -0.00065616 0.00029063)
(0.00041943 -4.3727e-05 -0.00030142)
(-0.0011475 6.4124e-05 -0.00050027)
(-0.0031212 0.00010816 -0.00059672)
(-0.0051914 0.00010839 -0.00060251)
(-0.0072055 0.0001011 -0.0005657)
(-0.0090742 9.0017e-05 -0.00052275)
(-0.01081 9.4323e-05 -0.00048894)
(-0.012451 0.00010253 -0.00046465)
(-0.014039 0.00010521 -0.00044078)
(-0.01507 4.735e-05 -0.00027708)
(-0.016219 -0.00020803 0.00030849)
(-0.012473 -0.00029067 0.0006561)
(0.00047792 -8.2724e-07 -0.00030492)
(-0.0011183 -7.2184e-07 -0.00061869)
(-0.0031189 -4.5653e-07 -0.00076026)
(-0.0052148 -1.0713e-06 -0.0007639)
(-0.0072373 -1.1418e-06 -0.0007148)
(-0.0090965 -9.2812e-07 -0.00066151)
(-0.010808 -9.4282e-07 -0.00063009)
(-0.012411 -9.658e-07 -0.00062207)
(-0.013981 -6.2695e-07 -0.00058431)
(-0.015031 -6.6133e-07 -0.00035173)
(-0.016189 -3.4868e-07 0.0004963)
(-0.012466 -2.3126e-07 0.00095243)
(0.00058108 -0.00031092 -0.00063484)
(-0.0010678 -0.0003897 -0.0010556)
(-0.0031382 -0.00040832 -0.0012369)
(-0.0052671 -0.00040135 -0.0012523)
(-0.0072891 -0.00036524 -0.0011718)
(-0.009118 -0.00031836 -0.0010623)
(-0.010773 -0.00026891 -0.00097806)
(-0.012327 -0.00023215 -0.00092236)
(-0.013874 -0.00019628 -0.00086239)
(-0.014936 -0.00014495 -0.0005611)
(-0.016044 0.0001134 0.00061368)
(-0.012409 0.00029874 0.0012598)
(0.00097135 -0.00048096 -0.00071371)
(-0.00074196 -0.00065131 -0.0012345)
(-0.0028915 -0.00067427 -0.0014352)
(-0.005078 -0.00063987 -0.001433)
(-0.0071229 -0.00055788 -0.0013037)
(-0.0089204 -0.00047307 -0.0011601)
(-0.010513 -0.00041319 -0.0010686)
(-0.012016 -0.00038588 -0.0010662)
(-0.013581 -0.00038944 -0.0010258)
(-0.014747 -0.00026092 -0.00067534)
(-0.015804 0.00018848 0.00075121)
(-0.012406 0.00050542 0.0015009)
(0.00090042 0.00081334 0.00050648)
(-0.00077814 0.0011873 0.00079172)
(-0.0029012 0.0013151 0.00085167)
(-0.0050564 0.0013035 0.00083076)
(-0.0070908 0.0011869 0.00074347)
(-0.0088972 0.001051 0.00063947)
(-0.010521 0.00095182 0.00057838)
(-0.012058 0.00091301 0.0005468)
(-0.013646 0.00087456 0.00055304)
(-0.014807 0.00058119 0.0003468)
(-0.015862 -0.00048304 -0.0003636)
(-0.012402 -0.0011785 -0.00077671)
(0.00050777 0.00066328 0.00028252)
(-0.0011108 0.00096776 0.00047428)
(-0.0031505 0.0010755 0.000549)
(-0.0052608 0.0010854 0.0005425)
(-0.007268 0.0010141 0.00049582)
(-0.0091034 0.00091371 0.00043672)
(-0.010781 0.00082779 0.00038749)
(-0.012364 0.00075114 0.00034524)
(-0.013924 0.00069571 0.00032975)
(-0.014972 0.00045743 0.00020869)
(-0.016074 -0.00040228 -0.00031948)
(-0.012404 -0.00094566 -0.0005789)
(0.00041916 0.00030299 -4.3077e-05)
(-0.0011478 0.00050092 6.5448e-05)
(-0.0031211 0.00059708 0.00010925)
(-0.005191 0.00060295 0.0001092)
(-0.0072055 0.00056637 0.00010173)
(-0.0090742 0.00052347 9.0376e-05)
(-0.01081 0.00048951 9.4403e-05)
(-0.012451 0.00046524 0.00010269)
(-0.014039 0.00044139 0.00010529)
(-0.015069 0.00027726 4.7549e-05)
(-0.016217 -0.00030811 -0.00020814)
(-0.012472 -0.00065604 -0.00029074)
(0.00036632 0.00033378 7.6517e-07)
(-0.0011681 0.00044023 5.6905e-07)
(-0.0031131 0.00047208 2.4999e-07)
(-0.0051664 0.00049115 1.8734e-07)
(-0.0071658 0.00047187 1.2318e-08)
(-0.0090431 0.00042943 -1.2341e-07)
(-0.010806 0.000395 -3.3321e-07)
(-0.01249 0.00035296 -2.8949e-07)
(-0.014104 0.0003296 -1.5065e-07)
(-0.015115 0.00022295 -3.5702e-08)
(-0.016247 -0.00010237 -4.0973e-08)
(-0.012483 -0.00036074 -1.1938e-07)
(0.00036645 -1.8225e-07 -0.00033301)
(-0.0011679 -6.97e-07 -0.00044015)
(-0.003113 -5.0506e-07 -0.00047218)
(-0.0051664 -6.0682e-07 -0.00049151)
(-0.0071656 -3.6476e-07 -0.00047246)
(-0.0090431 -4.1299e-07 -0.00043003)
(-0.010806 -3.9774e-07 -0.00039571)
(-0.01249 -3.4666e-07 -0.00035365)
(-0.014104 -2.6753e-07 -0.00033016)
(-0.015115 -3.5415e-07 -0.00022346)
(-0.016247 -1.5434e-07 0.0001021)
(-0.012483 -1.0223e-07 0.00036057)
(0.00041992 4.3313e-05 -0.00030171)
(-0.0011475 -6.5395e-05 -0.00050049)
(-0.0031209 -0.00010934 -0.00059685)
(-0.0051908 -0.00010976 -0.00060314)
(-0.0072055 -0.00010218 -0.00056629)
(-0.0090739 -9.0779e-05 -0.00052335)
(-0.010809 -9.5254e-05 -0.00048978)
(-0.012451 -0.00010367 -0.00046551)
(-0.014039 -0.00010609 -0.00044156)
(-0.01507 -4.8213e-05 -0.00027752)
(-0.016218 0.00020761 0.00030828)
(-0.012473 0.00029036 0.00065603)
(0.00050919 -0.00028206 -0.00066197)
(-0.00111 -0.00047487 -0.00096759)
(-0.00315 -0.0005499 -0.0010757)
(-0.0052606 -0.00054336 -0.0010859)
(-0.0072678 -0.00049576 -0.0010143)
(-0.0091031 -0.00043852 -0.00091522)
(-0.010781 -0.00038851 -0.00082865)
(-0.012364 -0.00034618 -0.00075211)
(-0.013924 -0.0003303 -0.00069643)
(-0.014973 -0.000209 -0.0004581)
(-0.016074 0.00031938 0.00040223)
(-0.012404 0.00057878 0.00094565)
(0.00090269 -0.0005076 -0.00081179)
(-0.00077699 -0.00079297 -0.001187)
(-0.0029008 -0.00085317 -0.0013152)
(-0.0050564 -0.00083225 -0.0013038)
(-0.0070903 -0.00074446 -0.0011877)
(-0.0088965 -0.00064178 -0.0010513)
(-0.010521 -0.00058027 -0.00095213)
(-0.012058 -0.00054875 -0.00091317)
(-0.013646 -0.00055461 -0.00087442)
(-0.014807 -0.00034805 -0.00058119)
(-0.015862 0.0003626 0.00048367)
(-0.012402 0.00077612 0.0011788)
(0.00090043 0.00050686 0.00081295)
(-0.00077804 0.0007913 0.0011877)
(-0.0029014 0.00085144 0.0013152)
(-0.0050566 0.00083059 0.0013036)
(-0.0070909 0.00074386 0.0011864)
(-0.0088973 0.00064014 0.0010497)
(-0.010522 0.00057951 0.00095028)
(-0.012058 0.00054819 0.0009116)
(-0.013646 0.00055408 0.00087295)
(-0.014807 0.00034751 0.00058015)
(-0.015862 -0.00036254 -0.00048435)
(-0.012401 -0.00077638 -0.001179)
(0.00050784 0.00028262 0.00066319)
(-0.0011107 0.00047362 0.00096805)
(-0.0031506 0.00054855 0.0010752)
(-0.0052611 0.00054245 0.0010853)
(-0.0072679 0.0004961 0.0010139)
(-0.0091034 0.00043718 0.00091303)
(-0.010781 0.00038798 0.00082699)
(-0.012364 0.00034567 0.00075061)
(-0.013924 0.00032988 0.00069488)
(-0.014972 0.00020864 0.00045717)
(-0.016074 -0.00031939 -0.00040284)
(-0.012404 -0.00057894 -0.0009458)
(0.00041927 -4.35e-05 0.00030317)
(-0.0011475 6.4499e-05 0.0005015)
(-0.0031213 0.00010857 0.00059741)
(-0.0051915 0.00010874 0.00060307)
(-0.0072055 0.00010181 0.00056618)
(-0.0090741 9.0699e-05 0.00052317)
(-0.01081 9.489e-05 0.00048879)
(-0.012451 0.0001031 0.00046467)
(-0.014039 0.0001056 0.00044072)
(-0.015069 4.778e-05 0.00027695)
(-0.016217 -0.00020772 -0.0003086)
(-0.012472 -0.00029069 -0.00065613)
(0.0003664 -2.0884e-08 0.00033431)
(-0.0011679 -5.1966e-07 0.00044117)
(-0.0031132 -3.1237e-07 0.00047282)
(-0.0051668 -4.154e-07 0.00049149)
(-0.0071658 -1.7697e-07 0.00047189)
(-0.0090431 -2.6325e-07 0.00042926)
(-0.010807 -2.5562e-07 0.00039479)
(-0.01249 -3.2832e-07 0.00035302)
(-0.014104 -1.4707e-07 0.00032944)
(-0.015115 -1.3757e-07 0.00022307)
(-0.016247 4.713e-08 -0.00010243)
(-0.012483 -1.7592e-07 -0.00036073)
(0.00036651 -0.00033413 6.7766e-07)
(-0.0011677 -0.00044153 4.9542e-07)
(-0.0031132 -0.00047336 1.4728e-07)
(-0.0051668 -0.0004921 4.4972e-08)
(-0.0071656 -0.00047263 -8.6358e-08)
(-0.0090431 -0.00042993 -1.8327e-07)
(-0.010807 -0.00039546 -3.7749e-07)
(-0.01249 -0.00035365 -2.8201e-07)
(-0.014104 -0.00032995 -2.2467e-07)
(-0.015115 -0.00022346 -1.7678e-07)
(-0.016247 0.00010222 -1.7532e-07)
(-0.012483 0.00036046 -7.862e-08)
(0.00041966 -0.00030242 4.4364e-05)
(-0.0011476 -0.00050125 -6.4099e-05)
(-0.0031214 -0.00059732 -0.00010839)
(-0.0051917 -0.00060323 -0.00010886)
(-0.007206 -0.00056608 -0.00010179)
(-0.0090743 -0.00052305 -9.0582e-05)
(-0.01081 -0.00048896 -9.5146e-05)
(-0.012451 -0.00046487 -0.00010324)
(-0.014039 -0.00044087 -0.00010572)
(-0.01507 -0.00027723 -4.7753e-05)
(-0.016218 0.00030832 0.00020795)
(-0.012473 0.00065582 0.00029064)
(0.00050856 -0.00066229 -0.000281)
(-0.0011105 -0.00096796 -0.00047341)
(-0.0031509 -0.0010755 -0.00054882)
(-0.0052617 -0.0010853 -0.0005426)
(-0.0072685 -0.0010135 -0.00049544)
(-0.0091038 -0.00091367 -0.00043843)
(-0.010782 -0.00082687 -0.00038865)
(-0.012364 -0.00075052 -0.00034632)
(-0.013923 -0.00069468 -0.0003303)
(-0.014972 -0.00045715 -0.00020913)
(-0.016074 0.00040269 0.00031928)
(-0.012404 0.00094561 0.00057883)
(0.00090243 -0.00081315 -0.00050581)
(-0.00077707 -0.0011882 -0.0007912)
(-0.0029012 -0.0013158 -0.00085174)
(-0.0050571 -0.0013041 -0.00083114)
(-0.0070907 -0.0011877 -0.00074391)
(-0.0088969 -0.0010507 -0.00064137)
(-0.010522 -0.0009513 -0.00058038)
(-0.012058 -0.00091306 -0.00054872)
(-0.013645 -0.00087401 -0.00055428)
(-0.014806 -0.00058134 -0.00034767)
(-0.015862 0.0004833 0.00036302)
(-0.012402 0.0011783 0.00077655)
(0.0009694 0.00048078 0.00071481)
(-0.00074317 0.00065012 0.0012351)
(-0.0028919 0.00067359 0.0014348)
(-0.0050781 0.00063874 0.0014332)
(-0.0071236 0.00055744 0.0013024)
(-0.008921 0.00047157 0.0011599)
(-0.010513 0.00041194 0.0010674)
(-0.012016 0.00038449 0.0010647)
(-0.013581 0.00038908 0.0010251)
(-0.014747 0.00026051 0.00067447)
(-0.015803 -0.00018842 -0.00075161)
(-0.012406 -0.00050564 -0.0015011)
(0.00058041 0.00031158 0.00063561)
(-0.0010685 0.00038888 0.0010562)
(-0.0031387 0.00040751 0.0012369)
(-0.0052673 0.00040059 0.0012521)
(-0.0072897 0.00036453 0.0011709)
(-0.0091182 0.00031694 0.0010605)
(-0.010772 0.00026782 0.00097675)
(-0.012327 0.00023078 0.00092087)
(-0.013874 0.00019559 0.00086154)
(-0.014936 0.00014432 0.00056025)
(-0.016043 -0.00011361 -0.00061417)
(-0.012409 -0.00029894 -0.00126)
(0.00047731 -2.1853e-08 0.00030626)
(-0.0011189 1.0294e-07 0.00061928)
(-0.0031191 3.4177e-07 0.00075981)
(-0.0052148 -1.5396e-07 0.00076396)
(-0.0072374 -1.8393e-07 0.00071498)
(-0.0090969 1.9244e-08 0.00066124)
(-0.010808 -1.0172e-07 0.00062941)
(-0.012411 -1.6863e-07 0.00062132)
(-0.013981 6.3711e-08 0.00058356)
(-0.015031 7.065e-08 0.00035108)
(-0.016188 1.4643e-07 -0.00049662)
(-0.012466 -6.5498e-08 -0.00095256)
(0.00041922 4.3532e-05 0.00030253)
(-0.0011481 -6.5259e-05 0.00050069)
(-0.0031215 -0.00010925 0.00059656)
(-0.0051915 -0.00010945 0.0006026)
(-0.0072061 -0.00010211 0.00056543)
(-0.0090744 -9.0936e-05 0.00052256)
(-0.01081 -9.5299e-05 0.00048836)
(-0.012451 -0.00010367 0.00046412)
(-0.014039 -0.00010584 0.00044033)
(-0.01507 -4.8008e-05 0.00027657)
(-0.016218 0.00020778 -0.00030877)
(-0.012473 0.00029047 -0.00065623)
(0.00041966 -0.00030309 -4.2893e-05)
(-0.0011475 -0.00050174 6.5097e-05)
(-0.0031212 -0.00059769 0.00010885)
(-0.0051911 -0.00060391 0.00010897)
(-0.0072055 -0.00056712 0.00010169)
(-0.0090742 -0.00052397 9.0181e-05)
(-0.01081 -0.00048979 9.4497e-05)
(-0.012451 -0.00046548 0.0001028)
(-0.014039 -0.00044147 0.00010514)
(-0.01507 -0.00027764 4.7329e-05)
(-0.016218 0.00030802 -0.00020827)
(-0.012473 0.00065585 -0.00029075)
(0.00047788 -0.00030615 8.7708e-07)
(-0.0011186 -0.00061982 8.3482e-07)
(-0.003119 -0.0007606 6.4189e-07)
(-0.0052146 -0.00076486 3.791e-07)
(-0.0072375 -0.00071581 4.6928e-07)
(-0.0090967 -0.00066178 6.8803e-07)
(-0.010808 -0.00063021 1.7426e-07)
(-0.012411 -0.00062225 1.7594e-07)
(-0.013981 -0.00058427 4.8979e-08)
(-0.015031 -0.00035179 4.691e-08)
(-0.016189 0.00049602 4.4983e-08)
(-0.012467 0.00095219 -1.4735e-08)
(0.00057991 -0.0006346 -0.00030941)
(-0.0010693 -0.0010552 -0.00038807)
(-0.0031397 -0.0012361 -0.00040698)
(-0.0052684 -0.0012511 -0.00040011)
(-0.007291 -0.00117 -0.00036419)
(-0.0091196 -0.0010601 -0.00031749)
(-0.010773 -0.00097558 -0.00026806)
(-0.012327 -0.00091994 -0.00023152)
(-0.013873 -0.00086056 -0.00019615)
(-0.014936 -0.00055976 -0.00014481)
(-0.016044 0.00061394 0.00011337)
(-0.01241 0.0012595 0.00029874)
(0.00097051 -0.00071371 -0.00047905)
(-0.00074329 -0.0012344 -0.00064927)
(-0.0028926 -0.0014343 -0.00067316)
(-0.0050789 -0.0014325 -0.00063863)
(-0.0071243 -0.0013026 -0.00055658)
(-0.0089217 -0.0011594 -0.00047209)
(-0.010514 -0.001067 -0.00041246)
(-0.012016 -0.0010644 -0.00038509)
(-0.01358 -0.0010246 -0.00038924)
(-0.014746 -0.00067447 -0.00026088)
(-0.015803 0.00075101 0.00018877)
(-0.012407 0.0015004 0.00050567)
(0.0011432 0.00041524 0.0012597)
(-0.00065252 0.00046684 0.0018907)
(-0.0028767 0.0004082 0.0020921)
(-0.0051054 0.00035548 0.0020545)
(-0.0071627 0.00027826 0.0018515)
(-0.0089345 0.00021643 0.0016123)
(-0.010467 0.00019561 0.0014377)
(-0.011906 0.00019104 0.0014125)
(-0.013429 0.00024064 0.0013382)
(-0.01461 0.00015587 0.00094562)
(-0.015617 3.5245e-05 -0.00080015)
(-0.012352 -0.00012166 -0.0017906)
(0.00075454 -1.2136e-07 0.00091287)
(-0.00097948 -3.7805e-07 0.0014507)
(-0.0031191 -8.5876e-07 0.0016718)
(-0.0052943 -6.428e-07 0.0017064)
(-0.007319 -7.0991e-07 0.0015908)
(-0.0091215 -9.7192e-07 0.0014319)
(-0.010726 -7.2224e-07 0.0013024)
(-0.012225 -7.3185e-07 0.0012211)
(-0.013749 -5.6251e-07 0.0011381)
(-0.014849 -3.153e-07 0.00077363)
(-0.015912 1.5447e-07 -0.00076702)
(-0.012341 6.7276e-08 -0.0015603)
(0.00057941 -0.00031114 0.00063365)
(-0.0010697 -0.00038923 0.0010544)
(-0.0031398 -0.00040807 0.0012354)
(-0.0052686 -0.000401 0.0012499)
(-0.0072908 -0.00036475 0.0011692)
(-0.0091195 -0.00031724 0.0010587)
(-0.010774 -0.00026835 0.00097476)
(-0.012327 -0.00023152 0.0009191)
(-0.013873 -0.0001958 0.00085975)
(-0.014936 -0.00014441 0.00055901)
(-0.016043 0.00011384 -0.00061478)
(-0.012409 0.00029887 -0.0012601)
(0.00050788 -0.00028249 0.00066242)
(-0.001111 -0.00047503 0.00096736)
(-0.003151 -0.0005504 0.0010751)
(-0.0052617 -0.00054347 0.0010847)
(-0.0072687 -0.00049603 0.0010127)
(-0.0091038 -0.0004382 0.0009127)
(-0.010782 -0.00038839 0.00082622)
(-0.012364 -0.00034611 0.00074988)
(-0.013923 -0.00033019 0.0006944)
(-0.014972 -0.000209 0.00045666)
(-0.016074 0.00031945 -0.00040317)
(-0.012404 0.00057873 -0.00094599)
(0.00050861 -0.00066365 0.00028281)
(-0.0011102 -0.00096934 0.00047443)
(-0.0031504 -0.0010772 0.00054945)
(-0.005261 -0.0010867 0.00054278)
(-0.0072678 -0.0010149 0.00049508)
(-0.0091034 -0.00091444 0.00043708)
(-0.010781 -0.00082823 0.0003878)
(-0.012364 -0.00075172 0.00034547)
(-0.013924 -0.00069591 0.00032975)
(-0.014972 -0.000458 0.00020856)
(-0.016074 0.00040222 -0.00031984)
(-0.012404 0.00094543 -0.00057908)
(0.00058083 -0.00063691 0.00031179)
(-0.001068 -0.0010575 0.00038973)
(-0.0031386 -0.0012388 0.00040831)
(-0.0052674 -0.0012535 0.00040107)
(-0.0072896 -0.0011722 0.00036511)
(-0.0091183 -0.0010623 0.0003179)
(-0.010772 -0.00097791 0.00026817)
(-0.012327 -0.00092222 0.00023162)
(-0.013874 -0.0008625 0.0001961)
(-0.014936 -0.00056103 0.0001447)
(-0.016044 0.00061353 -0.00011356)
(-0.012409 0.0012594 -0.00029887)
(0.00075548 -0.00091412 9.0537e-07)
(-0.00097924 -0.0014524 5.1911e-07)
(-0.0031189 -0.0016734 5.4226e-07)
(-0.0052944 -0.0017078 2.4884e-07)
(-0.0073191 -0.0015925 1.854e-08)
(-0.0091217 -0.0014337 -4.3224e-07)
(-0.010726 -0.0013038 -2.025e-07)
(-0.012225 -0.0012224 -2.631e-07)
(-0.013749 -0.0011391 -2.9101e-07)
(-0.014849 -0.00077445 -1.5431e-07)
(-0.015912 0.00076583 -2.2219e-07)
(-0.012342 0.0015595 -4.095e-08)
(0.0011438 -0.0012585 -0.00041343)
(-0.00065255 -0.0018907 -0.00046641)
(-0.0028775 -0.0020918 -0.00040826)
(-0.0051063 -0.0020545 -0.00035541)
(-0.0071635 -0.001852 -0.0002788)
(-0.0089355 -0.0016125 -0.00021707)
(-0.010468 -0.001437 -0.0001969)
(-0.011907 -0.0014121 -0.00019245)
(-0.013429 -0.0013378 -0.00024157)
(-0.014609 -0.00094566 -0.00015654)
(-0.015617 0.00079952 -3.4945e-05)
(-0.012353 0.0017899 0.00012204)
(0.0012931 -3.8088e-08 0.0017309)
(-0.00056697 -4.4236e-07 0.0026669)
(-0.0028938 -8.3147e-07 0.0029467)
(-0.005204 -6.7076e-07 0.0028189)
(-0.0073035 -5.6825e-07 0.0024765)
(-0.0090655 -5.8957e-07 0.0021156)
(-0.010508 -9.075e-07 0.0018861)
(-0.011829 -8.9323e-07 0.0019232)
(-0.013219 -4.8698e-07 0.0019143)
(-0.014337 -3.4358e-07 0.00144)
(-0.01527 1.4792e-07 -0.00082177)
(-0.012428 -4.9264e-08 -0.0020668)
(0.0011428 -0.00041557 0.001258)
(-0.00065306 -0.0004677 0.0018885)
(-0.0028775 -0.00040955 0.0020897)
(-0.0051064 -0.00035647 0.0020525)
(-0.0071637 -0.00027952 0.0018493)
(-0.0089353 -0.00021762 0.0016098)
(-0.010467 -0.00019674 0.001435)
(-0.011907 -0.00019247 0.0014099)
(-0.013429 -0.0002412 0.001336)
(-0.014609 -0.00015622 0.00094421)
(-0.015617 -3.4947e-05 -0.00080082)
(-0.012352 0.00012161 -0.0017906)
(0.00096935 -0.00048088 0.00071296)
(-0.00074358 -0.00065124 0.0012333)
(-0.0028929 -0.00067455 0.0014332)
(-0.0050791 -0.00063955 0.0014313)
(-0.0071244 -0.00055742 0.0013014)
(-0.0089218 -0.00047176 0.0011578)
(-0.010513 -0.00041235 0.0010658)
(-0.012016 -0.00038519 0.0010632)
(-0.01358 -0.00038906 0.0010234)
(-0.014746 -0.00026067 0.00067346)
(-0.015803 0.00018857 -0.00075227)
(-0.012406 0.0005053 -0.0015011)
(0.00090144 -0.00050775 0.00081278)
(-0.00077762 -0.00079317 0.0011875)
(-0.0029015 -0.00085338 0.0013152)
(-0.0050573 -0.00083219 0.0013034)
(-0.0070912 -0.00074438 0.0011871)
(-0.008897 -0.00064107 0.0010502)
(-0.010521 -0.00057991 0.00095066)
(-0.012058 -0.00054865 0.00091203)
(-0.013645 -0.00055424 0.00087313)
(-0.014806 -0.00034805 0.00058014)
(-0.015862 0.00036259 -0.00048437)
(-0.012402 0.00077602 -0.001179)
(0.00090181 -0.00081378 0.0005074)
(-0.00077731 -0.0011888 0.00079239)
(-0.0029013 -0.0013165 0.00085257)
(-0.005057 -0.001305 0.00083138)
(-0.007091 -0.0011885 0.00074347)
(-0.008897 -0.0010516 0.00064006)
(-0.010521 -0.00095228 0.00057963)
(-0.012058 -0.00091371 0.00054824)
(-0.013646 -0.00087477 0.00055377)
(-0.014807 -0.00058176 0.00034728)
(-0.015862 0.00048302 -0.00036352)
(-0.012402 0.0011782 -0.00077669)
(0.00097092 -0.00071578 0.00048124)
(-0.00074262 -0.0012363 0.00065111)
(-0.0028919 -0.0014362 0.0006745)
(-0.0050782 -0.0014347 0.00063951)
(-0.0071235 -0.0013049 0.00055746)
(-0.008921 -0.0011615 0.00047244)
(-0.010513 -0.0010692 0.00041244)
(-0.012016 -0.0010668 0.00038527)
(-0.013581 -0.0010263 0.00038937)
(-0.014747 -0.00067568 0.00026078)
(-0.015804 0.00075075 -0.0001889)
(-0.012406 0.0015004 -0.00050579)
(0.0011443 -0.0012602 0.0004154)
(-0.00065198 -0.0018924 0.00046757)
(-0.0028766 -0.0020935 0.0004093)
(-0.0051054 -0.0020567 0.00035615)
(-0.007163 -0.0018541 0.00027918)
(-0.0089347 -0.0016146 0.00021661)
(-0.010467 -0.0014397 0.00019678)
(-0.011906 -0.0014147 0.00019227)
(-0.013429 -0.00134 0.00024124)
(-0.01461 -0.00094719 0.0001563)
(-0.015617 0.00079889 3.4588e-05)
(-0.012353 0.0017898 -0.00012211)
(0.0012952 -0.001732 9.555e-07)
(-0.00056649 -0.0026695 5.9695e-07)
(-0.0028937 -0.0029495 3.8371e-07)
(-0.0052038 -0.0028223 3.7441e-07)
(-0.0073033 -0.0024799 2.3669e-07)
(-0.0090658 -0.0021188 -2.6798e-07)
(-0.010508 -0.0018885 -3.237e-07)
(-0.011829 -0.0019256 -8.2879e-08)
(-0.01322 -0.0019163 -3.423e-07)
(-0.014337 -0.0014418 -1.2725e-07)
(-0.01527 0.00082127 -2.1462e-07)
(-0.012429 0.0020666 -3.6241e-08)
(-0.012295 -0.0029968 0.00026514)
(-0.013596 -0.0015579 0.00016823)
(-0.012554 0.0016675 -0.00023522)
(-0.011926 0.001833 -0.00025367)
(-0.011091 0.0020304 -0.00022743)
(-0.010182 0.0023274 -0.00026132)
(-0.0089795 0.0029208 -0.00038838)
(-0.0072735 0.0035982 -0.00055803)
(-0.0050713 0.004068 -0.00069911)
(-0.0025379 0.0040925 -0.00077304)
(0.00019386 0.0034593 -0.00071466)
(0.0025181 0.0019805 -0.00049889)
(-0.011848 -0.0027314 0.00065297)
(-0.013569 -0.0013979 0.0003836)
(-0.012265 0.0015958 -0.00033216)
(-0.011594 0.0018775 -0.00045003)
(-0.010678 0.0020605 -0.00055282)
(-0.0097123 0.0023133 -0.00059232)
(-0.0084399 0.0028247 -0.00069376)
(-0.0067246 0.0034213 -0.00080709)
(-0.0045918 0.0038394 -0.00088527)
(-0.0021838 0.0038972 -0.00088928)
(0.00037144 0.00337 -0.00076648)
(0.0025298 0.0021037 -0.00050786)
(-0.011801 -0.0024444 0.0013168)
(-0.013783 -0.0012733 0.00076511)
(-0.012523 0.0014108 -0.00069492)
(-0.011758 0.0017046 -0.00087665)
(-0.010734 0.0018748 -0.0010075)
(-0.0096769 0.0020618 -0.0010818)
(-0.0083713 0.0024716 -0.0012712)
(-0.0066545 0.0029558 -0.0015007)
(-0.004537 0.0033015 -0.0016523)
(-0.0021628 0.0033468 -0.0016398)
(0.00033662 0.0028982 -0.0013402)
(0.0024169 0.0018031 -0.00072553)
(-0.011793 -0.0021669 0.0016497)
(-0.013902 -0.0011698 0.00085747)
(-0.012559 0.0011785 -0.00096681)
(-0.011785 0.0014649 -0.0012206)
(-0.010727 0.0016207 -0.0013494)
(-0.0096513 0.0017598 -0.001476)
(-0.0083265 0.0020928 -0.0017541)
(-0.0066028 0.0024875 -0.0020876)
(-0.0045038 0.0027636 -0.0023158)
(-0.0021524 0.0027803 -0.0023532)
(0.00030237 0.002373 -0.0020178)
(0.002338 0.0014148 -0.0012861)
(-0.011793 -0.0016501 0.0021664)
(-0.013902 -0.0008583 0.0011691)
(-0.012559 0.00096598 -0.0011794)
(-0.011785 0.0012197 -0.0014656)
(-0.010726 0.0013487 -0.0016212)
(-0.0096511 0.0014756 -0.00176)
(-0.0083264 0.0017539 -0.0020925)
(-0.0066031 0.0020877 -0.0024869)
(-0.0045037 0.0023164 -0.0027627)
(-0.0021519 0.0023541 -0.002779)
(0.00030255 0.002019 -0.0023711)
(0.002338 0.0012879 -0.0014125)
(-0.011802 -0.001317 0.0024439)
(-0.013783 -0.00076497 0.0012722)
(-0.012523 0.0006946 -0.0014118)
(-0.011758 0.00087627 -0.0017056)
(-0.010734 0.0010073 -0.0018756)
(-0.0096767 0.0010814 -0.0020621)
(-0.008371 0.0012713 -0.0024716)
(-0.0066537 0.0015008 -0.0029552)
(-0.0045365 0.0016528 -0.0033003)
(-0.0021627 0.0016402 -0.0033456)
(0.00033712 0.001341 -0.0028969)