/*--------------------------------*- C++ -*----------------------------------*\
| =========                 |                                                 |
| \\      /  F ield         | OpenFOAM: The Open Source CFD Toolbox           |
|  \\    /   O peration     | Version:  4.1                                   |
|   \\  /    A nd           | Web:      www.OpenFOAM.org                      |
|    \\/     M anipulation  |                                                 |
\*---------------------------------------------------------------------------*/
FoamFile
{
    version     2.0;
    format      ascii;
    class       pointVectorField;
    location    "0.0000";
    object      pointDisplacement_Next;
}
// * * * * * * * * * * * * * * * * * * * * * * * * * * * * * * * * * * * * * //

dimensions      [0 1 0 0 0 0 0];

internalField   uniform (0 0 0);

boundaryField
{
    inlet
    {
        type            fixedValue;
        value           nonuniform 0();
    }
    outlet
    {
        type            fixedValue;
        value           uniform (0 0 0);
    }
    mantle
    {
        type            fixedValue;
        value           nonuniform List<vector> 
416
(
(1.1405e-08 1.5471e-06 -1.0567e-13)
(1.321e-08 1.4582e-06 5.8348e-12)
(1.3325e-08 1.4287e-06 -2.8335e-07)
(1.1598e-08 1.5157e-06 -3.0064e-07)
(1.3452e-08 1.3436e-06 -5.5642e-07)
(1.1795e-08 1.4253e-06 -5.9034e-07)
(1.3368e-08 1.2089e-06 -8.0858e-07)
(1.1636e-08 1.2825e-06 -8.5787e-07)
(1.3272e-08 1.029e-06 -1.029e-06)
(1.1458e-08 1.0917e-06 -1.0917e-06)
(1.3368e-08 8.0858e-07 -1.2089e-06)
(1.1636e-08 8.5787e-07 -1.2825e-06)
(1.3452e-08 5.5642e-07 -1.3436e-06)
(1.1795e-08 5.9034e-07 -1.4253e-06)
(1.3324e-08 2.8335e-07 -1.4287e-06)
(1.1597e-08 3.0064e-07 -1.5157e-06)
(1.321e-08 -6.0617e-12 -1.4582e-06)
(1.1405e-08 -1.4713e-13 -1.5471e-06)
(1.4751e-08 1.3594e-06 5.8645e-14)
(1.4811e-08 1.3317e-06 -2.6406e-07)
(1.4894e-08 1.2523e-06 -5.1867e-07)
(1.4858e-08 1.127e-06 -7.5368e-07)
(1.4822e-08 9.5933e-07 -9.5933e-07)
(1.4858e-08 7.5368e-07 -1.127e-06)
(1.4894e-08 5.1867e-07 -1.2523e-06)
(1.4811e-08 2.6406e-07 -1.3317e-06)
(1.4751e-08 -2.3076e-13 -1.3594e-06)
(1.5812e-08 1.2491e-06 9.5282e-13)
(1.599e-08 1.2239e-06 -2.4279e-07)
(1.6176e-08 1.151e-06 -4.7665e-07)
(1.6034e-08 1.0358e-06 -6.9264e-07)
(1.5873e-08 8.8151e-07 -8.8151e-07)
(1.6034e-08 6.9264e-07 -1.0358e-06)
(1.6176e-08 4.7665e-07 -1.151e-06)
(1.599e-08 2.4279e-07 -1.2239e-06)
(1.5812e-08 -1.2119e-12 -1.2491e-06)
(1.6984e-08 1.1306e-06 -6.4181e-14)
(1.7276e-08 1.1077e-06 -2.1969e-07)
(1.7538e-08 1.0416e-06 -4.3144e-07)
(1.7316e-08 9.374e-07 -6.2704e-07)
(1.7039e-08 7.9794e-07 -7.9794e-07)
(1.7316e-08 6.2704e-07 -9.374e-07)
(1.7538e-08 4.3144e-07 -1.0416e-06)
(1.7276e-08 2.1969e-07 -1.1077e-06)
(1.6984e-08 -2.0915e-13 -1.1306e-06)
(1.8615e-08 1.0067e-06 -8.3214e-14)
(1.8648e-08 9.8609e-07 -1.9546e-07)
(1.8699e-08 9.2716e-07 -3.8398e-07)
(1.8696e-08 8.3444e-07 -5.5825e-07)
(1.8684e-08 7.1053e-07 -7.1053e-07)
(1.8696e-08 5.5825e-07 -8.3444e-07)
(1.87e-08 3.8399e-07 -9.2716e-07)
(1.8648e-08 1.9546e-07 -9.8609e-07)
(1.8616e-08 9.9612e-14 -1.0067e-06)
(1.917e-08 8.7558e-07 -7.1063e-14)
(1.8966e-08 8.5742e-07 -1.6991e-07)
(1.8856e-08 8.0599e-07 -3.3375e-07)
(1.9021e-08 7.2558e-07 -4.854e-07)
(1.9251e-08 6.1798e-07 -6.1798e-07)
(1.9021e-08 4.854e-07 -7.2558e-07)
(1.8856e-08 3.3375e-07 -8.0599e-07)
(1.8966e-08 1.6991e-07 -8.5743e-07)
(1.9171e-08 3.0667e-13 -8.7559e-07)
(1.7905e-08 7.3581e-07 -1.2012e-13)
(1.8032e-08 7.2091e-07 -1.429e-07)
(1.8158e-08 6.7799e-07 -2.8082e-07)
(1.8079e-08 6.1011e-07 -4.0813e-07)
(1.7972e-08 5.1937e-07 -5.1937e-07)
(1.8079e-08 4.0813e-07 -6.1011e-07)
(1.8158e-08 2.8082e-07 -6.7799e-07)
(1.8032e-08 1.4291e-07 -7.2092e-07)
(1.7906e-08 2.0681e-13 -7.3582e-07)
(1.7656e-08 5.9307e-07 -6.8799e-15)
(1.8108e-08 5.8126e-07 -1.1516e-07)
(1.8417e-08 5.4653e-07 -2.2638e-07)
(1.8146e-08 4.9187e-07 -3.2917e-07)
(1.7708e-08 4.1864e-07 -4.1864e-07)
(1.8146e-08 3.2917e-07 -4.9187e-07)
(1.8417e-08 2.2638e-07 -5.4653e-07)
(1.8108e-08 1.1516e-07 -5.8127e-07)
(1.7656e-08 -1.5965e-13 -5.9308e-07)
(1.9985e-08 4.5127e-07 5.2737e-14)
(1.9939e-08 4.4116e-07 -8.691e-08)
(1.9912e-08 4.1382e-07 -1.714e-07)
(1.9982e-08 3.7297e-07 -2.5017e-07)
(2.0047e-08 3.1855e-07 -3.1855e-07)
(1.9982e-08 2.5018e-07 -3.7297e-07)
(1.9912e-08 1.714e-07 -4.1383e-07)
(1.9939e-08 8.6911e-08 -4.4116e-07)
(1.9985e-08 -1.6146e-13 -4.5127e-07)
(1.9843e-08 3.0371e-07 9.0357e-14)
(1.9297e-08 2.9545e-07 -5.7688e-08)
(1.8912e-08 2.76e-07 -1.1429e-07)
(1.9343e-08 2.4942e-07 -1.6788e-07)
(1.9911e-08 2.1438e-07 -2.1438e-07)
(1.9343e-08 1.6788e-07 -2.4943e-07)
(1.8912e-08 1.1429e-07 -2.76e-07)
(1.9297e-08 5.7688e-08 -2.9545e-07)
(1.9843e-08 -6.9031e-14 -3.0371e-07)
(1.2487e-08 1.4738e-07 4.4021e-14)
(1.2227e-08 1.4352e-07 -2.7901e-08)
(1.1985e-08 1.3396e-07 -5.5461e-08)
(1.2253e-08 1.2108e-07 -8.1628e-08)
(1.2525e-08 1.0404e-07 -1.0404e-07)
(1.2253e-08 8.1628e-08 -1.2109e-07)
(1.1984e-08 5.5461e-08 -1.3396e-07)
(1.2227e-08 2.7901e-08 -1.4352e-07)
(1.2487e-08 2.379e-14 -1.4738e-07)
(5.2354e-15 5.324e-14 6.4422e-21)
(2.8331e-11 2.2133e-10 8.4157e-11)
(6.2277e-15 2.1604e-14 -8.4524e-15)
(2.9578e-11 8.8459e-11 -2.1472e-10)
(3.7401e-15 7.1592e-14 -7.1592e-14)
(2.9577e-11 2.1473e-10 -8.8471e-11)
(6.2277e-15 8.452e-15 -2.1603e-14)
(2.833e-11 -8.4152e-11 -2.2133e-10)
(5.2354e-15 4.6116e-20 -5.3239e-14)
(1.3324e-08 -2.8335e-07 -1.4287e-06)
(1.1598e-08 -3.0064e-07 -1.5157e-06)
(1.3452e-08 -5.5642e-07 -1.3436e-06)
(1.1795e-08 -5.9034e-07 -1.4253e-06)
(1.3368e-08 -8.0858e-07 -1.2089e-06)
(1.1636e-08 -8.5787e-07 -1.2825e-06)
(1.3272e-08 -1.029e-06 -1.029e-06)
(1.1459e-08 -1.0917e-06 -1.0917e-06)
(1.3368e-08 -1.2089e-06 -8.0858e-07)
(1.1636e-08 -1.2825e-06 -8.5787e-07)
(1.3452e-08 -1.3436e-06 -5.5642e-07)
(1.1795e-08 -1.4253e-06 -5.9034e-07)
(1.3324e-08 -1.4287e-06 -2.8335e-07)
(1.1598e-08 -1.5157e-06 -3.0064e-07)
(1.321e-08 -1.4582e-06 -6.1308e-12)
(1.1405e-08 -1.5471e-06 -3.0226e-13)
(1.4811e-08 -2.6406e-07 -1.3317e-06)
(1.4894e-08 -5.1867e-07 -1.2523e-06)
(1.4858e-08 -7.5368e-07 -1.127e-06)
(1.4822e-08 -9.5933e-07 -9.5933e-07)
(1.4858e-08 -1.127e-06 -7.5368e-07)
(1.4894e-08 -1.2523e-06 -5.1867e-07)
(1.4811e-08 -1.3317e-06 -2.6406e-07)
(1.4751e-08 -1.3594e-06 -1.5082e-13)
(1.599e-08 -2.4279e-07 -1.2239e-06)
(1.6175e-08 -4.7665e-07 -1.151e-06)
(1.6033e-08 -6.9264e-07 -1.0358e-06)
(1.5873e-08 -8.8151e-07 -8.8151e-07)
(1.6034e-08 -1.0358e-06 -6.9264e-07)
(1.6176e-08 -1.151e-06 -4.7665e-07)
(1.599e-08 -1.2239e-06 -2.4279e-07)
(1.5812e-08 -1.2491e-06 9.18e-13)
(1.7276e-08 -2.1969e-07 -1.1077e-06)
(1.7538e-08 -4.3144e-07 -1.0416e-06)
(1.7315e-08 -6.2704e-07 -9.374e-07)
(1.7039e-08 -7.9794e-07 -7.9794e-07)
(1.7316e-08 -9.374e-07 -6.2704e-07)
(1.7538e-08 -1.0416e-06 -4.3144e-07)
(1.7276e-08 -1.1077e-06 -2.1969e-07)
(1.6985e-08 -1.1306e-06 7.6975e-14)
(1.8648e-08 -1.9546e-07 -9.8609e-07)
(1.87e-08 -3.8398e-07 -9.2716e-07)
(1.8696e-08 -5.5825e-07 -8.3444e-07)
(1.8684e-08 -7.1053e-07 -7.1053e-07)
(1.8696e-08 -8.3444e-07 -5.5825e-07)
(1.87e-08 -9.2716e-07 -3.8399e-07)
(1.8648e-08 -9.8609e-07 -1.9546e-07)
(1.8616e-08 -1.0067e-06 5.6799e-14)
(1.8966e-08 -1.6991e-07 -8.5742e-07)
(1.8856e-08 -3.3375e-07 -8.0599e-07)
(1.9021e-08 -4.854e-07 -7.2558e-07)
(1.9251e-08 -6.1798e-07 -6.1798e-07)
(1.9021e-08 -7.2558e-07 -4.854e-07)
(1.8856e-08 -8.0599e-07 -3.3375e-07)
(1.8966e-08 -8.5743e-07 -1.6991e-07)
(1.917e-08 -8.7559e-07 -1.465e-15)
(1.8032e-08 -1.429e-07 -7.2092e-07)
(1.8158e-08 -2.8082e-07 -6.7799e-07)
(1.8079e-08 -4.0813e-07 -6.1011e-07)
(1.7972e-08 -5.1937e-07 -5.1937e-07)
(1.8079e-08 -6.1011e-07 -4.0813e-07)
(1.8158e-08 -6.7799e-07 -2.8082e-07)
(1.8032e-08 -7.2092e-07 -1.429e-07)
(1.7905e-08 -7.3581e-07 -1.3308e-13)
(1.8108e-08 -1.1516e-07 -5.8126e-07)
(1.8417e-08 -2.2638e-07 -5.4653e-07)
(1.8146e-08 -3.2917e-07 -4.9187e-07)
(1.7708e-08 -4.1864e-07 -4.1864e-07)
(1.8146e-08 -4.9187e-07 -3.2917e-07)
(1.8417e-08 -5.4653e-07 -2.2638e-07)
(1.8108e-08 -5.8126e-07 -1.1516e-07)
(1.7655e-08 -5.9307e-07 -8.788e-14)
(1.9939e-08 -8.6911e-08 -4.4116e-07)
(1.9912e-08 -1.714e-07 -4.1382e-07)
(1.9982e-08 -2.5017e-07 -3.7297e-07)
(2.0047e-08 -3.1855e-07 -3.1855e-07)
(1.9982e-08 -3.7297e-07 -2.5018e-07)
(1.9912e-08 -4.1382e-07 -1.714e-07)
(1.9939e-08 -4.4116e-07 -8.6911e-08)
(1.9985e-08 -4.5127e-07 -2.0961e-14)
(1.9297e-08 -5.7688e-08 -2.9545e-07)
(1.8912e-08 -1.1429e-07 -2.76e-07)
(1.9343e-08 -1.6788e-07 -2.4942e-07)
(1.9911e-08 -2.1438e-07 -2.1438e-07)
(1.9343e-08 -2.4942e-07 -1.6788e-07)
(1.8912e-08 -2.76e-07 -1.1429e-07)
(1.9297e-08 -2.9545e-07 -5.7688e-08)
(1.9844e-08 -3.0371e-07 3.6425e-14)
(1.2227e-08 -2.7901e-08 -1.4352e-07)
(1.1984e-08 -5.5461e-08 -1.3396e-07)
(1.2253e-08 -8.1627e-08 -1.2108e-07)
(1.2525e-08 -1.0404e-07 -1.0404e-07)
(1.2253e-08 -1.2108e-07 -8.1628e-08)
(1.1985e-08 -1.3396e-07 -5.5461e-08)
(1.2227e-08 -1.4352e-07 -2.7901e-08)
(1.2487e-08 -1.4738e-07 5.8743e-14)
(2.833e-11 8.4136e-11 -2.2129e-10)
(6.2277e-15 -8.452e-15 -2.1603e-14)
(2.9578e-11 -2.147e-10 -8.8459e-11)
(3.7401e-15 -7.1592e-14 -7.1592e-14)
(2.9574e-11 -8.8472e-11 -2.1473e-10)
(6.2277e-15 -2.1603e-14 -8.4518e-15)
(2.8335e-11 -2.2131e-10 8.416e-11)
(5.2354e-15 -5.3239e-14 3.909e-20)
(1.3324e-08 -1.4287e-06 2.8335e-07)
(1.1597e-08 -1.5157e-06 3.0064e-07)
(1.3452e-08 -1.3436e-06 5.5642e-07)
(1.1795e-08 -1.4253e-06 5.9034e-07)
(1.3368e-08 -1.2089e-06 8.0858e-07)
(1.1636e-08 -1.2825e-06 8.5787e-07)
(1.3272e-08 -1.029e-06 1.029e-06)
(1.1458e-08 -1.0917e-06 1.0917e-06)
(1.3368e-08 -8.0858e-07 1.2089e-06)
(1.1636e-08 -8.5787e-07 1.2825e-06)
(1.3452e-08 -5.5642e-07 1.3436e-06)
(1.1795e-08 -5.9034e-07 1.4253e-06)
(1.3324e-08 -2.8335e-07 1.4287e-06)
(1.1598e-08 -3.0064e-07 1.5157e-06)
(1.321e-08 -6.2451e-12 1.4582e-06)
(1.1405e-08 -2.4276e-13 1.5471e-06)
(1.4811e-08 -1.3317e-06 2.6406e-07)
(1.4894e-08 -1.2523e-06 5.1867e-07)
(1.4858e-08 -1.127e-06 7.5368e-07)
(1.4822e-08 -9.5933e-07 9.5933e-07)
(1.4858e-08 -7.5368e-07 1.127e-06)
(1.4894e-08 -5.1867e-07 1.2523e-06)
(1.4811e-08 -2.6406e-07 1.3317e-06)
(1.4751e-08 -4.1128e-13 1.3594e-06)
(1.599e-08 -1.2239e-06 2.4279e-07)
(1.6176e-08 -1.151e-06 4.7665e-07)
(1.6034e-08 -1.0358e-06 6.9264e-07)
(1.5873e-08 -8.8151e-07 8.8151e-07)
(1.6033e-08 -6.9264e-07 1.0358e-06)
(1.6176e-08 -4.7665e-07 1.151e-06)
(1.599e-08 -2.4279e-07 1.2239e-06)
(1.5812e-08 5.68e-13 1.2491e-06)
(1.7276e-08 -1.1077e-06 2.1969e-07)
(1.7538e-08 -1.0416e-06 4.3144e-07)
(1.7316e-08 -9.374e-07 6.2704e-07)
(1.7039e-08 -7.9794e-07 7.9794e-07)
(1.7315e-08 -6.2704e-07 9.374e-07)
(1.7538e-08 -4.3144e-07 1.0416e-06)
(1.7276e-08 -2.1969e-07 1.1077e-06)
(1.6984e-08 -1.9053e-13 1.1306e-06)
(1.8648e-08 -9.8609e-07 1.9546e-07)
(1.87e-08 -9.2716e-07 3.8399e-07)
(1.8696e-08 -8.3444e-07 5.5825e-07)
(1.8684e-08 -7.1053e-07 7.1053e-07)
(1.8696e-08 -5.5825e-07 8.3444e-07)
(1.8699e-08 -3.8398e-07 9.2716e-07)
(1.8648e-08 -1.9546e-07 9.8609e-07)
(1.8616e-08 1.8624e-13 1.0067e-06)
(1.8966e-08 -8.5743e-07 1.6991e-07)
(1.8856e-08 -8.0599e-07 3.3375e-07)
(1.9021e-08 -7.2558e-07 4.854e-07)
(1.9251e-08 -6.1798e-07 6.1798e-07)
(1.9021e-08 -4.854e-07 7.2558e-07)
(1.8856e-08 -3.3375e-07 8.0599e-07)
(1.8966e-08 -1.6991e-07 8.5742e-07)
(1.9171e-08 4.4209e-13 8.7559e-07)
(1.8032e-08 -7.2092e-07 1.429e-07)
(1.8158e-08 -6.7799e-07 2.8082e-07)
(1.8079e-08 -6.1011e-07 4.0813e-07)
(1.7972e-08 -5.1937e-07 5.1937e-07)
(1.8079e-08 -4.0813e-07 6.1011e-07)
(1.8158e-08 -2.8082e-07 6.7799e-07)
(1.8032e-08 -1.429e-07 7.2092e-07)
(1.7906e-08 3.9077e-13 7.3582e-07)
(1.8108e-08 -5.8126e-07 1.1516e-07)
(1.8417e-08 -5.4653e-07 2.2638e-07)
(1.8146e-08 -4.9187e-07 3.2917e-07)
(1.7708e-08 -4.1864e-07 4.1864e-07)
(1.8146e-08 -3.2917e-07 4.9187e-07)
(1.8417e-08 -2.2638e-07 5.4653e-07)
(1.8108e-08 -1.1516e-07 5.8126e-07)
(1.7656e-08 1.1394e-14 5.9308e-07)
(1.9939e-08 -4.4116e-07 8.6911e-08)
(1.9912e-08 -4.1382e-07 1.714e-07)
(1.9982e-08 -3.7297e-07 2.5018e-07)
(2.0047e-08 -3.1855e-07 3.1855e-07)
(1.9982e-08 -2.5017e-07 3.7297e-07)
(1.9912e-08 -1.714e-07 4.1382e-07)
(1.9939e-08 -8.6911e-08 4.4116e-07)
(1.9985e-08 -1.8339e-13 4.5127e-07)
(1.9297e-08 -2.9545e-07 5.7689e-08)
(1.8912e-08 -2.76e-07 1.1429e-07)
(1.9343e-08 -2.4943e-07 1.6788e-07)
(1.9911e-08 -2.1438e-07 2.1438e-07)
(1.9343e-08 -1.6788e-07 2.4942e-07)
(1.8912e-08 -1.1429e-07 2.76e-07)
(1.9297e-08 -5.7688e-08 2.9545e-07)
(1.9843e-08 -2.3558e-13 3.0371e-07)
(1.2227e-08 -1.4352e-07 2.7901e-08)
(1.1985e-08 -1.3396e-07 5.5461e-08)
(1.2253e-08 -1.2108e-07 8.1628e-08)
(1.2525e-08 -1.0404e-07 1.0404e-07)
(1.2253e-08 -8.1628e-08 1.2108e-07)
(1.1984e-08 -5.5461e-08 1.3396e-07)
(1.2227e-08 -2.7901e-08 1.4352e-07)
(1.2487e-08 -1.3578e-13 1.4738e-07)
(2.8335e-11 -2.2132e-10 -8.4165e-11)
(6.2277e-15 -2.1603e-14 8.4522e-15)
(2.9574e-11 -8.8478e-11 2.1474e-10)
(3.7401e-15 -7.1592e-14 7.1592e-14)
(2.9578e-11 -2.147e-10 8.8466e-11)
(6.2277e-15 -8.4522e-15 2.1603e-14)
(2.8331e-11 8.4139e-11 2.2129e-10)
(5.2354e-15 -3.572e-20 5.3239e-14)
(1.3324e-08 2.8335e-07 1.4287e-06)
(1.1597e-08 3.0064e-07 1.5157e-06)
(1.3452e-08 5.5642e-07 1.3436e-06)
(1.1795e-08 5.9034e-07 1.4253e-06)
(1.3368e-08 8.0858e-07 1.2089e-06)
(1.1636e-08 8.5787e-07 1.2825e-06)
(1.3272e-08 1.029e-06 1.029e-06)
(1.1458e-08 1.0917e-06 1.0917e-06)
(1.3368e-08 1.2089e-06 8.0858e-07)
(1.1636e-08 1.2825e-06 8.5787e-07)
(1.3452e-08 1.3436e-06 5.5642e-07)
(1.1795e-08 1.4253e-06 5.9034e-07)
(1.3325e-08 1.4287e-06 2.8335e-07)
(1.1598e-08 1.5157e-06 3.0064e-07)
(1.4811e-08 2.6406e-07 1.3317e-06)
(1.4894e-08 5.1867e-07 1.2523e-06)
(1.4858e-08 7.5368e-07 1.127e-06)
(1.4822e-08 9.5933e-07 9.5933e-07)
(1.4858e-08 1.127e-06 7.5368e-07)
(1.4894e-08 1.2523e-06 5.1867e-07)
(1.4811e-08 1.3317e-06 2.6406e-07)
(1.599e-08 2.4279e-07 1.2239e-06)
(1.6176e-08 4.7665e-07 1.151e-06)
(1.6034e-08 6.9264e-07 1.0358e-06)
(1.5873e-08 8.8151e-07 8.8151e-07)
(1.6033e-08 1.0358e-06 6.9264e-07)
(1.6176e-08 1.151e-06 4.7665e-07)
(1.599e-08 1.2239e-06 2.4279e-07)
(1.7276e-08 2.1969e-07 1.1077e-06)
(1.7538e-08 4.3144e-07 1.0416e-06)
(1.7316e-08 6.2704e-07 9.374e-07)
(1.7039e-08 7.9794e-07 7.9794e-07)
(1.7315e-08 9.374e-07 6.2704e-07)
(1.7538e-08 1.0416e-06 4.3144e-07)
(1.7276e-08 1.1077e-06 2.1969e-07)
(1.8648e-08 1.9546e-07 9.8609e-07)
(1.87e-08 3.8399e-07 9.2716e-07)
(1.8696e-08 5.5825e-07 8.3444e-07)
(1.8684e-08 7.1053e-07 7.1053e-07)
(1.8696e-08 8.3444e-07 5.5825e-07)
(1.8699e-08 9.2716e-07 3.8399e-07)
(1.8648e-08 9.8609e-07 1.9546e-07)
(1.8966e-08 1.6991e-07 8.5743e-07)
(1.8856e-08 3.3375e-07 8.0599e-07)
(1.9021e-08 4.854e-07 7.2558e-07)
(1.9251e-08 6.1798e-07 6.1798e-07)
(1.9021e-08 7.2558e-07 4.854e-07)
(1.8856e-08 8.0599e-07 3.3375e-07)
(1.8966e-08 8.5742e-07 1.6991e-07)
(1.8032e-08 1.4291e-07 7.2092e-07)
(1.8158e-08 2.8082e-07 6.7799e-07)
(1.8079e-08 4.0813e-07 6.1011e-07)
(1.7972e-08 5.1937e-07 5.1937e-07)
(1.8079e-08 6.1011e-07 4.0813e-07)
(1.8158e-08 6.7799e-07 2.8082e-07)
(1.8032e-08 7.2091e-07 1.429e-07)
(1.8108e-08 1.1516e-07 5.8127e-07)
(1.8417e-08 2.2638e-07 5.4653e-07)
(1.8146e-08 3.2917e-07 4.9187e-07)
(1.7708e-08 4.1864e-07 4.1864e-07)
(1.8146e-08 4.9187e-07 3.2917e-07)
(1.8417e-08 5.4653e-07 2.2638e-07)
(1.8108e-08 5.8126e-07 1.1516e-07)
(1.9939e-08 8.6911e-08 4.4116e-07)
(1.9911e-08 1.714e-07 4.1383e-07)
(1.9982e-08 2.5018e-07 3.7297e-07)
(2.0047e-08 3.1855e-07 3.1855e-07)
(1.9982e-08 3.7297e-07 2.5017e-07)
(1.9912e-08 4.1382e-07 1.714e-07)
(1.9939e-08 4.4116e-07 8.691e-08)
(1.9297e-08 5.7688e-08 2.9545e-07)
(1.8912e-08 1.1429e-07 2.76e-07)
(1.9343e-08 1.6788e-07 2.4943e-07)
(1.9911e-08 2.1438e-07 2.1438e-07)
(1.9343e-08 2.4942e-07 1.6788e-07)
(1.8912e-08 2.76e-07 1.1429e-07)
(1.9297e-08 2.9545e-07 5.7688e-08)
(1.2227e-08 2.7901e-08 1.4352e-07)
(1.1984e-08 5.5461e-08 1.3396e-07)
(1.2253e-08 8.1628e-08 1.2108e-07)
(1.2525e-08 1.0404e-07 1.0404e-07)
(1.2253e-08 1.2108e-07 8.1628e-08)
(1.1985e-08 1.3396e-07 5.5461e-08)
(1.2227e-08 1.4352e-07 2.7901e-08)
(2.8329e-11 -8.415e-11 2.2132e-10)
(6.2277e-15 8.452e-15 2.1603e-14)
(2.9577e-11 2.1472e-10 8.8466e-11)
(3.7401e-15 7.1592e-14 7.1592e-14)
(2.9579e-11 8.8459e-11 2.1472e-10)
(6.2277e-15 2.1604e-14 8.4522e-15)
(2.8331e-11 2.2133e-10 -8.4151e-11)
)
;
    }
    procBoundary3to2
    {
        type            processor;
    }
}


// ************************************************************************* //
