/*--------------------------------*- C++ -*----------------------------------*\
  =========                 |
  \\      /  F ield         | OpenFOAM: The Open Source CFD Toolbox
   \\    /   O peration     | Website:  https://openfoam.org
    \\  /    A nd           | Version:  8
     \\/     M anipulation  |
\*---------------------------------------------------------------------------*/
FoamFile
{
    version     2.0;
    format      ascii;
    class       volScalarField;
    location    "0.0260000";
    object      p;
}
// * * * * * * * * * * * * * * * * * * * * * * * * * * * * * * * * * * * * * //

dimensions      [0 2 -2 0 0 0 0];

internalField   nonuniform List<scalar> 
900
(
1232294.49571539
3747279.93577975
6361692.42411993
9025366.03658891
11754186.6879649
14550146.7116179
17415966.9523887
20353836.894422
23366293.8505619
26456105.0909761
29625820.6418309
32878631.9831275
36217997.9910013
39647066.5963973
43169413.1947792
46788895.8668309
50509409.7198218
54334959.9434623
58270102.4254797
62319688.4120781
66488369.5376268
70781342.045133
75204268.6395977
79762974.693946
84463431.4163893
89312204.7402997
94316502.8005605
99483526.1975398
104821100.674586
110337668.464035
116042179.974177
121943971.962743
128053197.348046
134380889.268829
140938406.871395
147738255.29661
154793883.782236
162119222.403672
169729622.750816
177641636.416853
185873039.726296
194442506.778609
203370913.9186
212680910.535399
222395617.654539
232541079.76928
243145943.42844
254240759.99709
265857605.490704
278032947.320199
290807952.642671
304221636.954435
318321545.784811
333160091.381758
348791569.386358
365274517.80618
382676009.562648
401070684.252355
420529114.97417
441139814.474483
463002529.736688
486208281.984058
510865243.990675
537098227.434127
565036196.016392
594794811.376894
626520886.670222
660390997.178086
696496938.711133
734999862.86941
776046828.153101
819738301.966861
865971831.604416
914761029.138908
965769790.980484
1018564416.60237
1072363812.52582
1127143109.5272
1180763169.42259
1234294780.3185
1282339702.43183
1329234598.63516
1360225587.13417
1390509707.65713
1373356107.40876
1359989164.90981
1195716262.52321
1120080309.11535
990950154.855137
897960507.442754
785058192.628879
688440619.038443
586098711.346264
492884257.719005
400453363.15446
314994678.54071
233626930.921583
158872042.965368
90038197.2054619
26867517.4473057
1258458.57921375
3766958.76989642
6385289.62387669
9051052.78166767
11781118.9221612
14577751.9962833
17443948.4863275
20382085.5819236
23394764.1624969
26484738.6087394
29654696.9406505
32907772.1824932
36247332.0916931
39676630.274641
43199220.8875848
46818925.8067314
50539656.1968319
54365479.377387
58300903.1075691
62350699.6077627
66519633.7321171
70812883.1407271
75236059.0969868
79794989.7419775
84495709.7347218
89344780.0602645
94349303.0101655
99516586.1123851
104854431.009693
110371249.649103
116075993.18621
121978043.384243
128087541.913405
134415439.152258
140973211.944698
147773310.520322
154829097.156207
162154636.755362
169765247.189739
177677445.903784
185908924.389504
194478568.280628
203407137.375794
212717049.115386
222431788.569228
232577300.788833
243182070.699443
254276591.764685
265893297.78541
278068584.468812
290842656.804539
304255988.547232
318355467.193763
333193006.866904
348823244.16407
365305147.95642
382705448.815107
401097340.683648
420554082.062379
441163054.585426
463021579.443078
486223744.919486
510877404.462556
537105865.989179
565036073.375703
594789132.608808
626510468.942643
660366413.501197
696463869.218747
734958157.937464
775990122.549881
819656453.659418
865873881.636633
914640615.416237
965605341.700883
1018391307.51319
1072170985.14128
1126932844.69967
1180553020.57956
1234075120.29791
1282121013.94977
1329039002.30737
1360038894.11311
1390334054.49641
1373237886.54995
1359942165.32637
1195922938.72183
1120232225.52378
991125841.102014
898123570.316899
785201022.920901
688570248.409666
586220512.074204
492985533.477877
400546833.997556
315075666.821787
233686036.957518
158927602.366227
90076618.3936357
26718337.6896879
1256821.32363613
3774666.14615277
6400627.05166573
9068090.5548698
11799150.4842088
14596329.2971679
17462820.3559106
20401149.2930444
23413969.8942166
26504043.8867499
29674148.0810138
32927384.0392177
36267060.3083936
39696485.8514206
43219215.463497
46839042.3516417
50559892.6345765
54385873.3009109
58321454.8601479
62371365.2880188
66540428.6340023
70833826.597826
75257129.832037
79816164.7920079
84517012.2551695
89366227.7084117
94370859.1396184
99538248.137658
104876207.97564
110393130.788864
116097954.684897
122000094.398421
128109687.067276
134437644.30294
140995481.319354
147795627.217103
154851413.568431
162176957.457643
169787564.610261
177699724.379647
185931119.426666
194500696.459093
203429151.320563
212738827.929388
222453342.4949
232598621.898675
243203045.238734
254297100.046031
265913375.958747
278088144.12831
290861343.578185
304273900.137006
318372546.51946
333208909.074124
348837738.636973
365318201.675803
382716740.683062
401106258.740066
420560762.228185
441167173.25358
463022104.739047
486220474.36121
510870175.567371
537093610.637656
565017564.7069
594764463.03105
626478579.253309
660324852.190499
696412472.204895
734895927.93031
775913106.661094
819561500.477858
865759595.729473
914503938.823455
965445526.064716
1018213472.04674
1071979239.5079
1126733367.49212
1180347866.05328
1233874876.98187
1281925150.84994
1328864865.2573
1359874447.21665
1390215871.08292
1373153385.08791
1359991477.00404
1196113414.77834
1120441264.97395
991310110.983932
898293560.372108
785356897.529447
688712617.255676
586345791.473683
493099710.501797
400644891.790816
315160525.360519
233761073.698742
158986545.04066
90124297.7715451
26808708.0312066
1250637.01130286
3774159.39596268
6400453.44867023
9067981.16882735
11799143.2281201
14596437.3448479
17462962.4174646
20401269.6953443
23414026.855664
26504003.4664063
29674026.6744864
32927183.5452376
36266751.3890456
39696066.6037615
43218687.228705
46838389.5092248
50559108.9617096
54384974.1812402
58320432.8141855
62370189.6356725
66539098.1332401
70832345.5060453
75255477.3538775
79814318.420927
84514976.7169298
89364002.7254591
94368416.8277026
99535571.2770969
104873292.122237
110389958.820665
116094498.476621
121996345.992024
128105634.693208
134433256.570522
140990740.105911
147790503.980291
154845866.435472
162170966.82988
169781105.729213
177692751.205564
185923591.593131
194492591.49921
203420408.354045
212729358.135272
222443111.249702
232587594.36108
243191115.627863
254284165.638264
265899416.616151
278073032.853902
290844871.158837
304256028.329228
318353201.305416
333187828.103155
348814713.190978
365293140.651325
382689331.227907
401076137.989403
420527865.863273
441131179.291743
462982375.991699
486176722.378014
510822212.939201
537040604.158927
564958787.579344
594699807.154669
626407054.306028
660245291.061313
696324353.857346
734798686.925888
775804063.838853
819439138.722756
865622760.519346
914351032.274848
965277820.496967
1018034441.15984
1071793533.27832
1126547348.01437
1180163220.1054
1233703468.52659
1281766637.74871
1328739249.54437
1359771275.00159
1390184226.55057
1373171904.64513
1360190891.26729
1196289122.9301
1120631702.23955
991483519.820163
898450522.719632
785500599.194443
688842029.443383
586459654.132973
493201015.529522
400731318.308816
315233951.914528
233823449.039481
159035080.377665
90165539.2358008
26856862.5112159
1251111.67173682
3771349.64998957
6386903.27367502
9052418.82539822
11782809.3339057
14579809.9359546
17446112.6094277
20384182.7827393
23396668.1289632
26486340.2229519
29656058.9012201
32908903.3650537
36248132.5937326
39677100.7562319
43199366.9216811
46818696.723844
50539031.1691678
54364512.1347977
58299572.469814
62348901.5962494
66517371.9885174
70810172.927263
75232833.7585717
79791178.0717617
84491330.792102
89339838.0519493
94343701.2242314
99510280.8992068
104847409.270432
110363456.293701
116067342.037643
121968514.13274
128077101.547409
134403981.466538
140960692.956351
147759645.45728
154814145.303724
162138348.062205
169747549.168007
177658200.361989
185887990.091183
194455898.213659
203382553.244298
212690245.883971
222402688.032495
232545801.694819
243147843.126072
254239301.039792
265852909.185905
278024756.40517
290794621.330837
304203746.400542
318298783.178074
333131032.696714
348755343.417574
365231086.237399
382624322.176437
401007832.171407
420456193.359053
441055862.257434
462902867.332333
486092800.842232
510733710.97501
536946893.255057
564859263.451885
594594473.259374
626295293.551693
660126065.169224
696197668.002324
734664339.166866
775660374.607286
819285242.768585
865459036.42156
914177041.574901
965094587.395197
1017847257.07894
1071606082.00411
1126365745.70745
1179991191.99175
1233551403.74385
1281637128.17965
1328653602.41575
1359724095.71066
1390228048.08571
1373295655.72317
1360531959.76916
1196464682.4709
1120805320.75986
991653914.828913
898598715.861479
785637804.788583
688962213.330379
586566167.008696
493292473.091998
400808933.630142
315297987.283166
233874972.878028
159074370.09553
90197064.9514086
26871521.6507483
1241080.8680096
3759110.23457284
6359750.24178948
9022227.07440634
11751366.7856302
14547813.8571868
17413691.9093732
20351331.3189278
23363349.3120852
26452519.1712019
29621723.9019399
32874039.115009
36212712.8669116
39641111.1446121
43162792.8668475
46781516.6328671
50501226.2702452
54326071.7386647
58260476.187544
62309118.513913
66476883.4729884
70768960.4788994
75190868.0702477
79748428.6248399
84447777.1769151
89295456.2255214
94298453.6269953
99464136.1377784
104800338.061329
110315422.171222
116018303.469444
121918436.982142
128025947.427625
134351700.46539
140907242.914167
147704976.330946
154758196.716726
162081070.37714
169688887.194338
177598086.90216
185826354.496992
194392680.987917
203317673.978096
212623602.824354
222334208.27646
232475404.549569
243075412.413523
254164715.344375
265776087.58688
277945569.39673
290712873.537243
304119351.999634
318211610.266906
333040861.231429
348661983.96456
365134403.289929
382524078.99692
400903725.607954
420348122.123669
440943577.015701
462785938.565777
485971043.400907
510606952.80625
536814694.668189
564721199.463105
594450557.925076
626145176.298197
659969096.618339
696034085.197342
734494185.887559
775483008.132903
819100710.881086
865268585.519383
913981482.089321
964895900.227694
1017650725.24166
1071415470.89978
1126187094.20618
1179829515.16769
1233416593.55505
1281534528.86294
1328604384.54239
1359729428.5091
1390342867.76904
1373520119.24652
1361008109.7713
1196644794.20512
1120969482.66007
991825359.563879
898740791.624306
785772256.995767
689076330.914938
586667617.570605
493377068.868515
400879802.058846
315354423.343542
233918599.763139
159105850.296687
90220165.4994684
26879103.557392
1217031.66335437
3731520.08811013
6316289.78203322
8975731.32964384
11703702.676836
14499526.1529804
17364820.5501638
20301828.1807621
23313161.3894095
26401605.4389716
29570061.978039
32821606.7599894
36159482.3872327
39587061.6763931
43107902.712412
46725759.5121204
50444576.5001478
54268507.4463911
58201969.760655
62249635.9559773
66416397.197601
70707441.8717698
75128281.9255025
79684738.1357192
84382949.917194
89229456.794414
94231238.1506843
99395663.6302
104730567.177976
110244306.522923
115945792.411494
121844482.506338
127950497.698083
134274695.526752
140828626.248994
147624685.506328
154676161.66115
161997224.894183
169603159.025891
177510396.075778
185736616.183227
194300813.840598
203223584.201619
212527182.866278
222235362.217844
232374027.045136
242971379.42676
254057896.044668
265666366.232208
277832806.2272
290596891.450502
304000024.982585
318088776.570301
332914324.036352
348531559.273904
364999922.535706
382385331.307537
400760468.836863
420200199.057066
440790756.716596
462627942.24165
485807703.710488
510438081.436285
536640043.892909
564540577.935968
594263943.469239
625952444.025085
659770165.650025
695829305.179548
734283841.412915
775267582.840289
818881382.707502
865047282.834668
913760409.342811
964678576.151895
1017441800.61636
1071219215.90301
1126009644.82623
1179676930.65319
1233298881.72868
1281459712.98376
1328593668.59276
1359790892.42111
1390535612.0097
1373854746.88845
1361635980.41041
1196832748.07015
1121127254.5629
992000610.681966
898878645.475865
785906011.395643
689185985.027439
586765237.748426
493455914.126638
400944644.260186
315403721.835651
233954849.678083
159129603.606746
90235140.9239303
26883574.9897996
1172123.74168875
3677526.89975781
6249884.03121468
8907760.26141983
11635278.2135725
14430581.9980709
17295145.1665554
20231280.2545617
23241658.3810383
26329097.1207223
29496515.3719472
32746992.0217483
36083768.6338579
39510220.4546982
43029903.887802
46646570.2464164
50364162.453844
54186834.0971053
58119000.1712061
62165330.687409
66330717.8621355
70620347.8274258
75039729.595072
79594681.895358
84291343.0304307
89136249.9296957
94136378.2211713
99299097.0155413
104632237.594694
110144154.523184
115843754.731514
121740493.737652
127844488.795394
134166592.654806
140718354.198361
147512164.939777
154561308.607821
161879951.703546
169483370.975464
177387994.859659
185611497.633571
194172868.175127
203092697.270773
212393235.750998
222098228.512606
232233568.549535
242827456.21124
253910360.637047
265515058.160676
277677563.698089
290437550.85293
303836406.795912
317920676.325856
332741558.293658
348353939.135456
364817231.467669
382197368.367907
400567049.583744
420001089.57564
440585723.762763
462416857.119376
485590400.961261
510214335.254916
536409786.343282
564303859.450869
594020687.642248
625702722.556569
659514521.256348
695568181.639173
734017777.664114
774998221.394871
818611188.142921
864778884.392927
913497641.253195
964426627.866689
1017205091.69966
1071002305.11212
1125819746.46327
1179520301.15685
1233187871.88094
1281402670.89373
1328617074.18007
1359903593.80427
1390813961.92442
1374305484.3784
1362453850.30796
1197029979.35988
1121290177.07316
992185191.483204
899020475.003289
786044182.065713
689296793.02948
586863005.239693
493532624.267699
401006014.833078
315447890.794329
233984884.35814
159146312.29212
90242304.9090413
26883622.1343594
1106772.40349385
3601914.42261022
6166651.21294054
8824684.02203571
11552292.1787956
14347151.3332901
17210906.9483743
20146044.3080912
23155331.6770772
26241628.2454053
29407866.3036941
32657128.8169026
35992659.2994224
39417831.9309087
42936200.9201983
46551516.4119629
50267718.6237164
54088957.9618931
58019649.1275634
62064462.7436173
66228287.9948955
70516307.9719993
74934031.3620643
79487274.8357741
84182171.6666595
89025256.3255714
94023504.336338
99184281.6073133
104515415.223203
110025257.852136
115722713.376491
121617231.639711
127718926.197694
134038647.995187
140587940.431746
147379192.000783
154425684.73386
161741575.545486
169342133.935139
177243787.17099
185464203.714506
194022359.70997
202938846.052878
212235916.809929
221937294.929442
232068860.35763
242658822.10448
253737642.903907
265338065.881015
277496113.909131
290251492.526179
303645518.699846
317724722.767667
332540358.815032
348147295.459783
364604887.410878
381979110.858709
400342730.291177
419770405.663179
440348414.564359
462172876.00693
485339551.635421
509956337.729106
536144635.285868
564031720.980248
593741404.27522
625416370.237432
659222008.472938
695269854.51931
733714247.654659
774691557.671254
818304560.163152
864474886.421832
913201058.307465
964143073.658179
1016939320.73398
1070757679.63122
1125605934.21622
1179340038.91271
1233059652.29055
1281326418.62837
1328633871.48419
1360002406.95121
1391108177.54024
1374753627.24029
1363349324.34737
1197205781.39179
1121468004.4148
992364396.029952
899168565.877873
786180434.788285
689409592.491552
586959264.474853
493608842.666597
401065236.986844
315489947.281193
234011973.859524
159159924.467007
90246069.5861844
26887675.5580804
)
;

boundaryField
{
    dieWall
    {
        type            zeroGradient;
    }
    outlet
    {
        type            fixedValue;
        value           uniform 0;
    }
    Wire
    {
        type            zeroGradient;
    }
    inlet
    {
        type            fixedValue;
        value           uniform 0;
    }
    back
    {
        type            wedge;
    }
    front
    {
        type            wedge;
    }
}


// ************************************************************************* //
