/*--------------------------------*- C++ -*----------------------------------*\
| =========                 |                                                 |
| \\      /  F ield         | foam-extend: Open Source CFD                    |
|  \\    /   O peration     | Version:     4.1-20200408                       |
|   \\  /    A nd           | Web:         http://www.foam-extend.org         |
|    \\/     M anipulation  |                                                 |
\*---------------------------------------------------------------------------*/
FoamFile
{
    version     2.0;
    format      ascii;
    class       volScalarField;
    location    "0.0440000";
    object      ccx;
}
// * * * * * * * * * * * * * * * * * * * * * * * * * * * * * * * * * * * * * //

dimensions      [0 1 0 0 0 0 0];

internalField   nonuniform List<scalar> 
1952
(
0.00293133
0.00293123
0.00293108
0.00293089
0.00293065
0.00293038
0.00293008
0.00292975
0.0029294
0.00292906
0.00292872
0.00292842
0.00292817
0.00292799
0.00292788
0.00293138
0.00283756
0.00283736
0.00283707
0.00283668
0.00283621
0.00283567
0.00283506
0.0028344
0.00283371
0.00283301
0.00283235
0.00283175
0.00283124
0.00283088
0.00283066
0.00283766
0.00278737
0.00278717
0.00278688
0.00278649
0.00278602
0.00278548
0.00278487
0.00278421
0.00278352
0.00278282
0.00278216
0.00278155
0.00278105
0.00278068
0.00278046
0.00278748
0.00273718
0.00273699
0.00273669
0.0027363
0.00273583
0.00273529
0.00273468
0.00273402
0.00273332
0.00273263
0.00273196
0.00273136
0.00273085
0.00273048
0.00273027
0.00273729
0.002687
0.0026868
0.0026865
0.00268611
0.00268564
0.0026851
0.00268449
0.00268382
0.00268313
0.00268243
0.00268177
0.00268116
0.00268066
0.00268029
0.00268007
0.0026871
0.00263681
0.00263661
0.00263632
0.00263593
0.00263546
0.00263491
0.00263429
0.00263363
0.00263294
0.00263224
0.00263157
0.00263097
0.00263046
0.00263009
0.00262987
0.00263692
0.00258662
0.00258642
0.00258613
0.00258574
0.00258527
0.00258472
0.0025841
0.00258344
0.00258275
0.00258205
0.00258138
0.00258077
0.00258027
0.0025799
0.00257968
0.00258673
0.00253644
0.00253624
0.00253594
0.00253555
0.00253508
0.00253453
0.00253391
0.00253325
0.00253255
0.00253185
0.00253119
0.00253058
0.00253007
0.0025297
0.00252948
0.00253654
0.00248625
0.00248605
0.00248575
0.00248536
0.00248489
0.00248434
0.00248372
0.00248305
0.00248236
0.00248166
0.00248099
0.00248038
0.00247987
0.0024795
0.00247928
0.00248636
0.00243606
0.00243586
0.00243556
0.00243517
0.0024347
0.00243415
0.00243353
0.00243286
0.00243217
0.00243147
0.0024308
0.00243018
0.00242968
0.00242931
0.00242909
0.00243617
0.00238588
0.00238568
0.00238538
0.00238499
0.00238451
0.00238395
0.00238334
0.00238267
0.00238197
0.00238127
0.0023806
0.00237999
0.00237948
0.00237911
0.00237889
0.00238598
0.00233569
0.00233549
0.00233519
0.0023348
0.00233432
0.00233376
0.00233315
0.00233248
0.00233178
0.00233108
0.00233041
0.00232979
0.00232928
0.00232891
0.00232869
0.0023358
0.0022855
0.0022853
0.002285
0.00228461
0.00228413
0.00228357
0.00228295
0.00228228
0.00228159
0.00228088
0.00228021
0.0022796
0.00227909
0.00227872
0.0022785
0.00228561
0.00223531
0.00223511
0.00223481
0.00223442
0.00223394
0.00223338
0.00223276
0.00223209
0.00223139
0.00223069
0.00223001
0.0022294
0.00222889
0.00222852
0.0022283
0.00223542
0.00218513
0.00218493
0.00218462
0.00218423
0.00218375
0.00218319
0.00218257
0.0021819
0.0021812
0.00218049
0.00217982
0.0021792
0.00217869
0.00217832
0.0021781
0.00218524
0.00213494
0.00213474
0.00213444
0.00213405
0.00213356
0.002133
0.00213238
0.00213171
0.002131
0.0021303
0.00212962
0.00212901
0.0021285
0.00212813
0.0021279
0.00213505
0.00208475
0.00208455
0.00208425
0.00208386
0.00208337
0.00208281
0.00208219
0.00208152
0.00208081
0.00208011
0.00207943
0.00207881
0.0020783
0.00207793
0.00207771
0.00208486
0.00203457
0.00203437
0.00203406
0.00203367
0.00203318
0.00203263
0.002032
0.00203132
0.00203062
0.00202991
0.00202923
0.00202862
0.0020281
0.00202773
0.00202751
0.00203467
0.00198438
0.00198418
0.00198387
0.00198348
0.001983
0.00198244
0.00198181
0.00198113
0.00198043
0.00197972
0.00197904
0.00197842
0.0019779
0.00197753
0.00197731
0.00198449
0.00193419
0.00193399
0.00193368
0.00193329
0.00193281
0.00193225
0.00193162
0.00193094
0.00193023
0.00192952
0.00192884
0.00192822
0.00192771
0.00192734
0.00192711
0.0019343
0.00188401
0.0018838
0.0018835
0.0018831
0.00188262
0.00188206
0.00188143
0.00188075
0.00188004
0.00187933
0.00187865
0.00187803
0.00187751
0.00187714
0.00187691
0.00188412
0.00183382
0.00183362
0.00183331
0.00183291
0.00183243
0.00183187
0.00183124
0.00183055
0.00182984
0.00182913
0.00182845
0.00182783
0.00182731
0.00182694
0.00182672
0.00183393
0.00178363
0.00178343
0.00178312
0.00178272
0.00178224
0.00178167
0.00178104
0.00178036
0.00177965
0.00177894
0.00177825
0.00177763
0.00177712
0.00177674
0.00177652
0.00178374
0.00173345
0.00173325
0.00173294
0.00173254
0.00173205
0.00173148
0.00173085
0.00173017
0.00172946
0.00172874
0.00172806
0.00172744
0.00172692
0.00172654
0.00172632
0.00173356
0.00168327
0.00168306
0.00168275
0.00168235
0.00168186
0.00168129
0.00168066
0.00167998
0.00167926
0.00167855
0.00167786
0.00167724
0.00167672
0.00167634
0.00167612
0.00168338
0.00163308
0.00163287
0.00163256
0.00163216
0.00163167
0.00163111
0.00163047
0.00162978
0.00162907
0.00162835
0.00162766
0.00162704
0.00162652
0.00162615
0.00162592
0.00163319
0.0015829
0.00158269
0.00158238
0.00158198
0.00158148
0.00158092
0.00158028
0.00157959
0.00157888
0.00157816
0.00157747
0.00157684
0.00157632
0.00157595
0.00157572
0.00158301
0.00153272
0.00153251
0.00153219
0.00153179
0.0015313
0.00153073
0.00153009
0.0015294
0.00152868
0.00152796
0.00152727
0.00152664
0.00152612
0.00152575
0.00152552
0.00153283
0.00148253
0.00148232
0.00148201
0.00148161
0.00148111
0.00148054
0.0014799
0.00147921
0.00147849
0.00147777
0.00147708
0.00147645
0.00147593
0.00147555
0.00147532
0.00148264
0.00143235
0.00143214
0.00143183
0.00143142
0.00143093
0.00143035
0.00142971
0.00142902
0.0014283
0.00142757
0.00142688
0.00142625
0.00142573
0.00142535
0.00142512
0.00143246
0.00138217
0.00138196
0.00138165
0.00138124
0.00138074
0.00138016
0.00137952
0.00137883
0.0013781
0.00137738
0.00137668
0.00137605
0.00137553
0.00137515
0.00137492
0.00138228
0.00133199
0.00133178
0.00133146
0.00133106
0.00133056
0.00132998
0.00132934
0.00132864
0.00132791
0.00132719
0.00132649
0.00132585
0.00132532
0.00132494
0.00132472
0.0013321
0.00128181
0.0012816
0.00128128
0.00128087
0.00128038
0.0012798
0.00127915
0.00127845
0.00127772
0.00127699
0.00127629
0.00127565
0.00127512
0.00127474
0.00127451
0.00128192
0.00123163
0.00123142
0.0012311
0.00123069
0.00123019
0.00122961
0.00122896
0.00122826
0.00122753
0.0012268
0.0012261
0.00122546
0.00122492
0.00122454
0.00122431
0.00123175
0.00118146
0.00118125
0.00118093
0.00118051
0.00118001
0.00117943
0.00117878
0.00117807
0.00117734
0.0011766
0.0011759
0.00117526
0.00117472
0.00117433
0.0011741
0.00118157
0.00113128
0.00113107
0.00113075
0.00113033
0.00112983
0.00112924
0.00112859
0.00112788
0.00112715
0.00112641
0.0011257
0.00112506
0.00112452
0.00112413
0.00112389
0.00113139
0.0010811
0.00108089
0.00108057
0.00108015
0.00107965
0.00107906
0.00107841
0.0010777
0.00107696
0.00107622
0.0010755
0.00107485
0.00107431
0.00107392
0.00107368
0.00108121
0.00103092
0.00103071
0.00103039
0.00102997
0.00102947
0.00102888
0.00102822
0.00102751
0.00102677
0.00102602
0.00102531
0.00102465
0.00102411
0.00102371
0.00102347
0.00103103
0.000980737
0.000980525
0.000980205
0.00097979
0.000979284
0.000978695
0.000978035
0.000977323
0.000976579
0.000975829
0.00097511
0.000974455
0.000973905
0.000973502
0.000973256
0.00098085
0.000930552
0.000930339
0.00093002
0.000929605
0.000929097
0.000928508
0.000927848
0.000927135
0.000926389
0.000925638
0.000924915
0.000924255
0.000923699
0.000923292
0.00092304
0.000930665
0.000880363
0.00088015
0.000879832
0.000879417
0.00087891
0.000878321
0.000877661
0.000876946
0.000876199
0.000875446
0.000874719
0.000874054
0.000873494
0.00087308
0.000872822
0.000880476
0.000830168
0.000829955
0.000829638
0.000829224
0.000828718
0.00082813
0.000827471
0.000826756
0.000826008
0.000825253
0.000824523
0.000823855
0.000823288
0.000822867
0.000822601
0.00083028
0.000779963
0.000779752
0.000779435
0.000779024
0.00077852
0.000777934
0.000777277
0.000776564
0.000775816
0.000775061
0.000774329
0.000773655
0.000773083
0.000772653
0.000772377
0.000780074
0.000729747
0.000729537
0.000729223
0.000728814
0.000728314
0.000727731
0.000727077
0.000726367
0.000725622
0.000724867
0.000724134
0.000723457
0.000722878
0.000722439
0.000722151
0.000729858
0.000679516
0.000679309
0.000678997
0.000678592
0.000678096
0.000677519
0.00067687
0.000676165
0.000675423
0.000674671
0.000673938
0.000673259
0.000672674
0.000672226
0.000671924
0.000679626
0.000629267
0.000629062
0.000628755
0.000628354
0.000627864
0.000627294
0.000626652
0.000625953
0.000625219
0.000624472
0.000623742
0.000623063
0.000622473
0.000622014
0.000621694
0.000629375
0.000578996
0.000578794
0.000578492
0.000578098
0.000577615
0.000577052
0.000576419
0.00057573
0.000575005
0.000574266
0.000573543
0.000572867
0.000572275
0.000571805
0.000571464
0.000579103
0.000528699
0.000528501
0.000528204
0.000527817
0.000527343
0.000526791
0.000526169
0.000525492
0.000524779
0.000524051
0.000523338
0.000522668
0.000522078
0.0005216
0.000521237
0.000528804
0.000478374
0.00047818
0.000477889
0.00047751
0.000477046
0.000476505
0.000475896
0.000475234
0.000474535
0.000473822
0.000473121
0.000472462
0.000471877
0.000471396
0.000471015
0.000478476
0.000428016
0.000427826
0.000427542
0.000427172
0.000426719
0.000426192
0.000425598
0.000424951
0.000424269
0.000423574
0.00042289
0.000422245
0.00042167
0.000421191
0.000420803
0.000428116
0.000377623
0.000377439
0.000377162
0.000376801
0.00037636
0.000375847
0.000375269
0.000374641
0.000373979
0.000373304
0.000372641
0.000372016
0.000371457
0.000370988
0.000370602
0.000377721
0.000327195
0.000327015
0.000326746
0.000326396
0.000325968
0.000325469
0.000324909
0.000324301
0.000323661
0.000323011
0.000322373
0.000321773
0.000321239
0.000320789
0.000320416
0.00032729
0.000276731
0.000276557
0.000276295
0.000275955
0.00027554
0.000275058
0.000274517
0.000273931
0.000273316
0.000272693
0.000272086
0.000271519
0.000271017
0.000270598
0.000270249
0.000276824
0.000226234
0.000226065
0.000225811
0.000225482
0.00022508
0.000224615
0.000224094
0.00022353
0.000222943
0.000222351
0.000221779
0.000221252
0.000220794
0.000220418
0.00022011
0.000226323
0.000175706
0.000175543
0.000175297
0.000174979
0.000174591
0.000174143
0.000173642
0.000173102
0.000172543
0.000171985
0.000171454
0.000170974
0.000170569
0.000170253
0.000170012
0.000175793
0.000125154
0.000124996
0.000124759
0.000124451
0.000124077
0.000123646
0.000123166
0.000122651
0.000122122
0.000121599
0.000121111
0.000120686
0.000120348
0.000120115
0.000119974
0.000125238
7.45834e-05
7.44306e-05
7.42014e-05
7.39048e-05
7.35457e-05
7.31319e-05
7.26741e-05
7.21862e-05
7.16886e-05
7.12056e-05
7.07663e-05
7.04024e-05
7.01454e-05
7.00191e-05
7.00144e-05
7.4665e-05
2.40058e-05
2.38591e-05
2.36388e-05
2.3355e-05
2.30117e-05
2.26184e-05
2.2186e-05
2.17294e-05
2.12696e-05
2.08325e-05
2.04498e-05
2.0157e-05
1.99932e-05
1.99908e-05
2.01469e-05
2.40843e-05
-2.65559e-05
-2.66952e-05
-2.69035e-05
-2.7172e-05
-2.74948e-05
-2.78627e-05
-2.8264e-05
-2.86827e-05
-2.90972e-05
-2.94802e-05
-2.97978e-05
-3.001e-05
-3.00721e-05
-2.99426e-05
-2.96163e-05
-2.64812e-05
-7.70661e-05
-7.71956e-05
-7.73893e-05
-7.76378e-05
-7.7935e-05
-7.82716e-05
-7.86351e-05
-7.90086e-05
-7.93704e-05
-7.96915e-05
-7.9936e-05
-8.00614e-05
-8.00175e-05
-7.97569e-05
-7.92675e-05
-7.69963e-05
-0.000127481
-0.000127599
-0.000127775
-0.000128
-0.000128267
-0.000128567
-0.000128887
-0.000129209
-0.000129512
-0.000129766
-0.000129932
-0.000129968
-0.000129821
-0.00012944
-0.000128808
-0.000127417
-0.000177757
-0.000177862
-0.000178019
-0.000178217
-0.000178451
-0.00017871
-0.000178982
-0.00017925
-0.00017949
-0.000179674
-0.000179763
-0.000179713
-0.000179471
-0.000178987
-0.00017824
-0.0001777
-0.000227856
-0.000227947
-0.000228083
-0.000228253
-0.000228452
-0.00022867
-0.000228893
-0.000229104
-0.000229281
-0.000229396
-0.000229411
-0.000229284
-0.000228961
-0.000228397
-0.000227569
-0.000227806
-0.000277749
-0.000277826
-0.000277941
-0.000278084
-0.000278248
-0.000278423
-0.000278598
-0.000278754
-0.000278872
-0.000278922
-0.00027887
-0.000278677
-0.000278292
-0.000277673
-0.000276798
-0.000277706
-0.000327422
-0.000327486
-0.00032758
-0.000327695
-0.000327825
-0.00032796
-0.000328088
-0.000328193
-0.000328255
-0.000328248
-0.00032814
-0.000327894
-0.000327467
-0.00032682
-0.000325933
-0.000327386
-0.000376875
-0.000376925
-0.000376998
-0.000377086
-0.000377182
-0.000377279
-0.000377363
-0.000377421
-0.000377434
-0.000377378
-0.000377224
-0.000376941
-0.000376492
-0.000375844
-0.000374978
-0.000376847
-0.000426116
-0.000426152
-0.000426204
-0.000426265
-0.000426329
-0.000426388
-0.000426432
-0.000426447
-0.000426416
-0.000426318
-0.000426131
-0.000425827
-0.000425377
-0.000424753
-0.000423939
-0.000426096
-0.000475162
-0.000475184
-0.000475215
-0.00047525
-0.000475282
-0.000475305
-0.00047531
-0.000475286
-0.000475216
-0.000475085
-0.000474874
-0.000474564
-0.000474132
-0.000473555
-0.000472818
-0.000475149
-0.000524029
-0.000524039
-0.000524051
-0.000524061
-0.000524063
-0.000524052
-0.000524021
-0.00052396
-0.000523856
-0.000523697
-0.000523471
-0.000523166
-0.000522767
-0.000522256
-0.000521617
-0.000524023
-0.000572737
-0.000572736
-0.000572732
-0.000572719
-0.000572694
-0.000572652
-0.000572588
-0.000572494
-0.000572361
-0.000572179
-0.000571946
-0.000571654
-0.000571297
-0.000570862
-0.000570332
-0.000572736
-0.000621302
-0.000621291
-0.000621272
-0.000621241
-0.000621193
-0.000621127
-0.000621037
-0.000620917
-0.000620763
-0.00062057
-0.000620337
-0.000620062
-0.000619744
-0.000619381
-0.000618954
-0.000621306
-0.000669745
-0.000669726
-0.000669695
-0.00066965
-0.000669588
-0.000669507
-0.000669402
-0.000669269
-0.000669107
-0.000668914
-0.000668688
-0.00066843
-0.000668142
-0.000667831
-0.000667488
-0.000669754
-0.000718103
-0.000718079
-0.00071804
-0.000717988
-0.000717919
-0.000717831
-0.00071772
-0.000717585
-0.000717423
-0.000717234
-0.000717019
-0.000716779
-0.000716517
-0.000716242
-0.000715953
-0.000718115
-0.000766412
-0.000766385
-0.000766343
-0.000766287
-0.000766214
-0.000766122
-0.00076601
-0.000765875
-0.000765717
-0.000765537
-0.000765335
-0.000765114
-0.000764877
-0.000764631
-0.000764381
-0.000766426
-0.000814686
-0.000814658
-0.000814615
-0.000814556
-0.000814481
-0.000814389
-0.000814277
-0.000814146
-0.000813995
-0.000813825
-0.000813637
-0.000813435
-0.000813222
-0.000813004
-0.000812786
-0.000814701
-0.000862932
-0.000862904
-0.00086286
-0.000862801
-0.000862726
-0.000862635
-0.000862526
-0.000862401
-0.000862258
-0.000862099
-0.000861927
-0.000861743
-0.000861553
-0.000861361
-0.000861172
-0.000862947
-0.000911156
-0.000911127
-0.000911084
-0.000911026
-0.000910953
-0.000910865
-0.000910761
-0.000910642
-0.000910508
-0.000910362
-0.000910205
-0.00091004
-0.00090987
-0.000909701
-0.000909538
-0.00091117
-0.000959362
-0.000959334
-0.000959292
-0.000959236
-0.000959166
-0.000959082
-0.000958984
-0.000958873
-0.000958749
-0.000958615
-0.000958472
-0.000958324
-0.000958174
-0.000958026
-0.000957885
-0.000959376
-0.00100756
-0.00100753
-0.00100749
-0.00100743
-0.00100737
-0.00100729
-0.0010072
-0.00100709
-0.00100698
-0.00100686
-0.00100673
-0.0010066
-0.00100647
-0.00100634
-0.00100621
-0.00100757
-0.00105574
-0.00105571
-0.00105567
-0.00105562
-0.00105556
-0.00105549
-0.0010554
-0.00105531
-0.00105521
-0.0010551
-0.00105498
-0.00105486
-0.00105475
-0.00105463
-0.00105453
-0.00105575
-0.00110391
-0.00110389
-0.00110385
-0.00110381
-0.00110375
-0.00110368
-0.0011036
-0.00110352
-0.00110342
-0.00110332
-0.00110322
-0.00110312
-0.00110301
-0.00110291
-0.00110282
-0.00110392
-0.00115208
-0.00115206
-0.00115202
-0.00115198
-0.00115193
-0.00115187
-0.00115179
-0.00115171
-0.00115163
-0.00115154
-0.00115145
-0.00115136
-0.00115127
-0.00115118
-0.0011511
-0.00115209
-0.00120024
-0.00120022
-0.00120019
-0.00120015
-0.0012001
-0.00120004
-0.00119998
-0.00119991
-0.00119984
-0.00119976
-0.00119967
-0.00119959
-0.00119951
-0.00119944
-0.00119937
-0.00120025
-0.0012484
-0.00124838
-0.00124835
-0.00124832
-0.00124827
-0.00124822
-0.00124816
-0.0012481
-0.00124803
-0.00124796
-0.00124789
-0.00124782
-0.00124775
-0.00124768
-0.00124762
-0.00124841
-0.00129655
-0.00129653
-0.00129651
-0.00129648
-0.00129644
-0.00129639
-0.00129634
-0.00129628
-0.00129623
-0.00129616
-0.0012961
-0.00129603
-0.00129597
-0.00129591
-0.00129586
-0.00129656
-0.00134471
-0.00134469
-0.00134467
-0.00134464
-0.0013446
-0.00134456
-0.00134451
-0.00134447
-0.00134441
-0.00134436
-0.0013443
-0.00134424
-0.00134419
-0.00134414
-0.00134409
-0.00134472
-0.00139285
-0.00139284
-0.00139282
-0.00139279
-0.00139276
-0.00139273
-0.00139268
-0.00139264
-0.00139259
-0.00139254
-0.00139249
-0.00139244
-0.0013924
-0.00139235
-0.00139231
-0.00139286
-0.001441
-0.00144099
-0.00144097
-0.00144095
-0.00144092
-0.00144089
-0.00144085
-0.00144081
-0.00144077
-0.00144072
-0.00144068
-0.00144064
-0.00144059
-0.00144055
-0.00144051
-0.00144101
-0.00148915
-0.00148914
-0.00148912
-0.0014891
-0.00148907
-0.00148904
-0.00148901
-0.00148898
-0.00148894
-0.0014889
-0.00148886
-0.00148882
-0.00148878
-0.00148875
-0.00148871
-0.00148915
-0.00153729
-0.00153728
-0.00153727
-0.00153725
-0.00153723
-0.0015372
-0.00153717
-0.00153714
-0.00153711
-0.00153707
-0.00153704
-0.001537
-0.00153697
-0.00153694
-0.0015369
-0.00153729
-0.00158543
-0.00158542
-0.00158541
-0.00158539
-0.00158537
-0.00158535
-0.00158532
-0.0015853
-0.00158526
-0.00158524
-0.00158521
-0.00158517
-0.00158514
-0.00158512
-0.00158509
-0.00158543
-0.00163357
-0.00163356
-0.00163355
-0.00163353
-0.00163352
-0.0016335
-0.00163348
-0.00163345
-0.00163342
-0.0016334
-0.00163337
-0.00163334
-0.00163331
-0.00163329
-0.00163326
-0.00163357
-0.0016817
-0.00168169
-0.00168168
-0.00168167
-0.00168166
-0.00168164
-0.00168162
-0.0016816
-0.00168158
-0.00168155
-0.00168152
-0.0016815
-0.00168148
-0.00168145
-0.00168143
-0.00168171
-0.00172983
-0.00172983
-0.00172982
-0.00172981
-0.00172979
-0.00172978
-0.00172976
-0.00172974
-0.00172972
-0.0017297
-0.00172968
-0.00172966
-0.00172963
-0.00172961
-0.00172959
-0.00172984
-0.00177796
-0.00177796
-0.00177795
-0.00177794
-0.00177792
-0.00177791
-0.0017779
-0.00177788
-0.00177786
-0.00177784
-0.00177782
-0.0017778
-0.00177778
-0.00177776
-0.00177774
-0.00177796
-0.00182608
-0.00182608
-0.00182607
-0.00182607
-0.00182605
-0.00182604
-0.00182603
-0.00182601
-0.001826
-0.00182598
-0.00182596
-0.00182594
-0.00182592
-0.00182591
-0.00182589
-0.00182609
-0.0018742
-0.0018742
-0.00187419
-0.00187419
-0.00187418
-0.00187417
-0.00187416
-0.00187414
-0.00187413
-0.00187411
-0.0018741
-0.00187408
-0.00187406
-0.00187405
-0.00187403
-0.00187421
-0.00192232
-0.00192232
-0.00192232
-0.00192231
-0.00192229
-0.00192229
-0.00192228
-0.00192227
-0.00192225
-0.00192224
-0.00192223
-0.00192221
-0.0019222
-0.00192218
-0.00192216
-0.00192233
-0.00197044
-0.00197044
-0.00197043
-0.00197042
-0.00197042
-0.00197041
-0.0019704
-0.00197039
-0.00197038
-0.00197037
-0.00197035
-0.00197034
-0.00197032
-0.00197031
-0.00197029
-0.00197044
-0.00201855
-0.00201855
-0.00201854
-0.00201854
-0.00201853
-0.00201852
-0.00201851
-0.0020185
-0.00201849
-0.00201848
-0.00201847
-0.00201846
-0.00201845
-0.00201843
-0.00201841
-0.00201855
-0.00206665
-0.00206665
-0.00206665
-0.00206664
-0.00206664
-0.00206663
-0.00206662
-0.00206661
-0.0020666
-0.00206659
-0.00206658
-0.00206657
-0.00206656
-0.00206655
-0.00206653
-0.00206666
-0.00211475
-0.00211475
-0.00211475
-0.00211475
-0.00211474
-0.00211474
-0.00211473
-0.00211472
-0.00211471
-0.0021147
-0.00211469
-0.00211468
-0.00211467
-0.00211466
-0.00211465
-0.00211476
-0.00216285
-0.00216285
-0.00216285
-0.00216284
-0.00216284
-0.00216284
-0.00216283
-0.00216283
-0.00216282
-0.00216281
-0.0021628
-0.00216279
-0.00216278
-0.00216277
-0.00216275
-0.00216286
-0.00221095
-0.00221095
-0.00221094
-0.00221094
-0.00221094
-0.00221093
-0.00221093
-0.00221092
-0.00221091
-0.00221091
-0.0022109
-0.00221089
-0.00221088
-0.00221087
-0.00221086
-0.00221095
-0.00225904
-0.00225904
-0.00225904
-0.00225903
-0.00225903
-0.00225903
-0.00225902
-0.00225901
-0.00225901
-0.002259
-0.002259
-0.00225899
-0.00225898
-0.00225897
-0.00225896
-0.00225904
-0.00230713
-0.00230712
-0.00230712
-0.00230712
-0.00230712
-0.00230711
-0.00230711
-0.0023071
-0.0023071
-0.00230709
-0.00230709
-0.00230708
-0.00230707
-0.00230706
-0.00230705
-0.00230713
-0.00235521
-0.0023552
-0.0023552
-0.0023552
-0.0023552
-0.0023552
-0.00235519
-0.00235519
-0.00235518
-0.00235518
-0.00235517
-0.00235517
-0.00235516
-0.00235515
-0.00235514
-0.00235521
-0.00240329
-0.00240328
-0.00240328
-0.00240328
-0.00240328
-0.00240328
-0.00240327
-0.00240327
-0.00240326
-0.00240326
-0.00240326
-0.00240325
-0.00240325
-0.00240324
-0.00240322
-0.00240329
-0.00245136
-0.00245136
-0.00245136
-0.00245136
-0.00245136
-0.00245135
-0.00245135
-0.00245135
-0.00245134
-0.00245134
-0.00245133
-0.00245133
-0.00245132
-0.00245132
-0.00245131
-0.00245136
-0.00249943
-0.00249943
-0.00249943
-0.00249943
-0.00249943
-0.00249943
-0.00249942
-0.00249942
-0.00249942
-0.00249941
-0.00249941
-0.0024994
-0.0024994
-0.00249939
-0.00249938
-0.00249943
-0.0025475
-0.0025475
-0.0025475
-0.0025475
-0.00254749
-0.00254749
-0.00254749
-0.00254749
-0.00254749
-0.00254748
-0.00254748
-0.00254748
-0.00254747
-0.00254746
-0.00254745
-0.0025475
-0.00259556
-0.00259556
-0.00259556
-0.00259556
-0.00259556
-0.00259555
-0.00259555
-0.00259555
-0.00259555
-0.00259555
-0.00259554
-0.00259554
-0.00259554
-0.00259553
-0.00259552
-0.00259556
-0.00264362
-0.00264362
-0.00264362
-0.00264362
-0.00264362
-0.00264361
-0.00264361
-0.00264361
-0.00264361
-0.00264361
-0.00264361
-0.0026436
-0.0026436
-0.0026436
-0.00264359
-0.00264362
-0.00269168
-0.00269168
-0.00269168
-0.00269167
-0.00269167
-0.00269167
-0.00269167
-0.00269167
-0.00269167
-0.00269167
-0.00269167
-0.00269166
-0.00269166
-0.00269165
-0.00269165
-0.00269168
-0.00273973
-0.00273973
-0.00273973
-0.00273973
-0.00273973
-0.00273973
-0.00273973
-0.00273972
-0.00273972
-0.00273972
-0.00273972
-0.00273972
-0.00273971
-0.00273971
-0.0027397
-0.00273973
-0.00278777
-0.00278777
-0.00278777
-0.00278777
-0.00278777
-0.00278777
-0.00278777
-0.00278777
-0.00278777
-0.00278777
-0.00278777
-0.00278777
-0.00278777
-0.00278776
-0.00278776
-0.00278777
-0.00283582
-0.00283582
-0.00283582
-0.00283582
-0.00283582
-0.00283581
-0.00283581
-0.00283581
-0.00283581
-0.00283581
-0.00283581
-0.00283581
-0.00283581
-0.00283581
-0.0028358
-0.00283582
-0.00288386
-0.00288386
-0.00288386
-0.00288386
-0.00288386
-0.00288386
-0.00288385
-0.00288385
-0.00288385
-0.00288385
-0.00288385
-0.00288385
-0.00288385
-0.00288385
-0.00288385
-0.00288386
-0.00293189
-0.00293189
-0.00293189
-0.00293189
-0.00293189
-0.00293189
-0.00293189
-0.00293189
-0.00293189
-0.00293189
-0.00293189
-0.00293189
-0.00293189
-0.00293189
-0.00293189
-0.00293189
-0.00297993
-0.00297992
-0.00297993
-0.00297993
-0.00297993
-0.00297993
-0.00297993
-0.00297993
-0.00297992
-0.00297992
-0.00297993
-0.00297993
-0.00297992
-0.00297993
-0.00297993
-0.00297993
-0.00302795
-0.00302796
-0.00302796
-0.00302796
-0.00302795
-0.00302796
-0.00302795
-0.00302796
-0.00302795
-0.00302796
-0.00302795
-0.00302795
-0.00302796
-0.00302795
-0.00302795
-0.00302796
-0.00307599
-0.00307598
-0.00307598
-0.00307598
-0.00307598
-0.00307598
-0.00307598
-0.00307598
-0.00307599
-0.00307598
-0.00307598
-0.00307599
-0.00307598
-0.00307598
-0.00307598
-0.00307598
)
;

boundaryField
{
    wireUpstream
    {
        type            calculated;
        value           nonuniform List<scalar> 
16
(
-0.0031
-0.0031
-0.0031
-0.0031
-0.0031
-0.0031
-0.0031
-0.0031
-0.0031
-0.0031
-0.0031
-0.0031
-0.0031
-0.0031
-0.0031
-0.0031
)
;
    }
    wireDownstream
    {
        type            calculated;
        value           nonuniform List<scalar> 
16
(
0.003
0.003
0.003
0.003
0.003
0.003
0.003
0.003
0.003
0.003
0.003
0.003
0.003
0.003
0.003
0.003
)
;
    }
    wireTopContact
    {
        type            calculated;
        value           nonuniform List<scalar> 
122
(
0.00283059
0.00278039
0.0027302
0.00268
0.0026298
0.00257961
0.00252941
0.00247921
0.00242902
0.00237882
0.00232862
0.00227843
0.00222823
0.00217803
0.00212783
0.00207764
0.00202744
0.00197724
0.00192704
0.00187684
0.00182664
0.00177645
0.00172625
0.00167605
0.00162585
0.00157565
0.00152545
0.00147525
0.00142505
0.00137484
0.00132464
0.00127444
0.00122423
0.00117403
0.00112382
0.0010736
0.00102338
0.000973171
0.000922952
0.00087273
0.000822505
0.000772276
0.000722044
0.000671808
0.000621569
0.000571325
0.000521081
0.000470846
0.000420627
0.000370426
0.000320245
0.00027009
0.000219972
0.000169909
0.000119925
7.00392e-05
2.02619e-05
-2.94055e-05
-7.89672e-05
-0.000128431
-0.000177804
-0.000227091
-0.000276299
-0.000325432
-0.000374493
-0.000423486
-0.00047241
-0.000521264
-0.000570038
-0.000618721
-0.000667303
-0.000715804
-0.000764255
-0.000812679
-0.00086108
-0.000909459
-0.000957817
-0.00100616
-0.00105448
-0.00110278
-0.00115106
-0.00119933
-0.00124759
-0.00129583
-0.00134407
-0.00139229
-0.0014405
-0.0014887
-0.00153689
-0.00158507
-0.00163325
-0.00168142
-0.00172958
-0.00177773
-0.00182588
-0.00187402
-0.00192215
-0.00197028
-0.0020184
-0.00206652
-0.00211464
-0.00216275
-0.00221085
-0.00225895
-0.00230705
-0.00235513
-0.00240322
-0.0024513
-0.00249938
-0.00254745
-0.00259552
-0.00264358
-0.00269164
-0.0027397
-0.00278776
-0.0028358
-0.00288385
-0.00293189
-0.00297993
-0.00302796
-0.00307598
0.00292784
)
;
    }
    front
    {
        type            wedge;
    }
    back
    {
        type            wedge;
    }
}


// ************************************************************************* //
