/*--------------------------------*- C++ -*----------------------------------*\
| =========                 |                                                 |
| \\      /  F ield         | foam-extend: Open Source CFD                    |
|  \\    /   O peration     | Version:     4.1-20200408                       |
|   \\  /    A nd           | Web:         http://www.foam-extend.org         |
|    \\/     M anipulation  |                                                 |
\*---------------------------------------------------------------------------*/
FoamFile
{
    version     2.0;
    format      ascii;
    class       volSymmTensorField;
    location    "0.0440000";
    object      epsilonTrue;
}
// * * * * * * * * * * * * * * * * * * * * * * * * * * * * * * * * * * * * * //

dimensions      [0 0 0 0 0 0 0];

internalField   nonuniform List<symmTensor> 
1952
(
(0.0361546 -0.00155136 -5.24817e-11 -0.0189315 1.94454e-10 -0.0189546)
(0.0361581 -0.00261121 -2.49502e-11 -0.0189058 -5.51435e-10 -0.0189357)
(0.0361657 -0.00355935 3.35854e-11 -0.0188542 -1.47853e-09 -0.018929)
(0.0361739 -0.00447337 9.45704e-11 -0.018802 1.11958e-09 -0.0189025)
(0.0361858 -0.00531593 -3.85158e-11 -0.0187127 2.9147e-09 -0.0188865)
(0.0361982 -0.00603912 -1.97273e-10 -0.0186223 -1.25728e-10 -0.0188483)
(0.036215 -0.00664274 -9.42329e-11 -0.0184878 -3.37961e-09 -0.0188204)
(0.0362329 -0.00704097 1.60521e-10 -0.0183363 -2.38369e-10 -0.0187677)
(0.0362545 -0.00720824 -1.28339e-11 -0.0181415 2.96492e-09 -0.0187222)
(0.0362733 -0.00709388 -2.78619e-10 -0.0178937 -9.77912e-10 -0.0186513)
(0.0362956 -0.00658679 5.14874e-11 -0.0175869 -3.0033e-09 -0.0185797)
(0.0363148 -0.0057242 2.50901e-10 -0.0171301 7.53563e-10 -0.0184812)
(0.0363317 -0.00439617 -2.83889e-11 -0.0165872 2.94319e-09 -0.0183634)
(0.0363439 -0.00272187 -1.96512e-10 -0.0158252 2.00874e-10 -0.0182175)
(0.0363498 -0.00120928 -1.32242e-10 -0.0153469 -9.9201e-10 -0.0180337)
(0.0361507 -0.000781974 -1.92102e-11 -0.0189587 -1.13266e-09 -0.0189417)
(0.0362278 -0.00155541 -7.86177e-11 -0.0189739 1.94889e-10 -0.0189968)
(0.036231 -0.00262165 -4.32558e-11 -0.0189474 -5.5273e-10 -0.0189781)
(0.0362387 -0.00356976 5.22112e-11 -0.0188953 -1.48179e-09 -0.0189709)
(0.0362464 -0.00448944 1.49086e-10 -0.0188424 1.12228e-09 -0.0189444)
(0.0362583 -0.00533176 -5.65881e-11 -0.0187516 2.92113e-09 -0.0189278)
(0.0362701 -0.00605865 -2.85824e-10 -0.0186608 -1.26139e-10 -0.0188892)
(0.036287 -0.00666252 -1.13901e-10 -0.0185243 -3.38702e-09 -0.018861)
(0.0363037 -0.00706135 2.10964e-10 -0.0183717 -2.38905e-10 -0.0188076)
(0.0363262 -0.00722785 -2.3693e-11 -0.0181763 2.97121e-09 -0.0187617)
(0.0363443 -0.00711085 -3.48696e-10 -0.017928 -9.79967e-10 -0.0186903)
(0.036367 -0.00660434 4.8403e-11 -0.0176198 -3.0095e-09 -0.0186183)
(0.0363859 -0.00573575 2.98038e-10 -0.0171625 7.54982e-10 -0.0185191)
(0.0364033 -0.00440792 -3.50034e-11 -0.0166185 2.94924e-09 -0.0184011)
(0.0364152 -0.00272295 -2.62973e-10 -0.0158561 2.01477e-10 -0.0182545)
(0.0364211 -0.00121025 -1.51107e-10 -0.0153792 -9.94179e-10 -0.0180705)
(0.0362239 -0.000785474 -2.56422e-11 -0.0190009 -1.13512e-09 -0.0189842)
(0.0363006 -0.00155877 -7.87404e-11 -0.019014 1.95336e-10 -0.019037)
(0.0363036 -0.00262755 -4.33001e-11 -0.0189871 -5.53906e-10 -0.0190182)
(0.0363114 -0.00357736 5.22802e-11 -0.0189346 -1.48493e-09 -0.0190109)
(0.0363187 -0.00449911 1.49233e-10 -0.0188813 1.12466e-09 -0.0189841)
(0.0363307 -0.00534269 -5.66609e-11 -0.0187897 2.92731e-09 -0.0189674)
(0.036342 -0.00607103 -2.86119e-10 -0.0186983 -1.2633e-10 -0.0189285)
(0.0363588 -0.00667571 -1.14279e-10 -0.0185606 -3.39414e-09 -0.0189)
(0.0363745 -0.00707527 2.10756e-10 -0.018407 -2.39517e-10 -0.0188462)
(0.0363978 -0.00724102 -2.37251e-11 -0.0182116 2.97733e-09 -0.0188)
(0.0364154 -0.0071227 -3.48674e-10 -0.0179628 -9.81946e-10 -0.0187282)
(0.0364382 -0.00661524 4.86328e-11 -0.0176537 -3.01561e-09 -0.018656)
(0.0364566 -0.00574482 2.98073e-10 -0.0171956 7.5643e-10 -0.0185564)
(0.0364739 -0.00441526 -3.50047e-11 -0.0166505 2.95519e-09 -0.0184381)
(0.0364856 -0.00272671 -2.63262e-10 -0.0158873 2.02099e-10 -0.0182911)
(0.0364915 -0.00121227 -1.51238e-10 -0.0154109 -9.9623e-10 -0.0181068)
(0.0362967 -0.000787379 -2.57201e-11 -0.019041 -1.13744e-09 -0.0190245)
(0.0363725 -0.00156195 -7.88642e-11 -0.0190531 1.95779e-10 -0.0190762)
(0.0363754 -0.0026331 -4.33364e-11 -0.019026 -5.55038e-10 -0.0190573)
(0.0363831 -0.00358457 5.23492e-11 -0.018973 -1.48801e-09 -0.0190499)
(0.0363902 -0.00450825 1.49347e-10 -0.0189194 1.12696e-09 -0.0190229)
(0.0364024 -0.00535309 -5.67354e-11 -0.0188272 2.93335e-09 -0.0190061)
(0.0364132 -0.00608277 -2.86371e-10 -0.0187354 -1.26542e-10 -0.0189669)
(0.0364302 -0.0066882 -1.14674e-10 -0.0185969 -3.40109e-09 -0.0189383)
(0.0364454 -0.00708865 2.10418e-10 -0.0184426 -2.40053e-10 -0.0188841)
(0.0364689 -0.00725367 -2.37646e-11 -0.0182469 2.98336e-09 -0.0188377)
(0.0364862 -0.00713404 -3.48596e-10 -0.0179978 -9.83894e-10 -0.0187657)
(0.0365091 -0.00662558 4.88784e-11 -0.017688 -3.02166e-09 -0.0186932)
(0.0365272 -0.00575344 2.98092e-10 -0.0172291 7.57915e-10 -0.0185934)
(0.0365444 -0.00442209 -3.50072e-11 -0.0166829 2.96111e-09 -0.0184747)
(0.0365558 -0.00273025 -2.63513e-10 -0.0159189 2.02648e-10 -0.0183274)
(0.0365619 -0.00121416 -1.51354e-10 -0.0154426 -9.98269e-10 -0.0181428)
(0.0363686 -0.000789202 -2.57503e-11 -0.0190803 -1.1397e-09 -0.0190637)
(0.0364433 -0.00156498 -7.89855e-11 -0.0190914 1.9621e-10 -0.0191147)
(0.0364462 -0.00263836 -4.33684e-11 -0.0190643 -5.56148e-10 -0.0190957)
(0.036454 -0.00359143 5.24148e-11 -0.0190109 -1.49103e-09 -0.0190883)
(0.0364609 -0.00451694 1.49425e-10 -0.018957 1.12922e-09 -0.0190611)
(0.0364733 -0.00536294 -5.68128e-11 -0.0188644 2.93929e-09 -0.0190442)
(0.0364838 -0.00609396 -2.8657e-10 -0.0187721 -1.26747e-10 -0.0190048)
(0.036501 -0.00670006 -1.15086e-10 -0.018633 -3.40794e-09 -0.018976)
(0.0365159 -0.00710152 2.10046e-10 -0.0184781 -2.40577e-10 -0.0189216)
(0.0365397 -0.00726588 -2.38063e-11 -0.0182823 2.98932e-09 -0.018875)
(0.0365568 -0.00714499 -3.48463e-10 -0.0180327 -9.85818e-10 -0.0188028)
(0.03658 -0.00663556 4.91438e-11 -0.0177224 -3.02766e-09 -0.0187301)
(0.0365978 -0.00576178 2.98081e-10 -0.0172627 7.59398e-10 -0.01863)
(0.036615 -0.00442868 -3.50109e-11 -0.0167156 2.96697e-09 -0.0185111)
(0.0366264 -0.00273369 -2.63753e-10 -0.0159508 2.03174e-10 -0.0183635)
(0.0366325 -0.00121599 -1.51464e-10 -0.0154745 -1.0003e-09 -0.0181786)
(0.0364393 -0.000790972 -2.57989e-11 -0.0191188 -1.14191e-09 -0.019102)
(0.0365135 -0.00156795 -7.91034e-11 -0.0191293 1.9663e-10 -0.0191525)
(0.0365165 -0.00264348 -4.34048e-11 -0.019102 -5.57247e-10 -0.0191335)
(0.0365244 -0.00359804 5.24765e-11 -0.0190483 -1.494e-09 -0.0191261)
(0.0365311 -0.00452539 1.49483e-10 -0.0189943 1.13145e-09 -0.0190987)
(0.0365438 -0.00537245 -5.6892e-11 -0.0189012 2.94516e-09 -0.0190818)
(0.036554 -0.00610481 -2.86734e-10 -0.0188086 -1.26942e-10 -0.0190422)
(0.0365716 -0.00671153 -1.15514e-10 -0.018669 -3.41472e-09 -0.0190134)
(0.0365862 -0.00711406 2.096e-10 -0.0185135 -2.411e-10 -0.0189587)
(0.0366103 -0.0072778 -2.38509e-11 -0.0183175 2.99523e-09 -0.0189119)
(0.0366272 -0.00715561 -3.48284e-10 -0.0180676 -9.87741e-10 -0.0188395)
(0.0366506 -0.00664525 4.94241e-11 -0.0177568 -3.03361e-09 -0.0187667)
(0.0366683 -0.00576982 2.98052e-10 -0.0172965 7.60874e-10 -0.0186664)
(0.0366856 -0.00443502 -3.50154e-11 -0.0167484 2.9728e-09 -0.0185473)
(0.036697 -0.00273696 -2.63985e-10 -0.0159829 2.03695e-10 -0.0183994)
(0.0367032 -0.00121777 -1.51569e-10 -0.0155066 -1.00232e-09 -0.0182142)
(0.0365093 -0.000792785 -2.58685e-11 -0.0191566 -1.14409e-09 -0.0191397)
(0.0365832 -0.00157093 -7.92172e-11 -0.0191666 1.97049e-10 -0.0191899)
(0.0365863 -0.00264855 -4.34434e-11 -0.0191394 -5.5833e-10 -0.0191709)
(0.0365943 -0.0036045 5.2539e-11 -0.0190854 -1.49694e-09 -0.0191635)
(0.036601 -0.00453372 1.4953e-10 -0.0190312 1.13364e-09 -0.019136)
(0.0366139 -0.00538177 -5.69741e-11 -0.0189378 2.95097e-09 -0.0191191)
(0.036624 -0.00611547 -2.86864e-10 -0.0188448 -1.27125e-10 -0.0190792)
(0.0366418 -0.00672275 -1.15961e-10 -0.0187048 -3.42145e-09 -0.0190504)
(0.0366561 -0.00712632 2.09099e-10 -0.0185486 -2.41617e-10 -0.0189955)
(0.0366805 -0.00728949 -2.38975e-11 -0.0183527 3.00109e-09 -0.0189486)
(0.0366974 -0.00716603 -3.48082e-10 -0.0181025 -9.8965e-10 -0.018876)
(0.0367211 -0.0066547 4.97144e-11 -0.0177912 -3.03953e-09 -0.018803)
(0.0367388 -0.00577764 2.98009e-10 -0.0173302 7.62338e-10 -0.0187026)
(0.0367563 -0.00444117 -3.50203e-11 -0.0167812 2.9786e-09 -0.0185833)
(0.0367677 -0.00274008 -2.64213e-10 -0.0160151 2.0421e-10 -0.0184351)
(0.0367741 -0.00121948 -1.51669e-10 -0.0155387 -1.00433e-09 -0.0182497)
(0.0365789 -0.0007947 -2.59304e-11 -0.0191941 -1.14624e-09 -0.019177)
(0.0366526 -0.0015739 -7.93325e-11 -0.0192036 1.97466e-10 -0.0192271)
(0.0366558 -0.00265357 -4.34804e-11 -0.0191765 -5.59396e-10 -0.0192079)
(0.0366639 -0.00361087 5.26031e-11 -0.0191221 -1.49986e-09 -0.0192006)
(0.0366707 -0.00454195 1.49563e-10 -0.0190679 1.1358e-09 -0.0191729)
(0.0366838 -0.00539093 -5.70583e-11 -0.0189742 2.95674e-09 -0.0191561)
(0.0366938 -0.00612598 -2.86962e-10 -0.018881 -1.27295e-10 -0.019116)
(0.036712 -0.00673373 -1.16431e-10 -0.0187405 -3.42814e-09 -0.0190872)
(0.0367257 -0.00713837 2.08499e-10 -0.0185837 -2.42136e-10 -0.019032)
(0.0367505 -0.00730107 -2.39482e-11 -0.0183877 3.00692e-09 -0.018985)
(0.0367676 -0.00717629 -3.47855e-10 -0.0181374 -9.91541e-10 -0.0189123)
(0.0367914 -0.00666399 5.00129e-11 -0.0178256 -3.0454e-09 -0.0188392)
(0.0368092 -0.00578529 2.97957e-10 -0.017364 7.63784e-10 -0.0187385)
(0.0368269 -0.00444719 -3.50264e-11 -0.0168141 2.98437e-09 -0.0186191)
(0.0368384 -0.00274311 -2.64438e-10 -0.0160472 2.04729e-10 -0.0184706)
(0.0368449 -0.00122116 -1.51766e-10 -0.0155709 -1.00633e-09 -0.018285)
(0.0366483 -0.000796605 -2.59823e-11 -0.0192312 -1.14837e-09 -0.0192142)
(0.0367217 -0.00157694 -7.94472e-11 -0.0192404 1.97877e-10 -0.0192639)
(0.0367251 -0.00265868 -4.35209e-11 -0.0192133 -5.60454e-10 -0.0192446)
(0.0367333 -0.00361724 5.26666e-11 -0.0191587 -1.50276e-09 -0.0192374)
(0.0367402 -0.00455019 1.49585e-10 -0.0191044 1.13794e-09 -0.0192096)
(0.0367535 -0.00540011 -5.71448e-11 -0.0190104 2.96247e-09 -0.0191928)
(0.0367634 -0.00613646 -2.87029e-10 -0.018917 -1.27458e-10 -0.0191526)
(0.036782 -0.00674464 -1.16931e-10 -0.0187761 -3.4348e-09 -0.0191237)
(0.036795 -0.00715026 2.07793e-10 -0.0186186 -2.42664e-10 -0.0190684)
(0.0368202 -0.00731259 -2.39995e-11 -0.0184227 3.01272e-09 -0.0190212)
(0.0368375 -0.00718652 -3.47642e-10 -0.0181722 -9.9341e-10 -0.0189484)
(0.0368616 -0.00667319 5.03138e-11 -0.0178599 -3.05125e-09 -0.0188752)
(0.0368795 -0.00579289 2.97901e-10 -0.0173977 7.65216e-10 -0.0187744)
(0.0368973 -0.00445313 -3.50324e-11 -0.016847 2.99012e-09 -0.0186547)
(0.036909 -0.00274608 -2.64648e-10 -0.0160794 2.05257e-10 -0.018506)
(0.0369158 -0.00122285 -1.51864e-10 -0.0156032 -1.00833e-09 -0.0183202)
(0.0367174 -0.00079851 -2.60437e-11 -0.019268 -1.15049e-09 -0.019251)
(0.0367903 -0.00158001 -7.95887e-11 -0.0192768 1.9828e-10 -0.0193003)
(0.0367942 -0.00266384 -4.35754e-11 -0.01925 -5.61499e-10 -0.0192811)
(0.0368026 -0.00362364 5.27259e-11 -0.0191952 -1.50565e-09 -0.019274)
(0.0368094 -0.00455843 1.49594e-10 -0.0191407 1.14009e-09 -0.0192461)
(0.036823 -0.00540934 -5.723e-11 -0.0190464 2.96816e-09 -0.0192293)
(0.0368329 -0.00614695 -2.87065e-10 -0.0189527 -1.27648e-10 -0.0191889)
(0.0368519 -0.00675553 -1.1747e-10 -0.0188115 -3.4414e-09 -0.01916)
(0.0368647 -0.0071619 2.06944e-10 -0.0186538 -2.43208e-10 -0.0191045)
(0.0368898 -0.00732404 -2.40537e-11 -0.0184576 3.01849e-09 -0.0190574)
(0.0369074 -0.00719669 -3.47432e-10 -0.0182069 -9.95207e-10 -0.0189843)
(0.0369317 -0.00668228 5.06192e-11 -0.0178942 -3.05707e-09 -0.0189111)
(0.0369497 -0.0058004 2.97841e-10 -0.0174314 7.66624e-10 -0.01881)
(0.0369678 -0.00445902 -3.50387e-11 -0.0168799 2.99585e-09 -0.0186903)
(0.0369795 -0.00274901 -2.64856e-10 -0.0161116 2.05786e-10 -0.0185413)
(0.0369865 -0.00122452 -1.51963e-10 -0.0156355 -1.01032e-09 -0.0183553)
(0.036786 -0.000800407 -2.61194e-11 -0.0193044 -1.15259e-09 -0.0192876)
(0.0368588 -0.0015831 -7.97383e-11 -0.019313 1.98682e-10 -0.0193366)
(0.036863 -0.00266911 -4.36446e-11 -0.0192865 -5.62544e-10 -0.0193174)
(0.0368717 -0.00363004 5.27856e-11 -0.0192315 -1.50851e-09 -0.0193104)
(0.0368784 -0.00456662 1.49565e-10 -0.0191767 1.14225e-09 -0.0192824)
(0.0368923 -0.00541857 -5.73195e-11 -0.0190823 2.97382e-09 -0.0192656)
(0.0369022 -0.00615744 -2.87068e-10 -0.0189883 -1.27917e-10 -0.0192251)
(0.0369217 -0.00676651 -1.18017e-10 -0.018847 -3.44791e-09 -0.0191961)
(0.0369352 -0.00717328 2.06231e-10 -0.0186897 -2.43694e-10 -0.0191406)
(0.0369595 -0.00733538 -2.41033e-11 -0.0184925 3.02425e-09 -0.0190934)
(0.0369772 -0.00720683 -3.47231e-10 -0.0182413 -9.96959e-10 -0.0190202)
(0.0370017 -0.0066914 5.09323e-11 -0.0179284 -3.06287e-09 -0.0189468)
(0.0370198 -0.00580787 2.9777e-10 -0.017465 7.68009e-10 -0.0188456)
(0.0370381 -0.00446489 -3.50452e-11 -0.0169128 3.00157e-09 -0.0187257)
(0.03705 -0.00275188 -2.6505e-10 -0.0161437 2.06318e-10 -0.0185765)
(0.0370572 -0.00122621 -1.52064e-10 -0.0156678 -1.01231e-09 -0.0183904)
(0.0368545 -0.0008022 -2.61476e-11 -0.0193406 -1.15468e-09 -0.019324)
(0.0369274 -0.00158623 -7.989e-11 -0.0193492 1.99089e-10 -0.0193729)
(0.0369317 -0.00267444 -4.37135e-11 -0.0193226 -5.63598e-10 -0.0193536)
(0.0369405 -0.00363644 5.28383e-11 -0.0192675 -1.51135e-09 -0.0193466)
(0.0369473 -0.00457488 1.49517e-10 -0.0192125 1.14444e-09 -0.0193186)
(0.0369615 -0.00542779 -5.74116e-11 -0.0191181 2.97946e-09 -0.0193017)
(0.0369715 -0.006168 -2.87058e-10 -0.0190237 -1.28213e-10 -0.0192612)
(0.0369913 -0.0067776 -1.18556e-10 -0.0188823 -3.45439e-09 -0.0192321)
(0.0370055 -0.00718471 2.05713e-10 -0.0187253 -2.44134e-10 -0.0191765)
(0.0370293 -0.00734661 -2.41479e-11 -0.0185274 3.02999e-09 -0.0191293)
(0.037047 -0.00721699 -3.47007e-10 -0.0182758 -9.98766e-10 -0.0190559)
(0.0370716 -0.00670059 5.12449e-11 -0.0179625 -3.06865e-09 -0.0189825)
(0.0370899 -0.00581536 2.97688e-10 -0.0174985 7.69406e-10 -0.0188811)
(0.0371085 -0.00447079 -3.5052e-11 -0.0169457 3.00727e-09 -0.0187611)
(0.0371205 -0.00275475 -2.65253e-10 -0.0161759 2.06839e-10 -0.0186117)
(0.0371278 -0.00122789 -1.52166e-10 -0.0157001 -1.0143e-09 -0.0184253)
(0.0369232 -0.000804007 -2.62287e-11 -0.0193769 -1.15676e-09 -0.0193603)
(0.0369959 -0.0015894 -8.00473e-11 -0.0193853 1.99492e-10 -0.019409)
(0.0370002 -0.00267988 -4.37772e-11 -0.0193585 -5.64648e-10 -0.0193897)
(0.0370092 -0.00364288 5.28975e-11 -0.0193035 -1.51418e-09 -0.0193826)
(0.0370161 -0.00458325 1.49468e-10 -0.0192483 1.14663e-09 -0.0193546)
(0.0370307 -0.00543706 -5.75059e-11 -0.0191539 2.98507e-09 -0.0193376)
(0.0370408 -0.00617867 -2.87046e-10 -0.0190591 -1.28511e-10 -0.0192972)
(0.0370608 -0.00678883 -1.19093e-10 -0.0189175 -3.46085e-09 -0.0192679)
(0.0370754 -0.00719622 2.05269e-10 -0.0187608 -2.44585e-10 -0.0192123)
(0.0370991 -0.00735779 -2.41925e-11 -0.0185624 3.03571e-09 -0.0191651)
(0.037117 -0.00722719 -3.46803e-10 -0.0183105 -1.0006e-09 -0.0190916)
(0.0371416 -0.00670979 5.1552e-11 -0.0179967 -3.07443e-09 -0.0190181)
(0.0371601 -0.00582292 2.97611e-10 -0.0175322 7.70801e-10 -0.0189165)
(0.0371789 -0.00447674 -3.50592e-11 -0.0169786 3.01296e-09 -0.0187964)
(0.0371909 -0.00275768 -2.65456e-10 -0.0162081 2.07354e-10 -0.0186467)
(0.0371983 -0.00122961 -1.52271e-10 -0.0157323 -1.01628e-09 -0.0184602)
(0.0369916 -0.000805822 -2.62903e-11 -0.0194131 -1.15883e-09 -0.0193964)
(0.0370643 -0.0015926 -8.02037e-11 -0.0194213 1.99893e-10 -0.019445)
(0.0370687 -0.00268539 -4.38476e-11 -0.0193944 -5.65695e-10 -0.0194257)
(0.0370779 -0.0036494 5.29565e-11 -0.0193393 -1.517e-09 -0.0194186)
(0.0370849 -0.00459174 1.49416e-10 -0.019284 1.14882e-09 -0.0193905)
(0.0370997 -0.00544646 -5.76019e-11 -0.0191895 2.99067e-09 -0.0193735)
(0.03711 -0.00618948 -2.87045e-10 -0.0190945 -1.28803e-10 -0.019333)
(0.0371302 -0.00680028 -1.19626e-10 -0.0189525 -3.4673e-09 -0.0193036)
(0.0371451 -0.0072079 2.0487e-10 -0.018796 -2.45043e-10 -0.019248)
(0.0371688 -0.00736906 -2.4235e-11 -0.0185973 3.04142e-09 -0.0192007)
(0.0371869 -0.00723755 -3.46614e-10 -0.0183451 -1.00245e-09 -0.0191271)
(0.0372116 -0.00671917 5.18564e-11 -0.0180309 -3.0802e-09 -0.0190536)
(0.0372302 -0.00583068 2.97531e-10 -0.0175658 7.72212e-10 -0.0189519)
(0.0372492 -0.00448287 -3.50663e-11 -0.0170114 3.01864e-09 -0.0188316)
(0.0372613 -0.00276071 -2.65647e-10 -0.0162402 2.07868e-10 -0.0186817)
(0.0372687 -0.00123137 -1.52384e-10 -0.0157645 -1.01825e-09 -0.018495)
(0.03706 -0.000807659 -2.63348e-11 -0.0194491 -1.1609e-09 -0.0194324)
(0.0371324 -0.00159584 -8.0365e-11 -0.0194571 2.00293e-10 -0.0194809)
(0.0371369 -0.002691 -4.39096e-11 -0.0194301 -5.66738e-10 -0.0194615)
(0.0371463 -0.00365606 5.30122e-11 -0.0193751 -1.5198e-09 -0.0194544)
(0.0371534 -0.00460041 1.4936e-10 -0.0193195 1.151e-09 -0.0194263)
(0.0371684 -0.00545609 -5.76994e-11 -0.0192249 2.99624e-09 -0.0194092)
(0.0371789 -0.00620051 -2.87051e-10 -0.0191297 -1.29086e-10 -0.0193687)
(0.0371993 -0.00681197 -1.20164e-10 -0.0189874 -3.47373e-09 -0.0193392)
(0.0372144 -0.00721979 2.04471e-10 -0.018831 -2.45514e-10 -0.0192835)
(0.0372384 -0.00738053 -2.42785e-11 -0.0186321 3.0471e-09 -0.0192362)
(0.0372567 -0.0072481 -3.46439e-10 -0.0183798 -1.0043e-09 -0.0191625)
(0.0372815 -0.00672869 5.21564e-11 -0.0180651 -3.08595e-09 -0.0190889)
(0.0373002 -0.00583861 2.97457e-10 -0.0175995 7.7363e-10 -0.0189871)
(0.0373194 -0.00448913 -3.50726e-11 -0.0170443 3.0243e-09 -0.0188667)
(0.0373316 -0.00276384 -2.65844e-10 -0.0162724 2.0838e-10 -0.0187166)
(0.0373391 -0.00123318 -1.52499e-10 -0.0157968 -1.02023e-09 -0.0185297)
(0.0371281 -0.000809524 -2.64061e-11 -0.0194849 -1.16296e-09 -0.0194682)
(0.0372003 -0.00159916 -8.05227e-11 -0.0194928 2.00691e-10 -0.0195166)
(0.0372048 -0.00269674 -4.39732e-11 -0.0194657 -5.67776e-10 -0.0194972)
(0.0372143 -0.00366287 5.30719e-11 -0.0194106 -1.5226e-09 -0.01949)
(0.0372216 -0.00460927 1.49305e-10 -0.0193549 1.15316e-09 -0.019462)
(0.0372368 -0.00546593 -5.77966e-11 -0.0192602 3.00179e-09 -0.0194447)
(0.0372475 -0.00621174 -2.87066e-10 -0.0191647 -1.29365e-10 -0.0194043)
(0.0372681 -0.00682389 -1.207e-10 -0.0190221 -3.48013e-09 -0.0193747)
(0.0372835 -0.00723191 2.04084e-10 -0.0188659 -2.45986e-10 -0.0193189)
(0.0373078 -0.00739219 -2.43232e-11 -0.0186669 3.05275e-09 -0.0192716)
(0.0373263 -0.00725884 -3.46272e-10 -0.0184144 -1.00615e-09 -0.0191978)
(0.0373514 -0.00673837 5.24593e-11 -0.0180993 -3.09168e-09 -0.0191242)
(0.0373703 -0.00584668 2.97382e-10 -0.0176332 7.75053e-10 -0.0190222)
(0.0373897 -0.00449548 -3.50793e-11 -0.0170772 3.02995e-09 -0.0189017)
(0.037402 -0.00276703 -2.6604e-10 -0.0163046 2.08881e-10 -0.0187514)
(0.0374096 -0.00123501 -1.52619e-10 -0.0158291 -1.02219e-09 -0.0185644)
(0.0371959 -0.000811426 -2.64672e-11 -0.0195206 -1.16501e-09 -0.0195039)
(0.0372677 -0.00160254 -8.06862e-11 -0.0195282 2.01087e-10 -0.0195521)
(0.0372723 -0.00270261 -4.40388e-11 -0.0195011 -5.68807e-10 -0.0195326)
(0.037282 -0.00366984 5.31274e-11 -0.0194459 -1.52538e-09 -0.0195254)
(0.0372894 -0.00461832 1.49242e-10 -0.01939 1.15531e-09 -0.0194974)
(0.0373049 -0.00547598 -5.78958e-11 -0.0192952 3.00731e-09 -0.0194801)
(0.0373158 -0.0062232 -2.87079e-10 -0.0191995 -1.29636e-10 -0.0194396)
(0.0373367 -0.00683606 -1.21242e-10 -0.0190566 -3.48649e-09 -0.0194099)
(0.0373524 -0.00724428 2.03693e-10 -0.0189007 -2.46455e-10 -0.019354)
(0.0373771 -0.00740408 -2.43672e-11 -0.0187017 3.05838e-09 -0.0193067)
(0.0373959 -0.00726977 -3.4611e-10 -0.0184489 -1.00799e-09 -0.0192329)
(0.0374213 -0.00674821 5.27641e-11 -0.0181336 -3.09739e-09 -0.0191592)
(0.0374405 -0.00585489 2.9731e-10 -0.017667 7.76475e-10 -0.0190572)
(0.0374601 -0.00450195 -3.50852e-11 -0.0171102 3.03557e-09 -0.0189366)
(0.0374725 -0.00277031 -2.66243e-10 -0.016337 2.09375e-10 -0.0187861)
(0.0374802 -0.00123686 -1.52742e-10 -0.0158615 -1.02416e-09 -0.0185989)
(0.0372633 -0.000813366 -2.6531e-11 -0.0195561 -1.16704e-09 -0.0195393)
(0.0373347 -0.001606 -8.08504e-11 -0.0195634 2.01481e-10 -0.0195873)
(0.0373393 -0.00270861 -4.41041e-11 -0.0195361 -5.69829e-10 -0.0195678)
(0.0373492 -0.00367696 5.31866e-11 -0.019481 -1.52814e-09 -0.0195606)
(0.0373567 -0.00462757 1.49178e-10 -0.0194249 1.15744e-09 -0.0195325)
(0.0373726 -0.00548626 -5.79971e-11 -0.0193301 3.01279e-09 -0.0195152)
(0.0373837 -0.00623491 -2.87092e-10 -0.0192341 -1.29904e-10 -0.0194746)
(0.037405 -0.00684851 -1.2179e-10 -0.0190911 -3.49281e-09 -0.0194449)
(0.0374211 -0.00725694 2.03303e-10 -0.0189354 -2.46921e-10 -0.019389)
(0.0374463 -0.00741625 -2.4412e-11 -0.0187364 3.06397e-09 -0.0193417)
(0.0374655 -0.00728095 -3.45948e-10 -0.0184835 -1.00982e-09 -0.0192678)
(0.0374913 -0.00675827 5.30753e-11 -0.0181679 -3.10308e-09 -0.0191941)
(0.0375107 -0.00586329 2.97238e-10 -0.0177009 7.77894e-10 -0.019092)
(0.0375306 -0.00450856 -3.50919e-11 -0.0171434 3.04118e-09 -0.0189713)
(0.0375432 -0.00277366 -2.66452e-10 -0.0163695 2.09861e-10 -0.0188207)
(0.0375509 -0.00123874 -1.52868e-10 -0.015894 -1.02612e-09 -0.0186334)
(0.0373302 -0.000815341 -2.65805e-11 -0.0195913 -1.16906e-09 -0.0195745)
(0.0374009 -0.00160954 -8.102e-11 -0.0195983 2.01872e-10 -0.0196222)
(0.0374058 -0.00271475 -4.41693e-11 -0.0195709 -5.70841e-10 -0.0196027)
(0.0374159 -0.00368426 5.32468e-11 -0.0195157 -1.53087e-09 -0.0195954)
(0.0374236 -0.00463704 1.49106e-10 -0.0194596 1.15954e-09 -0.0195674)
(0.0374398 -0.0054968 -5.80999e-11 -0.0193647 3.01822e-09 -0.01955)
(0.0374512 -0.0062469 -2.87102e-10 -0.0192686 -1.30169e-10 -0.0195094)
(0.037473 -0.00686127 -1.22348e-10 -0.0191255 -3.49909e-09 -0.0194796)
(0.0374895 -0.00726992 2.02904e-10 -0.0189701 -2.47383e-10 -0.0194237)
(0.0375153 -0.00742874 -2.44589e-11 -0.0187711 3.06953e-09 -0.0193764)
(0.0375349 -0.00729243 -3.45789e-10 -0.0185181 -1.01164e-09 -0.0193025)
(0.0375613 -0.0067686 5.33918e-11 -0.0182023 -3.10874e-09 -0.0192288)
(0.0375811 -0.00587192 2.97172e-10 -0.0177349 7.79307e-10 -0.0191267)
(0.0376013 -0.00451535 -3.50975e-11 -0.0171766 3.04677e-09 -0.0190059)
(0.037614 -0.00277715 -2.66665e-10 -0.0164022 2.10344e-10 -0.0188552)
(0.0376218 -0.00124068 -1.53002e-10 -0.0159266 -1.02807e-09 -0.0186678)
(0.0373964 -0.000817355 -2.66435e-11 -0.0196262 -1.17106e-09 -0.0196094)
(0.0374665 -0.00161315 -8.11898e-11 -0.0196328 2.02259e-10 -0.0196567)
(0.0374714 -0.00272104 -4.42329e-11 -0.0196054 -5.71843e-10 -0.0196372)
(0.0374818 -0.00369175 5.33061e-11 -0.0195502 -1.53358e-09 -0.0196299)
(0.0374898 -0.00464676 1.49028e-10 -0.019494 1.16163e-09 -0.0196019)
(0.0375065 -0.00550764 -5.82053e-11 -0.0193991 3.0236e-09 -0.0195844)
(0.0375183 -0.00625923 -2.87114e-10 -0.019303 -1.30431e-10 -0.019544)
(0.0375407 -0.0068744 -1.22918e-10 -0.0191597 -3.50532e-09 -0.0195141)
(0.0375577 -0.00728329 2.02493e-10 -0.0190047 -2.47839e-10 -0.0194582)
(0.0375841 -0.00744163 -2.45073e-11 -0.0188057 3.07506e-09 -0.0194109)
(0.0376043 -0.0073043 -3.4563e-10 -0.0185528 -1.01346e-09 -0.0193371)
(0.0376313 -0.00677928 5.37153e-11 -0.0182368 -3.11437e-09 -0.0192634)
(0.0376514 -0.00588086 2.97106e-10 -0.017769 7.80716e-10 -0.0191612)
(0.0376721 -0.00452239 -3.51032e-11 -0.01721 3.05233e-09 -0.0190404)
(0.037685 -0.00278079 -2.66878e-10 -0.016435 2.1082e-10 -0.0188896)
(0.037693 -0.00124268 -1.53143e-10 -0.0159593 -1.03002e-09 -0.018702)
(0.0374619 -0.00081941 -2.67231e-11 -0.0196608 -1.17303e-09 -0.0196439)
(0.0375311 -0.00161686 -8.13587e-11 -0.0196669 2.02641e-10 -0.0196909)
(0.0375362 -0.00272751 -4.42945e-11 -0.0196395 -5.72832e-10 -0.0196714)
(0.037547 -0.00369945 5.33692e-11 -0.0195844 -1.53626e-09 -0.0196641)
(0.0375552 -0.00465678 1.48945e-10 -0.0195281 1.16369e-09 -0.019636)
(0.0375725 -0.00551883 -5.83152e-11 -0.0194333 3.02894e-09 -0.0196186)
(0.0375848 -0.00627195 -2.87121e-10 -0.0193371 -1.30695e-10 -0.0195781)
(0.0376079 -0.00688797 -1.23504e-10 -0.0191938 -3.51149e-09 -0.0195482)
(0.0376255 -0.0072971 2.02069e-10 -0.0190391 -2.48292e-10 -0.0194924)
(0.0376527 -0.00745497 -2.45557e-11 -0.0188403 3.08054e-09 -0.0194452)
(0.0376735 -0.0073166 -3.45471e-10 -0.0185874 -1.01526e-09 -0.0193713)
(0.0377012 -0.00679037 5.40473e-11 -0.0182713 -3.11997e-09 -0.0192977)
(0.0377219 -0.00589015 2.97044e-10 -0.0178032 7.82118e-10 -0.0191955)
(0.0377432 -0.0045297 -3.51094e-11 -0.0172436 3.05787e-09 -0.0190747)
(0.0377563 -0.0027846 -2.67099e-10 -0.0164679 2.11292e-10 -0.0189238)
(0.0377644 -0.00124474 -1.53292e-10 -0.0159923 -1.03196e-09 -0.0187362)
(0.0375264 -0.000821516 -2.67901e-11 -0.0196949 -1.17499e-09 -0.019678)
(0.0375947 -0.00162067 -8.15346e-11 -0.0197006 2.0302e-10 -0.0197246)
(0.0376001 -0.00273417 -4.43545e-11 -0.0196733 -5.73809e-10 -0.0197051)
(0.0376112 -0.00370741 5.34323e-11 -0.0196182 -1.5389e-09 -0.0196978)
(0.0376198 -0.00466712 1.48853e-10 -0.0195618 1.16573e-09 -0.0196698)
(0.0376378 -0.00553041 -5.84283e-11 -0.0194673 3.03421e-09 -0.0196524)
(0.0376506 -0.00628509 -2.87132e-10 -0.019371 -1.30961e-10 -0.019612)
(0.0376746 -0.00690201 -1.24105e-10 -0.0192278 -3.51761e-09 -0.0195821)
(0.0376929 -0.00731139 2.01637e-10 -0.0190735 -2.48738e-10 -0.0195262)
(0.037721 -0.0074688 -2.46073e-11 -0.0188748 3.08598e-09 -0.0194791)
(0.0377425 -0.00732937 -3.4531e-10 -0.018622 -1.01705e-09 -0.0194054)
(0.0377712 -0.00680188 5.43894e-11 -0.0183058 -3.12554e-09 -0.0193318)
(0.0377925 -0.00589982 2.96982e-10 -0.0178376 7.83513e-10 -0.0192297)
(0.0378145 -0.00453729 -3.51152e-11 -0.0172773 3.06338e-09 -0.0191089)
(0.037828 -0.00278858 -2.67332e-10 -0.0165012 2.11757e-10 -0.0189578)
(0.0378363 -0.00124687 -1.5345e-10 -0.0160255 -1.0339e-09 -0.0187702)
(0.03759 -0.00082368 -2.68469e-11 -0.0197287 -1.17692e-09 -0.0197118)
(0.0376572 -0.00162459 -8.17167e-11 -0.0197339 2.03394e-10 -0.0197579)
(0.0376628 -0.00274105 -4.44168e-11 -0.0197066 -5.74772e-10 -0.0197384)
(0.0376745 -0.00371563 5.34979e-11 -0.0196516 -1.54152e-09 -0.0197312)
(0.0376835 -0.00467781 1.48752e-10 -0.0195953 1.16775e-09 -0.0197032)
(0.0377023 -0.00554238 -5.8546e-11 -0.0195009 3.03942e-09 -0.0196858)
(0.0377158 -0.00629867 -2.87141e-10 -0.0194047 -1.31234e-10 -0.0196455)
(0.0377408 -0.00691654 -1.24724e-10 -0.0192615 -3.52365e-09 -0.0196156)
(0.0377599 -0.00732618 2.012e-10 -0.0191078 -2.49172e-10 -0.0195598)
(0.0377891 -0.00748315 -2.466e-11 -0.0189093 3.09137e-09 -0.0195128)
(0.0378115 -0.00734267 -3.45151e-10 -0.0186567 -1.01882e-09 -0.0194391)
(0.0378412 -0.00681389 5.47408e-11 -0.0183405 -3.13106e-09 -0.0193657)
(0.0378632 -0.00590995 2.96924e-10 -0.0178721 7.84888e-10 -0.0192636)
(0.0378861 -0.00454525 -3.51217e-11 -0.0173113 3.06886e-09 -0.0191428)
(0.0378999 -0.00279283 -2.67575e-10 -0.0165345 2.12222e-10 -0.0189918)
(0.0379086 -0.00124911 -1.53621e-10 -0.0160589 -1.03583e-09 -0.018804)
(0.0376524 -0.000825917 -2.691e-11 -0.019762 -1.17882e-09 -0.019745)
(0.0377185 -0.00162862 -8.19034e-11 -0.0197668 2.03765e-10 -0.0197908)
(0.0377244 -0.00274817 -4.44788e-11 -0.0197395 -5.75721e-10 -0.0197713)
(0.0377367 -0.00372414 5.35646e-11 -0.0196847 -1.5441e-09 -0.0197641)
(0.0377462 -0.00468887 1.4864e-10 -0.0196284 1.16975e-09 -0.0197362)
(0.037766 -0.00555482 -5.86698e-11 -0.0195343 3.04458e-09 -0.0197188)
(0.0377802 -0.00631274 -2.87157e-10 -0.0194381 -1.3151e-10 -0.0196786)
(0.0378062 -0.00693164 -1.25362e-10 -0.0192951 -3.52964e-09 -0.0196487)
(0.0378263 -0.00734159 2.00754e-10 -0.0191419 -2.49592e-10 -0.0195931)
(0.0378566 -0.00749817 -2.47156e-11 -0.0189436 3.09672e-09 -0.0195462)
(0.0378801 -0.00735662 -3.45001e-10 -0.0186913 -1.02058e-09 -0.0194726)
(0.037911 -0.00682653 5.51029e-11 -0.0183751 -3.13655e-09 -0.0193993)
(0.037934 -0.00592065 2.96868e-10 -0.0179067 7.8625e-10 -0.0192972)
(0.037958 -0.00455366 -3.5127e-11 -0.0173454 3.07431e-09 -0.0191766)
(0.0379723 -0.00279737 -2.67804e-10 -0.0165681 2.12694e-10 -0.0190255)
(0.0379816 -0.0012515 -1.53811e-10 -0.0160926 -1.03776e-09 -0.0188378)
(0.0377135 -0.000828236 -2.70005e-11 -0.0197949 -1.18069e-09 -0.0197778)
(0.0377784 -0.00163275 -8.20969e-11 -0.0197992 2.04133e-10 -0.0198233)
(0.0377846 -0.00275556 -4.45337e-11 -0.019772 -5.76654e-10 -0.0198037)
(0.0377976 -0.00373301 5.36353e-11 -0.0197175 -1.54664e-09 -0.0197965)
(0.0378077 -0.00470032 1.48516e-10 -0.0196612 1.17174e-09 -0.0197688)
(0.0378285 -0.00556776 -5.88001e-11 -0.0195674 3.04967e-09 -0.0197514)
(0.0378436 -0.00632737 -2.87178e-10 -0.0194713 -1.318e-10 -0.0197114)
(0.0378709 -0.00694738 -1.26023e-10 -0.0193284 -3.53555e-09 -0.0196815)
(0.037892 -0.00735765 2.00292e-10 -0.0191758 -2.5e-10 -0.019626)
(0.0379237 -0.00751388 -2.47737e-11 -0.0189778 3.10201e-09 -0.0195792)
(0.0379485 -0.00737126 -3.4486e-10 -0.0187259 -1.02232e-09 -0.0195058)
(0.0379808 -0.00683981 5.54769e-11 -0.0184098 -3.14199e-09 -0.0194326)
(0.038005 -0.00593193 2.96816e-10 -0.0179415 7.87599e-10 -0.0193307)
(0.0380302 -0.0045625 -3.51332e-11 -0.0173797 3.07973e-09 -0.0192101)
(0.0380453 -0.00280218 -2.68042e-10 -0.0166021 2.13172e-10 -0.019059)
(0.0380554 -0.001254 -1.54018e-10 -0.0161268 -1.03967e-09 -0.0188714)
(0.0377732 -0.000830635 -2.70714e-11 -0.0198274 -1.18254e-09 -0.0198101)
(0.0378369 -0.00163696 -8.22895e-11 -0.0198312 2.04504e-10 -0.0198554)
(0.0378432 -0.00276323 -4.45874e-11 -0.0198039 -5.7757e-10 -0.0198357)
(0.0378573 -0.00374222 5.37033e-11 -0.01975 -1.54915e-09 -0.0198286)
(0.037868 -0.00471216 1.48378e-10 -0.0196936 1.17373e-09 -0.019801)
(0.0378898 -0.00558119 -5.89366e-11 -0.0196001 3.0547e-09 -0.0197836)
(0.0379059 -0.00634253 -2.87212e-10 -0.0195041 -1.32105e-10 -0.0197438)
(0.0379345 -0.00696374 -1.26702e-10 -0.0193614 -3.54138e-09 -0.0197139)
(0.0379571 -0.00737435 1.99843e-10 -0.0192095 -2.50398e-10 -0.0196586)
(0.0379903 -0.00753026 -2.48348e-11 -0.0190119 3.10725e-09 -0.0196119)
(0.0380166 -0.00738657 -3.44736e-10 -0.0187605 -1.02405e-09 -0.0195387)
(0.0380506 -0.0068537 5.5863e-11 -0.0184446 -3.14739e-09 -0.0194656)
(0.0380761 -0.00594376 2.96767e-10 -0.0179765 7.88929e-10 -0.0193639)