/*--------------------------------*- C++ -*----------------------------------*\
| =========                 |                                                 |
| \\      /  F ield         | foam-extend: Open Source CFD                    |
|  \\    /   O peration     | Version:     4.1-20200408                       |
|   \\  /    A nd           | Web:         http://www.foam-extend.org         |
|    \\/     M anipulation  |                                                 |
\*---------------------------------------------------------------------------*/
FoamFile
{
    version     2.0;
    format      ascii;
    class       volScalarField;
    location    "0.0440000";
    object      J;
}
// * * * * * * * * * * * * * * * * * * * * * * * * * * * * * * * * * * * * * //

dimensions      [0 0 0 0 0 0 0];

internalField   nonuniform List<scalar> 
1952
(
0.997337
0.997425
0.997542
0.99769
0.997882
0.998102
0.998371
0.998692
0.999054
0.999509
1.00004
1.00079
1.00166
1.00274
1.00346
0.997299
0.997347
0.997435
0.997554
0.997702
0.997896
0.998116
0.998388
0.99871
0.999074
0.999529
1.00006
1.00081
1.00169
1.00276
1.00348
0.997309
0.997353
0.997441
0.99756
0.997709
0.997903
0.998124
0.998397
0.998719
0.999084
0.999539
1.00007
1.00082
1.0017
1.00277
1.00348
0.997315
0.997359
0.997446
0.997566
0.997715
0.99791
0.998131
0.998404
0.998727
0.999091
0.999546
1.00008
1.00083
1.0017
1.00277
1.00348
0.99732
0.997363
0.997451
0.997571
0.99772
0.997916
0.998137
0.99841
0.998733
0.999098
0.999552
1.00008
1.00084
1.00171
1.00278
1.00349
0.997325
0.997367
0.997455
0.997576
0.997725
0.997921
0.998142
0.998416
0.998738
0.999102
0.999557
1.00009
1.00084
1.00171
1.00278
1.00349
0.997329
0.997371
0.997459
0.997579
0.997728
0.997925
0.998146
0.998421
0.998742
0.999106
0.999561
1.00009
1.00085
1.00172
1.00279
1.00349
0.997332
0.997374
0.997461
0.997582
0.997731
0.997928
0.998149
0.998424
0.998746
0.99911
0.999564
1.0001
1.00085
1.00172
1.00279
1.00349
0.997335
0.997376
0.997463
0.997584
0.997734
0.997931
0.998152
0.998427
0.998749
0.999113
0.999568
1.0001
1.00085
1.00172
1.00279
1.00349
0.997337
0.997377
0.997465
0.997586
0.997736
0.997933
0.998155
0.99843
0.998752
0.999115
0.99957
1.0001
1.00086
1.00173
1.00279
1.0035
0.997338
0.997378
0.997466
0.997587
0.997737
0.997934
0.998156
0.998432
0.998754
0.999117
0.999572
1.0001
1.00086
1.00173
1.0028
1.0035
0.99734
0.997379
0.997467
0.997588
0.997738
0.997936
0.998158
0.998434
0.998756
0.999119
0.999575
1.00011
1.00086
1.00173
1.0028
1.0035
0.99734
0.997379
0.997467
0.997589
0.997739
0.997937
0.998159
0.998436
0.998757
0.999121
0.999577
1.00011
1.00087
1.00174
1.0028
1.00351
0.99734
0.99738
0.997468
0.997589
0.99774
0.997938
0.998161
0.998438
0.998759
0.999123
0.999579
1.00011
1.00087
1.00174
1.00281
1.00351
0.997341
0.99738
0.997468
0.997589
0.99774
0.997939
0.998162
0.99844
0.998761
0.999125
0.999581
1.00011
1.00087
1.00174
1.00281
1.00351
0.997341
0.997379
0.997467
0.997589
0.99774
0.997939
0.998163
0.998441
0.998762
0.999127
0.999583
1.00012
1.00088
1.00175
1.00282
1.00352
0.99734
0.997379
0.997467
0.997589
0.99774
0.99794
0.998163
0.998443
0.998763
0.999129
0.999585
1.00012
1.00088
1.00175
1.00282
1.00352
0.99734
0.997378
0.997466
0.997589
0.99774
0.99794
0.998164
0.998444
0.998765
0.999131
0.999587
1.00012
1.00088
1.00175
1.00283
1.00353
0.997339
0.997377
0.997465
0.997588
0.99774
0.99794
0.998165
0.998445
0.998766
0.999133
0.99959
1.00013
1.00089
1.00176
1.00283
1.00353
0.997338
0.997376
0.997464
0.997588
0.99774
0.997941
0.998165
0.998447
0.998768
0.999135
0.999592
1.00013
1.00089
1.00176
1.00284
1.00354
0.997337
0.997375
0.997463
0.997587
0.997739
0.997941
0.998166
0.998448
0.998769
0.999137
0.999595
1.00013
1.0009
1.00177
1.00284
1.00354
0.997336
0.997373
0.997461
0.997586
0.997738
0.99794
0.998166
0.998449
0.998771
0.999139
0.999598
1.00014
1.0009
1.00177
1.00285
1.00355
0.997334
0.997371
0.99746
0.997584
0.997737
0.99794
0.998166
0.99845
0.998772
0.999141
0.9996
1.00014
1.0009
1.00178
1.00285
1.00356
0.997332
0.997368
0.997457
0.997583
0.997736
0.997939
0.998166
0.998451
0.998773
0.999143
0.999603
1.00014
1.00091
1.00179
1.00286
1.00356
0.99733
0.997365
0.997454
0.99758
0.997734
0.997938
0.998166
0.998452
0.998774
0.999145
0.999606
1.00015
1.00092
1.00179
1.00287
1.00357
0.997326
0.997361
0.99745
0.997577
0.997731
0.997936
0.998164
0.998452
0.998775
0.999147
0.999608
1.00015
1.00092
1.0018
1.00287
1.00358
0.997322
0.997356
0.997446
0.997573
0.997727
0.997934
0.998163
0.998452
0.998775
0.999148
0.999611
1.00016
1.00093
1.00181
1.00288
1.00359
0.997317
0.99735
0.99744
0.997568
0.997723
0.99793
0.99816
0.998451
0.998775
0.99915
0.999614
1.00016
1.00093
1.00181
1.00289
1.0036
0.997311
0.997342
0.997433
0.997561
0.997717
0.997926
0.998157
0.998449
0.998774
0.99915
0.999616
1.00017
1.00094
1.00182
1.0029
1.00361
0.997303
0.997332
0.997423
0.997553
0.99771
0.997919
0.998151
0.998446
0.998771
0.99915
0.999617
1.00017
1.00094
1.00183
1.00291
1.00362
0.997293
0.997321
0.997412
0.997542
0.9977
0.997911
0.998145
0.998441
0.998768
0.999149
0.999618
1.00017
1.00095
1.00184
1.00292
1.00363
0.997281
0.997306
0.997398
0.997529
0.997688
0.997901
0.998136
0.998434
0.998763
0.999146
0.999617
1.00018
1.00096
1.00185
1.00293
1.00365
0.997266
0.997288
0.997381
0.997513
0.997673
0.997887
0.998124
0.998425
0.998755
0.999142
0.999615
1.00018
1.00096
1.00186
1.00295
1.00366
0.997248
0.997267
0.99736
0.997493
0.997654
0.99787
0.998108
0.998413
0.998745
0.999135
0.999611
1.00018
1.00097
1.00187
1.00296
1.00368
0.997226
0.99724
0.997334
0.997469
0.99763
0.997849
0.998089
0.998396
0.998731
0.999125
0.999604
1.00018
1.00097
1.00187
1.00297
1.0037
0.9972
0.997209
0.997303
0.997439
0.997602
0.997823
0.998065
0.998376
0.998712
0.99911
0.999593
1.00017
1.00097
1.00188
1.00298
1.00372
0.997168
0.997172
0.997266
0.997404
0.997568
0.997791
0.998035
0.998349
0.998688
0.999091
0.999578
1.00016
1.00096
1.00189
1.00299
1.00374
0.997131
0.997129
0.997223
0.997362
0.997527
0.997752
0.997998
0.998315
0.998658
0.999065
0.999556
1.00015
1.00096
1.00189
1.003
1.00375
0.997087
0.997078
0.997172
0.997312
0.997478
0.997705
0.997953
0.998274
0.998619
0.999032
0.999527
1.00013
1.00094
1.00188
1.003
1.00377
0.997036
0.997019
0.997113
0.997254
0.99742
0.997649
0.997898
0.998222
0.99857
0.998988
0.999489
1.0001
1.00092
1.00187
1.00301
1.00379
0.996977
0.996952
0.997045
0.997187
0.997353
0.997583
0.997833
0.99816
0.99851
0.998933
0.999439
1.00006
1.00089
1.00186
1.003
1.0038
0.99691
0.996877
0.996969
0.99711
0.997276
0.997506
0.997756
0.998084
0.998436
0.998862
0.999373
1
1.00084
1.00183
1.00298
1.0038
0.996834
0.996794
0.996884
0.997024
0.997188
0.997417
0.997666
0.997994
0.998346
0.998775
0.999289
0.999926
1.00078
1.00178
1.00295
1.0038
0.996752
0.996704
0.996791
0.99693
0.997091
0.997316
0.997563
0.997887
0.998238
0.998666
0.999182
0.999826
1.00068
1.00171
1.0029
1.00378
0.996662
0.996609
0.996693
0.996829
0.996985
0.997204
0.997446
0.997764
0.998109
0.998533
0.999048
0.999696
1.00056
1.00161
1.00282
1.00375
0.996569
0.996513
0.996593
0.996723
0.996872
0.997083
0.997315
0.997623
0.997958
0.998373
0.998881
0.999526
1.00039
1.00146
1.00269
1.00369
0.996474
0.996419
0.996493
0.996616
0.996756
0.996954
0.997174
0.997465
0.997786
0.998181
0.998675
0.999308
1.00017
1.00124
1.0025
1.00358
0.996382
0.996335
0.996402
0.996516
0.996642
0.996825
0.997027
0.997295
0.997592
0.99796
0.998427
0.999031
0.999864
1.00092
1.00216
1.00329
0.996299
0.996267
0.996325
0.996428
0.996539
0.996701
0.996881
0.997118
0.997385
0.99771
0.998137
0.998688
0.999464
1.00045
1.00159
1.00259
0.996234
0.996225
0.996274
0.996363
0.996456
0.996594
0.996746
0.996945
0.997174
0.997447
0.997823
0.998305
0.99901
0.999912
1.00094
1.00182
0.996196
0.996222
0.99626
0.996334
0.996406
0.996515
0.996635
0.996791
0.996974
0.997185
0.9975
0.997896
0.99852
0.999313
1.00022
1.00101
0.996197
0.996271
0.996297
0.996354
0.996403
0.996481
0.996565
0.996672
0.996803
0.996943
0.99719
0.997484
0.998018
0.998678
0.99947
1.00017
0.996249
0.996386
0.9964
0.99644
0.996463
0.996509
0.996554
0.996609
0.996685
0.996747
0.996917
0.997095
0.997528
0.998018
0.998704
0.999305
0.996369
0.996584
0.996585
0.996607
0.996605
0.996618
0.996622
0.996624
0.996639
0.996621
0.996707
0.996756
0.997073
0.997355
0.997925
0.998378
0.99657
0.99688
0.996868
0.996872
0.996844
0.996823
0.996786
0.996738
0.9967
0.996614
0.996619
0.996542
0.996706
0.996738
0.997145
0.997375
0.99687
0.99729
0.997268
0.997259
0.997213
0.997167
0.997096
0.996996
0.996894
0.996733
0.996651
0.996443
0.99645
0.996242
0.996425
0.996302
0.997282
0.997846
0.997808
0.997778
0.997702
0.997618
0.997494
0.997331
0.997149
0.996897
0.996711
0.996376
0.996245
0.995828
0.99578
0.995234
0.997843
0.998464
0.998395
0.998323
0.998193
0.998044
0.99785
0.997614
0.997356
0.997016
0.996728
0.99628
0.996015
0.99542
0.995183
0.994245
0.998473
0.998986
0.998887
0.998769
0.998585
0.998373
0.99811
0.997804
0.997476
0.997067
0.996697
0.996165
0.995795
0.995073
0.994697
0.993511
0.999009
0.999352
0.99923
0.999078
0.998854
0.998595
0.998282
0.997926
0.997541
0.997083
0.996648
0.996061
0.99561
0.994811
0.994336
0.993029
0.999389
0.999567
0.999432
0.999256
0.999007
0.998718
0.998371
0.997983
0.997559
0.997071
0.996592
0.995978
0.995473
0.994648
0.994114
0.992782
0.999613
0.999631
0.999491
0.999305
0.999044
0.998742
0.998379
0.997976
0.997531
0.997034
0.996532
0.99592
0.995388
0.994582
0.994026
0.992752
0.999684
0.999555
0.999418
0.999231
0.998971
0.99867
0.998305
0.997907
0.997459
0.996972
0.996466
0.995882
0.995348
0.994603
0.99406
0.992914
0.99961
0.999348
0.999219
0.999041
0.998794
0.998506
0.998155
0.997775
0.997341
0.996883
0.996393
0.995859
0.995349
0.994701
0.994204
0.993244
0.999401
0.999021
0.998906
0.998744
0.998519
0.998257
0.997932
0.997584
0.997178
0.996764
0.996307
0.995844
0.99538
0.994861
0.994444
0.993723
0.999069
0.998587
0.998488
0.998351
0.998154
0.997928
0.997638
0.997335
0.99697
0.996614
0.996206
0.995829
0.995435
0.995073
0.994766
0.994319
0.998628
0.998066
0.997984
0.997873
0.997708
0.997522
0.997276
0.997025
0.996714
0.996426
0.996082
0.995807
0.995507
0.995325
0.995156
0.995002
0.998099
0.997482
0.997414
0.997326
0.997192
0.997044
0.996844
0.99665
0.9964
0.996189
0.995926
0.995768
0.995586
0.995606
0.995598
0.995736
0.99751
0.996864
0.996804
0.996732
0.996621
0.996505
0.996345
0.996204
0.996018
0.99589
0.99572
0.995696
0.995658
0.995901
0.996069
0.996479
0.996888
0.996238
0.996181
0.996119
0.996022
0.99593
0.995803
0.995706
0.995574
0.995523
0.995451
0.995571
0.995704
0.996185
0.996536
0.997183
0.996261
0.995635
0.995579
0.995521
0.995434
0.995357
0.995251
0.99518
0.995078
0.995075
0.995092
0.995362
0.995692
0.996415
0.99694
0.997789
0.995657
0.995027
0.99497
0.99491
0.994821
0.994745
0.994648
0.994595
0.994539
0.994633
0.994794
0.995229
0.995724
0.996578
0.997237
0.998229
0.99505
0.994412
0.994377
0.994347
0.994302
0.994284
0.994273
0.99434
0.994449
0.994703
0.994999
0.995508
0.996022
0.996841
0.997452
0.998486
0.994427
0.994248
0.994265
0.994305
0.994359
0.994453
0.994574
0.994772
0.995008
0.995334
0.995662
0.996131
0.996555
0.997236
0.997715
0.998596
0.994242
0.994722
0.994761
0.99483
0.994923
0.995058
0.99522
0.995437
0.995668
0.99596
0.996265
0.996682
0.99708
0.997625
0.998055
0.99869
0.994708
0.995314
0.995351
0.995415
0.995501
0.995622
0.995769
0.995965
0.996183
0.996462
0.996751
0.997124
0.997484
0.99795
0.998374
0.998856
0.9953
0.995792
0.995835
0.995902
0.995994
0.996117
0.996264
0.99645
0.996655
0.996909
0.997173
0.997504
0.997826
0.998226
0.998593
0.999041
0.995777
0.996252
0.996295
0.996357
0.996445
0.996559
0.996696
0.996866
0.997055
0.997286
0.997526
0.997817
0.998104
0.998449
0.998772
0.999156
0.996238
0.996656
0.996698
0.996758
0.996842
0.996948
0.997076
0.997232
0.997405
0.997612
0.997827
0.998083
0.998334
0.998633
0.99891
0.999241
0.996642
0.997022
0.997062
0.997117
0.997196
0.997293
0.99741
0.99755
0.997706
0.99789
0.998081
0.998305
0.998524
0.998781
0.999019
0.999301
0.997009
0.997346
0.997385
0.997435
0.997507
0.997595
0.997702
0.997827
0.997967
0.998129
0.998298
0.998492
0.998683
0.998903
0.999106
0.999345
0.997334
0.997635
0.997671
0.997716
0.997782
0.997861
0.997957
0.998068
0.998192
0.998334
0.998482
0.998651
0.998815
0.999003
0.999176
0.999378
0.997625
0.997891
0.997924
0.997964
0.998024
0.998094
0.998179
0.998278
0.998387
0.998511
0.99864
0.998785
0.998927
0.999087
0.999233
0.999404
0.997882
0.998118
0.998148
0.998183
0.998236
0.998298
0.998374
0.99846
0.998556
0.998664
0.998776
0.998901
0.999022
0.999158
0.999281
0.999426
0.998109
0.998317
0.998345
0.998376
0.998423
0.998478
0.998544
0.99862
0.998703
0.998797
0.998893
0.999
0.999103
0.999219
0.999323
0.999445
0.99831
0.998494
0.998518
0.998546
0.998588
0.998635
0.998693
0.998759
0.998831
0.998912
0.998995
0.999086
0.999174
0.999272
0.99936
0.999463
0.998487
0.99865
0.998672
0.998695
0.998732
0.998773
0.998824
0.998881
0.998944
0.999013
0.999084
0.999162
0.999237
0.999319
0.999393
0.99948
0.998644
0.998788
0.998807
0.998827
0.99886
0.998895
0.99894
0.998988
0.999043
0.999102
0.999163
0.999229
0.999292
0.999362
0.999424
0.999498
0.998783
0.998909
0.998927
0.998944
0.998972
0.999003
0.999042
0.999084
0.99913
0.999181
0.999233
0.999289
0.999342
0.999401
0.999453
0.999516
0.998905
0.999018
0.999033
0.999048
0.999072
0.999099
0.999132
0.999168
0.999208
0.999251
0.999295
0.999343
0.999388
0.999437
0.999482
0.999535
0.999014
0.999114
0.999127
0.99914
0.999161
0.999184
0.999213
0.999243
0.999278
0.999314
0.999352
0.999392
0.999431
0.999472
0.99951
0.999555
0.999111
0.9992
0.999211
0.999222
0.999241
0.99926
0.999285
0.999311
0.99934
0.999372
0.999404
0.999438
0.99947
0.999505
0.999537
0.999576
0.999197
0.999276
0.999287
0.999296
0.999312
0.999329
0.99935
0.999372
0.999397
0.999424
0.999451
0.99948
0.999507
0.999537
0.999564
0.999599
0.999274
0.999346
0.999354
0.999362
0.999376
0.99939
0.999408
0.999428
0.999449
0.999472
0.999495
0.999519
0.999543
0.999568
0.999591
0.999621
0.999344
0.999408
0.999416
0.999422
0.999434
0.999446
0.999462
0.999478
0.999497
0.999516
0.999536
0.999557
0.999576
0.999598
0.999618
0.999645
0.999406
0.999464
0.999471
0.999477
0.999487
0.999498
0.999511
0.999525
0.999541
0.999557
0.999574
0.999592
0.999609
0.999627
0.999645
0.999669
0.999463
0.999516
0.999522
0.999527
0.999536
0.999545
0.999556
0.999568
0.999582
0.999596
0.99961
0.999625
0.99964
0.999656
0.999671
0.999693
0.999515
0.999563
0.999568
0.999573
0.99958
0.999588
0.999598
0.999608
0.99962
0.999632
0.999644
0.999658
0.99967
0.999684
0.999698
0.999717
0.999562
0.999607
0.999611
0.999615
0.999621
0.999628
0.999637
0.999645
0.999656
0.999666
0.999677
0.999688
0.999699
0.999711
0.999724
0.999742
0.999606
0.999647
0.99965
0.999654
0.999659
0.999665
0.999673
0.99968
0.999689
0.999698
0.999708
0.999718
0.999727
0.999738
0.999749
0.999766
0.999646
0.999684
0.999687
0.99969
0.999695
0.9997
0.999707
0.999713
0.999721
0.999729
0.999737
0.999746
0.999755
0.999764
0.999775
0.999791
0.999683
0.999718
0.999721
0.999724
0.999728
0.999733
0.999738
0.999744
0.999751
0.999758
0.999766
0.999773
0.999781
0.99979
0.9998
0.999815
0.999717
0.99975
0.999753
0.999755
0.999759
0.999763
0.999768
0.999774
0.99978
0.999786
0.999793
0.9998
0.999807
0.999815
0.999824
0.999838
0.99975
0.99978
0.999783
0.999785
0.999788
0.999792
0.999797
0.999801
0.999807
0.999813
0.999819
0.999825
0.999832
0.999839
0.999848
0.999862
0.99978
0.999808
0.999811
0.999812
0.999816
0.999819
0.999823
0.999828
0.999833
0.999838
0.999844
0.99985
0.999856
0.999863
0.999871
0.999885
0.999808
0.999835
0.999837
0.999838
0.999841
0.999844
0.999848
0.999853
0.999857
0.999862
0.999868
0.999873
0.999879
0.999886
0.999894
0.999907
0.999834
0.999859
0.999861
0.999863
0.999866
0.999869
0.999872
0.999876
0.999881
0.999885
0.99989
0.999896
0.999901
0.999908
0.999916
0.999929
0.999859
0.999883
0.999884
0.999886
0.999888
0.999891
0.999895
0.999899
0.999903
0.999907
0.999912
0.999918
0.999923
0.99993
0.999938
0.999951
0.999882
0.999904
0.999906
0.999907
0.99991
0.999913
0.999916
0.99992
0.999924
0.999928
0.999933
0.999939
0.999944
0.99995
0.999959
0.999972
0.999904
0.999924
0.999926
0.999927
0.99993
0.999932
0.999936
0.999939
0.999944
0.999948
0.999953
0.999958
0.999964
0.999971
0.999979
0.999992
0.999924
0.999943
0.999944
0.999946
0.999948
0.999951
0.999954
0.999958
0.999962
0.999967
0.999972
0.999977
0.999983
0.99999
0.999999
1.00001
0.999943
0.99996
0.999962
0.999963
0.999966
0.999968
0.999972
0.999975
0.99998
0.999984
0.999989
0.999995
1
1.00001
1.00002
1.00003
0.99996
0.999976
0.999978
0.999979
0.999981
0.999984
0.999987
0.999991
0.999996
1
1.00001
1.00001
1.00002
1.00003
1.00004
1.00005
0.999976
0.999991
0.999992
0.999994
0.999996
0.999999
1
1.00001
1.00001
1.00002
1.00002
1.00003
1.00003
1.00004
1.00005
1.00007
0.99999
1
1.00001
1.00001
1.00001
1.00001
1.00002
1.00002
1.00002
1.00003
1.00003
1.00004
1.00005
1.00006
1.00007
1.00009
1
1.00002
1.00002
1.00002
1.00002
1.00002
1.00003
1.00003
1.00004
1.00004
1.00005
1.00005
1.00006
1.00007
1.00008
1.0001
1.00002
1.00003
1.00003
1.00003
1.00003
1.00003
1.00004
1.00004
1.00005
1.00005
1.00006
1.00006
1.00007
1.00008
1.0001
1.00012
1.00003
1.00003
1.00004
1.00004
1.00004
1.00004
1.00005
1.00005
1.00005
1.00006
1.00007
1.00007
1.00008
1.00009
1.00011
1.00013
1.00003
1.00004
1.00004
1.00004
1.00005
1.00005
1.00005
1.00006
1.00006
1.00007
1.00007
1.00008
1.00009
1.0001
1.00012
1.00014
1.00004
1.00005
1.00005
1.00005
1.00005
1.00006
1.00006
1.00006
1.00007
1.00007
1.00008
1.00008
1.00009
1.0001
1.00012
1.00015
1.00005
1.00005
1.00006
1.00006
1.00006
1.00006
1.00006
1.00007
1.00007
1.00007
1.00008
1.00008
1.00009
1.0001
1.00011
1.00013
1.00005
1.00006
1.00006
1.00006
1.00006
1.00006
1.00006
1.00007
1.00007
1.00007
1.00008
1.00008
1.00009
1.0001
1.0001
1.00012
1.00006
)
;

boundaryField
{
    wireUpstream
    {
        type            calculated;
        value           nonuniform List<scalar> 
16
(
1.00006
1.00006
1.00006
1.00006
1.00006
1.00007
1.00007
1.00007
1.00007
1.00008
1.00008
1.00009
1.00009
1.0001
1.0001
1.00006
)
;
    }
    wireDownstream
    {
        type            calculated;
        value           nonuniform List<scalar> 
16
(
0.997338
0.997426
0.997544
0.997691
0.997883
0.998103
0.998372
0.998693
0.999055
0.999509
1.00004
1.00079
1.00166
1.00273
1.00343
0.9973
)
;
    }
    wireTopContact
    {
        type            calculated;
        value           nonuniform List<scalar> 
122
(
1.00354
1.00354
1.00354
1.00354
1.00354
1.00355
1.00355
1.00355
1.00355
1.00356
1.00356
1.00356
1.00357
1.00357
1.00357
1.00358
1.00358
1.00359
1.00359
1.0036
1.00361
1.00361
1.00362
1.00363
1.00364
1.00364
1.00365
1.00367
1.00368
1.00369
1.00371
1.00372
1.00374
1.00375
1.00377
1.00379
1.00381
1.00382
1.00384
1.00385
1.00385
1.00384
1.00382
1.00378
1.00371
1.00359
1.00332
1.00258
1.0018
1.00097
1.00012
0.999261
0.998365
0.997405
0.996374
0.995334
0.99434
0.99362
0.993147
0.992896
0.992857
0.993008
0.993325
0.99379
0.994369
0.995034
0.995745
0.996459
0.997126
0.997692
0.998104
0.998349
0.998495
0.998694
0.998869
0.999042
0.999158
0.999245
0.999306
0.999352
0.999385
0.999412
0.999433
0.999452
0.99947
0.999486
0.999504
0.999522
0.99954
0.99956
0.999581
0.999603
0.999625
0.999648
0.999672
0.999696
0.99972
0.999744
0.999768
0.999793
0.999816
0.99984
0.999863
0.999886
0.999909
0.999931
0.999952
0.999973
0.999994
1.00001
1.00003
1.00005
1.00007
1.00009
1.0001
1.00012
1.00013
1.00014
1.00015
1.00013
1.00012
1.00352
)
;
    }
    front
    {
        type            wedge;
    }
    back
    {
        type            wedge;
    }
}


// ************************************************************************* //
