/*--------------------------------*- C++ -*----------------------------------*\
  =========                 |
  \\      /  F ield         | OpenFOAM: The Open Source CFD Toolbox
   \\    /   O peration     | Website:  https://openfoam.org
    \\  /    A nd           | Version:  8
     \\/     M anipulation  |
\*---------------------------------------------------------------------------*/
FoamFile
{
    version     2.0;
    format      ascii;
    class       volVectorField;
    location    "0.0505000";
    object      U_0;
}
// * * * * * * * * * * * * * * * * * * * * * * * * * * * * * * * * * * * * * //

dimensions      [0 1 -1 0 0 0 0];

internalField   nonuniform List<vector> 
900
(
(0.735718089998348 0.000358364706155721 -1.63996383511664e-18)
(0.736269751604447 0.000207064187066533 5.01950849547758e-18)
(0.73629564480838 0.000164154116391907 2.07216206797679e-18)
(0.736420183857762 0.000187328767746385 -7.22678506628255e-18)
(0.736406168848179 0.000194801503500785 4.76128925186652e-18)
(0.736351170058539 0.000200784944859173 -1.81125939385343e-19)
(0.736280343113252 0.00020504099299937 -4.61566415891288e-20)
(0.736206953261614 0.000207834365600504 -2.78240056281786e-18)
(0.736132241098077 0.000210318210312453 -1.6163516291594e-18)
(0.736056164871364 0.000213030786633946 -1.13080459738217e-17)
(0.735979696103546 0.000215739634505727 5.64689010944576e-18)
(0.735902963762732 0.000217755900929842 -6.52215203337492e-19)
(0.735824633206056 0.000219807060835197 9.40605462505606e-18)
(0.735744132665022 0.000222229918581995 1.58565245071915e-17)
(0.735662126215145 0.000224460915780358 4.11176246216145e-17)
(0.73557889738843 0.000226178236773209 -1.74425832471987e-17)
(0.7354936911408 0.000227903509992604 -2.22581360392972e-17)
(0.735407286512926 0.000230106736160337 -3.86789401650706e-17)
(0.735319204679501 0.000232201520964081 -4.39110182326586e-17)
(0.735228376007524 0.000233947363922632 1.56953717077754e-17)
(0.735135217528347 0.000235666476110223 -2.20417672194097e-17)
(0.735041071766039 0.000237998216938261 -4.61291599857809e-17)
(0.734945180099531 0.000239999554091437 -1.36000655457173e-17)
(0.734845995570974 0.000241834936146798 -6.24731474442709e-17)
(0.734744416224839 0.000243874332815688 3.60389285137068e-17)
(0.734641514810311 0.000246382276892032 1.63412714799098e-17)
(0.734537094388302 0.000248403351085472 1.32410528358843e-17)
(0.734430332441494 0.000250524894870092 1.62247025714151e-17)
(0.7343205499662 0.000253254599537431 4.45911671034702e-17)
(0.734209145627138 0.0002561564188662 -1.40212549137391e-17)
(0.734096105826293 0.000258649415605177 -6.13684890158857e-18)
(0.733979665461379 0.000261345054659425 3.0401643307328e-17)
(0.733861585317294 0.000265008564412428 -2.71307821058641e-17)
(0.733743084233593 0.000268611903324423 1.677422378909e-17)
(0.733622855136158 0.000271870475784012 1.47436810980781e-17)
(0.733500470441147 0.000275606552807026 2.5211571696315e-17)
(0.73337832953632 0.000281425751447317 1.91393200512294e-17)
(0.73325679711148 0.000286428738747695 1.9099913775234e-17)
(0.733133960087587 0.000291427093368271 4.44503034490625e-17)
(0.733010693825238 0.000297862900206728 4.00173185809768e-17)
(0.732889939916088 0.000306902735003286 -3.14645432837959e-17)
(0.732772122856805 0.000314677248935021 4.07860786412392e-18)
(0.732656274466848 0.000323045345291879 -4.04863397678272e-17)
(0.732544422190136 0.000334962155443568 -3.16549108008178e-17)
(0.732440748750121 0.000349279944515564 -5.83885268727415e-17)
(0.732345391884385 0.000362192332316626 -4.69028348071028e-17)
(0.732258117435562 0.000376840887766594 3.49614444845822e-17)
(0.732185490859726 0.000399639010966277 -4.03923402475747e-17)
(0.732131374942345 0.00042270960519765 -4.90794766225116e-17)
(0.732094942472247 0.000444444764508698 -2.44807050473412e-17)
(0.732082157892057 0.000470608128077243 -4.31595183098142e-18)
(0.732101856859145 0.000514223152399929 -1.28872964679512e-16)
(0.732158446160785 0.00055039083698949 -1.14980233444263e-16)
(0.732258359892806 0.000587913326921197 4.61081445835016e-17)
(0.732412308315105 0.000639178094934325 8.02420688486456e-17)
(0.732632285077909 0.000708845044231977 8.44781394774964e-19)
(0.732926663344248 0.000768406058760328 6.25902208211823e-17)
(0.73331644543555 0.000833129751720037 -1.859915472806e-17)
(0.733817483314195 0.000930829478422202 -4.58341876364746e-17)
(0.734451507685147 0.00103730086729739 2.12575234748139e-17)
(0.735241186116867 0.00113171810856342 -6.49970835497316e-17)
(0.73625906942236 0.00124152061916055 7.29133811467689e-18)
(0.737639439617637 0.00147698083537879 -2.82268915455515e-17)
(0.73960382508955 0.001723560561903 -6.2838659933756e-17)
(0.742389616978204 0.00199046413745209 -5.28278118903358e-17)
(0.746175826635123 0.00237358719035486 -3.31292315379394e-17)
(0.750881938368013 0.00294102435059856 -7.22196543875709e-17)
(0.756433381021459 0.00330983202465796 -2.0803949102146e-18)
(0.763015406091424 0.00362939169198253 3.28459566389749e-17)
(0.770495820876608 0.00402870970736352 1.28207551061717e-17)
(0.77886011809483 0.00426878599695729 -4.22802017339576e-17)
(0.788275105735027 0.00433670401929083 -1.51486544313848e-17)
(0.798705082715114 0.0043476191990345 5.62710098977112e-17)
(0.810021781419676 0.00432401674085435 9.79927258442703e-17)
(0.822154410147799 0.00409236387201769 2.46987318248564e-17)
(0.835174414270069 0.00379203035867276 -4.57540987030583e-17)
(0.848748992703764 0.00342529531096353 -1.85916468577461e-17)
(0.863137187139012 0.0029445024060416 -5.09141290557644e-17)
(0.877885719022021 0.00247606422214897 -3.3404636531649e-18)
(0.893589899390023 0.00196350471378801 6.54213457918007e-17)
(0.909178577134332 0.00141570866841371 1.08576746797161e-16)
(0.926713477956663 0.000889129637360664 -7.00003710554389e-17)
(0.943079329799992 0.00052522204039478 5.31207951428809e-17)
(0.963806681410301 3.44604794720435e-05 -2.51642653536849e-17)
(0.980769710936862 -7.82724195071202e-05 6.49759862568632e-17)
(1.00772779526579 -0.000463322446898412 4.12046467059134e-17)
(1.01832845928612 9.42936202471217e-05 3.61800946848847e-17)
(1.01486062480498 4.33288334432921e-05 -8.75445311196895e-18)
(1.01913041942545 0.000135811999579752 -1.56025264730483e-19)
(1.01801615890957 8.29563618780977e-05 6.79855130371312e-18)
(1.0195622270343 0.000173876789891289 2.55089854370817e-17)
(1.01878414576187 0.000137243964520638 -7.31824631575922e-18)
(1.01894260125905 0.000146193294197379 1.08707908182975e-17)
(1.01819770036001 0.000138051022904974 -2.79569147195835e-18)
(1.01770404757215 0.000135481066598975 8.28769634122961e-18)
(1.01685068392955 0.000117492968333998 5.99300493230826e-18)
(1.01611161062093 0.000111692953279361 7.87365551790356e-18)
(1.01524169214738 9.18259516741558e-05 -2.84738927177847e-18)
(1.01451880399537 9.20255948572081e-05 6.5680837968314e-19)
(1.01341370393543 0.000271315963232095 9.96805697836644e-19)
(0.378912740256882 0.00187672219187325 2.87755787682419e-18)
(0.380831491349722 0.00200284324491213 8.93484946707322e-18)
(0.381031723161554 0.00206375959954115 -6.37141208251442e-18)
(0.381256969392016 0.00219432581097182 -1.6026370651957e-17)
(0.381154886630483 0.00227278043023 -4.18343948817103e-18)
(0.380944414392674 0.0023122994436143 -1.07987293009572e-17)
(0.38068943555355 0.00233232731642862 2.89338906998964e-18)
(0.380421887609321 0.00234349679782881 -8.94768866373879e-18)
(0.380148949657707 0.0023523598861812 -7.38575448834882e-18)
(0.379872488585193 0.00236129477929353 2.85910806766772e-17)
(0.379593356182874 0.00237034402239773 2.67975513533505e-17)
(0.379310659720615 0.00237834080224722 -4.87808879988727e-18)
(0.379022876833538 0.00238643853828066 2.83938608968729e-17)
(0.378729946991924 0.00239519524920693 4.81295101474634e-17)
(0.378432322368705 0.00240368467078214 6.40585694938756e-17)
(0.378129391473269 0.00241133417270337 1.15289696209014e-17)
(0.377820277008482 0.00241904553488935 -5.53473467361691e-17)
(0.377505628825806 0.00242767304600268 -1.17824247225753e-16)
(0.377185350128833 0.00243618688472429 -1.41038250557606e-16)
(0.376858214602333 0.00244418851489052 6.06487277089136e-17)
(0.376523901027074 0.0024522495344972 -6.84170816682944e-17)
(0.376183469988009 0.00246152069496453 -1.43503759291721e-16)
(0.375836521927659 0.00247030681072019 -4.62987976298215e-17)
(0.375481457040173 0.00247892916319964 -8.39426931370001e-17)
(0.37511845816466 0.00248806209780772 1.19082897247538e-17)
(0.374748560753181 0.00249820435044801 4.25414009323855e-17)
(0.374371271406321 0.00250762579820796 1.15405924227256e-16)
(0.373985348440115 0.00251740298853581 5.52334768924125e-17)
(0.373590672277346 0.00252850433556677 6.74428446344391e-17)
(0.373188296151334 0.00254014810172684 -5.5742522741292e-17)
(0.372777483214603 0.00255122866617066 7.00198923362932e-17)
(0.372356725690275 0.00256291824228662 9.96347164242005e-17)
(0.371927509669977 0.00257671120485545 1.20747939289286e-17)
(0.371490882180896 0.00259065898970495 -3.2668503678013e-17)
(0.371045178052699 0.00260422420587224 3.91824698411134e-17)
(0.370589713528182 0.00261907689258053 4.48350461962391e-17)
(0.370127439814955 0.00263831864198252 5.81227330553074e-17)
(0.369659003429396 0.00265638218664706 7.08156625876332e-17)
(0.369181972879479 0.00267479800197842 1.33942320039893e-16)
(0.368697345282431 0.00269656965040477 2.84376972921249e-18)
(0.36820975465248 0.00272395673287557 -7.04509314024125e-17)
(0.367719801550623 0.00274940544030431 3.52690474265416e-17)
(0.367225931572597 0.00277657245584783 -1.24503367664607e-16)
(0.366732235969544 0.00281155069211245 -9.40249496196194e-17)
(0.366245894051991 0.00285202962932588 -1.75573329362226e-16)
(0.365767336941207 0.002890362284357 -1.40566604670233e-16)
(0.365297055620059 0.00293315089212765 -2.79190191197448e-17)
(0.364847255876724 0.00299328514361992 -1.2408015742862e-16)
(0.364427926142215 0.00305503866755083 -1.46860345916319e-16)
(0.3640388163239 0.00311462768840877 -7.25962534315469e-17)
(0.363688326117593 0.00318513823333862 -7.87301568830823e-18)
(0.363402735549371 0.0032919813015262 -2.11855004918348e-16)
(0.363195754171952 0.00338534760413977 -1.25884058940441e-16)
(0.363073315199287 0.00348174025367907 -6.19484765199282e-17)
(0.363060934350297 0.0036089303022701 2.46988258162059e-16)
(0.363202225418969 0.00377487511757872 3.99035652276456e-17)
(0.363519905882941 0.00392135394643331 1.44230999659705e-16)
(0.364041214680332 0.00407992350801785 -4.87790998932398e-17)
(0.364828183251214 0.00430834411300845 -3.8870886962593e-17)
(0.36595188659856 0.00455664061177753 -2.88280296516756e-17)
(0.367458322029266 0.00477851880453001 -1.97271616003904e-16)
(0.369452678334197 0.00504410150643734 2.39512319964038e-17)
(0.372217738412826 0.00557233877047473 -8.42568956875089e-17)
(0.376095622912162 0.00613675983393454 -1.87218489807859e-16)
(0.38141940511935 0.00674635492481886 -1.58435013972952e-16)
(0.388606810369177 0.007619665158368 7.08030650317258e-17)
(0.398055417596202 0.00884887832290776 -1.20661973536979e-16)
(0.409893568643968 0.0096608098865896 -9.23919387732107e-18)
(0.42425528598168 0.0103359016363228 9.89357487658706e-17)
(0.441233329775547 0.0111296883291054 4.24785653198639e-17)
(0.460875495578924 0.0115538924898948 -1.25980447862797e-16)
(0.483159797928111 0.011568115592813 -1.93353283971487e-16)
(0.507919771781365 0.0114232587361118 3.54203307778789e-17)
(0.535095773792077 0.0111421813855795 2.92527296316395e-16)
(0.564372931192524 0.0103999138660458 7.4226275355002e-17)
(0.59573098799807 0.00946167522353228 -1.35374835697222e-16)
(0.628513553393881 0.00834950267300683 -5.5001747036387e-17)
(0.663209030416467 0.00697760557233888 -1.52124674698266e-16)
(0.698647471860373 0.00561366477606105 1.50072569074894e-17)
(0.736485861048614 0.00412069056024966 8.15774793101038e-17)
(0.773831352506868 0.00256951467677427 2.28425633989697e-16)
(0.815721641416783 0.00104175150844927 -9.95986850866793e-17)
(0.85464809810347 -0.000128872649910018 1.48157841167481e-16)
(0.904138784367308 -0.0016201582106982 -7.38463603489612e-17)
(0.944164591704167 -0.00225324723755968 1.05471971119046e-16)
(1.00883280503675 -0.00320654284279304 1.20919446375087e-16)
(1.03275603314754 -0.000114023170949997 1.07220722981193e-16)
(1.02175100491777 -0.000184940654971759 1.57073507946881e-17)
(1.0301633748319 6.6100152170356e-05 1.01583533088112e-17)
(1.02520477866316 9.48909161224024e-06 2.07959381535309e-17)
(1.02732599134504 0.000200385166052546 3.50815480747426e-17)
(1.02418173817298 0.000169178137383858 -1.47662054772834e-17)
(1.02358053690309 0.000211031849281785 3.23199330127654e-17)
(1.02097553308419 0.00021227128674919 -8.41351627881183e-18)
(1.0192168776386 0.000225066273841048 2.52251786950958e-17)
(1.01666750613309 0.00020757408425759 1.78345893506898e-17)
(1.01448997429421 0.000205774500211026 1.13732661877706e-17)
(1.01201881255712 0.000181239617048675 6.90562040636977e-19)
(1.00997061816856 0.000191221603724212 2.15723030084261e-18)
(1.00779088098791 0.00039748609248471 2.92902294148532e-18)
(0.0966373193213318 0.00400426818160496 7.25547412664119e-18)
(0.0997955397051136 0.00453614104291617 1.19301565041258e-17)
(0.100180148668591 0.00497052080728216 2.27631263639924e-19)
(0.10039768726462 0.00531600425927703 -8.56907906139082e-18)
(0.10017218609114 0.00550840471600648 -4.76714155155865e-18)
(0.0998046559044713 0.00559763894340995 -2.47417090085831e-17)
(0.0993790061688825 0.00563804417990453 1.78450330326385e-18)
(0.0989348768611366 0.00565871856462772 -1.68635136234949e-17)
(0.098482109180814 0.00567370928263052 -1.73739435302161e-17)
(0.0980236549868057 0.00568812296059627 1.53274989859948e-17)
(0.0975604327679504 0.00570262870669512 4.62634703101726e-17)
(0.0970912744855082 0.00571631037728317 4.83502160518961e-17)
(0.0966145974417392 0.00573015547108712 5.43786643044212e-17)
(0.0961305246380711 0.00574470042013628 8.06022863855076e-17)
(0.0956393480677347 0.00575902759202576 9.85726988445573e-17)
(0.095140048639755 0.00577258545411193 4.43950092266381e-17)
(0.0946316059062516 0.00578627856273434 -9.22093570801275e-17)
(0.09411457907775 0.00580092736249712 -9.37935816582658e-17)
(0.0935890088681147 0.00581560086493078 -1.53329045148272e-16)
(0.0930535762146017 0.00582983258976469 4.15709826251162e-17)
(0.0925075352398753 0.00584427991207261 -1.37510097953413e-16)
(0.0919517965725579 0.00585996663964243 -1.8411445309619e-16)
(0.0913861026718267 0.00587539240414996 -1.15918086730178e-17)
(0.0908087361441819 0.00589072764361418 -4.63655136522928e-17)
(0.0902194998527676 0.00590677080847654 1.87140982150784e-17)
(0.089619376621335 0.00592391162273112 5.90815437439638e-17)
(0.0890077100634247 0.0059405648728837 1.73399101789732e-16)
(0.0883828991266422 0.00595774203909478 8.46678131921272e-17)
(0.0877451250653142 0.00597649304632646 6.13044585880063e-17)
(0.0870953190640028 0.00599597426825014 -2.49237252076944e-17)
(0.0864323344940123 0.00601510659685526 1.55844989947866e-16)
(0.0857545220574494 0.00603514613449866 1.79791311616185e-16)
(0.0850633613888685 0.00605754528326486 5.02218317586583e-17)
(0.0843598904438835 0.00608042893067401 -5.29035101940528e-19)
(0.083642105912359 0.0061031208556847 6.62172100021834e-17)
(0.0829087810917933 0.00612771392227358 2.42195560282349e-16)
(0.0821636850283044 0.0061570102375124 1.78080687675949e-16)
(0.0814078352346229 0.00618569763524063 7.07697357270035e-17)
(0.0806378913739263 0.00621495238026275 8.8421089152912e-17)
(0.0798548164915758 0.00624852975652158 6.0626587784703e-17)
(0.0790650742102866 0.0062882503873145 -9.30445488046309e-17)
(0.0782696229641397 0.00632667458922092 5.69489720153958e-17)
(0.0774652093153388 0.00636742832344459 -2.21908989362501e-16)
(0.0766577656574277 0.00641734093916507 -6.73926150419907e-18)
(0.0758577485034274 0.00647367781683684 -1.52309566084713e-16)
(0.0750656675395554 0.00652837058809093 -2.88491580602464e-16)
(0.074279690135775 0.00658925334776897 -7.96083942927264e-17)
(0.0735184366142081 0.00666915601814483 -7.43888830964952e-17)
(0.0727981063165182 0.00675224747535162 -2.47073918788337e-16)
(0.072116794562155 0.00683287719750409 -1.20186982936835e-16)
(0.0714792290109581 0.00692885946260584 3.15499469983138e-19)
(0.070932123946174 0.0070628167128642 -1.82513787432586e-16)
(0.0704987613287763 0.00718540883159741 -4.11365508326041e-17)
(0.070173067550035 0.00731046291283488 -1.4900128215945e-16)
(0.0699915941442366 0.0074730019860784 2.42613033820531e-16)
(0.0700326838290925 0.007676557321104 6.09781827804777e-17)
(0.0703298831003036 0.00786099917206703 1.56907001992429e-16)
(0.0708911797765878 0.00806082576310527 8.77624889877623e-18)
(0.0718254535101166 0.00833708132242956 -3.10995719256591e-17)
(0.0732574445271282 0.00863649428439987 -7.4353027539102e-17)
(0.075238116341398 0.00890265199664717 -1.50952990881116e-16)
(0.077822960051828 0.00923937007275027 4.86852390591956e-17)
(0.0814550028031455 0.00985468341306783 -2.28895809547537e-16)
(0.0866238045487502 0.0105297601099003 -2.28878709141935e-16)
(0.0936282068206985 0.0112566225098377 -2.6508800866126e-16)
(0.102993521892376 0.0123098286423159 1.30444802231348e-17)
(0.115722663721601 0.0136912900708948 -1.57709927748981e-16)
(0.132080910462247 0.0146282669442144 -2.45909177341577e-17)
(0.151836787252971 0.0153649917313908 1.67476712231321e-16)
(0.175508542866921 0.0161520337389997 8.66301795727133e-17)
(0.203282803950571 0.0164899673065054 -2.10648545118058e-16)
(0.234777885915151 0.0163077673884685 -3.48958860776994e-16)
(0.269705602719682 0.0158940575029888 1.20768113494434e-17)
(0.308271305703955 0.0152337365035182 4.89763739012525e-16)
(0.34988981571423 0.0140453296664094 1.23030730291539e-16)
(0.394350066010476 0.0125581014085922 -2.24092313055838e-16)
(0.440915051897511 0.0108339467757141 -8.97256689425746e-17)
(0.490116158179709 0.00879654229702818 -2.54919237599987e-16)
(0.540264337942872 0.00674352006600974 2.0907507100847e-17)
(0.593930584359575 0.00448948817593909 9.42532551820878e-17)
(0.646703375940469 0.00221519588087551 3.28221974685318e-16)
(0.705656233384003 -9.27349377355333e-05 -8.53644761461854e-17)
(0.760505632964564 -0.00194059788357912 2.86897044118595e-16)
(0.830035237133612 -0.00425357415353479 -1.2164676328743e-16)
(0.886038961891128 -0.0054625171462212 1.62528366506019e-16)
(0.976769019981189 -0.0067432137932026 1.5375642222273e-16)
(1.01001709101173 -0.000179498170708553 1.36099629586046e-16)
(0.993772658738667 -0.000332576972697161 3.91543670622843e-17)
(1.00500991221084 3.11655515489911e-05 6.78902653771187e-17)
(0.9973986812395 -8.48064058557521e-06 3.55512570027843e-17)
(0.999899912147118 0.00018390467960482 8.70847250357413e-18)
(0.995137240762663 0.000179373961495499 -5.69458179331185e-17)
(0.994008509402995 0.000238224862329865 3.35912615378017e-17)
(0.990122374147595 0.000237523756634279 -1.44335755642428e-17)
(0.987496015257329 0.000254453947091823 4.24751257224414e-17)
(0.98378162688387 0.000239529150607207 3.04108370709908e-17)
(0.980618134955647 0.000229436177647603 1.48241073241136e-17)
(0.977050254700977 0.000203842089087134 3.93311215354879e-18)
(0.974105401660638 0.000195923770893674 3.82472975594736e-18)
(0.971233120498431 0.000164325991008822 3.84266697504977e-18)
(-0.110957377390314 0.0069435768984372 1.41761677327996e-17)
(-0.107775983164676 0.00723767326268846 2.00404339757469e-17)
(-0.107513572826304 0.00823233228046637 2.00425998512802e-18)
(-0.10749389407827 0.00884880658339116 -3.13230290325176e-18)
(-0.107890246414121 0.00916803020165585 -2.03156514889438e-18)
(-0.10840909928519 0.00930898642323224 -1.64507407493665e-17)
(-0.108977762255658 0.00936996745231449 -1.84918643075777e-17)
(-0.109563657869855 0.00940021562728305 -3.48246316272474e-17)
(-0.110159101552371 0.00942140988999898 -3.42549167339459e-17)
(-0.110761684752917 0.00944125161708064 3.31596069165754e-18)
(-0.111370746046939 0.00946117694655392 7.39930940609899e-17)
(-0.111987365003117 0.00948064737980845 8.39930298069343e-17)
(-0.112612904021064 0.0095003675779009 7.90091105654783e-17)
(-0.113247280630902 0.00952075347178148 1.14545436119642e-16)
(-0.113890406871708 0.00954104476112493 1.50622938706582e-16)
(-0.11454336073288 0.00956079120215401 9.36262818161274e-17)
(-0.115207145690045 0.0095807477541467 -3.61338795847556e-17)
(-0.115881420689535 0.00960158622963411 -6.45114664585032e-17)
(-0.116566180098539 0.0096225903493278 -9.63748618897402e-17)
(-0.117262628951804 0.00964333698580344 -3.6241554994677e-17)
(-0.117971652238543 0.00966442742525008 -1.9788185192482e-16)
(-0.118692645186393 0.00968665214238288 -1.86316755356879e-16)
(-0.119425846424551 0.00970886393070724 5.89152728087327e-18)
(-0.120172819047728 0.00973112716904923 -2.07541968151195e-17)
(-0.120933978188941 0.00975418637863008 1.87737646785971e-17)
(-0.121708619552062 0.00977831509339527 6.52049919785592e-17)
(-0.122497445420119 0.00980226270238141 1.46506070334111e-16)
(-0.123302030460357 0.00982684832828374 1.04031306887608e-16)
(-0.124122167627978 0.00985301181504565 8.42892147445973e-17)
(-0.124957177837328 0.00988001320131392 -2.74549031148709e-17)
(-0.125808278265755 0.00990695100068567 1.62300870699839e-16)
(-0.126677030806266 0.00993494079672801 1.82128997600786e-16)
(-0.127562205051467 0.00996520439467245 8.13377614760003e-17)
(-0.128462955553735 0.00999619328778386 1.19373258594841e-17)
(-0.129381184833276 0.0100272533495091 8.58597569000744e-17)
(-0.130318241378263 0.0100604140026574 1.88348673945852e-16)
(-0.131270383746063 0.0100979172479919 3.05012184290095e-16)
(-0.132236469420177 0.0101353522497631 1.92304281425789e-16)
(-0.13321978185518 0.0101735303787365 1.8615149317333e-16)
(-0.134219384505644 0.0102160970382003 1.51721383950063e-16)
(-0.135228426674458 0.0102643863555254 8.09253158482868e-18)
(-0.136245597081475 0.0103120346030474 4.93322835334984e-17)
(-0.137274395667919 0.0103621476111358 -3.71495539261458e-16)
(-0.138308185489884 0.0104210312614814 -5.1086379697458e-17)
(-0.139335359118662 0.0104860795572481 -1.33467786903917e-16)
(-0.140354734236198 0.0105500215981995 -2.05930901755059e-16)
(-0.141368662559017 0.0106203132358549 -1.21135760788524e-16)
(-0.142355824860963 0.0107080716358062 -1.46819891495848e-16)
(-0.143297077108004 0.0107993677173866 -3.60055479600947e-16)
(-0.144193695168772 0.0108881802128103 -1.67380044521231e-16)
(-0.145042435265579 0.0109925597586485 1.89746638765069e-17)
(-0.145786820460672 0.0111308303078383 -1.34466949248299e-16)
(-0.146397806116439 0.0112595947122916 -7.00489497047629e-17)
(-0.146885977712607 0.0113895564802155 -2.39276340584471e-16)
(-0.147208859649568 0.0115551971220123 1.44543033442453e-16)
(-0.147269968913721 0.0117571362722953 1.2136352862812e-16)
(-0.14702764038091 0.0119406021211533 1.29560929197139e-16)
(-0.146483193076624 0.0121375094339954 -2.78980202470739e-18)
(-0.145501788580507 0.0124034675902351 -2.39949602544064e-17)
(-0.143928730163961 0.0126885727809009 -2.33441605857226e-17)
(-0.141705145128382 0.0129365082875485 -1.80593739861432e-17)
(-0.138805100348393 0.0132556272559566 8.48921919139414e-17)
(-0.134698726128274 0.0138269557996681 -3.72554137981255e-16)
(-0.128814772299345 0.0144528295597197 -2.32337788218296e-16)
(-0.120874354816603 0.0151156223387588 -2.91607762253128e-16)
(-0.110296366480482 0.0160864584976507 -2.28230948507829e-17)
(-0.0957080875955609 0.0173226183370632 -1.15119168638753e-16)
(-0.076742721237382 0.0181130161236534 9.71904102722057e-17)
(-0.0538591301488446 0.0186694795431734 2.41367977924113e-16)
(-0.0262746060423743 0.0192167250063247 4.95608828524668e-18)
(0.00628681162191478 0.0192881140564037 -2.97534114393195e-16)
(0.0432178561412445 0.0188105494317824 -5.23932709748899e-16)
(0.0841491015727131 0.0180673549198171 -1.39949315491805e-17)
(0.129457564211407 0.0170278913120484 5.66140885376455e-16)
(0.178391628011958 0.0154520924865185 1.69303685404236e-16)
(0.230612302837215 0.0135438277433281 -1.91834317422189e-16)
(0.285346234802043 0.011374137501099 -1.38414249510152e-16)
(0.343134345007357 0.00888215726584359 -3.60481254111204e-16)
(0.401974123431405 0.00635268447741433 2.86457753377935e-18)
(0.464993356533939 0.00359615954107238 9.98550551031373e-17)
(0.526853045108272 0.000825693011386367 4.15817679425156e-16)
(0.595808024663007 -0.00201060978380026 -6.00243892491083e-17)
(0.659980937935223 -0.00440794139762794 3.13845595579209e-16)
(0.741183022407432 -0.00730821644943355 -1.22214121898835e-16)
(0.80644626545456 -0.00909897124245982 1.51626093986783e-16)
(0.912460371617823 -0.0104897401670078 1.85306054268283e-16)
(0.951264070008672 -0.000252412851296841 1.24696914594364e-16)
(0.931773513897105 -0.000314036382481538 6.21286626319937e-17)
(0.944575876879922 -1.16827561296439e-06 9.83637313641888e-17)
(0.935373184066672 5.72728137219817e-06 5.08967935968059e-17)
(0.938048036599876 0.000161496806177972 2.26768924568454e-17)
(0.932324979709963 0.000177770355796887 -7.89938841110023e-17)
(0.930872512141301 0.000228209536970319 3.81911679167239e-17)
(0.926234948254791 0.000231924298179801 -1.03590321256483e-18)
(0.923103069510378 0.000245123542275043 4.23098736585892e-17)
(0.918713254372352 0.000232761631469273 3.92142829209396e-17)
(0.914979735178766 0.000219798504814973 1.77674571961194e-17)
(0.910776247780516 0.000193943955562908 7.67637373659941e-18)
(0.907305349101876 0.000175871500245081 5.46815197657498e-18)
(0.904037711708748 0.000107496144050714 4.28786816392575e-18)
(-0.244886595153998 0.00910372600472819 1.88255197575233e-17)
(-0.243150406515508 0.00963066766724618 2.43063038978348e-17)
(-0.243412269806311 0.0111422129452981 3.48335219355008e-18)
(-0.243785278432885 0.0119761179713639 6.28661180992458e-19)
(-0.244381743637768 0.0123843465743409 6.02521051961101e-18)
(-0.245026799441858 0.0125587424333011 -9.01762727893839e-18)
(-0.245693017585571 0.0126330839322982 -4.54609113753312e-17)
(-0.246368474528966 0.0126703462744265 -5.56720563861559e-17)
(-0.247052098439705 0.0126967847328571 -5.09333593241209e-17)
(-0.247743403137003 0.0127214390245486 -1.51497954328971e-17)
(-0.24844223205818 0.0127462292474042 4.71445188118761e-17)
(-0.24914945647045 0.0127708905919391 7.51690655427585e-17)
(-0.249866112585245 0.0127958904890419 9.52595585460906e-17)
(-0.250592195230314 0.0128215136279703 1.4665243963663e-16)
(-0.251327780570221 0.0128471836149654 2.1313745117541e-16)
(-0.252073849067827 0.012872557974502 1.60761169605122e-16)
(-0.252831306047181 0.0128982108903014 1.29813709966021e-18)
(-0.253600028519523 0.0129246594670824 -3.77866057089942e-17)
(-0.254380089013575 0.0129513813408063 -5.5721990318021e-17)
(-0.255172498472413 0.0129780501310323 -7.64361613344234e-17)
(-0.255978133177736 0.0130051428641139 -1.96937738314496e-16)
(-0.256796691914744 0.0130332553353222 -1.02663726091355e-16)
(-0.257628426604323 0.0130615386253728 2.84426200058143e-19)
(-0.258474641637493 0.0130900288791732 -1.7450047921497e-17)
(-0.259335857925691 0.0131193232529987 1.46609943864804e-17)
(-0.260211678931811 0.0131496292927822 9.97104129736952e-17)
(-0.261102780990573 0.0131800054934338 1.4638144159628e-16)
(-0.262010543565951 0.0132110824446042 1.26106554921324e-16)
(-0.262934832390784 0.0132436125556584 8.25808221517911e-17)
(-0.263875226942031 0.0132770227606263 2.90981510870674e-17)
(-0.264832847547737 0.0133106115704875 1.87381895435532e-16)
(-0.265809062407673 0.0133452682477003 1.96793942399678e-16)
(-0.266802955939758 0.0133819612550276 1.08176435052905e-16)
(-0.267813918573175 0.0134194910314196 3.58427773569359e-17)
(-0.268843562846696 0.0134573255188686 1.01077682706778e-16)
(-0.269893159064564 0.0134971307180932 2.50702580381067e-16)
(-0.270959388538044 0.0135406606832886 3.3617772544573e-16)
(-0.272041125459568 0.0135844387456156 2.59446759724743e-16)
(-0.273141178202466 0.0136290667211442 3.35234809807987e-16)
(-0.2742586759509 0.0136775430983219 2.30633801829915e-16)
(-0.275387169199097 0.0137308866770188 1.05209657710977e-16)
(-0.276525108243287 0.0137839906093876 -1.18386817274173e-16)
(-0.277675598061443 0.0138393344917103 -4.2516518589739e-16)
(-0.278832073009413 0.0139020569818898 -6.38228111574986e-17)
(-0.279983116614936 0.0139699790317464 -1.1655420616969e-16)
(-0.28112684473288 0.0140371246744425 -1.83553692200044e-16)
(-0.282265388560748 0.0141096327947142 -1.53692146439402e-16)
(-0.283377291201935 0.0141964290791423 -2.24648702628643e-16)
(-0.284442821147172 0.0142860688662958 -3.78028760588161e-16)
(-0.285461927628372 0.0143733346998051 -2.13550449296309e-16)
(-0.286432067592376 0.0144733673134994 5.01697664810341e-17)
(-0.287294571094741 0.014600603119909 -1.11036688093268e-16)
(-0.288018063267767 0.0147192030524512 -8.24255249475468e-17)
(-0.288613881698477 0.0148375680041835 -2.28257631150494e-16)
(-0.289038272617873 0.01498442064161 1.80048412644379e-16)
(-0.289189289557519 0.0151592187347727 1.77923261346151e-16)
(-0.289021102983868 0.0153159916880288 1.59417745265977e-16)
(-0.288539330378814 0.0154811289424466 -2.62815534709139e-17)
(-0.28760050656466 0.0156999738721949 -1.76829393120169e-17)
(-0.286039516991712 0.0159295456260018 2.64934424461256e-17)
(-0.283792199260856 0.0161211700014757 1.12351936340402e-16)
(-0.280851545670024 0.0163672021187384 1.34871013069636e-16)
(-0.276662733653643 0.0168139926804615 -4.3936866535008e-16)
(-0.27063173644451 0.0172918296307727 -3.8979716728109e-16)
(-0.262501294393856 0.0177814769192804 -3.13932927033438e-16)
(-0.251686481928397 0.0185088982311064 -5.14404445063857e-17)
(-0.236647719382725 0.0194193813373624 -1.98233721571228e-16)
(-0.216960461114528 0.0199087345025445 2.11406538094226e-16)
(-0.193203430155269 0.0201578106872008 2.69059245168629e-16)
(-0.164466838211226 0.0203479075920789 -6.71917700208604e-17)
(-0.130428662913802 0.0200805338345782 -3.86568782154722e-16)
(-0.0918083136863429 0.019299893797891 -5.76399972556504e-16)
(-0.0490152962256636 0.0182506027844126 -4.15871888273309e-17)
(-0.00158131785564025 0.0169016157560716 5.25037600088477e-16)
(0.0496716284599951 0.0150571872704891 8.9615546851125e-17)
(0.104336643058918 0.0128975487974777 -1.60153869656001e-16)