/*--------------------------------*- C++ -*----------------------------------*\
  =========                 |
  \\      /  F ield         | OpenFOAM: The Open Source CFD Toolbox
   \\    /   O peration     | Website:  https://openfoam.org
    \\  /    A nd           | Version:  8
     \\/     M anipulation  |
\*---------------------------------------------------------------------------*/
FoamFile
{
    version     2.0;
    format      ascii;
    class       volScalarField::Internal;
    location    "0.0505000";
    object      V0;
}
// * * * * * * * * * * * * * * * * * * * * * * * * * * * * * * * * * * * * * //

dimensions      [0 3 0 0 0 0 0];

value           nonuniform List<scalar> 
900
(
4.01841211121505e-14
3.97118065330792e-14
3.92399818702593e-14
3.87682458210483e-14
3.8296655421159e-14
3.7825235726893e-14
3.73541852739268e-14
3.6883484580156e-14
3.64129306870237e-14
3.59425877442949e-14
3.54725554852741e-14
3.50027906928363e-14
3.45331743275813e-14
3.40637842202917e-14
3.35946790689307e-14
3.31257987974201e-14
3.26570702146669e-14
3.21885883269301e-14
3.17203873231714e-14
3.12523859846213e-14
3.07845354256448e-14
3.03169649514078e-14
2.98496857831664e-14
2.93825731103768e-14
2.89156475021876e-14
2.84490267752957e-14
2.79826977496091e-14
2.75165344901215e-14
2.70506086684652e-14
2.65850250608523e-14
2.61197309261829e-14
2.56545988588377e-14
2.51897814257413e-14
2.47253778854843e-14
2.42612703966956e-14
2.37973146431874e-14
2.333382516182e-14
2.28708802557301e-14
2.24081882935805e-14
2.19457578362625e-14
2.14839981094863e-14
2.1022928303629e-14
2.05621084411248e-14
2.01018087925163e-14
1.96425394575694e-14
1.91841456427699e-14
1.87259849521066e-14
1.82689245716338e-14
1.78135495359329e-14
1.73592255157708e-14
1.69050909107033e-14
1.64532802121443e-14
1.60042834220261e-14
1.555603201597e-14
1.51090858015978e-14
1.4666079640091e-14
1.42269085203378e-14
1.37885092274053e-14
1.33537223422948e-14
1.29255789789346e-14
1.25022580606473e-14
1.20769319397847e-14
1.16596619169313e-14
1.12593489882126e-14
1.08679577348792e-14
1.04846501474853e-14
1.01378411206318e-14
9.82455771040762e-15
9.51601619609325e-15
9.23480633238721e-15
8.98770698535222e-15
8.75330134697849e-15
8.52691814359446e-15
8.3250434055496e-15
8.13680763632035e-15
7.94743972705311e-15
7.76622838968514e-15
7.5796808527439e-15
7.3813672953257e-15
7.18901496148724e-15
6.96917360327532e-15
6.71177468821238e-15
6.45543174217227e-15
6.17059766610623e-15
5.82591459932599e-15
5.47962920667993e-15
5.34312019603983e-15
5.34644100734957e-15
5.31693582888128e-15
5.29285871676101e-15
5.25094985818032e-15
5.1978373446367e-15
5.14845009280985e-15
5.0964071954143e-15
5.04060482367522e-15
4.98491573235931e-15
4.92812984865303e-15
4.87119878026738e-15
4.81239323356242e-15
4.69123363684834e-15
4.11662542785201e-14
4.06713893469908e-14
4.01772298462325e-14
3.96836719904837e-14
3.91906826210783e-14
3.86982300000007e-14
3.82063156631852e-14
3.77149285873465e-14
3.72240449884406e-14
3.67336573203454e-14
3.62437691607215e-14
3.57543720826193e-14
3.526545376692e-14
3.47770146941858e-14
3.42890584512917e-14
3.38015781665013e-14
3.33145685271101e-14
3.28280353323899e-14
3.23419818885204e-14
3.18564012552061e-14
3.13712929740201e-14
3.08866677529676e-14
3.0402528441718e-14
2.9918868292851e-14
2.94356916738929e-14
2.89530124174433e-14
2.84708332630509e-14
2.79891510521422e-14
2.750797591617e-14
2.70273228088894e-14
2.6547193038456e-14
2.60675894253214e-14
2.55885331893998e-14
2.51100437904613e-14
2.46321219176663e-14
2.41547816467261e-14
2.3678063645857e-14
2.32019937138228e-14
2.27265748657761e-14
2.22518419797586e-14
2.17778610853754e-14
2.13046676162888e-14
2.08322830528063e-14
2.03607841913147e-14
1.98902710152573e-14
1.94207886950276e-14
1.89524005207345e-14
1.84852644149489e-14
1.80195264979735e-14
1.75552352484727e-14
1.70925401640311e-14
1.66317489799102e-14
1.61730634479655e-14
1.57165630278194e-14
1.52625523318547e-14
1.48115071457808e-14
1.4363679126948e-14
1.39192993893749e-14
1.34789790533051e-14
1.30433947230235e-14
1.26128546877694e-14
1.2188375819644e-14
1.1772505125455e-14
1.13681163337128e-14
1.09776233039993e-14
1.0604705140776e-14
1.02534835176278e-14
9.92494215132706e-15
9.61799426803023e-15
9.33272623034586e-15
9.06865628473295e-15
8.82264094439562e-15
8.59186171436026e-15
8.37461804266642e-15
8.16742675487336e-15
7.96562344601694e-15
7.76513386280962e-15
7.56143381976973e-15
7.3505117125513e-15
7.12862655464415e-15
6.88900320905874e-15
6.62749411522595e-15
6.34377046294551e-15
6.03242139186731e-15
5.68779913722022e-15
5.34100622533563e-15
5.19526793521027e-15
5.21637733923072e-15
5.21322393382228e-15
5.19507284197244e-15
5.16460592221183e-15
5.12509897255236e-15
5.0807077623233e-15
5.0329544535286e-15
4.98277265009123e-15
4.93154784403889e-15
4.88042344107445e-15
4.83065533732194e-15
4.78297645268341e-15
4.74576783062858e-15
4.21427359752779e-14
4.16259447708745e-14
4.11099683545356e-14
4.05948619279839e-14
4.00805772138431e-14
3.95670833925364e-14
3.90543836360118e-14
3.85424662067241e-14
3.80313051596078e-14
3.75208932600239e-14
3.70112349537542e-14
3.65023210273102e-14
3.59941379127235e-14
3.54866867062785e-14
3.49799715102224e-14
3.44739845897663e-14
3.39687198910246e-14
3.3464184122824e-14
3.29603808494268e-14
3.24573020548964e-14
3.19549468666235e-14
3.14533273430382e-14
3.09524462921327e-14
3.04522954972136e-14
2.99528795744281e-14
2.94542137522567e-14
2.89563003889226e-14
2.84591348466365e-14
2.79627281005077e-14
2.74670964065502e-14
2.69722401070077e-14
2.64781605654614e-14
2.59848809389735e-14
2.5492421935628e-14
2.50007821920546e-14
2.45099742742748e-14
2.40200430713759e-14
2.35310151309e-14
2.30428890070896e-14
2.25556998805349e-14
2.20695198592079e-14
2.15843837172947e-14
2.110030617856e-14
2.06173680647331e-14
2.013567734863e-14
1.9655274535479e-14
1.91762129785487e-14
1.86986641265685e-14
1.82227833556395e-14
1.7748603610514e-14
1.72762610035366e-14
1.68060991095883e-14
1.63383246678344e-14
1.58729754771662e-14
1.54103632814453e-14
1.49510132259936e-14
1.44951637390537e-14
1.40429825088572e-14
1.35951294916916e-14
1.31523399390284e-14
1.27148434255578e-14
1.22835065678577e-14
1.18610647185291e-14
1.14505403846261e-14
1.10541225034951e-14
1.0675479532047e-14
1.03192568100317e-14
9.98631412050011e-15
9.67502725632951e-15
9.38578542326577e-15
9.11817732897015e-15
8.86873314210064e-15
8.63456950380401e-15
8.41397101860757e-15
8.20335573208139e-15
7.99795355894133e-15
7.79353655633236e-15
7.58563148221841e-15
7.37009757238917e-15
7.14262063605955e-15
6.89733484815201e-15
6.63016567366234e-15
6.33909992258565e-15
6.01993615920178e-15
5.6689970053528e-15
5.31675383739541e-15
5.16913120327327e-15
5.19203047330786e-15
5.19236985024839e-15
5.17640503522865e-15
5.14818859823702e-15
5.11104290926676e-15
5.06822869611484e-15
5.0217420683829e-15
4.9728585959204e-15
4.92287565005141e-15
4.87311846548408e-15
4.82515383212705e-15
4.78154919929506e-15
4.75173532002875e-15
4.31206470914803e-14
4.25818740935604e-14
4.20440373481458e-14
4.15073486087412e-14
4.09717374507006e-14
4.04371728373677e-14
3.99036576697177e-14
3.93711796147784e-14
3.8839712093745e-14
3.83092476577046e-14
3.7779790617443e-14
3.72513313805485e-14
3.67238560688305e-14
3.61973657295601e-14
3.5671864366208e-14
3.51473439812462e-14
3.46237983954825e-14
3.41012343600065e-14
3.35796553401791e-14
3.3059053107048e-14
3.25394267849292e-14
3.20207885398405e-14
3.15031410676482e-14
3.09864759818503e-14
3.0470797981335e-14
2.99561224247125e-14
2.94424515674444e-14
2.89297806835324e-14
2.84181208995023e-14
2.79074885715777e-14
2.73978839282475e-14
2.68893083766327e-14
2.63817853642821e-14
2.58753356933819e-14
2.53699578911756e-14
2.48656647869347e-14
2.43625017641818e-14
2.38604954377491e-14
2.33596443145636e-14
2.28599841329634e-14
2.23615876791741e-14
2.18644898225057e-14
2.13687055228117e-14
2.0874316588152e-14
2.03814317852863e-14
1.98900917123328e-14
1.9400350520872e-14
1.8912381282333e-14
1.84263400749547e-14
1.79422598475004e-14
1.74602785653183e-14
1.69807421921001e-14
1.65038578118542e-14
1.60296635574312e-14
1.5558473838042e-14
1.50908162538405e-14
1.46269292521147e-14
1.41669819304865e-14
1.37116377536546e-14
1.32616336323905e-14
1.28171993931695e-14
1.23792106493216e-14
1.1950418167322e-14
1.15338558964022e-14
1.1131721772271e-14
1.07476960889993e-14
1.0386426570735e-14
1.00487582283407e-14
9.73304253323557e-15
9.4396402335042e-15
9.16811186392916e-15
8.91494891641325e-15
8.67722407854218e-15
8.45318652167623e-15
8.2392170510316e-15
8.03050260510285e-15
7.82277267380404e-15
7.61151576953568e-15
7.39255310394362e-15
7.16153074733206e-15
6.91258743798432e-15
6.64162099431636e-15
6.34652420822216e-15
6.02315100161792e-15
5.66799252654266e-15
5.31205057446117e-15
5.16383511967437e-15
5.18673185652517e-15
5.18753759958638e-15
5.17210050131827e-15
5.14445901515341e-15
5.10792243837054e-15
5.06566405483759e-15
5.01968417974588e-15
4.97129673353942e-15
4.92180813780046e-15
4.87255801905327e-15
4.82519533477789e-15
4.78245267961898e-15
4.75352029224353e-15
4.40998464467137e-14
4.35390465729601e-14
4.2979313475541e-14
4.24210132792751e-14
4.18640470614113e-14
4.13083833424082e-14
4.07540247606195e-14
4.02009584742486e-14
3.9649157238898e-14
3.9098613325356e-14
3.85493309406518e-14
3.80013001570783e-14
3.74545067489542e-14
3.69089516837774e-14
3.63646389040197e-14
3.58215601675747e-14
3.52797091278534e-14
3.47390925703466e-14
3.41997139056319e-14
3.3661564690091e-14
3.31246439961612e-14
3.25889641116505e-14
3.20545276651476e-14
3.15213260758076e-14
3.09893640848511e-14
3.04586572089253e-14
2.99292076345675e-14
2.94010105115109e-14
2.88740770905619e-14
2.83484238691543e-14
2.7824050976257e-14
2.73009598026918e-14
2.67791740784109e-14
2.62587147654186e-14
2.57395802633686e-14
2.52217835633109e-14
2.47053705849498e-14
2.41903681036881e-14
2.36767744925597e-14
2.31646259330305e-14
2.26539959928308e-14
2.21449197116168e-14
2.16374121072923e-14
2.11315559109572e-14
2.06274608769636e-14
2.01251676736558e-14
1.96247309244706e-14
1.91263254384747e-14
1.86301083658061e-14
1.81361123452628e-14
1.76444765840981e-14
1.7155550110869e-14
1.66695407904149e-14
1.61864860868683e-14
1.57067028211099e-14
1.52307222026911e-14
1.47587826513137e-14
1.42910530689028e-14
1.38282010869607e-14
1.3370966895604e-14
1.29195782078999e-14
1.24749148976956e-14
1.20397460854604e-14
1.16171213160308e-14
1.12092433933574e-14
1.081980525519e-14
1.04534701910583e-14
1.01110681751229e-14
9.79091574642762e-15
9.49334823066672e-15
9.21789895857152e-15
8.96101570592009e-15
8.71972614080352e-15
8.49224542053062e-15
8.27491963844563e-15
8.06289852218855e-15
7.85187837219075e-15
7.63731938161362e-15
7.41502584597244e-15
7.18063449601981e-15
6.92827541031749e-15
6.65384448386762e-15
6.3552364478759e-15
6.02831648383017e-15
5.66961012658106e-15
5.31060520337094e-15
5.16216860530708e-15
5.18490416372766e-15
5.18575817326234e-15
5.17049252569191e-15
5.14310089640584e-15
5.10686628808639e-15
5.06493344622241e-15
5.01928647925104e-15
4.97123388128741e-15
4.92207714069699e-15
4.87315276238411e-15
4.8261130048715e-15
4.78368167532532e-15
4.75496912664482e-15
4.50802868848067e-14
4.44974169570308e-14
4.39157529416655e-14
4.33358135101543e-14
4.27574651320081e-14
4.21806754946389e-14
4.16054469634219e-14
4.10317662766766e-14
4.04596055032608e-14
3.98889565612038e-14
3.93198235761527e-14
3.87521963329671e-14
3.81860602277863e-14
3.76214161122308e-14
3.70582678996632e-14
3.64966071263845e-14
3.59364272418957e-14
3.53777350519715e-14
3.48205339526273e-14
3.42648152912441e-14
3.37105780431135e-14
3.31578346200727e-14
3.26065876308372e-14
3.20568282900092e-14
3.15085613343886e-14
3.09618024537234e-14
3.04165538069711e-14
2.98728103971862e-14
2.93305835629413e-14
2.87898899722104e-14
2.82507296815284e-14
2.77131040200345e-14
2.71770369731612e-14
2.66425497148545e-14
2.61096405272865e-14
2.55783224832673e-14
2.50486420299556e-14
2.4520626187455e-14
2.39942731743385e-14
2.34696195048341e-14
2.29467395499395e-14
2.24256686136021e-14
2.19064217002074e-14
2.13890823462452e-14
2.08737613786496e-14
2.03604996183786e-14
1.98493519926507e-14
1.93404949514151e-14
1.88340869270073e-14
1.83301602836025e-14
1.78288551317787e-14
1.73305235458369e-14
1.68353745564304e-14
1.63434448756374e-14
1.5855053298812e-14
1.53707348075769e-14
1.48907281974628e-14
1.44152018619725e-14
1.39448272179605e-14
1.34803482192346e-14
1.30219905322943e-14
1.25706367821282e-14
1.21290734523019e-14
1.17003666337337e-14
1.12867244361765e-14
1.08918520775755e-14
1.05204301568559e-14
1.01732761042341e-14
9.84867166150735e-15
9.5469260778461e-15
9.26754560991762e-15
9.00693410441893e-15
8.76207362966951e-15
8.53114487142878e-15
8.31045879935496e-15
8.09512788569975e-15
7.88081581724808e-15
7.66295579721927e-15
7.43733789284011e-15
7.19959353967857e-15
6.94384834450673e-15
6.66600398576152e-15
6.36396946038088e-15
6.03362636746383e-15
5.67153053474701e-15
5.30963912736575e-15
5.16110332932686e-15
5.18368094651148e-15
5.18452244020206e-15
5.16936171713326e-15
5.14215774168651e-15
5.1061683268529e-15
5.06451459714158e-15
5.01916310342611e-15
4.97141154059524e-15
4.92255274404499e-15
4.87391501001979e-15
4.82714091572991e-15
4.78493386167449e-15
4.75636100107906e-15
4.60619213247172e-14
4.5456939856512e-14
4.48533115065463e-14
4.42517061998912e-14
4.36519498718637e-14
4.30540087897425e-14
4.24578850321172e-14
4.18635650099372e-14
4.12710200827807e-14
4.06802417382651e-14
4.00912340429033e-14
3.95039865441716e-14
3.89184842276834e-14
3.83347277902116e-14
3.77527211488694e-14
3.71724556428177e-14
3.65939244791853e-14
3.60171344681286e-14
3.54420890330765e-14
3.48687793188976e-14
3.4297204156043e-14
3.37273760819268e-14
3.3159297734883e-14
3.25929601144441e-14
3.2028367903829e-14
3.14655369811396e-14
3.0904469520822e-14
3.03451603558587e-14
2.97876208741093e-14
2.92318679442865e-14
2.86779015785435e-14
2.81257229968526e-14
2.75753564114558e-14
2.70268232622313e-14
2.64801217241425e-14
2.59352648676852e-14
2.53922996580632e-14
2.48512534476877e-14
2.4312124278317e-14
2.37749488813166e-14
2.32398024538549e-14
2.27067206612911e-14
2.21757184186212e-14
2.16468799459872e-14
2.11203172319238e-14
2.05960713334493e-14
2.00741973052692e-14
1.95548731416523e-14
1.90382587790898e-14
1.85243863379321e-14
1.8013396477159e-14
1.75056443141894e-14
1.7001340447827e-14
1.65005207348634e-14
1.60035055054744e-14
1.55108337124051e-14
1.50227449394218e-14
1.45394067338467e-14
1.40614939470021e-14
1.35897548386297e-14
1.31244130561393e-14
1.26663523969055e-14
1.22183758625448e-14
1.17835672564535e-14
1.13641404814832e-14
1.09638128602579e-14
1.05872844744363e-14
1.02353627091005e-14
9.9062942594391e-15
9.60036141511147e-15
9.31704315477802e-15
9.05269859956233e-15
8.80426298764785e-15
8.56988135803621e-15
8.34582827688996e-15
8.12717782662514e-15
7.90956022983282e-15
7.68838110290637e-15
7.45941603759906e-15
7.21829145438469e-15
6.9591293755089e-15
6.67783831617053e-15
6.37234310543338e-15
6.03854473368352e-15
5.67303692358169e-15
5.30825848184433e-15
5.15962875315374e-15
5.18203315506802e-15
5.18284482379549e-15
5.16777853975045e-15
5.14075605842611e-15
5.10500847764282e-15
5.06363299034758e-15
5.0185781690222e-15
4.97113008851409e-15
4.92257189958517e-15
4.87422160876294e-15
4.82770626943313e-15
4.78569883416679e-15
4.75723240662019e-15
4.7044880216587e-14
4.64177754041854e-14
4.5792162209866e-14
4.5168868975992e-14
4.45476837574172e-14
4.39285706132719e-14
4.33115313120919e-14
4.26965520344199e-14
4.20836034111741e-14
4.14726764232102e-14
4.08637751037614e-14
4.02568888158441e-14
3.96520021038301e-14
3.90491154740269e-14
3.8448232886709e-14
3.78493455112054e-14
3.72524462753161e-14
3.66575419809141e-14
3.60646361278735e-14
3.54737196701917e-14
3.48847912486522e-14
3.42978635319609e-14
3.37129392418708e-14
3.31300091590615e-14
3.25490778746707e-14
3.19701614744188e-14
3.13932621949867e-14
3.0818374683693e-14
3.02455103424507e-14
2.96746862792281e-14
2.91059024999113e-14
2.85391600751315e-14
2.79744834204741e-14
2.74118943054725e-14
2.68513908184202e-14
2.62929859525471e-14
2.57367271861235e-14
2.51826422961976e-14
2.46307291438546e-14
2.40810245713339e-14
2.35336046222945e-14
2.29885054281417e-14
2.24457417552739e-14
2.19053983848486e-14
2.13675885457016e-14
2.08323536295209e-14
2.02997486525915e-14
1.97699530293548e-14
1.92431283953434e-14
1.87193066649626e-14
1.81986286841242e-14
1.76814525268959e-14
1.71679907008158e-14
1.66582781104108e-14
1.61526360849628e-14
1.56516075679012e-14
1.51554332393434e-14
1.46642793734322e-14
1.41788236449986e-14
1.36998187904009e-14
1.32274862377906e-14
1.27627089637267e-14
1.23083043787121e-14
1.18673734638366e-14
1.14421348283137e-14
1.10363152490663e-14
1.06546328926112e-14
1.02978853026065e-14
9.9642828419229e-15
9.65407780463877e-15
9.36671974173523e-15
9.09852215050251e-15
8.84637203451696e-15
8.60837694724413e-15
8.38077457157953e-15
8.15860131898946e-15
7.93745492886118e-15
7.71271504994229e-15
7.48014442405491e-15
7.2353666193559e-15
6.97250339208384e-15
6.68747087458068e-15
6.37820885805674e-15
6.04064427496425e-15
5.67144682453078e-15
5.30359967315595e-15
5.15471235484128e-15
5.17680005512672e-15
5.17754066060753e-15
5.16257255088994e-15
5.13574812824014e-15
5.10026538689446e-15
5.05919523031827e-15
5.01446762026506e-15
4.96735646888474e-15
4.91913417688263e-15
4.87110600811334e-15
4.82486894134681e-15
4.78297289584988e-15
4.75433744360281e-15
4.80145364967965e-14
4.73602171357507e-14
4.67126179683973e-14
4.60676168719414e-14
4.54249838526919e-14
4.47846792585329e-14
4.4146704960618e-14
4.35110471692561e-14
4.28776760328328e-14
4.22465815853497e-14
4.16177675894042e-14
4.09912237248257e-14
4.03669342359654e-14
3.97448991588546e-14
3.9125122147499e-14
3.85075946155806e-14
3.7892309360507e-14
3.72792730644528e-14
3.66684891177965e-14
3.60599484456151e-14
3.54536495357408e-14
3.48496049471137e-14
3.4247817913854e-14
3.36482791846337e-14
3.30509923233913e-14
3.24559737511884e-14
3.18632264123748e-14
3.12727445387046e-14
3.06845396457169e-14
3.00986289184473e-14
2.9515012479217e-14
2.89336911741437e-14
2.83546895735183e-14
2.77780297172703e-14
2.72037098463503e-14
2.6631742596757e-14
2.60621757005581e-14
2.54950380555223e-14
2.49303270125839e-14
2.43680789738045e-14
2.38083710049845e-14
2.32512401997695e-14
2.26967007751678e-14
2.21448374804305e-14
2.15957653751352e-14
2.1049526170186e-14
2.05061739809511e-14
1.99658894680826e-14
1.94288365287036e-14
1.88950472691945e-14
1.83646611779419e-14
1.78380385757746e-14
1.73153956447557e-14
1.67967657571823e-14
1.62824693541646e-14
1.5773053190227e-14
1.52687606520464e-14
1.4769755911052e-14
1.42767157468688e-14
1.37903988351512e-14
1.33110266891135e-14
1.28394736793156e-14
1.23785632236159e-14
1.19314147487896e-14
1.15002503489538e-14
1.10887950585657e-14
1.07017857831467e-14
1.03400266517646e-14
1.00016912745669e-14
9.68699654364246e-15
9.39537362312234e-15
9.12309867601745e-15
8.86700968689113e-15
8.62518223845987e-15
8.39382915303845e-15
8.16795479458376e-15
7.9431308177369e-15
7.71471826843459e-15
7.47846992958499e-15
7.23001337331925e-15
6.96347493700155e-15
6.67477190351406e-15
6.36185799606977e-15
6.02069676778004e-15
5.64820794486865e-15
5.27849261460685e-15
5.12936743039063e-15
5.15023370872696e-15
5.15085210239471e-15
5.13596280680227e-15
5.10930306713522e-15
5.07403927892808e-15
5.03322078818803e-15
4.98876390961773e-15
4.94193315285094e-15
4.89399226498329e-15
4.84623506145828e-15
4.80022023947331e-15
4.75819084271863e-15
4.72572654223737e-15
)
;


// ************************************************************************* //
