/*--------------------------------*- C++ -*----------------------------------*\
| =========                 |                                                 |
| \\      /  F ield         | OpenFOAM: The Open Source CFD Toolbox           |
|  \\    /   O peration     | Version:  4.1                                   |
|   \\  /    A nd           | Web:      www.OpenFOAM.org                      |
|    \\/     M anipulation  |                                                 |
\*---------------------------------------------------------------------------*/
FoamFile
{
    version     2.0;
    format      ascii;
    class       volScalarField;
    location    "0.000150";
    object      p;
}
// * * * * * * * * * * * * * * * * * * * * * * * * * * * * * * * * * * * * * //

dimensions      [0 2 -2 0 0 0 0];

internalField   nonuniform List<scalar> 
3072
(
532.41483
562.81278
594.49566
627.12454
660.72858
695.26577
730.58651
766.52989
802.93055
839.6225
876.45501
913.31205
950.02905
986.47605
1022.4885
1057.9381
1092.7196
1126.722
1159.8521
1192.009
1223.1417
1253.5057
1282.6293
1309.9314
532.39152
562.70647
594.28406
626.84881
660.4064
694.90315
730.19508
766.12794
802.53121
839.23941
876.10568
912.99807
949.75846
986.24729
1022.3043
1057.7994
1092.6268
1126.6802
1159.8678
1192.0986
1223.3179
1253.7115
1282.7882
1310.0902
532.39572
562.63252
594.12543
626.65726
660.19794
694.67497
729.95431
765.88006
802.28733
839.00822
875.8944
912.80473
949.58459
986.0926
1022.1765
1057.7032
1092.5624
1126.6522
1159.8861
1192.1796
1223.4625
1253.8792
1282.9082
1310.1597
532.43944
562.59836
594.01075
626.50773
660.02799
694.48285
729.74467
765.65878
802.06735
838.80024
875.70427
912.6286
949.41785
985.93449
1022.0349
1057.5855
1092.4696
1126.5902
1159.8673
1192.2214
1223.558
1253.9511
1283.0341
1310.1978
532.53197
562.6115
593.95219
626.41534
659.91571
694.35003
729.59234
765.49113
801.89267
838.62983
875.5404
912.46599
949.25042
985.76385
1021.8702
1057.436
1092.3365
1126.4796
1159.791
1192.2041
1223.5925
1253.9732
1282.9872
1310.1956
532.67582
562.68131
593.95607
626.38243
659.8569
694.27021
729.49198
765.3728
801.76171
838.49218
875.39572
912.3082
949.07311
985.5789
1021.6921
1057.2772
1092.1973
1126.3681
1159.7172
1192.1574
1223.5518
1253.9748
1282.9392
1310.1098
532.85855
562.83102
594.03356
626.42318
659.86241
694.24385
729.43886
765.29653
801.66951
838.38767
875.27384
912.16818
948.92276
985.41164
1021.509
1057.0856
1092.0106
1126.197
1159.5713
1192.0442
1223.4674
1253.9233
1282.8592
1309.988
533.19985
563.07391
594.17261
626.51289
659.91254
694.26338
729.42511
765.25698
801.60835
838.30524
875.16279
912.02504
948.75189
985.2138
1021.2852
1056.8421
1091.7611
1125.9538
1159.3434
1191.8391
1223.2949
1253.8194
1282.7456
1309.8244
532.39864
562.7127
594.28962
626.85408
660.41309
694.9102
730.20101
766.13268
802.53542
839.24079
876.10015
912.98817
949.75095
986.2438
1022.3002
1057.7918
1092.6174
1126.6729
1159.8659
1192.1018
1223.3234
1253.7171
1282.7926
1310.0903
532.3188
562.55137
594.05046
626.58241
660.12071
694.60227
729.88789
765.82422
802.23965
838.96677
875.85741
912.77953
949.58326
986.11744
1022.2176
1057.7531
1092.6213
1126.723
1159.9653
1192.2605
1223.5414
1253.8937
1282.9358
1310.221
532.27169
562.44077
593.88328
626.40029
659.93551
694.41236
729.69837
765.63967
802.06863
838.81554
875.72875
912.67133
949.49488
986.04928
1022.1748
1057.7372
1092.6299
1126.7576
1160.0328
1192.3706
1223.6858
1254.014
1283.0188
1310.2526
532.26917
562.38334
593.77331
626.26949
659.79462
694.2587
729.53306
765.46787
801.90272
838.666
875.59992
912.55793
949.39045
985.95306
1022.0939
1057.677
1092.5896
1126.7402
1160.0457
1192.4227
1223.769
1254.0824
1283.0696
1310.2675
532.32266
562.38538
593.72847
626.20365
659.71753
694.16845
729.42806
765.3505
801.78251
838.55382
875.49795
912.45854
949.28498
985.84213
1021.986
1057.5794
1092.5024
1126.6729
1160.0036
1192.4137
1223.7896
1254.1064
1283.0796
1310.2516
532.4363
562.44928
593.74994
626.20298
659.70049
694.13691
729.38154
765.28953
801.71069
838.47693
875.41502
912.36288
949.17086
985.71359
1021.8526
1057.4493
1092.3794
1126.5589
1159.9121
1192.352
1223.7518
1254.091
1283.048
1310.1913
532.58635
562.57578
593.84701
626.27447
659.74865
694.16457
729.38853
765.27737
801.68012
838.42689
875.34142
912.26407
949.04911
985.56992
1021.691
1057.2778
1092.208
1126.3962
1159.7655
1192.2279
1223.6633
1254.0292
1282.975
1310.0982
532.87229
562.84426
594.04535
626.43167
659.86733
694.25415
729.44263
765.30496
801.6832
838.40224
875.28244
912.17031
948.92385
985.4143
1021.5068
1057.0748
1091.9985
1126.1902
1159.5678
1192.0418
1223.4716
1253.9279
1282.8654
1309.9907
532.41216
562.64628
594.13695
626.66876
660.2116
694.68916
729.96615
765.88853
802.29202
839.00506
875.87822
912.78278
949.57003
986.08684
1022.1699
1057.6897
1092.5455
1126.6397
1159.884
1192.1864
1223.4731
1253.89
1282.9159
1310.1591
532.28147
562.44897
593.89002
626.40725
659.94373
694.4207
729.70527
765.64394
802.06911
838.81049
875.7177
912.65932
949.48787
986.0467
1022.1717
1057.7312
1092.6229
1126.7528
1160.0324
1192.3736
1223.6903
1254.0173
1283.0221
1310.251
532.19194
562.31071
593.71485
626.22472
659.76271
694.24234
729.53475
765.48729
801.93391
838.70209
875.63758
912.60553
949.45916
986.04344
1022.1954
1057.7801
1092.6927
1126.8414
1160.1413
1192.5056
1223.8335
1254.113
1283.0835
1310.2777
532.15466
562.23657
593.60835
626.10605
659.6387
694.11169
729.39831
765.35053
801.80801
838.59667
875.55569
912.54104
949.40515
985.99896
1022.1661
1057.7696
1092.6995
1126.8642
1160.1832
1192.5693
1223.9115
1254.1748
1283.1255
1310.2959
532.18317
562.23537
593.58003
626.06426
659.58942
694.05339
729.32901
765.27224
801.73
838.5289
875.49995
912.48818
949.34519
985.93155
1022.099
1057.7094
1092.6487
1126.8215
1160.157
1192.5635
1223.9235
1254.1935
1283.1377
1310.2907
532.28432
562.31285
593.63524
626.10085
659.61306
694.06501
729.32745
765.25762
801.70479
838.49823
875.46263
912.43618
949.27146
985.83828
1021.9935
1057.5978
1092.5335
1126.7128
1160.0601
1192.4864
1223.8725
1254.1675
1283.115
1310.2555
532.44995
562.46215
593.76256
626.21276
659.70776
694.14196
729.3863
765.29761
801.72395
838.49393
875.43078
912.37386
949.17711
985.71521
1021.8458
1057.4334
1092.3633
1126.5473
1159.9028
1192.3454
1223.7531
1254.0951
1283.0541
1310.1954
532.69992
562.70525
593.97827
626.40038
659.86927
694.27949
729.5
765.38815
801.78702
838.52344
875.42156
912.32413
949.08303
985.58584
1021.6838
1057.249
1092.1667
1126.3474
1159.7049
1192.1511
1223.559
1253.9835
1282.9516
1310.1169
532.46389
562.61777
594.02619
626.52256
660.04458
694.49987
729.75938
765.66935
802.07048
838.78988
875.67677
912.59483
949.39554
985.92668
1022.03
1057.5731
1092.4523
1126.5768
1159.866
1192.2313
1223.5727
1253.9625
1283.0429
1310.1957
532.28676
562.39729
593.78432
626.28027
659.80667
694.27092
729.54404
765.47541
801.90271
838.65485
875.57845
912.53506
949.37627
985.94833
1022.0919
1057.6713
1092.5827
1126.7356
1160.0469
1192.4283
1223.7771
1254.0871
1283.0744
1310.2632
532.16206
562.24239
593.61286
626.11069
659.64387
694.11696
729.40344
765.35419
801.80756
838.59035
875.54487
912.53053
949.39936
985.99752
1022.166
1057.7689
1092.6976
1126.8638
1160.1843
1192.5729
1223.9149
1254.1745
1283.1256
1310.2922
532.09756
562.16014
593.51865
626.01451
659.54811
694.02203
729.31146
765.26986
801.7382
838.54188
875.51874
912.52087
949.3997
986.00575
1022.1854
1057.802
1092.7435
1126.9193
1160.2472
1192.6408
1223.9838
1254.2287
1283.1586
1310.3141
532.10679
562.16001
593.51033
626.00213
659.53263
694.00289
729.28811
765.24328
801.71508
838.52876
875.51541
912.5186
949.38818
985.98346
1022.1582
1057.7754
1092.7195
1126.8978
1160.2315
1192.6326
1223.9851
1254.2346
1283.1654
1310.3161
532.19275
562.2446
593.59003
626.0741
659.59678
694.05844
729.33342
765.279
801.74099
838.54916
875.52792
912.51489
949.36045
985.93126
1022.0863
1057.6911
1092.6276
1126.8038
1160.143
1192.5518
1223.9207
1254.1961
1283.1431
1310.2954
532.34449
562.40639
593.74994
626.22331
659.73242
694.1787
729.4368
765.36337
801.80513
838.58965
875.5409
912.49676
949.30791
985.84388
1021.9659
1057.5423
1092.4651
1126.6397
1159.9758
1192.3995
1223.7877
1254.1123
1283.0901
1310.2599
532.56483
562.64338
593.98333
626.44261
659.93607
694.36396
729.60343
765.50926
801.92543
838.67791
875.5923
912.50953
949.27862
985.7694
1021.8453
1057.3849
1092.2811
1126.437
1159.7663
1192.192
1223.5935
1253.9833
1283.0057
1310.2064
532.55903
562.63189
593.96792
626.42948
659.93031
694.36511
729.60632
765.50222
801.89459
838.61531
875.50708
912.42532
949.22226
985.75397
1021.8682
1057.428
1092.3241
1126.4685
1159.7911
1192.216
1223.6093
1253.9844
1282.9948
1310.1921
532.34209
562.39962
593.73925
626.21308
659.72736
694.17872
729.43885
765.35945
801.78305
838.54122
875.47397
912.43191
949.26629
985.83455
1021.9846
1057.5743
1092.5025
1126.6755
1160.0104
1192.4196
1223.7989
1254.1099
1283.0809
1310.2445
532.19117
562.24083
593.58366
626.06807
659.59358
694.05801
729.33487
765.27744
801.72992
838.52136
875.48732
912.47583
949.33741
985.92798
1022.0974
1057.7096
1092.6458
1126.8246
1160.1614
1192.5732
1223.928
1254.1921
1283.1347
1310.2826
532.1071
562.15999
593.51012
626.00236
659.53323
694.00379
729.28967
765.24488
801.71464
838.52497
875.51181
912.5162
949.38831
985.98301
1022.1559
1057.7731
1092.7181
1126.9003
1160.2352
1192.6372
1223.9862
1254.2321
1283.1623
1310.3108
532.10022
562.16421
593.52478
626.02119
659.5523
694.02405
729.31283
765.27273
801.7481
838.56664
875.55862
912.56258
949.42434
986.00536
1022.1671
1057.7778
1092.7207
1126.8986
1160.2293
1192.6279
1223.9778
1254.2274
1283.1626
1310.3186
532.16643
562.24983
593.62427
626.12257
659.65047
694.11866
729.40322
765.35797
801.82718
838.63963
875.62161
912.60873
949.44604
986.0003
1022.1372
1057.728
1092.6567
1126.824
1160.1489
1192.5466
1223.9032
1254.1774
1283.1342
1310.305
532.29242
562.40791
593.80036
626.29621
659.81466
694.27127
729.54191
765.48046
801.93128
838.72195
875.67869
912.63676
949.44079
985.95879
1022.0596
1057.6204
1092.5294
1126.685
1160.0016
1192.397
1223.7615
1254.0882
1283.08
1310.2799
532.47322
562.63341
594.04669
626.5415
660.05348
694.49892
729.7559
765.67578
802.10464
838.86613
875.78893
912.71052
949.47349
985.94536
1021.9978
1057.5169
1092.3949
1126.5253
1159.8201
1192.1956
1223.5528
1253.9616
1283.062
1310.2131
532.69946
562.69768
593.96794
626.39171
659.86562
694.28025
729.5022
765.38218
801.76302
838.47941
875.3664
912.27032
949.04698
985.57014
1021.6927
1057.2732
1092.1933
1126.3689
1159.7251
1192.1711
1223.5681
1253.9827
1282.9435
1310.1057
532.45203
562.45858
593.75703
626.20673
659.70404
694.14147
729.38844
765.29681
801.71192
838.46845
875.39998
912.34574
949.15692
985.70465
1021.8474
1057.4435
1092.3793
1126.566
1159.9228
1192.3621
1223.7593
1254.0906
1283.0452
1310.1827
532.28668
562.31253
593.63266
626.09914
659.61122
694.06412
729.32956
765.2611
801.70557
838.49603
875.46095
912.4365
949.26983
985.8322
1021.9856
1057.5912
1092.5322
1126.7201
1160.0705
1192.4963
1223.8747
1254.1617
1283.1077
1310.2444
532.18848
562.23983
593.58515
626.06982
659.59251
694.0549
729.33193
765.2787
801.74131
838.55172
875.53423
912.52564
949.36718
985.92883
1022.0776
1057.6837
1092.625
1126.809
1160.15
1192.559
1223.9197
1254.1891
1283.1357
1310.2854
532.16189
562.24558
593.62046
626.11908
659.64699
694.11538
729.40061
765.35619
801.82697
838.64243
875.6285
912.61852
949.45288
985.99967
1022.131
1057.7228
1092.6564
1126.8279
1160.1532
1192.549
1223.9016
1254.1729
1283.1299
1310.2991
532.2003
562.32305
593.73212
626.24326
659.77395
694.2457
729.53434
765.49156
801.95971
838.76816
875.74272
912.7166
949.52929
986.05025
1022.1541
1057.721
1092.6346
1126.7864
1160.0934
1192.4734
1223.8189
1254.1139
1283.0932
1310.2888
532.29095
562.46427
593.91148
626.42938
659.95577
694.42199
729.70183
765.648
802.10134
838.89055
875.84221
912.7909
949.57479
986.06262
1022.1312
1057.6671
1092.5568
1126.6887
1159.9758
1192.3354
1223.6725
1254.0191
1283.0333
1310.2669
532.425
562.6663
594.16178
626.69324
660.22403
694.68895
729.96098
765.893
802.32761
839.09022
876.00949
912.92366
949.66823
986.11168
1022.1324
1057.6245
1092.478
1126.5752
1159.826
1192.1446
1223.4518
1253.897
1282.9305
1310.1766
532.87722
562.83936
594.03906
626.42535
659.86387
694.25186
729.44383
765.3018
801.67023
838.38042
875.25959
912.15062
948.9075
985.40124
1021.5027
1057.0797
1092.009
1126.2019
1159.5816
1192.0562
1223.4774
1253.9255
1282.8589
1309.9829
532.59515
562.57724
593.84535
626.27032
659.74363
694.1607
729.38848
765.27985
801.68134
838.42726
875.34469
912.26833
949.04763
985.55994
1021.6785
1057.2675
1092.2066
1126.4038
1159.7775
1192.238
1223.6655
1254.0235
1282.9675
1310.089
532.44272
562.45554
593.75351
626.20319
659.69718
694.13254
729.38098
765.29606
801.72501
838.50138
875.44886
912.39609
949.18765
985.70715
1021.8306
1057.4212
1092.3618
1126.5555
1159.9154
1192.3537
1223.7504
1254.0845
1283.0423
1310.1831
532.33379
562.39524
593.73842
626.21155
659.71997
694.16699
729.42799
765.3585
801.80591
838.60099
875.56556
912.52635
949.32416
985.83898
1021.9507
1057.5304
1092.4665
1126.6496
1159.9888
1192.4038
1223.7826
1254.1014
1283.0785
1310.2475
532.28154
562.39723
593.79022
626.28621
659.80433
694.26098
729.53278
765.47426
801.93131
838.73243
875.70061
912.66263
949.45587
985.95613
1022.0478
1057.613
1092.5329
1126.6937
1160.0085
1192.3978
1223.7566
1254.08
1283.0719
1310.2698
532.28436
562.45795
593.90561
626.42381
659.95018
694.41618
729.69611
765.64372
802.10113
838.89674
875.85464
912.80511
949.58289
986.06115
1022.1253
1057.6647
1092.5604
1126.6939
1159.9786
1192.3347
1223.6695
1254.0148
1283.0284
1310.2616
532.33215
562.57143
594.07654
626.60974
660.13679
694.60489
729.88312
765.82753
802.2763
839.05745
875.99709
912.92972
949.68667
986.13929
1022.1716
1057.6797
1092.5472
1126.6519
1159.9031
1192.219
1223.5224
1253.8957
1282.9477
1310.2347
532.41458
562.73644
594.31743
626.88275
660.42879
694.91122
730.19472
766.13622
802.57397
839.33373
876.24292
913.14397
949.86334
986.27478
1022.26
1057.7206
1092.5441
1126.6026
1159.8032
1192.0577
1223.3014
1253.7202
1282.8058
1310.1064
533.20961
563.076
594.1717
626.5066
659.90567
694.25764
729.42263
765.25714
801.60896
838.3066
875.16669
912.02878
948.74973
985.20407
1021.2731
1056.8323
1091.7586
1125.9587
1159.3528
1191.848
1223.2983
1253.8157
1282.7406
1309.8199
532.86797
562.83853
594.03617
626.41904
659.85379
694.23557
729.43436
765.30182
801.68474
838.41251
875.30474
912.19569
948.93526
985.40473
1021.4892
1057.061
1091.9958
1126.1962
1159.5776
1192.0486
1223.4689
1253.9178
1282.854
1309.9825
532.68952
562.69252
593.96342
626.38363
659.85148
694.26161
729.48738
765.38128
801.7886
838.54051
875.45826
912.36721
949.10658
985.57698
1021.6658
1057.2352
1092.1655
1126.3547
1159.7142
1192.1547
1223.5507
1253.9698
1282.9367
1310.1051
532.54949
562.62641
593.96558
626.4237
659.91625
694.34455
729.58731
765.49913
801.92647
838.6978
875.63285
912.55527
949.30369
985.76445
1021.8282
1057.3745
1092.2849
1126.4469
1159.7738
1192.1913
1223.5842
1253.9698
1282.9906
1310.1938
532.4569
562.61642
594.03004
626.52447
660.03582
694.48125
729.73988
765.66491
802.105
838.88412
875.82426
912.7495
949.49504
985.94246
1021.9852
1057.5121
1092.4024
1126.5361
1159.826
1192.1935
1223.5445
1253.9506
1283.0479
1310.2012
532.41238
562.65336
594.14934
626.68084
660.2115
694.67623
729.94888
765.88446
802.32754
839.10306
876.03371
912.94988
949.68249
986.11003
1022.1254
1057.6242
1092.4858
1126.5838
1159.8295
1192.1423
1223.4459
1253.8877
1282.9213
1310.1684
532.40835
562.72985
594.31098
626.87634
660.42248
694.90481
730.18863
766.13193
802.57389
839.33983
876.25411
913.1559
949.86967
986.27433
1022.2578
1057.7219
1092.5485
1126.6064
1159.8044
1192.0565
1223.2988
1253.7155
1282.8016
1310.1027
532.4331
562.8382
594.5226
627.15247
660.7441
695.26665
730.57967
766.53472
802.97408
839.72262
876.60359
913.4726
950.14701
986.51194
1022.4496
1057.8654
1092.6441
1126.65
1159.7889
1191.965
1223.1201
1253.5075
1282.6428
1309.946
1309.7701
1282.5152
1253.2671
1222.9087
1192.0985
1160.1399
1127.1583
1093.2755
1058.6009
1023.2332
987.30119
950.93877
914.29319
877.52011
840.76321
804.16557
767.87457
732.04333
696.82068
662.3693
628.7836
596.14153
563.95907
532.86155
1309.6679
1282.3592
1253.2098
1222.7868
1191.8856
1159.8619
1126.8256
1092.8971
1058.1825
1022.789
986.8435
950.47843
913.83922
877.07613
840.33617
803.76186
767.49919
731.70428
696.51948
662.11456
628.57391
595.97227
563.96836
533.02188
1309.7044
1282.3042
1253.2717
1222.8599
1191.8203
1159.6974
1126.5923
1092.6132
1057.8578
1022.4356
986.46974
950.08823
913.43111
876.64283
839.87472
803.27515
766.98936
731.18261
695.99133
661.59309
628.07968
595.53594
563.79788
533.09837
1309.7753
1282.3109
1253.3832
1223.0073
1191.8124
1159.5787
1126.3952
1092.3613
1057.5646
1022.1124
986.12632
949.7267
913.04488
876.22218
839.41636
802.78079
766.46545
730.63732
695.43716
661.03673
627.54948
595.07072
563.57856
533.15028
1309.7779
1282.4023
1253.4919
1223.124
1191.8158
1159.4724
1126.1999
1092.1032
1057.2616
1021.7787
985.77786
949.36366
912.65662
875.80618
838.9715
802.30817
765.97441
730.13433
694.93993
660.55102
627.09568
594.67878
563.35136
533.18754
1309.7043
1282.5028
1253.654
1223.1851
1191.7296
1159.292
1125.9535
1091.8074
1056.9298
1021.4235
985.42817
949.01032
912.27958
875.41491
838.56964
801.89696
765.56177
729.72836
694.55496
660.18977
626.76673
594.39928
563.16645
533.20701
1309.3888
1282.4861
1253.7723
1223.245
1191.6958
1159.1816
1125.7832
1091.5878
1056.6656
1021.1066
985.05716
948.62706
911.91647
875.07268
838.24418
801.58331
765.26564
729.45251
694.30219
659.95842
626.56687
594.24099
563.07736
533.13514
1308.9563
1282.3365
1253.6831
1223.1204
1191.5095
1158.9456
1125.5108
1091.2904
1056.3598
1020.8114
984.76934
948.34682
911.65745
874.84169
838.04616
801.41651
765.11935
729.33609
694.22548
659.92799
626.58836
594.32242
563.21822
533.38145
1314.4896
1285.1445
1255.8595
1226.004
1194.8571
1162.8739
1130.0665
1096.4373
1062.0161
1026.852
991.00543
954.56492
917.63767
880.35314
842.85882
805.31951
767.92327
730.87503
694.41448
658.79398
624.30273
591.27797
560.33374
531.02776
1314.1112
1284.8492
1255.4405
1225.5266
1194.3725
1162.3593
1129.5029
1095.8147
1061.3329
1026.1128
990.22407
953.76383
916.84375
879.59977
842.18048
804.75578
767.51354
730.64914
694.39857
658.99117
624.69718
591.79618
560.75832
531.36496
1313.4875
1284.36
1254.9421
1224.8438
1193.6197
1161.5271
1128.5766
1094.7916
1060.2223
1024.9314
989.00303
952.54147
915.66105
878.50005
841.20896
803.95807
766.9337
730.3206
694.34655
659.21457
625.17011
592.43867
561.35729
531.92154
1312.5908
1283.7093
1254.3013
1223.9976
1192.693
1160.493
1127.4237
1093.5249
1058.861
1023.5046
987.55103
951.11115
914.30187
877.26205
840.14078
803.10793
766.3437
730.02285
694.35472
659.52625
625.74474
593.20346
562.12867
532.66985
1311.4353
1282.9699
1253.6031
1223.1443
1191.6969
1159.367
1126.1764
1092.1722
1057.4286
1022.0271
986.06704
949.67026
912.96152
876.07005
839.14169
802.3441
765.84616
729.81913
694.44648
659.90397
626.37327
594.0257
563.03156
533.54934
1310.0637
1282.2322
1252.9137
1222.3819
1190.8162
1158.3385
1125.0173
1090.916
1056.11
1020.6834
984.71681
948.37303
911.78418
875.0489
838.3117
801.73624
765.48229
729.71301
694.59525
660.29964
626.9935
594.83496
563.95903
534.46019
1308.7703
1281.7689
1252.4662
1221.7056
1189.9859
1157.3806
1123.9583
1089.7938
1054.9708
1019.5831
983.70062
947.43383
910.92624
874.30678
837.72284
801.32969
765.26716
729.69511
694.77609
660.67369
627.54536
595.53209
564.7468
535.25692
1307.8609
1281.5882
1252.1985
1221.2148
1189.379
1156.7035
1123.2371
1089.0533
1054.2277
1018.8475
983.00122
946.797
910.3649
873.8402
837.36587
801.09489
765.17081
729.72726
694.92262
660.92498
627.89006
595.9571
565.22632
535.77972
1308.9542
1282.3376
1253.6842
1223.1201
1191.5088
1158.9443
1125.5083
1091.2874
1056.359
1020.8137
984.77212
948.34768
911.65714
874.84356
838.05116
801.42247
765.12352
729.33741
694.22528
659.93158
626.59378
594.32979
563.22593
533.38813
1309.387
1282.4913
1253.7759
1223.2457
1191.6943
1159.1775
1125.7741
1091.5744
1056.6567
1021.1072
985.0617
948.62839
911.91665
875.08105
838.26194
801.60202
765.27769
729.45729
694.30215
659.96759
626.5829
594.26189
563.09949
533.15565
1309.709
1282.5157
1253.6647
1223.1857
1191.7237
1159.2785
1125.9304
1091.7768
1056.9061
1021.4162
985.43376
949.01953
912.29122
875.43796
838.60291
801.9278
765.5812
729.73819
694.56265
660.2067
626.79323
594.43196
563.20025
533.23947
1309.7904
1282.4269
1253.5038
1223.1257
1191.8001
1159.4406
1126.1562
1092.0526
1057.2215
1021.765
985.79054
949.39241
912.69567
875.85581
839.02406
802.34957
765.99928
730.14907
694.95489
660.57604
627.13127
594.71976
563.39051
533.22183
1309.7893
1282.3302
1253.3928
1223.003
1191.7875
1159.5332
1126.3334
1092.2924
1057.5081
1022.0907
986.14804
949.78255
913.12003
876.30394
839.48869
802.82985
766.49166
730.65309
695.45644
661.06703
627.58997
595.11461
563.61467
533.18076
1309.7171
1282.3198
1253.2727
1222.8495
1191.7887
1159.644
1126.5226
1092.5369
1057.7934
1022.4101
986.50085
950.169
913.53814
876.75132
839.96216
803.3285
767.0136
731.19532
696.00922
661.62337
628.11973
595.57777
563.82755
533.12104
1309.6793
1282.3716
1253.2089
1222.7712
1191.8493
1159.8063
1126.7572
1092.8238
1058.1198
1022.7654
986.88241
950.57537
913.96594
877.20034
840.43159
803.81626
767.52016
731.7118
696.53222
662.14039
628.60885
596.0088
563.99058
533.03635
1309.7799
1282.5238
1253.2627
1222.8886
1192.0599
1160.0859
1127.0952
1093.2094
1058.5445
1023.2146
987.34584
951.04375
914.4286
877.64989
840.85958
804.21804
767.89239
732.04636
696.82794
662.38891
628.81216
596.1718
563.97449
532.86918
1307.849
1281.5902
1252.1997
1221.2128
1189.3762
1156.7009
1123.2344
1089.0512
1054.2277
1018.8497
983.00401
946.79895
910.36636
873.84257
837.36943
801.09823
765.17342
729.72968
694.92505
660.92841
627.89484
595.96316
565.23285
535.78538
1308.7589
1281.7549
1252.4571
1221.6981
1189.9775
1157.3719
1123.949
1089.7855
1054.9681
1019.5877
983.70828
947.44108
910.93346
874.31644
837.73532
801.34212
765.27699
729.70244
694.78304
660.68394
627.55979
595.54986
564.76567
535.27266
1310.0547
1282.2347
1252.9109
1222.3717
1190.8028
1158.3226
1124.9991
1090.8984
1056.1005
1020.6863
984.72823
948.38846
911.80254
875.07087
838.33593
801.7583
765.49907
729.7256
694.6074
660.31615
627.0158
594.86169
563.9874
534.48609
1311.455
1282.958
1253.5897
1223.1274
1191.6765
1159.3419
1126.1464
1092.1423
1057.4087
1022.0252
986.08274
949.69796
912.99633
876.10886
839.17986
802.37592
765.86936
729.83678
694.46395
659.92622
626.40192
594.05944
563.06816
533.58555
1312.6002
1283.7083
1254.2929
1223.9807
1192.6677
1160.4588
1127.3827
1093.4839
1058.8318
1023.4993
987.57299
951.15448
914.35723
877.32063
840.19389
803.14885
766.37185
730.04395
694.37562
659.55243
625.77755
593.24177
562.17227
532.71093
1313.489
1284.3587
1254.9322
1224.8241
1193.5891
1161.486
1128.5281
1094.7432
1060.1873
1024.9251
989.03252
952.60088
915.73683
878.57759
841.27546
804.00601
766.96423
730.34222
694.36811
659.24134
625.20338
592.47724
561.40167
531.96258
1314.1129
1284.8479
1255.4316
1225.5042
1194.3376
1162.3138
1129.4506
1095.7634
1061.2961
1026.1078
990.26085
953.83694
916.9364
879.69243
842.25683
804.80755
767.54337
730.66796
694.41697
659.01477
624.72698
591.83049
560.79803
531.40072
1314.4918
1285.1425
1255.8475
1225.9787
1194.8191
1162.8264
1130.0137
1096.3866
1061.9805
1026.8495
991.0482
954.64815
917.74244
880.4561
842.94085
805.37211
767.95043
730.88906
694.42747
658.81191
624.32681
591.30544
560.3651
531.05431
1309.7793
1282.5221
1253.2604
1222.8866
1192.0582
1160.0851
1127.0953
1093.2101
1058.5451
1023.215
987.34736
951.04784
914.43478
877.65608
840.86339
804.21896
767.8909
732.0432
696.82409
662.38429
628.8075
596.16743
563.97133
532.8665
1309.6766
1282.3671
1253.2052
1222.7659
1191.8453
1159.8049
1126.7587
1092.8268
1058.1215
1022.7655
986.8859
950.58713
913.98502
877.21861
840.4427
803.81806
767.5146
731.70201
696.51999
662.12669
628.59483
595.9959
563.98101
533.02847
1309.7114
1282.3105
1253.2658
1222.8406
1191.7827
1159.6429
1126.5263
1092.5417
1057.7945
1022.4084
986.5057
950.18925
913.57096
876.78298
839.98083
803.33112
767.00378
731.17851
695.989
661.60102
628.09667
595.5563
563.81115
533.10802
1309.7801
1282.3144
1253.3797
1222.991
1191.7808
1159.5331
1126.3379
1092.2959
1057.5049
1022.0841
986.15254
949.80975
913.16478
876.34688
839.51371
802.8337
766.47957
730.63204
695.43101
661.03883
627.56076
595.08707
563.59293
533.16465
1309.7807
1282.4036
1253.4873
1223.1126
1191.7945
1159.4416
1126.1593
1092.0514
1057.2113
1021.752
985.79287
949.42219
912.74601
875.90393
839.05185
802.35471
765.98792
730.12827
694.92906
660.54656
627.10062
594.69054
563.36628
533.20617
1309.7047
1282.4998
1253.6498
1223.1758
1191.7204
1159.2801
1125.9315
1091.7713
1056.8904
1021.3978
985.43297
949.04447
912.33611
875.48121
838.62782
801.9331
765.57268
729.72165
694.54158
660.18082
626.76608
594.40607
563.17898
533.22408
1309.3887
1282.4818
1253.7659
1223.2397
1191.6943
1159.1804
1125.7746
1091.5677
1056.6402
1021.0889
985.05741
948.64488
911.94817
875.11111
838.27887
801.606
765.27266
729.44679
694.29017
659.94869
626.5629
594.24259
563.08523
533.14926
1308.9571
1282.3332
1253.6792
1223.1185
1191.5117
1158.9481
1125.5089
1091.2823
1056.3478
1020.8008
984.76532
948.35083
911.66816
874.85499
838.05773
801.42457
765.12124
729.3314
694.21718
659.92001
626.58298
594.3205
563.22094
533.39103
1314.4919
1285.1422
1255.8463
1225.9763
1194.8175
1162.8252
1130.0131
1096.3867
1061.981
1026.8504
991.05003
954.6516
917.74726
880.46086
842.94406
805.37301
767.94925
730.88638
694.42382
658.80776
624.32244
591.30078
560.3602
531.04955
1314.1133
1284.8473
1255.4277
1225.5018
1194.3347
1162.3116
1129.4497
1095.7637
1061.2972
1026.1097
990.26576
953.84687
916.95039
879.7063
842.26602
804.80987
767.53944
730.65964
694.40574
659.00194
624.71347
591.81666
560.78318
531.38663
1313.4891
1284.3576
1254.9309
1224.82
1193.5845
1161.4827
1128.5267
1094.7432
1060.1878
1024.927
989.03969
952.61637
915.75879
878.59923
841.28965
804.00967
766.95836
730.32947
694.3509
659.22142
625.18227
592.45589
561.37944
531.94224
1312.5918
1283.7053
1254.2895
1223.9754
1192.6624
1160.4552
1127.3805
1093.4821
1058.8298
1023.4994
987.5806
951.17332
914.38433
877.3472
840.21127
803.15373
766.36547
730.02947
694.35566
659.52898
625.75251
593.21672
562.14728
532.68902
1311.4354
1282.9635
1253.5901
1223.1232
1191.6719
1159.3386
1126.1432
1092.1377
1057.4026
1022.0217
986.08849
949.71688
913.0245
876.13646
839.19805
802.38154
765.86392
729.82322
694.44464
659.90307
626.37704
594.03503
563.04591
533.56675
1310.0646
1282.2272
1252.9015
1222.3671
1190.8001
1158.3206
1124.9957
1090.8913
1056.0907
1020.6791
984.73054
948.4039
911.82699
875.09519
838.35199
801.76357
765.49506
729.71464
694.59129
660.29628
626.99426
594.84103
563.97025
534.47464
1308.7723
1281.7652
1252.4585
1221.6971
1189.9778
1157.3721
1123.9462
1089.778
1054.958
1019.5788
983.70585
947.44899
910.94899
874.33257
837.74598
801.34532
765.2738
729.69449
694.77138
660.66911
627.54369
595.53483
564.75457
535.26876
1307.8641
1281.587
1252.1956
1221.2132
1189.3788
1156.703
1123.2336
1089.0462
1054.2199
1018.8418
982.99932
946.79987
910.37181
873.8488
837.37325
801.09837
765.17059
729.72459
694.91778
660.91955
627.88584
595.95574
565.22961
535.78879
1308.9555
1282.3363
1253.6833
1223.124
1191.5156
1158.951
1125.513
1091.2891
1056.356
1020.8056
984.76183
948.33871
911.65036
874.83619
838.04283
801.41505
765.11869
729.3337
694.22061
659.92383
626.58439
594.32131
563.22326
533.39261
1309.387
1282.4903
1253.7782
1223.2544
1191.7058
1159.1879
1125.7852
1091.5878
1056.6661
1021.1042
985.04621
948.60513
911.88983
875.05039
838.23274
801.58175
765.26866
729.45488
694.30118
659.96148
626.57228
594.25076
563.09203
533.1558
1309.7071
1282.5146
1253.6695
1223.2006
1191.7426
1159.2979
1125.952
1091.8036
1056.9287
1021.419
985.41343
948.97904
912.24083
875.38204
838.55419
801.89719
765.56908
729.73656
694.5624
660.2
626.77939
594.41628
563.18992
533.23704
1309.7857
1282.4249
1253.5113
1223.1441
1191.829
1159.4752
1126.1925
1092.0926
1057.256
1021.7749
985.76395
949.33043
912.613
875.77185
838.9584
802.3121
765.98563
730.14726
694.95355
660.56644
627.11267
594.69954
563.3781
533.219
1309.782
1282.3268
1253.4021
1223.0246
1191.8226
1159.5765
1126.3808
1092.343
1057.5521
1022.1056
986.11434
949.69903
913.0085
876.19688
839.41151
802.78945
766.47864
730.65191
695.4531
661.05338
627.56657
595.09034
563.60293
533.17884
1309.7082
1282.3153
1253.2846
1222.872
1191.8266
1159.6932
1126.5775
1092.5945
1057.8436
1022.4275
986.46012
950.06854
913.40698
876.62986
839.87825
803.28679
767.00182
731.19523
696.00472
661.60647
628.09276
595.55036
563.81565
533.11893
1309.6698
1282.3659
1253.2181
1222.7934
1191.8883
1159.8582
1126.8155
1092.8848
1058.173
1022.7832
986.83693
950.46643
913.82637
877.07162
840.3424
803.77179
767.50811
731.71251
696.5275
662.12243
628.58131
595.98054
563.97869
533.03354
1309.7707
1282.5174
1253.2697
1222.9106
1192.0989
1160.1384
1127.1549
1093.2714
1058.5976
1023.2312
987.29871
950.93473
914.2891
877.51918
840.7657
804.16923
767.87791
732.04598
696.8235
662.37174
628.78609
596.14402
563.96239
532.86534
1307.8523
1281.5912
1252.2017
1221.2183
1189.3836
1156.7073
1123.2385
1089.0524
1054.2251
1018.8438
982.99584
946.79079
910.35901
873.83554
837.36267
801.093
765.16908
729.72465
694.91909
660.92127
627.8872
595.95681
565.23045
535.78873
1308.7623
1281.7581
1252.464
1221.7097
1189.9912
1157.3845
1123.9602
1089.7949
1054.9716
1019.5823
983.69467
947.4216
910.91059
874.29276
837.71372
801.32577
765.26642
729.69537
694.77664
660.67569
627.54951
595.53935
564.75833
535.27137
1310.0575
1282.2394
1252.9216
1222.3884
1190.8221
1158.3415
1125.0176
1090.9156
1056.1107
1020.684
984.7096
948.35606
911.76091
875.02848
838.29941
801.73206
765.48331
729.71652