/*--------------------------------*- C++ -*----------------------------------*\
| =========                 |                                                 |
| \\      /  F ield         | OpenFOAM: The Open Source CFD Toolbox           |
|  \\    /   O peration     | Version:  4.1                                   |
|   \\  /    A nd           | Web:      www.OpenFOAM.org                      |
|    \\/     M anipulation  |                                                 |
\*---------------------------------------------------------------------------*/
FoamFile
{
    version     2.0;
    format      ascii;
    class       volScalarField;
    location    "0.000740";
    object      epsilon;
}
// * * * * * * * * * * * * * * * * * * * * * * * * * * * * * * * * * * * * * //

dimensions      [0 2 -3 0 0 0 0];

internalField   nonuniform List<scalar> 
3072
(
174.26456
176.35218
177.93123
179.00456
181.39617
183.55751
185.99967
188.80033
191.16421
194.3374
196.84967
199.62571
202.07757
203.74535
203.94745
201.07561
194.66595
183.93428
169.94734
151.57445
126.22917
92.99059
57.099706
29.164649
185.77348
189.71615
193.31899
196.20035
197.49512
197.89271
197.22552
195.93087
194.32185
192.58455
191.27787
190.5263
190.04007
188.74633
184.75963
175.74095
160.65121
140.46492
118.29559
95.755247
73.497562
52.5907
34.570567
21.572316
132.23413
135.09383
137.71895
139.93966
141.75555
142.78915
143.15392
142.88227
142.07528
140.97821
139.70805
138.43461
136.79008
133.94267
128.55528
119.19038
105.76182
89.673278
73.570581
58.967948
46.49113
36.097407
27.109718
19.934784
95.064001
97.396043
99.522247
101.34299
102.85481
103.81518
104.21537
104.06411
103.38261
102.34214
100.95238
99.266906
97.038692
93.728988
88.629222
81.070032
71.348688
60.579738
50.437222
41.833948
35.070507
29.608229
24.369223
19.572775
69.24247
71.081845
72.813537
74.356566
75.627991
76.715208
77.358307
77.515138
77.158009
76.316145
75.054101
73.34974
71.159683
68.152359
64.013277
58.424938
51.720441
44.695989
38.414032
33.459103
29.927607
27.068489
23.739245
19.997147
52.481044
54.541266
56.625741
58.586212
60.171788
61.304553
62.205469
62.271554
61.84366
60.664195
59.045646
56.994037
54.643357
51.88222
48.583166
44.583321
40.124445
35.771832
32.215598
29.862215
28.604575
27.541094
25.323873
21.586156
47.325498
51.235389
55.287839
58.956314
61.722679
63.169739
63.148867
62.23067
60.046909
57.175607
53.837396
50.370422
47.028994
43.851238
40.793322
37.801781
35.001199
32.825714
31.802608
32.217418
33.606134
34.526257
32.822119
27.183982
69.128464
79.965495
90.6444
99.409403
104.6627
105.5106
102.01067
95.030618
85.922845
76.199782
67.379385
59.801566
53.507348
48.472054
44.642701
41.897105
40.185194
39.72295
40.943059
44.030199
48.146005
50.73089
48.247145
38.1057
185.89856
189.84939
193.45841
196.35959
197.62047
197.98612
197.27399
195.93231
194.29127
192.54034
191.22287
190.46618
189.9821
188.69914
184.72549
175.70761
160.60989
140.42066
118.2559
95.725184
73.478894
52.583873
34.57145
21.573384
170.25221
173.34895
176.28189
178.82011
180.00094
180.3125
179.54405
177.85009
175.79269
173.40517
171.48546
170.05877
168.65419
165.75591
158.73011
145.05603
124.40943
99.878709
76.285255
56.370249
41.125975
30.54131
23.255748
18.142803
98.135481
99.756039
101.35643
102.85098
104.3376
105.40892
106.05954
106.25504
106.04933
105.66693
105.16728
104.648
103.66009
101.2481
95.906988
86.415563
73.23667
58.606019
45.416886
35.159909
28.217084
24.001347
20.88124
17.96871
61.213449
62.379929
63.543065
64.634499
65.666533
66.450817
66.896395
67.016661
66.79621
66.388569
65.793569
65.032649
63.8748
61.825402
58.217864
52.59178
45.392055
37.811278
31.23632
26.373814
23.401572
21.725419
20.038101
17.873074
41.96057
42.852866
43.754744
44.612822
45.369605
45.93411
46.240595
46.22519
45.914972
45.378324
44.656854
43.757668
42.620558
41.024452
38.707177
35.489714
31.646094
27.782052
24.561117
22.36358
21.290001
20.744574
19.731931
17.879677
32.591594
33.473725
34.38895
35.28575
36.062395
36.616837
36.891784
36.8279
36.423886
35.745113
34.839257
33.749806
32.517813
31.103071
29.426673
27.435997
25.264836
23.230031
21.677785
20.870523
20.826104
20.893346
20.155575
18.174363
31.327598
32.652374
34.096358
35.528449
36.786093
37.697715
38.131713
38.053001
37.475616
36.48976
35.158858
33.632788
32.010063
30.332524
28.605452
26.821136
25.076511
23.63813
22.842618
22.941353
23.691219
24.251018
23.36146
20.249782
47.160322
51.048917
55.073764
58.723854
61.482156
62.930735
62.913434
61.830239
59.855205
57.043947
53.740576
50.245025
46.916141
43.745137
40.693072
37.692773
34.889318
32.720251
31.707631
32.121632
33.510602
34.470967
32.788232
27.169726
131.84093
134.7109
137.35352
139.58226
141.38492
142.42982
142.79266
142.49499
141.6788
140.60409
139.35968
138.09416
136.46732
133.65397
128.3095
118.98287
105.59481
89.55433
73.499949
58.935498
46.483657
36.102991
27.117422
19.938705
97.70141
99.326332
100.94684
102.49384
103.97415
105.07591
105.74778
105.95912
105.77281
105.42495
104.95169
104.43849
103.45936
101.06132
95.740709
86.277271
73.13524
58.543512
45.387155
35.149584
28.21577
24.001963
20.881479
17.969339
52.025803
52.879728
53.757281
54.625384
55.621489
56.535442
57.256397
57.81494
58.070899
58.218554
58.158581
57.942758
57.328541
55.847166
52.801087
47.727862
41.095079
34.083142
28.067368
23.75913
21.378042
20.437893
19.588032
17.908137
34.449419
35.18696
35.922959
36.607977
37.239211
37.769396
38.075031
38.185582
38.037661
37.723583
37.239659
36.606632
35.75285
34.507903
32.626927
29.985548
26.844338
23.713882
21.149211
19.496763
18.943547
19.138934
18.972318
17.698171
27.516035
28.229252
28.92625
29.554237
30.072679
30.420899
30.554779
30.426204
30.068004
29.508591
28.800076
27.966979
27.022339
25.925803
24.602231
23.02552
21.331404
19.761911
18.558182
17.92567
18.02941
18.58955
18.646007
17.542702
26.282487
27.05622
27.818604
28.510978
29.067291
29.417148
29.502942
29.306564
28.853067
28.171787
27.317756
26.357179
25.326227
24.225402
23.025853
21.717814
20.391361
19.214863
18.357064
17.990631
18.254366
18.827401
18.786637
17.559346
32.451251
33.344017
34.274844
35.170505
35.936708
36.489292
36.750246
36.692092
36.317336
35.641642
34.729535
33.632212
32.404705
30.998655
29.341606
27.372071
25.224673
23.213802
21.684475
20.888074
20.834142
20.899102
20.165519
18.182952
52.232462
54.226435
56.313432
58.22649
59.768658
60.94348
61.735224
61.889413
61.466921
60.345112
58.714707
56.663682
54.347397
51.623453
48.365557
44.401783
39.982741
35.67352
32.159855
29.837939
28.607256
27.536836
25.330053
21.596757
94.566681
96.901564
99.041237
100.87358
102.39731
103.38155
103.79491
103.65511
102.99526
101.98443
100.61929
98.93692
96.721474
93.437777
88.373116
80.854792
71.184663
60.473465
50.382875
41.816236
35.072506
29.618698
24.379406
19.578546
60.803472
61.969882
63.148091
64.258783
65.324665
66.128241
66.592351
66.740424
66.555777
66.185611
65.615495
64.861024
63.710067
61.671476
58.077765
52.474774
45.308252
37.763296
31.216738
26.368531
23.400025
21.724036
20.036788
17.872808
34.391384
35.126798
35.864304
36.55659
37.198477
37.728236
38.034481
38.150742
38.01517
37.71184
37.232989
36.600777
35.745771
34.498815
32.614703
29.9732
26.835901
23.710461
21.149513
19.497249
18.942561
19.137569
18.971342
17.697721
25.820277
26.489183
27.138453
27.723817
28.201451
28.538548
28.649038
28.53164
28.176931
27.630594
26.928037
26.100503
25.159287
24.083121
22.818395
21.364687
19.858055
18.504366
17.516663
17.096736
17.427949
18.237555
18.517285
17.539888
23.911607
24.592827
25.249203
25.834872
26.296308
26.580682
26.641266
26.455328
26.035755
25.415222
24.638702
23.754504
22.795968
21.773566
20.67939
19.525629
18.406648
17.462447
16.828509
16.668076
17.152751
18.039447
18.38135
17.469899
27.49981
28.209908
28.913974
29.551634
30.072395
30.406141
30.513981
30.386758
30.021141
29.459249
28.730225
27.888831
26.946631
25.852648
24.542176
22.982151
21.308796
19.758768
18.570759
17.945236
18.043698
18.596767
18.650996
17.545525
41.698666
42.517308
43.405254
44.263955
44.981848
45.514127
45.78787
45.785582
45.515365
45.012003
44.309193
43.433209
42.330254
40.77463
38.508864
35.340703
31.549013
27.735627
24.556886
22.379993
21.30089
20.74268
19.744109
17.88907
68.927692
70.646619
72.237257
73.732932
74.915417
75.942843
76.528731
76.705239
76.410167
75.623492
74.409407
72.754826
70.629889
67.691556
63.626384
58.11328
51.494856
44.558954
38.353414
33.450557
29.941578
27.082608
23.765679
20.015614
68.823796
70.656563
72.395487
73.951966
75.253134
76.364626
77.02806
77.214945
76.905606
76.103547
74.860599
73.152775
70.966901
67.970371
63.846224
58.283229
51.615998
44.633164
38.385726
33.452735
29.932116
27.077623
23.747245
20.001423
41.689977
42.584124
43.500906
44.377461
45.160626
45.746004
46.07178
46.085024
45.808737
45.303375
44.601456
43.708754
42.573113
40.977532
38.658211
35.445389
31.614905
27.767059
24.558294
22.364264
21.288463
20.741595
19.729495
17.878156
27.470891
28.181328
28.882071
29.519236
30.045092
30.404383
30.543796
30.424838
30.078779
29.528663
28.824132
27.992679
27.046388
25.945647
24.614836
23.031907
21.334771
19.764944
18.56161
17.927415
18.028156
18.587186
18.644011
17.54185
23.902419
24.58432
25.24453
25.834947
26.300203
26.58791
26.651832
26.468032
26.049145
25.428857
24.65199
23.767296
22.807833
21.783507
20.685932
19.528406
18.406271
17.460271
16.825922
16.665647
17.149792
18.036896
18.379628
17.469102
25.834277
26.495343
27.158093
27.769144
28.255747
28.559454
28.665539
28.52704
28.164452
27.604349
26.877773
26.038205
25.09437
24.015089
22.765229
21.330276
19.843444
18.505566
17.528951
17.116132
17.444452
18.249882
18.528032
17.546069
34.455288
35.158627
35.870656
36.601245
37.24035
37.685485
37.969926
38.032589
37.875945
37.548511
37.03823
36.40006
35.555286
34.320223
32.474719
29.874009
26.77888
23.689585
21.156182
19.519135
18.960456
19.147758
18.982438
17.704525
60.783927
61.825142
62.831964
63.87217
64.815949
65.483122
65.914476
66.043806
65.882518
65.552245
65.031998
64.342885
63.254179
61.275133
57.753974
52.225215
45.140894
37.672384
31.187967
26.374087
23.406239
21.71334
20.035064
17.874609
94.681
96.850741
98.762737
100.45961
101.72469
102.60131
102.96682
102.85108
102.23635
101.27801
99.992229
98.391165
96.233967
93.001586
87.99517
80.561419
70.996482
60.379272
50.356236
41.831083
35.102478
29.638607
24.392008
19.590766
52.204143
54.259655
56.359005
58.347688
59.959862
61.116877
62.038149
62.141949
61.77763
60.642175
59.0323
56.971098
54.613235
51.844136
48.538642
44.537519
40.087691
35.748214
32.201819
29.852574
28.596591
27.534407
25.322666
21.586825
32.460916
33.348036
34.279235
35.196179
35.992266
36.564283
36.858417
36.815786
36.438232
35.777253
34.877585
33.790981
32.554618
31.131124
29.442384
27.440537
25.264792
23.229086
21.675917
20.864944
20.817589
20.884023
20.150149
18.172139
26.277312
27.051252
27.816078
28.513131
29.07507
29.431749
29.524916
29.335033
28.883454
28.20324
27.354795
26.392836
25.357815
24.248886
23.041821
21.726545
20.39312
19.211852
18.350928
17.981866
18.244228
18.818037
18.780119
17.556796
27.52607
28.231783
28.939364
29.584655
30.117067
30.45948
30.568221
30.438607
30.066263
29.499222
28.765117
27.916507
26.965883
25.862507
24.547119
22.985092
21.307168
19.751417
18.558571
17.931218
18.030627
18.586226
18.643627
17.54281
34.492526
35.206573
35.912547
36.654281
37.304226
37.752542
38.040391
38.103446
37.935935
37.602096
37.084457
36.436724
35.581486
34.334607
32.481304
29.875894
26.776807
23.683304
21.145938
19.507949
18.95078
19.140341
18.97765
17.702813
52.075063
52.85584
53.640393
54.578215
55.533696
56.27423
56.935803
57.403699
57.650101
57.768906
57.683746
57.47326
56.878879
55.410347
52.41194
47.410105
40.871763
33.952161
28.010156
23.746815
21.373762
20.431163
19.590536
17.911748
97.555361
98.930255
100.24153
101.49987
102.74207
103.63715
104.22241
104.45496
104.36021
104.12876
103.78162
103.38359
102.48216
100.15031
94.920831
85.608646
72.670171
58.272296
45.261277
35.109549
28.203298
23.984148
20.860684
17.963117
131.88928
134.54973
136.92474
138.83713
140.32421
141.25072
141.54352
141.32403
140.58663
139.62123
138.45837
137.24115
135.6202
132.82052
127.53915
118.37161
105.20604
89.364164
73.438418
58.948742
46.529826
36.13715
27.129113
19.951188
47.19671
51.11108
55.177087
58.86557
61.648436
63.112863
63.113304
62.223868
60.101444
57.290816
53.94484
50.462515
47.106604
43.908889
40.824764
37.805859
34.984159
32.79278
31.767226
32.171507
33.558023
34.485148
32.796403
27.173405
31.323069
32.650134
34.097762
35.53516
36.7995
37.717269
38.158544
38.087986
37.514313
36.524851
35.209531
33.684611
32.055832
30.367367
28.628234
26.832158
25.077415
23.632327
22.832232
22.924618
23.666701
24.226768
23.344489
20.242398
32.535107
33.419104
34.353104
35.253498
36.027327
36.584615
36.852807
36.784034
36.400473
35.712316
34.791181
33.683402
32.444831
31.025622
29.357743
27.38246
25.227022
23.205924
21.66634
20.863499
20.808387
20.876005
20.149566
18.175971
41.864505
42.702556
43.580379
44.456429
45.189917
45.746311
46.029076
46.014157
45.715233
45.183017
44.457258
43.555289
42.423044
40.83529
38.543599
35.359913
31.557192
27.731986
24.539265
22.354542
21.27592
20.721769
19.728527
17.883481
60.999527
62.05696
63.086302
64.146256
65.119878
65.804157
66.255895
66.373711
66.180115
65.815657
65.263615
64.538683
63.40823
61.383994
57.827499
52.272001
45.168156
37.680812
31.176275
26.350162
23.382012
21.696717
20.024618
17.872299
97.765836
99.156588
100.51202
101.77371
103.03751
103.94926
104.55372
104.77152
104.64743
104.38533
104.01154
103.5831
102.64434
100.27169
95.008491
85.668322
72.707423
58.289313
45.258479
35.092897
28.184247
23.972506
20.857441
17.962743
169.58955
172.22991
174.57411
176.00014
176.84261
177.08379
176.27077
174.81839
172.93565
170.94602
169.32937
168.06702
166.69304
163.85832
156.98949
143.65072
123.46891
99.366964
76.061566
56.295421
41.107846
30.528024
23.235959
18.135594
185.599
189.31798
192.57866
194.75163
195.76529
196.10857
195.3886
194.19015
192.60547
191.04613
189.79118
188.99673
188.41832
187.12875
183.28689
174.56832
159.87172
140.05088
118.12524
95.727634
73.541814
52.645955
34.604551
21.59341
69.138788
79.969922
90.642758
99.399942
104.65331
105.51152
102.02957
95.073624
85.987697
76.273798
67.411728
59.902635
53.586855
48.530414
44.682093
41.916848
40.193406
39.725656
40.92709
44.004453
48.114467
50.70304
48.230589
38.099939
47.285739
51.178441
55.199013
58.84357
61.60405
63.057613
63.046291
62.00999
59.96467
57.125633
53.8176
50.321957
46.983341
43.799952
40.739599
37.733168
34.917443
32.738647
31.715806
32.119626
33.503387
34.455467
32.774533
27.163566
52.428989
54.430191
56.51287
58.444724
60.016631
61.249161
62.052659
62.183569
61.725271
60.56737
58.915265
56.835861
54.49084
51.738188
48.456244
44.474199
40.034183
35.699817
32.159244
29.815904
28.57089
27.502698
25.304287
21.583865
69.129861
70.87973
72.49842
74.039323
75.27091
76.351053
76.964881
77.138888
76.809402
75.985779
74.734703
73.033504
70.858219
67.871363
63.764177
58.216422
51.566339
44.595948
38.354725
33.425609
29.903739
27.044582
23.735575
20.00153
94.81373
97.013023
98.991355
100.71689
102.02646
102.93833
103.35093
103.23768
102.61246
101.62284
100.3021
98.656149
96.451221
93.175471
88.133927
80.66807
71.070746
60.418535
50.360813
41.808025
35.064389
29.602043
24.366539
19.578862
131.89682
134.57135
136.97845
138.92938
140.44243
141.39749
141.72173
141.50327
140.76317
139.78836
138.60839
137.36611
135.72162
132.90573
127.61614
118.43807
105.25679
89.396005
73.451233
58.941199
46.50426
36.108847
27.111283
19.941647
185.39101
189.10821
192.37911
194.57936
195.59266
195.93231
195.20289
194.0177
192.46076
190.92589
189.68293
188.89739
188.33586
187.06855
183.2507
174.55495
159.87524
140.06692
118.15215
95.754939
73.554064
52.643267
34.598079
21.588284
174.12352
176.15695
177.64631
178.67282
181.20981
183.17247
185.55391
188.33007
190.73504
193.81406
196.14824
198.75656
201.09703
202.71538
202.96782
200.23251
193.9875
183.43264
169.5779
151.34018
126.13966
93.008047
57.155773
29.210524
77.309408
131.00064
177.86715
205.1675
217.39952
223.05732
226.98307
230.57409
233.91577
237.27455
240.58141
243.86852
247.09291
250.28484
253.43605
256.3647
258.99552
261.17626
262.9345
264.04634
264.66454
264.78465
264.48421
263.99245
53.642269
83.84751
110.33844
129.26348
142.36691
152.07299
159.84099
166.00729
170.40038
173.62873
176.0336
178.12434
180.02275
181.77482
183.43366
184.71583
185.77631
186.30723
186.48539
186.21255
185.54682
184.74429
183.61943
182.2801
40.732444
58.435635
75.001217
88.670792
99.729648
109.01784
116.81698
123.01361
127.37581
130.49312
132.73006
134.62533
136.31707
137.85574
139.27627
140.31
141.05753
141.17377
140.84348
140.03315
138.81532
137.41397
135.74519
133.89122
33.742572
45.364073
56.983575
67.478988
76.68851
85.042995
92.347377
98.335569
102.80938
106.29827
109.19312
112.04321
114.96624
117.96474
120.95147
123.49956
125.48243
126.37549
126.20135
124.85783
122.66738
119.76725
116.40484
112.7725
30.663183
39.353398
48.509942
57.030456
64.576049
71.69556
78.335283
84.32137
89.585505
94.632893
99.933724
106.05628
113.02791
120.81366
128.79021
136.31471
142.39228
146.20261
147.13615
145.06329
140.38038
133.5435
125.39078
116.67581
30.930903
38.921978
47.38799
54.691263
60.403077
65.532509
70.737997
76.258194
82.344278
89.499894
98.218698
109.17398
122.47415
138.05537
155.02186
172.12443
187.52218
199.17384
205.27039
204.45504
196.92407
183.42279
165.88022
146.68663
34.86438
45.187316
55.846026
63.601781
67.322026
69.011306
70.631984
73.417474
78.194344
85.486374
95.802473
110.06884
129.279
154.33042
185.21821
220.39814
256.50478
288.68936
311.22832
319.16234
310.42565
286.08878
250.76153
210.67294
46.381451
63.900692
82.184564
94.37606
97.238029
94.204355
89.420207
85.93492
86.016574
91.29475
103.34779
124.31269
156.92308
203.53539
265.36439
341.32224
426.5198
510.8498
580.27719
619.56052
617.36391
572.15509
492.2238
395.57118
117.43617
165.62548
194.92249
212.6951
224.07985
231.79101
238.01994
244.5549
252.2243
261.1676
270.77114
280.5665
289.8615
298.34981
305.64673
311.44753
315.85112
318.32808
319.16028
317.99995
314.78997
309.78272
303.1735
295.31595
102.55413
134.23605
154.90973
168.46233
178.11675
185.57012
192.04828
198.51055
205.4336
212.95369
220.7396
228.52439
235.86348
242.50059
248.16554
252.60914
255.78301
257.37448
257.51062
256.0212
252.90022
248.35591
242.59313
235.90616
95.342267
117.45174
133.19461
144.59462
153.58531
161.17254
168.03336
174.72801
181.57166
188.6878
195.88444
202.96838
209.61029
215.57208
220.60547
224.49241
227.07672
228.17715
227.82842
225.9284
222.55991
217.91043
212.21371
205.74588
93.390663
109.72505
122.74449
133.37615
142.54689
150.72716
158.27384
165.5693
172.87191
180.31093
187.76337
195.0719
201.93442
208.11147
213.30226
217.289
219.81802
220.74974
220.02458
217.5647
213.53203
208.14131
201.69927
194.54324
95.186313
107.98197
119.82367
130.74609
140.76619
149.95009
158.51393
166.80637
175.10617
183.57813
192.1362
200.64524
208.75357
216.21577
222.55818
227.57368
230.75989
232.03131
231.05286
227.77021
222.43398
215.38631
207.08809
198.04649
100.1265
110.96916
122.95818
135.16774
146.70327
157.32673
167.26876
176.94512
186.74285
196.87831
207.34445
218.03062
228.58013
238.58892
247.57826
254.88682
260.14638
262.50715
261.54988
257.18334
249.72883
239.78341
228.1155
215.58325
108.21729
118.74272
132.30099
146.86457
160.64241
173.22719
184.96247
196.44337
208.20511
220.5775
233.7008
247.53408
261.87677
276.32751
290.30323
302.63475
311.98434
317.04137
316.87757
311.16675
300.22059
285.22326
267.7172
249.20538
119.71364
132.03813
149.03775
167.44249
184.59834
200.09076
214.47742
228.59788
243.33641
259.42687
277.44835
297.83766
320.81468
345.63135
370.96054
394.80675
414.57572
427.27112
430.2406
422.1428
403.39122
376.48439
345.23871
313.1155
46.383101
63.893112
82.16447
94.346476
97.208185
94.177288
89.401072
85.924786
86.015827
91.308492
103.37787
124.35793
157.00302
203.65779
265.46355
341.38842
426.57705
510.94837
580.36411
619.49198
617.10926
571.91002
492.53421
395.90747
34.875807
45.20924
55.873302
63.630508
67.346878
69.030288
70.645006
73.424122
78.194687
85.478656
95.782157
110.03133
129.23192
154.28667
185.20491
220.41699
256.54217
288.55336
310.9912
318.91051
310.18471
285.88245
250.32797
210.28075
30.951612
38.959939
47.439035
54.751228
60.462003
65.568804
70.736399
76.212292
82.250978
89.358419
98.027659
108.92884
122.17596
137.71339
154.6704
171.76806
187.14758
198.77005
204.82911
204.03212
196.53191
183.09864
165.52952
146.38294
30.692906
39.410501
48.596431
57.138947
64.690245
71.782076
78.372791
84.300727
89.502453
94.48775
99.727422
105.79281
112.70557
120.44604
128.39653
135.91682
141.99045
145.8213
146.77599
144.75611
140.13061
133.30893
125.18368
116.50935
33.785432
45.448935
57.117637
67.652517
76.875914
85.205916
92.461576
98.387157
102.79154
106.21198
109.04552
111.84635
114.73141
117.71086
120.68668
123.22534
125.19201
126.09909
125.96533
124.68061
122.53294
119.62735
116.28794
112.67689
40.788124
58.55496
75.190951
88.920422
100.00716
109.27836
117.02529
123.14322
127.41456
130.44422
132.60994
134.45651
136.12026
137.65224
139.07256
140.09193
140.82309
140.94218
140.63873
139.87649
138.68287
137.30027
135.65726
133.82267
53.705217
84.003595
110.6058
129.62887
142.78274
152.47605
160.17587
166.22788
170.48362
173.58231
175.89089
177.92299
179.79196
181.53801
183.20298
184.47147
185.52204
186.04806
186.24026
186.00974
185.36235
184.62176
183.53967
182.22904
77.40382
131.2413
178.30489
205.77074
218.08941
223.74131
227.57112
230.98993
234.11799
237.27657
240.4315
243.62124
246.79637
249.96381
253.1153
256.0365
258.68756
260.87121
262.64458
263.78916
264.49202
264.70575
264.45231
263.98151
119.71509
132.04379
149.04712
167.45484
184.61094
200.10044
214.48263
228.59696
243.33076
259.41524
277.43315
297.81949
320.79067
345.60287
370.91604
394.73567
414.47016
427.14839
430.10813
422.01404
403.25642
376.36051
345.12781
313.01965
108.22122
118.75451
132.31779
146.88371
160.65941
173.23796
184.96805
196.44389
208.19813
220.56085
233.6761
247.50385
261.84816
276.30424
290.25773
302.56848
311.88424
316.89055
316.68506
310.95491
300.0182
285.04201
267.56404
249.08502
100.13277
110.98729
122.98445
135.1998
146.73743
157.35795
167.29671
176.96893
186.75618
196.87628
207.32611
217.99558
228.53422
238.5353
247.51227
254.79658
260.00726
262.32907
261.33977
256.9541
249.50666
239.58274
227.9484
215.45574
95.194399
108.00473
119.85781
130.78902
140.81434
149.99932
158.56333
166.85356
175.14339
183.59766
192.13503
200.62292
208.71
216.15379
222.4763
227.46319
230.61486
231.84394
230.83479
227.53761
222.20491
215.17861
206.91621
197.91824
93.40026
109.75316
122.78911
133.43279
142.61079
150.79538
158.34644
165.64232
172.9358
180.35704
187.78876
195.07516
201.91557
208.0716
213.2388
217.19469
219.68653
220.57376
219.81271
217.33324
213.29982
207.92765
201.51895
194.40663
95.351461
117.48173
133.24635
144.66295
153.66171
161.25223
168.11675
174.81214
181.64627
188.74273
195.91824
202.98182
209.60593
215.55281
220.56799
224.42697
226.97098
228.02017
227.626
225.69907
222.32557
217.69296
212.02794
205.60248
102.56004
134.26334
154.96328
168.53484
178.19272
185.63983
192.11167
198.56747
205.47553
212.97171
220.73768
228.51002
235.84501
242.48535
248.15042
252.57552
255.70987
257.24139
257.32457
255.80428
252.67856
248.15327
242.42339
235.77791
117.43442
165.63514
194.95864
212.74809
224.12295
231.80895
238.01344
244.52674
252.16832
261.07918
270.66382
280.46149
289.7786
298.30414
305.63643
311.44113
315.81705
318.23317
319.0095
317.81646
314.60254
309.61784
303.0448
295.2265
77.405517
131.24649
178.31973
205.79351
218.11167
223.75549
227.57614
230.98704
234.108
237.26039
240.40981
243.59244
246.76137
249.92671
253.07588
255.99375
258.63843
260.81694
262.5981
263.74362
264.44659
264.6491
264.39207
263.92007
53.692695
83.983137
110.58509
129.6073
142.75558
152.4373
160.12335
166.16519
170.41953
173.52298
175.83841
177.87794
179.75335
181.50481
183.17581
184.45415
185.51652
186.05237
186.23796
186.0134
185.37133
184.63038
183.55025
182.24369
40.769325
58.522987
75.149567
88.873766
99.960968
109.23198
116.97747
123.09412
127.36743
130.4057
132.58477
134.44593
136.12181
137.66272
139.09163
140.12148
140.86516
140.99382
140.69326
139.9199
138.72328
137.34281
135.7022
133.87282
33.769387
45.419488
57.073586
67.599262
76.825343
85.164567
92.430595
98.366405
102.78382
106.22197
109.07806
111.90401
114.81422
117.815
120.80795
123.35876
125.33734
126.251
126.11186
124.80161
122.63378
119.71912
116.36785
112.74799
30.681141
39.386309
48.55684
57.088539
64.642582
71.750717
78.364394
84.319774
89.552924
94.573778
99.856108
105.9717
112.94248
120.74233
128.74413
136.2939
142.38129
146.21076
147.14895
145.08432
140.40775
133.52991
125.37464
116.6598
30.941737
38.938545
47.402511
54.703846
60.418021
65.544342
70.74373
76.261445
82.347689
89.507766
98.241368
109.22519
122.57246
138.22368
155.26699
172.42825
187.8418
199.46306
205.48601
204.62256
197.04826
183.52876
165.91142
146.68888
34.869218
45.192137
55.839973
63.582711
67.299914
68.996235
70.631997
73.44423
78.258727
85.592043
95.953857
110.27389
129.55484
154.68875
185.69043
220.95938
257.09002
289.16957
311.59638
319.43456
310.62699
286.26161
250.7155
210.60546
46.378763
63.885152
82.14473
94.313627
97.166136
94.134609
89.36889
85.917182
86.03727
91.366066
103.47469
124.48919
157.18877
203.91367
265.77662
341.77359
427.0194
511.28359
580.60163
619.74513
617.37945
572.19025
492.56696
395.89944
117.43659
165.63464
194.95098
212.73452
224.10816
231.79352
237.99387
244.50168
252.13947
261.04871
270.63371
280.43411
289.75589
298.28656
305.62435
311.43165
315.80842
318.22655
319.00591
317.81611
314.60425
309.62242
303.05327
295.2381
102.55893
134.25061
154.93547
168.49653
178.15213
185.59777
192.06325
198.51178
205.4174
212.91455
220.68359
228.46387
235.81074
242.46464
248.14395
252.58149
255.72586
257.26866
257.36228
255.84876
252.72968
248.21081
242.48795
235.84682
95.346298
117.45907
133.20627
144.61444
153.61401
161.20407
168.06118
174.74944
181.58352
188.68403
195.86495
202.93867
209.57771
215.54278
220.5785
224.45683
227.01706
228.08094
227.69835
225.77797
222.40884
217.7787
212.11531
205.68867
93.392392
109.72467
122.74397
133.38314
142.56442
150.74832
158.29119
165.57987
172.87401
180.30055
187.73909
195.03669
201.89396
208.07171
213.26449
217.24696
219.76168
220.66803
219.91831
217.44334
213.41023
208.03457
201.62025
194.49937
95.185041
107.97402
119.81213
130.74038
140.76876
149.95193
158.50707
166.78925
175.07768
183.53547
192.07871
200.57723
208.68189
216.15052
222.50383
227.52644
230.71079
231.96737
230.97319
227.68125
222.34652
215.31251
207.03835
198.02524
100.12298
110.95592
122.93847
135.14904
146.68446
157.29946
167.22879
176.89184
186.67374
196.79116
207.24111
217.91713
228.47067
238.49485
247.50165
254.83
260.0931
262.45146
261.4857
257.11544
249.66909
239.73932
228.09169
215.58018
108.21315
118.7277
132.27454
146.82641
160.5893
173.15702
184.87704
196.34192
208.08286
220.42833
233.52482
247.33802
261.67708
276.13115
290.12815
302.48493
311.85219
316.91312
316.7509
311.05102
300.12994
285.15941
267.67696
249.18651
119.71108
132.02836
149.01595
167.40064
184.53058
200.00067
214.36909
228.46576
243.1667
259.20878
277.17571
297.50241
320.43639
345.23089
370.55502
394.41073
414.20091
426.93209
429.95019
421.90839
403.20517
376.3431
345.12921
313.03014
46.377959
63.882126
82.146047
94.316355
97.167245
94.137027
89.371597
85.91741
86.039192
91.365962
103.46803
124.47614
157.12451
203.77753
265.61895
341.54794
426.70331
510.94876
580.25862
619.34463
617.00716
571.82702
491.9335
395.28928
34.86516
45.188494
55.844829
63.595365
67.309119
68.994098
70.608894
73.397504
78.183851
85.490966
95.820722
110.0954
129.30458
154.33606
185.18981
220.30073
256.28485
288.29197
310.69588
318.60026
309.88408
285.53442
250.21468
210.18304
30.936652
38.933028
47.404319
54.70817
60.407349
65.518252
70.699448
76.188363
82.240108
89.360932
98.040867
108.9518
122.19904
137.71506
154.61197
171.64251
186.94961
198.50492
204.52356
203.68904
196.17957
182.71604
165.25399
146.16602
30.667743
39.363984
48.524693
57.042327
64.575346
71.678431
78.294743
84.251144
89.484594
94.502122
99.768305
105.84991
112.77101
120.50542
128.42254
135.89476
141.92324
145.71438
146.63592
144.57587
139.91892
133.12175
125.02098
116.36197
33.746044
45.370552
56.987736
67.477779
76.681571
85.026687
92.318586
98.2942
102.75802
106.23752
109.11816
111.94946
114.85275
117.83303
120.79271
123.31091
125.2688
126.15553
125.9915
124.66073
122.48086
119.59596
116.24317
112.62298
40.730537
58.431116
74.988712
88.652213
99.710612
109.0002
116.80256
123.00528
127.37437
130.49196
132.72001
134.60237
136.2829
137.8126
139.21742
140.22806
140.95911
141.06794
140.74756
139.94483
138.7309
137.34251
135.67869
133.83053
53.632961
83.830326
110.31437
129.24424
142.36228
152.08628
159.87378
166.06138
170.4705
173.70067
176.0947
178.16877
180.04904
181.78261
183.42196
184.67908
185.72454
186.24757
186.42038
186.15248
185.49033
184.70738
183.5967
182.27034
77.302627
130.99089
177.85676
205.16342
217.40769
223.0813
227.02694
230.6383
233.99806
237.36936
240.68108
243.96614
247.18391
250.36418
253.50551
256.42717
259.04464
261.21412
262.96843
264.07982
264.71059
264.80817
264.51433
264.03139
119.71678
132.04691
149.04571
167.43868
184.57416
200.04571
214.41094
228.49866
243.18512
259.20819
277.15172
297.45625
320.3564
345.10759
370.38856
394.20439
413.95836
426.66551
429.66851
421.6336
402.95827
376.14276
344.97862
312.92066
108.22373
118.76046
132.32188
146.87823
160.64081
173.20486
184.91318
196.36127
208.07918
220.39832
233.46111
247.2322
261.51481
275.91292
289.83684
302.12453
311.43843
316.47402
316.31841
310.64675
299.76627
284.8414
267.40724
248.96256
100.13287
110.98563
122.97667
135.18023
146.70123
157.3022
167.21582
176.85901
186.61689
196.70542
207.118
217.74695
228.24199
238.1976
247.13847
254.39871