/*--------------------------------*- C++ -*----------------------------------*\
| =========                 |                                                 |
| \\      /  F ield         | OpenFOAM: The Open Source CFD Toolbox           |
|  \\    /   O peration     | Version:  4.1                                   |
|   \\  /    A nd           | Web:      www.OpenFOAM.org                      |
|    \\/     M anipulation  |                                                 |
\*---------------------------------------------------------------------------*/
FoamFile
{
    version     2.0;
    format      ascii;
    class       volVectorField;
    location    "0.0001";
    object      cellDisplacement;
}
// * * * * * * * * * * * * * * * * * * * * * * * * * * * * * * * * * * * * * //

dimensions      [0 1 0 0 0 0 0];

internalField   nonuniform List<vector> 
6144
(
(5.6056e-11 1.3276e-10 1.9399e-14)
(1.6432e-10 3.7711e-10 7.9618e-14)
(2.6188e-10 5.589e-10 1.4585e-13)
(3.4405e-10 6.4469e-10 1.7092e-13)
(4.0826e-10 6.186e-10 1.6161e-13)
(4.5294e-10 4.8461e-10 1.6967e-13)
(4.7674e-10 2.6502e-10 1.4704e-13)
(4.7872e-10 -2.8749e-12 1.2876e-13)
(4.5911e-10 -2.7276e-10 7.1827e-14)
(4.1974e-10 -4.9734e-10 1.3686e-14)
(3.6366e-10 -6.3626e-10 -9.4442e-14)
(2.9441e-10 -6.6336e-10 -2.4838e-13)
(2.1538e-10 -5.7216e-10 -3.9009e-13)
(1.2977e-10 -3.7746e-10 -4.9305e-13)
(4.1001e-11 -1.1334e-10 -5.6486e-13)
(-4.7074e-11 1.7188e-10 -6e-13)
(-1.3064e-10 4.2451e-10 -6.173e-13)
(-2.0688e-10 5.9508e-10 -6.1159e-13)
(-2.7414e-10 6.4722e-10 -5.4803e-13)
(-3.3146e-10 5.6535e-10 -4.5212e-13)
(-3.7878e-10 3.5937e-10 -3.7164e-13)
(-4.1724e-10 6.6159e-11 -2.2842e-13)
(-4.4793e-10 -2.5687e-10 -1.1425e-13)
(-4.7111e-10 -5.4564e-10 -1.8288e-14)
(-4.8915e-10 -7.4767e-10 6.1813e-14)
(-5.0948e-10 -8.3801e-10 1.154e-13)
(-5.3961e-10 -8.2257e-10 1.5571e-13)
(-5.7764e-10 -7.4328e-10 1.9165e-13)
(-6.0869e-10 -7.2114e-10 2.6057e-13)
(-6.1715e-10 -9.6974e-10 3.623e-13)
(-6.2392e-10 -1.6654e-09 6.7446e-13)
(-6.7139e-10 -2.866e-09 1.148e-12)
(-6.4026e-10 -4.8704e-09 1.9298e-12)
(-1.9728e-10 -8.5526e-09 3.5441e-12)
(6.2046e-10 -1.4676e-08 6.2671e-12)
(1.1564e-09 -2.3164e-08 1.0174e-11)
(1.8506e-09 -3.4616e-08 1.5946e-11)
(5.4105e-09 -5.239e-08 2.4771e-11)
(1.2863e-08 -8.1547e-08 3.7824e-11)
(2.0007e-08 -1.2522e-07 5.3937e-11)
(2.5132e-08 -1.8185e-07 7.3413e-11)
(3.8642e-08 -2.5238e-07 1.0008e-10)
(7.2211e-08 -3.6153e-07 1.3954e-10)
(1.1681e-07 -5.5333e-07 1.9615e-10)
(1.4499e-07 -8.0901e-07 2.5606e-10)
(1.3707e-07 -9.6749e-07 2.7905e-10)
(9.5216e-08 -8.1983e-07 2.2436e-10)
(3.3683e-08 -3.2373e-07 8.6989e-11)
(5.5529e-11 1.1947e-10 -7.5847e-12)
(1.6281e-10 3.3945e-10 -2.1333e-11)
(2.5959e-10 5.0357e-10 -3.1001e-11)
(3.4119e-10 5.8218e-10 -3.4581e-11)
(4.0498e-10 5.6103e-10 -3.1166e-11)
(4.4936e-10 4.433e-10 -2.1225e-11)
(4.7299e-10 2.4844e-10 -6.5989e-12)
(4.7499e-10 9.2387e-12 9.9945e-12)
(4.5564e-10 -2.3335e-10 2.5284e-11)
(4.1675e-10 -4.3727e-10 3.6255e-11)
(3.6129e-10 -5.664e-10 4.0542e-11)
(2.9269e-10 -5.9698e-10 3.706e-11)
(2.143e-10 -5.2247e-10 2.6216e-11)
(1.2934e-10 -3.5504e-10 9.9978e-12)
(4.1251e-11 -1.2387e-10 -8.4097e-12)
(-4.6184e-11 1.2908e-10 -2.5152e-11)
(-1.2928e-10 3.5663e-10 -3.6557e-11)
(-2.0528e-10 5.1481e-10 -3.9812e-11)
(-2.7249e-10 5.7085e-10 -3.3662e-11)
(-3.2998e-10 5.0981e-10 -1.8544e-11)
(-3.7762e-10 3.3888e-10 3.1074e-12)
(-4.1638e-10 8.8684e-11 2.7187e-11)
(-4.4732e-10 -1.9225e-10 4.8502e-11)
(-4.7105e-10 -4.493e-10 6.25e-11)
(-4.9019e-10 -6.3705e-10 6.705e-11)
(-5.1135e-10 -7.3239e-10 6.373e-11)
(-5.4072e-10 -7.3896e-10 5.7653e-11)
(-5.761e-10 -6.9425e-10 5.732e-11)
(-6.0464e-10 -7.0232e-10 7.9439e-11)
(-6.1437e-10 -9.3904e-10 1.4954e-10)
(-6.2103e-10 -1.5558e-09 2.8622e-10)
(-6.4529e-10 -2.636e-09 4.9531e-10)
(-5.6962e-10 -4.4715e-09 8.1931e-10)
(-1.2616e-10 -7.782e-09 1.3777e-09)
(6.4761e-10 -1.3194e-08 2.2779e-09)
(1.3057e-09 -2.0767e-08 3.5347e-09)
(2.3687e-09 -3.1186e-08 5.2739e-09)
(6.0551e-09 -4.7312e-08 7.9906e-09)
(1.3088e-08 -7.3295e-08 1.2387e-08)
(2.0269e-08 -1.1174e-07 1.8888e-08)
(2.6855e-08 -1.6197e-07 2.7353e-08)
(4.1653e-08 -2.2639e-07 3.8144e-08)
(7.3589e-08 -3.2575e-07 5.4763e-08)
(1.1404e-07 -4.917e-07 8.2665e-08)
(1.3904e-07 -7.0181e-07 1.1822e-07)
(1.3108e-07 -8.2302e-07 1.3889e-07)
(9.1357e-08 -6.8974e-07 1.1651e-07)
(3.2427e-08 -2.7113e-07 4.5815e-08)
(5.5127e-11 1.0067e-10 -2.5534e-11)
(1.6166e-10 2.8606e-10 -7.226e-11)
(2.5782e-10 4.2463e-10 -1.0637e-10)
(3.3895e-10 4.9162e-10 -1.2145e-10)
(4.024e-10 4.7503e-10 -1.1443e-10)
(4.4653e-10 3.7738e-10 -8.6279e-11)
(4.7e-10 2.1474e-10 -4.1939e-11)
(4.72e-10 1.4425e-11 1.0869e-11)
(4.5284e-10 -1.8943e-10 6.2527e-11)
(4.1432e-10 -3.6174e-10 1.0366e-10)
(3.5934e-10 -4.7222e-10 1.2645e-10)
(2.9125e-10 -5.0084e-10 1.2638e-10)
(2.1337e-10 -4.4188e-10 1.0299e-10)
(1.2896e-10 -3.0509e-10 6.0344e-11)
(4.1426e-11 -1.1443e-10 6.3709e-12)
(-4.5482e-11 9.5479e-11 -4.8521e-11)
(-1.2818e-10 2.8557e-10 -9.3427e-11)
(-2.0396e-10 4.1931e-10 -1.1896e-10)
(-2.7111e-10 4.6933e-10 -1.1908e-10)
(-3.2868e-10 4.2305e-10 -9.2276e-11)
(-3.7652e-10 2.8581e-10 -4.252e-11)
(-4.1549e-10 8.2527e-11 2.0991e-11)
(-4.4666e-10 -1.4741e-10 8.5416e-11)
(-4.7085e-10 -3.5971e-10 1.3784e-10)
(-4.9074e-10 -5.1743e-10 1.6947e-10)
(-5.124e-10 -6.0181e-10 1.7901e-10)
(-5.4121e-10 -6.1626e-10 1.7334e-10)
(-5.7491e-10 -5.9354e-10 1.6845e-10)
(-6.0203e-10 -6.2023e-10 1.9891e-10)
(-6.1243e-10 -8.3904e-10 3.1845e-10)
(-6.1778e-10 -1.3763e-09 5.7121e-10)
(-6.2654e-10 -2.3172e-09 9.8083e-10)
(-5.253e-10 -3.9187e-09 1.6402e-09)
(-8.2699e-11 -6.7663e-09 2.7836e-09)
(6.7368e-10 -1.1376e-08 4.6244e-09)
(1.4199e-09 -1.7864e-08 7.2153e-09)
(2.7005e-09 -2.6892e-08 1.083e-08)
(6.4457e-09 -4.0838e-08 1.644e-08)
(1.325e-08 -6.3074e-08 2.5418e-08)
(2.0521e-08 -9.5765e-08 3.8637e-08)
(2.8007e-08 -1.3875e-07 5.6004e-08)
(4.3507e-08 -1.9477e-07 7.8496e-08)
(7.4341e-08 -2.806e-07 1.1275e-07)
(1.1215e-07 -4.1941e-07 1.6833e-07)
(1.3509e-07 -5.8957e-07 2.3699e-07)
(1.2703e-07 -6.8292e-07 2.7507e-07)
(8.8677e-08 -5.6823e-07 2.2914e-07)
(3.1536e-08 -2.2268e-07 8.9852e-08)
(5.4919e-11 7.6686e-11 -5.0133e-11)
(1.6106e-10 2.1785e-10 -1.422e-10)
(2.569e-10 3.2319e-10 -2.1044e-10)
(3.3779e-10 3.739e-10 -2.4253e-10)
(4.0106e-10 3.6089e-10 -2.3247e-10)
(4.4505e-10 2.8613e-10 -1.8172e-10)
(4.6844e-10 1.6198e-10 -9.8821e-11)
(4.7042e-10 9.3797e-12 2.1257e-12)
(4.5137e-10 -1.4559e-10 1.035e-10)
(4.1304e-10 -2.7614e-10 1.875e-10)
(3.583e-10 -3.5929e-10 2.3895e-10)
(2.9048e-10 -3.7994e-10 2.4831e-10)
(2.1288e-10 -3.3398e-10 2.1345e-10)
(1.2875e-10 -2.2913e-10 1.4031e-10)
(4.1522e-11 -8.3929e-11 4.2056e-11)
(-4.5103e-11 7.505e-11 -6.3023e-11)
(-1.276e-10 2.1801e-10 -1.5489e-10)
(-2.0326e-10 3.1731e-10 -2.1536e-10)
(-2.7038e-10 3.5251e-10 -2.315e-10)
(-3.2798e-10 3.1451e-10 -1.9821e-10)
(-3.7591e-10 2.08e-10 -1.2015e-10)
(-4.15e-10 5.2438e-11 -1.1544e-11)
(-4.4632e-10 -1.2185e-10 1.062e-10)
(-4.7077e-10 -2.8124e-10 2.1011e-10)
(-4.9102e-10 -3.9833e-10 2.8242e-10)
(-5.1289e-10 -4.6007e-10 3.1641e-10)
(-5.414e-10 -4.7111e-10 3.1842e-10)
(-5.743e-10 -4.5925e-10 3.1069e-10)
(-6.0083e-10 -4.9377e-10 3.4533e-10)
(-6.116e-10 -6.869e-10 5.0519e-10)
(-6.1597e-10 -1.1388e-09 8.6255e-10)
(-6.1723e-10 -1.9196e-09 1.4644e-09)
(-5.0525e-10 -3.2346e-09 2.4592e-09)
(-6.4464e-11 -5.548e-09 4.1955e-09)
(6.8673e-10 -9.2775e-09 6.9919e-09)
(1.4783e-09 -1.4546e-08 1.0943e-08)
(2.8543e-09 -2.1916e-08 1.6475e-08)
(6.6148e-09 -3.3297e-08 2.5031e-08)
(1.332e-08 -5.1372e-08 3.8638e-08)
(2.0656e-08 -7.7892e-08 5.8621e-08)
(2.8563e-08 -1.1289e-07 8.4995e-08)
(4.4352e-08 -1.5875e-07 1.1945e-07)
(7.4635e-08 -2.2853e-07 1.7173e-07)
(1.1119e-07 -3.3969e-07 2.551e-07)
(1.3313e-07 -4.7415e-07 3.5629e-07)
(1.2499e-07 -5.463e-07 4.1087e-07)
(8.7303e-08 -4.5311e-07 3.4095e-07)
(3.1073e-08 -1.7731e-07 1.3346e-07)
(5.4919e-11 5.0245e-11 -7.6567e-11)
(1.6106e-10 1.426e-10 -2.1743e-10)
(2.569e-10 2.1108e-10 -3.2251e-10)
(3.3779e-10 2.4322e-10 -3.7316e-10)
(4.0106e-10 2.3312e-10 -3.6019e-10)
(4.4505e-10 1.823e-10 -2.8551e-10)
(4.6844e-10 9.9271e-11 -1.6151e-10)
(4.7042e-10 -1.7444e-12 -8.9963e-12)
(4.5136e-10 -1.0321e-10 1.4589e-10)
(4.1304e-10 -1.8731e-10 2.7635e-10)
(3.583e-10 -2.3892e-10 3.5934e-10)
(2.9048e-10 -2.4838e-10 3.7983e-10)
(2.1288e-10 -2.1369e-10 3.337e-10)
(1.2875e-10 -1.4072e-10 2.2871e-10)
(4.1521e-11 -4.2526e-11 8.3453e-11)
(-4.5103e-11 6.2592e-11 -7.5481e-11)
(-1.2759e-10 1.5454e-10 -2.1836e-10)
(-2.0326e-10 2.1513e-10 -3.1754e-10)
(-2.7038e-10 2.3146e-10 -3.5257e-10)
(-3.2798e-10 1.9845e-10 -3.1425e-10)
(-3.7591e-10 1.2049e-10 -2.0762e-10)
(-4.15e-10 1.1966e-11 -5.1996e-11)
(-4.4632e-10 -1.0574e-10 1.2234e-10)
(-4.7077e-10 -2.0965e-10 2.8173e-10)
(-4.9102e-10 -2.8201e-10 3.9873e-10)
(-5.1289e-10 -3.1619e-10 4.6027e-10)
(-5.414e-10 -3.1822e-10 4.7129e-10)
(-5.743e-10 -3.1053e-10 4.5938e-10)
(-6.0084e-10 -3.4519e-10 4.9386e-10)
(-6.1161e-10 -5.0506e-10 6.8699e-10)
(-6.1597e-10 -8.624e-10 1.1389e-09)
(-6.1723e-10 -1.4643e-09 1.9196e-09)
(-5.0525e-10 -2.4589e-09 3.2347e-09)
(-6.4467e-11 -4.1949e-09 5.5484e-09)
(6.8673e-10 -6.9907e-09 9.2784e-09)
(1.4783e-09 -1.0941e-08 1.4547e-08)
(2.8543e-09 -1.6473e-08 2.1917e-08)
(6.6148e-09 -2.5028e-08 3.3299e-08)
(1.332e-08 -3.8635e-08 5.1374e-08)
(2.0656e-08 -5.8615e-08 7.7896e-08)
(2.8563e-08 -8.4985e-08 1.129e-07)
(4.4352e-08 -1.1944e-07 1.5876e-07)
(7.4635e-08 -1.7171e-07 2.2855e-07)
(1.1119e-07 -2.5507e-07 3.3971e-07)
(1.3313e-07 -3.5626e-07 4.7417e-07)
(1.2499e-07 -4.1084e-07 5.4632e-07)
(8.7303e-08 -3.4094e-07 4.5312e-07)
(3.1073e-08 -1.3345e-07 1.7732e-07)
(5.5127e-11 2.5635e-11 -1.0055e-10)
(1.6166e-10 7.2607e-11 -2.8565e-10)
(2.5782e-10 1.0693e-10 -4.2397e-10)
(3.3895e-10 1.2206e-10 -4.9088e-10)
(4.024e-10 1.15e-10 -4.7432e-10)
(4.4653e-10 8.6812e-11 -3.7674e-10)
(4.7e-10 4.2359e-11 -2.1425e-10)
(4.7199e-10 -1.0486e-11 -1.4038e-11)
(4.5284e-10 -6.2229e-11 1.8977e-10)
(4.1432e-10 -1.0345e-10 3.6199e-10)
(3.5933e-10 -1.2636e-10 4.7235e-10)
(2.9124e-10 -1.2635e-10 5.0087e-10)
(2.1337e-10 -1.0312e-10 4.4176e-10)
(1.2895e-10 -6.0659e-11 3.0479e-10)
(4.1423e-11 -6.7722e-12 1.1404e-10)
(-4.5482e-11 4.8136e-11 -9.5857e-11)
(-1.2818e-10 9.3097e-11 -2.8588e-10)
(-2.0396e-10 1.1874e-10 -4.1953e-10)
(-2.7111e-10 1.1903e-10 -4.6942e-10)
(-3.2868e-10 9.2465e-11 -4.228e-10)
(-3.7651e-10 4.2806e-11 -2.8547e-10)
(-4.1549e-10 -2.0622e-11 -8.2132e-11)
(-4.4666e-10 -8.5009e-11 1.4785e-10)
(-4.7085e-10 -1.3744e-10 3.6014e-10)
(-4.9074e-10 -1.691e-10 5.1781e-10)
(-5.124e-10 -1.7879e-10 6.0199e-10)
(-5.4122e-10 -1.731e-10 6.1643e-10)
(-5.7492e-10 -1.6824e-10 5.9366e-10)
(-6.0203e-10 -1.9871e-10 6.203e-10)
(-6.1244e-10 -3.1827e-10 8.3907e-10)
(-6.1779e-10 -5.7101e-10 1.3764e-09)
(-6.2654e-10 -9.8057e-10 2.3172e-09)
(-5.253e-10 -1.6398e-09 3.9187e-09)
(-8.2708e-11 -2.7828e-09 6.7665e-09)
(6.7367e-10 -4.6231e-09 1.1376e-08)
(1.4199e-09 -7.2133e-09 1.7865e-08)
(2.7005e-09 -1.0827e-08 2.6893e-08)
(6.4457e-09 -1.6437e-08 4.0839e-08)
(1.325e-08 -2.5414e-08 6.3076e-08)
(2.0521e-08 -3.863e-08 9.5768e-08)
(2.8007e-08 -5.5993e-08 1.3876e-07)
(4.3507e-08 -7.848e-08 1.9478e-07)
(7.4341e-08 -1.1273e-07 2.8061e-07)
(1.1215e-07 -1.6831e-07 4.1942e-07)
(1.3509e-07 -2.3696e-07 5.8959e-07)
(1.2703e-07 -2.7505e-07 6.8293e-07)
(8.8677e-08 -2.2912e-07 5.6824e-07)
(3.1536e-08 -8.9845e-08 2.2269e-07)
(5.553e-11 7.6742e-12 -1.1937e-10)
(1.6281e-10 2.1638e-11 -3.3908e-10)
(2.5959e-10 3.1484e-11 -5.0297e-10)
(3.4119e-10 3.5117e-11 -5.8151e-10)
(4.0498e-10 3.1691e-11 -5.6036e-10)
(4.4936e-10 2.1724e-11 -4.4269e-10)
(4.7298e-10 7.0279e-12 -2.4794e-10)
(4.7498e-10 -9.6121e-12 -8.8286e-12)
(4.5564e-10 -2.4977e-11 2.3372e-10)
(4.1675e-10 -3.6017e-11 4.3759e-10)
(3.6128e-10 -4.0383e-11 5.6665e-10)
(2.9268e-10 -3.6949e-11 5.9719e-10)
(2.1429e-10 -2.6252e-11 5.2255e-10)
(1.2934e-10 -1.0204e-11 3.5487e-10)
(4.1246e-11 8.1122e-12 1.2357e-10)
(-4.6185e-11 2.485e-11 -1.294e-10)
(-1.2928e-10 3.6277e-11 -3.5692e-10)
(-2.0527e-10 3.9626e-11 -5.1503e-10)
(-2.7249e-10 3.3596e-11 -5.7093e-10)
(-3.2997e-10 1.8649e-11 -5.0963e-10)
(-3.7762e-10 -2.9217e-12 -3.3857e-10)
(-4.1638e-10 -2.6908e-11 -8.8326e-11)
(-4.4731e-10 -4.8179e-11 1.9264e-10)
(-4.7104e-10 -6.2164e-11 4.497e-10)
(-4.9018e-10 -6.6719e-11 6.3739e-10)
(-5.1135e-10 -6.349e-11 7.326e-10)
(-5.4073e-10 -5.7412e-11 7.3914e-10)
(-5.7611e-10 -5.7062e-11 6.944e-10)
(-6.0465e-10 -7.9193e-11 7.0239e-10)
(-6.1438e-10 -1.493e-10 9.3907e-10)
(-6.2104e-10 -2.8597e-10 1.5557e-09)
(-6.4529e-10 -4.9497e-10 2.6359e-09)
(-5.6963e-10 -8.1887e-10 4.4714e-09)
(-1.2617e-10 -1.3769e-09 7.782e-09)
(6.4759e-10 -2.2766e-09 1.3194e-08)
(1.3057e-09 -3.5327e-09 2.0767e-08)
(2.3687e-09 -5.2711e-09 3.1187e-08)
(6.0551e-09 -7.9867e-09 4.7313e-08)
(1.3088e-08 -1.2381e-08 7.3295e-08)
(2.0269e-08 -1.8881e-08 1.1174e-07)
(2.6855e-08 -2.7341e-08 1.6197e-07)
(4.1654e-08 -3.8128e-08 2.2639e-07)
(7.3589e-08 -5.4742e-08 3.2576e-07)
(1.1404e-07 -8.2639e-08 4.9172e-07)
(1.3904e-07 -1.1819e-07 7.0183e-07)
(1.3108e-07 -1.3886e-07 8.2302e-07)
(9.1357e-08 -1.1649e-07 6.8974e-07)
(3.2427e-08 -4.5807e-08 2.7114e-07)
(5.6056e-11 6.4721e-14 -1.3266e-10)
(1.6432e-10 2.0129e-13 -3.7677e-10)
(2.6189e-10 3.0033e-13 -5.5834e-10)
(3.4405e-10 3.4377e-13 -6.4405e-10)
(4.0825e-10 3.5882e-13 -6.1796e-10)
(4.5293e-10 3.5083e-13 -4.84e-10)
(4.7673e-10 3.2064e-13 -2.6449e-10)
(4.7872e-10 2.8614e-13 3.3306e-12)
(4.5911e-10 2.5097e-13 2.732e-10)
(4.1973e-10 2.3706e-13 4.9774e-10)
(3.6366e-10 2.8679e-13 6.3661e-10)
(2.944e-10 3.972e-13 6.6371e-10)
(2.1537e-10 4.4026e-13 5.7239e-10)
(1.2976e-10 4.0174e-13 3.7742e-10)
(4.0995e-11 3.9115e-13 1.1314e-10)
(-4.7075e-11 4.088e-13 -1.7215e-10)
(-1.3064e-10 4.3358e-13 -4.2477e-10)
(-2.0688e-10 4.6583e-13 -5.9528e-10)
(-2.7413e-10 4.9076e-13 -6.4732e-10)
(-3.3145e-10 5.0827e-13 -5.6523e-10)
(-3.7878e-10 4.7352e-13 -3.5913e-10)
(-4.1723e-10 4.3239e-13 -6.5872e-11)
(-4.4793e-10 3.7587e-13 2.572e-10)
(-4.711e-10 3.1857e-13 5.46e-10)
(-4.8914e-10 2.5193e-13 7.4799e-10)
(-5.0948e-10 1.5864e-13 8.3826e-10)
(-5.3962e-10 1.1148e-13 8.2279e-10)
(-5.7765e-10 9.9944e-14 7.4347e-10)
(-6.087e-10 4.7386e-14 7.2126e-10)
(-6.1716e-10 -8.3491e-14 9.6977e-10)
(-6.2392e-10 -3.6116e-13 1.6653e-09)
(-6.7139e-10 -7.6155e-13 2.8659e-09)
(-6.4027e-10 -1.4577e-12 4.8702e-09)
(-1.9729e-10 -2.7878e-12 8.5525e-09)
(6.2044e-10 -5.0533e-12 1.4676e-08)
(1.1564e-09 -8.3206e-12 2.3164e-08)
(1.8507e-09 -1.3159e-11 3.4616e-08)
(5.4105e-09 -2.0761e-11 5.239e-08)
(1.2863e-08 -3.2156e-11 8.1547e-08)
(2.0007e-08 -4.607e-11 1.2522e-07)
(2.5132e-08 -6.2764e-11 1.8185e-07)
(3.8642e-08 -8.596e-11 2.5238e-07)
(7.2211e-08 -1.2144e-10 3.6154e-07)
(1.1681e-07 -1.7424e-10 5.5333e-07)
(1.4499e-07 -2.3201e-10 8.0902e-07)
(1.3707e-07 -2.5635e-10 9.6749e-07)
(9.5215e-08 -2.0788e-10 8.1983e-07)
(3.3683e-08 -8.0955e-11 3.2373e-07)
(5.553e-11 1.1948e-10 7.6244e-12)
(1.6281e-10 3.3945e-10 2.1486e-11)
(2.5959e-10 5.0356e-10 3.1272e-11)
(3.4119e-10 5.8218e-10 3.4876e-11)
(4.0499e-10 5.6103e-10 3.142e-11)
(4.4937e-10 4.433e-10 2.146e-11)
(4.7299e-10 2.4845e-10 6.7752e-12)
(4.7499e-10 9.2602e-12 -9.8412e-12)
(4.5565e-10 -2.3332e-10 -2.5212e-11)
(4.1675e-10 -4.3722e-10 -3.6282e-11)
(3.6129e-10 -5.6636e-10 -4.0828e-11)
(2.9269e-10 -5.97e-10 -3.7699e-11)
(2.143e-10 -5.2251e-10 -2.7219e-11)
(1.2934e-10 -3.5506e-10 -1.1239e-11)
(4.125e-11 -1.2387e-10 7.0151e-12)
(-4.6186e-11 1.2906e-10 2.3688e-11)
(-1.2928e-10 3.566e-10 3.5052e-11)
(-2.0528e-10 5.1478e-10 3.8363e-11)
(-2.725e-10 5.7083e-10 3.2301e-11)
(-3.2998e-10 5.0978e-10 1.7396e-11)
(-3.7763e-10 3.3881e-10 -4.0164e-12)
(-4.1639e-10 8.8647e-11 -2.7803e-11)
(-4.4732e-10 -1.9225e-10 -4.8868e-11)
(-4.7105e-10 -4.4929e-10 -6.2657e-11)
(-4.9019e-10 -6.3702e-10 -6.7021e-11)
(-5.1135e-10 -7.3233e-10 -6.3577e-11)
(-5.4072e-10 -7.389e-10 -5.7357e-11)
(-5.761e-10 -6.9418e-10 -5.6932e-11)
(-6.0464e-10 -7.0224e-10 -7.8976e-11)
(-6.1438e-10 -9.3897e-10 -1.4887e-10)
(-6.2104e-10 -1.5557e-09 -2.8506e-10)
(-6.4532e-10 -2.6358e-09 -4.9323e-10)
(-5.6969e-10 -4.4712e-09 -8.1568e-10)
(-1.2623e-10 -7.7814e-09 -1.3711e-09)
(6.4755e-10 -1.3193e-08 -2.2665e-09)
(1.3055e-09 -2.0765e-08 -3.5163e-09)
(2.3682e-09 -3.1184e-08 -5.2451e-09)
(6.0545e-09 -4.7309e-08 -7.9463e-09)
(1.3088e-08 -7.329e-08 -1.232e-08)
(2.0269e-08 -1.1173e-07 -1.8794e-08)
(2.6854e-08 -1.6196e-07 -2.7223e-08)
(4.1651e-08 -2.2637e-07 -3.7967e-08)
(7.3589e-08 -3.2573e-07 -5.4518e-08)
(1.1404e-07 -4.9168e-07 -8.2328e-08)
(1.3904e-07 -7.018e-07 -1.1779e-07)
(1.3109e-07 -8.2302e-07 -1.3844e-07)
(9.1361e-08 -6.8975e-07 -1.1615e-07)
(3.2428e-08 -2.7114e-07 -4.5678e-08)
(5.4772e-11 9.9967e-11 -2.3327e-15)
(1.6068e-10 2.839e-10 1.0389e-14)
(2.5643e-10 4.2103e-10 3.3495e-14)
(3.3735e-10 4.868e-10 1.7514e-14)
(4.0071e-10 4.6932e-10 -1.0822e-14)
(4.4477e-10 3.7118e-10 -2.9059e-15)
(4.6821e-10 2.0861e-10 8.3546e-15)
(4.7027e-10 9.0029e-12 6.5047e-14)
(4.5129e-10 -1.935e-10 8.7896e-14)
(4.1301e-10 -3.6382e-10 6.7495e-14)
(3.5829e-10 -4.7187e-10 -6.8625e-14)
(2.9045e-10 -4.9785e-10 -2.3289e-13)
(2.1283e-10 -4.3631e-10 -4.649e-13)
(1.2867e-10 -2.9738e-10 -6.5479e-13)
(4.142e-11 -1.0538e-10 -8.0791e-13)
(-4.522e-11 1.0479e-10 -9.109e-13)
(-1.2771e-10 2.9391e-10 -9.8738e-13)
(-2.0332e-10 4.2543e-10 -1.0094e-12)
(-2.7035e-10 4.7214e-10 -9.7282e-13)
(-3.2785e-10 4.2178e-10 -8.2078e-13)
(-3.757e-10 2.8038e-10 -6.1855e-13)
(-4.1472e-10 7.3417e-11 -3.7122e-13)
(-4.4595e-10 -1.5916e-10 -1.4991e-13)
(-4.7035e-10 -3.7263e-10 3.4286e-14)
(-4.9066e-10 -5.2987e-10 1.7729e-13)
(-5.1271e-10 -6.121e-10 2.544e-13)
(-5.4146e-10 -6.2357e-10 3.4087e-13)
(-5.7456e-10 -5.9905e-10 3.9526e-13)
(-6.0117e-10 -6.2711e-10 5.101e-13)
(-6.1194e-10 -8.4999e-10 7.7173e-13)
(-6.1643e-10 -1.3954e-09 1.3478e-12)
(-6.1674e-10 -2.3581e-09 2.3764e-12)
(-5.0128e-10 -4.0031e-09 4.0729e-12)
(-5.9268e-11 -6.9041e-09 7.0385e-12)
(6.8518e-10 -1.157e-08 1.1738e-11)
(1.4752e-09 -1.8159e-08 1.8525e-11)
(2.8738e-09 -2.7389e-08 2.8371e-11)
(6.6522e-09 -4.1627e-08 4.32e-11)
(1.3321e-08 -6.4183e-08 6.5348e-11)
(2.0621e-08 -9.7204e-08 9.5782e-11)
(2.8593e-08 -1.4076e-07 1.3538e-10)
(4.4465e-08 -1.9804e-07 1.8855e-10)
(7.464e-08 -2.8561e-07 2.6634e-10)
(1.1095e-07 -4.2468e-07 3.7743e-10)
(1.3279e-07 -5.9172e-07 4.9575e-10)
(1.2476e-07 -6.8034e-07 5.432e-10)
(8.7224e-08 -5.6364e-07 4.3759e-10)
(3.1063e-08 -2.2048e-07 1.6941e-10)
(5.4282e-11 8.0088e-11 -1.527e-11)
(1.5929e-10 2.2743e-10 -4.3249e-11)
(2.5434e-10 3.3727e-10 -6.3849e-11)
(3.3479e-10 3.9008e-10 -7.3352e-11)
(3.9783e-10 3.7638e-10 -6.9905e-11)
(4.4165e-10 2.9819e-10 -5.3965e-11)
(4.6497e-10 1.6844e-10 -2.8272e-11)
(4.6707e-10 8.9853e-12 2.7902e-12)
(4.4832e-10 -1.5291e-10 3.3668e-11)
(4.1045e-10 -2.8927e-10 5.8886e-11)
(3.5623e-10 -3.7607e-10 7.371e-11)
(2.8892e-10 -3.9747e-10 7.5356e-11)
(2.1182e-10 -3.4917e-10 6.3375e-11)
(1.2822e-10 -2.3918e-10 3.9838e-11)
(4.1548e-11 -8.6828e-11 9.0142e-12)
(-4.4552e-11 8.0159e-11 -2.3296e-11)
(-1.2662e-10 2.306e-10 -5.0875e-11)
(-2.0198e-10 3.3543e-10 -6.816e-11)
(-2.689e-10 3.7308e-10 -7.1298e-11)
(-3.2642e-10 3.3383e-10 -5.8955e-11)
(-3.7442e-10 2.2244e-10 -3.2961e-11)
(-4.1363e-10 5.9073e-11 1.9729e-12)
(-4.451e-10 -1.2476e-10 3.8907e-11)
(-4.6996e-10 -2.9397e-10 7.0678e-11)
(-4.9102e-10 -4.1956e-10 9.1997e-11)
(-5.1358e-10 -4.8706e-10 1.0126e-10)
(-5.4185e-10 -5.0062e-10 1.0136e-10)
(-5.7348e-10 -4.8997e-10 1.0054e-10)
(-5.9885e-10 -5.2659e-10 1.167e-10)
(-6.0985e-10 -7.2234e-10 1.7665e-10)
(-6.1178e-10 -1.1807e-09 3.0433e-10)
(-5.9627e-10 -1.99e-09 5.1835e-10)
(-4.5694e-10 -3.3726e-09 8.7126e-10)
(-1.4246e-11 -5.7779e-09 1.4761e-09)
(7.2216e-10 -9.6113e-09 2.4376e-09)
(1.604e-09 -1.5058e-08 3.8036e-09)
(3.2046e-09 -2.2763e-08 5.7391e-09)
(7.0362e-09 -3.4623e-08 8.7267e-09)
(1.3517e-08 -5.3226e-08 1.3425e-08)
(2.0943e-08 -8.0307e-08 2.0274e-08)
(2.9758e-08 -1.1625e-07 2.9359e-08)
(4.6206e-08 -1.6418e-07 4.1415e-08)
(7.5217e-08 -2.3684e-07 5.9616e-08)
(1.0892e-07 -3.4866e-07 8.7689e-08)
(1.2873e-07 -4.7851e-07 1.2049e-07)
(1.206e-07 -5.4331e-07 1.3703e-07)
(8.444e-08 -4.4675e-07 1.1278e-07)
(3.0128e-08 -1.7419e-07 4.3995e-08)
(5.404e-11 5.8367e-11 -3.5719e-11)
(1.586e-10 1.6572e-10 -1.013e-10)
(2.533e-10 2.4566e-10 -1.4996e-10)
(3.3351e-10 2.8398e-10 -1.7304e-10)
(3.9637e-10 2.7381e-10 -1.6625e-10)
(4.4007e-10 2.1666e-10 -1.3055e-10)
(4.6332e-10 1.22e-10 -7.1912e-11)
(4.6543e-10 5.8344e-12 -2.7116e-13)
(4.468e-10 -1.1194e-10 7.1925e-11)
(4.0913e-10 -2.1094e-10 1.3203e-10)
(3.5517e-10 -2.7366e-10 1.6924e-10)
(2.8813e-10 -2.8864e-10 1.7672e-10)
(2.1131e-10 -2.5295e-10 1.5286e-10)
(1.2799e-10 -1.7257e-10 1.0174e-10)
(4.1618e-11 -6.1667e-11 3.2478e-11)
(-4.4204e-11 5.9456e-11 -4.2111e-11)
(-1.2606e-10 1.6809e-10 -1.0793e-10)
(-2.0129e-10 2.4316e-10 -1.5206e-10)
(-2.6815e-10 2.6916e-10 -1.6513e-10)
(-3.2569e-10 2.3929e-10 -1.4331e-10)
(-3.7376e-10 1.5725e-10 -8.9666e-11)
(-4.1308e-10 3.8001e-11 -1.389e-11)
(-4.4468e-10 -9.5381e-11 6.9245e-11)
(-4.6978e-10 -2.1749e-10 1.4382e-10)
(-4.9121e-10 -3.0761e-10 1.9727e-10)
(-5.14e-10 -3.5595e-10 2.2434e-10)
(-5.4202e-10 -3.6663e-10 2.2911e-10)
(-5.7293e-10 -3.6295e-10 2.2768e-10)
(-5.9771e-10 -3.9885e-10 2.5596e-10)
(-6.0872e-10 -5.5728e-10 3.6865e-10)
(-6.0905e-10 -9.1588e-10 6.1624e-10)
(-5.8576e-10 -1.5438e-09 1.0424e-09)
(-4.3552e-10 -2.61e-09 1.7576e-09)
(7.67e-12 -4.4492e-09 2.9857e-09)
(7.4335e-10 -7.3689e-09 4.934e-09)
(1.672e-09 -1.153e-08 7.7109e-09)
(3.3658e-09 -1.7444e-08 1.166e-08)
(7.2194e-09 -2.654e-08 1.7738e-08)
(1.3621e-08 -4.075e-08 2.7244e-08)
(2.1125e-08 -6.1393e-08 4.1062e-08)
(3.0336e-08 -8.8886e-08 5.9463e-08)
(4.7027e-08 -1.2571e-07 8.4067e-08)
(7.5458e-08 -1.8124e-07 1.211e-07)
(1.0791e-07 -2.6542e-07 1.7728e-07)
(1.2673e-07 -3.6171e-07 2.4169e-07)
(1.1853e-07 -4.0835e-07 2.7303e-07)
(8.3035e-08 -3.3461e-07 2.2381e-07)
(2.9652e-08 -1.3026e-07 8.7146e-08)
(5.404e-11 3.5883e-11 -5.8194e-11)
(1.586e-10 1.0184e-10 -1.6515e-10)
(2.533e-10 1.5078e-10 -2.4479e-10)
(3.3351e-10 1.7392e-10 -2.8304e-10)
(3.9636e-10 1.6707e-10 -2.7293e-10)
(4.4007e-10 1.3126e-10 -2.159e-10)
(4.6332e-10 7.2463e-11 -1.2141e-10)
(4.6543e-10 7.1787e-13 -5.3746e-12)
(4.468e-10 -7.1588e-11 1.1229e-10)
(4.0913e-10 -1.3184e-10 2.1115e-10)
(3.5516e-10 -1.6924e-10 2.7369e-10)
(2.8813e-10 -1.7689e-10 2.8854e-10)
(2.1131e-10 -1.5322e-10 2.5266e-10)
(1.2799e-10 -1.0225e-10 1.7211e-10)
(4.1617e-11 -3.3047e-11 6.1133e-11)
(-4.4204e-11 4.16e-11 -5.9945e-11)
(-1.2606e-10 1.0753e-10 -1.6847e-10)
(-2.0129e-10 1.5181e-10 -2.4341e-10)
(-2.6815e-10 1.6511e-10 -2.6918e-10)
(-3.2569e-10 1.4363e-10 -2.3895e-10)
(-3.7376e-10 9.0107e-11 -1.5674e-10)
(-4.1308e-10 1.4451e-11 -3.7401e-11)
(-4.4467e-10 -6.8616e-11 9.604e-11)
(-4.6978e-10 -1.4318e-10 2.1815e-10)
(-4.9121e-10 -1.9669e-10 3.0818e-10)
(-5.14e-10 -2.2399e-10 3.5626e-10)
(-5.4202e-10 -2.2884e-10 3.6685e-10)
(-5.7293e-10 -2.2748e-10 3.6311e-10)
(-5.9771e-10 -2.5578e-10 3.9897e-10)
(-6.0873e-10 -3.6845e-10 5.5742e-10)
(-6.0905e-10 -6.1595e-10 9.161e-10)
(-5.8576e-10 -1.042e-09 1.5441e-09)
(-4.3552e-10 -1.757e-09 2.6105e-09)
(7.669e-12 -2.9846e-09 4.4502e-09)
(7.4335e-10 -4.9322e-09 7.3704e-09)
(1.672e-09 -7.7083e-09 1.1532e-08)
(3.3658e-09 -1.1656e-08 1.7447e-08)
(7.2195e-09 -1.7734e-08 2.6544e-08)
(1.3621e-08 -2.7237e-08 4.0755e-08)
(2.1125e-08 -4.1052e-08 6.1401e-08)
(3.0336e-08 -5.9448e-08 8.8898e-08)
(4.7027e-08 -8.4047e-08 1.2573e-07)
(7.5458e-08 -1.2107e-07 1.8127e-07)
(1.0791e-07 -1.7724e-07 2.6545e-07)
(1.2673e-07 -2.4165e-07 3.6173e-07)
(1.1853e-07 -2.73e-07 4.0838e-07)
(8.3035e-08 -2.2379e-07 3.3463e-07)
(2.9651e-08 -8.7137e-08 1.3027e-07)
(5.4282e-11 1.5413e-11 -7.9922e-11)
(1.5929e-10 4.3722e-11 -2.2689e-10)
(2.5434e-10 6.4568e-11 -3.3644e-10)
(3.3479e-10 7.4121e-11 -3.8918e-10)
(3.9782e-10 7.0624e-11 -3.7551e-10)
(4.4165e-10 5.4601e-11 -2.9744e-10)
(4.6497e-10 2.8776e-11 -1.6785e-10)
(4.6706e-10 -2.3624e-12 -8.5328e-12)
(4.4832e-10 -3.3356e-11 1.5327e-10)
(4.1044e-10 -5.8684e-11 2.8953e-10)
(3.5622e-10 -7.3673e-11 3.7618e-10)
(2.8891e-10 -7.5442e-11 3.9743e-10)
(2.1182e-10 -6.364e-11 3.4895e-10)
(1.2822e-10 -4.0279e-11 2.388e-10)
(4.1546e-11 -9.5226e-12 8.6356e-11)
(-4.4551e-11 2.2826e-11 -8.0601e-11)
(-1.2662e-10 5.049e-11 -2.3095e-10)
(-2.0198e-10 6.7904e-11 -3.3566e-10)
(-2.689e-10 7.123e-11 -3.7308e-10)
(-3.2642e-10 5.9156e-11 -3.3348e-10)
(-3.7441e-10 3.3308e-11 -2.2194e-10)
(-4.1363e-10 -1.4896e-12 -5.8502e-11)
(-4.4509e-10 -3.8351e-11 1.2538e-10)
(-4.6995e-10 -7.011e-11 2.9458e-10)
(-4.9102e-10 -9.146e-11 4.2007e-10)
(-5.1358e-10 -1.0091e-10 4.8735e-10)
(-5.4186e-10 -1.0105e-10 5.0087e-10)
(-5.7349e-10 -1.0029e-10 4.9013e-10)
(-5.9886e-10 -1.1644e-10 5.267e-10)
(-6.0986e-10 -1.7639e-10 7.2245e-10)
(-6.1178e-10 -3.0399e-10 1.1808e-09)
(-5.9627e-10 -5.1785e-10 1.9901e-09)
(-4.5694e-10 -8.7052e-10 3.3729e-09)
(-1.4255e-11 -1.4749e-09 5.7785e-09)
(7.2215e-10 -2.4356e-09 9.6124e-09)
(1.604e-09 -3.8007e-09 1.5059e-08)
(3.2046e-09 -5.7349e-09 2.2765e-08)
(7.0363e-09 -8.7208e-09 3.4625e-08)
(1.3517e-08 -1.3417e-08 5.3229e-08)
(2.0943e-08 -2.0262e-08 8.0312e-08)
(2.9758e-08 -2.9342e-08 1.1626e-07)
(4.6206e-08 -4.1392e-08 1.6419e-07)
(7.5217e-08 -5.9585e-08 2.3686e-07)
(1.0892e-07 -8.7651e-08 3.4868e-07)
(1.2873e-07 -1.2045e-07 4.7853e-07)
(1.206e-07 -1.3699e-07 5.4333e-07)
(8.444e-08 -1.1275e-07 4.4676e-07)
(3.0128e-08 -4.3983e-08 1.7419e-07)
(5.4772e-11 1.1537e-13 -9.9825e-11)
(1.6068e-10 3.6039e-13 -2.8344e-10)
(2.5643e-10 5.2902e-13 -4.2031e-10)
(3.3735e-10 5.9181e-13 -4.8601e-10)
(4.007e-10 5.9216e-13 -4.6855e-10)
(4.4476e-10 5.354e-13 -3.705e-10)
(4.682e-10 4.378e-13 -2.0806e-10)
(4.7026e-10 3.2712e-13 -8.5607e-12)
(4.5128e-10 2.1327e-13 1.9388e-10)
(4.13e-10 1.2937e-13 3.6414e-10)
(3.5828e-10 1.3381e-13 4.7207e-10)
(2.9044e-10 2.3565e-13 4.9796e-10)
(2.1282e-10 3.077e-13 4.3626e-10)
(1.2866e-10 3.4182e-13 2.9712e-10)
(4.1417e-11 4.173e-13 1.0501e-10)
(-4.5219e-11 5.3053e-13 -1.0516e-10)
(-1.277e-10 6.5399e-13 -2.9421e-10)
(-2.0332e-10 7.632e-13 -4.2561e-10)
(-2.7035e-10 8.5862e-13 -4.7213e-10)
(-3.2785e-10 9.1127e-13 -4.2147e-10)
(-3.7569e-10 8.3495e-13 -2.7995e-10)
(-4.1472e-10 7.2336e-13 -7.2928e-11)
(-4.4595e-10 5.7867e-13 1.597e-10)
(-4.7034e-10 4.1873e-13 3.7316e-10)
(-4.9066e-10 2.66e-13 5.3032e-10)
(-5.1271e-10 6.4279e-14 6.124e-10)
(-5.4146e-10 -4.2643e-14 6.238e-10)
(-5.7457e-10 -1.0554e-13 5.9924e-10)
(-6.0118e-10 -2.2006e-13 6.2722e-10)
(-6.1194e-10 -4.7333e-13 8.5005e-10)
(-6.1644e-10 -9.9899e-13 1.3954e-09)
(-6.1674e-10 -1.8469e-12 2.3581e-09)
(-5.0128e-10 -3.3111e-12 4.0031e-09)
(-5.9279e-11 -5.7679e-12 6.9044e-09)
(6.8517e-10 -9.7334e-12 1.157e-08)
(1.4752e-09 -1.5497e-11 1.816e-08)
(2.8738e-09 -2.388e-11 2.739e-08)
(6.6523e-09 -3.6764e-11 4.1627e-08)
(1.3321e-08 -5.6192e-11 6.4184e-08)
(2.0621e-08 -8.296e-11 9.7206e-08)
(2.8593e-08 -1.1777e-10 1.4076e-07)
(4.4465e-08 -1.6478e-10 1.9805e-07)
(7.464e-08 -2.3511e-10 2.8562e-07)
(1.1095e-07 -3.3854e-10 4.2469e-07)
(1.3279e-07 -4.5179e-10 5.9173e-07)
(1.2476e-07 -5.0073e-10 6.8034e-07)
(8.7223e-08 -4.062e-10 5.6364e-07)
(3.1062e-08 -1.5779e-10 2.2048e-07)
(5.553e-11 -7.5353e-12 -1.1936e-10)
(1.6282e-10 -2.1195e-11 -3.3908e-10)
(2.596e-10 -3.0827e-11 -5.0297e-10)
(3.4119e-10 -3.4377e-11 -5.8152e-10)
(4.0498e-10 -3.0928e-11 -5.6036e-10)
(4.4936e-10 -2.0991e-11 -4.4269e-10)
(4.7299e-10 -6.3667e-12 -2.4793e-10)
(4.7498e-10 1.0195e-11 -8.8315e-12)
(4.5564e-10 2.5481e-11 2.3371e-10)
(4.1675e-10 3.6478e-11 4.3757e-10)
(3.6128e-10 4.0924e-11 5.6665e-10)
(2.9268e-10 3.7705e-11 5.9723e-10)
(2.1429e-10 2.7095e-11 5.2262e-10)
(1.2933e-10 1.0998e-11 3.5493e-10)
(4.1247e-11 -7.3142e-12 1.2363e-10)
(-4.6185e-11 -2.3979e-11 -1.2935e-10)
(-1.2928e-10 -3.531e-11 -3.5685e-10)
(-2.0527e-10 -3.8549e-11 -5.1495e-10)
(-2.7249e-10 -3.2414e-11 -5.7083e-10)
(-3.2997e-10 -1.7377e-11 -5.0953e-10)
(-3.7762e-10 4.1543e-12 -3.3848e-10)
(-4.1638e-10 2.8053e-11 -8.8254e-11)
(-4.4731e-10 4.9189e-11 1.9269e-10)
(-4.7104e-10 6.3013e-11 4.4973e-10)
(-4.9018e-10 6.738e-11 6.374e-10)
(-5.1135e-10 6.3872e-11 7.3261e-10)
(-5.4072e-10 5.7635e-11 7.3912e-10)
(-5.7611e-10 5.7216e-11 6.9436e-10)
(-6.0465e-10 7.9253e-11 7.0234e-10)
(-6.1438e-10 1.4916e-10 9.3901e-10)
(-6.2105e-10 2.854e-10 1.5556e-09)
(-6.4532e-10 4.9373e-10 2.6357e-09)
(-5.6969e-10 8.1638e-10 4.471e-09)
(-1.2624e-10 1.3723e-09 7.7813e-09)
(6.4754e-10 2.2683e-09 1.3193e-08)
(1.3056e-09 3.519e-09 2.0765e-08)
(2.3683e-09 5.2493e-09 3.1184e-08)
(6.0546e-09 7.9525e-09 4.7308e-08)
(1.3088e-08 1.2329e-08 7.3289e-08)
(2.0269e-08 1.8806e-08 1.1173e-07)
(2.6854e-08 2.7239e-08 1.6196e-07)
(4.1651e-08 3.7988e-08 2.2638e-07)
(7.3589e-08 5.4544e-08 3.2574e-07)
(1.1404e-07 8.236e-08 4.9168e-07)
(1.3904e-07 1.1783e-07 7.018e-07)
(1.3109e-07 1.3847e-07 8.2301e-07)
(9.136e-08 1.1618e-07 6.8974e-07)
(3.2428e-08 4.5687e-08 2.7114e-07)
(5.5129e-11 1.0071e-10 2.5627e-11)
(1.6166e-10 2.8615e-10 7.2554e-11)
(2.5783e-10 4.2473e-10 1.0685e-10)
(3.3896e-10 4.9174e-10 1.2196e-10)
(4.0241e-10 4.7515e-10 1.1485e-10)
(4.4654e-10 3.7748e-10 8.6611e-11)
(4.7002e-10 2.1483e-10 4.2106e-11)
(4.7201e-10 1.4471e-11 -1.0801e-11)
(4.5285e-10 -1.8945e-10 -6.2642e-11)
(4.1433e-10 -3.6178e-10 -1.0397e-10)
(3.5934e-10 -4.7231e-10 -1.2709e-10)
(2.9125e-10 -5.0105e-10 -1.2733e-10)
(2.1338e-10 -4.4211e-10 -1.0425e-10)
(1.2896e-10 -3.0525e-10 -6.1784e-11)
(4.1424e-11 -1.1453e-10 -7.8758e-12)
(-4.5486e-11 9.5434e-11 4.7046e-11)
(-1.2819e-10 2.8559e-10 9.2e-11)
(-2.0397e-10 4.1937e-10 1.1761e-10)
(-2.7112e-10 4.6944e-10 1.178e-10)
(-3.2868e-10 4.2304e-10 9.1168e-11)
(-3.7652e-10 2.8581e-10 4.1571e-11)
(-4.155e-10 8.2533e-11 -2.1766e-11)
(-4.4667e-10 -1.4744e-10 -8.606e-11)
(-4.7086e-10 -3.5976e-10 -1.3837e-10)
(-4.9074e-10 -5.1752e-10 -1.6986e-10)
(-5.1239e-10 -6.0188e-10 -1.7932e-10)
(-5.4121e-10 -6.1634e-10 -1.7348e-10)
(-5.7492e-10 -5.9359e-10 -1.6849e-10)
(-6.0204e-10 -6.2028e-10 -1.989e-10)
(-6.1244e-10 -8.391e-10 -3.1852e-10)
(-6.1781e-10 -1.3764e-09 -5.713e-10)
(-6.2663e-10 -2.3173e-09 -9.8087e-10)
(-5.2548e-10 -3.9188e-09 -1.6401e-09)
(-8.2905e-11 -6.7666e-09 -2.783e-09)
(6.7348e-10 -1.1377e-08 -4.6233e-09)
(1.4193e-09 -1.7865e-08 -7.213e-09)
(2.6991e-09 -2.6894e-08 -1.0826e-08)
(6.4441e-09 -4.084e-08 -1.6434e-08)
(1.3249e-08 -6.3079e-08 -2.541e-08)