/*--------------------------------*- C++ -*----------------------------------*\
| =========                 |                                                 |
| \\      /  F ield         | OpenFOAM: The Open Source CFD Toolbox           |
|  \\    /   O peration     | Version:  4.1                                   |
|   \\  /    A nd           | Web:      www.OpenFOAM.org                      |
|    \\/     M anipulation  |                                                 |
\*---------------------------------------------------------------------------*/
FoamFile
{
    version     2.0;
    format      ascii;
    class       pointVectorField;
    location    "0.0097";
    object      pointDisplacement_Next;
}
// * * * * * * * * * * * * * * * * * * * * * * * * * * * * * * * * * * * * * //

dimensions      [0 1 0 0 0 0 0];

internalField   uniform (0 0 0);

boundaryField
{
    inlet
    {
        type            fixedValue;
        value           nonuniform 0();
    }
    outlet
    {
        type            fixedValue;
        value           nonuniform 0();
    }
    mantle
    {
        type            fixedValue;
        value           nonuniform List<vector> 
416
(
(4.0943e-05 2.7174e-06 1.1419e-10)
(4.3405e-05 1.247e-06 1.784e-10)
(4.3401e-05 1.2566e-06 -2.5283e-07)
(4.095e-05 2.6709e-06 -5.1833e-07)
(4.3408e-05 1.2504e-06 -5.2022e-07)
(4.0964e-05 2.5461e-06 -1.045e-06)
(4.3424e-05 1.1826e-06 -7.9241e-07)
(4.0974e-05 2.3363e-06 -1.5649e-06)
(4.3437e-05 1.0256e-06 -1.0252e-06)
(4.0978e-05 2.0152e-06 -2.0151e-06)
(4.3424e-05 7.9215e-07 -1.1814e-06)
(4.0974e-05 1.5645e-06 -2.3352e-06)
(4.3408e-05 5.1978e-07 -1.2484e-06)
(4.0965e-05 1.0443e-06 -2.5443e-06)
(4.3401e-05 2.526e-07 -1.2542e-06)
(4.095e-05 5.1788e-07 -2.6685e-06)
(4.3405e-05 -3.8115e-11 -1.2445e-06)
(4.0943e-05 -1.8402e-10 -2.7151e-06)
(4.5896e-05 3.2018e-07 3.2457e-10)
(4.5888e-05 3.6357e-07 -7.6455e-08)
(4.5884e-05 4.2965e-07 -1.8337e-07)
(4.5906e-05 4.609e-07 -3.1472e-07)
(4.5922e-05 4.1722e-07 -4.1673e-07)
(4.5906e-05 3.147e-07 -4.5964e-07)
(4.5884e-05 1.8319e-07 -4.2761e-07)
(4.5888e-05 7.6454e-08 -3.6097e-07)
(4.5897e-05 3.7668e-11 -3.1744e-07)
(4.8407e-05 4.076e-07 4.436e-10)
(4.839e-05 4.2648e-07 -6.6934e-08)
(4.8377e-05 4.7643e-07 -1.8834e-07)
(4.8393e-05 5.3073e-07 -3.67e-07)
(4.8412e-05 5.0753e-07 -5.0689e-07)
(4.8393e-05 3.6719e-07 -5.294e-07)
(4.8377e-05 1.8839e-07 -4.7439e-07)
(4.839e-05 6.7156e-08 -4.239e-07)
(4.8407e-05 1.2924e-10 -4.0481e-07)
(5.091e-05 1.6878e-06 5.4798e-10)
(5.0892e-05 1.6571e-06 -2.9204e-07)
(5.0872e-05 1.6043e-06 -6.3746e-07)
(5.0874e-05 1.5631e-06 -1.0582e-06)
(5.0886e-05 1.4097e-06 -1.409e-06)
(5.0875e-05 1.0586e-06 -1.5617e-06)
(5.0872e-05 6.3772e-07 -1.6024e-06)
(5.0892e-05 2.9246e-07 -1.6547e-06)
(5.091e-05 1.964e-10 -1.6851e-06)
(5.3392e-05 4.1572e-06 5.9995e-10)
(5.3369e-05 4.0887e-06 -7.908e-07)
(5.3338e-05 3.8924e-06 -1.5979e-06)
(5.3328e-05 3.5764e-06 -2.3984e-06)
(5.3334e-05 3.0863e-06 -3.0855e-06)
(5.3328e-05 2.3989e-06 -3.5751e-06)
(5.3339e-05 1.5984e-06 -3.8907e-06)
(5.3369e-05 7.9137e-07 -4.0866e-06)
(5.3392e-05 2.5325e-10 -4.1548e-06)
(5.584e-05 7.7083e-06 6.2871e-10)
(5.5819e-05 7.5777e-06 -1.5091e-06)
(5.5776e-05 7.1627e-06 -2.973e-06)
(5.5765e-05 6.4573e-06 -4.3217e-06)
(5.5757e-05 5.4977e-06 -5.4969e-06)
(5.5765e-05 4.3222e-06 -6.4562e-06)
(5.5776e-05 2.9735e-06 -7.1612e-06)
(5.5819e-05 1.5097e-06 -7.5759e-06)
(5.584e-05 2.3645e-10 -7.7063e-06)
(5.8217e-05 1.2044e-05 7.7945e-10)
(5.8183e-05 1.1808e-05 -2.3617e-06)
(5.8136e-05 1.1098e-05 -4.6141e-06)
(5.8126e-05 9.9547e-06 -6.6598e-06)
(5.8136e-05 8.4497e-06 -8.4494e-06)
(5.8126e-05 6.6603e-06 -9.9539e-06)
(5.8136e-05 4.6147e-06 -1.1097e-05)
(5.8183e-05 2.3623e-06 -1.1806e-05)
(5.8218e-05 -2.0293e-11 -1.2042e-05)
(6.0418e-05 1.6606e-05 5.0962e-10)
(6.0379e-05 1.6248e-05 -3.2351e-06)
(6.0332e-05 1.5219e-05 -6.3194e-06)
(6.0329e-05 1.3624e-05 -9.1155e-06)
(6.0348e-05 1.1562e-05 -1.1561e-05)
(6.033e-05 9.1159e-06 -1.3624e-05)
(6.0333e-05 6.3198e-06 -1.5219e-05)
(6.0379e-05 3.2356e-06 -1.6247e-05)
(6.0418e-05 5.2221e-11 -1.6605e-05)
(6.2362e-05 2.07e-05 3.5738e-10)
(6.233e-05 2.0215e-05 -3.9958e-06)
(6.2291e-05 1.8887e-05 -7.8169e-06)
(6.2287e-05 1.6903e-05 -1.1309e-05)
(6.2301e-05 1.4365e-05 -1.4364e-05)
(6.2287e-05 1.1309e-05 -1.6903e-05)
(6.2291e-05 7.8171e-06 -1.8887e-05)
(6.233e-05 3.9961e-06 -2.0215e-05)
(6.2362e-05 -4.6267e-11 -2.07e-05)
(6.4114e-05 2.3593e-05 2.774e-10)
(6.4098e-05 2.3006e-05 -4.5422e-06)
(6.4066e-05 2.1468e-05 -8.8782e-06)
(6.4066e-05 1.92e-05 -1.2849e-05)
(6.4065e-05 1.6335e-05 -1.6335e-05)
(6.4066e-05 1.2849e-05 -1.9201e-05)
(6.4067e-05 8.8782e-06 -2.1468e-05)
(6.4099e-05 4.5422e-06 -2.3006e-05)
(6.4115e-05 -2.7055e-10 -2.3593e-05)
(6.5769e-05 2.4713e-05 -3.0472e-11)
(6.5757e-05 2.4145e-05 -4.8033e-06)
(6.5742e-05 2.2552e-05 -9.3566e-06)
(6.5738e-05 2.0139e-05 -1.3471e-05)
(6.5742e-05 1.7078e-05 -1.7079e-05)
(6.5738e-05 1.3471e-05 -2.014e-05)
(6.5742e-05 9.3564e-06 -2.2553e-05)
(6.5757e-05 4.803e-06 -2.4146e-05)
(6.577e-05 -3.0744e-10 -2.4714e-05)
(6.7346e-05 2.4246e-05 -1.3397e-11)
(6.7345e-05 2.3725e-05 -4.7554e-06)
(6.7344e-05 2.2187e-05 -9.2334e-06)
(6.7343e-05 1.9774e-05 -1.3219e-05)
(6.7345e-05 1.6718e-05 -1.6718e-05)
(6.7343e-05 1.3218e-05 -1.9775e-05)
(6.7345e-05 9.2329e-06 -2.2188e-05)
(6.7345e-05 4.7548e-06 -2.3726e-05)
(6.7347e-05 -6.7444e-10 -2.4247e-05)
(4.3401e-05 -2.5275e-07 -1.2542e-06)
(4.095e-05 -5.1828e-07 -2.6687e-06)
(4.3408e-05 -5.1994e-07 -1.2484e-06)
(4.0964e-05 -1.0448e-06 -2.5445e-06)
(4.3424e-05 -7.9229e-07 -1.1814e-06)
(4.0974e-05 -1.5649e-06 -2.3354e-06)
(4.3437e-05 -1.0257e-06 -1.0251e-06)
(4.0978e-05 -2.0156e-06 -2.0151e-06)
(4.3424e-05 -1.1825e-06 -7.9224e-07)
(4.0974e-05 -2.3365e-06 -1.5649e-06)
(4.3408e-05 -1.2502e-06 -5.2005e-07)
(4.0965e-05 -2.5461e-06 -1.0449e-06)
(4.3401e-05 -1.2565e-06 -2.5271e-07)
(4.095e-05 -2.6708e-06 -5.1827e-07)
(4.3405e-05 -1.247e-06 2.6178e-10)
(4.0944e-05 -2.7174e-06 1.2211e-10)
(4.5888e-05 -7.6357e-08 -3.6082e-07)
(4.5884e-05 -1.8304e-07 -4.2733e-07)
(4.5906e-05 -3.1446e-07 -4.5929e-07)
(4.5922e-05 -4.1689e-07 -4.1635e-07)
(4.5906e-05 -4.6049e-07 -3.1437e-07)
(4.5884e-05 -4.2921e-07 -1.8308e-07)
(4.5888e-05 -3.6322e-07 -7.6237e-08)
(4.5897e-05 -3.2005e-07 4.9687e-10)
(4.839e-05 -6.6834e-08 -4.2357e-07)
(4.8377e-05 -1.8792e-07 -4.7379e-07)
(4.8393e-05 -3.6655e-07 -5.2867e-07)
(4.8412e-05 -5.0677e-07 -5.0615e-07)
(4.8393e-05 -5.299e-07 -3.6638e-07)
(4.8377e-05 -4.7566e-07 -1.8787e-07)
(4.839e-05 -4.2591e-07 -6.6604e-08)
(4.8407e-05 -4.0733e-07 7.0148e-10)
(5.0892e-05 -2.9197e-07 -1.6542e-06)
(5.0872e-05 -6.3701e-07 -1.6015e-06)
(5.0875e-05 -1.0576e-06 -1.5607e-06)
(5.0886e-05 -1.4086e-06 -1.4079e-06)
(5.0875e-05 -1.5619e-06 -1.0574e-06)
(5.0872e-05 -1.6033e-06 -6.3684e-07)
(5.0892e-05 -1.6564e-06 -2.9161e-07)
(5.091e-05 -1.6874e-06 8.7837e-10)
(5.3369e-05 -7.9078e-07 -4.086e-06)
(5.3339e-05 -1.5975e-06 -3.8897e-06)
(5.3328e-05 -2.3978e-06 -3.5739e-06)
(5.3334e-05 -3.085e-06 -3.0843e-06)
(5.3328e-05 -3.575e-06 -2.3974e-06)
(5.3339e-05 -3.8913e-06 -1.5972e-06)
(5.3369e-05 -4.0879e-06 -7.9028e-07)
(5.3393e-05 -4.1568e-06 9.8511e-10)
(5.5819e-05 -1.5092e-06 -7.5753e-06)
(5.5776e-05 -2.9727e-06 -7.1601e-06)
(5.5765e-05 -4.3211e-06 -6.4549e-06)
(5.5758e-05 -5.4964e-06 -5.4956e-06)
(5.5765e-05 -6.4559e-06 -4.3206e-06)
(5.5776e-05 -7.1614e-06 -2.9722e-06)
(5.5819e-05 -7.5768e-06 -1.5085e-06)
(5.5841e-05 -7.7078e-06 1.0394e-09)
(5.8183e-05 -2.3619e-06 -1.1806e-05)
(5.8136e-05 -4.6139e-06 -1.1096e-05)
(5.8126e-05 -6.6593e-06 -9.9525e-06)
(5.8137e-05 -8.4484e-06 -8.448e-06)
(5.8127e-05 -9.9533e-06 -6.6586e-06)
(5.8137e-05 -1.1097e-05 -4.6133e-06)
(5.8184e-05 -1.1807e-05 -2.3611e-06)
(5.8218e-05 -1.2043e-05 1.1851e-09)
(6.038e-05 -3.2354e-06 -1.6247e-05)
(6.0333e-05 -6.3193e-06 -1.5217e-05)
(6.033e-05 -9.115e-06 -1.3622e-05)
(6.0348e-05 -1.1561e-05 -1.156e-05)
(6.033e-05 -1.3623e-05 -9.1144e-06)
(6.0333e-05 -1.5218e-05 -6.3185e-06)
(6.038e-05 -1.6247e-05 -3.2346e-06)
(6.0419e-05 -1.6606e-05 8.8729e-10)
(6.233e-05 -3.9962e-06 -2.0214e-05)
(6.2291e-05 -7.8169e-06 -1.8886e-05)
(6.2288e-05 -1.1309e-05 -1.6902e-05)
(6.2302e-05 -1.4364e-05 -1.4363e-05)
(6.2288e-05 -1.6902e-05 -1.1308e-05)
(6.2292e-05 -1.8886e-05 -7.8161e-06)
(6.2331e-05 -2.0214e-05 -3.9953e-06)
(6.2363e-05 -2.07e-05 6.8296e-10)
(6.4099e-05 -4.5427e-06 -2.3006e-05)
(6.4067e-05 -8.8783e-06 -2.1467e-05)
(6.4067e-05 -1.2849e-05 -1.9199e-05)
(6.4066e-05 -1.6334e-05 -1.6333e-05)
(6.4067e-05 -1.92e-05 -1.2848e-05)
(6.4068e-05 -2.1467e-05 -8.8774e-06)
(6.4099e-05 -2.3005e-05 -4.5417e-06)
(6.4116e-05 -2.3593e-05 5.5507e-10)
(6.5758e-05 -4.8039e-06 -2.4145e-05)
(6.5743e-05 -9.3569e-06 -2.2552e-05)
(6.5739e-05 -1.3471e-05 -2.0139e-05)
(6.5743e-05 -1.7078e-05 -1.7078e-05)
(6.5739e-05 -2.0139e-05 -1.347e-05)
(6.5743e-05 -2.2552e-05 -9.3559e-06)
(6.5758e-05 -2.4145e-05 -4.8029e-06)
(6.577e-05 -2.4714e-05 5.4583e-10)
(6.7345e-05 -4.756e-06 -2.3726e-05)
(6.7345e-05 -9.2339e-06 -2.2187e-05)
(6.7344e-05 -1.3219e-05 -1.9774e-05)
(6.7346e-05 -1.6718e-05 -1.6717e-05)
(6.7344e-05 -1.9774e-05 -1.3218e-05)
(6.7345e-05 -2.2187e-05 -9.2328e-06)
(6.7346e-05 -2.3726e-05 -4.7549e-06)
(6.7347e-05 -2.4246e-05 2.2483e-10)
(4.3402e-05 -1.2565e-06 2.533e-07)
(4.095e-05 -2.6706e-06 5.1849e-07)
(4.3408e-05 -1.2503e-06 5.207e-07)
(4.0965e-05 -2.546e-06 1.0451e-06)
(4.3425e-05 -1.1829e-06 7.9309e-07)
(4.0975e-05 -2.3365e-06 1.5652e-06)
(4.3438e-05 -1.0263e-06 1.0264e-06)
(4.0979e-05 -2.0158e-06 2.0157e-06)
(4.3425e-05 -7.931e-07 1.1832e-06)
(4.0975e-05 -1.5654e-06 2.3365e-06)
(4.3409e-05 -5.2072e-07 1.2509e-06)
(4.0965e-05 -1.0453e-06 2.5461e-06)
(4.3402e-05 -2.5324e-07 1.2571e-06)
(4.095e-05 -5.1861e-07 2.6707e-06)
(4.3405e-05 -1.899e-10 1.2474e-06)
(4.0944e-05 -1.9853e-10 2.7172e-06)
(4.5889e-05 -3.6341e-07 7.7261e-08)
(4.5885e-05 -4.2966e-07 1.8424e-07)
(4.5906e-05 -4.6127e-07 3.1585e-07)
(4.5922e-05 -4.1797e-07 4.1836e-07)
(4.5906e-05 -3.1566e-07 4.6198e-07)
(4.5885e-05 -1.8408e-07 4.3067e-07)
(4.5889e-05 -7.7009e-08 3.6454e-07)
(4.5897e-05 -1.2368e-10 3.2111e-07)
(4.839e-05 -4.2626e-07 6.806e-08)
(4.8377e-05 -4.764e-07 1.8954e-07)
(4.8394e-05 -5.3107e-07 3.6848e-07)
(4.8412e-05 -5.0827e-07 5.0889e-07)
(4.8394e-05 -3.6811e-07 5.3211e-07)
(4.8377e-05 -1.8923e-07 4.7782e-07)
(4.839e-05 -6.764e-08 4.2785e-07)
(4.8407e-05 -1.0977e-10 4.0891e-07)
(5.0892e-05 -1.6568e-06 2.9342e-07)
(5.0872e-05 -1.6042e-06 6.3889e-07)
(5.0875e-05 -1.5633e-06 1.0599e-06)
(5.0886e-05 -1.4103e-06 1.4112e-06)
(5.0875e-05 -1.0594e-06 1.5646e-06)
(5.0872e-05 -6.3846e-07 1.6059e-06)
(5.0892e-05 -2.9286e-07 1.6588e-06)
(5.091e-05 -1.0753e-10 1.6894e-06)
(5.337e-05 -4.0884e-06 7.9233e-07)
(5.3339e-05 -3.8922e-06 1.5995e-06)
(5.3329e-05 -3.5764e-06 2.4001e-06)
(5.3334e-05 -3.0867e-06 3.0876e-06)
(5.3329e-05 -2.3995e-06 3.5778e-06)
(5.3339e-05 -1.5989e-06 3.8941e-06)
(5.3369e-05 -7.9168e-07 4.0905e-06)
(5.3392e-05 -1.0746e-10 4.159e-06)
(5.5819e-05 -7.5772e-06 1.5107e-06)
(5.5777e-05 -7.1623e-06 2.9745e-06)
(5.5765e-05 -6.4572e-06 4.3233e-06)
(5.5758e-05 -5.4978e-06 5.4988e-06)
(5.5765e-05 -4.3226e-06 6.4587e-06)
(5.5776e-05 -2.974e-06 7.1643e-06)
(5.5819e-05 -1.51e-06 7.5795e-06)
(5.5841e-05 -1.4992e-10 7.7102e-06)
(5.8184e-05 -1.1807e-05 2.3632e-06)
(5.8137e-05 -1.1098e-05 4.6155e-06)
(5.8127e-05 -9.9544e-06 6.6611e-06)
(5.8137e-05 -8.4497e-06 8.4509e-06)
(5.8127e-05 -6.6606e-06 9.9559e-06)
(5.8137e-05 -4.615e-06 1.11e-05)
(5.8183e-05 -2.3626e-06 1.181e-05)
(5.8218e-05 -2.6933e-11 1.2046e-05)
(6.038e-05 -1.6248e-05 3.2364e-06)
(6.0334e-05 -1.5219e-05 6.3205e-06)
(6.033e-05 -1.3624e-05 9.1166e-06)
(6.0349e-05 -1.1562e-05 1.1563e-05)
(6.033e-05 -9.1162e-06 1.3625e-05)
(6.0333e-05 -6.3202e-06 1.5221e-05)
(6.038e-05 -3.236e-06 1.625e-05)
(6.0418e-05 -3.0779e-10 1.6608e-05)
(6.2331e-05 -2.0215e-05 3.9968e-06)
(6.2292e-05 -1.8887e-05 7.8178e-06)
(6.2288e-05 -1.6903e-05 1.131e-05)
(6.2302e-05 -1.4365e-05 1.4365e-05)
(6.2288e-05 -1.131e-05 1.6904e-05)
(6.2291e-05 -7.8177e-06 1.8889e-05)
(6.233e-05 -3.9967e-06 2.0216e-05)
(6.2362e-05 -3.6524e-10 2.0702e-05)
(6.4099e-05 -2.3006e-05 4.5429e-06)
(6.4068e-05 -2.1468e-05 8.8788e-06)
(6.4067e-05 -1.9201e-05 1.285e-05)
(6.4066e-05 -1.6335e-05 1.6335e-05)
(6.4067e-05 -1.285e-05 1.9201e-05)
(6.4067e-05 -8.8789e-06 2.1469e-05)
(6.4099e-05 -4.543e-06 2.3007e-05)
(6.4115e-05 -5.4444e-10 2.3594e-05)
(6.5758e-05 -2.4145e-05 4.8037e-06)
(6.5743e-05 -2.2553e-05 9.357e-06)
(6.5739e-05 -2.014e-05 1.3471e-05)
(6.5743e-05 -1.7079e-05 1.7079e-05)
(6.5739e-05 -1.3472e-05 2.014e-05)
(6.5743e-05 -9.3574e-06 2.2553e-05)
(6.5757e-05 -4.8041e-06 2.4146e-05)
(6.5769e-05 -5.4716e-10 2.4714e-05)
(6.7346e-05 -2.3726e-05 4.7555e-06)
(6.7345e-05 -2.2188e-05 9.2336e-06)
(6.7344e-05 -1.9775e-05 1.3219e-05)
(6.7346e-05 -1.6719e-05 1.6719e-05)
(6.7344e-05 -1.322e-05 1.9775e-05)
(6.7345e-05 -9.2343e-06 2.2188e-05)
(6.7345e-05 -4.7562e-06 2.3726e-05)
(6.7347e-05 -8.8276e-10 2.4246e-05)
(4.3402e-05 2.5285e-07 1.2566e-06)
(4.095e-05 5.1814e-07 2.6703e-06)
(4.3408e-05 5.2014e-07 1.2501e-06)
(4.0965e-05 1.0447e-06 2.5454e-06)
(4.3424e-05 7.9233e-07 1.1824e-06)
(4.0974e-05 1.5645e-06 2.3357e-06)
(4.3437e-05 1.0254e-06 1.0257e-06)
(4.0978e-05 2.0149e-06 2.0151e-06)
(4.3424e-05 1.1821e-06 7.9264e-07)
(4.0974e-05 2.3356e-06 1.5648e-06)
(4.3408e-05 1.2498e-06 5.2047e-07)
(4.0964e-05 2.5454e-06 1.045e-06)
(4.3401e-05 1.2563e-06 2.532e-07)
(4.095e-05 2.6704e-06 5.1848e-07)
(4.5889e-05 7.6681e-08 3.6408e-07)
(4.5885e-05 1.8357e-07 4.299e-07)
(4.5906e-05 3.1495e-07 4.6114e-07)
(4.5922e-05 4.1718e-07 4.1763e-07)
(4.5906e-05 4.6057e-07 3.1533e-07)
(4.5884e-05 4.292e-07 1.8392e-07)
(4.5888e-05 3.6325e-07 7.7062e-08)
(4.839e-05 6.7339e-08 4.2739e-07)
(4.8377e-05 1.8874e-07 4.7705e-07)
(4.8393e-05 3.6745e-07 5.3126e-07)
(4.8412e-05 5.0753e-07 5.0814e-07)
(4.8393e-05 5.3045e-07 3.6791e-07)
(4.8377e-05 4.7603e-07 1.8915e-07)
(4.839e-05 4.262e-07 6.7783e-08)
(5.0892e-05 2.9257e-07 1.6583e-06)
(5.0872e-05 6.3799e-07 1.6052e-06)
(5.0875e-05 1.0588e-06 1.5637e-06)
(5.0886e-05 1.4097e-06 1.4104e-06)
(5.0874e-05 1.5627e-06 1.0593e-06)
(5.0872e-05 1.6039e-06 6.3846e-07)
(5.0892e-05 1.6569e-06 2.9309e-07)
(5.3369e-05 7.9137e-07 4.0901e-06)
(5.3339e-05 1.5985e-06 3.8934e-06)
(5.3328e-05 2.3989e-06 3.5771e-06)
(5.3334e-05 3.0861e-06 3.0869e-06)
(5.3328e-05 3.5759e-06 2.3996e-06)
(5.3338e-05 3.892e-06 1.599e-06)
(5.3369e-05 4.0884e-06 7.9197e-07)
(5.5819e-05 1.5096e-06 7.5792e-06)
(5.5776e-05 2.9735e-06 7.1637e-06)
(5.5765e-05 4.322e-06 6.458e-06)
(5.5757e-05 5.4972e-06 5.4982e-06)
(5.5765e-05 6.4567e-06 4.3228e-06)
(5.5776e-05 7.1621e-06 2.9741e-06)
(5.5819e-05 7.5773e-06 1.5103e-06)
(5.8183e-05 2.3622e-06 1.1809e-05)
(5.8136e-05 4.6145e-06 1.1099e-05)
(5.8126e-05 6.6599e-06 9.9553e-06)
(5.8136e-05 8.4491e-06 8.4504e-06)
(5.8126e-05 9.954e-06 6.6607e-06)
(5.8136e-05 1.1098e-05 4.6151e-06)
(5.8183e-05 1.1807e-05 2.3629e-06)
(6.0379e-05 3.2354e-06 1.625e-05)
(6.0333e-05 6.3195e-06 1.522e-05)
(6.033e-05 9.1154e-06 1.3625e-05)
(6.0348e-05 1.1561e-05 1.1562e-05)
(6.033e-05 1.3624e-05 9.1162e-06)
(6.0333e-05 1.5219e-05 6.3202e-06)
(6.0379e-05 1.6248e-05 3.2361e-06)
(6.233e-05 3.9958e-06 2.0216e-05)
(6.2291e-05 7.8167e-06 1.8888e-05)
(6.2287e-05 1.1309e-05 1.6904e-05)
(6.2301e-05 1.4364e-05 1.4365e-05)
(6.2287e-05 1.6902e-05 1.131e-05)
(6.2291e-05 1.8887e-05 7.8175e-06)
(6.233e-05 2.0215e-05 3.9966e-06)
(6.4099e-05 4.5419e-06 2.3007e-05)
(6.4067e-05 8.8776e-06 2.1468e-05)
(6.4066e-05 1.2848e-05 1.9201e-05)
(6.4065e-05 1.6334e-05 1.6335e-05)
(6.4066e-05 1.92e-05 1.2849e-05)
(6.4067e-05 2.1467e-05 8.8785e-06)
(6.4098e-05 2.3005e-05 4.5427e-06)
(6.5757e-05 4.8026e-06 2.4145e-05)
(6.5742e-05 9.3557e-06 2.2553e-05)
(6.5738e-05 1.347e-05 2.0139e-05)
(6.5742e-05 1.7077e-05 1.7078e-05)
(6.5738e-05 2.0138e-05 1.3471e-05)
(6.5742e-05 2.2552e-05 9.3567e-06)
(6.5757e-05 2.4145e-05 4.8036e-06)
(6.7345e-05 4.7543e-06 2.3725e-05)
(6.7344e-05 9.2322e-06 2.2187e-05)
(6.7343e-05 1.3217e-05 1.9774e-05)
(6.7345e-05 1.6717e-05 1.6718e-05)
(6.7343e-05 1.9773e-05 1.3218e-05)
(6.7344e-05 2.2186e-05 9.2333e-06)
(6.7345e-05 2.3725e-05 4.7553e-06)
)
;
    }
    procBoundary1to0
    {
        type            processor;
    }
    procBoundary1to2
    {
        type            processor;
    }
}


// ************************************************************************* //
