# Wall shear stress
# Time         	patch          	min            	max            
5.40000000e-04	mantle	(-5.13965339e-01 -2.25126180e-02 -3.38589969e-02)	(-1.50895695e-01 2.25607317e-02 3.38473802e-02)
