/*--------------------------------*- C++ -*----------------------------------*\
| =========                 |                                                 |
| \\      /  F ield         | OpenFOAM: The Open Source CFD Toolbox           |
|  \\    /   O peration     | Version:  4.1                                   |
|   \\  /    A nd           | Web:      www.OpenFOAM.org                      |
|    \\/     M anipulation  |                                                 |
\*---------------------------------------------------------------------------*/
FoamFile
{
    version     2.0;
    format      ascii;
    class       pointVectorField;
    location    "0.0086";
    object      pointDisplacement_Next;
}
// * * * * * * * * * * * * * * * * * * * * * * * * * * * * * * * * * * * * * //

dimensions      [0 1 0 0 0 0 0];

internalField   uniform (0 0 0);

boundaryField
{
    inlet
    {
        type            fixedValue;
        value           nonuniform 0();
    }
    outlet
    {
        type            fixedValue;
        value           nonuniform 0();
    }
    mantle
    {
        type            fixedValue;
        value           nonuniform List<vector> 
416
(
(5.6086e-05 -5.3984e-07 1.1529e-10)
(5.9962e-05 2.0264e-06 4.0609e-11)
(5.9936e-05 1.9795e-06 -3.7094e-07)
(5.6066e-05 -5.4974e-07 1.464e-07)
(5.99e-05 1.8638e-06 -7.597e-07)
(5.6042e-05 -5.159e-07 2.3281e-07)
(5.9885e-05 1.7122e-06 -1.1552e-06)
(5.6038e-05 -3.6648e-07 2.2179e-07)
(5.9888e-05 1.488e-06 -1.4881e-06)
(5.6047e-05 -2.3321e-07 2.3306e-07)
(5.9884e-05 1.155e-06 -1.7122e-06)
(5.6038e-05 -2.2206e-07 3.6654e-07)
(5.99e-05 7.5951e-07 -1.8637e-06)
(5.6042e-05 -2.3308e-07 5.1615e-07)
(5.9935e-05 3.7086e-07 -1.9794e-06)
(5.6066e-05 -1.4654e-07 5.5e-07)
(5.9961e-05 -5.0391e-12 -2.0265e-06)
(5.6086e-05 -1.3647e-10 5.3993e-07)
(6.3788e-05 5.655e-06 1.5836e-10)
(6.3763e-05 5.5519e-06 -1.1112e-06)
(6.3717e-05 5.2139e-06 -2.165e-06)
(6.3697e-05 4.6518e-06 -3.1066e-06)
(6.3689e-05 3.9308e-06 -3.9309e-06)
(6.3696e-05 3.1065e-06 -4.6518e-06)
(6.3717e-05 2.1649e-06 -5.2138e-06)
(6.3763e-05 1.1113e-06 -5.5519e-06)
(6.3787e-05 -2.1104e-11 -5.6552e-06)
(6.7499e-05 9.9596e-06 4.2306e-10)
(6.7463e-05 9.7534e-06 -1.9671e-06)
(6.7414e-05 9.1226e-06 -3.8023e-06)
(6.7401e-05 8.1113e-06 -5.4189e-06)
(6.741e-05 6.8429e-06 -6.8426e-06)
(6.7401e-05 5.419e-06 -8.1112e-06)
(6.7413e-05 3.8024e-06 -9.1225e-06)
(6.7463e-05 1.9673e-06 -9.7534e-06)
(6.7498e-05 -1.2006e-10 -9.9599e-06)
(7.0948e-05 1.4253e-05 4.2186e-10)
(7.091e-05 1.3932e-05 -2.7943e-06)
(7.0868e-05 1.2999e-05 -5.4144e-06)
(7.0865e-05 1.1554e-05 -7.725e-06)
(7.0883e-05 9.7564e-06 -9.7561e-06)
(7.0864e-05 7.7253e-06 -1.1554e-05)
(7.0868e-05 5.4148e-06 -1.2999e-05)
(7.091e-05 2.7947e-06 -1.3932e-05)
(7.0947e-05 9.5496e-11 -1.4253e-05)
(7.4033e-05 1.7697e-05 1.0951e-09)
(7.4005e-05 1.7252e-05 -3.4152e-06)
(7.3975e-05 1.6053e-05 -6.6484e-06)
(7.3975e-05 1.4297e-05 -9.5629e-06)
(7.399e-05 1.212e-05 -1.2119e-05)
(7.3975e-05 9.5635e-06 -1.4296e-05)
(7.3975e-05 6.6491e-06 -1.6052e-05)
(7.4005e-05 3.416e-06 -1.7252e-05)
(7.4032e-05 -3.5032e-10 -1.7697e-05)
(7.6842e-05 1.9449e-05 8.3735e-10)
(7.6834e-05 1.892e-05 -3.7292e-06)
(7.6815e-05 1.7584e-05 -7.268e-06)
(7.6821e-05 1.5665e-05 -1.048e-05)
(7.6818e-05 1.3314e-05 -1.3313e-05)
(7.682e-05 1.0481e-05 -1.5664e-05)
(7.6815e-05 7.269e-06 -1.7584e-05)
(7.6833e-05 3.7302e-06 -1.892e-05)
(7.6841e-05 1.5037e-10 -1.9449e-05)
(7.9496e-05 1.8899e-05 1.0568e-09)
(7.9493e-05 1.8442e-05 -3.6721e-06)
(7.9493e-05 1.7169e-05 -7.1216e-06)
(7.9492e-05 1.5266e-05 -1.0201e-05)
(7.9495e-05 1.2912e-05 -1.2911e-05)
(7.9492e-05 1.0202e-05 -1.5265e-05)
(7.9492e-05 7.1229e-06 -1.7168e-05)
(7.9492e-05 3.6734e-06 -1.8441e-05)
(7.9495e-05 1.7365e-10 -1.8899e-05)
(8.2017e-05 1.6383e-05 1.2523e-09)
(8.2027e-05 1.6035e-05 -3.238e-06)
(8.2044e-05 1.4963e-05 -6.2406e-06)
(8.2043e-05 1.3251e-05 -8.8426e-06)
(8.204e-05 1.1141e-05 -1.114e-05)
(8.2043e-05 8.8441e-06 -1.3249e-05)
(8.2044e-05 6.2422e-06 -1.4962e-05)
(8.2026e-05 3.2396e-06 -1.6034e-05)
(8.2016e-05 1.9289e-10 -1.6382e-05)
(8.436e-05 1.2364e-05 1.4758e-09)
(8.436e-05 1.2077e-05 -2.431e-06)
(8.4373e-05 1.1239e-05 -4.6771e-06)
(8.4391e-05 9.9324e-06 -6.6274e-06)
(8.4404e-05 8.357e-06 -8.3555e-06)
(8.4391e-05 6.6291e-06 -9.931e-06)
(8.4373e-05 4.6789e-06 -1.1237e-05)
(8.4359e-05 2.4327e-06 -1.2076e-05)
(8.4359e-05 1.2768e-10 -1.2363e-05)
(8.6365e-05 6.966e-06 1.474e-09)
(8.6366e-05 6.7743e-06 -1.3558e-06)
(8.6375e-05 6.257e-06 -2.5833e-06)
(8.6406e-05 5.4876e-06 -3.6511e-06)
(8.6421e-05 4.6079e-06 -4.6062e-06)
(8.6406e-05 3.6529e-06 -5.4861e-06)
(8.6374e-05 2.5852e-06 -6.2556e-06)
(8.6366e-05 1.3576e-06 -6.7731e-06)
(8.6365e-05 2.1836e-10 -6.9649e-06)
(8.7864e-05 2.1114e-07 1.137e-09)
(8.7874e-05 1.8794e-07 -5.2864e-08)
(8.7899e-05 1.0339e-07 -4.1373e-08)
(8.7909e-05 -2.4236e-08 4.1322e-08)
(8.7914e-05 -9.0994e-08 9.2301e-08)
(8.7909e-05 -3.9467e-08 2.5861e-08)
(8.7899e-05 4.324e-08 -1.0194e-07)
(8.7874e-05 5.4676e-08 -1.8666e-07)
(8.7864e-05 5.7804e-10 -2.1e-07)
(8.8743e-05 -7.6492e-06 1.463e-09)
(8.8773e-05 -7.4794e-06 1.453e-06)
(8.8817e-05 -7.0593e-06 2.9124e-06)
(8.8805e-05 -6.4549e-06 4.343e-06)
(8.8788e-05 -5.573e-06 5.5748e-06)
(8.8805e-05 -4.3412e-06 6.4565e-06)
(8.8817e-05 -2.9106e-06 7.0607e-06)
(8.8773e-05 -1.4512e-06 7.4804e-06)
(8.8743e-05 2.151e-10 7.6501e-06)
(5.9935e-05 -3.7101e-07 -1.9793e-06)
(5.6066e-05 1.4627e-07 5.5007e-07)
(5.9899e-05 -7.5958e-07 -1.8634e-06)
(5.6041e-05 2.3282e-07 5.1631e-07)
(5.9884e-05 -1.1549e-06 -1.7117e-06)
(5.6038e-05 2.219e-07 3.6683e-07)
(5.9888e-05 -1.4878e-06 -1.4874e-06)
(5.6046e-05 2.3318e-07 2.3343e-07)
(5.9884e-05 -1.7118e-06 -1.1546e-06)
(5.6037e-05 3.6654e-07 2.2215e-07)
(5.9899e-05 -1.8633e-06 -7.5917e-07)
(5.6041e-05 5.16e-07 2.3311e-07)
(5.9935e-05 -1.9791e-06 -3.7056e-07)
(5.6066e-05 5.4979e-07 1.4661e-07)
(5.9961e-05 -2.0262e-06 2.9697e-10)
(5.6086e-05 5.3974e-07 2.5669e-10)
(6.3763e-05 -1.1113e-06 -5.5517e-06)
(6.3716e-05 -2.1649e-06 -5.2134e-06)
(6.3696e-05 -3.1062e-06 -4.6511e-06)
(6.3689e-05 -3.9302e-06 -3.93e-06)
(6.3696e-05 -4.651e-06 -3.1057e-06)
(6.3716e-05 -5.213e-06 -2.1643e-06)
(6.3762e-05 -5.5511e-06 -1.1107e-06)
(6.3787e-05 -5.6546e-06 5.0451e-10)
(6.7462e-05 -1.9673e-06 -9.7532e-06)
(6.7413e-05 -3.8022e-06 -9.122e-06)
(6.74e-05 -5.4186e-06 -8.1104e-06)
(6.741e-05 -6.842e-06 -6.8418e-06)
(6.74e-05 -8.1102e-06 -5.4179e-06)
(6.7413e-05 -9.1214e-06 -3.8014e-06)
(6.7462e-05 -9.7523e-06 -1.9665e-06)
(6.7498e-05 -9.9589e-06 8.2757e-10)
(7.091e-05 -2.7946e-06 -1.3931e-05)
(7.0867e-05 -5.4145e-06 -1.2999e-05)
(7.0864e-05 -7.7248e-06 -1.1553e-05)
(7.0882e-05 -9.7555e-06 -9.755e-06)
(7.0864e-05 -1.1553e-05 -7.7239e-06)
(7.0867e-05 -1.2998e-05 -5.4134e-06)
(7.091e-05 -1.393e-05 -2.7936e-06)
(7.0947e-05 -1.4252e-05 8.584e-10)
(7.4005e-05 -3.4157e-06 -1.7252e-05)
(7.3974e-05 -6.6487e-06 -1.6052e-05)
(7.3974e-05 -9.5628e-06 -1.4295e-05)
(7.3989e-05 -1.2119e-05 -1.2118e-05)
(7.3975e-05 -1.4295e-05 -9.5617e-06)
(7.3974e-05 -1.6051e-05 -6.6475e-06)
(7.4005e-05 -1.7251e-05 -3.4145e-06)
(7.4032e-05 -1.7696e-05 1.5485e-09)
(7.6833e-05 -3.7299e-06 -1.8919e-05)
(7.6814e-05 -7.2685e-06 -1.7583e-05)
(7.682e-05 -1.048e-05 -1.5663e-05)
(7.6818e-05 -1.3313e-05 -1.3312e-05)
(7.682e-05 -1.5663e-05 -1.0479e-05)
(7.6815e-05 -1.7583e-05 -7.2671e-06)
(7.6833e-05 -1.8919e-05 -3.7285e-06)
(7.6841e-05 -1.9448e-05 1.2914e-09)
(7.9492e-05 -3.673e-06 -1.8441e-05)
(7.9492e-05 -7.1224e-06 -1.7168e-05)
(7.9492e-05 -1.0202e-05 -1.5264e-05)
(7.9495e-05 -1.2911e-05 -1.291e-05)
(7.9492e-05 -1.5264e-05 -1.02e-05)
(7.9492e-05 -1.7168e-05 -7.1208e-06)
(7.9492e-05 -1.8441e-05 -3.6715e-06)
(7.9495e-05 -1.8898e-05 1.4979e-09)
(8.2026e-05 -3.2391e-06 -1.6034e-05)
(8.2044e-05 -6.2416e-06 -1.4962e-05)
(8.2043e-05 -8.8434e-06 -1.3248e-05)
(8.204e-05 -1.114e-05 -1.1139e-05)
(8.2043e-05 -1.3249e-05 -8.8417e-06)
(8.2044e-05 -1.4962e-05 -6.2398e-06)
(8.2026e-05 -1.6034e-05 -3.2375e-06)
(8.2016e-05 -1.6382e-05 1.6699e-09)
(8.4359e-05 -2.4323e-06 -1.2076e-05)
(8.4373e-05 -4.6783e-06 -1.1237e-05)
(8.439e-05 -6.6283e-06 -9.93e-06)
(8.4404e-05 -8.3561e-06 -8.3545e-06)
(8.439e-05 -9.9314e-06 -6.6266e-06)
(8.4373e-05 -1.1238e-05 -4.6765e-06)
(8.4359e-05 -1.2077e-05 -2.4305e-06)
(8.436e-05 -1.2364e-05 1.8639e-09)
(8.6366e-05 -1.3571e-06 -6.7727e-06)
(8.6374e-05 -2.5845e-06 -6.255e-06)
(8.6406e-05 -3.6522e-06 -5.4853e-06)
(8.6421e-05 -4.607e-06 -4.6054e-06)
(8.6406e-05 -5.4868e-06 -3.6504e-06)
(8.6374e-05 -6.2563e-06 -2.5828e-06)
(8.6366e-05 -6.7739e-06 -1.3554e-06)
(8.6365e-05 -6.966e-06 1.8157e-09)
(8.7873e-05 -5.42e-08 -1.8638e-07)
(8.7898e-05 -4.2673e-08 -1.0145e-07)
(8.7909e-05 4.014e-08 2.6453e-08)
(8.7914e-05 9.172e-08 9.2885e-08)
(8.7908e-05 2.4912e-08 4.1819e-08)
(8.7898e-05 -1.0286e-07 -4.0984e-08)
(8.7873e-05 -1.8763e-07 -5.2556e-08)
(8.7863e-05 -2.1112e-07 2.1285e-09)
(8.8773e-05 1.4517e-06 7.4806e-06)
(8.8817e-05 2.9111e-06 7.0609e-06)
(8.8805e-05 4.3417e-06 6.4568e-06)
(8.8788e-05 5.5735e-06 5.5751e-06)
(8.8805e-05 6.4553e-06 4.3432e-06)
(8.8817e-05 7.0596e-06 2.9126e-06)
(8.8772e-05 7.4795e-06 1.4531e-06)
(8.8742e-05 7.6491e-06 1.6583e-09)
(5.9935e-05 -1.9791e-06 3.7129e-07)
(5.6066e-05 5.4994e-07 -1.4613e-07)
(5.99e-05 -1.8634e-06 7.5988e-07)
(5.6042e-05 5.162e-07 -2.3271e-07)
(5.9885e-05 -1.712e-06 1.1553e-06)
(5.6038e-05 3.6668e-07 -2.2179e-07)
(5.9889e-05 -1.488e-06 1.4882e-06)
(5.6048e-05 2.3319e-07 -2.3303e-07)
(5.9885e-05 -1.1552e-06 1.7126e-06)
(5.6039e-05 2.2181e-07 -3.6633e-07)
(5.99e-05 -7.5988e-07 1.8643e-06)
(5.6043e-05 2.3268e-07 -5.1573e-07)
(5.9936e-05 -3.7128e-07 1.9801e-06)
(5.6067e-05 1.4611e-07 -5.4952e-07)
(5.9962e-05 -3.9835e-10 2.0271e-06)
(5.6087e-05 -2.8366e-10 -5.3954e-07)
(6.3763e-05 -5.5512e-06 1.1117e-06)
(6.3717e-05 -5.2132e-06 2.1653e-06)
(6.3697e-05 -4.6514e-06 3.1068e-06)
(6.369e-05 -3.9306e-06 3.9311e-06)
(6.3697e-05 -3.1066e-06 4.6523e-06)
(6.3717e-05 -2.1653e-06 5.2145e-06)
(6.3764e-05 -1.1117e-06 5.5528e-06)
(6.3788e-05 -3.5156e-10 5.6561e-06)
(6.7463e-05 -9.7525e-06 1.9678e-06)
(6.7414e-05 -9.1218e-06 3.8028e-06)
(6.7401e-05 -8.1107e-06 5.4193e-06)
(6.741e-05 -6.8424e-06 6.8433e-06)
(6.7401e-05 -5.419e-06 8.1118e-06)
(6.7414e-05 -3.8026e-06 9.1234e-06)
(6.7463e-05 -1.9676e-06 9.7544e-06)
(6.7499e-05 -2.0862e-10 9.9609e-06)
(7.091e-05 -1.3931e-05 2.7953e-06)
(7.0868e-05 -1.2998e-05 5.4153e-06)
(7.0865e-05 -1.1554e-05 7.7257e-06)
(7.0883e-05 -9.756e-06 9.7568e-06)
(7.0865e-05 -7.7252e-06 1.1555e-05)
(7.0868e-05 -5.4149e-06 1.3e-05)
(7.0911e-05 -2.795e-06 1.3933e-05)
(7.0948e-05 -3.739e-10 1.4254e-05)
(7.4005e-05 -1.7251e-05 3.4167e-06)
(7.3975e-05 -1.6052e-05 6.6497e-06)
(7.3975e-05 -1.4296e-05 9.564e-06)
(7.399e-05 -1.2119e-05 1.2121e-05)
(7.3975e-05 -9.5633e-06 1.4297e-05)
(7.3975e-05 -6.6491e-06 1.6054e-05)
(7.4005e-05 -3.4161e-06 1.7253e-05)
(7.4033e-05 -8.3793e-10 1.7698e-05)
(7.6833e-05 -1.8919e-05 3.7312e-06)
(7.6815e-05 -1.7583e-05 7.2698e-06)
(7.6821e-05 -1.5664e-05 1.0481e-05)
(7.6819e-05 -1.3313e-05 1.3314e-05)
(7.6821e-05 -1.048e-05 1.5665e-05)
(7.6815e-05 -7.2689e-06 1.7585e-05)
(7.6833e-05 -3.7302e-06 1.8921e-05)
(7.6841e-05 -3.3217e-10 1.945e-05)
(7.9492e-05 -1.8441e-05 3.6745e-06)
(7.9493e-05 -1.7169e-05 7.1239e-06)
(7.9492e-05 -1.5265e-05 1.0203e-05)
(7.9495e-05 -1.2912e-05 1.2913e-05)
(7.9492e-05 -1.0202e-05 1.5267e-05)
(7.9493e-05 -7.1227e-06 1.717e-05)
(7.9493e-05 -3.6733e-06 1.8443e-05)
(7.9496e-05 -2.8679e-10 1.89e-05)
(8.2026e-05 -1.6035e-05 3.2409e-06)
(8.2044e-05 -1.4963e-05 6.2433e-06)
(8.2043e-05 -1.325e-05 8.8452e-06)
(8.204e-05 -1.1141e-05 1.1142e-05)
(8.2043e-05 -8.8438e-06 1.3252e-05)
(8.2044e-05 -6.2419e-06 1.4964e-05)
(8.2027e-05 -3.2394e-06 1.6036e-05)
(8.2017e-05 -2.2769e-10 1.6384e-05)
(8.4359e-05 -1.2077e-05 2.4341e-06)
(8.4373e-05 -1.1238e-05 4.6801e-06)
(8.439e-05 -9.932e-06 6.6303e-06)
(8.4404e-05 -8.3567e-06 8.3581e-06)
(8.439e-05 -6.6287e-06 9.9334e-06)
(8.4373e-05 -4.6785e-06 1.124e-05)
(8.436e-05 -2.4325e-06 1.2078e-05)
(8.436e-05 -2.5463e-10 1.2365e-05)
(8.6366e-05 -6.7741e-06 1.359e-06)
(8.6374e-05 -6.2567e-06 2.5865e-06)
(8.6406e-05 -5.4872e-06 3.6541e-06)
(8.6421e-05 -4.6074e-06 4.609e-06)
(8.6406e-05 -3.6524e-06 5.4886e-06)
(8.6374e-05 -2.5847e-06 6.2579e-06)
(8.6366e-05 -1.3573e-06 6.7752e-06)
(8.6365e-05 -1.1114e-10 6.967e-06)
(8.7873e-05 -1.8773e-07 5.61e-08)
(8.7898e-05 -1.0301e-07 4.4523e-08)
(8.7908e-05 2.4755e-08 -3.8327e-08)
(8.7913e-05 9.1618e-08 -8.9538e-08)
(8.7908e-05 4.0112e-08 -2.3377e-08)
(8.7898e-05 -4.2676e-08 1.0418e-07)
(8.7873e-05 -5.4284e-08 1.8877e-07)
(8.7864e-05 3.1513e-10 2.1207e-07)
(8.8772e-05 7.4796e-06 -1.4498e-06)
(8.8816e-05 7.0597e-06 -2.9094e-06)
(8.8805e-05 6.4555e-06 -4.3402e-06)
(8.8787e-05 5.5738e-06 -5.5722e-06)
(8.8805e-05 4.342e-06 -6.4542e-06)
(8.8817e-05 2.9113e-06 -7.0586e-06)
(8.8773e-05 1.4517e-06 -7.4787e-06)
(8.8743e-05 2.4477e-11 -7.6483e-06)
(5.9936e-05 3.7056e-07 1.9797e-06)
(5.6067e-05 -1.4673e-07 -5.4984e-07)
(5.99e-05 7.5903e-07 1.8636e-06)
(5.6042e-05 -2.3342e-07 -5.1627e-07)
(5.9885e-05 1.1542e-06 1.7119e-06)
(5.6039e-05 -2.2267e-07 -3.6692e-07)
(5.9889e-05 1.4869e-06 1.4877e-06)
(5.6048e-05 -2.3409e-07 -2.3353e-07)
(5.9885e-05 1.7111e-06 1.1548e-06)
(5.6039e-05 -3.6749e-07 -2.2213e-07)
(5.99e-05 1.8628e-06 7.5958e-07)
(5.6042e-05 -5.1681e-07 -2.329e-07)
(5.9936e-05 1.9789e-06 3.7107e-07)
(5.6067e-05 -5.5027e-07 -1.4626e-07)
(6.3764e-05 1.1109e-06 5.5523e-06)
(6.3718e-05 2.1643e-06 5.2138e-06)
(6.3697e-05 3.1055e-06 4.6514e-06)
(6.369e-05 3.9295e-06 3.9304e-06)
(6.3697e-05 4.6505e-06 3.1062e-06)
(6.3717e-05 5.2127e-06 2.165e-06)
(6.3763e-05 5.5512e-06 1.1115e-06)
(6.7463e-05 1.9669e-06 9.754e-06)
(6.7414e-05 3.8017e-06 9.1226e-06)
(6.7402e-05 5.4179e-06 8.1109e-06)
(6.7411e-05 6.8416e-06 6.8423e-06)
(6.7402e-05 8.1098e-06 5.4187e-06)
(6.7414e-05 9.1214e-06 3.8024e-06)
(6.7463e-05 9.7526e-06 1.9675e-06)
(7.0911e-05 2.7942e-06 1.3932e-05)
(7.0868e-05 5.414e-06 1.2999e-05)
(7.0865e-05 7.7242e-06 1.1554e-05)
(7.0883e-05 9.7549e-06 9.756e-06)
(7.0865e-05 1.1553e-05 7.7251e-06)
(7.0868e-05 1.2998e-05 5.4149e-06)
(7.0911e-05 1.3931e-05 2.795e-06)
(7.4006e-05 3.4153e-06 1.7253e-05)
(7.3975e-05 6.6482e-06 1.6053e-05)
(7.3976e-05 9.5622e-06 1.4296e-05)
(7.399e-05 1.2119e-05 1.2119e-05)
(7.3976e-05 1.4295e-05 9.5633e-06)
(7.3975e-05 1.6051e-05 6.6493e-06)
(7.4006e-05 1.7252e-05 3.4163e-06)
(7.6834e-05 3.7295e-06 1.8921e-05)
(7.6815e-05 7.268e-06 1.7584e-05)
(7.6821e-05 1.0479e-05 1.5664e-05)
(7.6819e-05 1.3312e-05 1.3313e-05)
(7.6821e-05 1.5663e-05 1.0481e-05)
(7.6816e-05 1.7583e-05 7.2693e-06)
(7.6834e-05 1.8919e-05 3.7308e-06)
(7.9493e-05 3.6727e-06 1.8442e-05)
(7.9493e-05 7.1219e-06 1.7169e-05)
(7.9493e-05 1.0201e-05 1.5266e-05)
(7.9496e-05 1.2911e-05 1.2912e-05)
(7.9493e-05 1.5264e-05 1.0203e-05)
(7.9493e-05 1.7168e-05 7.1234e-06)
(7.9493e-05 1.8441e-05 3.6741e-06)
(8.2027e-05 3.2389e-06 1.6036e-05)
(8.2045e-05 6.2411e-06 1.4963e-05)
(8.2044e-05 8.8429e-06 1.3251e-05)
(8.2041e-05 1.114e-05 1.1141e-05)
(8.2044e-05 1.3249e-05 8.8445e-06)
(8.2045e-05 1.4962e-05 6.2427e-06)
(8.2027e-05 1.6035e-05 3.2404e-06)
(8.436e-05 2.4321e-06 1.2078e-05)
(8.4374e-05 4.6779e-06 1.1239e-05)
(8.4391e-05 6.6279e-06 9.9325e-06)
(8.4405e-05 8.3557e-06 8.3573e-06)
(8.4391e-05 9.9312e-06 6.6295e-06)
(8.4374e-05 1.1238e-05 4.6796e-06)
(8.436e-05 1.2077e-05 2.4337e-06)
(8.6366e-05 1.357e-06 6.7749e-06)
(8.6375e-05 2.5842e-06 6.2572e-06)
(8.6407e-05 3.6517e-06 5.4877e-06)
(8.6421e-05 4.6066e-06 4.6081e-06)
(8.6407e-05 5.4864e-06 3.6534e-06)
(8.6375e-05 6.2561e-06 2.586e-06)
(8.6366e-05 6.7738e-06 1.3587e-06)
(8.7874e-05 5.4161e-08 1.8846e-07)
(8.7899e-05 4.2402e-08 1.0359e-07)
(8.7909e-05 -4.0645e-08 -2.4192e-08)
(8.7914e-05 -9.2368e-08 -9.0403e-08)
(8.7909e-05 -2.5531e-08 -3.9028e-08)
(8.7899e-05 1.0241e-07 4.4062e-08)
(8.7874e-05 1.8743e-07 5.5788e-08)
(8.8773e-05 -1.4517e-06 -7.4788e-06)
(8.8817e-05 -2.9114e-06 -7.0592e-06)
(8.8805e-05 -4.3424e-06 -6.455e-06)
(8.8788e-05 -5.5745e-06 -5.5731e-06)
(8.8805e-05 -6.4562e-06 -4.3408e-06)
(8.8817e-05 -7.0603e-06 -2.9098e-06)
(8.8773e-05 -7.4799e-06 -1.4501e-06)
)
;
    }
    procBoundary1to0
    {
        type            processor;
    }
    procBoundary1to2
    {
        type            processor;
    }
}


// ************************************************************************* //
