/*--------------------------------*- C++ -*----------------------------------*\
| =========                 |                                                 |
| \\      /  F ield         | OpenFOAM: The Open Source CFD Toolbox           |
|  \\    /   O peration     | Version:  4.1                                   |
|   \\  /    A nd           | Web:      www.OpenFOAM.org                      |
|    \\/     M anipulation  |                                                 |
\*---------------------------------------------------------------------------*/
FoamFile
{
    version     2.0;
    format      ascii;
    class       pointVectorField;
    location    "0.0098";
    object      pointDisplacement_Next;
}
// * * * * * * * * * * * * * * * * * * * * * * * * * * * * * * * * * * * * * //

dimensions      [0 1 0 0 0 0 0];

internalField   uniform (0 0 0);

boundaryField
{
    inlet
    {
        type            fixedValue;
        value           nonuniform 0();
    }
    outlet
    {
        type            fixedValue;
        value           uniform (0 0 0);
    }
    mantle
    {
        type            fixedValue;
        value           nonuniform List<vector> 
416
(
(5.1229e-05 -5.5444e-05 -2.3292e-10)
(4.7296e-05 -6.1323e-05 -1.856e-10)
(4.7307e-05 -6.0015e-05 1.191e-05)
(5.1258e-05 -5.4293e-05 1.08e-05)
(4.7329e-05 -5.6294e-05 2.3323e-05)
(5.1296e-05 -5.0956e-05 2.1136e-05)
(4.7334e-05 -5.0512e-05 3.3784e-05)
(5.1287e-05 -4.5714e-05 3.0575e-05)
(4.7333e-05 -4.2939e-05 4.2938e-05)
(5.127e-05 -3.8835e-05 3.8834e-05)
(4.7334e-05 -3.3785e-05 5.051e-05)
(5.1287e-05 -3.0577e-05 4.5713e-05)
(4.7328e-05 -2.3324e-05 5.6293e-05)
(5.1296e-05 -2.1137e-05 5.0955e-05)
(4.7307e-05 -1.191e-05 6.0014e-05)
(5.1257e-05 -1.0801e-05 5.4292e-05)
(4.7295e-05 -4.2758e-10 6.1322e-05)
(5.1229e-05 -5.4321e-10 5.5444e-05)
(4.3054e-05 -6.5283e-05 -4.0422e-10)
(4.3056e-05 -6.3849e-05 1.2651e-05)
(4.3059e-05 -5.9859e-05 2.4785e-05)
(4.3084e-05 -5.3713e-05 3.593e-05)
(4.3091e-05 -4.5688e-05 4.5687e-05)
(4.3084e-05 -3.5931e-05 5.3712e-05)
(4.3059e-05 -2.4785e-05 5.9858e-05)
(4.3055e-05 -1.2652e-05 6.3848e-05)
(4.3053e-05 -8.0259e-11 6.5282e-05)
(3.8538e-05 -6.6938e-05 -8.9718e-10)
(3.8533e-05 -6.5508e-05 1.3018e-05)
(3.8536e-05 -6.1438e-05 2.5465e-05)
(3.855e-05 -5.5101e-05 3.6847e-05)
(3.8562e-05 -4.682e-05 4.6819e-05)
(3.855e-05 -3.6848e-05 5.51e-05)
(3.8536e-05 -2.5466e-05 6.1438e-05)
(3.8532e-05 -1.3019e-05 6.5508e-05)
(3.8537e-05 4.9422e-10 6.6937e-05)
(3.3856e-05 -6.6634e-05 -6.435e-10)
(3.3846e-05 -6.5257e-05 1.3012e-05)
(3.3837e-05 -6.1241e-05 2.5412e-05)
(3.3848e-05 -5.4887e-05 3.6684e-05)
(3.3858e-05 -4.6575e-05 4.6575e-05)
(3.3847e-05 -3.6685e-05 5.4886e-05)
(3.3837e-05 -2.5412e-05 6.1241e-05)
(3.3846e-05 -1.3012e-05 6.5257e-05)
(3.3856e-05 2.8848e-10 6.6633e-05)
(2.9147e-05 -6.4708e-05 -7.4586e-10)
(2.9113e-05 -6.34e-05 1.264e-05)
(2.9075e-05 -5.9532e-05 2.4672e-05)
(2.9096e-05 -5.3337e-05 3.5615e-05)
(2.9122e-05 -4.5233e-05 4.5233e-05)
(2.9095e-05 -3.5616e-05 5.3337e-05)
(2.9075e-05 -2.4673e-05 5.9532e-05)
(2.9112e-05 -1.264e-05 6.34e-05)
(2.9146e-05 4.2305e-10 6.4708e-05)
(2.4502e-05 -6.1164e-05 -7.9932e-10)
(2.4444e-05 -5.9949e-05 1.1936e-05)
(2.4383e-05 -5.6302e-05 2.3308e-05)
(2.4413e-05 -5.0441e-05 3.3663e-05)
(2.4457e-05 -4.2759e-05 4.2758e-05)
(2.4412e-05 -3.3664e-05 5.044e-05)
(2.4383e-05 -2.3308e-05 5.6302e-05)
(2.4443e-05 -1.1937e-05 5.9949e-05)
(2.4502e-05 4.9943e-10 6.1165e-05)
(2.0117e-05 -5.5542e-05 -7.8055e-10)
(2.0076e-05 -5.4364e-05 1.0809e-05)
(2.002e-05 -5.1002e-05 2.1127e-05)
(2.0041e-05 -4.5725e-05 3.0553e-05)
(2.0067e-05 -3.8832e-05 3.8832e-05)
(2.0041e-05 -3.0553e-05 4.5725e-05)
(2.0019e-05 -2.1128e-05 5.1002e-05)
(2.0076e-05 -1.0809e-05 5.4364e-05)
(2.0116e-05 5.0473e-10 5.5542e-05)
(1.6452e-05 -4.6722e-05 -7.139e-10)
(1.642e-05 -4.5644e-05 9.0806e-06)
(1.6346e-05 -4.2791e-05 1.7755e-05)
(1.638e-05 -3.8374e-05 2.567e-05)
(1.6396e-05 -3.2655e-05 3.2655e-05)
(1.638e-05 -2.567e-05 3.8374e-05)
(1.6346e-05 -1.7755e-05 4.2791e-05)
(1.642e-05 -9.0809e-06 4.5644e-05)
(1.6451e-05 4.5818e-10 4.6722e-05)
(1.3517e-05 -3.4365e-05 -6.2416e-10)
(1.3413e-05 -3.3693e-05 6.7471e-06)
(1.3297e-05 -3.167e-05 1.3137e-05)
(1.336e-05 -2.8352e-05 1.8913e-05)
(1.3441e-05 -2.4013e-05 2.4013e-05)
(1.336e-05 -1.8913e-05 2.8352e-05)
(1.3297e-05 -1.3137e-05 3.167e-05)
(1.3412e-05 -6.7474e-06 3.3693e-05)
(1.3517e-05 3.8833e-10 3.4365e-05)
(1.0189e-05 -2.0933e-05 -4.8241e-10)
(1.0016e-05 -2.0691e-05 4.1956e-06)
(9.8625e-06 -1.9574e-05 8.1079e-06)
(9.9599e-06 -1.7448e-05 1.1562e-05)
(1.0106e-05 -1.4618e-05 1.4617e-05)
(9.9599e-06 -1.1562e-05 1.7448e-05)
(9.8624e-06 -8.1081e-06 1.9574e-05)
(1.0016e-05 -4.1958e-06 2.0691e-05)
(1.0189e-05 2.9043e-10 2.0933e-05)
(5.4813e-06 -9.2609e-06 -2.5232e-10)
(5.4064e-06 -9.168e-06 1.8765e-06)
(5.3229e-06 -8.7004e-06 3.5989e-06)
(5.3744e-06 -7.746e-06 5.106e-06)
(5.4355e-06 -6.4683e-06 6.4682e-06)
(5.3744e-06 -5.1061e-06 7.746e-06)
(5.3228e-06 -3.599e-06 8.7004e-06)
(5.4063e-06 -1.8766e-06 9.168e-06)
(5.4812e-06 1.4808e-10 9.261e-06)
(2.109e-12 -3.2542e-12 -9.1781e-17)
(7.9993e-09 1.0371e-09 1.2992e-08)
(2.6344e-12 8.4051e-13 -3.0743e-13)
(6.4922e-09 -4.0733e-09 -1.0192e-08)
(1.2706e-12 -6.8282e-12 6.8282e-12)
(6.4927e-09 1.0192e-08 4.0728e-09)
(2.6344e-12 3.0741e-13 -8.4057e-13)
(7.9981e-09 -1.2993e-08 -1.0365e-09)
(2.1089e-12 5.336e-17 3.2542e-12)
(4.7306e-05 1.191e-05 6.0014e-05)
(5.1257e-05 1.08e-05 5.4292e-05)
(4.7328e-05 2.3324e-05 5.6294e-05)
(5.1295e-05 2.1136e-05 5.0955e-05)
(4.7333e-05 3.3785e-05 5.0511e-05)
(5.1286e-05 3.0576e-05 4.5713e-05)
(4.7332e-05 4.2938e-05 4.2938e-05)
(5.1269e-05 3.8835e-05 3.8834e-05)
(4.7333e-05 5.0511e-05 3.3784e-05)
(5.1286e-05 4.5714e-05 3.0576e-05)
(4.7327e-05 5.6294e-05 2.3323e-05)
(5.1295e-05 5.0956e-05 2.1136e-05)
(4.7306e-05 6.0015e-05 1.1909e-05)
(5.1256e-05 5.4292e-05 1.08e-05)
(4.7294e-05 6.1322e-05 -6.3923e-10)
(5.1228e-05 5.5444e-05 -4.5661e-10)
(4.3055e-05 1.2652e-05 6.3848e-05)
(4.3058e-05 2.4785e-05 5.9859e-05)
(4.3083e-05 3.5931e-05 5.3712e-05)
(4.309e-05 4.5688e-05 4.5687e-05)
(4.3083e-05 5.3713e-05 3.593e-05)
(4.3058e-05 5.9859e-05 2.4785e-05)
(4.3055e-05 6.3849e-05 1.2651e-05)
(4.3053e-05 6.5283e-05 -5.805e-10)
(3.8532e-05 1.3019e-05 6.5508e-05)
(3.8535e-05 2.5466e-05 6.1438e-05)
(3.8549e-05 3.6848e-05 5.51e-05)
(3.8561e-05 4.682e-05 4.682e-05)
(3.8549e-05 5.5101e-05 3.6847e-05)
(3.8535e-05 6.1438e-05 2.5465e-05)
(3.8532e-05 6.5508e-05 1.3018e-05)
(3.8536e-05 6.6937e-05 -1.0141e-09)
(3.3846e-05 1.3013e-05 6.5257e-05)
(3.3836e-05 2.5413e-05 6.1241e-05)
(3.3847e-05 3.6685e-05 5.4886e-05)
(3.3858e-05 4.6576e-05 4.6575e-05)
(3.3847e-05 5.4887e-05 3.6684e-05)
(3.3836e-05 6.1242e-05 2.5411e-05)
(3.3845e-05 6.5257e-05 1.3011e-05)
(3.3855e-05 6.6633e-05 -6.7816e-10)
(2.9112e-05 1.2641e-05 6.34e-05)
(2.9075e-05 2.4674e-05 5.9532e-05)
(2.9095e-05 3.5617e-05 5.3337e-05)
(2.9121e-05 4.5234e-05 4.5233e-05)
(2.9095e-05 5.3338e-05 3.5615e-05)
(2.9074e-05 5.9533e-05 2.4672e-05)
(2.9112e-05 6.3401e-05 1.264e-05)
(2.9146e-05 6.4708e-05 -6.9802e-10)
(2.4443e-05 1.1938e-05 5.9949e-05)
(2.4383e-05 2.3309e-05 5.6302e-05)
(2.4412e-05 3.3665e-05 5.044e-05)
(2.4456e-05 4.276e-05 4.2758e-05)
(2.4412e-05 5.0441e-05 3.3664e-05)
(2.4383e-05 5.6303e-05 2.3308e-05)
(2.4443e-05 5.9949e-05 1.1936e-05)
(2.4501e-05 6.1165e-05 -6.966e-10)
(2.0076e-05 1.081e-05 5.4364e-05)
(2.0019e-05 2.1129e-05 5.1002e-05)
(2.0041e-05 3.0554e-05 4.5724e-05)
(2.0067e-05 3.8833e-05 3.8832e-05)
(2.0041e-05 4.5725e-05 3.0553e-05)
(2.0019e-05 5.1002e-05 2.1127e-05)
(2.0075e-05 5.4364e-05 1.0809e-05)
(2.0116e-05 5.5543e-05 -6.7198e-10)
(1.642e-05 9.0818e-06 4.5644e-05)
(1.6346e-05 1.7756e-05 4.279e-05)
(1.638e-05 2.5671e-05 3.8373e-05)
(1.6396e-05 3.2656e-05 3.2654e-05)
(1.638e-05 3.8374e-05 2.567e-05)
(1.6346e-05 4.2791e-05 1.7755e-05)
(1.642e-05 4.5645e-05 9.0806e-06)
(1.6451e-05 4.6723e-05 -6.2965e-10)
(1.3413e-05 6.7481e-06 3.3693e-05)
(1.3297e-05 1.3137e-05 3.167e-05)
(1.336e-05 1.8914e-05 2.8352e-05)
(1.3441e-05 2.4014e-05 2.4013e-05)
(1.336e-05 2.8352e-05 1.8913e-05)
(1.3297e-05 3.167e-05 1.3136e-05)
(1.3413e-05 3.3694e-05 6.7471e-06)
(1.3517e-05 3.4366e-05 -5.6626e-10)
(1.0016e-05 4.1963e-06 2.0691e-05)
(9.8624e-06 8.1085e-06 1.9574e-05)
(9.9599e-06 1.1563e-05 1.7448e-05)
(1.0106e-05 1.4618e-05 1.4617e-05)
(9.9599e-06 1.7448e-05 1.1562e-05)
(9.8625e-06 1.9575e-05 8.1078e-06)
(1.0016e-05 2.0692e-05 4.1956e-06)
(1.0189e-05 2.0933e-05 -4.4469e-10)
(5.4063e-06 1.8769e-06 9.168e-06)
(5.3228e-06 3.5992e-06 8.7002e-06)
(5.3744e-06 5.1063e-06 7.7458e-06)
(5.4355e-06 6.4684e-06 6.468e-06)
(5.3744e-06 7.7462e-06 5.1058e-06)
(5.3229e-06 8.7006e-06 3.5988e-06)
(5.4064e-06 9.1682e-06 1.8765e-06)
(5.4813e-06 9.2612e-06 -2.3854e-10)
(7.9985e-09 1.2996e-08 -1.0361e-09)
(2.6344e-12 -3.0738e-13 -8.4058e-13)
(6.4925e-09 -1.0194e-08 4.0695e-09)
(1.2706e-12 6.8283e-12 6.828e-12)
(6.4916e-09 4.0707e-09 -1.0194e-08)
(2.6344e-12 -8.4045e-13 -3.0748e-13)
(8e-09 -1.0352e-09 1.2994e-08)
(2.109e-12 3.2543e-12 -8.9676e-17)
(4.7306e-05 6.0015e-05 -1.1911e-05)
(5.1256e-05 5.4293e-05 -1.0801e-05)
(4.7327e-05 5.6294e-05 -2.3324e-05)
(5.1295e-05 5.0956e-05 -2.1137e-05)
(4.7332e-05 5.0512e-05 -3.3785e-05)
(5.1286e-05 4.5714e-05 -3.0576e-05)
(4.7332e-05 4.2938e-05 -4.2939e-05)
(5.1269e-05 3.8835e-05 -3.8835e-05)
(4.7333e-05 3.3785e-05 -5.0511e-05)
(5.1286e-05 3.0576e-05 -4.5714e-05)
(4.7327e-05 2.3323e-05 -5.6294e-05)
(5.1295e-05 2.1136e-05 -5.0955e-05)
(4.7306e-05 1.191e-05 -6.0014e-05)
(5.1257e-05 1.08e-05 -5.4291e-05)
(4.7295e-05 -2.011e-10 -6.1321e-05)
(5.1229e-05 -2.9884e-10 -5.5443e-05)
(4.3055e-05 6.3849e-05 -1.2652e-05)
(4.3058e-05 5.9859e-05 -2.4786e-05)
(4.3083e-05 5.3713e-05 -3.5931e-05)
(4.309e-05 4.5688e-05 -4.5688e-05)
(4.3083e-05 3.5931e-05 -5.3713e-05)
(4.3058e-05 2.4785e-05 -5.9859e-05)
(4.3055e-05 1.2652e-05 -6.3848e-05)
(4.3053e-05 1.0641e-10 -6.5282e-05)
(3.8532e-05 6.5508e-05 -1.3019e-05)
(3.8535e-05 6.1438e-05 -2.5466e-05)
(3.8549e-05 5.5101e-05 -3.6849e-05)
(3.8561e-05 4.682e-05 -4.6821e-05)
(3.8549e-05 3.6848e-05 -5.5101e-05)
(3.8535e-05 2.5466e-05 -6.1438e-05)
(3.8532e-05 1.3019e-05 -6.5508e-05)
(3.8536e-05 -1.3545e-10 -6.6937e-05)
(3.3845e-05 6.5257e-05 -1.3013e-05)
(3.3836e-05 6.1242e-05 -2.5413e-05)
(3.3847e-05 5.4887e-05 -3.6685e-05)
(3.3858e-05 4.6576e-05 -4.6576e-05)
(3.3847e-05 3.6685e-05 -5.4887e-05)
(3.3836e-05 2.5413e-05 -6.1242e-05)
(3.3845e-05 1.3012e-05 -6.5257e-05)
(3.3855e-05 3.3668e-10 -6.6634e-05)
(2.9112e-05 6.3401e-05 -1.2641e-05)
(2.9075e-05 5.9532e-05 -2.4674e-05)
(2.9095e-05 5.3338e-05 -3.5617e-05)
(2.9121e-05 4.5234e-05 -4.5234e-05)
(2.9095e-05 3.5616e-05 -5.3338e-05)
(2.9074e-05 2.4673e-05 -5.9533e-05)
(2.9112e-05 1.2641e-05 -6.3401e-05)
(2.9146e-05 4.0015e-10 -6.4709e-05)
(2.4443e-05 5.9949e-05 -1.1938e-05)
(2.4383e-05 5.6302e-05 -2.3309e-05)
(2.4412e-05 5.0441e-05 -3.3665e-05)
(2.4456e-05 4.2759e-05 -4.2759e-05)
(2.4412e-05 3.3665e-05 -5.0441e-05)
(2.4383e-05 2.3309e-05 -5.6303e-05)
(2.4443e-05 1.1937e-05 -5.995e-05)
(2.4501e-05 4.3031e-10 -6.1166e-05)
(2.0075e-05 5.4364e-05 -1.081e-05)
(2.0019e-05 5.1002e-05 -2.1128e-05)
(2.0041e-05 4.5725e-05 -3.0554e-05)
(2.0067e-05 3.8833e-05 -3.8833e-05)
(2.0041e-05 3.0553e-05 -4.5725e-05)
(2.0019e-05 2.1128e-05 -5.1002e-05)
(2.0075e-05 1.081e-05 -5.4365e-05)
(2.0116e-05 4.1954e-10 -5.5544e-05)
(1.642e-05 4.5644e-05 -9.0819e-06)
(1.6346e-05 4.2791e-05 -1.7756e-05)
(1.638e-05 3.8374e-05 -2.5671e-05)
(1.6396e-05 3.2655e-05 -3.2655e-05)
(1.638e-05 2.5671e-05 -3.8374e-05)
(1.6346e-05 1.7756e-05 -4.2791e-05)
(1.642e-05 9.0817e-06 -4.5645e-05)
(1.6451e-05 3.8452e-10 -4.6723e-05)
(1.3413e-05 3.3694e-05 -6.7482e-06)
(1.3297e-05 3.167e-05 -1.3137e-05)
(1.336e-05 2.8352e-05 -1.8914e-05)
(1.3441e-05 2.4013e-05 -2.4014e-05)
(1.336e-05 1.8913e-05 -2.8352e-05)
(1.3297e-05 1.3137e-05 -3.167e-05)
(1.3413e-05 6.748e-06 -3.3694e-05)
(1.3517e-05 3.3715e-10 -3.4366e-05)
(1.0016e-05 2.0692e-05 -4.1964e-06)
(9.8625e-06 1.9574e-05 -8.1085e-06)
(9.9599e-06 1.7448e-05 -1.1563e-05)
(1.0106e-05 1.4618e-05 -1.4618e-05)
(9.96e-06 1.1562e-05 -1.7448e-05)
(9.8625e-06 8.1084e-06 -1.9575e-05)
(1.0016e-05 4.1963e-06 -2.0692e-05)
(1.0189e-05 2.6105e-10 -2.0933e-05)
(5.4064e-06 9.1682e-06 -1.877e-06)
(5.3229e-06 8.7004e-06 -3.5992e-06)
(5.3744e-06 7.746e-06 -5.1062e-06)
(5.4355e-06 6.4683e-06 -6.4684e-06)
(5.3744e-06 5.1061e-06 -7.7461e-06)
(5.3229e-06 3.5991e-06 -8.7006e-06)
(5.4064e-06 1.8769e-06 -9.1683e-06)
(5.4813e-06 1.3958e-10 -9.2613e-06)
(7.9997e-09 -1.0353e-09 -1.2997e-08)
(2.6344e-12 -8.4044e-13 3.0732e-13)
(6.4919e-09 4.0683e-09 1.0195e-08)
(1.2705e-12 6.8281e-12 -6.8281e-12)
(6.4917e-09 -1.0195e-08 -4.0693e-09)
(2.6345e-12 -3.0738e-13 8.4043e-13)
(8.0001e-09 1.2997e-08 1.0358e-09)
(2.109e-12 5.2656e-17 -3.2543e-12)
(4.7306e-05 -1.191e-05 -6.0014e-05)
(5.1257e-05 -1.0801e-05 -5.4291e-05)
(4.7328e-05 -2.3324e-05 -5.6293e-05)
(5.1296e-05 -2.1137e-05 -5.0954e-05)
(4.7333e-05 -3.3785e-05 -5.0511e-05)
(5.1287e-05 -3.0576e-05 -4.5713e-05)
(4.7333e-05 -4.2938e-05 -4.2938e-05)
(5.127e-05 -3.8835e-05 -3.8834e-05)
(4.7334e-05 -5.0511e-05 -3.3785e-05)
(5.1287e-05 -4.5714e-05 -3.0576e-05)
(4.7328e-05 -5.6294e-05 -2.3324e-05)
(5.1296e-05 -5.0956e-05 -2.1137e-05)
(4.7307e-05 -6.0015e-05 -1.191e-05)
(5.1258e-05 -5.4293e-05 -1.0801e-05)
(4.3055e-05 -1.2652e-05 -6.3848e-05)
(4.3059e-05 -2.4785e-05 -5.9859e-05)
(4.3084e-05 -3.5931e-05 -5.3712e-05)
(4.3091e-05 -4.5688e-05 -4.5688e-05)
(4.3084e-05 -5.3713e-05 -3.5931e-05)
(4.3059e-05 -5.9859e-05 -2.4786e-05)
(4.3056e-05 -6.3849e-05 -1.2652e-05)
(3.8532e-05 -1.3018e-05 -6.5508e-05)
(3.8535e-05 -2.5466e-05 -6.1438e-05)
(3.8549e-05 -3.6848e-05 -5.5101e-05)
(3.8562e-05 -4.682e-05 -4.6821e-05)
(3.855e-05 -5.5101e-05 -3.6849e-05)
(3.8536e-05 -6.1438e-05 -2.5466e-05)
(3.8533e-05 -6.5509e-05 -1.3019e-05)
(3.3845e-05 -1.3012e-05 -6.5257e-05)
(3.3836e-05 -2.5412e-05 -6.1242e-05)
(3.3847e-05 -3.6685e-05 -5.4887e-05)
(3.3858e-05 -4.6576e-05 -4.6576e-05)
(3.3847e-05 -5.4887e-05 -3.6685e-05)
(3.3837e-05 -6.1242e-05 -2.5413e-05)
(3.3846e-05 -6.5257e-05 -1.3013e-05)
(2.9112e-05 -1.264e-05 -6.3401e-05)
(2.9075e-05 -2.4673e-05 -5.9533e-05)
(2.9095e-05 -3.5616e-05 -5.3338e-05)
(2.9122e-05 -4.5234e-05 -4.5234e-05)
(2.9095e-05 -5.3337e-05 -3.5617e-05)
(2.9075e-05 -5.9532e-05 -2.4674e-05)
(2.9113e-05 -6.34e-05 -1.2641e-05)
(2.4443e-05 -1.1937e-05 -5.995e-05)
(2.4383e-05 -2.3308e-05 -5.6303e-05)
(2.4412e-05 -3.3664e-05 -5.0442e-05)
(2.4457e-05 -4.2759e-05 -4.276e-05)
(2.4413e-05 -5.0441e-05 -3.3665e-05)
(2.4383e-05 -5.6302e-05 -2.331e-05)
(2.4444e-05 -5.9949e-05 -1.1938e-05)
(2.0075e-05 -1.0809e-05 -5.4365e-05)
(2.0019e-05 -2.1128e-05 -5.1003e-05)
(2.0041e-05 -3.0553e-05 -4.5726e-05)
(2.0067e-05 -3.8832e-05 -3.8833e-05)
(2.0041e-05 -4.5725e-05 -3.0554e-05)
(2.002e-05 -5.1002e-05 -2.1129e-05)
(2.0076e-05 -5.4363e-05 -1.081e-05)
(1.642e-05 -9.081e-06 -4.5645e-05)
(1.6346e-05 -1.7755e-05 -4.2792e-05)
(1.638e-05 -2.567e-05 -3.8375e-05)
(1.6396e-05 -3.2655e-05 -3.2656e-05)
(1.638e-05 -3.8373e-05 -2.5671e-05)
(1.6346e-05 -4.279e-05 -1.7756e-05)
(1.642e-05 -4.5644e-05 -9.082e-06)
(1.3413e-05 -6.7474e-06 -3.3694e-05)
(1.3297e-05 -1.3137e-05 -3.1671e-05)
(1.336e-05 -1.8913e-05 -2.8353e-05)
(1.3442e-05 -2.4013e-05 -2.4014e-05)
(1.336e-05 -2.8352e-05 -1.8914e-05)
(1.3297e-05 -3.1669e-05 -1.3138e-05)
(1.3413e-05 -3.3693e-05 -6.7483e-06)
(1.0016e-05 -4.1958e-06 -2.0692e-05)
(9.8626e-06 -8.108e-06 -1.9575e-05)
(9.9601e-06 -1.1562e-05 -1.7449e-05)
(1.0106e-05 -1.4617e-05 -1.4618e-05)
(9.9601e-06 -1.7448e-05 -1.1563e-05)
(9.8626e-06 -1.9574e-05 -8.1086e-06)
(1.0016e-05 -2.0691e-05 -4.1965e-06)
(5.4064e-06 -1.8766e-06 -9.1684e-06)
(5.323e-06 -3.5989e-06 -8.7007e-06)
(5.3745e-06 -5.1059e-06 -7.7463e-06)
(5.4356e-06 -6.4681e-06 -6.4685e-06)
(5.3745e-06 -7.7458e-06 -5.1063e-06)
(5.323e-06 -8.7002e-06 -3.5992e-06)
(5.4064e-06 -9.1679e-06 -1.877e-06)
(7.9997e-09 -1.2995e-08 1.0353e-09)
(2.6345e-12 3.0748e-13 8.4048e-13)
(6.4924e-09 1.0194e-08 -4.0716e-09)
(1.2706e-12 -6.8281e-12 -6.8283e-12)
(6.4931e-09 -4.0696e-09 1.0196e-08)
(2.6344e-12 8.4054e-13 3.0732e-13)
(7.9988e-09 1.0372e-09 -1.2996e-08)
)
;
    }
    procBoundary3to2
    {
        type            processor;
    }
}


// ************************************************************************* //
