/*--------------------------------*- C++ -*----------------------------------*\
| =========                 |                                                 |
| \\      /  F ield         | foam-extend: Open Source CFD                    |
|  \\    /   O peration     | Version:     4.1-20200408                       |
|   \\  /    A nd           | Web:         http://www.foam-extend.org         |
|    \\/     M anipulation  |                                                 |
\*---------------------------------------------------------------------------*/
FoamFile
{
    version     2.0;
    format      ascii;
    class       volScalarField;
    location    "0.0450000";
    object      ccz;
}
// * * * * * * * * * * * * * * * * * * * * * * * * * * * * * * * * * * * * * //

dimensions      [0 1 0 0 0 0 0];

internalField   nonuniform List<scalar> 
1952
(
-1.38912e-12
2.83487e-12
-4.29059e-12
-1.24061e-11
8.04152e-12
2.50002e-11
1.22128e-11
1.23736e-22
1.27297e-11
2.5e-11
-3.80801e-13
-1.23251e-11
7.09684e-22
1.26477e-11
1.23631e-11
-1.04681e-13
2.75035e-22
5.33352e-12
-3.09489e-12
-1.24074e-11
-4.84844e-12
2.036e-22
4.85108e-22
-3.88975e-22
1.25234e-21
1.26988e-11
-3.62827e-13
-1.23332e-11
0
2.52882e-11
2.47303e-11
-1.04686e-13
-1.38887e-12
2.83339e-12
-4.28613e-12
-1.24074e-11
-4.84844e-12
2.54471e-22
4.85053e-22
-1.27451e-11
4.38976e-13
2.49996e-11
1.23184e-11
-1.26668e-11
-1.23447e-11
1.26438e-11
1.23649e-11
-1.0468e-13
-1.66669e-12
1.66647e-12
-4.28579e-12
-1.24074e-11
-4.84844e-12
3.56324e-22
7.05592e-22
-1.27454e-11
4.38987e-13
2.50003e-11
-3.6237e-13
-2.5e-11
-1.23459e-11
9.08437e-23
4.24612e-22
1.56197e-12
8.33309e-13
4.16688e-12
-1.78579e-12
-1.12037e-11
-4.84844e-12
1.01806e-22
7.49757e-22
1.08929e-21
1.27193e-11
2.49996e-11
-3.64015e-13
-1.23336e-11
-1.95367e-21
-4.54214e-22
-1.26342e-11
3.22866e-12
8.33229e-13
4.1665e-12
-1.78575e-12
-1.25e-11
6.8188e-12
2.49996e-11
1.22215e-11
-3.89067e-23
2.5439e-11
3.73016e-11
-3.62545e-13
-2.49996e-11
-1.23451e-11
1.36303e-21
-2.52705e-11
3.22867e-12
-5.55402e-13
3.00027e-12
-3.0953e-12
-1.5e-11
5.60582e-12
3.78212e-11
2.4445e-11
0
2.5439e-11
2.46019e-11
-1.26812e-11
-2.50004e-11
-1.23454e-11
1.26439e-11
-2.69319e-13
3.22868e-12
8.33307e-13
4.16667e-12
-1.78579e-12
-1.25e-11
-6.06036e-12
1.28208e-11
1.22223e-11
-1.27451e-11
1.31587e-11
2.46027e-11
5.74431e-23
-8.44951e-22
1.07489e-21
1.26443e-11
1.23649e-11
3.22868e-12
2.22222e-12
4.00003e-12
-1.66669e-12
-1e-11
-4.84844e-12
1.28204e-11
1.22219e-11
-2.54905e-11
8.79637e-13
2.46036e-11
5.74535e-22
-1.26673e-11
-1.23451e-11
0
1.27438e-21
3.22869e-12
-2.77821e-13
2.83319e-12
-2.97624e-12
-1.12036e-11
-4.84844e-12
1.28208e-11
1.22218e-11
-2.54897e-11
-1.18413e-11
1.23011e-11
1.89595e-21
-1.26672e-11
3.09019e-13
1.23553e-11
9.34724e-22
1.56205e-12
-1.38887e-12
4.16688e-12
-3.0953e-12
-1.24074e-11
-4.84844e-12
-5.09302e-23
-4.85397e-22
-1.27455e-11
-1.22807e-11
-9.44568e-22
-1.03424e-21
-1.4789e-21
1.26549e-11
1.23565e-11
8.49823e-23
-1.04633e-13
-2.77856e-13
4.16671e-12
-3.0953e-12
-1.24075e-11
-4.84844e-12
1.28209e-11
1.22219e-11
1.28464e-21
1.32308e-21
6.29768e-23
-1.26812e-11
-1.23324e-11
1.26546e-11
2.49995e-11
1.2365e-11
1.56201e-12
8.33427e-13
2.83336e-12
-4.28612e-12
-1.24074e-11
-4.84844e-12
1.28209e-11
1.22223e-11
-1.27455e-11
-1.22803e-11
1.13346e-21
-2.53628e-11
-3.73332e-11
3.09768e-13
2.50004e-11
1.23657e-11
3.22871e-12
-2.77742e-13
2.83335e-12
-2.97628e-12
-1.12037e-11
-4.84844e-12
1.28205e-11
1.22218e-11
-2.54905e-11
-1.18418e-11
1.23008e-11
-1.26816e-11
-2.50004e-11
-1.23455e-11
1.27293e-21
3.40015e-22
1.56208e-12
-1.38891e-12
2.83336e-12
-1.66641e-12
-1.12963e-11
-6.06033e-12
1.28205e-11
1.22222e-11
-1.27455e-11
1.31596e-11
2.46036e-11
-5.74849e-23
-2.11365e-22
7.82078e-22
-9.09212e-23
-1.26347e-11
-1.04606e-13
-7.11383e-23
3.99999e-12
-1.66673e-12
-1.12963e-11
-6.06057e-12
-7.13352e-22
-7.94571e-22
3.89348e-22
2.54382e-11
2.46019e-11
5.74787e-23
-1.26663e-11
-1.23447e-11
9.09293e-23
-1.2635e-11
-1.04607e-13
-1.46828e-23
5.33335e-12
-4.76244e-13
-1e-11
8.03027e-12
2.49995e-11
1.22219e-11
-1.0126e-21
1.27201e-11
1.2302e-11
-1.26816e-11
-2.5e-11
-1.23459e-11
-1.00041e-21
-5.10114e-22
-1.04598e-13
5.87461e-23
4.00003e-12
-1.66698e-12
-1.12963e-11
6.81856e-12
2.50004e-11
1.22223e-11
3.50509e-22
-8.36004e-22
1.26989e-11
-3.62279e-13
-2.5e-11
3.09394e-13
2.49996e-11
1.2365e-11
-1.04592e-13
-1.95136e-22
4e-12
-1.66673e-12
-1.12963e-11
-6.06057e-12
2.03849e-22
-6.18167e-22
-4.67434e-22
1.39346e-22
1.26984e-11
1.23184e-11
-1.26672e-11
3.09402e-13
2.50004e-11
1.23653e-11
-1.04583e-13
1.11105e-12
4.00003e-12
-2.97621e-12
-1.12037e-11
8.03027e-12
1.21792e-11
7.94861e-22
2.33715e-22
1.27193e-11
1.23008e-11
-1.26812e-11
-2.49997e-11
-1.23451e-11
-2.7286e-22
-1.10542e-21
1.56203e-12
8.3335e-13
1.50003e-12
-4.16673e-12
-1.12037e-11
8.03065e-12
1.21795e-11
6.18342e-22
-1.27455e-11
1.31587e-11
3.73012e-11
-3.63194e-13
-2.50004e-11
3.09862e-13
1.23561e-11
5.10333e-22
3.22876e-12
-2.77785e-13
1.5e-12
-4.16669e-12
-1.12037e-11
-4.84844e-12
4.07846e-22
1.32499e-22
-2.54897e-11
-1.18413e-11
2.50004e-11
1.23191e-11
1.16323e-21
2.53094e-11
2.47118e-11
-1.531e-21
1.56212e-12
1.11109e-12
4e-12
-2.97628e-12
-1.12037e-11
-4.84844e-12
6.62747e-22
-2.20849e-22
-1.27459e-11
4.38631e-13
2.49996e-11
-3.63656e-13
-1.23328e-11
2.53094e-11
2.47109e-11
-5.10281e-22
1.56208e-12
1.11117e-12
5.33352e-12
-1.78575e-12
-1.12037e-11
-4.84827e-12
2.03939e-22
6.18498e-22
-1.27455e-11
4.39347e-13
2.50004e-11
-3.62839e-13
-2.5e-11
3.09764e-13
1.23561e-11
1.70143e-21
1.56216e-12
-2.77857e-13
2.83338e-12
-2.97624e-12
-1.12037e-11
-4.84844e-12
4.07952e-22
3.53422e-22
-2.54897e-11
-1.18405e-11
1.23012e-11
1.72572e-21
-1.26672e-11
-1.23455e-11
-1.82004e-22
4.25394e-22
1.56206e-12
-1.66666e-12
3.33354e-13
-4.1667e-12
-1.12036e-11
-4.8486e-12
-5.09932e-23
-3.97632e-22
-1.27459e-11
4.38171e-13
1.23011e-11
-1.26812e-11
-1.23324e-11
2.05472e-21
-3.6404e-22
8.50871e-23
1.56215e-12
-1.38891e-12
2.83315e-12
-4.28616e-12
-1.24074e-11
-4.84844e-12
-4.59026e-22
-4.86034e-22
-1.27447e-11
4.39809e-13
1.23012e-11
-1.26816e-11
-1.23332e-11
-1.95706e-22
-8.1899e-22
-2.46725e-21
-1.04538e-13
1.11113e-12
5.33352e-12
-3.0953e-12
-1.37037e-11
6.8188e-12
2.49997e-11
1.22219e-11
-1.27459e-11
4.38995e-13
1.23015e-11
0
-4.23175e-22
1.3702e-21
4.5513e-22
1.36162e-21
1.56214e-12
2.22214e-12
4.00004e-12
-2.97591e-12
-1.25e-11
1.96972e-11
3.71796e-11
1.22218e-11
2.33898e-22
1.27197e-11
1.23012e-11
-4.60353e-22
-1.26667e-11
-1.23451e-11
-9.10349e-22
0
3.22875e-12
2.22222e-12
4e-12
-1.66673e-12
-1e-11
8.03061e-12
1.21791e-11
-1.76787e-22
6.23781e-22
2.54382e-11
3.73008e-11
1.2318e-11
-1.26672e-11
3.09029e-13
2.49996e-11
1.23654e-11
3.22887e-12
-2.77741e-13
2.83339e-12
-1.66698e-12
-1.12963e-11
6.81813e-12
1.21792e-11
7.95687e-22
2.33939e-22
2.5439e-11
3.73016e-11
-3.62367e-13
-2.49997e-11
3.10686e-13
2.50004e-11
1.23653e-11
1.56215e-12
-2.77778e-12
1.66667e-12
-1.66673e-12
-1.25926e-11
5.60644e-12
1.21795e-11
5.74657e-22
-1.27446e-11
1.31599e-11
2.46027e-11
-2.53628e-11
-3.73333e-11
-1.23454e-11
-1.18378e-21
1.27687e-21
-1.04505e-13
-2.77778e-12
3.00003e-12
-1.78538e-12
-1.25e-11
6.81813e-12
1.21791e-11
-1.32639e-22
-2.54914e-11
8.77996e-13
2.46027e-11
-1.26816e-11
-1.23328e-11
-2.44738e-21
3.64201e-22
1.19175e-21
-1.04503e-13
-2.77778e-12
3.00003e-12
-3.09572e-12
-1.24074e-11
8.03068e-12
1.21796e-11
-1.27777e-11
-2.5e-11
4.39004e-13
1.23012e-11
6.90762e-22
8.46654e-22
-6.8533e-22
1.27482e-21
-3.40534e-22
-1.04497e-13
-1.6667e-12
3.00003e-12
-3.09531e-12
-1.24074e-11
-4.84844e-12
1.28204e-11
-5.57218e-13
-2.5e-11
4.38991e-13
1.23012e-11
5.75749e-22
-1.26668e-11
-1.23446e-11
1.26443e-11
1.23649e-11
1.56214e-12
-1.66664e-12
3.00004e-12
-3.09572e-12
-1.24075e-11
8.03071e-12
3.78204e-11
2.44441e-11
-1.27455e-11
4.3984e-13
1.23016e-11
-1.26812e-11
-2.5e-11
3.0898e-13
2.5e-11
1.23654e-11
1.56219e-12
-1.66671e-12
1.66694e-12
-4.28538e-12
-1.37036e-11
1.96963e-11
5e-11
2.44449e-11
-1.27454e-11
4.39006e-13
1.23012e-11
-1.2682e-11
-1.23333e-11
1.2655e-11
1.23558e-11
-5.96011e-22
1.56214e-12
8.33265e-13
2.83314e-12
-4.28587e-12
-1.5e-11
5.6072e-12
3.78208e-11
2.44434e-11
-1.27454e-11
4.39115e-13
1.23014e-11
2.30364e-22
2.11767e-22
1.26547e-11
1.23555e-11
3.40625e-22
3.2289e-12
1.11116e-12
5.33336e-12
-1.7858e-12
-1.25001e-11
-6.06058e-12
1.28211e-11
1.22225e-11
-1.2745e-11
-1.22801e-11
-4.41841e-22
-1.20951e-21
-1.26669e-11
1.2965e-11
3.73554e-11
1.23647e-11
1.56227e-12
1.11105e-12
5.33335e-12
-4.76227e-13
-1e-11
-4.84844e-12
1.28202e-11
1.22216e-11
-1.27457e-11
4.38493e-13
1.23008e-11
1.03689e-21
-1.26674e-11
1.29646e-11
5e-11
2.47297e-11
1.56212e-12
1.11118e-12
5.33335e-12
-4.76233e-13
-1e-11
8.02978e-12
2.5e-11
1.22226e-11
-1.27449e-11
1.31591e-11
2.46026e-11
-1.26813e-11
-1.23324e-11
1.26552e-11
2.50005e-11
1.2365e-11
1.56231e-12
1.11103e-12
5.33333e-12
-4.76173e-13
-1e-11
2.09092e-11
2.43588e-11
1.77053e-22
-1.27459e-11
1.31581e-11
2.46026e-11
-2.53631e-11
-2.46655e-11
3.91933e-22
1.26442e-11
1.23644e-11
1.5621e-12
1.11121e-12
5.33334e-12
-1.7856e-12
-1.12036e-11
2.09091e-11
3.71786e-11
1.22214e-11
-1.95258e-22
1.27201e-11
1.23018e-11
-1.2682e-11
-1.23332e-11
1.66605e-21
2.52893e-11
2.47291e-11
1.56236e-12
1.11102e-12
4.00012e-12
-2.97616e-12
-1.12038e-11
8.03126e-12
2.50019e-11
1.22232e-11
7.03065e-22
1.27187e-11
1.23007e-11
-1.26809e-11
-1.23324e-11
-4.90091e-22
1.2645e-11
1.23648e-11
1.56208e-12
8.33482e-13
2.83327e-12
-1.66674e-12
-1e-11
-4.84852e-12
2.04493e-22
7.97284e-22
-5.07894e-22
1.27203e-11
1.23023e-11
-1.26822e-11
-1.23335e-11
1.96086e-21
-1.27639e-21
-1.26356e-11
3.22889e-12
8.33196e-13
4.1665e-12
-4.76065e-13
-1e-11
8.02869e-12
1.21784e-11
-2.65829e-22
-1.27437e-11
4.38367e-13
1.23006e-11
1.1536e-22
-1.26661e-11
3.09983e-13
1.23546e-11
-2.52725e-11
3.2289e-12
8.33547e-13
2.83361e-12
-1.66641e-12
-1.12961e-11
6.8196e-12
2.49999e-11
1.2221e-11
-2.54896e-11
8.76381e-13
2.46035e-11
-1.26799e-11
-3.76657e-11
-1.20342e-11
1.23563e-11
-1.26373e-11
3.22891e-12
-2.77799e-13
2.83293e-12
-1.66669e-12
-1.12964e-11
-6.0609e-12
1.28219e-11
1.22242e-11
-1.27463e-11
4.38015e-13
1.23034e-11
-1.26826e-11
-3.76682e-11
-1.20372e-11
2.4997e-11
1.23629e-11
1.56248e-12
1.11097e-12
5.33328e-12
-1.78532e-12
-1.12036e-11
-4.84863e-12
1.28184e-11
1.22209e-11
-1.27429e-11
4.37571e-13
1.23004e-11
-1.2706e-21
-1.26682e-11
3.08886e-13
3.76457e-11
2.47295e-11
1.56203e-12
1.11128e-12
4.00013e-12
-2.97598e-12
-1.12039e-11
8.02802e-12
3.78183e-11
2.44455e-11
-2.54891e-11
8.74763e-13
3.73004e-11
1.23176e-11
3.1874e-22
1.26526e-11
2.5e-11
1.23664e-11
1.56249e-12
-2.77726e-13
2.83322e-12
-2.97595e-12
-1.24997e-11
6.81935e-12
2.50034e-11
1.22245e-11
-2.54888e-11
8.74225e-13
3.73042e-11
1.23214e-11
-1.06313e-22
1.26554e-11
2.5e-11
1.23647e-11
1.56206e-12
8.33247e-13
2.83328e-12
-4.28529e-12
-1.37039e-11
6.81572e-12
1.21787e-11
-7.54177e-22
-1.27459e-11
4.36818e-13
1.23042e-11
-6.36221e-22
5.31848e-22
1.96891e-22
1.26441e-11
1.23669e-11
3.22894e-12
1.11121e-12
3.99981e-12
-4.28552e-12
-1.24075e-11
2.09078e-11
2.43603e-11
5.32387e-22
-1.27429e-11
-1.22805e-11
-1.90122e-22
-1.26783e-11
-2.49972e-11
3.0561e-13
1.23572e-11
2.57175e-22
1.56242e-12
1.11108e-12
3.99999e-12
-4.28532e-12
-1.24075e-11
2.09077e-11
3.71794e-11
1.22223e-11
-1.2745e-11
4.34507e-13
1.23021e-11
-2.53589e-11
-5e-11
-1.20432e-11
1.23592e-11
1.11567e-21
1.56222e-12
8.33387e-13
2.83321e-12
-2.97591e-12
-1.12038e-11
2.09076e-11
3.71805e-11
1.22233e-11
-1.27438e-11
4.36333e-13
1.23032e-11
-1.26791e-11
-2.49996e-11
-1.23487e-11
1.83645e-21
-1.26311e-11
3.22896e-12
8.33447e-13
2.8332e-12
-2.97597e-12
-1.25001e-11
6.81641e-12
2.5e-11
1.22241e-11
-1.27427e-11
4.3778e-13
1.23049e-11
-1.26804e-11
-2.50039e-11
-1.23522e-11
1.8378e-22
-1.26244e-11
3.22896e-12
2.22227e-12
4.00004e-12
-2.97542e-12
-1.37961e-11
5.60657e-12
2.49999e-11
1.22213e-11
-1.56491e-22
2.54345e-11
2.4608e-11
-1.26744e-11
-2.49923e-11
3.06755e-13
1.23666e-11
6.02963e-22
3.22897e-12
1.11089e-12
5.3331e-12
-4.75554e-13
-1.25924e-11
5.60018e-12
1.21771e-11
1.7729e-22
3.91215e-22
1.27117e-11
1.22993e-11
1.15825e-21
-1.26683e-11
2.86902e-13
1.23575e-11
-4.31055e-22
1.56193e-12
-1.3894e-12
4.1658e-12
-4.7536e-13
-1.25923e-11
-7.27369e-12
1.28248e-11
1.22306e-11
-1.27494e-11
-1.22902e-11
-5.07232e-22
-5.21337e-22
-2.53249e-11
-2.47017e-11
4.60285e-22
1.81147e-21
-1.04336e-13
-1.38803e-12
4.1669e-12
-1.78537e-12
-1.24999e-11
-6.06076e-12
2.56367e-11
2.44492e-11
-1.27339e-11
4.4973e-13
1.23132e-11
-1.26862e-11
-2.49998e-11
3.15031e-13
2.5014e-11
1.23782e-11
-1.0433e-13
-1.38987e-12
4.16531e-12
-1.78354e-12
-1.1203e-11
8.0374e-12
2.49995e-11
1.22152e-11
7.82677e-23
2.54326e-11
2.46097e-11
-2.53553e-11
-2.46742e-11
2.53004e-11
3.73533e-11
1.23647e-11
-1.04324e-13
-2.7546e-13
4.16721e-12
-1.78571e-12
-1.12049e-11
8.01642e-12
1.21711e-11
3.54704e-22
7.8283e-23
1.27057e-11
1.22945e-11
-2.5356e-11
-2.46733e-11
1.26419e-11
2.50001e-11
1.23758e-11
1.5638e-12
-2.80077e-13
4.16512e-12
-1.7834e-12
-1.12027e-11
-4.84921e-12
-9.71955e-22
-1.77405e-22
-1.27539e-11
4.33653e-13
1.23148e-11
-1.2668e-11
-1.23263e-11
-1.48294e-21
2.52831e-11
2.47352e-11
1.56072e-12
-2.75246e-13
4.1674e-12
-1.786e-12
-8.6102e-12
-2.42226e-12
1.28306e-11
1.22356e-11
-2.54857e-11
-1.18604e-11
2.50003e-11
-3.58298e-13
-1.23449e-11
1.18623e-21
2.52858e-11
2.47317e-11
1.56397e-12
1.11011e-12
5.33307e-12
-1.78361e-12
-6.01802e-12
1.28891e-11
3.78299e-11
1.16607e-11
-2.49996e-11
4.56087e-13
2.49997e-11
-3.58773e-13
-1.23253e-11
-1.08718e-21
1.26363e-11
1.23574e-11
1.56078e-12
-1.39004e-12
4.16534e-12
-4.75492e-13
-4.81525e-12
1.28665e-11
3.78088e-11
1.16822e-11
-2.50004e-11
4.15166e-13
1.22934e-11
-6.37792e-22
8.538e-22
5.9291e-22
1.2653e-11
-2.74795e-13
-1.043e-13
-2.77771e-12
2.99963e-12
-4.75526e-13
-1.77869e-11
7.55825e-13
2.49995e-11
1.22145e-11
-2.54873e-11
-2.45639e-11
-1.27015e-22
5.79882e-22
-1.26755e-11
-1.23519e-11
1.26392e-11
-2.77182e-13
-1.04297e-13
-1.38796e-12
4.16713e-12
-4.75559e-13
-3.07392e-11
1.51068e-12
3.71889e-11
1.22313e-11
-2.54878e-11
-1.18369e-11
2.50158e-11
1.23265e-11
-1.266e-11
3.2828e-13
1.23591e-11
0
-1.04295e-13
1.11175e-12
3.9991e-12
-1.66678e-12
-1.77703e-11
1.36398e-11
5e-11
2.44467e-11
-1.27373e-11
1.31618e-11
5e-11
1.19483e-11
-1.23382e-11
1.26508e-11
1.23454e-11
9.45219e-22
1.56327e-12
1.11063e-12
4.00047e-12
-1.66565e-12
-4.81516e-12
2.57557e-11
5e-11
2.44466e-11
-1.02101e-21
1.27134e-11
2.499e-11
-3.63694e-13
-1.2326e-11
1.26637e-11
1.23571e-11
-1.11646e-21
1.56159e-12
-1.38941e-12
2.83219e-12
-2.97665e-12
-1.89862e-11
7.47103e-13
2.49914e-11
1.22191e-11
5.50097e-22
-2.10919e-22
8.90416e-22
-1.26857e-11
-1.23352e-11
1.26533e-11
2.50001e-11
-2.81611e-13
-1.04289e-13
-2.76928e-13
2.834e-12
-4.28497e-12
-3.31474e-11
-1.13618e-11
1.21834e-11
4.89982e-22
-7.85987e-23
7.03073e-23
-6.35927e-23
-1.26795e-11
-1.23292e-11
-3.94926e-22
2.52957e-11
1.20848e-11
1.56292e-12
1.11082e-12
5.33327e-12
-3.09502e-12
-2.01818e-11
7.57091e-13
1.21768e-11
8.90564e-23
-1.27478e-11
-1.22827e-11
4.44877e-22
1.15997e-22
1.06674e-22
9.87048e-23
1.26439e-11
1.2358e-11
1.56192e-12
9.74209e-23
5.3333e-12
-1.78538e-12
-6.01829e-12
-3.64253e-22
1.28231e-11
1.22243e-11
-1.27432e-11
4.43444e-13
1.23027e-11
-3.47828e-22
-4.26504e-22
1.2657e-11
2.50031e-11
1.23651e-11
-1.04286e-13
-4.26016e-23
5.33332e-12
-4.76136e-13
-1.77801e-11
7.57809e-13
2.49999e-11
1.22201e-11
0
1.27182e-11
1.22994e-11
4.63613e-22
6.39565e-22
1.26544e-11
3.76439e-11
2.47276e-11
-1.04287e-13
1.1113e-12
3.9998e-12
-1.66685e-12
-1.77759e-11
7.57714e-13
1.21776e-11
-8.89258e-22
-1.2747e-11
4.39732e-13
2.50025e-11
1.2319e-11
-2.34438e-21
2.95887e-22
1.2644e-11
1.23631e-11
1.56265e-12
1.11096e-12
2.66667e-12
-4.16689e-12
-1.89833e-11
-1.21225e-11
-2.05193e-22
-6.66749e-22
-2.54911e-11
8.79427e-13
3.72998e-11
1.23171e-11
6.39273e-22
1.26563e-11
2.50018e-11
1.23653e-11
1.56215e-12
-2.6564e-22
4.00016e-12
-2.97579e-12
-1.89802e-11
-1.212e-11
2.05136e-22
2.66621e-22
-2.54914e-11
8.78632e-13
2.46013e-11
-1.26825e-11
-2.50015e-11
3.086e-13
3.76439e-11
2.47292e-11
-1.04285e-13
-1.38901e-12
4.16657e-12
-4.76545e-13
-4.81481e-12
9.08849e-23
8.71478e-22
-8.8846e-23
-2.54911e-11
-1.18416e-11
2.5e-11
-3.63473e-13
-3.76664e-11
-2.46897e-11
1.26438e-11
1.23641e-11
-1.04286e-13
-2.77778e-12
3e-12
-1.7858e-12
-6.01838e-12
-1.21166e-22
1.28217e-11
1.22225e-11
-1.27448e-11
4.41606e-13
2.5e-11
1.23178e-11
-1.26669e-11
3.11574e-13
2.50014e-11
1.23655e-11
-1.04286e-13
-1.3888e-12
4.16674e-12
-1.78602e-12
-1.89821e-11
7.58471e-13
3.78211e-11
2.44436e-11
2.35088e-22
1.27191e-11
1.23002e-11
1.27358e-21
-6.39081e-22
1.26546e-11
2.49988e-11
1.23641e-11
-1.04286e-13
1.11117e-12
4.00007e-12
-2.97629e-12
-3.19445e-11
-1.13629e-11
3.78204e-11
2.44436e-11
-1.27456e-11
4.40287e-13
2.5001e-11
1.23185e-11
1.06498e-21
1.26552e-11
2.50011e-11
1.23658e-11
1.56246e-12
2.22214e-12
4.00005e-12
-4.28565e-12
-2.01849e-11
7.5844e-13
2.5e-11
1.22214e-11
-2.5491e-11
8.77014e-13
3.73004e-11
1.23181e-11
-1.26675e-11
1.29649e-11
3.73555e-11
1.23652e-11
3.22905e-12
1.11112e-12
5.33333e-12
-1.78605e-12
-6.0185e-12
1.28788e-11
1.21787e-11
1.33187e-22
-2.5491e-11
-1.18399e-11
1.23009e-11
-1.26815e-11
-2.5e-11
3.08488e-13
2.5e-11
1.23653e-11
1.56236e-12
1.1111e-12
5.3335e-12
-4.75821e-13
-4.81465e-12
0
0
3.55148e-22
-1.27452e-11
4.39262e-13
1.23015e-11
-1.26817e-11
-2.5e-11
-1.23457e-11
1.26436e-11
1.23648e-11
1.56239e-12
1.11109e-12
5.33333e-12
-4.76521e-13
-4.81482e-12
1.81596e-22
-1.02438e-22
4.4392e-22
-1.27458e-11
4.38952e-13
1.23009e-11
-5.20946e-22
-1.26662e-11
-1.23445e-11
-8.26136e-22
-1.54587e-21
1.56235e-12
1.11113e-12
5.33333e-12
-4.76521e-13
-4.81483e-12
1.2879e-11
2.50005e-11
1.2222e-11
-2.5491e-11
-1.18419e-11
1.23015e-11
-1.26814e-11
-1.23328e-11
-2.95826e-22
-7.34455e-22
-8.58747e-22
1.56241e-12
1.1111e-12
5.3335e-12
-4.75821e-13
-4.81465e-12
1.2879e-11
2.49996e-11
1.22216e-11
-1.27448e-11
1.31593e-11
3.73019e-11
-1.30444e-11
-2.46659e-11
1.26545e-11
2.50007e-11
1.2366e-11
1.56236e-12
1.11113e-12
5.33333e-12
-4.76522e-13
-4.81482e-12
7.86936e-22
1.28207e-11
1.2222e-11
1.56657e-22
2.54385e-11
3.7301e-11
-3.63087e-13
-2.5e-11
1.29639e-11
3.73556e-11
1.23653e-11
1.5624e-12
1.1111e-12
3.99985e-12
-1.66697e-12
-4.81482e-12
-5.14553e-22
2.56418e-11
2.44454e-11
7.83378e-22
2.54394e-11
2.46033e-11
-6.36853e-22
-1.26668e-11
3.09427e-13
2.5e-11
1.23659e-11
1.5624e-12
1.11112e-12
4.00014e-12
-1.66634e-12
-4.81465e-12
6.05385e-23
1.28204e-11
1.22216e-11
-1.27452e-11
4.39085e-13
1.23014e-11
8.68443e-22
-1.06513e-22
-5.91773e-22
1.26434e-11
1.2365e-11
1.5624e-12
-2.77795e-13
4.16665e-12
-4.76524e-13
-4.81482e-12
-1.51335e-22
1.28206e-11
1.2222e-11
-2.54901e-11
-2.45615e-11
-1.01461e-21
-4.63172e-22
-1.26668e-11
-1.23455e-11
1.26439e-11
1.23655e-11
1.56237e-12
-2.77786e-12
3e-12
-4.76174e-13
-4.81482e-12
1.28789e-11
3.7821e-11
2.44445e-11
-1.27449e-11
4.39734e-13
2.50004e-11
1.2319e-11
-2.53341e-11
-2.46914e-11
1.26439e-11
1.23659e-11
-1.04289e-13
-1.38883e-12
4.16667e-12
-1.78571e-12
-6.01832e-12
1.28787e-11
3.78203e-11
2.44445e-11
-1.27456e-11
4.38158e-13
2.49997e-11
1.23183e-11
-1.26664e-11
-1.23455e-11
-7.34807e-22
1.37475e-21
-1.04282e-13
-2.77776e-13
4.16666e-12
-1.78569e-12
-6.01851e-12
-9.08137e-23
2.5641e-11
2.44445e-11
-1.27449e-11
-1.22806e-11
-1.90273e-22
-5.79058e-22
5.32758e-22
-6.90561e-22
1.26439e-11
1.23658e-11
1.56239e-12
-2.77857e-13
4.16668e-12
-4.76178e-13
-4.81482e-12
6.05463e-23
1.28208e-11
1.22221e-11
-4.309e-22
-1.40202e-22
8.87876e-22
-1.73703e-22
1.06544e-22
-5.91921e-22
1.26435e-11
1.23655e-11
1.56237e-12
1.11112e-12
5.33351e-12
-4.76178e-13
-4.81482e-12
-6.05429e-23
1.28202e-11
1.22219e-11
1.33192e-21
3.50483e-22
1.26981e-11
-3.63156e-13
-2.50003e-11
3.0861e-13
2.50004e-11
1.23658e-11
1.56236e-12
1.1111e-12
5.33333e-12
-4.76179e-13
-4.81482e-12
-4.84418e-22
1.28208e-11
1.22221e-11
-1.56719e-22
1.27199e-11
2.5e-11
-3.61388e-13
-2.49997e-11
1.29644e-11
3.73562e-11
1.23655e-11
1.56237e-12
1.11112e-12
5.33316e-12
-4.7653e-13
-1.77779e-11
-1.21214e-11
-4.6112e-22
6.21669e-22
-1.17532e-22
1.27187e-11
1.23015e-11
-1.67965e-21
1.27878e-21
1.26541e-11
2.5e-11
1.23658e-11
1.56243e-12
-2.77794e-13
4.16666e-12
-4.7618e-13
-1.77776e-11
-1.21211e-11
-2.56193e-22
-3.10817e-22
-1.27452e-11
4.38583e-13
1.23017e-11
-1.15842e-21
6.39411e-22
-3.94706e-22
2.52882e-11
2.47312e-11
1.56237e-12
-1.66653e-12
3.00026e-12
-1.78571e-12
-6.01853e-12
7.87223e-22
-2.56206e-22
-1.77637e-22
-2.54902e-11
-1.1841e-11
1.23015e-11
-1.26812e-11
-1.23339e-11
1.57906e-21
2.52873e-11
2.47312e-11
1.56239e-12
-5.55718e-13
2.99974e-12
-1.78569e-12
-6.01851e-12
1.21118e-22
1.02488e-22
4.44162e-22
-1.27454e-11
-1.22806e-11
-1.45917e-21
-1.2681e-11
-1.23328e-11
-1.28275e-21
1.26431e-11
1.2365e-11
3.22905e-12
-5.55378e-13
3.00026e-12
-4.76182e-13
-4.81482e-12
1.28789e-11
2.50003e-11
1.22219e-11
-1.27448e-11
-1.22808e-11
-1.45938e-21
-1.26813e-11
-1.23334e-11
1.26544e-11
2.50003e-11
1.23662e-11
3.22905e-12
-1.6668e-12
2.99974e-12
-4.76182e-13
-4.81464e-12
1.28782e-11
2.49999e-11
1.22225e-11
-1.27454e-11
-1.22806e-11
1.26985e-11
-3.62012e-13
-1.23332e-11
1.26542e-11
2.49998e-11
1.2365e-11
1.56237e-12
-2.77672e-13
2.83351e-12
-1.66667e-12
-1.77779e-11
-1.21213e-11
5.12527e-23
-3.10934e-22
7.8388e-23
7.01377e-23
1.26983e-11
1.23184e-11
-1.26668e-11
-1.23458e-11
1.26438e-11
1.23662e-11
1.56239e-12
1.11106e-12
2.66667e-12
-4.16636e-12
-1.89814e-11
-1.21207e-11
1.53766e-22
-9.77281e-22
-6.27077e-22
1.27193e-11
1.23017e-11
-1.26813e-11
-2.5e-11
-1.23456e-11
1.26435e-11
-2.69767e-13
1.56237e-12
-1.2581e-22
4.00001e-12
-2.97617e-12
-6.01851e-12
1.21154e-22
-1.02506e-22
1.77679e-22
-1.27452e-11
1.31578e-11
2.46023e-11
-1.26806e-11
-1.23333e-11
-9.87186e-23
1.26438e-11
-2.6762e-13
-1.04285e-13
5.72806e-23
5.33333e-12
-1.78611e-12
-6.01853e-12
-4.54308e-22
8.71464e-22
-2.22133e-22
-1.2745e-11
1.3158e-11
2.46032e-11
-1.26812e-11
-1.2333e-11
9.87135e-23
1.26436e-11
1.23651e-11
-1.04285e-13
-4.16517e-23
5.33333e-12
-1.7857e-12
-6.01851e-12
4.24097e-22
1.02531e-21
6.66442e-22
2.35221e-22
1.27192e-11
1.23016e-11
-1.26815e-11
-2.5e-11
3.08631e-13
1.23564e-11
-3.44024e-22
-1.04285e-13
1.11112e-12
5.33333e-12
-4.76183e-13
-4.81499e-12
1.28789e-11
1.21791e-11
-5.33137e-22
-1.27452e-11
-1.22808e-11
-9.52069e-22
1.73857e-22
-1.26665e-11
1.2963e-11
3.7356e-11
1.23661e-11
1.56239e-12
1.11111e-12
5.33333e-12
-4.76184e-13
-1.77779e-11
1.36363e-11
2.4359e-11
3.99922e-22
-1.2745e-11
4.39552e-13
1.23021e-11
-1.26813e-11
-1.23334e-11
1.26547e-11
3.76431e-11
2.47303e-11
1.56237e-12
-1.38889e-12
4.16666e-12
-4.76184e-13
-1.7778e-11
1.36364e-11
3.71795e-11
1.22223e-11
3.92066e-22
2.54377e-11
2.46023e-11
-1.26811e-11
-1.23333e-11
1.26544e-11
2.5e-11
-2.68952e-13
-1.04285e-13
-1.38888e-12
4.16645e-12
-4.76184e-13
-4.81481e-12
2.57576e-11
3.71794e-11
1.22222e-11
3.92139e-23
2.54395e-11
2.46032e-11
3.47783e-22
-1.26672e-11
3.08387e-13
2.5e-11
-2.68535e-13
-1.04285e-13
-2.77776e-13
2.8335e-12
-2.97619e-12
-6.01852e-12
1.28787e-11
1.21794e-11
6.6661e-22
-1.27452e-11
1.31578e-11
3.73016e-11
-3.62311e-13
-2.5e-11
-1.23456e-11
2.52873e-11
2.47303e-11
1.56239e-12
8.33343e-13
2.83335e-12
-4.28571e-12
-7.22222e-12
1.28788e-11
2.50001e-11
1.22223e-11
-2.54902e-11
-1.18422e-11
3.76983e-11
1.19552e-11
-1.23332e-11
-9.87684e-23
1.26441e-11
1.2366e-11
3.22905e-12
8.33334e-13
4.16666e-12
-1.7857e-12
-6.01852e-12
2.57576e-11
3.71795e-11
1.22222e-11
-2.54902e-11
-2.45614e-11
1.26983e-11
1.23188e-11
-1.26667e-11
3.09526e-13
1.23568e-11
-1.54852e-21
3.22905e-12
-1.66666e-12
3e-12
-4.76185e-13
-4.81481e-12
2.57576e-11
2.4359e-11
-4.44472e-23
-1.27451e-11
-1.22806e-11
1.07945e-21
-6.37723e-22
-1.26662e-11
1.2963e-11
3.7356e-11
1.23657e-11
1.56238e-12
-2.77777e-12
3e-12
-4.76186e-13
-1.77778e-11
7.57559e-13
2.5e-11
1.22222e-11
6.66833e-22
-1.40389e-22
1.90526e-22
-1.26812e-11
-1.2333e-11
1.26539e-11
2.49999e-11
1.23655e-11
-1.04285e-13
-2.77773e-13
4.16667e-12
-4.76186e-13
-1.77778e-11
7.57593e-13
2.5e-11
-5.55657e-13
-1.22549e-11
4.91463e-22
3.81122e-22
-2.53623e-11
-2.46667e-11
4.94e-22
1.26437e-11
1.23657e-11
1.56238e-12
1.11111e-12
5.33333e-12
-1.78571e-12
-6.01852e-12
1.28788e-11
1.21795e-11
-1.27778e-11
-1.22549e-11
5.61545e-22
1.26984e-11
-3.6222e-13
-2.5e-11
3.08648e-13
2.5e-11
1.23656e-11
1.56238e-12
1.66778e-22
5.33333e-12
-3.09523e-12
-7.22222e-12
-4.85175e-22
5.13161e-22
7.56058e-22
7.84827e-23
1.40446e-22
2.53968e-11
2.46377e-11
-2.53333e-11
6.17296e-13
2.47126e-11
1.20517e-21
-1.04285e-13
-2.49243e-22
5.33333e-12
-3.09523e-12
-7.22222e-12
-6.0634e-23
1.0774e-21
0
2.35398e-22
-7.0208e-23
2.53968e-11
2.46377e-11
-2.53333e-11
6.17296e-13
2.47126e-11
0
-1.04285e-13
)
;

boundaryField
{
    wireUpstream
    {
        type            calculated;
        value           nonuniform List<scalar> 
16
(
0
5.33333e-12
-3.09523e-12
-7.22222e-12
0
0
0
-2.48339e-22
0
2.53968e-11
2.46377e-11
-2.53333e-11
6.17296e-13
2.47126e-11
5.63006e-22
-1.04285e-13
)
;
    }
    wireDownstream
    {
        type            calculated;
        value           nonuniform List<scalar> 
16
(
-2.77778e-12
3.33353e-13
-5.47624e-12
-1.24074e-11
2.09094e-11
5e-11
2.44442e-11
6.82906e-22
2.5439e-11
2.46027e-11
5.04078e-22
0
8.57432e-22
-7.97462e-22
0
-1.04695e-13
)
;
    }
    wireTopContact
    {
        type            calculated;
        value           nonuniform List<scalar> 
122
(
0
0
0
-2.49998e-11
-5e-11
-2.50002e-11
0
0
0
0
-1.97276e-21
0
-6.57644e-22
-2.49998e-11
-2.50002e-11
0
0
-6.57922e-22
-6.5782e-22
0
-6.57878e-22
0
-6.57936e-22
0
0
-6.57892e-22
0
-1.3159e-21
0
-6.58007e-22
0
0
6.581e-22
6.58004e-22
0
0
6.58106e-22
0
1.31625e-21
0
0
0
0
-2.49992e-11
-5e-11
-2.50013e-11
-6.59031e-22
0
0
0
-6.61304e-22
-6.62279e-22
0
-2.50004e-11
-2.49984e-11
-6.6864e-22
0
1.34206e-21
6.71715e-22
0
0
-6.72414e-22
6.72388e-22
0
-2.50092e-11
-2.49915e-11
0
0
-6.73529e-22
-2.50044e-11
-2.49966e-11
0
0
6.78043e-22
-6.78171e-22
-1.3567e-21
0
0
-1.3575e-21
0
0
-1.35896e-21
-6.79411e-22
-6.79637e-22
6.79869e-22
6.7982e-22
0
0
0
0
6.80351e-22
6.80608e-22
-6.8058e-22
0
0
6.80936e-22
6.80913e-22
6.81034e-22
0
0
6.81116e-22
0
6.81223e-22
1.36299e-21
-2.50001e-11
-2.49999e-11
6.81444e-22
0
0
0
-2.50001e-11
-2.49999e-11
0
0
0
6.82056e-22
0
0
0
0
0
-6.79656e-22
)
;
    }
    front
    {
        type            wedge;
    }
    back
    {
        type            wedge;
    }
}


// ************************************************************************* //
