/*--------------------------------*- C++ -*----------------------------------*\
  =========                 |
  \\      /  F ield         | OpenFOAM: The Open Source CFD Toolbox
   \\    /   O peration     | Website:  https://openfoam.org
    \\  /    A nd           | Version:  8
     \\/     M anipulation  |
\*---------------------------------------------------------------------------*/
FoamFile
{
    version     2.0;
    format      ascii;
    class       volVectorField;
    location    "0.0960000";
    object      cellDisplacement;
}
// * * * * * * * * * * * * * * * * * * * * * * * * * * * * * * * * * * * * * //

dimensions      [0 1 0 0 0 0 0];

internalField   nonuniform List<vector> 
900
(
(3.74375089070061e-28 -1.13965425843661e-06 -7.96577517818238e-14)
(3.61493257723069e-28 -1.14212019332388e-06 -7.48949692033783e-14)
(3.54097033448391e-28 -1.1463768841517e-06 -8.84231336284503e-15)
(3.45660202879211e-28 -1.15178549674062e-06 -9.40065462073528e-14)
(3.38389190165963e-28 -1.15810254887599e-06 1.2422463697692e-13)
(3.29986593890211e-28 -1.16507292610834e-06 3.36955279906847e-13)
(3.22875942960864e-28 -1.17264919874993e-06 1.9547633237619e-13)
(3.14716864454876e-28 -1.18085846054735e-06 6.89310416719235e-14)
(3.07779036372717e-28 -1.18969235870178e-06 1.49757517984153e-13)
(2.99848281986394e-28 -1.19903891627868e-06 1.29253184406476e-13)
(2.93060585223614e-28 -1.20883432685823e-06 -2.36355923272469e-14)
(2.85345804330605e-28 -1.21908334305918e-06 -2.76949453292795e-15)
(2.78710087622402e-28 -1.2298288293905e-06 1.19813636343925e-13)
(2.71205601054378e-28 -1.24103323569125e-06 -8.74995596751598e-14)
(2.64711036932101e-28 -1.25262543779895e-06 -1.98176117512949e-13)
(2.57410427576614e-28 -1.26459462092956e-06 2.90667541677998e-14)
(2.51058641083391e-28 -1.27700587041362e-06 1.8104337675563e-14)
(2.43959575073837e-28 -1.28986588938622e-06 -1.77068846790112e-13)
(2.37747175647921e-28 -1.30310424552397e-06 -1.64374516132633e-13)
(2.30845234021429e-28 -1.31671769482777e-06 1.10625490967247e-13)
(2.24773290639051e-28 -1.33075952446045e-06 6.85077729941092e-14)
(2.18069817973658e-28 -1.34527989693972e-06 2.13979115977922e-14)
(2.12138866841244e-28 -1.36024740634272e-06 -7.29939894334278e-15)
(2.05629270528666e-28 -1.37564007666673e-06 -4.95048729278708e-14)
(1.99841621528254e-28 -1.39149427066829e-06 1.6865234481737e-13)
(1.93531182730724e-28 -1.40793068933025e-06 3.29084605026381e-13)
(1.87889175810031e-28 -1.42497261275445e-06 1.7195012104895e-13)
(1.81773586941061e-28 -1.44256648296512e-06 -3.90068915764794e-15)
(1.76280026296952e-28 -1.4607398874366e-06 -2.5905667899771e-14)
(1.7036615640667e-28 -1.47967171042177e-06 -1.45910322106709e-14)
(1.65028452336952e-28 -1.49946627872165e-06 1.04463351123922e-14)
(1.59314682070602e-28 -1.52007474992528e-06 -2.63824966998123e-15)
(1.5413250221944e-28 -1.54154271453471e-06 -9.95955682145869e-14)
(1.48625725223045e-28 -1.56407366527465e-06 -9.82002213640959e-14)
(1.4361368448871e-28 -1.58794033821548e-06 -1.11635440930158e-13)
(1.38316062493897e-28 -1.61319412981389e-06 -1.29920476862003e-13)
(1.33471862595942e-28 -1.639855889541e-06 7.81797952068123e-15)
(1.28390006505221e-28 -1.66815132383326e-06 -1.73030807868867e-13)
(1.23772866424083e-28 -1.69867294659491e-06 -1.02929786828463e-13)
(1.19192564082259e-28 -1.73169426335358e-06 1.98722336101233e-13)
(1.13411807129211e-28 -1.76718788957875e-06 1.64953682801876e-13)
(1.09870444773744e-28 -1.80540408464979e-06 -1.54968039894664e-13)
(1.04499960418357e-28 -1.84738604202823e-06 -3.09451987412242e-13)
(1.01239243108453e-28 -1.8938680253068e-06 3.1899031329216e-14)
(9.61185421813745e-29 -1.94478487849921e-06 3.2740667470716e-14)
(9.30516783681391e-29 -2.00049390141053e-06 -8.08707689045956e-14)
(8.82635378319173e-29 -2.06233870935137e-06 -8.49668460113549e-14)
(8.53679537421989e-29 -2.13203128290994e-06 2.86752207138508e-14)
(8.09169781422571e-29 -2.20995644311853e-06 7.5313687421605e-14)
(7.81826033399278e-29 -2.29635253265696e-06 8.08933264150057e-14)
(7.40982254498746e-29 -2.392724222499e-06 1.25933677153702e-13)
(7.15703635369355e-29 -2.50265908911027e-06 -5.75952179864265e-14)
(6.78428200840849e-29 -2.62763862412005e-06 -2.02113350550887e-13)
(6.55076544715733e-29 -2.76742500151304e-06 -1.4194936037972e-13)
(6.21597968336425e-29 -2.9234362349613e-06 2.17562490458712e-13)
(6.00899404328988e-29 -3.10305857880725e-06 3.28910986135236e-13)
(5.71420877957051e-29 -3.31763706720785e-06 3.33030407594722e-13)
(5.53552699974037e-29 -3.57773847220851e-06 1.1595738126635e-13)
(5.30341342910681e-29 -3.89508309533823e-06 -1.16400478817248e-13)
(5.2006578904233e-29 -4.30102472416398e-06 -5.4315044782244e-14)
(5.07083752382528e-29 -4.8247695890183e-06 -1.70881264764006e-13)
(5.06226217171153e-29 -5.46457654354372e-06 -1.33637183806148e-13)
(5.05245877555666e-29 -6.21617947126511e-06 -1.92100099871187e-13)
(5.18307274526901e-29 -7.09717040674365e-06 -2.46053281855299e-13)
(5.29238740930449e-29 -8.12154185718429e-06 7.57181612981753e-14)
(5.53209441801602e-29 -9.27136539767315e-06 1.29160642813019e-13)
(5.75895418297294e-29 -1.05294121525236e-05 -2.55153636284011e-15)
(6.14467699399141e-29 -1.19046857243287e-05 -4.77053392724234e-14)
(6.47908065415497e-29 -1.33950115502225e-05 3.48512843600574e-14)
(6.97339961867686e-29 -1.49699825255027e-05 1.91020337640866e-13)
(7.41098282033903e-29 -1.66071242169526e-05 3.47175520080131e-14)
(8.02512567157346e-29 -1.82987339590232e-05 -3.8110985542984e-13)
(8.50307083165877e-29 -2.00215479655738e-05 -3.10398506211947e-13)
(9.17299337678583e-29 -2.1746194569925e-05 1.01514901310166e-13)
(9.63823657347301e-29 -2.34571456825731e-05 -1.04671103384401e-13)
(1.02855612637847e-28 -2.51242843914282e-05 -8.8964627598776e-14)
(1.064967550969e-28 -2.67202094483775e-05 6.18943769007067e-16)
(1.12005100754263e-28 -2.82370826960371e-05 -6.24175728186964e-14)
(1.13175852146742e-28 -2.96586145671293e-05 2.83042011499228e-13)
(1.16357079622142e-28 -3.09452089537603e-05 2.20007403473276e-13)
(1.15126175452139e-28 -3.20872632273322e-05 -9.24586032503752e-14)
(1.15481989682449e-28 -3.30986809962073e-05 -3.92140789281342e-14)
(1.09900162299945e-28 -3.39534869490673e-05 9.69369226109617e-14)
(1.07195157489625e-28 -3.46328279897465e-05 -1.06536157782443e-13)
(9.9053533564692e-29 -3.51581028502802e-05 -1.71434950604528e-13)
(9.3453359114527e-29 -3.55481025179349e-05 -1.40126947554081e-14)
(8.69559204508092e-29 -3.5789958440805e-05 2.82903218193146e-13)
(8.95634080220067e-29 -3.59093307866436e-05 4.00579848106115e-13)
(8.95484480277473e-29 -3.59511600714164e-05 1.19476472404066e-13)
(8.71465630340576e-29 -3.59243093140213e-05 -1.02160662747858e-13)
(8.77068250022407e-29 -3.58447023685126e-05 -6.40765122552858e-14)
(8.49042439860495e-29 -3.57347428635004e-05 1.57486169215574e-13)
(8.49697048442205e-29 -3.56057144421183e-05 1.83829741269844e-13)
(8.199016317062e-29 -3.54631825441046e-05 6.34894703297375e-14)
(8.19581333960864e-29 -3.53140088023501e-05 2.73688448524443e-14)
(7.89921148969822e-29 -3.51631481783849e-05 -1.45301827641556e-13)
(7.89537290815795e-29 -3.50138930295325e-05 -1.86968975068053e-15)
(7.60701900785034e-29 -3.48706483732812e-05 1.82735399214261e-13)
(7.59808799982997e-29 -3.47381504364307e-05 9.944180225587e-14)
(7.28446720178934e-29 -3.46287361925565e-05 1.27820115658479e-14)
(1.06451279323412e-27 -3.14851755573365e-06 -2.35213553025472e-13)
(1.02874229734992e-27 -3.1487655673398e-06 -2.21415372340655e-13)
(1.00771618492844e-27 -3.15081124511191e-06 -2.59623186045313e-14)
(9.83847489535994e-28 -3.15385485138508e-06 -2.78294902796659e-13)
(9.63123447920549e-28 -3.15769427409521e-06 3.65896192648573e-13)
(9.39364747952768e-28 -3.16210344692966e-06 9.95909024457764e-13)
(9.1907417026667e-28 -3.16704284116937e-06 5.78576886465345e-13)
(8.95970180085148e-28 -3.17253768217234e-06 2.03811242222494e-13)
(8.76147458977098e-28 -3.17858161492808e-06 4.42773171769098e-13)
(8.53663373890583e-28 -3.18507475903725e-06 3.82863808908851e-13)
(8.34256937248202e-28 -3.19196111842019e-06 -6.96625208298481e-14)
(8.12365471215765e-28 -3.19924546591926e-06 -8.63744500052137e-15)
(7.93381181707476e-28 -3.20696708223582e-06 3.55008089834817e-13)
(7.72068617443498e-28 -3.21509256062437e-06 -2.58214999383953e-13)
(7.53482056753236e-28 -3.22355830193464e-06 -5.87247632507555e-13)
(7.3273622320635e-28 -3.23235490739009e-06 8.56141605964397e-14)
(7.14553118773182e-28 -3.24154145183831e-06 5.42588637386115e-14)
(6.94367216017263e-28 -3.25112424324225e-06 -5.24196853976607e-13)
(6.76580738082811e-28 -3.26103953953591e-06 -4.87951840226312e-13)
(6.56947561578018e-28 -3.2712848376685e-06 3.27391270059071e-13)
(6.39561828446018e-28 -3.28190789720043e-06 2.03320989565161e-13)
(6.2048322363543e-28 -3.29295416207742e-06 6.36361514414973e-14)
(6.0350063103763e-28 -3.30439481820176e-06 -2.14564030224744e-14)
(5.84968328266819e-28 -3.31620998935758e-06 -1.47392094651467e-13)
(5.68396527973031e-28 -3.32843150554629e-06 4.99392262009067e-13)
(5.50423007285109e-28 -3.34116828820568e-06 9.76612639185408e-13)
(5.34267625296651e-28 -3.35444068661392e-06 5.11203935229038e-13)
(5.16844032358888e-28 -3.36819950112495e-06 -1.11193614452866e-14)
(5.01114662235034e-28 -3.3824678973679e-06 -7.68999879170873e-14)
(4.84257965614071e-28 -3.39740705196156e-06 -4.34282389247607e-14)
(4.68972270816805e-28 -3.41311049339595e-06 3.10089757142792e-14)
(4.52680027549197e-28 -3.42953120545277e-06 -7.53646843598296e-15)
(4.37840601098752e-28 -3.44670842730988e-06 -2.95732398995198e-13)
(4.22130054180401e-28 -3.46482308598134e-06 -2.91827156945951e-13)
(4.07771039892972e-28 -3.48412064986234e-06 -3.31776614792241e-13)
(3.92648384955657e-28 -3.50464327822611e-06 -3.86626008775229e-13)
(3.78769420991666e-28 -3.52640555700294e-06 2.34260056721508e-14)
(3.64252031934708e-28 -3.54960288706081e-06 -5.14448729315368e-13)
(3.51000238946561e-28 -3.57477069433349e-06 -3.072023289032e-13)
(3.3782858257876e-28 -3.60215082737967e-06 5.90716076954996e-13)
(3.21585859514321e-28 -3.63170748632305e-06 4.91880623435825e-13)
(3.11186996305607e-28 -3.66365090129278e-06 -4.60150582050254e-13)
(2.96018619630907e-28 -3.69892248617681e-06 -9.21929160285012e-13)
(2.86393896789659e-28 -3.73818250126568e-06 9.41776306127939e-14)
(2.71922382111278e-28 -3.7813473486045e-06 9.78244450282207e-14)
(2.62852385239718e-28 -3.82871989586942e-06 -2.40646086501717e-13)
(2.49282441443797e-28 -3.88149627885594e-06 -2.53485919469329e-13)
(2.40694504964123e-28 -3.9412279436341e-06 8.50545180925136e-14)
(2.28047517974507e-28 -4.00822931709563e-06 2.24378096000511e-13)
(2.19927445985697e-28 -4.08267765207115e-06 2.41055173640978e-13)
(2.08271770197086e-28 -4.16587512690218e-06 3.75964095525895e-13)
(2.00718480843872e-28 -4.26108778951986e-06 -1.70905217816334e-13)
(1.90036182315114e-28 -4.36962772700402e-06 -6.02775820902661e-13)
(1.83040911338421e-28 -4.49119511232872e-06 -4.24786731536995e-13)
(1.73384900972991e-28 -4.62692989795116e-06 6.4807546324976e-13)
(1.67104213106069e-28 -4.78336936174232e-06 9.81753663143379e-13)
(1.58531042584131e-28 -4.97066073139618e-06 9.95379713573071e-13)
(1.53066045646049e-28 -5.19807124047896e-06 3.47924219269325e-13)
(1.46103796093709e-28 -5.47543051252236e-06 -3.47468342888e-13)
(1.42477453545434e-28 -5.83081274775461e-06 -1.62286583176168e-13)
(1.38026503102853e-28 -6.29097957136108e-06 -5.10978823558518e-13)
(1.36807171361019e-28 -6.85363740820221e-06 -3.99797815294658e-13)
(1.35167330043544e-28 -7.51434164599484e-06 -5.74541567494263e-13)
(1.37146090424519e-28 -8.28899200341302e-06 -7.38296235423746e-13)
(1.38412631512608e-28 -9.19085096633767e-06 2.24474661805994e-13)
(1.43158303306799e-28 -1.02034332142471e-05 3.87038041181e-13)
(1.46782938661827e-28 -1.1310760503792e-05 -6.51733987581376e-15)
(1.54668026361321e-28 -1.25210345212146e-05 -1.4303454237005e-13)
(1.60992646411196e-28 -1.38329988425898e-05 1.02483080190978e-13)
(1.71482628678281e-28 -1.52192332657111e-05 5.70911586295595e-13)
(1.7950396370552e-28 -1.66594990303852e-05 1.08076621115336e-13)
(1.92829200639987e-28 -1.81468124140025e-05 -1.13499545259314e-12)
(2.02333633439725e-28 -1.96611924778469e-05 -9.29611138206538e-13)
(2.16683919037196e-28 -2.11762908167724e-05 3.00948746031785e-13)
(2.26287690527751e-28 -2.26777606090728e-05 -3.10116238653419e-13)
(2.40882836964834e-28 -2.41401782977471e-05 -2.65419728640164e-13)
(2.47933533265151e-28 -2.55391725236463e-05 1.64844905591519e-15)
(2.60924169349035e-28 -2.6866959049279e-05 -1.87454314030839e-13)
(2.63675978408292e-28 -2.8108448855995e-05 8.37333767580117e-13)
(2.71395500653296e-28 -2.9232492014562e-05 6.54232398575526e-13)
(2.67344442636316e-28 -3.02291384337231e-05 -2.72356516976811e-13)
(2.70388784023928e-28 -3.11067650999407e-05 -1.17107206541485e-13)
(2.57169029813503e-28 -3.18463345342013e-05 2.86751845064529e-13)
(2.51082170575544e-28 -3.24341838668015e-05 -3.1361943080537e-13)
(2.31951422676752e-28 -3.28850585501968e-05 -5.06677052696794e-13)
(2.1998880308017e-28 -3.3213103621648e-05 -4.30147953402481e-14)
(2.04623561549891e-28 -3.34203380108062e-05 8.3391025925877e-13)
(2.113575708901e-28 -3.35295419815326e-05 1.18386242254367e-12)
(2.11827520804868e-28 -3.35683758057538e-05 3.5389619583251e-13)
(2.06361280329751e-28 -3.35484246176257e-05 -3.02000439365759e-13)
(2.08213328246668e-28 -3.348359485678e-05 -1.89911289811575e-13)
(2.01437987502262e-28 -3.33908639479555e-05 4.66288150105268e-13)
(2.02075324283352e-28 -3.32805181996234e-05 5.44706194480773e-13)
(1.94832095133517e-28 -3.3158405697325e-05 1.88225289351904e-13)
(1.95114807270515e-28 -3.30302060084813e-05 8.12022150547972e-14)
(1.87874094038639e-28 -3.29002658416207e-05 -4.30845502871424e-13)
(1.88127346922947e-28 -3.27718508677027e-05 -5.5573615624715e-15)
(1.81106369722812e-28 -3.26489544993688e-05 5.42133510420567e-13)
(1.81403259891823e-28 -3.25371984551753e-05 2.95149535290275e-13)
(1.74327028469852e-28 -3.24509835534607e-05 3.79434354292359e-14)
(1.65042581121402e-27 -5.11989288846465e-06 -3.87912558573707e-13)
(1.59749265651262e-27 -5.11846530891567e-06 -3.65931461251308e-13)
(1.56533403799374e-27 -5.11881650998368e-06 -4.23104126180342e-14)
(1.52805443738461e-27 -5.12001907109745e-06 -4.60912616767259e-13)
(1.49631501788595e-27 -5.12190550530352e-06 5.99940094287457e-13)
(1.45926902655976e-27 -5.12428166569183e-06 1.64346306624353e-12)
(1.42815535790939e-27 -5.12711350229201e-06 9.57107998397743e-13)
(1.39209677765837e-27 -5.13042270892705e-06 3.36385933224115e-13)
(1.36165829647667e-27 -5.13420384617259e-06 7.30606168052741e-13)
(1.3265420106589e-27 -5.13837132945172e-06 6.33804287386608e-13)
(1.2967126454755e-27 -5.14287710419689e-06 -1.14247362379489e-13)
(1.26250381215181e-27 -5.14772538278129e-06 -1.56213304945903e-14)
(1.23329380869043e-27 -5.15294992183692e-06 5.87611077567801e-13)
(1.19997367425596e-27 -5.15852218588166e-06 -4.24147543509333e-13)
(1.17135236238026e-27 -5.16438762122845e-06 -9.7168779959239e-13)
(1.13890792632862e-27 -5.17053828882928e-06 1.40126949139551e-13)
(1.11088597492131e-27 -5.17702503169263e-06 9.15557161563764e-14)
(1.07930651426123e-27 -5.1838533866367e-06 -8.65292245598544e-13)
(1.05187694509286e-27 -5.19096875484498e-06 -8.09187405407961e-13)
(1.02115657049458e-27 -5.19836910109508e-06 5.39936598849392e-13)
(9.94327563562447e-28 -5.20609562917722e-06 3.3686657167218e-13)
(9.64467109307493e-28 -5.21418757871484e-06 1.05777460761613e-13)
(9.38244071401248e-28 -5.22262036777562e-06 -3.49446549884464e-14)
(9.09235425462112e-28 -5.23137709304389e-06 -2.45406027281576e-13)
(8.83632056879184e-28 -5.24048537633826e-06 8.23539173879627e-13)
(8.55492023139168e-28 -5.25003913169341e-06 1.61627522415572e-12)
(8.30516798627797e-28 -5.26005610664652e-06 8.48346604413174e-13)
(8.0323495011925e-28 -5.27049430305537e-06 -1.7179724732915e-14)
(7.7890521912058e-28 -5.28137396636519e-06 -1.27251876337193e-13)
(7.52505284400345e-28 -5.29283413783372e-06 -7.21595162478074e-14)
(7.28845758419754e-28 -5.30495569849695e-06 5.1296962496649e-14)
(7.03326023552205e-28 -5.31769870055652e-06 -1.16706638013001e-14)
(6.80345236547015e-28 -5.33109734733e-06 -4.89255635235785e-13)
(6.55729974394124e-28 -5.34530809582244e-06 -4.83310844934109e-13)
(6.33473967235948e-28 -5.36054284607568e-06 -5.49441708455525e-13)
(6.09772709782613e-28 -5.3768387509995e-06 -6.41491832306612e-13)
(5.88248351834364e-28 -5.39420919810772e-06 3.93219639469726e-14)
(5.65486636999146e-28 -5.41282356216931e-06 -8.52112549597323e-13)
(5.4488832160816e-28 -5.43314406057257e-06 -5.11672051203556e-13)
(5.24104634758206e-28 -5.45538053094209e-06 9.77869069529317e-13)
(4.99376824188565e-28 -5.47950354166413e-06 8.17874175340986e-13)
(4.82633283192235e-28 -5.50569603679562e-06 -7.60304210129613e-13)
(4.59394720306115e-28 -5.53477105838843e-06 -1.53041271106103e-12)
(4.43833380036635e-28 -5.56729996653933e-06 1.54372187946031e-13)
(4.21650302193341e-28 -5.60321352070793e-06 1.62996613497054e-13)
(4.06964151264192e-28 -5.64277544390448e-06 -3.98647795825545e-13)
(3.86117184157219e-28 -5.68702006385566e-06 -4.21323480467079e-13)
(3.72193333827099e-28 -5.73728873064219e-06 1.40275297773428e-13)
(3.52721388222198e-28 -5.79385715159054e-06 3.72160856566206e-13)
(3.39552316250452e-28 -5.85688314452957e-06 3.99879062313014e-13)
(3.21547580704986e-28 -5.92749496843752e-06 6.25094653097041e-13)
(3.0925761275759e-28 -6.00851426001079e-06 -2.81988287067656e-13)
(2.92703588589982e-28 -6.10108099051915e-06 -1.0006812447382e-12)
(2.81305719623153e-28 -6.20494528259997e-06 -7.07996492514387e-13)
(2.66278717050719e-28 -6.3211010908777e-06 1.07411166229701e-12)
(2.55968994465535e-28 -6.45520212454696e-06 1.63080557383165e-12)
(2.42552662679608e-28 -6.61602380067012e-06 1.65572600023719e-12)
(2.3352409309856e-28 -6.81159835975756e-06 5.81077835808455e-13)
(2.22450201928146e-28 -7.05045078776258e-06 -5.76952655585717e-13)
(2.16024404972316e-28 -7.35682708253292e-06 -2.69686336728487e-13)
(2.08458072966052e-28 -7.75385609534349e-06 -8.49893151060965e-13)
(2.05494709710247e-28 -8.23963048381475e-06 -6.65221125171747e-13)
(2.0192972786239e-28 -8.81031174026381e-06 -9.55636215208676e-13)
(2.03366029684685e-28 -9.47957657590104e-06 -1.23153494047133e-12)
(2.03822115880824e-28 -1.0258874906107e-05 3.70666362255606e-13)
(2.09204282394381e-28 -1.11340024205722e-05 6.44834337848224e-13)
(2.13049827905388e-28 -1.20910710284322e-05 -9.26142304078676e-15)
(2.22635617919629e-28 -1.31370527104316e-05 -2.38387406779311e-13)
(2.30049077297428e-28 -1.42708491421733e-05 1.68172170094972e-13)
(2.43300453236489e-28 -1.54687469459466e-05 9.49034722542148e-13)
(2.53144366358452e-28 -1.67131183305947e-05 1.85357179210349e-13)
(2.70025413333134e-28 -1.79978300610487e-05 -1.8813326186837e-12)
(2.8176733334964e-28 -1.93055869385002e-05 -1.54742410881861e-12)
(3.00297014439716e-28 -2.06135328462273e-05 4.96977930161553e-13)
(3.12048080004851e-28 -2.19091876613945e-05 -5.11865392942604e-13)
(3.30897657518392e-28 -2.31705990785974e-05 -4.40333749221924e-13)
(3.39469431270546e-28 -2.43766385139046e-05 2.49523322039477e-15)
(3.56032564550969e-28 -2.5520471279602e-05 -3.12458171829233e-13)
(3.58844858521433e-28 -2.65891016308105e-05 1.37929259590826e-12)
(3.68730955900312e-28 -2.75558356985596e-05 1.08195001095505e-12)
(3.62586608335197e-28 -2.84119052699238e-05 -4.46812379312893e-13)
(3.65541829305459e-28 -2.91642457496689e-05 -1.94122917844769e-13)
(3.47706513650559e-28 -2.97966983571227e-05 4.71780498443797e-13)
(3.38936191548118e-28 -3.02976514577981e-05 -5.13512122983692e-13)
(3.12566598447692e-28 -3.0679396384229e-05 -8.32414415970037e-13)
(2.95996653178233e-28 -3.09546037338368e-05 -7.27290945202412e-14)
(2.75565153381653e-28 -3.11282220568329e-05 1.36582276382365e-12)
(2.84653388807801e-28 -3.12213627244572e-05 1.94391476621027e-12)
(2.85576049072032e-28 -3.12551433477289e-05 5.82221047796388e-13)
(2.78638401123933e-28 -3.12389757344824e-05 -4.96017211717974e-13)
(2.81311925855236e-28 -3.11846417383443e-05 -3.12748780227485e-13)
(2.72378516181306e-28 -3.11063194177243e-05 7.67069867302306e-13)
(2.73403832747647e-28 -3.10127595055184e-05 8.96752348027772e-13)
(2.63767427968635e-28 -3.09090697528539e-05 3.10049245150521e-13)
(2.64241285164824e-28 -3.08001117426522e-05 1.33873847400585e-13)
(2.54580218286169e-28 -3.06896104755548e-05 -7.09818804832217e-13)
(2.55000360741699e-28 -3.0580423182451e-05 -9.23125244205423e-15)
(2.45677775775166e-28 -3.04760695766285e-05 8.93653013770674e-13)
(2.46317056280556e-28 -3.03815751504048e-05 4.86841998634625e-13)
(2.37494014482682e-28 -3.03087983503278e-05 6.27525343061911e-14)
(2.08568393271352e-27 -7.0547699120222e-06 -5.37856086339626e-13)
(2.02386610551012e-27 -7.05221719642776e-06 -5.08962732874637e-13)
(1.98355005068378e-27 -7.05136305373737e-06 -5.75927812902825e-14)
(1.93631103708595e-27 -7.05121815634706e-06 -6.42961223082462e-13)
(1.89651125739009e-27 -7.05164656199742e-06 8.24339127775075e-13)
(1.84962521415225e-27 -7.05248535260784e-06 2.2799440154219e-12)
(1.81056568051824e-27 -7.05370577622502e-06 1.33249764759554e-12)
(1.76488667681218e-27 -7.0553260764284e-06 4.66703446454601e-13)
(1.72662833164752e-27 -7.05734179627373e-06 1.01318846970399e-12)
(1.68210969711042e-27 -7.05968130548866e-06 8.8310472967573e-13)
(1.64458222819462e-27 -7.06230426691557e-06 -1.56970566461026e-13)
(1.60118696469571e-27 -7.06521426688655e-06 -2.44756839219709e-14)
(1.56440536609808e-27 -7.06843969241714e-06 8.18380784082775e-13)
(1.52211362332065e-27 -7.07195677814505e-06 -5.84039889016863e-13)
(1.48604618895945e-27 -7.07571978728435e-06 -1.35241227330733e-12)
(1.44484681798939e-27 -7.07972210372641e-06 1.91902163430264e-13)
(1.40950901190248e-27 -7.08400648989805e-06 1.31016559519184e-13)
(1.36938965375925e-27 -7.08857775697545e-06 -1.19984690616792e-12)
(1.33477662167349e-27 -7.09339019579827e-06 -1.12953424595038e-12)
(1.29573448892623e-27 -7.09844213767857e-06 7.47621636206975e-13)
(1.26185829018115e-27 -7.10376829626316e-06 4.69519377447556e-13)
(1.22389396303333e-27 -7.10940181566279e-06 1.4811034784122e-13)
(1.19076372275121e-27 -7.11532221799067e-06 -4.74749034938277e-14)
(1.15387092599555e-27 -7.12151541051103e-06 -3.44392301089814e-13)
(1.12150553375102e-27 -7.12800474591158e-06 1.13978429579029e-12)
(1.08570444956749e-27 -7.13486935585955e-06 2.24835018153666e-12)
(1.0541153164684e-27 -7.14212441194119e-06 1.18462256308803e-12)
(1.01939563392972e-27 -7.14973483767904e-06 -2.14748075467552e-14)
(9.88606497955829e-28 -7.15771779341259e-06 -1.76944063922835e-13)
(9.54996827664928e-28 -7.1661904622536e-06 -1.00918407329456e-13)
(9.25037848202208e-28 -7.17522125926659e-06 7.12887445821901e-14)
(8.92538041364661e-28 -7.18477695523398e-06 -1.46417727346621e-14)
(8.63422924829827e-28 -7.19488652435292e-06 -6.79924691538993e-13)
(8.32061889978274e-28 -7.20568204915873e-06 -6.72619081674436e-13)
(8.03844667026066e-28 -7.21734233253796e-06 -7.6454059951111e-13)
(7.73635042383254e-28 -7.22989931497444e-06 -8.94962080968669e-13)
(7.4632903583086e-28 -7.24336473224365e-06 5.57652604717535e-14)
(7.17301348978809e-28 -7.25788169861255e-06 -1.1858052604439e-12)
(6.91127076452901e-28 -7.27384017476152e-06 -7.17468781148341e-13)
(6.64483311738749e-28 -7.29141812147472e-06 1.35955887813476e-12)
(6.33604897360821e-28 -7.31059156477943e-06 1.14396619255133e-12)
(6.11756349709034e-28 -7.33151534387889e-06 -1.05422910438482e-12)
(5.82678298022967e-28 -7.35487561538189e-06 -2.1354980567833e-12)
(5.62261457845573e-28 -7.38115580671725e-06 2.1173135905204e-13)
(5.34495133927055e-28 -7.41029926678933e-06 2.28549839311523e-13)
(5.15183450830665e-28 -7.44252927763401e-06 -5.54613407048173e-13)
(4.89039803414616e-28 -7.47871937244353e-06 -5.88734062188253e-13)
(4.70712573234851e-28 -7.52000339053584e-06 1.93992667494473e-13)
(4.46242321219263e-28 -7.56661690554398e-06 5.18538033316555e-13)
(4.28899509105174e-28 -7.61869507958966e-06 5.57221123664217e-13)
(4.06209628489437e-28 -7.67719123437301e-06 8.7358016357282e-13)
(3.89991953486781e-28 -7.74448913401214e-06 -3.90188728108894e-13)
(3.69071344981e-28 -7.82155677424978e-06 -1.39559001156717e-12)
(3.54005489995998e-28 -7.9081868234587e-06 -9.92277320198594e-13)
(3.34946231654321e-28 -8.00521899951854e-06 1.49473782285018e-12)
(3.21252430296312e-28 -8.11742711694807e-06 2.27543273687842e-12)
(3.04157615645656e-28 -8.2522264516765e-06 2.31377999084155e-12)
(2.92081514568307e-28 -8.4164097037654e-06 8.15750861239338e-13)
(2.77790668856624e-28 -8.61717632404893e-06 -8.04251705763209e-13)
(2.68815994050986e-28 -8.87499553121813e-06 -3.76136208256132e-13)
(2.5864242659664e-28 -9.20942827552927e-06 -1.18662399335569e-12)
(2.53783567142323e-28 -9.61889997117033e-06 -9.2916198421171e-13)
(2.48324120900159e-28 -1.01001433182597e-05 -1.33409035246617e-12)
(2.48591599497434e-28 -1.06646671513322e-05 -1.72419904032053e-12)
(2.47833851637153e-28 -1.1322152676348e-05 5.1358892382029e-13)
(2.52747592434676e-28 -1.20606190018899e-05 9.01905864010188e-13)
(2.55991480416832e-28 -1.28682576286423e-05 -1.07409744238617e-14)
(2.65726923969061e-28 -1.37508687724786e-05 -3.33518099923629e-13)
(2.73046903923305e-28 -1.47075223955115e-05 2.31715030715979e-13)
(2.87035406356345e-28 -1.57181785872796e-05 1.32505937313828e-12)
(2.97202504074216e-28 -1.67678496934987e-05 2.66569584337203e-13)
(3.15234000339563e-28 -1.78512887126438e-05 -2.62044565748336e-12)
(3.27511600260651e-28 -1.89538847273645e-05 -2.16492829419898e-12)
(3.47524498852779e-28 -2.0056295006623e-05 6.90140599933136e-13)
(3.59749720489041e-28 -2.1147947968956e-05 -7.10702929058998e-13)
(3.80096992080716e-28 -2.22103341030125e-05 -6.14618932089427e-13)
(3.88854892467486e-28 -2.32255888853246e-05 3.18253463376902e-15)
(4.06549845142845e-28 -2.41879179709357e-05 -4.38360889428957e-13)
(4.08826228219463e-28 -2.50864298175007e-05 1.9137569375066e-12)
(4.19218680660181e-28 -2.58986604633738e-05 1.50743035134374e-12)
(4.11576865113525e-28 -2.66171494506409e-05 -6.17552170790721e-13)
(4.13861704250037e-28 -2.72477088612289e-05 -2.71272998992848e-13)
(3.93426675016639e-28 -2.77767597770709e-05 6.54573368015966e-13)
(3.82927092806576e-28 -2.81944513999358e-05 -7.08856454338229e-13)
(3.52683748554435e-28 -2.85110493906126e-05 -1.15313821314862e-12)
(3.33504104938146e-28 -2.87376730390565e-05 -1.03924303104301e-13)
(3.10628231401187e-28 -2.88799669045858e-05 1.88674519633158e-12)
(3.20790464245443e-28 -2.89568478011742e-05 2.68994476257796e-12)
(3.2197807271965e-28 -2.89849742292349e-05 8.07051948831095e-13)
(3.14440176521195e-28 -2.89716722635665e-05 -6.86283727416954e-13)
(3.17565721086587e-28 -2.89266253956931e-05 -4.33731020525971e-13)
(3.07689600671653e-28 -2.88615878686389e-05 1.06239485822355e-12)
(3.08957834894103e-28 -2.87838248366385e-05 1.2428708844437e-12)
(2.98253217217813e-28 -2.86975917280364e-05 4.29918234568737e-13)
(2.98865243316774e-28 -2.86069448186285e-05 1.85808270802983e-13)
(2.88114116003938e-28 -2.85149921218223e-05 -9.84278091379784e-13)
(2.88657403960983e-28 -2.84241238907057e-05 -1.29514439433557e-14)
(2.78308430765813e-28 -2.83372831043455e-05 1.23967456120802e-12)
(2.79190738531678e-28 -2.82586018302005e-05 6.75662524008576e-13)
(2.69686587879043e-28 -2.81975917399699e-05 8.72024407573347e-14)
(2.3170201217334e-27 -8.95439499922419e-06 -6.85158061474913e-13)
(2.25699069153195e-27 -8.95124778887069e-06 -6.51043199773968e-13)
(2.21193090957967e-27 -8.94964501856722e-06 -7.15129227203924e-14)
(2.15993845949926e-27 -8.94861436600503e-06 -8.25508717573241e-13)
(2.11547527340296e-27 -8.94804809598375e-06 1.03711963023485e-12)
(2.0639239549794e-27 -8.9478139542788e-06 2.90570363249376e-12)
(2.02025745631915e-27 -8.94788835500301e-06 1.70620062391247e-12)
(1.96997255081619e-27 -8.94828612827518e-06 5.9484668193103e-13)
(1.92716880184189e-27 -8.94900380528593e-06 1.2904731856678e-12)
(1.87810848917151e-27 -8.94998341938034e-06 1.13180293420768e-12)
(1.83610044001262e-27 -8.951192178686e-06 -1.97400736449972e-13)
(1.78823097222652e-27 -8.95263299271228e-06 -3.5950474191239e-14)
(1.74703691017257e-27 -8.95432896949902e-06 1.04806597531375e-12)
(1.70034053828517e-27 -8.95626101138832e-06 -7.36650899522646e-13)
(1.65993093124335e-27 -8.95839201858973e-06 -1.73034713473472e-12)
(1.61440117001037e-27 -8.96071660434681e-06 2.40228000669138e-13)
(1.5747947895187e-27 -8.96326955006747e-06 1.73639776825636e-13)
(1.53041985591221e-27 -8.96605494336908e-06 -1.52737082967563e-12)
(1.49161431727742e-27 -8.96903577410813e-06 -1.45045342755666e-12)
(1.44839644996425e-27 -8.97221067684985e-06 9.49819345668404e-13)
(1.41040639962482e-27 -8.97560791395738e-06 6.01656668149976e-13)
(1.36834671768773e-27 -8.97925459022713e-06 1.90925855924997e-13)
(1.33118386114964e-27 -8.98313422716274e-06 -5.87496607107007e-14)
(1.29028012266877e-27 -8.98723543865124e-06 -4.45180985916746e-13)
(1.2539665591334e-27 -8.99157727233396e-06 1.44686108218739e-12)
(1.21424123762643e-27 -8.99622421617492e-06 2.87316592122152e-12)
(1.17878971603775e-27 -9.0011888543488e-06 1.52130308839586e-12)
(1.14023502160508e-27 -9.00644285560792e-06 -2.33917346648774e-14)
(1.10567325403854e-27 -9.01200021167211e-06 -2.25958632732111e-13)
(1.06832076401929e-27 -9.01795641019911e-06 -1.29840637557512e-13)
(1.03468070472351e-27 -9.02436747782101e-06 9.09600098555937e-14)
(9.98533277830243e-28 -9.03120669993188e-06 -1.60571851421434e-14)
(9.6583253724752e-28 -9.03849773964602e-06 -8.67522473631119e-13)
(9.30921670020796e-28 -9.04634836563264e-06 -8.5974424968738e-13)
(8.99215729505641e-28 -9.05490451674913e-06 -9.77008220159536e-13)
(8.65557189974535e-28 -9.0641927963036e-06 -1.14751357726204e-12)
(8.34864726896739e-28 -9.07422309836244e-06 7.30095806441158e-14)
(8.02492325905206e-28 -9.08511220702077e-06 -1.51534597877172e-12)
(7.73034184799e-28 -9.09717825987059e-06 -9.25738071993059e-13)
(7.43120331389669e-28 -9.11056734827834e-06 1.73520309289843e-12)
(7.09194561780617e-28 -9.12526061686218e-06 1.47121612564646e-12)
(6.84120800669485e-28 -9.14138454827799e-06 -1.34076324889338e-12)