/*--------------------------------*- C++ -*----------------------------------*\
| =========                 |                                                 |
| \\      /  F ield         | foam-extend: Open Source CFD                    |
|  \\    /   O peration     | Version:     4.1-20200408                       |
|   \\  /    A nd           | Web:         http://www.foam-extend.org         |
|    \\/     M anipulation  |                                                 |
\*---------------------------------------------------------------------------*/
FoamFile
{
    version     2.0;
    format      ascii;
    class       volScalarField;
    location    "0.0500000";
    object      sigmaY;
}
// * * * * * * * * * * * * * * * * * * * * * * * * * * * * * * * * * * * * * //

dimensions      [1 -1 -2 0 0 0 0];

internalField   nonuniform List<scalar> 
1952
(
1.27446e+09
1.2745e+09
1.27458e+09
1.27465e+09
1.27475e+09
1.27482e+09
1.27491e+09
1.27494e+09
1.27489e+09
1.27467e+09
1.27426e+09
1.27357e+09
1.2726e+09
1.27171e+09
1.27124e+09
1.27443e+09
1.27449e+09
1.27453e+09
1.27461e+09
1.27469e+09
1.27478e+09
1.27486e+09
1.27494e+09
1.27497e+09
1.27492e+09
1.2747e+09
1.27429e+09
1.2736e+09
1.27263e+09
1.27175e+09
1.27128e+09
1.27446e+09
1.27452e+09
1.27456e+09
1.27464e+09
1.27472e+09
1.27481e+09
1.27489e+09
1.27498e+09
1.275e+09
1.27496e+09
1.27473e+09
1.27432e+09
1.27363e+09
1.27266e+09
1.27178e+09
1.27131e+09
1.27449e+09
1.27456e+09
1.27459e+09
1.27467e+09
1.27475e+09
1.27484e+09
1.27492e+09
1.27501e+09
1.27503e+09
1.27499e+09
1.27476e+09
1.27435e+09
1.27366e+09
1.27269e+09
1.27181e+09
1.27134e+09
1.27452e+09
1.27459e+09
1.27462e+09
1.2747e+09
1.27478e+09
1.27487e+09
1.27495e+09
1.27504e+09
1.27506e+09
1.27502e+09
1.27479e+09
1.27438e+09
1.2737e+09
1.27272e+09
1.27184e+09
1.27137e+09
1.27455e+09
1.27462e+09
1.27466e+09
1.27473e+09
1.27481e+09
1.2749e+09
1.27498e+09
1.27507e+09
1.2751e+09
1.27505e+09
1.27482e+09
1.27442e+09
1.27373e+09
1.27275e+09
1.27187e+09
1.2714e+09
1.27458e+09
1.27465e+09
1.27469e+09
1.27476e+09
1.27484e+09
1.27493e+09
1.27501e+09
1.2751e+09
1.27513e+09
1.27508e+09
1.27486e+09
1.27445e+09
1.27376e+09
1.27278e+09
1.2719e+09
1.27143e+09
1.27461e+09
1.27468e+09
1.27472e+09
1.27479e+09
1.27487e+09
1.27497e+09
1.27505e+09
1.27514e+09
1.27516e+09
1.27512e+09
1.27489e+09
1.27448e+09
1.27379e+09
1.27281e+09
1.27193e+09
1.27146e+09
1.27465e+09
1.27471e+09
1.27475e+09
1.27483e+09
1.2749e+09
1.275e+09
1.27508e+09
1.27517e+09
1.27519e+09
1.27515e+09
1.27492e+09
1.27451e+09
1.27382e+09
1.27284e+09
1.27196e+09
1.27149e+09
1.27468e+09
1.27474e+09
1.27478e+09
1.27486e+09
1.27494e+09
1.27503e+09
1.27511e+09
1.2752e+09
1.27522e+09
1.27518e+09
1.27495e+09
1.27454e+09
1.27385e+09
1.27288e+09
1.27199e+09
1.27152e+09
1.27471e+09
1.27477e+09
1.27481e+09
1.27489e+09
1.27497e+09
1.27506e+09
1.27514e+09
1.27523e+09
1.27526e+09
1.27521e+09
1.27498e+09
1.27457e+09
1.27388e+09
1.27291e+09
1.27202e+09
1.27155e+09
1.27474e+09
1.2748e+09
1.27484e+09
1.27492e+09
1.275e+09
1.27509e+09
1.27517e+09
1.27526e+09
1.27529e+09
1.27524e+09
1.27501e+09
1.27461e+09
1.27392e+09
1.27294e+09
1.27205e+09
1.27158e+09
1.27477e+09
1.27484e+09
1.27487e+09
1.27495e+09
1.27503e+09
1.27512e+09
1.2752e+09
1.27529e+09
1.27532e+09
1.27528e+09
1.27504e+09
1.27464e+09
1.27395e+09
1.27297e+09
1.27208e+09
1.27161e+09
1.2748e+09
1.27487e+09
1.2749e+09
1.27498e+09
1.27506e+09
1.27515e+09
1.27524e+09
1.27533e+09
1.27535e+09
1.27531e+09
1.27507e+09
1.27467e+09
1.27398e+09
1.273e+09
1.27211e+09
1.27165e+09
1.27483e+09
1.2749e+09
1.27494e+09
1.27501e+09
1.27509e+09
1.27518e+09
1.27527e+09
1.27536e+09
1.27538e+09
1.27534e+09
1.27511e+09
1.2747e+09
1.27401e+09
1.27303e+09
1.27215e+09
1.27168e+09
1.27486e+09
1.27493e+09
1.27497e+09
1.27504e+09
1.27512e+09
1.27521e+09
1.2753e+09
1.27539e+09
1.27542e+09
1.27537e+09
1.27514e+09
1.27473e+09
1.27404e+09
1.27306e+09
1.27218e+09
1.27171e+09
1.27489e+09
1.27496e+09
1.275e+09
1.27507e+09
1.27515e+09
1.27525e+09
1.27533e+09
1.27542e+09
1.27545e+09
1.2754e+09
1.27517e+09
1.27477e+09
1.27407e+09
1.27309e+09
1.27221e+09
1.27174e+09
1.27493e+09
1.27499e+09
1.27503e+09
1.27511e+09
1.27519e+09
1.27528e+09
1.27536e+09
1.27545e+09
1.27548e+09
1.27543e+09
1.2752e+09
1.2748e+09
1.27411e+09
1.27312e+09
1.27224e+09
1.27177e+09
1.27496e+09
1.27502e+09
1.27506e+09
1.27514e+09
1.27522e+09
1.27531e+09
1.27539e+09
1.27549e+09
1.27551e+09
1.27547e+09
1.27523e+09
1.27483e+09
1.27414e+09
1.27315e+09
1.27227e+09
1.2718e+09
1.27499e+09
1.27505e+09
1.27509e+09
1.27517e+09
1.27525e+09
1.27534e+09
1.27543e+09
1.27552e+09
1.27554e+09
1.2755e+09
1.27526e+09
1.27486e+09
1.27417e+09
1.27318e+09
1.2723e+09
1.27183e+09
1.27502e+09
1.27509e+09
1.27512e+09
1.2752e+09
1.27528e+09
1.27537e+09
1.27546e+09
1.27555e+09
1.27558e+09
1.27553e+09
1.27529e+09
1.27489e+09
1.2742e+09
1.27321e+09
1.27233e+09
1.27186e+09
1.27505e+09
1.27512e+09
1.27515e+09
1.27523e+09
1.27531e+09
1.2754e+09
1.27549e+09
1.27558e+09
1.27561e+09
1.27556e+09
1.27533e+09
1.27492e+09
1.27423e+09
1.27324e+09
1.27236e+09
1.27189e+09
1.27508e+09
1.27515e+09
1.27519e+09
1.27526e+09
1.27534e+09
1.27543e+09
1.27552e+09
1.27561e+09
1.27564e+09
1.27559e+09
1.27536e+09
1.27496e+09
1.27426e+09
1.27327e+09
1.27239e+09
1.27192e+09
1.27511e+09
1.27518e+09
1.27522e+09
1.27529e+09
1.27537e+09
1.27546e+09
1.27555e+09
1.27565e+09
1.27567e+09
1.27563e+09
1.27539e+09
1.27499e+09
1.27429e+09
1.2733e+09
1.27242e+09
1.27195e+09
1.27514e+09
1.27521e+09
1.27525e+09
1.27532e+09
1.2754e+09
1.2755e+09
1.27558e+09
1.27568e+09
1.2757e+09
1.27566e+09
1.27542e+09
1.27502e+09
1.27433e+09
1.27333e+09
1.27245e+09
1.27198e+09
1.27517e+09
1.27524e+09
1.27528e+09
1.27536e+09
1.27543e+09
1.27553e+09
1.27562e+09
1.27571e+09
1.27574e+09
1.27569e+09
1.27545e+09
1.27505e+09
1.27436e+09
1.27336e+09
1.27248e+09
1.27202e+09
1.2752e+09
1.27527e+09
1.27531e+09
1.27539e+09
1.27547e+09
1.27556e+09
1.27565e+09
1.27574e+09
1.27577e+09
1.27572e+09
1.27548e+09
1.27508e+09
1.27439e+09
1.27339e+09
1.27251e+09
1.27205e+09
1.27524e+09
1.2753e+09
1.27534e+09
1.27542e+09
1.2755e+09
1.27559e+09
1.27568e+09
1.27577e+09
1.2758e+09
1.27575e+09
1.27551e+09
1.27511e+09
1.27442e+09
1.27342e+09
1.27254e+09
1.27208e+09
1.27527e+09
1.27533e+09
1.27537e+09
1.27545e+09
1.27553e+09
1.27562e+09
1.27571e+09
1.2758e+09
1.27583e+09
1.27579e+09
1.27555e+09
1.27515e+09
1.27445e+09
1.27345e+09
1.27258e+09
1.27211e+09
1.2753e+09
1.27536e+09
1.2754e+09
1.27548e+09
1.27556e+09
1.27565e+09
1.27574e+09
1.27584e+09
1.27586e+09
1.27582e+09
1.27558e+09
1.27518e+09
1.27448e+09
1.27349e+09
1.27261e+09
1.27214e+09
1.27533e+09
1.27539e+09
1.27543e+09
1.27551e+09
1.27559e+09
1.27568e+09
1.27577e+09
1.27587e+09
1.2759e+09
1.27585e+09
1.27561e+09
1.27521e+09
1.27451e+09
1.27352e+09
1.27264e+09
1.27217e+09
1.27536e+09
1.27543e+09
1.27546e+09
1.27554e+09
1.27562e+09
1.27571e+09
1.2758e+09
1.2759e+09
1.27593e+09
1.27588e+09
1.27564e+09
1.27524e+09
1.27455e+09
1.27355e+09
1.27267e+09
1.2722e+09
1.27539e+09
1.27546e+09
1.2755e+09
1.27557e+09
1.27565e+09
1.27574e+09
1.27584e+09
1.27593e+09
1.27596e+09
1.27591e+09
1.27567e+09
1.27527e+09
1.27458e+09
1.27358e+09
1.2727e+09
1.27223e+09
1.27542e+09
1.27549e+09
1.27553e+09
1.2756e+09
1.27568e+09
1.27577e+09
1.27587e+09
1.27596e+09
1.27599e+09
1.27594e+09
1.2757e+09
1.27531e+09
1.27461e+09
1.27361e+09
1.27273e+09
1.27226e+09
1.27545e+09
1.27552e+09
1.27556e+09
1.27563e+09
1.27571e+09
1.27581e+09
1.2759e+09
1.27599e+09
1.27602e+09
1.27598e+09
1.27574e+09
1.27534e+09
1.27464e+09
1.27364e+09
1.27276e+09
1.27229e+09
1.27548e+09
1.27555e+09
1.27559e+09
1.27567e+09
1.27575e+09
1.27584e+09
1.27593e+09
1.27603e+09
1.27605e+09
1.27601e+09
1.27577e+09
1.27537e+09
1.27467e+09
1.27367e+09
1.27279e+09
1.27232e+09
1.27551e+09
1.27558e+09
1.27562e+09
1.2757e+09
1.27578e+09
1.27587e+09
1.27596e+09
1.27606e+09
1.27609e+09
1.27604e+09
1.2758e+09
1.2754e+09
1.2747e+09
1.2737e+09
1.27282e+09
1.27235e+09
1.27554e+09
1.27561e+09
1.27565e+09
1.27573e+09
1.27581e+09
1.2759e+09
1.27599e+09
1.27609e+09
1.27612e+09
1.27607e+09
1.27583e+09
1.27543e+09
1.27473e+09
1.27373e+09
1.27285e+09
1.27239e+09
1.27558e+09
1.27564e+09
1.27568e+09
1.27576e+09
1.27584e+09
1.27593e+09
1.27602e+09
1.27612e+09
1.27615e+09
1.2761e+09
1.27586e+09
1.27547e+09
1.27476e+09
1.27376e+09
1.27288e+09
1.27242e+09
1.27561e+09
1.27567e+09
1.27571e+09
1.27579e+09
1.27587e+09
1.27596e+09
1.27606e+09
1.27615e+09
1.27618e+09
1.27613e+09
1.2759e+09
1.2755e+09
1.2748e+09
1.27379e+09
1.27291e+09
1.27245e+09
1.27564e+09
1.27571e+09
1.27574e+09
1.27582e+09
1.2759e+09
1.27599e+09
1.27609e+09
1.27619e+09
1.27621e+09
1.27616e+09
1.27593e+09
1.27553e+09
1.27483e+09
1.27382e+09
1.27294e+09
1.27248e+09
1.27567e+09
1.27574e+09
1.27577e+09
1.27585e+09
1.27593e+09
1.27602e+09
1.27612e+09
1.27622e+09
1.27625e+09
1.2762e+09
1.27596e+09
1.27556e+09
1.27486e+09
1.27385e+09
1.27297e+09
1.27251e+09
1.2757e+09
1.27577e+09
1.27581e+09
1.27588e+09
1.27596e+09
1.27605e+09
1.27615e+09
1.27625e+09
1.27628e+09
1.27623e+09
1.27599e+09
1.27559e+09
1.27489e+09
1.27388e+09
1.273e+09
1.27254e+09
1.27573e+09
1.2758e+09
1.27584e+09
1.27592e+09
1.27599e+09
1.27608e+09
1.27618e+09
1.27628e+09
1.27631e+09
1.27626e+09
1.27603e+09
1.27563e+09
1.27492e+09
1.27391e+09
1.27303e+09
1.27257e+09
1.27576e+09
1.27583e+09
1.27587e+09
1.27595e+09
1.27603e+09
1.27612e+09
1.27621e+09
1.27631e+09
1.27634e+09
1.27629e+09
1.27606e+09
1.27566e+09
1.27495e+09
1.27394e+09
1.27306e+09
1.2726e+09
1.27579e+09
1.27586e+09
1.2759e+09
1.27598e+09
1.27606e+09
1.27615e+09
1.27625e+09
1.27634e+09
1.27637e+09
1.27632e+09
1.27609e+09
1.27569e+09
1.27498e+09
1.27397e+09
1.27309e+09
1.27263e+09
1.27582e+09
1.27589e+09
1.27593e+09
1.27601e+09
1.27609e+09
1.27618e+09
1.27628e+09
1.27638e+09
1.2764e+09
1.27635e+09
1.27612e+09
1.27572e+09
1.27502e+09
1.274e+09
1.27312e+09
1.27266e+09
1.27586e+09
1.27592e+09
1.27596e+09
1.27604e+09
1.27612e+09
1.27621e+09
1.27631e+09
1.27641e+09
1.27644e+09
1.27639e+09
1.27615e+09
1.27575e+09
1.27505e+09
1.27403e+09
1.27316e+09
1.27269e+09
1.27589e+09
1.27595e+09
1.27599e+09
1.27607e+09
1.27615e+09
1.27624e+09
1.27634e+09
1.27644e+09
1.27647e+09
1.27642e+09
1.27619e+09
1.27578e+09
1.27508e+09
1.27406e+09
1.27319e+09
1.27272e+09
1.27592e+09
1.27599e+09
1.27602e+09
1.2761e+09
1.27618e+09
1.27628e+09
1.27637e+09
1.27647e+09
1.2765e+09
1.27645e+09
1.27622e+09
1.27582e+09
1.27511e+09
1.27409e+09
1.27322e+09
1.27275e+09
1.27595e+09
1.27602e+09
1.27606e+09
1.27613e+09
1.27621e+09
1.27631e+09
1.2764e+09
1.2765e+09
1.27653e+09
1.27648e+09
1.27625e+09
1.27585e+09
1.27514e+09
1.27413e+09
1.27325e+09
1.27272e+09
1.27598e+09
1.27605e+09
1.27609e+09
1.27617e+09
1.27624e+09
1.27634e+09
1.27644e+09
1.27654e+09
1.27656e+09
1.27651e+09
1.27628e+09
1.27588e+09
1.27517e+09
1.27416e+09
1.27328e+09
1.27259e+09
1.27601e+09
1.27608e+09
1.27612e+09
1.2762e+09
1.27627e+09
1.27637e+09
1.27647e+09
1.27657e+09
1.27659e+09
1.27654e+09
1.27631e+09
1.27591e+09
1.2752e+09
1.27419e+09
1.27323e+09
1.2723e+09
1.27604e+09
1.27611e+09
1.27615e+09
1.27623e+09
1.27631e+09
1.2764e+09
1.2765e+09
1.2766e+09
1.27663e+09
1.27658e+09
1.27635e+09
1.27594e+09
1.27523e+09
1.27421e+09
1.27301e+09
1.2718e+09
1.27607e+09
1.27614e+09
1.27618e+09
1.27626e+09
1.27634e+09
1.27643e+09
1.27653e+09
1.27663e+09
1.27666e+09
1.27661e+09
1.27635e+09
1.27589e+09
1.27508e+09
1.27396e+09
1.27255e+09
1.2711e+09
1.2761e+09
1.27617e+09
1.27621e+09
1.27629e+09
1.27637e+09
1.27646e+09
1.27651e+09
1.27655e+09
1.2765e+09
1.27637e+09
1.27603e+09
1.27547e+09
1.27457e+09
1.27335e+09
1.27183e+09
1.27025e+09
1.27614e+09
1.27612e+09
1.27613e+09
1.27617e+09
1.2762e+09
1.27622e+09
1.2762e+09
1.27614e+09
1.27599e+09
1.27575e+09
1.27531e+09
1.27466e+09
1.27367e+09
1.27241e+09
1.27085e+09
1.26926e+09
1.27609e+09
1.27578e+09
1.27575e+09
1.27573e+09
1.27568e+09
1.27562e+09
1.2755e+09
1.27535e+09
1.2751e+09
1.27475e+09
1.27423e+09
1.2735e+09
1.27248e+09
1.2712e+09
1.26968e+09
1.26816e+09
1.27576e+09
1.27501e+09
1.27495e+09
1.27487e+09
1.27476e+09
1.27461e+09
1.27441e+09
1.27417e+09
1.27384e+09
1.27342e+09
1.27284e+09
1.27208e+09
1.27105e+09
1.2698e+09
1.26838e+09
1.26699e+09
1.27502e+09
1.27376e+09
1.27367e+09
1.27355e+09
1.27339e+09
1.27319e+09
1.27294e+09
1.27265e+09
1.27228e+09
1.27181e+09
1.27121e+09
1.27044e+09
1.26945e+09
1.26827e+09
1.26699e+09
1.26579e+09
1.27378e+09
1.27201e+09
1.27192e+09
1.27179e+09
1.27161e+09
1.2714e+09
1.27114e+09
1.27083e+09
1.27045e+09
1.26999e+09
1.2694e+09
1.26866e+09
1.26774e+09
1.26665e+09
1.26555e+09
1.26456e+09
1.27204e+09
1.26985e+09
1.26977e+09
1.26965e+09
1.26949e+09
1.2693e+09
1.26906e+09
1.26877e+09
1.26842e+09
1.26799e+09
1.26745e+09
1.26676e+09
1.26594e+09
1.26498e+09
1.26406e+09
1.2633e+09
1.26987e+09
1.26741e+09
1.26735e+09
1.26726e+09
1.26714e+09
1.26699e+09
1.26679e+09
1.26655e+09
1.26625e+09
1.26587e+09
1.2654e+09
1.26479e+09
1.26408e+09
1.26326e+09
1.26255e+09
1.26203e+09
1.26742e+09
1.26484e+09
1.26481e+09
1.26475e+09
1.26467e+09
1.26457e+09
1.26442e+09
1.26424e+09
1.264e+09
1.26369e+09
1.26329e+09
1.26278e+09
1.26219e+09
1.26152e+09
1.26103e+09
1.26077e+09
1.26485e+09
1.26232e+09
1.26229e+09
1.26226e+09
1.26221e+09
1.26214e+09
1.26204e+09
1.26191e+09
1.26173e+09
1.26149e+09
1.26117e+09
1.26076e+09
1.2603e+09
1.2598e+09
1.25953e+09
1.25953e+09
1.26232e+09
1.25995e+09
1.25993e+09
1.2599e+09
1.25986e+09
1.25981e+09
1.25974e+09
1.25964e+09
1.25951e+09
1.25933e+09
1.25908e+09
1.25877e+09
1.25843e+09
1.2581e+09
1.25807e+09
1.25832e+09
1.25995e+09
1.25783e+09
1.2578e+09
1.25776e+09
1.25771e+09
1.25766e+09
1.25759e+09
1.2575e+09
1.25739e+09
1.25725e+09
1.25706e+09
1.25684e+09
1.25663e+09
1.25647e+09
1.25666e+09
1.25715e+09
1.25783e+09
1.25597e+09
1.25593e+09
1.25588e+09
1.25581e+09
1.25573e+09
1.25564e+09
1.25555e+09
1.25544e+09
1.25531e+09
1.25517e+09
1.25502e+09
1.25492e+09
1.25494e+09
1.25533e+09
1.25603e+09
1.25598e+09
1.25438e+09
1.25434e+09
1.25427e+09
1.25418e+09
1.25408e+09
1.25396e+09
1.25384e+09
1.25371e+09
1.25358e+09
1.25344e+09
1.25335e+09
1.25334e+09
1.25352e+09
1.25409e+09
1.25496e+09
1.25439e+09
1.25302e+09
1.25298e+09
1.25291e+09
1.25282e+09
1.2527e+09
1.25256e+09
1.25241e+09
1.25225e+09
1.25209e+09
1.25195e+09
1.25188e+09
1.25194e+09
1.25224e+09
1.25293e+09
1.25391e+09
1.25303e+09
1.25187e+09
1.25183e+09
1.25176e+09
1.25167e+09
1.25155e+09
1.25141e+09
1.25125e+09
1.25107e+09
1.2509e+09
1.25075e+09
1.25071e+09
1.25079e+09
1.25114e+09
1.25185e+09
1.25285e+09
1.25188e+09
1.25087e+09
1.25082e+09
1.25076e+09
1.25069e+09
1.2506e+09
1.25048e+09
1.25035e+09
1.25021e+09
1.25008e+09
1.25e+09
1.25e+09
1.25005e+09
1.25033e+09
1.2509e+09
1.25181e+09
1.25088e+09
1.25009e+09
1.25005e+09
1.25e+09
1.25e+09
1.25e+09
1.25e+09
1.25e+09
1.25e+09
1.25e+09
1.25e+09
1.25e+09
1.25e+09
1.25e+09
1.25023e+09
1.25091e+09
1.25011e+09
1.25e+09
1.25e+09
1.25e+09
1.25e+09
1.25e+09
1.25e+09
1.25e+09
1.25e+09
1.25e+09
1.25e+09
1.25e+09
1.25e+09
1.25e+09
1.25e+09
1.25028e+09
1.25e+09
1.25e+09
1.25e+09
1.25e+09
1.25e+09
1.25e+09
1.25e+09
1.25e+09
1.25e+09
1.25e+09
1.25e+09
1.25e+09
1.25e+09
1.25e+09
1.25e+09
1.25e+09
1.25e+09
1.25e+09
1.25e+09
1.25e+09
1.25e+09
1.25e+09
1.25e+09
1.25e+09
1.25e+09
1.25e+09
1.25e+09
1.25e+09
1.25e+09
1.25e+09
1.25e+09
1.25e+09
1.25e+09
1.25e+09
1.25e+09
1.25e+09
1.25e+09
1.25e+09
1.25e+09
1.25e+09
1.25e+09
1.25e+09
1.25e+09
1.25e+09
1.25e+09
1.25e+09
1.25e+09
1.25e+09
1.25e+09
1.25e+09
1.25e+09
1.25e+09
1.25e+09
1.25e+09
1.25e+09
1.25e+09
1.25e+09
1.25e+09
1.25e+09
1.25e+09
1.25e+09
1.25e+09
1.25e+09
1.25e+09
1.25e+09
1.25e+09
1.25e+09
1.25e+09
1.25e+09
1.25e+09
1.25e+09
1.25e+09
1.25e+09
1.25e+09
1.25e+09
1.25e+09
1.25e+09
1.25e+09
1.25e+09
1.25e+09
1.25e+09
1.25e+09
1.25e+09
1.25e+09
1.25e+09
1.25e+09
1.25e+09
1.25e+09
1.25e+09
1.25e+09
1.25e+09
1.25e+09
1.25e+09
1.25e+09
1.25e+09
1.25e+09
1.25e+09
1.25e+09
1.25e+09
1.25e+09
1.25e+09
1.25e+09
1.25e+09
1.25e+09
1.25e+09
1.25e+09
1.25e+09
1.25e+09
1.25e+09
1.25e+09
1.25e+09
1.25e+09
1.25e+09
1.25e+09
1.25e+09
1.25e+09
1.25e+09
1.25e+09
1.25e+09
1.25e+09
1.25e+09
1.25e+09
1.25e+09
1.25e+09
1.25e+09
1.25e+09
1.25e+09
1.25e+09
1.25e+09
1.25e+09
1.25e+09
1.25e+09
1.25e+09
1.25e+09
1.25e+09
1.25e+09
1.25e+09
1.25e+09
1.25e+09
1.25e+09
1.25e+09
1.25e+09
1.25e+09
1.25e+09
1.25e+09
1.25e+09
1.25e+09
1.25e+09
1.25e+09
1.25e+09
1.25e+09
1.25e+09
1.25e+09
1.25e+09
1.25e+09
1.25e+09
1.25e+09
1.25e+09
1.25e+09
1.25e+09
1.25e+09
1.25e+09
1.25e+09
1.25e+09
1.25e+09
1.25e+09
1.25e+09
1.25e+09
1.25e+09
1.25e+09
1.25e+09
1.25e+09
1.25e+09
1.25e+09
1.25e+09
1.25e+09
1.25e+09
1.25e+09
1.25e+09
1.25e+09
1.25e+09
1.25e+09
1.25e+09
1.25e+09
1.25e+09
1.25e+09
1.25e+09
1.25e+09
1.25e+09
1.25e+09
1.25e+09
1.25e+09
1.25e+09
1.25e+09
1.25e+09
1.25e+09
1.25e+09
1.25e+09
1.25e+09
1.25e+09
1.25e+09
1.25e+09
1.25e+09
1.25e+09
1.25e+09
1.25e+09
1.25e+09
1.25e+09
1.25e+09
1.25e+09
1.25e+09
1.25e+09
1.25e+09
1.25e+09
1.25e+09
1.25e+09
1.25e+09
1.25e+09
1.25e+09
1.25e+09
1.25e+09
1.25e+09
1.25e+09
1.25e+09
1.25e+09
1.25e+09
1.25e+09
1.25e+09
1.25e+09
1.25e+09
1.25e+09
1.25e+09
1.25e+09
1.25e+09
1.25e+09
1.25e+09
1.25e+09
1.25e+09
1.25e+09
1.25e+09
1.25e+09
1.25e+09
1.25e+09
1.25e+09
1.25e+09
1.25e+09
1.25e+09
1.25e+09
1.25e+09
1.25e+09
1.25e+09
1.25e+09
1.25e+09
1.25e+09
1.25e+09
1.25e+09
1.25e+09
1.25e+09
1.25e+09
1.25e+09
1.25e+09
1.25e+09
1.25e+09
1.25e+09
1.25e+09
1.25e+09
1.25e+09
1.25e+09
1.25e+09
1.25e+09
1.25e+09
1.25e+09
1.25e+09
1.25e+09
1.25e+09
1.25e+09
1.25e+09
1.25e+09
1.25e+09
1.25e+09
1.25e+09
1.25e+09
1.25e+09
1.25e+09
1.25e+09
1.25e+09
1.25e+09
1.25e+09
1.25e+09
1.25e+09
1.25e+09
1.25e+09
1.25e+09
1.25e+09
1.25e+09
1.25e+09
1.25e+09
1.25e+09
1.25e+09
1.25e+09
1.25e+09
1.25e+09
1.25e+09
1.25e+09
1.25e+09
1.25e+09
1.25e+09
1.25e+09
1.25e+09
1.25e+09
1.25e+09
1.25e+09
1.25e+09
1.25e+09
1.25e+09
1.25e+09
1.25e+09
1.25e+09
1.25e+09
1.25e+09
1.25e+09
1.25e+09
1.25e+09
1.25e+09
1.25e+09
1.25e+09
1.25e+09
1.25e+09
1.25e+09
1.25e+09
1.25e+09
1.25e+09
1.25e+09
1.25e+09
1.25e+09
1.25e+09
1.25e+09
1.25e+09
1.25e+09
1.25e+09
1.25e+09
1.25e+09
1.25e+09
1.25e+09
1.25e+09
1.25e+09
1.25e+09
1.25e+09
1.25e+09
1.25e+09
1.25e+09
1.25e+09
1.25e+09
1.25e+09
1.25e+09
1.25e+09
1.25e+09
1.25e+09
1.25e+09
1.25e+09
1.25e+09
1.25e+09
1.25e+09
1.25e+09
1.25e+09
1.25e+09
1.25e+09
1.25e+09
1.25e+09
1.25e+09
1.25e+09
1.25e+09
1.25e+09
1.25e+09
1.25e+09
1.25e+09
1.25e+09
1.25e+09
1.25e+09
1.25e+09
1.25e+09
1.25e+09
1.25e+09
1.25e+09
1.25e+09
1.25e+09
1.25e+09
1.25e+09
1.25e+09
1.25e+09
1.25e+09
1.25e+09
1.25e+09
1.25e+09
1.25e+09
1.25e+09
1.25e+09
1.25e+09
1.25e+09
1.25e+09
1.25e+09
1.25e+09
1.25e+09
1.25e+09
1.25e+09
1.25e+09
1.25e+09
1.25e+09
1.25e+09
1.25e+09
1.25e+09
1.25e+09
1.25e+09
1.25e+09
1.25e+09
1.25e+09
1.25e+09
1.25e+09
1.25e+09
1.25e+09
1.25e+09
1.25e+09
1.25e+09
1.25e+09
1.25e+09
1.25e+09
1.25e+09
1.25e+09
1.25e+09
1.25e+09
1.25e+09
1.25e+09
1.25e+09
1.25e+09
1.25e+09
1.25e+09
1.25e+09
1.25e+09
1.25e+09
1.25e+09
1.25e+09
1.25e+09
1.25e+09
1.25e+09
1.25e+09
1.25e+09
1.25e+09
1.25e+09
1.25e+09
1.25e+09
1.25e+09
1.25e+09
1.25e+09
1.25e+09
1.25e+09
1.25e+09
1.25e+09
1.25e+09
1.25e+09
1.25e+09
1.25e+09
1.25e+09
1.25e+09
1.25e+09
1.25e+09
1.25e+09
1.25e+09
1.25e+09
1.25e+09
1.25e+09
1.25e+09
1.25e+09
1.25e+09
1.25e+09
1.25e+09
1.25e+09
1.25e+09
1.25e+09
1.25e+09
1.25e+09
1.25e+09
1.25e+09
1.25e+09
1.25e+09
1.25e+09
1.25e+09
1.25e+09
1.25e+09
1.25e+09
1.25e+09
1.25e+09
1.25e+09
1.25e+09
1.25e+09
1.25e+09
1.25e+09
1.25e+09
1.25e+09
1.25e+09
1.25e+09
1.25e+09
1.25e+09
1.25e+09
1.25e+09
1.25e+09
1.25e+09
1.25e+09
1.25e+09
1.25e+09
1.25e+09
1.25e+09
1.25e+09
1.25e+09
1.25e+09
1.25e+09
1.25e+09
1.25e+09
1.25e+09
1.25e+09
1.25e+09
1.25e+09
1.25e+09
1.25e+09
1.25e+09
1.25e+09
1.25e+09
1.25e+09
1.25e+09
1.25e+09
1.25e+09
1.25e+09
1.25e+09
1.25e+09
1.25e+09
1.25e+09
1.25e+09
1.25e+09
1.25e+09
1.25e+09
1.25e+09
1.25e+09
1.25e+09
1.25e+09
1.25e+09
1.25e+09
1.25e+09
1.25e+09
1.25e+09
1.25e+09
1.25e+09
1.25e+09
1.25e+09
1.25e+09
1.25e+09
1.25e+09
1.25e+09
1.25e+09
1.25e+09
1.25e+09
1.25e+09
1.25e+09
1.25e+09
1.25e+09
1.25e+09
1.25e+09
1.25e+09
1.25e+09
1.25e+09
1.25e+09
1.25e+09
1.25e+09
1.25e+09
1.25e+09
1.25e+09
1.25e+09
1.25e+09
1.25e+09
1.25e+09
1.25e+09
1.25e+09
1.25e+09
1.25e+09
1.25e+09
1.25e+09
1.25e+09
1.25e+09
1.25e+09
1.25e+09
1.25e+09
1.25e+09
1.25e+09
1.25e+09
1.25e+09
1.25e+09
1.25e+09
1.25e+09
1.25e+09
1.25e+09
1.25e+09
1.25e+09
1.25e+09
1.25e+09
1.25e+09
1.25e+09
1.25e+09
1.25e+09
1.25e+09
1.25e+09
1.25e+09
1.25e+09
1.25e+09
1.25e+09
1.25e+09
1.25e+09
1.25e+09
1.25e+09
1.25e+09
1.25e+09
1.25e+09
1.25e+09
1.25e+09
1.25e+09
1.25e+09
1.25e+09
1.25e+09
1.25e+09
1.25e+09
1.25e+09
1.25e+09
1.25e+09
1.25e+09
1.25e+09
1.25e+09
1.25e+09
1.25e+09
1.25e+09
1.25e+09
1.25e+09
1.25e+09
1.25e+09
1.25e+09
1.25e+09
1.25e+09
1.25e+09
1.25e+09
1.25e+09
1.25e+09
1.25e+09
1.25e+09
1.25e+09
1.25e+09
1.25e+09
1.25e+09
1.25e+09
1.25e+09
1.25e+09
1.25e+09
1.25e+09
1.25e+09
1.25e+09
1.25e+09
1.25e+09
1.25e+09
1.25e+09
1.25e+09
1.25e+09
1.25e+09
1.25e+09
1.25e+09
1.25e+09
1.25e+09
1.25e+09
1.25e+09
1.25e+09
1.25e+09
1.25e+09
1.25e+09
1.25e+09
1.25e+09
1.25e+09
1.25e+09
1.25e+09
1.25e+09
1.25e+09
1.25e+09
1.25e+09
1.25e+09
1.25e+09
1.25e+09
1.25e+09
1.25e+09
1.25e+09
1.25e+09
1.25e+09
1.25e+09
1.25e+09
1.25e+09
1.25e+09
1.25e+09
1.25e+09
1.25e+09
1.25e+09
1.25e+09
1.25e+09
1.25e+09
1.25e+09
1.25e+09
1.25e+09
1.25e+09
1.25e+09
1.25e+09
1.25e+09
1.25e+09
1.25e+09
1.25e+09
1.25e+09
1.25e+09
1.25e+09
1.25e+09
1.25e+09
1.25e+09
1.25e+09
1.25e+09
1.25e+09
1.25e+09
1.25e+09
1.25e+09
1.25e+09
1.25e+09
1.25e+09
1.25e+09
1.25e+09
1.25e+09
1.25e+09
1.25e+09
1.25e+09
1.25e+09
1.25e+09
1.25e+09
1.25e+09
1.25e+09
1.25e+09
1.25e+09
1.25e+09
1.25e+09
1.25e+09
1.25e+09
1.25e+09
1.25e+09
1.25e+09
1.25e+09
1.25e+09
1.25e+09
1.25e+09
1.25e+09
1.25e+09
1.25e+09
1.25e+09
1.25e+09
1.25e+09
1.25e+09
1.25e+09
1.25e+09
1.25e+09
1.25e+09
1.25e+09
1.25e+09
1.25e+09
1.25e+09
)
;

boundaryField
{
    wireUpstream
    {
        type            calculated;
        value           uniform 1.25e+09;
    }
    wireDownstream
    {
        type            calculated;
        value           nonuniform List<scalar> 
16
(
1.27446e+09
1.2745e+09
1.27458e+09
1.27465e+09
1.27475e+09
1.27482e+09
1.27491e+09
1.27494e+09
1.27489e+09
1.27467e+09
1.27426e+09
1.27357e+09
1.2726e+09
1.27171e+09
1.27124e+09
1.27443e+09
)
;
    }
    wireTopContact
    {
        type            calculated;
        value           nonuniform List<scalar> 
122
(
1.27119e+09
1.27123e+09
1.27126e+09
1.27129e+09
1.27132e+09
1.27135e+09
1.27138e+09
1.27141e+09
1.27144e+09
1.27147e+09
1.2715e+09
1.27153e+09
1.27156e+09
1.27159e+09
1.27162e+09
1.27166e+09
1.27169e+09
1.27172e+09
1.27175e+09
1.27178e+09
1.27181e+09
1.27184e+09
1.27187e+09
1.2719e+09
1.27193e+09
1.27196e+09
1.27199e+09
1.27202e+09
1.27205e+09
1.27208e+09
1.27211e+09
1.27214e+09
1.27218e+09
1.27221e+09
1.27224e+09
1.27227e+09
1.2723e+09
1.27233e+09
1.27236e+09
1.27239e+09
1.27242e+09
1.27245e+09
1.27248e+09
1.27251e+09
1.27254e+09
1.27257e+09
1.2726e+09
1.27264e+09
1.27266e+09
1.27263e+09
1.2725e+09
1.2722e+09
1.27169e+09
1.271e+09
1.27015e+09
1.26917e+09
1.26808e+09
1.26692e+09
1.26572e+09
1.26449e+09
1.26323e+09
1.26196e+09
1.2607e+09
1.25946e+09
1.25825e+09
1.2571e+09
1.25599e+09
1.25493e+09
1.2539e+09
1.25285e+09
1.25182e+09
1.25092e+09
1.25028e+09
1.25e+09
1.25e+09
1.25e+09
1.25e+09
1.25e+09
1.25e+09
1.25e+09
1.25e+09
1.25e+09
1.25e+09
1.25e+09
1.25e+09
1.25e+09
1.25e+09
1.25e+09
1.25e+09
1.25e+09
1.25e+09
1.25e+09
1.25e+09
1.25e+09
1.25e+09
1.25e+09
1.25e+09
1.25e+09
1.25e+09
1.25e+09
1.25e+09
1.25e+09
1.25e+09
1.25e+09
1.25e+09
1.25e+09
1.25e+09
1.25e+09
1.25e+09
1.25e+09
1.25e+09
1.25e+09
1.25e+09
1.25e+09
1.25e+09
1.25e+09
1.25e+09
1.25e+09
1.25e+09
1.25e+09
1.25e+09
1.27116e+09
)
;
    }
    front
    {
        type            wedge;
    }
    back
    {
        type            wedge;
    }
}


// ************************************************************************* //
