/*--------------------------------*- C++ -*----------------------------------*\
| =========                 |                                                 |
| \\      /  F ield         | OpenFOAM: The Open Source CFD Toolbox           |
|  \\    /   O peration     | Version:  4.1                                   |
|   \\  /    A nd           | Web:      www.OpenFOAM.org                      |
|    \\/     M anipulation  |                                                 |
\*---------------------------------------------------------------------------*/
FoamFile
{
    version     2.0;
    format      ascii;
    class       volScalarField;
    location    "0.000180";
    object      epsilon;
}
// * * * * * * * * * * * * * * * * * * * * * * * * * * * * * * * * * * * * * //

dimensions      [0 2 -3 0 0 0 0];

internalField   nonuniform List<scalar> 
3072
(
27.765913
29.211725
30.964391
32.491716
34.334679
36.002638
37.659816
39.38495
40.780743
42.408618
43.719116
44.861617
45.693673
46.108613
46.370289
46.071731
45.537208
44.457892
43.080843
41.437712
38.930245
35.713804
30.02146
19.839496
21.569321
22.346413
23.30471
24.18059
25.266989
26.276603
27.308708
28.398812
29.297692
30.338124
31.185222
31.923862
32.442662
32.668256
32.785043
32.51373
32.066193
31.258357
30.293874
29.113966
27.396162
25.27382
21.930451
16.912242
19.346242
19.854734
20.445862
21.002207
21.681573
22.313492
22.959052
23.637026
24.189036
24.815582
25.317138
25.738324
26.010041
26.072289
26.065324
25.799178
25.393698
24.785748
24.097855
23.278537
22.172009
20.764888
18.746656
15.971972
18.245757
18.645591
19.060757
19.47258
19.932437
20.359769
20.788154
21.217287
21.553633
21.917681
22.190604
22.393435
22.496946
22.44364
22.328599
22.050545
21.659034
21.218149
20.679273
20.06588
19.347532
18.400334
17.16261
15.52058
17.644213
17.999511
18.337992
18.684015
19.025996
19.328757
19.625633
19.885268
20.076575
20.253004
20.357751
20.394099
20.372396
20.233512
20.024833
19.730807
19.35966
18.999618
18.557184
18.09883
17.590099
16.973725
16.237933
15.258286
17.456177
17.805535
18.141195
18.456392
18.736945
18.963299
19.165467
19.306549
19.389502
19.426614
19.396966
19.303913
19.162392
18.954867
18.680891
18.360469
18.032831
17.665709
17.2998
16.910822
16.528888
16.115211
15.683183
15.091842
18.026585
18.431039
18.787156
19.080004
19.308068
19.472506
19.580909
19.62688
19.615854
19.550603
19.424879
19.23161
18.979467
18.693805
18.387312
18.052536
17.700118
17.330922
16.938328
16.550602
16.170524
15.80861
15.479532
15.017224
21.371733
21.914971
22.289125
22.470743
22.483118
22.400159
22.249863
22.062531
21.877287
21.679853
21.522304
21.371861
21.125845
20.792177
20.386076
19.923015
19.413725
18.855457
18.250436
17.619309
16.98209
16.360367
15.764042
14.998395
21.580819
22.358954
23.315513
24.187162
25.269949
26.277112
27.305538
28.393357
29.296429
30.364315
31.213197
31.95076
32.469771
32.698049
32.816034
32.543421
32.091322
31.277935
30.309391
29.127867
27.407646
25.280515
21.932183
16.912655
16.871297
17.088122
17.392649
17.694087
18.103929
18.508208
18.949337
19.435198
19.860592
20.362074
20.779952
21.156309
21.421046
21.542964
21.609832
21.483157
21.272566
20.887887
20.433496
19.877536
19.085631
18.161364
16.901261
15.296117
15.674967
15.708871
15.786799
15.87657
16.02264
16.177155
16.357174
16.563192
16.743488
16.956459
17.136657
17.30196
17.415055
17.458953
17.481915
17.416749
17.31268
17.140892
16.950501
16.725198
16.415444
16.044366
15.577722
14.975971
15.316636
15.289808
15.285782
15.299782
15.344037
15.400091
15.473277
15.558838
15.62938
15.71456
15.782471
15.843458
15.882426
15.884646
15.878412
15.83427
15.771522
15.704129
15.623854
15.542583
15.447075
15.316053
15.158721
14.889264
15.193641
15.148791
15.118775
15.108802
15.11537
15.129815
15.156188
15.18277
15.200143
15.220492
15.229453
15.231007
15.22648
15.202464
15.172776
15.132803
15.087904
15.058101
15.026183
15.011699
15.006279
14.996407
14.98651
14.856438
15.229786
15.200027
15.185478
15.184617
15.191863
15.198408
15.209223
15.210794
15.202526
15.187233
15.160231
15.122827
15.079814
15.028581
14.972116
14.919432
14.8685
14.831573
14.806381
14.802713
14.822937
14.859696
14.920582
14.845812
15.698736
15.774781
15.852076
15.922032
15.980731
16.019329
16.041005
16.041417
16.019741
15.976044
15.90849
15.828854
15.742672
15.65062
15.557021
15.451963
15.339662
15.229478
15.126349
15.041514
14.984412
14.957982
14.97907
14.8644
18.023901
18.434311
18.79364
19.084809
19.313285
19.465294
19.566403
19.613328
19.606903
19.544682
19.420463
19.231383
18.976122
18.682153
18.370176
18.043902
17.685528
17.310043
16.925053
16.539761
16.162501
15.801401
15.473178
15.015032
19.369639
19.879416
20.468236
21.017651
21.690324
22.317125
22.956084
23.632098
24.192295
24.859028
25.365629
25.783918
26.055463
26.120957
26.114814
25.846707
25.437064
24.822843
24.128743
23.302668
22.189427
20.774138
18.749568
15.973485
15.680277
15.714922
15.792619
15.880496
16.024596
16.177322
16.355896
16.562931
16.748753
16.977219
17.162593
17.327928
17.441414
17.487111
17.511446
17.446053
17.339838
17.164408
16.969438
16.738712
16.424969
16.04973
15.581291
14.977865
14.856001
14.74266
14.653601
14.581511
14.541847
14.521771
14.525163
14.549131
14.577008
14.626498
14.674227
14.728207
14.77436
14.809048
14.848207
14.868918
14.888813
14.900499
14.920146
14.944231
14.954739
14.954825
14.937061
14.821684
14.698091
14.538149
14.39432
14.269161
14.167895
14.088337
14.030019
13.988619
13.957386
13.943502
13.940257
13.952013
13.974211
14.004737
14.050865
14.104075
14.169796
14.251615
14.349386
14.46481
14.589401
14.703638
14.806129
14.796434
14.686349
14.514356
14.356724
14.219118
14.101581
14.004377
13.92672
13.862763
13.810418
13.773826
13.751633
13.744838
13.753964
13.777907
13.820549
13.879189
13.956078
14.054989
14.174781
14.315766
14.473595
14.627567
14.773605
14.793512
14.767048
14.618397
14.485756
14.372733
14.276702
14.195927
14.128812
14.070046
14.018862
13.977052
13.945328
13.923162
13.913
13.919442
13.942709
13.980791
14.036673
14.114093
14.212992
14.335232
14.479535
14.629955
14.785912
14.802363
15.232705
15.203701
15.187614
15.186844
15.193048
15.198604
15.204685
15.205882
15.199449
15.183886
15.157689
15.120206
15.075344
15.022057
14.964472
14.911588
14.86104
14.8253
14.801742
14.798974
14.820324
14.858116
14.919182
14.845056
17.463547
17.814526
18.148509
18.461911
18.740083
18.962639
19.15515
19.296715
19.38532
19.425804
19.402866
19.311604
19.165016
18.954918
18.67968
18.356979
18.026858
17.663484
17.299583
16.911725
16.525227
16.111324
15.680013
15.089934
18.278841
18.680181
19.092034
19.496376
19.94785
20.368312
20.786796
21.216293
21.560788
21.966141
22.249676
22.448834
22.551914
22.502542
22.390833
22.112988
21.719699
21.272942
20.724769
20.105327
19.372611
18.413909
17.171639
15.524436
15.32589
15.299953
15.29547
15.307582
15.349343
15.40276
15.473303
15.561969
15.639185
15.743213
15.821486
15.885176
15.926619
15.932511
15.929323
15.885596
15.820214
15.747352
15.658134
15.568173
15.463831
15.325411
15.166807
14.893435
14.699178
14.539595
14.395983
14.27091
14.169362
14.08891
14.030622
13.991672
13.963808
13.955797
13.957189
13.971488
13.995933
14.028783
14.07638
14.129388
14.193227
14.271929
14.365645
14.476571
14.596906
14.707866
14.810757
14.799301
14.598715
14.397975
14.209137
14.038723
13.889746
13.763442
13.659819
13.576054
13.509895
13.464746
13.440419
13.439404
13.461217
13.505775
13.575315
13.665803
13.776748
13.909885
14.06572
14.241039
14.427591
14.600273
14.753022
14.784347
14.602992
14.396906
14.202686
14.02777
13.873116
13.740076
13.628306
13.534952
13.459281
13.404744
13.373041
13.365521
13.38274
13.425411
13.495158
13.589398
13.706199
13.847259
14.011582
14.196306
14.39371
14.578273
14.742603
14.782307
14.687919
14.515771
14.359235
14.223872
14.108624
14.011552
13.93144
13.866158
13.812277
13.773656
13.74972
13.740615
13.747327
13.770519
13.813426
13.871079
13.948531
14.048785
14.169851
14.312614
14.471298
14.625562
14.771868
14.79272
15.196327
15.150712
15.120885
15.112842
15.122566
15.13786
15.159388
15.186273
15.205144
15.226005
15.236301
15.237063
15.230311
15.205741
15.177012
15.135421
15.091394
15.063134
15.032604
15.021141
15.016109
15.002756
14.988746
14.856001
17.652164
18.006371
18.343748
18.690374
19.036165
19.341183
19.62956
19.891108
20.0875
20.269361
20.380758
20.416961
20.393064
20.253499
20.04385
19.74546
19.37267
19.011468
18.56734
18.115302
17.605647
16.98103
16.239021
15.257161
17.680163
18.036909
18.370286
18.710113
19.04262
19.337426
19.622713
19.882658
20.079234
20.288626
20.413953
20.453358
20.43359
20.300578
20.09872
19.807535
19.435367
19.069304
18.614094
18.147323
17.622615
16.994326
16.249791
15.263459
15.203377
15.159191
15.128175
15.117365
15.121734
15.133754
15.15723
15.187219
15.209873
15.246399
15.2698
15.279279
15.281137
15.263524
15.238415
15.198972
15.151004
15.113431
15.071199
15.044202
15.026391
15.008249
14.99667
14.861609
14.686083
14.514269
14.356785
14.219984
14.102789
14.005081
13.928006
13.867739
13.82008
13.791182
13.776754
13.776471
13.791857
13.821009
13.866225
13.924173
13.997611
14.090289
14.202613
14.335598
14.48613
14.63451
14.781664
14.798196
14.599803
14.393755
14.200025
14.026008
13.871559
13.737796
13.626747
13.535933
13.463769
13.413585
13.386287
13.383152
13.404982
13.450898
13.521751
13.615601
13.730534
13.867895
14.027723
14.207882
14.400933
14.582439
14.747589
14.785693
14.597114
14.396199
14.209278
14.042912
13.896234
13.769469
13.663408
13.576615
13.507155
13.458888
13.432136
13.429458
13.450457
13.49523
13.564934
13.655508
13.767809
13.903076
14.060713
14.237148
14.424578
14.597982
14.751181
14.783532
14.696011
14.535289
14.394068
14.275003
14.178443
14.099271
14.037265
13.992832
13.957855
13.940355
13.93505
13.945065
13.965889
13.997208
14.044121
14.097103
14.164852
14.249946
14.350842
14.468391
14.593902
14.706917
14.806415
14.795465
15.314905
15.285516
15.283026
15.303307
15.355029
15.414352
15.48423
15.570717
15.642711
15.72959
15.801191
15.864853
15.905402
15.910652
15.90629
15.861492
15.801682
15.736987
15.658786
15.580107
15.483374
15.344168
15.171441
14.890298
18.250137
18.644055
19.05853
19.47578
19.945538
20.379246
20.80268
21.234896
21.576131
21.945677
22.22622
22.433007
22.538338
22.486702
22.370815
22.088417
21.69908
21.256916
20.71748
20.110854
19.389226
18.43208
17.174009
15.520797
17.488683
17.839749
18.16995
18.480001
18.75026
18.965688
19.156186
19.294539
19.37842
19.428831
19.428336
19.352031
19.221895
19.022592
18.756861
18.442971
18.113775
17.75254
17.372946
16.965142
16.566451
16.136543
15.695846
15.097285
15.234576
15.205503
15.190865
15.190177
15.195576
15.199397
15.207239
15.210508
15.205959
15.200781
15.189198
15.164448
15.132369
15.091057
15.038843
14.988434
14.938231
14.893529
14.855297
14.837896
14.844558
14.871449
14.931255
14.851023
14.76245
14.613196
14.480789
14.369215
14.274408
14.193786
14.12782
14.072097
14.025539
13.991141
13.968031
13.955044
13.955536
13.96893
13.995089
14.033467
14.08675
14.157675
14.247529
14.36013
14.495054
14.638893
14.796192
14.80747
14.67963
14.506846
14.351249
14.217836
14.103766
14.006419
13.927376
13.864427
13.815122
13.782504
13.764913
13.763598
13.779489
13.808734
13.853247
13.911886
13.988367
14.084488
14.197991
14.332824
14.484107
14.633328
14.780702
14.797713
14.689968
14.529157
14.388729
14.270792
14.174602
14.095023
14.033471
13.990236
13.957829
13.943299
13.940839
13.954526
13.979961
14.014522
14.062566
14.11678
14.184951
14.268528
14.366514
14.480009
14.60114
14.711521
14.811436
14.798533
14.845653
14.730115
14.64444
14.581338
14.549592
14.532479
14.533218
14.555064
14.579068
14.623021
14.670457
14.72721
14.776553
14.815613
14.856988
14.879629
14.904671
14.922102
14.947995
14.975031
14.985106
14.978562
14.947635
14.821987
15.664997
15.694432
15.77428
15.873219
16.031193
16.193912
16.375189
16.585767
16.769811
16.984979
17.174603
17.35148
17.474099
17.527521
17.555988
17.494681
17.397867
17.231518
17.047836
16.824041
16.510359
16.119704
15.616209
14.980856
19.341466
19.841518
20.431258
20.995746
21.689371
22.332914
22.979113
23.66353
24.221668
24.8507
25.36414
25.797941
26.07743
26.146198
26.142085
25.876673
25.478441
24.87591
24.190737
23.374367
22.26788
20.842449
18.784702
15.97604
18.049469
18.459833
18.813704
19.099059
19.3176
19.465459
19.566272
19.60704
19.592654
19.523436
19.408317
19.236788
19.012887
18.746673
18.456716
18.144861
17.795619
17.419909
17.020854
16.61653
16.214429
15.833656
15.493523
15.022687
15.696911
15.770783
15.84789
15.918398
15.976293
16.013572
16.035823
16.036379
16.015471
15.977181
15.919332
15.852076
15.782866
15.708604
15.620317
15.520828
15.41142
15.297364
15.184764
15.086395
15.013186
14.974155
14.991819
14.870452
15.221473
15.190837
15.176374
15.176912
15.185667
15.192724
15.201472
15.204189
15.200082
15.189509
15.169686
15.141614
15.110558
15.068808
15.0165
14.967129
14.919264
14.87727
14.847525
14.835601
14.844706
14.872398
14.931795
14.851094
15.182469
15.135689
15.107291
15.101449
15.113436
15.130484
15.154722
15.182656
15.204579
15.22932
15.243941
15.252936
15.257184
15.24066
15.215194
15.178469
15.137903
15.109229
15.074389
15.051735
15.037006
15.015526
15.000023
14.861731
15.302907
15.273019
15.271667
15.293175
15.346033
15.406724
15.47852
15.56598
15.640579
15.729624
15.803742
15.871958
15.918649
15.929152
15.928183
15.888857
15.833534
15.770246
15.690271
15.604918
15.499963
15.354342
15.180032
14.894721
15.657663
15.686952
15.767445
15.866804
16.025292
16.189074
16.37152
16.583288
16.769022
16.984897
17.175721
17.353642
17.478162
17.533842
17.564941
17.507624
17.414189
17.250012
17.066308
16.83931
16.520283
16.126184
15.620278
14.98289
16.851219
17.059378
17.365914
17.679591
18.108266
18.530914
18.983198
19.48437
19.92029
20.417288
20.854541
21.255402
21.540266
21.680082
21.761108
21.649446
21.456815
21.085511
20.645828
20.091485
19.288439
18.326509
16.990194
15.309908
21.555849
22.319443
23.276558
24.162676
25.268395
26.297434
27.337948
28.44264
29.351088
30.379139
31.242509
32.0006
32.531518
32.767034
32.89329
32.63312
32.202395
31.404015
30.456826
29.283657
27.570689
25.41888
22.008508
16.923545
21.376415
21.920098
22.295302
22.47237
22.484177
22.386758
22.237093
22.043623
21.847936
21.639278
21.474193
21.318881
21.091642
20.792249
20.435845
20.010076
19.51758
18.962165
18.352037
17.705676
17.042693
16.395682
15.782935
15.005225
18.009456
18.412573
18.773494
19.071251
19.300528
19.455388
19.563183
19.608392
19.59854
19.5339
19.408309
19.224572
18.991126
18.718653
18.425683
18.100121
17.75625
17.393811
17.003899
16.607432
16.208881
15.828935
15.490316
15.022684
17.440791
17.788691
18.125171
18.441986
18.726263
18.954463
19.153205
19.294616
19.382605
19.423009
19.399748
19.316238
19.185091
18.985872
18.718195
18.403494
18.086499
17.728348
17.359407
16.965653
16.566462
16.136628
15.694835
15.096525
17.628645
17.981352
18.321074
18.670104
19.020641
19.330775
19.625096
19.886843
20.084946
20.266103
20.376684
20.419222
20.403876
20.2719
20.067829
19.781082
19.421284
19.069575
18.628413
18.162775
17.641627
17.003696
16.252555
15.262577
18.22977
18.623475
19.03928
19.457375
19.929661
20.367782
20.795614
21.228936
21.572934
21.94179
22.222282
22.43137
22.541918
22.496231
22.385017
22.114132
21.737516
21.306189
20.771223
20.15209
19.421969
18.452089
17.185325
15.524904
19.325914
19.825656
20.416063
20.981054
21.675597
22.322561
22.971734
23.658572
24.220184
24.849361
25.363898
25.797738
26.080531
26.152664
26.152504
25.895941
25.507203
24.912412
24.233567
23.412477
22.295126
20.860045
18.79168
15.978281
21.546246
22.309277
23.267089
24.153943
25.259973
26.291204
27.333804
28.440684
29.351421
30.380535
31.244814
32.002501
32.535547
32.773005
32.90188
32.646067
32.219534
31.424583
30.481034
29.306209
27.586163
25.429574
22.011615
16.924022
27.745279
29.169552
30.921841
32.459678
34.319304
36.003442
37.663031
39.398339
40.790251
42.357291
43.666892
44.811548
45.636682
46.04036
46.296818
45.997851
45.471177
44.390968
43.029831
41.394674
38.898606
35.698573
30.003393
19.831909
36.709405
57.574984
65.348262
68.764064
71.228883
72.602897
73.679653
74.420254
74.627444
74.641284
74.097025
73.455498
72.381309
71.001539
69.422877
67.475184
65.816661
63.716829
61.70472
59.637613
57.317962
55.395067
53.053876
51.173695
29.586314
45.401605
51.9161
54.966918
57.171936
58.460177
59.489767
60.237218
60.53842
60.640788
60.267786
59.812707
58.98388
57.893079
56.632964
55.066317
53.734875
52.041373
50.412979
48.742562
46.852158
45.268943
43.353061
41.731245
25.326167
37.062746
42.360313
45.047216
46.926729
48.146941
49.131991
49.933548
50.393425
50.633454
50.47022
50.247363
49.692237
48.917027
47.98184
46.799777
45.783407
44.478929
43.207382
41.892972
40.378081
39.085192
37.552801
36.110363
22.20135
30.869822
35.074256
37.452553
39.045892
40.293376
41.310031
42.11808
42.776539
43.193059
43.297682
43.311056
43.029581
42.575047
41.954255
41.147896
40.430128
39.484614
38.519509
37.50775
36.343426
35.222692
33.978236
32.615082
19.761626
25.915709
29.161758
31.241099
32.763713
34.00781
35.149153
36.023533
36.856468
37.48691
37.92254
38.192793
38.204687
38.095065
37.812976
37.396937
36.973823
36.386388
35.686474
34.95071
34.067468
33.063224
32.004908
30.723856
17.966755
21.828094
24.280363
26.168347
27.707325
29.0598
30.315148
31.347419
32.329918
33.129706
33.895767
34.462381
34.879979
35.135055
35.256865
35.244209
35.144067
34.919764
34.537283
34.061344
33.443139
32.625617
31.637038
30.477925
18.125399
20.207712
22.05196
23.796403
25.392544
26.829192
28.099362
29.182876
30.1084
30.956074
31.733458
32.431728
33.14146
33.821941
34.376122
34.803727
35.124883
35.369807
35.475028
35.416243
35.156386
34.664217
33.934116
32.930231
21.747394
23.723209
25.367826
27.106282
28.801
30.367116
31.768695
32.991369
34.038225
34.948358
35.775327
36.468292
37.014304
37.406018
37.699095
37.942304
38.40913
39.543861
40.655016
41.487592
41.963895
42.073122
41.783035
41.070028
113.79479
129.52487
132.90375
133.25146
132.79091
132.2064
131.74804
131.49047
131.46476
131.63612
131.99532
132.51623
133.18589
134.00117
134.94324
136.00103
137.16027
138.4379
139.84643
141.39046
143.08408
144.96067
147.03529
149.37633
108.42065
119.09562
121.28702
121.26292
120.64528
119.96283
119.41376
119.0602
118.92445
118.98372
119.2297
119.63509
120.1881
120.88035
121.69626
122.61834
123.63595
124.76048
126.00729
127.38214
128.89659
130.57704
132.44098
134.54165
108.94539
114.59135
115.24209
114.62205
113.7307
112.88359
112.20172
111.71957
111.44468
111.36263
111.47201
111.74589
112.17354
112.74305
113.43875
114.24356
115.1508
116.16839
117.30744
118.57417
119.97863
121.54118
123.28091
125.24326
114.77294
114.94791
113.75497
112.35362
111.10472
110.06165
109.24121
108.63664
108.23762
108.02798
107.99806
108.12957
108.419
108.85335
109.41764
110.09304
110.87824
111.77884
112.8039
113.95853
115.25273
116.70387
118.33625
120.19157
125.95543
119.58129
116.18691
113.84091
112.17353
110.92699
109.98273
109.28444
108.79404
108.48958
108.35663
108.37732
108.54082
108.83977
109.26113
109.79405
110.44282
111.20743
112.10077
113.12543
114.29437
115.62539
117.1512
118.91505
143.08292
128.40602
122.37508
118.95783
116.84289
115.40468
114.36747
113.61125
113.06993
112.71596
112.52199
112.47443
112.55395
112.75293
113.04957
113.44384
113.94551
114.56119
115.3064
116.18515
117.21117
118.40762
119.81796
121.49624
167.45717
142.10717
132.99432
128.42547
125.86069
124.2414
123.12937
122.3332
121.75771
121.35627
121.09937
120.9699
120.94486
121.04497
121.2463
121.53184
121.9021
122.3633
122.94106
123.6459
124.49876
125.51928
126.77764
128.3483
200.23629
161.35846
148.77914
142.98754
139.95149
138.13716
136.9416
136.10821
135.5126
135.09465
134.81478
134.65596
134.59981
134.62705
134.70326
134.82348
134.98431
135.2231
135.61697
136.16166
136.88751
137.83232
139.05734
140.6516
21.754359
23.729933
25.36962
27.105123
28.799321
30.365386
31.76718
32.990204
34.034234
34.946963
35.777398
36.472505
37.018981
37.408029
37.700366
37.949176
38.414696
39.560878
40.668257
41.499333
41.978614
42.083846
41.785969
41.073569
18.124312
20.207175
22.043527
23.783832
25.378684
26.815957
28.087933
29.170494
30.094614
30.950744
31.73988
32.43758
33.145881
33.832388
34.384887
34.810548
35.130894
35.37365
35.482369
35.420623
35.15244
34.662008
33.937812
32.946073
17.960572
21.817682
24.258174
26.139961
27.674314
29.03652
30.293344
31.319212
32.302967
33.109423
33.880909
34.454692
34.880543
35.143418
35.258242
35.245644
35.144682
34.92169
34.54097
34.076036
33.457988
32.643937
31.656352
30.500329
19.760552
25.906003
29.141999
31.215605
32.730367
33.968171
35.110745
35.985609
36.82156
37.458002
37.898573
38.174312
38.193594
38.097262
37.815889
37.399595
36.978571
36.393172
35.704122
34.96945
34.084661
33.081562
32.024911
30.744748
22.204428
30.868286
35.061855
37.424432
39.005694
40.245707
41.261359
42.074894
42.732351
43.158081
43.268375
43.28604
43.009638
42.563948
41.947616
41.148729
40.436894
39.49539
38.54041
37.527388
36.357824
35.234515
33.991552
32.634148
25.328238
37.065174
42.353531
45.021133
46.887255
48.097765
49.078805
49.886146
50.344904
50.594247
50.437135
50.217956
49.665807
48.891706
47.959439
46.796078
45.788837
44.488933
43.22657
41.908231
40.386558
39.087399
37.55653
36.121802
29.590611
45.410379
51.919235
54.949944
57.139654
58.417633
59.443417
60.196644
60.495637
60.601956
60.23366
59.783857
58.958424
57.865189
56.605514
55.072936
53.748314
52.054984
50.432758
48.754342
46.854142
45.263038
43.344812
41.73698
36.710453
57.577692
65.349482
68.749968
71.203516
72.573377
73.646331
74.392953
74.597157
74.613902
74.075808
73.444403
72.376194
70.995093
69.417154
67.522876
65.862821
63.746962
61.731348
59.649959
57.315502
55.382419
53.037211
51.175345
200.24226
161.36055
148.77526
142.981
139.94319
138.12792
136.93123
136.09588
135.49797
135.07662
134.79167
134.62682
134.5622
134.58042
134.65353
134.77906
134.95089
135.1992
135.59817
136.14852
136.87889
137.82819
139.05724
140.65488
167.45421
142.10517
132.98898
128.41739
125.84932
124.22751
123.11295
122.31281
121.7334
121.32584
121.05819
120.91585
120.87524
120.95826
121.15361
121.44931
121.83965
122.32045
122.90829
123.62245
124.48523
125.51489
126.78074
128.35666
143.08834
128.4058
122.37138
118.95039
116.83131
115.39015
114.35036
113.59102
113.04698
112.68746
112.48218
112.41929
112.48014
112.66086
112.95208
113.35666
113.87932
114.51599
115.27311
116.16113
117.19832
118.40483
119.8227
121.50563
125.94588
119.57159
116.17789
113.82902
112.15804
110.90961
109.96505
109.26655
108.77632
108.46887
108.32691
108.33325
108.48083
108.76326
109.17914
109.71953
110.38527
111.16707
112.0713
113.10416
114.28166
115.62065
117.15306
118.92082
114.77241
114.94305
113.74541
112.33906
111.08682
110.04386
109.22572
108.62336
108.22637
108.01469
107.97956
108.10024
108.3797
108.80289
109.362
110.03982
110.83624
111.74932
112.78173
113.94044
115.23853
116.69476
118.33284
120.19235
108.94444
114.58536
115.23076
114.60599
113.71285
112.86859
112.19114
111.712
111.43875
111.35479
111.46396
111.73407
112.16071
112.72818
113.41898
114.2193
115.12999
116.15516
117.29701
118.56142
119.96401
121.52902
123.27405
125.24143
108.41719
119.08577
121.27166
121.24403
120.62757
119.95245
119.41155
119.0612
118.92557
118.98556
119.23819
119.65193
120.21574
120.91476
121.72547
122.63498
123.64646
124.77098
126.01338
127.37812
128.88519
130.56639
132.43565
134.54182
113.7892
129.51098
132.88395
133.2288
132.77339
132.20243
131.7586
131.50724
131.48225
131.65776
132.03113
132.57291
133.26589
134.09839
135.04002
136.08253
137.223
138.48397
139.87426
141.39776
143.07715
144.95169
147.03022
149.37529
36.711339
57.578947
65.36082
68.765507
71.219217
72.591389
73.662118
74.405274
74.60651
74.620852
74.080439
73.447643
72.377051
70.995572
69.416865
67.520471
65.858216
63.740075
61.722344
59.639783
57.305789
55.372578
53.027432
51.166599
29.589817
45.410802
51.939231
54.982919
57.175482
58.451669
59.467135
60.216052
60.510216
60.611789
60.241838
59.791434
58.963025
57.870606
56.609545
55.073212
53.744185
52.046079
50.418779
48.736932
46.836345
45.243865
43.325728
41.720182
25.328108
37.067849
42.378394
45.062966
46.935334
48.143897
49.111092
49.906301
50.355557
50.598638
50.443555
50.224753
49.669711
48.897009
47.964056
46.800728
45.787357
44.48214
43.214137
41.89059
40.367869
39.066298
37.535463
36.100487
22.202939
30.876965
35.090726
37.471283
39.063736
40.300789
41.301833
42.096202
42.740351
43.15809
43.271073
43.286022
43.005501
42.560652
41.946975
41.151895
40.435866
39.490886
38.529283
37.509687
36.33555
35.210763
33.966805
32.607462
19.763405
25.923278
29.178759
31.268387
32.795505
34.033593
35.161045
36.017693
36.836582
37.462473
37.900549
38.170019
38.18247
38.084189
37.807687
37.396674
36.974241
36.389042
35.693147
34.951877
34.061416
33.055838
31.997384
30.717931
17.969056
21.838181
24.304749
26.210508
27.760259
29.113893
30.355372
31.373137
32.341054
33.13413
33.894941
34.458632
34.869542
35.125648
35.244448
35.234601
35.135469
34.915351
34.531467
34.059346
33.437432
32.617305
31.632296
30.476388
18.130363
20.228876
22.094887
23.866596
25.483724
26.928107
28.192551
29.262685
30.169687
31.008564
31.76416
32.45518
33.130445
33.810127
34.365
34.794845
35.115271
35.361233
35.469025
35.40857
35.145406
34.655783
33.932514
32.936158
21.753353
23.751597
25.425608
27.201085
28.928886
30.51041
31.913712
33.129948
34.162999
35.043632
35.778462
36.447057
36.987536
37.386827
37.687553
37.935729
38.39847
39.541468
40.65586
41.492115
41.974256
42.088326
41.793007
41.079033
113.78783
129.50758
132.88109
133.22716
132.77369
132.20183
131.75827
131.51045
131.4898
131.6674
132.04
132.58126
133.27334
134.10356
135.04367
136.08362
137.21904
138.47448
139.86152
141.38532
143.06656
144.94205
147.0199
149.36401
108.41432
119.07958
121.26615
121.23997
120.62516
119.94917
119.4093
119.06164
118.93107
118.99249
119.24554
119.66294
120.22949
120.92801
121.73761
122.6439
123.64801
124.76352
126.00052
127.36501
128.87367
130.55474
132.42155
134.52564
108.94014
114.57746
115.22256
114.59787
113.70415
112.85943
112.18514
111.71101
111.44416
111.36185
111.47173
111.75002
112.18578
112.75642
113.44632
114.24266
115.14489
116.16182
117.29945
118.5613
119.96138
121.52295
123.26336
125.22786
114.76875
114.93633
113.73676
112.32759
111.07121
110.02565
109.2107
108.61583
108.225
108.01633
107.98643
108.12078
108.41534
108.8457
109.40525
110.079
110.86659
111.77252
112.80112
113.95315
115.24237
116.69035
118.32125
120.17684
125.95236
119.57232
116.17036
113.81303
112.13289
110.87854
109.93469
109.24171
108.75643
108.45408
108.32284
108.34782
108.5157
108.81129
109.23272
109.77157
110.42979
111.20492
112.10511
113.12791
114.29148
115.61834
117.14146
118.90412
143.08093
128.39893
122.35872
118.92548
116.79139
115.33812
114.2934
113.53495
112.99346
112.64073
112.44986
112.4067
112.49004
112.69119
112.9978
113.40858
113.92778
114.55927
115.31402
116.19249
117.2145
118.40705
119.81422
121.49099
167.45544
142.09936
132.97357
128.38164
125.78885
124.14566
123.01694
122.2102
121.63076
121.23074
120.97761
120.85271
120.83476
120.94255
121.16541
121.47874
121.87172
122.35273
122.94404
123.65336
124.50621
125.52435
126.77982
128.34902
200.23418
161.34753
148.74926
142.92431
139.84809
137.99779
136.77384
135.92198
135.32068
134.90679
134.63694
134.48519
134.43751
134.48244
134.59345
134.74898
134.93377
135.19447
135.6091
136.16675
136.89818
137.8426
139.06461
140.65685
21.760752
23.761982
25.434601
27.210542
28.940526
30.529381
31.940401
33.160694
34.195952
35.075931
35.800159
36.459191
36.994651
37.396407
37.696961
37.944611
38.41759
39.553244
40.660376
41.491113
41.971086
42.080201
41.784142
41.071042
18.133246
20.239489
22.10736
23.882088
25.506108
26.959997
28.238464
29.319622
30.234426
31.075377
31.832171
32.518978
33.163818
33.838902
34.38564
34.8074
35.126921
35.370953
35.476231
35.417925
35.153831
34.663904
33.939907
32.939384
17.972432
21.850935
24.323944
26.234321
27.793618
29.1619
30.423321
31.447413
32.42022
33.21492
33.973056
34.536417
34.940161
35.201627
35.286334
35.250877
35.1427
34.921594
34.541131
34.077915
33.46268
32.653451
31.667652
30.509097
19.769149
25.931043
29.191013
31.284884
32.821943
34.071139
35.213963
36.085574
36.915024
37.542377
37.973571
38.241462
38.256648
38.163226
37.879755
37.413344
36.979492
36.391852
35.702753
34.972138
34.094024
33.095432
32.041787
30.760629
22.205695
30.881082
35.092251
37.477505
39.076712
40.328065
41.344878
42.15333
42.809406
43.228439
43.334947
43.347017
43.069705
42.629334
42.02092
41.161803
40.436253
39.491862
38.537644
37.530833
36.37193
35.256707
34.014487
32.649443
25.326755
37.063904
42.369537
45.059585
46.941879
48.161528
49.148901
49.953876
50.416147
50.661013
50.502326
50.277485
49.723919
48.955027
48.029335
46.802754
45.783049
44.48474
43.222706
41.912264
40.402001
39.112788
37.581035
36.13598
29.586833
45.402923
51.925436
54.977663
57.181979
58.469116
59.50298
60.258973
60.565863
60.669473
60.295726
59.836889
59.00812
57.918906
56.66307
55.063282
53.730852
52.044253
50.424125
48.755624
46.867403
45.285197
43.369019
41.7448
36.704865
57.571322
65.353759
68.775147
71.241072
72.621614
73.7081
74.455031
74.66411
74.678493
74.134095
73.491363
72.417062
71.037134
69.46021
67.492921
65.826199
63.722392
61.712425
59.645544
57.326284
55.403525
53.062317
51.180808
200.24087
161.35101
148.74564
142.91629
139.83557
137.97955
136.74858
135.88963
135.28298
134.86516
134.59324
134.44217
134.39498
134.43861
134.54758
134.70214
134.88988
135.15769
135.58169
136.15201
136.89349
137.84496
139.07182
140.66605
167.45332
142.09857
132.96854
128.37253
125.77417
124.12175
122.97889
122.15722
121.5669
121.1577
120.89507
120.76344
120.74436
120.8501
121.06906
121.38154
121.78355
122.28013
122.89046
123.62353
124.49779
125.53227
126.79827
128.37137
143.08818
128.40414
122.36225
118.92562
116.78537
115.32104
114.25876
113.48038
112.92293
112.55757
112.35352
112.29675
112.3689
112.56211
112.86634
113.2811
113.81586