/*--------------------------------*- C++ -*----------------------------------*\
| =========                 |                                                 |
| \\      /  F ield         | OpenFOAM: The Open Source CFD Toolbox           |
|  \\    /   O peration     | Version:  4.1                                   |
|   \\  /    A nd           | Web:      www.OpenFOAM.org                      |
|    \\/     M anipulation  |                                                 |
\*---------------------------------------------------------------------------*/
FoamFile
{
    version     2.0;
    format      ascii;
    class       pointVectorField;
    location    "0.0025";
    object      pointDisplacement_Next;
}
// * * * * * * * * * * * * * * * * * * * * * * * * * * * * * * * * * * * * * //

dimensions      [0 1 0 0 0 0 0];

internalField   uniform (0 0 0);

boundaryField
{
    inlet
    {
        type            fixedValue;
        value           uniform (0 0 0);
    }
    outlet
    {
        type            fixedValue;
        value           uniform (0 0 0);
    }
    mantle
    {
        type            fixedValue;
        value           nonuniform List<vector> 
1568
(
(2.8793e-12 -2.2154e-11 8.9759e-17)
(7.2921e-06 -5.8528e-05 2.7817e-10)
(7.3249e-06 -5.6231e-05 1.0497e-05)
(3.6619e-09 -2.0515e-07 -1.0413e-07)
(7.3558e-06 -5.1642e-05 2.1395e-05)
(2.8507e-12 -2.0318e-11 7.8665e-12)
(7.3511e-06 -4.7136e-05 3.2315e-05)
(4.808e-09 -6.8048e-08 2.1879e-07)
(7.3295e-06 -4.1333e-05 4.1333e-05)
(2.9331e-12 -1.6298e-11 1.6298e-11)
(7.3512e-06 -3.2314e-05 4.7137e-05)
(4.8082e-09 -2.1879e-07 6.8058e-08)
(7.3558e-06 -2.1395e-05 5.1642e-05)
(2.8507e-12 -7.8664e-12 2.0318e-11)
(7.3249e-06 -1.0497e-05 5.6231e-05)
(3.6635e-09 1.0414e-07 2.0515e-07)
(7.2922e-06 2.2334e-10 5.8527e-05)
(2.8794e-12 8.852e-17 2.2153e-11)
(1.3461e-05 -0.00010438 4.7843e-10)
(1.3516e-05 -9.9835e-05 1.8841e-05)
(1.3572e-05 -9.1835e-05 3.8055e-05)
(1.3568e-05 -8.38e-05 5.7218e-05)
(1.3537e-05 -7.368e-05 7.3681e-05)
(1.3568e-05 -5.7217e-05 8.3801e-05)
(1.3572e-05 -3.8054e-05 9.1835e-05)
(1.3516e-05 -1.884e-05 9.9834e-05)
(1.3461e-05 3.6781e-10 0.00010438)
(1.7165e-05 -0.00012212 4.0333e-10)
(1.7177e-05 -0.00011887 2.3155e-05)
(1.7222e-05 -0.00011095 4.5988e-05)
(1.7241e-05 -0.00010023 6.7591e-05)
(1.7256e-05 -8.6131e-05 8.6132e-05)
(1.7241e-05 -6.759e-05 0.00010023)
(1.7222e-05 -4.5987e-05 0.00011095)
(1.7177e-05 -2.3154e-05 0.00011887)
(1.7165e-05 3.9018e-10 0.00012212)
(1.6901e-05 -0.00012293 2.7315e-10)
(1.689e-05 -0.00012129 2.4273e-05)
(1.6965e-05 -0.00011457 4.7484e-05)
(1.6958e-05 -0.00010264 6.8443e-05)
(1.6998e-05 -8.6582e-05 8.6583e-05)
(1.6959e-05 -6.8441e-05 0.00010264)
(1.6965e-05 -4.7483e-05 0.00011457)
(1.689e-05 -2.4272e-05 0.0001213)
(1.6901e-05 4.0458e-10 0.00012293)
(1.2566e-05 -0.00012244 2.8777e-10)
(1.2714e-05 -0.00012045 2.4143e-05)
(1.2882e-05 -0.00011369 4.7081e-05)
(1.2783e-05 -0.00010186 6.7818e-05)
(1.2664e-05 -8.6098e-05 8.6099e-05)
(1.2783e-05 -6.7817e-05 0.00010186)
(1.2882e-05 -4.708e-05 0.00011369)
(1.2714e-05 -2.4142e-05 0.00012045)
(1.2566e-05 4.5987e-10 0.00012244)
(6.923e-06 -0.00012209 3.3747e-10)
(7.2281e-06 -0.0001195 2.3769e-05)
(7.4738e-06 -0.00011229 4.6483e-05)
(7.2819e-06 -0.00010082 6.7321e-05)
(7.0026e-06 -8.5711e-05 8.5712e-05)
(7.2822e-06 -6.732e-05 0.00010083)
(7.4744e-06 -4.6482e-05 0.00011229)
(7.2289e-06 -2.3767e-05 0.0001195)
(6.9239e-06 5.0312e-10 0.00012209)
(2.8672e-06 -0.00011893 2.2991e-10)
(2.9897e-06 -0.00011625 2.2994e-05)
(3.101e-06 -0.00010895 4.5142e-05)
(2.9992e-06 -9.788e-05 6.556e-05)
(2.8819e-06 -8.3381e-05 8.3382e-05)
(2.9996e-06 -6.5559e-05 9.788e-05)
(3.1018e-06 -4.5141e-05 0.00010895)
(2.9908e-06 -2.2993e-05 0.00011625)
(2.8685e-06 3.7525e-10 0.00011893)
(1.3272e-07 -0.00011176 5.0598e-11)
(7.0344e-08 -0.0001092 2.1624e-05)
(1.5998e-08 -0.00010228 4.2437e-05)
(1.6287e-08 -9.1904e-05 6.1594e-05)
(5.6293e-08 -7.8311e-05 7.8312e-05)
(1.6695e-08 -6.1593e-05 9.1903e-05)
(1.681e-08 -4.2436e-05 0.00010228)
(7.1534e-08 -2.1624e-05 0.00010919)
(1.3414e-07 1.6957e-10 0.00011176)
(-2.4517e-06 -0.00010022 5.5962e-10)
(-2.5177e-06 -9.8018e-05 1.9397e-05)
(-2.6158e-06 -9.1897e-05 3.8105e-05)
(-2.6349e-06 -8.2581e-05 5.5345e-05)
(-2.6197e-06 -7.0347e-05 7.0347e-05)
(-2.6345e-06 -5.5343e-05 8.258e-05)
(-2.6151e-06 -3.8104e-05 9.1895e-05)
(-2.5167e-06 -1.9396e-05 9.8016e-05)
(-2.4505e-06 -5.6417e-10 0.00010022)
(-5.2007e-06 -8.5673e-05 -2.09e-10)
(-5.2668e-06 -8.3877e-05 1.66e-05)
(-5.3611e-06 -7.877e-05 3.2628e-05)
(-5.4159e-06 -7.0843e-05 4.7429e-05)
(-5.4178e-06 -6.0325e-05 6.0326e-05)
(-5.4156e-06 -4.7428e-05 7.0843e-05)
(-5.3606e-06 -3.2627e-05 7.8769e-05)
(-5.2661e-06 -1.66e-05 8.3875e-05)
(-5.1999e-06 8.9647e-11 8.5671e-05)
(-8.0934e-06 -6.9988e-05 -1.6759e-10)
(-8.1656e-06 -6.8587e-05 1.3576e-05)
(-8.2716e-06 -6.4531e-05 2.6707e-05)
(-8.289e-06 -5.8127e-05 3.8887e-05)
(-8.2699e-06 -4.9512e-05 4.9512e-05)
(-8.2888e-06 -3.8887e-05 5.8127e-05)
(-8.2711e-06 -2.6706e-05 6.453e-05)
(-8.165e-06 -1.3576e-05 6.8585e-05)
(-8.0927e-06 8.0922e-11 6.9987e-05)
(-1.0926e-05 -5.5585e-05 -2.7193e-10)
(-1.1003e-05 -5.4512e-05 1.0786e-05)
(-1.1101e-05 -5.1353e-05 2.1249e-05)
(-1.1077e-05 -4.6373e-05 3.1034e-05)
(-1.103e-05 -3.955e-05 3.955e-05)
(-1.1077e-05 -3.1034e-05 4.6372e-05)
(-1.11e-05 -2.1249e-05 5.1352e-05)
(-1.1002e-05 -1.0786e-05 5.4511e-05)
(-1.0925e-05 2.5744e-10 5.5584e-05)
(-1.3448e-05 -4.4013e-05 -7.7001e-11)
(-1.3482e-05 -4.3203e-05 8.5737e-06)
(-1.3526e-05 -4.0797e-05 1.6906e-05)
(-1.3518e-05 -3.6877e-05 2.4683e-05)
(-1.3499e-05 -3.1459e-05 3.1458e-05)
(-1.3518e-05 -2.4683e-05 3.6876e-05)
(-1.3526e-05 -1.6906e-05 4.0796e-05)
(-1.3481e-05 -8.5737e-06 4.3203e-05)
(-1.3448e-05 2.1516e-11 4.4012e-05)
(-1.5222e-05 -3.5453e-05 -3.4035e-10)
(-1.5212e-05 -3.4833e-05 6.9165e-06)
(-1.5219e-05 -3.2943e-05 1.3673e-05)
(-1.5221e-05 -2.981e-05 1.996e-05)
(-1.5237e-05 -2.543e-05 2.543e-05)
(-1.5221e-05 -1.996e-05 2.9809e-05)
(-1.5219e-05 -1.3673e-05 3.2943e-05)
(-1.5212e-05 -6.9167e-06 3.4833e-05)
(-1.5221e-05 1.999e-10 3.5452e-05)
(-1.6005e-05 -2.9219e-05 -1.772e-09)
(-1.6009e-05 -2.8671e-05 5.6622e-06)
(-1.6012e-05 -2.7099e-05 1.1215e-05)
(-1.6004e-05 -2.457e-05 1.6458e-05)
(-1.5998e-05 -2.1017e-05 2.1015e-05)
(-1.6004e-05 -1.6458e-05 2.457e-05)
(-1.6012e-05 -1.1215e-05 2.7098e-05)
(-1.6009e-05 -5.6623e-06 2.867e-05)
(-1.6005e-05 1.5742e-09 2.9219e-05)
(-1.5993e-05 -2.4035e-05 -3.647e-10)
(-1.6015e-05 -2.3515e-05 4.5957e-06)
(-1.6033e-05 -2.219e-05 9.1523e-06)
(-1.6001e-05 -2.0174e-05 1.353e-05)
(-1.5971e-05 -1.7338e-05 1.7337e-05)
(-1.6001e-05 -1.3531e-05 2.0174e-05)
(-1.6033e-05 -9.1525e-06 2.2189e-05)
(-1.6015e-05 -4.5959e-06 2.3515e-05)
(-1.5993e-05 1.5164e-10 2.4034e-05)
(-1.5522e-05 -1.8934e-05 -3.7034e-10)
(-1.5549e-05 -1.8579e-05 3.6501e-06)
(-1.5568e-05 -1.7583e-05 7.2609e-06)
(-1.5529e-05 -1.5981e-05 1.0704e-05)
(-1.5494e-05 -1.3695e-05 1.3695e-05)
(-1.5529e-05 -1.0704e-05 1.5981e-05)
(-1.5568e-05 -7.2611e-06 1.7582e-05)
(-1.5549e-05 -3.6503e-06 1.8578e-05)
(-1.5522e-05 1.7962e-10 1.8933e-05)
(-1.4904e-05 -1.4186e-05 -2.7403e-10)
(-1.4935e-05 -1.3979e-05 2.7825e-06)
(-1.4954e-05 -1.3293e-05 5.5132e-06)
(-1.4913e-05 -1.2072e-05 8.0658e-06)
(-1.4872e-05 -1.0301e-05 1.0301e-05)
(-1.4913e-05 -8.066e-06 1.2072e-05)
(-1.4954e-05 -5.5134e-06 1.3293e-05)
(-1.4935e-05 -2.7827e-06 1.3979e-05)
(-1.4904e-05 1.4295e-10 1.4186e-05)
(-1.4323e-05 -1.04e-05 -1.2946e-09)
(-1.4341e-05 -1.0251e-05 2.0443e-06)
(-1.4352e-05 -9.7561e-06 4.0407e-06)
(-1.432e-05 -8.8766e-06 5.9276e-06)
(-1.4293e-05 -7.5776e-06 7.5791e-06)
(-1.432e-05 -5.9277e-06 8.8766e-06)
(-1.4352e-05 -4.0408e-06 9.7562e-06)
(-1.4341e-05 -2.0444e-06 1.0251e-05)
(-1.4324e-05 1.2474e-09 1.0401e-05)
(-1.3673e-05 -7.6769e-06 -1.1363e-10)
(-1.368e-05 -7.5443e-06 1.4822e-06)
(-1.3686e-05 -7.159e-06 2.9551e-06)
(-1.366e-05 -6.5348e-06 4.378e-06)
(-1.3644e-05 -5.6097e-06 5.6097e-06)
(-1.366e-05 -4.378e-06 6.5349e-06)
(-1.3686e-05 -2.9551e-06 7.1592e-06)
(-1.3681e-05 -1.4822e-06 7.5446e-06)
(-1.3674e-05 1.5053e-10 7.6774e-06)
(-1.2809e-05 -5.9166e-06 5.2126e-11)
(-1.2813e-05 -5.8021e-06 1.1354e-06)
(-1.2811e-05 -5.4977e-06 2.2708e-06)
(-1.2793e-05 -5.0244e-06 3.3716e-06)
(-1.2782e-05 -4.3244e-06 4.3243e-06)
(-1.2794e-05 -3.3716e-06 5.0245e-06)
(-1.2811e-05 -2.2708e-06 5.498e-06)
(-1.2813e-05 -1.1354e-06 5.8025e-06)
(-1.281e-05 5.3144e-11 5.9171e-06)
(-1.175e-05 -4.7465e-06 4.1968e-12)
(-1.1751e-05 -4.6424e-06 9.0715e-07)
(-1.1749e-05 -4.3867e-06 1.8173e-06)
(-1.1736e-05 -4.0144e-06 2.7023e-06)
(-1.1727e-05 -3.4667e-06 3.4669e-06)
(-1.1736e-05 -2.7022e-06 4.0146e-06)
(-1.1749e-05 -1.8172e-06 4.3869e-06)
(-1.1752e-05 -9.0704e-07 4.6427e-06)
(-1.175e-05 1.4524e-10 4.7469e-06)
(-1.0604e-05 -3.8234e-06 5.162e-11)
(-1.0609e-05 -3.744e-06 7.3259e-07)
(-1.0612e-05 -3.54e-06 1.4655e-06)
(-1.06e-05 -3.237e-06 2.1772e-06)
(-1.0591e-05 -2.7903e-06 2.7905e-06)
(-1.06e-05 -2.177e-06 3.2372e-06)
(-1.0612e-05 -1.4654e-06 3.5402e-06)
(-1.061e-05 -7.3243e-07 3.7442e-06)
(-1.0605e-05 1.1565e-10 3.8237e-06)
(-9.5098e-06 -2.9434e-06 6.6278e-11)
(-9.5212e-06 -2.8824e-06 5.6222e-07)
(-9.5295e-06 -2.73e-06 1.1272e-06)
(-9.5168e-06 -2.4949e-06 1.6768e-06)
(-9.5042e-06 -2.1518e-06 2.152e-06)
(-9.5169e-06 -1.6766e-06 2.495e-06)
(-9.5298e-06 -1.127e-06 2.7301e-06)
(-9.5217e-06 -5.6203e-07 2.8825e-06)
(-9.5104e-06 9.9271e-11 2.9435e-06)
(-8.5594e-06 -2.0955e-06 2.1012e-10)
(-8.5628e-06 -2.0696e-06 4.1314e-07)
(-8.5649e-06 -1.9788e-06 8.1906e-07)
(-8.5578e-06 -1.8036e-06 1.2035e-06)
(-8.5524e-06 -1.5404e-06 1.5404e-06)
(-8.558e-06 -1.2032e-06 1.8037e-06)
(-8.5652e-06 -8.1882e-07 1.9788e-06)
(-8.5633e-06 -4.1293e-07 2.0695e-06)
(-8.56e-06 -5.1625e-11 2.0955e-06)
(-7.7316e-06 -1.4212e-06 1.0972e-10)
(-7.7299e-06 -1.4245e-06 2.9417e-07)
(-7.7253e-06 -1.3783e-06 5.7423e-07)
(-7.7237e-06 -1.2567e-06 8.292e-07)
(-7.721e-06 -1.0538e-06 1.0539e-06)
(-7.7239e-06 -8.2896e-07 1.2567e-06)
(-7.7257e-06 -5.7398e-07 1.3782e-06)
(-7.7305e-06 -2.9394e-07 1.4243e-06)
(-7.7323e-06 4.1556e-11 1.421e-06)
(-6.9689e-06 -1.0657e-06 1.3599e-10)
(-6.968e-06 -1.0585e-06 2.1565e-07)
(-6.9667e-06 -1.0197e-06 4.229e-07)
(-6.9618e-06 -9.3048e-07 6.1721e-07)
(-6.96e-06 -7.9017e-07 7.9032e-07)
(-6.962e-06 -6.1697e-07 9.305e-07)
(-6.9671e-06 -4.2262e-07 1.0195e-06)
(-6.9686e-06 -2.154e-07 1.0582e-06)
(-6.9696e-06 1.7959e-11 1.0653e-06)
(-6.2355e-06 -8.9177e-07 1.6039e-10)
(-6.2391e-06 -8.6971e-07 1.6886e-07)
(-6.2432e-06 -8.2401e-07 3.3899e-07)
(-6.2353e-06 -7.5687e-07 5.0794e-07)
(-6.2304e-06 -6.5638e-07 6.5652e-07)
(-6.2355e-06 -5.0768e-07 7.5685e-07)
(-6.2436e-06 -3.3868e-07 8.2383e-07)
(-6.2398e-06 -1.6859e-07 8.6934e-07)
(-6.2363e-06 -3.8159e-12 8.9126e-07)
(-5.5324e-06 -7.4185e-07 1.8755e-10)
(-5.5364e-06 -7.233e-07 1.3905e-07)
(-5.5401e-06 -6.8237e-07 2.809e-07)
(-5.5341e-06 -6.2685e-07 4.2221e-07)
(-5.5293e-06 -5.4388e-07 5.4404e-07)
(-5.5343e-06 -4.2192e-07 6.2683e-07)
(-5.5406e-06 -2.8055e-07 6.8214e-07)
(-5.5371e-06 -1.3875e-07 7.2287e-07)
(-5.5333e-06 -6.2888e-12 7.4125e-07)
(-4.8937e-06 -5.7205e-07 2.2992e-10)
(-4.9003e-06 -5.6062e-07 1.0903e-07)
(-4.9039e-06 -5.2968e-07 2.1941e-07)
(-4.8993e-06 -4.8781e-07 3.2842e-07)
(-4.8913e-06 -4.204e-07 4.2061e-07)
(-4.8996e-06 -3.2805e-07 4.8781e-07)
(-4.9044e-06 -2.1899e-07 5.2944e-07)
(-4.9011e-06 -1.0866e-07 5.6015e-07)
(-4.8946e-06 3.1162e-12 5.7141e-07)
(-4.3589e-06 -4.07e-07 1.8782e-10)
(-4.3625e-06 -4.0078e-07 7.9613e-08)
(-4.3662e-06 -3.8178e-07 1.586e-07)
(-4.3612e-06 -3.4983e-07 2.3496e-07)
(-4.3572e-06 -3.0044e-07 3.0088e-07)
(-4.3614e-06 -2.3449e-07 3.499e-07)
(-4.3668e-06 -1.5808e-07 3.8157e-07)
(-4.3632e-06 -7.9148e-08 4.0033e-07)
(-4.3598e-06 1.3169e-10 4.0635e-07)
(-3.9071e-06 -2.794e-07 3.3793e-10)
(-3.9098e-06 -2.7669e-07 5.4886e-08)
(-3.9132e-06 -2.643e-07 1.0973e-07)
(-3.9088e-06 -2.4219e-07 1.6289e-07)
(-3.9059e-06 -2.0728e-07 2.0769e-07)
(-3.9091e-06 -1.6231e-07 2.4235e-07)
(-3.9138e-06 -1.0909e-07 2.6417e-07)
(-3.9105e-06 -5.4301e-08 2.763e-07)
(-3.9081e-06 9.3941e-11 2.7881e-07)
(-3.5083e-06 -2.1634e-07 3.928e-10)
(-3.5084e-06 -2.1226e-07 4.1938e-08)
(-3.5087e-06 -2.0164e-07 8.3979e-08)
(-3.5075e-06 -1.8528e-07 1.2522e-07)
(-3.5071e-06 -1.6e-07 1.6054e-07)
(-3.5077e-06 -1.2452e-07 1.8557e-07)
(-3.5092e-06 -8.3214e-08 2.0165e-07)
(-3.5091e-06 -4.1226e-08 2.1199e-07)
(-3.5093e-06 1.6656e-10 2.1587e-07)
(-3.1426e-06 -1.9038e-07 4.4815e-10)
(-3.142e-06 -1.8396e-07 3.57e-08)
(-3.1413e-06 -1.7231e-07 7.2155e-08)
(-3.1413e-06 -1.5911e-07 1.0884e-07)
(-3.1416e-06 -1.3966e-07 1.4033e-07)
(-3.1416e-06 -1.0801e-07 1.5955e-07)
(-3.1418e-06 -7.1264e-08 1.7248e-07)
(-3.1428e-06 -3.4858e-08 1.8387e-07)
(-3.1435e-06 2.4613e-10 1.9006e-07)
(-2.809e-06 -1.658e-07 4.9344e-10)
(-2.809e-06 -1.6063e-07 3.1109e-08)
(-2.8094e-06 -1.5024e-07 6.2847e-08)
(-2.8087e-06 -1.3842e-07 9.4894e-08)
(-2.8086e-06 -1.2103e-07 1.2184e-07)
(-2.8089e-06 -9.3929e-08 1.3902e-07)
(-2.8099e-06 -6.1826e-08 1.5058e-07)
(-2.8096e-06 -3.0136e-08 1.6071e-07)
(-2.8098e-06 3.3475e-10 1.6566e-07)
(-2.5109e-06 -1.3103e-07 5.2777e-10)
(-2.5127e-06 -1.2744e-07 2.5058e-08)
(-2.5145e-06 -1.199e-07 5.0178e-08)
(-2.5127e-06 -1.1004e-07 7.5229e-08)
(-2.511e-06 -9.5647e-08 9.6598e-08)
(-2.5129e-06 -7.413e-08 1.1077e-07)
(-2.5149e-06 -4.9025e-08 1.2038e-07)
(-2.5132e-06 -2.3954e-08 1.2766e-07)
(-2.5116e-06 4.2969e-10 1.3102e-07)
(-2.2543e-06 -9.294e-08 5.5005e-10)
(-2.2543e-06 -9.183e-08 1.9088e-08)
(-2.2545e-06 -8.7885e-08 3.717e-08)
(-2.2542e-06 -7.9928e-08 5.4158e-08)
(-2.2542e-06 -6.7965e-08 6.9024e-08)
(-2.2543e-06 -5.2937e-08 8.0776e-08)
(-2.2548e-06 -3.5896e-08 8.8465e-08)
(-2.2548e-06 -1.7864e-08 9.2132e-08)
(-2.2549e-06 5.25e-10 9.2995e-08)
(-2.0264e-06 -6.5359e-08 5.7488e-10)
(-2.0261e-06 -6.6203e-08 1.5052e-08)
(-2.0247e-06 -6.473e-08 2.7836e-08)
(-2.0262e-06 -5.8242e-08 3.8739e-08)
(-2.0259e-06 -4.7673e-08 4.883e-08)
(-2.0264e-06 -3.7431e-08 5.9162e-08)
(-2.0249e-06 -2.6477e-08 6.5364e-08)
(-2.0264e-06 -1.3742e-08 6.6546e-08)
(-2.0269e-06 5.8351e-10 6.5446e-08)
(-1.8138e-06 -5.7864e-08 5.9157e-10)
(-1.8136e-06 -5.788e-08 1.2536e-08)
(-1.8137e-06 -5.5652e-08 2.4027e-08)
(-1.8132e-06 -4.9801e-08 3.4117e-08)
(-1.8133e-06 -4.1463e-08 4.263e-08)
(-1.8133e-06 -3.2777e-08 5.0762e-08)
(-1.8139e-06 -2.2639e-08 5.6329e-08)
(-1.8139e-06 -1.1199e-08 5.8274e-08)
(-1.8141e-06 5.9846e-10 5.801e-08)
(-1.61e-06 -5.9767e-08 5.537e-10)
(-1.6106e-06 -5.7432e-08 1.0797e-08)
(-1.611e-06 -5.223e-08 2.2457e-08)
(-1.6103e-06 -4.774e-08 3.4422e-08)
(-1.6097e-06 -4.202e-08 4.3208e-08)
(-1.6104e-06 -3.3112e-08 4.8725e-08)
(-1.6111e-06 -2.1109e-08 5.2971e-08)
(-1.6107e-06 -9.495e-09 5.7934e-08)
(-1.6102e-06 6.2082e-10 6.0055e-08)
(-1.4149e-06 -5.0428e-08 5.2223e-10)
(-1.413e-06 -4.2458e-08 5.0583e-09)
(-1.4113e-06 -3.2606e-08 1.4171e-08)
(-1.4129e-06 -3.2914e-08 2.7495e-08)
(-1.4147e-06 -3.5107e-08 3.6235e-08)
(-1.4129e-06 -2.6282e-08 3.3906e-08)
(-1.4114e-06 -1.2933e-08 3.3438e-08)
(-1.4131e-06 -3.8548e-09 4.3131e-08)
(-1.415e-06 5.8927e-10 5.0953e-08)
(-1.2204e-06 2.9322e-09 4.7601e-10)
(-1.2166e-06 1.4976e-08 -7.2055e-09)
(-1.2135e-06 2.4159e-08 -9.4692e-09)
(-1.2165e-06 1.6349e-08 -4.66e-09)
(-1.2202e-06 2.6284e-09 -1.6111e-09)
(-1.2165e-06 5.7193e-09 -1.539e-08)
(-1.2135e-06 1.0541e-08 -2.3263e-08)
(-1.2166e-06 8.2567e-09 -1.4144e-08)
(-1.2204e-06 5.2524e-10 -2.1707e-09)
(-1.0328e-06 9.5342e-08 4.1069e-10)
(-1.0324e-06 9.494e-08 -2.021e-08)
(-1.0316e-06 9.2059e-08 -3.764e-08)
(-1.0324e-06 8.1938e-08 -5.2103e-08)
(-1.0328e-06 6.7818e-08 -6.6962e-08)
(-1.0324e-06 5.2968e-08 -8.1083e-08)
(-1.0315e-06 3.8508e-08 -9.1197e-08)
(-1.0322e-06 2.1069e-08 -9.4067e-08)
(-1.0326e-06 4.319e-10 -9.4478e-08)
(-8.9157e-07 1.0023e-07 3.2851e-10)
(-8.9408e-07 9.0643e-08 -1.7817e-08)
(-8.939e-07 8.4119e-08 -3.4425e-08)
(-8.9422e-07 7.6997e-08 -5.0761e-08)
(-8.9174e-07 7.1007e-08 -7.0354e-08)
(-8.9413e-07 5.1412e-08 -7.6328e-08)
(-8.9372e-07 3.5076e-08 -8.3428e-08)
(-8.9381e-07 1.8464e-08 -8.9928e-08)
(-8.9122e-07 3.148e-10 -9.95e-08)
(-8.0209e-07 -5.6208e-08 2.4074e-10)
(-7.967e-07 -4.7431e-08 4.6403e-09)
(-7.9166e-07 -3.5612e-08 1.5159e-08)
(-7.9679e-07 -3.6767e-08 3.1066e-08)
(-8.0217e-07 -3.9966e-08 4.0409e-08)
(-7.9669e-07 -3.0621e-08 3.7201e-08)
(-7.9145e-07 -1.4715e-08 3.6025e-08)
(-7.9639e-07 -4.1982e-09 4.7812e-08)
(-8.0169e-07 1.9646e-10 5.6565e-08)
(-6.6055e-07 -2.0422e-07 1.4916e-10)
(-6.4739e-07 -1.767e-07 2.5642e-08)
(-6.3734e-07 -1.4637e-07 6.0973e-08)
(-6.4738e-07 -1.432e-07 1.0756e-07)
(-6.6048e-07 -1.4483e-07 1.4508e-07)
(-6.4729e-07 -1.0731e-07 1.4341e-07)
(-6.3716e-07 -6.0715e-08 1.4652e-07)
(-6.4712e-07 -2.5387e-08 1.7677e-07)
(-6.6021e-07 9.5714e-11 2.0422e-07)
(-3.7619e-07 -1.6399e-07 6.2259e-11)
(-3.7035e-07 -1.4969e-07 2.3342e-08)
(-3.6466e-07 -1.2895e-07 5.3595e-08)
(-3.7032e-07 -1.2245e-07 8.9747e-08)
(-3.7612e-07 -1.1623e-07 1.1632e-07)
(-3.7027e-07 -8.9648e-08 1.2251e-07)
(-3.6456e-07 -5.3494e-08 1.2896e-07)
(-3.702e-07 -2.3244e-08 1.4964e-07)
(-3.76e-07 2.5029e-11 1.639e-07)
(-1.4962e-13 -6.7304e-14 1.8301e-17)
(-6.4162e-10 -1.3609e-09 -1.1257e-09)
(-1.8785e-13 -1.3134e-13 4.9566e-14)
(-6.4088e-10 -1.7762e-10 1.7636e-09)
(-9.0938e-14 3.0619e-14 -3.0529e-14)
(-6.4123e-10 -1.7637e-09 1.7966e-10)
(-1.8782e-13 -4.9576e-14 1.3127e-13)
(-6.4074e-10 1.1255e-09 1.3577e-09)
(-1.4955e-13 5.977e-20 6.7257e-14)
(7.3249e-06 1.0497e-05 5.6231e-05)
(3.6637e-09 -1.0414e-07 2.0514e-07)
(7.3558e-06 2.1395e-05 5.1642e-05)
(2.8507e-12 7.8666e-12 2.0318e-11)
(7.3512e-06 3.2315e-05 4.7137e-05)
(4.8076e-09 2.1879e-07 6.8062e-08)
(7.3295e-06 4.1333e-05 4.1333e-05)
(2.9332e-12 1.6298e-11 1.6298e-11)
(7.3511e-06 4.7137e-05 3.2315e-05)
(4.8085e-09 6.8047e-08 2.188e-07)
(7.3557e-06 5.1642e-05 2.1395e-05)
(2.8506e-12 2.0319e-11 7.8666e-12)
(7.3248e-06 5.6231e-05 1.0497e-05)
(3.6615e-09 2.0515e-07 -1.0414e-07)
(7.292e-06 5.8528e-05 1.5959e-10)
(2.8793e-12 2.2154e-11 7.1674e-17)
(1.3516e-05 1.884e-05 9.9834e-05)
(1.3572e-05 3.8055e-05 9.1835e-05)
(1.3568e-05 5.7218e-05 8.3801e-05)
(1.3537e-05 7.3681e-05 7.3681e-05)
(1.3568e-05 8.38e-05 5.7218e-05)
(1.3572e-05 9.1835e-05 3.8055e-05)
(1.3516e-05 9.9835e-05 1.884e-05)
(1.3461e-05 0.00010438 2.7633e-10)
(1.7177e-05 2.3154e-05 0.00011887)
(1.7222e-05 4.5987e-05 0.00011095)
(1.7241e-05 6.759e-05 0.00010023)
(1.7256e-05 8.6131e-05 8.6132e-05)
(1.7241e-05 0.00010023 6.7591e-05)
(1.7222e-05 0.00011095 4.5987e-05)
(1.7177e-05 0.00011887 2.3154e-05)
(1.7165e-05 0.00012212 3.9837e-10)
(1.689e-05 2.4273e-05 0.00012129)
(1.6965e-05 4.7483e-05 0.00011457)
(1.6959e-05 6.8442e-05 0.00010264)
(1.6998e-05 8.6582e-05 8.6582e-05)
(1.6959e-05 0.00010264 6.8442e-05)
(1.6965e-05 0.00011456 4.7483e-05)
(1.689e-05 0.00012129 2.4273e-05)
(1.6901e-05 0.00012293 4.5142e-10)
(1.2714e-05 2.4143e-05 0.00012045)
(1.2882e-05 4.708e-05 0.00011369)
(1.2783e-05 6.7817e-05 0.00010186)
(1.2665e-05 8.6098e-05 8.6098e-05)
(1.2783e-05 0.00010186 6.7817e-05)
(1.2882e-05 0.00011369 4.708e-05)
(1.2714e-05 0.00012044 2.4143e-05)
(1.2566e-05 0.00012244 3.4439e-10)
(7.2289e-06 2.3768e-05 0.0001195)
(7.4744e-06 4.6482e-05 0.00011229)
(7.2822e-06 6.732e-05 0.00010082)
(7.0026e-06 8.5711e-05 8.5711e-05)
(7.2819e-06 0.00010082 6.732e-05)
(7.4738e-06 0.00011229 4.6482e-05)
(7.228e-06 0.0001195 2.3768e-05)
(6.9229e-06 0.00012209 2.0232e-10)
(2.9908e-06 2.2993e-05 0.00011625)
(3.1018e-06 4.5142e-05 0.00010895)
(2.9996e-06 6.5559e-05 9.7879e-05)
(2.8819e-06 8.3381e-05 8.3381e-05)
(2.9992e-06 9.7879e-05 6.5559e-05)
(3.101e-06 0.00010895 4.5142e-05)
(2.9897e-06 0.00011625 2.2993e-05)
(2.8671e-06 0.00011892 5.9329e-11)
(7.1582e-08 2.1624e-05 0.00010919)
(1.6899e-08 4.2437e-05 0.00010228)
(1.6811e-08 6.1593e-05 9.1903e-05)
(5.642e-08 7.8311e-05 7.8311e-05)
(1.641e-08 9.1903e-05 6.1593e-05)
(1.611e-08 0.00010228 4.2436e-05)
(7.0448e-08 0.00010919 2.1624e-05)
(1.328e-07 0.00011176 -4.5483e-11)
(-2.5167e-06 1.9397e-05 9.8016e-05)
(-2.615e-06 3.8105e-05 9.1895e-05)
(-2.6343e-06 5.5344e-05 8.258e-05)
(-2.6195e-06 7.0347e-05 7.0346e-05)
(-2.6347e-06 8.2581e-05 5.5344e-05)
(-2.6156e-06 9.1896e-05 3.8105e-05)
(-2.5175e-06 9.8017e-05 1.9397e-05)
(-2.4515e-06 0.00010022 5.6483e-10)
(-5.2661e-06 1.66e-05 8.3876e-05)
(-5.3605e-06 3.2628e-05 7.8769e-05)
(-5.4155e-06 4.7429e-05 7.0842e-05)
(-5.4176e-06 6.0326e-05 6.0325e-05)
(-5.4157e-06 7.0843e-05 4.7428e-05)
(-5.3609e-06 7.877e-05 3.2628e-05)
(-5.2666e-06 8.3877e-05 1.66e-05)
(-5.2004e-06 8.5673e-05 -1.5621e-10)
(-8.1651e-06 1.3576e-05 6.8585e-05)
(-8.2711e-06 2.6707e-05 6.453e-05)
(-8.2888e-06 3.8887e-05 5.8127e-05)
(-8.2699e-06 4.9512e-05 4.9512e-05)
(-8.2889e-06 5.8127e-05 3.8887e-05)
(-8.2714e-06 6.4531e-05 2.6706e-05)
(-8.1654e-06 6.8587e-05 1.3576e-05)
(-8.0931e-06 6.9988e-05 -3.5417e-10)
(-1.1002e-05 1.0786e-05 5.4511e-05)
(-1.11e-05 2.1249e-05 5.1352e-05)
(-1.1077e-05 3.1034e-05 4.6372e-05)
(-1.1031e-05 3.955e-05 3.9549e-05)
(-1.1077e-05 4.6373e-05 3.1033e-05)
(-1.1101e-05 5.1353e-05 2.1249e-05)
(-1.1003e-05 5.4513e-05 1.0786e-05)
(-1.0926e-05 5.5586e-05 -3.6969e-10)
(-1.3481e-05 8.5742e-06 4.3203e-05)
(-1.3526e-05 1.6907e-05 4.0796e-05)
(-1.3518e-05 2.4684e-05 3.6876e-05)
(-1.3499e-05 3.1459e-05 3.1458e-05)
(-1.3518e-05 3.6877e-05 2.4683e-05)
(-1.3526e-05 4.0797e-05 1.6906e-05)
(-1.3481e-05 4.3204e-05 8.5737e-06)
(-1.3448e-05 4.4014e-05 -2.022e-10)
(-1.5212e-05 6.9171e-06 3.4833e-05)
(-1.5219e-05 1.3673e-05 3.2943e-05)
(-1.5221e-05 1.9961e-05 2.981e-05)
(-1.5238e-05 2.5431e-05 2.543e-05)
(-1.5221e-05 2.981e-05 1.996e-05)
(-1.5219e-05 3.2944e-05 1.3673e-05)
(-1.5212e-05 3.4834e-05 6.9165e-06)
(-1.5221e-05 3.5453e-05 -4.4064e-10)
(-1.6009e-05 5.6627e-06 2.867e-05)
(-1.6012e-05 1.1216e-05 2.7098e-05)
(-1.6004e-05 1.6458e-05 2.457e-05)
(-1.5998e-05 2.1016e-05 2.1017e-05)
(-1.6004e-05 2.4571e-05 1.6458e-05)
(-1.6012e-05 2.7099e-05 1.1215e-05)
(-1.6009e-05 2.8671e-05 5.6621e-06)
(-1.6005e-05 2.9219e-05 -1.8204e-09)
(-1.6015e-05 4.5962e-06 2.3515e-05)
(-1.6033e-05 9.1528e-06 2.2189e-05)
(-1.6001e-05 1.3531e-05 2.0174e-05)
(-1.5971e-05 1.7338e-05 1.7337e-05)
(-1.6001e-05 2.0174e-05 1.353e-05)
(-1.6033e-05 2.219e-05 9.1522e-06)
(-1.6015e-05 2.3515e-05 4.5957e-06)
(-1.5993e-05 2.4035e-05 -3.6512e-10)
(-1.5549e-05 3.6505e-06 1.8578e-05)
(-1.5568e-05 7.2613e-06 1.7582e-05)
(-1.5529e-05 1.0704e-05 1.5981e-05)
(-1.5494e-05 1.3695e-05 1.3695e-05)
(-1.5529e-05 1.5981e-05 1.0704e-05)
(-1.5568e-05 1.7582e-05 7.2607e-06)
(-1.5549e-05 1.8578e-05 3.65e-06)
(-1.5522e-05 1.8933e-05 -3.4778e-10)
(-1.4935e-05 2.7829e-06 1.3979e-05)
(-1.4954e-05 5.5136e-06 1.3292e-05)
(-1.4913e-05 8.0662e-06 1.2072e-05)
(-1.4872e-05 1.0301e-05 1.0301e-05)
(-1.4913e-05 1.2072e-05 8.0655e-06)
(-1.4954e-05 1.3292e-05 5.513e-06)
(-1.4935e-05 1.3979e-05 2.7824e-06)
(-1.4904e-05 1.4185e-05 -2.4776e-10)
(-1.4341e-05 2.0447e-06 1.0251e-05)
(-1.4352e-05 4.0411e-06 9.756e-06)
(-1.432e-05 5.9279e-06 8.8763e-06)
(-1.4293e-05 7.5777e-06 7.5788e-06)
(-1.432e-05 8.8764e-06 5.9273e-06)
(-1.4352e-05 9.7557e-06 4.0405e-06)
(-1.4341e-05 1.025e-05 2.0441e-06)
(-1.4324e-05 1.04e-05 -1.297e-09)
(-1.3681e-05 1.4825e-06 7.5446e-06)
(-1.3686e-05 2.9554e-06 7.159e-06)
(-1.366e-05 4.3782e-06 6.5347e-06)
(-1.3645e-05 5.6097e-06 5.6094e-06)
(-1.366e-05 6.5346e-06 4.3777e-06)
(-1.3686e-05 7.1586e-06 2.9548e-06)
(-1.3681e-05 7.5439e-06 1.4821e-06)
(-1.3674e-05 7.6765e-06 -1.4637e-10)
(-1.2813e-05 1.1357e-06 5.8024e-06)
(-1.2812e-05 2.271e-06 5.4978e-06)
(-1.2794e-05 3.3717e-06 5.0243e-06)
(-1.2782e-05 4.3242e-06 4.3242e-06)
(-1.2794e-05 5.0242e-06 3.3713e-06)
(-1.2811e-05 5.4974e-06 2.2705e-06)
(-1.2813e-05 5.8017e-06 1.1353e-06)
(-1.2809e-05 5.9162e-06 2.4246e-11)
(-1.1752e-05 9.0732e-07 4.6427e-06)
(-1.1749e-05 1.8174e-06 4.3868e-06)
(-1.1736e-05 2.7023e-06 4.0144e-06)
(-1.1727e-05 3.4667e-06 3.4666e-06)
(-1.1736e-05 4.0142e-06 2.702e-06)
(-1.1749e-05 4.3863e-06 1.8171e-06)
(-1.1752e-05 4.6419e-06 9.0701e-07)
(-1.175e-05 4.746e-06 -4.6285e-12)
(-1.061e-05 7.3267e-07 3.7441e-06)
(-1.0612e-05 1.4655e-06 3.54e-06)
(-1.06e-05 2.1771e-06 3.237e-06)
(-1.0592e-05 2.7903e-06 2.7903e-06)
(-1.06e-05 3.2368e-06 2.1769e-06)
(-1.0612e-05 3.5396e-06 1.4653e-06)
(-1.061e-05 3.7434e-06 7.3245e-07)
(-1.0605e-05 3.8228e-06 3.7922e-11)
(-9.5218e-06 5.6221e-07 2.8825e-06)
(-9.53e-06 1.1271e-06 2.7299e-06)
(-9.5172e-06 1.6766e-06 2.4948e-06)
(-9.5046e-06 2.1517e-06 2.1517e-06)
(-9.5172e-06 2.4946e-06 1.6765e-06)
(-9.53e-06 2.7295e-06 1.1269e-06)
(-9.5217e-06 2.8818e-06 5.6208e-07)
(-9.5103e-06 2.9427e-06 8.7373e-11)
(-8.5634e-06 4.1305e-07 2.0695e-06)
(-8.5655e-06 8.1887e-07 1.9786e-06)
(-8.5583e-06 1.2032e-06 1.8034e-06)
(-8.5528e-06 1.5402e-06 1.54e-06)
(-8.5583e-06 1.8032e-06 1.2031e-06)
(-8.5655e-06 1.9782e-06 8.1879e-07)
(-8.5634e-06 2.0689e-06 4.13e-07)
(-8.56e-06 2.0948e-06 2.3998e-10)
(-7.7306e-06 2.94e-07 1.4242e-06)
(-7.7259e-06 5.7396e-07 1.378e-06)
(-7.7243e-06 8.2883e-07 1.2564e-06)
(-7.7215e-06 1.0535e-06 1.0536e-06)
(-7.7243e-06 1.2562e-06 8.2884e-07)
(-7.7259e-06 1.3776e-06 5.7395e-07)
(-7.7306e-06 1.4237e-06 2.9402e-07)
(-7.7323e-06 1.4204e-06 1.4328e-10)
(-6.9688e-06 2.1541e-07 1.0581e-06)
(-6.9674e-06 4.2254e-07 1.0193e-06)
(-6.9624e-06 6.1675e-07 9.3015e-07)
(-6.9606e-06 7.8977e-07 7.8992e-07)
(-6.9624e-06 9.2991e-07 6.1683e-07)
(-6.9674e-06 1.0189e-06 4.2261e-07)
(-6.9688e-06 1.0576e-06 2.155e-07)
(-6.9697e-06 1.0648e-06 1.6279e-10)
(-6.2399e-06 1.6856e-07 8.6921e-07)
(-6.244e-06 3.3857e-07 8.2357e-07)
(-6.236e-06 5.0741e-07 7.5649e-07)
(-6.231e-06 6.5593e-07 6.5611e-07)
(-6.236e-06 7.5624e-07 5.0755e-07)
(-6.244e-06 8.2324e-07 3.387e-07)
(-6.24e-06 8.688e-07 1.6871e-07)
(-6.2364e-06 8.908e-07 1.8442e-10)
(-5.5372e-06 1.387e-07 7.2273e-07)
(-5.541e-06 2.8043e-07 6.8189e-07)
(-5.5348e-06 4.2166e-07 6.2648e-07)
(-5.5299e-06 5.4345e-07 5.4365e-07)
(-5.5349e-06 6.2624e-07 4.2185e-07)
(-5.541e-06 6.8161e-07 2.8062e-07)
(-5.5373e-06 7.2242e-07 1.389e-07)
(-5.5334e-06 7.4091e-07 2.0963e-10)
(-4.9013e-06 1.0865e-07 5.6002e-07)
(-4.9048e-06 2.189e-07 5.292e-07)
(-4.9001e-06 3.2784e-07 4.8749e-07)
(-4.8921e-06 4.2003e-07 4.2026e-07)
(-4.9002e-06 4.8728e-07 3.2808e-07)
(-4.9049e-06 5.2899e-07 2.1914e-07)
(-4.9014e-06 5.5982e-07 1.0888e-07)
(-4.8947e-06 5.7122e-07 2.3553e-10)
(-4.3634e-06 7.9201e-08 4.002e-07)
(-4.3672e-06 1.5806e-07 3.8134e-07)
(-4.362e-06 2.3437e-07 3.4959e-07)
(-4.3579e-06 3.0031e-07 3.004e-07)
(-4.3621e-06 3.4941e-07 2.3463e-07)
(-4.3673e-06 3.8122e-07 1.5834e-07)
(-4.3635e-06 4.0012e-07 7.947e-08)
(-4.36e-06 4.0631e-07 3.7066e-10)
(-3.9108e-06 5.4464e-08 2.7618e-07)
(-3.9142e-06 1.0918e-07 2.6395e-07)
(-3.9097e-06 1.623e-07 2.4205e-07)
(-3.9067e-06 2.0715e-07 2.0737e-07)
(-3.9097e-06 2.4192e-07 1.6258e-07)
(-3.9143e-06 2.6392e-07 1.0949e-07)
(-3.9109e-06 2.7623e-07 5.4752e-08)
(-3.9083e-06 2.7893e-07 3.2886e-10)
(-3.5093e-06 4.1529e-08 2.1188e-07)
(-3.5096e-06 8.3453e-08 2.0144e-07)
(-3.5084e-06 1.2466e-07 1.8529e-07)
(-3.508e-06 1.6004e-07 1.6023e-07)
(-3.5084e-06 1.8522e-07 1.2495e-07)
(-3.5097e-06 2.0151e-07 8.3769e-08)
(-3.5095e-06 2.1208e-07 4.1823e-08)
(-3.5095e-06 2.1618e-07 3.8037e-10)
(-3.143e-06 3.5332e-08 1.8377e-07)
(-3.1423e-06 7.1685e-08 1.723e-07)
(-3.1422e-06 1.0836e-07 1.5931e-07)
(-3.1424e-06 1.3992e-07 1.4008e-07)
(-3.1423e-06 1.593e-07 1.0862e-07)
(-3.1424e-06 1.7247e-07 7.1992e-08)
(-3.1432e-06 1.8412e-07 3.5613e-08)
(-3.1437e-06 1.9056e-07 4.342e-10)
(-2.8098e-06 3.0799e-08 1.6063e-07)
(-2.8103e-06 6.2453e-08 1.5043e-07)
(-2.8095e-06 9.4502e-08 1.3883e-07)
(-2.8094e-06 1.2154e-07 1.2165e-07)
(-2.8096e-06 1.389e-07 9.4732e-08)
(-2.8104e-06 1.507e-07 6.273e-08)
(-2.8101e-06 1.611e-07 3.1046e-08)
(-2.8101e-06 1.6631e-07 4.72e-10)
(-2.5134e-06 2.4807e-08 1.2758e-07)
(-2.5152e-06 4.9852e-08 1.2025e-07)
(-2.5134e-06 7.4917e-08 1.1062e-07)
(-2.5117e-06 9.639e-08 9.6453e-08)
(-2.5135e-06 1.1074e-07 7.5103e-08)
(-2.5154e-06 1.2059e-07 5.0086e-08)
(-2.5136e-06 1.2815e-07 2.5006e-08)
(-2.5119e-06 1.3178e-07 5.1055e-10)
(-2.2549e-06 1.8887e-08 9.2056e-08)
(-2.2551e-06 3.6886e-08 8.833e-08)
(-2.2548e-06 5.3881e-08 8.0612e-08)
(-2.2548e-06 6.8859e-08 6.8861e-08)
(-2.2549e-06 8.0777e-08 5.4017e-08)
(-2.2553e-06 8.8713e-08 3.7068e-08)
(-2.2551e-06 9.2666e-08 1.9033e-08)
(-2.2552e-06 9.3805e-08 5.5117e-10)
(-2.0266e-06 1.4889e-08 6.647e-08)
(-2.0252e-06 2.7577e-08 6.522e-08)
(-2.0267e-06 3.8473e-08 5.8972e-08)
(-2.0264e-06 4.8652e-08 4.8627e-08)
(-2.0268e-06 5.9164e-08 3.8563e-08)
(-2.0253e-06 6.5616e-08 2.7713e-08)
(-2.0268e-06 6.7085e-08 1.4988e-08)
(-2.0271e-06 6.6256e-08 5.6686e-10)
(-1.814e-06 1.2411e-08 5.821e-08)
(-1.8141e-06 2.3802e-08 5.62e-08)
(-1.8136e-06 3.3882e-08 5.0577e-08)
(-1.8137e-06 4.2506e-08 4.2423e-08)
(-1.8137e-06 5.0784e-08 3.3937e-08)
(-1.8142e-06 5.6592e-08 2.3904e-08)
(-1.8142e-06 5.8811e-08 1.2476e-08)
(-1.8143e-06 5.88e-08 5.8953e-10)
(-1.6108e-06 1.072e-08 5.7903e-08)
(-1.6113e-06 2.2304e-08 5.2905e-08)
(-1.6106e-06 3.4278e-08 4.8618e-08)
(-1.6101e-06 4.3152e-08 4.3077e-08)
(-1.6107e-06 4.8833e-08 3.4313e-08)
(-1.6114e-06 5.3294e-08 2.2388e-08)
(-1.611e-06 5.85e-08 1.0766e-08)
(-1.6105e-06 6.0838e-08 5.5561e-10)
(-1.4132e-06 5.0362e-09 4.3154e-08)
(-1.4115e-06 1.4128e-08 3.3477e-08)
(-1.4131e-06 2.7504e-08 3.3951e-08)
(-1.4149e-06 3.6351e-08 3.6279e-08)
(-1.4132e-06 3.4167e-08 2.7537e-08)
(-1.4116e-06 3.3874e-08 1.4205e-08)
(-1.4134e-06 4.3757e-08 5.078e-09)
(-1.4152e-06 5.1739e-08 5.2462e-10)
(-1.2166e-06 -7.1841e-09 -1.407e-08)
(-1.2135e-06 -9.4113e-09 -2.312e-08)
(-1.2166e-06 -4.5092e-09 -1.5192e-08)
(-1.2203e-06 -1.337e-09 -1.3882e-09)
(-1.2166e-06 -1.4996e-08 -4.4643e-09)
(-1.2136e-06 -2.2747e-08 -9.3305e-09)
(-1.2167e-06 -1.3503e-08 -7.1351e-09)
(-1.2205e-06 -1.4338e-09 4.7691e-10)
(-1.0322e-06 -2.0177e-08 -9.3969e-08)
(-1.0314e-06 -3.7543e-08 -9.1007e-08)
(-1.0323e-06 -5.1902e-08 -8.0819e-08)
(-1.0327e-06 -6.6646e-08 -6.6666e-08)
(-1.0323e-06 -8.0673e-08 -5.1839e-08)
(-1.0314e-06 -9.0711e-08 -3.7451e-08)
(-1.0323e-06 -9.3524e-08 -2.0116e-08)
(-1.0327e-06 -9.3905e-08 4.0947e-10)
(-8.9375e-07 -1.7812e-08 -8.9846e-08)
(-8.936e-07 -3.437e-08 -8.3272e-08)
(-8.9395e-07 -5.0629e-08 -7.6117e-08)
(-8.9151e-07 -7.0135e-08 -7.0116e-08)
(-8.9395e-07 -7.6041e-08 -5.0547e-08)
(-8.9361e-07 -8.3093e-08 -3.4268e-08)