/*--------------------------------*- C++ -*----------------------------------*\
  =========                 |
  \\      /  F ield         | OpenFOAM: The Open Source CFD Toolbox
   \\    /   O peration     | Website:  https://openfoam.org
    \\  /    A nd           | Version:  8
     \\/     M anipulation  |
\*---------------------------------------------------------------------------*/
FoamFile
{
    version     2.0;
    format      ascii;
    class       surfaceScalarField;
    location    "0.0135000";
    object      meshPhi;
}
// * * * * * * * * * * * * * * * * * * * * * * * * * * * * * * * * * * * * * //

dimensions      [0 3 -1 0 0 0 0];

internalField   nonuniform List<scalar> 
1691
(
-5.77607354700862e-19
-5.39945014984923e-14
-1.15428058028621e-18
-5.39416481438726e-14
-1.73320882469393e-18
-5.39068084916806e-14
-2.31172256586376e-18
-5.38797998244538e-14
-2.88687434748746e-18
-5.38463487968462e-14
-3.47374614994301e-18
-5.38352576127534e-14
-4.06234945157669e-18
-5.38528957236269e-14
-4.64661619531317e-18
-5.38553203052192e-14
-5.22910229608529e-18
-5.38596189010311e-14
-5.86771509591801e-18
-5.39531489351398e-14
-6.49755767157395e-18
-5.40778853403042e-14
-7.04574004295786e-18
-5.40661964945357e-14
-7.6104462999424e-18
-5.39473776003655e-14
-8.19565701402096e-18
-5.38662491444968e-14
-8.79862259597047e-18
-5.38513455996503e-14
-9.41746085527451e-18
-5.38985801303691e-14
-1.01152331699465e-17
-5.40467283340222e-14
-1.07954656994003e-17
-5.41912538894381e-14
-1.12673884697222e-17
-5.41393003038695e-14
-1.18387772587258e-17
-5.39902985358467e-14
-1.25007230863406e-17
-5.39840051751949e-14
-1.32168604854083e-17
-5.41275184476143e-14
-1.39268350389116e-17
-5.43060549378531e-14
-1.46144150974938e-17
-5.44475753983319e-14
-1.52612570239758e-17
-5.45132593793491e-14
-1.58458445610604e-17
-5.4501331575527e-14
-1.64821132410961e-17
-5.44818427821374e-14
-1.71901633351124e-17
-5.45455089323215e-14
-1.79611940991414e-17
-5.4679560020509e-14
-1.86079201549192e-17
-5.47747258374409e-14
-1.92588826877744e-17
-5.48081444083703e-14
-2.00110079093737e-17
-5.48955542919428e-14
-2.09013199161444e-17
-5.51158397374447e-14
-2.18085434546134e-17
-5.54119425810574e-14
-2.25858690390529e-17
-5.55860771974872e-14
-2.29561631109529e-17
-5.55350300265089e-14
-2.38431392425977e-17
-5.55416814788857e-14
-2.48499281433222e-17
-5.57438713388893e-14
-2.53820987019459e-17
-5.58942259326151e-14
-2.64072733273755e-17
-5.60519935171345e-14
-2.74958683573256e-17
-5.63733872187688e-14
-2.83204270694e-17
-5.66210674555637e-14
-2.88393117944414e-17
-5.66232664341562e-14
-2.95323492931743e-17
-5.65625020040077e-14
-3.04947289842879e-17
-5.6679329863172e-14
-3.17061229123665e-17
-5.7022340614379e-14
-3.29667635879308e-17
-5.74922505582041e-14
-3.42717965763934e-17
-5.80032595837661e-14
-3.56088372847001e-17
-5.85031088730274e-14
-3.67281305816684e-17
-5.89089081116303e-14
-3.77313298051712e-17
-5.91687974408207e-14
-3.86598018952663e-17
-5.9354841895929e-14
-3.99338085403059e-17
-5.96478932366312e-14
-4.16127346557899e-17
-6.02033552655146e-14
-4.36041799391159e-17
-6.09957721684606e-14
-4.55257151401472e-17
-6.18898995761534e-14
-4.78629167975291e-17
-6.29534849040137e-14
-5.14518985439714e-17
-6.4651541440063e-14
-5.64796141627406e-17
-6.68383617547944e-14
-5.73070034162077e-17
-6.82193702309329e-14
-5.85163475173548e-17
-6.86531031232075e-14
-6.19733163546458e-17
-6.95559030609588e-14
-6.61708371033753e-17
-7.14256946091295e-14
-7.10984390963302e-17
-7.38276794872895e-14
-7.60696916138604e-17
-7.6274737943998e-14
-8.02243699843561e-17
-7.89041613697587e-14
-9.0915013945209e-17
-8.30971778952732e-14
-1.02283388993605e-16
-8.86782015186612e-14
-1.09017265521942e-16
-9.39317484627449e-14
-1.2264123009575e-16
-9.96896818994597e-14
-1.37899218050298e-16
-1.07113377681743e-13
-1.52144999680328e-16
-1.14968282807199e-13
-1.6671499569267e-16
-1.22634408894689e-13
-1.84490533354611e-16
-1.31018999987128e-13
-2.04116512604973e-16
-1.40287411826562e-13
-2.22309026817283e-16
-1.49993287736663e-13
-2.48038398373945e-16
-1.61324362389572e-13
-2.81246474140993e-16
-1.76175774999541e-13
-3.21186497197024e-16
-1.94133753454213e-13
-3.57770325971214e-16
-2.13039250206223e-13
-4.00738728604719e-16
-2.33107063048931e-13
-4.54858241291315e-16
-2.56215005639378e-13
-5.05377154183818e-16
-2.80147460457786e-13
-5.41839557513936e-16
-2.99542072221826e-13
-5.63391973584766e-16
-3.11501677390292e-13
-5.6654386688968e-16
-3.15912796670446e-13
-5.13508719966625e-16
-3.13097573247941e-13
-4.53526879168931e-16
-3.03681546835035e-13
-3.90338134966536e-16
-2.89545362356548e-13
-3.32517392365306e-16
-2.73756207380643e-13
-2.83643489844403e-16
-2.59639962255347e-13
-2.41901189194607e-16
-2.48492172731398e-13
-2.03413088727676e-16
-2.39608989557762e-13
-1.69857191161193e-16
-2.32851832407559e-13
-1.39395339028992e-16
-2.2827183425133e-13
-1.09796565223543e-16
-2.25367382256895e-13
-8.29050685230664e-17
-2.24591535712565e-13
-5.56799284511864e-17
-2.25252136296928e-13
-2.74859479344503e-17
-2.24833873950981e-13
-2.23456576751243e-13
-1.74263202724621e-18
-1.08883889488046e-13
-3.48158109635594e-18
-1.08749879394857e-13
-5.21849517312595e-18
-1.08633669744165e-13
-6.95190776485508e-18
-1.08524744134563e-13
-8.68212668948889e-18
-1.08410180941564e-13
-1.04148756372952e-17
-1.08315518037211e-13
-1.21479482746153e-17
-1.08246186038086e-13
-1.3873528032562e-17
-1.08163325937504e-13
-1.56049063269383e-17
-1.08082298082882e-13
-1.73625937322881e-17
-1.08080178190466e-13
-1.91092520232722e-17
-1.08105395200049e-13
-2.08087186762622e-17
-1.08009768716668e-13
-2.24987681598519e-17
-1.07819633030661e-13
-2.4206808522965e-17
-1.07662997283002e-13
-2.59252446447898e-17
-1.07564792829799e-13
-2.76679221152859e-17
-1.07521427095961e-13
-2.94544972120929e-17
-1.07567173999949e-13
-3.12005885089665e-17
-1.0760969879149e-13
-3.2846950916205e-17
-1.07478422859873e-13
-3.45122454014555e-17
-1.07261546860356e-13
-3.62629975919578e-17
-1.07170972234546e-13
-3.80532108428938e-17
-1.07212614915981e-13
-3.98429753947218e-17
-1.07285110519266e-13
-4.16084308524471e-17
-1.07324749138059e-13
-4.33306598351716e-17
-1.07297273056427e-13
-4.50182077525802e-17
-1.07201284913034e-13
-4.67291046310516e-17
-1.07098726265156e-13
-4.85047453756218e-17
-1.07069576034713e-13
-5.02975009196315e-17
-1.07102591039976e-13
-5.20327660086542e-17
-1.07101101121228e-13
-5.37542837909335e-17
-1.07044920786276e-13
-5.555913524577e-17
-1.07036530018344e-13
-5.74588635824791e-17
-1.07145409658326e-13
-5.93793534247046e-17
-1.07320984306559e-13
-6.11266444627605e-17
-1.07388870356513e-13
-6.27351354123494e-17
-1.07257845444515e-13
-6.4565062957241e-17
-1.07177945370732e-13
-6.64650984667831e-17
-1.07271001596961e-13
-6.82237745467593e-17
-1.07317461279519e-13
-7.01481778934498e-17
-1.07370401457401e-13
-7.21835070933245e-17
-1.07568172637932e-13
-7.40025449202071e-17
-1.07700608440982e-13
-7.56331650595979e-17
-1.07616372476718e-13
-7.73413720599304e-17
-1.07476651175592e-13
-7.92844945454738e-17
-1.0749348098459e-13
-8.14135956330506e-17
-1.07709610545744e-13
-8.36176601207455e-17
-1.08037267655808e-13
-8.58599157511478e-17
-1.08401433822532e-13
-8.80791859176357e-17
-1.08755715337314e-13
-9.01685262042433e-17
-1.09026463580913e-13
-9.21193935350773e-17
-1.09168619104177e-13
-9.40736771980257e-17
-1.09245414563828e-13
-9.62655935363616e-17
-1.09416958614691e-13
-9.88073516022644e-17
-1.09819243514117e-13
-1.01558590994584e-16
-1.10428514440361e-13
-1.04388748885326e-16
-1.11128512267999e-13
-1.07597356303454e-16
-1.11977436476339e-13
-1.11985289259896e-16
-1.13381750285533e-13
-1.1647322951193e-16
-1.15217306013636e-13
-1.19084192693769e-16
-1.16344988391684e-13
-1.21378668395174e-16
-1.16637899772463e-13
-1.2519767862387e-16
-1.1734182289824e-13
-1.29995674199473e-16
-1.18896630726563e-13
-1.35322295152847e-16
-1.20919977812609e-13
-1.40418725890558e-16
-1.22980728558209e-13
-1.46424792706482e-16
-1.25198504999938e-13
-1.55940988686413e-16
-1.28789613311927e-13
-1.66038972343703e-16
-1.33601119387342e-13
-1.75081132852828e-16
-1.38122301055772e-13
-1.87036699187231e-16
-1.4308402131259e-13
-2.0126605891869e-16
-1.49506683460863e-13
-2.15036620379679e-16
-1.56305785233569e-13
-2.29349069471489e-16
-1.62938454327634e-13
-2.4586894853632e-16
-1.70199186981656e-13
-2.63492600814618e-16
-1.78231366668877e-13
-2.82089464482126e-16
-1.86650024357895e-13
-3.05520620450923e-16
-1.96491354523736e-13
-3.36013009054263e-16
-2.09408510227543e-13
-3.70430548302112e-16
-2.25043759091392e-13
-4.05385530768275e-16
-2.41514063081933e-13
-4.45116709503014e-16
-2.59003620014961e-13
-4.91641807604298e-16
-2.79138629669026e-13
-5.35893260838626e-16
-2.99984277088145e-13
-5.69047539291234e-16
-3.16864340525308e-13
-5.89592501718555e-16
-3.27255353408928e-13
-5.9146857185682e-16
-3.31031903977315e-13
-5.38932437852823e-16
-3.28534423133444e-13
-4.79272124077653e-16
-3.20256662294633e-13
-4.17959532343126e-16
-3.07871738762326e-13
-3.60762646268678e-16
-2.94049945598338e-13
-3.10878554434089e-16
-2.81688531420655e-13
-2.6678309986755e-16
-2.71922579412376e-13
-2.26572038294551e-16
-2.64136616914152e-13
-1.90164180804376e-16
-2.58216338252936e-13
-1.56239418901502e-16
-2.54214492012554e-13
-1.23927444672154e-16
-2.51659762614352e-13
-9.31718124467446e-17
-2.50974194923697e-13
-6.22935510914847e-17
-2.51577528645328e-13
-3.09507029538426e-17
-2.51178865797773e-13
-2.49853235685355e-13
-2.93339780281778e-18
-1.65022338576669e-13
-5.85936643508055e-18
-1.64788924512322e-13
-8.77938760658223e-18
-1.64576744606569e-13
-1.1692157171547e-17
-1.64371453497289e-13
-1.45979679476105e-17
-1.64161410552016e-13
-1.75018229051347e-17
-1.63968632395643e-13
-2.04017709613293e-17
-1.63797749963598e-13
-2.32909912970551e-17
-1.63615208559473e-13
-2.61811519846064e-17
-1.63434303888792e-13
-2.90901180573736e-17
-1.63321604871028e-13
-3.19852413485665e-17
-1.63232516673783e-13
-3.48348580802211e-17
-1.63038953877241e-13
-3.76721110798986e-17
-1.6276358682596e-13
-4.05208948366237e-17
-1.62517097515036e-13
-4.3374611961459e-17
-1.6232120032129e-13
-4.62453387331091e-17
-1.62172812029709e-13
-4.91502660237206e-17
-1.62101410166998e-13
-5.20155931126031e-17
-1.62027170877348e-13
-5.47894811269391e-17
-1.61802783238691e-13
-5.75758058178888e-17
-1.61504351140755e-13
-6.04326386571988e-17
-1.6131493856156e-13
-6.33198220203406e-17
-1.61239863279606e-13
-6.62024242114458e-17
-1.61191571166448e-13
-6.90595134278033e-17
-1.61114884708082e-13
-7.18746011781757e-17
-1.60980147773607e-13
-7.46551892597752e-17
-1.60786159171648e-13
-7.74520159746752e-17
-1.60586437897418e-13
-8.03011947681809e-17
-1.60450092984969e-13
-8.31612202484476e-17
-1.6036747087878e-13
-8.59666573541795e-17
-1.60255108173472e-13
-8.87559298538729e-17
-1.60095497514091e-13
-9.16138053903141e-17
-1.59977074033868e-13
-9.45503542445644e-17
-1.59959869050876e-13
-9.75007056758666e-17
-1.60000230667043e-13
-1.00295697354594e-16
-1.59947659831584e-13
-1.02964967037156e-16
-1.59723390644563e-13
-1.05823712532282e-16
-1.59543039795735e-13
-1.08739504974974e-16
-1.59511904931097e-13
-1.1152708613346e-16
-1.59440739413569e-13
-1.1445558618571e-16
-1.59375060508087e-13
-1.17476592666811e-16
-1.59434192828173e-13
-1.20304564070192e-16
-1.59437090813568e-13
-1.2296376248309e-16
-1.59253143443166e-13
-1.25686428630362e-16
-1.59021165730837e-13
-1.28609710282815e-16
-1.58924016599122e-13
-1.31691140887509e-16
-1.58998734517802e-13
-1.34833221166684e-16
-1.59169499725028e-13
-1.38005686111257e-16
-1.59372196794265e-13
-1.41152559966847e-16
-1.59566386777869e-13
-1.44182021383717e-16
-1.59688063164666e-13
-1.47086310780061e-16
-1.59698913525535e-13
-1.4998898998784e-16
-1.59653253618264e-13
-1.53095405724364e-16
-1.59689137593377e-13
-1.56501224265946e-16
-1.5992372631151e-13
-1.60084462891478e-16
-1.60336349036558e-13
-1.63734411807453e-16
-1.60827033538744e-13
-1.67707417409149e-16
-1.61446035106301e-13
-1.72701648992377e-16
-1.62542719316695e-13
-1.77781478531272e-16
-1.64010253370784e-13
-1.81221573984953e-16
-1.64868926771508e-13
-1.84380627573974e-16
-1.65009025733053e-13
-1.88860352579918e-16
-1.65501693363099e-13
-1.94190282437495e-16
-1.66725964755427e-13
-1.9997507030542e-16
-1.68353771730728e-13
-2.05553147845455e-16
-1.7001375315147e-13
-2.11913708021937e-16
-1.71807251277249e-13
-2.21324645987442e-16
-1.74780064702679e-13
-2.31237541951503e-16
-1.7880244097391e-13
-2.40224063645508e-16
-1.82575506816886e-13
-2.51736938782642e-16
-1.86725503605977e-13
-2.65219322005803e-16
-1.92129488617322e-13
-2.78297071710122e-16
-1.97856424500867e-13
-2.91839448346773e-16
-2.03439066611703e-13
-3.0729041428838e-16
-2.09559439917887e-13
-3.23692537076538e-16
-2.16341386555173e-13
-3.40939876760863e-16
-2.23453360414607e-13
-3.62365859914794e-16
-2.31783239676885e-13
-3.89910412455658e-16
-2.42751082295368e-13
-4.20854192412308e-16
-2.56050981383949e-13
-4.52266089644496e-16
-2.70064882406909e-13
-4.87804705478462e-16
-2.84948780991638e-13
-5.29208277841898e-16
-3.02098627496694e-13
-5.68633906938399e-16
-3.19855279466454e-13
-5.98437658756474e-16
-3.34206069339451e-13
-6.17320518683861e-16
-3.42985100282388e-13
-6.18851827196468e-16
-3.46099040453951e-13
-5.65675880026746e-16
-3.43947289763835e-13
-5.06363447522503e-16
-3.36841514286219e-13
-4.45636679899895e-16
-3.26220008795096e-13
-3.88476949378198e-16
-3.14366114676469e-13
-3.37653012100666e-16
-3.03764082898087e-13
-2.91849650368215e-16
-2.95388001944292e-13
-2.49412346900327e-16
-2.88710312241564e-13
-2.10279933150799e-16
-2.83632841872021e-13
-1.73303421001796e-16
-2.80200939169769e-13
-1.37710709206159e-16
-2.78010245804733e-13
-1.03483876729796e-16
-2.77422491745381e-13
-6.91478255788911e-17
-2.77940044496652e-13
-3.4398138212874e-17
-2.77598954841564e-13
-2.76453687615703e-13
-4.15051248232757e-18
-2.22381657808166e-13
-8.28919208444243e-18
-2.22031365375041e-13
-1.2417428378786e-17
-2.21709355422094e-13
-1.65340658824252e-17
-2.21393906847599e-13
-2.06393616903065e-17
-2.2107454211603e-13
-2.47375942598465e-17
-2.20769728671474e-13
-2.88270904657031e-17
-2.20483371364409e-13
-3.29020281740058e-17
-2.20187232096447e-13
-3.69723637784723e-17
-2.1989240822608e-13
-4.10533409261718e-17
-2.19654937713632e-13
-4.51171577954168e-17
-2.19437503634785e-13
-4.91366988640646e-17
-2.19132315433203e-13
-5.31402407228817e-17
-2.18758140414848e-13
-5.71482167548883e-17
-2.18408107040161e-13
-6.11550373286234e-17
-2.18100712464812e-13
-6.51709816289352e-17
-2.17833311221549e-13
-6.92106847196884e-17
-2.17630579207633e-13
-7.32112463068541e-17
-2.17425593868919e-13
-7.71284096659985e-17
-2.17094553325913e-13
-8.10506261080847e-17
-2.16701037075392e-13
-8.5027581173687e-17
-2.1639887569874e-13
-8.90251267764224e-17
-2.16192921428536e-13
-9.30134217135597e-17
-2.16009711323643e-13
-9.69745307812994e-17
-2.15802748965406e-13
-1.00894402294191e-16
-2.15546993418845e-13
-1.04779371179154e-16
-2.1524135354978e-13
-1.08672744035019e-16
-2.14930758106328e-13
-1.12605331074525e-16
-2.14673335387853e-13
-1.16541869149469e-16
-2.14461155470104e-13
-1.20426489222656e-16
-2.14224157794955e-13
-1.24291830335011e-16
-2.13947420014234e-13
-1.28210165351237e-16
-2.1370508858565e-13
-1.32190193444348e-16
-2.13547715042108e-13
-1.36176612467658e-16
-2.13438793905504e-13
-1.40025323048283e-16
-2.13252020826435e-13
-1.43761310262616e-16
-2.12921033202327e-13
-1.47653072022256e-16
-2.1262655492171e-13
-1.51588294570408e-16
-2.12457364675359e-13
-1.55408957412965e-16
-2.1225484049444e-13
-1.59343882122886e-16
-2.12056694675737e-13
-1.63352340948336e-16
-2.11963159240893e-13
-1.67191224993445e-16
-2.11822782549212e-13
-1.70880859440551e-16
-2.11525777621534e-13
-1.74618790514335e-16
-2.1118818324683e-13
-1.78521984677123e-16
-2.10963368801466e-13
-1.82554496008613e-16
-2.10882664032595e-13
-1.86632952152155e-16
-2.10882463121272e-13
-1.90733029193686e-16
-2.10909489534265e-13
-1.94804849614625e-16
-2.10929497218706e-13
-1.98771536047498e-16
-2.10888389885804e-13
-2.02626065850743e-16
-2.10754379589826e-13
-2.06473533310931e-16
-2.10572752343245e-13
-2.10488883141176e-16
-2.10459326077557e-13
-2.14753250234315e-16
-2.10512298279765e-13
-2.19162554993179e-16
-2.10714072616395e-13
-2.23623447798411e-16
-2.10981154467488e-13
-2.28353462238161e-16
-2.11355827871233e-13
-2.33944796710827e-16
-2.12129856821335e-13
-2.39603850247531e-16
-2.13214046433247e-13
-2.43865269529536e-16
-2.13789453612341e-13
-2.47881005727588e-16
-2.13763441973067e-13
-2.53011397567949e-16
-2.14031056366308e-13
-2.58858805076527e-16
-2.14910153361851e-13
-2.65088196949918e-16
-2.16127489770504e-13
-2.71135663004448e-16
-2.17371911634011e-13
-2.77838321823162e-16
-2.1872622462411e-13
-2.87123589544964e-16
-2.21064730026472e-13
-2.96831918193158e-16
-2.24281281053457e-13
-3.05747340404946e-16
-2.27290104693157e-13
-3.167970015577e-16
-2.30612218312914e-13
-3.29511343076132e-16
-2.34980706439123e-13
-3.41876459512085e-16
-2.39618834923705e-13
-3.54626867516716e-16
-2.44135394619026e-13
-3.68988017206925e-16
-2.49099460048853e-13
-3.84149320594403e-16
-2.54615247234865e-13
-4.00016554723444e-16
-2.60404965105054e-13
-4.19413134484139e-16
-2.67207871017424e-13
-4.43987639256296e-16
-2.76210239104591e-13
-4.71435415712074e-16
-2.87158248805938e-13
-4.99267214732321e-16
-2.98699979603015e-13
-5.30580636063559e-16
-3.10963452096437e-13
-5.66851433807458e-16
-3.25113894829465e-13
-6.01437099056926e-16
-3.39768556973893e-13
-6.27860382204269e-16
-3.5157968119387e-13
-6.45019064101275e-16
-3.58739191151326e-13
-6.46207190782153e-16
-3.61186615652944e-13
-5.92433025891175e-16
-3.59385018019986e-13
-5.33487270222573e-16
-3.53454151215612e-13
-4.73344883354924e-16
-3.4459839636832e-13
-4.1622101572222e-16
-3.3471494842702e-13
-3.64459971662893e-16
-3.25874696018181e-13
-3.16949596607781e-16
-3.18890350270444e-13
-2.7228877574306e-16
-3.13322319987812e-13
-2.30425814626712e-16
-3.09088652090551e-13
-1.90388033324296e-16
-3.06227242424054e-13
-1.51521552823986e-16
-3.04400808273823e-13
-1.13811214480925e-16
-3.03910805727592e-13
-7.6008376180575e-17
-3.04342264549383e-13
-3.78555153648973e-17
-3.04057969465036e-13
-3.03091526737964e-13
-5.39335917074988e-18
-2.80935464143436e-13
-1.07699362659677e-17
-2.8045139350533e-13
-1.613096335867e-17
-2.8000625086584e-13
-2.14754829874787e-17
-2.79567405764804e-13
-2.68036935748586e-17
-2.7912543580898e-13
-3.21191105014207e-17
-2.78695224744521e-13
-3.74203901002609e-17
-2.78279993322738e-13
-4.27027072211495e-17
-2.77856872898754e-13
-4.79742500334701e-17
-2.77434677883608e-13
-5.32476669115102e-17
-2.77058808243261e-13
-5.85000436707373e-17
-2.76699433800015e-13
-6.3708917622957e-17
-2.76269348857475e-13
-6.88975301082199e-17
-2.75783291074062e-13
-7.40828766614594e-17
-2.75316555859411e-13
-7.92603924674549e-17
-2.7488435989663e-13
-8.4438446500761e-17
-2.74484464584114e-13
-8.96291756947373e-17
-2.74136722968724e-13
-9.47807983900442e-17
-2.73787415472352e-13
-9.98566424603813e-17
-2.73336560421505e-13
-1.04929482643094e-16
-2.72834926350531e-13
-1.10040526561526e-16
-2.7240667070924e-13
-1.15161733140544e-16
-2.72056193465235e-13
-1.20268484143029e-16
-2.71724370259738e-13
-1.25345897101061e-16
-2.71373557910801e-13
-1.30382314406682e-16
-2.70983392341994e-13
-1.35382909121365e-16
-2.70552855278266e-13
-1.40383397385968e-16
-2.70118131001238e-13
-1.45409284941673e-16
-2.69726213593958e-13
-1.50431654303628e-16
-2.69370959184827e-13
-1.55404327355623e-16
-2.6899591038585e-13
-1.6035400603138e-16
-2.68588727109223e-13
-1.65340305430813e-16
-2.68209047381077e-13
-1.70370597747882e-16
-2.67897840647031e-13
-1.75399361499874e-16
-2.67625902334184e-13
-1.80307814285383e-16
-2.67291453893772e-13
-1.85116095457186e-16
-2.6684062009447e-13
-1.90045514083675e-16
-2.66418775851143e-13
-1.95004227411391e-16
-2.66098028120895e-13
-1.99861601942638e-16
-2.65750718808116e-13
-2.04805711776607e-16
-2.65406638465967e-13
-2.09803744643009e-16
-2.65146762164603e-13
-2.14655530826826e-16
-2.64849610761469e-13
-2.19377258443968e-16
-2.6442642993565e-13
-2.2413136951692e-16
-2.63970181645809e-13
-2.29014434128341e-16
-2.63604401716766e-13
-2.33997134283883e-16
-2.63354635839228e-13
-2.39010577134878e-16
-2.6316973376221e-13
-2.44035801071015e-16
-2.63007121399799e-13
-2.49030148723649e-16
-2.62839026609231e-13
-2.53931204209752e-16
-2.62621605604776e-13
-2.5873274368191e-16
-2.6232938042863e-13
-2.63521159515938e-16
-2.61998542999007e-13
-2.68440769720841e-16
-2.61722438895771e-13
-2.73558036441035e-16
-2.61580132724204e-13
-2.78786941976603e-16
-2.61557162205465e-13
-2.84051703822309e-16
-2.61586651050618e-13
-2.8953068935895e-16
-2.61702825151063e-13
-2.95709337548302e-16
-2.62139445466597e-13
-3.01937461886483e-16
-2.62825185397275e-13
-3.0701156924823e-16
-2.63103092184688e-13
-3.11875167102333e-16
-2.62897720308735e-13
-3.17645449573635e-16
-2.62926758048918e-13
-3.23998133271576e-16
-2.63446368890355e-13
-3.30659020690028e-16
-2.64238428123296e-13
-3.371626366262e-16
-2.65052525457767e-13
-3.44193085186477e-16
-2.6595304305732e-13
-3.53335333752541e-16
-2.67641734540187e-13
-3.62820996470118e-16
-2.70036006377527e-13
-3.71647856389186e-16
-2.72264468590581e-13
-3.82214972679657e-16
-2.7474267631712e-13
-3.94140462655294e-16
-2.78059034919376e-13
-4.05772448024299e-16
-2.81591758335279e-13
-4.17710457874786e-16
-2.85026200391252e-13
-4.30960351195839e-16
-2.88818083795242e-13
-4.44858960267695e-16
-2.93051791228039e-13
-4.59324487663928e-16
-2.9750372941485e-13
-4.76669104218996e-16
-3.02764457943069e-13
-4.98248611254459e-16
-3.09785583405454e-13
-5.22174723901664e-16
-3.18365359879339e-13
-5.46402482024492e-16
-3.27419271483591e-13
-5.73467477933629e-16
-3.37047821437245e-13
-6.04582206614172e-16
-3.48184937467778e-13
-6.3430724185492e-16
-3.59724691359595e-13
-6.57334673396077e-16
-3.68985731059331e-13
-6.72758396272777e-16
-3.74518344496728e-13
-6.73598141283589e-16
-3.762954339129e-13
-6.19228719286001e-16
-3.74848154925382e-13
-5.60649305758099e-16
-3.70094830665635e-13
-5.01090821105345e-16
-3.63006995014228e-13
-4.440020381452e-16
-3.55096395365824e-13
-3.91302266928176e-16
-3.48020237107928e-13
-3.4208224214765e-16
-3.42429483991122e-13
-2.95194727134069e-16
-3.37972533110184e-13
-2.505974779148e-16
-3.3458371297497e-13
-2.07494320207336e-16
-3.32293439476802e-13
-1.65349795270241e-16
-3.30831632100056e-13
-1.24151540883025e-16
-3.30439447559034e-13
-8.2877531008413e-17
-3.30784715749468e-13
-4.13171378307652e-17
-3.30557382641791e-13
-3.29770133415757e-13
-6.66141736750252e-18
-3.40658460741737e-13
-1.33005187542588e-17
-3.40024335548954e-13
-1.99184416458815e-17
-3.39443279064924e-13
-2.65143613467443e-17
-3.38868304817243e-13
-3.30884431328694e-17
-3.38290968142211e-13
-3.96434435361995e-17
-3.37722524046476e-13
-4.61783481844978e-17
-3.37165512967309e-13
-5.26893078508809e-17
-3.36602530816614e-13
-5.91827307703285e-17
-3.36040075689732e-13
-6.56686354922211e-17
-3.35512716399512e-13
-7.21291157562104e-17
-3.3499822177625e-13
-7.85463762979509e-17
-3.3443035470197e-13
-8.49386080292784e-17
-3.33819813482248e-13
-9.13192485277173e-17
-3.3322372657591e-13
-9.76847702347692e-17
-3.32653900881543e-13
-1.04041623727163e-16
-3.32108515984646e-13
-1.10399414714457e-16
-3.31602563033336e-13
-1.16717684051022e-16
-3.3109573494429e-13
-1.22967418505585e-16
-3.30512256280833e-13
-1.29205497785447e-16
-3.29889944773016e-13
-1.35464481360045e-16
-3.29322797137687e-13
-1.41722564200955e-16
-3.28814650918559e-13
-1.47960389071492e-16
-3.28320933383633e-13
-1.54166235682597e-16
-3.27813050653474e-13
-1.6033086393083e-16
-3.27275427081343e-13
-1.66458265922299e-16
-3.26707131590606e-13
-1.72576432733898e-16
-3.2613546319568e-13
-1.78705491382264e-16
-3.25596084597626e-13
-1.84822956511771e-16
-3.25084625854436e-13
-1.90892504383293e-16
-3.24558436580608e-13
-1.96934787528056e-16
-3.24007849912274e-13
-2.02996629032666e-16
-3.23477801951576e-13
-2.0908399503843e-16
-3.22999502450149e-13
-2.15161355174681e-16
-3.22551131066187e-13
-2.21135544205252e-16
-3.22055788858916e-13
-2.2702179949203e-16
-3.21472314179023e-13
-2.32993656238866e-16
-3.20910292228396e-13
-2.38979939712859e-16
-3.2042483281061e-13
-2.4487773974074e-16
-3.19919604638883e-13
-2.50833972863697e-16
-3.19416492708422e-13
-2.56823765224613e-16
-3.18976948326289e-13
-2.62690428782917e-16
-3.18509744865873e-13
-2.68445981662516e-16
-3.17947483780496e-13
-2.74217373330723e-16
-3.17359857657428e-13
-2.80080489656597e-16
-3.16840189680767e-13
-2.8601268499515e-16
-3.16408089972812e-13
-2.91959886097381e-16
-3.16025062650137e-13
-2.97907878322206e-16
-3.15659118289528e-13
-3.03822385873663e-16
-3.15289214707066e-13
-3.09655013320936e-16
-3.14882112437263e-13
-3.15400457146721e-16
-3.14418510352017e-13
-3.21126207890068e-16
-3.13925482572857e-13
-3.26945584791836e-16
-3.13473610158631e-13
-3.32910292738656e-16
-3.13122616498518e-13
-3.38952644025734e-16
-3.12861303112161e-13
-3.45014402523115e-16
-3.12639502763371e-13
-3.5123449713619e-16
-3.12483234843538e-13
-3.57990995307051e-16
-3.12567958454255e-13
-3.6477809333808e-16
-3.12840352105878e-13
-3.70656089475577e-16
-3.12806537299175e-13
-3.76358868605874e-16
-3.12408598408705e-13
-3.82758704803334e-16
-3.12185809434906e-13
-3.89604760331412e-16
-3.12331946856988e-13
-3.96683944890876e-16
-3.12684039962887e-13
-4.03630508827364e-16
-3.13053066279452e-13
-4.10975128979357e-16
-3.13485477772537e-13
-4.1995766804036e-16
-3.14509358019582e-13
-4.29202510432586e-16
-3.16065126585616e-13
-4.37923333629518e-16
-3.17497103517322e-13
-4.47988920524749e-16
-3.19115515010241e-13
-4.59104893796047e-16
-3.21363290964326e-13
-4.69983164319528e-16
-3.23774043877028e-13
-4.81088425479602e-16
-3.261103436249e-13
-4.93205709143754e-16
-3.28714236078564e-13
-5.05819611546076e-16
-3.31649938117365e-13
-5.18862061190436e-16
-3.34748611232443e-13
-5.34132897123691e-16
-3.38452260337035e-13
-5.52692934158905e-16
-3.43476738260962e-13
-5.7307179438777e-16
-3.49672081040817e-13
-5.936717783348e-16
-3.56222577588354e-13
-6.16465672197421e-16
-3.63201883312563e-13
-6.42401329686214e-16
-3.71311916383936e-13
-6.67244848520033e-16
-3.79723802916746e-13
-6.86860986728076e-16
-3.86424201840302e-13
-7.0053932647692e-16
-3.90322536531871e-13
-7.0102538530297e-16
-3.91425522779395e-13
-6.46063169413833e-16
-3.9033668007769e-13
-5.87849578088589e-16
-3.86763451865599e-13
-5.28874348031737e-16
-3.81445644835755e-13
-4.71819784921058e-16
-3.75510249170686e-13
-4.18179669420609e-16
-3.70200490031864e-13
-3.67247395362206e-16
-3.66005188870225e-13
-3.18130053201201e-16
-3.62660737609832e-13
-2.70794817209511e-16
-3.60117808520926e-13
-2.24622228170397e-16
-3.5839930106908e-13
-1.79195434661362e-16
-3.57302475534234e-13
-1.34504874683879e-16
-3.57008176848079e-13
-8.97553462762425e-17
-3.5726716026676e-13
-4.47831361332566e-17
-3.57096960416536e-13
-3.56489270354176e-13
-7.95415787110835e-18
-4.01526351484212e-13
-1.58799404849368e-17
-4.00726613978141e-13
-2.37783587458933e-17
-3.99997350743421e-13
-3.16487439438846e-17
-3.99273971480502e-13
-3.94912267850121e-17
-3.98548992448393e-13
-4.73077953942714e-17
-3.97829979064065e-13
-5.50977391810073e-17
-3.97118746740228e-13
-6.2858242017788e-17
-3.96403496884896e-13
-7.05939011773943e-17
-3.95688431854985e-13
-7.83120334586971e-17
-3.94997003807628e-13
-8.59997811091067e-17
-3.94314592347545e-13
-9.36441949587515e-17
-3.93596413267171e-13
-1.01258297619161e-16
-3.92849237913357e-13
-1.0885191390805e-16
-3.92111634824851e-13
-1.16422502471511e-16
-3.9139180308495e-13
-1.2397465039104e-16
-3.9068839629961e-13
-1.31515327532452e-16
-3.90011485306311e-13
-1.39015571651294e-16
-3.89334288753785e-13
-1.46454208941785e-16
-3.8860570437049e-13
-1.53872035047495e-16
-3.87850611694885e-13
-1.61292746054552e-16
-3.87132306794923e-13
-1.68700775820833e-16
-3.86453825732149e-13
-1.76082179244953e-16
-3.85785325785497e-13
-1.83428449866024e-16
-3.85107483499563e-13
-1.90732846672972e-16
-3.8440967572242e-13
-1.97998157278123e-16
-3.8369112661649e-13
-2.05244549965825e-16
-3.82970123105005e-13
-2.12486643462231e-16
-3.82270752306991e-13
-2.19708412648495e-16
-3.81590328734367e-13
-2.268835992054e-16
-3.80900217835648e-13
-2.34026788828766e-16
-3.80193614963422e-13
-2.41171780338802e-16
-3.79500586353638e-13
-2.48323076992283e-16
-3.78842325999658e-13
-2.55455235187719e-16
-3.78204407189147e-13
-2.6250111834071e-16
-3.77535189396833e-13
-2.69471151639887e-16
-3.76806599574847e-13
-2.76490354693217e-16
-3.76092006101382e-13
-2.83508297584263e-16
-3.75429015585904e-13
-2.90450316981963e-16
-3.74753014982028e-13
-2.97421776556367e-16
-3.74078135858896e-13
-3.04405591531851e-16
-3.73445930478916e-13
-3.1128908087951e-16
-3.7279560559374e-13
-3.18080260583473e-16
-3.72081561536697e-13
-3.24870220799752e-16
-3.71350138796795e-13
-3.31713797017053e-16
-3.70664031598669e-13
-3.385949766049e-16
-3.70036685540396e-13
-3.45474839395203e-16
-3.69442388038962e-13
-3.52343442204752e-16
-3.68859744133326e-13
-3.59175777855047e-16
-3.68274606008043e-13
-3.65937220000954e-16
-3.67664590278817e-13
-3.72623590942204e-16
-3.6701663124414e-13
-3.79283285094002e-16
-3.66348689163998e-13
-3.85998113227256e-16
-3.6570822888172e-13
-3.92804996630795e-16
-3.651353847926e-13
-3.99654945418056e-16
-3.64622423761867e-13
-4.06507035500087e-16
-3.64135928058553e-13
-4.13460551708235e-16
-3.63693498746312e-13
-4.20785747461906e-16
-3.63412098305145e-13
-4.28121777278368e-16
-3.63256452520923e-13
-4.34794691695854e-16
-3.6289669710335e-13
-4.41328101392166e-16
-3.62293017653577e-13
-4.48347609575346e-16
-3.61805424178589e-13
-4.55675421207564e-16
-3.61564423583053e-13
-4.63159609015786e-16
-3.61461969622988e-13
-4.70535944805919e-16
-3.61371187033674e-13
-4.78181839778282e-16
-3.61321485928761e-13
-4.86988620666538e-16
-3.61666069991469e-13
-4.95974417438699e-16
-3.62367330441434e-13
-5.04571713721296e-16
-3.62986686054818e-13
-5.14117137488485e-16
-3.63729544220605e-13
-5.24403057827577e-16
-3.64892460789952e-13
-5.34506932612774e-16
-3.66164699416967e-13