/*--------------------------------*- C++ -*----------------------------------*\
| =========                 |                                                 |
| \\      /  F ield         | OpenFOAM: The Open Source CFD Toolbox           |
|  \\    /   O peration     | Version:  4.1                                   |
|   \\  /    A nd           | Web:      www.OpenFOAM.org                      |
|    \\/     M anipulation  |                                                 |
\*---------------------------------------------------------------------------*/
FoamFile
{
    version     2.0;
    format      ascii;
    class       pointVectorField;
    location    "0.0083";
    object      pointDisplacement_Next;
}
// * * * * * * * * * * * * * * * * * * * * * * * * * * * * * * * * * * * * * //

dimensions      [0 1 0 0 0 0 0];

internalField   uniform (0 0 0);

boundaryField
{
    inlet
    {
        type            fixedValue;
        value           nonuniform 0();
    }
    outlet
    {
        type            fixedValue;
        value           nonuniform 0();
    }
    mantle
    {
        type            fixedValue;
        value           nonuniform List<vector> 
416
(
(5.4939e-05 2.0856e-06 3.4779e-10)
(5.881e-05 6.1199e-06 1.6629e-10)
(5.8776e-05 5.9555e-06 -1.1584e-06)
(5.4911e-05 2.0069e-06 -3.7367e-07)
(5.8731e-05 5.533e-06 -2.2814e-06)
(5.4875e-05 1.8385e-06 -7.5739e-07)
(5.8717e-05 4.9557e-06 -3.3265e-06)
(5.4871e-05 1.694e-06 -1.1588e-06)
(5.8725e-05 4.2299e-06 -4.2304e-06)
(5.4884e-05 1.4899e-06 -1.4905e-06)
(5.8717e-05 3.3262e-06 -4.9569e-06)
(5.4871e-05 1.1585e-06 -1.6949e-06)
(5.8731e-05 2.2814e-06 -5.5348e-06)
(5.4875e-05 7.5733e-07 -1.8399e-06)
(5.8776e-05 1.1584e-06 -5.958e-06)
(5.4911e-05 3.7362e-07 -2.009e-06)
(5.8809e-05 -4.7502e-10 -6.1231e-06)
(5.4939e-05 -6.0888e-10 -2.0882e-06)
(6.2511e-05 1.0639e-05 2.1724e-10)
(6.2482e-05 1.0385e-05 -2.0607e-06)
(6.2431e-05 9.6781e-06 -4.0063e-06)
(6.2413e-05 8.6104e-06 -5.7513e-06)
(6.2409e-05 7.2871e-06 -7.2878e-06)
(6.2412e-05 5.7512e-06 -8.6118e-06)
(6.2431e-05 4.0064e-06 -9.6802e-06)
(6.2481e-05 2.0607e-06 -1.0388e-05)
(6.2511e-05 -5.2284e-10 -1.0642e-05)
(6.5998e-05 1.4819e-05 4.1043e-10)
(6.5967e-05 1.4485e-05 -2.9078e-06)
(6.5925e-05 1.3507e-05 -5.6162e-06)
(6.5913e-05 1.1985e-05 -8.0015e-06)
(6.5921e-05 1.0108e-05 -1.0108e-05)
(6.5913e-05 8.0015e-06 -1.1987e-05)
(6.5924e-05 5.6164e-06 -1.3509e-05)
(6.5966e-05 2.9079e-06 -1.4487e-05)
(6.5997e-05 -6.4932e-10 -1.4822e-05)
(6.9213e-05 1.7887e-05 3.0979e-10)
(6.919e-05 1.7483e-05 -3.5186e-06)
(6.9166e-05 1.6307e-05 -6.7961e-06)
(6.9165e-05 1.4452e-05 -9.651e-06)
(6.9178e-05 1.2173e-05 -1.2173e-05)
(6.9165e-05 9.6511e-06 -1.4453e-05)
(6.9165e-05 6.7965e-06 -1.6308e-05)
(6.9189e-05 3.5189e-06 -1.7486e-05)
(6.9212e-05 -3.8521e-10 -1.789e-05)
(7.2142e-05 1.9144e-05 1.1255e-09)
(7.213e-05 1.8675e-05 -3.7181e-06)
(7.2123e-05 1.7377e-05 -7.2081e-06)
(7.2131e-05 1.5436e-05 -1.0316e-05)
(7.2143e-05 1.3053e-05 -1.3052e-05)
(7.2131e-05 1.0316e-05 -1.5437e-05)
(7.2123e-05 7.2086e-06 -1.7379e-05)
(7.2129e-05 3.7186e-06 -1.8676e-05)
(7.214e-05 -9.0566e-10 -1.9146e-05)
(7.4875e-05 1.8146e-05 6.4709e-10)
(7.4883e-05 1.766e-05 -3.4937e-06)
(7.4889e-05 1.641e-05 -6.7853e-06)
(7.4902e-05 1.4587e-05 -9.7494e-06)
(7.4899e-05 1.2372e-05 -1.2372e-05)
(7.4901e-05 9.7498e-06 -1.4587e-05)
(7.4888e-05 6.7858e-06 -1.641e-05)
(7.4882e-05 3.4943e-06 -1.7661e-05)
(7.4873e-05 -1.209e-10 -1.8147e-05)
(7.7486e-05 1.4748e-05 6.2917e-10)
(7.7497e-05 1.4391e-05 -2.872e-06)
(7.7516e-05 1.3383e-05 -5.5499e-06)
(7.7517e-05 1.1866e-05 -7.9198e-06)
(7.7515e-05 1.0013e-05 -1.0013e-05)
(7.7517e-05 7.9202e-06 -1.1865e-05)
(7.7515e-05 5.5504e-06 -1.3382e-05)
(7.7496e-05 2.8727e-06 -1.439e-05)
(7.7485e-05 1.1241e-10 -1.4747e-05)
(7.9894e-05 9.5919e-06 8.571e-10)
(7.9915e-05 9.4002e-06 -1.9184e-06)
(7.9947e-05 8.7522e-06 -3.6591e-06)
(7.9939e-05 7.689e-06 -5.1172e-06)
(7.9928e-05 6.4136e-06 -6.4128e-06)
(7.9939e-05 5.1177e-06 -7.6879e-06)
(7.9946e-05 3.6595e-06 -8.7507e-06)
(7.9914e-05 1.919e-06 -9.3985e-06)
(7.9893e-05 1.0184e-11 -9.5903e-06)
(8.1968e-05 3.3004e-06 9.9544e-10)
(8.1974e-05 3.2057e-06 -6.6481e-07)
(8.1996e-05 2.922e-06 -1.2285e-06)
(8.2009e-05 2.4841e-06 -1.6488e-06)
(8.2017e-05 2.0358e-06 -2.0349e-06)
(8.2009e-05 1.6492e-06 -2.4824e-06)
(8.1995e-05 1.2288e-06 -2.9196e-06)
(8.1973e-05 6.6532e-07 -3.2029e-06)
(8.1967e-05 -1.4144e-10 -3.2976e-06)
(8.3527e-05 -4.0828e-06 8.851e-10)
(8.3532e-05 -4.0449e-06 7.9731e-07)
(8.3547e-05 -3.8951e-06 1.6231e-06)
(8.3577e-05 -3.6074e-06 2.4252e-06)
(8.3591e-05 -3.1115e-06 3.1126e-06)
(8.3577e-05 -2.4249e-06 3.6097e-06)
(8.3547e-05 -1.623e-06 3.8982e-06)
(8.3531e-05 -7.9695e-07 4.0484e-06)
(8.3526e-05 -9.8125e-11 4.0862e-06)
(8.4437e-05 -1.2669e-05 5.0822e-10)
(8.4454e-05 -1.2423e-05 2.4563e-06)
(8.4488e-05 -1.1728e-05 4.864e-06)
(8.4495e-05 -1.0633e-05 7.1339e-06)
(8.4496e-05 -9.101e-06 9.1016e-06)
(8.4495e-05 -7.1338e-06 1.0635e-05)
(8.4488e-05 -4.8641e-06 1.1731e-05)
(8.4454e-05 -2.4561e-06 1.2426e-05)
(8.4437e-05 2.1254e-10 1.2673e-05)
(8.4661e-05 -2.227e-05 8.3067e-10)
(8.4702e-05 -2.1791e-05 4.3e-06)
(8.4757e-05 -2.0481e-05 8.4805e-06)
(8.474e-05 -1.8496e-05 1.2397e-05)
(8.4715e-05 -1.5804e-05 1.5804e-05)
(8.474e-05 -1.2397e-05 1.8498e-05)
(8.4757e-05 -8.4808e-06 2.0485e-05)
(8.4702e-05 -4.2999e-06 2.1795e-05)
(8.4661e-05 -1.6925e-10 2.2272e-05)
(5.8776e-05 -1.1596e-06 -5.9584e-06)
(5.491e-05 -3.7486e-07 -2.0091e-06)
(5.8731e-05 -2.2827e-06 -5.5354e-06)
(5.4874e-05 -7.586e-07 -1.8401e-06)
(5.8717e-05 -3.3277e-06 -4.9576e-06)
(5.4871e-05 -1.1598e-06 -1.6951e-06)
(5.8724e-05 -4.2315e-06 -4.231e-06)
(5.4883e-05 -1.4911e-06 -1.4905e-06)
(5.8716e-05 -4.9572e-06 -3.3269e-06)
(5.487e-05 -1.6951e-06 -1.1588e-06)
(5.873e-05 -5.5344e-06 -2.2816e-06)
(5.4874e-05 -1.8394e-06 -7.5738e-07)
(5.8776e-05 -5.9569e-06 -1.1585e-06)
(5.491e-05 -2.0078e-06 -3.7371e-07)
(5.8809e-05 -6.1214e-06 1.3202e-10)
(5.4939e-05 -2.0865e-06 2.1626e-10)
(6.2481e-05 -2.0618e-06 -1.0388e-05)
(6.2431e-05 -4.0078e-06 -9.681e-06)
(6.2412e-05 -5.7529e-06 -8.6127e-06)
(6.2409e-05 -7.2889e-06 -7.2887e-06)
(6.2412e-05 -8.6122e-06 -5.752e-06)
(6.2431e-05 -9.6797e-06 -4.0066e-06)
(6.2481e-05 -1.0387e-05 -2.0607e-06)
(6.2511e-05 -1.064e-05 2.7956e-10)
(6.5966e-05 -2.909e-06 -1.4488e-05)
(6.5924e-05 -5.6177e-06 -1.3509e-05)
(6.5912e-05 -8.003e-06 -1.1988e-05)
(6.592e-05 -1.0109e-05 -1.0109e-05)
(6.5912e-05 -1.1987e-05 -8.002e-06)
(6.5924e-05 -1.3508e-05 -5.6164e-06)
(6.5966e-05 -1.4486e-05 -2.9078e-06)
(6.5997e-05 -1.482e-05 5.3352e-10)
(6.9189e-05 -3.5197e-06 -1.7486e-05)
(6.9165e-05 -6.7974e-06 -1.6309e-05)
(6.9164e-05 -9.6521e-06 -1.4453e-05)
(6.9177e-05 -1.2174e-05 -1.2174e-05)
(6.9164e-05 -1.4452e-05 -9.651e-06)
(6.9165e-05 -1.6307e-05 -6.7959e-06)
(6.9189e-05 -1.7484e-05 -3.5184e-06)
(6.9212e-05 -1.7887e-05 4.5135e-10)
(7.2129e-05 -3.7191e-06 -1.8677e-05)
(7.2122e-05 -7.2092e-06 -1.7379e-05)
(7.213e-05 -1.0316e-05 -1.5437e-05)
(7.2142e-05 -1.3053e-05 -1.3052e-05)
(7.213e-05 -1.5437e-05 -1.0315e-05)
(7.2123e-05 -1.7377e-05 -7.2077e-06)
(7.2129e-05 -1.8675e-05 -3.7178e-06)
(7.2141e-05 -1.9144e-05 1.2384e-09)
(7.4881e-05 -3.4946e-06 -1.7661e-05)
(7.4888e-05 -6.7861e-06 -1.641e-05)
(7.4901e-05 -9.75e-06 -1.4586e-05)
(7.4898e-05 -1.2373e-05 -1.2372e-05)
(7.4901e-05 -1.4586e-05 -9.7486e-06)
(7.4888e-05 -1.6409e-05 -6.7846e-06)
(7.4882e-05 -1.7659e-05 -3.4934e-06)
(7.4874e-05 -1.8145e-05 7.2463e-10)
(7.7496e-05 -2.8728e-06 -1.439e-05)
(7.7515e-05 -5.5506e-06 -1.3382e-05)
(7.7517e-05 -7.9203e-06 -1.1865e-05)
(7.7515e-05 -1.0013e-05 -1.0012e-05)
(7.7517e-05 -1.1865e-05 -7.9188e-06)
(7.7516e-05 -1.3381e-05 -5.5491e-06)
(7.7496e-05 -1.439e-05 -2.8716e-06)
(7.7486e-05 -1.4747e-05 7.2883e-10)
(7.9914e-05 -1.9191e-06 -9.3986e-06)
(7.9946e-05 -3.6597e-06 -8.7507e-06)
(7.9939e-05 -5.1178e-06 -7.6875e-06)
(7.9927e-05 -6.4132e-06 -6.412e-06)
(7.9939e-05 -7.688e-06 -5.1162e-06)
(7.9946e-05 -8.7507e-06 -3.6582e-06)
(7.9914e-05 -9.3987e-06 -1.9179e-06)
(7.9894e-05 -9.5907e-06 1.0006e-09)
(8.1973e-05 -6.6547e-07 -3.2029e-06)
(8.1995e-05 -1.229e-06 -2.9195e-06)
(8.2008e-05 -1.6493e-06 -2.482e-06)
(8.2017e-05 -2.0355e-06 -2.0341e-06)
(8.2009e-05 -2.483e-06 -1.6478e-06)
(8.1995e-05 -2.9203e-06 -1.2276e-06)
(8.1974e-05 -3.204e-06 -6.642e-07)
(8.1967e-05 -3.299e-06 1.2258e-09)
(8.3531e-05 7.9677e-07 4.0485e-06)
(8.3546e-05 1.6229e-06 3.8986e-06)
(8.3576e-05 2.4251e-06 3.6103e-06)
(8.359e-05 3.1122e-06 3.1135e-06)
(8.3577e-05 3.6089e-06 2.4264e-06)
(8.3547e-05 3.897e-06 1.6242e-06)
(8.3532e-05 4.0466e-06 7.9806e-07)
(8.3527e-05 4.084e-06 1.1706e-09)
(8.4454e-05 2.4559e-06 1.2427e-05)
(8.4487e-05 4.8642e-06 1.1732e-05)
(8.4495e-05 7.1344e-06 1.0636e-05)
(8.4495e-05 9.1022e-06 9.1032e-06)
(8.4495e-05 1.0634e-05 7.1357e-06)
(8.4488e-05 1.173e-05 4.8655e-06)
(8.4454e-05 1.2424e-05 2.4572e-06)
(8.4437e-05 1.267e-05 1.4488e-09)
(8.4701e-05 4.2997e-06 2.1795e-05)
(8.4757e-05 8.4809e-06 2.0486e-05)
(8.474e-05 1.2398e-05 1.85e-05)
(8.4715e-05 1.5805e-05 1.5806e-05)
(8.474e-05 1.8498e-05 1.2399e-05)
(8.4757e-05 2.0484e-05 8.482e-06)
(8.4701e-05 2.1793e-05 4.3007e-06)
(8.4661e-05 2.227e-05 9.4144e-10)
(5.8776e-05 -5.9564e-06 1.1589e-06)
(5.491e-05 -2.0071e-06 3.74e-07)
(5.8731e-05 -5.5334e-06 2.2816e-06)
(5.4875e-05 -1.8381e-06 7.573e-07)
(5.8717e-05 -4.956e-06 3.3264e-06)
(5.4871e-05 -1.6936e-06 1.1583e-06)
(5.8725e-05 -4.2303e-06 4.2302e-06)
(5.4884e-05 -1.4896e-06 1.4897e-06)
(5.8718e-05 -3.3268e-06 4.9566e-06)
(5.4872e-05 -1.1586e-06 1.6941e-06)
(5.8732e-05 -2.2821e-06 5.5345e-06)
(5.4875e-05 -7.5782e-07 1.839e-06)
(5.8777e-05 -1.1593e-06 5.9575e-06)
(5.4911e-05 -3.7443e-07 2.0079e-06)
(5.881e-05 -6.258e-10 6.1222e-06)
(5.494e-05 -5.3191e-10 2.0868e-06)
(6.2481e-05 -1.0386e-05 2.0612e-06)
(6.2431e-05 -9.6791e-06 4.0068e-06)
(6.2413e-05 -8.6113e-06 5.7518e-06)
(6.241e-05 -7.288e-06 7.2881e-06)
(6.2413e-05 -5.752e-06 8.6119e-06)
(6.2432e-05 -4.0072e-06 9.6801e-06)
(6.2482e-05 -2.0615e-06 1.0388e-05)
(6.2512e-05 -5.1824e-10 1.0642e-05)
(6.5967e-05 -1.4485e-05 2.9085e-06)
(6.5925e-05 -1.3507e-05 5.6169e-06)
(6.5913e-05 -1.1986e-05 8.0022e-06)
(6.5921e-05 -1.0108e-05 1.0109e-05)
(6.5914e-05 -8.0022e-06 1.1987e-05)
(6.5925e-05 -5.6171e-06 1.3508e-05)
(6.5968e-05 -2.9087e-06 1.4487e-05)
(6.5998e-05 -3.5281e-10 1.4822e-05)
(6.919e-05 -1.7484e-05 3.5194e-06)
(6.9166e-05 -1.6307e-05 6.7968e-06)
(6.9165e-05 -1.4452e-05 9.6515e-06)
(6.9178e-05 -1.2173e-05 1.2174e-05)
(6.9165e-05 -9.6513e-06 1.4452e-05)
(6.9166e-05 -6.7968e-06 1.6308e-05)
(6.919e-05 -3.5194e-06 1.7485e-05)
(6.9213e-05 -5.3724e-10 1.7889e-05)
(7.213e-05 -1.8674e-05 3.719e-06)
(7.2123e-05 -1.7377e-05 7.2088e-06)
(7.2131e-05 -1.5436e-05 1.0316e-05)
(7.2143e-05 -1.3051e-05 1.3053e-05)
(7.2131e-05 -1.0315e-05 1.5436e-05)
(7.2124e-05 -7.2085e-06 1.7378e-05)
(7.213e-05 -3.7189e-06 1.8676e-05)
(7.2142e-05 -1.1713e-09 1.9146e-05)
(7.4882e-05 -1.7659e-05 3.4948e-06)
(7.4889e-05 -1.6409e-05 6.7859e-06)
(7.4902e-05 -1.4585e-05 9.7495e-06)
(7.4899e-05 -1.2371e-05 1.2372e-05)
(7.4902e-05 -9.7488e-06 1.4586e-05)
(7.4889e-05 -6.7854e-06 1.6409e-05)
(7.4883e-05 -3.4945e-06 1.766e-05)
(7.4874e-05 -4.7338e-10 1.8146e-05)
(7.7496e-05 -1.439e-05 2.8734e-06)
(7.7516e-05 -1.3381e-05 5.5508e-06)
(7.7518e-05 -1.1864e-05 7.9201e-06)
(7.7516e-05 -1.0012e-05 1.0013e-05)
(7.7518e-05 -7.9193e-06 1.1865e-05)
(7.7517e-05 -5.5501e-06 1.3382e-05)
(7.7497e-05 -2.8728e-06 1.439e-05)
(7.7486e-05 -5.3145e-10 1.4748e-05)
(7.9914e-05 -9.3988e-06 1.9199e-06)
(7.9947e-05 -8.7507e-06 3.6602e-06)
(7.9939e-05 -7.6876e-06 5.118e-06)
(7.9928e-05 -6.4126e-06 6.4133e-06)
(7.994e-05 -5.1172e-06 7.6884e-06)
(7.9947e-05 -3.6595e-06 8.7515e-06)
(7.9915e-05 -1.9192e-06 9.3997e-06)
(7.9894e-05 -3.1034e-10 9.5918e-06)
(8.1974e-05 -3.2042e-06 6.6648e-07)
(8.1996e-05 -2.9206e-06 1.2298e-06)
(8.2009e-05 -2.4831e-06 1.65e-06)
(8.2017e-05 -2.0355e-06 2.036e-06)
(8.2009e-05 -1.6493e-06 2.4839e-06)
(8.1996e-05 -1.2291e-06 2.9215e-06)
(8.1974e-05 -6.6568e-07 3.2054e-06)
(8.1968e-05 -3.3824e-10 3.3004e-06)
(8.3532e-05 4.0463e-06 -7.9572e-07)
(8.3547e-05 3.8965e-06 -1.6219e-06)
(8.3577e-05 3.6084e-06 -2.4241e-06)
(8.359e-05 3.1117e-06 -3.1111e-06)
(8.3577e-05 2.4246e-06 -3.6077e-06)
(8.3547e-05 1.6224e-06 -3.8956e-06)
(8.3532e-05 7.9648e-07 -4.0451e-06)
(8.3527e-05 -2.1816e-10 -4.0827e-06)
(8.4454e-05 1.2424e-05 -2.455e-06)
(8.4487e-05 1.1729e-05 -4.8633e-06)
(8.4495e-05 1.0634e-05 -7.1334e-06)
(8.4495e-05 9.1016e-06 -9.1007e-06)
(8.4495e-05 7.1337e-06 -1.0633e-05)
(8.4488e-05 4.8636e-06 -1.1729e-05)
(8.4454e-05 2.4556e-06 -1.2423e-05)
(8.4437e-05 8.3206e-11 -1.2669e-05)
(8.4701e-05 2.1793e-05 -4.2989e-06)
(8.4757e-05 2.0483e-05 -8.4802e-06)
(8.474e-05 1.8498e-05 -1.2397e-05)
(8.4714e-05 1.5804e-05 -1.5804e-05)
(8.474e-05 1.2397e-05 -1.8497e-05)
(8.4757e-05 8.4802e-06 -2.0483e-05)
(8.4701e-05 4.2993e-06 -2.1792e-05)
(8.4661e-05 -3.1121e-10 -2.227e-05)
(5.8777e-05 1.1581e-06 5.9571e-06)
(5.4911e-05 3.733e-07 2.0076e-06)
(5.8732e-05 2.2807e-06 5.5338e-06)
(5.4875e-05 7.5655e-07 1.8385e-06)
(5.8718e-05 3.3251e-06 4.9559e-06)
(5.4871e-05 1.1572e-06 1.6937e-06)
(5.8725e-05 4.2284e-06 4.2297e-06)
(5.4884e-05 1.4882e-06 1.4894e-06)
(5.8718e-05 4.9544e-06 3.3261e-06)
(5.4871e-05 1.6924e-06 1.1582e-06)
(5.8731e-05 5.532e-06 2.2814e-06)
(5.4875e-05 1.8372e-06 7.5741e-07)
(5.8776e-05 5.9549e-06 1.1588e-06)
(5.4911e-05 2.0062e-06 3.7417e-07)
(6.2482e-05 2.0604e-06 1.0387e-05)
(6.2432e-05 4.0058e-06 9.6795e-06)
(6.2413e-05 5.7504e-06 8.6111e-06)
(6.241e-05 7.2862e-06 7.2874e-06)
(6.2413e-05 8.6096e-06 5.7513e-06)
(6.2432e-05 9.6774e-06 4.0065e-06)
(6.2482e-05 1.0385e-05 2.061e-06)
(6.5968e-05 2.9076e-06 1.4487e-05)
(6.5925e-05 5.6158e-06 1.3508e-05)
(6.5914e-05 8.0007e-06 1.1986e-05)
(6.5921e-05 1.0107e-05 1.0108e-05)
(6.5914e-05 1.1985e-05 8.0017e-06)
(6.5925e-05 1.3506e-05 5.6166e-06)
(6.5967e-05 1.4484e-05 2.9083e-06)
(6.919e-05 3.5184e-06 1.7485e-05)
(6.9166e-05 6.7957e-06 1.6307e-05)
(6.9166e-05 9.65e-06 1.4452e-05)
(6.9178e-05 1.2172e-05 1.2173e-05)
(6.9165e-05 1.4451e-05 9.6512e-06)
(6.9166e-05 1.6306e-05 6.7966e-06)
(6.919e-05 1.7483e-05 3.5193e-06)
(7.213e-05 3.7179e-06 1.8676e-05)
(7.2124e-05 7.2076e-06 1.7378e-05)
(7.2132e-05 1.0315e-05 1.5436e-05)
(7.2144e-05 1.3052e-05 1.3052e-05)
(7.2132e-05 1.5435e-05 1.0316e-05)
(7.2124e-05 1.7377e-05 7.2088e-06)
(7.213e-05 1.8674e-05 3.719e-06)
(7.4883e-05 3.4936e-06 1.766e-05)
(7.4889e-05 6.7848e-06 1.641e-05)
(7.4902e-05 9.7486e-06 1.4587e-05)
(7.4899e-05 1.2371e-05 1.2372e-05)
(7.4902e-05 1.4586e-05 9.7498e-06)
(7.4889e-05 1.6409e-05 6.7861e-06)
(7.4883e-05 1.7659e-05 3.4949e-06)
(7.7497e-05 2.8721e-06 1.4391e-05)
(7.7517e-05 5.5497e-06 1.3383e-05)
(7.7518e-05 7.9194e-06 1.1866e-05)
(7.7516e-05 1.0012e-05 1.0013e-05)
(7.7518e-05 1.1865e-05 7.9206e-06)
(7.7517e-05 1.3382e-05 5.551e-06)
(7.7497e-05 1.439e-05 2.8734e-06)
(7.9915e-05 1.9187e-06 9.4001e-06)
(7.9947e-05 3.6592e-06 8.7522e-06)
(7.994e-05 5.1174e-06 7.6894e-06)
(7.9929e-05 6.4132e-06 6.4142e-06)
(7.994e-05 7.6884e-06 5.1186e-06)
(7.9948e-05 8.7515e-06 3.6604e-06)
(7.9915e-05 9.3997e-06 1.92e-06)
(8.1974e-05 6.6522e-07 3.2055e-06)
(8.1996e-05 1.2288e-06 2.9219e-06)
(8.201e-05 1.6493e-06 2.4845e-06)
(8.2018e-05 2.0357e-06 2.0369e-06)
(8.201e-05 2.4837e-06 1.6506e-06)
(8.1996e-05 2.9213e-06 1.2301e-06)
(8.1974e-05 3.2052e-06 6.6651e-07)
(8.3532e-05 -7.9699e-07 -4.0453e-06)
(8.3547e-05 -1.623e-06 -3.8957e-06)
(8.3577e-05 -2.4249e-06 -3.6075e-06)
(8.3591e-05 -3.1117e-06 -3.1106e-06)
(8.3577e-05 -3.6081e-06 -2.4235e-06)
(8.3547e-05 -3.896e-06 -1.6215e-06)
(8.3532e-05 -4.0456e-06 -7.9565e-07)
(8.4454e-05 -2.4562e-06 -1.2424e-05)
(8.4488e-05 -4.8645e-06 -1.1729e-05)
(8.4495e-05 -7.1344e-06 -1.0634e-05)
(8.4496e-05 -9.102e-06 -9.1005e-06)
(8.4495e-05 -1.0634e-05 -7.133e-06)
(8.4488e-05 -1.1729e-05 -4.8629e-06)
(8.4454e-05 -1.2424e-05 -2.4549e-06)
(8.4702e-05 -4.3002e-06 -2.1793e-05)
(8.4757e-05 -8.4814e-06 -2.0484e-05)
(8.474e-05 -1.2398e-05 -1.8498e-05)
(8.4715e-05 -1.5805e-05 -1.5804e-05)
(8.474e-05 -1.8498e-05 -1.2397e-05)
(8.4757e-05 -2.0483e-05 -8.4799e-06)
(8.4702e-05 -2.1793e-05 -4.2987e-06)
)
;
    }
    procBoundary1to0
    {
        type            processor;
    }
    procBoundary1to2
    {
        type            processor;
    }
}


// ************************************************************************* //
