/*--------------------------------*- C++ -*----------------------------------*\
| =========                 |                                                 |
| \\      /  F ield         | OpenFOAM: The Open Source CFD Toolbox           |
|  \\    /   O peration     | Version:  4.1                                   |
|   \\  /    A nd           | Web:      www.OpenFOAM.org                      |
|    \\/     M anipulation  |                                                 |
\*---------------------------------------------------------------------------*/
FoamFile
{
    version     2.0;
    format      ascii;
    class       surfaceScalarField;
    location    "0.0013";
    object      phi;
}
// * * * * * * * * * * * * * * * * * * * * * * * * * * * * * * * * * * * * * //

dimensions      [0 3 -1 0 0 0 0];

internalField   nonuniform List<scalar> 
17536
(
-2.8308e-12
1.6362e-14
-9.8709e-14
9.469e-14
-7.046e-15
-4.8776e-12
3.7869e-14
-2.9125e-13
2.8112e-13
4.637e-15
-6.994e-12
1.3059e-13
-4.4392e-13
4.1661e-13
-7.4601e-14
-9.409e-12
2.4711e-13
-5.3876e-13
5.0546e-13
-1.9836e-13
-1.2457e-11
3.8493e-13
-5.6598e-13
5.2422e-13
-3.3141e-13
-1.6431e-11
5.1639e-13
-5.1516e-13
4.6547e-13
-4.7977e-13
-2.1567e-11
6.851e-13
-3.7134e-13
2.8864e-13
-6.7041e-13
-2.8053e-11
6.3221e-13
-2.7687e-13
1.36e-13
-6.6016e-13
-3.6123e-11
5.791e-13
-9.5837e-14
-7.8814e-14
-6.6189e-13
-4.5989e-11
6.3166e-13
7.5751e-14
-3.4639e-13
-7.4263e-13
-5.7963e-11
6.8652e-13
2.5994e-13
-6.1017e-13
-8.817e-13
-7.2463e-11
7.5454e-13
4.8389e-13
-9.6279e-13
-9.886e-13
-8.9813e-11
7.5139e-13
6.3364e-13
-1.1914e-12
-1.0252e-12
-1.1002e-10
6.5112e-13
6.1115e-13
-1.1526e-12
-9.6092e-13
-1.3275e-10
6.0478e-13
6.2138e-13
-1.0625e-12
-1.0908e-12
-1.5813e-10
5.472e-13
4.9079e-13
-1.0203e-12
-1.03e-12
-1.8677e-10
8.4518e-13
7.8746e-13
-1.5073e-12
-1.3809e-12
-2.191e-10
1.2825e-12
1.1229e-12
-1.8784e-12
-2.0032e-12
-2.54e-10
1.6273e-12
1.367e-12
-2.1451e-12
-2.4883e-12
-2.893e-10
2.4525e-12
2.1487e-12
-2.9421e-12
-3.4646e-12
-3.2407e-10
4.2137e-12
3.8487e-12
-4.9417e-12
-5.5671e-12
-3.6048e-10
6.862e-12
6.3685e-12
-8.2249e-12
-8.8124e-12
-4.0173e-10
9.7367e-12
9.208e-12
-1.1901e-11
-1.242e-11
-4.4625e-10
1.2195e-11
1.1845e-11
-1.525e-11
-1.5547e-11
-4.8692e-10
1.6074e-11
1.5951e-11
-2.0033e-11
-2.0358e-11
-5.2052e-10
2.3178e-11
2.3246e-11
-2.9007e-11
-2.8963e-11
-5.5916e-10
3.4895e-11
3.5143e-11
-4.3922e-11
-4.3581e-11
-6.2579e-10
4.9987e-11
5.0438e-11
-6.3873e-11
-6.3358e-11
-7.3516e-10
6.4854e-11
6.5521e-11
-8.4106e-11
-8.3377e-11
-8.7835e-10
8.0928e-11
8.1753e-11
-1.0509e-10
-1.0426e-10
-1.0387e-09
1.0755e-10
1.0845e-10
-1.3789e-10
-1.3737e-10
-1.2365e-09
1.5758e-10
1.5847e-10
-2.0093e-10
-2.0044e-10
-1.5593e-09
2.353e-10
2.3625e-10
-3.02e-10
-3.0203e-10
-2.1214e-09
3.3217e-10
3.3321e-10
-4.3461e-10
-4.3438e-10
-2.9879e-09
4.2875e-10
4.3004e-10
-5.7064e-10
-5.7061e-10
-4.1238e-09
5.304e-10
5.3209e-10
-7.0974e-10
-7.1197e-10
-5.4616e-09
6.7109e-10
6.7289e-10
-8.9645e-10
-8.9408e-10
-7.0655e-09
8.8484e-10
8.8743e-10
-1.1749e-09
-1.1729e-09
-9.2348e-09
1.1838e-09
1.1874e-09
-1.5777e-09
-1.576e-09
-1.2381e-08
1.5526e-09
1.5574e-09
-2.1141e-09
-2.1114e-09
-1.6813e-08
1.8931e-09
1.8994e-09
-2.6622e-09
-2.6597e-09
-2.2485e-08
2.1013e-09
2.1088e-09
-3.071e-09
-3.0669e-09
-2.8914e-08
2.1083e-09
2.1166e-09
-3.2188e-09
-3.2146e-09
-3.5373e-08
1.8835e-09
1.8918e-09
-3.0288e-09
-3.0236e-09
-4.1127e-08
1.5078e-09
1.5152e-09
-2.5655e-09
-2.5625e-09
-4.5532e-08
1.2284e-09
1.234e-09
-2.1302e-09
-2.1279e-09
-4.8086e-08
1.2138e-09
1.2172e-09
-1.9511e-09
-1.9503e-09
5.4294e-10
5.4469e-10
-8.3789e-10
-8.3746e-10
-2.7639e-12
1.5414e-14
-6.6743e-14
6.9714e-14
-4.8441e-12
3.4965e-14
-1.9682e-13
2.0866e-13
-7.0256e-12
1.0208e-13
-2.9142e-13
3.1044e-13
-9.5345e-12
1.7268e-13
-3.4687e-13
3.8074e-13
-1.265e-11
2.6573e-13
-3.6706e-13
3.7296e-13
-1.6699e-11
3.5244e-13
-3.0649e-13
2.9837e-13
-2.1874e-11
4.2932e-13
-1.6828e-13
1.1755e-13
-2.8442e-11
3.9103e-13
-4.7176e-14
-1.1115e-13
-3.6585e-11
3.7224e-13
1.0073e-13
-4.1463e-13
-4.6517e-11
3.6685e-13
2.595e-13
-6.646e-13
-5.8584e-11
3.2854e-13
3.504e-13
-7.9776e-13
-7.3168e-11
3.0373e-13
4.8114e-13
-9.7127e-13
-9.0514e-11
2.0627e-13
5.5599e-13
-1.0873e-12
-1.1073e-10
1.9641e-13
5.6652e-13
-1.142e-12
-1.334e-10
1.4821e-13
6.2627e-13
-1.3635e-12
-1.5885e-10
1.4527e-13
7.4849e-13
-1.5501e-12
-1.8749e-10
4.1951e-13
1.038e-12
-2.0521e-12
-2.1958e-10
8.4733e-13
1.4341e-12
-2.709e-12
-2.5413e-10
1.3186e-12
1.9214e-12
-3.5883e-12
-2.8931e-10
2.1887e-12
2.9974e-12
-5.1042e-12
-3.2443e-10
3.6928e-12
4.7978e-12
-7.6217e-12
-3.6132e-10
5.8478e-12
7.1678e-12
-1.129e-11
-4.0231e-10
8.4652e-12
1.0123e-11
-1.6308e-11
-4.4599e-10
1.1189e-11
1.361e-11
-2.234e-11
-4.8657e-10
1.4683e-11
1.8816e-11
-3.0089e-11
-5.2276e-10
2.0275e-11
2.6838e-11
-4.1162e-11
-5.6585e-10
2.9306e-11
3.8561e-11
-5.8301e-11
-6.3572e-10
4.1928e-11
5.4059e-11
-8.3773e-11
-7.4515e-10
5.6756e-11
7.2599e-11
-1.1694e-10
-8.8831e-10
7.388e-11
9.6205e-11
-1.5711e-10
-1.056e-09
9.8144e-11
1.3153e-10
-2.1047e-10
-1.2729e-09
1.3907e-10
1.8808e-10
-2.9433e-10
-1.6196e-09
2.0339e-10
2.7128e-10
-4.2644e-10
-2.1977e-09
2.8997e-10
3.8068e-10
-6.1674e-10
-3.0649e-09
3.8787e-10
5.0861e-10
-8.5232e-10
-4.1992e-09
4.9447e-10
6.5863e-10
-1.1184e-09
-5.5625e-09
6.2577e-10
8.5092e-10
-1.4276e-09
-7.2345e-09
8.1014e-10
1.116e-09
-1.8406e-09
-9.4928e-09
1.0714e-09
1.4767e-09
-2.4351e-09
-1.2704e-08
1.4107e-09
1.9403e-09
-3.2752e-09
-1.7127e-08
1.7604e-09
2.4408e-09
-4.2757e-09
-2.27e-08
2.0213e-09
2.8708e-09
-5.2232e-09
-2.8975e-08
2.1087e-09
3.1179e-09
-5.8653e-09
-3.5265e-08
1.985e-09
3.0934e-09
-6.0038e-09
-4.0861e-08
1.7004e-09
2.8103e-09
-5.5975e-09
-4.5119e-08
1.4052e-09
2.4115e-09
-4.7939e-09
-4.756e-08
1.2022e-09
2.0069e-09
-3.7428e-09
5.463e-10
8.7695e-10
-1.6175e-09
-2.7378e-12
3.6527e-15
-5.9286e-14
6.2054e-14
-4.8462e-12
8.6572e-15
-1.8054e-13
1.8276e-13
-7.0707e-12
3.4274e-14
-2.6335e-13
2.6196e-13
-9.6344e-12
5.6841e-14
-3.1633e-13
3.04e-13
-1.2807e-11
9.7004e-14
-3.3206e-13
2.6681e-13
-1.6901e-11
1.2736e-13
-2.7156e-13
1.5878e-13
-2.2122e-11
1.3458e-13
-1.2285e-13
-8.1617e-14
-2.8731e-11
9.2117e-14
-8.6032e-15
-3.1252e-13
-3.691e-11
5.485e-14
1.5989e-13
-6.0035e-13
-4.6887e-11
3.4842e-14
3.3941e-13
-9.0854e-13
-5.9002e-11
-5.5165e-15
4.5895e-13
-1.1457e-12
-7.36e-11
-4.3568e-14
6.2212e-13
-1.4299e-12
-9.0984e-11
-9.9565e-14
7.4414e-13
-1.6466e-12
-1.1111e-10
-1.8157e-13
7.3997e-13
-1.6151e-12
-1.3382e-10
-2.0596e-13
7.8109e-13
-1.7252e-12
-1.5929e-10
-1.1334e-13
1.0324e-12
-2.1164e-12
-1.8793e-10
1.0418e-13
1.3831e-12
-2.6422e-12
-2.1988e-10
4.1862e-13
1.8189e-12
-3.3006e-12
-2.5425e-10
7.5039e-13
2.4055e-12
-4.1019e-12
-2.894e-10
1.2327e-12
3.5488e-12
-5.4561e-12
-3.2476e-10
1.9999e-12
5.3516e-12
-7.7664e-12
-3.6198e-10
3.1428e-12
7.833e-12
-1.1371e-11
-4.028e-10
4.563e-12
1.0984e-11
-1.6329e-11
-4.4606e-10
6.1533e-12
1.4961e-11
-2.2147e-11
-4.8683e-10
8.1613e-12
2.0775e-11
-3.0377e-11
-5.2471e-10
1.1275e-11
2.9492e-11
-4.2506e-11
-5.7046e-10
1.6117e-11
4.2e-11
-6.0858e-11
-6.4227e-10
2.2906e-11
5.8763e-11
-8.6849e-11
-7.5203e-10
3.0921e-11
7.9559e-11
-1.1892e-10
-8.9591e-10
4.0234e-11
1.0682e-10
-1.5853e-10
-1.0689e-09
5.3303e-11
1.4688e-10
-2.1432e-10
-1.2978e-09
7.5109e-11
2.0896e-10
-3.0292e-10
-1.659e-09
1.0932e-10
2.9942e-10
-4.3864e-10
-2.2468e-09
1.5514e-10
4.1972e-10
-6.2639e-10
-3.1157e-09
2.074e-10
5.6487e-10
-8.5405e-10
-4.2517e-09
2.6486e-10
7.3817e-10
-1.1165e-09
-5.633e-09
3.3478e-10
9.5707e-10
-1.4331e-09
-7.3477e-09
4.3298e-10
1.2527e-09
-1.8613e-09
-9.66e-09
5.7117e-10
1.652e-09
-2.4621e-09
-1.2909e-08
7.4826e-10
2.1672e-09
-3.2794e-09
-1.7326e-08
9.2815e-10
2.7387e-09
-4.2302e-09
-2.2838e-08
1.0577e-09
3.2519e-09
-5.1239e-09
-2.9016e-08
1.0928e-09
3.5751e-09
-5.7311e-09
-3.5201e-08
1.0194e-09
3.6002e-09
-5.8591e-09
-4.0694e-08
8.6816e-10
3.3185e-09
-5.4594e-09
-4.4861e-08
7.131e-10
2.8519e-09
-4.6751e-09
-4.7228e-08
6.043e-10
2.3095e-09
-3.6692e-09
2.7514e-10
1.0164e-09
-1.5961e-09
-2.7088e-12
-9.4418e-15
-5.6375e-14
5.3093e-14
-4.8367e-12
-2.5235e-14
-1.7458e-13
1.6177e-13
-7.0881e-12
-4.382e-14
-2.4954e-13
2.1982e-13
-9.6781e-12
-7.27e-14
-3.0162e-13
2.4314e-13
-1.2894e-11
-9.1635e-14
-3.1851e-13
2.144e-13
-1.7016e-11
-1.3408e-13
-2.5423e-13
8.812e-14
-2.2261e-11
-2.0017e-13
-1.1143e-13
-1.5743e-13
-2.8891e-11
-2.809e-13
-3.0013e-15
-3.5636e-13
-3.7088e-11
-3.5651e-13
1.5448e-13
-6.1541e-13
-4.7085e-11
-4.256e-13
3.1746e-13
-8.6454e-13
-5.9227e-11
-4.5885e-13
4.4199e-13
-1.0933e-12
-7.3831e-11
-5.0154e-13
6.2653e-13
-1.4025e-12
-9.1159e-11
-4.982e-13
7.6322e-13
-1.6833e-12
-1.1126e-10
-5.7459e-13
7.8998e-13
-1.7047e-12
-1.3401e-10
-5.6466e-13
8.668e-13
-1.8077e-12
-1.5948e-10
-3.7655e-13
1.1127e-12
-2.2451e-12
-1.8812e-10
-2.4517e-13
1.4783e-12
-2.7578e-12
-2.2001e-10
-6.8642e-14
1.9709e-12
-3.4938e-12
-2.543e-10
7.2994e-14
2.5921e-12
-4.3354e-12
-2.8943e-10
1.5199e-13
3.7479e-12
-5.8034e-12
-3.249e-10
1.7926e-13
5.6036e-12
-8.3163e-12
-3.6224e-10
2.2106e-13
8.2368e-12
-1.2199e-11
-4.03e-10
2.4691e-13
1.1432e-11
-1.7293e-11
-4.4607e-10
2.9406e-13
1.5591e-11
-2.3299e-11
-4.8696e-10
3.9516e-13
2.1611e-11
-3.1838e-11
-5.2568e-10
5.0837e-13
3.0588e-11
-4.4423e-11
-5.7271e-10
5.9842e-13
4.3449e-11
-6.3607e-11
-6.4546e-10
6.1481e-13
6.0695e-11
-9.0511e-11
-7.5542e-10
5.4633e-13
8.2389e-11
-1.2407e-10
-8.9978e-10
4.3335e-13
1.112e-10
-1.6617e-10
-1.0755e-09
3.1548e-13
1.5346e-10
-2.2576e-10
-1.3101e-09
2.9833e-13
2.1813e-10
-3.1919e-10
-1.6784e-09
3.7841e-13
3.1174e-10
-4.6084e-10
-2.271e-09
4.5556e-13
4.367e-10
-6.5712e-10
-3.141e-09
4.4659e-13
5.893e-10
-8.9711e-10
-4.2785e-09
2.8849e-13
7.7297e-10
-1.1758e-09
-5.669e-09
1.568e-13
1.0048e-09
-1.5145e-09
-7.4049e-09
6.6055e-14
1.3149e-09
-1.9669e-09
-9.7439e-09
9.6399e-14
1.7322e-09
-2.5977e-09
-1.3012e-08
1.3682e-13
2.2712e-09
-3.4528e-09
-1.7427e-08
5.2147e-14
2.8767e-09
-4.4552e-09
-2.2912e-08
-3.8899e-14
3.4344e-09
-5.4168e-09
-2.9042e-08
-6.5746e-14
3.8048e-09
-6.0987e-09
-3.5172e-08
1.1989e-14
3.8684e-09
-6.2837e-09
-4.0611e-08
2.9897e-14
3.6022e-09
-5.8998e-09
-4.4728e-08
2.3493e-14
3.1094e-09
-5.0704e-09
-4.7057e-08
6.0791e-14
2.4919e-09
-3.9525e-09
4.2228e-15
1.1071e-09
-1.7398e-09
-2.673e-12
-2.6909e-14
-5.7489e-14
5.7139e-14
-4.8131e-12
-7.2091e-14
-1.795e-13
1.7677e-13
-7.0774e-12
-1.2513e-13
-2.4935e-13
2.1787e-13
-9.6819e-12
-2.0285e-13
-2.985e-13
2.3778e-13
-1.2905e-11
-2.9195e-13
-3.1714e-13
2.1608e-13
-1.7034e-11
-4.0485e-13
-2.5824e-13
9.6958e-14
-2.2285e-11
-5.6293e-13
-1.2991e-13
-1.1151e-13
-2.892e-11
-7.0081e-13
-4.5907e-14
-2.5803e-13
-3.7118e-11
-8.1917e-13
9.556e-14
-4.881e-13
-4.711e-11
-9.1782e-13
2.4046e-13
-7.2889e-13
-5.9247e-11
-9.628e-13
3.3292e-13
-8.9166e-13
-7.3838e-11
-9.919e-13
4.9651e-13
-1.1931e-12
-9.1159e-11
-9.7417e-13
6.0251e-13
-1.382e-12
-1.1124e-10
-9.6127e-13
6.6769e-13
-1.5411e-12
-1.3396e-10
-8.6022e-13
7.7539e-13
-1.7286e-12
-1.5942e-10
-6.9412e-13
1.0525e-12
-2.0824e-12
-1.8805e-10
-6.2528e-13
1.3457e-12
-2.5507e-12
-2.1995e-10
-6.1725e-13
1.839e-12
-3.2663e-12
-2.5425e-10
-7.3572e-13
2.4721e-12
-4.0633e-12
-2.8939e-10
-1.0591e-12
3.6716e-12
-5.5934e-12
-3.2487e-10
-1.6904e-12
5.6045e-12
-8.289e-12
-3.6221e-10
-2.6966e-12
8.3098e-12
-1.2304e-11
-4.0297e-10
-4.029e-12
1.1513e-11
-1.7454e-11
-4.4603e-10
-5.5504e-12
1.5684e-11
-2.3452e-11
-4.8693e-10
-7.3968e-12
2.1656e-11
-3.1892e-11
-5.2566e-10
-1.0289e-11
3.0571e-11
-4.4399e-11
-5.727e-10
-1.5028e-11
4.3357e-11
-6.3411e-11
-6.4547e-10
-2.1784e-11
6.056e-11
-9.0262e-11
-7.5543e-10
-2.9897e-11
8.2257e-11
-1.2386e-10
-8.9979e-10
-3.9426e-11
1.1109e-10
-1.66e-10
-1.0755e-09
-5.2751e-11
1.5338e-10
-2.2562e-10
-1.3101e-09
-7.4719e-11
2.1803e-10
-3.1891e-10
-1.6784e-09
-1.0893e-10
3.1156e-10
-4.603e-10
-2.2709e-09
-1.5472e-10
4.3647e-10
-6.564e-10
-3.141e-09
-2.0705e-10
5.8905e-10
-8.9633e-10
-4.2785e-09
-2.6484e-10
7.7277e-10
-1.1751e-09
-5.669e-09
-3.3484e-10
1.0047e-09
-1.5141e-09
-7.4048e-09
-4.3277e-10
1.3149e-09
-1.9671e-09
-9.7439e-09
-5.7082e-10
1.7322e-09
-2.5979e-09
-1.3012e-08
-7.4787e-10
2.2712e-09
-3.4529e-09
-1.7427e-08
-9.2784e-10
2.8767e-09
-4.4554e-09
-2.2912e-08
-1.0574e-09
3.4345e-09
-5.4173e-09
-2.9042e-08
-1.0925e-09
3.8049e-09
-6.0993e-09
-3.5172e-08
-1.0192e-09
3.8684e-09
-6.284e-09
-4.0611e-08
-8.6807e-10
3.6022e-09
-5.9e-09
-4.4728e-08
-7.1312e-10
3.1094e-09
-5.0704e-09
-4.7057e-08
-6.0432e-10
2.4918e-09
-3.9523e-09
-2.7518e-10
1.107e-09
-1.7397e-09
-2.6316e-12
-3.9429e-14
-6.1841e-14
6.0882e-14
-4.7724e-12
-1.1212e-13
-1.8704e-13
1.9246e-13
-7.0296e-12
-1.9526e-13
-2.6398e-13
2.485e-13
-9.6306e-12
-3.0569e-13
-3.0506e-13
2.7075e-13
-1.284e-11
-4.5672e-13
-3.1529e-13
2.4444e-13
-1.6958e-11
-6.2282e-13
-2.6642e-13
1.4155e-13
-2.2203e-11
-8.8907e-13
-1.5002e-13
-1.2439e-14
-2.882e-11
-1.0573e-12
-1.0144e-13
-1.3889e-13
-3.6997e-11
-1.2438e-12
2.737e-14
-3.0929e-13
-4.6962e-11
-1.4052e-12
1.3017e-13
-4.5833e-13
-5.9064e-11
-1.4971e-12
2.1085e-13
-5.7083e-13
-7.3626e-11
-1.5629e-12
3.303e-13
-7.7297e-13
-9.0937e-11
-1.5412e-12
3.7763e-13
-8.9113e-13
-1.1099e-10
-1.4104e-12
4.6616e-13
-1.1301e-12
-1.3368e-10
-1.2929e-12
5.9435e-13
-1.2697e-12
-1.5911e-10
-1.1457e-12
8.4048e-13
-1.6067e-12
-1.8774e-10
-1.1092e-12
1.0765e-12
-2.0398e-12
-2.1972e-10
-1.3048e-12
1.5602e-12
-2.682e-12
-2.5411e-10
-1.6077e-12
2.1499e-12
-3.4986e-12
-2.8927e-10
-2.308e-12
3.3616e-12
-4.9814e-12
-3.2464e-10
-3.5251e-12
5.3142e-12
-7.6423e-12
-3.6189e-10
-5.3989e-12
8.0221e-12
-1.164e-11
-4.0273e-10
-7.8372e-12
1.1186e-11
-1.6724e-11
-4.4598e-10
-1.0516e-11
1.521e-11
-2.2591e-11
-4.8675e-10
-1.3981e-11
2.0915e-11
-3.0558e-11
-5.2466e-10
-1.9475e-11
2.9461e-11
-4.2348e-11
-5.7045e-10
-2.8483e-11
4.1826e-11
-6.045e-11
-6.4229e-10
-4.1161e-11
5.8474e-11
-8.62e-11
-7.5206e-10
-5.6049e-11
7.9256e-11
-1.1829e-10
-8.9594e-10
-7.3255e-11
1.0659e-10
-1.5812e-10
-1.0689e-09
-9.7731e-11
1.4676e-10
-2.1411e-10
-1.2977e-09
-1.3882e-10
2.0889e-10
-3.0278e-10
-1.6589e-09
-2.0335e-10
2.9926e-10
-4.382e-10
-2.2467e-09
-2.9011e-10
4.1946e-10
-6.256e-10
-3.1157e-09
-3.8834e-10
5.6457e-10
-8.5296e-10
-4.2516e-09
-4.9559e-10
7.3799e-10
-1.1154e-09
-5.6329e-09
-6.261e-10
9.5708e-10
-1.433e-09
-7.3476e-09
-8.1012e-10
1.2526e-09
-1.8612e-09
-9.6599e-09
-1.0712e-09
1.6517e-09
-2.4619e-09
-1.2909e-08
-1.4101e-09
2.1669e-09
-3.2794e-09
-1.7326e-08
-1.7597e-09
2.7384e-09
-4.2304e-09
-2.2838e-08
-2.0203e-09
3.2517e-09
-5.1246e-09
-2.9016e-08
-2.1076e-09
3.5749e-09
-5.7321e-09
-3.5201e-08
-1.9839e-09
3.6002e-09
-5.8603e-09
-4.0694e-08
-1.6996e-09
3.3186e-09
-5.4606e-09
-4.4861e-08
-1.4047e-09
2.8519e-09
-4.676e-09
-4.7229e-08
-1.202e-09
2.3094e-09
-3.6694e-09
-5.4621e-10
1.0162e-09
-1.5961e-09
-2.5858e-12
-4.175e-14
-6.9145e-14
6.8927e-14
-4.7191e-12
-1.1241e-13
-2.091e-13
2.0938e-13
-6.9564e-12
-2.1989e-13
-2.8995e-13
2.9481e-13
-9.5235e-12
-3.4497e-13
-3.1809e-13
3.1948e-13
-1.2705e-11
-5.2168e-13
-3.1275e-13
2.9102e-13
-1.6799e-11
-7.3218e-13
-2.6661e-13
2.2607e-13
-2.2014e-11
-1.0518e-12
-1.2898e-13
2.887e-14
-2.8602e-11
-1.2491e-12
-9.541e-14
-4.7806e-14
-3.6743e-11
-1.496e-12
-1.5234e-15
-1.6715e-13
-4.6658e-11
-1.8117e-12
1.0998e-13
-2.2381e-13
-5.8697e-11
-2.0633e-12
1.4142e-13
-1.7996e-13
-7.3213e-11
-2.3157e-12
2.4692e-13
-2.2852e-13
-9.049e-11
-2.277e-12
2.6129e-13
-3.6331e-13
-1.1055e-10
-2.015e-12
3.3555e-13
-6.0677e-13
-1.3319e-10
-1.8666e-12
4.6761e-13
-8.1674e-13
-1.5855e-10
-1.7659e-12
5.7334e-13
-9.9482e-13
-1.8718e-10
-1.6466e-12
7.0414e-13
-1.4344e-12
-2.1931e-10
-1.7084e-12
1.1394e-12
-2.3016e-12
-2.5387e-10
-1.8813e-12
1.7093e-12
-3.3707e-12
-2.8907e-10
-2.5637e-12
2.9155e-12
-5.0692e-12
-3.2421e-10
-4.1517e-12
4.8045e-12
-7.6037e-12
-3.6122e-10
-6.4973e-12
7.4174e-12
-1.148e-11
-4.022e-10
-9.1176e-12
1.0401e-11
-1.6758e-11
-4.4588e-10
-1.1491e-11
1.3954e-11
-2.2887e-11
-4.8646e-10
-1.5345e-11
1.9101e-11
-3.0562e-11
-5.2271e-10
-2.2344e-11
2.6944e-11
-4.1394e-11
-5.6584e-10
-3.4161e-11
3.851e-11
-5.8225e-11
-6.3574e-10
-4.9418e-11
5.3895e-11
-8.3449e-11
-7.4519e-10
-6.4343e-11
7.2381e-11
-1.1655e-10
-8.8836e-10
-8.0413e-11
9.6032e-11
-1.5684e-10
-1.056e-09
-1.0716e-10
1.315e-10
-2.105e-10
-1.2728e-09
-1.5724e-10
1.8814e-10
-2.9459e-10
-1.6195e-09
-2.3529e-10
2.7138e-10
-4.2661e-10
-2.1976e-09
-3.3238e-10
3.8077e-10
-6.1684e-10
-3.065e-09
-4.291e-10
5.0881e-10
-8.5266e-10
-4.199e-09
-5.3149e-10
6.5922e-10
-1.1196e-09
-5.5622e-09
-6.7108e-10
8.5116e-10
-1.4284e-09
-7.2343e-09
-8.8483e-10
1.116e-09
-1.8407e-09
-9.4926e-09
-1.1837e-09
1.4764e-09
-2.435e-09
-1.2703e-08
-1.5519e-09
1.9397e-09
-3.2748e-09
-1.7127e-08
-1.8925e-09
2.4401e-09
-4.2754e-09
-2.27e-08
-2.1001e-09
2.87e-09
-5.2228e-09
-2.8975e-08
-2.1068e-09
3.1172e-09
-5.8653e-09
-3.5266e-08
-1.8817e-09
3.0928e-09
-6.0041e-09
-4.0861e-08
-1.5064e-09
2.81e-09
-5.5983e-09
-4.512e-08
-1.2273e-09
2.4114e-09
-4.7948e-09
-4.756e-08
-1.213e-09
2.0067e-09
-3.7436e-09
-5.4268e-10
8.7675e-10
-1.6175e-09
-2.5992e-12
-7.707e-14
8.0057e-14
-3.7439e-14
-4.7096e-12
-2.2566e-13
2.3581e-13
-1.0777e-13
-6.911e-12
-3.4338e-13
3.401e-13
-1.8273e-13
-9.4229e-12
-3.7498e-13
3.8538e-13
-3.0138e-13
-1.2532e-11
-3.5025e-13
3.3901e-13
-4.7135e-13
-1.6569e-11
-2.8847e-13
2.784e-13
-6.8652e-13
-2.1745e-11
-1.391e-13
9.5635e-14
-1.0229e-12
-2.8261e-11
-1.1539e-13
5.4549e-14
-1.2687e-12
-3.6343e-11
-8.9219e-14
4.3674e-14
-1.574e-12
-4.6189e-11
-9.3916e-15
-5.4469e-14
-1.9564e-12
-5.8124e-11
7.9754e-14
-1.8827e-13
-2.2799e-12
-7.2521e-11
2.5842e-13
-5.6885e-13
-2.5146e-12
-8.9778e-11
2.626e-13
-6.805e-13
-2.4502e-12
-1.0988e-10
3.0295e-13
-6.5056e-13
-2.2898e-12
-1.3247e-10
2.637e-13
-6.8991e-13
-2.1889e-12
-1.5775e-10
1.6806e-13
-5.2923e-13
-2.2734e-12
-1.8635e-10
1.7545e-13
-6.105e-13
-2.3198e-12
-2.1872e-10
6.9379e-13
-1.2325e-12
-2.5075e-12
-2.5364e-10
1.2185e-12
-1.8197e-12
-2.8804e-12
-2.8897e-10
2.1753e-12
-2.9742e-12
-3.5901e-12
-3.238e-10
3.9512e-12
-5.1776e-12
-5.4105e-12
-3.6034e-10
6.7498e-12
-8.6457e-12
-8.4242e-12
-4.0154e-10
9.5384e-12
-1.2452e-11
-1.1791e-11
-4.4613e-10
1.2242e-11
-1.5886e-11
-1.4724e-11
-4.8678e-10
1.6345e-11
-2.0856e-11
-1.9407e-11
-5.2049e-10
2.3508e-11
-2.955e-11
-2.7935e-11
-5.5918e-10
3.533e-11
-4.4196e-11
-4.2869e-11
-6.2582e-10
5.0561e-11
-6.3959e-11
-6.2955e-11
-7.3519e-10
6.5561e-11
-8.4054e-11
-8.3084e-11
-8.7841e-10
8.1766e-11
-1.05e-10
-1.0395e-10
-1.0387e-09
1.0851e-10
-1.3794e-10
-1.3723e-10
-1.2364e-09
1.5849e-10
-2.0085e-10
-2.0034e-10
-1.5592e-09
2.3643e-10
-3.0232e-10
-3.0208e-10
-2.1213e-09
3.3354e-10
-4.3479e-10
-4.3488e-10
-2.9881e-09
4.3048e-10
-5.7116e-10
-5.7081e-10
-4.1233e-09
5.3319e-10
-7.127e-10
-7.1206e-10
-5.4613e-09
6.7298e-10
-8.9538e-10
-8.9516e-10
-7.0652e-09
8.8731e-10
-1.1748e-09
-1.173e-09
-9.2344e-09
1.1872e-09
-1.5782e-09
-1.5755e-09
-1.2381e-08
1.5566e-09
-2.114e-09
-2.1099e-09
-1.6813e-08
1.8984e-09
-2.6625e-09
-2.6582e-09
-2.2485e-08
2.1074e-09
-3.0704e-09
-3.0649e-09
-2.8914e-08
2.1152e-09
-3.2186e-09
-3.2121e-09
-3.5373e-08
1.8903e-09
-3.028e-09
-3.0212e-09
-4.1128e-08
1.5143e-09
-2.5657e-09
-2.5603e-09
-4.5533e-08
1.2335e-09
-2.1307e-09
-2.1262e-09
-4.8087e-08
1.217e-09
-1.9524e-09
-1.9481e-09
5.4446e-10
-8.3831e-10
-8.3658e-10
-2.8106e-12
1.0015e-14
-8.6983e-14
-1.8937e-14
-4.8763e-12
1.3274e-14
-2.5898e-13
-2.7887e-14
-7.0526e-12
8.096e-14
-3.9617e-13
-1.1051e-13
-9.5291e-12
1.5314e-13
-5.114e-13
-2.1374e-13
-1.2644e-11
2.4902e-13
-5.5825e-13
-3.2495e-13
-1.6679e-11
3.4664e-13
-5.4251e-13
-4.5824e-13
-2.1848e-11
4.8344e-13
-4.4745e-13
-6.7009e-13
-2.8405e-11
3.9565e-13
-3.8541e-13
-6.5285e-13
-3.654e-11
4.3983e-13
-2.7447e-13
-7.5152e-13
-4.6476e-11
5.2608e-13
-1.7205e-13
-9.1703e-13
-5.8557e-11
5.7626e-13
-7.4253e-14
-1.0187e-12
-7.3146e-11
6.5717e-13
8.6992e-14
-1.1959e-12
-9.0502e-11
6.4521e-13
1.1441e-13
-1.2038e-12
-1.107e-10
6.7332e-13
1.2482e-13
-1.2559e-12
-1.3342e-10
7.7883e-13
1.8053e-13
-1.5095e-12
-1.5889e-10
8.5225e-13
1.4497e-13
-1.7138e-12
-1.8754e-10
1.1915e-12
3.7577e-13
-2.2376e-12
-2.1961e-10
1.6716e-12
7.371e-13
-3.0504e-12
-2.5418e-10
2.1664e-12
1.1116e-12
-3.8774e-12
-2.8936e-10
3.247e-12
1.9291e-12
-5.4284e-12
-3.2446e-10
5.0701e-12
3.3455e-12
-7.9433e-12
-3.6134e-10
7.5935e-12
5.4504e-12
-1.1835e-11
-4.0231e-10
1.0587e-11
8.1397e-12
-1.7024e-11
-4.4597e-10
1.3915e-11
1.0889e-11
-2.2748e-11
-4.8656e-10
1.8932e-11
1.4483e-11
-3.0191e-11
-5.2276e-10
2.6773e-11
2.0202e-11
-4.1051e-11
-5.6584e-10
3.8334e-11
2.9384e-11
-5.8049e-11
-6.3572e-10
5.3652e-11
4.2172e-11
-8.3365e-11
-7.4517e-10
7.1996e-11
5.7154e-11
-1.1634e-10
-8.8836e-10
9.5443e-11
7.4386e-11
-1.5637e-10
-1.0561e-09
1.3066e-10
9.8725e-11
-2.0971e-10
-1.273e-09
1.8717e-10
1.3973e-10
-2.938e-10
-1.6197e-09
2.7028e-10
2.0413e-10
-4.2607e-10
-2.1978e-09
3.7952e-10
2.9079e-10
-6.1656e-10
-3.065e-09
5.0713e-10
3.8885e-10
-8.5214e-10
-4.1994e-09
6.5659e-10
4.9568e-10
-1.1179e-09
-5.5625e-09
8.4872e-10
6.2718e-10
-1.4278e-09
-7.2345e-09
1.1129e-09
8.1192e-10
-1.84e-09
-9.4928e-09
1.4723e-09
1.0738e-09
-2.4338e-09
-1.2703e-08
1.9347e-09
1.414e-09
-3.2737e-09
-1.7127e-08
2.4337e-09
1.7647e-09
-4.2736e-09
-2.27e-08
2.8625e-09
2.0266e-09
-5.2207e-09
-2.8975e-08
3.109e-09
2.1147e-09
-5.8628e-09
-3.5266e-08
3.0846e-09
1.9911e-09
-6.0015e-09
-4.0862e-08
2.8025e-09
1.706e-09
-5.5955e-09
-4.512e-08
2.4056e-09
1.4099e-09
-4.7932e-09
-4.756e-08
2.0031e-09
1.2056e-09
-3.7428e-09
8.7495e-10
5.4781e-10
-1.6171e-09
-2.7257e-12
6.9607e-15
-6.3532e-14
-4.8399e-12
1.0903e-14
-1.9048e-13
-7.0776e-12
5.4359e-14
-2.9112e-13
-9.6504e-12
1.0388e-13
-3.7113e-13
-1.2846e-11
1.6598e-13
-4.1151e-13
-1.6963e-11
2.415e-13
-3.7948e-13
-2.2182e-11
3.0054e-13
-2.8891e-13
-2.882e-11
2.5452e-13
-2.4579e-13
-3.7031e-11
2.6054e-13
-1.5908e-13
-4.7041e-11
2.8373e-13
-5.1874e-14
-5.9218e-11
2.9336e-13
2.426e-14
-7.3869e-11
3.0081e-13
1.4705e-13
-9.1269e-11
2.9288e-13
1.9295e-13
-1.1143e-10
3.0291e-13
2.157e-13
-1.3414e-10
3.1795e-13
2.314e-13
-1.5966e-10
4.1076e-13
3.293e-13
-1.8829e-10
6.8991e-13
5.5641e-13
-2.2011e-10
1.0934e-12
8.8118e-13
-2.5431e-10
1.52e-12
1.2669e-12
-2.8933e-10
2.3631e-12
2.0599e-12
-3.2472e-10
3.7304e-12
3.3833e-12
-3.6197e-10
5.6085e-12
5.2249e-12
-4.0253e-10
7.8282e-12
7.4868e-12
-4.4528e-10
1.0449e-11
1.0187e-11
-4.8599e-10
1.4117e-11
1.399e-11
-5.2481e-10
1.9833e-11
1.9852e-11
-5.7207e-10
2.8328e-11
2.8498e-11
-6.4475e-10
3.9679e-11
4.0014e-11
-7.5405e-10
5.3373e-11
5.388e-11
-8.9761e-10
7.0708e-11
7.1365e-11
-1.0732e-09
9.6362e-11
9.7147e-11
-1.3087e-09
1.3727e-10
1.3818e-10
-1.6775e-09
1.9771e-10
1.988e-10
-2.2687e-09
2.7705e-10
2.784e-10
-3.1354e-09
3.698e-10
3.7152e-10
-4.2695e-09
4.7809e-10
4.8031e-10
-5.6582e-09
6.1648e-10
6.1916e-10
-7.3934e-09
8.0644e-10
8.0995e-10
-9.7285e-09
1.0644e-09
1.0691e-09
-1.2983e-08
1.3908e-09
1.3969e-09
-1.7371e-08
1.736e-09
1.7437e-09
-2.2817e-08
2.0232e-09
2.0323e-09
-2.8908e-08
2.1745e-09
2.1844e-09
-3.5017e-08
2.1353e-09
2.1452e-09
-4.0469e-08
1.9231e-09
1.9322e-09
-4.4635e-08
1.6374e-09
1.6448e-09
-4.7046e-08
1.3542e-09
1.3595e-09
6.0154e-10
6.0398e-10
-2.6976e-12
7.7116e-16
-5.9368e-14
-4.8402e-12
-3.136e-15
-1.8211e-13
-7.1202e-12
8.2165e-15
-2.7673e-13
-9.7432e-12
2.2002e-14
-3.5538e-13
-1.2999e-11
4.6868e-14
-3.9261e-13
-1.7162e-11
6.6217e-14
-3.4924e-13
-2.2433e-11
6.6308e-14
-2.7014e-13
-2.9105e-11
1.65e-14
-2.1106e-13
-3.7352e-11
-1.31e-14
-1.0763e-13
-4.7411e-11
-3.1586e-14
9.0581e-15
-5.9627e-11
-5.6595e-14
1.0641e-13
-7.4297e-11
-8.4593e-14
2.3118e-13
-9.1678e-11
-8.5225e-14
3.2166e-13
-1.1177e-10
-1.2776e-13
3.3655e-13
-1.3455e-10
-1.3185e-13
3.8044e-13
-1.601e-10
-2.5753e-14
5.4815e-13
-1.8871e-10
2.0097e-13
8.15e-13
-2.2042e-10
4.7776e-13
1.1864e-12
-2.5446e-10
7.8222e-13
1.6461e-12
-2.8946e-10
1.2985e-12
2.5031e-12
-3.2506e-10
2.059e-12
3.8665e-12
-3.6253e-10
3.0902e-12
5.8094e-12
-4.0298e-10
4.2825e-12
8.1832e-12
-4.4539e-10
5.7812e-12
1.1289e-11
-4.8642e-10
7.7864e-12
1.5521e-11
-5.2691e-10
1.0873e-11
2.1962e-11
-5.7667e-10
1.543e-11
3.1282e-11
-6.5117e-10
2.1548e-11
4.3823e-11
-7.6097e-10
2.8966e-11
5.9428e-11
-9.0567e-10
3.8314e-11
7.9676e-11
-1.0869e-09
5.1987e-11
1.0915e-10
-1.334e-09
7.3701e-11
1.5467e-10
-1.7165e-09
1.0588e-10
2.2112e-10
-2.3168e-09
1.4813e-10
3.0916e-10
-3.1857e-09
1.9764e-10
4.1507e-10
-4.3231e-09
2.5536e-10
5.4107e-10
-5.7306e-09
3.2862e-10
7.0028e-10
-7.5063e-09
4.2905e-10
9.1499e-10
-9.89e-09
5.6517e-10
1.2041e-09
-1.3175e-08
7.3584e-10
1.5709e-09
-1.755e-08
9.141e-10
1.9689e-09
-2.2933e-08
1.0586e-09
2.3162e-09
-2.8929e-08
1.1287e-09
2.5216e-09
-3.4935e-08
1.0984e-09
2.5164e-09
-4.0292e-08
9.7961e-10
2.3026e-09
-4.4378e-08
8.2534e-10
1.9646e-09
-4.673e-08
6.7793e-10
1.5785e-09
3.0158e-10
7.0582e-10
-2.6673e-12
-9.3881e-15
-5.7493e-14
-4.8281e-12
-3.0263e-14
-1.7932e-13
-7.1367e-12
-5.4614e-14
-2.693e-13
-9.7928e-12
-8.6593e-14
-3.4589e-13
-1.3079e-11
-1.0895e-13
-3.855e-13
-1.7272e-11
-1.5096e-13
-3.3843e-13
-2.2573e-11
-2.1789e-13
-2.6107e-13
-2.9264e-11
-2.9218e-13
-1.9733e-13
-3.7531e-11
-3.6645e-13
-9.3257e-14
-4.7614e-11
-4.2674e-13
1.7643e-14
-5.9846e-11
-4.8076e-13
1.1814e-13
-7.4526e-11
-5.1841e-13
2.5264e-13
-9.1869e-11
-5.2651e-13
3.4942e-13
-1.1196e-10
-5.6802e-13
3.8736e-13
-1.3473e-10
-5.7699e-13
4.5581e-13
-1.6028e-10
-4.8853e-13
6.407e-13
-1.889e-10
-3.1099e-13
9.1628e-13
-2.2055e-10
-1.6333e-13
1.3134e-12
-2.545e-10
-3.2279e-14
1.809e-12
-2.8951e-10
7.8935e-14
2.7033e-12
-3.2521e-10
1.593e-13
4.1181e-12
-3.6273e-10
2.3175e-13
6.1508e-12
-4.0318e-10
2.5214e-13
8.6213e-12
-4.4544e-10
3.0834e-13
1.1922e-11
-4.8664e-10
3.6987e-13
1.6356e-11
-5.2795e-10
4.3679e-13
2.3087e-11
-5.7892e-10
4.7456e-13
3.2786e-11
-6.5433e-10
4.7439e-13
4.5885e-11
-7.6443e-10
4.295e-13
6.2416e-11
-9.0981e-10
3.5252e-13
8.4122e-11
-1.0939e-09
2.6251e-13
1.1559e-10
-1.3467e-09
2.1548e-13
1.6358e-10
-1.7358e-09
2.1025e-13
2.3325e-10
-2.3406e-09
1.9981e-13
3.259e-10
-3.2109e-09
1.4599e-13
4.3863e-10
-4.3504e-09
1.3542e-14
5.7376e-10
-5.7674e-09
-4.9332e-14
7.4403e-10
-7.563e-09
-6.5875e-14
9.7178e-10
-9.9705e-09
-6.9115e-14
1.2773e-09
-1.3271e-08
-7.5985e-14
1.6652e-09
-1.7639e-08
-1.608e-13
2.0911e-09
-2.2992e-08
-2.1586e-13
2.4709e-09
-2.894e-08
-2.3319e-13
2.7071e-09
-3.4896e-08
-2.1648e-13
2.7227e-09
-4.0204e-08
-2.2975e-13
2.5102e-09
-4.4249e-08
-2.3767e-13
2.1447e-09
-4.657e-08
-1.9724e-13
1.7021e-09
-1.1403e-13
7.6427e-10
-2.6329e-12
-2.0659e-14
-5.8571e-14
-4.8051e-12
-6.1008e-14
-1.8284e-13
-7.1261e-12
-1.177e-13
-2.7278e-13
-9.7956e-12
-1.9717e-13
-3.4371e-13
-1.309e-11
-2.7022e-13
-3.8533e-13
-1.7291e-11
-3.7579e-13
-3.4027e-13
-2.2598e-11
-5.166e-13
-2.6644e-13
-2.9295e-11
-6.2575e-13
-2.1217e-13
-3.7562e-11
-7.4653e-13
-1.1634e-13
-4.7643e-11
-8.452e-13
-1.7163e-14
-5.9867e-11
-9.4324e-13
7.2689e-14
-7.4531e-11
-1.0031e-12
2.0057e-13
-9.187e-11
-1.0159e-12
2.8452e-13
-1.1194e-10
-1.0451e-12
3.4084e-13
-1.3469e-10
-1.0499e-12
4.2465e-13
-1.6022e-10
-9.5907e-13
6.1353e-13
-1.8884e-10
-8.5833e-13
8.5835e-13
-2.2049e-10
-8.5117e-13
1.2528e-12
-2.5445e-10
-8.985e-13
1.7527e-12
-2.8946e-10
-1.1787e-12
2.6667e-12
-3.2517e-10
-1.7465e-12
4.1141e-12
-3.6268e-10
-2.618e-12
6.1808e-12
-4.0315e-10
-3.7556e-12
8.6677e-12
-4.4542e-10
-5.1434e-12
1.1969e-11
-4.8663e-10
-7.0449e-12
1.6379e-11
-5.2794e-10
-1.0011e-11
2.3072e-11
-5.7892e-10
-1.4518e-11
3.2732e-11
-6.5433e-10
-2.0649e-11
4.581e-11
-7.6443e-10
-2.8148e-11
6.2341e-11
-9.0982e-10
-3.7639e-11
8.4063e-11
-1.0939e-09
-5.1497e-11
1.1555e-10
-1.3467e-09
-7.3339e-11
1.6355e-10
-1.7358e-09
-1.0558e-10
2.332e-10
-2.3406e-09
-1.4789e-10
3.2583e-10
-3.2109e-09
-1.9754e-10
4.3856e-10
-4.3503e-09
-2.5554e-10
5.7372e-10
-5.7674e-09
-3.2881e-10
7.4401e-10
-7.563e-09
-4.2917e-10
9.7174e-10
-9.9705e-09
-5.6527e-10
1.2772e-09
-1.3271e-08
-7.3594e-10
1.6651e-09
-1.7639e-08
-9.1433e-10
2.0909e-09
-2.2992e-08
-1.0589e-09
2.4707e-09
-2.894e-08
-1.129e-09
2.7069e-09
-3.4896e-08
-1.0987e-09
2.7225e-09
-4.0204e-08
-9.7997e-10
2.51e-09
-4.4249e-08
-8.2573e-10
2.1445e-09
-4.657e-08
-6.7828e-10
1.7019e-09
-3.018e-10
7.6416e-10
-2.5944e-12
-2.942e-14
-6.2191e-14
-4.7688e-12
-8.0189e-14
-1.9088e-13
-7.0847e-12
-1.6278e-13
-2.8864e-13
-9.7527e-12
-2.745e-13
-3.4905e-13
-1.303e-11
-3.9508e-13
-3.8975e-13
-1.7219e-11
-5.5304e-13
-3.4865e-13
-2.2512e-11
-7.6999e-13
-2.7536e-13
-2.9197e-11
-9.1758e-13
-2.3692e-13
-3.7445e-11
-1.0736e-12
-1.5475e-13
-4.7501e-11
-1.2274e-12
-7.0138e-14
-5.9694e-11
-1.3649e-12
7.9099e-15
-7.4326e-11
-1.4726e-12
1.1729e-13
-9.1657e-11
-1.5087e-12
1.7445e-13
-1.1171e-10
-1.5206e-12
2.3366e-13
-1.3443e-10
-1.5147e-12
3.1367e-13
-1.5991e-10
-1.4394e-12
4.7536e-13
-1.8853e-10
-1.3978e-12
6.7053e-13
-2.2024e-10
-1.5083e-12
1.0404e-12
-2.5428e-10
-1.7317e-12
1.5144e-12
-2.8931e-10
-2.3464e-12
2.4189e-12
-3.2494e-10
-3.4718e-12
3.8524e-12
-3.6238e-10
-5.1392e-12
5.889e-12
-4.029e-10
-7.2392e-12
8.3005e-12
-4.4533e-10
-9.755e-12
1.1411e-11
-4.8637e-10
-1.3365e-11
1.5588e-11
-5.2688e-10
-1.899e-11
2.1924e-11
-5.7667e-10
-2.7471e-11
3.1162e-11
-6.5119e-10
-3.8866e-11
4.3646e-11
-7.6098e-10
-5.2631e-11
5.9243e-11
-9.0569e-10
-7.0072e-11
7.9537e-11
-1.0869e-09
-9.5911e-11
1.0909e-10
-1.334e-09
-1.3696e-10
1.5464e-10
-1.7164e-09
-1.9754e-10
2.2108e-10
-2.3167e-09
-2.77e-10
3.0909e-10
-3.1857e-09
-3.6995e-10
4.15e-10
-4.323e-09
-4.7863e-10
5.4111e-10
-5.7305e-09
-6.1676e-10
7.0026e-10
-7.5062e-09
-8.0662e-10
9.1481e-10
-9.89e-09
-1.0645e-09
1.2038e-09
-1.3175e-08
-1.3907e-09
1.5703e-09
-1.755e-08
-1.736e-09
1.9682e-09
-2.2933e-08
-2.0231e-09
2.3154e-09
-2.8929e-08
-2.1743e-09
2.5208e-09
-3.4935e-08
-2.1351e-09
2.5156e-09
-4.0293e-08
-1.9231e-09
2.3019e-09
-4.4379e-08
-1.6374e-09
1.964e-09
-4.673e-08
-1.3543e-09
1.5779e-09
-6.0166e-10
7.0554e-10
-2.5526e-12
-3.4776e-14
-6.6923e-14
-4.7199e-12
-8.9134e-14
-2.0339e-13
-7.0139e-12
-1.7728e-13
-3.1318e-13
-9.6572e-12
-2.9777e-13
-3.6045e-13
-1.29e-11
-4.4974e-13
-3.9117e-13
-1.7057e-11
-6.4247e-13
-3.5212e-13
-2.2322e-11
-9.0849e-13
-2.6329e-13
-2.8977e-11
-1.0796e-12
-2.3822e-13
-3.7191e-11
-1.27e-12
-1.7379e-13
-4.7199e-11
-1.4803e-12
-7.1845e-14
-5.9338e-11
-1.6667e-12
-2.7621e-14
-7.3919e-11
-1.8313e-12
6.6856e-14
-9.1234e-11
-1.8877e-12
9.4442e-14
-1.1128e-10
-1.8851e-12
1.2815e-13
-1.3395e-10
-1.8528e-12
1.7149e-13
-1.5935e-10