/*--------------------------------*- C++ -*----------------------------------*\
| =========                 |                                                 |
| \\      /  F ield         | foam-extend: Open Source CFD                    |
|  \\    /   O peration     | Version:     4.1-20200408                       |
|   \\  /    A nd           | Web:         http://www.foam-extend.org         |
|    \\/     M anipulation  |                                                 |
\*---------------------------------------------------------------------------*/
FoamFile
{
    version     2.0;
    format      ascii;
    class       volScalarField;
    location    "0.0300000";
    object      sigmaHyd;
}
// * * * * * * * * * * * * * * * * * * * * * * * * * * * * * * * * * * * * * //

dimensions      [1 -1 -2 0 0 0 0];

internalField   nonuniform List<scalar> 
1952
(
-1.6396e+08
-1.59286e+08
-1.53266e+08
-1.4477e+08
-1.33614e+08
-1.19807e+08
-1.01965e+08
-7.90784e+07
-5.07599e+07
-1.19784e+07
3.48172e+07
1.03949e+08
1.86207e+08
3.03442e+08
3.95872e+08
-1.65445e+08
-1.68466e+08
-1.63754e+08
-1.57518e+08
-1.48978e+08
-1.37553e+08
-1.23688e+08
-1.0543e+08
-8.24103e+07
-5.36527e+07
-1.469e+07
3.24987e+07
1.01855e+08
1.84357e+08
3.0172e+08
3.93652e+08
-1.69979e+08
-1.7171e+08
-1.66962e+08
-1.60577e+08
-1.52025e+08
-1.40407e+08
-1.26447e+08
-1.07902e+08
-8.47366e+07
-5.5665e+07
-1.65116e+07
3.10163e+07
1.00654e+08
1.83595e+08
3.01414e+08
3.93948e+08
-1.73253e+08
-1.74624e+08
-1.69832e+08
-1.63331e+08
-1.54739e+08
-1.43011e+08
-1.28926e+08
-1.10165e+08
-8.68338e+07
-5.75019e+07
-1.81324e+07
2.97037e+07
9.96785e+07
1.83055e+08
3.01355e+08
3.94239e+08
-1.76194e+08
-1.77293e+08
-1.72409e+08
-1.65811e+08
-1.57104e+08
-1.45303e+08
-1.31048e+08
-1.12107e+08
-8.85893e+07
-5.9014e+07
-1.9411e+07
2.87299e+07
9.90479e+07
1.82857e+08
3.01596e+08
3.94882e+08
-1.78878e+08
-1.79648e+08
-1.74691e+08
-1.68028e+08
-1.59257e+08
-1.47355e+08
-1.3295e+08
-1.13838e+08
-9.01338e+07
-6.0331e+07
-2.04938e+07
2.7948e+07
9.8591e+07
1.82853e+08
3.01946e+08
3.95555e+08
-1.81244e+08
-1.8179e+08
-1.76777e+08
-1.70047e+08
-1.61254e+08
-1.49255e+08
-1.34718e+08
-1.15449e+08
-9.15656e+07
-6.15551e+07
-2.14829e+07
2.72371e+07
9.8231e+07
1.82922e+08
3.02429e+08
3.96323e+08
-1.83395e+08
-1.83798e+08
-1.78701e+08
-1.71904e+08
-1.6302e+08
-1.50935e+08
-1.36244e+08
-1.16823e+08
-9.27614e+07
-6.25505e+07
-2.22538e+07
2.67257e+07
9.80408e+07
1.83095e+08
3.02982e+08
3.97102e+08
-1.85407e+08
-1.85582e+08
-1.80417e+08
-1.73565e+08
-1.64608e+08
-1.52417e+08
-1.37589e+08
-1.18014e+08
-9.37823e+07
-6.33761e+07
-2.28615e+07
2.63716e+07
9.7983e+07
1.83389e+08
3.03569e+08
3.97872e+08
-1.87198e+08
-1.87194e+08
-1.81978e+08
-1.75105e+08
-1.66099e+08
-1.53809e+08
-1.38862e+08
-1.19137e+08
-9.4747e+07
-6.41518e+07
-2.34336e+07
2.6046e+07
9.7941e+07
1.83709e+08
3.04174e+08
3.98637e+08
-1.88817e+08
-1.88729e+08
-1.8346e+08
-1.76559e+08
-1.67513e+08
-1.55121e+08
-1.40067e+08
-1.20197e+08
-9.56606e+07
-6.48852e+07
-2.39741e+07
2.5741e+07
9.79109e+07
1.84035e+08
3.04778e+08
3.99404e+08
-1.90363e+08
-1.90146e+08
-1.84845e+08
-1.77896e+08
-1.68845e+08
-1.56325e+08
-1.41198e+08
-1.21183e+08
-9.65175e+07
-6.55687e+07
-2.4481e+07
2.54605e+07
9.78902e+07
1.84363e+08
3.05383e+08
4.0016e+08
-1.91821e+08
-1.91492e+08
-1.86163e+08
-1.79159e+08
-1.70091e+08
-1.57456e+08
-1.42256e+08
-1.22104e+08
-9.73168e+07
-6.62026e+07
-2.49445e+07
2.52105e+07
9.78968e+07
1.84698e+08
3.0599e+08
4.00909e+08
-1.93211e+08
-1.92746e+08
-1.87389e+08
-1.80346e+08
-1.71244e+08
-1.58492e+08
-1.43219e+08
-1.22931e+08
-9.80296e+07
-6.67545e+07
-2.53375e+07
2.50189e+07
9.79424e+07
1.85044e+08
3.06585e+08
4.01632e+08
-1.9451e+08
-1.93921e+08
-1.8854e+08
-1.81465e+08
-1.72324e+08
-1.59462e+08
-1.44114e+08
-1.23695e+08
-9.86808e+07
-6.72512e+07
-2.56806e+07
2.48679e+07
9.80187e+07
1.85407e+08
3.07176e+08
4.02321e+08
-1.95726e+08
-1.95037e+08
-1.89631e+08
-1.82523e+08
-1.73341e+08
-1.60374e+08
-1.44948e+08
-1.24402e+08
-9.92778e+07
-6.76998e+07
-2.59818e+07
2.4747e+07
9.81176e+07
1.85768e+08
3.07764e+08
4.02982e+08
-1.96879e+08
-1.96109e+08
-1.90682e+08
-1.83532e+08
-1.74306e+08
-1.61235e+08
-1.45729e+08
-1.2506e+08
-9.9826e+07
-6.81018e+07
-2.62404e+07
2.46669e+07
9.82461e+07
1.86155e+08
3.08357e+08
4.03626e+08
-1.97988e+08
-1.9716e+08
-1.91728e+08
-1.84531e+08
-1.75254e+08
-1.62089e+08
-1.46498e+08
-1.25711e+08
-1.00365e+08
-6.84976e+07
-2.64919e+07
2.45937e+07
9.83807e+07
1.86554e+08
3.08943e+08
4.04273e+08
-1.9907e+08
-1.98202e+08
-1.92771e+08
-1.85545e+08
-1.76209e+08
-1.62957e+08
-1.47281e+08
-1.2638e+08
-1.00924e+08
-6.89156e+07
-2.67694e+07
2.44967e+07
9.84887e+07
1.86948e+08
3.09525e+08
4.04926e+08
-2.00137e+08
-1.99267e+08
-1.93811e+08
-1.86589e+08
-1.77173e+08
-1.63856e+08
-1.4809e+08
-1.27084e+08
-1.01516e+08
-6.93724e+07
-2.70814e+07
2.43582e+07
9.85741e+07
1.87316e+08
3.10128e+08
4.05599e+08
-2.01203e+08
-2.00334e+08
-1.94829e+08
-1.87605e+08
-1.78102e+08
-1.64717e+08
-1.48859e+08
-1.27745e+08
-1.02063e+08
-6.97811e+07
-2.73431e+07
2.42655e+07
9.87079e+07
1.87707e+08
3.10769e+08
4.06301e+08
-2.02266e+08
-2.01401e+08
-1.95857e+08
-1.88601e+08
-1.79011e+08
-1.65547e+08
-1.49591e+08
-1.28362e+08
-1.02556e+08
-7.01278e+07
-2.75332e+07
2.42477e+07
9.89178e+07
1.88161e+08
3.11439e+08
4.07027e+08
-2.0333e+08
-2.02485e+08
-1.9691e+08
-1.89609e+08
-1.79937e+08
-1.66384e+08
-1.50328e+08
-1.28976e+08
-1.03042e+08
-7.04616e+07
-2.77051e+07
2.42531e+07
9.91507e+07
1.88657e+08
3.12126e+08
4.07783e+08
-2.044e+08
-2.03647e+08
-1.98056e+08
-1.90695e+08
-1.80952e+08
-1.67298e+08
-1.51142e+08
-1.29657e+08
-1.03594e+08
-7.08538e+07
-2.79289e+07
2.42116e+07
9.93644e+07
1.89138e+08
3.12876e+08
4.08591e+08
-2.05555e+08
-2.04822e+08
-1.99242e+08
-1.9179e+08
-1.81988e+08
-1.68218e+08
-1.51962e+08
-1.30332e+08
-1.04131e+08
-7.122e+07
-2.8112e+07
2.4214e+07
9.96456e+07
1.8966e+08
3.13682e+08
4.09486e+08
-2.06751e+08
-2.06068e+08
-2.00485e+08
-1.92934e+08
-1.83066e+08
-1.69167e+08
-1.52803e+08
-1.31007e+08
-1.0466e+08
-7.15509e+07
-2.82525e+07
2.42836e+07
9.9994e+07
1.90213e+08
3.14546e+08
4.10474e+08
-2.08024e+08
-2.07468e+08
-2.01852e+08
-1.94205e+08
-1.84263e+08
-1.70221e+08
-1.53743e+08
-1.31763e+08
-1.05257e+08
-7.19318e+07
-2.84206e+07
2.43418e+07
1.00401e+08
1.90801e+08
3.1542e+08
4.11573e+08
-2.09438e+08
-2.09024e+08
-2.03365e+08
-1.95618e+08
-1.85595e+08
-1.71397e+08
-1.54796e+08
-1.32608e+08
-1.05938e+08
-7.23535e+07
-2.86297e+07
2.44511e+07
1.00839e+08
1.91534e+08
3.16345e+08
4.12809e+08
-2.11006e+08
-2.10739e+08
-2.05026e+08
-1.97175e+08
-1.87058e+08
-1.72686e+08
-1.55946e+08
-1.33522e+08
-1.06667e+08
-7.27837e+07
-2.88374e+07
2.46265e+07
1.01295e+08
1.92367e+08
3.17447e+08
4.14173e+08
-2.12742e+08
-2.12633e+08
-2.06861e+08
-1.98891e+08
-1.88668e+08
-1.74101e+08
-1.57203e+08
-1.34512e+08
-1.07451e+08
-7.3236e+07
-2.90419e+07
2.48111e+07
1.01797e+08
1.93184e+08
3.18649e+08
4.1565e+08
-2.14668e+08
-2.1486e+08
-2.09026e+08
-2.00924e+08
-1.90582e+08
-1.758e+08
-1.58727e+08
-1.35742e+08
-1.08455e+08
-7.38678e+07
-2.93989e+07
2.49098e+07
1.02281e+08
1.94066e+08
3.19929e+08
4.17285e+08
-2.16935e+08
-2.17418e+08
-2.11519e+08
-2.03269e+08
-1.928e+08
-1.77779e+08
-1.60513e+08
-1.37201e+08
-1.09663e+08
-7.46564e+07
-2.98814e+07
2.49536e+07
1.02733e+08
1.95007e+08
3.2136e+08
4.19109e+08
-2.19538e+08
-2.20302e+08
-2.14335e+08
-2.0592e+08
-1.95309e+08
-1.80021e+08
-1.62538e+08
-1.38857e+08
-1.1103e+08
-7.55515e+07
-3.04246e+07
2.4976e+07
1.03209e+08
1.95975e+08
3.22887e+08
4.21077e+08
-2.22471e+08
-2.23743e+08
-2.17706e+08
-2.09112e+08
-1.98347e+08
-1.82768e+08
-1.65042e+08
-1.40957e+08
-1.12803e+08
-7.67969e+07
-3.12579e+07
2.47982e+07
1.0359e+08
1.96999e+08
3.24447e+08
4.23264e+08
-2.25964e+08
-2.27748e+08
-2.2164e+08
-2.1285e+08
-2.01921e+08
-1.86023e+08
-1.68032e+08
-1.43497e+08
-1.14979e+08
-7.83759e+07
-3.23782e+07
2.44446e+07
1.03832e+08
1.98041e+08
3.26132e+08
4.25656e+08
-2.30025e+08
-2.32358e+08
-2.26179e+08
-2.17179e+08
-2.06072e+08
-1.89831e+08
-1.71543e+08
-1.46518e+08
-1.17581e+08
-8.03217e+07
-3.37825e+07
2.38698e+07
1.03973e+08
1.99034e+08
3.27932e+08
4.28163e+08
-2.34694e+08
-2.37802e+08
-2.31557e+08
-2.22335e+08
-2.11041e+08
-1.94437e+08
-1.75827e+08
-1.50273e+08
-1.20874e+08
-8.28849e+07
-3.57324e+07
2.28712e+07
1.0382e+08
1.99852e+08
3.29704e+08
4.30856e+08
-2.40198e+08
-2.44149e+08
-2.37847e+08
-2.28397e+08
-2.16913e+08
-1.99935e+08
-1.80983e+08
-1.54874e+08
-1.24969e+08
-8.619e+07
-3.83581e+07
2.13195e+07
1.03157e+08
2.00403e+08
3.31347e+08
4.33691e+08
-2.46606e+08
-2.51497e+08
-2.4515e+08
-2.35473e+08
-2.23803e+08
-2.06447e+08
-1.87139e+08
-1.60452e+08
-1.29998e+08
-9.03607e+07
-4.17753e+07
1.91335e+07
1.01908e+08
2.00527e+08
3.32787e+08
4.36589e+08
-2.54012e+08
-2.59965e+08
-2.53596e+08
-2.43702e+08
-2.31863e+08
-2.14143e+08
-1.94479e+08
-1.67216e+08
-1.36178e+08
-9.5644e+07
-4.61938e+07
1.60565e+07
9.99381e+07
2.0005e+08
3.33907e+08
4.39412e+08
-2.62532e+08
-2.69706e+08
-2.63347e+08
-2.53264e+08
-2.41289e+08
-2.23247e+08
-2.0325e+08
-1.7544e+08
-1.43805e+08
-1.02366e+08
-5.19487e+07
1.17131e+07
9.69389e+07
1.98797e+08
3.34472e+08
4.42044e+08
-2.72316e+08
-2.80754e+08
-2.7445e+08
-2.64227e+08
-2.52173e+08
-2.3388e+08
-2.13609e+08
-1.85321e+08
-1.53122e+08
-1.10799e+08
-5.93915e+07
5.76388e+06
9.24241e+07
1.96436e+08
3.3416e+08
4.4431e+08
-2.83393e+08
-2.93156e+08
-2.86966e+08
-2.76674e+08
-2.6463e+08
-2.462e+08
-2.25757e+08
-1.97117e+08
-1.64439e+08
-1.21313e+08
-6.89416e+07
-2.22156e+06
8.5955e+07
1.92474e+08
3.3256e+08
4.4594e+08
-2.95802e+08
-3.06958e+08
-3.00958e+08
-2.90706e+08
-2.788e+08
-2.60408e+08
-2.3996e+08
-2.11174e+08
-1.78186e+08
-1.34427e+08
-8.11845e+07
-1.2889e+07
7.6887e+07
1.86243e+08
3.29092e+08
4.46538e+08
-3.09582e+08
-3.22047e+08
-3.16335e+08
-3.06268e+08
-2.94678e+08
-2.76562e+08
-2.56354e+08
-2.2773e+08
-1.94702e+08
-1.50616e+08
-9.67178e+07
-2.69921e+07
6.43899e+07
1.76873e+08
3.22932e+08
4.45452e+08
-3.2461e+08
-3.38216e+08
-3.32911e+08
-3.23217e+08
-3.12173e+08
-2.9465e+08
-2.75018e+08
-2.46986e+08
-2.14331e+08
-1.70403e+08
-1.16252e+08
-4.54607e+07
4.73524e+07
1.63142e+08
3.12976e+08
4.41954e+08
-3.40669e+08
-3.55101e+08
-3.50342e+08
-3.4125e+08
-3.3104e+08
-3.1451e+08
-2.95895e+08
-2.69037e+08
-2.37344e+08
-1.9431e+08
-1.40586e+08
-6.94473e+07
2.42836e+07
1.43319e+08
2.97596e+08
4.3536e+08
-3.57387e+08
-3.72194e+08
-3.68136e+08
-3.59916e+08
-3.50884e+08
-3.35827e+08
-3.18785e+08
-2.93841e+08
-2.63911e+08
-2.22813e+08
-1.7058e+08
-1.00367e+08
-6.89292e+06
1.14545e+08
2.73155e+08
4.22475e+08
-3.74248e+08
-3.8878e+08
-3.85594e+08
-3.78543e+08
-3.71076e+08
-3.58042e+08
-3.43227e+08
-3.21087e+08
-2.93926e+08
-2.56147e+08
-2.06925e+08
-1.39707e+08
-4.88155e+07
7.2196e+07
2.31742e+08
3.90911e+08
-3.90534e+08
-4.03867e+08
-4.01727e+08
-3.96156e+08
-3.90669e+08
-3.80245e+08
-3.6838e+08
-3.50044e+08
-3.26833e+08
-2.94073e+08
-2.49874e+08
-1.88755e+08
-1.0447e+08
9.3685e+06
1.59352e+08
3.08892e+08
-4.05251e+08
-4.16228e+08
-4.15302e+08
-4.11508e+08
-4.08405e+08
-4.01161e+08
-3.92955e+08
-3.79401e+08
-3.61284e+08
-3.35181e+08
-2.9783e+08
-2.45565e+08
-1.71011e+08
-6.91738e+07
6.50468e+07
1.94366e+08
-4.17177e+08
-4.24344e+08
-4.24777e+08
-4.2302e+08
-4.22665e+08
-4.19102e+08
-4.15205e+08
-4.07307e+08
-3.95332e+08
-3.77366e+08
-3.48428e+08
-3.07384e+08
-2.44574e+08
-1.57312e+08
-4.02656e+07
7.00338e+07
-4.24805e+08
-4.26549e+08
-4.28454e+08
-4.28934e+08
-4.31617e+08
-4.32132e+08
-4.33076e+08
-4.3155e+08
-4.26587e+08
-4.18006e+08
-3.98727e+08
-3.70942e+08
-3.21531e+08
-2.51161e+08
-1.524e+08
-5.97445e+07
-4.26484e+08
-4.21006e+08
-4.2445e+08
-4.27283e+08
-4.3319e+08
-4.3802e+08
-4.44178e+08
-4.49482e+08
-4.52206e+08
-4.53897e+08
-4.45377e+08
-4.32641e+08
-3.98043e+08
-3.47616e+08
-2.68578e+08
-1.94261e+08
-4.20396e+08
-4.05623e+08
-4.10614e+08
-4.15805e+08
-4.24982e+08
-4.34166e+08
-4.4568e+08
-4.57969e+08
-4.68774e+08
-4.8129e+08
-4.84449e+08
-4.88454e+08
-4.6999e+08
-4.44033e+08
-3.86072e+08
-3.34331e+08
-4.04474e+08
-3.78533e+08
-3.85052e+08
-3.92556e+08
-4.04967e+08
-4.18414e+08
-4.35265e+08
-4.54424e+08
-4.73421e+08
-4.96803e+08
-5.12119e+08
-5.337e+08
-5.32197e+08
-5.35299e+08
-5.00671e+08
-4.82336e+08
-3.76858e+08
-3.37718e+08
-3.45489e+08
-3.54841e+08
-3.69879e+08
-3.86734e+08
-4.07951e+08
-4.32665e+08
-4.58685e+08
-4.91445e+08
-5.18581e+08
-5.57931e+08
-5.76245e+08
-6.12748e+08
-6.0806e+08
-6.37461e+08
-3.35642e+08
-2.79516e+08
-2.88711e+08
-3.00169e+08
-3.18093e+08
-3.38684e+08
-3.64566e+08
-3.9499e+08
-4.28149e+08
-4.69889e+08
-5.08668e+08
-5.64035e+08
-6.02831e+08
-6.70787e+08
-7.01186e+08
-7.89002e+08
-2.76968e+08
-2.14223e+08
-2.25475e+08
-2.40108e+08
-2.62161e+08
-2.88122e+08
-3.20412e+08
-3.5838e+08
-4.00334e+08
-4.51975e+08
-5.02299e+08
-5.71169e+08
-6.27223e+08
-7.20483e+08
-7.8242e+08
-9.2741e+08
-2.10872e+08
-1.61882e+08
-1.75161e+08
-1.9297e+08
-2.1908e+08
-2.50236e+08
-2.88705e+08
-3.33718e+08
-3.8391e+08
-4.44367e+08
-5.05128e+08
-5.84977e+08
-6.54192e+08
-7.63803e+08
-8.44596e+08
-1.02315e+09
-1.57668e+08
-1.2982e+08
-1.44608e+08
-1.64797e+08
-1.93952e+08
-2.28902e+08
-2.71966e+08
-3.21912e+08
-3.78038e+08
-4.44207e+08
-5.12138e+08
-5.98348e+08
-6.75995e+08
-7.92799e+08
-8.82147e+08
-1.06784e+09
-1.24905e+08
-1.17962e+08
-1.33519e+08
-1.55005e+08
-1.85818e+08
-2.22819e+08
-2.68539e+08
-3.21089e+08
-3.8067e+08
-4.49434e+08
-5.21235e+08
-6.09066e+08
-6.90168e+08
-8.05515e+08
-8.95084e+08
-1.07e+09
-1.12604e+08
-1.26853e+08
-1.42364e+08
-1.63915e+08
-1.94816e+08
-2.31917e+08
-2.7811e+08
-3.30707e+08
-3.91021e+08
-4.59114e+08
-5.31381e+08
-6.16202e+08
-6.96038e+08
-8.02321e+08
-8.85281e+08
-1.03736e+09
-1.21374e+08
-1.55222e+08
-1.70004e+08
-1.9052e+08
-2.20099e+08
-2.55518e+08
-3.00135e+08
-3.50386e+08
-4.08843e+08
-4.7326e+08
-5.42824e+08
-6.20523e+08
-6.94808e+08
-7.85769e+08
-8.56422e+08
-9.76993e+08
-1.4991e+08
-2.01076e+08
-2.147e+08
-2.33402e+08
-2.60627e+08
-2.92984e+08
-3.34306e+08
-3.80132e+08
-4.34385e+08
-4.92474e+08
-5.56437e+08
-6.23488e+08
-6.88343e+08
-7.58925e+08
-8.12402e+08
-8.95454e+08
-1.96122e+08
-2.61493e+08
-2.73854e+08
-2.90425e+08
-3.1484e+08
-3.43409e+08
-3.80312e+08
-4.20204e+08
-4.68341e+08
-5.179e+08
-5.73638e+08
-6.27008e+08
-6.78783e+08
-7.24742e+08
-7.56771e+08
-7.98632e+08
-2.56961e+08
-3.32985e+08
-3.4426e+08
-3.58833e+08
-3.80588e+08
-4.05428e+08
-4.3763e+08
-4.70982e+08
-5.11841e+08
-5.51275e+08
-5.96446e+08
-6.33437e+08
-6.68504e+08
-6.86085e+08
-6.93049e+08
-6.92522e+08
-3.28827e+08
-4.12064e+08
-4.22592e+08
-4.35578e+08
-4.55154e+08
-4.76841e+08
-5.04774e+08
-5.31988e+08
-5.654e+08
-5.93937e+08
-6.26664e+08
-6.45039e+08
-6.59939e+08
-6.45933e+08
-6.2516e+08
-5.83297e+08
-4.08148e+08
-4.94983e+08
-5.05035e+08
-5.16769e+08
-5.34397e+08
-5.53233e+08
-5.77279e+08
-5.99358e+08
-6.2659e+08
-6.45177e+08
-6.65199e+08
-6.64274e+08
-6.56511e+08
-6.08843e+08
-5.59057e+08
-4.78894e+08
-4.91173e+08
-5.77451e+08
-5.8717e+08
-5.98004e+08
-6.1395e+08
-6.30445e+08
-6.51448e+08
-6.70845e+08
-6.95689e+08
-7.07725e+08
-7.16405e+08
-6.96159e+08
-6.63255e+08
-5.81241e+08
-5.0363e+08
-3.91081e+08
-5.73696e+08
-6.63425e+08
-6.73377e+08
-6.8457e+08
-7.00425e+08
-7.16375e+08
-7.34902e+08
-7.50988e+08
-7.6416e+08
-7.59442e+08
-7.453e+08
-7.00193e+08
-6.44249e+08
-5.4452e+08
-4.60121e+08
-3.28979e+08
-6.5955e+08
-7.50565e+08
-7.57139e+08
-7.63776e+08
-7.72566e+08
-7.78653e+08
-7.818e+08
-7.75878e+08
-7.61413e+08
-7.32727e+08
-6.95019e+08
-6.36054e+08
-5.75571e+08
-4.85045e+08
-4.11609e+08
-2.91793e+08
-7.47855e+08
-7.73634e+08
-7.72258e+08
-7.68046e+08
-7.6214e+08
-7.51243e+08
-7.36269e+08
-7.10552e+08
-6.81326e+08
-6.43183e+08
-6.0158e+08
-5.46503e+08
-4.92619e+08
-4.20625e+08
-3.56039e+08
-2.64215e+08
-7.74009e+08
-7.11922e+08
-7.07211e+08
-6.98624e+08
-6.86867e+08
-6.70069e+08
-6.49775e+08
-6.23271e+08
-5.97409e+08
-5.62834e+08
-5.25305e+08
-4.7605e+08
-4.26198e+08
-3.62662e+08
-3.02573e+08
-2.32168e+08
-7.1363e+08
-6.34755e+08
-6.30318e+08
-6.22652e+08
-6.12127e+08
-5.97356e+08
-5.7935e+08
-5.55374e+08
-5.28914e+08
-4.95412e+08
-4.59685e+08
-4.15121e+08
-3.70269e+08
-3.1513e+08
-2.61856e+08
-1.98397e+08
-6.3638e+08
-5.72179e+08
-5.6697e+08
-5.58731e+08
-5.47393e+08
-5.32345e+08
-5.14334e+08
-4.91676e+08
-4.66991e+08
-4.36402e+08
-4.03914e+08
-3.64187e+08
-3.24086e+08
-2.75768e+08
-2.29242e+08
-1.73752e+08
-5.74036e+08
-5.11917e+08
-5.06772e+08
-4.99084e+08
-4.88357e+08
-4.74462e+08
-4.5771e+08
-4.36942e+08
-4.13876e+08
-3.85944e+08
-3.56395e+08
-3.21076e+08
-2.85587e+08
-2.43533e+08
-2.0327e+08
-1.55299e+08
-5.13679e+08
-4.58909e+08
-4.53747e+08
-4.46431e+08
-4.36105e+08
-4.23096e+08
-4.07416e+08
-3.88422e+08
-3.67343e+08
-3.42256e+08
-3.15798e+08
-2.84651e+08
-2.53476e+08
-2.16985e+08
-1.82336e+08
-1.41183e+08
-4.60615e+08
-4.1074e+08
-4.0579e+08
-3.99085e+08
-3.89482e+08
-3.77624e+08
-3.63264e+08
-3.46119e+08
-3.27033e+08
-3.04647e+08
-2.81109e+08
-2.53776e+08
-2.26562e+08
-1.95045e+08
-1.65354e+08
-1.30201e+08
-4.12317e+08
-3.6791e+08
-3.63209e+08
-3.57094e+08
-3.48218e+08
-3.37468e+08
-3.24409e+08
-3.09043e+08
-2.91939e+08
-2.72127e+08
-2.51357e+08
-2.27505e+08
-2.03877e+08
-1.76757e+08
-1.51396e+08
-1.21442e+08
-3.6936e+08
-3.29641e+08
-3.25259e+08
-3.19764e+08
-3.11678e+08
-3.02046e+08
-2.90299e+08
-2.76638e+08
-2.61429e+08
-2.43998e+08
-2.25777e+08
-2.05057e+08
-1.84635e+08
-1.61383e+08
-1.39785e+08
-1.14329e+08
-3.30951e+08
-2.95654e+08
-2.91612e+08
-2.86709e+08
-2.794e+08
-2.70827e+08
-2.60335e+08
-2.48266e+08
-2.34832e+08
-2.19582e+08
-2.03684e+08
-1.85759e+08
-1.68176e+08
-1.48295e+08
-1.2993e+08
-1.08296e+08
-2.96828e+08
-2.65462e+08
-2.61774e+08
-2.57435e+08
-2.50886e+08
-2.4331e+08
-2.34004e+08
-2.23404e+08
-2.11606e+08
-1.98325e+08
-1.84517e+08
-1.69065e+08
-1.53979e+08
-1.37027e+08
-1.21444e+08
-1.03085e+08
-2.66507e+08
-2.38686e+08
-2.35347e+08
-2.3153e+08
-2.25699e+08
-2.19041e+08
-2.10834e+08
-2.01569e+08
-1.91259e+08
-1.7974e+08
-1.67793e+08
-1.54515e+08
-1.41604e+08
-1.27175e+08
-1.1396e+08
-9.83596e+07
-2.39608e+08
-2.14929e+08
-2.1193e+08
-2.08591e+08
-2.03429e+08
-1.97608e+08
-1.90407e+08
-1.82344e+08
-1.73372e+08
-1.63416e+08
-1.53113e+08
-1.41732e+08
-1.30708e+08
-1.18447e+08
-1.07244e+08
-9.39762e+07
-2.15739e+08
-1.93845e+08
-1.91166e+08
-1.88258e+08
-1.83712e+08
-1.78643e+08
-1.72351e+08
-1.6536e+08
-1.5758e+08
-1.49e+08
-1.40139e+08
-1.30405e+08
-1.21008e+08
-1.106e+08
-1.01101e+08
-8.97971e+07
-1.94552e+08
-1.75106e+08
-1.72727e+08
-1.70205e+08
-1.66218e+08
-1.6182e+08
-1.56343e+08
-1.50299e+08
-1.43572e+08
-1.36197e+08
-1.28593e+08
-1.2028e+08
-1.12279e+08
-1.03445e+08
-9.53791e+07
-8.57073e+07
-1.75722e+08
-1.58423e+08
-1.5632e+08
-1.54139e+08
-1.50655e+08
-1.46851e+08
-1.42097e+08
-1.36886e+08
-1.31084e+08
-1.24757e+08
-1.18242e+08
-1.11151e+08
-1.04345e+08
-9.68499e+07
-8.99943e+07
-8.17061e+07
-1.58958e+08
-1.43534e+08
-1.41682e+08
-1.39801e+08
-1.36766e+08
-1.33483e+08
-1.29368e+08
-1.24883e+08
-1.19889e+08
-1.14467e+08
-1.08893e+08
-1.02847e+08
-9.70555e+07
-9.06886e+07
-8.48397e+07
-7.76835e+07
-1.43997e+08
-1.30208e+08
-1.28583e+08
-1.26963e+08
-1.24325e+08
-1.21498e+08
-1.17942e+08
-1.14088e+08
-1.09795e+08
-1.05154e+08
-1.00387e+08
-9.52337e+07
-9.03045e+07
-8.48918e+07
-7.98912e+07
-7.36931e+07
-1.30607e+08
-1.18242e+08
-1.16818e+08
-1.15426e+08
-1.13138e+08
-1.10706e+08
-1.07637e+08
-1.04329e+08
-1.00641e+08
-9.6669e+07
-9.25931e+07
-8.81972e+07
-8.39966e+07
-7.93844e+07
-7.50881e+07
-6.96788e+07
-1.18585e+08
-1.07456e+08
-1.06212e+08
-1.05017e+08
-1.03034e+08
-1.00944e+08
-9.82971e+07
-9.54578e+07
-9.22909e+07
-8.88904e+07
-8.54032e+07
-8.16494e+07
-7.80637e+07
-7.41235e+07
-7.04144e+07
-6.56604e+07
-1.07751e+08
-9.76946e+07
-9.66095e+07
-9.55833e+07
-9.38666e+07
-9.20698e+07
-8.97882e+07
-8.73506e+07
-8.46297e+07
-8.17159e+07
-7.87288e+07
-7.55172e+07
-7.24485e+07
-6.90703e+07
-6.5849e+07
-6.16393e+07
-9.79492e+07
-8.88245e+07
-8.78785e+07
-8.6997e+07
-8.55106e+07
-8.39652e+07
-8.19972e+07
-7.99022e+07
-7.75621e+07
-7.50612e+07
-7.24975e+07
-6.97422e+07
-6.71065e+07
-6.41961e+07
-6.13757e+07
-5.76063e+07
-8.90437e+07
-8.07294e+07
-7.99047e+07
-7.91465e+07
-7.78587e+07
-7.65276e+07
-7.48281e+07
-7.30244e+07
-7.10082e+07
-6.88566e+07
-6.66504e+07
-6.4279e+07
-6.20063e+07
-5.94874e+07
-5.70022e+07
-5.3606e+07
-8.09183e+07
-7.33096e+07
-7.25901e+07
-7.19367e+07
-7.08193e+07
-6.96703e+07
-6.81997e+07
-6.66429e+07
-6.49011e+07
-6.3044e+07
-6.11387e+07
-5.90886e+07
-5.71183e+07
-5.49235e+07
-5.27119e+07
-4.96144e+07
-7.34726e+07
-6.64799e+07
-6.58514e+07
-6.52865e+07
-6.43148e+07
-6.33199e+07
-6.20439e+07
-6.06954e+07
-5.91856e+07
-5.75761e+07
-5.59235e+07
-5.41424e+07
-5.24248e+07
-5.05005e+07
-4.85174e+07
-4.56729e+07
-6.6621e+07
-6.0168e+07
-5.96177e+07
-5.91273e+07
-5.82797e+07
-5.74146e+07
-5.63033e+07
-5.513e+07
-5.38154e+07
-5.24134e+07
-5.09723e+07
-4.94154e+07
-4.79074e+07
-4.6207e+07
-4.4411e+07
-4.17725e+07
-6.02906e+07
-5.43124e+07
-5.38291e+07
-5.3401e+07
-5.26586e+07
-5.19025e+07
-5.09299e+07
-4.99033e+07
-4.87525e+07
-4.75237e+07
-4.62589e+07
-4.48886e+07
-4.35544e+07
-4.20395e+07
-4.03977e+07
-3.79287e+07
-5.44196e+07
-4.88612e+07
-4.8435e+07
-4.80588e+07
-4.74052e+07
-4.67398e+07
-4.58837e+07
-4.49793e+07
-4.39651e+07
-4.28804e+07
-4.1762e+07
-4.05463e+07
-3.93557e+07
-3.79942e+07
-3.64793e+07
-3.4152e+07
-4.89555e+07
-4.3771e+07
-4.33933e+07
-4.30599e+07
-4.24808e+07
-4.18906e+07
-4.11316e+07
-4.03284e+07
-3.94276e+07
-3.84617e+07
-3.74641e+07
-3.63757e+07
-3.53028e+07
-3.40671e+07
-3.26549e+07
-3.04411e+07
-4.38546e+07
-3.90055e+07
-3.86685e+07
-3.83702e+07
-3.78532e+07
-3.73248e+07
-3.66462e+07
-3.59259e+07
-3.51184e+07
-3.42499e+07
-3.33513e+07
-3.23671e+07
-3.13902e+07
-3.02579e+07
-2.89303e+07
-2.68131e+07
-3.90804e+07
-3.45345e+07
-3.42317e+07
-3.39617e+07
-3.3496e+07
-3.30177e+07
-3.2405e+07
-3.1752e+07
-3.10204e+07
-3.02306e+07
-2.94119e+07
-2.85117e+07
-2.76118e+07
-2.65627e+07
-2.53019e+07
-2.32614e+07
-3.46023e+07
-3.03335e+07
-3.00591e+07
-2.98115e+07
-2.93878e+07
-2.89493e+07
-2.83899e+07
-2.77905e+07
-2.71197e+07
-2.63925e+07
-2.56371e+07
-2.48034e+07
-2.39642e+07
-2.29812e+07
-2.1773e+07
-1.97949e+07
-3.03958e+07
-2.63824e+07
-2.61315e+07
-2.59011e+07
-2.55112e+07
-2.51038e+07
-2.45866e+07
-2.40289e+07
-2.34055e+07
-2.27265e+07
-2.20198e+07
-2.12371e+07
-2.04435e+07
-1.95111e+07
-1.83422e+07
-1.64129e+07
-2.64405e+07
-2.26655e+07
-2.24337e+07
-2.22161e+07
-2.18529e+07
-2.14688e+07
-2.09841e+07
-2.04574e+07
-1.98696e+07
-1.92261e+07
-1.85549e+07
-1.7809e+07
-1.70475e+07
-1.61512e+07
-1.50083e+07
-1.31133e+07
-2.27205e+07
-1.91705e+07
-1.89542e+07
-1.87453e+07
-1.84027e+07
-1.8035e+07
-1.75744e+07
-1.70692e+07
-1.65065e+07
-1.5887e+07
-1.52391e+07
-1.45171e+07
-1.37751e+07
-1.29012e+07
-1.17724e+07
-9.89965e+06
-1.92233e+07
-1.58883e+07
-1.56843e+07
-1.54808e+07
-1.51534e+07
-1.4796e+07
-1.43519e+07
-1.386e+07
-1.33129e+07
-1.27068e+07
-1.20712e+07
-1.13607e+07
-1.06257e+07
-9.76075e+06
-8.6332e+06
-6.76815e+06
-1.59399e+07
-1.28124e+07
-1.26182e+07
-1.2417e+07
-1.21002e+07
-1.17481e+07
-1.13138e+07
-1.08277e+07
-1.02876e+07
-9.68538e+06
-9.05158e+06
-8.3409e+06
-7.60099e+06
-6.73151e+06
-5.59255e+06
-3.72133e+06
-1.28636e+07
-9.93879e+06
-9.75213e+06
-9.55083e+06
-9.24078e+06
-8.8895e+06
-8.45949e+06
-7.97275e+06
-7.43198e+06
-6.82478e+06
-6.18294e+06
-5.46072e+06
-4.70388e+06
-3.81602e+06
-2.65215e+06
-759707
-9.99003e+06
-7.26524e+06
-7.08453e+06
-6.88119e+06
-6.57479e+06
-6.2208e+06
-5.79028e+06
-5.29746e+06
-4.74934e+06
-4.12932e+06
-3.47025e+06
-2.7255e+06
-1.93948e+06
-1.0184e+06
185818
2.1187e+06
-7.31706e+06
-4.79119e+06
-4.61526e+06
-4.40855e+06
-4.1035e+06
-3.74421e+06
-3.30956e+06
-2.80639e+06
-2.2454e+06
-1.60584e+06
-921211
-143596
683769
1.65314e+06
2.9137e+06
4.90598e+06
-4.84389e+06
-2.51717e+06
-2.34533e+06
-2.13456e+06
-1.82948e+06
-1.4634e+06
-1.02227e+06
-505918
71998.7
736312
1.45365e+06
2.27361e+06
3.15464e+06
4.18872e+06
5.52494e+06
7.60257e+06
-2.57087e+06
-444340
-276378
-61635.3
243872
616936
1.06537e+06
1.59594e+06
2.19286e+06
2.88504e+06
3.64028e+06
4.51022e+06
5.45639e+06
6.57136e+06
8.00416e+06
1.0196e+07
-498967
1.42604e+06
1.58985e+06
1.80766e+06
2.11286e+06
2.49165e+06
2.94639e+06
3.49002e+06
4.10546e+06
4.82574e+06
5.62114e+06
6.54579e+06
7.56679e+06
8.77801e+06
1.03307e+07
1.26713e+07
1.37078e+06
3.09324e+06
3.25213e+06
3.47122e+06
3.77421e+06
4.15583e+06
4.61377e+06
5.16665e+06
5.79687e+06
6.54152e+06
7.3749e+06
8.35407e+06
9.45561e+06
1.07748e+07
1.24723e+07
1.49999e+07
3.03783e+06
4.55725e+06
4.71002e+06
4.92777e+06
5.22544e+06
5.60536e+06
6.06115e+06
6.61651e+06
7.25379e+06
8.01415e+06
8.87702e+06
9.9032e+06
1.10838e+07
1.25156e+07
1.43853e+07
1.71397e+07
4.50238e+06
5.82106e+06
5.96611e+06
6.17911e+06
6.46725e+06
6.8393e+06
7.2853e+06
7.83321e+06
8.46525e+06
9.22644e+06
1.01015e+07
1.11563e+07
1.24014e+07
1.39393e+07
1.60153e+07
1.90656e+07
5.76756e+06
6.88943e+06
7.02487e+06
7.22911e+06
7.50263e+06
7.85935e+06
8.28595e+06
8.81351e+06
9.42341e+06
1.01635e+07
1.10219e+07
1.20706e+07
1.33388e+07
1.4947e+07
1.72289e+07
2.06606e+07
6.83825e+06
7.7479e+06
7.8723e+06
8.06445e+06
8.31911e+06
8.65408e+06
9.05283e+06
9.54818e+06
1.01194e+07
1.08154e+07
1.16232e+07
1.2619e+07
1.38393e+07
1.54288e+07
1.77934e+07
2.15396e+07
7.69975e+06
8.53948e+06
8.64845e+06
8.82089e+06
9.04654e+06
9.34571e+06
9.69824e+06
1.01365e+07
1.06349e+07
1.12374e+07
1.19188e+07
1.27413e+07
1.3705e+07
1.49209e+07
1.67036e+07
1.95072e+07
8.49622e+06
8.8389e+06
8.9367e+06
9.09403e+06
9.29833e+06
9.57086e+06
9.88989e+06
1.02874e+07
1.0735e+07
1.12741e+07
1.1872e+07
1.25792e+07
1.33609e+07
1.42726e+07
1.53768e+07
1.74433e+07
8.79939e+06
)
;

boundaryField
{
    wireUpstream
    {
        type            zeroGradient;
    }
    wireDownstream
    {
        type            zeroGradient;
    }
    wireTopContact
    {
        type            zeroGradient;
    }
    front
    {
        type            wedge;
    }
    back
    {
        type            wedge;
    }
}


// ************************************************************************* //
