/*--------------------------------*- C++ -*----------------------------------*\
| =========                 |                                                 |
| \\      /  F ield         | foam-extend: Open Source CFD                    |
|  \\    /   O peration     | Version:     4.1-20200408                       |
|   \\  /    A nd           | Web:         http://www.foam-extend.org         |
|    \\/     M anipulation  |                                                 |
\*---------------------------------------------------------------------------*/
FoamFile
{
    version     2.0;
    format      ascii;
    class       volScalarField;
    location    "0.0410000";
    object      epsilonPEq;
}
// * * * * * * * * * * * * * * * * * * * * * * * * * * * * * * * * * * * * * //

dimensions      [0 0 0 0 0 0 0];

internalField   nonuniform List<scalar> 
1952
(
0.0340571
0.0341079
0.0342093
0.0343104
0.0344353
0.0345267
0.0345915
0.0345393
0.0343798
0.0339233
0.0331717
0.0318812
0.0301319
0.0279987
0.0265862
0.0340123
0.0341325
0.0341833
0.0342849
0.0343862
0.0345113
0.0346031
0.0346679
0.0346154
0.0344553
0.0339978
0.0332439
0.031954
0.0302025
0.0280675
0.0266555
0.0340875
0.0342077
0.0342586
0.0343605
0.034462
0.0345873
0.0346794
0.0347443
0.0346914
0.0345308
0.0340723
0.0333163
0.0320268
0.0302731
0.0281364
0.0267248
0.0341627
0.0342829
0.0343339
0.0344359
0.0345377
0.0346633
0.0347557
0.0348205
0.0347674
0.0346064
0.0341468
0.0333886
0.0320996
0.0303438
0.0282053
0.0267941
0.0342377
0.034358
0.0344091
0.0345113
0.0346133
0.0347392
0.0348319
0.0348968
0.0348434
0.0346819
0.0342213
0.033461
0.0321725
0.0304145
0.0282743
0.0268634
0.0343127
0.034433
0.0344842
0.0345867
0.0346889
0.034815
0.0349082
0.0349729
0.0349194
0.0347574
0.0342959
0.0335334
0.0322454
0.0304852
0.0283431
0.0269327
0.0343877
0.0345082
0.0345594
0.0346621
0.0347644
0.0348909
0.0349843
0.035049
0.0349955
0.034833
0.0343705
0.0336058
0.0323181
0.0305557
0.0284119
0.0270019
0.0344627
0.0345831
0.0346345
0.0347374
0.0348398
0.0349666
0.0350602
0.0351249
0.0350715
0.0349085
0.0344449
0.033678
0.0323907
0.0306261
0.0284805
0.0270713
0.0345376
0.034658
0.0347095
0.0348126
0.0349152
0.0350424
0.0351361
0.0352004
0.0351475
0.0349839
0.0345191
0.0337502
0.0324633
0.0306965
0.0285491
0.0271407
0.0346123
0.0347328
0.0347843
0.0348878
0.0349906
0.0351181
0.0352118
0.0352762
0.0352234
0.0350592
0.0345933
0.0338223
0.0325358
0.0307669
0.028618
0.0272103
0.034687
0.0348074
0.0348591
0.0349627
0.0350659
0.0351936
0.0352875
0.0353523
0.0352992
0.0351344
0.0346675
0.0338978
0.0326089
0.0308374
0.0286872
0.0272798
0.0347616
0.0348822
0.034934
0.0350378
0.0351412
0.0352692
0.0353633
0.0354285
0.0353753
0.03521
0.034742
0.0339743
0.0326829
0.0309084
0.0287562
0.0273489
0.0348362
0.034957
0.035009
0.035113
0.0352168
0.0353451
0.0354395
0.0355052
0.035452
0.035286
0.0348168
0.0340501
0.0327568
0.0309793
0.028825
0.0274182
0.0349109
0.0350317
0.0350838
0.0351882
0.0352922
0.0354209
0.0355157
0.0355818
0.0355285
0.0353619
0.0348911
0.0341257
0.0328308
0.0310502
0.028894
0.0274876
0.0349855
0.0351065
0.0351588
0.0352635
0.0353679
0.0354969
0.035592
0.0356584
0.035605
0.0354378
0.0349653
0.0342011
0.0329049
0.0311213
0.028963
0.0275571
0.0350602
0.0351816
0.0352341
0.035339
0.0354437
0.0355731
0.0356685
0.0357352
0.0356815
0.0355137
0.0350396
0.0342764
0.0329789
0.0311923
0.0290321
0.0276266
0.0351352
0.0352568
0.0353094
0.0354146
0.0355196
0.0356493
0.0357449
0.0358118
0.0357579
0.0355894
0.0351136
0.0343515
0.0330527
0.0312632
0.0291011
0.0276962
0.0352103
0.0353322
0.0353849
0.0354904
0.0355956
0.0357255
0.0358213
0.0358885
0.0358343
0.0356651
0.0351877
0.0344266
0.0331266
0.031334
0.0291702
0.0277659
0.0352855
0.0354077
0.0354605
0.0355662
0.0356716
0.0358018
0.0358977
0.0359651
0.0359106
0.0357408
0.0352617
0.0345017
0.0332004
0.0314049
0.0292393
0.0278355
0.0353609
0.0354832
0.0355362
0.035642
0.0357476
0.035878
0.0359741
0.0360417
0.035987
0.0358165
0.0353358
0.0345768
0.0332742
0.0314758
0.0293085
0.0279052
0.0354363
0.0355588
0.0356118
0.0357178
0.0358236
0.0359542
0.0360505
0.0361183
0.0360633
0.0358922
0.0354098
0.0346519
0.0333481
0.0315468
0.0293777
0.0279749
0.0355118
0.0356343
0.0356874
0.0357936
0.0358996
0.0360305
0.0361269
0.036195
0.0361397
0.0359679
0.035484
0.0347271
0.033422
0.0316177
0.0294469
0.0280447
0.0355872
0.0357097
0.0357629
0.0358694
0.0359756
0.0361066
0.0362033
0.0362716
0.0362161
0.0360436
0.0355581
0.0348023
0.033496
0.0316887
0.0295161
0.0281147
0.0356626
0.0357851
0.0358385
0.0359451
0.0360515
0.0361828
0.0362797
0.0363482
0.0362925
0.0361194
0.0356323
0.0348774
0.0335699
0.0317597
0.0295853
0.0281846
0.0357379
0.0358605
0.0359139
0.0360207
0.0361274
0.0362589
0.036356
0.0364248
0.0363689
0.036195
0.0357083
0.0349528
0.0336438
0.0318306
0.0296546
0.0282547
0.0358131
0.0359357
0.0359892
0.0360963
0.0362032
0.036335
0.0364323
0.0365014
0.0364452
0.0362707
0.0357859
0.0350287
0.0337179
0.0319017
0.0297241
0.0283248
0.0358882
0.036011
0.0360647
0.036172
0.0362791
0.0364113
0.0365088
0.0365783
0.0365219
0.0363466
0.0358635
0.0351051
0.0337924
0.0319729
0.0297934
0.0283947
0.0359634
0.0360864
0.0361402
0.0362478
0.0363553
0.0364878
0.0365857
0.0366555
0.0365989
0.0364226
0.0359407
0.0351815
0.0338668
0.032044
0.0298626
0.0284646
0.0360387
0.0361618
0.0362158
0.0363237
0.0364315
0.0365643
0.0366624
0.0367325
0.0366757
0.0364982
0.0360177
0.0352579
0.0339412
0.0321151
0.029932
0.0285346
0.036114
0.0362374
0.0362915
0.0363996
0.0365077
0.0366408
0.0367392
0.0368095
0.0367524
0.0365737
0.0360946
0.0353343
0.0340156
0.0321863
0.0300014
0.0286046
0.0361894
0.0363131
0.0363673
0.0364757
0.036584
0.0367174
0.036816
0.0368865
0.036829
0.0366493
0.0361714
0.0354107
0.0340901
0.0322575
0.0300708
0.0286746
0.036265
0.0363889
0.0364432
0.0365519
0.0366604
0.036794
0.0368928
0.0369634
0.0369057
0.0367248
0.0362482
0.035487
0.0341646
0.0323288
0.0301403
0.0287448
0.0363407
0.0364648
0.0365192
0.0366281
0.0367368
0.0368706
0.0369696
0.0370403
0.0369824
0.0368003
0.036325
0.0355634
0.034239
0.0324001
0.0302098
0.028815
0.0364165
0.0365407
0.0365953
0.0367043
0.0368132
0.0369472
0.0370464
0.0371173
0.037059
0.0368759
0.0364018
0.0356397
0.0343135
0.0324714
0.0302794
0.0288852
0.0364924
0.0366167
0.0366713
0.0367805
0.0368897
0.0370238
0.0371232
0.0371943
0.0371357
0.0369514
0.0364785
0.0357161
0.0343879
0.0325427
0.0303489
0.0289554
0.0365682
0.0366926
0.0367473
0.0368567
0.0369661
0.0371004
0.0372
0.0372712
0.0372124
0.037027
0.0365553
0.0357925
0.0344624
0.032614
0.0304185
0.0290257
0.036644
0.0367685
0.0368233
0.0369328
0.0370424
0.037177
0.0372768
0.0373482
0.0372891
0.0371026
0.0366322
0.0358689
0.0345369
0.0326854
0.0304882
0.029096
0.0367198
0.0368443
0.0368992
0.037009
0.0371188
0.0372536
0.0373536
0.0374252
0.0373658
0.0371782
0.036709
0.0359454
0.0346115
0.0327569
0.0305578
0.0291662
0.0367955
0.0369201
0.0369751
0.0370851
0.0371952
0.0373302
0.0374304
0.0375022
0.0374425
0.0372538
0.0367858
0.0360217
0.034686
0.0328282
0.0306273
0.0292365
0.0368712
0.0369958
0.0370509
0.0371611
0.0372714
0.0374067
0.0375071
0.0375791
0.0375191
0.0373294
0.0368625
0.036098
0.0347604
0.0328995
0.0306968
0.0293067
0.0369468
0.0370715
0.0371267
0.0372371
0.0373476
0.0374831
0.0375838
0.0376559
0.0375957
0.0374048
0.0369392
0.0361743
0.0348348
0.0329708
0.0307663
0.029377
0.0370224
0.0371471
0.0372024
0.037313
0.0374238
0.0375595
0.0376604
0.0377327
0.0376722
0.0374803
0.0370159
0.0362506
0.0349092
0.033042
0.0308358
0.0294473
0.0370978
0.0372226
0.037278
0.0373889
0.0374998
0.0376358
0.0377369
0.0378094
0.0377487
0.0375556
0.0370925
0.0363268
0.0349835
0.0331132
0.0309054
0.0295176
0.0371733
0.037298
0.0373536
0.0374646
0.0375758
0.037712
0.0378134
0.0378861
0.0378251
0.0376325
0.0371694
0.0364031
0.0350579
0.0331845
0.0309748
0.0295878
0.0372486
0.0373734
0.0374291
0.0375404
0.0376519
0.0377883
0.03789
0.0379629
0.0379016
0.0377108
0.0372465
0.0364792
0.0351321
0.0332556
0.0310442
0.029658
0.0373239
0.0374488
0.0375046
0.0376161
0.0377279
0.0378646
0.0379666
0.0380397
0.037978
0.037789
0.0373237
0.0365555
0.0352063
0.0333266
0.0311136
0.0297281
0.0373991
0.0375241
0.0375801
0.0376919
0.037804
0.037941
0.0380433
0.0381165
0.0380543
0.0378669
0.0374012
0.036632
0.0352806
0.0333978
0.0311829
0.029798
0.0374744
0.0375996
0.0376557
0.0377678
0.0378802
0.0380175
0.03812
0.0381935
0.0381305
0.0379445
0.0374787
0.0367084
0.0353548
0.0334688
0.0312521
0.029868
0.0375497
0.0376751
0.0377314
0.0378437
0.0379563
0.0380939
0.0381966
0.0382702
0.0382066
0.038022
0.0375561
0.0367848
0.0354291
0.0335399
0.0313213
0.029938
0.0376251
0.0377507
0.0378071
0.0379196
0.0380325
0.0381703
0.0382732
0.0383469
0.0382826
0.0380993
0.0376333
0.0368611
0.0355033
0.0336109
0.0313904
0.0300079
0.0377006
0.0378263
0.0378828
0.0379955
0.0381086
0.0382466
0.0383496
0.0384234
0.0383585
0.0381765
0.0377104
0.0369372
0.0355773
0.0336818
0.0314595
0.030078
0.0377761
0.0379018
0.0379583
0.0380713
0.0381845
0.0383227
0.0384258
0.0384998
0.0384342
0.0382536
0.0377874
0.0370133
0.0356514
0.0337527
0.0315287
0.030148
0.0378515
0.0379773
0.0380339
0.038147
0.0382604
0.0383988
0.0385021
0.0385762
0.0385099
0.0383307
0.0378645
0.0370894
0.0357255
0.0338237
0.0315979
0.0301417
0.0379269
0.0380527
0.0381094
0.0382226
0.0383363
0.0384749
0.0385783
0.0386525
0.0385856
0.0384078
0.0379415
0.0371655
0.0357997
0.0338946
0.0316672
0.0299912
0.0380022
0.0381279
0.0381847
0.0382982
0.0384121
0.0385509
0.0386545
0.0387289
0.0386614
0.0384849
0.0380186
0.0372417
0.0358738
0.0339657
0.0317364
0.0296356
0.0380773
0.0382031
0.03826
0.0383737
0.0384878
0.0386269
0.0387306
0.0388052
0.0387371
0.038562
0.0380956
0.0373178
0.035948
0.0340367
0.0315925
0.0289765
0.0381524
0.0382782
0.0383352
0.0384492
0.0385635
0.0387028
0.0388067
0.0388815
0.0388128
0.0386015
0.0380633
0.0372067
0.0357388
0.0337343
0.0310025
0.0280071
0.0382274
0.0382396
0.0382779
0.0383589
0.0384327
0.0385134
0.038547
0.0385308
0.038362
0.03803
0.037369
0.0363749
0.0347839
0.0326881
0.0298351
0.0267308
0.0381975
0.0377015
0.0377083
0.0377369
0.0377439
0.0377346
0.037662
0.037516
0.0372081
0.0367223
0.0359192
0.0347704
0.0330671
0.0308929
0.0280593
0.0250624
0.0376734
0.036484
0.0364554
0.0364266
0.0363598
0.0362554
0.0360728
0.0357985
0.0353578
0.0347289
0.0338017
0.0325259
0.0307622
0.0285629
0.0258771
0.0231531
0.0364715
0.0345066
0.0344485
0.0343719
0.0342439
0.0340619
0.033791
0.0334158
0.0328741
0.0321402
0.0311336
0.0297897
0.0280432
0.0259107
0.0234933
0.0211622
0.0345074
0.03179
0.0317132
0.0316062
0.0314399
0.0312098
0.0308859
0.0304521
0.0298558
0.0290709
0.0280424
0.0266996
0.0250456
0.0230674
0.0209997
0.0191319
0.0317993
0.0284692
0.0283817
0.0282583
0.0280726
0.0278202
0.0274755
0.0270234
0.0264183
0.0256359
0.0246405
0.0233649
0.0218651
0.020112
0.0184465
0.0170858
0.0284829
0.0247562
0.0246586
0.024522
0.024323
0.02406
0.0237118
0.0232676
0.0226857
0.0219466
0.0210276
0.0198736
0.018575
0.0171043
0.0158792
0.0150561
0.0247733
0.0208883
0.0207749
0.0206186
0.0204002
0.0201225
0.0197699
0.0193385
0.0187893
0.0181134
0.017296
0.0163026
0.0152392
0.0140977
0.0133423
0.0130733
0.0209109
0.0170764
0.0169405
0.016756
0.0165077
0.0162039
0.0158342
0.0154022
0.0148719
0.0142536
0.0135399
0.0127268
0.01192
0.0111464
0.0108811
0.0111647
0.017107
0.0134695
0.0133104
0.0130956
0.0128132
0.0124768
0.0120789
0.0116289
0.0110916
0.0105043
0.00987135
0.00923182
0.00868394
0.00830172
0.0085302
0.00934218
0.0135092
0.0101473
0.0099751
0.00974035
0.00943228
0.00906967
0.00864651
0.00817473
0.00761672
0.00703301
0.00644115
0.00593741
0.00561705
0.00561249
0.0062973
0.00758001
0.0101931
0.00714097
0.00697542
0.00674348
0.00643158
0.00606085
0.00562522
0.00513935
0.00456943
0.00399212
0.00342511
0.00301737
0.00286489
0.00315389
0.00416806
0.00579817
0.00718487
0.00443002
0.00428821
0.00408254
0.0037921
0.00343503
0.0029988
0.00250697
0.00195719
0.00148547
0.00105908
0.000799394
0.00076742
0.0011372
0.00219706
0.00393564
0.00446584
0.00193891
0.00183305
0.00168332
0.00146356
0.00118729
0.000836498
0.000446056
5.2652e-05
0
0
0
0
0
0.000646588
0.00212356
0.00196909
7.70342e-06
0
0
0
0
0
0
0
0
0
0
0
0
0
0.000688087
3.29744e-05
0
0
0
0
0
0
0
0
0
0
0
0
0
0
0
0
0
0
0
0
0
0
0
0
0
0
0
0
0
0
0
0
0
0
0
0
0
0
0
0
0
0
0
0
0
0
0
0
0
0
0
0
0
0
0
0
0
0
0
0
0
0
0
0
0
0
0
0
0
0
0
0
0
0
0
0
0
0
0
0
0
0
0
0
0
0
0
0
0
0
0
0
0
0
0
0
0
0
0
0
0
0
0
0
0
0
0
0
0
0
0
0
0
0
0
0
0
0
0
0
0
0
0
0
0
0
0
0
0
0
0
0
0
0
0
0
0
0
0
0
0
0
0
0
0
0
0
0
0
0
0
0
0
0
0
0
0
0
0
0
0
0
0
0
0
0
0
0
0
0
0
0
0
0
0
0
0
0
0
0
0
0
0
0
0
0
0
0
0
0
0
0
0
0
0
0
0
0
0
0
0
0
0
0
0
0
0
0
0
0
0
0
0
0
0
0
0
0
0
0
0
0
0
0
0
0
0
0
0
0
0
0
0
0
0
0
0
0
0
0
0
0
0
0
0
0
0
0
0
0
0
0
0
0
0
0
0
0
0
0
0
0
0
0
0
0
0
0
0
0
0
0
0
0
0
0
0
0
0
0
0
0
0
0
0
0
0
0
0
0
0
0
0
0
0
0
0
0
0
0
0
0
0
0
0
0
0
0
0
0
0
0
0
0
0
0
0
0
0
0
0
0
0
0
0
0
0
0
0
0
0
0
0
0
0
0
0
0
0
0
0
0
0
0
0
0
0
0
0
0
0
0
0
0
0
0
0
0
0
0
0
0
0
0
0
0
0
0
0
0
0
0
0
0
0
0
0
0
0
0
0
0
0
0
0
0
0
0
0
0
0
0
0
0
0
0
0
0
0
0
0
0
0
0
0
0
0
0
0
0
0
0
0
0
0
0
0
0
0
0
0
0
0
0
0
0
0
0
0
0
0
0
0
0
0
0
0
0
0
0
0
0
0
0
0
0
0
0
0
0
0
0
0
0
0
0
0
0
0
0
0
0
0
0
0
0
0
0
0
0
0
0
0
0
0
0
0
0
0
0
0
0
0
0
0
0
0
0
0
0
0
0
0
0
0
0
0
0
0
0
0
0
0
0
0
0
0
0
0
0
0
0
0
0
0
0
0
0
0
0
0
0
0
0
0
0
0
0
0
0
0
0
0
0
0
0
0
0
0
0
0
0
0
0
0
0
0
0
0
0
0
0
0
0
0
0
0
0
0
0
0
0
0
0
0
0
0
0
0
0
0
0
0
0
0
0
0
0
0
0
0
0
0
0
0
0
0
0
0
0
0
0
0
0
0
0
0
0
0
0
0
0
0
0
0
0
0
0
0
0
0
0
0
0
0
0
0
0
0
0
0
0
0
0
0
0
0
0
0
0
0
0
0
0
0
0
0
0
0
0
0
0
0
0
0
0
0
0
0
0
0
0
0
0
0
0
0
0
0
0
0
0
0
0
0
0
0
0
0
0
0
0
0
0
0
0
0
0
0
0
0
0
0
0
0
0
0
0
0
0
0
0
0
0
0
0
0
0
0
0
0
0
0
0
0
0
0
0
0
0
0
0
0
0
0
0
0
0
0
0
0
0
0
0
0
0
0
0
0
0
0
0
0
0
0
0
0
0
0
0
0
0
0
0
0
0
0
0
0
0
0
0
0
0
0
0
0
0
0
0
0
0
0
0
0
0
0
0
0
0
0
0
0
0
0
0
0
0
0
0
0
0
0
0
0
0
0
0
0
0
0
0
0
0
0
0
0
0
0
0
)
;

boundaryField
{
    wireUpstream
    {
        type            calculated;
        value           uniform 0;
    }
    wireDownstream
    {
        type            calculated;
        value           nonuniform List<scalar> 
16
(
0.0340571
0.0341079
0.0342093
0.0343104
0.0344353
0.0345267
0.0345915
0.0345393
0.0343798
0.0339233
0.0331717
0.0318812
0.0301319
0.0279987
0.0265862
0.0340123
)
;
    }
    wireTopContact
    {
        type            calculated;
        value           nonuniform List<scalar> 
122
(
0.0265366
0.0266057
0.0266747
0.0267438
0.0268128
0.0268818
0.026951
0.0270202
0.0270895
0.0271588
0.0272277
0.0272968
0.027366
0.0274353
0.0275046
0.027574
0.0276434
0.0277128
0.0277823
0.0278518
0.0279213
0.0279911
0.0280608
0.0281307
0.0282005
0.0282702
0.0283398
0.0284095
0.0284793
0.0285491
0.0286191
0.028689
0.0287591
0.0288291
0.0288991
0.0289692
0.0290392
0.0291092
0.0291793
0.0292493
0.0293194
0.0293895
0.0294595
0.0295295
0.0295993
0.0296691
0.0297388
0.0298086
0.0298783
0.0299482
0.030018
0.0300109
0.0298508
0.0294784
0.0288065
0.027838
0.0265953
0.024947
0.0230387
0.021042
0.0190042
0.0169526
0.014923
0.0129473
0.0110532
0.00925253
0.00751929
0.0057709
0.00393808
0.00213976
0.000696646
0
0
0
0
0
0
0
0
0
0
0
0
0
0
0
0
0
0
0
0
0
0
0
0
0
0
0
0
0
0
0
0
0
0
0
0
0
0
0
0
0
0
0
0
0
0
0
0
0
0
0.0264676
)
;
    }
    front
    {
        type            wedge;
    }
    back
    {
        type            wedge;
    }
}


// ************************************************************************* //
