/*--------------------------------*- C++ -*----------------------------------*\
| =========                 |                                                 |
| \\      /  F ield         | foam-extend: Open Source CFD                    |
|  \\    /   O peration     | Version:     4.1-20200408                       |
|   \\  /    A nd           | Web:         http://www.foam-extend.org         |
|    \\/     M anipulation  |                                                 |
\*---------------------------------------------------------------------------*/
FoamFile
{
    version     2.0;
    format      ascii;
    class       volSymmTensorField;
    location    "0.0410000";
    object      epsilonTrue;
}
// * * * * * * * * * * * * * * * * * * * * * * * * * * * * * * * * * * * * * //

dimensions      [0 0 0 0 0 0 0];

internalField   nonuniform List<symmTensor> 
1952
(
(0.0473494 -0.0020008 -7.19055e-11 -0.0248604 2.59222e-10 -0.024898)
(0.0473508 -0.00336444 -3.45767e-11 -0.0248158 -7.25062e-10 -0.0248688)
(0.0473577 -0.00456725 4.41975e-11 -0.0247282 -1.94622e-09 -0.0248555)
(0.0473631 -0.00570708 1.32591e-10 -0.0246442 1.47314e-09 -0.0248123)
(0.0473737 -0.00671293 -4.79589e-11 -0.0245117 3.83733e-09 -0.0247858)
(0.0473846 -0.0075541 -2.67787e-10 -0.0243863 -1.61852e-10 -0.0247276)
(0.0474006 -0.00822914 -1.36785e-10 -0.0242025 -4.44575e-09 -0.0246875)
(0.0474159 -0.00867437 1.96346e-10 -0.0240101 -3.17323e-10 -0.0246122)
(0.0474392 -0.00883288 -1.4053e-11 -0.0237548 3.89943e-09 -0.0245522)
(0.047463 -0.00865866 -3.4879e-10 -0.023442 -1.27901e-09 -0.0244549)
(0.0474909 -0.00797317 6.64484e-11 -0.0230655 -3.94614e-09 -0.0243631)
(0.0475168 -0.0068397 3.09623e-10 -0.0225227 9.83722e-10 -0.0242342)
(0.0475425 -0.00516879 -2.95749e-11 -0.0218803 3.86842e-09 -0.0240894)
(0.0475645 -0.00311196 -2.48193e-10 -0.0210363 2.83954e-10 -0.0239071)
(0.0475824 -0.00139903 -1.45597e-10 -0.0205598 -1.31409e-09 -0.0236931)
(0.0473447 -0.00103029 -2.69554e-11 -0.0249015 -1.48238e-09 -0.0248838)
(0.0474351 -0.00200185 -1.02856e-10 -0.0249022 2.59637e-10 -0.0249392)
(0.0474364 -0.00337271 -5.60388e-11 -0.0248563 -7.26384e-10 -0.0249105)
(0.0474435 -0.00457138 6.64015e-11 -0.0247686 -1.94939e-09 -0.0248964)
(0.0474483 -0.00571792 1.9703e-10 -0.0246835 1.47606e-09 -0.0248534)
(0.0474593 -0.00671968 -6.81453e-11 -0.0245503 3.84364e-09 -0.0248261)
(0.0474699 -0.00756591 -3.67909e-10 -0.024424 -1.62674e-10 -0.024768)
(0.0474865 -0.0082357 -1.60542e-10 -0.0242391 -4.45283e-09 -0.0247271)
(0.0475018 -0.00868341 2.50609e-10 -0.0240458 -3.17132e-10 -0.0246517)
(0.0475262 -0.00883709 -2.4943e-11 -0.0237894 3.90566e-09 -0.024591)
(0.0475505 -0.00866019 -4.16689e-10 -0.0234771 -1.28148e-09 -0.0244935)
(0.0475795 -0.00796967 6.75391e-11 -0.0231001 -3.95247e-09 -0.0244013)
(0.0476071 -0.00683175 3.53507e-10 -0.0225584 9.85374e-10 -0.0242722)
(0.0476355 -0.00515716 -3.53417e-11 -0.021917 3.87455e-09 -0.0241273)
(0.0476605 -0.00309463 -3.10069e-10 -0.0210766 2.84591e-10 -0.023945)
(0.0476836 -0.0013879 -1.61197e-10 -0.0206059 -1.31628e-09 -0.0237313)
(0.0474304 -0.00103355 -3.45352e-11 -0.0249426 -1.48474e-09 -0.0249255)
(0.0475223 -0.00200444 -1.02998e-10 -0.0249449 2.60114e-10 -0.0249819)
(0.0475235 -0.00337754 -5.60748e-11 -0.0248984 -7.27666e-10 -0.0249533)
(0.0475307 -0.00457717 6.64729e-11 -0.0248106 -1.95271e-09 -0.0249388)
(0.0475356 -0.00572513 1.97177e-10 -0.0247254 1.47873e-09 -0.0248959)
(0.0475467 -0.00672738 -6.82251e-11 -0.0245918 3.85027e-09 -0.0248683)
(0.0475571 -0.00757457 -3.68267e-10 -0.0244648 -1.63082e-10 -0.0248102)
(0.0475741 -0.00824362 -1.60991e-10 -0.0242796 -4.46038e-09 -0.024769)
(0.0475892 -0.00869164 2.50286e-10 -0.0240858 -3.17388e-10 -0.0246936)
(0.0476141 -0.00884469 -2.49717e-11 -0.0238291 3.91235e-09 -0.0246326)
(0.0476385 -0.00866642 -4.16879e-10 -0.0235169 -1.28387e-09 -0.024535)
(0.0476675 -0.00797391 6.77503e-11 -0.0231397 -3.95931e-09 -0.0244426)
(0.0476958 -0.00683473 3.53427e-10 -0.0225986 9.87086e-10 -0.0243135)
(0.0477244 -0.00515888 -3.53624e-11 -0.0219575 3.88122e-09 -0.0241684)
(0.0477484 -0.00309444 -3.10187e-10 -0.0211176 2.85142e-10 -0.0239861)
(0.0477673 -0.00138862 -1.61247e-10 -0.0206466 -1.31864e-09 -0.0237725)
(0.0475176 -0.00103526 -3.45903e-11 -0.0249852 -1.48718e-09 -0.0249683)
(0.0476106 -0.00200694 -1.03132e-10 -0.0249881 2.6061e-10 -0.0250251)
(0.0476117 -0.00338217 -5.61065e-11 -0.0249412 -7.28935e-10 -0.0249965)
(0.0476189 -0.00458285 6.65405e-11 -0.0248532 -1.9561e-09 -0.0249818)
(0.0476238 -0.00573237 1.97262e-10 -0.0247678 1.48136e-09 -0.0249389)
(0.0476352 -0.00673532 -6.83044e-11 -0.0246341 3.857e-09 -0.0249111)
(0.0476455 -0.00758349 -3.68544e-10 -0.0245067 -1.63442e-10 -0.0248531)
(0.0476628 -0.0082521 -1.61477e-10 -0.0243214 -4.46809e-09 -0.0248116)
(0.0476779 -0.00870065 2.49834e-10 -0.0241272 -3.17733e-10 -0.0247362)
(0.0477033 -0.00885339 -2.50003e-11 -0.0238704 3.91918e-09 -0.024675)
(0.0477279 -0.00867347 -4.17223e-10 -0.0235586 -1.28621e-09 -0.0245774)
(0.0477569 -0.00797914 6.78966e-11 -0.0231815 -3.9663e-09 -0.0244849)
(0.0477853 -0.00683913 3.53429e-10 -0.0226404 9.8889e-10 -0.0243558)
(0.0478136 -0.0051622 -3.53756e-11 -0.021999 3.88808e-09 -0.0242107)
(0.0478367 -0.00309614 -3.1033e-10 -0.0211591 2.85675e-10 -0.0240284)
(0.0478538 -0.00139019 -1.61392e-10 -0.0206877 -1.32105e-09 -0.0238147)
(0.0476059 -0.00103691 -3.46534e-11 -0.0250284 -1.48964e-09 -0.0250116)
(0.0476996 -0.00200952 -1.03263e-10 -0.0250319 2.61111e-10 -0.025069)
(0.0477008 -0.00338689 -5.61327e-11 -0.0249847 -7.30218e-10 -0.0250403)
(0.0477081 -0.00458877 6.66133e-11 -0.0248966 -1.95954e-09 -0.0250254)
(0.0477131 -0.00573961 1.97386e-10 -0.0248112 1.484e-09 -0.0249825)
(0.0477248 -0.00674336 -6.83847e-11 -0.0246774 3.86384e-09 -0.0249547)
(0.047735 -0.00759243 -3.68845e-10 -0.0245496 -1.63753e-10 -0.0248966)
(0.0477527 -0.00826075 -1.61957e-10 -0.0243643 -4.47598e-09 -0.0248551)
(0.0477678 -0.0087098 2.49422e-10 -0.0241698 -3.18206e-10 -0.0247796)
(0.0477935 -0.00886252 -2.50248e-11 -0.0239129 3.92616e-09 -0.0247183)
(0.0478183 -0.00868147 -4.17462e-10 -0.0236014 -1.28849e-09 -0.0246207)
(0.0478476 -0.00798568 6.8096e-11 -0.0232245 -3.97342e-09 -0.0245282)
(0.0478755 -0.00684479 3.53408e-10 -0.0226828 9.90773e-10 -0.0243991)
(0.047903 -0.0051667 -3.5385e-11 -0.0220407 3.89508e-09 -0.0242539)
(0.0479245 -0.00309837 -3.10552e-10 -0.0212002 2.86155e-10 -0.0240714)
(0.0479389 -0.00139179 -1.61526e-10 -0.0207278 -1.3235e-09 -0.0238576)
(0.0476949 -0.00103858 -3.47094e-11 -0.0250722 -1.49213e-09 -0.0250554)
(0.0477894 -0.00201206 -1.03401e-10 -0.0250762 2.61619e-10 -0.0251133)
(0.0477906 -0.00339154 -5.61584e-11 -0.0250288 -7.31514e-10 -0.0250847)
(0.047798 -0.00459463 6.66832e-11 -0.0249406 -1.96303e-09 -0.0250697)
(0.0478033 -0.00574702 1.97469e-10 -0.0248552 1.48668e-09 -0.0250267)
(0.0478151 -0.00675166 -6.84654e-11 -0.0247213 3.87077e-09 -0.0249989)
(0.0478255 -0.00760171 -3.69094e-10 -0.0245934 -1.64082e-10 -0.0249408)
(0.0478435 -0.00826994 -1.62468e-10 -0.024408 -4.48398e-09 -0.0248992)
(0.0478587 -0.00871963 2.48927e-10 -0.0242133 -3.18667e-10 -0.0248237)
(0.0478846 -0.00887258 -2.50493e-11 -0.0239561 3.93324e-09 -0.0247623)
(0.047909 -0.00869011 -4.17784e-10 -0.0236447 -1.29085e-09 -0.0246647)
(0.0479384 -0.00799292 6.82934e-11 -0.023268 -3.98066e-09 -0.0245721)
(0.0479657 -0.00685128 3.53415e-10 -0.0227255 9.92692e-10 -0.024443)
(0.0479925 -0.00517187 -3.53895e-11 -0.0220826 3.90218e-09 -0.0242976)
(0.0480129 -0.0031012 -3.10805e-10 -0.0212415 2.86667e-10 -0.0241151)
(0.0480253 -0.00139347 -1.61658e-10 -0.0207682 -1.32598e-09 -0.023901)
(0.0477847 -0.00104022 -3.47586e-11 -0.0251166 -1.49466e-09 -0.0250998)
(0.0478801 -0.00201469 -1.03542e-10 -0.0251211 2.62131e-10 -0.0251583)
(0.0478814 -0.00339641 -5.61915e-11 -0.0250736 -7.32825e-10 -0.0251296)
(0.0478889 -0.00460084 6.67573e-11 -0.0249852 -1.96657e-09 -0.0251145)
(0.047894 -0.00575473 1.97597e-10 -0.0248999 1.48938e-09 -0.0250715)
(0.047906 -0.00676036 -6.85465e-11 -0.0247659 3.87781e-09 -0.0250437)
(0.0479165 -0.00761148 -3.69388e-10 -0.0246378 -1.6438e-10 -0.0249856)
(0.0479346 -0.00827979 -1.62967e-10 -0.0244522 -4.49213e-09 -0.0249439)
(0.0479498 -0.00873011 2.48512e-10 -0.0242572 -3.19202e-10 -0.0248684)
(0.0479757 -0.00888332 -2.50687e-11 -0.0239997 3.94042e-09 -0.024807)
(0.0479997 -0.00869982 -4.17934e-10 -0.023688 -1.2932e-09 -0.0247092)
(0.0480289 -0.00800126 6.85231e-11 -0.0233113 -3.98795e-09 -0.0246165)
(0.0480555 -0.00685861 3.53404e-10 -0.0227679 9.94589e-10 -0.0244874)
(0.0480816 -0.00517768 -3.53917e-11 -0.022124 3.90934e-09 -0.0243418)
(0.0481008 -0.00310422 -3.11106e-10 -0.0212825 2.87243e-10 -0.024159)
(0.0481122 -0.00139516 -1.61784e-10 -0.0208089 -1.32848e-09 -0.0239447)
(0.0478753 -0.00104191 -3.48094e-11 -0.0251615 -1.49722e-09 -0.0251447)
(0.0479711 -0.00201753 -1.03684e-10 -0.0251664 2.62653e-10 -0.0252037)
(0.0479723 -0.00340152 -5.62246e-11 -0.0251188 -7.34148e-10 -0.025175)
(0.0479799 -0.00460729 6.68203e-11 -0.0250302 -1.97014e-09 -0.0251598)
(0.0479849 -0.00576286 1.97642e-10 -0.0249446 1.49212e-09 -0.0251167)
(0.047997 -0.00676958 -6.86235e-11 -0.0248106 3.8849e-09 -0.0250889)
(0.0480075 -0.00762179 -3.69646e-10 -0.0246822 -1.6472e-10 -0.0250307)
(0.0480256 -0.0082901 -1.63496e-10 -0.0244966 -4.50028e-09 -0.0249889)
(0.0480408 -0.00874113 2.47982e-10 -0.0243012 -3.19628e-10 -0.0249134)
(0.0480668 -0.00889459 -2.509e-11 -0.0240434 3.94763e-09 -0.0248518)
(0.048091 -0.00870946 -4.18215e-10 -0.0237322 -1.29557e-09 -0.024754)
(0.04812 -0.00800953 6.87404e-11 -0.0233552 -3.99529e-09 -0.0246612)
(0.048146 -0.00686576 3.53398e-10 -0.022811 9.96489e-10 -0.024532)
(0.0481714 -0.00518343 -3.5392e-11 -0.022166 3.91655e-09 -0.0243862)
(0.0481894 -0.00310718 -3.11316e-10 -0.0213237 2.87807e-10 -0.0242033)
(0.0481995 -0.00139687 -1.6191e-10 -0.0208495 -1.33099e-09 -0.0239888)
(0.0479663 -0.00104366 -3.488e-11 -0.025207 -1.49981e-09 -0.0251901)
(0.048062 -0.0020203 -1.03833e-10 -0.0252119 2.63169e-10 -0.0252492)
(0.0480634 -0.00340665 -5.62417e-11 -0.025164 -7.35484e-10 -0.0252205)
(0.048071 -0.00461381 6.68936e-11 -0.0250754 -1.97371e-09 -0.0252052)
(0.0480765 -0.00577097 1.97743e-10 -0.0249902 1.49485e-09 -0.0251621)
(0.0480887 -0.00677881 -6.87021e-11 -0.0248561 3.89203e-09 -0.0251343)
(0.0480992 -0.00763219 -3.69918e-10 -0.0247274 -1.6502e-10 -0.0250761)
(0.0481175 -0.00830067 -1.64012e-10 -0.0245416 -4.50855e-09 -0.0250343)
(0.0481325 -0.0087524 2.47562e-10 -0.0243458 -3.20162e-10 -0.0249587)
(0.0481584 -0.00890626 -2.5104e-11 -0.0240876 3.95492e-09 -0.024897)
(0.0481816 -0.00872017 -4.1845e-10 -0.0237756 -1.29804e-09 -0.0247992)
(0.0482103 -0.00801865 6.89911e-11 -0.0233985 -4.0027e-09 -0.0247062)
(0.0482356 -0.00687365 3.53385e-10 -0.0228533 9.98467e-10 -0.0245769)
(0.0482605 -0.00518964 -3.53899e-11 -0.0222074 3.92378e-09 -0.0244308)
(0.0482786 -0.00311016 -3.11601e-10 -0.0213653 2.88411e-10 -0.0242477)
(0.0482878 -0.00139848 -1.62015e-10 -0.0208908 -1.33351e-09 -0.024033)
(0.0480572 -0.00104542 -3.49354e-11 -0.0252524 -1.5024e-09 -0.0252356)
(0.0481537 -0.00202332 -1.03977e-10 -0.0252579 2.63699e-10 -0.0252953)
(0.048155 -0.00341204 -5.62839e-11 -0.0252099 -7.36821e-10 -0.0252665)
(0.0481627 -0.00462078 6.69699e-11 -0.025121 -1.97734e-09 -0.0252512)
(0.0481675 -0.00577979 1.97861e-10 -0.0250354 1.49763e-09 -0.025208)
(0.0481797 -0.00678875 -6.8781e-11 -0.0249011 3.89922e-09 -0.02518)
(0.0481901 -0.00764331 -3.70186e-10 -0.0247721 -1.65362e-10 -0.0251218)
(0.0482084 -0.00831191 -1.64559e-10 -0.0245861 -4.51681e-09 -0.0250798)
(0.0482232 -0.00876436 2.47009e-10 -0.0243898 -3.20602e-10 -0.0250042)
(0.0482491 -0.00891828 -2.51252e-11 -0.0241312 3.9622e-09 -0.0249423)
(0.0482727 -0.00873048 -4.18548e-10 -0.0238196 -1.30039e-09 -0.0248443)
(0.048301 -0.00802748 6.92214e-11 -0.0234422 -4.01008e-09 -0.0247513)
(0.0483258 -0.00688115 3.53357e-10 -0.0228961 1.00036e-09 -0.0246218)
(0.0483501 -0.0051956 -3.53873e-11 -0.0222494 3.93102e-09 -0.0244755)
(0.0483675 -0.00311315 -3.11928e-10 -0.0214067 2.88999e-10 -0.0242922)
(0.0483761 -0.00140011 -1.62122e-10 -0.0209319 -1.33604e-09 -0.0240773)
(0.0481489 -0.00104724 -3.49897e-11 -0.0252985 -1.50503e-09 -0.0252817)
(0.0482444 -0.00202636 -1.0412e-10 -0.0253036 2.64219e-10 -0.025341)
(0.0482458 -0.00341758 -5.63053e-11 -0.0252553 -7.38167e-10 -0.0253122)
(0.0482534 -0.00462768 6.70209e-11 -0.0251663 -1.98093e-09 -0.0252967)
(0.0482589 -0.00578836 1.97858e-10 -0.025081 1.50038e-09 -0.0252536)
(0.0482711 -0.00679856 -6.88553e-11 -0.0249467 3.90638e-09 -0.0252257)
(0.0482815 -0.00765429 -3.70433e-10 -0.0248172 -1.65692e-10 -0.0251674)
(0.0482998 -0.00832292 -1.65085e-10 -0.0246311 -4.52507e-09 -0.0251253)
(0.0483145 -0.00877602 2.46541e-10 -0.0244342 -3.21035e-10 -0.0250497)
(0.0483402 -0.00893033 -2.51366e-11 -0.0241752 3.96949e-09 -0.0249876)
(0.0483638 -0.00874114 -4.18945e-10 -0.0238638 -1.30281e-09 -0.0248895)
(0.0483924 -0.00803622 6.94803e-11 -0.0234864 -4.0175e-09 -0.0247964)
(0.0484169 -0.00688851 3.53326e-10 -0.0229395 1.00229e-09 -0.0246669)
(0.0484409 -0.00520127 -3.53867e-11 -0.0222919 3.9383e-09 -0.0245204)
(0.0484572 -0.00311575 -3.1217e-10 -0.0214484 2.89542e-10 -0.0243369)
(0.0484646 -0.0014016 -1.62208e-10 -0.0209729 -1.33857e-09 -0.0241218)
(0.0482396 -0.00104911 -3.50625e-11 -0.0253443 -1.50763e-09 -0.0253274)
(0.0483355 -0.00202937 -1.04272e-10 -0.0253495 2.64742e-10 -0.025387)
(0.0483369 -0.00342301 -5.63458e-11 -0.0253009 -7.39512e-10 -0.0253581)
(0.0483445 -0.00463484 6.71136e-11 -0.0252119 -1.98454e-09 -0.0253425)
(0.0483503 -0.00579738 1.98088e-10 -0.0251267 1.50314e-09 -0.0252993)
(0.0483628 -0.00680849 -6.89317e-11 -0.0249923 3.91357e-09 -0.0252715)
(0.0483731 -0.00766544 -3.7069e-10 -0.0248625 -1.66008e-10 -0.0252131)
(0.0483916 -0.00833411 -1.65643e-10 -0.0246763 -4.53339e-09 -0.025171)
(0.0484062 -0.00878786 2.4601e-10 -0.0244791 -3.21556e-10 -0.0250953)
(0.048432 -0.00894222 -2.51543e-11 -0.0242196 3.97683e-09 -0.0250331)
(0.0484547 -0.00875176 -4.19014e-10 -0.0239075 -1.3053e-09 -0.0249349)
(0.0484828 -0.00804543 6.9745e-11 -0.0235297 -4.02494e-09 -0.0248417)
(0.0485069 -0.00689637 3.53296e-10 -0.0229821 1.00422e-09 -0.024712)
(0.0485304 -0.00520753 -3.53817e-11 -0.0223333 3.94557e-09 -0.0245653)
(0.0485462 -0.00311886 -3.12474e-10 -0.0214895 2.90183e-10 -0.0243816)
(0.0485535 -0.00140318 -1.62301e-10 -0.021014 -1.3411e-09 -0.0241661)
(0.0483307 -0.00105093 -3.51232e-11 -0.0253902 -1.51025e-09 -0.0253734)
(0.0484269 -0.00203247 -1.04417e-10 -0.0253956 2.65271e-10 -0.0254331)
(0.0484283 -0.00342858 -5.63744e-11 -0.0253469 -7.40856e-10 -0.0254042)
(0.0484359 -0.00464186 6.71757e-11 -0.0252576 -1.98818e-09 -0.0253886)
(0.0484411 -0.00580631 1.98104e-10 -0.025172 1.50594e-09 -0.0253453)
(0.0484536 -0.00681872 -6.90086e-11 -0.0250375 3.92077e-09 -0.0253173)
(0.0484639 -0.00767688 -3.70924e-10 -0.0249074 -1.66364e-10 -0.0252589)
(0.0484823 -0.00834572 -1.6619e-10 -0.024721 -4.54166e-09 -0.0252166)
(0.0484969 -0.00880019 2.45492e-10 -0.0245233 -3.21978e-10 -0.0251409)
(0.0485226 -0.00895486 -2.51684e-11 -0.0242633 3.98413e-09 -0.0250785)
(0.0485455 -0.00876279 -4.19296e-10 -0.0239516 -1.30769e-09 -0.0249802)
(0.0485736 -0.00805471 6.99896e-11 -0.0235735 -4.03235e-09 -0.0248868)
(0.0485975 -0.00690418 3.53276e-10 -0.0230251 1.00611e-09 -0.024757)
(0.0486207 -0.0052136 -3.53783e-11 -0.0223754 3.95284e-09 -0.0246101)
(0.0486358 -0.00312172 -3.12646e-10 -0.0215311 2.90796e-10 -0.0244262)
(0.0486428 -0.00140483 -1.62404e-10 -0.0210555 -1.34364e-09 -0.0242106)
(0.048422 -0.00105282 -3.51862e-11 -0.0254363 -1.51288e-09 -0.0254195)
(0.0485171 -0.00203568 -1.04572e-10 -0.0254414 2.65791e-10 -0.0254789)
(0.0485187 -0.00343427 -5.64221e-11 -0.0253924 -7.42202e-10 -0.02545)
(0.0485262 -0.00464927 6.72559e-11 -0.025303 -1.99178e-09 -0.0254343)
(0.0485319 -0.00581565 1.98254e-10 -0.0252177 1.50868e-09 -0.0253909)
(0.0485445 -0.00682911 -6.90839e-11 -0.0250831 3.92794e-09 -0.025363)
(0.0485549 -0.00768855 -3.71183e-10 -0.0249527 -1.66679e-10 -0.0253045)
(0.0485735 -0.00835744 -1.66752e-10 -0.0247662 -4.54996e-09 -0.0252623)
(0.0485879 -0.00881254 2.44978e-10 -0.0245679 -3.22463e-10 -0.0251864)
(0.0486135 -0.00896743 -2.51812e-11 -0.0243074 3.99144e-09 -0.0251239)
(0.0486356 -0.00877409 -4.19417e-10 -0.023995 -1.31019e-09 -0.0250255)
(0.0486636 -0.00806441 7.02667e-11 -0.0236167 -4.03979e-09 -0.0249319)
(0.0486872 -0.00691233 3.53228e-10 -0.0230675 1.00808e-09 -0.024802)
(0.0487104 -0.00521998 -3.53727e-11 -0.0224171 3.96009e-09 -0.0246548)
(0.048726 -0.00312466 -3.12891e-10 -0.0215731 2.91405e-10 -0.0244707)
(0.0487324 -0.00140641 -1.62491e-10 -0.0210972 -1.34617e-09 -0.0242549)
(0.0485123 -0.00105471 -3.52503e-11 -0.0254821 -1.51549e-09 -0.0254653)
(0.0486078 -0.00203892 -1.04719e-10 -0.0254874 2.66318e-10 -0.025525)
(0.0486092 -0.00344002 -5.64649e-11 -0.0254381 -7.43549e-10 -0.0254961)
(0.0486163 -0.00465672 6.73302e-11 -0.0253484 -1.9954e-09 -0.0254802)
(0.0486218 -0.00582522 1.98333e-10 -0.0252628 1.51146e-09 -0.0254367)
(0.0486345 -0.00683991 -6.91618e-11 -0.0251281 3.93511e-09 -0.0254086)
(0.0486447 -0.00770062 -3.71409e-10 -0.0249973 -1.67043e-10 -0.0253501)
(0.0486634 -0.00836973 -1.67327e-10 -0.0248105 -4.55818e-09 -0.0253076)
(0.0486777 -0.00882549 2.44416e-10 -0.0246118 -3.22873e-10 -0.0252317)
(0.0487035 -0.00898048 -2.51974e-11 -0.0243508 3.9987e-09 -0.025169)
(0.048726 -0.00878537 -4.19534e-10 -0.0240387 -1.31258e-09 -0.0250704)
(0.0487539 -0.00807392 7.05144e-11 -0.0236603 -4.04715e-09 -0.0249767)
(0.0487773 -0.00692034 3.53184e-10 -0.0231103 1.00998e-09 -0.0248467)
(0.0488005 -0.00522614 -3.53676e-11 -0.0224592 3.96732e-09 -0.0246994)
(0.0488161 -0.00312758 -3.13212e-10 -0.0216151 2.92017e-10 -0.0245151)
(0.0488225 -0.00140793 -1.62575e-10 -0.0211392 -1.3487e-09 -0.0242991)
(0.0486029 -0.00105663 -3.52867e-11 -0.0255282 -1.51811e-09 -0.0255114)
(0.0486969 -0.00204233 -1.04869e-10 -0.0255329 2.66834e-10 -0.0255704)
(0.0486984 -0.00344595 -5.6519e-11 -0.0254832 -7.44891e-10 -0.0255415)
(0.0487053 -0.00466431 6.74081e-11 -0.0253933 -1.99897e-09 -0.0255254)
(0.0487113 -0.00583488 1.98427e-10 -0.0253079 1.5142e-09 -0.0254819)
(0.0487242 -0.00685074 -6.92359e-11 -0.0251732 3.94221e-09 -0.0254538)
(0.0487345 -0.00771264 -3.71638e-10 -0.0250419 -1.6739e-10 -0.0253953)
(0.0487533 -0.00838177 -1.67896e-10 -0.024855 -4.56636e-09 -0.0253527)
(0.0487676 -0.00883807 2.43859e-10 -0.0246557 -3.23268e-10 -0.0252768)
(0.0487935 -0.00899327 -2.52094e-11 -0.0243944 4.00593e-09 -0.0252139)
(0.0488166 -0.00879653 -4.19771e-10 -0.0240828 -1.31498e-09 -0.0251153)
(0.0488449 -0.00808322 7.07946e-11 -0.0237042 -4.05452e-09 -0.0250215)
(0.0488684 -0.006928 3.53119e-10 -0.0231538 1.01187e-09 -0.0248914)
(0.0488916 -0.00523204 -3.5364e-11 -0.0225018 3.97455e-09 -0.0247439)
(0.0489063 -0.00313022 -3.13449e-10 -0.021657 2.92599e-10 -0.0245595)
(0.0489125 -0.00140939 -1.62653e-10 -0.0211809 -1.35122e-09 -0.0243434)
(0.0486921 -0.00105862 -3.53576e-11 -0.0255736 -1.5207e-09 -0.0255569)
(0.0487857 -0.00204563 -1.05028e-10 -0.0255779 2.67359e-10 -0.0256156)
(0.0487874 -0.00345171 -5.65804e-11 -0.0255283 -7.46195e-10 -0.0255867)
(0.0487948 -0.00467174 6.75032e-11 -0.0254386 -2.00252e-09 -0.0255705)
(0.0488006 -0.00584461 1.98586e-10 -0.0253529 1.517e-09 -0.0255272)
(0.0488139 -0.00686152 -6.93142e-11 -0.025218 3.9493e-09 -0.0254989)
(0.0488242 -0.00772461 -3.7184e-10 -0.0250864 -1.67773e-10 -0.0254404)
(0.0488434 -0.00839385 -1.68488e-10 -0.0248995 -4.57451e-09 -0.0253977)
(0.0488579 -0.0088507 2.43273e-10 -0.0247 -3.23685e-10 -0.0253218)
(0.0488841 -0.00900605 -2.52256e-11 -0.0244384 4.01315e-09 -0.0252587)
(0.0489069 -0.00880781 -4.19939e-10 -0.0241265 -1.31748e-09 -0.0251601)
(0.0489351 -0.00809294 7.10671e-11 -0.0237477 -4.06188e-09 -0.0250662)
(0.0489588 -0.00693616 3.53085e-10 -0.0231968 1.01379e-09 -0.0249361)
(0.048982 -0.00523849 -3.53579e-11 -0.0225438 3.98175e-09 -0.0247884)
(0.0489967 -0.00313326 -3.13655e-10 -0.021699 2.93228e-10 -0.0246037)
(0.0490026 -0.001411 -1.62745e-10 -0.0212228 -1.35374e-09 -0.0243875)
(0.0487809 -0.00106056 -3.54132e-11 -0.0256188 -1.52327e-09 -0.0256021)
(0.0488745 -0.002049 -1.05185e-10 -0.0256229 2.67882e-10 -0.0256607)
(0.0488763 -0.0034577 -5.66201e-11 -0.0255734 -7.4749e-10 -0.0256317)
(0.0488841 -0.00467926 6.75698e-11 -0.0254838 -2.00608e-09 -0.0256157)
(0.0488892 -0.00585434 1.98607e-10 -0.0253974 1.51979e-09 -0.0255723)
(0.0489026 -0.00687259 -6.93944e-11 -0.0252625 3.95636e-09 -0.0255438)
(0.0489131 -0.00773699 -3.72053e-10 -0.0251307 -1.68153e-10 -0.0254854)
(0.0489326 -0.00840647 -1.69073e-10 -0.0249437 -4.58262e-09 -0.0254425)
(0.0489474 -0.00886401 2.42716e-10 -0.024744 -3.24095e-10 -0.0253666)
(0.0489738 -0.0090196 -2.52391e-11 -0.0244819 4.02034e-09 -0.0253034)
(0.0489965 -0.00881988 -4.20081e-10 -0.0241699 -1.31992e-09 -0.0252047)
(0.0490249 -0.00810319 7.1335e-11 -0.023791 -4.06921e-09 -0.0251106)
(0.0490488 -0.00694483 3.53045e-10 -0.0232395 1.01572e-09 -0.0249804)
(0.0490721 -0.00524517 -3.53505e-11 -0.0225859 3.98892e-09 -0.0248325)
(0.0490878 -0.00313635 -3.13921e-10 -0.0217417 2.93846e-10 -0.0246478)
(0.0490935 -0.00141253 -1.62827e-10 -0.0212654 -1.35626e-09 -0.0244314)
(0.0488695 -0.00106254 -3.5468e-11 -0.0256639 -1.52584e-09 -0.0256471)
(0.0489621 -0.00205262 -1.05349e-10 -0.0256676 2.684e-10 -0.0257055)
(0.0489639 -0.00346406 -5.66777e-11 -0.025618 -7.48787e-10 -0.0256764)
(0.0489719 -0.00468723 6.76401e-11 -0.0255285 -2.00961e-09 -0.0256604)
(0.0489768 -0.00586458 1.98615e-10 -0.0254416 1.52254e-09 -0.025617)
(0.0489906 -0.0068842 -6.94728e-11 -0.0253067 3.96336e-09 -0.0255884)
(0.0490011 -0.00774991 -3.72257e-10 -0.0251746 -1.68545e-10 -0.02553)
(0.0490209 -0.0084196 -1.69678e-10 -0.0249875 -4.59066e-09 -0.0254869)
(0.0490359 -0.00887772 2.42134e-10 -0.0247874 -3.24437e-10 -0.0254111)
(0.0490627 -0.00903344 -2.5253e-11 -0.024525 4.02747e-09 -0.0253476)
(0.0490863 -0.00883199 -4.20188e-10 -0.0242135 -1.32228e-09 -0.0252489)
(0.0491152 -0.00811338 7.16115e-11 -0.0238347 -4.07648e-09 -0.0251548)
(0.0491394 -0.00695333 3.52998e-10 -0.0232828 1.01759e-09 -0.0250246)
(0.0491631 -0.00525164 -3.53445e-11 -0.0226285 3.99606e-09 -0.0248766)
(0.0491791 -0.00313933 -3.14295e-10 -0.0217845 2.94486e-10 -0.0246917)
(0.0491851 -0.00141389 -1.62891e-10 -0.0213083 -1.35877e-09 -0.0244753)
(0.0489571 -0.00106463 -3.55357e-11 -0.0257088 -1.52839e-09 -0.0256919)
(0.0490484 -0.00205625 -1.05506e-10 -0.0257117 2.6892e-10 -0.0257498)
(0.0490503 -0.00347053 -5.67206e-11 -0.025662 -7.50056e-10 -0.0257205)
(0.049059 -0.00469516 6.76972e-11 -0.0255729 -2.01308e-09 -0.0257045)
(0.0490639 -0.00587474 1.98556e-10 -0.0254856 1.5253e-09 -0.0256613)
(0.049078 -0.0068958 -6.95558e-11 -0.0253507 3.97029e-09 -0.0256325)
(0.0490887 -0.00776275 -3.72434e-10 -0.0252182 -1.68954e-10 -0.0255742)
(0.049109 -0.00843261 -1.70282e-10 -0.0250312 -4.59861e-09 -0.0255309)
(0.0491245 -0.00889126 2.41558e-10 -0.0248309 -3.24772e-10 -0.0254552)
(0.0491518 -0.00904716 -2.52664e-11 -0.0245682 4.03455e-09 -0.0253915)
(0.0491765 -0.00884397 -4.2046e-10 -0.0242577 -1.32464e-09 -0.0252928)
(0.0492061 -0.00812342 7.18888e-11 -0.0238788 -4.08371e-09 -0.0251987)
(0.0492309 -0.00696168 3.52966e-10 -0.0233268 1.01941e-09 -0.0250686)
(0.0492551 -0.0052581 -3.53393e-11 -0.0226716 4.0032e-09 -0.0249205)
(0.0492705 -0.00314237 -3.14574e-10 -0.0218272 2.95132e-10 -0.0247356)
(0.0492768 -0.0014155 -1.62986e-10 -0.0213511 -1.36129e-09 -0.0245191)
(0.0490433 -0.00106675 -3.55938e-11 -0.0257531 -1.5309e-09 -0.0257361)
(0.0491339 -0.00205983 -1.05674e-10 -0.0257554 2.69431e-10 -0.0257937)
(0.0491359 -0.00347705 -5.67439e-11 -0.0257056 -7.51317e-10 -0.0257642)
(0.0491453 -0.00470319 6.77495e-11 -0.025617 -2.01653e-09 -0.0257483)
(0.0491505 -0.00588495 1.98507e-10 -0.0255295 1.52802e-09 -0.0257051)
(0.0491652 -0.00690746 -6.96421e-11 -0.0253946 3.97718e-09 -0.0256763)
(0.0491764 -0.00777575 -3.72614e-10 -0.025262 -1.69343e-10 -0.0256181)
(0.0491973 -0.00844583 -1.70895e-10 -0.0250751 -4.60655e-09 -0.0255748)
(0.0492134 -0.00890508 2.41005e-10 -0.0248748 -3.2516e-10 -0.0254991)
(0.0492413 -0.00906118 -2.52831e-11 -0.0246119 4.04162e-09 -0.0254354)
(0.0492661 -0.00885659 -4.20685e-10 -0.0243013 -1.32708e-09 -0.0253368)
(0.0492964 -0.00813425 7.21755e-11 -0.0239224 -4.09095e-09 -0.0252426)
(0.0493218 -0.00697082 3.52959e-10 -0.0233702 1.02128e-09 -0.0251124)
(0.0493465 -0.00526525 -3.53318e-11 -0.0227143 4.01031e-09 -0.0249643)
(0.0493621 -0.00314587 -3.14841e-10 -0.02187 2.95773e-10 -0.0247793)
(0.0493686 -0.00141727 -1.63099e-10 -0.021394 -1.36379e-09 -0.0245628)
(0.0491288 -0.00106884 -3.56543e-11 -0.0257969 -1.53339e-09 -0.0257799)
(0.0492191 -0.0020635 -1.05835e-10 -0.0257991 2.69933e-10 -0.0258374)
(0.0492212 -0.00348376 -5.67646e-11 -0.0257492 -7.52597e-10 -0.025808)
(0.0492304 -0.00471147 6.78074e-11 -0.0256604 -2.01997e-09 -0.0257919)
(0.0492358 -0.00589552 1.98435e-10 -0.0255728 1.53069e-09 -0.0257488)
(0.0492512 -0.00691964 -6.97313e-11 -0.0254382 3.98402e-09 -0.0257199)
(0.0492628 -0.00778924 -3.72795e-10 -0.0253054 -1.69734e-10 -0.0256618)
(0.0492844 -0.00845978 -1.71523e-10 -0.0251185 -4.61443e-09 -0.0256183)
(0.0493012 -0.0089196 2.40459e-10 -0.0249182 -3.25527e-10 -0.0255427)
(0.0493298 -0.00907598 -2.52974e-11 -0.024655 4.04864e-09 -0.0254789)
(0.0493553 -0.00886988 -4.20866e-10 -0.0243449 -1.32942e-09 -0.0253803)
(0.0493863 -0.00814577 7.24478e-11 -0.0239659 -4.09812e-09 -0.0252861)
(0.0494125 -0.00698061 3.52971e-10 -0.0234137 1.0231e-09 -0.025156)
(0.049438 -0.00527288 -3.53223e-11 -0.0227571 4.01738e-09 -0.0250079)
(0.0494541 -0.00314971 -3.15113e-10 -0.021913 2.96443e-10 -0.0248228)
(0.0494611 -0.00141914 -1.63226e-10 -0.0214373 -1.36629e-09 -0.0246063)
(0.0492139 -0.00107102 -3.57295e-11 -0.0258407 -1.53587e-09 -0.0258236)
(0.0493025 -0.00206734 -1.06001e-10 -0.0258422 2.70431e-10 -0.0258806)
(0.0493047 -0.00349068 -5.68006e-11 -0.0257921 -7.5385e-10 -0.025851)
(0.0493144 -0.00471997 6.78691e-11 -0.0257037 -2.02336e-09 -0.025835)
(0.0493201 -0.00590647 1.98347e-10 -0.0256158 1.53338e-09 -0.025792)
(0.0493362 -0.00693227 -6.98228e-11 -0.0254815 3.9908e-09 -0.025763)
(0.0493484 -0.00780318 -3.72981e-10 -0.0253485 -1.70156e-10 -0.025705)
(0.0493707 -0.00847427 -1.72157e-10 -0.0251618 -4.62222e-09 -0.0256614)
(0.0493884 -0.00893465 2.39945e-10 -0.0249615 -3.25826e-10 -0.025586)
(0.0494175 -0.00909144 -2.53105e-11 -0.0246979 4.0556e-09 -0.0255221)
(0.0494441 -0.00888381 -4.21132e-10 -0.0243883 -1.33177e-09 -0.0254236)
(0.0494762 -0.00815779 7.27311e-11 -0.0240097 -4.10526e-09 -0.0253294)
(0.0495034 -0.00699078 3.5298e-10 -0.0234573 1.02495e-09 -0.0251993)
(0.0495299 -0.00528076 -3.53143e-11 -0.0228003 4.02441e-09 -0.0250512)
(0.0495473 -0.00315359 -3.15389e-10 -0.0219569 2.97089e-10 -0.0248661)
(0.0495547 -0.00142106 -1.63359e-10 -0.0214814 -1.36878e-09 -0.0246496)
(0.0492972 -0.00107328 -3.57972e-11 -0.0258838 -1.53832e-09 -0.0258667)
(0.0493845 -0.00207127 -1.06167e-10 -0.0258848 2.70926e-10 -0.0259233)
(0.0493869 -0.00349794 -5.6816e-11 -0.0258347 -7.5509e-10 -0.0258937)
(0.0493971 -0.00472886 6.79257e-11 -0.0257466 -2.02671e-09 -0.0258776)
(0.0494032 -0.0059178 1.98236e-10 -0.0256585 1.53605e-09 -0.0258348)
(0.0494201 -0.00694539 -6.99217e-11 -0.0255245 3.99751e-09 -0.0258057)
(0.0494329 -0.00781763 -3.73174e-10 -0.0253913 -1.70584e-10 -0.0257479)
(0.0494561 -0.00848937 -1.72806e-10 -0.0252048 -4.62994e-09 -0.0257042)
(0.0494749 -0.00895016 2.39488e-10 -0.0250045 -3.26122e-10 -0.025629)
(0.0495048 -0.00910729 -2.53236e-11 -0.0247406 4.06251e-09 -0.025565)
(0.0495327 -0.00889826 -4.21339e-10 -0.0244318 -1.3341e-09 -0.0254665)
(0.049566 -0.00817029 7.30153e-11 -0.0240534 -4.11235e-09 -0.0253723)
(0.0495943 -0.00700141 3.52998e-10 -0.023501 1.02679e-09 -0.0252424)
(0.0496221 -0.00528904 -3.53059e-11 -0.0228436 4.03141e-09 -0.0250943)
(0.0496407 -0.00315777 -3.15794e-10 -0.0220009 2.97741e-10 -0.0249092)
(0.0496491 -0.00142302 -1.63501e-10 -0.0215258 -1.37127e-09 -0.0246928)
(0.0493791 -0.00107562 -3.58629e-11 -0.0259266 -1.54074e-09 -0.0259094)
(0.0494649 -0.00207529 -1.0634e-10 -0.025927 2.71415e-10 -0.0259656)
(0.0494676 -0.00350528 -5.68414e-11 -0.0258767 -7.56317e-10 -0.0259359)
(0.0494786 -0.00473787 6.79915e-11 -0.0257891 -2.03003e-09 -0.0259198)
(0.049485 -0.00592944 1.98123e-10 -0.0257007 1.53871e-09 -0.0258771)
(0.0495029 -0.00695884 -7.00235e-11 -0.025567 4.00414e-09 -0.0258479)
(0.0495164 -0.00783238 -3.73376e-10 -0.0254337 -1.71038e-10 -0.0257903)
(0.0495407 -0.00850484 -1.73456e-10 -0.0252475 -4.63754e-09 -0.0257464)
(0.0495608 -0.00896596 2.39064e-10 -0.0250472 -3.26326e-10 -0.0256715)
(0.0495912 -0.00912351 -2.53377e-11 -0.0247831 4.06935e-09 -0.0256073)
(0.0496216 -0.00891292 -4.21693e-10 -0.0244757 -1.33637e-09 -0.025509)
(0.0496568 -0.00818291 7.33112e-11 -0.0240979 -4.1194e-09 -0.025415)
(0.0496866 -0.00701204 3.53025e-10 -0.0235458 1.02859e-09 -0.0252853)
(0.0497159 -0.00529734 -3.52981e-11 -0.0228879 4.03839e-09 -0.0251373)
(0.0497348 -0.00316204 -3.16144e-10 -0.0220453 2.98343e-10 -0.0249523)
(0.049744 -0.00142508 -1.63662e-10 -0.0215702 -1.37375e-09 -0.024736)
(0.0494594 -0.00107801 -3.59325e-11 -0.0259688 -1.54313e-09 -0.0259517)
(0.0495437 -0.00207928 -1.0652e-10 -0.0259686 2.71903e-10 -0.0260073)
(0.0495467 -0.00351282 -5.68443e-11 -0.0259184 -7.57516e-10 -0.0259775)
(0.0495589 -0.00474701 6.80477e-11 -0.0258314 -2.0333e-09 -0.0259614)
(0.0495659 -0.00594119 1.97969e-10 -0.0257428 1.54136e-09 -0.0259191)
(0.049585 -0.00697239 -7.0133e-11 -0.0256095 4.01073e-09 -0.0258897)
(0.0495995 -0.00784738 -3.73586e-10 -0.0254761 -1.71504e-10 -0.0258325)
(0.0496253 -0.00852051 -1.74123e-10 -0.0252905 -4.64511e-09 -0.0257885)
(0.0496471 -0.00898188 2.38809e-10 -0.0250904 -3.2652e-10 -0.0257139)
(0.0496781 -0.00913991 -2.53446e-11 -0.0248262 4.07618e-09 -0.0256497)
(0.0497097 -0.00892837 -4.22092e-10 -0.0245194 -1.33882e-09 -0.0255516)
(0.049747 -0.00819653 7.36342e-11 -0.0241419 -4.12648e-09 -0.0254576)
(0.0497787 -0.00702355 3.53081e-10 -0.0235903 1.03045e-09 -0.0253281)