/*--------------------------------*- C++ -*----------------------------------*\
| =========                 |                                                 |
| \\      /  F ield         | foam-extend: Open Source CFD                    |
|  \\    /   O peration     | Version:     4.1-20200408                       |
|   \\  /    A nd           | Web:         http://www.foam-extend.org         |
|    \\/     M anipulation  |                                                 |
\*---------------------------------------------------------------------------*/
FoamFile
{
    version     2.0;
    format      ascii;
    class       volScalarField;
    location    "0.0410000";
    object      J;
}
// * * * * * * * * * * * * * * * * * * * * * * * * * * * * * * * * * * * * * //

dimensions      [0 0 0 0 0 0 0];

internalField   nonuniform List<scalar> 
1952
(
0.997594
0.997669
0.997776
0.997909
0.998078
0.998272
0.998512
0.998794
0.999133
0.999566
1.00006
1.00076
1.00157
1.00262
1.00334
0.997562
0.997597
0.997672
0.997781
0.997914
0.998085
0.998279
0.998521
0.998805
0.999146
0.99958
1.00008
1.00078
1.00159
1.00264
1.00335
0.997565
0.997598
0.997674
0.997784
0.997916
0.998088
0.998283
0.998527
0.998811
0.999153
0.999587
1.00009
1.00078
1.0016
1.00265
1.00335
0.997567
0.9976
0.997677
0.997786
0.997919
0.998092
0.998287
0.998531
0.998815
0.999158
0.999592
1.00009
1.00079
1.00161
1.00265
1.00336
0.997569
0.997602
0.997678
0.997789
0.997922
0.998094
0.99829
0.998534
0.998819
0.999163
0.999596
1.00009
1.00079
1.00161
1.00266
1.00336
0.99757
0.997603
0.99768
0.99779
0.997924
0.998097
0.998293
0.998537
0.998822
0.999166
0.9996
1.0001
1.0008
1.00161
1.00266
1.00336
0.997571
0.997604
0.997681
0.997792
0.997925
0.998098
0.998295
0.998539
0.998825
0.999169
0.999603
1.0001
1.0008
1.00162
1.00266
1.00336
0.997572
0.997604
0.997681
0.997792
0.997926
0.998099
0.998296
0.998541
0.998827
0.999172
0.999605
1.0001
1.0008
1.00162
1.00267
1.00337
0.997572
0.997604
0.997682
0.997793
0.997926
0.9981
0.998297
0.998543
0.998829
0.999174
0.999607
1.00011
1.00081
1.00162
1.00267
1.00337
0.997572
0.997603
0.997681
0.997793
0.997926
0.9981
0.998298
0.998543
0.99883
0.999176
0.999609
1.00011
1.00081
1.00163
1.00267
1.00337
0.997572
0.997603
0.997681
0.997793
0.997927
0.998101
0.998298
0.998544
0.998831
0.999178
0.999611
1.00011
1.00081
1.00163
1.00268
1.00338
0.997571
0.997602
0.997681
0.997793
0.997926
0.998101
0.998299
0.998545
0.998832
0.99918
0.999612
1.00011
1.00081
1.00163
1.00268
1.00338
0.99757
0.997601
0.99768
0.997792
0.997926
0.998101
0.998299
0.998546
0.998833
0.999181
0.999614
1.00011
1.00082
1.00164
1.00268
1.00338
0.997569
0.9976
0.997679
0.997791
0.997925
0.9981
0.998299
0.998546
0.998834
0.999183
0.999615
1.00012
1.00082
1.00164
1.00269
1.00339
0.997568
0.997598
0.997678
0.99779
0.997924
0.9981
0.998299
0.998546
0.998835
0.999184
0.999617
1.00012
1.00082
1.00164
1.00269
1.00339
0.997566
0.997597
0.997676
0.997789
0.997924
0.998099
0.998299
0.998547
0.998836
0.999186
0.999619
1.00012
1.00082
1.00165
1.00269
1.00339
0.997565
0.997595
0.997675
0.997788
0.997923
0.998099
0.998299
0.998547
0.998837
0.999187
0.99962
1.00012
1.00083
1.00165
1.0027
1.0034
0.997563
0.997594
0.997674
0.997787
0.997922
0.998098
0.998298
0.998547
0.998837
0.999189
0.999622
1.00012
1.00083
1.00166
1.0027
1.0034
0.997561
0.997592
0.997672
0.997785
0.99792
0.998097
0.998298
0.998548
0.998838
0.99919
0.999624
1.00013
1.00083
1.00166
1.00271
1.00341
0.997559
0.99759
0.997671
0.997784
0.997919
0.998097
0.998298
0.998548
0.998839
0.999192
0.999626
1.00013
1.00084
1.00166
1.00271
1.00341
0.997557
0.997588
0.997669
0.997783
0.997918
0.998096
0.998298
0.998549
0.99884
0.999194
0.999628
1.00013
1.00084
1.00167
1.00272
1.00342
0.997555
0.997585
0.997667
0.997781
0.997916
0.998095
0.998297
0.998549
0.998841
0.999196
0.99963
1.00013
1.00084
1.00167
1.00272
1.00342
0.997553
0.997583
0.997664
0.997778
0.997914
0.998094
0.998296
0.998549
0.998842
0.999198
0.999632
1.00014
1.00085
1.00168
1.00273
1.00343
0.99755
0.997579
0.997661
0.997775
0.997912
0.998092
0.998295
0.998548
0.998842
0.9992
0.999635
1.00014
1.00085
1.00169
1.00273
1.00344
0.997546
0.997575
0.997658
0.997772
0.997909
0.99809
0.998294
0.998548
0.998843
0.999201
0.999637
1.00014
1.00086
1.00169
1.00274
1.00344
0.997542
0.997571
0.997654
0.997769
0.997906
0.998088
0.998292
0.998547
0.998843
0.999203
0.999639
1.00015
1.00086
1.0017
1.00275
1.00345
0.997537
0.997565
0.997649
0.997764
0.997902
0.998084
0.99829
0.998546
0.998844
0.999204
0.99964
1.00015
1.00087
1.00171
1.00276
1.00346
0.997532
0.997559
0.997642
0.997758
0.997897
0.99808
0.998287
0.998544
0.998843
0.999205
0.999642
1.00015
1.00087
1.00171
1.00276
1.00347
0.997525
0.99755
0.997635
0.997751
0.99789
0.998075
0.998283
0.998542
0.998842
0.999205
0.999644
1.00016
1.00088
1.00172
1.00277
1.00348
0.997516
0.99754
0.997625
0.997742
0.997882
0.998068
0.998277
0.998538
0.998839
0.999205
0.999644
1.00016
1.00088
1.00173
1.00278
1.00349
0.997506
0.997528
0.997613
0.997731
0.997872
0.99806
0.99827
0.998533
0.998836
0.999204
0.999645
1.00016
1.00089
1.00174
1.00279
1.00351
0.997493
0.997514
0.997599
0.997718
0.99786
0.998049
0.99826
0.998526
0.998831
0.999201
0.999644
1.00017
1.00089
1.00175
1.00281
1.00352
0.997478
0.997496
0.997582
0.997702
0.997845
0.998036
0.998248
0.998516
0.998823
0.999196
0.999642
1.00017
1.0009
1.00176
1.00282
1.00353
0.99746
0.997474
0.997561
0.997682
0.997826
0.998019
0.998233
0.998504
0.998813
0.999189
0.999637
1.00017
1.0009
1.00177
1.00283
1.00355
0.997439
0.997448
0.997536
0.997657
0.997802
0.997997
0.998214
0.998487
0.998799
0.999179
0.99963
1.00017
1.0009
1.00177
1.00284
1.00357
0.997412
0.997417
0.997505
0.997628
0.997774
0.997972
0.99819
0.998467
0.998782
0.999165
0.99962
1.00016
1.0009
1.00178
1.00285
1.00358
0.997381
0.997381
0.997469
0.997593
0.99774
0.99794
0.99816
0.99844
0.998759
0.999146
0.999605
1.00015
1.0009
1.00179
1.00286
1.0036
0.997344
0.997337
0.997426
0.997551
0.997699
0.997901
0.998123
0.998407
0.998729
0.999122
0.999585
1.00014
1.00089
1.00179
1.00287
1.00362
0.9973
0.997287
0.997375
0.997502
0.997651
0.997855
0.998079
0.998366
0.998692
0.999089
0.999557
1.00012
1.00088
1.00179
1.00288
1.00364
0.997249
0.997229
0.997317
0.997444
0.997594
0.9978
0.998025
0.998316
0.998645
0.999047
0.99952
1.00009
1.00086
1.00178
1.00288
1.00365
0.997191
0.997162
0.99725
0.997378
0.997527
0.997734
0.997961
0.998254
0.998586
0.998993
0.999471
1.00005
1.00083
1.00176
1.00288
1.00367
0.997124
0.997087
0.997174
0.997302
0.997451
0.997658
0.997886
0.99818
0.998515
0.998926
0.999409
0.999999
1.00078
1.00173
1.00286
1.00367
0.997048
0.997004
0.997089
0.997216
0.997364
0.99757
0.997797
0.998092
0.998427
0.998841
0.999328
0.999928
1.00072
1.00169
1.00283
1.00367
0.996966
0.996913
0.996996
0.997122
0.997266
0.99747
0.997695
0.997987
0.998322
0.998737
0.999226
0.999833
1.00063
1.00163
1.00279
1.00366
0.996875
0.996817
0.996897
0.997019
0.997159
0.997359
0.997579
0.997866
0.998197
0.998608
0.999097
0.99971
1.00052
1.00153
1.00271
1.00363
0.99678
0.996718
0.996793
0.996912
0.997045
0.997237
0.997449
0.997726
0.99805
0.998452
0.998937
0.999548
1.00036
1.0014
1.0026
1.00358
0.996682
0.99662
0.99669
0.996802
0.996926
0.997107
0.997307
0.99757
0.99788
0.998267
0.998738
0.99934
1.00015
1.0012
1.00243
1.00348
0.996586
0.996529
0.996592
0.996696
0.996808
0.996974
0.997158
0.9974
0.99769
0.99805
0.998499
0.999076
0.999864
1.0009
1.00213
1.00325
0.996497
0.996453
0.996508
0.9966
0.996698
0.996845
0.997007
0.997221
0.997482
0.997804
0.998216
0.998747
0.999486
1.00047
1.00162
1.00265
0.996422
0.996399
0.996445
0.996525
0.996605
0.996729
0.996864
0.997043
0.997268
0.99754
0.997904
0.998369
0.999041
0.999942
1.00098
1.00188
0.996372
0.99638
0.996416
0.99648
0.996541
0.996637
0.996741
0.996879
0.997061
0.997273
0.997578
0.997961
0.998555
0.999353
1.00027
1.00107
0.996357
0.996409
0.996433
0.996481
0.996519
0.996586
0.996655
0.996745
0.996878
0.997021
0.997259
0.997545
0.998051
0.998724
0.999523
1.00023
0.996389
0.996499
0.99651
0.996542
0.996555
0.996591
0.996622
0.996662
0.99674
0.996808
0.996971
0.997145
0.997553
0.998067
0.998749
0.999359
0.996483
0.996666
0.996665
0.996679
0.996668
0.996671
0.996662
0.996652
0.996669
0.996657
0.996738
0.996788
0.997086
0.997399
0.997966
0.998434
0.996654
0.996925
0.996911
0.996907
0.996872
0.996842
0.996793
0.996732
0.99669
0.996604
0.996605
0.996533
0.996703
0.996776
0.997177
0.99744
0.996917
0.997287
0.997262
0.997245
0.997191
0.997138
0.997058
0.996956
0.996855
0.996689
0.996601
0.996406
0.996421
0.996259
0.996441
0.996377
0.997283
0.997797
0.997758
0.997721
0.997641
0.997554
0.997432
0.997275
0.997108
0.996857
0.996669
0.996346
0.99621
0.995834
0.995787
0.995306
0.997797
0.998395
0.99833
0.998256
0.998129
0.997982
0.997794
0.997564
0.99732
0.996991
0.996706
0.996269
0.995998
0.995427
0.995183
0.994298
0.998405
0.998914
0.998821
0.998707
0.99853
0.998324
0.998069
0.997769
0.997448
0.997049
0.996681
0.996158
0.99578
0.995073
0.994682
0.993522
0.998936
0.999284
0.999167
0.99902
0.998804
0.998552
0.998247
0.997897
0.997518
0.997067
0.996634
0.996053
0.995594
0.994804
0.994311
0.993017
0.999319
0.999505
0.999374
0.999204
0.998962
0.99868
0.99834
0.997957
0.997538
0.997055
0.996577
0.995967
0.995455
0.994634
0.994083
0.992763
0.999549
0.999574
0.999439
0.999258
0.999004
0.998707
0.99835
0.997953
0.997512
0.997018
0.996515
0.995905
0.995367
0.994565
0.993996
0.992735
0.999625
0.999502
0.999369
0.999187
0.998934
0.998637
0.998279
0.997884
0.99744
0.996956
0.99645
0.995866
0.995328
0.994587
0.994037
0.992908
0.999554
0.999297
0.999172
0.998998
0.998757
0.998475
0.998129
0.997753
0.997323
0.996866
0.996376
0.995842
0.995331
0.994688
0.99419
0.993254
0.999348
0.99897
0.998858
0.998702
0.998482
0.998225
0.997905
0.997561
0.997159
0.996746
0.996291
0.995827
0.995366
0.994853
0.994442
0.993746
0.999017
0.998538
0.998441
0.998307
0.998115
0.997892
0.997608
0.997309
0.996949
0.996593
0.996188
0.995812
0.995424
0.99507
0.994776
0.994356
0.998578
0.99802
0.997939
0.997828
0.997666
0.997481
0.997241
0.996994
0.996688
0.9964
0.996061
0.995789
0.995498
0.995326
0.995176
0.995048
0.998054
0.997443
0.997373
0.997283
0.997147
0.996999
0.996802
0.99661
0.996365
0.996155
0.995897
0.995745
0.995575
0.995609
0.995625
0.995787
0.997471
0.99683
0.996768
0.996693
0.996578
0.996458
0.996298
0.996157
0.995972
0.995845
0.995682
0.995664
0.995643
0.995901
0.996098
0.996529
0.996854
0.996209
0.996152
0.996088
0.995989
0.995891
0.995761
0.995657
0.995522
0.99547
0.995403
0.995528
0.995677
0.996173
0.996556
0.997225
0.996231
0.995609
0.995554
0.995498
0.99541
0.995328
0.995215
0.995125
0.995011
0.99501
0.995032
0.995303
0.995645
0.996381
0.996938
0.997806
0.99563
0.994987
0.994931
0.994872
0.994785
0.994709
0.994611
0.994555
0.994523
0.994636
0.994812
0.995242
0.995739
0.996569
0.997217
0.998213
0.995009
0.994426
0.994392
0.994365
0.994327
0.994322
0.994337
0.99443
0.994572
0.994834
0.995148
0.995637
0.996132
0.996885
0.997466
0.998441
0.99444
0.99439
0.994409
0.994452
0.994512
0.994612
0.994747
0.994955
0.995184
0.995493
0.995818
0.996264
0.996673
0.997292
0.997758
0.998545
0.994384
0.994889
0.99493
0.995001
0.995097
0.995232
0.995392
0.995594
0.995801
0.996082
0.996378
0.996776
0.997159
0.997674
0.998095
0.998672
0.994875
0.995452
0.99549
0.995553
0.99564
0.99576
0.995906
0.996096
0.996305
0.996572
0.99685
0.997206
0.997549
0.997988
0.99839
0.998858
0.995438
0.995923
0.995966
0.996032
0.996123
0.996242
0.996385
0.996562
0.996757
0.996999
0.997252
0.997567
0.997875
0.998255
0.998605
0.999036
0.995908
0.996366
0.996408
0.99647
0.996555
0.996665
0.996798
0.996961
0.997142
0.997362
0.997591
0.997869
0.998141
0.998469
0.998775
0.999141
0.996352
0.996758
0.9968
0.996857
0.996939
0.997041
0.997165
0.997313
0.997478
0.997675
0.99788
0.998123
0.998363
0.998646
0.998909
0.999224
0.996745
0.997112
0.997151
0.997204
0.997279
0.997372
0.997485
0.997619
0.997767
0.997942
0.998124
0.998337
0.998546
0.998789
0.999014
0.999282
0.997099
0.997425
0.997462
0.99751
0.99758
0.997664
0.997766
0.997885
0.998018
0.998172
0.998333
0.998518
0.998698
0.998907
0.999099
0.999326
0.997414
0.997704
0.997738
0.997781
0.997844
0.997919
0.998011
0.998117
0.998235
0.99837
0.998511
0.99867
0.998826
0.999004
0.999168
0.99936
0.997694
0.997951
0.997982
0.99802
0.998077
0.998144
0.998225
0.998319
0.998423
0.998541
0.998663
0.998801
0.998935
0.999086
0.999224
0.999387
0.997941
0.998169
0.998198
0.998231
0.998282
0.998341
0.998413
0.998495
0.998586
0.998688
0.998794
0.998912
0.999027
0.999156
0.999272
0.999409
0.998161
0.998361
0.998388
0.998417
0.998462
0.998514
0.998577
0.998649
0.998728
0.998816
0.998908
0.999009
0.999107
0.999216
0.999314
0.999429
0.998354
0.998532
0.998555
0.998581
0.998621
0.998666
0.998721
0.998783
0.998852
0.998928
0.999007
0.999093
0.999176
0.999268
0.999351
0.999449
0.998525
0.998682
0.998703
0.998725
0.99876
0.998799
0.998848
0.998901
0.998961
0.999026
0.999094
0.999167
0.999238
0.999315
0.999385
0.999468
0.998677
0.998815
0.998834
0.998853
0.998884
0.998917
0.998959
0.999006
0.999057
0.999113
0.99917
0.999233
0.999293
0.999358
0.999417
0.999487
0.99881
0.998933
0.998949
0.998966
0.998993
0.999022
0.999058
0.999098
0.999142
0.99919
0.999239
0.999292
0.999343
0.999398
0.999448
0.999507
0.998929
0.999038
0.999052
0.999066
0.99909
0.999115
0.999146
0.99918
0.999218
0.999259
0.9993
0.999345
0.999388
0.999435
0.999477
0.999528
0.999034
0.999131
0.999144
0.999156
0.999176
0.999197
0.999224
0.999253
0.999286
0.999321
0.999356
0.999394
0.999431
0.99947
0.999506
0.999549
0.999128
0.999214
0.999225
0.999236
0.999253
0.999272
0.999295
0.99932
0.999347
0.999377
0.999407
0.999439
0.99947
0.999503
0.999534
0.999572
0.999212
0.999289
0.999299
0.999307
0.999323
0.999338
0.999358
0.999379
0.999403
0.999428
0.999454
0.999482
0.999508
0.999536
0.999562
0.999595
0.999287
0.999356
0.999365
0.999372
0.999385
0.999399
0.999416
0.999434
0.999454
0.999476
0.999498
0.999521
0.999543
0.999567
0.999589
0.999619
0.999354
0.999417
0.999424
0.999431
0.999442
0.999454
0.999468
0.999484
0.999501
0.999519
0.999538
0.999558
0.999577
0.999597
0.999617
0.999643
0.999415
0.999472
0.999479
0.999484
0.999494
0.999504
0.999516
0.99953
0.999545
0.99956
0.999576
0.999593
0.999609
0.999627
0.999644
0.999667
0.999471
0.999523
0.999528
0.999533
0.999541
0.99955
0.999561
0.999572
0.999585
0.999598
0.999612
0.999627
0.999641
0.999656
0.999671
0.999692
0.999522
0.999569
0.999574
0.999578
0.999585
0.999593
0.999602
0.999612
0.999623
0.999634
0.999646
0.999659
0.999671
0.999684
0.999698
0.999717
0.999568
0.999612
0.999616
0.999619
0.999626
0.999632
0.99964
0.999649
0.999658
0.999668
0.999679
0.99969
0.9997
0.999712
0.999724
0.999742
0.999611
0.999651
0.999655
0.999658
0.999663
0.999669
0.999676
0.999683
0.999692
0.9997
0.999709
0.999719
0.999728
0.999739
0.99975
0.999766
0.99965
0.999688
0.999691
0.999694
0.999698
0.999703
0.999709
0.999716
0.999723
0.999731
0.999739
0.999747
0.999756
0.999765
0.999775
0.999791
0.999687
0.999722
0.999724
0.999727
0.999731
0.999735
0.999741
0.999747
0.999753
0.99976
0.999767
0.999775
0.999782
0.999791
0.9998
0.999815
0.999721
0.999753
0.999756
0.999758
0.999762
0.999766
0.999771
0.999776
0.999782
0.999788
0.999794
0.999801
0.999808
0.999816
0.999825
0.999839
0.999753
0.999783
0.999785
0.999787
0.999791
0.999794
0.999799
0.999803
0.999809
0.999814
0.99982
0.999826
0.999833
0.99984
0.999849
0.999862
0.999783
0.999811
0.999813
0.999815
0.999818
0.999821
0.999825
0.999829
0.999834
0.99984
0.999845
0.999851
0.999857
0.999863
0.999872
0.999885
0.999811
0.999837
0.999839
0.999841
0.999843
0.999846
0.99985
0.999854
0.999859
0.999864
0.999869
0.999874
0.99988
0.999886
0.999895
0.999908
0.999837
0.999862
0.999863
0.999865
0.999868
0.99987
0.999874
0.999878
0.999882
0.999887
0.999892
0.999897
0.999902
0.999909
0.999917
0.99993
0.999861
0.999884
0.999886
0.999888
0.99989
0.999893
0.999896
0.9999
0.999904
0.999909
0.999913
0.999919
0.999924
0.99993
0.999938
0.999951
0.999884
0.999906
0.999907
0.999909
0.999911
0.999914
0.999917
0.999921
0.999925
0.999929
0.999934
0.999939
0.999945
0.999951
0.999959
0.999972
0.999906
0.999926
0.999927
0.999929
0.999931
0.999934
0.999937
0.999941
0.999945
0.999949
0.999954
0.999959
0.999965
0.999971
0.999979
0.999993
0.999926
0.999945
0.999946
0.999947
0.99995
0.999952
0.999956
0.999959
0.999963
0.999968
0.999973
0.999978
0.999984
0.99999
0.999999
1.00001
0.999944
0.999962
0.999963
0.999965
0.999967
0.99997
0.999973
0.999976
0.999981
0.999985
0.99999
0.999996
1
1.00001
1.00002
1.00003
0.999961
0.999978
0.999979
0.99998
0.999983
0.999985
0.999989
0.999992
0.999997
1
1.00001
1.00001
1.00002
1.00003
1.00004
1.00005
0.999977
0.999992
0.999993
0.999995
0.999997
1
1
1.00001
1.00001
1.00002
1.00002
1.00003
1.00003
1.00004
1.00005
1.00007
0.999992
1
1.00001
1.00001
1.00001
1.00001
1.00002
1.00002
1.00002
1.00003
1.00004
1.00004
1.00005
1.00006
1.00007
1.00009
1
1.00002
1.00002
1.00002
1.00002
1.00002
1.00003
1.00003
1.00004
1.00004
1.00005
1.00005
1.00006
1.00007
1.00008
1.0001
1.00002
1.00003
1.00003
1.00003
1.00003
1.00003
1.00004
1.00004
1.00005
1.00005
1.00006
1.00007
1.00007
1.00008
1.0001
1.00012
1.00003
1.00004
1.00004
1.00004
1.00004
1.00004
1.00005
1.00005
1.00005
1.00006
1.00007
1.00007
1.00008
1.00009
1.00011
1.00013
1.00004
1.00004
1.00004
1.00005
1.00005
1.00005
1.00005
1.00006
1.00006
1.00007
1.00007
1.00008
1.00009
1.0001
1.00012
1.00014
1.00004
1.00005
1.00005
1.00005
1.00005
1.00006
1.00006
1.00006
1.00007
1.00007
1.00008
1.00008
1.00009
1.0001
1.00012
1.00015
1.00005
1.00006
1.00006
1.00006
1.00006
1.00006
1.00006
1.00007
1.00007
1.00007
1.00008
1.00008
1.00009
1.0001
1.00011
1.00013
1.00005
1.00006
1.00006
1.00006
1.00006
1.00006
1.00006
1.00007
1.00007
1.00007
1.00008
1.00008
1.00009
1.0001
1.0001
1.00012
1.00006
)
;

boundaryField
{
    wireUpstream
    {
        type            calculated;
        value           nonuniform List<scalar> 
16
(
1.00006
1.00006
1.00006
1.00006
1.00006
1.00007
1.00007
1.00007
1.00008
1.00008
1.00008
1.00009
1.00009
1.0001
1.0001
1.00006
)
;
    }
    wireDownstream
    {
        type            calculated;
        value           nonuniform List<scalar> 
16
(
0.997595
0.99767
0.997777
0.99791
0.998079
0.998273
0.998513
0.998795
0.999133
0.999566
1.00006
1.00076
1.00157
1.00262
1.00331
0.997563
)
;
    }
    wireTopContact
    {
        type            calculated;
        value           nonuniform List<scalar> 
122
(
1.0034
1.00341
1.00341
1.00341
1.00341
1.00342
1.00342
1.00342
1.00343
1.00343
1.00343
1.00344
1.00344
1.00344
1.00345
1.00345
1.00346
1.00346
1.00347
1.00347
1.00348
1.00348
1.00349
1.0035
1.00351
1.00352
1.00353
1.00354
1.00355
1.00356
1.00357
1.00359
1.00361
1.00362
1.00364
1.00366
1.00368
1.00369
1.00371
1.00372
1.00372
1.00372
1.0037
1.00367
1.00361
1.0035
1.00328
1.00266
1.00187
1.00105
1.00019
0.999312
0.99841
0.997456
0.996433
0.995393
0.994386
0.993618
0.993123
0.992869
0.992834
0.992997
0.99333
0.99381
0.994404
0.995079
0.995795
0.996508
0.997165
0.997707
0.998089
0.998318
0.99848
0.998688
0.998865
0.999036
0.999143
0.999228
0.999287
0.999333
0.999366
0.999394
0.999416
0.999436
0.999456
0.999474
0.999493
0.999513
0.999533
0.999554
0.999576
0.999599
0.999622
0.999646
0.99967
0.999695
0.999719
0.999744
0.999768
0.999793
0.999817
0.999841
0.999864
0.999887
0.999909
0.999931
0.999953
0.999973
0.999994
1.00001
1.00003
1.00005
1.00007
1.00009
1.0001
1.00012
1.00013
1.00014
1.00015
1.00013
1.00012
1.00339
)
;
    }
    front
    {
        type            wedge;
    }
    back
    {
        type            wedge;
    }
}


// ************************************************************************* //
