/*--------------------------------*- C++ -*----------------------------------*\
| =========                 |                                                 |
| \\      /  F ield         | foam-extend: Open Source CFD                    |
|  \\    /   O peration     | Version:     4.1-20200408                       |
|   \\  /    A nd           | Web:         http://www.foam-extend.org         |
|    \\/     M anipulation  |                                                 |
\*---------------------------------------------------------------------------*/
FoamFile
{
    version     2.0;
    format      ascii;
    class       pointVectorField;
    location    "0.0410000";
    object      pointDU;
}
// * * * * * * * * * * * * * * * * * * * * * * * * * * * * * * * * * * * * * //

dimensions      [0 1 0 0 0 0 0];

internalField   nonuniform List<vector> 
4059
(
(0 1.17511e-17 -3.09338e-16)
(0 -7.27235e-15 2.97696e-16)
(0 -2.54246e-08 1.11006e-09)
(0 1.17659e-17 -3.0971e-16)
(0 -7.27235e-15 -6.27056e-16)
(0 -2.54246e-08 -1.11007e-09)
(0 1.85961e-14 -8.31744e-16)
(0 6.86901e-15 -3.19729e-16)
(0 3.84578e-15 -1.87732e-16)
(0 2.22653e-15 -1.17034e-16)
(0 1.19138e-15 -7.18391e-17)
(0 3.99768e-16 -3.72768e-17)
(0 -2.01534e-16 -1.10223e-17)
(0 -6.5842e-16 8.92628e-18)
(0 -1.03838e-15 2.55141e-17)
(0 -1.22056e-15 3.34682e-17)
(0 -1.40369e-15 4.14656e-17)
(0 -1.28874e-15 3.64461e-17)
(0 -1.269e-15 3.55834e-17)
(0 -8.5991e-16 1.77222e-17)
(0 -8.22054e-16 1.60699e-17)
(0 -2.39828e-08 1.04711e-09)
(0 -2.25392e-08 9.84081e-10)
(0 -2.10659e-08 9.19755e-10)
(0 -1.95594e-08 8.5398e-10)
(0 -1.80491e-08 7.88039e-10)
(0 -1.65019e-08 7.20489e-10)
(0 -1.49271e-08 6.5173e-10)
(0 -1.33286e-08 5.81938e-10)
(0 -1.17087e-08 5.11215e-10)
(0 -1.00715e-08 4.39731e-10)
(0 -8.41689e-09 3.67489e-10)
(0 -6.75071e-09 2.94742e-10)
(0 -5.07156e-09 2.21429e-10)
(0 -3.38665e-09 1.47864e-10)
(0 -1.69405e-09 7.39639e-11)
(0 1.85961e-14 5.02387e-16)
(0 6.86901e-15 -9.6289e-18)
(0 3.84578e-15 -1.41626e-16)
(0 2.22653e-15 -2.12324e-16)
(0 1.19138e-15 -2.57521e-16)
(0 3.99768e-16 -2.92083e-16)
(0 -2.01534e-16 -3.18336e-16)
(0 -6.5842e-16 -3.38284e-16)
(0 -1.03838e-15 -3.54875e-16)
(0 -1.22056e-15 -3.62829e-16)
(0 -1.40369e-15 -3.70823e-16)
(0 -1.28874e-15 -3.65805e-16)
(0 -1.269e-15 -3.64944e-16)
(0 -8.5991e-16 -3.47082e-16)
(0 -8.22054e-16 -3.45429e-16)
(0 -2.39828e-08 -1.04711e-09)
(0 -2.25392e-08 -9.84084e-10)
(0 -2.10659e-08 -9.19758e-10)
(0 -1.95594e-08 -8.53983e-10)
(0 -1.80491e-08 -7.88042e-10)
(0 -1.65019e-08 -7.20492e-10)
(0 -1.49271e-08 -6.51732e-10)
(0 -1.33286e-08 -5.8194e-10)
(0 -1.17087e-08 -5.11216e-10)
(0 -1.00715e-08 -4.39733e-10)
(0 -8.41689e-09 -3.67491e-10)
(0 -6.75071e-09 -2.94743e-10)
(0 -5.07156e-09 -2.2143e-10)
(0 -3.38665e-09 -1.47865e-10)
(0 -1.69405e-09 -7.39645e-11)
(5.00012e-05 5.53829e-10 -2.41807e-11)
(5.00012e-05 5.53829e-10 2.41804e-11)
(5.00012e-05 2.78665e-10 1.21665e-11)
(5.00012e-05 2.78665e-10 -1.21668e-11)
(5.00012e-05 8.1938e-10 -3.57749e-11)
(5.00012e-05 8.1938e-10 3.57747e-11)
(5.00012e-05 1.06987e-09 -4.67117e-11)
(5.00012e-05 1.06987e-09 4.67115e-11)
(5.00011e-05 1.30439e-09 -5.69509e-11)
(5.00011e-05 1.30439e-09 5.69507e-11)
(5.0001e-05 1.51419e-09 -6.61107e-11)
(5.0001e-05 1.51419e-09 6.61106e-11)
(5.0001e-05 1.70266e-09 -7.43396e-11)
(5.0001e-05 1.70266e-09 7.43395e-11)
(5.00009e-05 1.85965e-09 -8.11941e-11)
(5.00009e-05 1.85965e-09 8.11939e-11)
(5.00008e-05 1.99161e-09 -8.69554e-11)
(5.00008e-05 1.99161e-09 8.69553e-11)
(5.00007e-05 2.08755e-09 -9.11443e-11)
(5.00007e-05 2.08755e-09 9.11442e-11)
(5.00006e-05 2.15576e-09 -9.41226e-11)
(5.00006e-05 2.15576e-09 9.41225e-11)
(5.00005e-05 2.18477e-09 -9.5389e-11)
(5.00005e-05 2.18477e-09 9.53889e-11)
(5.00003e-05 2.18992e-09 -9.56139e-11)
(5.00003e-05 2.18992e-09 9.56138e-11)
(5e-05 2.16091e-09 -9.43473e-11)
(5e-05 2.16091e-09 9.43472e-11)
(4.99997e-05 2.10997e-09 -9.21235e-11)
(4.99997e-05 2.10997e-09 9.21234e-11)
(4.99992e-05 2.08377e-09 -9.09793e-11)
(4.99992e-05 2.08377e-09 9.09792e-11)
(5.00013e-05 1.21854e-17 -3.20771e-16)
(5.00014e-05 4.11633e-10 -1.79723e-11)
(5.00014e-05 4.11633e-10 1.7972e-11)
(5.00015e-05 2.07947e-10 9.07888e-12)
(5.00015e-05 2.07947e-10 -9.0792e-12)
(5.00014e-05 6.10137e-10 -2.66392e-11)
(5.00014e-05 6.10137e-10 2.66389e-11)
(5.00013e-05 7.97052e-10 -3.48e-11)
(5.00013e-05 7.97052e-10 3.47998e-11)
(5.00013e-05 9.71947e-10 -4.24361e-11)
(5.00013e-05 9.71947e-10 4.24359e-11)
(5.00012e-05 1.13003e-09 -4.9338e-11)
(5.00012e-05 1.13003e-09 4.93378e-11)
(5.00011e-05 1.27025e-09 -5.54602e-11)
(5.00011e-05 1.27025e-09 5.546e-11)
(5.0001e-05 1.38954e-09 -6.06685e-11)
(5.0001e-05 1.38954e-09 6.06683e-11)
(5.00009e-05 1.48639e-09 -6.48971e-11)
(5.00009e-05 1.48639e-09 6.48969e-11)
(5.00008e-05 1.55886e-09 -6.80614e-11)
(5.00008e-05 1.55886e-09 6.80612e-11)
(5.00007e-05 1.60545e-09 -7.00953e-11)
(5.00007e-05 1.60545e-09 7.00951e-11)
(5.00005e-05 1.62544e-09 -7.09681e-11)
(5.00005e-05 1.62544e-09 7.09679e-11)
(5.00003e-05 1.62385e-09 -7.08988e-11)
(5.00003e-05 1.62385e-09 7.08986e-11)
(5.00001e-05 1.60127e-09 -6.99129e-11)
(5.00001e-05 1.60127e-09 6.99127e-11)
(4.99997e-05 1.57247e-09 -6.86554e-11)
(4.99997e-05 1.57247e-09 6.86552e-11)
(4.99994e-05 1.55742e-09 -6.79984e-11)
(4.99994e-05 1.55742e-09 6.79983e-11)
(5.00015e-05 1.21854e-17 -3.20773e-16)
(5.00015e-05 2.98192e-10 -1.30194e-11)
(5.00015e-05 2.98192e-10 1.30191e-11)
(5.00016e-05 1.50855e-10 6.58615e-12)
(5.00016e-05 1.50855e-10 -6.58647e-12)
(5.00015e-05 4.42477e-10 -1.9319e-11)
(5.00015e-05 4.42477e-10 1.93187e-11)
(5.00014e-05 5.7788e-10 -2.52308e-11)
(5.00014e-05 5.7788e-10 2.52305e-11)
(5.00014e-05 7.04653e-10 -3.07658e-11)
(5.00014e-05 7.04653e-10 3.07656e-11)
(5.00013e-05 8.1927e-10 -3.57701e-11)
(5.00013e-05 8.1927e-10 3.57699e-11)
(5.00012e-05 9.2003e-10 -4.01694e-11)
(5.00012e-05 9.2003e-10 4.01691e-11)
(5.00011e-05 1.00583e-09 -4.39155e-11)
(5.00011e-05 1.00583e-09 4.39152e-11)
(5.0001e-05 1.07354e-09 -4.68717e-11)
(5.0001e-05 1.07354e-09 4.68715e-11)
(5.00009e-05 1.12376e-09 -4.90645e-11)
(5.00009e-05 1.12376e-09 4.90643e-11)
(5.00007e-05 1.15359e-09 -5.03667e-11)
(5.00007e-05 1.15359e-09 5.03665e-11)
(5.00005e-05 1.16523e-09 -5.08749e-11)
(5.00005e-05 1.16523e-09 5.08747e-11)
(5.00003e-05 1.16163e-09 -5.07179e-11)
(5.00003e-05 1.16163e-09 5.07177e-11)
(5.00001e-05 1.14668e-09 -5.0065e-11)
(5.00001e-05 1.14668e-09 5.00648e-11)
(4.99998e-05 1.13591e-09 -4.95949e-11)
(4.99998e-05 1.13591e-09 4.95947e-11)
(4.99995e-05 1.13983e-09 -4.97661e-11)
(4.99995e-05 1.13983e-09 4.97659e-11)
(5.00016e-05 1.21855e-17 -3.20773e-16)
(5.00016e-05 2.06361e-10 -9.00992e-12)
(5.00016e-05 2.06361e-10 9.0096e-12)
(5.00016e-05 1.04544e-10 4.56418e-12)
(5.00016e-05 1.04544e-10 -4.56451e-12)
(5.00016e-05 3.06465e-10 -1.33806e-11)
(5.00016e-05 3.06465e-10 1.33803e-11)
(5.00015e-05 3.99919e-10 -1.74609e-11)
(5.00015e-05 3.99919e-10 1.74606e-11)
(5.00014e-05 4.87412e-10 -2.12809e-11)
(5.00014e-05 4.87412e-10 2.12806e-11)
(5.00013e-05 5.66193e-10 -2.47205e-11)
(5.00013e-05 5.66193e-10 2.47203e-11)
(5.00013e-05 6.34739e-10 -2.77133e-11)
(5.00013e-05 6.34739e-10 2.77131e-11)
(5.00011e-05 6.92774e-10 -3.02472e-11)
(5.00011e-05 6.92774e-10 3.02469e-11)
(5.0001e-05 7.37205e-10 -3.21871e-11)
(5.0001e-05 7.37205e-10 3.21868e-11)
(5.00009e-05 7.69642e-10 -3.36033e-11)
(5.00009e-05 7.69642e-10 3.3603e-11)
(5.00007e-05 7.87426e-10 -3.43798e-11)
(5.00007e-05 7.87426e-10 3.43795e-11)
(5.00006e-05 7.93865e-10 -3.46609e-11)
(5.00006e-05 7.93865e-10 3.46606e-11)
(5.00004e-05 7.91403e-10 -3.45534e-11)
(5.00004e-05 7.91403e-10 3.45531e-11)
(5.00001e-05 7.84434e-10 -3.42491e-11)
(5.00001e-05 7.84434e-10 3.42489e-11)
(4.99999e-05 7.8519e-10 -3.42821e-11)
(4.99999e-05 7.8519e-10 3.42819e-11)
(4.99996e-05 7.98265e-10 -3.4853e-11)
(4.99996e-05 7.98265e-10 3.48528e-11)
(5.00016e-05 1.21855e-17 -3.20774e-16)
(5.00016e-05 1.31965e-10 -5.76172e-12)
(5.00016e-05 1.31965e-10 5.76139e-12)
(5.00016e-05 6.7024e-11 2.92602e-12)
(5.00016e-05 6.7024e-11 -2.92635e-12)
(5.00016e-05 1.96181e-10 -8.56545e-12)
(5.00016e-05 1.96181e-10 8.56513e-12)
(5.00015e-05 2.55575e-10 -1.11587e-11)
(5.00015e-05 2.55575e-10 1.11583e-11)
(5.00014e-05 3.11157e-10 -1.35854e-11)
(5.00014e-05 3.11157e-10 1.35851e-11)
(5.00013e-05 3.60774e-10 -1.57517e-11)
(5.00013e-05 3.60774e-10 1.57514e-11)
(5.00013e-05 4.03302e-10 -1.76085e-11)
(5.00013e-05 4.03302e-10 1.76082e-11)
(5.00011e-05 4.38929e-10 -1.91641e-11)
(5.00011e-05 4.38929e-10 1.91638e-11)
(5.0001e-05 4.65072e-10 -2.03055e-11)
(5.0001e-05 4.65072e-10 2.03052e-11)
(5.00009e-05 4.83771e-10 -2.11219e-11)
(5.00009e-05 4.83771e-10 2.11216e-11)
(5.00007e-05 4.92975e-10 -2.15238e-11)
(5.00007e-05 4.92975e-10 2.15235e-11)
(5.00006e-05 4.96209e-10 -2.16649e-11)
(5.00006e-05 4.96209e-10 2.16647e-11)
(5.00004e-05 4.95478e-10 -2.16331e-11)
(5.00004e-05 4.95478e-10 2.16328e-11)
(5.00002e-05 4.948e-10 -2.16034e-11)
(5.00002e-05 4.948e-10 2.16032e-11)
(5e-05 5.03562e-10 -2.1986e-11)
(5e-05 5.03562e-10 2.19857e-11)
(4.99998e-05 5.23357e-10 -2.28503e-11)
(4.99998e-05 5.23357e-10 2.285e-11)
(5.00016e-05 1.21855e-17 -3.20774e-16)
(5.00015e-05 7.15935e-11 -3.12586e-12)
(5.00015e-05 7.15935e-11 3.12553e-12)
(5.00016e-05 3.65833e-11 1.59695e-12)
(5.00016e-05 3.65833e-11 -1.59728e-12)
(5.00015e-05 1.06709e-10 -4.65903e-12)
(5.00015e-05 1.06709e-10 4.6587e-12)
(5.00014e-05 1.38522e-10 -6.04801e-12)
(5.00014e-05 1.38522e-10 6.04768e-12)
(5.00014e-05 1.68325e-10 -7.34925e-12)
(5.00014e-05 1.68325e-10 7.34892e-12)
(5.00013e-05 1.94497e-10 -8.49194e-12)
(5.00013e-05 1.94497e-10 8.49162e-12)
(5.00012e-05 2.16293e-10 -9.44355e-12)
(5.00012e-05 2.16293e-10 9.44324e-12)
(5.00011e-05 2.34296e-10 -1.02296e-11)
(5.00011e-05 2.34296e-10 1.02293e-11)
(5.0001e-05 2.46397e-10 -1.0758e-11)
(5.0001e-05 2.46397e-10 1.07576e-11)
(5.00009e-05 2.54901e-10 -1.11292e-11)
(5.00009e-05 2.54901e-10 1.11289e-11)
(5.00007e-05 2.58145e-10 -1.12709e-11)
(5.00007e-05 2.58145e-10 1.12705e-11)
(5.00006e-05 2.59578e-10 -1.13335e-11)
(5.00006e-05 2.59578e-10 1.13331e-11)
(5.00004e-05 2.60622e-10 -1.1379e-11)
(5.00004e-05 2.60622e-10 1.13787e-11)
(5.00002e-05 2.64546e-10 -1.15503e-11)
(5.00002e-05 2.64546e-10 1.155e-11)
(5e-05 2.78032e-10 -1.21392e-11)
(5e-05 2.78032e-10 1.21389e-11)
(4.99999e-05 3.00732e-10 -1.31302e-11)
(4.99999e-05 3.00732e-10 1.31299e-11)
(5.00016e-05 1.21855e-17 -3.20773e-16)
(5.00015e-05 2.24281e-11 -9.79252e-13)
(5.00015e-05 2.24281e-11 9.78913e-13)
(5.00015e-05 1.17961e-11 5.14707e-13)
(5.00015e-05 1.17961e-11 -5.15047e-13)
(5.00014e-05 3.39065e-11 -1.48041e-12)
(5.00014e-05 3.39065e-11 1.48007e-12)
(5.00014e-05 4.33748e-11 -1.89381e-12)
(5.00014e-05 4.33748e-11 1.89347e-12)
(5.00013e-05 5.23869e-11 -2.28728e-12)
(5.00013e-05 5.23869e-11 2.28695e-12)
(5.00012e-05 5.98071e-11 -2.61125e-12)
(5.00012e-05 5.98071e-11 2.61092e-12)
(5.00012e-05 6.51823e-11 -2.84594e-12)
(5.00012e-05 6.51823e-11 2.84561e-12)
(5.00011e-05 6.94733e-11 -3.03329e-12)
(5.00011e-05 6.94733e-11 3.03295e-12)
(5.0001e-05 7.0888e-11 -3.09506e-12)
(5.0001e-05 7.0888e-11 3.09472e-12)
(5.00008e-05 7.19158e-11 -3.13993e-12)
(5.00008e-05 7.19158e-11 3.1396e-12)
(5.00007e-05 7.10336e-11 -3.10141e-12)
(5.00007e-05 7.10336e-11 3.10108e-12)
(5.00006e-05 7.14858e-11 -3.12116e-12)
(5.00006e-05 7.14858e-11 3.12082e-12)
(5.00004e-05 7.39996e-11 -3.23091e-12)
(5.00004e-05 7.39996e-11 3.23058e-12)
(5.00003e-05 8.10893e-11 -3.54045e-12)
(5.00003e-05 8.10893e-11 3.54012e-12)
(5.00001e-05 9.73032e-11 -4.24837e-12)
(5.00001e-05 9.73032e-11 4.24804e-12)
(5e-05 1.21068e-10 -5.28598e-12)
(5e-05 1.21068e-10 5.28565e-12)
(5.00015e-05 1.21854e-17 -3.20773e-16)
(5.00014e-05 -1.78808e-11 7.80671e-13)
(5.00014e-05 -1.78808e-11 -7.81015e-13)
(5.00014e-05 -8.52918e-12 -3.72714e-13)
(5.00014e-05 -8.52918e-12 3.72371e-13)
(5.00013e-05 -2.57057e-11 1.12232e-12)
(5.00013e-05 -2.57057e-11 -1.12266e-12)
(5.00013e-05 -3.44119e-11 1.50244e-12)
(5.00013e-05 -3.44119e-11 -1.50278e-12)
(5.00012e-05 -4.22095e-11 1.84288e-12)
(5.00012e-05 -4.22095e-11 -1.84323e-12)
(5.00012e-05 -4.97836e-11 2.17358e-12)
(5.00012e-05 -4.97836e-11 -2.17393e-12)
(5.00011e-05 -5.73953e-11 2.50591e-12)
(5.00011e-05 -5.73953e-11 -2.50626e-12)
(5.0001e-05 -6.37224e-11 2.78216e-12)
(5.0001e-05 -6.37224e-11 -2.78251e-12)
(5.00009e-05 -7.04039e-11 3.07388e-12)
(5.00009e-05 -7.04039e-11 -3.07423e-12)
(5.00008e-05 -7.48149e-11 3.26647e-12)
(5.00008e-05 -7.48149e-11 -3.26682e-12)
(5.00007e-05 -7.85371e-11 3.42898e-12)
(5.00007e-05 -7.85371e-11 -3.42933e-12)
(5.00006e-05 -7.85832e-11 3.431e-12)
(5.00006e-05 -7.85832e-11 -3.43135e-12)
(5.00004e-05 -7.49409e-11 3.27197e-12)
(5.00004e-05 -7.49409e-11 -3.27232e-12)
(5.00003e-05 -6.57973e-11 2.87275e-12)
(5.00003e-05 -6.57973e-11 -2.8731e-12)
(5.00002e-05 -4.83196e-11 2.10966e-12)
(5.00002e-05 -4.83196e-11 -2.11e-12)
(5.00001e-05 -2.49429e-11 1.08901e-12)
(5.00001e-05 -2.49429e-11 -1.08936e-12)
(5.00014e-05 1.21854e-17 -3.20772e-16)
(5.00012e-05 -5.1387e-11 2.24358e-12)
(5.00012e-05 -5.1387e-11 -2.24393e-12)
(5.00013e-05 -2.54297e-11 -1.11061e-12)
(5.00013e-05 -2.54297e-11 1.11026e-12)
(5.00012e-05 -7.5185e-11 3.28263e-12)
(5.00012e-05 -7.5185e-11 -3.28298e-12)
(5.00012e-05 -9.8853e-11 4.31599e-12)
(5.00012e-05 -9.8853e-11 -4.31635e-12)
(5.00011e-05 -1.20398e-10 5.25667e-12)
(5.00011e-05 -1.20398e-10 -5.25702e-12)
(5.00011e-05 -1.4008e-10 6.11601e-12)
(5.00011e-05 -1.4008e-10 -6.11637e-12)
(5.0001e-05 -1.58063e-10 6.90115e-12)
(5.0001e-05 -1.58063e-10 -6.90151e-12)
(5.00009e-05 -1.72679e-10 7.5393e-12)
(5.00009e-05 -1.72679e-10 -7.53966e-12)
(5.00008e-05 -1.85547e-10 8.10112e-12)
(5.00008e-05 -1.85547e-10 -8.10148e-12)
(5.00007e-05 -1.93944e-10 8.46778e-12)
(5.00007e-05 -1.93944e-10 -8.46814e-12)
(5.00006e-05 -1.9963e-10 8.71603e-12)
(5.00006e-05 -1.9963e-10 -8.71639e-12)
(5.00005e-05 -1.99896e-10 8.72763e-12)
(5.00005e-05 -1.99896e-10 -8.72799e-12)
(5.00004e-05 -1.95399e-10 8.53128e-12)
(5.00004e-05 -1.95399e-10 -8.53165e-12)
(5.00003e-05 -1.84944e-10 8.0748e-12)
(5.00003e-05 -1.84944e-10 -8.07517e-12)
(5.00002e-05 -1.67039e-10 7.29308e-12)
(5.00002e-05 -1.67039e-10 -7.29344e-12)
(5.00001e-05 -1.4474e-10 6.31947e-12)
(5.00001e-05 -1.4474e-10 -6.31983e-12)
(5.00013e-05 1.21854e-17 -3.20771e-16)
(5.00011e-05 -7.98788e-11 3.48756e-12)
(5.00011e-05 -7.98788e-11 -3.48791e-12)
(5.00011e-05 -3.9807e-11 -1.73834e-12)
(5.00011e-05 -3.9807e-11 1.73799e-12)
(5.00011e-05 -1.17197e-10 5.1169e-12)
(5.00011e-05 -1.17197e-10 -5.11726e-12)
(5.0001e-05 -1.53455e-10 6.69996e-12)
(5.0001e-05 -1.53455e-10 -6.70032e-12)
(5.0001e-05 -1.86496e-10 8.14255e-12)
(5.0001e-05 -1.86496e-10 -8.14291e-12)
(5.0001e-05 -2.16166e-10 9.43798e-12)
(5.0001e-05 -2.16166e-10 -9.43834e-12)
(5.00009e-05 -2.42614e-10 1.05927e-11)
(5.00009e-05 -2.42614e-10 -1.05931e-11)
(5.00008e-05 -2.63841e-10 1.15195e-11)
(5.00008e-05 -2.63841e-10 -1.15199e-11)
(5.00008e-05 -2.81538e-10 1.22922e-11)
(5.00008e-05 -2.81538e-10 -1.22926e-11)
(5.00007e-05 -2.92918e-10 1.27891e-11)
(5.00007e-05 -2.92918e-10 -1.27894e-11)
(5.00006e-05 -2.99971e-10 1.3097e-11)
(5.00006e-05 -2.99971e-10 -1.30973e-11)
(5.00005e-05 -3.00276e-10 1.31103e-11)
(5.00005e-05 -3.00276e-10 -1.31107e-11)
(5.00004e-05 -2.95083e-10 1.28836e-11)
(5.00004e-05 -2.95083e-10 -1.2884e-11)
(5.00003e-05 -2.83749e-10 1.23887e-11)
(5.00003e-05 -2.83749e-10 -1.23891e-11)
(5.00003e-05 -2.65839e-10 1.16068e-11)
(5.00003e-05 -2.65839e-10 -1.16071e-11)
(5.00002e-05 -2.44894e-10 1.06923e-11)
(5.00002e-05 -2.44894e-10 -1.06927e-11)
(5.00011e-05 1.21854e-17 -3.2077e-16)
(5.00009e-05 -1.04936e-10 4.58157e-12)
(5.00009e-05 -1.04936e-10 -4.58192e-12)
(5.0001e-05 -5.24563e-11 -2.29062e-12)
(5.0001e-05 -5.24563e-11 2.29027e-12)
(5.00009e-05 -1.54096e-10 6.72795e-12)
(5.00009e-05 -1.54096e-10 -6.72831e-12)
(5.00009e-05 -2.01317e-10 8.78966e-12)
(5.00009e-05 -2.01317e-10 -8.79002e-12)
(5.00009e-05 -2.44318e-10 1.06671e-11)
(5.00009e-05 -2.44318e-10 -1.06675e-11)
(5.00008e-05 -2.82528e-10 1.23354e-11)
(5.00008e-05 -2.82528e-10 -1.23358e-11)
(5.00008e-05 -3.16154e-10 1.38036e-11)
(5.00008e-05 -3.16154e-10 -1.38039e-11)
(5.00007e-05 -3.42864e-10 1.49697e-11)
(5.00007e-05 -3.42864e-10 -1.49701e-11)
(5.00007e-05 -3.64485e-10 1.59137e-11)
(5.00007e-05 -3.64485e-10 -1.59141e-11)
(5.00006e-05 -3.78186e-10 1.6512e-11)
(5.00006e-05 -3.78186e-10 -1.65123e-11)
(5.00006e-05 -3.86197e-10 1.68617e-11)
(5.00006e-05 -3.86197e-10 -1.68621e-11)
(5.00005e-05 -3.86396e-10 1.68704e-11)
(5.00005e-05 -3.86396e-10 -1.68708e-11)
(5.00004e-05 -3.80529e-10 1.66142e-11)
(5.00004e-05 -3.80529e-10 -1.66146e-11)
(5.00004e-05 -3.68461e-10 1.60873e-11)
(5.00004e-05 -3.68461e-10 -1.60877e-11)
(5.00003e-05 -3.50589e-10 1.5307e-11)
(5.00003e-05 -3.50589e-10 -1.53074e-11)
(5.00002e-05 -3.3087e-10 1.44461e-11)
(5.00002e-05 -3.3087e-10 -1.44465e-11)
(5.0001e-05 1.21853e-17 -3.20769e-16)
(5.00008e-05 -1.2794e-10 5.58597e-12)
(5.00008e-05 -1.2794e-10 -5.58633e-12)
(5.00008e-05 -6.40734e-11 -2.79783e-12)
(5.00008e-05 -6.40734e-11 2.79748e-12)
(5.00008e-05 -1.87942e-10 8.20569e-12)
(5.00008e-05 -1.87942e-10 -8.20606e-12)
(5.00007e-05 -2.45147e-10 1.07033e-11)
(5.00007e-05 -2.45147e-10 -1.07037e-11)
(5.00007e-05 -2.97194e-10 1.29757e-11)
(5.00007e-05 -2.97194e-10 -1.29761e-11)
(5.00007e-05 -3.43074e-10 1.49789e-11)
(5.00007e-05 -3.43074e-10 -1.49793e-11)
(5.00007e-05 -3.83108e-10 1.67268e-11)
(5.00007e-05 -3.83108e-10 -1.67272e-11)
(5.00006e-05 -4.14626e-10 1.81029e-11)
(5.00006e-05 -4.14626e-10 -1.81033e-11)
(5.00006e-05 -4.39623e-10 1.91943e-11)
(5.00006e-05 -4.39623e-10 -1.91947e-11)
(5.00006e-05 -4.5524e-10 1.98762e-11)
(5.00006e-05 -4.5524e-10 -1.98766e-11)
(5.00005e-05 -4.63923e-10 2.02553e-11)
(5.00005e-05 -4.63923e-10 -2.02557e-11)
(5.00005e-05 -4.63865e-10 2.02528e-11)
(5.00005e-05 -4.63865e-10 -2.02531e-11)
(5.00004e-05 -4.57205e-10 1.9962e-11)
(5.00004e-05 -4.57205e-10 -1.99624e-11)
(5.00004e-05 -4.44301e-10 1.93986e-11)
(5.00004e-05 -4.44301e-10 -1.9399e-11)
(5.00003e-05 -4.26212e-10 1.86088e-11)
(5.00003e-05 -4.26212e-10 -1.86092e-11)
(5.00003e-05 -4.07293e-10 1.77828e-11)
(5.00003e-05 -4.07293e-10 -1.77832e-11)
(5.00008e-05 1.21853e-17 -3.20768e-16)
(5.00006e-05 -1.501e-10 6.5535e-12)
(5.00006e-05 -1.501e-10 -6.55386e-12)
(5.00006e-05 -7.52657e-11 -3.2865e-12)
(5.00006e-05 -7.52657e-11 3.28615e-12)
(5.00006e-05 -2.20532e-10 9.62861e-12)
(5.00006e-05 -2.20532e-10 -9.62897e-12)
(5.00006e-05 -2.87305e-10 1.2544e-11)
(5.00006e-05 -2.87305e-10 -1.25444e-11)
(5.00006e-05 -3.48021e-10 1.51949e-11)
(5.00006e-05 -3.48021e-10 -1.51953e-11)
(5.00006e-05 -4.01191e-10 1.75163e-11)
(5.00006e-05 -4.01191e-10 -1.75167e-11)
(5.00006e-05 -4.47303e-10 1.95297e-11)
(5.00006e-05 -4.47303e-10 -1.95301e-11)
(5.00005e-05 -4.83325e-10 2.11024e-11)
(5.00005e-05 -4.83325e-10 -2.11028e-11)
(5.00005e-05 -5.11433e-10 2.23296e-11)
(5.00005e-05 -5.11433e-10 -2.233e-11)
(5.00005e-05 -5.28754e-10 2.30859e-11)
(5.00005e-05 -5.28754e-10 -2.30863e-11)
(5.00005e-05 -5.37899e-10 2.34852e-11)
(5.00005e-05 -5.37899e-10 -2.34856e-11)
(5.00004e-05 -5.37403e-10 2.34635e-11)
(5.00004e-05 -5.37403e-10 -2.34639e-11)
(5.00004e-05 -5.29692e-10 2.31268e-11)
(5.00004e-05 -5.29692e-10 -2.31272e-11)
(5.00004e-05 -5.1563e-10 2.25129e-11)
(5.00004e-05 -5.1563e-10 -2.25133e-11)
(5.00003e-05 -4.96807e-10 2.1691e-11)
(5.00003e-05 -4.96807e-10 -2.16914e-11)
(5.00003e-05 -4.77994e-10 2.08696e-11)
(5.00003e-05 -4.77994e-10 -2.087e-11)
(5.00006e-05 1.21852e-17 -3.20767e-16)
(5.00004e-05 -1.72449e-10 7.52927e-12)
(5.00004e-05 -1.72449e-10 -7.52963e-12)
(5.00004e-05 -8.65531e-11 -3.77932e-12)
(5.00004e-05 -8.65531e-11 3.77897e-12)
(5.00004e-05 -2.53403e-10 1.10638e-11)
(5.00004e-05 -2.53403e-10 -1.10642e-11)
(5.00004e-05 -3.29808e-10 1.43997e-11)
(5.00004e-05 -3.29808e-10 -1.44001e-11)
(5.00004e-05 -3.99268e-10 1.74324e-11)
(5.00004e-05 -3.99268e-10 -1.74328e-11)
(5.00004e-05 -4.59761e-10 2.00736e-11)
(5.00004e-05 -4.59761e-10 -2.00739e-11)
(5.00004e-05 -5.11984e-10 2.23537e-11)
(5.00004e-05 -5.11984e-10 -2.23541e-11)
(5.00004e-05 -5.52509e-10 2.4123e-11)
(5.00004e-05 -5.52509e-10 -2.41234e-11)
(5.00004e-05 -5.83686e-10 2.54843e-11)
(5.00004e-05 -5.83686e-10 -2.54847e-11)
(5.00004e-05 -6.02643e-10 2.63119e-11)
(5.00004e-05 -6.02643e-10 -2.63123e-11)
(5.00004e-05 -6.12084e-10 2.67242e-11)
(5.00004e-05 -6.12084e-10 -2.67246e-11)
(5.00004e-05 -6.10924e-10 2.66735e-11)
(5.00004e-05 -6.10924e-10 -2.66739e-11)
(5.00004e-05 -6.01771e-10 2.62739e-11)
(5.00004e-05 -6.01771e-10 -2.62743e-11)
(5.00004e-05 -5.86033e-10 2.55867e-11)
(5.00004e-05 -5.86033e-10 -2.55871e-11)
(5.00003e-05 -5.65727e-10 2.47002e-11)
(5.00003e-05 -5.65727e-10 -2.47006e-11)
(5.00003e-05 -5.46094e-10 2.38429e-11)
(5.00003e-05 -5.46094e-10 -2.38433e-11)
(5.00004e-05 1.21852e-17 -3.20766e-16)
(5.00002e-05 -1.95854e-10 8.55113e-12)
(5.00002e-05 -1.95854e-10 -8.55149e-12)
(5.00002e-05 -9.83718e-11 -4.29534e-12)
(5.00002e-05 -9.83718e-11 4.29499e-12)
(5.00002e-05 -2.87846e-10 1.25676e-11)
(5.00002e-05 -2.87846e-10 -1.2568e-11)
(5.00002e-05 -3.74345e-10 1.63442e-11)
(5.00002e-05 -3.74345e-10 -1.63446e-11)
(5.00002e-05 -4.53008e-10 1.97787e-11)
(5.00002e-05 -4.53008e-10 -1.97791e-11)
(5.00003e-05 -5.21196e-10 2.27559e-11)
(5.00003e-05 -5.21196e-10 -2.27563e-11)
(5.00003e-05 -5.79863e-10 2.53174e-11)
(5.00003e-05 -5.79863e-10 -2.53178e-11)
(5.00003e-05 -6.25136e-10 2.7294e-11)
(5.00003e-05 -6.25136e-10 -2.72944e-11)
(5.00003e-05 -6.59519e-10 2.87952e-11)
(5.00003e-05 -6.59519e-10 -2.87956e-11)
(5.00004e-05 -6.80149e-10 2.96959e-11)
(5.00004e-05 -6.80149e-10 -2.96963e-11)
(5.00004e-05 -6.89745e-10 3.01149e-11)
(5.00004e-05 -6.89745e-10 -3.01153e-11)
(5.00004e-05 -6.87646e-10 3.00233e-11)
(5.00004e-05 -6.87646e-10 -3.00237e-11)
(5.00004e-05 -6.76534e-10 2.95381e-11)
(5.00004e-05 -6.76534e-10 -2.95385e-11)
(5.00004e-05 -6.5842e-10 2.87472e-11)
(5.00004e-05 -6.5842e-10 -2.87476e-11)
(5.00003e-05 -6.3567e-10 2.77539e-11)
(5.00003e-05 -6.3567e-10 -2.77543e-11)
(5.00003e-05 -6.14069e-10 2.68108e-11)
(5.00003e-05 -6.14069e-10 -2.68112e-11)
(5.00002e-05 1.21851e-17 -3.20764e-16)
(4.99999e-05 -2.21002e-10 9.64915e-12)
(4.99999e-05 -2.21002e-10 -9.64951e-12)
(4.99999e-05 -1.11068e-10 -4.84966e-12)
(4.99999e-05 -1.11068e-10 4.84931e-12)
(5e-05 -3.24886e-10 1.41848e-11)
(5e-05 -3.24886e-10 -1.41852e-11)
(5e-05 -4.22261e-10 1.84363e-11)
(5e-05 -4.22261e-10 -1.84367e-11)
(5e-05 -5.10888e-10 2.23058e-11)
(5e-05 -5.10888e-10 -2.23062e-11)
(5.00001e-05 -5.87422e-10 2.56474e-11)
(5.00001e-05 -5.87422e-10 -2.56478e-11)
(5.00001e-05 -6.53105e-10 2.85151e-11)
(5.00001e-05 -6.53105e-10 -2.85156e-11)
(5.00002e-05 -7.03566e-10 3.07183e-11)
(5.00002e-05 -7.03566e-10 -3.07188e-11)
(5.00002e-05 -7.41428e-10 3.23714e-11)
(5.00002e-05 -7.41428e-10 -3.23719e-11)
(5.00003e-05 -7.63855e-10 3.33506e-11)
(5.00003e-05 -7.63855e-10 -3.3351e-11)
(5.00003e-05 -7.7347e-10 3.37704e-11)
(5.00003e-05 -7.7347e-10 -3.37708e-11)
(5.00004e-05 -7.70106e-10 3.36235e-11)
(5.00004e-05 -7.70106e-10 -3.3624e-11)
(5.00004e-05 -7.56397e-10 3.3025e-11)
(5.00004e-05 -7.56397e-10 -3.30254e-11)
(5.00004e-05 -7.3504e-10 3.20925e-11)
(5.00004e-05 -7.3504e-10 -3.20929e-11)
(5.00004e-05 -7.08681e-10 3.09417e-11)
(5.00004e-05 -7.08681e-10 -3.09421e-11)
(5.00003e-05 -6.8375e-10 2.98532e-11)
(5.00003e-05 -6.8375e-10 -2.98536e-11)
(4.99999e-05 1.21851e-17 -3.20763e-16)
(4.99996e-05 -2.48397e-10 1.08452e-11)
(4.99996e-05 -2.48397e-10 -1.08456e-11)
(4.99996e-05 -1.24894e-10 -5.45331e-12)
(4.99996e-05 -1.24894e-10 5.45295e-12)
(4.99997e-05 -3.65275e-10 1.59482e-11)
(4.99997e-05 -3.65275e-10 -1.59486e-11)
(4.99997e-05 -4.74544e-10 2.0719e-11)
(4.99997e-05 -4.74544e-10 -2.07194e-11)
(4.99998e-05 -5.74131e-10 2.50671e-11)
(4.99998e-05 -5.74131e-10 -2.50675e-11)
(4.99999e-05 -6.59866e-10 2.88104e-11)
(4.99999e-05 -6.59866e-10 -2.88108e-11)
(5e-05 -7.33323e-10 3.20175e-11)
(5e-05 -7.33323e-10 -3.2018e-11)
(5e-05 -7.89569e-10 3.44733e-11)
(5e-05 -7.89569e-10 -3.44737e-11)
(5.00001e-05 -8.31291e-10 3.62949e-11)
(5.00001e-05 -8.31291e-10 -3.62954e-11)
(5.00002e-05 -8.55701e-10 3.73607e-11)
(5.00002e-05 -8.55701e-10 -3.73611e-11)
(5.00003e-05 -8.65202e-10 3.77755e-11)
(5.00003e-05 -8.65202e-10 -3.77759e-11)
(5.00003e-05 -8.60198e-10 3.7557e-11)
(5.00003e-05 -8.60198e-10 -3.75575e-11)
(5.00004e-05 -8.4314e-10 3.68122e-11)
(5.00004e-05 -8.4314e-10 -3.68127e-11)
(5.00004e-05 -8.17515e-10 3.56934e-11)
(5.00004e-05 -8.17515e-10 -3.56939e-11)
(5.00004e-05 -7.86184e-10 3.43255e-11)
(5.00004e-05 -7.86184e-10 -3.43259e-11)
(5.00004e-05 -7.5634e-10 3.30225e-11)
(5.00004e-05 -7.5634e-10 -3.30229e-11)
(4.99996e-05 1.2185e-17 -3.20761e-16)
(4.99993e-05 -2.78322e-10 1.21518e-11)
(4.99993e-05 -2.78322e-10 -1.21521e-11)
(4.99993e-05 -1.3999e-10 -6.11244e-12)
(4.99993e-05 -1.3999e-10 6.11208e-12)
(4.99994e-05 -4.09446e-10 1.78768e-11)
(4.99994e-05 -4.09446e-10 -1.78772e-11)
(4.99995e-05 -5.31768e-10 2.32174e-11)
(4.99995e-05 -5.31768e-10 -2.32178e-11)
(4.99996e-05 -6.43456e-10 2.80939e-11)
(4.99996e-05 -6.43456e-10 -2.80943e-11)
(4.99997e-05 -7.39389e-10 3.22824e-11)
(4.99997e-05 -7.39389e-10 -3.22828e-11)
(4.99998e-05 -8.21506e-10 3.58677e-11)
(4.99998e-05 -8.21506e-10 -3.58681e-11)
(4.99999e-05 -8.84242e-10 3.86068e-11)
(4.99999e-05 -8.84242e-10 -3.86073e-11)
(5e-05 -9.30286e-10 4.06171e-11)
(5e-05 -9.30286e-10 -4.06176e-11)
(5.00001e-05 -9.56916e-10 4.17798e-11)
(5.00001e-05 -9.56916e-10 -4.17803e-11)
(5.00002e-05 -9.66166e-10 4.21837e-11)
(5.00002e-05 -9.66166e-10 -4.21841e-11)
(5.00003e-05 -9.59101e-10 4.18752e-11)
(5.00003e-05 -9.59101e-10 -4.18757e-11)
(5.00004e-05 -9.37838e-10 4.09469e-11)
(5.00004e-05 -9.37838e-10 -4.09473e-11)
(5.00004e-05 -9.0677e-10 3.95904e-11)
(5.00004e-05 -9.0677e-10 -3.95908e-11)
(5.00004e-05 -8.68905e-10 3.79372e-11)
(5.00004e-05 -8.68905e-10 -3.79376e-11)
(5.00004e-05 -8.32337e-10 3.63406e-11)
(5.00004e-05 -8.32337e-10 -3.6341e-11)
(4.99993e-05 1.21849e-17 -3.20759e-16)
(4.9999e-05 -3.10807e-10 1.35701e-11)
(4.9999e-05 -3.10807e-10 -1.35705e-11)
(4.9999e-05 -1.56372e-10 -6.82768e-12)
(4.9999e-05 -1.56372e-10 6.82733e-12)
(4.99991e-05 -4.57462e-10 1.99732e-11)
(4.99991e-05 -4.57462e-10 -1.99736e-11)
(4.99992e-05 -5.94031e-10 2.59359e-11)
(4.99992e-05 -5.94031e-10 -2.59363e-11)
(4.99993e-05 -7.19021e-10 3.13931e-11)
(4.99993e-05 -7.19021e-10 -3.13935e-11)
(4.99994e-05 -8.26206e-10 3.60729e-11)
(4.99994e-05 -8.26206e-10 -3.60733e-11)
(4.99996e-05 -9.17938e-10 4.0078e-11)
(4.99996e-05 -9.17938e-10 -4.00785e-11)
(4.99997e-05 -9.87941e-10 4.31344e-11)
(4.99997e-05 -9.87941e-10 -4.31349e-11)
(4.99999e-05 -1.03882e-09 4.53558e-11)
(4.99999e-05 -1.03882e-09 -4.53562e-11)
(5e-05 -1.06794e-09 4.66274e-11)
(5e-05 -1.06794e-09 -4.66279e-11)
(5.00002e-05 -1.0768e-09 4.70142e-11)
(5.00002e-05 -1.0768e-09 -4.70147e-11)
(5.00003e-05 -1.06722e-09 4.6596e-11)
(5.00003e-05 -1.06722e-09 -4.65964e-11)
(5.00004e-05 -1.04081e-09 4.54425e-11)
(5.00004e-05 -1.04081e-09 -4.5443e-11)
(5.00004e-05 -1.00298e-09 4.3791e-11)
(5.00004e-05 -1.00298e-09 -4.37915e-11)
(5.00004e-05 -9.56822e-10 4.17757e-11)
(5.00004e-05 -9.56822e-10 -4.17762e-11)
(5.00004e-05 -9.11474e-10 3.97958e-11)
(5.00004e-05 -9.11474e-10 -3.97962e-11)
(4.9999e-05 1.21848e-17 -3.20756e-16)
(4.99986e-05 -3.45569e-10 1.50879e-11)
(4.99986e-05 -3.45569e-10 -1.50882e-11)
(4.99986e-05 -1.73894e-10 -7.59271e-12)
(4.99986e-05 -1.73894e-10 7.59235e-12)
(4.99987e-05 -5.08928e-10 2.22203e-11)
(4.99987e-05 -5.08928e-10 -2.22207e-11)
(4.99988e-05 -6.60842e-10 2.88529e-11)
(4.99988e-05 -6.60842e-10 -2.88534e-11)
(4.9999e-05 -8.00276e-10 3.49408e-11)
(4.9999e-05 -8.00276e-10 -3.49412e-11)
(4.99991e-05 -9.19735e-10 4.01565e-11)
(4.99991e-05 -9.19735e-10 -4.01569e-11)
(4.99993e-05 -1.02203e-09 4.4623e-11)
(4.99993e-05 -1.02203e-09 -4.46234e-11)
(4.99995e-05 -1.1001e-09 4.80313e-11)
(4.99995e-05 -1.1001e-09 -4.80318e-11)
(4.99997e-05 -1.15634e-09 5.0487e-11)
(4.99997e-05 -1.15634e-09 -5.04875e-11)
(4.99999e-05 -1.18827e-09 5.18811e-11)
(4.99999e-05 -1.18827e-09 -5.18816e-11)
(5.00001e-05 -1.1966e-09 5.22446e-11)
(5.00001e-05 -1.1966e-09 -5.22451e-11)
(5.00003e-05 -1.18403e-09 5.16959e-11)
(5.00003e-05 -1.18403e-09 -5.16964e-11)
(5.00004e-05 -1.15143e-09 5.02723e-11)
(5.00004e-05 -1.15143e-09 -5.02728e-11)
(5.00005e-05 -1.1054e-09 4.8263e-11)
(5.00005e-05 -1.1054e-09 -4.82634e-11)
(5.00005e-05 -1.049e-09 4.58002e-11)
(5.00005e-05 -1.049e-09 -4.58006e-11)
(5.00005e-05 -9.92559e-10 4.3336e-11)
(5.00005e-05 -9.92559e-10 -4.33365e-11)
(4.99985e-05 1.21847e-17 -3.20754e-16)
(4.99982e-05 -3.81943e-10 1.6676e-11)
(4.99982e-05 -3.81943e-10 -1.66763e-11)
(4.99981e-05 -1.92217e-10 -8.39271e-12)
(4.99981e-05 -1.92217e-10 8.39235e-12)
(4.99983e-05 -5.62891e-10 2.45763e-11)
(4.99983e-05 -5.62891e-10 -2.45767e-11)
(4.99984e-05 -7.30989e-10 3.19156e-11)
(4.99984e-05 -7.30989e-10 -3.19161e-11)
(4.99986e-05 -8.85816e-10 3.86755e-11)
(4.99986e-05 -8.85816e-10 -3.8676e-11)
(4.99988e-05 -1.01843e-09 4.44654e-11)
(4.99988e-05 -1.01843e-09 -4.44658e-11)
(4.99991e-05 -1.13215e-09 4.94309e-11)
(4.99991e-05 -1.13215e-09 -4.94313e-11)
(4.99993e-05 -1.21903e-09 5.32241e-11)
(4.99993e-05 -1.21903e-09 -5.32246e-11)
(4.99995e-05 -1.28117e-09 5.59371e-11)
(4.99995e-05 -1.28117e-09 -5.59376e-11)
(4.99998e-05 -1.31623e-09 5.74678e-11)
(4.99998e-05 -1.31623e-09 -5.74683e-11)
(5e-05 -1.32389e-09 5.78022e-11)
(5e-05 -1.32389e-09 -5.78026e-11)
(5.00002e-05 -1.30786e-09 5.71023e-11)
(5.00002e-05 -1.30786e-09 -5.71028e-11)
(5.00004e-05 -1.26798e-09 5.53611e-11)
(5.00004e-05 -1.26798e-09 -5.53616e-11)
(5.00005e-05 -1.21222e-09 5.29266e-11)
(5.00005e-05 -1.21222e-09 -5.2927e-11)
(5.00006e-05 -1.14341e-09 4.99225e-11)
(5.00006e-05 -1.14341e-09 -4.99229e-11)
(5.00006e-05 -1.07331e-09 4.68617e-11)
(5.00006e-05 -1.07331e-09 -4.68622e-11)
(4.99981e-05 1.21846e-17 -3.20751e-16)
(4.99977e-05 -4.18768e-10 1.82838e-11)
(4.99977e-05 -4.18768e-10 -1.82842e-11)
(4.99976e-05 -2.10753e-10 -9.20201e-12)
(4.99976e-05 -2.10753e-10 9.20165e-12)
(4.99978e-05 -6.17677e-10 2.69683e-11)
(4.99978e-05 -6.17677e-10 -2.69687e-11)
(4.9998e-05 -8.02338e-10 3.50308e-11)
(4.9998e-05 -8.02338e-10 -3.50312e-11)
(4.99982e-05 -9.73135e-10 4.24879e-11)