/*--------------------------------*- C++ -*----------------------------------*\
| =========                 |                                                 |
| \\      /  F ield         | OpenFOAM: The Open Source CFD Toolbox           |
|  \\    /   O peration     | Version:  4.1                                   |
|   \\  /    A nd           | Web:      www.OpenFOAM.org                      |
|    \\/     M anipulation  |                                                 |
\*---------------------------------------------------------------------------*/
FoamFile
{
    version     2.0;
    format      ascii;
    class       pointVectorField;
    location    "0.0028";
    object      pointDisplacement_Next_Iter2;
}
// * * * * * * * * * * * * * * * * * * * * * * * * * * * * * * * * * * * * * //

dimensions      [0 1 0 0 0 0 0];

internalField   uniform (0 0 0);

boundaryField
{
    inlet
    {
        type            fixedValue;
        value           uniform (0 0 0);
    }
    outlet
    {
        type            fixedValue;
        value           uniform (0 0 0);
    }
    mantle
    {
        type            fixedValue;
        value           nonuniform List<vector> 
1568
(
(2.8302e-12 -2.1343e-11 3.5164e-17)
(7.1699e-06 -5.6331e-05 1.2932e-10)
(7.2037e-06 -5.4103e-05 1.0082e-05)
(3.9011e-09 -1.9866e-07 -1.0572e-07)
(7.2251e-06 -4.9688e-05 2.0592e-05)
(2.7629e-12 -1.9999e-11 7.7415e-12)
(7.1962e-06 -4.5408e-05 3.116e-05)
(3.415e-09 -6.702e-08 2.1566e-07)
(7.1589e-06 -3.9867e-05 3.9868e-05)
(2.9053e-12 -1.5308e-11 1.5308e-11)
(7.1962e-06 -3.116e-05 4.5409e-05)
(3.4172e-09 -2.1568e-07 6.6992e-08)
(7.225e-06 -2.0592e-05 4.9689e-05)
(2.7628e-12 -7.7414e-12 2e-11)
(7.2036e-06 -1.0082e-05 5.4106e-05)
(3.8965e-09 1.0573e-07 1.9872e-07)
(7.1698e-06 1.83e-10 5.6333e-05)
(2.8301e-12 7.6975e-17 2.1344e-11)
(1.3246e-05 -0.00010014 2.5019e-10)
(1.3306e-05 -9.5732e-05 1.8027e-05)
(1.3348e-05 -8.8068e-05 3.6497e-05)
(1.3302e-05 -8.0486e-05 5.5006e-05)
(1.3238e-05 -7.0882e-05 7.0883e-05)
(1.3302e-05 -5.5006e-05 8.0488e-05)
(1.3348e-05 -3.6496e-05 8.807e-05)
(1.3306e-05 -1.8026e-05 9.5736e-05)
(1.3246e-05 3.2095e-10 0.00010014)
(1.6854e-05 -0.00011657 2.4209e-10)
(1.6864e-05 -0.00011346 2.205e-05)
(1.6895e-05 -0.00010596 4.39e-05)
(1.6885e-05 -9.588e-05 6.4698e-05)
(1.6883e-05 -8.2514e-05 8.2515e-05)
(1.6885e-05 -6.4698e-05 9.5882e-05)
(1.6896e-05 -4.39e-05 0.00010596)
(1.6865e-05 -2.2049e-05 0.00011347)
(1.6854e-05 3.8459e-10 0.00011657)
(1.6313e-05 -0.00011706 2.4722e-10)
(1.6296e-05 -0.00011555 2.3082e-05)
(1.6366e-05 -0.00010925 4.5244e-05)
(1.6354e-05 -9.8047e-05 6.539e-05)
(1.6395e-05 -8.2804e-05 8.2805e-05)
(1.6354e-05 -6.5389e-05 9.8049e-05)
(1.6366e-05 -4.5244e-05 0.00010925)
(1.6297e-05 -2.3081e-05 0.00011555)
(1.6314e-05 4.1783e-10 0.00011706)
(1.137e-05 -0.00011744 2.3622e-10)
(1.1517e-05 -0.00011561 2.3175e-05)
(1.1691e-05 -0.00010929 4.5247e-05)
(1.1606e-05 -9.8045e-05 6.5271e-05)
(1.1497e-05 -8.2915e-05 8.2916e-05)
(1.1606e-05 -6.527e-05 9.8046e-05)
(1.1692e-05 -4.5246e-05 0.00010929)
(1.1518e-05 -2.3174e-05 0.00011561)
(1.1371e-05 4.7683e-10 0.00011744)
(4.8367e-06 -0.00011972 2.7772e-10)
(5.1472e-06 -0.00011731 2.3368e-05)
(5.4121e-06 -0.0001104 4.5716e-05)
(5.2414e-06 -9.9213e-05 6.6225e-05)
(4.9749e-06 -8.432e-05 8.4321e-05)
(5.2416e-06 -6.6224e-05 9.9214e-05)
(5.4123e-06 -4.5715e-05 0.0001104)
(5.1474e-06 -2.3367e-05 0.0001173)
(4.8369e-06 4.9759e-10 0.00011971)
(-2.0469e-07 -0.00012122 3.0122e-10)
(-5.56e-08 -0.00011859 2.3492e-05)
(9.5663e-08 -0.0001113 4.6124e-05)
(4.275e-09 -0.00010005 6.6989e-05)
(-1.1834e-07 -8.521e-05 8.5211e-05)
(4.4966e-09 -6.6988e-05 0.00010005)
(9.6007e-08 -4.6123e-05 0.0001113)
(-5.5268e-08 -2.349e-05 0.00011859)
(-2.044e-07 4.2527e-10 0.00012122)
(-3.7067e-06 -0.00012005 2.9768e-10)
(-3.7213e-06 -0.00011737 2.3247e-05)
(-3.7166e-06 -0.00011003 4.5637e-05)
(-3.7176e-06 -9.892e-05 6.6274e-05)
(-3.7016e-06 -8.4283e-05 8.4284e-05)
(-3.7173e-06 -6.6273e-05 9.892e-05)
(-3.7161e-06 -4.5636e-05 0.00011003)
(-3.7208e-06 -2.3246e-05 0.00011736)
(-3.7062e-06 2.9693e-10 0.00012005)
(-6.5915e-06 -0.00011466 1.0355e-09)
(-6.6158e-06 -0.00011213 2.2166e-05)
(-6.6561e-06 -0.00010514 4.357e-05)
(-6.6671e-06 -9.4521e-05 6.3338e-05)
(-6.6655e-06 -8.0546e-05 8.0546e-05)
(-6.6668e-06 -6.3337e-05 9.4521e-05)
(-6.6556e-06 -4.3569e-05 0.00010514)
(-6.6153e-06 -2.2165e-05 0.00011213)
(-6.591e-06 -4.8435e-10 0.00011466)
(-9.2432e-06 -0.00010487 3.433e-10)
(-9.2769e-06 -0.00010258 2.027e-05)
(-9.3244e-06 -9.624e-05 3.9851e-05)
(-9.3642e-06 -8.6563e-05 5.7967e-05)
(-9.369e-06 -7.3768e-05 7.3768e-05)
(-9.364e-06 -5.7967e-05 8.6563e-05)
(-9.324e-06 -3.985e-05 9.624e-05)
(-9.2765e-06 -2.0269e-05 0.00010258)
(-9.2427e-06 1.3839e-10 0.00010487)
(-1.188e-05 -9.129e-05 2.8166e-10)
(-1.1944e-05 -8.9394e-05 1.77e-05)
(-1.2031e-05 -8.3993e-05 3.4774e-05)
(-1.2033e-05 -7.5566e-05 5.056e-05)
(-1.2007e-05 -6.4342e-05 6.4343e-05)
(-1.2033e-05 -5.056e-05 7.5566e-05)
(-1.203e-05 -3.4774e-05 8.3992e-05)
(-1.1944e-05 -1.77e-05 8.9393e-05)
(-1.188e-05 6.8849e-11 9.1289e-05)
(-1.4695e-05 -7.6334e-05 1.7257e-10)
(-1.4787e-05 -7.4825e-05 1.4855e-05)
(-1.4894e-05 -7.0402e-05 2.9167e-05)
(-1.4865e-05 -6.3375e-05 4.2389e-05)
(-1.4805e-05 -5.3935e-05 5.3936e-05)
(-1.4865e-05 -4.2388e-05 6.3375e-05)
(-1.4894e-05 -2.9167e-05 7.0401e-05)
(-1.4787e-05 -1.4854e-05 7.4824e-05)
(-1.4695e-05 2.4354e-11 7.6333e-05)
(-1.7734e-05 -6.2228e-05 2.2959e-10)
(-1.7785e-05 -6.1074e-05 1.2169e-05)
(-1.7854e-05 -5.7586e-05 2.3876e-05)
(-1.7852e-05 -5.1853e-05 3.4659e-05)
(-1.783e-05 -4.4098e-05 4.4098e-05)
(-1.7852e-05 -3.4659e-05 5.1853e-05)
(-1.7854e-05 -2.3875e-05 5.7586e-05)
(-1.7785e-05 -1.2169e-05 6.1073e-05)
(-1.7734e-05 -1.6251e-10 6.2227e-05)
(-2.0483e-05 -5.039e-05 3.623e-11)
(-2.0492e-05 -4.9522e-05 9.872e-06)
(-2.0526e-05 -4.6772e-05 1.9398e-05)
(-2.0543e-05 -4.2157e-05 2.8171e-05)
(-2.0562e-05 -3.5834e-05 3.5834e-05)
(-2.0543e-05 -2.8171e-05 4.2157e-05)
(-2.0526e-05 -1.9398e-05 4.6771e-05)
(-2.0492e-05 -9.8719e-06 4.9522e-05)
(-2.0483e-05 -7.206e-11 5.0389e-05)
(-2.2435e-05 -4.1364e-05 -9.4308e-10)
(-2.2448e-05 -4.0585e-05 8.0391e-06)
(-2.2471e-05 -3.8302e-05 1.5855e-05)
(-2.2477e-05 -3.4612e-05 2.3158e-05)
(-2.2477e-05 -2.9527e-05 2.9526e-05)
(-2.2477e-05 -2.3158e-05 3.4612e-05)
(-2.2471e-05 -1.5855e-05 3.8302e-05)
(-2.2448e-05 -8.0392e-06 4.0584e-05)
(-2.2435e-05 8.27e-10 4.1363e-05)
(-2.3411e-05 -3.4302e-05 -5.0645e-11)
(-2.3435e-05 -3.3554e-05 6.5776e-06)
(-2.3466e-05 -3.1594e-05 1.3051e-05)
(-2.344e-05 -2.8657e-05 1.9222e-05)
(-2.3417e-05 -2.4582e-05 2.4581e-05)
(-2.344e-05 -1.9222e-05 2.8657e-05)
(-2.3466e-05 -1.3051e-05 3.1594e-05)
(-2.3435e-05 -6.5778e-06 3.3554e-05)
(-2.3411e-05 -1.1944e-10 3.4301e-05)
(-2.3483e-05 -2.8129e-05 -3.7243e-11)
(-2.3511e-05 -2.754e-05 5.3991e-06)
(-2.3537e-05 -2.5961e-05 1.0735e-05)
(-2.3504e-05 -2.3562e-05 1.5816e-05)
(-2.3473e-05 -2.0211e-05 2.021e-05)
(-2.3504e-05 -1.5816e-05 2.3561e-05)
(-2.3537e-05 -1.0736e-05 2.5961e-05)
(-2.3511e-05 -5.3994e-06 2.754e-05)
(-2.3484e-05 -1.7453e-10 2.8129e-05)
(-2.2994e-05 -2.2524e-05 -1.026e-10)
(-2.3029e-05 -2.2081e-05 4.3511e-06)
(-2.3054e-05 -2.086e-05 8.6516e-06)
(-2.3019e-05 -1.8933e-05 1.2703e-05)
(-2.2979e-05 -1.6225e-05 1.6225e-05)
(-2.3019e-05 -1.2703e-05 1.8932e-05)
(-2.3054e-05 -8.652e-06 2.086e-05)
(-2.3029e-05 -4.3514e-06 2.2081e-05)
(-2.2995e-05 -1.4776e-10 2.2524e-05)
(-2.2315e-05 -1.7475e-05 -1.58e-09)
(-2.234e-05 -1.7159e-05 3.3912e-06)
(-2.236e-05 -1.624e-05 6.7222e-06)
(-2.2328e-05 -1.4754e-05 9.8814e-06)
(-2.2298e-05 -1.2626e-05 1.2628e-05)
(-2.2328e-05 -9.8819e-06 1.4753e-05)
(-2.236e-05 -6.7227e-06 1.624e-05)
(-2.234e-05 -3.3916e-06 1.7159e-05)
(-2.2316e-05 1.2788e-09 1.7475e-05)
(-2.1556e-05 -1.3184e-05 -1.063e-10)
(-2.1573e-05 -1.2954e-05 2.5481e-06)
(-2.1587e-05 -1.2275e-05 5.0669e-06)
(-2.1558e-05 -1.1166e-05 7.4765e-06)
(-2.1534e-05 -9.5659e-06 9.5656e-06)
(-2.1558e-05 -7.4769e-06 1.1166e-05)
(-2.1587e-05 -5.0674e-06 1.2275e-05)
(-2.1574e-05 -2.5486e-06 1.2954e-05)
(-2.1556e-05 -2.388e-10 1.3184e-05)
(-2.0698e-05 -9.889e-06 1.6839e-10)
(-2.0701e-05 -9.7345e-06 1.9283e-06)
(-2.0698e-05 -9.2534e-06 3.8245e-06)
(-2.068e-05 -8.4171e-06 5.6245e-06)
(-2.0669e-05 -7.1962e-06 7.1956e-06)
(-2.0681e-05 -5.6249e-06 8.4168e-06)
(-2.0698e-05 -3.8249e-06 9.253e-06)
(-2.0702e-05 -1.9287e-06 9.7341e-06)
(-2.0699e-05 -5.2276e-10 9.8888e-06)
(-1.9657e-05 -7.5774e-06 -6.3196e-11)
(-1.9647e-05 -7.4708e-06 1.4905e-06)
(-1.9634e-05 -7.1101e-06 2.9469e-06)
(-1.9625e-05 -6.4689e-06 4.3213e-06)
(-1.9625e-05 -5.5224e-06 5.5221e-06)
(-1.9625e-05 -4.3216e-06 6.4684e-06)
(-1.9634e-05 -2.9471e-06 7.1095e-06)
(-1.9647e-05 -1.4908e-06 7.4702e-06)
(-1.9658e-05 -2.7948e-10 7.5768e-06)
(-1.8379e-05 -6.1098e-06 -3.1424e-11)
(-1.8375e-05 -6.004e-06 1.1892e-06)
(-1.8368e-05 -5.6966e-06 2.359e-06)
(-1.8358e-05 -5.1882e-06 3.4732e-06)
(-1.8355e-05 -4.4444e-06 4.4441e-06)
(-1.8359e-05 -3.4734e-06 5.1877e-06)
(-1.8369e-05 -2.3592e-06 5.6959e-06)
(-1.8376e-05 -1.1894e-06 6.003e-06)
(-1.838e-05 -2.7583e-10 6.1089e-06)
(-1.6946e-05 -4.9917e-06 8.0023e-12)
(-1.6954e-05 -4.8731e-06 9.4884e-07)
(-1.696e-05 -4.5988e-06 1.8979e-06)
(-1.6944e-05 -4.197e-06 2.8204e-06)
(-1.6933e-05 -3.623e-06 3.6227e-06)
(-1.6945e-05 -2.8205e-06 4.1964e-06)
(-1.696e-05 -1.898e-06 4.598e-06)
(-1.6955e-05 -9.4895e-07 4.872e-06)
(-1.6947e-05 -2.7186e-10 4.9905e-06)
(-1.5483e-05 -3.867e-06 2.0142e-10)
(-1.5491e-05 -3.7918e-06 7.4388e-07)
(-1.5497e-05 -3.5902e-06 1.4833e-06)
(-1.5484e-05 -3.2716e-06 2.1933e-06)
(-1.5474e-05 -2.8101e-06 2.8095e-06)
(-1.5485e-05 -2.1933e-06 3.271e-06)
(-1.5498e-05 -1.4833e-06 3.5893e-06)
(-1.5492e-05 -7.4394e-07 3.7906e-06)
(-1.5484e-05 -4.2433e-10 3.8657e-06)
(-1.4091e-05 -2.8071e-06 6.7673e-11)
(-1.4102e-05 -2.7766e-06 5.5584e-07)
(-1.4106e-05 -2.6484e-06 1.1005e-06)
(-1.4096e-05 -2.4134e-06 1.6084e-06)
(-1.4082e-05 -2.0512e-06 2.0509e-06)
(-1.4096e-05 -1.6084e-06 2.4129e-06)
(-1.4106e-05 -1.1004e-06 2.6476e-06)
(-1.4102e-05 -5.5586e-07 2.7755e-06)
(-1.4092e-05 -2.5214e-10 2.8059e-06)
(-1.2824e-05 -2.0253e-06 8.9251e-11)
(-1.283e-05 -2.0022e-06 4.0204e-07)
(-1.2835e-05 -1.9143e-06 7.932e-07)
(-1.2824e-05 -1.7451e-06 1.1629e-06)
(-1.2816e-05 -1.4877e-06 1.4875e-06)
(-1.2824e-05 -1.1629e-06 1.7447e-06)
(-1.2835e-05 -7.9313e-07 1.9136e-06)
(-1.283e-05 -4.0204e-07 2.0012e-06)
(-1.2825e-05 -2.4131e-10 2.0242e-06)
(-1.1632e-05 -1.5167e-06 1.2467e-10)
(-1.1636e-05 -1.4911e-06 2.9233e-07)
(-1.1642e-05 -1.418e-06 5.8476e-07)
(-1.1632e-05 -1.2988e-06 8.7034e-07)
(-1.1625e-05 -1.1174e-06 1.1173e-06)
(-1.1632e-05 -8.703e-07 1.2984e-06)
(-1.1643e-05 -5.8467e-07 1.4174e-06)
(-1.1637e-05 -2.9229e-07 1.4902e-06)
(-1.1633e-05 -2.2594e-10 1.5157e-06)
(-1.0465e-05 -1.2202e-06 1.7783e-10)
(-1.0467e-05 -1.1937e-06 2.3168e-07)
(-1.0469e-05 -1.1298e-06 4.6641e-07)
(-1.0463e-05 -1.0372e-06 6.9796e-07)
(-1.0459e-05 -8.9736e-07 8.9731e-07)
(-1.0463e-05 -6.9788e-07 1.0369e-06)
(-1.0469e-05 -4.6628e-07 1.1293e-06)
(-1.0468e-05 -2.316e-07 1.193e-06)
(-1.0466e-05 -2.2623e-10 1.2193e-06)
(-9.3377e-06 -1.0171e-06 2.3469e-10)
(-9.3415e-06 -9.9083e-07 1.91e-07)
(-9.3423e-06 -9.3114e-07 3.861e-07)
(-9.3388e-06 -8.6002e-07 5.8113e-07)
(-9.3325e-06 -7.4584e-07 7.4587e-07)
(-9.339e-06 -5.8099e-07 8.5987e-07)
(-9.3428e-06 -3.8592e-07 9.3077e-07)
(-9.3422e-06 -1.9086e-07 9.9023e-07)
(-9.3386e-06 -2.181e-10 1.0163e-06)
(-8.2999e-06 -8.2126e-07 1.8569e-10)
(-8.3031e-06 -8.0169e-07 1.5555e-07)
(-8.3066e-06 -7.5576e-07 3.1324e-07)
(-8.3009e-06 -6.9369e-07 4.6883e-07)
(-8.2969e-06 -6.0128e-07 6.0157e-07)
(-8.3011e-06 -4.6862e-07 6.9365e-07)
(-8.3071e-06 -3.1298e-07 7.5552e-07)
(-8.3037e-06 -1.5533e-07 8.0123e-07)
(-8.3007e-06 -8.6075e-11 8.2057e-07)
(-7.3721e-06 -6.2209e-07 3.7349e-10)
(-7.378e-06 -6.0962e-07 1.1858e-07)
(-7.3839e-06 -5.7687e-07 2.3855e-07)
(-7.377e-06 -5.2844e-07 3.5632e-07)
(-7.371e-06 -4.5635e-07 4.5656e-07)
(-7.3772e-06 -3.5603e-07 5.2852e-07)
(-7.3843e-06 -2.3821e-07 5.7677e-07)
(-7.3786e-06 -1.1827e-07 6.0931e-07)
(-7.3729e-06 -1.7422e-10 6.2155e-07)
(-6.5616e-06 -4.5347e-07 4.3883e-10)
(-6.5621e-06 -4.4733e-07 8.9114e-08)
(-6.563e-06 -4.2711e-07 1.7719e-07)
(-6.561e-06 -3.9006e-07 2.6133e-07)
(-6.5602e-06 -3.3405e-07 3.3436e-07)
(-6.5613e-06 -2.6095e-07 3.9026e-07)
(-6.5634e-06 -1.7677e-07 4.2715e-07)
(-6.5627e-06 -8.8718e-08 4.4718e-07)
(-6.5624e-06 -1.3897e-10 4.5311e-07)
(-5.8398e-06 -3.3703e-07 5.0533e-10)
(-5.8381e-06 -3.3496e-07 6.8508e-08)
(-5.8362e-06 -3.2195e-07 1.3433e-07)
(-5.8367e-06 -2.9356e-07 1.9574e-07)
(-5.8376e-06 -2.4929e-07 2.497e-07)
(-5.8369e-06 -1.9527e-07 2.9389e-07)
(-5.8366e-06 -1.3384e-07 3.2216e-07)
(-5.8387e-06 -6.8034e-08 3.3499e-07)
(-5.8405e-06 -1.0602e-10 3.3689e-07)
(-5.1843e-06 -2.8134e-07 5.7297e-10)
(-5.1839e-06 -2.7725e-07 5.58e-08)
(-5.1841e-06 -2.646e-07 1.1015e-07)
(-5.1827e-06 -2.419e-07 1.6218e-07)
(-5.1828e-06 -2.0725e-07 2.0776e-07)
(-5.1829e-06 -1.6164e-07 2.4236e-07)
(-5.1845e-06 -1.0959e-07 2.6499e-07)
(-5.1844e-06 -5.526e-08 2.7751e-07)
(-5.185e-06 -8.8066e-11 2.8147e-07)
(-4.5866e-06 -2.4719e-07 6.1389e-10)
(-4.5898e-06 -2.4038e-07 4.7095e-08)
(-4.5934e-06 -2.2692e-07 9.4004e-08)
(-4.5893e-06 -2.0818e-07 1.4054e-07)
(-4.5861e-06 -1.8091e-07 1.8148e-07)
(-4.5895e-06 -1.3995e-07 2.0875e-07)
(-4.5937e-06 -9.3401e-08 2.2747e-07)
(-4.5903e-06 -4.6509e-08 2.4085e-07)
(-4.5872e-06 -6.2015e-11 2.4758e-07)
(-4.0541e-06 -2.0326e-07 6.1928e-10)
(-4.0554e-06 -1.9919e-07 3.9611e-08)
(-4.057e-06 -1.8879e-07 7.8491e-08)
(-4.055e-06 -1.7254e-07 1.1622e-07)
(-4.0537e-06 -1.4854e-07 1.4915e-07)
(-4.0551e-06 -1.1561e-07 1.7319e-07)
(-4.0573e-06 -7.7877e-08 1.8944e-07)
(-4.0557e-06 -3.9e-08 1.9982e-07)
(-4.0546e-06 -1.2317e-11 2.0387e-07)
(-3.5806e-06 -1.5527e-07 6.0525e-10)
(-3.5825e-06 -1.5434e-07 3.2099e-08)
(-3.582e-06 -1.4796e-07 6.2204e-08)
(-3.5828e-06 -1.3464e-07 8.9786e-08)
(-3.5799e-06 -1.1369e-07 1.1432e-07)
(-3.5829e-06 -8.9184e-08 1.3531e-07)
(-3.5823e-06 -6.1613e-08 1.4868e-07)
(-3.5828e-06 -3.1497e-08 1.551e-07)
(-3.5811e-06 2.7767e-11 1.5606e-07)
(-3.1606e-06 -1.1878e-07 5.9762e-10)
(-3.1617e-06 -1.1816e-07 2.4112e-08)
(-3.1632e-06 -1.1295e-07 4.7565e-08)
(-3.1611e-06 -1.0218e-07 6.9169e-08)
(-3.1598e-06 -8.6618e-08 8.7191e-08)
(-3.1612e-06 -6.8607e-08 1.0287e-07)
(-3.1634e-06 -4.703e-08 1.1373e-07)
(-3.162e-06 -2.3558e-08 1.1902e-07)
(-3.161e-06 1.9379e-11 1.1974e-07)
(-2.7783e-06 -9.3845e-08 4.999e-10)
(-2.7797e-06 -9.0913e-08 1.6349e-08)
(-2.7812e-06 -8.3041e-08 3.495e-08)
(-2.7792e-06 -7.6557e-08 5.4405e-08)
(-2.7777e-06 -6.7668e-08 6.8245e-08)
(-2.7793e-06 -5.3913e-08 7.7244e-08)
(-2.7815e-06 -3.45e-08 8.3861e-08)
(-2.78e-06 -1.5877e-08 9.1888e-08)
(-2.7787e-06 6.3183e-11 9.4976e-08)
(-2.4231e-06 -6.3827e-08 4.1286e-10)
(-2.4203e-06 -5.1266e-08 3.9131e-09)
(-2.4179e-06 -3.6423e-08 1.5414e-08)
(-2.4201e-06 -3.9244e-08 3.4417e-08)
(-2.4227e-06 -4.564e-08 4.6141e-08)
(-2.4201e-06 -3.4022e-08 3.9895e-08)
(-2.4181e-06 -1.5067e-08 3.7267e-08)
(-2.4206e-06 -3.5418e-09 5.2331e-08)
(-2.4234e-06 6.5633e-11 6.5097e-08)
(-2.0783e-06 2.5068e-08 3.135e-10)
(-2.0726e-06 4.4988e-08 -1.6647e-08)
(-2.0679e-06 5.9065e-08 -2.4294e-08)
(-2.0725e-06 4.3542e-08 -1.9518e-08)
(-2.0782e-06 1.7564e-08 -1.7166e-08)
(-2.0726e-06 1.9808e-08 -4.298e-08)
(-2.068e-06 2.4536e-08 -5.8288e-08)
(-2.0728e-06 1.6914e-08 -4.3964e-08)
(-2.0785e-06 6.0067e-11 -2.3825e-08)
(-1.7542e-06 1.7022e-07 2.1842e-10)
(-1.7539e-06 1.6933e-07 -3.6503e-08)
(-1.7527e-06 1.6371e-07 -6.7659e-08)
(-1.754e-06 1.4542e-07 -9.3496e-08)
(-1.7545e-06 1.2017e-07 -1.1988e-07)
(-1.7541e-06 9.3689e-08 -1.45e-07)
(-1.7528e-06 6.7812e-08 -1.6311e-07)
(-1.754e-06 3.6685e-08 -1.6853e-07)
(-1.7543e-06 5.893e-11 -1.6926e-07)
(-1.5121e-06 1.6291e-07 1.3794e-10)
(-1.5164e-06 1.4677e-07 -2.9409e-08)
(-1.5162e-06 1.3599e-07 -5.6194e-08)
(-1.5166e-06 1.2429e-07 -8.2464e-08)
(-1.5125e-06 1.1479e-07 -1.146e-07)
(-1.5166e-06 8.2587e-08 -1.2402e-07)
(-1.5162e-06 5.6287e-08 -1.3561e-07)
(-1.5164e-06 2.9531e-08 -1.4627e-07)
(-1.5122e-06 5.733e-11 -1.6231e-07)
(-1.3568e-06 -1.1624e-07 7.8099e-11)
(-1.3479e-06 -1.0042e-07 1.1156e-08)
(-1.3395e-06 -7.876e-08 3.2848e-08)
(-1.348e-06 -7.9266e-08 6.3794e-08)
(-1.357e-06 -8.2786e-08 8.2907e-08)
(-1.348e-06 -6.3713e-08 7.9427e-08)
(-1.3396e-06 -3.2784e-08 7.8967e-08)
(-1.3479e-06 -1.1072e-08 1.0068e-07)
(-1.3569e-06 4.958e-11 1.1655e-07)
(-1.1141e-06 -3.7173e-07 3.2045e-11)
(-1.0922e-06 -3.2349e-07 4.7506e-08)
(-1.0754e-06 -2.6975e-07 1.1198e-07)
(-1.0922e-06 -2.6269e-07 1.9582e-07)
(-1.1141e-06 -2.6347e-07 2.6355e-07)
(-1.0922e-06 -1.9577e-07 2.6278e-07)
(-1.0755e-06 -1.1193e-07 2.6985e-07)
(-1.0923e-06 -4.7449e-08 3.2361e-07)
(-1.1142e-06 4.5934e-11 3.7187e-07)
(-6.3316e-07 -2.9439e-07 -8.0355e-12)
(-6.2346e-07 -2.6933e-07 4.224e-08)
(-6.1398e-07 -2.327e-07 9.6527e-08)
(-6.2342e-07 -2.2051e-07 1.6094e-07)
(-6.3311e-07 -2.0849e-07 2.0852e-07)
(-6.2345e-07 -1.6091e-07 2.2054e-07)
(-6.1404e-07 -9.6503e-08 2.3273e-07)
(-6.2354e-07 -4.2212e-08 2.6937e-07)
(-6.3326e-07 4.2756e-11 2.9443e-07)
(-2.513e-13 -1.2047e-13 -1.6436e-17)
(-1.0775e-09 -2.3889e-09 -1.9506e-09)
(-3.2046e-13 -2.3322e-13 8.8137e-14)
(-1.0747e-09 -3.2582e-10 3.0754e-09)
(-1.4486e-13 5.2752e-14 -5.2789e-14)
(-1.074e-09 -3.0753e-09 3.2616e-10)
(-3.205e-13 -8.808e-14 2.3321e-13)
(-1.0787e-09 1.9505e-09 2.3884e-09)
(-2.5134e-13 2.6549e-17 1.2048e-13)
(7.2035e-06 1.0082e-05 5.4106e-05)
(3.8974e-09 -1.0573e-07 1.9872e-07)
(7.225e-06 2.0593e-05 4.9689e-05)
(2.7627e-12 7.7413e-12 2e-11)
(7.1961e-06 3.116e-05 4.5409e-05)
(3.4154e-09 2.1568e-07 6.6996e-08)
(7.1587e-06 3.9868e-05 3.9868e-05)
(2.9053e-12 1.5308e-11 1.5307e-11)
(7.1961e-06 4.5408e-05 3.116e-05)
(3.4137e-09 6.7017e-08 2.1567e-07)
(7.225e-06 4.9688e-05 2.0592e-05)
(2.7628e-12 1.9999e-11 7.7417e-12)
(7.2036e-06 5.4103e-05 1.0082e-05)
(3.9006e-09 1.9868e-07 -1.0573e-07)
(7.1699e-06 5.6331e-05 1.3598e-10)
(2.8301e-12 2.1343e-11 6.494e-17)
(1.3306e-05 1.8027e-05 9.5736e-05)
(1.3348e-05 3.6497e-05 8.807e-05)
(1.3302e-05 5.5006e-05 8.0488e-05)
(1.3238e-05 7.0883e-05 7.0883e-05)
(1.3302e-05 8.0486e-05 5.5006e-05)
(1.3348e-05 8.8068e-05 3.6496e-05)
(1.3306e-05 9.5731e-05 1.8027e-05)
(1.3246e-05 0.00010014 2.2732e-10)
(1.6864e-05 2.205e-05 0.00011347)
(1.6896e-05 4.3901e-05 0.00010596)
(1.6885e-05 6.4698e-05 9.5881e-05)
(1.6883e-05 8.2515e-05 8.2515e-05)
(1.6885e-05 9.588e-05 6.4697e-05)
(1.6895e-05 0.00010596 4.39e-05)
(1.6864e-05 0.00011346 2.2049e-05)
(1.6854e-05 0.00011657 2.8144e-10)
(1.6297e-05 2.3082e-05 0.00011555)
(1.6366e-05 4.5244e-05 0.00010925)
(1.6354e-05 6.539e-05 9.8048e-05)
(1.6395e-05 8.2804e-05 8.2804e-05)
(1.6354e-05 9.8047e-05 6.5389e-05)
(1.6366e-05 0.00010925 4.5243e-05)
(1.6297e-05 0.00011554 2.3081e-05)
(1.6313e-05 0.00011705 2.8444e-10)
(1.1518e-05 2.3175e-05 0.00011561)
(1.1692e-05 4.5246e-05 0.00010929)
(1.1606e-05 6.527e-05 9.8045e-05)
(1.1497e-05 8.2915e-05 8.2915e-05)
(1.1606e-05 9.8044e-05 6.527e-05)
(1.1691e-05 0.00010929 4.5246e-05)
(1.1517e-05 0.00011561 2.3174e-05)
(1.137e-05 0.00011744 2.1629e-10)
(5.1475e-06 2.3368e-05 0.0001173)
(5.4124e-06 4.5715e-05 0.0001104)
(5.2417e-06 6.6224e-05 9.9213e-05)
(4.9751e-06 8.4319e-05 8.432e-05)
(5.2415e-06 9.9212e-05 6.6224e-05)
(5.4121e-06 0.0001104 4.5715e-05)
(5.1471e-06 0.0001173 2.3368e-05)
(4.8365e-06 0.00011971 1.6759e-10)
(-5.5259e-08 2.3491e-05 0.00011859)
(9.6027e-08 4.6123e-05 0.0001113)
(4.5294e-09 6.6988e-05 0.00010005)
(-1.1829e-07 8.5209e-05 8.5209e-05)
(4.3533e-09 0.00010005 6.6988e-05)
(9.5713e-08 0.0001113 4.6123e-05)
(-5.5646e-08 0.00011859 2.3491e-05)
(-2.0482e-07 0.00012122 1.8264e-10)
(-3.7208e-06 2.3246e-05 0.00011736)
(-3.7161e-06 4.5637e-05 0.00011003)
(-3.7173e-06 6.6273e-05 9.8919e-05)
(-3.7016e-06 8.4283e-05 8.4283e-05)
(-3.7175e-06 9.8919e-05 6.6273e-05)
(-3.7165e-06 0.00011003 4.5637e-05)
(-3.7212e-06 0.00011736 2.3246e-05)
(-3.7067e-06 0.00012005 1.9406e-10)
(-6.6153e-06 2.2166e-05 0.00011213)
(-6.6556e-06 4.3569e-05 0.00010514)
(-6.6668e-06 6.3337e-05 9.4521e-05)
(-6.6654e-06 8.0546e-05 8.0545e-05)
(-6.667e-06 9.4521e-05 6.3338e-05)
(-6.656e-06 0.00010514 4.357e-05)
(-6.6158e-06 0.00011213 2.2166e-05)
(-6.5916e-06 0.00011466 9.1149e-10)
(-9.2764e-06 2.0269e-05 0.00010258)
(-9.3239e-06 3.9851e-05 9.624e-05)
(-9.3639e-06 5.7967e-05 8.6563e-05)
(-9.3689e-06 7.3769e-05 7.3769e-05)
(-9.3641e-06 8.6563e-05 5.7967e-05)
(-9.3243e-06 9.6241e-05 3.9851e-05)
(-9.277e-06 0.00010258 2.027e-05)
(-9.2433e-06 0.00010487 1.6793e-10)
(-1.1943e-05 1.77e-05 8.9393e-05)
(-1.203e-05 3.4774e-05 8.3993e-05)
(-1.2033e-05 5.056e-05 7.5566e-05)
(-1.2007e-05 6.4343e-05 6.4343e-05)
(-1.2033e-05 7.5567e-05 5.056e-05)
(-1.2031e-05 8.3994e-05 3.4775e-05)
(-1.1944e-05 8.9394e-05 1.77e-05)
(-1.188e-05 9.1291e-05 1.6365e-10)
(-1.4787e-05 1.4855e-05 7.4825e-05)
(-1.4893e-05 2.9167e-05 7.0402e-05)
(-1.4864e-05 4.2388e-05 6.3375e-05)
(-1.4805e-05 5.3936e-05 5.3936e-05)
(-1.4865e-05 6.3375e-05 4.2389e-05)
(-1.4894e-05 7.0402e-05 2.9167e-05)
(-1.4787e-05 7.4826e-05 1.4855e-05)
(-1.4695e-05 7.6335e-05 1.7327e-10)
(-1.7785e-05 1.2169e-05 6.1074e-05)
(-1.7854e-05 2.3875e-05 5.7586e-05)
(-1.7852e-05 3.4659e-05 5.1853e-05)
(-1.783e-05 4.4098e-05 4.4098e-05)
(-1.7852e-05 5.1853e-05 3.4659e-05)
(-1.7854e-05 5.7586e-05 2.3876e-05)
(-1.7785e-05 6.1074e-05 1.2169e-05)
(-1.7734e-05 6.2228e-05 2.5187e-10)
(-2.0492e-05 9.8718e-06 4.9522e-05)
(-2.0526e-05 1.9398e-05 4.6771e-05)
(-2.0543e-05 2.817e-05 4.2157e-05)
(-2.0562e-05 3.5834e-05 3.5834e-05)
(-2.0543e-05 4.2157e-05 2.8171e-05)
(-2.0526e-05 4.6771e-05 1.9398e-05)
(-2.0492e-05 4.9522e-05 9.872e-06)
(-2.0484e-05 5.039e-05 5.7593e-11)
(-2.2448e-05 8.039e-06 4.0584e-05)
(-2.2471e-05 1.5855e-05 3.8302e-05)
(-2.2477e-05 2.3158e-05 3.4612e-05)
(-2.2477e-05 2.9526e-05 2.9528e-05)
(-2.2477e-05 3.4612e-05 2.3158e-05)
(-2.2472e-05 3.8301e-05 1.5855e-05)
(-2.2448e-05 4.0584e-05 8.039e-06)
(-2.2435e-05 4.1362e-05 -9.3173e-10)
(-2.3435e-05 6.5776e-06 3.3554e-05)
(-2.3466e-05 1.3051e-05 3.1594e-05)
(-2.344e-05 1.9222e-05 2.8657e-05)
(-2.3417e-05 2.4582e-05 2.4582e-05)
(-2.344e-05 2.8657e-05 1.9222e-05)
(-2.3466e-05 3.1593e-05 1.305e-05)
(-2.3435e-05 3.3553e-05 6.5775e-06)
(-2.3412e-05 3.43e-05 -4.4398e-11)
(-2.3511e-05 5.3991e-06 2.754e-05)
(-2.3537e-05 1.0736e-05 2.5961e-05)
(-2.3504e-05 1.5816e-05 2.3562e-05)
(-2.3473e-05 2.021e-05 2.0211e-05)
(-2.3504e-05 2.3561e-05 1.5816e-05)
(-2.3537e-05 2.596e-05 1.0735e-05)
(-2.3511e-05 2.7538e-05 5.399e-06)
(-2.3484e-05 2.8128e-05 -2.8097e-11)
(-2.3029e-05 4.3511e-06 2.2081e-05)
(-2.3054e-05 8.6517e-06 2.086e-05)
(-2.3019e-05 1.2703e-05 1.8933e-05)
(-2.2979e-05 1.6225e-05 1.6225e-05)
(-2.3019e-05 1.8932e-05 1.2703e-05)
(-2.3054e-05 2.0859e-05 8.6515e-06)
(-2.3029e-05 2.2079e-05 4.351e-06)
(-2.2995e-05 2.2522e-05 -8.1535e-11)
(-2.234e-05 3.3912e-06 1.7159e-05)
(-2.236e-05 6.7223e-06 1.624e-05)
(-2.2328e-05 9.8815e-06 1.4754e-05)
(-2.2298e-05 1.2626e-05 1.2628e-05)
(-2.2328e-05 1.4753e-05 9.8814e-06)
(-2.236e-05 1.6239e-05 6.7221e-06)
(-2.234e-05 1.7158e-05 3.3911e-06)
(-2.2316e-05 1.7474e-05 -1.5459e-09)
(-2.1574e-05 2.5481e-06 1.2954e-05)
(-2.1587e-05 5.0669e-06 1.2275e-05)
(-2.1558e-05 7.4766e-06 1.1166e-05)
(-2.1534e-05 9.5655e-06 9.5657e-06)
(-2.1558e-05 1.1166e-05 7.4766e-06)
(-2.1587e-05 1.2274e-05 5.0669e-06)
(-2.1574e-05 1.2953e-05 2.5481e-06)
(-2.1556e-05 1.3183e-05 -6.2406e-11)
(-2.0702e-05 1.9282e-06 9.7342e-06)
(-2.0698e-05 3.8245e-06 9.2532e-06)
(-2.0681e-05 5.6245e-06 8.417e-06)
(-2.0669e-05 7.1955e-06 7.1961e-06)
(-2.0681e-05 8.4166e-06 5.6246e-06)
(-2.0698e-05 9.2528e-06 3.8246e-06)
(-2.0701e-05 9.7338e-06 1.9283e-06)
(-2.0699e-05 9.8883e-06 2.0844e-10)
(-1.9647e-05 1.4903e-06 7.4703e-06)
(-1.9634e-05 2.9467e-06 7.1097e-06)
(-1.9625e-05 4.3212e-06 6.4687e-06)
(-1.9625e-05 5.522e-06 5.5222e-06)
(-1.9625e-05 6.4684e-06 4.3214e-06)
(-1.9634e-05 7.1095e-06 2.9469e-06)
(-1.9647e-05 7.4701e-06 1.4906e-06)
(-1.9658e-05 7.5766e-06 -2.96e-11)
(-1.8376e-05 1.1889e-06 6.0031e-06)
(-1.8369e-05 2.3587e-06 5.6961e-06)
(-1.8359e-05 3.4729e-06 5.1879e-06)
(-1.8355e-05 4.444e-06 4.4442e-06)
(-1.8359e-05 5.1878e-06 3.4733e-06)
(-1.8369e-05 5.696e-06 2.359e-06)
(-1.8376e-05 6.0032e-06 1.1892e-06)
(-1.8379e-05 6.109e-06 -3.4076e-12)
(-1.6955e-05 9.4844e-07 4.8721e-06)
(-1.696e-05 1.8975e-06 4.5982e-06)
(-1.6945e-05 2.82e-06 4.1966e-06)
(-1.6933e-05 3.6226e-06 3.6228e-06)
(-1.6945e-05 4.1965e-06 2.8204e-06)
(-1.696e-05 4.5983e-06 1.8979e-06)
(-1.6955e-05 4.8724e-06 9.4884e-07)
(-1.6947e-05 4.9909e-06 2.2018e-11)
(-1.5492e-05 7.4344e-07 3.7908e-06)
(-1.5498e-05 1.4828e-06 3.5895e-06)
(-1.5485e-05 2.1929e-06 3.2712e-06)
(-1.5474e-05 2.8097e-06 2.8097e-06)
(-1.5485e-05 3.2711e-06 2.1934e-06)
(-1.5498e-05 3.5898e-06 1.4833e-06)
(-1.5492e-05 3.7912e-06 7.439e-07)
(-1.5484e-05 3.8663e-06 2.1423e-10)
(-1.4103e-05 5.5538e-07 2.7756e-06)
(-1.4107e-05 1.1e-06 2.6478e-06)
(-1.4097e-05 1.608e-06 2.4132e-06)
(-1.4082e-05 2.0509e-06 2.0512e-06)
(-1.4096e-05 2.4132e-06 1.6085e-06)
(-1.4106e-05 2.6481e-06 1.1006e-06)
(-1.4102e-05 2.7762e-06 5.5589e-07)
(-1.4092e-05 2.8066e-06 7.9506e-11)
(-1.2831e-05 4.0158e-07 2.0013e-06)
(-1.2836e-05 7.9273e-07 1.9139e-06)
(-1.2825e-05 1.1626e-06 1.745e-06)
(-1.2817e-05 1.4874e-06 1.4878e-06)
(-1.2825e-05 1.7449e-06 1.1631e-06)
(-1.2835e-05 1.9142e-06 7.9335e-07)
(-1.283e-05 2.002e-06 4.0212e-07)
(-1.2825e-05 2.025e-06 1.0662e-10)
(-1.1637e-05 2.9185e-07 1.4904e-06)
(-1.1643e-05 5.8429e-07 1.4176e-06)
(-1.1632e-05 8.7e-07 1.2987e-06)
(-1.1626e-05 1.1172e-06 1.1176e-06)
(-1.1632e-05 1.2986e-06 8.7059e-07)
(-1.1643e-05 1.4179e-06 5.8494e-07)
(-1.1637e-05 1.491e-06 2.9242e-07)
(-1.1632e-05 1.5166e-06 1.3239e-10)
(-1.0468e-05 2.3117e-07 1.193e-06)
(-1.047e-05 4.6588e-07 1.1295e-06)
(-1.0463e-05 6.9755e-07 1.0371e-06)
(-1.0459e-05 8.9711e-07 8.9753e-07)
(-1.0463e-05 1.037e-06 6.9815e-07)
(-1.0469e-05 1.1297e-06 4.6655e-07)
(-1.0468e-05 1.1936e-06 2.3176e-07)
(-1.0465e-05 1.2201e-06 1.7562e-10)
(-9.3423e-06 1.9042e-07 9.9025e-07)
(-9.343e-06 3.855e-07 9.3081e-07)
(-9.3393e-06 5.8059e-07 8.5992e-07)
(-9.3328e-06 7.4547e-07 7.4594e-07)
(-9.3392e-06 8.5967e-07 5.812e-07)
(-9.3428e-06 9.3082e-07 3.8615e-07)
(-9.342e-06 9.9053e-07 1.9103e-07)
(-9.3382e-06 1.0168e-06 2.3564e-10)
(-8.3038e-06 1.5491e-07 8.0115e-07)
(-8.3073e-06 3.1253e-07 7.5539e-07)
(-8.3014e-06 4.6812e-07 6.935e-07)
(-8.2973e-06 6.0091e-07 6.0125e-07)
(-8.3013e-06 6.9311e-07 4.6872e-07)
(-8.3071e-06 7.5514e-07 3.1315e-07)
(-8.3036e-06 8.0105e-07 1.5551e-07)
(-8.3004e-06 8.2063e-07 4.1142e-10)
(-7.3787e-06 1.1789e-07 6.0915e-07)
(-7.3845e-06 2.3775e-07 5.7648e-07)
(-7.3776e-06 3.5545e-07 5.2817e-07)
(-7.3714e-06 4.5564e-07 4.562e-07)
(-7.3775e-06 5.2762e-07 3.56e-07)
(-7.3844e-06 5.7594e-07 2.3831e-07)
(-7.3785e-06 6.0861e-07 1.1845e-07)
(-7.3726e-06 6.2107e-07 3.6144e-10)
(-6.5628e-06 8.8393e-08 4.4696e-07)
(-6.5636e-06 1.7632e-07 4.2675e-07)
(-6.5616e-06 2.6032e-07 3.8975e-07)
(-6.5606e-06 3.3321e-07 3.3381e-07)
(-6.5615e-06 3.8903e-07 2.6084e-07)
(-6.5636e-06 4.2591e-07 1.7681e-07)
(-6.5627e-06 4.4602e-07 8.8909e-08)
(-6.5622e-06 4.5214e-07 4.2609e-10)
(-5.8388e-06 6.7772e-08 3.3475e-07)
(-5.8369e-06 1.3344e-07 3.2171e-07)
(-5.8372e-06 1.9466e-07 2.9331e-07)
(-5.8381e-06 2.4842e-07 2.4906e-07)
(-5.8372e-06 2.9244e-07 1.9514e-07)
(-5.8368e-06 3.2061e-07 1.3386e-07)
(-5.8388e-06 3.3346e-07 6.825e-08)
(-5.8404e-06 3.355e-07 4.952e-10)
(-5.1845e-06 5.5057e-08 2.7729e-07)
(-5.1847e-06 1.0928e-07 2.6457e-07)
(-5.1833e-06 1.6112e-07 2.4181e-07)
(-5.1832e-06 2.0647e-07 2.0714e-07)
(-5.1832e-06 2.4083e-07 1.6157e-07)
(-5.1847e-06 2.6327e-07 1.0966e-07)
(-5.1845e-06 2.7574e-07 5.5515e-08)
(-5.1849e-06 2.7978e-07 5.5767e-10)
(-4.5904e-06 4.6376e-08 2.4068e-07)
(-4.5939e-06 9.3197e-08 2.2714e-07)
(-4.5898e-06 1.3958e-07 2.0831e-07)
(-4.5865e-06 1.8029e-07 1.8098e-07)
(-4.5898e-06 2.0728e-07 1.4002e-07)
(-4.5939e-06 2.2576e-07 9.3548e-08)
(-4.5904e-06 2.3902e-07 4.6828e-08)
(-4.5872e-06 2.4577e-07 6.0517e-10)
(-4.0559e-06 3.8959e-08 1.9973e-07)
(-4.0575e-06 7.7792e-08 1.8926e-07)
(-4.0555e-06 1.1541e-07 1.7292e-07)
(-4.0541e-06 1.4816e-07 1.4881e-07)
(-4.0555e-06 1.7195e-07 1.1585e-07)
(-4.0576e-06 1.8795e-07 7.8169e-08)
(-4.056e-06 1.9816e-07 3.9419e-08)
(-4.0547e-06 2.0215e-07 6.2524e-10)
(-3.583e-06 3.1552e-08 1.5513e-07)
(-3.5825e-06 6.1666e-08 1.4872e-07)
(-3.5833e-06 8.9214e-08 1.3531e-07)
(-3.5804e-06 1.1366e-07 1.1425e-07)
(-3.5834e-06 1.345e-07 8.9685e-08)
(-3.5827e-06 1.4768e-07 6.2103e-08)
(-3.5831e-06 1.539e-07 3.2036e-08)
(-3.5813e-06 1.5474e-07 6.0882e-10)
(-3.1621e-06 2.369e-08 1.1922e-07)
(-3.1637e-06 4.7244e-08 1.1406e-07)
(-3.1616e-06 6.8933e-08 1.0325e-07)
(-3.1603e-06 8.7047e-08 8.7537e-08)
(-3.1617e-06 1.0267e-07 6.9449e-08)
(-3.1639e-06 1.1344e-07 4.7761e-08)
(-3.1624e-06 1.1859e-07 2.4215e-08)
(-3.1613e-06 1.1916e-07 6.0904e-10)
(-2.7801e-06 1.6069e-08 9.2259e-08)
(-2.7817e-06 3.488e-08 8.4525e-08)
(-2.7798e-06 5.4567e-08 7.8062e-08)
(-2.7782e-06 6.8611e-08 6.9074e-08)
(-2.7799e-06 7.7749e-08 5.5129e-08)
(-2.782e-06 8.4406e-08 3.548e-08)
(-2.7805e-06 9.2366e-08 1.6635e-08)
(-2.7791e-06 9.5302e-08 5.1866e-10)
(-2.4207e-06 3.7766e-09 5.2845e-08)
(-2.4183e-06 1.5589e-08 3.8206e-08)
(-2.4205e-06 3.4962e-08 4.1101e-08)
(-2.4232e-06 4.7036e-08 4.7413e-08)
(-2.4206e-06 4.1048e-08 3.5546e-08)
(-2.4185e-06 3.8558e-08 1.6246e-08)
(-2.421e-06 5.363e-08 4.3599e-09)
(-2.4238e-06 6.626e-08 4.328e-10)
(-2.0729e-06 -1.667e-08 -4.3369e-08)
(-2.0682e-06 -2.3954e-08 -5.7196e-08)
(-2.0729e-06 -1.8728e-08 -4.1562e-08)
(-2.0786e-06 -1.5926e-08 -1.5645e-08)
(-2.073e-06 -4.1402e-08 -1.8156e-08)
(-2.0684e-06 -5.6498e-08 -2.3278e-08)
(-2.0732e-06 -4.2103e-08 -1.61e-08)
(-2.0789e-06 -2.2063e-08 3.3023e-10)
(-1.754e-06 -3.6459e-08 -1.6793e-07)
(-1.7529e-06 -6.7271e-08 -1.6202e-07)
(-1.7543e-06 -9.2663e-08 -1.4361e-07)
(-1.7548e-06 -1.1858e-07 -1.1842e-07)
(-1.7544e-06 -1.4329e-07 -9.2144e-08)
(-1.7531e-06 -1.6113e-07 -6.6615e-08)
(-1.7543e-06 -1.6645e-07 -3.5932e-08)
(-1.7547e-06 -1.6725e-07 2.2852e-10)
(-1.5165e-06 -2.9335e-08 -1.4572e-07)
(-1.5164e-06 -5.583e-08 -1.3462e-07)
(-1.5168e-06 -8.1707e-08 -1.228e-07)
(-1.5127e-06 -1.134e-07 -1.1334e-07)
(-1.5169e-06 -1.224e-07 -8.1274e-08)