/*--------------------------------*- C++ -*----------------------------------*\
  =========                 |
  \\      /  F ield         | OpenFOAM: The Open Source CFD Toolbox
   \\    /   O peration     | Website:  https://openfoam.org
    \\  /    A nd           | Version:  8
     \\/     M anipulation  |
\*---------------------------------------------------------------------------*/
FoamFile
{
    version     2.0;
    format      ascii;
    class       volScalarField;
    location    "0.0620000";
    object      p;
}
// * * * * * * * * * * * * * * * * * * * * * * * * * * * * * * * * * * * * * //

dimensions      [0 2 -2 0 0 0 0];

internalField   nonuniform List<scalar> 
600
(
1434344.48649503
4370533.43778812
7411901.97535752
10529186.7940786
13729596.4770827
17019148.3863211
20401638.0203925
23880746.5524357
27460242.1368497
31144351.5040814
34937554.7484412
38844638.1817948
42870580.7265685
47020736.2848736
51300802.0188828
55716831.8666322
60275196.1526748
64982667.543942
69846521.3282858
74874499.9005044
80074835.1318814
85456231.1773439
91028101.8549412
96800501.3120168
102784228.668585
108990628.092527
115432100.338132
122121921.579835
129074462.515836
136304841.443214
143829635.230407
151666695.202902
159835454.51518
168356516.953357
177252392.625859
186547594.740818
196268934.187864
206445017.575264
217106908.626229
228288929.304821
240028718.047565
252366889.643265
265346770.851136
279017201.131972
293431761.277831
308649253.071466
324730075.195471
341744282.14463
359768400.698226
378888819.084706
399187306.827276
420763754.214093
443725670.397952
468197653.553942
494282931.236986
522115400.791286
551834120.678067
583606703.314772
617525946.970948
653665025.113163
692048328.457139
732688834.267172
775153255.436733
819021067.277304
863845445.464289
909134864.294489
953893895.796538
997399712.531753
1038986248.14746
1078016059.70728
1113573003.95978
1145270258.91877
1172747437.13545
1195671965.18754
1213878668.75237
1227292378.45772
1235803482.34407
1239363244.88932
1237903791.28165
1231182135.8226
1218808321.52278
1200369201.16754
1174805008.06225
1141320866.93242
1096972227.8532
1041844387.80854
966007204.116409
898484702.683193
828294887.808261
759559892.284575
690167024.424691
620605934.760836
550380348.908399
479543485.563521
407955532.523469
335579669.541873
262403412.973167
188399811.059664
113643050.991286
38132800.564155
1449534.24464777
4389000.29320235
7437682.93040031
10558446.3142955
13760492.4640703
17050903.8249737
20433900.8342743
23913315.1800171
27493091.4024708
31177461.7816267
34970927.0362031
38878253.8803594
42904461.5634832
47054895.0767346
51335244.8547438
55751549.3254619
60310192.667231
65017963.9792759
69882121.2898986
74910398.329168
80111018.3982947
85492726.6035675
91064910.6234909
96837625.2104521
102821622.810454
109028336.35016
115470116.58209
122160251.591362
129113030.289377
136343689.614976
143868752.4453
151706084.409604
159875011.939873
168396252.572375
177292302.046891
186587663.721276
196309005.348623
206485017.156044
217146857.342599
228328767.368132
240068227.221376
252405755.098585
265385095.178506
279054817.679321
293468404.266422
308683998.584219
324763248.986791
341775481.047328
359797462.886227
378913278.18559
399208188.933451
420780120.009995
443737631.42753
468199720.387789
494277361.14712
522100300.405064
551810597.499597
583561815.253933
617456439.305081
653564327.179389
691917349.699072
732480269.750968
774883227.002177
818696102.074744
863474955.121012
908676658.116416
953394182.686059
996871347.537193
1038444022.78511
1077436574.84668
1113015485.50621
1144737681.31363
1172245242.79498
1195216263.96787
1213479144.4377
1226947690.50474
1235520476.58246
1239143109.43996
1237738507.99256
1231069959.76274
1218742005.21202
1200343591.54379
1174818038.64383
1141361940.54383
1097008032.33058
1041938447.60768
966268871.092385
898661544.53801
828455030.862776
759698486.164597
690272576.332374
620691293.980233
550452081.870164
479597927.30598
407993395.425026
335604787.693491
262411974.497124
188394823.839125
113620066.842902
38035502.2593929
1451355.88335753
4393602.19555343
7442670.27762924
10563446.5427281
13765819.5222982
17056504.4047704
20439614.8911786
23919014.3895224
27498726.3019788
31183005.6399734
34976360.8657297
38883558.0637324
42909633.4279519
47059932.54439
51340137.9670041
55756279.8971894
60314749.859405
65022344.3976699
69886312.4128601
74914378.3889571
80114764.4325683
85496231.850825
91068159.6587812
96840590.8533353
102824263.457929
109030643.888092
115472069.410225
122161813.543586
129114137.22441
136344320.840301
143868875.170431
151705648.953924
159873926.477546
168394466.043674
177289768.664141
186584307.73846
196304679.835459
206479609.67787
217140304.576062
228320948.936878
240058907.817417
252394680.641089
265372176.152831
279039861.919671
293451029.424239
308663635.268246
324739773.33618
341748597.731521
359766555.752735
378877090.888735
399166600.510322
420732669.736104
443683261.901501
468135936.468193
494203955.619013
522016558.208117
551714424.079932
583446673.263082
617317641.806754
653397828.344401
691714789.130139
732224185.401165
774574327.436872
818341117.505466
863073490.184
908223074.63957
952904934.161869
996362743.566133
1037923389.34121
1076910033.04721
1112506229.789
1144258547.90565
1171804033.90515
1194823506.68938
1213141965.55043
1226668772.22843
1235303639.92369
1238988931.34039
1237642449.51487
1231030107.48761
1218758434.54653
1200409701.40389
1174929002.6914
1141521940.18918
1097201946.17756
1042216362.2999
966475177.081018
898872404.37712
828623922.757608
759845958.083249
690395218.05844
620794102.051903
550536999.610475
479666698.656866
408046565.266854
335643006.464029
262435890.683208
188404514.758999
113614956.058204
38034179.3787566
1442735.3986153
4375683.81993727
7408935.6041163
10524423.8980638
13725217.2258316
17015098.5747034
20397499.5823465
23876143.4769631
27455042.7190798
31138461.8058193
34930913.9175322
38837169.0891483
42862269.4032201
47011561.2236873
51290721.4921415
55705775.5964643
60263116.389732
64969541.3427565
69832293.7473029
74859091.030241
80058153.555803
85438245.488723
91008741.2630863
96779673.0298401
102761772.811443
108966514.177443
115406229.122099
122094175.745154
129044603.869814
136272802.604023
143795277.858734
151629859.696962
159795813.800003
168313904.627744
177206633.249
186498447.283259
196215907.860137
206387744.375634
217045176.830537
228222353.534344
239956573.326719
252288327.879198
265261569.855941
278924725.182608
293330954.889231
308538170.725674
324608585.659548
341611330.90193
359622580.604791
378725653.002717
399007236.628137
420564953.322583
443506193.208604
467948299.664787
494005086.500523
521806036.502898
551490566.755969
583206754.406042
617059229.783744
653119840.441459
691412687.058915
731893511.726316
774216109.055207
817961772.161419
862674120.098997
907807526.185866
952482284.549031
995945178.418524
1037516209.99549
1076522399.7972
1112148838.46922
1143940723.16469
1171531190.69221
1194601503.2452
1212974729.07614
1226558689.48947
1235252832.12113
1238998093.19106
1237710630.95702
1231158249.80056
1218949099.28324
1200663129.57373
1175247163.20512
1141914767.5052
1097676182.67091
1042778048.30725
966643811.836301
899063139.428752
828788997.939557
759990920.535291
690523633.379079
620906079.313775
550633419.913297
479748717.254147
408114489.616282
335696686.115716
262475986.588321
188430960.850296
113629077.430702
38046943.5753429
1401609.24372545
4313469.46126057
7325917.99648387
10434754.2454843
13633396.068588
16921828.53424
20302771.6803157
23779854.5922942
27357096.3303752
31038779.7928568
34829428.479887
38733816.4288968
42756987.1108296
46904285.0327405
51181382.6652144
55594301.0155371
60149430.3407687
64853565.1345806
69713943.3111611
74738276.4308329
79934780.2393553
85312215.6434527
90879950.9918599
96648010.2137011
102627117.865973
108828744.558254
115265214.116319
121949773.711515
128896662.477251
136121165.158683
143639777.2721
151470315.057765
159632029.114239
168145675.867232
177033744.799639
186320665.064576
196032975.401219
206199393.426971
216851127.051689
228022299.538892
239750177.563086
252075233.891887
265041412.603912
278697107.811974
293095434.118407
308294273.567563
324355844.943718
341349243.562906
359350573.923254
378443118.711569
398713612.486813
420259640.753667
443188490.085925
467617517.317204
493660652.411326
521447397.385725
551117102.000462
582818165.978094
616655801.977046
652702717.091483
690983308.670842
731455251.069996
773774013.547573
817521601.59525
862241151.40997
907389376.951434
952086867.983767
995579699.663877
1037186441.9079
1076235514.53896
1111910353.58328
1143754439.2492
1171400025.0733
1194527892.8874
1212960020.91797
1226603995.10796
1235359367.73913
1239167065.34158
1237943746.45991
1231459127.66745
1219323093.44052
1201116697.69289
1175790292.03022
1142562664.77401
1098454685.92207
1043656963.21077
966797978.364435
899241032.741226
828960297.046512
760143306.427381
690664775.236405
621033045.18006
550746950.083549
479848375.828775
408200252.169022
335768085.265196
262532869.700751
188473238.535073
113657488.907615
38059676.9043799
1328997.18223801
4213740.36448848
7207552.27280531
10311165.47704
13507977.2111931
16794842.8376682
20174057.3814226
23649250.9409831
27224483.6090833
30904067.2812456
34692538.764727
38594675.0810685
42615517.9298624
46760408.1762843
51035014.5200794
55445354.0498678
59997812.2605365
64699178.5593537
69556685.6585154
74578040.3600379
79771452.2531633
85145675.6703194
90710072.0693361
96474659.1084797
102450153.352324
108648016.890796
115080563.630727
121761033.036961
128703654.469087
135923700.686008
143437653.861354
151263319.686648
159419936.86373
167928245.570039
176810717.0601
186091766.37429
195797919.420905
205957872.88917
216602807.300131
227766827.369237
239487189.503219
251804343.59853
264762190.937459
278409099.145753
292798185.962294
307987322.221941
324038654.537307
341021234.76804
359011208.136095
378091909.117423
398349933.008521
419882795.487291
442797920.264222
467212901.463229
493241419.453628
521012887.966122
550667137.769033
582353833.174935
616178733.62955
652215000.412886
690489063.118924
730962680.632669
773289745.318326
817050468.040719
861790201.182169
906969115.371203
951703571.873148
995237533.849959
1036891279.18283
1075994184.81478
1111724497.58623
1143625069.76316
1171328885.52282
1194515357.98383
1213005975.84541
1226708920.95846
1235523778.00406
1239392263.78484
1238232663.34229
1231816434.95419
1219754984.00114
1201633088.21356
1176402068.15757
1143292398.32221
1099324391.46975
1044660600.7378
966921157.972505
899413860.716731
829124733.013064
760294890.444202
690806381.197006
621162955.955485
550864563.094039
479953091.383097
408291676.341995
335845582.056652
262595995.733276
188521591.583555
113691944.350568
38083911.1914128
)
;

boundaryField
{
    dieWall
    {
        type            zeroGradient;
    }
    outlet
    {
        type            fixedValue;
        value           uniform 0;
    }
    Wire
    {
        type            zeroGradient;
    }
    inlet
    {
        type            fixedValue;
        value           uniform 0;
    }
    back
    {
        type            wedge;
    }
    front
    {
        type            wedge;
    }
}


// ************************************************************************* //
