/*--------------------------------*- C++ -*----------------------------------*\
| =========                 |                                                 |
| \\      /  F ield         | foam-extend: Open Source CFD                    |
|  \\    /   O peration     | Version:     4.1-20200408                       |
|   \\  /    A nd           | Web:         http://www.foam-extend.org         |
|    \\/     M anipulation  |                                                 |
\*---------------------------------------------------------------------------*/
FoamFile
{
    version     2.0;
    format      ascii;
    class       volScalarField;
    location    "0.0755000";
    object      epsilonTrueEq;
}
// * * * * * * * * * * * * * * * * * * * * * * * * * * * * * * * * * * * * * //

dimensions      [0 0 0 0 0 0 0];

internalField   nonuniform List<scalar> 
1952
(
0.101336
0.101386
0.10145
0.101521
0.101586
0.101629
0.101631
0.101572
0.101428
0.101164
0.100769
0.100217
0.0996106
0.0990747
0.0987937
0.101313
0.101323
0.101374
0.101437
0.101509
0.101572
0.101618
0.101618
0.101563
0.101418
0.10116
0.100766
0.100224
0.0996237
0.0991013
0.0988312
0.1013
0.101317
0.101368
0.101431
0.101504
0.101568
0.101615
0.101616
0.101563
0.101419
0.101163
0.10077
0.100229
0.0996281
0.099102
0.098821
0.101294
0.101315
0.101366
0.10143
0.101503
0.101568
0.101616
0.101618
0.101566
0.101423
0.101169
0.100776
0.100236
0.0996342
0.0991061
0.0988217
0.101292
0.101319
0.10137
0.101434
0.101508
0.101574
0.101623
0.101626
0.101575
0.101432
0.101178
0.100786
0.100245
0.0996414
0.0991098
0.0988202
0.101296
0.101327
0.101378
0.101443
0.101518
0.101584
0.101633
0.101637
0.101586
0.101444
0.10119
0.100797
0.100254
0.099649
0.099115
0.0988221
0.101303
0.101339
0.101391
0.101456
0.10153
0.101597
0.101647
0.101651
0.1016
0.101457
0.101203
0.100809
0.100265
0.0996575
0.0991206
0.0988247
0.101315
0.101355
0.101406
0.101472
0.101546
0.101613
0.101662
0.101666
0.101615
0.101472
0.101217
0.100822
0.100277
0.0996671
0.0991277
0.0988289
0.101331
0.101372
0.101424
0.101489
0.101564
0.101631
0.10168
0.101683
0.101632
0.101488
0.101232
0.100836
0.100289
0.0996767
0.0991354
0.0988344
0.101349
0.101392
0.101444
0.101509
0.101583
0.10165
0.101699
0.101702
0.101649
0.101505
0.101247
0.10085
0.100301
0.0996876
0.099144
0.098841
0.101369
0.101413
0.101464
0.101529
0.101603
0.101669
0.101718
0.10172
0.101667
0.101522
0.101263
0.100864
0.100314
0.0996991
0.0991536
0.0988485
0.10139
0.101434
0.101485
0.10155
0.101623
0.101689
0.101737
0.101739
0.101685
0.101539
0.101279
0.100879
0.100328
0.0997104
0.0991635
0.098857
0.10141
0.101455
0.101506
0.10157
0.101643
0.101709
0.101756
0.101758
0.101703
0.101555
0.101295
0.100893
0.100341
0.0997226
0.099174
0.0988661
0.101431
0.101475
0.101525
0.10159
0.101663
0.101728
0.101775
0.101775
0.10172
0.101572
0.101311
0.100908
0.100355
0.0997351
0.0991853
0.0988759
0.101451
0.101493
0.101544
0.101608
0.101681
0.101746
0.101792
0.101793
0.101737
0.101588
0.101327
0.100923
0.100368
0.0997472
0.0991967
0.0988864
0.10147
0.101511
0.101561
0.101626
0.101698
0.101763
0.101809
0.101809
0.101753
0.101603
0.101341
0.100937
0.100382
0.0997599
0.0992085
0.0988976
0.101487
0.101526
0.101577
0.101641
0.101713
0.101778
0.101824
0.101824
0.101767
0.101618
0.101355
0.100951
0.100395
0.0997729
0.099221
0.0989092
0.101503
0.10154
0.10159
0.101655
0.101727
0.101792
0.101838
0.101838
0.101781
0.101632
0.101369
0.100964
0.100409
0.0997854
0.0992334
0.0989214
0.101516
0.101552
0.101602
0.101667
0.101739
0.101805
0.10185
0.101851
0.101794
0.101644
0.101382
0.100977
0.100422
0.0997983
0.0992462
0.0989342
0.101528
0.101561
0.101612
0.101677
0.10175
0.101815
0.101861
0.101862
0.101806
0.101656
0.101395
0.10099
0.100435
0.0998112
0.0992598
0.098948
0.101538
0.101569
0.10162
0.101685
0.101758
0.101824
0.101871
0.101872
0.101817
0.101667
0.101407
0.101002
0.100447
0.0998239
0.0992739
0.0989628
0.101545
0.101575
0.101626
0.101692
0.101765
0.101832
0.101879
0.101881
0.101826
0.101678
0.101418
0.101013
0.100461
0.0998378
0.0992889
0.0989786
0.101551
0.101579
0.10163
0.101697
0.10177
0.101838
0.101886
0.101889
0.101835
0.101688
0.101429
0.101026
0.100475
0.0998526
0.0993049
0.0989949
0.101555
0.101581
0.101632
0.1017
0.101774
0.101843
0.101892
0.101896
0.101844
0.101698
0.101441
0.101039
0.100489
0.0998676
0.0993211
0.0990117
0.101557
0.101582
0.101634
0.101702
0.101777
0.101847
0.101897
0.101903
0.101852
0.101707
0.101452
0.101051
0.100503
0.0998831
0.0993378
0.0990292
0.101557
0.101582
0.101634
0.101704
0.101779
0.101851
0.101902
0.101909
0.10186
0.101717
0.101464
0.101064
0.100518
0.0998989
0.0993555
0.0990479
0.101558
0.101582
0.101635
0.101705
0.101781
0.101854
0.101906
0.101915
0.101867
0.101725
0.101475
0.101076
0.100533
0.0999153
0.099374
0.0990678
0.101557
0.101582
0.101635
0.101706
0.101782
0.101857
0.101909
0.10192
0.101874
0.101734
0.101486
0.101089
0.100549
0.0999326
0.0993939
0.0990895
0.101557
0.101583
0.101636
0.101708
0.101784
0.10186
0.101913
0.101925
0.101881
0.101742
0.101497
0.101102
0.100565
0.0999504
0.099415
0.0991129
0.101558
0.101586
0.101638
0.101711
0.101786
0.101863
0.101917
0.10193
0.101887
0.10175
0.101508
0.101115
0.100581
0.0999695
0.0994378
0.0991385
0.101561
0.101591
0.101643
0.101715
0.10179
0.101868
0.101921
0.101936
0.101894
0.101758
0.101519
0.101128
0.100598
0.0999894
0.0994624
0.0991667
0.101566
0.1016
0.101651
0.101723
0.101797
0.101875
0.101927
0.101942
0.101901
0.101767
0.10153
0.101141
0.100616
0.10001
0.0994889
0.0991977
0.101575
0.101615
0.101665
0.101736
0.101808
0.101885
0.101935
0.10195
0.101909
0.101775
0.101541
0.101154
0.100634
0.100033
0.0995174
0.0992319
0.10159
0.101639
0.101686
0.101757
0.101825
0.1019
0.101947
0.101961
0.101919
0.101785
0.101553
0.101167
0.100653
0.100056
0.0995481
0.0992694
0.101614
0.101675
0.101719
0.101787
0.101851
0.101923
0.101966
0.101977
0.101931
0.101796
0.101565
0.101181
0.100673
0.10008
0.099581
0.0993107
0.101651
0.101727
0.101768
0.101832
0.10189
0.101957
0.101993
0.101999
0.101948
0.10181
0.101579
0.101195
0.100692
0.100104
0.0996158
0.0993558
0.101704
0.101802
0.101837
0.101897
0.101945
0.102005
0.102031
0.102029
0.101972
0.101828
0.101594
0.101209
0.100712
0.100129
0.0996524
0.0994046
0.10178
0.101904
0.101933
0.101986
0.102023
0.102072
0.102086
0.102073
0.102004
0.101851
0.101613
0.101223
0.100731
0.100152
0.0996897
0.0994566
0.101884
0.102042
0.102062
0.102106
0.10213
0.102166
0.102162
0.102134
0.102049
0.101883
0.101635
0.101239
0.100749
0.100174
0.0997268
0.0995118
0.102024
0.102223
0.102233
0.102266
0.102272
0.102291
0.102266
0.102218
0.102111
0.101927
0.101664
0.101256
0.100766
0.100192
0.0997625
0.0995687
0.102208
0.102455
0.102454
0.102473
0.102459
0.102457
0.102405
0.102332
0.102197
0.101989
0.101704
0.101278
0.100782
0.100207
0.0997951
0.0996255
0.102444
0.102748
0.102733
0.102737
0.1027
0.102672
0.10259
0.102486
0.102316
0.102076
0.101761
0.101309
0.1008
0.100216
0.0998215
0.099679
0.10274
0.103107
0.103079
0.103065
0.103002
0.102947
0.102829
0.10269
0.102479
0.102199
0.101844
0.101355
0.100822
0.100218
0.0998351
0.099724
0.103104
0.10354
0.103497
0.103464
0.103375
0.103289
0.103133
0.102955
0.102697
0.102373
0.10197
0.101434
0.100862
0.10022
0.0998318
0.0997491
0.103541
0.104049
0.103991
0.103939
0.103823
0.103705
0.103511
0.103293
0.102986
0.102617
0.10216
0.101576
0.100958
0.100269
0.0998567
0.0997714
0.104055
0.104633
0.10456
0.104489
0.104347
0.104199
0.103967
0.10371
0.103355
0.102943
0.102435
0.101807
0.10115
0.100421
0.0999844
0.0998599
0.104643
0.105285
0.105199
0.10511
0.104943
0.104765
0.104498
0.104203
0.103801
0.103347
0.102787
0.102119
0.101421
0.100648
0.10018
0.0999808
0.1053
0.105995
0.105895
0.10579
0.105599
0.105394
0.105092
0.10476
0.104311
0.103814
0.103195
0.10248
0.101723
0.100883
0.100365
0.10007
0.106014
0.106742
0.106631
0.10651
0.106299
0.106067
0.105734
0.105365
0.104869
0.104327
0.10364
0.10287
0.102025
0.101097
0.100514
0.100117
0.106765
0.107504
0.107383
0.107248
0.107018
0.106762
0.106401
0.105998
0.105456
0.104865
0.104105
0.10327
0.102305
0.101283
0.100627
0.100071
0.107531
0.108251
0.10812
0.107973
0.107727
0.10745
0.107067
0.106632
0.106048
0.105409
0.104576
0.103665
0.102558
0.101448
0.100659
0.0998021
0.108281
0.108948
0.108809
0.10865
0.10839
0.108094
0.107693
0.107228
0.106608
0.105923
0.105028
0.104043
0.102815
0.101613
0.100458
0.0990662
0.10898
0.109556
0.109408
0.109235
0.10896
0.108645
0.108229
0.107739
0.107094
0.106384
0.105459
0.104418
0.103054
0.101626
0.0997833
0.0976111
0.109591
0.110028
0.109869
0.109681
0.109393
0.109072
0.10866
0.10817
0.107518
0.106762
0.105767
0.104611
0.102971
0.101068
0.098394
0.0953604
0.110066
0.110345
0.110187
0.110001
0.109716
0.109371
0.108935
0.108409
0.107702
0.106798
0.105582
0.10413
0.10207
0.0996115
0.0961977
0.092412
0.110383
0.110491
0.110318
0.110111
0.109791
0.109344
0.108764
0.108058
0.107148
0.105994
0.104474
0.102636
0.100148
0.0972063
0.0932408
0.0889066
0.11053
0.110208
0.109955
0.109622
0.109145
0.108501
0.107688
0.106708
0.105513
0.104072
0.102263
0.100089
0.0972671
0.0939541
0.0896462
0.0850045
0.110275
0.108952
0.108573
0.108048
0.107344
0.106459
0.105395
0.10415
0.102701
0.101014
0.0989824
0.0965642
0.0935352
0.0899975
0.0855663
0.0808644
0.109066
0.106207
0.105713
0.10502
0.10412
0.103033
0.101772
0.100336
0.098719
0.0968766
0.0947265
0.0921824
0.0890824
0.0854713
0.0811143
0.0765708
0.106371
0.101678
0.101125
0.100345
0.0993466
0.098165
0.0968208
0.0953185
0.0936553
0.0917779
0.0896258
0.0870756
0.084031
0.0804822
0.0763612
0.0721567
0.101873
0.0953292
0.0947966
0.0940396
0.0930749
0.0919389
0.090654
0.0892232
0.0876453
0.0858565
0.0838146
0.0813681
0.0784869
0.0751161
0.071363
0.0676489
0.0955238
0.0873911
0.0869534
0.0863243
0.0855166
0.0845579
0.0834629
0.0822288
0.0808511
0.079258
0.0774214
0.0751716
0.0725426
0.0694474
0.0661725
0.0630767
0.0875527
0.0782942
0.0780012
0.0775707
0.077004
0.0763133
0.0754987
0.0745489
0.0734521
0.0721326
0.0705707
0.0685906
0.0662837
0.0635472
0.0608432
0.0584719
0.0783984
0.0685788
0.0684446
0.0682351
0.0679375
0.0675474
0.0670481
0.0664201
0.0656413
0.064636
0.0633887
0.0617281
0.0597946
0.0574866
0.0554302
0.053867
0.0686165
0.0588046
0.0588071
0.0587915
0.0587338
0.0586176
0.0584116
0.0580908
0.0576219
0.0569335
0.0560092
0.0546936
0.053165
0.0513404
0.04999
0.0492912
0.0587837
0.0494703
0.0495594
0.0496723
0.0497803
0.0498636
0.0498819
0.0498102
0.0496034
0.0491997
0.0485769
0.0476073
0.0464938
0.0451909
0.0445827
0.0447726
0.0494117
0.0409537
0.0410673
0.0412252
0.0414019
0.0415837
0.0417285
0.0418171
0.0417954
0.0416157
0.0412479
0.0406018
0.0398923
0.0391293
0.0392707
0.0403331
0.040884
0.0334788
0.0335618
0.0336878
0.0338398
0.0340173
0.0341831
0.0343302
0.0343993
0.0343635
0.0341844
0.0338195
0.0334836
0.0332575
0.0341216
0.0359932
0.0334213
0.0271131
0.0271334
0.0271783
0.0272399
0.0273325
0.027428
0.0275364
0.0275991
0.0276169
0.0275477
0.0274059
0.0273974
0.0276835
0.0292062
0.0317746
0.0270815
0.0217951
0.0217499
0.0217028
0.0216499
0.0216164
0.0215833
0.0215789
0.0215511
0.0215349
0.021492
0.0215035
0.021762
0.0225098
0.0245855
0.0276933
0.0217907
0.0173824
0.0172929
0.0171772
0.0170275
0.0168725
0.0166979
0.0165469
0.0163763
0.0162579
0.0161642
0.0162517
0.0167003
0.0178217
0.0202949
0.0237525
0.0173969
0.0137136
0.0136101
0.013466
0.0132649
0.0130307
0.0127465
0.0124626
0.0121429
0.0118919
0.0116966
0.0117847
0.0123269
0.0136814
0.016334
0.0199268
0.0137352
0.010628
0.0105313
0.0103913
0.0101839
0.00992584
0.00959243
0.00923194
0.00881402
0.00846818
0.00820332
0.0082539
0.00878557
0.0101611
0.0127015
0.0161865
0.0106492
0.00797036
0.00789478
0.00778598
0.00762095
0.00741318
0.00713709
0.00683369
0.00648232
0.00620602
0.00600985
0.00606626
0.00646926
0.00749029
0.00953161
0.0126289
0.00798792
0.00599015
0.00593707
0.00586459
0.00575832
0.00563396
0.00547526
0.00531753
0.00514767
0.00504591
0.00499307
0.00511618
0.00538126
0.00594304
0.00719175
0.00957511
0.00600403
0.00482507
0.00477858
0.00471645
0.00463063
0.0045386
0.00443199
0.00434693
0.00427459
0.00427917
0.00433652
0.004546
0.00484044
0.00530363
0.00592754
0.0073529
0.00483846
0.00393703
0.00389781
0.00384514
0.00377606
0.00370656
0.00363444
0.00359385
0.00358212
0.00365469
0.00379124
0.00406365
0.00440979
0.00491799
0.005383
0.00611794
0.0039491
0.00314916
0.00312398
0.00309009
0.00305133
0.00301942
0.00299921
0.00301626
0.00307345
0.00320645
0.0034014
0.00370251
0.00405643
0.00453779
0.00501972
0.00561297
0.003158
0.00253143
0.00252001
0.00250356
0.00249308
0.00249389
0.00251805
0.0025801
0.00268889
0.00286191
0.00309362
0.00340479
0.00376249
0.00420918
0.00466862
0.00523271
0.00253715
0.00202904
0.00203318
0.00203614
0.002056
0.00209004
0.00215656
0.00225753
0.00240679
0.00260552
0.00285607
0.00316266
0.00350844
0.00391554
0.00434505
0.00483712
0.00203073
0.00164126
0.00166066
0.00168192
0.00172958
0.00179182
0.00189211
0.00202047
0.00219533
0.00240566
0.0026611
0.00295437
0.00328149
0.00364914
0.00403886
0.00447433
0.00163868
0.00134319
0.00137736
0.00141573
0.00148802
0.00157326
0.00169887
0.00184489
0.0020337
0.00224579
0.00249654
0.00277118
0.00307448
0.00340309
0.00375104
0.00412856
0.00133605
0.00112171
0.00116903
0.0012219
0.00131366
0.00141524
0.00155695
0.00171159
0.00190472
0.00211149
0.00235139
0.00260493
0.00288251
0.00317455
0.00348167
0.00380859
0.0011101
0.000960519
0.00101859
0.00108267
0.00118812
0.00129977
0.00144974
0.0016063
0.00179714
0.00199434
0.00221994
0.00245165
0.0027032
0.00296137
0.00323045
0.003512
0.000944874
0.000847142
0.000912792
0.000984309
0.00109763
0.00121378
0.00136575
0.00151942
0.00170356
0.00188879
0.00209838
0.00230871
0.00253516
0.00276274
0.00299745
0.00323974
0.000828309
0.000770174
0.000839982
0.000915247
0.00103135
0.00114769
0.00129714
0.00144482
0.00161959
0.00179174
0.00198481
0.00217479
0.00237769
0.00257784
0.00278201
0.00299035
0.000749272
0.000720557
0.000791289
0.000867082
0.000981901
0.00109525
0.00123905
0.0013788
0.0015427
0.00170144
0.00187816
0.00204917
0.00223034
0.00240615
0.00258349
0.00276273
0.000698795
0.00069092
0.000759907
0.000833695
0.000944232
0.0010524
0.00118851
0.0013192
0.00147146
0.00161696
0.0017779
0.0019314
0.00209278
0.0022471
0.00240105
0.00255549
0.000669382
0.000675533
0.000740835
0.000810799
0.000914998
0.00101654
0.00114368
0.00126475
0.0014051
0.00153778
0.00168372
0.0018212
0.00196463
0.00210001
0.00223362
0.00236693
0.00065505
0.000669904
0.0007303
0.000795279
0.000891861
0.000985916
0.00110337
0.00121461
0.00134312
0.00146355
0.0015954
0.00171827
0.00184554
0.00196428
0.00208026
0.00219561
0.00065101
0.000670545
0.000725424
0.000784792
0.000873097
0.000959233
0.00106672
0.00116818
0.00128514
0.00139399
0.00151268
0.00162228
0.00173505
0.0018392
0.00193994
0.00204006
0.000653509
0.000674749
0.000723954
0.0007775
0.000857338
0.000935464
0.00103302
0.00112496
0.00123079
0.00132878
0.00143526
0.00153285
0.00163262
0.00172399
0.00181159
0.00189874
0.00065964
0.000680444
0.000724124
0.000771934
0.000843459
0.00091374
0.00100163
0.00108444
0.00117971
0.00126758
0.0013628
0.00144953
0.00153767
0.00161785
0.00169411
0.00177032
0.000667202
0.000686076
0.000724569
0.000766923
0.000830527
0.000893309
0.000971986
0.00104617
0.00113151
0.00121002
0.00129488
0.00137182
0.00144958
0.00151995
0.00158639
0.00165332
0.000674566
0.000690522
0.000724262
0.000761558
0.000817779
0.000873537
0.000943574
0.00100971
0.00108581
0.00115573
0.00123114
0.00129928
0.00136778
0.00142957
0.00148756
0.00154666
0.000680575
0.000693009
0.000722469
0.000755161
0.000804619
0.000853901
0.000915949
0.000974665
0.00104226
0.00110433
0.00117116
0.00123142
0.00129169
0.00134599
0.00139671
0.00144922
0.000684445
0.000693046
0.000718698
0.000747257
0.000790604
0.000833996
0.000888747
0.000940696
0.00100053
0.0010555
0.00111457
0.00116781
0.00122079
0.00126856
0.00131302
0.00135999
0.00068569
0.000690365
0.000712659
0.00073755
0.000775431
0.000813528
0.000861681
0.000907519
0.000960323
0.00100892
0.00106102
0.00110803
0.00115458
0.00119669
0.00123579
0.00127812
0.000684055
0.000684873
0.000704225
0.000725887
0.000758921
0.000792302
0.000834544
0.000874911
0.000921403
0.000964308
0.0010102
0.00105172
0.00109261
0.00112981
0.00116432
0.00120277
0.000679462
0.000676606
0.000693393
0.000712232
0.000740998
0.000770213
0.000807199
0.000842711
0.000883576
0.000921443
0.000961829
0.000998528
0.00103447
0.00106745
0.00109803
0.00113323
0.000671964
0.000665698
0.000680257
0.000696642
0.000721668
0.000747229
0.000779572
0.000810807
0.000846689
0.000880128
0.000915662
0.000948169
0.000979806
0.00100917
0.00103643
0.00106894
0.00066171
0.000652351
0.00066498
0.000679241
0.000701006
0.00072338
0.000751644
0.000779134
0.00081063
0.000840203
0.000871488
0.000900372
0.000928292
0.000954591
0.000979028
0.0010093
0.00064892
0.000636815
0.000647776
0.000660205
0.000679133
0.00069874
0.000723436
0.000747667
0.00077532
0.00080154
0.000829124
0.000854898
0.000879628
0.000903353
0.000925438
0.000953879
0.000633857
0.000619376
0.000628895
0.000639745
0.00065621
0.000673423
0.000695006
0.000716412
0.000740709
0.000764034
0.000788407
0.000811529
0.000833531
0.000855102
0.000875224
0.000902176
0.000616818
0.000600339
0.000608609
0.0006181
0.000632427
0.000647569
0.00066644
0.000685402
0.000706776
0.000727612
0.000749208
0.00077008
0.000789766
0.000809554
0.000828063
0.000853841
0.000598121
0.000580022
0.00058721
0.000595527
0.000607994
0.000621343
0.000637846
0.000654695
0.000673522
0.000692221
0.00071142
0.000730395
0.000748129
0.000766468
0.00078368
0.000808571
0.000578094
0.000558756
0.000565
0.000572297
0.000583139
0.000594926
0.000609357
0.000624369
0.00064097
0.000657831
0.000674962
0.000692344
0.000708443
0.000725622
0.000741821
0.000766078
0.000557076
0.000536879
0.000542292
0.000548694
0.000558105
0.000568519
0.000581121
0.000594522
0.000609163
0.000624434
0.00063977
0.000655816
0.000670559
0.000686835
0.000702281
0.00072614
0.000535414
0.000514733
0.00051941
0.000525013
0.00053315
0.000542336
0.000553306
0.000565271
0.000578166
0.000592038
0.000605801
0.000620719
0.000634339
0.000649933
0.000664868
0.000688554
0.000513458
0.00049267
0.000496684
0.00050156
0.000508548
0.000516611
0.000526102
0.000536754
0.000548066
0.000560675
0.000573034
0.000586977
0.000599663
0.000614755
0.000629396
0.000653113
0.000491566
0.000471047
0.000474455
0.000478654
0.00048459
0.000491597
0.000499723
0.000509135
0.000518977
0.0005304
0.000541468
0.000554535
0.000566429
0.000581166
0.000595721
0.000619685
0.000470102
0.000450226
0.000453075
0.000456626
0.000461582
0.00046757
0.00047441
0.000482606
0.000491046
0.000501299
0.000511132
0.000523357
0.000534548
0.000549027
0.000563681
0.000588082
0.000449432
0.000430575
0.000432901
0.000435819
0.000439852
0.000444829
0.000450436
0.0004574
0.000464464
0.000473499
0.000482092
0.000493436
0.000503948
0.000518213
0.000533147
0.000558193
0.000429926
0.000412455
0.000414292
0.000416585
0.000419744
0.000423701
0.000428115
0.000433793
0.000439476
0.000447182
0.000454471
0.000464799
0.000474567
0.000488574
0.000503919
0.000529806
0.000411951
0.000396222
0.000397603
0.000399278
0.000401615
0.000404539
0.000407797
0.000412117
0.0004164
0.00042261
0.000428478
0.000437553
0.000446405
0.000459987
0.0004758
0.000502691
0.000395858
0.000382206
0.000383172
0.000384245
0.000385824
0.000387712
0.000389872
0.000392764
0.00039564
0.000400154
0.00040445
0.000411923
0.000419566
0.000432408
0.000448631
0.000476605
0.000381979
0.000370704
0.000371306
0.000371809
0.000372716
0.000373597
0.000374754
0.000376186
0.000377692
0.000380314
0.000382891
0.000388305
0.000394293
0.00040583
0.000422159
0.000451178
0.000370605
0.000361953
0.000362252
0.000362239
0.000362589
0.000362537
0.000362841
0.000362857
0.000363118
0.000363735
0.000364523
0.000367361
0.000371101
0.000380339
0.000395887
0.000425736
0.000361969
0.000356076
0.000356142
0.000355689
0.00035562
0.000354762
0.000354421
0.000353171
0.000352444
0.000351133
0.000350299
0.00035023
0.000351274
0.000356861
0.000369935
0.000399619
0.000356188
0.000353052
0.000352969
0.000352176
0.000351859
0.000350369
0.000349665
0.000347414
0.000346131
0.000343252
0.0003414
0.000338716
0.000337502
0.000338705
0.000347562
0.000374351
0.000353236
0.00035403
0.000353863
0.000352821
0.000352387
0.000350433
0.000349582
0.000346594
0.000345099
0.000341064
0.00033876
0.000334076
0.000331374
0.000328255
0.00033092
0.000347445
0.000354266
0.000356063
0.000355871
0.00035473
0.000354268
0.000352129
0.000351249
0.000347958
0.000346417
0.000341888
0.000339433
0.000333847
0.0003305
0.000325196
0.000324443
0.000332355
0.00035632
)
;

boundaryField
{
    wireUpstream
    {
        type            calculated;
        value           nonuniform List<scalar> 
16
(
0.000358423
0.000358237
0.000357018
0.0003566
0.0003543
0.000353509
0.00034994
0.000348515
0.000343501
0.000341087
0.000334557
0.000330751
0.000323261
0.00031935
0.000316353
0.000358693
)
;
    }
    wireDownstream
    {
        type            calculated;
        value           nonuniform List<scalar> 
16
(
0.101334
0.101383
0.101449
0.101519
0.101586
0.101628
0.101633
0.101572
0.101431
0.101164
0.100769
0.10021
0.0995971
0.0990444
0.0987387
0.10131
)
;
    }
    wireTopContact
    {
        type            calculated;
        value           nonuniform List<scalar> 
122
(
0.0987859
0.0987753
0.0987761
0.0987745
0.0987763
0.0987789
0.0987832
0.0987887
0.0987953
0.0988028
0.0988112
0.0988204
0.0988302
0.0988407
0.0988519
0.0988635
0.0988757
0.0988886
0.0989024
0.0989172
0.098933
0.0989493
0.0989661
0.0989836
0.0990024
0.0990223
0.0990439
0.0990673
0.099093
0.0991212
0.0991522
0.0991865
0.0992241
0.0992655
0.0993109
0.09936
0.0994125
0.0994683
0.0995262
0.0995843
0.0996396
0.0996878
0.0997174
0.0997411
0.0998361
0.0999656
0.10006
0.100115
0.100076
0.0998081
0.0990655
0.0975953
0.0953227
0.0923524
0.0888224
0.0848922
0.0807241
0.076403
0.0719613
0.0674277
0.0628334
0.0582125
0.0536001
0.0490266
0.0445213
0.0401056
0.0357987
0.0316203
0.0275832
0.0236881
0.019907
0.0162041
0.0126706
0.00962239
0.0073769
0.00610991
0.00561334
0.0052377
0.0048412
0.00447794
0.00413143
0.00381104
0.00351411
0.00324166
0.00299217
0.00276447
0.00255719
0.00236859
0.00219723
0.00204163
0.00190024
0.00177174
0.00165463
0.00154786
0.00145029
0.00136093
0.00127891
0.00120343
0.00113375
0.00106933
0.00100955
0.00095401
0.000902176
0.000853713
0.000808322
0.000765708
0.000725654
0.00068796
0.00065241
0.00061889
0.000587201
0.000557253
0.000528836
0.000501738
0.000475742
0.000450514
0.000425529
0.00040036
0.000376703
0.000351267
0.000336269
0.0987447
)
;
    }
    front
    {
        type            wedge;
    }
    back
    {
        type            wedge;
    }
}


// ************************************************************************* //
