/*--------------------------------*- C++ -*----------------------------------*\
| =========                 |                                                 |
| \\      /  F ield         | foam-extend: Open Source CFD                    |
|  \\    /   O peration     | Version:     4.1-20200408                       |
|   \\  /    A nd           | Web:         http://www.foam-extend.org         |
|    \\/     M anipulation  |                                                 |
\*---------------------------------------------------------------------------*/
FoamFile
{
    version     2.0;
    format      ascii;
    class       volSymmTensorField;
    location    "0.0755000";
    object      sigmaCauchy;
}
// * * * * * * * * * * * * * * * * * * * * * * * * * * * * * * * * * * * * * //

dimensions      [1 -1 -2 0 0 0 0];

internalField   nonuniform List<symmTensor> 
1952
(
(-8.85842e+08 962433 -5.11401 -3.49331e+08 -1.1288 -3.41932e+08)
(-8.50332e+08 269763 -3.49442 -3.4477e+08 2.83073 -3.23039e+08)
(-8.05162e+08 1.77605e+06 3.86312 -3.32431e+08 7.86904 -2.96023e+08)
(-7.47381e+08 920676 10.9822 -3.22517e+08 -8.86068 -2.6345e+08)
(-6.8127e+08 2.56878e+06 -2.9229 -3.05441e+08 -22.1665 -2.2417e+08)
(-6.00869e+08 1.71556e+06 -15.3963 -2.91002e+08 2.56243 -1.82505e+08)
(-5.04023e+08 3.45758e+06 -3.62667 -2.7037e+08 33.2471 -1.39604e+08)
(-3.785e+08 2.73073e+06 7.51173 -2.53493e+08 -3.46358 -9.28546e+07)
(-2.43696e+08 4.57129e+06 -1.31605 -2.3e+08 -35.5866 -4.53738e+07)
(-6.94044e+07 3.97359e+06 -7.78952 -2.11186e+08 21.0459 1.66768e+07)
(1.38342e+08 5.91833e+06 1.13264 -1.83174e+08 40.2693 6.99868e+07)
(4.37273e+08 5.70374e+06 3.69637 -1.62782e+08 -20.7228 1.61148e+08)
(7.62395e+08 7.9574e+06 -0.431313 -1.27074e+08 -38.2566 2.38578e+08)
(1.06356e+09 8.56633e+06 -4.82337 -1.03176e+08 22.1159 3.99122e+08)
(1.22028e+09 1.21225e+07 -1.53597 -5.29853e+07 13.8956 5.09682e+08)
(-8.9627e+08 -56779.6 -1.14737 -3.55344e+08 3.34115 -3.531e+08)
(-8.81537e+08 2.25215e+06 -10.2319 -3.42169e+08 -1.1868 -3.34646e+08)
(-8.45918e+08 1.03083e+06 -6.9886 -3.37451e+08 2.88519 -3.15817e+08)
(-8.00536e+08 4.31396e+06 7.72833 -3.25164e+08 8.14192 -2.88615e+08)
(-7.42735e+08 2.74477e+06 21.9571 -3.15217e+08 -8.89903 -2.56094e+08)
(-6.7636e+08 6.26696e+06 -5.8482 -2.98095e+08 -22.6714 -2.16625e+08)
(-5.95814e+08 4.68244e+06 -30.7901 -2.83733e+08 2.35739 -1.75083e+08)
(-4.98538e+08 8.38433e+06 -7.26035 -2.63076e+08 33.7776 -1.32005e+08)
(-3.72781e+08 7.00289e+06 14.9822 -2.46405e+08 -3.24264 -8.54165e+07)
(-2.37681e+08 1.0834e+07 -2.63505 -2.22998e+08 -36.0667 -3.77417e+07)
(-6.31406e+07 9.58411e+06 -15.4835 -2.0456e+08 21.0014 2.41275e+07)
(1.45211e+08 1.3383e+07 2.26816 -1.76873e+08 40.6779 7.74686e+07)
(4.44425e+08 1.24039e+07 7.27227 -1.57238e+08 -20.7413 1.68339e+08)
(7.70112e+08 1.57736e+07 -0.859283 -1.22285e+08 -38.6536 2.4555e+08)
(1.07154e+09 1.43659e+07 -9.27403 -1e+08 22.0833 4.0551e+08)
(1.22918e+09 1.61217e+07 -2.75271 -5.12388e+07 14.0287 5.15626e+08)
(-8.91956e+08 11124.2 -2.29534 -3.48e+08 3.51081 -3.45852e+08)
(-8.79285e+08 2.51448e+06 -10.2392 -3.38675e+08 -1.20737 -3.31085e+08)
(-8.43593e+08 1.39861e+06 -6.98987 -3.33921e+08 2.92091 -3.12294e+08)
(-7.98114e+08 4.88043e+06 7.73633 -3.21739e+08 8.26007 -2.85055e+08)
(-7.40379e+08 3.38569e+06 21.9746 -3.11823e+08 -8.96798 -2.5255e+08)
(-6.73892e+08 7.12212e+06 -5.85293 -2.94801e+08 -22.9029 -2.13049e+08)
(-5.93286e+08 5.58643e+06 -30.7887 -2.80539e+08 2.33563 -1.71613e+08)
(-4.95861e+08 9.4679e+06 -7.2778 -2.60049e+08 34.0433 -1.28558e+08)
(-3.69993e+08 8.12899e+06 14.9367 -2.43564e+08 -3.17723 -8.21258e+07)
(-2.34816e+08 1.21261e+07 -2.63887 -2.20421e+08 -36.2626 -3.45416e+07)
(-6.02894e+07 1.08002e+07 -15.3853 -2.02307e+08 21.0088 2.71085e+07)
(1.48128e+08 1.46338e+07 2.29343 -1.7504e+08 40.8243 8.02713e+07)
(4.46952e+08 1.34539e+07 7.23061 -1.55895e+08 -20.7607 1.70904e+08)
(7.72111e+08 1.66402e+07 -0.858981 -1.21523e+08 -38.8084 2.47697e+08)
(1.07219e+09 1.4868e+07 -9.23366 -9.9803e+07 22.0238 4.06993e+08)
(1.22719e+09 1.62407e+07 -2.76333 -5.14722e+07 14.0683 5.16124e+08)
(-8.89705e+08 101979 -2.29777 -3.44418e+08 3.59382 -3.42304e+08)
(-8.76981e+08 2.70934e+06 -10.2454 -3.35903e+08 -1.2199 -3.28292e+08)
(-8.41263e+08 1.66317e+06 -6.98986 -3.31195e+08 2.95144 -3.09516e+08)
(-7.95715e+08 5.31254e+06 7.74073 -3.1907e+08 8.33968 -2.82295e+08)
(-7.3798e+08 3.88285e+06 21.9661 -3.09245e+08 -9.0255 -2.49857e+08)
(-6.71424e+08 7.76119e+06 -5.85846 -2.92338e+08 -23.0521 -2.10381e+08)
(-5.90804e+08 6.2548e+06 -30.7838 -2.78235e+08 2.33641 -1.69042e+08)
(-4.93245e+08 1.0257e+07 -7.2957 -2.57914e+08 34.2031 -1.26052e+08)
(-3.67295e+08 8.92006e+06 14.8901 -2.41655e+08 -3.16325 -7.97633e+07)
(-2.32207e+08 1.29545e+07 -2.64344 -2.18779e+08 -36.3985 -3.21872e+07)
(-5.77627e+07 1.15399e+07 -15.2889 -2.0096e+08 21.0091 2.92516e+07)
(1.50635e+08 1.53222e+07 2.31157 -1.74013e+08 40.9187 8.22172e+07)
(4.49147e+08 1.3943e+07 7.19747 -1.55199e+08 -20.76 1.72614e+08)
(7.73932e+08 1.69352e+07 -0.858897 -1.21122e+08 -38.8983 2.49153e+08)
(1.0732e+09 1.48311e+07 -9.21156 -9.96443e+07 21.9877 4.08121e+08)
(1.22711e+09 1.61487e+07 -2.79478 -5.14384e+07 14.0929 5.16835e+08)
(-8.87405e+08 164824 -2.30022 -3.41632e+08 3.65209 -3.39514e+08)
(-8.74344e+08 2.86054e+06 -10.2537 -3.33722e+08 -1.22878 -3.26077e+08)
(-8.38556e+08 1.86692e+06 -6.99133 -3.29019e+08 2.96768 -3.0731e+08)
(-7.92915e+08 5.63437e+06 7.7472 -3.16989e+08 8.38874 -2.80094e+08)
(-7.35277e+08 4.23357e+06 21.9698 -3.07221e+08 -9.06881 -2.47608e+08)
(-6.68676e+08 8.20321e+06 -5.86364 -2.9044e+08 -23.1558 -2.08188e+08)
(-5.88018e+08 6.70826e+06 -30.7751 -2.76453e+08 2.33493 -1.66933e+08)
(-4.90391e+08 1.07675e+07 -7.31852 -2.56323e+08 34.3054 -1.24041e+08)
(-3.64412e+08 9.39395e+06 14.8117 -2.40253e+08 -3.14824 -7.79033e+07)
(-2.29398e+08 1.34353e+07 -2.64893 -2.17625e+08 -36.4674 -3.04581e+07)
(-5.50627e+07 1.19297e+07 -15.1983 -2.00032e+08 21.0106 3.08176e+07)
(1.53236e+08 1.56466e+07 2.34159 -1.73367e+08 40.9586 8.3587e+07)
(4.51241e+08 1.41194e+07 7.17097 -1.54794e+08 -20.7618 1.73798e+08)
(7.7545e+08 1.69714e+07 -0.858656 -1.20971e+08 -38.9383 2.50048e+08)
(1.07375e+09 1.47332e+07 -9.20774 -9.96096e+07 21.9615 4.08693e+08)
(1.2264e+09 1.60598e+07 -2.81998 -5.14888e+07 14.1028 5.17004e+08)
(-8.84782e+08 213824 -2.30117 -3.39415e+08 3.68687 -3.37302e+08)
(-8.71593e+08 2.97023e+06 -10.2615 -3.32038e+08 -1.23332 -3.24375e+08)
(-8.35786e+08 1.99807e+06 -6.99153 -3.27382e+08 2.97755 -3.05626e+08)
(-7.90095e+08 5.83728e+06 7.75446 -3.15416e+08 8.41286 -2.78433e+08)
(-7.32492e+08 4.44242e+06 21.972 -3.0573e+08 -9.08699 -2.45993e+08)
(-6.65854e+08 8.47213e+06 -5.87005 -2.89057e+08 -23.1998 -2.06598e+08)
(-5.85213e+08 6.96089e+06 -30.7685 -2.7519e+08 2.32997 -1.65429e+08)
(-4.8753e+08 1.10284e+07 -7.34179 -2.55219e+08 34.3452 -1.22611e+08)
(-3.61518e+08 9.62518e+06 14.7639 -2.39304e+08 -3.13517 -7.65951e+07)
(-2.26696e+08 1.36223e+07 -2.65374 -2.16873e+08 -36.4943 -2.92135e+07)
(-5.25323e+07 1.20224e+07 -15.1107 -1.99467e+08 20.9823 3.18885e+07)
(1.55627e+08 1.56361e+07 2.36659 -1.72998e+08 40.9567 8.44921e+07)
(4.53184e+08 1.39946e+07 7.15721 -1.54597e+08 -20.7485 1.74558e+08)
(7.76915e+08 1.67648e+07 -0.858589 -1.20891e+08 -38.9444 2.50634e+08)
(1.07442e+09 1.44877e+07 -9.20185 -9.95865e+07 21.9443 4.09067e+08)
(1.22619e+09 1.59303e+07 -2.8464 -5.15022e+07 14.1033 5.17104e+08)
(-8.82041e+08 244009 -2.30423 -3.37722e+08 3.70443 -3.35602e+08)
(-8.68715e+08 3.02712e+06 -10.2692 -3.30806e+08 -1.23497 -3.23119e+08)
(-8.32874e+08 2.044e+06 -6.99254 -3.26177e+08 2.97834 -3.0438e+08)
(-7.87116e+08 5.95016e+06 7.75978 -3.14277e+08 8.41497 -2.77201e+08)
(-7.29626e+08 4.53389e+06 21.9653 -3.0465e+08 -9.09367 -2.44756e+08)
(-6.62989e+08 8.59226e+06 -5.87611 -2.88075e+08 -23.2078 -2.05414e+08)
(-5.82365e+08 7.03841e+06 -30.7547 -2.7431e+08 2.32811 -1.6432e+08)
(-4.84662e+08 1.11094e+07 -7.36894 -2.54477e+08 34.3402 -1.21585e+08)
(-3.58674e+08 9.63097e+06 14.6828 -2.38696e+08 -3.13101 -7.56906e+07)
(-2.24033e+08 1.35685e+07 -2.65968 -2.16427e+08 -36.4831 -2.83784e+07)
(-5.00499e+07 1.18916e+07 -15.0257 -1.99146e+08 20.9561 3.26063e+07)
(1.57959e+08 1.54359e+07 2.39842 -1.72812e+08 40.9277 8.50746e+07)
(4.55032e+08 1.37418e+07 7.14126 -1.54488e+08 -20.7284 1.75019e+08)
(7.78283e+08 1.64829e+07 -0.858336 -1.20881e+08 -38.9213 2.50934e+08)
(1.07508e+09 1.42145e+07 -9.2076 -9.95755e+07 21.9383 4.09252e+08)
(1.22609e+09 1.58132e+07 -2.86793 -5.15256e+07 14.0962 5.17065e+08)
(-8.79175e+08 251501 -2.30546 -3.36473e+08 3.7054 -3.3435e+08)
(-8.65838e+08 3.0537e+06 -10.2782 -3.29938e+08 -1.23429 -3.22231e+08)
(-8.29974e+08 2.03679e+06 -6.99317 -3.25334e+08 2.97304 -3.03507e+08)
(-7.84172e+08 5.96685e+06 7.76693 -3.13496e+08 8.40173 -2.76342e+08)
(-7.26762e+08 4.49843e+06 21.9676 -3.03925e+08 -9.08504 -2.43904e+08)
(-6.60128e+08 8.57134e+06 -5.88266 -2.87434e+08 -23.1838 -2.0459e+08)
(-5.79546e+08 6.95797e+06 -30.7438 -2.73739e+08 2.31957 -1.63564e+08)
(-4.81847e+08 1.10015e+07 -7.39637 -2.54023e+08 34.304 -1.20895e+08)
(-3.55898e+08 9.47017e+06 14.6254 -2.38312e+08 -3.11551 -7.50985e+07)
(-2.21482e+08 1.33597e+07 -2.66482 -2.16159e+08 -36.4434 -2.78545e+07)
(-4.7688e+07 1.16261e+07 -14.9463 -1.98966e+08 20.9136 3.30226e+07)
(1.60181e+08 1.51233e+07 2.43032 -1.72721e+08 40.8712 8.53954e+07)
(4.56839e+08 1.33798e+07 7.12825 -1.54453e+08 -20.714 1.75314e+08)
(7.79661e+08 1.61241e+07 -0.85786 -1.20896e+08 -38.8832 2.51117e+08)
(1.07585e+09 1.393e+07 -9.2127 -9.95832e+07 21.9396 4.0933e+08)
(1.22628e+09 1.56932e+07 -2.88751 -5.15221e+07 14.0844 5.17003e+08)
(-8.76307e+08 245390 -2.30829 -3.3559e+08 3.69502 -3.33465e+08)
(-8.62942e+08 3.03716e+06 -10.2858 -3.29366e+08 -1.2312 -3.21645e+08)
(-8.27072e+08 1.95944e+06 -6.99303 -3.24795e+08 2.96348 -3.02934e+08)
(-7.8123e+08 5.90793e+06 7.77202 -3.12995e+08 8.37397 -2.75783e+08)
(-7.23947e+08 4.37875e+06 21.9586 -3.0347e+08 -9.06623 -2.43369e+08)
(-6.57336e+08 8.46102e+06 -5.88892 -2.87039e+08 -23.1319 -2.04081e+08)
(-5.76814e+08 6.77095e+06 -30.7251 -2.7341e+08 2.31411 -1.63115e+08)
(-4.79111e+08 1.08176e+07 -7.42763 -2.53761e+08 34.237 -1.20487e+08)
(-3.53203e+08 9.21923e+06 14.5488 -2.38103e+08 -3.11091 -7.47645e+07)
(-2.18991e+08 1.3028e+07 -2.67016 -2.16018e+08 -36.3905 -2.74911e+07)
(-4.53753e+07 1.12521e+07 -14.8611 -1.98894e+08 20.8658 3.33047e+07)
(1.6234e+08 1.47163e+07 2.4598 -1.72704e+08 40.8048 8.55953e+07)
(4.58571e+08 1.29636e+07 7.12621 -1.54482e+08 -20.6971 1.75489e+08)
(7.8106e+08 1.57509e+07 -0.857282 -1.20906e+08 -38.8355 2.51241e+08)
(1.07674e+09 1.36686e+07 -9.21178 -9.95919e+07 21.9418 4.09345e+08)
(1.22667e+09 1.55855e+07 -2.90393 -5.15211e+07 14.0682 5.16892e+08)
(-8.73419e+08 219689 -2.31068 -3.35012e+08 3.67447 -3.32882e+08)
(-8.60162e+08 2.99708e+06 -10.2942 -3.29047e+08 -1.2272 -3.21309e+08)
(-8.2427e+08 1.84682e+06 -6.99293 -3.24471e+08 2.94905 -3.02602e+08)
(-7.7838e+08 5.80129e+06 7.77719 -3.12712e+08 8.33905 -2.75444e+08)
(-7.21181e+08 4.18942e+06 21.9502 -3.03197e+08 -9.04534 -2.42975e+08)
(-6.54602e+08 8.26296e+06 -5.89488 -2.86807e+08 -23.0722 -2.03712e+08)
(-5.74123e+08 6.50638e+06 -30.7052 -2.7322e+08 2.31 -1.62786e+08)
(-4.76426e+08 1.05448e+07 -7.45814 -2.53617e+08 34.1591 -1.20198e+08)
(-3.50646e+08 8.89604e+06 14.4682 -2.38026e+08 -3.11151 -7.45712e+07)
(-2.16652e+08 1.26221e+07 -2.67543 -2.1598e+08 -36.3288 -2.72786e+07)
(-4.31698e+07 1.08087e+07 -14.7906 -1.98892e+08 20.8277 3.34769e+07)
(1.64437e+08 1.4259e+07 2.48973 -1.72711e+08 40.7352 8.57138e+07)
(4.60337e+08 1.25418e+07 7.11598 -1.54502e+08 -20.6723 1.75548e+08)
(7.82543e+08 1.53889e+07 -0.85682 -1.20906e+08 -38.773 2.51257e+08)
(1.07776e+09 1.34012e+07 -9.20969 -9.95885e+07 21.9531 4.09327e+08)
(1.22727e+09 1.5485e+07 -2.91781 -5.15238e+07 14.0491 5.16778e+08)
(-8.70646e+08 184473 -2.31266 -3.34679e+08 3.64747 -3.32551e+08)
(-8.57431e+08 2.95073e+06 -10.3017 -3.28848e+08 -1.22261 -3.21093e+08)
(-8.21527e+08 1.71832e+06 -6.99249 -3.24273e+08 2.9334 -3.02392e+08)
(-7.75606e+08 5.65869e+06 7.78371 -3.12555e+08 8.30033 -2.75232e+08)
(-7.18548e+08 3.95324e+06 21.9497 -3.03051e+08 -9.01787 -2.4274e+08)
(-6.51984e+08 8.01268e+06 -5.90066 -2.86687e+08 -23.0051 -2.03472e+08)
(-5.71552e+08 6.17636e+06 -30.6791 -2.7313e+08 2.30175 -1.62582e+08)
(-4.73843e+08 1.01989e+07 -7.49417 -2.53566e+08 34.0772 -1.20014e+08)
(-3.48179e+08 8.49793e+06 14.3631 -2.38015e+08 -3.1023 -7.44716e+07)
(-2.14392e+08 1.21736e+07 -2.68082 -2.16027e+08 -36.2497 -2.72504e+07)
(-4.10055e+07 1.03492e+07 -14.7156 -1.98934e+08 20.7883 3.34893e+07)
(1.6653e+08 1.38038e+07 2.5242 -1.72762e+08 40.65 8.56932e+07)
(4.62098e+08 1.21192e+07 7.10499 -1.54526e+08 -20.6572 1.7556e+08)
(7.84055e+08 1.50348e+07 -0.856068 -1.20935e+08 -38.7053 2.51233e+08)
(1.07889e+09 1.31439e+07 -9.20688 -9.95945e+07 21.9724 4.09311e+08)
(1.22807e+09 1.53895e+07 -2.92968 -5.15205e+07 14.0286 5.16712e+08)
(-8.67921e+08 144931 -2.31409 -3.34469e+08 3.61757 -3.32341e+08)
(-8.54839e+08 2.87542e+06 -10.3084 -3.28769e+08 -1.2175 -3.20999e+08)
(-8.18931e+08 1.54495e+06 -6.99174 -3.24207e+08 2.9178 -3.02302e+08)
(-7.7298e+08 5.46653e+06 7.78799 -3.12518e+08 8.25872 -2.75141e+08)
(-7.16003e+08 3.67945e+06 21.9377 -3.03023e+08 -8.97841 -2.4269e+08)
(-6.49465e+08 7.71134e+06 -5.90667 -2.86703e+08 -22.9225 -2.03412e+08)
(-5.69067e+08 5.7952e+06 -30.6534 -2.73147e+08 2.28436 -1.62551e+08)
(-4.71342e+08 9.80798e+06 -7.53158 -2.53626e+08 33.9855 -1.19984e+08)
(-3.45832e+08 8.04111e+06 14.2866 -2.38057e+08 -3.0931 -7.442e+07)
(-2.12227e+08 1.17005e+07 -2.68481 -2.16118e+08 -36.1698 -2.72727e+07)
(-3.89032e+07 9.88831e+06 -14.6481 -1.98995e+08 20.7473 3.34595e+07)
(1.6858e+08 1.33646e+07 2.55373 -1.72847e+08 40.5617 8.56342e+07)
(4.639e+08 1.17138e+07 7.09493 -1.54582e+08 -20.6446 1.75574e+08)
(7.85665e+08 1.4692e+07 -0.855273 -1.20979e+08 -38.6376 2.51242e+08)
(1.08015e+09 1.2917e+07 -9.19741 -9.96049e+07 21.9899 4.09324e+08)
(1.22907e+09 1.52986e+07 -2.94045 -5.15223e+07 14.007 5.16674e+08)
(-8.65333e+08 92908.6 -2.31787 -3.34383e+08 3.58582 -3.32253e+08)
(-8.52377e+08 2.78428e+06 -10.3155 -3.28835e+08 -1.21179 -3.2105e+08)
(-8.16455e+08 1.34621e+06 -6.99064 -3.24256e+08 2.89886 -3.02354e+08)
(-7.70452e+08 5.25398e+06 7.79168 -3.12597e+08 8.21317 -2.75175e+08)
(-7.13613e+08 3.37109e+06 21.9223 -3.03067e+08 -8.94155 -2.42682e+08)
(-6.471e+08 7.39034e+06 -5.91202 -2.86792e+08 -22.8433 -2.03401e+08)
(-5.66712e+08 5.39645e+06 -30.622 -2.73194e+08 2.26379 -1.62561e+08)
(-4.68967e+08 9.4179e+06 -7.56732 -2.53727e+08 33.8982 -1.19994e+08)
(-3.43566e+08 7.57624e+06 14.2124 -2.38128e+08 -3.08006 -7.4382e+07)
(-2.10083e+08 1.12233e+07 -2.68862 -2.16206e+08 -36.094 -2.72684e+07)
(-3.67969e+07 9.42283e+06 -14.5714 -1.99054e+08 20.7033 3.34566e+07)
(1.70651e+08 1.29146e+07 2.58386 -1.72924e+08 40.4748 8.56069e+07)
(4.65694e+08 1.13238e+07 7.08946 -1.54633e+08 -20.6266 1.75594e+08)
(7.87321e+08 1.43798e+07 -0.854366 -1.21014e+08 -38.5699 2.5127e+08)
(1.08153e+09 1.27038e+07 -9.18847 -9.96135e+07 22.0051 4.09373e+08)
(1.23022e+09 1.52198e+07 -2.94896 -5.15292e+07 13.9845 5.16665e+08)
(-8.62877e+08 33583 -2.32 -3.34437e+08 3.55063 -3.3231e+08)
(-8.50099e+08 2.6997e+06 -10.3218 -3.28941e+08 -1.2067 -3.21137e+08)
(-8.14152e+08 1.15496e+06 -6.98842 -3.24329e+08 2.87992 -3.0244e+08)
(-7.68098e+08 5.04955e+06 7.79565 -3.12712e+08 8.17097 -2.75235e+08)
(-7.11326e+08 3.05314e+06 21.907 -3.03138e+08 -8.90446 -2.42684e+08)
(-6.44824e+08 7.05591e+06 -5.91746 -2.86901e+08 -22.7692 -2.03384e+08)
(-5.64426e+08 4.97914e+06 -30.587 -2.73262e+08 2.2419 -1.62563e+08)
(-4.66666e+08 8.98382e+06 -7.60049 -2.53843e+08 33.8146 -1.20001e+08)
(-3.4143e+08 7.1004e+06 14.1657 -2.38228e+08 -3.06378 -7.43762e+07)
(-2.08032e+08 1.07486e+07 -2.69156 -2.16299e+08 -36.021 -2.72696e+07)
(-3.47622e+07 8.95557e+06 -14.5068 -1.99136e+08 20.6591 3.34421e+07)
(1.727e+08 1.24794e+07 2.6122 -1.72987e+08 40.3902 8.55866e+07)
(4.67577e+08 1.09489e+07 7.07602 -1.54679e+08 -20.6104 1.75625e+08)
(7.89077e+08 1.40735e+07 -0.853392 -1.21046e+08 -38.5003 2.51308e+08)
(1.08301e+09 1.25004e+07 -9.18327 -9.96376e+07 22.0247 4.09431e+08)
(1.23154e+09 1.51449e+07 -2.95644 -5.15201e+07 13.9624 5.16709e+08)
(-8.60604e+08 -23705.7 -2.32133 -3.34525e+08 3.51703 -3.32404e+08)
(-8.47935e+08 2.60873e+06 -10.3281 -3.29043e+08 -1.20202 -3.21218e+08)
(-8.11962e+08 946682 -6.98613 -3.24413e+08 2.86281 -3.02518e+08)
(-7.6586e+08 4.81472e+06 7.79958 -3.12834e+08 8.13079 -2.75295e+08)
(-7.09219e+08 2.70836e+06 21.896 -3.03232e+08 -8.86787 -2.42725e+08)
(-6.42718e+08 6.69818e+06 -5.92238 -2.8702e+08 -22.6981 -2.03398e+08)
(-5.62311e+08 4.54004e+06 -30.5527 -2.73349e+08 2.22165 -1.62591e+08)
(-4.64493e+08 8.53589e+06 -7.63455 -2.5395e+08 33.7336 -1.20019e+08)
(-3.39325e+08 6.62551e+06 14.1013 -2.38302e+08 -3.04649 -7.43774e+07)
(-2.05992e+08 1.02758e+07 -2.6947 -2.16388e+08 -35.9486 -2.72639e+07)
(-3.27095e+07 8.50412e+06 -14.4346 -1.99207e+08 20.6081 3.3441e+07)
(1.74791e+08 1.20644e+07 2.6399 -1.73059e+08 40.3031 8.55865e+07)
(4.69446e+08 1.05774e+07 7.07265 -1.54756e+08 -20.5993 1.75709e+08)
(7.90877e+08 1.37755e+07 -0.852203 -1.21081e+08 -38.4377 2.51425e+08)
(1.08461e+09 1.23207e+07 -9.16858 -9.96637e+07 22.039 4.09535e+08)
(1.23299e+09 1.50747e+07 -2.96335 -5.15169e+07 13.9402 5.16786e+08)
(-8.58447e+08 -85696.6 -2.32384 -3.34611e+08 3.4853 -3.32494e+08)
(-8.4598e+08 2.50287e+06 -10.3336 -3.2916e+08 -1.19764 -3.21317e+08)
(-8.09986e+08 718630 -6.98334 -3.24504e+08 2.84682 -3.0261e+08)
(-7.63824e+08 4.56966e+06 7.80191 -3.12953e+08 8.09415 -2.7536e+08)
(-7.0722e+08 2.35844e+06 21.8728 -3.03301e+08 -8.82988 -2.42766e+08)
(-6.40707e+08 6.33704e+06 -5.92769 -2.87132e+08 -22.63 -2.03408e+08)
(-5.60261e+08 4.10657e+06 -30.5152 -2.73413e+08 2.19661 -1.62607e+08)
(-4.62372e+08 8.09927e+06 -7.66761 -2.54055e+08 33.6602 -1.20019e+08)
(-3.37334e+08 6.14163e+06 14.0586 -2.38388e+08 -3.03249 -7.43178e+07)
(-2.04026e+08 9.79066e+06 -2.69706 -2.16468e+08 -35.8891 -2.71815e+07)
(-3.07054e+07 8.03366e+06 -14.3749 -1.99281e+08 20.5664 3.3515e+07)
(1.76851e+08 1.16135e+07 2.66265 -1.73117e+08 40.2291 8.56626e+07)
(4.71392e+08 1.02121e+07 7.06576 -1.54813e+08 -20.5756 1.75792e+08)
(7.92801e+08 1.35005e+07 -0.851296 -1.21098e+08 -38.3726 2.51549e+08)
(1.08632e+09 1.21398e+07 -9.15773 -9.96867e+07 22.0537 4.09692e+08)
(1.23458e+09 1.50126e+07 -2.9686 -5.15172e+07 13.9182 5.16912e+08)
(-8.56497e+08 -153600 -2.32556 -3.34716e+08 3.45596 -3.32603e+08)
(-8.44176e+08 2.40874e+06 -10.339 -3.29262e+08 -1.19418 -3.21393e+08)
(-8.08132e+08 500023 -6.97979 -3.24568e+08 2.83105 -3.02681e+08)
(-7.61895e+08 4.33485e+06 7.80514 -3.13066e+08 8.06105 -2.75403e+08)
(-7.05397e+08 1.99626e+06 21.8564 -3.03374e+08 -8.80162 -2.42739e+08)
(-6.38855e+08 5.9557e+06 -5.9323 -2.87232e+08 -22.5765 -2.03356e+08)
(-5.58363e+08 3.64646e+06 -30.4793 -2.73485e+08 2.17829 -1.62567e+08)
(-4.60394e+08 7.60531e+06 -7.69734 -2.54153e+08 33.5957 -1.19972e+08)
(-3.35402e+08 5.64703e+06 14.0073 -2.38477e+08 -3.00929 -7.43066e+07)
(-2.02085e+08 9.30123e+06 -2.7001 -2.16549e+08 -35.8251 -2.71338e+07)
(-2.87136e+07 7.56777e+06 -14.3101 -1.9937e+08 20.5168 3.35536e+07)
(1.78978e+08 1.11971e+07 2.69268 -1.73166e+08 40.1496 8.57376e+07)
(4.73389e+08 9.85785e+06 7.05259 -1.54865e+08 -20.5606 1.75936e+08)
(7.94764e+08 1.32174e+07 -0.850104 -1.21126e+08 -38.3108 2.5171e+08)
(1.08813e+09 1.19518e+07 -9.15076 -9.97222e+07 22.0733 4.09878e+08)
(1.2363e+09 1.49486e+07 -2.97396 -5.15065e+07 13.8974 5.17106e+08)
(-8.54704e+08 -219209 -2.32814 -3.34794e+08 3.42912 -3.32688e+08)
(-8.42558e+08 2.2942e+06 -10.3441 -3.29314e+08 -1.19109 -3.21426e+08)
(-8.06486e+08 250699 -6.97629 -3.24614e+08 2.81932 -3.02711e+08)
(-7.60189e+08 4.04774e+06 7.80811 -3.13141e+08 8.03289 -2.75417e+08)
(-7.03719e+08 1.6016e+06 21.8377 -3.03426e+08 -8.76679 -2.42779e+08)
(-6.37123e+08 5.54272e+06 -5.93798 -2.87317e+08 -22.5194 -2.03347e+08)
(-5.5658e+08 3.16435e+06 -30.4421 -2.73544e+08 2.15441 -1.62567e+08)
(-4.58463e+08 7.11686e+06 -7.73449 -2.54229e+08 33.5349 -1.19927e+08)
(-3.3353e+08 5.14486e+06 13.9495 -2.38523e+08 -2.98834 -7.42147e+07)
(-2.00202e+08 8.79498e+06 -2.70239 -2.16618e+08 -35.7711 -2.70251e+07)
(-2.67271e+07 7.09902e+06 -14.2535 -1.9943e+08 20.4685 3.36624e+07)
(1.81087e+08 1.07669e+07 2.71362 -1.73229e+08 40.0767 8.58648e+07)
(4.75418e+08 9.47774e+06 7.05431 -1.5495e+08 -20.548 1.76143e+08)
(7.96833e+08 1.2932e+07 -0.848953 -1.21157e+08 -38.2577 2.51978e+08)
(1.09005e+09 1.17801e+07 -9.13466 -9.97635e+07 22.0861 4.10142e+08)
(1.23816e+09 1.4885e+07 -2.97924 -5.15005e+07 13.8771 5.17357e+08)
(-8.53094e+08 -292759 -2.33037 -3.34835e+08 3.40668 -3.32731e+08)
(-8.41147e+08 2.17131e+06 -10.3499 -3.29393e+08 -1.18848 -3.21484e+08)
(-8.05025e+08 -14823.5 -6.9726 -3.24657e+08 2.80681 -3.0276e+08)
(-7.58623e+08 3.77541e+06 7.80888 -3.13222e+08 8.00738 -2.75429e+08)
(-7.02209e+08 1.21166e+06 21.8057 -3.03445e+08 -8.73942 -2.42732e+08)
(-6.35552e+08 5.12652e+06 -5.9431 -2.87387e+08 -22.4764 -2.03274e+08)
(-5.54914e+08 2.68146e+06 -30.4036 -2.73565e+08 2.12973 -1.62499e+08)
(-4.56661e+08 6.61378e+06 -7.76542 -2.54301e+08 33.4879 -1.19832e+08)
(-3.31742e+08 4.60811e+06 13.9077 -2.38587e+08 -2.968 -7.40719e+07)
(-1.98339e+08 8.25873e+06 -2.70504 -2.16673e+08 -35.7284 -2.68283e+07)
(-2.47502e+07 6.59402e+06 -14.1947 -1.99497e+08 20.4258 3.38523e+07)
(1.83236e+08 1.02932e+07 2.73857 -1.73269e+08 40.0148 8.60896e+07)
(4.77507e+08 9.10392e+06 7.04806 -1.55005e+08 -20.525 1.7638e+08)
(7.98987e+08 1.26484e+07 -0.847921 -1.21165e+08 -38.204 2.52262e+08)
(1.09207e+09 1.15865e+07 -9.1267 -9.98024e+07 22.1016 4.10464e+08)
(1.24013e+09 1.48227e+07 -2.98385 -5.14961e+07 13.8576 5.17669e+08)
(-8.51697e+08 -372018 -2.33327 -3.34896e+08 3.3856 -3.32798e+08)
(-8.39947e+08 2.05699e+06 -10.3556 -3.29418e+08 -1.18724 -3.21482e+08)
(-8.03755e+08 -274491 -6.96798 -3.24646e+08 2.79652 -3.02751e+08)
(-7.57253e+08 3.48403e+06 7.81259 -3.13265e+08 7.98906 -2.75389e+08)
(-7.0086e+08 780133 21.7867 -3.03451e+08 -8.71851 -2.42633e+08)
(-6.3411e+08 4.66797e+06 -5.94886 -2.87426e+08 -22.4467 -2.0313e+08)
(-5.53377e+08 2.14999e+06 -30.3638 -2.73578e+08 2.10816 -1.62366e+08)
(-4.54947e+08 6.0414e+06 -7.79977 -2.54345e+08 33.4517 -1.19665e+08)
(-3.30039e+08 4.05774e+06 13.8573 -2.38622e+08 -2.93546 -7.39329e+07)
(-1.96542e+08 7.70046e+06 -2.7078 -2.16714e+08 -35.6856 -2.66436e+07)
(-2.28031e+07 6.07871e+06 -14.1432 -1.99558e+08 20.3754 3.40322e+07)
(1.8541e+08 9.83056e+06 2.76367 -1.73303e+08 39.95 8.63202e+07)
(4.79677e+08 8.70251e+06 7.04439 -1.55069e+08 -20.5124 1.76697e+08)
(8.01216e+08 1.23338e+07 -0.846709 -1.21199e+08 -38.1566 2.52616e+08)
(1.09421e+09 1.13742e+07 -9.11885 -9.98528e+07 22.1181 4.10844e+08)
(1.24226e+09 1.47509e+07 -2.98997 -5.14905e+07 13.8395 5.18058e+08)
(-8.50514e+08 -448773 -2.33595 -3.34897e+08 3.36975 -3.32806e+08)
(-8.38939e+08 1.91989e+06 -10.3609 -3.29399e+08 -1.18631 -3.21441e+08)
(-8.02697e+08 -573298 -6.96338 -3.24615e+08 2.7898 -3.02703e+08)
(-7.56088e+08 3.15191e+06 7.81455 -3.13269e+08 7.97535 -2.75313e+08)
(-6.99722e+08 328728 21.7584 -3.03417e+08 -8.69244 -2.42571e+08)
(-6.32854e+08 4.18184e+06 -5.95519 -2.8744e+08 -22.4183 -2.0301e+08)
(-5.52001e+08 1.59521e+06 -30.3242 -2.7356e+08 2.08001 -1.62251e+08)
(-4.5334e+08 5.46565e+06 -7.83799 -2.54363e+08 33.4242 -1.19488e+08)
(-3.28374e+08 3.46265e+06 13.8016 -2.38627e+08 -2.9078 -7.36926e+07)
(-1.94765e+08 7.09386e+06 -2.71048 -2.16748e+08 -35.6558 -2.63613e+07)
(-2.08308e+07 5.51997e+06 -14.0907 -1.99602e+08 20.3274 3.43133e+07)
(1.87607e+08 9.30995e+06 2.78447 -1.73352e+08 39.8945 8.66371e+07)
(4.81856e+08 8.25611e+06 7.05405 -1.55152e+08 -20.4966 1.77081e+08)
(8.03536e+08 1.20039e+07 -0.845564 -1.21232e+08 -38.1176 2.53073e+08)
(1.09647e+09 1.11603e+07 -9.11171 -9.99115e+07 22.1265 4.11313e+08)
(1.24453e+09 1.46808e+07 -2.99578 -5.14863e+07 13.8221 5.18515e+08)
(-8.49522e+08 -537120 -2.33721 -3.34866e+08 3.3578 -3.32776e+08)
(-8.3821e+08 1.77935e+06 -10.3672 -3.294e+08 -1.18654 -3.21413e+08)
(-8.01883e+08 -884214 -6.95819 -3.24569e+08 2.78292 -3.02659e+08)
(-7.55124e+08 2.82449e+06 7.81585 -3.13276e+08 7.96711 -2.75222e+08)
(-6.98742e+08 -143688 21.7219 -3.03363e+08 -8.67595 -2.42406e+08)
(-6.31744e+08 3.66634e+06 -5.96173 -2.87446e+08 -22.4071 -2.02804e+08)
(-5.50733e+08 1.00841e+06 -30.2824 -2.73517e+08 2.05213 -1.62049e+08)
(-4.5185e+08 4.82577e+06 -7.87257 -2.54377e+08 33.4115 -1.19244e+08)
(-3.26854e+08 2.81154e+06 13.7675 -2.38641e+08 -2.87598 -7.34148e+07)
(-1.93061e+08 6.4317e+06 -2.7133 -2.16757e+08 -35.6371 -2.60067e+07)
(-1.89101e+07 4.90608e+06 -14.0479 -1.99647e+08 20.2839 3.46618e+07)
(1.89819e+08 8.74181e+06 2.80739 -1.73366e+08 39.8496 8.70433e+07)
(4.84154e+08 7.78516e+06 7.05533 -1.55214e+08 -20.4784 1.77521e+08)
(8.05978e+08 1.16363e+07 -0.844476 -1.21246e+08 -38.0792 2.53567e+08)
(1.09887e+09 1.09097e+07 -9.11483 -9.99742e+07 22.1393 4.11822e+08)
(1.24696e+09 1.46017e+07 -3.0028 -5.14755e+07 13.8059 5.19037e+08)
(-8.48816e+08 -629524 -2.33944 -3.34841e+08 3.34906 -3.3276e+08)
(-8.37689e+08 1.63858e+06 -10.3735 -3.29354e+08 -1.18764 -3.21337e+08)
(-8.01277e+08 -1.20556e+06 -6.95238 -3.24487e+08 2.77863 -3.02572e+08)
(-7.54379e+08 2.45663e+06 7.81968 -3.1325e+08 7.96486 -2.75095e+08)
(-6.98016e+08 -667953 21.6988 -3.03288e+08 -8.66266 -2.4223e+08)
(-6.30846e+08 3.09979e+06 -5.96892 -2.87413e+08 -22.4076 -2.02555e+08)
(-5.49677e+08 367278 -30.242 -2.7345e+08 2.0241 -1.61807e+08)
(-4.50509e+08 4.12869e+06 -7.91176 -2.54347e+08 33.4128 -1.18933e+08)
(-3.25378e+08 2.12827e+06 13.7114 -2.38606e+08 -2.83305 -7.31027e+07)
(-1.91388e+08 5.71896e+06 -2.71673 -2.16739e+08 -35.621 -2.56265e+07)
(-1.69682e+07 4.24718e+06 -14.0045 -1.9967e+08 20.2326 3.50407e+07)
(1.92082e+08 8.12701e+06 2.82964 -1.73377e+08 39.8035 8.74827e+07)
(4.86466e+08 7.24444e+06 7.07294 -1.55299e+08 -20.4678 1.7804e+08)
(8.08495e+08 1.12237e+07 -0.84329 -1.21272e+08 -38.0498 2.5416e+08)
(1.10141e+09 1.06378e+07 -9.11302 -1.00045e+08 22.1475 4.12406e+08)
(1.24959e+09 1.45125e+07 -3.01159 -5.14693e+07 13.7902 5.1963e+08)
(-8.48318e+08 -724788 -2.34231 -3.34772e+08 3.34492 -3.32696e+08)
(-8.37459e+08 1.48124e+06 -10.38 -3.29301e+08 -1.18943 -3.21255e+08)
(-8.0097e+08 -1.55947e+06 -6.94577 -3.24402e+08 2.77729 -3.02475e+08)
(-7.53907e+08 2.07343e+06 7.82128 -3.13211e+08 7.96875 -2.74948e+08)
(-6.97481e+08 -1.20184e+06 21.6572 -3.03188e+08 -8.64581 -2.4207e+08)
(-6.3012e+08 2.50585e+06 -5.9775 -2.87378e+08 -22.4119 -2.02318e+08)
(-5.48752e+08 -304511 -30.1986 -2.73372e+08 1.98983 -1.61572e+08)
(-4.49278e+08 3.3895e+06 -7.95287 -2.54323e+08 33.4228 -1.18621e+08)
(-3.24051e+08 1.36987e+06 13.676 -2.38593e+08 -2.79432 -7.27328e+07)
(-1.89811e+08 4.9231e+06 -2.71984 -2.16729e+08 -35.619 -2.51702e+07)
(-1.50852e+07 3.50177e+06 -13.976 -1.99711e+08 20.1899 3.54951e+07)
(1.94327e+08 7.41205e+06 2.84851 -1.73389e+08 39.7709 8.80054e+07)
(4.88886e+08 6.64628e+06 7.08915 -1.55377e+08 -20.4466 1.78581e+08)
(8.1118e+08 1.07697e+07 -0.842448 -1.21286e+08 -38.0201 2.5479e+08)
(1.10412e+09 1.03251e+07 -9.1214 -1.00119e+08 22.1562 4.13068e+08)
(1.25241e+09 1.44173e+07 -3.02105 -5.14646e+07 13.7751 5.203e+08)
(-8.48115e+08 -830733 -2.3453 -3.34703e+08 3.34508 -3.3263e+08)
(-8.37489e+08 1.3272e+06 -10.3874 -3.29293e+08 -1.19205 -3.21213e+08)
(-8.00892e+08 -1.92297e+06 -6.93865 -3.24344e+08 2.77559 -3.02414e+08)
(-7.53643e+08 1.67202e+06 7.82467 -3.13216e+08 7.97571 -2.74832e+08)
(-6.97218e+08 -1.78126e+06 21.6233 -3.03129e+08 -8.6381 -2.41881e+08)
(-6.29641e+08 1.85693e+06 -5.98644 -2.87371e+08 -22.431 -2.02054e+08)
(-5.48065e+08 -1.03676e+06 -30.1594 -2.73323e+08 1.95881 -1.61313e+08)
(-4.48257e+08 2.55791e+06 -7.9932 -2.54313e+08 33.4443 -1.18283e+08)
(-3.22832e+08 557828 13.6309 -2.38587e+08 -2.7421 -7.24117e+07)
(-1.88295e+08 4.06371e+06 -2.72409 -2.16718e+08 -35.6146 -2.47422e+07)
(-1.32208e+07 2.69908e+06 -13.9473 -1.99761e+08 20.1371 3.59267e+07)
(1.96638e+08 6.6626e+06 2.87361 -1.7339e+08 39.7333 8.85406e+07)
(4.91372e+08 5.98758e+06 7.10868 -1.55461e+08 -20.4342 1.792e+08)
(8.13953e+08 1.02552e+07 -0.841424 -1.21312e+08 -37.9949 2.55485e+08)
(1.10701e+09 9.96576e+06 -9.13619 -1.00206e+08 22.1681 4.13784e+08)
(1.25548e+09 1.43054e+07 -3.03327 -5.14534e+07 13.7607 5.21058e+08)
(-8.48178e+08 -940111 -2.34869 -3.34667e+08 3.34727 -3.32602e+08)
(-8.37819e+08 1.16232e+06 -10.3951 -3.29326e+08 -1.19471 -3.21218e+08)
(-8.01141e+08 -2.31195e+06 -6.93095 -3.24344e+08 2.7766 -3.02404e+08)
(-7.5371e+08 1.2345e+06 7.82778 -3.13259e+08 7.98629 -2.74767e+08)
(-6.97205e+08 -2.38764e+06 21.581 -3.03105e+08 -8.62158 -2.41819e+08)
(-6.29377e+08 1.17291e+06 -5.99738 -2.874e+08 -22.446 -2.01882e+08)
(-5.47572e+08 -1.80278e+06 -30.1166 -2.73298e+08 1.91917 -1.61139e+08)
(-4.47364e+08 1.69871e+06 -8.04235 -2.54317e+08 33.4706 -1.17987e+08)
(-3.21748e+08 -306268 13.5856 -2.38582e+08 -2.68928 -7.20508e+07)
(-1.86891e+08 3.12738e+06 -2.72801 -2.16716e+08 -35.62 -2.42777e+07)
(-1.1398e+07 1.82267e+06 -13.9327 -1.9981e+08 20.086 3.64071e+07)
(1.98923e+08 5.81585e+06 2.89026 -1.73407e+08 39.7025 8.91197e+07)
(4.93924e+08 5.23421e+06 7.14565 -1.55575e+08 -20.4219 1.79862e+08)
(8.16902e+08 9.67998e+06 -0.840604 -1.21332e+08 -37.9747 2.56276e+08)
(1.11011e+09 9.57536e+06 -9.15128 -1.00303e+08 22.1762 4.14583e+08)
(1.25881e+09 1.41811e+07 -3.04771 -5.14436e+07 13.746 5.21897e+08)
(-8.48539e+08 -1.05795e+06 -2.35258 -3.34686e+08 3.35242 -3.32623e+08)
(-8.38449e+08 1.0021e+06 -10.4033 -3.29515e+08 -1.19748 -3.21375e+08)
(-8.01667e+08 -2.70913e+06 -6.92147 -3.24466e+08 2.77539 -3.02538e+08)
(-7.54011e+08 814202 7.83005 -3.13432e+08 7.99624 -2.74822e+08)
(-6.97474e+08 -2.99276e+06 21.5288 -3.03168e+08 -8.6088 -2.41799e+08)
(-6.29385e+08 471956 -6.00881 -2.87517e+08 -22.4691 -2.01762e+08)
(-5.47318e+08 -2.58619e+06 -30.076 -2.73327e+08 1.87795 -1.61009e+08)
(-4.46713e+08 786217 -8.08723 -2.54383e+08 33.5046 -1.17738e+08)
(-3.20843e+08 -1.22991e+06 13.5559 -2.38635e+08 -2.63123 -7.1745e+07)
(-1.85585e+08 2.12202e+06 -2.7328 -2.1673e+08 -35.6291 -2.38148e+07)