/*--------------------------------*- C++ -*----------------------------------*\
| =========                 |                                                 |
| \\      /  F ield         | foam-extend: Open Source CFD                    |
|  \\    /   O peration     | Version:     4.1-20200408                       |
|   \\  /    A nd           | Web:         http://www.foam-extend.org         |
|    \\/     M anipulation  |                                                 |
\*---------------------------------------------------------------------------*/
FoamFile
{
    version     2.0;
    format      ascii;
    class       volVectorField;
    location    "0.0755000";
    object      U;
}
// * * * * * * * * * * * * * * * * * * * * * * * * * * * * * * * * * * * * * //

dimensions      [0 1 0 0 0 0 0];

internalField   nonuniform List<vector> 
1952
(
(0.0732846 -2.80906e-06 0)
(0.0732843 -4.56902e-06 0)
(0.0732838 -6.35046e-06 0)
(0.0732832 -8.12726e-06 0)
(0.0732825 -9.90686e-06 0)
(0.0732817 -1.16696e-05 0)
(0.0732808 -1.34342e-05 0)
(0.0732799 -1.51735e-05 0)
(0.0732789 -1.69129e-05 0)
(0.073278 -1.8621e-05 0)
(0.0732771 -2.0323e-05 0)
(0.0732763 -2.19861e-05 0)
(0.0732757 -2.36221e-05 0)
(0.0732754 -2.52165e-05 0)
(0.0732753 -2.67784e-05 0)
(0.0732847 -1.20368e-06 0)
(0.073281 -2.80957e-06 0)
(0.0732807 -4.56994e-06 0)
(0.0732802 -6.3516e-06 0)
(0.0732796 -8.12888e-06 0)
(0.0732789 -9.90872e-06 0)
(0.0732781 -1.1672e-05 0)
(0.0732772 -1.34369e-05 0)
(0.0732762 -1.51767e-05 0)
(0.0732753 -1.69165e-05 0)
(0.0732743 -1.86254e-05 0)
(0.0732735 -2.03279e-05 0)
(0.0732727 -2.19921e-05 0)
(0.0732721 -2.3629e-05 0)
(0.0732718 -2.52248e-05 0)
(0.0732717 -2.67884e-05 0)
(0.0732811 -1.20391e-06 0)
(0.0732774 -2.81087e-06 0)
(0.073277 -4.5721e-06 0)
(0.0732766 -6.35457e-06 0)
(0.073276 -8.13277e-06 0)
(0.0732753 -9.91346e-06 0)
(0.0732745 -1.16777e-05 0)
(0.0732736 -1.34435e-05 0)
(0.0732726 -1.51845e-05 0)
(0.0732717 -1.69252e-05 0)
(0.0732707 -1.86353e-05 0)
(0.0732698 -2.03389e-05 0)
(0.0732691 -2.20044e-05 0)
(0.0732685 -2.36426e-05 0)
(0.0732682 -2.52399e-05 0)
(0.0732681 -2.68048e-05 0)
(0.0732775 -1.20447e-06 0)
(0.0732738 -2.81242e-06 0)
(0.0732734 -4.57462e-06 0)
(0.073273 -6.35809e-06 0)
(0.0732724 -8.13731e-06 0)
(0.0732717 -9.91902e-06 0)
(0.0732708 -1.16843e-05 0)
(0.07327 -1.34512e-05 0)
(0.073269 -1.51934e-05 0)
(0.0732681 -1.69352e-05 0)
(0.0732671 -1.86467e-05 0)
(0.0732662 -2.03515e-05 0)
(0.0732655 -2.20184e-05 0)
(0.0732649 -2.36579e-05 0)
(0.0732646 -2.52567e-05 0)
(0.0732645 -2.68229e-05 0)
(0.0732739 -1.20513e-06 0)
(0.0732702 -2.81413e-06 0)
(0.0732698 -4.57742e-06 0)
(0.0732694 -6.36198e-06 0)
(0.0732688 -8.14235e-06 0)
(0.0732681 -9.92524e-06 0)
(0.0732672 -1.16918e-05 0)
(0.0732663 -1.34599e-05 0)
(0.0732654 -1.52033e-05 0)
(0.0732644 -1.69464e-05 0)
(0.0732635 -1.86593e-05 0)
(0.0732626 -2.03655e-05 0)
(0.0732618 -2.20338e-05 0)
(0.0732613 -2.36747e-05 0)
(0.0732609 -2.52749e-05 0)
(0.0732608 -2.68422e-05 0)
(0.0732703 -1.20587e-06 0)
(0.0732665 -2.81604e-06 0)
(0.0732662 -4.58052e-06 0)
(0.0732657 -6.36632e-06 0)
(0.0732651 -8.14793e-06 0)
(0.0732644 -9.93208e-06 0)
(0.0732636 -1.16999e-05 0)
(0.0732627 -1.34693e-05 0)
(0.0732618 -1.52141e-05 0)
(0.0732608 -1.69586e-05 0)
(0.0732599 -1.86728e-05 0)
(0.073259 -2.03803e-05 0)
(0.0732582 -2.20502e-05 0)
(0.0732576 -2.36924e-05 0)
(0.0732573 -2.52939e-05 0)
(0.0732572 -2.68625e-05 0)
(0.0732666 -1.20668e-06 0)
(0.0732629 -2.81807e-06 0)
(0.0732626 -4.58384e-06 0)
(0.0732621 -6.37095e-06 0)
(0.0732615 -8.15388e-06 0)
(0.0732608 -9.93938e-06 0)
(0.07326 -1.17086e-05 0)
(0.0732591 -1.34794e-05 0)
(0.0732581 -1.52255e-05 0)
(0.0732572 -1.69714e-05 0)
(0.0732562 -1.86871e-05 0)
(0.0732553 -2.0396e-05 0)
(0.0732546 -2.20672e-05 0)
(0.073254 -2.37107e-05 0)
(0.0732537 -2.53137e-05 0)
(0.0732536 -2.68835e-05 0)
(0.073263 -1.20756e-06 0)
(0.0732593 -2.82022e-06 0)
(0.0732589 -4.58735e-06 0)
(0.0732585 -6.37583e-06 0)
(0.0732579 -8.16015e-06 0)
(0.0732572 -9.94706e-06 0)
(0.0732563 -1.17177e-05 0)
(0.0732555 -1.34899e-05 0)
(0.0732545 -1.52375e-05 0)
(0.0732535 -1.69847e-05 0)
(0.0732526 -1.87019e-05 0)
(0.0732517 -2.04121e-05 0)
(0.073251 -2.20848e-05 0)
(0.0732504 -2.37296e-05 0)
(0.07325 -2.53339e-05 0)
(0.0732499 -2.6905e-05 0)
(0.0732594 -1.20848e-06 0)
(0.0732557 -2.82247e-06 0)
(0.0732553 -4.591e-06 0)
(0.0732549 -6.38092e-06 0)
(0.0732543 -8.16667e-06 0)
(0.0732535 -9.95502e-06 0)
(0.0732527 -1.17271e-05 0)
(0.0732518 -1.35007e-05 0)
(0.0732509 -1.52498e-05 0)
(0.0732499 -1.69983e-05 0)
(0.073249 -1.8717e-05 0)
(0.0732481 -2.04286e-05 0)
(0.0732473 -2.21026e-05 0)
(0.0732467 -2.37488e-05 0)
(0.0732464 -2.53545e-05 0)
(0.0732463 -2.69268e-05 0)
(0.0732558 -1.20944e-06 0)
(0.073252 -2.82476e-06 0)
(0.0732517 -4.59473e-06 0)
(0.0732512 -6.38609e-06 0)
(0.0732506 -8.1733e-06 0)
(0.0732499 -9.96313e-06 0)
(0.0732491 -1.17366e-05 0)
(0.0732482 -1.35117e-05 0)
(0.0732472 -1.52623e-05 0)
(0.0732463 -1.70123e-05 0)
(0.0732453 -1.87324e-05 0)
(0.0732444 -2.04454e-05 0)
(0.0732437 -2.21208e-05 0)
(0.0732431 -2.37683e-05 0)
(0.0732427 -2.53753e-05 0)
(0.0732427 -2.69489e-05 0)
(0.0732521 -1.21042e-06 0)
(0.0732484 -2.82709e-06 0)
(0.073248 -4.59853e-06 0)
(0.0732476 -6.39136e-06 0)
(0.073247 -8.18005e-06 0)
(0.0732463 -9.97137e-06 0)
(0.0732454 -1.17464e-05 0)
(0.0732446 -1.35229e-05 0)
(0.0732436 -1.52749e-05 0)
(0.0732426 -1.70264e-05 0)
(0.0732417 -1.87479e-05 0)
(0.0732408 -2.04623e-05 0)
(0.07324 -2.21391e-05 0)
(0.0732394 -2.37879e-05 0)
(0.0732391 -2.53962e-05 0)
(0.073239 -2.69711e-05 0)
(0.0732485 -1.21142e-06 0)
(0.0732447 -2.82945e-06 0)
(0.0732444 -4.60237e-06 0)
(0.073244 -6.39669e-06 0)
(0.0732433 -8.18689e-06 0)
(0.0732426 -9.97967e-06 0)
(0.0732418 -1.17562e-05 0)
(0.0732409 -1.35342e-05 0)
(0.07324 -1.52877e-05 0)
(0.073239 -1.70405e-05 0)
(0.073238 -1.87635e-05 0)
(0.0732371 -2.04792e-05 0)
(0.0732364 -2.21574e-05 0)
(0.0732358 -2.38076e-05 0)
(0.0732355 -2.54172e-05 0)
(0.0732354 -2.69935e-05 0)
(0.0732449 -1.21243e-06 0)
(0.0732411 -2.83181e-06 0)
(0.0732408 -4.60621e-06 0)
(0.0732403 -6.40201e-06 0)
(0.0732397 -8.19371e-06 0)
(0.073239 -9.98796e-06 0)
(0.0732382 -1.1766e-05 0)
(0.0732373 -1.35454e-05 0)
(0.0732363 -1.53004e-05 0)
(0.0732353 -1.70547e-05 0)
(0.0732344 -1.87791e-05 0)
(0.0732335 -2.04962e-05 0)
(0.0732327 -2.21758e-05 0)
(0.0732321 -2.38273e-05 0)
(0.0732318 -2.54382e-05 0)
(0.0732317 -2.70158e-05 0)
(0.0732412 -1.21344e-06 0)
(0.0732374 -2.83415e-06 0)
(0.0732371 -4.61003e-06 0)
(0.0732367 -6.4073e-06 0)
(0.073236 -8.20049e-06 0)
(0.0732353 -9.99622e-06 0)
(0.0732345 -1.17757e-05 0)
(0.0732336 -1.35566e-05 0)
(0.0732327 -1.53131e-05 0)
(0.0732317 -1.70688e-05 0)
(0.0732307 -1.87947e-05 0)
(0.0732298 -2.05131e-05 0)
(0.0732291 -2.21941e-05 0)
(0.0732285 -2.38469e-05 0)
(0.0732281 -2.54592e-05 0)
(0.0732281 -2.70382e-05 0)
(0.0732376 -1.21445e-06 0)
(0.0732338 -2.83649e-06 0)
(0.0732335 -4.61383e-06 0)
(0.073233 -6.41257e-06 0)
(0.0732324 -8.20726e-06 0)
(0.0732317 -1.00044e-05 0)
(0.0732308 -1.17855e-05 0)
(0.07323 -1.35677e-05 0)
(0.073229 -1.53257e-05 0)
(0.073228 -1.70828e-05 0)
(0.0732271 -1.88102e-05 0)
(0.0732262 -2.05299e-05 0)
(0.0732254 -2.22123e-05 0)
(0.0732248 -2.38666e-05 0)
(0.0732245 -2.54802e-05 0)
(0.0732244 -2.70605e-05 0)
(0.0732339 -1.21545e-06 0)
(0.0732301 -2.8388e-06 0)
(0.0732298 -4.6176e-06 0)
(0.0732294 -6.41779e-06 0)
(0.0732287 -8.21397e-06 0)
(0.073228 -1.00126e-05 0)
(0.0732272 -1.17951e-05 0)
(0.0732263 -1.35788e-05 0)
(0.0732253 -1.53382e-05 0)
(0.0732244 -1.70967e-05 0)
(0.0732234 -1.88256e-05 0)
(0.0732225 -2.05467e-05 0)
(0.0732218 -2.22306e-05 0)
(0.0732212 -2.38861e-05 0)
(0.0732208 -2.55012e-05 0)
(0.0732207 -2.70828e-05 0)
(0.0732303 -1.21644e-06 0)
(0.0732265 -2.84108e-06 0)
(0.0732261 -4.62132e-06 0)
(0.0732257 -6.42294e-06 0)
(0.0732251 -8.22059e-06 0)
(0.0732244 -1.00207e-05 0)
(0.0732235 -1.18047e-05 0)
(0.0732226 -1.35898e-05 0)
(0.0732217 -1.53507e-05 0)
(0.0732207 -1.71106e-05 0)
(0.0732198 -1.88409e-05 0)
(0.0732189 -2.05634e-05 0)
(0.0732181 -2.22487e-05 0)
(0.0732175 -2.39056e-05 0)
(0.0732172 -2.5522e-05 0)
(0.0732171 -2.71051e-05 0)
(0.0732266 -1.21742e-06 0)
(0.0732228 -2.84336e-06 0)
(0.0732225 -4.62503e-06 0)
(0.073222 -6.42809e-06 0)
(0.0732214 -8.2272e-06 0)
(0.0732207 -1.00287e-05 0)
(0.0732199 -1.18141e-05 0)
(0.073219 -1.36006e-05 0)
(0.073218 -1.5363e-05 0)
(0.073217 -1.71243e-05 0)
(0.0732161 -1.88561e-05 0)
(0.0732152 -2.05799e-05 0)
(0.0732144 -2.22666e-05 0)
(0.0732138 -2.39249e-05 0)
(0.0732135 -2.55428e-05 0)
(0.0732134 -2.71272e-05 0)
(0.0732229 -1.2184e-06 0)
(0.0732192 -2.8456e-06 0)
(0.0732188 -4.62867e-06 0)
(0.0732184 -6.43313e-06 0)
(0.0732178 -8.23368e-06 0)
(0.073217 -1.00365e-05 0)
(0.0732162 -1.18235e-05 0)
(0.0732153 -1.36113e-05 0)
(0.0732144 -1.53752e-05 0)
(0.0732134 -1.71378e-05 0)
(0.0732124 -1.88711e-05 0)
(0.0732115 -2.05963e-05 0)
(0.0732108 -2.22845e-05 0)
(0.0732102 -2.39441e-05 0)
(0.0732098 -2.55634e-05 0)
(0.0732097 -2.71493e-05 0)
(0.0732193 -1.21936e-06 0)
(0.0732155 -2.8478e-06 0)
(0.0732152 -4.63226e-06 0)
(0.0732147 -6.43809e-06 0)
(0.0732141 -8.24007e-06 0)
(0.0732134 -1.00443e-05 0)
(0.0732125 -1.18327e-05 0)
(0.0732116 -1.36219e-05 0)
(0.0732107 -1.53873e-05 0)
(0.0732097 -1.71513e-05 0)
(0.0732087 -1.8886e-05 0)
(0.0732079 -2.06126e-05 0)
(0.0732071 -2.23021e-05 0)
(0.0732065 -2.39632e-05 0)
(0.0732062 -2.55839e-05 0)
(0.0732061 -2.71712e-05 0)
(0.0732156 -1.2203e-06 0)
(0.0732118 -2.84997e-06 0)
(0.0732115 -4.63581e-06 0)
(0.073211 -6.44302e-06 0)
(0.0732104 -8.2464e-06 0)
(0.0732097 -1.0052e-05 0)
(0.0732089 -1.18418e-05 0)
(0.073208 -1.36323e-05 0)
(0.073207 -1.53991e-05 0)
(0.073206 -1.71645e-05 0)
(0.0732051 -1.89006e-05 0)
(0.0732042 -2.06286e-05 0)
(0.0732034 -2.23196e-05 0)
(0.0732028 -2.39821e-05 0)
(0.0732025 -2.56042e-05 0)
(0.0732024 -2.7193e-05 0)
(0.0732119 -1.22123e-06 0)
(0.0732082 -2.85209e-06 0)
(0.0732078 -4.63927e-06 0)
(0.0732074 -6.4478e-06 0)
(0.0732067 -8.25256e-06 0)
(0.073206 -1.00595e-05 0)
(0.0732052 -1.18507e-05 0)
(0.0732043 -1.36426e-05 0)
(0.0732033 -1.54108e-05 0)
(0.0732024 -1.71775e-05 0)
(0.0732014 -1.89152e-05 0)
(0.0732005 -2.06445e-05 0)
(0.0731997 -2.2337e-05 0)
(0.0731991 -2.40009e-05 0)
(0.0731988 -2.56245e-05 0)
(0.0731987 -2.72147e-05 0)
(0.0732083 -1.22214e-06 0)
(0.0732045 -2.85418e-06 0)
(0.0732041 -4.64267e-06 0)
(0.0732037 -6.45251e-06 0)
(0.0732031 -8.25864e-06 0)
(0.0732024 -1.00669e-05 0)
(0.0732015 -1.18596e-05 0)
(0.0732006 -1.36527e-05 0)
(0.0731997 -1.54224e-05 0)
(0.0731987 -1.71904e-05 0)
(0.0731977 -1.89295e-05 0)
(0.0731968 -2.06602e-05 0)
(0.0731961 -2.23542e-05 0)
(0.0731955 -2.40195e-05 0)
(0.0731951 -2.56446e-05 0)
(0.073195 -2.72363e-05 0)
(0.0732046 -1.22304e-06 0)
(0.0732008 -2.85623e-06 0)
(0.0732005 -4.64602e-06 0)
(0.0732 -6.45716e-06 0)
(0.0731994 -8.26463e-06 0)
(0.0731987 -1.00741e-05 0)
(0.0731978 -1.18682e-05 0)
(0.0731969 -1.36626e-05 0)
(0.073196 -1.54338e-05 0)
(0.073195 -1.72031e-05 0)
(0.073194 -1.89437e-05 0)
(0.0731931 -2.06758e-05 0)
(0.0731924 -2.23713e-05 0)
(0.0731918 -2.4038e-05 0)
(0.0731914 -2.56646e-05 0)
(0.0731913 -2.72578e-05 0)
(0.0732009 -1.22392e-06 0)
(0.0731971 -2.85824e-06 0)
(0.0731968 -4.64931e-06 0)
(0.0731963 -6.46171e-06 0)
(0.0731957 -8.27052e-06 0)
(0.073195 -1.00813e-05 0)
(0.0731941 -1.18768e-05 0)
(0.0731933 -1.36725e-05 0)
(0.0731923 -1.54451e-05 0)
(0.0731913 -1.72157e-05 0)
(0.0731903 -1.89578e-05 0)
(0.0731894 -2.06912e-05 0)
(0.0731887 -2.23882e-05 0)
(0.0731881 -2.40563e-05 0)
(0.0731877 -2.56845e-05 0)
(0.0731877 -2.72792e-05 0)
(0.0731972 -1.22478e-06 0)
(0.0731934 -2.86025e-06 0)
(0.0731931 -4.65259e-06 0)
(0.0731926 -6.46625e-06 0)
(0.073192 -8.27639e-06 0)
(0.0731913 -1.00884e-05 0)
(0.0731905 -1.18853e-05 0)
(0.0731896 -1.36822e-05 0)
(0.0731886 -1.54562e-05 0)
(0.0731876 -1.72281e-05 0)
(0.0731867 -1.89717e-05 0)
(0.0731858 -2.07064e-05 0)
(0.073185 -2.2405e-05 0)
(0.0731844 -2.40745e-05 0)
(0.0731841 -2.57042e-05 0)
(0.073184 -2.73005e-05 0)
(0.0731936 -1.22564e-06 0)
(0.0731897 -2.86224e-06 0)
(0.0731894 -4.65584e-06 0)
(0.073189 -6.47074e-06 0)
(0.0731883 -8.28221e-06 0)
(0.0731876 -1.00955e-05 0)
(0.0731868 -1.18937e-05 0)
(0.0731859 -1.36918e-05 0)
(0.0731849 -1.54673e-05 0)
(0.0731839 -1.72405e-05 0)
(0.073183 -1.89856e-05 0)
(0.0731821 -2.07217e-05 0)
(0.0731813 -2.24217e-05 0)
(0.0731807 -2.40927e-05 0)
(0.0731804 -2.5724e-05 0)
(0.0731803 -2.73218e-05 0)
(0.0731899 -1.22649e-06 0)
(0.0731861 -2.86424e-06 0)
(0.0731857 -4.65911e-06 0)
(0.0731853 -6.47525e-06 0)
(0.0731846 -8.28805e-06 0)
(0.0731839 -1.01025e-05 0)
(0.0731831 -1.19022e-05 0)
(0.0731822 -1.37015e-05 0)
(0.0731812 -1.54785e-05 0)
(0.0731802 -1.72528e-05 0)
(0.0731793 -1.89995e-05 0)
(0.0731784 -2.07368e-05 0)
(0.0731776 -2.24384e-05 0)
(0.073177 -2.41109e-05 0)
(0.0731767 -2.57437e-05 0)
(0.0731766 -2.73431e-05 0)
(0.0731862 -1.22735e-06 0)
(0.0731824 -2.86629e-06 0)
(0.073182 -4.66244e-06 0)
(0.0731816 -6.47986e-06 0)
(0.0731809 -8.294e-06 0)
(0.0731802 -1.01097e-05 0)
(0.0731794 -1.19108e-05 0)
(0.0731785 -1.37113e-05 0)
(0.0731775 -1.54897e-05 0)
(0.0731765 -1.72652e-05 0)
(0.0731756 -1.90134e-05 0)
(0.0731747 -2.0752e-05 0)
(0.0731739 -2.24552e-05 0)
(0.0731733 -2.41291e-05 0)
(0.073173 -2.57635e-05 0)
(0.0731729 -2.73646e-05 0)
(0.0731825 -1.22823e-06 0)
(0.0731787 -2.86839e-06 0)
(0.0731783 -4.66587e-06 0)
(0.0731779 -6.48458e-06 0)
(0.0731773 -8.3001e-06 0)
(0.0731765 -1.0117e-05 0)
(0.0731757 -1.19195e-05 0)
(0.0731748 -1.37212e-05 0)
(0.0731738 -1.55011e-05 0)
(0.0731728 -1.72778e-05 0)
(0.0731719 -1.90275e-05 0)
(0.073171 -2.07675e-05 0)
(0.0731702 -2.24721e-05 0)
(0.0731696 -2.41476e-05 0)
(0.0731692 -2.57835e-05 0)
(0.0731692 -2.73864e-05 0)
(0.0731788 -1.22913e-06 0)
(0.073175 -2.8706e-06 0)
(0.0731746 -4.66948e-06 0)
(0.0731742 -6.48951e-06 0)
(0.0731736 -8.30647e-06 0)
(0.0731728 -1.01247e-05 0)
(0.073172 -1.19287e-05 0)
(0.0731711 -1.37315e-05 0)
(0.0731701 -1.55129e-05 0)
(0.0731691 -1.72908e-05 0)
(0.0731682 -1.90421e-05 0)
(0.0731673 -2.07833e-05 0)
(0.0731665 -2.24895e-05 0)
(0.0731659 -2.41664e-05 0)
(0.0731655 -2.58041e-05 0)
(0.0731654 -2.74086e-05 0)
(0.0731751 -1.23008e-06 0)
(0.0731713 -2.87298e-06 0)
(0.0731709 -4.67334e-06 0)
(0.0731705 -6.4948e-06 0)
(0.0731699 -8.31329e-06 0)
(0.0731691 -1.01328e-05 0)
(0.0731683 -1.19383e-05 0)
(0.0731674 -1.37423e-05 0)
(0.0731664 -1.55253e-05 0)
(0.0731654 -1.73044e-05 0)
(0.0731645 -1.90573e-05 0)
(0.0731635 -2.07997e-05 0)
(0.0731628 -2.25075e-05 0)
(0.0731622 -2.4186e-05 0)
(0.0731618 -2.58253e-05 0)
(0.0731617 -2.74316e-05 0)
(0.0731714 -1.2311e-06 0)
(0.0731676 -2.87559e-06 0)
(0.0731672 -4.6776e-06 0)
(0.0731668 -6.50061e-06 0)
(0.0731662 -8.32077e-06 0)
(0.0731654 -1.01417e-05 0)
(0.0731646 -1.19489e-05 0)
(0.0731637 -1.37541e-05 0)
(0.0731627 -1.55387e-05 0)
(0.0731617 -1.7319e-05 0)
(0.0731607 -1.90734e-05 0)
(0.0731598 -2.08171e-05 0)
(0.0731591 -2.25265e-05 0)
(0.0731584 -2.42064e-05 0)
(0.0731581 -2.58474e-05 0)
(0.073158 -2.74556e-05 0)
(0.0731677 -1.23222e-06 0)
(0.0731639 -2.87855e-06 0)
(0.0731635 -4.68239e-06 0)
(0.0731631 -6.50717e-06 0)
(0.0731624 -8.32919e-06 0)
(0.0731617 -1.01516e-05 0)
(0.0731609 -1.19606e-05 0)
(0.07316 -1.37671e-05 0)
(0.073159 -1.55534e-05 0)
(0.073158 -1.73349e-05 0)
(0.073157 -1.9091e-05 0)
(0.0731561 -2.08359e-05 0)
(0.0731553 -2.25469e-05 0)
(0.0731547 -2.42282e-05 0)
(0.0731544 -2.58709e-05 0)
(0.0731543 -2.74808e-05 0)
(0.073164 -1.23349e-06 0)
(0.0731602 -2.88198e-06 0)
(0.0731598 -4.68794e-06 0)
(0.0731594 -6.51473e-06 0)
(0.0731587 -8.33884e-06 0)
(0.073158 -1.0163e-05 0)
(0.0731572 -1.1974e-05 0)
(0.0731563 -1.37818e-05 0)
(0.0731553 -1.557e-05 0)
(0.0731543 -1.73526e-05 0)
(0.0731533 -1.91104e-05 0)
(0.0731524 -2.08565e-05 0)
(0.0731516 -2.2569e-05 0)
(0.073151 -2.42518e-05 0)
(0.0731507 -2.58961e-05 0)
(0.0731506 -2.75079e-05 0)
(0.0731603 -1.23496e-06 0)
(0.0731565 -2.88601e-06 0)
(0.0731561 -4.69445e-06 0)
(0.0731557 -6.5236e-06 0)
(0.073155 -8.35014e-06 0)
(0.0731543 -1.01762e-05 0)
(0.0731535 -1.19895e-05 0)
(0.0731525 -1.37989e-05 0)
(0.0731516 -1.5589e-05 0)
(0.0731506 -1.73729e-05 0)
(0.0731496 -1.91323e-05 0)
(0.0731487 -2.08795e-05 0)
(0.0731479 -2.25936e-05 0)
(0.0731473 -2.42777e-05 0)
(0.0731469 -2.59235e-05 0)
(0.0731468 -2.75371e-05 0)
(0.0731566 -1.23669e-06 0)
(0.0731527 -2.89084e-06 0)
(0.0731524 -4.70225e-06 0)
(0.0731519 -6.53419e-06 0)
(0.0731513 -8.36357e-06 0)
(0.0731506 -1.0192e-05 0)
(0.0731497 -1.20077e-05 0)
(0.0731488 -1.38189e-05 0)
(0.0731478 -1.56112e-05 0)
(0.0731468 -1.73963e-05 0)
(0.0731459 -1.91575e-05 0)
(0.0731449 -2.09057e-05 0)
(0.0731442 -2.26212e-05 0)
(0.0731435 -2.43066e-05 0)
(0.0731432 -2.59539e-05 0)
(0.0731431 -2.75693e-05 0)
(0.0731529 -1.23876e-06 0)
(0.073149 -2.89665e-06 0)
(0.0731487 -4.71161e-06 0)
(0.0731482 -6.5469e-06 0)
(0.0731476 -8.37965e-06 0)
(0.0731469 -1.02108e-05 0)
(0.073146 -1.20295e-05 0)
(0.0731451 -1.38427e-05 0)
(0.0731441 -1.56374e-05 0)
(0.0731431 -1.74238e-05 0)
(0.0731421 -1.91869e-05 0)
(0.0731412 -2.0936e-05 0)
(0.0731404 -2.2653e-05 0)
(0.0731398 -2.43394e-05 0)
(0.0731394 -2.5988e-05 0)
(0.0731393 -2.76051e-05 0)
(0.0731491 -1.24125e-06 0)
(0.0731453 -2.90365e-06 0)
(0.073145 -4.72291e-06 0)
(0.0731445 -6.56226e-06 0)
(0.0731439 -8.39905e-06 0)
(0.0731431 -1.02335e-05 0)
(0.0731423 -1.20558e-05 0)
(0.0731414 -1.38713e-05 0)
(0.0731404 -1.56687e-05 0)
(0.0731394 -1.74566e-05 0)
(0.0731384 -1.92216e-05 0)
(0.0731375 -2.09716e-05 0)
(0.0731367 -2.26899e-05 0)
(0.0731361 -2.43772e-05 0)
(0.0731357 -2.60269e-05 0)
(0.0731356 -2.76456e-05 0)
(0.0731454 -1.24426e-06 0)
(0.0731416 -2.91213e-06 0)
(0.0731412 -4.73659e-06 0)
(0.0731408 -6.58083e-06 0)
(0.0731401 -8.42248e-06 0)
(0.0731394 -1.0261e-05 0)
(0.0731386 -1.20874e-05 0)
(0.0731376 -1.39058e-05 0)
(0.0731367 -1.57064e-05 0)
(0.0731357 -1.7496e-05 0)
(0.0731347 -1.92631e-05 0)
(0.0731338 -2.10139e-05 0)
(0.073133 -2.27334e-05 0)
(0.0731323 -2.44213e-05 0)
(0.073132 -2.60719e-05 0)
(0.0731318 -2.76921e-05 0)
(0.0731417 -1.24789e-06 0)
(0.0731378 -2.92231e-06 0)
(0.0731375 -4.75301e-06 0)
(0.073137 -6.60321e-06 0)
(0.0731364 -8.45072e-06 0)
(0.0731357 -1.02942e-05 0)
(0.0731348 -1.21256e-05 0)
(0.0731339 -1.39475e-05 0)
(0.0731329 -1.5752e-05 0)
(0.0731319 -1.75435e-05 0)
(0.0731309 -1.93132e-05 0)
(0.07313 -2.10646e-05 0)
(0.0731292 -2.27853e-05 0)
(0.0731286 -2.44735e-05 0)
(0.0731282 -2.61247e-05 0)
(0.0731281 -2.77461e-05 0)
(0.0731379 -1.25226e-06 0)
(0.0731341 -2.93452e-06 0)
(0.0731337 -4.77272e-06 0)
(0.0731333 -6.63008e-06 0)
(0.0731326 -8.48462e-06 0)
(0.0731319 -1.03342e-05 0)
(0.0731311 -1.21716e-05 0)
(0.0731302 -1.3998e-05 0)
(0.0731292 -1.5807e-05 0)
(0.0731282 -1.76011e-05 0)
(0.0731272 -1.93737e-05 0)
(0.0731263 -2.11259e-05 0)
(0.0731255 -2.28479e-05 0)
(0.0731248 -2.45359e-05 0)
(0.0731244 -2.61874e-05 0)
(0.0731243 -2.78095e-05 0)
(0.0731342 -1.2575e-06 0)
(0.0731303 -2.94898e-06 0)
(0.07313 -4.79609e-06 0)
(0.0731295 -6.66202e-06 0)
(0.0731289 -8.52498e-06 0)
(0.0731282 -1.0382e-05 0)
(0.0731273 -1.22266e-05 0)
(0.0731264 -1.40587e-05 0)
(0.0731254 -1.58734e-05 0)
(0.0731244 -1.76709e-05 0)
(0.0731235 -1.94471e-05 0)
(0.0731225 -2.12004e-05 0)
(0.0731217 -2.29237e-05 0)
(0.0731211 -2.46113e-05 0)
(0.0731207 -2.62626e-05 0)
(0.0731205 -2.7885e-05 0)
(0.0731304 -1.2637e-06 0)
(0.0731265 -2.96591e-06 0)
(0.0731262 -4.82349e-06 0)
(0.0731257 -6.69958e-06 0)
(0.0731251 -8.57252e-06 0)
(0.0731244 -1.04385e-05 0)
(0.0731236 -1.2292e-05 0)
(0.0731227 -1.41311e-05 0)
(0.0731217 -1.59529e-05 0)
(0.0731207 -1.77549e-05 0)
(0.0731197 -1.9536e-05 0)
(0.0731188 -2.12908e-05 0)
(0.073118 -2.30161e-05 0)
(0.0731173 -2.47029e-05 0)
(0.0731169 -2.63536e-05 0)
(0.0731168 -2.79752e-05 0)
(0.0731266 -1.27097e-06 0)
(0.0731227 -2.98547e-06 0)
(0.0731224 -4.85516e-06 0)
(0.0731219 -6.7431e-06 0)
(0.0731213 -8.62773e-06 0)
(0.0731206 -1.05044e-05 0)
(0.0731198 -1.23685e-05 0)
(0.0731189 -1.42165e-05 0)
(0.0731179 -1.60472e-05 0)
(0.0731169 -1.78553e-05 0)
(0.073116 -1.96429e-05 0)
(0.073115 -2.14004e-05 0)
(0.0731142 -2.31288e-05 0)
(0.0731136 -2.48149e-05 0)
(0.0731132 -2.64648e-05 0)
(0.073113 -2.80844e-05 0)
(0.0731228 -1.27935e-06 0)
(0.0731189 -3.00761e-06 0)
(0.0731185 -4.89107e-06 0)
(0.0731181 -6.79261e-06 0)
(0.0731175 -8.6907e-06 0)
(0.0731168 -1.05801e-05 0)
(0.073116 -1.24566e-05 0)
(0.0731151 -1.43156e-05 0)
(0.0731141 -1.61573e-05 0)
(0.0731132 -1.79738e-05 0)
(0.0731122 -1.97704e-05 0)
(0.0731113 -2.15328e-05 0)
(0.0731105 -2.32669e-05 0)
(0.0731098 -2.49541e-05 0)
(0.0731094 -2.66047e-05 0)
(0.0731092 -2.82223e-05 0)
(0.073119 -1.28884e-06 0)
(0.073115 -3.03215e-06 0)
(0.0731147 -4.93093e-06 0)
(0.0731142 -6.8477e-06 0)
(0.0731136 -8.76094e-06 0)
(0.0731129 -1.06649e-05 0)
(0.0731121 -1.25559e-05 0)
(0.0731113 -1.4428e-05 0)
(0.0731103 -1.62832e-05 0)
(0.0731094 -1.81108e-05 0)
(0.0731084 -1.99195e-05 0)
(0.0731075 -2.16902e-05 0)
(0.0731067 -2.34345e-05 0)
(0.0731061 -2.51272e-05 0)
(0.0731056 -2.67848e-05 0)
(0.0731054 -2.8406e-05 0)
(0.0731151 -1.29937e-06 0)
(0.0731111 -3.05865e-06 0)
(0.0731108 -4.97401e-06 0)
(0.0731103 -6.90742e-06 0)
(0.0731098 -8.83728e-06 0)
(0.0731091 -1.07575e-05 0)
(0.0731083 -1.26647e-05 0)
(0.0731074 -1.45522e-05 0)
(0.0731065 -1.64231e-05 0)
(0.0731056 -1.82644e-05 0)
(0.0731046 -2.00884e-05 0)
(0.0731037 -2.18706e-05 0)
(0.0731029 -2.36297e-05 0)
(0.0731023 -2.53327e-05 0)
(0.0731019 -2.70047e-05 0)
(0.0731016 -2.86377e-05 0)
(0.0731112 -1.31072e-06 0)
(0.0731072 -3.08642e-06 0)
(0.0731069 -5.01922e-06 0)
(0.0731064 -6.97022e-06 0)
(0.0731059 -8.9177e-06 0)
(0.0731052 -1.08555e-05 0)
(0.0731044 -1.27801e-05 0)
(0.0731036 -1.46847e-05 0)
(0.0731027 -1.6573e-05 0)
(0.0731017 -1.84301e-05 0)
(0.0731008 -2.02715e-05 0)
(0.0730999 -2.20673e-05 0)
(0.0730992 -2.38439e-05 0)
(0.0730985 -2.55582e-05 0)
(0.0730981 -2.7246e-05 0)
(0.0730979 -2.88902e-05 0)
(0.0731073 -1.32262e-06 0)
(0.0731032 -3.11447e-06 0)
(0.0731029 -5.06492e-06 0)
(0.0731025 -7.03385e-06 0)
(0.0731019 -8.99934e-06 0)
(0.0731013 -1.09553e-05 0)
(0.0731005 -1.28981e-05 0)
(0.0730997 -1.48209e-05 0)
(0.0730988 -1.67274e-05 0)
(0.0730979 -1.8602e-05 0)
(0.073097 -2.04621e-05 0)
(0.0730961 -2.22728e-05 0)
(0.0730954 -2.40681e-05 0)
(0.0730947 -2.5793e-05 0)
(0.0730943 -2.7497e-05 0)
(0.0730941 -2.915e-05 0)
(0.0731033 -1.33464e-06 0)
(0.0730992 -3.14158e-06 0)
(0.0730989 -5.1091e-06 0)
(0.0730985 -7.0955e-06 0)
(0.0730979 -9.07856e-06 0)
(0.0730973 -1.10526e-05 0)
(0.0730965 -1.30133e-05 0)
(0.0730957 -1.49546e-05 0)
(0.0730949 -1.68795e-05 0)
(0.073094 -1.87723e-05 0)
(0.0730931 -2.06513e-05 0)
(0.0730923 -2.24777e-05 0)
(0.0730916 -2.42923e-05 0)
(0.073091 -2.60263e-05 0)
(0.0730906 -2.77478e-05 0)
(0.0730903 -2.94057e-05 0)
(0.0730993 -1.34625e-06 0)
(0.0730951 -3.16629e-06 0)
(0.0730948 -5.14942e-06 0)
(0.0730944 -7.15184e-06 0)
(0.0730939 -9.15103e-06 0)
(0.0730933 -1.11419e-05 0)
(0.0730926 -1.31192e-05 0)
(0.0730918 -1.50783e-05 0)
(0.0730909 -1.70206e-05 0)
(0.0730901 -1.89315e-05 0)
(0.0730892 -2.08288e-05 0)
(0.0730884 -2.26715e-05 0)
(0.0730877 -2.45049e-05 0)
(0.0730872 -2.62473e-05 0)
(0.0730868 -2.79886e-05 0)
(0.0730866 -2.96451e-05 0)
(0.0730952 -1.35683e-06 0)
(0.073091 -3.18692e-06 0)
(0.0730907 -5.18309e-06 0)
(0.0730903 -7.19897e-06 0)
(0.0730898 -9.21171e-06 0)
(0.0730892 -1.12169e-05 0)
(0.0730885 -1.32085e-05 0)
(0.0730878 -1.51832e-05 0)
(0.073087 -1.71404e-05 0)
(0.0730861 -1.9068e-05 0)
(0.0730853 -2.09817e-05 0)
(0.0730846 -2.28409e-05 0)
(0.0730839 -2.46919e-05 0)
(0.0730834 -2.64456e-05 0)
(0.073083 -2.8207e-05 0)
(0.0730829 -2.98495e-05 0)
(0.0730911 -1.36567e-06 0)
(0.0730869 -3.20167e-06 0)
(0.0730866 -5.20711e-06 0)
(0.0730862 -7.2326e-06 0)
(0.0730857 -9.25489e-06 0)
(0.0730851 -1.12706e-05 0)
(0.0730845 -1.32723e-05 0)
(0.0730837 -1.5259e-05 0)
(0.0730829 -1.72273e-05 0)
(0.0730822 -1.91689e-05 0)
(0.0730814 -2.10958e-05 0)
(0.0730807 -2.29712e-05 0)
(0.0730801 -2.48381e-05 0)
(0.0730796 -2.66054e-05 0)
(0.0730793 -2.83779e-05 0)
(0.0730792 -2.99874e-05 0)
(0.073087 -1.37198e-06 0)
(0.0730827 -3.20863e-06 0)
(0.0730825 -5.21838e-06 0)
(0.0730821 -7.24841e-06 0)
(0.0730816 -9.27518e-06 0)
(0.073081 -1.12965e-05 0)
(0.0730804 -1.33036e-05 0)
(0.0730797 -1.52981e-05 0)
(0.0730789 -1.72735e-05 0)
(0.0730782 -1.92253e-05 0)
(0.0730774 -2.11597e-05 0)
(0.0730768 -2.30453e-05 0)
(0.0730762 -2.49189e-05 0)
(0.0730758 -2.66869e-05 0)
(0.0730756 -2.84471e-05 0)
(0.0730757 -3.00043e-05 0)
(0.0730828 -1.37496e-06 0)
(0.0730785 -3.20662e-06 0)
(0.0730783 -5.21527e-06 0)
(0.0730779 -7.24475e-06 0)
(0.0730774 -9.2709e-06 0)
(0.0730769 -1.12924e-05 0)
(0.0730762 -1.32987e-05 0)
(0.0730756 -1.52942e-05 0)
(0.0730749 -1.72684e-05 0)
(0.0730741 -1.92193e-05 0)
(0.0730735 -2.11451e-05 0)
(0.0730729 -2.30209e-05 0)
(0.0730724 -2.48739e-05 0)
(0.0730721 -2.6615e-05 0)
(0.073072 -2.83353e-05 0)
(0.0730722 -2.98281e-05 0)
(0.0730786 -1.37408e-06 0)
(0.0730743 -3.19465e-06 0)
(0.0730741 -5.19592e-06 0)
(0.0730737 -7.21821e-06 0)
(0.0730733 -9.2359e-06 0)
(0.0730727 -1.12475e-05 0)
(0.0730721 -1.32399e-05 0)
(0.0730715 -1.52194e-05 0)
(0.0730708 -1.71707e-05 0)
(0.0730701 -1.9096e-05 0)
(0.0730695 -2.09856e-05 0)
(0.073069 -2.28226e-05 0)
(0.0730686 -2.46233e-05 0)
(0.0730684 -2.63111e-05 0)
(0.0730686 -2.79672e-05 0)
(0.0730689 -2.93901e-05 0)
(0.0730744 -1.36891e-06 0)
(0.0730701 -3.16645e-06 0)
(0.0730698 -5.14862e-06 0)
(0.0730695 -7.1493e-06 0)
(0.0730691 -9.14147e-06 0)
(0.0730686 -1.11238e-05 0)
(0.073068 -1.308e-05 0)
(0.0730674 -1.5018e-05 0)
(0.0730668 -1.69186e-05 0)
(0.0730662 -1.87893e-05 0)
(0.0730657 -2.06136e-05 0)
(0.0730652 -2.23843e-05 0)
(0.073065 -2.41063e-05 0)
(0.0730649 -2.57207e-05 0)
(0.0730652 -2.72935e-05 0)
(0.0730658 -2.86441e-05 0)
(0.0730701 -1.35686e-06 0)
(0.0730659 -3.10779e-06 0)
(0.0730656 -5.0505e-06 0)
(0.0730653 -7.0073e-06 0)
(0.0730649 -8.94986e-06 0)
(0.0730645 -1.08773e-05 0)
(0.073064 -1.27709e-05 0)
(0.0730634 -1.46405e-05 0)
(0.0730629 -1.64636e-05 0)
(0.0730624 -1.82536e-05 0)
(0.0730619 -1.99878e-05 0)
(0.0730616 -2.16702e-05 0)
(0.0730615 -2.32943e-05 0)
(0.0730616 -2.48222e-05 0)
(0.0730621 -2.63017e-05 0)
(0.0730629 -2.75847e-05 0)
(0.0730659 -1.33185e-06 0)
(0.0730617 -3.0054e-06 0)
(0.0730616 -4.88111e-06 0)
(0.0730613 -6.76645e-06 0)
(0.0730609 -8.63198e-06 0)
(0.0730605 -1.04774e-05 0)
(0.0730601 -1.22823e-05 0)
(0.0730596 -1.40587e-05 0)
(0.0730592 -1.57818e-05 0)
(0.0730588 -1.74699e-05 0)
(0.0730584 -1.90958e-05 0)
(0.0730582 -2.06745e-05 0)
(0.0730582 -2.21888e-05 0)
(0.0730585 -2.36239e-05 0)
(0.0730591 -2.50073e-05 0)
(0.0730602 -2.62314e-05 0)
(0.0730618 -1.28816e-06 0)
(0.0730578 -2.8525e-06 0)
(0.0730576 -4.63046e-06 0)
(0.0730574 -6.41473e-06 0)
(0.0730571 -8.17555e-06 0)
(0.0730568 -9.91325e-06 0)
(0.0730564 -1.16067e-05 0)
(0.073056 -1.32694e-05 0)
(0.0730557 -1.48749e-05 0)
(0.0730554 -1.64463e-05 0)
(0.0730551 -1.79518e-05 0)
(0.073055 -1.94177e-05 0)
(0.0730551 -2.08162e-05 0)
(0.0730556 -2.21564e-05 0)
(0.0730564 -2.34446e-05 0)
(0.0730576 -2.46179e-05 0)
(0.0730579 -1.2228e-06 0)
(0.0730541 -2.6505e-06 0)
(0.073054 -4.30144e-06 0)
(0.0730538 -5.95705e-06 0)
(0.0730536 -7.58839e-06 0)
(0.0730533 -9.19645e-06 0)
(0.073053 -1.07598e-05 0)
(0.0730527 -1.22932e-05 0)
(0.0730524 -1.37688e-05 0)
(0.0730522 -1.52136e-05 0)
(0.0730521 -1.65918e-05 0)
(0.0730521 -1.794e-05 0)
(0.0730524 -1.92207e-05 0)
(0.0730529 -2.04663e-05 0)
(0.0730539 -2.16615e-05 0)
(0.0730553 -2.279e-05 0)
(0.0730542 -1.13633e-06 0)
(0.0730507 -2.40867e-06 0)
(0.0730507 -3.90897e-06 0)
(0.0730505 -5.41391e-06 0)
(0.0730503 -6.89635e-06 0)
(0.0730501 -8.35797e-06 0)
(0.0730499 -9.77753e-06 0)
(0.0730497 -1.11705e-05 0)
(0.0730495 -1.25082e-05 0)
(0.0730494 -1.38202e-05 0)
(0.0730494 -1.50677e-05 0)
(0.0730495 -1.62958e-05 0)
(0.0730498 -1.74587e-05 0)
(0.0730505 -1.86103e-05 0)
(0.0730516 -1.97147e-05 0)
(0.0730531 -2.08016e-05 0)
(0.0730508 -1.03268e-06 0)
(0.0730477 -2.14173e-06 0)
(0.0730477 -3.47647e-06 0)
(0.0730476 -4.81667e-06 0)
(0.0730474 -6.1378e-06 0)
(0.0730473 -7.44218e-06 0)
(0.0730472 -8.70931e-06 0)
(0.073047 -9.9549e-06 0)
(0.0730469 -1.11498e-05 0)
(0.0730469 -1.23255e-05 0)
(0.0730469 -1.3441e-05 0)
(0.0730471 -1.4548e-05 0)
(0.0730476 -1.55939e-05 0)
(0.0730483 -1.66517e-05 0)
(0.0730495 -1.76664e-05 0)
(0.0730511 -1.87119e-05 0)
(0.0730478 -9.18184e-07 0)
(0.0730451 -1.86682e-06 0)
(0.0730451 -3.03107e-06 0)
(0.073045 -4.20152e-06 0)
(0.0730449 -5.35666e-06 0)
(0.0730448 -6.49939e-06 0)
(0.0730447 -7.61047e-06 0)
(0.0730447 -8.70556e-06 0)
(0.0730446 -9.75589e-06 0)
(0.0730447 -1.07938e-05 0)
(0.0730448 -1.17771e-05 0)
(0.0730451 -1.27627e-05 0)
(0.0730456 -1.36927e-05 0)
(0.0730464 -1.4656e-05 0)
(0.0730477 -1.55814e-05 0)
(0.0730493 -1.65827e-05 0)
(0.0730452 -8.00247e-07 0)
(0.0730429 -1.60025e-06 0)
(0.0730429 -2.59866e-06 0)
(0.0730428 -3.60322e-06 0)
(0.0730428 -4.59537e-06 0)
(0.0730427 -5.57847e-06 0)
(0.0730427 -6.53501e-06 0)
(0.0730427 -7.48045e-06 0)
(0.0730427 -8.38719e-06 0)
(0.0730428 -9.28789e-06 0)
(0.073043 -1.01404e-05 0)
(0.0730434 -1.10048e-05 0)
(0.0730439 -1.18201e-05 0)
(0.0730448 -1.26875e-05 0)
(0.073046 -1.35227e-05 0)
(0.0730477 -1.44744e-05 0)
(0.0730429 -6.85911e-07 0)
(0.0730411 -1.3549e-06 0)
(0.0730411 -2.19997e-06 0)
(0.073041 -3.05e-06 0)
(0.073041 -3.88907e-06 0)
(0.073041 -4.72074e-06 0)
(0.073041 -5.52941e-06 0)
(0.073041 -6.3303e-06 0)
(0.0730411 -7.09767e-06 0)
(0.0730413 -7.86413e-06 0)
(0.0730415 -8.58875e-06 0)
(0.0730419 -9.33321e-06 0)
(0.0730425 -1.00356e-05 0)
(0.0730434 -1.08053e-05 0)
(0.0730446 -1.15495e-05 0)
(0.0730462 -1.24444e-05 0)
(0.0730411 -5.8072e-07 0)
(0.0730396 -1.1386e-06 0)
(0.0730396 -1.84792e-06 0)
(0.0730396 -2.56017e-06 0)
(0.0730396 -3.26159e-06 0)
(0.0730396 -3.95547e-06 0)
(0.0730396 -4.62805e-06 0)
(0.0730397 -5.29402e-06 0)
(0.0730398 -5.93004e-06 0)
(0.07304 -6.56825e-06 0)
(0.0730403 -7.17015e-06 0)
(0.0730407 -7.79754e-06 0)
(0.0730413 -8.38974e-06 0)
(0.0730422 -9.06046e-06 0)
(0.0730434 -9.71289e-06 0)
(0.0730449 -1.05429e-05 0)
(0.0730396 -4.88029e-07 0)