/*--------------------------------*- C++ -*----------------------------------*\
  =========                 |
  \\      /  F ield         | OpenFOAM: The Open Source CFD Toolbox
   \\    /   O peration     | Website:  https://openfoam.org
    \\  /    A nd           | Version:  8
     \\/     M anipulation  |
\*---------------------------------------------------------------------------*/
FoamFile
{
    version     2.0;
    format      ascii;
    class       volScalarField::Internal;
    location    "0.0665000";
    object      V0;
}
// * * * * * * * * * * * * * * * * * * * * * * * * * * * * * * * * * * * * * //

dimensions      [0 3 0 0 0 0 0];

value           nonuniform List<scalar> 
600
(
5.74960416286147e-14
5.67852467587901e-14
5.607308912888e-14
5.53613589311583e-14
5.46502478310507e-14
5.39395477502703e-14
5.32293192507974e-14
5.25196385695132e-14
5.18105214984773e-14
5.1101844443437e-14
5.03935863863886e-14
4.96857808751986e-14
4.89784878687546e-14
4.82716524952741e-14
4.75652195422046e-14
4.68591855261223e-14
4.61536463786724e-14
4.54485918197927e-14
4.47439286624618e-14
4.40396596106134e-14
4.33358681133522e-14
4.26325858744709e-14
4.19297289265173e-14
4.12272838833202e-14
4.05253064038797e-14
3.98238759858009e-14
3.91229459972205e-14
3.84224760518914e-14
3.7722476523968e-14
3.70231098453792e-14
3.63243769056015e-14
3.56261778001386e-14
3.49284556263136e-14
3.42315183116426e-14
3.35354715878044e-14
3.28400940587201e-14
3.21453598982669e-14
3.14515855825102e-14
3.07590791611592e-14
3.0067647423446e-14
2.93771781624735e-14
2.86879209155884e-14
2.80006330658381e-14
2.73152648983042e-14
2.66314718406575e-14
2.594921150266e-14
2.52701514868503e-14
2.45946061616159e-14
2.39216771665836e-14
2.32508375645575e-14
2.25851792962719e-14
2.19258760758343e-14
2.12708857394301e-14
2.06198628949376e-14
1.99762762857343e-14
1.93419942870219e-14
1.87165201587082e-14
1.80993635351092e-14
1.74983003953235e-14
1.6936585641304e-14
1.64176179712263e-14
1.59305933846099e-14
1.54893551380111e-14
1.51173343950869e-14
1.47987552954842e-14
1.4511288112983e-14
1.42734410150039e-14
1.41014886607737e-14
1.39716388214488e-14
1.3863767526282e-14
1.3796055383437e-14
1.37622229705565e-14
1.37361666872514e-14
1.37203483765543e-14
1.37070611226522e-14
1.36758909684848e-14
1.36277731987719e-14
1.35701287021484e-14
1.34600600338247e-14
1.32917434342827e-14
1.31064109779426e-14
1.28652092715412e-14
1.25355048690126e-14
1.21536723356504e-14
1.17472474163159e-14
1.12828595322234e-14
1.10639884008093e-14
1.11163638273188e-14
1.11153703184843e-14
1.10698629709704e-14
1.10157589635957e-14
1.09554212100053e-14
1.08834022085879e-14
1.08080266682615e-14
1.07336001444553e-14
1.0657721415373e-14
1.05828027437999e-14
1.05068752218132e-14
1.0422689123231e-14
1.03068059196043e-14
5.95879877169837e-14
5.88284652247282e-14
5.80680509788151e-14
5.73088240332383e-14
5.65507849179604e-14
5.57938580235664e-14
5.5038015780119e-14
5.42832597211031e-14
5.35295785089787e-14
5.27769439579238e-14
5.202533692184e-14
5.12747587204251e-14
5.05252117736074e-14
4.97766840733667e-14
4.90291599148845e-14
4.82826404148714e-14
4.7537136873823e-14
4.67926471015946e-14
4.60491575708635e-14
4.53066692328614e-14
4.45651988747452e-14
4.38247541004924e-14
4.30853280539201e-14
4.23469216956667e-14
4.16095551237216e-14
4.08732485159492e-14
4.01380067872706e-14
3.94038329206856e-14
3.8670752865032e-14
3.79388053266743e-14
3.72080098142815e-14
3.64783692181194e-14
3.57499214666279e-14
3.50227438975438e-14
3.4296890059458e-14
3.35723754259736e-14
3.28492551585014e-14
3.21276548422305e-14
3.14076908632719e-14
3.06894235626952e-14
2.99729361894421e-14
2.92584292846963e-14
2.85461424012018e-14
2.78362241190966e-14
2.71287833894801e-14
2.64241272034898e-14
2.57227151716612e-14
2.5024859235911e-14
2.43306971684775e-14
2.3640694136247e-14
2.29556886185826e-14
2.22762989627093e-14
2.16027713240351e-14
2.09357604172956e-14
2.0276655894691e-14
1.96271209883989e-14
1.89891316117491e-14
1.83665870624439e-14
1.77669345454235e-14
1.71988737874835e-14
1.66684653041906e-14
1.61800181774568e-14
1.57394007399886e-14
1.53509418240465e-14
1.50131208366999e-14
1.47228519209392e-14
1.44807582004327e-14
1.42867126761127e-14
1.41347017900987e-14
1.40175803646579e-14
1.39309084121602e-14
1.38683914096412e-14
1.38205955417052e-14
1.37788646883317e-14
1.37345400617328e-14
1.36784035312186e-14
1.36034421793109e-14
1.35019231716012e-14
1.33623028564189e-14
1.31787616264843e-14
1.29505897387446e-14
1.26693415595854e-14
1.23275317221326e-14
1.19292327896147e-14
1.14764194113222e-14
1.100273977576e-14
1.08130795596585e-14
1.08683424853426e-14
1.08823672026328e-14
1.08641115637073e-14
1.08258170034871e-14
1.07746551889417e-14
1.07140200131612e-14
1.06477827422765e-14
1.05790065964135e-14
1.05092211203723e-14
1.04397855940185e-14
1.03717109796146e-14
1.03069276068112e-14
1.02583497647546e-14
6.16645583022388e-14
6.0857148817736e-14
6.0048785359388e-14
5.92422645411849e-14
5.84375085134176e-14
5.7634439102156e-14
5.68330283828894e-14
5.60332788914874e-14
5.52351785791012e-14
5.44386965277475e-14
5.36438124728861e-14
5.28505282398077e-14
5.20588468041926e-14
5.12687547779855e-14
5.04802349622974e-14
4.9693288480746e-14
4.8907928161816e-14
4.8124151286566e-14
4.73419423008906e-14
4.65613021051889e-14
4.57822492068237e-14
4.50047915756365e-14
4.4228920537218e-14
4.34546365344566e-14
4.26819611019372e-14
4.19109159339151e-14
4.11415048616159e-14
4.03737296085099e-14
3.96076168559335e-14
3.88432088021687e-14
3.8080524822859e-14
3.73195647297585e-14
3.6560365808461e-14
3.58030128009912e-14
3.5047561401819e-14
3.4294020898124e-14
3.35424451994596e-14
3.27929687451801e-14
3.20457150562272e-14
3.13007380167887e-14
3.05581151888771e-14
2.98180549230701e-14
2.90808163127314e-14
2.83465440740469e-14
2.76153296079668e-14
2.68874789153355e-14
2.61634988137546e-14
2.54437060847003e-14
2.47281936259259e-14
2.40174049629633e-14
2.33122751343853e-14
2.26134501320999e-14
2.19210810135389e-14
2.12357830263547e-14
2.05590451691014e-14
1.98925576160592e-14
1.92381752279316e-14
1.85996195715831e-14
1.79845453754093e-14
1.74024221161381e-14
1.68592474949141e-14
1.63586811255894e-14
1.59070143609373e-14
1.5509362046911e-14
1.51634585078113e-14
1.48652982298305e-14
1.46160506333404e-14
1.4415953223829e-14
1.42582277917582e-14
1.41352005317393e-14
1.40425192210161e-14
1.3973636126156e-14
1.39187517002334e-14
1.38689190345231e-14
1.38152802487407e-14
1.37486403181551e-14
1.36615413303571e-14
1.35457257581943e-14
1.33910276492923e-14
1.31914505372587e-14
1.29441158408261e-14
1.26424767632831e-14
1.22811832633228e-14
1.18615589630225e-14
1.13843192952967e-14
1.08921351619221e-14
1.06990891384236e-14
1.07539585129704e-14
1.07711437102242e-14
1.07586621454216e-14
1.07255230089566e-14
1.06785489344483e-14
1.06220867621176e-14
1.05597245373005e-14
1.04943026775761e-14
1.04277441098979e-14
1.03616347338636e-14
1.02978672303738e-14
1.02405977474599e-14
1.02018822912653e-14
6.37492454463026e-14
6.28936540428749e-14
6.20371276400996e-14
6.11831400109411e-14
6.03314978631283e-14
5.94821206704757e-14
5.86349788891164e-14
5.77900745798566e-14
5.69473948649126e-14
5.61069074845016e-14
5.52685912095373e-14
5.44324476051176e-14
5.3598479435076e-14
5.2766672646854e-14
5.19370093220659e-14
5.11094904259849e-14
5.02841289313317e-14
4.94609218292624e-14
4.86398529771326e-14
4.78209231624873e-14
4.70041512334319e-14
4.61895452048279e-14
4.53770960421497e-14
4.45668040931892e-14
4.37586913324754e-14
4.29527798607354e-14
4.21490734735844e-14
4.13475738523785e-14
4.05483082633592e-14
3.97513197567792e-14
3.89566279763699e-14
3.81642326477077e-14
3.73741719254104e-14
3.65865322899946e-14
3.58013704104376e-14
3.50186956941014e-14
3.42385632065396e-14
3.3461110032511e-14
3.26864618584093e-14
3.19146734237572e-14
3.11458237946208e-14
3.03801252144525e-14
2.96178409547675e-14
2.88591177186587e-14
2.81040483717485e-14
2.73529442491434e-14
2.66063192488579e-14
2.58644936942633e-14
2.51275615505659e-14
2.43959734065533e-14
2.36706752220581e-14
2.29523188868992e-14
2.22410568659576e-14
2.15375119796677e-14
2.08431889154705e-14
2.01597979761676e-14
1.94892222614329e-14
1.88352385666652e-14
1.8205588539286e-14
1.76098187411935e-14
1.70539734805842e-14
1.65417288069209e-14
1.60793625748152e-14
1.5671955754025e-14
1.53171768220874e-14
1.50108930916297e-14
1.47541357665453e-14
1.45470481850665e-14
1.43827228343786e-14
1.42532850466873e-14
1.41542002943107e-14
1.40787688483954e-14
1.40170110362675e-14
1.39597912417317e-14
1.38980871178596e-14
1.3822553558679e-14
1.37256049623367e-14
1.35989127750945e-14
1.34323140202559e-14
1.32197369256609e-14
1.2958186709577e-14
1.26412736587748e-14
1.22637928805131e-14
1.1826829015174e-14
1.13313123264819e-14
1.08228964351756e-14
1.06240791964175e-14
1.06764498183653e-14
1.06936167939909e-14
1.06825237648517e-14
1.06513352768985e-14
1.06065054110159e-14
1.05523306418494e-14
1.04923032541937e-14
1.04291807742661e-14
1.03648950079192e-14
1.03010860919737e-14
1.02397910487958e-14
1.01852364212842e-14
1.01486862777186e-14
6.5841352557929e-14
6.49375283276841e-14
6.40326997331544e-14
6.31310932160514e-14
6.22324172595763e-14
6.13365867754938e-14
6.04435702390125e-14
5.95533692469955e-14
5.86659703272411e-14
5.77813399203108e-14
5.68994556730757e-14
5.60203188179549e-14
5.51439320413389e-14
5.42702807480014e-14
5.33993462318892e-14
5.25311291768236e-14
5.16656427839106e-14
5.08028839231283e-14
4.99428358390887e-14
4.90854990689417e-14
4.82308928396049e-14
4.73790253824523e-14
4.65298873199304e-14
4.5683478785003e-14
4.4839822192083e-14
4.39989401924284e-14
4.31608366251031e-14
4.23255130323898e-14
4.14929971544195e-14
4.06633330523502e-14
3.98365408443823e-14
3.90126200478951e-14
3.81916093957638e-14
3.737359727545e-14
3.6558641698279e-14
3.57467520716149e-14
3.49379841881543e-14
3.41324778319606e-14
3.33303613744988e-14
3.25316904224627e-14
3.17365449077719e-14
3.0945140728666e-14
3.01577461601605e-14
2.93745102942423e-14
2.85955264039943e-14
2.78211101829516e-14
2.70517841737188e-14
2.62878734854588e-14
2.55294711371967e-14
2.4777032224464e-14
2.4031516656388e-14
2.3293584944624e-14
2.25633872272582e-14
2.18415494659295e-14
2.1129593572478e-14
2.04292496227392e-14
1.97424180725848e-14
1.90729129143191e-14
1.84285669005653e-14
1.78190400208916e-14
1.72504263190836e-14
1.67263913122136e-14
1.62532181215233e-14
1.58359846964432e-14
1.54722574572015e-14
1.51577374798014e-14
1.48933335305393e-14
1.46790942803998e-14
1.45079502080469e-14
1.43718143674182e-14
1.42659744819211e-14
1.41835779833026e-14
1.41144763634193e-14
1.40493724340076e-14
1.39791119805089e-14
1.38942402685589e-14
1.37871078321999e-14
1.36493754079683e-14
1.3470877533907e-14
1.32455454859445e-14
1.29704314143223e-14
1.26392296085655e-14
1.22467852657762e-14
1.17942426997928e-14
1.12829887452913e-14
1.07608269556304e-14
1.05569497677605e-14
1.06060707048588e-14
1.06222639958118e-14
1.06115260224094e-14
1.05813719955234e-14
1.05379507246904e-14
1.04854110281359e-14
1.04271439430742e-14
1.03658310004103e-14
1.03033578114225e-14
1.02413277917014e-14
1.01816834922181e-14
1.01282587665625e-14
1.00918470065299e-14
6.79374061304416e-14
6.69648074056317e-14
6.60115863773151e-14
6.50621370190244e-14
6.41162064537557e-14
6.31737023687908e-14
6.22345913540965e-14
6.12988743237152e-14
6.03665381355366e-14
5.94375477862978e-14
5.85118789829382e-14
5.75895329405218e-14
5.66705128258295e-14
5.57548035591599e-14
5.48423847741132e-14
5.39332570812507e-14
5.30274343751281e-14
5.21249137284434e-14
5.12256772354125e-14
5.0329724994786e-14
4.94370768456683e-14
4.85477411899643e-14
4.76617088841627e-14
4.67789798845836e-14
4.58995754580668e-14
4.50235191891769e-14
4.41508160438887e-14
4.32814669160035e-14
4.24155000662295e-14
4.15529601576871e-14
4.06938681906232e-14
3.98382235390351e-14
3.89860649149292e-14
3.81374819121992e-14
3.72925348124545e-14
3.64512331681722e-14
3.56136322591079e-14
3.47798745291575e-14
3.39500910036894e-14
3.31243384764125e-14
3.230269713445e-14
3.14853851331904e-14
3.06726755495689e-14
2.98647211790468e-14
2.9061615871133e-14
2.82636757590657e-14
2.74714307915382e-14
2.66852146823031e-14
2.5905119647656e-14
2.51315998166743e-14
2.436562621042e-14
2.36078728928291e-14
2.28584897013292e-14
2.21180978418701e-14
2.13882309680921e-14
2.06706379218336e-14
1.99672302037805e-14
1.92818370366022e-14
1.86223470683499e-14
1.79985291727607e-14
1.74165515202518e-14
1.6880064366485e-14
1.63953352588943e-14
1.59674568960592e-14
1.55939286038902e-14
1.52702812878889e-14
1.49972872182483e-14
1.47749261171238e-14
1.45960021026748e-14
1.44522295578768e-14
1.43387382877129e-14
1.42485644575879e-14
1.41714281586229e-14
1.40979074288656e-14
1.40187634438212e-14
1.39244730590328e-14
1.38073602032247e-14
1.36591197274483e-14
1.34696185354752e-14
1.32328105146019e-14
1.29458327212566e-14
1.26024904884501e-14
1.21976856848111e-14
1.17327210810456e-14
1.12103806020957e-14
1.06830269014845e-14
1.04757858056977e-14
1.05175912317614e-14
1.05325384020556e-14
1.05218694117567e-14
1.04923022672186e-14
1.04497511612002e-14
1.03982548674978e-14
1.03411324214089e-14
1.02810102962409e-14
1.0219733967843e-14
1.01588609835229e-14
1.01001935986885e-14
1.00467646127991e-14
1.00034269326346e-14
)
;


// ************************************************************************* //
