/*--------------------------------*- C++ -*----------------------------------*\
  =========                 |
  \\      /  F ield         | OpenFOAM: The Open Source CFD Toolbox
   \\    /   O peration     | Website:  https://openfoam.org
    \\  /    A nd           | Version:  8
     \\/     M anipulation  |
\*---------------------------------------------------------------------------*/
FoamFile
{
    version     2.0;
    format      ascii;
    class       surfaceVectorField;
    location    "0.0760000";
    object      Uf_0;
}
// * * * * * * * * * * * * * * * * * * * * * * * * * * * * * * * * * * * * * //

dimensions      [0 1 -1 0 0 0 0];

internalField   nonuniform List<vector> 
1691
(
(0.708723969704637 0.000291461572629231 4.72990613043061e-18)
(0.532070399418229 0.000993361284694167 2.99154724978959e-18)
(0.708819308069589 0.00019098904882749 1.12186145800367e-18)
(0.533148766204112 0.00101650230339307 5.31804119663564e-18)
(0.708906872471708 0.000184090891555228 -4.42484992955121e-18)
(0.533135913290793 0.00103643462226188 -5.65572419161955e-18)
(0.708861228076991 0.00019998757459399 -2.70055988745002e-18)
(0.533161378660665 0.00110890546546429 -1.08966578439326e-17)
(0.708745928557468 0.000206877100188844 4.98529710774837e-18)
(0.53294903724172 0.00114839576229304 1.5573679055194e-18)
(0.708599468489141 0.000211815867799428 -6.99215622759301e-18)
(0.532663228169071 0.00116929399055239 1.86582656856759e-17)
(0.708443000126145 0.000215700605031279 -1.27070915568554e-17)
(0.532344980802142 0.0011807447061007 -1.65421911469124e-17)
(0.708283633178243 0.000219181095803181 5.10889558210914e-19)
(0.532016685271713 0.00118971433844092 -1.81326506682436e-18)
(0.708120448379234 0.00022210294712544 -3.11123427466032e-18)
(0.531682235784527 0.00119697331757458 1.00159239731343e-17)
(0.707953579860713 0.000224715000464646 -3.80630484770572e-18)
(0.531340906464621 0.00120364918443124 -2.13169908313834e-17)
(0.707783677933604 0.000227423181012135 -1.0920884273606e-17)
(0.530993011743062 0.00121005687614644 7.81895630343445e-18)
(0.707611551093887 0.000230099267348445 -2.67643058953887e-17)
(0.530639182444834 0.00121720642957968 -4.90599689073317e-17)
(0.707434978446287 0.000232481748786424 -2.01059431251962e-17)
(0.530278258617626 0.00122363900302994 -5.9841313969714e-17)
(0.707253577296846 0.000234793836711796 -2.29070212939091e-17)
(0.529908713557848 0.00122998954193922 -1.66628583167643e-17)
(0.707067715098932 0.000237245811958592 -3.99264676772824e-17)
(0.529530305604856 0.0012363580789458 -7.24502210077244e-17)
(0.7068782468596 0.000239696305198321 -1.18471121789461e-18)
(0.52914378271246 0.00124329245304734 -3.33914155314201e-17)
(0.706683586624862 0.00024197273165936 1.70707001657981e-17)
(0.528748517973188 0.0012498035698512 3.71881990935242e-17)
(0.70648299244633 0.000244253636485399 -3.35690776973348e-18)
(0.528342969598126 0.00125633120742413 -2.07913401334161e-17)
(0.706276429217221 0.000246708949214075 8.92543585753866e-18)
(0.527926675170806 0.00126301289447081 9.97051407032211e-18)
(0.706064997017722 0.000249083715767999 9.30682267726513e-18)
(0.527499936881816 0.00127025300998937 -1.28079495351884e-17)
(0.705848583821791 0.000251113600913507 2.12413801338069e-17)
(0.527062944741954 0.00127688630431745 -1.5595244955347e-17)
(0.705627011534278 0.000253190184973407 2.08183044180848e-17)
(0.526615174543582 0.00128326670774916 6.55802577160027e-17)
(0.705399265362108 0.000255828470849521 1.10807586418854e-17)
(0.526156082785989 0.00129024486003666 4.11790378790554e-18)
(0.705165168083883 0.000258672272238411 -1.54110011140579e-17)
(0.525684594282015 0.00129858664870376 -6.12600113788992e-18)
(0.704924468237296 0.000261172755928952 -7.78664645011246e-18)
(0.525200216736955 0.0013064717749717 -6.97907160261382e-17)
(0.704677257894137 0.000263679167959216 3.88999305888794e-17)
(0.524702935633877 0.00131402551503896 7.56907206412598e-17)
(0.704422927543298 0.000266752664080651 4.52877735672875e-17)
(0.524192000297513 0.00132219840753962 3.59686438164743e-17)
(0.704162026636315 0.000270171944395654 1.96638496040812e-17)
(0.523666953434539 0.00133181257778061 5.30291926385402e-17)
(0.703894586751881 0.000273430201675378 -4.51843779658096e-17)
(0.523127891986923 0.0013414181331948 -6.68514894853524e-17)
(0.703619893522159 0.000276778060297435 -6.93438757644462e-17)
(0.522574387463173 0.00135087327732792 -1.21301425558701e-16)
(0.703337152492813 0.000280873466476688 -3.52985780730514e-17)
(0.522005023218794 0.00136111910846204 -6.83680018736116e-17)
(0.703046788728874 0.000285799149382743 -3.22049981132568e-17)
(0.521419663506957 0.0013733166578111 -2.2603445575622e-17)
(0.702749357619909 0.00029079786070694 -8.84526718449515e-18)
(0.52081829680571 0.00138664564868998 -2.68642973925131e-17)
(0.702444712926119 0.000295767497128361 2.66164325656507e-18)
(0.520200850101683 0.00139954047071695 7.49729748091507e-17)
(0.702132847919199 0.000301750754849945 -4.62654030784456e-17)
(0.519567021037738 0.00141326032597994 -5.81641501717307e-17)
(0.701814182943601 0.000309386171176406 -6.62008977419172e-17)
(0.518916865871867 0.00142988015894197 -5.96562704026121e-17)
(0.701489959346777 0.000317577321215795 -6.74375420693658e-17)
(0.518250786361779 0.00144948030895371 -5.31268988829222e-17)
(0.701158920298123 0.000325893196020642 -3.06200261321911e-17)
(0.517568754036547 0.00146851290939557 -5.41524225010025e-17)
(0.700820586406213 0.000335905032965575 -9.17272912220593e-18)
(0.516870155302644 0.00148915145457032 1.4163648507662e-17)
(0.700477116851614 0.000348881124515119 1.98105592763086e-17)
(0.516155271286757 0.00151429567091336 -6.48031311474653e-17)
(0.700133027947369 0.00036314692835564 4.1994130112383e-17)
(0.515428209924697 0.00154530271675106 5.22030300915441e-17)
(0.699784909802546 0.000377631287547701 -2.66081385095446e-17)
(0.514689918972104 0.00157545961987697 4.11427419826996e-17)
(0.699433872795522 0.000394914626416275 -4.89107654014463e-17)
(0.513938194416074 0.0016080381148922 -7.81243142857552e-17)
(0.699084141994857 0.000418104806526323 -4.00835479515052e-17)
(0.513179261039592 0.00164814523837826 -4.52536462200703e-17)
(0.69874213726947 0.000443996337975539 1.22462842132113e-17)
(0.51241810644844 0.00170091985372351 -4.54607079531786e-17)
(0.698404712688965 0.000469853058542531 1.95890764304692e-17)
(0.511656673997112 0.00175096641101069 5.33427074221075e-17)
(0.698076297527689 0.000500549812770312 -7.31194747455712e-17)
(0.510898896435929 0.00180483024279996 -7.97079094744915e-17)
(0.697761511353315 0.00054221474253364 -8.21316589010732e-17)
(0.510154381248819 0.00187179558704002 -2.06613216493566e-16)
(0.697473634931919 0.000588980424585938 -6.26738114836016e-17)
(0.509432458171213 0.00196258708789113 -1.1567955755852e-16)
(0.697210469478795 0.000635218656840116 -5.96657741404758e-17)
(0.508741439673411 0.00204775319797116 -1.32743934630839e-16)
(0.696982480443309 0.000688925795423207 -5.61462871429504e-17)
(0.508093057246229 0.00213846280492632 -1.03247290010964e-16)
(0.696796478337616 0.00076238583866058 1.23834519171701e-18)
(0.507508540616321 0.00224957442023354 -1.22295034536542e-16)
(0.696677084145342 0.000845486712308708 2.73869059799003e-17)
(0.507005310289399 0.00240577826397888 8.36836310829724e-17)
(0.696624729010303 0.000925931294705492 -2.20009239785466e-17)
(0.506601129438383 0.0025503221826818 3.57819868658134e-17)
(0.696667479550528 0.00101637022986814 -1.97951520589737e-17)
(0.506328306754043 0.00270010458294012 -2.61654145687998e-17)
(0.69682078001688 0.00114417579240665 3.99642486541212e-17)
(0.506238297770837 0.00287997878991564 3.37312272810709e-17)
(0.697150696729338 0.00129938768882336 -1.48333625565396e-17)
(0.506377687770217 0.00315252988648582 1.17308087437475e-16)
(0.697728840603942 0.00146716971083469 -4.43106710719224e-17)
(0.506827442644458 0.0034264917518341 -1.7546112549698e-16)
(0.69880010643277 0.00168574465015581 -3.18690541595833e-17)
(0.507774747040361 0.00374810505745567 4.45933125421657e-17)
(0.700623833683818 0.00208855700662229 -2.60667237241199e-17)
(0.509648163163386 0.00420666888109796 -1.24420966342541e-16)
(0.703529481764801 0.00261901143632175 3.66438650686196e-17)
(0.512811723541598 0.00512338888741206 -9.62172782898989e-18)
(0.707499105399274 0.0031318628876696 4.01089712418901e-17)
(0.517447928383604 0.00600331456122072 8.33150141329587e-17)
(0.712629820461846 0.00367908746345824 1.85519695162224e-17)
(0.523860811758509 0.00688039270068299 7.79571128091846e-17)
(0.718849722660665 0.00436038671797591 -6.52377877058639e-17)
(0.532317043831894 0.00787187055046493 2.43655967948493e-17)
(0.726231739238487 0.00498028359833693 -5.14718337940855e-17)
(0.542689922677727 0.00913315495221612 -1.74923333152967e-16)
(0.73474779002974 0.00538312148483992 1.75131392511383e-18)
(0.555022973315503 0.00990153796625392 5.18509213720968e-17)
(0.744518457336458 0.00572957337591654 -5.04017028024061e-17)
(0.569706204964382 0.0104553669213064 -4.11652509231751e-17)
(0.755427567683363 0.00605952321988839 -6.0241508453418e-17)
(0.586565308546744 0.0109788686665381 -1.55307786773586e-16)
(0.767456692200289 0.00621316651659806 -1.61722219056709e-17)
(0.605351159928952 0.0114072403859009 -1.16906515355296e-17)
(0.780500241223088 0.00614045724190276 5.72486085933748e-17)
(0.626007403099435 0.0113194851381399 7.85942720730233e-17)
(0.794445872345374 0.00597312484868687 9.61059010491823e-17)
(0.648510539137734 0.0109876726887248 2.10095039681622e-16)
(0.809115588161233 0.00568426502847835 8.0480034014845e-17)
(0.672362243826906 0.0105182107650063 1.73634018518236e-16)
(0.824374818635331 0.00523467531108295 1.10800175999277e-17)
(0.697299864214407 0.00974641584187854 1.28440348006857e-16)
(0.840093225606322 0.00468640799192067 -2.30060077127099e-17)
(0.723213074346103 0.0087315421107259 -1.03474402487093e-16)
(0.856133606833814 0.00406224702055259 7.82476732175384e-18)
(0.749706717146598 0.0076041063487957 1.12129500718945e-17)
(0.872425728039369 0.00337629312832329 3.7283495442973e-17)
(0.776665081744595 0.00631968392499294 3.56694690715636e-17)
(0.88887872925252 0.00268200276258068 1.82830782727958e-17)
(0.803861069805117 0.00498420200069912 1.27006524192333e-16)
(0.905520233702365 0.00200638332028293 -6.68462533279123e-17)
(0.831454346017696 0.00366945105878473 -5.42726533613682e-17)
(0.922261620072945 0.00133316589980814 -1.88559762962741e-17)
(0.858860660265839 0.00239092721554086 -2.16856079421846e-16)
(0.93931821630428 0.000730355790510892 9.02485127358242e-17)
(0.887086195082868 0.00108765088777792 1.34971569869894e-16)
(0.956500062846322 0.000193467670144252 4.48933620524209e-17)
(0.914770363349158 4.34607501666169e-05 9.14999422723847e-17)
(0.974548994288926 -0.000215353302343476 7.73821210247048e-18)
(0.944608900951985 -0.000986953886470601 -4.76487617210786e-17)
(0.992608580852327 -0.000557408371253907 -1.30186518939064e-17)
(0.972738093190512 -0.00168419840658837 -4.05355026721938e-18)
(1.01262102269112 -0.00072441073002536 -1.00687202487659e-17)
(1.00653617171406 -0.00244247216806295 -6.49724785086111e-17)
(1.03217557250081 -0.000909401152701593 3.0638988467109e-18)
(1.03488277420301 -0.00261455649345134 2.33919194618942e-17)
(1.053756895099 -0.000460487944516706 -7.09200730171974e-18)
(1.07742773126234 -0.0029809923701262 -7.14461238990826e-17)
(1.0535778893462 -0.000103982317034104 1.69895258769684e-17)
(1.09337264132657 -0.000470463690342214 -1.38667597868353e-17)
(1.0567295977078 -1.62276860275694e-05 1.40702135820761e-17)
(1.08706963217379 -0.000487909880896274 2.40253976596552e-17)
(1.05752370062847 0.000123060002670523 -4.08427316987781e-18)
(1.09342457557324 -7.17678397816705e-05 -9.92623265967349e-18)
(1.05898266872896 0.000225470376621668 3.52175218417286e-18)
(1.09126328193195 6.96640640734522e-05 -1.72820665875466e-17)
(1.05936386121378 0.000269058524230155 7.92816711114869e-18)
(1.09333830597839 0.000274150431399275 5.15032613518276e-17)
(1.05987060868721 0.000298809116315253 -1.85451108168348e-17)
(1.09234655843738 0.000322884929817477 -2.55552094724722e-17)
(1.05986590924551 0.000325078413419601 -8.42091134575518e-18)
(1.09279030704375 0.000419641134310457 -4.469973928317e-17)
(1.05980512569452 0.000327743886362335 -9.51519601083809e-19)
(1.0919814352388 0.000449851918890519 -1.46747441180887e-18)
(1.05956994631523 0.000323362769164519 3.46948854603871e-18)
(1.09167249584734 0.000472961568515402 -1.50122932659662e-17)
(1.05931756358156 0.000312389072734853 1.32369842355595e-17)
(1.0909308828824 0.000474477782186457 1.52333738089919e-17)
(1.05900063124048 0.000295124247489756 1.82291610524305e-18)
(1.09038461594039 0.000466822267345544 1.70016621394739e-17)
(1.05862592705785 0.000289202380481181 -3.36520928648138e-18)
(1.08963234068803 0.000446761336975874 -8.42535145439562e-18)
(1.05802239580768 0.000306715245025341 3.48909144744672e-19)
(1.08896655534755 0.000426944103627326 -2.66254612372362e-18)
(1.08767100326019 0.000304532480168672 -2.16325569765968e-18)
(0.355071596596889 0.00200109500519184 3.57900673676108e-18)
(0.214606641255939 0.00312312073452435 2.23463956692444e-18)
(0.35563751289649 0.00208940103715325 -1.49458443376843e-18)
(0.216912461018023 0.00336233307172628 8.14409663900617e-18)
(0.35580344824524 0.0021932541758733 -1.21744813387483e-17)
(0.216984850195242 0.00358481208377026 -5.08027322111458e-18)
(0.355628603908574 0.00229954498971084 -6.63027860609541e-18)
(0.216952723449382 0.00382157685630608 -1.13620792786542e-17)
(0.355264300237477 0.00235810334386255 1.53141206854006e-17)
(0.216528792839604 0.00395339455574327 5.31078076371781e-18)
(0.354819264371489 0.00238756483981697 9.10399666136535e-18)
(0.21598049952042 0.00401561651487913 2.66209330993579e-17)
(0.354343680224085 0.00240469898152479 -5.58411259934864e-18)
(0.215377052101422 0.00404584479333014 2.54937121226189e-18)
(0.353855708851709 0.00241760798437374 7.75014282026404e-18)
(0.21475372370063 0.00406540176129339 1.93051842945225e-18)
(0.353358127675342 0.0024287897312173 -8.2832656994342e-18)
(0.214118421378468 0.00408117659663333 2.81042635030274e-17)
(0.352850633978163 0.00243944743573116 -9.65020645361931e-18)
(0.213471058380797 0.00409583140554374 -1.97392746107247e-17)
(0.352333161489566 0.00245040294035483 -3.0536022032943e-17)
(0.212811144665089 0.00411041174519633 1.78775121342578e-19)
(0.351805891968115 0.00246141046227249 -8.23975578432321e-17)
(0.212139045353166 0.00412576282597887 -6.96011673598475e-17)
(0.351266908103686 0.00247200571531196 -5.64472362212337e-17)
(0.211453655676863 0.00414062934397969 -9.58548823484381e-17)
(0.350715199880575 0.00248258637722815 -6.65213376676991e-17)
(0.210753004516136 0.00415535847905435 -1.32168131454452e-17)
(0.350150728142886 0.00249353812613207 -6.59258248526208e-17)
(0.210036479746682 0.00417032209782599 -1.58606555234116e-16)
(0.349573695418996 0.00250461389006741 5.18276107523757e-18)
(0.20930448609781 0.00418591983007796 -9.14432597255726e-18)
(0.348982607359534 0.00251550922385763 -8.91852009685285e-19)
(0.208556216449831 0.00420130140783061 4.27484043416484e-17)
(0.348376325003414 0.00252655377951009 -7.40122257821568e-18)
(0.207789844205844 0.0042167472913717 -5.46726448031454e-17)
(0.347754553100199 0.00253805932353642 -1.19033631443668e-17)
(0.207004538566669 0.00423261364111757 1.48828282572315e-17)
(0.347117620722922 0.00254957116943733 -3.78995716814821e-17)
(0.206200440787003 0.00424914785368595 -5.20415623638461e-17)
(0.346464585289322 0.00256063526579354 2.89903702592864e-17)
(0.205377101877633 0.00426519618446857 2.92505853211405e-18)
(0.345794329681803 0.00257199546845361 4.88182798421441e-17)
(0.204532893427838 0.00428105176165025 1.33723668355393e-16)
(0.345106123488817 0.00258462041627941 -1.32074630644151e-17)
(0.20366672839262 0.0042979776392885 -1.37449858324747e-17)
(0.344399879418533 0.00259787816683961 -6.08512204748356e-17)
(0.202778371391345 0.00431667834587459 -6.15998097895407e-17)
(0.343674409959438 0.00261076381925194 1.41809644561823e-17)
(0.201867132733608 0.00433518421010048 -1.26559773188956e-16)
(0.342928523182232 0.00262392860509403 7.27655787463307e-17)
(0.200931315469231 0.00435344612057067 1.21086748403044e-16)
(0.342161596669278 0.00263845689623885 4.37549127512947e-17)
(0.19996954090173 0.00437284845642368 3.45816019587483e-17)
(0.341373875765425 0.00265397088895481 -3.40325621794811e-17)
(0.198981793656635 0.00439423895490995 7.27532858724325e-17)
(0.340564413171374 0.00266952503215645 -1.43472588823535e-16)
(0.197967795926269 0.00441601573463776 -9.64955834855935e-17)
(0.339731534709984 0.00268562305659934 -1.20334258622403e-16)
(0.196925686043819 0.00443790681933582 -1.59911104997631e-16)
(0.338874272605239 0.0027035871266641 -5.55961774723671e-17)
(0.195853409113167 0.00446125417970754 -8.64411410316354e-17)
(0.337993022033425 0.00272361179840948 -1.72270692151188e-17)
(0.194750966546531 0.00448749073707252 -4.08227637499232e-17)
(0.3370876140371 0.0027442430663366 5.7503349861124e-17)
(0.193618777756432 0.00451555488677655 1.26482594515326e-17)
(0.336156463354193 0.00276532172105983 1.37381416738096e-17)
(0.192455379013333 0.00454357887019328 1.02364457712525e-16)
(0.33519882333931 0.00278897165467281 -7.16402392522009e-17)
(0.19125859194974 0.00457316405468579 -7.40355952220454e-17)
(0.334215752511852 0.00281651059504254 -4.64982988261941e-17)
(0.190028624331915 0.00460721019572249 -4.74022297130611e-17)
(0.333208270436583 0.00284580735748694 -3.97605934328022e-17)
(0.188767620720337 0.00464547214212914 -2.63492179809549e-17)
(0.332174137995928 0.00287605579331349 -9.05696964836177e-18)
(0.187474516683236 0.00468392424403152 -3.48371137062411e-17)
(0.331112730047214 0.00291051785486383 -4.18550632735426e-17)
(0.186146349105948 0.00472504781023551 4.34276522171708e-17)
(0.330027527990165 0.00295182203281326 -3.21226503296615e-17)
(0.184784282157248 0.00477329069702229 -1.00908393223368e-16)
(0.328923100716529 0.00299662302699733 5.13359812252659e-17)
(0.183395417305585 0.00482943342760295 3.60030338960367e-17)
(0.327796620788803 0.00304281684073187 -1.07967503302565e-17)
(0.18198050101808 0.00488601480050135 8.71137612455912e-17)
(0.326649194968144 0.00309588207148945 -7.44066588338694e-17)
(0.180534909446383 0.00494631817992495 -9.1135484062696e-17)
(0.325488869167564 0.0031622423945669 -5.06608283694131e-17)
(0.179064507234686 0.00501881676911506 -8.74860558981363e-17)
(0.324326185589634 0.00323536001341705 -3.9944266651585e-18)
(0.177584484670376 0.00510790370664797 -2.48748503790664e-17)
(0.32315948207139 0.00330966603709851 -4.67008982760626e-17)
(0.176099303831086 0.00519602168593165 7.23595963229184e-18)
(0.321994390179187 0.00339557222008654 -2.14130055500017e-16)
(0.174606208705211 0.00528934046698297 -1.56421309338193e-16)
(0.320846776445064 0.00350582706986019 -2.40165482205143e-16)
(0.173117097910006 0.00540413430444808 -2.86200986385644e-16)
(0.319740741089303 0.00362826028013338 -1.86143863914762e-16)
(0.171664698391872 0.00554967341384875 -2.19806705687689e-16)
(0.318678969277168 0.0037510881819275 -1.76480946492024e-16)
(0.170264333900267 0.00569198465189884 -2.66145772970965e-16)
(0.317677030476958 0.00389163231558665 -1.69772178767663e-16)
(0.168917322919391 0.00584058639886665 -1.84226704933391e-16)
(0.316766531822549 0.00407550758462792 -3.8939647180744e-17)
(0.167648617860448 0.00602378219193784 -2.37776434534003e-16)
(0.315999300055954 0.00428142656094671 9.19975792226501e-17)
(0.166526865705843 0.00626433651693154 8.61573524353778e-17)
(0.315388821918254 0.00448316456366958 3.14290317179172e-17)
(0.165590487886294 0.00649615617040228 8.99888100891898e-17)
(0.314974699659885 0.00470883099716478 2.7792071681012e-17)
(0.164853676788284 0.00673036552919205 -7.15232114024351e-18)
(0.314825608166894 0.00501623120311371 1.11700767860334e-16)
(0.164365981732903 0.00701874656291082 5.73784749191083e-17)
(0.31508045810369 0.00538593641606381 -4.49858036512695e-17)
(0.164283029861726 0.0074259680630477 1.94451361426626e-16)
(0.315858434246702 0.00578713055154164 -8.5446620691741e-17)
(0.16473819116135 0.00785255118097966 -3.06995130938735e-16)
(0.317456443687812 0.00631396936748512 -4.89784269005184e-17)
(0.165905887366308 0.00833282129062818 9.75954015976741e-17)
(0.320339078225846 0.00724345283278159 -1.07641620321942e-16)
(0.168133397398032 0.00906742369453445 -2.0514652125782e-16)
(0.325191659325616 0.00845193276944017 3.75416375740604e-17)
(0.172309446244868 0.0103962280733541 -1.04217562206774e-16)
(0.332253453341397 0.00962637580788476 1.21455282360192e-16)
(0.179041587141761 0.0117269007843225 2.02343136258557e-16)
(0.341831872982693 0.0108716434327955 8.37886529027915e-17)
(0.188524507034344 0.0130116861053776 1.0893416545008e-16)
(0.354231588881814 0.0123755449773037 -8.63077298908015e-17)
(0.201146713311472 0.0145012984422223 8.32754084866385e-17)
(0.36984291510361 0.0137114234699501 -7.0806333349736e-17)
(0.217639815134203 0.0162596569056696 -2.78689883937537e-16)
(0.388507778801358 0.0145518691179396 8.61477737485419e-18)
(0.238084067810258 0.0173464281474232 1.09394331693792e-16)
(0.410254036041613 0.015224283532406 -1.46856598259806e-16)
(0.262170305060814 0.0180456833672492 -3.5712471460994e-18)
(0.435069511791594 0.0158064956353434 -1.06562366077348e-16)
(0.289980480757088 0.0186863616080856 -3.14061868133913e-16)
(0.462884380403696 0.0159556657989693 8.35759369721954e-17)
(0.321673948486094 0.0190929818889953 4.80124908601586e-17)
(0.493253792710646 0.0155776931675498 2.32129028278498e-16)
(0.356820229893995 0.018749997921742 2.38122949916824e-16)
(0.525831022265675 0.0149407366894024 2.87919615836603e-16)
(0.394778470510671 0.0179983278748549 4.21413194414123e-16)
(0.560271733841961 0.0139977436052807 2.2166589314831e-16)
(0.435241164887786 0.0169949527176173 2.77118731419199e-16)
(0.596155374373138 0.0126780953326118 1.36115089776529e-17)
(0.477735259219786 0.0155299015837388 1.85679055992977e-16)
(0.633075512729872 0.0111168415066205 -6.90716921164545e-17)
(0.521721027221313 0.0136922801231602 -1.40870597993168e-16)
(0.670702142967698 0.00937164270917801 3.89977065467738e-17)
(0.566654366815201 0.0116597109568523 2.40642054318388e-17)
(0.708769823493583 0.00748759395869542 1.25177168084681e-16)
(0.612329623395097 0.0093976725304929 -1.4061759251758e-17)
(0.747101430910019 0.00558424907518181 5.39897859772938e-17)
(0.658155498066593 0.00706452504580108 1.77304408880313e-16)
(0.785671784999863 0.00371915700521174 -2.03628241791281e-16)
(0.704526923365474 0.00475418084104851 -1.0699696662762e-16)
(0.824408846876554 0.00186594454070386 -6.18309091375329e-17)
(0.750567685424534 0.00249687100905721 -3.54154460652589e-16)
(0.863484607946953 0.000179213033319424 1.35668285085953e-16)
(0.797665099184368 0.000225748945260476 2.69031688296343e-16)
(0.903055518936389 -0.00134873641542141 -1.06112782520939e-18)
(0.843587160808116 -0.00166228702897196 6.97275583504253e-17)
(0.943832597635617 -0.00261179077488191 -5.83728681030744e-17)
(0.893081846616666 -0.00354587485628264 -9.48041849118564e-17)
(0.985674445991252 -0.00371928234408676 -5.5760269086975e-17)
(0.939440321083052 -0.00490137102788467 -8.24757282316091e-17)
(1.03023989394459 -0.00443682039772573 -3.05966000586845e-17)
(0.995217146804357 -0.00641658801969296 -6.16496248510514e-17)
(1.07661358010133 -0.00492263185642556 -5.08657132401288e-17)
(1.04162547007069 -0.00694309721617677 2.21589438124929e-17)
(1.1219653238856 -0.00274766066088497 -7.68123422890118e-17)
(1.11176108164929 -0.00747234122451783 -1.41110775093047e-16)
(1.12247548822401 -0.000609383188243307 -6.43099909012304e-18)
(1.13732549321988 -0.000713124337295951 -5.41843123525672e-17)
(1.1246914341857 -0.00032651781119812 2.30969285953032e-19)
(1.12526900251876 -0.000758370168677415 2.9647919551317e-17)
(1.12499190517016 2.96603633297166e-05 -2.28537666954049e-17)
(1.1344517448858 -0.000100436521203292 -1.86482585369574e-17)
(1.12545970819017 0.000283426978019883 3.04309333365855e-17)
(1.12960670237974 9.0688705289323e-05 -1.34947892882562e-17)
(1.12512957503375 0.000427016771087204 1.78220581830938e-17)
(1.13232862351009 0.000407858132758065 7.81755028511164e-17)
(1.12478915402372 0.000522771920744962 -5.13737281044887e-17)
(1.12997618086978 0.000481056970652501 -3.04380262609742e-17)
(1.12408150497825 0.000605401580816095 -3.73886816052601e-17)
(1.13025902601703 0.000626255990286274 -7.512840351884e-17)
(1.12329689194647 0.000638016399898479 -1.54013170343199e-17)
(1.12864036549361 0.000671122823111419 -1.05166090029308e-18)
(1.12238098738255 0.0006517034026892 -3.14543334411546e-18)
(1.12795110179162 0.00070835575925659 -3.11110400721425e-17)
(1.12144485225072 0.000648161489347384 1.89479740080175e-17)
(1.12656906540916 0.000709596116110921 1.70886467909882e-17)
(1.12047228490323 0.00063110430712967 6.67704862779285e-18)
(1.12557919759101 0.000699378556556213 2.67592815660919e-17)
(1.11947637515431 0.000626318697648061 -7.68200869029191e-18)
(1.12427399540466 0.000670458450779671 -8.02468564814413e-18)
(1.11839663506359 0.000608669011382596 -5.14293884994424e-18)
(1.1232920541679 0.000636476326340921 -1.1162172304318e-17)
(1.12196593511221 0.000423374363870252 -4.45717198873358e-18)
(0.0755601929079778 0.00441226285963139 6.82676491014274e-18)
(-0.0282854385430673 0.00569607885875315 6.0280533531712e-18)
(0.0767899656702363 0.00489654714828343 4.55737656454838e-18)
(-0.02539158338291 0.00608470563417052 1.12146383299307e-17)
(0.0769711118495025 0.00529923814732936 -4.24629412992724e-18)
(-0.0253523939395167 0.00681155456269955 7.38567688482574e-19)
(0.0766331639502745 0.00556847618367582 6.47020482542472e-19)
(-0.0255551121952496 0.00729194065350467 -2.85533037942188e-18)
(0.0760397886179828 0.00570706450046835 1.66702648955562e-17)
(-0.0261926058720791 0.00754360952094204 1.09884174931961e-17)
(0.0753411777937856 0.00577132814528257 2.00598445658973e-17)
(-0.0269628191739522 0.00765618036781115 2.57696870975526e-17)
(0.0746007230281073 0.00580471769396156 1.01293872067373e-17)
(-0.027792551984795 0.00770827581203045 2.88135516102511e-17)
(0.0738411935032557 0.00582765805887881 2.24058738298391e-17)
(-0.0286464533945748 0.00773949897539942 3.3723668883991e-18)
(0.0730672217028459 0.00584735222235564 1.66417322934261e-17)
(-0.0295163645672694 0.00776430990175127 3.43870331757056e-17)
(0.0722785607555722 0.00586637978826445 -9.86465339536351e-18)
(-0.0304020576727437 0.00778761742553688 2.73115689663363e-18)
(0.0714748699958358 0.00588583732279356 -3.90862786610687e-17)
(-0.0313043351617591 0.00781103962055959 -2.27007431033207e-17)
(0.0706559287816238 0.00590552386941648 -8.31243146743374e-17)
(-0.0322231876828511 0.00783533023524503 -5.23116350380675e-17)
(0.0698199673301655 0.00592497787989019 -5.24076968028609e-17)
(-0.0331596891172694 0.00785942503162696 -1.17444716271748e-16)
(0.0689656515070316 0.00594455787406074 -1.0581484606139e-16)
(-0.0341157924729585 0.00788354347908802 -5.54491880726802e-17)
(0.0680926487859274 0.00596465518467782 -1.01591421254316e-16)
(-0.0350923579676082 0.00790807772864292 -2.51594495879888e-16)
(0.0672007360736042 0.0059850453098875 2.86431130460419e-17)
(-0.0360894001131588 0.00793335014926364 -2.58114682732409e-17)
(0.066288409825127 0.00600544628586745 -1.13220668584965e-17)
(-0.0371078629307744 0.00795865530609461 1.89222888838993e-17)
(0.065354280497424 0.00602618501467102 -3.23015072577248e-17)
(-0.0381495713655018 0.00798420824249937 -5.97937287686113e-17)
(0.0643978059116938 0.00604756832828586 -2.54826663835173e-17)
(-0.0392155802168001 0.00801038696189733 2.70923322093029e-17)
(0.0634187607587297 0.0060691365559595 -1.09705243808273e-17)
(-0.040306098569875 0.00803737174677981 -4.07895775260448e-17)
(0.0624156846716625 0.00609046661067249 1.08302662261916e-16)
(-0.0414220311897151 0.00806415528551097 4.3747503775419e-17)
(0.061386921472478 0.00611237214060852 7.08323686894702e-17)
(-0.0425654472695055 0.00809100718841633 1.51747812716732e-16)
(0.0603317704925582 0.00613587160616267 -6.24463124920722e-17)
(-0.0437377093391844 0.00811919262067662 -2.13825720205166e-18)
(0.0592500500138382 0.00616032109246682 -1.27727819268664e-16)
(-0.0449389085308194 0.00814934258633447 -1.14897679686515e-16)
(0.0581400550642292 0.00618469113402881 -1.90522678194005e-17)
(-0.0461699467135303 0.00817966340542195 -1.93538612439707e-16)
(0.056999831754026 0.00620967624732994 8.26821553618543e-17)
(-0.0474332187584598 0.0082100637824509 1.24077495332931e-16)
(0.0558285813105108 0.00623644063163049 6.37615649047195e-17)
(-0.048730447298133 0.00824193076407808 4.67072297971505e-17)
(0.0546262683990021 0.00626460541120905 9.92175476260815e-18)
(-0.0500617246366049 0.00827606479611569 1.16372535431559e-16)
(0.0533913570453759 0.00629321189920203 -1.13030352235839e-16)
(-0.051427705871182 0.00831099222049077 -4.26988490036809e-17)
(0.0521215202337386 0.00632283344768253 -1.25804437018766e-16)
(-0.0528308725898752 0.00834644061364935 -1.63598030748875e-16)
(0.050815577111065 0.00635493600420529 -7.15725672121428e-17)
(-0.0542735307132204 0.00838378142652377 -5.44174748458321e-17)
(0.0494738631434291 0.00638972057434851 -1.07527185287141e-17)
(-0.0557558259311106 0.00842443368528176 -5.8350744699203e-17)
(0.0480957279274577 0.00642566333437423 5.78083090535771e-17)
(-0.057277417364523 0.00846736569728258 -1.15445930442405e-17)
(0.0466786035386971 0.00646265002476772 1.39946424170195e-17)
(-0.0588404448573911 0.00851079082522756 8.72420176316843e-17)
(0.0452211485874462 0.00650307371556363 -4.96395723328121e-17)
(-0.0604478798890652 0.00855631817650192 -5.38681471703233e-17)
(0.0437248414631002 0.00654834290339949 -2.71217575073457e-17)
(-0.0620996185199804 0.00860691887725162 -8.90324846232056e-17)
(0.0421906718737754 0.0065962187529551 -2.14025983961679e-17)
(-0.0637930317143249 0.00866228168685988 -8.54824616062932e-18)
(0.0406156198511829 0.00664592189912185 1.80112325671139e-17)
(-0.0655296045658453 0.00871856531543123 -2.6536442638162e-17)
(0.0389986528706735 0.00670115590196959 -1.60912022378659e-17)