/*--------------------------------*- C++ -*----------------------------------*\
  =========                 |
  \\      /  F ield         | OpenFOAM: The Open Source CFD Toolbox
   \\    /   O peration     | Website:  https://openfoam.org
    \\  /    A nd           | Version:  8
     \\/     M anipulation  |
\*---------------------------------------------------------------------------*/
FoamFile
{
    version     2.0;
    format      ascii;
    class       volScalarField::Internal;
    location    "0.0760000";
    object      V0;
}
// * * * * * * * * * * * * * * * * * * * * * * * * * * * * * * * * * * * * * //

dimensions      [0 3 0 0 0 0 0];

value           nonuniform List<scalar> 
900
(
3.8843914812664e-14
3.83735669676075e-14
3.79033209719949e-14
3.7433214408549e-14
3.69633977006045e-14
3.64937618620616e-14
3.6024363351375e-14
3.55553253498279e-14
3.50865991493339e-14
3.46180538953263e-14
3.41497007352782e-14
3.36816530193067e-14
3.32138947067972e-14
3.27463056643066e-14
3.22789111605779e-14
3.18117930194762e-14
3.1344949776517e-14
3.08782941424282e-14
3.0411826000815e-14
2.99456187543615e-14
2.94796930409898e-14
2.90139724254591e-14
2.85484322391423e-14
2.80831632867115e-14
2.76182011587384e-14
2.71534592286991e-14
2.66889112974102e-14
2.62246477514594e-14
2.57607367678218e-14
2.52970981792085e-14
2.48336813283195e-14
2.43705587956588e-14
2.3907870688044e-14
2.34455655216423e-14
2.29835355721923e-14
2.25218382211418e-14
2.20607398206204e-14
2.16002086912763e-14
2.11400312318122e-14
2.06802663197194e-14
2.02214161797339e-14
1.97634705850376e-14
1.9306040135797e-14
1.88491589506919e-14
1.8393769299582e-14
1.79399141368402e-14
1.74868793321004e-14
1.70346571031118e-14
1.65849080741258e-14
1.61378150690112e-14
1.56921686220151e-14
1.52477121357957e-14
1.48073702440258e-14
1.43717076116202e-14
1.39386208718697e-14
1.35069739612887e-14
1.30816180691633e-14
1.26637489920033e-14
1.22511474322718e-14
1.18368731347495e-14
1.14459693558769e-14
1.10912729587529e-14
1.07546281641605e-14
1.04331196069662e-14
1.015923563382e-14
9.92980618172909e-15
9.71104613185525e-15
9.51561202158285e-15
9.36533902943927e-15
9.24650165274002e-15
9.13388415827394e-15
9.04575022333004e-15
8.97996390731582e-15
8.91744078005031e-15
8.86048446125699e-15
8.80532222548763e-15
8.7350248018149e-15
8.65371465342209e-15
8.57167884199544e-15
8.44993974868063e-15
8.28582672136212e-15
8.12184966886441e-15
7.91889988945445e-15
7.6492693480153e-15
7.35145225382491e-15
7.06420370865463e-15
6.92595689211175e-15
6.92673084598267e-15
6.92704214798292e-15
6.89892674826058e-15
6.8499598886118e-15
6.80439854400351e-15
6.75638694569513e-15
6.70338921957526e-15
6.65065001105034e-15
6.59800101832353e-15
6.54470558314812e-15
6.4917384184912e-15
6.4281991428436e-15
6.32296102959822e-15
3.97929258869278e-14
3.93001596550788e-14
3.8808065502062e-14
3.83165519480875e-14
3.78256331537998e-14
3.7335261660522e-14
3.68454256459017e-14
3.63561263014048e-14
3.58673507112523e-14
3.53790774506108e-14
3.48912999274647e-14
3.44040230898339e-14
3.39172419123188e-14
3.34309433730572e-14
3.29451253020538e-14
3.24597948108839e-14
3.19749509535538e-14
3.14905852469835e-14
3.10066968950358e-14
3.05232942121214e-14
3.00403800913534e-14
2.95579493223109e-14
2.90760032242614e-14
2.85945535954467e-14
2.81136074735001e-14
2.76331622722379e-14
2.71532219769087e-14
2.66738041086758e-14
2.61949231778828e-14
2.57165816318687e-14
2.52387860372217e-14
2.47615619919416e-14
2.42849387558919e-14
2.38089306388786e-14
2.33335508444125e-14
2.28588397254486e-14
2.23848500750445e-14
2.19116129613421e-14
2.14391529591068e-14
2.09675410341306e-14
2.0496875798366e-14
2.00272195055717e-14
1.95586164285413e-14
1.9091192056773e-14
1.86251274478808e-14
1.81605415723482e-14
1.76975111432456e-14
1.72362509681197e-14
1.67770819421813e-14
1.63202219829098e-14
1.58657964772466e-14
1.54141604387902e-14
1.49658682407068e-14
1.4521305952009e-14
1.40806613594181e-14
1.36445399143229e-14
1.32140816741403e-14
1.2790552498934e-14
1.23754341742507e-14
1.19724773693724e-14
1.15873863293386e-14
1.12247346998056e-14
1.08866600684178e-14
1.05759453391279e-14
1.02959591052607e-14
1.0046766905999e-14
9.82589726406117e-15
9.6326542690477e-15
9.46749383318811e-15
9.32744632094578e-15
9.20784736304483e-15
9.10547677290693e-15
9.01674449414531e-15
8.93611954459994e-15
8.85829035076812e-15
8.77784328257128e-15
8.68902258295134e-15
8.58776630499279e-15
8.46956116161242e-15
8.32662599981285e-15
8.15555067032395e-15
7.95692812404449e-15
7.72455981639171e-15
7.45330441320205e-15
7.14683457289559e-15
6.83433512519278e-15
6.70842490333448e-15
6.74073501383665e-15
6.74859755592935e-15
6.73643379098979e-15
6.70908792337517e-15
6.67345065213666e-15
6.63243046837736e-15
6.58746222316111e-15
6.5404648969821e-15
6.49272715620403e-15
6.44510963450206e-15
6.39826379761207e-15
6.3524389810068e-15
6.3164983491844e-15
4.07337538440176e-14
4.02195171503291e-14
3.97059769683527e-14
3.91932922611085e-14
3.86814564677678e-14
3.8170421491092e-14
3.76601762686247e-14
3.71507235983341e-14
3.66420494158395e-14
3.61341299953892e-14
3.56269588198333e-14
3.51205424742615e-14
3.46148753890726e-14
3.41099425488264e-14
3.3605742051037e-14
3.31022823575186e-14
3.25995622619963e-14
3.20975717182111e-14
3.15963098648058e-14
3.10957863091767e-14
3.05960041157848e-14
3.00969565857053e-14
2.95986446179354e-14
2.91010816952737e-14
2.86042753207241e-14
2.81082211276795e-14
2.76129225619589e-14
2.71183990275229e-14
2.66246661684062e-14
2.61317246174406e-14
2.56395796708399e-14
2.51482586284311e-14
2.46577934625727e-14
2.41681970571621e-14
2.3679479754033e-14
2.31916833867724e-14
2.27048663117189e-14
2.22190582033123e-14
2.17342775523988e-14
2.12505969128162e-14
2.07681261796554e-14
2.02869260253567e-14
1.98070283408951e-14
1.93285595373783e-14
1.88517234297053e-14
1.8376637413927e-14
1.79033533620304e-14
1.7432085030044e-14
1.69631963806014e-14
1.64969056277296e-14
1.60332912333552e-14
1.55726973688108e-14
1.51157600003197e-14
1.46628747085794e-14
1.42141377994759e-14
1.37701040688888e-14
1.33320449848647e-14
1.29012369093723e-14
1.24789445709571e-14
1.20686559285482e-14
1.16768610927726e-14
1.13084939074254e-14
1.09649239253251e-14
1.06487961756154e-14
1.03644760536876e-14
1.01118595055734e-14
9.88738993092167e-15
9.6907128338658e-15
9.52273395882002e-15
9.38011118586091e-15
9.25770600072875e-15
9.15239000392659e-15
9.06042703824916e-15
8.97611899332244e-15
8.89395199239708e-15
8.80841555099453e-15
8.71389256235762e-15
8.60589485780684e-15
8.47940409428278e-15
8.32808776501194e-15
8.14829347400187e-15
7.93837000668665e-15
7.69418791456612e-15
7.41257565130583e-15
7.09471232551618e-15
6.77081074716128e-15
6.64293046680188e-15
6.67865166859541e-15
6.68962749255851e-15
6.68138949715167e-15
6.65868842664933e-15
6.62646911512984e-15
6.58807681059895e-15
6.54559680494829e-15
6.50079207985396e-15
6.4550750933109e-15
6.40961942225576e-15
6.36572942698165e-15
6.32606663757321e-15
6.29911805482276e-15
4.16767976736412e-14
4.11410042547642e-14
4.06059548479641e-14
4.00720496059548e-14
3.95392494906308e-14
3.90075061341237e-14
3.84768080357026e-14
3.79471577226466e-14
3.74185405231516e-14
3.68909321112037e-14
3.63643257757146e-14
3.58387280300763e-14
3.53141329746367e-14
3.47905252347678e-14
3.4267902841346e-14
3.37462742746791e-14
3.32256381350472e-14
3.27059841296378e-14
3.21873113689154e-14
3.16696295334104e-14
3.11529415931419e-14
3.06372406768352e-14
3.01225277131592e-14
2.96088163356675e-14
2.90961140232996e-14
2.85844162885106e-14
2.80737266712791e-14
2.75640648329496e-14
2.70554465119305e-14
2.65478722815465e-14
2.60413475712298e-14
2.55359000908289e-14
2.50315621296628e-14
2.45283466470944e-14
2.40262642124037e-14
2.35253573011854e-14
2.30256848539246e-14
2.25272767548311e-14
2.20301518970041e-14
2.15343839283371e-14
2.10400837645742e-14
2.05473124970852e-14
2.00561026738745e-14
1.95665824803156e-14
1.90789574006497e-14
1.85933455009566e-14
1.81097997070185e-14
1.7628536514309e-14
1.71499222593575e-14
1.66741760980367e-14
1.62013780242556e-14
1.57318761656492e-14
1.52663094308998e-14
1.48050744151618e-14
1.43482697003418e-14
1.38964566258687e-14
1.34509132769826e-14
1.30129251586105e-14
1.25837761283895e-14
1.21669907108303e-14
1.17690781545967e-14
1.13949818458665e-14
1.10460859096789e-14
1.07250288266793e-14
1.0436145839792e-14
1.01793129519991e-14
9.95094342172203e-15
9.75061785279052e-15
9.57919885931346e-15
9.43330608083043e-15
9.30773278350769e-15
9.19927655102187e-15
9.10414082758213e-15
9.01655941518702e-15
8.93094223207041e-15
8.84170880578982e-15
8.74317578207711e-15
8.63077964048777e-15
8.49945037101561e-15
8.34287902494621e-15
8.15733719103997e-15
7.94101794849076e-15
7.68991493927091e-15
7.4009829034261e-15
7.07528072046984e-15
6.74409735265042e-15
6.61377928893138e-15
6.6490499620605e-15
6.6605457869251e-15
6.65331161511188e-15
6.63189611740561e-15
6.60093355600829e-15
6.56371471737355e-15
6.52237876669144e-15
6.4786821373582e-15
6.43404931231059e-15
6.38972223863948e-15
6.34717733098865e-15
6.30928050524674e-15
6.28394052066653e-15
4.26217821162112e-14
4.20643664871571e-14
4.15077547949322e-14
4.09525853965379e-14
4.03987779699008e-14
3.98462837557183e-14
3.92950907373878e-14
3.87452012303539e-14
3.81966000199031e-14
3.76492621320479e-14
3.7103180600124e-14
3.65583619050859e-14
3.60147998688199e-14
3.5472478719722e-14
3.49313963773449e-14
3.43915613732188e-14
3.38529721569775e-14
3.33156181623725e-14
3.27794984310008e-14
3.22446227392761e-14
3.17109940046037e-14
3.11786051603452e-14
3.06474571178142e-14
3.01175636846485e-14
2.95889323640627e-14
2.90615585204239e-14
2.85354457294531e-14
2.80106139287636e-14
2.74870790131405e-14
2.69648414760056e-14
2.64439067990444e-14
2.59243030972889e-14
2.54060630623701e-14
2.48891997279445e-14
2.43737237684717e-14
2.38596782657113e-14
2.33471228919872e-14
2.28360877583121e-14
2.23265919293811e-14
2.18187100624021e-14
2.13125543891735e-14
2.08081864750652e-14
2.03056390723617e-14
1.98050419557648e-14
1.93066029045874e-14
1.88104407812956e-14
1.83166086618918e-14
1.78253254173427e-14
1.73369610494796e-14
1.68517359615608e-14
1.63697298995219e-14
1.58912941376765e-14
1.54170732064781e-14
1.49474655070029e-14
1.4482568164744e-14
1.40229463700993e-14
1.35698885473317e-14
1.31246888759784e-14
1.26886379569448e-14
1.22652872844123e-14
1.18611960548485e-14
1.14813353843064e-14
1.11270783252778e-14
1.08010544875991e-14
1.05076045675133e-14
1.02465779062196e-14
1.00143216665591e-14
9.81036012651912e-15
9.6355228902644e-15
9.48637960134598e-15
9.35764673409925e-15
9.24605304121929e-15
9.14774697427707e-15
9.0569040945636e-15
8.96787590248654e-15
8.87503112862932e-15
8.7726406306212e-15
8.65611032135474e-15
8.52035675420947e-15
8.35905616777417e-15
8.16845957840922e-15
7.94674778824455e-15
7.68992040713344e-15
7.39492937728651e-15
7.06286051278226e-15
6.72582185472976e-15
6.59356851851529e-15
6.62794792106388e-15
6.63931217929856e-15
6.63235688220979e-15
6.61147320375828e-15
6.58117716049592e-15
6.54469237432321e-15
6.504128194241e-15
6.46121849552671e-15
6.41737345839985e-15
6.37383453390614e-15
6.33208554923422e-15
6.29495268216438e-15
6.2701394905454e-15
4.35686438842534e-14
4.29895431043534e-14
4.24113181764649e-14
4.18348430235694e-14
4.12599875240763e-14
4.06867021906175e-14
4.01149743922144e-14
3.95448062629234e-14
3.89761821190782e-14
3.84090763152628e-14
3.78434815606814e-14
3.72794043172193e-14
3.67168381849838e-14
3.61557669824165e-14
3.55961884675972e-14
3.50381112332461e-14
3.44815336239839e-14
3.39264447964165e-14
3.33728436828551e-14
3.28207401561601e-14
3.22701371201559e-14
3.17210273150801e-14
3.11734115946347e-14
3.06273039359087e-14
3.00827119074315e-14
2.95396307309393e-14
2.89980639727705e-14
2.84580318327385e-14
2.791955040373e-14
2.73826201176792e-14
2.68472464618742e-14
2.63134579182932e-14
2.57812876151084e-14
2.52507486998068e-14
2.47218519065051e-14
2.41946408564396e-14
2.36691759876798e-14
2.31454877075212e-14
2.26235951929307e-14
2.21035739915089e-14
2.15855376920491e-14
2.10695484590987e-14
2.05556391761344e-14
2.00439410108921e-14
1.95346640843958e-14
1.90279282744305e-14
1.85237867242929e-14
1.80224603708123e-14
1.75243229279225e-14
1.70295964080906e-14
1.65383602557609e-14
1.60509684255169e-14
1.55680710738255e-14
1.50900689847714e-14
1.46170578675235e-14
1.4149606005303e-14
1.36890117564599e-14
1.32365783970011e-14
1.27936027238456e-14
1.23636610751366e-14
1.19533621034669e-14
1.15677078171322e-14
1.12080627931724e-14
1.08770475200811e-14
1.05790081754423e-14
1.03137688486923e-14
1.00776114297586e-14
9.87000360108006e-15
9.69174124095484e-15
9.53934282690035e-15
9.40744764188513e-15
9.29271524929307e-15
9.19123757492163e-15
9.0971310861771e-15
9.0046897514974e-15
8.90823366116041e-15
8.80199250569239e-15
8.68134923900327e-15
8.54121544014581e-15
8.37526164199521e-15
8.17973666413926e-15
7.95283236429197e-15
7.69056143277496e-15
7.38987888535724e-15
7.05191101015004e-15
6.70950777713451e-15
6.57560759568142e-15
6.60909821878147e-15
6.62019714215795e-15
6.61334673538748e-15
6.5928129235297e-15
6.5630239900868e-15
6.52714183839199e-15
6.48723592713992e-15
6.44501083437456e-15
6.40185408306728e-15
6.35898781781003e-15
6.31786981105996e-15
6.28127138915125e-15
6.25678896262379e-15
4.45173125593961e-14
4.39164657405194e-14
4.33165779452475e-14
4.27187569258532e-14
4.21228143315268e-14
4.15286993078118e-14
4.09363985069392e-14
4.03459139118187e-14
3.97572294467242e-14
3.91703187686381e-14
3.85851741888872e-14
3.80018021629792e-14
3.74201961284546e-14
3.68403394792211e-14
3.62622297570092e-14
3.56858756251913e-14
3.51112753717826e-14
3.45384178710972e-14
3.39673019014576e-14
3.33979374317498e-14
3.28303273932811e-14
3.22644643342387e-14
3.1700349005849e-14
3.11379955483361e-14
3.05774116388248e-14
3.00185923605202e-14
2.94615412193501e-14
2.89062786614659e-14
2.83528210212282e-14
2.78011686855304e-14
2.7251327095091e-14
2.67033250569977e-14
2.61571961705637e-14
2.5612953735139e-14
2.50706084919788e-14
2.4530204529688e-14
2.39918030871464e-14
2.34554349360106e-14
2.29211192955457e-14
2.23889324768038e-14
2.18589894726651e-14
2.13313531665696e-14
2.08060564836893e-14
2.0283231783533e-14
1.97630915884703e-14
1.92457570145978e-14
1.8731281154052e-14
1.82198866845098e-14
1.7711951126379e-14
1.72076984795331e-14
1.6707207766471e-14
1.62108351327036e-14
1.57192364893374e-14
1.52328156294393e-14
1.47516667357534e-14
1.42763603584893e-14
1.38082045827059e-14
1.33485122188141e-14
1.28985852808724e-14
1.24620228637381e-14
1.20454843491533e-14
1.16540070617391e-14
1.12889491059258e-14
1.09529218423748e-14
1.06502784441456e-14
1.03808186666448e-14
1.01407580005436e-14
9.92950660631511e-15
9.74782529543809e-15
9.59217860343018e-15
9.45712641020172e-15
9.33925717438233e-15
9.2346030551834e-15
9.13721847649439e-15
9.04133816761904e-15
8.94123253860015e-15
8.83109060024562e-15
8.7062738842282e-15
8.56169114421317e-15
8.39101204862277e-15
8.19049041371946e-15
7.95833639890924e-15
7.69058356783068e-15
7.3842022063225e-15
7.04037998077327e-15
6.69271241146242e-15
6.55723424432686e-15
6.58982079983677e-15
6.60060955173072e-15
6.59381823603774e-15
6.57358827921679e-15
6.54426257569246e-15
6.50894304832318e-15
6.46965881843496e-15
6.42808399558064e-15
6.38558096941746e-15
6.34334588918417e-15
6.30279391922691e-15
6.26662039318022e-15
6.24235348299808e-15
4.54681295590361e-14
4.48455441475485e-14
4.42239726979542e-14
4.36047754784544e-14
4.29877171106271e-14
4.23727443305439e-14
4.17598429640056e-14
4.11490148751124e-14
4.05402436807129e-14
3.99335023282788e-14
3.9328782667459e-14
3.87260911604297e-14
3.81254211471958e-14
3.75267555979165e-14
3.6930091800189e-14
3.63354385001424e-14
3.57427939818957e-14
3.51521468465966e-14
3.45634956924663e-14
3.39768505925723e-14
3.33922145559809e-14
3.28095799576886e-14
3.22289474103049e-14
3.16503312224497e-14
3.1073739255156e-14
3.04991664745482e-14
2.99266162829209e-14
2.93561093722033e-14
2.87876623742305e-14
2.8221275675101e-14
2.76569546410494e-14
2.70947283784392e-14
2.65346310091455e-14
2.59766760528225e-14
2.54208742308851e-14
2.48672700485307e-14
2.43159255984931e-14
2.3766872102357e-14
2.32201287943978e-14
2.26757726478322e-14
2.21339201055604e-14
2.15946349117784e-14
2.10579499857405e-14
2.05239986816191e-14
1.99929959502402e-14
1.94650643845337e-14
1.89402569535128e-14
1.84187977161644e-14
1.79010679913619e-14
1.7387294082039e-14
1.68775544877914e-14
1.63722069705274e-14
1.58719130396915e-14
1.53770799131213e-14
1.48878000817758e-14
1.44046452957151e-14
1.39289324556021e-14
1.34619834945013e-14
1.30051039009542e-14
1.25619113793844e-14
1.2139112746647e-14
1.17417803515391e-14
1.13712650043249e-14
1.10301651650701e-14
1.07228365335453e-14
1.04490518132869e-14
1.02049583899114e-14
9.9899053280436e-15
9.80461300994343e-15
9.64548882317963e-15
9.50701302080392e-15
9.38570214354188e-15
9.27752767222105e-15
9.17648396328687e-15
9.07675036930313e-15
8.972552733299e-15
8.85804618977625e-15
8.7285773849419e-15
8.57905952252048e-15
8.40317117666288e-15
8.19717857877373e-15
7.95931478352802e-15
7.68564244882588e-15
7.37317044301344e-15
7.02323554183829e-15
6.67025870955655e-15
6.53306038434288e-15
6.56449361836278e-15
6.57487852871399e-15
6.56812490279856e-15
6.54818530504274e-15
6.51930707219658e-15
6.48453267437955e-15
6.44585258654527e-15
6.40491127813255e-15
6.363045674617e-15
6.32142067994486e-15
6.28137417705998e-15
6.24534141937614e-15
6.22067317563855e-15
4.63993452781131e-14
4.57475126671374e-14
4.51042852279124e-14
4.44636864721115e-14
4.38254883410701e-14
4.31896334379918e-14
4.25561072028215e-14
4.19249113281994e-14
4.12960297593007e-14
4.06694344368745e-14
4.00451161019473e-14
3.94230816911447e-14
3.88033249599852e-14
3.8185828258692e-14
3.75705877905905e-14
3.69576128379461e-14
3.634690221557e-14
3.57384442409872e-14
3.51322367314223e-14
3.45282899783892e-14
3.39266074787635e-14
3.33271811866257e-14
3.27300118334001e-14
3.21351141124368e-14
3.15424950565475e-14
3.0952149760411e-14
3.0364082110264e-14
2.97783126672255e-14
2.91948588729299e-14
2.8613720864271e-14
2.80349037848535e-14
2.74584369561344e-14
2.68843552498808e-14
2.63126722453736e-14
2.57433987244923e-14
2.51765793163435e-14
2.4612276813485e-14
2.40505237447568e-14
2.34913386986089e-14
2.29347986209076e-14
2.23810217212072e-14
2.1830073219904e-14
2.12819855364699e-14
2.07368920713088e-14
2.01950107149438e-14
1.96564656244985e-14
1.91213090710279e-14
1.8589765766487e-14
1.8062220342406e-14
1.75389025950392e-14
1.70198902281951e-14
1.65055402448713e-14
1.5996519231323e-14
1.54932390652893e-14
1.49957912163702e-14
1.45047443498286e-14
1.40214205992267e-14
1.35471517255966e-14
1.30832412709954e-14
1.26333084024942e-14
1.22040949984309e-14
1.18007164331878e-14
1.14245217483864e-14
1.10780822108899e-14
1.07657527131164e-14
1.04872979705778e-14
1.02388019495105e-14
1.0019543667123e-14
9.83020889637898e-15
9.66716704650666e-15
9.52482819150617e-15
9.39964325867471e-15
9.28754155783727e-15
9.18247510067662e-15
9.0785828095334e-15
8.97006277096921e-15
8.85105062818644e-15
8.7168870365563e-15
8.5625030738202e-15
8.38159472422673e-15
8.17043684572213e-15
7.92728906608515e-15
7.64825090423633e-15
7.33038594312879e-15
6.97552699505782e-15
6.61993258951127e-15
6.48133527671683e-15
6.51002159999376e-15
6.51994526372838e-15
6.51320902209796e-15
6.49348710558209e-15
6.46494205740018e-15
6.43057178176963e-15
6.39234012064481e-15
6.35186995613196e-15
6.31047940870465e-15
6.26930682699988e-15
6.22959655453721e-15
6.19318423313482e-15
6.16250061799805e-15
)
;


// ************************************************************************* //
