/*--------------------------------*- C++ -*----------------------------------*\
| =========                 |                                                 |
| \\      /  F ield         | OpenFOAM: The Open Source CFD Toolbox           |
|  \\    /   O peration     | Version:  4.1                                   |
|   \\  /    A nd           | Web:      www.OpenFOAM.org                      |
|    \\/     M anipulation  |                                                 |
\*---------------------------------------------------------------------------*/
FoamFile
{
    version     2.0;
    format      ascii;
    class       surfaceScalarField;
    location    "0.000370";
    object      phi;
}
// * * * * * * * * * * * * * * * * * * * * * * * * * * * * * * * * * * * * * //

dimensions      [0 3 -1 0 0 0 0];

internalField   nonuniform List<scalar> 
8704
(
-2.2828774e-06
-6.9935725e-07
-6.9997778e-07
8.1100942e-07
8.1083859e-07
-2.3308683e-06
-1.2066774e-06
-1.208794e-06
1.4146465e-06
1.4138533e-06
-2.3294702e-06
-1.5671262e-06
-1.5692416e-06
1.8039988e-06
1.8032019e-06
-2.3176813e-06
-1.8601886e-06
-1.8600562e-06
2.1229547e-06
2.1235664e-06
-2.2990835e-06
-2.1032001e-06
-2.099059e-06
2.385805e-06
2.3893517e-06
-2.2761178e-06
-2.305543e-06
-2.2969445e-06
2.6053863e-06
2.6126946e-06
-2.2505675e-06
-2.4636063e-06
-2.4516606e-06
2.7795053e-06
2.7900501e-06
-2.2231752e-06
-2.5770579e-06
-2.5623108e-06
2.907159e-06
2.9195476e-06
-2.1948349e-06
-2.6445703e-06
-2.6264721e-06
2.9842405e-06
2.9973875e-06
-2.1659156e-06
-2.6644476e-06
-2.6442366e-06
3.008112e-06
3.0207862e-06
-2.1367857e-06
-2.6326272e-06
-2.6122625e-06
2.9765387e-06
2.9875661e-06
-2.1080517e-06
-2.5396048e-06
-2.519535e-06
2.8818507e-06
2.8914912e-06
-2.0802102e-06
-2.3844932e-06
-2.3650876e-06
2.7213817e-06
2.7303204e-06
-2.0538671e-06
-2.1851032e-06
-2.166543e-06
2.5069877e-06
2.5150613e-06
-2.029278e-06
-1.9535838e-06
-1.9353661e-06
2.2480316e-06
2.2555656e-06
-2.00686e-06
-1.6864105e-06
-1.6687199e-06
1.944261e-06
1.9518708e-06
-1.9869555e-06
-1.3810182e-06
-1.3649899e-06
1.5969839e-06
1.6043999e-06
-1.9696213e-06
-1.0440387e-06
-1.0308928e-06
1.2137455e-06
1.2201227e-06
-1.9561356e-06
-6.8643641e-07
-6.7685216e-07
8.0604367e-07
8.105598e-07
-1.9436716e-06
-3.1272401e-07
-3.0626582e-07
3.7718395e-07
3.7983813e-07
-1.9296014e-06
6.9750195e-08
7.3725535e-08
-6.4157048e-08
-6.2789897e-08
-1.9156725e-06
4.5068045e-07
4.5255881e-07
-5.0498418e-07
-5.0447744e-07
-1.9068507e-06
8.1639224e-07
8.1600646e-07
-9.2889541e-07
-9.2925151e-07
1.1623397e-06
1.1594829e-06
-1.3310166e-06
-1.332536e-06
-2.1634304e-06
-6.5788569e-07
-4.6525189e-07
5.8189615e-07
-2.1764163e-06
-1.0633747e-06
-9.1545567e-07
1.1444343e-06
-2.1689677e-06
-1.3736826e-06
-1.236525e-06
1.505726e-06
-2.1573835e-06
-1.6345703e-06
-1.4896022e-06
1.7913629e-06
-2.1422348e-06
-1.854882e-06
-1.6958167e-06
2.0265828e-06
-2.1249637e-06
-2.0391219e-06
-1.8651534e-06
2.223923e-06
-2.106415e-06
-2.1852427e-06
-1.9972856e-06
2.383689e-06
-2.0865636e-06
-2.2910958e-06
-2.0922552e-06
2.5034916e-06
-2.0660841e-06
-2.3574213e-06
-2.1502329e-06
2.5817269e-06
-2.045398e-06
-2.3839829e-06
-2.1716713e-06
2.6153264e-06
-2.0246502e-06
-2.3646387e-06
-2.1517375e-06
2.6006535e-06
-2.0041018e-06
-2.2869903e-06
-2.0753912e-06
2.5268049e-06
-1.9841818e-06
-2.1502649e-06
-1.9410001e-06
2.3898973e-06
-1.9652553e-06
-1.9740055e-06
-1.771343e-06
2.2042368e-06
-1.9475949e-06
-1.7697924e-06
-1.578544e-06
1.9787414e-06
-1.9316665e-06
-1.5329273e-06
-1.3569338e-06
1.7114387e-06
-1.9177648e-06
-1.2596239e-06
-1.1027515e-06
1.4017423e-06
-1.906034e-06
-9.5629266e-07
-8.2275398e-07
1.0575743e-06
-1.8972652e-06
-6.3406546e-07
-5.2755855e-07
6.9100011e-07
-1.890071e-06
-2.968849e-07
-2.1994201e-07
3.0516261e-07
-1.8836911e-06
4.850065e-08
9.5234668e-08
-9.252114e-08
-1.8788028e-06
3.910429e-07
4.0682099e-07
-4.8778788e-07
-1.8767601e-06
7.1968109e-07
7.0322494e-07
-8.6833116e-07
1.0300923e-06
9.8069773e-07
-1.2269126e-06
-2.1060898e-06
-6.2738169e-07
-2.9083937e-07
3.7964521e-07
-2.1023883e-06
-9.2438325e-07
-6.7714353e-07
8.9165525e-07
-2.0920911e-06
-1.1760811e-06
-9.5738797e-07
1.228652e-06
-2.0818356e-06
-1.3944058e-06
-1.1745599e-06
1.4817833e-06
-2.0705703e-06
-1.5843558e-06
-1.3486118e-06
1.6860412e-06
-2.058581e-06
-1.7452955e-06
-1.4894572e-06
1.8547708e-06
-2.0458317e-06
-1.8745329e-06
-1.5997971e-06
1.9901583e-06
-2.0322394e-06
-1.9695974e-06
-1.6808641e-06
2.0925121e-06
-2.017854e-06
-2.0327705e-06
-1.7348325e-06
2.1613323e-06
-2.0032175e-06
-2.0650873e-06
-1.7623954e-06
2.195728e-06
-1.9882285e-06
-2.0588873e-06
-1.7570375e-06
2.1902586e-06
-1.9729926e-06
-2.0009578e-06
-1.7026094e-06
2.1335187e-06
-1.9578783e-06
-1.8895596e-06
-1.59656e-06
2.0209404e-06
-1.9431178e-06
-1.7422715e-06
-1.4607986e-06
1.8662045e-06
-1.9290563e-06
-1.5691892e-06
-1.3056243e-06
1.6771088e-06
-1.916043e-06
-1.3653716e-06
-1.1242997e-06
1.450613e-06
-1.9044685e-06
-1.1272613e-06
-9.1284047e-07
1.1858173e-06
-1.8945572e-06
-8.6115201e-07
-6.7869049e-07
8.9058556e-07
-1.8866707e-06
-5.7781001e-07
-4.3249493e-07
5.7565693e-07
-1.8802737e-06
-2.8300355e-07
-1.7631685e-07
2.459207e-07
-1.8745004e-06
1.8471309e-08
8.4888761e-08
-9.3719411e-08
-1.8700506e-06
3.1589159e-07
3.4113353e-07
-4.2990711e-07
-1.8677343e-06
6.0128681e-07
5.8374049e-07
-7.5254098e-07
8.7172508e-07
8.1011079e-07
-1.0564653e-06
-2.0663947e-06
-6.0227967e-07
-1.2971133e-07
1.8890881e-07
-2.0542989e-06
-7.9016196e-07
-4.5039141e-07
6.4750506e-07
-2.0432648e-06
-9.7653864e-07
-6.8087653e-07
9.4116581e-07
-2.0347172e-06
-1.1461708e-06
-8.5568502e-07
1.155294e-06
-2.0267218e-06
-1.2999837e-06
-9.9145215e-07
1.3221347e-06
-2.0188631e-06
-1.4327065e-06
-1.0990557e-06
1.4568595e-06
-2.0103419e-06
-1.5409802e-06
-1.1834087e-06
1.5637676e-06
-2.0010625e-06
-1.6217977e-06
-1.247436e-06
1.6454263e-06
-1.9910637e-06
-1.6782582e-06
-1.2951292e-06
1.7033845e-06
-1.9806276e-06
-1.7129027e-06
-1.3272816e-06
1.7370847e-06
-1.9694602e-06
-1.7182059e-06
-1.3356736e-06
1.740581e-06
-1.9576743e-06
-1.6808076e-06
-1.3051483e-06
1.7027887e-06
-1.9456075e-06
-1.5972625e-06
-1.2329816e-06
1.6191162e-06
-1.9335622e-06
-1.4821045e-06
-1.1361321e-06
1.5002864e-06
-1.9218395e-06
-1.3439455e-06
-1.0221474e-06
1.3520305e-06
-1.9106756e-06
-1.1773304e-06
-8.8381239e-07
1.1713413e-06
-1.9005192e-06
-9.7867871e-07
-7.1760498e-07
9.5739534e-07
-1.8916983e-06
-7.5443603e-07
-5.3167125e-07
7.1709018e-07
-1.8844604e-06
-5.15559e-07
-3.3625367e-07
4.5980817e-07
-1.8786284e-06
-2.6863198e-07
-1.3483698e-07
1.9049693e-07
-1.8739199e-06
-1.8439659e-08
6.9702245e-08
-8.5205994e-08
-1.8704252e-06
2.2794426e-07
2.6811917e-07
-3.57008e-07
-1.8683888e-06
4.6546536e-07
4.5535911e-07
-6.175962e-07
6.9142423e-07
6.3061761e-07
-8.6287658e-07
-2.0331405e-06
-5.8230034e-07
2.5044645e-08
2.3921425e-09
-2.0160619e-06
-6.5660143e-07
-2.3377905e-07
4.0388303e-07
-2.0059153e-06
-7.7796183e-07
-4.0971331e-07
6.4862865e-07
-1.9994918e-06
-8.9677006e-07
-5.3757839e-07
8.1791317e-07
-1.9943871e-06
-1.0110243e-06
-6.3156756e-07
9.4238244e-07
-1.989964e-06
-1.1123561e-06
-7.0373531e-07
1.0395413e-06
-1.9849994e-06
-1.1969255e-06
-7.5986274e-07
1.1156202e-06
-1.979221e-06
-1.2602513e-06
-8.0371415e-07
1.1741291e-06
-1.9726943e-06
-1.3048588e-06
-8.4115489e-07
1.2186224e-06
-1.965408e-06
-1.3361397e-06
-8.7240597e-07
1.2485376e-06
-1.9570883e-06
-1.3480351e-06
-8.897695e-07
1.2582653e-06
-1.9478845e-06
-1.3270567e-06
-8.7996075e-07
1.237891e-06
-1.9380697e-06
-1.2692741e-06
-8.406547e-07
1.183643e-06
-1.9278851e-06
-1.1861108e-06
-7.8370972e-07
1.1026883e-06
-1.9175899e-06
-1.0844484e-06
-7.1312761e-07
9.9872862e-07
-1.9074866e-06
-9.5895181e-07
-6.2141118e-07
8.6819665e-07
-1.8979674e-06
-8.0554976e-07
-5.055063e-07
7.1030141e-07
-1.8895086e-06
-6.2924047e-07
-3.7284942e-07
5.303256e-07
-1.8823674e-06
-4.4137345e-07
-2.3229649e-07
3.3591277e-07
-1.8766501e-06
-2.4902474e-07
-8.8641746e-08
1.3258281e-07
-1.8722152e-06
-5.6298165e-08
5.4134872e-08
-7.3825981e-08
-1.868877e-06
1.3342951e-07
1.9188454e-07
-2.7677699e-07
-1.8666386e-06
3.1824271e-07
3.2250052e-07
-4.7193669e-07
4.9580075e-07
4.4445055e-07
-6.5585908e-07
-2.0052137e-06
-5.6853034e-07
1.7989969e-07
-1.8704281e-07
-1.9864256e-06
-5.2385735e-07
-2.5766994e-08
1.6646316e-07
-1.9786347e-06
-5.8118377e-07
-1.4502274e-07
3.543592e-07
-1.9747461e-06
-6.5005542e-07
-2.2342366e-07
4.7369338e-07
-1.9724698e-06
-7.2607147e-07
-2.7473626e-07
5.5513055e-07
-1.9709876e-06
-7.9732343e-07
-3.1108906e-07
6.1556109e-07
-1.9692892e-06
-8.5773097e-07
-3.3780012e-07
6.6191813e-07
-1.9667792e-06
-9.018452e-07
-3.5920895e-07
6.9734658e-07
-1.9633049e-06
-9.3202224e-07
-3.8163517e-07
7.2568597e-07
-1.9587629e-06
-9.5482432e-07
-4.0634245e-07
7.4797481e-07
-1.9528179e-06
-9.6630941e-07
-4.2618176e-07
7.5952146e-07
-1.9455954e-06
-9.5414144e-07
-4.3070019e-07
7.5221794e-07
-1.9373252e-06
-9.1554055e-07
-4.1911715e-07
7.2335179e-07
-1.928111e-06
-8.6000305e-07
-3.9948787e-07
6.7760518e-07
-1.9182935e-06
-7.9226199e-07
-3.715656e-07
6.1646309e-07
-1.9081952e-06
-7.0882227e-07
-3.2842743e-07
5.3737554e-07
-1.898206e-06
-6.049988e-07
-2.6761668e-07
4.3891366e-07
-1.8891417e-06
-4.8217996e-07
-1.9301801e-07
3.235039e-07
-1.8812083e-06
-3.508243e-07
-1.1225234e-07
1.968795e-07
-1.8746422e-06
-2.1802906e-07
-3.1401835e-08
6.4791567e-08
-1.8693347e-06
-8.7500097e-08
4.6156171e-08
-6.7418515e-08
-1.8650782e-06
4.0981388e-08
1.196701e-07
-1.9733759e-07
-1.8617416e-06
1.6808481e-07
1.8956329e-07
-3.2322e-07
2.9207398e-07
2.5472794e-07
-4.4178298e-07
-1.9851031e-06
-5.6278067e-07
3.4242306e-07
-3.8620467e-07
-1.9693824e-06
-3.8974423e-07
1.7513412e-07
-6.4046462e-08
-1.9664883e-06
-3.856047e-07
1.1278464e-07
6.2844225e-08
-1.9661818e-06
-4.0756954e-07
8.3057463e-08
1.2996002e-07
-1.9675751e-06
-4.466562e-07
7.4289133e-08
1.6631218e-07
-1.9698665e-06
-4.8832837e-07
7.2976814e-08
1.8961713e-07
-1.9721328e-06
-5.2415371e-07
7.5118448e-08
2.0576072e-07
-1.9737063e-06
-5.4818135e-07
7.7376727e-08
2.172978e-07
-1.9739906e-06
-5.6316872e-07
7.277259e-08
2.2865948e-07
-1.9723459e-06
-5.7586747e-07
5.8918493e-08
2.4217098e-07
-1.9686073e-06
-5.8352668e-07
4.1770399e-08
2.5417646e-07
-1.9628273e-06
-5.7650608e-07
2.8666919e-08
2.5798552e-07
-1.9550965e-06
-5.535068e-07
1.8792138e-08
2.5198483e-07
-1.9456337e-06
-5.2233056e-07
7.4821513e-09
2.3933188e-07
-1.9349148e-06
-4.8579492e-07
-2.5783107e-09
2.1955129e-07
-1.9230003e-06
-4.4105928e-07
-5.5175667e-09
1.886413e-07
-1.9102004e-06
-3.8304741e-07
5.6789458e-11
1.4566833e-07
-1.8982444e-06
-3.1412972e-07
1.4143535e-08
9.5013462e-08
-1.8874141e-06
-2.4113318e-07
3.1713756e-08
3.7831054e-08
-1.877972e-06
-1.6980894e-07
4.6672929e-08
-2.0151094e-08
-1.86983e-06
-1.021801e-07
5.646365e-08
-7.6012774e-08
-1.8629671e-06
-3.6634646e-08
6.2516217e-08
-1.2984525e-07
-1.8572397e-06
2.9246156e-08
6.7283271e-08
-1.8239726e-07
9.5503437e-08
7.084614e-08
-2.3137001e-07
-1.9843477e-06
5.5748252e-07
-6.0934146e-07
-6.1329096e-07
-1.959959e-06
3.7542709e-07
-2.7394813e-07
-2.8467192e-07
-1.962949e-06
3.6326479e-07
-1.999228e-07
-2.162992e-07
-1.9691549e-06
3.7781943e-07
-1.785089e-07
-2.0042748e-07
-1.9786185e-06
4.0888767e-07
-1.8157411e-07
-2.0973987e-07
-1.9898153e-06
4.4177757e-07
-1.9225783e-07
-2.2752883e-07
-2.0013101e-06
4.7245301e-07
-2.0480431e-07
-2.4422515e-07
-2.0117391e-06
4.9818147e-07
-2.171527e-07
-2.5434572e-07
-2.0196721e-06
5.1248274e-07
-2.2445393e-07
-2.5992496e-07
-2.0240789e-06
5.1169054e-07
-2.2265511e-07
-2.6649172e-07
-2.0246157e-06
4.9931752e-07
-2.139308e-07
-2.7287983e-07
-2.0213503e-06
4.8035684e-07
-2.0368661e-07
-2.7242989e-07
-2.0144731e-06
4.5429796e-07
-1.93376e-07
-2.6424114e-07
-2.0043847e-06
4.1905732e-07
-1.810239e-07
-2.5348455e-07
-1.9919187e-06
3.7732348e-07
-1.6707207e-07
-2.4225629e-07
-1.9770558e-06
3.3399784e-07
-1.5551893e-07
-2.2956582e-07
-1.9593741e-06
2.9003473e-07
-1.4711175e-07
-2.1063905e-07
-1.9419498e-06
2.465872e-07
-1.402581e-07
-1.8564131e-07
-1.9249008e-06
2.0173527e-07
-1.3498243e-07
-1.603123e-07
-1.9092047e-06
1.5035888e-07
-1.2559769e-07
-1.3753692e-07
-1.8957993e-06
9.1979163e-08
-1.1104341e-07
-1.1800201e-07
-1.8846159e-06
2.9133631e-08
-9.3662438e-08
-1.0061656e-07
-1.8750621e-06
-3.4495829e-08
-7.5678285e-08
-8.2541752e-08
-9.6615632e-08
-5.6973096e-08
-6.174892e-08
-2.163148e-06
-4.6594747e-07
-6.5956082e-07
5.8273363e-07
-2.1759711e-06
-9.1691781e-07
-1.0683743e-06
1.1462865e-06
-2.168376e-06
-1.2391355e-06
-1.3795194e-06
1.5083122e-06
-2.1566734e-06
-1.4946661e-06
-1.6380774e-06
1.7953519e-06
-2.1415421e-06
-1.7055318e-06
-1.8545532e-06
2.0338658e-06
-2.124274e-06
-1.8809001e-06
-2.0346864e-06
2.2359276e-06
-2.1057556e-06
-2.0175008e-06
-2.1763959e-06
2.3993695e-06
-2.0859917e-06
-2.1124955e-06
-2.2763688e-06
2.5190226e-06
-2.0655099e-06
-2.1666281e-06
-2.3331047e-06
2.5929715e-06
-2.0447808e-06
-2.1826595e-06
-2.3495609e-06
2.6204501e-06
-2.0239597e-06
-2.157401e-06
-2.3251357e-06
2.5999472e-06
-2.0034027e-06
-2.0783359e-06
-2.2476094e-06
2.5227222e-06
-1.9834966e-06
-1.9442031e-06
-2.1138405e-06
2.3851997e-06
-1.9645881e-06
-1.7753031e-06
-1.9399045e-06
2.1992551e-06
-1.9469588e-06
-1.5838199e-06
-1.7365457e-06
1.9740477e-06
-1.9310812e-06
-1.3643639e-06
-1.5017657e-06
1.7086633e-06
-1.9172694e-06
-1.1113234e-06
-1.2328677e-06
1.4009589e-06
-1.905678e-06
-8.303899e-07
-9.3514454e-07
1.0575574e-06
-1.897052e-06
-5.3296616e-07
-6.1858372e-07
6.9051793e-07
-1.8900211e-06
-2.2346425e-07
-2.8656356e-07
3.0447706e-07
-1.8837999e-06
9.304932e-08
5.4367039e-08
-9.3090018e-08
-1.8790495e-06
4.0587397e-07
3.927499e-07
-4.8809826e-07
-1.8770971e-06
7.0375463e-07
7.1700207e-07
-8.683746e-07
9.8370374e-07
1.0235693e-06
-1.2275419e-06
-2.0696182e-06
-4.3293919e-07
-4.3355666e-07
-2.0501363e-06
-7.8709761e-07
-7.8936815e-07
-2.0332767e-06
-1.0585148e-06
-1.0609177e-06
-2.0197875e-06
-1.282528e-06
-1.2826157e-06
-2.0065868e-06
-1.4706759e-06
-1.4661895e-06
-1.9938346e-06
-1.626695e-06
-1.6161466e-06
-1.9807463e-06
-1.7484388e-06
-1.7320482e-06
-1.9671421e-06
-1.8324626e-06
-1.8121411e-06
-1.9533051e-06
-1.8812417e-06
-1.8569634e-06
-1.9396102e-06
-1.8993434e-06
-1.8710256e-06
-1.9260272e-06
-1.8815207e-06
-1.8527085e-06
-1.9125515e-06
-1.8136963e-06
-1.7872457e-06
-1.899802e-06
-1.6952308e-06
-1.6713672e-06
-1.8880474e-06
-1.547878e-06
-1.5252753e-06
-1.8774025e-06
-1.3831791e-06
-1.3601523e-06
-1.8681997e-06
-1.1942507e-06
-1.1711242e-06
-1.860613e-06
-9.7517708e-07
-9.541127e-07
-1.8548136e-06
-7.313461e-07
-7.1428138e-07
-1.8513334e-06
-4.7382802e-07
-4.6130396e-07
-1.8494589e-06
-2.0689258e-07
-1.9836627e-07
-1.8491806e-06
6.5117352e-08
7.0202198e-08
-1.8501054e-06
3.3179882e-07
3.3345728e-07
-1.8525393e-06
5.8458991e-07
5.8245209e-07
8.2214627e-07
8.1607146e-07
-2.0443702e-06
-4.1074932e-07
-2.6427478e-07
-2.0158601e-06
-6.6863468e-07
-5.5720366e-07
-1.9958921e-06
-8.8021067e-07
-7.8295034e-07
-1.981923e-06
-1.0625334e-06
-9.6643289e-07
-1.9700763e-06
-1.2195046e-06
-1.1166384e-06
-1.9595944e-06
-1.3505799e-06
-1.237928e-06
-1.9492514e-06
-1.4538382e-06
-1.3320207e-06
-1.9385066e-06
-1.5247411e-06
-1.3984005e-06
-1.9275926e-06
-1.5676567e-06
-1.4390415e-06
-1.9167009e-06
-1.5882261e-06
-1.4581216e-06
-1.905577e-06
-1.5794579e-06
-1.452162e-06
-1.8943355e-06
-1.527572e-06
-1.4064879e-06
-1.8833845e-06
-1.431674e-06
-1.3181334e-06
-1.8730962e-06
-1.3112244e-06
-1.2060533e-06
-1.8636082e-06
-1.1761508e-06
-1.0790023e-06
-1.85508e-06
-1.0189622e-06
-9.2983792e-07
-1.847799e-06
-8.3442507e-07
-7.5513971e-07
-1.8419361e-06
-6.2883041e-07
-5.615562e-07
-1.837945e-06
-4.1279441e-07
-3.5840809e-07
-1.8351639e-06
-1.9020893e-07
-1.4826419e-07
-1.8334524e-06
3.4192508e-08
6.4535123e-08
-1.8328104e-06
2.5144478e-07
2.7004746e-07
-1.8334314e-06
4.5691665e-07
4.6282095e-07
6.5046542e-07
6.4334966e-07
-2.0328143e-06
-3.9216686e-07
-1.0693316e-07
-2.0041381e-06
-5.5231654e-07
-3.3429607e-07
-1.9846516e-06
-6.9854605e-07
-5.0835333e-07
-1.9711966e-06
-8.3160896e-07
-6.4753046e-07
-1.9601876e-06
-9.5094717e-07
-7.5801453e-07
-1.9506349e-06
-1.0525788e-06
-8.4520755e-07
-1.941324e-06
-1.1335224e-06
-9.1295017e-07
-1.9316364e-06
-1.1889592e-06
-9.6227378e-07
-1.9217672e-06
-1.2244314e-06
-9.9662608e-07
-1.9118105e-06
-1.2466096e-06
-1.0192068e-06
-1.9013504e-06
-1.2476885e-06
-1.0248196e-06
-1.8906589e-06
-1.2144521e-06
-1.0008759e-06
-1.8800103e-06
-1.1452392e-06
-9.4526741e-07
-1.8697805e-06
-1.0554187e-06
-8.7214249e-07
-1.8602902e-06
-9.5317006e-07
-7.8665446e-07
-1.8516049e-06
-8.3082181e-07
-6.8062488e-07
-1.8440576e-06
-6.8406002e-07
-5.511723e-07
-1.8378282e-06
-5.1985063e-07
-4.0638292e-07
-1.8332042e-06
-3.4818938e-07
-2.5520077e-07
-1.8299998e-06
-1.73834e-07
-1.0088419e-07
-1.8279035e-06
-4.8097265e-10
5.2813944e-08
-1.8268483e-06
1.6540476e-07
1.98674e-07
-1.8269716e-06
3.2264262e-07
3.3470632e-07
4.7191051e-07
4.6220253e-07
-2.0249342e-06
-3.7599258e-07
4.3984344e-08
-1.9996399e-06
-4.3670218e-07
-1.1949307e-07
-1.9823362e-06
-5.1571564e-07
-2.3807166e-07
-1.970102e-06
-5.96319e-07
-3.281138e-07
-1.9599452e-06
-6.7491431e-07
-3.9477815e-07
-1.9509317e-06
-7.4457997e-07
-4.4455722e-07
-1.942139e-06
-8.0129329e-07
-4.8208414e-07
-1.932937e-06
-8.3961484e-07
-5.1063535e-07
-1.9233448e-06
-8.6472954e-07
-5.3506505e-07
-1.9134092e-06
-8.8411442e-07
-5.568802e-07
-1.9028047e-06
-8.9137357e-07
-5.7020684e-07
-1.8917791e-06
-8.7383831e-07
-5.6564194e-07
-1.8806313e-06
-8.2979497e-07
-5.4282346e-07
-1.8695927e-06
-7.7078393e-07
-5.0993364e-07
-1.8590925e-06
-7.0229554e-07
-4.6791297e-07
-1.8494664e-06
-6.1820227e-07
-4.0916676e-07
-1.8408998e-06
-5.146627e-07
-3.3117783e-07
-1.8335815e-06
-3.9691933e-07
-2.4041195e-07
-1.8277894e-06
-2.7377523e-07
-1.4535217e-07
-1.8235582e-06
-1.5191464e-07
-5.077875e-08
-1.8206109e-06
-3.4252255e-08
3.9714847e-08
-1.8187029e-06
7.7646529e-08
1.2374616e-07
-1.8179641e-06
1.8495234e-07
2.0187271e-07
2.8795222e-07
2.7488622e-07
-2.0185605e-06
-3.6211169e-07
1.9469461e-07
-1.9988495e-06
-3.2001483e-07
8.8863685e-08
-1.9848177e-06
-3.3319744e-07
2.7635745e-08
-1.9742757e-06
-3.6212911e-07
-1.1032859e-08
-1.9652518e-06
-4.0114553e-07
-3.2437507e-08
-1.9569292e-06
-4.3957538e-07
-4.4246186e-08
-1.948617e-06
-4.7125511e-07
-5.0085479e-08
-1.939953e-06
-4.9097248e-07
-5.4820995e-08
-1.9306313e-06
-5.0349869e-07
-6.5207504e-08
-1.9205082e-06
-5.1593041e-07
-8.1467936e-08
-1.9095208e-06
-5.2328671e-07
-9.7284652e-08
-1.8978391e-06
-5.1522763e-07
-1.0665542e-07
-1.885722e-06
-4.9149587e-07
-1.1187277e-07
-1.8734053e-06
-4.6090627e-07
-1.1730752e-07
-1.8613941e-06
-4.2581646e-07
-1.1837484e-07
-1.85012e-06
-3.8158055e-07
-1.0846444e-07
-1.8398422e-06
-3.2419027e-07
-8.6089991e-08
-1.8307403e-06
-2.5635353e-07
-5.4329335e-08
-1.8232486e-06
-1.8552622e-07
-2.0560656e-08
-1.8173621e-06
-1.195559e-07
9.711598e-09
-1.8128341e-06
-5.9696755e-08
3.3728269e-08
-1.8095565e-06
-4.4243466e-09
5.2751216e-08
-1.807501e-06
4.9357977e-08
6.9241731e-08
1.0263819e-07
8.4148961e-08
-2.0163772e-06
-3.5016251e-07
3.5302142e-07
-2.0042649e-06
-1.9760212e-07
2.9312099e-07
-1.9948643e-06
-1.48148e-07
2.8894434e-07
-1.9867066e-06
-1.3014823e-07
3.0076172e-07
-1.9793408e-06
-1.3275663e-07
3.2374377e-07
-1.9722633e-06
-1.4204847e-07
3.4875378e-07
-1.9650306e-06
-1.494559e-07
3.7361381e-07
-1.9574913e-06
-1.5050341e-07
3.9314009e-07
-1.9490154e-06
-1.5012159e-07
3.9906736e-07
-1.9391839e-06
-1.540476e-07
3.916476e-07
-1.9281396e-06
-1.5861062e-07
3.7677255e-07
-1.9160375e-06
-1.5656324e-07
3.573287e-07
-1.9030717e-06
-1.4901324e-07
3.2959939e-07
-1.8894968e-06
-1.4258655e-07
2.9192201e-07
-1.8758739e-06
-1.3767138e-07
2.5176689e-07
-1.8624278e-06
-1.3074568e-07
2.1496755e-07
-1.8497487e-06
-1.1741185e-07
1.8161746e-07
-1.8385528e-06
-9.9591079e-08
1.5273455e-07
-1.8287492e-06
-8.2711599e-08
1.2308995e-07
-1.8204912e-06
-7.2545983e-08
8.711278e-08
-1.8136963e-06
-6.9543127e-08
4.3775552e-08
-1.8083944e-06
-7.0662648e-08
-4.2293005e-09
-1.8044647e-06
-7.1645502e-08
-5.2777184e-08
-6.9986434e-08
-9.9669135e-08
-1.983618e-06
5.6285185e-07
-3.9098308e-07
-1.9672588e-06
5.0770233e-07
-7.823881e-08
-1.9640741e-06
5.5468925e-07
4.0484019e-08
-1.9638215e-06
6.134256e-07
1.0001381e-07
-1.9654055e-06
6.7933701e-07
1.2869134e-07
-1.9677704e-06
7.4107394e-07
1.4443155e-07
-1.9703123e-06
7.96302e-07
1.5680715e-07
-1.9724994e-06
8.4031587e-07
1.6974743e-07
-1.9731796e-06
8.6549377e-07
1.7967306e-07
-1.9717406e-06
8.7071631e-07
1.8193131e-07
-1.9681302e-06
8.5929321e-07
1.777376e-07
-1.9623783e-06
8.3273323e-07
1.7175854e-07
-1.9546666e-06
7.8854069e-07
1.634662e-07
-1.945193e-06
7.2653673e-07
1.4838096e-07
-1.9345232e-06
6.5325566e-07
1.2569191e-07
-1.9227138e-06
5.7373116e-07
9.7137489e-08
-1.90997e-06
4.887485e-07
6.6679824e-08
-1.8981842e-06
3.9723474e-07
3.7816735e-08
-1.8874836e-06
2.9929708e-07
4.4811108e-09
-1.8780522e-06
1.9118359e-07
-3.6699848e-08
-1.8698197e-06
7.3650263e-08
-8.4787812e-08
-1.862914e-06
-4.9208496e-08
-1.3665282e-07
-1.8570735e-06
-1.7203669e-07
-1.8784721e-07
-2.9041374e-07
-2.3395442e-07
-2.105551e-06
-2.9351251e-07
-6.2973059e-07
3.8172972e-07
-2.1015632e-06
-6.8399475e-07
-9.3118637e-07
8.9684398e-07
-2.0910119e-06
-9.6716562e-07
-1.1845461e-06
1.2354397e-06
-2.0805954e-06
-1.1869082e-06
-1.4010745e-06
1.489655e-06
-2.069341e-06
-1.365754e-06
-1.5877745e-06
1.6970851e-06
-2.0574238e-06
-1.5134198e-06
-1.7446097e-06
1.8709519e-06
-2.0448741e-06
-1.6276904e-06
-1.8679546e-06
2.0095292e-06
-2.0314464e-06
-1.7028615e-06
-1.9535542e-06
2.1081387e-06
-2.0170748e-06
-1.7401891e-06
-1.9995231e-06
2.1648856e-06
-2.0023915e-06
-1.7484266e-06
-2.0114937e-06
2.1841498e-06
-1.987378e-06
-1.7294217e-06
-1.9935398e-06
2.167306e-06
-1.9722148e-06
-1.6712438e-06
-1.9352321e-06
2.1064151e-06
-1.9571957e-06
-1.5684255e-06
-1.8292403e-06
1.9948316e-06
-1.9425283e-06
-1.4364186e-06
-1.6865455e-06
1.8414427e-06
-1.9284971e-06
-1.2853198e-06
-1.5160285e-06
1.6544806e-06
-1.9155222e-06
-1.1103146e-06
-1.3168304e-06
1.4326935e-06
-1.9040618e-06
-9.0513492e-07
-1.0872626e-06
1.1730737e-06
-1.8942588e-06
-6.741844e-07
-8.3069951e-07
8.8128324e-07
-1.8864521e-06
-4.2886509e-07
-5.5556714e-07
5.6850305e-07
-1.8801713e-06
-1.7349258e-07
-2.6800793e-07
2.4087572e-07
-1.8745067e-06
8.6434205e-08
2.6941137e-08
-9.6577797e-08
-1.8701395e-06
3.4144622e-07
3.1802009e-07
-4.3063579e-07
-1.8678778e-06
5.8312731e-07
5.9673932e-07
-7.5118551e-07
8.1071258e-07
8.6193322e-07
-1.0545667e-06
-2.0441537e-06
-2.6570603e-07
-4.1235338e-07
-2.015538e-06
-5.6057026e-07
-6.7374903e-07
-1.9954928e-06
-7.8814179e-07
-8.8710181e-07
-1.9814904e-06
-9.7422549e-07
-1.068219e-06
-1.969635e-06
-1.129322e-06
-1.2214367e-06
-1.9591031e-06
-1.2576668e-06
-1.3461404e-06
-1.9487644e-06
-1.3572801e-06
-1.4408934e-06
-1.9381108e-06
-1.4212443e-06
-1.5023297e-06
-1.9272276e-06
-1.4518543e-06
-1.5308142e-06
-1.9163071e-06
-1.4596581e-06
-1.5340287e-06
-1.9052203e-06
-1.4449199e-06
-1.5162135e-06
-1.8940641e-06
-1.3956928e-06
-1.4659641e-06
-1.8832347e-06
-1.3083037e-06
-1.3761471e-06
-1.8731169e-06
-1.1986032e-06
-1.2603984e-06
-1.8637198e-06
-1.0751228e-06
-1.1273977e-06
-1.8552432e-06
-9.3059685e-07
-9.7369354e-07
-1.8480552e-06
-7.5949903e-07
-7.9667933e-07
-1.8422643e-06
-5.6647515e-07
-5.9995334e-07
-1.8383472e-06
-3.6192554e-07
-3.9158995e-07
-1.8356526e-06
-1.5067754e-07
-1.7546437e-07
-1.8340178e-06
6.2876288e-08
4.2985499e-08
-1.8334186e-06
2.6942719e-07
2.5420061e-07
-1.8340739e-06
4.6369092e-07
4.531573e-07
6.4710706e-07
6.4124412e-07
-2.0244025e-06
-2.4832999e-07
-2.4802662e-07
-1.9879515e-06
-4.4984213e-07
-4.4969022e-07
-1.9644886e-06
-6.1565632e-07
-6.154569e-07
-1.9495021e-06
-7.5964686e-07
-7.5793809e-07
-1.9382974e-06
-8.8332738e-07
-8.7743007e-07
-1.9292891e-06
-9.8643279e-07
-9.7301238e-07
-1.9208709e-06
-1.0669497e-06
-1.0449629e-06
-1.9123889e-06
-1.117075e-06
-1.0911946e-06
-1.9038535e-06
-1.14037e-06
-1.1131906e-06
-1.8951993e-06
-1.1475883e-06
-1.1176807e-06
-1.8860887e-06
-1.1372881e-06
-1.1071565e-06
-1.8767069e-06
-1.0995152e-06
-1.0721829e-06
-1.8673606e-06
-1.0320599e-06
-1.0074492e-06
-1.8583711e-06
-9.4806877e-07
-9.2468664e-07
-1.8499449e-06
-8.5383605e-07
-8.2991899e-07
-1.8421823e-06
-7.4115382e-07
-7.1693956e-07
-1.83537e-06
-6.0563022e-07
-5.833793e-07
-1.8296997e-06
-4.5277131e-07
-4.3466199e-07
-1.8255348e-06
-2.9181665e-07
-2.7834476e-07
-1.8223251e-06
-1.2729271e-07
-1.1756302e-07
-1.8199349e-06
3.6308787e-08
4.2644764e-08
-1.8185431e-06
1.9090211e-07
1.9330628e-07
-1.8182714e-06
3.3528601e-07
3.3310127e-07
4.7222984e-07
4.6534785e-07
-2.0171736e-06
-2.3429234e-07
-9.2459382e-08
-1.9802496e-06
-3.4247436e-07
-2.2965512e-07
-1.9566188e-06
-4.4187456e-07
-3.4330028e-07
-1.9416184e-06
-5.3638415e-07
-4.411203e-07
-1.9307168e-06
-6.2206772e-07
-5.2090992e-07
-1.9221192e-06
-6.9493653e-07
-5.8235446e-07
-1.9142485e-06
-7.5171302e-07
-6.2759867e-07
-1.9064268e-06
-7.8502693e-07
-6.5611032e-07
-1.8986016e-06
-7.9992432e-07
-6.7020718e-07
-1.8905927e-06
-8.0625864e-07
-6.752254e-07
-1.8819513e-06
-8.01208e-07
-6.721101e-07
-1.8729525e-06
-7.7717476e-07
-6.5474444e-07
-1.8638826e-06
-7.3324746e-07
-6.2037155e-07
-1.8548413e-06
-6.7823687e-07
-5.7554459e-07
-1.8463134e-06
-6.1547141e-07
-5.2209319e-07
-1.8385332e-06
-5.3796499e-07
-4.5327591e-07
-1.8315932e-06
-4.4216859e-07
-3.6691829e-07
-1.8257253e-06
-3.3306179e-07
-2.6916555e-07
-1.8211809e-06
-2.1880628e-07
-1.6725291e-07
-1.8178238e-06
-1.0461223e-07
-6.5234642e-08
-1.8154208e-06
5.4690221e-09
3.2733614e-08
-1.8139667e-06
1.0659839e-07
1.2176342e-07
-1.8136535e-06
2.0062995e-07
2.0300482e-07
2.9034034e-07
2.8002016e-07
-2.0155679e-06
-2.2033065e-07
5.8363341e-08
-1.9823273e-06
-2.3425745e-07
-1.3860682e-08
-1.960555e-06
-2.6525436e-07
-7.1568231e-08
-1.946302e-06
-3.0605993e-07
-1.1945644e-07
-1.9356113e-06
-3.4978311e-07
-1.546837e-07
-1.9267795e-06
-3.8907397e-07
-1.7818155e-07
-1.9186587e-06
-4.1925432e-07
-1.9303264e-07
-1.9106166e-06
-4.3399661e-07
-2.0108499e-07
-1.9023813e-06
-4.3899073e-07
-2.0530394e-07
-1.8937301e-06
-4.4243672e-07
-2.0878211e-07
-1.8843845e-06
-4.4091799e-07
-2.116909e-07
-1.874586e-06
-4.2905701e-07
-2.117165e-07
-1.864628e-06
-4.0787859e-07
-2.0923634e-07
-1.8545512e-06
-3.8267422e-07
-2.0526108e-07
-1.8448817e-06
-3.5305392e-07
-1.9573424e-07
-1.8361029e-06
-3.1401852e-07
-1.7512877e-07
-1.8282078e-06
-2.6324618e-07
-1.4158205e-07
-1.8213858e-06
-2.0239557e-07
-9.8954418e-08
-1.8159576e-06
-1.3851711e-07
-5.4721458e-08
-1.8119776e-06
-7.8793115e-08
-1.4762643e-08
-1.8091185e-06
-2.5954367e-08
1.8213409e-08
-1.8072467e-06
1.9851397e-08
4.4719179e-08
-1.8066026e-06
6.2171636e-08
6.7299788e-08
1.0334626e-07
8.8759534e-08
-2.0156502e-06
-2.0525553e-07
2.0926195e-07
-1.9882833e-06
-1.2195917e-07
1.9842366e-07
-1.9696383e-06
-8.5382082e-08
1.9837622e-07
-1.9568278e-06
-7.3171457e-08
2.0308046e-07
-1.9467306e-06
-7.5539596e-08
2.1436332e-07
-1.9377872e-06
-8.147477e-08
2.2996671e-07
-1.9292984e-06
-8.4360418e-08
2.4753136e-07
-1.9209963e-06
-8.015785e-08
2.6224894e-07
-1.9121819e-06
-7.4901987e-08
2.6920639e-07
-1.9025527e-06
-7.3663291e-08
2.6857836e-07
-1.8922158e-06
-7.3064458e-08
2.6129236e-07
-1.8813056e-06
-7.0491419e-08
2.4622623e-07
-1.8700654e-06
-6.9032987e-08
2.1978901e-07
-1.8586921e-06
-7.1899231e-08
1.8408303e-07
-1.847701e-06
-7.5364552e-08
1.4937384e-07
-1.8376108e-06
-7.5577986e-08
1.2043784e-07
-1.828352e-06
-7.1060489e-08
9.8566336e-08
-1.8202214e-06
-5.9849607e-08
8.2617088e-08
-1.8137256e-06
-4.8770633e-08
6.5796297e-08
-1.8087577e-06
-4.5489105e-08
4.1690981e-08
-1.8050171e-06
-5.0851544e-08
9.113586e-09
-1.8024534e-06
-6.1722507e-08
-2.828419e-08
-1.8011674e-06
-7.3134822e-08
-6.6456079e-08
-8.2294018e-08
-1.0264275e-07
-2.0181343e-06
-1.8790109e-07
3.6735044e-07
-1.9982866e-06
1.2485673e-10
4.0932487e-07
-1.9840948e-06
1.0159743e-07
4.6644882e-07
-1.9735653e-06
1.6204201e-07
5.2282356e-07
-1.9646166e-06
1.9723541e-07
5.791959e-07
-1.9561653e-06
2.2135917e-07
6.3208164e-07
-1.9477938e-06
2.4298792e-07
6.8036636e-07
-1.9394572e-06
2.6418791e-07
7.1749214e-07
-1.9303143e-06
2.7913787e-07
7.3628741e-07
-1.9201081e-06
2.8524294e-07
7.3886726e-07
-1.9090823e-06
2.8484214e-07
7.2724155e-07
-1.8973828e-06
2.7880691e-07
6.9852129e-07
-1.8852841e-06
2.6367075e-07
6.4790544e-07
-1.8730263e-06
2.3728533e-07
5.788096e-07
-1.8610817e-06
2.0405479e-07
5.0399957e-07
-1.8498894e-06
1.6740991e-07
4.2829821e-07
-1.8396509e-06
1.2828996e-07
3.5215978e-07
-1.8306056e-06
9.0652114e-08
2.7725713e-07
-1.8231451e-06
4.89614e-08
1.9879275e-07
-1.8172931e-06
-2.642501e-09
1.1094677e-07
-1.8127256e-06
-6.3620631e-08
1.3810075e-08
-1.809407e-06
-1.2947537e-07
-8.7708569e-08
-1.8073235e-06
-1.9408129e-07
-1.8810043e-07
-2.5353161e-07
-2.8381611e-07
-2.0025275e-06
5.7701265e-07
-1.9180179e-07
-1.9827464e-06
6.4047103e-07
1.5077908e-07
-1.9745028e-06
7.4907158e-07
3.2807319e-07
-1.9706752e-06
8.5378422e-07
4.3682633e-07
-1.9687002e-06
9.5472019e-07
5.0862805e-07
-1.9673649e-06
1.0452635e-06
5.6106499e-07
-1.9660777e-06
1.1241743e-06
6.0382179e-07
-1.9644335e-06
1.1856121e-06
6.3914922e-07
-1.9615911e-06
1.2223309e-06
6.6295451e-07
-1.9572752e-06
1.2347185e-06
6.724979e-07
-1.9515005e-06
1.2235569e-06
6.678673e-07
-1.9444816e-06
1.1867917e-06
6.5026631e-07
-1.9363959e-06
1.1212138e-06
6.1796644e-07
-1.9273279e-06
1.0294599e-06
5.6847756e-07
-1.9177165e-06
9.2130625e-07
5.0428211e-07
-1.9077241e-06
8.0103128e-07
4.2910568e-07
-1.89798e-06
6.6885589e-07
3.4563501e-07
-1.8889508e-06
5.2781179e-07
2.5465719e-07
-1.8810925e-06
3.7680939e-07
1.5442355e-07
-1.8745529e-06
2.1282723e-07
4.2228228e-08
-1.8692073e-06
3.7563632e-08
-7.9114453e-08
-1.8648836e-06
-1.4276202e-07
-2.0450208e-07
-1.8614705e-06
-3.2097403e-07
-3.2753005e-07
-4.9180273e-07
-4.4276958e-07
-2.0657065e-06
-1.3340803e-07
-6.0402815e-07
1.9161286e-07
-2.0532554e-06
-4.5971311e-07
-7.9503738e-07
6.5393673e-07
-2.0419452e-06
-6.9362045e-07
-9.8256491e-07
9.4910211e-07
-2.0332545e-06
-8.7031801e-07
-1.1504641e-06
1.1633231e-06
-2.0252766e-06
-1.0099355e-06
-1.3012007e-06
1.3322121e-06
-2.0174802e-06
-1.123343e-06
-1.4293512e-06
1.4711383e-06