/*--------------------------------*- C++ -*----------------------------------*\
| =========                 |                                                 |
| \\      /  F ield         | OpenFOAM: The Open Source CFD Toolbox           |
|  \\    /   O peration     | Version:  4.1                                   |
|   \\  /    A nd           | Web:      www.OpenFOAM.org                      |
|    \\/     M anipulation  |                                                 |
\*---------------------------------------------------------------------------*/
FoamFile
{
    version     2.0;
    format      ascii;
    class       pointVectorField;
    location    "0.0067";
    object      pointDisplacement_Next;
}
// * * * * * * * * * * * * * * * * * * * * * * * * * * * * * * * * * * * * * //

dimensions      [0 1 0 0 0 0 0];

internalField   uniform (0 0 0);

boundaryField
{
    inlet
    {
        type            fixedValue;
        value           nonuniform 0();
    }
    outlet
    {
        type            fixedValue;
        value           nonuniform 0();
    }
    mantle
    {
        type            fixedValue;
        value           nonuniform List<vector> 
416
(
(3.2355e-06 -0.00010197 -2.9901e-10)
(-2.9181e-07 -0.00010376 -3.0605e-10)
(-2.9387e-07 -0.0001016 2.0176e-05)
(3.251e-06 -9.9847e-05 1.985e-05)
(-3.0422e-07 -9.5405e-05 3.9533e-05)
(3.2677e-06 -9.3753e-05 3.8879e-05)
(-3.2257e-07 -8.5679e-05 5.73e-05)
(3.2531e-06 -8.4164e-05 5.6294e-05)
(-3.3323e-07 -7.2849e-05 7.2849e-05)
(3.2385e-06 -7.1534e-05 7.1533e-05)
(-3.2245e-07 -5.73e-05 8.5678e-05)
(3.2533e-06 -5.6294e-05 8.4163e-05)
(-3.04e-07 -3.9532e-05 9.5403e-05)
(3.268e-06 -3.8879e-05 9.3752e-05)
(-2.9357e-07 -2.0176e-05 0.0001016)
(3.2514e-06 -1.985e-05 9.9846e-05)
(-2.9144e-07 3.9542e-10 0.00010376)
(3.236e-06 2.5865e-10 0.00010197)
(-4.0369e-06 -0.00010288 -3.9417e-10)
(-4.0562e-06 -0.0001007 1.9967e-05)
(-4.0875e-06 -9.4558e-05 3.9155e-05)
(-4.1021e-06 -8.4967e-05 5.6826e-05)
(-4.1051e-06 -7.2297e-05 7.2297e-05)
(-4.102e-06 -5.6826e-05 8.4966e-05)
(-4.0874e-06 -3.9155e-05 9.4557e-05)
(-4.056e-06 -1.9967e-05 0.0001007)
(-4.0366e-06 5.0204e-10 0.00010288)
(-7.9494e-06 -9.9565e-05 -4.7759e-10)
(-7.9732e-06 -9.7501e-05 1.934e-05)
(-8.0088e-06 -9.1592e-05 3.7938e-05)
(-8.0172e-06 -8.2329e-05 5.5069e-05)
(-8.0122e-06 -7.0047e-05 7.0047e-05)
(-8.0172e-06 -5.5069e-05 8.2329e-05)
(-8.0088e-06 -3.7938e-05 9.1591e-05)
(-7.9731e-06 -1.934e-05 9.75e-05)
(-7.9491e-06 5.8678e-10 9.9565e-05)
(-1.1848e-05 -9.4801e-05 -6.1776e-10)
(-1.1875e-05 -9.2861e-05 1.8434e-05)
(-1.1913e-05 -8.7256e-05 3.6165e-05)
(-1.1911e-05 -7.8462e-05 5.2495e-05)
(-1.1899e-05 -6.6759e-05 6.6759e-05)
(-1.1911e-05 -5.2495e-05 7.8462e-05)
(-1.1913e-05 -3.6165e-05 8.7256e-05)
(-1.1874e-05 -1.8435e-05 9.2861e-05)
(-1.1848e-05 5.5341e-10 9.4801e-05)
(-1.5541e-05 -8.9314e-05 -6.2137e-10)
(-1.5557e-05 -8.7478e-05 1.7356e-05)
(-1.5585e-05 -8.2218e-05 3.407e-05)
(-1.5594e-05 -7.3954e-05 4.9485e-05)
(-1.5593e-05 -6.2951e-05 6.295e-05)
(-1.5594e-05 -4.9485e-05 7.3953e-05)
(-1.5585e-05 -3.407e-05 8.2218e-05)
(-1.5557e-05 -1.7356e-05 8.7478e-05)
(-1.554e-05 4.1581e-10 8.9314e-05)
(-1.8851e-05 -8.3107e-05 -7.5729e-10)
(-1.8859e-05 -8.1373e-05 1.6123e-05)
(-1.8881e-05 -7.6476e-05 3.1677e-05)
(-1.8896e-05 -6.8822e-05 4.6057e-05)
(-1.8907e-05 -5.8621e-05 5.8621e-05)
(-1.8896e-05 -4.6057e-05 6.8822e-05)
(-1.8881e-05 -3.1678e-05 7.6477e-05)
(-1.8859e-05 -1.6124e-05 8.1373e-05)
(-1.8851e-05 3.727e-10 8.3108e-05)
(-2.1677e-05 -7.5931e-05 -1.4023e-09)
(-2.1701e-05 -7.4367e-05 1.4731e-05)
(-2.1733e-05 -6.9912e-05 2.8953e-05)
(-2.1734e-05 -6.2938e-05 4.2116e-05)
(-2.1725e-05 -5.3609e-05 5.3609e-05)
(-2.1734e-05 -4.2117e-05 6.2938e-05)
(-2.1733e-05 -2.8954e-05 6.9913e-05)
(-2.17e-05 -1.4732e-05 7.4368e-05)
(-2.1677e-05 7.9632e-10 7.5932e-05)
(-2.4067e-05 -6.8064e-05 -8.1042e-10)
(-2.4106e-05 -6.6662e-05 1.3203e-05)
(-2.4151e-05 -6.2681e-05 2.5962e-05)
(-2.4133e-05 -5.6456e-05 3.7786e-05)
(-2.4104e-05 -4.8106e-05 4.8105e-05)
(-2.4133e-05 -3.7787e-05 5.6455e-05)
(-2.4151e-05 -2.5963e-05 6.2681e-05)
(-2.4106e-05 -1.3204e-05 6.6663e-05)
(-2.4067e-05 -2.7733e-11 6.8065e-05)
(-2.6088e-05 -5.9853e-05 -8.1092e-10)
(-2.6114e-05 -5.8652e-05 1.1629e-05)
(-2.6146e-05 -5.5196e-05 2.2866e-05)
(-2.6139e-05 -4.9719e-05 3.3269e-05)
(-2.6125e-05 -4.2352e-05 4.2352e-05)
(-2.6139e-05 -3.3271e-05 4.9718e-05)
(-2.6146e-05 -2.2867e-05 5.5196e-05)
(-2.6114e-05 -1.163e-05 5.8653e-05)
(-2.6088e-05 -2.0487e-10 5.9854e-05)
(-2.7688e-05 -5.1707e-05 -7.1008e-10)
(-2.7702e-05 -5.0689e-05 1.0055e-05)
(-2.7723e-05 -4.7728e-05 1.9771e-05)
(-2.7728e-05 -4.3013e-05 2.8775e-05)
(-2.7725e-05 -3.6638e-05 3.6637e-05)
(-2.7728e-05 -2.8777e-05 4.3013e-05)
(-2.7724e-05 -1.9772e-05 4.7728e-05)
(-2.7702e-05 -1.0056e-05 5.0689e-05)
(-2.7688e-05 -4.2577e-10 5.1708e-05)
(-2.8799e-05 -4.3935e-05 -5.1254e-10)
(-2.8818e-05 -4.3068e-05 8.5331e-06)
(-2.8843e-05 -4.0564e-05 1.6794e-05)
(-2.8837e-05 -3.6585e-05 2.4475e-05)
(-2.8826e-05 -3.1182e-05 3.1181e-05)
(-2.8837e-05 -2.4477e-05 3.6584e-05)
(-2.8843e-05 -1.6796e-05 4.0564e-05)
(-2.8818e-05 -8.5345e-06 4.3068e-05)
(-2.8799e-05 -6.6027e-10 4.3936e-05)
(-2.9409e-05 -3.6712e-05 -4.2594e-10)
(-2.9436e-05 -3.5964e-05 7.1064e-06)
(-2.9467e-05 -3.3862e-05 1.4012e-05)
(-2.9445e-05 -3.0581e-05 2.0473e-05)
(-2.9422e-05 -2.6107e-05 2.6106e-05)
(-2.9446e-05 -2.0474e-05 3.058e-05)
(-2.9467e-05 -1.4013e-05 3.3862e-05)
(-2.9436e-05 -7.1077e-06 3.5964e-05)
(-2.9409e-05 -7.0985e-10 3.6713e-05)
(-2.9353e-07 2.0177e-05 0.0001016)
(3.2514e-06 1.9851e-05 9.9847e-05)
(-3.0394e-07 3.9533e-05 9.5404e-05)
(3.268e-06 3.888e-05 9.3753e-05)
(-3.224e-07 5.7301e-05 8.5678e-05)
(3.2533e-06 5.6295e-05 8.4164e-05)
(-3.332e-07 7.285e-05 7.2849e-05)
(3.2384e-06 7.1535e-05 7.1534e-05)
(-3.2256e-07 8.5679e-05 5.73e-05)
(3.2531e-06 8.4164e-05 5.6294e-05)
(-3.0425e-07 9.5404e-05 3.9532e-05)
(3.2677e-06 9.3753e-05 3.8879e-05)
(-2.9396e-07 0.0001016 2.0176e-05)
(3.2509e-06 9.9846e-05 1.985e-05)
(-2.9193e-07 0.00010376 -2.5799e-10)
(3.2354e-06 0.00010197 -1.6996e-10)
(-4.056e-06 1.9968e-05 0.0001007)
(-4.0872e-06 3.9156e-05 9.4557e-05)
(-4.1019e-06 5.6828e-05 8.4967e-05)
(-4.105e-06 7.2298e-05 7.2297e-05)
(-4.102e-06 8.4968e-05 5.6826e-05)
(-4.0875e-06 9.4558e-05 3.9155e-05)
(-4.0563e-06 0.0001007 1.9967e-05)
(-4.037e-06 0.00010288 -3.335e-10)
(-7.973e-06 1.9341e-05 9.7501e-05)
(-8.0086e-06 3.7939e-05 9.1592e-05)
(-8.0169e-06 5.507e-05 8.2329e-05)
(-8.012e-06 7.0049e-05 7.0047e-05)
(-8.017e-06 8.2331e-05 5.5069e-05)
(-8.0087e-06 9.1593e-05 3.7938e-05)
(-7.9732e-06 9.7501e-05 1.934e-05)
(-7.9494e-06 9.9565e-05 -4.6284e-10)
(-1.1874e-05 1.8436e-05 9.2861e-05)
(-1.1912e-05 3.6167e-05 8.7256e-05)
(-1.1911e-05 5.2497e-05 7.8463e-05)
(-1.1899e-05 6.6761e-05 6.6759e-05)
(-1.1911e-05 7.8464e-05 5.2496e-05)
(-1.1912e-05 8.7258e-05 3.6165e-05)
(-1.1874e-05 9.2862e-05 1.8435e-05)
(-1.1848e-05 9.4802e-05 -5.4851e-10)
(-1.5556e-05 1.7357e-05 8.7478e-05)
(-1.5585e-05 3.4072e-05 8.2218e-05)
(-1.5593e-05 4.9487e-05 7.3954e-05)
(-1.5593e-05 6.2952e-05 6.2951e-05)
(-1.5593e-05 7.3955e-05 4.9485e-05)
(-1.5584e-05 8.2219e-05 3.407e-05)
(-1.5556e-05 8.748e-05 1.7356e-05)
(-1.554e-05 8.9315e-05 -7.2566e-10)
(-1.8859e-05 1.6125e-05 8.1374e-05)
(-1.8881e-05 3.1679e-05 7.6477e-05)
(-1.8896e-05 4.6058e-05 6.8822e-05)
(-1.8907e-05 5.8622e-05 5.8621e-05)
(-1.8896e-05 6.8824e-05 4.6057e-05)
(-1.8881e-05 7.6478e-05 3.1677e-05)
(-1.8858e-05 8.1375e-05 1.6123e-05)
(-1.885e-05 8.3109e-05 -7.256e-10)
(-2.17e-05 1.4732e-05 7.4368e-05)
(-2.1732e-05 2.8954e-05 6.9913e-05)
(-2.1733e-05 4.2118e-05 6.2938e-05)
(-2.1724e-05 5.361e-05 5.3608e-05)
(-2.1733e-05 6.2939e-05 4.2117e-05)
(-2.1732e-05 6.9914e-05 2.8953e-05)
(-2.17e-05 7.4368e-05 1.4731e-05)
(-2.1676e-05 7.5933e-05 -1.5053e-10)
(-2.4106e-05 1.3204e-05 6.6663e-05)
(-2.4151e-05 2.5963e-05 6.2681e-05)
(-2.4132e-05 3.7787e-05 5.6456e-05)
(-2.4103e-05 4.8106e-05 4.8106e-05)
(-2.4132e-05 5.6456e-05 3.7787e-05)
(-2.415e-05 6.2681e-05 2.5962e-05)
(-2.4105e-05 6.6663e-05 1.3204e-05)
(-2.4066e-05 6.8065e-05 -7.6496e-10)
(-2.6113e-05 1.163e-05 5.8653e-05)
(-2.6146e-05 2.2867e-05 5.5196e-05)
(-2.6139e-05 3.327e-05 4.9718e-05)
(-2.6124e-05 4.2352e-05 4.2352e-05)
(-2.6139e-05 4.9719e-05 3.327e-05)
(-2.6146e-05 5.5196e-05 2.2866e-05)
(-2.6113e-05 5.8653e-05 1.1629e-05)
(-2.6087e-05 5.9854e-05 -7.7676e-10)
(-2.7702e-05 1.0055e-05 5.0689e-05)
(-2.7723e-05 1.9772e-05 4.7728e-05)
(-2.7727e-05 2.8776e-05 4.3013e-05)
(-2.7724e-05 3.6638e-05 3.6638e-05)
(-2.7727e-05 4.3013e-05 2.8776e-05)
(-2.7723e-05 4.7728e-05 1.9771e-05)
(-2.7701e-05 5.0689e-05 1.0055e-05)
(-2.7687e-05 5.1707e-05 -6.9373e-10)
(-2.8818e-05 8.5333e-06 4.3068e-05)
(-2.8842e-05 1.6795e-05 4.0564e-05)
(-2.8836e-05 2.4476e-05 3.6585e-05)
(-2.8825e-05 3.1182e-05 3.1182e-05)
(-2.8836e-05 3.6585e-05 2.4476e-05)
(-2.8842e-05 4.0563e-05 1.6795e-05)
(-2.8818e-05 4.3068e-05 8.5333e-06)
(-2.8798e-05 4.3935e-05 -6.5673e-10)
(-2.9436e-05 7.1063e-06 3.5965e-05)
(-2.9467e-05 1.4012e-05 3.3863e-05)
(-2.9445e-05 2.0474e-05 3.0581e-05)
(-2.9421e-05 2.6106e-05 2.6107e-05)
(-2.9445e-05 3.058e-05 2.0474e-05)
(-2.9466e-05 3.3862e-05 1.4013e-05)
(-2.9436e-05 3.5964e-05 7.1067e-06)
(-2.9408e-05 3.6712e-05 -4.1808e-10)
(-2.9408e-07 0.0001016 -2.0176e-05)
(3.2508e-06 9.9846e-05 -1.985e-05)
(-3.0451e-07 9.5404e-05 -3.9533e-05)
(3.2673e-06 9.3752e-05 -3.8879e-05)
(-3.2298e-07 8.5678e-05 -5.73e-05)
(3.2525e-06 8.4163e-05 -5.6294e-05)
(-3.3378e-07 7.2849e-05 -7.2848e-05)
(3.2377e-06 7.1533e-05 -7.1533e-05)
(-3.2312e-07 5.73e-05 -8.5677e-05)
(3.2524e-06 5.6294e-05 -8.4162e-05)
(-3.0479e-07 3.9532e-05 -9.5402e-05)
(3.2671e-06 3.8878e-05 -9.3751e-05)
(-2.9447e-07 2.0176e-05 -0.0001016)
(3.2505e-06 1.985e-05 -9.9844e-05)
(-2.9239e-07 3.8556e-10 -0.00010376)
(3.2351e-06 1.3512e-10 -0.00010196)
(-4.0564e-06 0.0001007 -1.9968e-05)
(-4.0877e-06 9.4557e-05 -3.9155e-05)
(-4.1023e-06 8.4966e-05 -5.6826e-05)
(-4.1054e-06 7.2297e-05 -7.2296e-05)
(-4.1025e-06 5.6826e-05 -8.4965e-05)
(-4.088e-06 3.9155e-05 -9.4555e-05)
(-4.0569e-06 1.9968e-05 -0.0001007)
(-4.0375e-06 5.4347e-10 -0.00010287)
(-7.9732e-06 9.7501e-05 -1.934e-05)
(-8.0089e-06 9.1592e-05 -3.7939e-05)
(-8.0172e-06 8.2329e-05 -5.5069e-05)
(-8.0123e-06 7.0047e-05 -7.0047e-05)
(-8.0174e-06 5.5069e-05 -8.2328e-05)
(-8.0092e-06 3.7938e-05 -9.159e-05)
(-7.9737e-06 1.934e-05 -9.7499e-05)
(-7.95e-06 5.3198e-10 -9.9563e-05)
(-1.1874e-05 9.2862e-05 -1.8435e-05)
(-1.1913e-05 8.7257e-05 -3.6166e-05)
(-1.1911e-05 7.8463e-05 -5.2496e-05)
(-1.1899e-05 6.6759e-05 -6.6759e-05)
(-1.1911e-05 5.2496e-05 -7.8462e-05)
(-1.1913e-05 3.6166e-05 -8.7255e-05)
(-1.1875e-05 1.8435e-05 -9.286e-05)
(-1.1849e-05 5.144e-10 -9.48e-05)
(-1.5556e-05 8.7479e-05 -1.7357e-05)
(-1.5584e-05 8.2218e-05 -3.4071e-05)
(-1.5593e-05 7.3954e-05 -4.9486e-05)
(-1.5593e-05 6.2951e-05 -6.2951e-05)
(-1.5594e-05 4.9485e-05 -7.3953e-05)
(-1.5585e-05 3.4071e-05 -8.2217e-05)
(-1.5557e-05 1.7357e-05 -8.7477e-05)
(-1.5541e-05 5.0896e-10 -8.9313e-05)
(-1.8858e-05 8.1374e-05 -1.6125e-05)
(-1.8881e-05 7.6477e-05 -3.1678e-05)
(-1.8896e-05 6.8822e-05 -4.6058e-05)
(-1.8907e-05 5.8621e-05 -5.8621e-05)
(-1.8896e-05 4.6057e-05 -6.8822e-05)
(-1.8881e-05 3.1678e-05 -7.6476e-05)
(-1.8859e-05 1.6124e-05 -8.1373e-05)
(-1.8851e-05 3.2415e-10 -8.3107e-05)
(-2.17e-05 7.4368e-05 -1.4733e-05)
(-2.1732e-05 6.9912e-05 -2.8954e-05)
(-2.1733e-05 6.2938e-05 -4.2117e-05)
(-2.1724e-05 5.3609e-05 -5.3608e-05)
(-2.1733e-05 4.2116e-05 -6.2938e-05)
(-2.1732e-05 2.8953e-05 -6.9912e-05)
(-2.17e-05 1.4732e-05 -7.4367e-05)
(-2.1677e-05 -4.5057e-10 -7.5932e-05)
(-2.4105e-05 6.6663e-05 -1.3205e-05)
(-2.415e-05 6.268e-05 -2.5963e-05)
(-2.4132e-05 5.6455e-05 -3.7787e-05)
(-2.4103e-05 4.8105e-05 -4.8106e-05)
(-2.4132e-05 3.7786e-05 -5.6456e-05)
(-2.4151e-05 2.5962e-05 -6.268e-05)
(-2.4106e-05 1.3204e-05 -6.6663e-05)
(-2.4067e-05 -4.2579e-11 -6.8065e-05)
(-2.6112e-05 5.8652e-05 -1.1631e-05)
(-2.6145e-05 5.5196e-05 -2.2867e-05)
(-2.6138e-05 4.9718e-05 -3.3271e-05)
(-2.6124e-05 4.2351e-05 -4.2353e-05)
(-2.6139e-05 3.327e-05 -4.9719e-05)
(-2.6146e-05 2.2866e-05 -5.5196e-05)
(-2.6113e-05 1.163e-05 -5.8653e-05)
(-2.6087e-05 -2.1592e-10 -5.9854e-05)
(-2.7701e-05 5.0689e-05 -1.0056e-05)
(-2.7722e-05 4.7728e-05 -1.9772e-05)
(-2.7727e-05 4.3012e-05 -2.8777e-05)
(-2.7724e-05 3.6637e-05 -3.6638e-05)
(-2.7727e-05 2.8776e-05 -4.3013e-05)
(-2.7723e-05 1.9771e-05 -4.7729e-05)
(-2.7701e-05 1.0055e-05 -5.069e-05)
(-2.7687e-05 -4.3471e-10 -5.1708e-05)
(-2.8817e-05 4.3068e-05 -8.5345e-06)
(-2.8841e-05 4.0563e-05 -1.6796e-05)
(-2.8836e-05 3.6584e-05 -2.4477e-05)
(-2.8824e-05 3.1181e-05 -3.1182e-05)
(-2.8836e-05 2.4476e-05 -3.6585e-05)
(-2.8842e-05 1.6795e-05 -4.0564e-05)
(-2.8817e-05 8.5332e-06 -4.3069e-05)
(-2.8799e-05 -5.224e-10 -4.3936e-05)
(-2.9435e-05 3.5964e-05 -7.1075e-06)
(-2.9466e-05 3.3862e-05 -1.4013e-05)
(-2.9444e-05 3.058e-05 -2.0475e-05)
(-2.942e-05 2.6106e-05 -2.6107e-05)
(-2.9444e-05 2.0473e-05 -3.0581e-05)
(-2.9466e-05 1.4012e-05 -3.3863e-05)
(-2.9435e-05 7.1062e-06 -3.5965e-05)
(-2.9408e-05 -7.3227e-10 -3.6713e-05)
(-2.9444e-07 -2.0175e-05 -0.0001016)
(3.2506e-06 -1.985e-05 -9.9844e-05)
(-3.0473e-07 -3.9532e-05 -9.5402e-05)
(3.2674e-06 -3.8878e-05 -9.3751e-05)
(-3.2302e-07 -5.73e-05 -8.5677e-05)
(3.2528e-06 -5.6294e-05 -8.4163e-05)
(-3.3364e-07 -7.2849e-05 -7.2849e-05)
(3.2382e-06 -7.1533e-05 -7.1533e-05)
(-3.2284e-07 -8.5678e-05 -5.73e-05)
(3.2529e-06 -8.4163e-05 -5.6294e-05)
(-3.0438e-07 -9.5404e-05 -3.9533e-05)
(3.2676e-06 -9.3752e-05 -3.8879e-05)
(-2.9395e-07 -0.0001016 -2.0176e-05)
(3.2509e-06 -9.9847e-05 -1.985e-05)
(-4.0569e-06 -1.9967e-05 -0.0001007)
(-4.0881e-06 -3.9154e-05 -9.4556e-05)
(-4.1027e-06 -5.6826e-05 -8.4966e-05)
(-4.1056e-06 -7.2296e-05 -7.2297e-05)
(-4.1024e-06 -8.4966e-05 -5.6827e-05)
(-4.0877e-06 -9.4557e-05 -3.9155e-05)
(-4.0563e-06 -0.0001007 -1.9968e-05)
(-7.9739e-06 -1.9339e-05 -9.7499e-05)
(-8.0095e-06 -3.7938e-05 -9.1591e-05)
(-8.0178e-06 -5.5068e-05 -8.2329e-05)
(-8.0127e-06 -7.0047e-05 -7.0047e-05)
(-8.0176e-06 -8.2328e-05 -5.5069e-05)
(-8.0091e-06 -9.1591e-05 -3.7939e-05)
(-7.9733e-06 -9.7501e-05 -1.9341e-05)
(-1.1875e-05 -1.8434e-05 -9.286e-05)
(-1.1913e-05 -3.6165e-05 -8.7256e-05)
(-1.1912e-05 -5.2495e-05 -7.8462e-05)
(-1.1899e-05 -6.6758e-05 -6.6759e-05)
(-1.1911e-05 -7.8462e-05 -5.2496e-05)
(-1.1913e-05 -8.7255e-05 -3.6166e-05)
(-1.1875e-05 -9.2861e-05 -1.8436e-05)
(-1.5557e-05 -1.7356e-05 -8.7478e-05)
(-1.5585e-05 -3.407e-05 -8.2218e-05)
(-1.5594e-05 -4.9485e-05 -7.3954e-05)
(-1.5593e-05 -6.295e-05 -6.2951e-05)
(-1.5594e-05 -7.3953e-05 -4.9486e-05)
(-1.5585e-05 -8.2217e-05 -3.4071e-05)
(-1.5557e-05 -8.7478e-05 -1.7357e-05)
(-1.8859e-05 -1.6124e-05 -8.1373e-05)
(-1.8882e-05 -3.1677e-05 -7.6477e-05)
(-1.8897e-05 -4.6057e-05 -6.8823e-05)
(-1.8907e-05 -5.862e-05 -5.8621e-05)
(-1.8897e-05 -6.8821e-05 -4.6058e-05)
(-1.8882e-05 -7.6476e-05 -3.1678e-05)
(-1.8859e-05 -8.1372e-05 -1.6125e-05)
(-2.17e-05 -1.4732e-05 -7.4367e-05)
(-2.1733e-05 -2.8953e-05 -6.9913e-05)
(-2.1734e-05 -4.2116e-05 -6.2938e-05)
(-2.1725e-05 -5.3608e-05 -5.361e-05)
(-2.1734e-05 -6.2937e-05 -4.2117e-05)
(-2.1733e-05 -6.9911e-05 -2.8954e-05)
(-2.1701e-05 -7.4367e-05 -1.4732e-05)
(-2.4106e-05 -1.3204e-05 -6.6663e-05)
(-2.4151e-05 -2.5962e-05 -6.2681e-05)
(-2.4132e-05 -3.7787e-05 -5.6456e-05)
(-2.4104e-05 -4.8105e-05 -4.8106e-05)
(-2.4133e-05 -5.6455e-05 -3.7787e-05)
(-2.4151e-05 -6.268e-05 -2.5963e-05)
(-2.4106e-05 -6.6662e-05 -1.3205e-05)
(-2.6113e-05 -1.163e-05 -5.8653e-05)
(-2.6146e-05 -2.2866e-05 -5.5196e-05)
(-2.6139e-05 -3.327e-05 -4.9719e-05)
(-2.6125e-05 -4.2352e-05 -4.2352e-05)
(-2.6139e-05 -4.9718e-05 -3.3271e-05)
(-2.6146e-05 -5.5195e-05 -2.2867e-05)
(-2.6114e-05 -5.8652e-05 -1.1631e-05)
(-2.7701e-05 -1.0056e-05 -5.069e-05)
(-2.7723e-05 -1.9772e-05 -4.7729e-05)
(-2.7727e-05 -2.8776e-05 -4.3013e-05)
(-2.7725e-05 -3.6638e-05 -3.6638e-05)
(-2.7727e-05 -4.3013e-05 -2.8777e-05)
(-2.7723e-05 -4.7728e-05 -1.9772e-05)
(-2.7702e-05 -5.0689e-05 -1.0056e-05)
(-2.8818e-05 -8.5343e-06 -4.3068e-05)
(-2.8842e-05 -1.6796e-05 -4.0564e-05)
(-2.8836e-05 -2.4477e-05 -3.6585e-05)
(-2.8825e-05 -3.1182e-05 -3.1182e-05)
(-2.8836e-05 -3.6585e-05 -2.4477e-05)
(-2.8842e-05 -4.0563e-05 -1.6796e-05)
(-2.8818e-05 -4.3068e-05 -8.5342e-06)
(-2.9435e-05 -7.1076e-06 -3.5965e-05)
(-2.9466e-05 -1.4013e-05 -3.3863e-05)
(-2.9445e-05 -2.0474e-05 -3.0581e-05)
(-2.9421e-05 -2.6107e-05 -2.6107e-05)
(-2.9445e-05 -3.0581e-05 -2.0474e-05)
(-2.9467e-05 -3.3862e-05 -1.4013e-05)
(-2.9436e-05 -3.5964e-05 -7.1072e-06)
)
;
    }
    procBoundary2to1
    {
        type            processor;
    }
    procBoundary2to3
    {
        type            processor;
    }
}


// ************************************************************************* //
