/*--------------------------------*- C++ -*----------------------------------*\
| =========                 |                                                 |
| \\      /  F ield         | OpenFOAM: The Open Source CFD Toolbox           |
|  \\    /   O peration     | Version:  4.1                                   |
|   \\  /    A nd           | Web:      www.OpenFOAM.org                      |
|    \\/     M anipulation  |                                                 |
\*---------------------------------------------------------------------------*/
FoamFile
{
    version     2.0;
    format      ascii;
    class       volVectorField;
    location    "0.0067";
    object      U;
}
// * * * * * * * * * * * * * * * * * * * * * * * * * * * * * * * * * * * * * //

dimensions      [0 1 -1 0 0 0 0];

internalField   nonuniform List<vector> 
1536
(
(0.10369 -0.014876 1.793e-06)
(0.11552 -0.015793 2.1635e-06)
(0.12812 -0.016399 2.4657e-06)
(0.1412 -0.016503 2.4982e-06)
(0.15434 -0.015947 2.3911e-06)
(0.16702 -0.014653 2.1174e-06)
(0.17867 -0.012614 1.6395e-06)
(0.18874 -0.0098196 1.0692e-06)
(0.19665 -0.0062415 3.7027e-07)
(0.20198 -0.0019924 -7.6717e-07)
(0.20483 0.0024397 -2.1843e-06)
(0.20435 0.0069303 -1.7905e-06)
(0.10388 -0.010801 0.0013035)
(0.11565 -0.011523 0.0012596)
(0.12815 -0.012031 0.0011616)
(0.14108 -0.012197 0.00099058)
(0.15404 -0.01191 0.00073365)
(0.16653 -0.01111 0.00038534)
(0.178 -0.0097901 -5.2154e-05)
(0.18789 -0.0079652 -0.00057179)
(0.19567 -0.0056708 -0.0011553)
(0.20091 -0.003061 -0.0017386)
(0.20355 -0.00040621 -0.0020818)
(0.20281 0.0029872 -0.0019356)
(0.10399 -0.008673 0.0031268)
(0.11571 -0.0092484 0.0032681)
(0.12813 -0.0096511 0.0033323)
(0.14096 -0.0097808 0.003281)
(0.1538 -0.0095497 0.0030833)
(0.16616 -0.0089072 0.0027248)
(0.17749 -0.0078407 0.0022069)
(0.18724 -0.0063567 0.0015396)
(0.19489 -0.0044859 0.00075644)
(0.20001 -0.0023394 -5.1936e-05)
(0.20238 -3.921e-05 -0.00075466)
(0.20156 0.0028709 -0.0013063)
(0.10405 -0.0065816 0.0047113)
(0.11575 -0.0069955 0.0049753)
(0.12813 -0.0072734 0.005134)
(0.14091 -0.0073387 0.0051323)
(0.15369 -0.0071253 0.0049226)
(0.16598 -0.0065947 0.0044785)
(0.17724 -0.0057371 0.0037947)
(0.18693 -0.0045586 0.0028776)
(0.19452 -0.0030926 0.00176)
(0.19958 -0.0014424 0.00053673)
(0.20189 0.00026094 -0.0006666)
(0.20102 0.0022323 -0.0020201)
(0.10405 -0.0047046 0.0065884)
(0.11575 -0.0049684 0.0070026)
(0.12813 -0.0051278 0.0072798)
(0.14091 -0.0051269 0.0073444)
(0.15369 -0.004918 0.0071302)
(0.16598 -0.0044743 0.0065991)
(0.17724 -0.0037909 0.005741)
(0.18693 -0.0028743 0.0045619)
(0.19452 -0.0017576 0.0030952)
(0.19958 -0.00053548 0.0014441)
(0.20189 0.00066661 -0.00026006)
(0.20102 0.0020196 -0.0022322)
(0.10399 -0.0031204 0.0086795)
(0.11572 -0.0032624 0.0092547)
(0.12813 -0.0033278 0.0096563)
(0.14096 -0.0032774 0.0097851)
(0.15381 -0.0030804 0.0095532)
(0.16616 -0.0027219 0.0089104)
(0.17749 -0.0022042 0.0078436)
(0.18724 -0.0015374 0.0063589)
(0.19489 -0.00075511 0.0044874)
(0.20001 5.1882e-05 0.0023401)
(0.20238 0.00075335 3.9312e-05)
(0.20156 0.001305 -0.0028716)
(0.10388 -0.0012977 0.010806)
(0.11566 -0.0012544 0.011528)
(0.12815 -0.001158 0.012036)
(0.14108 -0.00098808 0.012201)
(0.15404 -0.00073174 0.011913)
(0.16653 -0.0003832 0.011113)
(0.178 5.4114e-05 0.0097925)
(0.18789 0.00057295 0.0079669)
(0.19567 0.0011557 0.0056721)
(0.20091 0.0017373 0.0030616)
(0.20355 0.0020785 0.00040662)
(0.20281 0.0019327 -0.0029873)
(0.10369 4.4244e-07 0.014875)
(0.11552 2.1592e-07 0.015794)
(0.12812 3.7561e-08 0.016401)
(0.1412 -1.3106e-07 0.016505)
(0.15434 -1.2222e-07 0.015949)
(0.16702 -9.4616e-08 0.014655)
(0.17867 6.4878e-08 0.012616)
(0.18874 4.6357e-07 0.0098217)
(0.19666 1.0349e-06 0.0062442)
(0.20198 1.5287e-06 0.0019966)
(0.20483 1.763e-06 -0.0024327)
(0.20435 2.4632e-06 -0.0069227)
(0.10388 -0.010801 -0.0012991)
(0.11565 -0.011524 -0.0012543)
(0.12814 -0.012032 -0.0011556)
(0.14107 -0.012197 -0.00098457)
(0.15404 -0.01191 -0.00072803)
(0.16652 -0.01111 -0.00038055)
(0.17799 -0.0097897 5.5743e-05)
(0.18788 -0.0079646 0.000574)
(0.19567 -0.0056699 0.0011559)
(0.20091 -0.0030601 0.0017368)
(0.20354 -0.00040588 0.0020766)
(0.2028 0.0029874 0.0019304)
(0.10419 -0.0087695 2.3988e-06)
(0.11594 -0.0094035 2.778e-06)
(0.12839 -0.0098761 3.1182e-06)
(0.14125 -0.010091 3.1433e-06)
(0.15413 -0.0099629 3.0332e-06)
(0.16652 -0.0094401 2.6825e-06)
(0.17789 -0.0085079 2.0147e-06)
(0.1877 -0.0071727 1.2544e-06)
(0.19543 -0.0054636 4.0672e-07)
(0.20067 -0.0034714 -7.9405e-07)
(0.20321 -0.0012692 -2.3848e-06)
(0.20222 0.0018057 -3.0034e-06)
(0.10431 -0.0069445 0.0016104)
(0.11603 -0.0074363 0.0017126)
(0.12842 -0.0077971 0.001783)
(0.14119 -0.0079513 0.0018046)
(0.15396 -0.0078315 0.0017638)
(0.16623 -0.0073953 0.0016541)
(0.17748 -0.006628 0.0014762)
(0.18717 -0.0055335 0.0012373)
(0.19478 -0.0041364 0.00095673)
(0.19991 -0.0024995 0.00067636)
(0.20224 -0.0006396 0.00045558)
(0.20119 0.0017635 0.00024236)
(0.10438 -0.0051031 0.0033164)
(0.11607 -0.0054526 0.0035339)
(0.12843 -0.0057036 0.0036855)
(0.14116 -0.0058014 0.0037361)
(0.15387 -0.0056973 0.0036548)
(0.16608 -0.0053615 0.0034236)
(0.17727 -0.0047847 0.0030382)
(0.18689 -0.0039723 0.0025047)
(0.19445 -0.0029498 0.0018466)
(0.19952 -0.0017755 0.0011137)
(0.2018 -0.00048774 0.00034198)
(0.20072 0.0010943 -0.00063)
(0.10438 -0.0033111 0.0051093)
(0.11607 -0.0035288 0.0054588)
(0.12843 -0.003681 0.0057092)
(0.14116 -0.0037322 0.0058063)
(0.15387 -0.0036515 0.0057016)
(0.16608 -0.0034208 0.0053653)
(0.17727 -0.0030357 0.004788)
(0.18689 -0.0025028 0.003975)
(0.19445 -0.0018453 0.0029518)
(0.19952 -0.0011131 0.0017766)
(0.2018 -0.00034195 0.00048805)
(0.20072 0.00063038 -0.001094)
(0.10431 -0.0016061 0.0069516)
(0.11603 -0.0017088 0.0074433)
(0.12842 -0.0017796 0.007803)
(0.14119 -0.0018017 0.0079563)
(0.15396 -0.0017613 0.0078356)
(0.16623 -0.001652 0.0073989)
(0.17748 -0.0014746 0.0066313)
(0.18717 -0.0012362 0.0055363)
(0.19478 -0.00095603 0.0041384)
(0.19991 -0.00067623 0.0025005)
(0.20224 -0.00045581 0.00063951)
(0.20119 -0.00024195 -0.001764)
(0.10419 1.6092e-06 0.008777)
(0.11594 1.0595e-06 0.0094107)
(0.12839 5.0457e-07 0.0098815)
(0.14125 1.3538e-08 0.010095)
(0.15413 -3.436e-07 0.0099661)
(0.16652 -5.1535e-07 0.0094434)
(0.1779 -4.0439e-07 0.008511)
(0.1877 9.1723e-09 0.0071753)
(0.19543 6.9521e-07 0.0054654)
(0.20068 1.3141e-06 0.0034717)
(0.20321 1.3878e-06 0.0012673)
(0.20222 2.0022e-06 -0.001808)
(0.10388 0.0013005 0.010805)
(0.11565 0.0012558 0.011528)
(0.12814 0.0011587 0.012035)
(0.14108 0.00098814 0.0122)
(0.15404 0.00073148 0.011912)
(0.16653 0.00038279 0.011112)
(0.17799 -5.4319e-05 0.0097917)
(0.18789 -0.00057251 0.007966)
(0.19567 -0.0011542 0.0056713)
(0.20091 -0.0017347 0.0030611)
(0.20354 -0.0020753 0.00040607)
(0.2028 -0.0019278 -0.0029878)
(0.10399 -0.0086735 -0.0031218)
(0.11571 -0.0092487 -0.0032623)
(0.12813 -0.0096512 -0.0033259)
(0.14096 -0.0097808 -0.0032747)
(0.1538 -0.0095496 -0.0030776)
(0.16615 -0.0089069 -0.00272)
(0.17748 -0.0078404 -0.0022031)
(0.18723 -0.0063563 -0.0015371)
(0.19488 -0.0044855 -0.00075572)
(0.2 -0.0023393 5.0569e-05)
(0.20237 -4.0045e-05 0.00075129)
(0.20155 0.0028708 0.0013036)
(0.10431 -0.0069446 -0.0016054)
(0.11603 -0.0074363 -0.0017069)
(0.12841 -0.007797 -0.0017766)
(0.14119 -0.0079512 -0.0017981)
(0.15396 -0.0078313 -0.0017577)
(0.16623 -0.007395 -0.0016488)
(0.17748 -0.0066278 -0.0014721)
(0.18716 -0.0055334 -0.0012347)
(0.19478 -0.0041363 -0.00095584)
(0.1999 -0.0024996 -0.0006776)
(0.20223 -0.00064005 -0.00045906)
(0.20118 0.0017639 -0.0002466)
(0.10442 -0.0051931 2.5849e-06)
(0.1161 -0.0055565 2.9496e-06)
(0.12842 -0.0058207 3.2231e-06)
(0.1411 -0.0059299 3.2514e-06)
(0.15376 -0.0058338 3.0829e-06)
(0.16592 -0.0054999 2.7044e-06)
(0.17705 -0.0049156 2.142e-06)
(0.18662 -0.0040826 1.4269e-06)
(0.19413 -0.0030181 5.9232e-07)
(0.19917 -0.0017599 -3.6317e-07)
(0.20136 -0.00030015 -1.2631e-06)
(0.20022 0.0015448 -2.0675e-06)
(0.10447 -0.0034248 0.0016905)
(0.11612 -0.0036596 0.0018037)
(0.12841 -0.0038279 0.0018834)
(0.14105 -0.0038933 0.0019117)
(0.15365 -0.0038231 0.0018727)
(0.16574 -0.0035963 0.0017563)
(0.1768 -0.0032051 0.0015588)
(0.18631 -0.0026515 0.001282)
(0.19377 -0.0019494 0.00093393)
(0.19876 -0.0011259 0.00053005)
(0.20091 -0.00017837 6.39e-05)
(0.19973 0.00099706 -0.00055245)
(0.10447 -0.0016859 0.0034302)
(0.11612 -0.0017992 0.0036649)
(0.12841 -0.0018792 0.0038328)
(0.14105 -0.0019079 0.0038976)
(0.15365 -0.0018694 0.0038268)
(0.16574 -0.0017534 0.0035996)
(0.1768 -0.0015564 0.0032078)
(0.18631 -0.00128 0.0026537)
(0.19377 -0.00093248 0.001951)
(0.19876 -0.0005292 0.0011268)
(0.20091 -6.3571e-05 0.00017859)
(0.19973 0.00055287 -0.00099679)
(0.10442 1.2989e-06 0.0051994)
(0.1161 8.2905e-07 0.0055626)
(0.12842 4.9372e-07 0.005826)
(0.1411 2.2633e-07 0.0059344)
(0.15376 5.0842e-08 0.0058375)
(0.16592 -2.5301e-08 0.0055031)
(0.17705 4.2203e-08 0.0049183)
(0.18662 3.2097e-07 0.0040848)
(0.19413 7.2908e-07 0.0030197)
(0.19917 1.1598e-06 0.0017605)
(0.20136 1.5147e-06 0.00029987)
(0.20022 1.9526e-06 -0.0015454)
(0.10431 0.001609 0.0069519)
(0.11603 0.0017104 0.0074431)
(0.12841 0.0017805 0.0078028)
(0.14119 0.0018021 0.007956)
(0.15396 0.0017614 0.0078353)
(0.16623 0.0016519 0.0073985)
(0.17748 0.0014746 0.0066308)
(0.18716 0.0012368 0.0055358)
(0.19478 0.00095748 0.0041379)
(0.1999 0.00067852 0.0024998)
(0.20223 0.00045874 0.00063873)
(0.20118 0.00024593 -0.0017643)
(0.10399 0.0031228 0.0086791)
(0.11571 0.0032637 0.0092542)
(0.12813 0.0033286 0.0096557)
(0.14096 0.0032778 0.0097842)
(0.1538 0.0030807 0.0095521)
(0.16615 0.0027223 0.0089093)
(0.17748 0.0022048 0.0078426)
(0.18723 0.0015386 0.0063581)
(0.19489 0.00075698 0.004487)
(0.2 -4.9053e-05 0.0023399)
(0.20238 -0.00074935 3.8803e-05)
(0.20155 -0.0013 -0.0028719)
(0.10405 -0.0065819 -0.0047061)
(0.11575 -0.0069958 -0.0049692)
(0.12813 -0.0072735 -0.0051275)
(0.14091 -0.0073389 -0.0051258)
(0.15369 -0.0071256 -0.0049166)
(0.16598 -0.006595 -0.0044733)
(0.17724 -0.0057375 -0.0037905)
(0.18692 -0.0045591 -0.0028746)
(0.19451 -0.0030932 -0.0017587)
(0.19957 -0.0014434 -0.0005375)
(0.20189 0.00025899 0.0006636)
(0.20102 0.0022313 0.0020178)
(0.10438 -0.0051032 -0.0033112)
(0.11607 -0.0054526 -0.0035279)
(0.12842 -0.0057036 -0.003679)
(0.14116 -0.0058014 -0.0037295)
(0.15387 -0.0056975 -0.0036486)
(0.16608 -0.0053618 -0.0034183)
(0.17727 -0.004785 -0.0030339)
(0.18689 -0.0039726 -0.0025018)
(0.19445 -0.0029502 -0.0018454)
(0.19952 -0.0017761 -0.0011145)
(0.20179 -0.0004888 -0.00034479)
(0.20071 0.0010937 0.0006271)
(0.10447 -0.0034248 -0.0016853)
(0.11612 -0.0036596 -0.0017977)
(0.12841 -0.0038279 -0.0018769)
(0.14105 -0.0038934 -0.0019051)
(0.15365 -0.0038232 -0.0018664)
(0.16574 -0.0035965 -0.0017507)
(0.1768 -0.0032052 -0.0015544)
(0.18631 -0.0026517 -0.0012789)
(0.19377 -0.0019495 -0.00093253)
(0.19876 -0.0011261 -0.00053048)
(0.20091 -0.00017872 -6.5984e-05)
(0.19973 0.00099602 0.00054943)
(0.10451 -0.0017099 2.6298e-06)
(0.11613 -0.0018264 2.9981e-06)
(0.12838 -0.0019095 3.2409e-06)
(0.14096 -0.0019411 3.3065e-06)
(0.15351 -0.0019051 3.1776e-06)
(0.16553 -0.0017912 2.8372e-06)
(0.17652 -0.0015952 2.3002e-06)
(0.18597 -0.0013186 1.6008e-06)
(0.19337 -0.00096817 7.7586e-07)
(0.19831 -0.00055721 -9.6585e-08)
(0.20041 -8.6954e-05 -8.3535e-07)
(0.19919 0.00046964 -9.3015e-07)
(0.10451 1.1051e-06 0.0017145)
(0.11613 7.6676e-07 0.0018309)
(0.12838 4.2489e-07 0.0019137)
(0.14096 1.6527e-07 0.001945)
(0.15351 -1.6468e-09 0.0019086)
(0.16553 -5.2431e-08 0.0017941)
(0.17652 3.4532e-08 0.0015977)
(0.18597 3.123e-07 0.0013206)
(0.19337 7.0929e-07 0.00096966)
(0.19831 1.1107e-06 0.00055811)
(0.20041 1.4241e-06 8.7332e-05)
(0.19919 1.7042e-06 -0.00046914)
(0.10447 0.0016882 0.0034304)
(0.11612 0.0018007 0.003665)
(0.12841 0.0018801 0.0038328)
(0.14105 0.0019083 0.0038976)
(0.15365 0.0018694 0.0038269)
(0.16574 0.0017533 0.0035995)
(0.1768 0.0015565 0.0032078)
(0.18631 0.0012807 0.0026537)
(0.19377 0.000934 0.0019509)
(0.19876 0.00053159 0.0011268)
(0.20091 6.666e-05 0.00017862)
(0.19973 -0.00054925 -0.00099676)
(0.10438 0.0033137 0.00511)
(0.11607 0.0035305 0.0054591)
(0.12843 0.003682 0.0057094)
(0.14116 0.0037326 0.0058064)
(0.15387 0.0036517 0.0057016)
(0.16608 0.0034209 0.0053652)
(0.17727 0.003036 0.0047878)
(0.18689 0.0025036 0.0039747)
(0.19445 0.0018469 0.0029515)
(0.19952 0.0011157 0.0017764)
(0.2018 0.00034538 0.00048795)
(0.20071 -0.00062644 -0.0010935)
(0.10405 0.0047069 0.0065895)
(0.11575 0.0049703 0.0070031)
(0.12813 0.005129 0.00728)
(0.14091 0.0051274 0.0073442)
(0.15369 0.0049181 0.0071298)
(0.16598 0.0044744 0.0065985)
(0.17724 0.0037913 0.0057403)
(0.18692 0.0028754 0.0045613)
(0.19451 0.0017598 0.0030947)
(0.19957 0.00053895 0.0014437)
(0.20189 -0.00066201 -0.0002604)
(0.20102 -0.0020145 -0.0022315)
(0.10405 -0.0047046 -0.0065829)
(0.11575 -0.0049683 -0.0069962)
(0.12813 -0.0051277 -0.007273)
(0.14091 -0.0051269 -0.0073376)
(0.15369 -0.0049182 -0.0071237)
(0.16598 -0.0044747 -0.0065934)
(0.17724 -0.0037914 -0.0057365)
(0.18692 -0.0028749 -0.0045587)
(0.19451 -0.0017583 -0.0030937)
(0.19957 -0.00053646 -0.0014446)
(0.20189 0.00066485 0.00025718)
(0.20102 0.0020193 0.0022297)
(0.10438 -0.0033112 -0.005104)
(0.11607 -0.0035288 -0.0054527)
(0.12843 -0.0036811 -0.0057027)
(0.14116 -0.0037323 -0.0057996)
(0.15387 -0.0036518 -0.0056951)
(0.16608 -0.0034212 -0.0053596)
(0.17727 -0.0030363 -0.0047834)
(0.18689 -0.0025033 -0.0039717)
(0.19445 -0.0018458 -0.0029502)
(0.19952 -0.0011139 -0.001777)
(0.20179 -0.00034339 -0.00049032)
(0.20071 0.00062907 0.0010917)
(0.10447 -0.001686 -0.0034249)
(0.11612 -0.0017992 -0.0036589)
(0.12841 -0.0018792 -0.0038262)
(0.14105 -0.001908 -0.0038909)
(0.15365 -0.0018696 -0.0038204)
(0.16574 -0.0017537 -0.0035938)
(0.1768 -0.0015567 -0.0032031)
(0.18631 -0.0012803 -0.0026504)
(0.19377 -0.00093279 -0.0019493)
(0.19876 -0.00052963 -0.0011269)
(0.20091 -6.4258e-05 -0.0001803)
(0.19973 0.0005512 0.0009941)
(0.10451 1.0562e-06 -0.0017092)
(0.11613 7.2845e-07 -0.0018249)
(0.12838 3.805e-07 -0.0019072)
(0.14096 9.0683e-08 -0.0019383)
(0.15351 -1.1558e-07 -0.0019021)
(0.16553 -2.0079e-07 -0.0017883)
(0.17652 -1.2304e-07 -0.001593)
(0.18596 1.6792e-07 -0.0013172)
(0.19337 5.5835e-07 -0.00096794)
(0.19831 9.0664e-07 -0.00055809)
(0.20041 1.1371e-06 -8.8722e-05)
(0.19919 1.3786e-06 0.00046755)
(0.10451 0.001712 2.6896e-06)
(0.11613 0.0018278 3.0581e-06)
(0.12838 0.0019102 3.3061e-06)
(0.14096 0.0019413 3.4047e-06)
(0.15351 0.0019051 3.3176e-06)
(0.16553 0.001791 3.0139e-06)
(0.17652 0.0015952 2.4774e-06)
(0.18597 0.0013191 1.7713e-06)
(0.19337 0.00096951 9.5386e-07)
(0.19831 0.00055931 1.3238e-07)
(0.20041 8.9609e-05 -5.2297e-07)
(0.19919 -0.00046651 -6.0527e-07)
(0.10447 0.0034268 0.0016907)
(0.11612 0.003661 0.0018038)
(0.12841 0.0038287 0.0018835)
(0.14105 0.0038936 0.0019119)
(0.15365 0.0038232 0.0018729)
(0.16574 0.0035963 0.0017565)
(0.1768 0.0032053 0.0015591)
(0.18631 0.0026523 0.0012822)
(0.19377 0.0019511 0.00093422)
(0.19876 0.0011284 0.00053045)
(0.20091 0.00018149 6.4438e-05)
(0.19973 -0.0009937 -0.00055198)
(0.10438 0.0051051 0.0033169)
(0.11607 0.005454 0.0035342)
(0.12843 0.0057044 0.0036858)
(0.14116 0.0058018 0.0037364)
(0.15387 0.0056976 0.0036552)
(0.16608 0.0053619 0.003424)
(0.17727 0.0047852 0.0030385)
(0.18689 0.0039735 0.0025051)
(0.19445 0.002952 0.0018471)
(0.19952 0.0017786 0.0011144)
(0.2018 0.00049168 0.00034291)
(0.20072 -0.0010901 -0.00062862)
(0.10405 0.0065836 0.0047127)
(0.11575 0.0069972 0.0049762)
(0.12813 0.0072742 0.0051345)
(0.14091 0.007339 0.0051323)
(0.15369 0.0071254 0.0049222)
(0.16598 0.0065948 0.0044779)
(0.17724 0.0057374 0.003794)
(0.18692 0.0045597 0.002877)
(0.19451 0.003095 0.0017596)
(0.19958 0.001446 0.00053658)
(0.20189 -0.00025607 -0.00066648)
(0.20102 -0.0022272 -0.0020184)
(0.10399 -0.0031201 -0.0086736)
(0.11571 -0.0032618 -0.0092479)
(0.12813 -0.003327 -0.0096492)
(0.14096 -0.0032769 -0.0097779)
(0.1538 -0.0030802 -0.0095463)
(0.16615 -0.0027222 -0.0089041)
(0.17748 -0.0022048 -0.0078383)
(0.18723 -0.001538 -0.0063549)
(0.19488 -0.00075569 -0.0044852)
(0.2 5.1e-05 -0.00234)
(0.20237 0.00075116 -4.1827e-05)
(0.20155 0.0013047 0.0028688)
(0.10431 -0.0016061 -0.0069462)
(0.11603 -0.0017087 -0.007437)
(0.12841 -0.0017795 -0.0077963)
(0.14119 -0.0018018 -0.0079494)
(0.15396 -0.0017618 -0.0078289)
(0.16623 -0.0016528 -0.0073928)
(0.17748 -0.0014755 -0.0066262)
(0.18716 -0.0012369 -0.0055326)
(0.19478 -0.00095673 -0.0041363)
(0.1999 -0.0006772 -0.0025004)
(0.20223 -0.00045761 -0.0006412)
(0.20118 -0.0002439 0.0017618)
(0.10442 1.1998e-06 -0.0051941)
(0.1161 7.8883e-07 -0.0055565)
(0.12842 4.0413e-07 -0.0058195)
(0.1411 2.0468e-08 -0.0059276)
(0.15376 -3.1674e-07 -0.0058309)
(0.16592 -5.3178e-07 -0.0054971)
(0.17705 -4.7519e-07 -0.0049134)
(0.18662 -1.2634e-07 -0.0040813)
(0.19413 3.0688e-07 -0.0030179)
(0.19917 6.192e-07 -0.0017606)
(0.20136 7.6166e-07 -0.00030148)
(0.20022 1.1134e-06 0.0015422)
(0.10447 0.0016881 -0.0034251)
(0.11612 0.0018006 -0.0036589)
(0.12841 0.0018799 -0.0038262)
(0.14105 0.0019081 -0.0038908)
(0.15365 0.0018692 -0.0038202)
(0.16574 0.001753 -0.0035935)
(0.1768 0.0015562 -0.0032028)
(0.18631 0.0012804 -0.0026502)
(0.19377 0.00093371 -0.0019491)
(0.19876 0.00053119 -0.0011267)
(0.20091 6.6181e-05 -0.00017998)
(0.19973 -0.00054887 0.00099445)
(0.10447 0.0034267 -0.0016852)
(0.11612 0.0036609 -0.0017976)
(0.12841 0.0038286 -0.0018768)
(0.14105 0.0038935 -0.0019049)
(0.15365 0.003823 -0.0018661)
(0.16574 0.0035961 -0.0017503)
(0.1768 0.003205 -0.0015539)
(0.18631 0.0026521 -0.0012785)
(0.19377 0.0019508 -0.00093212)
(0.19876 0.0011281 -0.00052997)
(0.20091 0.0001811 -6.525e-05)
(0.19973 -0.00099341 0.0005503)
(0.10442 0.0051949 2.7805e-06)
(0.1161 0.0055578 3.1401e-06)
(0.12842 0.0058214 3.4203e-06)
(0.1411 0.00593 3.5726e-06)
(0.15376 0.0058336 3.5475e-06)
(0.16592 0.0054996 3.2752e-06)
(0.17705 0.0049155 2.7262e-06)
(0.18662 0.0040832 2.0005e-06)
(0.19413 0.0030196 1.1903e-06)
(0.19917 0.0017622 4.3577e-07)
(0.20136 0.00030299 -1.5361e-07)
(0.20022 -0.0015421 -1.0149e-06)
(0.10432 0.0069464 0.0016107)
(0.11603 0.0074377 0.0017129)
(0.12842 0.0077978 0.0017833)
(0.14119 0.0079515 0.0018052)
(0.15396 0.0078316 0.0017648)
(0.16623 0.0073954 0.0016551)
(0.17748 0.0066283 0.0014773)
(0.18717 0.0055344 0.0012384)
(0.19478 0.0041384 0.00095786)
(0.19991 0.0025024 0.00067787)
(0.20224 0.00064345 0.00045759)
(0.20119 -0.0017598 0.00024401)
(0.10399 0.0086748 0.003127)
(0.11572 0.0092496 0.003268)
(0.12813 0.0096514 0.0033321)
(0.14096 0.0097801 0.0032811)
(0.1538 0.0095486 0.0030834)
(0.16616 0.0089061 0.0027248)
(0.17748 0.0078398 0.0022071)
(0.18724 0.0063566 0.0015401)
(0.19489 0.0044872 0.00075716)
(0.20001 0.002342 -5.0696e-05)
(0.20238 4.3108e-05 -0.0007529)
(0.20156 -0.0028664 -0.0013032)
(0.10388 -0.0012966 -0.0108)
(0.11565 -0.0012532 -0.011521)
(0.12814 -0.0011568 -0.012028)
(0.14108 -0.00098726 -0.012193)
(0.15404 -0.00073156 -0.011905)
(0.16652 -0.00038377 -0.011106)
(0.17799 5.3254e-05 -0.0097866)
(0.18788 0.00057222 -0.0079625)
(0.19567 0.001155 -0.0056695)
(0.20091 0.0017362 -0.0030614)
(0.20354 0.0020756 -0.00040928)
(0.2028 0.001931 0.0029852)
(0.10419 1.6356e-06 -0.0087719)
(0.11594 1.092e-06 -0.0094047)
(0.12839 2.2318e-07 -0.0098752)
(0.14125 -6.5013e-07 -0.010089)
(0.15413 -1.4453e-06 -0.0099596)
(0.16652 -1.9519e-06 -0.0094372)
(0.17789 -1.8379e-06 -0.0085058)
(0.1877 -1.1812e-06 -0.0071715)
(0.19543 -3.7704e-07 -0.0054635)
(0.20067 -4.9702e-09 -0.003472)
(0.20321 -5.0552e-07 -0.0012695)
(0.20222 2.6298e-07 0.0018052)
(0.10432 0.0016087 -0.0069467)
(0.11603 0.0017103 -0.0074373)
(0.12842 0.0017802 -0.0077965)
(0.14119 0.0018016 -0.0079494)
(0.15396 0.0017608 -0.0078287)
(0.16623 0.0016511 -0.0073924)
(0.17748 0.0014738 -0.0066258)
(0.18717 0.001236 -0.0055323)
(0.19478 0.00095683 -0.0041363)
(0.19991 0.00067778 -0.0025002)
(0.20224 0.00045802 -0.00064061)
(0.20119 0.00024528 0.0017618)
(0.10438 0.0033133 -0.0051046)
(0.11607 0.0035302 -0.005453)
(0.12843 0.0036816 -0.0057027)
(0.14116 0.0037322 -0.0057995)
(0.15387 0.0036512 -0.0056948)
(0.16608 0.0034204 -0.005359)
(0.17727 0.0030356 -0.0047827)
(0.18689 0.0025032 -0.0039711)
(0.19445 0.0018465 -0.0029496)
(0.19952 0.0011152 -0.0017762)
(0.2018 0.00034471 -0.00048929)
(0.20072 -0.00062735 0.0010921)
(0.10438 0.0051048 -0.0033113)
(0.11607 0.0054537 -0.0035279)
(0.12843 0.0057041 -0.003679)
(0.14116 0.0058014 -0.0037293)
(0.15387 0.0056971 -0.0036482)
(0.16608 0.0053613 -0.0034176)
(0.17726 0.0047847 -0.0030332)
(0.18689 0.003973 -0.0025013)
(0.19444 0.0029514 -0.0018448)
(0.19952 0.001778 -0.0011137)
(0.20179 0.00049089 -0.00034361)
(0.20071 -0.0010912 0.00062797)
(0.10431 0.0069462 -0.001605)
(0.11603 0.0074375 -0.0017065)
(0.12841 0.0077975 -0.0017763)
(0.14119 0.0079511 -0.001798)
(0.15396 0.0078311 -0.0017575)
(0.16623 0.0073948 -0.0016484)
(0.17748 0.0066277 -0.0014717)
(0.18716 0.0055338 -0.0012342)
(0.19478 0.0041377 -0.00095532)
(0.1999 0.0025016 -0.00067676)
(0.20223 0.0006424 -0.00045754)
(0.20118 -0.0017615 -0.00024492)
(0.10419 0.0087715 2.7009e-06)
(0.11594 0.0094051 3.1158e-06)
(0.12839 0.0098768 3.5391e-06)
(0.14125 0.010091 3.7037e-06)
(0.15413 0.0099623 3.7535e-06)
(0.16652 0.0094398 3.4275e-06)
(0.17789 0.0085076 2.7835e-06)
(0.1877 0.007173 2.0243e-06)
(0.19543 0.005465 1.2836e-06)
(0.20067 0.0034735 7.0006e-07)
(0.20321 0.0012718 2.1343e-07)
(0.20222 -0.0018031 -4.7471e-07)
(0.10388 0.010803 0.0013031)
(0.11566 0.011525 0.0012588)
(0.12815 0.012032 0.001161)
(0.14108 0.012196 0.0009909)
(0.15404 0.011907 0.00073452)
(0.16653 0.011107 0.00038598)
(0.17799 0.009788 -5.1513e-05)
(0.18789 0.0079642 -0.00057097)
(0.19567 0.0056711 -0.0011543)
(0.20091 0.0030619 -0.0017361)
(0.20355 0.00040809 -0.0020776)
(0.20281 -0.0029836 -0.0019309)
(0.10369 4.873e-07 -0.014867)
(0.11553 -1.2414e-07 -0.015784)
(0.12812 -5.5097e-07 -0.016391)
(0.1412 -9.7275e-07 -0.016495)
(0.15434 -1.2431e-06 -0.01594)
(0.16702 -1.4686e-06 -0.014648)
(0.17867 -1.2739e-06 -0.012611)
(0.18873 -6.6535e-07 -0.0098179)
(0.19665 1.3852e-08 -0.006242)
(0.20198 2.8794e-07 -0.0019961)
(0.20483 -1.0428e-07 0.0024274)
(0.20435 4.5497e-07 0.0069202)
(0.10388 0.0012989 -0.010799)
(0.11566 0.0012545 -0.011521)
(0.12815 0.001157 -0.012028)
(0.14108 0.00098629 -0.012193)
(0.15404 0.00072966 -0.011905)
(0.16653 0.00038119 -0.011106)
(0.17799 -5.568e-05 -0.0097874)
(0.18789 -0.00057359 -0.0079635)
(0.19567 -0.0011553 -0.0056706)
(0.20091 -0.001736 -0.0030627)
(0.20355 -0.0020761 -0.00041043)
(0.20281 -0.0019299 0.0029839)
(0.10399 0.0031215 -0.0086734)
(0.11572 0.0032625 -0.0092478)
(0.12813 0.0033272 -0.0096487)
(0.14097 0.0032766 -0.009777)
(0.15381 0.0030798 -0.009545)
(0.16616 0.0027217 -0.0089027)
(0.17748 0.0022044 -0.0078373)
(0.18724 0.0015383 -0.0063545)
(0.19489 0.00075659 -0.0044854)
(0.20001 -4.9662e-05 -0.0023404)
(0.20238 -0.00074956 -4.1484e-05)
(0.20156 -0.0013026 0.0028688)
(0.10405 0.004706 -0.0065837)
(0.11575 0.0049693 -0.0069965)
(0.12813 0.005128 -0.0072728)
(0.14091 0.0051266 -0.0073368)
(0.15369 0.0049176 -0.0071226)
(0.16598 0.0044742 -0.0065918)
(0.17724 0.0037913 -0.0057349)
(0.18692 0.0028755 -0.0045574)
(0.19451 0.0017597 -0.0030926)
(0.19958 0.00053847 -0.0014433)
(0.20189 -0.00066262 0.00025915)
(0.20102 -0.0020167 0.0022309)
(0.10405 0.0065831 -0.0047068)
(0.11575 0.0069967 -0.0049694)
(0.12813 0.0072738 -0.0051273)
(0.14091 0.0073386 -0.005125)
(0.15369 0.007125 -0.0049153)
(0.16598 0.0065945 -0.0044716)
(0.17723 0.0057373 -0.0037889)
(0.18692 0.0045597 -0.0028733)
(0.19451 0.0030947 -0.0017575)
(0.19957 0.0014455 -0.00053604)
(0.20189 -0.00025671 0.00066539)
(0.20102 -0.0022286 0.0020186)
(0.10399 0.0086748 -0.0031211)
(0.11571 0.0092495 -0.0032615)
(0.12813 0.0096511 -0.0033252)
(0.14096 0.0097797 -0.0032738)
(0.1538 0.0095482 -0.0030764)
(0.16615 0.0089059 -0.0027184)
(0.17748 0.0078398 -0.002202)
(0.18723 0.0063565 -0.0015364)
(0.19488 0.0044868 -0.00075497)
(0.2 0.0023411 5.1461e-05)
(0.20237 4.1886e-05 0.00075256)
(0.20155 -0.0028687 0.0013039)
(0.10388 0.010803 -0.0012976)
(0.11565 0.011525 -0.0012528)
(0.12814 0.012032 -0.0011544)
(0.14108 0.012196 -0.00098402)
(0.15404 0.011907 -0.00072772)
(0.16652 0.011108 -0.0003799)
(0.17799 0.0097884 5.6343e-05)
(0.18788 0.0079644 0.00057437)
(0.19567 0.005671 0.0011562)
(0.20091 0.0030618 0.0017367)
(0.20354 0.00040823 0.002077)
(0.2028 -0.002984 0.0019304)
(0.10369 0.014875 2.0317e-06)
(0.11552 0.015792 2.3839e-06)
(0.12812 0.016396 2.7169e-06)
(0.1412 0.016499 2.9228e-06)
(0.15434 0.015942 3.03e-06)
(0.16702 0.014649 2.785e-06)
(0.17867 0.012611 2.2489e-06)
(0.18873 0.0098187 1.5991e-06)
(0.19665 0.0062427 9.7742e-07)
(0.20198 0.0019953 5.6708e-07)
(0.20483 -0.0024347 3.8463e-07)
(0.20435 -0.0069215 9.2315e-07)
(0.20985 0.0026106 -0.0019769)
(0.21009 -0.0058943 -0.00054128)
(0.2074 -0.013153 0.00064756)
(0.20158 -0.018379 0.0016422)
(0.19287 -0.022083 0.0024921)
(0.18199 -0.024709 0.0032175)
(0.16957 -0.026368 0.0037791)
(0.15615 -0.027029 0.004133)
(0.14232 -0.0267 0.0042714)
(0.12865 -0.025527 0.0042231)
(0.11561 -0.023767 0.0040399)
(0.10348 -0.021719 0.00378)
(0.20792 0.0033314 6.9088e-05)
(0.20827 -0.0039495 0.0017741)
(0.20577 -0.010332 0.0029248)
(0.20037 -0.01513 0.0036013)
(0.19202 -0.018596 0.0041313)
(0.18144 -0.021107 0.0045807)
(0.16925 -0.022761 0.0048967)
(0.15604 -0.023519 0.0050271)
(0.14241 -0.023386 0.0049642)
(0.1289 -0.022484 0.004738)
(0.11597 -0.021039 0.0044)
(0.10389 -0.019313 0.004007)
(0.20745 0.002937 -0.0010061)
(0.20777 -0.0033796 0.002638)
(0.20511 -0.0088272 0.005618)
(0.19967 -0.012992 0.0076462)
(0.19144 -0.016044 0.0090735)
(0.18096 -0.018271 0.010089)
(0.16888 -0.019756 0.010727)
(0.15579 -0.020462 0.01097)
(0.14225 -0.020389 0.01082)
(0.12883 -0.019642 0.010334)
(0.11596 -0.018415 0.0096154)
(0.10393 -0.016934 0.0087783)
(0.20694 0.0023139 -0.0023249)
(0.20736 -0.0031846 0.0020727)
(0.20478 -0.0078669 0.005849)
(0.1994 -0.011391 0.0086998)
(0.19122 -0.013974 0.010783)
(0.18081 -0.015853 0.012304)
(0.16878 -0.017094 0.013312)
(0.15574 -0.017668 0.013787)
(0.14227 -0.017579 0.013734)
(0.12889 -0.016918 0.013228)
(0.11606 -0.015851 0.012399)
(0.10404 -0.014567 0.011399)
(0.20694 0.0023263 -0.0023117)
(0.20736 -0.0020711 0.0031868)
(0.20478 -0.005848 0.007868)
(0.1994 -0.008699 0.011392)
(0.19122 -0.010782 0.013974)
(0.18081 -0.012303 0.015854)
(0.16878 -0.01331 0.017096)
(0.15574 -0.013784 0.01767)
(0.14227 -0.013731 0.017582)
(0.12889 -0.013224 0.016921)
(0.11606 -0.012395 0.015855)
(0.10404 -0.011395 0.014571)
(0.20745 0.0010083 -0.0029342)
(0.20777 -0.0026354 0.0033819)
(0.20511 -0.0056159 0.0088287)
(0.19967 -0.0076439 0.012993)
(0.19144 -0.0090711 0.016045)
(0.18096 -0.010087 0.018272)
(0.16888 -0.010724 0.019758)
(0.15579 -0.010966 0.020465)
(0.14225 -0.010816 0.020393)
(0.12883 -0.01033 0.019645)
(0.11596 -0.0096114 0.018419)
(0.10393 -0.0087749 0.016937)
(0.20792 -6.7141e-05 -0.0033289)
(0.20827 -0.0017719 0.0039521)
(0.20577 -0.002922 0.010334)
(0.20037 -0.0035982 0.015132)
(0.19202 -0.004128 0.018597)
(0.18144 -0.0045776 0.021108)
(0.16925 -0.0048941 0.022763)
(0.15604 -0.0050243 0.023521)
(0.14241 -0.0049609 0.023389)
(0.1289 -0.0047343 0.022488)
(0.11596 -0.0043963 0.021043)
(0.10389 -0.0040031 0.019315)
(0.20985 0.0019777 -0.0026095)
(0.21009 0.00054121 0.0058957)
(0.2074 -0.00064621 0.013155)
(0.20158 -0.0016394 0.01838)
(0.19287 -0.0024884 0.022084)
(0.18199 -0.0032135 0.02471)
(0.16957 -0.0037758 0.02637)
(0.15615 -0.0041304 0.027031)
(0.14232 -0.0042689 0.026704)
(0.12865 -0.0042206 0.025531)
(0.11561 -0.0040369 0.023771)
(0.10348 -0.0037769 0.021721)
(0.22249 -0.0011737 -0.00028207)
(0.22139 -0.0064852 0.00059551)
(0.21533 -0.010654 0.0014202)
(0.20638 -0.013387 0.0019421)
(0.1957 -0.015208 0.0022446)
(0.18337 -0.016426 0.0024703)
(0.16952 -0.017099 0.0026317)
(0.15462 -0.017198 0.0026987)
(0.13945 -0.016728 0.0026681)
(0.12478 -0.015781 0.0025503)
(0.1112 -0.01452 0.0023725)
(0.098978 -0.013122 0.0021647)
(0.22149 -0.0004268 0.00013802)
(0.22067 -0.0053183 0.001322)
(0.21491 -0.0093151 0.0024742)
(0.20609 -0.01198 0.0032268)
(0.19553 -0.013753 0.0036466)
(0.18335 -0.014953 0.0039145)
(0.16963 -0.01564 0.0040822)
(0.15485 -0.015787 0.004127)
(0.13977 -0.015403 0.004042)
(0.12517 -0.014571 0.0038415)
(0.11163 -0.013439 0.0035615)
(0.099399 -0.012173 0.0032403)
(0.22117 -9.6343e-05 0.00029633)
(0.22037 -0.0042767 0.0024234)
(0.21472 -0.0077786 0.0042582)
(0.20597 -0.010186 0.0055476)
(0.19542 -0.011794 0.0063874)
(0.18327 -0.012891 0.0069274)
(0.16961 -0.013546 0.0072309)
(0.15488 -0.013731 0.0072974)
(0.13986 -0.013443 0.0071294)
(0.12529 -0.012753 0.0067642)
(0.11176 -0.011791 0.0062633)
(0.099535 -0.010705 0.0056951)
(0.2209 -0.00019307 -8.6863e-06)
(0.22014 -0.0037652 0.0028526)
(0.21456 -0.0067693 0.0052746)
(0.20589 -0.0088487 0.0069732)
(0.19539 -0.010238 0.008119)
(0.18325 -0.011178 0.0088971)
(0.1696 -0.011736 0.009354)
(0.15492 -0.011891 0.0094807)
(0.13992 -0.011643 0.0092875)
(0.12539 -0.01105 0.0088259)
(0.11187 -0.010224 0.0081802)
(0.099646 -0.0092881 0.0074446)
(0.2209 1.0957e-05 0.00019536)
(0.22014 -0.0028508 0.0037672)
(0.21456 -0.0052731 0.0067708)
(0.20589 -0.0069721 0.0088498)
(0.19539 -0.0081179 0.010239)
(0.18325 -0.0088953 0.011179)
(0.1696 -0.0093515 0.011738)
(0.15492 -0.0094778 0.011893)
(0.13992 -0.0092839 0.011646)
(0.12539 -0.0088212 0.011054)
(0.11187 -0.008175 0.010229)
(0.099646 -0.0074397 0.0092929)
(0.22117 -0.0002962 9.7204e-05)
(0.22037 -0.0024227 0.0042775)
(0.21472 -0.004257 0.0077798)
(0.20596 -0.0055465 0.010187)
(0.19542 -0.0063861 0.011795)
(0.18327 -0.0069254 0.012892)
(0.16961 -0.0072282 0.013548)
(0.15489 -0.0072939 0.013733)
(0.13986 -0.0071249 0.013447)
(0.12529 -0.0067589 0.012758)
(0.11176 -0.0062584 0.011796)
(0.099534 -0.0056907 0.010709)
(0.22149 -0.00013852 0.0004258)
(0.22067 -0.0013216 0.005318)
(0.21491 -0.0024726 0.0093158)
(0.20609 -0.0032247 0.011981)
(0.19553 -0.0036443 0.013754)
(0.18336 -0.003912 0.014954)
(0.16963 -0.0040795 0.015642)