/*--------------------------------*- C++ -*----------------------------------*\
  =========                 |
  \\      /  F ield         | OpenFOAM: The Open Source CFD Toolbox
   \\    /   O peration     | Website:  https://openfoam.org
    \\  /    A nd           | Version:  8
     \\/     M anipulation  |
\*---------------------------------------------------------------------------*/
FoamFile
{
    version     2.0;
    format      ascii;
    class       surfaceVectorField;
    location    "0.0725000";
    object      Uf_0;
}
// * * * * * * * * * * * * * * * * * * * * * * * * * * * * * * * * * * * * * //

dimensions      [0 1 -1 0 0 0 0];

internalField   nonuniform List<vector> 
1094
(
(0.590899015254412 0.000542808428103649 -4.48996757115205e-18)
(0.360527284856882 0.00179606109245449 -1.40382129304788e-18)
(0.591090108530129 0.000390477699889397 -8.56044869884636e-18)
(0.362346176204258 0.00191164849665915 -1.00061016802472e-17)
(0.591160857460515 0.000384159677507986 4.82569828927408e-18)
(0.362359811186954 0.00201472920324364 -1.07450658749606e-17)
(0.591036795502036 0.000417674825674433 1.69686970906772e-17)
(0.362201016702568 0.00216157398576369 1.41116495530709e-17)
(0.590799855228258 0.000435248800352959 1.2535835235373e-17)
(0.361800679961775 0.00224736224511384 2.88123997003834e-17)
(0.590513679278046 0.000444626541580542 6.57199132386113e-18)
(0.361273956927852 0.00228899028500468 1.41307023147637e-17)
(0.590207743002295 0.000451293537669341 2.95918101353028e-18)
(0.360697698508198 0.00231067668049919 9.14410373290982e-18)
(0.58989309928101 0.000457097546287554 -3.279379721219e-18)
(0.36010062884591 0.00232573874348979 1.97983510607573e-18)
(0.589571818232894 0.000462279444106854 -6.81772903079126e-18)
(0.359490464607369 0.00233871149533395 -1.60468416353027e-17)
(0.589242770790246 0.000466977316358053 -3.82271386870763e-18)
(0.358867682404981 0.00235059853997454 -1.31819160459806e-17)
(0.58890549464206 0.000471593002272127 1.39805361441877e-17)
(0.358231116481378 0.00236229825152325 -4.10436398187575e-18)
(0.588559577203092 0.000476388613463422 2.00841187858482e-17)
(0.357579990329814 0.0023742657877827 2.11043227294822e-17)
(0.588205937675166 0.00048103110534744 9.46236934983386e-18)
(0.356914267943618 0.00238684973595809 1.5028543915374e-17)
(0.58784245688576 0.000485248637703119 -2.09383264217773e-18)
(0.356233020084816 0.00239872824716271 1.78575034292582e-17)
(0.587468698482761 0.000489334502876418 3.77249649445152e-17)
(0.35553460839847 0.00241042767880082 -4.07568701898121e-17)
(0.58708431907185 0.000493607180867394 3.52449414758151e-17)
(0.354818248797228 0.00242230398309995 1.15403950838973e-16)
(0.586689915560842 0.000497983701987553 1.61520640753797e-17)
(0.354083867880308 0.0024348922764085 2.0919612190271e-17)
(0.586284469403023 0.00050213094163759 3.90106610680414e-17)
(0.353330817275471 0.00244746805262169 1.11142759703571e-16)
(0.585866997645588 0.000506085091805676 3.29171314280665e-17)
(0.352557710092942 0.00245980376594108 5.14475372540952e-17)
(0.585437089572293 0.000510187826173055 4.35370768409668e-17)
(0.351763387884107 0.00247230918536526 1.47269272521917e-16)
(0.584994639967488 0.000514673630944931 4.59506390524055e-17)
(0.350947253831895 0.00248552405010845 1.86165729629969e-16)
(0.58454005025711 0.000519210420765859 -4.23566233566509e-17)
(0.350109043581298 0.00249967917549391 2.47657454763975e-17)
(0.584071271592768 0.000523582737428053 -1.17080114080149e-16)
(0.349247512866606 0.00251358048390211 -1.2557321510207e-16)
(0.583587660535317 0.000528152575400942 -3.50653225437146e-17)
(0.348360793866684 0.00252783452220238 -7.61115605688389e-17)
(0.583088661521557 0.000533349692256097 4.17300999546568e-17)
(0.347447845738358 0.00254290671648339 9.39942438325397e-17)
(0.582575660669649 0.000538872067269324 6.29172964978347e-17)
(0.346508654231383 0.00255967058905511 8.1711436821772e-17)
(0.582046909023433 0.000544234214461881 6.28457627704846e-17)
(0.345542441670038 0.00257641744500552 1.63041904812196e-16)
(0.5815013117729 0.000549747522548801 5.59050311475164e-17)
(0.344547249418485 0.00259341782275833 8.21853710403953e-17)
(0.580937992490716 0.000556087564943569 8.17160275619078e-17)
(0.343521350994265 0.00261140436653524 1.28631249821103e-16)
(0.580357511968141 0.000563480504943853 8.19137024203643e-17)
(0.342464342180769 0.00263163528846122 1.96391481524959e-16)
(0.579760133411932 0.000571207597178273 7.9131239120126e-18)
(0.34137590546294 0.00265368255374167 1.40416468136759e-16)
(0.579143828928642 0.000579006031774671 -6.19176087324296e-17)
(0.340254704331912 0.00267584028705441 -1.0711504705612e-16)
(0.578507932520115 0.000587790566797425 -9.76607301687741e-18)
(0.339098417548674 0.00269917146014162 -1.52208636798185e-16)
(0.577851557620905 0.000599040135213072 3.90063029641152e-17)
(0.337906211119382 0.00272520725499467 1.22631137330508e-16)
(0.577179582360219 0.000611714692680824 1.9431121355729e-17)
(0.336679526403999 0.00275719899170753 4.99598147882326e-17)
(0.576487446741193 0.000624471235041489 -7.30348134755909e-17)
(0.335417995318325 0.00278878959524059 4.1489050791948e-17)
(0.575775015931401 0.000638703803910246 -1.62760063342317e-16)
(0.334118878202967 0.00282227140086145 -2.07590117696795e-16)
(0.575041760511577 0.000656781969820844 -1.03801640942848e-16)
(0.332781268116128 0.00285969078441655 -3.39368223233801e-16)
(0.574293630536307 0.000678702287901028 3.86392834324584e-18)
(0.331408694950804 0.00290627702150675 -7.93248502283113e-17)
(0.573530097667828 0.000701973141713336 5.75361780260421e-17)
(0.330003450889611 0.00295707725982216 -6.86875392258382e-18)
(0.572748970858179 0.000726710506145325 3.83540263151408e-17)
(0.328564706353349 0.00300934735701428 1.35681534894499e-16)
(0.571951481611374 0.000756451574248495 7.09710812414255e-17)
(0.327091142350343 0.00306644822298742 1.1922090051636e-17)
(0.571142454474673 0.000795073432228912 4.31768788889718e-17)
(0.325589235604065 0.00313557038121669 1.71482573766394e-16)
(0.570334423942285 0.000838396859297889 -2.47667795779096e-17)
(0.324068204274594 0.00322211285071026 2.94276168921668e-18)
(0.569520284823686 0.000882624687777407 6.25518616160416e-17)
(0.322532855244227 0.0033077146946309 8.04701402281801e-17)
(0.568705642567594 0.000933047417583935 1.44474921043207e-17)
(0.320983026725357 0.00339924213756712 2.79491711254295e-16)
(0.567893311128849 0.00100090296567179 -5.07305244060773e-17)
(0.319430238237963 0.00350556824468851 -2.14325709061281e-16)
(0.567118186435333 0.00108070014104966 4.98797249326341e-17)
(0.317898441286834 0.00365342111104297 7.54392501183694e-19)
(0.566371131571477 0.0011614423032337 5.75412119949934e-17)
(0.316404085503701 0.00379930497487199 3.50116529060417e-17)
(0.565662999980656 0.00125014736832555 -6.27681707987262e-18)
(0.314958301347348 0.00395208527017881 1.85191564087542e-17)
(0.56500627692244 0.00136283381306734 2.48556101387233e-17)
(0.313578185340243 0.00412483145548139 -6.02727663016868e-17)
(0.564442903275935 0.00150343360258713 1.40101555818291e-17)
(0.312314641071868 0.0043537160073297 -1.07818577803189e-18)
(0.564002060746266 0.00165270223295648 -6.20346031089828e-18)
(0.311208953330412 0.00461559466467753 5.23879215583598e-17)
(0.56369638466548 0.001806736291652 -6.36483628859177e-17)
(0.310308411989463 0.00487349455599136 7.9909739144219e-17)
(0.563578750886982 0.00199625349733181 -9.1565200899261e-17)
(0.309648676259046 0.00515386433525329 -1.8225921721661e-16)
(0.563774837767725 0.00231493532270128 -5.38124273316858e-17)
(0.309380434221913 0.00552546496097889 -1.79306496992577e-16)
(0.564737232511214 0.00276815907245455 -8.60948924117528e-17)
(0.309845407106869 0.00621139300837561 -1.72068283715301e-16)
(0.566738650798388 0.00330490253558859 1.24659347930183e-16)
(0.311520777829771 0.00700872746595404 -1.80294206348896e-16)
(0.570090008203037 0.00397865586208622 2.07447579236362e-16)
(0.314793157685244 0.00796106766476532 4.20377230503688e-16)
(0.574955495941623 0.00497034728981014 1.79130774661674e-17)
(0.320253176641148 0.00918678153044697 1.60276764044333e-16)
(0.581879755991875 0.00606311679841144 -5.9352030177081e-17)
(0.328438055514281 0.0110991378846967 -9.22559951469151e-17)
(0.590605462376687 0.00695486454791293 -5.38189295242625e-17)
(0.339593770870875 0.0126125887488213 -2.6708504469897e-17)
(0.60124903230331 0.00775131058623206 5.65062089180088e-17)
(0.35390036778316 0.0138740451222621 -7.28571536651895e-17)
(0.613815369349728 0.00861379825377483 6.71946556827427e-17)
(0.371484618814652 0.0150398201047935 2.9562847444161e-16)
(0.628628863625533 0.00936178010041163 -5.73341735138906e-17)
(0.392550777080484 0.0164252449387016 -2.55089098386542e-17)
(0.645362487830406 0.0097440248244821 1.3134448123071e-17)
(0.416986016444608 0.0171548743937644 -2.09750724804726e-16)
(0.663873116612377 0.00988302366752204 1.16408358987883e-16)
(0.444592434371569 0.0173502192271792 1.47530994201968e-16)
(0.683930633894954 0.00991491049933836 1.14335798444661e-17)
(0.475028025854494 0.0172474186706157 1.01679920147535e-16)
(0.705477503847762 0.00970536809211244 -6.69459736248491e-17)
(0.507924860529501 0.0170191454052287 -5.86482287390792e-17)
(0.728007892836717 0.00915393681792036 -3.64507326108951e-17)
(0.54279602572795 0.0160894940785409 4.41888271168977e-18)
(0.751264606116471 0.00841746914389436 3.94937375176199e-17)
(0.579165689668165 0.0147589438857451 -5.31300090664144e-17)
(0.77500204797551 0.0075455542816219 5.48716685441442e-17)
(0.616460995132148 0.0132023819467481 1.90189277932144e-16)
(0.799018126264911 0.00652717480121791 1.45498031408555e-16)
(0.654295543071741 0.0114137592502672 1.74666201087463e-17)
(0.823073617338361 0.0054197849553768 1.2823599132962e-16)
(0.692334285169221 0.00938204272782716 3.36091910242707e-16)
(0.847080037493445 0.00429042889283054 -1.04535801580845e-16)
(0.730316180373118 0.00731275326974314 -4.81706969347726e-17)
(0.870961934133073 0.00314318980103003 -8.48135742101405e-17)
(0.767999162216902 0.00521677477162595 -1.51753792532674e-16)
(0.894616961580255 0.00204340630762731 -2.33366401979186e-17)
(0.805319130570345 0.00309472931576827 2.26866482665886e-17)
(0.918188558162178 0.00104640073000359 4.37602548685905e-17)
(0.842298950264202 0.00117095719700724 -1.38449323822935e-16)
(0.941764189254686 0.000148839731514792 8.28690105602814e-17)
(0.879054171727949 -0.00059912638316663 3.02552756744105e-16)
(0.965387272843661 -0.000611306607225555 -1.02486744800755e-16)
(0.91578638247316 -0.00221104285161989 3.78493644991338e-17)
(0.989240110696196 -0.00123607788157066 -1.74425213301565e-16)
(0.952565788884889 -0.00355255259471309 -2.25761984633247e-16)
(1.01379901284107 -0.00172078754442834 -7.8364640302907e-18)
(0.99014775997842 -0.00469902184869019 -1.46072076395484e-16)
(1.03908684632384 -0.00199055325211348 5.24529825165922e-17)
(1.02838280240645 -0.00557977059887127 1.17951213881975e-16)
(1.06582251734613 -0.00201288810479186 -4.34419704585537e-17)
(1.06946442947868 -0.00612828703697981 -1.18831496302247e-17)
(1.09312610842201 -0.00214803927556585 -3.28852123106292e-17)
(1.10940162203538 -0.00627227348675836 -6.1725190836982e-17)
(1.12125597565349 -0.00107587276069694 4.68424642591332e-18)
(1.15894607385547 -0.00632785934052311 3.02514549031854e-17)
(1.12124614199555 -0.000113567021627198 -2.56817377025319e-17)
(1.17948400796137 -0.00100974377327226 -1.4286377333388e-17)
(1.12396936909989 5.54339728774794e-05 -3.99993822837693e-17)
(1.17432515850378 -0.000773194705306056 -9.14900745409859e-17)
(1.12498389074394 0.000272647327289527 -7.08226216639205e-17)
(1.17827220293792 -0.000164219694486845 -1.59835096146445e-16)
(1.12611184750236 0.000444180240345855 -4.25064773858603e-17)
(1.17772669697004 0.000107392997844428 -2.18824538420021e-16)
(1.12661657314719 0.000570335550164731 3.4608184728663e-17)
(1.17855425673685 0.000467472923170802 4.8652840515189e-17)
(1.12689017244144 0.00060221983497914 4.19386827547719e-17)
(1.17833202115752 0.000598965517164307 4.54786911585391e-17)
(1.12697003702835 0.000629158697209117 4.05806558902114e-17)
(1.17832510811498 0.000698485501614905 2.61349199042395e-17)
(1.12691176916069 0.000632725960130992 2.34325860706094e-17)
(1.17805554749218 0.000769584607434722 8.87027743501993e-17)
(1.12676571095623 0.000613802748344124 -1.12727186298989e-17)
(1.17775147645968 0.000795400794653935 6.09309001607673e-18)
(1.12658203907816 0.000586250948980999 -9.07826440923407e-18)
(1.1773972037597 0.000798189872126695 -5.1531289663026e-17)
(1.12637669259314 0.000545334971341737 6.0849064364613e-19)
(1.17703945859679 0.000784745601599154 1.55102540172768e-17)
(1.12612447946062 0.000498276423226979 -8.77008833029304e-18)
(1.17662886755448 0.000741890818302964 -1.30197058322033e-17)
(1.12569113785248 0.000469583272355857 -6.65999790907245e-18)
(1.17629194945494 0.000692644508658199 -1.11075968768232e-17)
(1.17544630064929 0.000542973313063144 -3.69472230916068e-18)
(0.12911167608789 0.00345691666671539 -6.95614567916535e-18)
(-0.02181718941367 0.00523820915519157 -6.41613587154322e-18)
(0.13005876777016 0.00395313210361933 -1.2218678531412e-17)
(-0.0190875925542201 0.00576285558040632 -1.16526119885261e-17)
(0.130162346707913 0.00431181927087857 -1.4497186544831e-18)
(-0.0191851643715452 0.00646144400908831 -1.15602269886972e-17)
(0.129740141748891 0.00455627453578973 2.60519125138031e-17)
(-0.0196341574050367 0.00697021798095644 1.05293111198404e-17)
(0.129059975663798 0.00468383225315371 3.05001548808791e-17)
(-0.0204094622757623 0.00723301051447205 4.04849191021541e-17)
(0.128267953436914 0.00474544966269834 1.6762144597758e-17)
(-0.0213455546593038 0.00735260220130974 2.3201441888314e-17)
(0.127427832439871 0.00477945097144705 8.18416026724806e-18)
(-0.022347653772136 0.00740995040520061 1.68463817793112e-17)
(0.126563126796545 0.00480416782817177 -1.08811134363516e-17)
(-0.0233814010964321 0.00744533091075886 6.51512061243618e-18)
(0.125679799079841 0.00482604915630101 -2.25098547032562e-17)
(-0.0244373190050884 0.0074742698368895 -3.99498351803685e-17)
(0.124777417659449 0.0048471570146475 -1.35064948570762e-17)
(-0.0255145610104992 0.00750149412820557 -2.86600059621877e-17)
(0.12385481680237 0.00486843772480778 3.00792514203519e-18)
(-0.0266145506219259 0.0075286736667962 -1.11093878089824e-17)
(0.122911306408267 0.0048902902865948 1.6007323156789e-17)
(-0.0277383840358138 0.0075565346013132 6.58633773788547e-18)
(0.121946561553743 0.00491222874174153 2.3521443160475e-17)
(-0.0288865155605297 0.00758512440092155 2.16474022120867e-17)
(0.12095848715634 0.00493385808882102 -2.10741370761164e-17)
(-0.0300602968304876 0.00761354428717651 5.41216852161678e-17)
(0.119945585709868 0.00495560674070256 3.73176331050213e-17)
(-0.0312618412569311 0.00764198614931003 -6.75134842801053e-17)
(0.118907012458377 0.00497795993171102 1.01246680721458e-16)
(-0.0324924959123657 0.00767099994489428 1.3616063600284e-16)
(0.117842402186292 0.00500082679738755 1.16769240180224e-16)
(-0.0337528839141011 0.00770096272836467 6.32838924634613e-17)
(0.116750273277276 0.00502374654918969 1.23939878049278e-16)
(-0.035044077680579 0.00773135645387887 1.88724937611049e-16)
(0.115628759915884 0.00504681161166126 1.66868534095722e-16)
(-0.0363680530605994 0.00776191594798353 1.334612605072e-16)
(0.114476496151438 0.00507056164018497 2.91486637409424e-16)
(-0.0377267192900332 0.00779306881235892 3.1319549486869e-16)
(0.113292732933454 0.00509539119487544 1.6523542134684e-16)
(-0.0391213071673174 0.00782545038875215 2.79951930423277e-16)
(0.112076717270867 0.00512083203012355 -5.89741230107493e-17)
(-0.0405525966782944 0.00785914361866135 -3.58909252424489e-17)
(0.110825986334909 0.00514659829133629 -8.42729572540732e-17)
(-0.0420224366645421 0.0078932862763408 -8.18647278540873e-17)
(0.109538637031087 0.00517328421145844 5.39535705138378e-17)
(-0.0435334467171535 0.00792825003524511 -2.44041412487146e-17)
(0.108213565093857 0.00520160385414684 1.34461198794909e-16)
(-0.0450874100821018 0.00796480524080578 2.34529210561736e-16)
(0.106850576421436 0.00523112468202797 1.82748679239099e-16)
(-0.046684955875002 0.00800350596347351 1.35440970267404e-16)
(0.105447177477356 0.00526111934261092 1.82791009841058e-16)
(-0.0483276422388212 0.00804304786067092 2.12915590490054e-16)
(0.104000790193459 0.00529214000461181 1.55597528158958e-16)
(-0.050018543461872 0.00808346791428389 1.31341785534271e-16)
(0.102509670930141 0.0053253409531241 2.44393346571608e-16)
(-0.051760306153839 0.00812576991613414 2.49156697024298e-16)
(0.100973491702325 0.00536116085543241 2.55629635437415e-16)
(-0.0535540155989759 0.00817122466984952 2.81816609352989e-16)
(0.099391224010822 0.00539848628766985 2.46562410049077e-17)
(-0.0554003507814625 0.00821936735678215 3.15768961030529e-16)
(0.097759608366856 0.00543698640959961 -1.982587649267e-16)
(-0.0573018196518725 0.00826870189493413 -1.20655267170484e-16)
(0.0960761557175775 0.00547825602102143 -1.89128350054377e-17)
(-0.0592621630526852 0.00832011364950341 -2.25341526562697e-16)
(0.0943404875622407 0.0055248727681809 1.33803878387697e-16)
(-0.0612832955958433 0.00837600167125067 7.03591472713343e-17)
(0.0925555576023332 0.00557517236391946 7.22477105563341e-17)
(-0.0633631267583987 0.0084386369859589 9.3169085901497e-17)
(0.0907168949247798 0.0056269901722696 -9.40767877428247e-17)
(-0.065502492127649 0.00850281422359097 1.29408129575904e-16)
(0.0888219080801172 0.00568281229882353 -3.8575588759946e-16)
(-0.0677062685209772 0.00856981002526279 -3.05148694648721e-16)
(0.0868711424811538 0.00574686777647075 -3.14899115330751e-16)
(-0.0699763036687575 0.00864310999258879 -5.1349886488779e-16)
(0.0848708855393263 0.00581926359239957 -9.0213537717777e-17)
(-0.0723078449619604 0.00872739771220172 -1.31678648585422e-16)
(0.0828215871228979 0.00589574356920053 7.19068488778999e-17)
(-0.0746965122024102 0.00881813980819496 -2.55238577269077e-17)
(0.080720217818893 0.00597667120393488 1.09066945579541e-16)
(-0.0771444475859119 0.00891208210134864 2.02991152148217e-16)
(0.0785682609521664 0.00606846447784991 1.13282047248371e-16)
(-0.0796544647635105 0.00901307700296177 -9.80072144603442e-18)
(0.076376821814597 0.00617814243396533 1.30919126303082e-16)
(-0.0822193541644955 0.00913020609010376 1.74973041765398e-16)
(0.0741623445611901 0.00629830552882237 1.09090224109953e-16)
(-0.0848207335720694 0.0092670422836538 8.1824331632686e-17)
(0.0719217629857787 0.0064223163997092 2.99290625509936e-16)
(-0.0874507650364055 0.00940646344883686 2.51811368765945e-16)
(0.0696596509973491 0.0065598576657433 4.86244305959944e-17)
(-0.0901130382754451 0.0095527419051732 4.43076394428446e-16)
(0.0673962026684689 0.00673148611248635 -1.62304179973088e-16)
(-0.0927964638082998 0.00972145902797697 -3.11076653604477e-16)
(0.0651808628467247 0.00692719607793031 -1.42103436004333e-17)
(-0.0954534811628366 0.00993472802245649 2.51652169651819e-17)
(0.0630186383935951 0.00712682781374257 -4.33577783342477e-18)
(-0.0980514642751603 0.0101518026745273 -8.99236792811603e-17)
(0.0609241263851935 0.00734318864350053 -3.59831901271256e-17)
(-0.100586032950958 0.010375490122528 1.99091971741302e-17)
(0.0589372269468855 0.00760613459810195 -8.63381178606781e-17)
(-0.103034469574823 0.0106270010911657 -1.31574947228275e-16)
(0.0571447810419231 0.00792263625751191 3.76654618628973e-17)
(-0.105314576059499 0.0109432833326594 -1.6505304745274e-16)
(0.0556146142660182 0.00825669365610216 1.39191829931455e-16)
(-0.107330491616865 0.0112981286743526 1.10236608028467e-16)
(0.054380646878032 0.0086011771250134 -4.0022985153228e-17)
(-0.109026675982384 0.0116506807764495 2.97134672778829e-17)
(0.0535311141627928 0.0090169203446716 -2.70668463318875e-16)
(-0.11036539060642 0.0120251132420149 -2.28956420422114e-16)
(0.0533345750901868 0.00968134112055353 -2.9848200383816e-16)
(-0.111203430082697 0.0125335593055601 -3.60200796399976e-16)
(0.0544242172041705 0.0106051912129144 -2.67054083010825e-16)
(-0.1110047949211 0.0133895962358594 -2.1047044866738e-16)
(0.0572703701057235 0.0116892766858221 1.1867718650966e-16)
(-0.109112058937773 0.0144046605599347 -3.79431074180566e-16)
(0.0624216974556916 0.0130337442458575 3.72572513853288e-16)
(-0.105059421636555 0.015580038528846 4.88648165178301e-16)
(0.0706794911943343 0.014963584437231 4.89938375721023e-17)
(-0.0981497895324291 0.0171423349392325 3.19908523344738e-16)
(0.0832925986268281 0.0170491199035658 -5.93290528759805e-17)
(-0.0868819211688033 0.0193954277480445 -1.96133766235787e-16)
(0.100188721462258 0.0187043541810036 -4.58988766244741e-17)
(-0.0705175435749523 0.0212116056053831 7.39869088256593e-17)
(0.12140480372788 0.0201204842125774 1.68217049891393e-16)
(-0.0493141716207415 0.022609295383086 -1.6209363215859e-16)
(0.1472534163537 0.0215948747894799 2.02576619994434e-16)
(-0.0231393168179549 0.0238901826997849 3.82639065616947e-16)
(0.17834834673275 0.022766459359333 -1.78928332850584e-16)
(0.00886640356144777 0.0252746317211882 -5.85175206407835e-17)
(0.214063406205843 0.0231613711228764 -7.49939082472689e-17)
(0.0467194772364278 0.0258445456900533 -3.28869556155577e-16)
(0.253785313053781 0.0230168987311503 1.32791093632223e-16)
(0.0894374607497139 0.0256571604390227 1.94270431560324e-16)
(0.29717097485747 0.0225909715197922 3.1494895507029e-17)
(0.136440673279877 0.0250704432530942 2.03409871295309e-16)
(0.343979971740976 0.0216260807758914 1.29597426481898e-17)
(0.187642781173203 0.0241960966032684 9.10136044522263e-17)
(0.393115964462283 0.0199542757817326 -1.22133156879386e-17)
(0.24222179764522 0.0224589634327376 1.20492117794913e-16)
(0.443808751010157 0.0178848176417307 9.76282110886529e-17)
(0.298908719661118 0.0201661355084022 8.32157332659306e-17)
(0.495527516290623 0.0155234088361575 1.52864733443883e-16)
(0.357007389652597 0.0175654615354033 3.69336768633801e-16)
(0.547739999541883 0.0128634087293601 2.07956043860037e-16)
(0.415972666145431 0.0146511089617553 3.24424771489237e-17)
(0.599899674086748 0.0100302031243691 1.5967303447366e-16)
(0.475103681523495 0.0114473126525914 4.50837014768505e-16)
(0.651753142549426 0.00715711500241672 -9.54458090658147e-17)
(0.533941086892142 0.00818737181562652 -1.08338663684609e-16)
(0.703073474787348 0.00426130673383492 -4.43393005393706e-17)
(0.592242283020569 0.00489406562404703 -9.68494284768508e-17)
(0.753678992432441 0.00147978008947697 -9.22024077571549e-17)
(0.649691377856336 0.00160582231257849 3.47442399711205e-17)
(0.803812919626203 -0.00108594093163978 1.20288853939696e-16)
(0.706323027024639 -0.00143736261578828 -3.16516279375213e-16)
(0.853677892758715 -0.0034480173637406 2.55818223019716e-16)
(0.762464358044292 -0.00427548122706302 3.94017940330979e-16)
(0.903431643438528 -0.00553187023040274 -8.62473917334355e-17)
(0.818321062331327 -0.00690126424974124 7.57923788228496e-17)
(0.953556657078519 -0.00734066902077273 -1.96925179696023e-16)
(0.873996680273345 -0.00919018371348765 -1.37348381550845e-16)
(1.00477096900721 -0.00888433505355257 -1.91580618903512e-17)
(0.930699344403841 -0.0112352866757229 -7.97947904114668e-17)
(1.05766912798785 -0.0100346293986495 5.29687225325912e-17)
(0.988040860600656 -0.0129448362656656 2.40835726509886e-16)
(1.11311449036658 -0.0106997141294616 -3.06486114316166e-17)
(1.04961952556305 -0.0143076902084088 7.59901995032231e-17)
(1.1715129061983 -0.0109259694378417 1.51613912009007e-18)
(1.10953008154795 -0.0150568746197518 -2.51520199274237e-17)
(1.22590002538008 -0.00590319920037491 1.10847414069468e-17)
(1.18433999421308 -0.0146941694730323 6.26955612952247e-17)
(1.22737900230852 -0.00106044275120273 -7.9267438241975e-17)
(1.21436873317005 -0.00140663964825596 -3.60058967895629e-17)
(1.22860558457985 -0.000475412847427121 -2.09053176237233e-16)
(1.2046278821073 -0.00102075315676 -1.78774963498511e-16)
(1.22892956375629 3.16669457234355e-05 -3.04845920265471e-16)
(1.2095339134766 -0.000217256469083402 -3.07841411987259e-16)
(1.22904597928307 0.000433490153518089 -1.26441625691586e-16)
(1.20757082927315 0.000132387743407888 -3.48196949288585e-16)
(1.22894108918044 0.000729420395057047 5.92302477531566e-17)
(1.20817209207324 0.000559915603898769 1.19406156481567e-17)
(1.22865608952901 0.00085350379032197 2.97911123811619e-17)
(1.20752002521026 0.00073777095194558 4.33127460641018e-17)
(1.22828014518299 0.000952732867770977 7.39627122449822e-17)
(1.20723905269371 0.000861231612773529 3.8867965271583e-18)
(1.22784006506936 0.00100757835145892 7.07854094576311e-17)
(1.20671569303025 0.000948064870899078 8.93768557477994e-17)
(1.22735561839796 0.00101848748620923 -3.39918125450093e-17)
(1.20623839671019 0.000982531478647066 9.122492538705e-18)
(1.22685471667622 0.0010097760908815 -2.66987911175264e-17)
(1.20570368965958 0.00098673202621644 -8.01722845113496e-17)
(1.22635583279356 0.000974223763953591 1.84112543032714e-18)
(1.20520717966569 0.00096921524963551 1.05741888508783e-17)
(1.22586224716533 0.00092446044280581 -1.52939734921033e-17)
(1.20466383585081 0.000917650663204258 -2.68813302147455e-17)
(1.22538780199035 0.000867180437042403 -8.12456090854637e-18)
(1.20432557579201 0.000851442325175794 -1.13349178660389e-17)
(1.20380403428069 0.000628626008907846 -4.38347247905329e-18)
(-0.171474464419917 0.00764905991172541 -1.11526178043445e-17)
(-0.242939299833563 0.00854407084011906 -1.05114947457523e-17)
(-0.170655876126948 0.00846231890199171 -1.09856370117827e-17)
(-0.241522935231481 0.00943021936140035 -1.68052901894674e-17)
(-0.170933639426294 0.00937528462284541 4.81250817176259e-19)
(-0.242281770514937 0.0108880830478411 -8.55189213002823e-18)
(-0.171745687188613 0.00991599807797187 2.5023459797987e-17)
(-0.243225153797653 0.0117561723142052 6.12359511514222e-18)
(-0.172782626803334 0.0101761365316552 3.31640499337201e-17)
(-0.24432539367521 0.0121665591669784 2.83060457116744e-17)
(-0.173915608721707 0.0102954605457251 2.33135025509413e-17)
(-0.245503468786667 0.0123474481787015 2.90412069607019e-17)
(-0.175094746495472 0.0103575787104021 1.51982019627962e-17)
(-0.246719246290654 0.012433329663599 2.40215771758467e-17)
(-0.176302656090232 0.0104003335324614 -2.27398273959923e-17)
(-0.247960903786648 0.0124859116623207 2.53165412112749e-17)
(-0.177535115051654 0.0104376734185236 -4.62224622062612e-17)
(-0.249226271783154 0.0125289546279895 -4.26064524509443e-17)
(-0.178792655968014 0.0104740267845169 -2.62999802534819e-17)
(-0.250516114945403 0.0125699872480041 -4.78627538083339e-17)
(-0.180076595671413 0.0105108512303502 -7.5525018241372e-18)
(-0.251831939857352 0.0126112707760613 -1.84004834801591e-17)
(-0.18138784988307 0.0105485619978827 1.22410827897204e-17)
(-0.253174896836053 0.0126535125554832 -8.16093415328947e-18)
(-0.182727362868865 0.0105867686696891 5.25057846089922e-17)
(-0.254545757895408 0.0126967331813704 1.83630652537081e-17)
(-0.184097062631905 0.0106251457465893 7.5404089029389e-18)
(-0.255945924975063 0.0127403066507382 5.84503596753962e-17)
(-0.185498776551584 0.0106640389000563 3.18293253576155e-17)
(-0.257377363578387 0.0127843467265216 -4.35491017897128e-17)
(-0.186933720143766 0.0107038787240715 9.79855090552648e-17)
(-0.258841594364909 0.0128292768176011 7.74851592850516e-17)
(-0.188402893018863 0.0107446180722691 1.35686691633284e-16)
(-0.260339651629161 0.0128753877814065 4.25463588680369e-17)
(-0.189908004646334 0.0107859110479692 1.98523503627368e-16)
(-0.261872854843892 0.012922347149628 1.61832894644044e-16)
(-0.191451193603469 0.0108278540128318 2.80933194617799e-16)
(-0.263443203825987 0.012969984586086 2.2814046570352e-16)
(-0.193034262336979 0.0108709469903162 3.0162438368822e-16)
(-0.265052730355056 0.0130186407150299 3.15838804737373e-16)
(-0.194658465839652 0.0109155459392306 7.74372930078901e-17)
(-0.266702976221129 0.0130688214150867 2.21384590063868e-16)
(-0.196325224926467 0.0109613055532931 -5.89146237908355e-17)
(-0.268395148023749 0.013120611945918 -2.68077352642574e-17)
(-0.198037062245553 0.0110080205557427 -2.1486712915415e-17)
(-0.270131230870028 0.0131734362944589 4.48219663841541e-18)
(-0.199796359865134 0.0110562378666251 1.5750009534831e-16)
(-0.27191381876948 0.0132275792669082 4.8746343601485e-17)
(-0.201604667733151 0.0111065956533702 2.35742454322402e-16)
(-0.273744937700192 0.0132836729411769 3.23478644480414e-16)
(-0.203463175724635 0.0111587625489911 1.65758966792186e-16)
(-0.275625776965284 0.013342137573245 1.45126649892228e-16)
(-0.205374635199555 0.0112121653311544 1.61097920682025e-16)
(-0.277558260801326 0.0134020715266617 1.47829792466996e-16)
(-0.207342154808895 0.0112673222348976 2.25633888155305e-16)
(-0.279545534642364 0.0134635134925435 1.30602792251954e-16)
(-0.209367943545822 0.0113253221764004 2.86899668105867e-16)
(-0.281590399617401 0.0135272919172044 2.53950703284531e-16)
(-0.211453052181142 0.0113865773026549 3.42498013095002e-16)
(-0.283694397180862 0.0135944171028807 2.30957776645178e-16)
(-0.213599254449811 0.0114501805854599 1.69691927671701e-16)
(-0.285858677639889 0.0136645743596461 3.26881931984923e-16)
(-0.215810161319718 0.0115158881987735 -1.4785547936626e-16)
(-0.288086021290796 0.0137366888783623 -6.46295748724294e-17)
(-0.218088942107228 0.0115852682703987 -1.35586666876077e-16)
(-0.290380219819034 0.0138114658119877 -2.33454546853671e-16)
(-0.220436033918683 0.0116605915761912 2.93170345175956e-17)
(-0.292743482982424 0.0138908877010897 -4.76088915233891e-17)
(-0.222849948981972 0.0117404700839138 1.5082325661096e-16)
(-0.295174360126034 0.0139766359699123 1.38177621284181e-16)
(-0.225334684623716 0.0118230644340586 -8.32278088804396e-17)
(-0.29767394736628 0.0140648734302954 7.73269242791242e-17)
(-0.227893705014527 0.0119106881466868 -4.33896119672077e-16)
(-0.300246995996835 0.0141564959496236 -3.1414415714109e-16)
(-0.230526111764402 0.012007277016022 -3.28863779482458e-16)
(-0.302895434722163 0.0142544245457543 -5.59826701441671e-16)
(-0.233226086537484 0.0121129226501913 -6.64675084476994e-17)
(-0.30561500499295 0.0143622679603838 -1.48507389289569e-16)
(-0.235992595710145 0.0122238754526656 1.06629027799453e-16)