/*--------------------------------*- C++ -*----------------------------------*\
| =========                 |                                                 |
| \\      /  F ield         | OpenFOAM: The Open Source CFD Toolbox           |
|  \\    /   O peration     | Version:  4.1                                   |
|   \\  /    A nd           | Web:      www.OpenFOAM.org                      |
|    \\/     M anipulation  |                                                 |
\*---------------------------------------------------------------------------*/
FoamFile
{
    version     2.0;
    format      ascii;
    class       volScalarField;
    location    "0.000730";
    object      epsilon;
}
// * * * * * * * * * * * * * * * * * * * * * * * * * * * * * * * * * * * * * //

dimensions      [0 2 -3 0 0 0 0];

internalField   nonuniform List<scalar> 
3072
(
167.1831
169.99124
172.42293
174.2209
175.40284
175.86132
176.7283
178.22414
179.37512
181.89727
184.03993
186.93107
189.95758
192.5827
194.05849
192.27275
186.58689
175.81803
161.61989
143.58921
119.58446
88.379331
54.010143
26.624812
174.36377
178.2777
181.96026
185.22395
188.03987
189.98925
190.56978
190.05124
188.85144
186.96803
185.27648
183.88684
182.75853
180.95424
176.67392
167.57725
152.44098
132.23841
110.44569
89.141255
68.839197
49.846204
33.10351
20.681375
126.10486
128.87327
131.42083
133.62183
135.43848
136.63368
137.17389
136.98809
136.23878
135.11314
133.72559
132.27645
130.48393
127.63387
122.50384
113.62816
100.79965
85.289114
69.831607
56.065441
44.479291
34.795652
26.284304
19.355383
91.173442
93.494182
95.620943
97.480761
98.964283
99.937532
100.37673
100.24143
99.580962
98.549527
97.140117
95.429476
93.219327
90.037647
85.239208
78.11419
68.862727
58.492531
48.704955
40.456396
34.0067
28.799038
23.770696
19.098846
66.644596
68.497409
70.261877
71.875611
73.17671
74.061991
74.505178
74.583299
74.240041
73.500425
72.365951
70.803526
68.77914
65.984631
62.134426
56.869884
50.462568
43.645295
37.495255
32.632673
29.186985
26.452073
23.214273
19.552951
50.115668
52.095132
54.161948
56.143949
57.854949
59.116727
59.732489
59.672857
59.400829
58.451905
57.130051
55.34757
53.240087
50.699459
47.623585
43.828955
39.514797
35.21039
31.606732
29.16365
27.862886
26.842486
24.677584
21.046807
43.773974
47.264205
51.055107
54.730302
57.827475
59.905375
60.659364
60.026705
58.199893
55.83916
52.943825
49.801461
46.670254
43.606539
40.600307
37.608649
34.723281
32.356288
31.031879
31.112662
32.27257
33.164385
31.576759
26.181128
60.170867
69.544087
79.415014
88.403081
94.982659
97.97384
96.955407
92.298649
84.996525
76.349157
67.71085
60.122781
53.794348
48.634964
44.611605
41.616028
39.592283
38.720725
39.427944
42.036456
45.937817
48.7417
46.669387
36.914531
174.43656
178.37705
182.08299
185.35621
188.16764
190.10561
190.65881
190.09896
188.86118
186.95557
185.24845
183.85601
182.72924
180.928
176.65129
167.54562
152.39574
132.18862
110.39589
89.095458
68.8025
49.824517
33.095959
20.679708
159.4496
162.15373
164.72106
167.10319
169.21884
170.67298
170.98854
170.14979
168.71454
166.52263
164.45953
162.55892
160.54296
157.1725
150.07591
136.9048
117.14688
93.696058
71.350185
52.923997
39.088146
29.456299
22.784097
18.012997
93.680812
95.065758
96.403782
97.668781
98.779223
99.566529
100.02671
100.09142
99.77352
99.296581
98.635919
97.930228
96.80891
94.504017
89.707643
81.212466
69.263173
55.774803
43.519231
33.989229
27.495333
23.507951
20.609007
17.84107
58.675131
59.791451
60.893186
61.947097
62.860085
63.530682
63.904183
63.987086
63.725885
63.276446
62.610019
61.776361
60.594698
58.663566
55.412969
50.358813
43.808123
36.777802
30.586624
25.941128
23.031445
21.404282
19.815006
17.732081
40.371713
41.285976
42.208382
43.106109
43.890935
44.471529
44.805435
44.836506
44.577088
44.080928
43.379545
42.487904
41.370499
39.846454
37.701431
34.738023
31.164454
27.505451
24.382115
22.17232
21.028051
20.48778
19.509551
17.723446
31.402379
32.313902
33.266548
34.211178
35.069155
35.749209
36.14159
36.185717
35.902799
35.341123
34.530799
33.509212
32.32208
30.944923
29.325787
27.41545
25.317409
23.306877
21.69303
20.74385
20.556214
20.563221
19.839321
17.946792
29.98658
31.2443
32.644025
34.087362
35.434172
36.524402
37.207388
37.401134
37.094556
36.338516
35.195316
33.804292
32.276011
30.653951
28.958006
27.182967
25.39886
23.835845
22.805248
22.586305
23.068587
23.467873
22.60056
19.676103
43.404576
46.861065
50.646198
54.347723
57.491015
59.630872
60.468979
59.943573
58.436396
56.109727
53.231197
50.04179
46.920679
43.870035
40.876385
37.872526
34.951638
32.523813
31.131268
31.137219
32.23846
33.129776
31.546728
26.169302
125.68417
128.47118
131.04875
133.27177
135.09831
136.30004
136.8419
136.62179
135.83759
134.70884
133.3414
131.91438
130.15351
127.33547
122.24591
113.41453
100.63618
85.177977
69.762284
56.02144
44.452024
34.782022
26.27942
19.354764
93.266704
94.655962
96.010064
97.299445
98.434169
99.242021
99.720201
99.792967
99.473539
99.009625
98.366375
97.674702
96.574498
94.28715
89.516835
81.064421
69.166838
55.72261
43.496245
33.97783
27.488746
23.503521
20.606189
17.840805
50.489391
51.264446
52.031865
52.766439
53.406852
53.854734
54.159957
54.387555
54.35621
54.299361
54.063497
53.732186
53.092868
51.777269
49.21481
44.916443
39.17906
32.934859
27.451878
23.429127
21.107606
20.141657
19.310917
17.708539
33.443332
34.199295
34.946319
35.647147
36.244417
36.668704
36.884703
36.938888
36.740494
36.384191
35.858766
35.197142
34.341737
33.165291
31.478899
29.143684
26.346039
23.495814
21.091388
19.460054
18.811859
18.910211
18.720055
17.492423
26.66053
27.423658
28.177304
28.879146
29.472174
29.896615
30.099151
30.04862
29.767614
29.266662
28.601496
27.795655
26.866638
25.792514
24.524936
23.036667
21.437039
19.930209
18.723233
18.004677
17.963022
18.411582
18.434185
17.363283
25.376176
26.201604
27.03132
27.815993
28.488646
28.980575
29.22584
29.186497
28.874466
28.31149
27.54412
26.637362
25.63473
24.548463
23.366497
22.080834
20.763787
19.560638
18.621847
18.111405
18.200386
18.664608
18.597934
17.41171
31.154091
32.060843
33.031216
34.006623
34.89622
35.619024
36.057744
36.177259
35.980146
35.464358
34.680956
33.674992
32.518982
31.182423
29.608403
27.720207
25.604025
23.542963
21.881068
20.877632
20.618376
20.58353
19.84908
17.954401
49.55325
51.477191
53.537743
55.550776
57.31277
58.650764
59.379211
59.613698
59.424112
58.598082
57.288351
55.51637
53.459926
50.983702
47.977542
44.23
39.919967
35.574893
31.923589
29.415303
28.013884
26.886199
24.69342
21.0583
90.659597
92.982459
95.130543
97.014853
98.526002
99.521534
99.97439
99.842828
99.17885
98.147094
96.752455
95.058512
92.878536
89.728478
84.974393
77.910505
68.727894
58.421215
48.678755
40.450532
34.005689
28.799956
23.771925
19.10055
58.277409
59.387866
60.50414
61.585779
62.528402
63.217907
63.60922
63.712018
63.467511
63.030916
62.374571
61.551423
60.388902
58.478504
55.258377
50.253018
43.75315
36.760743
30.590501
25.947882
23.032751
21.401274
19.811385
17.730853
33.386029
34.137746
34.88587
35.594205
36.20093
36.630311
36.850516
36.908876
36.719941
36.371049
35.847103
35.185295
34.330626
33.15648
31.473948
29.147051
26.357016
23.508811
21.103302
19.467967
18.814659
18.91002
18.719147
17.491786
25.079726
25.799214
26.504394
27.160383
27.713705
28.105334
28.28614
28.251423
27.972283
27.482837
26.819601
26.016867
25.088585
24.03115
22.816479
21.442629
20.021552
18.72206
17.724799
17.208339
17.375838
18.050616
18.274025
17.319605
23.179007
23.910492
24.631011
25.300583
25.864922
26.269744
26.46566
26.419388
26.128464
25.612999
24.915076
24.082953
23.152882
22.144174
21.062138
19.92217
18.807856
17.841497
17.136415
16.837319
17.135733
17.876669
18.156342
17.261997
26.598556
27.35417
28.114868
28.830797
29.434563
29.873549
30.104988
30.110197
29.866082
29.41116
28.760479
27.968487
27.066971
26.027555
24.797217
23.321772
21.698363
20.138925
18.8801
18.112455
18.021991
18.434288
18.440769
17.365898
39.843753
40.707979
41.629955
42.558657
43.384328
44.022662
44.434889
44.586905
44.457361
44.073757
43.454319
42.632445
41.601048
40.181892
38.136644
35.222998
31.627752
27.893423
24.692643
22.39732
21.152746
20.526329
19.526175
17.732697
65.83555
67.571845
69.294011
70.913524
72.256804
73.222879
73.784616
74.025737
73.848161
73.234775
72.204284
70.733897
68.825455
66.168394
62.455503
57.298047
50.943237
44.117506
37.933717
32.9977
29.428135
26.564804
23.266314
19.574364
66.199353
68.038479
69.815829
71.460363
72.803761
73.727323
74.19538
74.291525
73.97233
73.247219
72.121405
70.563618
68.556858
65.78454
61.968978
56.757909
50.407957
43.638897
37.519646
32.66454
29.210179
26.466024
23.221992
19.555903
40.09055
40.998156
41.936266
42.865022
43.682581
44.287783
44.644668
44.701771
44.468118
43.992679
43.301381
42.413909
41.302243
39.789823
37.662528
34.727689
31.179559
27.533722
24.414202
22.197778
21.039646
20.489042
19.508047
17.721854
26.6077
27.363576
28.121457
28.836332
29.444059
29.879134
30.091835
30.05149
29.784979
29.297205
28.635447
27.827361
26.89514
25.822019
24.556537
23.070527
21.468665
19.955064
18.742829
18.019399
17.970708
18.414239
18.434701
17.363147
23.16871
23.898999
24.622782
25.297956
25.867188
26.276422
26.475478
26.432672
26.144567
25.632121
24.935243
24.1021
23.170568
22.161038
21.078691
19.936879
18.817746
17.845878
17.138411
16.839486
17.13783
17.878526
18.157647
17.262115
25.065764
25.778174
26.489267
27.154459
27.716294
28.115443
28.342104
28.329261
28.085279
27.625894
26.97325
26.182239
25.277554
24.247893
23.066558
21.701313
20.25662
18.909024
17.861116
17.300689
17.429204
18.078099
18.289072
17.326443
33.301267
34.028928
34.778421
35.495405
36.11115
36.557236
36.878077
36.988432
36.876257
36.595052
36.11202
35.492667
34.701763
33.604327
31.996908
29.682174
26.832215
23.879335
21.373618
19.647372
18.910349
18.949911
18.737699
17.500485
57.758785
58.746747
59.796143
60.842683
61.776698
62.490521
63.032462
63.284971
63.21146
62.951328
62.455823
61.77384
60.757747
59.019612
55.94589
50.992322
44.442373
37.333172
31.049597
26.278239
23.215053
21.462831
19.829223
17.736951
90.153878
92.296606
94.32787
96.14311
97.634311
98.655191
99.209838
99.236815
98.743235
97.873223
96.653533
95.107753
93.064868
90.081815
85.480174
78.534946
69.413616
59.096077
49.31051
40.983429
34.370184
28.985431
23.845652
19.124965
49.796547
51.759808
53.844662
55.870657
57.626222
58.927422
59.5796
59.548783
59.330193
58.416271
57.096113
55.302254
53.195289
50.663568
47.607927
43.840553
39.552098
35.261821
31.66189
29.210333
27.89259
26.85717
24.687919
21.050385
31.252397
32.161922
33.131284
34.104815
34.990972
35.694886
36.110092
36.179618
35.929316
35.390852
34.583331
33.55866
32.365882
30.989718
29.37483
27.468076
25.368351
23.348328
21.724844
20.765218
20.565697
20.566087
19.841267
17.94663
25.363976
26.18575
27.018135
27.810634
28.491508
28.991559
29.246057
29.217126
28.91236
28.355313
27.596915
26.688345
25.6823
24.591421
23.405463
22.112363
20.782453
19.567503
18.622957
18.111851
18.202021
18.666806
18.599828
17.411894
26.62062
27.374805
28.136708
28.858888
29.470685
29.918074
30.151103
30.156946
29.908219
29.448977
28.795827
28.002087
27.096944
26.047436
24.803968
23.317175
21.685389
20.122902
18.863771
18.100342
18.016524
18.434239
18.441977
17.365941
33.34426
34.073666
34.824728
35.544512
36.165741
36.613146
36.938197
37.05216
36.928765
36.641672
36.154794
35.533363
34.737365
33.623858
31.997092
29.666211
26.811478
23.862506
21.359608
19.636587
18.90477
18.948569
18.737722
17.50024
50.197412
50.894678
51.633918
52.362098
53.016945
53.508884
54.003261
54.347569
54.48692
54.546445
54.402979
54.164163
53.652652
52.48319
50.044618
45.770289
39.94765
33.550902
27.918435
23.739881
21.262581
20.196619
19.331829
17.716547
92.295518
93.417676
94.594436
95.754165
96.829869
97.677358
98.32352
98.647951
98.615883
98.429654
98.057424
97.598077
96.722442
94.697819
90.155785
81.854665
70.010283
56.525557
44.219385
34.534249
27.802937
23.620739
20.625599
17.842319
125.04258
127.57644
129.95904
132.0342
133.79082
135.01922
135.62461
135.62184
135.0394
134.13789
132.97048
131.69349
130.05923
127.41364
122.51347
113.90309
101.33859
86.016752
70.657012
56.839281
45.039539
35.0911
26.396321
19.389078
43.600852
47.084078
50.890029
54.597673
57.726278
59.834929
60.619417
60.025922
58.255752
55.967029
53.05958
49.894991
46.754728
43.688748
40.678752
37.679941
34.782204
32.391795
31.041404
31.098438
32.248681
33.144736
31.56597
26.176711
29.974849
31.229848
32.632214
34.082692
35.438633
36.537056
37.229334
37.434972
37.140764
36.383758
35.260772
33.874952
32.343135
30.712775
29.005011
27.214489
25.412996
23.835087
22.79458
22.570976
23.053487
23.456496
22.594756
19.673024
31.241993
32.146254
33.115413
34.088572
34.981137
35.704606
36.143367
36.251714
36.047175
35.520078
34.736227
33.73171
32.571814
31.216099
29.614385
27.703221
25.572904
23.506975
21.842906
20.844208
20.598117
20.574214
19.846197
17.952458
40.016874
40.893812
41.818181
42.748166
43.57631
44.235203
44.657672
44.798564
44.63838
44.224239
43.590981
42.760415
41.709001
40.244451
38.144341
35.188221
31.579049
27.851137
24.652797
22.36148
21.130115
20.51778
19.523119
17.731768
57.99712
59.00883
60.063533
61.113902
62.062233
62.788909
63.356694
63.603707
63.499338
63.207448
62.691642
61.991719
60.939334
59.135119
55.988761
50.97347
44.402759
37.302518
31.021481
26.248473
23.19329
21.454767
19.82699
17.737649
92.522916
93.671724
94.853963
96.018713
97.109456
97.977734
98.65675
98.979777
98.924689
98.710637
98.319583
97.83876
96.923485
94.839109
90.234058
81.876951
70.006348
56.519371
44.208867
34.515246
27.784191
23.611621
20.625403
17.843368
157.59847
159.80639
161.96783
164.01724
165.93885
167.40257
167.74029
167.2603
166.07168
164.4071
162.80887
161.23929
159.43194
156.33887
149.5603
136.79919
117.51102
94.440367
72.306592
53.812809
39.665663
29.706064
22.844369
18.018636
173.5954
177.25208
180.693
183.71418
186.34327
188.22929
188.74594
188.35644
187.19695
185.57445
184.05035
182.73269
181.61572
179.92355
175.86931
167.14446
152.49739
132.76767
111.31368
90.11628
69.63852
50.313294
33.293171
20.730571
60.152991
69.512771
79.373189
88.356556
94.938732
97.943556
96.947631
92.323472
85.059532
76.438446
67.735038
60.254529
53.908085
48.72379
44.672638
41.644931
39.595031
38.702328
39.389841
41.992685
45.90486
48.723793
46.663285
36.912209
43.541175
47.000716
50.775008
54.45901
57.594534
59.734298
60.573637
60.041503
58.469401
56.142013
53.29858
50.133721
47.009723
43.931779
40.903895
37.86748
34.919512
32.481478
31.083758
31.094292
32.212888
33.114866
31.540463
26.165689
49.759562
51.694101
53.753803
55.762163
57.533742
58.89335
59.632893
59.840315
59.620751
58.769241
57.464447
55.692229
53.617475
51.094811
48.029814
44.229611
39.885424
35.524729
31.859375
29.344633
27.955881
26.853065
24.676262
21.049865
66.064
67.834328
69.568177
71.197643
72.567447
73.575785
74.167812
74.416621
74.207852
73.565596
72.519183
71.027774
69.077002
66.349497
62.553055
57.318125
50.918374
44.077891
37.879836
32.932586
29.36946
26.524449
23.243113
19.564861
90.321017
92.502574
94.547788
96.376173
97.89617
98.947572
99.564874
99.610542
99.116141
98.218167
96.977562
95.40469
93.31636
90.266768
85.587112
78.563541
69.39548
59.063967
49.266898
40.92552
34.310591
28.941452
23.821843
19.116086
125.08148
127.64324
130.03435
132.11818
133.89225
135.15189
135.80731
135.82555
135.24761
134.33427
133.15219
131.85403
130.19128
127.51145
122.5727
113.9172
101.32182
85.989865
70.624215
56.793433
44.983833
35.044346
26.372027
19.380191
173.43935
177.09856
180.53852
183.55604
186.17775
188.05771
188.56599
188.19618
187.06412
185.45793
183.93736
182.62308
181.52052
179.84876
175.81419
167.10572
152.46857
132.74577
111.29902
90.102121
69.614843
50.284712
33.274378
20.723367
166.85126
169.60417
171.97538
173.69084
174.7953
175.23234
176.26728
177.9329
179.29236
181.78953
183.81436
186.58199
189.55072
192.1682
193.70718
192.07326
186.57983
176.05896
162.09429
144.24935
120.27665
88.902054
54.291021
26.717025
72.711521
124.73398
167.28336
191.7682
203.36993
209.31216
213.74575
218.10409
222.66184
227.5678
232.61102
237.71058
242.70939
247.52839
251.98366
255.9082
259.18375
261.72617
263.66961
264.77331
265.24838
265.28257
265.00924
264.55582
50.752421
80.239976
104.75051
122.35071
134.98814
144.56034
152.2841
158.51715
163.16512
166.90412
169.98699
172.89293
175.6347
178.19875
180.55246
182.40117
183.9271
184.80197
185.32474
185.34708
184.79042
183.81415
182.53924
181.09881
38.424449
55.979933
71.68558
84.593731
95.269676
104.36409
112.01545
118.12389
122.50566
125.83518
128.40483
130.74409
132.88407
134.84386
136.60806
137.89864
138.85405
139.12884
139.02665
138.466
137.3228
135.7648
133.9428
132.02017
31.952874
43.654814
54.862721
64.858002
73.776872
81.984663
89.166126
95.077314
99.552236
103.1912
106.32802
109.50217
112.71165
115.91503
118.95226
121.39444
123.11853
123.71198
123.24112
121.73707
119.26418
116.11199
112.6028
109.03505
29.200657
38.056884
47.005923
55.155144
62.472141
69.516648
76.129377
82.146932
87.529527
92.8323
98.464385
104.93428
112.10336
119.84017
127.37022
134.03884
138.87954
141.28296
140.8352
137.56521
131.98894
124.75473
116.67842
108.54822
29.666761
37.852004
46.191
53.108028
58.611028
63.745568
69.074397
74.81691
81.245561
88.86095
98.081522
109.48304
122.9687
138.27146
154.30167
169.65646
182.48664
190.79489
193.18239
189.03741
179.10836
164.66127
147.66117
130.25697
33.804517
44.276924
54.708149
61.855257
65.2754
67.046734
68.998657
72.326033
77.810714
85.892976
97.026571
112.10298
132.02603
157.33031
187.39065
219.85165
250.8482
275.72988
289.55787
288.90821
273.72875
246.55923
212.39866
176.80763
45.270646
62.808204
80.338674
91.235626
93.469344
90.547219
86.433686
84.047588
85.574175
92.568775
106.60083
129.79103
164.53814
212.3702
273.48653
345.35033
421.44596
490.76638
540.13367
557.45036
536.4599
480.83375
402.41712
316.95358
126.4298
175.67282
204.05341
221.45556
232.89723
240.79978
247.27628
254.08964
261.98577
271.02069
280.4502
289.77498
298.22639
305.52052
311.26413
315.1733
317.46101
317.54666
315.43623
311.2707
305.20223
297.59426
288.70075
278.95271
109.01413
141.65502
161.76894
175.07464
184.81988
192.4968
199.23573
205.94427
213.03665
220.59661
228.2122
235.59877
242.26517
247.96059
252.41457
255.39241
256.91706
256.68364
254.67175
251.00589
245.84935
239.49739
232.19964
224.28824
100.26985
123.38279
138.91519
150.25663
159.42707
167.28318
174.41637
181.34191
188.32926
195.46333
202.49384
209.2078
215.24106
220.353
224.29229
226.85958
227.94431
227.41113
225.23508
221.53929
216.517
210.44254
203.58913
196.24701
97.31477
114.70453
127.82812
138.61372
148.07951
156.58504
164.42376
171.94992
179.38976
186.84144
194.13159
201.08041
207.34818
212.68893
216.78856
219.45978
220.48072
219.72559
217.17025
212.96388
207.36006
200.67877
193.26456
185.45137
98.382809
112.33069
124.59473
135.89273
146.32352
155.88554
164.76275
173.29427
181.73827
190.23248
198.63879
206.79375
214.28983
220.87986
226.04734
229.64781
231.16867
230.37735
227.26023
221.99973
214.97302
206.63417
197.48624
188.00317
102.77632
114.92982
127.68888
140.49911
152.55371
163.59888
173.87341
183.79628
193.74636
203.90779
214.22286
224.5402
234.43844
243.47666
251.16173
256.8107
259.68332
259.32976
255.66082
248.86574
239.48981
228.23493
215.89799
203.25936
110.50268
122.5791
137.27001
152.63875
167.0234
180.06585
192.1456
203.87502
215.78237
228.16277
241.11098
254.52821
268.1558
281.52853
293.62263
303.26599
309.28202
310.64181
306.81794
297.93623
284.7576
268.58315
250.83574
232.89943
121.92708
136.14239
154.65155
174.05993
191.9226
207.94178
222.7222
237.1223
252.03995
268.19313
286.12422
306.21469
328.23614
351.19771
373.53778
393.10584
407.42391
413.95341
410.82256
397.6868
375.90575
348.29129
318.19589
288.48905
45.272613
62.788993
80.280739
91.127188
93.333984
90.419465
86.339031
83.99174
85.549582
92.565281
106.60628
129.7963
164.54451
212.39286
273.52035
345.35121
421.44346
490.85022
540.27925
557.52324
536.44103
480.78424
402.40155
316.9955
33.813734
44.296516
54.732429
61.889523
65.323134
67.110404
69.082227
72.423768
77.903246
85.963393
97.067339
112.11212
132.01773
157.31151
187.39433
219.87339
250.90816
275.63874
289.36706
288.72924
273.57645
246.41011
212.22537
176.60687
29.686345
37.891337
46.257931
53.21775
58.757311
63.900241
69.218943
74.934014
81.306822
88.849348
97.994677
109.32111
122.74283
137.99537
154.00374
169.35548
182.164
190.46614
192.82468
188.67687
178.76504
164.34359
147.3694
129.98796
29.230966
38.122938
47.127131
55.345889
62.719706
69.777676
76.375319
82.355612
87.66849
92.881497
98.420694
104.80522
111.89368
119.57015
127.05955
133.71448
138.53819
140.95724
140.51625
137.2651
131.71578
124.50796
116.45563
108.34993
31.998761
43.763129
55.061232
65.160598
74.158268
82.392418
89.564684
95.440329
99.843508
103.3868
106.42524
109.51155
112.65045
115.80878
118.80905
121.21759
122.89521
123.46511
122.99235
121.49469
119.03197
115.88679
112.38363
108.83208
38.487352
56.143694
71.982874
85.04172
95.829241
104.96111
112.59764
118.6578
122.95206
126.16782
128.62205
130.8591
132.92363
134.83875
136.56458
137.80184
138.69319
138.9084
138.76557
138.18581
137.03728
135.48109
133.6652
131.76585
50.829502
80.464572
105.17473
122.99096
135.77604
145.38409
153.06063
159.20064
163.71715
167.30583
170.24613
173.02827
175.68073
178.19097
180.50272
182.28747
183.74343
184.53266
184.9876
184.97896
184.41957
183.46119
182.21254
180.81447
72.819925
125.04898
167.89842
192.6758
204.45994
210.43534
214.77669
218.97088
223.31886
228.0099
232.85852
237.79429
242.68004
247.42119
251.82693
255.69246
258.92489
261.38155
263.26084
264.32963
264.81727
264.89935
264.68661
264.30268
121.9282
136.14707
154.6597
174.07249
191.94009
207.96419
222.74938
237.15044
252.06491
268.20802
286.13018
306.21272
328.23845
351.20605
373.53885
393.08531
407.36148
413.84916
410.665
397.49211
375.70373
348.11296
318.06022
288.39974
110.50547
122.58742
137.28129
152.65379
167.04459
180.09621
192.18876
203.92682
215.83032
228.19488
241.12419
254.52423
268.14716
281.52688
293.62233
303.25052
309.2261
310.51817
306.63375
297.71708
284.53599
268.38472
250.67433
232.77466
102.78082
114.94328
127.70834
140.52638
152.59297
163.65223
173.94187
183.87383
193.81645
203.95555
214.24203
224.52808
234.40418
243.43144
251.10785
256.73737
259.57528
259.17381
255.46349
248.6478
239.27361
228.03752
215.72836
203.1177
98.389662
112.35093
124.62647
135.93939
146.38866
155.96991
164.86519
173.4059
181.84095
190.30947
198.68118
206.79663
214.25221
220.81289
225.96134
229.53892
231.02905
230.1985
227.04822
221.77249
214.7486
206.42658
197.30331
187.84787
97.3249
114.73688
127.88278
138.69387
148.18691
156.71824
164.5785
172.11305
179.54162
186.96515
194.21794
201.12162
207.33998
212.63919
216.71064
219.35586
220.34329
219.54462
216.95099
212.72411
207.11921
200.4508
193.05746
185.27179
100.28209
123.42827
138.99902
150.38321
159.59168
167.47616
174.62943
181.56175
188.53458
195.63435
202.62146
209.28535
215.26442
220.33137
224.2412
226.78001
227.82249
227.23283
225.0047
221.27712
216.24916
210.18643
203.35312
196.03969
109.02584
141.71357
161.8894
175.26196
185.05516
192.75427
199.50092
206.2068
213.27592
220.79179
228.35786
235.69357
242.30978
247.96911
252.40334
255.35117
256.82186
256.51129
254.42872
250.71921
245.55571
239.22004
231.94785
224.06937
126.43623
175.73282
204.20512
221.70556
233.2028
241.11109
247.57055
254.36093
262.21688
271.1934
280.56646
289.84561
298.26352
305.54612
311.29396
315.17871
317.40463
317.39274
315.19157
310.96883
304.89126
297.3077
288.45118
278.74271
72.820702
125.04991
167.90558
192.68848
204.47202
210.43945
214.77021
218.95572
223.29825
227.98536
232.82985
237.75897
242.63944
247.38059
251.78637
255.65012
258.8757
261.32722
263.2174
264.289
264.77824
264.86273
264.65098
264.26742
50.815355
80.436963
105.14333
122.95699
135.73611
145.32912
152.98402
159.10751
163.62478
167.22708
170.18292
172.97963
175.64315
178.16112
180.48193
182.27912
183.74728
184.54676
184.99536
185.00178
184.44999
183.5005
182.26087
180.86607
38.467826
56.103229
71.926357
84.976869
95.763443
104.88787
112.50804
118.5568
122.86042
126.10349
128.58646
130.84673
132.92541
134.84734
136.58161
137.83145
138.73628
138.96145
138.82404
138.23954
137.094
135.5469
133.74169
131.84521
31.982467
43.726687
55.004397
65.091626
74.089105
82.322974
89.489701
95.366191
99.792574
103.37583
106.45472
109.57427
112.7367
115.90936
118.92218
121.34239
123.03194
123.60638
123.12539
121.60509
119.12895
115.97702
112.47113
108.91292
29.219144
38.094103
47.079079
55.283546
62.654936
69.720137
76.328555
82.331481
87.687817
92.957819
98.55652
104.99776
112.13961
119.86375
127.39289
134.06887
138.9003
141.30576
140.83524
137.53732
131.94299
124.69497
116.61115
108.47443
29.6764
37.867151
46.2166
53.161534
58.69687
63.851018
69.195249
74.953659
81.388136
89.003107
98.228267
109.64339
123.15901
138.50828
154.58459
169.97623
182.79795
191.07436
193.38146
189.16198
179.18218
164.69449
147.65971
130.22076
33.809535
44.279311
54.699162
61.83649
65.260747
67.054029
69.046418
72.427061
77.964468
86.091147
97.266007
112.38463
132.36433
157.72268
187.87513
220.38973
251.39442
276.17673
289.88958
289.16446
273.92907
246.6961
212.45491
176.80033
45.269087
62.794632
80.284926
91.120602
93.310343
90.390897
86.323305
84.00479
85.596047
92.65605
106.74242
129.96615
164.76568
212.68897
273.85254
345.73066
421.85209
491.11681
540.44592
557.70638
536.60768
480.92158
402.4943
317.06266
126.43682
175.7253
204.18772
221.67899
233.16962
241.07057
247.51993
254.3023
262.15614
271.13646
280.51755
289.80778
298.2391
305.53278
311.28679
315.17218
317.39793
317.38798
315.18909
310.96845
304.8924
297.31151
288.45881
278.75297
109.02105
141.68786
161.84511
175.20259
184.9842
192.66857
199.39696
206.09047
213.16051
220.68783
228.27133
235.63078
242.27547
247.95938
252.40824
255.36399
256.84137
256.54022
254.46681
250.76436
245.60357
239.2702
232.00148
224.1248
100.27352
123.39525
138.94846
150.32288
159.52294
167.39062
174.52119
181.43925
188.41493
195.52967
202.53752
209.22969
215.24236
220.33866
224.26787
226.81876
227.87142
227.29265
225.07325
221.35054
216.32146
210.25583
203.42053
196.105
97.315081
114.70343
127.83552
138.6435
148.13247
156.64643
164.48143
172.00027
179.43188
186.87108
194.14548
201.07841
207.33101
212.66114
216.75547
219.41796
220.41991
219.63356
217.04735
212.82203
207.21251
200.53625
193.13543
185.3426
98.3795
112.31902
124.58419
135.89728
146.3432
155.90632
164.77544
173.29876
181.73447
190.21673
198.60838
206.75171
214.24057
220.83279
226.00745
229.61061
231.12448
230.31274
227.17361
221.90094
214.87277
206.54096
197.40604
187.93765
102.77097
114.91293
127.66781
140.48418
152.54357
163.58289
173.84654
183.75951
193.69759
203.84333
214.14392
224.45305
234.35652
243.40876
251.10825
256.77374
259.64902
259.28092
255.59436
248.79307
239.42404
228.18321
215.86171
203.23349
110.49755
122.56195
137.24325
152.60508
166.9796
180.00841
192.07556
203.79186
215.68135
228.03651
240.95937
254.3584
267.98514
281.36093
293.47745
303.14521
309.1719
310.52181
306.68666
297.80814
284.65042
268.5069
250.79082
232.87762
121.92489
136.13389
154.63249
174.02481
191.86651
207.86517
222.62613
237.00035
251.87902
267.98481
285.86293
305.89061
327.86884
350.80713
373.14347
392.72916
407.07264
413.62916
410.52407
397.41836
375.67846
348.11597
318.07522
288.41664
45.274525
62.802564
80.31073
91.170628
93.37782
90.465628
86.392411
84.056691
85.632994
92.678885
106.76054
129.99535
164.78667
212.66323
273.7768
345.57852
421.59772
490.81213
540.06347
557.1884
536.08156
480.40056
401.97935
316.555
33.809839
44.295006
54.73121
61.87625
65.29192
67.0651
69.019119
72.355228
77.845843
85.935389
97.07541
112.15723
132.0826
157.37133
187.39741
219.78798
250.64645
275.34285
289.04089
288.37511
273.21848
246.08578
211.96598
176.42825
29.675829
37.872462
46.223943
53.152183
58.652047
63.773354
69.077841
74.784816
81.169222
88.737474
97.910603
109.26764
122.70883
137.95689
153.92605
169.21157
181.95793
190.17747
192.49941
188.34137
178.43312
164.03592
147.11625
129.81197
29.204137
38.064549
47.019053
55.174161
62.491003
69.527294
76.116062
82.097901
87.438394
92.696597
98.283597
104.71012
111.82979
119.51948
126.99978
133.63106
138.43902
140.83396
140.37848
137.11714
131.56064
124.36266
116.33528
108.25916
31.951567
43.648505
54.84959
64.843455
73.768022
81.977406
89.150168
95.044807
99.499224
103.11575
106.22917
109.37919
112.56329
115.7481
118.76489
121.19092
122.90529
123.5045
123.04287
121.54502
119.07443
115.9263
112.42367
108.86861
38.415332
55.956216
71.645185
84.547292
95.230566
104.33641
111.99711
118.11029
122.4913
125.81138
128.36515
130.68607
132.80714
134.75542
136.50891
137.79014
138.74556
139.02368
138.93336
138.37381
137.23063
135.67086
133.84465
131.91969
50.736212
80.20446
104.69928
122.30281
134.95999
144.55786
152.30624
158.55958
163.21722
166.95055
170.01654
172.9011
175.61849
178.16319
180.50368
182.34035
183.86727
184.74366
185.26437
185.29256
184.74211
183.7708
182.49557
181.051
72.704556
124.72313
167.27037
191.75979
203.37309
209.33294
213.78963
218.17063
222.74592
227.66054
232.70406
237.79818
242.78756
247.59295
252.04072
255.96142
259.22523
261.75799
263.69835
264.79844
265.27484
265.31393
265.04596
264.59291
121.93128
136.15352
154.66155
174.0593
191.90461
207.90474
222.66348
237.02875
251.89081
267.97314
285.82149
305.82078
327.76253
350.66025
372.95308
392.49255
406.79981
413.34748
410.24569
397.15804
375.4474
347.92085
317.91546
288.28733
110.50929
122.59648
137.28804
152.64734
167.01735
180.04401
192.10323
203.80437
215.66687
227.98748
240.86456
254.20783
267.76722
281.08659
293.13447
302.74091
308.73181
310.08224
306.27657
297.43615
284.3172
268.20869
250.52702
232.65113
102.78151
114.94224
127.6986
140.49821
152.53841
163.56735
173.8216
183.71661
193.62546
203.73171
213.98113
224.22868
234.06283
243.04529
250.6907
256.30688
259.16122
258.80455
255.15244
248.39362