/*--------------------------------*- C++ -*----------------------------------*\
| =========                 |                                                 |
| \\      /  F ield         | OpenFOAM: The Open Source CFD Toolbox           |
|  \\    /   O peration     | Version:  4.1                                   |
|   \\  /    A nd           | Web:      www.OpenFOAM.org                      |
|    \\/     M anipulation  |                                                 |
\*---------------------------------------------------------------------------*/
FoamFile
{
    version     2.0;
    format      ascii;
    class       volScalarField;
    location    "0.0035";
    object      p;
}
// * * * * * * * * * * * * * * * * * * * * * * * * * * * * * * * * * * * * * //

dimensions      [0 2 -2 0 0 0 0];

internalField   nonuniform List<scalar> 
1536
(
0.046006
0.051504
0.057897
0.065322
0.074077
0.084685
0.0978
0.11403
0.13384
0.15768
0.18627
0.22077
0.046218
0.051759
0.058206
0.065722
0.074616
0.085396
0.098688
0.11508
0.13506
0.15913
0.18804
0.22291
0.046351
0.051922
0.058406
0.065981
0.074966
0.085857
0.099263
0.11576
0.13586
0.16008
0.18919
0.22429
0.046413
0.051997
0.058501
0.066107
0.075138
0.086087
0.099552
0.11611
0.13627
0.16057
0.18977
0.22499
0.046402
0.051985
0.058488
0.066096
0.075129
0.086081
0.09955
0.11611
0.13627
0.16057
0.18978
0.22499
0.046319
0.051885
0.058368
0.065947
0.074938
0.08584
0.099258
0.11577
0.13588
0.1601
0.18921
0.22431
0.046164
0.051698
0.058143
0.065664
0.07457
0.085368
0.09868
0.11509
0.13509
0.15917
0.18807
0.22294
0.04593
0.051417
0.057807
0.06524
0.074012
0.084644
0.097789
0.11405
0.13388
0.15773
0.18632
0.22081
0.046218
0.051763
0.058212
0.065729
0.074622
0.085402
0.098691
0.11508
0.13506
0.15913
0.18803
0.2229
0.046417
0.052003
0.058506
0.066112
0.075137
0.086076
0.099525
0.11606
0.13621
0.16049
0.18969
0.22489
0.046549
0.052163
0.058705
0.066371
0.075485
0.086531
0.10009
0.11674
0.13699
0.16143
0.19082
0.22623
0.04661
0.052239
0.0588
0.066497
0.075656
0.086757
0.10037
0.11707
0.13739
0.1619
0.19139
0.22691
0.0466
0.052227
0.058788
0.066486
0.075647
0.086752
0.10037
0.11708
0.13739
0.16191
0.1914
0.22692
0.046519
0.052129
0.058669
0.066338
0.075459
0.086514
0.10008
0.11674
0.13701
0.16144
0.19084
0.22625
0.046366
0.051945
0.058446
0.066056
0.075092
0.086047
0.099515
0.11607
0.13623
0.16052
0.18972
0.22491
0.046146
0.05168
0.058127
0.065649
0.074558
0.085361
0.098677
0.11509
0.13509
0.15917
0.18808
0.22294
0.046352
0.051928
0.058417
0.065995
0.074978
0.085867
0.099268
0.11576
0.13586
0.16007
0.18918
0.22428
0.046549
0.052166
0.05871
0.066377
0.075491
0.086536
0.10009
0.11674
0.13699
0.16142
0.19081
0.22623
0.046679
0.052325
0.058907
0.066634
0.075835
0.086985
0.10065
0.11739
0.13776
0.16234
0.19192
0.22755
0.046739
0.0524
0.059001
0.066759
0.076005
0.087207
0.10093
0.11772
0.13815
0.16281
0.19248
0.22821
0.04673
0.052389
0.05899
0.066749
0.075996
0.087201
0.10092
0.11773
0.13815
0.16281
0.19249
0.22822
0.046651
0.052293
0.058873
0.066603
0.07581
0.086967
0.10064
0.1174
0.13777
0.16236
0.19194
0.22756
0.046502
0.052112
0.058653
0.066324
0.075447
0.086507
0.10008
0.11674
0.13701
0.16145
0.19084
0.22625
0.046285
0.051851
0.058336
0.065918
0.074916
0.085826
0.099252
0.11577
0.13588
0.16011
0.18922
0.22431
0.046414
0.052007
0.058516
0.066126
0.075156
0.086101
0.099559
0.11611
0.13626
0.16055
0.18976
0.22497
0.04661
0.052244
0.058809
0.066508
0.075667
0.086766
0.10038
0.11707
0.13739
0.16189
0.19138
0.22691
0.046739
0.052402
0.059006
0.066765
0.07601
0.087211
0.10093
0.11772
0.13815
0.1628
0.19248
0.22821
0.0468
0.052477
0.0591
0.066889
0.076178
0.087432
0.1012
0.11805
0.13854
0.16326
0.19303
0.22886
0.046791
0.052467
0.059089
0.066879
0.07617
0.087426
0.1012
0.11805
0.13854
0.16327
0.19304
0.22887
0.046713
0.052372
0.058974
0.066735
0.075985
0.087194
0.10092
0.11773
0.13816
0.16282
0.19249
0.22822
0.046566
0.052193
0.058756
0.066457
0.075625
0.086737
0.10037
0.11708
0.1374
0.16192
0.19141
0.22693
0.046352
0.051934
0.05844
0.066053
0.075095
0.086059
0.099541
0.11611
0.13628
0.16059
0.18979
0.225
0.046403
0.051997
0.058508
0.06612
0.075152
0.086099
0.099559
0.11611
0.13626
0.16056
0.18976
0.22498
0.0466
0.052235
0.058802
0.066502
0.075663
0.086764
0.10038
0.11707
0.13739
0.1619
0.19138
0.22691
0.046729
0.052394
0.058998
0.066759
0.076006
0.087209
0.10093
0.11773
0.13815
0.16281
0.19248
0.22821
0.046791
0.052469
0.059093
0.066884
0.076175
0.08743
0.1012
0.11805
0.13854
0.16327
0.19303
0.22886
0.046783
0.05246
0.059083
0.066875
0.076166
0.087424
0.1012
0.11805
0.13854
0.16327
0.19304
0.22887
0.046705
0.052365
0.058968
0.06673
0.075982
0.087192
0.10092
0.11773
0.13816
0.16282
0.19249
0.22822
0.046559
0.052188
0.058751
0.066454
0.075622
0.086735
0.10036
0.11708
0.1374
0.16192
0.19141
0.22692
0.046345
0.051929
0.058436
0.066051
0.075093
0.086058
0.09954
0.11611
0.13628
0.16059
0.18979
0.225
0.046319
0.051899
0.058392
0.065975
0.074966
0.085861
0.099269
0.11577
0.13587
0.16008
0.18919
0.22429
0.046518
0.052139
0.058687
0.066359
0.075479
0.086529
0.10009
0.11674
0.137
0.16143
0.19082
0.22624
0.046649
0.052299
0.058885
0.066617
0.075824
0.086978
0.10065
0.1174
0.13777
0.16235
0.19193
0.22755
0.046712
0.052376
0.058981
0.066744
0.075993
0.0872
0.10092
0.11773
0.13815
0.16281
0.19249
0.22822
0.046705
0.052367
0.058972
0.066735
0.075986
0.087195
0.10092
0.11773
0.13816
0.16281
0.19249
0.22822
0.046627
0.052273
0.058857
0.06659
0.0758
0.086961
0.10064
0.1174
0.13777
0.16236
0.19194
0.22756
0.04648
0.052094
0.058639
0.066313
0.075439
0.086501
0.10008
0.11674
0.13701
0.16145
0.19084
0.22625
0.046266
0.051836
0.058324
0.06591
0.074909
0.08582
0.099248
0.11577
0.13588
0.16011
0.18921
0.22431
0.046163
0.051714
0.058171
0.065697
0.074601
0.085392
0.098692
0.11509
0.13507
0.15915
0.18805
0.22292
0.046365
0.051956
0.058467
0.066081
0.075116
0.086065
0.099523
0.11607
0.13622
0.16051
0.1897
0.2249
0.046499
0.05212
0.058669
0.066342
0.075465
0.08652
0.10009
0.11674
0.137
0.16144
0.19083
0.22624
0.046564
0.052199
0.058766
0.06647
0.075637
0.086746
0.10037
0.11708
0.1374
0.16191
0.1914
0.22692
0.046557
0.052191
0.058757
0.066462
0.07563
0.08674
0.10037
0.11707
0.1374
0.16191
0.1914
0.22692
0.046479
0.052096
0.058642
0.066316
0.075442
0.086503
0.10008
0.11674
0.13701
0.16145
0.19084
0.22625
0.046331
0.051915
0.058423
0.066037
0.075078
0.086036
0.099508
0.11607
0.13623
0.16052
0.18972
0.22491
0.046115
0.051656
0.058107
0.065634
0.074546
0.085351
0.098669
0.11509
0.13509
0.15917
0.18807
0.22293
0.045928
0.051435
0.057838
0.065277
0.074047
0.084671
0.097801
0.11404
0.13386
0.15771
0.18629
0.22079
0.046144
0.051694
0.058151
0.065679
0.074586
0.085381
0.098686
0.11509
0.13508
0.15915
0.18806
0.22293
0.046282
0.05186
0.058354
0.065941
0.074937
0.085841
0.099258
0.11577
0.13587
0.1601
0.1892
0.2243
0.046348
0.051941
0.058453
0.06607
0.075111
0.08607
0.099545
0.11611
0.13628
0.16058
0.18978
0.225
0.046342
0.051933
0.058445
0.066062
0.075104
0.086065
0.099542
0.11611
0.13628
0.16058
0.18979
0.225
0.046264
0.051838
0.05833
0.065917
0.074915
0.085825
0.099249
0.11577
0.13588
0.1601
0.18921
0.22431
0.046114
0.051657
0.05811
0.065637
0.074549
0.085352
0.09867
0.11509
0.13509
0.15917
0.18807
0.22293
0.045886
0.051382
0.057779
0.065217
0.073993
0.084629
0.097777
0.11404
0.13387
0.15773
0.18632
0.22081
0.21394
0.18066
0.15314
0.13001
0.11066
0.094859
0.082279
0.072266
0.064013
0.056904
0.050677
0.045301
0.21693
0.18307
0.15509
0.13167
0.11212
0.096101
0.083265
0.072991
0.064539
0.057315
0.051029
0.045602
0.21809
0.18402
0.15585
0.1323
0.11267
0.09659
0.083668
0.073292
0.064746
0.057464
0.051151
0.04571
0.21896
0.18474
0.15643
0.13279
0.11309
0.096942
0.083946
0.073495
0.06489
0.05757
0.051238
0.045783
0.21897
0.18475
0.15645
0.1328
0.11309
0.096941
0.083938
0.073481
0.064872
0.05755
0.051218
0.045766
0.21812
0.18406
0.15589
0.13233
0.11268
0.096586
0.083645
0.073251
0.064693
0.057405
0.051094
0.045659
0.21699
0.18313
0.15516
0.13172
0.11214
0.096095
0.083226
0.072926
0.064454
0.057222
0.050939
0.045523
0.21402
0.18075
0.15323
0.13008
0.11069
0.094849
0.082223
0.072171
0.063892
0.056773
0.05055
0.045189
0.19176
0.16323
0.13914
0.11798
0.099951
0.085695
0.075097
0.06711
0.060342
0.053983
0.048082
0.04304
0.19337
0.16441
0.14008
0.11884
0.10076
0.08639
0.075616
0.067447
0.060563
0.05417
0.048267
0.043207
0.19403
0.16488
0.14044
0.11915
0.10106
0.086655
0.075812
0.067562
0.060622
0.054211
0.048312
0.043256
0.19458
0.16535
0.14081
0.11942
0.10127
0.086818
0.075933
0.067642
0.060665
0.054227
0.04832
0.043268
0.1946
0.16537
0.14083
0.11945
0.10128
0.086818
0.075921
0.067621
0.060636
0.054195
0.048289
0.04324
0.19411
0.16497
0.14053
0.11922
0.1011
0.086655
0.075776
0.067494
0.060531
0.05411
0.048214
0.043169
0.19349
0.16454
0.14021
0.11894
0.10082
0.086391
0.075561
0.067341
0.060421
0.054013
0.048114
0.043073
0.19191
0.16339
0.13931
0.1181
0.10002
0.085689
0.075012
0.066957
0.060143
0.053765
0.047871
0.042854
0.21402
0.18075
0.15323
0.13008
0.11069
0.094847
0.082218
0.072163
0.063882
0.05676
0.050537
0.045176
0.21698
0.18314
0.15517
0.13173
0.11214
0.096089
0.083209
0.072898
0.064419
0.057181
0.050895
0.045479
0.21813
0.18408
0.15591
0.13235
0.11269
0.096577
0.083618
0.073209
0.06464
0.057344
0.051029
0.045594
0.21898
0.18477
0.15648
0.13282
0.1131
0.096928
0.083902
0.073424
0.064798
0.057466
0.051129
0.045676
0.21898
0.18477
0.15647
0.13282
0.1131
0.096925
0.0839
0.073422
0.064796
0.057463
0.051124
0.045669
0.21812
0.18407
0.1559
0.13234
0.11268
0.096569
0.083611
0.073202
0.064632
0.057334
0.051015
0.045574
0.21698
0.18313
0.15516
0.13172
0.11213
0.096077
0.083198
0.072887
0.064407
0.057165
0.050872
0.045448
0.214
0.18074
0.15321
0.13006
0.11067
0.09483
0.082201
0.072145
0.063862
0.056735
0.050501
0.045128
0.19191
0.1634
0.13931
0.11811
0.10002
0.085685
0.075004
0.066945
0.060129
0.053749
0.047854
0.042839
0.19347
0.16455
0.14023
0.11896
0.10082
0.086379
0.075528
0.067291
0.060361
0.053946
0.048042
0.043
0.1941
0.16499
0.14056
0.11925
0.10111
0.086645
0.075735
0.067425
0.060444
0.054011
0.048108
0.043062
0.19461
0.16542
0.14089
0.11949
0.1013
0.086807
0.075868
0.06753
0.060518
0.05406
0.048145
0.043095
0.1946
0.16541
0.14089
0.11949
0.1013
0.086803
0.075866
0.06753
0.060521
0.054061
0.048144
0.043092
0.19408
0.16498
0.14054
0.11923
0.1011
0.086633
0.075729
0.067427
0.060449
0.054014
0.048104
0.043049
0.19346
0.16452
0.1402
0.11893
0.1008
0.086361
0.075521
0.067291
0.060364
0.053946
0.048033
0.042976
0.19188
0.16337
0.13928
0.11807
0.099988
0.085658
0.074985
0.066933
0.060118
0.053734
0.047826
0.042791
0.21401
0.18074
0.15321
0.13006
0.11067
0.09483
0.082202
0.072148
0.063864
0.056737
0.050502
0.045127
0.21698
0.18313
0.15515
0.13171
0.11213
0.096076
0.083202
0.072894
0.064414
0.057171
0.050874
0.045444
0.21813
0.18407
0.15589
0.13233
0.11267
0.096569
0.083618
0.073213
0.064644
0.057343
0.051018
0.045569
0.21898
0.18476
0.15646
0.13281
0.11309
0.096927
0.08391
0.073439
0.064814
0.057477
0.05113
0.045663
0.21898
0.18476
0.15646
0.13281
0.11309
0.096932
0.083918
0.073448
0.064824
0.057487
0.051139
0.04567
0.21812
0.18405
0.15589
0.13233
0.11268
0.096585
0.083641
0.073242
0.064675
0.057373
0.051044
0.045588
0.21696
0.18311
0.15514
0.13171
0.11214
0.0961
0.083239
0.07294
0.064464
0.057219
0.050915
0.045475
0.21399
0.18071
0.15319
0.13005
0.11069
0.094863
0.082256
0.072215
0.063937
0.056807
0.050563
0.045175
0.19189
0.16337
0.13927
0.11807
0.099985
0.085656
0.074983
0.066933
0.060121
0.053736
0.047826
0.042789
0.19348
0.16452
0.14019
0.11891
0.10079
0.086358
0.075523
0.067297
0.060372
0.053952
0.048034
0.042969
0.19411
0.16497
0.14052
0.11921
0.10108
0.086627
0.075735
0.067439
0.060462
0.054025
0.048107
0.043039
0.19462
0.1654
0.14086
0.11946
0.10128
0.086797
0.075878
0.067554
0.060545
0.054082
0.048153
0.04308
0.19461
0.16539
0.14085
0.11946
0.10128
0.086804
0.075888
0.067565
0.060557
0.054092
0.048161
0.043085
0.19409
0.16495
0.14051
0.11921
0.10109
0.08665
0.075768
0.067479
0.060502
0.054059
0.048133
0.043055
0.19344
0.16449
0.14017
0.11891
0.1008
0.086394
0.075577
0.067362
0.060437
0.05401
0.048079
0.042998
0.19184
0.16332
0.13924
0.11806
0.10001
0.085711
0.075068
0.067033
0.060221
0.053828
0.047902
0.042842
0.21398
0.1807
0.15318
0.13005
0.11069
0.094868
0.082265
0.072227
0.063952
0.056823
0.050579
0.04519
0.21695
0.18309
0.15512
0.1317
0.11214
0.096116
0.083268
0.07298
0.064511
0.05727
0.050967
0.045525
0.21809
0.18402
0.15586
0.13231
0.11268
0.096607
0.083683
0.0733
0.064745
0.057448
0.05112
0.045662
0.21894
0.18472
0.15642
0.13278
0.11309
0.096959
0.083972
0.073525
0.064917
0.057588
0.051241
0.045769
0.21893
0.18471
0.15641
0.13278
0.11309
0.096958
0.083975
0.073531
0.064927
0.057601
0.051257
0.045786
0.21807
0.184
0.15583
0.13229
0.11267
0.096602
0.08369
0.07332
0.064775
0.057488
0.051167
0.045713
0.21692
0.18306
0.15508
0.13167
0.11212
0.09611
0.08328
0.073011
0.064559
0.057332
0.05104
0.045605
0.21394
0.18065
0.15313
0.13001
0.11066
0.094862
0.082284
0.072272
0.06402
0.05691
0.050681
0.045302
0.19183
0.16331
0.13923
0.11805
0.10001
0.08572
0.075081
0.067051
0.060243
0.053851
0.047924
0.042862
0.1934
0.16445
0.14014
0.11889
0.10081
0.086428
0.075636
0.06744
0.060526
0.054102
0.04817
0.043084
0.19403
0.1649
0.14046
0.11918
0.1011
0.086697
0.075852
0.06759
0.060631
0.054195
0.048268
0.043182
0.19454
0.16531
0.14078
0.11942
0.10128
0.086858
0.075991
0.067707
0.060725
0.054271
0.048339
0.043254
0.19453
0.16529
0.14076
0.1194
0.10127
0.086851
0.075993
0.067717
0.060741
0.054292
0.048364
0.043281
0.194
0.16485
0.14041
0.11913
0.10106
0.086679
0.075858
0.06762
0.060681
0.054262
0.048346
0.043267
0.19335
0.16438
0.14006
0.11882
0.10076
0.086406
0.075649
0.067488
0.060605
0.054206
0.04829
0.043214
0.19176
0.16322
0.13914
0.11797
0.09995
0.085699
0.075105
0.067121
0.060354
0.053993
0.048088
0.043042
)
;

boundaryField
{
    inlet
    {
        type            uniformTotalPressure;
        rho             rho;
        psi             none;
        gamma           1;
        p0              table
        
4
(
(0 1.3332)
(0.003 1.3332)
(0.0031 0)
(0.01 0)
)
;
        value           nonuniform 0();
    }
    outlet
    {
        type            fixedValue;
        value           nonuniform 0();
    }
    mantle
    {
        type            zeroGradient;
    }
    procBoundary2to1
    {
        type            processor;
        value           nonuniform List<scalar> 
128
(
0.26263
0.2651
0.26668
0.26748
0.26748
0.26669
0.26511
0.26265
0.26509
0.26735
0.26889
0.26966
0.26966
0.2689
0.26737
0.26511
0.26667
0.26888
0.27038
0.27112
0.27113
0.27038
0.2689
0.26669
0.26747
0.26965
0.27112
0.27186
0.27186
0.27113
0.26966
0.26748
0.26747
0.26965
0.27112
0.27186
0.27186
0.27113
0.26966
0.26748
0.26668
0.26889
0.27038
0.27113
0.27113
0.27038
0.26889
0.26668
0.2651
0.26736
0.26889
0.26966
0.26966
0.26889
0.26737
0.26511
0.26264
0.26511
0.26669
0.26748
0.26748
0.26669
0.26511
0.26265
0.25489
0.25843
0.25971
0.26071
0.26071
0.25973
0.25846
0.25494
0.22801
0.23011
0.23095
0.23154
0.23154
0.23098
0.23018
0.2281
0.25493
0.25844
0.25971
0.2607
0.2607
0.25971
0.25844
0.25492
0.22809
0.23014
0.23095
0.2315
0.23149
0.23093
0.23013
0.22808
0.25493
0.25845
0.25972
0.26071
0.26071
0.25972
0.25844
0.25492
0.22809
0.23017
0.23098
0.23155
0.23155
0.23098
0.23015
0.22806
0.25491
0.25843
0.2597
0.26069
0.26068
0.25969
0.25841
0.25489
0.22805
0.23012
0.23094
0.2315
0.23148
0.2309
0.23008
0.22801
)
;
    }
    procBoundary2to3
    {
        type            processor;
        value           nonuniform List<scalar> 
128
(
0.041287
0.041451
0.041555
0.041603
0.041595
0.04153
0.041409
0.041228
0.041448
0.041603
0.041706
0.041754
0.041746
0.041682
0.041564
0.041393
0.041549
0.041703
0.041804
0.041851
0.041844
0.041782
0.041666
0.041497
0.041594
0.041747
0.041848
0.041895
0.041889
0.041828
0.041714
0.041547
0.041582
0.041736
0.041838
0.041885
0.041879
0.041819
0.041706
0.041539
0.041514
0.041669
0.041772
0.041821
0.041816
0.041756
0.041642
0.041475
0.04139
0.041547
0.041653
0.041703
0.041698
0.041638
0.041523
0.041355
0.041205
0.041372
0.04148
0.041532
0.041528
0.041467
0.041351
0.041174
0.040739
0.040973
0.041061
0.041118
0.041104
0.04102
0.04091
0.040651
0.039023
0.039144
0.039183
0.039202
0.03918
0.039114
0.039039
0.038878
0.040639
0.040868
0.040958
0.041019
0.04101
0.040932
0.040828
0.040578
0.038863
0.038969
0.039012
0.039041
0.039034
0.038987
0.038928
0.038792
0.040575
0.040817
0.040917
0.040989
0.040993
0.040929
0.040837
0.040606
0.038788
0.038909
0.03896
0.038998
0.039
0.038967
0.038922
0.038817
0.040619
0.040882
0.040996
0.041085
0.041103
0.04105
0.040966
0.040737
0.038834
0.038999
0.03908
0.039153
0.03918
0.039168
0.039133
0.039021
)
;
    }
}


// ************************************************************************* //
