/*--------------------------------*- C++ -*----------------------------------*\
| =========                 |                                                 |
| \\      /  F ield         | foam-extend: Open Source CFD                    |
|  \\    /   O peration     | Version:     4.1-20200408                       |
|   \\  /    A nd           | Web:         http://www.foam-extend.org         |
|    \\/     M anipulation  |                                                 |
\*---------------------------------------------------------------------------*/
FoamFile
{
    version     2.0;
    format      ascii;
    class       volVectorField;
    location    "0.0720000";
    object      DU_0;
}
// * * * * * * * * * * * * * * * * * * * * * * * * * * * * * * * * * * * * * //

dimensions      [0 1 0 0 0 0 0];

internalField   nonuniform List<vector> 
1952
(
(5e-05 -7.0214e-10 0)
(5.00001e-05 -1.10593e-09 0)
(5.00002e-05 -1.56839e-09 0)
(5.00003e-05 -1.92489e-09 0)
(5.00005e-05 -2.37159e-09 0)
(5.00007e-05 -2.65389e-09 0)
(5.00011e-05 -3.049e-09 0)
(5.00014e-05 -3.23936e-09 0)
(5.00019e-05 -3.55193e-09 0)
(5.00024e-05 -3.61366e-09 0)
(5.00032e-05 -3.79815e-09 0)
(5.0004e-05 -3.70343e-09 0)
(5.00051e-05 -3.73991e-09 0)
(5.00064e-05 -3.50349e-09 0)
(5.00079e-05 -3.52673e-09 0)
(5e-05 -2.97782e-10 0)
(5.00001e-05 -4.95011e-10 0)
(5.00002e-05 -7.92407e-10 0)
(5.00003e-05 -1.09353e-09 0)
(5.00004e-05 -1.35636e-09 0)
(5.00007e-05 -1.62321e-09 0)
(5.00009e-05 -1.81454e-09 0)
(5.00013e-05 -2.01923e-09 0)
(5.00016e-05 -2.12032e-09 0)
(5.00022e-05 -2.24058e-09 0)
(5.00027e-05 -2.22429e-09 0)
(5.00035e-05 -2.24112e-09 0)
(5.00043e-05 -2.11243e-09 0)
(5.00054e-05 -2.05398e-09 0)
(5.00067e-05 -1.86702e-09 0)
(5.00081e-05 -1.84219e-09 0)
(5.00001e-05 -2.11921e-10 0)
(5.00004e-05 -3.1323e-10 0)
(5.00005e-05 -4.99912e-10 0)
(5.00007e-05 -6.79624e-10 0)
(5.00008e-05 -8.33705e-10 0)
(5.00011e-05 -9.75022e-10 0)
(5.00013e-05 -1.06601e-09 0)
(5.00017e-05 -1.1481e-09 0)
(5.00021e-05 -1.15755e-09 0)
(5.00027e-05 -1.1656e-09 0)
(5.00032e-05 -1.08064e-09 0)
(5.0004e-05 -1.01434e-09 0)
(5.00048e-05 -8.55419e-10 0)
(5.00057e-05 -7.63892e-10 0)
(5.00067e-05 -6.09933e-10 0)
(5.00078e-05 -6.36396e-10 0)
(5.00004e-05 -1.34365e-10 0)
(5.00009e-05 -1.59397e-10 0)
(5.0001e-05 -2.5108e-10 0)
(5.00011e-05 -3.32742e-10 0)
(5.00013e-05 -3.94494e-10 0)
(5.00016e-05 -4.40113e-10 0)
(5.00018e-05 -4.47545e-10 0)
(5.00022e-05 -4.42908e-10 0)
(5.00026e-05 -3.84095e-10 0)
(5.00032e-05 -3.23871e-10 0)
(5.00037e-05 -1.99314e-10 0)
(5.00045e-05 -9.69016e-11 0)
(5.00052e-05 6.14306e-11 0)
(5.00061e-05 1.52885e-10 0)
(5.00069e-05 2.73548e-10 0)
(5.00078e-05 2.57587e-10 0)
(5.00008e-05 -6.86159e-11 0)
(5.00014e-05 -3.31319e-11 0)
(5.00015e-05 -4.66865e-11 0)
(5.00017e-05 -5.06073e-11 0)
(5.00019e-05 -3.73255e-11 0)
(5.00022e-05 -1.12114e-11 0)
(5.00024e-05 4.62459e-11 0)
(5.00029e-05 1.10785e-10 0)
(5.00032e-05 2.18649e-10 0)
(5.00038e-05 3.2048e-10 0)
(5.00043e-05 4.69759e-10 0)
(5.0005e-05 5.89253e-10 0)
(5.00056e-05 7.44711e-10 0)
(5.00064e-05 8.32116e-10 0)
(5.0007e-05 9.3156e-10 0)
(5.00077e-05 9.13025e-10 0)
(5.00014e-05 -1.45208e-11 0)
(5.00021e-05 6.67759e-11 0)
(5.00022e-05 1.14721e-10 0)
(5.00024e-05 1.7072e-10 0)
(5.00025e-05 2.41589e-10 0)
(5.00028e-05 3.20217e-10 0)
(5.00031e-05 4.25355e-10 0)
(5.00035e-05 5.29953e-10 0)
(5.00038e-05 6.70173e-10 0)
(5.00044e-05 7.94952e-10 0)
(5.00049e-05 9.56038e-10 0)
(5.00055e-05 1.07974e-09 0)
(5.0006e-05 1.22774e-09 0)
(5.00067e-05 1.30958e-09 0)
(5.00072e-05 1.39704e-09 0)
(5.00078e-05 1.38986e-09 0)
(5.0002e-05 2.83276e-11 0)
(5.00028e-05 1.42412e-10 0)
(5.00029e-05 2.36598e-10 0)
(5.00031e-05 3.36905e-10 0)
(5.00032e-05 4.49937e-10 0)
(5.00035e-05 5.65433e-10 0)
(5.00038e-05 7.03754e-10 0)
(5.00042e-05 8.33912e-10 0)
(5.00045e-05 9.94564e-10 0)
(5.0005e-05 1.13126e-09 0)
(5.00054e-05 1.29784e-09 0)
(5.0006e-05 1.42127e-09 0)
(5.00065e-05 1.56341e-09 0)
(5.0007e-05 1.64197e-09 0)
(5.00075e-05 1.7242e-09 0)
(5.00079e-05 1.72804e-09 0)
(5.00027e-05 6.0799e-11 0)
(5.00035e-05 1.96575e-10 0)
(5.00036e-05 3.23636e-10 0)
(5.00038e-05 4.54847e-10 0)
(5.00039e-05 5.97004e-10 0)
(5.00042e-05 7.36688e-10 0)
(5.00045e-05 8.96737e-10 0)
(5.00049e-05 1.0416e-09 0)
(5.00052e-05 1.21409e-09 0)
(5.00057e-05 1.35529e-09 0)
(5.0006e-05 1.52344e-09 0)
(5.00065e-05 1.64424e-09 0)
(5.00069e-05 1.78214e-09 0)
(5.00074e-05 1.85981e-09 0)
(5.00077e-05 1.94221e-09 0)
(5.00081e-05 1.96004e-09 0)
(5.00035e-05 8.40742e-11 0)
(5.00043e-05 2.32263e-10 0)
(5.00043e-05 3.80795e-10 0)
(5.00045e-05 5.31702e-10 0)
(5.00047e-05 6.9225e-10 0)
(5.0005e-05 8.46068e-10 0)
(5.00052e-05 1.01898e-09 0)
(5.00056e-05 1.1707e-09 0)
(5.00058e-05 1.34924e-09 0)
(5.00063e-05 1.49052e-09 0)
(5.00066e-05 1.65861e-09 0)
(5.0007e-05 1.77642e-09 0)
(5.00073e-05 1.91244e-09 0)
(5.00078e-05 1.99142e-09 0)
(5.0008e-05 2.07752e-09 0)
(5.00083e-05 2.10953e-09 0)
(5.00042e-05 9.94289e-11 0)
(5.0005e-05 2.52449e-10 0)
(5.00051e-05 4.12988e-10 0)
(5.00052e-05 5.7435e-10 0)
(5.00054e-05 7.44715e-10 0)
(5.00057e-05 9.04694e-10 0)
(5.00058e-05 1.08383e-09 0)
(5.00062e-05 1.2366e-09 0)
(5.00064e-05 1.41732e-09 0)
(5.00069e-05 1.55579e-09 0)
(5.00071e-05 1.72324e-09 0)
(5.00076e-05 1.8382e-09 0)
(5.00078e-05 1.97444e-09 0)
(5.00082e-05 2.05647e-09 0)
(5.00083e-05 2.14887e-09 0)
(5.00085e-05 2.19543e-09 0)
(5.0005e-05 1.08134e-10 0)
(5.00057e-05 2.59853e-10 0)
(5.00058e-05 4.24639e-10 0)
(5.0006e-05 5.89003e-10 0)
(5.00061e-05 7.62354e-10 0)
(5.00064e-05 9.22311e-10 0)
(5.00065e-05 1.10269e-09 0)
(5.00069e-05 1.25229e-09 0)
(5.00071e-05 1.4327e-09 0)
(5.00075e-05 1.56659e-09 0)
(5.00077e-05 1.73349e-09 0)
(5.00081e-05 1.84606e-09 0)
(5.00083e-05 1.98436e-09 0)
(5.00086e-05 2.07072e-09 0)
(5.00087e-05 2.17118e-09 0)
(5.00088e-05 2.23204e-09 0)
(5.00057e-05 1.11352e-10 0)
(5.00064e-05 2.56891e-10 0)
(5.00065e-05 4.19703e-10 0)
(5.00066e-05 5.81072e-10 0)
(5.00067e-05 7.52125e-10 0)
(5.0007e-05 9.07188e-10 0)
(5.00072e-05 1.08522e-09 0)
(5.00075e-05 1.22845e-09 0)
(5.00077e-05 1.407e-09 0)
(5.0008e-05 1.5351e-09 0)
(5.00082e-05 1.70185e-09 0)
(5.00086e-05 1.81247e-09 0)
(5.00087e-05 1.95438e-09 0)
(5.0009e-05 2.04601e-09 0)
(5.00091e-05 2.15574e-09 0)
(5.00092e-05 2.23067e-09 0)
(5.00064e-05 1.10121e-10 0)
(5.00071e-05 2.45583e-10 0)
(5.00071e-05 4.01415e-10 0)
(5.00073e-05 5.55044e-10 0)
(5.00074e-05 7.19641e-10 0)
(5.00077e-05 8.66043e-10 0)
(5.00078e-05 1.03903e-09 0)
(5.00081e-05 1.17353e-09 0)
(5.00082e-05 1.34925e-09 0)
(5.00086e-05 1.47074e-09 0)
(5.00088e-05 1.63787e-09 0)
(5.00091e-05 1.74693e-09 0)
(5.00092e-05 1.89371e-09 0)
(5.00094e-05 1.99127e-09 0)
(5.00095e-05 2.11118e-09 0)
(5.00096e-05 2.19987e-09 0)
(5.0007e-05 1.05304e-10 0)
(5.00077e-05 2.2764e-10 0)
(5.00077e-05 3.72564e-10 0)
(5.00079e-05 5.14662e-10 0)
(5.0008e-05 6.69659e-10 0)
(5.00083e-05 8.04372e-10 0)
(5.00084e-05 9.7045e-10 0)
(5.00087e-05 1.09429e-09 0)
(5.00088e-05 1.26667e-09 0)
(5.00092e-05 1.38086e-09 0)
(5.00093e-05 1.54896e-09 0)
(5.00096e-05 1.65674e-09 0)
(5.00097e-05 1.80945e-09 0)
(5.00099e-05 1.91345e-09 0)
(5.00099e-05 2.04424e-09 0)
(5.001e-05 2.14652e-09 0)
(5.00076e-05 9.76386e-11 0)
(5.00082e-05 2.04417e-10 0)
(5.00083e-05 3.35293e-10 0)
(5.00085e-05 4.62872e-10 0)
(5.00085e-05 6.05787e-10 0)
(5.00088e-05 7.26427e-10 0)
(5.00089e-05 8.84176e-10 0)
(5.00092e-05 9.95824e-10 0)
(5.00093e-05 1.16458e-09 0)
(5.00097e-05 1.27089e-09 0)
(5.00098e-05 1.44052e-09 0)
(5.00101e-05 1.54719e-09 0)
(5.00102e-05 1.70674e-09 0)
(5.00104e-05 1.8176e-09 0)
(5.00104e-05 1.95991e-09 0)
(5.00104e-05 2.07577e-09 0)
(5.00082e-05 8.77032e-11 0)
(5.00087e-05 1.77081e-10 0)
(5.00088e-05 2.91494e-10 0)
(5.0009e-05 4.02169e-10 0)
(5.0009e-05 5.31185e-10 0)
(5.00093e-05 6.35749e-10 0)
(5.00094e-05 7.84254e-10 0)
(5.00098e-05 8.82325e-10 0)
(5.00099e-05 1.04742e-09 0)
(5.00102e-05 1.14523e-09 0)
(5.00103e-05 1.31699e-09 0)
(5.00106e-05 1.42262e-09 0)
(5.00107e-05 1.58984e-09 0)
(5.00109e-05 1.70794e-09 0)
(5.00109e-05 1.86241e-09 0)
(5.00109e-05 1.99209e-09 0)
(5.00087e-05 7.60019e-11 0)
(5.00092e-05 1.46577e-10 0)
(5.00093e-05 2.42649e-10 0)
(5.00094e-05 3.34568e-10 0)
(5.00095e-05 4.48283e-10 0)
(5.00098e-05 5.3516e-10 0)
(5.00099e-05 6.73741e-10 0)
(5.00102e-05 7.57049e-10 0)
(5.00104e-05 9.1851e-10 0)
(5.00107e-05 1.00722e-09 0)
(5.00108e-05 1.18163e-09 0)
(5.00111e-05 1.28623e-09 0)
(5.00112e-05 1.46186e-09 0)
(5.00114e-05 1.58765e-09 0)
(5.00114e-05 1.75499e-09 0)
(5.00114e-05 1.89897e-09 0)
(5.00092e-05 6.29381e-11 0)
(5.00096e-05 1.13827e-10 0)
(5.00097e-05 1.90246e-10 0)
(5.00099e-05 2.62008e-10 0)
(5.00099e-05 3.59531e-10 0)
(5.00102e-05 4.2734e-10 0)
(5.00103e-05 5.55708e-10 0)
(5.00107e-05 6.23079e-10 0)
(5.00108e-05 7.81151e-10 0)
(5.00112e-05 8.60053e-10 0)
(5.00113e-05 1.03772e-09 0)
(5.00116e-05 1.14118e-09 0)
(5.00117e-05 1.32598e-09 0)
(5.00119e-05 1.45993e-09 0)
(5.00119e-05 1.64094e-09 0)
(5.00119e-05 1.80006e-09 0)
(5.00096e-05 4.89101e-11 0)
(5.00099e-05 7.9727e-11 0)
(5.001e-05 1.35692e-10 0)
(5.00102e-05 1.86379e-10 0)
(5.00103e-05 2.67209e-10 0)
(5.00106e-05 3.14898e-10 0)
(5.00107e-05 4.32964e-10 0)
(5.00111e-05 4.8339e-10 0)
(5.00113e-05 6.38325e-10 0)
(5.00116e-05 7.06738e-10 0)
(5.00118e-05 8.88149e-10 0)
(5.00121e-05 9.90377e-10 0)
(5.00122e-05 1.18505e-09 0)
(5.00124e-05 1.32774e-09 0)
(5.00125e-05 1.52332e-09 0)
(5.00125e-05 1.69871e-09 0)
(5.00099e-05 3.43014e-11 0)
(5.00102e-05 4.534e-11 0)
(5.00103e-05 8.06869e-11 0)
(5.00105e-05 1.09907e-10 0)
(5.00106e-05 1.74113e-10 0)
(5.0011e-05 2.00907e-10 0)
(5.00111e-05 3.09025e-10 0)
(5.00115e-05 3.41506e-10 0)
(5.00117e-05 4.93855e-10 0)
(5.00121e-05 5.50934e-10 0)
(5.00123e-05 7.36753e-10 0)
(5.00126e-05 8.3748e-10 0)
(5.00128e-05 1.04281e-09 0)
(5.0013e-05 1.19482e-09 0)
(5.00131e-05 1.40605e-09 0)
(5.00131e-05 1.59918e-09 0)
(5.00102e-05 1.95686e-11 0)
(5.00104e-05 1.1957e-11 0)
(5.00105e-05 2.72826e-11 0)
(5.00107e-05 3.5325e-11 0)
(5.00108e-05 8.35857e-11 0)
(5.00112e-05 8.91798e-11 0)
(5.00114e-05 1.88051e-10 0)
(5.00118e-05 2.0185e-10 0)
(5.0012e-05 3.52218e-10 0)
(5.00125e-05 3.97227e-10 0)
(5.00127e-05 5.87966e-10 0)
(5.00131e-05 6.86979e-10 0)
(5.00133e-05 9.03592e-10 0)
(5.00136e-05 1.06567e-09 0)
(5.00137e-05 1.29362e-09 0)
(5.00138e-05 1.5063e-09 0)
(5.00103e-05 5.26614e-12 0)
(5.00105e-05 -1.87371e-11 0)
(5.00106e-05 -2.18396e-11 0)
(5.00109e-05 -3.38002e-11 0)
(5.0011e-05 6.69648e-14 0)
(5.00114e-05 -1.53021e-11 0)
(5.00116e-05 7.56947e-11 0)
(5.00122e-05 7.0215e-11 0)
(5.00124e-05 2.19663e-10 0)
(5.00129e-05 2.51687e-10 0)
(5.00132e-05 4.48122e-10 0)
(5.00136e-05 5.44926e-10 0)
(5.00139e-05 7.73586e-10 0)
(5.00142e-05 9.46332e-10 0)
(5.00143e-05 1.19223e-09 0)
(5.00145e-05 1.42656e-09 0)
(5.00105e-05 -7.88383e-12 0)
(5.00106e-05 -4.45001e-11 0)
(5.00107e-05 -6.309e-11 0)
(5.0011e-05 -9.26895e-11 0)
(5.00111e-05 -7.05387e-11 0)
(5.00116e-05 -1.05781e-10 0)
(5.00118e-05 -2.05831e-11 0)
(5.00124e-05 -4.54375e-11 0)
(5.00127e-05 1.04368e-10 0)
(5.00133e-05 1.22701e-10 0)
(5.00137e-05 3.25442e-10 0)
(5.00142e-05 4.19589e-10 0)
(5.00145e-05 6.60753e-10 0)
(5.00148e-05 8.44858e-10 0)
(5.0015e-05 1.10978e-09 0)
(5.00152e-05 1.36815e-09 0)
(5.00105e-05 -1.89175e-11 0)
(5.00105e-05 -6.23921e-11 0)
(5.00107e-05 -9.17903e-11 0)
(5.0011e-05 -1.35063e-10 0)
(5.00112e-05 -1.20457e-10 0)
(5.00117e-05 -1.73388e-10 0)
(5.0012e-05 -9.08008e-11 0)
(5.00126e-05 -1.34674e-10 0)
(5.0013e-05 1.74708e-11 0)
(5.00136e-05 2.12745e-11 0)
(5.00141e-05 2.31263e-10 0)
(5.00147e-05 3.21869e-10 0)
(5.00151e-05 5.76056e-10 0)
(5.00155e-05 7.71873e-10 0)
(5.00158e-05 1.05691e-09 0)
(5.0016e-05 1.34185e-09 0)
(5.00105e-05 -2.65754e-11 0)
(5.00104e-05 -6.84894e-11 0)
(5.00106e-05 -1.01644e-10 0)
(5.0011e-05 -1.52508e-10 0)
(5.00111e-05 -1.39256e-10 0)
(5.00118e-05 -2.06129e-10 0)
(5.0012e-05 -1.21623e-10 0)
(5.00128e-05 -1.83234e-10 0)
(5.00132e-05 -2.622e-11 0)
(5.0014e-05 -3.74524e-11 0)
(5.00145e-05 1.80589e-10 0)
(5.00152e-05 2.66709e-10 0)
(5.00157e-05 5.33931e-10 0)
(5.00162e-05 7.41667e-10 0)
(5.00166e-05 1.04749e-09 0)
(5.00169e-05 1.36164e-09 0)
(5.00104e-05 -2.9171e-11 0)
(5.00103e-05 -5.77436e-11 0)
(5.00104e-05 -8.46022e-11 0)
(5.00109e-05 -1.34168e-10 0)
(5.00111e-05 -1.13522e-10 0)
(5.00117e-05 -1.8854e-10 0)
(5.00121e-05 -9.57364e-11 0)
(5.00129e-05 -1.72772e-10 0)
(5.00134e-05 -7.27991e-12 0)
(5.00143e-05 -3.40426e-11 0)
(5.00149e-05 1.93224e-10 0)
(5.00157e-05 2.73263e-10 0)
(5.00163e-05 5.53366e-10 0)
(5.0017e-05 7.72531e-10 0)
(5.00175e-05 1.09947e-09 0)
(5.00178e-05 1.44535e-09 0)
(5.00102e-05 -2.45404e-11 0)
(5.00101e-05 -2.35847e-11 0)
(5.00102e-05 -3.01156e-11 0)
(5.00107e-05 -6.58807e-11 0)
(5.00109e-05 -2.56738e-11 0)
(5.00117e-05 -1.00308e-10 0)
(5.00121e-05 9.54049e-12 0)
(5.0013e-05 -7.89886e-11 0)
(5.00136e-05 9.972e-11 0)
(5.00145e-05 5.74202e-11 0)
(5.00153e-05 2.95069e-10 0)
(5.00162e-05 3.67089e-10 0)
(5.0017e-05 6.59143e-10 0)
(5.00178e-05 8.88635e-10 0)
(5.00184e-05 1.23615e-09 0)
(5.00189e-05 1.61602e-09 0)
(5.001e-05 -9.86081e-12 0)
(5.00098e-05 4.22671e-11 0)
(5.001e-05 7.50552e-11 0)
(5.00105e-05 7.0262e-11 0)
(5.00107e-05 1.46433e-10 0)
(5.00116e-05 8.42899e-11 0)
(5.0012e-05 2.2296e-10 0)
(5.0013e-05 1.28888e-10 0)
(5.00137e-05 3.27219e-10 0)
(5.00147e-05 2.69712e-10 0)
(5.00157e-05 5.19268e-10 0)
(5.00167e-05 5.80413e-10 0)
(5.00177e-05 8.82857e-10 0)
(5.00186e-05 1.1203e-09 0)
(5.00194e-05 1.48688e-09 0)
(5.002e-05 1.90237e-09 0)
(5.00098e-05 1.8419e-11 0)
(5.00096e-05 1.50253e-10 0)
(5.00098e-05 2.47682e-10 0)
(5.00103e-05 2.96904e-10 0)
(5.00106e-05 4.30926e-10 0)
(5.00114e-05 3.97956e-10 0)
(5.00119e-05 5.81163e-10 0)
(5.0013e-05 4.90252e-10 0)
(5.00138e-05 7.16706e-10 0)
(5.00149e-05 6.45056e-10 0)
(5.0016e-05 9.08319e-10 0)
(5.00172e-05 9.54864e-10 0)
(5.00184e-05 1.265e-09 0)
(5.00195e-05 1.50654e-09 0)
(5.00205e-05 1.88906e-09 0)
(5.00213e-05 2.34087e-09 0)
(5.00095e-05 6.47836e-11 0)
(5.00094e-05 3.13242e-10 0)
(5.00096e-05 5.08407e-10 0)
(5.00102e-05 6.42069e-10 0)
(5.00104e-05 8.62552e-10 0)
(5.00113e-05 8.81342e-10 0)
(5.00118e-05 1.12968e-09 0)
(5.0013e-05 1.05428e-09 0)
(5.00139e-05 1.32002e-09 0)
(5.00151e-05 1.23628e-09 0)
(5.00164e-05 1.51549e-09 0)
(5.00177e-05 1.54245e-09 0)
(5.00191e-05 1.85623e-09 0)
(5.00204e-05 2.0958e-09 0)
(5.00217e-05 2.48908e-09 0)
(5.00227e-05 2.97637e-09 0)
(5.00093e-05 1.34755e-10 0)
(5.00094e-05 5.46932e-10 0)
(5.00095e-05 8.82483e-10 0)
(5.00101e-05 1.14007e-09 0)
(5.00103e-05 1.48404e-09 0)
(5.00112e-05 1.58453e-09 0)
(5.00117e-05 1.9249e-09 0)
(5.00129e-05 1.882e-09 0)
(5.00139e-05 2.2019e-09 0)
(5.00153e-05 2.10942e-09 0)
(5.00167e-05 2.4077e-09 0)
(5.00182e-05 2.40848e-09 0)
(5.00199e-05 2.72021e-09 0)
(5.00214e-05 2.94884e-09 0)
(5.00229e-05 3.34488e-09 0)
(5.00243e-05 3.86472e-09 0)
(5.00092e-05 2.35072e-10 0)
(5.00095e-05 8.70132e-10 0)
(5.00095e-05 1.4002e-09 0)
(5.00101e-05 1.83226e-09 0)
(5.00103e-05 2.34691e-09 0)
(5.00112e-05 2.56839e-09 0)
(5.00117e-05 3.0354e-09 0)
(5.0013e-05 3.04831e-09 0)
(5.0014e-05 3.44174e-09 0)
(5.00154e-05 3.34618e-09 0)
(5.0017e-05 3.66761e-09 0)
(5.00187e-05 3.63398e-09 0)
(5.00206e-05 3.93574e-09 0)
(5.00225e-05 4.14074e-09 0)
(5.00243e-05 4.52774e-09 0)
(5.0026e-05 5.0742e-09 0)
(5.00094e-05 3.73809e-10 0)
(5.00099e-05 1.30493e-09 0)
(5.00099e-05 2.09721e-09 0)
(5.00105e-05 2.76751e-09 0)
(5.00105e-05 3.51237e-09 0)
(5.00114e-05 3.90549e-09 0)
(5.00118e-05 4.54362e-09 0)
(5.0013e-05 4.64355e-09 0)
(5.00141e-05 5.13631e-09 0)
(5.00156e-05 5.04621e-09 0)
(5.00173e-05 5.39708e-09 0)
(5.00192e-05 5.31856e-09 0)
(5.00214e-05 5.60029e-09 0)
(5.00235e-05 5.76385e-09 0)
(5.00258e-05 6.12526e-09 0)
(5.00279e-05 6.68832e-09 0)
(5.00098e-05 5.60445e-10 0)
(5.00107e-05 1.87668e-09 0)
(5.00106e-05 3.01455e-09 0)
(5.00111e-05 4.00239e-09 0)
(5.0011e-05 5.05156e-09 0)
(5.00119e-05 5.68109e-09 0)
(5.00121e-05 6.54684e-09 0)
(5.00133e-05 6.77569e-09 0)
(5.00143e-05 7.4017e-09 0)
(5.00158e-05 7.33066e-09 0)
(5.00176e-05 7.72019e-09 0)
(5.00196e-05 7.5847e-09 0)
(5.00222e-05 7.83362e-09 0)
(5.00246e-05 7.93181e-09 0)
(5.00274e-05 8.24469e-09 0)
(5.003e-05 8.80884e-09 0)
(5.00106e-05 8.05861e-10 0)
(5.00122e-05 2.61359e-09 0)
(5.00119e-05 4.19805e-09 0)
(5.00124e-05 5.60051e-09 0)
(5.0012e-05 7.04507e-09 0)
(5.00127e-05 7.99263e-09 0)
(5.00127e-05 9.15754e-09 0)
(5.00137e-05 9.5708e-09 0)
(5.00146e-05 1.03754e-08 0)
(5.0016e-05 1.03441e-08 0)
(5.00179e-05 1.07871e-08 0)
(5.002e-05 1.0581e-08 0)
(5.00229e-05 1.07824e-08 0)
(5.00258e-05 1.07833e-08 0)
(5.0029e-05 1.10171e-08 0)
(5.00322e-05 1.15595e-08 0)
(5.00121e-05 1.12215e-09 0)
(5.00145e-05 3.54577e-09 0)
(5.0014e-05 5.6969e-09 0)
(5.00143e-05 7.63084e-09 0)
(5.00136e-05 9.58108e-09 0)
(5.00141e-05 1.09484e-08 0)
(5.00138e-05 1.25022e-08 0)
(5.00145e-05 1.31734e-08 0)
(5.00151e-05 1.42169e-08 0)
(5.00164e-05 1.42576e-08 0)
(5.00183e-05 1.47775e-08 0)
(5.00204e-05 1.4488e-08 0)
(5.00236e-05 1.46265e-08 0)
(5.00268e-05 1.44891e-08 0)
(5.00307e-05 1.46038e-08 0)
(5.00346e-05 1.50921e-08 0)
(5.00145e-05 1.52224e-09 0)
(5.00179e-05 4.70356e-09 0)
(5.00172e-05 7.56102e-09 0)
(5.00172e-05 1.01643e-08 0)
(5.00161e-05 1.27516e-08 0)
(5.00162e-05 1.46636e-08 0)
(5.00154e-05 1.67182e-08 0)
(5.00157e-05 1.77436e-08 0)
(5.0016e-05 1.91071e-08 0)
(5.00169e-05 1.92691e-08 0)
(5.00187e-05 1.99038e-08 0)
(5.00207e-05 1.95222e-08 0)
(5.00242e-05 1.95844e-08 0)
(5.00278e-05 1.92568e-08 0)
(5.00324e-05 1.92014e-08 0)
(5.00372e-05 1.95896e-08 0)
(5.00179e-05 2.01911e-09 0)
(5.00227e-05 6.11455e-09 0)
(5.00217e-05 9.83636e-09 0)
(5.00214e-05 1.32677e-08 0)
(5.00198e-05 1.66454e-08 0)
(5.00194e-05 1.92529e-08 0)
(5.0018e-05 2.19459e-08 0)
(5.00177e-05 2.34515e-08 0)
(5.00173e-05 2.52438e-08 0)
(5.00177e-05 2.56025e-08 0)
(5.00191e-05 2.64128e-08 0)
(5.0021e-05 2.59415e-08 0)
(5.00246e-05 2.59217e-08 0)
(5.00286e-05 2.53404e-08 0)
(5.0034e-05 2.505e-08 0)
(5.00399e-05 2.5272e-08 0)
(5.00228e-05 2.62456e-09 0)
(5.00294e-05 7.79944e-09 0)
(5.00279e-05 1.25584e-08 0)
(5.00272e-05 1.69948e-08 0)
(5.00249e-05 2.1337e-08 0)
(5.00238e-05 2.48181e-08 0)
(5.00216e-05 2.8317e-08 0)
(5.00205e-05 3.04651e-08 0)
(5.00193e-05 3.28324e-08 0)
(5.00189e-05 3.35026e-08 0)
(5.00198e-05 3.45872e-08 0)
(5.00212e-05 3.40543e-08 0)
(5.00249e-05 3.39685e-08 0)
(5.00292e-05 3.30639e-08 0)
(5.00355e-05 3.24621e-08 0)
(5.00426e-05 3.24259e-08 0)
(5.00295e-05 3.34743e-09 0)
(5.00382e-05 9.766e-09 0)
(5.00362e-05 1.57421e-08 0)
(5.0035e-05 2.13731e-08 0)
(5.00319e-05 2.68703e-08 0)
(5.003e-05 3.14292e-08 0)
(5.00267e-05 3.59322e-08 0)
(5.00245e-05 3.89289e-08 0)
(5.00222e-05 4.20652e-08 0)
(5.00207e-05 4.32186e-08 0)
(5.00207e-05 4.47353e-08 0)
(5.00215e-05 4.42214e-08 0)
(5.0025e-05 4.41365e-08 0)
(5.00295e-05 4.28556e-08 0)
(5.00366e-05 4.18806e-08 0)
(5.00453e-05 4.14733e-08 0)
(5.00384e-05 4.19094e-09 0)
(5.00496e-05 1.20015e-08 0)
(5.00471e-05 1.93698e-08 0)
(5.00453e-05 2.6386e-08 0)
(5.00413e-05 3.3236e-08 0)
(5.00383e-05 3.90966e-08 0)
(5.00337e-05 4.48305e-08 0)
(5.00301e-05 4.89289e-08 0)
(5.00263e-05 5.30847e-08 0)
(5.00235e-05 5.49672e-08 0)
(5.00222e-05 5.71559e-08 0)
(5.00218e-05 5.68231e-08 0)
(5.00248e-05 5.68877e-08 0)
(5.00292e-05 5.52217e-08 0)
(5.00373e-05 5.38574e-08 0)
(5.00477e-05 5.29406e-08 0)
(5.005e-05 5.14952e-09 0)
(5.00641e-05 1.44632e-08 0)
(5.0061e-05 2.33756e-08 0)
(5.00585e-05 3.1951e-08 0)
(5.00534e-05 4.03423e-08 0)
(5.00492e-05 4.77352e-08 0)
(5.0043e-05 5.49453e-08 0)
(5.00379e-05 6.04435e-08 0)
(5.00322e-05 6.59305e-08 0)
(5.00275e-05 6.88806e-08 0)
(5.00244e-05 7.20875e-08 0)
(5.00224e-05 7.221e-08 0)
(5.00244e-05 7.267e-08 0)
(5.00283e-05 7.06409e-08 0)
(5.00373e-05 6.88452e-08 0)
(5.00496e-05 6.7129e-08 0)
(5.00647e-05 6.20472e-09 0)
(5.00821e-05 1.7069e-08 0)
(5.00783e-05 2.76287e-08 0)
(5.0075e-05 3.78951e-08 0)
(5.00687e-05 4.79819e-08 0)
(5.00631e-05 5.71198e-08 0)
(5.00553e-05 6.60501e-08 0)
(5.00482e-05 7.32809e-08 0)
(5.00404e-05 8.04745e-08 0)
(5.00334e-05 8.49541e-08 0)
(5.00279e-05 8.96974e-08 0)
(5.00236e-05 9.07726e-08 0)
(5.00239e-05 9.21175e-08 0)
(5.00266e-05 8.99142e-08 0)
(5.00362e-05 8.75993e-08 0)
(5.00508e-05 8.44596e-08 0)
(5.00828e-05 7.32116e-09 0)
(5.01038e-05 1.96881e-08 0)
(5.00994e-05 3.19179e-08 0)
(5.00953e-05 4.39296e-08 0)
(5.00877e-05 5.57937e-08 0)
(5.00807e-05 6.68303e-08 0)
(5.0071e-05 7.76798e-08 0)
(5.00618e-05 8.69705e-08 0)
(5.00515e-05 9.62811e-08 0)
(5.00418e-05 1.02889e-07 0)
(5.00334e-05 1.09947e-07 0)
(5.0026e-05 1.12944e-07 0)
(5.00234e-05 1.16432e-07 0)
(5.00238e-05 1.15283e-07 0)
(5.0033e-05 1.13554e-07 0)
(5.00505e-05 1.09227e-07 0)
(5.01048e-05 8.44264e-09 0)
(5.01296e-05 2.21373e-08 0)
(5.01245e-05 3.59432e-08 0)
(5.01195e-05 4.96352e-08 0)
(5.01107e-05 6.3236e-08 0)
(5.01022e-05 7.62028e-08 0)
(5.00905e-05 8.90452e-08 0)
(5.00793e-05 1.00613e-07 0)
(5.00663e-05 1.12347e-07 0)
(5.00538e-05 1.21656e-07 0)
(5.00421e-05 1.31878e-07 0)
(5.00312e-05 1.38125e-07 0)
(5.0025e-05 1.45928e-07 0)
(5.00215e-05 1.48905e-07 0)
(5.00282e-05 1.52443e-07 0)
(5.0047e-05 1.52197e-07 0)
(5.01307e-05 9.49063e-09 0)
(5.01592e-05 2.41862e-08 0)
(5.01535e-05 3.93249e-08 0)
(5.01477e-05 5.4472e-08 0)
(5.01377e-05 6.95964e-08 0)
(5.01277e-05 8.43324e-08 0)
(5.01142e-05 9.9017e-08 0)
(5.01009e-05 1.12815e-07 0)
(5.00853e-05 1.26926e-07 0)
(5.00702e-05 1.39063e-07 0)
(5.00553e-05 1.52637e-07 0)
(5.00411e-05 1.62598e-07 0)
(5.00318e-05 1.75708e-07 0)
(5.00248e-05 1.84537e-07 0)
(5.00281e-05 1.97368e-07 0)
(5.00432e-05 2.08086e-07 0)
(5.01605e-05 1.03665e-08 0)
(5.01925e-05 2.55725e-08 0)
(5.01861e-05 4.16297e-08 0)
(5.01796e-05 5.7822e-08 0)
(5.01685e-05 7.40564e-08 0)
(5.01571e-05 9.01714e-08 0)
(5.01418e-05 1.06278e-07 0)
(5.01265e-05 1.21924e-07 0)
(5.01083e-05 1.37896e-07 0)
(5.00905e-05 1.52335e-07 0)
(5.00723e-05 1.68326e-07 0)
(5.00549e-05 1.80648e-07 0)
(5.0042e-05 1.96677e-07 0)
(5.0031e-05 2.07022e-07 0)
(5.00301e-05 2.21831e-07 0)
(5.00381e-05 2.32294e-07 0)
(5.01939e-05 1.09583e-08 0)
(5.02288e-05 2.60251e-08 0)
(5.02219e-05 4.24107e-08 0)
(5.02146e-05 5.90502e-08 0)
(5.02024e-05 7.57852e-08 0)
(5.01897e-05 9.26783e-08 0)
(5.01728e-05 1.09575e-07 0)
(5.01554e-05 1.26477e-07 0)
(5.01347e-05 1.43605e-07 0)
(5.0114e-05 1.59726e-07 0)
(5.0092e-05 1.77218e-07 0)
(5.00705e-05 1.91036e-07 0)
(5.00526e-05 2.08736e-07 0)
(5.00354e-05 2.18684e-07 0)
(5.00286e-05 2.33837e-07 0)
(5.00293e-05 2.42006e-07 0)
(5.02304e-05 1.11498e-08 0)
(5.02671e-05 2.52788e-08 0)
(5.02597e-05 4.12319e-08 0)
(5.02518e-05 5.75367e-08 0)
(5.02387e-05 7.39746e-08 0)
(5.02247e-05 9.08413e-08 0)
(5.02063e-05 1.07701e-07 0)
(5.01868e-05 1.25066e-07 0)
(5.01635e-05 1.42475e-07 0)
(5.01398e-05 1.59547e-07 0)
(5.01134e-05 1.77553e-07 0)
(5.00873e-05 1.92281e-07 0)
(5.00629e-05 2.10674e-07 0)
(5.00381e-05 2.19268e-07 0)
(5.00247e-05 2.35333e-07 0)
(5.00179e-05 2.40116e-07 0)
(5.02689e-05 1.08279e-08 0)
(5.03064e-05 2.31003e-08 0)
(5.02985e-05 3.77101e-08 0)
(5.02899e-05 5.27359e-08 0)
(5.02761e-05 6.7911e-08 0)
(5.02609e-05 8.37547e-08 0)
(5.02411e-05 9.95626e-08 0)
(5.02197e-05 1.16393e-07 0)
(5.01938e-05 1.33044e-07 0)
(5.01669e-05 1.50201e-07 0)
(5.01359e-05 1.67705e-07 0)
(5.01046e-05 1.83057e-07 0)
(5.0072e-05 2.01168e-07 0)
(5.00385e-05 2.08825e-07 0)
(5.00176e-05 2.26934e-07 0)
(4.99996e-05 2.26103e-07 0)
(5.03083e-05 9.8925e-09 0)
(5.03451e-05 1.92928e-08 0)
(5.03368e-05 3.15162e-08 0)
(5.03276e-05 4.41631e-08 0)
(5.0313e-05 5.69289e-08 0)
(5.02968e-05 7.05208e-08 0)
(5.02758e-05 8.39965e-08 0)
(5.02527e-05 9.89378e-08 0)
(5.02244e-05 1.13424e-07 0)
(5.01943e-05 1.29379e-07 0)
(5.01589e-05 1.45187e-07 0)
(5.0122e-05 1.60861e-07 0)
(5.008e-05 1.77898e-07 0)
(5.00376e-05 1.8745e-07 0)
(5.00066e-05 2.06738e-07 0)
(4.99695e-05 1.95703e-07 0)
(5.03471e-05 8.25968e-09 0)
(5.03816e-05 1.36777e-08 0)
(5.03729e-05 2.23361e-08 0)
(5.03631e-05 3.13211e-08 0)
(5.03478e-05 4.03143e-08 0)
(5.03305e-05 5.01921e-08 0)
(5.03084e-05 5.98635e-08 0)
(5.02835e-05 7.13553e-08 0)
(5.02531e-05 8.21581e-08 0)
(5.022e-05 9.55014e-08 0)
(5.01809e-05 1.08437e-07 0)
(5.01386e-05 1.236e-07 0)
(5.00881e-05 1.39228e-07 0)
(5.00362e-05 1.52417e-07 0)
(4.99844e-05 1.6554e-07 0)
(4.99171e-05 1.37487e-07 0)
(5.03838e-05 5.8552e-09 0)
(5.04141e-05 6.15994e-09 0)
(5.04048e-05 1.0054e-08 0)
(5.03942e-05 1.41465e-08 0)
(5.03779e-05 1.81792e-08 0)
(5.03595e-05 2.31921e-08 0)
(5.03364e-05 2.80575e-08 0)
(5.031e-05 3.52077e-08 0)
(5.02781e-05 4.18908e-08 0)
(5.02436e-05 5.20021e-08 0)
(5.0203e-05 6.01581e-08 0)
(5.01575e-05 7.04868e-08 0)
(5.00991e-05 7.91494e-08 0)
(5.00295e-05 8.42717e-08 0)
(4.99402e-05 7.80903e-08 0)
(4.98309e-05 3.12172e-08 0)
(5.04165e-05 2.63785e-09 0)
(5.04402e-05 -2.8035e-09 0)
(5.04303e-05 -4.36899e-09 0)
(5.04189e-05 -5.49451e-09 0)
(5.04022e-05 -6.33847e-09 0)
(5.0384e-05 -6.30442e-09 0)
(5.03616e-05 -7.10826e-09 0)
(5.03356e-05 -6.32821e-09 0)
(5.03031e-05 -6.96292e-09 0)
(5.0264e-05 -5.70031e-09 0)
(5.02165e-05 -1.08294e-08 0)
(5.01616e-05 -1.66895e-08 0)
(5.00899e-05 -3.18651e-08 0)
(4.99971e-05 -5.25905e-08 0)
(4.98673e-05 -8.52617e-08 0)
(4.9712e-05 -1.44339e-07 0)
(5.04427e-05 -1.21966e-09 0)
(5.04625e-05 -1.24948e-08 0)
(5.04529e-05 -2.02397e-08 0)
(5.04418e-05 -2.77608e-08 0)
(5.04242e-05 -3.54955e-08 0)
(5.04025e-05 -4.39193e-08 0)
(5.03758e-05 -5.58682e-08 0)
(5.03443e-05 -6.95125e-08 0)
(5.03058e-05 -8.9117e-08 0)
(5.02575e-05 -1.10796e-07 0)
(5.01973e-05 -1.4179e-07 0)
(5.01256e-05 -1.74684e-07 0)
(5.00335e-05 -2.20716e-07 0)
(4.99189e-05 -2.67978e-07 0)
(4.97611e-05 -3.2546e-07 0)
(4.95709e-05 -3.89942e-07 0)
(5.04648e-05 -5.38803e-09 0)
(5.04733e-05 -2.70091e-08 0)
(5.04613e-05 -4.50551e-08 0)
(5.04464e-05 -6.51872e-08 0)
(5.04236e-05 -8.86337e-08 0)
(5.03936e-05 -1.15246e-07 0)
(5.03565e-05 -1.47802e-07 0)
(5.03122e-05 -1.84925e-07 0)
(5.02598e-05 -2.30816e-07 0)
(5.01974e-05 -2.80582e-07 0)
(5.01229e-05 -3.40398e-07 0)
(5.00347e-05 -4.0106e-07 0)
(4.9926e-05 -4.74054e-07 0)
(4.97938e-05 -5.42647e-07 0)
(4.96182e-05 -6.21114e-07 0)
(4.94071e-05 -6.90209e-07 0)
(5.04764e-05 -1.1555e-08 0)
(5.04484e-05 -5.46319e-08 0)
(5.04306e-05 -9.12514e-08 0)
(5.04069e-05 -1.31836e-07 0)
(5.03739e-05 -1.77902e-07 0)
(5.03325e-05 -2.28837e-07 0)
(5.02827e-05 -2.86821e-07 0)
(5.02245e-05 -3.50236e-07 0)
(5.01579e-05 -4.22373e-07 0)
(5.00812e-05 -4.98064e-07 0)
(4.99933e-05 -5.82903e-07 0)
(4.98912e-05 -6.66322e-07 0)
(4.97702e-05 -7.5957e-07 0)
(4.96261e-05 -8.42592e-07 0)
(4.94434e-05 -9.33088e-07 0)
(4.92269e-05 -9.99319e-07 0)
(5.04536e-05 -2.33047e-08 0)
(5.03638e-05 -9.53185e-08 0)
(5.034e-05 -1.57744e-07 0)
(5.03074e-05 -2.24447e-07 0)
(5.02639e-05 -2.96618e-07 0)
(5.02108e-05 -3.73653e-07 0)
(5.01487e-05 -4.57067e-07 0)
(5.00776e-05 -5.45013e-07 0)
(4.99986e-05 -6.39935e-07 0)
(4.99101e-05 -7.36863e-07 0)
(4.98122e-05 -8.4071e-07 0)
(4.97011e-05 -9.40372e-07 0)
(4.95745e-05 -1.04656e-06 0)
(4.94272e-05 -1.13693e-06 0)
(4.92493e-05 -1.23111e-06 0)
(4.90423e-05 -1.28926e-06 0)
(5.03715e-05 -4.06814e-08 0)
(5.02052e-05 -1.43233e-07 0)
(5.0177e-05 -2.34952e-07 0)
(5.01376e-05 -3.30037e-07 0)
(5.00862e-05 -4.28908e-07 0)
(5.00245e-05 -5.30948e-07 0)
(4.99535e-05 -6.37032e-07 0)
(4.98737e-05 -7.45492e-07 0)
(4.97866e-05 -8.58098e-07 0)
(4.96908e-05 -9.70426e-07 0)
(4.95878e-05 -1.08678e-06 0)
(4.94735e-05 -1.19637e-06 0)
(4.93484e-05 -1.30923e-06 0)
(4.92062e-05 -1.40214e-06 0)
(4.90433e-05 -1.49581e-06 0)
(4.88573e-05 -1.54618e-06 0)
(5.02151e-05 -6.12185e-08 0)
(4.99696e-05 -1.90542e-07 0)
(4.99397e-05 -3.10576e-07 0)
(4.98976e-05 -4.32403e-07 0)
(4.98429e-05 -5.55409e-07 0)
(4.97776e-05 -6.78986e-07 0)
(4.9703e-05 -8.03473e-07 0)
(4.96199e-05 -9.27671e-07 0)
(4.95301e-05 -1.05285e-06 0)
(4.94327e-05 -1.1754e-06 0)
(4.933e-05 -1.29897e-06 0)
(4.92183e-05 -1.4138e-06 0)
(4.91008e-05 -1.52905e-06 0)
(4.89708e-05 -1.62201e-06 0)
(4.88301e-05 -1.71356e-06 0)
(4.86736e-05 -1.75809e-06 0)
(4.99807e-05 -8.15599e-08 0)
(4.96662e-05 -2.2949e-07 0)
(4.96376e-05 -3.72629e-07 0)
(4.95968e-05 -5.16073e-07 0)
(4.95438e-05 -6.58189e-07 0)
(4.94803e-05 -7.98379e-07 0)
(4.94077e-05 -9.36481e-07 0)
(4.93268e-05 -1.07184e-06 0)
(4.92398e-05 -1.20526e-06 0)
(4.91459e-05 -1.3341e-06 0)
(4.90486e-05 -1.46128e-06 0)
(4.89447e-05 -1.57848e-06 0)
(4.88397e-05 -1.69374e-06 0)
(4.87273e-05 -1.78601e-06 0)
(4.86141e-05 -1.87534e-06 0)
(4.8493e-05 -1.9166e-06 0)
(4.96772e-05 -9.83464e-08 0)
(4.93137e-05 -2.54485e-07 0)
(4.92886e-05 -4.12496e-07 0)
(4.92522e-05 -5.69973e-07 0)
(4.92047e-05 -7.24503e-07 0)
(4.91472e-05 -8.75501e-07 0)
(4.9081e-05 -1.02229e-06 0)
(4.90068e-05 -1.16466e-06 0)
(4.89269e-05 -1.30289e-06 0)
(4.88409e-05 -1.43524e-06 0)
(4.87529e-05 -1.56377e-06 0)
(4.86607e-05 -1.68186e-06 0)
(4.85719e-05 -1.79613e-06 0)
(4.84809e-05 -1.88804e-06 0)
(4.83987e-05 -1.97589e-06 0)
(4.8317e-05 -2.01689e-06 0)
(4.93237e-05 -1.09135e-07 0)
(4.89359e-05 -2.62981e-07 0)
(4.8915e-05 -4.26245e-07 0)
(4.88846e-05 -5.89014e-07 0)
(4.88444e-05 -7.48463e-07 0)
(4.87951e-05 -9.04044e-07 0)
(4.87379e-05 -1.05457e-06 0)
(4.8673e-05 -1.20006e-06 0)
(4.86029e-05 -1.34015e-06 0)
(4.85276e-05 -1.47387e-06 0)
(4.84517e-05 -1.60227e-06 0)
(4.83739e-05 -1.72049e-06 0)
(4.83036e-05 -1.83342e-06 0)
(4.82363e-05 -1.92569e-06 0)
(4.81871e-05 -2.01297e-06 0)
(4.81467e-05 -2.05642e-06 0)
(4.89443e-05 -1.12805e-07 0)
(4.85568e-05 -2.55628e-07 0)
(4.85398e-05 -4.14802e-07 0)
(4.85149e-05 -5.74251e-07 0)
(4.84818e-05 -7.31126e-07 0)
(4.84409e-05 -8.84994e-07 0)
(4.83929e-05 -1.03422e-06 0)
(4.83382e-05 -1.17894e-06 0)
(4.82789e-05 -1.31801e-06 0)
(4.82155e-05 -1.45105e-06 0)
(4.81529e-05 -1.57798e-06 0)
(4.80909e-05 -1.69568e-06 0)
(4.80402e-05 -1.80709e-06 0)
(4.79977e-05 -1.90043e-06 0)
(4.7982e-05 -1.98802e-06 0)
(4.79829e-05 -2.03645e-06 0)
(4.85636e-05 -1.09632e-07 0)
(4.81967e-05 -2.35753e-07 0)
(4.81823e-05 -3.83196e-07 0)
(4.81613e-05 -5.3194e-07 0)
(4.81336e-05 -6.79443e-07 0)
(4.80995e-05 -8.25546e-07 0)
(4.80595e-05 -9.68396e-07 0)
(4.8014e-05 -1.10818e-06 0)
(4.7965e-05 -1.24305e-06 0)
(4.79133e-05 -1.37303e-06 0)
(4.78639e-05 -1.49685e-06 0)
(4.78178e-05 -1.61307e-06 0)
(4.77865e-05 -1.72249e-06 0)
(4.77688e-05 -1.81716e-06 0)
(4.77854e-05 -1.90536e-06 0)