/*--------------------------------*- C++ -*----------------------------------*\
| =========                 |                                                 |
| \\      /  F ield         | foam-extend: Open Source CFD                    |
|  \\    /   O peration     | Version:     4.1-20200408                       |
|   \\  /    A nd           | Web:         http://www.foam-extend.org         |
|    \\/     M anipulation  |                                                 |
\*---------------------------------------------------------------------------*/
FoamFile
{
    version     2.0;
    format      ascii;
    class       volTensorField;
    location    "0.0720000";
    object      F;
}
// * * * * * * * * * * * * * * * * * * * * * * * * * * * * * * * * * * * * * //

dimensions      [0 0 0 0 0 0 0];

internalField   nonuniform List<tensor> 
1952
(
(1.10147 -0.00565415 -2.8845e-10 -0.000444046 0.950888 -4.01709e-11 7.44689e-11 1.12844e-09 0.950811)
(1.10147 -0.00949309 -1.2347e-10 -0.000691332 0.95099 -1.61933e-09 3.86159e-11 -1.17512e-09 0.95087)
(1.10149 -0.0127691 2.53963e-10 -0.000993522 0.951165 5.9531e-10 -9.34426e-11 -8.15764e-09 0.950912)
(1.1015 -0.015847 5.96569e-10 -0.00123297 0.951347 2.71242e-09 -2.38384e-10 3.06536e-09 0.951)
(1.10152 -0.0184443 -2.143e-10 -0.00153792 0.951604 -6.66991e-10 -3.14909e-11 1.56536e-08 0.95107)
(1.10154 -0.0206001 -1.01982e-09 -0.00176355 0.951841 -2.87928e-09 1.92091e-10 2.25127e-09 0.951186)
(1.10157 -0.0220788 -3.74546e-10 -0.00206352 0.952143 -1.12562e-09 3.45883e-11 -1.6198e-08 0.951276)
(1.10159 -0.0230464 7.08785e-10 -0.00227206 0.952469 1.55442e-09 -1.65612e-10 -2.7555e-09 0.951413)
(1.10162 -0.0230376 -7.83678e-11 -0.00256202 0.952861 -2.86284e-10 -1.12902e-10 1.55202e-08 0.951529)
(1.10164 -0.0221818 -9.81592e-10 -0.00274522 0.953327 -1.65215e-09 -7.02909e-12 -3.35097e-09 0.95169)
(1.10166 -0.0198136 3.74448e-10 -0.00301871 0.953853 3.88463e-10 -6.02416e-11 -1.58223e-08 0.951845)
(1.10169 -0.0163037 9.52216e-10 -0.00317075 0.954614 1.15366e-09 -1.09078e-10 2.7043e-09 0.952039)
(1.1017 -0.011014 -7.08839e-12 -0.00342404 0.955357 -8.84509e-11 -1.67507e-10 1.52638e-08 0.952259)
(1.10173 -0.00486753 -6.38189e-10 -0.00355035 0.956057 -1.13975e-09 -1.57588e-10 2.37986e-09 0.9525)
(1.10177 -0.000398899 -3.05887e-10 -0.00383296 0.956423 -3.33146e-10 -5.9571e-11 -4.9088e-09 0.952751)
(1.10146 -0.00314138 -8.67986e-11 -0.000180108 0.950814 -3.83612e-09 1.35001e-11 -1.66752e-09 0.950815)
(1.10156 -0.00565711 -2.88558e-10 -0.00041184 0.950879 -4.02354e-11 -1.59288e-11 1.12884e-09 0.950802)
(1.10157 -0.00949802 -1.23487e-10 -0.000668666 0.950981 -1.61983e-09 -2.19973e-11 -1.17511e-09 0.95086)
(1.10158 -0.012776 2.54143e-10 -0.000929429 0.951154 5.95635e-10 -2.36082e-11 -8.15947e-09 0.950903)
(1.1016 -0.0158557 5.96918e-10 -0.00118467 0.951336 2.71411e-09 -4.80634e-11 3.06471e-09 0.95099)
(1.10162 -0.0184545 -2.14364e-10 -0.00144199 0.951591 -6.67071e-10 -7.93354e-11 1.56569e-08 0.951061)
(1.10164 -0.0206128 -1.01998e-09 -0.00168707 0.951828 -2.8814e-09 -6.64125e-11 2.25394e-09 0.951176)
(1.10167 -0.0220944 -3.74698e-10 -0.00193519 0.952128 -1.12511e-09 -3.06655e-11 -1.62007e-08 0.951266)
(1.10169 -0.0230663 7.08202e-10 -0.00216496 0.952452 1.55728e-09 -5.55876e-11 -2.75719e-09 0.951401)
(1.10172 -0.0230604 -7.83949e-11 -0.00239864 0.952841 -2.86235e-10 -1.31179e-10 1.5524e-08 0.951518)
(1.10175 -0.0222101 -9.80176e-10 -0.00260429 0.953304 -1.65524e-09 -1.08975e-10 -3.35097e-09 0.951678)
(1.10178 -0.0198504 3.74485e-10 -0.00281778 0.953826 3.87534e-10 -2.76068e-11 -1.58269e-08 0.951832)
(1.1018 -0.0163527 9.50876e-10 -0.00298985 0.954582 1.15564e-09 -7.2336e-11 2.70489e-09 0.952025)
(1.10182 -0.0110878 -6.97907e-12 -0.00317895 0.955319 -8.84327e-11 -1.7057e-10 1.52689e-08 0.952243)
(1.10186 -0.00498672 -6.3237e-10 -0.00331652 0.95601 -1.14079e-09 -1.7773e-10 2.38074e-09 0.952482)
(1.10191 -0.000607981 -3.00055e-10 -0.00351641 0.956368 -3.32611e-10 -7.829e-11 -4.91128e-09 0.952731)
(1.10155 -0.00314319 -8.68107e-11 -0.000176786 0.950806 -3.83647e-09 -6.05782e-12 -1.66779e-09 0.950806)
(1.10165 -0.00566069 -2.88713e-10 -0.000405141 0.950853 -4.0192e-11 -1.59495e-11 1.12939e-09 0.950778)
(1.10166 -0.0095042 -1.2349e-10 -0.000658289 0.950956 -1.62065e-09 -2.20337e-11 -1.17575e-09 0.950835)
(1.10167 -0.0127845 2.54342e-10 -0.000914224 0.951129 5.96073e-10 -2.36511e-11 -8.16364e-09 0.950878)
(1.10169 -0.0158668 5.97185e-10 -0.00116625 0.95131 2.71591e-09 -4.81232e-11 3.06625e-09 0.950965)
(1.10171 -0.0184674 -2.14465e-10 -0.0014184 0.951564 -6.67358e-10 -7.94263e-11 1.56649e-08 0.951035)
(1.10173 -0.0206281 -1.02025e-09 -0.00166037 0.9518 -2.88347e-09 -6.65043e-11 2.25511e-09 0.95115)
(1.10176 -0.0221129 -3.74896e-10 -0.00190316 0.952099 -1.12537e-09 -3.07384e-11 -1.62094e-08 0.95124)
(1.10179 -0.023089 7.07804e-10 -0.00213009 0.952422 1.55904e-09 -5.56782e-11 -2.75875e-09 0.951375)
(1.10182 -0.0230854 -7.8439e-11 -0.0023587 0.952808 -2.86309e-10 -1.31328e-10 1.55325e-08 0.951491)
(1.10184 -0.0222382 -9.79532e-10 -0.00256272 0.95327 -1.6573e-09 -1.0913e-10 -3.35292e-09 0.95165)
(1.10187 -0.0198822 3.74834e-10 -0.00277211 0.953791 3.8736e-10 -2.76867e-11 -1.58361e-08 0.951804)
(1.10189 -0.0163868 9.51121e-10 -0.00294389 0.954545 1.15727e-09 -7.2435e-11 2.70648e-09 0.951996)
(1.10191 -0.011125 -6.90012e-12 -0.00313126 0.955281 -8.84409e-11 -1.70761e-10 1.52782e-08 0.952214)
(1.10194 -0.00502653 -6.32641e-10 -0.00327079 0.955973 -1.14267e-09 -1.77965e-10 2.38222e-09 0.952452)
(1.10197 -0.000648592 -3.00333e-10 -0.00347176 0.956336 -3.3296e-10 -7.84123e-11 -4.91441e-09 0.9527)
(1.10164 -0.00314532 -8.68222e-11 -0.000173971 0.950781 -3.83802e-09 -6.06696e-12 -1.66863e-09 0.950781)
(1.10174 -0.00566428 -2.88873e-10 -0.000399501 0.950825 -4.0111e-11 -1.59707e-11 1.13003e-09 0.950749)
(1.10175 -0.00951029 -1.23518e-10 -0.000649391 0.950927 -1.62151e-09 -2.2069e-11 -1.17647e-09 0.950806)
(1.10176 -0.012793 2.54558e-10 -0.000901342 0.951099 5.9653e-10 -2.3693e-11 -8.16845e-09 0.950849)
(1.10178 -0.0158782 5.97437e-10 -0.00115015 0.951281 2.71763e-09 -4.8185e-11 3.06802e-09 0.950936)
(1.1018 -0.0184808 -2.14573e-10 -0.00139815 0.951533 -6.67703e-10 -7.9519e-11 1.56742e-08 0.951006)
(1.10182 -0.0206441 -1.02054e-09 -0.00163758 0.951768 -2.88543e-09 -6.65947e-11 2.25644e-09 0.95112)
(1.10185 -0.0221319 -3.75138e-10 -0.00187638 0.952066 -1.12587e-09 -3.08078e-11 -1.62194e-08 0.95121)
(1.10188 -0.0231125 7.07146e-10 -0.00210102 0.952388 1.56055e-09 -5.57689e-11 -2.76051e-09 0.951344)
(1.10191 -0.0231111 -7.84957e-11 -0.00232617 0.952774 -2.8642e-10 -1.31478e-10 1.55423e-08 0.95146)
(1.10194 -0.0222667 -9.7873e-10 -0.00252884 0.953234 -1.65895e-09 -1.09285e-10 -3.35513e-09 0.951619)
(1.10196 -0.0199137 3.75306e-10 -0.00273577 0.953754 3.87434e-10 -2.77627e-11 -1.58465e-08 0.951772)
(1.10199 -0.0164201 9.51209e-10 -0.00290753 0.954507 1.15858e-09 -7.25317e-11 2.70824e-09 0.951963)
(1.102 -0.0111618 -6.82118e-12 -0.00309361 0.955244 -8.84571e-11 -1.70955e-10 1.52885e-08 0.952182)
(1.10202 -0.00506515 -6.32982e-10 -0.00323446 0.955936 -1.14401e-09 -1.78201e-10 2.38382e-09 0.952419)
(1.10205 -0.000684955 -3.00903e-10 -0.00343506 0.956301 -3.33174e-10 -7.85324e-11 -4.91789e-09 0.952667)
(1.10173 -0.00314739 -8.68401e-11 -0.000171592 0.950753 -3.83985e-09 -6.07603e-12 -1.6696e-09 0.950753)
(1.10184 -0.0056681 -2.89045e-10 -0.000394706 0.950793 -4.00271e-11 -1.59923e-11 1.13073e-09 0.950717)
(1.10184 -0.00951695 -1.2353e-10 -0.000641659 0.950895 -1.62247e-09 -2.21033e-11 -1.17728e-09 0.950775)
(1.10186 -0.012802 2.5477e-10 -0.000890556 0.951067 5.97036e-10 -2.37339e-11 -8.17382e-09 0.950817)
(1.10188 -0.0158903 5.97622e-10 -0.00113654 0.951248 2.71958e-09 -4.82486e-11 3.06999e-09 0.950904)
(1.1019 -0.0184949 -2.14692e-10 -0.00138162 0.9515 -6.68084e-10 -7.96127e-11 1.56845e-08 0.950974)
(1.10192 -0.0206605 -1.02084e-09 -0.00161874 0.951734 -2.88748e-09 -6.6684e-11 2.2579e-09 0.951088)
(1.10195 -0.0221512 -3.75402e-10 -0.00185493 0.952031 -1.12646e-09 -3.08746e-11 -1.62303e-08 0.951178)
(1.10198 -0.0231355 7.06783e-10 -0.0020779 0.952352 1.56205e-09 -5.58595e-11 -2.76245e-09 0.951311)
(1.10201 -0.0231361 -7.85423e-11 -0.00230095 0.952737 -2.86545e-10 -1.3163e-10 1.5553e-08 0.951427)
(1.10203 -0.0222943 -9.78212e-10 -0.00250242 0.953197 -1.66069e-09 -1.0944e-10 -3.35754e-09 0.951585)
(1.10206 -0.0199439 3.75729e-10 -0.00270805 0.953717 3.87576e-10 -2.7835e-11 -1.58578e-08 0.951738)
(1.10208 -0.0164507 9.5172e-10 -0.00287961 0.954469 1.1599e-09 -7.26269e-11 2.71014e-09 0.951929)
(1.10209 -0.0111929 -6.74155e-12 -0.00306554 0.955206 -8.84759e-11 -1.71151e-10 1.52996e-08 0.952147)
(1.10211 -0.00509554 -6.3357e-10 -0.00320712 0.9559 -1.1454e-09 -1.7844e-10 2.38553e-09 0.952384)
(1.10213 -0.000712207 -3.01329e-10 -0.00340809 0.956267 -3.33428e-10 -7.86511e-11 -4.92157e-09 0.952632)
(1.10182 -0.00314958 -8.69179e-11 -0.000169542 0.950721 -3.84193e-09 -6.08505e-12 -1.67068e-09 0.950721)
(1.10194 -0.00567194 -2.89228e-10 -0.00039081 0.950758 -3.99325e-11 -1.60142e-11 1.1315e-09 0.950683)
(1.10194 -0.00952352 -1.23561e-10 -0.000635403 0.95086 -1.6235e-09 -2.21367e-11 -1.17816e-09 0.95074)
(1.10196 -0.012811 2.54991e-10 -0.00088191 0.951032 5.97563e-10 -2.3774e-11 -8.17963e-09 0.950783)
(1.10198 -0.0159019 5.97958e-10 -0.00112579 0.951212 2.7216e-09 -4.83136e-11 3.07211e-09 0.950869)
(1.102 -0.0185086 -2.14801e-10 -0.00136869 0.951464 -6.68497e-10 -7.97073e-11 1.56956e-08 0.950939)
(1.10202 -0.020677 -1.02115e-09 -0.0016037 0.951697 -2.88963e-09 -6.67724e-11 2.25948e-09 0.951052)
(1.10205 -0.0221705 -3.7568e-10 -0.00183811 0.951994 -1.12715e-09 -3.09389e-11 -1.62421e-08 0.951142)
(1.10208 -0.023159 7.06179e-10 -0.00205954 0.952315 1.56351e-09 -5.59498e-11 -2.76452e-09 0.951275)
(1.10211 -0.023161 -7.8605e-11 -0.00228134 0.952699 -2.86682e-10 -1.31785e-10 1.55644e-08 0.951391)
(1.10213 -0.0223206 -9.77569e-10 -0.0024822 0.953158 -1.66239e-09 -1.09594e-10 -3.36009e-09 0.951548)
(1.10215 -0.0199719 3.76268e-10 -0.00268732 0.953678 3.87798e-10 -2.79041e-11 -1.58697e-08 0.951702)
(1.10217 -0.0164785 9.51999e-10 -0.00285904 0.954432 1.16123e-09 -7.2721e-11 2.71214e-09 0.951892)
(1.10218 -0.0112211 -6.66491e-12 -0.00304492 0.955169 -8.8496e-11 -1.71349e-10 1.53112e-08 0.95211)
(1.1022 -0.00512164 -6.34211e-10 -0.0031871 0.955864 -1.1466e-09 -1.78679e-10 2.38732e-09 0.952347)
(1.10221 -0.000734101 -3.01781e-10 -0.00338787 0.956232 -3.33662e-10 -7.87687e-11 -4.9254e-09 0.952596)
(1.10192 -0.00315174 -8.69128e-11 -0.000167876 0.950686 -3.84422e-09 -6.09403e-12 -1.67186e-09 0.950686)
(1.10204 -0.00567588 -2.89411e-10 -0.000387667 0.950721 -3.98351e-11 -1.60363e-11 1.13231e-09 0.950646)
(1.10204 -0.00953041 -1.23579e-10 -0.000630319 0.950823 -1.6246e-09 -2.21696e-11 -1.17909e-09 0.950703)
(1.10206 -0.0128203 2.55205e-10 -0.000874966 0.950994 5.98119e-10 -2.38135e-11 -8.18579e-09 0.950746)
(1.10208 -0.0159144 5.98122e-10 -0.00111703 0.951175 2.72378e-09 -4.83799e-11 3.07436e-09 0.950832)
(1.1021 -0.0185229 -2.14927e-10 -0.00135831 0.951426 -6.6893e-10 -7.98034e-11 1.57074e-08 0.950902)
(1.10212 -0.0206932 -1.0214e-09 -0.00159199 0.951659 -2.892e-09 -6.68603e-11 2.26115e-09 0.951015)
(1.10215 -0.0221892 -3.75987e-10 -0.00182516 0.951955 -1.12784e-09 -3.10017e-11 -1.62546e-08 0.951105)
(1.10218 -0.023181 7.05756e-10 -0.0020457 0.952277 1.56522e-09 -5.60403e-11 -2.76671e-09 0.951238)
(1.10221 -0.0231846 -7.8652e-11 -0.00226673 0.95266 -2.86825e-10 -1.3194e-10 1.55763e-08 0.951354)
(1.10223 -0.0223457 -9.7719e-10 -0.00246713 0.95312 -1.6642e-09 -1.09749e-10 -3.36276e-09 0.951511)
(1.10225 -0.0199983 3.7676e-10 -0.00267199 0.95364 3.88025e-10 -2.79715e-11 -1.58822e-08 0.951664)
(1.10227 -0.0165034 9.52639e-10 -0.00284378 0.954394 1.16248e-09 -7.28145e-11 2.71421e-09 0.951855)
(1.10227 -0.011245 -6.58313e-12 -0.00302981 0.955132 -8.85174e-11 -1.71548e-10 1.53232e-08 0.952073)
(1.10228 -0.00514312 -6.3485e-10 -0.0031722 0.955828 -1.14777e-09 -1.7892e-10 2.38916e-09 0.952309)
(1.10229 -0.000751251 -3.0217e-10 -0.00337284 0.956198 -3.33896e-10 -7.88854e-11 -4.92936e-09 0.952558)
(1.10203 -0.00315398 -8.69274e-11 -0.000166527 0.95065 -3.84667e-09 -6.10299e-12 -1.67312e-09 0.950649)
(1.10214 -0.00567972 -2.89588e-10 -0.000385314 0.950683 -3.97339e-11 -1.60587e-11 1.13315e-09 0.950608)
(1.10215 -0.00953701 -1.23604e-10 -0.000626551 0.950784 -1.62577e-09 -2.2202e-11 -1.18007e-09 0.950665)
(1.10216 -0.0128292 2.55419e-10 -0.000869818 0.950956 5.98694e-10 -2.38526e-11 -8.19224e-09 0.950707)
(1.10218 -0.015926 5.98413e-10 -0.00111061 0.951136 2.72604e-09 -4.84472e-11 3.07671e-09 0.950793)
(1.1022 -0.0185364 -2.15039e-10 -0.00135073 0.951387 -6.69381e-10 -7.99002e-11 1.57197e-08 0.950864)
(1.10223 -0.0207092 -1.02175e-09 -0.00158329 0.95162 -2.89432e-09 -6.69479e-11 2.26288e-09 0.950977)
(1.10225 -0.0222077 -3.76259e-10 -0.00181563 0.951916 -1.12862e-09 -3.1063e-11 -1.62675e-08 0.951066)
(1.10228 -0.0232029 7.05327e-10 -0.0020354 0.952238 1.56678e-09 -5.61307e-11 -2.76896e-09 0.951199)
(1.10231 -0.023207 -7.87092e-11 -0.002256 0.95262 -2.86973e-10 -1.32098e-10 1.55887e-08 0.951315)
(1.10233 -0.0223686 -9.76656e-10 -0.00245623 0.953081 -1.666e-09 -1.09904e-10 -3.36551e-09 0.951472)
(1.10235 -0.0200221 3.77294e-10 -0.00266097 0.953602 3.8829e-10 -2.80371e-11 -1.5895e-08 0.951625)
(1.10236 -0.0165259 9.53012e-10 -0.00283288 0.954356 1.16382e-09 -7.29075e-11 2.71634e-09 0.951816)
(1.10237 -0.0112662 -6.50249e-12 -0.00301907 0.955095 -8.85378e-11 -1.71749e-10 1.53355e-08 0.952034)
(1.10237 -0.00516093 -6.35429e-10 -0.00316164 0.955792 -1.14886e-09 -1.79161e-10 2.39104e-09 0.952271)
(1.10238 -0.000764734 -3.02524e-10 -0.00336192 0.956163 -3.34127e-10 -7.90017e-11 -4.9334e-09 0.95252)
(1.10213 -0.00315617 -8.69752e-11 -0.000165519 0.950611 -3.84925e-09 -6.11193e-12 -1.67443e-09 0.950611)
(1.10225 -0.00568361 -2.89763e-10 -0.000383546 0.950643 -3.96276e-11 -1.60813e-11 1.13402e-09 0.950568)
(1.10225 -0.00954378 -1.23618e-10 -0.000623699 0.950745 -1.62697e-09 -2.22341e-11 -1.18107e-09 0.950625)
(1.10227 -0.0128383 2.55624e-10 -0.000865961 0.950916 5.99281e-10 -2.38916e-11 -8.19888e-09 0.950668)
(1.10228 -0.0159381 5.98593e-10 -0.00110575 0.951097 2.72838e-09 -4.85153e-11 3.07913e-09 0.950754)
(1.10231 -0.0185499 -2.15155e-10 -0.0013451 0.951347 -6.69841e-10 -7.99977e-11 1.57323e-08 0.950824)
(1.10233 -0.0207244 -1.02194e-09 -0.00157697 0.95158 -2.89687e-09 -6.70354e-11 2.26467e-09 0.950937)
(1.10235 -0.022225 -3.76587e-10 -0.00180884 0.951876 -1.12935e-09 -3.11238e-11 -1.62808e-08 0.951027)
(1.10238 -0.0232231 7.04809e-10 -0.00202814 0.952198 1.56866e-09 -5.62212e-11 -2.77128e-09 0.951159)
(1.10241 -0.0232284 -7.87537e-11 -0.00224858 0.952581 -2.87123e-10 -1.32256e-10 1.56013e-08 0.951275)
(1.10243 -0.0223905 -9.76359e-10 -0.00244876 0.953042 -1.66784e-09 -1.10059e-10 -3.36833e-09 0.951432)
(1.10244 -0.0200441 3.77823e-10 -0.00265367 0.953564 3.88547e-10 -2.81026e-11 -1.5908e-08 0.951586)
(1.10246 -0.0165455 9.53634e-10 -0.0028257 0.954318 1.16507e-09 -7.30004e-11 2.7185e-09 0.951776)
(1.10246 -0.0112841 -6.4181e-12 -0.00301185 0.955058 -8.85594e-11 -1.7195e-10 1.5348e-08 0.951995)
(1.10246 -0.00517585 -6.3603e-10 -0.00315434 0.955756 -1.14988e-09 -1.79404e-10 2.39296e-09 0.952232)
(1.10246 -0.00077521 -3.02831e-10 -0.00335421 0.956128 -3.3436e-10 -7.91179e-11 -4.93751e-09 0.952481)
(1.10223 -0.0031584 -8.70024e-11 -0.000164759 0.950572 -3.85192e-09 -6.12088e-12 -1.67579e-09 0.950571)
(1.10235 -0.00568729 -2.89929e-10 -0.00038233 0.950603 -3.95225e-11 -1.61041e-11 1.13492e-09 0.950527)
(1.10236 -0.00955014 -1.23633e-10 -0.000621745 0.950704 -1.62821e-09 -2.22661e-11 -1.18211e-09 0.950584)
(1.10237 -0.0128468 2.55824e-10 -0.000863338 0.950876 5.99884e-10 -2.39302e-11 -8.20568e-09 0.950627)
(1.10239 -0.0159493 5.98797e-10 -0.00110248 0.951056 2.7308e-09 -4.85841e-11 3.08161e-09 0.950713)
(1.10241 -0.018563 -2.15258e-10 -0.00134135 0.951306 -6.70309e-10 -8.00962e-11 1.57452e-08 0.950783)
(1.10243 -0.0207393 -1.0223e-09 -0.00157286 0.95154 -2.89932e-09 -6.7123e-11 2.26648e-09 0.950896)
(1.10246 -0.0222419 -3.76846e-10 -0.00180454 0.951836 -1.13015e-09 -3.11838e-11 -1.62943e-08 0.950986)
(1.10248 -0.0232427 7.04584e-10 -0.00202372 0.952159 1.57038e-09 -5.63119e-11 -2.77364e-09 0.951119)
(1.10251 -0.0232478 -7.8799e-11 -0.00224423 0.952542 -2.87274e-10 -1.32415e-10 1.56142e-08 0.951235)
(1.10253 -0.02241 -9.75884e-10 -0.0024443 0.953003 -1.66971e-09 -1.10215e-10 -3.37118e-09 0.951392)
(1.10254 -0.0200638 3.78345e-10 -0.00264927 0.953526 3.88806e-10 -2.81672e-11 -1.59212e-08 0.951546)
(1.10255 -0.0165633 9.54027e-10 -0.0028212 0.954281 1.16636e-09 -7.30934e-11 2.72068e-09 0.951736)
(1.10255 -0.0113001 -6.33586e-12 -0.0030072 0.955022 -8.85798e-11 -1.72153e-10 1.53606e-08 0.951955)
(1.10255 -0.00518831 -6.36529e-10 -0.0031494 0.955719 -1.15089e-09 -1.79647e-10 2.39489e-09 0.952192)
(1.10255 -0.000783508 -3.0311e-10 -0.00334889 0.956092 -3.34591e-10 -7.92339e-11 -4.94165e-09 0.952442)
(1.10234 -0.00316054 -8.70654e-11 -0.000164235 0.950531 -3.85467e-09 -6.12983e-12 -1.67719e-09 0.950531)
(1.10246 -0.00569098 -2.9009e-10 -0.000381609 0.950562 -3.94127e-11 -1.6127e-11 1.13582e-09 0.950486)
(1.10246 -0.00955656 -1.23648e-10 -0.000620622 0.950663 -1.62946e-09 -2.2298e-11 -1.18315e-09 0.950543)
(1.10248 -0.0128553 2.56019e-10 -0.000861859 0.950835 6.00488e-10 -2.3969e-11 -8.21256e-09 0.950586)
(1.10249 -0.0159604 5.98993e-10 -0.00110075 0.951016 2.73326e-09 -4.86532e-11 3.08411e-09 0.950672)
(1.10252 -0.0185751 -2.15363e-10 -0.00133943 0.951265 -6.7078e-10 -8.01946e-11 1.57582e-08 0.950743)
(1.10254 -0.020753 -1.0224e-09 -0.00157064 0.951499 -2.90195e-09 -6.72107e-11 2.26832e-09 0.950855)
(1.10256 -0.0222574 -3.77177e-10 -0.00180228 0.951796 -1.1309e-09 -3.12442e-11 -1.63079e-08 0.950945)
(1.10258 -0.0232607 7.04056e-10 -0.00202131 0.952119 1.57233e-09 -5.64028e-11 -2.77601e-09 0.951078)
(1.10261 -0.0232665 -7.88357e-11 -0.00224184 0.952502 -2.87421e-10 -1.32574e-10 1.56271e-08 0.951194)
(1.10263 -0.0224286 -9.75571e-10 -0.0024419 0.952964 -1.67162e-09 -1.1037e-10 -3.37405e-09 0.951351)
(1.10264 -0.0200823 3.78854e-10 -0.00264679 0.953488 3.89046e-10 -2.82322e-11 -1.59345e-08 0.951505)
(1.10265 -0.0165788 9.54639e-10 -0.00281863 0.954243 1.1676e-09 -7.31865e-11 2.72288e-09 0.951696)
(1.10264 -0.0113137 -6.24571e-12 -0.00300446 0.954985 -8.86012e-11 -1.72356e-10 1.53734e-08 0.951915)
(1.10264 -0.0051988 -6.37066e-10 -0.00314643 0.955683 -1.15188e-09 -1.79891e-10 2.39683e-09 0.952153)
(1.10264 -0.000789779 -3.03345e-10 -0.00334561 0.956056 -3.34825e-10 -7.93501e-11 -4.94582e-09 0.952402)
(1.10244 -0.0031627 -8.70624e-11 -0.000163925 0.95049 -3.85746e-09 -6.13881e-12 -1.6786e-09 0.95049)
(1.10256 -0.00569439 -2.90239e-10 -0.00038128 0.95052 -3.93019e-11 -1.615e-11 1.13673e-09 0.950445)
(1.10257 -0.00956252 -1.23641e-10 -0.000620101 0.950622 -1.63073e-09 -2.233e-11 -1.1842e-09 0.950502)
(1.10258 -0.0128632 2.56194e-10 -0.00086118 0.950793 6.01095e-10 -2.40078e-11 -8.2195e-09 0.950545)
(1.1026 -0.0159708 5.99134e-10 -0.00109994 0.950975 2.73572e-09 -4.87227e-11 3.08663e-09 0.950631)
(1.10262 -0.0185871 -2.15456e-10 -0.00133855 0.951225 -6.71253e-10 -8.02937e-11 1.57713e-08 0.950701)
(1.10264 -0.0207665 -1.02269e-09 -0.0015697 0.951459 -2.90449e-09 -6.72986e-11 2.27017e-09 0.950814)
(1.10266 -0.0222726 -3.77417e-10 -0.00180139 0.951756 -1.13168e-09 -3.13044e-11 -1.63216e-08 0.950904)
(1.10268 -0.0232781 7.03878e-10 -0.00202034 0.952079 1.57411e-09 -5.64937e-11 -2.7784e-09 0.951037)
(1.10271 -0.0232834 -7.88684e-11 -0.00224101 0.952463 -2.87571e-10 -1.32735e-10 1.56401e-08 0.951154)
(1.10272 -0.0224452 -9.75161e-10 -0.00244108 0.952925 -1.67347e-09 -1.10526e-10 -3.37693e-09 0.951311)
(1.10274 -0.0200988 3.79334e-10 -0.00264593 0.953449 3.89305e-10 -2.82971e-11 -1.59478e-08 0.951465)
(1.10274 -0.0165932 9.55057e-10 -0.00281772 0.954205 1.16887e-09 -7.32798e-11 2.72509e-09 0.951656)
(1.10274 -0.0113259 -6.15978e-12 -0.00300351 0.954947 -8.86218e-11 -1.7256e-10 1.53861e-08 0.951875)
(1.10273 -0.00520742 -6.37489e-10 -0.00314529 0.955646 -1.15287e-09 -1.80136e-10 2.39878e-09 0.952113)
(1.10273 -0.000794473 -3.03564e-10 -0.00334411 0.956019 -3.35057e-10 -7.94665e-11 -4.95001e-09 0.952363)
(1.10255 -0.00316474 -8.71063e-11 -0.000163784 0.950448 -3.86028e-09 -6.14781e-12 -1.68003e-09 0.950448)
(1.10267 -0.00569774 -2.90383e-10 -0.0003813 0.950479 -3.91907e-11 -1.6173e-11 1.13765e-09 0.950403)
(1.10267 -0.00956838 -1.23644e-10 -0.000620125 0.950581 -1.63199e-09 -2.23622e-11 -1.18526e-09 0.95046)
(1.10269 -0.0128709 2.5637e-10 -0.000861231 0.950752 6.01703e-10 -2.40469e-11 -8.22644e-09 0.950503)
(1.1027 -0.015981 5.99253e-10 -0.00109994 0.950934 2.7382e-09 -4.87924e-11 3.08915e-09 0.950589)
(1.10272 -0.0185981 -2.15548e-10 -0.00133863 0.951184 -6.71725e-10 -8.03928e-11 1.57844e-08 0.95066)
(1.10274 -0.0207788 -1.02272e-09 -0.0015698 0.951418 -2.90716e-09 -6.73866e-11 2.27202e-09 0.950773)
(1.10276 -0.0222865 -3.77741e-10 -0.00180165 0.951715 -1.13241e-09 -3.13651e-11 -1.63353e-08 0.950863)
(1.10278 -0.023294 7.03354e-10 -0.00202053 0.95204 1.57615e-09 -5.65848e-11 -2.78079e-09 0.950996)
(1.10281 -0.0232997 -7.88967e-11 -0.0022415 0.952423 -2.87716e-10 -1.32897e-10 1.56531e-08 0.951113)
(1.10282 -0.0224613 -9.74849e-10 -0.00244164 0.952886 -1.67536e-09 -1.10682e-10 -3.37981e-09 0.95127)
(1.10283 -0.0201145 3.7983e-10 -0.00264653 0.953411 3.89546e-10 -2.83627e-11 -1.59611e-08 0.951425)
(1.10284 -0.0166057 9.55627e-10 -0.00281836 0.954167 1.17011e-09 -7.33732e-11 2.7273e-09 0.951616)
(1.10283 -0.0113362 -6.06922e-12 -0.00300401 0.95491 -8.86428e-11 -1.72764e-10 1.53989e-08 0.951835)
(1.10283 -0.00521463 -6.37947e-10 -0.00314565 0.955608 -1.15382e-09 -1.80381e-10 2.40073e-09 0.952073)
(1.10282 -0.000797688 -3.03752e-10 -0.00334411 0.955982 -3.35295e-10 -7.95833e-11 -4.9542e-09 0.952323)
(1.10265 -0.00316674 -8.71228e-11 -0.000163792 0.950407 -3.8631e-09 -6.15686e-12 -1.68146e-09 0.950406)
(1.10277 -0.00570088 -2.90519e-10 -0.000381544 0.950437 -3.90811e-11 -1.61962e-11 1.13856e-09 0.950362)
(1.10277 -0.00957392 -1.23617e-10 -0.000620514 0.950539 -1.63326e-09 -2.23945e-11 -1.18631e-09 0.950419)
(1.10279 -0.0128781 2.56532e-10 -0.000861783 0.950711 6.02312e-10 -2.4086e-11 -8.23338e-09 0.950462)
(1.1028 -0.0159906 5.99316e-10 -0.0011006 0.950893 2.7407e-09 -4.88623e-11 3.09168e-09 0.950548)
(1.10282 -0.0186091 -2.15632e-10 -0.00133948 0.951143 -6.72196e-10 -8.04924e-11 1.57975e-08 0.950619)
(1.10284 -0.0207909 -1.02292e-09 -0.00157078 0.951378 -2.90971e-09 -6.7475e-11 2.27386e-09 0.950732)
(1.10286 -0.0223002 -3.77975e-10 -0.00180287 0.951675 -1.13318e-09 -3.14265e-11 -1.6349e-08 0.950822)
(1.10288 -0.0233093 7.03241e-10 -0.0020218 0.952 1.57807e-09 -5.66768e-11 -2.78317e-09 0.950955)
(1.1029 -0.0233147 -7.89153e-11 -0.00224317 0.952384 -2.87862e-10 -1.33057e-10 1.5666e-08 0.951072)
(1.10292 -0.0224759 -9.74549e-10 -0.00244341 0.952847 -1.67719e-09 -1.10838e-10 -3.38268e-09 0.951229)
(1.10293 -0.0201286 3.80285e-10 -0.00264837 0.953373 3.89806e-10 -2.84284e-11 -1.59744e-08 0.951384)
(1.10293 -0.0166175 9.56031e-10 -0.0028202 0.954129 1.17133e-09 -7.34669e-11 2.7295e-09 0.951575)
(1.10293 -0.0113458 -5.98e-12 -0.00300564 0.954873 -8.86636e-11 -1.72968e-10 1.54116e-08 0.951795)
(1.10292 -0.00522078 -6.38343e-10 -0.00314709 0.955571 -1.15476e-09 -1.80627e-10 2.40268e-09 0.952033)
(1.10292 -0.000799959 -3.03935e-10 -0.00334525 0.955945 -3.35529e-10 -7.97003e-11 -4.95839e-09 0.952283)
(1.10276 -0.00316868 -8.71256e-11 -0.000163898 0.950365 -3.86592e-09 -6.16594e-12 -1.68289e-09 0.950365)
(1.10287 -0.00570398 -2.90629e-10 -0.000382005 0.950396 -3.89713e-11 -1.62194e-11 1.13946e-09 0.95032)
(1.10288 -0.0095794 -1.23604e-10 -0.000621265 0.950498 -1.63452e-09 -2.24271e-11 -1.18735e-09 0.950378)
(1.10289 -0.0128852 2.56685e-10 -0.000862856 0.95067 6.02919e-10 -2.41255e-11 -8.24026e-09 0.950421)
(1.1029 -0.016 5.99388e-10 -0.00110197 0.950853 2.74319e-09 -4.89321e-11 3.09418e-09 0.950507)
(1.10292 -0.0186191 -2.15712e-10 -0.0013412 0.951102 -6.72663e-10 -8.05921e-11 1.58106e-08 0.950578)
(1.10294 -0.0208021 -1.02285e-09 -0.00157272 0.951338 -2.91239e-09 -6.75638e-11 2.2757e-09 0.950691)
(1.10296 -0.0223127 -3.78308e-10 -0.00180507 0.951635 -1.13388e-09 -3.14894e-11 -1.63625e-08 0.950782)
(1.10298 -0.0233232 7.02768e-10 -0.00202424 0.951961 1.58023e-09 -5.67689e-11 -2.78555e-09 0.950914)
(1.103 -0.0233293 -7.89263e-11 -0.00224569 0.952346 -2.88e-10 -1.33217e-10 1.56789e-08 0.951032)
(1.10302 -0.0224903 -9.7433e-10 -0.0024459 0.952809 -1.67907e-09 -1.10994e-10 -3.38554e-09 0.951189)
(1.10303 -0.0201422 3.80757e-10 -0.00265091 0.953335 3.90037e-10 -2.84942e-11 -1.59877e-08 0.951344)
(1.10303 -0.016628 9.56575e-10 -0.00282259 0.954091 1.17252e-09 -7.35607e-11 2.73169e-09 0.951535)
(1.10302 -0.011354 -5.88692e-12 -0.00300813 0.954835 -8.86846e-11 -1.73173e-10 1.54242e-08 0.951755)
(1.10302 -0.00522592 -6.38691e-10 -0.00314938 0.955533 -1.15568e-09 -1.80873e-10 2.40462e-09 0.951993)
(1.10301 -0.000801435 -3.04098e-10 -0.00334714 0.955908 -3.3577e-10 -7.98175e-11 -4.96256e-09 0.952244)
(1.10286 -0.00317058 -8.71581e-11 -0.000164095 0.950324 -3.86872e-09 -6.17505e-12 -1.6843e-09 0.950324)
(1.10297 -0.00570691 -2.90741e-10 -0.000382655 0.950355 -3.88623e-11 -1.62426e-11 1.14036e-09 0.95028)
(1.10298 -0.00958468 -1.23563e-10 -0.000622331 0.950458 -1.63578e-09 -2.24598e-11 -1.18839e-09 0.950337)
(1.10299 -0.012892 2.56832e-10 -0.000864323 0.95063 6.03521e-10 -2.41651e-11 -8.2471e-09 0.95038)
(1.103 -0.0160089 5.99389e-10 -0.00110385 0.950813 2.74567e-09 -4.90019e-11 3.09666e-09 0.950466)
(1.10302 -0.0186291 -2.15788e-10 -0.00134343 0.951062 -6.73126e-10 -8.06917e-11 1.58235e-08 0.950538)
(1.10304 -0.0208132 -1.02293e-09 -0.00157524 0.951298 -2.91494e-09 -6.76532e-11 2.27751e-09 0.95065)
(1.10306 -0.0223252 -3.78563e-10 -0.00180781 0.951595 -1.13462e-09 -3.15533e-11 -1.6376e-08 0.950741)
(1.10308 -0.0233368 7.02698e-10 -0.00202726 0.951922 1.58208e-09 -5.68611e-11 -2.7879e-09 0.950874)
(1.1031 -0.0233429 -7.89321e-11 -0.00224867 0.952306 -2.88143e-10 -1.33376e-10 1.56917e-08 0.950992)
(1.10312 -0.0225038 -9.74239e-10 -0.00244888 0.95277 -1.68092e-09 -1.11152e-10 -3.38838e-09 0.951149)
(1.10312 -0.0201548 3.81174e-10 -0.00265417 0.953297 3.90277e-10 -2.85592e-11 -1.60008e-08 0.951304)
(1.10313 -0.0166382 9.5699e-10 -0.00282571 0.954053 1.1738e-09 -7.36547e-11 2.73387e-09 0.951496)
(1.10312 -0.0113619 -5.796e-12 -0.00301121 0.954797 -8.8704e-11 -1.73377e-10 1.54368e-08 0.951716)
(1.10311 -0.00523043 -6.39042e-10 -0.00315223 0.955495 -1.15656e-09 -1.81118e-10 2.40655e-09 0.951954)
(1.1031 -0.000802327 -3.04242e-10 -0.00334956 0.95587 -3.36009e-10 -7.99352e-11 -4.96671e-09 0.952205)
(1.10296 -0.00317245 -8.71272e-11 -0.000164375 0.950283 -3.87149e-09 -6.18418e-12 -1.68571e-09 0.950283)
(1.10307 -0.0057098 -2.90861e-10 -0.000383422 0.950315 -3.87524e-11 -1.62657e-11 1.14125e-09 0.950239)
(1.10307 -0.00958985 -1.23537e-10 -0.000623548 0.950418 -1.63701e-09 -2.24927e-11 -1.18942e-09 0.950296)
(1.10309 -0.0128987 2.56977e-10 -0.000866023 0.950589 6.04116e-10 -2.4205e-11 -8.25384e-09 0.95034)
(1.1031 -0.0160178 5.99398e-10 -0.0011059 0.950773 2.7481e-09 -4.90714e-11 3.09912e-09 0.950426)
(1.10312 -0.0186386 -2.15865e-10 -0.00134597 0.951022 -6.73585e-10 -8.0791e-11 1.58362e-08 0.950498)
(1.10314 -0.0208237 -1.0228e-09 -0.00157815 0.951258 -2.91757e-09 -6.77429e-11 2.27931e-09 0.95061)
(1.10316 -0.0223369 -3.789e-10 -0.00181118 0.951556 -1.13532e-09 -3.16174e-11 -1.63894e-08 0.950701)
(1.10318 -0.0233496 7.02225e-10 -0.00203088 0.951883 1.58412e-09 -5.69541e-11 -2.79023e-09 0.950834)
(1.1032 -0.0233566 -7.89375e-11 -0.00225259 0.952268 -2.88283e-10 -1.33537e-10 1.57043e-08 0.950952)
(1.10321 -0.0225172 -9.74088e-10 -0.00245262 0.952731 -1.68289e-09 -1.1131e-10 -3.39119e-09 0.951109)
(1.10322 -0.0201669 3.81658e-10 -0.00265824 0.953259 3.90458e-10 -2.86249e-11 -1.60138e-08 0.951265)
(1.10322 -0.0166472 9.57462e-10 -0.00282942 0.954014 1.17502e-09 -7.37491e-11 2.73603e-09 0.951456)
(1.10321 -0.011369 -5.7011e-12 -0.00301476 0.954759 -8.87242e-11 -1.73581e-10 1.54494e-08 0.951676)
(1.10321 -0.0052348 -6.39361e-10 -0.00315514 0.955457 -1.15744e-09 -1.81364e-10 2.40847e-09 0.951915)
(1.1032 -0.000803223 -3.04381e-10 -0.00335193 0.955831 -3.36258e-10 -8.00531e-11 -4.97085e-09 0.952165)
(1.10306 -0.00317426 -8.71665e-11 -0.000164704 0.950243 -3.87423e-09 -6.19334e-12 -1.6871e-09 0.950242)
(1.10317 -0.00571263 -2.9096e-10 -0.000384326 0.950275 -3.86475e-11 -1.62888e-11 1.14213e-09 0.950199)
(1.10317 -0.00959506 -1.23471e-10 -0.00062502 0.950378 -1.63824e-09 -2.25258e-11 -1.19043e-09 0.950257)
(1.10319 -0.0129053 2.57107e-10 -0.000868045 0.95055 6.04712e-10 -2.4245e-11 -8.26052e-09 0.9503)
(1.1032 -0.0160265 5.99311e-10 -0.00110846 0.950734 2.75056e-09 -4.91408e-11 3.10155e-09 0.950386)
(1.10322 -0.0186484 -2.1594e-10 -0.00134902 0.950982 -6.74036e-10 -8.08903e-11 1.58489e-08 0.950458)
(1.10324 -0.0208343 -1.02283e-09 -0.00158156 0.951219 -2.92009e-09 -6.78328e-11 2.28109e-09 0.95057)
(1.10326 -0.022349 -3.79157e-10 -0.00181499 0.951517 -1.13602e-09 -3.16814e-11 -1.64025e-08 0.950662)
(1.10328 -0.0233623 7.02208e-10 -0.0020349 0.951844 1.58597e-09 -5.70476e-11 -2.79253e-09 0.950794)
(1.10329 -0.0233694 -7.89345e-11 -0.00225684 0.952229 -2.8842e-10 -1.33697e-10 1.57168e-08 0.950913)
(1.10331 -0.0225299 -9.74023e-10 -0.00245675 0.952692 -1.68494e-09 -1.11468e-10 -3.39398e-09 0.95107)
(1.10332 -0.020179 3.82014e-10 -0.00266227 0.95322 3.90617e-10 -2.86916e-11 -1.60268e-08 0.951226)
(1.10332 -0.0166568 9.58027e-10 -0.00283313 0.953976 1.17636e-09 -7.38438e-11 2.73818e-09 0.951417)
(1.10331 -0.0113761 -5.60813e-12 -0.00301818 0.954721 -8.87421e-11 -1.73785e-10 1.54618e-08 0.951637)
(1.1033 -0.00523883 -6.39736e-10 -0.00315814 0.955418 -1.15836e-09 -1.81609e-10 2.41037e-09 0.951875)
(1.1033 -0.000803733 -3.04497e-10 -0.00335452 0.955792 -3.36505e-10 -8.0171e-11 -4.97496e-09 0.952126)