/*--------------------------------*- C++ -*----------------------------------*\
| =========                 |                                                 |
| \\      /  F ield         | foam-extend: Open Source CFD                    |
|  \\    /   O peration     | Version:     4.1-20200408                       |
|   \\  /    A nd           | Web:         http://www.foam-extend.org         |
|    \\/     M anipulation  |                                                 |
\*---------------------------------------------------------------------------*/
FoamFile
{
    version     2.0;
    format      ascii;
    class       volTensorField;
    location    "0.0720000";
    object      grad(DU);
}
// * * * * * * * * * * * * * * * * * * * * * * * * * * * * * * * * * * * * * //

dimensions      [0 0 0 0 0 0 0];

internalField   nonuniform List<tensor> 
1952
(
(-1.16799e-05 -2.93225e-05 8.20491e-11 1.51119e-06 -2.7082e-05 9.19957e-13 7.60229e-14 1.71568e-13 -2.81775e-05)
(-1.21251e-05 -2.07743e-05 5.49973e-11 2.63369e-06 -2.78874e-05 -4.31849e-13 2.61965e-14 -6.4641e-13 -2.71281e-05)
(-1.2749e-05 -5.84686e-05 -6.34409e-11 3.64105e-06 -2.65514e-05 -5.39091e-12 -7.51924e-14 2.33454e-13 -2.79561e-05)
(-1.35859e-05 -4.44226e-05 -1.7284e-10 4.6455e-06 -2.65355e-05 1.5278e-13 -1.49016e-13 4.77428e-13 -2.66869e-05)
(-1.46252e-05 -8.77481e-05 4.33588e-11 5.85024e-06 -2.52839e-05 9.59169e-12 6.88964e-14 -3.80552e-13 -2.72978e-05)
(-1.58934e-05 -7.00242e-05 2.34594e-10 7.60315e-06 -2.43885e-05 3.989e-12 1.85293e-13 -1.1973e-13 -2.59718e-05)
(-1.754e-05 -0.000117108 5.91612e-11 9.71276e-06 -2.27605e-05 -8.4743e-12 8.32946e-14 -1.36814e-12 -2.63029e-05)
(-1.9447e-05 -9.79062e-05 -9.9965e-11 1.20297e-05 -2.07798e-05 -2.84909e-12 7.42422e-14 -1.48326e-12 -2.48637e-05)
(-2.1724e-05 -0.000148841 1.64666e-11 1.54702e-05 -1.843e-05 8.53694e-12 3.71232e-14 -2.07099e-13 -2.48634e-05)
(-2.44102e-05 -0.000128261 9.2393e-11 2.12095e-05 -1.49278e-05 -5.23232e-13 -6.4952e-13 1.5457e-12 -2.32511e-05)
(-2.77339e-05 -0.000182317 -2.97089e-11 2.98611e-05 -1.12089e-05 -8.25466e-12 3.71271e-13 1.29683e-12 -2.28375e-05)
(-3.16193e-05 -0.000163853 -3.34355e-11 4.46213e-05 -5.27633e-06 8.60141e-13 1.53147e-12 -9.60006e-13 -2.09636e-05)
(-3.65184e-05 -0.000222094 2.61762e-12 7.14236e-05 5.95565e-07 6.67561e-12 -8.94537e-15 -4.16521e-14 -1.99747e-05)
(-4.25849e-05 -0.000211723 1.8065e-11 0.000120548 1.13009e-05 9.98093e-13 -6.05131e-12 1.78253e-13 -1.77345e-05)
(-5.05617e-05 -0.000286881 1.68758e-11 0.000216212 2.00157e-05 -1.30916e-12 -6.0827e-12 -8.94877e-13 -1.57783e-05)
(-1.15327e-05 -3.05338e-06 1.77477e-11 8.52056e-07 -2.83942e-05 -9.79956e-13 2.40915e-14 -2.22148e-12 -2.76009e-05)
(-7.25238e-06 -6.13143e-06 -1.20573e-15 2.19738e-06 -1.06683e-05 2.51497e-13 1.18249e-13 6.9578e-14 -1.11382e-05)
(-7.44111e-06 -9.5158e-06 2.514e-15 3.86562e-06 -1.07849e-05 -2.8613e-13 4.26904e-14 -2.75479e-13 -1.07022e-05)
(-7.69905e-06 -1.39043e-05 8.60897e-16 5.26117e-06 -1.00047e-05 -1.91874e-12 -1.06992e-13 8.54601e-14 -1.08845e-05)
(-8.00322e-06 -1.69075e-05 -4.82723e-15 6.77203e-06 -9.70621e-06 6.60747e-13 -1.93228e-13 2.55012e-13 -1.03058e-05)
(-8.60505e-06 -2.15295e-05 -1.78538e-17 8.32486e-06 -8.63998e-06 3.46235e-12 1.00541e-13 -1.33498e-13 -1.03477e-05)
(-9.10427e-06 -2.42387e-05 3.01114e-15 1.05121e-05 -7.90033e-06 4.52861e-13 2.5948e-13 -6.04929e-14 -9.65429e-06)
(-9.73364e-06 -2.88821e-05 1.37503e-15 1.2788e-05 -6.58482e-06 -3.34813e-12 1.78178e-13 -5.01385e-13 -9.54237e-06)
(-1.01894e-05 -3.11564e-05 -1.42137e-15 1.50277e-05 -5.45592e-06 -5.3483e-13 1.85911e-14 -5.26599e-13 -8.75712e-06)
(-1.08919e-05 -3.5509e-05 -1.22326e-16 1.76986e-05 -3.72573e-06 2.84391e-12 5.9486e-14 -7.02812e-14 -8.5046e-06)
(-1.11776e-05 -3.71209e-05 -2.10428e-15 2.1107e-05 -2.10143e-06 -5.6665e-13 -7.80329e-14 6.9517e-13 -7.61236e-06)
(-1.10582e-05 -4.06419e-05 1.85199e-15 2.46898e-05 -2.25015e-07 -2.49598e-12 -3.4552e-14 4.86272e-13 -7.21733e-06)
(-9.98985e-06 -4.10196e-05 3.87199e-15 2.88325e-05 1.48904e-06 3.59031e-13 -2.25955e-14 -6.50375e-13 -6.26808e-06)
(-6.9935e-06 -4.27667e-05 -4.22197e-16 3.34456e-05 2.65698e-06 1.93145e-12 1.87936e-14 -1.19378e-14 -5.79704e-06)
(8.68213e-08 -4.11935e-05 -3.6036e-15 3.79112e-05 1.94101e-06 2.53272e-13 2.18121e-13 1.19296e-12 -4.94063e-06)
(1.48928e-05 -4.02211e-05 7.73593e-16 4.03283e-05 -3.25151e-06 -5.91344e-13 3.1023e-13 1.06384e-13 -4.74481e-06)
(-7.20463e-06 -2.57763e-06 1.99453e-17 1.17304e-06 -1.12164e-05 -4.06708e-13 3.24641e-14 -8.81686e-13 -1.09428e-05)
(-9.59313e-06 -5.08352e-06 -7.58541e-16 2.26401e-06 -6.9223e-06 1.60685e-13 1.22459e-13 2.87507e-14 -7.11638e-06)
(-9.73618e-06 -7.95503e-06 1.61689e-15 4.00658e-06 -6.74969e-06 -1.85573e-13 4.42892e-14 -2.20607e-13 -6.93717e-06)
(-9.92175e-06 -1.15043e-05 6.54306e-16 5.41585e-06 -6.20222e-06 -1.21007e-12 -1.08937e-13 6.5663e-14 -6.86417e-06)
(-1.01116e-05 -1.4113e-05 -3.05919e-15 7.16974e-06 -5.74817e-06 4.19386e-13 -1.46014e-13 3.11318e-13 -6.53965e-06)
(-1.06165e-05 -1.77883e-05 -1.89509e-16 8.84359e-06 -4.80554e-06 2.13082e-12 1.08919e-13 -7.26446e-14 -6.36813e-06)
(-1.09287e-05 -2.00962e-05 1.85158e-15 1.09457e-05 -4.0138e-06 2.76261e-13 2.7377e-13 -1.64238e-13 -5.89157e-06)
(-1.13266e-05 -2.36878e-05 1.04082e-15 1.31367e-05 -2.89738e-06 -1.96973e-12 2.0201e-13 -2.4485e-13 -5.61356e-06)
(-1.14585e-05 -2.5594e-05 -6.75851e-16 1.54972e-05 -1.88607e-06 -3.07988e-13 1.02757e-13 -1.11307e-13 -5.04343e-06)
(-1.1804e-05 -2.88704e-05 -3.69535e-16 1.82108e-05 -5.18903e-07 1.56591e-12 6.49808e-14 -3.0506e-14 -4.68271e-06)
(-1.16534e-05 -3.00675e-05 -9.7923e-16 2.13668e-05 6.29757e-07 -3.00038e-13 -4.87992e-14 3.04366e-13 -4.02985e-06)
(-1.11632e-05 -3.25474e-05 1.15021e-15 2.48575e-05 1.77513e-06 -1.25125e-12 -4.26301e-14 2.22132e-13 -3.61796e-06)
(-1.00248e-05 -3.26151e-05 1.83923e-15 2.87191e-05 2.53752e-06 1.70217e-13 -8.47969e-14 -3.90066e-13 -2.97128e-06)
(-7.88919e-06 -3.36892e-05 -3.26874e-16 3.27125e-05 2.80768e-06 8.67242e-13 1.93855e-14 -3.77785e-15 -2.60285e-06)
(-4.21178e-06 -3.23773e-05 -1.52726e-15 3.62483e-05 1.99885e-06 1.0759e-13 3.22493e-13 6.79833e-13 -2.09898e-06)
(1.3085e-06 -3.2621e-05 4.18249e-16 3.54077e-05 2.99832e-08 -2.04765e-13 5.97666e-13 -3.65096e-14 -1.96607e-06)
(-9.57667e-06 -2.14448e-06 1.45759e-17 1.18874e-06 -7.12428e-06 -2.63889e-13 3.56543e-14 -5.67583e-13 -7.0975e-06)
(-1.43481e-05 -4.20274e-06 -4.00406e-16 2.32989e-06 -3.61372e-06 8.48711e-14 1.31151e-13 2.00328e-14 -3.75911e-06)
(-1.44667e-05 -6.76496e-06 8.47858e-16 4.16394e-06 -3.40888e-06 -9.70497e-14 4.76449e-14 -1.2112e-13 -3.62596e-06)
(-1.46198e-05 -9.44324e-06 3.43954e-16 5.58335e-06 -2.94393e-06 -6.21074e-13 -1.11321e-13 2.55481e-14 -3.52302e-06)
(-1.47655e-05 -1.18771e-05 -1.5289e-15 7.43287e-06 -2.50584e-06 2.09469e-13 -1.34923e-13 1.63241e-13 -3.26495e-06)
(-1.50633e-05 -1.44677e-05 -1.04045e-16 9.10852e-06 -1.72879e-06 1.02966e-12 1.13055e-13 -2.96484e-14 -3.07718e-06)
(-1.5189e-05 -1.65765e-05 8.49927e-16 1.11668e-05 -1.0606e-06 1.26468e-13 2.74303e-13 -4.57832e-14 -2.6991e-06)
(-1.53664e-05 -1.88854e-05 4.71224e-16 1.32396e-05 -1.27428e-07 -8.54401e-13 2.24626e-13 -1.29891e-13 -2.43475e-06)
(-1.52462e-05 -2.05599e-05 -2.61577e-16 1.54279e-05 6.70672e-07 -1.20827e-13 1.02171e-13 -1.12243e-13 -1.97937e-06)
(-1.50817e-05 -2.24063e-05 -1.41733e-16 1.78038e-05 1.66968e-06 5.56267e-13 6.78463e-14 -1.0916e-14 -1.66343e-06)
(-1.43671e-05 -2.33454e-05 -2.79119e-16 2.03012e-05 2.40414e-06 -8.69069e-14 4.40875e-14 2.8457e-13 -1.16639e-06)
(-1.31422e-05 -2.44424e-05 2.7765e-16 2.28093e-05 3.03329e-06 -2.92804e-13 -1.07249e-13 1.16783e-13 -8.46642e-07)
(-1.09692e-05 -2.44703e-05 2.45801e-16 2.51335e-05 3.11689e-06 2.27904e-14 -2.39914e-13 -3.83287e-13 -3.97151e-07)
(-7.60191e-06 -2.46393e-05 -2.42055e-17 2.69073e-05 2.67147e-06 6.08512e-14 1.98129e-14 -3.43064e-16 -1.82629e-07)
(-2.51118e-06 -2.38315e-05 5.80962e-17 2.75582e-05 9.15557e-07 -4.10139e-15 5.48888e-13 6.90656e-13 7.98317e-08)
(4.39719e-06 -2.3509e-05 -2.03218e-19 2.57359e-05 -1.66628e-06 -5.88043e-15 4.59137e-13 9.51006e-15 -1.14062e-08)
(-1.43348e-05 -1.79672e-06 8.36686e-18 1.17223e-06 -3.76028e-06 -1.39701e-13 3.2462e-14 -3.00134e-13 -3.75689e-06)
(-1.67489e-05 -3.38143e-06 -1.08836e-16 2.36426e-06 -9.04468e-07 2.30703e-14 1.35183e-13 1.43075e-14 -1.02217e-06)
(-1.6792e-05 -5.45551e-06 2.14887e-16 4.24001e-06 -7.21754e-07 -2.45809e-14 4.886e-14 -3.33991e-14 -9.16408e-07)
(-1.68651e-05 -7.53614e-06 8.17847e-17 5.65083e-06 -3.38221e-07 -1.44827e-13 -1.11518e-13 -8.48467e-15 -8.21649e-07)
(-1.68835e-05 -9.48719e-06 -2.87485e-16 7.54695e-06 2.186e-08 3.94673e-14 -1.22619e-13 1.49029e-14 -6.13295e-07)
(-1.69881e-05 -1.13933e-05 -1.68413e-17 9.18513e-06 6.40942e-07 1.51954e-13 1.15172e-13 2.60338e-15 -4.54195e-07)
(-1.69003e-05 -1.30397e-05 4.85655e-17 1.11443e-05 1.14063e-06 7.06632e-15 2.71169e-13 8.77384e-14 -1.53905e-07)
(-1.67959e-05 -1.46103e-05 -1.07109e-17 1.30602e-05 1.8293e-06 1.87376e-14 2.40843e-13 -5.3746e-14 5.35708e-08)
(-1.63856e-05 -1.58075e-05 5.24914e-17 1.50427e-05 2.34721e-06 2.46135e-14 9.79848e-14 -1.82326e-13 4.01538e-07)
(-1.58313e-05 -1.68841e-05 5.64489e-17 1.71117e-05 2.94591e-06 -2.09665e-13 6.84437e-14 1.13141e-15 6.26911e-07)
(-1.479e-05 -1.74189e-05 2.30667e-16 1.91011e-05 3.25904e-06 7.25148e-14 9.79491e-14 3.28343e-13 9.75052e-07)
(-1.32719e-05 -1.78491e-05 -3.91223e-16 2.09864e-05 3.39768e-06 4.03358e-13 -1.38712e-13 5.49096e-14 1.16613e-06)
(-1.1063e-05 -1.76645e-05 -8.87356e-16 2.24712e-05 3.07069e-06 -8.20521e-14 -2.97253e-13 -3.6635e-13 1.43336e-06)
(-8.04858e-06 -1.75511e-05 2.0697e-16 2.32117e-05 2.34137e-06 -5.00861e-13 1.90138e-14 1.06947e-15 1.50314e-06)
(-4.13889e-06 -1.70111e-05 1.16222e-15 2.27849e-05 8.87503e-07 -8.18388e-14 5.72611e-13 5.08894e-13 1.59613e-06)
(5.605e-07 -1.72867e-05 -3.07759e-16 1.99843e-05 -8.43905e-07 1.68631e-13 4.73618e-13 -9.1529e-15 1.44418e-06)
(-1.67348e-05 -1.44773e-06 2.43729e-18 1.17953e-06 -1.01877e-06 -3.82971e-14 3.23341e-14 -8.19218e-14 -1.02964e-06)
(-1.89813e-05 -2.63078e-06 1.21761e-16 2.36246e-06 1.24129e-06 -2.58348e-14 1.35159e-13 1.02733e-14 1.14391e-06)
(-1.89602e-05 -4.24307e-06 -2.8923e-16 4.24803e-06 1.37729e-06 3.28644e-14 4.77075e-14 3.93972e-14 1.23054e-06)
(-1.89601e-05 -5.8167e-06 -1.31324e-16 5.62201e-06 1.68827e-06 2.29197e-13 -1.09055e-13 -3.59674e-14 1.2997e-06)
(-1.88619e-05 -7.31005e-06 6.8952e-16 7.49714e-06 1.94301e-06 -9.4089e-14 -1.12575e-13 -1.17941e-13 1.46963e-06)
(-1.87939e-05 -8.67925e-06 6.26091e-17 9.04758e-06 2.40928e-06 -5.28944e-13 1.14526e-13 2.63099e-14 1.58053e-06)
(-1.85187e-05 -9.89211e-06 -5.73413e-16 1.08699e-05 2.73054e-06 -8.52782e-14 2.61336e-13 2.09274e-13 1.81485e-06)
(-1.8182e-05 -1.09277e-05 -3.99645e-16 1.2587e-05 3.20002e-06 6.84212e-13 2.51689e-13 -5.35541e-15 1.94989e-06)
(-1.75389e-05 -1.17433e-05 2.86505e-16 1.42787e-05 3.47275e-06 1.34932e-13 7.66442e-14 -2.67291e-13 2.20729e-06)
(-1.66782e-05 -1.23487e-05 2.18985e-16 1.59646e-05 3.76001e-06 -7.81836e-13 6.72633e-14 8.38105e-15 2.33774e-06)
(-1.53796e-05 -1.265e-05 6.02225e-16 1.73939e-05 3.77637e-06 1.91124e-13 1.54144e-13 3.80945e-13 2.568e-06)
(-1.36064e-05 -1.27982e-05 -9.0284e-16 1.86076e-05 3.59319e-06 9.15565e-13 -1.65065e-13 2.3123e-14 2.6469e-06)
(-1.12639e-05 -1.26371e-05 -1.72301e-15 1.92564e-05 3.02927e-06 -1.59313e-13 -3.4038e-13 -3.63951e-13 2.78234e-06)
(-8.25205e-06 -1.25281e-05 3.87957e-16 1.91209e-05 2.12736e-06 -9.13745e-13 1.74445e-14 1.8455e-15 2.74216e-06)
(-4.67216e-06 -1.22473e-05 1.98036e-15 1.78773e-05 7.38033e-07 -1.39351e-13 5.65685e-13 4.37186e-13 2.71793e-06)
(-5.87865e-07 -1.24683e-05 -5.41497e-16 1.49225e-05 -7.76235e-07 2.86244e-13 4.0724e-13 -5.31995e-15 2.49732e-06)
(-1.89779e-05 -1.12824e-06 -2.83277e-18 1.17795e-06 1.14751e-06 4.22712e-14 3.23641e-14 9.10915e-14 1.13668e-06)
(-2.01877e-05 -1.96151e-06 2.97283e-16 2.31841e-06 2.87042e-06 -6.30551e-14 1.31932e-13 6.81531e-15 2.79272e-06)
(-2.0103e-05 -3.15719e-06 -6.73948e-16 4.18063e-06 2.95311e-06 7.65256e-14 4.46839e-14 9.59313e-14 2.86161e-06)
(-2.00302e-05 -4.30195e-06 -2.96543e-16 5.49205e-06 3.19298e-06 5.11589e-13 -1.03964e-13 -5.62876e-14 2.90116e-06)
(-1.98189e-05 -5.38338e-06 1.42543e-15 7.30582e-06 3.33714e-06 -1.94497e-13 -9.92889e-14 -2.23479e-13 3.03539e-06)
(-1.96109e-05 -6.32808e-06 1.28493e-16 8.7417e-06 3.6674e-06 -1.03557e-12 1.11522e-13 4.31125e-14 3.09439e-06)
(-1.91783e-05 -7.16902e-06 -1.03495e-15 1.03994e-05 3.81957e-06 -1.53562e-13 2.44488e-13 3.06704e-13 3.27089e-06)
(-1.86606e-05 -7.81591e-06 -6.95648e-16 1.19082e-05 4.09327e-06 1.16975e-12 2.56813e-13 2.62177e-14 3.33332e-06)
(-1.78504e-05 -8.32705e-06 4.53614e-16 1.33085e-05 4.15256e-06 2.14655e-13 5.91412e-14 -3.43326e-13 3.51204e-06)
(-1.68107e-05 -8.62526e-06 3.42346e-16 1.46546e-05 4.19356e-06 -1.18846e-12 6.44664e-14 1.25481e-14 3.55347e-06)
(-1.54146e-05 -8.7568e-06 8.59305e-16 1.56274e-05 3.99692e-06 2.74472e-13 1.87331e-13 4.23676e-13 3.68714e-06)
(-1.36114e-05 -8.75092e-06 -1.26722e-15 1.63503e-05 3.60488e-06 1.26991e-12 -1.75926e-13 7.5542e-15 3.67117e-06)
(-1.14251e-05 -8.6061e-06 -2.29727e-15 1.64452e-05 2.95676e-06 -2.12327e-13 -3.50996e-13 -3.50901e-13 3.70799e-06)
(-8.76452e-06 -8.54065e-06 5.17886e-16 1.57981e-05 2.04524e-06 -1.19665e-12 1.56426e-14 2.15948e-15 3.59104e-06)
(-5.83464e-06 -8.45031e-06 2.54885e-15 1.41708e-05 9.09384e-07 -1.79223e-13 5.2568e-13 3.56452e-13 3.49561e-06)
(-2.66571e-06 -8.82171e-06 -7.11639e-16 1.11565e-05 -2.53944e-07 3.73064e-13 3.65386e-13 -7.25652e-15 3.25379e-06)
(-2.01983e-05 -8.42051e-07 -7.1909e-18 1.16436e-06 2.79543e-06 1.03695e-13 3.2603e-14 2.22874e-13 2.7878e-06)
(-2.09082e-05 -1.38286e-06 4.24691e-16 2.23696e-06 4.04898e-06 -9.00488e-14 1.25214e-13 4.02152e-15 3.98873e-06)
(-2.07742e-05 -2.22038e-06 -9.53583e-16 4.04985e-06 4.08101e-06 1.08147e-13 4.0625e-14 1.37674e-13 4.04231e-06)
(-2.06435e-05 -3.00649e-06 -4.17857e-16 5.27486e-06 4.25867e-06 7.14801e-13 -9.78846e-14 -7.06124e-14 4.05342e-06)
(-2.03442e-05 -3.74443e-06 1.95388e-15 6.99666e-06 4.30207e-06 -2.66442e-13 -8.15265e-14 -3.02957e-13 4.15717e-06)
(-2.00345e-05 -4.35464e-06 1.78852e-16 8.29815e-06 4.52022e-06 -1.39495e-12 1.07152e-13 5.44612e-14 4.16812e-06)
(-1.94893e-05 -4.90081e-06 -1.36142e-15 9.77467e-06 4.5302e-06 -2.01688e-13 2.20364e-13 3.79838e-13 4.29725e-06)
(-1.88535e-05 -5.26807e-06 -9.08178e-16 1.10737e-05 4.65305e-06 1.50765e-12 2.57522e-13 4.50519e-14 4.29592e-06)
(-1.79443e-05 -5.56753e-06 5.68338e-16 1.21832e-05 4.55356e-06 2.69726e-13 4.53107e-14 -4.03881e-13 4.41314e-06)
(-1.68133e-05 -5.68203e-06 4.30396e-16 1.32192e-05 4.42689e-06 -1.46561e-12 6.07113e-14 1.47256e-14 4.38201e-06)
(-1.53971e-05 -5.73165e-06 1.0317e-15 1.37928e-05 4.10342e-06 3.30964e-13 2.09232e-13 4.54527e-13 4.44548e-06)
(-1.36306e-05 -5.67722e-06 -1.51743e-15 1.41208e-05 3.59729e-06 1.50821e-12 -1.77589e-13 1.77234e-15 4.35985e-06)
(-1.16135e-05 -5.59445e-06 -2.68495e-15 1.38007e-05 2.94071e-06 -2.48032e-13 -3.47694e-13 -3.39489e-13 4.33144e-06)
(-9.24088e-06 -5.59346e-06 6.08666e-16 1.28274e-05 2.06197e-06 -1.3882e-12 1.36112e-14 2.32396e-15 4.16574e-06)
(-6.77641e-06 -5.63061e-06 2.93991e-15 1.1016e-05 1.12237e-06 -2.06563e-13 4.76906e-13 3.04902e-13 4.02881e-06)
(-4.19815e-06 -6.0095e-06 -8.32411e-16 8.12371e-06 1.71532e-07 4.31592e-13 3.16601e-13 -5.28666e-15 3.77815e-06)
(-2.09324e-05 -5.943e-07 -1.05479e-17 1.13535e-06 3.98986e-06 1.4834e-13 3.3098e-14 3.1855e-13 3.98753e-06)
(-2.106e-05 -8.95563e-07 5.11108e-16 2.12696e-06 4.84431e-06 -1.08323e-13 1.18006e-13 1.85152e-15 4.79864e-06)
(-2.08903e-05 -1.43367e-06 -1.14319e-15 3.87154e-06 4.83256e-06 1.29513e-13 3.47929e-14 1.66468e-13 4.83956e-06)
(-2.07192e-05 -1.92484e-06 -5.00498e-16 4.99458e-06 4.95975e-06 8.51067e-13 -8.96882e-14 -7.99625e-14 4.82592e-06)
(-2.03586e-05 -2.38417e-06 2.30728e-15 6.6084e-06 4.91856e-06 -3.1442e-13 -5.96914e-14 -3.59009e-13 4.90514e-06)
(-1.99874e-05 -2.73164e-06 2.13799e-16 7.76895e-06 5.0518e-06 -1.63165e-12 1.01739e-13 6.14886e-14 4.87524e-06)
(-1.93749e-05 -3.05175e-06 -1.57571e-15 9.06255e-06 4.95006e-06 -2.33142e-13 1.9014e-13 4.31738e-13 4.96819e-06)
(-1.8682e-05 -3.21497e-06 -1.04808e-15 1.01671e-05 4.9648e-06 1.72492e-12 2.55053e-13 5.44151e-14 4.91474e-06)
(-1.77398e-05 -3.36785e-06 6.41422e-16 1.10126e-05 4.75483e-06 3.04816e-13 3.87534e-14 -4.50086e-13 4.98707e-06)
(-1.66019e-05 -3.36462e-06 4.87251e-16 1.17932e-05 4.52264e-06 -1.63901e-12 5.61674e-14 1.55291e-14 4.90029e-06)
(-1.52491e-05 -3.37228e-06 1.13808e-15 1.20497e-05 4.13626e-06 3.66036e-13 2.17929e-13 4.75479e-13 4.91608e-06)
(-1.36071e-05 -3.30164e-06 -1.67345e-15 1.20953e-05 3.58335e-06 1.65452e-12 -1.72087e-13 2.2018e-15 4.7826e-06)
(-1.18288e-05 -3.27546e-06 -2.92441e-15 1.15022e-05 2.97468e-06 -2.69999e-13 -3.34077e-13 -3.27485e-13 4.71503e-06)
(-9.791e-06 -3.32897e-06 6.66522e-16 1.035e-05 2.16862e-06 -1.5075e-12 1.17885e-14 2.38394e-15 4.5236e-06)
(-7.77825e-06 -3.45879e-06 3.19087e-15 8.49634e-06 1.42841e-06 -2.24022e-13 4.25725e-13 2.63949e-13 4.36928e-06)
(-5.73202e-06 -3.8625e-06 -9.13833e-16 5.77256e-06 6.66823e-07 4.70324e-13 2.74964e-13 -3.64987e-15 4.12662e-06)
(-2.10949e-05 -3.85411e-07 -1.29239e-17 1.09333e-06 4.79813e-06 1.78634e-13 3.03127e-14 3.83393e-13 4.80124e-06)
(-2.08351e-05 -4.94944e-07 5.63503e-16 1.9979e-06 5.32331e-06 -1.19361e-13 1.09712e-13 3.80908e-16 5.28806e-06)
(-2.06452e-05 -7.88884e-07 -1.258e-15 3.66421e-06 5.27636e-06 1.42399e-13 2.88586e-14 1.84504e-13 5.31987e-06)
(-2.04537e-05 -1.04259e-06 -5.50347e-16 4.67528e-06 5.36801e-06 9.32233e-13 -8.05019e-14 -8.54834e-14 5.28589e-06)
(-2.00603e-05 -1.28198e-06 2.51751e-15 6.17556e-06 5.26089e-06 -3.42836e-13 -3.40544e-14 -3.96133e-13 5.34806e-06)
(-1.96654e-05 -1.42659e-06 2.3475e-16 7.19622e-06 5.33796e-06 -1.76897e-12 9.5348e-14 6.51589e-14 5.28538e-06)
(-1.90288e-05 -1.57847e-06 -1.69985e-15 8.3132e-06 5.15617e-06 -2.51245e-13 1.54502e-13 4.67269e-13 5.35445e-06)
(-1.83306e-05 -1.59554e-06 -1.12775e-15 9.24496e-06 5.10499e-06 1.84659e-12 2.50428e-13 5.60875e-14 5.26113e-06)
(-1.74087e-05 -1.6529e-06 6.82379e-16 9.85386e-06 4.82959e-06 3.24302e-13 3.83479e-14 -4.85816e-13 5.30556e-06)
(-1.63205e-05 -1.57865e-06 5.18483e-16 1.0429e-05 4.54421e-06 -1.7325e-12 5.15445e-14 1.53681e-14 5.17964e-06)
(-1.5078e-05 -1.5748e-06 1.19512e-15 1.04304e-05 4.14454e-06 3.84867e-13 2.20219e-13 4.91125e-13 5.16858e-06)
(-1.35932e-05 -1.50897e-06 -1.75705e-15 1.0275e-05 3.58985e-06 1.73202e-12 -1.61665e-13 6.70664e-15 5.00637e-06)
(-1.20577e-05 -1.53696e-06 -3.05404e-15 9.50158e-06 3.05688e-06 -2.81796e-13 -3.1731e-13 -3.18554e-13 4.92107e-06)
(-1.0322e-05 -1.63162e-06 6.99034e-16 8.26176e-06 2.33111e-06 -1.57334e-12 9.99397e-15 2.39631e-15 4.72101e-06)
(-8.68403e-06 -1.82046e-06 3.33695e-15 6.44571e-06 1.76087e-06 -2.34096e-13 3.78178e-13 2.35779e-13 4.56571e-06)
(-7.05005e-06 -2.21745e-06 -9.64621e-16 3.92116e-06 1.13637e-06 4.93233e-13 2.36675e-13 -1.14466e-15 4.3395e-06)
(-2.08768e-05 -2.13558e-07 -1.44094e-17 1.04247e-06 5.28601e-06 1.97006e-13 3.1164e-14 4.22639e-13 5.29435e-06)
(-2.02849e-05 -1.71937e-07 5.88225e-16 1.86131e-06 5.54575e-06 -1.24517e-13 9.98866e-14 -4.65843e-16 5.51689e-06)
(-2.00891e-05 -2.70506e-07 -1.31186e-15 3.44698e-06 5.47309e-06 1.484e-13 2.13616e-14 1.93645e-13 5.54295e-06)
(-1.98967e-05 -3.35909e-07 -5.73137e-16 4.34415e-06 5.544e-06 9.68915e-13 -7.11696e-14 -8.79999e-14 5.49359e-06)
(-1.94965e-05 -4.04731e-07 2.6124e-15 5.73406e-06 5.38983e-06 -3.55532e-13 -6.16977e-15 -4.17562e-13 5.54586e-06)
(-1.91124e-05 -3.93632e-07 2.43722e-16 6.62385e-06 5.43746e-06 -1.82706e-12 8.92453e-14 6.62651e-14 5.45877e-06)
(-1.84888e-05 -4.22773e-07 -1.75243e-15 7.57801e-06 5.20445e-06 -2.58778e-13 1.16727e-13 4.89686e-13 5.51529e-06)
(-1.78299e-05 -3.33952e-07 -1.15894e-15 8.36395e-06 5.12352e-06 1.89326e-12 2.44722e-13 5.20422e-14 5.39381e-06)
(-1.69717e-05 -3.30511e-07 6.98539e-16 8.76831e-06 4.81929e-06 3.3164e-13 4.23014e-14 -5.13285e-13 5.42521e-06)
(-1.59786e-05 -2.10962e-07 5.29308e-16 9.18662e-06 4.52075e-06 -1.76433e-12 4.70912e-14 1.45467e-14 5.27462e-06)
(-1.48832e-05 -2.09975e-07 1.21456e-15 8.98951e-06 4.1433e-06 3.91239e-13 2.18792e-13 5.03358e-13 5.25377e-06)
(-1.35826e-05 -1.53205e-07 -1.78468e-15 8.69879e-06 3.61725e-06 1.75697e-12 -1.48226e-13 1.38482e-14 5.07825e-06)
(-1.22967e-05 -2.26142e-07 -3.09981e-15 7.81508e-06 3.17689e-06 -2.85837e-13 -3.0091e-13 -3.12275e-13 4.99171e-06)
(-1.08476e-05 -3.49595e-07 7.11738e-16 6.54498e-06 2.53485e-06 -1.59839e-12 8.43484e-15 2.37619e-15 4.79604e-06)
(-9.53841e-06 -5.78531e-07 3.40275e-15 4.81044e-06 2.11577e-06 -2.38528e-13 3.3626e-13 2.15978e-13 4.65207e-06)
(-8.24726e-06 -9.66543e-07 -9.91557e-16 2.48199e-06 1.59933e-06 5.04407e-13 2.03629e-13 1.42319e-15 4.44924e-06)
(-2.03291e-05 -7.49183e-08 -1.51244e-17 9.87584e-07 5.51359e-06 2.05668e-13 2.86152e-14 4.41057e-13 5.52643e-06)
(-1.95031e-05 8.39346e-08 5.90824e-16 1.72632e-06 5.5645e-06 -1.24977e-13 9.01184e-14 -6.92372e-16 5.53769e-06)
(-1.93144e-05 1.39014e-07 -1.31712e-15 3.23771e-06 5.47457e-06 1.48925e-13 1.38429e-14 1.95773e-13 5.56156e-06)
(-1.9139e-05 2.20667e-07 -5.74262e-16 4.02346e-06 5.53974e-06 9.70284e-13 -6.17246e-14 -8.8329e-14 5.50104e-06)
(-1.87549e-05 2.81976e-07 2.61643e-15 5.31385e-06 5.35506e-06 -3.55859e-13 2.46787e-14 -4.27408e-13 5.55081e-06)
(-1.84108e-05 4.11374e-07 2.43119e-16 6.08621e-06 5.39812e-06 -1.82298e-12 8.38276e-14 6.5404e-14 5.44638e-06)
(-1.78312e-05 4.70172e-07 -1.74933e-15 6.89503e-06 5.13844e-06 -2.58115e-13 7.66738e-14 5.03463e-13 5.50134e-06)
(-1.7246e-05 6.35447e-07 -1.15241e-15 7.56402e-06 5.05866e-06 1.88198e-12 2.39738e-13 4.30266e-14 5.36142e-06)
(-1.64847e-05 6.75644e-07 6.9574e-16 7.79255e-06 4.75516e-06 3.29721e-13 4.99407e-14 -5.37002e-13 5.39336e-06)
(-1.56158e-05 8.2389e-07 5.24514e-16 8.09713e-06 4.47371e-06 -1.74939e-12 4.29393e-14 1.32014e-14 5.22977e-06)
(-1.46895e-05 8.14031e-07 1.20592e-15 7.74362e-06 4.14435e-06 3.88273e-13 2.17583e-13 5.15759e-13 5.2136e-06)
(-1.35811e-05 8.60908e-07 -1.7701e-15 7.36583e-06 3.66538e-06 1.74266e-12 -1.33285e-13 2.31228e-14 5.03665e-06)
(-1.2538e-05 7.51252e-07 -3.0832e-15 6.41683e-06 3.32602e-06 -2.84117e-13 -2.88143e-13 -3.09676e-13 4.96175e-06)
(-1.13467e-05 6.09219e-07 7.09276e-16 5.14825e-06 2.76311e-06 -1.59303e-12 6.88421e-15 2.33095e-15 4.77979e-06)
(-1.03195e-05 3.55057e-07 3.40821e-15 3.51446e-06 2.47564e-06 -2.38725e-13 3.0192e-13 2.03368e-13 4.65584e-06)
(-9.30579e-06 -1.76522e-08 -1.00011e-15 1.3644e-06 2.03913e-06 5.06597e-13 1.75235e-13 4.15615e-15 4.48055e-06)
(-1.95457e-05 3.49533e-08 -1.52036e-17 9.33832e-07 5.53339e-06 2.06576e-13 2.6038e-14 4.42848e-13 5.55014e-06)
(-1.85414e-05 2.83785e-07 5.76024e-16 1.60266e-06 5.42359e-06 -1.21752e-13 8.21232e-14 -4.17904e-16 5.39521e-06)
(-1.83706e-05 4.581e-07 -1.28417e-15 3.05208e-06 5.32439e-06 1.45153e-13 6.26e-15 1.92293e-13 5.41982e-06)
(-1.8228e-05 6.53416e-07 -5.5845e-16 3.73496e-06 5.3967e-06 9.44094e-13 -5.24391e-14 -8.69736e-14 5.35224e-06)
(-1.78787e-05 8.12687e-07 2.54962e-15 4.94135e-06 5.19623e-06 -3.46561e-13 5.62808e-14 -4.27894e-13 5.4057e-06)
(-1.75992e-05 1.032e-06 2.35147e-16 5.61437e-06 5.25556e-06 -1.77084e-12 7.87663e-14 6.30798e-14 5.29042e-06)
(-1.70882e-05 1.15259e-06 -1.7033e-15 6.29739e-06 4.98967e-06 -2.51149e-13 3.80375e-14 5.104e-13 5.35292e-06)
(-1.66042e-05 1.37439e-06 -1.117e-15 6.8789e-06 4.93575e-06 1.82646e-12 2.35439e-13 3.04394e-14 5.20299e-06)
(-1.5964e-05 1.43517e-06 6.78483e-16 6.95821e-06 4.65575e-06 3.20767e-13 5.76256e-14 -5.5767e-13 5.24641e-06)
(-1.52409e-05 1.60347e-06 5.07824e-16 7.18593e-06 4.41379e-06 -1.69916e-12 3.91068e-14 1.1504e-14 5.07942e-06)
(-1.4498e-05 1.57937e-06 1.17623e-15 6.70931e-06 4.15046e-06 3.78285e-13 2.20296e-13 5.28466e-13 5.07918e-06)
(-1.35859e-05 1.61885e-06 -1.72359e-15 6.27823e-06 3.73049e-06 1.69892e-12 -1.17229e-13 3.37596e-14 4.91001e-06)
(-1.27778e-05 1.47962e-06 -3.0197e-15 5.29311e-06 3.49595e-06 -2.78078e-13 -2.8149e-13 -3.0999e-13 4.85639e-06)
(-1.1822e-05 1.32614e-06 6.95238e-16 4.03854e-06 3.00715e-06 -1.56482e-12 5.75399e-15 2.26802e-15 4.695e-06)
(-1.10409e-05 1.05508e-06 3.36806e-15 2.50795e-06 2.83584e-06 -2.35729e-13 2.76369e-13 1.96009e-13 4.59734e-06)
(-1.02568e-05 6.97067e-07 -9.94584e-16 5.05589e-07 2.45932e-06 5.02057e-13 1.51775e-13 6.88018e-15 4.45254e-06)
(-1.85787e-05 1.20802e-07 -1.47795e-17 8.85592e-07 5.39021e-06 2.01388e-13 2.68557e-14 4.31581e-13 5.41008e-06)
(-1.74483e-05 4.37844e-07 5.47677e-16 1.49698e-06 5.15938e-06 -1.15667e-13 7.38464e-14 3.26146e-16 5.1259e-06)
(-1.73045e-05 7.03505e-07 -1.22165e-15 2.90373e-06 5.057e-06 1.38058e-13 -1.22104e-15 1.84579e-13 5.15411e-06)
(-1.7208e-05 9.85928e-07 -5.29538e-16 3.49459e-06 5.1486e-06 8.96556e-13 -4.42462e-14 -8.44672e-14 5.08244e-06)
(-1.69085e-05 1.21795e-06 2.42835e-15 4.63763e-06 4.94341e-06 -3.29885e-13 8.9955e-14 -4.2219e-13 5.14558e-06)
(-1.67136e-05 1.50576e-06 2.21506e-16 5.23106e-06 5.0375e-06 -1.68174e-12 7.50992e-14 5.96259e-14 5.02404e-06)
(-1.62905e-05 1.66887e-06 -1.62466e-15 5.80908e-06 4.78092e-06 -2.39405e-13 -5.13731e-17 5.13966e-13 5.10257e-06)
(-1.59281e-05 1.93341e-06 -1.05954e-15 6.33205e-06 4.77307e-06 1.73726e-12 2.33422e-13 1.43621e-14 4.94865e-06)
(-1.54277e-05 2.00412e-06 6.50339e-16 6.2845e-06 4.5339e-06 3.06543e-13 6.58518e-14 -5.79173e-13 5.01327e-06)
(-1.48638e-05 2.18764e-06 4.82223e-16 6.46739e-06 4.34762e-06 -1.62237e-12 3.59021e-14 9.46522e-15 4.84972e-06)
(-1.43141e-05 2.14821e-06 1.13085e-15 5.89065e-06 4.16375e-06 3.63086e-13 2.28111e-13 5.44157e-13 4.87483e-06)
(-1.35965e-05 2.18299e-06 -1.6534e-15 5.42992e-06 3.80909e-06 1.63326e-12 -1.01215e-13 4.59082e-14 4.72001e-06)
(-1.30157e-05 2.01976e-06 -2.92142e-15 4.42382e-06 3.68199e-06 -2.68845e-13 -2.82174e-13 -3.13709e-13 4.69524e-06)
(-1.22735e-05 1.85942e-06 6.72661e-16 3.18332e-06 3.26054e-06 -1.51962e-12 4.6736e-15 2.18473e-15 4.55924e-06)
(-1.17097e-05 1.57658e-06 3.29384e-15 1.74656e-06 3.19367e-06 -2.30356e-13 2.5985e-13 1.92939e-13 4.49247e-06)
(-1.11168e-05 1.23139e-06 -9.78509e-16 -1.46153e-07 2.86047e-06 4.92478e-13 1.33062e-13 9.59091e-15 4.38006e-06)
(-1.74772e-05 1.86999e-07 -1.39715e-17 8.47097e-07 5.12044e-06 1.91467e-13 2.40219e-14 4.10175e-13 5.14292e-06)
(-1.62539e-05 5.55053e-07 5.0895e-16 1.41616e-06 4.80095e-06 -1.07397e-13 6.91497e-14 1.42094e-15 4.75971e-06)
(-1.61439e-05 8.89896e-07 -1.1365e-15 2.80371e-06 4.70067e-06 1.28421e-13 -8.64658e-15 1.73563e-13 4.79365e-06)
(-1.61049e-05 1.23855e-06 -4.90709e-16 3.31758e-06 4.82117e-06 8.32766e-13 -3.73288e-14 -8.10802e-14 4.72053e-06)
(-1.58667e-05 1.52393e-06 2.26558e-15 4.42e-06 4.62034e-06 -3.07601e-13 1.23683e-13 -4.11573e-13 4.79803e-06)
(-1.57727e-05 1.86438e-06 2.03683e-16 4.95672e-06 4.76372e-06 -1.56467e-12 7.28099e-14 5.53408e-14 4.67413e-06)
(-1.54518e-05 2.05589e-06 -1.52134e-15 5.44987e-06 4.52869e-06 -2.24054e-13 -3.52495e-14 5.14827e-13 4.77528e-06)
(-1.52273e-05 2.35418e-06 -9.85671e-16 5.9433e-06 4.58229e-06 1.62275e-12 2.33491e-13 -4.2035e-15 4.62226e-06)
(-1.48801e-05 2.42777e-06 6.1393e-16 5.78767e-06 4.39699e-06 2.88367e-13 7.02497e-14 -6.01045e-13 4.71551e-06)
(-1.44856e-05 2.62461e-06 4.50219e-16 5.953e-06 4.2782e-06 -1.52578e-12 3.34575e-14 7.19338e-15 4.56082e-06)
(-1.41353e-05 2.56981e-06 1.07362e-15 5.29249e-06 4.18326e-06 3.44e-13 2.45537e-13 5.61896e-13 4.61835e-06)
(-1.36111e-05 2.60278e-06 -1.56598e-15 4.81631e-06 3.8981e-06 1.55129e-12 -8.50499e-14 5.90469e-14 4.4829e-06)
(-1.32507e-05 2.4194e-06 -2.79718e-15 3.79584e-06 3.87969e-06 -2.57233e-13 -2.92589e-13 -3.19841e-13 4.49256e-06)
(-1.27065e-05 2.25463e-06 6.43926e-16 2.55838e-06 3.52044e-06 -1.46177e-12 3.89916e-15 2.08752e-15 4.38552e-06)
(-1.23389e-05 1.962e-06 3.19408e-15 1.19909e-06 3.5492e-06 -2.23209e-13 2.53186e-13 1.92922e-13 4.353e-06)
(-1.19094e-05 1.62534e-06 -9.54634e-16 -6.29477e-07 3.24751e-06 4.79149e-13 1.18822e-13 1.2272e-14 4.27442e-06)
(-1.62717e-05 2.37381e-07 -1.28778e-17 8.21639e-07 4.75404e-06 1.77923e-13 2.09678e-14 3.81017e-13 4.77851e-06)
(-1.49797e-05 6.42506e-07 4.62326e-16 1.36423e-06 4.37158e-06 -9.74734e-14 6.46636e-14 2.82912e-15 4.32016e-06)
(-1.49088e-05 1.0287e-06 -1.03428e-15 2.76122e-06 4.27675e-06 1.16868e-13 -1.65047e-14 1.6017e-13 4.3618e-06)
(-1.49369e-05 1.42729e-06 -4.44519e-16 3.21379e-06 4.43497e-06 7.56644e-13 -3.10666e-14 -7.71496e-14 4.28877e-06)
(-1.47682e-05 1.75068e-06 2.07167e-15 4.30187e-06 4.24406e-06 -2.8112e-13 1.59454e-13 -3.98352e-13 4.38505e-06)
(-1.47887e-05 2.13223e-06 1.83016e-16 4.80494e-06 4.4495e-06 -1.42639e-12 7.19825e-14 5.0394e-14 4.2609e-06)
(-1.4581e-05 2.34147e-06 -1.39963e-15 5.23402e-06 4.24411e-06 -2.06024e-13 -6.80379e-14 5.15612e-13 4.39082e-06)
(-1.45068e-05 2.66785e-06 -8.999e-16 5.72582e-06 4.37174e-06 1.48913e-12 2.36677e-13 -2.55556e-14 4.24146e-06)
(-1.43239e-05 2.73941e-06 5.71286e-16 5.47796e-06 4.24989e-06 2.67272e-13 7.33549e-14 -6.26569e-13 4.37005e-06)
(-1.41058e-05 2.94928e-06 4.13659e-16 5.64985e-06 4.207e-06 -1.41431e-12 3.17178e-14 4.64278e-15 4.22747e-06)
(-1.39616e-05 2.87937e-06 1.00759e-15 4.91572e-06 4.20904e-06 3.22053e-13 2.7151e-13 5.83894e-13 4.32352e-06)
(-1.36285e-05 2.91299e-06 -1.46597e-15 4.43317e-06 3.99507e-06 1.45716e-12 -6.95493e-14 7.35844e-14 4.21069e-06)
(-1.34865e-05 2.71189e-06 -2.65375e-15 3.39715e-06 4.08811e-06 -2.43874e-13 -3.12559e-13 -3.28816e-13 4.25939e-06)
(-1.31282e-05 2.54346e-06 6.10844e-16 2.14628e-06 3.78596e-06 -1.3946e-12 3.31787e-15 1.97189e-15 4.18385e-06)
(-1.29436e-05 2.24105e-06 3.07557e-15 8.41585e-07 3.9057e-06 -2.14767e-13 2.56266e-13 1.95341e-13 4.18827e-06)
(-1.26581e-05 1.90741e-06 -9.25244e-16 -9.71102e-07 3.62642e-06 4.63093e-13 1.0939e-13 1.49401e-14 4.1447e-06)
(-1.49843e-05 2.74979e-07 -1.15787e-17 8.12223e-07 4.31443e-06 1.61636e-13 2.11293e-14 3.45992e-13 4.34055e-06)
(-1.36382e-05 7.05207e-07 4.09885e-16 1.34548e-06 3.89018e-06 -8.63397e-14 6.17472e-14 4.45543e-15 3.82691e-06)
(-1.36098e-05 1.12816e-06 -9.19557e-16 2.78356e-06 3.8032e-06 1.03908e-13 -2.49196e-14 1.45023e-13 3.8776e-06)