/*--------------------------------*- C++ -*----------------------------------*\
| =========                 |                                                 |
| \\      /  F ield         | foam-extend: Open Source CFD                    |
|  \\    /   O peration     | Version:     4.1-20200408                       |
|   \\  /    A nd           | Web:         http://www.foam-extend.org         |
|    \\/     M anipulation  |                                                 |
\*---------------------------------------------------------------------------*/
FoamFile
{
    version     2.0;
    format      ascii;
    class       volScalarField;
    location    "0.0720000";
    object      rho;
}
// * * * * * * * * * * * * * * * * * * * * * * * * * * * * * * * * * * * * * //

dimensions      [1 -3 0 0 0 0 0];

internalField   nonuniform List<scalar> 
1952
(
7865.63
7864.29
7862.44
7860.16
7857.38
7854.38
7851.04
7847.11
7842.78
7837.46
7831.69
7823.64
7815.54
7807.5
7802.06
7866.28
7865.11
7863.78
7861.92
7859.64
7856.85
7853.87
7850.52
7846.6
7842.27
7836.97
7831.2
7823.18
7815.09
7807.11
7801.7
7865.76
7864.9
7863.56
7861.7
7859.43
7856.64
7853.66
7850.32
7846.4
7842.08
7836.8
7831.05
7823.06
7815.01
7807.08
7801.75
7865.54
7864.72
7863.39
7861.53
7859.25
7856.48
7853.5
7850.16
7846.26
7841.95
7836.68
7830.94
7822.98
7814.94
7807.05
7801.74
7865.37
7864.56
7863.23
7861.37
7859.1
7856.33
7853.36
7850.03
7846.13
7841.83
7836.57
7830.85
7822.91
7814.89
7807.03
7801.76
7865.21
7864.43
7863.09
7861.24
7858.97
7856.2
7853.24
7849.91
7846.02
7841.74
7836.49
7830.78
7822.85
7814.86
7807.01
7801.76
7865.07
7864.31
7862.97
7861.12
7858.85
7856.09
7853.13
7849.81
7845.93
7841.65
7836.42
7830.72
7822.8
7814.82
7807
7801.77
7864.95
7864.2
7862.87
7861.02
7858.76
7856
7853.04
7849.73
7845.85
7841.58
7836.35
7830.66
7822.76
7814.79
7806.99
7801.77
7864.85
7864.11
7862.78
7860.94
7858.67
7855.91
7852.96
7849.65
7845.78
7841.52
7836.3
7830.61
7822.72
7814.76
7806.97
7801.77
7864.76
7864.03
7862.7
7860.86
7858.59
7855.84
7852.89
7849.59
7845.71
7841.46
7836.25
7830.56
7822.68
7814.73
7806.95
7801.76
7864.68
7863.96
7862.64
7860.79
7858.52
7855.78
7852.83
7849.53
7845.66
7841.41
7836.2
7830.52
7822.65
7814.7
7806.93
7801.74
7864.61
7863.9
7862.57
7860.73
7858.46
7855.72
7852.78
7849.47
7845.6
7841.36
7836.15
7830.48
7822.61
7814.67
7806.9
7801.72
7864.55
7863.85
7862.52
7860.67
7858.41
7855.67
7852.72
7849.42
7845.55
7841.31
7836.11
7830.43
7822.57
7814.63
7806.87
7801.7
7864.49
7863.8
7862.47
7860.62
7858.36
7855.62
7852.68
7849.37
7845.5
7841.27
7836.07
7830.39
7822.53
7814.59
7806.84
7801.67
7864.44
7863.75
7862.42
7860.58
7858.31
7855.57
7852.63
7849.33
7845.46
7841.22
7836.02
7830.34
7822.49
7814.55
7806.81
7801.64
7864.4
7863.71
7862.38
7860.54
7858.27
7855.53
7852.59
7849.28
7845.41
7841.18
7835.98
7830.3
7822.45
7814.51
7806.77
7801.6
7864.36
7863.67
7862.34
7860.49
7858.22
7855.49
7852.55
7849.24
7845.37
7841.13
7835.94
7830.25
7822.4
7814.46
7806.73
7801.56
7864.32
7863.64
7862.31
7860.46
7858.19
7855.45
7852.51
7849.2
7845.32
7841.09
7835.89
7830.2
7822.36
7814.41
7806.68
7801.51
7864.28
7863.61
7862.27
7860.42
7858.15
7855.41
7852.47
7849.16
7845.28
7841.04
7835.84
7830.15
7822.31
7814.36
7806.63
7801.47
7864.25
7863.58
7862.24
7860.39
7858.11
7855.37
7852.43
7849.12
7845.23
7841
7835.8
7830.1
7822.26
7814.31
7806.58
7801.41
7864.22
7863.55
7862.21
7860.36
7858.08
7855.34
7852.39
7849.08
7845.19
7840.95
7835.75
7830.04
7822.2
7814.25
7806.53
7801.36
7864.2
7863.53
7862.19
7860.33
7858.05
7855.31
7852.36
7849.04
7845.15
7840.9
7835.7
7829.99
7822.15
7814.19
7806.47
7801.3
7864.17
7863.51
7862.17
7860.31
7858.02
7855.28
7852.33
7849
7845.1
7840.86
7835.65
7829.93
7822.09
7814.12
7806.41
7801.23
7864.15
7863.49
7862.15
7860.29
7858
7855.25
7852.3
7848.96
7845.06
7840.81
7835.6
7829.87
7822.03
7814.05
7806.34
7801.16
7864.14
7863.49
7862.14
7860.28
7857.98
7855.23
7852.27
7848.93
7845.02
7840.76
7835.55
7829.81
7821.96
7813.98
7806.27
7801.08
7864.14
7863.49
7862.14
7860.27
7857.97
7855.22
7852.25
7848.9
7844.99
7840.72
7835.5
7829.75
7821.9
7813.91
7806.19
7801
7864.14
7863.5
7862.15
7860.28
7857.97
7855.21
7852.24
7848.88
7844.96
7840.68
7835.45
7829.68
7821.83
7813.83
7806.11
7800.9
7864.15
7863.52
7862.17
7860.29
7857.98
7855.21
7852.24
7848.87
7844.93
7840.65
7835.41
7829.62
7821.76
7813.74
7806.02
7800.8
7864.18
7863.57
7862.21
7860.32
7858.01
7855.23
7852.25
7848.87
7844.92
7840.62
7835.37
7829.57
7821.7
7813.66
7805.93
7800.69
7864.22
7863.62
7862.27
7860.37
7858.05
7855.26
7852.27
7848.88
7844.92
7840.6
7835.34
7829.51
7821.63
7813.57
7805.83
7800.58
7864.28
7863.71
7862.34
7860.44
7858.11
7855.32
7852.32
7848.9
7844.93
7840.6
7835.32
7829.47
7821.57
7813.49
7805.73
7800.45
7864.36
7863.81
7862.45
7860.54
7858.2
7855.39
7852.38
7848.95
7844.97
7840.61
7835.31
7829.43
7821.52
7813.4
7805.63
7800.31
7864.47
7863.96
7862.59
7860.67
7858.32
7855.5
7852.48
7849.03
7845.02
7840.64
7835.32
7829.41
7821.47
7813.32
7805.52
7800.17
7864.62
7864.13
7862.76
7860.83
7858.48
7855.65
7852.61
7849.14
7845.11
7840.7
7835.36
7829.41
7821.45
7813.25
7805.42
7800.02
7864.79
7864.35
7862.98
7861.04
7858.68
7855.83
7852.78
7849.29
7845.24
7840.81
7835.44
7829.44
7821.45
7813.19
7805.33
7799.87
7865.02
7864.62
7863.24
7861.3
7858.93
7856.07
7853.01
7849.5
7845.43
7840.96
7835.56
7829.51
7821.47
7813.16
7805.24
7799.71
7865.28
7864.94
7863.57
7861.62
7859.25
7856.38
7853.3
7849.77
7845.67
7841.17
7835.73
7829.63
7821.55
7813.16
7805.19
7799.56
7865.61
7865.33
7863.97
7862.01
7859.63
7856.75
7853.66
7850.11
7845.99
7841.45
7835.98
7829.82
7821.69
7813.21
7805.16
7799.43
7866
7865.78
7864.42
7862.46
7860.09
7857.2
7854.1
7850.53
7846.4
7841.83
7836.32
7830.09
7821.9
7813.32
7805.19
7799.32
7866.45
7866.3
7864.95
7862.99
7860.62
7857.74
7854.64
7851.07
7846.92
7842.32
7836.78
7830.48
7822.23
7813.52
7805.29
7799.25
7866.97
7866.89
7865.55
7863.59
7861.24
7858.37
7855.29
7851.72
7847.56
7842.95
7837.37
7831.02
7822.7
7813.86
7805.51
7799.24
7867.55
7867.53
7866.21
7864.27
7861.95
7859.1
7856.04
7852.49
7848.35
7843.73
7838.15
7831.74
7823.36
7814.37
7805.88
7799.34
7868.19
7868.22
7866.93
7865.01
7862.72
7859.92
7856.9
7853.4
7849.29
7844.72
7839.14
7832.71
7824.28
7815.14
7806.47
7799.56
7868.87
7868.92
7867.67
7865.79
7863.56
7860.82
7857.87
7854.45
7850.41
7845.91
7840.39
7833.98
7825.55
7816.27
7807.43
7800.01
7869.57
7869.62
7868.42
7866.58
7864.42
7861.77
7858.92
7855.63
7851.7
7847.34
7841.93
7835.64
7827.28
7817.97
7809.06
7801.14
7870.25
7870.25
7869.11
7867.34
7865.28
7862.75
7860.03
7856.91
7853.14
7849.01
7843.79
7837.74
7829.62
7820.53
7811.94
7804.17
7870.87
7870.76
7869.69
7868
7866.06
7863.69
7861.14
7858.25
7854.69
7850.87
7845.93
7840.26
7832.52
7823.91
7815.97
7808.96
7871.36
7871.07
7870.08
7868.49
7866.7
7864.51
7862.17
7859.56
7856.27
7852.84
7848.24
7843.08
7835.78
7827.75
7820.49
7814.11
7871.65
7871.08
7870.18
7868.71
7867.09
7865.11
7863.02
7860.74
7857.78
7854.81
7850.62
7846.07
7839.28
7831.95
7825.37
7819.41
7871.64
7870.69
7869.9
7868.56
7867.12
7865.39
7863.58
7861.67
7859.09
7856.66
7852.94
7849.12
7842.88
7836.44
7830.42
7824.83
7871.22
7869.78
7869.09
7867.89
7866.67
7865.2
7863.7
7862.19
7860.05
7858.21
7855.05
7852.09
7846.49
7841.28
7835.66
7830.46
7870.27
7868.19
7867.63
7866.58
7865.58
7864.39
7863.23
7862.14
7860.48
7859.31
7856.78
7854.79
7850.04
7846.27
7841.17
7836.5
7868.65
7865.8
7865.36
7864.47
7863.71
7862.81
7862.01
7861.36
7860.2
7859.63
7857.72
7856.73
7853.24
7851.19
7846.78
7843.24
7866.22
7862.47
7862.16
7861.44
7860.92
7860.25
7859.71
7859.4
7858.76
7858.96
7857.88
7858.1
7855.87
7855.52
7852.07
7850.7
7862.85
7857.9
7857.7
7857.12
7856.85
7856.55
7856.45
7856.7
7856.75
7857.8
7857.67
7859.07
7857.94
7859.4
7857.18
7858.58
7858.26
7852.12
7852.16
7851.92
7852.14
7852.49
7853.1
7854.13
7854.95
7856.74
7857.52
7860.01
7860
7863.06
7862.03
7866.18
7852.41
7846.34
7846.79
7847.11
7847.94
7848.95
7850.28
7852.04
7853.65
7856.14
7857.69
7861.01
7861.94
7866.32
7866.35
7872.85
7846.45
7841.62
7842.44
7843.28
7844.68
7846.26
7848.17
7850.47
7852.69
7855.72
7857.93
7861.9
7863.63
7869.03
7870.03
7878.4
7841.53
7838.26
7839.29
7840.47
7842.23
7844.22
7846.56
7849.27
7852
7855.43
7858.2
7862.62
7865.04
7871.14
7873
7882.73
7838.01
7836.12
7837.24
7838.62
7840.6
7842.85
7845.49
7848.47
7851.57
7855.27
7858.5
7863.19
7866.18
7872.68
7875.24
7885.8
7835.75
7835.07
7836.21
7837.7
7839.77
7842.16
7844.99
7848.11
7851.45
7855.28
7858.85
7863.64
7867.07
7873.66
7876.78
7887.62
7834.61
7834.97
7836.09
7837.63
7839.73
7842.16
7845.07
7848.21
7851.69
7855.51
7859.29
7863.99
7867.71
7874.13
7877.61
7888.2
7834.47
7835.74
7836.83
7838.36
7840.44
7842.82
7845.72
7848.8
7852.3
7855.99
7859.82
7864.28
7868.14
7874.1
7877.74
7887.57
7835.22
7837.32
7838.36
7839.83
7841.83
7844.11
7846.91
7849.83
7853.24
7856.69
7860.47
7864.52
7868.36
7873.62
7877.21
7885.8
7836.83
7839.71
7840.66
7842.01
7843.86
7845.96
7848.59
7851.27
7854.5
7857.62
7861.21
7864.74
7868.38
7872.7
7876.03
7882.94
7839.27
7842.87
7843.69
7844.85
7846.49
7848.32
7850.7
7853.07
7856.02
7858.74
7862.04
7864.93
7868.22
7871.41
7874.25
7879.15
7842.51
7846.74
7847.39
7848.31
7849.67
7851.18
7853.22
7855.21
7857.8
7860.04
7862.94
7865.09
7867.86
7869.75
7871.91
7874.56
7846.48
7851.21
7851.69
7852.35
7853.39
7854.52
7856.17
7857.71
7859.86
7861.54
7863.93
7865.26
7867.34
7867.79
7869.08
7869.38
7851.03
7856.07
7856.42
7856.86
7857.61
7858.38
7859.6
7860.65
7862.29
7863.34
7865.1
7865.51
7866.7
7865.57
7865.83
7863.86
7855.95
7861.09
7861.39
7861.69
7862.25
7862.72
7863.56
7864.14
7865.22
7865.59
7866.59
7865.95
7866.03
7863.21
7862.3
7858.28
7860.99
7866.06
7866.36
7866.61
7867.08
7867.38
7867.96
7868.14
7868.7
7868.4
7868.56
7866.76
7865.5
7860.87
7858.7
7852.93
7865.95
7870.76
7871.07
7871.33
7871.78
7872.02
7872.46
7872.42
7872.61
7871.78
7871.14
7868.14
7865.39
7858.93
7855.43
7848.17
7870.65
7875.31
7875.63
7875.91
7876.4
7876.69
7877.15
7877.09
7877.1
7875.89
7874.43
7870.3
7865.97
7857.79
7853.03
7844.47
7875.2
7880.29
7880.47
7880.56
7880.77
7880.73
7880.73
7880.11
7879.34
7877.25
7874.76
7869.94
7864.93
7856.83
7851.5
7842.16
7880.23
7882.18
7882.01
7881.63
7881.16
7880.33
7879.34
7877.72
7875.88
7872.96
7869.99
7865.45
7861.29
7854.67
7850.17
7841.21
7882.24
7878.32
7878
7877.43
7876.66
7875.53
7874.18
7872.28
7870.2
7867.32
7864.53
7860.52
7857.24
7851.87
7848.36
7841.26
7878.45
7873.24
7872.91
7872.35
7871.61
7870.54
7869.28
7867.54
7865.63
7863.03
7860.43
7856.86
7853.68
7849.18
7845.88
7840.88
7873.37
7869.2
7868.83
7868.24
7867.45
7866.35
7865.07
7863.37
7861.53
7859.13
7856.74
7853.61
7850.75
7846.96
7843.69
7839.77
7869.34
7865.25
7864.87
7864.31
7863.54
7862.51
7861.29
7859.73
7858.03
7855.87
7853.69
7850.93
7848.34
7845.05
7842.18
7838.52
7865.38
7861.78
7861.41
7860.87
7860.12
7859.15
7857.99
7856.55
7854.98
7853.04
7851.07
7848.65
7846.35
7843.53
7840.99
7837.89
7861.91
7858.62
7858.25
7857.75
7857.04
7856.15
7855.08
7853.78
7852.35
7850.62
7848.86
7846.74
7844.71
7842.27
7840.07
7837.4
7858.74
7855.8
7855.46
7855
7854.33
7853.52
7852.54
7851.36
7850.07
7848.54
7846.98
7845.13
7843.36
7841.26
7839.37
7837.1
7855.92
7853.29
7852.96
7852.54
7851.94
7851.2
7850.31
7849.26
7848.11
7846.76
7845.38
7843.77
7842.23
7840.43
7838.81
7836.89
7853.39
7851.06
7850.75
7850.38
7849.82
7849.16
7848.37
7847.43
7846.41
7845.23
7844.01
7842.62
7841.29
7839.75
7838.37
7836.74
7851.15
7849.08
7848.8
7848.46
7847.96
7847.38
7846.66
7845.84
7844.94
7843.9
7842.84
7841.64
7840.49
7839.19
7838.01
7836.63
7849.16
7847.32
7847.07
7846.77
7846.32
7845.81
7845.17
7844.45
7843.66
7842.76
7841.84
7840.81
7839.82
7838.71
7837.71
7836.55
7847.4
7845.77
7845.54
7845.28
7844.88
7844.43
7843.87
7843.24
7842.55
7841.77
7840.97
7840.09
7839.24
7838.3
7837.46
7836.47
7845.84
7844.41
7844.2
7843.97
7843.62
7843.22
7842.73
7842.18
7841.57
7840.9
7840.22
7839.46
7838.74
7837.94
7837.23
7836.4
7844.46
7843.2
7843.01
7842.81
7842.5
7842.15
7841.72
7841.25
7840.72
7840.15
7839.56
7838.91
7838.3
7837.62
7837.02
7836.32
7843.24
7842.13
7841.96
7841.79
7841.51
7841.21
7840.84
7840.43
7839.98
7839.48
7838.97
7838.42
7837.9
7837.33
7836.82
7836.23
7842.17
7841.18
7841.03
7840.88
7840.64
7840.38
7840.06
7839.71
7839.31
7838.89
7838.46
7837.99
7837.55
7837.06
7836.64
7836.13
7841.22
7840.34
7840.21
7840.08
7839.87
7839.65
7839.37
7839.06
7838.73
7838.36
7837.99
7837.59
7837.22
7836.81
7836.45
7836.02
7840.37
7839.59
7839.48
7839.37
7839.19
7838.99
7838.75
7838.49
7838.2
7837.89
7837.57
7837.24
7836.92
7836.58
7836.27
7835.9
7839.62
7838.93
7838.83
7838.73
7838.57
7838.41
7838.2
7837.97
7837.73
7837.46
7837.19
7836.91
7836.64
7836.35
7836.09
7835.77
7838.95
7838.33
7838.24
7838.16
7838.02
7837.88
7837.7
7837.51
7837.3
7837.07
7836.84
7836.6
7836.37
7836.12
7835.9
7835.63
7838.35
7837.79
7837.72
7837.65
7837.53
7837.41
7837.25
7837.09
7836.9
7836.71
7836.52
7836.31
7836.12
7835.91
7835.72
7835.48
7837.81
7837.31
7837.24
7837.18
7837.08
7836.98
7836.84
7836.7
7836.55
7836.38
7836.21
7836.04
7835.87
7835.7
7835.53
7835.32
7837.33
7836.87
7836.82
7836.76
7836.68
7836.59
7836.47
7836.35
7836.21
7836.07
7835.93
7835.78
7835.64
7835.49
7835.34
7835.15
7836.89
7836.48
7836.43
7836.38
7836.3
7836.23
7836.13
7836.02
7835.91
7835.79
7835.66
7835.53
7835.41
7835.28
7835.15
7834.98
7836.49
7836.11
7836.07
7836.03
7835.96
7835.9
7835.81
7835.72
7835.62
7835.52
7835.41
7835.3
7835.19
7835.08
7834.97
7834.81
7836.12
7835.78
7835.74
7835.71
7835.65
7835.59
7835.52
7835.44
7835.35
7835.26
7835.17
7835.07
7834.98
7834.88
7834.78
7834.63
7835.79
7835.48
7835.44
7835.41
7835.36
7835.31
7835.24
7835.18
7835.1
7835.02
7834.94
7834.85
7834.77
7834.68
7834.59
7834.45
7835.48
7835.19
7835.16
7835.14
7835.09
7835.05
7834.99
7834.93
7834.86
7834.79
7834.72
7834.64
7834.57
7834.49
7834.41
7834.28
7835.2
7834.93
7834.91
7834.88
7834.84
7834.8
7834.75
7834.7
7834.64
7834.57
7834.51
7834.44
7834.38
7834.3
7834.22
7834.1
7834.94
7834.69
7834.67
7834.65
7834.61
7834.57
7834.53
7834.48
7834.42
7834.37
7834.31
7834.25
7834.19
7834.12
7834.04
7833.92
7834.7
7834.46
7834.44
7834.42
7834.39
7834.36
7834.32
7834.27
7834.22
7834.17
7834.12
7834.06
7834
7833.94
7833.86
7833.75
7834.47
7834.25
7834.24
7834.22
7834.19
7834.16
7834.12
7834.08
7834.03
7833.98
7833.93
7833.88
7833.82
7833.76
7833.69
7833.58
7834.26
7834.06
7834.04
7834.03
7834
7833.97
7833.93
7833.89
7833.85
7833.8
7833.75
7833.7
7833.65
7833.59
7833.52
7833.4
7834.06
7833.88
7833.86
7833.85
7833.82
7833.79
7833.76
7833.72
7833.68
7833.63
7833.59
7833.53
7833.48
7833.42
7833.35
7833.24
7833.88
7833.71
7833.69
7833.68
7833.65
7833.63
7833.59
7833.56
7833.52
7833.47
7833.43
7833.37
7833.32
7833.26
7833.19
7833.07
7833.71
7833.55
7833.54
7833.52
7833.5
7833.47
7833.44
7833.41
7833.37
7833.32
7833.27
7833.22
7833.17
7833.11
7833.03
7832.91
7833.56
7833.41
7833.4
7833.38
7833.36
7833.33
7833.3
7833.26
7833.22
7833.18
7833.13
7833.08
7833.02
7832.96
7832.88
7832.75
7833.41
7833.28
7833.26
7833.25
7833.23
7833.2
7833.17
7833.13
7833.09
7833.05
7833
7832.94
7832.89
7832.82
7832.73
7832.6
7833.28
7833.16
7833.14
7833.13
7833.11
7833.08
7833.05
7833.02
7832.98
7832.93
7832.88
7832.82
7832.76
7832.68
7832.59
7832.46
7833.16
7833.05
7833.04
7833.02
7833
7832.98
7832.94
7832.91
7832.87
7832.82
7832.77
7832.71
7832.64
7832.56
7832.46
7832.32
7833.05
7832.95
7832.94
7832.92
7832.9
7832.88
7832.85
7832.81
7832.77
7832.72
7832.67
7832.61
7832.54
7832.45
7832.34
7832.19
7832.95
7832.86
7832.85
7832.84
7832.82
7832.8
7832.77
7832.73
7832.69
7832.64
7832.59
7832.52
7832.45
7832.36
7832.24
7832.07
7832.87
7832.79
7832.78
7832.76
7832.75
7832.72
7832.7
7832.66
7832.62
7832.57
7832.52
7832.45
7832.38
7832.28
7832.15
7831.96
7832.79
7832.72
7832.71
7832.7
7832.68
7832.66
7832.64
7832.6
7832.57
7832.52
7832.47
7832.4
7832.33
7832.23
7832.09
7831.88
7832.73
7832.67
7832.66
7832.65
7832.63
7832.61
7832.59
7832.56
7832.52
7832.48
7832.43
7832.38
7832.3
7832.21
7832.07
7831.85
7832.67
7832.61
7832.61
7832.6
7832.58
7832.57
7832.55
7832.52
7832.49
7832.46
7832.42
7832.37
7832.31
7832.24
7832.13
7831.97
7832.62
7832.59
7832.58
7832.58
7832.56
7832.55
7832.53
7832.51
7832.48
7832.45
7832.42
7832.37
7832.33
7832.27
7832.21
7832.09
7832.59
)
;

boundaryField
{
    wireUpstream
    {
        type            calculated;
        value           nonuniform List<scalar> 
16
(
7832.56
7832.56
7832.55
7832.54
7832.53
7832.51
7832.49
7832.47
7832.44
7832.41
7832.38
7832.34
7832.3
7832.27
7832.25
7832.57
)
;
    }
    wireDownstream
    {
        type            calculated;
        value           nonuniform List<scalar> 
16
(
7865.65
7864.32
7862.47
7860.19
7857.41
7854.42
7851.08
7847.16
7842.84
7837.54
7831.81
7823.8
7815.78
7807.89
7802.73
7866.3
)
;
    }
    wireTopContact
    {
        type            calculated;
        value           nonuniform List<scalar> 
122
(
7801.14
7801.18
7801.18
7801.19
7801.2
7801.21
7801.21
7801.2
7801.19
7801.18
7801.16
7801.13
7801.11
7801.07
7801.04
7801
7800.95
7800.91
7800.86
7800.8
7800.74
7800.67
7800.6
7800.53
7800.44
7800.35
7800.25
7800.15
7800.03
7799.9
7799.77
7799.63
7799.48
7799.33
7799.18
7799.04
7798.92
7798.82
7798.77
7798.79
7798.92
7799.21
7799.74
7800.85
7803.92
7808.9
7814.16
7819.63
7825.25
7830.92
7836.85
7843.26
7850.29
7857.81
7865.14
7871.56
7876.97
7881.27
7884.36
7886.25
7886.94
7886.43
7884.82
7882.14
7878.54
7874.16
7869.21
7863.97
7858.69
7853.67
7849.25
7845.8
7843.59
7842.52
7841.94
7840.66
7839.67
7838.51
7837.87
7837.37
7837.05
7836.83
7836.68
7836.57
7836.49
7836.41
7836.34
7836.26
7836.17
7836.08
7835.97
7835.86
7835.73
7835.59
7835.44
7835.29
7835.12
7834.96
7834.79
7834.61
7834.44
7834.26
7834.08
7833.91
7833.74
7833.56
7833.39
7833.23
7833.06
7832.9
7832.75
7832.6
7832.45
7832.31
7832.18
7832.07
7831.96
7831.88
7831.85
7831.95
7832.04
7801.43
)
;
    }
    front
    {
        type            wedge;
    }
    back
    {
        type            wedge;
    }
}


// ************************************************************************* //
