/*--------------------------------*- C++ -*----------------------------------*\
| =========                 |                                                 |
| \\      /  F ield         | foam-extend: Open Source CFD                    |
|  \\    /   O peration     | Version:     4.1-20200408                       |
|   \\  /    A nd           | Web:         http://www.foam-extend.org         |
|    \\/     M anipulation  |                                                 |
\*---------------------------------------------------------------------------*/
FoamFile
{
    version     2.0;
    format      ascii;
    class       volScalarField;
    location    "0.0720000";
    object      sigmaY;
}
// * * * * * * * * * * * * * * * * * * * * * * * * * * * * * * * * * * * * * //

dimensions      [1 -1 -2 0 0 0 0];

internalField   nonuniform List<scalar> 
1952
(
1.2777e+09
1.27774e+09
1.27782e+09
1.2779e+09
1.27801e+09
1.27811e+09
1.27821e+09
1.27824e+09
1.27818e+09
1.27796e+09
1.27755e+09
1.27681e+09
1.2758e+09
1.27493e+09
1.27447e+09
1.27767e+09
1.27773e+09
1.27777e+09
1.27785e+09
1.27792e+09
1.27803e+09
1.27814e+09
1.27824e+09
1.27826e+09
1.2782e+09
1.27799e+09
1.27757e+09
1.27683e+09
1.27582e+09
1.27495e+09
1.27449e+09
1.27769e+09
1.27775e+09
1.27779e+09
1.27787e+09
1.27795e+09
1.27806e+09
1.27816e+09
1.27826e+09
1.27828e+09
1.27823e+09
1.27801e+09
1.2776e+09
1.27686e+09
1.27584e+09
1.27498e+09
1.27452e+09
1.27771e+09
1.27777e+09
1.27781e+09
1.27789e+09
1.27797e+09
1.27808e+09
1.27819e+09
1.27828e+09
1.27831e+09
1.27825e+09
1.27803e+09
1.27762e+09
1.27688e+09
1.27586e+09
1.275e+09
1.27454e+09
1.27774e+09
1.2778e+09
1.27784e+09
1.27792e+09
1.27799e+09
1.2781e+09
1.27821e+09
1.27831e+09
1.27833e+09
1.27827e+09
1.27806e+09
1.27764e+09
1.2769e+09
1.27589e+09
1.27502e+09
1.27456e+09
1.27776e+09
1.27782e+09
1.27786e+09
1.27794e+09
1.27801e+09
1.27813e+09
1.27823e+09
1.27833e+09
1.27835e+09
1.2783e+09
1.27808e+09
1.27767e+09
1.27692e+09
1.27591e+09
1.27504e+09
1.27459e+09
1.27778e+09
1.27784e+09
1.27788e+09
1.27796e+09
1.27804e+09
1.27815e+09
1.27826e+09
1.27836e+09
1.27838e+09
1.27832e+09
1.2781e+09
1.27769e+09
1.27695e+09
1.27593e+09
1.27507e+09
1.27461e+09
1.27781e+09
1.27787e+09
1.27791e+09
1.27798e+09
1.27806e+09
1.27817e+09
1.27828e+09
1.27838e+09
1.2784e+09
1.27835e+09
1.27813e+09
1.27771e+09
1.27697e+09
1.27596e+09
1.27509e+09
1.27463e+09
1.27783e+09
1.27789e+09
1.27793e+09
1.27801e+09
1.27808e+09
1.2782e+09
1.2783e+09
1.2784e+09
1.27842e+09
1.27837e+09
1.27815e+09
1.27774e+09
1.27699e+09
1.27598e+09
1.27511e+09
1.27465e+09
1.27785e+09
1.27791e+09
1.27795e+09
1.27803e+09
1.27811e+09
1.27822e+09
1.27833e+09
1.27842e+09
1.27845e+09
1.27839e+09
1.27817e+09
1.27776e+09
1.27701e+09
1.276e+09
1.27514e+09
1.27468e+09
1.27787e+09
1.27793e+09
1.27797e+09
1.27805e+09
1.27813e+09
1.27824e+09
1.27835e+09
1.27845e+09
1.27847e+09
1.27842e+09
1.2782e+09
1.27778e+09
1.27704e+09
1.27602e+09
1.27516e+09
1.2747e+09
1.2779e+09
1.27796e+09
1.278e+09
1.27808e+09
1.27815e+09
1.27827e+09
1.27837e+09
1.27847e+09
1.27849e+09
1.27844e+09
1.27822e+09
1.27781e+09
1.27706e+09
1.27605e+09
1.27518e+09
1.27472e+09
1.27792e+09
1.27798e+09
1.27802e+09
1.2781e+09
1.27817e+09
1.27829e+09
1.27839e+09
1.27849e+09
1.27851e+09
1.27846e+09
1.27824e+09
1.27783e+09
1.27708e+09
1.27607e+09
1.2752e+09
1.27474e+09
1.27794e+09
1.278e+09
1.27804e+09
1.27812e+09
1.2782e+09
1.27831e+09
1.27842e+09
1.27852e+09
1.27854e+09
1.27849e+09
1.27827e+09
1.27785e+09
1.27711e+09
1.27609e+09
1.27523e+09
1.27477e+09
1.27796e+09
1.27802e+09
1.27806e+09
1.27814e+09
1.27822e+09
1.27833e+09
1.27844e+09
1.27854e+09
1.27856e+09
1.27851e+09
1.27829e+09
1.27788e+09
1.27713e+09
1.27611e+09
1.27525e+09
1.27479e+09
1.27799e+09
1.27805e+09
1.27809e+09
1.27816e+09
1.27824e+09
1.27836e+09
1.27846e+09
1.27856e+09
1.27858e+09
1.27853e+09
1.27831e+09
1.2779e+09
1.27715e+09
1.27614e+09
1.27527e+09
1.27481e+09
1.27801e+09
1.27807e+09
1.27811e+09
1.27819e+09
1.27826e+09
1.27838e+09
1.27849e+09
1.27859e+09
1.27861e+09
1.27856e+09
1.27834e+09
1.27792e+09
1.27717e+09
1.27616e+09
1.2753e+09
1.27484e+09
1.27803e+09
1.27809e+09
1.27813e+09
1.27821e+09
1.27829e+09
1.2784e+09
1.27851e+09
1.27861e+09
1.27863e+09
1.27858e+09
1.27836e+09
1.27795e+09
1.2772e+09
1.27618e+09
1.27532e+09
1.27486e+09
1.27805e+09
1.27811e+09
1.27815e+09
1.27823e+09
1.27831e+09
1.27843e+09
1.27853e+09
1.27863e+09
1.27865e+09
1.2786e+09
1.27838e+09
1.27797e+09
1.27722e+09
1.2762e+09
1.27534e+09
1.27488e+09
1.27808e+09
1.27814e+09
1.27818e+09
1.27826e+09
1.27833e+09
1.27845e+09
1.27856e+09
1.27866e+09
1.27868e+09
1.27863e+09
1.27841e+09
1.27799e+09
1.27724e+09
1.27623e+09
1.27536e+09
1.2749e+09
1.2781e+09
1.27816e+09
1.2782e+09
1.27828e+09
1.27835e+09
1.27847e+09
1.27858e+09
1.27868e+09
1.2787e+09
1.27865e+09
1.27843e+09
1.27802e+09
1.27726e+09
1.27625e+09
1.27539e+09
1.27493e+09
1.27812e+09
1.27818e+09
1.27822e+09
1.2783e+09
1.27838e+09
1.27849e+09
1.2786e+09
1.2787e+09
1.27872e+09
1.27867e+09
1.27846e+09
1.27804e+09
1.27729e+09
1.27627e+09
1.27541e+09
1.27495e+09
1.27814e+09
1.27821e+09
1.27825e+09
1.27832e+09
1.2784e+09
1.27852e+09
1.27862e+09
1.27873e+09
1.27874e+09
1.2787e+09
1.27848e+09
1.27806e+09
1.27731e+09
1.27629e+09
1.27543e+09
1.27497e+09
1.27817e+09
1.27823e+09
1.27827e+09
1.27835e+09
1.27842e+09
1.27854e+09
1.27865e+09
1.27875e+09
1.27877e+09
1.27872e+09
1.2785e+09
1.27809e+09
1.27733e+09
1.27632e+09
1.27546e+09
1.275e+09
1.27819e+09
1.27825e+09
1.27829e+09
1.27837e+09
1.27845e+09
1.27857e+09
1.27867e+09
1.27877e+09
1.27879e+09
1.27874e+09
1.27853e+09
1.27811e+09
1.27736e+09
1.27634e+09
1.27548e+09
1.27502e+09
1.27821e+09
1.27828e+09
1.27831e+09
1.27839e+09
1.27847e+09
1.27859e+09
1.2787e+09
1.2788e+09
1.27881e+09
1.27877e+09
1.27855e+09
1.27813e+09
1.27738e+09
1.27636e+09
1.2755e+09
1.27504e+09
1.27824e+09
1.2783e+09
1.27834e+09
1.27842e+09
1.27849e+09
1.27861e+09
1.27872e+09
1.27882e+09
1.27884e+09
1.27879e+09
1.27857e+09
1.27816e+09
1.2774e+09
1.27639e+09
1.27552e+09
1.27506e+09
1.27826e+09
1.27832e+09
1.27836e+09
1.27844e+09
1.27852e+09
1.27864e+09
1.27874e+09
1.27884e+09
1.27886e+09
1.27881e+09
1.2786e+09
1.27818e+09
1.27742e+09
1.27641e+09
1.27555e+09
1.27509e+09
1.27828e+09
1.27834e+09
1.27838e+09
1.27846e+09
1.27854e+09
1.27866e+09
1.27877e+09
1.27887e+09
1.27888e+09
1.27884e+09
1.27862e+09
1.2782e+09
1.27745e+09
1.27643e+09
1.27557e+09
1.27511e+09
1.27831e+09
1.27837e+09
1.27841e+09
1.27849e+09
1.27856e+09
1.27868e+09
1.27879e+09
1.27889e+09
1.27891e+09
1.27886e+09
1.27864e+09
1.27823e+09
1.27747e+09
1.27645e+09
1.27559e+09
1.27513e+09
1.27833e+09
1.27839e+09
1.27843e+09
1.27851e+09
1.27859e+09
1.2787e+09
1.27881e+09
1.27891e+09
1.27893e+09
1.27888e+09
1.27867e+09
1.27825e+09
1.27749e+09
1.27648e+09
1.27561e+09
1.27515e+09
1.27835e+09
1.27841e+09
1.27845e+09
1.27853e+09
1.27861e+09
1.27873e+09
1.27883e+09
1.27894e+09
1.27895e+09
1.27891e+09
1.27869e+09
1.27827e+09
1.27751e+09
1.2765e+09
1.27564e+09
1.27518e+09
1.27837e+09
1.27844e+09
1.27847e+09
1.27855e+09
1.27863e+09
1.27875e+09
1.27886e+09
1.27896e+09
1.27898e+09
1.27893e+09
1.27871e+09
1.2783e+09
1.27754e+09
1.27652e+09
1.27566e+09
1.2752e+09
1.2784e+09
1.27846e+09
1.2785e+09
1.27858e+09
1.27866e+09
1.27877e+09
1.27888e+09
1.27898e+09
1.279e+09
1.27895e+09
1.27874e+09
1.27832e+09
1.27756e+09
1.27654e+09
1.27568e+09
1.27522e+09
1.27842e+09
1.27848e+09
1.27852e+09
1.2786e+09
1.27868e+09
1.2788e+09
1.2789e+09
1.279e+09
1.27902e+09
1.27898e+09
1.27876e+09
1.27834e+09
1.27758e+09
1.27657e+09
1.27571e+09
1.27525e+09
1.27844e+09
1.2785e+09
1.27854e+09
1.27862e+09
1.2787e+09
1.27882e+09
1.27893e+09
1.27903e+09
1.27904e+09
1.279e+09
1.27878e+09
1.27837e+09
1.27761e+09
1.27659e+09
1.27573e+09
1.27527e+09
1.27846e+09
1.27853e+09
1.27856e+09
1.27864e+09
1.27872e+09
1.27884e+09
1.27895e+09
1.27905e+09
1.27907e+09
1.27902e+09
1.27881e+09
1.27839e+09
1.27763e+09
1.27661e+09
1.27575e+09
1.27529e+09
1.27849e+09
1.27855e+09
1.27859e+09
1.27867e+09
1.27875e+09
1.27887e+09
1.27897e+09
1.27907e+09
1.27909e+09
1.27905e+09
1.27883e+09
1.27841e+09
1.27765e+09
1.27663e+09
1.27577e+09
1.27532e+09
1.27851e+09
1.27857e+09
1.27861e+09
1.27869e+09
1.27877e+09
1.27889e+09
1.279e+09
1.2791e+09
1.27911e+09
1.27907e+09
1.27886e+09
1.27844e+09
1.27767e+09
1.27666e+09
1.2758e+09
1.27534e+09
1.27853e+09
1.27859e+09
1.27863e+09
1.27871e+09
1.27879e+09
1.27891e+09
1.27902e+09
1.27912e+09
1.27914e+09
1.2791e+09
1.27888e+09
1.27846e+09
1.2777e+09
1.27668e+09
1.27582e+09
1.27536e+09
1.27855e+09
1.27862e+09
1.27865e+09
1.27873e+09
1.27882e+09
1.27894e+09
1.27904e+09
1.27914e+09
1.27916e+09
1.27912e+09
1.2789e+09
1.27848e+09
1.27772e+09
1.2767e+09
1.27584e+09
1.27538e+09
1.27858e+09
1.27864e+09
1.27868e+09
1.27876e+09
1.27884e+09
1.27896e+09
1.27907e+09
1.27917e+09
1.27918e+09
1.27914e+09
1.27893e+09
1.27851e+09
1.27774e+09
1.27672e+09
1.27587e+09
1.27541e+09
1.2786e+09
1.27866e+09
1.2787e+09
1.27878e+09
1.27886e+09
1.27898e+09
1.27909e+09
1.27919e+09
1.27921e+09
1.27917e+09
1.27895e+09
1.27853e+09
1.27777e+09
1.27675e+09
1.27589e+09
1.27543e+09
1.27862e+09
1.27869e+09
1.27872e+09
1.2788e+09
1.27889e+09
1.27901e+09
1.27911e+09
1.27921e+09
1.27923e+09
1.27919e+09
1.27897e+09
1.27855e+09
1.27779e+09
1.27677e+09
1.27591e+09
1.27545e+09
1.27865e+09
1.27871e+09
1.27875e+09
1.27883e+09
1.27891e+09
1.27903e+09
1.27914e+09
1.27924e+09
1.27925e+09
1.27921e+09
1.279e+09
1.27858e+09
1.27781e+09
1.27679e+09
1.27593e+09
1.27547e+09
1.27867e+09
1.27873e+09
1.27877e+09
1.27885e+09
1.27893e+09
1.27905e+09
1.27916e+09
1.27926e+09
1.27928e+09
1.27924e+09
1.27902e+09
1.2786e+09
1.27783e+09
1.27682e+09
1.27596e+09
1.2755e+09
1.27869e+09
1.27875e+09
1.27879e+09
1.27887e+09
1.27896e+09
1.27908e+09
1.27918e+09
1.27928e+09
1.2793e+09
1.27926e+09
1.27904e+09
1.27862e+09
1.27786e+09
1.27684e+09
1.27598e+09
1.27552e+09
1.27872e+09
1.27878e+09
1.27882e+09
1.27889e+09
1.27898e+09
1.2791e+09
1.27921e+09
1.27931e+09
1.27932e+09
1.27928e+09
1.27907e+09
1.27865e+09
1.27788e+09
1.27686e+09
1.276e+09
1.27554e+09
1.27874e+09
1.2788e+09
1.27884e+09
1.27892e+09
1.279e+09
1.27912e+09
1.27923e+09
1.27933e+09
1.27935e+09
1.27931e+09
1.27909e+09
1.27867e+09
1.2779e+09
1.27688e+09
1.27603e+09
1.27557e+09
1.27876e+09
1.27882e+09
1.27886e+09
1.27894e+09
1.27902e+09
1.27914e+09
1.27925e+09
1.27935e+09
1.27937e+09
1.27933e+09
1.27911e+09
1.27869e+09
1.27792e+09
1.27691e+09
1.27605e+09
1.27556e+09
1.27878e+09
1.27884e+09
1.27888e+09
1.27896e+09
1.27905e+09
1.27917e+09
1.27928e+09
1.27938e+09
1.27939e+09
1.27935e+09
1.27914e+09
1.27871e+09
1.27795e+09
1.27693e+09
1.27607e+09
1.27549e+09
1.27881e+09
1.27887e+09
1.27891e+09
1.27898e+09
1.27907e+09
1.27919e+09
1.2793e+09
1.2794e+09
1.27941e+09
1.27938e+09
1.27916e+09
1.27874e+09
1.27797e+09
1.27695e+09
1.27606e+09
1.2753e+09
1.27883e+09
1.27889e+09
1.27893e+09
1.27901e+09
1.27909e+09
1.27921e+09
1.27932e+09
1.27942e+09
1.27944e+09
1.2794e+09
1.27918e+09
1.27876e+09
1.27799e+09
1.27697e+09
1.27593e+09
1.2749e+09
1.27885e+09
1.27891e+09
1.27895e+09
1.27903e+09
1.27911e+09
1.27924e+09
1.27934e+09
1.27944e+09
1.27946e+09
1.27942e+09
1.27921e+09
1.27878e+09
1.27801e+09
1.2769e+09
1.27559e+09
1.27426e+09
1.27887e+09
1.27893e+09
1.27897e+09
1.27905e+09
1.27914e+09
1.27926e+09
1.27937e+09
1.27947e+09
1.27948e+09
1.2794e+09
1.27911e+09
1.2786e+09
1.27773e+09
1.2765e+09
1.27499e+09
1.27343e+09
1.2789e+09
1.27896e+09
1.279e+09
1.27907e+09
1.27915e+09
1.27922e+09
1.27927e+09
1.27929e+09
1.27922e+09
1.27904e+09
1.27864e+09
1.27802e+09
1.27703e+09
1.27573e+09
1.27411e+09
1.27245e+09
1.27892e+09
1.27884e+09
1.27885e+09
1.27888e+09
1.27889e+09
1.27888e+09
1.27883e+09
1.27874e+09
1.27856e+09
1.27826e+09
1.27776e+09
1.27704e+09
1.27597e+09
1.27462e+09
1.27298e+09
1.27132e+09
1.27882e+09
1.27839e+09
1.27836e+09
1.27831e+09
1.27824e+09
1.27814e+09
1.27799e+09
1.27778e+09
1.27749e+09
1.2771e+09
1.27651e+09
1.27572e+09
1.27462e+09
1.27326e+09
1.27167e+09
1.2701e+09
1.27839e+09
1.27748e+09
1.2774e+09
1.27729e+09
1.27714e+09
1.27696e+09
1.27672e+09
1.27643e+09
1.27606e+09
1.27559e+09
1.27496e+09
1.27413e+09
1.27304e+09
1.27173e+09
1.27025e+09
1.26883e+09
1.27749e+09
1.27602e+09
1.27592e+09
1.27577e+09
1.27558e+09
1.27535e+09
1.27506e+09
1.27472e+09
1.27431e+09
1.27381e+09
1.27317e+09
1.27235e+09
1.27131e+09
1.27007e+09
1.26875e+09
1.26753e+09
1.27605e+09
1.27404e+09
1.27393e+09
1.27378e+09
1.27358e+09
1.27334e+09
1.27305e+09
1.27271e+09
1.27231e+09
1.27181e+09
1.27119e+09
1.27041e+09
1.26945e+09
1.26833e+09
1.26719e+09
1.26619e+09
1.27407e+09
1.27162e+09
1.27154e+09
1.27141e+09
1.27124e+09
1.27103e+09
1.27077e+09
1.27046e+09
1.2701e+09
1.26965e+09
1.26908e+09
1.26837e+09
1.26752e+09
1.26652e+09
1.26559e+09
1.26482e+09
1.27165e+09
1.26893e+09
1.26887e+09
1.26878e+09
1.26866e+09
1.2685e+09
1.2683e+09
1.26805e+09
1.26775e+09
1.26736e+09
1.26688e+09
1.26625e+09
1.26552e+09
1.26468e+09
1.26396e+09
1.26344e+09
1.26894e+09
1.26612e+09
1.26609e+09
1.26604e+09
1.26597e+09
1.26587e+09
1.26573e+09
1.26556e+09
1.26532e+09
1.26502e+09
1.26462e+09
1.2641e+09
1.2635e+09
1.26282e+09
1.26233e+09
1.26207e+09
1.26613e+09
1.26337e+09
1.26336e+09
1.26334e+09
1.2633e+09
1.26325e+09
1.26317e+09
1.26305e+09
1.26288e+09
1.26266e+09
1.26235e+09
1.26193e+09
1.26147e+09
1.26097e+09
1.26071e+09
1.26072e+09
1.26337e+09
1.26081e+09
1.2608e+09
1.26079e+09
1.26077e+09
1.26074e+09
1.26069e+09
1.26062e+09
1.2605e+09
1.26034e+09
1.26011e+09
1.2598e+09
1.25948e+09
1.25915e+09
1.25913e+09
1.2594e+09
1.2608e+09
1.25851e+09
1.2585e+09
1.25848e+09
1.25846e+09
1.25842e+09
1.25838e+09
1.25832e+09
1.25823e+09
1.25812e+09
1.25795e+09
1.25774e+09
1.25755e+09
1.2574e+09
1.2576e+09
1.25812e+09
1.25851e+09
1.25652e+09
1.25649e+09
1.25646e+09
1.25642e+09
1.25636e+09
1.2563e+09
1.25622e+09
1.25614e+09
1.25604e+09
1.25592e+09
1.25579e+09
1.25572e+09
1.25574e+09
1.25616e+09
1.2569e+09
1.25652e+09
1.25482e+09
1.25478e+09
1.25474e+09
1.25467e+09
1.25459e+09
1.25449e+09
1.25439e+09
1.25428e+09
1.25418e+09
1.25407e+09
1.254e+09
1.25402e+09
1.25421e+09
1.25481e+09
1.25573e+09
1.25483e+09
1.25338e+09
1.25334e+09
1.25328e+09
1.2532e+09
1.2531e+09
1.25298e+09
1.25284e+09
1.2527e+09
1.25257e+09
1.25245e+09
1.25241e+09
1.2525e+09
1.25283e+09
1.25356e+09
1.25459e+09
1.25339e+09
1.25218e+09
1.25213e+09
1.25207e+09
1.25198e+09
1.25188e+09
1.25174e+09
1.25159e+09
1.25142e+09
1.25126e+09
1.25113e+09
1.2511e+09
1.25122e+09
1.25161e+09
1.25238e+09
1.25345e+09
1.25219e+09
1.25116e+09
1.25111e+09
1.25104e+09
1.25094e+09
1.25083e+09
1.25071e+09
1.25059e+09
1.25045e+09
1.25032e+09
1.25021e+09
1.2502e+09
1.2503e+09
1.25062e+09
1.25131e+09
1.25233e+09
1.25117e+09
1.25032e+09
1.25028e+09
1.25022e+09
1.25014e+09
1.25005e+09
1.25e+09
1.25e+09
1.25e+09
1.25e+09
1.25e+09
1.25e+09
1.25e+09
1.25001e+09
1.25047e+09
1.2513e+09
1.25033e+09
1.25e+09
1.25e+09
1.25e+09
1.25e+09
1.25e+09
1.25e+09
1.25e+09
1.25e+09
1.25e+09
1.25e+09
1.25e+09
1.25e+09
1.25e+09
1.25e+09
1.25051e+09
1.25e+09
1.25e+09
1.25e+09
1.25e+09
1.25e+09
1.25e+09
1.25e+09
1.25e+09
1.25e+09
1.25e+09
1.25e+09
1.25e+09
1.25e+09
1.25e+09
1.25e+09
1.25004e+09
1.25e+09
1.25e+09
1.25e+09
1.25e+09
1.25e+09
1.25e+09
1.25e+09
1.25e+09
1.25e+09
1.25e+09
1.25e+09
1.25e+09
1.25e+09
1.25e+09
1.25e+09
1.25e+09
1.25e+09
1.25e+09
1.25e+09
1.25e+09
1.25e+09
1.25e+09
1.25e+09
1.25e+09
1.25e+09
1.25e+09
1.25e+09
1.25e+09
1.25e+09
1.25e+09
1.25e+09
1.25e+09
1.25e+09
1.25e+09
1.25e+09
1.25e+09
1.25e+09
1.25e+09
1.25e+09
1.25e+09
1.25e+09
1.25e+09
1.25e+09
1.25e+09
1.25e+09
1.25e+09
1.25e+09
1.25e+09
1.25e+09
1.25e+09
1.25e+09
1.25e+09
1.25e+09
1.25e+09
1.25e+09
1.25e+09
1.25e+09
1.25e+09
1.25e+09
1.25e+09
1.25e+09
1.25e+09
1.25e+09
1.25e+09
1.25e+09
1.25e+09
1.25e+09
1.25e+09
1.25e+09
1.25e+09
1.25e+09
1.25e+09
1.25e+09
1.25e+09
1.25e+09
1.25e+09
1.25e+09
1.25e+09
1.25e+09
1.25e+09
1.25e+09
1.25e+09
1.25e+09
1.25e+09
1.25e+09
1.25e+09
1.25e+09
1.25e+09
1.25e+09
1.25e+09
1.25e+09
1.25e+09
1.25e+09
1.25e+09
1.25e+09
1.25e+09
1.25e+09
1.25e+09
1.25e+09
1.25e+09
1.25e+09
1.25e+09
1.25e+09
1.25e+09
1.25e+09
1.25e+09
1.25e+09
1.25e+09
1.25e+09
1.25e+09
1.25e+09
1.25e+09
1.25e+09
1.25e+09
1.25e+09
1.25e+09
1.25e+09
1.25e+09
1.25e+09
1.25e+09
1.25e+09
1.25e+09
1.25e+09
1.25e+09
1.25e+09
1.25e+09
1.25e+09
1.25e+09
1.25e+09
1.25e+09
1.25e+09
1.25e+09
1.25e+09
1.25e+09
1.25e+09
1.25e+09
1.25e+09
1.25e+09
1.25e+09
1.25e+09
1.25e+09
1.25e+09
1.25e+09
1.25e+09
1.25e+09
1.25e+09
1.25e+09
1.25e+09
1.25e+09
1.25e+09
1.25e+09
1.25e+09
1.25e+09
1.25e+09
1.25e+09
1.25e+09
1.25e+09
1.25e+09
1.25e+09
1.25e+09
1.25e+09
1.25e+09
1.25e+09
1.25e+09
1.25e+09
1.25e+09
1.25e+09
1.25e+09
1.25e+09
1.25e+09
1.25e+09
1.25e+09
1.25e+09
1.25e+09
1.25e+09
1.25e+09
1.25e+09
1.25e+09
1.25e+09
1.25e+09
1.25e+09
1.25e+09
1.25e+09
1.25e+09
1.25e+09
1.25e+09
1.25e+09
1.25e+09
1.25e+09
1.25e+09
1.25e+09
1.25e+09
1.25e+09
1.25e+09
1.25e+09
1.25e+09
1.25e+09
1.25e+09
1.25e+09
1.25e+09
1.25e+09
1.25e+09
1.25e+09
1.25e+09
1.25e+09
1.25e+09
1.25e+09
1.25e+09
1.25e+09
1.25e+09
1.25e+09
1.25e+09
1.25e+09
1.25e+09
1.25e+09
1.25e+09
1.25e+09
1.25e+09
1.25e+09
1.25e+09
1.25e+09
1.25e+09
1.25e+09
1.25e+09
1.25e+09
1.25e+09
1.25e+09
1.25e+09
1.25e+09
1.25e+09
1.25e+09
1.25e+09
1.25e+09
1.25e+09
1.25e+09
1.25e+09
1.25e+09
1.25e+09
1.25e+09
1.25e+09
1.25e+09
1.25e+09
1.25e+09
1.25e+09
1.25e+09
1.25e+09
1.25e+09
1.25e+09
1.25e+09
1.25e+09
1.25e+09
1.25e+09
1.25e+09
1.25e+09
1.25e+09
1.25e+09
1.25e+09
1.25e+09
1.25e+09
1.25e+09
1.25e+09
1.25e+09
1.25e+09
1.25e+09
1.25e+09
1.25e+09
1.25e+09
1.25e+09
1.25e+09
1.25e+09
1.25e+09
1.25e+09
1.25e+09
1.25e+09
1.25e+09
1.25e+09
1.25e+09
1.25e+09
1.25e+09
1.25e+09
1.25e+09
1.25e+09
1.25e+09
1.25e+09
1.25e+09
1.25e+09
1.25e+09
1.25e+09
1.25e+09
1.25e+09
1.25e+09
1.25e+09
1.25e+09
1.25e+09
1.25e+09
1.25e+09
1.25e+09
1.25e+09
1.25e+09
1.25e+09
1.25e+09
1.25e+09
1.25e+09
1.25e+09
1.25e+09
1.25e+09
1.25e+09
1.25e+09
1.25e+09
1.25e+09
1.25e+09
1.25e+09
1.25e+09
1.25e+09
1.25e+09
1.25e+09
1.25e+09
1.25e+09
1.25e+09
1.25e+09
1.25e+09
1.25e+09
1.25e+09
1.25e+09
1.25e+09
1.25e+09
1.25e+09
1.25e+09
1.25e+09
1.25e+09
1.25e+09
1.25e+09
1.25e+09
1.25e+09
1.25e+09
1.25e+09
1.25e+09
1.25e+09
1.25e+09
1.25e+09
1.25e+09
1.25e+09
1.25e+09
1.25e+09
1.25e+09
1.25e+09
1.25e+09
1.25e+09
1.25e+09
1.25e+09
1.25e+09
1.25e+09
1.25e+09
1.25e+09
1.25e+09
1.25e+09
1.25e+09
1.25e+09
1.25e+09
1.25e+09
1.25e+09
1.25e+09
1.25e+09
1.25e+09
1.25e+09
1.25e+09
1.25e+09
1.25e+09
1.25e+09
1.25e+09
1.25e+09
1.25e+09
1.25e+09
1.25e+09
1.25e+09
1.25e+09
1.25e+09
1.25e+09
1.25e+09
1.25e+09
1.25e+09
1.25e+09
1.25e+09
1.25e+09
1.25e+09
1.25e+09
1.25e+09
1.25e+09
1.25e+09
1.25e+09
1.25e+09
1.25e+09
1.25e+09
1.25e+09
1.25e+09
1.25e+09
1.25e+09
1.25e+09
1.25e+09
1.25e+09
1.25e+09
1.25e+09
1.25e+09
1.25e+09
1.25e+09
1.25e+09
1.25e+09
1.25e+09
1.25e+09
1.25e+09
1.25e+09
1.25e+09
1.25e+09
1.25e+09
1.25e+09
1.25e+09
1.25e+09
1.25e+09
1.25e+09
1.25e+09
1.25e+09
1.25e+09
1.25e+09
1.25e+09
1.25e+09
1.25e+09
1.25e+09
1.25e+09
1.25e+09
1.25e+09
1.25e+09
1.25e+09
1.25e+09
1.25e+09
1.25e+09
1.25e+09
1.25e+09
1.25e+09
1.25e+09
1.25e+09
1.25e+09
1.25e+09
1.25e+09
1.25e+09
1.25e+09
1.25e+09
1.25e+09
1.25e+09
1.25e+09
1.25e+09
1.25e+09
1.25e+09
1.25e+09
1.25e+09
1.25e+09
1.25e+09
1.25e+09
1.25e+09
1.25e+09
1.25e+09
1.25e+09
1.25e+09
1.25e+09
1.25e+09
1.25e+09
1.25e+09
1.25e+09
1.25e+09
1.25e+09
1.25e+09
1.25e+09
1.25e+09
1.25e+09
1.25e+09
1.25e+09
1.25e+09
1.25e+09
1.25e+09
1.25e+09
1.25e+09
1.25e+09
1.25e+09
1.25e+09
1.25e+09
1.25e+09
1.25e+09
1.25e+09
1.25e+09
1.25e+09
1.25e+09
1.25e+09
1.25e+09
1.25e+09
1.25e+09
1.25e+09
1.25e+09
1.25e+09
1.25e+09
1.25e+09
1.25e+09
1.25e+09
1.25e+09
1.25e+09
1.25e+09
1.25e+09
1.25e+09
1.25e+09
1.25e+09
1.25e+09
1.25e+09
1.25e+09
1.25e+09
1.25e+09
1.25e+09
1.25e+09
1.25e+09
1.25e+09
1.25e+09
1.25e+09
1.25e+09
1.25e+09
1.25e+09
1.25e+09
1.25e+09
1.25e+09
1.25e+09
1.25e+09
1.25e+09
1.25e+09
1.25e+09
1.25e+09
1.25e+09
1.25e+09
1.25e+09
1.25e+09
1.25e+09
1.25e+09
1.25e+09
1.25e+09
1.25e+09
1.25e+09
1.25e+09
1.25e+09
1.25e+09
1.25e+09
1.25e+09
1.25e+09
1.25e+09
1.25e+09
1.25e+09
1.25e+09
1.25e+09
1.25e+09
1.25e+09
1.25e+09
1.25e+09
1.25e+09
1.25e+09
1.25e+09
1.25e+09
1.25e+09
1.25e+09
1.25e+09
1.25e+09
1.25e+09
1.25e+09
1.25e+09
1.25e+09
1.25e+09
1.25e+09
1.25e+09
1.25e+09
1.25e+09
1.25e+09
1.25e+09
1.25e+09
1.25e+09
1.25e+09
1.25e+09
1.25e+09
1.25e+09
1.25e+09
1.25e+09
1.25e+09
1.25e+09
1.25e+09
1.25e+09
1.25e+09
1.25e+09
1.25e+09
1.25e+09
1.25e+09
1.25e+09
1.25e+09
1.25e+09
1.25e+09
1.25e+09
1.25e+09
1.25e+09
1.25e+09
1.25e+09
1.25e+09
1.25e+09
1.25e+09
1.25e+09
1.25e+09
1.25e+09
1.25e+09
1.25e+09
1.25e+09
1.25e+09
1.25e+09
1.25e+09
1.25e+09
1.25e+09
1.25e+09
1.25e+09
1.25e+09
1.25e+09
1.25e+09
1.25e+09
1.25e+09
1.25e+09
1.25e+09
1.25e+09
1.25e+09
1.25e+09
1.25e+09
1.25e+09
1.25e+09
1.25e+09
1.25e+09
1.25e+09
1.25e+09
1.25e+09
1.25e+09
1.25e+09
1.25e+09
1.25e+09
1.25e+09
1.25e+09
1.25e+09
1.25e+09
1.25e+09
1.25e+09
1.25e+09
1.25e+09
1.25e+09
1.25e+09
1.25e+09
1.25e+09
1.25e+09
1.25e+09
1.25e+09
1.25e+09
1.25e+09
1.25e+09
1.25e+09
1.25e+09
1.25e+09
1.25e+09
1.25e+09
1.25e+09
1.25e+09
1.25e+09
1.25e+09
1.25e+09
1.25e+09
1.25e+09
1.25e+09
1.25e+09
1.25e+09
1.25e+09
1.25e+09
1.25e+09
1.25e+09
1.25e+09
1.25e+09
1.25e+09
1.25e+09
1.25e+09
1.25e+09
1.25e+09
1.25e+09
1.25e+09
1.25e+09
1.25e+09
1.25e+09
1.25e+09
1.25e+09
1.25e+09
1.25e+09
1.25e+09
1.25e+09
1.25e+09
1.25e+09
1.25e+09
1.25e+09
1.25e+09
1.25e+09
1.25e+09
1.25e+09
1.25e+09
1.25e+09
1.25e+09
1.25e+09
1.25e+09
1.25e+09
1.25e+09
1.25e+09
1.25e+09
1.25e+09
1.25e+09
1.25e+09
1.25e+09
1.25e+09
1.25e+09
1.25e+09
1.25e+09
1.25e+09
1.25e+09
1.25e+09
1.25e+09
1.25e+09
1.25e+09
1.25e+09
1.25e+09
1.25e+09
1.25e+09
1.25e+09
1.25e+09
1.25e+09
1.25e+09
1.25e+09
1.25e+09
1.25e+09
1.25e+09
1.25e+09
1.25e+09
1.25e+09
1.25e+09
1.25e+09
1.25e+09
1.25e+09
1.25e+09
1.25e+09
1.25e+09
1.25e+09
1.25e+09
1.25e+09
1.25e+09
1.25e+09
1.25e+09
)
;

boundaryField
{
    wireUpstream
    {
        type            calculated;
        value           uniform 1.25e+09;
    }
    wireDownstream
    {
        type            calculated;
        value           nonuniform List<scalar> 
16
(
1.2777e+09
1.27774e+09
1.27782e+09
1.2779e+09
1.27801e+09
1.27811e+09
1.27821e+09
1.27824e+09
1.27818e+09
1.27796e+09
1.27755e+09
1.27681e+09
1.2758e+09
1.27493e+09
1.27447e+09
1.27767e+09
)
;
    }
    wireTopContact
    {
        type            calculated;
        value           nonuniform List<scalar> 
122
(
1.2744e+09
1.27443e+09
1.27445e+09
1.27447e+09
1.27449e+09
1.27452e+09
1.27454e+09
1.27456e+09
1.27459e+09
1.27461e+09
1.27463e+09
1.27465e+09
1.27468e+09
1.2747e+09
1.27472e+09
1.27474e+09
1.27477e+09
1.27479e+09
1.27481e+09
1.27484e+09
1.27486e+09
1.27488e+09
1.2749e+09
1.27493e+09
1.27495e+09
1.27497e+09
1.27499e+09
1.27502e+09
1.27504e+09
1.27506e+09
1.27509e+09
1.27511e+09
1.27513e+09
1.27515e+09
1.27518e+09
1.2752e+09
1.27522e+09
1.27524e+09
1.27527e+09
1.27529e+09
1.27531e+09
1.27534e+09
1.27536e+09
1.27538e+09
1.2754e+09
1.27543e+09
1.27545e+09
1.27547e+09
1.27547e+09
1.2754e+09
1.2752e+09
1.27479e+09
1.27415e+09
1.27332e+09
1.27235e+09
1.27123e+09
1.27001e+09
1.26875e+09
1.26745e+09
1.26611e+09
1.26474e+09
1.26337e+09
1.262e+09
1.26065e+09
1.25933e+09
1.25807e+09
1.25686e+09
1.2557e+09
1.25457e+09
1.25345e+09
1.25234e+09
1.25132e+09
1.25052e+09
1.25004e+09
1.25e+09
1.25e+09
1.25e+09
1.25e+09
1.25e+09
1.25e+09
1.25e+09
1.25e+09
1.25e+09
1.25e+09
1.25e+09
1.25e+09
1.25e+09
1.25e+09
1.25e+09
1.25e+09
1.25e+09
1.25e+09
1.25e+09
1.25e+09
1.25e+09
1.25e+09
1.25e+09
1.25e+09
1.25e+09
1.25e+09
1.25e+09
1.25e+09
1.25e+09
1.25e+09
1.25e+09
1.25e+09
1.25e+09
1.25e+09
1.25e+09
1.25e+09
1.25e+09
1.25e+09
1.25e+09
1.25e+09
1.25e+09
1.25e+09
1.25e+09
1.25e+09
1.25e+09
1.25e+09
1.25e+09
1.27438e+09
)
;
    }
    front
    {
        type            wedge;
    }
    back
    {
        type            wedge;
    }
}


// ************************************************************************* //
