/*--------------------------------*- C++ -*----------------------------------*\
| =========                 |                                                 |
| \\      /  F ield         | OpenFOAM: The Open Source CFD Toolbox           |
|  \\    /   O peration     | Version:  4.1                                   |
|   \\  /    A nd           | Web:      www.OpenFOAM.org                      |
|    \\/     M anipulation  |                                                 |
\*---------------------------------------------------------------------------*/
FoamFile
{
    version     2.0;
    format      ascii;
    class       volVectorField;
    location    "0.000350";
    object      cellDisplacement;
}
// * * * * * * * * * * * * * * * * * * * * * * * * * * * * * * * * * * * * * //

dimensions      [0 1 0 0 0 0 0];

internalField   nonuniform List<vector> 
3072
(
(0 -7.7523388e-05 -2.5801615e-08)
(0 -0.00017613743 -5.2318727e-08)
(0 -0.0002179683 -7.2275104e-08)
(0 -0.00022792938 -7.3604346e-08)
(0 -0.00022042672 -5.0377642e-08)
(0 -0.0002031711 -3.8510279e-08)
(0 -0.00017956255 -2.8536028e-08)
(0 -0.00015135113 -3.1888714e-08)
(0 -0.00011986966 -2.5819386e-08)
(0 -8.6156388e-05 -1.0102204e-08)
(0 -5.0118831e-05 -5.2676841e-09)
(0 -1.3100571e-05 9.3192305e-09)
(0 2.4113708e-05 4.830354e-08)
(0 6.0891455e-05 1.0001397e-07)
(0 9.6415438e-05 1.4077184e-07)
(0 0.00013041525 1.4545964e-07)
(0 0.00016207515 1.4743172e-07)
(0 0.00019103153 1.5502169e-07)
(0 0.00021663714 1.6911347e-07)
(0 0.00023850327 1.9660356e-07)
(0 0.00025616523 2.3738579e-07)
(0 0.00026938252 2.7930097e-07)
(0 0.00027785229 3.1227837e-07)
(0 0.00028152671 3.4526216e-07)
(0 -6.2912687e-05 -1.5014925e-05)
(0 -0.00014738944 -2.8530857e-05)
(0 -0.00018569557 -3.2876146e-05)
(0 -0.00019613013 -3.2768364e-05)
(0 -0.00019065786 -3.0403394e-05)
(0 -0.00017635106 -2.6775493e-05)
(0 -0.00015627792 -2.2391899e-05)
(0 -0.0001320151 -1.7547782e-05)
(0 -0.00010475577 -1.2329569e-05)
(0 -7.5558544e-05 -6.925998e-06)
(0 -4.4236405e-05 -1.4404893e-06)
(0 -1.1915393e-05 4.0379068e-06)
(0 2.071928e-05 9.3955964e-06)
(0 5.2996551e-05 1.4558258e-05)
(0 8.4150442e-05 1.9393704e-05)
(0 0.00011383648 2.3851996e-05)
(0 0.00014164182 2.7807065e-05)
(0 0.00016716578 3.12579e-05)
(0 0.00018980807 3.4149601e-05)
(0 0.00020929128 3.6469115e-05)
(0 0.00022508813 3.8183963e-05)
(0 0.00023696698 3.9262355e-05)
(0 0.00024467546 3.9663861e-05)
(0 0.00024809716 3.9400125e-05)
(0 -5.1170057e-05 -2.8823779e-05)
(0 -0.00012088891 -5.5881996e-05)
(0 -0.00015391008 -6.5073674e-05)
(0 -0.00016368395 -6.5177389e-05)
(0 -0.00015980687 -6.0623004e-05)
(0 -0.00014834336 -5.3461098e-05)
(0 -0.00013180623 -4.4745202e-05)
(0 -0.00011162866 -3.4984089e-05)
(0 -8.8943219e-05 -2.4532545e-05)
(0 -6.4253564e-05 -1.3630101e-05)
(0 -3.7982157e-05 -2.5501588e-06)
(0 -1.0679521e-05 8.4992177e-06)
(0 1.7093973e-05 1.930385e-05)
(0 4.4594641e-05 2.9667091e-05)
(0 7.0972106e-05 3.9420377e-05)
(0 9.6142277e-05 4.8397119e-05)
(0 0.00011952199 5.6423232e-05)
(0 0.00014113454 6.334601e-05)
(0 0.00016045473 6.9129431e-05)
(0 0.00017719694 7.374202e-05)
(0 0.00019079281 7.7111639e-05)
(0 0.00020105219 7.9182265e-05)
(0 0.0002077468 7.988396e-05)
(0 0.0002107343 7.925069e-05)
(0 -4.0982852e-05 -4.2326588e-05)
(0 -9.5968355e-05 -8.2525305e-05)
(0 -0.00012252903 -9.6638596e-05)
(0 -0.00013082921 -9.7130065e-05)
(0 -0.00012812196 -9.0530671e-05)
(0 -0.00011928433 -7.9973092e-05)
(0 -0.00010625852 -6.6999657e-05)
(0 -9.0284393e-05 -5.2389981e-05)
(0 -7.2218526e-05 -3.664786e-05)
(0 -5.252336e-05 -2.0261802e-05)
(0 -3.1403247e-05 -3.5550109e-06)
(0 -9.4256986e-06 1.3106364e-05)
(0 1.3056089e-05 2.9430923e-05)
(0 3.5369716e-05 4.5087332e-05)
(0 5.6769734e-05 5.9785344e-05)
(0 7.6992069e-05 7.3342095e-05)
(0 9.5890405e-05 8.5425372e-05)
(0 0.00011342224 9.5930601e-05)
(0 0.00012912743 0.00010465289)
(0 0.00014295593 0.00011157283)
(0 0.00015423092 0.00011659824)
(0 0.00016268925 0.00011962503)
(0 0.00016830735 0.00012060843)
(0 0.00017082757 0.00011957824)
(0 -3.1476546e-05 -5.6240443e-05)
(0 -7.2096593e-05 -0.00010883894)
(0 -9.1778289e-05 -0.00012756869)
(0 -9.8080813e-05 -0.00012830762)
(0 -9.6256627e-05 -0.00011964252)
(0 -8.9861945e-05 -0.00010571638)
(0 -8.0336706e-05 -8.8565175e-05)
(0 -6.8579926e-05 -6.9259554e-05)
(0 -5.5176701e-05 -4.843729e-05)
(0 -4.0296788e-05 -2.6708042e-05)
(0 -2.4441888e-05 -4.5322013e-06)
(0 -7.9594743e-06 1.7628097e-05)
(0 8.940215e-06 3.9386248e-05)
(0 2.5726546e-05 6.0297663e-05)
(0 4.1796784e-05 7.9990258e-05)
(0 5.7007389e-05 9.8103616e-05)
(0 7.1098442e-05 0.000114308)
(0 8.4385973e-05 0.00012838337)
(0 9.6434315e-05 0.00014005605)
(0 0.00010706856 0.00014932411)
(0 0.0001159456 0.00015599274)
(0 0.00012262507 0.00015999608)
(0 0.00012699211 0.00016126673)
(0 0.00012903199 0.00015984991)
(0 -2.1984446e-05 -7.1353468e-05)
(0 -4.8625516e-05 -0.00013527641)
(0 -6.1326218e-05 -0.00015776938)
(0 -6.5400798e-05 -0.00015836821)
(0 -6.4267735e-05 -0.00014752941)
(0 -6.0107001e-05 -0.00013029937)
(0 -5.3925354e-05 -0.00010912815)
(0 -4.6231936e-05 -8.5308821e-05)
(0 -3.7701127e-05 -5.9650494e-05)
(0 -2.7784874e-05 -3.2803678e-05)
(0 -1.7142726e-05 -5.4178415e-06)
(0 -6.2546965e-06 2.201409e-05)
(0 4.926561e-06 4.8987518e-05)
(0 1.6058514e-05 7.4966744e-05)
(0 2.6718828e-05 9.9482934e-05)
(0 3.6730578e-05 0.00012210675)
(0 4.6119298e-05 0.00014238018)
(0 5.4999601e-05 0.00015996935)
(0 6.3086829e-05 0.00017464211)
(0 7.0440091e-05 0.00018624644)
(0 7.6740966e-05 0.00019459136)
(0 8.1426668e-05 0.00019960139)
(0 8.4577251e-05 0.00020119572)
(0 8.6103276e-05 0.00019943121)
(0 -1.1815801e-05 -8.8468592e-05)
(0 -2.4894052e-05 -0.00016199634)
(0 -3.091014e-05 -0.00018709651)
(0 -3.2850248e-05 -0.00018697608)
(0 -3.2348811e-05 -0.00017379558)
(0 -3.0477432e-05 -0.00015331604)
(0 -2.7564195e-05 -0.00012829717)
(0 -2.3923871e-05 -0.00010021701)
(0 -1.9658717e-05 -6.9976537e-05)
(0 -1.4592711e-05 -3.8405423e-05)
(0 -9.2350207e-06 -6.1502835e-06)
(0 -3.8507943e-06 2.6204493e-05)
(0 1.6872186e-06 5.8067013e-05)
(0 7.2021427e-06 8.8840782e-05)
(0 1.2437097e-05 0.00011790003)
(0 1.7359664e-05 0.00014474517)
(0 2.1897614e-05 0.00016887676)
(0 2.6267304e-05 0.00018991365)
(0 3.0368193e-05 0.00020752205)
(0 3.4182059e-05 0.00022143112)
(0 3.7631289e-05 0.00023147977)
(0 4.0243418e-05 0.00023754094)
(0 4.1945684e-05 0.0002395353)
(0 4.2834419e-05 0.0002374976)
(0 -6.1101274e-08 -0.00010847585)
(0 9.1219569e-10 -0.00018844941)
(0 6.5912906e-08 -0.00021443765)
(0 -2.5318024e-08 -0.00021288522)
(0 -1.5763465e-07 -0.00019724629)
(0 -2.9137573e-07 -0.00017370036)
(0 -3.6650175e-07 -0.00014519422)
(0 -3.3511472e-07 -0.0001132991)
(0 -3.4041838e-07 -7.9027682e-05)
(0 4.0379408e-09 -4.3213962e-05)
(0 2.8005074e-07 -6.5795856e-06)
(0 4.1293711e-07 3.0215616e-05)
(0 5.6406718e-07 6.6500652e-05)
(0 6.4596791e-07 0.00010160406)
(0 5.889383e-07 0.00013482525)
(0 4.056439e-07 0.00016559121)
(0 1.7097849e-07 0.00019336201)
(0 1.4339893e-08 0.00021765283)
(0 -7.414357e-08 0.00023806219)
(0 5.3699444e-09 0.00025427529)
(0 2.6648019e-07 0.00026604879)
(0 3.7560141e-07 0.0002732186)
(0 3.5672398e-07 0.00027569024)
(0 2.6347886e-07 0.00027346905)
(0 -6.2904082e-05 1.4960498e-05)
(0 -0.00014739033 2.839861e-05)
(0 -0.00018568542 3.2702647e-05)
(0 -0.00019607866 3.2572651e-05)
(0 -0.00019068941 3.0224299e-05)
(0 -0.00017641087 2.6627941e-05)
(0 -0.00015634022 2.2252726e-05)
(0 -0.00013208558 1.7404155e-05)
(0 -0.00010474279 1.2249426e-05)
(0 -7.5567002e-05 6.8844334e-06)
(0 -4.450792e-05 1.3985259e-06)
(0 -1.2340049e-05 -4.0553618e-06)
(0 2.0195533e-05 -9.3001387e-06)
(0 5.2373e-05 -1.4357927e-05)
(0 8.3587897e-05 -1.9155312e-05)
(0 0.0001134986 -2.3597956e-05)
(0 0.00014138825 -2.7616239e-05)
(0 0.00016696496 -3.109419e-05)
(0 0.00018957602 -3.4009195e-05)
(0 0.00020907579 -3.6283547e-05)
(0 0.00022487453 -3.7913298e-05)
(0 0.00023678277 -3.8904751e-05)
(0 0.00024446625 -3.9229658e-05)
(0 0.0002478662 -3.8887334e-05)
(0 -4.8818498e-05 -3.3284311e-08)
(0 -0.00011914892 -6.8534277e-08)
(0 -0.00015315435 -8.5053226e-08)
(0 -0.0001635499 -9.2732813e-08)
(0 -0.00016009955 -8.8212034e-08)
(0 -0.00014880654 -7.9370204e-08)
(0 -0.00013232539 -7.1895235e-08)
(0 -0.00011209319 -7.0014324e-08)
(0 -8.9311672e-05 -5.4319828e-08)
(0 -6.4773956e-05 -1.6868118e-08)
(0 -3.8473886e-05 -2.8465235e-08)
(0 -1.1095619e-05 -1.1545312e-08)
(0 1.684424e-05 6.272836e-08)
(0 4.4493642e-05 9.6188697e-08)
(0 7.1121787e-05 1.296372e-07)
(0 9.6647449e-05 1.4911288e-07)
(0 0.00012054732 1.297278e-07)
(0 0.00014254356 1.3508127e-07)
(0 0.00016214373 1.3401617e-07)
(0 0.00017914701 1.7675863e-07)
(0 0.00019300116 2.4385601e-07)
(0 0.00020347711 3.1260893e-07)
(0 0.00021029829 3.6424714e-07)
(0 0.00021334612 4.1532944e-07)
(0 -3.7781848e-05 -1.4038161e-05)
(0 -9.3587668e-05 -2.8494307e-05)
(0 -0.00012170827 -3.3732648e-05)
(0 -0.00013100332 -3.403182e-05)
(0 -0.00012887749 -3.1777982e-05)
(0 -0.00012030133 -2.8024708e-05)
(0 -0.00010728817 -2.3449776e-05)
(0 -9.1180012e-05 -1.8332961e-05)
(0 -7.2865758e-05 -1.2805432e-05)
(0 -5.3092475e-05 -7.0829816e-06)
(0 -3.1928403e-05 -1.3038284e-06)
(0 -9.6212063e-06 4.4305275e-06)
(0 1.3323015e-05 1.0011044e-05)
(0 3.6091869e-05 1.5329851e-05)
(0 5.789226e-05 2.0316704e-05)
(0 7.8726039e-05 2.4884817e-05)
(0 9.8115244e-05 2.8929261e-05)
(0 0.00011613275 3.2332253e-05)
(0 0.0001322999 3.5206239e-05)
(0 0.00014645832 3.7503787e-05)
(0 0.00015796284 3.9208631e-05)
(0 0.0001667086 4.0246318e-05)
(0 0.0001724038 4.0600903e-05)
(0 0.00017491819 4.0283923e-05)
(0 -2.816976e-05 -2.7263255e-05)
(0 -6.948683e-05 -5.5828358e-05)
(0 -9.0700188e-05 -6.6534705e-05)
(0 -9.8091211e-05 -6.7398363e-05)
(0 -9.6827417e-05 -6.3052602e-05)
(0 -9.066613e-05 -5.5758735e-05)
(0 -8.1099791e-05 -4.67415e-05)
(0 -6.9131459e-05 -3.6528493e-05)
(0 -5.5573711e-05 -2.554669e-05)
(0 -4.0581105e-05 -1.4114806e-05)
(0 -2.4589062e-05 -2.5268689e-06)
(0 -7.6477896e-06 8.9915339e-06)
(0 9.9402248e-06 2.0225971e-05)
(0 2.736662e-05 3.093517e-05)
(0 4.3961331e-05 4.0951867e-05)
(0 5.9597884e-05 5.0118979e-05)
(0 7.4194954e-05 5.8271941e-05)
(0 8.7987953e-05 6.5240886e-05)
(0 0.0001004395 7.1008807e-05)
(0 0.0001115 7.5572687e-05)
(0 0.00012063673 7.8909464e-05)
(0 0.00012743334 8.089297e-05)
(0 0.00013188051 8.151309e-05)
(0 0.00013382276 8.0788214e-05)
(0 -1.9133717e-05 -4.0451245e-05)
(0 -4.6275241e-05 -8.2378549e-05)
(0 -6.0215462e-05 -9.8246951e-05)
(0 -6.5225782e-05 -9.9653056e-05)
(0 -6.4525121e-05 -9.3282163e-05)
(0 -6.0605659e-05 -8.2592765e-05)
(0 -5.4371143e-05 -6.9253197e-05)
(0 -4.6469998e-05 -5.4178892e-05)
(0 -3.7535946e-05 -3.7886006e-05)
(0 -2.7524752e-05 -2.092758e-05)
(0 -1.6759761e-05 -3.6834965e-06)
(0 -5.3093001e-06 1.3518544e-05)
(0 6.537237e-06 3.035649e-05)
(0 1.8257434e-05 4.6468743e-05)
(0 2.9333698e-05 6.1550967e-05)
(0 3.9695119e-05 7.5352236e-05)
(0 4.9293005e-05 8.762476e-05)
(0 5.8570515e-05 9.8217072e-05)
(0 6.7116453e-05 0.00010690191)
(0 7.4856129e-05 0.00011378805)
(0 8.1322189e-05 0.00011873068)
(0 8.608063e-05 0.0001216574)
(0 8.9169202e-05 0.00012253397)
(0 9.0488667e-05 0.00012139601)
(0 -1.0005663e-05 -5.4378971e-05)
(0 -2.336275e-05 -0.00010868708)
(0 -3.0082361e-05 -0.00012896694)
(0 -3.2562903e-05 -0.0001305)
(0 -3.2316477e-05 -0.00012202992)
(0 -3.0516767e-05 -0.00010797815)
(0 -2.7509342e-05 -9.0529737e-05)
(0 -2.3633485e-05 -7.0852264e-05)
(0 -1.9138047e-05 -4.958101e-05)
(0 -1.3928206e-05 -2.7365073e-05)
(0 -8.3145198e-06 -4.7425372e-06)
(0 -2.4934734e-06 1.7887926e-05)
(0 3.5064878e-06 4.0086259e-05)
(0 9.3809975e-06 6.1361762e-05)
(0 1.4772246e-05 8.139391e-05)
(0 1.9658946e-05 9.9819708e-05)
(0 2.4234094e-05 0.00011620456)
(0 2.87711e-05 0.00013037275)
(0 3.3067531e-05 0.00014209652)
(0 3.7183946e-05 0.00015136047)
(0 4.0867527e-05 0.0001579437)
(0 4.3476664e-05 0.00016185823)
(0 4.5029135e-05 0.00016301692)
(0 4.5669761e-05 0.00016150203)
(0 -6.2488761e-08 -7.001947e-05)
(0 5.670339e-08 -0.00013520068)
(0 1.5896437e-07 -0.00015873173)
(0 -1.1152894e-08 -0.00015980545)
(0 -2.3476829e-07 -0.0001490515)
(0 -4.1789897e-07 -0.00013169027)
(0 -5.0170551e-07 -0.00011029783)
(0 -4.0729553e-07 -8.6226817e-05)
(0 -4.2855765e-07 -6.0308271e-05)
(0 4.1378605e-09 -3.3222596e-05)
(0 4.0039387e-07 -5.5901387e-06)
(0 7.0035292e-07 2.2096595e-05)
(0 9.7983204e-07 4.9311273e-05)
(0 1.0974409e-06 7.5494385e-05)
(0 9.1479797e-07 0.00010018954)
(0 4.7673631e-07 0.00012292239)
(0 3.1640997e-08 0.00014327522)
(0 -2.1891245e-07 0.00016093418)
(0 -2.6758244e-07 0.00017562745)
(0 -1.9333153e-08 0.00018719726)
(0 4.7461957e-07 0.00019548227)
(0 6.4168981e-07 0.00020042742)
(0 5.9681902e-07 0.00020196184)
(0 4.213843e-07 0.00020014406)
(0 1.1784794e-05 -8.8420323e-05)
(0 2.5121041e-05 -0.00016187386)
(0 3.1320553e-05 -0.0001869289)
(0 3.3005513e-05 -0.0001867955)
(0 3.2185685e-05 -0.00017361239)
(0 2.9901672e-05 -0.00015312493)
(0 2.6797004e-05 -0.00012811808)
(0 2.3134018e-05 -0.0001000664)
(0 1.906648e-05 -6.9886654e-05)
(0 1.4728829e-05 -3.8362725e-05)
(0 1.0038459e-05 -6.128434e-06)
(0 5.0511917e-06 2.6227344e-05)
(0 -1.0027667e-07 5.8095764e-05)
(0 -5.4316823e-06 8.8879123e-05)
(0 -1.0905518e-05 0.00011793321)
(0 -1.639074e-05 0.00014476708)
(0 -2.1669798e-05 0.00016890051)
(0 -2.6462978e-05 0.00018993611)
(0 -3.0656955e-05 0.00020754492)
(0 -3.4166487e-05 0.00022145628)
(0 -3.690431e-05 0.00023149211)
(0 -3.9213127e-05 0.00023753771)
(0 -4.1003249e-05 0.00023952265)
(0 -4.2156812e-05 0.00023746993)
(0 -5.1158273e-05 2.876472e-05)
(0 -0.00012083787 5.5765047e-05)
(0 -0.00015381557 6.4927278e-05)
(0 -0.00016345764 6.5011573e-05)
(0 -0.00015977358 6.0466334e-05)
(0 -0.00014830126 5.3322927e-05)
(0 -0.00013170382 4.4623044e-05)
(0 -0.00011149316 3.4872215e-05)
(0 -8.8831053e-05 2.4423832e-05)
(0 -6.4531286e-05 1.3571981e-05)
(0 -3.8606093e-05 2.4812804e-06)
(0 -1.1633861e-05 -8.5518199e-06)
(0 1.5869537e-05 -1.9291111e-05)
(0 4.3216946e-05 -2.9591644e-05)
(0 6.9726582e-05 -3.9327737e-05)
(0 9.5156817e-05 -4.8333159e-05)
(0 0.0001189693 -5.6442194e-05)
(0 0.00014075132 -6.3481001e-05)
(0 0.00016014878 -6.93491e-05)
(0 0.00017686774 -7.3974428e-05)
(0 0.00019047591 -7.7291723e-05)
(0 0.0002008097 -7.929439e-05)
(0 0.0002074597 -7.9938661e-05)
(0 0.00021042195 -7.9226618e-05)
(0 -3.7766955e-05 1.3970682e-05)
(0 -9.3553763e-05 2.8368185e-05)
(0 -0.00012165461 3.3584646e-05)
(0 -0.00013088637 3.3875984e-05)
(0 -0.00012887396 3.1584947e-05)
(0 -0.00012026775 2.7843638e-05)
(0 -0.00010721161 2.3284199e-05)
(0 -9.1087084e-05 1.8158098e-05)
(0 -7.2766965e-05 1.2712893e-05)
(0 -5.3222671e-05 7.0438045e-06)
(0 -3.2324458e-05 1.2623975e-06)
(0 -1.0232748e-05 -4.4544578e-06)
(0 1.2501492e-05 -9.9382211e-06)
(0 3.5197112e-05 -1.5205215e-05)
(0 5.7049798e-05 -2.0173673e-05)
(0 7.8106432e-05 -2.4742962e-05)
(0 9.7742094e-05 -2.8852908e-05)
(0 0.00011588808 -3.2325623e-05)
(0 0.0001321246 -3.5279051e-05)
(0 0.00014624127 -3.7553479e-05)
(0 0.00015778471 -3.914963e-05)
(0 0.00016659806 -4.0084952e-05)
(0 0.00017223708 -4.0336965e-05)
(0 0.00017473967 -3.9916063e-05)
(0 -2.7108354e-05 -3.2658684e-08)
(0 -6.8736701e-05 -5.5432029e-08)
(0 -9.0547675e-05 -6.0866095e-08)
(0 -9.8267449e-05 -6.2360333e-08)
(0 -9.7269071e-05 -8.7317206e-08)
(0 -9.1165566e-05 -8.1277654e-08)
(0 -8.1495476e-05 -6.9534154e-08)
(0 -6.9411965e-05 -7.2881634e-08)
(0 -5.5862527e-05 -4.2785214e-08)
(0 -4.1054226e-05 -8.0336312e-09)
(0 -2.5288048e-05 -2.5577974e-08)
(0 -8.344782e-06 -2.4284974e-08)
(0 9.4275586e-06 2.2776207e-08)
(0 2.7052922e-05 3.9038787e-08)
(0 4.3874362e-05 2.8786046e-08)
(0 5.9866521e-05 6.2011213e-08)
(0 7.4834353e-05 5.4535199e-08)
(0 8.8933805e-05 4.9067104e-08)
(0 0.00010150469 -3.6417334e-08)
(0 0.00011264034 -1.6810039e-08)
(0 0.00012179582 4.4991152e-08)
(0 0.0001286592 1.0509159e-07)
(0 0.00013309229 1.6825246e-07)
(0 0.00013497894 2.2989789e-07)
(0 -1.7783074e-05 -1.3534511e-05)
(0 -4.5216015e-05 -2.8462339e-05)
(0 -5.9845358e-05 -3.4271899e-05)
(0 -6.5337436e-05 -3.4903998e-05)
(0 -6.4902883e-05 -3.2779033e-05)
(0 -6.1133439e-05 -2.9025369e-05)
(0 -5.4808613e-05 -2.4360829e-05)
(0 -4.6802549e-05 -1.9074699e-05)
(0 -3.7683473e-05 -1.3293962e-05)
(0 -2.7842053e-05 -7.3368319e-06)
(0 -1.7369114e-05 -1.3391182e-06)
(0 -5.8026104e-06 4.6192668e-06)
(0 6.4395962e-06 1.0424954e-05)
(0 1.8515885e-05 1.592026e-05)
(0 2.9894801e-05 2.1058431e-05)
(0 4.0555733e-05 2.5693433e-05)
(0 5.0430017e-05 2.982981e-05)
(0 6.0102181e-05 3.3267436e-05)
(0 6.8961161e-05 3.6142124e-05)
(0 7.6906854e-05 3.8435382e-05)
(0 8.3371227e-05 4.0132758e-05)
(0 8.8221383e-05 4.1140876e-05)
(0 9.1265113e-05 4.1472739e-05)
(0 9.2495196e-05 4.1116889e-05)
(0 -8.9591392e-06 -2.6500373e-05)
(0 -2.2411754e-05 -5.5595496e-05)
(0 -2.9554932e-05 -6.7027756e-05)
(0 -3.2433846e-05 -6.8431638e-05)
(0 -3.2391537e-05 -6.4250821e-05)
(0 -3.0691917e-05 -5.6950177e-05)
(0 -2.7607767e-05 -4.780281e-05)
(0 -2.3554717e-05 -3.7421165e-05)
(0 -1.8953431e-05 -2.6128677e-05)
(0 -1.4014317e-05 -1.4471531e-05)
(0 -8.7042644e-06 -2.6355149e-06)
(0 -2.7211682e-06 9.1927008e-06)
(0 3.6340442e-06 2.0743625e-05)
(0 9.7970978e-06 3.176011e-05)
(0 1.5381686e-05 4.2042316e-05)
(0 2.0383546e-05 5.133455e-05)
(0 2.5135281e-05 5.9599544e-05)
(0 2.9969281e-05 6.6663545e-05)
(0 3.454652e-05 7.24332e-05)
(0 3.8935335e-05 7.6992118e-05)
(0 4.2703968e-05 8.0309673e-05)
(0 4.531538e-05 8.2242276e-05)
(0 4.6838644e-05 8.283828e-05)
(0 4.7363899e-05 8.2054682e-05)
(0 6.9933842e-08 -3.9773648e-05)
(0 3.6510674e-07 -8.2089411e-05)
(0 5.7630291e-07 -9.8461572e-05)
(0 4.2596578e-07 -0.00010020263)
(0 1.6672137e-07 -9.3946985e-05)
(0 -9.9893487e-08 -8.3230481e-05)
(0 -1.5793662e-07 -6.9835608e-05)
(0 -1.1711707e-08 -5.4725787e-05)
(0 3.036821e-08 -3.8300245e-05)
(0 8.4081396e-08 -2.1205945e-05)
(0 2.1600508e-07 -3.8105938e-06)
(0 5.9453377e-07 1.3601889e-05)
(0 9.8340712e-07 3.0645896e-05)
(0 1.1167114e-06 4.6962679e-05)
(0 7.8561616e-07 6.2259029e-05)
(0 9.446591e-08 7.6221113e-05)
(0 -5.5694007e-07 8.8608685e-05)
(0 -7.7154871e-07 9.9269527e-05)
(0 -5.7305779e-07 0.00010799634)
(0 -4.1228511e-08 0.00011492202)
(0 6.0439991e-07 0.00011984842)
(0 8.3601129e-07 0.00012274496)
(0 7.774919e-07 0.00012358931)
(0 5.3741897e-07 0.00012240319)
(0 1.0125309e-05 -5.4348055e-05)
(0 2.3979842e-05 -0.00010860636)
(0 3.101719e-05 -0.00012885642)
(0 3.3135677e-05 -0.00013037387)
(0 3.2426616e-05 -0.00012189252)
(0 3.0032875e-05 -0.00010782887)
(0 2.681514e-05 -9.038241e-05)
(0 2.3036566e-05 -7.073891e-05)
(0 1.8969921e-05 -4.9521808e-05)
(0 1.4259732e-05 -2.7378568e-05)
(0 9.2477653e-06 -4.7803087e-06)
(0 4.0841786e-06 1.7848605e-05)
(0 -1.2757942e-06 4.0050053e-05)
(0 -6.9184205e-06 6.1342594e-05)
(0 -1.2842767e-05 8.1380457e-05)
(0 -1.8892608e-05 9.9792729e-05)
(0 -2.4645101e-05 0.0001161762)
(0 -2.967546e-05 0.0001303563)
(0 -3.3877883e-05 0.00014210274)
(0 -3.7234589e-05 0.00015138373)
(0 -3.9761146e-05 0.00015795224)
(0 -4.1951404e-05 0.00016185076)
(0 -4.3640274e-05 0.00016300228)
(0 -4.4694935e-05 0.00016147351)
(0 2.2178499e-05 -7.1225298e-05)
(0 4.931113e-05 -0.00013508165)
(0 6.2282718e-05 -0.00015753908)
(0 6.6035731e-05 -0.00015812067)
(0 6.4508016e-05 -0.00014727513)
(0 5.9939288e-05 -0.00013002933)
(0 5.3538326e-05 -0.00010887215)
(0 4.5965965e-05 -8.5100436e-05)
(0 3.7393668e-05 -5.9510745e-05)
(0 2.7937869e-05 -3.2776661e-05)
(0 1.787537e-05 -5.4362219e-06)
(0 7.4226559e-06 2.1991005e-05)
(0 -3.3040535e-06 4.8981223e-05)
(0 -1.4228707e-05 7.4980198e-05)
(0 -2.5211991e-05 9.9497871e-05)
(0 -3.6023074e-05 0.00012209539)
(0 -4.6234504e-05 0.00014237075)
(0 -5.5526675e-05 0.00015997259)
(0 -6.3630588e-05 0.0001746673)
(0 -7.0436587e-05 0.00018628345)
(0 -7.5901206e-05 0.00019460604)
(0 -8.0296692e-05 0.00019958849)
(0 -8.3491919e-05 0.00020116965)
(0 -8.532169e-05 0.00019938078)
(0 -4.0953929e-05 4.2268141e-05)
(0 -9.5909849e-05 8.2420425e-05)
(0 -0.00012244118 9.6513114e-05)
(0 -0.00013058019 9.6987525e-05)
(0 -0.00012809489 9.0365335e-05)
(0 -0.00011920361 7.9807164e-05)
(0 -0.00010608398 6.6850191e-05)
(0 -9.0108661e-05 5.2239907e-05)
(0 -7.197687e-05 3.6560819e-05)
(0 -5.2701999e-05 2.0202893e-05)
(0 -3.2197575e-05 3.4885823e-06)
(0 -1.072648e-05 -1.3174929e-05)
(0 1.1324705e-05 -2.9441035e-05)
(0 3.34249e-05 -4.5063856e-05)
(0 5.490461e-05 -5.9766121e-05)
(0 7.5646352e-05 -7.3331412e-05)
(0 9.5050685e-05 -8.5509197e-05)
(0 0.00011292788 -9.611944e-05)
(0 0.00012883204 -0.00010490413)
(0 0.00014261441 -0.00011183864)
(0 0.00015393033 -0.00011679365)
(0 0.0001625325 -0.0001197554)
(0 0.00016806176 -0.00012066846)
(0 0.00017056629 -0.00011955496)
(0 -2.8137986e-05 2.719781e-05)
(0 -6.939895e-05 5.5717855e-05)
(0 -9.0552377e-05 6.6409127e-05)
(0 -9.7791723e-05 6.7258082e-05)
(0 -9.6699717e-05 6.2872954e-05)
(0 -9.049624e-05 5.5587122e-05)
(0 -8.081151e-05 4.659506e-05)
(0 -6.8819281e-05 3.6400918e-05)
(0 -5.5401348e-05 2.5471525e-05)
(0 -4.0922255e-05 1.4088564e-05)
(0 -2.5512394e-05 2.460282e-06)
(0 -9.0587015e-06 -9.0812619e-06)
(0 8.2051567e-06 -2.0263347e-05)
(0 2.548932e-05 -3.0950194e-05)
(0 4.2205416e-05 -4.0952456e-05)
(0 5.834903e-05 -5.0133315e-05)
(0 7.3478644e-05 -5.8364581e-05)
(0 8.759783e-05 -6.5459199e-05)
(0 0.00010020061 -7.1265756e-05)
(0 0.0001112957 -7.5825067e-05)
(0 0.00012027464 -7.9079284e-05)
(0 0.00012715957 -8.0981554e-05)
(0 0.00013157938 -8.1508703e-05)
(0 0.000133518 -8.0682953e-05)
(0 -1.7759153e-05 1.3474242e-05)
(0 -4.5155834e-05 2.8379557e-05)
(0 -5.975352e-05 3.4188856e-05)
(0 -6.5170119e-05 3.4839166e-05)
(0 -6.484057e-05 3.2649071e-05)
(0 -6.1041104e-05 2.8872288e-05)
(0 -5.4671714e-05 2.4235261e-05)
(0 -4.6724283e-05 1.8905441e-05)
(0 -3.7676355e-05 1.3275405e-05)
(0 -2.805939e-05 7.3557306e-06)
(0 -1.7914593e-05 1.2951711e-06)
(0 -6.6612183e-06 -4.7005207e-06)
(0 5.3647111e-06 -1.0487073e-05)
(0 1.7370225e-05 -1.5976825e-05)
(0 2.8852301e-05 -2.1112406e-05)
(0 3.9777464e-05 -2.5715125e-05)
(0 4.9939936e-05 -2.9870266e-05)
(0 5.9824261e-05 -3.3376481e-05)
(0 6.887171e-05 -3.6352177e-05)
(0 7.6817708e-05 -3.8614871e-05)
(0 8.3236196e-05 -4.0207208e-05)
(0 8.8122125e-05 -4.111557e-05)
(0 9.1144169e-05 -4.132766e-05)
(0 9.2386352e-05 -4.0851382e-05)
(0 -8.5821704e-06 -1.1356729e-08)
(0 -2.2002842e-05 -4.0958896e-09)
(0 -2.923323e-05 -8.813251e-10)
(0 -3.2219807e-05 -4.0418788e-09)
(0 -3.2262463e-05 -4.5046108e-08)
(0 -3.0615458e-05 -3.3325712e-08)
(0 -2.7457231e-05 -1.6437028e-08)
(0 -2.3355271e-05 -1.2211106e-08)
(0 -1.8899893e-05 4.3702074e-08)
(0 -1.434604e-05 2.6294923e-08)
(0 -9.5183398e-06 -2.811054e-08)
(0 -3.7726753e-06 -6.2865891e-08)
(0 2.5804341e-06 -7.7483006e-08)
(0 8.8464186e-06 -6.4186496e-08)
(0 1.4633661e-05 -7.179782e-08)
(0 1.9948998e-05 -1.0400252e-08)
(0 2.4972515e-05 -3.7901044e-09)
(0 3.0105727e-05 1.9266244e-09)
(0 3.4986008e-05 -8.7433206e-08)
(0 3.9518895e-05 -5.700931e-08)
(0 4.3172879e-05 1.1523898e-09)
(0 4.5805621e-05 5.4278064e-08)
(0 4.7376069e-05 1.2560875e-07)
(0 4.7900803e-05 1.9114305e-07)
(0 1.7750071e-07 -1.332925e-05)
(0 6.461385e-07 -2.8348178e-05)
(0 9.9591155e-07 -3.4340272e-05)
(0 9.4869317e-07 -3.5111279e-05)
(0 7.0454411e-07 -3.3018901e-05)
(0 3.0518755e-07 -2.9291629e-05)
(0 2.7991415e-07 -2.4585442e-05)
(0 4.2633552e-07 -1.9228174e-05)
(0 3.9921438e-07 -1.3416209e-05)
(0 -4.966713e-08 -7.4592478e-06)
(0 -4.960383e-07 -1.4047866e-06)
(0 -3.5626831e-07 4.6468455e-06)
(0 8.0689115e-10 1.0531508e-05)
(0 1.3237433e-07 1.6114468e-05)
(0 -1.9320848e-07 2.1320022e-05)
(0 -8.3218409e-07 2.595541e-05)
(0 -1.4268906e-06 3.0114943e-05)
(0 -1.4236454e-06 3.3662009e-05)
(0 -8.627745e-07 3.6569128e-05)
(0 -8.2070693e-08 3.8877885e-05)
(0 5.3558261e-07 4.0560947e-05)
(0 8.2024543e-07 4.1550833e-05)
(0 7.6777404e-07 4.1870131e-05)
(0 5.27515e-07 4.1490491e-05)
(0 9.2502314e-06 -2.6463969e-05)
(0 2.3503721e-05 -5.5514615e-05)
(0 3.1211673e-05 -6.6928588e-05)
(0 3.3849064e-05 -6.8335198e-05)
(0 3.3316129e-05 -6.4132887e-05)
(0 3.088247e-05 -5.6830715e-05)
(0 2.7664211e-05 -4.7680897e-05)
(0 2.3891387e-05 -3.7313524e-05)
(0 1.963591e-05 -2.60753e-05)
(0 1.4292959e-05 -1.4491887e-05)
(0 8.685891e-06 -2.6837556e-06)
(0 3.2040801e-06 9.1353762e-06)
(0 -2.4011452e-06 2.0672339e-05)
(0 -8.3131578e-06 3.1694116e-05)
(0 -1.4582824e-05 4.1985389e-05)
(0 -2.101471e-05 5.127348e-05)
(0 -2.6959975e-05 5.9542857e-05)
(0 -3.201542e-05 6.6631212e-05)
(0 -3.6046459e-05 7.2436376e-05)
(0 -3.9152734e-05 7.7017692e-05)
(0 -4.1582665e-05 8.0320659e-05)
(0 -4.3669723e-05 8.2242469e-05)
(0 -4.5286577e-05 8.2830218e-05)
(0 -4.6284997e-05 8.2035977e-05)
(0 1.9402224e-05 -4.0369135e-05)
(0 4.7238794e-05 -8.221749e-05)
(0 6.1628548e-05 -9.8051285e-05)
(0 6.6303803e-05 -9.9428428e-05)
(0 6.5179348e-05 -9.304603e-05)
(0 6.0705957e-05 -8.2340734e-05)
(0 5.4312284e-05 -6.9010939e-05)
(0 4.6766692e-05 -5.401764e-05)
(0 3.7919767e-05 -3.7829632e-05)
(0 2.7873907e-05 -2.0983556e-05)
(0 1.7229512e-05 -3.7894244e-06)
(0 6.3162498e-06 1.3403216e-05)
(0 -4.8920055e-06 3.0219419e-05)
(0 -1.6372483e-05 4.6336327e-05)
(0 -2.8029475e-05 6.1437525e-05)
(0 -3.9556893e-05 7.5250503e-05)
(0 -5.0337354e-05 8.7547216e-05)
(0 -5.9977937e-05 9.8174619e-05)
(0 -6.8163954e-05 0.00010690734)
(0 -7.490396e-05 0.00011382198)
(0 -8.0289312e-05 0.00011874146)
(0 -8.4616001e-05 0.00012164512)
(0 -8.7747158e-05 0.00012251138)
(0 -8.9474363e-05 0.0001213545)
(0 3.1697183e-05 -5.6161332e-05)
(0 7.2865354e-05 -0.00010868574)
(0 9.2875896e-05 -0.00012737374)
(0 9.8858115e-05 -0.00012808265)
(0 9.6723902e-05 -0.0001193915)
(0 8.9846812e-05 -0.00010545552)
(0 8.0118365e-05 -8.8303171e-05)
(0 6.8511678e-05 -6.9057808e-05)
(0 5.5329635e-05 -4.8326571e-05)
(0 4.0628735e-05 -2.669698e-05)
(0 2.5044333e-05 -4.5847691e-06)
(0 8.9498103e-06 1.7565958e-05)
(0 -7.4804148e-06 3.9315511e-05)
(0 -2.4059333e-05 6.0238771e-05)
(0 -4.0547603e-05 7.9941359e-05)
(0 -5.6595958e-05 9.8054211e-05)
(0 -7.1661705e-05 0.00011426698)
(0 -8.5283372e-05 0.00012836372)
(0 -9.714061e-05 0.00014008232)
(0 -0.00010710043 0.00014936985)
(0 -0.0001151443 0.00015600922)
(0 -0.00012144819 0.00015997909)
(0 -0.00012586156 0.00016123317)
(0 -0.00012819788 0.00015978793)
(0 -3.1448065e-05 5.6169455e-05)
(0 -7.2010949e-05 0.0001087274)
(0 -9.1613335e-05 0.00012743538)
(0 -9.772715e-05 0.00012815095)
(0 -9.6062632e-05 0.00011946055)
(0 -8.9557527e-05 0.00010553454)
(0 -7.9843679e-05 8.8404803e-05)
(0 -6.7998304e-05 6.9144183e-05)
(0 -5.4750014e-05 4.8370614e-05)
(0 -4.0521216e-05 2.6665834e-05)
(0 -2.540022e-05 4.4503706e-06)
(0 -9.5116437e-06 -1.7744443e-05)
(0 6.8821933e-06 -3.9476456e-05)
(0 2.3420998e-05 -6.038264e-05)
(0 3.9601443e-05 -8.0073972e-05)
(0 5.5325335e-05 -9.8198987e-05)
(0 7.012438e-05 -0.00011444848)
(0 8.3874835e-05 -0.00012860136)
(0 9.6274131e-05 -0.00014031536)
(0 0.00010700207 -0.0001495788)
(0 0.00011562878 -0.00015618776)
(0 0.0001223457 -0.00016012933)
(0 0.0001267507 -0.00016133006)
(0 0.00012880606 -0.00015983048)
(0 -1.9087213e-05 4.0378247e-05)
(0 -4.6154402e-05 8.226751e-05)
(0 -6.0021581e-05 9.8119405e-05)
(0 -6.4866097e-05 9.9493031e-05)
(0 -6.4357622e-05 9.3097363e-05)
(0 -6.0351163e-05 8.2396561e-05)
(0 -5.39806e-05 6.9097499e-05)
(0 -4.6124201e-05 5.4096278e-05)
(0 -3.7214746e-05 3.7912733e-05)
(0 -2.778404e-05 2.0953148e-05)
(0 -1.7751271e-05 3.6338107e-06)
(0 -6.9654073e-06 -1.3615811e-05)
(0 4.3479816e-06 -3.0456931e-05)
(0 1.5867451e-05 -4.656966e-05)
(0 2.7095974e-05 -6.1650413e-05)
(0 3.8006941e-05 -7.5473084e-05)
(0 4.8253998e-05 -8.7793561e-05)
(0 5.8020514e-05 -9.8478498e-05)
(0 6.6996631e-05 -0.00010719021)
(0 7.4760895e-05 -0.00011404537)
(0 8.101951e-05 -0.00011893409)
(0 8.5840517e-05 -0.0001217912)
(0 8.8906578e-05 -0.00012258087)
(0 9.026047e-05 -0.00012134716)
(0 -8.8747832e-06 2.6475774e-05)
(0 -2.2208755e-05 5.5573228e-05)
(0 -2.927018e-05 6.7002916e-05)
(0 -3.2043666e-05 6.8393659e-05)
(0 -3.2073131e-05 6.4150731e-05)
(0 -3.0347592e-05 5.6867482e-05)
(0 -2.7166443e-05 4.775718e-05)
(0 -2.3119176e-05 3.7404814e-05)
(0 -1.8946046e-05 2.6218974e-05)
(0 -1.4471308e-05 1.4524835e-05)
(0 -9.7563635e-06 2.580178e-06)
(0 -4.3475334e-06 -9.3178984e-06)
(0 1.6293906e-06 -2.0901388e-05)
(0 7.6725761e-06 -3.1944424e-05)
(0 1.3446399e-05 -4.2206221e-05)
(0 1.8986972e-05 -5.150927e-05)
(0 2.4226098e-05 -5.9832406e-05)
(0 2.9493602e-05 -6.6987382e-05)
(0 3.4541517e-05 -7.2734267e-05)
(0 3.9045409e-05 -7.7260472e-05)
(0 4.2485693e-05 -8.0506876e-05)
(0 4.5126113e-05 -8.2372117e-05)
(0 4.6711467e-05 -8.2862167e-05)
(0 4.7292052e-05 -8.1973522e-05)
(0 2.3822243e-07 1.3342796e-05)
(0 7.8502481e-07 2.8419222e-05)
(0 1.1740427e-06 3.4431982e-05)
(0 1.1519587e-06 3.5191599e-05)
(0 8.7537103e-07 3.3053254e-05)
(0 4.3679014e-07 2.9339736e-05)
(0 4.1619957e-07 2.4680282e-05)
(0 5.356318e-07 1.9335382e-05)
(0 3.1393177e-07 1.3598001e-05)
(0 -2.9169285e-07 7.5477716e-06)
(0 -1.0689753e-06 1.3563524e-06)
(0 -1.2673153e-06 -4.7866395e-06)
(0 -1.0977826e-06 -1.0735615e-05)
(0 -1.0024401e-06 -1.6327663e-05)
(0 -1.2115711e-06 -2.1521359e-05)
(0 -1.5697669e-06 -2.6099585e-05)
(0 -1.8457212e-06 -3.0286321e-05)
(0 -1.5955162e-06 -3.3850497e-05)
(0 -8.5175955e-07 -3.6793278e-05)
(0 -2.1698601e-08 -3.9040024e-05)
(0 4.1478827e-07 -4.064179e-05)
(0 6.7180902e-07 -4.1540842e-05)
(0 6.5102364e-07 -4.1748786e-05)
(0 4.490927e-07 -4.1255692e-05)
(0 9.0039763e-06 2.4616016e-08)
(0 2.3451205e-05 7.114865e-08)
(0 3.1442322e-05 8.6332102e-08)
(0 3.4375627e-05 7.8420288e-08)
(0 3.3941133e-05 5.8816145e-08)
(0 3.1498213e-05 8.917349e-08)
(0 2.8303263e-05 1.1251298e-07)
(0 2.4486881e-05 1.2490592e-07)
(0 1.9735553e-05 1.2340988e-07)
(0 1.3957586e-05 4.8091746e-08)
(0 7.8290421e-06 -2.272121e-08)
(0 1.9766619e-06 -7.268641e-08)
(0 -3.8380971e-06 -1.1092105e-07)
(0 -9.8685728e-06 -1.018291e-07)
(0 -1.6181083e-05 -1.0522618e-07)
(0 -2.2490885e-05 -4.4125027e-08)
(0 -2.816987e-05 -3.1860922e-08)
(0 -3.3019898e-05 -5.1983903e-10)
(0 -3.6822357e-05 -6.3038029e-08)
(0 -3.978183e-05 -2.0805423e-08)
(0 -4.2331246e-05 2.3148353e-08)
(0 -4.4401698e-05 7.2403468e-08)
(0 -4.5985348e-05 1.3104318e-07)
(0 -4.6936445e-05 1.8777816e-07)
(0 1.8147021e-05 -1.346281e-05)