/*--------------------------------*- C++ -*----------------------------------*\
| =========                 |                                                 |
| \\      /  F ield         | foam-extend: Open Source CFD                    |
|  \\    /   O peration     | Version:     4.1-20200408                       |
|   \\  /    A nd           | Web:         http://www.foam-extend.org         |
|    \\/     M anipulation  |                                                 |
\*---------------------------------------------------------------------------*/
FoamFile
{
    version     2.0;
    format      ascii;
    class       volScalarField;
    location    "0.0130000";
    object      ccy;
}
// * * * * * * * * * * * * * * * * * * * * * * * * * * * * * * * * * * * * * //

dimensions      [0 1 0 0 0 0 0];

internalField   nonuniform List<scalar> 
1952
(
7.28017e-05
0.000118563
0.000164918
0.000211469
0.000258111
0.000304801
0.000351518
0.000398253
0.000445001
0.000491756
0.000538518
0.000585284
0.000632057
0.000678833
0.000725608
3.12009e-05
7.27975e-05
0.000118555
0.000164907
0.000211457
0.000258095
0.000304781
0.000351495
0.000398227
0.000444971
0.000491724
0.000538482
0.000585246
0.000632018
0.000678791
0.000725567
3.11996e-05
7.27939e-05
0.00011855
0.000164899
0.000211446
0.000258082
0.000304766
0.000351478
0.000398208
0.00044495
0.0004917
0.000538456
0.000585221
0.000631989
0.000678764
0.000725541
3.11976e-05
7.27909e-05
0.000118545
0.000164893
0.000211436
0.000258071
0.000304754
0.000351464
0.000398192
0.000444933
0.000491682
0.000538438
0.0005852
0.000631969
0.000678744
0.000725521
3.11963e-05
7.27884e-05
0.000118541
0.000164887
0.000211431
0.000258063
0.000304743
0.000351453
0.00039818
0.00044492
0.000491668
0.000538424
0.000585185
0.000631956
0.00067873
0.000725508
3.11947e-05
7.27873e-05
0.000118538
0.000164882
0.000211425
0.000258057
0.000304737
0.000351445
0.000398171
0.00044491
0.000491658
0.000538414
0.000585176
0.000631945
0.000678721
0.000725498
3.11944e-05
7.27851e-05
0.000118536
0.00016488
0.000211421
0.000258052
0.000304732
0.000351439
0.000398165
0.000444904
0.000491652
0.000538406
0.000585169
0.000631939
0.000678714
0.000725492
3.11938e-05
7.27842e-05
0.000118534
0.000164877
0.000211418
0.000258049
0.000304728
0.000351435
0.000398161
0.0004449
0.000491647
0.000538403
0.000585165
0.000631934
0.000678711
0.000725489
3.11934e-05
7.27835e-05
0.000118533
0.000164876
0.000211417
0.000258047
0.000304726
0.000351433
0.000398159
0.000444896
0.000491646
0.0005384
0.000585163
0.000631933
0.000678709
0.000725486
3.11931e-05
7.27832e-05
0.000118532
0.000164875
0.000211416
0.000258046
0.000304725
0.000351432
0.000398157
0.000444897
0.000491644
0.0005384
0.000585162
0.000631932
0.000678708
0.000725487
3.1193e-05
7.27831e-05
0.000118531
0.000164876
0.000211415
0.000258046
0.000304724
0.000351432
0.000398158
0.000444896
0.000491645
0.000538401
0.000585162
0.000631933
0.000678708
0.000725488
3.11929e-05
7.27824e-05
0.000118533
0.000164875
0.000211417
0.000258046
0.000304725
0.000351432
0.000398159
0.000444897
0.000491646
0.000538401
0.000585164
0.000631934
0.00067871
0.000725489
3.11935e-05
7.27834e-05
0.000118533
0.000164877
0.000211416
0.000258047
0.000304726
0.000351434
0.000398159
0.000444899
0.000491647
0.000538403
0.000585165
0.000631936
0.000678712
0.00072549
3.11925e-05
7.27845e-05
0.000118533
0.000164876
0.000211418
0.000258049
0.000304727
0.000351435
0.000398162
0.000444901
0.000491649
0.000538405
0.000585168
0.000631939
0.000678714
0.000725494
3.11932e-05
7.27841e-05
0.000118534
0.000164878
0.000211419
0.00025805
0.000304729
0.000351436
0.000398164
0.000444903
0.000491651
0.000538408
0.00058517
0.00063194
0.000678718
0.000725496
3.11934e-05
7.27846e-05
0.000118534
0.000164879
0.00021142
0.000258051
0.000304731
0.000351439
0.000398166
0.000444905
0.000491654
0.00053841
0.000585173
0.000631943
0.00067872
0.000725498
3.11936e-05
7.27843e-05
0.000118536
0.000164879
0.000211422
0.000258052
0.000304733
0.000351442
0.000398167
0.000444908
0.000491657
0.000538413
0.000585176
0.000631946
0.000678723
0.000725502
3.11943e-05
7.27863e-05
0.000118535
0.000164881
0.000211422
0.000258056
0.000304735
0.000351442
0.000398171
0.00044491
0.000491659
0.000538416
0.000585178
0.000631949
0.000678726
0.000725506
3.11934e-05
7.27853e-05
0.000118538
0.000164881
0.000211424
0.000258057
0.000304737
0.000351445
0.000398173
0.000444913
0.000491663
0.000538418
0.000585181
0.000631951
0.000678728
0.000725508
3.11947e-05
7.27866e-05
0.000118538
0.000164883
0.000211426
0.000258058
0.000304738
0.000351448
0.000398174
0.000444915
0.000491665
0.000538421
0.000585184
0.000631954
0.000678732
0.00072551
3.11944e-05
7.27871e-05
0.000118539
0.000164884
0.000211427
0.00025806
0.00030474
0.00035145
0.000398178
0.000444918
0.000491667
0.000538424
0.000585187
0.000631957
0.000678733
0.000725515
3.11946e-05
7.27884e-05
0.000118539
0.000164885
0.000211429
0.000258062
0.000304743
0.000351451
0.000398181
0.000444921
0.00049167
0.000538426
0.000585189
0.00063196
0.000678737
0.000725517
3.11943e-05
7.27875e-05
0.00011854
0.000164887
0.000211431
0.000258063
0.000304745
0.000351455
0.000398183
0.000444922
0.000491673
0.000538429
0.000585192
0.000631962
0.000678741
0.000725521
3.11951e-05
7.27895e-05
0.000118541
0.000164888
0.000211431
0.000258065
0.000304747
0.000351458
0.000398184
0.000444926
0.000491675
0.000538432
0.000585195
0.000631965
0.000678743
0.000725523
3.11954e-05
7.27894e-05
0.000118542
0.000164889
0.000211435
0.000258067
0.00030475
0.000351458
0.000398188
0.000444928
0.000491678
0.000538436
0.000585197
0.000631968
0.000678747
0.000725528
3.11956e-05
7.27892e-05
0.000118543
0.000164891
0.000211436
0.00025807
0.000304751
0.000351462
0.00039819
0.000444932
0.000491681
0.000538437
0.000585202
0.000631971
0.00067875
0.00072553
3.11964e-05
7.27914e-05
0.000118544
0.000164892
0.000211437
0.000258072
0.000304754
0.000351464
0.000398193
0.000444934
0.000491684
0.000538441
0.000585204
0.000631975
0.000678753
0.000725534
3.11956e-05
7.27906e-05
0.000118545
0.000164894
0.000211438
0.000258075
0.000304756
0.000351468
0.000398196
0.000444938
0.000491688
0.000538445
0.000585208
0.000631978
0.000678756
0.000725538
3.11965e-05
7.27928e-05
0.000118547
0.000164894
0.000211442
0.000258076
0.000304759
0.00035147
0.0003982
0.000444941
0.000491691
0.000538448
0.000585211
0.000631982
0.00067876
0.000725542
3.11968e-05
7.27929e-05
0.000118548
0.000164897
0.000211443
0.000258079
0.000304762
0.000351474
0.000398203
0.000444945
0.000491696
0.000538452
0.000585215
0.000631985
0.000678764
0.000725545
3.11971e-05
7.27937e-05
0.000118549
0.000164899
0.000211446
0.000258082
0.000304766
0.000351476
0.000398207
0.000444948
0.000491698
0.000538457
0.000585219
0.000631989
0.000678768
0.00072555
3.11975e-05
7.27939e-05
0.000118552
0.000164901
0.000211448
0.000258084
0.000304769
0.000351482
0.00039821
0.000444952
0.000491704
0.000538459
0.000585224
0.000631993
0.000678772
0.000725554
3.11979e-05
7.27963e-05
0.000118551
0.000164903
0.000211451
0.000258089
0.000304771
0.000351485
0.000398215
0.000444957
0.000491707
0.000538465
0.000585226
0.000631997
0.000678776
0.000725558
3.11983e-05
7.27965e-05
0.000118554
0.000164905
0.000211453
0.00025809
0.000304776
0.000351488
0.00039822
0.000444961
0.000491712
0.000538469
0.000585231
0.000632002
0.00067878
0.000725562
3.11987e-05
7.27975e-05
0.000118555
0.000164907
0.000211456
0.000258094
0.000304779
0.000351493
0.000398222
0.000444966
0.000491716
0.000538473
0.000585237
0.000632004
0.000678783
0.000725565
3.11991e-05
7.27984e-05
0.000118557
0.000164909
0.000211459
0.000258098
0.000304782
0.000351496
0.000398228
0.00044497
0.000491721
0.000538478
0.00058524
0.000632009
0.000678786
0.000725567
3.11995e-05
7.27992e-05
0.000118559
0.00016491
0.000211462
0.0002581
0.000304786
0.0003515
0.000398231
0.000444974
0.000491726
0.000538481
0.000585244
0.000632012
0.000678789
0.000725569
3.11998e-05
7.27999e-05
0.000118558
0.000164913
0.000211463
0.000258102
0.000304789
0.000351503
0.000398234
0.000444978
0.000491728
0.000538486
0.000585247
0.000632014
0.000678789
0.000725571
3.12001e-05
7.27996e-05
0.000118561
0.000164913
0.000211464
0.000258103
0.00030479
0.000351505
0.000398237
0.00044498
0.000491732
0.000538487
0.000585249
0.000632016
0.000678792
0.000725571
3.12008e-05
7.28011e-05
0.00011856
0.000164914
0.000211464
0.000258104
0.00030479
0.000351506
0.000398238
0.000444981
0.000491732
0.000538489
0.00058525
0.000632017
0.000678791
0.00072557
3.12e-05
7.27999e-05
0.000118559
0.000164913
0.000211463
0.000258103
0.00030479
0.000351505
0.000398237
0.00044498
0.000491731
0.000538488
0.000585249
0.000632015
0.000678789
0.000725567
3.12001e-05
7.27988e-05
0.000118557
0.00016491
0.00021146
0.000258099
0.000304786
0.000351501
0.000398233
0.000444976
0.000491727
0.000538484
0.000585245
0.000632011
0.000678784
0.000725561
3.11997e-05
7.27967e-05
0.000118554
0.000164906
0.000211455
0.000258093
0.000304779
0.000351494
0.000398226
0.000444969
0.00049172
0.000538476
0.000585237
0.000632002
0.000678775
0.000725552
3.11987e-05
7.27935e-05
0.000118549
0.000164899
0.000211446
0.000258083
0.000304768
0.000351482
0.000398213
0.000444957
0.000491707
0.000538463
0.000585224
0.00063199
0.000678762
0.000725537
3.11974e-05
7.2789e-05
0.000118542
0.000164889
0.000211434
0.000258069
0.000304752
0.000351464
0.000398195
0.000444937
0.000491688
0.000538444
0.000585205
0.00063197
0.000678742
0.000725516
3.11953e-05
7.27827e-05
0.000118532
0.000164875
0.000211417
0.000258049
0.000304729
0.000351439
0.000398168
0.00044491
0.000491659
0.000538416
0.000585177
0.000631942
0.000678714
0.000725487
3.11927e-05
7.27744e-05
0.000118519
0.000164857
0.000211394
0.000258022
0.000304699
0.000351406
0.000398132
0.000444872
0.00049162
0.000538376
0.000585137
0.000631903
0.000678674
0.000725448
3.11892e-05
7.27641e-05
0.000118502
0.000164834
0.000211365
0.000257988
0.00030466
0.000351362
0.000398084
0.000444821
0.000491568
0.000538323
0.000585083
0.000631849
0.000678621
0.000725394
3.11847e-05
7.27513e-05
0.000118481
0.000164806
0.000211329
0.000257944
0.000304609
0.000351306
0.000398023
0.000444755
0.000491499
0.000538252
0.000585011
0.000631777
0.000678549
0.000725323
3.11792e-05
7.27359e-05
0.000118456
0.000164771
0.000211285
0.000257891
0.000304547
0.000351236
0.000397946
0.000444672
0.00049141
0.000538159
0.000584915
0.00063168
0.000678451
0.000725226
3.11726e-05
7.2718e-05
0.000118427
0.000164731
0.000211234
0.000257829
0.000304474
0.000351152
0.000397853
0.000444569
0.000491299
0.000538041
0.000584792
0.000631553
0.000678322
0.000725095
3.1165e-05
7.26977e-05
0.000118394
0.000164684
0.000211174
0.000257756
0.000304389
0.000351054
0.000397741
0.000444446
0.000491164
0.000537896
0.000584638
0.00063139
0.000678153
0.000724921
3.11563e-05
7.26753e-05
0.000118357
0.000164634
0.000211109
0.000257675
0.000304293
0.000350942
0.000397614
0.000444303
0.000491006
0.000537723
0.00058445
0.00063119
0.000677941
0.000724699
3.11466e-05
7.26514e-05
0.000118318
0.000164579
0.000211038
0.000257588
0.000304188
0.000350819
0.000397473
0.000444143
0.000490827
0.000537524
0.000584233
0.000630954
0.000677688
0.000724431
3.11365e-05
7.2627e-05
0.000118278
0.000164522
0.000210964
0.000257497
0.000304078
0.000350691
0.000397324
0.000443972
0.000490633
0.000537306
0.000583991
0.000630688
0.0006774
0.000724122
3.11259e-05
7.26026e-05
0.000118238
0.000164466
0.000210891
0.000257405
0.000303968
0.00035056
0.000397171
0.000443796
0.000490432
0.000537078
0.000583734
0.000630403
0.000677087
0.000723785
3.11156e-05
7.25795e-05
0.0001182
0.000164413
0.000210821
0.000257319
0.000303863
0.000350434
0.000397024
0.000443625
0.000490234
0.000536852
0.000583478
0.000630115
0.000676767
0.000723436
3.11057e-05
7.25587e-05
0.000118166
0.000164365
0.000210759
0.00025724
0.000303767
0.000350321
0.00039689
0.000443469
0.000490054
0.000536644
0.00058324
0.000629844
0.000676462
0.000723099
3.10969e-05
7.25413e-05
0.000118137
0.000164324
0.000210706
0.000257174
0.000303688
0.000350226
0.000396779
0.000443339
0.000489904
0.00053647
0.00058304
0.000629615
0.000676202
0.000722808
3.10894e-05
7.25278e-05
0.000118115
0.000164293
0.000210666
0.000257125
0.000303628
0.000350155
0.000396696
0.000443244
0.000489795
0.000536347
0.0005829
0.000629456
0.000676025
0.000722611
3.10836e-05
7.25188e-05
0.000118101
0.000164273
0.00021064
0.000257093
0.00030359
0.000350111
0.000396646
0.000443188
0.000489734
0.000536282
0.000582832
0.000629389
0.000675961
0.000722547
3.10798e-05
7.25143e-05
0.000118094
0.000164263
0.000210627
0.000257078
0.000303574
0.000350094
0.000396629
0.000443172
0.000489722
0.000536277
0.00058284
0.000629413
0.000676001
0.0007226
3.10779e-05
7.25143e-05
0.000118093
0.000164264
0.000210629
0.000257081
0.000303579
0.000350103
0.000396644
0.000443196
0.000489759
0.000536331
0.000582914
0.000629509
0.000676113
0.000722726
3.10777e-05
7.25185e-05
0.000118101
0.000164275
0.000210644
0.000257102
0.000303607
0.00035014
0.000396693
0.00044326
0.000489841
0.000536433
0.000583036
0.000629648
0.000676266
0.000722891
3.10796e-05
7.25276e-05
0.000118116
0.000164297
0.000210674
0.000257141
0.000303657
0.000350204
0.000396772
0.000443356
0.000489954
0.000536563
0.00058318
0.000629805
0.000676436
0.000723072
3.10835e-05
7.25417e-05
0.000118139
0.000164329
0.000210717
0.000257196
0.000303726
0.000350287
0.000396871
0.000443469
0.00049008
0.000536702
0.000583332
0.000629968
0.000676612
0.000723259
3.10894e-05
7.25587e-05
0.000118167
0.000164369
0.000210769
0.000257261
0.000303803
0.000350378
0.000396973
0.000443585
0.000490209
0.000536842
0.000583484
0.000630133
0.000676787
0.000723444
3.10967e-05
7.2577e-05
0.000118197
0.000164411
0.000210823
0.000257328
0.000303882
0.000350468
0.000397076
0.0004437
0.000490335
0.000536981
0.000583634
0.000630294
0.000676958
0.000723624
3.11044e-05
7.25953e-05
0.000118227
0.000164452
0.000210877
0.000257393
0.000303959
0.000350557
0.000397177
0.000443812
0.000490459
0.000537115
0.000583778
0.000630448
0.000677122
0.000723796
3.11123e-05
7.26133e-05
0.000118257
0.000164493
0.000210929
0.000257456
0.000304034
0.000350643
0.000397274
0.00044392
0.000490577
0.000537243
0.000583916
0.000630595
0.000677277
0.000723959
3.112e-05
7.26308e-05
0.000118285
0.000164533
0.00021098
0.000257518
0.000304106
0.000350726
0.000397367
0.000444022
0.000490689
0.000537364
0.000584046
0.000630733
0.000677423
0.000724112
3.11275e-05
7.26472e-05
0.000118312
0.00016457
0.000211027
0.000257576
0.000304174
0.000350803
0.000397453
0.000444118
0.000490793
0.000537478
0.000584167
0.000630861
0.000677558
0.000724254
3.11347e-05
7.2663e-05
0.000118337
0.000164605
0.000211072
0.00025763
0.000304238
0.000350876
0.000397535
0.000444208
0.000490891
0.000537583
0.00058428
0.000630981
0.000677684
0.000724387
3.11413e-05
7.26774e-05
0.000118361
0.000164638
0.000211114
0.00025768
0.000304297
0.000350943
0.00039761
0.000444291
0.000490982
0.00053768
0.000584384
0.000631091
0.000677801
0.00072451
3.11476e-05
7.26909e-05
0.000118382
0.000164668
0.000211152
0.000257727
0.000304351
0.000351005
0.000397679
0.000444367
0.000491065
0.00053777
0.00058448
0.000631193
0.000677908
0.000724623
3.11534e-05
7.27033e-05
0.000118402
0.000164696
0.000211187
0.00025777
0.000304401
0.000351062
0.000397743
0.000444437
0.000491141
0.000537852
0.000584567
0.000631286
0.000678007
0.000724727
3.11587e-05
7.27146e-05
0.000118421
0.000164722
0.00021122
0.000257809
0.000304447
0.000351115
0.000397802
0.000444502
0.000491211
0.000537927
0.000584648
0.000631372
0.000678098
0.000724823
3.11635e-05
7.27249e-05
0.000118438
0.000164745
0.000211249
0.000257844
0.000304488
0.000351162
0.000397855
0.00044456
0.000491275
0.000537996
0.000584722
0.000631451
0.000678182
0.000724912
3.1168e-05
7.27344e-05
0.000118453
0.000164766
0.000211276
0.000257877
0.000304527
0.000351206
0.000397904
0.000444614
0.000491334
0.00053806
0.00058479
0.000631523
0.000678258
0.000724993
3.1172e-05
7.27433e-05
0.000118467
0.000164785
0.000211301
0.000257907
0.000304562
0.000351245
0.000397948
0.000444663
0.000491387
0.000538118
0.000584852
0.00063159
0.000678328
0.000725069
3.11758e-05
7.275e-05
0.00011848
0.000164803
0.000211324
0.000257934
0.000304593
0.000351281
0.000397988
0.000444708
0.000491436
0.00053817
0.000584909
0.00063165
0.000678395
0.000725137
3.1179e-05
7.27578e-05
0.000118492
0.000164818
0.000211344
0.000257959
0.000304622
0.000351315
0.000398025
0.000444748
0.00049148
0.000538219
0.000584961
0.000631707
0.000678455
0.000725201
3.11821e-05
7.27642e-05
0.000118501
0.000164834
0.000211362
0.000257981
0.000304648
0.000351344
0.000398059
0.000444786
0.000491522
0.000538263
0.00058501
0.000631759
0.00067851
0.00072526
3.11848e-05
7.27701e-05
0.000118511
0.000164846
0.000211379
0.000258002
0.000304673
0.000351371
0.000398091
0.000444821
0.000491559
0.000538305
0.000585055
0.000631806
0.000678561
0.000725316
3.11873e-05
7.27763e-05
0.00011852
0.000164858
0.000211394
0.000258021
0.000304694
0.000351398
0.000398118
0.000444853
0.000491595
0.000538343
0.000585095
0.000631852
0.000678609
0.000725367
3.11891e-05
7.27797e-05
0.000118528
0.000164869
0.000211409
0.000258037
0.000304715
0.000351421
0.000398145
0.000444882
0.000491628
0.000538378
0.000585134
0.000631893
0.000678653
0.000725415
3.11923e-05
7.2785e-05
0.000118535
0.00016488
0.000211422
0.000258054
0.000304733
0.000351442
0.00039817
0.000444909
0.000491657
0.000538411
0.000585169
0.000631931
0.000678695
0.000725458
3.11937e-05
7.27891e-05
0.000118542
0.000164889
0.000211434
0.000258068
0.000304751
0.000351462
0.000398193
0.000444934
0.000491684
0.000538442
0.000585202
0.000631967
0.000678733
0.0007255
3.11955e-05
7.27938e-05
0.000118548
0.000164898
0.000211445
0.000258082
0.000304768
0.000351481
0.000398213
0.000444957
0.000491711
0.000538469
0.000585234
0.000632
0.000678769
0.000725539
3.11971e-05
7.27966e-05
0.000118554
0.000164907
0.000211456
0.000258095
0.000304781
0.000351499
0.000398232
0.000444981
0.000491735
0.000538497
0.000585262
0.000632031
0.000678804
0.000725576
3.11987e-05
7.28e-05
0.00011856
0.000164914
0.000211465
0.000258107
0.000304797
0.000351514
0.000398252
0.000445
0.000491758
0.000538522
0.00058529
0.000632061
0.000678835
0.000725611
3.12002e-05
7.28024e-05
0.000118566
0.00016492
0.000211475
0.000258118
0.000304809
0.00035153
0.000398269
0.00044502
0.00049178
0.000538544
0.000585315
0.00063209
0.000678866
0.000725643
3.12015e-05
7.28068e-05
0.000118569
0.000164928
0.000211482
0.000258128
0.000304822
0.000351545
0.000398285
0.000445038
0.000491799
0.000538568
0.000585341
0.000632116
0.000678894
0.000725673
3.12028e-05
7.28089e-05
0.000118574
0.000164933
0.000211491
0.000258138
0.000304834
0.000351558
0.0003983
0.000445056
0.000491819
0.000538589
0.000585363
0.000632141
0.000678921
0.000725704
3.1204e-05
7.28115e-05
0.000118578
0.000164939
0.000211499
0.000258148
0.000304844
0.000351571
0.000398316
0.000445071
0.000491837
0.000538609
0.000585384
0.000632165
0.000678947
0.00072573
3.12051e-05
7.2814e-05
0.000118583
0.000164945
0.000211506
0.000258156
0.000304856
0.000351583
0.000398329
0.000445088
0.000491854
0.000538628
0.000585407
0.000632187
0.000678972
0.000725757
3.12056e-05
7.28164e-05
0.000118586
0.000164951
0.000211514
0.000258165
0.000304864
0.000351594
0.000398342
0.000445102
0.000491872
0.000538646
0.000585426
0.000632209
0.000678995
0.000725782
3.12077e-05
7.28187e-05
0.000118591
0.000164955
0.00021152
0.000258173
0.000304876
0.000351606
0.000398355
0.000445117
0.000491887
0.000538664
0.000585445
0.00063223
0.000679017
0.000725806
3.12082e-05
7.28209e-05
0.000118594
0.000164961
0.000211526
0.000258181
0.000304884
0.000351616
0.000398367
0.00044513
0.000491902
0.00053868
0.000585463
0.00063225
0.000679039
0.000725829
3.12091e-05
7.28222e-05
0.000118597
0.000164967
0.000211532
0.000258189
0.000304892
0.000351627
0.000398379
0.000445143
0.000491917
0.000538696
0.00058548
0.000632268
0.000679059
0.000725851
3.121e-05
7.28257e-05
0.000118601
0.00016497
0.000211538
0.000258197
0.000304901
0.000351636
0.00039839
0.000445155
0.000491929
0.000538712
0.000585498
0.000632287
0.000679079
0.000725872
3.12109e-05
7.28269e-05
0.000118604
0.000164975
0.000211543
0.000258203
0.00030491
0.000351646
0.000398401
0.000445168
0.000491944
0.000538726
0.000585513
0.000632304
0.000679098
0.000725892
3.12117e-05
7.28288e-05
0.000118607
0.000164979
0.000211549
0.000258209
0.000304918
0.000351654
0.000398411
0.000445179
0.000491957
0.00053874
0.000585529
0.000632321
0.000679116
0.000725911
3.12125e-05
7.28306e-05
0.000118609
0.000164983
0.000211555
0.000258216
0.000304924
0.000351664
0.000398421
0.00044519
0.000491969
0.000538755
0.000585543
0.000632337
0.000679133
0.00072593
3.12133e-05
7.28323e-05
0.000118613
0.000164987
0.00021156
0.000258221
0.000304933
0.000351672
0.00039843
0.000445201
0.000491981
0.000538766
0.000585559
0.000632352
0.000679149
0.000725947
3.1214e-05
7.2834e-05
0.000118615
0.000164991
0.000211564
0.000258228
0.000304939
0.00035168
0.000398441
0.000445211
0.000491993
0.00053878
0.000585571
0.000632368
0.000679166
0.000725964
3.12147e-05
7.28356e-05
0.000118618
0.000164995
0.000211569
0.000258233
0.000304946
0.000351688
0.000398449
0.000445221
0.000492003
0.000538792
0.000585586
0.000632381
0.000679181
0.000725982
3.12154e-05
7.28371e-05
0.00011862
0.000164998
0.000211573
0.000258238
0.000304953
0.000351695
0.000398457
0.000445231
0.000492014
0.000538804
0.000585597
0.000632395
0.000679196
0.000725997
3.1216e-05
7.28385e-05
0.000118621
0.000165001
0.000211578
0.000258245
0.000304959
0.000351703
0.000398465
0.000445241
0.000492024
0.000538815
0.000585609
0.000632408
0.00067921
0.000726012
3.12166e-05
7.28399e-05
0.000118625
0.000165004
0.000211582
0.000258248
0.000304965
0.00035171
0.000398474
0.000445248
0.000492033
0.000538826
0.000585621
0.000632421
0.000679223
0.000726027
3.12172e-05
7.28411e-05
0.000118627
0.000165007
0.000211585
0.000258254
0.000304969
0.000351716
0.00039848
0.000445257
0.000492043
0.000538834
0.000585632
0.000632433
0.000679237
0.00072604
3.12178e-05
7.28423e-05
0.000118629
0.00016501
0.000211589
0.000258257
0.000304976
0.000351722
0.000398487
0.000445264
0.000492051
0.000538845
0.000585642
0.000632445
0.000679248
0.000726053
3.12183e-05
7.28434e-05
0.00011863
0.000165012
0.000211592
0.000258263
0.00030498
0.000351727
0.000398493
0.000445272
0.000492059
0.000538854
0.000585652
0.000632455
0.00067926
0.000726066
3.12188e-05
7.28444e-05
0.000118632
0.000165014
0.000211595
0.000258265
0.000304984
0.000351732
0.000398498
0.000445278
0.000492066
0.000538862
0.000585661
0.000632464
0.000679271
0.000726077
3.12192e-05
7.28452e-05
0.000118633
0.000165016
0.000211597
0.000258269
0.000304988
0.000351737
0.000398505
0.000445284
0.000492073
0.000538868
0.000585669
0.000632474
0.00067928
0.000726088
3.12196e-05
7.2846e-05
0.000118635
0.000165018
0.0002116
0.000258271
0.000304991
0.00035174
0.000398508
0.000445289
0.000492078
0.000538876
0.000585676
0.000632481
0.000679289
0.000726099
3.12199e-05
7.28466e-05
0.000118636
0.000165019
0.000211601
0.000258274
0.000304994
0.000351743
0.000398512
0.000445293
0.000492083
0.00053888
0.000585682
0.000632488
0.000679297
0.000726106
3.12201e-05
7.2847e-05
0.000118636
0.00016502
0.000211603
0.000258275
0.000304996
0.000351745
0.000398514
0.000445296
0.000492086
0.000538884
0.000585687
0.000632494
0.000679303
0.000726113
3.12203e-05
7.28473e-05
0.000118637
0.000165021
0.000211604
0.000258276
0.000304997
0.000351747
0.000398516
0.000445298
0.00049209
0.000538887
0.00058569
0.000632497
0.000679307
0.000726118
3.12204e-05
7.28474e-05
0.000118637
0.000165022
0.000211604
0.000258277
0.000304997
0.000351748
0.000398517
0.000445299
0.00049209
0.000538889
0.000585692
0.000632499
0.000679309
0.00072612
3.12205e-05
7.28475e-05
0.000118637
0.000165022
0.000211604
0.000258277
0.000304998
0.000351748
0.000398518
0.0004453
0.000492091
0.000538889
0.000585692
0.000632499
0.00067931
0.000726123
3.12205e-05
7.28475e-05
0.000118637
0.000165022
0.000211604
0.000258277
0.000304998
0.000351748
0.000398518
0.0004453
0.000492091
0.000538889
0.000585692
0.000632499
0.00067931
0.000726122
3.12205e-05
)
;

boundaryField
{
    wireUpstream
    {
        type            calculated;
        value           nonuniform List<scalar> 
16
(
7.28475e-05
0.000118637
0.000165022
0.000211604
0.000258277
0.000304998
0.000351748
0.000398518
0.0004453
0.000492091
0.000538889
0.000585692
0.000632499
0.00067931
0.000726122
3.12205e-05
)
;
    }
    wireDownstream
    {
        type            calculated;
        value           nonuniform List<scalar> 
16
(
7.28039e-05
0.000118566
0.000164922
0.000211475
0.000258118
0.000304808
0.000351527
0.000398264
0.000445012
0.000491769
0.000538532
0.0005853
0.000632074
0.00067885
0.000725626
3.12019e-05
)
;
    }
    wireTopContact
    {
        type            calculated;
        value           nonuniform List<scalar> 
122
(
0.000748712
0.000748686
0.000748667
0.000748654
0.000748644
0.000748638
0.000748635
0.000748633
0.000748632
0.000748634
0.000748635
0.000748637
0.00074864
0.000748642
0.000748645
0.000748648
0.000748652
0.000748655
0.000748658
0.000748661
0.000748664
0.000748668
0.000748671
0.000748675
0.000748678
0.000748682
0.000748685
0.000748689
0.000748693
0.000748697
0.000748701
0.000748705
0.000748709
0.000748712
0.000748714
0.000748716
0.000748718
0.000748717
0.000748716
0.000748713
0.000748706
0.000748696
0.000748681
0.00074866
0.00074863
0.00074859
0.000748536
0.000748464
0.000748367
0.000748235
0.000748058
0.000747832
0.000747557
0.00074724
0.000746893
0.000746533
0.000746183
0.000745879
0.000745675
0.000745609
0.000745665
0.000745795
0.000745964
0.000746149
0.00074634
0.00074653
0.000746714
0.00074689
0.000747057
0.000747213
0.000747359
0.000747495
0.000747621
0.000747737
0.000747844
0.000747942
0.000748033
0.000748117
0.000748194
0.000748266
0.000748332
0.000748393
0.00074845
0.000748503
0.000748552
0.000748597
0.00074864
0.000748681
0.000748719
0.000748754
0.000748788
0.00074882
0.00074885
0.000748879
0.000748906
0.000748932
0.000748957
0.000748981
0.000749003
0.000749025
0.000749046
0.000749066
0.000749085
0.000749103
0.000749121
0.000749138
0.000749154
0.00074917
0.000749185
0.000749199
0.000749213
0.000749226
0.000749238
0.000749249
0.000749259
0.000749267
0.000749275
0.00074928
0.000749283
0.000749284
0.000749284
0.000748749
)
;
    }
    front
    {
        type            wedge;
    }
    back
    {
        type            wedge;
    }
}


// ************************************************************************* //
