/*--------------------------------*- C++ -*----------------------------------*\
| =========                 |                                                 |
| \\      /  F ield         | foam-extend: Open Source CFD                    |
|  \\    /   O peration     | Version:     4.1-20200408                       |
|   \\  /    A nd           | Web:         http://www.foam-extend.org         |
|    \\/     M anipulation  |                                                 |
\*---------------------------------------------------------------------------*/
FoamFile
{
    version     2.0;
    format      ascii;
    class       volScalarField;
    location    "0.0130000";
    object      epsilonPEq;
}
// * * * * * * * * * * * * * * * * * * * * * * * * * * * * * * * * * * * * * //

dimensions      [0 0 0 0 0 0 0];

internalField   nonuniform List<scalar> 
1952
(
0.000406033
0.000420314
0.00044465
0.000471607
0.000503652
0.000534837
0.000563762
0.000578428
0.000573352
0.000556945
0.000487301
0.000298047
1.38284e-05
0
0
0.00040044
0.000417309
0.000432987
0.000458927
0.000486179
0.000518122
0.000549111
0.000577765
0.000592858
0.000589222
0.000573302
0.000503984
0.000316109
3.2458e-05
0
0
0.00041135
0.0004298
0.000445634
0.00047328
0.000501292
0.000533134
0.000564085
0.000592458
0.000608139
0.000605902
0.000590847
0.000522348
0.000334474
4.89906e-05
0
0
0.000424045
0.000443507
0.000458893
0.000486793
0.000516725
0.000548929
0.000579659
0.000608122
0.000624066
0.00062115
0.000607524
0.000540258
0.000351613
6.37876e-05
0
0
0.000437886
0.00045766
0.000471431
0.000499089
0.000531185
0.000564052
0.000594647
0.000623483
0.000639188
0.000636236
0.000624294
0.000557916
0.000368212
7.77065e-05
0
0
0.000452151
0.000470639
0.000484273
0.000512299
0.000545136
0.000579036
0.000609988
0.000638782
0.000654419
0.000653372
0.000642485
0.000576637
0.000386095
9.2426e-05
0
0
0.000465351
0.000484209
0.000498829
0.000526947
0.000559446
0.000595391
0.000626927
0.000655278
0.000671003
0.000671135
0.000660525
0.000595277
0.000404222
0.000107005
0
0
0.000479084
0.000499345
0.000513785
0.000541693
0.000574199
0.000612289
0.000644259
0.000672279
0.000687979
0.000687878
0.00067747
0.000612896
0.000421214
0.000120635
0
0
0.000494382
0.000514828
0.000528176
0.000555924
0.000589356
0.000628412
0.000660882
0.000688738
0.000704162
0.000704921
0.000694677
0.000630633
0.00043834
0.000134499
0
0
0.000509936
0.000529941
0.000543365
0.000570927
0.000604727
0.000644158
0.000677605
0.000705482
0.000720585
0.000722146
0.000712006
0.000648475
0.0004557
0.000148489
0
0
0.000525111
0.000545835
0.000559219
0.000586604
0.000620077
0.000659079
0.000694534
0.000722582
0.000737152
0.000740128
0.000730134
0.000667061
0.00047374
0.000162983
0
0
0.000540983
0.000562026
0.000575906
0.000603085
0.000636184
0.000674927
0.000712263
0.000740363
0.000754374
0.000758347
0.000748565
0.00068599
0.000492115
0.000177679
0
0
0.000557218
0.000578659
0.000592793
0.000619654
0.000652514
0.000692118
0.000730133
0.00075839
0.000772016
0.000775905
0.000766498
0.00070445
0.000510101
0.000192136
0
0
0.00057394
0.000595684
0.000609251
0.000635723
0.000668396
0.000708775
0.000747542
0.000776023
0.000789331
0.00079414
0.000785146
0.000723444
0.000528539
0.000211761
0
0
0.000591111
0.000612255
0.000626407
0.000652709
0.000685075
0.000725902
0.00076529
0.000794115
0.000807116
0.000812809
0.000804326
0.00074294
0.000547648
0.000232337
0
0
0.000607805
0.000629272
0.000644157
0.000670291
0.000702323
0.000743116
0.00078252
0.000812559
0.000825535
0.000831754
0.000823911
0.000763009
0.000567057
0.000250032
0
0
0.000624853
0.000646947
0.000662269
0.000688121
0.000719878
0.000760226
0.000799281
0.000831251
0.000844375
0.000850214
0.000843175
0.000782873
0.000586539
0.000267813
0
0
0.000642569
0.000664733
0.000679766
0.000705362
0.000736807
0.000776785
0.000816036
0.000849341
0.000862542
0.000868379
0.000862143
0.000802286
0.000606257
0.000287782
0
0
0.000660392
0.000682319
0.000697072
0.000722499
0.000753605
0.000793355
0.000833526
0.000867296
0.000880754
0.000887593
0.000881507
0.000822711
0.000626996
0.000307295
0
0
0.000677624
0.000700763
0.000715427
0.000740685
0.000771546
0.000811112
0.00085216
0.000886532
0.000900297
0.000906422
0.000899854
0.000843021
0.000647553
0.000326345
0
0
0.000694646
0.000719116
0.000733508
0.000758628
0.000789329
0.000828776
0.000870604
0.000905868
0.000919727
0.000925505
0.000919087
0.000863015
0.000666684
0.00034557
0
0
0.000713027
0.000737598
0.000751657
0.000776659
0.000807149
0.000846497
0.000888919
0.000925113
0.000939023
0.000945043
0.000939377
0.000882983
0.00068594
0.000364857
0
0
0.000731767
0.000756402
0.000770324
0.000795214
0.000825424
0.000864548
0.000907107
0.000943945
0.000958247
0.000964551
0.00095929
0.00090304
0.000706626
0.000384226
0
0
0.000750608
0.000775405
0.000789283
0.000814137
0.000843996
0.000882955
0.000925117
0.000961755
0.00097754
0.000984313
0.000979186
0.000923191
0.000727295
0.000403449
0
0
0.00076962
0.000794629
0.000808461
0.00083325
0.000862763
0.000901489
0.000943037
0.000979369
0.000996864
0.00100419
0.000999204
0.000943442
0.000747898
0.00042271
0
0
0.000788846
0.000813924
0.000827683
0.000852251
0.00088157
0.000919914
0.000961031
0.000997985
0.00101609
0.00102396
0.00101923
0.000963736
0.000768622
0.000441932
0
0
0.000808166
0.000833225
0.000846879
0.000871174
0.000900298
0.000938294
0.000979083
0.00101686
0.00103531
0.00104377
0.00103934
0.000984002
0.000789287
0.000461177
0
0
0.000827507
0.000852433
0.000865995
0.000890059
0.000918967
0.000956726
0.000997181
0.00103568
0.0010546
0.00106374
0.0010595
0.00100435
0.000810004
0.000480516
0
0
0.000846759
0.000871563
0.000885049
0.000908927
0.000937662
0.000975232
0.00101542
0.00105458
0.00107391
0.0010838
0.0010797
0.00102478
0.000830786
0.000499943
0
0
0.000865928
0.000890678
0.000904096
0.000927823
0.000956387
0.000993776
0.00103374
0.0010735
0.0010933
0.00110396
0.0011
0.00104533
0.000851654
0.000519423
0
0
0.000885075
0.000909807
0.000923172
0.000946769
0.000975181
0.00101239
0.00105213
0.00109248
0.00111278
0.00112416
0.00112032
0.00106592
0.000872537
0.000538951
0
0
0.000904228
0.000928908
0.000942232
0.000965724
0.000994004
0.00103103
0.00107056
0.00111149
0.00113228
0.00114443
0.00114071
0.00108657
0.000893459
0.000558661
0
0
0.000923332
0.000947451
0.000961058
0.000984622
0.00101293
0.00104983
0.00108914
0.00113062
0.00115189
0.00116477
0.00116122
0.00110745
0.000914642
0.000578505
0
0
0.000941793
0.000966064
0.000980168
0.00100386
0.00103229
0.00106906
0.00110804
0.00114965
0.0011711
0.00118525
0.00118193
0.00112851
0.000935984
0.000598376
0
0
0.000960275
0.000983907
0.000999233
0.00102341
0.00105199
0.00108875
0.00112746
0.00116864
0.00118935
0.0012059
0.00120292
0.00114955
0.000957404
0.000623862
2.4087e-05
0
0.000977813
0.00100155
0.00101822
0.00104311
0.00107174
0.0011086
0.00114698
0.0011876
0.00120767
0.0012276
0.00122515
0.00117235
0.000981179
0.00065226
5.44964e-05
0
0.00099511
0.00102077
0.00103765
0.00106382
0.00109238
0.00112911
0.00116723
0.0012074
0.00122811
0.00124909
0.00124752
0.00119629
0.0010062
0.000679772
8.15862e-05
0
0.00101423
0.0010393
0.00105619
0.00108381
0.00111258
0.00114915
0.00118732
0.00122726
0.00124874
0.00127146
0.00127089
0.00122097
0.00103177
0.000706274
0.000107174
0
0.00103278
0.00105808
0.00107539
0.0011038
0.00113311
0.00116968
0.00120792
0.00124788
0.00127011
0.00129488
0.00129495
0.00124505
0.00105715
0.000731934
0.000130736
0
0.00105139
0.00107713
0.00109472
0.00112324
0.00115399
0.00119085
0.00122906
0.00126955
0.00129252
0.00131886
0.00131895
0.00126784
0.001082
0.000757613
0.00015391
0
0.00107019
0.0010966
0.00111432
0.00114291
0.00117543
0.00121255
0.00125073
0.00129174
0.00131542
0.00134321
0.00134309
0.00129083
0.00110658
0.000783341
0.000176901
0
0.00108944
0.00111666
0.00113459
0.00116384
0.00119722
0.0012348
0.00127303
0.00131414
0.00133869
0.00136753
0.00136738
0.00131479
0.001131
0.000809111
0.000199881
0
0.00110939
0.00113733
0.00115543
0.00118535
0.00121925
0.00125758
0.00129587
0.00133691
0.00136224
0.00139203
0.00139178
0.0013388
0.00115534
0.000835303
0.000223262
0
0.00113002
0.00115895
0.00117718
0.00120746
0.00124148
0.00128104
0.00131925
0.00136001
0.00138606
0.00141696
0.0014166
0.00136318
0.00118018
0.000861896
0.000246905
0
0.00115162
0.0011815
0.00119987
0.00123024
0.00126389
0.00130514
0.00134318
0.00138343
0.00141032
0.0014421
0.0014417
0.00138788
0.00120524
0.000889848
0.000271781
0
0.00117419
0.00120459
0.00122301
0.0012534
0.00128722
0.0013295
0.00136738
0.00140718
0.00143474
0.00146863
0.00146823
0.00141391
0.00123169
0.000918822
0.000297485
0
0.00119723
0.00122931
0.00124774
0.00127821
0.00131266
0.00135526
0.00139304
0.00143243
0.00146032
0.00149578
0.00149557
0.00144092
0.00125913
0.000946496
0.000321687
0
0.00122185
0.00125535
0.00127364
0.00130397
0.00133884
0.00138177
0.00141977
0.00145885
0.00148661
0.00152137
0.00152162
0.00146682
0.00128529
0.000973717
0.000345658
0
0.00124787
0.00128035
0.00129845
0.00132869
0.00136392
0.00140722
0.00144578
0.0014845
0.00151165
0.00154645
0.00154774
0.00149262
0.00131097
0.00100357
0.000372324
0
0.00127288
0.0013056
0.00132344
0.00135379
0.00138901
0.0014317
0.00147192
0.00151008
0.00153633
0.00157443
0.00157638
0.0015207
0.00133896
0.0010329
0.0003984
0
0.00129811
0.00133319
0.00135082
0.0013811
0.00141608
0.00145818
0.00150003
0.00153754
0.00156305
0.00160289
0.00160456
0.00154882
0.00136666
0.00106059
0.00042377
0
0.00132571
0.00136013
0.00137779
0.00140792
0.00144286
0.00148555
0.0015276
0.00156492
0.00158983
0.00163125
0.00163305
0.00157715
0.00139405
0.00108798
0.000449544
0
0.0013527
0.00138715
0.00140475
0.00143478
0.00146963
0.00151284
0.00155519
0.00159237
0.00161675
0.00165963
0.00166183
0.00160534
0.00142145
0.00111635
0.000475384
0
0.00137979
0.00141412
0.00143164
0.00146168
0.0014964
0.00154007
0.00158287
0.00161981
0.0016454
0.00168832
0.00169056
0.00163351
0.00144906
0.0011453
0.000500863
0
0.00140682
0.00144171
0.00145908
0.00148898
0.00152346
0.00156745
0.00161039
0.00164746
0.00167462
0.00171738
0.0017197
0.00166224
0.00147717
0.00117399
0.000524874
0
0.00143448
0.00146989
0.00148702
0.00151662
0.00155084
0.00159493
0.0016381
0.00167541
0.00170372
0.0017466
0.00174915
0.00169162
0.00150608
0.001203
0.00054966
0
0.00146277
0.00149827
0.00151522
0.00154446
0.00157861
0.00162255
0.00166528
0.00170358
0.00173282
0.00177575
0.00177863
0.00172121
0.00153509
0.00123321
0.00057672
0
0.00149123
0.00152687
0.00154366
0.00157259
0.00160668
0.00165016
0.00169233
0.00173189
0.00176255
0.00180552
0.00180882
0.00175131
0.00156468
0.00126363
0.000603668
0
0.00151988
0.00155597
0.00157252
0.0016013
0.00163515
0.00167823
0.00172069
0.0017605
0.00179237
0.00183556
0.00183921
0.00178174
0.00159467
0.00129358
0.000629908
0
0.00154904
0.00158527
0.00160151
0.00163015
0.00166379
0.00170651
0.00174953
0.00178918
0.00182178
0.00186518
0.0018691
0.00181172
0.00162416
0.00132405
0.000656594
0
0.00157838
0.00161418
0.00163017
0.00165863
0.00169215
0.00173451
0.00177798
0.0018176
0.00185166
0.00189522
0.00189941
0.00184202
0.00165392
0.00122143
0.000504515
0
0.00160732
0.00164332
0.00165907
0.00168736
0.00172079
0.00176282
0.00180666
0.00184623
0.00186366
0.00184643
0.00176196
0.00157779
0.00124167
0.000706996
0.000110959
0
0.0016365
0.00161099
0.00161738
0.00163346
0.00165121
0.00167358
0.00168934
0.00168069
0.00162453
0.00150571
0.00130169
0.000982872
0.000564765
0.000145594
0
0
0.00160668
0.00142635
0.00142001
0.00141614
0.00140447
0.00138655
0.00134649
0.00126379
0.00111597
0.000893725
0.000611489
0.000305562
0
0
0
0
0.00142543
0.00106156
0.00104041
0.00101075
0.000957784
0.000880778
0.000765396
0.000617327
0.000444084
0.00022381
0
0
0
0
0
0
0.00106482
0.000503212
0.000474184
0.000431535
0.000360483
0.000260444
0.000124553
0
0
0
0
0
0
0
0
0
0.00050946
0
0
0
0
0
0
0
0
0
0
0
0
0
0
0
0
0
0
0
0
0
0
0
0
0
0
0
0
0
0
0
0
0
0
0
0
0
0
0
0
0
0
0
0
0
0
0
0
0
0
0
0
0
0
0
0
0
0
0
0
0
0
0
0
0
0
0
0
0
0
0
0
0
0
0
0
0
0
0
0
0
0
0
0
0
0
0
0
0
0
0
0
0
0
0
0
0
0
0
0
0
0
0
0
0
0
0
0
0
0
0
0
0
0
0
0
0
0
0
0
0
0
0
0
0
0
0
0
0
0
0
0
0
0
0
0
0
0
0
0
0
0
0
0
0
0
0
0
0
0
0
0
0
0
0
0
0
0
0
0
0
0
0
0
0
0
0
0
0
0
0
0
0
0
0
0
0
0
0
0
0
0
0
0
0
0
0
0
0
0
0
0
0
0
0
0
0
0
0
0
0
0
0
0
0
0
0
0
0
0
0
0
0
0
0
0
0
0
0
0
0
0
0
0
0
0
0
0
0
0
0
0
0
0
0
0
0
0
0
0
0
0
0
0
0
0
0
0
0
0
0
0
0
0
0
0
0
0
0
0
0
0
0
0
0
0
0
0
0
0
0
0
0
0
0
0
0
0
0
0
0
0
0
0
0
0
0
0
0
0
0
0
0
0
0
0
0
0
0
0
0
0
0
0
0
0
0
0
0
0
0
0
0
0
0
0
0
0
0
0
0
0
0
0
0
0
0
0
0
0
0
0
0
0
0
0
0
0
0
0
0
0
0
0
0
0
0
0
0
0
0
0
0
0
0
0
0
0
0
0
0
0
0
0
0
0
0
0
0
0
0
0
0
0
0
0
0
0
0
0
0
0
0
0
0
0
0
0
0
0
0
0
0
0
0
0
0
0
0
0
0
0
0
0
0
0
0
0
0
0
0
0
0
0
0
0
0
0
0
0
0
0
0
0
0
0
0
0
0
0
0
0
0
0
0
0
0
0
0
0
0
0
0
0
0
0
0
0
0
0
0
0
0
0
0
0
0
0
0
0
0
0
0
0
0
0
0
0
0
0
0
0
0
0
0
0
0
0
0
0
0
0
0
0
0
0
0
0
0
0
0
0
0
0
0
0
0
0
0
0
0
0
0
0
0
0
0
0
0
0
0
0
0
0
0
0
0
0
0
0
0
0
0
0
0
0
0
0
0
0
0
0
0
0
0
0
0
0
0
0
0
0
0
0
0
0
0
0
0
0
0
0
0
0
0
0
0
0
0
0
0
0
0
0
0
0
0
0
0
0
0
0
0
0
0
0
0
0
0
0
0
0
0
0
0
0
0
0
0
0
0
0
0
0
0
0
0
0
0
0
0
0
0
0
0
0
0
0
0
0
0
0
0
0
0
0
0
0
0
0
0
0
0
0
0
0
0
0
0
0
0
0
0
0
0
0
0
0
0
0
0
0
0
0
0
0
0
0
0
0
0
0
0
0
0
0
0
0
0
0
0
0
0
0
0
0
0
0
0
0
0
0
0
0
0
0
0
0
0
0
0
0
0
0
0
0
0
0
0
0
0
0
0
0
0
0
0
0
0
0
0
0
0
0
0
0
0
0
0
0
0
0
0
0
0
0
0
0
0
0
0
0
0
0
0
0
0
0
0
0
0
0
0
0
0
0
0
0
0
0
0
0
0
0
0
0
0
0
0
0
0
0
0
0
0
0
0
0
0
0
0
0
0
0
0
0
0
0
0
0
0
0
0
0
0
0
0
0
0
0
0
0
0
0
0
0
0
0
0
0
0
0
0
0
0
0
0
0
0
0
0
0
0
0
0
0
0
0
0
0
0
0
0
0
0
0
0
0
0
0
0
0
0
0
0
0
0
0
0
0
0
0
0
0
0
0
0
0
0
0
0
0
0
0
0
0
0
0
0
0
0
0
0
0
0
0
0
0
0
0
0
0
0
0
0
0
0
0
0
0
0
0
0
0
0
0
0
0
0
0
0
0
0
0
0
0
0
0
0
0
0
0
0
0
0
0
)
;

boundaryField
{
    wireUpstream
    {
        type            calculated;
        value           uniform 0;
    }
    wireDownstream
    {
        type            calculated;
        value           nonuniform List<scalar> 
16
(
0.000406033
0.000420314
0.00044465
0.000471607
0.000503652
0.000534837
0.000563762
0.000578428
0.000573352
0.000556945
0.000487301
0.000298047
1.38284e-05
0
0
0.00040044
)
;
    }
    wireTopContact
    {
        type            calculated;
        value           uniform 0;
    }
    front
    {
        type            wedge;
    }
    back
    {
        type            wedge;
    }
}


// ************************************************************************* //
