/*--------------------------------*- C++ -*----------------------------------*\
| =========                 |                                                 |
| \\      /  F ield         | foam-extend: Open Source CFD                    |
|  \\    /   O peration     | Version:     4.1-20200408                       |
|   \\  /    A nd           | Web:         http://www.foam-extend.org         |
|    \\/     M anipulation  |                                                 |
\*---------------------------------------------------------------------------*/
FoamFile
{
    version     2.0;
    format      ascii;
    class       pointVectorField;
    location    "0.0130000";
    object      pointDU;
}
// * * * * * * * * * * * * * * * * * * * * * * * * * * * * * * * * * * * * * //

dimensions      [0 1 0 0 0 0 0];

internalField   nonuniform List<vector> 
4059
(
(0 1.38546e-17 -3.70012e-16)
(0 -3.05855e-14 1.30938e-15)
(0 -4.10998e-09 1.79446e-10)
(0 1.39143e-17 -3.70875e-16)
(0 -3.05855e-14 -1.70564e-15)
(0 -4.10998e-09 -1.79447e-10)
(0 3.21868e-14 -1.43132e-15)
(0 1.16627e-14 -5.35224e-16)
(0 6.71587e-15 -3.19239e-16)
(0 3.61677e-15 -1.83929e-16)
(0 2.09788e-15 -1.17614e-16)
(0 6.09518e-16 -5.26308e-17)
(0 -3.62204e-16 -1.02029e-17)
(0 -9.40574e-16 1.50499e-17)
(0 -1.86702e-15 5.54971e-17)
(0 -1.61464e-15 4.44779e-17)
(0 -2.56028e-15 8.57684e-17)
(0 -1.56296e-15 4.22228e-17)
(0 -2.41747e-15 7.95303e-17)
(0 -9.41991e-16 1.511e-17)
(0 -2.03521e-15 6.28417e-17)
(0 -3.96869e-09 1.73277e-10)
(0 -3.85721e-09 1.6841e-10)
(0 -3.69871e-09 1.61489e-10)
(0 -3.40807e-09 1.48799e-10)
(0 -3.09914e-09 1.35312e-10)
(0 -2.79895e-09 1.22205e-10)
(0 -2.49513e-09 1.0894e-10)
(0 -2.20602e-09 9.63169e-11)
(0 -1.92952e-09 8.42447e-11)
(0 -1.65031e-09 7.20539e-11)
(0 -1.37084e-09 5.98522e-11)
(0 -1.08995e-09 4.7588e-11)
(0 -8.03883e-10 3.50982e-11)
(0 -5.19427e-10 2.26787e-11)
(0 -2.54547e-10 1.11138e-11)
(0 3.21868e-14 1.03507e-15)
(0 1.16627e-14 1.38968e-16)
(0 6.71587e-15 -7.7017e-17)
(0 3.61677e-15 -2.12326e-16)
(0 2.09788e-15 -2.78644e-16)
(0 6.09518e-16 -3.43628e-16)
(0 -3.62204e-16 -3.86053e-16)
(0 -9.40574e-16 -4.11304e-16)
(0 -1.86702e-15 -4.51757e-16)
(0 -1.61464e-15 -4.40737e-16)
(0 -2.56028e-15 -4.82022e-16)
(0 -1.56296e-15 -4.38479e-16)
(0 -2.41747e-15 -4.7579e-16)
(0 -9.41991e-16 -4.11368e-16)
(0 -2.03521e-15 -4.59099e-16)
(0 -3.96869e-09 -1.73278e-10)
(0 -3.85721e-09 -1.6841e-10)
(0 -3.69871e-09 -1.6149e-10)
(0 -3.40807e-09 -1.488e-10)
(0 -3.09914e-09 -1.35312e-10)
(0 -2.79895e-09 -1.22205e-10)
(0 -2.49513e-09 -1.0894e-10)
(0 -2.20602e-09 -9.63175e-11)
(0 -1.92952e-09 -8.42453e-11)
(0 -1.65031e-09 -7.20545e-11)
(0 -1.37084e-09 -5.98528e-11)
(0 -1.08995e-09 -4.75885e-11)
(0 -8.03883e-10 -3.50987e-11)
(0 -5.19427e-10 -2.26791e-11)
(0 -2.54547e-10 -1.11142e-11)
(5.00044e-05 4.51917e-09 -1.97311e-10)
(5.00044e-05 4.51917e-09 1.97311e-10)
(5.00044e-05 2.262e-09 9.87607e-11)
(5.00044e-05 2.262e-09 -9.87609e-11)
(5.00044e-05 6.79087e-09 -2.96496e-10)
(5.00044e-05 6.79087e-09 2.96496e-10)
(5.00045e-05 9.05653e-09 -3.95416e-10)
(5.00045e-05 9.05653e-09 3.95417e-10)
(5.00045e-05 1.13329e-08 -4.94807e-10)
(5.00045e-05 1.13329e-08 4.94808e-10)
(5.00045e-05 1.3596e-08 -5.93612e-10)
(5.00045e-05 1.3596e-08 5.93614e-10)
(5.00045e-05 1.58568e-08 -6.92324e-10)
(5.00045e-05 1.58568e-08 6.92325e-10)
(5.00045e-05 1.80805e-08 -7.89411e-10)
(5.00045e-05 1.80805e-08 7.89412e-10)
(5.00044e-05 2.02649e-08 -8.84787e-10)
(5.00044e-05 2.02649e-08 8.84788e-10)
(5.00042e-05 2.23445e-08 -9.7558e-10)
(5.00042e-05 2.23445e-08 9.75582e-10)
(5.00039e-05 2.42705e-08 -1.05967e-09)
(5.00039e-05 2.42705e-08 1.05968e-09)
(5.00032e-05 2.59061e-08 -1.13108e-09)
(5.00032e-05 2.59061e-08 1.13109e-09)
(5.00019e-05 2.70958e-08 -1.18303e-09)
(5.00019e-05 2.70958e-08 1.18303e-09)
(4.99995e-05 2.75949e-08 -1.20482e-09)
(4.99995e-05 2.75949e-08 1.20482e-09)
(4.99952e-05 2.71015e-08 -1.18328e-09)
(4.99952e-05 2.71015e-08 1.18328e-09)
(4.99872e-05 2.59542e-08 -1.13319e-09)
(4.99872e-05 2.59542e-08 1.13319e-09)
(5.00044e-05 1.3911e-17 -3.71519e-16)
(5.00056e-05 3.7298e-09 -1.62846e-10)
(5.00056e-05 3.7298e-09 1.62846e-10)
(5.00056e-05 1.86811e-09 8.15634e-11)
(5.00056e-05 1.86811e-09 -8.15635e-11)
(5.00056e-05 5.58437e-09 -2.43819e-10)
(5.00056e-05 5.58437e-09 2.43819e-10)
(5.00056e-05 7.41618e-09 -3.23798e-10)
(5.00056e-05 7.41618e-09 3.23798e-10)
(5.00056e-05 9.22548e-09 -4.02793e-10)
(5.00056e-05 9.22548e-09 4.02794e-10)
(5.00056e-05 1.09874e-08 -4.79719e-10)
(5.00056e-05 1.09874e-08 4.7972e-10)
(5.00055e-05 1.26953e-08 -5.5429e-10)
(5.00055e-05 1.26953e-08 5.54291e-10)
(5.00053e-05 1.43081e-08 -6.24705e-10)
(5.00053e-05 1.43081e-08 6.24706e-10)
(5.00051e-05 1.58028e-08 -6.89966e-10)
(5.00051e-05 1.58028e-08 6.89968e-10)
(5.00046e-05 1.71083e-08 -7.46966e-10)
(5.00046e-05 1.71083e-08 7.46968e-10)
(5.00039e-05 1.81742e-08 -7.93502e-10)
(5.00039e-05 1.81742e-08 7.93503e-10)
(5.00028e-05 1.88872e-08 -8.24632e-10)
(5.00028e-05 1.88872e-08 8.24633e-10)
(5.00009e-05 1.91718e-08 -8.37057e-10)
(5.00009e-05 1.91718e-08 8.37059e-10)
(4.9998e-05 1.8923e-08 -8.26196e-10)
(4.9998e-05 1.8923e-08 8.26198e-10)
(4.99936e-05 1.8186e-08 -7.94018e-10)
(4.99936e-05 1.8186e-08 7.9402e-10)
(4.99873e-05 1.73071e-08 -7.55642e-10)
(4.99873e-05 1.73071e-08 7.55644e-10)
(5.00056e-05 1.39114e-17 -3.71528e-16)
(5.00063e-05 2.94949e-09 -1.28777e-10)
(5.00063e-05 2.94949e-09 1.28777e-10)
(5.00063e-05 1.47957e-09 6.45991e-11)
(5.00063e-05 1.47957e-09 -6.45993e-11)
(5.00062e-05 4.39945e-09 -1.92084e-10)
(5.00062e-05 4.39945e-09 1.92084e-10)
(5.00062e-05 5.81297e-09 -2.538e-10)
(5.00062e-05 5.81297e-09 2.538e-10)
(5.00061e-05 7.1808e-09 -3.1352e-10)
(5.00061e-05 7.1808e-09 3.13521e-10)
(5.00059e-05 8.47642e-09 -3.70088e-10)
(5.00059e-05 8.47642e-09 3.70089e-10)
(5.00057e-05 9.68511e-09 -4.22861e-10)
(5.00057e-05 9.68511e-09 4.22861e-10)
(5.00054e-05 1.07654e-08 -4.7003e-10)
(5.00054e-05 1.07654e-08 4.7003e-10)
(5.0005e-05 1.1692e-08 -5.10484e-10)
(5.0005e-05 1.1692e-08 5.10485e-10)
(5.00043e-05 1.24036e-08 -5.41554e-10)
(5.00043e-05 1.24036e-08 5.41555e-10)
(5.00033e-05 1.28687e-08 -5.61858e-10)
(5.00033e-05 1.28687e-08 5.61859e-10)
(5.00018e-05 1.30138e-08 -5.68193e-10)
(5.00018e-05 1.30138e-08 5.68194e-10)
(4.99997e-05 1.28386e-08 -5.60543e-10)
(4.99997e-05 1.28386e-08 5.60544e-10)
(4.99967e-05 1.23221e-08 -5.37997e-10)
(4.99967e-05 1.23221e-08 5.37997e-10)
(4.99927e-05 1.16601e-08 -5.09092e-10)
(4.99927e-05 1.16601e-08 5.09093e-10)
(4.99878e-05 1.11114e-08 -4.85133e-10)
(4.99878e-05 1.11114e-08 4.85134e-10)
(5.00063e-05 1.39115e-17 -3.71533e-16)
(5.00063e-05 2.20675e-09 -9.63487e-11)
(5.00063e-05 2.20675e-09 9.63486e-11)
(5.00063e-05 1.10937e-09 4.8436e-11)
(5.00063e-05 1.10937e-09 -4.84363e-11)
(5.00062e-05 3.2769e-09 -1.43072e-10)
(5.00062e-05 3.2769e-09 1.43072e-10)
(5.00061e-05 4.30193e-09 -1.87826e-10)
(5.00061e-05 4.30193e-09 1.87826e-10)
(5.00059e-05 5.26841e-09 -2.30024e-10)
(5.00059e-05 5.26841e-09 2.30024e-10)
(5.00057e-05 6.14988e-09 -2.6851e-10)
(5.00057e-05 6.14988e-09 2.6851e-10)
(5.00053e-05 6.93007e-09 -3.02573e-10)
(5.00053e-05 6.93007e-09 3.02574e-10)
(5.00049e-05 7.57237e-09 -3.30617e-10)
(5.00049e-05 7.57237e-09 3.30617e-10)
(5.00042e-05 8.05718e-09 -3.51784e-10)
(5.00042e-05 8.05718e-09 3.51785e-10)
(5.00033e-05 8.33966e-09 -3.64117e-10)
(5.00033e-05 8.33966e-09 3.64118e-10)
(5.00021e-05 8.41019e-09 -3.67197e-10)
(5.00021e-05 8.41019e-09 3.67197e-10)
(5.00004e-05 8.23174e-09 -3.59406e-10)
(5.00004e-05 8.23174e-09 3.59406e-10)
(4.99982e-05 7.84876e-09 -3.42684e-10)
(4.99982e-05 7.84876e-09 3.42685e-10)
(4.99954e-05 7.28293e-09 -3.1798e-10)
(4.99954e-05 7.28293e-09 3.1798e-10)
(4.99919e-05 6.73795e-09 -2.94185e-10)
(4.99919e-05 6.73795e-09 2.94186e-10)
(4.9988e-05 6.36654e-09 -2.77969e-10)
(4.9988e-05 6.36654e-09 2.77969e-10)
(5.00063e-05 1.39116e-17 -3.71534e-16)
(5.00058e-05 1.52767e-09 -6.66996e-11)
(5.00058e-05 1.52767e-09 6.66994e-11)
(5.00059e-05 7.70361e-10 3.36344e-11)
(5.00059e-05 7.70361e-10 -3.36347e-11)
(5.00057e-05 2.2549e-09 -9.8451e-11)
(5.00057e-05 2.2549e-09 9.84508e-11)
(5.00055e-05 2.93376e-09 -1.28091e-10)
(5.00055e-05 2.93376e-09 1.28091e-10)
(5.00052e-05 3.55013e-09 -1.55002e-10)
(5.00052e-05 3.55013e-09 1.55002e-10)
(5.00049e-05 4.07954e-09 -1.78117e-10)
(5.00049e-05 4.07954e-09 1.78117e-10)
(5.00044e-05 4.50795e-09 -1.96821e-10)
(5.00044e-05 4.50795e-09 1.96821e-10)
(5.00038e-05 4.80597e-09 -2.09833e-10)
(5.00038e-05 4.80597e-09 2.09833e-10)
(5.0003e-05 4.96246e-09 -2.16666e-10)
(5.0003e-05 4.96246e-09 2.16666e-10)
(5.0002e-05 4.94878e-09 -2.16069e-10)
(5.0002e-05 4.94878e-09 2.16069e-10)
(5.00006e-05 4.77242e-09 -2.08368e-10)
(5.00006e-05 4.77242e-09 2.08369e-10)
(4.99989e-05 4.42191e-09 -1.93065e-10)
(4.99989e-05 4.42191e-09 1.93065e-10)
(4.99968e-05 3.9603e-09 -1.7291e-10)
(4.99968e-05 3.9603e-09 1.7291e-10)
(4.99942e-05 3.42345e-09 -1.49471e-10)
(4.99942e-05 3.42345e-09 1.49471e-10)
(4.99912e-05 2.98597e-09 -1.3037e-10)
(4.99912e-05 2.98597e-09 1.3037e-10)
(4.99881e-05 2.73329e-09 -1.19338e-10)
(4.99881e-05 2.73329e-09 1.19338e-10)
(5.00059e-05 1.39114e-17 -3.7153e-16)
(5.00048e-05 9.27031e-10 -4.04751e-11)
(5.00048e-05 9.27031e-10 4.04748e-11)
(5.00049e-05 4.69956e-10 2.05184e-11)
(5.00049e-05 4.69956e-10 -2.05188e-11)
(5.00047e-05 1.35456e-09 -5.91415e-11)
(5.00047e-05 1.35456e-09 5.91413e-11)
(5.00044e-05 1.73514e-09 -7.57577e-11)
(5.00044e-05 1.73514e-09 7.57575e-11)
(5.00041e-05 2.05611e-09 -8.97717e-11)
(5.00041e-05 2.05611e-09 8.97716e-11)
(5.00037e-05 2.29632e-09 -1.0026e-10)
(5.00037e-05 2.29632e-09 1.00259e-10)
(5.00031e-05 2.44567e-09 -1.0678e-10)
(5.00031e-05 2.44567e-09 1.0678e-10)
(5.00024e-05 2.48247e-09 -1.08387e-10)
(5.00024e-05 2.48247e-09 1.08387e-10)
(5.00015e-05 2.40354e-09 -1.04941e-10)
(5.00015e-05 2.40354e-09 1.04941e-10)
(5.00004e-05 2.19347e-09 -9.5769e-11)
(5.00004e-05 2.19347e-09 9.57689e-11)
(4.9999e-05 1.87027e-09 -8.16577e-11)
(4.9999e-05 1.87027e-09 8.16575e-11)
(4.99973e-05 1.4377e-09 -6.27714e-11)
(4.99973e-05 1.4377e-09 6.27712e-11)
(4.99953e-05 9.60521e-10 -4.19373e-11)
(4.99953e-05 9.60521e-10 4.1937e-11)
(4.9993e-05 4.74467e-10 -2.07157e-11)
(4.9993e-05 4.74467e-10 2.07154e-11)
(4.99905e-05 1.13386e-10 -4.95057e-12)
(4.99905e-05 1.13386e-10 4.95018e-12)
(4.9988e-05 -8.17649e-11 3.56991e-12)
(4.9988e-05 -8.17649e-11 -3.57031e-12)
(5.0005e-05 1.39112e-17 -3.71523e-16)
(5.00035e-05 4.11345e-10 -1.79597e-11)
(5.00035e-05 4.11345e-10 1.79594e-11)
(5.00036e-05 2.11566e-10 9.2368e-12)
(5.00036e-05 2.11566e-10 -9.23718e-12)
(5.00033e-05 5.84512e-10 -2.55204e-11)
(5.00033e-05 5.84512e-10 2.552e-11)
(5.0003e-05 7.15468e-10 -3.1238e-11)
(5.0003e-05 7.15468e-10 3.12377e-11)
(5.00027e-05 7.94201e-10 -3.46756e-11)
(5.00027e-05 7.94201e-10 3.46753e-11)
(5.00022e-05 8.03427e-10 -3.50784e-11)
(5.00022e-05 8.03427e-10 3.50781e-11)
(5.00015e-05 7.37324e-10 -3.21923e-11)
(5.00015e-05 7.37324e-10 3.2192e-11)
(5.00008e-05 5.81129e-10 -2.53727e-11)
(5.00008e-05 5.81129e-10 2.53723e-11)
(4.99998e-05 3.37739e-10 -1.4746e-11)
(4.99998e-05 3.37739e-10 1.47457e-11)
(4.99986e-05 1.26006e-12 -5.50442e-14)
(4.99986e-05 1.26006e-12 5.46411e-14)
(4.99973e-05 -4.05484e-10 1.77038e-11)
(4.99973e-05 -4.05484e-10 -1.77042e-11)
(4.99956e-05 -8.71227e-10 3.80386e-11)
(4.99956e-05 -8.71227e-10 -3.80391e-11)
(4.99938e-05 -1.33775e-09 5.84073e-11)
(4.99938e-05 -1.33775e-09 -5.84079e-11)
(4.99918e-05 -1.77522e-09 7.75075e-11)
(4.99918e-05 -1.77522e-09 -7.75081e-11)
(4.99898e-05 -2.0854e-09 9.10503e-11)
(4.99898e-05 -2.0854e-09 -9.10509e-11)
(4.99878e-05 -2.25343e-09 9.83869e-11)
(4.99878e-05 -2.25343e-09 -9.83875e-11)
(5.00037e-05 1.39108e-17 -3.71514e-16)
(5.00019e-05 -1.95114e-11 8.51859e-13)
(5.00019e-05 -1.95114e-11 -8.52259e-13)
(5.0002e-05 -4.70773e-12 -2.05916e-13)
(5.0002e-05 -4.70773e-12 2.05518e-13)
(5.00016e-05 -5.65284e-11 2.46806e-12)
(5.00016e-05 -5.65284e-11 -2.46846e-12)
(5.00013e-05 -1.29014e-10 5.63283e-12)
(5.00013e-05 -1.29014e-10 -5.63325e-12)
(5.00009e-05 -2.43898e-10 1.06488e-11)
(5.00009e-05 -2.43898e-10 -1.06492e-11)
(5.00004e-05 -4.14604e-10 1.8102e-11)
(5.00004e-05 -4.14604e-10 -1.81024e-11)
(4.99997e-05 -6.43075e-10 2.80772e-11)
(4.99997e-05 -6.43075e-10 -2.80777e-11)
(4.99989e-05 -9.38489e-10 4.09753e-11)
(4.99989e-05 -9.38489e-10 -4.09758e-11)
(4.99979e-05 -1.29391e-09 5.64931e-11)
(4.99979e-05 -1.29391e-09 -5.64937e-11)
(4.99968e-05 -1.70914e-09 7.46224e-11)
(4.99968e-05 -1.70914e-09 -7.4623e-11)
(4.99955e-05 -2.16052e-09 9.43303e-11)
(4.99955e-05 -2.16052e-09 -9.4331e-11)
(4.9994e-05 -2.63427e-09 1.15015e-10)
(4.9994e-05 -2.63427e-09 -1.15015e-10)
(4.99923e-05 -3.08202e-09 1.34564e-10)
(4.99923e-05 -3.08202e-09 -1.34565e-10)
(4.99906e-05 -3.48134e-09 1.51998e-10)
(4.99906e-05 -3.48134e-09 -1.51999e-10)
(4.99889e-05 -3.76272e-09 1.64284e-10)
(4.99889e-05 -3.76272e-09 -1.64284e-10)
(4.99874e-05 -3.9267e-09 1.71443e-10)
(4.99874e-05 -3.9267e-09 -1.71444e-10)
(5.0002e-05 1.39104e-17 -3.71502e-16)
(5e-05 -3.70428e-10 1.61732e-11)
(5e-05 -3.70428e-10 -1.61736e-11)
(5.00001e-05 -1.81158e-10 -7.90994e-12)
(5.00001e-05 -1.81158e-10 7.90952e-12)
(4.99997e-05 -5.76832e-10 2.5185e-11)
(4.99997e-05 -5.76832e-10 -2.51855e-11)
(4.99994e-05 -8.11119e-10 3.54142e-11)
(4.99994e-05 -8.11119e-10 -3.54147e-11)
(4.9999e-05 -1.07714e-09 4.7029e-11)
(4.9999e-05 -1.07714e-09 -4.70295e-11)
(4.99984e-05 -1.38486e-09 6.04642e-11)
(4.99984e-05 -1.38486e-09 -6.04647e-11)
(4.99977e-05 -1.73305e-09 7.56665e-11)
(4.99977e-05 -1.73305e-09 -7.56671e-11)
(4.99969e-05 -2.12675e-09 9.28557e-11)
(4.99969e-05 -2.12675e-09 -9.28563e-11)
(4.9996e-05 -2.55675e-09 1.1163e-10)
(4.9996e-05 -2.55675e-09 -1.11631e-10)
(4.99949e-05 -3.01943e-09 1.31831e-10)
(4.99949e-05 -3.01943e-09 -1.31832e-10)
(4.99937e-05 -3.49272e-09 1.52496e-10)
(4.99937e-05 -3.49272e-09 -1.52496e-10)
(4.99923e-05 -3.96312e-09 1.73033e-10)
(4.99923e-05 -3.96312e-09 -1.73034e-10)
(4.99909e-05 -4.39252e-09 1.91782e-10)
(4.99909e-05 -4.39252e-09 -1.91782e-10)
(4.99894e-05 -4.76534e-09 2.08059e-10)
(4.99894e-05 -4.76534e-09 -2.0806e-10)
(4.9988e-05 -5.03381e-09 2.19781e-10)
(4.9988e-05 -5.03381e-09 -2.19782e-10)
(4.99868e-05 -5.20685e-09 2.27336e-10)
(4.99868e-05 -5.20685e-09 -2.27337e-10)
(5.00002e-05 1.39098e-17 -3.71488e-16)
(4.99979e-05 -6.4927e-10 2.83477e-11)
(4.99979e-05 -6.4927e-10 -2.83482e-11)
(4.9998e-05 -3.21602e-10 -1.40419e-11)
(4.9998e-05 -3.21602e-10 1.40414e-11)
(4.99977e-05 -9.88906e-10 4.31765e-11)
(4.99977e-05 -9.88906e-10 -4.3177e-11)
(4.99973e-05 -1.34885e-09 5.88919e-11)
(4.99973e-05 -1.34885e-09 -5.88924e-11)
(4.99969e-05 -1.73013e-09 7.55392e-11)
(4.99969e-05 -1.73013e-09 -7.55398e-11)
(4.99963e-05 -2.13983e-09 9.34271e-11)
(4.99963e-05 -2.13983e-09 -9.34278e-11)
(4.99957e-05 -2.57434e-09 1.12398e-10)
(4.99957e-05 -2.57434e-09 -1.12399e-10)
(4.99949e-05 -3.03583e-09 1.32547e-10)
(4.99949e-05 -3.03583e-09 -1.32548e-10)
(4.9994e-05 -3.51418e-09 1.53432e-10)
(4.9994e-05 -3.51418e-09 -1.53433e-10)
(4.9993e-05 -4.00418e-09 1.74826e-10)
(4.9993e-05 -4.00418e-09 -1.74827e-10)
(4.99918e-05 -4.4866e-09 1.95889e-10)
(4.99918e-05 -4.4866e-09 -1.9589e-10)
(4.99906e-05 -4.94959e-09 2.16104e-10)
(4.99906e-05 -4.94959e-09 -2.16105e-10)
(4.99894e-05 -5.36448e-09 2.34218e-10)
(4.99894e-05 -5.36448e-09 -2.34219e-10)
(4.99882e-05 -5.72128e-09 2.49796e-10)
(4.99882e-05 -5.72128e-09 -2.49798e-10)
(4.9987e-05 -5.98842e-09 2.6146e-10)
(4.9987e-05 -5.98842e-09 -2.61461e-10)
(4.99861e-05 -6.17906e-09 2.69783e-10)
(4.99861e-05 -6.17906e-09 -2.69784e-10)
(4.99981e-05 1.39093e-17 -3.71472e-16)
(4.99957e-05 -8.65493e-10 3.77882e-11)
(4.99957e-05 -8.65493e-10 -3.77887e-11)
(4.99959e-05 -4.30684e-10 -1.88045e-11)
(4.99959e-05 -4.30684e-10 1.8804e-11)
(4.99955e-05 -1.30741e-09 5.70828e-11)
(4.99955e-05 -1.30741e-09 -5.70833e-11)
(4.99952e-05 -1.76262e-09 7.69578e-11)
(4.99952e-05 -1.76262e-09 -7.69584e-11)
(4.99947e-05 -2.22975e-09 9.7353e-11)
(4.99947e-05 -2.22975e-09 -9.73536e-11)
(4.99942e-05 -2.71358e-09 1.18478e-10)
(4.99942e-05 -2.71358e-09 -1.18478e-10)
(4.99935e-05 -3.20884e-09 1.40101e-10)
(4.99935e-05 -3.20884e-09 -1.40102e-10)
(4.99928e-05 -3.71585e-09 1.62238e-10)
(4.99928e-05 -3.71585e-09 -1.62238e-10)
(4.9992e-05 -4.22451e-09 1.84446e-10)
(4.9992e-05 -4.22451e-09 -1.84447e-10)
(4.9991e-05 -4.72922e-09 2.06482e-10)
(4.9991e-05 -4.72922e-09 -2.06483e-10)
(4.999e-05 -5.21405e-09 2.2765e-10)
(4.999e-05 -5.21405e-09 -2.27651e-10)
(4.9989e-05 -5.66929e-09 2.47526e-10)
(4.9989e-05 -5.66929e-09 -2.47527e-10)
(4.99879e-05 -6.07432e-09 2.65211e-10)
(4.99879e-05 -6.07432e-09 -2.65212e-10)
(4.99869e-05 -6.42342e-09 2.80453e-10)
(4.99869e-05 -6.42342e-09 -2.80454e-10)
(4.99859e-05 -6.69697e-09 2.92396e-10)
(4.99859e-05 -6.69697e-09 -2.92397e-10)
(4.99852e-05 -6.90977e-09 3.01687e-10)
(4.99852e-05 -6.90977e-09 -3.01688e-10)
(4.99959e-05 1.39087e-17 -3.71456e-16)
(4.99935e-05 -1.02905e-09 4.49292e-11)
(4.99935e-05 -1.02905e-09 -4.49297e-11)
(4.99936e-05 -5.13331e-10 -2.2413e-11)
(4.99936e-05 -5.13331e-10 2.24125e-11)
(4.99932e-05 -1.54756e-09 6.75678e-11)
(4.99932e-05 -1.54756e-09 -6.75683e-11)
(4.99929e-05 -2.07322e-09 9.05188e-11)
(4.99929e-05 -2.07322e-09 -9.05194e-11)
(4.99925e-05 -2.60266e-09 1.13635e-10)
(4.99925e-05 -2.60266e-09 -1.13635e-10)
(4.9992e-05 -3.13898e-09 1.37051e-10)
(4.9992e-05 -3.13898e-09 -1.37051e-10)
(4.99914e-05 -3.67577e-09 1.60487e-10)
(4.99914e-05 -3.67577e-09 -1.60488e-10)
(4.99907e-05 -4.21233e-09 1.83914e-10)
(4.99907e-05 -4.21233e-09 -1.83915e-10)
(4.99899e-05 -4.73909e-09 2.06913e-10)
(4.99899e-05 -4.73909e-09 -2.06914e-10)
(4.99891e-05 -5.2508e-09 2.29255e-10)
(4.99891e-05 -5.2508e-09 -2.29256e-10)
(4.99882e-05 -5.73479e-09 2.50386e-10)
(4.99882e-05 -5.73479e-09 -2.50387e-10)
(4.99873e-05 -6.18352e-09 2.69978e-10)
(4.99873e-05 -6.18352e-09 -2.69979e-10)
(4.99864e-05 -6.58302e-09 2.87421e-10)
(4.99864e-05 -6.58302e-09 -2.87422e-10)
(4.99855e-05 -6.93062e-09 3.02597e-10)
(4.99855e-05 -6.93062e-09 -3.02598e-10)
(4.99848e-05 -7.21549e-09 3.15035e-10)
(4.99848e-05 -7.21549e-09 -3.15036e-10)
(4.99842e-05 -7.45263e-09 3.25389e-10)
(4.99842e-05 -7.45263e-09 -3.2539e-10)
(4.99937e-05 1.3908e-17 -3.71439e-16)
(4.99912e-05 -1.14966e-09 5.01953e-11)
(4.99912e-05 -1.14966e-09 -5.01959e-11)
(4.99913e-05 -5.74385e-10 -2.50786e-11)
(4.99913e-05 -5.74385e-10 2.50782e-11)
(4.99909e-05 -1.72406e-09 7.52739e-11)
(4.99909e-05 -1.72406e-09 -7.52745e-11)
(4.99906e-05 -2.30045e-09 1.0044e-10)
(4.99906e-05 -2.30045e-09 -1.00441e-10)
(4.99903e-05 -2.87388e-09 1.25476e-10)
(4.99903e-05 -2.87388e-09 -1.25477e-10)
(4.99898e-05 -3.44623e-09 1.50466e-10)
(4.99898e-05 -3.44623e-09 -1.50466e-10)
(4.99892e-05 -4.01042e-09 1.75099e-10)
(4.99892e-05 -4.01042e-09 -1.75099e-10)
(4.99886e-05 -4.56528e-09 1.99324e-10)
(4.99886e-05 -4.56528e-09 -1.99325e-10)
(4.99879e-05 -5.10205e-09 2.2276e-10)
(4.99879e-05 -5.10205e-09 -2.22761e-10)
(4.99872e-05 -5.61619e-09 2.45208e-10)
(4.99872e-05 -5.61619e-09 -2.45209e-10)
(4.99864e-05 -6.09803e-09 2.66246e-10)
(4.99864e-05 -6.09803e-09 -2.66247e-10)
(4.99856e-05 -6.542e-09 2.8563e-10)
(4.99856e-05 -6.542e-09 -2.85631e-10)
(4.99848e-05 -6.93944e-09 3.02983e-10)
(4.99848e-05 -6.93944e-09 -3.02984e-10)
(4.99841e-05 -7.28982e-09 3.1828e-10)
(4.99841e-05 -7.28982e-09 -3.18282e-10)
(4.99835e-05 -7.58877e-09 3.31333e-10)
(4.99835e-05 -7.58877e-09 -3.31334e-10)
(4.99831e-05 -7.8506e-09 3.42765e-10)
(4.99831e-05 -7.8506e-09 -3.42766e-10)
(4.99913e-05 1.39074e-17 -3.71422e-16)
(4.99888e-05 -1.23637e-09 5.39812e-11)
(4.99888e-05 -1.23637e-09 -5.39817e-11)
(4.9989e-05 -6.18359e-10 -2.69986e-11)
(4.9989e-05 -6.18359e-10 2.69981e-11)
(4.99886e-05 -1.85047e-09 8.07932e-11)
(4.99886e-05 -1.85047e-09 -8.07938e-11)
(4.99884e-05 -2.46239e-09 1.0751e-10)
(4.99884e-05 -2.46239e-09 -1.07511e-10)
(4.9988e-05 -3.06591e-09 1.3386e-10)
(4.9988e-05 -3.06591e-09 -1.33861e-10)
(4.99876e-05 -3.66212e-09 1.59892e-10)
(4.99876e-05 -3.66212e-09 -1.59893e-10)
(4.99871e-05 -4.24357e-09 1.85278e-10)
(4.99871e-05 -4.24357e-09 -1.85279e-10)
(4.99865e-05 -4.80898e-09 2.09965e-10)
(4.99865e-05 -4.80898e-09 -2.09966e-10)
(4.99859e-05 -5.35052e-09 2.33609e-10)
(4.99859e-05 -5.35052e-09 -2.3361e-10)
(4.99853e-05 -5.86451e-09 2.5605e-10)
(4.99853e-05 -5.86451e-09 -2.56051e-10)
(4.99846e-05 -6.3439e-09 2.76981e-10)
(4.99846e-05 -6.3439e-09 -2.76982e-10)
(4.99839e-05 -6.78479e-09 2.9623e-10)
(4.99839e-05 -6.78479e-09 -2.96231e-10)
(4.99832e-05 -7.18273e-09 3.13605e-10)
(4.99832e-05 -7.18273e-09 -3.13606e-10)
(4.99827e-05 -7.53857e-09 3.29141e-10)
(4.99827e-05 -7.53857e-09 -3.29142e-10)
(4.99822e-05 -7.85274e-09 3.42858e-10)
(4.99822e-05 -7.85274e-09 -3.42859e-10)
(4.99818e-05 -8.1384e-09 3.5533e-10)
(4.99818e-05 -8.1384e-09 -3.55331e-10)
(4.9989e-05 1.39067e-17 -3.71405e-16)
(4.99865e-05 -1.29728e-09 5.66403e-11)
(4.99865e-05 -1.29728e-09 -5.66408e-11)
(4.99866e-05 -6.49311e-10 -2.835e-11)
(4.99866e-05 -6.49311e-10 2.83495e-11)
(4.99863e-05 -1.93888e-09 8.46533e-11)
(4.99863e-05 -1.93888e-09 -8.46539e-11)
(4.99861e-05 -2.575e-09 1.12427e-10)
(4.99861e-05 -2.575e-09 -1.12427e-10)
(4.99858e-05 -3.19844e-09 1.39647e-10)
(4.99858e-05 -3.19844e-09 -1.39648e-10)
(4.99854e-05 -3.80983e-09 1.66341e-10)
(4.99854e-05 -3.80983e-09 -1.66342e-10)
(4.9985e-05 -4.4015e-09 1.92174e-10)
(4.9985e-05 -4.4015e-09 -1.92175e-10)
(4.99845e-05 -4.97233e-09 2.17096e-10)
(4.99845e-05 -4.97233e-09 -2.17097e-10)
(4.99839e-05 -5.51538e-09 2.40807e-10)
(4.99839e-05 -5.51538e-09 -2.40808e-10)
(4.99834e-05 -6.02788e-09 2.63183e-10)
(4.99834e-05 -6.02788e-09 -2.63184e-10)
(4.99828e-05 -6.50498e-09 2.84014e-10)
(4.99828e-05 -6.50498e-09 -2.84015e-10)
(4.99822e-05 -6.94415e-09 3.03188e-10)
(4.99822e-05 -6.94415e-09 -3.03189e-10)
(4.99817e-05 -7.34423e-09 3.20656e-10)
(4.99817e-05 -7.34423e-09 -3.20657e-10)
(4.99812e-05 -7.70694e-09 3.36492e-10)
(4.99812e-05 -7.70694e-09 -3.36493e-10)
(4.99808e-05 -8.03628e-09 3.50871e-10)
(4.99808e-05 -8.03628e-09 -3.50873e-10)
(4.99805e-05 -8.34403e-09 3.64308e-10)
(4.99805e-05 -8.34403e-09 -3.6431e-10)
(4.99867e-05 1.39061e-17 -3.71387e-16)
(4.99842e-05 -1.33943e-09 5.84809e-11)
(4.99842e-05 -1.33943e-09 -5.84815e-11)
(4.99843e-05 -6.70788e-10 -2.92877e-11)
(4.99843e-05 -6.70788e-10 2.92872e-11)
(4.9984e-05 -1.99977e-09 8.7312e-11)
(4.9984e-05 -1.99977e-09 -8.73126e-11)
(4.99838e-05 -2.65205e-09 1.15791e-10)
(4.99838e-05 -2.65205e-09 -1.15792e-10)
(4.99835e-05 -3.28834e-09 1.43572e-10)
(4.99835e-05 -3.28834e-09 -1.43573e-10)
(4.99832e-05 -3.90898e-09 1.7067e-10)
(4.99832e-05 -3.90898e-09 -1.7067e-10)
(4.99828e-05 -4.50625e-09 1.96747e-10)
(4.99828e-05 -4.50625e-09 -1.96748e-10)
(4.99824e-05 -5.07928e-09 2.21766e-10)
(4.99824e-05 -5.07928e-09 -2.21767e-10)
(4.9982e-05 -5.62197e-09 2.45461e-10)
(4.9982e-05 -5.62197e-09 -2.45462e-10)
(4.99815e-05 -6.13242e-09 2.67747e-10)
(4.99815e-05 -6.13242e-09 -2.67748e-10)
(4.9981e-05 -6.60755e-09 2.88492e-10)
(4.9981e-05 -6.60755e-09 -2.88493e-10)
(4.99805e-05 -7.04594e-09 3.07632e-10)
(4.99805e-05 -7.04594e-09 -3.07634e-10)
(4.99801e-05 -7.44903e-09 3.25232e-10)
(4.99801e-05 -7.44903e-09 -3.25233e-10)
(4.99797e-05 -7.819e-09 3.41385e-10)
(4.99797e-05 -7.819e-09 -3.41386e-10)
(4.99794e-05 -8.16257e-09 3.56385e-10)
(4.99794e-05 -8.16257e-09 -3.56387e-10)
(4.99792e-05 -8.49011e-09 3.70686e-10)
(4.99792e-05 -8.49011e-09 -3.70687e-10)
(4.99843e-05 1.39054e-17 -3.7137e-16)
(4.99819e-05 -1.36887e-09 5.97663e-11)
(4.99819e-05 -1.36887e-09 -5.97669e-11)
(4.9982e-05 -6.85823e-10 -2.99441e-11)
(4.9982e-05 -6.85823e-10 2.99437e-11)
(4.99818e-05 -2.04207e-09 8.91586e-11)
(4.99818e-05 -2.04207e-09 -8.91593e-11)
(4.99816e-05 -2.70519e-09 1.18111e-10)
(4.99816e-05 -2.70519e-09 -1.18112e-10)
(4.99813e-05 -3.34976e-09 1.46254e-10)
(4.99813e-05 -3.34976e-09 -1.46254e-10)
(4.99811e-05 -3.97595e-09 1.73594e-10)
(4.99811e-05 -3.97595e-09 -1.73594e-10)
(4.99807e-05 -4.57605e-09 1.99794e-10)
(4.99807e-05 -4.57605e-09 -1.99795e-10)
(4.99804e-05 -5.14952e-09 2.24833e-10)
(4.99804e-05 -5.14952e-09 -2.24834e-10)
(4.998e-05 -5.69095e-09 2.48472e-10)
(4.998e-05 -5.69095e-09 -2.48473e-10)
(4.99796e-05 -6.19924e-09 2.70664e-10)
(4.99796e-05 -6.19924e-09 -2.70666e-10)
(4.99792e-05 -6.67273e-09 2.91337e-10)
(4.99792e-05 -6.67273e-09 -2.91339e-10)
(4.99788e-05 -7.11091e-09 3.10469e-10)
(4.99788e-05 -7.11091e-09 -3.1047e-10)
(4.99784e-05 -7.5172e-09 3.28208e-10)
(4.99784e-05 -7.5172e-09 -3.28209e-10)
(4.99781e-05 -7.89405e-09 3.44661e-10)
(4.99781e-05 -7.89405e-09 -3.44663e-10)
(4.99779e-05 -8.25026e-09 3.60214e-10)
(4.99779e-05 -8.25026e-09 -3.60215e-10)
(4.99777e-05 -8.59484e-09 3.75259e-10)
(4.99777e-05 -8.59484e-09 -3.7526e-10)
(4.9982e-05 1.39048e-17 -3.71353e-16)
(4.99796e-05 -1.39065e-09 6.07171e-11)
(4.99796e-05 -1.39065e-09 -6.07176e-11)
(4.99797e-05 -6.96964e-10 -3.04306e-11)
(4.99797e-05 -6.96964e-10 3.04301e-11)
(4.99795e-05 -2.07322e-09 9.05189e-11)
(4.99795e-05 -2.07322e-09 -9.05195e-11)
(4.99793e-05 -2.74414e-09 1.19811e-10)
(4.99793e-05 -2.74414e-09 -1.19812e-10)
(4.99792e-05 -3.39443e-09 1.48204e-10)
(4.99792e-05 -3.39443e-09 -1.48205e-10)
(4.99789e-05 -4.02424e-09 1.75702e-10)
(4.99789e-05 -4.02424e-09 -1.75703e-10)
(4.99787e-05 -4.62584e-09 2.01969e-10)
(4.99787e-05 -4.62584e-09 -2.0197e-10)
(4.99784e-05 -5.19906e-09 2.26996e-10)
(4.99784e-05 -5.19906e-09 -2.26997e-10)
(4.99781e-05 -5.73902e-09 2.50571e-10)
(4.99781e-05 -5.73902e-09 -2.50572e-10)
(4.99777e-05 -6.24533e-09 2.72677e-10)
(4.99777e-05 -6.24533e-09 -2.72678e-10)
(4.99774e-05 -6.71744e-09 2.9329e-10)
(4.99774e-05 -6.71744e-09 -2.93291e-10)
(4.99771e-05 -7.15561e-09 3.1242e-10)
(4.99771e-05 -7.15561e-09 -3.12422e-10)
(4.99768e-05 -7.56475e-09 3.30284e-10)
(4.99768e-05 -7.56475e-09 -3.30285e-10)
(4.99766e-05 -7.94748e-09 3.46994e-10)
(4.99766e-05 -7.94748e-09 -3.46996e-10)
(4.99763e-05 -8.31425e-09 3.63008e-10)
(4.99763e-05 -8.31425e-09 -3.63009e-10)
(4.99762e-05 -8.67284e-09 3.78664e-10)
(4.99762e-05 -8.67284e-09 -3.78666e-10)
(4.99797e-05 1.39042e-17 -3.71336e-16)
(4.99773e-05 -1.40894e-09 6.15155e-11)
(4.99773e-05 -1.40894e-09 -6.1516e-11)
(4.99774e-05 -7.06317e-10 -3.08389e-11)
(4.99774e-05 -7.06317e-10 3.08385e-11)
(4.99772e-05 -2.09938e-09 9.16609e-11)
(4.99772e-05 -2.09938e-09 -9.16616e-11)
(4.99771e-05 -2.77684e-09 1.21239e-10)
(4.99771e-05 -2.77684e-09 -1.2124e-10)
(4.9977e-05 -3.43197e-09 1.49843e-10)
(4.9977e-05 -3.43197e-09 -1.49844e-10)
(4.99768e-05 -4.06484e-09 1.77475e-10)
(4.99768e-05 -4.06484e-09 -1.77476e-10)
(4.99766e-05 -4.66776e-09 2.03799e-10)
(4.99766e-05 -4.66776e-09 -2.03799e-10)
(4.99764e-05 -5.24083e-09 2.2882e-10)
(4.99764e-05 -5.24083e-09 -2.28821e-10)
(4.99762e-05 -5.77959e-09 2.52342e-10)
(4.99762e-05 -5.77959e-09 -2.52343e-10)
(4.99759e-05 -6.28431e-09 2.74379e-10)
(4.99759e-05 -6.28431e-09 -2.7438e-10)
(4.99756e-05 -6.7552e-09 2.94938e-10)
(4.99756e-05 -6.7552e-09 -2.9494e-10)
(4.99754e-05 -7.19322e-09 3.14063e-10)
(4.99754e-05 -7.19322e-09 -3.14064e-10)
(4.99752e-05 -7.60444e-09 3.32017e-10)
(4.99752e-05 -7.60444e-09 -3.32018e-10)
(4.9975e-05 -7.99158e-09 3.4892e-10)
(4.9975e-05 -7.99158e-09 -3.48921e-10)
(4.99748e-05 -8.36645e-09 3.65287e-10)
(4.99748e-05 -8.36645e-09 -3.65288e-10)
(4.99747e-05 -8.73579e-09 3.81413e-10)
(4.99747e-05 -8.73579e-09 -3.81414e-10)
(4.99774e-05 1.39035e-17 -3.71319e-16)
(4.99751e-05 -1.42712e-09 6.23094e-11)
(4.99751e-05 -1.42712e-09 -6.231e-11)
(4.99751e-05 -7.15594e-10 -3.1244e-11)
(4.99751e-05 -7.15594e-10 3.12435e-11)
(4.9975e-05 -2.12552e-09 9.28022e-11)
(4.9975e-05 -2.12552e-09 -9.28029e-11)
(4.99749e-05 -2.80975e-09 1.22676e-10)
(4.99749e-05 -2.80975e-09 -1.22677e-10)
(4.99748e-05 -3.47011e-09 1.51508e-10)
(4.99748e-05 -3.47011e-09 -1.51509e-10)
(4.99747e-05 -4.1066e-09 1.79298e-10)
(4.99747e-05 -4.1066e-09 -1.79299e-10)
(4.99746e-05 -4.7115e-09 2.05708e-10)
(4.99746e-05 -4.7115e-09 -2.05709e-10)
(4.99744e-05 -5.28517e-09 2.30755e-10)
(4.99744e-05 -5.28517e-09 -2.30756e-10)
(4.99742e-05 -5.82335e-09 2.54253e-10)
(4.99742e-05 -5.82335e-09 -2.54254e-10)
(4.99741e-05 -6.32696e-09 2.76241e-10)
(4.99741e-05 -6.32696e-09 -2.76242e-10)
(4.99739e-05 -6.79671e-09 2.96751e-10)
(4.99739e-05 -6.79671e-09 -2.96752e-10)
(4.99737e-05 -7.23419e-09 3.15851e-10)
(4.99737e-05 -7.23419e-09 -3.15853e-10)
(4.99735e-05 -7.64635e-09 3.33847e-10)
(4.99735e-05 -7.64635e-09 -3.33848e-10)
(4.99733e-05 -8.03604e-09 3.50861e-10)
(4.99733e-05 -8.03604e-09 -3.50862e-10)
(4.99732e-05 -8.41627e-09 3.67462e-10)
(4.99732e-05 -8.41627e-09 -3.67463e-10)
(4.99731e-05 -8.79291e-09 3.83907e-10)
(4.99731e-05 -8.79291e-09 -3.83908e-10)
(4.99751e-05 1.39029e-17 -3.71302e-16)
(4.99728e-05 -1.4479e-09 6.32167e-11)
(4.99728e-05 -1.4479e-09 -6.32173e-11)
(4.99728e-05 -7.26158e-10 -3.17052e-11)
(4.99728e-05 -7.26158e-10 3.17047e-11)
(4.99728e-05 -2.15561e-09 9.41159e-11)
(4.99728e-05 -2.15561e-09 -9.41166e-11)
(4.99727e-05 -2.84799e-09 1.24346e-10)
(4.99727e-05 -2.84799e-09 -1.24346e-10)
(4.99727e-05 -3.51501e-09 1.53469e-10)
(4.99727e-05 -3.51501e-09 -1.53469e-10)
(4.99726e-05 -4.15653e-09 1.81478e-10)
(4.99726e-05 -4.15653e-09 -1.81479e-10)
(4.99725e-05 -4.76475e-09 2.08033e-10)
(4.99725e-05 -4.76475e-09 -2.08034e-10)
(4.99724e-05 -5.34022e-09 2.33159e-10)
(4.99724e-05 -5.34022e-09 -2.3316e-10)
(4.99723e-05 -5.87874e-09 2.56671e-10)
(4.99723e-05 -5.87874e-09 -2.56672e-10)
(4.99722e-05 -6.38182e-09 2.78636e-10)
(4.99722e-05 -6.38182e-09 -2.78637e-10)
(4.99721e-05 -6.8504e-09 2.99095e-10)
(4.99721e-05 -6.8504e-09 -2.99096e-10)
(4.9972e-05 -7.28673e-09 3.18145e-10)
(4.9972e-05 -7.28673e-09 -3.18147e-10)
(4.99719e-05 -7.6984e-09 3.36119e-10)
(4.99719e-05 -7.6984e-09 -3.36121e-10)
(4.99717e-05 -8.08848e-09 3.53151e-10)
(4.99717e-05 -8.08848e-09 -3.53152e-10)
(4.99716e-05 -8.47104e-09 3.69853e-10)
(4.99716e-05 -8.47104e-09 -3.69855e-10)
(4.99715e-05 -8.85135e-09 3.86458e-10)
(4.99715e-05 -8.85135e-09 -3.8646e-10)
(4.99728e-05 1.39022e-17 -3.71285e-16)
(4.99705e-05 -1.47336e-09 6.43281e-11)
(4.99705e-05 -1.47336e-09 -6.43287e-11)
(4.99705e-05 -7.39059e-10 -3.22685e-11)
(4.99705e-05 -7.39059e-10 3.2268e-11)
(4.99705e-05 -2.1927e-09 9.57353e-11)
(4.99705e-05 -2.1927e-09 -9.5736e-11)
(4.99705e-05 -2.89549e-09 1.2642e-10)