/*--------------------------------*- C++ -*----------------------------------*\
| =========                 |                                                 |
| \\      /  F ield         | OpenFOAM: The Open Source CFD Toolbox           |
|  \\    /   O peration     | Version:  4.1                                   |
|   \\  /    A nd           | Web:      www.OpenFOAM.org                      |
|    \\/     M anipulation  |                                                 |
\*---------------------------------------------------------------------------*/
FoamFile
{
    version     2.0;
    format      ascii;
    class       volVectorField;
    location    "0.0096";
    object      cellDisplacement;
}
// * * * * * * * * * * * * * * * * * * * * * * * * * * * * * * * * * * * * * //

dimensions      [0 1 0 0 0 0 0];

internalField   nonuniform List<vector> 
1536
(
(5.7883e-05 -3.6353e-05 1.2307e-08)
(6.1864e-05 -3.279e-05 1.1169e-08)
(6.5429e-05 -2.8475e-05 9.7766e-09)
(6.8532e-05 -2.3586e-05 8.2001e-09)
(7.1144e-05 -1.8356e-05 6.5045e-09)
(7.3238e-05 -1.3042e-05 4.7607e-09)
(7.4795e-05 -7.8932e-06 3.0545e-09)
(7.5804e-05 -3.1179e-06 1.4603e-09)
(7.6266e-05 1.1218e-06 3.7652e-11)
(7.6202e-05 4.7121e-06 -1.1719e-09)
(7.5657e-05 7.5841e-06 -2.1404e-09)
(7.4695e-05 9.7064e-06 -2.8488e-09)
(5.7809e-05 -3.1887e-05 5.3272e-06)
(6.1777e-05 -2.8767e-05 4.8065e-06)
(6.5332e-05 -2.4989e-05 4.176e-06)
(6.8429e-05 -2.0712e-05 3.4623e-06)
(7.1036e-05 -1.6138e-05 2.6989e-06)
(7.3126e-05 -1.149e-05 1.9229e-06)
(7.4682e-05 -6.9823e-06 1.1703e-06)
(7.5691e-05 -2.7993e-06 4.7177e-07)
(7.6158e-05 9.1737e-07 -1.488e-07)
(7.6103e-05 4.0673e-06 -6.7475e-07)
(7.5571e-05 6.5892e-06 -1.0961e-06)
(7.4624e-05 8.4537e-06 -1.4077e-06)
(5.7756e-05 -2.6976e-05 1.0779e-05)
(6.1716e-05 -2.4339e-05 9.7254e-06)
(6.5265e-05 -2.1147e-05 8.4508e-06)
(6.8357e-05 -1.7535e-05 7.0085e-06)
(7.096e-05 -1.3673e-05 5.4663e-06)
(7.3048e-05 -9.7485e-06 3.899e-06)
(7.4603e-05 -5.9416e-06 2.3786e-06)
(7.5613e-05 -2.4071e-06 9.6703e-07)
(7.6083e-05 7.3476e-07 -2.876e-07)
(7.6034e-05 3.3988e-06 -1.3515e-06)
(7.5511e-05 5.533e-06 -2.2039e-06)
(7.4573e-05 7.1111e-06 -2.8344e-06)
(5.773e-05 -2.1744e-05 1.6302e-05)
(6.1685e-05 -1.9619e-05 1.4709e-05)
(6.5231e-05 -1.7048e-05 1.2782e-05)
(6.832e-05 -1.414e-05 1.0602e-05)
(7.0921e-05 -1.1031e-05 8.2712e-06)
(7.3008e-05 -7.8708e-06 5.9025e-06)
(7.4562e-05 -4.8052e-06 3.6046e-06)
(7.5573e-05 -1.9585e-06 1.4707e-06)
(7.6045e-05 5.7265e-07 -4.2649e-07)
(7.5999e-05 2.7194e-06 -2.0356e-06)
(7.548e-05 4.4397e-06 -3.3251e-06)
(7.4548e-05 5.712e-06 -4.2788e-06)
(5.773e-05 -1.6301e-05 2.1744e-05)
(6.1685e-05 -1.4709e-05 1.9619e-05)
(6.5231e-05 -1.2782e-05 1.7048e-05)
(6.832e-05 -1.0602e-05 1.414e-05)
(7.0921e-05 -8.2716e-06 1.103e-05)
(7.3008e-05 -5.903e-06 7.8702e-06)
(7.4562e-05 -3.6052e-06 4.8046e-06)
(7.5573e-05 -1.4714e-06 1.9578e-06)
(7.6045e-05 4.2579e-07 -5.7333e-07)
(7.5999e-05 2.0349e-06 -2.7201e-06)
(7.548e-05 3.3244e-06 -4.4403e-06)
(7.4548e-05 4.2782e-06 -5.7125e-06)
(5.7756e-05 -1.0778e-05 2.6976e-05)
(6.1716e-05 -9.7248e-06 2.4338e-05)
(6.5265e-05 -8.4504e-06 2.1146e-05)
(6.8357e-05 -7.0084e-06 1.7534e-05)
(7.096e-05 -5.4665e-06 1.3672e-05)
(7.3048e-05 -3.8994e-06 9.7477e-06)
(7.4603e-05 -2.3791e-06 5.9408e-06)
(7.5613e-05 -9.6769e-07 2.4064e-06)
(7.6083e-05 2.8688e-07 -7.3541e-07)
(7.6035e-05 1.3507e-06 -3.3994e-06)
(7.5511e-05 2.2032e-06 -5.5335e-06)
(7.4574e-05 2.8337e-06 -7.1115e-06)
(5.7808e-05 -5.3263e-06 3.1886e-05)
(6.1777e-05 -4.8058e-06 2.8766e-05)
(6.5332e-05 -4.1756e-06 2.4988e-05)
(6.8429e-05 -3.4622e-06 2.0711e-05)
(7.1036e-05 -2.6991e-06 1.6137e-05)
(7.3126e-05 -1.9233e-06 1.1489e-05)
(7.4682e-05 -1.1709e-06 6.9815e-06)
(7.5692e-05 -4.7244e-07 2.7986e-06)
(7.6158e-05 1.4807e-07 -9.1798e-07)
(7.6103e-05 6.74e-07 -4.0678e-06)
(7.5571e-05 1.0953e-06 -6.5896e-06)
(7.4624e-05 1.4071e-06 -8.454e-06)
(5.7883e-05 -1.1593e-08 3.6352e-05)
(6.1864e-05 -1.0706e-08 3.2789e-05)
(6.5429e-05 -9.5704e-09 2.8473e-05)
(6.8533e-05 -8.2388e-09 2.3585e-05)
(7.1144e-05 -6.7714e-09 1.8354e-05)
(7.3238e-05 -5.2283e-09 1.3041e-05)
(7.4796e-05 -3.6706e-09 7.8923e-06)
(7.5804e-05 -2.1661e-09 3.1172e-06)
(7.6266e-05 -7.7688e-10 -1.1224e-06)
(7.6202e-05 4.453e-10 -4.7125e-06)
(7.5657e-05 1.4688e-09 -7.5844e-06)
(7.4695e-05 2.2743e-09 -9.7066e-06)
(5.7809e-05 -3.1886e-05 -5.3061e-06)
(6.1777e-05 -2.8765e-05 -4.7873e-06)
(6.5332e-05 -2.4988e-05 -4.1592e-06)
(6.8429e-05 -2.0711e-05 -3.4482e-06)
(7.1036e-05 -1.6137e-05 -2.6876e-06)
(7.3126e-05 -1.1489e-05 -1.9147e-06)
(7.4682e-05 -6.9819e-06 -1.1649e-06)
(7.5692e-05 -2.7991e-06 -4.691e-07)
(7.6158e-05 9.1743e-07 1.4905e-07)
(7.6103e-05 4.0672e-06 6.7294e-07)
(7.5571e-05 6.589e-06 1.0926e-06)
(7.4624e-05 8.4534e-06 1.4031e-06)
(5.7727e-05 -2.7233e-05 2.3907e-08)
(6.1683e-05 -2.4573e-05 2.1635e-08)
(6.5228e-05 -2.1353e-05 1.8878e-08)
(6.8317e-05 -1.7711e-05 1.5761e-08)
(7.0918e-05 -1.3816e-05 1.2419e-08)
(7.3005e-05 -9.8574e-06 9.008e-09)
(7.4558e-05 -6.0159e-06 5.6866e-09)
(7.5569e-05 -2.4478e-06 2.5944e-09)
(7.6041e-05 7.2528e-07 -1.5908e-10)
(7.5996e-05 3.417e-06 -2.4989e-09)
(7.5477e-05 5.5741e-06 -4.3736e-09)
(7.4546e-05 7.1695e-06 -5.7524e-09)
(5.7672e-05 -2.2212e-05 5.5667e-06)
(6.1618e-05 -2.0044e-05 5.0236e-06)
(6.5156e-05 -1.7422e-05 4.3667e-06)
(6.824e-05 -1.4457e-05 3.6238e-06)
(7.0837e-05 -1.1286e-05 2.8296e-06)
(7.2921e-05 -8.0634e-06 2.0223e-06)
(7.4474e-05 -4.9351e-06 1.2386e-06)
(7.5486e-05 -2.0283e-06 5.1048e-07)
(7.5961e-05 5.5798e-07 -1.3732e-07)
(7.5923e-05 2.7531e-06 -6.8713e-07)
(7.5414e-05 4.5131e-06 -1.128e-06)
(7.4492e-05 5.8152e-06 -1.4542e-06)
(5.7644e-05 -1.6847e-05 1.1238e-05)
(6.1585e-05 -1.5204e-05 1.0141e-05)
(6.5119e-05 -1.3217e-05 8.8159e-06)
(6.8201e-05 -1.0969e-05 7.3172e-06)
(7.0796e-05 -8.5674e-06 5.7152e-06)
(7.2879e-05 -6.1256e-06 4.0866e-06)
(7.4431e-05 -3.755e-06 2.5056e-06)
(7.5443e-05 -1.5518e-06 1.0362e-06)
(7.5921e-05 4.0886e-07 -2.7133e-07)
(7.5886e-05 2.0734e-06 -1.3814e-06)
(7.5381e-05 3.4084e-06 -2.2717e-06)
(7.4465e-05 4.3963e-06 -2.9305e-06)
(5.7644e-05 -1.1236e-05 1.6848e-05)
(6.1585e-05 -1.014e-05 1.5204e-05)
(6.5119e-05 -8.8151e-06 1.3217e-05)
(6.8201e-05 -7.3168e-06 1.097e-05)
(7.0796e-05 -5.715e-06 8.5673e-06)
(7.2879e-05 -4.0867e-06 6.1252e-06)
(7.4431e-05 -2.5059e-06 3.7546e-06)
(7.5443e-05 -1.0368e-06 1.5512e-06)
(7.5921e-05 2.7069e-07 -4.0949e-07)
(7.5886e-05 1.3807e-06 -2.0741e-06)
(7.5381e-05 2.271e-06 -3.4091e-06)
(7.4465e-05 2.9298e-06 -4.3968e-06)
(5.7672e-05 -5.5649e-06 2.2212e-05)
(6.1618e-05 -5.0221e-06 2.0044e-05)
(6.5156e-05 -4.3656e-06 1.7422e-05)
(6.824e-05 -3.6231e-06 1.4456e-05)
(7.0837e-05 -2.8293e-06 1.1286e-05)
(7.2921e-05 -2.0223e-06 8.0628e-06)
(7.4474e-05 -1.2389e-06 4.9345e-06)
(7.5486e-05 -5.1098e-07 2.0277e-06)
(7.5962e-05 1.3666e-07 -5.5858e-07)
(7.5923e-05 6.8638e-07 -2.7536e-06)
(7.5414e-05 1.1272e-06 -4.5136e-06)
(7.4493e-05 1.4535e-06 -5.8156e-06)
(5.7727e-05 -2.2015e-08 2.7232e-05)
(6.1682e-05 -2.0089e-08 2.4572e-05)
(6.5228e-05 -1.7708e-08 2.1353e-05)
(6.8317e-05 -1.4976e-08 1.771e-05)
(7.0918e-05 -1.2014e-08 1.3815e-05)
(7.3005e-05 -8.957e-09 9.8565e-06)
(7.4558e-05 -5.9374e-09 6.0151e-06)
(7.5569e-05 -3.0829e-09 2.4471e-06)
(7.6041e-05 -4.9938e-10 -7.2585e-07)
(7.5996e-05 1.7362e-09 -3.4175e-06)
(7.5478e-05 3.5716e-09 -5.5744e-06)
(7.4546e-05 4.9728e-09 -7.1697e-06)
(5.7808e-05 5.3076e-06 3.1885e-05)
(6.1777e-05 4.7885e-06 2.8764e-05)
(6.5332e-05 4.1601e-06 2.4986e-05)
(6.8429e-05 3.4487e-06 2.071e-05)
(7.1036e-05 2.6878e-06 1.6136e-05)
(7.3126e-05 1.9146e-06 1.1488e-05)
(7.4682e-05 1.1646e-06 6.981e-06)
(7.5692e-05 4.6856e-07 2.7984e-06)
(7.6158e-05 -1.4971e-07 -9.1796e-07)
(7.6104e-05 -6.7365e-07 -4.0676e-06)
(7.5571e-05 -1.0933e-06 -6.5892e-06)
(7.4624e-05 -1.4037e-06 -8.4535e-06)
(5.7757e-05 -2.698e-05 -1.0782e-05)
(6.1717e-05 -2.4342e-05 -9.7282e-06)
(6.5265e-05 -2.115e-05 -8.453e-06)
(6.8358e-05 -1.7537e-05 -7.0101e-06)
(7.096e-05 -1.3675e-05 -5.4674e-06)
(7.3048e-05 -9.7496e-06 -3.8995e-06)
(7.4603e-05 -5.9422e-06 -2.3785e-06)
(7.5613e-05 -2.4072e-06 -9.665e-07)
(7.6083e-05 7.3506e-07 2.8854e-07)
(7.6035e-05 3.3995e-06 1.3527e-06)
(7.5511e-05 5.5339e-06 2.2054e-06)
(7.4574e-05 7.1122e-06 2.8361e-06)
(5.7672e-05 -2.2209e-05 -5.5453e-06)
(6.1618e-05 -2.0042e-05 -5.0042e-06)
(6.5156e-05 -1.742e-05 -4.3496e-06)
(6.824e-05 -1.4455e-05 -3.6095e-06)
(7.0837e-05 -1.1285e-05 -2.8182e-06)
(7.2921e-05 -8.0621e-06 -2.0138e-06)
(7.4474e-05 -4.9343e-06 -1.2331e-06)
(7.5486e-05 -2.0278e-06 -5.0765e-07)
(7.5962e-05 5.5809e-07 1.3773e-07)
(7.5923e-05 2.7529e-06 6.8548e-07)
(7.5414e-05 4.5126e-06 1.1247e-06)
(7.4493e-05 5.8145e-06 1.4497e-06)
(5.7614e-05 -1.7069e-05 1.8441e-08)
(6.155e-05 -1.5404e-05 1.6708e-08)
(6.5081e-05 -1.3392e-05 1.4599e-08)
(6.816e-05 -1.1117e-05 1.2209e-08)
(7.0753e-05 -8.6851e-06 9.6475e-09)
(7.2834e-05 -6.2133e-06 7.0366e-09)
(7.4386e-05 -3.8133e-06 4.4979e-09)
(7.5399e-05 -1.5823e-06 2.1354e-09)
(7.5878e-05 4.0358e-07 3.0564e-11)
(7.5847e-05 2.09e-06 -1.758e-09)
(7.5347e-05 3.4428e-06 -3.1909e-09)
(7.4437e-05 4.4439e-06 -4.2446e-09)
(5.7585e-05 -1.1577e-05 5.8133e-06)
(6.1516e-05 -1.0448e-05 5.2467e-06)
(6.5043e-05 -9.0842e-06 4.5617e-06)
(6.8119e-05 -7.5426e-06 3.7876e-06)
(7.071e-05 -5.8952e-06 2.9604e-06)
(7.279e-05 -4.2204e-06 2.1195e-06)
(7.4341e-05 -2.5941e-06 1.3029e-06)
(7.5354e-05 -1.082e-06 5.4369e-07)
(7.5836e-05 2.6428e-07 -1.3221e-07)
(7.5808e-05 1.4078e-06 -7.0631e-07)
(7.5313e-05 2.3254e-06 -1.1669e-06)
(7.4408e-05 3.0045e-06 -1.5079e-06)
(5.7585e-05 -5.811e-06 1.1578e-05)
(6.1516e-05 -5.2447e-06 1.045e-05)
(6.5043e-05 -4.5601e-06 9.0852e-06)
(6.8119e-05 -3.7865e-06 7.5433e-06)
(7.071e-05 -2.9597e-06 5.8955e-06)
(7.279e-05 -2.1192e-06 4.2204e-06)
(7.4341e-05 -1.303e-06 2.5939e-06)
(7.5354e-05 -5.4406e-07 1.0815e-06)
(7.5836e-05 1.3162e-07 -2.6487e-07)
(7.5809e-05 7.0556e-07 -1.4085e-06)
(7.5313e-05 1.1661e-06 -2.3261e-06)
(7.4408e-05 1.507e-06 -3.0052e-06)
(5.7614e-05 -1.536e-08 1.7069e-05)
(6.155e-05 -1.4072e-08 1.5405e-05)
(6.5081e-05 -1.2465e-08 1.3392e-05)
(6.816e-05 -1.0608e-08 1.1117e-05)
(7.0753e-05 -8.5833e-09 8.6849e-06)
(7.2834e-05 -6.4846e-09 6.213e-06)
(7.4386e-05 -4.4037e-09 3.8129e-06)
(7.5399e-05 -2.4279e-09 1.5818e-06)
(7.5878e-05 -6.2951e-10 -4.0414e-07)
(7.5847e-05 9.3704e-10 -2.0905e-06)
(7.5347e-05 2.2343e-09 -3.4433e-06)
(7.4437e-05 3.235e-09 -4.4444e-06)
(5.7672e-05 5.5488e-06 2.2208e-05)
(6.1618e-05 5.0072e-06 2.0041e-05)
(6.5156e-05 4.3521e-06 1.7419e-05)
(6.824e-05 3.6114e-06 1.4453e-05)
(7.0837e-05 2.8195e-06 1.1284e-05)
(7.2922e-05 2.0146e-06 8.0612e-06)
(7.4474e-05 1.2333e-06 4.9335e-06)
(7.5486e-05 5.0741e-07 2.0271e-06)
(7.5962e-05 -1.3833e-07 -5.5861e-07)
(7.5924e-05 -6.8634e-07 -2.7532e-06)
(7.5414e-05 -1.1257e-06 -4.5128e-06)
(7.4493e-05 -1.4508e-06 -5.8146e-06)
(5.7756e-05 1.0785e-05 2.6978e-05)
(6.1716e-05 9.7304e-06 2.434e-05)
(6.5265e-05 8.4548e-06 2.1148e-05)
(6.8358e-05 7.0115e-06 1.7536e-05)
(7.096e-05 5.4682e-06 1.3673e-05)
(7.3049e-05 3.8998e-06 9.7484e-06)
(7.4603e-05 2.3785e-06 5.9412e-06)
(7.5613e-05 9.6617e-07 2.4065e-06)
(7.6083e-05 -2.8911e-07 -7.3555e-07)
(7.6035e-05 -1.3535e-06 -3.3998e-06)
(7.5511e-05 -2.2062e-06 -5.5339e-06)
(7.4574e-05 -2.837e-06 -7.1121e-06)
(5.773e-05 -2.1742e-05 -1.6301e-05)
(6.1685e-05 -1.9618e-05 -1.4708e-05)
(6.5231e-05 -1.7047e-05 -1.2781e-05)
(6.832e-05 -1.4139e-05 -1.0601e-05)
(7.0921e-05 -1.103e-05 -8.2703e-06)
(7.3008e-05 -7.8702e-06 -5.9016e-06)
(7.4562e-05 -4.8048e-06 -3.6037e-06)
(7.5573e-05 -1.9582e-06 -1.4698e-06)
(7.6045e-05 5.7277e-07 4.2733e-07)
(7.5999e-05 2.7194e-06 2.0364e-06)
(7.548e-05 4.4395e-06 3.3258e-06)
(7.4548e-05 5.7117e-06 4.2795e-06)
(5.7644e-05 -1.6836e-05 -1.1234e-05)
(6.1585e-05 -1.5194e-05 -1.0138e-05)
(6.5119e-05 -1.3208e-05 -8.8131e-06)
(6.8201e-05 -1.0962e-05 -7.3147e-06)
(7.0796e-05 -8.5617e-06 -5.713e-06)
(7.2879e-05 -6.1214e-06 -4.0848e-06)
(7.4431e-05 -3.7524e-06 -2.5041e-06)
(7.5443e-05 -1.5507e-06 -1.0351e-06)
(7.5921e-05 4.0869e-07 2.7216e-07)
(7.5886e-05 2.0721e-06 1.382e-06)
(7.5381e-05 3.4062e-06 2.2721e-06)
(7.4465e-05 4.3934e-06 2.9307e-06)
(5.7585e-05 -1.1571e-05 -5.7981e-06)
(6.1516e-05 -1.0443e-05 -5.2328e-06)
(6.5043e-05 -9.08e-06 -4.5495e-06)
(6.8119e-05 -7.5391e-06 -3.7773e-06)
(7.071e-05 -5.8925e-06 -2.9521e-06)
(7.279e-05 -4.2184e-06 -2.1133e-06)
(7.4341e-05 -2.5929e-06 -1.2987e-06)
(7.5354e-05 -1.0815e-06 -5.4142e-07)
(7.5836e-05 2.642e-07 1.3279e-07)
(7.5808e-05 1.4072e-06 7.0544e-07)
(7.5313e-05 2.3243e-06 1.1649e-06)
(7.4408e-05 3.0031e-06 1.505e-06)
(5.7554e-05 -5.9209e-06 5.5073e-09)
(6.148e-05 -5.344e-06 5.0409e-09)
(6.5003e-05 -4.6468e-06 4.4608e-09)
(6.8076e-05 -3.8591e-06 3.7933e-09)
(7.0665e-05 -3.0174e-06 3.0708e-09)
(7.2744e-05 -2.1616e-06 2.3307e-09)
(7.4294e-05 -1.3306e-06 1.6096e-09)
(7.5309e-05 -5.5778e-07 9.3693e-10)
(7.5793e-05 1.3043e-07 3.3569e-10)
(7.5769e-05 7.1514e-07 -1.766e-10)
(7.5278e-05 1.1844e-06 -5.8579e-10)
(7.4379e-05 1.5318e-06 -8.8145e-10)
(5.7554e-05 -2.2407e-09 5.9238e-06)
(6.148e-05 -2.2252e-09 5.3465e-06)
(6.5003e-05 -2.1612e-09 4.6488e-06)
(6.8076e-05 -2.0464e-09 3.8605e-06)
(7.0665e-05 -1.8825e-09 3.0183e-06)
(7.2744e-05 -1.6747e-09 2.1621e-06)
(7.4294e-05 -1.4321e-09 1.3307e-06)
(7.5309e-05 -1.1675e-09 5.575e-07)
(7.5793e-05 -8.937e-10 -1.31e-07)
(7.5769e-05 -6.2231e-10 -7.1592e-07)
(7.5279e-05 -3.6512e-10 -1.1853e-06)
(7.4379e-05 -1.3651e-10 -1.5328e-06)
(5.7585e-05 5.8029e-06 1.1574e-05)
(6.1516e-05 5.237e-06 1.0445e-05)
(6.5043e-05 4.553e-06 9.0814e-06)
(6.8119e-05 3.78e-06 7.5401e-06)
(7.071e-05 2.9541e-06 5.893e-06)
(7.279e-05 2.1145e-06 4.2186e-06)
(7.4341e-05 1.2993e-06 2.5928e-06)
(7.5354e-05 5.4136e-07 1.0811e-06)
(7.5836e-05 -1.3335e-07 -2.6476e-07)
(7.5809e-05 -7.0638e-07 -1.4079e-06)
(7.5313e-05 -1.1661e-06 -2.3251e-06)
(7.4408e-05 -1.5063e-06 -3.0039e-06)
(5.7644e-05 1.1241e-05 1.6834e-05)
(6.1585e-05 1.0144e-05 1.5192e-05)
(6.5119e-05 8.8181e-06 1.3206e-05)
(6.8201e-05 7.3187e-06 1.096e-05)
(7.0796e-05 5.716e-06 8.5601e-06)
(7.2879e-05 4.0867e-06 6.1201e-06)
(7.4431e-05 2.5051e-06 3.7514e-06)
(7.5444e-05 1.0352e-06 1.5499e-06)
(7.5921e-05 -2.7273e-07 -4.0916e-07)
(7.5886e-05 -1.3831e-06 -2.0723e-06)
(7.5382e-05 -2.2736e-06 -3.4062e-06)
(7.4465e-05 -2.9325e-06 -4.3931e-06)
(5.773e-05 1.6305e-05 2.174e-05)
(6.1685e-05 1.4712e-05 1.9615e-05)
(6.5231e-05 1.2784e-05 1.7045e-05)
(6.832e-05 1.0603e-05 1.4137e-05)
(7.0921e-05 8.2719e-06 1.1028e-05)
(7.3008e-05 5.9026e-06 7.8685e-06)
(7.4562e-05 3.6041e-06 4.8035e-06)
(7.5573e-05 1.4697e-06 1.9573e-06)
(7.6045e-05 -4.2781e-07 -5.7321e-07)
(7.6e-05 -2.0372e-06 -2.7195e-06)
(7.548e-05 -3.3268e-06 -4.4393e-06)
(7.4548e-05 -4.2806e-06 -5.7112e-06)
(5.773e-05 -1.6303e-05 -2.1741e-05)
(6.1685e-05 -1.471e-05 -1.9616e-05)
(6.5231e-05 -1.2783e-05 -1.7045e-05)
(6.832e-05 -1.0603e-05 -1.4137e-05)
(7.0921e-05 -8.2723e-06 -1.1028e-05)
(7.3008e-05 -5.9035e-06 -7.8684e-06)
(7.4562e-05 -3.6054e-06 -4.8031e-06)
(7.5573e-05 -1.4714e-06 -1.9566e-06)
(7.6045e-05 4.2596e-07 5.7415e-07)
(7.5999e-05 2.0352e-06 2.7206e-06)
(7.548e-05 3.3248e-06 4.4406e-06)
(7.4548e-05 4.2787e-06 5.7126e-06)
(5.7644e-05 -1.1237e-05 -1.6834e-05)
(6.1585e-05 -1.0141e-05 -1.5192e-05)
(6.5119e-05 -8.8156e-06 -1.3206e-05)
(6.8201e-05 -7.3171e-06 -1.096e-05)
(7.0796e-05 -5.7153e-06 -8.5596e-06)
(7.2879e-05 -4.0868e-06 -6.1194e-06)
(7.4431e-05 -2.506e-06 -3.7507e-06)
(7.5443e-05 -1.0367e-06 -1.5491e-06)
(7.5921e-05 2.708e-07 4.1007e-07)
(7.5886e-05 1.3809e-06 2.0733e-06)
(7.5381e-05 2.2712e-06 3.4072e-06)
(7.4465e-05 2.93e-06 4.3942e-06)
(5.7585e-05 -5.8013e-06 -1.1569e-05)
(6.1516e-05 -5.2359e-06 -1.0441e-05)
(6.5043e-05 -4.5525e-06 -9.0773e-06)
(6.8119e-05 -3.7801e-06 -7.5366e-06)
(7.071e-05 -2.9548e-06 -5.8901e-06)
(7.279e-05 -2.1156e-06 -4.2163e-06)
(7.4341e-05 -1.3008e-06 -2.591e-06)
(7.5354e-05 -5.431e-07 -1.0798e-06)
(7.5836e-05 1.3145e-07 2.6556e-07)
(7.5809e-05 7.0443e-07 1.4083e-06)
(7.5313e-05 1.1642e-06 2.3252e-06)
(7.4408e-05 1.5045e-06 3.0037e-06)
(5.7554e-05 1.5775e-09 -5.9172e-06)
(6.148e-05 1.2227e-09 -5.3404e-06)
(6.5003e-05 8.3707e-10 -4.6433e-06)
(6.8076e-05 4.4372e-10 -3.8558e-06)
(7.0665e-05 6.6603e-11 -3.0144e-06)
(7.2744e-05 -2.7413e-10 -2.1591e-06)
(7.4294e-05 -5.6479e-10 -1.3285e-06)
(7.5309e-05 -7.9712e-10 -5.5605e-07)
(7.5793e-05 -9.6623e-10 1.3176e-07)
(7.5769e-05 -1.071e-09 7.1609e-07)
(7.5279e-05 -1.116e-09 1.185e-06)
(7.4379e-05 -1.1122e-09 1.5321e-06)
(5.7554e-05 5.9203e-06 3.0361e-09)
(6.148e-05 5.343e-06 2.8105e-09)
(6.5003e-05 4.6455e-06 2.5204e-09)
(6.8076e-05 3.8575e-06 2.1785e-09)
(7.0665e-05 3.0155e-06 1.8035e-09)
(7.2744e-05 2.1597e-06 1.4179e-09)
(7.4294e-05 1.3286e-06 1.0432e-09)
(7.5309e-05 5.5583e-07 6.9444e-10)
(7.5793e-05 -1.3228e-07 3.8289e-10)
(7.5769e-05 -7.1683e-07 1.1774e-10)
(7.5279e-05 -1.1859e-06 -9.1722e-11)
(7.4379e-05 -1.5331e-06 -2.3764e-10)
(5.7584e-05 1.1575e-05 5.8085e-06)
(6.1516e-05 1.0446e-05 5.2423e-06)
(6.5042e-05 9.0818e-06 4.5579e-06)
(6.8119e-05 7.5402e-06 3.7844e-06)
(7.071e-05 5.8927e-06 2.9579e-06)
(7.279e-05 4.218e-06 2.1177e-06)
(7.4341e-05 2.5918e-06 1.3018e-06)
(7.5354e-05 1.0799e-06 5.4323e-07)
(7.5836e-05 -2.661e-07 -1.3211e-07)
(7.5809e-05 -1.4093e-06 -7.0572e-07)
(7.5313e-05 -2.3266e-06 -1.166e-06)
(7.4408e-05 -3.0053e-06 -1.5066e-06)
(5.7644e-05 1.6848e-05 1.1231e-05)
(6.1585e-05 1.5205e-05 1.0135e-05)
(6.5119e-05 1.3217e-05 8.8105e-06)
(6.8201e-05 1.0969e-05 7.3127e-06)
(7.0796e-05 8.5666e-06 5.7116e-06)
(7.2879e-05 6.1243e-06 4.084e-06)
(7.4431e-05 3.7535e-06 2.504e-06)
(7.5444e-05 1.55e-06 1.0356e-06)
(7.5921e-05 -4.1074e-07 -2.7116e-07)
(7.5886e-05 -2.0753e-06 -1.3805e-06)
(7.5382e-05 -3.4102e-06 -2.2703e-06)
(7.4466e-05 -4.3979e-06 -2.9286e-06)
(5.7729e-05 2.1745e-05 1.6298e-05)
(6.1685e-05 1.962e-05 1.4705e-05)
(6.523e-05 1.7049e-05 1.2779e-05)
(6.832e-05 1.414e-05 1.0599e-05)
(7.0921e-05 1.103e-05 8.269e-06)
(7.3008e-05 7.8697e-06 5.9009e-06)
(7.4562e-05 4.8038e-06 3.6036e-06)
(7.5573e-05 1.9567e-06 1.4703e-06)
(7.6045e-05 -5.7452e-07 -4.2633e-07)
(7.6e-05 -2.7214e-06 -2.035e-06)
(7.548e-05 -4.4415e-06 -3.3241e-06)
(7.4548e-05 -5.7137e-06 -4.2775e-06)
(5.7756e-05 -1.0784e-05 -2.6979e-05)
(6.1716e-05 -9.7302e-06 -2.434e-05)
(6.5265e-05 -8.455e-06 -2.1148e-05)
(6.8357e-05 -7.0122e-06 -1.7536e-05)
(7.096e-05 -5.4694e-06 -1.3673e-05)
(7.3048e-05 -3.9014e-06 -9.7479e-06)
(7.4603e-05 -2.3803e-06 -5.9406e-06)
(7.5613e-05 -9.6807e-07 -2.4057e-06)
(7.6083e-05 2.8717e-07 7.3647e-07)
(7.6035e-05 1.3516e-06 3.4008e-06)
(7.5511e-05 2.2045e-06 5.535e-06)
(7.4574e-05 2.8353e-06 7.1133e-06)
(5.7672e-05 -5.5479e-06 -2.2208e-05)
(6.1618e-05 -5.0068e-06 -2.004e-05)
(6.5156e-05 -4.3523e-06 -1.7418e-05)
(6.824e-05 -3.612e-06 -1.4453e-05)
(7.0837e-05 -2.8206e-06 -1.1283e-05)
(7.2921e-05 -2.016e-06 -8.0603e-06)
(7.4474e-05 -1.235e-06 -4.9326e-06)
(7.5486e-05 -5.0928e-07 -2.0263e-06)
(7.5962e-05 1.3638e-07 5.5949e-07)
(7.5924e-05 6.8442e-07 2.7541e-06)
(7.5414e-05 1.1239e-06 4.5137e-06)
(7.4493e-05 1.4492e-06 5.8155e-06)
(5.7614e-05 1.4677e-08 -1.7067e-05)
(6.155e-05 1.3037e-08 -1.5402e-05)
(6.5081e-05 1.1099e-08 -1.3389e-05)
(6.816e-05 8.9536e-09 -1.1114e-05)
(7.0753e-05 6.7084e-09 -8.6831e-06)
(7.2834e-05 4.4722e-09 -6.2114e-06)
(7.4386e-05 2.3428e-09 -3.8116e-06)
(7.5399e-05 4.0222e-10 -1.5807e-06)
(7.5878e-05 -1.286e-09 4.0498e-07)
(7.5847e-05 -2.6788e-09 2.0912e-06)
(7.5347e-05 -3.7553e-09 3.4438e-06)
(7.4437e-05 -4.5138e-09 4.4447e-06)
(5.7584e-05 5.8081e-06 -1.1574e-05)
(6.1516e-05 5.2416e-06 -1.0445e-05)
(6.5042e-05 4.557e-06 -9.0812e-06)
(6.8119e-05 3.7834e-06 -7.5398e-06)
(7.071e-05 2.9567e-06 -5.8926e-06)
(7.279e-05 2.1164e-06 -4.2181e-06)
(7.4341e-05 1.3004e-06 -2.5921e-06)
(7.5354e-05 5.4184e-07 -1.0803e-06)
(7.5836e-05 -1.3347e-07 2.6565e-07)
(7.5809e-05 -7.0702e-07 1.4089e-06)
(7.5313e-05 -1.1672e-06 2.3261e-06)
(7.4408e-05 -1.5077e-06 3.005e-06)
(5.7584e-05 1.1572e-05 -5.803e-06)
(6.1516e-05 1.0444e-05 -5.2372e-06)
(6.5042e-05 9.0798e-06 -4.5533e-06)
(6.8119e-05 7.5384e-06 -3.7804e-06)
(7.071e-05 5.8914e-06 -2.9546e-06)
(7.279e-05 4.217e-06 -2.115e-06)
(7.4341e-05 2.5912e-06 -1.2998e-06)
(7.5354e-05 1.0796e-06 -5.419e-07)
(7.5836e-05 -2.6607e-07 1.3287e-07)
(7.5809e-05 -1.409e-06 7.06e-07)
(7.5313e-05 -2.3261e-06 1.1659e-06)
(7.4408e-05 -3.0047e-06 1.5062e-06)
(5.7614e-05 1.7068e-05 1.3717e-08)
(6.155e-05 1.5403e-05 1.2441e-08)
(6.5081e-05 1.339e-05 1.0884e-08)
(6.816e-05 1.1115e-05 9.1129e-09)
(7.0753e-05 8.6834e-06 7.2131e-09)
(7.2834e-05 6.2114e-06 5.2809e-09)
(7.4386e-05 3.8114e-06 3.4082e-09)
(7.5399e-05 1.5804e-06 1.6715e-09)
(7.5879e-05 -4.0539e-07 1.2853e-10)
(7.5847e-05 -2.0916e-06 -1.1792e-09)
(7.5347e-05 -3.4442e-06 -2.2217e-09)
(7.4437e-05 -4.4451e-06 -2.9807e-09)
(5.7672e-05 2.2212e-05 5.5621e-06)
(6.1618e-05 2.0044e-05 5.0194e-06)
(6.5156e-05 1.7421e-05 4.363e-06)
(6.824e-05 1.4456e-05 3.6208e-06)
(7.0837e-05 1.1285e-05 2.8272e-06)
(7.2921e-05 8.0617e-06 2.0206e-06)
(7.4474e-05 4.9334e-06 1.2376e-06)
(7.5486e-05 2.0265e-06 5.1005e-07)
(7.5962e-05 -5.5977e-07 -1.3719e-07)
(7.5924e-05 -2.7548e-06 -6.8652e-07)
(7.5414e-05 -4.5146e-06 -1.127e-06)
(7.4493e-05 -5.8165e-06 -1.4529e-06)
(5.7756e-05 2.6977e-05 1.0775e-05)
(6.1716e-05 2.4339e-05 9.7224e-06)
(6.5265e-05 2.1146e-05 8.4481e-06)
(6.8357e-05 1.7534e-05 7.0063e-06)
(7.096e-05 1.3672e-05 5.4646e-06)
(7.3048e-05 9.747e-06 3.8977e-06)
(7.4603e-05 5.9399e-06 2.3778e-06)
(7.5613e-05 2.4053e-06 9.6675e-07)
(7.6083e-05 -7.3653e-07 -2.8744e-07)
(7.6035e-05 -3.4005e-06 -1.3509e-06)
(7.5511e-05 -5.5345e-06 -2.203e-06)
(7.4574e-05 -7.1125e-06 -2.8333e-06)
(5.7808e-05 -5.3079e-06 -3.1885e-05)
(6.1777e-05 -4.7892e-06 -2.8764e-05)
(6.5332e-05 -4.1612e-06 -2.4986e-05)
(6.8429e-05 -3.4502e-06 -2.0709e-05)
(7.1036e-05 -2.6896e-06 -1.6135e-05)
(7.3126e-05 -1.9165e-06 -1.1487e-05)
(7.4682e-05 -1.1667e-06 -6.9804e-06)
(7.5692e-05 -4.7067e-07 -2.7976e-06)
(7.6158e-05 1.4767e-07 9.1886e-07)
(7.6103e-05 6.7176e-07 4.0685e-06)
(7.5571e-05 1.0916e-06 6.5903e-06)
(7.4624e-05 1.4023e-06 8.4546e-06)
(5.7727e-05 2.13e-08 -2.7232e-05)
(6.1682e-05 1.8998e-08 -2.4571e-05)
(6.5227e-05 1.6268e-08 -2.1352e-05)
(6.8317e-05 1.3231e-08 -1.771e-05)
(7.0918e-05 1.0035e-08 -1.3815e-05)
(7.3005e-05 6.8322e-09 -9.8558e-06)
(7.4558e-05 3.7629e-09 -6.0144e-06)
(7.5569e-05 9.4841e-10 -2.4463e-06)
(7.6041e-05 -1.516e-09 7.2672e-07)
(7.5996e-05 -3.5658e-09 3.4184e-06)
(7.5478e-05 -5.1661e-09 5.5754e-06)
(7.4546e-05 -6.308e-09 7.1707e-06)
(5.7672e-05 5.5626e-06 -2.2212e-05)
(6.1618e-05 5.0197e-06 -2.0044e-05)
(6.5156e-05 4.363e-06 -1.7421e-05)
(6.824e-05 3.6204e-06 -1.4455e-05)
(7.0837e-05 2.8265e-06 -1.1285e-05)
(7.2921e-05 2.0196e-06 -8.062e-06)
(7.4474e-05 1.2364e-06 -4.9337e-06)
(7.5486e-05 5.0871e-07 -2.0268e-06)
(7.5962e-05 -1.3863e-07 5.5943e-07)
(7.5923e-05 -6.8801e-07 2.7545e-06)
(7.5414e-05 -1.1285e-06 4.5144e-06)
(7.4493e-05 -1.4544e-06 5.8164e-06)
(5.7644e-05 1.1231e-05 -1.6848e-05)
(6.1585e-05 1.0135e-05 -1.5204e-05)
(6.5119e-05 8.8099e-06 -1.3217e-05)
(6.8201e-05 7.3119e-06 -1.0969e-05)
(7.0796e-05 5.7106e-06 -8.5668e-06)
(7.2879e-05 4.0829e-06 -6.1246e-06)
(7.4431e-05 2.5027e-06 -3.7539e-06)
(7.5444e-05 1.0342e-06 -1.5505e-06)
(7.5921e-05 -2.7256e-07 4.1034e-07)
(7.5886e-05 -1.3819e-06 2.075e-06)
(7.5381e-05 -2.2716e-06 3.41e-06)
(7.4465e-05 -2.9299e-06 4.3978e-06)
(5.7644e-05 1.6834e-05 -1.1241e-05)
(6.1585e-05 1.5191e-05 -1.0145e-05)
(6.5119e-05 1.3205e-05 -8.8186e-06)
(6.8201e-05 1.0959e-05 -7.3193e-06)
(7.0796e-05 8.559e-06 -5.7166e-06)
(7.2879e-05 6.1188e-06 -4.0873e-06)
(7.4431e-05 3.7501e-06 -2.5057e-06)
(7.5444e-05 1.5486e-06 -1.0358e-06)
(7.5921e-05 -4.105e-07 2.7228e-07)
(7.5886e-05 -2.0736e-06 1.3828e-06)
(7.5382e-05 -3.4074e-06 2.2734e-06)
(7.4466e-05 -4.3942e-06 2.9325e-06)
(5.7672e-05 2.2208e-05 -5.55e-06)
(6.1618e-05 2.004e-05 -5.0084e-06)
(6.5156e-05 1.7418e-05 -4.3533e-06)
(6.824e-05 1.4453e-05 -3.6125e-06)
(7.0837e-05 1.1282e-05 -2.8206e-06)
(7.2921e-05 8.06e-06 -2.0156e-06)
(7.4474e-05 4.9322e-06 -1.2342e-06)
(7.5486e-05 2.0259e-06 -5.0812e-07)
(7.5962e-05 -5.5987e-07 1.3782e-07)
(7.5924e-05 -2.7544e-06 6.8605e-07)
(7.5414e-05 -4.5139e-06 1.1257e-06)
(7.4493e-05 -5.8155e-06 1.451e-06)
(5.7727e-05 2.7232e-05 2.0293e-08)
(6.1682e-05 2.4572e-05 1.8366e-08)
(6.5227e-05 2.1352e-05 1.6027e-08)
(6.8317e-05 1.771e-05 1.3378e-08)
(7.0918e-05 1.3815e-05 1.0538e-08)
(7.3005e-05 9.8556e-06 7.6489e-09)
(7.4558e-05 6.014e-06 4.8455e-09)
(7.5569e-05 2.446e-06 2.2462e-09)
(7.6041e-05 -7.2703e-07 -5.9957e-11)
(7.5997e-05 -3.4186e-06 -2.014e-09)
(7.5478e-05 -5.5755e-06 -3.5714e-09)
(7.4546e-05 -7.1707e-06 -4.7063e-09)
(5.7808e-05 3.1887e-05 5.3245e-06)
(6.1777e-05 2.8766e-05 4.8041e-06)
(6.5332e-05 2.4988e-05 4.1739e-06)
(6.8429e-05 2.0711e-05 3.4605e-06)
(7.1036e-05 1.6136e-05 2.6975e-06)
(7.3126e-05 1.1488e-05 1.9219e-06)
(7.4682e-05 6.9806e-06 1.1697e-06)
(7.5692e-05 2.7975e-06 4.7155e-07)
(7.6158e-05 -9.1907e-07 -1.4867e-07)
(7.6104e-05 -4.0688e-06 -6.7431e-07)
(7.5571e-05 -6.5906e-06 -1.0954e-06)
(7.4624e-05 -8.4548e-06 -1.4068e-06)
(5.7883e-05 1.0835e-08 -3.6352e-05)
(6.1864e-05 9.5444e-09 -3.2789e-05)
(6.5429e-05 8.04e-09 -2.8473e-05)
(6.8532e-05 6.3826e-09 -2.3584e-05)
(7.1144e-05 4.6616e-09 -1.8354e-05)
(7.3238e-05 2.9612e-09 -1.3041e-05)
(7.4795e-05 1.3525e-09 -7.8916e-06)
(7.5804e-05 -1.0679e-10 -3.1164e-06)
(7.6266e-05 -1.3676e-09 1.1233e-06)
(7.6202e-05 -2.3918e-09 4.7134e-06)
(7.5657e-05 -3.1649e-09 7.5854e-06)
(7.4695e-05 -3.692e-09 9.7076e-06)
(5.7808e-05 5.3251e-06 -3.1887e-05)
(6.1777e-05 4.8043e-06 -2.8766e-05)
(6.5332e-05 4.1738e-06 -2.4988e-05)
(6.8429e-05 3.4601e-06 -2.0711e-05)
(7.1035e-05 2.6967e-06 -1.6136e-05)
(7.3126e-05 1.9209e-06 -1.1488e-05)
(7.4682e-05 1.1685e-06 -6.9808e-06)
(7.5692e-05 4.7016e-07 -2.7978e-06)
(7.6158e-05 -1.5018e-07 9.1884e-07)
(7.6103e-05 -6.7588e-07 4.0687e-06)
(7.5571e-05 -1.0969e-06 6.5906e-06)
(7.4624e-05 -1.4084e-06 8.455e-06)
(5.7756e-05 1.0776e-05 -2.6976e-05)
(6.1716e-05 9.7224e-06 -2.4338e-05)
(6.5265e-05 8.4478e-06 -2.1146e-05)
(6.8357e-05 7.0057e-06 -1.7534e-05)
(7.096e-05 5.4637e-06 -1.3672e-05)
(7.3048e-05 3.8966e-06 -9.7472e-06)
(7.4603e-05 2.3766e-06 -5.9402e-06)
(7.5613e-05 9.6534e-07 -2.4056e-06)
(7.6083e-05 -2.8894e-07 7.3626e-07)
(7.6035e-05 -1.3525e-06 3.4004e-06)
(7.5511e-05 -2.2045e-06 5.5344e-06)
(7.4574e-05 -2.8348e-06 7.1126e-06)
(5.7729e-05 1.6298e-05 -2.1745e-05)
(6.1685e-05 1.4705e-05 -1.962e-05)
(6.523e-05 1.2778e-05 -1.7049e-05)
(6.832e-05 1.0599e-05 -1.414e-05)
(7.0921e-05 8.2681e-06 -1.103e-05)
(7.3008e-05 5.8998e-06 -7.8701e-06)
(7.4562e-05 3.6023e-06 -4.8042e-06)
(7.5573e-05 1.4689e-06 -1.9571e-06)
(7.6045e-05 -4.2779e-07 5.7417e-07)
(7.6e-05 -2.0365e-06 2.7211e-06)
(7.548e-05 -3.3255e-06 4.4414e-06)
(7.4548e-05 -4.2789e-06 5.7137e-06)
(5.7729e-05 2.174e-05 -1.6305e-05)
(6.1685e-05 1.9615e-05 -1.4712e-05)
(6.523e-05 1.7044e-05 -1.2785e-05)
(6.832e-05 1.4136e-05 -1.0604e-05)
(7.0921e-05 1.1027e-05 -8.2726e-06)
(7.3008e-05 7.8674e-06 -5.9032e-06)
(7.4562e-05 4.8023e-06 -3.6047e-06)
(7.5573e-05 1.956e-06 -1.4703e-06)
(7.6045e-05 -5.746e-07 4.2737e-07)
(7.6e-05 -2.7209e-06 2.0369e-06)
(7.548e-05 -4.4406e-06 3.3267e-06)
(7.4548e-05 -5.7124e-06 4.2807e-06)
(5.7756e-05 2.6978e-05 -1.0785e-05)
(6.1716e-05 2.434e-05 -9.7313e-06)
(6.5265e-05 2.1148e-05 -8.4557e-06)
(6.8357e-05 1.7535e-05 -7.0124e-06)
(7.096e-05 1.3673e-05 -5.4692e-06)
(7.3048e-05 9.7474e-06 -3.9008e-06)
(7.4603e-05 5.9401e-06 -2.3794e-06)
(7.5613e-05 2.4052e-06 -9.6688e-07)
(7.6083e-05 -7.3685e-07 2.8858e-07)
(7.6035e-05 -3.401e-06 1.3531e-06)
(7.5511e-05 -5.5351e-06 2.2061e-06)
(7.4574e-05 -7.1132e-06 2.8371e-06)
(5.7808e-05 3.1885e-05 -5.3088e-06)
(6.1777e-05 2.8764e-05 -4.7898e-06)
(6.5332e-05 2.4986e-05 -4.1613e-06)
(6.8429e-05 2.0709e-05 -3.45e-06)
(7.1036e-05 1.6135e-05 -2.6891e-06)
(7.3126e-05 1.1487e-05 -1.9157e-06)
(7.4682e-05 6.98e-06 -1.1656e-06)
(7.5692e-05 2.7972e-06 -4.6938e-07)
(7.6158e-05 -9.1915e-07 1.4912e-07)
(7.6104e-05 -4.0687e-06 6.733e-07)
(7.5571e-05 -6.5903e-06 1.0932e-06)
(7.4624e-05 -8.4545e-06 1.4039e-06)
(5.7883e-05 3.6353e-05 1.0277e-08)
(6.1864e-05 3.2789e-05 9.3289e-09)
(6.5428e-05 2.8473e-05 8.1695e-09)
(6.8532e-05 2.3584e-05 6.8495e-09)
(7.1144e-05 1.8354e-05 5.4306e-09)
(7.3238e-05 1.3041e-05 3.9836e-09)
(7.4796e-05 7.8914e-06 2.5781e-09)
(7.5804e-05 3.1161e-06 1.2798e-09)
(7.6266e-05 -1.1235e-06 1.3402e-10)
(7.6202e-05 -4.7135e-06 -8.3397e-10)
(7.5657e-05 -7.5853e-06 -1.5977e-09)
(7.4696e-05 -9.7075e-06 -2.1434e-09)
(7.4951e-05 1.3124e-05 -1.142e-06)
(7.5967e-05 1.033e-05 -8.9654e-07)
(7.6559e-05 6.5449e-06 -5.6493e-07)
(7.6655e-05 1.8005e-06 -1.5027e-07)
(7.621e-05 -3.8153e-06 3.4075e-07)
(7.5204e-05 -1.0153e-05 8.9537e-07)
(7.3639e-05 -1.7e-05 1.4942e-06)
(7.153e-05 -2.4076e-05 2.1124e-06)
(6.8901e-05 -3.1043e-05 2.7205e-06)
(6.5774e-05 -3.7547e-05 3.2882e-06)
(6.2176e-05 -4.3271e-05 3.7886e-06)
(5.8151e-05 -4.7986e-05 4.201e-06)
(7.4883e-05 1.1998e-05 -3.1743e-06)
(7.5884e-05 9.4173e-06 -2.4859e-06)
(7.6463e-05 5.9233e-06 -1.5552e-06)
(7.6551e-05 1.5492e-06 -3.9191e-07)
(7.6102e-05 -3.6237e-06 9.8366e-07)
(7.5096e-05 -9.4572e-06 2.5352e-06)
(7.3533e-05 -1.5754e-05 4.2093e-06)
(7.1429e-05 -2.2256e-05 5.9368e-06)
(6.8804e-05 -2.8656e-05 7.6363e-06)
(6.5682e-05 -3.4633e-05 9.2233e-06)
(6.2093e-05 -3.9898e-05 1.0623e-05)
(5.8079e-05 -4.4239e-05 1.1776e-05)
(7.4834e-05 1.0608e-05 -5.2087e-06)
(7.5824e-05 8.3079e-06 -4.0732e-06)
(7.6394e-05 5.1947e-06 -2.5377e-06)
(7.6476e-05 1.3003e-06 -6.181e-07)
(7.6024e-05 -3.3021e-06 1.6498e-06)
(7.5018e-05 -8.4891e-06 4.2057e-06)
(7.3457e-05 -1.4084e-05 6.9626e-06)
(7.1355e-05 -1.9859e-05 9.8072e-06)
(6.8734e-05 -2.5543e-05 1.2606e-05)
(6.5616e-05 -3.0852e-05 1.522e-05)
(6.2033e-05 -3.5532e-05 1.7525e-05)
(5.8028e-05 -3.9391e-05 1.9427e-05)
(7.4808e-05 8.9806e-06 -7.1638e-06)
(7.5792e-05 7.0228e-06 -5.5994e-06)
(7.6358e-05 4.3739e-06 -3.4831e-06)
(7.6436e-05 1.0617e-06 -8.3735e-07)
(7.5982e-05 -2.8507e-06 2.2875e-06)
(7.4976e-05 -7.2582e-06 5.8076e-06)
(7.3416e-05 -1.2011e-05 9.6038e-06)
(7.1315e-05 -1.6916e-05 1.3521e-05)
(6.8696e-05 -2.1742e-05 1.7375e-05)
(6.5581e-05 -2.6251e-05 2.0975e-05)
(6.2002e-05 -3.0227e-05 2.415e-05)
(5.8001e-05 -3.3506e-05 2.677e-05)