/*--------------------------------*- C++ -*----------------------------------*\
| =========                 |                                                 |
| \\      /  F ield         | OpenFOAM: The Open Source CFD Toolbox           |
|  \\    /   O peration     | Version:  4.1                                   |
|   \\  /    A nd           | Web:      www.OpenFOAM.org                      |
|    \\/     M anipulation  |                                                 |
\*---------------------------------------------------------------------------*/
FoamFile
{
    version     2.0;
    format      ascii;
    class       volScalarField;
    location    "0.000100";
    object      p;
}
// * * * * * * * * * * * * * * * * * * * * * * * * * * * * * * * * * * * * * //

dimensions      [0 2 -2 0 0 0 0];

internalField   nonuniform List<scalar> 
3072
(
699.35749
718.47087
737.52115
756.65427
775.99311
795.66238
815.82825
836.67713
858.28561
880.78667
904.53617
929.48742
955.73044
983.36579
1012.1844
1042.0095
1072.8719
1104.7706
1137.6411
1171.3745
1205.8449
1240.9053
1276.6081
1311.6001
699.55309
718.65828
737.69033
756.79913
776.11628
795.76862
815.91916
836.75098
858.38462
880.88045
904.54328
929.47539
955.68968
983.25609
1012.0067
1041.7928
1072.636
1104.5308
1137.4247
1171.2278
1205.8293
1241.0703
1276.9437
1311.823
699.75862
718.8566
737.86729
756.94438
776.23139
795.86403
816.00131
836.81549
858.44388
880.9558
904.5587
929.44815
955.62436
983.12413
1011.8213
1041.5881
1072.4279
1104.3333
1137.259
1171.1288
1205.8437
1241.2379
1277.215
1312.0051
699.94889
719.03978
738.03103
757.07927
776.33818
795.95352
816.08118
836.88083
858.49406
881.02401
904.60254
929.42481
955.55213
982.98696
1011.6275
1041.3726
1072.2043
1104.1198
1137.0745
1171.0042
1205.8187
1241.3476
1277.406
1312.1239
700.12321
719.20678
738.18228
757.20857
776.4455
796.04649
816.16673
836.95433
858.54993
881.07855
904.66129
929.43124
955.47959
982.84859
1011.4389
1041.1573
1071.9797
1103.9019
1136.8786
1170.8529
1205.7426
1241.3777
1277.4973
1312.1761
700.28455
719.36004
738.3227
757.3334
776.55394
796.14264
816.25822
837.03628
858.61689
881.13147
904.70336
929.45027
955.45139
982.73759
1011.2504
1040.9321
1071.7497
1103.6768
1136.6705
1170.6704
1205.6085
1241.3229
1277.4846
1312.1606
700.42707
719.50314
738.45771
757.45893
776.66527
796.23662
816.34981
837.11886
858.68824
881.18781
904.74007
929.45795
955.41611
982.64397
1011.1083
1040.7596
1071.5595
1103.4763
1136.4631
1170.4598
1205.4074
1241.1783
1277.3652
1312.0887
700.5202
719.61634
738.57248
757.5788
776.788
796.35596
816.44474
837.20174
858.75976
881.24433
904.77372
929.46013
955.37422
982.54732
1010.9624
1040.5786
1071.3561
1103.2572
1136.2322
1170.2215
1205.1543
1240.9465
1277.1486
1311.9575
699.55648
718.65486
737.68071
756.788
776.10916
795.76798
815.92277
836.75517
858.38789
880.88229
904.54972
929.48194
955.69696
983.26399
1012.0146
1041.8008
1072.6437
1104.5372
1137.4292
1171.2294
1205.8285
1241.0681
1276.9418
1311.8198
699.72213
718.81282
737.81752
756.89673
776.19431
795.83635
815.97556
836.78637
858.40012
880.91444
904.57275
929.47926
955.66948
983.18159
1011.878
1041.6406
1072.4743
1104.3727
1137.2908
1171.1551
1205.8725
1241.2703
1277.2713
1312.0082
699.89353
718.97759
737.96
757.00673
776.27474
795.89823
816.02554
836.82134
858.42571
880.94328
904.5777
929.45492
955.61488
983.07955
1011.7404
1041.4953
1072.3348
1104.2499
1137.2013
1171.126
1205.9401
1241.4611
1277.5262
1312.1616
700.05023
719.12782
738.09079
757.10962
776.35147
795.95902
816.07779
836.86277
858.45732
880.98155
904.59199
929.43083
955.55445
982.97351
1011.5982
1041.3401
1072.1779
1104.1044
1137.0829
1171.0579
1205.9509
1241.5755
1277.6926
1312.2524
700.18306
719.25556
738.20522
757.20507
776.42792
796.02356
816.13706
836.91537
858.50072
881.02371
904.62138
929.42291
955.50057
982.87341
1011.4623
1041.1876
1072.0212
1103.9551
1136.9522
1170.9598
1205.9042
1241.603
1277.7585
1312.283
700.28786
719.35764
738.2987
757.28721
776.49944
796.09097
816.20434
836.97825
858.55765
881.07392
904.65876
929.43131
955.46646
982.78709
1011.3329
1041.0368
1071.8659
1103.8035
1136.8106
1170.8291
1205.7981
1241.5423
1277.7222
1312.257
700.36892
719.43679
738.37166
757.3525
776.56608
796.15626
816.27169
837.04848
858.62424
881.13284
904.70201
929.44677
955.44271
982.71616
1011.2218
1040.9027
1071.7218
1103.6531
1136.6521
1170.6616
1205.6296
1241.3931
1277.5837
1312.1804
700.44597
719.52353
738.46681
757.45705
776.65008
796.22741
816.34465
837.11914
858.69273
881.19353
904.74531
929.46216
955.41974
982.64797
1011.1138
1040.7696
1071.5741
1103.4918
1136.473
1170.4571
1205.4065
1241.169
1277.3576
1312.0862
699.76449
718.84671
737.84531
756.92274
776.22216
795.86889
816.01242
836.82586
858.45116
880.95644
904.5686
929.45948
955.63729
983.1388
1011.8371
1041.605
1072.4452
1104.3486
1137.2693
1171.1329
1205.8435
1241.2336
1277.2085
1311.9962
699.89675
718.96972
737.94514
756.99496
776.27311
795.90495
816.03387
836.82766
858.42941
880.94521
904.58083
929.45933
955.62072
983.08681
1011.7486
1041.5045
1072.3449
1104.2591
1137.2072
1171.1283
1205.9406
1241.4589
1277.5212
1312.1546
700.03573
719.10133
738.05328
757.07197
776.32319
795.93616
816.05133
836.83086
858.42041
880.94071
904.57131
929.43431
955.578
983.01437
1011.6544
1041.4096
1072.2599
1104.193
1137.1733
1171.1481
1206.0401
1241.6537
1277.7529
1312.282
700.15753
719.21751
738.14985
757.14178
776.36939
795.96666
816.07258
836.84382
858.42664
880.94887
904.56767
929.40955
955.5317
982.94079
1011.5598
1041.3085
1072.1605
1104.1045
1137.1081
1171.1229
1206.0732
1241.7627
1277.8947
1312.3551
700.24803
719.30572
738.22728
757.20243
776.41343
796.00063
816.10409
836.87334
858.45328
880.97493
904.58245
929.40073
955.49577
982.87634
1011.4749
1041.2139
1072.0635
1104.0125
1137.0281
1171.0626
1206.0427
1241.7792
1277.9369
1312.3735
700.30018
719.36068
738.28124
757.25158
776.45498
796.03834
816.14702
836.92084
858.502
881.0213
904.61724
929.41213
955.47734
982.82856
1011.4026
1041.1281
1071.9723
1103.92
1136.9348
1170.9656
1205.9482
1241.7009
1277.8756
1312.3376
700.31743
719.38593
738.31244
757.28186
776.48615
796.07569
816.19627
836.97937
858.56612
881.08409
904.66662
929.43621
955.46973
982.79053
1011.3383
1041.0479
1071.8832
1103.8234
1136.825
1170.8296
1205.7904
1241.5305
1277.7111
1312.2516
700.33668
719.41096
738.34807
757.32602
776.52697
796.1165
816.24369
837.03782
858.63086
881.14863
904.71756
929.45998
955.45859
982.74468
1011.2597
1040.9521
1071.7799
1103.7114
1136.6978
1170.6761
1205.5983
1241.3021
1277.4647
1312.1521
699.95453
719.02391
738.001
757.05376
776.333
795.96744
816.10099
836.8973
858.50573
881.02792
904.61018
929.43706
955.56661
983.00483
1011.6486
1041.3965
1072.2315
1104.1456
1137.0925
1171.0124
1205.8212
1241.3425
1277.3937
1312.1097
700.05378
719.11247
738.06535
757.09303
776.35537
795.97715
816.09638
836.87576
858.46486
880.98278
904.5937
929.43533
955.56232
982.98476
1011.6124
1041.3574
1072.1994
1104.1254
1137.097
1171.0646
1205.9546
1241.573
1277.6817
1312.2385
700.1581
719.20825
738.13668
757.13648
776.37699
795.98065
816.08385
836.85033
858.42965
880.9483
904.56628
929.40947
955.53398
982.94542
1011.566
1041.3172
1072.1726
1104.1168
1137.1166
1171.1278
1206.0772
1241.7629
1277.8885
1312.3465
700.23983
719.28564
738.19459
757.16921
776.38964
795.97924
816.07363
836.83587
858.41313
880.93371
904.54991
929.38746
955.50628
982.909
1011.5236
1041.2763
1072.1372
1104.0911
1137.1084
1171.1467
1206.1314
1241.8627
1278.0029
1312.4069
700.28315
719.33106
738.23243
757.19042
776.39524
795.97807
816.0752
836.84278
858.42395
880.94644
904.55791
929.38529
955.49317
982.88591
1011.4945
1041.2451
1072.1061
1104.0619
1137.083
1171.1267
1206.1186
1241.865
1278.0159
1312.4144
700.28134
719.33715
738.2438
757.20035
776.39676
795.98017
816.09041
836.87264
858.46372
880.98812
904.59191
929.40514
955.49716
982.87788
1011.4793
1041.2245
1072.081
1104.0311
1137.0415
1171.0676
1206.0394
1241.7682
1277.924
1312.3666
700.24309
719.31379
738.23634
757.19802
776.39368
795.98386
816.11296
836.91615
858.52259
881.05039
904.64149
929.43415
955.50597
982.87803
1011.4714
1041.2081
1072.055
1103.9914
1136.9774
1170.9664
1205.8944
1241.5798
1277.7316
1312.2686
700.1999
719.28335
738.22432
757.19849
776.39702
795.99237
816.13549
836.95726
858.57943
881.11443
904.68998
929.44834
955.49019
982.85636
1011.452
1041.1857
1072.0266
1103.9536
1136.9162
1170.8658
1205.7324
1241.3471
1277.459
1312.1576
700.12815
719.18927
738.15136
757.18589
776.44809
796.06997
816.19408
836.97509
858.56002
881.08218
904.66531
929.43851
955.49309
982.86536
1011.4617
1041.1856
1072.0154
1103.9388
1136.9064
1170.8679
1205.7502
1241.3737
1277.4795
1312.1583
700.18555
719.23823
738.17849
757.19185
776.44142
796.05298
816.16444
836.93327
858.50912
881.02326
904.61869
929.42335
955.50688
982.88429
1011.4787
1041.2105
1072.053
1103.9886
1136.9772
1170.9746
1205.9149
1241.6028
1277.7417
1312.2634
700.24635
719.29237
738.21099
757.20117
776.43349
796.02892
816.12531
836.88515
858.45769
880.97193
904.57626
929.39661
955.49664
982.88233
1011.4841
1041.229
1072.0872
1104.0381
1137.0485
1171.0776
1206.056
1241.7825
1277.9237
1312.3559
700.28023
719.32443
738.22668
757.19535
776.41107
795.9958
816.08607
836.84752
858.42512
880.94373
904.55298
929.38129
955.49199
982.88738
1011.4977
1041.252
1072.1181
1104.0755
1137.095
1171.1377
1206.1291
1241.8687
1278.0082
1312.4031
700.2718
719.3222
738.22103
757.17534
776.3756
795.95614
816.05617
836.83292
858.42319
880.94754
904.55869
929.3898
955.50497
982.90752
1011.5252
1041.285
1072.1537
1104.1093
1137.1239
1171.158
1206.135
1241.8548
1277.9884
1312.3989
700.21774
719.28254
738.1936
757.14589
776.33504
795.91763
816.03879
836.84156
858.45122
880.98045
904.58998
929.41902
955.53291
982.94073
1011.5652
1041.327
1072.1938
1104.1408
1137.1367
1171.14
1206.0743
1241.7434
1277.8643
1312.3387
700.13073
719.214
738.14676
757.10779
776.29463
795.88444
816.03043
836.86401
858.49783
881.03176
904.62986
929.45132
955.56136
982.97671
1011.6081
1041.3678
1072.2264
1104.1574
1137.1225
1171.078
1205.948
1241.5445
1277.6458
1312.2268
700.04229
719.14042
738.09526
757.07189
776.26412
795.86165
816.02595
836.88456
858.54267
881.08425
904.65102
929.45641
955.56507
982.99342
1011.6414
1041.4074
1072.2642
1104.1867
1137.1254
1171.0306
1205.8176
1241.3117
1277.3486
1312.0911
700.28833
719.34524
738.29871
757.31975
776.56459
796.17169
816.28857
837.0585
858.6278
881.13377
904.70372
929.4543
955.46203
982.7544
1011.2743
1040.9624
1071.7908
1103.7229
1136.7092
1170.6947
1205.6239
1241.3223
1277.4639
1312.1413
700.28895
719.34435
738.28025
757.28394
776.52239
796.12604
816.235
836.99866
858.56605
881.0715
904.65173
929.42719
955.46967
982.79702
1011.3497
1041.0626
1071.9045
1103.8468
1136.8472
1170.8555
1205.8193
1241.5465
1277.7006
1312.2339
700.29566
719.35069
738.27345
757.26101
776.48525
796.07395
816.17258
836.93524
858.50688
881.01611
904.60651
929.40329
955.47515
982.83262
1011.4122
1041.147
1072.004
1103.9561
1136.967
1170.994
1205.9744
1241.7098
1277.856
1312.3135
700.2744
719.33265
738.24632
757.21625
776.42461
796.00636
816.10607
836.88036
858.4657
880.98328
904.58269
929.39669
955.49327
982.87876
1011.4834
1041.2361
1072.1023
1104.0556
1137.0653
1171.0927
1206.0645
1241.7783
1277.9096
1312.3447
700.21385
719.28192
738.19862
757.1578
776.34967
795.92851
816.04389
836.84338
858.45117
880.97841
904.58597
929.4148
955.53041
982.94001
1011.5664
1041.3323
1072.2035
1104.1521
1137.1486
1171.1545
1206.0892
1241.7498
1277.8576
1312.3307
700.11243
719.19795
738.13162
757.09059
776.27003
795.85035
815.99116
836.82621
858.46184
880.99578
904.61069
929.45095
955.57854
983.01015
1011.6579
1041.4336
1072.3065
1104.2455
1137.2181
1171.1812
1206.0511
1241.6293
1277.7039
1312.2554
699.98487
719.08967
738.04761
757.01739
776.19482
795.78211
815.94982
836.82144
858.48603
881.02063
904.6367
929.48559
955.62252
983.07867
1011.7481
1041.5278
1072.3953
1104.318
1137.2567
1171.1631
1205.9496
1241.4266
1277.4606
1312.1258
699.86183
718.97983
737.95879
756.94559
776.13234
795.73083
815.91844
836.81743
858.51063
881.04108
904.62837
929.48927
955.6384
983.12728
1011.8338
1041.6274
1072.4987
1104.4141
1137.3249
1171.1718
1205.8559
1241.2013
1277.1421
1311.9646
700.42884
719.49535
738.44787
757.45982
776.68014
796.26482
816.37759
837.13883
858.69816
881.18908
904.73802
929.45876
955.42336
982.65829
1011.1304
1040.7911
1071.6041
1103.5272
1136.5075
1170.4927
1205.432
1241.1825
1277.343
1312.0687
700.36829
719.43084
738.36737
757.36428
776.59421
796.18921
816.29991
837.06614
858.63153
881.12973
904.69323
929.43984
955.44287
982.72391
1011.238
1040.9296
1071.7634
1103.7014
1136.6962
1170.6999
1205.662
1241.4026
1277.5602
1312.1568
700.31149
719.3829
738.31857
757.30551
776.5203
796.10747
816.21709
836.9927
858.57057
881.07897
904.65512
929.4252
955.4648
982.79212
1011.348
1041.0686
1071.9182
1103.8635
1136.8656
1170.8708
1205.8292
1241.5453
1277.6898
1312.2265
700.23447
719.31505
738.2516
757.22668
776.42464
796.00616
816.12511
836.92289
858.52449
881.04607
904.63231
929.4241
955.49957
982.87534
1011.4758
1041.2229
1072.0809
1104.0217
1137.0099
1171.0041
1205.9319
1241.5961
1277.716
1312.247
700.12469
719.21817
738.16349
757.13201
776.31453
795.89424
816.03323
836.86487
858.49852
881.03021
904.62617
929.44556
955.55648
982.97364
1011.6098
1041.3769
1072.242
1104.1755
1137.1437
1171.1048
1205.9745
1241.5568
1277.6379
1312.2134
699.98269
719.09342
738.05779
757.02972
776.20255
795.78386
815.94861
836.8202
858.48615
881.02226
904.6372
929.48406
955.62004
983.07669
1011.7486
1041.5318
1072.4016
1104.3252
1137.2662
1171.1752
1205.9607
1241.4321
1277.4591
1312.1209
699.82031
718.94825
737.93618
756.92104
776.09526
795.68448
815.87509
836.78369
858.47614
881.01284
904.64934
929.5189
955.6764
983.17527
1011.8825
1041.6761
1072.5438
1104.4533
1137.3603
1171.2069
1205.8931
1241.2361
1277.1949
1311.9673
699.66361
718.80171
737.80732
756.80998
775.99878
795.60306
815.81325
836.74852
858.46457
880.98371
904.62748
929.52437
955.70339
983.25526
1012.0175
1041.8357
1072.7148
1104.6228
1137.5037
1171.2849
1205.853
1241.0367
1276.8644
1311.7794
700.52281
719.61431
738.57265
757.5882
776.80915
796.3812
816.46756
837.21775
858.76792
881.24514
904.77072
929.45866
955.37816
982.55848
1010.9821
1040.6087
1071.3997
1103.3084
1136.2805
1170.2626
1205.1842
1240.9553
1277.1283
1311.9405
700.44651
719.52501
738.47336
757.47514
776.68139
796.25401
816.36525
837.13172
858.69837
881.19106
904.73742
929.45453
955.41747
982.65321
1011.1289
1040.7958
1071.6147
1103.5401
1136.5208
1170.5042
1205.4457
1241.1833
1277.3366
1312.0666
700.33107
719.41747
738.36751
757.35718
776.55964
796.13996
816.25831
837.04808
858.63417
881.14505
904.70836
929.44925
955.45172
982.74451
1011.271
1040.973
1071.8144
1103.7515
1136.7385
1170.7233
1205.6423
1241.3207
1277.4468
1312.1322
700.192
719.29197
738.2507
757.23392
776.42544
796.00715
816.14191
836.96124
858.57979
881.1118
904.6832
929.43806
955.48163
982.85224
1011.4569
1041.2019
1072.0532
1103.9849
1136.9515
1170.9082
1205.7731
1241.3662
1277.4485
1312.1433
700.03597
719.15065
738.122
757.10303
776.28374
795.86711
816.02505
836.88364
858.5443
881.08278
904.64873
929.45001
955.55837
982.98842
1011.6438
1041.419
1072.2822
1104.2075
1137.151
1171.0621
1205.8467
1241.3262
1277.3455
1312.0823
699.85875
718.98872
737.97837
756.96589
776.1427
795.73133
815.91522
836.81483
858.51069
881.03749
904.63074
929.48715
955.63346
983.1232
1011.8348
1041.6345
1072.5086
1104.4252
1137.3396
1171.1894
1205.8705
1241.209
1277.1444
1311.9625
699.66273
718.80662
737.81659
756.81877
776.00278
795.60293
815.81162
836.74691
858.46408
880.98319
904.63009
929.52329
955.70037
983.25298
1012.0175
1041.8387
1072.7187
1104.6269
1137.5097
1171.2913
1205.8575
1241.0392
1276.8675
1311.7806
699.47482
718.62629
737.6499
756.6692
775.8708
795.4875
815.71299
836.66823
858.36934
880.89101
904.6227
929.53752
955.74208
983.36239
1012.1955
1042.0558
1072.9559
1104.8706
1137.7305
1171.4413
1205.8769
1240.8785
1276.5337
1311.5585
1311.0047
1275.5458
1240.3604
1205.8068
1171.7213
1138.2328
1105.5166
1073.7175
1042.9172
1013.1244
984.01247
955.98236
929.61611
904.69438
881.09058
858.56295
836.70201
815.69345
795.42861
775.68791
756.28635
737.08311
717.95604
698.77091
1311.0668
1275.6905
1240.4258
1205.7613
1171.6032
1138.0801
1105.3535
1073.5576
1042.7617
1012.9673
983.90726
955.97091
929.661
904.78702
881.22662
858.68791
836.82818
815.84788
795.60016
775.87578
756.49122
737.30526
718.1932
699.01853
1311.2947
1275.918
1240.5366
1205.6947
1171.3987
1137.7848
1105.005
1073.1767
1042.3661
1012.5763
983.62974
955.86834
929.66224
904.84129
881.28157
858.6703
836.88503
815.95675
795.73617
776.03474
756.67649
737.51722
718.42583
699.26377
1311.5006
1276.1713
1240.6503
1205.5988
1171.1372
1137.4132
1104.5654
1072.6955
1041.8688
1012.0854
983.29149
955.74154
929.64947
904.87766
881.29604
858.66622
836.94851
816.06523
795.87014
776.19251
756.86379
737.73413
718.66577
699.51648
1311.6338
1276.4029
1240.7242
1205.4527
1170.8245
1136.9946
1104.085
1072.1809
1041.3488
1011.5969
982.96348
955.61614
929.62018
904.88455
881.27947
858.68621
837.02697
816.18078
796.00731
776.35052
757.04921
737.94806
718.90301
699.7656
1311.6617
1276.5532
1240.7188
1205.2456
1170.4756
1136.5683
1103.6192
1071.6996
1040.873
1011.1904
982.70714
955.49042
929.55044
904.83824
881.26595
858.7311
837.11551
816.29245
796.13589
776.49636
757.21663
738.13642
719.10944
699.97598
1311.5712
1276.577
1240.6221
1204.9896
1170.1106
1136.1313
1103.1521
1071.2424
1040.4601
1010.8528
982.46457
955.33466
929.46154
904.80037
881.27675
858.77711
837.18961
816.38996
796.24978
776.62404
757.3588
738.28791
719.27184
700.1303
1311.3175
1276.3791
1240.3729
1204.6433
1169.7089
1135.7097
1102.7365
1070.8555
1040.1212
1010.578
982.26293
955.20297
929.38951
904.77961
881.30189
858.84078
837.2828
816.51013
796.39495
776.78599
757.54022
738.47006
719.46727
700.35756
1312.5219
1276.4091
1241.3706
1206.5813
1172.0048
1137.8616
1104.4062
1071.8654
1040.4465
1010.3666
981.98747
955.03754
929.01717
903.9975
879.9877
856.95137
835.09231
814.21855
793.97172
774.19702
754.75625
735.52536
716.38967
697.21971
1312.3378
1276.1348
1240.9795
1206.1044
1171.5017
1137.3908
1104.0162
1071.5865
1040.2958
1010.3328
981.99016
955.01052
929.00333
904.03421
880.06874
857.21392
835.51206
814.59595
794.33068
774.56148
755.13592
735.9217
716.79716
697.62985
1312.0688
1275.7478
1240.3846
1205.3493
1170.6819
1136.5998
1103.3255
1071.0458
1039.929
1010.1308
981.86618
954.89663
928.93999
904.05554
880.20137
857.50429
835.89033
815.03265
794.81715
775.09585
755.71919
736.55019
717.45956
698.31189
1311.6645
1275.3035
1239.6905
1204.4565
1169.7114
1135.6604
1102.5011
1070.3935
1039.4724
1009.8721
981.68689
954.74048
928.86351
904.09584
880.42164
857.89564
836.34094
815.54891
795.39847
775.74219
756.43137
737.32347
718.28048
699.16449
1311.1578
1274.876
1239.0008
1203.5549
1168.7335
1134.7147
1101.6702
1069.7346
1039.0046
1009.5834
981.47608
954.56032
928.77929
904.15846
880.68969
858.28766
836.79932
816.07575
796.00147
776.42019
757.18163
738.14
719.15183
700.07631
1310.614
1274.5173
1238.3853
1202.7406
1167.8496
1133.853
1100.9106
1069.1284
1038.5723
1009.2693
981.21148
954.37781
928.74652
904.29167
880.95222
858.63429
837.21948
816.5605
796.55928
777.04869
757.87697
738.89814
719.965
700.93761
1310.1064
1274.2824
1237.9175
1202.0986
1167.1629
1133.2161
1100.3656
1068.6844
1038.2204
1008.9991
981.02647
954.29257
928.76698
904.40972
881.15116
858.90409
837.56056
816.97628
797.01152
777.56134
758.44332
739.52054
720.63658
701.66614
1309.7294
1274.2058
1237.6087
1201.6741
1166.7158
1132.7994
1100.002
1068.3817
1037.9773
1008.8134
980.89983
954.23225
928.77278
904.4712
881.26059
859.06291
837.79153
817.3387
797.45287
777.99417
758.88865
740.00388
721.13922
702.16758
1311.3133
1276.3765
1240.3693
1204.6433
1169.7147
1135.7175
1102.7448
1070.8623
1040.1263
1010.5821
982.26577
955.20471
929.39007
904.77877
881.29998
858.83889
837.28135
816.50949
796.39536
776.78849
757.54426
738.47548
719.47492
700.36472
1311.559
1276.5661
1240.6119
1204.9856
1170.1232
1136.1519
1103.1765
1071.2636
1040.4753
1010.8641
982.47254
955.34035
929.46528
904.80157
881.27545
858.77494
837.18678
816.38697
796.24777
776.62658
757.36672
738.3038
719.29519
700.15473
1311.6461
1276.5288
1240.7012
1205.2424
1170.4905
1136.5977
1103.6598
1071.7371
1040.8992
1011.2089
982.72012
955.50145
929.56106
904.84742
881.27284
858.73427
837.11203
816.28155
796.12101
776.48524
757.22061
738.1637
719.15458
700.02222
1311.6107
1276.3643
1240.7028
1205.4569
1170.8527
1137.0434
1104.1453
1072.2351
1041.3861
1011.6208
982.98074
955.63252
929.64135
904.90905
881.30402
858.70216
837.02397
816.15437
795.96614
776.31638
757.04738
737.98925
718.97298
699.83615
1311.47
1276.1207
1240.6294
1205.615
1171.1818
1137.4806
1104.6445
1072.7658
1041.9165
1012.1138
983.31116
955.7635
929.6818
904.92284
881.34451
858.69912
836.94523
816.01704
795.79381
776.13035
756.8571
737.79114
718.75854
699.60653
1311.2578
1275.8582
1240.5172
1205.7221
1171.4581
1137.8684
1105.1
1073.2603
1042.4225
1012.6075
983.64975
955.89466
929.70732
904.90679
881.3531
858.71636
836.87824
815.88541
795.62533
775.94703
756.66777
737.59052
718.5383
699.36838
1311.0282
1275.6309
1240.4089
1205.7949
1171.6717
1138.1745
1105.4588
1073.6499
1042.8241
1013.0004
983.9254
955.99743
929.71217
904.86398
881.31088
858.73795
836.81382
815.75999
795.46862
775.77364
756.4821
737.38963
718.31906
699.1329
1310.9711
1275.4931
1240.3468
1205.842
1171.7926
1138.3308
1105.625
1073.8125
1042.982
1013.1577
984.02727
956.00503
929.66541
904.77049
881.17311
858.60627
836.68111
815.6019
795.29691
775.58712
756.2784
737.1698
718.0857
698.88887
1309.7252
1274.2063
1237.609
1201.6738
1166.7185
1132.8041
1100.007
1068.3857
1037.9803
1008.8155
980.9011
954.23251
928.77194
904.4694
881.2582
859.0608
837.79042
817.33837
797.45374
777.99557
758.8914
740.00878
721.14572
702.17431
1310.0767
1274.2694
1237.9087
1202.099
1167.1723
1133.232
1100.3823
1068.6985
1038.2311
1009.0067
981.03164
954.295
928.76686
904.40722
881.14698
858.89955
837.55686
816.97287
797.00795
777.56164
758.44925
739.53418
720.65648
701.68722
1310.6012
1274.5072
1238.3829
1202.7469
1167.8711
1133.884
1100.9412
1069.1542
1038.5918
1009.2837
981.22212
954.38475
928.75066
904.29311
880.95081
858.63049
837.21303
816.551
796.54924
777.04364
757.88309
738.91963
719.99871
700.97403
1311.165
1274.8628
1238.9965
1203.5696
1168.7645
1134.7573
1101.7149
1069.7731
1039.034
1009.6057
981.49398
954.57602
928.79302
904.17011
880.69705
858.28858
836.79024
816.05594
795.97698
776.40294
757.18435
738.16876
719.20014
700.12915
1311.6624
1275.2902
1239.6913
1204.4796
1169.7538
1135.7161
1102.5601
1070.4449
1039.5118
1009.9016
981.71176
954.76564
928.89068
904.12317
880.44371
857.90494
836.32893
815.51392
795.35234
775.70679
756.42796
737.35905
718.34341
699.2338
1312.0498
1275.7288
1240.3876
1205.379
1170.7347
1136.6684
1103.3981
1071.1097
1039.9781
1010.1673
981.89664
954.92944
928.98011
904.10005
880.23909
857.52178
835.87423
814.97923
794.7451
775.03895
755.70854
736.59286
717.53697
698.39683
1312.3242
1276.1167
1240.9838
1206.1385
1171.5625
1137.47
1104.1003
1071.6608
1040.3527
1010.3738
982.02331
955.04733
929.05142
904.09058
880.11667
857.23648
835.48916
814.5254
794.23576
774.48541
755.11858
735.97083
716.88747
697.72774
1312.5115
1276.3919
1241.3749
1206.6169
1172.0695
1137.9467
1104.4966
1071.9453
1040.5067
1010.4078
982.01928
955.07235
929.06415
904.05558
880.03685
856.97232
835.0662
814.14091
793.86694
774.11268
754.73678
735.5796
716.48834
697.32438
1310.9739
1275.4963
1240.3466
1205.8413
1171.7928
1138.3315
1105.6261
1073.8143
1042.9838
1013.158
984.02518
956.00221
929.66365
904.76683
881.17226
858.60757
836.68159
815.60307
795.29928
775.59074
756.28291
737.17407
718.08805
698.88829
1311.0365
1275.6402
1240.4098
1205.7948
1171.6746
1138.178
1105.4631
1073.6557
1042.8295
1013.0013
983.91961
955.98996
929.70715
904.85945
881.31135
858.73868
836.81259
815.76141
795.47343
775.78257
756.49482
737.40216
718.32603
699.13152
1311.2671
1275.871
1240.5218
1205.7271
1171.4667
1137.8772
1105.1091
1073.2715
1042.4322
1012.6088
983.64164
955.88438
929.70023
904.90357
881.35286
858.71982
836.87802
815.88704
795.6315
775.96085
756.68928
737.61191
718.54978
699.36619
1311.4762
1276.1306
1240.6394
1205.6296
1171.1998
1137.4977
1104.6615
1072.784
1041.9308
1012.1155
983.30308
955.75324
929.67497
904.92205
881.34447
858.69611
836.94611
816.01989
795.80202
776.14917
756.88578
737.81827
718.77195
699.60303
1311.6137
1276.3696
1240.7181
1205.482
1170.8812
1137.0707
1104.1723
1072.2607
1041.4047
1011.6255
982.97551
955.62441
929.63509
904.90661
881.30369
858.70466
837.02892
816.16168
795.97888
776.33892
757.07723
738.01509
718.98477
699.83257
1311.6453
1276.5267
1240.7172
1205.2729
1170.5256
1136.6343
1103.6968
1071.7696
1040.922
1011.218
982.72019
955.49561
929.55463
904.84423
881.27439
858.74141
837.12132
816.29452
796.13883
776.50849
757.24468
738.18197
719.16304
700.02104
1311.5585
1276.5568
1240.6235
1205.0138
1170.1591
1136.1929
1103.2191
1071.301
1040.5021
1010.8788
982.47838
955.34005
929.46277
904.80074
881.27884
858.78265
837.20028
816.40434
796.26855
776.64657
757.38189
738.31424
719.30138
700.15683
1311.3084
1276.3638
1240.3757
1204.6676
1169.7499
1135.7608
1102.7902
1070.9019
1040.1559
1010.6017
982.27754
955.21063
929.3931
904.78184
881.30575
858.84835
837.29676
816.52815
796.41573
776.80565
757.55459
738.48127
719.47973
700.36811
1312.5113
1276.3938
1241.3752
1206.6167
1172.0695
1137.9468
1104.4972
1071.9468
1040.5082
1010.4085
982.01934
955.07074
929.05982
904.04945
880.03138
856.96668
835.063
814.14288
793.87256
774.12047
754.74428
735.58507
716.49046
697.32245
1312.3303
1276.1235
1240.9858
1206.139
1171.5634
1137.4715
1104.1032
1071.6659
1040.3578
1010.3761
982.02315
955.04238
929.04062
904.07719
880.10379
857.22837
835.48171
814.5287
794.2496
774.50539
755.13852
735.98577
716.89362
697.72349
1312.0632
1275.7402
1240.3931
1205.383
1170.7394
1136.6738
1103.4057
1071.1201
1039.9878
1010.1723
981.89597
954.92182
928.96599
904.08428
880.22623
857.51452
835.87518
814.98766
794.76431
775.06549
755.73581
736.61393
717.54632
698.39258
1311.6605
1275.2986
1239.7004
1204.489
1169.7647
1135.7282
1102.5746
1070.4618
1039.5268
1009.9107
981.71155
954.75688
928.87721
904.10918
880.43593
857.90289
836.33328
815.52568
795.37328
775.73477
756.45731
737.38211
718.35396
699.23011
1311.1548
1274.8719
1239.0106
1203.5855
1168.7836
1134.7783
1101.7379
1069.7967
1039.0534
1009.6172
981.4954
954.5694
928.78328
904.16355
880.6974
858.29235
836.79853
816.07052
795.99789
776.42901
757.21132
738.18976
719.20966
700.126
1310.6114
1274.5123
1238.3936
1202.7687
1167.8978
1133.9139
1100.9728
1069.1846
1038.6157
1009.2971
981.22601
954.38385
928.74815
904.29292
880.95515
858.63836
837.22439
816.56818
796.56996
777.06668
757.90514
738.93614
720.00626
700.97173
1310.1029
1274.2748
1237.9228
1202.1228
1167.2044
1133.2695
1100.4212
1068.7337
1038.2582
1009.024
981.04007
954.29836
928.76875
904.41072
881.15365
858.90939
837.56922
816.98702
797.02802
777.5811
758.4661
739.5462
720.6622
701.6861
1309.7256
1274.1968
1237.6125
1201.6939
1166.7509
1132.8448
1100.0497
1068.4238
1038.0101
1008.8363
980.91412
954.24064
928.77813
904.47584
881.26641
859.07152
837.80432
817.35385
797.46882
778.01053
758.90347
740.01658
721.14982
702.17478
1311.3066
1276.3637
1240.3737
1204.6644
1169.7444
1135.7544
1102.7836
1070.8965
1040.1527
1010.6013
982.27962
955.21441
929.39725
904.78548
881.30857
858.85095
837.29865
816.52927
796.41482
776.80135
757.54787
738.47214
719.46928
700.36104
1311.5561
1276.5597
1240.6196
1205.0048
1170.1412
1136.173
1103.1989
1071.2848
1040.494
1010.8795
982.48619
955.35135
929.47393
904.80927
881.28487
858.78821
837.20715
816.41089
796.26914
776.63637
757.36062
738.28353
719.26904
700.13227
1311.6511
1276.537
1240.7132
1205.2534
1170.4945
1136.5996
1103.6613
1071.7418
1040.9089
1011.2208
982.73431
955.51312
929.56864
904.85094
881.2761
858.74375
837.13356
816.31367
796.15322
776.50141
757.20825
738.12346
719.1019
699.977
1311.6275
1276.3922
1240.7177
1205.4546
1170.8358
1137.0178
1104.1185
1072.2171
1041.3832
1011.6295
982.99491
955.64323
929.64481
904.90148
881.29128
858.69778
837.04309
816.19794
796.0179
776.34681
757.03301
737.93011
718.8933
699.76747
1311.499
1276.1676
1240.645
1205.5972
1171.1429
1137.4278
1104.5884
1072.7232
1041.8985
1012.1163
983.322
955.76907
929.67334
904.89617
881.30814
858.67429
836.96057
816.07577
795.87255
776.18205
756.84463
737.71638
718.65724
699.51921
1311.2937
1275.9164
1240.5318
1205.6918
1171.4012
1137.7931
1105.0188
1073.1953
1042.3881
1012.6006
983.65494
955.89211
929.68249
904.8561
881.2925
858.68282
836.89315
815.96136
795.73296
776.02201
756.65968
737.50414
718.421
699.26727
1311.0666
1275.6901
1240.4224
1205.7587
1171.604
1138.084
1105.3606
1073.5679
1042.7747
1012.9826
983.92352
955.98653
929.67448
904.79603
881.23369
858.69476
836.831
815.84841
795.59573
775.86652
756.48123
737.29851
718.19129
699.02086
1311.0048
1275.5457
1240.3592
1205.8056
1171.7211
1138.2336
1105.5186
1073.7206
1042.9214
1013.1296
984.01813
955.98793
929.62112
904.69717
881.09275
858.5663
836.70374
815.69371
795.42712
775.68513
756.28364
737.0815
717.95575
698.77161
1309.7229
1274.2001
1237.613
1201.6911
1166.7468
1132.8403
1100.0456
1068.4208
1038.0086
1008.837
980.91677
954.24508
928.78337
904.48049
881.26976
859.07365
837.8048
817.35257
797.46705
778.0067
758.89771
740.00948
721.1423
702.16845
1310.0791
1274.2701
1237.9154
1202.1129
1167.1907
1133.2543
1100.4069
1068.7221
1038.252
1009.0245
981.04742
954.31017
928.78192
904.42209
881.1615
858.91436
837.57246
816.98734
797.02253
777.57
758.44852
739.52322
720.63778
701.6662
1310.6078
1274.5156
1238.3909
1202.7524
1167.8739
1133.8862
1100.9459
1069.1618
1038.6022
1009.2956
981.23548
954.39996
928.76586
904.30739
880.96402