/*--------------------------------*- C++ -*----------------------------------*\
| =========                 |                                                 |
| \\      /  F ield         | OpenFOAM: The Open Source CFD Toolbox           |
|  \\    /   O peration     | Version:  4.1                                   |
|   \\  /    A nd           | Web:      www.OpenFOAM.org                      |
|    \\/     M anipulation  |                                                 |
\*---------------------------------------------------------------------------*/
FoamFile
{
    version     2.0;
    format      ascii;
    class       surfaceScalarField;
    location    "0.0053";
    object      phi;
}
// * * * * * * * * * * * * * * * * * * * * * * * * * * * * * * * * * * * * * //

dimensions      [0 3 -1 0 0 0 0];

internalField   nonuniform List<scalar> 
17536
(
-3.2958e-09
-2.2909e-11
-2.2908e-11
2.6909e-11
2.6829e-11
-3.5978e-09
-2.6993e-11
-2.7003e-11
2.5868e-11
2.5699e-11
-3.8604e-09
-1.5293e-11
-1.53e-11
1.0068e-11
9.5715e-12
-4.0575e-09
1.2094e-11
1.2047e-11
-1.8554e-11
-1.8732e-11
-4.199e-09
9.5294e-12
9.486e-12
-1.4703e-11
-1.4638e-11
-4.3276e-09
9.1887e-12
9.2179e-12
-7.9901e-12
-7.6039e-12
-4.4781e-09
1.6913e-11
1.6924e-11
-1.4227e-11
-1.403e-11
-4.6883e-09
4.747e-11
4.7972e-11
-5.1123e-11
-5.057e-11
-4.9873e-09
8.8482e-11
8.93e-11
-1.1196e-10
-1.1133e-10
-5.4148e-09
1.4406e-10
1.4529e-10
-1.9394e-10
-1.9333e-10
-6.0008e-09
2.1215e-10
2.1379e-10
-2.9255e-10
-2.9165e-10
-6.758e-09
2.8816e-10
2.9033e-10
-4.0202e-10
-3.9997e-10
-7.686e-09
3.6873e-10
3.7166e-10
-5.1665e-10
-5.1507e-10
-8.7828e-09
4.5374e-10
4.5747e-10
-6.3814e-10
-6.3515e-10
-1.0057e-08
5.4445e-10
5.4884e-10
-7.6788e-10
-7.6329e-10
-1.1532e-08
6.4219e-10
6.4719e-10
-9.0747e-10
-9.0349e-10
-1.3235e-08
7.4771e-10
7.5306e-10
-1.0606e-09
-1.0562e-09
-1.5191e-08
8.5632e-10
8.6192e-10
-1.2206e-09
-1.2166e-09
-1.7406e-08
9.6051e-10
9.663e-10
-1.3779e-09
-1.3745e-09
-1.9865e-08
1.0513e-09
1.0571e-09
-1.5193e-09
-1.5165e-09
-2.2527e-08
1.1199e-09
1.1258e-09
-1.6325e-09
-1.6294e-09
-2.533e-08
1.1594e-09
1.1653e-09
-1.7059e-09
-1.7029e-09
-2.8199e-08
1.1656e-09
1.1716e-09
-1.7353e-09
-1.7306e-09
-3.1058e-08
1.1307e-09
1.1368e-09
-1.7112e-09
-1.7038e-09
-3.3839e-08
1.0469e-09
1.0526e-09
-1.6185e-09
-1.6164e-09
-3.6454e-08
9.0629e-10
9.109e-10
-1.4529e-09
-1.4527e-09
-3.8747e-08
7.034e-10
7.0648e-10
-1.2045e-09
-1.2045e-09
-4.0466e-08
4.4735e-10
4.4901e-10
-8.8219e-10
-8.8563e-10
-4.135e-08
1.3359e-10
1.3387e-10
-4.563e-10
-4.5735e-10
-4.1531e-08
-1.7357e-10
-1.7445e-10
1.9139e-10
1.8959e-10
-4.0496e-08
-2.9348e-10
-2.957e-10
4.7392e-10
4.7377e-10
-3.8348e-08
-6.9447e-10
-6.982e-10
1.0494e-09
1.0491e-09
-3.5323e-08
-1.0106e-09
-1.016e-09
1.5194e-09
1.5174e-09
-3.1708e-08
-1.2551e-09
-1.262e-09
1.8944e-09
1.8918e-09
-2.7689e-08
-1.4344e-09
-1.4424e-09
2.1782e-09
2.1736e-09
-2.3318e-08
-1.5452e-09
-1.554e-09
2.3737e-09
2.3644e-09
-1.86e-08
-1.5743e-09
-1.5841e-09
2.4641e-09
2.4616e-09
-1.3631e-08
-1.5035e-09
-1.513e-09
2.436e-09
2.4321e-09
-8.6716e-09
-1.3058e-09
-1.3143e-09
2.2403e-09
2.2335e-09
-4.1117e-09
-9.6371e-10
-9.7135e-10
1.8326e-09
1.8317e-09
-3.7671e-10
-5.1875e-10
-5.2468e-10
1.2665e-09
1.2617e-09
2.2147e-09
-6.8707e-11
-7.2397e-11
6.4773e-10
6.445e-10
3.5417e-09
1.9764e-10
1.9591e-10
1.9794e-10
1.9499e-10
4.1819e-09
5.3988e-10
5.3964e-10
-5.4435e-10
-5.4599e-10
4.1711e-09
5.0766e-10
5.0803e-10
-7.2912e-10
-7.2826e-10
3.4437e-09
2.5332e-10
2.5418e-10
-3.8225e-10
-3.8148e-10
2.5069e-09
-3.0237e-10
-3.0147e-10
2.839e-10
2.8404e-10
-7.3649e-10
-7.3622e-10
8.7221e-10
8.7209e-10
-3.3019e-09
-1.0734e-11
-7.7701e-12
-8.249e-13
-3.5897e-09
-8.8862e-12
3.0652e-12
-3.1996e-11
-3.8444e-09
-5.2777e-13
1.0907e-11
-4.3052e-11
-4.0417e-09
1.2216e-11
1.9048e-11
-3.6716e-11
-4.1941e-09
1.5196e-11
1.2062e-11
-2.6614e-11
-4.335e-09
1.2598e-11
6.2968e-12
-8.0994e-12
-4.496e-09
1.9079e-11
1.8454e-11
-2.3425e-11
-4.7157e-09
4.0698e-11
5.2626e-11
-6.8962e-11
-5.0243e-09
7.9833e-11
1.0946e-10
-1.7273e-10
-5.4595e-09
1.3276e-10
1.8633e-10
-3.1241e-10
-6.05e-09
1.9708e-10
2.7771e-10
-4.768e-10
-6.8094e-09
2.6884e-10
3.7977e-10
-6.5862e-10
-7.7392e-09
3.4491e-10
4.9006e-10
-8.5302e-10
-8.84e-09
4.25e-10
6.0811e-10
-1.0591e-09
-1.0121e-08
5.1036e-10
7.3523e-10
-1.2806e-09
-1.1604e-08
6.0265e-10
8.7337e-10
-1.5232e-09
-1.3314e-08
7.0267e-10
1.0233e-09
-1.7899e-09
-1.5274e-08
8.0708e-10
1.1818e-09
-2.0763e-09
-1.7488e-08
9.0969e-10
1.3416e-09
-2.3701e-09
-1.994e-08
1.0024e-09
1.4922e-09
-2.6521e-09
-2.259e-08
1.0772e-09
1.6222e-09
-2.9007e-09
-2.5379e-08
1.1267e-09
1.7214e-09
-3.0961e-09
-2.8232e-08
1.146e-09
1.7818e-09
-3.224e-09
-3.1076e-08
1.1289e-09
1.7944e-09
-3.2723e-09
-3.3837e-08
1.0686e-09
1.7487e-09
-3.2264e-09
-3.642e-08
9.5846e-10
1.6336e-09
-3.0678e-09
-3.8668e-08
7.8875e-10
1.4385e-09
-2.7698e-09
-4.0346e-08
5.5141e-10
1.1528e-09
-2.2955e-09
-4.1222e-08
2.28e-10
7.3188e-10
-1.5302e-09
-4.1334e-08
-2.0614e-10
1.1683e-10
-9.7762e-11
-4.026e-08
-5.1718e-10
-3.8042e-10
1.013e-09
-3.8144e-08
-8.9409e-10
-9.6345e-10
2.0625e-09
-3.5167e-08
-1.211e-09
-1.4564e-09
2.9584e-09
-3.1588e-08
-1.4611e-09
-1.8714e-09
3.7141e-09
-2.7582e-08
-1.6478e-09
-2.2009e-09
4.315e-09
-2.3218e-08
-1.7739e-09
-2.4414e-09
4.7766e-09
-1.8528e-08
-1.8344e-09
-2.5899e-09
5.1126e-09
-1.3621e-08
-1.8153e-09
-2.6314e-09
5.2957e-09
-8.7541e-09
-1.6902e-09
-2.5366e-09
5.2551e-09
-4.2907e-09
-1.4355e-09
-2.2818e-09
4.9149e-09
-6.1893e-10
-1.0629e-09
-1.8868e-09
4.2675e-09
1.9735e-09
-6.1149e-10
-1.4184e-09
3.3591e-09
3.335e-09
-2.1266e-10
-9.4438e-10
2.3182e-09
4.0573e-09
2.6847e-10
-3.1077e-10
6.6559e-10
4.0578e-09
4.8807e-10
1.7482e-10
-4.6876e-10
3.4744e-09
3.7113e-10
1.634e-10
-5.827e-10
2.5477e-09
-2.3268e-11
-2.9949e-10
3.0112e-11
-4.4936e-10
-6.5855e-10
7.0611e-10
-3.3045e-09
-5.4614e-12
-6.4815e-12
2.9958e-12
-3.5864e-09
-4.7221e-12
5.1697e-12
-2.3223e-11
-3.8375e-09
-2.8627e-14
1.4633e-11
-3.6014e-11
-4.0367e-09
6.8698e-12
2.2481e-11
-3.6124e-11
-4.1924e-09
9.6545e-12
2.0275e-11
-2.6903e-11
-4.3382e-09
1.0777e-11
1.5463e-11
-1.6761e-11
-4.5058e-09
1.3645e-11
2.8066e-11
-3.2686e-11
-4.733e-09
2.3402e-11
5.9581e-11
-7.7994e-11
-5.0485e-09
4.2974e-11
1.2268e-10
-1.7895e-10
-5.4888e-09
6.9901e-11
2.0997e-10
-3.1693e-10
-6.0825e-09
1.0288e-10
3.1337e-10
-4.7906e-10
-6.8435e-09
1.3988e-10
4.288e-10
-6.5892e-10
-7.775e-09
1.7947e-10
5.5394e-10
-8.5284e-10
-8.8785e-09
2.2109e-10
6.8818e-10
-1.0596e-09
-1.0164e-08
2.6535e-10
8.3293e-10
-1.2823e-09
-1.1652e-08
3.1313e-10
9.9047e-10
-1.5262e-09
-1.3367e-08
3.6437e-10
1.1613e-09
-1.7926e-09
-1.533e-08
4.1746e-10
1.3421e-09
-2.0772e-09
-1.7543e-08
4.6929e-10
1.5252e-09
-2.3678e-09
-1.9991e-08
5.1575e-10
1.6991e-09
-2.6459e-09
-2.2634e-08
5.5275e-10
1.851e-09
-2.8905e-09
-2.5414e-08
5.7662e-10
1.9687e-09
-3.0822e-09
-2.8258e-08
5.8444e-10
2.0418e-09
-3.2053e-09
-3.1092e-08
5.7323e-10
2.0598e-09
-3.2468e-09
-3.3839e-08
5.3963e-10
2.0105e-09
-3.1913e-09
-3.6398e-08
4.7899e-10
1.8786e-09
-3.0142e-09
-3.8612e-08
3.858e-10
1.6481e-09
-2.6894e-09
-4.0253e-08
2.5471e-10
1.2972e-09
-2.1849e-09
-4.1099e-08
7.5136e-11
7.6195e-10
-1.3898e-09
-4.1121e-08
-1.5758e-10
-1.672e-11
-1.2274e-10
-4.0117e-08
-2.9835e-10
-7.0741e-10
1.0368e-09
-3.8025e-08
-4.8329e-10
-1.3326e-09
1.9747e-09
-3.5076e-08
-6.4425e-10
-1.8838e-09
2.8413e-09
-3.1517e-08
-7.6596e-10
-2.3598e-09
3.5859e-09
-2.7521e-08
-8.5362e-10
-2.7418e-09
4.1805e-09
-2.3163e-08
-9.0895e-10
-3.0236e-09
4.6332e-09
-1.8492e-08
-9.3154e-10
-3.2022e-09
4.953e-09
-1.3627e-08
-9.1293e-10
-3.2607e-09
5.1079e-09
-8.8191e-09
-8.3967e-10
-3.1672e-09
5.0344e-09
-4.4195e-09
-6.995e-10
-2.8875e-09
4.6625e-09
-7.8936e-10
-4.8967e-10
-2.4297e-09
3.9825e-09
1.787e-09
-2.4374e-10
-1.8069e-09
3.0638e-09
3.1935e-09
-3.4475e-12
-1.1132e-09
1.9968e-09
3.8999e-09
2.3911e-10
-3.3926e-10
6.0649e-10
3.9315e-09
3.9097e-10
3.3013e-10
-4.7422e-10
3.4669e-09
2.7978e-10
3.031e-10
-5.6246e-10
2.62e-09
-8.6387e-12
-1.2968e-10
8.2661e-11
-2.0401e-10
-6.1057e-10
7.4508e-10
-3.306e-09
1.0119e-13
-3.2136e-12
-1.7334e-12
-3.5845e-09
3.0578e-13
1.1746e-11
-3.2703e-11
-3.8337e-09
4.3075e-13
2.0216e-11
-4.3622e-11
-4.0333e-09
5.3095e-13
2.3953e-11
-3.8026e-11
-4.1913e-09
5.4651e-13
1.8985e-11
-2.321e-11
-4.3404e-09
5.3811e-13
1.513e-11
-9.9515e-12
-4.5115e-09
4.9786e-13
2.7853e-11
-2.8745e-11
-4.7419e-09
6.5354e-13
6.2482e-11
-8.2989e-11
-5.0607e-09
6.0992e-13
1.3002e-10
-1.9222e-10
-5.5036e-09
4.1994e-13
2.2317e-10
-3.407e-10
-6.0989e-09
2.0586e-13
3.3306e-10
-5.1431e-10
-6.8609e-09
4.9062e-15
4.5566e-10
-7.0669e-10
-7.7932e-09
-2.4138e-13
5.8868e-10
-9.1371e-10
-8.8983e-09
-4.4852e-13
7.3176e-10
-1.1352e-09
-1.0186e-08
-6.0137e-13
8.8651e-10
-1.3747e-09
-1.1677e-08
-7.4316e-13
1.0553e-09
-1.6372e-09
-1.3395e-08
-8.8897e-13
1.2388e-09
-1.9251e-09
-1.5358e-08
-1.0361e-12
1.4338e-09
-2.2337e-09
-1.7572e-08
-1.1462e-12
1.6324e-09
-2.5503e-09
-2.0018e-08
-1.2291e-12
1.8229e-09
-2.8555e-09
-2.2658e-08
-1.1071e-12
1.9916e-09
-3.1273e-09
-2.5434e-08
-8.8196e-13
2.1258e-09
-3.3444e-09
-2.8273e-08
-5.1979e-13
2.2141e-09
-3.4903e-09
-3.1103e-08
-2.0759e-13
2.2453e-09
-3.5502e-09
-3.3843e-08
-2.4313e-14
2.2061e-09
-3.5066e-09
-3.6391e-08
2.043e-13
2.0805e-09
-3.3359e-09
-3.8589e-08
2.8042e-13
1.8506e-09
-3.0097e-09
-4.0213e-08
2.1647e-13
1.4916e-09
-2.4937e-09
-4.1048e-08
7.1537e-14
9.3552e-10
-1.6768e-09
-4.1057e-08
-1.2537e-13
1.2442e-10
-3.7916e-10
-4.0049e-08
1.5179e-13
-6.3551e-10
9.168e-10
-3.7965e-08
2.0059e-13
-1.3232e-09
1.9664e-09
-3.503e-08
4.5372e-13
-1.9374e-09
2.9328e-09
-3.1482e-08
7.5374e-13
-2.4686e-09
3.7696e-09
-2.7491e-08
1.0705e-12
-2.8986e-09
4.4484e-09
-2.3137e-08
1.1932e-12
-3.2229e-09
4.9766e-09
-1.8474e-08
1.1971e-12
-3.4396e-09
5.3603e-09
-1.3629e-08
4.017e-13
-3.5327e-09
5.5709e-09
-8.8497e-09
-4.6884e-13
-3.4693e-09
5.5426e-09
-4.4809e-09
-8.3889e-13
-3.2138e-09
5.2039e-09
-8.749e-10
-7.8582e-13
-2.764e-09
4.5527e-09
1.6944e-09
-4.9807e-13
-2.1649e-09
3.6628e-09
3.126e-09
-8.8362e-16
-1.4498e-09
2.6059e-09
3.828e-09
4.8053e-13
-6.7724e-10
1.2324e-09
3.9097e-09
7.407e-13
7.4095e-11
8.128e-11
3.4842e-09
4.0529e-13
1.3137e-10
-2.0332e-10
2.6213e-09
7.621e-14
-1.9047e-10
1.865e-10
1.3954e-13
-6.2144e-10
7.8529e-10
-3.306e-09
5.654e-12
-3.2214e-12
-1.7171e-12
-3.5845e-09
5.3032e-12
1.1736e-11
-3.267e-11
-3.8336e-09
8.2769e-13
2.0208e-11
-4.357e-11
-4.0333e-09
-5.9212e-12
2.3923e-11
-3.7897e-11
-4.1914e-09
-8.605e-12
1.9046e-11
-2.3272e-11
-4.3404e-09
-9.7352e-12
1.522e-11
-1.004e-11
-4.5115e-09
-1.2647e-11
2.7937e-11
-2.8912e-11
-4.7419e-09
-2.2286e-11
6.2432e-11
-8.2757e-11
-5.0608e-09
-4.2022e-11
1.2991e-10
-1.9182e-10
-5.5037e-09
-6.9294e-11
2.2308e-10
-3.404e-10
-6.099e-09
-1.0266e-10
3.3298e-10
-5.1403e-10
-6.861e-09
-1.4002e-10
4.5556e-10
-7.0639e-10
-7.7933e-09
-1.8004e-10
5.8854e-10
-9.1344e-10
-8.8983e-09
-2.2196e-10
7.3158e-10
-1.1349e-09
-1.0186e-08
-2.6646e-10
8.8627e-10
-1.3744e-09
-1.1677e-08
-3.1451e-10
1.055e-09
-1.6368e-09
-1.3395e-08
-3.6619e-10
1.2384e-09
-1.9245e-09
-1.5358e-08
-4.1978e-10
1.4333e-09
-2.2328e-09
-1.7572e-08
-4.7194e-10
1.6318e-09
-2.5491e-09
-2.0018e-08
-5.1857e-10
1.8223e-09
-2.8544e-09
-2.2658e-08
-5.5527e-10
1.9911e-09
-3.1262e-09
-2.5434e-08
-5.7856e-10
2.1253e-09
-3.3435e-09
-2.8273e-08
-5.8561e-10
2.2137e-09
-3.4896e-09
-3.1103e-08
-5.7391e-10
2.2449e-09
-3.5493e-09
-3.3843e-08
-5.4008e-10
2.2058e-09
-3.5058e-09
-3.6391e-08
-4.7888e-10
2.0803e-09
-3.3354e-09
-3.8589e-08
-3.8554e-10
1.8506e-09
-3.0094e-09
-4.0213e-08
-2.5451e-10
1.4918e-09
-2.4937e-09
-4.1048e-08
-7.5069e-11
9.3594e-10
-1.6772e-09
-4.1057e-08
1.5737e-10
1.2501e-10
-3.7997e-10
-4.0049e-08
2.9902e-10
-6.3494e-10
9.158e-10
-3.7965e-08
4.8398e-10
-1.3225e-09
1.9653e-09
-3.503e-08
6.4553e-10
-1.9367e-09
2.9316e-09
-3.1482e-08
7.676e-10
-2.4679e-09
3.7687e-09
-2.7491e-08
8.5578e-10
-2.8981e-09
4.4479e-09
-2.3137e-08
9.1181e-10
-3.2226e-09
4.9758e-09
-1.8475e-08
9.345e-10
-3.439e-09
5.3592e-09
-1.3629e-08
9.1459e-10
-3.5319e-09
5.5692e-09
-8.8498e-09
8.4008e-10
-3.4685e-09
5.5403e-09
-4.481e-09
6.9912e-10
-3.213e-09
5.2017e-09
-8.7484e-10
4.889e-10
-2.7633e-09
4.5511e-09
1.6944e-09
2.4318e-10
-2.1646e-09
3.662e-09
3.1261e-09
3.4545e-12
-1.4498e-09
2.6059e-09
3.8281e-09
-2.3854e-10
-6.7756e-10
1.2332e-09
3.9097e-09
-3.9012e-10
7.3665e-11
8.2507e-11
3.4842e-09
-2.7919e-10
1.3109e-10
-2.028e-10
2.6214e-09
8.5717e-12
-1.9058e-10
1.8688e-10
2.0426e-10
-6.215e-10
7.8534e-10
-3.3044e-09
1.0857e-11
-6.5072e-12
3.0915e-12
-3.5863e-09
9.293e-12
5.1362e-12
-2.3028e-11
-3.8374e-09
1.0482e-12
1.4603e-11
-3.5739e-11
-4.0368e-09
-1.1591e-11
2.2484e-11
-3.5873e-11
-4.1925e-09
-1.4429e-11
2.0472e-11
-2.6866e-11
-4.3383e-09
-1.1723e-11
1.5593e-11
-1.6843e-11
-4.5058e-09
-1.823e-11
2.8197e-11
-3.2849e-11
-4.7331e-09
-4.0062e-11
5.9669e-11
-7.759e-11
-5.0486e-09
-7.9322e-11
1.2251e-10
-1.7836e-10
-5.489e-09
-1.3245e-10
2.0986e-10
-3.1655e-10
-6.0827e-09
-1.9701e-10
3.1328e-10
-4.7883e-10
-6.8438e-09
-2.6896e-10
4.2863e-10
-6.5865e-10
-7.7752e-09
-3.4567e-10
5.5363e-10
-8.5224e-10
-8.8788e-09
-4.2594e-10
6.877e-10
-1.0588e-09
-1.0164e-08
-5.1154e-10
8.3226e-10
-1.2812e-09
-1.1652e-08
-6.0445e-10
9.8956e-10
-1.5244e-09
-1.3368e-08
-7.0486e-10
1.1602e-09
-1.7907e-09
-1.533e-08
-8.097e-10
1.341e-09
-2.0753e-09
-1.7543e-08
-9.1261e-10
1.524e-09
-2.3658e-09
-1.999e-08
-1.0055e-09
1.6979e-09
-2.644e-09
-2.2634e-08
-1.0798e-09
1.8497e-09
-2.8887e-09
-2.5413e-08
-1.1288e-09
1.9675e-09
-3.0804e-09
-2.8257e-08
-1.1471e-09
2.0406e-09
-3.2039e-09
-3.1091e-08
-1.1296e-09
2.0589e-09
-3.2455e-09
-3.3838e-08
-1.0698e-09
2.0098e-09
-3.1898e-09
-3.6398e-08
-9.587e-10
1.8783e-09
-3.0134e-09
-3.8612e-08
-7.8839e-10
1.6484e-09
-2.6898e-09
-4.0253e-08
-5.5098e-10
1.2979e-09
-2.186e-09
-4.1099e-08
-2.2721e-10
7.6319e-10
-1.3919e-09
-4.1121e-08
2.0665e-10
-1.5112e-11
-1.2548e-10
-4.0117e-08
5.1805e-10
-7.0625e-10
1.0355e-09
-3.8025e-08
8.9422e-10
-1.3308e-09
1.9729e-09
-3.5076e-08
1.2122e-09
-1.882e-09
2.8395e-09
-3.1517e-08
1.4626e-09
-2.3583e-09
3.5844e-09
-2.7521e-08
1.6495e-09
-2.7406e-09
4.1797e-09
-2.3163e-08
1.7765e-09
-3.0226e-09
4.6323e-09
-1.8492e-08
1.8393e-09
-3.2015e-09
4.9507e-09
-1.3627e-08
1.8186e-09
-3.2594e-09
5.1048e-09
-8.8195e-09
1.6924e-09
-3.1653e-09
5.0304e-09
-4.4195e-09
1.4376e-09
-2.8853e-09
4.6576e-09
-7.8935e-10
1.0638e-09
-2.4283e-09
3.9793e-09
1.7871e-09
6.1141e-10
-1.8063e-09
3.0627e-09
3.1936e-09
2.1246e-10
-1.1135e-09
1.9974e-09
3.9e-09
-2.6904e-10
-3.3991e-10
6.0847e-10
3.9315e-09
-4.8791e-10
3.2935e-10
-4.7245e-10
3.4671e-09
-3.7096e-10
3.0263e-10
-5.6155e-10
2.6202e-09
2.3153e-11
-1.2991e-10
8.31e-11
4.4939e-10
-6.1076e-10
7.4549e-10
-3.3017e-09
2.2964e-11
-7.7716e-12
-7.4811e-13
-3.5895e-09
2.7205e-11
3.0981e-12
-3.1826e-11
-3.8444e-09
1.5587e-11
1.1011e-11
-4.292e-11
-4.0417e-09
-1.1659e-11
1.923e-11
-3.6753e-11
-4.1942e-09
-9.0021e-12
1.2676e-11
-2.7029e-11
-4.3351e-09
-8.4533e-12
6.6315e-12
-8.3609e-12
-4.496e-09
-1.623e-11
1.89e-11
-2.3853e-11
-4.7158e-09
-4.7183e-11
5.2803e-11
-6.8837e-11
-5.0246e-09
-8.816e-11
1.0958e-10
-1.7263e-10
-5.4598e-09
-1.4388e-10
1.8647e-10
-3.1244e-10
-6.0504e-09
-2.121e-10
2.7779e-10
-4.7683e-10
-6.8099e-09
-2.881e-10
3.7968e-10
-6.5851e-10
-7.7396e-09
-3.6958e-10
4.8988e-10
-8.5264e-10
-8.8404e-09
-4.5465e-10
6.076e-10
-1.0583e-09
-1.0121e-08
-5.4539e-10
7.3441e-10
-1.2795e-09
-1.1604e-08
-6.4381e-10
8.7245e-10
-1.5219e-09
-1.3315e-08
-7.4936e-10
1.0223e-09
-1.7888e-09
-1.5274e-08
-8.5807e-10
1.1808e-09
-2.0755e-09
-1.7488e-08
-9.6239e-10
1.3405e-09
-2.3695e-09
-1.9939e-08
-1.0533e-09
1.4911e-09
-2.6516e-09
-2.259e-08
-1.1214e-09
1.621e-09
-2.9001e-09
-2.5378e-08
-1.1607e-09
1.7203e-09
-3.0954e-09
-2.8231e-08
-1.166e-09
1.7806e-09
-3.223e-09
-3.1075e-08
-1.1305e-09
1.7935e-09
-3.2718e-09
-3.3836e-08
-1.0488e-09
1.7486e-09
-3.2259e-09
-3.6419e-08
-9.0692e-10
1.6336e-09
-3.0673e-09
-3.8668e-08
-7.0296e-10
1.4389e-09
-2.7703e-09
-4.0346e-08
-4.4689e-10
1.1538e-09
-2.2966e-09
-4.1222e-08
-1.3249e-10
7.3323e-10
-1.5317e-09
-4.1333e-08
1.7403e-10
1.1881e-10
-9.9868e-11
-4.0259e-08
2.9361e-10
-3.7841e-10
1.0119e-09
-3.8144e-08
6.947e-10
-9.6213e-10
2.0616e-09
-3.5167e-08
1.0111e-09
-1.4544e-09
2.9572e-09
-3.1588e-08
1.2562e-09
-1.8696e-09
3.7127e-09
-2.7582e-08
1.4355e-09
-2.1992e-09
4.3138e-09
-2.3218e-08
1.5463e-09
-2.4404e-09
4.7772e-09
-1.8528e-08
1.5793e-09
-2.5895e-09
5.1129e-09
-1.3622e-08
1.507e-09
-2.6305e-09
5.2947e-09
-8.7545e-09
1.3078e-09
-2.5355e-09
5.2537e-09
-4.2913e-09
9.6691e-10
-2.2811e-09
4.9132e-09
-6.1906e-10
5.1993e-10
-1.886e-09
4.2658e-09
1.9734e-09
6.9506e-11
-1.4183e-09
3.3581e-09
3.335e-09
-1.9705e-10
-9.4496e-10
2.318e-09
4.0575e-09
-5.3985e-10
-3.1147e-10
6.656e-10
4.0579e-09
-5.0724e-10
1.7405e-10
-4.68e-10
3.4747e-09
-2.5348e-10
1.6298e-10
-5.819e-10
2.548e-09
3.0211e-10
-2.9969e-10
3.0532e-11
7.3623e-10
-6.5865e-10
7.0643e-10
-3.2955e-09
-2.2883e-11
2.6923e-11
2.6884e-11
-3.5976e-09
-2.6881e-11
2.5921e-11
2.5815e-11
-3.8603e-09
-1.5093e-11
1.0045e-11
9.7845e-12
-4.0575e-09
1.2425e-11
-1.8801e-11
-1.838e-11
-4.1991e-09
9.9425e-12
-1.5074e-11
-1.4137e-11
-4.3278e-09
9.6718e-12
-8.1426e-12
-7.0732e-12
-4.4783e-09
1.751e-11
-1.4596e-11
-1.3429e-11
-4.6884e-09
4.8848e-11
-5.1818e-11
-5.063e-11
-4.9876e-09
8.99e-11
-1.1268e-10
-1.1071e-10
-5.4152e-09
1.4585e-10
-1.9487e-10
-1.9272e-10
-6.0012e-09
2.1418e-10
-2.9338e-10
-2.9113e-10
-6.7588e-09
2.9037e-10
-4.0206e-10
-3.9944e-10
-7.6866e-09
3.7198e-10
-5.1782e-10
-5.1514e-10
-8.7834e-09
4.5728e-10
-6.3831e-10
-6.3541e-10
-1.0058e-08
5.4822e-10
-7.6715e-10
-7.6376e-10
-1.1532e-08
6.4668e-10
-9.0751e-10
-9.0422e-10
-1.3236e-08
7.5224e-10
-1.0603e-09
-1.0567e-09
-1.5191e-08
8.609e-10
-1.2206e-09
-1.2168e-09
-1.7406e-08
9.6508e-10
-1.378e-09
-1.3746e-09
-1.9864e-08
1.056e-09
-1.5198e-09
-1.5167e-09
-2.2526e-08
1.1246e-09
-1.6329e-09
-1.6289e-09
-2.533e-08
1.1646e-09
-1.7067e-09
-1.7025e-09
-2.8198e-08
1.1706e-09
-1.735e-09
-1.7301e-09
-3.1058e-08
1.136e-09
-1.7101e-09
-1.703e-09
-3.3838e-08
1.0542e-09
-1.6222e-09
-1.6174e-09
-3.6453e-08
9.1182e-10
-1.4552e-09
-1.452e-09
-3.8747e-08
7.0717e-10
-1.2054e-09
-1.2034e-09
-4.0466e-08
4.4997e-10
-8.8334e-10
-8.8499e-10
-4.135e-08
1.3436e-10
-4.5332e-10
-4.5864e-10
-4.153e-08
-1.7333e-10
1.9248e-10
1.8801e-10
-4.0496e-08
-2.9374e-10
4.7348e-10
4.7352e-10
-3.8348e-08
-6.9671e-10
1.0504e-09
1.0483e-09
-3.5323e-08
-1.0141e-09
1.5196e-09
1.5169e-09
-3.1708e-08
-1.2602e-09
1.8944e-09
1.892e-09
-2.7689e-08
-1.4402e-09
2.1771e-09
2.1742e-09
-2.3317e-08
-1.5522e-09
2.3712e-09
2.3654e-09
-1.8602e-08
-1.5858e-09
2.4703e-09
2.4649e-09
-1.3632e-08
-1.5138e-09
2.439e-09
2.4334e-09
-8.6719e-09
-1.315e-09
2.2416e-09
2.2339e-09
-4.1129e-09
-9.7368e-10
1.8383e-09
1.8322e-09
-3.7716e-10
-5.2595e-10
1.2682e-09
1.2615e-09
2.2144e-09
-7.4376e-11
6.4936e-10
6.4515e-10
3.5419e-09
1.9381e-10
1.9908e-10
1.9579e-10
4.1823e-09
5.3807e-10
-5.4336e-10
-5.4577e-10
4.171e-09
5.0718e-10
-7.2777e-10
-7.2792e-10
3.4443e-09
2.5405e-10
-3.8226e-10
-3.8216e-10
2.5074e-09
-3.0176e-10
2.8385e-10
2.842e-10
-7.361e-10
8.7173e-10
8.7218e-10
-3.302e-09
-7.7886e-12
-1.0745e-11
-8.1087e-13
-3.5897e-09
3.0344e-12
-8.9274e-12
-3.1988e-11
-3.8444e-09
1.0874e-11
-5.1128e-13
-4.3116e-11
-4.0416e-09
1.9022e-11
1.2235e-11
-3.6877e-11
-4.1941e-09
1.2288e-11
1.5252e-11
-2.6909e-11
-4.335e-09
6.1024e-12
1.2512e-11
-7.8353e-12
-4.4959e-09
1.7977e-11
1.9306e-11
-2.3295e-11
-4.7156e-09
5.2124e-11
4.1401e-11
-6.8982e-11
-5.0243e-09
1.0867e-10
8.0774e-11
-1.7241e-10
-5.4595e-09
1.8511e-10
1.3401e-10
-3.1183e-10
-6.05e-09
2.7608e-10
1.987e-10
-4.7604e-10
-6.8093e-09
3.7759e-10
2.7083e-10
-6.5752e-10
-7.7392e-09
4.8706e-10
3.4743e-10
-8.5114e-10
-8.84e-09
6.043e-10
4.2801e-10
-1.0564e-09
-1.0121e-08
7.3075e-10
5.1384e-10
-1.2775e-09
-1.1604e-08
8.6824e-10
6.0657e-10
-1.5196e-09
-1.3315e-08
1.0178e-09
7.0704e-10
-1.7865e-09
-1.5274e-08
1.176e-09
8.1189e-10
-2.0733e-09
-1.7488e-08
1.3356e-09
9.1479e-10
-2.3675e-09
-1.994e-08
1.4861e-09
1.0077e-09
-2.6499e-09
-2.259e-08
1.616e-09
1.0825e-09
-2.8988e-09
-2.5379e-08
1.7151e-09
1.1318e-09
-3.094e-09
-2.8232e-08
1.7755e-09
1.1506e-09
-3.2214e-09
-3.1076e-08
1.788e-09
1.1328e-09
-3.2688e-09
-3.3838e-08
1.7427e-09
1.0723e-09
-3.2232e-09
-3.6421e-08
1.6288e-09
9.6149e-10
-3.0659e-09
-3.8669e-08
1.4352e-09
7.9101e-10
-2.7696e-09
-4.0347e-08
1.151e-09
5.5267e-10
-2.2961e-09
-4.1223e-08
7.3155e-10
2.2804e-10
-1.5313e-09
-4.1335e-08
1.1771e-10
-2.0728e-10
-9.8402e-11
-4.0261e-08
-3.7777e-10
-5.1954e-10
1.012e-09
-3.8145e-08
-9.5903e-10
-8.9736e-10
2.0607e-09
-3.5168e-08
-1.4502e-09
-1.2158e-09
2.956e-09
-3.1588e-08
-1.8638e-09
-1.4669e-09
3.7109e-09
-2.7583e-08
-2.1921e-09
-1.6541e-09
4.311e-09
-2.3219e-08
-2.4316e-09
-1.7801e-09
4.7715e-09
-1.8528e-08
-2.5791e-09
-1.8414e-09
5.1065e-09
-1.3621e-08
-2.6207e-09
-1.8221e-09
5.2903e-09
-8.7541e-09
-2.5267e-09
-1.6965e-09
5.2506e-09
-4.2906e-09
-2.2726e-09
-1.4408e-09
4.9103e-09
-6.1874e-10
-1.8793e-09
-1.0671e-09
4.2641e-09
1.9736e-09
-1.413e-09
-6.1379e-10
3.357e-09
3.3351e-09
-9.4089e-10
-2.1349e-10
2.3169e-09
4.0573e-09
-3.0882e-10
2.6897e-10
6.6445e-10
4.0579e-09
1.7569e-10
4.8904e-10
-4.6995e-10
3.4745e-09
1.6391e-10
3.7193e-10
-5.8324e-10
2.5475e-09
-2.998e-10
-2.2533e-11
3.0385e-11
-6.5868e-10
-4.4927e-10
7.0633e-10
-3.3039e-09
-4.8344e-12
-4.8258e-12
-3.5809e-09
2.1912e-12
2.2009e-12
-3.8307e-09
7.6043e-12
7.657e-12
-4.0286e-09
1.257e-11
1.2609e-11
-4.1903e-09
8.5006e-12
8.7462e-12
-4.3419e-09
5.0693e-12
5.5905e-12
-4.5126e-09
1.4473e-11
1.4791e-11
-4.7391e-09
4.0298e-11
4.0747e-11
-5.0563e-09
8.0569e-11
8.1518e-11
-5.4981e-09
1.3435e-10
1.3572e-10
-6.0918e-09
1.9876e-10
2.0058e-10
-6.8517e-09
2.7089e-10
2.7325e-10
-7.7815e-09
3.4873e-10
3.5177e-10
-8.8836e-09
4.3206e-10
4.3579e-10
-1.0168e-08
5.2184e-10
5.2621e-10
-1.1654e-08
6.1938e-10
6.2438e-10
-1.3366e-08
7.2515e-10
7.307e-10
-1.5323e-08
8.366e-10
8.4264e-10
-1.7527e-08
9.4841e-10
9.5486e-10
-1.9962e-08
1.0532e-09
1.06e-09
-2.2589e-08
1.1431e-09
1.1501e-09
-2.535e-08
1.2109e-09
1.2179e-09
-2.8174e-08
1.2508e-09
1.2576e-09
-3.0986e-08
1.2566e-09
1.2631e-09
-3.371e-08
1.221e-09
1.2271e-09
-3.6243e-08
1.1368e-09
1.142e-09
-3.843e-08
9.9595e-10
9.9989e-10
-4.0058e-08
7.913e-10
7.9379e-10
-4.0927e-08
5.0323e-10
5.0406e-10
-4.0979e-08
1.2123e-10
1.2042e-10
-3.9877e-08
-2.4845e-10
-2.5059e-10
-3.7807e-08
-6.4182e-10
-6.4643e-10
-3.4896e-08
-9.8868e-10
-9.9525e-10
-3.1369e-08
-1.278e-09
-1.2862e-09
-2.7397e-08
-1.5062e-09
-1.5156e-09
-2.3059e-08
-1.6715e-09
-1.6815e-09
-1.8411e-08
-1.771e-09
-1.7817e-09
-1.3575e-08
-1.7943e-09
-1.8048e-09
-8.7973e-09
-1.7208e-09
-1.7307e-09
-4.4171e-09
-1.5357e-09
-1.5445e-09
-7.9522e-10
-1.2539e-09
-1.2609e-09
1.809e-09
-9.3378e-10
-9.3886e-10
3.2633e-09
-6.0168e-10
-6.0461e-10
3.9977e-09
-2.6302e-10
-2.6426e-10
4.0134e-09
9.3735e-11
9.3647e-11
3.4851e-09
9.3065e-11
9.3058e-11
2.5749e-09
-2.1792e-10
-2.174e-10
-4.5082e-10
-4.5069e-10
-3.3057e-09
-2.9897e-12
-3.533e-12
-3.578e-09
-2.5987e-13
4.5844e-12
-3.8249e-09
3.0255e-12
1.0845e-11
-4.0247e-09
6.6688e-12
1.5313e-11
-4.1892e-09
5.8488e-12
1.3449e-11
-4.3452e-09
4.4686e-12
1.1112e-11
-4.522e-09
9.7335e-12
2.1153e-11
-4.7557e-09
2.2635e-11
4.6853e-11
-5.0793e-09
4.3202e-11
9.2339e-11
-5.5261e-09
7.0956e-11
1.5438e-10
-6.1229e-09
1.0437e-10
2.2838e-10
-6.8844e-09
1.419e-10
3.1127e-10
-7.8155e-09
1.8245e-10
4.0114e-10
-8.92e-09
2.258e-10
4.9757e-10
-1.0208e-08
2.7242e-10
6.0157e-10
-1.1699e-08
3.2296e-10
7.1461e-10
-1.3415e-08
3.7752e-10
8.3694e-10
-1.5372e-08
4.347e-10
9.6601e-10
-1.7575e-08
4.9171e-10
1.0961e-09
-2.0004e-08
5.447e-10
1.219e-09
-2.2623e-08
5.8954e-10
1.3258e-09
-2.5374e-08
6.2247e-10
1.4079e-09
-2.8186e-08
6.4028e-10
1.458e-09
-3.0986e-08
6.3967e-10
1.4685e-09
-3.3692e-08
6.1687e-10
1.4308e-09
-3.6199e-08
5.6777e-10
1.3344e-09
-3.8352e-08
4.8777e-10
1.1679e-09
-3.9943e-08
3.7249e-10
9.1672e-10
-4.0779e-08
2.132e-10
5.4962e-10
-4.0772e-08
1.0412e-11
5.4922e-11
-3.9721e-08
-1.6682e-10
-4.4625e-10
-3.7677e-08
-3.5777e-10
-8.9785e-10
-3.4796e-08
-5.2865e-10
-1.2978e-09
-3.1294e-08
-6.6963e-10
-1.6398e-09
-2.7335e-08
-7.808e-10
-1.9123e-09
-2.3009e-08
-8.5868e-10
-2.1132e-09
-1.8384e-08
-9.0181e-10
-2.2395e-09
-1.3592e-08
-9.0407e-10
-2.2786e-09
-8.8736e-09
-8.5454e-10
-2.2081e-09
-4.5551e-09
-7.4606e-10
-2.008e-09
-9.7595e-10
-5.8931e-10
-1.681e-09
1.6167e-09
-3.9194e-10
-1.2678e-09
3.1253e-09
-1.8854e-10
-7.9724e-10
3.8148e-09
-1.9628e-11
-3.491e-10
3.9296e-09
1.4857e-10
9.6644e-11
3.4823e-09
9.4016e-11
1.4415e-10
2.6197e-09
-9.7756e-11
-9.4306e-11
-2.1804e-10
-4.337e-10
-3.3067e-09
6.5092e-14
-2.2058e-12
-3.5765e-09
2.0847e-13
7.2211e-12
-3.8218e-09
2.8495e-13
1.3442e-11
-4.0223e-09
3.6109e-13
1.6671e-11
-4.1887e-09
3.4159e-13
1.4343e-11
-4.3471e-09
3.703e-13
1.2568e-11
-4.527e-09
3.8466e-13
2.3122e-11
-4.7641e-09
4.0366e-13
5.0169e-11
-5.0909e-09
3.9556e-13
9.8617e-11
-5.5402e-09
2.4534e-13
1.6507e-10
-6.1386e-09
7.3773e-14
2.4419e-10
-6.9009e-09
-1.0193e-13
3.3279e-10
-7.8327e-09
-3.1473e-13
4.2898e-10
-8.9385e-09
-4.9308e-13
5.3239e-10
-1.0229e-08
-6.5946e-13
6.441e-10
-1.1722e-08
-8.1466e-13
7.6568e-10
-1.3439e-08
-9.8478e-13
8.9742e-10
-1.5398e-08
-1.1324e-12
1.0367e-09
-1.7599e-08
-1.2585e-12
1.1776e-09
-2.0026e-08
-1.3074e-12
1.3116e-09
-2.2641e-08
-1.2016e-12
1.4292e-09
-2.5386e-08
-9.6991e-13
1.5212e-09
-2.8193e-08
-6.7609e-13
1.5794e-09
-3.0987e-08
-4.278e-13
1.5957e-09
-3.3684e-08
-2.8567e-13
1.5605e-09
-3.6178e-08
-6.4012e-14
1.4624e-09
-3.8314e-08
7.1823e-14
1.288e-09
-3.9887e-08
1.0958e-13
1.0201e-09
-4.0711e-08
1.3427e-13
6.2371e-10
-4.0694e-08
1.6707e-13
9.0969e-11
-3.9645e-08
4.5933e-13
-4.3802e-10
-3.7611e-08
7.0863e-13
-9.1729e-10
-3.4745e-08
7.7724e-13
-1.3513e-09
-3.1254e-08
1.0325e-12
-1.7234e-09
-2.7302e-08
1.2775e-12
-2.0234e-09
-2.2982e-08
1.4675e-12
-2.2469e-09
-1.8368e-08
1.4528e-12
-2.3915e-09
-1.3596e-08
9.9821e-13
-2.4448e-09
-8.9057e-09
3.9927e-13
-2.3827e-09
-4.6179e-09
8.674e-16
-2.1838e-09
-1.0638e-09
-1.8358e-13
-1.8471e-09
1.5256e-09
-1.7576e-13
-1.4107e-09
3.0841e-09
-2.3713e-14
-9.0213e-10
3.7726e-09
1.759e-13
-4.1095e-10
3.9184e-09
2.4201e-13
5.6627e-11
3.4878e-09
2.0618e-13
8.3704e-11
2.641e-09
-7.8614e-14
-1.2816e-10
2.5724e-14
-4.3015e-10
-3.3067e-09
3.1111e-12
-2.2093e-12
-3.5765e-09
6.5768e-13
7.2175e-12
-3.8218e-09
-2.4925e-12
1.3442e-11
-4.0223e-09
-6.0063e-12
1.6679e-11
-4.1887e-09
-5.1944e-12
1.4374e-11
-4.3471e-09
-3.7467e-12
1.2624e-11
-4.527e-09
-8.9781e-12
2.3172e-11
-4.7641e-09
-2.1944e-11
5.019e-11
-5.091e-09
-4.25e-11
9.8578e-11
-5.5403e-09
-7.0528e-11
1.6503e-10
-6.1386e-09
-1.0427e-10
2.4414e-10
-6.901e-09
-1.4211e-10
3.3272e-10
-7.8328e-09
-1.8308e-10
4.2888e-10
-8.9386e-09
-2.2675e-10
5.3224e-10
-1.0229e-08
-2.7367e-10
6.4389e-10
-1.1722e-08
-3.2455e-10
7.6542e-10
-1.3439e-08
-3.7945e-10
8.971e-10
-1.5398e-08
-4.37e-10
1.0363e-09
-1.7599e-08
-4.9427e-10
1.1772e-09
-2.0026e-08
-5.4735e-10
1.3112e-09
-2.2641e-08
-5.9195e-10
1.4288e-09
-2.5386e-08
-6.2439e-10
1.5208e-09
-2.8193e-08
-6.4158e-10
1.579e-09
-3.0987e-08
-6.4053e-10
1.5953e-09
-3.3684e-08
-6.1753e-10
1.5603e-09
-3.6178e-08
-5.6795e-10
1.4622e-09
-3.8314e-08
-4.8767e-10
1.288e-09
-3.9887e-08
-3.7231e-10
1.0203e-09
-4.0711e-08
-2.1293e-10
6.2399e-10
-4.0694e-08
-1.0096e-11
9.1372e-11
-3.9645e-08
1.678e-10
-4.377e-10
-3.7611e-08
3.594e-10
-9.1688e-10
-3.4745e-08
5.2996e-10
-1.3507e-09
-3.1254e-08
6.7175e-10
-1.7229e-09
-2.7302e-08
7.8329e-10
-2.023e-09
-2.2982e-08
8.6159e-10
-2.2466e-09
-1.8368e-08
9.0486e-10
-2.3911e-09
-1.3596e-08
9.0625e-10
-2.4443e-09
-8.9058e-09
8.5563e-10
-2.3823e-09
-4.6179e-09
7.4639e-10
-2.1833e-09
-1.0638e-09
5.8902e-10
-1.8466e-09
1.5256e-09
3.9168e-10
-1.4104e-09
3.0841e-09
1.8841e-10
-9.0199e-10
3.7726e-09
1.9854e-11
-4.1108e-10
3.9184e-09
-1.4823e-10
5.6437e-11
3.4879e-09
-9.3597e-11
8.3513e-11
2.6411e-09
9.7682e-11
-1.2835e-10
2.1809e-10
-4.3018e-10
-3.3056e-09
4.9255e-12
-3.54e-12
-3.578e-09
-1.8643e-12
4.585e-12
-3.8249e-09
-7.1851e-12
1.0858e-11
-4.0248e-09
-1.2023e-11
1.5367e-11
-4.1892e-09
-7.9208e-12
1.3557e-11
-4.3452e-09
-4.4677e-12
1.1229e-11
-4.522e-09
-1.3848e-11
2.1264e-11
-4.7558e-09
-3.9584e-11
4.6844e-11
-5.0795e-09
-8.0024e-11
9.2271e-11
-5.5263e-09
-1.3401e-10
1.543e-10
-6.1231e-09
-1.9865e-10
2.2827e-10
-6.8846e-09
-2.71e-10
3.1108e-10
-7.8157e-09
-3.4932e-10
4.0087e-10
-8.9202e-09
-4.3289e-10
4.9715e-10
-1.0208e-08
-5.2289e-10
6.0097e-10
-1.1699e-08
-6.2083e-10
7.1389e-10
-1.3415e-08
-7.2692e-10
8.3612e-10
-1.5372e-08
-8.3868e-10
9.6511e-10
-1.7575e-08
-9.5076e-10
1.0951e-09
-2.0004e-08
-1.0557e-09
1.218e-09
-2.2623e-08
-1.1453e-09
1.3247e-09
-2.5374e-08
-1.2125e-09
1.4069e-09
-2.8186e-08
-1.2518e-09
1.4569e-09
-3.0986e-08
-1.2572e-09
1.4676e-09
-3.3692e-08
-1.2217e-09
1.4303e-09
-3.6199e-08
-1.137e-09
1.3341e-09
-3.8352e-08
-9.9574e-10
1.168e-09
-3.9943e-08
-7.9105e-10
9.1716e-10
-4.0779e-08
-5.0287e-10
5.5043e-10
-4.0772e-08
-1.2102e-10
5.6093e-11
-3.9721e-08
2.4934e-10
-4.4539e-10
-3.7676e-08
6.4307e-10
-8.9626e-10
-3.4796e-08
9.8994e-10
-1.2964e-09
-3.1294e-08
1.2797e-09
-1.6383e-09
-2.7335e-08
1.5083e-09
-1.9111e-09
-2.3009e-08
1.6742e-09
-2.1122e-09
-1.8385e-08
1.7742e-09
-2.2388e-09
-1.3592e-08
1.7966e-09
-2.2775e-09
-8.8739e-09
1.7221e-09
-2.2066e-09
-4.5552e-09
1.5366e-09
-2.0065e-09
-9.7606e-10
1.2538e-09
-1.6798e-09
1.6167e-09
9.3348e-10
-1.2671e-09
3.1252e-09
6.0145e-10
-7.9703e-10
3.8149e-09
2.6279e-10
-3.4925e-10
3.9297e-09
-9.3558e-11
9.6346e-11
3.4825e-09
-9.2627e-11
1.4377e-10
2.6199e-09
2.1791e-10
-9.4477e-11
4.5085e-10
-4.3383e-10
-3.3037e-09
7.8539e-12
-4.818e-12
-3.5807e-09
-2.7741e-12
2.2425e-12
-3.8306e-09
-1.0508e-11
7.737e-12
-4.0286e-09
-1.8547e-11
1.2756e-11
-4.1903e-09
-1.1429e-11
8.9125e-12
-4.342e-09
-5.3792e-12
5.6066e-12
-4.5127e-09
-1.7365e-11
1.5072e-11
-4.7392e-09
-5.1669e-11
4.1023e-11
-5.0565e-09
-1.0806e-10
8.1532e-11
-5.4983e-09
-1.8466e-10
1.357e-10
-6.0922e-09
-2.7581e-10
2.0049e-10
-6.8521e-09
-3.7742e-10
2.7301e-10
-7.7819e-09
-4.8747e-10
3.5151e-10
-8.8839e-09
-6.0483e-10
4.3525e-10
-1.0168e-08
-7.3131e-10
5.2539e-10
-1.1655e-08
-8.692e-10
6.2345e-10
-1.3367e-08
-1.019e-09
7.2962e-10
-1.5323e-08
-1.1774e-09
8.4144e-10
-1.7527e-08