/*--------------------------------*- C++ -*----------------------------------*\
| =========                 |                                                 |
| \\      /  F ield         | OpenFOAM: The Open Source CFD Toolbox           |
|  \\    /   O peration     | Version:  4.1                                   |
|   \\  /    A nd           | Web:      www.OpenFOAM.org                      |
|    \\/     M anipulation  |                                                 |
\*---------------------------------------------------------------------------*/
FoamFile
{
    version     2.0;
    format      ascii;
    class       pointVectorField;
    location    "0.000030";
    object      pointDisplacement;
}
// * * * * * * * * * * * * * * * * * * * * * * * * * * * * * * * * * * * * * //

dimensions      [0 1 0 0 0 0 0];

internalField   nonuniform List<vector> 
3625
(
(0 -0.00026833481 -1.7694105e-07)
(0 -0.00029261136 2.2611251e-08)
(0 -0.00031202142 2.1501116e-07)
(0 -0.00032607515 3.0932537e-07)
(0 -0.00033438643 3.2280038e-07)
(0 -0.00033674808 3.0995271e-07)
(0 -0.00033312951 3.0916474e-07)
(0 -0.00032360988 3.2209043e-07)
(0 -0.00030841809 3.4439499e-07)
(0 -0.00028793726 3.7343031e-07)
(0 -0.00026261542 3.7636789e-07)
(0 -0.00023281738 2.9623016e-07)
(0 -0.0001990031 1.9612243e-07)
(0 -0.00016179215 1.5049606e-07)
(0 -0.00012176567 1.398419e-07)
(0 -7.959378e-05 1.2832063e-07)
(0 -3.611965e-05 1.3075693e-08)
(0 7.7308272e-06 -1.3725507e-07)
(0 5.0867958e-05 -1.9310378e-07)
(0 9.1749967e-05 -1.6677209e-07)
(0 0.00012808348 -1.0646173e-07)
(0 0.00015550197 -8.1485595e-08)
(0 0.00016391892 -7.289384e-08)
(0 0.00013064056 -3.4265314e-08)
(0 0 0)
(0 -0.00024217763 2.9340385e-05)
(0 -0.00026386319 3.2408454e-05)
(0 -0.00028124064 3.4896719e-05)
(0 -0.00029378377 3.6632814e-05)
(0 -0.00030107183 3.7593182e-05)
(0 -0.00030289252 3.7857704e-05)
(0 -0.00029923264 3.7514437e-05)
(0 -0.00029015657 3.6569722e-05)
(0 -0.00027592176 3.5039e-05)
(0 -0.00025701104 3.2938835e-05)
(0 -0.00023395295 3.0219429e-05)
(0 -0.00020703617 2.6804466e-05)
(0 -0.0001766107 2.2861796e-05)
(0 -0.00014321487 1.8662197e-05)
(0 -0.00010729454 1.4250324e-05)
(0 -6.9400688e-05 9.5804572e-06)
(0 -3.0319619e-05 4.6308122e-06)
(0 9.0552845e-06 -3.8087157e-07)
(0 4.7674649e-05 -5.2318331e-06)
(0 8.4040824e-05 -9.8258808e-06)
(0 0.00011597245 -1.3856111e-05)
(0 0.00013936111 -1.6859046e-05)
(0 0.00014473987 -1.7730608e-05)
(0 0.00011195952 -1.3993077e-05)
(0 0 0)
(0 -0.00021283133 6.7369709e-05)
(0 -0.0002319403 7.4002604e-05)
(0 -0.00024729668 7.9334673e-05)
(0 -0.00025837807 8.3125772e-05)
(0 -0.00026478254 8.5306878e-05)
(0 -0.00026631711 8.5940237e-05)
(0 -0.00026297251 8.5132424e-05)
(0 -0.00025480301 8.2901765e-05)
(0 -0.000242074 7.9265544e-05)
(0 -0.00022526727 7.4281028e-05)
(0 -0.00020491988 6.7917692e-05)
(0 -0.00018128352 6.0162507e-05)
(0 -0.00015462685 5.1310994e-05)
(0 -0.00012539771 4.1755947e-05)
(0 -9.3917887e-05 3.1652479e-05)
(0 -6.0612999e-05 2.1037785e-05)
(0 -2.6187939e-05 1.0002659e-05)
(0 8.4610963e-06 -1.1396756e-06)
(0 4.2324929e-05 -1.2068374e-05)
(0 7.4032837e-05 -2.244593e-05)
(0 0.00010161758 -3.1491652e-05)
(0 0.00012132065 -3.7985401e-05)
(0 0.00012457161 -3.9354151e-05)
(0 9.4310731e-05 -3.0248082e-05)
(0 0 0)
(0 -0.00017935014 0.00010670857)
(0 -0.00019556689 0.00011683562)
(0 -0.0002086487 0.00012497148)
(0 -0.00021810227 0.00013076941)
(0 -0.00022356324 0.00013411793)
(0 -0.00022486313 0.00013505395)
(0 -0.00022199897 0.00013366796)
(0 -0.00021502402 0.00012997461)
(0 -0.0002041813 0.00012402612)
(0 -0.00018993466 0.00011593765)
(0 -0.00017277303 0.0001056972)
(0 -0.00015289362 9.3389884e-05)
(0 -0.0001305183 7.9450012e-05)
(0 -0.00010597426 6.4355758e-05)
(0 -7.9464716e-05 4.8384173e-05)
(0 -5.1321883e-05 3.1705838e-05)
(0 -2.2120298e-05 1.4523746e-05)
(0 7.275474e-06 -2.8110393e-06)
(0 3.5900079e-05 -1.9860375e-05)
(0 6.2566737e-05 -3.5990425e-05)
(0 8.5613918e-05 -4.9974208e-05)
(0 0.00010180504 -5.9773447e-05)
(0 0.00010381885 -6.1211622e-05)
(0 7.7702122e-05 -4.6135093e-05)
(0 0 0)
(0 -0.0001427097 0.00014550037)
(0 -0.00015578122 0.00015898016)
(0 -0.00016637889 0.00016979675)
(0 -0.00017405795 0.00017751844)
(0 -0.00017850474 0.00018198415)
(0 -0.00017958133 0.00018319391)
(0 -0.00017729705 0.00018120153)
(0 -0.00017171383 0.00017601828)
(0 -0.0001630359 0.00016774486)
(0 -0.00015167515 0.0001565463)
(0 -0.00013804272 0.00014245802)
(0 -0.00012229191 0.0001256785)
(0 -0.00010459464 0.00010675275)
(0 -8.5139602e-05 8.6231553e-05)
(0 -6.4031858e-05 6.4501166e-05)
(0 -4.1512504e-05 4.1879543e-05)
(0 -1.8018456e-05 1.8686419e-05)
(0 5.6676003e-06 -4.6904186e-06)
(0 2.867269e-05 -2.7684109e-05)
(0 5.0048645e-05 -4.9371931e-05)
(0 6.8453804e-05 -6.8119806e-05)
(0 8.1282636e-05 -8.1138449e-05)
(0 8.2727358e-05 -8.2691091e-05)
(0 6.1808776e-05 -6.1797938e-05)
(0 0 0)
(0 -0.00010416625 0.00018217802)
(0 -0.00011392888 0.00019880237)
(0 -0.00012189437 0.00021210868)
(0 -0.00012769278 0.00022161292)
(0 -0.00013106233 0.00022711927)
(0 -0.00013190319 0.00022858098)
(0 -0.00013024477 0.00022601277)
(0 -0.00012615024 0.00021943395)
(0 -0.00011978641 0.00020898156)
(0 -0.00011148476 0.00019485993)
(0 -0.00010156729 0.00017717372)
(0 -9.0162829e-05 0.00015624816)
(0 -7.7363584e-05 0.00013269063)
(0 -6.3223847e-05 0.00010706282)
(0 -4.7781804e-05 7.9883395e-05)
(0 -3.1196608e-05 5.1648692e-05)
(0 -1.376775e-05 2.2752805e-05)
(0 3.8634799e-06 -6.3703275e-06)
(0 2.0971795e-05 -3.4997285e-05)
(0 3.6862896e-05 -6.1946458e-05)
(0 5.054268e-05 -8.5311029e-05)
(0 6.0098296e-05 -0.00010164772)
(0 6.1340532e-05 -0.00010372369)
(0 4.6181796e-05 -7.7647429e-05)
(0 0 0)
(0 -6.5279899e-05 0.00021551628)
(0 -7.1641196e-05 0.0002349837)
(0 -7.6891556e-05 0.00025051008)
(0 -8.0738648e-05 0.00026160194)
(0 -8.2972225e-05 0.00026806087)
(0 -8.3535372e-05 0.00026977946)
(0 -8.2480865e-05 0.00026672216)
(0 -7.9869736e-05 0.00025892471)
(0 -7.5824914e-05 0.00024655398)
(0 -7.0597812e-05 0.00022985315)
(0 -6.4413254e-05 0.0002089958)
(0 -5.7351414e-05 0.00018438451)
(0 -4.9439047e-05 0.00015666336)
(0 -4.0639869e-05 0.00012644964)
(0 -3.0932027e-05 9.4353543e-05)
(0 -2.0383037e-05 6.0947073e-05)
(0 -9.1853739e-06 2.6734312e-05)
(0 2.1946334e-06 -7.7265398e-06)
(0 1.3245661e-05 -4.1576431e-05)
(0 2.3516979e-05 -7.346737e-05)
(0 3.236327e-05 -0.00010127625)
(0 3.860323e-05 -0.00012106989)
(0 3.9677419e-05 -0.00012435884)
(0 3.0380868e-05 -9.4170793e-05)
(0 0 0)
(0 -2.7835136e-05 0.00024455593)
(0 -3.0744372e-05 0.00026649449)
(0 -3.3204213e-05 0.00028391688)
(0 -3.5018387e-05 0.00029638374)
(0 -3.6030233e-05 0.00030370479)
(0 -3.6231675e-05 0.00030569588)
(0 -3.5687773e-05 0.00030227631)
(0 -3.4442148e-05 0.0002935094)
(0 -3.2568482e-05 0.00027957101)
(0 -3.0235554e-05 0.00026073581)
(0 -2.7588844e-05 0.00023723894)
(0 -2.4648559e-05 0.00020952584)
(0 -2.1385508e-05 0.0001782679)
(0 -1.7724518e-05 0.00014409285)
(0 -1.3585007e-05 0.00010766875)
(0 -8.9359795e-06 6.9672693e-05)
(0 -3.8773263e-06 3.0703647e-05)
(0 1.3008708e-06 -8.5643292e-06)
(0 6.3110239e-06 -4.7150994e-05)
(0 1.0936156e-05 -8.3615192e-05)
(0 1.4863452e-05 -0.00011570367)
(0 1.7617966e-05 -0.00013916576)
(0 1.8170954e-05 -0.0001445761)
(0 1.4198121e-05 -0.00011184503)
(0 0 0)
(0 7.6076493e-07 0.00026969844)
(0 6.2724227e-07 0.00029405774)
(0 4.5027678e-07 0.00031341132)
(0 3.1841159e-07 0.00032735058)
(0 3.0042935e-07 0.00033563924)
(0 3.8760501e-07 0.00033808016)
(0 5.3907938e-07 0.00033459407)
(0 7.277747e-07 0.00032523964)
(0 9.2056437e-07 0.00031018383)
(0 1.0462565e-06 0.00028971478)
(0 1.0350662e-06 0.00026416706)
(0 8.969054e-07 0.00023400679)
(0 6.8105245e-07 0.0001998243)
(0 4.6711714e-07 0.00016222245)
(0 3.4824706e-07 0.00012192836)
(0 3.8298081e-07 7.9735633e-05)
(0 5.764939e-07 3.6361966e-05)
(0 8.2467923e-07 -7.4033852e-06)
(0 1.0123462e-06 -5.0491844e-05)
(0 1.092281e-06 -9.1409741e-05)
(0 1.0146343e-06 -0.00012783709)
(0 7.9919227e-07 -0.00015530938)
(0 5.2602193e-07 -0.00016378474)
(0 2.5101491e-07 -0.00013060286)
(0 0 0)
(0 -0.00024208982 -2.9603845e-05)
(0 -0.00026375283 -3.1970389e-05)
(0 -0.00028110606 -3.3831445e-05)
(0 -0.00029364396 -3.5267148e-05)
(0 -0.00030093467 -3.6234141e-05)
(0 -0.00030276973 -3.6625882e-05)
(0 -0.00029913345 -3.6353154e-05)
(0 -0.00029008135 -3.5393097e-05)
(0 -0.00027586652 -3.3752189e-05)
(0 -0.00025697341 -3.1489759e-05)
(0 -0.00023392054 -2.874529e-05)
(0 -0.00020704084 -2.5649853e-05)
(0 -0.00017666194 -2.2140685e-05)
(0 -0.00014327608 -1.8132663e-05)
(0 -0.00010736562 -1.3734992e-05)
(0 -6.949842e-05 -9.1405134e-06)
(0 -3.0475382e-05 -4.5030331e-06)
(0 8.8447462e-06 2.0872889e-07)
(0 4.7473394e-05 4.924303e-06)
(0 8.3909457e-05 9.4186789e-06)
(0 0.00011590072 1.3452249e-05)
(0 0.00013930476 1.6467963e-05)
(0 0.00014468896 1.7362999e-05)
(0 0.00011192318 1.3807608e-05)
(0 0 0)
(0 -0.00020123133 7.0903755e-08)
(0 -0.00021914898 6.3988541e-07)
(0 -0.00023364568 1.1393078e-06)
(0 -0.00024412145 1.3901323e-06)
(0 -0.00025009953 1.3917259e-06)
(0 -0.00025137193 1.2779855e-06)
(0 -0.00024794731 1.2025215e-06)
(0 -0.00023987021 1.2096196e-06)
(0 -0.0002274244 1.3035923e-06)
(0 -0.00021118956 1.4312936e-06)
(0 -0.00019178108 1.4032662e-06)
(0 -0.00016941967 1.0830772e-06)
(0 -0.00014427549 6.9336895e-07)
(0 -0.00011671391 5.0439423e-07)
(0 -8.7008036e-05 4.6248555e-07)
(0 -5.5578358e-05 3.7902134e-07)
(0 -2.3172766e-05 1.5447305e-07)
(0 9.407681e-06 -2.7615317e-08)
(0 4.1275782e-05 -1.4954572e-07)
(0 7.0991383e-05 -3.4227033e-07)
(0 9.6524805e-05 -4.3443167e-07)
(0 0.00011419548 -4.3865028e-07)
(0 0.00011561953 -3.8769783e-07)
(0 8.4804071e-05 -1.9037598e-07)
(0 0 0)
(0 -0.00016961152 3.3221278e-05)
(0 -0.00018492268 3.7019858e-05)
(0 -0.00019741611 4.0145231e-05)
(0 -0.00020648662 4.2327699e-05)
(0 -0.00021169538 4.3532066e-05)
(0 -0.00021285276 4.3880893e-05)
(0 -0.00020996336 4.3532057e-05)
(0 -0.00020307391 4.2519129e-05)
(0 -0.00019246292 4.0839629e-05)
(0 -0.00017868791 3.8475587e-05)
(0 -0.00016236329 3.5255835e-05)
(0 -0.000143637 3.1131216e-05)
(0 -0.00012260121 2.6453513e-05)
(0 -9.952568e-05 2.1571262e-05)
(0 -7.4529411e-05 1.6539388e-05)
(0 -4.7917763e-05 1.1279127e-05)
(0 -2.0350984e-05 5.7525255e-06)
(0 7.3536232e-06 1.6102446e-07)
(0 3.4348546e-05 -5.3741177e-06)
(0 5.9367903e-05 -1.0725831e-05)
(0 8.0674346e-05 -1.5248808e-05)
(0 9.5040389e-05 -1.8243773e-05)
(0 9.5154384e-05 -1.8448889e-05)
(0 6.8234871e-05 -1.34041e-05)
(0 0 0)
(0 -0.00013583345 6.8783837e-05)
(0 -0.00014830447 7.5783057e-05)
(0 -0.00015856547 8.1502183e-05)
(0 -0.00016605265 8.5565151e-05)
(0 -0.00017038464 8.7899552e-05)
(0 -0.0001714021 8.8599824e-05)
(0 -0.00016911153 8.7790425e-05)
(0 -0.00016355761 8.5485341e-05)
(0 -0.00015498666 8.1715213e-05)
(0 -0.00014391214 7.651514e-05)
(0 -0.00013089405 6.9752899e-05)
(0 -0.00011603207 6.1488568e-05)
(0 -9.9364812e-05 5.2193798e-05)
(0 -8.1024106e-05 4.2295575e-05)
(0 -6.1004115e-05 3.196456e-05)
(0 -3.9514791e-05 2.1253831e-05)
(0 -1.706943e-05 1.0225657e-05)
(0 5.5112361e-06 -9.4648436e-07)
(0 2.7396504e-05 -1.2042341e-05)
(0 4.7549478e-05 -2.2615058e-05)
(0 6.4590417e-05 -3.1553693e-05)
(0 7.588396e-05 -3.7367806e-05)
(0 7.5475473e-05 -3.7323489e-05)
(0 5.3501596e-05 -2.6607135e-05)
(0 0 0)
(0 -0.0001004248 0.0001050007)
(0 -0.00010988783 0.00011512219)
(0 -0.00011774948 0.00012334678)
(0 -0.00012351692 0.00012922487)
(0 -0.00012687975 0.00013263927)
(0 -0.00012771765 0.00013363149)
(0 -0.00012604641 0.00013227427)
(0 -0.00012191167 0.00012857085)
(0 -0.00011551139 0.00012259565)
(0 -0.00010729398 0.00011443724)
(0 -9.7736863e-05 0.0001040293)
(0 -8.691304e-05 9.1561029e-05)
(0 -7.4805785e-05 7.7595907e-05)
(0 -6.1392393e-05 6.2623128e-05)
(0 -4.657445e-05 4.6932321e-05)
(0 -3.0459921e-05 3.0722002e-05)
(0 -1.341327e-05 1.4160885e-05)
(0 3.7892879e-06 -2.5886322e-06)
(0 2.037669e-05 -1.9185489e-05)
(0 3.5581164e-05 -3.4844852e-05)
(0 4.8363238e-05 -4.808766e-05)
(0 5.674202e-05 -5.6681651e-05)
(0 5.6310645e-05 -5.6345762e-05)
(0 3.9827875e-05 -3.986184e-05)
(0 0 0)
(0 -6.4423645e-05 0.00014037858)
(0 -7.0804636e-05 0.00015346686)
(0 -7.6184346e-05 0.00016403663)
(0 -8.016354e-05 0.00017159847)
(0 -8.2496254e-05 0.0001760097)
(0 -8.3104838e-05 0.00017724479)
(0 -8.2027019e-05 0.00017531815)
(0 -7.9308295e-05 0.00017023457)
(0 -7.5099326e-05 0.00016210504)
(0 -6.9769308e-05 0.00015106619)
(0 -6.3700948e-05 0.00013713916)
(0 -5.6941594e-05 0.00012063798)
(0 -4.9406729e-05 0.00010217946)
(0 -4.094832e-05 8.2279587e-05)
(0 -3.1406586e-05 6.1361282e-05)
(0 -2.0794821e-05 3.9787468e-05)
(0 -9.3453085e-06 1.779794e-05)
(0 2.2802441e-06 -4.409013e-06)
(0 1.3438666e-05 -2.6321525e-05)
(0 2.3629502e-05 -4.6870905e-05)
(0 3.2136248e-05 -6.4337303e-05)
(0 3.7667478e-05 -7.5806695e-05)
(0 3.7428791e-05 -7.5456178e-05)
(0 2.664043e-05 -5.3497432e-05)
(0 0 0)
(0 -2.9391066e-05 0.00017394814)
(0 -3.2693316e-05 0.00018978071)
(0 -3.5585251e-05 0.00020246923)
(0 -3.7755574e-05 0.00021153207)
(0 -3.9006905e-05 0.00021683149)
(0 -3.9309729e-05 0.000218262)
(0 -3.8734225e-05 0.00021577273)
(0 -3.7324287e-05 0.00020938555)
(0 -3.518494e-05 0.00019924354)
(0 -3.2608087e-05 0.00018552831)
(0 -2.987389e-05 0.00016834761)
(0 -2.6987046e-05 0.00014808953)
(0 -2.3816331e-05 0.00012540759)
(0 -2.0129716e-05 0.00010087332)
(0 -1.5728331e-05 7.5014991e-05)
(0 -1.0562634e-05 4.8304319e-05)
(0 -4.7515157e-06 2.1051386e-05)
(0 1.2275514e-06 -6.4204201e-06)
(0 6.9220079e-06 -3.3413358e-05)
(0 1.2060671e-05 -5.8690578e-05)
(0 1.6260571e-05 -8.0313739e-05)
(0 1.8924072e-05 -9.4806701e-05)
(0 1.8796824e-05 -9.4974435e-05)
(0 1.3547444e-05 -6.8121198e-05)
(0 0 0)
(0 2.9764364e-06 0.0002052434)
(0 2.7596006e-06 0.0002235405)
(0 2.4000719e-06 0.00023806848)
(0 2.105999e-06 0.00024841839)
(0 2.0346522e-06 0.00025447597)
(0 2.162601e-06 0.00025603732)
(0 2.4003887e-06 0.00025299337)
(0 2.7205078e-06 0.00024540435)
(0 3.0625635e-06 0.00023342563)
(0 3.204431e-06 0.00021727659)
(0 2.9474417e-06 0.00019712225)
(0 2.338973e-06 0.00017340304)
(0 1.5468271e-06 0.00014682831)
(0 8.1960087e-07 0.00011799539)
(0 3.9020774e-07 8.7503226e-05)
(0 3.951699e-07 5.5924987e-05)
(0 7.9248374e-07 2.3663239e-05)
(0 1.2850054e-06 -8.8085835e-06)
(0 1.6380682e-06 -4.0640361e-05)
(0 1.7893273e-06 -7.0485872e-05)
(0 1.6575989e-06 -9.6259492e-05)
(0 1.306032e-06 -0.00011405656)
(0 8.6143198e-07 -0.00011550732)
(0 3.9924894e-07 -8.4688771e-05)
(0 0 0)
(0 3.1061191e-05 0.0002445851)
(0 3.3596798e-05 0.00026643075)
(0 3.5519671e-05 0.00028373808)
(0 3.6908296e-05 0.00029613548)
(0 3.7835081e-05 0.00030345705)
(0 3.825681e-05 0.00030547824)
(0 3.8105063e-05 0.00030208991)
(0 3.7368529e-05 0.00029336316)
(0 3.6026827e-05 0.00027945892)
(0 3.3977516e-05 0.00026063183)
(0 3.1135742e-05 0.00023714571)
(0 2.7573845e-05 0.00020946069)
(0 2.3448046e-05 0.00017823304)
(0 1.8960965e-05 0.00014407253)
(0 1.4325068e-05 0.00010764872)
(0 9.712462e-06 6.9652605e-05)
(0 5.183677e-06 3.0680517e-05)
(0 6.6482891e-07 -8.589613e-06)
(0 -3.8633507e-06 -4.7175894e-05)
(0 -8.2946759e-06 -8.3651563e-05)
(0 -1.2428988e-05 -0.00011578091)
(0 -1.5705679e-05 -0.00013927081)
(0 -1.6910436e-05 -0.00014466737)
(0 -1.3605034e-05 -0.00011190138)
(0 0 0)
(0 -0.00021254312 -6.7464284e-05)
(0 -0.00023155017 -7.3220633e-05)
(0 -0.00024685707 -7.7794092e-05)
(0 -0.00025794497 -8.118264e-05)
(0 -0.00026437164 -8.3323186e-05)
(0 -0.00026594711 -8.4094117e-05)
(0 -0.00026266393 -8.3390934e-05)
(0 -0.00025456715 -8.1166389e-05)
(0 -0.00024191173 -7.743049e-05)
(0 -0.00022518614 -7.230917e-05)
(0 -0.00020490402 -6.6029146e-05)
(0 -0.00018138773 -5.8714887e-05)
(0 -0.00015484761 -5.0365661e-05)
(0 -0.0001256091 -4.1059122e-05)
(0 -9.4109852e-05 -3.1001405e-05)
(0 -6.0905984e-05 -2.0453772e-05)
(0 -2.670492e-05 -9.6577786e-06)
(0 7.7815312e-06 1.2537579e-06)
(0 4.1687178e-05 1.1956462e-05)
(0 7.3601484e-05 2.1992016e-05)
(0 0.00010137462 3.090092e-05)
(0 0.00012115415 3.7436626e-05)
(0 0.00012445069 3.8900972e-05)
(0 9.4230486e-05 3.0035027e-05)
(0 0 0)
(0 -0.00016942915 -3.2682542e-05)
(0 -0.00018464792 -3.5192338e-05)
(0 -0.00019711125 -3.7173643e-05)
(0 -0.00020619548 -3.8726072e-05)
(0 -0.00021140885 -3.9844598e-05)
(0 -0.00021257856 -4.0390518e-05)
(0 -0.00020973068 -4.0205349e-05)
(0 -0.00020289516 -3.9216126e-05)
(0 -0.00019234571 -3.7412653e-05)
(0 -0.00017863791 -3.4914984e-05)
(0 -0.00016235766 -3.198572e-05)
(0 -0.00014372508 -2.8679647e-05)
(0 -0.00012276739 -2.4831908e-05)
(0 -9.9642048e-05 -2.0413668e-05)
(0 -7.4595405e-05 -1.5542955e-05)
(0 -4.8068191e-05 -1.0400504e-05)
(0 -2.0714837e-05 -5.1634409e-06)
(0 6.8433235e-06 1.3686018e-07)
(0 3.3888668e-05 5.240843e-06)
(0 5.9102327e-05 9.8531332e-06)
(0 8.056903e-05 1.4006628e-05)
(0 9.498291e-05 1.707191e-05)
(0 9.5115417e-05 1.7550992e-05)
(0 6.8212551e-05 1.3008829e-05)
(0 0 0)
(0 -0.00013742421 5.6139356e-07)
(0 -0.00014988301 1.2994394e-06)
(0 -0.00016019897 1.9737416e-06)
(0 -0.00016776469 2.3619611e-06)
(0 -0.00017212077 2.4392512e-06)
(0 -0.00017310982 2.3546068e-06)
(0 -0.00017076119 2.2703216e-06)
(0 -0.00016509406 2.2307215e-06)
(0 -0.00015636655 2.2497476e-06)
(0 -0.00014515028 2.2372024e-06)
(0 -0.00013203625 1.9621366e-06)
(0 -0.00011714138 1.4424335e-06)
(0 -0.00010040854 9.5475653e-07)
(0 -8.1886306e-05 6.4355261e-07)
(0 -6.1654632e-05 5.2219002e-07)
(0 -4.0037077e-05 5.1056378e-07)
(0 -1.761178e-05 4.767376e-07)
(0 4.9918426e-06 3.6996804e-07)
(0 2.7138961e-05 3.9299457e-08)
(0 4.7690292e-05 -5.2390032e-07)
(0 6.5030231e-05 -8.1413952e-07)
(0 7.6372273e-05 -7.4842174e-07)
(0 7.5653917e-05 -5.2790834e-07)
(0 5.3053445e-05 -2.1395807e-07)
(0 0 0)
(0 -0.00010312922 3.6214092e-05)
(0 -0.00011262223 4.023763e-05)
(0 -0.00012057142 4.3563232e-05)
(0 -0.00012642905 4.5898834e-05)
(0 -0.00012981562 4.7190473e-05)
(0 -0.00013060558 4.7544089e-05)
(0 -0.00012882698 4.7078164e-05)
(0 -0.00012449316 4.5816312e-05)
(0 -0.00011782191 4.37895e-05)
(0 -0.00010933897 4.0965001e-05)
(0 -9.9586104e-05 3.7174149e-05)
(0 -8.8626287e-05 3.2518367e-05)
(0 -7.6347754e-05 2.7386565e-05)
(0 -6.266497e-05 2.2040033e-05)
(0 -4.7512104e-05 1.661581e-05)
(0 -3.1090277e-05 1.1146467e-05)
(0 -1.3860257e-05 5.586144e-06)
(0 3.5341649e-06 -1.5434582e-07)
(0 2.050554e-05 -6.1116089e-06)
(0 3.6162062e-05 -1.1939259e-05)
(0 4.9254514e-05 -1.6703356e-05)
(0 5.7641796e-05 -1.9539305e-05)
(0 5.6685949e-05 -1.912508e-05)
(0 3.9248964e-05 -1.3180431e-05)
(0 0 0)
(0 -6.7104782e-05 7.2916777e-05)
(0 -7.3490868e-05 8.0152723e-05)
(0 -7.8912201e-05 8.604909e-05)
(0 -8.2919062e-05 9.0279383e-05)
(0 -8.5231706e-05 9.2763956e-05)
(0 -8.5772208e-05 9.3529005e-05)
(0 -8.4574895e-05 9.2620269e-05)
(0 -8.1649252e-05 9.0045433e-05)
(0 -7.7157495e-05 8.5859095e-05)
(0 -7.1553036e-05 8.0084825e-05)
(0 -6.5298217e-05 7.2637553e-05)
(0 -5.8426914e-05 6.3727193e-05)
(0 -5.0774035e-05 5.3852464e-05)
(0 -4.2110642e-05 4.3376702e-05)
(0 -3.2255766e-05 3.2543497e-05)
(0 -2.1282318e-05 2.1498998e-05)
(0 -9.5213176e-06 1.0294385e-05)
(0 2.4031759e-06 -1.1513227e-06)
(0 1.3964822e-05 -1.2720185e-05)
(0 2.4557676e-05 -2.3719659e-05)
(0 3.3305043e-05 -3.2904097e-05)
(0 3.8782586e-05 -3.8617986e-05)
(0 3.7943219e-05 -3.7896383e-05)
(0 2.6126838e-05 -2.6123593e-05)
(0 0 0)
(0 -3.06577e-05 0.00010886713)
(0 -3.3892193e-05 0.00011911738)
(0 -3.6735565e-05 0.00012739217)
(0 -3.8844643e-05 0.00013336295)
(0 -4.0033206e-05 0.00013694859)
(0 -4.0272481e-05 0.00013807852)
(0 -3.9613514e-05 0.00013670583)
(0 -3.8068355e-05 0.00013282898)
(0 -3.5745705e-05 0.00012653079)
(0 -3.3018733e-05 0.00011788409)
(0 -3.0258818e-05 0.00010690131)
(0 -2.7450059e-05 9.3897592e-05)
(0 -2.4373102e-05 7.9451352e-05)
(0 -2.0697449e-05 6.4000926e-05)
(0 -1.6172473e-05 4.7893218e-05)
(0 -1.0759243e-05 3.1388292e-05)
(0 -4.6558374e-06 1.4603539e-05)
(0 1.6005608e-06 -2.4454845e-06)
(0 7.6037141e-06 -1.9429437e-05)
(0 1.3024784e-05 -3.5409875e-05)
(0 1.7351169e-05 -4.8894454e-05)
(0 1.9910065e-05 -5.747937e-05)
(0 1.9302073e-05 -5.6610436e-05)
(0 1.3255356e-05 -3.921945e-05)
(0 0 0)
(0 4.2899554e-06 0.0001427983)
(0 4.1751911e-06 0.00015584257)
(0 3.8890339e-06 0.00016627244)
(0 3.6635284e-06 0.00017379036)
(0 3.6114906e-06 0.00017833081)
(0 3.7218398e-06 0.00017972771)
(0 3.9297885e-06 0.0001778596)
(0 4.220709e-06 0.00017273521)
(0 4.5287502e-06 0.00016445784)
(0 4.5641381e-06 0.00015314675)
(0 4.053795e-06 0.00013890864)
(0 3.0681017e-06 0.00012213396)
(0 1.8625182e-06 0.00010343718)
(0 8.0459956e-07 8.3311116e-05)
(0 1.8404957e-07 6.2203902e-05)
(0 1.5398018e-07 4.0476257e-05)
(0 6.2928252e-07 1.8313512e-05)
(0 1.2108267e-06 -4.1027556e-06)
(0 1.6670884e-06 -2.6229501e-05)
(0 1.9121259e-06 -4.696568e-05)
(0 1.8033534e-06 -6.4606964e-05)
(0 1.4063313e-06 -7.6108573e-05)
(0 8.9117681e-07 -7.5467381e-05)
(0 3.8567445e-07 -5.2946125e-05)
(0 0 0)
(0 3.6439364e-05 0.00017412936)
(0 3.9412298e-05 0.00018972518)
(0 4.1686769e-05 0.00020209473)
(0 4.3357918e-05 0.00021098106)
(0 4.4464634e-05 0.00021631655)
(0 4.4975646e-05 0.00021786756)
(0 4.4834605e-05 0.00021548346)
(0 4.4034986e-05 0.00020919531)
(0 4.2554738e-05 0.00019910588)
(0 4.0184583e-05 0.00018536244)
(0 3.6736438e-05 0.00016816235)
(0 3.2323978e-05 0.00014795118)
(0 2.7221376e-05 0.00012535223)
(0 2.1788418e-05 0.00010088753)
(0 1.6348373e-05 7.5076495e-05)
(0 1.1155582e-05 4.838929e-05)
(0 6.2197929e-06 2.1132614e-05)
(0 1.3162198e-06 -6.3352457e-06)
(0 -3.5932315e-06 -3.3300727e-05)
(0 -8.3869087e-06 -5.8561648e-05)
(0 -1.2860265e-05 -8.0235678e-05)
(0 -1.6278076e-05 -9.4771976e-05)
(0 -1.7103917e-05 -9.4939429e-05)
(0 -1.2793826e-05 -6.8094331e-05)
(0 0 0)
(0 6.9489764e-05 0.00021568834)
(0 7.5499723e-05 0.00023488768)
(0 8.0225634e-05 0.00025006588)
(0 8.3654814e-05 0.00026095685)
(0 8.5772263e-05 0.00026743448)
(0 8.6522229e-05 0.00026926217)
(0 8.5852803e-05 0.00026630798)
(0 8.3773174e-05 0.00025862467)
(0 8.0299038e-05 0.00024633461)
(0 7.5337979e-05 0.00022962563)
(0 6.8825781e-05 0.00020876599)
(0 6.09093e-05 0.00018421711)
(0 5.1854201e-05 0.00015658901)
(0 4.1981434e-05 0.00012644475)
(0 3.1611799e-05 9.4374807e-05)
(0 2.1039654e-05 6.0980977e-05)
(0 1.0412169e-05 2.6768963e-05)
(0 -2.4402681e-07 -7.6884096e-06)
(0 -1.0769304e-05 -4.1520418e-05)
(0 -2.0844026e-05 -7.342219e-05)
(0 -2.992276e-05 -0.00010129971)
(0 -3.6715922e-05 -0.00012113766)
(0 -3.8470162e-05 -0.00012441875)
(0 -2.9835253e-05 -9.4205759e-05)
(0 0 0)
(0 -0.00017890709 -0.00010650485)
(0 -0.00019491497 -0.00011571866)
(0 -0.00020790333 -0.00012301555)
(0 -0.00021736722 -0.00012832979)
(0 -0.00022287062 -0.00013157073)
(0 -0.00022424137 -0.00013259947)
(0 -0.00022148399 -0.00013131188)
(0 -0.00021464217 -0.00012765968)
(0 -0.00020395045 -0.00012165606)
(0 -0.00018985927 -0.00011349954)
(0 -0.00017282821 -0.00010347769)
(0 -0.00015314508 -9.1723802e-05)
(0 -0.00013091954 -7.8336126e-05)
(0 -0.00010633615 -6.3559905e-05)
(0 -7.9794603e-05 -4.7677994e-05)
(0 -5.1810952e-05 -3.0999256e-05)
(0 -2.2962169e-05 -1.3883484e-05)
(0 6.1868727e-06 3.2992548e-06)
(0 3.4878313e-05 1.9976872e-05)
(0 6.1847455e-05 3.5558126e-05)
(0 8.5188441e-05 4.9302472e-05)
(0 0.00010154077 5.9148612e-05)
(0 0.00010367546 6.0743071e-05)
(0 7.7625722e-05 4.5937123e-05)
(0 0 0)
(0 -0.00013548494 -6.7913296e-05)
(0 -0.00014773212 -7.3613041e-05)
(0 -0.00015791612 -7.8126969e-05)
(0 -0.00016543031 -8.1473506e-05)
(0 -0.0001697879 -8.3626433e-05)
(0 -0.00017084255 -8.4436976e-05)
(0 -0.00016863795 -8.3763565e-05)
(0 -0.0001632014 -8.1532829e-05)
(0 -0.00015477594 -7.772897e-05)
(0 -0.0001438581 -7.2541678e-05)
(0 -0.00013096515 -6.627408e-05)
(0 -0.00011628966 -5.8952114e-05)
(0 -9.9734198e-05 -5.0521072e-05)
(0 -8.1284931e-05 -4.1150568e-05)
(0 -6.1189328e-05 -3.1008031e-05)
(0 -3.9879979e-05 -2.0283196e-05)
(0 -1.7862171e-05 -9.2571337e-06)
(0 4.4263312e-06 1.7486611e-06)
(0 2.6400786e-05 1.22084e-05)
(0 4.689357e-05 2.1772387e-05)
(0 6.4232912e-05 3.0244045e-05)
(0 7.5676784e-05 3.6179509e-05)
(0 7.5387524e-05 3.6481196e-05)
(0 5.3474629e-05 2.6267962e-05)
(0 0 0)
(0 -0.0001029337 -3.4731234e-05)
(0 -0.00011227661 -3.722724e-05)
(0 -0.0001201702 -3.9162105e-05)
(0 -0.00012604483 -4.0631594e-05)
(0 -0.00012945442 -4.1630203e-05)
(0 -0.00013027309 -4.2022654e-05)
(0 -0.00012854766 -4.1678059e-05)
(0 -0.00012428163 -4.0533282e-05)
(0 -0.00011769748 -3.8574962e-05)
(0 -0.00010931747 -3.595722e-05)
(0 -9.9653476e-05 -3.2925069e-05)
(0 -8.8800467e-05 -2.9442449e-05)
(0 -7.6571699e-05 -2.5360897e-05)
(0 -6.281884e-05 -2.0722065e-05)
(0 -4.7626517e-05 -1.555498e-05)
(0 -3.1327017e-05 -9.9507299e-06)
(0 -1.4363762e-05 -4.1428905e-06)
(0 2.8568181e-06 1.5137112e-06)
(0 1.9882001e-05 6.6072413e-06)
(0 3.5709367e-05 1.1096765e-05)
(0 4.8952879e-05 1.5213898e-05)
(0 5.7448886e-05 1.8180217e-05)
(0 5.6603639e-05 1.8193353e-05)
(0 3.9235266e-05 1.2818742e-05)
(0 0 0)
(0 -6.8135692e-05 9.3118466e-07)
(0 -7.438832e-05 1.7169189e-06)
(0 -7.9771509e-05 2.4058433e-06)
(0 -8.3804297e-05 2.8705315e-06)
(0 -8.6144758e-05 3.1129447e-06)
(0 -8.6705751e-05 3.1961954e-06)
(0 -8.5527368e-05 3.18652e-06)
(0 -8.2590611e-05 3.1299389e-06)
(0 -7.806618e-05 3.0450074e-06)
(0 -7.2444678e-05 2.840393e-06)
(0 -6.6189197e-05 2.3631653e-06)
(0 -5.9334233e-05 1.7145901e-06)
(0 -5.1641677e-05 1.1387939e-06)
(0 -4.2827467e-05 7.3528859e-07)
(0 -3.2815952e-05 6.0802233e-07)
(0 -2.1810495e-05 7.6377728e-07)
(0 -1.0169799e-05 1.0314917e-06)
(0 1.7052234e-06 1.0401842e-06)
(0 1.3469755e-05 5.3179395e-07)
(0 2.4362081e-05 -1.8842572e-07)
(0 3.3335392e-05 -5.5228345e-07)
(0 3.89303e-05 -5.4718909e-07)
(0 3.8039311e-05 -3.834639e-07)
(0 2.5998397e-05 -1.5235948e-07)
(0 0 0)
(0 -3.1484961e-05 3.8098748e-05)
(0 -3.4531604e-05 4.212865e-05)
(0 -3.7257978e-05 4.5395234e-05)
(0 -3.9310416e-05 4.7777852e-05)
(0 -4.0488635e-05 4.9280768e-05)
(0 -4.0758438e-05 4.9873173e-05)
(0 -4.0147131e-05 4.9508695e-05)
(0 -3.8614261e-05 4.8197189e-05)
(0 -3.6271127e-05 4.5976863e-05)
(0 -3.3547135e-05 4.2813382e-05)
(0 -3.0840116e-05 3.8652798e-05)
(0 -2.8137184e-05 3.3692364e-05)
(0 -2.5142543e-05 2.8299128e-05)
(0 -2.1443493e-05 2.2701238e-05)
(0 -1.6841945e-05 1.7115277e-05)
(0 -1.1393726e-05 1.161513e-05)
(0 -5.3456488e-06 6.1047809e-06)
(0 9.1364035e-07 3.0449473e-07)
(0 7.1401661e-06 -5.8527462e-06)
(0 1.2850423e-05 -1.1800579e-05)
(0 1.738179e-05 -1.6686576e-05)
(0 2.0056925e-05 -1.9629362e-05)
(0 1.9391316e-05 -1.9152197e-05)
(0 1.3113964e-05 -1.302641e-05)
(0 0 0)
(0 5.3604019e-06 7.4649086e-05)
(0 5.5146188e-06 8.17482e-05)
(0 5.4531969e-06 8.7425529e-05)
(0 5.3873104e-06 9.1588894e-05)
(0 5.3785701e-06 9.4257265e-05)
(0 5.4192773e-06 9.5296845e-05)
(0 5.501234e-06 9.4555445e-05)
(0 5.6738623e-06 9.2018537e-05)
(0 5.8705081e-06 8.7730008e-05)
(0 5.730797e-06 8.1698154e-05)
(0 4.9307968e-06 7.3958485e-05)
(0 3.5519583e-06 6.4825735e-05)
(0 1.9484921e-06 5.4781302e-05)
(0 6.0233206e-07 4.4146668e-05)
(0 -2.1398671e-07 3.3221424e-05)
(0 -3.8821953e-07 2.2136878e-05)
(0 -5.1361039e-08 1.0877967e-05)
(0 4.4279725e-07 -6.5968103e-07)
(0 9.8395584e-07 -1.2316939e-05)
(0 1.3730033e-06 -2.3349066e-05)
(0 1.3663878e-06 -3.2644448e-05)
(0 1.0843235e-06 -3.8491169e-05)
(0 6.9262886e-07 -3.7775507e-05)
(0 2.85745e-07 -2.5886286e-05)
(0 0 0)
(0 4.0209043e-05 0.00010897275)
(0 4.3456408e-05 0.00011892989)
(0 4.5956098e-05 0.00012683521)
(0 4.7779149e-05 0.00013260369)
(0 4.8893122e-05 0.00013627059)
(0 4.927401e-05 0.00013761649)
(0 4.8911668e-05 0.00013643748)
(0 4.7842442e-05 0.0001327195)
(0 4.6051573e-05 0.00012650264)
(0 4.3260689e-05 0.00011783153)
(0 3.9222339e-05 0.00010682321)
(0 3.4089648e-05 9.3875357e-05)
(0 2.8244998e-05 7.9533343e-05)
(0 2.2163625e-05 6.4181609e-05)
(0 1.6186089e-05 4.8184052e-05)
(0 1.0584419e-05 3.1775291e-05)
(0 5.3299302e-06 1.5033544e-05)
(0 1.5642648e-07 -1.9696902e-06)
(0 -4.8934525e-06 -1.8847421e-05)
(0 -9.7453268e-06 -3.4721385e-05)
(0 -1.4244485e-05 -4.8239914e-05)
(0 -1.7507456e-05 -5.6959306e-05)
(0 -1.7789845e-05 -5.626901e-05)
(0 -1.2618108e-05 -3.9063487e-05)
(0 0 0)
(0 7.2152942e-05 0.00014063515)
(0 7.8381484e-05 0.00015325244)
(0 8.3339215e-05 0.00016323497)
(0 8.6963019e-05 0.00017047435)
(0 8.9153467e-05 0.00017497688)
(0 8.9875728e-05 0.00017649242)
(0 8.9123356e-05 0.00017482068)
(0 8.6929784e-05 0.00016995759)
(0 8.3326662e-05 0.00016194263)
(0 7.8127047e-05 0.00015084934)
(0 7.116857e-05 0.00013688063)
(0 6.2643244e-05 0.00012047502)
(0 5.2934629e-05 0.00010218145)
(0 4.2496176e-05 8.2425827e-05)
(0 3.17204e-05 6.1635529e-05)
(0 2.0984502e-05 4.0176569e-05)
(0 1.0373445e-05 1.8255079e-05)
(0 -2.1562858e-07 -3.8828311e-06)
(0 -1.0590976e-05 -2.5668701e-05)
(0 -2.0452478e-05 -4.6117117e-05)
(0 -2.9259566e-05 -6.3647985e-05)
(0 -3.5486037e-05 -7.5255808e-05)
(0 -3.6057908e-05 -7.5068354e-05)
(0 -2.6042645e-05 -5.3301525e-05)
(0 0 0)
(0 0.00010898798 0.00018243865)
(0 0.00011850127 0.00019863423)
(0 0.00012605072 0.00021141804)
(0 0.0001315032 0.00022062343)
(0 0.00013473993 0.0002261709)
(0 0.00013568561 0.00022782959)
(0 0.00013432688 0.00022545149)
(0 0.00013071743 0.00021906262)
(0 0.00012491616 0.00020873271)
(0 0.00011684931 0.00019457827)
(0 0.00010648242 0.00017685247)
(0 9.4044996e-05 0.00015600878)
(0 7.991653e-05 0.00013259901)
(0 6.4520687e-05 0.00010710209)
(0 4.8265168e-05 8.0018164e-05)
(0 3.157778e-05 5.1849516e-05)
(0 1.4707215e-05 2.3001126e-05)
(0 -2.1991693e-06 -6.0641486e-06)
(0 -1.8778563e-05 -3.4611643e-05)
(0 -3.4503347e-05 -6.151457e-05)
(0 -4.8445683e-05 -8.4945375e-05)
(0 -5.851315e-05 -0.00010137948)
(0 -6.0341811e-05 -0.00010354015)
(0 -4.5733873e-05 -7.7554389e-05)
(0 0 0)
(0 -0.00014215353 -0.00014494144)
(0 -0.00015490072 -0.00015754074)
(0 -0.00016533246 -0.00016752531)
(0 -0.00017301257 -0.00017473156)
(0 -0.00017753415 -0.00017902966)
(0 -0.00017873912 -0.00018027545)
(0 -0.00017663133 -0.00017836876)
(0 -0.00017124908 -0.00017326353)
(0 -0.00016279995 -0.00016499497)
(0 -0.00015166813 -0.00015381511)
(0 -0.00013823298 -0.00014005211)
(0 -0.00012272605 -0.00012389956)
(0 -0.00010517411 -0.0001055591)
(0 -8.5654263e-05 -8.5388704e-05)
(0 -6.4511677e-05 -6.3764652e-05)
(0 -4.2189165e-05 -4.1076564e-05)