/*--------------------------------*- C++ -*----------------------------------*\
| =========                 |                                                 |
| \\      /  F ield         | OpenFOAM: The Open Source CFD Toolbox           |
|  \\    /   O peration     | Version:  4.1                                   |
|   \\  /    A nd           | Web:      www.OpenFOAM.org                      |
|    \\/     M anipulation  |                                                 |
\*---------------------------------------------------------------------------*/
FoamFile
{
    version     2.0;
    format      ascii;
    class       volVectorField;
    location    "0.000600";
    object      U;
}
// * * * * * * * * * * * * * * * * * * * * * * * * * * * * * * * * * * * * * //

dimensions      [0 1 -1 0 0 0 0];

internalField   nonuniform List<vector> 
3072
(
(18.112563 0.023996023 0.00079214752)
(18.327226 0.021757854 0.00057211296)
(18.553072 0.021453259 0.00017077058)
(18.768157 0.02276127 -0.0002686162)
(18.986448 0.025129443 -0.00062530528)
(19.194616 0.028221653 -0.00089902541)
(19.400984 0.032287772 -0.001061574)
(19.601763 0.037432083 -0.0011393568)
(19.79331 0.042677454 -0.0011623769)
(19.975855 0.046826073 -0.0010330808)
(20.138115 0.046681538 -0.00072953782)
(20.281765 0.047164241 -0.00042224631)
(20.398716 0.045971575 -7.6334262e-05)
(20.498939 0.047570781 0.00017542635)
(20.613509 0.072012084 0.00033552741)
(20.684505 0.12651246 0.00041401835)
(20.695028 0.20655952 0.00040267599)
(20.550791 0.2692057 0.00032770073)
(20.159318 0.226496 0.00032441996)
(19.551105 0.014957718 0.00049241557)
(18.873618 -0.26066725 0.00080082708)
(18.264135 -0.32214511 0.0012017084)
(17.589418 -0.12836807 0.0013088371)
(16.7615 -0.019567987 0.00096922225)
(16.821449 0.057016185 0.0029935197)
(16.987105 0.053353392 0.011363783)
(17.175947 0.049590079 0.019253314)
(17.373278 0.046371248 0.026671686)
(17.584981 0.044054832 0.033261669)
(17.801127 0.042564258 0.03898358)
(18.021372 0.042506446 0.044007763)
(18.23921 0.043263455 0.048084145)
(18.447788 0.04395452 0.050852342)
(18.643678 0.04316946 0.051926107)
(18.816824 0.040999853 0.051182487)
(18.966805 0.039325629 0.051416217)
(19.088626 0.036619635 0.047059873)
(19.188451 0.041422475 0.045247488)
(19.275428 0.06162841 0.043339311)
(19.304424 0.099530425 0.04139937)
(19.255871 0.14334088 0.036101118)
(19.061307 0.15475809 0.026848595)
(18.696121 0.0727855 0.012102232)
(18.258106 -0.12790328 -0.0024206988)
(17.903696 -0.33694174 -0.013402699)
(17.667315 -0.35164773 -0.035982641)
(17.296506 -0.22110389 -0.0704755)
(16.679971 -0.21094819 -0.09849114)
(15.974781 0.059336448 0.012971471)
(16.076351 0.055319217 0.028732985)
(16.20462 0.050457577 0.043822146)
(16.350018 0.045765585 0.05797425)
(16.517552 0.041965987 0.070520891)
(16.701932 0.038948681 0.081184625)
(16.898099 0.037033908 0.0898115)
(17.098695 0.035483524 0.096239054)
(17.29596 0.033554842 0.099638235)
(17.486385 0.030285361 0.099143558)
(17.661 0.026150912 0.095536893)
(17.816711 0.022158294 0.089873497)
(17.949713 0.018798502 0.081879541)
(18.064539 0.022892227 0.073356779)
(18.157989 0.037134324 0.064452831)
(18.194756 0.061061627 0.054410531)
(18.162449 0.084018498 0.042945699)
(18.022128 0.077050272 0.028381396)
(17.78647 0.00038948036 0.012216566)
(17.563319 -0.15456552 0.002745854)
(17.45906 -0.29915116 -0.0081860879)
(17.412158 -0.29540771 -0.066110896)
(17.164144 -0.21101587 -0.16171122)
(16.645186 -0.23261148 -0.20530757)
(15.399652 0.058241317 0.023211929)
(15.43922 0.05396793 0.046834442)
(15.507155 0.048545651 0.069536048)
(15.599807 0.043602358 0.091105893)
(15.72131 0.039548878 0.11037342)
(15.868819 0.035843965 0.1261436)
(16.035001 0.032712428 0.13804846)
(16.214365 0.029743397 0.14667397)
(16.399357 0.025901868 0.15048261)
(16.58555 0.021146646 0.14893178)
(16.76532 0.015957018 0.14267242)
(16.933475 0.010961189 0.13246053)
(17.085764 0.0076643397 0.11905035)
(17.2244 0.0096884707 0.10372952)
(17.339075 0.018448316 0.086680966)
(17.404575 0.031983292 0.067921788)
(17.412713 0.041844074 0.049480549)
(17.34383 0.027609327 0.033423532)
(17.222584 -0.03515219 0.023602843)
(17.147798 -0.1505397 0.024850765)
(17.189699 -0.25020583 0.013885145)
(17.24082 -0.23994161 -0.075101867)
(17.053682 -0.18746928 -0.23632346)
(16.600755 -0.21913613 -0.29987113)
(14.938955 0.050236771 0.023028385)
(14.922567 0.046428124 0.054183024)
(14.936058 0.041277482 0.084497642)
(14.980778 0.035974389 0.11336018)
(15.059934 0.031608465 0.13943689)
(15.171566 0.029155665 0.16147465)
(15.308294 0.028799241 0.17958227)
(15.46736 0.027637227 0.19293228)
(15.642959 0.023784554 0.19825024)
(15.827847 0.018953609 0.1963906)
(16.015597 0.013857372 0.18833721)
(16.199794 0.0090883158 0.17484612)
(16.375191 0.0062120416 0.15693495)
(16.540634 0.0066118248 0.13551015)
(16.68124 0.010698588 0.11060686)
(16.780778 0.016809018 0.083917795)
(16.832241 0.017522361 0.060029762)
(16.830182 -0.00084082771 0.04458323)
(16.803502 -0.052111219 0.044460547)
(16.8387 -0.13662482 0.055555916)
(16.97939 -0.20661885 0.040791998)
(17.093784 -0.19525211 -0.073664421)
(16.945607 -0.15709228 -0.28219752)
(16.539616 -0.18992743 -0.38133265)
(14.587479 0.033500255 0.01830465)
(14.532836 0.030534533 0.055920632)
(14.510262 0.026731344 0.092763611)
(14.522399 0.02288073 0.12682375)
(14.571539 0.020131072 0.15747955)
(14.655555 0.019451165 0.18485156)
(14.771616 0.021117887 0.21012497)
(14.918462 0.024923402 0.2327966)
(15.087255 0.023039554 0.24076921)
(15.269984 0.020749916 0.24051479)
(15.461275 0.018139762 0.23201811)
(15.655147 0.015407955 0.21611978)
(15.845636 0.013570209 0.19472649)
(16.025644 0.013325766 0.16801348)
(16.183857 0.014879865 0.13636449)
(16.308637 0.01629444 0.1032492)
(16.394857 0.011110833 0.074931984)
(16.446864 -0.0091533424 0.060296621)
(16.494688 -0.050459881 0.067625665)
(16.610626 -0.11084304 0.088555278)
(16.817302 -0.16162942 0.069134524)
(16.967923 -0.16230405 -0.072909328)
(16.843023 -0.13852771 -0.31617967)
(16.468143 -0.15840133 -0.45456133)
(14.421978 0.010760472 0.01043519)
(14.362845 0.010255641 0.055219939)
(14.337675 0.009979988 0.10000523)
(14.348234 0.010942825 0.14191748)
(14.39556 0.013367644 0.1794544)
(14.475582 0.017102881 0.21205918)
(14.58493 0.022500698 0.24174397)
(14.728744 0.031378882 0.27667416)
(14.893002 0.03449627 0.29121316)
(15.063056 0.032011592 0.29034224)
(15.240533 0.0303811 0.28115034)
(15.421583 0.029881455 0.26312632)
(15.599994 0.030087232 0.2375834)
(15.768388 0.031109419 0.20518217)
(15.918619 0.032139833 0.16703091)
(16.042463 0.029966559 0.12695749)
(16.138642 0.019798509 0.092621764)
(16.21681 -0.0010286126 0.077690317)
(16.307947 -0.032613168 0.091886945)
(16.469978 -0.074422184 0.11939007)
(16.708529 -0.1160504 0.09099492)
(16.872181 -0.13973238 -0.089393761)
(16.753744 -0.14910353 -0.38560567)
(16.3926 -0.15366755 -0.56083848)
(14.443168 -1.2328893e-05 0.0045739515)
(14.401609 -0.00039649155 0.057834767)
(14.390001 -0.00082065179 0.11163219)
(14.410381 -0.0010537791 0.16214754)
(14.462809 -0.0010426479 0.20590206)
(14.544043 -0.00072030451 0.23997914)
(14.649499 -0.0002091014 0.26456897)
(14.788895 0.00022082969 0.29326565)
(14.954948 0.00042298477 0.31871018)
(15.125541 0.00060313103 0.32307914)
(15.298779 0.00066666671 0.31443151)
(15.47446 0.00097627321 0.29385065)
(15.645521 0.0013887647 0.26253963)
(15.802086 0.0018764314 0.22267498)
(15.931188 0.0022348535 0.17714978)
(16.025286 0.0022058885 0.13191848)
(16.098948 0.0017074568 0.096548797)
(16.180465 0.00087016958 0.086496096)
(16.291798 3.8664776e-05 0.11031775)
(16.471575 -0.00059833758 0.14981264)
(16.716291 -0.0012574865 0.13121601)
(16.879241 -0.0020844979 -0.059873762)
(16.736923 -0.0021960077 -0.38922004)
(16.31539 -0.0010557373 -0.59328037)
(16.828044 0.056561974 -0.0012606716)
(16.995548 0.053055208 -0.010126059)
(17.185795 0.049466022 -0.018912324)
(17.384147 0.046499741 -0.027460155)
(17.59556 0.044432419 -0.03506323)
(17.809645 0.043085602 -0.041478516)
(18.027668 0.043047755 -0.046794639)
(18.243725 0.043761716 -0.050937127)
(18.450446 0.044409746 -0.053663075)
(18.644496 0.04356274 -0.054416477)
(18.815946 0.041328324 -0.053008748)
(18.964416 0.03956261 -0.052541286)
(19.084813 0.036735658 -0.04743141)
(19.183657 0.04146341 -0.045107187)
(19.269862 0.061679515 -0.042993035)
(19.298696 0.099566017 -0.040967528)
(19.250732 0.14340649 -0.035692903)
(19.056229 0.15483524 -0.026515218)
(18.689985 0.072850753 -0.011655336)
(18.250389 -0.12781793 0.0032918131)
(17.894989 -0.33675502 0.014931467)
(17.659522 -0.35172877 0.038592389)
(17.291525 -0.22145016 0.073392347)
(16.678028 -0.2112232 0.10061987)
(15.665737 0.060791312 0.0010735067)
(15.777506 0.059257085 0.00073333668)
(15.914177 0.056197814 0.00018782888)
(16.071842 0.052839446 -0.00054898078)
(16.251135 0.049996698 -0.0012513103)
(16.445661 0.047799267 -0.0017039154)
(16.651884 0.046764029 -0.0018460731)
(16.863059 0.045765134 -0.0018121479)
(17.072686 0.044333976 -0.0017103625)
(17.273674 0.041452153 -0.0015048691)
(17.458063 0.037774572 -0.0011664565)
(17.622033 0.034902598 -0.00080163037)
(17.761672 0.032680278 -0.00030808615)
(17.874271 0.039504896 -1.9061416e-05)
(17.949829 0.055182273 5.1500699e-05)
(17.963071 0.077655161 3.0558368e-05)
(17.89147 0.092699645 1.7189394e-05)
(17.708444 0.069706398 8.1610103e-06)
(17.441796 -0.025394587 8.1515072e-05)
(17.216365 -0.18894148 0.00030913098)
(17.161267 -0.31846156 0.00067469269)
(17.187049 -0.28300821 0.0013646058)
(17.008691 -0.18743231 0.0016898645)
(16.592026 -0.22574695 0.0011892759)
(15.03821 0.046060856 0.0060797865)
(15.097693 0.043884338 0.013581084)
(15.182873 0.040281724 0.020844366)
(15.293224 0.036806477 0.02750165)
(15.430123 0.034151024 0.033250854)
(15.589737 0.032413427 0.038136659)
(15.766873 0.031515213 0.042121472)
(15.955311 0.030455069 0.04502209)
(16.14926 0.028883229 0.046264132)
(16.342278 0.026202926 0.045655274)
(16.526633 0.022941014 0.043599571)
(16.696634 0.020082654 0.040796175)
(16.847156 0.018971499 0.0359541)
(16.972487 0.023828752 0.030274468)
(17.06105 0.034169152 0.023754197)
(17.095693 0.046447747 0.016958552)
(17.064611 0.049604245 0.010753649)
(16.967044 0.023211381 0.006193962)
(16.848837 -0.051119776 0.0038588608)
(16.817373 -0.16670971 0.0017525332)
(16.933479 -0.2503639 -0.0116478)
(17.051794 -0.21624411 -0.052858097)
(16.937895 -0.14034561 -0.097281942)
(16.597792 -0.17365352 -0.11619156)
(14.747374 0.036301177 0.015405101)
(14.765246 0.03328573 0.030965447)
(14.809822 0.028963299 0.046175203)
(14.882561 0.025219806 0.060296672)
(14.984983 0.022514384 0.072699327)
(15.113627 0.021023039 0.082991724)
(15.263807 0.020390703 0.091202683)
(15.431344 0.019503476 0.096927464)
(15.61032 0.018097733 0.099018941)
(15.794191 0.015891692 0.097498827)
(15.975951 0.013207559 0.092841812)
(16.148828 0.010628235 0.085628752)
(16.306751 0.010182955 0.076163784)
(16.443087 0.013109135 0.064068648)
(16.547188 0.019347159 0.050736558)
(16.607833 0.02581956 0.036340447)
(16.620437 0.024643232 0.023745207)
(16.593638 0.0028496104 0.016143187)
(16.572693 -0.048951142 0.014992543)
(16.64283 -0.12573253 0.017451169)
(16.828142 -0.17749216 -0.0015869408)
(16.973632 -0.14570582 -0.082806232)
(16.887613 -0.088593585 -0.19069508)
(16.594297 -0.11732446 -0.23213106)
(14.55933 0.02589003 0.016691287)
(14.548668 0.022361128 0.040284609)
(14.566857 0.017760496 0.063813599)
(14.61639 0.013600929 0.086311462)
(14.69714 0.010758916 0.10637797)
(14.804842 0.0096980583 0.12289784)
(14.936497 0.0097064911 0.13590505)
(15.090634 0.0097754587 0.14580831)
(15.261349 0.0094847797 0.14960035)
(15.440581 0.0083028285 0.14767561)
(15.621427 0.0064938613 0.14093429)
(15.797563 0.004742904 0.13017906)
(15.962366 0.0045039792 0.11587605)
(16.107842 0.0063663182 0.098229004)
(16.224823 0.0098630028 0.078125022)
(16.305557 0.013084291 0.057206171)
(16.349663 0.010588581 0.039704046)
(16.370316 -0.0051577444 0.031648864)
(16.408737 -0.038471944 0.036246384)
(16.536008 -0.083771249 0.045803345)
(16.7582 -0.11156166 0.02053157)
(16.91791 -0.084775756 -0.096143213)
(16.842984 -0.04172506 -0.27021793)
(16.57025 -0.06284381 -0.33767082)
(14.424532 0.013439281 0.01505665)
(14.397502 0.010778192 0.04557453)
(14.40203 0.007652452 0.076192492)
(14.439502 0.0051363838 0.10528228)
(14.508858 0.0034091706 0.13178991)
(14.606698 0.0020186718 0.15519864)
(14.730536 0.00054203244 0.17599097)
(14.879374 0.00046571117 0.19219971)
(15.047014 0.0014839087 0.1985207)
(15.224502 0.0022477505 0.19723791)
(15.405161 0.0020144824 0.18924527)
(15.583284 0.0016288115 0.17555114)
(15.75203 0.0019462888 0.15699724)
(15.902808 0.0031772535 0.13385403)
(16.027597 0.0050681691 0.10718263)
(16.120301 0.0065258073 0.079787161)
(16.183288 0.0044582147 0.057514995)
(16.232617 -0.0047858833 0.049096582)
(16.306723 -0.022008718 0.059838573)
(16.467612 -0.04306598 0.076654304)
(16.711655 -0.053889452 0.045675819)
(16.879238 -0.037620407 -0.1044166)
(16.800946 -0.01057733 -0.33523099)
(16.526205 -0.02031288 -0.43662524)
(14.383576 0.00059550045 0.012256287)
(14.346814 -0.00010381698 0.049587643)
(14.342857 -0.00086791001 0.087378614)
(14.372483 -0.0010643887 0.12326938)
(14.434348 -0.00071244691 0.15619054)
(14.525626 -0.00012680168 0.18622309)
(14.644154 0.00040465459 0.2153905)
(14.788869 0.00072947278 0.24396492)
(14.952613 0.00068025035 0.25056894)
(15.126343 0.00075687598 0.24926082)
(15.304333 0.00078879331 0.24009932)
(15.480795 0.0011434127 0.22350974)
(15.649378 0.0016979143 0.20054301)
(15.802186 0.0023290329 0.17154408)
(15.931021 0.0028054055 0.13792736)
(16.030155 0.0027883905 0.10334525)
(16.10288 0.0020625335 0.075133807)
(16.165903 0.00074363731 0.065095991)
(16.255665 -0.00051774228 0.080186124)
(16.429388 -0.0013624 0.10162157)
(16.681154 -0.0022822718 0.060955709)
(16.850925 -0.0036927615 -0.12764717)
(16.760518 -0.0040552131 -0.4158506)
(16.463182 -0.002536057 -0.55100443)
(14.420098 -0.010197314 0.0097663882)
(14.362027 -0.010709474 0.054795621)
(14.338468 -0.011529115 0.099917158)
(14.351219 -0.012904606 0.14180202)
(14.399751 -0.014999528 0.17893739)
(14.479552 -0.01791035 0.21117679)
(14.587338 -0.022570717 0.24095131)
(14.727715 -0.031026193 0.2761383)
(14.886251 -0.033738156 0.29089873)
(15.053368 -0.030983707 0.29019088)
(15.228153 -0.029050077 0.28085786)
(15.405945 -0.027947036 0.26267943)
(15.581464 -0.027246848 0.23687105)
(15.747058 -0.02730246 0.20407876)
(15.893717 -0.02761558 0.16569566)
(16.014094 -0.025475468 0.12563398)
(16.107695 -0.016339278 0.091675525)
(16.185613 0.0026093025 0.077390983)
(16.278865 0.032233567 0.092267716)
(16.444207 0.072525872 0.12044212)
(16.686583 0.11257694 0.093003766)
(16.854687 0.13416444 -0.085918723)
(16.742815 0.14316205 -0.38199286)
(16.38803 0.15029616 -0.55877106)
(15.988784 0.05906645 -0.011485194)
(16.093874 0.055375754 -0.027769127)
(16.225662 0.050745789 -0.043718374)
(16.373596 0.046231749 -0.05893081)
(16.540579 0.042473416 -0.072393128)
(16.720433 0.039456966 -0.08368985)
(16.911322 0.037556599 -0.092578373)
(17.107952 0.035966578 -0.09904915)
(17.301528 0.033919378 -0.10234958)
(17.488261 0.030542622 -0.10149516)
(17.659315 0.026263081 -0.097271219)
(17.811769 0.022067954 -0.09083346)
(17.941788 0.018543433 -0.08214487)
(18.054667 0.022610595 -0.073161305)
(18.146434 0.036929237 -0.064182224)
(18.182415 0.060953462 -0.05419699)
(18.150396 0.083980042 -0.042842118)
(18.00944 0.07696344 -0.028232468)
(17.772062 0.00025060743 -0.011785522)
(17.547037 -0.15458867 -0.0018181268)
(17.441915 -0.29880071 0.0096548954)
(17.396632 -0.29504926 0.068404052)
(17.153209 -0.21096531 0.16415204)
(16.6405 -0.23261956 0.20713305)
(15.04688 0.046366151 -0.0041000745)
(15.107486 0.044383146 -0.012391551)
(15.193721 0.040839211 -0.02074997)
(15.304358 0.037246986 -0.028789122)
(15.43998 0.03434322 -0.035803399)
(15.597241 0.03242253 -0.041512288)
(15.771911 0.031534452 -0.045788536)
(15.958337 0.030499015 -0.048612794)
(16.1508 0.028857902 -0.049583908)
(16.342596 0.026122272 -0.048537617)
(16.52573 0.022761777 -0.045770884)
(16.694662 0.019779203 -0.042137899)
(16.844195 0.018620209 -0.036352168)
(16.968701 0.023491242 -0.030109867)
(17.056675 0.033865624 -0.023559381)
(17.090863 0.046273508 -0.0169552)
(17.059518 0.049482087 -0.010899692)
(16.961624 0.023036154 -0.0062720596)
(16.842971 -0.051323239 -0.0036613394)
(16.81094 -0.16680103 -0.0010993366)
(16.92687 -0.25025253 0.012916892)
(17.045806 -0.21584544 0.05531416)
(16.93347 -0.13998553 0.10026286)
(16.595662 -0.17346212 0.11837012)
(14.612023 0.033767781 0.00088222927)
(14.642524 0.030756023 0.00036511014)
(14.700664 0.02640309 -0.00021592604)
(14.787407 0.022646534 -0.00085991244)
(14.902659 0.020041909 -0.0013935687)
(15.04337 0.018610314 -0.0017269573)
(15.205104 0.017927959 -0.0018741372)
(15.382276 0.017302084 -0.0018298007)
(15.568914 0.016493929 -0.0016386145)
(15.758091 0.015053683 -0.0013744196)
(15.941646 0.013277995 -0.00095281559)
(16.112003 0.011433972 -0.00049331774)
(16.264235 0.011807187 -6.5345652e-06)
(16.392009 0.014986451 0.00028546087)
(16.484388 0.021371941 0.00027305673)
(16.531865 0.027274409 5.8065307e-05)
(16.53228 0.024453753 -6.9896714e-05)
(16.500144 7.9738766e-05 -2.0574368e-05)
(16.486172 -0.055150036 0.00014239212)
(16.577082 -0.1351415 0.00035375541)
(16.788553 -0.19224418 0.00058840394)
(16.952906 -0.17230932 0.0010412701)
(16.883494 -0.12082539 0.0012972141)
(16.612846 -0.14204231 0.00094780583)
(14.465021 0.02537363 0.0084027582)
(14.472233 0.022125288 0.016254216)
(14.509432 0.017847159 0.023972829)
(14.578416 0.014487563 0.031106363)
(14.677991 0.012460571 0.037381573)
(14.804145 0.011484499 0.042776328)
(14.953253 0.010943838 0.047099659)
(15.120624 0.010469303 0.05012485)
(15.299408 0.0099508388 0.051326383)
(15.482179 0.0091136097 0.050585646)
(15.661596 0.0080123655 0.048344474)
(15.830163 0.0070774029 0.044836821)
(15.982485 0.0073093025 0.039843412)
(16.112663 0.0094079179 0.03391773)
(16.21116 0.013231342 0.026917557)
(16.272307 0.015908317 0.019328392)
(16.299029 0.012340046 0.012944586)
(16.308436 -0.0048210012 0.009881076)
(16.347418 -0.040385142 0.011422121)
(16.487723 -0.089529881 0.014383547)
(16.726429 -0.12406225 0.0072399473)
(16.900264 -0.11041618 -0.028505182)
(16.851147 -0.082733009 -0.080160896)
(16.617102 -0.098508271 -0.10396314)
(14.38433 0.013927542 0.011367292)
(14.375568 0.01129751 0.027316776)
(14.399414 0.0081304123 0.043179895)
(14.45718 0.0060058225 0.057975179)
(14.54638 0.0050431035 0.071024653)
(14.662665 0.0046354979 0.082243079)
(14.802533 0.004243147 0.091554703)
(14.962718 0.0040873318 0.098414218)
(15.137168 0.0038522813 0.10123481)
(15.317367 0.0034132795 0.0999552)
(15.49618 0.002800533 0.095243397)
(15.667259 0.0024338981 0.087951938)
(15.824518 0.0028071207 0.078339571)
(15.96066 0.0041320424 0.066580872)
(16.067308 0.0061730567 0.053025671)
(16.14018 0.0073413307 0.038870945)
(16.184172 0.0051458365 0.027518545)
(16.217984 -0.0036852622 0.023299742)
(16.284909 -0.020776547 0.028764469)
(16.448309 -0.043558897 0.03777632)
(16.698248 -0.059323065 0.024076861)
(16.874335 -0.052524166 -0.047830105)
(16.82932 -0.039826623 -0.15295819)
(16.604779 -0.047890864 -0.20147537)
(14.347587 0.0014571265 0.012906014)
(14.329119 0.00051855847 0.036464081)
(14.344923 -0.00058042987 0.06004481)
(14.395106 -0.00090598592 0.082129397)
(14.476513 -0.00060592909 0.10190746)
(14.585621 -0.00020110602 0.11906261)
(14.719391 0.00010498689 0.13360823)
(14.875624 0.00026139058 0.1453322)
(15.048246 0.00024492695 0.15054754)
(15.228071 0.00033245188 0.14942853)
(15.408358 0.00043198021 0.14308466)
(15.583541 0.00083863825 0.13251839)
(15.746899 0.0014543035 0.11836783)
(15.889743 0.0020944858 0.10087346)
(16.004374 0.0025933398 0.08065423)
(16.086362 0.0025958125 0.059952622)
(16.140788 0.0019751079 0.043356781)
(16.187617 0.00077593922 0.037569903)
(16.26761 -0.00034645957 0.046678469)
(16.439979 -0.0010291218 0.061141843)
(16.693504 -0.0017626549 0.041122324)
(16.867724 -0.0029268606 -0.06603488)
(16.811921 -0.0032853639 -0.22757726)
(16.574132 -0.0023583678 -0.30352912)
(14.420868 -0.011445402 0.014239267)
(14.394073 -0.010258603 0.044924654)
(14.40074 -0.0088446714 0.075851349)
(14.441058 -0.0068034727 0.10509446)
(14.511892 -0.0043925449 0.13171834)
(14.610155 -0.0019866682 0.15542028)
(14.734021 0.00013124546 0.1763279)
(14.882691 0.0003493828 0.19258735)
(15.049303 -0.00067449392 0.19899732)
(15.22469 -0.0014273297 0.19777676)
(15.403048 -0.00091516187 0.18987566)
(15.578845 0.00018728499 0.17612216)
(15.745291 0.0010819141 0.15742421)
(15.894061 0.0011666189 0.13418871)
(16.017002 0.00019234206 0.10740921)
(16.10782 -0.0013103133 0.079907069)
(16.169169 -0.00052693146 0.057489805)
(16.218262 0.0063444364 0.048974951)
(16.293742 0.021255009 0.059645264)
(16.456032 0.040705963 0.076372471)
(16.700392 0.049780902 0.045249543)
(16.868213 0.030923695 -0.10506428)
(16.792607 0.0031880897 -0.33577517)
(16.52172 0.015743207 -0.43653437)
(14.580113 -0.032297224 0.016788878)
(14.525618 -0.030256039 0.054759933)
(14.506123 -0.027503664 0.092155216)
(14.523197 -0.024036603 0.12623986)
(14.574714 -0.021074359 0.15656454)
(14.656442 -0.019892355 0.18377678)
(14.767699 -0.021353638 0.20932746)
(14.910118 -0.025262556 0.23244606)
(15.075103 -0.023087537 0.24078548)
(15.253623 -0.02068675 0.24082919)
(15.44081 -0.017657028 0.23241242)
(15.631019 -0.01428111 0.21633283)
(15.817949 -0.011386824 0.19459952)
(15.993128 -0.01014534 0.16739142)
(16.146331 -0.011033233 0.13545701)
(16.266405 -0.01242763 0.10234509)
(16.34907 -0.0080317139 0.074345818)
(16.399805 0.010758395 0.060117924)
(16.449889 0.050321076 0.067849806)
(16.569873 0.10900884 0.089195271)
(16.780324 0.15804025 0.070640932)
(16.9364 0.15678764 -0.070081665)
(16.821369 0.13342024 -0.31349131)
(16.458141 0.15586868 -0.45242457)
(15.418995 0.058704758 -0.022388184)
(15.462925 0.054865018 -0.04653963)
(15.535432 0.04958433 -0.069989283)
(15.630953 0.044463739 -0.09231836)
(15.751268 0.039980361 -0.11210063)
(15.893777 0.036081269 -0.12836257)
(16.05391 0.032953986 -0.14049553)
(16.228058 0.029971181 -0.14918405)
(16.408301 0.025949957 -0.15284796)
(16.589622 0.021053586 -0.15089225)
(16.76466 0.015679529 -0.14409807)
(16.928692 0.010423826 -0.13311979)
(17.077438 0.0069171166 -0.11899439)
(17.214182 0.008924591 -0.10329257)
(17.32653 0.017803264 -0.08625883)
(17.390372 0.031543184 -0.067688606)
(17.397682 0.041502158 -0.049410869)
(17.327049 0.027186139 -0.033291332)
(17.204099 -0.035581683 -0.023155768)
(17.128149 -0.15058423 -0.024031845)
(17.169617 -0.24971608 -0.012668309)
(17.222445 -0.23900262 0.076758141)
(17.040123 -0.18658617 0.23792787)
(16.594699 -0.21849182 0.30097487)
(14.760454 0.037172844 -0.013896286)
(14.779718 0.034494347 -0.03027148)
(14.82538 0.030128395 -0.046440752)
(14.89789 0.025922038 -0.061595317)
(14.99798 0.022635788 -0.0748997)
(15.123734 0.020741609 -0.085850605)
(15.270885 0.020101789 -0.094371502)
(15.43526 0.019276372 -0.10007714)
(15.611737 0.017785516 -0.10190474)
(15.793542 0.015459349 -0.099921866)
(15.973368 0.012632996 -0.094644547)
(16.144974 0.0098636361 -0.086524667)
(16.302029 0.009367085 -0.076110873)
(16.437607 0.012296138 -0.063540932)
(16.541075 0.018618553 -0.05031228)
(16.600862 0.02529901 -0.036170682)
(16.612293 0.02422636 -0.023797652)
(16.584674 0.0023942345 -0.016156529)
(16.563549 -0.049381396 -0.014719329)
(16.633706 -0.12584571 -0.016758472)
(16.819528 -0.1771957 0.0027099563)
(16.966127 -0.14477123 0.084679244)
(16.881927 -0.087573973 0.19291254)
(16.591286 -0.11673549 0.23377546)
(14.470485 0.025784648 -0.007083391)
(14.477735 0.022673632 -0.016063894)
(14.514493 0.018305065 -0.024847427)
(14.582506 0.01461752 -0.032906493)
(14.68048 0.012283055 -0.03988341)
(14.805394 0.01115839 -0.045777976)
(14.953531 0.010610425 -0.050410464)
(15.119704 0.010157537 -0.053387602)
(15.297448 0.0096279121 -0.054195482)
(15.479383 0.0087507604 -0.052903078)
(15.658061 0.0076316114 -0.049825854)
(15.82634 0.0066464665 -0.045289695)
(15.978509 0.006872091 -0.039297369)
(16.108501 0.0089834454 -0.032863948)
(16.207398 0.012860928 -0.02600159)
(16.268702 0.015604415 -0.018937857)
(16.294895 0.01209984 -0.012923259)
(16.304068 -0.0050219089 -0.0098020456)
(16.343382 -0.040531706 -0.011036166)
(16.4842 -0.089538423 -0.013660542)
(16.723659 -0.1238492 -0.0062006563)
(16.898234 -0.10987648 0.030062521)
(16.849642 -0.082042908 0.082018883)
(16.616201 -0.098003789 0.10533803)
(14.383381 0.015374835 0.00050355612)
(14.380486 0.01297017 -0.00016935554)
(14.411059 0.0098039547 -0.00068451251)
(14.476627 0.0075230148 -0.00098557794)
(14.573647 0.0064489029 -0.001159302)
(14.697287 0.0061118702 -0.0013297212)
(14.844227 0.006007708 -0.0014855271)
(15.009254 0.0058486304 -0.0014505694)
(15.185053 0.0055150526 -0.0012165411)
(15.364056 0.0051681176 -0.00092300637)
(15.539055 0.0046723826 -0.00047443446)
(15.703485 0.0044671717 4.9835543e-05)
(15.85247 0.0049074584 0.000524828)
(15.979637 0.0062428712 0.0007991384)
(16.076737 0.0083694969 0.00071961673)
(16.139535 0.0092612521 0.00035852541)
(16.173433 0.0065714544 9.3412669e-05)
(16.198586 -0.0030537379 9.0722339e-05)
(16.2601 -0.021450583 0.00022794704)
(16.422306 -0.045825291 0.00035552147)
(16.673626 -0.062758227 0.00042869062)
(16.854855 -0.056578247 0.00051861431)
(16.827305 -0.044054138 0.00056303257)
(16.62601 -0.053794218 0.00039305707)
(14.353068 0.0022826884 0.0053543515)
(14.343915 0.0011986924 0.013060536)
(14.370998 -0.0002063868 0.020900131)
(14.434325 -0.00079849179 0.028335944)
(14.528867 -0.0006935141 0.034853732)
(14.650194 -0.00041429649 0.040394129)
(14.794748 -0.00019897284 0.044860324)
(14.95779 -0.00017349941 0.048111813)
(15.132717 -0.00019550707 0.049540084)
(15.311223 -0.00012890929 0.048915103)
(15.486358 1.8193549e-06 0.046621285)
(15.652144 0.00046021405 0.043022181)
(15.80342 0.0011210294 0.038340392)
(15.933274 0.0018626125 0.032737536)
(16.033096 0.002402004 0.025923006)
(16.099385 0.0025300048 0.018821175)
(16.138521 0.001937232 0.013334668)
(16.170933 0.00086548208 0.011681024)
(16.240681 -0.00015920913 0.01517001)
(16.409265 -0.00079347412 0.020365119)
(16.663151 -0.0015259021 0.013649257)
(16.844645 -0.0026941176 -0.022612734)
(16.818626 -0.0030207917 -0.074751433)
(16.621043 -0.0018790013 -0.097250169)
(14.380661 -0.010330953 0.010513259)
(14.369758 -0.0094818139 0.026547735)
(14.394889 -0.0086054459 0.042689923)
(14.45518 -0.0073456275 0.057780848)
(14.545218 -0.0059929923 0.071076244)
(14.661892 -0.0049284152 0.08246608)
(14.802197 -0.0040975347 0.091950679)
(14.962844 -0.0039238252 0.09895258)
(15.137509 -0.0037698268 0.1018266)
(15.316968 -0.0033202202 0.10055297)
(15.494665 -0.0024933652 0.095875112)
(15.664593 -0.0012668025 0.088489131)
(15.820688 -0.0002512257 0.078783079)
(15.95589 -0.00019447373 0.06699509)
(16.061625 -0.0011600648 0.053290186)
(16.133185 -0.0023673441 0.039173379)
(16.175575 -0.0013003658 0.027660771)
(16.208426 0.0053310343 0.02325445)
(16.275402 0.020303733 0.028583601)
(16.438888 0.041689898 0.037538987)
(16.68824 0.055966687 0.023848787)
(16.863979 0.046949367 -0.048027273)
(16.820761 0.033682101 -0.15332899)
(16.599889 0.043944419 -0.20188635)
(14.553285 -0.023358577 0.015065941)
(14.541183 -0.020932599 0.038839971)
(14.56255 -0.017800027 0.062921106)
(14.616897 -0.014119993 0.085889873)
(14.699872 -0.010881952 0.10632187)
(14.808291 -0.0091147541 0.12326669)
(14.939879 -0.0088769698 0.13648615)
(15.09353 -0.0092572147 0.14651799)
(15.263356 -0.0092054334 0.15045545)
(15.440418 -0.0082809627 0.14868182)
(15.618772 -0.006359808 0.14212249)
(15.792478 -0.0038337881 0.13132642)
(15.954503 -0.0021618271 0.11670705)
(16.097033 -0.0025757431 0.098860939)
(16.210939 -0.0051656195 0.078574938)
(16.288097 -0.008422022 0.057562354)
(16.328581 -0.0070371117 0.039731827)
(16.34755 0.0067391705 0.031456869)
(16.386581 0.037955182 0.035882806)
(16.514706 0.081415821 0.045294589)
(16.736517 0.10723713 0.019809044)
(16.896199 0.078042979 -0.097214445)
(16.825583 0.035056527 -0.27068677)
(16.560703 0.059313888 -0.33790911)
(14.927117 -0.048732143 0.020802833)
(14.908305 -0.045468438 0.052273416)
(14.924121 -0.040965991 0.083272561)
(14.973974 -0.035902512 0.1123394)
(15.053964 -0.031582242 0.13831536)
(15.161276 -0.029071765 0.16048324)
(15.291811 -0.028771236 0.17881924)
(15.445605 -0.0277543 0.19262367)
(15.618082 -0.024020294 0.19855893)
(15.80046 -0.019265353 0.1972544)
(15.986336 -0.014106528 0.18960158)
(16.16839 -0.0086840186 0.17591998)
(16.340089 -0.0047432028 0.15727855)
(16.502256 -0.0040175628 0.13528078)
(16.637167 -0.0074591327 0.10999689)
(16.731132 -0.013524547 0.083226448)
(16.778192 -0.014982273 0.059683591)
(16.774211 0.0023867318 0.044545436)
(16.748589 0.052187626 0.044621222)
(16.786796 0.13471584 0.056114984)
(16.930856 0.20271402 0.042044442)
(17.050914 0.18978603 -0.071553068)
(16.915 0.15312554 -0.28043843)
(16.525342 0.18816838 -0.37999558)
(14.959119 0.051387765 -0.022967001)
(14.946537 0.048006892 -0.054530555)
(14.96325 0.042714204 -0.085360167)
(15.00935 0.036807311 -0.11464541)
(15.08629 0.031841783 -0.14095665)
(15.193268 0.029011468 -0.16329)
(15.32495 0.028591807 -0.18152017)
(15.479266 0.027499204 -0.19506574)
(15.650307 0.023394864 -0.20015866)
(15.830325 0.018387672 -0.19786847)
(16.013163 0.013142264 -0.1892619)
(16.193062 0.0081209075 -0.17509153)
(16.365245 0.0050583635 -0.1565353)
(16.52965 0.0054316745 -0.13477378)
(16.668105 0.0096623588 -0.10985263)
(16.765781 0.015986598 -0.083391358)
(16.816267 0.016813687 -0.059737671)
(16.812339 -0.0015347409 -0.044316234)
(16.784587 -0.052658238 -0.044017782)
(16.819716 -0.13659223 -0.055000565)
(16.960297 -0.20587549 -0.040023977)
(17.076181 -0.1937422 0.074625025)
(16.932566 -0.15557173 0.28292505)
(16.533802 -0.18891828 0.38167637)
(14.571079 0.027088024 -0.015883706)
(14.561067 0.023868372 -0.040113305)
(14.578677 0.019002605 -0.064327289)
(14.626613 0.014059124 -0.087468621)
(14.704506 0.010564036 -0.10805106)
(14.809386 0.0090651492 -0.12518164)