/*--------------------------------*- C++ -*----------------------------------*\
| =========                 |                                                 |
| \\      /  F ield         | foam-extend: Open Source CFD                    |
|  \\    /   O peration     | Version:     4.1-20200408                       |
|   \\  /    A nd           | Web:         http://www.foam-extend.org         |
|    \\/     M anipulation  |                                                 |
\*---------------------------------------------------------------------------*/
FoamFile
{
    version     2.0;
    format      ascii;
    class       volVectorField;
    location    "0.0265000";
    object      DU_0;
}
// * * * * * * * * * * * * * * * * * * * * * * * * * * * * * * * * * * * * * //

dimensions      [0 1 0 0 0 0 0];

internalField   nonuniform List<vector> 
1952
(
(5.00032e-05 1.74978e-09 0)
(5.00031e-05 2.82848e-09 0)
(5.0003e-05 3.89311e-09 0)
(5.00029e-05 4.90414e-09 0)
(5.00028e-05 5.88834e-09 0)
(5.00026e-05 6.7581e-09 0)
(5.00025e-05 7.61922e-09 0)
(5.00023e-05 8.29816e-09 0)
(5.00021e-05 8.99696e-09 0)
(5.00018e-05 9.44232e-09 0)
(5.00015e-05 9.92829e-09 0)
(5.0001e-05 1.00848e-08 0)
(5.00004e-05 1.02591e-08 0)
(4.99993e-05 1.00259e-08 0)
(4.99976e-05 9.78835e-09 0)
(5.00032e-05 7.51024e-10 0)
(5.0004e-05 1.35914e-09 0)
(5.00039e-05 2.18996e-09 0)
(5.00039e-05 3.01908e-09 0)
(5.00037e-05 3.79354e-09 0)
(5.00036e-05 4.55034e-09 0)
(5.00033e-05 5.21409e-09 0)
(5.00032e-05 5.85417e-09 0)
(5.00028e-05 6.36538e-09 0)
(5.00026e-05 6.84602e-09 0)
(5.00021e-05 7.16071e-09 0)
(5.00017e-05 7.43258e-09 0)
(5.0001e-05 7.49835e-09 0)
(5.00003e-05 7.50588e-09 0)
(4.9999e-05 7.29244e-09 0)
(4.99973e-05 7.08355e-09 0)
(5.0004e-05 5.82719e-10 0)
(5.00045e-05 1.03051e-09 0)
(5.00044e-05 1.65788e-09 0)
(5.00043e-05 2.28419e-09 0)
(5.00041e-05 2.8626e-09 0)
(5.0004e-05 3.42574e-09 0)
(5.00037e-05 3.91108e-09 0)
(5.00035e-05 4.36993e-09 0)
(5.00031e-05 4.72579e-09 0)
(5.00028e-05 5.04101e-09 0)
(5.00023e-05 5.22926e-09 0)
(5.00018e-05 5.36386e-09 0)
(5.0001e-05 5.35097e-09 0)
(5.00002e-05 5.29621e-09 0)
(4.9999e-05 5.10773e-09 0)
(4.99976e-05 5.0108e-09 0)
(5.00045e-05 4.41792e-10 0)
(5.00048e-05 7.51665e-10 0)
(5.00046e-05 1.20708e-09 0)
(5.00046e-05 1.66088e-09 0)
(5.00043e-05 2.07384e-09 0)
(5.00042e-05 2.47381e-09 0)
(5.00038e-05 2.80868e-09 0)
(5.00036e-05 3.11972e-09 0)
(5.00032e-05 3.34712e-09 0)
(5.00028e-05 3.53796e-09 0)
(5.00022e-05 3.63107e-09 0)
(5.00017e-05 3.68168e-09 0)
(5.00009e-05 3.6302e-09 0)
(5.00001e-05 3.56262e-09 0)
(4.9999e-05 3.42087e-09 0)
(4.99978e-05 3.3777e-09 0)
(5.00048e-05 3.22263e-10 0)
(5.00048e-05 5.18401e-10 0)
(5.00047e-05 8.30139e-10 0)
(5.00046e-05 1.14005e-09 0)
(5.00043e-05 1.41543e-09 0)
(5.00042e-05 1.68095e-09 0)
(5.00038e-05 1.89217e-09 0)
(5.00035e-05 2.08528e-09 0)
(5.0003e-05 2.21059e-09 0)
(5.00027e-05 2.30924e-09 0)
(5.00021e-05 2.3333e-09 0)
(5.00015e-05 2.33182e-09 0)
(5.00007e-05 2.26103e-09 0)
(5e-05 2.19748e-09 0)
(4.9999e-05 2.09474e-09 0)
(4.9998e-05 2.09558e-09 0)
(5.00048e-05 2.22275e-10 0)
(5.00046e-05 3.25457e-10 0)
(5.00045e-05 5.18543e-10 0)
(5.00044e-05 7.10268e-10 0)
(5.00041e-05 8.73049e-10 0)
(5.0004e-05 1.02998e-09 0)
(5.00036e-05 1.14221e-09 0)
(5.00033e-05 1.24351e-09 0)
(5.00028e-05 1.29106e-09 0)
(5.00025e-05 1.32336e-09 0)
(5.00018e-05 1.30078e-09 0)
(5.00013e-05 1.26864e-09 0)
(5.00006e-05 1.19217e-09 0)
(4.99999e-05 1.1377e-09 0)
(4.99991e-05 1.06548e-09 0)
(4.99982e-05 1.08693e-09 0)
(5.00046e-05 1.39558e-10 0)
(5.00043e-05 1.67872e-10 0)
(5.00042e-05 2.64249e-10 0)
(5.00041e-05 3.60298e-10 0)
(5.00038e-05 4.32353e-10 0)
(5.00037e-05 5.03016e-10 0)
(5.00033e-05 5.37552e-10 0)
(5.0003e-05 5.68568e-10 0)
(5.00025e-05 5.58211e-10 0)
(5.00022e-05 5.43272e-10 0)
(5.00016e-05 4.8976e-10 0)
(5.00011e-05 4.39447e-10 0)
(5.00004e-05 3.63166e-10 0)
(4.99998e-05 3.17329e-10 0)
(4.99991e-05 2.6686e-10 0)
(4.99984e-05 2.98954e-10 0)
(5.00043e-05 7.19837e-11 0)
(5.00039e-05 4.09767e-11 0)
(5.00038e-05 5.96993e-11 0)
(5.00037e-05 7.949e-11 0)
(5.00034e-05 7.96701e-11 0)
(5.00033e-05 8.30116e-11 0)
(5.00029e-05 5.77719e-11 0)
(5.00027e-05 3.60339e-11 0)
(5.00022e-05 -1.6434e-11 0)
(5.00018e-05 -6.43458e-11 0)
(5.00012e-05 -1.37637e-10 0)
(5.00008e-05 -1.98458e-10 0)
(5.00002e-05 -2.71957e-10 0)
(4.99997e-05 -3.11524e-10 0)
(4.99991e-05 -3.47911e-10 0)
(4.99986e-05 -3.14338e-10 0)
(5.00039e-05 1.7554e-11 0)
(5.00034e-05 -5.99103e-11 0)
(5.00033e-05 -1.02728e-10 0)
(5.00032e-05 -1.42905e-10 0)
(5.0003e-05 -1.98862e-10 0)
(5.00028e-05 -2.47311e-10 0)
(5.00024e-05 -3.17838e-10 0)
(5.00022e-05 -3.78631e-10 0)
(5.00017e-05 -4.61256e-10 0)
(5.00015e-05 -5.31982e-10 0)
(5.00009e-05 -6.1774e-10 0)
(5.00006e-05 -6.84749e-10 0)
(5e-05 -7.55047e-10 0)
(4.99996e-05 -7.90946e-10 0)
(4.9999e-05 -8.19054e-10 0)
(4.99986e-05 -7.8899e-10 0)
(5.00034e-05 -2.57333e-11 0)
(5.00029e-05 -1.39095e-10 0)
(5.00028e-05 -2.30047e-10 0)
(5.00027e-05 -3.16749e-10 0)
(5.00024e-05 -4.15943e-10 0)
(5.00023e-05 -5.03673e-10 0)
(5.0002e-05 -6.07995e-10 0)
(5.00018e-05 -6.97293e-10 0)
(5.00013e-05 -8.01157e-10 0)
(5.00011e-05 -8.87491e-10 0)
(5.00006e-05 -9.8092e-10 0)
(5.00003e-05 -1.05168e-09 0)
(4.99998e-05 -1.11923e-09 0)
(4.99994e-05 -1.1538e-09 0)
(4.9999e-05 -1.17801e-09 0)
(4.99987e-05 -1.15486e-09 0)
(5.00029e-05 -5.97202e-11 0)
(5.00023e-05 -2.00722e-10 0)
(5.00022e-05 -3.29003e-10 0)
(5.00021e-05 -4.51485e-10 0)
(5.00019e-05 -5.83689e-10 0)
(5.00018e-05 -7.00945e-10 0)
(5.00014e-05 -8.30257e-10 0)
(5.00013e-05 -9.40192e-10 0)
(5.00009e-05 -1.05888e-09 0)
(5.00007e-05 -1.15586e-09 0)
(5.00002e-05 -1.25398e-09 0)
(5e-05 -1.32718e-09 0)
(4.99995e-05 -1.39279e-09 0)
(4.99993e-05 -1.42778e-09 0)
(4.99989e-05 -1.45111e-09 0)
(4.99987e-05 -1.43652e-09 0)
(5.00023e-05 -8.61804e-11 0)
(5.00017e-05 -2.48453e-10 0)
(5.00016e-05 -4.05547e-10 0)
(5.00015e-05 -5.55405e-10 0)
(5.00013e-05 -7.12692e-10 0)
(5.00012e-05 -8.52041e-10 0)
(5.00009e-05 -9.99732e-10 0)
(5.00008e-05 -1.12457e-09 0)
(5.00004e-05 -1.25354e-09 0)
(5.00003e-05 -1.35782e-09 0)
(4.99999e-05 -1.45877e-09 0)
(4.99997e-05 -1.53375e-09 0)
(4.99993e-05 -1.5982e-09 0)
(4.99991e-05 -1.6348e-09 0)
(4.99988e-05 -1.65918e-09 0)
(4.99986e-05 -1.65379e-09 0)
(5.00017e-05 -1.06681e-10 0)
(5.00011e-05 -2.85665e-10 0)
(5.0001e-05 -4.65158e-10 0)
(5.00009e-05 -6.36106e-10 0)
(5.00007e-05 -8.12605e-10 0)
(5.00007e-05 -9.68625e-10 0)
(5.00004e-05 -1.12996e-09 0)
(5.00003e-05 -1.26568e-09 0)
(5e-05 -1.40188e-09 0)
(4.99999e-05 -1.51126e-09 0)
(4.99995e-05 -1.614e-09 0)
(4.99994e-05 -1.69037e-09 0)
(4.9999e-05 -1.75432e-09 0)
(4.99989e-05 -1.79313e-09 0)
(4.99986e-05 -1.81965e-09 0)
(4.99985e-05 -1.8232e-09 0)
(5.00011e-05 -1.22671e-10 0)
(5.00004e-05 -3.15212e-10 0)
(5.00003e-05 -5.12457e-10 0)
(5.00003e-05 -6.99973e-10 0)
(5.00001e-05 -8.91507e-10 0)
(5.00001e-05 -1.06041e-09 0)
(4.99999e-05 -1.23213e-09 0)
(4.99998e-05 -1.37608e-09 0)
(4.99995e-05 -1.5175e-09 0)
(4.99995e-05 -1.63063e-09 0)
(4.99991e-05 -1.73455e-09 0)
(4.99991e-05 -1.81212e-09 0)
(4.99988e-05 -1.87597e-09 0)
(4.99987e-05 -1.91715e-09 0)
(4.99985e-05 -1.94618e-09 0)
(4.99984e-05 -1.95783e-09 0)
(5.00004e-05 -1.35371e-10 0)
(4.99998e-05 -3.39641e-10 0)
(4.99997e-05 -5.51556e-10 0)
(4.99997e-05 -7.52667e-10 0)
(4.99995e-05 -9.56521e-10 0)
(4.99996e-05 -1.13592e-09 0)
(4.99993e-05 -1.31597e-09 0)
(4.99993e-05 -1.46655e-09 0)
(4.99991e-05 -1.61204e-09 0)
(4.99991e-05 -1.72818e-09 0)
(4.99988e-05 -1.83301e-09 0)
(4.99988e-05 -1.91158e-09 0)
(4.99985e-05 -1.97553e-09 0)
(4.99985e-05 -2.01879e-09 0)
(4.99983e-05 -2.05014e-09 0)
(4.99982e-05 -2.06857e-09 0)
(4.99998e-05 -1.45874e-10 0)
(4.99991e-05 -3.60996e-10 0)
(4.9999e-05 -5.85759e-10 0)
(4.99991e-05 -7.98721e-10 0)
(4.99989e-05 -1.01334e-09 0)
(4.9999e-05 -1.20192e-09 0)
(4.99988e-05 -1.38921e-09 0)
(4.99988e-05 -1.54565e-09 0)
(4.99986e-05 -1.69466e-09 0)
(4.99987e-05 -1.81348e-09 0)
(4.99984e-05 -1.91912e-09 0)
(4.99984e-05 -1.99851e-09 0)
(4.99982e-05 -2.06251e-09 0)
(4.99982e-05 -2.10723e-09 0)
(4.99981e-05 -2.1403e-09 0)
(4.99981e-05 -2.16382e-09 0)
(4.99991e-05 -1.55058e-10 0)
(4.99984e-05 -3.81042e-10 0)
(4.99984e-05 -6.179e-10 0)
(4.99984e-05 -8.42032e-10 0)
(4.99983e-05 -1.06683e-09 0)
(4.99984e-05 -1.26419e-09 0)
(4.99982e-05 -1.45835e-09 0)
(4.99983e-05 -1.62056e-09 0)
(4.99981e-05 -1.77298e-09 0)
(4.99982e-05 -1.89449e-09 0)
(4.9998e-05 -2.00094e-09 0)
(4.99981e-05 -2.08092e-09 0)
(4.99979e-05 -2.14472e-09 0)
(4.9998e-05 -2.18999e-09 0)
(4.99979e-05 -2.22379e-09 0)
(4.99979e-05 -2.2504e-09 0)
(4.99984e-05 -1.63679e-10 0)
(4.99977e-05 -4.01086e-10 0)
(4.99977e-05 -6.50098e-10 0)
(4.99978e-05 -8.85486e-10 0)
(4.99977e-05 -1.1206e-09 0)
(4.99978e-05 -1.32701e-09 0)
(4.99977e-05 -1.52828e-09 0)
(4.99978e-05 -1.69661e-09 0)
(4.99977e-05 -1.85271e-09 0)
(4.99978e-05 -1.97711e-09 0)
(4.99977e-05 -2.08448e-09 0)
(4.99978e-05 -2.16474e-09 0)
(4.99976e-05 -2.22796e-09 0)
(4.99977e-05 -2.2726e-09 0)
(4.99976e-05 -2.30587e-09 0)
(4.99977e-05 -2.33332e-09 0)
(4.99977e-05 -1.72299e-10 0)
(4.9997e-05 -4.22172e-10 0)
(4.9997e-05 -6.84016e-10 0)
(4.99971e-05 -9.3139e-10 0)
(4.9997e-05 -1.17748e-09 0)
(4.99972e-05 -1.39381e-09 0)
(4.99971e-05 -1.60275e-09 0)
(4.99973e-05 -1.77803e-09 0)
(4.99972e-05 -1.9382e-09 0)
(4.99974e-05 -2.06595e-09 0)
(4.99973e-05 -2.17431e-09 0)
(4.99975e-05 -2.25454e-09 0)
(4.99973e-05 -2.3166e-09 0)
(4.99975e-05 -2.35923e-09 0)
(4.99974e-05 -2.39046e-09 0)
(4.99974e-05 -2.41623e-09 0)
(4.9997e-05 -1.81365e-10 0)
(4.99963e-05 -4.4492e-10 0)
(4.99963e-05 -7.20676e-10 0)
(4.99964e-05 -9.81127e-10 0)
(4.99964e-05 -1.23925e-09 0)
(4.99966e-05 -1.46663e-09 0)
(4.99965e-05 -1.68419e-09 0)
(4.99968e-05 -1.8674e-09 0)
(4.99967e-05 -2.03236e-09 0)
(4.9997e-05 -2.16391e-09 0)
(4.99969e-05 -2.27348e-09 0)
(4.99971e-05 -2.35325e-09 0)
(4.99971e-05 -2.41354e-09 0)
(4.99972e-05 -2.45257e-09 0)
(4.99972e-05 -2.48008e-09 0)
(4.99972e-05 -2.50142e-09 0)
(4.99963e-05 -1.91146e-10 0)
(4.99955e-05 -4.69637e-10 0)
(4.99955e-05 -7.60557e-10 0)
(4.99957e-05 -1.03541e-09 0)
(4.99957e-05 -1.30674e-09 0)
(4.99959e-05 -1.54661e-09 0)
(4.99959e-05 -1.77373e-09 0)
(4.99962e-05 -1.96616e-09 0)
(4.99962e-05 -2.13652e-09 0)
(4.99965e-05 -2.27259e-09 0)
(4.99965e-05 -2.38342e-09 0)
(4.99968e-05 -2.46239e-09 0)
(4.99968e-05 -2.52011e-09 0)
(4.9997e-05 -2.55384e-09 0)
(4.99969e-05 -2.57574e-09 0)
(4.9997e-05 -2.58965e-09 0)
(4.99955e-05 -2.01771e-10 0)
(4.99947e-05 -4.96212e-10 0)
(4.99947e-05 -8.03507e-10 0)
(4.99949e-05 -1.09405e-09 0)
(4.99949e-05 -1.37975e-09 0)
(4.99952e-05 -1.63354e-09 0)
(4.99953e-05 -1.87129e-09 0)
(4.99956e-05 -2.0742e-09 0)
(4.99957e-05 -2.25076e-09 0)
(4.99961e-05 -2.39197e-09 0)
(4.99961e-05 -2.50432e-09 0)
(4.99965e-05 -2.582e-09 0)
(4.99965e-05 -2.63645e-09 0)
(4.99967e-05 -2.66298e-09 0)
(4.99967e-05 -2.67729e-09 0)
(4.99968e-05 -2.68054e-09 0)
(4.99946e-05 -2.13194e-10 0)
(4.99938e-05 -5.24068e-10 0)
(4.99939e-05 -8.486e-10 0)
(4.99941e-05 -1.15584e-09 0)
(4.99941e-05 -1.45678e-09 0)
(4.99945e-05 -1.72582e-09 0)
(4.99946e-05 -1.97496e-09 0)
(4.9995e-05 -2.1897e-09 0)
(4.99951e-05 -2.37305e-09 0)
(4.99956e-05 -2.52021e-09 0)
(4.99957e-05 -2.63416e-09 0)
(4.99961e-05 -2.7102e-09 0)
(4.99962e-05 -2.76055e-09 0)
(4.99965e-05 -2.77795e-09 0)
(4.99965e-05 -2.78257e-09 0)
(4.99967e-05 -2.77166e-09 0)
(4.99938e-05 -2.25168e-10 0)
(4.99929e-05 -5.52154e-10 0)
(4.9993e-05 -8.9417e-10 0)
(4.99932e-05 -1.2186e-09 0)
(4.99933e-05 -1.53513e-09 0)
(4.99937e-05 -1.82039e-09 0)
(4.99939e-05 -2.08145e-09 0)
(4.99944e-05 -2.30918e-09 0)
(4.99945e-05 -2.49987e-09 0)
(4.99951e-05 -2.65371e-09 0)
(4.99953e-05 -2.7695e-09 0)
(4.99958e-05 -2.84352e-09 0)
(4.99959e-05 -2.88907e-09 0)
(4.99963e-05 -2.89534e-09 0)
(4.99964e-05 -2.88813e-09 0)
(4.99965e-05 -2.8593e-09 0)
(4.99928e-05 -2.3724e-10 0)
(4.99919e-05 -5.78678e-10 0)
(4.9992e-05 -9.37365e-10 0)
(4.99923e-05 -1.27851e-09 0)
(4.99924e-05 -1.61011e-09 0)
(4.99929e-05 -1.91193e-09 0)
(4.99931e-05 -2.18481e-09 0)
(4.99937e-05 -2.4264e-09 0)
(4.99939e-05 -2.6247e-09 0)
(4.99946e-05 -2.78596e-09 0)
(4.99948e-05 -2.90376e-09 0)
(4.99954e-05 -2.97551e-09 0)
(4.99956e-05 -3.01566e-09 0)
(4.99961e-05 -3.00879e-09 0)
(4.99962e-05 -2.98766e-09 0)
(4.99964e-05 -2.93692e-09 0)
(4.99918e-05 -2.48645e-10 0)
(4.99908e-05 -6.01223e-10 0)
(4.99909e-05 -9.74314e-10 0)
(4.99913e-05 -1.33044e-09 0)
(4.99915e-05 -1.67534e-09 0)
(4.9992e-05 -1.99322e-09 0)
(4.99923e-05 -2.277e-09 0)
(4.9993e-05 -2.53295e-09 0)
(4.99933e-05 -2.73872e-09 0)
(4.9994e-05 -2.90816e-09 0)
(4.99944e-05 -3.02814e-09 0)
(4.99951e-05 -3.09756e-09 0)
(4.99954e-05 -3.13186e-09 0)
(4.99959e-05 -3.10999e-09 0)
(4.99961e-05 -3.07291e-09 0)
(4.99964e-05 -2.99606e-09 0)
(4.99907e-05 -2.5834e-10 0)
(4.99896e-05 -6.16218e-10 0)
(4.99898e-05 -9.99341e-10 0)
(4.99902e-05 -1.36674e-09 0)
(4.99904e-05 -1.72146e-09 0)
(4.9991e-05 -2.05343e-09 0)
(4.99914e-05 -2.34609e-09 0)
(4.99922e-05 -2.61606e-09 0)
(4.99926e-05 -2.82878e-09 0)
(4.99935e-05 -3.0069e-09 0)
(4.99939e-05 -3.12936e-09 0)
(4.99947e-05 -3.19653e-09 0)
(4.99951e-05 -3.22495e-09 0)
(4.99958e-05 -3.18637e-09 0)
(4.99961e-05 -3.13163e-09 0)
(4.99964e-05 -3.02433e-09 0)
(4.99896e-05 -2.64797e-10 0)
(4.99884e-05 -6.19178e-10 0)
(4.99886e-05 -1.00524e-09 0)
(4.9989e-05 -1.37783e-09 0)
(4.99893e-05 -1.73652e-09 0)
(4.999e-05 -2.07899e-09 0)
(4.99904e-05 -2.3768e-09 0)
(4.99913e-05 -2.65971e-09 0)
(4.99918e-05 -2.87793e-09 0)
(4.99929e-05 -3.06529e-09 0)
(4.99934e-05 -3.19035e-09 0)
(4.99944e-05 -3.25585e-09 0)
(4.99949e-05 -3.27864e-09 0)
(4.99957e-05 -3.22211e-09 0)
(4.99961e-05 -3.14832e-09 0)
(4.99965e-05 -3.00618e-09 0)
(4.99883e-05 -2.66085e-10 0)
(4.99871e-05 -6.03903e-10 0)
(4.99873e-05 -9.82134e-10 0)
(4.99878e-05 -1.35037e-09 0)
(4.99881e-05 -1.70417e-09 0)
(4.99889e-05 -2.05086e-09 0)
(4.99894e-05 -2.3482e-09 0)
(4.99904e-05 -2.64136e-09 0)
(4.99911e-05 -2.86291e-09 0)
(4.99922e-05 -3.05956e-09 0)
(4.99929e-05 -3.18759e-09 0)
(4.9994e-05 -3.2523e-09 0)
(4.99947e-05 -3.27051e-09 0)
(4.99957e-05 -3.19531e-09 0)
(4.99962e-05 -3.10181e-09 0)
(4.99967e-05 -2.92054e-09 0)
(4.9987e-05 -2.59546e-10 0)
(4.99857e-05 -5.62815e-10 0)
(4.9986e-05 -9.17844e-10 0)
(4.99865e-05 -1.26804e-09 0)
(4.99869e-05 -1.60408e-09 0)
(4.99878e-05 -1.94575e-09 0)
(4.99883e-05 -2.23408e-09 0)
(4.99895e-05 -2.53327e-09 0)
(4.99902e-05 -2.75438e-09 0)
(4.99915e-05 -2.96028e-09 0)
(4.99924e-05 -3.09134e-09 0)
(4.99937e-05 -3.157e-09 0)
(4.99945e-05 -3.1723e-09 0)
(4.99957e-05 -3.07871e-09 0)
(4.99963e-05 -2.96567e-09 0)
(4.9997e-05 -2.74131e-09 0)
(4.99856e-05 -2.41922e-10 0)
(4.99843e-05 -4.8595e-10 0)
(4.99846e-05 -7.9644e-10 0)
(4.99852e-05 -1.10928e-09 0)
(4.99856e-05 -1.40969e-09 0)
(4.99866e-05 -1.73265e-09 0)
(4.99872e-05 -2.0001e-09 0)
(4.99885e-05 -2.29837e-09 0)
(4.99893e-05 -2.51382e-09 0)
(4.99908e-05 -2.72809e-09 0)
(4.99918e-05 -2.86246e-09 0)
(4.99933e-05 -2.93147e-09 0)
(4.99944e-05 -2.94684e-09 0)
(4.99957e-05 -2.83633e-09 0)
(4.99966e-05 -2.70536e-09 0)
(4.99974e-05 -2.43456e-09 0)
(4.99842e-05 -2.08936e-10 0)
(4.99829e-05 -3.61316e-10 0)
(4.99832e-05 -5.98631e-10 0)
(4.99838e-05 -8.48075e-10 0)
(4.99843e-05 -1.08861e-09 0)
(4.99853e-05 -1.37403e-09 0)
(4.9986e-05 -1.60401e-09 0)
(4.99874e-05 -1.89149e-09 0)
(4.99884e-05 -2.09344e-09 0)
(4.999e-05 -2.31466e-09 0)
(4.99912e-05 -2.45218e-09 0)
(4.9993e-05 -2.52824e-09 0)
(4.99942e-05 -2.54786e-09 0)
(4.99958e-05 -2.4238e-09 0)
(4.99969e-05 -2.27824e-09 0)
(4.9998e-05 -1.95867e-09 0)
(4.99828e-05 -1.55435e-10 0)
(4.99816e-05 -1.73847e-10 0)
(4.99818e-05 -3.00231e-10 0)
(4.99825e-05 -4.51561e-10 0)
(4.99829e-05 -6.00084e-10 0)
(4.99841e-05 -8.22098e-10 0)
(4.99848e-05 -9.92394e-10 0)
(4.99863e-05 -1.25469e-09 0)
(4.99874e-05 -1.43241e-09 0)
(4.99892e-05 -1.65772e-09 0)
(4.99906e-05 -1.79804e-09 0)
(4.99926e-05 -1.88606e-09 0)
(4.99941e-05 -1.91605e-09 0)
(4.9996e-05 -1.78414e-09 0)
(4.99974e-05 -1.62991e-09 0)
(4.99987e-05 -1.26077e-09 0)
(4.99814e-05 -7.4951e-11 0)
(4.99803e-05 9.42713e-11 0)
(4.99805e-05 1.27479e-10 0)
(4.99812e-05 1.19304e-10 0)
(4.99817e-05 1.0465e-10 0)
(4.99828e-05 -1.96542e-11 0)
(4.99836e-05 -1.00629e-10 0)
(4.99852e-05 -3.17976e-10 0)
(4.99864e-05 -4.56412e-10 0)
(4.99884e-05 -6.81298e-10 0)
(4.999e-05 -8.23202e-10 0)
(4.99922e-05 -9.29854e-10 0)
(4.9994e-05 -9.78395e-10 0)
(4.99962e-05 -8.47664e-10 0)
(4.99979e-05 -6.93949e-10 0)
(4.99997e-05 -2.76724e-10 0)
(4.99802e-05 4.01687e-11 0)
(4.99792e-05 4.64355e-10 0)
(4.99794e-05 7.18896e-10 0)
(4.99801e-05 9.11575e-10 0)
(4.99805e-05 1.08445e-09 0)
(4.99817e-05 1.10298e-09 0)
(4.99825e-05 1.15017e-09 0)
(4.99841e-05 1.00504e-09 0)
(4.99854e-05 9.26537e-10 0)
(4.99875e-05 7.09474e-10 0)
(4.99893e-05 5.68568e-10 0)
(4.99918e-05 4.34908e-10 0)
(4.99939e-05 3.57147e-10 0)
(4.99965e-05 4.73468e-10 0)
(4.99986e-05 6.13163e-10 0)
(5.00008e-05 1.07385e-09 0)
(4.99791e-05 1.99076e-10 0)
(4.99785e-05 9.60897e-10 0)
(4.99786e-05 1.51369e-09 0)
(4.99793e-05 1.97977e-09 0)
(4.99796e-05 2.40793e-09 0)
(4.99807e-05 2.62756e-09 0)
(4.99815e-05 2.85336e-09 0)
(4.99831e-05 2.81731e-09 0)
(4.99845e-05 2.82699e-09 0)
(4.99866e-05 2.62936e-09 0)
(4.99887e-05 2.49444e-09 0)
(4.99914e-05 2.32358e-09 0)
(4.99939e-05 2.20311e-09 0)
(4.99969e-05 2.28626e-09 0)
(4.99994e-05 2.39274e-09 0)
(5.00021e-05 2.88783e-09 0)
(4.99784e-05 4.12286e-10 0)
(4.99782e-05 1.61148e-09 0)
(4.99782e-05 2.55668e-09 0)
(4.99788e-05 3.38592e-09 0)
(4.9979e-05 4.15377e-09 0)
(4.998e-05 4.64881e-09 0)
(4.99806e-05 5.11818e-09 0)
(4.99822e-05 5.24077e-09 0)
(4.99836e-05 5.37743e-09 0)
(4.99858e-05 5.21745e-09 0)
(4.9988e-05 5.09795e-09 0)
(4.99909e-05 4.87855e-09 0)
(4.99938e-05 4.69944e-09 0)
(4.99973e-05 4.72384e-09 0)
(5.00004e-05 4.7709e-09 0)
(5.00037e-05 5.28538e-09 0)
(4.99781e-05 6.91636e-10 0)
(4.99786e-05 2.44607e-09 0)
(4.99784e-05 3.89683e-09 0)
(4.99789e-05 5.19845e-09 0)
(4.99789e-05 6.40944e-09 0)
(4.99797e-05 7.27356e-09 0)
(4.99801e-05 8.0693e-09 0)
(4.99815e-05 8.41683e-09 0)
(4.99828e-05 8.73339e-09 0)
(4.9985e-05 8.63954e-09 0)
(4.99873e-05 8.55208e-09 0)
(4.99904e-05 8.27313e-09 0)
(4.99937e-05 8.0175e-09 0)
(4.99977e-05 7.94926e-09 0)
(5.00014e-05 7.90185e-09 0)
(5.00055e-05 8.41259e-09 0)
(4.99785e-05 1.04998e-09 0)
(4.99798e-05 3.4954e-09 0)
(4.99795e-05 5.58475e-09 0)
(4.99798e-05 7.48889e-09 0)
(4.99794e-05 9.26787e-09 0)
(4.998e-05 1.06171e-08 0)
(4.99801e-05 1.18441e-08 0)
(4.99812e-05 1.25043e-08 0)
(4.99823e-05 1.30734e-08 0)
(4.99843e-05 1.30897e-08 0)
(4.99866e-05 1.30633e-08 0)
(4.99899e-05 1.27172e-08 0)
(4.99935e-05 1.23678e-08 0)
(4.99981e-05 1.21637e-08 0)
(5.00026e-05 1.19766e-08 0)
(5.00075e-05 1.24495e-08 0)
(4.99798e-05 1.5005e-09 0)
(4.99822e-05 4.78887e-09 0)
(4.99817e-05 7.66932e-09 0)
(4.99817e-05 1.03278e-08 0)
(4.9981e-05 1.28224e-08 0)
(4.99811e-05 1.47988e-08 0)
(4.99808e-05 1.6588e-08 0)
(4.99814e-05 1.76769e-08 0)
(4.99821e-05 1.85976e-08 0)
(4.99838e-05 1.87919e-08 0)
(4.9986e-05 1.88752e-08 0)
(4.99893e-05 1.84642e-08 0)
(4.99933e-05 1.80083e-08 0)
(4.99984e-05 1.76147e-08 0)
(5.00037e-05 1.72302e-08 0)
(5.00098e-05 1.76153e-08 0)
(4.99823e-05 2.05576e-09 0)
(4.99862e-05 6.35057e-09 0)
(4.99853e-05 1.01916e-08 0)
(4.99849e-05 1.37763e-08 0)
(4.99837e-05 1.71571e-08 0)
(4.99833e-05 1.99305e-08 0)
(4.99823e-05 2.24438e-08 0)
(4.99824e-05 2.41121e-08 0)
(4.99824e-05 2.55194e-08 0)
(4.99836e-05 2.59948e-08 0)
(4.99855e-05 2.62686e-08 0)
(4.99887e-05 2.58151e-08 0)
(4.99929e-05 2.52538e-08 0)
(4.99986e-05 2.46086e-08 0)
(5.00049e-05 2.39554e-08 0)
(5.00123e-05 2.41792e-08 0)
(4.99863e-05 2.72607e-09 0)
(4.99919e-05 8.19429e-09 0)
(4.99907e-05 1.31764e-08 0)
(4.99899e-05 1.78753e-08 0)
(4.9988e-05 2.23333e-08 0)
(4.99869e-05 2.61021e-08 0)
(4.99851e-05 2.95353e-08 0)
(4.99843e-05 3.19772e-08 0)
(4.99835e-05 3.40539e-08 0)
(4.99839e-05 3.49656e-08 0)
(4.99852e-05 3.55617e-08 0)
(4.99881e-05 3.51303e-08 0)
(4.99924e-05 3.44986e-08 0)
(4.99985e-05 3.35433e-08 0)
(5.00059e-05 3.25453e-08 0)
(5.00148e-05 3.25071e-08 0)
(4.99921e-05 3.51724e-09 0)
(5e-05 1.03167e-08 0)
(4.99983e-05 1.66218e-08 0)
(4.9997e-05 2.26298e-08 0)
(4.99943e-05 2.83697e-08 0)
(4.99923e-05 3.33573e-08 0)
(4.99895e-05 3.7941e-08 0)
(4.99876e-05 4.14e-08 0)
(4.99856e-05 4.43877e-08 0)
(4.9985e-05 4.59629e-08 0)
(4.99853e-05 4.70897e-08 0)
(4.99875e-05 4.68193e-08 0)
(4.99916e-05 4.62196e-08 0)
(4.99981e-05 4.49284e-08 0)
(5.00066e-05 4.35356e-08 0)
(5.00174e-05 4.31104e-08 0)
(5.00003e-05 4.42773e-09 0)
(5.00107e-05 1.26885e-08 0)
(5.00085e-05 2.04839e-08 0)
(5.00066e-05 2.79887e-08 0)
(5.0003e-05 3.52164e-08 0)
(5e-05 4.16614e-08 0)
(4.99959e-05 4.76558e-08 0)
(4.99926e-05 5.24263e-08 0)
(4.99892e-05 5.66357e-08 0)
(4.99871e-05 5.91933e-08 0)
(4.99861e-05 6.11635e-08 0)
(4.99872e-05 6.13041e-08 0)
(4.99907e-05 6.09402e-08 0)
(4.99972e-05 5.93466e-08 0)
(5.00069e-05 5.75486e-08 0)
(5.00198e-05 5.65531e-08 0)
(5.00111e-05 5.44482e-09 0)
(5.00245e-05 1.52457e-08 0)
(5.00217e-05 2.46624e-08 0)
(5.00192e-05 3.38226e-08 0)
(5.00146e-05 4.27244e-08 0)
(5.00104e-05 5.08631e-08 0)
(5.00049e-05 5.85434e-08 0)
(5e-05 6.49648e-08 0)
(4.99947e-05 7.07794e-08 0)
(4.99908e-05 7.47522e-08 0)
(4.99879e-05 7.80214e-08 0)
(4.99873e-05 7.89911e-08 0)
(4.99896e-05 7.9219e-08 0)
(4.99957e-05 7.74465e-08 0)
(5.00064e-05 7.52086e-08 0)
(5.00218e-05 7.32462e-08 0)
(5.00251e-05 6.54091e-09 0)
(5.00416e-05 1.788e-08 0)
(5.00384e-05 2.89841e-08 0)
(5.0035e-05 3.98988e-08 0)
(5.00295e-05 5.06104e-08 0)
(5.0024e-05 6.06439e-08 0)
(5.00169e-05 7.02718e-08 0)
(5.00103e-05 7.87061e-08 0)
(5.00029e-05 8.65753e-08 0)
(4.99967e-05 9.25338e-08 0)
(4.99913e-05 9.77757e-08 0)
(4.99884e-05 1.00313e-07 0)
(4.99887e-05 1.01891e-07 0)
(4.99935e-05 1.00488e-07 0)
(5.00047e-05 9.80289e-08 0)
(5.00228e-05 9.46166e-08 0)
(5.00424e-05 7.66935e-09 0)
(5.00624e-05 2.04324e-08 0)
(5.00586e-05 3.31909e-08 0)
(5.00545e-05 4.58618e-08 0)
(5.0048e-05 5.84247e-08 0)
(5.00413e-05 7.04699e-08 0)
(5.00326e-05 8.22354e-08 0)
(5.0024e-05 9.30052e-08 0)
(5.00144e-05 1.03383e-07 0)
(5.00057e-05 1.11998e-07 0)
(4.99974e-05 1.20128e-07 0)
(4.99913e-05 1.25463e-07 0)
(4.99885e-05 1.30019e-07 0)
(4.99907e-05 1.30894e-07 0)
(5.0001e-05 1.30308e-07 0)
(5.00219e-05 1.26921e-07 0)
(5.00633e-05 8.76194e-09 0)
(5.00867e-05 2.26938e-08 0)
(5.00824e-05 3.69396e-08 0)
(5.00777e-05 5.12284e-08 0)
(5.00703e-05 6.55387e-08 0)
(5.00624e-05 7.95597e-08 0)
(5.00522e-05 9.34921e-08 0)
(5.00418e-05 1.06756e-07 0)
(5.003e-05 1.19928e-07 0)
(5.00187e-05 1.31731e-07 0)
(5.00074e-05 1.43577e-07 0)
(4.99981e-05 1.53045e-07 0)
(4.99916e-05 1.62704e-07 0)
(4.99901e-05 1.69068e-07 0)
(4.99973e-05 1.75359e-07 0)
(5.00184e-05 1.7823e-07 0)
(5.00877e-05 9.72901e-09 0)
(5.01143e-05 2.44146e-08 0)
(5.01097e-05 3.98179e-08 0)
(5.01045e-05 5.54114e-08 0)
(5.00962e-05 7.11746e-08 0)
(5.00873e-05 8.69208e-08 0)
(5.00758e-05 1.02798e-07 0)
(5.00638e-05 1.18411e-07 0)
(5.005e-05 1.34264e-07 0)
(5.00365e-05 1.49257e-07 0)
(5.00224e-05 1.6487e-07 0)
(5.00101e-05 1.78682e-07 0)
(5.00002e-05 1.93847e-07 0)
(4.99952e-05 2.06511e-07 0)
(4.99983e-05 2.21536e-07 0)
(5.00143e-05 2.3403e-07 0)
(5.01155e-05 1.04639e-08 0)
(5.01448e-05 2.53249e-08 0)
(5.01399e-05 4.13785e-08 0)
(5.01342e-05 5.77716e-08 0)
(5.01254e-05 7.44835e-08 0)
(5.01156e-05 9.14658e-08 0)
(5.0103e-05 1.08789e-07 0)
(5.00897e-05 1.26271e-07 0)
(5.00741e-05 1.44257e-07 0)
(5.00584e-05 1.61858e-07 0)
(5.00416e-05 1.80393e-07 0)
(5.00262e-05 1.97364e-07 0)
(5.00126e-05 2.15978e-07 0)
(5.00034e-05 2.31539e-07 0)
(5.00009e-05 2.49197e-07 0)
(5.00084e-05 2.62158e-07 0)
(5.0146e-05 1.0851e-08 0)
(5.01772e-05 2.51586e-08 0)
(5.01721e-05 4.11818e-08 0)
(5.01662e-05 5.76821e-08 0)
(5.01569e-05 7.4639e-08 0)
(5.01465e-05 9.21485e-08 0)
(5.01331e-05 1.10185e-07 0)
(5.01186e-05 1.28809e-07 0)
(5.01014e-05 1.48134e-07 0)
(5.00836e-05 1.67566e-07 0)
(5.0064e-05 1.88087e-07 0)
(5.0045e-05 2.07228e-07 0)
(5.00266e-05 2.28045e-07 0)
(5.00113e-05 2.45028e-07 0)
(5.0001e-05 2.63584e-07 0)
(4.99987e-05 2.75643e-07 0)
(5.01785e-05 1.07767e-08 0)
(5.02104e-05 2.3674e-08 0)
(5.02053e-05 3.88281e-08 0)
(5.01992e-05 5.45718e-08 0)
(5.01898e-05 7.08866e-08 0)
(5.01789e-05 8.8013e-08 0)
(5.0165e-05 1.05817e-07 0)
(5.01495e-05 1.24632e-07 0)
(5.01309e-05 1.44285e-07 0)
(5.01112e-05 1.64589e-07 0)
(5.00885e-05 1.8603e-07 0)
(5.00656e-05 2.06403e-07 0)
(5.00416e-05 2.28446e-07 0)
(5.0019e-05 2.45962e-07 0)
(4.99995e-05 2.64906e-07 0)
(4.99867e-05 2.7615e-07 0)
(5.02118e-05 1.01377e-08 0)
(5.02431e-05 2.06746e-08 0)
(5.0238e-05 3.39909e-08 0)
(5.02318e-05 4.79703e-08 0)
(5.02224e-05 6.26025e-08 0)
(5.02114e-05 7.82589e-08 0)
(5.01971e-05 9.47031e-08 0)
(5.0181e-05 1.12554e-07 0)
(5.01613e-05 1.31333e-07 0)
(5.01398e-05 1.51408e-07 0)
(5.01142e-05 1.72621e-07 0)
(5.00871e-05 1.93437e-07 0)
(5.00568e-05 2.15998e-07 0)
(5.00259e-05 2.3364e-07 0)
(4.99961e-05 2.53303e-07 0)
(4.99722e-05 2.63469e-07 0)
(5.02444e-05 8.84979e-09 0)
(5.02735e-05 1.60143e-08 0)
(5.02685e-05 2.64253e-08 0)
(5.02625e-05 3.75175e-08 0)
(5.02532e-05 4.92957e-08 0)
(5.02422e-05 6.22244e-08 0)
(5.02279e-05 7.59813e-08 0)
(5.02115e-05 9.14629e-08 0)
(5.01911e-05 1.0791e-07 0)
(5.01682e-05 1.26376e-07 0)
(5.014e-05 1.45946e-07 0)
(5.0109e-05 1.66308e-07 0)
(5.00721e-05 1.88511e-07 0)
(5.00323e-05 2.06301e-07 0)
(4.99907e-05 2.27681e-07 0)
(4.99529e-05 2.36193e-07 0)
(5.02748e-05 6.85089e-09 0)
(5.02999e-05 9.62694e-09 0)
(5.02951e-05 1.60185e-08 0)
(5.02893e-05 2.30478e-08 0)
(5.02803e-05 3.0738e-08 0)
(5.02694e-05 3.95966e-08 0)
(5.02553e-05 4.92496e-08 0)
(5.02388e-05 6.08247e-08 0)
(5.02181e-05 7.33112e-08 0)
(5.01944e-05 8.84774e-08 0)
(5.01642e-05 1.04594e-07 0)
(5.01301e-05 1.23153e-07 0)
(5.0087e-05 1.43362e-07 0)
(5.00385e-05 1.61524e-07 0)
(4.99838e-05 1.8454e-07 0)
(4.99257e-05 1.91278e-07 0)
(5.03012e-05 4.1129e-09 0)
(5.032e-05 1.70607e-09 0)
(5.03154e-05 3.09123e-09 0)
(5.03098e-05 5.02743e-09 0)
(5.03011e-05 7.57559e-09 0)
(5.02905e-05 1.12599e-08 0)
(5.02767e-05 1.57693e-08 0)
(5.02606e-05 2.21677e-08 0)
(5.02404e-05 2.90894e-08 0)
(5.02166e-05 3.88461e-08 0)
(5.0186e-05 4.89446e-08 0)
(5.015e-05 6.28681e-08 0)
(5.01024e-05 7.72797e-08 0)
(5.00464e-05 9.35844e-08 0)
(4.99758e-05 1.12662e-07 0)
(4.98888e-05 1.15526e-07 0)
(5.03212e-05 7.17369e-10 0)
(5.03351e-05 -7.35953e-09 0)
(5.03308e-05 -1.17417e-08 0)
(5.03255e-05 -1.57275e-08 0)
(5.03174e-05 -1.92749e-08 0)
(5.03073e-05 -2.18935e-08 0)
(5.0294e-05 -2.38843e-08 0)
(5.02776e-05 -2.45907e-08 0)
(5.02571e-05 -2.56693e-08 0)
(5.02324e-05 -2.4801e-08 0)
(5.02009e-05 -2.49658e-08 0)
(5.01627e-05 -2.1461e-08 0)
(5.01112e-05 -2.00385e-08 0)
(5.00477e-05 -1.38019e-08 0)
(4.99583e-05 -1.03737e-08 0)
(4.9841e-05 -1.44484e-08 0)
(5.03362e-05 -3.16822e-09 0)
(5.03373e-05 -1.8595e-08 0)
(5.03331e-05 -3.02034e-08 0)
(5.03277e-05 -4.17777e-08 0)
(5.03194e-05 -5.33855e-08 0)
(5.03089e-05 -6.4736e-08 0)
(5.0295e-05 -7.65325e-08 0)
(5.02769e-05 -8.80626e-08 0)
(5.02543e-05 -1.00888e-07 0)
(5.02266e-05 -1.13199e-07 0)
(5.0192e-05 -1.28247e-07 0)
(5.01493e-05 -1.41465e-07 0)
(5.00929e-05 -1.5963e-07 0)
(5.00215e-05 -1.72939e-07 0)
(4.99178e-05 -1.93015e-07 0)
(4.97815e-05 -2.07238e-07 0)
(5.03385e-05 -7.97531e-09 0)
(5.03151e-05 -3.3323e-08 0)
(5.03103e-05 -5.44443e-08 0)
(5.03041e-05 -7.60644e-08 0)
(5.02946e-05 -9.83227e-08 0)
(5.02822e-05 -1.21124e-07 0)
(5.02658e-05 -1.45314e-07 0)
(5.02448e-05 -1.70238e-07 0)
(5.02188e-05 -1.97486e-07 0)
(5.01863e-05 -2.25505e-07 0)
(5.01466e-05 -2.57713e-07 0)
(5.0097e-05 -2.89774e-07 0)
(5.00342e-05 -3.28643e-07 0)
(4.99546e-05 -3.63156e-07 0)
(4.98454e-05 -4.06481e-07 0)
(4.97051e-05 -4.33952e-07 0)
(5.03164e-05 -1.42768e-08 0)
(5.02633e-05 -5.01988e-08 0)
(5.02578e-05 -8.2195e-08 0)
(5.02502e-05 -1.15245e-07 0)
(5.0239e-05 -1.4948e-07 0)
(5.02241e-05 -1.84911e-07 0)
(5.02047e-05 -2.22305e-07 0)
(5.018e-05 -2.61213e-07 0)
(5.01494e-05 -3.03181e-07 0)
(5.01114e-05 -3.46682e-07 0)
(5.00658e-05 -3.94935e-07 0)
(5.00092e-05 -4.43391e-07 0)
(4.99409e-05 -4.98454e-07 0)
(4.98562e-05 -5.47493e-07 0)
(4.97497e-05 -6.035e-07 0)
(4.96203e-05 -6.35219e-07 0)
(5.02649e-05 -2.1497e-08 0)
(5.01801e-05 -6.68184e-08 0)
(5.01736e-05 -1.09495e-07 0)
(5.01644e-05 -1.53733e-07 0)
(5.01511e-05 -1.99583e-07 0)
(5.01334e-05 -2.47115e-07 0)
(5.01108e-05 -2.96939e-07 0)
(5.00821e-05 -3.48704e-07 0)
(5.00472e-05 -4.03649e-07 0)
(5.00043e-05 -4.60168e-07 0)
(4.99539e-05 -5.20927e-07 0)
(4.98929e-05 -5.81084e-07 0)
(4.98232e-05 -6.46043e-07 0)
(4.97402e-05 -7.02332e-07 0)
(4.9646e-05 -7.61964e-07 0)
(4.9539e-05 -7.92323e-07 0)
(5.01821e-05 -2.86057e-08 0)
(5.00683e-05 -8.06604e-08 0)
(5.00605e-05 -1.32217e-07 0)
(5.00495e-05 -1.85757e-07 0)
(5.00339e-05 -2.41216e-07 0)
(5.00136e-05 -2.98698e-07 0)
(4.99879e-05 -3.58595e-07 0)
(4.9956e-05 -4.20562e-07 0)
(4.99177e-05 -4.85344e-07 0)
(4.98716e-05 -5.51242e-07 0)
(4.9819e-05 -6.2012e-07 0)
(4.97574e-05 -6.87069e-07 0)
(4.96911e-05 -7.56312e-07 0)
(4.96165e-05 -8.14863e-07 0)
(4.95412e-05 -8.73611e-07 0)
(4.94627e-05 -9.02135e-07 0)
(5.00707e-05 -3.45242e-08 0)
(4.99342e-05 -8.99194e-08 0)
(4.99249e-05 -1.47368e-07 0)
(4.9912e-05 -2.07048e-07 0)
(4.98941e-05 -2.68803e-07 0)
(4.98712e-05 -3.32787e-07 0)
(4.98429e-05 -3.99189e-07 0)
(4.98085e-05 -4.67668e-07 0)
(4.97684e-05 -5.38417e-07 0)
(4.97214e-05 -6.09785e-07 0)
(4.96695e-05 -6.8271e-07 0)
(4.96112e-05 -7.5258e-07 0)
(4.95527e-05 -8.22277e-07 0)
(4.94916e-05 -8.80464e-07 0)
(4.94391e-05 -9.36461e-07 0)
(4.93919e-05 -9.63859e-07 0)
(4.99372e-05 -3.8481e-08 0)
(4.97862e-05 -9.40945e-08 0)
(4.97755e-05 -1.54043e-07 0)
(4.97606e-05 -2.16155e-07 0)
(4.97403e-05 -2.80234e-07 0)
(4.97151e-05 -3.46542e-07 0)
(4.96846e-05 -4.15151e-07 0)
(4.96486e-05 -4.8579e-07 0)
(4.96079e-05 -5.58197e-07 0)
(4.95619e-05 -6.31056e-07 0)
(4.95131e-05 -7.04447e-07 0)
(4.94614e-05 -7.74439e-07 0)
(4.94139e-05 -8.42374e-07 0)
(4.93696e-05 -8.9921e-07 0)
(4.93419e-05 -9.52033e-07 0)
(4.93266e-05 -9.79366e-07 0)
(4.97897e-05 -4.02677e-08 0)
(4.96327e-05 -9.3858e-08 0)
(4.96207e-05 -1.53303e-07 0)
(4.96042e-05 -2.14447e-07 0)
(4.9582e-05 -2.77057e-07 0)
(4.95548e-05 -3.41557e-07 0)
(4.95225e-05 -4.08008e-07 0)