/*--------------------------------*- C++ -*----------------------------------*\
| =========                 |                                                 |
| \\      /  F ield         | foam-extend: Open Source CFD                    |
|  \\    /   O peration     | Version:     4.1-20200408                       |
|   \\  /    A nd           | Web:         http://www.foam-extend.org         |
|    \\/     M anipulation  |                                                 |
\*---------------------------------------------------------------------------*/
FoamFile
{
    version     2.0;
    format      ascii;
    class       volScalarField;
    location    "0.0265000";
    object      rho;
}
// * * * * * * * * * * * * * * * * * * * * * * * * * * * * * * * * * * * * * //

dimensions      [1 -3 0 0 0 0 0];

internalField   nonuniform List<scalar> 
1952
(
7829.59
7829.56
7829.58
7829.55
7829.56
7829.48
7829.4
7829.16
7828.89
7828.28
7827.55
7826.1
7824.35
7821.18
7817.57
7829.57
7830.07
7830.03
7830.05
7830.02
7830.02
7829.93
7829.85
7829.61
7829.33
7828.72
7827.99
7826.55
7824.83
7821.69
7818.15
7830.05
7830.47
7830.43
7830.44
7830.41
7830.4
7830.31
7830.21
7829.96
7829.67
7829.05
7828.31
7826.85
7825.11
7821.91
7818.25
7830.45
7830.83
7830.79
7830.8
7830.76
7830.74
7830.65
7830.54
7830.28
7829.97
7829.34
7828.57
7827.09
7825.31
7822.05
7818.33
7830.82
7831.16
7831.12
7831.13
7831.08
7831.05
7830.95
7830.83
7830.56
7830.23
7829.58
7828.79
7827.27
7825.45
7822.13
7818.33
7831.15
7831.46
7831.42
7831.42
7831.37
7831.33
7831.22
7831.09
7830.8
7830.46
7829.79
7828.96
7827.41
7825.54
7822.17
7818.31
7831.45
7831.73
7831.68
7831.68
7831.62
7831.58
7831.46
7831.31
7831.01
7830.65
7829.95
7829.1
7827.52
7825.61
7822.19
7818.27
7831.72
7831.97
7831.92
7831.91
7831.85
7831.8
7831.67
7831.51
7831.2
7830.81
7830.1
7829.22
7827.6
7825.65
7822.19
7818.23
7831.96
7832.19
7832.14
7832.12
7832.06
7831.99
7831.85
7831.68
7831.36
7830.95
7830.22
7829.31
7827.67
7825.68
7822.18
7818.19
7832.18
7832.39
7832.34
7832.32
7832.24
7832.17
7832.03
7831.84
7831.5
7831.08
7830.32
7829.39
7827.72
7825.71
7822.17
7818.15
7832.38
7832.57
7832.52
7832.5
7832.41
7832.34
7832.18
7831.99
7831.63
7831.19
7830.42
7829.47
7827.77
7825.73
7822.16
7818.11
7832.57
7832.74
7832.68
7832.66
7832.57
7832.49
7832.32
7832.12
7831.75
7831.3
7830.51
7829.53
7827.82
7825.74
7822.14
7818.07
7832.74
7832.89
7832.83
7832.8
7832.71
7832.62
7832.45
7832.23
7831.86
7831.39
7830.58
7829.59
7827.85
7825.76
7822.13
7818.04
7832.89
7833.03
7832.97
7832.94
7832.84
7832.74
7832.56
7832.34
7831.95
7831.47
7830.65
7829.64
7827.89
7825.77
7822.12
7818.01
7833.03
7833.16
7833.09
7833.06
7832.96
7832.86
7832.67
7832.44
7832.05
7831.55
7830.72
7829.7
7827.92
7825.79
7822.11
7817.99
7833.16
7833.29
7833.21
7833.18
7833.07
7832.96
7832.77
7832.53
7832.13
7831.63
7830.78
7829.74
7827.95
7825.8
7822.1
7817.97
7833.28
7833.39
7833.32
7833.28
7833.17
7833.06
7832.86
7832.62
7832.21
7831.69
7830.84
7829.79
7827.98
7825.81
7822.09
7817.95
7833.39
7833.5
7833.42
7833.38
7833.27
7833.15
7832.95
7832.7
7832.28
7831.76
7830.89
7829.83
7828.01
7825.82
7822.09
7817.94
7833.5
7833.6
7833.52
7833.48
7833.36
7833.24
7833.04
7832.78
7832.35
7831.82
7830.95
7829.87
7828.04
7825.84
7822.08
7817.92
7833.6
7833.7
7833.62
7833.57
7833.46
7833.33
7833.12
7832.85
7832.42
7831.88
7831
7829.91
7828.07
7825.85
7822.08
7817.91
7833.7
7833.8
7833.72
7833.67
7833.55
7833.42
7833.2
7832.93
7832.5
7831.94
7831.05
7829.95
7828.1
7825.87
7822.08
7817.9
7833.8
7833.9
7833.81
7833.76
7833.64
7833.5
7833.28
7833.01
7832.57
7832.01
7831.11
7830
7828.13
7825.88
7822.08
7817.89
7833.9
7833.99
7833.91
7833.85
7833.73
7833.59
7833.36
7833.08
7832.63
7832.07
7831.16
7830.04
7828.16
7825.9
7822.08
7817.88
7834
7834.09
7834
7833.95
7833.82
7833.67
7833.45
7833.16
7832.7
7832.13
7831.21
7830.08
7828.19
7825.92
7822.07
7817.87
7834.09
7834.19
7834.1
7834.04
7833.91
7833.76
7833.53
7833.23
7832.77
7832.19
7831.26
7830.12
7828.21
7825.93
7822.07
7817.86
7834.19
7834.28
7834.2
7834.13
7834
7833.84
7833.61
7833.3
7832.84
7832.24
7831.31
7830.16
7828.24
7825.94
7822.06
7817.84
7834.29
7834.38
7834.29
7834.23
7834.09
7833.93
7833.69
7833.38
7832.9
7832.3
7831.36
7830.19
7828.26
7825.94
7822.04
7817.82
7834.39
7834.49
7834.39
7834.32
7834.18
7834.02
7833.77
7833.45
7832.97
7832.35
7831.4
7830.22
7828.27
7825.94
7822.03
7817.8
7834.49
7834.6
7834.51
7834.43
7834.28
7834.11
7833.86
7833.53
7833.04
7832.41
7831.44
7830.25
7828.29
7825.94
7822.01
7817.77
7834.61
7834.72
7834.63
7834.55
7834.39
7834.21
7833.95
7833.61
7833.11
7832.47
7831.49
7830.28
7828.3
7825.94
7821.98
7817.73
7834.73
7834.86
7834.76
7834.67
7834.51
7834.32
7834.05
7833.7
7833.19
7832.53
7831.54
7830.31
7828.31
7825.93
7821.95
7817.68
7834.87
7835
7834.9
7834.81
7834.65
7834.44
7834.16
7833.8
7833.28
7832.6
7831.59
7830.34
7828.32
7825.92
7821.91
7817.63
7835.01
7835.16
7835.06
7834.96
7834.79
7834.58
7834.29
7833.91
7833.37
7832.67
7831.64
7830.37
7828.33
7825.9
7821.86
7817.57
7835.18
7835.35
7835.24
7835.13
7834.96
7834.73
7834.43
7834.03
7833.47
7832.76
7831.7
7830.4
7828.33
7825.87
7821.8
7817.49
7835.36
7835.56
7835.44
7835.33
7835.14
7834.9
7834.59
7834.17
7833.59
7832.85
7831.77
7830.44
7828.34
7825.84
7821.73
7817.4
7835.57
7835.8
7835.68
7835.55
7835.36
7835.1
7834.77
7834.33
7833.73
7832.96
7831.85
7830.48
7828.35
7825.81
7821.66
7817.3
7835.82
7836.07
7835.95
7835.82
7835.61
7835.33
7834.99
7834.52
7833.89
7833.09
7831.95
7830.53
7828.36
7825.77
7821.58
7817.18
7836.1
7836.39
7836.27
7836.12
7835.91
7835.61
7835.24
7834.74
7834.09
7833.25
7832.07
7830.61
7828.39
7825.74
7821.49
7817.05
7836.42
7836.77
7836.64
7836.47
7836.25
7835.93
7835.54
7835.01
7834.33
7833.44
7832.22
7830.7
7828.43
7825.72
7821.4
7816.9
7836.8
7837.19
7837.06
7836.88
7836.65
7836.3
7835.89
7835.33
7834.61
7833.68
7832.41
7830.83
7828.49
7825.71
7821.31
7816.74
7837.23
7837.69
7837.55
7837.36
7837.11
7836.74
7836.31
7835.71
7834.96
7833.97
7832.65
7831
7828.59
7825.71
7821.23
7816.58
7837.72
7838.25
7838.11
7837.91
7837.65
7837.26
7836.8
7836.17
7835.38
7834.33
7832.95
7831.22
7828.74
7825.75
7821.17
7816.41
7838.29
7838.9
7838.76
7838.55
7838.28
7837.87
7837.39
7836.72
7835.88
7834.79
7833.34
7831.53
7828.95
7825.84
7821.14
7816.24
7838.94
7839.63
7839.49
7839.28
7839
7838.57
7838.07
7837.37
7836.5
7835.34
7833.84
7831.92
7829.25
7826
7821.16
7816.09
7839.68
7840.46
7840.32
7840.1
7839.82
7839.39
7838.87
7838.15
7837.24
7836.04
7834.46
7832.45
7829.67
7826.26
7821.25
7815.97
7840.51
7841.38
7841.25
7841.03
7840.76
7840.32
7839.8
7839.07
7838.14
7836.89
7835.26
7833.15
7830.25
7826.65
7821.46
7815.92
7841.42
7842.39
7842.28
7842.07
7841.8
7841.39
7840.88
7840.14
7839.21
7837.94
7836.26
7834.07
7831.05
7827.26
7821.84
7815.96
7842.43
7843.48
7843.39
7843.2
7842.96
7842.58
7842.1
7841.39
7840.48
7839.21
7837.52
7835.27
7832.15
7828.15
7822.45
7816.12
7843.52
7844.63
7844.57
7844.41
7844.22
7843.88
7843.46
7842.82
7841.96
7840.74
7839.08
7836.82
7833.64
7829.47
7823.49
7816.57
7844.66
7845.82
7845.79
7845.68
7845.55
7845.29
7844.95
7844.41
7843.65
7842.55
7840.98
7838.81
7835.67
7831.45
7825.32
7817.86
7845.84
7847.01
7847.02
7846.97
7846.92
7846.77
7846.54
7846.15
7845.55
7844.63
7843.25
7841.3
7838.38
7834.4
7828.57
7821.41
7847.02
7848.16
7848.22
7848.24
7848.29
7848.26
7848.19
7847.99
7847.6
7846.95
7845.84
7844.24
7841.68
7838.16
7832.88
7826.45
7848.14
7849.2
7849.31
7849.42
7849.58
7849.71
7849.83
7849.86
7849.73
7849.41
7848.67
7847.52
7845.45
7842.54
7837.93
7832.35
7849.16
7850.06
7850.24
7850.44
7850.73
7851.04
7851.36
7851.66
7851.84
7851.92
7851.61
7851.01
7849.53
7847.37
7843.54
7838.91
7850
7850.68
7850.91
7851.22
7851.65
7852.14
7852.69
7853.29
7853.81
7854.33
7854.51
7854.56
7853.75
7852.48
7849.54
7846
7850.59
7850.96
7851.25
7851.66
7852.23
7852.91
7853.7
7854.61
7855.5
7856.49
7857.21
7857.96
7857.92
7857.65
7855.74
7853.48
7850.85
7850.82
7851.17
7851.68
7852.38
7853.24
7854.26
7855.47
7856.73
7858.2
7859.48
7860.99
7861.79
7862.67
7861.98
7861.28
7850.69
7850.22
7850.62
7851.21
7852.03
7853.05
7854.28
7855.76
7857.37
7859.3
7861.14
7863.41
7865.09
7867.26
7867.98
7869.29
7850.07
7848.93
7849.37
7850.02
7850.94
7852.08
7853.48
7855.18
7857.07
7859.37
7861.69
7864.64
7867.17
7870.68
7872.95
7876.78
7848.78
7847.23
7847.69
7848.37
7849.35
7850.56
7852.08
7853.92
7856.03
7858.61
7861.33
7864.83
7868.12
7872.92
7876.83
7883.96
7847.07
7846.04
7846.51
7847.2
7848.19
7849.45
7851.04
7852.99
7855.26
7858.06
7861.08
7864.98
7868.81
7874.32
7879.11
7887.9
7845.89
7845.71
7846.18
7846.86
7847.86
7849.13
7850.76
7852.76
7855.13
7858.06
7861.28
7865.38
7869.46
7875.13
7879.98
7888.4
7845.55
7846.16
7846.63
7847.31
7848.31
7849.57
7851.19
7853.18
7855.58
7858.5
7861.74
7865.78
7869.8
7875.1
7879.47
7886.55
7846
7847.37
7847.86
7848.53
7849.52
7850.75
7852.34
7854.27
7856.59
7859.36
7862.46
7866.16
7869.83
7874.31
7877.79
7883.04
7847.21
7849.26
7849.76
7850.43
7851.43
7852.62
7854.15
7855.96
7858.15
7860.66
7863.46
7866.6
7869.66
7872.98
7875.27
7878.4
7849.09
7851.73
7852.25
7852.92
7853.92
7855.08
7856.55
7858.23
7860.24
7862.4
7864.8
7867.22
7869.46
7871.37
7872.26
7873.1
7851.56
7854.7
7855.21
7855.88
7856.86
7857.98
7859.39
7860.92
7862.72
7864.52
7866.48
7868.1
7869.4
7869.74
7869.1
7867.63
7854.52
7858
7858.49
7859.11
7860.03
7861.09
7862.45
7863.85
7865.46
7866.98
7868.6
7869.48
7869.75
7868.43
7866.22
7862.59
7857.83
7861.5
7861.97
7862.54
7863.43
7864.48
7865.86
7867.23
7868.66
7869.85
7870.69
7870.38
7869.28
7866.52
7863.42
7858.6
7861.34
7865.63
7866.12
7866.7
7867.53
7868.44
7869.42
7870.18
7870.67
7870.57
7869.91
7868.36
7866.31
7863.17
7860.05
7855.54
7865.45
7868.97
7869.29
7869.58
7869.87
7869.99
7869.94
7869.59
7868.91
7867.63
7866.11
7864.14
7862.01
7859.29
7856.49
7852.88
7868.84
7868.45
7868.41
7868.24
7867.98
7867.48
7866.86
7866
7864.96
7863.58
7862.21
7860.42
7858.47
7855.98
7853.4
7850.33
7868.46
7865.46
7865.27
7864.93
7864.49
7863.91
7863.35
7862.56
7861.64
7860.39
7859.02
7857.3
7855.48
7853.24
7850.96
7848.15
7865.52
7862.45
7862.29
7862
7861.61
7861.07
7860.43
7859.6
7858.65
7857.45
7856.17
7854.59
7852.94
7850.94
7848.92
7846.48
7862.51
7859.75
7859.56
7859.26
7858.85
7858.32
7857.7
7856.91
7856.02
7854.92
7853.73
7852.28
7850.79
7849.01
7847.24
7845.1
7859.82
7857.26
7857.07
7856.79
7856.4
7855.89
7855.29
7854.54
7853.7
7852.68
7851.59
7850.29
7848.96
7847.38
7845.83
7843.97
7857.32
7854.99
7854.8
7854.53
7854.16
7853.68
7853.11
7852.42
7851.64
7850.72
7849.73
7848.56
7847.38
7845.99
7844.65
7843.03
7855.05
7852.93
7852.75
7852.5
7852.15
7851.71
7851.18
7850.54
7849.83
7848.99
7848.1
7847.07
7846.03
7844.81
7843.64
7842.24
7852.99
7851.07
7850.9
7850.67
7850.34
7849.94
7849.45
7848.87
7848.23
7847.48
7846.68
7845.77
7844.85
7843.79
7842.78
7841.56
7851.13
7849.39
7849.23
7849.02
7848.72
7848.35
7847.91
7847.39
7846.81
7846.14
7845.44
7844.63
7843.83
7842.9
7842.03
7840.98
7849.44
7847.88
7847.73
7847.54
7847.26
7846.94
7846.53
7846.07
7845.55
7844.96
7844.34
7843.63
7842.93
7842.13
7841.37
7840.46
7847.93
7846.52
7846.38
7846.21
7845.96
7845.67
7845.31
7844.9
7844.43
7843.91
7843.36
7842.75
7842.13
7841.44
7840.78
7840
7846.56
7845.3
7845.17
7845.02
7844.79
7844.53
7844.21
7843.85
7843.44
7842.98
7842.5
7841.96
7841.43
7840.83
7840.26
7839.58
7845.33
7844.2
7844.08
7843.95
7843.74
7843.51
7843.23
7842.91
7842.55
7842.14
7841.72
7841.26
7840.79
7840.27
7839.79
7839.19
7844.23
7843.2
7843.1
7842.98
7842.8
7842.6
7842.35
7842.06
7841.75
7841.4
7841.03
7840.62
7840.22
7839.77
7839.35
7838.83
7843.23
7842.31
7842.22
7842.11
7841.95
7841.77
7841.55
7841.3
7841.03
7840.72
7840.4
7840.05
7839.7
7839.31
7838.94
7838.49
7842.33
7841.5
7841.42
7841.33
7841.19
7841.03
7840.83
7840.62
7840.38
7840.11
7839.83
7839.52
7839.22
7838.89
7838.57
7838.17
7841.52
7840.77
7840.7
7840.62
7840.49
7840.36
7840.18
7839.99
7839.78
7839.55
7839.31
7839.04
7838.78
7838.49
7838.21
7837.86
7840.79
7840.11
7840.04
7839.97
7839.86
7839.74
7839.59
7839.43
7839.24
7839.04
7838.83
7838.6
7838.37
7838.12
7837.88
7837.57
7840.13
7839.51
7839.45
7839.39
7839.29
7839.18
7839.05
7838.91
7838.75
7838.57
7838.39
7838.19
7837.99
7837.77
7837.56
7837.28
7839.52
7838.95
7838.9
7838.85
7838.76
7838.67
7838.56
7838.43
7838.29
7838.14
7837.98
7837.8
7837.63
7837.44
7837.25
7837
7838.97
7838.45
7838.4
7838.36
7838.28
7838.2
7838.1
7837.99
7837.87
7837.73
7837.59
7837.44
7837.29
7837.12
7836.96
7836.74
7838.46
7837.99
7837.94
7837.91
7837.84
7837.77
7837.68
7837.58
7837.48
7837.36
7837.24
7837.1
7836.97
7836.83
7836.68
7836.47
7838
7837.56
7837.52
7837.49
7837.43
7837.37
7837.29
7837.21
7837.11
7837.01
7836.9
7836.78
7836.67
7836.54
7836.41
7836.22
7837.57
7837.16
7837.13
7837.1
7837.05
7837
7836.93
7836.85
7836.77
7836.68
7836.59
7836.48
7836.38
7836.27
7836.15
7835.97
7837.17
7836.8
7836.77
7836.74
7836.7
7836.65
7836.59
7836.52
7836.45
7836.37
7836.29
7836.2
7836.11
7836
7835.89
7835.74
7836.8
7836.45
7836.43
7836.41
7836.37
7836.32
7836.27
7836.21
7836.15
7836.08
7836
7835.92
7835.84
7835.75
7835.65
7835.5
7836.46
7836.14
7836.11
7836.09
7836.06
7836.02
7835.97
7835.92
7835.86
7835.8
7835.73
7835.66
7835.59
7835.51
7835.42
7835.28
7836.14
7835.84
7835.82
7835.8
7835.77
7835.73
7835.69
7835.65
7835.59
7835.54
7835.48
7835.41
7835.35
7835.27
7835.19
7835.06
7835.84
7835.56
7835.54
7835.52
7835.49
7835.46
7835.43
7835.38
7835.34
7835.29
7835.24
7835.18
7835.12
7835.05
7834.97
7834.85
7835.56
7835.29
7835.28
7835.26
7835.24
7835.21
7835.18
7835.14
7835.1
7835.05
7835
7834.95
7834.9
7834.83
7834.76
7834.64
7835.3
7835.05
7835.03
7835.02
7834.99
7834.97
7834.94
7834.9
7834.87
7834.82
7834.78
7834.73
7834.68
7834.62
7834.55
7834.44
7835.05
7834.81
7834.8
7834.79
7834.76
7834.74
7834.71
7834.68
7834.65
7834.61
7834.57
7834.52
7834.48
7834.42
7834.36
7834.25
7834.82
7834.59
7834.58
7834.57
7834.55
7834.53
7834.5
7834.47
7834.44
7834.4
7834.37
7834.32
7834.28
7834.23
7834.16
7834.06
7834.6
7834.38
7834.37
7834.36
7834.34
7834.32
7834.3
7834.27
7834.24
7834.21
7834.17
7834.13
7834.09
7834.04
7833.98
7833.88
7834.39
7834.19
7834.18
7834.17
7834.15
7834.13
7834.11
7834.08
7834.05
7834.02
7833.99
7833.95
7833.91
7833.86
7833.8
7833.7
7834.19
7834
7833.99
7833.98
7833.97
7833.95
7833.93
7833.9
7833.87
7833.84
7833.81
7833.77
7833.73
7833.69
7833.63
7833.53
7834.01
7833.83
7833.82
7833.81
7833.79
7833.78
7833.75
7833.73
7833.7
7833.67
7833.64
7833.6
7833.56
7833.52
7833.46
7833.36
7833.83
7833.67
7833.66
7833.65
7833.63
7833.61
7833.59
7833.57
7833.54
7833.51
7833.48
7833.44
7833.4
7833.36
7833.3
7833.2
7833.67
7833.51
7833.51
7833.5
7833.48
7833.46
7833.44
7833.42
7833.39
7833.36
7833.32
7833.29
7833.25
7833.2
7833.14
7833.04
7833.52
7833.37
7833.36
7833.35
7833.34
7833.32
7833.3
7833.27
7833.25
7833.21
7833.18
7833.14
7833.1
7833.05
7832.99
7832.89
7833.38
7833.24
7833.23
7833.22
7833.21
7833.19
7833.17
7833.14
7833.11
7833.08
7833.04
7833
7832.96
7832.91
7832.85
7832.74
7833.24
7833.12
7833.11
7833.1
7833.09
7833.07
7833.04
7833.02
7832.99
7832.95
7832.92
7832.88
7832.83
7832.78
7832.71
7832.6
7833.12
7833.01
7833
7832.99
7832.98
7832.96
7832.93
7832.91
7832.88
7832.84
7832.8
7832.76
7832.71
7832.65
7832.58
7832.46
7833.01
7832.91
7832.9
7832.89
7832.88
7832.86
7832.83
7832.81
7832.77
7832.74
7832.7
7832.65
7832.6
7832.53
7832.45
7832.33
7832.91
7832.82
7832.82
7832.8
7832.79
7832.77
7832.74
7832.72
7832.68
7832.65
7832.6
7832.55
7832.5
7832.43
7832.34
7832.21
7832.83
7832.75
7832.74
7832.73
7832.71
7832.69
7832.67
7832.64
7832.61
7832.57
7832.52
7832.47
7832.41
7832.33
7832.24
7832.09
7832.75
7832.68
7832.67
7832.66
7832.65
7832.63
7832.6
7832.57
7832.54
7832.5
7832.46
7832.4
7832.34
7832.26
7832.15
7831.99
7832.68
7832.62
7832.62
7832.61
7832.59
7832.57
7832.55
7832.52
7832.49
7832.45
7832.41
7832.35
7832.29
7832.2
7832.09
7831.91
7832.63
7832.58
7832.57
7832.56
7832.55
7832.53
7832.51
7832.48
7832.45
7832.42
7832.38
7832.32
7832.26
7832.18
7832.05
7831.86
7832.58
7832.54
7832.53
7832.52
7832.51
7832.5
7832.48
7832.45
7832.43
7832.4
7832.36
7832.32
7832.27
7832.2
7832.11
7831.96
7832.54
7832.52
7832.52
7832.51
7832.5
7832.48
7832.47
7832.45
7832.42
7832.39
7832.36
7832.33
7832.29
7832.24
7832.18
7832.07
7832.52
)
;

boundaryField
{
    wireUpstream
    {
        type            calculated;
        value           nonuniform List<scalar> 
16
(
7832.5
7832.5
7832.49
7832.48
7832.47
7832.45
7832.43
7832.41
7832.39
7832.36
7832.33
7832.3
7832.26
7832.24
7832.22
7832.51
)
;
    }
    wireDownstream
    {
        type            calculated;
        value           nonuniform List<scalar> 
16
(
7829.61
7829.58
7829.6
7829.57
7829.58
7829.5
7829.42
7829.19
7828.91
7828.31
7827.58
7826.13
7824.37
7821.13
7817.08
7829.59
)
;
    }
    wireTopContact
    {
        type            calculated;
        value           nonuniform List<scalar> 
122
(
7818.1
7818.2
7818.27
7818.26
7818.24
7818.19
7818.15
7818.1
7818.06
7818.02
7817.98
7817.95
7817.92
7817.89
7817.87
7817.85
7817.84
7817.82
7817.81
7817.8
7817.79
7817.78
7817.76
7817.75
7817.73
7817.71
7817.68
7817.65
7817.61
7817.56
7817.51
7817.45
7817.37
7817.28
7817.17
7817.05
7816.92
7816.77
7816.61
7816.45
7816.28
7816.12
7815.98
7815.87
7815.83
7815.89
7816.11
7816.61
7817.8
7821.42
7826.55
7832.46
7839.03
7846.13
7853.58
7861.37
7869.35
7876.56
7883.92
7887.79
7888.01
7886.07
7882.59
7878.02
7872.86
7867.61
7862.83
7858.98
7855.79
7852.91
7850.36
7848.19
7846.5
7845.1
7843.96
7843.01
7842.21
7841.53
7840.94
7840.42
7839.96
7839.54
7839.16
7838.8
7838.46
7838.14
7837.84
7837.54
7837.26
7836.98
7836.72
7836.46
7836.2
7835.96
7835.72
7835.49
7835.27
7835.05
7834.84
7834.63
7834.43
7834.24
7834.05
7833.87
7833.69
7833.52
7833.35
7833.19
7833.04
7832.88
7832.74
7832.59
7832.46
7832.33
7832.2
7832.09
7831.99
7831.91
7831.85
7831.95
7832.03
7817.72
)
;
    }
    front
    {
        type            wedge;
    }
    back
    {
        type            wedge;
    }
}


// ************************************************************************* //
