/*--------------------------------*- C++ -*----------------------------------*\
  =========                 |
  \\      /  F ield         | OpenFOAM: The Open Source CFD Toolbox
   \\    /   O peration     | Website:  https://openfoam.org
    \\  /    A nd           | Version:  8
     \\/     M anipulation  |
\*---------------------------------------------------------------------------*/
FoamFile
{
    version     2.0;
    format      ascii;
    class       volVectorField;
    location    "0.0710000";
    object      U_0;
}
// * * * * * * * * * * * * * * * * * * * * * * * * * * * * * * * * * * * * * //

dimensions      [0 1 -1 0 0 0 0];

internalField   nonuniform List<vector> 
600
(
(0.590187895954874 0.00066668027159971 2.03602240130402e-18)
(0.591102896124686 0.000418372088126393 3.13382042669533e-18)
(0.591078381530058 0.000361906704454869 3.62477012412084e-18)
(0.591032609786769 0.000405260721901967 4.18198172080442e-18)
(0.590844030696744 0.000428958233690589 1.30880069947374e-17)
(0.590574957996026 0.000440484650412255 3.80271818507029e-18)
(0.590275897862441 0.000447748933400882 -4.86795012119333e-17)
(0.589965505497078 0.00045383235156581 -2.4658623776789e-17)
(0.589648606755934 0.000459330723364939 3.41468913347057e-17)
(0.589324862566296 0.000464124006949962 3.01647771784277e-17)
(0.588993169858143 0.00046862865970062 1.28996876988312e-17)
(0.588653102591328 0.000473290070698613 -2.63054334580129e-17)
(0.588305008140723 0.000478234715061086 -3.19007138050963e-17)
(0.58794811701975 0.000482613231204916 -7.36581438722041e-17)
(0.587581078479338 0.000486613291666381 5.68998753552888e-17)
(0.587203704947563 0.000490690852581491 1.13717145618196e-16)
(0.586816091671287 0.000495155640142746 5.75264954883484e-17)
(0.586418102253173 0.000499400397705502 -2.36089641942114e-17)
(0.586008735702671 0.000503333689282854 -4.90702486258422e-17)
(0.585587016231236 0.000507293206780947 -6.48272940387357e-18)
(0.585152780868251 0.000511635193431585 7.47682333206881e-17)
(0.584706208981171 0.000516331068896219 1.00978210408529e-16)
(0.584246522818076 0.000520653974594047 8.52632877054921e-17)
(0.583772524701845 0.000524892360138013 -1.6742424589019e-17)
(0.583283495227564 0.000529579300344441 -1.80450593495796e-17)
(0.582780153065275 0.000535247234806101 -5.8577436004497e-17)
(0.582262058362181 0.000540639629186168 -1.86583944063457e-17)
(0.581727387365608 0.000545893260843359 -2.13817890255716e-18)
(0.581175332975127 0.000551591554973134 6.78804687586808e-18)
(0.580606106171503 0.000558540990318798 4.45231136367189e-18)
(0.580020254017156 0.000566180649562995 4.47620440406581e-19)
(0.579416615136149 0.000573673821901713 -8.1615044381687e-17)
(0.578793271693026 0.000581632956642609 -4.05209369435277e-17)
(0.578149994910828 0.000591308587964553 -3.0875699325838e-17)
(0.577489292150479 0.000603853068005147 5.80849337754844e-17)
(0.576810759122195 0.000616036473567716 1.97301919755828e-17)
(0.576111337035123 0.000628852810748129 6.15306560121413e-17)
(0.575390809962255 0.000644130796590826 4.88382608634514e-17)
(0.574653583269356 0.000665221404423017 1.43040208101747e-16)
(0.573901590685848 0.00068739324992563 -7.15993227764575e-17)
(0.57313214869722 0.000710202466223548 -1.51604070254993e-16)
(0.572344536875123 0.000736139707079956 -1.24797128264731e-16)
(0.571544306384851 0.000770596365480273 -5.38952354453164e-17)
(0.570739173400231 0.000812412849401543 -1.96375163405676e-16)
(0.569930295588933 0.000854050190726116 -1.18168826649922e-16)
(0.569115563607641 0.000899077688881527 -1.67444410164943e-16)
(0.568302454596945 0.000955468152853524 8.21986507021936e-17)
(0.567510291634998 0.00103524203091192 -8.7924595271897e-18)
(0.566748374852174 0.00111085439949356 4.89499948962114e-17)
(0.56601612570398 0.0011906673477856 -2.65373033997903e-17)
(0.565325297792452 0.00128550750548696 -1.01796271796533e-16)
(0.564713274237008 0.0014224450700005 3.31363681071291e-17)
(0.564202915391022 0.00156321258112418 8.40088851517577e-18)
(0.563813062772495 0.00170511670621743 1.30952406752559e-16)
(0.563572170810111 0.00186496933040491 -4.09617444325055e-17)
(0.563551432737967 0.00209900377389441 -3.9943670337887e-17)
(0.564010608797043 0.0024856892297749 1.06563097233639e-16)
(0.565336224136736 0.00294325240792779 -1.98452179605799e-17)
(0.56782021198021 0.00350985685596997 2.83480932616728e-17)
(0.571820707780696 0.00432726867428364 -7.93949598321185e-17)
(0.577605219162578 0.00549203991726336 -2.25605569941298e-17)
(0.585228072156689 0.00641468740491038 9.68076407194034e-17)
(0.594695923255036 0.00723931060746756 4.95787979989645e-16)
(0.606140238364757 0.00806813819557368 -3.99375790340172e-20)
(0.619684939420347 0.00906802321533571 -2.32806229935994e-17)
(0.635242530012784 0.00954076004543636 3.02723694274113e-17)
(0.652710198067971 0.00978223296925562 -7.42321562279247e-17)
(0.67188822887889 0.00990774434779242 3.45635739154109e-17)
(0.69260467640759 0.00993396935016678 6.31317728945828e-17)
(0.714534263914719 0.00948699623223196 4.97514296392589e-17)
(0.737395854117988 0.00884526321805275 8.76108092872765e-17)
(0.760858812140833 0.00808122129013139 -1.03987673933979e-16)
(0.784709112747892 0.00712542143607703 -5.48520803270546e-17)
(0.808734408709963 0.00604996037524556 -1.39290952560353e-16)
(0.832768858291874 0.00494220988868856 -1.68900778523007e-16)
(0.856695385702074 0.00378607892822699 -1.19085617305087e-18)
(0.880448715177599 0.00264825604262119 4.86287510958685e-17)
(0.9040747366826 0.00160951248594424 -1.77718853642064e-17)
(0.927664404810006 0.000648114621846634 3.82901421662551e-17)
(0.951240800001416 -0.00019589098645698 2.61998291488869e-16)
(0.974853076588251 -0.000890849432931212 6.4740005830222e-17)
(0.999109529741631 -0.00147094778741502 7.75984235029305e-17)
(1.02381088057548 -0.00183128449045744 4.96193615663681e-17)
(1.05021165331942 -0.00200707588140262 -4.86766315577959e-17)
(1.07595118882406 -0.00197049661208777 -9.79425717485329e-18)
(1.10771685841429 -0.00224731397321644 5.77045405878961e-17)
(1.12136852295836 6.72216916272745e-05 4.15163260943658e-17)
(1.11919437733892 -0.000131282988268234 -1.86597946526133e-17)
(1.12265322489158 0.00023963049659367 -1.43659275375389e-16)
(1.12307575920981 0.000392950245797051 4.80595475979109e-17)
(1.12408956793792 0.000577824799637283 -1.52052910793372e-17)
(1.12430788867393 0.000611846471881857 -7.45580782287285e-18)
(1.12453689358703 0.000653933013196149 2.50904407158992e-18)
(1.12446050509855 0.000679881342876982 -9.01656515858325e-18)
(1.12429596882059 0.000661879951716613 -7.69646431598675e-17)
(1.12408616987614 0.000640585669920944 -1.00012091121135e-17)
(1.12385329011231 0.000605505361446031 1.30237360538706e-17)
(1.12357436254119 0.000561462518145378 2.6423758695645e-18)
(1.1232696637036 0.000534115486227759 2.21529392918264e-18)
(1.12240932217322 0.000505359680174807 3.87816632273133e-18)
(0.127488066583869 0.00315688213029933 5.90933140906746e-18)
(0.13025784105522 0.00374866544417185 9.48427149652559e-18)
(0.130347955845011 0.00414975647395725 1.04656190983155e-17)
(0.130111123151976 0.00446578578415705 8.3219412021945e-18)
(0.129532694618356 0.0046391442281681 -2.41412708178803e-18)
(0.128780705175746 0.00472141973521511 -4.97117065743385e-17)
(0.127959115389933 0.00476265287241048 -4.75896197564658e-17)
(0.127107126873858 0.0047894832075308 -6.56505768679929e-17)
(0.126235885916326 0.0048119947759702 3.02358674370594e-17)
(0.125346533252308 0.00483304989403548 8.58567162462616e-17)
(0.124437616247321 0.00485396761253011 4.72288707082331e-17)
(0.123508171150637 0.00487541950592189 5.03641016698548e-18)
(0.122557939076854 0.00489758191783845 -8.75579945357965e-17)
(0.121585643274755 0.00491923035575877 -1.00628734468676e-16)
(0.120589236557792 0.0049406590316274 1.87687319148938e-17)
(0.119567591863512 0.00496248907169592 1.95519921595845e-16)
(0.118520340688345 0.00498522402138694 1.71752868107672e-16)
(0.117446611888906 0.00500802726442171 -8.55454700931863e-17)
(0.116344567499428 0.00503078372839532 -1.6516310737484e-16)
(0.115212443369304 0.00505402017012752 -1.80919919006692e-17)
(0.114049344416768 0.00507830452610988 8.1404799705512e-17)
(0.112854685397121 0.00510363967621376 4.4496298631801e-18)
(0.111626807738983 0.00512894617383087 -3.04146456879603e-17)
(0.110363334692268 0.00515473105895429 -1.26161543180422e-16)
(0.109062697008807 0.00518182007443869 -4.51600038554676e-17)
(0.107724741357091 0.00521113030171176 -1.92214096876495e-16)
(0.106348078011419 0.00524070078709637 -1.56326190313046e-16)
(0.104929700865653 0.00527081273828963 -2.93249157858567e-18)
(0.103467396905221 0.00530243418898524 2.26186286681815e-17)
(0.101960576399377 0.0053369516764579 1.37295457206919e-17)
(0.10040875658615 0.00537352858529026 1.73021004196063e-17)
(0.0988094755378116 0.00541084240548572 -2.6230012583991e-16)
(0.0971593282890706 0.00545003127845481 -1.12172308905675e-16)
(0.0954572156829892 0.00549322627062927 -1.0107354984133e-16)
(0.0937051584136953 0.00554250281045971 1.88831346112982e-16)
(0.0919019962631654 0.0055924481708007 4.41032397486396e-17)
(0.0900430812168712 0.00564492627230547 1.85751420654031e-16)
(0.0881271901430374 0.00570313469050551 1.30506626060047e-16)
(0.0861599609017375 0.005773044532673 2.40042108226552e-16)
(0.0841444001783581 0.00584652369164542 -1.26644346374947e-17)
(0.082077022769546 0.00592289287417978 -4.60047624437056e-16)
(0.079956227133873 0.0060067035057667 -3.73810071061537e-16)
(0.0777912631495021 0.00610765164399826 -3.38342086698508e-16)
(0.0755960840220667 0.00622381404063381 -5.22091479667947e-16)
(0.0733748268130656 0.00634175709363126 -1.46737324505703e-16)
(0.0711250340439887 0.00646810739441736 -1.34652086620913e-16)
(0.068861136363701 0.00661743915142398 -2.26072774827988e-16)
(0.0666238318177286 0.00681156657335737 -3.08365362819397e-17)
(0.0644356046426951 0.00700055840829723 1.55773107262553e-16)
(0.062297373636762 0.00719910106603078 -8.0988822133619e-17)
(0.0602346998659306 0.00742788308650617 6.89076123226607e-18)
(0.0583312612098758 0.00773626962992861 2.51377641441039e-16)
(0.0566537412981656 0.00805385521012452 1.61947070275751e-17)
(0.0552355049461108 0.00837432923560177 1.02269737061272e-16)
(0.0541245053578504 0.00873086197140445 1.60345094430374e-16)
(0.0534892695944487 0.00923262168588483 -1.19109989444258e-16)
(0.0537605574455305 0.0100259743572337 -2.0583923271129e-16)
(0.0554689181204463 0.0109607013030753 -3.33567630371062e-16)
(0.059076275443394 0.0121019336993256 8.92075163376529e-17)
(0.0653752299156884 0.01372001605259 -2.45501716372365e-16)
(0.0754679303167076 0.0159590692853491 1.71011222545983e-16)
(0.0898041969086124 0.017711205310228 2.7642461059016e-16)
(0.108310549731219 0.0192087451173823 8.1276720414479e-16)
(0.131298639843278 0.0206750457118254 -1.17363516678037e-17)
(0.15943960675574 0.0223635600040901 -7.15368166550696e-17)
(0.192523160012694 0.0229860760842301 1.03007718717769e-16)
(0.229828111271274 0.0230760005978553 -1.16673617070689e-16)
(0.271043064984897 0.0228823872189249 -1.11771353186502e-16)
(0.315998901718811 0.0224023704834791 -2.90542372624278e-17)
(0.363851251413133 0.0209630713881651 -7.30761258413822e-17)
(0.413646329424821 0.0190996999575027 3.75128075603691e-16)
(0.464796762523091 0.0169602040785522 -3.15136030850588e-16)
(0.516755507292672 0.0144279775048419 -1.65913575797968e-16)
(0.568929617177623 0.0116582424527882 -2.29709737716523e-16)
(0.620948367550746 0.00882334051793544 -6.40217661285792e-17)
(0.672528618223442 0.00590288645298633 -2.66729294506967e-18)
(0.723454175358395 0.00303758579578854 3.50036099283161e-16)
(0.773838816206089 0.000382250257275988 -6.65821461854705e-17)
(0.823842550029272 -0.00210919962998834 2.9909362094745e-16)
(0.873608976712379 -0.00436780282612077 3.34299742189096e-16)
(0.923283360790238 -0.00630717742020676 2.86300922584672e-16)
(0.9740276887196 -0.008028087837516 1.45074717754205e-17)
(1.02541913081052 -0.00935354828830645 1.48395742483871e-16)
(1.08061376813512 -0.0103211622696528 -1.46302065741731e-16)
(1.13438591325076 -0.010845278720618 -3.05863123604584e-17)
(1.20121557478581 -0.0107593492027055 1.73878567487265e-16)
(1.22826935893053 -0.000989980475215062 -2.57028129293023e-16)
(1.22023017485682 -0.000831266656015318 -5.9968126836664e-17)
(1.22488942205426 -8.49159011658212e-05 -6.66147618516246e-17)
(1.22335944112348 0.000321156372689687 1.45968939926118e-16)
(1.22396738934511 0.000716456488759269 1.39682115351153e-16)
(1.22338287014742 0.000855426443783099 -2.23498924989158e-17)
(1.22310344051204 0.000983904872607302 1.00720017994499e-16)
(1.2225481311054 0.00108037494670987 -2.44580325513087e-17)
(1.22200501815364 0.00109627942474837 -1.36890464682339e-16)
(1.22140662482341 0.00109932393484962 -7.21572486205056e-17)
(1.22082878414198 0.00107652207869542 -5.28795971371658e-18)
(1.22019433260032 0.00103502284272345 1.76376792570148e-17)
(1.21969791267569 0.00101589531532006 -1.50282965304269e-17)
(1.21889386416971 0.000909055214824283 5.76699785375567e-18)
(-0.172869186344508 0.00738103530569413 1.0564735561987e-17)
(-0.170161380033668 0.00790202377519352 1.40995467725256e-17)
(-0.170421179928799 0.00900470896237511 1.84914392788193e-17)
(-0.171058689909863 0.009728100107229 8.39514143414762e-19)
(-0.172006891256988 0.0100875718530861 -1.0532670399529e-17)
(-0.173103043336567 0.0102495341011373 -2.03234990555711e-17)
(-0.174261572329974 0.0103267847998638 -4.10157049902373e-17)
(-0.175452873844436 0.0103738984024807 -4.69131775885308e-17)
(-0.176669026384171 0.0104121596431723 4.44981024936281e-17)
(-0.177909424102656 0.0104482980552737 8.61498023642209e-17)
(-0.179175485235308 0.0104845292575309 7.94912998876186e-17)
(-0.180468349287562 0.0105216484583595 7.47476697069398e-17)
(-0.181788684509475 0.0105597357233075 1.73965243609351e-18)
(-0.183137945707437 0.0105978639467513 -4.2107611149641e-17)
(-0.184518277702353 0.0106361933822569 -3.09273589356175e-17)
(-0.18593120101968 0.0106753014550789 1.81822776825266e-16)
(-0.187377578081057 0.0107155891546121 1.93059997208658e-16)
(-0.188858694609601 0.0107564489937442 -4.29721971461677e-17)
(-0.190376662863466 0.0107977780339567 -1.32720991046077e-16)
(-0.1919335259536 0.0108400565533943 8.36882627093754e-17)
(-0.193530670175435 0.0108838160543266 1.36231325266204e-16)
(-0.195169219379366 0.0109290473257098 4.68262743334481e-17)
(-0.196851232640543 0.0109749352244272 4.51347683539528e-17)
(-0.198579450337863 0.0110218798147695 7.00716175798202e-18)
(-0.200355910055396 0.0110707220377974 -3.16950464809201e-17)
(-0.202181457266923 0.0111221598968214 -1.15319345867595e-16)
(-0.204057977442018 0.011174693521821 -4.65443640323343e-17)
(-0.205988876847452 0.0112284775636966 3.1016954039587e-18)
(-0.207976925905723 0.0112845003838953 4.5999835622564e-17)
(-0.210023393899695 0.0113439799786668 2.01005319094615e-17)
(-0.212129404582167 0.0114062501034107 8.92411323189992e-17)
(-0.214297983097458 0.0114702311042541 -2.65639573342772e-16)
(-0.216532962651925 0.0115369418670089 -1.53444314616036e-16)
(-0.2188361051549 0.011608530607862 -3.14128007383702e-16)
(-0.221205933071028 0.0116865671488987 4.84842884063709e-16)
(-0.223643951427435 0.0117667046424273 -7.21298886711853e-17)
(-0.226155212160136 0.0118502776162715 1.00262607576058e-16)
(-0.228741479260701 0.0119407696148809 1.82670121628405e-16)
(-0.231397032168117 0.012043038766561 3.85146612096485e-16)
(-0.234118234826919 0.0121503620268507 7.14998011465073e-17)
(-0.236908820024483 0.0122616945157026 -4.08777503124497e-16)
(-0.239770424540907 0.0123816924230949 -6.11280156241448e-16)
(-0.242692851093333 0.0125191840104904 -5.8395504083337e-16)
(-0.245658666217355 0.0126720795026812 -7.00866829948923e-16)
(-0.248662309028628 0.0128286333505519 -1.29328599653061e-16)
(-0.251705561793083 0.0129941341365377 -1.08565789314163e-16)
(-0.254772834252779 0.0131841882333099 -8.45863189615612e-17)
(-0.257811074307077 0.0134151634628421 -6.51202522564438e-17)
(-0.260789930694278 0.0136447697322883 -4.90444539972112e-17)
(-0.26370945793794 0.0138823551584347 -1.6414289669607e-16)
(-0.266539677233276 0.014152239448255 1.08971388858192e-16)
(-0.269171799365732 0.0144938034295616 -1.19439403593417e-16)
(-0.271511269509559 0.0148461599707638 1.03373193336617e-17)
(-0.273524286947614 0.0151984700643871 7.46330822180903e-17)
(-0.275153351509606 0.015585432893708 8.93469750662826e-17)
(-0.276207032090111 0.0161177180586369 -2.08153781297293e-16)
(-0.276161676062742 0.016914860324915 -4.34092308009136e-16)
(-0.27441497417169 0.0178502881929372 -4.12133955442014e-16)
(-0.270462220281613 0.0189741133498569 1.83473297014194e-16)
(-0.263358650409769 0.0205592648446626 -4.4380197448834e-16)
(-0.251414678276224 0.0226388026196042 1.2484891386344e-16)
(-0.233946133552257 0.0242541209067441 4.39205494160284e-16)
(-0.211212528668669 0.0255219733870825 7.17526878329343e-16)
(-0.182845315959982 0.0267301938594605 1.81499810790035e-16)
(-0.147679241458165 0.02796666054687 -1.19693733721264e-16)
(-0.105971808708598 0.0281721357811337 2.00565503386025e-16)
(-0.0590051936762343 0.027734147558736 -3.0807675849911e-16)
(-0.00706809917333622 0.0269615225535927 -2.5692714008968e-16)
(0.0498334131091302 0.0257789886856226 -1.18861305208769e-16)
(0.110529169800949 0.0236575932393221 8.44246411567493e-18)
(0.173559901186194 0.0210494059175905 1.86775626574843e-16)
(0.238341229832384 0.0181289036218805 -3.48300550552802e-16)
(0.304133722263234 0.014811482540139 -2.71115378433222e-16)
(0.370079124433028 0.0112549159754842 -5.79923539712869e-16)
(0.435733886416976 0.00762666395172336 4.35903219975991e-17)
(0.500724679851908 0.00392734566356789 -3.63706206098481e-18)
(0.56468042181976 0.000298924195297354 -1.95043765299634e-16)
(0.627767097522401 -0.00310789010095555 9.35828149581245e-17)
(0.690235387532686 -0.00633508461993394 1.28823241064328e-16)
(0.752169703437949 -0.00934194768140129 3.99866789634975e-16)
(0.81378200634789 -0.0120071360087099 9.23501657101474e-17)
(0.876505422694287 -0.0144478116620829 -5.74879802346694e-17)
(0.939752241151222 -0.0165258836316606 2.5469861431957e-16)
(1.00757669526261 -0.0183165006258755 -4.94975085011113e-17)
(1.07354465830737 -0.0195454917140164 -2.44048881360287e-16)
(1.15624992996723 -0.0188171305908829 1.13049430863048e-16)
(1.18922943547244 -0.00144766422195757 -3.83500711291025e-16)
(1.17780011447197 -0.000948533285722077 -1.95637739658774e-16)
(1.18286983766166 -0.000196108502655535 1.95840522468713e-17)
(1.18040103420044 0.000227391961318469 2.45226380716011e-16)
(1.18086981802417 0.000603123033845561 2.68579441167593e-16)
(1.18000455757949 0.000774861478557271 -4.19129733548116e-17)
(1.17956602360171 0.000908078584236042 2.01403295212317e-16)
(1.17889687931876 0.0010046361968482 -4.0394853819056e-17)
(1.17829734606004 0.00103534761113637 -1.08768435258875e-16)
(1.17763380855399 0.00104286787774441 -8.83989229268695e-17)
(1.17702094767589 0.00102652270375841 3.6907372165842e-17)
(1.17636390330857 0.000989741448944273 -9.56712611103386e-18)
(1.17598632489995 0.000948513471027202 -2.27335094093406e-17)
(1.17559091010062 0.000718476519573546 3.08232774271678e-18)
(-0.313445726058387 0.0100135275337681 1.15176805533609e-17)
(-0.313328615241947 0.0112109660331793 1.39426488008545e-17)
(-0.314579488515769 0.0129001272548635 1.67473083616806e-18)
(-0.315817570680701 0.0138717042652899 -9.40506165643029e-18)
(-0.317055722909113 0.0143198984092267 -2.36397197584974e-17)
(-0.318300336903893 0.0145156657288622 -3.58474758968134e-18)
(-0.319557391090679 0.014609397289908 -8.52341239672162e-18)
(-0.32083306704862 0.0146677345243324 -1.03208786308477e-17)
(-0.322131015856355 0.014716040715571 7.41192154520658e-17)
(-0.323453402052463 0.014762389526047 1.04198460759223e-16)
(-0.324801838973169 0.0148091389225514 1.06215623364686e-16)
(-0.326177426092381 0.0148569745136133 8.1492531816922e-17)
(-0.327580981044439 0.0149059167953081 2.45935127094514e-17)
(-0.329013835678653 0.0149554302258731 2.88319368622026e-19)
(-0.330477816626511 0.0150055762492171 2.08698600658526e-17)
(-0.33197444322781 0.0150567586725183 7.47053560748237e-17)
(-0.333504829957541 0.015109235591528 1.37155649376817e-16)
(-0.335070357056087 0.0151626871619549 -2.49080760770374e-17)
(-0.33667295860641 0.0152170620204324 -5.30560624453184e-17)
(-0.33831454556735 0.0152726956329913 8.44356610686033e-17)
(-0.339996637392493 0.0153299691444444 6.25827716519429e-17)
(-0.341720587845479 0.0153888922952554 6.44971580055873e-17)
(-0.343488400204516 0.0154490150905002 1.25913844899643e-16)
(-0.345302571926383 0.0155105924287918 8.24605414779712e-17)
(-0.347165149591912 0.0155742499002969 -9.74405354631186e-18)
(-0.34907737173396 0.0156404156460709 -7.84754784931441e-17)
(-0.351041188398909 0.0157082378562631 -3.71128724220898e-17)
(-0.353059673059846 0.0157777933506558 1.30863398574295e-17)
(-0.355135500603371 0.0158498139385236 8.45126304542614e-17)
(-0.357270259427168 0.0159251198775133 5.03174215946125e-18)
(-0.359465385603665 0.0160033328658627 -9.59047396773866e-18)
(-0.361723747602872 0.0160838082410563 -3.54447701876915e-16)
(-0.364048778553021 0.0161672309713303 -1.56091040914255e-16)
(-0.366442395134491 0.0162551529318665 -2.00765093103808e-16)
(-0.368903873168446 0.0163485133633867 4.09825765631183e-16)
(-0.37143471553481 0.0164446604931619 1.69086634185458e-16)
(-0.374039200841178 0.0165443289671854 7.92586081050861e-18)
(-0.37671905995863 0.0166501032868112 -1.17511936466332e-17)
(-0.379469662489437 0.0167650070122211 1.63309371314171e-16)
(-0.382287671122868 0.0168847837590742 -3.57398685369733e-17)
(-0.385175979396741 0.0170085288932653 -3.91153719280553e-16)
(-0.388135662642026 0.0171395307877483 -6.67458048275161e-16)
(-0.39115759973036 0.017283674625143 -6.09732796472289e-16)
(-0.394225281176764 0.0174393146398909 -6.7304883628712e-16)
(-0.397332671773148 0.0175986296038579 -5.48305845510405e-17)
(-0.40047988160888 0.0177646950886889 -8.25738460524889e-17)
(-0.403652497656553 0.0179487791167018 -2.42026609454514e-16)
(-0.406799081680272 0.0181603067134557 -9.57989110593214e-17)
(-0.409888632833089 0.018371472138406 -2.41088401420185e-16)
(-0.412919322280336 0.0185867425489128 -2.82395134921881e-16)
(-0.415862034748086 0.0188241709903385 2.42554115796275e-16)
(-0.418610173442051 0.0191076349023213 -5.89406145611203e-17)
(-0.421066462327153 0.0193958677419381 6.55805326007293e-18)
(-0.423197891606491 0.0196789621231145 4.96758730572878e-17)
(-0.424945256798071 0.0199804231008976 3.75859795759426e-17)
(-0.42612854374698 0.0203766874288503 -3.01043016848085e-16)
(-0.426244536835737 0.0209394807490174 -6.82646894703681e-16)
(-0.424725970764199 0.021579282396418 -6.42981439994741e-16)
(-0.421097278511544 0.0223188337682724 7.82336027421054e-17)
(-0.414453522421492 0.0233449272072762 -4.45473081719073e-16)
(-0.40301416265361 0.0246334227822202 8.31034314854243e-17)
(-0.386036783958719 0.025532490751254 3.7021662120913e-16)
(-0.36382056759654 0.0260932200053328 6.542329700095e-16)
(-0.336023071029274 0.02653900838919 3.72940657155176e-16)
(-0.30137589142023 0.0268752198338005 3.91602728801692e-17)
(-0.260109941458552 0.0264088029762185 1.21143411535799e-16)
(-0.213635778788269 0.02539219626655 -1.97121949371224e-16)
(-0.162216288044701 0.0240695243190183 -6.18727558933142e-16)
(-0.105780546085498 0.0223651543990087 -2.10204667608403e-16)
(-0.0455173150429416 0.0199544502604368 -1.27024228080129e-16)
(0.0170155756295491 0.0171556312997372 -8.3952900800098e-17)
(0.081289523246327 0.0141070838395604 -3.83577693717549e-16)
(0.146547178458174 0.0107649207257349 -3.65007980374058e-16)
(0.21188548993071 0.00725321787909426 -7.74959870538975e-16)
(0.276864875143534 0.00369417391391118 1.73504717867057e-16)
(0.341103385439848 9.83520781806382e-05 2.79564148031693e-18)
(0.404183638211765 -0.00342852879854939 -1.22519281997251e-16)
(0.46626938562658 -0.00678224245062445 4.15775625003948e-16)
(0.527625412277117 -0.00999782471404032 1.27113682407851e-16)
(0.588288464793541 -0.0130496524887699 6.56954704848964e-16)
(0.648465222414954 -0.0158536517494682 -5.07896475538611e-18)
(0.70955780159527 -0.0184988207719259 -1.41011258238738e-16)
(0.770929061422193 -0.0209234202983547 1.72191998813239e-16)
(0.836628148055902 -0.0231598142574983 4.0387313704768e-17)
(0.900386281847727 -0.0249874827804549 -8.76418546512831e-17)
(0.981753058356021 -0.0236930146642775 7.15235608999812e-17)
(1.01373048858711 -0.00144537894353337 -3.50887003112392e-16)
(1.00095990484426 -0.000655822738377418 -3.18201565674839e-16)
(1.00561820371788 -0.000188254240299188 -7.89220512597268e-17)
(1.00295920931207 0.000148562056044256 1.68617422299971e-16)
(1.00333270744794 0.000385384726967008 2.28427277683809e-16)
(1.00247464418286 0.000518341456365359 -6.99315844882611e-17)
(1.00206412749224 0.000608298469687912 1.33038555893959e-16)
(1.00148023028976 0.000675473283265895 -6.09233332988429e-17)
(1.0009906495368 0.000699134907759355 -8.07005134369602e-17)
(1.00044096166328 0.0007047467303909 -6.21048585338637e-17)
(0.999951357100982 0.000694234841513081 3.67056789565136e-17)
(0.999426062921094 0.000666403483015423 -7.62140750794863e-18)
(0.999203863167448 0.000625848337672386 -2.85179379203292e-17)
(0.999047467621475 0.000450262749795527 1.59959558087114e-18)
(-0.300632902057253 0.00988205647962719 9.86591231952174e-18)
(-0.304026588439385 0.0114889905829585 9.10026395594752e-18)
(-0.306206680217529 0.0130447833864063 -8.3865592944151e-18)
(-0.307791770630257 0.0138501376427557 -1.32546372811761e-17)
(-0.309019491120395 0.0141965590943379 -8.88482363914001e-18)
(-0.310107676169164 0.0143447454597188 1.57205166015506e-17)
(-0.311159012414266 0.0144185279875994 1.77752749719924e-18)
(-0.312212469690839 0.0144678861177232 -2.18288704225283e-17)
(-0.313281056460055 0.0145108649902242 2.54034317809736e-17)
(-0.314368838921692 0.0145529966870667 4.64721411940363e-17)
(-0.315477286682195 0.0145957615410727 6.41293972746913e-17)
(-0.316607170136069 0.0146395244062871 7.82190819527006e-17)
(-0.317759120047197 0.0146842887489761 2.79185477898947e-17)
(-0.318934089638878 0.0147298113886407 1.40108085048936e-17)
(-0.32013335814487 0.0147761264200309 6.8049424154305e-17)
(-0.32135810377814 0.0148234416369112 -2.82407518503124e-17)
(-0.32260929696154 0.0148719016433528 -1.30914343904471e-18)
(-0.323888045144544 0.0149213847810394 -5.00134129274681e-17)
(-0.325195776756019 0.0149718915371511 3.15986138870286e-17)
(-0.326533927348873 0.0150236012327875 7.93527033329695e-17)
(-0.327903733597115 0.0150767225413239 -1.89786164420501e-17)
(-0.329306336674909 0.0151312892070574 5.62496560291607e-17)
(-0.330743267148079 0.0151871206143505 8.70899927672509e-17)
(-0.332216366629867 0.0152443614661515 1.73416286194519e-16)
(-0.333727238403273 0.0153033426936979 4.92430075580118e-18)
(-0.335276998275057 0.0153642958429271 -7.21951278130777e-17)
(-0.336867178812515 0.0154268553495564 -2.61649460430576e-17)
(-0.338500032633593 0.0154910859716825 1.98743135529091e-17)
(-0.340177607952219 0.0155573712004539 1.55738989886888e-16)
(-0.34190127315963 0.0156261359119041 -2.04945141974061e-17)
(-0.343672256708071 0.0156972351388304 -3.89372745818782e-17)
(-0.345492715239377 0.0157703967509788 -2.99930051313808e-16)
(-0.347365164393147 0.0158459700016629 -1.11982901084805e-16)
(-0.349291181652919 0.0159247259559326 -7.86157534913872e-17)
(-0.351270483764551 0.016007145002998 3.27840148741187e-16)
(-0.353304209528609 0.0160919708279996 2.91910309430076e-16)
(-0.355395379641519 0.016179564709699 -1.95175257663609e-16)
(-0.357545386486224 0.0162711665142508 -2.33956885141042e-16)
(-0.359751049826297 0.0163682334666716 -7.49538209274734e-18)
(-0.362009825496027 0.0164686628432155 -1.23608210013642e-16)
(-0.364323613830141 0.0165720061338576 -3.84316985115863e-16)
(-0.3666931103371 0.0166797764003692 -5.63696445491708e-16)
(-0.369111719866393 0.0167947200188109 -4.22402779644513e-16)
(-0.371566840918708 0.0169158775009709 -5.22495971687847e-16)
(-0.374053501596605 0.0170393179428934 -9.86316119631816e-17)
(-0.376571196681251 0.0171663333608768 -5.46179384603971e-17)
(-0.379109559106368 0.0173020537135672 -6.53820995815847e-17)
(-0.381628943688415 0.017450670369986 -1.14520004608874e-16)
(-0.384104649445773 0.0175979974707835 -1.01161416885846e-16)
(-0.386534642673245 0.0177459822766371 -3.06566353183765e-16)
(-0.388897395499425 0.0179025963621248 1.1179983474693e-16)
(-0.391110620509349 0.0180784059753443 -2.57254050588676e-17)
(-0.393096803970491 0.0182516556816995 4.11839803529257e-18)
(-0.394830787253278 0.0184168666789118 1.58309909162137e-16)
(-0.39626680542873 0.0185834011970336 6.08705040507651e-18)
(-0.397272646934409 0.0187844873903036 -3.91136169965752e-16)
(-0.397465739786674 0.0190481809952984 -5.79181623074972e-16)
(-0.396418867339637 0.019321784529703 -4.06127575603212e-16)
(-0.393777760510964 0.0196067590775669 2.44404142509516e-17)
(-0.388862497141276 0.0199812534107469 -2.49100539949052e-16)
(-0.380239743257221 0.0204135168679039 4.71990980920166e-17)
(-0.367298386372381 0.0205710830200816 3.05817663280949e-16)
(-0.350292204194836 0.0204847442983758 3.85650889253128e-16)
(-0.328975180911216 0.0202590793286135 3.49170999344546e-16)
(-0.302306635945164 0.0198838829432482 1.9297550276019e-16)
(-0.270446373524504 0.0190193792706509 6.6757580611756e-17)
(-0.234555586530326 0.0178143373330583 -1.79454501374708e-16)
(-0.194834576192238 0.0163923327264537 -3.6259976718233e-16)
(-0.151188989376518 0.0147161923095351 -2.91073385985072e-16)
(-0.104549864506777 0.0126425552925952 -4.51444372466289e-17)
(-0.0561810580582909 0.010353454796617 -2.19152503144544e-16)
(-0.00647278307214162 0.0079224635187021 -2.32969142639578e-16)
(0.0439768941087113 0.00533739302208684 -2.61135361093047e-16)
(0.0944407444406828 0.00267279122042895 -4.29946816866191e-16)
(0.144574834813286 -6.10461757422575e-06 3.36423652943952e-16)
(0.19407663193193 -0.00269021157976943 8.25757460141011e-18)
(0.242597055835519 -0.00532257845986503 -6.70681895883188e-17)