/*--------------------------------*- C++ -*----------------------------------*\
  =========                 |
  \\      /  F ield         | OpenFOAM: The Open Source CFD Toolbox
   \\    /   O peration     | Website:  https://openfoam.org
    \\  /    A nd           | Version:  8
     \\/     M anipulation  |
\*---------------------------------------------------------------------------*/
FoamFile
{
    version     2.0;
    format      ascii;
    class       surfaceVectorField;
    location    "0.0255000";
    object      Uf;
}
// * * * * * * * * * * * * * * * * * * * * * * * * * * * * * * * * * * * * * //

dimensions      [0 1 -1 0 0 0 0];

internalField   nonuniform List<vector> 
1094
(
(0.65740671861685 0.000491150242838494 -2.61377149725505e-18)
(0.423344174895928 0.00162117662419737 1.42938986028016e-19)
(0.657830822747681 0.000347120558120463 -3.1441149008615e-18)
(0.425538800605052 0.00175921487239021 2.85902928622949e-18)
(0.6581817974755 0.000330561056997608 -2.34850593198538e-18)
(0.426002121852147 0.00183676827902825 3.88202941790494e-18)
(0.658362939220997 0.000360597147609922 2.76348618295136e-18)
(0.42632971818726 0.0019713772283168 4.39515804409666e-18)
(0.658436589728385 0.000378161902603382 6.35300645976749e-18)
(0.426441709349864 0.0020580026630184 1.30935013276172e-17)
(0.658464065300966 0.000387427135689612 3.06092940227005e-18)
(0.426430923392236 0.0021012392009141 1.41199496029617e-17)
(0.658476149664049 0.000393127720468327 2.22574592382013e-18)
(0.426375643299027 0.00212155058926242 3.01342766324306e-18)
(0.658483605866148 0.000397007399026756 1.87571656379381e-18)
(0.426307602031493 0.00213194854013826 1.12188094644213e-17)
(0.658492056468927 0.000399798727485364 1.95245493258697e-18)
(0.426236665039602 0.00213823939017845 -1.29633435109163e-17)
(0.658505995978464 0.000402348991169594 -8.62997047259751e-18)
(0.42616914211757 0.00214333777673835 9.43858870384484e-18)
(0.65852165862643 0.000405509288365994 -5.62512985430945e-18)
(0.426105632433165 0.0021484785684847 -7.2546413763501e-18)
(0.658536628646587 0.000409245791529832 1.56424636357263e-17)
(0.42604254475717 0.00215489421207714 3.32627824263296e-17)
(0.658551774813793 0.000412635906111816 3.64275646781869e-17)
(0.425979692372602 0.00216171242086538 3.49192013164575e-17)
(0.658568380410641 0.000415147947079995 4.70630021522608e-17)
(0.425918079377587 0.0021675485610838 1.1111305106658e-16)
(0.658585955905724 0.000417534546666641 7.67022429379594e-17)
(0.425857938383045 0.0021722918375791 7.3664040012736e-17)
(0.658603398597566 0.00042083044599376 1.10376204597075e-16)
(0.425798762097398 0.00217778672685741 1.50020634251565e-16)
(0.658621155135892 0.000424361416633172 8.61155466395963e-17)
(0.425740168867528 0.0021849427842462 1.25284041788472e-16)
(0.65863817958976 0.000426857249631464 4.03222829995027e-17)
(0.425681760237034 0.00219104680757865 1.13362011872022e-16)
(0.658656739221197 0.000428275470690597 1.36801426679892e-18)
(0.425624118604088 0.0021954689147276 3.07034111997939e-17)
(0.658680105093553 0.000429450919738445 1.17033753531371e-17)
(0.425568929610921 0.00219892870119793 -3.81093737340533e-17)
(0.65870850591365 0.000431409327719949 6.28041075908635e-18)
(0.425518615980558 0.00220293752968206 8.13414933258836e-18)
(0.658737180010469 0.00043440962722496 2.07816626327932e-18)
(0.425471192205473 0.00220852301908897 -7.53230549554273e-17)
(0.658764302008925 0.000437726700269065 3.02577540679748e-17)
(0.42542309163723 0.00221530144213615 6.47453594161364e-17)
(0.658793321312282 0.000440484279417569 2.19883933654579e-17)
(0.425376074254383 0.00222215388963042 5.71748826771473e-17)
(0.658824364848304 0.000442711682542258 2.35543054898478e-17)
(0.425332029028094 0.00222777161201792 9.94952071562076e-17)
(0.658856943560001 0.000445123298912288 1.23006035105169e-17)
(0.425290232573454 0.00223323249367414 7.56404089321807e-17)
(0.65889155836635 0.000447944227104424 -4.55932649376447e-18)
(0.42525067256069 0.00223945192932705 -2.8403551125833e-17)
(0.658929624043595 0.000450614265162929 1.42648044932159e-17)
(0.42521452523515 0.00224631259277786 -2.86015682720724e-18)
(0.658969634902149 0.000453089324895724 8.80634748092297e-18)
(0.42518179660337 0.00225236335929273 6.41060556203231e-17)
(0.659011535935859 0.000456179821190776 7.06162093518278e-18)
(0.425151956953647 0.0022587656937691 -3.01236697227877e-17)
(0.659058305185473 0.000459480119276357 2.77261720467954e-17)
(0.425126453116916 0.00226692374248085 5.13593199277653e-17)
(0.659108273198962 0.0004623313424331 -4.20455172940815e-18)
(0.425106061725388 0.00227421674248135 6.99073066796782e-17)
(0.659161091704301 0.000465418162508726 -4.88343130021125e-17)
(0.425090056049266 0.0022812548879587 -8.22042448146808e-17)
(0.659218178053622 0.000469260208634256 -8.13820452940383e-17)
(0.425078963139548 0.0022894805414665 -1.17186910983853e-16)
(0.659282227713092 0.0004729763082489 -6.96669909409395e-17)
(0.425075148233923 0.00229910932321161 -7.55095834335704e-17)
(0.659350730799013 0.000476374184706367 -4.1825742918026e-17)
(0.425078696636906 0.0023073251429389 -1.91280871455073e-16)
(0.659423622937013 0.000480941483105464 -2.31160078238704e-17)
(0.425088957176786 0.00231612207244484 -1.04422624732754e-16)
(0.659505880481605 0.000486139655074732 -8.89351153594851e-18)
(0.425108452482987 0.00232828138958604 8.97249643522447e-18)
(0.659595674853305 0.000490790298808 -6.79158913190056e-17)
(0.4251390643495 0.00233937657626239 -3.37262368006475e-17)
(0.659692522225097 0.000496018502098814 -5.39972880654389e-17)
(0.42518035204101 0.00235017023554561 -1.23507315722014e-16)
(0.659798775771256 0.000502905824710157 8.50648923986183e-17)
(0.425233439346998 0.00236331759804757 1.67667254504051e-17)
(0.659919361518675 0.000509977480298801 1.07902419939828e-16)
(0.425302794479911 0.00237964311291242 2.18111686731113e-16)
(0.660050853669358 0.0005167839501371 6.41675047332545e-18)
(0.425389363616174 0.00239387561733264 1.03490449317011e-16)
(0.660193473789859 0.000526100762359002 -8.25504769563028e-17)
(0.425493263193989 0.00240949743651788 -8.16431365716228e-17)
(0.660356137395892 0.000536950951849455 9.56091226057833e-19)
(0.425619482351033 0.00243198825259036 -2.69214935584508e-16)
(0.660537422815863 0.000546985258338377 1.15818337139656e-16)
(0.425772491249813 0.00245288668654198 1.55295996124454e-16)
(0.66073776239074 0.000558681463381883 7.23352262171562e-17)
(0.425953586122118 0.00247324889871435 2.10159271516353e-16)
(0.660961888430602 0.000574705148728652 3.73876935859589e-17)
(0.426167354792038 0.00249956188056897 6.99691735366534e-17)
(0.661218904452996 0.000591470314808647 6.20227330391469e-17)
(0.426422243630013 0.0025338692914077 7.11254820526552e-17)
(0.661504631372798 0.000607434666136735 9.82626932648701e-17)
(0.42672136879547 0.00256316251676611 7.19478498626226e-17)
(0.661822423072649 0.00062944884009347 1.36787064851945e-16)
(0.427069989507941 0.00259495513550309 2.13420425287942e-16)
(0.662191151734502 0.00065603479894997 9.04707869290629e-17)
(0.427481038313057 0.00264366350793099 2.38338324610886e-16)
(0.662609072780854 0.000681370408472352 2.88776366000359e-19)
(0.427965149364775 0.0026902679169809 2.94931028180283e-17)
(0.66307913571745 0.000710521507390774 -5.29573787992246e-18)
(0.428528841720874 0.00273528054499007 -4.96880041788823e-17)
(0.663614464137349 0.000749539496232186 -6.21766570204974e-18)
(0.429187349498533 0.00279377265403483 1.01687126388925e-17)
(0.664235804608602 0.000790258634277144 -5.23690559921723e-17)
(0.429961607878955 0.00286991940988837 -3.5305022291703e-17)
(0.664941359971718 0.000829541961314529 -1.91311537480689e-17)
(0.430863706598193 0.0029343146628415 -1.76364850395037e-16)
(0.665741722706778 0.000884559981036005 9.48033904458774e-17)
(0.431917879549834 0.00300519229906781 9.38490943665606e-17)
(0.666679304239156 0.000949685972906538 2.90138222114012e-17)
(0.433156425134654 0.00311852506156086 1.35476175471348e-16)
(0.667754240605927 0.00100910994706494 -8.80978533060265e-17)
(0.43460623531626 0.00322086712680918 -1.89426488627079e-17)
(0.668988061863078 0.00107700114423805 -1.3422064214737e-16)
(0.436298469476669 0.0033157353791797 -1.80957474269872e-16)
(0.670420185426908 0.00116927635005977 -1.31459396254801e-16)
(0.438287850542523 0.0034429776412444 -3.50892217763273e-16)
(0.672098240824315 0.00126387216506951 -4.52045004039998e-17)
(0.440630827469677 0.00361186546955377 -1.76285270788976e-16)
(0.674029530815159 0.00135069229753523 1.71563382989025e-17)
(0.443363777107711 0.00374522898278287 -3.90176056413642e-18)
(0.676257168137042 0.00147594275174618 9.78775217377746e-17)
(0.44657874086429 0.00388755702714023 6.94523998765968e-17)
(0.678909498524541 0.00162567224416282 6.72933458515094e-17)
(0.450379672383242 0.00413511173866545 3.20125510730467e-16)
(0.68204426229696 0.00176787362236126 -5.91888851247283e-17)
(0.454877725818469 0.0043499794781584 7.26416482741332e-17)
(0.685843727426788 0.00196630302942119 -5.14107454909354e-17)
(0.460277092769992 0.00457356274839927 -1.93379339675308e-16)
(0.690584830500939 0.00228274366123168 -6.06870955378903e-17)
(0.466933157296366 0.00495631271873792 -1.14820799411122e-17)
(0.696536858054515 0.00261452096635479 -8.02826956080588e-17)
(0.47520974159766 0.00552477705139334 -2.29929692724002e-16)
(0.703692908804611 0.00289713085590435 -1.50377221535399e-17)
(0.485306080435265 0.0059410367480917 -2.0511116294264e-16)
(0.712045470318421 0.00324561024537805 4.00241898555927e-17)
(0.497554092570758 0.00634732654908375 1.33377577939029e-16)
(0.721780852450238 0.00350275693046142 5.91487378263906e-17)
(0.511947542318187 0.00690179012709225 1.2310929378983e-16)
(0.732761307305653 0.00355878742712143 -1.41851512724896e-17)
(0.528532684578956 0.00698524885848986 1.87755392138487e-17)
(0.745094176804246 0.00355403920149062 -1.16933068683524e-17)
(0.547519524490673 0.00689643648265691 -1.70674303635115e-16)
(0.758823568923834 0.00344965046232443 6.11296584584808e-17)
(0.568737865398356 0.006714268999345 1.19317882973538e-16)
(0.773916334515562 0.00321496117094204 6.45671450815966e-17)
(0.592231337721156 0.00626593043459499 1.24115999265834e-16)
(0.79038083778431 0.00290324863353383 1.16260165766504e-17)
(0.618076447501007 0.00564138409431133 1.3355044809049e-16)
(0.808245498933601 0.00248337175861194 -2.21903822349594e-17)
(0.646081959750225 0.00488532625067953 -1.02699484108284e-17)
(0.82753866907798 0.0020015574789412 -2.6800162672399e-18)
(0.676496987070353 0.00388933876242591 6.78404208015122e-17)
(0.848331092818482 0.00151653870608267 2.56491025330272e-17)
(0.70911136511366 0.0028951084327837 -6.32058971387186e-18)
(0.871082715506553 0.00100285552436991 4.51036605758948e-17)
(0.744988157434609 0.00182459649551381 4.23701027071935e-17)
(0.895580599297123 0.000439448114205131 -1.1082816984945e-17)
(0.782492381413615 0.000655910727253771 7.42511910117549e-17)
(0.923526532634333 8.99986705756139e-05 -1.52147062414359e-17)
(0.827109595102215 -0.000529895166301284 -5.38364910683813e-17)
(0.953887745587864 -0.000339911635163896 3.38188995491009e-17)
(0.870108216727322 -0.00130110764965472 5.18464351490661e-17)
(0.988232378944928 0.000180657320880191 1.46278751592371e-17)
(0.934496069643076 -0.00224232744595055 3.63062784615674e-17)
(0.986109100269326 0.000229748350325617 -9.54636900239462e-18)
(0.95945224099066 0.000153862715645194 -2.38578974063196e-17)
(0.987055651807146 0.000180040339193649 -1.6768098163605e-17)
(0.949387574017672 -0.000147259631908847 -1.43789529810139e-17)
(0.985869620102062 0.000149068468427802 -1.267455031085e-17)
(0.952613729368208 -4.53835381188338e-05 -3.02401426205823e-17)
(0.984724649027981 0.000111846713628339 7.85961778130793e-18)
(0.948327682106245 -0.000115615338953675 2.92056168878646e-18)
(0.982883276318351 6.44380390559367e-05 9.40094891727221e-18)
(0.94623370828863 -0.000109405460913231 2.91111610003804e-17)
(0.980837987353731 3.02688594252143e-05 4.18816602782687e-18)
(0.942317276776961 -0.000142187323536129 8.30842114458281e-18)
(0.978445774015566 -6.20075011372976e-06 1.39298283773022e-18)
(0.93853401149312 -0.000162581773627057 1.90072475140946e-17)
(0.975876668072341 -4.404506949907e-05 4.4933020451153e-19)
(0.934132808020619 -0.00019101435865641 -2.95219688106343e-18)
(0.973156542739132 -7.64191341482847e-05 3.84699010648926e-18)
(0.929598697627876 -0.000216534427809625 4.89387723238609e-18)
(0.970368070284454 -0.000108318118510453 4.39307492775661e-18)
(0.924846415328393 -0.000240243529886115 5.40228391056501e-18)
(0.967588175053868 -0.000134173956516515 4.35597116227196e-18)
(0.920074122748031 -0.000257196944827431 6.92019652772262e-18)
(0.964861957949944 -0.000137189922929301 3.56382237889883e-18)
(0.915341992122698 -0.00026932576923559 1.03293892557812e-17)
(0.962384556062404 -1.40342506831686e-05 5.88961919701766e-19)
(0.91084662934587 -0.000270416405330497 3.78332011177996e-18)
(0.907509117996861 -0.000188686622910037 -4.3191884209322e-19)
(0.189001012680378 0.00313581962293371 5.67439562810816e-18)
(0.0339470148153556 0.00481238242377275 6.57083968272619e-18)
(0.190482079589137 0.00360512267076387 9.97066279469256e-18)
(0.0372525300416818 0.00526732536247932 1.27816540057049e-17)
(0.191247812671201 0.00393486300458672 1.07089369255867e-17)
(0.0378875697964545 0.0058953346954681 2.04506875236217e-17)
(0.191533718974158 0.00417310590183622 1.48180940261277e-17)
(0.0382160418562874 0.00638854062643455 9.68621528168933e-18)
(0.19157190839962 0.00430406163430003 2.09526291822236e-17)
(0.0382483518683591 0.00666003548307444 2.76192307552662e-17)
(0.191504186460734 0.00436614298094909 1.4116644652656e-17)
(0.0381274961222398 0.00678562606439964 3.29310286214154e-17)
(0.191398521702911 0.00439474280332039 1.20832978274409e-17)
(0.0379513529146474 0.00683937618561253 1.87704009577162e-18)
(0.191282124333239 0.00440953787867978 -3.70531618762493e-18)
(0.0377593477631761 0.00686315432559021 3.35883772373422e-17)
(0.19116491759104 0.00441944218979698 -5.47256426409677e-18)
(0.037564082216351 0.00687593347393089 -7.52402336387823e-18)
(0.191050354547569 0.00442827798388765 1.08913469022925e-17)
(0.0373704033025825 0.00688547420859839 2.98619862132194e-17)
(0.190937689760059 0.00443778687351477 3.1940094412528e-17)
(0.0371790943537712 0.0068949868388745 9.96309937634225e-18)
(0.190826496190847 0.00444816407009828 5.27551427858111e-17)
(0.0369891802624516 0.00690569218773493 4.24693011804146e-17)
(0.190717209388247 0.00445827569393219 1.1019439887552e-16)
(0.0368010317343278 0.00691684694636426 3.84449418633031e-17)
(0.190609590113722 0.0044673692731806 1.38135967164388e-16)
(0.0366149043916994 0.0069271199321821 1.74371960404224e-16)
(0.190502650635127 0.00447631699984595 1.47551416350323e-16)
(0.0364300169714392 0.00693646079346336 1.09433813742766e-16)
(0.190396649476712 0.00448639698476935 1.6516853365816e-16)
(0.036245988017834 0.00694651941990883 1.65752231022873e-16)
(0.190292863652234 0.00449671445145865 1.52861235209132e-16)
(0.0360638389341539 0.00695784861211074 1.46678849628595e-16)
(0.190190542953988 0.00450557547646407 1.0388030158166e-16)
(0.0358838241334163 0.00696830268754614 1.49294947209699e-16)
(0.190089637820886 0.00451294511382791 -8.99795689089713e-18)
(0.0357052104973139 0.00697692186347788 4.73641462526338e-17)
(0.189991135157002 0.00452005568837884 -4.18407822438593e-17)
(0.0355280511820601 0.0069844650436422 -2.46022688632096e-17)
(0.189895433354879 0.00452833530685417 -7.40922291461484e-17)
(0.0353533598114679 0.00699253502989763 -2.56602886632265e-17)
(0.189801661040897 0.00453817726631432 -1.23689990704388e-17)
(0.0351810193503439 0.00700235500108902 -1.44677422305772e-16)
(0.189709837790487 0.00454871399853784 9.19503421795782e-17)
(0.0350105057857805 0.00701352868754052 9.1545413619664e-17)
(0.18962118623154 0.00455864458609175 1.35351426097305e-16)
(0.0348430153926588 0.00702466104078537 4.90861127475888e-18)
(0.189535265233093 0.00456783559371373 1.52141433642301e-16)
(0.0346789947151049 0.00703470086334518 1.35815806816561e-16)
(0.189451918184081 0.00457729912350583 3.47599422650043e-17)
(0.0345176782099399 0.00704448659049824 8.81332970491958e-17)
(0.189372198773501 0.00458745637581632 -2.67383915674803e-17)
(0.0343595254944573 0.00705501064744376 -1.03417007513712e-16)
(0.189297131567096 0.0045975447686759 4.73233365749456e-17)
(0.0342059472826543 0.00706604001633577 -1.74800442692519e-17)
(0.189225729842959 0.0046074793740188 2.49807290789228e-17)
(0.0340568616296104 0.00707648308367638 2.01245800125377e-17)
(0.189158560934924 0.00461847554540009 1.44442192105468e-17)
(0.0339117949825801 0.00708737954927981 -1.06847448666079e-16)
(0.189098095854413 0.0046299360325177 9.38899313818309e-17)
(0.0337727225244034 0.00709971323267117 1.17419434832023e-16)
(0.189043511623206 0.0046408691186555 -8.568579819188e-18)
(0.033640661423098 0.00711148927528634 3.74387457608003e-17)
(0.188994561495645 0.00465231188780009 -1.51105563595237e-16)
(0.033514674736807 0.00712297549749678 -1.89860358749004e-16)
(0.188953308969171 0.00466509922705343 -1.11312200473268e-16)
(0.0333956896611054 0.0071357285202985 -2.53192150009452e-16)
(0.188922025181528 0.00467789571063907 -1.98026815605284e-16)
(0.0332866163900573 0.00714965039124017 -1.07786240970535e-16)
(0.188899181521366 0.0046903822662045 -2.54473285444138e-16)
(0.0331876121693812 0.00716246697479911 -4.19948481199183e-16)
(0.188885875501191 0.00470495343371047 -7.21605316644664e-17)
(0.0330979289071172 0.00717605862320488 -8.6625881073345e-17)
(0.188886881433312 0.00472077610355346 -1.6031381441064e-17)
(0.0330214223949606 0.00719264572082311 4.47710194090773e-17)
(0.188901702928089 0.00473596443750875 -8.97089370015797e-17)
(0.0329607289313419 0.00720859250917798 -6.09672905341935e-17)
(0.188930422880853 0.00475233553172944 -5.22489163942791e-17)
(0.0329149362736796 0.00722419289811151 -3.98155044635169e-17)
(0.188977151985927 0.0047717216109571 1.5077552766003e-16)
(0.0328861515114927 0.00724243152211124 2.93001199260587e-17)
(0.189046993505454 0.00479173648658712 2.13677814825337e-16)
(0.0328806517600474 0.00726357272839868 3.5791038116616e-16)
(0.189138454634117 0.00481159936385161 1.47776981092303e-17)
(0.0328999743422549 0.0072830353189986 2.14213250350122e-16)
(0.189254607883378 0.00483601080969411 -2.69683737686246e-16)
(0.0329439081871877 0.00730432073402687 -1.62156503219091e-16)
(0.189405646905668 0.00486335560589901 -1.13643996593429e-16)
(0.033021177261413 0.00733210159800704 -4.02733742432029e-16)
(0.189592578404872 0.00488966336061993 2.50314952780727e-16)
(0.0331386023915511 0.00735883986846382 1.41689302018805e-16)
(0.18981740952775 0.0049191544094992 2.07686034285295e-16)
(0.0332960517431578 0.00738493804951168 2.20674568659517e-16)
(0.190090660212197 0.00495648017421326 1.03931775972541e-16)
(0.033500345022876 0.00741781919632839 1.37909144842417e-17)
(0.190425220244574 0.00499544666976454 8.11160354862586e-17)
(0.0337675180677669 0.00745837656877308 1.41624010680515e-16)
(0.190820357491954 0.00503330923139738 1.87999141142547e-16)
(0.0341030598743976 0.00749423271903154 2.32904762270427e-17)
(0.191285841186479 0.00508215737604502 3.15637204452753e-16)
(0.0345089194667358 0.00753342250811828 4.33411575786799e-16)
(0.191848345221599 0.00513936366204131 1.76680898254791e-16)
(0.0350092096186874 0.00758930440942948 4.0094083428434e-16)
(0.192514541520954 0.00519451329180331 -2.09125597253035e-17)
(0.0356245542188005 0.00764387862236875 5.0835232827523e-17)
(0.19329327156768 0.00525654741010402 -3.40231985300371e-17)
(0.0363587135483918 0.00769619548470508 -1.45298872218273e-16)
(0.194213995131177 0.00533633377165836 -1.91763015679569e-17)
(0.0372329325517052 0.00776367259065927 1.6141609833308e-17)
(0.195311959515518 0.00541900402828484 -1.6030196483432e-16)
(0.0382915693708504 0.0078481903096473 -6.43944695633442e-17)
(0.196594177436065 0.00549870128419423 -6.21178993434303e-17)
(0.0395541074544203 0.00792005338118188 -2.12541004684251e-16)
(0.198093635339235 0.00560656014292813 1.34846821720535e-16)
(0.0410345386839235 0.00800023718425315 2.02422496197193e-16)
(0.199885497168362 0.0057319406303052 8.68387737761689e-17)
(0.0428064181553698 0.00812253090564955 1.27855870318733e-16)
(0.201992754366333 0.0058453803402554 -1.12760218581782e-16)
(0.0449299243433891 0.00823351199895506 -3.47699536669314e-17)
(0.204452158090904 0.00597259011075807 -3.99254673612985e-16)
(0.0474217234877168 0.00833271332487908 -3.58002004733102e-16)
(0.207356306293919 0.00614254868675744 -3.95346349011819e-16)
(0.0503545289830539 0.00846767877534219 -5.76363777531362e-16)
(0.210810712491933 0.00631332394769532 -1.34164130950581e-16)
(0.0538668638372493 0.00864179128350463 -2.14658990357907e-16)
(0.214850590413263 0.00646586344246098 4.89205550381501e-17)
(0.0580239114835997 0.00877303623369372 -3.45470210105186e-18)
(0.219589011391733 0.00668508657811833 2.93741555257477e-16)
(0.0628783632983872 0.00891506143441242 1.2885974364969e-16)
(0.22527334277421 0.00694390859372538 3.24471348303561e-16)
(0.0686735192494626 0.0091600049816397 5.34463000677335e-16)
(0.232038097774266 0.00718232929657386 -6.3328569065327e-17)
(0.0756244491518244 0.00936777550548386 1.48012612512818e-16)
(0.240157439079387 0.00751956322395917 -1.52463751690859e-16)
(0.0838772612459264 0.00957718912539539 -4.09305807096623e-16)
(0.250182612302877 0.00806555269868368 -1.82534139480184e-16)
(0.0938911852816689 0.00997191027285225 -4.30104458697883e-18)
(0.262703007126854 0.00861848586069445 -3.55306909415416e-16)
(0.106469605050222 0.0105457509479023 -3.69813982030422e-16)
(0.277878137412997 0.00905349564265757 -5.44593761505786e-17)
(0.121979028212934 0.0109306522837991 -3.29045907380493e-16)
(0.296023381832938 0.00956775601265174 2.16867487933717e-16)
(0.140628009621853 0.011284950096282 2.74300835255839e-16)
(0.317643363269266 0.00985850066327146 8.21144821183396e-17)
(0.163117482727224 0.0117129787214504 2.47986299560366e-16)
(0.342422746421372 0.00972089145613759 -1.39222224855859e-16)
(0.189500349319684 0.0115746802060252 -6.18050121393356e-17)
(0.37038703673303 0.0094089901588095 -3.77383066565259e-17)
(0.219453315011676 0.0111509082374399 -2.64462176778542e-16)
(0.401659109779635 0.0088547988256791 1.82457834171694e-16)
(0.253142223468152 0.0105529652427511 2.42328451776874e-16)
(0.436123194886097 0.00800305345502985 1.93220996662677e-16)
(0.290570078304629 0.00959385572791599 1.66753049703565e-16)
(0.473750797847203 0.00694840321155054 1.10553008567403e-16)
(0.331636759207164 0.00836848216213229 1.91414032813506e-16)
(0.514579395136592 0.00563976740265102 8.02657636563905e-17)
(0.376262803884156 0.00691938661270856 -2.0466454737926e-17)
(0.558560553493995 0.00416750773298802 6.34387673047751e-17)
(0.424633309027188 0.00515390884953616 2.08424123570565e-16)
(0.60609782628681 0.00263302174937729 1.09088683040931e-17)
(0.47626807788416 0.00334119959549073 -1.30043507348501e-17)
(0.657704127962253 0.000980113645245838 7.17178634278197e-17)
(0.533319142623357 0.00136084713536209 1.7159266811576e-17)
(0.713850707197663 -0.000811165246199514 2.96960398603284e-17)
(0.592771473572475 -0.000743691693440167 1.53003781090114e-16)
(0.776228786290399 -0.00229843049467055 1.45093647203007e-17)
(0.663012879189409 -0.00297745402659927 -9.67830653172212e-17)
(0.847086456089398 -0.00373042514290628 5.3949129681094e-17)
(0.730739058336558 -0.0046862642755521 1.04184201098181e-16)
(0.918790525201957 -0.00168787562671565 -2.5036804694136e-18)
(0.832151951242645 -0.00631871587636029 2.72340517218818e-17)
(0.918734541617923 1.0040294189719e-09 -2.85490781634996e-17)
(0.871293526357922 0.000154505549547508 -2.51991567891312e-17)
(0.917419069784277 -2.39223990388425e-05 -2.78016047843983e-17)
(0.854670990228185 -0.000181956409525994 -2.84810699242621e-17)
(0.914539139292176 -5.01643020494425e-05 -1.45758375971571e-17)
(0.85911606328351 -6.98565267491661e-05 -1.62261490197212e-17)
(0.910570019999541 -7.46994341276604e-05 2.41584584274296e-17)
(0.851802387391907 -0.000149890250958283 8.04254055602139e-18)
(0.905787463325049 -0.000121396412662729 2.79000533223212e-17)
(0.848050614946826 -0.000147532090851366 5.70366551725504e-17)
(0.900389355410789 -0.000151233795950341 2.30879597607712e-17)
(0.841508283745878 -0.000187226505467799 1.72519555492337e-17)
(0.894457277913242 -0.000186834247147709 1.45610518260827e-17)
(0.83524261377844 -0.000214268502984678 3.74761313478275e-17)
(0.888125414774866 -0.000225539820680954 1.51087637542819e-18)
(0.828041464064006 -0.000250553059876472 -5.91153501045677e-18)
(0.88151094568099 -0.000258169231487565 6.44390166176236e-18)
(0.820645346374644 -0.000283231830138194 9.761388140798e-18)
(0.87475232626022 -0.000289738062282969 7.9265673454322e-18)
(0.812912866782252 -0.000313188032491885 1.03683134068112e-17)
(0.868004826573627 -0.000312401424317596 1.28877100119431e-17)
(0.805152106466711 -0.000335073920517443 1.39031256149245e-17)
(0.861424373983858 -0.000302734984100411 1.05233608247163e-17)
(0.797447383255098 -0.00035152665220109 1.56600100148821e-17)
(0.855615681093992 -0.000114173304951394 2.75335890510081e-18)
(0.790044413557613 -0.000360672191817318 7.37383920881118e-18)
(0.783820695014398 -0.000223440918057986 -3.75025299681368e-19)
(-0.119039577745099 0.00701325117283208 1.37402028465471e-17)
(-0.19587325210632 0.00785978170659396 1.04190291646549e-17)
(-0.117525066921396 0.00771143008096193 2.33587785824585e-17)
(-0.193688099673811 0.00857603998190856 1.99677129747173e-17)
(-0.116949003937557 0.00856464582650138 1.94581667091761e-17)
(-0.193602924051839 0.00991170650698586 3.32999199284102e-17)
(-0.11686854583055 0.00910481540420155 2.25712607003438e-17)
(-0.193687194180497 0.0107699589708645 2.28745754996857e-17)
(-0.117001443569717 0.00937582409511778 3.97195452611875e-17)
(-0.193905548731044 0.0111978523048197 4.38740477946581e-17)
(-0.117217714519345 0.00949651544452538 2.0662788565345e-17)
(-0.194185936946005 0.011386752998594 4.42215032466242e-17)
(-0.117462661441187 0.00954819563267391 2.35171486213856e-17)
(-0.194484549133976 0.011465272264705 1.58401204963948e-17)
(-0.117715452015176 0.00957239228870332 2.98709899754926e-17)
(-0.194786649598485 0.0114991013121954 3.7439744608436e-17)
(-0.117968978425312 0.00958722142786264 2.80834527629253e-17)
(-0.195088759726076 0.0115171693518906 8.94418341771675e-18)
(-0.118221107310764 0.00959980509826519 2.89901114652791e-17)
(-0.195389756126832 0.0115307731047653 3.00664622718454e-17)
(-0.118471625332867 0.0096127671492758 2.05032267870557e-17)
(-0.195689421299243 0.0115439691736526 3.53086999408283e-18)
(-0.118720268045673 0.00962650258008154 2.80144563207137e-17)
(-0.195987723067632 0.0115580281504561 2.01789816484836e-17)
(-0.118966684637089 0.00964010571967004 1.02900704808425e-16)
(-0.196284113624042 0.0115724941307436 2.89995871655556e-17)
(-0.119211334195053 0.00965293556655018 1.45555730432578e-16)
(-0.196578543817913 0.011586399650952 1.36611035390497e-16)
(-0.119454968043782 0.009665663016612 1.27664473116085e-16)
(-0.196871740025913 0.0115996703989562 9.99360297942834e-17)
(-0.119697063322444 0.00967925457825639 1.47121910575383e-16)
(-0.197163868970504 0.0116134041701419 1.26300172112793e-16)
(-0.119936542537872 0.00969298493731621 1.43068347654116e-16)
(-0.197453890994759 0.0116279534166632 1.64108048182723e-16)
(-0.120173884683941 0.00970545515454458 9.24664039937739e-17)
(-0.197741461599024 0.0116418391011316 1.29854203480789e-16)
(-0.120409862120933 0.00971658913431265 3.17835897336834e-17)
(-0.198027464020541 0.0116543300312779 4.42686127453148e-17)
(-0.120644430477196 0.00972747565290894 -8.25722682961356e-18)
(-0.198312495047859 0.0116659838663937 -3.39466909589279e-17)
(-0.120877127139466 0.00973940531623987 -9.66654892591534e-17)
(-0.19859623631489 0.0116780170359467 -1.4898344644815e-17)
(-0.121107424161555 0.00975275827207181 -4.02765501115305e-17)
(-0.198878090504248 0.0116913483929583 -8.40053980364713e-17)
(-0.12133457019618 0.00976675333814939 3.84997902940585e-18)
(-0.199157364185726 0.011705707431781 5.64920398656748e-17)
(-0.121558026499165 0.00978024990136829 5.11141211249643e-18)
(-0.199433155239119 0.0117200473565965 -4.82446080384668e-17)
(-0.12177825473618 0.0097931053424216 7.12990669959018e-17)
(-0.199705490357265 0.01173356672893 5.7316436324481e-17)
(-0.121995315011139 0.00980615419502327 -5.09732262650148e-17)
(-0.199974920011627 0.0117468289639383 4.93576446317423e-17)
(-0.122208179408085 0.00981976578199094 -9.42218090281692e-17)
(-0.200240940821224 0.0117605776721738 -1.19115328288417e-16)
(-0.122416042248092 0.00983334221458564 -4.49841274693142e-17)
(-0.20050239543151 0.0117746587381193 -1.89350927915409e-17)
(-0.122619331864252 0.00984684403274176 -1.12682923307158e-16)
(-0.200759208504089 0.0117883084270698 -1.29120580139526e-16)
(-0.122817274216796 0.00986121812440156 -3.28341749570235e-18)
(-0.201011518329029 0.0118022584913455 -1.32432682919854e-16)
(-0.123007958270402 0.00987598672882655 6.05839248528105e-17)
(-0.201257627371763 0.0118171927940726 1.1691740684796e-16)
(-0.123191548322945 0.00989034256291554 -1.45127867255534e-16)
(-0.201496552649145 0.0118316984797534 3.83156789182593e-17)
(-0.123368028431172 0.00990513109881292 -2.92734335083281e-16)
(-0.201728798961164 0.0118459252192274 -1.97036062764518e-16)
(-0.123535344334659 0.00992103566638381 -2.49772414687681e-16)
(-0.20195337875978 0.0118610257849693 -2.98453717985576e-16)
(-0.123691572834005 0.00993694839787212 -3.31253927664684e-16)
(-0.202167778832797 0.0118769038845591 -1.77522905002572e-16)
(-0.123837326395962 0.00995266202971226 -2.50991545593021e-16)
(-0.202371563589396 0.01189190776057 -5.18972787534117e-16)
(-0.12397100793946 0.00997012435199516 3.11492257582557e-17)
(-0.20256495815287 0.0119074120768853 -3.02217321478012e-17)
(-0.124088426798055 0.00998865016347042 -4.65523571658718e-19)
(-0.202744334065115 0.0119250255004613 1.2001234331838e-16)
(-0.124189090590064 0.010006651573067 -1.07018968499588e-17)