/*--------------------------------*- C++ -*----------------------------------*\
| =========                 |                                                 |
| \\      /  F ield         | OpenFOAM: The Open Source CFD Toolbox           |
|  \\    /   O peration     | Version:  4.1                                   |
|   \\  /    A nd           | Web:      www.OpenFOAM.org                      |
|    \\/     M anipulation  |                                                 |
\*---------------------------------------------------------------------------*/
FoamFile
{
    version     2.0;
    format      ascii;
    class       pointVectorField;
    location    "0.0000";
    object      pointDisplacement_Next_Iter3;
}
// * * * * * * * * * * * * * * * * * * * * * * * * * * * * * * * * * * * * * //

dimensions      [0 1 0 0 0 0 0];

internalField   uniform (0 0 0);

boundaryField
{
    inlet
    {
        type            fixedValue;
        value           uniform (0 0 0);
    }
    outlet
    {
        type            fixedValue;
        value           uniform (0 0 0);
    }
    mantle
    {
        type            fixedValue;
        value           nonuniform List<vector> 
1568
(
(4.8045e-14 -2.1135e-12 1.1304e-21)
(1.3865e-07 -5.4414e-06 8.6342e-15)
(1.4723e-07 -5.1575e-06 9.2029e-07)
(-3.6843e-10 -2.6826e-08 -1.7133e-08)
(1.5478e-07 -4.6611e-06 1.9313e-06)
(4.2584e-14 -2.7452e-12 1.0552e-12)
(1.4693e-07 -4.2996e-06 2.9985e-06)
(-3.8387e-10 -6.9852e-09 3.1114e-08)
(1.3822e-07 -3.8506e-06 3.8506e-06)
(5.3346e-14 -6.197e-13 6.197e-13)
(1.4693e-07 -2.9985e-06 4.2996e-06)
(-3.8387e-10 -3.1113e-08 6.9851e-09)
(1.5478e-07 -1.9313e-06 4.6611e-06)
(4.2584e-14 -1.0552e-12 2.7452e-12)
(1.4723e-07 -9.2029e-07 5.1575e-06)
(-3.6842e-10 1.7133e-08 2.6826e-08)
(1.3865e-07 -7.7812e-13 5.4415e-06)
(4.8045e-14 -3.47e-19 2.1135e-12)
(3.2047e-07 -8.762e-06 2.7218e-14)
(3.3806e-07 -8.2113e-06 1.4774e-06)
(3.5102e-07 -7.4107e-06 3.0705e-06)
(3.3763e-07 -6.8551e-06 4.7657e-06)
(3.1981e-07 -6.2016e-06 6.2016e-06)
(3.3763e-07 -4.7657e-06 6.8551e-06)
(3.5102e-07 -3.0704e-06 7.4107e-06)
(3.3806e-07 -1.4774e-06 8.2113e-06)
(3.2047e-07 -9.9556e-13 8.762e-06)
(5.075e-07 -8.222e-06 5.3452e-14)
(5.1214e-07 -7.9441e-06 1.5045e-06)
(5.1782e-07 -7.3504e-06 3.045e-06)
(5.1196e-07 -6.6869e-06 4.558e-06)
(5.0725e-07 -5.8213e-06 5.8213e-06)
(5.1196e-07 -4.558e-06 6.6869e-06)
(5.1782e-07 -3.045e-06 7.3504e-06)
(5.1214e-07 -1.5045e-06 7.9441e-06)
(5.075e-07 -4.9015e-13 8.222e-06)
(4.9671e-07 -6.1499e-06 5.3609e-14)
(4.9132e-07 -6.1693e-06 1.2433e-06)
(4.9561e-07 -5.8779e-06 2.4345e-06)
(4.9143e-07 -5.2481e-06 3.4876e-06)
(4.969e-07 -4.3567e-06 4.3567e-06)
(4.9143e-07 -3.4876e-06 5.2481e-06)
(4.9561e-07 -2.4344e-06 5.8779e-06)
(4.9132e-07 -1.2433e-06 6.1693e-06)
(4.9671e-07 -2.9549e-13 6.1499e-06)
(1.9717e-07 -5.2034e-06 -1.2887e-13)
(2.1686e-07 -5.1407e-06 1.0307e-06)
(2.3625e-07 -4.8736e-06 2.0189e-06)
(2.1695e-07 -4.3702e-06 2.9109e-06)
(1.9731e-07 -3.6874e-06 3.6874e-06)
(2.1695e-07 -2.9109e-06 4.3702e-06)
(2.3625e-07 -2.0189e-06 4.8735e-06)
(2.1686e-07 -1.0307e-06 5.1407e-06)
(1.9717e-07 -2.8928e-13 5.2034e-06)
(-9.4652e-08 -5.063e-06 -1.6742e-13)
(-4.8568e-08 -4.8709e-06 9.3768e-07)
(-1.3406e-08 -4.5209e-06 1.8732e-06)
(-4.8603e-08 -4.1133e-06 2.7862e-06)
(-9.4724e-08 -3.588e-06 3.588e-06)
(-4.8603e-08 -2.7862e-06 4.1133e-06)
(-1.3407e-08 -1.8732e-06 4.5209e-06)
(-4.8569e-08 -9.3768e-07 4.8709e-06)
(-9.4653e-08 -5.4409e-13 5.063e-06)
(-9.0106e-08 -4.6746e-06 -3.0474e-13)
(-7.0464e-08 -4.5166e-06 8.5851e-07)
(-5.1671e-08 -4.1845e-06 1.7337e-06)
(-7.0496e-08 -3.8066e-06 2.5913e-06)
(-9.0155e-08 -3.313e-06 3.313e-06)
(-7.0496e-08 -2.5913e-06 3.8066e-06)
(-5.1671e-08 -1.7337e-06 4.1845e-06)
(-7.0464e-08 -8.5851e-07 4.5166e-06)
(-9.0107e-08 -4.3823e-13 4.6746e-06)
(2.1857e-08 -4.0294e-06 -2.2409e-13)
(1.6514e-08 -3.926e-06 7.5982e-07)
(1.9181e-08 -3.6628e-06 1.5173e-06)
(1.6549e-08 -3.3191e-06 2.2431e-06)
(2.1918e-08 -2.8565e-06 2.8565e-06)
(1.6549e-08 -2.2431e-06 3.3191e-06)
(1.9181e-08 -1.5173e-06 3.6628e-06)
(1.6515e-08 -7.5982e-07 3.926e-06)
(2.1858e-08 1.4815e-13 4.0294e-06)
(2.7473e-09 -3.3726e-06 2.0542e-10)
(7.229e-09 -3.3004e-06 6.4622e-07)
(1.2214e-08 -3.0979e-06 1.2836e-06)
(7.2683e-09 -2.7962e-06 1.8813e-06)
(2.8044e-09 -2.3921e-06 2.3918e-06)
(7.2687e-09 -1.8813e-06 2.7962e-06)
(1.2215e-08 -1.2836e-06 3.0979e-06)
(7.2301e-09 -6.4621e-07 3.3004e-06)
(2.7485e-09 -2.0484e-10 3.3726e-06)
(-7.9412e-08 -2.7921e-06 4.2807e-13)
(-6.3133e-08 -2.7415e-06 5.4562e-07)
(-5.0092e-08 -2.5847e-06 1.0713e-06)
(-6.3126e-08 -2.3295e-06 1.5573e-06)
(-7.9404e-08 -1.9814e-06 1.9814e-06)
(-6.3126e-08 -1.5573e-06 2.3295e-06)
(-5.0092e-08 -1.0713e-06 2.5847e-06)
(-6.3133e-08 -5.4562e-07 2.7415e-06)
(-7.9411e-08 4.5948e-13 2.7921e-06)
(-8.8536e-08 -2.284e-06 6.7241e-12)
(-8.1897e-08 -2.2447e-06 4.4845e-07)
(-7.5701e-08 -2.1208e-06 8.7885e-07)
(-8.1897e-08 -1.9097e-06 1.2745e-06)
(-8.8536e-08 -1.622e-06 1.622e-06)
(-8.1897e-08 -1.2745e-06 1.9097e-06)
(-7.5702e-08 -8.7884e-07 2.1207e-06)
(-8.1897e-08 -4.4844e-07 2.2447e-06)
(-8.8536e-08 -6.102e-12 2.284e-06)
(-5.7381e-08 -1.8306e-06 3.0337e-13)
(-5.9761e-08 -1.7974e-06 3.5889e-07)
(-6.0293e-08 -1.699e-06 7.0381e-07)
(-5.975e-08 -1.5302e-06 1.0212e-06)
(-5.7365e-08 -1.3014e-06 1.3014e-06)
(-5.975e-08 -1.0212e-06 1.5302e-06)
(-6.0294e-08 -7.0381e-07 1.699e-06)
(-5.9762e-08 -3.5889e-07 1.7974e-06)
(-5.7383e-08 1.6778e-14 1.8306e-06)
(-5.1252e-08 -1.3892e-06 1.7283e-11)
(-5.2113e-08 -1.3662e-06 2.7371e-07)
(-5.2757e-08 -1.2928e-06 5.3583e-07)
(-5.209e-08 -1.1648e-06 7.7662e-07)
(-5.1219e-08 -9.8905e-07 9.8903e-07)
(-5.2091e-08 -7.7662e-07 1.1648e-06)
(-5.2757e-08 -5.3583e-07 1.2927e-06)
(-5.2114e-08 -2.7371e-07 1.3662e-06)
(-5.1253e-08 -1.7725e-11 1.3893e-06)
(-5.9851e-08 -9.6865e-07 -4.0213e-13)
(-5.7855e-08 -9.5533e-07 1.9185e-07)
(-5.6758e-08 -9.057e-07 3.7644e-07)
(-5.7417e-08 -8.1681e-07 5.4429e-07)
(-5.9811e-08 -6.9148e-07 6.9148e-07)
(-5.7417e-08 -5.4428e-07 8.1681e-07)
(-5.6758e-08 -3.7644e-07 9.057e-07)
(-5.7855e-08 -1.9185e-07 9.5534e-07)
(-5.9851e-08 -2.0241e-13 9.6866e-07)
(-5.8287e-08 -5.9857e-07 -8.0838e-11)
(-5.775e-08 -5.8869e-07 1.1789e-07)
(-5.7293e-08 -5.5758e-07 2.3132e-07)
(-5.7727e-08 -5.0448e-07 3.3681e-07)
(-5.8254e-08 -4.296e-07 4.2948e-07)
(-5.7728e-08 -3.3681e-07 5.0448e-07)
(-5.7294e-08 -2.3132e-07 5.5757e-07)
(-5.775e-08 -1.1789e-07 5.8869e-07)
(-5.8286e-08 8.0653e-11 5.9857e-07)
(-5.0947e-08 -2.6525e-07 -1.3741e-13)
(-5.1725e-08 -2.5813e-07 5.0272e-08)
(-5.232e-08 -2.4292e-07 1.0069e-07)
(-5.1705e-08 -2.2292e-07 1.5053e-07)
(-5.0921e-08 -1.937e-07 1.937e-07)
(-5.1705e-08 -1.5053e-07 2.2292e-07)
(-5.232e-08 -1.0069e-07 2.4292e-07)
(-5.1724e-08 -5.0272e-08 2.5813e-07)
(-5.0946e-08 1.3422e-13 2.6524e-07)
(-4.6079e-08 4.9235e-08 -1.6262e-11)
(-4.661e-08 4.8765e-08 -1.0222e-08)
(-4.7099e-08 4.4901e-08 -1.8279e-08)
(-4.6584e-08 3.7129e-08 -2.36e-08)
(-4.6043e-08 2.8883e-08 -2.8906e-08)
(-4.6585e-08 2.3599e-08 -3.713e-08)
(-4.71e-08 1.8278e-08 -4.4902e-08)
(-4.661e-08 1.0222e-08 -4.8767e-08)
(-4.6079e-08 1.6056e-11 -4.9237e-08)
(-4.2723e-08 3.3865e-07 -1.5272e-13)
(-4.2915e-08 3.3046e-07 -6.5157e-08)
(-4.3103e-08 3.082e-07 -1.2688e-07)
(-4.2882e-08 2.7551e-07 -1.8383e-07)
(-4.2675e-08 2.3368e-07 -2.3368e-07)
(-4.2882e-08 1.8383e-07 -2.7551e-07)
(-4.3103e-08 1.2688e-07 -3.082e-07)
(-4.2915e-08 6.5156e-08 -3.3046e-07)
(-4.2724e-08 -3.5319e-13 -3.3865e-07)
(-3.8891e-08 5.9281e-07 -3.5177e-11)
(-3.9208e-08 5.7972e-07 -1.146e-07)
(-3.9521e-08 5.4311e-07 -2.2464e-07)
(-3.9174e-08 4.8669e-07 -3.2543e-07)
(-3.8843e-08 4.1366e-07 -4.1361e-07)
(-3.9174e-08 3.2543e-07 -4.8669e-07)
(-3.9521e-08 2.2464e-07 -5.431e-07)
(-3.9208e-08 1.146e-07 -5.7972e-07)
(-3.8891e-08 3.4749e-11 -5.9281e-07)
(-3.4716e-08 8.1914e-07 1.1712e-13)
(-3.5237e-08 8.0227e-07 -1.5927e-07)
(-3.576e-08 7.5303e-07 -3.1186e-07)
(-3.5205e-08 6.7567e-07 -4.5157e-07)
(-3.4671e-08 5.7384e-07 -5.7384e-07)
(-3.5205e-08 4.5157e-07 -6.7567e-07)
(-3.576e-08 3.1186e-07 -7.5303e-07)
(-3.5237e-08 1.5927e-07 -8.0227e-07)
(-3.4717e-08 -2.8205e-13 -8.1913e-07)
(-3.0746e-08 1.0228e-06 7.7823e-12)
(-3.1112e-08 1.0016e-06 -1.9862e-07)
(-3.1463e-08 9.4054e-07 -3.8932e-07)
(-3.1078e-08 8.4472e-07 -5.6465e-07)
(-3.0698e-08 7.181e-07 -7.1811e-07)
(-3.1078e-08 5.6465e-07 -8.4472e-07)
(-3.1463e-08 3.8932e-07 -9.4055e-07)
(-3.1112e-08 1.9862e-07 -1.0016e-06)
(-3.0746e-08 -7.8617e-12 -1.0228e-06)
(-2.6884e-08 1.2021e-06 1.1255e-13)
(-2.713e-08 1.1768e-06 -2.3305e-07)
(-2.7348e-08 1.1053e-06 -4.5748e-07)
(-2.7094e-08 9.9327e-07 -6.6411e-07)
(-2.6832e-08 8.4504e-07 -8.4504e-07)
(-2.7094e-08 6.6411e-07 -9.9327e-07)
(-2.7348e-08 4.5748e-07 -1.1053e-06)
(-2.713e-08 2.3306e-07 -1.1768e-06)
(-2.6884e-08 -2.3373e-13 -1.2021e-06)
(-2.3345e-08 1.3524e-06 6.0224e-12)
(-2.357e-08 1.3245e-06 -2.6257e-07)
(-2.3786e-08 1.2446e-06 -5.1524e-07)
(-2.3536e-08 1.1186e-06 -7.4796e-07)
(-2.3297e-08 9.5153e-07 -9.5152e-07)
(-2.3536e-08 7.4796e-07 -1.1186e-06)
(-2.3786e-08 5.1524e-07 -1.2446e-06)
(-2.3569e-08 2.6257e-07 -1.3246e-06)
(-2.3345e-08 -6.1862e-12 -1.3524e-06)
(-1.9915e-08 1.4797e-06 3.5154e-14)
(-2.0183e-08 1.4497e-06 -2.8776e-07)
(-2.0458e-08 1.3627e-06 -5.6441e-07)
(-2.015e-08 1.225e-06 -8.1898e-07)
(-1.987e-08 1.0417e-06 -1.0417e-06)
(-2.015e-08 8.1898e-07 -1.225e-06)
(-2.0458e-08 5.6441e-07 -1.3627e-06)
(-2.0183e-08 2.8776e-07 -1.4497e-06)
(-1.9915e-08 -1.8711e-13 -1.4797e-06)
(-1.6498e-08 1.5878e-06 2.2744e-12)
(-1.6682e-08 1.5556e-06 -3.0864e-07)
(-1.6854e-08 1.4624e-06 -6.055e-07)
(-1.6644e-08 1.3148e-06 -8.7902e-07)
(-1.6445e-08 1.1184e-06 -1.1184e-06)
(-1.6644e-08 8.7902e-07 -1.3148e-06)
(-1.6854e-08 6.055e-07 -1.4624e-06)
(-1.6682e-08 3.0864e-07 -1.5556e-06)
(-1.6498e-08 -2.2693e-12 -1.5878e-06)
(-1.3135e-08 1.6752e-06 -1.3619e-13)
(-1.3264e-08 1.6406e-06 -3.2522e-07)
(-1.3364e-08 1.5421e-06 -6.3833e-07)
(-1.3228e-08 1.3867e-06 -9.2732e-07)
(-1.3075e-08 1.1803e-06 -1.1803e-06)
(-1.3228e-08 9.2732e-07 -1.3867e-06)
(-1.3364e-08 6.3833e-07 -1.5421e-06)
(-1.3264e-08 3.2522e-07 -1.6406e-06)
(-1.3135e-08 3.0969e-13 -1.6752e-06)
(-1.0094e-08 1.738e-06 -4.7366e-12)
(-1.0183e-08 1.7026e-06 -3.3763e-07)
(-1.0262e-08 1.6006e-06 -6.6275e-07)
(-1.0145e-08 1.4396e-06 -9.6266e-07)
(-1.0039e-08 1.2249e-06 -1.225e-06)
(-1.0145e-08 9.6266e-07 -1.4396e-06)
(-1.0262e-08 6.6275e-07 -1.6006e-06)
(-1.0183e-08 3.3763e-07 -1.7026e-06)
(-1.0094e-08 -4.2789e-12 -1.738e-06)
(-7.2034e-09 1.7815e-06 -3.2589e-13)
(-7.2879e-09 1.7453e-06 -3.4626e-07)
(-7.3729e-09 1.6408e-06 -6.7962e-07)
(-7.2519e-09 1.4759e-06 -9.8705e-07)
(-7.1532e-09 1.2559e-06 -1.2559e-06)
(-7.252e-09 9.8706e-07 -1.4759e-06)
(-7.3731e-09 6.7962e-07 -1.6408e-06)
(-7.2882e-09 3.4626e-07 -1.7453e-06)
(-7.2038e-09 2.5682e-13 -1.7815e-06)
(-4.3242e-09 1.8089e-06 -9.0556e-12)
(-4.3795e-09 1.7722e-06 -3.5155e-07)
(-4.4231e-09 1.6664e-06 -6.9004e-07)
(-4.34e-09 1.4989e-06 -1.0023e-06)
(-4.268e-09 1.2755e-06 -1.2755e-06)
(-4.3401e-09 1.0023e-06 -1.4989e-06)
(-4.4234e-09 6.9004e-07 -1.6664e-06)
(-4.38e-09 3.5155e-07 -1.7722e-06)
(-4.3247e-09 8.8727e-12 -1.8089e-06)
(-1.5444e-09 1.8192e-06 -1.4221e-13)
(-1.5761e-09 1.7819e-06 -3.5331e-07)
(-1.5849e-09 1.6754e-06 -6.9374e-07)
(-1.5367e-09 1.5072e-06 -1.0079e-06)
(-1.4817e-09 1.2829e-06 -1.2829e-06)
(-1.5367e-09 1.0079e-06 -1.5072e-06)
(-1.5851e-09 6.9374e-07 -1.6754e-06)
(-1.5765e-09 3.5332e-07 -1.7819e-06)
(-1.5448e-09 -8.8565e-14 -1.8192e-06)
(9.3742e-10 1.8095e-06 6.3157e-12)
(9.623e-10 1.7727e-06 -3.516e-07)
(9.9797e-10 1.6669e-06 -6.9026e-07)
(1.0031e-09 1.4996e-06 -1.0029e-06)
(9.954e-10 1.2762e-06 -1.2762e-06)
(1.0031e-09 1.0029e-06 -1.4996e-06)
(9.9803e-10 6.9026e-07 -1.6669e-06)
(9.624e-10 3.516e-07 -1.7727e-06)
(9.3753e-10 -6.5538e-12 -1.8095e-06)
(3.2523e-09 1.784e-06 1.3766e-13)
(3.323e-09 1.7477e-06 -3.4669e-07)
(3.3988e-09 1.6433e-06 -6.8066e-07)
(3.362e-09 1.4786e-06 -9.8891e-07)
(3.3069e-09 1.2584e-06 -1.2584e-06)
(3.3622e-09 9.8891e-07 -1.4786e-06)
(3.3991e-09 6.8066e-07 -1.6433e-06)
(3.3235e-09 3.4669e-07 -1.7477e-06)
(3.2529e-09 -2.8974e-13 -1.784e-06)
(5.5775e-09 1.7457e-06 4.0891e-12)
(5.6287e-09 1.7103e-06 -3.3926e-07)
(5.6929e-09 1.6084e-06 -6.6607e-07)
(5.6728e-09 1.4471e-06 -9.6773e-07)
(5.6403e-09 1.2315e-06 -1.2315e-06)
(5.673e-09 9.6773e-07 -1.4471e-06)
(5.6933e-09 6.6607e-07 -1.6084e-06)
(5.6292e-09 3.3926e-07 -1.7103e-06)
(5.578e-09 -4.0058e-12 -1.7457e-06)
(7.7671e-09 1.694e-06 2.3584e-15)
(7.8125e-09 1.6594e-06 -3.2906e-07)
(7.8762e-09 1.5604e-06 -6.4611e-07)
(7.8604e-09 1.404e-06 -9.3894e-07)
(7.8368e-09 1.1951e-06 -1.1951e-06)
(7.8605e-09 9.3894e-07 -1.404e-06)
(7.8764e-09 6.4612e-07 -1.5604e-06)
(7.8127e-09 3.2906e-07 -1.6594e-06)
(7.7673e-09 1.8159e-13 -1.694e-06)
(9.6641e-09 1.6266e-06 7.8491e-13)
(9.7798e-09 1.5937e-06 -3.1612e-07)
(9.9063e-09 1.4987e-06 -6.2064e-07)
(9.8224e-09 1.3485e-06 -9.0181e-07)
(9.7246e-09 1.1477e-06 -1.1477e-06)
(9.8224e-09 9.0181e-07 -1.3485e-06)
(9.9063e-09 6.2065e-07 -1.4987e-06)
(9.7798e-09 3.1612e-07 -1.5937e-06)
(9.664e-09 -7.84e-13 -1.6266e-06)
(1.1405e-08 1.5471e-06 -1.0567e-13)
(1.1598e-08 1.5157e-06 -3.0064e-07)
(1.1795e-08 1.4253e-06 -5.9034e-07)
(1.1636e-08 1.2825e-06 -8.5787e-07)
(1.1458e-08 1.0917e-06 -1.0917e-06)
(1.1636e-08 8.5787e-07 -1.2825e-06)
(1.1795e-08 5.9034e-07 -1.4253e-06)
(1.1597e-08 3.0064e-07 -1.5157e-06)
(1.1405e-08 -1.4713e-13 -1.5471e-06)
(1.321e-08 1.4582e-06 5.8348e-12)
(1.3325e-08 1.4287e-06 -2.8335e-07)
(1.3452e-08 1.3436e-06 -5.5642e-07)
(1.3368e-08 1.2089e-06 -8.0858e-07)
(1.3272e-08 1.029e-06 -1.029e-06)
(1.3368e-08 8.0858e-07 -1.2089e-06)
(1.3452e-08 5.5642e-07 -1.3436e-06)
(1.3324e-08 2.8335e-07 -1.4287e-06)
(1.321e-08 -6.0617e-12 -1.4582e-06)
(1.4751e-08 1.3594e-06 5.8645e-14)
(1.4811e-08 1.3317e-06 -2.6406e-07)
(1.4894e-08 1.2523e-06 -5.1867e-07)
(1.4858e-08 1.127e-06 -7.5368e-07)
(1.4822e-08 9.5933e-07 -9.5933e-07)
(1.4858e-08 7.5368e-07 -1.127e-06)
(1.4894e-08 5.1867e-07 -1.2523e-06)
(1.4811e-08 2.6406e-07 -1.3317e-06)
(1.4751e-08 -2.3076e-13 -1.3594e-06)
(1.5812e-08 1.2491e-06 9.5282e-13)
(1.599e-08 1.2239e-06 -2.4279e-07)
(1.6176e-08 1.151e-06 -4.7665e-07)
(1.6034e-08 1.0358e-06 -6.9264e-07)
(1.5873e-08 8.8151e-07 -8.8151e-07)
(1.6034e-08 6.9264e-07 -1.0358e-06)
(1.6176e-08 4.7665e-07 -1.151e-06)
(1.599e-08 2.4279e-07 -1.2239e-06)
(1.5812e-08 -1.2119e-12 -1.2491e-06)
(1.6984e-08 1.1306e-06 -6.4181e-14)
(1.7276e-08 1.1077e-06 -2.1969e-07)
(1.7538e-08 1.0416e-06 -4.3144e-07)
(1.7316e-08 9.374e-07 -6.2704e-07)
(1.7039e-08 7.9794e-07 -7.9794e-07)
(1.7316e-08 6.2704e-07 -9.374e-07)
(1.7538e-08 4.3144e-07 -1.0416e-06)
(1.7276e-08 2.1969e-07 -1.1077e-06)
(1.6984e-08 -2.0915e-13 -1.1306e-06)
(1.8615e-08 1.0067e-06 -8.3214e-14)
(1.8648e-08 9.8609e-07 -1.9546e-07)
(1.8699e-08 9.2716e-07 -3.8398e-07)
(1.8696e-08 8.3444e-07 -5.5825e-07)
(1.8684e-08 7.1053e-07 -7.1053e-07)
(1.8696e-08 5.5825e-07 -8.3444e-07)
(1.87e-08 3.8399e-07 -9.2716e-07)
(1.8648e-08 1.9546e-07 -9.8609e-07)
(1.8616e-08 9.9612e-14 -1.0067e-06)
(1.917e-08 8.7558e-07 -7.1063e-14)
(1.8966e-08 8.5742e-07 -1.6991e-07)
(1.8856e-08 8.0599e-07 -3.3375e-07)
(1.9021e-08 7.2558e-07 -4.854e-07)
(1.9251e-08 6.1798e-07 -6.1798e-07)
(1.9021e-08 4.854e-07 -7.2558e-07)
(1.8856e-08 3.3375e-07 -8.0599e-07)
(1.8966e-08 1.6991e-07 -8.5743e-07)
(1.9171e-08 3.0667e-13 -8.7559e-07)
(1.7905e-08 7.3581e-07 -1.2012e-13)
(1.8032e-08 7.2091e-07 -1.429e-07)
(1.8158e-08 6.7799e-07 -2.8082e-07)
(1.8079e-08 6.1011e-07 -4.0813e-07)
(1.7972e-08 5.1937e-07 -5.1937e-07)
(1.8079e-08 4.0813e-07 -6.1011e-07)
(1.8158e-08 2.8082e-07 -6.7799e-07)
(1.8032e-08 1.4291e-07 -7.2092e-07)
(1.7906e-08 2.0681e-13 -7.3582e-07)
(1.7656e-08 5.9307e-07 -6.8799e-15)
(1.8108e-08 5.8126e-07 -1.1516e-07)
(1.8417e-08 5.4653e-07 -2.2638e-07)
(1.8146e-08 4.9187e-07 -3.2917e-07)
(1.7708e-08 4.1864e-07 -4.1864e-07)
(1.8146e-08 3.2917e-07 -4.9187e-07)
(1.8417e-08 2.2638e-07 -5.4653e-07)
(1.8108e-08 1.1516e-07 -5.8127e-07)
(1.7656e-08 -1.5965e-13 -5.9308e-07)
(1.9985e-08 4.5127e-07 5.2737e-14)
(1.9939e-08 4.4116e-07 -8.691e-08)
(1.9912e-08 4.1382e-07 -1.714e-07)
(1.9982e-08 3.7297e-07 -2.5017e-07)
(2.0047e-08 3.1855e-07 -3.1855e-07)
(1.9982e-08 2.5018e-07 -3.7297e-07)
(1.9912e-08 1.714e-07 -4.1383e-07)
(1.9939e-08 8.6911e-08 -4.4116e-07)
(1.9985e-08 -1.6146e-13 -4.5127e-07)
(1.9843e-08 3.0371e-07 9.0357e-14)
(1.9297e-08 2.9545e-07 -5.7688e-08)
(1.8912e-08 2.76e-07 -1.1429e-07)
(1.9343e-08 2.4942e-07 -1.6788e-07)
(1.9911e-08 2.1438e-07 -2.1438e-07)
(1.9343e-08 1.6788e-07 -2.4943e-07)
(1.8912e-08 1.1429e-07 -2.76e-07)
(1.9297e-08 5.7688e-08 -2.9545e-07)
(1.9843e-08 -6.9031e-14 -3.0371e-07)
(1.2487e-08 1.4738e-07 4.4021e-14)
(1.2227e-08 1.4352e-07 -2.7901e-08)
(1.1985e-08 1.3396e-07 -5.5461e-08)
(1.2253e-08 1.2108e-07 -8.1628e-08)
(1.2525e-08 1.0404e-07 -1.0404e-07)
(1.2253e-08 8.1628e-08 -1.2109e-07)
(1.1984e-08 5.5461e-08 -1.3396e-07)
(1.2227e-08 2.7901e-08 -1.4352e-07)
(1.2487e-08 2.379e-14 -1.4738e-07)
(5.2354e-15 5.324e-14 6.4422e-21)
(2.8331e-11 2.2133e-10 8.4157e-11)
(6.2277e-15 2.1604e-14 -8.4524e-15)
(2.9578e-11 8.8459e-11 -2.1472e-10)
(3.7401e-15 7.1592e-14 -7.1592e-14)
(2.9577e-11 2.1473e-10 -8.8471e-11)
(6.2277e-15 8.452e-15 -2.1603e-14)
(2.833e-11 -8.4152e-11 -2.2133e-10)
(5.2354e-15 4.6116e-20 -5.3239e-14)
(1.4723e-07 9.2028e-07 5.1575e-06)
(-3.6842e-10 -1.7133e-08 2.6827e-08)
(1.5478e-07 1.9313e-06 4.6611e-06)
(4.2584e-14 1.0552e-12 2.7452e-12)
(1.4693e-07 2.9985e-06 4.2996e-06)
(-3.8388e-10 3.1114e-08 6.9851e-09)
(1.3822e-07 3.8506e-06 3.8506e-06)
(5.3346e-14 6.197e-13 6.197e-13)
(1.4693e-07 4.2996e-06 2.9985e-06)
(-3.8387e-10 6.9851e-09 3.1113e-08)
(1.5478e-07 4.6611e-06 1.9313e-06)
(4.2584e-14 2.7452e-12 1.0552e-12)
(1.4723e-07 5.1575e-06 9.2029e-07)
(-3.6842e-10 2.6826e-08 -1.7133e-08)
(1.3865e-07 5.4414e-06 -3.3393e-15)
(4.8045e-14 2.1135e-12 -2.4695e-20)
(3.3806e-07 1.4774e-06 8.2113e-06)
(3.5102e-07 3.0705e-06 7.4107e-06)
(3.3763e-07 4.7657e-06 6.8551e-06)
(3.1981e-07 6.2016e-06 6.2016e-06)
(3.3763e-07 6.8551e-06 4.7657e-06)
(3.5102e-07 7.4107e-06 3.0705e-06)
(3.3806e-07 8.2113e-06 1.4774e-06)
(3.2047e-07 8.762e-06 -8.4487e-15)
(5.1214e-07 1.5045e-06 7.9441e-06)
(5.1782e-07 3.045e-06 7.3504e-06)
(5.1196e-07 4.558e-06 6.6869e-06)
(5.0725e-07 5.8213e-06 5.8213e-06)
(5.1196e-07 6.6869e-06 4.558e-06)
(5.1782e-07 7.3504e-06 3.045e-06)
(5.1214e-07 7.9441e-06 1.5045e-06)
(5.075e-07 8.222e-06 -1.318e-14)
(4.9132e-07 1.2433e-06 6.1693e-06)
(4.9561e-07 2.4345e-06 5.8779e-06)
(4.9143e-07 3.4876e-06 5.2481e-06)
(4.969e-07 4.3567e-06 4.3567e-06)
(4.9143e-07 5.2481e-06 3.4876e-06)
(4.9561e-07 5.8779e-06 2.4345e-06)
(4.9132e-07 6.1693e-06 1.2433e-06)
(4.9671e-07 6.1499e-06 -1.4325e-14)
(2.1686e-07 1.0307e-06 5.1407e-06)
(2.3625e-07 2.0189e-06 4.8736e-06)
(2.1695e-07 2.9109e-06 4.3702e-06)
(1.9731e-07 3.6874e-06 3.6874e-06)
(2.1695e-07 4.3702e-06 2.9109e-06)
(2.3625e-07 4.8736e-06 2.0189e-06)
(2.1686e-07 5.1407e-06 1.0307e-06)
(1.9717e-07 5.2034e-06 -1.0138e-13)
(-4.8569e-08 9.3768e-07 4.8709e-06)
(-1.3407e-08 1.8732e-06 4.5209e-06)
(-4.8603e-08 2.7862e-06 4.1133e-06)
(-9.4724e-08 3.588e-06 3.588e-06)
(-4.8603e-08 4.1133e-06 2.7862e-06)
(-1.3406e-08 4.5209e-06 1.8732e-06)
(-4.8569e-08 4.8709e-06 9.3768e-07)
(-9.4652e-08 5.063e-06 2.6265e-14)
(-7.0464e-08 8.5851e-07 4.5166e-06)
(-5.1671e-08 1.7337e-06 4.1845e-06)
(-7.0496e-08 2.5913e-06 3.8066e-06)
(-9.0155e-08 3.313e-06 3.313e-06)
(-7.0496e-08 3.8066e-06 2.5913e-06)
(-5.1671e-08 4.1845e-06 1.7337e-06)
(-7.0464e-08 4.5166e-06 8.5851e-07)
(-9.0107e-08 4.6746e-06 3.9394e-14)
(1.6515e-08 7.5982e-07 3.926e-06)
(1.9181e-08 1.5173e-06 3.6628e-06)
(1.6549e-08 2.2431e-06 3.3191e-06)
(2.1917e-08 2.8565e-06 2.8565e-06)
(1.6548e-08 3.3191e-06 2.2431e-06)
(1.9181e-08 3.6628e-06 1.5173e-06)
(1.6514e-08 3.926e-06 7.5982e-07)
(2.1858e-08 4.0294e-06 2.5599e-14)
(7.2301e-09 6.4622e-07 3.3004e-06)
(1.2215e-08 1.2836e-06 3.0979e-06)
(7.2685e-09 1.8813e-06 2.7962e-06)
(2.8042e-09 2.3921e-06 2.3918e-06)
(7.2683e-09 2.7962e-06 1.8813e-06)
(1.2215e-08 3.0979e-06 1.2836e-06)
(7.2296e-09 3.3004e-06 6.4621e-07)
(2.7481e-09 3.3726e-06 2.0524e-10)
(-6.3133e-08 5.4562e-07 2.7415e-06)
(-5.0092e-08 1.0713e-06 2.5847e-06)
(-6.3126e-08 1.5573e-06 2.3295e-06)
(-7.9403e-08 1.9814e-06 1.9814e-06)
(-6.3126e-08 2.3295e-06 1.5573e-06)
(-5.0092e-08 2.5847e-06 1.0713e-06)
(-6.3133e-08 2.7415e-06 5.4562e-07)
(-7.9411e-08 2.7921e-06 -1.1194e-13)
(-8.1897e-08 4.4844e-07 2.2447e-06)
(-7.5702e-08 8.7884e-07 2.1207e-06)
(-8.1897e-08 1.2745e-06 1.9097e-06)
(-8.8537e-08 1.622e-06 1.622e-06)
(-8.1897e-08 1.9097e-06 1.2745e-06)
(-7.5702e-08 2.1207e-06 8.7884e-07)
(-8.1897e-08 2.2447e-06 4.4844e-07)
(-8.8536e-08 2.284e-06 -6.4325e-12)
(-5.9763e-08 3.5889e-07 1.7974e-06)
(-6.0294e-08 7.0381e-07 1.699e-06)
(-5.9751e-08 1.0212e-06 1.5302e-06)
(-5.7365e-08 1.3014e-06 1.3014e-06)
(-5.9751e-08 1.5302e-06 1.0212e-06)
(-6.0294e-08 1.699e-06 7.0381e-07)
(-5.9762e-08 1.7974e-06 3.5889e-07)
(-5.7383e-08 1.8306e-06 -8.5048e-14)
(-5.2114e-08 2.7371e-07 1.3662e-06)
(-5.2758e-08 5.3583e-07 1.2927e-06)
(-5.2091e-08 7.7662e-07 1.1648e-06)
(-5.1219e-08 9.8905e-07 9.8903e-07)
(-5.2091e-08 1.1648e-06 7.7662e-07)
(-5.2758e-08 1.2927e-06 5.3583e-07)
(-5.2114e-08 1.3662e-06 2.7371e-07)
(-5.1253e-08 1.3893e-06 1.7543e-11)
(-5.7855e-08 1.9185e-07 9.5534e-07)
(-5.6758e-08 3.7644e-07 9.057e-07)
(-5.7417e-08 5.4428e-07 8.1681e-07)
(-5.9811e-08 6.9148e-07 6.9148e-07)
(-5.7417e-08 8.1681e-07 5.4428e-07)
(-5.6758e-08 9.057e-07 3.7644e-07)
(-5.7855e-08 9.5534e-07 1.9185e-07)
(-5.9851e-08 9.6866e-07 1.668e-13)
(-5.775e-08 1.1789e-07 5.8869e-07)
(-5.7294e-08 2.3132e-07 5.5757e-07)
(-5.7728e-08 3.3681e-07 5.0448e-07)
(-5.8254e-08 4.2948e-07 4.296e-07)
(-5.7728e-08 5.0448e-07 3.3681e-07)
(-5.7294e-08 5.5757e-07 2.3132e-07)
(-5.775e-08 5.8869e-07 1.1789e-07)
(-5.8286e-08 5.9857e-07 -8.0432e-11)
(-5.1724e-08 5.0272e-08 2.5813e-07)
(-5.232e-08 1.0069e-07 2.4292e-07)
(-5.1706e-08 1.5053e-07 2.2292e-07)
(-5.0921e-08 1.937e-07 1.937e-07)
(-5.1706e-08 2.2292e-07 1.5053e-07)
(-5.232e-08 2.4292e-07 1.0069e-07)
(-5.1724e-08 2.5813e-07 5.0271e-08)
(-5.0946e-08 2.6524e-07 1.3292e-13)
(-4.661e-08 -1.0222e-08 -4.8768e-08)
(-4.7099e-08 -1.8279e-08 -4.4903e-08)
(-4.6584e-08 -2.36e-08 -3.713e-08)
(-4.6043e-08 -2.8884e-08 -2.8906e-08)
(-4.6585e-08 -3.713e-08 -2.36e-08)
(-4.7099e-08 -4.4903e-08 -1.8279e-08)
(-4.661e-08 -4.8768e-08 -1.0223e-08)
(-4.6079e-08 -4.9237e-08 -1.6413e-11)
(-4.2915e-08 -6.5157e-08 -3.3046e-07)
(-4.3102e-08 -1.2688e-07 -3.0821e-07)
(-4.2881e-08 -1.8383e-07 -2.7551e-07)
(-4.2674e-08 -2.3368e-07 -2.3368e-07)
(-4.2882e-08 -2.7551e-07 -1.8383e-07)
(-4.3102e-08 -3.082e-07 -1.2688e-07)
(-4.2915e-08 -3.3046e-07 -6.5157e-08)
(-4.2724e-08 -3.3865e-07 -5.3821e-13)
(-3.9208e-08 -1.146e-07 -5.7972e-07)
(-3.9521e-08 -2.2464e-07 -5.4311e-07)
(-3.9173e-08 -3.2544e-07 -4.867e-07)
(-3.8842e-08 -4.1367e-07 -4.1362e-07)
(-3.9173e-08 -4.867e-07 -3.2544e-07)
(-3.9521e-08 -5.4311e-07 -2.2464e-07)
(-3.9208e-08 -5.7972e-07 -1.146e-07)
(-3.8891e-08 -5.9281e-07 -3.5463e-11)
(-3.5237e-08 -1.5927e-07 -8.0227e-07)
(-3.576e-08 -3.1186e-07 -7.5303e-07)
(-3.5205e-08 -4.5157e-07 -6.7568e-07)
(-3.4671e-08 -5.7385e-07 -5.7385e-07)
(-3.5205e-08 -6.7568e-07 -4.5157e-07)
(-3.576e-08 -7.5303e-07 -3.1186e-07)
(-3.5238e-08 -8.0227e-07 -1.5927e-07)
(-3.4717e-08 -8.1913e-07 -2.0049e-13)
(-3.1112e-08 -1.9862e-07 -1.0016e-06)
(-3.1463e-08 -3.8932e-07 -9.4055e-07)
(-3.1078e-08 -5.6466e-07 -8.4473e-07)
(-3.0698e-08 -7.1811e-07 -7.181e-07)
(-3.1078e-08 -8.4473e-07 -5.6466e-07)
(-3.1463e-08 -9.4055e-07 -3.8932e-07)
(-3.1112e-08 -1.0016e-06 -1.9862e-07)
(-3.0746e-08 -1.0228e-06 7.3229e-12)
(-2.713e-08 -2.3306e-07 -1.1768e-06)
(-2.7348e-08 -4.5748e-07 -1.1053e-06)
(-2.7095e-08 -6.6411e-07 -9.9328e-07)
(-2.6833e-08 -8.4504e-07 -8.4504e-07)
(-2.7095e-08 -9.9328e-07 -6.6411e-07)
(-2.7348e-08 -1.1053e-06 -4.5748e-07)
(-2.713e-08 -1.1768e-06 -2.3306e-07)
(-2.6884e-08 -1.2021e-06 -5.2637e-13)
(-2.3569e-08 -2.6257e-07 -1.3246e-06)
(-2.3786e-08 -5.1524e-07 -1.2446e-06)
(-2.3536e-08 -7.4796e-07 -1.1186e-06)
(-2.3298e-08 -9.5153e-07 -9.5152e-07)
(-2.3536e-08 -1.1186e-06 -7.4796e-07)
(-2.3786e-08 -1.2446e-06 -5.1524e-07)
(-2.3569e-08 -1.3245e-06 -2.6257e-07)
(-2.3345e-08 -1.3524e-06 -6.3461e-12)
(-2.0182e-08 -2.8776e-07 -1.4497e-06)
(-2.0458e-08 -5.6441e-07 -1.3627e-06)
(-2.015e-08 -8.1898e-07 -1.225e-06)
(-1.9869e-08 -1.0417e-06 -1.0417e-06)
(-2.015e-08 -1.225e-06 -8.1898e-07)
(-2.0458e-08 -1.3627e-06 -5.6441e-07)
(-2.0183e-08 -1.4497e-06 -2.8776e-07)
(-1.9915e-08 -1.4797e-06 -1.2635e-13)
(-1.6681e-08 -3.0864e-07 -1.5556e-06)
(-1.6854e-08 -6.055e-07 -1.4624e-06)
(-1.6644e-08 -8.7902e-07 -1.3148e-06)
(-1.6445e-08 -1.1184e-06 -1.1184e-06)
(-1.6644e-08 -1.3148e-06 -8.7902e-07)
(-1.6854e-08 -1.4624e-06 -6.055e-07)
(-1.6682e-08 -1.5556e-06 -3.0864e-07)
(-1.6498e-08 -1.5878e-06 2.5078e-12)
(-1.3264e-08 -3.2522e-07 -1.6406e-06)
(-1.3363e-08 -6.3833e-07 -1.5421e-06)
(-1.3227e-08 -9.2732e-07 -1.3867e-06)
(-1.3075e-08 -1.1803e-06 -1.1803e-06)
(-1.3227e-08 -1.3867e-06 -9.2732e-07)
(-1.3363e-08 -1.5421e-06 -6.3833e-07)
(-1.3264e-08 -1.6406e-06 -3.2522e-07)
(-1.3135e-08 -1.6752e-06 2.864e-13)
(-1.0183e-08 -3.3763e-07 -1.7026e-06)
(-1.0262e-08 -6.6275e-07 -1.6006e-06)
(-1.0144e-08 -9.6266e-07 -1.4396e-06)
(-1.0039e-08 -1.2249e-06 -1.225e-06)
(-1.0145e-08 -1.4396e-06 -9.6266e-07)
(-1.0262e-08 -1.6006e-06 -6.6275e-07)
(-1.0183e-08 -1.7026e-06 -3.3763e-07)
(-1.0093e-08 -1.738e-06 4.8121e-12)
(-7.2881e-09 -3.4626e-07 -1.7453e-06)
(-7.373e-09 -6.7962e-07 -1.6409e-06)
(-7.2519e-09 -9.8706e-07 -1.4759e-06)
(-7.1531e-09 -1.2559e-06 -1.2559e-06)
(-7.2519e-09 -1.4759e-06 -9.8706e-07)
(-7.3729e-09 -1.6409e-06 -6.7962e-07)
(-7.2879e-09 -1.7453e-06 -3.4626e-07)
(-7.2034e-09 -1.7815e-06 2.5263e-13)
(-4.38e-09 -3.5155e-07 -1.7722e-06)
(-4.4233e-09 -6.9004e-07 -1.6664e-06)
(-4.3401e-09 -1.0023e-06 -1.4989e-06)
(-4.268e-09 -1.2755e-06 -1.2755e-06)
(-4.3401e-09 -1.4989e-06 -1.0023e-06)
(-4.4233e-09 -1.6664e-06 -6.9004e-07)
(-4.3798e-09 -1.7722e-06 -3.5155e-07)
(-4.3244e-09 -1.8089e-06 8.9078e-12)
(-1.5765e-09 -3.5332e-07 -1.7819e-06)
(-1.5852e-09 -6.9374e-07 -1.6754e-06)
(-1.5368e-09 -1.0079e-06 -1.5072e-06)
(-1.4818e-09 -1.2829e-06 -1.2829e-06)
(-1.5368e-09 -1.5072e-06 -1.0079e-06)
(-1.5852e-09 -1.6754e-06 -6.9374e-07)
(-1.5765e-09 -1.7819e-06 -3.5332e-07)
(-1.5448e-09 -1.8192e-06 -5.1157e-14)
(9.6227e-10 -3.516e-07 -1.7727e-06)
(9.9786e-10 -6.9026e-07 -1.6669e-06)
(1.003e-09 -1.0029e-06 -1.4996e-06)
(9.954e-10 -1.2762e-06 -1.2762e-06)
(1.0031e-09 -1.4996e-06 -1.0029e-06)
(9.979e-10 -1.6669e-06 -6.9026e-07)
(9.6225e-10 -1.7727e-06 -3.516e-07)
(9.3747e-10 -1.8095e-06 -6.5438e-12)
(3.3233e-09 -3.4669e-07 -1.7477e-06)
(3.3988e-09 -6.8066e-07 -1.6433e-06)
(3.3621e-09 -9.8891e-07 -1.4786e-06)
(3.307e-09 -1.2584e-06 -1.2584e-06)
(3.3621e-09 -1.4786e-06 -9.8891e-07)
(3.3989e-09 -1.6433e-06 -6.8066e-07)
(3.3233e-09 -1.7477e-06 -3.4669e-07)
(3.2528e-09 -1.784e-06 -3.1139e-13)
(5.6291e-09 -3.3926e-07 -1.7103e-06)
(5.6931e-09 -6.6607e-07 -1.6084e-06)
(5.6729e-09 -9.6773e-07 -1.4471e-06)
(5.6404e-09 -1.2315e-06 -1.2315e-06)
(5.6729e-09 -1.4471e-06 -9.6773e-07)
(5.6931e-09 -1.6084e-06 -6.6607e-07)
(5.629e-09 -1.7103e-06 -3.3926e-07)
(5.5779e-09 -1.7457e-06 3.9218e-12)
(7.8127e-09 -3.2906e-07 -1.6594e-06)
(7.8763e-09 -6.4611e-07 -1.5604e-06)
(7.8604e-09 -9.3894e-07 -1.404e-06)
(7.8368e-09 -1.1951e-06 -1.1951e-06)
(7.8604e-09 -1.404e-06 -9.3894e-07)
(7.8763e-09 -1.5604e-06 -6.4611e-07)
(7.8126e-09 -1.6594e-06 -3.2906e-07)
(7.7672e-09 -1.694e-06 1.2916e-13)
(9.7799e-09 -3.1612e-07 -1.5937e-06)
(9.9065e-09 -6.2064e-07 -1.4987e-06)
(9.8225e-09 -9.0181e-07 -1.3485e-06)
(9.7247e-09 -1.1477e-06 -1.1477e-06)
(9.8225e-09 -1.3485e-06 -9.0181e-07)
(9.9064e-09 -1.4987e-06 -6.2064e-07)
(9.7799e-09 -1.5937e-06 -3.1612e-07)
(9.664e-09 -1.6266e-06 -8.9619e-13)
(1.1598e-08 -3.0064e-07 -1.5157e-06)
(1.1795e-08 -5.9034e-07 -1.4253e-06)
(1.1636e-08 -8.5787e-07 -1.2825e-06)
(1.1459e-08 -1.0917e-06 -1.0917e-06)
(1.1636e-08 -1.2825e-06 -8.5787e-07)
(1.1795e-08 -1.4253e-06 -5.9034e-07)
(1.1598e-08 -1.5157e-06 -3.0064e-07)
(1.1405e-08 -1.5471e-06 -3.0226e-13)
(1.3324e-08 -2.8335e-07 -1.4287e-06)
(1.3452e-08 -5.5642e-07 -1.3436e-06)
(1.3368e-08 -8.0858e-07 -1.2089e-06)
(1.3272e-08 -1.029e-06 -1.029e-06)
(1.3368e-08 -1.2089e-06 -8.0858e-07)
(1.3452e-08 -1.3436e-06 -5.5642e-07)
(1.3324e-08 -1.4287e-06 -2.8335e-07)
(1.321e-08 -1.4582e-06 -6.1308e-12)
(1.4811e-08 -2.6406e-07 -1.3317e-06)
(1.4894e-08 -5.1867e-07 -1.2523e-06)
(1.4858e-08 -7.5368e-07 -1.127e-06)
(1.4822e-08 -9.5933e-07 -9.5933e-07)
(1.4858e-08 -1.127e-06 -7.5368e-07)
(1.4894e-08 -1.2523e-06 -5.1867e-07)
(1.4811e-08 -1.3317e-06 -2.6406e-07)
(1.4751e-08 -1.3594e-06 -1.5082e-13)
(1.599e-08 -2.4279e-07 -1.2239e-06)
(1.6175e-08 -4.7665e-07 -1.151e-06)
(1.6033e-08 -6.9264e-07 -1.0358e-06)
(1.5873e-08 -8.8151e-07 -8.8151e-07)
(1.6034e-08 -1.0358e-06 -6.9264e-07)
(1.6176e-08 -1.151e-06 -4.7665e-07)
(1.599e-08 -1.2239e-06 -2.4279e-07)
(1.5812e-08 -1.2491e-06 9.18e-13)
(1.7276e-08 -2.1969e-07 -1.1077e-06)
(1.7538e-08 -4.3144e-07 -1.0416e-06)
(1.7315e-08 -6.2704e-07 -9.374e-07)
(1.7039e-08 -7.9794e-07 -7.9794e-07)
(1.7316e-08 -9.374e-07 -6.2704e-07)
(1.7538e-08 -1.0416e-06 -4.3144e-07)
(1.7276e-08 -1.1077e-06 -2.1969e-07)
(1.6985e-08 -1.1306e-06 7.6975e-14)
(1.8648e-08 -1.9546e-07 -9.8609e-07)
(1.87e-08 -3.8398e-07 -9.2716e-07)
(1.8696e-08 -5.5825e-07 -8.3444e-07)
(1.8684e-08 -7.1053e-07 -7.1053e-07)
(1.8696e-08 -8.3444e-07 -5.5825e-07)
(1.87e-08 -9.2716e-07 -3.8399e-07)
(1.8648e-08 -9.8609e-07 -1.9546e-07)
(1.8616e-08 -1.0067e-06 5.6799e-14)
(1.8966e-08 -1.6991e-07 -8.5742e-07)
(1.8856e-08 -3.3375e-07 -8.0599e-07)
(1.9021e-08 -4.854e-07 -7.2558e-07)
(1.9251e-08 -6.1798e-07 -6.1798e-07)
(1.9021e-08 -7.2558e-07 -4.854e-07)
(1.8856e-08 -8.0599e-07 -3.3375e-07)
(1.8966e-08 -8.5743e-07 -1.6991e-07)
(1.917e-08 -8.7559e-07 -1.465e-15)
(1.8032e-08 -1.429e-07 -7.2092e-07)
(1.8158e-08 -2.8082e-07 -6.7799e-07)
(1.8079e-08 -4.0813e-07 -6.1011e-07)
(1.7972e-08 -5.1937e-07 -5.1937e-07)
(1.8079e-08 -6.1011e-07 -4.0813e-07)
(1.8158e-08 -6.7799e-07 -2.8082e-07)
(1.8032e-08 -7.2092e-07 -1.429e-07)