/*--------------------------------*- C++ -*----------------------------------*\
| =========                 |                                                 |
| \\      /  F ield         | foam-extend: Open Source CFD                    |
|  \\    /   O peration     | Version:     4.1-20200408                       |
|   \\  /    A nd           | Web:         http://www.foam-extend.org         |
|    \\/     M anipulation  |                                                 |
\*---------------------------------------------------------------------------*/
FoamFile
{
    version     2.0;
    format      ascii;
    class       volScalarField;
    location    "0.0565000";
    object      ccx;
}
// * * * * * * * * * * * * * * * * * * * * * * * * * * * * * * * * * * * * * //

dimensions      [0 1 0 0 0 0 0];

internalField   nonuniform List<scalar> 
1952
(
0.00290949
0.00290936
0.00290916
0.0029089
0.00290859
0.00290822
0.00290782
0.0029074
0.00290696
0.00290652
0.0029061
0.00290572
0.00290542
0.0029052
0.00290508
0.00290956
0.0027939
0.00279363
0.00279323
0.00279271
0.00279208
0.00279136
0.00279056
0.00278971
0.00278883
0.00278795
0.00278711
0.00278636
0.00278574
0.00278531
0.00278506
0.00279404
0.00274373
0.00274346
0.00274306
0.00274254
0.00274191
0.00274119
0.00274039
0.00273953
0.00273865
0.00273777
0.00273693
0.00273618
0.00273557
0.00273513
0.00273488
0.00274387
0.00269356
0.00269329
0.00269289
0.00269236
0.00269174
0.00269101
0.00269021
0.00268936
0.00268847
0.00268759
0.00268675
0.002686
0.00268539
0.00268495
0.00268469
0.0026937
0.00264339
0.00264312
0.00264271
0.00264219
0.00264157
0.00264084
0.00264004
0.00263918
0.0026383
0.00263741
0.00263657
0.00263583
0.00263521
0.00263477
0.00263451
0.00264353
0.00259322
0.00259295
0.00259254
0.00259202
0.00259139
0.00259067
0.00258986
0.00258901
0.00258812
0.00258724
0.0025864
0.00258565
0.00258503
0.00258459
0.00258433
0.00259336
0.00254304
0.00254277
0.00254237
0.00254185
0.00254122
0.00254049
0.00253969
0.00253883
0.00253794
0.00253706
0.00253622
0.00253547
0.00253485
0.00253441
0.00253415
0.00254319
0.00249287
0.0024926
0.0024922
0.00249167
0.00249104
0.00249032
0.00248951
0.00248865
0.00248776
0.00248688
0.00248604
0.00248529
0.00248467
0.00248423
0.00248397
0.00249302
0.0024427
0.00244243
0.00244203
0.0024415
0.00244087
0.00244014
0.00243934
0.00243848
0.00243759
0.0024367
0.00243586
0.0024351
0.00243448
0.00243405
0.00243379
0.00244285
0.00239253
0.00239226
0.00239185
0.00239133
0.00239069
0.00238997
0.00238916
0.0023883
0.00238741
0.00238652
0.00238568
0.00238492
0.0023843
0.00238386
0.00238361
0.00239267
0.00234235
0.00234208
0.00234168
0.00234115
0.00234052
0.00233979
0.00233898
0.00233812
0.00233723
0.00233634
0.0023355
0.00233474
0.00233412
0.00233368
0.00233342
0.0023425
0.00229218
0.00229191
0.0022915
0.00229098
0.00229034
0.00228961
0.00228881
0.00228794
0.00228705
0.00228616
0.00228532
0.00228456
0.00228394
0.0022835
0.00228324
0.00229233
0.00224201
0.00224173
0.00224133
0.0022408
0.00224017
0.00223944
0.00223863
0.00223777
0.00223687
0.00223598
0.00223514
0.00223438
0.00223376
0.00223332
0.00223306
0.00224215
0.00219183
0.00219156
0.00219115
0.00219063
0.00218999
0.00218926
0.00218845
0.00218759
0.00218669
0.0021858
0.00218495
0.00218419
0.00218357
0.00218313
0.00218288
0.00219198
0.00214166
0.00214138
0.00214098
0.00214045
0.00213981
0.00213908
0.00213827
0.00213741
0.00213651
0.00213562
0.00213477
0.00213401
0.00213339
0.00213295
0.00213269
0.0021418
0.00209148
0.00209121
0.0020908
0.00209027
0.00208963
0.0020889
0.00208809
0.00208723
0.00208633
0.00208544
0.00208459
0.00208383
0.00208321
0.00208277
0.00208251
0.00209163
0.00204131
0.00204103
0.00204062
0.0020401
0.00203946
0.00203873
0.00203792
0.00203705
0.00203615
0.00203526
0.00203441
0.00203365
0.00203302
0.00203258
0.00203232
0.00204145
0.00199113
0.00199085
0.00199045
0.00198992
0.00198928
0.00198855
0.00198774
0.00198687
0.00198597
0.00198508
0.00198422
0.00198346
0.00198284
0.0019824
0.00198214
0.00199128
0.00194095
0.00194068
0.00194027
0.00193974
0.0019391
0.00193837
0.00193756
0.00193669
0.00193579
0.00193489
0.00193404
0.00193328
0.00193265
0.00193221
0.00193195
0.0019411
0.00189078
0.0018905
0.00189009
0.00188956
0.00188892
0.00188819
0.00188738
0.00188651
0.00188561
0.00188471
0.00188386
0.0018831
0.00188247
0.00188203
0.00188177
0.00189092
0.0018406
0.00184032
0.00183991
0.00183938
0.00183874
0.00183801
0.0018372
0.00183633
0.00183543
0.00183453
0.00183367
0.00183291
0.00183228
0.00183184
0.00183158
0.00184075
0.00179042
0.00179015
0.00178974
0.00178921
0.00178857
0.00178783
0.00178702
0.00178614
0.00178524
0.00178434
0.00178349
0.00178273
0.0017821
0.00178166
0.0017814
0.00179057
0.00174025
0.00173997
0.00173956
0.00173903
0.00173839
0.00173765
0.00173684
0.00173596
0.00173506
0.00173416
0.0017333
0.00173254
0.00173191
0.00173147
0.00173121
0.0017404
0.00169007
0.00168979
0.00168938
0.00168885
0.00168821
0.00168747
0.00168666
0.00168578
0.00168488
0.00168398
0.00168312
0.00168236
0.00168173
0.00168128
0.00168102
0.00169022
0.00163989
0.00163962
0.00163921
0.00163867
0.00163803
0.00163729
0.00163648
0.0016356
0.00163469
0.00163379
0.00163294
0.00163217
0.00163154
0.0016311
0.00163084
0.00164004
0.00158972
0.00158944
0.00158903
0.0015885
0.00158785
0.00158711
0.00158629
0.00158542
0.00158451
0.00158361
0.00158275
0.00158198
0.00158135
0.00158091
0.00158065
0.00158987
0.00153954
0.00153927
0.00153886
0.00153832
0.00153768
0.00153694
0.00153611
0.00153523
0.00153433
0.00153343
0.00153257
0.0015318
0.00153117
0.00153072
0.00153046
0.00153969
0.00148937
0.00148909
0.00148868
0.00148815
0.0014875
0.00148676
0.00148593
0.00148505
0.00148414
0.00148324
0.00148238
0.00148161
0.00148098
0.00148053
0.00148027
0.00148952
0.00143919
0.00143892
0.00143851
0.00143797
0.00143732
0.00143658
0.00143575
0.00143487
0.00143396
0.00143305
0.00143219
0.00143142
0.00143079
0.00143034
0.00143008
0.00143934
0.00138902
0.00138875
0.00138833
0.00138779
0.00138714
0.0013864
0.00138557
0.00138469
0.00138378
0.00138287
0.001382
0.00138123
0.0013806
0.00138015
0.00137989
0.00138917
0.00133885
0.00133857
0.00133815
0.00133762
0.00133697
0.00133622
0.00133539
0.00133451
0.00133359
0.00133268
0.00133182
0.00133104
0.00133041
0.00132996
0.00132969
0.001339
0.00128867
0.0012884
0.00128798
0.00128744
0.00128679
0.00128604
0.00128521
0.00128433
0.00128341
0.0012825
0.00128163
0.00128086
0.00128022
0.00127977
0.0012795
0.00128882
0.0012385
0.00123822
0.0012378
0.00123726
0.00123661
0.00123586
0.00123503
0.00123415
0.00123323
0.00123231
0.00123144
0.00123067
0.00123002
0.00122957
0.00122931
0.00123865
0.00118833
0.00118805
0.00118763
0.00118709
0.00118643
0.00118568
0.00118485
0.00118396
0.00118304
0.00118213
0.00118126
0.00118048
0.00117983
0.00117938
0.00117911
0.00118848
0.00113815
0.00113787
0.00113745
0.00113691
0.00113626
0.00113551
0.00113468
0.00113378
0.00113286
0.00113194
0.00113107
0.00113028
0.00112964
0.00112918
0.00112891
0.0011383
0.00108798
0.0010877
0.00108728
0.00108674
0.00108608
0.00108533
0.0010845
0.0010836
0.00108268
0.00108176
0.00108088
0.00108009
0.00107944
0.00107898
0.00107871
0.00108813
0.0010378
0.00103752
0.0010371
0.00103656
0.0010359
0.00103515
0.00103432
0.00103342
0.00103249
0.00103157
0.00103069
0.0010299
0.00102925
0.00102878
0.0010285
0.00103795
0.000987625
0.000987344
0.000986928
0.000986383
0.000985725
0.00098497
0.000984134
0.000983238
0.000982309
0.00098138
0.000980499
0.000979706
0.00097905
0.000978581
0.0009783
0.000987776
0.000937444
0.000937163
0.000936744
0.000936201
0.000935544
0.000934788
0.00093395
0.000933053
0.000932123
0.000931194
0.000930309
0.00092951
0.00092885
0.000928377
0.000928091
0.000937593
0.000887257
0.000886977
0.000886559
0.000886017
0.00088536
0.000884604
0.000883767
0.000882869
0.000881938
0.000881008
0.000880119
0.000879317
0.000878651
0.000878173
0.000877881
0.000887407
0.000837064
0.000836785
0.000836367
0.000835827
0.000835172
0.000834417
0.00083358
0.000832683
0.000831752
0.00083082
0.000829929
0.000829123
0.000828453
0.000827967
0.000827668
0.000837213
0.000786862
0.000786584
0.000786168
0.00078563
0.000784977
0.000784225
0.00078339
0.000782494
0.000781564
0.000780632
0.000779739
0.000778929
0.000778253
0.000777761
0.000777452
0.00078701
0.000736648
0.000736372
0.000735958
0.000735423
0.000734773
0.000734025
0.000733194
0.000732301
0.000731374
0.000730442
0.000729549
0.000728736
0.000728055
0.000727553
0.000727233
0.000736796
0.000686419
0.000686145
0.000685734
0.000685203
0.000684558
0.000683815
0.000682989
0.000682102
0.000681178
0.00068025
0.000679358
0.000678543
0.000677856
0.000677346
0.000677012
0.000686565
0.000636172
0.0006359
0.000635494
0.000634967
0.000634329
0.000633593
0.000632774
0.000631894
0.000630977
0.000630054
0.000629165
0.000628351
0.000627659
0.00062714
0.00062679
0.000636316
0.000585902
0.000585634
0.000585233
0.000584713
0.000584082
0.000583354
0.000582545
0.000581675
0.000580767
0.000579853
0.00057897
0.000578159
0.000577466
0.000576937
0.000576567
0.000586046
0.000535607
0.000535342
0.000534947
0.000534434
0.000533813
0.000533096
0.000532298
0.000531439
0.000530545
0.000529642
0.000528769
0.000527965
0.000527273
0.000526737
0.000526346
0.000535748
0.00048528
0.00048502
0.000484631
0.000484128
0.000483517
0.000482812
0.000482027
0.000481184
0.000480304
0.000479416
0.000478557
0.000477763
0.000477077
0.000476537
0.000476129
0.000485419
0.000434922
0.000434667
0.000434285
0.000433791
0.000433191
0.0004325
0.000431732
0.000430905
0.000430044
0.000429174
0.000428331
0.000427552
0.000426876
0.000426338
0.000425921
0.000435058
0.000384528
0.000384278
0.000383904
0.00038342
0.000382834
0.000382158
0.000381407
0.0003806
0.000379759
0.000378911
0.00037809
0.00037733
0.00037667
0.000376141
0.000375725
0.000384661
0.000334096
0.000333852
0.000333487
0.000333014
0.000332442
0.000331783
0.000331051
0.000330266
0.000329448
0.000328626
0.000327831
0.000327097
0.000326461
0.000325949
0.000325543
0.000334227
0.000283626
0.000283388
0.000283032
0.000282571
0.000282013
0.000281372
0.000280661
0.0002799
0.000279109
0.000278316
0.000277553
0.000276852
0.000276249
0.000275764
0.000275382
0.000283754
0.00023312
0.000232887
0.00023254
0.000232091
0.000231549
0.000230927
0.000230238
0.000229502
0.000228741
0.000227981
0.000227256
0.000226597
0.000226036
0.000225592
0.000225252
0.000233244
0.000182579
0.000182353
0.000182016
0.00018158
0.000181054
0.000180451
0.000179785
0.000179077
0.000178347
0.000177624
0.000176941
0.000176331
0.000175825
0.000175443
0.000175172
0.000182701
0.000132011
0.000131791
0.000131463
0.00013104
0.000130531
0.000129948
0.000129307
0.000128627
0.00012793
0.000127246
0.00012661
0.000126058
0.000125624
0.000125331
0.000125168
0.000132129
8.14188e-05
8.12062e-05
8.08883e-05
8.04788e-05
7.99863e-05
7.94245e-05
7.88091e-05
7.81596e-05
7.75002e-05
7.68611e-05
7.62803e-05
7.57981e-05
7.54545e-05
7.52802e-05
7.52654e-05
8.15334e-05
3.08114e-05
3.06068e-05
3.03006e-05
2.99068e-05
2.94344e-05
2.88973e-05
2.83121e-05
2.76997e-05
2.70854e-05
2.65007e-05
2.5986e-05
2.55869e-05
2.53511e-05
2.53179e-05
2.54825e-05
3.09219e-05
-1.97923e-05
-1.99866e-05
-2.02769e-05
-2.06498e-05
-2.10958e-05
-2.16007e-05
-2.2147e-05
-2.27126e-05
-2.32716e-05
-2.37908e-05
-2.42272e-05
-2.45308e-05
-2.46464e-05
-2.45263e-05
-2.41665e-05
-1.96871e-05
-7.0353e-05
-7.05333e-05
-7.08028e-05
-7.11477e-05
-7.15591e-05
-7.20222e-05
-7.25194e-05
-7.30285e-05
-7.35217e-05
-7.3965e-05
-7.43131e-05
-7.45123e-05
-7.45013e-05
-7.4225e-05
-7.36715e-05
-7.0255e-05
-0.000120817
-0.00012098
-0.000121223
-0.000121534
-0.000121903
-0.000122316
-0.000122756
-0.000123199
-0.000123618
-0.000123978
-0.000124232
-0.000124323
-0.000124186
-0.000123761
-0.00012303
-0.000120728
-0.000171127
-0.00017127
-0.000171484
-0.000171756
-0.000172077
-0.000172434
-0.00017281
-0.000173182
-0.000173522
-0.000173796
-0.000173954
-0.00017394
-0.000173685
-0.000173128
-0.000172245
-0.000171048
-0.000221225
-0.000221348
-0.00022153
-0.000221762
-0.000222034
-0.000222333
-0.000222644
-0.000222943
-0.000223204
-0.000223391
-0.000223458
-0.000223347
-0.000222988
-0.000222321
-0.000221319
-0.000221157
-0.000271065
-0.000271168
-0.000271321
-0.000271513
-0.000271737
-0.000271981
-0.000272228
-0.000272457
-0.000272642
-0.000272749
-0.000272731
-0.000272534
-0.00027209
-0.00027134
-0.000270256
-0.000271008
-0.000320619
-0.000320704
-0.000320829
-0.000320986
-0.000321165
-0.000321357
-0.000321545
-0.000321709
-0.000321825
-0.000321859
-0.000321769
-0.000321501
-0.000320993
-0.000320189
-0.000319062
-0.000320572
-0.000369876
-0.000369944
-0.000370045
-0.00037017
-0.00037031
-0.000370454
-0.000370589
-0.000370696
-0.00037075
-0.000370722
-0.000370572
-0.000370251
-0.000369702
-0.000368874
-0.000367742
-0.000369838
-0.000418843
-0.000418897
-0.000418975
-0.000419069
-0.000419174
-0.000419276
-0.000419365
-0.000419421
-0.000419423
-0.000419344
-0.000419147
-0.000418791
-0.000418223
-0.0004174
-0.0004163
-0.000418813
-0.000467539
-0.000467579
-0.000467636
-0.000467703
-0.000467773
-0.000467838
-0.000467885
-0.000467897
-0.000467855
-0.000467735
-0.000467506
-0.000467132
-0.000466568
-0.000465778
-0.000464742
-0.000467516
-0.000515993
-0.000516019
-0.000516055
-0.000516096
-0.000516135
-0.000516165
-0.000516173
-0.000516147
-0.000516068
-0.000515916
-0.000515667
-0.000515289
-0.00051475
-0.000514018
-0.000513075
-0.000515978
-0.000564234
-0.000564246
-0.000564262
-0.000564278
-0.000564288
-0.000564284
-0.000564258
-0.000564196
-0.000564084
-0.000563908
-0.000563648
-0.000563281
-0.000562784
-0.00056213
-0.0005613
-0.000564226
-0.000612288
-0.000612288
-0.000612285
-0.000612277
-0.00061226
-0.000612226
-0.000612167
-0.000612072
-0.000611931
-0.000611735
-0.000611471
-0.000611125
-0.000610682
-0.00061012
-0.000609418
-0.000612287
-0.000660181
-0.000660169
-0.000660151
-0.000660122
-0.000660079
-0.000660018
-0.000659929
-0.000659806
-0.000659642
-0.000659431
-0.000659169
-0.000658849
-0.000658463
-0.000657996
-0.000657426
-0.000660185
-0.000707932
-0.000707912
-0.000707881
-0.000707835
-0.000707773
-0.000707688
-0.000707577
-0.000707435
-0.000707259
-0.000707044
-0.000706788
-0.000706491
-0.000706154
-0.000705771
-0.000705321
-0.000707941
-0.000755568
-0.000755543
-0.000755504
-0.000755448
-0.000755373
-0.000755276
-0.000755153
-0.000755003
-0.000754824
-0.000754613
-0.000754368
-0.000754092
-0.000753789
-0.000753466
-0.000753109
-0.00075558
-0.000803133
-0.000803104
-0.00080306
-0.000802999
-0.000802919
-0.000802817
-0.000802691
-0.000802541
-0.000802364
-0.00080216
-0.000801929
-0.000801674
-0.000801399
-0.000801115
-0.000800819
-0.000803147
-0.000850657
-0.000850627
-0.00085058
-0.000850516
-0.000850433
-0.000850329
-0.000850204
-0.000850056
-0.000849885
-0.000849691
-0.000849476
-0.000849242
-0.000848995
-0.000848742
-0.000848487
-0.000850672
-0.000898149
-0.000898118
-0.00089807
-0.000898005
-0.000897921
-0.000897818
-0.000897695
-0.000897552
-0.00089739
-0.000897208
-0.000897009
-0.000896796
-0.000896575
-0.000896351
-0.00089613
-0.000898165
-0.000945615
-0.000945583
-0.000945535
-0.000945471
-0.000945388
-0.000945288
-0.00094517
-0.000945034
-0.000944881
-0.000944712
-0.00094453
-0.000944338
-0.000944141
-0.000943944
-0.000943752
-0.000945631
-0.000993062
-0.000993031
-0.000992982
-0.000992917
-0.000992839
-0.000992745
-0.000992632
-0.000992504
-0.000992362
-0.000992206
-0.000992039
-0.000991868
-0.000991693
-0.000991518
-0.000991355
-0.000993077
-0.00104049
-0.00104046
-0.00104041
-0.00104035
-0.00104028
-0.00104019
-0.00104008
-0.00103996
-0.00103983
-0.00103969
-0.00103954
-0.00103939
-0.00103923
-0.00103908
-0.00103894
-0.00104051
-0.00108791
-0.00108788
-0.00108784
-0.00108778
-0.00108771
-0.00108762
-0.00108753
-0.00108742
-0.0010873
-0.00108717
-0.00108703
-0.0010869
-0.00108676
-0.00108663
-0.00108651
-0.00108792
-0.00113532
-0.00113529
-0.00113525
-0.0011352
-0.00113513
-0.00113505
-0.00113496
-0.00113486
-0.00113475
-0.00113464
-0.00113452
-0.00113439
-0.00113427
-0.00113416
-0.00113405
-0.00113533
-0.00118272
-0.0011827
-0.00118266
-0.0011826
-0.00118254
-0.00118247
-0.00118239
-0.0011823
-0.0011822
-0.0011821
-0.00118199
-0.00118188
-0.00118178
-0.00118168
-0.00118158
-0.00118273
-0.00123011
-0.00123009
-0.00123006
-0.00123001
-0.00122995
-0.00122989
-0.00122981
-0.00122973
-0.00122964
-0.00122955
-0.00122946
-0.00122936
-0.00122927
-0.00122918
-0.0012291
-0.00123013
-0.0012775
-0.00127748
-0.00127745
-0.00127741
-0.00127736
-0.0012773
-0.00127723
-0.00127716
-0.00127708
-0.001277
-0.00127691
-0.00127683
-0.00127675
-0.00127667
-0.0012766
-0.00127752
-0.00132489
-0.00132487
-0.00132485
-0.00132481
-0.00132476
-0.00132471
-0.00132465
-0.00132458
-0.00132451
-0.00132444
-0.00132436
-0.00132429
-0.00132422
-0.00132415
-0.00132409
-0.00132491
-0.00137228
-0.00137226
-0.00137224
-0.00137221
-0.00137216
-0.00137211
-0.00137206
-0.001372
-0.00137194
-0.00137187
-0.00137181
-0.00137174
-0.00137168
-0.00137162
-0.00137157
-0.00137229
-0.00141967
-0.00141965
-0.00141963
-0.0014196
-0.00141956
-0.00141952
-0.00141947
-0.00141942
-0.00141936
-0.00141931
-0.00141925
-0.00141919
-0.00141913
-0.00141908
-0.00141904
-0.00141968
-0.00146705
-0.00146704
-0.00146702
-0.00146699
-0.00146696
-0.00146692
-0.00146688
-0.00146683
-0.00146678
-0.00146673
-0.00146668
-0.00146663
-0.00146658
-0.00146654
-0.00146649
-0.00146706
-0.00151443
-0.00151442
-0.0015144
-0.00151438
-0.00151435
-0.00151432
-0.00151428
-0.00151424
-0.0015142
-0.00151415
-0.00151411
-0.00151406
-0.00151402
-0.00151398
-0.00151394
-0.00151444
-0.00156181
-0.0015618
-0.00156179
-0.00156177
-0.00156174
-0.00156171
-0.00156168
-0.00156164
-0.0015616
-0.00156157
-0.00156152
-0.00156148
-0.00156144
-0.00156141
-0.00156138
-0.00156182
-0.00160919
-0.00160918
-0.00160917
-0.00160915
-0.00160913
-0.0016091
-0.00160907
-0.00160904
-0.00160901
-0.00160897
-0.00160894
-0.0016089
-0.00160887
-0.00160884
-0.0016088
-0.0016092
-0.00165657
-0.00165656
-0.00165655
-0.00165654
-0.00165652
-0.00165649
-0.00165647
-0.00165644
-0.00165641
-0.00165638
-0.00165634
-0.00165631
-0.00165628
-0.00165625
-0.00165623
-0.00165658
-0.00170395
-0.00170394
-0.00170393
-0.00170392
-0.0017039
-0.00170388
-0.00170385
-0.00170383
-0.0017038
-0.00170377
-0.00170375
-0.00170372
-0.00170369
-0.00170366
-0.00170364
-0.00170395
-0.00175132
-0.00175131
-0.0017513
-0.00175129
-0.00175128
-0.00175126
-0.00175124
-0.00175122
-0.00175119
-0.00175117
-0.00175114
-0.00175112
-0.00175109
-0.00175107
-0.00175104
-0.00175133
-0.00179869
-0.00179869
-0.00179868
-0.00179866
-0.00179865
-0.00179863
-0.00179862
-0.0017986
-0.00179858
-0.00179856
-0.00179854
-0.00179851
-0.00179849
-0.00179847
-0.00179844
-0.0017987
-0.00184606
-0.00184605
-0.00184605
-0.00184603
-0.00184602
-0.00184601
-0.00184599
-0.00184598
-0.00184596
-0.00184594
-0.00184592
-0.0018459
-0.00184588
-0.00184586
-0.00184584
-0.00184606
-0.00189342
-0.00189342
-0.00189341
-0.0018934
-0.00189339
-0.00189338
-0.00189337
-0.00189335
-0.00189334
-0.00189332
-0.0018933
-0.00189328
-0.00189326
-0.00189324
-0.00189323
-0.00189343
-0.00194078
-0.00194078
-0.00194077
-0.00194076
-0.00194076
-0.00194075
-0.00194073
-0.00194072
-0.00194071
-0.00194069
-0.00194068
-0.00194066
-0.00194064
-0.00194062
-0.00194061
-0.00194079
-0.00198814
-0.00198814
-0.00198813
-0.00198813
-0.00198812
-0.00198811
-0.0019881
-0.00198809
-0.00198807
-0.00198806
-0.00198805
-0.00198803
-0.00198802
-0.001988
-0.00198798
-0.00198814
-0.0020355
-0.0020355
-0.00203549
-0.00203548
-0.00203548
-0.00203547
-0.00203546
-0.00203545
-0.00203544
-0.00203543
-0.00203541
-0.0020354
-0.00203538
-0.00203537
-0.00203535
-0.0020355
-0.00208285
-0.00208285
-0.00208284
-0.00208284
-0.00208283
-0.00208282
-0.00208281
-0.00208281
-0.0020828
-0.00208279
-0.00208277
-0.00208276
-0.00208275
-0.00208273
-0.00208272
-0.00208285
-0.0021302
-0.00213019
-0.00213019
-0.00213019
-0.00213018
-0.00213017
-0.00213017
-0.00213016
-0.00213015
-0.00213014
-0.00213013
-0.00213012
-0.00213011
-0.00213009
-0.00213008
-0.0021302
-0.00217754
-0.00217754
-0.00217753
-0.00217753
-0.00217753
-0.00217752
-0.00217751
-0.00217751
-0.0021775
-0.00217749
-0.00217748
-0.00217747
-0.00217746
-0.00217745
-0.00217743
-0.00217754
-0.00222488
-0.00222488
-0.00222487
-0.00222487
-0.00222487
-0.00222487
-0.00222486
-0.00222485
-0.00222485
-0.00222484
-0.00222483
-0.00222482
-0.00222481
-0.0022248
-0.00222478
-0.00222488
-0.00227222
-0.00227222
-0.00227221
-0.00227221
-0.00227221
-0.0022722
-0.00227219
-0.00227219
-0.00227219
-0.00227218
-0.00227217
-0.00227216
-0.00227216
-0.00227214
-0.00227213
-0.00227222
-0.00231955
-0.00231955
-0.00231955
-0.00231954
-0.00231954
-0.00231954
-0.00231953
-0.00231953
-0.00231952
-0.00231952
-0.00231951
-0.0023195
-0.00231949
-0.00231949
-0.00231947
-0.00231955
-0.00236688
-0.00236688
-0.00236688
-0.00236687
-0.00236687
-0.00236687
-0.00236686
-0.00236686
-0.00236686
-0.00236685
-0.00236684
-0.00236683
-0.00236683
-0.00236682
-0.00236681
-0.00236688
-0.0024142
-0.0024142
-0.0024142
-0.0024142
-0.0024142
-0.00241419
-0.00241419
-0.00241419
-0.00241418
-0.00241418
-0.00241417
-0.00241417
-0.00241416
-0.00241415
-0.00241414
-0.0024142
-0.00246152
-0.00246152
-0.00246152
-0.00246152
-0.00246152
-0.00246152
-0.00246151
-0.00246151
-0.00246151
-0.0024615
-0.0024615
-0.00246149
-0.00246149
-0.00246148
-0.00246147
-0.00246152
-0.00250884
-0.00250884
-0.00250884
-0.00250884
-0.00250884
-0.00250883
-0.00250883
-0.00250883
-0.00250882
-0.00250882
-0.00250882
-0.00250881
-0.00250881
-0.0025088
-0.00250879
-0.00250884
-0.00255616
-0.00255616
-0.00255615
-0.00255615
-0.00255615
-0.00255615
-0.00255615
-0.00255614
-0.00255614
-0.00255614
-0.00255613
-0.00255613
-0.00255613
-0.00255612
-0.00255611
-0.00255616
-0.00260346
-0.00260346
-0.00260346
-0.00260346
-0.00260346
-0.00260346
-0.00260346
-0.00260346
-0.00260346
-0.00260345
-0.00260345
-0.00260345
-0.00260344
-0.00260343
-0.00260343
-0.00260346
-0.00265077
-0.00265077
-0.00265077
-0.00265077
-0.00265077
-0.00265077
-0.00265077
-0.00265076
-0.00265076
-0.00265076
-0.00265076
-0.00265075
-0.00265075
-0.00265075
-0.00265074
-0.00265077
-0.00269807
-0.00269807
-0.00269807
-0.00269807
-0.00269807
-0.00269807
-0.00269807
-0.00269806
-0.00269806
-0.00269806
-0.00269806
-0.00269806
-0.00269805
-0.00269805
-0.00269805
-0.00269807
-0.00274537
-0.00274537
-0.00274537
-0.00274537
-0.00274537
-0.00274537
-0.00274537
-0.00274536
-0.00274536
-0.00274536
-0.00274536
-0.00274536
-0.00274536
-0.00274535
-0.00274535
-0.00274537
-0.00279267
-0.00279267
-0.00279267
-0.00279267
-0.00279266
-0.00279266
-0.00279266
-0.00279266
-0.00279266
-0.00279266
-0.00279266
-0.00279266
-0.00279266
-0.00279265
-0.00279265
-0.00279267
-0.00283996
-0.00283996
-0.00283996
-0.00283996
-0.00283996
-0.00283995
-0.00283996
-0.00283996
-0.00283996
-0.00283995
-0.00283995
-0.00283995
-0.00283995
-0.00283995
-0.00283994
-0.00283996
-0.00288724
-0.00288724
-0.00288724
-0.00288724
-0.00288724
-0.00288724
-0.00288724
-0.00288724
-0.00288724
-0.00288724
-0.00288724
-0.00288724
-0.00288724
-0.00288724
-0.00288724
-0.00288724
-0.00293453
-0.00293452
-0.00293453
-0.00293453
-0.00293453
-0.00293453
-0.00293453
-0.00293452
-0.00293453
-0.00293453
-0.00293453
-0.00293453
-0.00293453
-0.00293453
-0.00293452
-0.00293453
-0.00298181
-0.00298181
-0.00298181
-0.00298181
-0.00298181
-0.00298181
-0.00298181
-0.00298181
-0.00298181
-0.00298181
-0.00298181
-0.00298181
-0.00298181
-0.00298181
-0.00298181
-0.00298181
-0.00302908
-0.00302908
-0.00302909
-0.00302908
-0.00302909
-0.00302909
-0.00302908
-0.00302908
-0.00302909
-0.00302908
-0.00302908
-0.00302909
-0.00302908
-0.00302908
-0.00302908
-0.00302908
-0.00307636
-0.00307636
-0.00307636
-0.00307636
-0.00307636
-0.00307636
-0.00307636
-0.00307636
-0.00307636
-0.00307636
-0.00307636
-0.00307636
-0.00307636
-0.00307636
-0.00307636
-0.00307636
)
;

boundaryField
{
    wireUpstream
    {
        type            calculated;
        value           nonuniform List<scalar> 
16
(
-0.0031
-0.0031
-0.0031
-0.0031
-0.0031
-0.0031
-0.0031
-0.0031
-0.0031
-0.0031
-0.0031
-0.0031
-0.0031
-0.0031
-0.0031
-0.0031
)
;
    }
    wireDownstream
    {
        type            calculated;
        value           nonuniform List<scalar> 
16
(
0.003
0.003
0.003
0.003
0.003
0.003
0.003
0.003
0.003
0.003
0.003
0.003
0.003
0.003
0.003
0.003
)
;
    }
    wireTopContact
    {
        type            calculated;
        value           nonuniform List<scalar> 
122
(
0.00278497
0.00273479
0.00268461
0.00263443
0.00258425
0.00253407
0.00248388
0.0024337
0.00238352
0.00233334
0.00228315
0.00223297
0.00218279
0.00213261
0.00208242
0.00203224
0.00198205
0.00193187
0.00188168
0.0018315
0.00178131
0.00173113
0.00168094
0.00163075
0.00158057
0.00153038
0.00148019
0.00143
0.0013798
0.00132961
0.00127941
0.00122922
0.00117902
0.00112882
0.00107862
0.00102841
0.000978204
0.000927991
0.000877777
0.00082756
0.000777339
0.000727114
0.000676887
0.000626655
0.000576419
0.000526182
0.000475952
0.000425737
0.00037554
0.000325363
0.000275214
0.000225106
0.000175063
0.000125117
7.52956e-05
2.56124e-05
-2.39283e-05
-7.33273e-05
-0.00012259
-0.000171725
-0.000220738
-0.000269634
-0.000318421
-0.000367103
-0.000415683
-0.000464164
-0.00051255
-0.00056084
-0.000609029
-0.00065711
-0.000705073
-0.000752917
-0.000800667
-0.000848359
-0.000896021
-0.00094366
-0.000991277
-0.00103887
-0.00108645
-0.001134
-0.00118154
-0.00122906
-0.00127657
-0.00132407
-0.00137155
-0.00141901
-0.00146647
-0.00151392
-0.00156136
-0.00160879
-0.00165621
-0.00170363
-0.00175103
-0.00179843
-0.00184583
-0.00189322
-0.0019406
-0.00198797
-0.00203535
-0.00208271
-0.00213007
-0.00217743
-0.00222478
-0.00227212
-0.00231946
-0.0023668
-0.00241413
-0.00246146
-0.00250878
-0.0025561
-0.00260342
-0.00265074
-0.00269804
-0.00274534
-0.00279264
-0.00283994
-0.00288724
-0.00293452
-0.0029818
-0.00302908
-0.00307636
0.00290503
)
;
    }
    front
    {
        type            wedge;
    }
    back
    {
        type            wedge;
    }
}


// ************************************************************************* //
