/*--------------------------------*- C++ -*----------------------------------*\
| =========                 |                                                 |
| \\      /  F ield         | OpenFOAM: The Open Source CFD Toolbox           |
|  \\    /   O peration     | Version:  4.1                                   |
|   \\  /    A nd           | Web:      www.OpenFOAM.org                      |
|    \\/     M anipulation  |                                                 |
\*---------------------------------------------------------------------------*/
FoamFile
{
    version     2.0;
    format      ascii;
    class       surfaceScalarField;
    location    "0.0074";
    object      phi;
}
// * * * * * * * * * * * * * * * * * * * * * * * * * * * * * * * * * * * * * //

dimensions      [0 3 -1 0 0 0 0];

internalField   nonuniform List<scalar> 
17536
(
-1.0208e-08
1.6911e-11
1.7037e-11
-2.061e-11
-2.0753e-11
-9.2793e-09
1.2347e-10
1.2391e-10
-1.6277e-10
-1.6283e-10
-8.8488e-09
2.4522e-10
2.4609e-10
-3.3322e-10
-3.3275e-10
-8.959e-09
3.7479e-10
3.7612e-10
-5.3014e-10
-5.2917e-10
-9.5088e-09
5.0938e-10
5.1122e-10
-7.3339e-10
-7.3211e-10
-1.0354e-08
6.3249e-10
6.3474e-10
-9.1373e-10
-9.1233e-10
-1.1416e-08
7.2527e-10
7.2791e-10
-1.0451e-09
-1.0436e-09
-1.2675e-08
7.9285e-10
7.9606e-10
-1.1422e-09
-1.1408e-09
-1.4134e-08
8.4544e-10
8.4906e-10
-1.2238e-09
-1.2217e-09
-1.5792e-08
8.8671e-10
8.9077e-10
-1.2932e-09
-1.2908e-09
-1.7627e-08
9.0904e-10
9.1347e-10
-1.3381e-09
-1.3358e-09
-1.9584e-08
8.9981e-10
9.045e-10
-1.3404e-09
-1.3389e-09
-2.1574e-08
8.4721e-10
8.5183e-10
-1.2864e-09
-1.2824e-09
-2.3488e-08
7.4788e-10
7.5253e-10
-1.1682e-09
-1.1647e-09
-2.5213e-08
6.1137e-10
6.1583e-10
-9.9833e-10
-9.9629e-10
-2.6651e-08
4.5816e-10
4.622e-10
-8.0593e-10
-8.0294e-10
-2.7729e-08
3.0253e-10
3.0601e-10
-6.0704e-10
-6.0474e-10
-2.8423e-08
1.2532e-10
1.2816e-10
-3.5767e-10
-3.5544e-10
-2.8814e-08
-6.3424e-11
-6.1316e-11
2.0618e-12
4.0778e-12
-2.8667e-08
-4.6376e-11
-4.496e-11
1.171e-10
1.1859e-10
-2.7812e-08
-4.1043e-10
-4.102e-10
6.0943e-10
6.099e-10
-2.6161e-08
-7.1052e-10
-7.1154e-10
1.044e-09
1.0437e-09
-2.3738e-08
-9.7649e-10
-9.789e-10
1.4479e-09
1.4466e-09
-2.066e-08
-1.1879e-09
-1.1916e-09
1.7833e-09
1.783e-09
-1.7123e-08
-1.324e-09
-1.3285e-09
2.0211e-09
2.0179e-09
-1.3335e-08
-1.3769e-09
-1.3823e-09
2.1377e-09
2.1336e-09
-9.4879e-09
-1.3482e-09
-1.3543e-09
2.1351e-09
2.1333e-09
-5.7287e-09
-1.2517e-09
-1.2579e-09
2.0369e-09
2.0334e-09
-2.1593e-09
-1.1007e-09
-1.1068e-09
1.8595e-09
1.8571e-09
1.1389e-09
-9.0719e-10
-9.1278e-10
1.62e-09
1.6186e-09
4.0728e-09
-6.8261e-10
-6.8781e-10
1.3318e-09
1.3297e-09
6.5097e-09
-4.5331e-10
-4.576e-10
1.0264e-09
1.0236e-09
8.2402e-09
-2.5187e-10
-2.5517e-10
7.6651e-10
7.6449e-10
9.2444e-09
-7.7204e-11
-7.9445e-11
4.6692e-10
4.6686e-10
9.6952e-09
1.3991e-10
1.3879e-10
1.3851e-13
-2.2492e-12
9.6821e-09
1.7162e-10
1.7169e-10
-3.0845e-10
-3.0967e-10
8.7991e-09
1.6177e-10
1.6166e-10
-2.8045e-10
-2.803e-10
7.5564e-09
2.8521e-10
2.8618e-10
-4.88e-10
-4.8787e-10
6.1586e-09
2.7799e-10
2.7907e-10
-4.867e-10
-4.8646e-10
4.865e-09
1.8658e-10
1.8771e-10
-3.691e-10
-3.6903e-10
3.8824e-09
7.9637e-11
8.0672e-11
-2.3261e-10
-2.3313e-10
3.2563e-09
5.2125e-11
5.2892e-11
-1.617e-10
-1.628e-10
2.9108e-09
1.0647e-10
1.074e-10
-1.6579e-10
-1.6664e-10
2.7192e-09
2.1671e-10
2.1731e-10
-2.4636e-10
-2.4626e-10
2.5447e-09
1.9445e-10
1.9481e-10
-2.3242e-10
-2.3217e-10
2.1534e-09
9.1933e-11
9.2103e-11
-1.0141e-10
-1.0127e-10
1.3152e-09
-5.3906e-10
-5.3906e-10
6.591e-10
6.5893e-10
-7.5544e-10
-7.5552e-10
9.1346e-10
9.1328e-10
-1.0292e-08
1.9349e-11
2.4958e-11
-4.0076e-11
-9.4053e-09
1.128e-10
1.566e-10
-2.5201e-10
-8.9872e-09
2.2673e-10
3.2019e-10
-5.4009e-10
-9.0784e-09
3.567e-10
5.0455e-10
-8.9494e-10
-9.5993e-09
4.8755e-10
6.9119e-10
-1.2455e-09
-1.0425e-08
6.0129e-10
8.6016e-10
-1.5451e-09
-1.1479e-08
6.8813e-10
9.9698e-10
-1.7779e-09
-1.2736e-08
7.5502e-10
1.1086e-09
-1.97e-09
-1.4193e-08
8.1034e-10
1.204e-09
-2.1443e-09
-1.5845e-08
8.5522e-10
1.2849e-09
-2.2995e-09
-1.7666e-08
8.8319e-10
1.3428e-09
-2.4187e-09
-1.9602e-08
8.8454e-10
1.366e-09
-2.4807e-09
-2.1568e-08
8.4995e-10
1.345e-09
-2.4683e-09
-2.346e-08
7.7594e-10
1.2777e-09
-2.3744e-09
-2.5167e-08
6.6751e-10
1.1697e-09
-2.2059e-09
-2.6594e-08
5.3334e-10
1.0287e-09
-1.9701e-09
-2.7669e-08
3.7679e-10
8.4926e-10
-1.6522e-09
-2.8363e-08
1.8085e-10
5.9216e-10
-1.1722e-09
-2.872e-08
-7.9667e-11
2.1229e-10
-3.4588e-10
-2.8503e-08
-2.616e-10
-1.2731e-10
4.9174e-10
-2.7614e-08
-5.7561e-10
-5.6718e-10
1.2383e-09
-2.5956e-08
-8.7451e-10
-9.8846e-10
2.011e-09
-2.3551e-08
-1.1374e-09
-1.3953e-09
2.767e-09
-2.0514e-08
-1.3568e-09
-1.7553e-09
3.4532e-09
-1.7025e-08
-1.5155e-09
-2.034e-09
4.003e-09
-1.3285e-08
-1.5977e-09
-2.2119e-09
4.3717e-09
-9.4811e-09
-1.6031e-09
-2.2859e-09
4.5504e-09
-5.7566e-09
-1.5402e-09
-2.2664e-09
4.5565e-09
-2.2142e-09
-1.4234e-09
-2.1686e-09
4.4203e-09
1.0579e-09
-1.2617e-09
-2.0107e-09
4.1704e-09
3.9585e-09
-1.0589e-09
-1.8075e-09
3.8221e-09
6.363e-09
-8.3164e-10
-1.5675e-09
3.3764e-09
8.1301e-09
-5.8974e-10
-1.2955e-09
2.8231e-09
9.1148e-09
-3.175e-10
-9.7745e-10
2.1636e-09
9.5509e-09
-7.5985e-12
-5.2811e-10
1.0703e-09
9.4708e-09
2.2763e-10
-4.3495e-11
-1.5412e-10
8.6578e-09
3.3946e-10
1.919e-10
-6.4116e-10
7.4911e-09
4.3311e-10
3.8292e-10
-1.0022e-09
6.1674e-09
4.6181e-10
4.5855e-10
-1.1475e-09
4.9193e-09
3.8218e-10
4.329e-10
-1.0729e-09
3.9336e-09
2.7287e-10
3.6935e-10
-9.1311e-10
3.2913e-09
1.9529e-10
3.2127e-10
-7.2177e-10
2.9223e-09
1.5278e-10
2.9616e-10
-4.9128e-10
2.747e-09
1.5713e-10
2.7471e-10
-3.3706e-10
2.5664e-09
1.2681e-10
2.2737e-10
-2.5928e-10
2.1953e-09
5.1138e-11
9.58e-11
-1.0043e-10
1.3308e-09
-3.075e-10
-4.3006e-10
4.7846e-10
-4.8892e-10
-6.6983e-10
7.7367e-10
-1.0344e-08
1.0951e-11
3.2443e-11
-4.4326e-11
-9.4822e-09
6.1096e-11
1.809e-10
-2.6197e-10
-9.0739e-09
1.1934e-10
3.6101e-10
-5.4374e-10
-9.1558e-09
1.8588e-10
5.7385e-10
-8.9188e-10
-9.6586e-09
2.5223e-10
7.8852e-10
-1.237e-09
-1.047e-08
3.104e-10
9.8131e-10
-1.537e-09
-1.1518e-08
3.553e-10
1.1386e-09
-1.7736e-09
-1.2774e-08
3.8944e-10
1.2669e-09
-1.9674e-09
-1.4229e-08
4.1674e-10
1.3764e-09
-2.1401e-09
-1.5876e-08
4.3842e-10
1.469e-09
-2.2917e-09
-1.7689e-08
4.5134e-10
1.536e-09
-2.4068e-09
-1.9613e-08
4.5043e-10
1.5653e-09
-2.4644e-09
-2.1564e-08
4.3081e-10
1.5462e-09
-2.4471e-09
-2.344e-08
3.9062e-10
1.474e-09
-2.3467e-09
-2.5133e-08
3.3186e-10
1.3506e-09
-2.1667e-09
-2.6547e-08
2.5791e-10
1.1789e-09
-1.915e-09
-2.7612e-08
1.6994e-10
9.4649e-10
-1.5772e-09
-2.8293e-08
5.9933e-11
6.0831e-10
-1.0772e-09
-2.859e-08
-7.7985e-11
1.2995e-10
-3.416e-10
-2.8373e-08
-1.8985e-10
-3.0969e-10
4.4268e-10
-2.7487e-08
-3.141e-10
-8.4791e-10
1.2053e-09
-2.5834e-08
-4.6019e-10
-1.3251e-09
1.9321e-09
-2.3442e-08
-5.9543e-10
-1.7798e-09
2.6653e-09
-2.0427e-08
-7.0931e-10
-2.1871e-09
3.335e-09
-1.6966e-08
-7.8663e-10
-2.5151e-09
3.8726e-09
-1.3255e-08
-8.2119e-10
-2.7351e-09
4.2342e-09
-9.4763e-09
-8.1408e-10
-2.8376e-09
4.409e-09
-5.7722e-09
-7.7151e-10
-2.8264e-09
4.4106e-09
-2.251e-09
-7.0131e-10
-2.7182e-09
4.2668e-09
9.9654e-10
-6.1084e-10
-2.5264e-09
4.0014e-09
3.8703e-09
-5.01e-10
-2.2613e-09
3.6289e-09
6.2476e-09
-3.7622e-10
-1.9372e-09
3.1568e-09
8.0019e-09
-2.4174e-10
-1.5529e-09
2.5783e-09
9.0238e-09
-8.5429e-11
-1.0913e-09
1.8935e-09
9.3951e-09
8.5256e-11
-5.0303e-10
9.5431e-10
9.2674e-09
2.1774e-10
5.4965e-11
-8.9302e-11
8.5268e-09
2.0775e-10
3.1962e-10
-5.1118e-10
7.4253e-09
2.1778e-10
5.7808e-10
-9.0229e-10
6.1582e-09
2.3627e-10
6.7881e-10
-1.0369e-09
4.9508e-09
1.8942e-10
6.2995e-10
-9.5738e-10
3.9841e-09
1.3278e-10
5.1169e-10
-7.8274e-10
3.3462e-09
8.6744e-11
3.9991e-10
-5.9543e-10
2.9792e-09
6.0371e-11
2.8926e-10
-3.8693e-10
2.7803e-09
5.4483e-11
2.4153e-10
-2.6913e-10
2.5874e-09
4.4059e-11
1.8619e-10
-2.1053e-10
2.2063e-09
1.1356e-11
6.1699e-11
-6.1644e-11
1.3621e-09
-1.7133e-10
-4.4173e-10
5.7316e-10
-2.493e-10
-6.6572e-10
8.1941e-10
-1.0372e-08
3.6239e-14
3.5749e-11
-4.9342e-11
-9.5202e-09
1.0496e-13
1.9288e-10
-2.7997e-10
-9.1166e-09
1.2181e-13
3.8338e-10
-5.8118e-10
-9.1943e-09
6.5834e-14
6.1019e-10
-9.5469e-10
-9.689e-09
-3.0535e-14
8.3985e-10
-1.3262e-09
-1.0495e-08
-1.9846e-13
1.0468e-09
-1.6493e-09
-1.154e-08
-3.8342e-13
1.2165e-09
-1.9059e-09
-1.2794e-08
-5.2818e-13
1.3554e-09
-2.118e-09
-1.4248e-08
-7.1366e-13
1.4756e-09
-2.3096e-09
-1.5893e-08
-8.5862e-13
1.5797e-09
-2.4799e-09
-1.7702e-08
-8.958e-13
1.6581e-09
-2.6122e-09
-1.962e-08
-7.8969e-13
1.6981e-09
-2.6848e-09
-2.1564e-08
-6.8931e-13
1.6886e-09
-2.6799e-09
-2.3433e-08
-6.6026e-13
1.6244e-09
-2.5884e-09
-2.5119e-08
-6.2415e-13
1.5065e-09
-2.4135e-09
-2.6528e-08
-5.4267e-13
1.3366e-09
-2.1635e-09
-2.7587e-08
-4.1827e-13
1.0992e-09
-1.8209e-09
-2.8264e-08
-2.2838e-13
7.4709e-10
-1.3083e-09
-2.8545e-08
-7.12e-14
2.4511e-10
-5.4747e-10
-2.833e-08
-1.7246e-13
-2.8301e-10
3.2953e-10
-2.7428e-08
6.0691e-14
-8.2186e-10
1.167e-09
-2.5772e-08
1.4387e-13
-1.3368e-09
1.9783e-09
-2.3387e-08
3.2349e-13
-1.8362e-09
2.7805e-09
-2.0383e-08
2.5707e-13
-2.2927e-09
3.5163e-09
-1.6936e-08
1.8084e-13
-2.6621e-09
4.1199e-09
-1.324e-08
3.1059e-13
-2.917e-09
4.5442e-09
-9.473e-09
2.1246e-13
-3.0479e-09
4.775e-09
-5.78e-09
1.263e-13
-3.0618e-09
4.8248e-09
-2.2693e-09
-1.759e-13
-2.9735e-09
4.7189e-09
9.6734e-10
-5.4753e-13
-2.8002e-09
4.4793e-09
3.8291e-09
-3.5583e-13
-2.5518e-09
4.1226e-09
6.1942e-09
-3.2169e-13
-2.2369e-09
3.6597e-09
7.9394e-09
-3.6784e-14
-1.8551e-09
3.0839e-09
8.9668e-09
1.8017e-13
-1.3757e-09
2.3839e-09
9.3486e-09
3.3707e-13
-7.6238e-10
1.4252e-09
9.2116e-09
5.2876e-13
-1.4169e-10
3.5056e-10
8.498e-09
3.4198e-13
2.5949e-10
-3.9042e-10
7.385e-09
-5.5645e-14
5.4711e-10
-8.5766e-10
6.1478e-09
-1.0981e-13
6.4575e-10
-1.0331e-09
4.9607e-09
-1.4557e-13
6.3437e-10
-1.0024e-09
4.0052e-09
-7.6037e-14
5.5083e-10
-8.6133e-10
3.3726e-09
7.7998e-14
4.4439e-10
-6.8901e-10
3.0006e-09
1.5892e-13
3.3363e-10
-4.7905e-10
2.7928e-09
2.4239e-13
2.6157e-10
-3.4564e-10
2.595e-09
2.1217e-13
2.0457e-10
-2.7361e-10
2.2107e-09
1.3097e-13
6.9294e-11
-9.7489e-11
1.369e-09
2.6122e-13
-4.116e-10
5.0853e-10
1.0259e-13
-6.4674e-10
7.986e-10
-1.0372e-08
-1.0861e-11
3.5735e-11
-4.9347e-11
-9.5202e-09
-6.0909e-11
1.9283e-10
-2.799e-10
-9.1166e-09
-1.1922e-10
3.8327e-10
-5.8093e-10
-9.1943e-09
-1.8591e-10
6.1005e-10
-9.5438e-10
-9.689e-09
-2.5246e-10
8.3979e-10
-1.3259e-09
-1.0495e-08
-3.1088e-10
1.0468e-09
-1.6491e-09
-1.154e-08
-3.5606e-10
1.2165e-09
-1.9059e-09
-1.2794e-08
-3.9051e-10
1.3554e-09
-2.118e-09
-1.4248e-08
-4.1816e-10
1.4756e-09
-2.3095e-09
-1.5893e-08
-4.4003e-10
1.5797e-09
-2.48e-09
-1.7702e-08
-4.5296e-10
1.6581e-09
-2.6124e-09
-1.962e-08
-4.5172e-10
1.6981e-09
-2.685e-09
-2.1564e-08
-4.3218e-10
1.6885e-09
-2.6797e-09
-2.3433e-08
-3.9214e-10
1.6242e-09
-2.588e-09
-2.5119e-08
-3.3335e-10
1.5063e-09
-2.413e-09
-2.6528e-08
-2.5925e-10
1.3364e-09
-2.1629e-09
-2.7587e-08
-1.71e-10
1.0989e-09
-1.8203e-09
-2.8264e-08
-6.0625e-11
7.4679e-10
-1.3077e-09
-2.8545e-08
7.7657e-11
2.4479e-10
-5.4685e-10
-2.833e-08
1.8955e-10
-2.8321e-10
3.2967e-10
-2.7428e-08
3.14e-10
-8.2224e-10
1.1676e-09
-2.5772e-08
4.5994e-10
-1.3371e-09
1.9792e-09
-2.3387e-08
5.956e-10
-1.8366e-09
2.7814e-09
-2.0384e-08
7.0924e-10
-2.2931e-09
3.5173e-09
-1.6936e-08
7.8686e-10
-2.6623e-09
4.1202e-09
-1.324e-08
8.2187e-10
-2.9171e-09
4.5444e-09
-9.473e-09
8.1484e-10
-3.0479e-09
4.7747e-09
-5.78e-09
7.7197e-10
-3.0616e-09
4.8244e-09
-2.2693e-09
7.0137e-10
-2.9733e-09
4.7184e-09
9.6733e-10
6.1011e-10
-2.7998e-09
4.4786e-09
3.8291e-09
5.0058e-10
-2.5514e-09
4.122e-09
6.1942e-09
3.7576e-10
-2.2366e-09
3.6593e-09
7.9394e-09
2.4163e-10
-1.8549e-09
3.0838e-09
8.9668e-09
8.5792e-11
-1.3755e-09
2.3837e-09
9.3487e-09
-8.4477e-11
-7.6226e-10
1.4249e-09
9.2115e-09
-2.1668e-10
-1.4168e-10
3.5068e-10
8.4979e-09
-2.0717e-10
2.5956e-10
-3.9048e-10
7.3851e-09
-2.1799e-10
5.4731e-10
-8.5785e-10
6.1479e-09
-2.3645e-10
6.4579e-10
-1.0332e-09
4.9608e-09
-1.8968e-10
6.344e-10
-1.0025e-09
4.0053e-09
-1.3297e-10
5.5092e-10
-8.6143e-10
3.3727e-09
-8.655e-11
4.4424e-10
-6.8894e-10
3.0006e-09
-6.0099e-11
3.3369e-10
-4.7907e-10
2.7928e-09
-5.4094e-11
2.616e-10
-3.4561e-10
2.595e-09
-4.3717e-11
2.046e-10
-2.7359e-10
2.2107e-09
-1.1239e-11
6.9334e-11
-9.7425e-11
1.369e-09
1.7172e-10
-4.1161e-10
5.0868e-10
2.4943e-10
-6.4676e-10
7.9871e-10
-1.0344e-08
-1.9251e-11
3.2388e-11
-4.4263e-11
-9.4822e-09
-1.1269e-10
1.8077e-10
-2.6175e-10
-9.0739e-09
-2.2684e-10
3.608e-10
-5.4327e-10
-9.1558e-09
-3.5694e-10
5.7364e-10
-8.9144e-10
-9.6586e-09
-4.8786e-10
7.8833e-10
-1.2367e-09
-1.047e-08
-6.0167e-10
9.8115e-10
-1.5369e-09
-1.1518e-08
-6.8867e-10
1.1385e-09
-1.7736e-09
-1.2774e-08
-7.5588e-10
1.2669e-09
-1.9675e-09
-1.4229e-08
-8.1142e-10
1.3763e-09
-2.1404e-09
-1.5876e-08
-8.5642e-10
1.4689e-09
-2.292e-09
-1.7689e-08
-8.8466e-10
1.5359e-09
-2.4069e-09
-1.9613e-08
-8.8576e-10
1.5649e-09
-2.464e-09
-2.1564e-08
-8.5131e-10
1.5459e-09
-2.4467e-09
-2.344e-08
-7.7764e-10
1.4736e-09
-2.3461e-09
-2.5133e-08
-6.6932e-10
1.3501e-09
-2.1658e-09
-2.6547e-08
-5.3496e-10
1.1785e-09
-1.9141e-09
-2.7612e-08
-3.7828e-10
9.4588e-10
-1.576e-09
-2.8293e-08
-1.8216e-10
6.0756e-10
-1.0756e-09
-2.859e-08
7.8636e-11
1.2909e-10
-3.3976e-10
-2.8373e-08
2.6075e-10
-3.1028e-10
4.4383e-10
-2.7488e-08
5.7537e-10
-8.489e-10
1.2068e-09
-2.5834e-08
8.7254e-10
-1.3254e-09
1.9339e-09
-2.3442e-08
1.137e-09
-1.7804e-09
2.6667e-09
-2.0427e-08
1.3565e-09
-2.1875e-09
3.3357e-09
-1.6966e-08
1.5151e-09
-2.5154e-09
3.8734e-09
-1.3256e-08
1.5985e-09
-2.7355e-09
4.2347e-09
-9.4763e-09
1.6037e-09
-2.8374e-09
4.409e-09
-5.7723e-09
1.5407e-09
-2.8264e-09
4.4108e-09
-2.2512e-09
1.4236e-09
-2.7177e-09
4.2665e-09
9.9673e-10
1.2605e-09
-2.5254e-09
4.0007e-09
3.8703e-09
1.0589e-09
-2.2608e-09
3.6282e-09
6.2476e-09
8.3086e-10
-1.9365e-09
3.1563e-09
8.002e-09
5.8946e-10
-1.5523e-09
2.578e-09
9.0239e-09
3.1767e-10
-1.0909e-09
1.8933e-09
9.3952e-09
7.8092e-12
-5.0272e-10
9.5447e-10
9.2672e-09
-2.2779e-10
5.516e-11
-8.8141e-11
8.5266e-09
-3.3813e-10
3.1958e-10
-5.1196e-10
7.4252e-09
-4.3307e-10
5.7817e-10
-9.0271e-10
6.1582e-09
-4.6193e-10
6.792e-10
-1.0375e-09
4.9509e-09
-3.8206e-10
6.3035e-10
-9.5833e-10
3.9843e-09
-2.7289e-10
5.1217e-10
-7.835e-10
3.3464e-09
-1.9508e-10
4.0038e-10
-5.9601e-10
2.9793e-09
-1.5251e-10
2.8921e-10
-3.8695e-10
2.7804e-09
-1.5681e-10
2.4139e-10
-2.6901e-10
2.5875e-09
-1.2629e-10
1.8608e-10
-2.1066e-10
2.2064e-09
-5.0842e-11
6.1671e-11
-6.1885e-11
1.362e-09
3.0787e-10
-4.4174e-10
5.7329e-10
4.8886e-10
-6.6578e-10
8.1965e-10
-1.0292e-08
-1.6884e-11
2.4894e-11
-3.9917e-11
-9.4052e-09
-1.2342e-10
1.5646e-10
-2.5179e-10
-8.9872e-09
-2.4527e-10
3.2002e-10
-5.3992e-10
-9.0784e-09
-3.7487e-10
5.044e-10
-8.949e-10
-9.5992e-09
-5.0948e-10
6.9112e-10
-1.2456e-09
-1.0425e-08
-6.3257e-10
8.6001e-10
-1.5452e-09
-1.1479e-08
-7.2546e-10
9.9679e-10
-1.778e-09
-1.2736e-08
-7.9336e-10
1.1085e-09
-1.9702e-09
-1.4193e-08
-8.4607e-10
1.2039e-09
-2.1446e-09
-1.5845e-08
-8.8749e-10
1.2847e-09
-2.2997e-09
-1.7666e-08
-9.1043e-10
1.3427e-09
-2.4187e-09
-1.9602e-08
-9.0123e-10
1.3656e-09
-2.4799e-09
-2.1568e-08
-8.4811e-10
1.3447e-09
-2.4682e-09
-2.346e-08
-7.4938e-10
1.2774e-09
-2.3743e-09
-2.5167e-08
-6.1304e-10
1.1693e-09
-2.2056e-09
-2.6594e-08
-4.5974e-10
1.0282e-09
-1.9694e-09
-2.7669e-08
-3.0412e-10
8.4859e-10
-1.6512e-09
-2.8363e-08
-1.2693e-10
5.9135e-10
-1.1708e-09
-2.872e-08
6.163e-11
2.1129e-10
-3.4368e-10
-2.8503e-08
4.4744e-11
-1.2787e-10
4.9337e-10
-2.7614e-08
4.0886e-10
-5.6751e-10
1.2397e-09
-2.5956e-08
7.087e-10
-9.8956e-10
2.0125e-09
-2.3551e-08
9.7602e-10
-1.3963e-09
2.7686e-09
-2.0515e-08
1.1878e-09
-1.756e-09
3.4537e-09
-1.7025e-08
1.323e-09
-2.0345e-09
4.0042e-09
-1.3285e-08
1.3768e-09
-2.2126e-09
4.3735e-09
-9.4812e-09
1.3482e-09
-2.2863e-09
4.5518e-09
-5.7566e-09
1.2514e-09
-2.2662e-09
4.5571e-09
-2.2141e-09
1.1005e-09
-2.1684e-09
4.4203e-09
1.0576e-09
9.0679e-10
-2.0105e-09
4.1699e-09
3.9584e-09
6.825e-10
-1.8066e-09
3.8211e-09
6.3629e-09
4.5291e-10
-1.5666e-09
3.3753e-09
8.1301e-09
2.5151e-10
-1.2946e-09
2.8222e-09
9.1148e-09
7.7238e-11
-9.7674e-10
2.1629e-09
9.5511e-09
-1.4089e-10
-5.275e-10
1.0705e-09
9.4705e-09
-1.7247e-10
-4.3242e-11
-1.5324e-10
8.6574e-09
-1.6039e-10
1.9197e-10
-6.4134e-10
7.491e-09
-2.85e-10
3.835e-10
-1.0033e-09
6.1674e-09
-2.7758e-10
4.5896e-10
-1.1487e-09
4.9195e-09
-1.862e-10
4.3321e-10
-1.0738e-09
3.9338e-09
-7.9443e-11
3.6948e-10
-9.1357e-10
3.2915e-09
-5.1877e-11
3.2097e-10
-7.2162e-10
2.9224e-09
-1.0631e-10
2.9618e-10
-4.9128e-10
2.7471e-09
-2.1648e-10
2.7479e-10
-3.3714e-10
2.5665e-09
-1.9402e-10
2.2755e-10
-2.5959e-10
2.1954e-09
-9.1757e-11
9.5893e-11
-1.0048e-10
1.3308e-09
5.3946e-10
-4.3001e-10
4.7837e-10
7.5529e-10
-6.698e-10
7.7374e-10
-1.0208e-08
1.6954e-11
-2.0542e-11
-2.0593e-11
-9.2792e-09
1.2373e-10
-1.6278e-10
-1.625e-10
-8.8488e-09
2.4583e-10
-3.3309e-10
-3.3258e-10
-8.959e-09
3.7575e-10
-5.2982e-10
-5.2913e-10
-9.5087e-09
5.1067e-10
-7.329e-10
-7.3207e-10
-1.0354e-08
6.3409e-10
-9.1313e-10
-9.1226e-10
-1.1416e-08
7.2725e-10
-1.0444e-09
-1.0436e-09
-1.2674e-08
7.9549e-10
-1.142e-09
-1.1409e-09
-1.4134e-08
8.4845e-10
-1.2236e-09
-1.2219e-09
-1.5792e-08
8.902e-10
-1.2932e-09
-1.2909e-09
-1.7627e-08
9.1335e-10
-1.3384e-09
-1.3369e-09
-1.9584e-08
9.0428e-10
-1.3408e-09
-1.3394e-09
-2.1574e-08
8.5151e-10
-1.2865e-09
-1.2825e-09
-2.3488e-08
7.5231e-10
-1.1682e-09
-1.1659e-09
-2.5213e-08
6.1553e-10
-9.9888e-10
-9.9698e-10
-2.6651e-08
4.6164e-10
-8.0498e-10
-8.0458e-10
-2.7729e-08
3.0538e-10
-6.0579e-10
-6.0674e-10
-2.8423e-08
1.2755e-10
-3.5616e-10
-3.577e-10
-2.8815e-08
-6.1805e-11
3.2121e-12
2.0865e-12
-2.8668e-08
-4.521e-11
1.1764e-10
1.1687e-10
-2.7812e-08
-4.1072e-10
6.0995e-10
6.0835e-10
-2.6161e-08
-7.1183e-10
1.0444e-09
1.0421e-09
-2.3738e-08
-9.7991e-10
1.4488e-09
1.4467e-09
-2.0661e-08
-1.193e-09
1.7852e-09
1.7829e-09
-1.7123e-08
-1.3294e-09
2.0231e-09
2.0155e-09
-1.3335e-08
-1.3831e-09
2.1391e-09
2.1336e-09
-9.488e-09
-1.3547e-09
2.1378e-09
2.1313e-09
-5.7289e-09
-1.2577e-09
2.0375e-09
2.0327e-09
-2.1591e-09
-1.1061e-09
1.8598e-09
1.8557e-09
1.1389e-09
-9.1218e-10
1.621e-09
1.617e-09
4.0726e-09
-6.8714e-10
1.3323e-09
1.3286e-09
6.5097e-09
-4.5668e-10
1.026e-09
1.0225e-09
8.2399e-09
-2.5438e-10
7.6615e-10
7.6399e-10
9.244e-09
-7.9073e-11
4.6717e-10
4.6634e-10
9.696e-09
1.4011e-10
-2.3069e-12
-3.5117e-12
9.6814e-09
1.7351e-10
-3.1011e-10
-3.0925e-10
8.7992e-09
1.6224e-10
-2.8157e-10
-2.7936e-10
7.5562e-09
2.8678e-10
-4.8879e-10
-4.8717e-10
6.1586e-09
2.7954e-10
-4.8759e-10
-4.8581e-10
4.8653e-09
1.8779e-10
-3.6972e-10
-3.6854e-10
3.8826e-09
8.0889e-11
-2.3335e-10
-2.3248e-10
3.2566e-09
5.3325e-11
-1.6285e-10
-1.6204e-10
2.9112e-09
1.0744e-10
-1.67e-10
-1.6555e-10
2.7194e-09
2.1732e-10
-2.4658e-10
-2.4589e-10
2.545e-09
1.9476e-10
-2.3259e-10
-2.3171e-10
2.1535e-09
9.217e-11
-1.0158e-10
-1.0099e-10
1.315e-09
-5.3928e-10
6.5935e-10
6.5932e-10
-7.5539e-10
9.135e-10
9.1296e-10
-1.0292e-08
2.478e-11
1.9438e-11
-4.0005e-11
-9.4053e-09
1.5602e-10
1.1312e-10
-2.5183e-10
-8.9872e-09
3.1913e-10
2.2733e-10
-5.3976e-10
-9.0784e-09
5.0299e-10
3.5755e-10
-8.9442e-10
-9.5993e-09
6.8922e-10
4.8876e-10
-1.2449e-09
-1.0425e-08
8.5764e-10
6.0274e-10
-1.5443e-09
-1.1479e-08
9.9385e-10
6.8992e-10
-1.7768e-09
-1.2736e-08
1.1051e-09
7.5719e-10
-1.9686e-09
-1.4193e-08
1.2e-09
8.1282e-10
-2.1426e-09
-1.5845e-08
1.2805e-09
8.58e-10
-2.2975e-09
-1.7666e-08
1.3381e-09
8.8634e-10
-2.4166e-09
-1.9602e-08
1.3611e-09
8.88e-10
-2.4785e-09
-2.1568e-08
1.3401e-09
8.5352e-10
-2.4662e-09
-2.346e-08
1.2728e-09
7.7947e-10
-2.3721e-09
-2.5167e-08
1.1651e-09
6.7093e-10
-2.2036e-09
-2.6594e-08
1.0247e-09
5.366e-10
-1.9682e-09
-2.7669e-08
8.4597e-10
3.7992e-10
-1.6508e-09
-2.8363e-08
5.8964e-10
1.8371e-10
-1.171e-09
-2.872e-08
2.1065e-10
-7.7226e-11
-3.4493e-10
-2.8503e-08
-1.2797e-10
-2.5978e-10
4.9269e-10
-2.7614e-08
-5.6656e-10
-5.7488e-10
1.2389e-09
-2.5956e-08
-9.867e-10
-8.7377e-10
2.0107e-09
-2.3551e-08
-1.3916e-09
-1.1385e-09
2.7662e-09
-2.0515e-08
-1.7505e-09
-1.359e-09
3.4521e-09
-1.7025e-08
-2.0282e-09
-1.5184e-09
4.0019e-09
-1.3285e-08
-2.2051e-09
-1.6012e-09
4.3692e-09
-9.4812e-09
-2.2785e-09
-1.6067e-09
4.5474e-09
-5.7566e-09
-2.2588e-09
-1.544e-09
4.5534e-09
-2.2141e-09
-2.1613e-09
-1.4274e-09
4.4173e-09
1.0578e-09
-2.0038e-09
-1.2649e-09
4.1674e-09
3.9585e-09
-1.801e-09
-1.0623e-09
3.8191e-09
6.3629e-09
-1.5618e-09
-8.3435e-10
3.3738e-09
8.13e-09
-1.2908e-09
-5.919e-10
2.8209e-09
9.1146e-09
-9.7392e-10
-3.1904e-10
2.1619e-09
9.5506e-09
-5.2566e-10
-8.3504e-12
1.069e-09
9.4707e-09
-4.1882e-11
2.2783e-10
-1.5558e-10
8.6574e-09
1.9233e-10
3.3969e-10
-6.4207e-10
7.4908e-09
3.827e-10
4.338e-10
-1.0028e-09
6.1671e-09
4.5833e-10
4.6247e-10
-1.1481e-09
4.9191e-09
4.326e-10
3.83e-10
-1.0736e-09
3.9334e-09
3.6921e-10
2.7381e-10
-9.1391e-10
3.2912e-09
3.2121e-10
1.9599e-10
-7.2232e-10
2.9221e-09
2.9647e-10
1.5358e-10
-4.919e-10
2.747e-09
2.7512e-10
1.5759e-10
-3.3748e-10
2.5664e-09
2.2763e-10
1.2734e-10
-2.5982e-10
2.1954e-09
9.61e-11
5.1546e-11
-1.0095e-10
1.3308e-09
-4.297e-10
-3.0736e-10
4.7802e-10
-6.6967e-10
-4.8887e-10
7.7342e-10
-1.0375e-08
1.878e-11
1.8958e-11
-9.5235e-09
1.1244e-10
1.1304e-10
-9.1144e-09
2.2961e-10
2.3071e-10
-9.1897e-09
3.5935e-10
3.61e-10
-9.6852e-09
4.9021e-10
4.9248e-10
-1.0492e-08
6.0782e-10
6.1063e-10
-1.1536e-08
7.035e-10
7.0676e-10
-1.2787e-08
7.8227e-10
7.8596e-10
-1.4237e-08
8.4954e-10
8.5377e-10
-1.5878e-08
9.057e-10
9.1034e-10
-1.768e-08
9.4509e-10
9.5009e-10
-1.9589e-08
9.5948e-10
9.6476e-10
-2.1525e-08
9.4242e-10
9.4774e-10
-2.3385e-08
8.9239e-10
8.9758e-10
-2.5065e-08
8.1346e-10
8.1834e-10
-2.6472e-08
7.1096e-10
7.1535e-10
-2.7538e-08
5.8244e-10
5.8619e-10
-2.8233e-08
4.0806e-10
4.1103e-10
-2.8567e-08
1.744e-10
1.7642e-10
-2.827e-08
-8.5922e-11
-8.5156e-11
-2.736e-08
-3.7374e-10
-3.7439e-10
-2.571e-08
-6.7064e-10
-6.7281e-10
-2.3337e-08
-9.5649e-10
-9.6002e-10
-2.0348e-08
-1.2072e-09
-1.212e-09
-1.6913e-08
-1.3986e-09
-1.4044e-09
-1.3224e-08
-1.5179e-09
-1.5246e-09
-9.4592e-09
-1.5645e-09
-1.5719e-09
-5.7636e-09
-1.5468e-09
-1.5543e-09
-2.2448e-09
-1.4757e-09
-1.4831e-09
1.0038e-09
-1.3644e-09
-1.3713e-09
3.8805e-09
-1.2234e-09
-1.2296e-09
6.265e-09
-1.058e-09
-1.0633e-09
8.0383e-09
-8.7486e-10
-8.7917e-10
9.0916e-09
-6.5157e-10
-6.547e-10
9.5074e-09
-3.6553e-10
-3.6743e-10
9.3982e-09
-7.6923e-11
-7.7701e-11
8.58e-09
1.3669e-10
1.3678e-10
7.4796e-09
2.2427e-10
2.2496e-10
6.2223e-09
2.8718e-10
2.8814e-10
5.0135e-09
2.8494e-10
2.8599e-10
4.0377e-09
2.4785e-10
2.4856e-10
3.3763e-09
2.2168e-10
2.2237e-10
2.987e-09
2.1905e-10
2.1949e-10
2.8082e-09
1.8593e-10
1.8628e-10
2.5958e-09
1.669e-10
1.6711e-10
2.2248e-09
6.3504e-11
6.337e-11
1.3415e-09
-2.7395e-10
-2.7409e-10
-4.5526e-10
-4.5532e-10
-1.0428e-08
1.0896e-11
2.4511e-11
-9.5976e-09
6.0787e-11
1.3137e-10
-9.1971e-09
1.2079e-10
2.6288e-10
-9.2646e-09
1.881e-10
4.1374e-10
-9.7438e-09
2.5528e-10
5.6596e-10
-1.0538e-08
3.1556e-10
7.0224e-10
-1.1575e-08
3.6514e-10
8.1394e-10
-1.2823e-08
4.0596e-10
9.0603e-10
-1.4271e-08
4.4003e-10
9.8486e-10
-1.5907e-08
4.6761e-10
1.051e-09
-1.77e-08
4.8592e-10
1.0983e-09
-1.9596e-08
4.9081e-10
1.1183e-09
-2.1515e-08
4.7889e-10
1.1034e-09
-2.3358e-08
4.4914e-10
1.0505e-09
-2.5023e-08
4.0333e-10
9.6136e-10
-2.6417e-08
3.4389e-10
8.3807e-10
-2.7473e-08
2.698e-10
6.7364e-10
-2.8153e-08
1.7259e-10
4.4448e-10
-2.8435e-08
4.8302e-11
1.402e-10
-2.8152e-08
-5.5941e-11
-2.0342e-10
-2.7235e-08
-2.1578e-10
-5.6134e-10
-2.5588e-08
-3.6821e-10
-9.0551e-10
-2.3231e-08
-5.0989e-10
-1.2342e-09
-2.0268e-08
-6.3149e-10
-1.5271e-09
-1.6863e-08
-7.241e-10
-1.7588e-09
-1.3203e-08
-7.8066e-10
-1.9115e-09
-9.4651e-09
-7.9924e-10
-1.9806e-09
-5.7914e-09
-7.8288e-10
-1.9718e-09
-2.2934e-09
-7.3757e-10
-1.8966e-09
9.3226e-10
-6.6889e-10
-1.7656e-09
3.7842e-09
-5.8258e-10
-1.5876e-09
6.1441e-09
-4.8233e-10
-1.3696e-09
7.8997e-09
-3.7317e-10
-1.1172e-09
8.9602e-09
-2.3946e-10
-7.9891e-10
9.3856e-09
-8.6461e-11
-4.2076e-10
9.222e-09
5.0316e-11
-4.941e-11
8.4956e-09
6.2107e-11
2.1906e-10
7.4162e-09
1.1339e-10
3.682e-10
6.2045e-09
1.4418e-10
4.3947e-10
5.0431e-09
1.4169e-10
4.2404e-10
4.0924e-09
1.095e-10
3.6489e-10
3.439e-09
8.8937e-11
3.0123e-10
3.0525e-09
8.2853e-11
2.4024e-10
2.834e-09
7.3327e-11
1.9004e-10
2.6143e-09
7.1028e-11
1.506e-10
2.2231e-09
2.2449e-11
5.3213e-11
1.3751e-09
-1.612e-10
-2.7159e-10
-2.3516e-10
-4.5074e-10
-1.0455e-08
1.8951e-15
2.8256e-11
-9.6339e-09
4.4541e-15
1.4324e-10
-9.2378e-09
-4.8977e-14
2.8191e-10
-9.3017e-09
-1.2282e-13
4.4301e-10
-9.7736e-09
-2.4392e-13
6.0593e-10
-1.0561e-08
-3.4178e-13
7.5245e-10
-1.1595e-08
-4.6172e-13
8.7387e-10
-1.2842e-08
-6.1089e-13
9.7417e-10
-1.4289e-08
-7.2889e-13
1.0602e-09
-1.5921e-08
-8.348e-13
1.1331e-09
-1.771e-08
-8.7635e-13
1.1866e-09
-1.96e-08
-8.3212e-13
1.2116e-09
-2.1511e-08
-8.2942e-13
1.2002e-09
-2.3346e-08
-8.6897e-13
1.1487e-09
-2.5002e-08
-8.6897e-13
1.0578e-09
-2.639e-08
-7.9839e-13
9.2843e-10
-2.744e-08
-6.9157e-13
7.5153e-10
-2.8115e-08
-5.7307e-13
5.0223e-10
-2.8387e-08
-4.5063e-13
1.7228e-10
-2.8098e-08
-4.5541e-13
-1.8785e-10
-2.7174e-08
-3.3481e-13
-5.6452e-10
-2.5526e-08
-3.6591e-14
-9.3415e-10
-2.3175e-08
1.9808e-13
-1.287e-09
-2.0224e-08
3.075e-13
-1.6053e-09
-1.6834e-08
3.3846e-13
-1.8606e-09
-1.3189e-08
5.8149e-13
-2.0337e-09
-9.464e-09
5.5209e-13
-2.1182e-09
-5.8013e-09
4.9048e-13
-2.1196e-09
-2.3132e-09
3.4544e-13
-2.0488e-09
9.0163e-10
1.8174e-13
-1.9169e-09
3.741e-09
1.7662e-13
-1.7334e-09
6.0884e-09
1.3005e-13
-1.5026e-09
7.8338e-09
1.5129e-13
-1.2329e-09
8.899e-09
2.6194e-13
-8.7906e-10
9.3369e-09
3.5793e-13
-4.7328e-10
9.2121e-09
3.6012e-13
-8.767e-11
8.4723e-09
6.069e-13
1.7312e-10
7.4072e-09
4.2709e-14
3.3348e-10
6.1979e-09
-2.4882e-14
4.0689e-10
5.0548e-09
-9.4801e-14
4.0414e-10
4.1167e-09
-1.1964e-13
3.5293e-10
3.466e-09
-7.3502e-15
2.8584e-10
3.0737e-09
-3.1181e-14
2.2236e-10
2.8442e-09
1.1302e-14
1.6819e-10
2.6181e-09
4.6994e-14
1.4157e-10
2.2237e-09
1.3437e-14
4.2759e-11
1.3756e-09
1.7462e-14
-2.8688e-10
-2.5623e-14
-4.4706e-10
-1.0455e-08
-1.0894e-11
2.8245e-11
-9.6339e-09
-6.08e-11
1.4321e-10
-9.2378e-09
-1.2094e-10
2.8185e-10
-9.3017e-09
-1.8839e-10
4.4294e-10
-9.7736e-09
-2.5578e-10
6.0587e-10
-1.0561e-08
-3.1623e-10
7.5239e-10
-1.1595e-08
-3.6603e-10
8.7381e-10
-1.2842e-08
-4.0719e-10
9.7412e-10
-1.4289e-08
-4.4144e-10
1.0601e-09
-1.5921e-08
-4.692e-10
1.1331e-09
-1.771e-08
-4.8758e-10
1.1865e-09
-1.96e-08
-4.9235e-10
1.2115e-09
-2.1511e-08
-4.8047e-10
1.2001e-09
-2.3346e-08
-4.5087e-10
1.1486e-09
-2.5002e-08
-4.0508e-10
1.0577e-09
-2.639e-08
-3.4552e-10
9.2826e-10
-2.744e-08
-2.7123e-10
7.5134e-10
-2.8115e-08
-1.738e-10
5.0203e-10
-2.8387e-08
-4.9268e-11
1.7208e-10
-2.8098e-08
5.5057e-11
-1.8806e-10
-2.7174e-08
2.1486e-10
-5.6467e-10
-2.5526e-08
3.6805e-10
-9.3432e-10
-2.3175e-08
5.1015e-10
-1.2872e-09
-2.0224e-08
6.3182e-10
-1.6054e-09
-1.6834e-08
7.2477e-10
-1.8607e-09
-1.3189e-08
7.8146e-10
-2.0336e-09
-9.464e-09
8.0027e-10
-2.1181e-09
-5.8013e-09
7.8392e-10
-2.1194e-09
-2.3131e-09
7.3826e-10
-2.0486e-09
9.016e-10
6.6948e-10
-1.9167e-09
3.741e-09
5.8299e-10
-1.7332e-09
6.0883e-09
4.8273e-10
-1.5024e-09
7.8338e-09
3.7333e-10
-1.2326e-09
8.899e-09
2.3999e-10
-8.789e-10
9.3369e-09
8.7164e-11
-4.7317e-10
9.212e-09
-4.9563e-11
-8.766e-11
8.4722e-09
-6.0918e-11
1.7325e-10
7.4072e-09
-1.1331e-10
3.3359e-10
6.1979e-09
-1.4425e-10
4.0692e-10
5.0547e-09
-1.4186e-10
4.0415e-10
4.1167e-09
-1.0972e-10
3.5296e-10
3.4661e-09
-8.9163e-11
2.8583e-10
3.0737e-09
-8.2832e-11
2.2235e-10
2.8442e-09
-7.3277e-11
1.6819e-10
2.6181e-09
-7.0883e-11
1.4154e-10
2.2237e-09
-2.2424e-11
4.278e-11
1.3756e-09
1.6124e-10
-2.8692e-10
2.3509e-10
-4.4708e-10
-1.0427e-08
-1.8782e-11
2.4467e-11
-9.5976e-09
-1.1247e-10
1.3126e-10
-9.1971e-09
-2.298e-10
2.6271e-10
-9.2646e-09
-3.5967e-10
4.1356e-10
-9.7438e-09
-4.9069e-10
5.6572e-10
-1.0538e-08
-6.0842e-10
7.0201e-10
-1.1575e-08
-7.0429e-10
8.1372e-10
-1.2823e-08
-7.8325e-10
9.0578e-10
-1.4271e-08
-8.5078e-10
9.8463e-10
-1.5906e-08
-9.0707e-10
1.0507e-09
-1.77e-08
-9.4658e-10
1.0981e-09
-1.9596e-08
-9.6083e-10
1.1178e-09
-2.1515e-08
-9.4379e-10
1.1029e-09
-2.3358e-08
-8.9403e-10
1.0501e-09
-2.5023e-08
-8.1516e-10
9.6093e-10
-2.6417e-08
-7.1256e-10
8.3764e-10
-2.7473e-08
-5.8392e-10
6.7318e-10
-2.8153e-08
-4.0941e-10
4.4398e-10
-2.8435e-08
-1.7553e-10
1.3969e-10
-2.8152e-08
8.4732e-11
-2.0375e-10
-2.7236e-08
3.7264e-10
-5.6189e-10
-2.5588e-08
6.7028e-10
-9.0579e-10
-2.3231e-08
9.5656e-10
-1.2344e-09
-2.0268e-08
1.2072e-09
-1.527e-09
-1.6862e-08
1.3984e-09
-1.7585e-09
-1.3203e-08
1.5187e-09
-1.9114e-09
-9.465e-09
1.5654e-09
-1.9802e-09
-5.7914e-09
1.5475e-09
-1.9714e-09
-2.2934e-09
1.4764e-09
-1.896e-09
9.3236e-10
1.3649e-09
-1.7646e-09
3.7842e-09
1.2238e-09
-1.587e-09
6.1441e-09
1.0581e-09
-1.3687e-09
7.8997e-09
8.7493e-10
-1.1166e-09
8.9603e-09
6.5188e-10
-7.9837e-10
9.3857e-09
3.6599e-10
-4.2035e-10
9.2218e-09
7.795e-11
-4.9304e-11
8.4955e-09
-1.3573e-10
2.1915e-10
7.4162e-09
-2.2444e-10
3.6843e-10
6.2045e-09
-2.8729e-10
4.3978e-10
5.0431e-09
-2.8508e-10
4.2431e-10
4.0926e-09
-2.4788e-10
3.6508e-10
3.4391e-09
-2.2164e-10
3.0143e-10
3.0526e-09
-2.1903e-10
2.4013e-10
2.8341e-09
-1.858e-10
1.8977e-10
2.6144e-09
-1.6677e-10
1.5047e-10
2.2231e-09
-6.3454e-11
5.315e-11
1.375e-09
2.7414e-10
-2.7175e-10
4.5521e-10
-4.5084e-10
-1.0375e-08
-2.4778e-11
1.8902e-11
-9.5235e-09
-1.5605e-10
1.1289e-10
-9.1144e-09
-3.1928e-10
2.305e-10
-9.1897e-09
-5.0324e-10
3.6078e-10
-9.6851e-09
-6.8952e-10
4.9222e-10
-1.0492e-08
-8.5807e-10
6.1031e-10
-1.1536e-08
-9.9448e-10
7.0644e-10
-1.2787e-08
-1.1059e-09
7.8565e-10
-1.4237e-08
-1.201e-09
8.5336e-10
-1.5877e-08
-1.2815e-09
9.0991e-10
-1.768e-08
-1.3393e-09
9.4966e-10
-1.9589e-08
-1.362e-09
9.6404e-10
-2.1525e-08
-1.3409e-09
9.4696e-10
-2.3385e-08
-1.2741e-09
8.9698e-10
-2.5065e-08
-1.1665e-09
8.1779e-10
-2.6472e-08
-1.0261e-09
7.1479e-10
-2.7538e-08
-8.4738e-10
5.8561e-10
-2.8233e-08
-5.9101e-10
4.1042e-10
-2.8567e-08
-2.1187e-10
1.7574e-10
-2.827e-08
1.2685e-10
-8.5578e-11
-2.736e-08
5.6524e-10
-3.7468e-10
-2.571e-08
9.8579e-10
-6.7312e-10
-2.3337e-08
1.3915e-09
-9.6054e-10