/*--------------------------------*- C++ -*----------------------------------*\
| =========                 |                                                 |
| \\      /  F ield         | foam-extend: Open Source CFD                    |
|  \\    /   O peration     | Version:     4.1-20200408                       |
|   \\  /    A nd           | Web:         http://www.foam-extend.org         |
|    \\/     M anipulation  |                                                 |
\*---------------------------------------------------------------------------*/
FoamFile
{
    version     2.0;
    format      ascii;
    class       volScalarField;
    location    "0.0675000";
    object      epsilonPEq;
}
// * * * * * * * * * * * * * * * * * * * * * * * * * * * * * * * * * * * * * //

dimensions      [0 0 0 0 0 0 0];

internalField   nonuniform List<scalar> 
1952
(
0.0698045
0.0699086
0.0701178
0.0703305
0.0705751
0.0708172
0.07107
0.0711393
0.0710114
0.0703481
0.0692491
0.0673528
0.0646497
0.0622814
0.0610235
0.069707
0.0698669
0.0699711
0.0701805
0.0703933
0.0706379
0.0708801
0.0711332
0.0712026
0.0710746
0.070412
0.069313
0.0674159
0.0647109
0.062343
0.0610855
0.0697693
0.0699288
0.070033
0.0702426
0.0704554
0.0706998
0.0709437
0.0711973
0.0712668
0.0711388
0.0704765
0.0693764
0.0674785
0.0647716
0.0624043
0.0611474
0.0698312
0.0699916
0.0700958
0.0703055
0.0705184
0.0707626
0.0710069
0.071261
0.0713305
0.0712023
0.0705419
0.0694409
0.0675417
0.0648328
0.0624655
0.0612091
0.0698939
0.0700538
0.0701581
0.070368
0.0705809
0.070825
0.0710709
0.0713254
0.0713949
0.0712664
0.0706061
0.0695045
0.0676043
0.0648932
0.0625267
0.0612709
0.0699561
0.0701168
0.0702211
0.0704311
0.0706441
0.070888
0.0711342
0.071389
0.0714585
0.0713297
0.0706711
0.0695688
0.0676674
0.0649541
0.062588
0.0613327
0.0700189
0.0701791
0.0702835
0.0704936
0.0707066
0.0709503
0.071198
0.0714533
0.0715227
0.0713934
0.0707353
0.0696328
0.0677302
0.0650148
0.0626495
0.0613946
0.0700812
0.0702419
0.0703464
0.0705566
0.0707697
0.0710132
0.0712614
0.0715171
0.0715865
0.0714568
0.0708002
0.0696973
0.0677936
0.0650761
0.0627107
0.0614564
0.070144
0.0703044
0.0704089
0.0706192
0.0708323
0.0710756
0.0713253
0.0715813
0.0716508
0.0715207
0.0708646
0.0697616
0.0678569
0.0651373
0.0627721
0.0615181
0.0702064
0.0703672
0.0704717
0.0706822
0.0708953
0.0711384
0.0713889
0.0716454
0.0717149
0.0715845
0.0709291
0.0698256
0.0679197
0.065198
0.0628335
0.0615799
0.0702691
0.0704297
0.0705344
0.070745
0.0709582
0.0712011
0.0714523
0.071709
0.0717785
0.0716476
0.0709934
0.0698896
0.0679827
0.0652591
0.0628952
0.0616421
0.0703316
0.0704921
0.0705968
0.0708074
0.0710207
0.0712633
0.0715157
0.0717728
0.0718423
0.0717112
0.0710579
0.0699538
0.0680458
0.0653203
0.0629567
0.0617041
0.0703939
0.0705547
0.0706593
0.0708701
0.0710834
0.0713258
0.0715792
0.0718367
0.0719062
0.0717747
0.0711225
0.0700182
0.0681092
0.0653817
0.0630177
0.0617653
0.0704564
0.0706172
0.0707219
0.0709328
0.0711461
0.0713883
0.0716428
0.0719008
0.0719704
0.0718386
0.0711869
0.0700822
0.0681721
0.0654426
0.0630787
0.0618267
0.0705188
0.0706799
0.0707847
0.0709957
0.0712091
0.0714511
0.0717063
0.0719646
0.0720342
0.071902
0.0712504
0.0701452
0.068234
0.0655024
0.0631399
0.0618887
0.0705815
0.0707425
0.0708473
0.0710584
0.0712719
0.0715136
0.0717693
0.0720277
0.0720972
0.0719644
0.0713141
0.0702087
0.0682963
0.0655629
0.0632008
0.0619503
0.070644
0.0708046
0.0709094
0.0711206
0.0713339
0.0715753
0.0718324
0.072091
0.0721605
0.0720273
0.0713781
0.0702727
0.0683593
0.065624
0.0632614
0.0620114
0.0707061
0.0708669
0.0709717
0.0711829
0.0713962
0.0716373
0.0718956
0.0721547
0.0722243
0.0720906
0.0714414
0.0703358
0.0684213
0.0656839
0.0633222
0.0620732
0.0707683
0.070929
0.0710339
0.0712452
0.0714586
0.0716996
0.0719582
0.0722175
0.0722871
0.0721528
0.0715043
0.0703986
0.0684829
0.0657435
0.0633833
0.0621353
0.0708304
0.0709905
0.0710954
0.0713068
0.0715202
0.0717609
0.0720205
0.0722801
0.0723496
0.0722147
0.0715679
0.0704622
0.0685456
0.0658058
0.0634451
0.0621973
0.0708918
0.0710518
0.0711567
0.0713681
0.0715815
0.071822
0.0720831
0.0723434
0.0724129
0.0722777
0.071632
0.0705261
0.0686084
0.0658692
0.0635076
0.0622595
0.070953
0.0711132
0.0712182
0.0714298
0.0716434
0.0718837
0.0721458
0.0724066
0.0724762
0.0723406
0.0716964
0.0705904
0.0686715
0.0659327
0.0635697
0.0623216
0.0710144
0.0711744
0.0712795
0.0714914
0.0717051
0.0719468
0.0722089
0.0724701
0.0725399
0.0724039
0.0717614
0.0706553
0.0687352
0.0659954
0.0636318
0.0623838
0.0710755
0.071236
0.0713413
0.0715534
0.0717673
0.0720105
0.0722728
0.0725343
0.0726043
0.072468
0.0718255
0.070719
0.0687974
0.066058
0.063694
0.0624461
0.071137
0.0712984
0.0714038
0.0716162
0.0718302
0.0720736
0.072336
0.0725977
0.0726675
0.0725305
0.0718899
0.0707831
0.06886
0.0661205
0.0637561
0.062508
0.0711992
0.0713605
0.071466
0.0716784
0.0718923
0.0721373
0.0723999
0.0726617
0.0727313
0.0725938
0.0719541
0.0708471
0.0689226
0.0661828
0.0638181
0.0625698
0.0712613
0.0714237
0.0715291
0.0717415
0.0719552
0.0722008
0.0724638
0.0727257
0.0727951
0.0726571
0.0720181
0.0709107
0.0689846
0.0662449
0.0638794
0.0626315
0.0713244
0.0714869
0.0715923
0.0718047
0.0720182
0.0722643
0.0725275
0.0727894
0.0728585
0.0727198
0.072082
0.0709744
0.0690468
0.0663063
0.0639407
0.0626934
0.0713876
0.07155
0.0716553
0.0718677
0.0720808
0.072328
0.0725914
0.0728534
0.0729223
0.072783
0.0721453
0.071037
0.069108
0.0663679
0.0640023
0.0627553
0.0714507
0.0716132
0.0717185
0.0719309
0.0721438
0.0723911
0.0726547
0.0729166
0.0729851
0.0728451
0.072209
0.0711003
0.0691698
0.0664298
0.0640644
0.0628178
0.0715139
0.0716757
0.0717808
0.0719932
0.0722059
0.0724545
0.0727184
0.0729804
0.0730487
0.0729081
0.0722729
0.0711638
0.0692323
0.0664923
0.0641266
0.0628802
0.0715763
0.0717382
0.0718434
0.0720558
0.0722683
0.0725178
0.0727821
0.0730444
0.0731126
0.0729716
0.0723372
0.0712277
0.0692951
0.066555
0.0641883
0.0629421
0.0716389
0.0718006
0.0719058
0.0721184
0.0723308
0.0725812
0.072846
0.0731084
0.0731767
0.073035
0.0724018
0.0712924
0.0693584
0.066617
0.0642501
0.0630039
0.0717011
0.0718629
0.0719682
0.0721809
0.0723934
0.0726448
0.0729102
0.0731729
0.0732412
0.0730991
0.0724656
0.071356
0.0694205
0.0666794
0.0643121
0.0630659
0.0717634
0.0719257
0.072031
0.0722439
0.0724564
0.0727079
0.0729735
0.0732363
0.0733045
0.0731617
0.0725298
0.07142
0.069483
0.0667418
0.0643742
0.0631282
0.071826
0.0719878
0.0720932
0.0723061
0.0725184
0.0727713
0.0730373
0.0733002
0.0733684
0.073225
0.0725939
0.0714842
0.0695459
0.0668043
0.0644363
0.0631903
0.0718881
0.0720506
0.0721559
0.0723689
0.0725811
0.0728347
0.073101
0.0733641
0.0734322
0.0732884
0.072658
0.071548
0.0696084
0.0668667
0.0644984
0.0632523
0.0719509
0.0721132
0.0722186
0.0724316
0.0726437
0.072898
0.0731646
0.0734278
0.0734957
0.0733513
0.0727218
0.0716119
0.0696709
0.0669291
0.0645607
0.0633147
0.0720134
0.0721758
0.0722812
0.0724942
0.0727062
0.0729613
0.0732283
0.0734916
0.0735595
0.0734144
0.0727858
0.0716758
0.0697335
0.0669916
0.0646229
0.0633768
0.072076
0.0722384
0.0723437
0.0725568
0.0727687
0.0730246
0.073292
0.0735554
0.0736232
0.0734776
0.0728499
0.0717398
0.0697962
0.0670541
0.0646842
0.0634384
0.0721385
0.0723008
0.0724062
0.0726194
0.0728311
0.073088
0.0733557
0.0736194
0.0736871
0.0735409
0.0729143
0.0718041
0.0698591
0.0671156
0.0647456
0.0634999
0.0722009
0.0723633
0.0724688
0.072682
0.0728936
0.0731515
0.0734197
0.0736835
0.0737512
0.0736044
0.0729774
0.0718668
0.0699203
0.0671774
0.064807
0.0635615
0.0722633
0.0724259
0.0725313
0.0727448
0.0729563
0.0732141
0.0734824
0.0737462
0.0738137
0.0736662
0.0730409
0.0719302
0.0699823
0.067239
0.0648684
0.0636232
0.0723258
0.0724876
0.0725929
0.0728063
0.0730176
0.073277
0.0735457
0.0738096
0.0738769
0.0737288
0.0731041
0.0719933
0.0700442
0.0673008
0.0649301
0.063685
0.0723875
0.0725496
0.072655
0.0728684
0.0730796
0.0733394
0.0736084
0.0738725
0.0739397
0.0737911
0.0731675
0.0720565
0.070106
0.0673626
0.0649916
0.0637467
0.0724495
0.0726111
0.0727165
0.07293
0.073141
0.0734018
0.0736712
0.0739353
0.0740025
0.0738533
0.0732309
0.0721201
0.0701683
0.0674245
0.065053
0.0638083
0.0725109
0.0726724
0.0727779
0.0729914
0.0732023
0.0734642
0.0737341
0.0739986
0.0740658
0.0739161
0.0732943
0.0721833
0.0702302
0.0674861
0.0651142
0.0638699
0.0725722
0.0727339
0.0728394
0.0730531
0.0732641
0.0735265
0.0737968
0.0740615
0.0741286
0.0739784
0.0733573
0.0722462
0.0702918
0.0675475
0.0651754
0.0639317
0.0726335
0.072795
0.0729006
0.0731145
0.0733254
0.0735887
0.0738593
0.0741242
0.0741913
0.0740405
0.0734201
0.072309
0.0703533
0.0676089
0.0652367
0.0639934
0.0726946
0.0728562
0.0729618
0.0731758
0.0733866
0.0736506
0.0739216
0.0741867
0.0742537
0.0741023
0.0734831
0.0723718
0.0704148
0.0676704
0.0652983
0.0640256
0.0727558
0.0729173
0.0730229
0.073237
0.0734475
0.0737126
0.073984
0.0742492
0.0743162
0.0741643
0.0735461
0.0724347
0.0704765
0.0677324
0.0653607
0.063902
0.0728168
0.0729784
0.073084
0.0732981
0.0735085
0.0737747
0.0740465
0.0743119
0.0743788
0.0742263
0.0736096
0.0724984
0.0705389
0.0677951
0.065423
0.0635084
0.0728779
0.0730396
0.0731453
0.0733594
0.0735695
0.0738373
0.0741095
0.0743752
0.0744422
0.0742892
0.073674
0.0725629
0.0706024
0.0678576
0.0652247
0.0626478
0.072939
0.0731013
0.0732071
0.0734212
0.0736311
0.0739004
0.0741733
0.0744393
0.0745065
0.0743531
0.0737378
0.0726267
0.0706649
0.067847
0.0645445
0.061191
0.0730007
0.0731636
0.0732696
0.0734838
0.0736939
0.0739634
0.0742366
0.0745029
0.0745701
0.074416
0.0736908
0.0723899
0.0701661
0.0670658
0.0632008
0.05921
0.0730629
0.0732259
0.0733318
0.0735461
0.0737563
0.0739834
0.0741284
0.0742157
0.0740799
0.0736956
0.072728
0.071161
0.0686445
0.0653018
0.0611246
0.0568079
0.073125
0.0730332
0.0730708
0.0731717
0.0732394
0.07328
0.0732057
0.073026
0.072602
0.0719114
0.0706686
0.0688433
0.0661126
0.0626326
0.0583642
0.0540082
0.0729588
0.072047
0.0719767
0.0719077
0.0717666
0.0715625
0.0712314
0.070772
0.0700684
0.0690988
0.0676262
0.0656044
0.0627644
0.059253
0.055089
0.0509313
0.072018
0.0698974
0.0697204
0.0694879
0.0691515
0.0687267
0.0681696
0.0674778
0.0665578
0.065382
0.0637604
0.0616311
0.0587971
0.0553723
0.0514824
0.0477052
0.0699176
0.0663847
0.0661377
0.0657967
0.0653321
0.0647644
0.0640648
0.0632326
0.0621936
0.0609127
0.0592417
0.0571027
0.0543794
0.0511446
0.0476495
0.0443714
0.066442
0.0615123
0.0612505
0.0608803
0.0603822
0.0597761
0.0590414
0.0581773
0.0571248
0.0558433
0.0542199
0.0521638
0.0496369
0.0466728
0.0436505
0.040946
0.0615844
0.0554952
0.055269
0.0549426
0.0544983
0.0539502
0.0532788
0.0524812
0.0515082
0.0503166
0.0488225
0.0469275
0.0446631
0.0420324
0.0395359
0.0374562
0.0555595
0.0487024
0.0485411
0.0483026
0.0479665
0.0475386
0.0469964
0.0463329
0.0455044
0.0444682
0.0431617
0.0414874
0.0395335
0.0372858
0.0353539
0.0339365
0.0487441
0.0415761
0.0414807
0.0413357
0.0411181
0.0408269
0.0404355
0.0399336
0.039279
0.0384329
0.0373461
0.0359313
0.0343186
0.0324932
0.0311547
0.0304274
0.0415922
0.0345464
0.0344937
0.0344141
0.0342851
0.0341041
0.0338422
0.0334894
0.0330025
0.0323498
0.0314883
0.0303502
0.0290926
0.0277186
0.0269923
0.0269692
0.034545
0.0279601
0.0279161
0.0278561
0.0277619
0.0276354
0.0274505
0.0272019
0.026846
0.0263618
0.0257069
0.0248425
0.0239383
0.0230343
0.0229251
0.0235985
0.0279548
0.0220387
0.0219756
0.0218938
0.0217795
0.0216441
0.0214689
0.0212605
0.0209767
0.0206127
0.0201245
0.0195122
0.0189466
0.0185203
0.0190152
0.0203457
0.0220408
0.0168699
0.0167788
0.0166566
0.0164888
0.0162956
0.0160697
0.0158347
0.015554
0.0152457
0.0148668
0.0144675
0.0142123
0.0142567
0.0153179
0.0172282
0.0168832
0.0124328
0.0123235
0.0121702
0.0119494
0.0116844
0.0113763
0.0110675
0.0107296
0.0104088
0.0100707
0.00982724
0.00983475
0.0103133
0.0118632
0.0142387
0.0124538
0.00865776
0.00854389
0.00838193
0.00813732
0.00782729
0.00745123
0.00706236
0.00663843
0.00625363
0.00589155
0.00573211
0.00592581
0.00674692
0.00863977
0.0113242
0.0086818
0.00546995
0.00535131
0.00518584
0.00494003
0.00462965
0.00423845
0.00381269
0.00333017
0.00288649
0.00248805
0.00236755
0.00265428
0.00363981
0.00562655
0.00840332
0.00549798
0.00274107
0.00260703
0.00241986
0.00216771
0.00190648
0.00159969
0.00126087
0.000867591
0.000513899
0.000214522
0.000170658
0.000438116
0.00124212
0.00293245
0.00550786
0.00277777
0.000559872
0.000441021
0.00027337
6.52317e-05
0
0
0
0
0
0
0
0
0
0.000905113
0.0029229
0.000594846
0
0
0
0
0
0
0
0
0
0
0
0
0
0
0.00100716
0
0
0
0
0
0
0
0
0
0
0
0
0
0
0
0
0
0
0
0
0
0
0
0
0
0
0
0
0
0
0
0
0
0
0
0
0
0
0
0
0
0
0
0
0
0
0
0
0
0
0
0
0
0
0
0
0
0
0
0
0
0
0
0
0
0
0
0
0
0
0
0
0
0
0
0
0
0
0
0
0
0
0
0
0
0
0
0
0
0
0
0
0
0
0
0
0
0
0
0
0
0
0
0
0
0
0
0
0
0
0
0
0
0
0
0
0
0
0
0
0
0
0
0
0
0
0
0
0
0
0
0
0
0
0
0
0
0
0
0
0
0
0
0
0
0
0
0
0
0
0
0
0
0
0
0
0
0
0
0
0
0
0
0
0
0
0
0
0
0
0
0
0
0
0
0
0
0
0
0
0
0
0
0
0
0
0
0
0
0
0
0
0
0
0
0
0
0
0
0
0
0
0
0
0
0
0
0
0
0
0
0
0
0
0
0
0
0
0
0
0
0
0
0
0
0
0
0
0
0
0
0
0
0
0
0
0
0
0
0
0
0
0
0
0
0
0
0
0
0
0
0
0
0
0
0
0
0
0
0
0
0
0
0
0
0
0
0
0
0
0
0
0
0
0
0
0
0
0
0
0
0
0
0
0
0
0
0
0
0
0
0
0
0
0
0
0
0
0
0
0
0
0
0
0
0
0
0
0
0
0
0
0
0
0
0
0
0
0
0
0
0
0
0
0
0
0
0
0
0
0
0
0
0
0
0
0
0
0
0
0
0
0
0
0
0
0
0
0
0
0
0
0
0
0
0
0
0
0
0
0
0
0
0
0
0
0
0
0
0
0
0
0
0
0
0
0
0
0
0
0
0
0
0
0
0
0
0
0
0
0
0
0
0
0
0
0
0
0
0
0
0
0
0
0
0
0
0
0
0
0
0
0
0
0
0
0
0
0
0
0
0
0
0
0
0
0
0
0
0
0
0
0
0
0
0
0
0
0
0
0
0
0
0
0
0
0
0
0
0
0
0
0
0
0
0
0
0
0
0
0
0
0
0
0
0
0
0
0
0
0
0
0
0
0
0
0
0
0
0
0
0
0
0
0
0
0
0
0
0
0
0
0
0
0
0
0
0
0
0
0
0
0
0
0
0
0
0
0
0
0
0
0
0
0
0
0
0
0
0
0
0
0
0
0
0
0
0
0
0
0
0
0
0
0
0
0
0
0
0
0
0
0
0
0
0
0
0
0
0
0
0
0
0
0
0
0
0
0
0
0
0
0
0
0
0
0
0
0
0
0
0
0
0
0
0
0
0
0
0
0
0
0
0
0
0
0
0
0
0
0
0
0
0
0
0
0
0
0
0
0
0
0
0
0
0
0
0
0
0
0
0
0
0
0
0
0
0
0
0
0
0
0
0
0
0
0
0
0
0
0
0
0
0
0
0
0
0
0
0
0
0
0
0
0
0
0
0
0
0
0
0
0
0
0
0
0
0
0
0
0
0
0
0
0
0
0
0
0
0
0
0
0
0
0
0
0
0
0
0
0
0
0
0
0
0
0
0
0
0
0
0
0
0
0
0
0
0
0
0
0
0
0
0
0
0
0
0
0
0
0
0
0
0
0
0
0
0
0
0
0
0
0
0
0
0
0
0
0
0
0
0
0
0
0
0
0
0
0
0
0
0
0
0
0
0
0
0
0
0
0
0
0
0
0
0
0
0
0
0
0
0
0
0
0
0
0
0
0
)
;

boundaryField
{
    wireUpstream
    {
        type            calculated;
        value           uniform 0;
    }
    wireDownstream
    {
        type            calculated;
        value           nonuniform List<scalar> 
16
(
0.0698045
0.0699086
0.0701178
0.0703305
0.0705751
0.0708172
0.07107
0.0711393
0.0710114
0.0703481
0.0692491
0.0673528
0.0646497
0.0622814
0.0610235
0.069707
)
;
    }
    wireTopContact
    {
        type            calculated;
        value           nonuniform List<scalar> 
122
(
0.0608507
0.0609118
0.060973
0.0610343
0.0610954
0.0611572
0.0612188
0.0612803
0.0613419
0.061404
0.0614659
0.061527
0.0615881
0.06165
0.0617115
0.0617724
0.0618341
0.0618961
0.061958
0.0620201
0.0620822
0.0621442
0.0622064
0.0622682
0.0623299
0.0623916
0.0624534
0.0625152
0.0625775
0.0626398
0.0627016
0.0627633
0.0628251
0.0628873
0.0629494
0.0630113
0.0630736
0.0631355
0.063197
0.0632585
0.0633199
0.0633816
0.0634432
0.0635048
0.0635664
0.0636279
0.0636896
0.0637512
0.0637929
0.0636712
0.0632667
0.0623871
0.0609113
0.0589222
0.0565429
0.0537729
0.0507173
0.047504
0.0441756
0.0407497
0.037257
0.0337354
0.0302288
0.02678
0.023427
0.0201999
0.0171144
0.0141618
0.0112874
0.00840405
0.00553576
0.00295921
0.00102474
0
0
0
0
0
0
0
0
0
0
0
0
0
0
0
0
0
0
0
0
0
0
0
0
0
0
0
0
0
0
0
0
0
0
0
0
0
0
0
0
0
0
0
0
0
0
0
0
0.060789
)
;
    }
    front
    {
        type            wedge;
    }
    back
    {
        type            wedge;
    }
}


// ************************************************************************* //
