/*--------------------------------*- C++ -*----------------------------------*\
| =========                 |                                                 |
| \\      /  F ield         | foam-extend: Open Source CFD                    |
|  \\    /   O peration     | Version:     4.1-20200408                       |
|   \\  /    A nd           | Web:         http://www.foam-extend.org         |
|    \\/     M anipulation  |                                                 |
\*---------------------------------------------------------------------------*/
FoamFile
{
    version     2.0;
    format      ascii;
    class       volScalarField::DimensionedInternalField;
    location    "0.0675000";
    object      V0;
}
// * * * * * * * * * * * * * * * * * * * * * * * * * * * * * * * * * * * * * //

dimensions      [0 3 0 0 0 0 0];

value           nonuniform List<scalar> 
1952
(
1.34565e-14
2.24298e-14
3.1407e-14
4.03874e-14
4.93761e-14
5.83683e-14
6.73713e-14
7.63809e-14
8.5404e-14
9.44449e-14
1.03504e-13
1.12596e-13
1.21722e-13
1.30879e-13
1.39993e-13
4.4853e-15
1.34557e-14
2.24286e-14
3.14053e-14
4.03852e-14
4.93734e-14
5.83652e-14
6.73676e-14
7.63767e-14
8.53992e-14
9.44395e-14
1.03498e-13
1.12589e-13
1.21715e-13
1.3087e-13
1.39984e-13
4.48505e-15
1.34556e-14
2.24283e-14
3.14049e-14
4.03848e-14
4.93729e-14
5.83645e-14
6.73669e-14
7.63758e-14
8.53982e-14
9.44383e-14
1.03497e-13
1.12587e-13
1.21713e-13
1.30868e-13
1.3998e-13
4.48501e-15
1.34545e-14
2.24265e-14
3.14023e-14
4.03815e-14
4.93688e-14
5.83597e-14
6.73612e-14
7.63694e-14
8.5391e-14
9.44302e-14
1.03488e-13
1.12578e-13
1.21702e-13
1.30856e-13
1.39967e-13
4.48464e-15
1.3454e-14
2.24257e-14
3.14012e-14
4.03801e-14
4.93671e-14
5.83576e-14
6.73588e-14
7.63667e-14
8.53879e-14
9.44267e-14
1.03484e-13
1.12573e-13
1.21697e-13
1.3085e-13
1.39961e-13
4.48448e-15
1.34532e-14
2.24244e-14
3.13995e-14
4.03778e-14
4.93643e-14
5.83543e-14
6.73549e-14
7.63622e-14
8.53828e-14
9.44211e-14
1.03477e-13
1.12566e-13
1.2169e-13
1.30842e-13
1.39952e-13
4.48423e-15
1.34524e-14
2.24231e-14
3.13976e-14
4.03754e-14
4.93613e-14
5.83508e-14
6.73509e-14
7.63576e-14
8.53776e-14
9.44152e-14
1.03471e-13
1.12559e-13
1.21682e-13
1.30834e-13
1.39943e-13
4.48396e-15
1.34516e-14
2.24217e-14
3.13956e-14
4.03729e-14
4.93583e-14
5.83471e-14
6.73466e-14
7.63528e-14
8.53722e-14
9.44092e-14
1.03464e-13
1.12552e-13
1.21674e-13
1.30825e-13
1.39934e-13
4.48368e-15
1.34514e-14
2.24213e-14
3.13951e-14
4.03722e-14
4.93574e-14
5.83462e-14
6.73455e-14
7.63515e-14
8.53707e-14
9.44075e-14
1.03462e-13
1.1255e-13
1.21672e-13
1.30822e-13
1.39931e-13
4.4836e-15
1.34503e-14
2.24196e-14
3.13927e-14
4.03691e-14
4.93537e-14
5.83417e-14
6.73403e-14
7.63456e-14
8.53642e-14
9.44002e-14
1.03454e-13
1.12541e-13
1.21662e-13
1.30812e-13
1.3992e-13
4.48326e-15
1.34495e-14
2.24182e-14
3.13907e-14
4.03665e-14
4.93505e-14
5.8338e-14
6.7336e-14
7.63407e-14
8.53587e-14
9.43942e-14
1.03448e-13
1.12534e-13
1.21654e-13
1.30804e-13
1.39911e-13
4.48298e-15
1.34489e-14
2.24173e-14
3.13895e-14
4.03649e-14
4.93486e-14
5.83357e-14
6.73333e-14
7.63377e-14
8.53554e-14
9.43904e-14
1.03444e-13
1.12529e-13
1.2165e-13
1.30799e-13
1.39905e-13
4.4828e-15
1.34482e-14
2.24161e-14
3.13878e-14
4.03628e-14
4.9346e-14
5.83326e-14
6.73298e-14
7.63338e-14
8.53509e-14
9.43855e-14
1.03438e-13
1.12523e-13
1.21643e-13
1.30792e-13
1.39898e-13
4.48256e-15
1.34471e-14
2.24143e-14
3.13852e-14
4.03595e-14
4.9342e-14
5.83279e-14
6.73243e-14
7.63275e-14
8.5344e-14
9.43778e-14
1.0343e-13
1.12514e-13
1.21633e-13
1.30781e-13
1.39886e-13
4.48219e-15
1.34469e-14
2.24139e-14
3.13847e-14
4.03588e-14
4.93411e-14
5.83269e-14
6.73232e-14
7.63262e-14
8.53425e-14
9.43762e-14
1.03428e-13
1.12512e-13
1.21632e-13
1.30779e-13
1.39884e-13
4.48211e-15
1.34457e-14
2.24118e-14
3.13818e-14
4.03552e-14
4.93366e-14
5.83216e-14
6.7317e-14
7.63193e-14
8.53349e-14
9.43677e-14
1.03419e-13
1.12502e-13
1.21621e-13
1.30767e-13
1.39871e-13
4.4817e-15
1.34452e-14
2.24111e-14
3.13807e-14
4.03538e-14
4.9335e-14
5.83196e-14
6.73148e-14
7.63168e-14
8.53321e-14
9.43647e-14
1.03415e-13
1.12499e-13
1.21617e-13
1.30763e-13
1.39867e-13
4.48155e-15
1.34445e-14
2.24099e-14
3.1379e-14
4.03516e-14
4.93323e-14
5.83166e-14
6.73113e-14
7.63129e-14
8.53277e-14
9.43599e-14
1.0341e-13
1.12493e-13
1.21611e-13
1.30757e-13
1.3986e-13
4.4813e-15
1.34432e-14
2.24077e-14
3.1376e-14
4.03478e-14
4.93276e-14
5.8311e-14
6.73049e-14
7.63056e-14
8.53197e-14
9.4351e-14
1.034e-13
1.12483e-13
1.216e-13
1.30745e-13
1.39847e-13
4.48087e-15
1.34425e-14
2.24066e-14
3.13745e-14
4.03459e-14
4.93253e-14
5.83083e-14
6.73017e-14
7.63021e-14
8.53158e-14
9.43468e-14
1.03396e-13
1.12478e-13
1.21594e-13
1.30739e-13
1.39841e-13
4.48065e-15
1.3442e-14
2.24058e-14
3.13733e-14
4.03444e-14
4.93235e-14
5.83061e-14
6.72993e-14
7.62995e-14
8.53129e-14
9.43435e-14
1.03392e-13
1.12474e-13
1.2159e-13
1.30735e-13
1.39837e-13
4.48048e-15
1.34413e-14
2.24046e-14
3.13716e-14
4.03422e-14
4.93209e-14
5.83031e-14
6.72958e-14
7.62956e-14
8.53086e-14
9.43389e-14
1.03387e-13
1.12469e-13
1.21585e-13
1.30729e-13
1.3983e-13
4.48024e-15
1.344e-14
2.24025e-14
3.13687e-14
4.03385e-14
4.93163e-14
5.82978e-14
6.72898e-14
7.62887e-14
8.53011e-14
9.43306e-14
1.03378e-13
1.12459e-13
1.21574e-13
1.30717e-13
1.39818e-13
4.47982e-15
1.34395e-14
2.24016e-14
3.13676e-14
4.0337e-14
4.93146e-14
5.82958e-14
6.72874e-14
7.62862e-14
8.52983e-14
9.43275e-14
1.03375e-13
1.12455e-13
1.21571e-13
1.30714e-13
1.39814e-13
4.47965e-15
1.34387e-14
2.24003e-14
3.13656e-14
4.03346e-14
4.93116e-14
5.82923e-14
6.72835e-14
7.62818e-14
8.52935e-14
9.43223e-14
1.0337e-13
1.1245e-13
1.21564e-13
1.30707e-13
1.39807e-13
4.47937e-15
1.34379e-14
2.23991e-14
3.1364e-14
4.03325e-14
4.9309e-14
5.82894e-14
6.72802e-14
7.62781e-14
8.52895e-14
9.4318e-14
1.03365e-13
1.12445e-13
1.21559e-13
1.30702e-13
1.39802e-13
4.47912e-15
1.34366e-14
2.23968e-14
3.13608e-14
4.03285e-14
4.93041e-14
5.82837e-14
6.72736e-14
7.62709e-14
8.52816e-14
9.43093e-14
1.03356e-13
1.12435e-13
1.21549e-13
1.3069e-13
1.3979e-13
4.47867e-15
1.34362e-14
2.23962e-14
3.136e-14
4.03275e-14
4.9303e-14
5.82824e-14
6.72722e-14
7.62694e-14
8.52801e-14
9.43078e-14
1.03354e-13
1.12433e-13
1.21548e-13
1.30689e-13
1.39789e-13
4.47855e-15
1.34349e-14
2.23941e-14
3.13571e-14
4.03238e-14
4.92985e-14
5.82772e-14
6.72663e-14
7.62628e-14
8.5273e-14
9.43e-14
1.03346e-13
1.12425e-13
1.21539e-13
1.3068e-13
1.39779e-13
4.47812e-15
1.34339e-14
2.23923e-14
3.13546e-14
4.03207e-14
4.92947e-14
5.82728e-14
6.72614e-14
7.62574e-14
8.52671e-14
9.42938e-14
1.0334e-13
1.12418e-13
1.21532e-13
1.30673e-13
1.39772e-13
4.47777e-15
1.34333e-14
2.23915e-14
3.13534e-14
4.03192e-14
4.92929e-14
5.82709e-14
6.72592e-14
7.62552e-14
8.52649e-14
9.42915e-14
1.03338e-13
1.12416e-13
1.2153e-13
1.30671e-13
1.39771e-13
4.47758e-15
1.34317e-14
2.23888e-14
3.13497e-14
4.03145e-14
4.92872e-14
5.82643e-14
6.72518e-14
7.6247e-14
8.5256e-14
9.4282e-14
1.03328e-13
1.12405e-13
1.21519e-13
1.3066e-13
1.3976e-13
4.47705e-15
1.3431e-14
2.23876e-14
3.1348e-14
4.03125e-14
4.92848e-14
5.82616e-14
6.72488e-14
7.62438e-14
8.52528e-14
9.42788e-14
1.03325e-13
1.12403e-13
1.21517e-13
1.30658e-13
1.39759e-13
4.4768e-15
1.34292e-14
2.23847e-14
3.13439e-14
4.03073e-14
4.92785e-14
5.82543e-14
6.72406e-14
7.62348e-14
8.52431e-14
9.42683e-14
1.03314e-13
1.12391e-13
1.21506e-13
1.30647e-13
1.39747e-13
4.47621e-15
1.34286e-14
2.23837e-14
3.13425e-14
4.03057e-14
4.92765e-14
5.82521e-14
6.72382e-14
7.62324e-14
8.52407e-14
9.42662e-14
1.03312e-13
1.1239e-13
1.21506e-13
1.30647e-13
1.39749e-13
4.47601e-15
1.34264e-14
2.23801e-14
3.13375e-14
4.02993e-14
4.92687e-14
5.82431e-14
6.7228e-14
7.62211e-14
8.52286e-14
9.42532e-14
1.03299e-13
1.12376e-13
1.21492e-13
1.30633e-13
1.39736e-13
4.47529e-15
1.34254e-14
2.23784e-14
3.13352e-14
4.02964e-14
4.92651e-14
5.82391e-14
6.72235e-14
7.62164e-14
8.52237e-14
9.42482e-14
1.03294e-13
1.12372e-13
1.21489e-13
1.30631e-13
1.39735e-13
4.47495e-15
1.34233e-14
2.23749e-14
3.13302e-14
4.02901e-14
4.92574e-14
5.82302e-14
6.72132e-14
7.62051e-14
8.52114e-14
9.42352e-14
1.03281e-13
1.12358e-13
1.21476e-13
1.30618e-13
1.39724e-13
4.47425e-15
1.34218e-14
2.23724e-14
3.13267e-14
4.02856e-14
4.92519e-14
5.82238e-14
6.72058e-14
7.6197e-14
8.52027e-14
9.42261e-14
1.03272e-13
1.1235e-13
1.21468e-13
1.30612e-13
1.3972e-13
4.47376e-15
1.34199e-14
2.23693e-14
3.13222e-14
4.02798e-14
4.92447e-14
5.82153e-14
6.7196e-14
7.61861e-14
8.51907e-14
9.42134e-14
1.03259e-13
1.12337e-13
1.21456e-13
1.30601e-13
1.39712e-13
4.47313e-15
1.34185e-14
2.23669e-14
3.13187e-14
4.02753e-14
4.92389e-14
5.82085e-14
6.71878e-14
7.6177e-14
8.51805e-14
9.42025e-14
1.03248e-13
1.12326e-13
1.21447e-13
1.30593e-13
1.39708e-13
4.47266e-15
1.34158e-14
2.23624e-14
3.13123e-14
4.0267e-14
4.92284e-14
5.81959e-14
6.71728e-14
7.61599e-14
8.51609e-14
9.41811e-14
1.03225e-13
1.12302e-13
1.21425e-13
1.30572e-13
1.39691e-13
4.47178e-15
1.34141e-14
2.23595e-14
3.1308e-14
4.02612e-14
4.92209e-14
5.81867e-14
6.71613e-14
7.61465e-14
8.51451e-14
9.41634e-14
1.03205e-13
1.12281e-13
1.21405e-13
1.30555e-13
1.39683e-13
4.47122e-15
1.34116e-14
2.23552e-14
3.13018e-14
4.0253e-14
4.92102e-14
5.81735e-14
6.71449e-14
7.61271e-14
8.51217e-14
9.41366e-14
1.03175e-13
1.12247e-13
1.2137e-13
1.30521e-13
1.39662e-13
4.4704e-15
1.34099e-14
2.23524e-14
3.12975e-14
4.0247e-14
4.92022e-14
5.81631e-14
6.71313e-14
7.61105e-14
8.51006e-14
9.41117e-14
1.03144e-13
1.12212e-13
1.21331e-13
1.30478e-13
1.39624e-13
4.46987e-15
1.34082e-14
2.23493e-14
3.12929e-14
4.02405e-14
4.91932e-14
5.81514e-14
6.71158e-14
7.60912e-14
8.50756e-14
9.40816e-14
1.03107e-13
1.12167e-13
1.21277e-13
1.30412e-13
1.39541e-13
4.46931e-15
1.34068e-14
2.23467e-14
3.12889e-14
4.02347e-14
4.9185e-14
5.81402e-14
6.71005e-14
7.60714e-14
8.50491e-14
9.40488e-14
1.03064e-13
1.12115e-13
1.21211e-13
1.30328e-13
1.39431e-13
4.46886e-15
1.34058e-14
2.23449e-14
3.12858e-14
4.023e-14
4.91779e-14
5.813e-14
6.70859e-14
7.60519e-14
8.50218e-14
9.40144e-14
1.03017e-13
1.12057e-13
1.21136e-13
1.30234e-13
1.39314e-13
4.46856e-15
1.34055e-14
2.23441e-14
3.12842e-14
4.02269e-14
4.91727e-14
5.81218e-14
6.70733e-14
7.6034e-14
8.49956e-14
9.398e-14
1.02968e-13
1.11996e-13
1.21055e-13
1.30134e-13
1.39196e-13
4.46847e-15
1.34064e-14
2.23453e-14
3.12854e-14
4.02274e-14
4.91718e-14
5.81183e-14
6.7066e-14
7.60215e-14
8.49749e-14
9.39507e-14
1.02923e-13
1.11939e-13
1.20973e-13
1.30034e-13
1.39082e-13
4.4688e-15
1.34075e-14
2.23469e-14
3.12871e-14
4.02284e-14
4.91715e-14
5.81155e-14
6.70593e-14
7.60091e-14
8.4954e-14
9.39198e-14
1.02874e-13
1.11876e-13
1.20879e-13
1.29925e-13
1.38954e-13
4.46919e-15
1.3411e-14
2.23524e-14
3.12942e-14
4.02364e-14
4.91797e-14
5.81225e-14
6.70639e-14
7.60093e-14
8.49474e-14
9.39045e-14
1.02845e-13
1.11831e-13
1.20798e-13
1.29827e-13
1.38821e-13
4.47038e-15
1.34144e-14
2.23578e-14
3.13011e-14
4.02441e-14
4.91877e-14
5.81299e-14
6.70704e-14
7.60126e-14
8.49456e-14
9.3894e-14
1.02821e-13
1.11789e-13
1.20716e-13
1.29718e-13
1.38651e-13
4.47156e-15
1.3421e-14
2.23686e-14
3.13159e-14
4.0262e-14
4.92084e-14
5.8152e-14
6.70937e-14
7.60346e-14
8.49644e-14
9.39044e-14
1.02818e-13
1.11764e-13
1.20654e-13
1.29626e-13
1.38482e-13
4.47377e-15
1.34289e-14
2.23815e-14
3.13334e-14
4.02831e-14
4.92319e-14
5.81758e-14
6.7116e-14
7.60519e-14
8.49756e-14
9.39046e-14
1.02804e-13
1.1173e-13
1.20589e-13
1.2953e-13
1.38314e-13
4.47644e-15
1.34377e-14
2.23952e-14
3.1351e-14
4.0303e-14
4.92526e-14
5.81951e-14
6.71325e-14
7.60621e-14
8.4979e-14
9.38965e-14
1.02785e-13
1.11693e-13
1.20532e-13
1.29443e-13
1.38173e-13
4.47945e-15
1.3445e-14
2.24065e-14
3.1365e-14
4.03179e-14
4.92672e-14
5.82075e-14
6.7142e-14
7.60664e-14
8.49781e-14
9.3886e-14
1.02767e-13
1.11659e-13
1.20485e-13
1.29372e-13
1.38072e-13
4.48202e-15
1.34499e-14
2.24139e-14
3.13741e-14
4.03275e-14
4.92763e-14
5.82147e-14
6.71467e-14
7.60665e-14
8.49746e-14
9.38747e-14
1.02751e-13
1.11631e-13
1.20452e-13
1.2932e-13
1.38011e-13
4.48377e-15
1.34513e-14
2.24158e-14
3.1376e-14
4.03288e-14
4.92763e-14
5.82123e-14
6.71419e-14
7.60578e-14
8.49632e-14
9.38572e-14
1.02732e-13
1.11602e-13
1.20425e-13
1.29279e-13
1.37973e-13
4.48431e-15
1.34511e-14
2.24153e-14
3.13751e-14
4.03272e-14
4.92738e-14
5.82084e-14
6.7137e-14
7.60506e-14
8.49555e-14
9.38461e-14
1.02723e-13
1.11588e-13
1.20418e-13
1.29263e-13
1.37974e-13
4.48427e-15
1.34482e-14
2.24106e-14
3.13687e-14
4.03192e-14
4.92644e-14
5.81977e-14
6.71254e-14
7.60376e-14
8.4943e-14
9.3832e-14
1.02713e-13
1.11575e-13
1.20418e-13
1.29258e-13
1.37996e-13
4.4833e-15
1.34429e-14
2.24021e-14
3.13572e-14
4.03052e-14
4.92485e-14
5.818e-14
6.71069e-14
7.60182e-14
8.49248e-14
9.38137e-14
1.027e-13
1.11563e-13
1.20421e-13
1.29262e-13
1.38036e-13
4.4815e-15
1.34369e-14
2.23923e-14
3.13443e-14
4.02898e-14
4.92313e-14
5.81617e-14
6.70884e-14
7.59999e-14
8.49088e-14
9.37997e-14
1.02694e-13
1.11561e-13
1.20439e-13
1.29286e-13
1.38102e-13
4.47942e-15
1.34293e-14
2.23801e-14
3.1328e-14
4.02702e-14
4.92093e-14
5.81382e-14
6.70645e-14
7.59766e-14
8.4888e-14
9.37819e-14
1.02684e-13
1.11558e-13
1.20458e-13
1.29316e-13
1.38179e-13
4.47682e-15
1.34204e-14
2.23657e-14
3.13087e-14
4.02468e-14
4.91828e-14
5.81097e-14
6.70353e-14
7.59479e-14
8.48619e-14
9.37598e-14
1.02671e-13
1.11555e-13
1.20478e-13
1.29351e-13
1.38262e-13
4.47382e-15
1.3412e-14
2.2352e-14
3.12902e-14
4.02243e-14
4.91572e-14
5.80824e-14
6.70076e-14
7.59215e-14
8.48388e-14
9.37425e-14
1.02665e-13
1.11561e-13
1.20509e-13
1.29402e-13
1.38361e-13
4.471e-15
1.34031e-14
2.23373e-14
3.127e-14
4.01992e-14
4.9128e-14
5.80505e-14
6.69743e-14
7.58889e-14
8.48093e-14
9.37195e-14
1.02653e-13
1.11565e-13
1.20539e-13
1.29454e-13
1.38456e-13
4.468e-15
1.33938e-14
2.23219e-14
3.12487e-14
4.01723e-14
4.90961e-14
5.80147e-14
6.69357e-14
7.585e-14
8.47724e-14
9.36891e-14
1.02633e-13
1.11565e-13
1.20564e-13
1.29505e-13
1.38544e-13
4.46488e-15
1.33855e-14
2.23083e-14
3.123e-14
4.01489e-14
4.9068e-14
5.79824e-14
6.69e-14
7.58131e-14
8.47361e-14
9.36588e-14
1.02614e-13
1.11566e-13
1.20591e-13
1.2956e-13
1.38632e-13
4.46209e-15
1.33764e-14
2.22933e-14
3.12095e-14
4.01231e-14
4.90364e-14
5.79452e-14
6.68573e-14
7.57664e-14
8.4687e-14
9.36128e-14
1.02575e-13
1.11546e-13
1.20594e-13
1.29591e-13
1.38686e-13
4.45902e-15
1.33676e-14
2.22786e-14
3.11889e-14
4.00975e-14
4.90068e-14
5.79141e-14
6.68272e-14
7.57409e-14
8.46682e-14
9.36046e-14
1.02575e-13
1.11555e-13
1.20604e-13
1.29616e-13
1.38715e-13
4.45611e-15
1.33612e-14
2.22684e-14
3.1176e-14
4.00837e-14
4.89951e-14
5.79083e-14
6.68305e-14
7.57573e-14
8.46986e-14
9.36487e-14
1.02623e-13
1.11597e-13
1.20624e-13
1.29631e-13
1.38707e-13
4.45392e-15
1.3365e-14
2.22758e-14
3.11885e-14
4.01028e-14
4.90218e-14
5.79429e-14
6.68728e-14
7.58077e-14
8.47552e-14
9.37107e-14
1.02685e-13
1.11659e-13
1.20668e-13
1.29665e-13
1.38706e-13
4.45503e-15
1.33718e-14
2.22876e-14
3.12053e-14
4.01247e-14
4.90486e-14
5.79746e-14
6.69083e-14
7.58465e-14
8.4795e-14
9.37517e-14
1.02724e-13
1.117e-13
1.20698e-13
1.29692e-13
1.3871e-13
4.45728e-15
1.33787e-14
2.22988e-14
3.12207e-14
4.01442e-14
4.90724e-14
5.80031e-14
6.6941e-14
7.58833e-14
8.48343e-14
9.37929e-14
1.02763e-13
1.11738e-13
1.20729e-13
1.29724e-13
1.38734e-13
4.45956e-15
1.33841e-14
2.23079e-14
3.12335e-14
4.01607e-14
4.90922e-14
5.80259e-14
6.69663e-14
7.59105e-14
8.48621e-14
9.38209e-14
1.02789e-13
1.11762e-13
1.20749e-13
1.29738e-13
1.3874e-13
4.46137e-15
1.33895e-14
2.23169e-14
3.12459e-14
4.01763e-14
4.91109e-14
5.80476e-14
6.69903e-14
7.59366e-14
8.4889e-14
9.38481e-14
1.02815e-13
1.11785e-13
1.20768e-13
1.29752e-13
1.38744e-13
4.46317e-15
1.33942e-14
2.23245e-14
3.12564e-14
4.01897e-14
4.91268e-14
5.80657e-14
6.70101e-14
7.59576e-14
8.49102e-14
9.38689e-14
1.02834e-13
1.11802e-13
1.20781e-13
1.2976e-13
1.38745e-13
4.46471e-15
1.33981e-14
2.23309e-14
3.12653e-14
4.02008e-14
4.91398e-14
5.80805e-14
6.7026e-14
7.59743e-14
8.49269e-14
9.3885e-14
1.02848e-13
1.11814e-13
1.20789e-13
1.29763e-13
1.38741e-13
4.46601e-15
1.34015e-14
2.23365e-14
3.1273e-14
4.02104e-14
4.91511e-14
5.80931e-14
6.70395e-14
7.59883e-14
8.49406e-14
9.3898e-14
1.02859e-13
1.11823e-13
1.20794e-13
1.29765e-13
1.38737e-13
4.46715e-15
1.34044e-14
2.23414e-14
3.12795e-14
4.02185e-14
4.91606e-14
5.81036e-14
6.70507e-14
7.59997e-14
8.49517e-14
9.39082e-14
1.02868e-13
1.11829e-13
1.20797e-13
1.29764e-13
1.38731e-13
4.46813e-15
1.34072e-14
2.23459e-14
3.12858e-14
4.02263e-14
4.91696e-14
5.81136e-14
6.70613e-14
7.60106e-14
8.49623e-14
9.39181e-14
1.02876e-13
1.11836e-13
1.20801e-13
1.29765e-13
1.38728e-13
4.46906e-15
1.34096e-14
2.23499e-14
3.12912e-14
4.0233e-14
4.91773e-14
5.81222e-14
6.70704e-14
7.60198e-14
8.49712e-14
9.39264e-14
1.02883e-13
1.11841e-13
1.20804e-13
1.29765e-13
1.38725e-13
4.46988e-15
1.34111e-14
2.23523e-14
3.12944e-14
4.02369e-14
4.91817e-14
5.81268e-14
6.7075e-14
7.60241e-14
8.49748e-14
9.39288e-14
1.02884e-13
1.1184e-13
1.20801e-13
1.29759e-13
1.38716e-13
4.47038e-15
1.34125e-14
2.23546e-14
3.12975e-14
4.02407e-14
4.9186e-14
5.81314e-14
6.70796e-14
7.60285e-14
8.49786e-14
9.39318e-14
1.02886e-13
1.1184e-13
1.20799e-13
1.29755e-13
1.38709e-13
4.47087e-15
1.34141e-14
2.23573e-14
3.13011e-14
4.0245e-14
4.9191e-14
5.81369e-14
6.70854e-14
7.60343e-14
8.49841e-14
9.39368e-14
1.0289e-13
1.11843e-13
1.20801e-13
1.29755e-13
1.38707e-13
4.47141e-15
1.34151e-14
2.23588e-14
3.13031e-14
4.02475e-14
4.91937e-14
5.81397e-14
6.7088e-14
7.60367e-14
8.49859e-14
9.39379e-14
1.0289e-13
1.11842e-13
1.20798e-13
1.29751e-13
1.38701e-13
4.47173e-15
1.34155e-14
2.23594e-14
3.13039e-14
4.02483e-14
4.91945e-14
5.81404e-14
6.70883e-14
7.60364e-14
8.49849e-14
9.3936e-14
1.02887e-13
1.11838e-13
1.20792e-13
1.29743e-13
1.38691e-13
4.47187e-15
1.34162e-14
2.23606e-14
3.13054e-14
4.02501e-14
4.91965e-14
5.81424e-14
6.70902e-14
7.60381e-14
8.49862e-14
9.39367e-14
1.02887e-13
1.11837e-13
1.2079e-13
1.2974e-13
1.38686e-13
4.47211e-15
1.34165e-14
2.23611e-14
3.1306e-14
4.02508e-14
4.91971e-14
5.81429e-14
6.70905e-14
7.60379e-14
8.49855e-14
9.39353e-14
1.02885e-13
1.11834e-13
1.20785e-13
1.29735e-13
1.3868e-13
4.47222e-15
1.34166e-14
2.23613e-14
3.13062e-14
4.0251e-14
4.91972e-14
5.81427e-14
6.709e-14
7.60371e-14
8.4984e-14
9.39332e-14
1.02882e-13
1.1183e-13
1.20781e-13
1.29729e-13
1.38673e-13
4.47227e-15
1.34175e-14
2.23627e-14
3.13081e-14
4.02533e-14
4.91999e-14
5.81457e-14
6.70932e-14
7.60404e-14
8.49874e-14
9.39365e-14
1.02885e-13
1.11833e-13
1.20783e-13
1.29731e-13
1.38674e-13
4.47256e-15
1.34171e-14
2.2362e-14
3.13071e-14
4.0252e-14
4.91981e-14
5.81435e-14
6.70904e-14
7.60369e-14
8.49832e-14
9.39314e-14
1.02879e-13
1.11826e-13
1.20775e-13
1.29722e-13
1.38664e-13
4.47243e-15
1.34173e-14
2.23623e-14
3.13076e-14
4.02525e-14
4.91986e-14
5.81439e-14
6.70907e-14
7.60371e-14
8.49831e-14
9.39311e-14
1.02878e-13
1.11824e-13
1.20773e-13
1.2972e-13
1.38661e-13
4.47251e-15
1.34173e-14
2.23623e-14
3.13074e-14
4.02522e-14
4.91982e-14
5.81434e-14
6.70899e-14
7.6036e-14
8.49816e-14
9.39292e-14
1.02876e-13
1.11822e-13
1.2077e-13
1.29716e-13
1.38657e-13
4.4725e-15
1.34171e-14
2.23619e-14
3.13068e-14
4.02514e-14
4.91972e-14
5.8142e-14
6.70882e-14
7.60339e-14
8.49791e-14
9.39262e-14
1.02872e-13
1.11817e-13
1.20765e-13
1.2971e-13
1.38651e-13
4.47242e-15
1.34175e-14
2.23626e-14
3.13079e-14
4.02527e-14
4.91987e-14
5.81437e-14
6.70901e-14
7.60359e-14
8.49812e-14
9.39283e-14
1.02875e-13
1.1182e-13
1.20767e-13
1.29712e-13
1.38653e-13
4.47258e-15
1.34165e-14
2.2361e-14
3.13055e-14
4.02497e-14
4.91949e-14
5.81392e-14
6.70848e-14
7.60298e-14
8.49742e-14
9.39204e-14
1.02866e-13
1.1181e-13
1.20757e-13
1.29701e-13
1.3864e-13
4.47225e-15
1.34163e-14
2.23606e-14
3.1305e-14
4.02489e-14
4.91939e-14
5.8138e-14
6.70833e-14
7.6028e-14
8.49721e-14
9.3918e-14
1.02863e-13
1.11807e-13
1.20753e-13
1.29697e-13
1.38635e-13
4.47217e-15
1.34159e-14
2.23599e-14
3.1304e-14
4.02476e-14
4.91923e-14
5.8136e-14
6.7081e-14
7.60253e-14
8.4969e-14
9.39145e-14
1.02859e-13
1.11802e-13
1.20748e-13
1.29691e-13
1.3863e-13
4.47204e-15
1.34155e-14
2.23592e-14
3.13031e-14
4.02464e-14
4.91908e-14
5.81342e-14
6.70789e-14
7.60228e-14
8.49662e-14
9.39113e-14
1.02855e-13
1.11798e-13
1.20744e-13
1.29687e-13
1.38624e-13
4.47191e-15
1.34157e-14
2.23595e-14
3.13035e-14
4.02469e-14
4.91914e-14
5.81349e-14
6.70796e-14
7.60236e-14
8.4967e-14
9.39121e-14
1.02856e-13
1.11799e-13
1.20745e-13
1.29687e-13
1.38625e-13
4.47197e-15
1.34148e-14
2.23581e-14
3.13015e-14
4.02444e-14
4.91883e-14
5.81312e-14
6.70752e-14
7.60187e-14
8.49614e-14
9.39059e-14
1.02849e-13
1.11792e-13
1.20736e-13
1.29679e-13
1.38616e-13
4.47169e-15
1.34145e-14
2.23576e-14
3.13007e-14
4.02434e-14
4.9187e-14
5.81296e-14
6.70735e-14
7.60166e-14
8.49591e-14
9.39033e-14
1.02846e-13
1.11788e-13
1.20733e-13
1.29675e-13
1.38612e-13
4.47158e-15
1.34141e-14
2.23568e-14
3.12996e-14
4.0242e-14
4.91853e-14
5.81276e-14
6.70711e-14
7.60139e-14
8.4956e-14
9.38999e-14
1.02843e-13
1.11784e-13
1.20729e-13
1.2967e-13
1.38607e-13
4.47143e-15
1.34136e-14
2.2356e-14
3.12985e-14
4.02405e-14
4.91835e-14
5.81254e-14
6.70686e-14
7.60111e-14
8.49528e-14
9.38963e-14
1.02839e-13
1.1178e-13
1.20724e-13
1.29665e-13
1.38601e-13
4.47127e-15
1.3413e-14
2.23551e-14
3.12973e-14
4.02389e-14
4.91815e-14
5.81231e-14
6.70659e-14
7.6008e-14
8.49494e-14
9.38926e-14
1.02835e-13
1.11776e-13
1.20719e-13
1.2966e-13
1.38596e-13
4.47109e-15
1.34125e-14
2.23542e-14
3.12959e-14
4.02372e-14
4.91795e-14
5.81207e-14
6.70631e-14
7.60048e-14
8.49459e-14
9.38887e-14
1.0283e-13
1.11771e-13
1.20714e-13
1.29655e-13
1.3859e-13
4.47091e-15
1.3412e-14
2.23533e-14
3.12948e-14
4.02357e-14
4.91776e-14
5.81185e-14
6.70606e-14
7.6002e-14
8.49426e-14
9.38851e-14
1.02827e-13
1.11767e-13
1.2071e-13
1.2965e-13
1.38585e-13
4.47074e-15
1.3412e-14
2.23534e-14
3.12948e-14
4.02357e-14
4.91777e-14
5.81186e-14
6.70606e-14
7.6002e-14
8.49428e-14
9.38852e-14
1.02827e-13
1.11767e-13
1.2071e-13
1.2965e-13
1.38586e-13
4.47074e-15
1.34108e-14
2.23514e-14
3.12921e-14
4.02323e-14
4.91735e-14
5.81136e-14
6.70549e-14
7.59956e-14
8.49355e-14
9.38773e-14
1.02818e-13
1.11758e-13
1.207e-13
1.29639e-13
1.38574e-13
4.47036e-15
1.34106e-14
2.2351e-14
3.12915e-14
4.02315e-14
4.91725e-14
5.81124e-14
6.70535e-14
7.5994e-14
8.49338e-14
9.38754e-14
1.02816e-13
1.11756e-13
1.20698e-13
1.29637e-13
1.38572e-13
4.47027e-15
1.34098e-14
2.23496e-14
3.12896e-14
4.0229e-14
4.91695e-14
5.81089e-14
6.70495e-14
7.59895e-14
8.49287e-14
9.38698e-14
1.0281e-13
1.11749e-13
1.20691e-13
1.2963e-13
1.38564e-13
4.47e-15
1.3409e-14
2.23484e-14
3.12879e-14
4.02269e-14
4.91668e-14
5.81058e-14
6.70459e-14
7.59854e-14
8.49242e-14
9.38648e-14
1.02805e-13
1.11743e-13
1.20684e-13
1.29623e-13
1.38557e-13
4.46976e-15
1.34086e-14
2.23477e-14
3.12869e-14
4.02255e-14
4.91652e-14
5.81038e-14
6.70436e-14
7.59828e-14
8.49213e-14
9.38617e-14
1.02801e-13
1.11739e-13
1.20681e-13
1.29619e-13
1.38553e-13
4.46961e-15
1.34079e-14
2.23466e-14
3.12853e-14
4.02235e-14
4.91628e-14
5.81009e-14
6.70403e-14
7.5979e-14
8.49171e-14
9.3857e-14
1.02796e-13
1.11734e-13
1.20675e-13
1.29613e-13
1.38548e-13
4.46939e-15
1.34072e-14
2.23454e-14
3.12837e-14
4.02214e-14
4.91602e-14
5.80979e-14
6.70367e-14
7.5975e-14
8.49125e-14
9.38519e-14
1.0279e-13
1.11728e-13
1.20668e-13
1.29607e-13
1.38541e-13
4.46916e-15
1.34065e-14
2.23443e-14
3.12821e-14
4.02193e-14
4.91576e-14
5.80948e-14
6.70332e-14
7.59709e-14
8.4908e-14
9.38469e-14
1.02785e-13
1.11722e-13
1.20662e-13
1.29599e-13
1.38534e-13
4.46893e-15
1.34058e-14
2.2343e-14
3.12803e-14
4.0217e-14
4.91548e-14
5.80915e-14
6.70293e-14
7.59665e-14
8.49029e-14
9.38412e-14
1.02778e-13
1.11715e-13
1.20654e-13
1.2959e-13
1.38523e-13
4.46868e-15
1.34047e-14
2.23412e-14
3.12778e-14
4.02138e-14
4.91508e-14
5.80867e-14
6.70238e-14
7.59603e-14
8.48959e-14
9.38334e-14
1.0277e-13
1.11705e-13
1.20643e-13
1.29578e-13
1.38509e-13
4.46832e-15
1.34037e-14
2.23396e-14
3.12755e-14
4.02109e-14
4.91473e-14
5.80826e-14
6.70191e-14
7.59549e-14
8.48899e-14
9.38268e-14
1.02763e-13
1.11697e-13
1.20634e-13
1.29569e-13
1.38499e-13
4.468e-15
-1.26218e-29
-6.31089e-29
5.04871e-29
7.57306e-29
5.04871e-29
-5.04871e-29
0
-5.04871e-29
5.04871e-29
-5.04871e-29
2.01948e-28
-1.00974e-28
1.00974e-28
-4.54384e-28
-2.52435e-28
0
)
;


// ************************************************************************* //
