/*--------------------------------*- C++ -*----------------------------------*\
| =========                 |                                                 |
| \\      /  F ield         | OpenFOAM: The Open Source CFD Toolbox           |
|  \\    /   O peration     | Version:  4.1                                   |
|   \\  /    A nd           | Web:      www.OpenFOAM.org                      |
|    \\/     M anipulation  |                                                 |
\*---------------------------------------------------------------------------*/
FoamFile
{
    version     2.0;
    format      ascii;
    class       volVectorField;
    location    "0.0010";
    object      wallShearStress;
}
// * * * * * * * * * * * * * * * * * * * * * * * * * * * * * * * * * * * * * //

dimensions      [0 2 -2 0 0 0 0];

internalField   uniform (0 0 0);

boundaryField
{
    inlet
    {
        type            calculated;
        value           uniform (0 0 0);
    }
    outlet
    {
        type            calculated;
        value           nonuniform 0();
    }
    mantle
    {
        type            calculated;
        value           nonuniform List<vector> 
384
(
(-0.001348 -0.00011378 5.4382e-06)
(-0.001199 -0.00010191 3.0985e-05)
(-0.0011128 -8.9916e-05 4.7581e-05)
(-0.001071 -7.8874e-05 6.5049e-05)
(-0.001071 -6.5036e-05 7.8886e-05)
(-0.0011127 -4.7577e-05 8.9918e-05)
(-0.001199 -3.0981e-05 0.00010189)
(-0.0013479 -5.4346e-06 0.00011376)
(-0.0011455 -0.00032314 1.9909e-05)
(-0.0010229 -0.00028726 8.675e-05)
(-0.00094984 -0.00025201 0.00013337)
(-0.00091285 -0.00021912 0.00018022)
(-0.00091285 -0.00018019 0.00021912)
(-0.00094984 -0.00013335 0.000252)
(-0.0010229 -8.6739e-05 0.00028725)
(-0.0011455 -1.99e-05 0.00032311)
(-0.0009093 -0.00044626 2.7263e-05)
(-0.00081707 -0.00039967 0.00012058)
(-0.00076032 -0.00034969 0.00018502)
(-0.000731 -0.00030077 0.00024719)
(-0.000731 -0.00024717 0.00030077)
(-0.00076033 -0.00018501 0.00034969)
(-0.00081707 -0.00012057 0.00039966)
(-0.0009093 -2.7245e-05 0.00044623)
(-0.0006691 -0.00048848 2.9375e-05)
(-0.00060524 -0.00044082 0.00013323)
(-0.00056523 -0.00038453 0.00020395)
(-0.00054562 -0.00032687 0.00026891)
(-0.00054563 -0.00026892 0.00032687)
(-0.00056525 -0.00020396 0.00038455)
(-0.00060525 -0.00013324 0.00044083)
(-0.00066911 -2.935e-05 0.00048849)
(-0.00043975 -0.00045558 2.6537e-05)
(-0.0004026 -0.00041177 0.00012432)
(-0.00037845 -0.00035872 0.00019056)
(-0.0003675 -0.00030425 0.00025052)
(-0.00036752 -0.00025052 0.00030426)
(-0.00037848 -0.00019057 0.00035875)
(-0.00040263 -0.00012431 0.0004118)
(-0.00043976 -2.6511e-05 0.0004556)
(-0.00025297 -0.00035993 1.9378e-05)
(-0.00023741 -0.00032463 9.7209e-05)
(-0.00022586 -0.00028345 0.0001503)
(-0.00022058 -0.00024254 0.00019969)
(-0.00022058 -0.00019969 0.00024257)
(-0.00022588 -0.0001503 0.0002835)
(-0.00023743 -9.7199e-05 0.00032466)
(-0.000253 -1.9354e-05 0.00035993)
(-0.00013491 -0.00022924 9.9725e-06)
(-0.0001313 -0.00020771 6.092e-05)
(-0.00012707 -0.00018306 9.5973e-05)
(-0.00012483 -0.00015879 0.00013032)
(-0.00012484 -0.00013034 0.0001588)
(-0.00012708 -9.5998e-05 0.00018309)
(-0.00013133 -6.0927e-05 0.00020773)
(-0.00013495 -9.954e-06 0.00022927)
(-8.7563e-05 -0.00010911 1.5832e-06)
(-8.6092e-05 -0.00010164 2.802e-05)
(-8.3675e-05 -9.1943e-05 4.6503e-05)
(-8.2427e-05 -8.1397e-05 6.6213e-05)
(-8.2432e-05 -6.623e-05 8.1397e-05)
(-8.3688e-05 -4.653e-05 9.1952e-05)
(-8.6121e-05 -2.8034e-05 0.00010166)
(-8.7618e-05 -1.5788e-06 0.00010916)
(-8.2276e-05 -4.5661e-05 -2.16e-06)
(-7.7809e-05 -4.4226e-05 1.0485e-05)
(-7.4262e-05 -4.2065e-05 1.9778e-05)
(-7.2909e-05 -3.9073e-05 3.1317e-05)
(-7.2914e-05 -3.1342e-05 3.9063e-05)
(-7.4275e-05 -1.9814e-05 4.2082e-05)
(-7.7835e-05 -1.0522e-05 4.4261e-05)
(-8.2333e-05 2.1453e-06 4.5718e-05)
(-8.1785e-05 -4.1235e-05 -1.1538e-06)
(-7.4894e-05 -3.7452e-05 8.9111e-06)
(-7.0333e-05 -3.5125e-05 1.687e-05)
(-6.8801e-05 -3.3535e-05 2.7125e-05)
(-6.8805e-05 -2.7155e-05 3.3524e-05)
(-7.0347e-05 -1.6914e-05 3.5142e-05)
(-7.492e-05 -8.9655e-06 3.7497e-05)
(-8.1833e-05 1.1211e-06 4.1316e-05)
(-6.5588e-05 -5.7092e-05 1.301e-06)
(-5.9875e-05 -5.0135e-05 1.3418e-05)
(-5.5938e-05 -4.4965e-05 2.2969e-05)
(-5.4393e-05 -4.1257e-05 3.385e-05)
(-5.4394e-05 -3.389e-05 4.1242e-05)
(-5.5952e-05 -2.3025e-05 4.4983e-05)
(-5.9896e-05 -1.3484e-05 5.0186e-05)
(-6.5624e-05 -1.3468e-06 5.7187e-05)
(-3.8057e-05 -6.0083e-05 2.5784e-06)
(-3.5797e-05 -5.3407e-05 1.5147e-05)
(-3.3658e-05 -4.7133e-05 2.4548e-05)
(-3.241e-05 -4.1593e-05 3.4136e-05)
(-3.241e-05 -3.4182e-05 4.1575e-05)
(-3.3665e-05 -2.4613e-05 4.7147e-05)
(-3.5808e-05 -1.522e-05 5.3463e-05)
(-3.8071e-05 -2.6298e-06 6.0181e-05)
(-0.0013479 5.4389e-06 0.00011376)
(-0.001199 3.0987e-05 0.00010189)
(-0.0011127 4.7581e-05 8.9903e-05)
(-0.0010709 6.5034e-05 7.8862e-05)
(-0.0010709 7.8872e-05 6.5039e-05)
(-0.0011127 8.9915e-05 4.7585e-05)
(-0.001199 0.00010189 3.099e-05)
(-0.001348 0.00011376 5.4428e-06)
(-0.0011455 1.9915e-05 0.00032311)
(-0.0010228 8.6758e-05 0.00028725)
(-0.00094982 0.00013335 0.00025198)
(-0.00091283 0.00018017 0.00021909)
(-0.00091283 0.00021909 0.00018018)
(-0.00094982 0.00025199 0.00013336)
(-0.0010228 0.00028725 8.6765e-05)
(-0.0011455 0.00032314 1.9928e-05)
(-0.00090929 2.7279e-05 0.00044621)
(-0.00081706 0.00012059 0.00039963)
(-0.0007603 0.00018501 0.00034965)
(-0.000731 0.00024714 0.00030072)
(-0.00073099 0.0003007 0.00024715)
(-0.0007603 0.00034965 0.00018502)
(-0.00081706 0.00039965 0.0001206)
(-0.00090929 0.00044627 2.7291e-05)
(-0.0006691 2.9401e-05 0.00048844)
(-0.00060525 0.00013325 0.00044077)
(-0.00056525 0.00020394 0.00038449)
(-0.00054561 0.00026887 0.00032682)
(-0.00054562 0.00032681 0.00026889)
(-0.00056524 0.0003845 0.00020396)
(-0.00060523 0.00044081 0.00013326)
(-0.00066908 0.00048849 2.9404e-05)
(-0.00043976 2.6564e-05 0.00045554)
(-0.00040263 0.00012434 0.00041172)
(-0.00037848 0.00019054 0.00035867)
(-0.00036752 0.00025047 0.00030421)
(-0.00036751 0.00030421 0.00025049)
(-0.00037847 0.00035868 0.00019056)
(-0.0004026 0.00041175 0.00012435)
(-0.00043972 0.00045556 2.6561e-05)
(-0.000253 1.9401e-05 0.00035989)
(-0.00023744 9.7225e-05 0.00032459)
(-0.00022589 0.00015029 0.00028343)
(-0.00022059 0.00019966 0.0002425)
(-0.00022058 0.00024249 0.00019965)
(-0.00022585 0.00028342 0.00015028)
(-0.00023741 0.00032461 9.7223e-05)
(-0.00025295 0.00035989 1.9393e-05)
(-0.00013496 9.9989e-06 0.00022923)
(-0.00013134 6.0945e-05 0.00020768)
(-0.0001271 9.5987e-05 0.00018304)
(-0.00012485 0.00013031 0.00015875)
(-0.00012484 0.00015875 0.00013028)
(-0.00012706 0.00018301 9.5953e-05)
(-0.0001313 0.00020766 6.0918e-05)
(-0.0001349 0.00022919 9.9827e-06)
(-8.7622e-05 1.6128e-06 0.00010914)
(-8.6141e-05 2.805e-05 0.00010162)
(-8.3704e-05 4.6523e-05 9.1911e-05)
(-8.2448e-05 6.6208e-05 8.1354e-05)
(-8.2438e-05 8.1361e-05 6.6174e-05)
(-8.3687e-05 9.1886e-05 4.6481e-05)
(-8.6103e-05 0.00010157 2.8013e-05)
(-8.7568e-05 0.00010906 1.5932e-06)
(-8.2338e-05 -2.1214e-06 4.571e-05)
(-7.7854e-05 1.0534e-05 4.4245e-05)
(-7.4295e-05 1.9814e-05 4.2054e-05)
(-7.2937e-05 3.1329e-05 3.9035e-05)
(-7.2929e-05 3.9046e-05 3.1295e-05)
(-7.4284e-05 4.2032e-05 1.9761e-05)
(-7.7829e-05 4.4186e-05 1.0478e-05)
(-8.229e-05 4.5617e-05 -2.156e-06)
(-8.184e-05 -1.104e-06 4.1311e-05)
(-7.4934e-05 8.9762e-06 3.7486e-05)
(-7.0365e-05 1.6915e-05 3.5127e-05)
(-6.883e-05 2.7152e-05 3.3511e-05)
(-6.8826e-05 3.3521e-05 2.7114e-05)
(-7.0356e-05 3.5103e-05 1.6859e-05)
(-7.4917e-05 3.7422e-05 8.903e-06)
(-8.1807e-05 4.1196e-05 -1.1533e-06)
(-6.5628e-05 1.3511e-06 5.7186e-05)
(-5.991e-05 1.3488e-05 5.0186e-05)
(-5.5971e-05 2.3025e-05 4.498e-05)
(-5.4415e-05 3.3892e-05 4.1243e-05)
(-5.4416e-05 4.1257e-05 3.3849e-05)
(-5.5961e-05 4.4957e-05 2.2963e-05)
(-5.9901e-05 5.0117e-05 1.3413e-05)
(-6.5616e-05 5.7066e-05 1.3005e-06)
(-3.8073e-05 2.624e-06 6.0185e-05)
(-3.582e-05 1.5216e-05 5.347e-05)
(-3.3679e-05 2.4612e-05 4.7157e-05)
(-3.2426e-05 3.4187e-05 4.1586e-05)
(-3.2428e-05 4.1602e-05 3.4143e-05)
(-3.3678e-05 4.714e-05 2.455e-05)
(-3.582e-05 5.3405e-05 1.5147e-05)
(-3.8083e-05 6.0078e-05 2.577e-06)
(-0.001348 0.00011378 -5.4317e-06)
(-0.001199 0.00010191 -3.098e-05)
(-0.0011128 8.9921e-05 -4.7586e-05)
(-0.001071 7.8894e-05 -6.5067e-05)
(-0.001071 6.5053e-05 -7.8896e-05)
(-0.0011128 4.7583e-05 -8.9926e-05)
(-0.0011991 3.0988e-05 -0.00010192)
(-0.001348 5.4372e-06 -0.00011379)
(-0.0011455 0.00032318 -1.9905e-05)
(-0.0010229 0.0002873 -8.6749e-05)
(-0.00094985 0.00025203 -0.00013336)
(-0.00091287 0.00021915 -0.00018024)
(-0.00091288 0.00018023 -0.00021915)
(-0.00094986 0.00013338 -0.00025204)
(-0.0010229 8.676e-05 -0.00028733)
(-0.0011455 1.9907e-05 -0.0003232)
(-0.00090929 0.00044629 -2.725e-05)
(-0.00081706 0.00039971 -0.00012058)
(-0.00076032 0.00034974 -0.00018503)
(-0.00073101 0.0003008 -0.00024721)
(-0.00073101 0.00024722 -0.00030079)
(-0.00076033 0.00018506 -0.00034974)
(-0.00081708 0.0001206 -0.00039976)
(-0.00090932 2.726e-05 -0.00044636)
(-0.00066908 0.00048851 -2.9347e-05)
(-0.00060522 0.00044085 -0.00013323)
(-0.00056522 0.00038457 -0.00020397)
(-0.00054561 0.0003269 -0.00026893)
(-0.00054561 0.00026895 -0.00032689)
(-0.00056523 0.00020401 -0.00038459)
(-0.00060523 0.00013328 -0.00044091)
(-0.00066909 2.9374e-05 -0.0004886)
(-0.00043972 0.00045558 -2.6509e-05)
(-0.00040259 0.00041181 -0.0001243)
(-0.00037843 0.00035875 -0.00019055)
(-0.00036748 0.00030428 -0.00025053)
(-0.00036748 0.00025056 -0.00030427)
(-0.00037842 0.00019061 -0.00035877)
(-0.00040256 0.00012436 -0.00041187)
(-0.00043971 2.654e-05 -0.00045567)
(-0.00025294 0.00035991 -1.9353e-05)
(-0.00023738 0.00032465 -9.7191e-05)
(-0.00022583 0.00028348 -0.00015028)
(-0.00022053 0.00024257 -0.00019968)
(-0.00022052 0.00019971 -0.00024255)
(-0.00022581 0.00015032 -0.00028349)
(-0.00023735 9.7241e-05 -0.00032471)
(-0.00025292 1.9387e-05 -0.00036)
(-0.00013489 0.00022922 -9.9578e-06)
(-0.00013127 0.00020769 -6.0913e-05)
(-0.00012702 0.00018304 -9.597e-05)
(-0.00012478 0.00015879 -0.0001303)
(-0.00012478 0.00013033 -0.00015877)
(-0.000127 9.5989e-05 -0.00018307)
(-0.00013124 6.0949e-05 -0.00020773)
(-0.00013485 9.989e-06 -0.00022928)
(-8.7556e-05 0.00010908 -1.5887e-06)
(-8.6066e-05 0.00010159 -2.8015e-05)
(-8.3632e-05 9.1891e-05 -4.6487e-05)
(-8.2373e-05 8.1366e-05 -6.618e-05)
(-8.2371e-05 6.6205e-05 -8.1359e-05)
(-8.3612e-05 4.6513e-05 -9.191e-05)
(-8.6033e-05 2.8041e-05 -0.00010162)
(-8.7496e-05 1.6007e-06 -0.00010912)
(-8.228e-05 4.5611e-05 2.1335e-06)
(-7.7788e-05 4.4168e-05 -1.0496e-05)
(-7.4229e-05 4.201e-05 -1.9765e-05)
(-7.2867e-05 3.9013e-05 -3.1282e-05)
(-7.2859e-05 3.1291e-05 -3.9012e-05)
(-7.4208e-05 1.9776e-05 -4.2014e-05)
(-7.775e-05 1.0502e-05 -4.4187e-05)
(-8.2217e-05 -2.1354e-06 -4.5629e-05)
(-8.1797e-05 4.1179e-05 1.1038e-06)
(-7.4884e-05 3.7382e-05 -8.9409e-06)
(-7.0312e-05 3.5052e-05 -1.686e-05)
(-6.8771e-05 3.3465e-05 -2.7091e-05)
(-6.8763e-05 2.7089e-05 -3.3465e-05)
(-7.029e-05 1.6855e-05 -3.5054e-05)
(-7.4845e-05 8.9269e-06 -3.7385e-05)
(-8.1738e-05 -1.1221e-06 -4.1178e-05)
(-6.561e-05 5.7042e-05 -1.3656e-06)
(-5.9878e-05 5.0061e-05 -1.3459e-05)
(-5.5934e-05 4.4884e-05 -2.297e-05)
(-5.4373e-05 4.1174e-05 -3.3821e-05)
(-5.4369e-05 3.3807e-05 -4.1178e-05)
(-5.5912e-05 2.2947e-05 -4.488e-05)
(-5.9843e-05 1.3428e-05 -5.0049e-05)
(-6.5554e-05 1.3321e-06 -5.7013e-05)
(-3.8077e-05 6.0047e-05 -2.6484e-06)
(-3.5813e-05 5.3341e-05 -1.5198e-05)
(-3.3664e-05 4.7051e-05 -2.456e-05)
(-3.2404e-05 4.1503e-05 -3.4115e-05)
(-3.2401e-05 3.4085e-05 -4.1514e-05)
(-3.3646e-05 2.4521e-05 -4.7043e-05)
(-3.5784e-05 1.5151e-05 -5.331e-05)
(-3.8037e-05 2.6074e-06 -5.9993e-05)
(-0.001348 -5.4428e-06 -0.00011379)
(-0.0011991 -3.0993e-05 -0.00010192)
(-0.0011128 -4.7598e-05 -8.9926e-05)
(-0.001071 -6.5051e-05 -7.887e-05)
(-0.001071 -7.8876e-05 -6.5044e-05)
(-0.0011128 -8.9918e-05 -4.759e-05)
(-0.001199 -0.00010191 -3.0984e-05)
(-0.001348 -0.00011378 -5.4381e-06)
(-0.0011455 -1.9931e-05 -0.0003232)
(-0.0010229 -8.678e-05 -0.00028731)
(-0.00094987 -0.00013338 -0.00025202)
(-0.00091286 -0.00018021 -0.00021909)
(-0.00091285 -0.00021911 -0.00018019)
(-0.00094985 -0.00025201 -0.00013336)
(-0.0010229 -0.00028727 -8.6758e-05)
(-0.0011455 -0.00032314 -1.9919e-05)
(-0.00090932 -2.7287e-05 -0.00044636)
(-0.00081708 -0.00012062 -0.00039973)
(-0.00076033 -0.00018506 -0.00034971)
(-0.00073101 -0.00024718 -0.00030074)
(-0.00073101 -0.00030075 -0.00024715)
(-0.00076032 -0.00034969 -0.00018503)
(-0.00081707 -0.00039966 -0.00012059)
(-0.00090931 -0.00044624 -2.7271e-05)
(-0.00066909 -2.9386e-05 -0.00048858)
(-0.00060524 -0.00013328 -0.00044088)
(-0.00056524 -0.00020401 -0.00038458)
(-0.00054563 -0.00026894 -0.00032686)
(-0.00054562 -0.00032687 -0.00026889)
(-0.00056525 -0.00038454 -0.00020396)
(-0.00060524 -0.00044081 -0.00013325)
(-0.0006691 -0.00048847 -2.9371e-05)
(-0.00043972 -2.6547e-05 -0.00045566)
(-0.00040257 -0.00012437 -0.00041184)
(-0.00037844 -0.00019061 -0.00035876)
(-0.0003675 -0.00025057 -0.00030428)
(-0.0003675 -0.00030429 -0.00025052)
(-0.00037845 -0.00035873 -0.00019055)
(-0.0004026 -0.00041177 -0.00012432)
(-0.00043975 -0.00045558 -2.6532e-05)
(-0.00025292 -1.9386e-05 -0.00036)
(-0.00023737 -9.725e-05 -0.0003247)
(-0.00022582 -0.00015034 -0.00028348)
(-0.00022053 -0.00019971 -0.00024255)
(-0.00022054 -0.00024257 -0.0001997)
(-0.00022584 -0.00028348 -0.0001503)
(-0.00023739 -0.00032465 -9.7204e-05)
(-0.00025297 -0.00035993 -1.9374e-05)
(-0.00013485 -9.9772e-06 -0.00022929)
(-0.00013125 -6.0944e-05 -0.00020773)
(-0.00012702 -9.6005e-05 -0.00018308)
(-0.00012478 -0.00013033 -0.00015879)
(-0.00012478 -0.0001588 -0.00013031)
(-0.00012704 -0.00018308 -9.5989e-05)
(-0.00013128 -0.0002077 -6.0931e-05)
(-0.0001349 -0.00022924 -9.9751e-06)
(-8.7499e-05 -1.5892e-06 -0.00010912)
(-8.603e-05 -2.803e-05 -0.00010163)
(-8.3616e-05 -4.6516e-05 -9.1928e-05)
(-8.2375e-05 -6.6221e-05 -8.1382e-05)
(-8.2378e-05 -8.1392e-05 -6.6205e-05)
(-8.3636e-05 -9.1922e-05 -4.6506e-05)
(-8.607e-05 -0.00010161 -2.8029e-05)
(-8.7558e-05 -0.00010911 -1.601e-06)
(-8.2217e-05 2.1459e-06 -4.5632e-05)
(-7.7747e-05 -1.0494e-05 -4.4197e-05)
(-7.4205e-05 -1.9779e-05 -4.2037e-05)
(-7.2854e-05 -3.1305e-05 -3.9037e-05)
(-7.2862e-05 -3.9035e-05 -3.1307e-05)
(-7.4222e-05 -4.2035e-05 -1.9785e-05)
(-7.7781e-05 -4.4201e-05 -1.0508e-05)
(-8.2271e-05 -4.565e-05 2.1262e-06)
(-8.1735e-05 1.1308e-06 -4.1182e-05)
(-7.4841e-05 -8.9196e-06 -3.7393e-05)
(-7.0281e-05 -1.6857e-05 -3.5067e-05)
(-6.8753e-05 -2.7094e-05 -3.348e-05)
(-6.8759e-05 -3.3477e-05 -2.7107e-05)
(-7.0297e-05 -3.5073e-05 -1.6873e-05)
(-7.4867e-05 -3.7411e-05 -8.9517e-06)
(-8.1779e-05 -4.1216e-05 1.0999e-06)
(-6.5553e-05 -1.3308e-06 -5.7017e-05)
(-5.9837e-05 -1.3423e-05 -5.0053e-05)
(-5.5899e-05 -2.2946e-05 -4.4884e-05)
(-5.4356e-05 -3.3807e-05 -4.1184e-05)
(-5.4359e-05 -4.1179e-05 -3.3827e-05)
(-5.5918e-05 -4.4894e-05 -2.2976e-05)
(-5.9859e-05 -5.0078e-05 -1.3467e-05)
(-6.5584e-05 -5.7066e-05 -1.3676e-06)
(-3.8036e-05 -2.6102e-06 -5.9993e-05)
(-3.5776e-05 -1.5153e-05 -5.3309e-05)
(-3.3638e-05 -2.452e-05 -4.7039e-05)
(-3.239e-05 -3.4083e-05 -4.1509e-05)
(-3.2391e-05 -4.15e-05 -3.4112e-05)
(-3.3649e-05 -4.7049e-05 -2.4559e-05)
(-3.5795e-05 -5.3342e-05 -1.52e-05)
(-3.8052e-05 -6.0047e-05 -2.6477e-06)
)
;
    }
    procBoundary0to1
    {
        type            processor;
        value           uniform (0 0 0);
    }
}


// ************************************************************************* //
