/*--------------------------------*- C++ -*----------------------------------*\
| =========                 |                                                 |
| \\      /  F ield         | OpenFOAM: The Open Source CFD Toolbox           |
|  \\    /   O peration     | Version:  4.1                                   |
|   \\  /    A nd           | Web:      www.OpenFOAM.org                      |
|    \\/     M anipulation  |                                                 |
\*---------------------------------------------------------------------------*/
FoamFile
{
    version     2.0;
    format      ascii;
    class       volScalarField;
    location    "0.000450";
    object      k;
}
// * * * * * * * * * * * * * * * * * * * * * * * * * * * * * * * * * * * * * //

dimensions      [0 2 -2 0 0 0 0];

internalField   nonuniform List<scalar> 
3072
(
0.49056745
0.48939604
0.48110325
0.47147568
0.46234039
0.45299381
0.4442439
0.43598072
0.4279117
0.42066907
0.41339747
0.40671136
0.40031196
0.39438963
0.38918854
0.3843985
0.38043272
0.37698685
0.37424341
0.37205656
0.37031841
0.36922657
0.36871251
0.36928235
0.47358101
0.49862102
0.49440216
0.48538299
0.47366841
0.46176742
0.45044208
0.43978059
0.4299472
0.42117763
0.41326921
0.40630001
0.40024548
0.39501839
0.39070091
0.38701308
0.38422427
0.38203678
0.38058623
0.37975249
0.37940241
0.37980839
0.38074588
0.38293926
0.45335589
0.47505287
0.47186858
0.46390917
0.45350448
0.44253025
0.43176724
0.42151714
0.41178337
0.40289127
0.39473354
0.38750353
0.38114513
0.37563755
0.37103148
0.36721358
0.36436506
0.36225915
0.36097822
0.36045078
0.36057124
0.36148816
0.3630733
0.36581573
0.44251601
0.46266431
0.45999899
0.45233839
0.44226716
0.43167171
0.42117612
0.41103107
0.40133224
0.39225508
0.38385038
0.37622073
0.36941055
0.36343808
0.35827035
0.35393469
0.35051435
0.34793184
0.34622569
0.34535471
0.34528531
0.34606732
0.34769094
0.35045336
0.4363564
0.45236253
0.45031464
0.44295491
0.43357244
0.42380295
0.41406294
0.40453714
0.39535545
0.38657403
0.37834253
0.37069606
0.36377462
0.35760592
0.35215299
0.34748967
0.34364095
0.34063341
0.33848039
0.33717366
0.33672608
0.33713045
0.33843295
0.34082534
0.43680003
0.44378631
0.44227074
0.43493899
0.42662892
0.41808148
0.4096752
0.40132438
0.3930718
0.38495741
0.37710426
0.36962799
0.36269712
0.35637914
0.35066094
0.34563117
0.34133532
0.33782728
0.33513424
0.33327128
0.33224449
0.33205636
0.33275953
0.33448943
0.45039355
0.4405166
0.43871125
0.43134315
0.42477775
0.41834104
0.41200833
0.40541575
0.39844868
0.39112004
0.38357561
0.37606724
0.36876588
0.36181351
0.35530497
0.34938875
0.34418222
0.33972726
0.33607914
0.3332883
0.33137314
0.33034415
0.33024955
0.3311876
0.46933086
0.44898948
0.44340113
0.43539157
0.42987669
0.42435588
0.41849054
0.41197226
0.40486819
0.39742305
0.38989132
0.3825031
0.37539899
0.36865433
0.36232188
0.35651874
0.35133922
0.3467661
0.34277368
0.33939323
0.33672302
0.33483468
0.33385435
0.33402178
0.47358413
0.49866047
0.49446036
0.48544455
0.47370373
0.46178628
0.45044805
0.43975946
0.4298796
0.42107492
0.41314941
0.40616472
0.40008089
0.39482141
0.39049053
0.38681359
0.38405165
0.38190385
0.38049264
0.37969399
0.37936995
0.37979429
0.38074866
0.38295495
0.45157682
0.48540309
0.48731933
0.48193101
0.47190961
0.46115135
0.45067943
0.44069236
0.43134101
0.42289065
0.41534681
0.40874831
0.40321465
0.39861209
0.39502522
0.39228871
0.39058766
0.38965843
0.38954284
0.3900912
0.39111433
0.39282346
0.39485578
0.39792967
0.43219137
0.45570649
0.4573996
0.45280616
0.4447423
0.43579351
0.42680829
0.41805061
0.40959897
0.40168845
0.39434986
0.38773447
0.38186876
0.37673991
0.37240546
0.36884878
0.36619556
0.36428966
0.3631606
0.36272885
0.36289523
0.36374369
0.3651634
0.36755474
0.42491485
0.44487673
0.44614978
0.44130564
0.43359739
0.42514583
0.41653954
0.40796101
0.39956337
0.39147184
0.38381042
0.3766763
0.37014689
0.36426266
0.35901988
0.35451491
0.3508089
0.34787197
0.34571494
0.3443038
0.34363859
0.34374909
0.34466644
0.34661702
0.42133765
0.437605
0.43828792
0.43310189
0.42579571
0.41796851
0.40998256
0.40191916
0.3939072
0.38600222
0.37838161
0.37110699
0.36431338
0.35805848
0.35234809
0.34731558
0.34299476
0.33943334
0.33665261
0.33464683
0.33345006
0.33307464
0.33359825
0.33517203
0.4216635
0.43293243
0.43303653
0.42742309
0.42056453
0.41340178
0.40620788
0.39892224
0.39150784
0.38404879
0.37665211
0.3694126
0.362495
0.35596928
0.34991953
0.34445094
0.33961531
0.33551805
0.33222512
0.32975579
0.32813134
0.32739427
0.32762683
0.32893886
0.43112934
0.43298977
0.43255701
0.42639345
0.42014208
0.41387219
0.40773281
0.40146762
0.39490922
0.38801946
0.38090207
0.37370405
0.36659502
0.35969998
0.35311785
0.34700639
0.34150963
0.33676877
0.33287465
0.32986581
0.32776044
0.32662051
0.32652157
0.32754987
0.45052722
0.44026461
0.4384131
0.43100528
0.42453798
0.41823563
0.41202866
0.40550736
0.39853623
0.39116074
0.38360888
0.37608716
0.36872888
0.36168475
0.35510631
0.34915482
0.34395375
0.33952183
0.33588955
0.33312416
0.33122823
0.33021023
0.33011126
0.3310405
0.45325031
0.47485309
0.47165701
0.46369639
0.4532971
0.44234945
0.43163481
0.42138805
0.41161531
0.40270402
0.39454815
0.38730191
0.38088505
0.37529964
0.37065237
0.36683103
0.36401504
0.3619603
0.36072992
0.3602501
0.3604096
0.361355
0.36296383
0.36571145
0.43207565
0.45543142
0.45705511
0.45243653
0.44438605
0.43548079
0.42656701
0.41784876
0.40941098
0.4015214
0.39420388
0.38760012
0.38171858
0.37655737
0.37220538
0.36864265
0.3659992
0.36411326
0.36300734
0.36259925
0.36277504
0.36361715
0.3650421
0.36744395
0.41577782
0.43064855
0.43160923
0.42747379
0.42084303
0.41347188
0.40589533
0.3983161
0.39085062
0.38366666
0.37682332
0.3704627
0.36459206
0.35925774
0.35453698
0.35046012
0.34708983
0.34436951
0.34233386
0.34098007
0.34028051
0.34029706
0.3411111
0.34295838
0.41171962
0.42575384
0.42672466
0.42243201
0.41574796
0.40840358
0.40080113
0.39310123
0.38545507
0.37798652
0.37080055
0.36398629
0.35758777
0.35166536
0.34629429
0.34155447
0.33748155
0.33408097
0.33139409
0.32946677
0.32833919
0.32807147
0.32876392
0.33057263
0.41111415
0.42526055
0.42628097
0.42183325
0.41509824
0.40775068
0.40014786
0.39239567
0.38460957
0.37691021
0.36943489
0.36225624
0.35544347
0.34907657
0.34324223
0.33804233
0.33352417
0.32974304
0.3267417
0.32454957
0.32322269
0.32282486
0.32345907
0.32524581
0.41281776
0.42638781
0.42708722
0.42233985
0.41566356
0.40848597
0.40112498
0.39360637
0.38597591
0.37834595
0.37084178
0.3635512
0.35656547
0.34997578
0.34390005
0.33844655
0.33367261
0.32965648
0.32646023
0.32409816
0.32261284
0.32207583
0.3225792
0.32423762
0.42115996
0.4321595
0.43215647
0.42654089
0.41979599
0.41274992
0.40567406
0.39849408
0.39117611
0.38379607
0.37644203
0.36922949
0.36229178
0.35571678
0.34963174
0.34415787
0.33933163
0.33524582
0.3319819
0.32954922
0.32796109
0.32725197
0.32749437
0.32881846
0.43638033
0.44281588
0.4412631
0.43389426
0.42572232
0.4173867
0.4091748
0.40095972
0.39278754
0.384721
0.37690456
0.36944537
0.36245536
0.35602711
0.35023799
0.34519975
0.34093464
0.33747318
0.33483361
0.33302521
0.33204861
0.33189818
0.33261828
0.33435609
0.44233722
0.46230059
0.45959088
0.45190949
0.44184562
0.43129701
0.42087513
0.41078199
0.40109673
0.39204082
0.38366865
0.37604685
0.36918805
0.36313808
0.35791924
0.35357871
0.35019173
0.3476528
0.34598363
0.34514397
0.34510002
0.345902
0.34753285
0.35027343
0.4247203
0.4444477
0.44561626
0.44072204
0.43301505
0.42460761
0.41609193
0.40759978
0.39926978
0.39124472
0.38364388
0.37654655
0.37001492
0.36410934
0.35885747
0.35435936
0.35066657
0.34774422
0.34560153
0.3442008
0.34353141
0.34362436
0.34453031
0.34647028
0.41165269
0.42560873
0.42652663
0.42219128
0.41548145
0.40812522
0.40052795
0.39284822
0.38522624
0.37778663
0.3706266
0.3638305
0.35744267
0.35153957
0.34620141
0.34149603
0.33745091
0.33407493
0.33140795
0.32949054
0.32835293
0.32806095
0.32874109
0.33054811
0.40855293
0.42189806
0.42292601
0.41851193
0.41169994
0.40427528
0.39658862
0.38880199
0.38104626
0.37345347
0.3661218
0.3591068
0.35245104
0.34622969
0.34054941
0.33548791
0.33107286
0.32732675
0.32431035
0.32211924
0.32082461
0.32049361
0.32123759
0.32317583
0.40857323
0.42220777
0.42333345
0.41890706
0.41206512
0.40461557
0.39690091
0.3890509
0.38118482
0.37344305
0.36594528
0.35874194
0.3518788
0.345442
0.33954513
0.33427815
0.32967976
0.32579252
0.32267705
0.32040689
0.3190579
0.31870195
0.31944429
0.32139764
0.41095098
0.42495695
0.42589447
0.42141412
0.41471026
0.40742841
0.39988393
0.39217211
0.3844117
0.37672893
0.36926289
0.36208069
0.3552535
0.34887407
0.34304673
0.33787034
0.3333845
0.32963732
0.32667171
0.32451181
0.32320443
0.32281132
0.32343086
0.3251938
0.42045114
0.43613939
0.43666514
0.43143954
0.42426912
0.41668494
0.40893989
0.40107684
0.3932122
0.38540909
0.37786928
0.37063589
0.36382934
0.35755118
0.35186068
0.34687156
0.34259264
0.33908106
0.33637179
0.33444955
0.33333074
0.33302073
0.33358253
0.33517199
0.43555628
0.45099599
0.44891234
0.44149102
0.43219166
0.4226286
0.41316406
0.40384743
0.39477449
0.38604354
0.37785716
0.37024681
0.36329139
0.35706478
0.35160563
0.34697972
0.34318231
0.34024833
0.33818172
0.33695899
0.33658497
0.33705502
0.33840078
0.34080966
0.43614598
0.4519276
0.44981208
0.44240796
0.43302242
0.42329991
0.4136304
0.40417276
0.39504239
0.38631653
0.37815028
0.37054209
0.36358928
0.3573481
0.35186004
0.34721949
0.34341502
0.34044837
0.33832074
0.33702938
0.33659459
0.33701121
0.33831143
0.34067656
0.42112464
0.43717451
0.43773354
0.43247347
0.42513903
0.41732968
0.40940893
0.40142912
0.39350884
0.38570328
0.37817853
0.37096685
0.36418748
0.35792248
0.35223366
0.34724539
0.34295298
0.33939986
0.33661613
0.33459974
0.33339058
0.33300112
0.33350152
0.33504835
0.41100038
0.42502971
0.42595557
0.42143281
0.41464409
0.40726271
0.39965116
0.3919128
0.38416667
0.37652293
0.36909638
0.36195095
0.35516736
0.348848
0.34309103
0.33797165
0.33350918
0.32975587
0.32676212
0.32456698
0.32322995
0.32281612
0.3234303
0.32519826
0.40851341
0.42209306
0.4231771
0.41871274
0.41183818
0.40435725
0.3966111
0.38874183
0.380877
0.37314777
0.36565842
0.35846697
0.35163128
0.34524304
0.33940919
0.33420266
0.32965231
0.32579515
0.32269408
0.32043141
0.31908508
0.31872705
0.31947092
0.32142885
0.40851497
0.42176773
0.42274859
0.4183129
0.41151491
0.40413053
0.39647557
0.38869306
0.38092795
0.37332022
0.3659724
0.35894215
0.35228445
0.34608683
0.34044282
0.33541945
0.33104305
0.32733636
0.32435616
0.32219094
0.32090653
0.32056914
0.32129228
0.32320495
0.41144518
0.42522107
0.42607722
0.42172073
0.41507691
0.40784413
0.40033988
0.39269345
0.3850735
0.377613
0.3704237
0.36358808
0.35717051
0.35126677
0.3459507
0.34126792
0.33724785
0.33391208
0.33130411
0.32945755
0.32839246
0.32816213
0.32886275
0.33065383
0.42367827
0.44280076
0.44388828
0.43896132
0.43140665
0.42326556
0.41502285
0.40672857
0.39852163
0.39054101
0.38294633
0.37585113
0.36933216
0.36348699
0.35832973
0.35390161
0.35024227
0.34737389
0.34533242
0.3440608
0.3435294
0.34376293
0.34477372
0.34677597
0.44142125
0.46099293
0.45828181
0.45054245
0.44057424
0.43014376
0.41999018
0.41010821
0.40054694
0.39151137
0.38311836
0.37551436
0.36869416
0.36272015
0.35759535
0.3533177
0.34994628
0.34744306
0.34584904
0.34509196
0.34511958
0.34598904
0.34767518
0.35046712
0.43661988
0.44338197
0.44176888
0.43437759
0.4260528
0.41752992
0.40917164
0.40088752
0.39270913
0.38467449
0.37690557
0.3694792
0.3625366
0.35616781
0.35044216
0.34545243
0.34120534
0.33773189
0.33505607
0.33319875
0.33217222
0.33197656
0.33265573
0.33435296
0.42147934
0.43257996
0.43254931
0.42684739
0.41993748
0.41275546
0.40558452
0.39835699
0.39102965
0.38367768
0.37637495
0.3692058
0.36232483
0.35582376
0.34983067
0.34442759
0.33963443
0.33554244
0.33223728
0.32974824
0.32810397
0.3273444
0.32754233
0.3288241
0.41267969
0.42613102
0.42674192
0.42190934
0.41516202
0.40793486
0.40054435
0.39302188
0.38541892
0.37783523
0.37036885
0.36311587
0.35618389
0.34967698
0.34371709
0.3383749
0.33367104
0.32968309
0.32648791
0.32411978
0.32263234
0.32209492
0.32259152
0.32423673
0.41086808
0.42480986
0.4257067
0.42117006
0.41440401
0.40706634
0.39947097
0.3917219
0.38394063
0.37625425
0.36878789
0.36162656
0.35485467
0.34856945
0.34285914
0.33778638
0.33337175
0.32966733
0.32672389
0.32457346
0.32327131
0.32288207
0.3235152
0.32529466
0.41143494
0.42520053
0.42604406
0.42166543
0.41498397
0.40771358
0.40017082
0.39248569
0.38483278
0.37734907
0.37014685
0.36331891
0.35693308
0.35108609
0.34583399
0.34120733
0.33723168
0.33393173
0.33134936
0.32951452
0.32844438
0.32819972
0.32890771
0.33072627
0.41522589
0.42969771
0.43053072
0.4263292
0.41974737
0.4125262
0.4050983
0.3975725
0.39012846
0.38292928
0.3760498
0.36965009
0.36376818
0.35849448
0.35387955
0.34988863
0.34657732
0.34394178
0.34202958
0.3408245
0.34026627
0.34040619
0.3413162
0.34322411
0.43051021
0.45300069
0.45450978
0.4498121
0.44194157
0.43334682
0.42479851
0.41640295
0.40817986
0.40038066
0.39308484
0.3865062
0.38067705
0.37563225
0.37142317
0.36795691
0.36533964
0.36350526
0.36251973
0.36227929
0.36264129
0.36368327
0.3652744
0.36780103
0.45198884
0.47310122
0.46991342
0.46186864
0.45160083
0.44082688
0.43037786
0.42044017
0.41087694
0.40202196
0.39385367
0.3866351
0.38027855
0.37479356
0.37024961
0.36649321
0.36368754
0.36165856
0.36049796
0.36010503
0.36034252
0.3613585
0.36301567
0.36580613
0.45032408
0.44026728
0.4383571
0.43091029
0.42432034
0.41789354
0.41159856
0.40505475
0.39812421
0.39082365
0.38331365
0.37582415
0.3685239
0.3615697
0.35509496
0.34923501
0.34408175
0.33966914
0.33604018
0.33326317
0.33135205
0.33031597
0.33019725
0.33110382
0.43100576
0.43274695
0.43221935
0.42597454
0.41966516
0.41336542
0.40722153
0.40098686
0.39446431
0.38762567
0.38055034
0.37338101
0.36631255
0.35947673
0.35297439
0.34693679
0.34149265
0.33678001
0.33289838
0.32989232
0.32778734
0.3266481
0.32654488
0.32756186
0.42108747
0.4320332
0.43199312
0.42630472
0.41947678
0.41236686
0.40524561
0.39803949
0.39069288
0.38328887
0.37592838
0.36873381
0.36186236
0.35539137
0.34943533
0.34407733
0.33933098
0.33529721
0.33206166
0.32964281
0.32806482
0.32737013
0.32762651
0.32894656
0.42048408
0.43622246
0.43674536
0.43146168
0.42420039
0.41653383
0.40872177
0.40079404
0.3928633
0.38501344
0.3774441
0.37022017
0.36347266
0.35729372
0.35171993
0.34682894
0.34261701
0.3391526
0.33647216
0.33455839
0.33344121
0.33313362
0.3337009
0.33529307
0.42379699
0.44305451
0.44415896
0.43919938
0.43157997
0.42335295
0.41502474
0.40664749
0.39837392
0.39034321
0.38271345
0.37560727
0.36911329
0.36332336
0.35822845
0.3538525
0.35023217
0.34739711
0.34537997
0.34411722
0.34357968
0.34379946
0.3448159
0.34684501
0.43063697
0.45328839
0.45484288
0.45015066
0.44223802
0.43358112
0.4249473
0.41647187
0.40819689
0.40035183
0.3930168
0.38641104
0.38057381
0.37553522
0.3713413
0.36789001
0.36529019
0.36347707
0.36251224
0.36228859
0.36265331
0.36368572
0.36528921
0.36785189
0.44902834
0.48162524
0.48352457
0.4781047
0.46838075
0.45807157
0.44801694
0.43864645
0.42971027
0.42143292
0.41395139
0.4074313
0.40198309
0.39749919
0.39406368
0.39143094
0.38976157
0.38888317
0.38889944
0.38963388
0.39084531
0.39274224
0.39494703
0.39819778
0.47186627
0.49625752
0.49215303
0.48314869
0.47164597
0.46003612
0.44889589
0.43869411
0.42915408
0.42045985
0.41254779
0.40559357
0.39955084
0.39435189
0.39009451
0.38646112
0.38371099
0.38157471
0.38021476
0.37949216
0.37923481
0.37970636
0.38067389
0.38289769
0.46922738
0.44881259
0.44315681
0.43508393
0.42951497
0.42396139
0.41810191
0.41160416
0.40454052
0.39712316
0.3896101
0.38223914
0.37516117
0.36846108
0.362187
0.35643626
0.3512887
0.34673798
0.34276268
0.33939859
0.33673788
0.33485112
0.33387211
0.33403789
0.45038629
0.44009676
0.43817837
0.43070466
0.42416198
0.41780555
0.41157018
0.40505646
0.39812467
0.39079028
0.38325433
0.37574996
0.36844429
0.36149755
0.35501587
0.34913194
0.34396207
0.3395457
0.33593228
0.33317462
0.3312883
0.33028574
0.33020897
0.33115537
0.4363536
0.44283687
0.4412365
0.43378956
0.42551954
0.4170997
0.40882955
0.40058666
0.39239356
0.38430186
0.37646722
0.36902397
0.36211707
0.3558201
0.35015255
0.34519969
0.34098037
0.33754292
0.33492017
0.33312361
0.33215873
0.33202357
0.33275759
0.33450243
0.43561597
0.45116378
0.4490381
0.44155482
0.43217998
0.42253583
0.4130005
0.40363066
0.39452686
0.38577399
0.37756655
0.3699611
0.36306778
0.35694559
0.35158179
0.34701461
0.34324051
0.34031438
0.33825191
0.3370323
0.33666597
0.33714519
0.33849397
0.34090793
0.44151383
0.46120357
0.4584804
0.45071804
0.44070733
0.43022855
0.4200008
0.4100601
0.40046939
0.3914125
0.38299681
0.37537816
0.36858213
0.36265922
0.35758159
0.35332651
0.34995569
0.34744548
0.34584598
0.34509115
0.34513008
0.34601205
0.34771132
0.35052657
0.45206993
0.47329366
0.47011581
0.46209947
0.45182363
0.44102454
0.43050748
0.42051011
0.41091026
0.40202147
0.39381586
0.38656781
0.38021127
0.37474029
0.37021394
0.366462
0.3636511
0.36161456
0.36045165
0.36006955
0.36032385
0.36135275
0.36303076
0.36585961
0.47187102
0.49625944
0.49213044
0.48314206
0.47164553
0.46003638
0.44889638
0.43868598
0.42913438
0.42042449
0.41249791
0.40553916
0.39950582
0.39432279
0.39008115
0.3864545
0.38370236
0.38156094
0.38019853
0.37948138
0.37923144
0.37970734
0.38068312
0.38292603
0.49002364
0.48829051
0.48008526
0.4704762
0.4614363
0.45225376
0.44370661
0.43561938
0.42768042
0.42046567
0.41314414
0.40640655
0.39998421
0.39407117
0.38888732
0.38410435
0.38015143
0.37672678
0.37402298
0.37188897
0.37018969
0.36909966
0.36854507
0.36906262
0.39769065
0.39305403
0.38957692
0.38685672
0.38470446
0.38302665
0.38188539
0.38142936
0.38165805
0.38268569
0.38450618
0.38722576
0.39092019
0.39562613
0.40142849
0.40835576
0.416239
0.42510654
0.43480973
0.4455054
0.45741184
0.4726165
0.48359989
0.53222616
0.37334981
0.36991249
0.36752848
0.36585751
0.36480496
0.36426191
0.36430051
0.36499121
0.36628913
0.36830866
0.37092038
0.37428562
0.37833903
0.38313139
0.38872619
0.39502132
0.40215108
0.40997006
0.41852846
0.42786329
0.43806564
0.44993219
0.45905104
0.47995041
0.3579713
0.35524633
0.35350462
0.3524576
0.35205903
0.35220648
0.35295334
0.35433122
0.35626293
0.35887027
0.36200775
0.36576775
0.37010114
0.37501492
0.38058319
0.38668887
0.39341512
0.40065548
0.40841295
0.41667123
0.42546507
0.4349013
0.44296228
0.4504334
0.34898307
0.34692293
0.34581587
0.34541403
0.34568614
0.34655798
0.34804664
0.35018735
0.35288443
0.35619864
0.36002619
0.36435215
0.36919359
0.37446021
0.3801927
0.38629697
0.39273916
0.39948724
0.40646719
0.41369342
0.42112735
0.4284501
0.43499125
0.43393565
0.34420238
0.34289148
0.34257723
0.34302371
0.34417716
0.34600115
0.3484623
0.35158654
0.35529366
0.35953023
0.36423321
0.36930698
0.37476786
0.38049328
0.38641687
0.39246163
0.39850515
0.40455585
0.41053345
0.41650374
0.42243113
0.42773721
0.43199213
0.42538693
0.34221179
0.34191058
0.34276469
0.34451027
0.34703418
0.35030873
0.3542544
0.35883645
0.36398792
0.36956047
0.37547166
0.38163279
0.38793366
0.39424331
0.40039143
0.40621669
0.41156891
0.41638118
0.42067348
0.42462874
0.42827602
0.43144689
0.43248439
0.42480869
0.34130737
0.34299932
0.34595331
0.34991753
0.35472272
0.3602709
0.36646362
0.37323499
0.38046852
0.38798985
0.39564061
0.40330669
0.41087032
0.41812113
0.42474632
0.43040016
0.43484489
0.43785743
0.43946895
0.4401214
0.44001623
0.44061658
0.43869522
0.43389996
0.34330211
0.34868413
0.35528922
0.3626721
0.37073294
0.3794235
0.3886392
0.39826101
0.40814835
0.41814131
0.42804563
0.43761023
0.44654872
0.45466823
0.46152396
0.46656052
0.46923738
0.46913317
0.4664347
0.46209219
0.45684431
0.45464504
0.45034246
0.4508188
0.35920075
0.35776082
0.35738726
0.35793449
0.35917217
0.36095922
0.36324801
0.36599953
0.36919356
0.3727991
0.37678591
0.38116356
0.38589705
0.39098249
0.3963943
0.40209565
0.408083
0.41427558
0.42069925
0.42740948
0.43475393
0.44405961
0.45770309
0.51166969
0.35471446
0.35303341
0.35240522
0.35269925
0.35371476
0.35532146
0.35746659
0.36009752
0.36319518
0.36671115
0.37061534
0.37489158
0.379504
0.38444599
0.38967763
0.39518048
0.40093023
0.40687307
0.4130154
0.41940449
0.42634788
0.43488755
0.4471277
0.48989023
0.35109675
0.34926196
0.34848619
0.34864499
0.3495544
0.35109248
0.35320423
0.35583371
0.35896085
0.36253695
0.36652741
0.37090524
0.37562396
0.38066494
0.38597434
0.39153038
0.39729882
0.40323182
0.40931672
0.41557721
0.42224836
0.43007494
0.44075754
0.47371912
0.34811908
0.3461835
0.34532765
0.34541935
0.34628373
0.34780192
0.34991857
0.35258254
0.35576944
0.35944201
0.36356192
0.36809982
0.37300828
0.37824938
0.38376692
0.38951296
0.39544429
0.40150554
0.40765867
0.4138996
0.42035224
0.42748132
0.43653189
0.46095456
0.34546481
0.34342802
0.34250499
0.34254439
0.34337028
0.34486712
0.3469765
0.34965957
0.35288934
0.35663276
0.36086248
0.36553873
0.3706324
0.37609352
0.38185797
0.38787296
0.3940582
0.40035871
0.40669252
0.41302473
0.41936887
0.42593329
0.43359555
0.4506593
0.34304424
0.34085026
0.33982081
0.33977542
0.34052273
0.34195465
0.34400833
0.34665323
0.34987106
0.35363517
0.35791881
0.36268984
0.36792491
0.37357441
0.3795885
0.38589733
0.39240579
0.39903554
0.40567095
0.41223854
0.41865307
0.42493643
0.4316915
0.44251501
0.34098657
0.33849595
0.33724146
0.33700628
0.337578
0.33883557
0.34071091
0.34319083
0.34627828
0.34995331
0.35419978
0.35898511
0.3642863
0.370074
0.37629611
0.38288846
0.38975294
0.39679298
0.40387527
0.4108691
0.41764645
0.4240798
0.43065888
0.43650745
0.33954869
0.33647182
0.33467971
0.334004
0.3342426
0.33526281
0.33697006
0.33932661
0.34232582
0.34594401
0.35016698
0.35496417
0.36031865
0.36621262
0.37261937
0.37950401
0.38679121
0.39436883
0.40205865
0.40967328
0.41702676
0.42391203
0.43085869
0.43315135
0.34328847
0.34868647
0.3553001
0.36268136
0.37073678
0.37942063
0.38862563
0.39823615
0.40811364
0.41809325
0.42798048
0.43753666
0.44646775
0.45458771
0.46145104
0.4664853
0.46916869
0.46907271
0.46638055
0.46204399
0.45681296
0.45462555
0.45032219
0.45081423
0.34122797
0.34293953
0.34589836
0.34985113
0.35463625
0.36015527
0.36631176
0.37305351
0.38026799
0.38780338
0.39549463
0.40320483
0.41078105
0.41802001
0.42463174
0.43030083
0.43474773
0.43772157
0.43927905
0.43990556
0.43979859
0.4404279
0.43855706
0.43383927
0.34214161
0.34186228
0.34270928
0.34442696
0.34691012
0.35013599
0.35403241
0.35857946
0.36370526
0.36927888
0.37522738
0.38143605
0.38775742
0.39406273
0.4002022
0.40600594
0.41133924
0.41611462
0.42034671
0.4242491
0.42785989
0.43106184
0.43217625
0.42467972
0.34416039
0.34287428
0.3425485
0.34295907
0.34405877
0.3458188
0.34821617
0.35128469
0.35495006
0.35917098
0.36389026
0.36900349
0.37449123
0.38021776
0.38613102
0.39217711
0.39821461
0.40422927
0.4101467
0.41604549
0.42194584
0.42728825
0.43160334
0.42521672
0.34895573
0.34691807
0.34579713
0.34535333
0.34555928
0.34635089
0.3477615
0.34983235
0.35247945
0.35576781
0.35959561
0.36394761
0.36882463
0.37411712
0.37986611
0.38599589
0.39244903
0.39916565
0.40608843
0.41324384
0.42065023
0.42799988
0.4345735
0.43372765
0.3579642
0.35525092
0.35348698
0.3523875
0.35190908
0.35196289
0.3526194
0.35391915
0.35579877
0.35837748
0.36151288
0.36529921
0.36968056
0.37464852
0.38026842
0.38642205
0.39316772
0.4003835
0.40807919
0.41627099
0.42502922
0.43446501
0.4425258
0.45016876
0.3733775
0.36993484
0.36751961
0.36578675
0.36464635
0.36400489
0.36395254
0.3645685
0.36581699
0.36781232
0.37042777
0.37382359
0.37793533
0.38280479
0.38847551
0.39482776
0.40197337
0.40977117
0.41825515
0.4275216
0.4376718
0.44949659
0.45858824
0.47959219
0.39775101
0.3930933
0.38957732
0.38679653
0.38456156
0.38279288
0.3815698
0.38104944
0.38123519
0.38224298
0.38407307
0.38683053
0.39059197
0.39538891
0.40127998
0.40825681
0.41615134
0.42500892
0.4346626
0.44530382
0.45714972
0.47230515
0.48322524
0.53188449
0.33954033
0.33646822
0.33467513
0.33399631
0.33423054
0.33524587
0.33694772
0.33929905
0.34229441
0.34591067
0.35013397
0.35493322
0.36028927
0.36618385
0.37259283
0.37948225
0.386775
0.39435782
0.4020509
0.40966726
0.41702283
0.4239113
0.43086054
0.43315254
0.34096923
0.33848591
0.33722805
0.33698493
0.33754573
0.33878969
0.34064929
0.34311411
0.34619175
0.3498649
0.35411853
0.35891481
0.36422307
0.37001381
0.37624174
0.38284651
0.38972765
0.39678119
0.40387055
0.4108675
0.41764839
0.42408732
0.43067136
0.43651812
0.34302083
0.34083526
0.33980078
0.33974358
0.34047393
0.34188419
0.34391301
0.34653367
0.34973516
0.35349539
0.35778898
0.36257556
0.36782031
0.37347452
0.3794986
0.3858259
0.39235606
0.39900371
0.40564866
0.41221881
0.41863717
0.42492865
0.43169359
0.44252272
0.34543771
0.34340951
0.34248062
0.34250544
0.34330911
0.34477754
0.34685447
0.34950539
0.35271108
0.35644554
0.3606841
0.36537888
0.37048712
0.37595871
0.38173784
0.38777448
0.39398267
0.40029838
0.40663753
0.41297113
0.41931987
0.42589498
0.43357215
0.45065508
0.34808898
0.34616091
0.34529865
0.34537366
0.34621138
0.3476955
0.34977381
0.35240015
0.35555782
0.35921689
0.36334416
0.3679042
0.37283575
0.378097
0.38363481
0.38940252
0.3953505
0.40141737
0.40756837
0.41380724
0.42026474
0.42740569
0.43647394
0.46092875
0.35106556
0.34923644
0.34845426
0.34859523
0.34947469
0.35097473
0.3530449
0.35563478
0.35873157
0.36229343
0.36629225
0.37069612
0.37544601
0.38051643
0.38585041
0.39142479
0.39719907
0.40312398
0.40919599
0.41544806
0.42212118
0.42995549
0.44065367
0.47365788
0.35468725
0.35300998
0.35237637
0.35265293
0.35363748
0.35520588
0.35731117
0.35990567
0.36297658
0.3664821
0.3703964
0.37469842
0.37934361
0.38431894
0.38957751
0.39509376
0.40083827
0.40675977
0.41287601
0.41924655
0.42618182
0.43471705
0.44696368
0.48977888
0.3591777
0.35773935
0.35736165
0.35789314
0.35910194
0.36085505
0.36311111
0.36583359
0.36900645
0.37260457
0.37659992
0.38099776
0.3857592
0.39087737
0.39631653
0.40202538
0.40799592
0.41415546
0.42054094
0.42722261
0.43454852
0.443838
0.45747644
0.51150156
0.39775488
0.39309292
0.38957462
0.38679179
0.38455592
0.38278861
0.38156944
0.38105334
0.38124102
0.38224759
0.38407266
0.38682469
0.39058386
0.39538144
0.401275
0.40825478
0.41614712
0.42500524
0.43466084
0.44530621
0.45716133
0.47232357
0.48324493
0.5319164
0.37341456
0.36994921
0.36751607
0.36576974
0.36461924
0.36397293
0.36392124
0.3645405
0.36579118
0.36778378
0.37039041
0.37377491
0.37788371
0.38276342
0.38844996
0.39481105
0.40195618
0.40974813
0.41823529
0.42750578
0.43765696
0.44948126
0.45857777
0.47959386
0.35800193
0.35526055
0.35347584
0.35235893
0.35186871
0.35191886
0.35257781
0.35388259
0.35576522
0.35833893
0.3614595
0.3652254
0.36959946
0.37458417
0.38023116
0.38639801
0.39314046
0.40034775
0.40804405
0.4162439
0.42500417
0.4344368
0.44250365
0.45013429
0.34899846
0.34693399
0.34579632
0.34533893
0.34553811
0.34633104
0.34774652
0.34982201
0.35246688
0.35573829
0.35953089
0.36383972
0.36869394
0.37399537
0.37977035
0.38591166
0.3923559
0.39906026
0.40598501
0.41315698
0.42058086
0.42794161
0.43452785
0.43366818
0.34421989
0.34290943
0.34257284
0.34297598
0.34407297
0.3458359
0.34823657
0.35130472
0.35495784
0.35914282
0.36379898
0.36884192
0.37428474
0.38000406
0.38593483
0.39199079
0.39802219
0.4040248
0.40994769
0.41587592
0.42181471
0.42719075
0.43153342
0.42514935
0.34221641
0.34191458
0.34274997
0.34445995
0.34693984
0.35016668
0.3540645
0.35860545
0.36370923
0.36922979
0.3750952
0.38121422
0.38747098
0.39375302
0.39989561
0.40570687
0.41103356
0.41579569
0.42004069
0.42397972
0.42764483
0.43089934
0.43205672
0.4245881
0.34129302
0.3429826
0.34592566
0.34986938
0.35464988
0.36016868
0.3663272
0.37306466
0.38025831
0.38773389
0.39533071
0.40294236
0.41045769
0.41767714
0.4242838
0.4299379
0.43436726
0.43733829
0.43891312
0.43956775
0.43950617
0.44019553
0.4383793
0.43372056
0.34330358
0.3486912
0.35529623
0.36267693
0.37073413
0.37941601
0.38861652
0.39821837
0.40807463
0.41800687
0.42782808
0.43732614
0.4462232
0.45433274
0.46118522
0.46620066
0.46885932
0.46873902
0.46603637
0.46171118
0.45651169
0.45437481
0.4501353
0.45070187
0.35917596
0.35773491
0.35735625
0.35788698
0.35909565
0.36085027
0.36310932
0.36583454
0.3690077
0.37260315
0.37659374
0.3809875
0.38574889
0.39087173
0.39631762
0.40203118
0.40800217
0.41416008
0.42054374
0.42722384
0.43454805
0.44383575
0.45747232
0.51149675
0.35469729
0.35301375
0.35237712
0.35265109
0.3536348
0.3552058
0.35731647
0.35991551
0.36298659
0.36648606
0.37038894
0.37468071
0.37932508
0.38431074
0.38958328
0.39510593
0.40084659
0.40675916
0.41286804
0.41923399
0.42616556
0.43469688
0.44694039
0.48975712
0.35108307
0.3492444
0.34845863
0.34859719
0.34947663
0.3509809
0.35305827
0.35565428
0.3587515
0.36230447
0.36628575
0.37067347
0.37542126
0.38050472
0.3858551
0.3914331
0.39719534
0.40310252
0.40916163
0.41540839
0.42207997
0.4299134
0.4406121
0.47362226
0.34810893
0.34616871
0.34530319
0.34537718
0.34621644
0.34770603
0.34979236
0.35242532
0.3555828
0.35922946
0.36333298
0.36787097
0.37279737
0.37807014
0.38362026
0.38938404
0.39530996
0.40135037
0.40748527
0.41372205
0.42018569
0.42733488
0.43641271
0.46087947
0.34545785
0.34341651
0.34248553
0.34251104
0.34331751
0.34479197
0.34687719
0.34953487
0.35273935
0.35645815
0.36066796
0.36533592
0.37043527
0.37591293
0.38169472
0.3877159
0.39389181
0.40017538
0.40649808
0.41283485
0.41919878
0.42579296
0.43349066
0.45059495
0.34304035
0.3408425
0.33980712
0.3397517
0.34048528
0.34190137
0.34393826
0.34656548
0.3497646
0.3535072
0.35776971
0.36252729
0.36775986
0.37341344
0.37942832
0.38572793
0.39221876
0.39883284
0.40546282
0.41204051
0.41848016
0.42479865
0.43159384
0.44245458
0.34098733
0.33849394
0.33723568
0.33699449
0.33755824
0.33880722
0.340674
0.34314465
0.34621908
0.34987403
0.35409748
0.35886613
0.36416041
0.36994346
0.37615362
0.3827251
0.38956638
0.39658981
0.40366802
0.41067362
0.41747668
0.42394485
0.43056332
0.43644821
0.33955421
0.33647606
0.33468189
0.33400361
0.33423922
0.33525699
0.33696263
0.33931643
0.34230603
0.34590411
0.35010199