/*--------------------------------*- C++ -*----------------------------------*\
| =========                 |                                                 |
| \\      /  F ield         | foam-extend: Open Source CFD                    |
|  \\    /   O peration     | Version:     4.1-20200408                       |
|   \\  /    A nd           | Web:         http://www.foam-extend.org         |
|    \\/     M anipulation  |                                                 |
\*---------------------------------------------------------------------------*/
FoamFile
{
    version     2.0;
    format      ascii;
    class       regIOobject;
    location    "0.0755000/uniform";
    object      profilingInfo;
}
// * * * * * * * * * * * * * * * * * * * * * * * * * * * * * * * * * * * * * //

profilingInfo
(

    {
        id              10;
        parentId        9;
        description     "Foam::Time::writeObject - outputTime";
        calls           5324;
        totalTime       698.975;
        childTime       0;
        onStack         1;
    }

    {
        id              9;
        parentId        1;
        description     "Foam::Time::writeObject";
        calls           5324;
        totalTime       698.99;
        childTime       698.975;
        onStack         1;
    }

    {
        id              1;
        description     "application::main";
        calls           1;
        totalTime       144492;
        childTime       14077.4;
        onStack         1;
    }

    {
        id              8;
        parentId        1;
        description     "FO::drawingForce::execute";
        calls           5323;
        totalTime       0.344159;
        childTime       0;
        onStack         0;
    }

    {
        id              3;
        parentId        2;
        description     "FO::drawingForce::start";
        calls           1;
        totalTime       4.3e-05;
        childTime       0;
        onStack         0;
    }

    {
        id              2;
        parentId        1;
        description     "functionObjectList::read";
        calls           1;
        totalTime       0.000281;
        childTime       4.3e-05;
        onStack         0;
    }

    {
        id              4;
        parentId        1;
        description     "fvMatrix::solve_DU";
        calls           5115006;
        totalTime       13378.1;
        childTime       11765.9;
        onStack         0;
    }

    {
        id              5;
        parentId        4;
        description     "lduMatrix::solver_DUx";
        calls           5115006;
        totalTime       8493.58;
        childTime       0;
        onStack         0;
    }

    {
        id              6;
        parentId        4;
        description     "lduMatrix::solver_DUy";
        calls           5115006;
        totalTime       2712.97;
        childTime       0;
        onStack         0;
    }

    {
        id              7;
        parentId        4;
        description     "lduMatrix::solver_DUz";
        calls           5115006;
        totalTime       559.314;
        childTime       0;
        onStack         0;
    }
);


// ************************************************************************* //
