/*--------------------------------*- C++ -*----------------------------------*\
  =========                 |
  \\      /  F ield         | OpenFOAM: The Open Source CFD Toolbox
   \\    /   O peration     | Website:  https://openfoam.org
    \\  /    A nd           | Version:  8
     \\/     M anipulation  |
\*---------------------------------------------------------------------------*/
FoamFile
{
    version     2.0;
    format      ascii;
    class       surfaceScalarField;
    location    "0.0485000";
    object      phi;
}
// * * * * * * * * * * * * * * * * * * * * * * * * * * * * * * * * * * * * * //

dimensions      [0 3 -1 0 0 0 0];

internalField   nonuniform List<scalar> 
1094
(
1.0441047171413e-09
1.21296387637698e-11
1.03194063188332e-09
1.25557450234212e-11
1.0196051650502e-09
1.28103229530705e-11
1.00696921371202e-09
1.31673561616774e-11
9.94158025135537e-10
1.33820463343521e-11
9.81278989434279e-10
1.34866653375002e-11
9.68389939798578e-10
1.35402270645755e-11
9.55507235632642e-10
1.35715449423756e-11
9.42631916726747e-10
1.35923272463828e-11
9.29765498097086e-10
1.36102189861257e-11
9.16913102508415e-10
1.36293001037784e-11
9.04070821441799e-10
1.36477015206322e-11
8.912352832081e-10
1.36638434703097e-11
8.7840642786866e-10
1.36796131458685e-11
8.65590027613485e-10
1.36965692681351e-11
8.52783118182977e-10
1.37117485806217e-11
8.39983711038311e-10
1.37254717433114e-11
8.27191060283563e-10
1.37400643598383e-11
8.14410741802366e-10
1.37569442255358e-11
8.01639197214276e-10
1.37729100292992e-11
7.88875396856839e-10
1.37870036922173e-11
7.76118597537754e-10
1.38020093947097e-11
7.63375037155917e-10
1.38207323268596e-11
7.50640368777949e-10
1.38386503720785e-11
7.3791386830443e-10
1.38551031609233e-11
7.25194665573579e-10
1.3872801158849e-11
7.12492271447609e-10
1.38949280789103e-11
6.9979946271121e-10
1.39162536772419e-11
6.87116419902361e-10
1.39367310537582e-11
6.74440933863028e-10
1.39606676835626e-11
6.6178521717964e-10
1.39926520153272e-11
6.49140220203383e-10
1.40225036366845e-11
6.36508162571778e-10
1.4051001912688e-11
6.23885509908682e-10
1.40852864257465e-11
6.11291719134192e-10
1.41332855074307e-11
5.98709881796658e-10
1.41791366633961e-11
5.86144267579865e-10
1.42255227089632e-11
5.73592667298147e-10
1.42830720329409e-11
5.61080033180917e-10
1.43613657462566e-11
5.48585274108747e-10
1.44369923765662e-11
5.36112881740929e-10
1.45170046999911e-11
5.23663390202783e-10
1.46189733602201e-11
5.11270629809426e-10
1.47521580089309e-11
4.9890745201488e-10
1.48817095745287e-11
4.86578563414537e-10
1.50207122176593e-11
4.74289432352085e-10
1.5201567145941e-11
4.62086771786616e-10
1.54346034520981e-11
4.49930285339892e-10
1.56589098002353e-11
4.37825006386019e-10
1.59032794776969e-11
4.2579774491078e-10
1.62287274503917e-11
4.13902117662563e-10
1.66293687452067e-11
4.02084188765165e-10
1.70142679404607e-11
3.90341759577772e-10
1.74438344309485e-11
3.78756921297852e-10
1.80284547427019e-11
3.67360655498256e-10
1.87038518148234e-11
3.56100378487276e-10
1.9359518858474e-11
3.44956466125907e-10
2.01040295336436e-11
3.34108481996155e-10
2.11304580406196e-11
3.23523616774042e-10
2.23004213152505e-11
3.13268698332516e-10
2.35837470933632e-11
3.03225331653111e-10
2.53270040542039e-11
2.94284136022188e-10
2.84123300954355e-11
2.86399807341455e-10
3.21966891475287e-11
2.79529941182862e-10
3.62105352506921e-11
2.73243434931542e-10
4.11144994051445e-11
2.69521560617888e-10
4.78148768651114e-11
2.6639843938704e-10
5.30765664252532e-11
2.64251820542865e-10
5.77869724922503e-11
2.63206547896318e-10
6.30020396199541e-11
2.63970480751397e-10
6.83451005841466e-11
2.65217286495917e-10
7.21570855876351e-11
2.67125486074792e-10
7.53733954754489e-11
2.70193720721367e-10
7.83939622403475e-11
2.73583843003775e-10
8.01530416746295e-11
2.77073404397043e-10
8.08329811042151e-11
2.80995053232431e-10
8.06499149538711e-11
2.84307979845079e-10
7.90782821204194e-11
2.87155108984033e-10
7.66889980468586e-11
2.89799351605739e-10
7.35448713326917e-11
2.91442020187036e-10
6.8934478174944e-11
2.91085436946887e-10
6.32806163190343e-11
2.90034272227188e-10
5.75770052147143e-11
2.88808060141081e-10
5.1002783644486e-11
2.83310246253344e-10
4.28667892354407e-11
2.76731293833857e-10
3.58424165689739e-11
2.71511887935858e-10
2.68943477059476e-11
2.73084185146921e-10
1.06015045304739e-11
2.73454337913064e-10
4.32543025169899e-12
2.73226767801989e-10
5.77921779650491e-13
2.72356553175236e-10
-2.73602114278453e-12
2.70108010151424e-10
-5.1023479267147e-12
2.68094895646487e-10
-6.66190453462085e-12
2.65886767489559e-10
-7.60880390722547e-12
2.63302017805103e-10
-8.27516658873571e-12
2.60749411988361e-10
-8.62578370785951e-12
2.58162062832708e-10
-8.71795356039663e-12
2.55501472691484e-10
-8.55871041890449e-12
2.52943581544657e-10
-8.03833129055416e-12
2.50084229140398e-10
-6.81390184223218e-12
-2.78498403914327e-12
2.63991727663444e-10
1.25980145043645e-11
2.62702056424235e-10
1.39583356725123e-11
2.60011797981411e-10
1.56133095356639e-11
2.56444977983956e-10
1.68467163541706e-11
2.52457140780694e-10
1.74822380662524e-11
2.48305943488418e-10
1.77500309972163e-11
2.44109235280208e-10
1.78489123302424e-11
2.39910663331755e-10
1.78818951023987e-11
2.35722254703134e-10
1.7892313058063e-11
2.31547095430483e-10
1.78967601460525e-11
2.27386544654554e-10
1.79010439406646e-11
2.23239574356929e-10
1.79056762320676e-11
2.19104504133669e-10
1.790972329439e-11
2.14981333370526e-10
1.79133911313935e-11
2.10871272022921e-10
1.79170336066573e-11
2.06773624041182e-10
1.79196007861044e-11
2.02687472098093e-10
1.79216349347385e-11
1.98613140966845e-10
1.7924213254514e-11
1.94551904696364e-10
1.79277986287239e-11
1.90503179957084e-10
1.7931049105934e-11
1.86466072583822e-10
1.79333242112274e-11
1.82441031986493e-10
1.79360696664393e-11
1.78429716536793e-10
1.79408791887017e-11
1.74431441377612e-10
1.79455595837179e-11
1.70445421723503e-10
1.79495446714657e-11
1.66472424578167e-10
1.79540056738735e-11
1.62514657034421e-10
1.79606937812059e-11
1.58571180831301e-10
1.79675225597233e-11
1.54641220935071e-10
1.79742787040163e-11
1.50725899145229e-10
1.79833725841324e-11
1.4682831166766e-10
1.79974195327824e-11
1.42947279701346e-10
1.80105023140518e-11
1.39082288616917e-10
1.80227349901876e-11
1.35235343697212e-10
1.80387534926127e-11
1.3141117088066e-10
1.80637553582038e-11
1.27607684129973e-10
1.80886759868617e-11
1.23824793159638e-10
1.81142190520033e-11
1.20066241940259e-10
1.81471864545228e-11
1.16338642660329e-10
1.81942648544473e-11
1.12639664492792e-10
1.824097228306e-11
1.08970082231878e-10
1.82912753021032e-11
1.05336582321927e-10
1.83568451151835e-11
1.01748845060241e-10
1.84439322735514e-11
9.82044044269541e-11
1.8529808322912e-11
9.47054913431012e-11
1.86228758172422e-11
9.1263691832522e-11
1.87462101669882e-11
8.78932491091832e-11
1.89074363985044e-11
8.45907060669548e-11
1.90633001480656e-11
8.13619080568944e-11
1.92333616377516e-11
7.82285281341209e-11
1.94628547137395e-11
7.52098120639859e-11
1.97482096585177e-11
7.23014496638773e-11
2.00219736188421e-11
6.9516238179689e-11
2.03275163140434e-11
6.6893576543239e-11
2.07486678721369e-11
6.44553440666119e-11
2.12385870567046e-11
6.21990130800583e-11
2.17110343571891e-11
6.01503760826781e-11
2.22463196714471e-11
5.83795176729397e-11
2.29934317469873e-11
5.69260617065198e-11
2.38441561643749e-11
5.5844656001631e-11
2.47526582934664e-11
5.52934834843715e-11
2.5961975184346e-11
5.56206645508987e-11
2.81645625740371e-11
5.6998609006153e-11
3.08920814429899e-11
5.9505990506412e-11
3.37683818970491e-11
6.33340116567918e-11
3.73431019075586e-11
6.88217159949837e-11
4.2374393201883e-11
7.56717306110555e-11
4.62624056336207e-11
8.37872154326275e-11
4.96953955662385e-11
9.32488877031058e-11
5.35533732316908e-11
1.04061737915575e-10
5.75341600162835e-11
1.15903528018312e-10
6.0304774754889e-11
1.28620316716216e-10
6.26337394905815e-11
1.42122423912885e-10
6.48577213770334e-11
1.56118529001511e-10
6.61121368460933e-11
1.7033841747163e-10
6.65580979711061e-11
1.84551061595256e-10
6.63729283917973e-11
1.98419876232193e-10
6.51367461528556e-11
2.11730636313993e-10
6.32982963910174e-11
2.24282885963755e-10
6.09060314890561e-11
2.35707750627384e-10
5.74162352845247e-11
2.45718648334309e-10
5.31708592935783e-11
2.54343790020118e-10
4.88498139757659e-11
2.6136162165502e-10
4.38802663073169e-11
2.66247549259959e-10
3.78729503843371e-11
2.69142257711072e-10
3.28377131082749e-11
2.70585411501697e-10
2.53401988299296e-11
2.73309207294783e-10
7.76524182599548e-12
2.74402954425759e-10
3.11781568624669e-12
2.74287459121607e-10
5.78760112270551e-13
2.73278541644229e-10
-1.84228098617228e-12
2.71514610393553e-10
-3.45376791324858e-12
2.69344846312358e-10
-4.60716192059177e-12
2.66912534585561e-10
-5.29170788144837e-12
2.6427033335525e-10
-5.74895433235891e-12
2.61528357738998e-10
-6.00053828106172e-12
2.58756976704491e-10
-6.06374854419443e-12
2.56016485079504e-10
-5.93514186938181e-12
2.53389529924972e-10
-5.52808759033805e-12
2.50958289853105e-10
-4.49976092134229e-12
-1.55127243582385e-12
-2.79318758331231e-10
6.42769890484512e-12
-2.73777262171651e-10
8.53318741958535e-12
-2.70124033571817e-10
1.20761949519826e-11
-2.67399172524062e-10
1.4237739156862e-11
-2.65048016510989e-10
1.52467379514582e-11
-2.62830988603779e-10
1.56484305830074e-11
-2.60651746976657e-10
1.57848647524327e-11
-2.58475775399446e-10
1.58208763165619e-11
-2.56293254657195e-10
1.58245013673837e-11
-2.54101758570376e-10
1.58197353279337e-11
-2.51900471536176e-10
1.58139970593447e-11
-2.49689718305325e-10
1.58089322543248e-11
-2.47470376940186e-10
1.58041540787522e-11
-2.45242580287529e-10
1.57991219823336e-11
-2.43005979265312e-10
1.57937136981273e-11
-2.4076102857854e-10
1.57876903775482e-11
-2.38508190348396e-10
1.57816019307649e-11
-2.36247152898697e-10
1.57757453323474e-11
-2.33977273313772e-10
1.57702467743992e-11
-2.31698794375612e-10
1.57646518156262e-11
-2.29412313711437e-10
1.57586818015937e-11
-2.27117475071531e-10
1.57528344529514e-11
-2.24813239529279e-10
1.57480173549348e-11
-2.22499828357448e-10
1.57432825838905e-11
-2.20177766428719e-10
1.57383624019247e-11
-2.17846568780269e-10
1.57334308276061e-11
-2.1550501245792e-10
1.57295094350958e-11
-2.13153289735935e-10
1.57259247865661e-11
-2.10791800065601e-10
1.57226667834301e-11
-2.08419431953208e-10
1.57206358653067e-11
-2.06034061397237e-10
1.57214358030731e-11
-2.03636223514535e-10
1.57217960475061e-11
-2.012264741867e-10
1.57218506683802e-11
-1.98802935324014e-10
1.57238177019589e-11
-1.96362083585803e-10
1.57312398879583e-11
-1.93904483315748e-10
1.57391260301757e-11
-1.91430255347922e-10
1.57477522442884e-11
-1.8893598045256e-10
1.57603877425866e-11
-1.86416387943023e-10
1.57818424960904e-11
-1.83872163180214e-10
1.58035767710836e-11
-1.81302431320749e-10
1.58280161119903e-11
-1.78700829761496e-10
1.58613575817574e-11
-1.76059404877518e-10
1.59082434019919e-11
-1.73379032300762e-10
1.59547490857242e-11
-1.70657445043189e-10
1.6006153408716e-11
-1.67882923433726e-10
1.60761033403317e-11
-1.65042433318194e-10
1.61708569194734e-11
-1.6213802001397e-10
1.62622067187678e-11
-1.59164275497813e-10
1.63623399834899e-11
-1.5609920608456e-10
1.64999329160889e-11
-1.52924083256793e-10
1.66745551312364e-11
-1.49642595775453e-10
1.6841120162348e-11
-1.46242188115331e-10
1.70268381724516e-11
-1.42682438682937e-10
1.7287682370955e-11
-1.38940380224515e-10
1.75941837889608e-11
-1.35020613580743e-10
1.78875598235938e-11
-1.30897631926783e-10
1.82180625448431e-11
-1.26499444149112e-10
1.86883668065854e-11
-1.21787188950782e-10
1.9223104418733e-11
-1.16729864307497e-10
1.97837001336303e-11
-1.11190497482749e-10
2.05072356136583e-11
-1.04824458017369e-10
2.1878659908855e-11
-9.74482766571409e-11
2.35898341949028e-11
-8.90006277063424e-11
2.53865437521108e-11
-7.92326985155755e-11
2.76322636979784e-11
-6.7730680695965e-11
3.09198921894416e-11
-5.48340736928966e-11
3.3401869217469e-11
-4.06911012985425e-11
3.55764965861719e-11
-2.51710926029075e-11
3.80463949907964e-11
-8.25781782394257e-12
4.06226659668059e-11
9.67002517767496e-12
4.23662094672214e-11
2.84519814136543e-11
4.38286245570275e-11
4.80244318660198e-11
4.52507570500231e-11
6.80687617396593e-11
4.60225461582759e-11
8.83017600150023e-11
4.62695821344176e-11
1.08488337961055e-10
4.61214722588179e-11
1.28277052248822e-10
4.52747119730051e-11
1.47448051999287e-10
4.40467005218291e-11
1.65796389426544e-10
4.24705577971649e-11
1.82939089593576e-10
4.01795669934611e-11
1.98623509757617e-10
3.73868113533452e-11
2.1279243143904e-10
3.45787708250002e-11
2.25270675874568e-10
3.12981929395604e-11
2.35556051670807e-10
2.74802167339266e-11
2.44051787207596e-10
2.42316142969925e-11
2.49569137263146e-10
1.97115327724348e-11
2.52716717134093e-10
4.50508377125321e-12
2.53548624007776e-10
2.17199292896477e-12
2.5349165625555e-10
5.21453888855654e-13
2.52439784859957e-10
-9.05387756765219e-13
2.50786708090978e-10
-1.91628155876227e-12
2.48682702506315e-10
-2.61853571651359e-12
2.46322676497129e-10
-3.04710712449001e-12
2.43778281305519e-10
-3.32065505145903e-12
2.41136564313283e-10
-3.47565816985828e-12
2.38468567168085e-10
-3.51299393794143e-12
2.35845367791362e-10
-3.42915518750343e-12
2.33370506819829e-10
-3.1703718900695e-12
2.31262520783146e-10
-2.50933589726022e-12
-6.87479300949537e-13
-5.62351659607285e-10
-1.02350875865338e-12
-5.55929859087599e-10
2.23107507783481e-12
-5.50074236960865e-10
6.33998624331026e-12
-5.44332766042372e-10
8.61541135941728e-12
-5.38567639653624e-10
9.60048664171485e-12
-5.32772783835522e-10
9.97218133602871e-12
-5.26961640995336e-10
1.00920548012215e-11
-5.21142847377537e-10
1.01201338649768e-11
-5.15320322903853e-10
1.01197437643544e-11
-5.09495396781855e-10
1.01122978871337e-11
-5.0366818414433e-10
1.01040017744896e-11
-4.97838635555814e-10
1.00963299336926e-11
-4.92006935236695e-10
1.00891225920575e-11
-4.86173246087046e-10
1.00818165137833e-11
-4.8033763997087e-10
1.00742043605973e-11
-4.74500420343776e-10
1.00662863548919e-11
-4.68661704770386e-10
1.00584267195312e-11
-4.62821335524184e-10
1.00506405162726e-11
-4.56979051363591e-10
1.00429448449197e-11
-4.51134940104019e-10
1.00352362085383e-11
-4.45289253106073e-10
1.00274066889345e-11
-4.39441836538507e-10
1.00195548627662e-11
-4.33592098540888e-10
1.00121466448971e-11
-4.27740058336781e-10
1.00048298568638e-11
-4.21885905131661e-10
9.99750152981827e-12
-4.16029503001436e-10
9.99002353591812e-12
-4.10170219188125e-10
9.98292920627636e-12
-4.04307952998738e-10
9.97607483342495e-12
-3.98442655145106e-10
9.96949762170719e-12
-3.92573592679168e-10
9.96341545531848e-12
-3.86699328918506e-10
9.95872933059708e-12
-3.80820098792177e-10
9.95382756025925e-12
-3.74936098028726e-10
9.94880429852993e-12
-3.6904613002337e-10
9.944501643423e-12
-3.6314755496127e-10
9.94300941601467e-12
-3.57240266543673e-10
9.94185541834616e-12
-3.51323957775043e-10
9.94113126160525e-12
-3.45396291682049e-10
9.94208365866889e-12
-3.39453110313293e-10
9.9476758559773e-12
-3.33494318427962e-10
9.95341684866913e-12
-3.27518647034655e-10
9.96057813706727e-12
-3.21521325656417e-10
9.97186931839614e-12
-3.15495953903402e-10
9.99028485551218e-12
-3.09442589836034e-10
1.0008332930252e-11
-3.03358744643144e-10
1.00287650023416e-11
-2.97234933601002e-10
1.00582564717584e-11
-2.91059841361243e-10
1.01011809056709e-11
-2.84834590053124e-10
1.01417362113117e-11
-2.78554312498602e-10
1.01862029899568e-11
-2.72200509803082e-10
1.0249653048226e-11
-2.65756370781647e-10
1.03332145739703e-11
-2.59224669326325e-10
1.0411336036193e-11
-2.52594790686003e-10
1.0497926681202e-11
-2.45831218440321e-10
1.06240662259892e-11
-2.38912826108585e-10
1.07745905118227e-11
-2.31844074451358e-10
1.09161926163192e-11
-2.2460417584903e-10
1.10739296055824e-11
-2.17128117924578e-10
1.13064226624717e-11
-2.09382937240116e-10
1.15700625403754e-11
-2.01350663433492e-10
1.18406621253544e-11
-1.92931859052091e-10
1.21738564140363e-11
-1.8382195644625e-10
1.28496161083777e-11
-1.73855795468601e-10
1.36982333160789e-11
-1.6298356189707e-10
1.45806384413374e-11
-1.50973330108026e-10
1.56795400436529e-11
-1.3739341999679e-10
1.73878057428277e-11
-1.22583261752174e-10
1.86279636321329e-11
-1.06691043585443e-10
1.97084250196135e-11
-8.95833149392559e-11
2.09516779481462e-11
-7.12305543291327e-11
2.22715650916778e-11
-5.20050220803865e-11
2.31297259042954e-11
-3.20499316231964e-11
2.38500553856442e-11
-1.14035085176054e-11
2.4569420568223e-11
9.63393740299349e-12
2.49393618618706e-11
3.08059381749453e-11
2.50415206459853e-11
5.19090662258445e-11
2.49528729134999e-11
7.26161949713382e-11
2.44936189484389e-11
9.27342873231408e-11
2.38473276406652e-11
1.12088253035678e-10
2.30287603086922e-11
1.30326159111265e-10
2.18469949286629e-11
1.47220762600821e-10
2.03918698903824e-11
1.62723879581883e-10
1.89729112635575e-11
1.76682903922634e-10
1.72350967658723e-11
1.88652247704553e-10
1.54032207050126e-11
1.99127166806167e-10
1.36456702351951e-11
2.06613433200879e-10
1.21133997924289e-11
2.09216364347253e-10
1.78917714216514e-12
2.09770956140891e-10
1.50317752061866e-12
2.09678363525644e-10
4.99536907345553e-13
2.08733148186468e-10
-7.54609367235881e-14
2.07309643600714e-10
-6.08799621280437e-13
2.05504655886546e-10
-9.29397647184221e-13
2.03487517321625e-10
-1.14583167803742e-12
2.01321833776268e-10
-1.27141447991985e-12
1.99076531656369e-10
-1.34752407655034e-12
1.96810506121284e-10
-1.36463728328804e-12
1.94586155762854e-10
-1.32244870134545e-12
1.92496574621162e-10
-1.198337448753e-12
1.90745334619948e-10
-8.761156919071e-13
-9.25508629501029e-15
-5.68506446929135e-10
-3.6570858317681e-12
-5.65486941859239e-10
-6.65585008318719e-13
-5.60922120048179e-10
1.89769570956263e-12
-5.55355612162731e-10
3.17112634841553e-12
-5.49302506720157e-10
3.66929795603269e-12
-5.43053284988824e-10
3.84456971420685e-12
-5.36737351391316e-10
3.89741934703423e-12
-5.30404184114949e-10
3.90794453219629e-12
-5.2406984411182e-10
3.90605883557867e-12
-5.17738571550495e-10
3.90136373965137e-12
-5.11410981233318e-10
3.89644019338637e-12
-5.05086772429991e-10
3.8918403934983e-12
-4.98765723428082e-10
3.88747684214041e-12
-4.92447933477169e-10
3.88310588322474e-12
-4.86133607549829e-10
3.87863204462204e-12
-4.79822938768433e-10
3.87405137802887e-12
-4.7351589208823e-10
3.86950012164248e-12
-4.67212411675665e-10
3.86496572478146e-12
-4.60912438224323e-10
3.86045606795585e-12
-4.54615987233268e-10
3.85594438006551e-12
-4.48323137069539e-10
3.85139302593137e-12
-4.42033866645413e-10
3.84680741341463e-12
-4.35747868182301e-10
3.84236302113039e-12
-4.29465091281601e-10
3.83794923065771e-12
-4.231855692653e-10
3.83354141886626e-12
-4.16909363171493e-10
3.82904252047374e-12
-4.10636192651161e-10
3.82465338596528e-12
-4.04365884171003e-10
3.82033476615122e-12
-3.9809824242258e-10
3.81609776444765e-12
-3.91832879890083e-10
3.81196912121753e-12
-3.85568869435084e-10
3.80831123538699e-12
-3.79306333077887e-10
3.80454860789594e-12
-3.73045330355908e-10
3.80071224930028e-12
-3.66785268863108e-10
3.79700899542332e-12
-3.60524293110087e-10
3.79425561294853e-12
-3.54262145478651e-10
3.7915630974797e-12
-3.47998475919676e-10
3.78894716404907e-12
-3.41731983482876e-10
3.7867110485829e-12
-3.35459632863236e-10
3.7860574097813e-12
-3.29181224148709e-10
3.78531662935467e-12
-3.2289570596337e-10
3.78492886136e-12
-3.16600068963876e-10
3.78565989980156e-12
-3.10289598799648e-10
3.78878104505858e-12
-3.03964336878519e-10
3.79153018580562e-12
-2.97622461925054e-10
3.79481621168339e-12
-2.91257524375594e-10
3.80071066186564e-12
-2.84860721110601e-10
3.8111783090251e-12
-2.78433226916871e-10
3.8203629510661e-12
-2.71971894654225e-10
3.8303083853368e-12
-2.65463482995276e-10
3.8460194358567e-12
-2.58894754712257e-10
3.86849592302227e-12
-2.52268676559541e-10
3.88834010247939e-12
-2.45578598287361e-10
3.90993452891517e-12
-2.38797706224123e-10
3.94420341760744e-12
-2.31909582411589e-10
3.9862915186771e-12
-2.24919311765142e-10
4.02428240866215e-12
-2.17814248814321e-10
4.06555772683272e-12
-2.10543992707552e-10
4.13115531871602e-12
-2.03086033009716e-10
4.20506121239195e-12
-1.95433931831463e-10
4.27855137795491e-12
-1.8753498671954e-10
4.36102194569329e-12
-1.79157281166288e-10
4.55338009062181e-12
-1.70180128484805e-10
4.79615848091817e-12
-1.60576076993071e-10
5.04333305274512e-12
-1.50183525968091e-10
5.34482124737309e-12
-1.38614567526774e-10
5.86689191818362e-12
-1.26169255641607e-10
6.21901318808801e-12
-1.12961581167195e-10
6.52490971128833e-12
-9.8881210057117e-11
6.88424890223384e-12
-8.38863954294417e-11
7.27824816152987e-12
-6.82855658845949e-11
7.51768667219181e-12
-5.21797585833321e-11
7.72043074357083e-12
-3.55784290725129e-11
7.93276874785015e-12
-1.8718630797479e-11
8.03334661569599e-12
-1.78949018943204e-12
8.0557807740536e-12
1.506922536227e-11
8.02809866282939e-12
3.16038975623466e-11
7.88435252061124e-12
4.76793671946407e-11
7.68992024238467e-12
6.31727272011181e-11
7.44689431500674e-12
7.78249843860964e-11
7.09939532058833e-12
9.14552986899587e-11
6.66056661337719e-12
1.0406560298035e-10
6.25925532921298e-12
1.15482378629557e-10
5.71368540695197e-12
1.25522755933562e-10
5.25464685124896e-12
1.34400915301326e-10
4.65597762891808e-12
1.41664085517842e-10
4.73795679370694e-12
1.42861576236434e-10
4.78375145486087e-13
1.4327778515622e-10
9.72439829671746e-13
1.4311347197455e-10
5.49033659091796e-13
1.42454849077757e-10
4.67556790701594e-13
1.41439825949699e-10
2.8987995611946e-13
1.40179972474906e-10
2.14281594330887e-13
1.38769371973561e-10
1.48578547492992e-13
1.37263541326851e-10
1.17650710766647e-13
1.35702661190748e-10
9.5867958799288e-14
1.34128316526103e-10
9.17132992069326e-14
1.3258390050103e-10
1.03996916616271e-13
1.31130810547767e-10
1.36879817379258e-13
1.29911871029576e-10
2.24479555837119e-13
4.31045806566499e-13
-2.84689115077721e-10
-2.85936425703956e-10
-2.84619354550717e-10
-2.8202775938754e-10
-2.78936896943242e-10
-2.75669667655441e-10
-2.7234849905153e-10
-2.69015723924617e-10
-2.6568375595154e-10
-2.62355398305421e-10
-2.59030872390406e-10
-2.55709854347325e-10
-2.52392114651165e-10
-2.49077668775582e-10
-2.45766621392173e-10
-2.42459073300139e-10
-2.39154988902694e-10
-2.35854352126555e-10
-2.32557144878611e-10
-2.29263373954846e-10
-2.25973076248866e-10
-2.22686276694009e-10
-2.19402828421383e-10
-2.16122711405384e-10
-2.12845935981012e-10
-2.09572595973281e-10
-2.06302575037353e-10
-2.03035798335783e-10
-1.99772184452765e-10
-1.96511624316515e-10
-1.9325364536102e-10
-1.89998363610519e-10
-1.86745864875796e-10
-1.83496011113168e-10
-1.80247857481602e-10
-1.77001363137683e-10
-1.73756454812025e-10
-1.70512748497255e-10
-1.67268684160007e-10
-1.64024385534773e-10
-1.60779515687061e-10
-1.5753295748707e-10
-1.54282340951071e-10
-1.51028084535588e-10
-1.47769677286793e-10
-1.44504511988707e-10
-1.41228073195319e-10
-1.37941734158476e-10
-1.34644736757396e-10
-1.3133128991283e-10
-1.27994738450962e-10
-1.2463787644506e-10
-1.21259022119334e-10
-1.17845561241715e-10
-1.1438982384436e-10
-1.10896168701557e-10
-1.0736151680863e-10
-1.03761579085781e-10
-1.00088379139453e-10
-9.63432779045966e-11
-9.2518211821312e-11
-8.8504059195016e-11
-8.42521627873625e-11
-7.97600753645625e-11
-7.49740627223977e-11
-6.96744201299646e-11
-6.40330002610582e-11
-5.80965384086597e-11
-5.18105946767784e-11
-4.51407400584173e-11
-3.82428030434737e-11
-3.11533691669694e-11
-2.3861733008047e-11
-1.64790419896854e-11
-9.08292022491571e-12
-1.72255090709115e-12
5.48693364336221e-12
1.2496050637952e-11
1.92569932917426e-11
2.56650359382576e-11
3.16300595530056e-11
3.71928724916957e-11
4.22102973145789e-11
4.67665978585778e-11
5.07223672218396e-11
5.47606191205646e-11
5.45381935644709e-11
5.48086717193098e-11
5.46554562343101e-11
5.441997410891e-11
5.40060804724584e-11
5.35167584862318e-11
5.29617177094802e-11
5.23751771770503e-11
5.17661361658237e-11
5.11524388497816e-11
5.05510504451497e-11
4.99826441252063e-11
4.9501381789136e-11
)
;

boundaryField
{
    dieWall
    {
        type            calculated;
        value           nonuniform List<scalar> 
100
(
7.09545609981208e-13
7.08108726267527e-13
7.06671854014986e-13
7.05234960580622e-13
7.03798071223262e-13
7.02361193404459e-13
7.00924313665587e-13
6.99487433948039e-13
6.98050547952362e-13
6.96613661226499e-13
6.95176781677157e-13
6.93739901065656e-13
6.92303013997875e-13
6.90866124412861e-13
6.89429244364628e-13
6.87992365893123e-13
6.86555482221376e-13
6.85118594249999e-13
6.83681710581925e-13
6.82244828852963e-13
6.80807944151768e-13
6.79371061859781e-13
6.77934175127864e-13
6.76497279457031e-13
6.75060395571369e-13
6.73623520425442e-13
6.72186641091218e-13
6.70749762571748e-13
6.6931287816296e-13
6.6787599420723e-13
6.66439111280111e-13
6.65002227895301e-13
6.63565341428401e-13
6.62128457770826e-13
6.60691573733651e-13
6.59254689433634e-13
6.57817808020558e-13
6.56380919226606e-13
6.5494403251224e-13
6.53507151104482e-13
6.52070268700885e-13
6.50633382410168e-13
6.49196498267658e-13
6.47759617018765e-13
6.4632272679246e-13
6.4488583979509e-13
6.43448963121849e-13
6.4201208302754e-13
6.40575200706827e-13
6.39138316907526e-13
6.37701434587156e-13
6.36264553024771e-13
6.34827665230075e-13
6.33390783035357e-13
6.31953897607578e-13
6.30517010736126e-13
6.29080126829481e-13
6.27643232367789e-13
6.26206354333502e-13
6.24769483656374e-13
6.23332596778792e-13
6.21895714123569e-13
6.20458828883782e-13
6.19021938983865e-13
6.17585056992772e-13
6.16148179557395e-13
6.14711299446069e-13
6.13274407068091e-13
6.11837521261519e-13
6.10400637043933e-13
6.08963744899196e-13
6.07526862275942e-13
6.06089988111416e-13
6.04653109800363e-13
6.03216221761015e-13
6.01779337808649e-13
6.0034244970887e-13
5.98905567772596e-13
5.97468688309749e-13
5.96031806041511e-13
5.94594925834888e-13
5.9315804047444e-13
5.91721144711816e-13
5.90284258989325e-13
5.88847386743456e-13
5.87602689092756e-13
5.87676211006164e-13
5.87676208063507e-13
5.87676214865513e-13
5.87676215323789e-13
5.87676202847066e-13
5.87676200951982e-13
5.87676211870942e-13
5.87676216243793e-13
5.87676217124671e-13
5.87676212868022e-13
5.87676209341105e-13
5.87676204671442e-13
5.87676206724259e-13
5.8767621380328e-13
)
;
    }
    outlet
    {
        type            calculated;
        value           nonuniform List<scalar> 6(2.44538554706935e-10 2.49607206873134e-10 2.3028060681866e-10 1.89948494957992e-10 1.29352642037581e-10 4.92262177549145e-11);
    }
    Wire
    {
        type            calculated;
        value           nonuniform List<scalar> 
100
(
-1.35061411699516e-13
-2.81926854655408e-13
-3.6528237158747e-13
-4.21976369371355e-13
-4.61570193090775e-13
-4.98480331963163e-13
-5.42168921809334e-13
-5.80001242171638e-13
-6.08349295334425e-13
-6.3529443823045e-13
-6.68533082482049e-13
-6.97186218711233e-13
-7.20220877652807e-13
-7.42846376434165e-13
-7.72439580882803e-13
-7.97266583268843e-13
-8.18631986761252e-13
-8.40121459365853e-13
-8.69496664365723e-13
-8.94415821353963e-13
-9.16420818056963e-13
-9.3858906660302e-13
-9.70659907472737e-13
-9.97608646067224e-13
-1.02244423030268e-12
-1.047622406741e-12
-1.0867195369487e-12
-1.11779381123021e-12
-1.148192573637e-12
-1.17987620279439e-12
-1.23175842443387e-12
-1.27247410529798e-12
-1.31418616441908e-12
-1.35800440781425e-12
-1.43500570182363e-12
-1.49307208659407e-12
-1.55592220578431e-12
-1.62760966686292e-12
-1.74505798127161e-12
-1.83888170306717e-12
-1.94155902139296e-12
-2.066675188922e-12
-2.25682028697219e-12
-2.41629909006669e-12
-2.59012835541596e-12
-2.81093121262424e-12
-3.13071546035332e-12
-3.40189743325673e-12
-3.69821276702994e-12
-4.10180030326184e-12
-4.63446519017879e-12
-5.09816170823779e-12
-5.60401869036459e-12
-6.34699122213708e-12
-7.21174980932942e-12
-8.00447120788495e-12
-8.86783625452981e-12
-1.01910415144465e-11
-1.16243822194881e-11
-1.32402177599509e-11
-1.52006776292809e-11
-1.93898220298947e-11
-2.42343448727573e-11
-2.92774333624794e-11
-3.47711432833767e-11
-4.40415043707601e-11
-4.99168644156722e-11
-5.56208392483194e-11
-6.19437523764655e-11
-6.91033433365674e-11
-7.34158323295996e-11
-7.73073596960448e-11
-8.14972636539027e-11
-8.35883882770697e-11
-8.43801205752165e-11
-8.46372179829581e-11
-8.24659796014446e-11
-7.96191104786695e-11
-7.62734451373451e-11
-7.06726069939782e-11
-6.30298680204516e-11
-5.66312118867024e-11
-4.9877785630945e-11
-3.74796739402978e-11
-2.93821971381662e-11
-2.17815985595236e-11
-1.22873091708523e-11
-4.81513779702037e-12
-4.63290504789262e-13
3.48826560620113e-12
7.23195571634501e-12
8.56094317894752e-12
9.70151387594862e-12
1.07426775878787e-11
1.10602273445583e-11
1.11855663906362e-11
1.11010124496327e-11
1.04806803807845e-11
9.55531960860939e-12
8.21197399402504e-12
)
;
    }
    inlet
    {
        type            calculated;
        value           nonuniform List<scalar> 6(-1.05598938102053e-09 -2.64346954997707e-10 2.85605704589281e-10 5.69922889884228e-10 5.71263252579557e-10 2.80448952398842e-10);
    }
    back
    {
        type            wedge;
        value           nonuniform List<scalar> 
600
(
-1.27334969893778e-25
-3.40258508386642e-25
-8.44369327007406e-25
-1.17961253967163e-24
-1.04860980980598e-24
-4.41997081566776e-25
-1.07936422195739e-25
-3.75842712653796e-25
-9.02159140810681e-25
-1.22355321930226e-24
-9.67799685655483e-25
-6.86734934552544e-25
-6.4896144542123e-27
-4.5017725931148e-25
-1.1927207342416e-24
-1.43096857102084e-24
-1.21941085351744e-24
-6.05573718223125e-25
-1.46031788398921e-25
-4.9223846666052e-25
-9.96759472097362e-25
-1.3955591971764e-24
-1.22637268086051e-24
-5.40376439076942e-25
-1.82193697597461e-25
-4.49146582625758e-25
-8.93341253265779e-25
-1.43026522886852e-24
-1.21725021562955e-24
-7.95326781385221e-25
-1.12921972917147e-25
-6.56810990813459e-25
-1.19577337291194e-24
-1.40491533258137e-24
-1.30108965068871e-24
-6.11647187372184e-25
1.2471261416811e-25
-6.04869709110057e-25
-1.11957254097728e-24
-1.48836984335909e-24
-1.31402961166967e-24
-4.8031272417571e-25
3.97510413824839e-26
-5.7236233148111e-25
-1.00347928671416e-24
-1.52005085689388e-24