/*--------------------------------*- C++ -*----------------------------------*\
| =========                 |                                                 |
| \\      /  F ield         | OpenFOAM: The Open Source CFD Toolbox           |
|  \\    /   O peration     | Version:  4.1                                   |
|   \\  /    A nd           | Web:      www.OpenFOAM.org                      |
|    \\/     M anipulation  |                                                 |
\*---------------------------------------------------------------------------*/
FoamFile
{
    version     2.0;
    format      ascii;
    class       pointVectorField;
    location    "0.000320";
    object      pointDisplacement;
}
// * * * * * * * * * * * * * * * * * * * * * * * * * * * * * * * * * * * * * //

dimensions      [0 1 0 0 0 0 0];

internalField   nonuniform List<vector> 
3625
(
(0 0.000198153 1.2053112e-07)
(0 0.00023184875 1.2044911e-07)
(0 0.00026149584 1.2107057e-07)
(0 0.00028649823 1.2144459e-07)
(0 0.00030641261 1.1455865e-07)
(0 0.00032095368 1.0075179e-07)
(0 0.00032995758 8.3240914e-08)
(0 0.00033334061 6.5292149e-08)
(0 0.00033115257 4.8628534e-08)
(0 0.00032348408 3.2173078e-08)
(0 0.00031045022 1.2174949e-08)
(0 0.00029229062 -1.5205423e-08)
(0 0.00026933361 -4.1052243e-08)
(0 0.00024192095 -4.9379436e-08)
(0 0.00021048502 -5.0341257e-08)
(0 0.00017557567 -5.2988464e-08)
(0 0.00013782643 -4.7808727e-08)
(0 9.7955322e-05 -2.9315327e-08)
(0 5.6829466e-05 -8.0106134e-09)
(0 1.5636359e-05 3.9648172e-09)
(0 -2.3798684e-05 1.3330656e-08)
(0 -5.7926192e-05 2.1056671e-08)
(0 -7.9111787e-05 2.3422504e-08)
(0 -7.061722e-05 1.5268285e-08)
(0 0 0)
(0 0.00017939389 3.7004376e-05)
(0 0.00020952621 3.6473555e-05)
(0 0.0002360172 3.5330475e-05)
(0 0.00025827257 3.359731e-05)
(0 0.00027589398 3.1289836e-05)
(0 0.00028864432 2.8448058e-05)
(0 0.0002963936 2.5125313e-05)
(0 0.00029908074 2.1384523e-05)
(0 0.00029679102 1.7293254e-05)
(0 0.00028961955 1.2915532e-05)
(0 0.00027764767 8.3189092e-06)
(0 0.00026110742 3.5670967e-06)
(0 0.00024031244 -1.2525285e-06)
(0 0.00021553539 -6.0352582e-06)
(0 0.0001871407 -1.0722331e-05)
(0 0.00015564439 -1.5247786e-05)
(0 0.00012164519 -1.9514717e-05)
(0 8.5802221e-05 -2.3443556e-05)
(0 4.8924469e-05 -2.6919037e-05)
(0 1.2153942e-05 -2.9782759e-05)
(0 -2.2778592e-05 -3.1763837e-05)
(0 -5.2494511e-05 -3.2303744e-05)
(0 -6.9817459e-05 -3.0120647e-05)
(0 -6.0105482e-05 -2.2203149e-05)
(0 0 0)
(0 0.00015816115 8.3454531e-05)
(0 0.0001847688 8.2169614e-05)
(0 0.00020818963 7.9511385e-05)
(0 0.00022784497 7.5535225e-05)
(0 0.00024340655 7.0284472e-05)
(0 0.00025466436 6.3851113e-05)
(0 0.00026147558 5.635419e-05)
(0 0.00026379804 4.7924692e-05)
(0 0.00026173477 3.8712793e-05)
(0 0.00025537884 2.8867363e-05)
(0 0.0002447799 1.8545381e-05)
(0 0.00023015859 7.894829e-06)
(0 0.00021181171 -2.9141161e-06)
(0 0.00018994177 -1.3675283e-05)
(0 0.00016484665 -2.4229819e-05)
(0 0.00013700434 -3.4420086e-05)
(0 0.00010696491 -4.4055112e-05)
(0 7.5322861e-05 -5.2953796e-05)
(0 4.2824586e-05 -6.0832858e-05)
(0 1.0530899e-05 -6.7303671e-05)
(0 -1.9977347e-05 -7.1708859e-05)
(0 -4.5601298e-05 -7.2693079e-05)
(0 -5.9888721e-05 -6.72096e-05)
(0 -5.0456323e-05 -4.8537314e-05)
(0 0 0)
(0 0.00013355635 0.00013011861)
(0 0.00015620788 0.00012804012)
(0 0.00017618057 0.00012381837)
(0 0.00019294534 0.00011753797)
(0 0.0002062232 0.00010930242)
(0 0.00021583928 9.9254761e-05)
(0 0.000221661 8.755932e-05)
(0 0.00022365466 7.4417577e-05)
(0 0.00022192416 6.0062718e-05)
(0 0.00021653796 4.4730666e-05)
(0 0.0002075411 2.8658897e-05)
(0 0.00019514863 1.2087025e-05)
(0 0.00017961373 -4.7270903e-06)
(0 0.00016109138 -2.1480108e-05)
(0 0.00013980778 -3.790976e-05)
(0 0.00011617278 -5.376761e-05)
(0 9.0681872e-05 -6.8766119e-05)
(0 6.3851164e-05 -8.2586866e-05)
(0 3.6335353e-05 -9.479956e-05)
(0 9.0657283e-06 -0.00010481464)
(0 -1.6590865e-05 -0.00011155445)
(0 -3.797587e-05 -0.00011280194)
(0 -4.963013e-05 -0.00010371258)
(0 -4.1470046e-05 -7.4152364e-05)
(0 0 0)
(0 0.00010649595 0.00017588349)
(0 0.00012485396 0.00017304371)
(0 0.00014107835 0.00016728413)
(0 0.00015472712 0.00015872392)
(0 0.0001655516 0.00014755107)
(0 0.00017341087 0.00013395917)
(0 0.00017820196 0.00011815537)
(0 0.00017988263 0.00010040905)
(0 0.00017855277 8.1024209e-05)
(0 0.0001742578 6.0314801e-05)
(0 0.00016704396 3.859606e-05)
(0 0.00015710496 1.6205088e-05)
(0 0.00014463306 -6.5000529e-06)
(0 0.00012978144 -2.9134716e-05)
(0 0.00011270645 -5.1336176e-05)
(0 9.3706859e-05 -7.2747186e-05)
(0 7.3217483e-05 -9.2974722e-05)
(0 5.1664139e-05 -0.00011157765)
(0 2.9573621e-05 -0.00012799868)
(0 7.7186502e-06 -0.00014144479)
(0 -1.2788325e-05 -0.00015044431)
(0 -2.9877268e-05 -0.00015194)
(0 -3.9234733e-05 -0.0001393481)
(0 -3.2935301e-05 -9.9421112e-05)
(0 0 0)
(0 7.7990493e-05 0.00021963591)
(0 9.1770188e-05 0.00021612447)
(0 0.00010398021 0.00020894116)
(0 0.00011426599 0.00019824697)
(0 0.00012245175 0.00018427987)
(0 0.00012843451 0.00016729172)
(0 0.00013212596 0.00014755943)
(0 0.00013347846 0.00012541287)
(0 0.0001325785 0.00010121278)
(0 0.00012947104 7.5341035e-05)
(0 0.0001241804 4.8199863e-05)
(0 0.00011685135 2.0225213e-05)
(0 0.00010763449 -8.1240841e-06)
(0 9.6671315e-05 -3.6390264e-05)
(0 8.4072512e-05 -6.4108992e-05)
(0 7.0025154e-05 -9.080369e-05)
(0 5.4856461e-05 -0.00011598655)
(0 3.8892629e-05 -0.00013912854)
(0 2.2530581e-05 -0.00015955453)
(0 6.3569339e-06 -0.00017627009)
(0 -8.8201466e-06 -0.00018747772)
(0 -2.1561457e-05 -0.00018940386)
(0 -2.8766166e-05 -0.00017389946)
(0 -2.4586199e-05 -0.00012480935)
(0 0 0)
(0 4.911584e-05 0.00026019925)
(0 5.8090622e-05 0.00025614006)
(0 6.6074375e-05 0.0002477118)
(0 7.2816415e-05 0.0002351115)
(0 7.8192207e-05 0.00021859872)
(0 8.2141703e-05 0.00019847967)
(0 8.4632817e-05 0.00017510007)
(0 8.5617385e-05 0.00014885411)
(0 8.5145363e-05 0.00012016)
(0 8.3250057e-05 8.9467697e-05)
(0 7.9938858e-05 5.7269052e-05)
(0 7.5304456e-05 2.4092669e-05)
(0 6.9451775e-05 -9.507274e-06)
(0 6.2482129e-05 -4.2995057e-05)
(0 5.447759e-05 -7.5821448e-05)
(0 4.5534708e-05 -0.00010740828)
(0 3.5846224e-05 -0.00013718091)
(0 2.5626869e-05 -0.00016451302)
(0 1.5145453e-05 -0.00018862911)
(0 4.7833824e-06 -0.00020841526)
(0 -4.9707666e-06 -0.00022183251)
(0 -1.3280566e-05 -0.00022456207)
(0 -1.826207e-05 -0.00020717297)
(0 -1.6139437e-05 -0.00015080936)
(0 0 0)
(0 2.1184774e-05 0.00029656449)
(0 2.5216351e-05 0.00029210879)
(0 2.8828687e-05 0.000282652)
(0 3.1878641e-05 0.00026841271)
(0 3.4281869e-05 0.00024967084)
(0 3.6033517e-05 0.00022677264)
(0 3.7161265e-05 0.00020012205)
(0 3.7635203e-05 0.00017017351)
(0 3.7471716e-05 0.00013741155)
(0 3.6676256e-05 0.00010236392)
(0 3.5254755e-05 6.5606963e-05)
(0 3.324974e-05 2.7752029e-05)
(0 3.0705162e-05 -1.0565166e-05)
(0 2.7685636e-05 -4.8727351e-05)
(0 2.4226655e-05 -8.6106629e-05)
(0 2.0341037e-05 -0.00012204882)
(0 1.6105569e-05 -0.00015590228)
(0 1.1626651e-05 -0.00018695017)
(0 7.0270439e-06 -0.00021435513)
(0 2.4777858e-06 -0.00023694858)
(0 -1.8175158e-06 -0.00025255397)
(0 -5.5664235e-06 -0.0002565478)
(0 -8.0202594e-06 -0.0002386245)
(0 -7.4756024e-06 -0.00017774025)
(0 0 0)
(0 -2.0607848e-07 0.00033229818)
(0 -8.2939517e-08 0.00032757811)
(0 6.0557918e-08 0.00031723345)
(0 1.5606887e-07 0.00030148915)
(0 1.6880487e-07 0.00028064479)
(0 1.3506088e-07 0.00025508211)
(0 1.0055571e-07 0.00022525764)
(0 6.4376018e-08 0.00019168296)
(0 3.1311091e-08 0.000154915)
(0 -4.6442243e-09 0.00011556465)
(0 -4.0611262e-08 7.4292773e-05)
(0 -7.2202447e-08 3.179247e-05)
(0 -9.527113e-08 -1.1219799e-05)
(0 -8.5275129e-08 -5.4034656e-05)
(0 -4.8291712e-08 -9.5938652e-05)
(0 -1.8584384e-08 -0.0001362085)
(0 2.6926849e-09 -0.00017412129)
(0 3.4380975e-08 -0.00020889896)
(0 8.116713e-08 -0.00023965451)
(0 1.5545494e-07 -0.00026515978)
(0 2.5425868e-07 -0.00028317293)
(0 3.0420756e-07 -0.00028892592)
(0 2.5290968e-07 -0.00027149947)
(0 1.1811605e-07 -0.00020821287)
(0 0 0)
(0 0.00017951979 -3.670515e-05)
(0 0.00020962676 -3.6179358e-05)
(0 0.00023609499 -3.5039183e-05)
(0 0.0002583278 -3.3302908e-05)
(0 0.00027592673 -3.1010619e-05)
(0 0.00028865845 -2.8206565e-05)
(0 0.00029638649 -2.4931517e-05)
(0 0.0002990596 -2.1237258e-05)
(0 0.00029676468 -1.7182753e-05)
(0 0.00028959576 -1.2838654e-05)
(0 0.00027763585 -8.2830097e-06)
(0 0.00026110246 -3.6001601e-06)
(0 0.00024029658 1.1501659e-06)
(0 0.00021549745 5.9190546e-06)
(0 0.00018708758 1.0609825e-05)
(0 0.00015558648 1.512722e-05)
(0 0.00012158428 1.9403406e-05)
(0 8.5736673e-05 2.3374335e-05)
(0 4.8850589e-05 2.6902941e-05)
(0 1.207158e-05 2.9798511e-05)
(0 -2.2867113e-05 3.1806199e-05)
(0 -5.2581351e-05 3.2362352e-05)
(0 -6.9894974e-05 3.017881e-05)
(0 -6.0157051e-05 2.223983e-05)
(0 0 0)
(0 0.0001499288 2.6005207e-07)
(0 0.00017462162 2.5706272e-07)
(0 0.00019630775 2.5425865e-07)
(0 0.00021437858 2.5629231e-07)
(0 0.00022850178 2.4366414e-07)
(0 0.00023852638 2.1105979e-07)
(0 0.00024437647 1.6959087e-07)
(0 0.00024604725 1.2726701e-07)
(0 0.00024370246 9.2977872e-08)
(0 0.00023744371 6.4456187e-08)
(0 0.0002273009 3.3313912e-08)
(0 0.00021347568 -2.266621e-08)
(0 0.00019622716 -8.1171872e-08)
(0 0.00017570653 -9.1744153e-08)
(0 0.00015219338 -8.6933766e-08)
(0 0.00012614724 -9.3395483e-08)
(0 9.8086252e-05 -9.3590338e-08)
(0 6.8557855e-05 -6.6490562e-08)
(0 3.8266245e-05 -2.3059905e-08)
(0 8.2796552e-06 5.3702402e-09)
(0 -1.986275e-05 2.9219633e-08)
(0 -4.3104618e-05 3.9886274e-08)
(0 -5.5121329e-05 3.6942584e-08)
(0 -4.4566813e-05 2.2644355e-08)
(0 0 0)
(0 0.00012709591 4.1012302e-05)
(0 0.00014832972 4.0304219e-05)
(0 0.00016704913 3.893286e-05)
(0 0.00018266593 3.693501e-05)
(0 0.00019488697 3.4327051e-05)
(0 0.0002035712 3.1149311e-05)
(0 0.00020864347 2.746185e-05)
(0 0.0002101052 2.3331581e-05)
(0 0.00020814983 1.8837017e-05)
(0 0.00020287953 1.4050726e-05)
(0 0.00019428677 9.0388872e-06)
(0 0.00018257193 3.8431997e-06)
(0 0.00016797792 -1.4490214e-06)
(0 0.0001505675 -6.6925717e-06)
(0 0.00013054182 -1.1832853e-05)
(0 0.00010833049 -1.6825241e-05)
(0 8.4406541e-05 -2.1570358e-05)
(0 5.9244316e-05 -2.5983513e-05)
(0 3.3483337e-05 -2.9894182e-05)
(0 8.090426e-06 -3.3091092e-05)
(0 -1.5601724e-05 -3.5207241e-05)
(0 -3.4911888e-05 -3.5505985e-05)
(0 -4.4438073e-05 -3.2365003e-05)
(0 -3.5209758e-05 -2.2453941e-05)
(0 0 0)
(0 0.00010252801 8.2648503e-05)
(0 0.00011999696 8.115391e-05)
(0 0.00013543967 7.8325965e-05)
(0 0.00014832132 7.4229391e-05)
(0 0.00015840655 6.8936237e-05)
(0 0.00016558428 6.2531344e-05)
(0 0.00016977923 5.5110205e-05)
(0 0.000170993 4.6803046e-05)
(0 0.0001694261 3.7755537e-05)
(0 0.00016516049 2.8112371e-05)
(0 0.00015817473 1.8010552e-05)
(0 0.00014867215 7.5659841e-06)
(0 0.00013686024 -3.0650507e-06)
(0 0.00012278739 -1.3655952e-05)
(0 0.00010656672 -2.4058667e-05)
(0 8.853072e-05 -3.4150757e-05)
(0 6.9114067e-05 -4.374325e-05)
(0 4.8719192e-05 -5.2637372e-05)
(0 2.7886565e-05 -6.0513256e-05)
(0 7.4269261e-06 -6.6943242e-05)
(0 -1.1576148e-05 -7.1138958e-05)
(0 -2.6960138e-05 -7.153459e-05)
(0 -3.4419486e-05 -6.4827373e-05)
(0 -2.7097983e-05 -4.4520742e-05)
(0 0 0)
(0 7.6637001e-05 0.00012460927)
(0 9.0104704e-05 0.00012232689)
(0 0.00010203715 0.00011803104)
(0 0.00011200127 0.0001118074)
(0 0.00011980583 0.00010379487)
(0 0.00012536711 9.4129639e-05)
(0 0.00012864136 8.2944642e-05)
(0 0.00012961646 7.043292e-05)
(0 0.0001284708 5.6801449e-05)
(0 0.00012526343 4.2256763e-05)
(0 0.00011997037 2.7006297e-05)
(0 0.00011277075 1.12594e-05)
(0 0.00010383842 -4.7456814e-06)
(0 9.3253887e-05 -2.0726143e-05)
(0 8.1057788e-05 -3.6437286e-05)
(0 6.7447518e-05 -5.1650358e-05)
(0 5.2807006e-05 -6.6081579e-05)
(0 3.745832e-05 -7.9397863e-05)
(0 2.1802749e-05 -9.1155976e-05)
(0 6.4776586e-06 -0.00010072275)
(0 -7.7029761e-06 -0.0001069077)
(0 -1.9205874e-05 -0.00010729973)
(0 -2.4890485e-05 -9.6924914e-05)
(0 -1.9738667e-05 -6.6345866e-05)
(0 0 0)
(0 5.0146211e-05 0.00016602778)
(0 5.9375358e-05 0.00016304474)
(0 6.7585677e-05 0.0001573478)
(0 7.4447752e-05 0.00014905273)
(0 7.9814305e-05 0.00013835803)
(0 8.3640112e-05 0.00012546099)
(0 8.5926621e-05 0.00011054925)
(0 8.6648574e-05 9.3872582e-05)
(0 8.5932359e-05 7.5697611e-05)
(0 8.3820265e-05 5.6287647e-05)
(0 8.0293377e-05 3.5922108e-05)
(0 7.5487813e-05 1.49158e-05)
(0 6.9552637e-05 -6.4010454e-06)
(0 6.2563996e-05 -2.7695024e-05)
(0 5.4524189e-05 -4.8622293e-05)
(0 4.552033e-05 -6.8823389e-05)
(0 3.5823439e-05 -8.7926185e-05)
(0 2.5662801e-05 -0.00010552263)
(0 1.5310673e-05 -0.00012103698)
(0 5.212916e-06 -0.00013361118)
(0 -4.116699e-06 -0.00014172353)
(0 -1.1781253e-05 -0.00014218661)
(0 -1.5797401e-05 -0.00012845794)
(0 -1.2829136e-05 -8.8280312e-05)
(0 0 0)
(0 2.4034187e-05 0.00020586867)
(0 2.8811446e-05 0.00020230981)
(0 3.3105147e-05 0.00019533332)
(0 3.6686599e-05 0.00018510548)
(0 3.9449914e-05 0.00017186391)
(0 4.1406524e-05 0.00015585753)
(0 4.2606189e-05 0.00013734317)
(0 4.3017685e-05 0.00011662941)
(0 4.2705985e-05 9.4040833e-05)
(0 4.1687679e-05 6.9907195e-05)
(0 3.9957716e-05 4.4587875e-05)
(0 3.7601758e-05 1.8492747e-05)
(0 3.4705916e-05 -7.9494358e-06)
(0 3.1329944e-05 -3.4339535e-05)
(0 2.7466683e-05 -6.0250173e-05)
(0 2.3111571e-05 -8.5207268e-05)
(0 1.8388388e-05 -0.00010875693)
(0 1.3423504e-05 -0.00013040675)
(0 8.3642285e-06 -0.0001494545)
(0 3.4533078e-06 -0.0001649021)
(0 -1.0801646e-06 -0.00017495879)
(0 -4.9175203e-06 -0.00017578697)
(0 -7.1752883e-06 -0.00015945073)
(0 -6.16028e-06 -0.0001108761)
(0 0 0)
(0 -3.3504106e-07 0.00024341863)
(0 -9.7458958e-08 0.00023940573)
(0 1.5716211e-07 0.0002313052)
(0 3.3134522e-07 0.00021932361)
(0 3.5816019e-07 0.00020371739)
(0 2.9262026e-07 0.00018478046)
(0 2.2923574e-07 0.000162843)
(0 1.5099797e-07 0.00013827612)
(0 8.3224318e-08 0.00011146873)
(0 1.6214865e-08 8.2832734e-05)
(0 -4.9804622e-08 5.2819193e-05)
(0 -9.1734647e-08 2.1921649e-05)
(0 -9.2253042e-08 -9.3455298e-06)
(0 -1.0738902e-08 -4.0500367e-05)
(0 1.1111645e-07 -7.1035142e-05)
(0 2.0205051e-07 -0.00010040042)
(0 2.7101802e-07 -0.00012806323)
(0 3.4895048e-07 -0.00015341455)
(0 4.4210726e-07 -0.00017568868)
(0 5.8793472e-07 -0.00019383307)
(0 7.8140681e-07 -0.00020585259)
(0 8.5677955e-07 -0.00020747454)
(0 7.0361212e-07 -0.00018963384)
(0 3.6046936e-07 -0.00013460902)
(0 0 0)
(0 -2.1665075e-05 0.00029655458)
(0 -2.5373165e-05 0.00029209842)
(0 -2.8627534e-05 0.00028264014)
(0 -3.14326e-05 0.00026839817)
(0 -3.3797318e-05 0.00024965169)
(0 -3.5641208e-05 0.00022674801)
(0 -3.6861705e-05 0.00020009457)
(0 -3.7441024e-05 0.00017014398)
(0 -3.7371432e-05 0.00013738262)
(0 -3.667046e-05 0.00010233863)
(0 -3.5342445e-05 6.5586843e-05)
(0 -3.3407659e-05 2.7737814e-05)
(0 -3.0890616e-05 -1.057673e-05)
(0 -2.7798569e-05 -4.8738939e-05)
(0 -2.4204256e-05 -8.6116534e-05)
(0 -2.0214913e-05 -0.00012205741)
(0 -1.590264e-05 -0.00015591291)
(0 -1.1326299e-05 -0.0001869616)
(0 -6.5950002e-06 -0.00021436406)
(0 -1.8383063e-06 -0.00023695486)
(0 2.7294652e-06 -0.0002525604)
(0 6.6016311e-06 -0.00025655813)
(0 8.8757902e-06 -0.00023864162)
(0 7.9004343e-06 -0.00017776318)
(0 0 0)
(0 0.00015843513 -8.3302541e-05)
(0 0.00018497471 -8.2037945e-05)
(0 0.00020833854 -7.9391784e-05)
(0 0.00022797307 -7.5410242e-05)
(0 0.00024349308 -7.0163658e-05)
(0 0.00025467773 -6.3753742e-05)
(0 0.00026142459 -5.6287709e-05)
(0 0.00026370454 -4.7887141e-05)
(0 0.00026162788 -3.8691173e-05)
(0 0.00025528764 -2.8854419e-05)
(0 0.00024473133 -1.8548479e-05)
(0 0.00023013919 -7.953787e-06)
(0 0.00021176762 2.7903407e-06)
(0 0.00018984309 1.3546856e-05)
(0 0.00016471929 2.4117885e-05)
(0 0.00013687522 3.4309388e-05)
(0 0.00010683939 4.3963076e-05)
(0 7.5190649e-05 5.2898337e-05)
(0 4.2666448e-05 6.0817682e-05)
(0 1.0342827e-05 6.7317848e-05)
(0 -2.018666e-05 7.1753388e-05)
(0 -4.5815999e-05 7.2757298e-05)
(0 -6.0087983e-05 6.7272287e-05)
(0 -5.0582034e-05 4.8576635e-05)
(0 0 0)
(0 0.00012732382 -4.0633727e-05)
(0 0.00014848823 -3.9950635e-05)
(0 0.00016715832 -3.8596851e-05)
(0 0.00018275911 -3.660276e-05)
(0 0.00019494213 -3.4010391e-05)
(0 0.00020355894 -3.0875508e-05)
(0 0.00020856943 -2.7254607e-05)
(0 0.00020999124 -2.3195619e-05)
(0 0.00020802457 -1.8754717e-05)
(0 0.00020276861 -1.4004045e-05)
(0 0.00019421282 -9.0302791e-06)
(0 0.00018252202 -3.936957e-06)
(0 0.00016790199 1.2347096e-06)
(0 0.00015043785 6.4676279e-06)
(0 0.00013038193 1.1638763e-05)
(0 0.00010816852 1.663051e-05)
(0 8.4248801e-05 2.1382418e-05)
(0 5.9076795e-05 2.5841111e-05)
(0 3.3285297e-05 2.9829067e-05)
(0 7.8576809e-06 3.308664e-05)
(0 -1.5858905e-05 3.5256544e-05)
(0 -3.5169734e-05 3.5580297e-05)
(0 -4.4661738e-05 3.2434062e-05)
(0 -3.5338443e-05 2.2495887e-05)
(0 0 0)
(0 0.00010414993 2.2896803e-07)
(0 0.00012173964 2.0374698e-07)
(0 0.00013732863 1.8883364e-07)
(0 0.0001503613 1.7468821e-07)
(0 0.00016051819 1.669546e-07)
(0 0.00016767793 1.5419414e-07)
(0 0.00017181688 1.2000968e-07)
(0 0.00017295688 7.9999535e-08)
(0 0.00017132657 4.7791869e-08)
(0 0.00016702315 2.5899052e-08)
(0 0.00016000578 2.8401405e-09)
(0 0.00015044643 -5.8423989e-08)
(0 0.00013851181 -1.32252e-07)
(0 0.00012421644 -1.4123008e-07)
(0 0.00010774849 -1.2137542e-07)
(0 8.9487536e-05 -1.1878472e-07)
(0 6.9833488e-05 -1.2583164e-07)
(0 4.9164787e-05 -1.1151579e-07)
(0 2.8041079e-05 -6.2601014e-08)
(0 7.3226366e-06 -1.9145611e-08)
(0 -1.1872092e-05 1.257803e-08)
(0 -2.7261181e-05 2.3821587e-08)
(0 -3.4429901e-05 2.5882705e-08)
(0 -2.6636852e-05 1.7815211e-08)
(0 0 0)
(0 7.9178961e-05 4.2211993e-05)
(0 9.2865076e-05 4.1380261e-05)
(0 0.00010503285 3.9886359e-05)
(0 0.00011520515 3.7757377e-05)
(0 0.00012310931 3.5049407e-05)
(0 0.00012865248 3.1792696e-05)
(0 0.00013183316 2.8010591e-05)
(0 0.00013266963 2.377934e-05)
(0 0.00013139027 1.9174598e-05)
(0 0.00012807294 1.4269709e-05)
(0 0.00012266722 9.1238602e-06)
(0 0.00011534172 3.7736547e-06)
(0 0.00010621709 -1.6912074e-06)
(0 9.5331879e-05 -7.1209407e-06)
(0 8.2794182e-05 -1.2452864e-05)
(0 6.8843317e-05 -1.7651613e-05)
(0 5.383088e-05 -2.2616196e-05)
(0 3.8064574e-05 -2.722965e-05)
(0 2.1990147e-05 -3.1307381e-05)
(0 6.2930566e-06 -3.4630607e-05)
(0 -8.1660433e-06 -3.6756813e-05)
(0 -1.9648399e-05 -3.6833426e-05)
(0 -2.4880848e-05 -3.3108062e-05)
(0 -1.9092414e-05 -2.230184e-05)
(0 0 0)
(0 5.2817279e-05 8.4726461e-05)
(0 6.2305068e-05 8.3052406e-05)
(0 7.0780277e-05 8.0039837e-05)
(0 7.7871511e-05 7.5754426e-05)
(0 8.3354841e-05 7.029491e-05)
(0 8.7165424e-05 6.3738932e-05)
(0 8.9338227e-05 5.6160982e-05)
(0 8.9881368e-05 4.7694413e-05)
(0 8.8988971e-05 3.8471921e-05)
(0 8.6715055e-05 2.8627486e-05)
(0 8.3011821e-05 1.8290047e-05)
(0 7.8016876e-05 7.5845211e-06)
(0 7.1847062e-05 -3.3274986e-06)
(0 6.4566386e-05 -1.4244125e-05)
(0 5.6176056e-05 -2.50031e-05)
(0 4.6777674e-05 -3.5468813e-05)
(0 3.6674927e-05 -4.5431844e-05)
(0 2.6095617e-05 -5.4645742e-05)
(0 1.5330782e-05 -6.2794095e-05)
(0 4.8738731e-06 -6.9398089e-05)
(0 -4.7020611e-06 -7.3569483e-05)
(0 -1.2301909e-05 -7.3591701e-05)
(0 -1.5835378e-05 -6.5944869e-05)
(0 -1.2233855e-05 -4.4249267e-05)
(0 0 0)
(0 2.5792952e-05 0.00012679495)
(0 3.0778488e-05 0.0001243514)
(0 3.5295851e-05 0.00011988529)
(0 3.9085292e-05 0.00011348514)
(0 4.1959964e-05 0.00010529399)
(0 4.3895624e-05 9.5457203e-05)
(0 4.4980819e-05 8.410676e-05)
(0 4.5211525e-05 7.1430112e-05)
(0 4.4721931e-05 5.7621086e-05)
(0 4.3542275e-05 4.2864321e-05)
(0 4.1638007e-05 2.7360249e-05)
(0 3.9102584e-05 1.133748e-05)
(0 3.6046643e-05 -4.9626962e-06)
(0 3.2502522e-05 -2.1292152e-05)
(0 2.8398358e-05 -3.7386192e-05)
(0 2.3751721e-05 -5.2975071e-05)
(0 1.8750351e-05 -6.7760933e-05)
(0 1.3518954e-05 -8.140625e-05)
(0 8.1972159e-06 -9.3446958e-05)
(0 3.0726332e-06 -0.00010315162)
(0 -1.5796317e-06 -0.00010926558)
(0 -5.326335e-06 -0.00010924851)
(0 -7.2248265e-06 -9.789549e-05)
(0 -5.7648162e-06 -6.5901706e-05)
(0 0 0)
(0 -6.1739714e-07 0.00016734742)
(0 -3.0074901e-07 0.00016428867)
(0 8.7662386e-08 0.00015850009)
(0 4.1165287e-07 0.00015010367)
(0 5.2875053e-07 0.00013929572)
(0 4.7428937e-07 0.00012628865)
(0 3.8016013e-07 0.0001112781)
(0 2.4172899e-07 9.4506451e-05)
(0 1.3060446e-07 7.6230207e-05)
(0 4.4516143e-08 5.6691996e-05)
(0 -2.9789107e-08 3.6166877e-05)
(0 -6.1385129e-08 1.4984727e-05)
(0 -3.7049815e-09 -6.5215344e-06)
(0 1.6144016e-07 -2.8043771e-05)
(0 3.2823913e-07 -4.9226339e-05)
(0 4.3862563e-07 -6.9670748e-05)
(0 5.2942429e-07 -8.9005308e-05)
(0 6.1042638e-07 -0.00010683319)
(0 6.8123733e-07 -0.00012253256)
(0 8.1484843e-07 -0.00013519487)
(0 1.015959e-06 -0.00014326851)
(0 1.1149925e-06 -0.0001434521)
(0 9.7841642e-07 -0.0001290548)
(0 5.6342711e-07 -8.7875454e-05)
(0 0 0)
(0 -2.4951474e-05 0.00020584592)
(0 -2.917883e-05 0.00020229082)
(0 -3.2843296e-05 0.00019531286)
(0 -3.595018e-05 0.00018507765)
(0 -3.858081e-05 0.00017182028)
(0 -4.0650769e-05 0.00015579947)
(0 -4.2004206e-05 0.00013728285)
(0 -4.2627415e-05 0.00011657356)
(0 -4.2492823e-05 9.3994075e-05)
(0 -4.1627284e-05 6.9869107e-05)
(0 -4.0035593e-05 4.4558524e-05)
(0 -3.7750476e-05 1.8475018e-05)
(0 -3.4797393e-05 -7.9588407e-06)
(0 -3.118097e-05 -3.4351129e-05)
(0 -2.703955e-05 -6.0267017e-05)
(0 -2.2498771e-05 -8.5227719e-05)
(0 -1.7630474e-05 -0.00010878368)
(0 -1.2516569e-05 -0.0001304326)
(0 -7.2903683e-06 -0.00014946299)
(0 -2.0878107e-06 -0.00016489072)
(0 2.8468188e-06 -0.00017493324)
(0 6.8538722e-06 -0.00017575122)
(0 8.8241262e-06 -0.00015941307)
(0 7.0698566e-06 -0.00011084366)
(0 0 0)
(0 -4.9715088e-05 0.00026017232)
(0 -5.8316209e-05 0.00025611537)
(0 -6.5874001e-05 0.00024768411)
(0 -7.2300323e-05 0.00023507506)
(0 -7.7590204e-05 0.00021854822)
(0 -8.1621343e-05 0.0001984154)
(0 -8.4225886e-05 0.00017503158)
(0 -8.5355541e-05 0.00014878641)
(0 -8.5008481e-05 0.00012009882)
(0 -8.3221311e-05 8.9416747e-05)
(0 -8.0007543e-05 5.7229867e-05)
(0 -7.5432081e-05 2.406764e-05)
(0 -6.9562406e-05 -9.5229188e-06)
(0 -6.2463522e-05 -4.3010413e-05)
(0 -5.4296616e-05 -7.5839508e-05)
(0 -4.5244708e-05 -0.00010743065)
(0 -3.547289e-05 -0.0001372129)
(0 -2.5157884e-05 -0.00016454821)
(0 -1.454832e-05 -0.00018864836)
(0 -3.9636641e-06 -0.00020841609)
(0 6.0864684e-06 -0.00022182604)
(0 1.4531896e-05 -0.00022455657)
(0 1.9329458e-05 -0.00020717267)
(0 1.6718257e-05 -0.00015081153)
(0 0 0)
(0 0.00013409168 -0.00013006412)
(0 0.0001566296 -0.00012801339)
(0 0.00017651224 -0.00012381276)
(0 0.00019324827 -0.00011753888)
(0 0.00020645918 -0.00010930272)
(0 0.00021595117 -9.9256658e-05)
(0 0.00022165677 -8.75753e-05)
(0 0.00022356607 -7.4444718e-05)
(0 0.00022180012 -6.0086252e-05)
(0 0.00021643431 -4.4746192e-05)
(0 0.00020749826 -2.8681148e-05)
(0 0.00019514261 -1.2161132e-05)
(0 0.00017956428 4.5889429e-06)
(0 0.0001609494 2.13378e-05)
(0 0.00013960559 3.7790708e-05)
(0 0.00011595611 5.3657113e-05)
(0 9.0462008e-05 6.8683369e-05)
(0 6.3607606e-05 8.2538714e-05)
(0 3.6032651e-05 9.4780455e-05)
(0 8.6915008e-06 0.00010482103)
(0 -1.7017946e-05 0.00011158931)
(0 -3.8402569e-05 0.00011285969)
(0 -4.9989134e-05 0.00010377044)
(0 -4.1672924e-05 7.4186562e-05)
(0 0 0)
(0 0.0001031437 -8.2493473e-05)
(0 0.00012046976 -8.10327e-05)
(0 0.00013581297 -7.8239211e-05)
(0 0.00014866684 -7.4167068e-05)
(0 0.00015868061 -6.8878849e-05)
(0 0.00016571884 -6.2475563e-05)
(0 0.00016977161 -5.508777e-05)
(0 0.0001708809 -4.6813874e-05)
(0 0.00016927215 -3.777756e-05)
(0 0.00016503027 -2.8133978e-05)
(0 0.00015811117 -1.804745e-05)
(0 0.00014865145 -7.6908705e-06)
(0 0.00013678713 2.8316075e-06)
(0 0.00012257132 1.3416971e-05)
(0 0.00010624378 2.3858132e-05)
(0 8.8183762e-05 3.3958286e-05)
(0 6.8758711e-05 4.3583377e-05)
(0 4.8326025e-05 5.2525166e-05)
(0 2.7410784e-05 6.0451313e-05)
(0 6.8505675e-06 6.692555e-05)
(0 -1.2217807e-05 7.1161799e-05)
(0 -2.7573446e-05 7.1584673e-05)
(0 -3.4897793e-05 6.4876952e-05)
(0 -2.7347204e-05 4.4548514e-05)
(0 0 0)
(0 7.959053e-05 -4.1908236e-05)
(0 9.3189683e-05 -4.113591e-05)
(0 0.00010529787 -3.9690462e-05)
(0 0.00011544608 -3.7616164e-05)
(0 0.00012331069 -3.4918273e-05)
(0 0.00012877978 -3.1650092e-05)
(0 0.00013186921 -2.790248e-05)
(0 0.00013263326 -2.3710799e-05)
(0 0.00013132311 -1.912953e-05)
(0 0.00012802023 -1.4238628e-05)
(0 0.00012265305 -9.1276751e-06)
(0 0.00011535128 -3.8965856e-06)
(0 0.00010619406 1.4256013e-06)
(0 9.5203483e-05 6.8255658e-06)
(0 8.257871e-05 1.2184949e-05)
(0 6.8608354e-05 1.7390699e-05)
(0 5.3584862e-05 2.2361132e-05)
(0 3.7787975e-05 2.7004238e-05)
(0 2.1655497e-05 3.116252e-05)
(0 5.8851667e-06 3.4558762e-05)
(0 -8.6155181e-06 3.67268e-05)
(0 -2.0065352e-05 3.6821272e-05)
(0 -2.5187472e-05 3.3120979e-05)
(0 -1.9244179e-05 2.2323492e-05)
(0 0 0)
(0 5.4024597e-05 1.740735e-07)
(0 6.3530611e-05 1.3033333e-07)
(0 7.2045418e-05 9.8448147e-08)
(0 7.9195539e-05 5.6673244e-08)
(0 8.4691075e-05 4.8694045e-08)
(0 8.8440105e-05 6.3306962e-08)
(0 9.0497505e-05 5.6924298e-08)
(0 9.091744e-05 4.9372683e-08)
(0 8.9940644e-05 4.7676331e-08)
(0 8.7637435e-05 4.4657759e-08)
(0 8.3934289e-05 2.1696863e-08)
(0 7.8932123e-05 -4.5728934e-08)
(0 7.2681003e-05 -1.2779002e-07)
(0 6.5226529e-05 -1.6325455e-07)
(0 5.6667151e-05 -1.6476607e-07)
(0 4.7154725e-05 -1.616794e-07)
(0 3.6925581e-05 -1.6293745e-07)
(0 2.6170825e-05 -1.5182694e-07)
(0 1.5200904e-05 -1.0517489e-07)
(0 4.532072e-06 -6.5981379e-08)
(0 -5.1969002e-06 -5.0369895e-08)
(0 -1.2764166e-05 -4.4973591e-08)
(0 -1.6052253e-05 -1.6490047e-08)
(0 -1.2144587e-05 6.8182422e-09)
(0 0 0)
(0 2.6835552e-05 4.309659e-05)
(0 3.1901128e-05 4.2182298e-05)
(0 3.6527207e-05 4.0602047e-05)
(0 4.0445153e-05 3.838298e-05)
(0 4.3393094e-05 3.559769e-05)
(0 4.5305468e-05 3.227806e-05)
(0 4.6288978e-05 2.8442102e-05)
(0 4.6390828e-05 2.4162785e-05)
(0 4.5811613e-05 1.9506377e-05)
(0 4.4594538e-05 1.4529933e-05)
(0 4.2674371e-05 9.2839855e-06)
(0 4.011628e-05 3.8255485e-06)
(0 3.6992759e-05 -1.7534613e-06)
(0 3.3322962e-05 -7.335642e-06)
(0 2.9067477e-05 -1.283598e-05)
(0 2.4284837e-05 -1.8200318e-05)
(0 1.9145071e-05 -2.3316881e-05)
(0 1.3739968e-05 -2.8046992e-05)
(0 8.2124839e-06 -3.2231963e-05)
(0 2.8742786e-06 -3.5617945e-05)
(0 -1.9319862e-06 -3.7720778e-05)
(0 -5.6363722e-06 -3.7646295e-05)
(0 -7.2975235e-06 -3.3573828e-05)
(0 -5.5855352e-06 -2.2283732e-05)
(0 0 0)
(0 -8.4223715e-07 8.5664386e-05)
(0 -4.7742816e-07 8.3915418e-05)
(0 2.9968217e-08 8.0825362e-05)
(0 5.1294259e-07 7.6461705e-05)
(0 7.4491779e-07 7.0914599e-05)
(0 7.0506785e-07 6.4272268e-05)
(0 5.5147653e-07 5.6625547e-05)
(0 3.2568228e-07 4.8099117e-05)
(0 1.6745054e-07 3.8817536e-05)
(0 8.8489067e-08 2.889538e-05)
(0 3.8812386e-08 1.8456381e-05)
(0 3.600584e-08 7.6445897e-06)
(0 1.5620142e-07 -3.379206e-06)
(0 3.7481707e-07 -1.4448588e-05)
(0 5.4873631e-07 -2.5380894e-05)
(0 6.7012855e-07 -3.6007044e-05)
(0 7.8259319e-07 -4.6111009e-05)
(0 8.597029e-07 -5.5437135e-05)
(0 8.8233746e-07 -6.3688525e-05)
(0 9.4445251e-07 -7.0328445e-05)
(0 1.0923048e-06 -7.443916e-05)
(0 1.2258861e-06 -7.4296358e-05)
(0 1.1597833e-06 -6.6303825e-05)
(0 7.2752115e-07 -4.4146279e-05)
(0 0 0)
(0 -2.7244287e-05 0.00012677337)
(0 -3.155679e-05 0.00012433636)
(0 -3.5182593e-05 0.00011987243)
(0 -3.8164212e-05 0.00011346981)
(0 -4.068521e-05 0.00010526014)
(0 -4.2712813e-05 9.5404847e-05)
(0 -4.4046129e-05 8.4057389e-05)
(0 -4.4642339e-05 7.1396453e-05)
(0 -4.4422793e-05 5.7608849e-05)
(0 -4.3404962e-05 4.2865902e-05)
(0 -4.1620753e-05 2.7368373e-05)
(0 -3.9112042e-05 1.1354342e-05)
(0 -3.5858393e-05 -4.9387747e-06)
(0 -3.1905907e-05 -2.1281943e-05)
(0 -2.7451124e-05 -3.7398887e-05)
(0 -2.2582645e-05 -5.2994115e-05)
(0 -1.7388987e-05 -6.7777127e-05)
(0 -1.2005565e-05 -8.1419433e-05)
(0 -6.5837195e-06 -9.3465861e-05)
(0 -1.2476382e-06 -0.00010317806)
(0 3.7563612e-06 -0.00010929003)
(0 7.7209368e-06 -0.00010926237)
(0 9.3934331e-06 -9.7891831e-05)
(0 7.0659723e-06 -6.5888185e-05)
(0 0 0)
(0 -5.1258713e-05 0.00016598307)
(0 -5.9908837e-05 0.00016300915)
(0 -6.7395167e-05 0.00015731298)
(0 -7.3643551e-05 0.0001490084)
(0 -7.8764137e-05 0.00013828704)
(0 -8.2677425e-05 0.00012536706)
(0 -8.5167457e-05 0.00011045862)
(0 -8.6179893e-05 9.3801946e-05)
(0 -8.5684737e-05 7.5654838e-05)
(0 -8.3715991e-05 5.6264881e-05)
(0 -8.0299766e-05 3.591155e-05)
(0 -7.552252e-05 1.4921412e-05)
(0 -6.9435408e-05 -6.3805975e-06)
(0 -6.2111975e-05 -2.7685805e-05)
(0 -5.3768079e-05 -4.8639065e-05)
(0 -4.4586199e-05 -6.8852294e-05)
(0 -3.4746148e-05 -8.7960205e-05)
(0 -2.4455542e-05 -0.00010555696)
(0 -1.3975016e-05 -0.0001210625)
(0 -3.6256368e-06 -0.00013362818)
(0 6.0626534e-06 -0.00014173353)
(0 1.3891234e-05 -0.00014218288)
(0 1.7638755e-05 -0.00012843355)
(0 1.3892499e-05 -8.8243704e-05)
(0 0 0)
(0 -7.8676654e-05 0.0002195928)
(0 -9.2064526e-05 0.00021608829)
(0 -0.00010379265 0.00020890317)
(0 -0.00011369169 0.00019819689)
(0 -0.00012173293 0.00018420944)
(0 -0.00012777801 0.00016720489)
(0 -0.00013161373 0.00014747278)
(0 -0.00013316131 0.00012533854)
(0 -0.00013241499 0.00010115795)
(0 -0.00012941181 7.5303616e-05)
(0 -0.0001242007 4.8175943e-05)
(0 -0.00011689665 2.0217307e-05)
(0 -0.0001075931 -8.1186046e-06)
(0 -9.6423444e-05 -3.6389862e-05)
(0 -8.3625989e-05 -6.4125159e-05)
(0 -6.9461907e-05 -9.0832489e-05)
(0 -5.420415e-05 -0.0001160277)
(0 -3.8154021e-05 -0.00013917541)
(0 -2.1689612e-05 -0.00015958898)
(0 -5.3217095e-06 -0.00017628985)
(0 1.0120453e-05 -0.00018749374)
(0 2.2970345e-05 -0.00018941798)
(0 2.9974612e-05 -0.0001739064)
(0 2.5267575e-05 -0.00012480391)
(0 0 0)
(0 0.00010728696 -0.00017582715)
(0 0.0001254968 -0.00017301517)
(0 0.00014160204 -0.00016728313)
(0 0.00015519661 -0.00015874317)
(0 0.00016593625 -0.00014756999)
(0 0.00017365331 -0.00013396644)
(0 0.00017828702 -0.00011817007)
(0 0.00017984316 -0.00010042363)
(0 0.00017845699 -8.1021723e-05)
(0 0.00017418499 -6.030246e-05)
(0 0.00016703903 -3.8601284e-05)
(0 0.00015713404 -1.6271478e-05)
(0 0.00014460856 6.3685112e-06)
(0 0.00012961702 2.8987904e-05)
(0 0.00011243161 5.1199916e-05)
(0 9.340862e-05 7.2617992e-05)
(0 7.2908341e-05 9.2870615e-05)
(0 5.1311292e-05 0.00011150542)
(0 2.9125467e-05 0.00012795389)
(0 7.1472802e-06 0.00014142642)
(0 -1.3457614e-05 0.0001504567)
(0 -3.0529168e-05 0.0001519808)