/*--------------------------------*- C++ -*----------------------------------*\
| =========                 |                                                 |
| \\      /  F ield         | foam-extend: Open Source CFD                    |
|  \\    /   O peration     | Version:     4.1-20200408                       |
|   \\  /    A nd           | Web:         http://www.foam-extend.org         |
|    \\/     M anipulation  |                                                 |
\*---------------------------------------------------------------------------*/
FoamFile
{
    version     2.0;
    format      ascii;
    class       volScalarField;
    location    "0.0460000";
    object      epsilonTrueEq;
}
// * * * * * * * * * * * * * * * * * * * * * * * * * * * * * * * * * * * * * //

dimensions      [0 0 0 0 0 0 0];

internalField   nonuniform List<scalar> 
1952
(
0.0395833
0.039654
0.039749
0.0398631
0.0399858
0.0400993
0.0401902
0.0402289
0.0401962
0.0400616
0.0398131
0.0394384
0.038971
0.0384502
0.0381251
0.0395512
0.0396539
0.0397249
0.0398195
0.039934
0.040056
0.0401697
0.0402598
0.0402978
0.0402642
0.0401285
0.0398796
0.0395039
0.0390367
0.0385153
0.0381927
0.0396218
0.0397235
0.0397944
0.039889
0.0400033
0.0401252
0.0402383
0.0403282
0.0403656
0.0403317
0.0401951
0.0399459
0.0395695
0.0391018
0.0385801
0.0382572
0.0396913
0.0397922
0.0398632
0.0399577
0.0400719
0.0401937
0.0403064
0.0403961
0.0404329
0.0403987
0.0402612
0.0400117
0.0396345
0.0391662
0.038645
0.0383222
0.0397601
0.0398596
0.0399306
0.0400251
0.0401392
0.0402609
0.0403733
0.0404638
0.0405003
0.0404659
0.0403278
0.0400781
0.0397004
0.039231
0.0387093
0.0383864
0.0398275
0.0399269
0.039998
0.0400925
0.0402065
0.0403283
0.0404406
0.040531
0.0405674
0.0405331
0.0403944
0.0401446
0.0397663
0.0392961
0.038774
0.0384507
0.0398948
0.0399937
0.0400649
0.0401595
0.0402735
0.0403955
0.0405078
0.0405978
0.040634
0.0405996
0.0404605
0.0402103
0.0398314
0.0393605
0.0388387
0.0385155
0.0399616
0.0400598
0.0401312
0.0402258
0.0403398
0.0404618
0.040574
0.0406647
0.0407009
0.0406663
0.040527
0.0402766
0.0398971
0.0394257
0.0389031
0.0385796
0.0400277
0.040126
0.0401975
0.0402921
0.0404063
0.0405284
0.0406407
0.0407315
0.0407678
0.0407331
0.0405934
0.0403428
0.0399629
0.039491
0.0389674
0.0386434
0.0400938
0.040192
0.0402637
0.0403585
0.040473
0.0405953
0.0407078
0.040798
0.0408341
0.0407994
0.0406593
0.0404084
0.0400279
0.0395554
0.0390319
0.038708
0.0401598
0.0402578
0.0403294
0.040424
0.040539
0.0406614
0.0407738
0.0408644
0.0409005
0.0408656
0.0407253
0.0404741
0.0400931
0.0396199
0.0390962
0.0387724
0.0402255
0.0403234
0.0403949
0.0404893
0.0406049
0.0407275
0.0408398
0.040931
0.0409671
0.0409321
0.0407915
0.04054
0.0401588
0.039685
0.0391603
0.0388361
0.040291
0.0403889
0.0404605
0.0405551
0.0406709
0.0407937
0.0409062
0.040997
0.041033
0.0409981
0.0408571
0.0406054
0.0402236
0.0397487
0.0392243
0.0389005
0.0403565
0.0404536
0.0405254
0.0406203
0.0407362
0.0408593
0.0409719
0.0410628
0.0410988
0.0410639
0.0409225
0.0406706
0.0402885
0.0398125
0.0392887
0.0389652
0.0404211
0.040518
0.0405899
0.0406851
0.0408011
0.0409242
0.041037
0.0411284
0.0411646
0.0411295
0.040988
0.040736
0.0403538
0.0398779
0.0393531
0.0390296
0.0404855
0.0405818
0.040654
0.0407494
0.0408656
0.0409891
0.0411021
0.041194
0.0412305
0.0411955
0.041054
0.040802
0.0404198
0.0399437
0.0394178
0.0390938
0.0405493
0.0406456
0.040718
0.0408138
0.0409303
0.0410541
0.0411674
0.0412591
0.0412959
0.0412608
0.0411195
0.0408676
0.0404852
0.0400098
0.0394828
0.0391586
0.0406131
0.0407084
0.040781
0.0408772
0.040994
0.0411183
0.0412319
0.0413243
0.0413613
0.0413263
0.0411854
0.0409335
0.0405507
0.0400756
0.039548
0.0392237
0.0406758
0.040771
0.0408439
0.0409404
0.0410576
0.0411824
0.0412962
0.0413894
0.0414266
0.0413917
0.0412513
0.0409997
0.0406166
0.0401414
0.039613
0.0392889
0.0407382
0.0408328
0.040906
0.0410031
0.0411209
0.0412462
0.0413607
0.0414543
0.0414916
0.0414569
0.0413169
0.0410656
0.0406819
0.0402067
0.0396783
0.0393544
0.0407999
0.0408939
0.0409675
0.0410651
0.0411834
0.0413094
0.0414245
0.0415187
0.0415564
0.0415223
0.0413825
0.0411314
0.0407475
0.0402724
0.0397441
0.0394203
0.0408609
0.0409542
0.0410282
0.0411263
0.0412452
0.0413718
0.0414876
0.0415827
0.0416209
0.0415875
0.0414478
0.0411972
0.0408131
0.0403386
0.0398103
0.0394865
0.0409211
0.0410133
0.0410878
0.0411865
0.0413061
0.0414335
0.0415501
0.0416465
0.0416853
0.041653
0.0415137
0.0412637
0.0408797
0.0404051
0.0398767
0.039553
0.0409801
0.0410719
0.0411469
0.0412463
0.0413667
0.0414951
0.0416125
0.0417097
0.0417494
0.0417182
0.0415794
0.0413301
0.0409462
0.0404718
0.0399434
0.0396197
0.0410386
0.0411292
0.0412048
0.041305
0.0414262
0.0415557
0.0416741
0.0417724
0.041813
0.041783
0.0416451
0.0413967
0.041013
0.0405389
0.0400108
0.0396872
0.0410957
0.0411856
0.0412617
0.0413628
0.0414848
0.0416155
0.0417349
0.0418346
0.0418762
0.0418476
0.0417106
0.0414631
0.0410801
0.0406065
0.0400787
0.0397557
0.0411519
0.0412409
0.0413176
0.0414195
0.0415424
0.0416743
0.0417949
0.041896
0.0419389
0.0419117
0.0417759
0.0415296
0.0411474
0.0406746
0.0401475
0.0398252
0.041207
0.0412951
0.0413723
0.0414751
0.0415989
0.0417321
0.0418539
0.0419568
0.0420011
0.0419756
0.0418412
0.0415963
0.0412151
0.0407435
0.0402173
0.0398961
0.041261
0.0413486
0.0414263
0.04153
0.0416547
0.0417893
0.0419123
0.0420169
0.0420627
0.0420391
0.0419064
0.0416631
0.0412833
0.0408131
0.0402881
0.0399683
0.0413143
0.0414014
0.0414796
0.0415842
0.0417097
0.0418457
0.04197
0.0420765
0.0421241
0.0421025
0.0419717
0.0417303
0.0413522
0.0408835
0.0403601
0.0400421
0.041367
0.0414544
0.0415329
0.0416385
0.0417646
0.041902
0.0420275
0.0421356
0.0421849
0.0421654
0.0420369
0.0417975
0.0414215
0.0409549
0.0404338
0.0401181
0.0414198
0.0415081
0.0415868
0.0416931
0.0418196
0.0419581
0.0420846
0.0421943
0.0422454
0.042228
0.0421019
0.0418649
0.0414914
0.0410276
0.0405089
0.0401962
0.0414733
0.0415635
0.0416421
0.0417489
0.0418754
0.0420148
0.0421418
0.0422534
0.0423061
0.0422909
0.0421674
0.041933
0.0415626
0.0411012
0.0405857
0.0402766
0.0415287
0.0416226
0.0417008
0.0418077
0.0419336
0.0420734
0.0422005
0.0423127
0.0423666
0.0423533
0.0422325
0.0420008
0.0416338
0.041176
0.0406646
0.0403599
0.0415879
0.0416866
0.0417637
0.0418703
0.0419949
0.0421343
0.0422605
0.0423731
0.0424277
0.0424159
0.0422976
0.0420687
0.0417056
0.0412523
0.0407461
0.0404468
0.041652
0.0417583
0.0418338
0.0419392
0.0420614
0.0421992
0.0423233
0.0424354
0.0424899
0.0424789
0.0423631
0.0421368
0.0417784
0.0413299
0.0408296
0.0405369
0.0417242
0.0418407
0.0419138
0.0420169
0.0421354
0.0422704
0.0423908
0.042501
0.0425542
0.042543
0.0424289
0.0422052
0.0418515
0.0414082
0.0409148
0.0406303
0.0418072
0.0419377
0.0420073
0.042107
0.0422202
0.0423504
0.0424651
0.042571
0.0426211
0.0426083
0.042495
0.0422732
0.0419246
0.041487
0.0410023
0.0407277
0.0419051
0.0420536
0.0421184
0.0422133
0.042319
0.0424423
0.0425492
0.0426476
0.0426919
0.0426754
0.0425613
0.0423404
0.0419969
0.0415664
0.0410922
0.0408295
0.0420224
0.042194
0.0422525
0.0423406
0.0424361
0.0425494
0.0426459
0.0427339
0.042769
0.0427459
0.0426288
0.0424075
0.0420689
0.0416458
0.0411834
0.0409351
0.0421646
0.0423656
0.0424163
0.0424954
0.0425779
0.0426777
0.0427595
0.0428332
0.0428553
0.0428218
0.0426986
0.0424744
0.0421399
0.0417234
0.0412747
0.0410441
0.0423386
0.0425758
0.0426168
0.0426846
0.042751
0.0428335
0.0428952
0.0429499
0.0429538
0.042905
0.0427712
0.0425407
0.0422082
0.0417983
0.0413661
0.0411563
0.0425516
0.042832
0.0428616
0.0429154
0.0429622
0.0430231
0.0430601
0.0430902
0.0430698
0.0429997
0.0428494
0.0426074
0.0422737
0.0418693
0.0414553
0.0412706
0.0428114
0.0431423
0.0431588
0.0431962
0.0432201
0.0432551
0.0432626
0.0432624
0.0432106
0.0431121
0.0429377
0.0426776
0.0423376
0.0419347
0.0415402
0.0413846
0.0431258
0.0435151
0.0435172
0.0435363
0.0435344
0.0435399
0.0435122
0.0434756
0.043385
0.04325
0.0430421
0.0427551
0.0424004
0.0419938
0.0416184
0.0414952
0.0435032
0.0439564
0.0439434
0.0439428
0.0439131
0.0438863
0.04382
0.0437418
0.0436053
0.0434255
0.0431735
0.0428478
0.0424659
0.0420447
0.0416836
0.041597
0.0439494
0.0444713
0.044443
0.0444223
0.0443644
0.0443041
0.0441969
0.044074
0.0438863
0.0436548
0.0433481
0.0429707
0.0425443
0.0420894
0.0417264
0.0416788
0.0444693
0.0450604
0.0450178
0.0449777
0.0448927
0.0448001
0.0446525
0.0444849
0.0442449
0.0439593
0.0435924
0.0431555
0.0426711
0.0421632
0.0417709
0.0417398
0.0450631
0.0457196
0.0456643
0.0456067
0.0454973
0.0453755
0.0451916
0.0449831
0.0446944
0.0443593
0.0439357
0.0434446
0.0429057
0.0423466
0.041911
0.0418428
0.0457266
0.0464386
0.0463728
0.0463009
0.0461716
0.046025
0.0458107
0.0455673
0.0452364
0.0448591
0.0443851
0.0438492
0.0432644
0.0426622
0.0421806
0.0420331
0.0464491
0.0472008
0.0471273
0.0470445
0.0469007
0.0467345
0.0464959
0.0462242
0.0458571
0.0454426
0.0449187
0.0443361
0.0436926
0.0430237
0.0424626
0.0421907
0.047214
0.0479826
0.0479042
0.0478142
0.0476609
0.047481
0.0472252
0.0469317
0.0465346
0.0460866
0.0455104
0.0448746
0.04415
0.0433843
0.0427123
0.0422981
0.0479974
0.0487541
0.0486734
0.0485798
0.0484223
0.0482343
0.0479692
0.047661
0.0472414
0.0467641
0.0461354
0.0454418
0.0446136
0.0437287
0.0429184
0.0423255
0.0487697
0.0494809
0.0494004
0.0493065
0.0491494
0.0489588
0.0486914
0.0483759
0.0479431
0.0474427
0.0467667
0.0460145
0.0450659
0.0440536
0.0430729
0.0422131
0.0494965
0.0501242
0.0500456
0.0499536
0.0497999
0.04961
0.0493458
0.0490294
0.0485937
0.0480791
0.0473694
0.0465646
0.0454992
0.0443682
0.0431591
0.0419009
0.0501392
0.0506396
0.0505637
0.0504748
0.0503261
0.0501393
0.0498838
0.0495759
0.0491518
0.0486388
0.0479199
0.0470814
0.0459227
0.0446447
0.0430664
0.0412808
0.0506535
0.0510012
0.0509313
0.0508509
0.050715
0.0505399
0.0502952
0.049988
0.0495668
0.0490448
0.0483116
0.0474288
0.0461751
0.044689
0.0426341
0.0402871
0.0510128
0.0511771
0.0511096
0.0510318
0.0509018
0.0507278
0.0504726
0.0501295
0.0496653
0.0490796
0.0482766
0.047283
0.0458872
0.0441838
0.0417541
0.038976
0.0511872
0.0510099
0.0509281
0.0508252
0.050664
0.0504452
0.0501371
0.0497248
0.0491806
0.048489
0.0475736
0.046423
0.0448659
0.0429666
0.0403358
0.0373485
0.0510245
0.0502371
0.0501284
0.0499814
0.0497645
0.0494744
0.0490905
0.0485953
0.0479607
0.0471565
0.0461243
0.0448197
0.0431264
0.0410588
0.0383549
0.03536
0.050261
0.0486535
0.0485197
0.0483322
0.0480648
0.0477136
0.0472634
0.0466953
0.045984
0.0450883
0.0439652
0.0425451
0.0407703
0.0386094
0.0359728
0.033168
0.0486865
0.0461721
0.0460267
0.0458188
0.0455254
0.0451423
0.0446562
0.0440482
0.0432957
0.0423518
0.0411867
0.0397158
0.0379384
0.0357918
0.0333586
0.0309025
0.0462095
0.0428408
0.0427008
0.0424978
0.0422099
0.0418318
0.0413492
0.0407438
0.0399946
0.0390544
0.0379031
0.0364531
0.0347525
0.0327239
0.0305988
0.0286002
0.0428761
0.0388402
0.0387149
0.0385327
0.0382715
0.0379255
0.0374781
0.0369123
0.0362069
0.0353187
0.0342329
0.0328703
0.031315
0.0294926
0.0277554
0.026291
0.0388692
0.0344349
0.0343214
0.0341585
0.0339255
0.0336181
0.0332179
0.0327112
0.032075
0.0312733
0.0302922
0.0290707
0.0277149
0.0261713
0.0248838
0.0240053
0.0344586
0.0299109
0.0297965
0.0296371
0.029415
0.0291306
0.0287663
0.0283149
0.0277519
0.0270513
0.0261965
0.0251532
0.0240364
0.0228292
0.0220361
0.0217688
0.0299342
0.0255136
0.0253864
0.0252121
0.024976
0.0246858
0.0243284
0.0239077
0.0233992
0.0227908
0.0220629
0.021216
0.0203634
0.0195373
0.0192653
0.019605
0.0255415
0.0214093
0.0212674
0.0210716
0.0208053
0.0204832
0.0200995
0.0196743
0.0191858
0.0186393
0.0180159
0.0173607
0.0167802
0.0163638
0.016617
0.0175266
0.0214427
0.017679
0.0175318
0.0173249
0.0170337
0.0166737
0.0162462
0.0157892
0.0152857
0.014761
0.0142027
0.0137069
0.0133778
0.0133688
0.0141147
0.0155255
0.0177146
0.0143521
0.0142097
0.0140095
0.0137175
0.0133432
0.0128861
0.0123961
0.0118605
0.011325
0.0107921
0.0104065
0.0102733
0.0106093
0.011747
0.0135446
0.0143869
0.0114368
0.011296
0.0111026
0.0108232
0.0104677
0.0100236
0.00953442
0.00898506
0.00844687
0.00794978
0.00768047
0.00767467
0.00819789
0.00950697
0.0114884
0.0114728
0.00886662
0.00871651
0.008509
0.00822762
0.00792169
0.00758111
0.00720728
0.00677782
0.00637896
0.00604933
0.00593686
0.00600667
0.00647783
0.00754094
0.0093816
0.00890886
0.00674238
0.00661434
0.00643403
0.00620254
0.00599252
0.00579936
0.00560369
0.00538685
0.00521867
0.00510004
0.00510686
0.00524282
0.00558331
0.00620568
0.00753584
0.0067804
0.00529251
0.00522412
0.00513181
0.00501358
0.00489069
0.00475219
0.00462714
0.00451081
0.00445666
0.00445393
0.00455602
0.0047645
0.00512289
0.00557346
0.00633721
0.00531288
0.0043353
0.0042926
0.00423802
0.00416801
0.00408461
0.00398061
0.00389798
0.00383899
0.00384789
0.00391966
0.00409405
0.00435318
0.00474646
0.00519574
0.00574683
0.00434844
0.00356404
0.00353152
0.00348905
0.00343944
0.0033905
0.0033422
0.00332007
0.00332987
0.00340137
0.00353198
0.00374472
0.00402802
0.00440559
0.00483891
0.00535781
0.00357499
0.00293846
0.00292331
0.00290271
0.00288304
0.00286659
0.00286037
0.00288211
0.00294097
0.00305365
0.00322178
0.00345501
0.00374617
0.00410505
0.00451261
0.00497927
0.00294459
0.00244347
0.0024412
0.00243654
0.00244128
0.00245417
0.00248722
0.00254726
0.00264577
0.00278755
0.00297781
0.0032158
0.00350077
0.00383203
0.00420333
0.00461795
0.00244631
0.00205604
0.00206681
0.00207816
0.00210606
0.00214381
0.00220707
0.00229404
0.00241837
0.00257579
0.00277495
0.00300801
0.00327883
0.0035806
0.0039133
0.00427615
0.00205514
0.00175754
0.00177926
0.0018038
0.00185065
0.00190798
0.00199388
0.00209918
0.00223921
0.00240311
0.00260221
0.00282404
0.00307585
0.00334729
0.00364157
0.00395688
0.00175335
0.00153116
0.00156207
0.00159745
0.00165907
0.00173047
0.00183124
0.00194679
0.0020938
0.00225706
0.00244988
0.002657
0.00288772
0.00312991
0.00338817
0.0036607
0.00152397
0.00136201
0.00139978
0.00144307
0.00151487
0.00159518
0.00170431
0.00182403
0.00197185
0.00212991
0.0023127
0.00250348
0.00271266
0.00292741
0.00315286
0.0033878
0.00135241
0.00123763
0.00127996
0.00132836
0.00140609
0.00149083
0.00160303
0.00172232
0.00186653
0.00201645
0.00218708
0.00236111
0.00254933
0.00273895
0.00293511
0.0031374
0.00122628
0.00114752
0.00119217
0.00124307
0.00132305
0.00140866
0.00151996
0.00163563
0.00177335
0.00191347
0.00207095
0.00222856
0.00239697
0.00256389
0.0027342
0.00290836
0.00113513
0.00108318
0.00112822
0.00117947
0.00125875
0.00134255
0.00145009
0.00156001
0.00168943
0.00181892
0.001963
0.00210494
0.00225499
0.00240162
0.00254932
0.00269941
0.00107039
0.00103773
0.00108164
0.00113157
0.00120799
0.00128806
0.00138991
0.00149276
0.00161287
0.00173147
0.00186235
0.0019896
0.00212285
0.00225144
0.00237946
0.002509
0.00102509
0.00100576
0.00104746
0.00109487
0.00116694
0.00124204
0.00133698
0.00143203
0.00154236
0.00165018
0.00176837
0.00188203
0.00200002
0.00211267
0.00222362
0.00233569
0.000993684
0.00098304
0.00102182
0.00106595
0.00113275
0.00120214
0.00128953
0.00137647
0.00147695
0.00157435
0.00168053
0.00178171
0.00188593
0.00198453
0.00208073
0.00217798
0.000971784
0.00096629
0.00100179
0.00104223
0.00110329
0.00116663
0.00124622
0.00132506
0.00141589
0.00150339
0.00159834
0.00168813
0.00177998
0.00186624
0.00194968
0.00203435
0.000956006
0.000953031
0.000985116
0.00102171
0.00107692
0.00113416
0.001206
0.00127696
0.00135855
0.00143676
0.00152131
0.00160079
0.00168157
0.00175701
0.00182947
0.00190351
0.000943776
0.000941418
0.000970132
0.00100293
0.00105239
0.0011037
0.00116806
0.00123152
0.00130439
0.00137399
0.00144898
0.00151917
0.00159008
0.00165605
0.00171903
0.00178406
0.000933183
0.00093011
0.000955611
0.000984768
0.00102876
0.00107444
0.00113173
0.00118819
0.00125293
0.00131464
0.00138093
0.00144277
0.00150491
0.00156261
0.00161745
0.00167489
0.000922848
0.000918175
0.000940686
0.000966449
0.00100535
0.00104578
0.00109652
0.00114651
0.00120379
0.00125831
0.00131673
0.00137113
0.0014255
0.00147599
0.00152383
0.00157487
0.000911813
0.000904994
0.000924775
0.000947428
0.00098166
0.0010173
0.00106203
0.00110612
0.00115661
0.00120465
0.00125599
0.00130379
0.00135132
0.00139554
0.00143736
0.001483
0.000899448
0.000890198
0.000907517
0.000927362
0.000957375
0.000988674
0.00102796
0.00106675
0.00111112
0.00115336
0.00119839
0.00124034
0.00128186
0.00132066
0.00135734
0.00139845
0.00088538
0.000873598
0.000888723
0.000906063
0.000932301
0.000959722
0.000994138
0.00102818
0.00106707
0.00110417
0.00114359
0.00118042
0.00121667
0.00125077
0.00128304
0.00132032
0.000869423
0.000855148
0.000868333
0.000883459
0.00090635
0.000930336
0.000960419
0.000990264
0.00102429
0.00105686
0.00109133
0.00112369
0.00115535
0.00118542
0.00121393
0.00124802
0.000851534
0.000834896
0.000846379
0.000859564
0.00087951
0.000900479
0.00092674
0.000952896
0.000982642
0.00101124
0.00104138
0.00106985
0.00109753
0.00112415
0.00114944
0.00118083
0.00083177
0.000812963
0.000822961
0.000834457
0.000851828
0.000870166
0.000893077
0.000916018
0.000942013
0.000967161
0.000993525
0.00101865
0.00104289
0.00106657
0.00108914
0.00111827
0.000810256
0.000789513
0.000798222
0.000808257
0.000823388
0.000839448
0.000859441
0.000879597
0.000902328
0.0009245
0.000947592
0.000969842
0.000991134
0.00101232
0.00103259
0.00105984
0.000787166
0.000764739
0.000772333
0.000781113
0.000794304
0.000808404
0.000825867
0.00084363
0.000863533
0.000883155
0.000903426
0.00092323
0.000942
0.00096108
0.000979393
0.00100507
0.000762698
0.000738851
0.000745485
0.000753191
0.000764708
0.00077713
0.000792411
0.000808127
0.000825596
0.000843047
0.000860902
0.000878642
0.000895272
0.000912597
0.00092928
0.000953675
0.00073707
0.000712066
0.000717874
0.000724664
0.000734742
0.000745735
0.000759138
0.000773116
0.000788496
0.000804113
0.000819909
0.000835919
0.000850744
0.000866615
0.000881938
0.000905276
0.000710505
0.000684603
0.000689701
0.000695713
0.000704552
0.000714332
0.000726123
0.000738631
0.000752225
0.000766303
0.000780355
0.000794934
0.000808252
0.000822943
0.000837154
0.000859654
0.000683227
0.000656684
0.000661169
0.00066652
0.000674293
0.000683043
0.000693449
0.000704717
0.000716786
0.000729582
0.000742163
0.000755568
0.000767642
0.000781389
0.000794704
0.00081655
0.000655465
0.00062853
0.000632485
0.00063727
0.000644121
0.000651993
0.000661205
0.000671427
0.000682192
0.000693923
0.000705266
0.000717724
0.000728781
0.000741796
0.000754411
0.000775775
0.000627444
0.000600365
0.000603856
0.000608152
0.000614198
0.000621315
0.000629489
0.000638821
0.000648464
0.00065931
0.000669613
0.000681313
0.000691555
0.000704026
0.000716122
0.000737167
0.000599393
0.000572417
0.000575496
0.000579361
0.000584694
0.000591148
0.000598407
0.000606968
0.000615632
0.000625736
0.000635157
0.00064626
0.000655858
0.000667948
0.000679691
0.000700569
0.000571545
0.000544922
0.000547628
0.000551101
0.000555789
0.000561643
0.000568076
0.00057595
0.000583742
0.000593206
0.000601868
0.000612499
0.000621598
0.000633454
0.000645008
0.000665874
0.000544141
0.000518129
0.000520488
0.000523592
0.000527681
0.000532969
0.000538636
0.000545867
0.000552854
0.00056174
0.000569727
0.000579974
0.00058869
0.000600435
0.000611953
0.00063296
0.000517434
0.000492301
0.00049433
0.000497071
0.000500586
0.000505315
0.000510244
0.000516839
0.000523052
0.000531376
0.000538729
0.000548639
0.000557055
0.000568788
0.000580422
0.000601728
0.000491689
0.000467716
0.000469423
0.000471792
0.000474745
0.000478894
0.000483091
0.000489015
0.000494449
0.000502176
0.000508891
0.00051846
0.000526622
0.00053841
0.000550312
0.000572087
0.000467191
0.00044467
0.000446058
0.000448036
0.000450427
0.000453954
0.000457402
0.000462585
0.000467198
0.000474239
0.000480264
0.000489426
0.000497324
0.000509191
0.000521499
0.000543918
0.000444235
0.000423471
0.000424542
0.000426104
0.000427927
0.000430775
0.000433447
0.000437786
0.000441512
0.000447719
0.000452946
0.000461559
0.000469117
0.000481022
0.000493858
0.000517107
0.000423133
0.000404432
0.000405192
0.000406312
0.000407568
0.000409676
0.000411545
0.000414917
0.000417672
0.000422845
0.000427119
0.000434946
0.000441996
0.000453802
0.000467237
0.000491486
0.000404195
0.000387862
0.000388324
0.000388988
0.000389693
0.000391009
0.000392068
0.000394346
0.000396055
0.000399951
0.00040308
0.000409777
0.000416044
0.000427483
0.000441495
0.000466834
0.000387731
0.00037405
0.000374242
0.000374451
0.000374648
0.00037515
0.000375431
0.000376518
0.000377142
0.000379508
0.000381286
0.000386392
0.000391457
0.000402061
0.000416448
0.000442862
0.000374023
0.000363237
0.000363199
0.000362981
0.000362746
0.000362461
0.000362053
0.000361923
0.000361505
0.00036214
0.000362405
0.000365354
0.00036861
0.000377504
0.000391595
0.000419014
0.000363306
0.000355553
0.00035534
0.00035475
0.00035419
0.000353205
0.000352268
0.000351007
0.000349725
0.000348601
0.000347392
0.000347705
0.000348555
0.000354344
0.000366577
0.000394423
0.000355705
0.000351028
0.00035071
0.000349827
0.000349089
0.000347545
0.000346326
0.000344148
0.000342384
0.000339777
0.000337603
0.000335408
0.000334083
0.00033577
0.000344228
0.000369841
0.000351243
0.00035073
0.000350367
0.00034927
0.000348476
0.00034652
0.000345227
0.000342374
0.000340469
0.000336776
0.000334211
0.000330106
0.000327379
0.00032498
0.000327702
0.000344048
0.000350992
0.000352183
0.000351811
0.000350631
0.000349837
0.000347717
0.00034643
0.0003433
0.000341384
0.000337229
0.000334549
0.000329592
0.000326274
0.000321805
0.000321309
0.000329623
0.000352462
)
;

boundaryField
{
    wireUpstream
    {
        type            calculated;
        value           nonuniform List<scalar> 
16
(
0.000354012
0.000353662
0.000352411
0.000351685
0.000349415
0.000348243
0.000344843
0.000343067
0.000338438
0.000335821
0.000329954
0.000326232
0.000319727
0.000316246
0.000314037
0.000354303
)
;
    }
    wireDownstream
    {
        type            calculated;
        value           nonuniform List<scalar> 
16
(
0.0395834
0.0396538
0.039749
0.0398624
0.0399855
0.0400983
0.0401897
0.0402279
0.0401953
0.0400609
0.0398124
0.0394382
0.0389703
0.0384495
0.0381215
0.0395513
)
;
    }
    wireTopContact
    {
        type            calculated;
        value           nonuniform List<scalar> 
122
(
0.0381554
0.0382197
0.0382847
0.0383489
0.0384132
0.038478
0.038542
0.0386058
0.0386703
0.0387347
0.0387984
0.0388627
0.0389274
0.0389918
0.0390561
0.0391209
0.039186
0.0392511
0.0393166
0.0393825
0.0394486
0.039515
0.0395817
0.0396491
0.0397175
0.039787
0.0398578
0.0399299
0.0400036
0.0400794
0.0401574
0.0402376
0.0403208
0.0404076
0.0404976
0.040591
0.0406883
0.0407901
0.0408959
0.0410051
0.0411179
0.041233
0.0413482
0.0414606
0.0415653
0.0416525
0.0417182
0.0418247
0.0420282
0.0421905
0.0423023
0.0423337
0.04222
0.0418996
0.0412677
0.0402624
0.0389391
0.0372982
0.0352811
0.0330609
0.0307743
0.028457
0.02614
0.023855
0.0216276
0.0194807
0.0174257
0.0154542
0.0135074
0.0114837
0.00940037
0.00755735
0.00633702
0.00574607
0.00536159
0.00498346
0.00462178
0.00427941
0.00395971
0.00366316
0.00339
0.00313941
0.00291022
0.00270115
0.00251064
0.00233723
0.00217942
0.00203568
0.00190473
0.00178517
0.00167588
0.00157574
0.00148374
0.00139908
0.00132083
0.00124843
0.00118112
0.00111847
0.00105994
0.00100507
0.000953593
0.000905102
0.000859398
0.00081621
0.000775351
0.000736662
0.000699979
0.000665202
0.000632206
0.000600895
0.000571182
0.000542951
0.000516104
0.000490489
0.0004659
0.000442078
0.000418585
0.000394838
0.000371665
0.000347344
0.000333021
0.0380875
)
;
    }
    front
    {
        type            wedge;
    }
    back
    {
        type            wedge;
    }
}


// ************************************************************************* //
