/*--------------------------------*- C++ -*----------------------------------*\
| =========                 |                                                 |
| \\      /  F ield         | OpenFOAM: The Open Source CFD Toolbox           |
|  \\    /   O peration     | Version:  4.1                                   |
|   \\  /    A nd           | Web:      www.OpenFOAM.org                      |
|    \\/     M anipulation  |                                                 |
\*---------------------------------------------------------------------------*/
FoamFile
{
    version     2.0;
    format      ascii;
    class       surfaceVectorField;
    location    "0.000530";
    object      Uf;
}
// * * * * * * * * * * * * * * * * * * * * * * * * * * * * * * * * * * * * * //

dimensions      [0 1 -1 0 0 0 0];

internalField   nonuniform List<vector> 
8704
(
(15.310273 -0.076150231 -2.1650779e-05)
(14.885591 -0.070570953 -0.0023042686)
(14.883507 -0.071021203 0.0024450369)
(15.246395 -0.071873659 -0.0043555026)
(15.246446 -0.071934916 0.0041185557)
(15.293375 -0.068210495 -1.7824874e-05)
(14.867172 -0.063526193 -0.00066669133)
(14.865774 -0.06393976 0.0010558641)
(15.21233 -0.06645273 -0.0035671896)
(15.212315 -0.066486897 0.00364844)
(15.29435 -0.06070961 -0.00019439136)
(14.866006 -0.057177685 0.00095229577)
(14.865322 -0.057441462 -0.00088493811)
(15.197407 -0.061089727 -0.0028654992)
(15.197403 -0.06108909 0.0028015545)
(15.317107 -0.052563583 -0.00040563771)
(14.882454 -0.050980867 0.0029217151)
(14.882243 -0.0511607 -0.0033858765)
(15.20287 -0.05637996 -0.0021207605)
(15.20288 -0.0563776 0.0016225707)
(15.362483 -0.041242547 -0.00051869213)
(14.923725 -0.043394723 0.0050066908)
(14.923665 -0.043545766 -0.0058971289)
(15.237136 -0.050599684 -0.0014385268)
(15.237109 -0.05056813 0.00061807666)
(15.418555 -0.025009988 -0.00052847883)
(14.985061 -0.032517087 0.0061954011)
(14.984962 -0.032639814 -0.007203751)
(15.296859 -0.041011684 -0.00250879)
(15.296776 -0.041029604 0.0015793057)
(15.473519 -0.0088167329 -0.00053105565)
(15.055675 -0.017323913 0.0058534957)
(15.055183 -0.017439242 -0.006859199)
(15.381512 -0.027218517 -0.0054576828)
(15.381498 -0.027254783 0.0045135523)
(15.54846 0.0041255984 -0.00057808153)
(15.135423 -0.0041154382 0.0066664985)
(15.135145 -0.0042240932 -0.0077154443)
(15.503059 -0.018451697 -0.0072700349)
(15.502986 -0.018484856 0.0062191212)
(15.654686 0.014736701 -0.00055429731)
(15.244118 0.0085208052 0.0077391327)
(15.243904 0.00844226 -0.008928765)
(15.659046 -0.011245167 -0.0076450661)
(15.658949 -0.01124844 0.0064587748)
(15.800148 0.021665508 -0.00032265914)
(15.377487 0.019439153 0.0090894488)
(15.37718 0.019287161 -0.0099922976)
(15.865206 -0.0060928848 -0.0068342025)
(15.86513 -0.006095245 0.0058073747)
(16.000251 0.02723595 7.1018407e-05)
(15.551437 0.028141332 0.011468669)
(15.551359 0.027939627 -0.011620945)
(16.109103 -0.0043179818 -0.0037734841)
(16.108952 -0.0043579755 0.003348668)
(16.248023 0.03284755 0.00043973495)
(15.763428 0.0375474 0.013203169)
(15.763682 0.037406162 -0.012500504)
(16.396693 -0.00034059242 -0.0006015972)
(16.39644 -0.00046176518 0.00099461235)
(16.538472 0.0398362 0.00066663952)
(16.008769 0.04585709 0.014533926)
(16.008918 0.045813276 -0.013312595)
(16.713267 0.0038610364 0.0029558783)
(16.713053 0.0037687879 -0.0019233093)
(16.859277 0.052237385 0.0007834404)
(16.277918 0.057148154 0.015217555)
(16.277778 0.05714883 -0.013715218)
(17.042946 0.012868488 0.0060216168)
(17.042708 0.01274743 -0.0047414223)
(17.189417 0.076001835 0.00083431909)
(16.562319 0.073580326 0.015222045)
(16.561739 0.073618908 -0.013602188)
(17.382264 0.031069218 0.0085052977)
(17.381961 0.030928925 -0.007080054)
(17.503489 0.1184425 0.00085650451)
(16.83317 0.10276558 0.01505853)
(16.832203 0.10282042 -0.0134336)
(17.691826 0.067658544 0.01052522)
(17.691486 0.067511052 -0.0090032231)
(17.761483 0.17723607 0.00086482114)
(17.071849 0.14784133 0.014905342)
(17.07074 0.14787921 -0.013270895)
(17.967629 0.1306802 0.011780678)
(17.967295 0.13053082 -0.010170581)
(17.904104 0.23106967 0.00088001527)
(17.228274 0.19648106 0.015039953)
(17.227234 0.19645142 -0.013365068)
(18.156423 0.21344276 0.011563818)
(18.156163 0.21327584 -0.0099758844)
(17.858031 0.22928109 0.00093863906)
(17.252405 0.21628462 0.014464937)
(17.251617 0.21621343 -0.012751012)
(18.213671 0.28622025 0.0088871383)
(18.213453 0.2861293 -0.0071963718)
(17.570557 0.072159503 0.00099805914)
(17.073936 0.14232621 0.012198406)
(17.073611 0.14222505 -0.01024651)
(18.046485 0.27555722 0.0036109337)
(18.046281 0.27546148 -0.0017835353)
(17.119876 -0.29965242 0.00089168476)
(16.724506 -0.13418484 0.0076495057)
(16.724744 -0.13423988 -0.00573121)
(17.643266 0.033400426 -3.9167196e-05)
(17.643125 0.03337659 0.0019905499)
(16.73366 -0.67172481 0.00059451759)
(16.381392 -0.57468069 0.0028658922)
(16.382116 -0.57461581 -0.0015575228)
(17.110825 -0.44406832 0.0031673852)
(17.110783 -0.4440619 -0.0016164865)
(16.548056 -0.75223363 0.00034267785)
(16.230928 -0.78853529 -0.0062863865)
(16.231682 -0.78836114 0.0067977286)
(16.590359 -0.73568097 0.012481618)
(16.590387 -0.73564357 -0.011561392)
(16.43694 -0.6892035 -0.02659911)
(16.437409 -0.68888635 0.026807203)
(16.490542 -0.63551276 0.027553887)
(16.490586 -0.63551521 -0.026882142)
(14.428935 -0.056519675 -0.0018726085)
(14.291257 -0.054191555 -0.0050971047)
(13.910472 -0.053480772 -0.0016329082)
(14.51901 -0.053467397 -0.0091099632)
(14.425096 -0.050515729 0.0018622184)
(14.285349 -0.04812287 0.00040228828)
(13.9042 -0.048037064 0.00052944984)
(14.50101 -0.048046793 -0.0045608923)
(14.438521 -0.044872983 0.0061614418)
(14.294049 -0.043021351 0.0065077509)
(13.916319 -0.04380915 0.0028490985)
(14.500651 -0.043396701 0.000498383)
(14.472861 -0.038490121 0.011097123)
(14.318874 -0.037777064 0.013701127)
(13.948642 -0.03944419 0.0055559062)
(14.520207 -0.038909138 0.0064768047)
(14.530793 -0.02955136 0.016064566)
(14.364357 -0.031150132 0.021840302)
(14.005981 -0.034124716 0.0087301832)
(14.566034 -0.033616565 0.013282669)
(14.611866 -0.016095648 0.020125481)
(14.429603 -0.020893741 0.030228427)
(14.08846 -0.026378494 0.012426991)
(14.6381 -0.025227063 0.019500095)
(14.707665 -0.00078609201 0.023476364)
(14.512058 -0.0051983434 0.037542347)
(14.197659 -0.014381836 0.015875803)
(14.741586 -0.010296104 0.021677378)
(14.823281 0.013496322 0.02688058)
(14.605149 0.0084751208 0.043874648)
(14.326894 -0.0026369665 0.018946628)
(14.879883 0.001264388 0.025129405)
(14.962504 0.026895037 0.029980401)
(14.71998 0.021582966 0.050015853)
(14.479131 0.0097463058 0.02165958)
(15.044547 0.012270558 0.029405336)
(15.125341 0.0385807 0.032839835)
(14.854877 0.033245912 0.054492859)
(14.654091 0.021813989 0.023941969)
(15.246393 0.022063006 0.03373776)
(15.315327 0.049271621 0.035087806)
(15.014139 0.042949126 0.058301154)
(14.848869 0.033524458 0.025678069)
(15.471289 0.029699754 0.038849795)
(15.526635 0.059269749 0.035970909)
(15.195161 0.052297056 0.059651842)
(15.061165 0.045610733 0.026473993)
(15.720836 0.038131684 0.042871503)
(15.754061 0.069581457 0.035655194)
(15.392991 0.060035937 0.058659369)
(15.282142 0.057001175 0.026039632)
(15.983931 0.046064404 0.045433977)
(15.988625 0.082756499 0.034171453)
(15.600421 0.069488386 0.055531419)
(15.503371 0.070252103 0.024837241)
(16.248016 0.056945691 0.046540018)
(16.216 0.10252043 0.031864133)
(15.809056 0.081859146 0.049967101)
(15.715971 0.086297907 0.022839634)
(16.509374 0.073253188 0.045787468)
(16.415153 0.13227637 0.02932206)
(15.997831 0.10223767 0.043102869)
(15.902294 0.10957367 0.020393262)
(16.739028 0.10163922 0.044045932)
(16.553511 0.16522237 0.026960742)
(16.146578 0.13022861 0.03564609)
(16.042668 0.13863798 0.017847322)
(16.924575 0.14517798 0.041597851)
(16.590455 0.17812023 0.024128918)
(16.221094 0.15213965 0.028702992)
(16.106185 0.15831398 0.015393133)
(17.025977 0.19246031 0.038278097)
(16.488418 0.12510861 0.019610774)
(16.189627 0.13949555 0.021928237)
(16.066714 0.13820675 0.012217686)
(17.008333 0.21327146 0.03135711)
(16.254088 -0.066414844 0.01350215)
(16.027713 0.040891946 0.016064597)
(15.907404 0.026904927 0.0075027362)
(16.824931 0.14256774 0.021300576)
(16.021185 -0.40884083 0.0068493058)
(15.813229 -0.21474328 0.013873495)
(15.714975 -0.24284744 0.0019273356)
(16.526944 -0.12608526 0.011940524)
(15.995391 -0.69216911 -0.0058557942)
(15.724954 -0.5652595 0.012402967)
(15.676548 -0.59728587 -0.0044542095)
(16.271034 -0.54808416 0.0043307003)
(16.138292 -0.72394667 -0.0313524)
(15.874938 -0.69597871 -0.015425735)
(15.889015 -0.71504499 -0.018252009)
(16.159613 -0.74294534 -0.017247462)
(16.279067 -0.60928776 -0.060764233)
(16.314103 -0.61024675 -0.037094576)
(16.363076 -0.63657278 -0.041692077)
(14.138743 -0.046213345 -0.0031327575)
(14.032932 -0.041074209 -0.0063058478)
(13.681315 -0.043319335 -0.0071331645)
(14.220307 -0.04348782 -0.012016539)
(14.144339 -0.041171944 0.0046275812)
(14.033596 -0.036018781 0.002699106)
(13.686263 -0.038625822 -0.0012195394)
(14.212958 -0.038538958 -0.0033238667)
(14.163612 -0.036443421 0.013630106)
(14.046405 -0.03194281 0.013073708)
(13.706111 -0.035113497 0.0055343328)
(14.219796 -0.034460132 0.0064622098)
(14.198995 -0.030933917 0.024013428)
(14.073432 -0.027705299 0.025224722)
(13.742796 -0.031543218 0.013540581)
(14.243247 -0.03040821 0.017905213)
(14.252562 -0.023093799 0.035436487)
(14.116864 -0.022464637 0.039005747)
(13.798597 -0.026922445 0.022728312)
(14.287242 -0.025419754 0.031062988)
(14.323329 -0.010912418 0.046743036)
(14.176858 -0.014369772 0.053911176)
(13.874011 -0.019689785 0.032947863)
(14.352682 -0.017105715 0.045217353)
(14.403684 0.0034859528 0.057297857)
(14.250597 -0.0016086913 0.06818252)
(13.967341 -0.009749281 0.044044868)
(14.439304 -0.0039556568 0.058430234)
(14.497596 0.016807635 0.067070685)
(14.331085 0.011735492 0.082249277)
(14.075606 0.00091920459 0.053770315)
(14.552747 0.010032557 0.068709685)
(14.610507 0.028922585 0.075271839)
(14.428273 0.023384251 0.09435487)
(14.20293 0.011272888 0.062501296)
(14.688044 0.020609676 0.080113254)
(14.742767 0.039527014 0.081603831)
(14.541289 0.034209122 0.10401556)
(14.34821 0.021428094 0.069323819)
(14.85145 0.030778386 0.089214572)
(14.896096 0.048686706 0.085364421)
(14.672278 0.043327675 0.11127526)
(14.511448 0.030833124 0.074296904)
(15.038071 0.038568005 0.096841638)
(15.065131 0.056540187 0.085716762)
(14.818874 0.051136364 0.11388802)
(14.687118 0.039980311 0.075906214)
(15.24297 0.045983688 0.10096473)
(15.245112 0.064125804 0.082788228)
(14.977255 0.057191665 0.11222117)
(14.869233 0.048126413 0.074357693)
(15.460753 0.052344881 0.10141931)
(15.427607 0.073326108 0.076342944)
(15.142058 0.063858311 0.10619333)
(15.049619 0.057470677 0.069636156)
(15.678472 0.060310179 0.098249882)
(15.59868 0.086655094 0.066798643)
(15.304325 0.072151265 0.09501282)
(15.218658 0.068530147 0.061735279)
(15.891258 0.071665566 0.090386421)
(15.739033 0.10542561 0.055395616)
(15.446614 0.085176842 0.080180066)
(15.359753 0.084138075 0.051509509)
(16.073136 0.0911489 0.079235612)
(15.823289 0.12250126 0.043622886)
(15.55038 0.1011385 0.063233557)
(15.455728 0.10147583 0.040058439)
(16.208948 0.11939547 0.065831092)
(15.826913 0.11874125 0.032550375)
(15.593473 0.10822044 0.047007203)
(15.488873 0.10745884 0.02938715)
(16.269594 0.1453184 0.0511587)
(15.740966 0.05976051 0.023183816)
(15.558693 0.084272396 0.033000632)
(15.451187 0.079437846 0.020514849)
(16.233307 0.14346832 0.035205858)
(15.605193 -0.10468547 0.018313023)
(15.451428 -0.0074737855 0.024516377)
(15.357233 -0.017740117 0.015658292)
(16.088996 0.063981381 0.020335407)
(15.552993 -0.37264047 0.015763363)
(15.367422 -0.21451593 0.024955379)
(15.30797 -0.22770907 0.017145969)
(15.919745 -0.16803298 0.013820535)
(15.720093 -0.57563403 -0.0052744696)
(15.446987 -0.47958687 0.018018264)
(15.441829 -0.48629733 0.011797294)
(15.869522 -0.50255521 0.0090766694)
(15.985899 -0.58504567 -0.048925314)
(15.727034 -0.56086503 -0.032567644)
(15.776438 -0.55561691 -0.028420453)
(15.970008 -0.62924044 -0.037787012)
(16.190738 -0.47713386 -0.077013733)
(16.247137 -0.4727858 -0.073331664)
(16.285948 -0.50923035 -0.12287128)
(13.918247 -0.03293125 -0.0020971889)
(13.804199 -0.028467079 -0.009058633)
(13.547055 -0.03025128 -0.0091148953)
(13.975172 -0.030656481 -0.014303517)
(13.925178 -0.028940722 0.009430558)
(13.804834 -0.024606945 0.0029926572)
(13.554641 -0.026523318 6.9461469e-05)
(13.967797 -0.026540894 -0.0017053389)
(13.944993 -0.025324828 0.02295387)
(13.816848 -0.021463812 0.017420707)
(13.575566 -0.023937003 0.01106862)
(13.973197 -0.023288761 0.012891886)
(13.979577 -0.021236225 0.038562603)
(13.843034 -0.018478089 0.034279251)
(13.612328 -0.021413595 0.023931582)
(13.994598 -0.020208483 0.029839701)
(14.030319 -0.01547532 0.055994759)
(13.884274 -0.014967481 0.053484788)
(13.66577 -0.018265991 0.038661229)
(14.034151 -0.01639671 0.049136253)
(14.096565 -0.006418662 0.074126343)
(13.941161 -0.0095226275 0.074716095)
(13.736464 -0.013294675 0.055152955)
(14.09324 -0.0099940109 0.070549255)
(14.171368 0.0050621376 0.091644332)
(14.011507 -0.00067250759 0.096286648)
(13.82317 -0.005687637 0.07226556)
(14.170872 0.0015379345 0.091547317)
(14.256927 0.016867182 0.10812082)
(14.089207 0.0089682137 0.11604398)
(13.922861 0.0018573134 0.089331936)
(14.269378 0.011235519 0.11284447)
(14.356132 0.027966929 0.12232937)
(14.177364 0.020303754 0.13567962)
(14.038318 0.010869754 0.10422437)
(14.388036 0.023828983 0.12917527)
(14.468978 0.037411874 0.13299439)
(14.279537 0.029888814 0.15082524)
(14.168226 0.019104627 0.11658848)
(14.527477 0.033876001 0.14370498)
(14.596066 0.045154931 0.13907352)
(14.392631 0.03751326 0.16160275)
(14.310754 0.026481481 0.12528867)
(14.687529 0.041361415 0.1549476)
(14.733834 0.051261277 0.13976604)
(14.516842 0.043713886 0.16589564)
(14.461253 0.033446238 0.12852617)
(14.860774 0.048041497 0.16011671)
(14.878955 0.056433203 0.13505071)
(14.648345 0.048270773 0.1638438)
(14.614902 0.039144481 0.12681105)
(15.046878 0.052764447 0.15977151)
(15.024773 0.06217522 0.12429629)
(14.784127 0.052583362 0.15495396)
(14.76598 0.045312626 0.1196241)
(15.232663 0.057440152 0.15345114)
(15.1593 0.070156563 0.10785882)
(14.915817 0.057864327 0.13864412)
(14.905082 0.05246049 0.10658477)
(15.412081 0.064259393 0.13929854)
(15.266837 0.080475439 0.087637509)
(15.030117 0.065481305 0.11644009)
(15.01896 0.062093 0.089038132)
(15.565642 0.075778341 0.11932323)
(15.328544 0.086700537 0.06651594)
(15.111627 0.073430331 0.091135261)
(15.093761 0.071527044 0.069067664)
(15.676928 0.092006021 0.095103684)
(15.331014 0.07403389 0.04773232)
(15.147834 0.071649374 0.067029023)
(15.1207 0.070459861 0.050186986)
(15.726971 0.10277786 0.070184459)
(15.28093 0.018169637 0.03524747)
(15.130874 0.044109656 0.048726631)
(15.100651 0.042702227 0.036042027)
(15.701163 0.08824505 0.047681558)
(15.231479 -0.11484317 0.032994736)
(15.083505 -0.033782507 0.043443149)
(15.062566 -0.035105376 0.0319615)
(15.609769 0.012203685 0.033623902)
(15.301382 -0.31790611 0.03015633)
(15.106091 -0.19254182 0.051975216)
(15.106767 -0.19158914 0.038698011)
(15.54784 -0.17742021 0.03333832)
(15.572612 -0.46224003 -0.0062578726)
(15.297408 -0.38448372 0.039317366)
(15.329082 -0.37609839 0.026606017)
(15.629175 -0.43375124 0.020829762)
(15.880482 -0.4584349 -0.066128392)
(15.638503 -0.43416455 -0.04097824)
(15.704963 -0.41605997 -0.042305706)
(15.836608 -0.51623619 -0.057432022)
(16.118987 -0.3677802 -0.10698293)
(16.186922 -0.3446006 -0.10600374)
(16.205362 -0.4299003 -0.14394167)
(13.680734 -0.021227323 -0.0047980431)
(13.553391 -0.017718805 -0.014645735)
(13.409897 -0.018040526 -0.013123307)
(13.70284 -0.020174113 -0.021390215)
(13.685656 -0.018329462 0.010058441)
(13.550546 -0.014795636 1.3157543e-05)
(13.416312 -0.015716058 -0.0010004866)
(13.688635 -0.017047644 -0.0052141327)
(13.703326 -0.015862411 0.027773502)
(13.559388 -0.012485501 0.018005406)
(13.434753 -0.014134967 0.01373944)
(13.686601 -0.014669875 0.014012221)
(13.735802 -0.013326142 0.048316535)
(13.582891 -0.010539844 0.039299684)
(13.468235 -0.012838831 0.031162919)
(13.700796 -0.012582302 0.036373519)
(13.784193 -0.0099125435 0.071478763)
(13.621774 -0.0086491194 0.063683018)
(13.517537 -0.011374216 0.051070201)
(13.73284 -0.010197241 0.061732274)
(13.847816 -0.0044437151 0.096311689)
(13.676989 -0.0059010391 0.09088506)
(13.583519 -0.0087856305 0.07328215)
(13.784423 -0.006058903 0.089929822)
(13.922184 0.0031098671 0.12058521)
(13.747199 -0.0011546069 0.11945964)
(13.665174 -0.0043632355 0.096740539)
(13.854538 0.0017760576 0.11917902)
(14.004085 0.0118867 0.14310377)
(13.829177 0.0051170507 0.14634713)
(13.759885 0.00058128199 0.11940972)
(13.941352 0.011437267 0.14611344)
(14.097245 0.021512023 0.16349057)
(13.918709 0.012068323 0.16970726)
(13.866785 0.0054947698 0.14147716)
(14.048635 0.017066663 0.17427577)
(14.200687 0.030106017 0.17954718)
(14.019664 0.021990356 0.19261356)
(13.98819 0.012761455 0.15941222)
(14.174673 0.029547569 0.19323446)
(14.313763 0.036487723 0.18885855)
(14.130391 0.028282637 0.20829272)
(14.118879 0.018340421 0.17197507)
(14.318586 0.037935823 0.20824484)
(14.433587 0.041254252 0.19055822)
(14.246442 0.033046887 0.21532272)
(14.256343 0.02281812 0.17767911)
(14.475516 0.044217085 0.2157701)
(14.557669 0.044897387 0.18431549)
(14.366953 0.036497378 0.21332257)
(14.394877 0.026491713 0.17595697)
(14.641182 0.048076198 0.21523484)
(14.680619 0.048562099 0.16971337)
(14.487168 0.039543885 0.20174686)
(14.529756 0.030304417 0.16642858)
(14.809528 0.050878824 0.20582683)
(14.793269 0.053273889 0.14745706)
(14.602815 0.04309505 0.18056173)
(14.652717 0.03474294 0.14897933)
(14.970788 0.054492113 0.18677205)
(14.883162 0.058341184 0.11999393)
(14.701806 0.047710891 0.15192207)
(14.753221 0.040334866 0.12531833)
(15.112125 0.060638186 0.15926128)
(14.938016 0.058193201 0.091562197)
(14.773918 0.051233983 0.11936362)
(14.82075 0.045111007 0.098355984)
(15.216521 0.068063273 0.12626551)
(14.953045 0.041707905 0.067986652)
(14.813526 0.04523037 0.089226088)
(14.852659 0.041227198 0.073246673)
(15.274051 0.068579201 0.093097497)
(14.945719 -0.007315991 0.057200256)
(14.822349 0.018641296 0.06979213)
(14.855441 0.017813896 0.056867592)
(15.274958 0.046987847 0.067102693)
(14.975314 -0.11003471 0.063292702)
(14.834226 -0.043155337 0.073117971)
(14.866526 -0.039553793 0.058818558)
(15.244012 -0.021362643 0.058895149)
(15.143441 -0.25699763 0.062797157)
(14.949356 -0.15767828 0.095092324)
(14.984485 -0.147719 0.075271857)
(15.281336 -0.16975199 0.068006253)
(15.487751 -0.35492955 0.0065071698)
(15.226497 -0.28884426 0.077448997)
(15.270064 -0.26952552 0.056318332)
(15.466978 -0.35747862 0.046100935)
(15.813791 -0.34489931 -0.082919959)
(15.595754 -0.31683584 -0.041690837)
(15.661823 -0.2888097 -0.046682179)
(15.738139 -0.40961764 -0.072612485)
(16.062631 -0.26181328 -0.14327906)
(16.134059 -0.23683744 -0.12992254)
(16.126636 -0.34926444 -0.1854513)
(13.412436 -0.012297692 -0.010607464)
(13.282948 -0.010126844 -0.02300213)
(13.246573 -0.0085360123 -0.018559012)
(13.391401 -0.01406991 -0.033974286)
(13.412802 -0.010074879 0.0070979027)
(13.273268 -0.0076595585 -0.0062849193)
(13.248341 -0.0073963968 -0.0039249463)
(13.364104 -0.011640253 -0.014255868)
(13.426805 -0.0083178005 0.02863956)
(13.277153 -0.0056472969 0.014844321)
(13.262199 -0.0066481565 0.014307796)
(13.34979 -0.009594591 0.0095671269)
(13.456532 -0.0069276411 0.053840398)
(13.297188 -0.0042282723 0.04027125)
(13.291054 -0.0062916033 0.03601911)
(13.352364 -0.0078837789 0.037423136)
(13.503248 -0.0054812423 0.082440283)
(13.334653 -0.0033834156 0.069699759)
(13.335959 -0.0061757565 0.060863273)
(13.374406 -0.0062726538 0.068953333)
(13.567122 -0.0031372717 0.11364814)
(13.390902 -0.0025228587 0.10285535)
(13.398254 -0.0056606813 0.088568572)
(13.417998 -0.0038642853 0.10386928)
(13.646564 0.00062817674 0.14509566)
(13.465853 -0.00073129998 0.13837726)
(13.478104 -0.0040126986 0.118059)
(13.483841 0.00066602294 0.14086278)
(13.737628 0.0058551443 0.17356438)
(13.558277 0.0022920384 0.17276243)
(13.574638 -0.0016191031 0.14694272)
(13.571095 0.0075027164 0.1763892)
(13.83627 0.013030001 0.19937281)
(13.663154 0.006599332 0.20203075)
(13.6837 0.00077365928 0.17342391)
(13.674668 0.014345378 0.20803979)
(13.946445 0.020451867 0.22174509)
(13.779777 0.013844153 0.22930847)
(13.805031 0.0047953209 0.19854976)
(13.797371 0.020348373 0.2392301)
(14.062948 0.025311185 0.23534473)
(13.905988 0.019837575 0.25325254)
(13.938166 0.008694441 0.21638521)
(13.939675 0.031222222 0.25889872)
(14.181467 0.028371501 0.23829841)
(14.034841 0.022083956 0.26296464)
(14.07443 0.010981719 0.22382162)
(14.091789 0.036490583 0.26926657)
(14.300305 0.031367893 0.23115296)
(14.165482 0.024697973 0.26137293)
(14.21192 0.013124463 0.22248227)
(14.254277 0.040257947 0.26913109)
(14.41454 0.034517725 0.21327458)
(14.289421 0.027139444 0.24719213)
(14.343025 0.015796657 0.21120087)
(14.416666 0.043158211 0.25778533)
(14.517885 0.037893018 0.18565525)
(14.404853 0.030601988 0.22097052)
(14.463102 0.01851933 0.18974176)
(14.575704 0.045375152 0.2342823)
(14.600548 0.040925332 0.15189932)
(14.501058 0.034350111 0.18544384)
(14.560749 0.021760784 0.16041765)
(14.715733 0.048217611 0.20053995)
(14.656037 0.038755802 0.11778769)
(14.571472 0.036510679 0.14696832)
(14.629317 0.024460395 0.12748935)
(14.826322 0.051671351 0.16033319)
(14.688281 0.022886189 0.091932619)
(14.617231 0.029925552 0.11278868)
(14.669956 0.020782989 0.097421358)
(14.900276 0.047015488 0.1210539)
(14.724404 -0.016217546 0.086620786)
(14.649691 0.0079464824 0.095264016)
(14.696059 0.004145444 0.080725665)
(14.937321 0.023278987 0.094201822)
(14.824829 -0.089643943 0.10564955)
(14.710361 -0.036117478 0.1107827)
(14.750271 -0.032600905 0.091526848)
(14.97111 -0.034117944 0.094924572)
(15.071198 -0.18840147 0.11054927)
(14.896879 -0.11048166 0.1494261)
(14.92854 -0.097006625 0.12063534)
(15.102297 -0.14285433 0.11521168)
(15.465842 -0.24975571 0.0307465)
(15.231757 -0.19232283 0.12725145)
(15.261035 -0.16569636 0.095658419)
(15.375544 -0.27254037 0.082895138)
(15.791075 -0.23317981 -0.10092541)
(15.596918 -0.20729711 -0.039111378)
(15.648777 -0.17074063 -0.046502488)
(15.681692 -0.30503 -0.083690162)
(16.024607 -0.1562587 -0.19147078)
(16.089949 -0.13404361 -0.16022083)
(16.058044 -0.25928765 -0.24390482)
(13.132085 -0.0075166566 -0.02031606)
(13.006024 -0.0050173997 -0.03574695)
(13.077633 -0.0040633562 -0.026206375)
(13.065481 -0.014114271 -0.052932634)
(13.125212 -0.0049150737 0.00011269441)
(12.984594 -0.0022948041 -0.016646951)
(13.071044 -0.0032197467 -0.0089615282)
(13.021989 -0.010983947 -0.029057216)
(13.134565 -0.0028053028 0.025495186)
(12.980454 4.6812513e-05 0.0079163418)
(13.078597 -0.0023871751 0.012809258)
(12.993766 -0.0078321678 -4.6047601e-05)
(13.162331 -0.0013717242 0.05563367)
(12.995966 0.0015911525 0.037935268)
(13.102759 -0.0019227584 0.038950043)
(12.984921 -0.0048675002 0.034028427)
(13.210276 -0.00045369543 0.090205721)
(13.03343 0.0021858409 0.073210843)
(13.145397 -0.0019052116 0.069042396)
(12.999129 -0.0020816402 0.072711486)
(13.279386 0.0005540352 0.12832315)
(13.094887 0.0022332934 0.11337719)
(13.208389 -0.0019596722 0.10272321)
(13.039642 0.00095460292 0.11551811)
(13.369099 0.0023359034 0.16749178)
(13.180597 0.0023860204 0.15680886)
(13.292387 -0.0015171371 0.13875992)
(13.108002 0.005025148 0.16104415)
(13.477849 0.0054243953 0.20367122)
(13.289178 0.0033016035 0.19976776)
(13.396667 -0.00040186503 0.17435863)
(13.203872 0.010579681 0.20595501)
(13.600305 0.010602109 0.2352752)
(13.416465 0.005651746 0.23704774)
(13.518225 0.0010477058 0.206514)
(13.323938 0.017546218 0.24594371)
(13.735369 0.017174966 0.26501862)
(13.559577 0.0098590958 0.26732884)
(13.655239 0.0024650296 0.23765839)
(13.464176 0.019974646 0.28556678)
(13.878005 0.020920598 0.28559411)
(13.716625 0.014596519 0.30034007)
(13.802323 0.0062581347 0.2633347)
(13.619837 0.030958746 0.3152218)
(14.02028 0.021731276 0.28983341)
(13.881625 0.012661572 0.31304723)
(13.953958 0.0067913496 0.27303482)
(13.78749 0.034812316 0.32949048)
(14.158147 0.023420157 0.28093173)
(14.045394 0.013426384 0.31240893)
(14.105573 0.0071290904 0.27070894)
(13.961078 0.038153654 0.32875769)
(14.285185 0.026684186 0.25908942)
(14.200585 0.015134446 0.29696127)
(14.248716 0.0078929732 0.25759363)
(14.132363 0.041954627 0.31486099)
(14.394971 0.030671226 0.22523971)
(14.34048 0.018256221 0.26734879)
(14.37687 0.0093714411 0.23165054)
(14.297813 0.046287999 0.2860556)
(14.48018 0.033315203 0.18478822)
(14.452946 0.021502193 0.22637843)
(14.48046 0.010934288 0.19606137)
(14.445887 0.050101658 0.24509361)
(14.539256 0.030304849 0.14533196)
(14.530926 0.022448581 0.18194364)
(14.553036 0.011654065 0.15673124)
(14.56687 0.051079777 0.19856795)
(14.584724 0.016718466 0.11827426)
(14.580861 0.017500238 0.14268552)
(14.600583 0.0088445746 0.12138841)
(14.659487 0.042416297 0.15367294)
(14.65139 -0.010909015 0.12047158)
(14.626875 0.0046219175 0.12456012)
(14.641374 0.00037589003 0.10492706)
(14.729661 0.018022557 0.12665962)
(14.798731 -0.056513285 0.15458569)
(14.717387 -0.016583864 0.14886756)
(14.722141 -0.015231612 0.12593393)
(14.816057 -0.026858554 0.13698928)
(15.089215 -0.11427066 0.16598889)
(14.946144 -0.049563816 0.20014264)
(14.936907 -0.039100163 0.1688379)
(15.019612 -0.098742672 0.16786352)
(15.503207 -0.14836373 0.059594206)
(15.305506 -0.087242681 0.16959037)
(15.292597 -0.061618082 0.13821222)
(15.353235 -0.18193172 0.12300391)
(15.806545 -0.12936792 -0.12779016)
(15.631079 -0.098090552 -0.054189698)
(15.654176 -0.058348535 -0.047477494)
(15.663511 -0.21080606 -0.09676807)
(15.997256 -0.057061624 -0.27032945)
(16.052203 -0.041414124 -0.20508016)
(16.014875 -0.18803059 -0.31920201)
(12.844005 0.00027501355 -0.032106169)
(13.008714 0.0051609085 -0.035620715)
(12.739118 -0.0086572848 -0.073084356)
(12.739203 0.008857539 -0.073105303)
(12.824631 0.00064974095 -0.010612889)
(12.987151 0.0032861346 -0.016658848)
(12.682242 -0.0068338353 -0.045008272)
(12.682296 0.0076083912 -0.045062371)
(12.826356 0.00092272876 0.017308153)
(12.982591 0.0018823422 0.0077512356)
(12.644246 -0.0046285894 -0.011050453)
(12.644335 0.0060505106 -0.011123911)
(12.851903 0.00087642904 0.051802983)
(12.997388 0.00064749219 0.037755906)
(12.629949 -0.0022485911 0.029097641)
(12.630063 0.0039361086 0.029059803)
(12.904072 0.00050375888 0.092564024)
(13.034506 -0.00053775438 0.073135398)
(12.64417 0.00020596971 0.075291508)
(12.644261 0.0011593655 0.075387347)
(12.984153 1.9802394e-05 0.1382962)
(13.096394 -0.0016715832 0.11337687)
(12.691317 0.0027393846 0.12682327)
(12.691423 -0.0020437772 0.12712331)
(13.091001 -0.00029806564 0.18581549)
(13.183048 -0.002724645 0.15675623)
(12.772715 0.0055362687 0.18170992)
(12.772658 -0.0054714689 0.18218629)
(13.221784 -0.00036538285 0.22951876)
(13.29247 -0.0038427374 0.1995714)
(12.887068 0.0087302467 0.23611061)
(12.886951 -0.0088477219 0.23666904)
(13.370128 -0.00038521008 0.26390701)
(13.420056 -0.0059972203 0.23674006)
(13.030135 0.011889003 0.28435087)
(13.029905 -0.011941899 0.2848384)
(13.534451 -0.00059340985 0.29456983)
(13.56326 -0.010428399 0.26712952)
(13.195956 0.011536641 0.32444963)
(13.195711 -0.012438988 0.32415783)
(13.722122 -0.00077490571 0.32027727)
(13.722817 -0.01445929 0.29862742)
(13.387377 0.0092992338 0.36420341)
(13.387021 -0.0089625673 0.36580567)
(13.909141 -0.00088624851 0.32982986)
(13.888044 -0.013662848 0.31232679)
(13.598077 0.014208371 0.38290245)
(13.59767 -0.015014515 0.38341265)
(14.091654 -0.0009357322 0.32150729)
(14.049537 -0.014651821 0.31164468)
(13.813747 0.016878255 0.38558804)
(13.813384 -0.01805862 0.38597634)
(14.261852 -0.00075963176 0.29649532)
(14.205005 -0.016422692 0.2962355)
(14.026973 0.019011663 0.37114493)
(14.026623 -0.020138273 0.37158417)
(14.406121 -0.0004720723 0.25712558)
(14.343435 -0.019060878 0.26652113)
(14.225335 0.021112734 0.3396441)
(14.224984 -0.022214793 0.33986645)
(14.512224 -0.00025771889 0.21038799)
(14.45413 -0.021774433 0.22577057)
(14.392261 0.02278086 0.2927436)
(14.391691 -0.02337846 0.29283712)
(14.579217 -0.0002633765 0.16715176)
(14.530596 -0.022667694 0.18152737)
(14.517119 0.02262804 0.2386495)
(14.516734 -0.023339666 0.23854519)
(14.629669 -0.00047380483 0.14157441)
(14.579126 -0.018160582 0.1425813)
(14.605213 0.01898141 0.18761844)
(14.605178 -0.019971046 0.18742236)
(14.711337 -0.00072151448 0.15303998)
(14.624748 -0.0060938223 0.12484572)
(14.688957 0.0099880599 0.15897055)
(14.689056 -0.011267282 0.15885359)
(14.881851 -0.00050339671 0.20532187)
(14.71633 0.014620792 0.14926741)
(14.806838 -0.0052912617 0.17552708)
(14.807181 0.0039045705 0.17554342)
(15.182748 0.00043522292 0.23188793)
(14.946413 0.049056082 0.20009526)
(15.052085 -0.025000885 0.21506093)
(15.052308 0.024857344 0.21525221)
(15.586276 0.0012412215 0.102242)
(15.306016 0.089867479 0.16870486)
(15.412719 -0.045961103 0.15896515)
(15.412808 0.047904474 0.15909604)
(15.849238 0.0015017615 -0.16383171)
(15.629917 0.10174752 -0.054921112)
(15.683132 -0.058028428 -0.12391881)
(15.683194 0.06047974 -0.12396125)
(15.996186 0.061280516 -0.271221)
(15.97106 -0.091687069 -0.42763068)
(15.971023 0.094205942 -0.42785883)
(14.425392 -0.057043155 0.0021681412)
(13.908298 -0.053626773 0.0022537395)
(14.284882 -0.054931595 0.0053380581)
(14.515192 -0.05403342 0.0091891623)
(14.42298 -0.050846368 -0.0016560847)
(13.902769 -0.048078772 0.00025514388)
(14.281561 -0.048601613 -3.2504674e-05)
(14.498235 -0.048469596 0.0048827317)
(14.437653 -0.045043714 -0.0063971347)
(13.915656 -0.043759946 -0.0025833291)
(14.292257 -0.043151085 -0.0065257549)
(14.499082 -0.043563393 -0.00045229692)
(14.472657 -0.038643896 -0.011790034)
(13.948496 -0.039402556 -0.0058903143)
(14.318082 -0.037852828 -0.014177986)
(14.519438 -0.038988677 -0.006893393)
(14.530721 -0.029726005 -0.017010948)