/*--------------------------------*- C++ -*----------------------------------*\
| =========                 |                                                 |
| \\      /  F ield         | foam-extend: Open Source CFD                    |
|  \\    /   O peration     | Version:     4.1-20200408                       |
|   \\  /    A nd           | Web:         http://www.foam-extend.org         |
|    \\/     M anipulation  |                                                 |
\*---------------------------------------------------------------------------*/
FoamFile
{
    version     2.0;
    format      ascii;
    class       volScalarField;
    location    "0.0695000";
    object      rho_0;
}
// * * * * * * * * * * * * * * * * * * * * * * * * * * * * * * * * * * * * * //

dimensions      [1 -3 0 0 0 0 0];

internalField   nonuniform List<scalar> 
1952
(
7858.75
7857.82
7856.52
7854.89
7852.83
7850.6
7848.01
7845
7841.52
7837.16
7832.34
7825.6
7818.01
7809.36
7803.79
7859.16
7858.61
7857.68
7856.38
7854.75
7852.69
7850.46
7847.87
7844.86
7841.38
7837.04
7832.22
7825.5
7817.93
7809.31
7803.81
7859.02
7858.49
7857.56
7856.26
7854.64
7852.57
7850.35
7847.76
7844.75
7841.28
7836.94
7832.13
7825.42
7817.87
7809.27
7803.8
7858.9
7858.38
7857.45
7856.15
7854.53
7852.47
7850.25
7847.66
7844.66
7841.19
7836.86
7832.06
7825.36
7817.82
7809.25
7803.8
7858.8
7858.29
7857.36
7856.06
7854.44
7852.38
7850.16
7847.57
7844.58
7841.11
7836.79
7832
7825.31
7817.79
7809.23
7803.8
7858.7
7858.21
7857.28
7855.98
7854.36
7852.3
7850.09
7847.5
7844.51
7841.05
7836.74
7831.95
7825.27
7817.76
7809.21
7803.8
7858.63
7858.14
7857.21
7855.91
7854.29
7852.24
7850.03
7847.44
7844.45
7840.99
7836.69
7831.91
7825.23
7817.73
7809.2
7803.79
7858.56
7858.08
7857.15
7855.85
7854.23
7852.18
7849.97
7847.39
7844.4
7840.94
7836.65
7831.87
7825.2
7817.71
7809.18
7803.79
7858.5
7858.03
7857.1
7855.8
7854.18
7852.13
7849.92
7847.34
7844.36
7840.9
7836.61
7831.84
7825.17
7817.68
7809.16
7803.77
7858.44
7857.98
7857.06
7855.75
7854.14
7852.09
7849.88
7847.3
7844.32
7840.86
7836.58
7831.81
7825.14
7817.66
7809.14
7803.76
7858.4
7857.95
7857.02
7855.72
7854.1
7852.05
7849.85
7847.27
7844.29
7840.83
7836.55
7831.78
7825.12
7817.63
7809.12
7803.74
7858.36
7857.91
7856.98
7855.68
7854.06
7852.01
7849.81
7847.23
7844.26
7840.79
7836.51
7831.75
7825.09
7817.6
7809.09
7803.72
7858.33
7857.88
7856.95
7855.65
7854.03
7851.98
7849.78
7847.2
7844.22
7840.76
7836.48
7831.72
7825.05
7817.57
7809.07
7803.7
7858.3
7857.86
7856.92
7855.62
7854
7851.95
7849.75
7847.17
7844.19
7840.73
7836.45
7831.69
7825.02
7817.54
7809.04
7803.67
7858.27
7857.83
7856.9
7855.59
7853.97
7851.92
7849.72
7847.14
7844.16
7840.69
7836.42
7831.66
7824.99
7817.51
7809.01
7803.64
7858.25
7857.81
7856.88
7855.57
7853.95
7851.9
7849.7
7847.11
7844.14
7840.66
7836.39
7831.63
7824.96
7817.48
7808.98
7803.61
7858.23
7857.79
7856.86
7855.55
7853.92
7851.88
7849.67
7847.09
7844.11
7840.63
7836.36
7831.59
7824.92
7817.44
7808.94
7803.57
7858.21
7857.77
7856.84
7855.53
7853.9
7851.85
7849.65
7847.06
7844.08
7840.6
7836.33
7831.56
7824.88
7817.4
7808.9
7803.53
7858.19
7857.76
7856.82
7855.51
7853.88
7851.83
7849.63
7847.03
7844.05
7840.56
7836.3
7831.52
7824.84
7817.35
7808.86
7803.49
7858.18
7857.75
7856.81
7855.49
7853.86
7851.81
7849.61
7847.01
7844.03
7840.53
7836.26
7831.48
7824.8
7817.31
7808.82
7803.45
7858.17
7857.74
7856.8
7855.48
7853.85
7851.79
7849.59
7846.98
7844
7840.5
7836.23
7831.44
7824.76
7817.26
7808.77
7803.4
7858.16
7857.73
7856.79
7855.47
7853.84
7851.78
7849.57
7846.96
7843.97
7840.46
7836.19
7831.4
7824.71
7817.21
7808.72
7803.34
7858.15
7857.73
7856.79
7855.47
7853.83
7851.77
7849.55
7846.94
7843.94
7840.43
7836.15
7831.36
7824.66
7817.15
7808.67
7803.29
7858.15
7857.74
7856.79
7855.47
7853.82
7851.76
7849.54
7846.92
7843.92
7840.4
7836.12
7831.31
7824.61
7817.1
7808.61
7803.22
7858.16
7857.75
7856.8
7855.47
7853.82
7851.75
7849.53
7846.91
7843.9
7840.37
7836.08
7831.27
7824.56
7817.04
7808.54
7803.15
7858.17
7857.77
7856.82
7855.49
7853.83
7851.76
7849.53
7846.9
7843.88
7840.34
7836.05
7831.22
7824.5
7816.97
7808.47
7803.07
7858.19
7857.8
7856.85
7855.51
7853.85
7851.77
7849.54
7846.89
7843.87
7840.31
7836.02
7831.18
7824.45
7816.9
7808.4
7802.99
7858.23
7857.85
7856.89
7855.55
7853.88
7851.79
7849.55
7846.9
7843.87
7840.29
7835.99
7831.13
7824.39
7816.83
7808.32
7802.9
7858.27
7857.91
7856.95
7855.6
7853.93
7851.83
7849.58
7846.91
7843.87
7840.28
7835.97
7831.09
7824.34
7816.75
7808.24
7802.8
7858.34
7857.99
7857.03
7855.67
7853.99
7851.88
7849.63
7846.94
7843.89
7840.28
7835.95
7831.06
7824.28
7816.68
7808.15
7802.69
7858.42
7858.09
7857.13
7855.76
7854.08
7851.96
7849.69
7846.99
7843.92
7840.29
7835.95
7831.03
7824.24
7816.6
7808.06
7802.57
7858.52
7858.22
7857.26
7855.88
7854.19
7852.06
7849.78
7847.06
7843.98
7840.32
7835.96
7831.01
7824.19
7816.53
7807.97
7802.44
7858.66
7858.39
7857.42
7856.03
7854.33
7852.19
7849.9
7847.16
7844.06
7840.37
7835.99
7831
7824.16
7816.46
7807.87
7802.31
7858.83
7858.59
7857.62
7856.22
7854.51
7852.36
7850.06
7847.29
7844.17
7840.45
7836.05
7831.02
7824.15
7816.4
7807.78
7802.17
7859.03
7858.84
7857.86
7856.46
7854.74
7852.57
7850.25
7847.47
7844.32
7840.57
7836.14
7831.07
7824.15
7816.35
7807.69
7802.02
7859.28
7859.14
7858.16
7856.74
7855.02
7852.83
7850.5
7847.69
7844.52
7840.73
7836.27
7831.15
7824.19
7816.32
7807.62
7801.88
7859.58
7859.49
7858.51
7857.09
7855.35
7853.15
7850.81
7847.97
7844.78
7840.95
7836.46
7831.28
7824.27
7816.32
7807.57
7801.74
7859.93
7859.9
7858.92
7857.49
7855.75
7853.54
7851.18
7848.33
7845.11
7841.24
7836.71
7831.47
7824.41
7816.37
7807.55
7801.61
7860.35
7860.37
7859.4
7857.96
7856.23
7854.01
7851.64
7848.77
7845.53
7841.62
7837.06
7831.74
7824.63
7816.48
7807.58
7801.51
7860.82
7860.91
7859.95
7858.51
7856.77
7854.56
7852.19
7849.3
7846.05
7842.11
7837.51
7832.12
7824.94
7816.67
7807.68
7801.45
7861.36
7861.51
7860.56
7859.13
7857.41
7855.2
7852.83
7849.95
7846.68
7842.72
7838.1
7832.64
7825.39
7816.98
7807.88
7801.44
7861.96
7862.17
7861.24
7859.82
7858.12
7855.93
7853.58
7850.71
7847.46
7843.49
7838.85
7833.33
7826.01
7817.46
7808.23
7801.53
7862.62
7862.88
7861.97
7860.57
7858.9
7856.75
7854.44
7851.61
7848.39
7844.44
7839.8
7834.25
7826.87
7818.16
7808.77
7801.74
7863.31
7863.6
7862.73
7861.36
7859.74
7857.65
7855.4
7852.65
7849.48
7845.6
7841
7835.45
7828.05
7819.18
7809.6
7802.11
7864.03
7864.32
7863.49
7862.17
7860.62
7858.61
7856.46
7853.82
7850.75
7847
7842.49
7837.01
7829.64
7820.66
7810.93
7802.84
7864.73
7864.98
7864.21
7862.95
7861.49
7859.6
7857.57
7855.1
7852.18
7848.63
7844.29
7839
7831.79
7822.87
7813.18
7804.64
7865.38
7865.53
7864.82
7863.65
7862.3
7860.57
7858.7
7856.45
7853.75
7850.49
7846.42
7841.5
7834.66
7826.18
7817.13
7809.3
7865.92
7865.9
7865.27
7864.19
7862.99
7861.43
7859.77
7857.79
7855.36
7852.49
7848.78
7844.34
7837.99
7830.11
7821.87
7814.87
7866.26
7866
7865.45
7864.49
7863.44
7862.1
7860.69
7859.03
7856.93
7854.52
7851.25
7847.43
7841.64
7834.52
7827.09
7820.74
7866.33
7865.72
7865.26
7864.43
7863.57
7862.47
7861.33
7860.04
7858.32
7856.45
7853.68
7850.61
7845.45
7839.25
7832.62
7826.8
7866.02
7864.95
7864.6
7863.9
7863.24
7862.39
7861.56
7860.67
7859.38
7858.11
7855.91
7853.7
7849.24
7844.25
7838.32
7833.08
7865.22
7863.55
7863.31
7862.76
7862.31
7861.73
7861.22
7860.74
7859.92
7859.3
7857.74
7856.51
7852.89
7849.44
7844.2
7839.75
7863.8
7861.4
7861.27
7860.88
7860.65
7860.34
7860.16
7860.11
7859.76
7859.79
7858.87
7858.59
7856.05
7854.47
7850.26
7847.05
7861.61
7858.4
7858.38
7858.14
7858.12
7858.03
7858.1
7858.37
7858.45
7859.14
7859.01
7859.82
7858.53
7858.8
7856.03
7855.07
7858.56
7854.23
7854.31
7854.19
7854.4
7854.62
7855.07
7855.78
7856.44
7857.83
7858.57
7860.47
7860.38
7862.39
7861.24
7863.35
7854.38
7849.03
7849.29
7849.46
7850.06
7850.8
7851.85
7853.24
7854.62
7856.71
7858.23
7861.14
7862.2
7865.86
7866.21
7871.56
7849.12
7843.98
7844.56
7845.15
7846.24
7847.54
7849.21
7851.25
7853.34
7856.12
7858.37
7862.06
7864.04
7868.97
7870.55
7878.38
7843.94
7839.98
7840.84
7841.84
7843.4
7845.18
7847.34
7849.88
7852.52
7855.81
7858.67
7862.94
7865.69
7871.52
7874.09
7883.53
7839.79
7837.24
7838.28
7839.56
7841.41
7843.54
7846.09
7848.97
7852.04
7855.7
7859.05
7863.69
7867.04
7873.39
7876.7
7887.06
7836.93
7835.72
7836.84
7838.28
7840.31
7842.65
7845.44
7848.54
7851.9
7855.75
7859.45
7864.26
7868.04
7874.56
7878.38
7888.99
7835.32
7835.31
7836.44
7837.96
7840.06
7842.49
7845.4
7848.58
7852.1
7855.99
7859.89
7864.67
7868.7
7875.07
7879.15
7889.43
7834.86
7835.93
7837.04
7838.56
7840.65
7843.06
7845.97
7849.11
7852.65
7856.45
7860.39
7864.95
7869.04
7874.97
7879.08
7888.49
7835.46
7837.51
7838.55
7840
7842
7844.31
7847.12
7850.12
7853.55
7857.13
7860.98
7865.15
7869.12
7874.33
7878.21
7886.27
7837.05
7839.98
7840.92
7842.24
7844.08
7846.19
7848.81
7851.56
7854.79
7858.04
7861.66
7865.3
7868.98
7873.22
7876.62
7882.92
7839.57
7843.28
7844.08
7845.21
7846.82
7848.66
7851
7853.42
7856.35
7859.17
7862.45
7865.43
7868.64
7871.71
7874.4
7878.61
7842.93
7847.28
7847.94
7848.85
7850.19
7851.69
7853.69
7855.7
7858.24
7860.55
7863.36
7865.58
7868.15
7869.86
7871.63
7873.56
7847
7851.81
7852.35
7853.06
7854.13
7855.28
7856.88
7858.43
7860.5
7862.22
7864.46
7865.8
7867.54
7867.74
7868.4
7868.02
7851.59
7856.68
7857.13
7857.68
7858.54
7859.39
7860.61
7861.69
7863.25
7864.31
7865.85
7866.19
7866.91
7865.44
7864.84
7862.28
7856.49
7861.67
7862.08
7862.54
7863.25
7863.89
7864.83
7865.5
7866.54
7866.93
7867.66
7866.89
7866.35
7863.09
7861.15
7856.65
7861.51
7866.61
7866.96
7867.33
7867.95
7868.47
7869.25
7869.65
7870.28
7870.08
7870.01
7868.08
7866.12
7860.98
7857.67
7851.52
7866.47
7871.32
7871.64
7871.94
7872.49
7872.98
7873.78
7874.13
7874.57
7873.95
7873.14
7870.02
7866.47
7859.51
7854.92
7847.37
7871.2
7876.42
7876.75
7877.04
7877.52
7877.9
7878.31
7878.15
7877.81
7876.28
7874.31
7870.14
7865.62
7858.3
7853.04
7844.59
7876.3
7879.92
7880.06
7880.06
7879.99
7879.57
7878.89
7877.65
7876.08
7873.53
7870.73
7866.48
7862.38
7856.06
7851.46
7843.2
7879.85
7878.08
7877.85
7877.38
7876.72
7875.64
7874.39
7872.66
7870.73
7868.05
7865.33
7861.57
7858.28
7853.11
7849.52
7842.85
7878.16
7873.46
7873.07
7872.43
7871.59
7870.48
7869.31
7867.72
7865.95
7863.54
7861.05
7857.69
7854.57
7850.29
7847
7842.21
7873.59
7869.16
7868.81
7868.24
7867.47
7866.43
7865.21
7863.63
7861.89
7859.63
7857.33
7854.36
7851.58
7847.95
7844.74
7840.95
7869.28
7865.26
7864.89
7864.33
7863.56
7862.57
7861.41
7859.95
7858.33
7856.3
7854.21
7851.59
7849.09
7845.95
7843.14
7839.62
7865.39
7861.76
7861.4
7860.88
7860.16
7859.23
7858.14
7856.78
7855.28
7853.45
7851.57
7849.27
7847.05
7844.36
7841.89
7838.92
7861.88
7858.61
7858.26
7857.78
7857.1
7856.25
7855.23
7854
7852.64
7851.01
7849.32
7847.31
7845.37
7843.04
7840.92
7838.36
7858.72
7855.8
7855.47
7855.03
7854.4
7853.63
7852.7
7851.59
7850.36
7848.92
7847.42
7845.67
7843.97
7841.98
7840.16
7838
7855.91
7853.3
7852.99
7852.59
7852.02
7851.32
7850.48
7849.49
7848.39
7847.12
7845.81
7844.29
7842.82
7841.11
7839.56
7837.72
7853.4
7851.09
7850.8
7850.44
7849.92
7849.3
7848.54
7847.66
7846.69
7845.58
7844.43
7843.12
7841.85
7840.39
7839.08
7837.52
7851.17
7849.12
7848.86
7848.54
7848.07
7847.52
7846.85
7846.08
7845.22
7844.25
7843.25
7842.12
7841.03
7839.79
7838.68
7837.37
7849.2
7847.39
7847.15
7846.87
7846.45
7845.96
7845.37
7844.69
7843.94
7843.1
7842.23
7841.27
7840.33
7839.28
7838.34
7837.24
7847.46
7845.86
7845.64
7845.4
7845.02
7844.6
7844.07
7843.48
7842.83
7842.1
7841.36
7840.53
7839.73
7838.84
7838.05
7837.12
7845.92
7844.51
7844.31
7844.1
7843.77
7843.4
7842.94
7842.43
7841.86
7841.24
7840.59
7839.88
7839.21
7838.46
7837.79
7837
7844.56
7843.31
7843.14
7842.95
7842.66
7842.34
7841.94
7841.5
7841.01
7840.47
7839.92
7839.32
7838.74
7838.11
7837.55
7836.88
7843.36
7842.26
7842.1
7841.94
7841.69
7841.41
7841.06
7840.68
7840.26
7839.8
7839.33
7838.82
7838.33
7837.8
7837.32
7836.76
7842.3
7841.32
7841.19
7841.05
7840.83
7840.59
7840.29
7839.96
7839.6
7839.2
7838.8
7838.37
7837.95
7837.5
7837.1
7836.62
7841.36
7840.49
7840.37
7840.26
7840.06
7839.86
7839.6
7839.32
7839
7838.67
7838.33
7837.96
7837.61
7837.23
7836.89
7836.48
7840.52
7839.75
7839.65
7839.55
7839.38
7839.2
7838.98
7838.74
7838.47
7838.19
7837.9
7837.58
7837.29
7836.97
7836.68
7836.33
7839.78
7839.1
7839
7838.92
7838.77
7838.62
7838.43
7838.22
7837.99
7837.75
7837.5
7837.24
7836.99
7836.72
7836.47
7836.17
7839.12
7838.5
7838.42
7838.35
7838.23
7838.1
7837.93
7837.75
7837.56
7837.35
7837.14
7836.92
7836.71
7836.48
7836.27
7836
7838.52
7837.97
7837.9
7837.84
7837.73
7837.62
7837.48
7837.33
7837.16
7836.99
7836.81
7836.62
7836.44
7836.24
7836.06
7835.83
7837.99
7837.49
7837.43
7837.38
7837.28
7837.19
7837.07
7836.94
7836.8
7836.65
7836.49
7836.33
7836.18
7836.01
7835.85
7835.65
7837.51
7837.06
7837
7836.96
7836.88
7836.8
7836.69
7836.58
7836.46
7836.33
7836.2
7836.06
7835.93
7835.79
7835.65
7835.47
7837.07
7836.66
7836.61
7836.57
7836.5
7836.43
7836.34
7836.25
7836.14
7836.03
7835.92
7835.8
7835.69
7835.57
7835.45
7835.28
7836.67
7836.3
7836.26
7836.22
7836.16
7836.1
7836.02
7835.94
7835.85
7835.75
7835.66
7835.55
7835.46
7835.35
7835.24
7835.09
7836.3
7835.96
7835.93
7835.9
7835.84
7835.79
7835.72
7835.65
7835.57
7835.49
7835.41
7835.32
7835.23
7835.14
7835.04
7834.9
7835.97
7835.65
7835.62
7835.59
7835.55
7835.5
7835.44
7835.38
7835.31
7835.24
7835.17
7835.09
7835.01
7834.93
7834.84
7834.71
7835.66
7835.36
7835.34
7835.32
7835.27
7835.23
7835.18
7835.13
7835.07
7835
7834.94
7834.87
7834.8
7834.73
7834.64
7834.52
7835.37
7835.1
7835.07
7835.05
7835.02
7834.98
7834.94
7834.89
7834.83
7834.78
7834.72
7834.66
7834.6
7834.53
7834.45
7834.33
7835.1
7834.85
7834.83
7834.81
7834.78
7834.75
7834.71
7834.66
7834.61
7834.56
7834.51
7834.45
7834.4
7834.33
7834.26
7834.14
7834.86
7834.62
7834.6
7834.58
7834.55
7834.52
7834.49
7834.45
7834.4
7834.36
7834.31
7834.25
7834.2
7834.14
7834.07
7833.96
7834.62
7834.4
7834.38
7834.37
7834.34
7834.32
7834.28
7834.24
7834.2
7834.16
7834.11
7834.06
7834.01
7833.96
7833.89
7833.78
7834.41
7834.2
7834.18
7834.17
7834.14
7834.12
7834.09
7834.05
7834.01
7833.97
7833.93
7833.88
7833.83
7833.78
7833.71
7833.6
7834.2
7834.01
7834
7833.98
7833.96
7833.93
7833.9
7833.87
7833.83
7833.79
7833.75
7833.7
7833.66
7833.6
7833.54
7833.43
7834.01
7833.83
7833.82
7833.81
7833.78
7833.76
7833.73
7833.7
7833.66
7833.62
7833.58
7833.54
7833.49
7833.44
7833.37
7833.26
7833.84
7833.67
7833.66
7833.64
7833.62
7833.6
7833.57
7833.54
7833.5
7833.46
7833.42
7833.38
7833.33
7833.27
7833.2
7833.09
7833.67
7833.52
7833.5
7833.49
7833.47
7833.45
7833.42
7833.39
7833.35
7833.31
7833.27
7833.22
7833.17
7833.12
7833.04
7832.93
7833.52
7833.37
7833.36
7833.35
7833.33
7833.31
7833.28
7833.25
7833.21
7833.17
7833.13
7833.08
7833.03
7832.97
7832.89
7832.77
7833.38
7833.24
7833.23
7833.22
7833.2
7833.18
7833.15
7833.12
7833.08
7833.04
7832.99
7832.94
7832.89
7832.82
7832.74
7832.62
7833.25
7833.13
7833.12
7833.1
7833.08
7833.06
7833.03
7833
7832.96
7832.92
7832.87
7832.82
7832.76
7832.69
7832.6
7832.47
7833.13
7833.02
7833.01
7833
7832.98
7832.95
7832.92
7832.89
7832.85
7832.81
7832.76
7832.7
7832.64
7832.57
7832.47
7832.33
7833.02
7832.92
7832.91
7832.9
7832.88
7832.86
7832.83
7832.8
7832.76
7832.71
7832.66
7832.6
7832.54
7832.45
7832.35
7832.2
7832.93
7832.84
7832.83
7832.82
7832.8
7832.78
7832.75
7832.71
7832.68
7832.63
7832.58
7832.52
7832.44
7832.36
7832.25
7832.08
7832.84
7832.77
7832.76
7832.74
7832.73
7832.7
7832.68
7832.65
7832.61
7832.56
7832.51
7832.45
7832.37
7832.28
7832.16
7831.97
7832.77
7832.7
7832.69
7832.68
7832.67
7832.65
7832.62
7832.59
7832.55
7832.51
7832.46
7832.4
7832.32
7832.23
7832.09
7831.89
7832.71
7832.65
7832.64
7832.63
7832.62
7832.6
7832.57
7832.55
7832.51
7832.47
7832.42
7832.37
7832.29
7832.2
7832.06
7831.85
7832.65
7832.6
7832.6
7832.59
7832.57
7832.56
7832.53
7832.51
7832.48
7832.45
7832.41
7832.36
7832.3
7832.23
7832.13
7831.97
7832.6
7832.58
7832.58
7832.57
7832.56
7832.54
7832.52
7832.5
7832.47
7832.44
7832.41
7832.37
7832.32
7832.27
7832.2
7832.09
7832.58
7832.58
7832.58
7832.57
7832.56
7832.54
7832.52
7832.5
7832.47
7832.44
7832.41
7832.37
7832.32
7832.27
7832.2
7832.09
7832.58
)
;

boundaryField
{
    wireUpstream
    {
        type            calculated;
        value           nonuniform List<scalar> 
16
(
7832.56
7832.55
7832.54
7832.53
7832.52
7832.5
7832.48
7832.46
7832.43
7832.4
7832.37
7832.33
7832.3
7832.27
7832.24
7832.56
)
;
    }
    wireDownstream
    {
        type            calculated;
        value           nonuniform List<scalar> 
16
(
7858.75
7857.82
7856.52
7854.89
7852.83
7850.6
7848.01
7845
7841.52
7837.16
7832.34
7825.6
7818.01
7809.36
7803.79
7859.16
)
;
    }
    wireTopContact
    {
        type            calculated;
        value           nonuniform List<scalar> 
122
(
7803.3
7803.28
7803.29
7803.28
7803.28
7803.28
7803.27
7803.26
7803.25
7803.23
7803.21
7803.19
7803.16
7803.13
7803.1
7803.07
7803.03
7802.99
7802.94
7802.89
7802.84
7802.78
7802.72
7802.65
7802.57
7802.49
7802.39
7802.29
7802.19
7802.07
7801.94
7801.81
7801.67
7801.53
7801.39
7801.26
7801.15
7801.06
7801.01
7801.03
7801.15
7801.41
7801.87
7802.67
7804.36
7809.24
7814.95
7820.95
7827.18
7833.49
7840
7847
7854.65
7862.56
7870.7
7877.39
7882.42
7885.95
7887.94
7888.46
7887.63
7885.52
7882.31
7878.14
7873.26
7867.91
7862.4
7857.05
7852.24
7848.38
7845.76
7844.34
7843.49
7842.04
7840.88
7839.62
7838.9
7838.33
7837.95
7837.67
7837.47
7837.31
7837.18
7837.06
7836.94
7836.83
7836.71
7836.58
7836.44
7836.29
7836.13
7835.97
7835.8
7835.62
7835.44
7835.26
7835.07
7834.88
7834.69
7834.5
7834.32
7834.13
7833.95
7833.77
7833.59
7833.42
7833.25
7833.08
7832.92
7832.76
7832.61
7832.47
7832.33
7832.2
7832.08
7831.98
7831.89
7831.85
7831.95
7832.04
7832.04
7803.28
)
;
    }
    front
    {
        type            wedge;
    }
    back
    {
        type            wedge;
    }
}


// ************************************************************************* //
