/*--------------------------------*- C++ -*----------------------------------*\
| =========                 |                                                 |
| \\      /  F ield         | foam-extend: Open Source CFD                    |
|  \\    /   O peration     | Version:     4.1-20200408                       |
|   \\  /    A nd           | Web:         http://www.foam-extend.org         |
|    \\/     M anipulation  |                                                 |
\*---------------------------------------------------------------------------*/
FoamFile
{
    version     2.0;
    format      ascii;
    class       volVectorField;
    location    "0.0695000";
    object      U_0_0;
}
// * * * * * * * * * * * * * * * * * * * * * * * * * * * * * * * * * * * * * //

dimensions      [0 1 0 0 0 0 0];

internalField   nonuniform List<vector> 
1952
(
(0.0675977 -2.54921e-06 0)
(0.0675974 -4.14662e-06 0)
(0.0675969 -5.76339e-06 0)
(0.0675964 -7.3769e-06 0)
(0.0675957 -8.99169e-06 0)
(0.0675949 -1.05918e-05 0)
(0.0675941 -1.21926e-05 0)
(0.0675932 -1.37718e-05 0)
(0.0675923 -1.53501e-05 0)
(0.0675914 -1.68994e-05 0)
(0.0675906 -1.84415e-05 0)
(0.0675899 -1.99482e-05 0)
(0.0675893 -2.14296e-05 0)
(0.067589 -2.28681e-05 0)
(0.0675889 -2.42733e-05 0)
(0.0675978 -1.0923e-06 0)
(0.0675944 -2.5509e-06 0)
(0.0675941 -4.14938e-06 0)
(0.0675937 -5.76724e-06 0)
(0.0675931 -7.38186e-06 0)
(0.0675924 -8.99777e-06 0)
(0.0675917 -1.0599e-05 0)
(0.0675908 -1.22011e-05 0)
(0.0675899 -1.37815e-05 0)
(0.067589 -1.5361e-05 0)
(0.0675881 -1.69116e-05 0)
(0.0675873 -1.8455e-05 0)
(0.0675866 -1.99632e-05 0)
(0.067586 -2.14459e-05 0)
(0.0675857 -2.28858e-05 0)
(0.0675857 -2.42924e-05 0)
(0.0675945 -1.09303e-06 0)
(0.0675911 -2.55277e-06 0)
(0.0675908 -4.15243e-06 0)
(0.0675904 -5.77148e-06 0)
(0.0675898 -7.38734e-06 0)
(0.0675892 -9.00447e-06 0)
(0.0675884 -1.0607e-05 0)
(0.0675875 -1.22103e-05 0)
(0.0675866 -1.3792e-05 0)
(0.0675857 -1.53729e-05 0)
(0.0675848 -1.69248e-05 0)
(0.067584 -1.84696e-05 0)
(0.0675833 -1.99792e-05 0)
(0.0675827 -2.14633e-05 0)
(0.0675824 -2.29047e-05 0)
(0.0675824 -2.43126e-05 0)
(0.0675912 -1.09383e-06 0)
(0.0675878 -2.55477e-06 0)
(0.0675875 -4.15567e-06 0)
(0.0675871 -5.77602e-06 0)
(0.0675865 -7.39314e-06 0)
(0.0675859 -9.01159e-06 0)
(0.0675851 -1.06155e-05 0)
(0.0675843 -1.22201e-05 0)
(0.0675834 -1.38032e-05 0)
(0.0675825 -1.53855e-05 0)
(0.0675816 -1.69389e-05 0)
(0.0675807 -1.84851e-05 0)
(0.06758 -1.99961e-05 0)
(0.0675795 -2.14816e-05 0)
(0.0675791 -2.29244e-05 0)
(0.0675791 -2.43336e-05 0)
(0.0675879 -1.09468e-06 0)
(0.0675845 -2.55689e-06 0)
(0.0675842 -4.15912e-06 0)
(0.0675838 -5.78083e-06 0)
(0.0675832 -7.39931e-06 0)
(0.0675826 -9.01914e-06 0)
(0.0675818 -1.06244e-05 0)
(0.067581 -1.22305e-05 0)
(0.0675801 -1.3815e-05 0)
(0.0675792 -1.53987e-05 0)
(0.0675783 -1.69535e-05 0)
(0.0675774 -1.85012e-05 0)
(0.0675767 -2.00136e-05 0)
(0.0675762 -2.15005e-05 0)
(0.0675758 -2.29448e-05 0)
(0.0675758 -2.43552e-05 0)
(0.0675847 -1.09559e-06 0)
(0.0675813 -2.55908e-06 0)
(0.0675809 -4.1627e-06 0)
(0.0675805 -5.78581e-06 0)
(0.0675799 -7.4057e-06 0)
(0.0675793 -9.02695e-06 0)
(0.0675785 -1.06337e-05 0)
(0.0675777 -1.22412e-05 0)
(0.0675768 -1.38272e-05 0)
(0.0675759 -1.54123e-05 0)
(0.067575 -1.69685e-05 0)
(0.0675741 -1.85177e-05 0)
(0.0675734 -2.00316e-05 0)
(0.0675729 -2.15199e-05 0)
(0.0675725 -2.29655e-05 0)
(0.0675725 -2.43773e-05 0)
(0.0675814 -1.09653e-06 0)
(0.067578 -2.56135e-06 0)
(0.0675776 -4.16638e-06 0)
(0.0675772 -5.79094e-06 0)
(0.0675766 -7.41227e-06 0)
(0.067576 -9.03498e-06 0)
(0.0675752 -1.06432e-05 0)
(0.0675744 -1.22522e-05 0)
(0.0675735 -1.38397e-05 0)
(0.0675726 -1.54262e-05 0)
(0.0675717 -1.6984e-05 0)
(0.0675708 -1.85346e-05 0)
(0.0675701 -2.00499e-05 0)
(0.0675696 -2.15396e-05 0)
(0.0675692 -2.29866e-05 0)
(0.0675692 -2.43996e-05 0)
(0.0675781 -1.0975e-06 0)
(0.0675747 -2.56366e-06 0)
(0.0675743 -4.17015e-06 0)
(0.0675739 -5.79618e-06 0)
(0.0675734 -7.419e-06 0)
(0.0675727 -9.0432e-06 0)
(0.0675719 -1.06529e-05 0)
(0.0675711 -1.22634e-05 0)
(0.0675702 -1.38523e-05 0)
(0.0675693 -1.54404e-05 0)
(0.0675684 -1.69996e-05 0)
(0.0675675 -1.85517e-05 0)
(0.0675668 -2.00684e-05 0)
(0.0675663 -2.15595e-05 0)
(0.0675659 -2.30078e-05 0)
(0.0675659 -2.44222e-05 0)
(0.0675748 -1.09849e-06 0)
(0.0675714 -2.566e-06 0)
(0.067571 -4.17396e-06 0)
(0.0675706 -5.80149e-06 0)
(0.06757 -7.42581e-06 0)
(0.0675694 -9.0515e-06 0)
(0.0675686 -1.06627e-05 0)
(0.0675678 -1.22747e-05 0)
(0.0675669 -1.38652e-05 0)
(0.067566 -1.54547e-05 0)
(0.0675651 -1.70153e-05 0)
(0.0675642 -1.85689e-05 0)
(0.0675635 -2.0087e-05 0)
(0.0675629 -2.15795e-05 0)
(0.0675626 -2.30291e-05 0)
(0.0675626 -2.44449e-05 0)
(0.0675715 -1.09949e-06 0)
(0.0675681 -2.56838e-06 0)
(0.0675677 -4.17782e-06 0)
(0.0675673 -5.80686e-06 0)
(0.0675667 -7.43268e-06 0)
(0.0675661 -9.05987e-06 0)
(0.0675653 -1.06726e-05 0)
(0.0675645 -1.2286e-05 0)
(0.0675636 -1.3878e-05 0)
(0.0675627 -1.5469e-05 0)
(0.0675617 -1.70311e-05 0)
(0.0675609 -1.85861e-05 0)
(0.0675602 -2.01057e-05 0)
(0.0675596 -2.15995e-05 0)
(0.0675593 -2.30506e-05 0)
(0.0675592 -2.44677e-05 0)
(0.0675682 -1.10051e-06 0)
(0.0675648 -2.57075e-06 0)
(0.0675644 -4.18168e-06 0)
(0.067564 -5.81223e-06 0)
(0.0675634 -7.43954e-06 0)
(0.0675628 -9.06824e-06 0)
(0.067562 -1.06825e-05 0)
(0.0675612 -1.22974e-05 0)
(0.0675602 -1.38909e-05 0)
(0.0675593 -1.54833e-05 0)
(0.0675584 -1.70469e-05 0)
(0.0675576 -1.86033e-05 0)
(0.0675569 -2.01243e-05 0)
(0.0675563 -2.16196e-05 0)
(0.067556 -2.30721e-05 0)
(0.0675559 -2.44906e-05 0)
(0.0675649 -1.10153e-06 0)
(0.0675614 -2.57313e-06 0)
(0.0675611 -4.18554e-06 0)
(0.0675607 -5.81761e-06 0)
(0.0675601 -7.44641e-06 0)
(0.0675595 -9.07661e-06 0)
(0.0675587 -1.06924e-05 0)
(0.0675578 -1.23088e-05 0)
(0.0675569 -1.39038e-05 0)
(0.067556 -1.54976e-05 0)
(0.0675551 -1.70627e-05 0)
(0.0675543 -1.86206e-05 0)
(0.0675536 -2.0143e-05 0)
(0.067553 -2.16397e-05 0)
(0.0675527 -2.30936e-05 0)
(0.0675526 -2.45135e-05 0)
(0.0675616 -1.10255e-06 0)
(0.0675581 -2.57549e-06 0)
(0.0675578 -4.18938e-06 0)
(0.0675574 -5.82295e-06 0)
(0.0675568 -7.45323e-06 0)
(0.0675561 -9.08491e-06 0)
(0.0675554 -1.07022e-05 0)
(0.0675545 -1.23201e-05 0)
(0.0675536 -1.39166e-05 0)
(0.0675527 -1.55119e-05 0)
(0.0675518 -1.70785e-05 0)
(0.067551 -1.86378e-05 0)
(0.0675502 -2.01618e-05 0)
(0.0675497 -2.16599e-05 0)
(0.0675494 -2.31152e-05 0)
(0.0675493 -2.45366e-05 0)
(0.0675582 -1.10356e-06 0)
(0.0675548 -2.57785e-06 0)
(0.0675545 -4.19321e-06 0)
(0.0675541 -5.82829e-06 0)
(0.0675535 -7.46004e-06 0)
(0.0675528 -9.09322e-06 0)
(0.067552 -1.0712e-05 0)
(0.0675512 -1.23314e-05 0)
(0.0675503 -1.39295e-05 0)
(0.0675494 -1.55263e-05 0)
(0.0675485 -1.70943e-05 0)
(0.0675476 -1.86551e-05 0)
(0.0675469 -2.01805e-05 0)
(0.0675464 -2.168e-05 0)
(0.067546 -2.31368e-05 0)
(0.067546 -2.45596e-05 0)
(0.0675549 -1.10457e-06 0)
(0.0675515 -2.5802e-06 0)
(0.0675512 -4.19704e-06 0)
(0.0675508 -5.8336e-06 0)
(0.0675502 -7.46687e-06 0)
(0.0675495 -9.10153e-06 0)
(0.0675487 -1.07219e-05 0)
(0.0675479 -1.23427e-05 0)
(0.067547 -1.39423e-05 0)
(0.0675461 -1.55405e-05 0)
(0.0675451 -1.711e-05 0)
(0.0675443 -1.86723e-05 0)
(0.0675436 -2.01992e-05 0)
(0.067543 -2.17001e-05 0)
(0.0675427 -2.31584e-05 0)
(0.0675426 -2.45826e-05 0)
(0.0675516 -1.10558e-06 0)
(0.0675482 -2.58253e-06 0)
(0.0675478 -4.20083e-06 0)
(0.0675474 -5.83887e-06 0)
(0.0675468 -7.47363e-06 0)
(0.0675462 -9.10977e-06 0)
(0.0675454 -1.07316e-05 0)
(0.0675446 -1.23539e-05 0)
(0.0675436 -1.3955e-05 0)
(0.0675427 -1.55547e-05 0)
(0.0675418 -1.71257e-05 0)
(0.067541 -1.86895e-05 0)
(0.0675403 -2.02178e-05 0)
(0.0675397 -2.17202e-05 0)
(0.0675394 -2.31799e-05 0)
(0.0675393 -2.46055e-05 0)
(0.0675483 -1.10657e-06 0)
(0.0675448 -2.58485e-06 0)
(0.0675445 -4.20463e-06 0)
(0.0675441 -5.84413e-06 0)
(0.0675435 -7.48039e-06 0)
(0.0675429 -9.11798e-06 0)
(0.0675421 -1.07413e-05 0)
(0.0675412 -1.23651e-05 0)
(0.0675403 -1.39677e-05 0)
(0.0675394 -1.55688e-05 0)
(0.0675385 -1.71413e-05 0)
(0.0675376 -1.87066e-05 0)
(0.0675369 -2.02363e-05 0)
(0.0675364 -2.17402e-05 0)
(0.067536 -2.32013e-05 0)
(0.067536 -2.46283e-05 0)
(0.0675449 -1.10757e-06 0)
(0.0675415 -2.58715e-06 0)
(0.0675412 -4.20836e-06 0)
(0.0675408 -5.84932e-06 0)
(0.0675402 -7.48704e-06 0)
(0.0675395 -9.12608e-06 0)
(0.0675387 -1.07509e-05 0)
(0.0675379 -1.23761e-05 0)
(0.067537 -1.39802e-05 0)
(0.0675361 -1.55828e-05 0)
(0.0675352 -1.71568e-05 0)
(0.0675343 -1.87235e-05 0)
(0.0675336 -2.02547e-05 0)
(0.067533 -2.176e-05 0)
(0.0675327 -2.32226e-05 0)
(0.0675326 -2.46511e-05 0)
(0.0675416 -1.10856e-06 0)
(0.0675382 -2.58942e-06 0)
(0.0675379 -4.21207e-06 0)
(0.0675374 -5.85446e-06 0)
(0.0675369 -7.49364e-06 0)
(0.0675362 -9.1341e-06 0)
(0.0675354 -1.07604e-05 0)
(0.0675346 -1.23871e-05 0)
(0.0675336 -1.39926e-05 0)
(0.0675327 -1.55966e-05 0)
(0.0675318 -1.71721e-05 0)
(0.067531 -1.87402e-05 0)
(0.0675302 -2.0273e-05 0)
(0.0675297 -2.17796e-05 0)
(0.0675294 -2.32438e-05 0)
(0.0675293 -2.46737e-05 0)
(0.0675383 -1.10953e-06 0)
(0.0675348 -2.59165e-06 0)
(0.0675345 -4.21571e-06 0)
(0.0675341 -5.85951e-06 0)
(0.0675335 -7.50014e-06 0)
(0.0675328 -9.14199e-06 0)
(0.0675321 -1.07698e-05 0)
(0.0675312 -1.23978e-05 0)
(0.0675303 -1.40049e-05 0)
(0.0675294 -1.56102e-05 0)
(0.0675285 -1.71872e-05 0)
(0.0675276 -1.87568e-05 0)
(0.0675269 -2.0291e-05 0)
(0.0675263 -2.17991e-05 0)
(0.067526 -2.32648e-05 0)
(0.0675259 -2.46963e-05 0)
(0.0675349 -1.11049e-06 0)
(0.0675315 -2.59384e-06 0)
(0.0675312 -4.21927e-06 0)
(0.0675308 -5.86446e-06 0)
(0.0675302 -7.50648e-06 0)
(0.0675295 -9.14971e-06 0)
(0.0675287 -1.0779e-05 0)
(0.0675279 -1.24084e-05 0)
(0.067527 -1.40169e-05 0)
(0.067526 -1.56237e-05 0)
(0.0675251 -1.72022e-05 0)
(0.0675243 -1.87732e-05 0)
(0.0675236 -2.03089e-05 0)
(0.067523 -2.18185e-05 0)
(0.0675227 -2.32857e-05 0)
(0.0675226 -2.47188e-05 0)
(0.0675316 -1.11143e-06 0)
(0.0675282 -2.59599e-06 0)
(0.0675278 -4.22278e-06 0)
(0.0675274 -5.86932e-06 0)
(0.0675268 -7.51275e-06 0)
(0.0675262 -9.15733e-06 0)
(0.0675254 -1.07881e-05 0)
(0.0675245 -1.24188e-05 0)
(0.0675236 -1.40289e-05 0)
(0.0675227 -1.5637e-05 0)
(0.0675218 -1.7217e-05 0)
(0.0675209 -1.87894e-05 0)
(0.0675202 -2.03267e-05 0)
(0.0675196 -2.18378e-05 0)
(0.0675193 -2.33065e-05 0)
(0.0675192 -2.47411e-05 0)
(0.0675283 -1.11235e-06 0)
(0.0675248 -2.59811e-06 0)
(0.0675245 -4.22622e-06 0)
(0.0675241 -5.87411e-06 0)
(0.0675235 -7.51893e-06 0)
(0.0675228 -9.16484e-06 0)
(0.067522 -1.0797e-05 0)
(0.0675212 -1.24291e-05 0)
(0.0675203 -1.40407e-05 0)
(0.0675193 -1.56502e-05 0)
(0.0675184 -1.72317e-05 0)
(0.0675176 -1.88055e-05 0)
(0.0675169 -2.03444e-05 0)
(0.0675163 -2.18569e-05 0)
(0.067516 -2.33272e-05 0)
(0.0675159 -2.47634e-05 0)
(0.0675249 -1.11326e-06 0)
(0.0675215 -2.6002e-06 0)
(0.0675211 -4.22964e-06 0)
(0.0675207 -5.87885e-06 0)
(0.0675201 -7.52505e-06 0)
(0.0675195 -9.17226e-06 0)
(0.0675187 -1.08059e-05 0)
(0.0675178 -1.24393e-05 0)
(0.0675169 -1.40524e-05 0)
(0.067516 -1.56632e-05 0)
(0.0675151 -1.72462e-05 0)
(0.0675142 -1.88215e-05 0)
(0.0675135 -2.03619e-05 0)
(0.0675129 -2.18759e-05 0)
(0.0675126 -2.33478e-05 0)
(0.0675125 -2.47855e-05 0)
(0.0675216 -1.11416e-06 0)
(0.0675181 -2.60228e-06 0)
(0.0675178 -4.23303e-06 0)
(0.0675174 -5.88356e-06 0)
(0.0675168 -7.53112e-06 0)
(0.0675161 -9.17964e-06 0)
(0.0675153 -1.08147e-05 0)
(0.0675145 -1.24494e-05 0)
(0.0675136 -1.4064e-05 0)
(0.0675126 -1.56761e-05 0)
(0.0675117 -1.72607e-05 0)
(0.0675109 -1.88374e-05 0)
(0.0675101 -2.03794e-05 0)
(0.0675096 -2.18949e-05 0)
(0.0675093 -2.33684e-05 0)
(0.0675092 -2.48077e-05 0)
(0.0675182 -1.11505e-06 0)
(0.0675148 -2.60437e-06 0)
(0.0675144 -4.23645e-06 0)
(0.067514 -5.88828e-06 0)
(0.0675134 -7.53723e-06 0)
(0.0675128 -9.18701e-06 0)
(0.067512 -1.08235e-05 0)
(0.0675111 -1.24594e-05 0)
(0.0675102 -1.40755e-05 0)
(0.0675093 -1.5689e-05 0)
(0.0675084 -1.72751e-05 0)
(0.0675075 -1.88532e-05 0)
(0.0675068 -2.03968e-05 0)
(0.0675062 -2.19138e-05 0)
(0.0675059 -2.33889e-05 0)
(0.0675058 -2.48299e-05 0)
(0.0675149 -1.11595e-06 0)
(0.0675114 -2.60648e-06 0)
(0.0675111 -4.23989e-06 0)
(0.0675107 -5.89304e-06 0)
(0.0675101 -7.54335e-06 0)
(0.0675094 -9.19442e-06 0)
(0.0675086 -1.08324e-05 0)
(0.0675077 -1.24696e-05 0)
(0.0675068 -1.40872e-05 0)
(0.0675059 -1.57019e-05 0)
(0.067505 -1.72896e-05 0)
(0.0675041 -1.88691e-05 0)
(0.0675034 -2.04143e-05 0)
(0.0675028 -2.19328e-05 0)
(0.0675025 -2.34096e-05 0)
(0.0675024 -2.48523e-05 0)
(0.0675115 -1.11685e-06 0)
(0.067508 -2.60866e-06 0)
(0.0675077 -4.24344e-06 0)
(0.0675073 -5.89794e-06 0)
(0.0675067 -7.54969e-06 0)
(0.067506 -9.20203e-06 0)
(0.0675052 -1.08415e-05 0)
(0.0675044 -1.24799e-05 0)
(0.0675035 -1.40991e-05 0)
(0.0675025 -1.57151e-05 0)
(0.0675016 -1.73043e-05 0)
(0.0675008 -1.88852e-05 0)
(0.0675 -2.04319e-05 0)
(0.0674995 -2.1952e-05 0)
(0.0674991 -2.34305e-05 0)
(0.0674991 -2.4875e-05 0)
(0.0675082 -1.11779e-06 0)
(0.0675047 -2.61093e-06 0)
(0.0675044 -4.24714e-06 0)
(0.0675039 -5.90303e-06 0)
(0.0675033 -7.55625e-06 0)
(0.0675027 -9.20992e-06 0)
(0.0675019 -1.08509e-05 0)
(0.067501 -1.24906e-05 0)
(0.0675001 -1.41113e-05 0)
(0.0674992 -1.57286e-05 0)
(0.0674982 -1.73194e-05 0)
(0.0674974 -1.89016e-05 0)
(0.0674967 -2.045e-05 0)
(0.0674961 -2.19716e-05 0)
(0.0674958 -2.34518e-05 0)
(0.0674957 -2.48981e-05 0)
(0.0675048 -1.11876e-06 0)
(0.0675013 -2.61337e-06 0)
(0.067501 -4.25111e-06 0)
(0.0675006 -5.90848e-06 0)
(0.0675 -7.56327e-06 0)
(0.0674993 -9.21829e-06 0)
(0.0674985 -1.08609e-05 0)
(0.0674976 -1.25018e-05 0)
(0.0674967 -1.41241e-05 0)
(0.0674958 -1.57426e-05 0)
(0.0674949 -1.7335e-05 0)
(0.067494 -1.89187e-05 0)
(0.0674933 -2.04687e-05 0)
(0.0674927 -2.19919e-05 0)
(0.0674924 -2.34737e-05 0)
(0.0674923 -2.49218e-05 0)
(0.0675014 -1.11981e-06 0)
(0.067498 -2.61603e-06 0)
(0.0674976 -4.25543e-06 0)
(0.0674972 -5.9144e-06 0)
(0.0674966 -7.57086e-06 0)
(0.0674959 -9.22734e-06 0)
(0.0674951 -1.08716e-05 0)
(0.0674943 -1.25139e-05 0)
(0.0674934 -1.41379e-05 0)
(0.0674924 -1.57576e-05 0)
(0.0674915 -1.73516e-05 0)
(0.0674906 -1.89366e-05 0)
(0.0674899 -2.04882e-05 0)
(0.0674893 -2.20129e-05 0)
(0.067489 -2.34965e-05 0)
(0.0674889 -2.49463e-05 0)
(0.0674981 -1.12095e-06 0)
(0.0674946 -2.61902e-06 0)
(0.0674943 -4.26028e-06 0)
(0.0674938 -5.92103e-06 0)
(0.0674932 -7.57936e-06 0)
(0.0674926 -9.2374e-06 0)
(0.0674918 -1.08835e-05 0)
(0.0674909 -1.25271e-05 0)
(0.06749 -1.41528e-05 0)
(0.067489 -1.57738e-05 0)
(0.0674881 -1.73694e-05 0)
(0.0674873 -1.89557e-05 0)
(0.0674865 -2.05089e-05 0)
(0.0674859 -2.20351e-05 0)
(0.0674856 -2.35204e-05 0)
(0.0674855 -2.49721e-05 0)
(0.0674947 -1.12223e-06 0)
(0.0674912 -2.62243e-06 0)
(0.0674909 -4.2658e-06 0)
(0.0674905 -5.92855e-06 0)
(0.0674899 -7.58895e-06 0)
(0.0674892 -9.24871e-06 0)
(0.0674884 -1.08968e-05 0)
(0.0674875 -1.25418e-05 0)
(0.0674866 -1.41693e-05 0)
(0.0674857 -1.57916e-05 0)
(0.0674847 -1.73888e-05 0)
(0.0674839 -1.89764e-05 0)
(0.0674831 -2.05312e-05 0)
(0.0674826 -2.20589e-05 0)
(0.0674822 -2.35458e-05 0)
(0.0674821 -2.49994e-05 0)
(0.0674913 -1.12369e-06 0)
(0.0674878 -2.6264e-06 0)
(0.0674875 -4.27222e-06 0)
(0.0674871 -5.93729e-06 0)
(0.0674865 -7.60006e-06 0)
(0.0674858 -9.26179e-06 0)
(0.067485 -1.09121e-05 0)
(0.0674841 -1.25587e-05 0)
(0.0674832 -1.41881e-05 0)
(0.0674823 -1.58117e-05 0)
(0.0674813 -1.74106e-05 0)
(0.0674805 -1.89994e-05 0)
(0.0674797 -2.05557e-05 0)
(0.0674792 -2.20848e-05 0)
(0.0674788 -2.35733e-05 0)
(0.0674787 -2.50288e-05 0)
(0.0674879 -1.1254e-06 0)
(0.0674845 -2.6311e-06 0)
(0.0674841 -4.27982e-06 0)
(0.0674837 -5.94761e-06 0)
(0.0674831 -7.61316e-06 0)
(0.0674824 -9.27715e-06 0)
(0.0674816 -1.09299e-05 0)
(0.0674808 -1.25783e-05 0)
(0.0674798 -1.42098e-05 0)
(0.0674789 -1.58346e-05 0)
(0.067478 -1.74353e-05 0)
(0.0674771 -1.90252e-05 0)
(0.0674763 -2.05831e-05 0)
(0.0674758 -2.21135e-05 0)
(0.0674754 -2.36036e-05 0)
(0.0674753 -2.50609e-05 0)
(0.0674846 -1.12742e-06 0)
(0.0674811 -2.6367e-06 0)
(0.0674807 -4.28885e-06 0)
(0.0674803 -5.95989e-06 0)
(0.0674797 -7.62868e-06 0)
(0.067479 -9.29536e-06 0)
(0.0674782 -1.0951e-05 0)
(0.0674774 -1.26014e-05 0)
(0.0674764 -1.42353e-05 0)
(0.0674755 -1.58615e-05 0)
(0.0674746 -1.7464e-05 0)
(0.0674737 -1.90549e-05 0)
(0.0674729 -2.06142e-05 0)
(0.0674724 -2.21458e-05 0)
(0.067472 -2.36373e-05 0)
(0.0674719 -2.50965e-05 0)
(0.0674812 -1.12982e-06 0)
(0.0674777 -2.64345e-06 0)
(0.0674774 -4.29975e-06 0)
(0.0674769 -5.97468e-06 0)
(0.0674763 -7.64737e-06 0)
(0.0674756 -9.31725e-06 0)
(0.0674748 -1.09763e-05 0)
(0.067474 -1.26289e-05 0)
(0.0674731 -1.42655e-05 0)
(0.0674721 -1.58932e-05 0)
(0.0674712 -1.74976e-05 0)
(0.0674703 -1.90895e-05 0)
(0.0674695 -2.06502e-05 0)
(0.067469 -2.21827e-05 0)
(0.0674686 -2.36755e-05 0)
(0.0674685 -2.51364e-05 0)
(0.0674778 -1.13272e-06 0)
(0.0674743 -2.65157e-06 0)
(0.067474 -4.31284e-06 0)
(0.0674735 -5.99249e-06 0)
(0.0674729 -7.66982e-06 0)
(0.0674723 -9.34359e-06 0)
(0.0674715 -1.10066e-05 0)
(0.0674706 -1.26621e-05 0)
(0.0674697 -1.43018e-05 0)
(0.0674687 -1.59311e-05 0)
(0.0674678 -1.75376e-05 0)
(0.0674669 -1.91304e-05 0)
(0.0674661 -2.06923e-05 0)
(0.0674655 -2.22256e-05 0)
(0.0674652 -2.37195e-05 0)
(0.0674651 -2.51819e-05 0)
(0.0674744 -1.1362e-06 0)
(0.0674709 -2.66136e-06 0)
(0.0674706 -4.32865e-06 0)
(0.0674701 -6.01399e-06 0)
(0.0674695 -7.69694e-06 0)
(0.0674688 -9.37545e-06 0)
(0.067468 -1.10432e-05 0)
(0.0674672 -1.27021e-05 0)
(0.0674663 -1.43455e-05 0)
(0.0674653 -1.59767e-05 0)
(0.0674644 -1.75856e-05 0)
(0.0674635 -1.91792e-05 0)
(0.0674627 -2.07423e-05 0)
(0.0674621 -2.22761e-05 0)
(0.0674618 -2.37706e-05 0)
(0.0674617 -2.52344e-05 0)
(0.067471 -1.1404e-06 0)
(0.0674675 -2.67308e-06 0)
(0.0674671 -4.34757e-06 0)
(0.0674667 -6.03979e-06 0)
(0.0674661 -7.72947e-06 0)
(0.0674654 -9.41379e-06 0)
(0.0674646 -1.10873e-05 0)
(0.0674638 -1.27505e-05 0)
(0.0674629 -1.43982e-05 0)
(0.0674619 -1.60319e-05 0)
(0.067461 -1.76436e-05 0)
(0.0674601 -1.9238e-05 0)
(0.0674593 -2.08023e-05 0)
(0.0674587 -2.23361e-05 0)
(0.0674584 -2.3831e-05 0)
(0.0674582 -2.52957e-05 0)
(0.0674676 -1.14543e-06 0)
(0.067464 -2.68702e-06 0)
(0.0674637 -4.37009e-06 0)
(0.0674633 -6.07055e-06 0)
(0.0674627 -7.7683e-06 0)
(0.067462 -9.45971e-06 0)
(0.0674612 -1.11402e-05 0)
(0.0674604 -1.28087e-05 0)
(0.0674594 -1.44618e-05 0)
(0.0674585 -1.60987e-05 0)
(0.0674576 -1.77137e-05 0)
(0.0674567 -1.93091e-05 0)
(0.0674559 -2.08747e-05 0)
(0.0674553 -2.24081e-05 0)
(0.0674549 -2.39031e-05 0)
(0.0674548 -2.53682e-05 0)
(0.0674641 -1.15141e-06 0)
(0.0674606 -2.70341e-06 0)
(0.0674603 -4.39659e-06 0)
(0.0674598 -6.10684e-06 0)
(0.0674593 -7.81418e-06 0)
(0.0674586 -9.51419e-06 0)
(0.0674578 -1.12031e-05 0)
(0.0674569 -1.28783e-05 0)
(0.067456 -1.4538e-05 0)
(0.0674551 -1.61791e-05 0)
(0.0674541 -1.77985e-05 0)
(0.0674533 -1.93953e-05 0)
(0.0674525 -2.09626e-05 0)
(0.0674519 -2.24953e-05 0)
(0.0674515 -2.39898e-05 0)
(0.0674513 -2.54546e-05 0)
(0.0674607 -1.15844e-06 0)
(0.0674571 -2.72238e-06 0)
(0.0674568 -4.4273e-06 0)
(0.0674564 -6.14902e-06 0)
(0.0674558 -7.86762e-06 0)
(0.0674551 -9.57796e-06 0)
(0.0674543 -1.1277e-05 0)
(0.0674535 -1.29606e-05 0)
(0.0674526 -1.46286e-05 0)
(0.0674517 -1.62754e-05 0)
(0.0674507 -1.79007e-05 0)
(0.0674498 -1.94998e-05 0)
(0.0674491 -2.10696e-05 0)
(0.0674485 -2.26014e-05 0)
(0.0674481 -2.40949e-05 0)
(0.0674479 -2.55581e-05 0)
(0.0674572 -1.16658e-06 0)
(0.0674536 -2.74399e-06 0)
(0.0674533 -4.46234e-06 0)
(0.0674529 -6.19729e-06 0)
(0.0674523 -7.92894e-06 0)
(0.0674516 -9.65151e-06 0)
(0.0674509 -1.13625e-05 0)
(0.06745 -1.30566e-05 0)
(0.0674491 -1.47351e-05 0)
(0.0674482 -1.63895e-05 0)
(0.0674473 -1.8023e-05 0)
(0.0674464 -1.96261e-05 0)
(0.0674457 -2.12004e-05 0)
(0.067445 -2.27322e-05 0)
(0.0674446 -2.42251e-05 0)
(0.0674445 -2.56853e-05 0)
(0.0674537 -1.17584e-06 0)
(0.0674501 -2.76808e-06 0)
(0.0674498 -4.50146e-06 0)
(0.0674494 -6.25133e-06 0)
(0.0674488 -7.99779e-06 0)
(0.0674482 -9.73453e-06 0)
(0.0674474 -1.14596e-05 0)
(0.0674466 -1.31664e-05 0)
(0.0674457 -1.48576e-05 0)
(0.0674448 -1.65225e-05 0)
(0.0674438 -1.81671e-05 0)
(0.067443 -1.97774e-05 0)
(0.0674422 -2.13602e-05 0)
(0.0674416 -2.28957e-05 0)
(0.0674412 -2.43925e-05 0)
(0.067441 -2.5853e-05 0)
(0.0674502 -1.18617e-06 0)
(0.0674465 -2.7943e-06 0)
(0.0674462 -4.54407e-06 0)
(0.0674458 -6.31037e-06 0)
(0.0674453 -8.0732e-06 0)
(0.0674446 -9.82591e-06 0)
(0.0674439 -1.15668e-05 0)
(0.0674431 -1.32886e-05 0)
(0.0674422 -1.49951e-05 0)
(0.0674413 -1.66732e-05 0)
(0.0674404 -1.83324e-05 0)
(0.0674395 -1.99537e-05 0)
(0.0674388 -2.15502e-05 0)
(0.0674382 -2.30951e-05 0)
(0.0674378 -2.46048e-05 0)
(0.0674376 -2.60759e-05 0)
(0.0674466 -1.19741e-06 0)
(0.0674429 -2.82199e-06 0)
(0.0674427 -4.58915e-06 0)
(0.0674422 -6.37298e-06 0)
(0.0674417 -8.15335e-06 0)
(0.0674411 -9.9235e-06 0)
(0.0674403 -1.16818e-05 0)
(0.0674395 -1.34205e-05 0)
(0.0674387 -1.51443e-05 0)
(0.0674378 -1.6838e-05 0)
(0.0674369 -1.85144e-05 0)
(0.0674361 -2.01491e-05 0)
(0.0674353 -2.17629e-05 0)
(0.0674347 -2.33195e-05 0)
(0.0674343 -2.48453e-05 0)
(0.0674341 -2.63283e-05 0)
(0.067443 -1.20928e-06 0)
(0.0674393 -2.85027e-06 0)
(0.067439 -4.63521e-06 0)
(0.0674386 -6.4371e-06 0)
(0.0674381 -8.2356e-06 0)
(0.0674375 -1.0024e-05 0)
(0.0674368 -1.18007e-05 0)
(0.067436 -1.35576e-05 0)
(0.0674351 -1.52999e-05 0)
(0.0674343 -1.70111e-05 0)
(0.0674334 -1.87063e-05 0)
(0.0674326 -2.03563e-05 0)
(0.0674319 -2.19891e-05 0)
(0.0674313 -2.35574e-05 0)
(0.0674309 -2.50998e-05 0)
(0.0674307 -2.65929e-05 0)
(0.0674394 -1.22139e-06 0)
(0.0674356 -2.87794e-06 0)
(0.0674354 -4.68034e-06 0)
(0.067435 -6.50007e-06 0)
(0.0674345 -8.31652e-06 0)
(0.0674339 -1.01234e-05 0)
(0.0674332 -1.19183e-05 0)
(0.0674324 -1.36942e-05 0)
(0.0674316 -1.54554e-05 0)
(0.0674307 -1.71851e-05 0)
(0.0674299 -1.88999e-05 0)
(0.0674291 -2.0566e-05 0)
(0.0674284 -2.22189e-05 0)
(0.0674279 -2.37976e-05 0)
(0.0674275 -2.53574e-05 0)
(0.0674272 -2.68574e-05 0)
(0.0674357 -1.23325e-06 0)
(0.0674319 -2.90362e-06 0)
(0.0674317 -4.72224e-06 0)
(0.0674313 -6.55866e-06 0)
(0.0674308 -8.39192e-06 0)
(0.0674302 -1.02162e-05 0)
(0.0674295 -1.20286e-05 0)
(0.0674288 -1.3823e-05 0)
(0.067428 -1.56025e-05 0)
(0.0674272 -1.73509e-05 0)
(0.0674264 -1.9085e-05 0)
(0.0674256 -2.07679e-05 0)
(0.0674249 -2.24407e-05 0)
(0.0674244 -2.40287e-05 0)
(0.067424 -2.56079e-05 0)
(0.0674238 -2.71099e-05 0)
(0.067432 -1.24424e-06 0)
(0.0674282 -2.92567e-06 0)
(0.0674279 -4.75823e-06 0)
(0.0674275 -6.60909e-06 0)
(0.0674271 -8.45687e-06 0)
(0.0674265 -1.02966e-05 0)
(0.0674258 -1.21243e-05 0)
(0.0674251 -1.39353e-05 0)
(0.0674243 -1.57312e-05 0)
(0.0674236 -1.74974e-05 0)
(0.0674228 -1.92491e-05 0)
(0.0674221 -2.09491e-05 0)
(0.0674214 -2.26409e-05 0)
(0.0674209 -2.42395e-05 0)
(0.0674206 -2.584e-05 0)
(0.0674204 -2.73351e-05 0)
(0.0674283 -1.25368e-06 0)
(0.0674244 -2.9423e-06 0)
(0.0674241 -4.78539e-06 0)
(0.0674238 -6.64718e-06 0)
(0.0674233 -8.50585e-06 0)
(0.0674227 -1.03574e-05 0)
(0.0674221 -1.21967e-05 0)
(0.0674214 -1.40213e-05 0)
(0.0674207 -1.583e-05 0)
(0.0674199 -1.76116e-05 0)
(0.0674192 -1.93781e-05 0)
(0.0674185 -2.1095e-05 0)
(0.0674179 -2.28042e-05 0)
(0.0674175 -2.44171e-05 0)
(0.0674172 -2.60345e-05 0)
(0.0674171 -2.75071e-05 0)
(0.0674245 -1.2608e-06 0)
(0.0674206 -2.95159e-06 0)
(0.0674203 -4.80056e-06 0)
(0.06742 -6.66853e-06 0)
(0.0674195 -8.53326e-06 0)
(0.067419 -1.03919e-05 0)
(0.0674183 -1.22379e-05 0)
(0.0674177 -1.40717e-05 0)
(0.067417 -1.58889e-05 0)
(0.0674163 -1.76827e-05 0)
(0.0674156 -1.94601e-05 0)
(0.0674149 -2.11902e-05 0)
(0.0674144 -2.29106e-05 0)
(0.067414 -2.45325e-05 0)
(0.0674138 -2.61501e-05 0)
(0.0674138 -2.75818e-05 0)
(0.0674206 -1.26478e-06 0)
(0.0674167 -2.95196e-06 0)
(0.0674165 -4.80136e-06 0)
(0.0674161 -6.67015e-06 0)
(0.0674157 -8.53605e-06 0)
(0.0674152 -1.03971e-05 0)
(0.0674146 -1.22445e-05 0)
(0.0674139 -1.40816e-05 0)
(0.0674132 -1.59002e-05 0)
(0.0674126 -1.76984e-05 0)
(0.0674119 -1.94755e-05 0)
(0.0674113 -2.12048e-05 0)
(0.0674109 -2.29158e-05 0)
(0.0674106 -2.45232e-05 0)
(0.0674105 -2.61145e-05 0)
(0.0674107 -2.74926e-05 0)
(0.0674168 -1.26492e-06 0)
(0.0674128 -2.9428e-06 0)
(0.0674126 -4.78657e-06 0)
(0.0674123 -6.64982e-06 0)
(0.0674118 -8.51039e-06 0)
(0.0674113 -1.03662e-05 0)
(0.0674108 -1.22053e-05 0)
(0.0674101 -1.40328e-05 0)
(0.0674095 -1.58362e-05 0)
(0.0674089 -1.76178e-05 0)
(0.0674083 -1.93695e-05 0)
(0.0674078 -2.10723e-05 0)
(0.0674074 -2.27442e-05 0)
(0.0674072 -2.43109e-05 0)
(0.0674073 -2.58507e-05 0)
(0.0674076 -2.71691e-05 0)
(0.0674129 -1.26097e-06 0)
(0.0674089 -2.92017e-06 0)
(0.0674087 -4.74884e-06 0)
(0.0674084 -6.59521e-06 0)
(0.067408 -8.43603e-06 0)
(0.0674075 -1.02693e-05 0)
(0.067407 -1.20806e-05 0)
(0.0674064 -1.38762e-05 0)
(0.0674058 -1.56397e-05 0)
(0.0674052 -1.73774e-05 0)
(0.0674047 -1.90752e-05 0)
(0.0674043 -2.07236e-05 0)
(0.067404 -2.23293e-05 0)
(0.067404 -2.38334e-05 0)
(0.0674042 -2.53007e-05 0)
(0.0674047 -2.65545e-05 0)
(0.067409 -1.25129e-06 0)
(0.067405 -2.87183e-06 0)
(0.0674048 -4.66805e-06 0)
(0.0674045 -6.47843e-06 0)
(0.0674042 -8.27806e-06 0)
(0.0674037 -1.00654e-05 0)
(0.0674032 -1.18243e-05 0)
(0.0674027 -1.35623e-05 0)
(0.0674022 -1.52598e-05 0)
(0.0674017 -1.69277e-05 0)
(0.0674013 -1.85468e-05 0)
(0.0674009 -2.01175e-05 0)
(0.0674008 -2.16358e-05 0)
(0.0674009 -2.3062e-05 0)
(0.0674013 -2.44436e-05 0)
(0.067402 -2.56343e-05 0)
(0.0674051 -1.23066e-06 0)
(0.0674012 -2.78497e-06 0)
(0.0674011 -4.52419e-06 0)
(0.0674008 -6.27349e-06 0)
(0.0674005 -8.00669e-06 0)
(0.0674001 -9.72283e-06 0)
(0.0673996 -1.14042e-05 0)
(0.0673992 -1.30602e-05 0)
(0.0673987 -1.46689e-05 0)
(0.0673983 -1.62457e-05 0)
(0.067398 -1.77664e-05 0)
(0.0673978 -1.92426e-05 0)
(0.0673977 -2.06596e-05 0)
(0.067398 -2.19993e-05 0)
(0.0673986 -2.32903e-05 0)
(0.0673995 -2.44249e-05 0)
(0.0674013 -1.19359e-06 0)
(0.0673976 -2.65205e-06 0)
(0.0673974 -4.306e-06 0)
(0.0673972 -5.96667e-06 0)
(0.0673969 -7.60739e-06 0)
(0.0673966 -9.22771e-06 0)
(0.0673962 -1.0809e-05 0)
(0.0673958 -1.23625e-05 0)
(0.0673955 -1.38642e-05 0)
(0.0673951 -1.5334e-05 0)
(0.0673949 -1.67434e-05 0)
(0.0673948 -1.81144e-05 0)
(0.0673949 -1.94226e-05 0)
(0.0673953 -2.06727e-05 0)
(0.067396 -2.18727e-05 0)
(0.0673972 -2.29586e-05 0)
(0.0673976 -1.13679e-06 0)
(0.0673941 -2.47302e-06 0)
(0.067394 -4.01402e-06 0)
(0.0673938 -5.55982e-06 0)
(0.0673936 -7.08424e-06 0)
(0.0673933 -8.58738e-06 0)
(0.067393 -1.00503e-05 0)
(0.0673927 -1.14851e-05 0)
(0.0673924 -1.2867e-05 0)
(0.0673922 -1.42191e-05 0)
(0.0673921 -1.55094e-05 0)
(0.0673921 -1.67695e-05 0)
(0.0673923 -1.79659e-05 0)
(0.0673928 -1.91258e-05 0)
(0.0673937 -2.02367e-05 0)
(0.067395 -2.12795e-05 0)
(0.0673942 -1.06017e-06 0)
(0.067391 -2.25547e-06 0)
(0.0673909 -3.66063e-06 0)
(0.0673907 -5.0701e-06 0)
(0.0673905 -6.45916e-06 0)
(0.0673903 -7.82846e-06 0)
(0.0673901 -9.1591e-06 0)
(0.0673899 -1.0464e-05 0)
(0.0673897 -1.17174e-05 0)
(0.0673896 -1.29452e-05 0)
(0.0673895 -1.41124e-05 0)
(0.0673896 -1.52588e-05 0)
(0.0673899 -1.63432e-05 0)
(0.0673906 -1.74134e-05 0)
(0.0673916 -1.84374e-05 0)
(0.067393 -1.94404e-05 0)
(0.067391 -9.66951e-07 0)
(0.0673881 -2.01268e-06 0)
(0.0673881 -3.26696e-06 0)
(0.067388 -4.52587e-06 0)
(0.0673878 -5.76694e-06 0)
(0.0673877 -6.99137e-06 0)
(0.0673875 -8.18084e-06 0)
(0.0673874 -9.34854e-06 0)
(0.0673873 -1.04684e-05 0)
(0.0673872 -1.15681e-05 0)
(0.0673873 -1.26106e-05 0)
(0.0673874 -1.36424e-05 0)
(0.0673879 -1.46157e-05 0)
(0.0673886 -1.55965e-05 0)
(0.0673897 -1.6535e-05 0)
(0.0673912 -1.74986e-05 0)
(0.0673882 -8.62844e-07 0)
(0.0673857 -1.76061e-06 0)
(0.0673856 -2.85827e-06 0)
(0.0673855 -3.96088e-06 0)
(0.0673855 -5.04864e-06 0)
(0.0673854 -6.12323e-06 0)
(0.0673853 -7.16749e-06 0)
(0.0673852 -8.19458e-06 0)
(0.0673851 -9.17881e-06 0)
(0.0673852 -1.01489e-05 0)
(0.0673853 -1.10668e-05 0)
(0.0673855 -1.19837e-05 0)
(0.067386 -1.28472e-05 0)
(0.0673868 -1.37384e-05 0)
(0.0673879 -1.45922e-05 0)
(0.0673895 -1.5514e-05 0)
(0.0673857 -7.54727e-07 0)
(0.0673836 -1.51471e-06 0)
(0.0673836 -2.45916e-06 0)
(0.0673835 -3.40815e-06 0)
(0.0673834 -4.34461e-06 0)
(0.0673834 -5.27062e-06 0)
(0.0673833 -6.17058e-06 0)
(0.0673833 -7.05758e-06 0)
(0.0673833 -7.90701e-06 0)
(0.0673834 -8.74803e-06 0)
(0.0673836 -9.54268e-06 0)
(0.0673839 -1.03454e-05 0)
(0.0673845 -1.11007e-05 0)
(0.0673853 -1.19014e-05 0)
(0.0673864 -1.26703e-05 0)
(0.067388 -1.35457e-05 0)
(0.0673836 -6.49279e-07 0)
(0.0673818 -1.28729e-06 0)
(0.0673818 -2.08943e-06 0)
(0.0673818 -2.89474e-06 0)
(0.0673818 -3.68862e-06 0)
(0.0673817 -4.47328e-06 0)
(0.0673817 -5.23489e-06 0)
(0.0673817 -5.98643e-06 0)
(0.0673818 -6.70507e-06 0)
(0.0673819 -7.42002e-06 0)
(0.0673822 -8.09449e-06 0)
(0.0673826 -8.78446e-06 0)
(0.0673831 -9.43354e-06 0)
(0.067384 -1.01426e-05 0)
(0.0673851 -1.08261e-05 0)
(0.0673866 -1.16487e-05 0)
(0.0673819 -5.5179e-07 0)
(0.0673804 -1.0858e-06 0)
(0.0673804 -1.76147e-06 0)
(0.0673804 -2.43832e-06 0)
(0.0673804 -3.10376e-06 0)
(0.0673804 -3.75966e-06 0)
(0.0673804 -4.39387e-06 0)
(0.0673805 -5.01902e-06 0)
(0.0673806 -5.61456e-06 0)
(0.0673808 -6.20935e-06 0)
(0.067381 -6.76879e-06 0)
(0.0673814 -7.34898e-06 0)
(0.067382 -7.89479e-06 0)
(0.0673829 -8.51121e-06 0)
(0.067384 -9.10922e-06 0)
(0.0673854 -9.87175e-06 0)
(0.0673804 -4.65451e-07 0)
(0.0673793 -9.12699e-07 0)
(0.0673793 -1.47972e-06 0)
(0.0673793 -2.04606e-06 0)
(0.0673793 -2.60066e-06 0)
(0.0673793 -3.14452e-06 0)
(0.0673794 -3.66672e-06 0)
(0.0673795 -4.17909e-06 0)
(0.0673796 -4.66341e-06 0)
(0.0673798 -5.14762e-06 0)
(0.0673801 -5.60002e-06 0)
(0.0673806 -6.07557e-06 0)
(0.0673811 -6.52242e-06 0)
(0.067382 -7.04626e-06 0)
(0.067383 -7.55918e-06 0)
(0.0673843 -8.25413e-06 0)
(0.0673793 -3.91284e-07 0)
(0.0673784 -7.66667e-07 0)
(0.0673784 -1.24232e-06 0)
(0.0673784 -1.7161e-06 0)
(0.0673784 -2.17835e-06 0)
(0.0673785 -2.62894e-06 0)
(0.0673786 -3.05765e-06 0)
(0.0673787 -3.47479e-06 0)
(0.0673789 -3.86402e-06 0)
(0.0673791 -4.25155e-06 0)
(0.0673795 -4.60872e-06 0)
(0.0673799 -4.98794e-06 0)
(0.0673805 -5.34237e-06 0)
(0.0673812 -5.77524e-06 0)
(0.0673822 -6.20429e-06 0)