/*--------------------------------*- C++ -*----------------------------------*\
| =========                 |                                                 |
| \\      /  F ield         | foam-extend: Open Source CFD                    |
|  \\    /   O peration     | Version:     4.1-20200408                       |
|   \\  /    A nd           | Web:         http://www.foam-extend.org         |
|    \\/     M anipulation  |                                                 |
\*---------------------------------------------------------------------------*/
FoamFile
{
    version     2.0;
    format      ascii;
    class       volScalarField;
    location    "0.0525000";
    object      epsilonTrueEq;
}
// * * * * * * * * * * * * * * * * * * * * * * * * * * * * * * * * * * * * * //

dimensions      [0 0 0 0 0 0 0];

internalField   nonuniform List<scalar> 
1952
(
0.0676319
0.0677071
0.0678051
0.0679177
0.0680278
0.0681192
0.068172
0.0681616
0.0680632
0.0678511
0.0675031
0.0670057
0.0664258
0.0658514
0.0655501
0.0675975
0.0677009
0.0677763
0.0678732
0.0679867
0.0680948
0.0681876
0.0682382
0.0682301
0.06813
0.0679214
0.0675738
0.0670818
0.0665063
0.0659419
0.0656508
0.0676666
0.0677767
0.0678522
0.067949
0.0680625
0.0681714
0.0682647
0.0683157
0.0683082
0.0682087
0.0680009
0.0676543
0.0671633
0.0665884
0.0660222
0.0657238
0.0677424
0.0678564
0.067932
0.068029
0.0681426
0.0682517
0.0683453
0.0683968
0.0683897
0.068291
0.0680838
0.0677379
0.0672469
0.066672
0.0661048
0.0658035
0.0678221
0.0679394
0.0680152
0.0681125
0.0682264
0.0683358
0.0684297
0.0684817
0.068475
0.0683768
0.0681696
0.0678239
0.0673325
0.0667567
0.0661873
0.065882
0.0679051
0.0680258
0.0681018
0.0681991
0.0683131
0.0684226
0.0685167
0.0685688
0.0685622
0.0684644
0.0682573
0.0679112
0.0674188
0.0668422
0.0662705
0.0659625
0.0679915
0.0681146
0.0681905
0.0682879
0.0684019
0.0685116
0.0686057
0.0686579
0.0686512
0.0685535
0.0683463
0.0679998
0.0675063
0.066928
0.0663543
0.066044
0.0680802
0.0682051
0.0682811
0.0683784
0.0684924
0.0686024
0.0686965
0.0687488
0.0687419
0.0686441
0.0684359
0.0680884
0.0675937
0.0670142
0.0664386
0.0661263
0.0681708
0.0682974
0.0683734
0.0684707
0.0685845
0.0686942
0.068788
0.06884
0.0688328
0.0687348
0.0685263
0.0681778
0.0676819
0.0671008
0.0665235
0.0662098
0.0682631
0.0683899
0.0684659
0.0685632
0.0686769
0.0687868
0.0688805
0.0689324
0.0689248
0.0688263
0.0686167
0.0682673
0.0677702
0.0671877
0.0666091
0.0662941
0.0683556
0.0684833
0.0685593
0.0686565
0.0687701
0.0688796
0.0689731
0.0690247
0.0690166
0.0689178
0.0687073
0.0683567
0.0678584
0.067275
0.0666954
0.0663792
0.0684491
0.0685766
0.0686525
0.0687496
0.0688631
0.0689725
0.0690656
0.0691168
0.0691083
0.069009
0.0687981
0.0684468
0.0679474
0.0673629
0.0667823
0.0664652
0.0685423
0.0686694
0.0687453
0.0688424
0.0689556
0.0690653
0.0691583
0.0692093
0.0692003
0.0691007
0.0688889
0.0685367
0.0680363
0.067451
0.0668695
0.0665513
0.0686352
0.0687622
0.0688382
0.0689352
0.0690483
0.0691577
0.0692504
0.0693012
0.0692918
0.0691919
0.0689796
0.0686267
0.0681254
0.0675394
0.0669566
0.0666379
0.068728
0.0688543
0.0689302
0.0690271
0.0691402
0.0692497
0.0693422
0.0693929
0.0693833
0.0692831
0.0690702
0.0687167
0.0682147
0.0676275
0.0670441
0.0667249
0.06882
0.0689457
0.0690217
0.0691187
0.0692317
0.0693412
0.0694336
0.0694842
0.0694744
0.0693741
0.0691602
0.0688059
0.0683033
0.0677158
0.067132
0.0668124
0.0689115
0.0690365
0.0691125
0.0692096
0.0693225
0.0694317
0.0695239
0.0695744
0.0695643
0.069464
0.0692502
0.0688953
0.0683922
0.0678043
0.06722
0.0669005
0.0690023
0.0691258
0.0692018
0.069299
0.0694118
0.0695216
0.0696138
0.0696643
0.0696541
0.0695538
0.0693397
0.0689846
0.0684811
0.0678928
0.0673087
0.0669891
0.0690915
0.0692142
0.0692904
0.0693876
0.0695005
0.0696103
0.0697026
0.0697533
0.0697433
0.0696432
0.0694291
0.0690735
0.0685697
0.0679819
0.0673978
0.0670783
0.0691799
0.069301
0.0693774
0.0694749
0.069588
0.0696981
0.0697906
0.0698416
0.0698317
0.0697319
0.0695184
0.069163
0.0686594
0.0680715
0.0674873
0.0671678
0.0692667
0.0693863
0.0694629
0.0695606
0.0696739
0.069785
0.069878
0.0699296
0.0699203
0.0698211
0.0696079
0.0692527
0.0687493
0.0681612
0.0675765
0.0672572
0.069352
0.0694706
0.0695475
0.0696457
0.0697594
0.0698711
0.0699647
0.0700171
0.0700084
0.0699099
0.0696969
0.0693419
0.068839
0.0682509
0.0676664
0.0673473
0.0694361
0.0695537
0.069631
0.0697297
0.069844
0.0699563
0.0700505
0.0701038
0.0700958
0.0699982
0.0697856
0.0694309
0.0689285
0.0683411
0.0677575
0.0674385
0.0695191
0.0696358
0.0697133
0.0698126
0.0699275
0.0700404
0.0701353
0.0701895
0.0701823
0.0700856
0.0698742
0.0695201
0.0690184
0.0684316
0.0678491
0.0675306
0.069601
0.0697167
0.0697943
0.0698938
0.0700096
0.0701238
0.0702194
0.0702747
0.0702684
0.070173
0.0699625
0.0696091
0.0691085
0.0685225
0.0679413
0.0676234
0.0696817
0.0697967
0.0698745
0.0699743
0.070091
0.0702061
0.0703023
0.0703589
0.0703537
0.0702597
0.0700506
0.0696981
0.0691988
0.0686138
0.0680341
0.0677172
0.0697616
0.0698753
0.0699534
0.070054
0.0701711
0.0702875
0.0703845
0.0704425
0.0704385
0.070346
0.0701387
0.0697874
0.0692898
0.0687059
0.0681281
0.0678123
0.0698401
0.0699533
0.0700316
0.070133
0.0702504
0.0703681
0.0704661
0.0705255
0.0705231
0.0704321
0.0702267
0.0698767
0.0693811
0.0687987
0.0682228
0.0679087
0.0699179
0.0700309
0.0701094
0.0702117
0.0703295
0.0704484
0.0705472
0.0706081
0.0706072
0.070518
0.0703147
0.0699663
0.069473
0.0688924
0.0683189
0.0680067
0.0699954
0.0701089
0.0701874
0.0702905
0.0704084
0.0705284
0.0706281
0.0706903
0.0706911
0.0706037
0.0704028
0.0700562
0.0695657
0.0689869
0.0684162
0.0681065
0.0700732
0.0701881
0.0702665
0.0703702
0.0704881
0.0706092
0.0707094
0.0707729
0.0707752
0.0706895
0.0704907
0.0701459
0.0696585
0.0690823
0.0685151
0.0682083
0.0701524
0.0702702
0.0703482
0.0704522
0.0705695
0.0706908
0.070791
0.0708554
0.0708589
0.0707749
0.0705787
0.0702358
0.069752
0.0691788
0.068616
0.0683128
0.0702345
0.0703561
0.0704332
0.0705371
0.0706531
0.0707746
0.0708741
0.0709389
0.0709432
0.0708603
0.0706667
0.070326
0.0698462
0.0692767
0.0687186
0.0684198
0.0703205
0.0704483
0.070524
0.0706271
0.070741
0.0708616
0.0709596
0.0710239
0.0710284
0.0709462
0.0707552
0.0704165
0.0699412
0.0693755
0.0688231
0.0685296
0.070413
0.0705491
0.0706226
0.0707242
0.070835
0.0709538
0.0710491
0.0711118
0.0711154
0.0710329
0.0708438
0.0705071
0.0700367
0.0694751
0.0689292
0.0686424
0.0705142
0.070662
0.0707325
0.0708318
0.0709379
0.0710532
0.0711441
0.0712037
0.071205
0.0711208
0.0709325
0.0705973
0.0701318
0.0695753
0.0690373
0.0687586
0.0706278
0.070791
0.0708575
0.070953
0.0710528
0.0711626
0.0712466
0.0713011
0.071298
0.0712101
0.0710217
0.0706875
0.0702272
0.0696757
0.0691473
0.0688785
0.0707578
0.0709405
0.0710017
0.0710919
0.0711832
0.0712854
0.0713601
0.0714067
0.0713966
0.0713027
0.0711117
0.0707771
0.0703219
0.0697761
0.069259
0.0690021
0.0709087
0.0711171
0.0711713
0.0712543
0.0713343
0.0714256
0.0714874
0.0715229
0.0715022
0.0714006
0.0712041
0.0708667
0.070416
0.0698758
0.0693717
0.069129
0.0710872
0.0713265
0.0713723
0.0714458
0.0715117
0.0715892
0.0716344
0.0716546
0.0716187
0.0715053
0.0713
0.0709568
0.070509
0.0699736
0.0694842
0.0692587
0.0712991
0.0715773
0.0716128
0.0716745
0.0717231
0.0717829
0.0718067
0.0718069
0.0717505
0.0716194
0.0714005
0.0710475
0.0705999
0.0700684
0.0695953
0.0693905
0.0715529
0.0718776
0.0719012
0.0719488
0.0719767
0.0720142
0.0720115
0.0719862
0.0719025
0.071748
0.0715093
0.0711408
0.0706894
0.0701588
0.0697033
0.0695228
0.0718568
0.0722359
0.0722458
0.0722768
0.0722807
0.0722923
0.0722581
0.0722013
0.0720832
0.0718977
0.0716311
0.0712396
0.0707782
0.0702436
0.0698062
0.0696528
0.0722192
0.0726605
0.0726555
0.0726678
0.072645
0.0726268
0.0725561
0.0724624
0.0723024
0.0720776
0.0717731
0.0713488
0.0708676
0.0703216
0.0699002
0.069777
0.0726484
0.0731579
0.0731371
0.0731295
0.0730781
0.0730271
0.0729163
0.0727807
0.0725722
0.0723009
0.0719474
0.0714782
0.0709627
0.07039
0.0699753
0.0698877
0.0731508
0.0737317
0.0736951
0.0736669
0.0735864
0.0735019
0.0733496
0.0731699
0.0729086
0.0725856
0.0721742
0.0716493
0.0710833
0.0704621
0.0700305
0.0699708
0.0737297
0.0743822
0.0743303
0.0742822
0.0741738
0.0740564
0.0738633
0.0736403
0.0733264
0.0729524
0.0724815
0.071901
0.0712818
0.0706056
0.0701384
0.0700611
0.0743851
0.0751038
0.0750378
0.0749714
0.0748372
0.074689
0.0744584
0.0741951
0.073832
0.0734124
0.0728861
0.0722597
0.0715964
0.0708773
0.0703794
0.0702482
0.0751112
0.0758843
0.075806
0.0757232
0.0755665
0.0753914
0.0751275
0.0748275
0.0744186
0.0739562
0.0733737
0.0727026
0.0719866
0.0712101
0.070662
0.0704344
0.0758958
0.0767058
0.0766172
0.0765206
0.0763453
0.0761467
0.0758545
0.0755214
0.0750698
0.0745649
0.0739207
0.0731982
0.072405
0.0715423
0.0709171
0.0705738
0.0767208
0.0775433
0.0774465
0.0773387
0.0771487
0.0769307
0.0766155
0.0762536
0.0757632
0.0752161
0.0745056
0.073724
0.072824
0.0718528
0.0711284
0.0706332
0.0775611
0.0783657
0.0782625
0.078146
0.0779452
0.0777126
0.0773812
0.0769955
0.0764724
0.075884
0.0751071
0.0742593
0.0732255
0.0721396
0.0712835
0.0705322
0.0783856
0.0791374
0.0790294
0.0789061
0.0786976
0.0784538
0.0781119
0.0777077
0.0771589
0.0765329
0.0756987
0.0747833
0.0736116
0.0724131
0.0713176
0.0701413
0.0791589
0.0798178
0.079705
0.0795742
0.0793582
0.0791044
0.0787566
0.0783387
0.0777733
0.0771229
0.0762573
0.0752937
0.0740094
0.0726454
0.0710647
0.0692642
0.079841
0.0803598
0.0802415
0.0801023
0.0798806
0.0796248
0.0792852
0.0788714
0.0783101
0.0776425
0.0767323
0.0756915
0.0742597
0.0726082
0.0703463
0.0677944
0.0803847
0.0807462
0.0806307
0.080496
0.0802798
0.0800122
0.0796611
0.0792267
0.0786417
0.0779099
0.0768784
0.0756469
0.073944
0.0719156
0.0690347
0.0658033
0.0807692
0.0809453
0.0808225
0.080677
0.0804424
0.0801088
0.0796661
0.0791139
0.0783974
0.0775017
0.076284
0.0747944
0.07278
0.0703867
0.0670712
0.0633743
0.080969
0.0807245
0.0805483
0.0803188
0.0799804
0.0795154
0.0789176
0.0781819
0.0772704
0.0761613
0.074742
0.0730045
0.0707357
0.0680451
0.0644676
0.0605319
0.0807658
0.0796529
0.0793936
0.0790369
0.0785472
0.0779217
0.077155
0.0762379
0.0751467
0.0738506
0.0722632
0.0703303
0.0678919
0.0650025
0.0613433
0.0574008
0.0797251
0.0773553
0.0770241
0.0765599
0.0759452
0.0751882
0.0742902
0.0732424
0.0720297
0.0706114
0.0689246
0.0668787
0.0643751
0.0614121
0.0578474
0.0541095
0.0774576
0.073642
0.0732798
0.0727671
0.0720973
0.0712858
0.0703381
0.0692464
0.0679999
0.0665486
0.0648483
0.0627826
0.0603171
0.0574036
0.0540804
0.0507141
0.0737604
0.0685401
0.0682012
0.0677161
0.0670809
0.0663107
0.0654104
0.0643713
0.0631833
0.0617908
0.0601631
0.0581687
0.0558336
0.0530775
0.0501123
0.0472479
0.0686533
0.0622904
0.0620199
0.0616266
0.0611023
0.0604563
0.0596869
0.0587831
0.0577317
0.056476
0.0549941
0.0531499
0.051022
0.0485153
0.0460024
0.043744
0.0623787
0.0552839
0.0551031
0.0548338
0.0544607
0.0539849
0.0533953
0.0526775
0.0518129
0.0507476
0.0494632
0.0478306
0.0459698
0.0437895
0.0418057
0.0402333
0.0553365
0.0479766
0.0478776
0.0477256
0.0474991
0.0471936
0.0467887
0.0462684
0.0456062
0.0447551
0.0436952
0.0423149
0.0407636
0.0389726
0.0375779
0.0367478
0.0479954
0.0408046
0.0407561
0.0406817
0.0405587
0.0403822
0.0401265
0.0397769
0.0392992
0.0386563
0.0378224
0.0367133
0.0354957
0.0341415
0.0333768
0.0333153
0.0408018
0.0341149
0.034077
0.034026
0.0339425
0.0338281
0.0336574
0.0334224
0.0330828
0.0326152
0.0319855
0.0311455
0.0302682
0.0293823
0.0292645
0.0299609
0.0341072
0.0281243
0.0280662
0.0279923
0.0278874
0.0277646
0.0276043
0.0274115
0.0271441
0.0267973
0.0263293
0.0257371
0.0251908
0.0247879
0.0253055
0.0267059
0.0281245
0.0229129
0.0228254
0.0227087
0.0225466
0.0223635
0.0221496
0.021928
0.02166
0.0213654
0.0210004
0.0206165
0.0203757
0.0204492
0.0215567
0.0235635
0.0229251
0.018452
0.0183459
0.0181967
0.0179787
0.0177206
0.0174214
0.0171229
0.0167933
0.0164817
0.0161518
0.0159187
0.0159365
0.0164453
0.0180507
0.0205281
0.018472
0.0146646
0.014555
0.0143974
0.0141544
0.013849
0.0134796
0.0130986
0.01268
0.0123009
0.011943
0.0117902
0.0119908
0.0128386
0.0147809
0.0175541
0.0146872
0.0114713
0.0113574
0.0111965
0.0109534
0.0106479
0.0102616
0.00984119
0.0093615
0.00892084
0.0085244
0.00840901
0.0087026
0.00971048
0.0117323
0.0145736
0.0114977
0.00874036
0.00860901
0.00842465
0.00817824
0.00793164
0.0076299
0.00729341
0.0069014
0.00654945
0.00625171
0.00621338
0.00648837
0.00730848
0.00901665
0.0116322
0.00877622
0.00657209
0.00645344
0.00628666
0.00608588
0.00593052
0.00575743
0.00557701
0.00537777
0.00523004
0.00513228
0.00519773
0.00540774
0.00589884
0.00698294
0.00902223
0.00660709
0.0051465
0.00508249
0.00499766
0.00489243
0.00478039
0.00465227
0.00454091
0.00443893
0.00440703
0.00443552
0.00459812
0.00485566
0.00528455
0.00586831
0.00709929
0.00516544
0.00417202
0.00413312
0.00408373
0.00401959
0.00393433
0.0038397
0.00377236
0.00373035
0.00376701
0.00387318
0.00410758
0.0044238
0.00489589
0.00535494
0.00602896
0.00418401
0.00336715
0.00333812
0.00329984
0.00325682
0.00321188
0.00317284
0.00316627
0.00319658
0.00329967
0.00346883
0.0037382
0.00406964
0.0045199
0.00499078
0.00555801
0.00337724
0.00272124
0.00270935
0.00269213
0.00267845
0.00266717
0.00267346
0.00271359
0.00279752
0.00294418
0.00315219
0.00343682
0.00377475
0.00419481
0.00464176
0.00517829
0.00272676
0.00220693
0.00220874
0.00220839
0.0022215
0.00224357
0.00229298
0.0023742
0.00250115
0.00267743
0.00290714
0.00319138
0.00351961
0.00390399
0.00431853
0.00478758
0.00220902
0.0018076
0.00182388
0.00184108
0.00188028
0.00193053
0.002014
0.0021244
0.00227904
0.00246996
0.00270672
0.00298082
0.00329166
0.00363938
0.0040135
0.00442728
0.00180559
0.00150196
0.00153124
0.00156388
0.00162555
0.00169858
0.0018077
0.00193754
0.00210819
0.00230355
0.00253762
0.00279566
0.00308384
0.0033949
0.00372735
0.00408554
0.00149599
0.00127377
0.00131455
0.00136036
0.00143996
0.00152935
0.0016551
0.00179523
0.00197198
0.00216418
0.00238903
0.00262798
0.00289145
0.00316787
0.00346017
0.0037696
0.00126397
0.00110693
0.00115677
0.00121256
0.00130473
0.00140438
0.00153911
0.00168264
0.00185866
0.00204303
0.00225493
0.00247369
0.00271211
0.00295634
0.00321158
0.00347755
0.00109381
0.000988284
0.00104437
0.00110675
0.00120623
0.00131078
0.00144831
0.00159018
0.00176077
0.00193453
0.00213153
0.0023302
0.00254445
0.0027595
0.00298148
0.00320989
0.000972634
0.000906386
0.00096577
0.00103143
0.00113358
0.00123879
0.00137456
0.00151142
0.00167365
0.00183537
0.00201677
0.00219616
0.0023877
0.00257657
0.0027691
0.00296511
0.000889156
0.000852029
0.000912023
0.000978118
0.00107921
0.00118192
0.00131274
0.00144242
0.00159457
0.00174368
0.00190948
0.00207078
0.0022414
0.00240702
0.0025738
0.00274213
0.000834186
0.000817757
0.00087618
0.000940483
0.00103776
0.00113577
0.00125951
0.00138073
0.00152186
0.00165836
0.00180901
0.00195354
0.0021051
0.00225018
0.00239457
0.00253934
0.000800139
0.00079773
0.000853016
0.00091394
0.00100552
0.00109739
0.00121273
0.00132479
0.00145455
0.00157872
0.00171493
0.00184407
0.00197837
0.00210537
0.00223035
0.0023551
0.000780969
0.000787372
0.000838537
0.000895077
0.000979811
0.00106468
0.00117091
0.00127354
0.00139194
0.00150429
0.00162689
0.00174196
0.00186073
0.00197186
0.0020801
0.00218791
0.000771871
0.000783146
0.000829694
0.000881319
0.000958629
0.0010361
0.00113296
0.0012262
0.00133348
0.00143463
0.00154453
0.00164681
0.00175164
0.00184884
0.00194262
0.00203607
0.000769115
0.000782339
0.00082414
0.000870677
0.000940423
0.00101045
0.00109798
0.00118209
0.00127871
0.00136935
0.00146748
0.00155817
0.00165053
0.00173552
0.00181684
0.00189818
0.00076984
0.000782914
0.000820081
0.000861613
0.000923963
0.000986728
0.00106525
0.00114064
0.00122717
0.00130805
0.00139535
0.00147559
0.0015568
0.0016311
0.00170168
0.00177281
0.000771908
0.000783372
0.000816174
0.000852949
0.000908278
0.000964146
0.00103412
0.00110133
0.00117844
0.00125033
0.00132773
0.00139857
0.00146987
0.00153484
0.00159616
0.00165862
0.000773763
0.000782655
0.000811442
0.000843808
0.000892616
0.00094206
0.00100408
0.00106371
0.00113211
0.0011958
0.00126421
0.00132665
0.00138917
0.00144602
0.00149942
0.00155461
0.000774317
0.000780056
0.000805213
0.000833566
0.000876419
0.000919973
0.000974692
0.00102738
0.00108781
0.00114407
0.00120436
0.00125933
0.00131407
0.00136385
0.00141042
0.00145944
0.000772851
0.000775141
0.000797058
0.000821809
0.000859294
0.000897521
0.000945608
0.000992006
0.00104522
0.0010948
0.00114781
0.00119614
0.00124403
0.00128768
0.0013284
0.00137226
0.000768934
0.000767692
0.000786744
0.000808297
0.000840993
0.000874452
0.000916581
0.00095734
0.00100407
0.00104768
0.0010942
0.00113668
0.00117855
0.00121688
0.00125259
0.00129211
0.000762354
0.000757651
0.000774188
0.000792926
0.000821385
0.000850617
0.000887437
0.000923183
0.000964133
0.00100246
0.00104322
0.00108056
0.00111716
0.00115092
0.00118235
0.00121823
0.000753063
0.000745077
0.000759419
0.000775698
0.000800434
0.00082595
0.000858076
0.000889399
0.000925227
0.000958899
0.000994583
0.00102745
0.00105947
0.00108929
0.00111708
0.00114995
0.000741134
0.000730116
0.000742551
0.000756695
0.000778179
0.000800448
0.00082845
0.000855902
0.000887222
0.000916831
0.00094807
0.000977059
0.0010051
0.00103157
0.00105627
0.00108662
0.000726724
0.000712972
0.000723757
0.000736057
0.000754713
0.000774166
0.000798564
0.000822649
0.000850027
0.000876111
0.000903479
0.000929129
0.000953749
0.000977375
0.000999469
0.00102775
0.00071005
0.000693888
0.000703248
0.000713963
0.000730169
0.000747191
0.000768457
0.000789631
0.000813581
0.000836626
0.000860643
0.000883441
0.000905132
0.000926366
0.000946276
0.000972859
0.000691364
0.00067313
0.000681263
0.000690619
0.000704709
0.000719641
0.000738193
0.000756867
0.000777846
0.000798292
0.000819423
0.000839802
0.000859003
0.000878242
0.000896332
0.000921531
0.000670944
0.000650978
0.000658054
0.000666247
0.000678512
0.000691654
0.00070786
0.000724393
0.00074281
0.000761043
0.000779702
0.000798048
0.000815149
0.000832748
0.000849345
0.000873449
0.000649077
0.000627719
0.000633883
0.000641083
0.000651771
0.000663381
0.000677561
0.000692268
0.000708477
0.000724836
0.000741386
0.000758036
0.000773378
0.000789643
0.000805028
0.000828275
0.000626059
0.000603642
0.000609018
0.000615365
0.000624689
0.000634985
0.000647412
0.000660558
0.000674865
0.000689642
0.000704398
0.000719646
0.00073353
0.000748733
0.000763162
0.000785775
0.000602187
0.000579041
0.000583731
0.000589341
0.000597477
0.000606637
0.000617539
0.000629346
0.000642009
0.000655449
0.000668677
0.000682775
0.000695463
0.000709841
0.000723538
0.000745722
0.000577762
0.000554212
0.000558298
0.000563262
0.000570353
0.00057852
0.000588082
0.000598726
0.000609953
0.000622256
0.00063418
0.00064734
0.000659058
0.000672821
0.000685992
0.000707916
0.000553086
0.000529455
0.000533001
0.000537387
0.000543547
0.000550825
0.000559191
0.000568804
0.000578759
0.000590074
0.000600871
0.000613265
0.00062421
0.000637549
0.000650402
0.000672256
0.000528464
0.000505074
0.000508132
0.000511986
0.000517298
0.000523758
0.000531035
0.000539701
0.0005485
0.00055893
0.000568727
0.000580477
0.0005908
0.000603864
0.000616574
0.000638518
0.000504207
0.000481386
0.00048399
0.00048734
0.000491865
0.000497543
0.000503802
0.000511562
0.000519278
0.000528869
0.000537743
0.000548923
0.000558737
0.000571645
0.00058439
0.000606609
0.000480636
0.000458712
0.000460889
0.000463745
0.000467523
0.000472426
0.000477709
0.000484558
0.00049122
0.000499963
0.00050794
0.000518562
0.00052793
0.000540763
0.000553708
0.000576381
0.000458076
0.000437384
0.000439154
0.000441512
0.000444571
0.000448681
0.000453004
0.000458898
0.000464498
0.000472324
0.000479372
0.000489382
0.000498308
0.000511093
0.00052439
0.000547709
0.000436863
0.000417737
0.000419116
0.000420968
0.000423327
0.000426612
0.000429979
0.000434839
0.000439338
0.000446118
0.00045215
0.00046141
0.000469822
0.000482516
0.000496293
0.000520451
0.000417333
0.000400102
0.000401109
0.000402445
0.000404129
0.00040655
0.000408965
0.000412691
0.000416039
0.000421588
0.000426468
0.000434741
0.000442472
0.000454927
0.000469249
0.000494412
0.000399817
0.0003848
0.00038546
0.00038628
0.000387327
0.000388855
0.000390341
0.000392836
0.000394987
0.000399084
0.000402641
0.000409585
0.000416353
0.000428281
0.000443111
0.000469363
0.000384632
0.000372119
0.000372471
0.00037279
0.000373263
0.000373902
0.000374519
0.000375716
0.000376668
0.00037909
0.000381146
0.000386305
0.000391681
0.000402574
0.000417664
0.000444981
0.000372065
0.000362297
0.00036239
0.000362249
0.00036224
0.000362038
0.000361902
0.00036181
0.000361643
0.000362232
0.00036267
0.000365507
0.000368895
0.000377829
0.000392411
0.000420654
0.000362346
0.000355459
0.000355354
0.000354816
0.000354447
0.000353506
0.0003528
0.000351532
0.00035046
0.000349239
0.000348158
0.00034827
0.00034915
0.000354765
0.000367226
0.000395623
0.000355596
0.000351612
0.000351385
0.000350537
0.000349962
0.000348439
0.00034742
0.000345212
0.000343634
0.000340914
0.000338862
0.000336455
0.000335156
0.000336595
0.000345124
0.000371004
0.000351815
0.000351845
0.000351558
0.000350482
0.000349827
0.000347875
0.000346752
0.00034385
0.000342105
0.000338283
0.000335821
0.000331493
0.000328774
0.000326077
0.000328728
0.000344981
0.000352097
0.000353518
0.000353215
0.000352051
0.000351384
0.00034926
0.000348129
0.000344942
0.000343171
0.00033888
0.000336289
0.000331098
0.000327772
0.000322981
0.00032236
0.000330408
0.000353789
)
;

boundaryField
{
    wireUpstream
    {
        type            calculated;
        value           nonuniform List<scalar> 
16
(
0.000355546
0.000355258
0.000354021
0.000353412
0.000351135
0.000350107
0.000346649
0.000345007
0.000340241
0.000337703
0.000331597
0.000327847
0.00032098
0.00031733
0.000314808
0.000355829
)
;
    }
    wireDownstream
    {
        type            calculated;
        value           nonuniform List<scalar> 
16
(
0.0676331
0.0677079
0.0678069
0.0679186
0.0680305
0.0681206
0.0681756
0.0681637
0.0680674
0.0678536
0.0675065
0.0670058
0.0664228
0.0658381
0.0655179
0.0675984
)
;
    }
    wireTopContact
    {
        type            calculated;
        value           nonuniform List<scalar> 
122
(
0.0656092
0.0656821
0.0657618
0.0658403
0.0659208
0.0660022
0.0660846
0.066168
0.0662523
0.0663374
0.0664233
0.0665095
0.0665961
0.0666831
0.0667707
0.0668587
0.0669473
0.0670366
0.0671261
0.0672155
0.0673055
0.0673967
0.0674887
0.0675815
0.0676753
0.0677704
0.0678667
0.0679647
0.0680645
0.0681663
0.0682708
0.0683778
0.0684876
0.0686004
0.0687167
0.0688368
0.0689606
0.0690879
0.0692182
0.0693508
0.0694843
0.0696159
0.0697423
0.0698573
0.0699458
0.0700364
0.0702353
0.070429
0.0705747
0.0706407
0.0705406
0.0701429
0.0692526
0.0677655
0.0657558
0.0633103
0.0604427
0.0572827
0.0539638
0.0505432
0.0470557
0.0435366
0.0400185
0.0365352
0.0331149
0.0297822
0.026557
0.02345
0.020454
0.017521
0.0145771
0.0116613
0.0090587
0.00711652
0.00602325
0.00555945
0.00518319
0.00479165
0.00443082
0.00408844
0.00377208
0.00347972
0.00321187
0.00296696
0.00274389
0.00254104
0.00235672
0.00218948
0.00203756
0.00189958
0.00177411
0.00165979
0.00155569
0.00146038
0.00137307
0.00129279
0.00121878
0.00115037
0.00108692
0.00102793
0.000972927
0.000921487
0.000873301
0.000828021
0.000785421
0.000745271
0.000707365
0.000671621
0.000637786
0.000605793
0.000575486
0.000546751
0.00051946
0.000493432
0.000468459
0.000444249
0.000420321
0.000396174
0.000373042
0.000348466
0.000333984
0.0655054
)
;
    }
    front
    {
        type            wedge;
    }
    back
    {
        type            wedge;
    }
}


// ************************************************************************* //
