/*--------------------------------*- C++ -*----------------------------------*\
| =========                 |                                                 |
| \\      /  F ield         | foam-extend: Open Source CFD                    |
|  \\    /   O peration     | Version:     4.1-20200408                       |
|   \\  /    A nd           | Web:         http://www.foam-extend.org         |
|    \\/     M anipulation  |                                                 |
\*---------------------------------------------------------------------------*/
FoamFile
{
    version     2.0;
    format      ascii;
    class       volScalarField;
    location    "0.0525000";
    object      epsilonPEq;
}
// * * * * * * * * * * * * * * * * * * * * * * * * * * * * * * * * * * * * * //

dimensions      [0 0 0 0 0 0 0];

internalField   nonuniform List<scalar> 
1952
(
0.0503594
0.0504309
0.0505723
0.0507089
0.0509101
0.0510748
0.0512167
0.0512057
0.0510389
0.0504525
0.0495128
0.047902
0.0456529
0.0432682
0.0419616
0.0502917
0.0504264
0.0504978
0.0506392
0.0507769
0.0509785
0.0511434
0.0512853
0.0512742
0.0511069
0.0505193
0.0495806
0.0479691
0.0457177
0.0433331
0.0420265
0.0503587
0.0504934
0.0505648
0.0507061
0.0508449
0.051047
0.051212
0.0513539
0.0513428
0.0511751
0.0505863
0.0496485
0.0480362
0.0457823
0.0433979
0.0420913
0.0504257
0.0505606
0.050632
0.0507732
0.0509129
0.0511154
0.0512807
0.0514226
0.0514114
0.0512434
0.0506534
0.0497165
0.0481034
0.0458471
0.0434628
0.0421561
0.0504927
0.0506277
0.0506991
0.0508402
0.050981
0.051184
0.0513495
0.0514915
0.0514801
0.0513118
0.0507223
0.0497844
0.0481702
0.0459115
0.0435278
0.0422213
0.0505598
0.0506948
0.0507663
0.0509074
0.0510488
0.0512523
0.051418
0.05156
0.0515486
0.0513798
0.0507919
0.0498528
0.0482373
0.0459761
0.0435926
0.0422864
0.0506269
0.0507617
0.0508331
0.0509742
0.0511168
0.0513208
0.0514867
0.0516289
0.0516174
0.0514481
0.0508617
0.0499218
0.0483049
0.0460411
0.0436577
0.0423514
0.0506937
0.0508286
0.0509001
0.0510412
0.051185
0.0513896
0.0515558
0.0516982
0.0516865
0.0515166
0.0509311
0.0499907
0.0483724
0.0461058
0.0437229
0.0424163
0.0507606
0.0508959
0.0509675
0.0511086
0.0512531
0.0514582
0.0516247
0.0517671
0.0517553
0.0515846
0.0510005
0.0500598
0.04844
0.0461708
0.0437881
0.0424815
0.0508277
0.050963
0.0510346
0.0511757
0.0513214
0.0515271
0.0516938
0.0518363
0.0518243
0.0516529
0.0510701
0.0501293
0.0485081
0.0462362
0.0438531
0.0425463
0.0508948
0.0510305
0.0511021
0.0512432
0.05139
0.0515962
0.0517631
0.0519056
0.0518936
0.0517215
0.0511396
0.0501985
0.048576
0.0463015
0.0439186
0.0426113
0.0509622
0.0510983
0.05117
0.051311
0.0514586
0.0516653
0.0518324
0.0519749
0.0519628
0.0517899
0.0512085
0.0502672
0.0486433
0.0463662
0.0439836
0.0426765
0.05103
0.0511661
0.0512377
0.0513787
0.0515269
0.051734
0.0519013
0.0520437
0.0520314
0.0518576
0.0512782
0.0503367
0.0487115
0.0464318
0.0440488
0.0427413
0.0510977
0.0512336
0.0513052
0.051446
0.0515958
0.0518034
0.0519709
0.0521133
0.0521009
0.0519265
0.0513471
0.0504053
0.0487787
0.0464964
0.0441139
0.0428063
0.0511652
0.0513017
0.0513733
0.0515141
0.0516641
0.0518721
0.0520397
0.052182
0.0521694
0.0519942
0.0514161
0.050474
0.0488459
0.046561
0.0441788
0.0428715
0.0512332
0.0513691
0.0514406
0.0515814
0.0517325
0.0519409
0.0521086
0.0522508
0.052238
0.052062
0.0514852
0.050543
0.0489137
0.0466262
0.044244
0.0429365
0.0513005
0.0514364
0.0515079
0.0516486
0.0518009
0.0520098
0.0521776
0.0523199
0.0523069
0.0521303
0.0515541
0.0506116
0.0489808
0.0466908
0.0443092
0.0430018
0.0513678
0.0515039
0.0515754
0.051716
0.0518689
0.0520783
0.0522462
0.0523884
0.0523753
0.052198
0.0516231
0.0506804
0.0490483
0.0467557
0.0443744
0.0430672
0.0514352
0.0515709
0.0516424
0.0517829
0.051937
0.0521469
0.0523149
0.0524573
0.052444
0.0522661
0.0516924
0.0507497
0.0491163
0.0468212
0.0444397
0.0431322
0.0515022
0.0516381
0.0517096
0.0518499
0.0520053
0.0522156
0.0523838
0.0525265
0.0525131
0.0523346
0.0517614
0.0508184
0.0491837
0.0468859
0.0445051
0.0431973
0.0515693
0.0517054
0.051777
0.0519173
0.0520732
0.0522838
0.052452
0.0525952
0.0525816
0.0524024
0.0518305
0.0508873
0.0492512
0.046951
0.0445702
0.0432626
0.0516366
0.0517724
0.051844
0.0519842
0.0521414
0.0523523
0.0525205
0.0526642
0.0526505
0.0524704
0.0518999
0.0509566
0.0493193
0.0470165
0.0446351
0.0433274
0.0517035
0.0518396
0.0519112
0.0520513
0.0522097
0.0524211
0.0525896
0.0527334
0.0527196
0.0525389
0.0519689
0.0510252
0.0493865
0.0470812
0.0447003
0.0433923
0.0517707
0.051907
0.0519786
0.0521188
0.0522776
0.0524893
0.0526582
0.052802
0.052788
0.0526066
0.0520372
0.0510933
0.0494532
0.0471453
0.0447652
0.0434576
0.051838
0.0519741
0.0520456
0.0521857
0.0523453
0.0525572
0.0527265
0.0528703
0.0528559
0.0526737
0.0521064
0.0511623
0.0495209
0.0472106
0.0448302
0.0435228
0.051905
0.0520408
0.0521123
0.0522523
0.0524135
0.0526259
0.0527955
0.0529394
0.0529249
0.0527421
0.0521753
0.0512311
0.0495884
0.0472754
0.0448952
0.0435875
0.0519717
0.0521081
0.0521796
0.0523196
0.0524814
0.0526942
0.0528642
0.0530081
0.0529934
0.05281
0.0522438
0.0512992
0.0496551
0.0473395
0.0449604
0.0436527
0.0520389
0.052175
0.0522465
0.0523865
0.052549
0.052762
0.0529324
0.0530764
0.0530615
0.0528772
0.0523125
0.0513679
0.0497225
0.0474044
0.0450254
0.0437179
0.0521057
0.0522415
0.052313
0.0524529
0.0526167
0.0528303
0.053001
0.0531451
0.05313
0.0529451
0.0523821
0.0514376
0.0497909
0.0474704
0.0450902
0.0437825
0.0521722
0.0523084
0.0523799
0.0525198
0.052685
0.0528991
0.0530702
0.0532146
0.0531995
0.053014
0.0524509
0.051506
0.049858
0.0475347
0.0451552
0.0438474
0.052239
0.0523758
0.0524474
0.0525873
0.0527526
0.052967
0.0531386
0.053283
0.0532677
0.0530814
0.0525192
0.0515739
0.0499244
0.0475987
0.04522
0.0439126
0.0523064
0.0524425
0.0525141
0.0526539
0.0528201
0.0530348
0.0532066
0.0533511
0.0533355
0.0531483
0.0525879
0.0516426
0.0499918
0.0476637
0.0452852
0.0439777
0.052373
0.052509
0.0525805
0.0527202
0.052888
0.0531032
0.0532752
0.0534199
0.0534041
0.0532164
0.0526569
0.0517114
0.0500593
0.0477286
0.0453501
0.0440426
0.0524395
0.052576
0.0526476
0.0527872
0.0529558
0.0531714
0.0533438
0.0534886
0.0534726
0.0532842
0.0527258
0.0517801
0.0501267
0.0477934
0.0454151
0.0441075
0.0525064
0.0526429
0.0527145
0.0528541
0.0530236
0.0532397
0.0534125
0.0535574
0.0535413
0.0533522
0.0527945
0.0518486
0.0501939
0.047858
0.0454799
0.0441724
0.0525732
0.0527098
0.0527814
0.052921
0.0530913
0.0533078
0.053481
0.053626
0.0536097
0.0534198
0.0528633
0.0519172
0.0502612
0.0479227
0.0455446
0.0442372
0.0526401
0.0527767
0.0528482
0.0529878
0.0531591
0.053376
0.0535495
0.0536946
0.0536781
0.0534876
0.052932
0.0519857
0.0503283
0.0479873
0.0456095
0.0443021
0.0527069
0.0528436
0.0529151
0.0530547
0.0532268
0.0534441
0.0536179
0.0537632
0.0537465
0.0535552
0.0530006
0.052054
0.0503952
0.0480516
0.0456744
0.0443675
0.0527737
0.0529104
0.0529819
0.0531224
0.0532946
0.0535121
0.0536863
0.0538316
0.0538146
0.0536227
0.0530693
0.0521225
0.0504624
0.0481163
0.0457394
0.0444331
0.0528405
0.0529771
0.0530487
0.0531903
0.0533625
0.0535803
0.0537547
0.0539001
0.053883
0.0536904
0.0531382
0.0521913
0.0505299
0.0481812
0.0458043
0.0444986
0.0529072
0.0530441
0.0531156
0.0532582
0.0534305
0.0536486
0.0538232
0.0539688
0.0539516
0.0537583
0.053207
0.05226
0.0505973
0.0482459
0.0458694
0.0445641
0.0529741
0.0531112
0.0531826
0.053326
0.0534985
0.0537169
0.0538918
0.0540375
0.0540201
0.0538261
0.0532758
0.0523286
0.0506646
0.0483107
0.0459343
0.0446294
0.0530412
0.0531783
0.0532495
0.0533937
0.0535666
0.0537852
0.0539604
0.0541063
0.0540886
0.0538939
0.0533449
0.0523975
0.0507322
0.0483758
0.0459993
0.0446946
0.0531082
0.0532453
0.0533164
0.0534617
0.0536349
0.0538538
0.0540293
0.0541753
0.0541575
0.0539621
0.0534135
0.0524658
0.0507991
0.0484401
0.0460639
0.0447599
0.0531752
0.0533126
0.0533836
0.0535293
0.0537028
0.0539219
0.0540977
0.0542438
0.0542256
0.0540295
0.0534825
0.0525346
0.0508665
0.0485049
0.0461284
0.044825
0.0532424
0.0533794
0.0534503
0.0535973
0.0537711
0.0539905
0.0541667
0.0543128
0.0542944
0.0540976
0.053551
0.0526029
0.0509334
0.0485692
0.046193
0.0448901
0.0533092
0.0534466
0.0535174
0.0536649
0.053839
0.0540586
0.054235
0.0543813
0.0543626
0.0541651
0.0536194
0.0526709
0.0510001
0.0486332
0.0462577
0.0449556
0.0533763
0.0535133
0.0535841
0.0537324
0.0539067
0.0541266
0.0543033
0.0544495
0.0544306
0.0542322
0.0536876
0.0527391
0.0510668
0.0486974
0.0463225
0.0450211
0.053443
0.0535798
0.0536505
0.0537997
0.0539744
0.0541945
0.0543714
0.0545178
0.0544986
0.0543019
0.053757
0.052808
0.0511345
0.0487625
0.0463872
0.0450862
0.0535095
0.0536463
0.0537169
0.0538674
0.0540425
0.0542629
0.0544403
0.0545868
0.0545675
0.0543716
0.053826
0.0528763
0.0512013
0.0488267
0.0464519
0.0451516
0.0535759
0.0537133
0.0537838
0.0539346
0.0541101
0.0543309
0.0545087
0.0546553
0.0546356
0.0544412
0.053895
0.0529445
0.0512679
0.0488907
0.0465165
0.0452094
0.0536427
0.0537797
0.0538501
0.054002
0.0541778
0.0543989
0.054577
0.0547237
0.0547034
0.0545106
0.0539644
0.0530132
0.051335
0.0489552
0.0465814
0.045125
0.0537091
0.0538462
0.0539166
0.0540695
0.0542458
0.0544672
0.0546457
0.0547923
0.0547716
0.0545803
0.0540341
0.0530822
0.0514024
0.0490199
0.0466463
0.0448362
0.0537756
0.0539131
0.0539834
0.0541373
0.054314
0.0545356
0.0547144
0.0548612
0.0548399
0.0546499
0.0541038
0.0531513
0.05147
0.0490848
0.0466165
0.0442315
0.0538424
0.0539803
0.0540506
0.0542053
0.0543822
0.0546042
0.0547833
0.0549302
0.0549084
0.0547196
0.0541737
0.0532204
0.0515376
0.0491497
0.0462199
0.0431931
0.0539096
0.0540477
0.0541178
0.0542734
0.0544507
0.0546729
0.0548523
0.0549992
0.0549768
0.0547723
0.0541141
0.0530241
0.0511688
0.048607
0.0452692
0.0417512
0.0539769
0.0541153
0.0541853
0.0543205
0.054439
0.0545708
0.0546421
0.0546511
0.0544762
0.0540973
0.0532592
0.0519705
0.0499172
0.047204
0.0436767
0.0399616
0.0540444
0.0537455
0.0537607
0.0538077
0.0538164
0.0538023
0.0537031
0.0535116
0.0531245
0.0525203
0.0514834
0.0499966
0.0477917
0.0449896
0.0414536
0.0377961
0.0536973
0.0525984
0.0525389
0.0524728
0.0523479
0.052171
0.0518899
0.0514965
0.0509078
0.0500995
0.0488947
0.0472535
0.0449731
0.0421537
0.0387621
0.0353581
0.0525826
0.0504622
0.05034
0.0501777
0.0499371
0.0496234
0.0491946
0.0486424
0.0479023
0.0469455
0.0456343
0.0439103
0.0416466
0.0389066
0.0357952
0.0327882
0.0504758
0.0472638
0.0471077
0.0468903
0.0465832
0.0461909
0.0456792
0.0450394
0.0442216
0.0431932
0.041852
0.0401262
0.0379662
0.0353966
0.0326611
0.0301401
0.0472958
0.0430981
0.0429401
0.0427149
0.0423984
0.0419934
0.0414698
0.0408174
0.0399971
0.038975
0.0376776
0.0360271
0.0340424
0.0317166
0.0294178
0.0274372
0.0431349
0.0382036
0.0380656
0.0378659
0.0375822
0.0372146
0.0367343
0.0361295
0.0353674
0.0344156
0.0332223
0.0317117
0.0299567
0.0279331
0.0261133
0.0247114
0.038235
0.0329058
0.0327919
0.0326272
0.0323898
0.0320796
0.0316684
0.0311436
0.0304753
0.029636
0.0285872
0.0272643
0.0257775
0.0241024
0.0227934
0.0219983
0.0329284
0.0275428
0.0274423
0.0272992
0.027094
0.0268297
0.0264805
0.0260362
0.0254682
0.0247579
0.0238725
0.0227668
0.021572
0.0202824
0.0195071
0.0193342
0.0275599
0.0224005
0.0222966
0.0221519
0.0219496
0.0216993
0.0213795
0.0209872
0.0204975
0.0199062
0.0191807
0.0183035
0.0174119
0.0165363
0.0163072
0.0167521
0.0224185
0.0176726
0.0175524
0.0173874
0.0171623
0.0168929
0.0165613
0.0161754
0.0157196
0.015212
0.0146202
0.0139629
0.0133733
0.0129308
0.0132454
0.0142757
0.0176966
0.0134517
0.0133117
0.0131209
0.0128643
0.0125611
0.0121909
0.0117714
0.0112991
0.0108233
0.0103167
0.00984663
0.00953803
0.00952783
0.0103571
0.0119083
0.013484
0.00975466
0.0095996
0.00938961
0.00911067
0.00878352
0.00837971
0.00791941
0.00740326
0.00691071
0.00642922
0.00608646
0.00600464
0.00638109
0.00764172
0.0096086
0.00979406
0.00655693
0.00639875
0.00618278
0.00589561
0.0055597
0.00514217
0.00466835
0.00413073
0.00361848
0.0031359
0.00286857
0.00293167
0.00356597
0.00507502
0.00728844
0.00659938
0.00377206
0.00362525
0.00341791
0.00313209
0.00278891
0.00236579
0.00192909
0.00149486
0.00109657
0.000731722
0.000578318
0.000697587
0.0012991
0.00272254
0.00491716
0.0038123
0.00136645
0.00125616
0.00109667
0.000867045
0.0005842
0.000245871
0
0
0
0
0
0
0
0.000878386
0.00268553
0.00139683
0
0
0
0
0
0
0
0
0
0
0
0
0
0
0.000940138
0
0
0
0
0
0
0
0
0
0
0
0
0
0
0
0
0
0
0
0
0
0
0
0
0
0
0
0
0
0
0
0
0
0
0
0
0
0
0
0
0
0
0
0
0
0
0
0
0
0
0
0
0
0
0
0
0
0
0
0
0
0
0
0
0
0
0
0
0
0
0
0
0
0
0
0
0
0
0
0
0
0
0
0
0
0
0
0
0
0
0
0
0
0
0
0
0
0
0
0
0
0
0
0
0
0
0
0
0
0
0
0
0
0
0
0
0
0
0
0
0
0
0
0
0
0
0
0
0
0
0
0
0
0
0
0
0
0
0
0
0
0
0
0
0
0
0
0
0
0
0
0
0
0
0
0
0
0
0
0
0
0
0
0
0
0
0
0
0
0
0
0
0
0
0
0
0
0
0
0
0
0
0
0
0
0
0
0
0
0
0
0
0
0
0
0
0
0
0
0
0
0
0
0
0
0
0
0
0
0
0
0
0
0
0
0
0
0
0
0
0
0
0
0
0
0
0
0
0
0
0
0
0
0
0
0
0
0
0
0
0
0
0
0
0
0
0
0
0
0
0
0
0
0
0
0
0
0
0
0
0
0
0
0
0
0
0
0
0
0
0
0
0
0
0
0
0
0
0
0
0
0
0
0
0
0
0
0
0
0
0
0
0
0
0
0
0
0
0
0
0
0
0
0
0
0
0
0
0
0
0
0
0
0
0
0
0
0
0
0
0
0
0
0
0
0
0
0
0
0
0
0
0
0
0
0
0
0
0
0
0
0
0
0
0
0
0
0
0
0
0
0
0
0
0
0
0
0
0
0
0
0
0
0
0
0
0
0
0
0
0
0
0
0
0
0
0
0
0
0
0
0
0
0
0
0
0
0
0
0
0
0
0
0
0
0
0
0
0
0
0
0
0
0
0
0
0
0
0
0
0
0
0
0
0
0
0
0
0
0
0
0
0
0
0
0
0
0
0
0
0
0
0
0
0
0
0
0
0
0
0
0
0
0
0
0
0
0
0
0
0
0
0
0
0
0
0
0
0
0
0
0
0
0
0
0
0
0
0
0
0
0
0
0
0
0
0
0
0
0
0
0
0
0
0
0
0
0
0
0
0
0
0
0
0
0
0
0
0
0
0
0
0
0
0
0
0
0
0
0
0
0
0
0
0
0
0
0
0
0
0
0
0
0
0
0
0
0
0
0
0
0
0
0
0
0
0
0
0
0
0
0
0
0
0
0
0
0
0
0
0
0
0
0
0
0
0
0
0
0
0
0
0
0
0
0
0
0
0
0
0
0
0
0
0
0
0
0
0
0
0
0
0
0
0
0
0
0
0
0
0
0
0
0
0
0
0
0
0
0
0
0
0
0
0
0
0
0
0
0
0
0
0
0
0
0
0
0
0
0
0
0
0
0
0
0
0
0
0
0
0
0
0
0
0
0
0
0
0
0
0
0
0
0
0
0
0
0
0
0
0
0
0
0
0
0
0
0
0
0
0
0
0
0
0
0
0
0
0
0
0
0
0
0
0
0
0
0
0
0
0
0
0
0
0
0
0
0
0
0
0
0
0
0
0
0
0
0
0
0
0
0
0
0
0
0
0
0
0
0
0
0
0
0
0
0
0
0
0
0
0
0
0
0
0
0
0
0
0
0
0
0
0
0
0
0
0
0
0
0
0
0
0
0
0
0
0
0
0
0
0
0
0
0
0
0
0
0
0
0
0
0
0
0
0
0
0
0
0
0
0
0
0
0
0
0
0
0
0
0
0
0
0
0
0
)
;

boundaryField
{
    wireUpstream
    {
        type            calculated;
        value           uniform 0;
    }
    wireDownstream
    {
        type            calculated;
        value           nonuniform List<scalar> 
16
(
0.0503594
0.0504309
0.0505723
0.0507089
0.0509101
0.0510748
0.0512167
0.0512057
0.0510389
0.0504525
0.0495128
0.047902
0.0456529
0.0432682
0.0419616
0.0502917
)
;
    }
    wireTopContact
    {
        type            calculated;
        value           nonuniform List<scalar> 
122
(
0.0418577
0.0419224
0.041987
0.0420519
0.0421168
0.0421816
0.0422462
0.0423113
0.0423758
0.0424406
0.0425056
0.0425702
0.042635
0.0427
0.0427648
0.0428298
0.0428951
0.0429599
0.0430247
0.0430898
0.0431544
0.0432191
0.0432842
0.0433492
0.0434137
0.0434787
0.0435437
0.0436081
0.0436728
0.0437378
0.0438027
0.0438674
0.043932
0.0439967
0.0440613
0.044126
0.0441909
0.0442559
0.0443204
0.0443854
0.0444498
0.0445143
0.0445786
0.0446432
0.0447074
0.044772
0.0448368
0.0449011
0.0449663
0.0450304
0.0449461
0.0446455
0.0440209
0.042967
0.0415226
0.0397609
0.0376247
0.0352007
0.0326345
0.0299839
0.0272759
0.0245466
0.0218346
0.0191787
0.0166126
0.0141595
0.0118218
0.009557
0.00727311
0.00493119
0.00271219
0.000955263
0
0
0
0
0
0
0
0
0
0
0
0
0
0
0
0
0
0
0
0
0
0
0
0
0
0
0
0
0
0
0
0
0
0
0
0
0
0
0
0
0
0
0
0
0
0
0
0
0
0.0417931
)
;
    }
    front
    {
        type            wedge;
    }
    back
    {
        type            wedge;
    }
}


// ************************************************************************* //
