/*--------------------------------*- C++ -*----------------------------------*\
| =========                 |                                                 |
| \\      /  F ield         | foam-extend: Open Source CFD                    |
|  \\    /   O peration     | Version:     4.1-20200408                       |
|   \\  /    A nd           | Web:         http://www.foam-extend.org         |
|    \\/     M anipulation  |                                                 |
\*---------------------------------------------------------------------------*/
FoamFile
{
    version     2.0;
    format      ascii;
    class       volScalarField;
    location    "0.0525000";
    object      J;
}
// * * * * * * * * * * * * * * * * * * * * * * * * * * * * * * * * * * * * * //

dimensions      [0 0 0 0 0 0 0];

internalField   nonuniform List<scalar> 
1952
(
0.996734
0.996849
0.99701
0.997211
0.997468
0.997747
0.99807
0.998448
0.998881
0.999434
1.00004
1.0009
1.00187
1.00299
1.00371
0.996683
0.996764
0.996879
0.997041
0.997242
0.997501
0.99778
0.998105
0.998483
0.998919
0.999471
1.00008
1.00094
1.00191
1.00302
1.00374
0.996712
0.996779
0.996895
0.997057
0.997258
0.997518
0.997796
0.998122
0.998499
0.998935
0.999486
1.0001
1.00095
1.00192
1.00303
1.00374
0.996728
0.996793
0.996909
0.99707
0.997272
0.997531
0.99781
0.998135
0.998512
0.998948
0.999498
1.00011
1.00096
1.00193
1.00304
1.00374
0.996741
0.996805
0.996921
0.997083
0.997285
0.997544
0.997822
0.998147
0.998523
0.998959
0.999508
1.00012
1.00097
1.00194
1.00304
1.00374
0.996753
0.996815
0.996931
0.997093
0.997295
0.997554
0.997832
0.998157
0.998533
0.998969
0.999516
1.00012
1.00097
1.00194
1.00304
1.00374
0.996763
0.996824
0.99694
0.997102
0.997304
0.997562
0.99784
0.998165
0.998541
0.998976
0.999523
1.00013
1.00098
1.00194
1.00304
1.00374
0.996772
0.996831
0.996947
0.997109
0.997311
0.99757
0.997847
0.998172
0.998547
0.998983
0.999529
1.00014
1.00098
1.00195
1.00305
1.00374
0.996779
0.996838
0.996954
0.997116
0.997318
0.997576
0.997853
0.998178
0.998553
0.998989
0.999534
1.00014
1.00099
1.00195
1.00305
1.00374
0.996786
0.996843
0.996959
0.997122
0.997324
0.997582
0.997859
0.998183
0.998558
0.998994
0.999538
1.00014
1.00099
1.00195
1.00305
1.00375
0.996791
0.996848
0.996964
0.997126
0.997329
0.997587
0.997863
0.998188
0.998563
0.998999
0.999543
1.00015
1.001
1.00196
1.00306
1.00375
0.996796
0.996852
0.996968
0.997131
0.997333
0.997591
0.997867
0.998192
0.998567
0.999003
0.999547
1.00015
1.001
1.00196
1.00306
1.00375
0.9968
0.996855
0.996971
0.997134
0.997337
0.997595
0.997871
0.998196
0.998571
0.999007
0.99955
1.00016
1.001
1.00197
1.00306
1.00375
0.996803
0.996858
0.996974
0.997137
0.99734
0.997598
0.997874
0.998199
0.998574
0.999011
0.999554
1.00016
1.00101
1.00197
1.00307
1.00376
0.996806
0.99686
0.996977
0.99714
0.997343
0.997601
0.997878
0.998203
0.998578
0.999015
0.999558
1.00016
1.00101
1.00197
1.00307
1.00376
0.996808
0.996863
0.996979
0.997143
0.997346
0.997604
0.99788
0.998206
0.998581
0.999019
0.999561
1.00017
1.00102
1.00198
1.00307
1.00376
0.99681
0.996864
0.996981
0.997145
0.997348
0.997606
0.997883
0.998209
0.998584
0.999023
0.999565
1.00017
1.00102
1.00198
1.00308
1.00377
0.996812
0.996866
0.996983
0.997147
0.99735
0.997608
0.997885
0.998212
0.998587
0.999026
0.999569
1.00018
1.00103
1.00199
1.00308
1.00377
0.996813
0.996867
0.996984
0.997148
0.997352
0.997611
0.997888
0.998214
0.99859
0.99903
0.999573
1.00018
1.00103
1.00199
1.00309
1.00378
0.996814
0.996868
0.996985
0.99715
0.997354
0.997613
0.99789
0.998217
0.998594
0.999034
0.999577
1.00018
1.00104
1.002
1.00309
1.00379
0.996815
0.996868
0.996986
0.997151
0.997356
0.997615
0.997892
0.99822
0.998597
0.999039
0.999581
1.00019
1.00104
1.002
1.0031
1.00379
0.996816
0.996869
0.996987
0.997152
0.997357
0.997616
0.997895
0.998223
0.9986
0.999043
0.999585
1.00019
1.00105
1.00201
1.00311
1.0038
0.996816
0.996869
0.996987
0.997153
0.997358
0.997618
0.997896
0.998225
0.998603
0.999047
0.99959
1.0002
1.00105
1.00202
1.00311
1.0038
0.996816
0.996868
0.996986
0.997153
0.997359
0.997619
0.997898
0.998228
0.998606
0.999051
0.999594
1.0002
1.00106
1.00202
1.00312
1.00381
0.996815
0.996866
0.996985
0.997152
0.997359
0.997619
0.997898
0.998229
0.998609
0.999055
0.999598
1.00021
1.00107
1.00203
1.00313
1.00382
0.996813
0.996864
0.996983
0.99715
0.997358
0.997619
0.997899
0.998231
0.998611
0.999059
0.999603
1.00022
1.00107
1.00204
1.00314
1.00383
0.996811
0.99686
0.99698
0.997148
0.997356
0.997618
0.997898
0.998232
0.998613
0.999062
0.999607
1.00022
1.00108
1.00205
1.00314
1.00384
0.996807
0.996855
0.996975
0.997144
0.997353
0.997616
0.997897
0.998232
0.998614
0.999065
0.999611
1.00023
1.00109
1.00206
1.00315
1.00385
0.996802
0.996849
0.996969
0.997139
0.997349
0.997612
0.997894
0.998231
0.998614
0.999067
0.999614
1.00023
1.00109
1.00207
1.00316
1.00386
0.996795
0.99684
0.996961
0.997131
0.997342
0.997607
0.99789
0.998228
0.998613
0.999069
0.999617
1.00024
1.0011
1.00208
1.00317
1.00388
0.996786
0.996829
0.996951
0.997122
0.997334
0.997599
0.997884
0.998224
0.99861
0.999069
0.999619
1.00024
1.00111
1.00209
1.00319
1.00389
0.996775
0.996815
0.996937
0.997109
0.997322
0.997589
0.997875
0.998217
0.998606
0.999067
0.999619
1.00025
1.00111
1.0021
1.0032
1.0039
0.996761
0.996798
0.99692
0.997094
0.997307
0.997576
0.997863
0.998208
0.998598
0.999063
0.999617
1.00025
1.00112
1.00211
1.00321
1.00392
0.996743
0.996776
0.996899
0.997073
0.997288
0.997559
0.997848
0.998195
0.998588
0.999057
0.999613
1.00025
1.00112
1.00211
1.00322
1.00394
0.996721
0.99675
0.996873
0.997049
0.997265
0.997537
0.997828
0.998178
0.998574
0.999046
0.999606
1.00025
1.00113
1.00212
1.00323
1.00396
0.996694
0.996718
0.996841
0.997018
0.997236
0.99751
0.997803
0.998156
0.998554
0.999031
0.999594
1.00024
1.00113
1.00213
1.00324
1.00397
0.996662
0.99668
0.996803
0.996982
0.9972
0.997476
0.997771
0.998127
0.998528
0.99901
0.999577
1.00023
1.00112
1.00213
1.00325
1.00399
0.996624
0.996634
0.996758
0.996938
0.997157
0.997435
0.997731
0.99809
0.998495
0.998982
0.999553
1.00021
1.00111
1.00213
1.00326
1.00401
0.996578
0.996582
0.996705
0.996886
0.997106
0.997385
0.997683
0.998045
0.998453
0.998944
0.99952
1.00019
1.00109
1.00213
1.00326
1.00403
0.996525
0.996521
0.996643
0.996825
0.997045
0.997325
0.997625
0.997989
0.9984
0.998896
0.999476
1.00015
1.00107
1.00211
1.00326
1.00404
0.996464
0.996452
0.996574
0.996756
0.996975
0.997255
0.997555
0.997921
0.998334
0.998834
0.999418
1.00011
1.00103
1.00209
1.00325
1.00405
0.996395
0.996375
0.996495
0.996677
0.996895
0.997174
0.997473
0.997839
0.998253
0.998756
0.999344
1.00004
1.00097
1.00205
1.00322
1.00405
0.996319
0.996291
0.996409
0.996589
0.996805
0.997081
0.997378
0.997741
0.998155
0.998658
0.999248
0.999952
1.00089
1.00199
1.00318
1.00404
0.996235
0.996202
0.996317
0.996494
0.996706
0.996977
0.997269
0.997627
0.998037
0.998537
0.999126
0.999835
1.00078
1.0019
1.00311
1.00401
0.996147
0.99611
0.99622
0.996394
0.996599
0.996862
0.997146
0.997495
0.997898
0.998389
0.998974
0.999682
1.00063
1.00177
1.003
1.00396
0.996056
0.996019
0.996124
0.996291
0.996488
0.99674
0.997012
0.997347
0.997737
0.998212
0.998785
0.999484
1.00043
1.00158
1.00283
1.00387
0.995966
0.995935
0.996033
0.996192
0.996377
0.996615
0.996871
0.997185
0.997555
0.998005
0.998556
0.999231
1.00015
1.0013
1.00255
1.00364
0.995884
0.995865
0.995955
0.996104
0.996274
0.996493
0.996728
0.997013
0.997357
0.997769
0.998285
0.998914
0.999789
1.00088
1.00204
1.00306
0.995817
0.995819
0.995899
0.996035
0.996188
0.996383
0.996592
0.996843
0.997151
0.997515
0.997985
0.99855
0.999364
1.00037
1.00144
1.00234
0.995773
0.995807
0.995876
0.995998
0.99613
0.996299
0.996477
0.996686
0.996952
0.997256
0.997671
0.998156
0.998897
0.999811
1.00076
1.00158
0.995765
0.995844
0.995901
0.996006
0.996115
0.996253
0.996396
0.996559
0.996776
0.997011
0.997361
0.997751
0.998411
0.999204
1.00005
1.0008
0.995805
0.995943
0.995987
0.996075
0.996159
0.996264
0.996368
0.99648
0.996643
0.996801
0.997078
0.997357
0.997926
0.998562
0.999321
0.999993
0.995909
0.996122
0.996152
0.996222
0.996279
0.99635
0.996413
0.996472
0.996575
0.99665
0.996845
0.996999
0.997459
0.997896
0.998566
0.999135
0.996092
0.996398
0.996413
0.996464
0.996492
0.996529
0.99655
0.996555
0.996597
0.996591
0.996704
0.996736
0.997056
0.997254
0.997791
0.9982
0.996372
0.996783
0.996784
0.996815
0.996816
0.996827
0.996815
0.996779
0.996766
0.996674
0.996688
0.996582
0.996742
0.996703
0.997056
0.997175
0.996762
0.997318
0.997307
0.997321
0.997294
0.997263
0.997204
0.997111
0.997023
0.99684
0.996745
0.996497
0.996506
0.996244
0.996388
0.99611
0.997299
0.997984
0.99795
0.997927
0.997848
0.997748
0.997613
0.997432
0.997254
0.996982
0.996786
0.996412
0.996274
0.995804
0.995757
0.995072
0.997974
0.998627
0.998551
0.998473
0.998332
0.998162
0.997947
0.997684
0.997414
0.997056
0.996768
0.996295
0.99604
0.995409
0.995206
0.994206
0.998633
0.999134
0.999022
0.998892
0.998692
0.998462
0.998183
0.997857
0.997518
0.997095
0.996729
0.996183
0.99583
0.995086
0.994758
0.993552
0.999159
0.999479
0.999345
0.99918
0.998942
0.998668
0.998341
0.99797
0.997577
0.99711
0.996681
0.996088
0.99566
0.994851
0.994428
0.99311
0.999519
0.999669
0.999525
0.99934
0.999079
0.998779
0.998422
0.998024
0.997594
0.997102
0.996629
0.996015
0.995534
0.994704
0.994219
0.992872
0.999721
0.999715
0.99957
0.999375
0.999106
0.998795
0.998424
0.998016
0.997567
0.99707
0.996572
0.995964
0.995451
0.994643
0.994125
0.992824
0.999774
0.99963
0.999489
0.999294
0.999027
0.998719
0.998348
0.997946
0.997495
0.997011
0.996508
0.995928
0.995409
0.994659
0.994139
0.992952
0.999691
0.999422
0.99929
0.999104
0.998849
0.998555
0.998197
0.997816
0.997377
0.996923
0.996433
0.995904
0.9954
0.994744
0.994255
0.993242
0.999481
0.9991
0.998981
0.998813
0.998579
0.998311
0.997978
0.997628
0.997217
0.996806
0.996346
0.995886
0.995421
0.994889
0.994462
0.993676
0.999152
0.998672
0.998571
0.998428
0.998225
0.997992
0.997695
0.997388
0.997016
0.996659
0.996245
0.99587
0.995466
0.995085
0.99475
0.994232
0.998716
0.998156
0.998074
0.997958
0.997791
0.997601
0.997349
0.997094
0.996773
0.996482
0.996127
0.995851
0.99553
0.995324
0.995108
0.994882
0.998191
0.997574
0.997506
0.997417
0.997284
0.997139
0.996938
0.996742
0.996481
0.996265
0.995985
0.995821
0.995607
0.995596
0.995523
0.995593
0.997602
0.996953
0.996895
0.996824
0.996718
0.996611
0.996458
0.996321
0.996126
0.995994
0.995804
0.995768
0.995687
0.99589
0.99598
0.996329
0.996977
0.996319
0.996265
0.996205
0.996115
0.996034
0.995917
0.995832
0.995702
0.995656
0.995568
0.995674
0.995754
0.996187
0.996451
0.997048
0.99634
0.995696
0.995648
0.995599
0.995519
0.995449
0.995352
0.995301
0.995223
0.995251
0.995262
0.995515
0.995776
0.996449
0.99689
0.9977
0.995713
0.995099
0.995057
0.995017
0.994942
0.994868
0.99477
0.994726
0.994672
0.994752
0.994857
0.995259
0.99572
0.996623
0.99723
0.998219
0.995113
0.99444
0.994399
0.994365
0.994302
0.994263
0.994219
0.994249
0.994295
0.994495
0.994748
0.995282
0.995856
0.996795
0.997463
0.998555
0.994454
0.994026
0.994012
0.994024
0.994044
0.994117
0.994207
0.994378
0.99458
0.994909
0.995268
0.995807
0.996319
0.997109
0.997678
0.998718
0.994032
0.994328
0.99436
0.994422
0.994514
0.994648
0.994804
0.995024
0.995271
0.995612
0.995959
0.996433
0.996848
0.997486
0.997941
0.998764
0.994318
0.99493
0.99498
0.995059
0.995164
0.99529
0.995437
0.995639
0.995865
0.99617
0.996487
0.996911
0.997305
0.997841
0.998264
0.998857
0.994912
0.99546
0.995505
0.995576
0.995674
0.995803
0.995957
0.996157
0.996379
0.996663
0.996955
0.997329
0.997681
0.998135
0.998541
0.999021
0.995444
0.995953
0.996
0.99607
0.996166
0.996288
0.996435
0.996619
0.996824
0.99708
0.997345
0.997674
0.997991
0.998385
0.99874
0.999183
0.995936
0.996391
0.996437
0.996502
0.996593
0.996708
0.996847
0.997018
0.997208
0.997439
0.997677
0.997966
0.998246
0.998585
0.998896
0.99927
0.996376
0.996787
0.996832
0.996892
0.996978
0.997084
0.997212
0.997368
0.997539
0.997745
0.997958
0.998211
0.998457
0.998749
0.999017
0.999339
0.996773
0.99714
0.997182
0.997237
0.997317
0.997414
0.997531
0.997671
0.997826
0.998008
0.998197
0.998417
0.998632
0.998882
0.999112
0.999385
0.997127
0.997454
0.997494
0.997544
0.997616
0.997704
0.99781
0.997935
0.998073
0.998233
0.998399
0.998591
0.998777
0.998991
0.999187
0.999418
0.997442
0.997733
0.997769
0.997814
0.99788
0.997958
0.998054
0.998164
0.998287
0.998427
0.998572
0.998738
0.998898
0.999081
0.999247
0.999442
0.997722
0.99798
0.998013
0.998053
0.998112
0.998182
0.998267
0.998364
0.998472
0.998594
0.99872
0.998863
0.999
0.999156
0.999297
0.999461
0.99797
0.998198
0.998228
0.998263
0.998316
0.998378
0.998453
0.998538
0.998632
0.998738
0.998848
0.99897
0.999088
0.999219
0.999338
0.999477
0.998189
0.99839
0.998418
0.998448
0.998496
0.998549
0.998615
0.99869
0.998772
0.998864
0.998958
0.999062
0.999163
0.999274
0.999375
0.999492
0.998383
0.99856
0.998585
0.998612
0.998653
0.9987
0.998758
0.998822
0.998894
0.998973
0.999054
0.999143
0.999228
0.999323
0.999407
0.999506
0.998554
0.99871
0.998732
0.998756
0.998792
0.998833
0.998883
0.998939
0.999001
0.999068
0.999138
0.999214
0.999286
0.999366
0.999437
0.99952
0.998705
0.998843
0.998862
0.998883
0.998915
0.99895
0.998993
0.999041
0.999095
0.999153
0.999212
0.999277
0.999338
0.999405
0.999465
0.999536
0.998838
0.99896
0.998978
0.998995
0.999023
0.999053
0.999091
0.999132
0.999178
0.999227
0.999278
0.999333
0.999385
0.999441
0.999492
0.999552
0.998956
0.999065
0.99908
0.999095
0.999119
0.999145
0.999178
0.999213
0.999252
0.999294
0.999338
0.999384
0.999428
0.999476
0.999518
0.99957
0.999061
0.999157
0.999171
0.999183
0.999204
0.999227
0.999255
0.999285
0.999319
0.999355
0.999391
0.999431
0.999468
0.999508
0.999544
0.999588
0.999154
0.99924
0.999252
0.999263
0.999281
0.9993
0.999324
0.99935
0.999379
0.999409
0.999441
0.999474
0.999505
0.999539
0.99957
0.999608
0.999237
0.999314
0.999324
0.999334
0.999349
0.999366
0.999387
0.999409
0.999433
0.999459
0.999486
0.999514
0.999541
0.999569
0.999596
0.999629
0.999312
0.999381
0.99939
0.999398
0.999411
0.999425
0.999443
0.999462
0.999483
0.999505
0.999528
0.999552
0.999574
0.999599
0.999621
0.999651
0.999379
0.999441
0.999449
0.999456
0.999467
0.999479
0.999495
0.999511
0.999529
0.999548
0.999567
0.999587
0.999607
0.999627
0.999647
0.999673
0.999439
0.999496
0.999502
0.999508
0.999518
0.999529
0.999542
0.999556
0.999571
0.999587
0.999604
0.999621
0.999638
0.999655
0.999672
0.999696
0.999494
0.999546
0.999551
0.999556
0.999565
0.999574
0.999585
0.999597
0.99961
0.999624
0.999638
0.999653
0.999667
0.999683
0.999698
0.999719
0.999544
0.999591
0.999596
0.9996
0.999608
0.999616
0.999626
0.999636
0.999647
0.999659
0.999671
0.999684
0.999696
0.99971
0.999723
0.999742
0.99959
0.999633
0.999637
0.999641
0.999648
0.999654
0.999663
0.999672
0.999682
0.999692
0.999703
0.999714
0.999724
0.999736
0.999748
0.999766
0.999632
0.999672
0.999676
0.999679
0.999685
0.99969
0.999698
0.999706
0.999714
0.999723
0.999733
0.999742
0.999752
0.999762
0.999773
0.99979
0.999671
0.999708
0.999711
0.999714
0.999719
0.999724
0.999731
0.999737
0.999745
0.999753
0.999761
0.99977
0.999778
0.999788
0.999798
0.999814
0.999707
0.999741
0.999744
0.999746
0.999751
0.999755
0.999761
0.999767
0.999774
0.999781
0.999788
0.999796
0.999804
0.999812
0.999822
0.999837
0.99974
0.999772
0.999775
0.999777
0.999781
0.999785
0.99979
0.999796
0.999802
0.999808
0.999815
0.999822
0.999829
0.999837
0.999846
0.99986
0.999771
0.999801
0.999803
0.999805
0.999809
0.999813
0.999817
0.999822
0.999828
0.999834
0.99984
0.999846
0.999853
0.99986
0.999869
0.999883
0.9998
0.999828
0.99983
0.999832
0.999835
0.999839
0.999843
0.999848
0.999853
0.999858
0.999864
0.99987
0.999876
0.999883
0.999892
0.999906
0.999827
0.999853
0.999855
0.999857
0.99986
0.999863
0.999867
0.999872
0.999877
0.999882
0.999887
0.999893
0.999899
0.999906
0.999914
0.999928
0.999853
0.999877
0.999879
0.999881
0.999883
0.999886
0.99989
0.999894
0.999899
0.999904
0.999909
0.999915
0.999921
0.999928
0.999936
0.99995
0.999877
0.999899
0.999901
0.999902
0.999905
0.999908
0.999912
0.999916
0.99992
0.999925
0.99993
0.999936
0.999942
0.999949
0.999957
0.999971
0.999899
0.99992
0.999921
0.999923
0.999925
0.999928
0.999932
0.999936
0.99994
0.999945
0.99995
0.999956
0.999962
0.999969
0.999978
0.999992
0.999919
0.999939
0.99994
0.999942
0.999944
0.999947
0.999951
0.999955
0.999959
0.999964
0.999969
0.999975
0.999981
0.999989
0.999998
1.00001
0.999938
0.999956
0.999958
0.999959
0.999962
0.999965
0.999968
0.999972
0.999977
0.999982
0.999987
0.999993
1
1.00001
1.00002
1.00003
0.999956
0.999973
0.999974
0.999976
0.999978
0.999981
0.999984
0.999989
0.999993
0.999998
1
1.00001
1.00002
1.00003
1.00004
1.00005
0.999972
0.999987
0.999989
0.99999
0.999993
0.999996
0.999999
1
1.00001
1.00001
1.00002
1.00003
1.00003
1.00004
1.00005
1.00007
0.999987
1
1
1
1.00001
1.00001
1.00001
1.00002
1.00002
1.00003
1.00003
1.00004
1.00005
1.00006
1.00007
1.00009
1
1.00001
1.00001
1.00002
1.00002
1.00002
1.00002
1.00003
1.00003
1.00004
1.00005
1.00005
1.00006
1.00007
1.00008
1.0001
1.00001
1.00002
1.00002
1.00003
1.00003
1.00003
1.00003
1.00004
1.00004
1.00005
1.00006
1.00006
1.00007
1.00008
1.0001
1.00012
1.00002
1.00003
1.00003
1.00003
1.00004
1.00004
1.00004
1.00005
1.00005
1.00006
1.00006
1.00007
1.00008
1.00009
1.00011
1.00013
1.00003
1.00004
1.00004
1.00004
1.00004
1.00005
1.00005
1.00005
1.00006
1.00006
1.00007
1.00008
1.00009
1.0001
1.00012
1.00014
1.00004
1.00005
1.00005
1.00005
1.00005
1.00005
1.00006
1.00006
1.00006
1.00007
1.00007
1.00008
1.00009
1.0001
1.00012
1.00015
1.00005
1.00005
1.00005
1.00005
1.00006
1.00006
1.00006
1.00006
1.00007
1.00007
1.00008
1.00008
1.00009
1.0001
1.00011
1.00013
1.00005
1.00006
1.00006
1.00006
1.00006
1.00006
1.00006
1.00007
1.00007
1.00007
1.00008
1.00008
1.00009
1.00009
1.0001
1.00012
1.00005
)
;

boundaryField
{
    wireUpstream
    {
        type            calculated;
        value           nonuniform List<scalar> 
16
(
1.00006
1.00006
1.00006
1.00006
1.00006
1.00006
1.00007
1.00007
1.00007
1.00008
1.00008
1.00009
1.00009
1.00009
1.0001
1.00006
)
;
    }
    wireDownstream
    {
        type            calculated;
        value           nonuniform List<scalar> 
16
(
0.996736
0.996851
0.997011
0.997212
0.997469
0.997748
0.99807
0.998448
0.99888
0.999432
1.00004
1.00089
1.00186
1.00296
1.00365
0.996684
)
;
    }
    wireTopContact
    {
        type            calculated;
        value           nonuniform List<scalar> 
122
(
1.00381
1.0038
1.00381
1.00381
1.00381
1.00381
1.00381
1.00381
1.00381
1.00381
1.00382
1.00382
1.00382
1.00383
1.00383
1.00383
1.00384
1.00384
1.00385
1.00386
1.00386
1.00387
1.00388
1.00389
1.00389
1.0039
1.00392
1.00393
1.00394
1.00395
1.00397
1.00399
1.004
1.00402
1.00404
1.00406
1.00407
1.00409
1.0041
1.0041
1.0041
1.00409
1.00405
1.00399
1.00389
1.00368
1.00306
1.00233
1.00155
1.00075
0.999939
0.999102
0.998207
0.997231
0.996208
0.995183
0.994334
0.993693
0.993251
0.993006
0.992947
0.993061
0.993337
0.993753
0.994291
0.99492
0.995606
0.996311
0.996993
0.997603
0.998086
0.998404
0.998577
0.998697
0.998878
0.99903
0.999183
0.999273
0.999344
0.99939
0.999425
0.99945
0.999469
0.999485
0.999499
0.999513
0.999527
0.999542
0.999558
0.999575
0.999593
0.999613
0.999633
0.999654
0.999676
0.999699
0.999722
0.999745
0.999769
0.999792
0.999816
0.999839
0.999862
0.999885
0.999907
0.999929
0.999951
0.999972
0.999993
1.00001
1.00003
1.00005
1.00007
1.00009
1.0001
1.00012
1.00013
1.00014
1.00015
1.00013
1.00012
1.00378
)
;
    }
    front
    {
        type            wedge;
    }
    back
    {
        type            wedge;
    }
}


// ************************************************************************* //
