/*--------------------------------*- C++ -*----------------------------------*\
  =========                 |
  \\      /  F ield         | OpenFOAM: The Open Source CFD Toolbox
   \\    /   O peration     | Website:  https://openfoam.org
    \\  /    A nd           | Version:  8
     \\/     M anipulation  |
\*---------------------------------------------------------------------------*/
FoamFile
{
    version     2.0;
    format      ascii;
    class       volScalarField::Internal;
    location    "0.0105000";
    object      V0;
}
// * * * * * * * * * * * * * * * * * * * * * * * * * * * * * * * * * * * * * //

dimensions      [0 3 0 0 0 0 0];

value           nonuniform List<scalar> 
900
(
4.2313534220507e-14
4.18381980785707e-14
4.13637780691032e-14
4.08892715235015e-14
4.04148093048509e-14
3.99407041863216e-14
3.94669394130707e-14
3.89932733334669e-14
3.85198718575494e-14
3.80467785076793e-14
3.75738600123806e-14
3.71011034464059e-14
3.66286289938129e-14
3.61563946466521e-14
3.56842724135314e-14
3.52124051348416e-14
3.47408077408653e-14
3.42693457576213e-14
3.37980909293588e-14
3.33271077997894e-14
3.28563209200844e-14
3.23856827358415e-14
3.19153251392285e-14
3.14452301023019e-14
3.09752498889548e-14
3.05055447813215e-14
3.00361519022562e-14
2.95669104208167e-14
2.90978858707095e-14
2.86291963362741e-14
2.81607581138906e-14
2.76924611966441e-14
2.72245299513399e-14
2.67569545666255e-14
2.62894808363356e-14
2.58223649892123e-14
2.53556846661748e-14
2.48891822552398e-14
2.44229560654515e-14
2.39572226590282e-14
2.34918438353837e-14
2.30265994108814e-14
2.2561909301613e-14
2.20977789498112e-14
2.16337351702466e-14
2.1170222316181e-14
2.07074187922183e-14
2.02448790005121e-14
1.97827070399698e-14
1.93213542722941e-14
1.88606046669751e-14
1.83999592318711e-14
1.79402901378137e-14
1.74816091194965e-14
1.70229286727534e-14
1.65651530939557e-14
1.61086346606793e-14
1.56525013144837e-14
1.51969972191245e-14
1.47428890394168e-14
1.42897240248195e-14
1.3836690464508e-14
1.33852978320947e-14
1.29355105590819e-14
1.24857063322661e-14
1.20372562175388e-14
1.15906144185756e-14
1.11445148596399e-14
1.06993038872147e-14
1.02558624824696e-14
9.81341752016693e-15
9.37131985056835e-15
8.93069366107929e-15
8.49101109585322e-15
8.05154971688267e-15
7.61280730802335e-15
7.1737959780479e-15
6.73455885040267e-15
6.29578900792376e-15
5.85397116925409e-15
5.4082751195684e-15
4.96475564320433e-15
4.51401592219673e-15
4.05015188289522e-15
3.58896043264733e-15
3.12345467465332e-15
2.86006894029366e-15
2.80886321213066e-15
2.75274657850161e-15
2.69106412611012e-15
2.63109802122162e-15
2.57181984106462e-15
2.5165522260433e-15
2.46690879274051e-15
2.41707025867368e-15
2.37279506227776e-15
2.33725721706917e-15
2.30398600068338e-15
2.27489757109249e-15
2.22139240299645e-15
4.3344944603332e-14
4.28466953594282e-14
4.23492293432565e-14
4.18523842057259e-14
4.13560755079381e-14
4.08602930531502e-14
4.03650256205379e-14
3.98702515368438e-14
3.93759677093559e-14
3.88821728685497e-14
3.83888528041225e-14
3.78960014717326e-14
3.74036229857956e-14
3.69117116243656e-14
3.64202599220136e-14
3.59292736080794e-14
3.54387540299851e-14
3.49486942049412e-14
3.44590969897264e-14
3.39699679766744e-14
3.34813032973999e-14
3.29931035171556e-14
3.25053784486043e-14
3.20181286787991e-14
3.1531351887988e-14
3.10450594472195e-14
3.05592575608779e-14
3.00739413923574e-14
2.95891183305103e-14
2.91048014353542e-14
2.86209898273675e-14
2.81376869525333e-14
2.76549115113606e-14
2.71726678517626e-14
2.6690953667605e-14
2.62097895757109e-14
2.57291897519675e-14
2.52491501779893e-14
2.47696867813472e-14
2.42908247712053e-14
2.38125640792172e-14
2.33349124330829e-14
2.28579075915911e-14
2.23815619083069e-14
2.19058727214828e-14
2.1430879642237e-14
2.09566140505552e-14
2.04830711077203e-14
2.00102794378821e-14
1.95382902310402e-14
1.90671075673629e-14
1.85967468592979e-14
1.81272831368569e-14
1.76587380607525e-14
1.71910998347346e-14
1.67244447325477e-14
1.62588348395024e-14
1.57942578076475e-14
1.53307587462567e-14
1.48684172102237e-14
1.4407226638084e-14
1.39472043555673e-14
1.34884689283187e-14
1.30310378138298e-14
1.25748546785836e-14
1.2119994789019e-14
1.16665140434932e-14
1.12143491655292e-14
1.07634995134594e-14
1.03139922856627e-14
9.86573042695162e-15
9.41860599006954e-15
8.97256915286892e-15
8.52746809532981e-15
8.0830569777872e-15
7.63906271645296e-15
7.19513439683517e-15
6.75085883684252e-15
6.30559255751468e-15
5.85837372781473e-15
5.40838543758863e-15
4.95452408006514e-15
4.49445155433372e-15
4.02594400843045e-15
3.54668688735832e-15
3.08318102945263e-15
2.84153387857875e-15
2.7942748749641e-15
2.74227092803464e-15
2.68721527961502e-15
2.63124254171283e-15
2.57615912822628e-15
2.52334720273316e-15
2.47356315818931e-15
2.42726354951499e-15
2.38527852657314e-15
2.34814030170167e-15
2.31574550706837e-15
2.28826672089978e-15
2.27080656188444e-15
4.43743981419324e-14
4.38535174054871e-14
4.33336557988217e-14
4.28146735921672e-14
4.22964826936906e-14
4.17790732778742e-14
4.12624335212539e-14
4.07465409468344e-14
4.0231392541461e-14
3.97169868493492e-14
3.92033091505759e-14
3.86903532991076e-14
3.8178123381945e-14
3.76666133774376e-14
3.71558156720751e-14
3.66457361337566e-14
3.61363759478747e-14
3.56277278467126e-14
3.51197948201068e-14
3.4612582477427e-14
3.41060866767151e-14
3.36003079857009e-14
3.30952564960989e-14
3.25909325540757e-14
3.20873335691028e-14
3.15844714005997e-14
3.10823522241705e-14
3.05809707464783e-14
3.00803345756766e-14
2.95804569785387e-14
2.90813367750403e-14
2.85829773676754e-14
2.80853979639687e-14
2.75886026666305e-14
2.70925887220854e-14
2.65973773526023e-14
2.61029828156287e-14
2.56094005275628e-14
2.51166466497306e-14
2.46247468697072e-14
2.41337006564524e-14
2.36435154571957e-14
2.31542299192004e-14
2.26658560855755e-14
2.2178390497327e-14
2.16918737545747e-14
2.1206337387785e-14
2.07217755210081e-14
2.02382171696943e-14
1.97557142746152e-14
1.92742699817514e-14
1.87938991879278e-14
1.83146783838959e-14
1.78366286979471e-14
1.73597368896485e-14
1.68840803185485e-14
1.64097212667277e-14
1.59366459223702e-14
1.54648995282115e-14
1.49945624212798e-14
1.45256264248128e-14
1.40581078727055e-14
1.35921268063433e-14
1.31276993311912e-14
1.26647672692636e-14
1.22034064731023e-14
1.17436717737433e-14
1.12854985297355e-14
1.08288852556153e-14
1.03738574447003e-14
9.92031712684984e-15
9.46815573301585e-15
9.01731934912906e-15
8.56765446363758e-15
8.1189145130971e-15
7.67082299384944e-15
7.22302713630633e-15
6.77510432436267e-15
6.32639918001098e-15
5.87596885046479e-15
5.4229819818428e-15
4.96625165329423e-15
4.50351280249958e-15
4.03256175491404e-15
3.55092363324933e-15
3.08597018754848e-15
2.84523438682819e-15
2.79822517723069e-15
2.74633141990515e-15
2.69136121191662e-15
2.63540400498969e-15
2.580280162313e-15
2.52739610533959e-15
2.47751904820429e-15
2.43109215619766e-15
2.38898864147427e-15
2.35177177762739e-15
2.31927862800383e-15
2.29155898236315e-15
2.27332375983441e-15
4.54040652114606e-14
4.48605416810652e-14
4.43182748030769e-14
4.37771484154365e-14
4.32370689553536e-14
4.2698026203671e-14
4.21600077635369e-14
4.16229906518791e-14
4.10869716952543e-14
4.05519491999337e-14
4.0017908089757e-14
3.94848420482613e-14
3.89527550657012e-14
3.84216409147417e-14
3.78914918589708e-14
3.73623137620402e-14
3.68341076830138e-14
3.63068662113904e-14
3.57805923471807e-14
3.52552916558795e-14
3.47309598663782e-14
3.42075975699704e-14
3.36852149063429e-14
3.31638120926336e-14
3.26433865257988e-14
3.21239502115182e-14
3.16055092491026e-14
3.10880582019389e-14
3.05716047681892e-14
3.00561622662776e-14
2.95417294007223e-14
2.90283096370243e-14
2.85159223235877e-14
2.80045714172604e-14
2.74942541123628e-14
2.6984991849235e-14
2.64767988416418e-14
2.59696703448626e-14
2.54636226866041e-14
2.49586816540139e-14
2.44548465027375e-14
2.39521247412165e-14
2.3450555274609e-14
2.29501499465746e-14
2.24509051885617e-14
2.19528619234488e-14
2.14560516118764e-14
2.09604680807466e-14
2.0466140542005e-14
1.99731210579051e-14
1.94814123692057e-14
1.89910294252422e-14
1.85020490992912e-14
1.80144920230385e-14
1.75283445758637e-14
1.70436845286702e-14
1.6560573942527e-14
1.60789983638705e-14
1.5599003094615e-14
1.51206683349478e-14
1.46439849782928e-14
1.41689691604112e-14
1.36957411230557e-14
1.32243158409577e-14
1.27546341653305e-14
1.22867719008753e-14
1.18207829807854e-14
1.13566014473385e-14
1.08942252115446e-14
1.043367886113e-14
9.97486278080366e-15
9.51766722927172e-15
9.0620373050918e-15
8.60781788843545e-15
8.15476084074601e-15
7.70258811945089e-15
7.25094548039403e-15
6.7994090696544e-15
6.34732146968054e-15
5.89373829876998e-15
5.4378285177624e-15
4.97840285890135e-15
4.51319478115646e-15
4.04000493478349e-15
3.55636077353683e-15
3.08993716789807e-15
2.84965503776165e-15
2.802627581951e-15
2.75067766603945e-15
2.69564198400476e-15
2.63961297840931e-15
2.58441379349224e-15
2.53145395382572e-15
2.48150221753629e-15
2.43500386945781e-15
2.39283424769203e-15
2.35555722793085e-15
2.32301141476179e-15
2.29525236310692e-15
2.27700396005527e-15
4.6433930402706e-14
4.58677539524637e-14
4.53030735142896e-14
4.4739796621214e-14
4.41778225460211e-14
4.36171404869343e-14
4.30577375451889e-14
4.24995902083322e-14
4.19426950892775e-14
4.1387050283559e-14
4.08326403601138e-14
4.02794588054589e-14
3.97275095323234e-14
3.91767861141872e-14
3.86272806538607e-14
3.80789990142291e-14
3.75319421625266e-14
3.69861025276674e-14
3.64414830991743e-14
3.58980894287835e-14
3.53559171173727e-14
3.48149667371658e-14
3.42752484964191e-14
3.37367625234419e-14
3.31995061511331e-14
3.2663491501982e-14
3.2128724654325e-14
3.15952000324694e-14
3.10629253900012e-14
3.05319141213268e-14
3.00021648230939e-14
2.94736809721265e-14
2.89464820713871e-14
2.84205719855605e-14
2.78959478170956e-14
2.73726311908661e-14
2.68506363292696e-14
2.63299583270487e-14
2.58106136247526e-14
2.5292628135755e-14
2.47760009356216e-14
2.42607395378209e-14
2.37468831121686e-14
2.32344433679044e-14
2.27234165721279e-14
2.22138439276562e-14
2.17057569013251e-14
2.11991490209359e-14
2.06940496270195e-14
2.01905109590427e-14
1.96885353977151e-14
1.91881378441472e-14
1.8689395546652e-14
1.81923287522547e-14
1.7696923433513e-14
1.72032577123354e-14
1.67113934966662e-14
1.62213156910436e-14
1.57330695805162e-14
1.5246735323228e-14
1.47623029733076e-14
1.42797883315495e-14
1.3799311839727e-14
1.33208875069994e-14
1.28444551302761e-14
1.23700903923071e-14
1.18978464930329e-14
1.14276561813625e-14
1.09595166959772e-14
1.04934518194211e-14
1.00293603335798e-14
9.56713123755743e-15
9.10670869859015e-15
8.64793613363334e-15
8.19056385940387e-15
7.7343122808948e-15
7.27882572801373e-15
6.82367934001579e-15
6.36821396720455e-15
5.91148360244249e-15
5.45265789606744e-15
4.9905466917759e-15
4.52288169327115e-15
4.04746791589065e-15
3.56183465618675e-15
3.09394340370289e-15
2.85410274392116e-15
2.80704467199369e-15
2.75503310627959e-15
2.699928567153e-15
2.64382607606966e-15
2.58855087503795e-15
2.53551490473284e-15
2.48548801679619e-15
2.43891719339182e-15
2.39668014281916e-15
2.35934170496561e-15
2.32674091475108e-15
2.29893453015142e-15
2.28065616198165e-15
4.74639839190642e-14
4.68751447478984e-14
4.62880426809604e-14
4.57026091909422e-14
4.51187347234201e-14
4.45364076642263e-14
4.39556146835112e-14
4.33763317141192e-14
4.27985550997428e-14
4.22222827525209e-14
4.16474988860172e-14
4.10741967612069e-14
4.05023802346497e-14
3.9932042687112e-14
3.93631760191957e-14
3.87957860969113e-14
3.82298738321015e-14
3.7665431474542e-14
3.7102461981017e-14
3.6540970920807e-14
3.59809537687111e-14
3.54224110336129e-14
3.4865353012599e-14
3.43097797869061e-14
3.37556885741258e-14
3.32030915822194e-14
3.2651994923946e-14
3.21023928903864e-14
3.15542932552971e-14
3.10077095134747e-14
3.04626401625991e-14
2.99190886376971e-14
2.93770746088928e-14
2.88366019044567e-14
2.82976674959318e-14
2.77602931576341e-14
2.7224493173145e-14
2.66902624780624e-14
2.6157617572152e-14
2.56265845218714e-14
2.50971622557615e-14
2.45693582357167e-14
2.40432119032864e-14
2.35187348997917e-14
2.29959232733253e-14
2.24748184618722e-14
2.19554520155266e-14
2.14378171628429e-14
2.09219433030136e-14
2.04078829083898e-14
1.98956380480224e-14
1.93852234722878e-14
1.8876716795481e-14
1.83701379950147e-14
1.78654726093333e-14
1.7362799049511e-14
1.68621791409891e-14
1.63635971480385e-14
1.58670982578087e-14
1.53727626807214e-14
1.48805797290864e-14
1.4390564729723e-14
1.39028383222041e-14
1.34174137198419e-14
1.29342295786054e-14
1.24533613823375e-14
1.19748617663321e-14
1.14986622120246e-14
1.10247592098016e-14
1.0553175832504e-14
1.00838093134935e-14
9.61654730487933e-15
9.15133307138309e-15
8.68800869992256e-15
8.22632299938752e-15
7.76599478963031e-15
7.30666696370628e-15
6.84791376451607e-15
6.38907449978285e-15
5.9292014741708e-15
5.46746494389179e-15
5.00267424640066e-15
4.5325594688463e-15
4.05492966748324e-15
3.56731489768499e-15
3.09795778758817e-15
2.85855684106567e-15
2.81146515892734e-15
2.7593920202666e-15
2.70421871482017e-15
2.64804269686097e-15
2.59269132166725e-15
2.53957899526648e-15
2.48947672185124e-15
2.44283319549828e-15
2.40052849891204e-15
2.36312847282288e-15
2.33047263198732e-15
2.30261897538417e-15
2.28431082843452e-15
4.84942166614414e-14
4.78827052615106e-14
4.72731736744401e-14
4.66655776911552e-14
4.60597973028979e-14
4.54558198038969e-14
4.48536315022731e-14
4.42532077489421e-14
4.36545445610195e-14
4.3057639694631e-14
4.24624770053938e-14
4.18690494978547e-14
4.12773609965264e-14
4.06874046964286e-14
4.00991722500599e-14
3.95126695307018e-14
3.89278974337235e-14
3.83448480103632e-14
3.77635241606937e-14
3.71839315037445e-14
3.66060653915485e-14
3.6029926223549e-14
3.54555244052325e-14
3.48828600140918e-14
3.43119301018401e-14
3.37427469289729e-14
3.31753166972874e-14
3.260963357214e-14
3.20457053120064e-14
3.14835455363309e-14
3.09231526542146e-14
3.03645300043769e-14
2.98076974352332e-14
2.92526587965258e-14
2.86994108906157e-14
2.8147975604971e-14
2.75983673368465e-14
2.70505808644251e-14
2.65046326934071e-14
2.5960549071037e-14
2.54183288108415e-14
2.48779792656201e-14
2.43395401571564e-14
2.38030231266919e-14
2.3268423947913e-14
2.27357842480248e-14
2.22051357386398e-14
2.16764713499947e-14
2.114982046811e-14
2.06252358544216e-14
2.01027193176768e-14
1.95822853524609e-14
1.90640119294567e-14
1.8547918875128e-14
1.80339912641725e-14
1.75223077338065e-14
1.70129301015897e-14
1.65058419944635e-14
1.60010884147233e-14
1.54987497188853e-14
1.49988145828011e-14
1.45012977175607e-14
1.40063199562433e-14
1.35138938911836e-14
1.30239569467357e-14
1.25365843272537e-14
1.20518282761555e-14
1.15696190369217e-14
1.10899522676601e-14
1.06128504206706e-14
1.0138209249435e-14
9.66591497429248e-15
9.19590996390956e-15
8.72803510078113e-15
8.26203774085998e-15
7.79763508657088e-15
7.33446855390347e-15
6.87211158806914e-15
6.40990214996696e-15
5.94689078130847e-15
5.4822482292322e-15
5.01478367505141e-15
4.54222572616274e-15
4.06238715720305e-15
3.57279778630949e-15
3.10197634489212e-15
2.86301389446845e-15
2.81588657638039e-15
2.76375285176672e-15
2.70851158345517e-15
2.65226249016488e-15
2.59683505237828e-15
2.54364617602246e-15
2.49346810438404e-15
2.44675130694136e-15
2.40437827406104e-15
2.3669159171954e-15
2.33420428121643e-15
2.30630248269322e-15
2.28796372373241e-15
4.95246262932273e-14
4.88904342620977e-14
4.82584657761179e-14
4.76287016695162e-14
4.70010101598345e-14
4.63753771144546e-14
4.57517885462455e-14
4.51302191971156e-14
4.45106646949473e-14
4.38931226666125e-14
4.32775766088948e-14
4.26640192377792e-14
4.20524543678054e-14
4.14428750155983e-14
4.08352725401039e-14
4.02296528243999e-14
3.96260167868827e-14
3.90243562608688e-14
3.84246740648791e-14
3.78269759007083e-14
3.72312570008929e-14
3.66375176073581e-14
3.60457682540386e-14
3.54560090607595e-14
3.48682368598799e-14
3.42824639287413e-14
3.36986966163492e-14
3.31169289702896e-14
3.25371686958718e-14
3.19594295622801e-14
3.13837099005325e-14
3.08100128961754e-14
3.02383585872231e-14
2.96687509047951e-14
2.91011864419067e-14
2.85356871600453e-14
2.79722676245422e-14
2.74109224588752e-14
2.68516681171358e-14
2.62945310534767e-14
2.57395100016003e-14
2.51866121451876e-14
2.46358774906388e-14
2.40873177485758e-14
2.35409283611434e-14
2.299675109401e-14
2.2454817898278e-14
2.19151214059468e-14
2.13776909133337e-14
2.08425795239553e-14
2.03097888361408e-14
1.97793329790134e-14
1.92512902615091e-14
1.87256804745679e-14
1.82024881991479e-14
1.76817922251481e-14
1.71636544263356e-14
1.66480577895547e-14
1.61350470376769e-14
1.56247027564037e-14
1.51170130790117e-14
1.46119919458527e-14
1.41097603577023e-14
1.36103304458981e-14
1.31136383025923e-14
1.26197587455019e-14
1.21287437718224e-14
1.16405223942407e-14
1.1155089328941e-14
1.06724664670588e-14
1.01925481075033e-14
9.71521891131447e-15
9.2404203284665e-15
8.76799212601663e-15
8.29768019887226e-15
7.82920004477517e-15
7.3621915328665e-15
6.89622735796368e-15
6.43064428937687e-15
5.96449103296674e-15
5.49693868021983e-15
5.02679666010062e-15
4.55179251936209e-15
4.069742796717e-15
3.57817737572499e-15
3.10588957911414e-15
2.867369224084e-15
2.82021743753693e-15
2.76804201111891e-15
2.71275330888288e-15
2.6564520750725e-15
2.60096926808192e-15
2.54772380522325e-15
2.49748890697593e-15
2.45071661802296e-15
2.40829145852162e-15
2.37078119027127e-15
2.33802633092545e-15
2.31009021092922e-15
2.29173989676181e-15
5.05522285009799e-14
4.98944184065978e-14
4.92400031010848e-14
4.85880631511163e-14
4.79384532075132e-14
4.72911570631118e-14
4.66461608219703e-14
4.6003438552949e-14
4.53629853411779e-14
4.47247987984613e-14
4.40888620693132e-14
4.34551674978523e-14
4.28237189559645e-14
4.21945093821598e-14
4.15675296433416e-14
4.09427856208155e-14
4.03202784613695e-14
3.96999997541647e-14
3.90819520600363e-14
3.84661412683798e-14
3.78525625899836e-14
3.72412159361176e-14
3.66321120161709e-14
3.60252511865132e-14
3.54206298004235e-14
3.4818260051914e-14
3.4218148707255e-14
3.36202896793261e-14
3.30246905140801e-14
3.24313651558772e-14
3.18403119574187e-14
3.12515337898609e-14
3.06650508645491e-14
3.00808673826147e-14
2.94989796318222e-14
2.89194094759227e-14
2.8342171845905e-14
2.77672613022725e-14
2.71946939520511e-14
2.662449652709e-14
2.605666791176e-14
2.54912148994077e-14
2.49281776591612e-14
2.43675683101273e-14
2.38093818791441e-14
2.32536599158005e-14
2.27004348907619e-14
2.21496992932403e-14
2.16014819742435e-14
2.10558365110613e-14
2.05127645936384e-14
1.99722795925132e-14
1.94344600518432e-14
1.88993262464527e-14
1.8366862119381e-14
1.78371461763834e-14
1.73102408076494e-14
1.67861285621694e-14
1.62648532294244e-14
1.57464959507414e-14
1.52310449767558e-14
1.47185127879411e-14
1.42090204512141e-14
1.37025805308066e-14
1.31991274476592e-14
1.26987351704161e-14
1.22014561950631e-14
1.17072185701409e-14
1.12160155410474e-14
1.07278688195656e-14
1.02426717652945e-14
9.76030708255229e-15
9.28071536746297e-15
8.80373588821427e-15
8.32911320743745e-15
7.85656109697728e-15
7.38571804241692e-15
6.91615601858168e-15
6.44721136370797e-15
5.97793101614334e-15
5.50748542665671e-15
5.03468568734426e-15
4.55725942214534e-15
4.07302463017369e-15
3.57952456246195e-15
3.10586205059368e-15
2.86778044260316e-15
2.82054752342551e-15
2.76834994602837e-15
2.71303589075268e-15
2.65670555021136e-15
2.60119068803631e-15
2.54791167275839e-15
2.49764264769771e-15
2.45083677572115e-15
2.40837989036845e-15
2.37084032265362e-15
2.3380588921657e-15
2.31011290827048e-15
2.2910876418873e-15
)
;


// ************************************************************************* //
