/*--------------------------------*- C++ -*----------------------------------*\
| =========                 |                                                 |
| \\      /  F ield         | foam-extend: Open Source CFD                    |
|  \\    /   O peration     | Version:     4.1-20200408                       |
|   \\  /    A nd           | Web:         http://www.foam-extend.org         |
|    \\/     M anipulation  |                                                 |
\*---------------------------------------------------------------------------*/
FoamFile
{
    version     2.0;
    format      ascii;
    class       volSymmTensorField;
    location    "0.0785000";
    object      epsilonTrue;
}
// * * * * * * * * * * * * * * * * * * * * * * * * * * * * * * * * * * * * * //

dimensions      [0 0 0 0 0 0 0];

internalField   nonuniform List<symmTensor> 
1952
(
(0.0784017 -0.00284564 -1.03695e-10 -0.0409989 4.56675e-10 -0.0410723)
(0.0783929 -0.00476882 -4.85898e-11 -0.0409008 -1.19401e-09 -0.0410191)
(0.0783883 -0.00644425 5.98993e-11 -0.0407335 -3.22562e-09 -0.040984)
(0.0783789 -0.007996 2.01983e-10 -0.0405701 2.4549e-09 -0.0409047)
(0.0783749 -0.00933581 -5.28037e-11 -0.0403356 6.38061e-09 -0.0408483)
(0.078371 -0.0104329 -3.98214e-10 -0.0401099 -2.64165e-10 -0.040746)
(0.0783755 -0.0112592 -2.35861e-10 -0.0398122 -7.37426e-09 -0.0406684)
(0.0783834 -0.0117956 2.63213e-10 -0.0395094 -5.19399e-10 -0.0405429)
(0.0784006 -0.0118801 -3.06286e-12 -0.0391584 6.47548e-09 -0.0404396)
(0.0784265 -0.0115254 -4.86574e-10 -0.0387342 -2.12228e-09 -0.0402916)
(0.0784632 -0.0105254 8.08848e-11 -0.0382346 -6.55188e-09 -0.0401515)
(0.0785075 -0.00894187 4.13346e-10 -0.037528 1.6324e-09 -0.0399669)
(0.0785517 -0.00660184 -2.78436e-11 -0.0367746 6.42794e-09 -0.0397622)
(0.0785976 -0.00377735 -3.49438e-10 -0.0359649 5.13712e-10 -0.0395236)
(0.0786396 -0.00174249 -1.72819e-10 -0.0355506 -2.20978e-09 -0.0392693)
(0.0783973 -0.0015264 -3.86979e-11 -0.0410709 -2.37352e-09 -0.0410619)
(0.0784607 -0.00283594 -1.41876e-10 -0.0410056 4.56667e-10 -0.041078)
(0.0784522 -0.00476466 -7.43864e-11 -0.0409063 -1.19435e-09 -0.0410257)
(0.0784482 -0.00642559 8.88241e-11 -0.0407403 -3.22594e-09 -0.0409896)
(0.0784395 -0.0079852 2.82988e-10 -0.0405763 2.45605e-09 -0.0409114)
(0.0784366 -0.00930845 -7.4517e-11 -0.0403428 6.38154e-09 -0.0408542)
(0.0784336 -0.0104144 -5.09254e-10 -0.0401173 -2.65209e-10 -0.0407529)
(0.07844 -0.0112229 -2.63805e-10 -0.0398206 -7.37517e-09 -0.0406747)
(0.078449 -0.011767 3.16982e-10 -0.0395188 -5.18213e-10 -0.0405502)
(0.0784685 -0.0118336 -1.29011e-11 -0.0391694 6.47667e-09 -0.0404466)
(0.0784965 -0.0114873 -5.35421e-10 -0.0387472 -2.12395e-09 -0.0402998)
(0.0785366 -0.0104703 9.1446e-11 -0.0382503 -6.5537e-09 -0.0401597)
(0.0785844 -0.00889557 4.39614e-10 -0.0375482 1.6335e-09 -0.0399764)
(0.0786334 -0.00654297 -3.10221e-11 -0.0367996 6.4297e-09 -0.0397723)
(0.0786856 -0.00373742 -3.79076e-10 -0.0359996 5.13696e-10 -0.0395354)
(0.0787365 -0.00171319 -1.80811e-10 -0.0355944 -2.21047e-09 -0.0392827)
(0.0784562 -0.00152662 -4.72109e-11 -0.0410764 -2.37378e-09 -0.0410682)
(0.07852 -0.00283513 -1.41955e-10 -0.0410242 4.56877e-10 -0.0410962)
(0.0785117 -0.00476376 -7.44162e-11 -0.0409246 -1.19493e-09 -0.0410443)
(0.0785079 -0.00642368 8.88886e-11 -0.0407592 -3.22736e-09 -0.0410079)
(0.0784993 -0.00798327 2.83038e-10 -0.0405952 2.45741e-09 -0.0409302)
(0.078497 -0.00930548 -7.46015e-11 -0.0403624 6.38452e-09 -0.0408728)
(0.0784943 -0.0104117 -5.09356e-10 -0.0401371 -2.65613e-10 -0.040772)
(0.0785015 -0.0112192 -2.64063e-10 -0.0398413 -7.37855e-09 -0.0406938)
(0.0785112 -0.0117629 3.16832e-10 -0.0395405 -5.18077e-10 -0.0405698)
(0.0785316 -0.0118284 -1.29704e-11 -0.0391926 6.47994e-09 -0.0404663)
(0.0785602 -0.0114828 -5.35188e-10 -0.0387716 -2.12554e-09 -0.0403202)
(0.0786008 -0.0104655 9.15526e-11 -0.0382763 -6.55739e-09 -0.0401803)
(0.0786489 -0.00889106 4.39746e-10 -0.0375765 1.63469e-09 -0.0399978)
(0.0786964 -0.00653879 -3.10652e-11 -0.0368295 6.43336e-09 -0.0397942)
(0.0787431 -0.00373542 -3.79177e-10 -0.0360294 5.13502e-10 -0.0395581)
(0.078781 -0.00171331 -1.80933e-10 -0.0356202 -2.21184e-09 -0.0393057)
(0.0785154 -0.00152662 -4.72409e-11 -0.0410945 -2.37474e-09 -0.0410867)
(0.0785815 -0.00283483 -1.42039e-10 -0.0410457 4.57143e-10 -0.0411176)
(0.0785734 -0.00476366 -7.44334e-11 -0.0409461 -1.19556e-09 -0.0410658)
(0.07857 -0.00642292 8.89458e-11 -0.0407812 -3.22906e-09 -0.0410294)
(0.0785617 -0.00798264 2.8305e-10 -0.0406174 2.45884e-09 -0.040952)
(0.0785598 -0.00930413 -7.46769e-11 -0.0403852 6.38801e-09 -0.0408946)
(0.0785575 -0.0104108 -5.09392e-10 -0.0401604 -2.65908e-10 -0.0407942)
(0.0785652 -0.0112177 -2.6435e-10 -0.0398654 -7.38258e-09 -0.0407161)
(0.0785759 -0.0117611 3.167e-10 -0.0395661 -5.18252e-10 -0.0405926)
(0.0785972 -0.011826 -1.30194e-11 -0.0392195 6.48374e-09 -0.0404894)
(0.0786259 -0.0114812 -5.34991e-10 -0.0387994 -2.12704e-09 -0.0403439)
(0.0786665 -0.0104645 9.16055e-11 -0.0383051 -6.56152e-09 -0.0402043)
(0.0787137 -0.00889078 4.39939e-10 -0.037606 1.63592e-09 -0.0400224)
(0.0787598 -0.00653895 -3.10819e-11 -0.0368595 6.4375e-09 -0.0398191)
(0.0788034 -0.00373726 -3.7937e-10 -0.0360591 5.13552e-10 -0.0395835)
(0.0788361 -0.0017149 -1.81217e-10 -0.0356483 -2.21333e-09 -0.0393312)
(0.078577 -0.00152685 -4.72666e-11 -0.0411158 -2.37589e-09 -0.0411081)
(0.078647 -0.00283479 -1.42129e-10 -0.0410699 4.57446e-10 -0.0411418)
(0.0786391 -0.00476394 -7.4453e-11 -0.0409705 -1.19625e-09 -0.04109)
(0.0786363 -0.00642292 8.90022e-11 -0.0408063 -3.23098e-09 -0.0410537)
(0.0786284 -0.00798283 2.83097e-10 -0.0406428 2.46041e-09 -0.0409766)
(0.078627 -0.00930412 -7.47413e-11 -0.0404112 6.39196e-09 -0.0409194)
(0.078625 -0.0104113 -5.09491e-10 -0.0401869 -2.66156e-10 -0.0408193)
(0.0786332 -0.0112183 -2.64633e-10 -0.0398926 -7.38723e-09 -0.0407414)
(0.0786438 -0.0117617 3.16646e-10 -0.0395939 -5.18463e-10 -0.0406183)
(0.0786654 -0.0118264 -1.30489e-11 -0.0392484 6.48801e-09 -0.0405153)
(0.0786939 -0.0114824 -5.34834e-10 -0.0388289 -2.12867e-09 -0.0403703)
(0.0787339 -0.0104663 9.17181e-11 -0.038335 -6.56605e-09 -0.040231)
(0.0787794 -0.0088928 4.40115e-10 -0.0376362 1.63723e-09 -0.0400495)
(0.0788227 -0.00654112 -3.10833e-11 -0.0368892 6.442e-09 -0.0398464)
(0.0788617 -0.00373956 -3.79667e-10 -0.0360875 5.13649e-10 -0.039611)
(0.0788882 -0.00171643 -1.81458e-10 -0.0356745 -2.21492e-09 -0.0393586)
(0.0786423 -0.00152712 -4.72991e-11 -0.04114 -2.3772e-09 -0.0411323)
(0.0787154 -0.00283513 -1.42223e-10 -0.0410968 4.57772e-10 -0.0411686)
(0.0787076 -0.00476492 -7.4462e-11 -0.0409974 -1.19704e-09 -0.0411169)
(0.0787048 -0.00642391 8.90543e-11 -0.0408335 -3.23312e-09 -0.0410806)
(0.0786971 -0.00798417 2.83125e-10 -0.0406703 2.4621e-09 -0.0410037)
(0.0786961 -0.00930552 -7.47996e-11 -0.0404393 6.39631e-09 -0.0409465)
(0.0786943 -0.0104134 -5.09537e-10 -0.0402153 -2.66407e-10 -0.0408468)
(0.0787027 -0.0112207 -2.64989e-10 -0.0399217 -7.39229e-09 -0.0407689)
(0.0787133 -0.0117642 3.16419e-10 -0.0396235 -5.18719e-10 -0.0406462)
(0.0787346 -0.0118293 -1.30597e-11 -0.0392785 6.49262e-09 -0.0405434)
(0.0787624 -0.011486 -5.34702e-10 -0.0388592 -2.13039e-09 -0.0403987)
(0.0788013 -0.0104709 9.1794e-11 -0.0383653 -6.57086e-09 -0.0402595)
(0.0788449 -0.00889717 4.40434e-10 -0.0376663 1.63857e-09 -0.0400782)
(0.0788859 -0.00654492 -3.10725e-11 -0.0369188 6.44676e-09 -0.0398752)
(0.0789216 -0.00374281 -3.79989e-10 -0.036116 5.1385e-10 -0.0396399)
(0.0789436 -0.00171812 -1.81699e-10 -0.0357016 -2.21659e-09 -0.0393875)
(0.0787107 -0.00152759 -4.73405e-11 -0.0411668 -2.37866e-09 -0.0411591)
(0.0787859 -0.0028358 -1.42323e-10 -0.0411256 4.58124e-10 -0.0411973)
(0.0787782 -0.00476629 -7.44963e-11 -0.0410263 -1.19788e-09 -0.0411457)
(0.0787755 -0.00642549 8.91121e-11 -0.0408627 -3.23541e-09 -0.0411094)
(0.0787679 -0.00798647 2.83172e-10 -0.0406997 2.46393e-09 -0.0410327)
(0.078767 -0.00930819 -7.48461e-11 -0.0404691 6.40095e-09 -0.0409756)
(0.0787653 -0.010417 -5.09631e-10 -0.0402453 -2.66678e-10 -0.0408761)
(0.0787735 -0.011225 -2.6533e-10 -0.039952 -7.3977e-09 -0.0407984)
(0.0787837 -0.0117687 3.16407e-10 -0.0396542 -5.19023e-10 -0.0406758)
(0.0788046 -0.0118338 -1.30583e-11 -0.0393096 6.4975e-09 -0.0405732)
(0.0788315 -0.0114912 -5.34637e-10 -0.0388901 -2.13217e-09 -0.0404287)
(0.0788691 -0.0104766 9.19096e-11 -0.0383959 -6.5759e-09 -0.0402896)
(0.0789107 -0.00890249 4.40631e-10 -0.0376962 1.63997e-09 -0.0401084)
(0.0789489 -0.00654962 -3.10541e-11 -0.0369478 6.4517e-09 -0.0399053)
(0.0789814 -0.00374628 -3.8034e-10 -0.036144 5.14131e-10 -0.0396699)
(0.0789998 -0.0017198 -1.81919e-10 -0.0357284 -2.21831e-09 -0.0394173)
(0.0787811 -0.00152817 -4.7358e-11 -0.0411955 -2.38024e-09 -0.0411878)
(0.0788579 -0.00283685 -1.42417e-10 -0.041156 4.58498e-10 -0.0412277)
(0.0788502 -0.00476844 -7.45088e-11 -0.0410567 -1.19877e-09 -0.0411761)
(0.0788475 -0.00642803 8.91607e-11 -0.0408935 -3.23784e-09 -0.0411399)
(0.0788399 -0.00798971 2.83199e-10 -0.0407305 2.46585e-09 -0.0410633)
(0.078839 -0.00931193 -7.48858e-11 -0.0405002 6.40585e-09 -0.0410063)
(0.0788369 -0.0104217 -5.09689e-10 -0.0402764 -2.66957e-10 -0.0409069)
(0.078845 -0.0112303 -2.65719e-10 -0.0399832 -7.40336e-09 -0.0408292)
(0.0788546 -0.0117743 3.16152e-10 -0.0396853 -5.19266e-10 -0.0407068)
(0.0788746 -0.0118398 -1.30464e-11 -0.0393407 6.50256e-09 -0.0406041)
(0.0789004 -0.0114978 -5.34517e-10 -0.0389208 -2.13406e-09 -0.0404597)
(0.0789365 -0.0104837 9.20102e-11 -0.0384261 -6.5811e-09 -0.0403205)
(0.0789766 -0.00890848 4.40999e-10 -0.0377264 1.64135e-09 -0.0401393)
(0.0790127 -0.00655439 -3.10316e-11 -0.0369772 6.45678e-09 -0.0399361)
(0.0790426 -0.00374973 -3.80638e-10 -0.0361724 5.14445e-10 -0.0397006)
(0.0790581 -0.00172141 -1.8212e-10 -0.0357559 -2.22007e-09 -0.0394478)
(0.0788532 -0.00152896 -4.73874e-11 -0.0412259 -2.38191e-09 -0.0412183)
(0.0789308 -0.00283809 -1.42508e-10 -0.0411876 4.58884e-10 -0.0412593)
(0.0789231 -0.00477073 -7.45413e-11 -0.0410883 -1.1997e-09 -0.0412078)
(0.0789203 -0.0064309 8.92122e-11 -0.0409251 -3.24035e-09 -0.0411715)
(0.0789124 -0.00799365 2.83243e-10 -0.0407621 2.46785e-09 -0.041095)
(0.0789112 -0.00931648 -7.49156e-11 -0.0405318 6.4109e-09 -0.0410379)
(0.0789089 -0.0104275 -5.09748e-10 -0.0403079 -2.67261e-10 -0.0409386)
(0.0789165 -0.0112368 -2.66098e-10 -0.0400147 -7.40916e-09 -0.0408608)
(0.0789257 -0.0117807 3.16173e-10 -0.0397172 -5.19599e-10 -0.0407385)
(0.0789449 -0.0118464 -1.30237e-11 -0.0393725 6.50775e-09 -0.0406358)
(0.0789696 -0.0115047 -5.34496e-10 -0.0389522 -2.13592e-09 -0.0404915)
(0.0790044 -0.0104909 9.21028e-11 -0.0384568 -6.58639e-09 -0.0403522)
(0.0790425 -0.00891495 4.41233e-10 -0.0377561 1.64279e-09 -0.040171)
(0.0790765 -0.00655963 -3.10073e-11 -0.037006 6.46194e-09 -0.0399675)
(0.0791044 -0.00375315 -3.80962e-10 -0.0362009 5.14821e-10 -0.0397319)
(0.0791176 -0.00172291 -1.82297e-10 -0.0357838 -2.22186e-09 -0.0394789)
(0.0789261 -0.00152981 -4.7408e-11 -0.0412575 -2.38366e-09 -0.0412499)
(0.0790042 -0.00283961 -1.42602e-10 -0.04122 4.59286e-10 -0.0412917)
(0.0789963 -0.00477362 -7.45557e-11 -0.0411206 -1.20064e-09 -0.0412401)
(0.0789935 -0.00643439 8.92499e-11 -0.0409578 -3.24293e-09 -0.0412038)
(0.0789854 -0.00799808 2.83259e-10 -0.0407946 2.46991e-09 -0.0411275)
(0.078984 -0.0093216 -7.49402e-11 -0.0405643 6.41608e-09 -0.0410703)
(0.0789811 -0.0104336 -5.09802e-10 -0.0403401 -2.67559e-10 -0.0409712)
(0.0789883 -0.0112437 -2.66485e-10 -0.0400468 -7.41512e-09 -0.0408933)
(0.0789965 -0.0117879 3.15971e-10 -0.0397488 -5.19808e-10 -0.040771)
(0.0790148 -0.0118538 -1.29988e-11 -0.0394039 6.51304e-09 -0.0406682)
(0.0790383 -0.0115124 -5.34369e-10 -0.038983 -2.13791e-09 -0.0405238)
(0.0790718 -0.0104986 9.22288e-11 -0.038487 -6.59178e-09 -0.0403843)
(0.0791088 -0.00892113 4.41564e-10 -0.0377863 1.64418e-09 -0.040203)
(0.0791411 -0.00656446 -3.09805e-11 -0.0370354 6.46717e-09 -0.0399994)
(0.0791671 -0.00375645 -3.81238e-10 -0.0362297 5.15215e-10 -0.0397636)
(0.0791786 -0.00172439 -1.82463e-10 -0.0358121 -2.22367e-09 -0.0395103)
(0.0789994 -0.00153079 -4.74771e-11 -0.0412899 -2.38545e-09 -0.0412823)
(0.0790776 -0.00284124 -1.42699e-10 -0.0412531 4.59689e-10 -0.0413248)
(0.0790696 -0.0047766 -7.4571e-11 -0.0411534 -1.20162e-09 -0.0412733)
(0.0790664 -0.00643817 8.92913e-11 -0.0409905 -3.24556e-09 -0.0412368)
(0.0790579 -0.00800302 2.83285e-10 -0.040827 2.47199e-09 -0.0411605)
(0.0790562 -0.00932722 -7.49604e-11 -0.0405968 6.42132e-09 -0.0411031)
(0.0790528 -0.0104405 -5.09809e-10 -0.0403722 -2.67881e-10 -0.041004)
(0.0790595 -0.0112512 -2.66894e-10 -0.0400787 -7.42109e-09 -0.0409259)
(0.0790674 -0.0117952 3.15932e-10 -0.039781 -5.20136e-10 -0.0408037)
(0.0790849 -0.011861 -1.29644e-11 -0.0394359 6.51837e-09 -0.0407007)
(0.0791074 -0.0115198 -5.34359e-10 -0.0390144 -2.13981e-09 -0.0405564)
(0.0791396 -0.0105062 9.22858e-11 -0.0385177 -6.59719e-09 -0.0404167)
(0.0791751 -0.00892768 4.4187e-10 -0.0378162 1.64562e-09 -0.0402353)
(0.0792061 -0.00656939 -3.09542e-11 -0.0370648 6.47244e-09 -0.0400314)
(0.0792309 -0.00375946 -3.81495e-10 -0.0362589 5.15617e-10 -0.0397955)
(0.0792408 -0.00172573 -1.82607e-10 -0.0358409 -2.22549e-09 -0.039542)
(0.0790729 -0.00153182 -4.74998e-11 -0.0413229 -2.38728e-09 -0.0413155)
(0.0791505 -0.00284301 -1.42786e-10 -0.0412861 4.60101e-10 -0.041358)
(0.0791423 -0.00477981 -7.45939e-11 -0.0411864 -1.20259e-09 -0.0413063)
(0.0791394 -0.00644205 8.93206e-11 -0.0410238 -3.2482e-09 -0.0412699)
(0.0791306 -0.00800801 2.83281e-10 -0.0408601 2.47411e-09 -0.0411937)
(0.0791286 -0.00933295 -7.49725e-11 -0.0406298 6.42661e-09 -0.0411362)
(0.0791248 -0.0104473 -5.09843e-10 -0.0404049 -2.68205e-10 -0.0410372)
(0.0791308 -0.0112588 -2.6726e-10 -0.0401111 -7.42716e-09 -0.0409589)
(0.0791377 -0.011803 3.15835e-10 -0.0398128 -5.20346e-10 -0.0408367)
(0.0791545 -0.0118688 -1.29345e-11 -0.0394675 6.52374e-09 -0.0407335)
(0.0791762 -0.0115275 -5.34243e-10 -0.0390455 -2.14183e-09 -0.0405892)
(0.0792074 -0.0105138 9.2422e-11 -0.0385481 -6.60266e-09 -0.0404492)
(0.0792419 -0.00893363 4.42115e-10 -0.0378465 1.64707e-09 -0.0402677)
(0.0792714 -0.00657406 -3.0927e-11 -0.0370943 6.47773e-09 -0.0400636)
(0.0792951 -0.00376249 -3.81764e-10 -0.0362882 5.16038e-10 -0.0398275)
(0.0793039 -0.00172704 -1.82742e-10 -0.0358699 -2.22733e-09 -0.0395738)
(0.0791458 -0.00153289 -4.75174e-11 -0.0413561 -2.38911e-09 -0.0413486)
(0.0792231 -0.00284482 -1.42873e-10 -0.0413195 4.60508e-10 -0.0413914)
(0.0792147 -0.0047832 -7.45907e-11 -0.0412196 -1.20358e-09 -0.0413398)
(0.0792114 -0.00644632 8.93478e-11 -0.0410569 -3.25085e-09 -0.0413031)
(0.0792024 -0.00801339 2.8328e-10 -0.0408929 2.47621e-09 -0.041227)
(0.0792001 -0.00933904 -7.49837e-11 -0.0406626 6.4319e-09 -0.0411694)
(0.0791959 -0.0104545 -5.09816e-10 -0.0404372 -2.68524e-10 -0.0410703)
(0.0792016 -0.0112665 -2.67687e-10 -0.0401433 -7.43319e-09 -0.0409919)
(0.079208 -0.0118105 3.15677e-10 -0.0398449 -5.20616e-10 -0.0408696)
(0.079224 -0.0118763 -1.28953e-11 -0.0394994 6.5291e-09 -0.0407663)
(0.0792449 -0.0115352 -5.34213e-10 -0.0390767 -2.14378e-09 -0.0406219)
(0.0792751 -0.0105215 9.24706e-11 -0.0385787 -6.60811e-09 -0.0404818)
(0.0793088 -0.00893991 4.42464e-10 -0.0378768 1.64848e-09 -0.0403001)
(0.0793376 -0.00657854 -3.09002e-11 -0.0371243 6.48303e-09 -0.0400958)
(0.0793604 -0.0037652 -3.82009e-10 -0.0363181 5.16437e-10 -0.0398596)
(0.079368 -0.00172823 -1.82859e-10 -0.0358994 -2.22917e-09 -0.0396057)
(0.0792184 -0.00153402 -4.75467e-11 -0.0413894 -2.39097e-09 -0.0413821)
(0.0792947 -0.00284671 -1.42957e-10 -0.0413527 4.60917e-10 -0.0414246)
(0.0792863 -0.00478651 -7.4616e-11 -0.0412526 -1.20455e-09 -0.0413729)
(0.079283 -0.00645038 8.93778e-11 -0.0410901 -3.25349e-09 -0.0413362)
(0.0792737 -0.00801871 2.83261e-10 -0.0409258 2.47834e-09 -0.0412602)
(0.0792713 -0.00934512 -7.49911e-11 -0.0406955 6.43718e-09 -0.0412024)
(0.0792666 -0.0104617 -5.09816e-10 -0.0404697 -2.6887e-10 -0.0411035)
(0.0792718 -0.0112745 -2.68053e-10 -0.0401755 -7.43922e-09 -0.0410248)
(0.0792778 -0.0118185 3.15641e-10 -0.0398769 -5.2087e-10 -0.0409026)
(0.0792935 -0.011884 -1.28604e-11 -0.0395313 6.53446e-09 -0.0407991)
(0.0793137 -0.0115427 -5.34119e-10 -0.0391082 -2.14575e-09 -0.0406547)
(0.0793433 -0.0105288 9.25852e-11 -0.0386096 -6.61357e-09 -0.0405143)
(0.0793763 -0.00894566 4.42676e-10 -0.0379075 1.64992e-09 -0.0403326)
(0.079404 -0.00658297 -3.08734e-11 -0.0371542 6.48833e-09 -0.0401281)
(0.0794257 -0.00376792 -3.8227e-10 -0.0363478 5.16844e-10 -0.0398917)
(0.0794325 -0.00172941 -1.82969e-10 -0.0359287 -2.23101e-09 -0.0396377)
(0.0792901 -0.00153514 -4.75953e-11 -0.0414226 -2.3928e-09 -0.0414153)
(0.0793655 -0.00284863 -1.43036e-10 -0.0413857 4.61324e-10 -0.0414576)
(0.079357 -0.00479015 -7.46057e-11 -0.0412854 -1.20552e-09 -0.041406)
(0.0793537 -0.00645485 8.93933e-11 -0.0411231 -3.25612e-09 -0.0413692)
(0.0793443 -0.00802425 2.83225e-10 -0.0409586 2.48043e-09 -0.0412932)
(0.0793418 -0.00935135 -7.49999e-11 -0.0407282 6.44243e-09 -0.0412353)
(0.0793368 -0.010469 -5.0977e-10 -0.040502 -2.692e-10 -0.0411364)
(0.0793419 -0.0112823 -2.68464e-10 -0.0402077 -7.44522e-09 -0.0410576)
(0.0793474 -0.0118261 3.15444e-10 -0.0399088 -5.21082e-10 -0.0409354)
(0.0793625 -0.0118917 -1.2821e-11 -0.039563 6.5398e-09 -0.0408317)
(0.0793824 -0.0115502 -5.34063e-10 -0.0391395 -2.14773e-09 -0.0406873)
(0.0794112 -0.0105363 9.26424e-11 -0.0386403 -6.61901e-09 -0.0405467)
(0.0794437 -0.00895166 4.4303e-10 -0.0379382 1.65132e-09 -0.0403649)
(0.079471 -0.00658725 -3.08463e-11 -0.0371845 6.49362e-09 -0.0401603)
(0.0794917 -0.00377056 -3.82453e-10 -0.0363778 5.17239e-10 -0.0399238)
(0.0794976 -0.0017306 -1.83078e-10 -0.0359583 -2.23285e-09 -0.0396696)
(0.0793609 -0.00153633 -4.76062e-11 -0.0414556 -2.39463e-09 -0.0414484)
(0.0794356 -0.00285052 -1.43115e-10 -0.0414185 4.61727e-10 -0.0414905)
(0.079427 -0.00479351 -7.46175e-11 -0.0413181 -1.20649e-09 -0.0414388)
(0.0794237 -0.00645903 8.94188e-11 -0.0411558 -3.25873e-09 -0.0414019)
(0.079414 -0.00802974 2.83191e-10 -0.040991 2.48253e-09 -0.041326)
(0.0794115 -0.00935757 -7.50048e-11 -0.0407607 6.44765e-09 -0.041268)
(0.0794063 -0.0104763 -5.09732e-10 -0.0405342 -2.69547e-10 -0.0411692)
(0.0794111 -0.0112904 -2.68845e-10 -0.0402396 -7.45117e-09 -0.0410901)
(0.0794164 -0.011834 3.15411e-10 -0.0399408 -5.21332e-10 -0.040968)
(0.0794314 -0.0118994 -1.27814e-11 -0.0395949 6.5451e-09 -0.0408641)
(0.0794509 -0.0115578 -5.34013e-10 -0.0391711 -2.14966e-09 -0.0407198)
(0.0794795 -0.0105438 9.27339e-11 -0.0386714 -6.62442e-09 -0.040579)
(0.0795109 -0.00895781 4.4323e-10 -0.0379686 1.6528e-09 -0.0403972)
(0.0795375 -0.00659191 -3.08172e-11 -0.0372143 6.49889e-09 -0.0401923)
(0.0795581 -0.00377331 -3.82676e-10 -0.036408 5.1766e-10 -0.0399557)
(0.0795633 -0.00173174 -1.83176e-10 -0.0359882 -2.23469e-09 -0.0397013)
(0.079431 -0.00153746 -4.7646e-11 -0.0414885 -2.39645e-09 -0.0414813)
(0.0795046 -0.00285249 -1.43185e-10 -0.041451 4.62128e-10 -0.041523)
(0.079496 -0.00479721 -7.4608e-11 -0.0413504 -1.20744e-09 -0.0414713)
(0.0794927 -0.00646355 8.94287e-11 -0.0411884 -3.26131e-09 -0.0414344)
(0.079483 -0.00803542 2.83123e-10 -0.0410233 2.4846e-09 -0.0413585)
(0.0794805 -0.00936403 -7.50121e-11 -0.0407931 6.45282e-09 -0.0413004)
(0.0794751 -0.0104838 -5.09679e-10 -0.0405662 -2.69877e-10 -0.0412017)
(0.07948 -0.0112986 -2.6925e-10 -0.0402716 -7.45709e-09 -0.0411224)
(0.0794846 -0.0118422 3.15196e-10 -0.0399722 -5.21481e-10 -0.0410003)
(0.0794992 -0.0119077 -1.2739e-11 -0.039626 6.55037e-09 -0.0408963)
(0.0795185 -0.0115659 -5.33944e-10 -0.0392019 -2.15166e-09 -0.0407519)
(0.0795467 -0.0105517 9.28303e-11 -0.0387017 -6.6298e-09 -0.0406109)
(0.0795784 -0.00896397 4.43511e-10 -0.0379993 1.65418e-09 -0.040429)
(0.0796045 -0.00659643 -3.0788e-11 -0.0372447 6.50411e-09 -0.040224)
(0.0796248 -0.00377615 -3.82911e-10 -0.0364384 5.18093e-10 -0.0399873)
(0.0796298 -0.00173291 -1.83278e-10 -0.0360186 -2.23651e-09 -0.0397329)
(0.0795 -0.00153868 -4.76642e-11 -0.0415209 -2.39825e-09 -0.0415138)
(0.0795727 -0.00285451 -1.43259e-10 -0.0414833 4.62521e-10 -0.0415552)
(0.079564 -0.00480087 -7.46108e-11 -0.0413825 -1.20841e-09 -0.0415036)
(0.0795604 -0.00646813 8.94508e-11 -0.0412203 -3.26387e-09 -0.0414665)
(0.0795504 -0.00804135 2.83066e-10 -0.0410549 2.48665e-09 -0.0413907)
(0.0795479 -0.00937081 -7.50156e-11 -0.0408247 6.45793e-09 -0.0413323)
(0.0795424 -0.0104917 -5.09604e-10 -0.0405974 -2.7023e-10 -0.0412337)
(0.0795473 -0.0113072 -2.69673e-10 -0.0403027 -7.46289e-09 -0.0411542)
(0.0795523 -0.0118504 3.15068e-10 -0.0400036 -5.21712e-10 -0.0410322)
(0.0795669 -0.0119158 -1.26954e-11 -0.0396574 6.55555e-09 -0.040928)
(0.0795861 -0.0115739 -5.33905e-10 -0.039233 -2.15359e-09 -0.0407837)
(0.0796142 -0.0105595 9.2885e-11 -0.0387325 -6.63512e-09 -0.0406425)
(0.079646 -0.00897025 4.43801e-10 -0.0380302 1.65558e-09 -0.0404606)
(0.0796722 -0.00660097 -3.07604e-11 -0.0372754 6.5093e-09 -0.0402555)
(0.0796921 -0.00377881 -3.83107e-10 -0.0364692 5.18491e-10 -0.0400188)
(0.0796968 -0.00173406 -1.83375e-10 -0.0360492 -2.23833e-09 -0.0397643)
(0.0795681 -0.00153989 -4.76876e-11 -0.0415532 -2.40003e-09 -0.0415462)
(0.0796389 -0.00285664 -1.43335e-10 -0.0415147 4.62913e-10 -0.0415868)
(0.0796302 -0.00480475 -7.46121e-11 -0.0414138 -1.20933e-09 -0.0415351)
(0.0796271 -0.00647279 8.94619e-11 -0.041252 -3.26637e-09 -0.0414979)
(0.0796171 -0.00804733 2.8296e-10 -0.0410863 2.48871e-09 -0.0414223)
(0.0796147 -0.00937758 -7.50198e-11 -0.0408562 6.46295e-09 -0.0413637)
(0.0796091 -0.0104995 -5.09515e-10 -0.0406285 -2.70609e-10 -0.0412653)
(0.0796141 -0.0113158 -2.70067e-10 -0.0403338 -7.4686e-09 -0.0411855)
(0.0796192 -0.0118588 3.1495e-10 -0.0400347 -5.21853e-10 -0.0410636)
(0.079634 -0.0119242 -1.26533e-11 -0.0396885 6.56068e-09 -0.0409593)
(0.0796535 -0.0115819 -5.33842e-10 -0.0392641 -2.15554e-09 -0.0408151)
(0.0796818 -0.0105674 9.29714e-11 -0.0387632 -6.6404e-09 -0.0406738)
(0.0797135 -0.00897649 4.4408e-10 -0.0380611 1.65699e-09 -0.040492)
(0.0797396 -0.00660561 -3.07303e-11 -0.0373058 6.51444e-09 -0.0402867)
(0.0797596 -0.0037817 -3.83325e-10 -0.0365 5.18914e-10 -0.04005)
(0.0797642 -0.00173521 -1.83474e-10 -0.0360801 -2.24013e-09 -0.0397955)
(0.0796343 -0.00154118 -4.77174e-11 -0.0415847 -2.40177e-09 -0.0415777)
(0.079704 -0.00285873 -1.43414e-10 -0.0415458 4.63296e-10 -0.0416179)
(0.0796952 -0.00480868 -7.45915e-11 -0.0414447 -1.21024e-09 -0.0415662)
(0.0796923 -0.00647765 8.94732e-11 -0.0412831 -3.26884e-09 -0.0415289)
(0.0796823 -0.00805351 2.82866e-10 -0.0411171 2.49072e-09 -0.0414534)
(0.0796803 -0.00938459 -7.50251e-11 -0.0408872 6.4679e-09 -0.0413947)
(0.0796748 -0.0105076 -5.09414e-10 -0.0406592 -2.70968e-10 -0.0412963)
(0.0796802 -0.0113247 -2.70495e-10 -0.0403647 -7.47423e-09 -0.0412164)
(0.0796854 -0.0118674 3.148e-10 -0.0400655 -5.21975e-10 -0.0410947)
(0.0797004 -0.0119328 -1.26086e-11 -0.0397193 6.56575e-09 -0.0409902)
(0.0797202 -0.0115903 -5.33834e-10 -0.0392949 -2.15748e-09 -0.0408461)
(0.0797487 -0.0105757 9.30326e-11 -0.0387937 -6.64562e-09 -0.0407047)
(0.0797809 -0.00898315 4.44392e-10 -0.038092 1.65837e-09 -0.0405229)
(0.0798073 -0.00661041 -3.06996e-11 -0.0373365 6.51953e-09 -0.0403176)
(0.0798277 -0.0037846 -3.83542e-10 -0.0365315 5.19357e-10 -0.0400809)
(0.0798328 -0.00173634 -1.8357e-10 -0.0361117 -2.24193e-09 -0.0398264)
(0.0796993 -0.00154244 -4.77441e-11 -0.0416158 -2.40349e-09 -0.0416088)
(0.0797675 -0.00286092 -1.4348e-10 -0.0415763 4.63669e-10 -0.0416483)
(0.0797589 -0.0048127 -7.45824e-11 -0.041475 -1.21115e-09 -0.0415967)
(0.079756 -0.00648256 8.9485e-11 -0.0413136 -3.27126e-09 -0.0415593)
(0.0797461 -0.00805986 2.82738e-10 -0.0411473 2.4927e-09 -0.0414839)
(0.0797445 -0.00939187 -7.50304e-11 -0.0409177 6.47275e-09 -0.041425)
(0.0797392 -0.010516 -5.093e-10 -0.0406895 -2.71356e-10 -0.0413269)
(0.0797451 -0.011334 -2.70922e-10 -0.0403951 -7.47975e-09 -0.0412468)
(0.0797507 -0.0118764 3.14665e-10 -0.040096 -5.22079e-10 -0.0411252)
(0.0797662 -0.0119418 -1.25628e-11 -0.0397501 6.57073e-09 -0.0410206)
(0.0797867 -0.011599 -5.33824e-10 -0.0393257 -2.15943e-09 -0.0408767)
(0.0798156 -0.0105841 9.31043e-11 -0.0388244 -6.65078e-09 -0.0407352)
(0.0798487 -0.00898974 4.44707e-10 -0.0381233 1.65975e-09 -0.0405535)
(0.0798755 -0.00661524 -3.06689e-11 -0.0373677 6.52457e-09 -0.0403482)
(0.0798965 -0.00378753 -3.83784e-10 -0.0365633 5.19799e-10 -0.0401115)
(0.0799022 -0.00173747 -1.8367e-10 -0.0361439 -2.24372e-09 -0.0398571)
(0.0797628 -0.00154375 -4.77779e-11 -0.0416462 -2.40516e-09 -0.0416394)
(0.0798291 -0.00286321 -1.43558e-10 -0.0416061 4.64036e-10 -0.0416781)
(0.0798206 -0.00481699 -7.4568e-11 -0.0415046 -1.21203e-09 -0.0416265)
(0.0798181 -0.00648777 8.94915e-11 -0.0413436 -3.27362e-09 -0.041589)
(0.0798083 -0.0080665 2.82592e-10 -0.041177 2.49466e-09 -0.0415138)
(0.0798074 -0.00939945 -7.50417e-11 -0.0409478 6.4775e-09 -0.0414547)
(0.0798024 -0.0105246 -5.09178e-10 -0.0407193 -2.71763e-10 -0.0413568)
(0.079809 -0.0113435 -2.71367e-10 -0.0404252 -7.48515e-09 -0.0412765)
(0.0798154 -0.0118855 3.14523e-10 -0.0401264 -5.22148e-10 -0.0411552)
(0.0798316 -0.0119509 -1.25181e-11 -0.0397808 6.57564e-09 -0.0410505)
(0.079853 -0.0116078 -5.33864e-10 -0.0393567 -2.16138e-09 -0.0409068)
(0.0798827 -0.0105927 9.31477e-11 -0.0388553 -6.6559e-09 -0.0407652)
(0.0799168 -0.00899653 4.45102e-10 -0.038155 1.66113e-09 -0.0405837)
(0.0799443 -0.00662012 -3.06382e-11 -0.0373993 6.52958e-09 -0.0403785)
(0.0799663 -0.0037905 -3.8401e-10 -0.0365959 5.20215e-10 -0.040142)
(0.0799725 -0.00173862 -1.83777e-10 -0.0361766 -2.2455e-09 -0.0398878)
(0.0798243 -0.00154514 -4.78174e-11 -0.0416759 -2.4068e-09 -0.0416692)
(0.0798889 -0.00286549 -1.4364e-10 -0.0416352 4.64395e-10 -0.0417072)
(0.0798805 -0.00482127 -7.45496e-11 -0.0415336 -1.21289e-09 -0.0416556)
(0.0798786 -0.00649295 8.95013e-11 -0.0413731 -3.27592e-09 -0.041618)
(0.0798691 -0.0080732 2.82425e-10 -0.0412062 2.4966e-09 -0.0415431)
(0.079869 -0.00940712 -7.50563e-11 -0.0409775 6.48216e-09 -0.0414838)
(0.0798646 -0.0105334 -5.09047e-10 -0.0407488 -2.72193e-10 -0.0413863)
(0.0798721 -0.0113533 -2.71812e-10 -0.0404551 -7.49044e-09 -0.0413057)
(0.0798796 -0.0118948 3.14434e-10 -0.0401568 -5.22186e-10 -0.0411848)
(0.0798967 -0.0119604 -1.24743e-11 -0.0398116 6.58049e-09 -0.0410799)
(0.0799193 -0.0116168 -5.33936e-10 -0.0393879 -2.16333e-09 -0.0409367)
(0.0799499 -0.0106016 9.31983e-11 -0.0388865 -6.66097e-09 -0.040795)
(0.0799851 -0.00900362 4.4549e-10 -0.0381868 1.66254e-09 -0.0406138)
(0.0800136 -0.00662529 -3.06055e-11 -0.0374312 6.53456e-09 -0.0404086)
(0.0800371 -0.00379365 -3.84335e-10 -0.0366291 5.20638e-10 -0.0401723)
(0.0800441 -0.00173972 -1.83884e-10 -0.0362102 -2.24729e-09 -0.0399183)
(0.079884 -0.00154652 -4.78316e-11 -0.041705 -2.4084e-09 -0.0416983)
(0.0799469 -0.00286777 -1.43719e-10 -0.0416638 4.64745e-10 -0.0417357)
(0.0799388 -0.0048257 -7.45178e-11 -0.041562 -1.21373e-09 -0.0416842)
(0.0799376 -0.00649828 8.95126e-11 -0.0414021 -3.27818e-09 -0.0416465)
(0.0799286 -0.00808006 2.82235e-10 -0.041235 2.49851e-09 -0.0415719)
(0.0799294 -0.00941503 -7.50763e-11 -0.0410069 6.48674e-09 -0.0415125)
(0.0799258 -0.0105424 -5.08927e-10 -0.0407781 -2.72626e-10 -0.0414153)
(0.0799344 -0.0113634 -2.72277e-10 -0.0404849 -7.49566e-09 -0.0413346)
(0.0799429 -0.0119046 3.14338e-10 -0.0401869 -5.22164e-10 -0.041214)
(0.0799612 -0.0119703 -1.24305e-11 -0.0398422 6.58528e-09 -0.0411091)
(0.0799853 -0.0116263 -5.3407e-10 -0.039419 -2.16531e-09 -0.0409662)
(0.0800171 -0.0106108 9.32427e-11 -0.0389177 -6.66602e-09 -0.0408245)
(0.0800544 -0.00901086 4.45937e-10 -0.0382194 1.66388e-09 -0.0406436)
(0.080084 -0.00663059 -3.05729e-11 -0.037464 6.53951e-09 -0.0404386)
(0.0801086 -0.00379702 -3.84684e-10 -0.0366628 5.21042e-10 -0.0402025)
(0.0801168 -0.00174096 -1.8401e-10 -0.0362441 -2.24906e-09 -0.0399487)
(0.0799419 -0.00154794 -4.78788e-11 -0.0417335 -2.40996e-09 -0.0417269)
(0.0800036 -0.0028701 -1.43807e-10 -0.0416921 4.6509e-10 -0.0417639)
(0.0799957 -0.00483025 -7.44883e-11 -0.0415902 -1.21457e-09 -0.0417125)
(0.0799951 -0.00650373 8.95246e-11 -0.0414307 -3.28041e-09 -0.0416747)
(0.0799865 -0.00808709 2.82023e-10 -0.0412633 2.50041e-09 -0.0416003)
(0.0799884 -0.00942316 -7.51034e-11 -0.0410359 6.49126e-09 -0.0415407)
(0.0799856 -0.0105516 -5.08795e-10 -0.0408069 -2.73096e-10 -0.0414439)
(0.0799956 -0.0113737 -2.72766e-10 -0.0405143 -7.50078e-09 -0.041363)
(0.0800059 -0.0119144 3.14241e-10 -0.0402171 -5.22141e-10 -0.0412429)
(0.0800258 -0.0119804 -1.23874e-11 -0.0398731 6.59002e-09 -0.0411379)
(0.0800517 -0.0116358 -5.34259e-10 -0.0394506 -2.16728e-09 -0.0409954)
(0.080085 -0.0106203 9.32469e-11 -0.0389495 -6.67104e-09 -0.0408539)
(0.0801242 -0.0090185 4.465e-10 -0.0382525 1.66527e-09 -0.0406733)
(0.0801556 -0.00663608 -3.05406e-11 -0.0374974 6.54447e-09 -0.0404685)
(0.0801816 -0.00380048 -3.85026e-10 -0.0366972 5.21402e-10 -0.0402327)
(0.0801905 -0.00174224 -1.84146e-10 -0.0362785 -2.25085e-09 -0.0399792)
(0.0799985 -0.00154942 -4.79256e-11 -0.0417617 -2.41151e-09 -0.0417551)
(0.0800586 -0.00287234 -1.439e-10 -0.04172 4.65434e-10 -0.0417918)
(0.080051 -0.00483474 -7.44497e-11 -0.0416179 -1.21539e-09 -0.0417404)
(0.0800516 -0.00650903 8.95363e-11 -0.0414592 -3.28261e-09 -0.0417025)
(0.0800435 -0.00809402 2.81774e-10 -0.0412916 2.50233e-09 -0.0416285)
(0.0800468 -0.00943117 -7.51412e-11 -0.0410649 6.49574e-09 -0.0415687)
(0.0800451 -0.0105607 -5.08669e-10 -0.0408359 -2.7359e-10 -0.0414724)
(0.0800565 -0.0113842 -2.73245e-10 -0.040544 -7.50587e-09 -0.0413913)
(0.0800684 -0.0119244 3.14269e-10 -0.0402474 -5.22046e-10 -0.0412717)
(0.0800901 -0.0119908 -1.23483e-11 -0.0399041 6.59476e-09 -0.0411667)
(0.0801182 -0.0116458 -5.34546e-10 -0.0394825 -2.16927e-09 -0.0410247)
(0.0801533 -0.0106302 9.32738e-11 -0.0389817 -6.67607e-09 -0.0408832)
(0.0801943 -0.00902681 4.47025e-10 -0.0382854 1.66672e-09 -0.040703)
(0.0802271 -0.00664235 -3.05034e-11 -0.0375304 6.54942e-09 -0.0404984)
(0.0802553 -0.00380457 -3.85488e-10 -0.0367318 5.21816e-10 -0.0402629)