/*--------------------------------*- C++ -*----------------------------------*\
| =========                 |                                                 |
| \\      /  F ield         | foam-extend: Open Source CFD                    |
|  \\    /   O peration     | Version:     4.1-20200408                       |
|   \\  /    A nd           | Web:         http://www.foam-extend.org         |
|    \\/     M anipulation  |                                                 |
\*---------------------------------------------------------------------------*/
FoamFile
{
    version     2.0;
    format      ascii;
    class       volScalarField;
    location    "0.0785000";
    object      epsilonPEq;
}
// * * * * * * * * * * * * * * * * * * * * * * * * * * * * * * * * * * * * * //

dimensions      [0 0 0 0 0 0 0];

internalField   nonuniform List<scalar> 
1952
(
0.105435
0.105566
0.105842
0.106115
0.106549
0.106968
0.107372
0.107487
0.107468
0.106861
0.105518
0.103274
0.100235
0.0980938
0.0968276
0.1053
0.105434
0.105565
0.105842
0.106115
0.106549
0.106968
0.107372
0.107487
0.107468
0.106862
0.105519
0.103274
0.100236
0.0980942
0.0968279
0.1053
0.105434
0.105565
0.105842
0.106115
0.10655
0.106968
0.107372
0.107487
0.107468
0.106862
0.105519
0.103275
0.100236
0.0980945
0.096828
0.1053
0.105435
0.105566
0.105842
0.106115
0.10655
0.106968
0.107373
0.107488
0.107469
0.106863
0.10552
0.103275
0.100236
0.0980949
0.0968281
0.1053
0.105435
0.105566
0.105843
0.106116
0.10655
0.106969
0.107373
0.107488
0.107469
0.106863
0.10552
0.103276
0.100237
0.0980947
0.0968279
0.105301
0.105436
0.105567
0.105844
0.106116
0.106551
0.106969
0.107374
0.107489
0.10747
0.106863
0.10552
0.103276
0.100237
0.0980947
0.0968276
0.105301
0.105436
0.105567
0.105844
0.106117
0.106551
0.10697
0.107374
0.107489
0.10747
0.106864
0.105521
0.103276
0.100237
0.0980942
0.0968269
0.105302
0.105437
0.105568
0.105844
0.106117
0.106552
0.10697
0.107375
0.10749
0.10747
0.106863
0.105521
0.103275
0.100236
0.0980938
0.0968267
0.105302
0.105438
0.105569
0.105845
0.106118
0.106552
0.10697
0.107374
0.107489
0.10747
0.106863
0.10552
0.103275
0.100236
0.0980935
0.0968265
0.105303
0.105438
0.105569
0.105845
0.106118
0.106552
0.10697
0.107374
0.107489
0.107469
0.106863
0.10552
0.103275
0.100236
0.0980933
0.0968263
0.105303
0.105438
0.105569
0.105845
0.106117
0.106552
0.10697
0.107374
0.107488
0.107469
0.106862
0.10552
0.103274
0.100235
0.0980931
0.0968263
0.105304
0.105437
0.105568
0.105845
0.106117
0.106552
0.10697
0.107374
0.107488
0.107469
0.106862
0.105519
0.103274
0.100235
0.0980929
0.0968264
0.105303
0.105437
0.105568
0.105844
0.106117
0.106551
0.106969
0.107373
0.107487
0.107468
0.106862
0.105519
0.103274
0.100235
0.0980929
0.0968265
0.105303
0.105436
0.105567
0.105843
0.106116
0.10655
0.106968
0.107372
0.107487
0.107468
0.106861
0.105519
0.103274
0.100235
0.0980931
0.0968269
0.105301
0.105435
0.105566
0.105842
0.106115
0.106549
0.106968
0.107372
0.107487
0.107468
0.106861
0.105518
0.103274
0.100235
0.0980935
0.0968273
0.105301
0.105434
0.105565
0.105842
0.106114
0.106549
0.106967
0.107371
0.107486
0.107468
0.106861
0.105518
0.103274
0.100235
0.0980939
0.0968272
0.1053
0.105433
0.105564
0.105841
0.106114
0.106548
0.106967
0.107371
0.107486
0.107468
0.106861
0.105519
0.103274
0.100236
0.0980942
0.0968271
0.105299
0.105432
0.105564
0.10584
0.106113
0.106548
0.106967
0.107371
0.107487
0.107468
0.106862
0.105519
0.103275
0.100236
0.0980932
0.0968261
0.105298
0.105432
0.105564
0.105841
0.106113
0.106548
0.106967
0.107372
0.107487
0.107468
0.106862
0.105519
0.103275
0.100236
0.0980924
0.0968249
0.105298
0.105433
0.105564
0.105841
0.106114
0.106548
0.106967
0.107372
0.107487
0.107468
0.106862
0.10552
0.103273
0.100233
0.0980913
0.0968244
0.105298
0.105433
0.105565
0.105841
0.106114
0.106549
0.106968
0.107372
0.107487
0.107467
0.10686
0.105517
0.103271
0.100232
0.0980908
0.0968248
0.105299
0.105434
0.105565
0.105842
0.106115
0.106548
0.106966
0.10737
0.107485
0.107466
0.106858
0.105515
0.103271
0.100232
0.0980912
0.0968253
0.1053
0.105433
0.105564
0.105841
0.106113
0.106548
0.106965
0.107369
0.107484
0.107465
0.106858
0.105516
0.103271
0.100233
0.0980916
0.0968254
0.105299
0.105433
0.105564
0.10584
0.106113
0.106547
0.106965
0.107369
0.107484
0.107466
0.106859
0.105516
0.103271
0.100233
0.0980914
0.0968255
0.105299
0.105433
0.105564
0.10584
0.106113
0.106547
0.106965
0.10737
0.107484
0.107465
0.106859
0.105516
0.103272
0.100233
0.0980916
0.0968257
0.105299
0.105432
0.105563
0.10584
0.106112
0.106547
0.106965
0.107369
0.107484
0.107466
0.106859
0.105517
0.103272
0.100233
0.0980923
0.0968263
0.105298
0.105431
0.105562
0.105839
0.106112
0.106547
0.106965
0.10737
0.107485
0.107466
0.106859
0.105517
0.103272
0.100234
0.0980927
0.0968268
0.105297
0.105431
0.105562
0.105839
0.106112
0.106547
0.106965
0.10737
0.107485
0.107466
0.10686
0.105517
0.103273
0.100235
0.0980934
0.0968269
0.105297
0.105431
0.105562
0.105839
0.106112
0.106547
0.106966
0.10737
0.107485
0.107467
0.106861
0.105519
0.103274
0.100236
0.0980937
0.0968269
0.105296
0.105431
0.105563
0.105839
0.106113
0.106548
0.106967
0.107371
0.107487
0.107468
0.106862
0.105519
0.103274
0.100236
0.0980934
0.0968266
0.105297
0.105433
0.105564
0.105841
0.106114
0.106548
0.106967
0.107372
0.107487
0.107468
0.106862
0.105519
0.103274
0.100236
0.0980936
0.0968266
0.105298
0.105434
0.105565
0.105842
0.106115
0.106549
0.106968
0.107372
0.107487
0.107469
0.106862
0.105519
0.103274
0.100235
0.0980935
0.0968267
0.105299
0.105435
0.105566
0.105843
0.106115
0.10655
0.106968
0.107373
0.107488
0.107468
0.106862
0.105519
0.103274
0.100236
0.0980934
0.0968265
0.105301
0.105436
0.105567
0.105844
0.106116
0.10655
0.106969
0.107373
0.107488
0.107469
0.106862
0.10552
0.103274
0.100235
0.0980935
0.0968264
0.105302
0.105437
0.105568
0.105844
0.106117
0.106551
0.106969
0.107373
0.107488
0.107469
0.106862
0.105519
0.103274
0.100235
0.098093
0.0968261
0.105303
0.105437
0.105568
0.105845
0.106117
0.106551
0.106969
0.107373
0.107488
0.107469
0.106862
0.105519
0.103274
0.100235
0.0980931
0.0968261
0.105303
0.105437
0.105568
0.105845
0.106117
0.106551
0.106969
0.107373
0.107488
0.107469
0.106862
0.105519
0.103274
0.100235
0.0980927
0.0968258
0.105303
0.105437
0.105568
0.105844
0.106117
0.106551
0.106969
0.107374
0.107488
0.107469
0.106862
0.105519
0.103274
0.100235
0.0980926
0.0968257
0.105303
0.105436
0.105567
0.105844
0.106117
0.106551
0.106969
0.107373
0.107488
0.107469
0.106862
0.105519
0.103274
0.100235
0.0980924
0.0968257
0.105302
0.105435
0.105566
0.105843
0.106116
0.10655
0.106968
0.107373
0.107488
0.107468
0.106861
0.105518
0.103274
0.100235
0.0980925
0.096826
0.105301
0.105435
0.105566
0.105842
0.106115
0.106549
0.106967
0.107372
0.107487
0.107468
0.106861
0.105518
0.103273
0.100234
0.0980926
0.0968263
0.1053
0.105433
0.105565
0.105841
0.106114
0.106549
0.106967
0.107371
0.107486
0.107467
0.106861
0.105518
0.103273
0.100235
0.0980932
0.0968269
0.105299
0.105433
0.105564
0.105841
0.106113
0.106548
0.106966
0.107371
0.107486
0.107467
0.106861
0.105518
0.103273
0.100235
0.0980935
0.0968273
0.105299
0.105432
0.105563
0.10584
0.106113
0.106548
0.106966
0.107371
0.107486
0.107467
0.106861
0.105518
0.103274
0.100235
0.0980938
0.0968275
0.105298
0.105432
0.105563
0.10584
0.106113
0.106547
0.106966
0.10737
0.107486
0.107467
0.106861
0.105519
0.103274
0.100235
0.0980938
0.0968274
0.105298
0.105432
0.105563
0.10584
0.106113
0.106548
0.106966
0.107371
0.107486
0.107467
0.106861
0.105519
0.103274
0.100236
0.0980938
0.0968272
0.105297
0.105432
0.105564
0.10584
0.106113
0.106548
0.106966
0.107371
0.107486
0.107468
0.106861
0.105519
0.103274
0.100235
0.0980937
0.096827
0.105298
0.105433
0.105564
0.105841
0.106114
0.106548
0.106967
0.107372
0.107487
0.107468
0.106861
0.105519
0.103274
0.100235
0.0980933
0.0968265
0.105298
0.105434
0.105565
0.105842
0.106114
0.106549
0.106967
0.107372
0.107487
0.107468
0.106862
0.105519
0.103274
0.100235
0.098093
0.09674
0.105299
0.105434
0.105565
0.105842
0.106115
0.106549
0.106968
0.107372
0.107487
0.107468
0.106861
0.105519
0.103274
0.100235
0.0980923
0.0964101
0.1053
0.105435
0.105566
0.105843
0.106115
0.106549
0.106968
0.107372
0.107487
0.107468
0.106861
0.105518
0.103273
0.100234
0.0978656
0.0955728
0.105301
0.105435
0.105566
0.105843
0.106115
0.10655
0.106968
0.107372
0.107487
0.107467
0.106861
0.105518
0.103273
0.100234
0.0971204
0.0939601
0.105301
0.105435
0.105566
0.105843
0.106115
0.106549
0.106968
0.107372
0.107486
0.107467
0.10686
0.105517
0.103062
0.0995627
0.0955735
0.0915111
0.105301
0.105435
0.105566
0.105842
0.106115
0.106549
0.106967
0.107371
0.107486
0.107261
0.106356
0.104685
0.101798
0.0978136
0.0931202
0.0883575
0.105301
0.105434
0.105565
0.105842
0.106114
0.106395
0.106597
0.106728
0.106543
0.105972
0.104672
0.102585
0.0992897
0.0949621
0.0898401
0.0846737
0.1053
0.10513
0.105155
0.105258
0.105313
0.105314
0.10518
0.104916
0.104327
0.103365
0.101695
0.0992688
0.0957033
0.0911934
0.085915
0.0806463
0.105036
0.103838
0.103699
0.103545
0.103292
0.10295
0.102448
0.101792
0.100832
0.0995254
0.0975765
0.0949237
0.091242
0.0867164
0.0815336
0.0764332
0.103814
0.101046
0.100748
0.100353
0.0998174
0.0991666
0.0983526
0.0973854
0.0961475
0.0945997
0.0924914
0.0897418
0.086093
0.0817017
0.0768145
0.0720916
0.101097
0.0964556
0.0960556
0.095505
0.0947874
0.0939417
0.09294
0.091796
0.0904173
0.0887602
0.0866214
0.0838989
0.0804104
0.0762723
0.0718226
0.0676244
0.0965637
0.0900318
0.0896128
0.0890253
0.088267
0.0873791
0.0863454
0.0851791
0.0838061
0.0821761
0.0801287
0.0775427
0.0743154
0.0705205
0.0666073
0.0630372
0.090163
0.082005
0.0816473
0.0811371
0.080474
0.0796906
0.0787722
0.0777259
0.0764901
0.0750073
0.0731542
0.0707954
0.0679065
0.064523
0.0612168
0.0583486
0.0821228
0.0728087
0.0725684
0.0722165
0.0717456
0.0711729
0.070477
0.0696557
0.0686535
0.0674079
0.0658253
0.063763
0.0612694
0.0583507
0.055703
0.0535902
0.0728848
0.0629905
0.0628882
0.0627268
0.0624887
0.0621739
0.0617506
0.0612073
0.0604892
0.0595322
0.0582648
0.0565455
0.0544852
0.0520726
0.0501217
0.0488038
0.0630119
0.0531177
0.0531376
0.053149
0.0531254
0.0530543
0.0528947
0.0526276
0.0521965
0.0515391
0.0505985
0.0492437
0.0476352
0.0457588
0.0445306
0.0440331
0.0530885
0.0436958
0.0437933
0.04392
0.0440462
0.0441547
0.0442001
0.0441609
0.0439774
0.0435934
0.0429597
0.0419663
0.0408077
0.039485
0.0389911
0.0393231
0.0436333
0.0351062
0.0352239
0.0353884
0.0355746
0.0357698
0.0359299
0.0360377
0.0360304
0.0358635
0.03549
0.0348314
0.0341011
0.0333343
0.0335668
0.0347115
0.0350348
0.0275735
0.0276588
0.0277882
0.0279456
0.0281305
0.0283056
0.028464
0.0285429
0.0285157
0.0283354
0.0279654
0.0276239
0.0273994
0.0283254
0.0302305
0.0275151
0.0211634
0.0211852
0.0212321
0.0212973
0.0213945
0.0214965
0.0216123
0.0216826
0.0217067
0.0216394
0.0214971
0.0214914
0.0217793
0.0233371
0.0259069
0.0211313
0.0158119
0.0157674
0.0157213
0.0156706
0.01564
0.0156116
0.0156124
0.0155906
0.0155789
0.0155394
0.0155526
0.0158183
0.0165678
0.0186609
0.0217557
0.0158072
0.0113738
0.0112844
0.0111688
0.01102
0.0108661
0.0106939
0.0105456
0.0103785
0.0102622
0.0101709
0.0102601
0.0107175
0.0118431
0.014328
0.0177728
0.0113882
0.00768576
0.00758204
0.00743748
0.00723604
0.00700137
0.00671727
0.00643318
0.00611351
0.00586138
0.00566531
0.005753
0.0063025
0.00766394
0.010331
0.013921
0.00770737
0.00458531
0.00448832
0.00434777
0.00413964
0.00388038
0.00354567
0.00318332
0.00276326
0.00241425
0.00214615
0.00219375
0.00272762
0.00410775
0.00666403
0.0101578
0.00460655
0.00191618
0.00184026
0.00173087
0.00156499
0.00135596
0.00107827
0.000772645
0.000418741
0.000139126
0
0
0.000394043
0.00141494
0.00346577
0.00657484
0.0019338
0
0
0
0
0
0
0
0
0
0
0
0
0
0.0011094
0.0034993
0
0
0
0
0
0
0
0
0
0
0
0
0
0
0
0.00126434
0
0
0
0
0
0
0
0
0
0
0
0
0
0
0
2.26369e-05
0
0
0
0
0
0
0
0
0
0
0
0
0
0
0
0
0
0
0
0
0
0
0
0
0
0
0
0
0
0
0
0
0
0
0
0
0
0
0
0
0
0
0
0
0
0
0
0
0
0
0
0
0
0
0
0
0
0
0
0
0
0
0
0
0
0
0
0
0
0
0
0
0
0
0
0
0
0
0
0
0
0
0
0
0
0
0
0
0
0
0
0
0
0
0
0
0
0
0
0
0
0
0
0
0
0
0
0
0
0
0
0
0
0
0
0
0
0
0
0
0
0
0
0
0
0
0
0
0
0
0
0
0
0
0
0
0
0
0
0
0
0
0
0
0
0
0
0
0
0
0
0
0
0
0
0
0
0
0
0
0
0
0
0
0
0
0
0
0
0
0
0
0
0
0
0
0
0
0
0
0
0
0
0
0
0
0
0
0
0
0
0
0
0
0
0
0
0
0
0
0
0
0
0
0
0
0
0
0
0
0
0
0
0
0
0
0
0
0
0
0
0
0
0
0
0
0
0
0
0
0
0
0
0
0
0
0
0
0
0
0
0
0
0
0
0
0
0
0
0
0
0
0
0
0
0
0
0
0
0
0
0
0
0
0
0
0
0
0
0
0
0
0
0
0
0
0
0
0
0
0
0
0
0
0
0
0
0
0
0
0
0
0
0
0
0
0
0
0
0
0
0
0
0
0
0
0
0
0
0
0
0
0
0
0
0
0
0
0
0
0
0
0
0
0
0
0
0
0
0
0
0
0
0
0
0
0
0
0
0
0
0
0
0
0
0
0
0
0
0
0
0
0
0
0
0
0
0
0
0
0
0
0
0
0
0
0
0
0
0
0
0
0
0
0
0
0
0
0
0
0
0
0
0
0
0
0
0
0
0
0
0
0
0
0
0
0
0
0
0
0
0
0
0
0
0
0
0
0
0
0
0
0
0
0
0
0
0
0
0
0
0
0
0
0
0
0
0
0
0
0
0
0
0
0
0
0
0
0
0
0
0
0
0
0
0
0
0
0
0
0
0
0
0
0
0
0
0
0
0
0
0
0
0
0
0
0
0
0
0
0
0
0
0
0
0
0
0
0
0
0
0
0
0
0
0
0
0
0
0
0
0
0
0
0
0
0
0
0
0
0
0
0
0
0
0
0
0
0
0
0
0
0
0
0
0
0
0
0
0
0
0
0
0
0
0
0
0
0
0
0
0
0
0
0
0
0
0
0
0
0
0
0
0
0
0
0
0
0
0
0
0
0
0
0
0
0
0
0
0
0
0
0
0
0
0
0
0
0
0
0
0
0
0
0
0
0
0
0
0
0
0
0
0
0
0
0
0
0
0
0
0
0
0
0
0
0
0
0
0
0
0
0
0
0
0
0
0
0
0
0
0
0
0
0
0
0
0
0
0
0
0
0
0
0
0
0
0
0
0
0
0
0
0
0
0
0
0
0
0
0
0
0
0
0
0
0
0
0
0
0
0
0
0
0
0
0
0
0
0
0
0
0
0
0
0
0
0
0
0
0
0
0
0
0
0
0
0
0
0
0
0
0
0
0
0
0
0
0
0
0
0
0
0
0
0
0
0
0
0
0
0
0
0
0
0
0
0
0
0
0
0
0
0
0
0
0
0
0
0
0
0
0
0
0
0
0
0
0
0
0
0
0
0
0
0
0
)
;

boundaryField
{
    wireUpstream
    {
        type            calculated;
        value           uniform 0;
    }
    wireDownstream
    {
        type            calculated;
        value           nonuniform List<scalar> 
16
(
0.105435
0.105566
0.105842
0.106115
0.106549
0.106968
0.107372
0.107487
0.107468
0.106861
0.105518
0.103274
0.100235
0.0980938
0.0968276
0.1053
)
;
    }
    wireTopContact
    {
        type            calculated;
        value           nonuniform List<scalar> 
122
(
0.0965085
0.0965085
0.0965086
0.0965084
0.0965081
0.0965075
0.0965072
0.0965071
0.0965069
0.0965069
0.0965069
0.0965071
0.0965074
0.0965079
0.0965077
0.0965076
0.0965067
0.0965055
0.0965049
0.0965054
0.0965059
0.0965059
0.0965061
0.0965063
0.0965068
0.0965073
0.0965075
0.0965074
0.0965071
0.0965072
0.0965073
0.0965071
0.096507
0.0965067
0.0965067
0.0965064
0.0965063
0.0965062
0.0965066
0.0965069
0.0965075
0.0965078
0.096508
0.0965079
0.0965078
0.0965076
0.0965071
0.0964327
0.0961058
0.0952605
0.0936302
0.0911631
0.0880108
0.084343
0.0803348
0.0761411
0.0718162
0.0673603
0.0627788
0.0580915
0.0533324
0.0485464
0.0437804
0.039082
0.0344908
0.0300388
0.025752
0.0216426
0.0177044
0.0138977
0.0101737
0.00661685
0.00354763
0.00128894
1.44297e-05
0
0
0
0
0
0
0
0
0
0
0
0
0
0
0
0
0
0
0
0
0
0
0
0
0
0
0
0
0
0
0
0
0
0
0
0
0
0
0
0
0
0
0
0
0
0
0.0965081
)
;
    }
    front
    {
        type            wedge;
    }
    back
    {
        type            wedge;
    }
}


// ************************************************************************* //
