/*--------------------------------*- C++ -*----------------------------------*\
| =========                 |                                                 |
| \\      /  F ield         | foam-extend: Open Source CFD                    |
|  \\    /   O peration     | Version:     4.1-20200408                       |
|   \\  /    A nd           | Web:         http://www.foam-extend.org         |
|    \\/     M anipulation  |                                                 |
\*---------------------------------------------------------------------------*/
FoamFile
{
    version     2.0;
    format      ascii;
    class       volVectorField;
    location    "0.0785000";
    object      U_0_0;
}
// * * * * * * * * * * * * * * * * * * * * * * * * * * * * * * * * * * * * * //

dimensions      [0 1 0 0 0 0 0];

internalField   nonuniform List<vector> 
1952
(
(0.0759635 -2.92938e-06 0)
(0.0759631 -4.76486e-06 0)
(0.0759627 -6.62213e-06 0)
(0.075962 -8.47564e-06 0)
(0.0759613 -1.03311e-05 0)
(0.0759605 -1.21703e-05 0)
(0.0759596 -1.40097e-05 0)
(0.0759586 -1.58249e-05 0)
(0.0759576 -1.76388e-05 0)
(0.0759567 -1.94229e-05 0)
(0.0759558 -2.11984e-05 0)
(0.075955 -2.29363e-05 0)
(0.0759544 -2.46464e-05 0)
(0.0759541 -2.63157e-05 0)
(0.075954 -2.79534e-05 0)
(0.0759636 -1.25527e-06 0)
(0.0759597 -2.93088e-06 0)
(0.0759594 -4.76733e-06 0)
(0.0759589 -6.62556e-06 0)
(0.0759583 -8.4801e-06 0)
(0.0759576 -1.03365e-05 0)
(0.0759567 -1.21769e-05 0)
(0.0759558 -1.40173e-05 0)
(0.0759548 -1.58337e-05 0)
(0.0759539 -1.76488e-05 0)
(0.0759529 -1.94341e-05 0)
(0.075952 -2.12108e-05 0)
(0.0759512 -2.29501e-05 0)
(0.0759506 -2.46615e-05 0)
(0.0759503 -2.63322e-05 0)
(0.0759502 -2.79712e-05 0)
(0.0759598 -1.25592e-06 0)
(0.0759559 -2.9326e-06 0)
(0.0759556 -4.77013e-06 0)
(0.0759551 -6.62946e-06 0)
(0.0759545 -8.48514e-06 0)
(0.0759538 -1.03427e-05 0)
(0.0759529 -1.21842e-05 0)
(0.075952 -1.40259e-05 0)
(0.0759511 -1.58435e-05 0)
(0.0759501 -1.76598e-05 0)
(0.0759491 -1.94465e-05 0)
(0.0759482 -2.12245e-05 0)
(0.0759474 -2.29653e-05 0)
(0.0759468 -2.4678e-05 0)
(0.0759465 -2.63501e-05 0)
(0.0759464 -2.79904e-05 0)
(0.075956 -1.25665e-06 0)
(0.0759522 -2.93447e-06 0)
(0.0759518 -4.77318e-06 0)
(0.0759514 -6.63371e-06 0)
(0.0759507 -8.49063e-06 0)
(0.07595 -1.03494e-05 0)
(0.0759492 -1.21922e-05 0)
(0.0759483 -1.40351e-05 0)
(0.0759473 -1.58541e-05 0)
(0.0759463 -1.76718e-05 0)
(0.0759453 -1.94599e-05 0)
(0.0759444 -2.12393e-05 0)
(0.0759437 -2.29814e-05 0)
(0.075943 -2.46955e-05 0)
(0.0759427 -2.6369e-05 0)
(0.0759426 -2.80105e-05 0)
(0.0759523 -1.25746e-06 0)
(0.0759484 -2.93647e-06 0)
(0.075948 -4.77643e-06 0)
(0.0759476 -6.63825e-06 0)
(0.075947 -8.49651e-06 0)
(0.0759462 -1.03566e-05 0)
(0.0759454 -1.22008e-05 0)
(0.0759445 -1.40451e-05 0)
(0.0759435 -1.58654e-05 0)
(0.0759425 -1.76845e-05 0)
(0.0759416 -1.94741e-05 0)
(0.0759406 -2.12548e-05 0)
(0.0759399 -2.29984e-05 0)
(0.0759393 -2.47138e-05 0)
(0.0759389 -2.63886e-05 0)
(0.0759388 -2.80313e-05 0)
(0.0759485 -1.25831e-06 0)
(0.0759446 -2.93859e-06 0)
(0.0759443 -4.77989e-06 0)
(0.0759438 -6.64306e-06 0)
(0.0759432 -8.5027e-06 0)
(0.0759425 -1.03642e-05 0)
(0.0759416 -1.22098e-05 0)
(0.0759407 -1.40554e-05 0)
(0.0759397 -1.58772e-05 0)
(0.0759387 -1.76977e-05 0)
(0.0759378 -1.94887e-05 0)
(0.0759369 -2.12708e-05 0)
(0.0759361 -2.30158e-05 0)
(0.0759355 -2.47325e-05 0)
(0.0759351 -2.64087e-05 0)
(0.075935 -2.80526e-05 0)
(0.0759447 -1.25922e-06 0)
(0.0759408 -2.94078e-06 0)
(0.0759405 -4.78348e-06 0)
(0.07594 -6.64805e-06 0)
(0.0759394 -8.50912e-06 0)
(0.0759387 -1.0372e-05 0)
(0.0759378 -1.22191e-05 0)
(0.0759369 -1.40661e-05 0)
(0.0759359 -1.58894e-05 0)
(0.075935 -1.77113e-05 0)
(0.075934 -1.95038e-05 0)
(0.0759331 -2.12872e-05 0)
(0.0759323 -2.30336e-05 0)
(0.0759317 -2.47517e-05 0)
(0.0759313 -2.64291e-05 0)
(0.0759313 -2.80743e-05 0)
(0.0759409 -1.26016e-06 0)
(0.075937 -2.94305e-06 0)
(0.0759367 -4.78716e-06 0)
(0.0759362 -6.65317e-06 0)
(0.0759356 -8.51571e-06 0)
(0.0759349 -1.038e-05 0)
(0.075934 -1.22286e-05 0)
(0.0759331 -1.40771e-05 0)
(0.0759321 -1.59018e-05 0)
(0.0759312 -1.77251e-05 0)
(0.0759302 -1.9519e-05 0)
(0.0759293 -2.13039e-05 0)
(0.0759285 -2.30516e-05 0)
(0.0759279 -2.4771e-05 0)
(0.0759276 -2.64497e-05 0)
(0.0759275 -2.80962e-05 0)
(0.0759372 -1.26113e-06 0)
(0.0759332 -2.94535e-06 0)
(0.0759329 -4.79092e-06 0)
(0.0759324 -6.65838e-06 0)
(0.0759318 -8.5224e-06 0)
(0.0759311 -1.03882e-05 0)
(0.0759302 -1.22382e-05 0)
(0.0759293 -1.40881e-05 0)
(0.0759284 -1.59143e-05 0)
(0.0759274 -1.7739e-05 0)
(0.0759264 -1.95344e-05 0)
(0.0759255 -2.13206e-05 0)
(0.0759247 -2.30698e-05 0)
(0.0759241 -2.47905e-05 0)
(0.0759238 -2.64705e-05 0)
(0.0759237 -2.81183e-05 0)
(0.0759334 -1.26212e-06 0)
(0.0759295 -2.94768e-06 0)
(0.0759291 -4.7947e-06 0)
(0.0759286 -6.66363e-06 0)
(0.075928 -8.52915e-06 0)
(0.0759273 -1.03964e-05 0)
(0.0759264 -1.22479e-05 0)
(0.0759255 -1.40993e-05 0)
(0.0759246 -1.5927e-05 0)
(0.0759236 -1.77531e-05 0)
(0.0759226 -1.95499e-05 0)
(0.0759217 -2.13374e-05 0)
(0.0759209 -2.3088e-05 0)
(0.0759203 -2.481e-05 0)
(0.07592 -2.64914e-05 0)
(0.0759199 -2.81405e-05 0)
(0.0759296 -1.26312e-06 0)
(0.0759257 -2.95002e-06 0)
(0.0759253 -4.79851e-06 0)
(0.0759249 -6.6689e-06 0)
(0.0759242 -8.53591e-06 0)
(0.0759235 -1.04046e-05 0)
(0.0759226 -1.22576e-05 0)
(0.0759217 -1.41104e-05 0)
(0.0759208 -1.59395e-05 0)
(0.0759198 -1.77671e-05 0)
(0.0759188 -1.95654e-05 0)
(0.0759179 -2.13543e-05 0)
(0.0759171 -2.31062e-05 0)
(0.0759165 -2.48295e-05 0)
(0.0759162 -2.65123e-05 0)
(0.0759161 -2.81627e-05 0)
(0.0759258 -1.26412e-06 0)
(0.0759219 -2.95233e-06 0)
(0.0759215 -4.80227e-06 0)
(0.0759211 -6.67414e-06 0)
(0.0759204 -8.54266e-06 0)
(0.0759197 -1.04128e-05 0)
(0.0759188 -1.22673e-05 0)
(0.0759179 -1.41215e-05 0)
(0.075917 -1.59521e-05 0)
(0.075916 -1.7781e-05 0)
(0.075915 -1.95808e-05 0)
(0.0759141 -2.13711e-05 0)
(0.0759133 -2.31245e-05 0)
(0.0759127 -2.48491e-05 0)
(0.0759123 -2.65332e-05 0)
(0.0759123 -2.8185e-05 0)
(0.075922 -1.26512e-06 0)
(0.0759181 -2.95465e-06 0)
(0.0759177 -4.80605e-06 0)
(0.0759172 -6.67937e-06 0)
(0.0759166 -8.54936e-06 0)
(0.0759159 -1.04209e-05 0)
(0.075915 -1.2277e-05 0)
(0.0759141 -1.41325e-05 0)
(0.0759132 -1.59647e-05 0)
(0.0759122 -1.7795e-05 0)
(0.0759112 -1.95962e-05 0)
(0.0759103 -2.13878e-05 0)
(0.0759095 -2.31426e-05 0)
(0.0759089 -2.48686e-05 0)
(0.0759085 -2.65541e-05 0)
(0.0759084 -2.82072e-05 0)
(0.0759182 -1.26611e-06 0)
(0.0759143 -2.95694e-06 0)
(0.0759139 -4.80977e-06 0)
(0.0759134 -6.68454e-06 0)
(0.0759128 -8.55602e-06 0)
(0.0759121 -1.0429e-05 0)
(0.0759112 -1.22865e-05 0)
(0.0759103 -1.41435e-05 0)
(0.0759093 -1.59771e-05 0)
(0.0759083 -1.78088e-05 0)
(0.0759074 -1.96115e-05 0)
(0.0759065 -2.14045e-05 0)
(0.0759057 -2.31607e-05 0)
(0.0759051 -2.48881e-05 0)
(0.0759047 -2.6575e-05 0)
(0.0759046 -2.82294e-05 0)
(0.0759144 -1.26709e-06 0)
(0.0759104 -2.9592e-06 0)
(0.0759101 -4.81346e-06 0)
(0.0759096 -6.68965e-06 0)
(0.075909 -8.5626e-06 0)
(0.0759083 -1.0437e-05 0)
(0.0759074 -1.2296e-05 0)
(0.0759065 -1.41544e-05 0)
(0.0759055 -1.59894e-05 0)
(0.0759045 -1.78225e-05 0)
(0.0759036 -1.96267e-05 0)
(0.0759026 -2.1421e-05 0)
(0.0759019 -2.31787e-05 0)
(0.0759013 -2.49074e-05 0)
(0.0759009 -2.65957e-05 0)
(0.0759008 -2.82515e-05 0)
(0.0759106 -1.26806e-06 0)
(0.0759066 -2.96144e-06 0)
(0.0759063 -4.81711e-06 0)
(0.0759058 -6.69472e-06 0)
(0.0759052 -8.56911e-06 0)
(0.0759045 -1.04449e-05 0)
(0.0759036 -1.23054e-05 0)
(0.0759027 -1.41651e-05 0)
(0.0759017 -1.60017e-05 0)
(0.0759007 -1.78361e-05 0)
(0.0758997 -1.96418e-05 0)
(0.0758988 -2.14375e-05 0)
(0.075898 -2.31966e-05 0)
(0.0758974 -2.49266e-05 0)
(0.0758971 -2.66164e-05 0)
(0.075897 -2.82735e-05 0)
(0.0759067 -1.26902e-06 0)
(0.0759028 -2.96365e-06 0)
(0.0759025 -4.82071e-06 0)
(0.075902 -6.69971e-06 0)
(0.0759014 -8.57554e-06 0)
(0.0759006 -1.04527e-05 0)
(0.0758998 -1.23147e-05 0)
(0.0758989 -1.41758e-05 0)
(0.0758979 -1.60138e-05 0)
(0.0758969 -1.78496e-05 0)
(0.0758959 -1.96567e-05 0)
(0.075895 -2.14537e-05 0)
(0.0758942 -2.32142e-05 0)
(0.0758936 -2.49457e-05 0)
(0.0758933 -2.66368e-05 0)
(0.0758932 -2.82954e-05 0)
(0.0759029 -1.26997e-06 0)
(0.075899 -2.96584e-06 0)
(0.0758986 -4.82428e-06 0)
(0.0758982 -6.70465e-06 0)
(0.0758976 -8.58189e-06 0)
(0.0758968 -1.04604e-05 0)
(0.075896 -1.23238e-05 0)
(0.0758951 -1.41862e-05 0)
(0.0758941 -1.60257e-05 0)
(0.0758931 -1.78628e-05 0)
(0.0758921 -1.96714e-05 0)
(0.0758912 -2.14698e-05 0)
(0.0758904 -2.32317e-05 0)
(0.0758898 -2.49646e-05 0)
(0.0758894 -2.66571e-05 0)
(0.0758894 -2.83171e-05 0)
(0.0758991 -1.27091e-06 0)
(0.0758952 -2.96798e-06 0)
(0.0758948 -4.82775e-06 0)
(0.0758944 -6.70947e-06 0)
(0.0758937 -8.58812e-06 0)
(0.075893 -1.0468e-05 0)
(0.0758921 -1.23328e-05 0)
(0.0758912 -1.41965e-05 0)
(0.0758902 -1.60374e-05 0)
(0.0758893 -1.78759e-05 0)
(0.0758883 -1.9686e-05 0)
(0.0758874 -2.14857e-05 0)
(0.0758866 -2.32491e-05 0)
(0.075886 -2.49832e-05 0)
(0.0758856 -2.66772e-05 0)
(0.0758855 -2.83386e-05 0)
(0.0758953 -1.27182e-06 0)
(0.0758913 -2.97008e-06 0)
(0.075891 -4.83118e-06 0)
(0.0758905 -6.71422e-06 0)
(0.0758899 -8.59424e-06 0)
(0.0758892 -1.04754e-05 0)
(0.0758883 -1.23416e-05 0)
(0.0758874 -1.42066e-05 0)
(0.0758864 -1.6049e-05 0)
(0.0758854 -1.78888e-05 0)
(0.0758844 -1.97003e-05 0)
(0.0758835 -2.15013e-05 0)
(0.0758827 -2.32662e-05 0)
(0.0758821 -2.50017e-05 0)
(0.0758818 -2.66971e-05 0)
(0.0758817 -2.836e-05 0)
(0.0758915 -1.27273e-06 0)
(0.0758875 -2.97214e-06 0)
(0.0758872 -4.83454e-06 0)
(0.0758867 -6.71888e-06 0)
(0.0758861 -8.60025e-06 0)
(0.0758853 -1.04827e-05 0)
(0.0758845 -1.23503e-05 0)
(0.0758836 -1.42166e-05 0)
(0.0758826 -1.60604e-05 0)
(0.0758816 -1.79015e-05 0)
(0.0758806 -1.97144e-05 0)
(0.0758797 -2.15168e-05 0)
(0.0758789 -2.32831e-05 0)
(0.0758783 -2.502e-05 0)
(0.075878 -2.67169e-05 0)
(0.0758779 -2.83813e-05 0)
(0.0758876 -1.27361e-06 0)
(0.0758837 -2.97415e-06 0)
(0.0758833 -4.83783e-06 0)
(0.0758829 -6.72343e-06 0)
(0.0758822 -8.60614e-06 0)
(0.0758815 -1.04898e-05 0)
(0.0758807 -1.23588e-05 0)
(0.0758797 -1.42264e-05 0)
(0.0758788 -1.60716e-05 0)
(0.0758778 -1.79139e-05 0)
(0.0758768 -1.97284e-05 0)
(0.0758759 -2.1532e-05 0)
(0.0758751 -2.32998e-05 0)
(0.0758745 -2.50382e-05 0)
(0.0758741 -2.67366e-05 0)
(0.075874 -2.84025e-05 0)
(0.0758838 -1.27447e-06 0)
(0.0758799 -2.97613e-06 0)
(0.0758795 -4.84105e-06 0)
(0.075879 -6.7279e-06 0)
(0.0758784 -8.61193e-06 0)
(0.0758777 -1.04969e-05 0)
(0.0758768 -1.23673e-05 0)
(0.0758759 -1.4236e-05 0)
(0.0758749 -1.60826e-05 0)
(0.0758739 -1.79263e-05 0)
(0.0758729 -1.97422e-05 0)
(0.075872 -2.15472e-05 0)
(0.0758712 -2.33165e-05 0)
(0.0758706 -2.50563e-05 0)
(0.0758703 -2.67562e-05 0)
(0.0758702 -2.84236e-05 0)
(0.07588 -1.27532e-06 0)
(0.075876 -2.97808e-06 0)
(0.0758757 -4.84424e-06 0)
(0.0758752 -6.73231e-06 0)
(0.0758746 -8.61766e-06 0)
(0.0758738 -1.05038e-05 0)
(0.075873 -1.23756e-05 0)
(0.0758721 -1.42455e-05 0)
(0.0758711 -1.60936e-05 0)
(0.0758701 -1.79385e-05 0)
(0.0758691 -1.97559e-05 0)
(0.0758682 -2.15622e-05 0)
(0.0758674 -2.33331e-05 0)
(0.0758668 -2.50743e-05 0)
(0.0758664 -2.67758e-05 0)
(0.0758663 -2.84448e-05 0)
(0.0758761 -1.27616e-06 0)
(0.0758722 -2.98003e-06 0)
(0.0758718 -4.84743e-06 0)
(0.0758714 -6.73672e-06 0)
(0.0758707 -8.62338e-06 0)
(0.07587 -1.05107e-05 0)
(0.0758691 -1.23839e-05 0)
(0.0758682 -1.4255e-05 0)
(0.0758672 -1.61046e-05 0)
(0.0758662 -1.79507e-05 0)
(0.0758652 -1.97696e-05 0)
(0.0758643 -2.15773e-05 0)
(0.0758635 -2.33497e-05 0)
(0.0758629 -2.50924e-05 0)
(0.0758626 -2.67954e-05 0)
(0.0758625 -2.84661e-05 0)
(0.0758723 -1.277e-06 0)
(0.0758683 -2.98199e-06 0)
(0.075868 -4.85062e-06 0)
(0.0758675 -6.74114e-06 0)
(0.0758669 -8.62913e-06 0)
(0.0758662 -1.05177e-05 0)
(0.0758653 -1.23922e-05 0)
(0.0758644 -1.42645e-05 0)
(0.0758634 -1.61156e-05 0)
(0.0758624 -1.79629e-05 0)
(0.0758614 -1.97835e-05 0)
(0.0758605 -2.15924e-05 0)
(0.0758597 -2.33664e-05 0)
(0.0758591 -2.51106e-05 0)
(0.0758587 -2.68152e-05 0)
(0.0758586 -2.84875e-05 0)
(0.0758685 -1.27784e-06 0)
(0.0758645 -2.98401e-06 0)
(0.0758641 -4.85392e-06 0)
(0.0758637 -6.7457e-06 0)
(0.075863 -8.63504e-06 0)
(0.0758623 -1.05248e-05 0)
(0.0758615 -1.24008e-05 0)
(0.0758605 -1.42743e-05 0)
(0.0758595 -1.61268e-05 0)
(0.0758585 -1.79754e-05 0)
(0.0758575 -1.97974e-05 0)
(0.0758566 -2.16077e-05 0)
(0.0758558 -2.33833e-05 0)
(0.0758552 -2.5129e-05 0)
(0.0758549 -2.68352e-05 0)
(0.0758548 -2.85092e-05 0)
(0.0758646 -1.2787e-06 0)
(0.0758607 -2.98613e-06 0)
(0.0758603 -4.85738e-06 0)
(0.0758598 -6.75045e-06 0)
(0.0758592 -8.64119e-06 0)
(0.0758585 -1.05322e-05 0)
(0.0758576 -1.24096e-05 0)
(0.0758567 -1.42843e-05 0)
(0.0758557 -1.61383e-05 0)
(0.0758547 -1.79881e-05 0)
(0.0758537 -1.98117e-05 0)
(0.0758528 -2.16234e-05 0)
(0.075852 -2.34005e-05 0)
(0.0758514 -2.51477e-05 0)
(0.075851 -2.68556e-05 0)
(0.0758509 -2.85312e-05 0)
(0.0758608 -1.27961e-06 0)
(0.0758568 -2.98836e-06 0)
(0.0758565 -4.86101e-06 0)
(0.075856 -6.75545e-06 0)
(0.0758553 -8.64768e-06 0)
(0.0758546 -1.05399e-05 0)
(0.0758537 -1.24189e-05 0)
(0.0758528 -1.42948e-05 0)
(0.0758518 -1.61504e-05 0)
(0.0758508 -1.80014e-05 0)
(0.0758498 -1.98266e-05 0)
(0.0758489 -2.16395e-05 0)
(0.0758481 -2.34182e-05 0)
(0.0758475 -2.51669e-05 0)
(0.0758471 -2.68765e-05 0)
(0.0758471 -2.85538e-05 0)
(0.0758569 -1.28057e-06 0)
(0.075853 -2.99081e-06 0)
(0.0758526 -4.865e-06 0)
(0.0758521 -6.76091e-06 0)
(0.0758515 -8.65471e-06 0)
(0.0758508 -1.05483e-05 0)
(0.0758499 -1.24289e-05 0)
(0.075849 -1.43059e-05 0)
(0.075848 -1.61631e-05 0)
(0.075847 -1.80153e-05 0)
(0.075846 -1.98421e-05 0)
(0.075845 -2.16563e-05 0)
(0.0758443 -2.34366e-05 0)
(0.0758436 -2.51868e-05 0)
(0.0758433 -2.6898e-05 0)
(0.0758432 -2.85771e-05 0)
(0.0758531 -1.28162e-06 0)
(0.0758491 -2.99352e-06 0)
(0.0758487 -4.8694e-06 0)
(0.0758483 -6.76692e-06 0)
(0.0758476 -8.66244e-06 0)
(0.0758469 -1.05574e-05 0)
(0.075846 -1.24397e-05 0)
(0.0758451 -1.4318e-05 0)
(0.0758441 -1.61769e-05 0)
(0.0758431 -1.80302e-05 0)
(0.0758421 -1.98587e-05 0)
(0.0758412 -2.16741e-05 0)
(0.0758404 -2.3456e-05 0)
(0.0758398 -2.52076e-05 0)
(0.0758394 -2.69205e-05 0)
(0.0758393 -2.86014e-05 0)
(0.0758492 -1.28278e-06 0)
(0.0758452 -2.99658e-06 0)
(0.0758449 -4.87436e-06 0)
(0.0758444 -6.77369e-06 0)
(0.0758438 -8.67112e-06 0)
(0.075843 -1.05677e-05 0)
(0.0758422 -1.24518e-05 0)
(0.0758413 -1.43315e-05 0)
(0.0758403 -1.61921e-05 0)
(0.0758392 -1.80466e-05 0)
(0.0758382 -1.98766e-05 0)
(0.0758373 -2.16932e-05 0)
(0.0758365 -2.34767e-05 0)
(0.0758359 -2.52298e-05 0)
(0.0758355 -2.69443e-05 0)
(0.0758354 -2.86269e-05 0)
(0.0758454 -1.2841e-06 0)
(0.0758414 -3.00013e-06 0)
(0.075841 -4.8801e-06 0)
(0.0758406 -6.7815e-06 0)
(0.0758399 -8.68108e-06 0)
(0.0758392 -1.05794e-05 0)
(0.0758383 -1.24656e-05 0)
(0.0758374 -1.43466e-05 0)
(0.0758364 -1.6209e-05 0)
(0.0758354 -1.80647e-05 0)
(0.0758344 -1.98964e-05 0)
(0.0758334 -2.17142e-05 0)
(0.0758326 -2.34992e-05 0)
(0.075832 -2.52537e-05 0)
(0.0758317 -2.69697e-05 0)
(0.0758316 -2.86543e-05 0)
(0.0758415 -1.28562e-06 0)
(0.0758375 -3.00427e-06 0)
(0.0758372 -4.8868e-06 0)
(0.0758367 -6.7906e-06 0)
(0.0758361 -8.69267e-06 0)
(0.0758353 -1.0593e-05 0)
(0.0758345 -1.24814e-05 0)
(0.0758335 -1.4364e-05 0)
(0.0758325 -1.62284e-05 0)
(0.0758315 -1.80853e-05 0)
(0.0758305 -1.99187e-05 0)
(0.0758296 -2.17376e-05 0)
(0.0758288 -2.35241e-05 0)
(0.0758281 -2.52799e-05 0)
(0.0758278 -2.69975e-05 0)
(0.0758277 -2.86838e-05 0)
(0.0758376 -1.2874e-06 0)
(0.0758337 -3.0092e-06 0)
(0.0758333 -4.89475e-06 0)
(0.0758328 -6.8014e-06 0)
(0.0758322 -8.70637e-06 0)
(0.0758314 -1.06091e-05 0)
(0.0758306 -1.25001e-05 0)
(0.0758296 -1.43844e-05 0)
(0.0758286 -1.6251e-05 0)
(0.0758276 -1.81091e-05 0)
(0.0758266 -1.99443e-05 0)
(0.0758257 -2.17642e-05 0)
(0.0758249 -2.35522e-05 0)
(0.0758242 -2.53092e-05 0)
(0.0758239 -2.70283e-05 0)
(0.0758238 -2.87164e-05 0)
(0.0758338 -1.28951e-06 0)
(0.0758298 -3.01511e-06 0)
(0.0758294 -4.90429e-06 0)
(0.075829 -6.81435e-06 0)
(0.0758283 -8.72276e-06 0)
(0.0758276 -1.06283e-05 0)
(0.0758267 -1.25223e-05 0)
(0.0758258 -1.44086e-05 0)
(0.0758248 -1.62777e-05 0)
(0.0758238 -1.81372e-05 0)
(0.0758228 -1.99742e-05 0)
(0.0758218 -2.1795e-05 0)
(0.075821 -2.35844e-05 0)
(0.0758204 -2.53425e-05 0)
(0.07582 -2.70629e-05 0)
(0.0758199 -2.87528e-05 0)
(0.0758299 -1.29205e-06 0)
(0.0758259 -3.02224e-06 0)
(0.0758256 -4.91579e-06 0)
(0.0758251 -6.82997e-06 0)
(0.0758244 -8.7425e-06 0)
(0.0758237 -1.06514e-05 0)
(0.0758228 -1.2549e-05 0)
(0.0758219 -1.44377e-05 0)
(0.0758209 -1.63096e-05 0)
(0.0758199 -1.81706e-05 0)
(0.0758189 -2.00096e-05 0)
(0.0758179 -2.18313e-05 0)
(0.0758171 -2.3622e-05 0)
(0.0758165 -2.53809e-05 0)
(0.0758161 -2.71025e-05 0)
(0.075816 -2.8794e-05 0)
(0.075826 -1.29511e-06 0)
(0.075822 -3.03085e-06 0)
(0.0758217 -4.92969e-06 0)
(0.0758212 -6.84886e-06 0)
(0.0758206 -8.76634e-06 0)
(0.0758198 -1.06794e-05 0)
(0.0758189 -1.25812e-05 0)
(0.075818 -1.44729e-05 0)
(0.075817 -1.63481e-05 0)
(0.075816 -1.82107e-05 0)
(0.075815 -2.0052e-05 0)
(0.075814 -2.18744e-05 0)
(0.0758132 -2.36664e-05 0)
(0.0758126 -2.54259e-05 0)
(0.0758122 -2.71484e-05 0)
(0.0758121 -2.88413e-05 0)
(0.0758221 -1.2988e-06 0)
(0.0758181 -3.04122e-06 0)
(0.0758178 -4.94643e-06 0)
(0.0758173 -6.87167e-06 0)
(0.0758167 -8.79513e-06 0)
(0.0758159 -1.07132e-05 0)
(0.0758151 -1.26202e-05 0)
(0.0758141 -1.45156e-05 0)
(0.0758131 -1.63946e-05 0)
(0.0758121 -1.82594e-05 0)
(0.0758111 -2.01032e-05 0)
(0.0758101 -2.19263e-05 0)
(0.0758093 -2.37195e-05 0)
(0.0758087 -2.54793e-05 0)
(0.0758083 -2.72023e-05 0)
(0.0758082 -2.88964e-05 0)
(0.0758182 -1.30325e-06 0)
(0.0758142 -3.05365e-06 0)
(0.0758139 -4.96651e-06 0)
(0.0758134 -6.89906e-06 0)
(0.0758128 -8.8297e-06 0)
(0.075812 -1.0754e-05 0)
(0.0758112 -1.26671e-05 0)
(0.0758102 -1.45671e-05 0)
(0.0758092 -1.64509e-05 0)
(0.0758082 -1.83183e-05 0)
(0.0758072 -2.01652e-05 0)
(0.0758063 -2.19892e-05 0)
(0.0758054 -2.37836e-05 0)
(0.0758048 -2.55432e-05 0)
(0.0758044 -2.72664e-05 0)
(0.0758042 -2.89613e-05 0)
(0.0758143 -1.30859e-06 0)
(0.0758103 -3.06839e-06 0)
(0.0758099 -4.99033e-06 0)
(0.0758095 -6.93162e-06 0)
(0.0758088 -8.87086e-06 0)
(0.0758081 -1.08028e-05 0)
(0.0758073 -1.27233e-05 0)
(0.0758063 -1.46291e-05 0)
(0.0758053 -1.65188e-05 0)
(0.0758043 -1.83897e-05 0)
(0.0758033 -2.02404e-05 0)
(0.0758024 -2.20654e-05 0)
(0.0758015 -2.38614e-05 0)
(0.0758009 -2.56206e-05 0)
(0.0758005 -2.73436e-05 0)
(0.0758003 -2.90385e-05 0)
(0.0758104 -1.31491e-06 0)
(0.0758063 -3.08563e-06 0)
(0.075806 -5.01821e-06 0)
(0.0758055 -6.96986e-06 0)
(0.0758049 -8.91928e-06 0)
(0.0758042 -1.08604e-05 0)
(0.0758033 -1.279e-05 0)
(0.0758024 -1.47031e-05 0)
(0.0758014 -1.66e-05 0)
(0.0758004 -1.84757e-05 0)
(0.0757994 -2.03314e-05 0)
(0.0757985 -2.21582e-05 0)
(0.0757976 -2.39563e-05 0)
(0.075797 -2.57146e-05 0)
(0.0757966 -2.7437e-05 0)
(0.0757964 -2.9131e-05 0)
(0.0758065 -1.3223e-06 0)
(0.0758024 -3.10549e-06 0)
(0.075802 -5.05039e-06 0)
(0.0758016 -7.01411e-06 0)
(0.075801 -8.97542e-06 0)
(0.0758002 -1.09275e-05 0)
(0.0757994 -1.28679e-05 0)
(0.0757985 -1.47901e-05 0)
(0.0757975 -1.66963e-05 0)
(0.0757965 -1.85783e-05 0)
(0.0757955 -2.04409e-05 0)
(0.0757946 -2.22707e-05 0)
(0.0757937 -2.40722e-05 0)
(0.0757931 -2.58301e-05 0)
(0.0757926 -2.75517e-05 0)
(0.0757925 -2.92435e-05 0)
(0.0758025 -1.33082e-06 0)
(0.0757984 -3.12794e-06 0)
(0.0757981 -5.08681e-06 0)
(0.0757976 -7.06432e-06 0)
(0.075797 -9.0393e-06 0)
(0.0757963 -1.10043e-05 0)
(0.0757954 -1.29574e-05 0)
(0.0757945 -1.48909e-05 0)
(0.0757936 -1.68084e-05 0)
(0.0757926 -1.86992e-05 0)
(0.0757916 -2.05712e-05 0)
(0.0757906 -2.24063e-05 0)
(0.0757898 -2.42142e-05 0)
(0.0757892 -2.59739e-05 0)
(0.0757887 -2.76972e-05 0)
(0.0757885 -2.93877e-05 0)
(0.0757985 -1.34044e-06 0)
(0.0757944 -3.15274e-06 0)
(0.075794 -5.12708e-06 0)
(0.0757936 -7.12002e-06 0)
(0.075793 -9.11033e-06 0)
(0.0757923 -1.10901e-05 0)
(0.0757915 -1.30579e-05 0)
(0.0757906 -1.50048e-05 0)
(0.0757896 -1.6936e-05 0)
(0.0757886 -1.88382e-05 0)
(0.0757876 -2.07229e-05 0)
(0.0757867 -2.25667e-05 0)
(0.0757859 -2.43856e-05 0)
(0.0757852 -2.61517e-05 0)
(0.0757848 -2.78835e-05 0)
(0.0757846 -2.95797e-05 0)
(0.0757945 -1.35107e-06 0)
(0.0757903 -3.17942e-06 0)
(0.07579 -5.17046e-06 0)
(0.0757895 -7.18016e-06 0)
(0.075789 -9.18719e-06 0)
(0.0757883 -1.11834e-05 0)
(0.0757875 -1.31675e-05 0)
(0.0757866 -1.513e-05 0)
(0.0757856 -1.7077e-05 0)
(0.0757847 -1.89932e-05 0)
(0.0757837 -2.08933e-05 0)
(0.0757828 -2.27489e-05 0)
(0.075782 -2.4583e-05 0)
(0.0757813 -2.63595e-05 0)
(0.0757809 -2.81059e-05 0)
(0.0757807 -2.98137e-05 0)
(0.0757904 -1.36251e-06 0)
(0.0757862 -3.20724e-06 0)
(0.0757859 -5.21574e-06 0)
(0.0757855 -7.2431e-06 0)
(0.0757849 -9.26778e-06 0)
(0.0757842 -1.12816e-05 0)
(0.0757834 -1.32832e-05 0)
(0.0757825 -1.5263e-05 0)
(0.0757816 -1.72273e-05 0)
(0.0757807 -1.91595e-05 0)
(0.0757797 -2.10771e-05 0)
(0.0757788 -2.29463e-05 0)
(0.075778 -2.47978e-05 0)
(0.0757774 -2.65854e-05 0)
(0.075777 -2.83474e-05 0)
(0.0757767 -3.00658e-05 0)
(0.0757863 -1.37443e-06 0)
(0.0757821 -3.23522e-06 0)
(0.0757818 -5.26129e-06 0)
(0.0757814 -7.30655e-06 0)
(0.0757808 -9.34917e-06 0)
(0.0757801 -1.13812e-05 0)
(0.0757793 -1.34008e-05 0)
(0.0757785 -1.53988e-05 0)
(0.0757776 -1.73812e-05 0)
(0.0757767 -1.93309e-05 0)
(0.0757757 -2.1267e-05 0)
(0.0757749 -2.31509e-05 0)
(0.0757741 -2.50211e-05 0)
(0.0757735 -2.68187e-05 0)
(0.075773 -2.85968e-05 0)
(0.0757728 -3.03234e-05 0)
(0.0757822 -1.38641e-06 0)
(0.0757779 -3.26208e-06 0)
(0.0757776 -5.30508e-06 0)
(0.0757772 -7.36766e-06 0)
(0.0757766 -9.42765e-06 0)
(0.075776 -1.14776e-05 0)
(0.0757752 -1.35149e-05 0)
(0.0757744 -1.55312e-05 0)
(0.0757735 -1.75318e-05 0)
(0.0757726 -1.94995e-05 0)
(0.0757717 -2.14543e-05 0)
(0.0757709 -2.33537e-05 0)
(0.0757701 -2.52429e-05 0)
(0.0757695 -2.70489e-05 0)
(0.0757691 -2.88446e-05 0)
(0.0757689 -3.05754e-05 0)
(0.075778 -1.39792e-06 0)
(0.0757737 -3.28637e-06 0)
(0.0757734 -5.34466e-06 0)
(0.075773 -7.42303e-06 0)
(0.0757725 -9.49882e-06 0)
(0.0757718 -1.15654e-05 0)
(0.0757711 -1.3619e-05 0)
(0.0757703 -1.56529e-05 0)
(0.0757694 -1.76703e-05 0)
(0.0757686 -1.96559e-05 0)
(0.0757677 -2.16285e-05 0)
(0.0757669 -2.3544e-05 0)
(0.0757662 -2.54514e-05 0)
(0.0757656 -2.72655e-05 0)
(0.0757652 -2.90814e-05 0)
(0.075765 -3.0809e-05 0)
(0.0757738 -1.40832e-06 0)
(0.0757695 -3.3064e-06 0)
(0.0757692 -5.37732e-06 0)
(0.0757688 -7.46877e-06 0)
(0.0757682 -9.55762e-06 0)
(0.0757676 -1.16382e-05 0)
(0.0757669 -1.37053e-05 0)
(0.0757661 -1.57544e-05 0)
(0.0757653 -1.7786e-05 0)
(0.0757645 -1.97881e-05 0)
(0.0757636 -2.17763e-05 0)
(0.0757629 -2.37081e-05 0)
(0.0757622 -2.56326e-05 0)
(0.0757617 -2.74583e-05 0)
(0.0757613 -2.9294e-05 0)
(0.0757612 -3.10041e-05 0)
(0.0757696 -1.41689e-06 0)
(0.0757652 -3.32031e-06 0)
(0.0757649 -5.39991e-06 0)
(0.0757645 -7.50045e-06 0)
(0.075764 -9.59824e-06 0)
(0.0757634 -1.16889e-05 0)
(0.0757627 -1.37653e-05 0)
(0.0757619 -1.58257e-05 0)
(0.0757611 -1.78676e-05 0)
(0.0757603 -1.98832e-05 0)
(0.0757595 -2.18841e-05 0)
(0.0757588 -2.38318e-05 0)
(0.0757582 -2.57713e-05 0)
(0.0757577 -2.76096e-05 0)
(0.0757574 -2.94537e-05 0)
(0.0757574 -3.11256e-05 0)
(0.0757653 -1.42284e-06 0)
(0.0757608 -3.32622e-06 0)
(0.0757606 -5.40943e-06 0)
(0.0757602 -7.51389e-06 0)
(0.0757597 -9.61545e-06 0)
(0.0757591 -1.17113e-05 0)
(0.0757584 -1.37923e-05 0)
(0.0757577 -1.58601e-05 0)
(0.0757569 -1.79084e-05 0)
(0.0757562 -1.99329e-05 0)
(0.0757554 -2.19397e-05 0)
(0.0757548 -2.38967e-05 0)
(0.0757542 -2.584e-05 0)
(0.0757538 -2.76741e-05 0)
(0.0757536 -2.94999e-05 0)
(0.0757537 -3.11144e-05 0)
(0.0757609 -1.42538e-06 0)
(0.0757565 -3.32323e-06 0)
(0.0757562 -5.40479e-06 0)
(0.0757558 -7.50797e-06 0)
(0.0757554 -9.60787e-06 0)
(0.0757548 -1.17031e-05 0)
(0.0757542 -1.37822e-05 0)
(0.0757535 -1.58505e-05 0)
(0.0757527 -1.78957e-05 0)
(0.075752 -1.99162e-05 0)
(0.0757513 -2.19104e-05 0)
(0.0757507 -2.38534e-05 0)
(0.0757502 -2.57707e-05 0)
(0.0757499 -2.75721e-05 0)
(0.0757499 -2.93513e-05 0)
(0.0757501 -3.08966e-05 0)
(0.0757566 -1.42408e-06 0)
(0.0757521 -3.31011e-06 0)
(0.0757519 -5.38374e-06 0)
(0.0757515 -7.47851e-06 0)
(0.075751 -9.568e-06 0)
(0.0757505 -1.16513e-05 0)
(0.0757499 -1.37139e-05 0)
(0.0757492 -1.57632e-05 0)
(0.0757485 -1.77818e-05 0)
(0.0757478 -1.97724e-05 0)
(0.0757472 -2.17252e-05 0)
(0.0757467 -2.36236e-05 0)
(0.0757463 -2.54828e-05 0)
(0.0757461 -2.72255e-05 0)
(0.0757463 -2.89343e-05 0)
(0.0757467 -3.04048e-05 0)
(0.0757522 -1.41843e-06 0)
(0.0757477 -3.27923e-06 0)
(0.0757475 -5.33185e-06 0)
(0.0757471 -7.40273e-06 0)
(0.0757467 -9.46397e-06 0)
(0.0757462 -1.15146e-05 0)
(0.0757456 -1.35372e-05 0)
(0.075745 -1.55405e-05 0)
(0.0757444 -1.75035e-05 0)
(0.0757438 -1.94348e-05 0)
(0.0757432 -2.13169e-05 0)
(0.0757428 -2.31435e-05 0)
(0.0757425 -2.49187e-05 0)
(0.0757425 -2.65833e-05 0)
(0.0757428 -2.82044e-05 0)
(0.0757435 -2.95995e-05 0)
(0.0757478 -1.40524e-06 0)
(0.0757434 -3.21562e-06 0)
(0.0757431 -5.22533e-06 0)
(0.0757428 -7.24884e-06 0)
(0.0757424 -9.25671e-06 0)
(0.075742 -1.12481e-05 0)
(0.0757415 -1.32034e-05 0)
(0.0757409 -1.51332e-05 0)
(0.0757404 -1.70138e-05 0)
(0.0757398 -1.88594e-05 0)
(0.0757394 -2.06464e-05 0)
(0.0757391 -2.238e-05 0)
(0.0757389 -2.40527e-05 0)
(0.0757391 -2.56274e-05 0)
(0.0757396 -2.71521e-05 0)
(0.0757405 -2.84779e-05 0)
(0.0757434 -1.37812e-06 0)
(0.0757391 -3.10594e-06 0)
(0.0757389 -5.04399e-06 0)
(0.0757386 -6.99132e-06 0)
(0.0757383 -8.91735e-06 0)
(0.0757379 -1.08217e-05 0)
(0.0757374 -1.26833e-05 0)
(0.075737 -1.45148e-05 0)
(0.0757365 -1.62903e-05 0)
(0.0757361 -1.80295e-05 0)
(0.0757357 -1.97036e-05 0)
(0.0757355 -2.13296e-05 0)
(0.0757355 -2.28889e-05 0)
(0.0757358 -2.43681e-05 0)
(0.0757365 -2.57944e-05 0)
(0.0757376 -2.70602e-05 0)
(0.0757392 -1.33132e-06 0)
(0.075735 -2.94382e-06 0)
(0.0757349 -4.7784e-06 0)
(0.0757346 -6.61899e-06 0)
(0.0757344 -8.43476e-06 0)
(0.075734 -1.0226e-05 0)
(0.0757337 -1.19709e-05 0)
(0.0757333 -1.36837e-05 0)
(0.0757329 -1.5337e-05 0)
(0.0757326 -1.69551e-05 0)
(0.0757324 -1.8505e-05 0)
(0.0757323 -2.00148e-05 0)
(0.0757324 -2.14553e-05 0)
(0.0757328 -2.28374e-05 0)
(0.0757337 -2.41667e-05 0)
(0.075735 -2.53807e-05 0)
(0.0757351 -1.26201e-06 0)
(0.0757312 -2.73135e-06 0)
(0.0757311 -4.43249e-06 0)
(0.0757309 -6.13816e-06 0)
(0.0757307 -7.81849e-06 0)
(0.0757304 -9.4745e-06 0)
(0.0757301 -1.10841e-05 0)
(0.0757299 -1.26628e-05 0)
(0.0757296 -1.41817e-05 0)
(0.0757294 -1.56693e-05 0)
(0.0757292 -1.70884e-05 0)
(0.0757293 -1.84774e-05 0)
(0.0757295 -1.97974e-05 0)
(0.0757301 -2.1083e-05 0)
(0.0757311 -2.23175e-05 0)
(0.0757325 -2.34859e-05 0)
(0.0757313 -1.17105e-06 0)
(0.0757278 -2.4785e-06 0)
(0.0757277 -4.0223e-06 0)
(0.0757275 -5.5708e-06 0)
(0.0757274 -7.09616e-06 0)
(0.0757272 -8.60006e-06 0)
(0.075727 -1.00607e-05 0)
(0.0757267 -1.14943e-05 0)
(0.0757266 -1.28711e-05 0)
(0.0757264 -1.42222e-05 0)
(0.0757264 -1.55072e-05 0)
(0.0757266 -1.67734e-05 0)
(0.0757269 -1.79729e-05 0)
(0.0757276 -1.91626e-05 0)
(0.0757287 -2.03045e-05 0)
(0.0757303 -2.14305e-05 0)
(0.0757278 -1.06266e-06 0)
(0.0757247 -2.20063e-06 0)
(0.0757246 -3.57225e-06 0)
(0.0757245 -4.94959e-06 0)
(0.0757244 -6.30765e-06 0)
(0.0757243 -7.64875e-06 0)
(0.0757241 -8.95196e-06 0)
(0.075724 -1.02335e-05 0)
(0.0757239 -1.14635e-05 0)
(0.0757239 -1.26746e-05 0)
(0.0757239 -1.38243e-05 0)
(0.0757242 -1.49666e-05 0)
(0.0757246 -1.60466e-05 0)
(0.0757254 -1.71405e-05 0)
(0.0757266 -1.81909e-05 0)
(0.0757282 -1.92745e-05 0)
(0.0757247 -9.43461e-07 0)
(0.075722 -1.91537e-06 0)
(0.075722 -3.11021e-06 0)
(0.0757219 -4.31173e-06 0)
(0.0757218 -5.4981e-06 0)
(0.0757217 -6.67221e-06 0)
(0.0757217 -7.81451e-06 0)
(0.0757216 -8.94112e-06 0)
(0.0757216 -1.00225e-05 0)
(0.0757216 -1.10922e-05 0)
(0.0757217 -1.21064e-05 0)
(0.0757221 -1.31243e-05 0)
(0.0757226 -1.40858e-05 0)
(0.0757234 -1.5083e-05 0)
(0.0757247 -1.60421e-05 0)
(0.0757264 -1.70803e-05 0)
(0.075722 -8.2107e-07 0)
(0.0757198 -1.63941e-06 0)
(0.0757197 -2.6627e-06 0)
(0.0757197 -3.69273e-06 0)
(0.0757196 -4.71083e-06 0)
(0.0757196 -5.7203e-06 0)
(0.0757196 -6.70342e-06 0)
(0.0757195 -7.67606e-06 0)
(0.0757196 -8.60987e-06 0)
(0.0757197 -9.53869e-06 0)
(0.0757199 -1.04187e-05 0)
(0.0757202 -1.13123e-05 0)
(0.0757208 -1.21563e-05 0)
(0.0757217 -1.30552e-05 0)
(0.075723 -1.3922e-05 0)
(0.0757247 -1.49093e-05 0)
(0.0757198 -7.02696e-07 0)
(0.0757179 -1.38592e-06 0)
(0.0757179 -2.25083e-06 0)
(0.0757178 -3.12136e-06 0)
(0.0757178 -3.98161e-06 0)
(0.0757178 -4.83501e-06 0)
(0.0757178 -5.66591e-06 0)
(0.0757178 -6.48987e-06 0)
(0.0757179 -7.28045e-06 0)
(0.0757181 -8.07134e-06 0)
(0.0757183 -8.81997e-06 0)
(0.0757187 -9.59046e-06 0)
(0.0757193 -1.03185e-05 0)
(0.0757203 -1.11172e-05 0)
(0.0757215 -1.18904e-05 0)
(0.0757231 -1.28192e-05 0)
(0.0757179 -5.94007e-07 0)
(0.0757164 -1.16292e-06 0)
(0.0757164 -1.88784e-06 0)
(0.0757163 -2.61627e-06 0)
(0.0757163 -3.33462e-06 0)
(0.0757163 -4.04599e-06 0)
(0.0757164 -4.7368e-06 0)
(0.0757165 -5.42194e-06 0)
(0.0757166 -6.07743e-06 0)
(0.0757168 -6.7364e-06 0)
(0.0757171 -7.35878e-06 0)
(0.0757175 -8.00888e-06 0)
(0.0757181 -8.62354e-06 0)
(0.075719 -9.32035e-06 0)
(0.0757202 -9.99897e-06 0)
(0.0757218 -1.08609e-05 0)
(0.0757164 -4.9844e-07 0)
(0.0757151 -9.73092e-07 0)
(0.0757151 -1.57851e-06 0)
(0.0757151 -2.18502e-06 0)
(0.0757152 -2.78083e-06 0)
(0.0757152 -3.36839e-06 0)
(0.0757153 -3.93577e-06 0)
(0.0757154 -4.49666e-06 0)
(0.0757155 -5.02952e-06 0)
(0.0757157 -5.56641e-06 0)
(0.075716 -6.07066e-06 0)
(0.0757165 -6.60549e-06 0)
(0.0757171 -7.11098e-06 0)
(0.075718 -7.70546e-06 0)
(0.0757191 -8.28935e-06 0)
(0.0757206 -9.07568e-06 0)
(0.0757151 -4.1712e-07 0)
(0.0757142 -8.14864e-07 0)
(0.0757142 -1.32071e-06 0)
(0.0757142 -1.82558e-06 0)
(0.0757142 -2.31916e-06 0)
(0.0757143 -2.80314e-06 0)
(0.0757144 -3.26683e-06 0)
(0.0757145 -3.72207e-06 0)
(0.0757147 -4.14925e-06 0)
(0.075715 -4.57842e-06 0)
(0.0757153 -4.97657e-06 0)
(0.0757157 -5.40456e-06 0)
(0.0757163 -5.80739e-06 0)
(0.0757172 -6.30094e-06 0)
(0.0757182 -6.79114e-06 0)
(0.0757195 -7.49366e-06 0)