/*--------------------------------*- C++ -*----------------------------------*\
| =========                 |                                                 |
| \\      /  F ield         | OpenFOAM: The Open Source CFD Toolbox           |
|  \\    /   O peration     | Version:  4.1                                   |
|   \\  /    A nd           | Web:      www.OpenFOAM.org                      |
|    \\/     M anipulation  |                                                 |
\*---------------------------------------------------------------------------*/
FoamFile
{
    version     2.0;
    format      ascii;
    class       volVectorField;
    location    "0.000730";
    object      U;
}
// * * * * * * * * * * * * * * * * * * * * * * * * * * * * * * * * * * * * * //

dimensions      [0 1 -1 0 0 0 0];

internalField   nonuniform List<vector> 
3072
(
(24.599542 0.33957437 -0.00049088753)
(24.526932 0.40344152 -0.00062423324)
(24.844928 0.38947568 -0.00082139762)
(24.69724 0.26154152 -0.00077695386)
(24.557636 0.16567776 -0.00057092983)
(24.344368 0.080683422 -0.00035074658)
(24.132772 0.011742092 -0.00017975486)
(23.9406 -0.044148486 5.1888106e-05)
(23.750884 -0.091585978 0.0003312586)
(23.591782 -0.12873639 0.00067485448)
(23.433783 -0.16020474 0.00099933156)
(23.294097 -0.1862501 0.0012242983)
(23.162319 -0.20656226 0.0012070375)
(23.033253 -0.22224088 0.00096971082)
(22.912971 -0.23165284 0.00056708063)
(22.78357 -0.23606652 -8.771745e-06)
(22.659155 -0.23431828 -0.00067201893)
(22.52816 -0.22754137 -0.0012487798)
(22.400233 -0.21552752 -0.0017081144)
(22.280661 -0.19612585 -0.002066935)
(22.186036 -0.17030048 -0.0021798793)
(22.133149 -0.13983734 -0.0019252862)
(22.123791 -0.1084439 -0.0015077114)
(22.168968 -0.076871939 -0.0010748238)
(23.074 0.25132525 -0.12560864)
(22.802403 0.38877546 -0.086463534)
(22.971955 0.36958498 -0.081265358)
(22.847219 0.24190982 -0.072658597)
(22.711026 0.1466669 -0.064042967)
(22.52501 0.067927372 -0.057013116)
(22.344466 0.0090247568 -0.049359073)
(22.180447 -0.036973903 -0.042759815)
(22.021136 -0.074010101 -0.036299693)
(21.886962 -0.10310331 -0.031068706)
(21.754655 -0.12737618 -0.026643704)
(21.636759 -0.14641484 -0.023226944)
(21.523311 -0.16166503 -0.020876591)
(21.412809 -0.17290989 -0.0193351)
(21.308559 -0.18032888 -0.019116979)
(21.198261 -0.18349655 -0.019300837)
(21.090763 -0.18224852 -0.01970893)
(20.977866 -0.17732285 -0.019278982)
(20.868666 -0.16759083 -0.017219562)
(20.766815 -0.15192851 -0.013054306)
(20.686676 -0.12974425 -0.0064930467)
(20.64174 -0.1036263 0.0028596162)
(20.638774 -0.076605045 0.015030121)
(20.684826 -0.050211646 0.028860814)
(22.187264 0.21700761 -0.22574039)
(21.677449 0.35760426 -0.19896952)
(21.659089 0.33756324 -0.17278541)
(21.466721 0.22653792 -0.14983419)
(21.291797 0.13863542 -0.1310259)
(21.105071 0.067705672 -0.11496597)
(20.936799 0.017011231 -0.099817122)
(20.798274 -0.022550786 -0.08758631)
(20.672117 -0.053079175 -0.076389273)
(20.57241 -0.07752344 -0.066770443)
(20.482248 -0.097829124 -0.059221449)
(20.406533 -0.114199 -0.052537753)
(20.338669 -0.12723334 -0.048140563)
(20.275208 -0.13750146 -0.045223084)
(20.217797 -0.14450704 -0.044250398)
(20.156046 -0.14841326 -0.043917251)
(20.096783 -0.14838245 -0.043996274)
(20.032236 -0.1452335 -0.042623571)
(19.970917 -0.13790199 -0.038108585)
(19.914254 -0.12541918 -0.02967149)
(19.874051 -0.10700589 -0.016536467)
(19.8607 -0.084599712 0.0018909722)
(19.883543 -0.06137605 0.025610558)
(19.949247 -0.039313931 0.052865961)
(21.700876 0.1854418 -0.31777009)
(21.058856 0.30650893 -0.31107281)
(20.927135 0.29102528 -0.26997048)
(20.674818 0.20010457 -0.23124526)
(20.462478 0.12511645 -0.20018685)
(20.263863 0.066312373 -0.17399561)
(20.09229 0.025169442 -0.15052601)
(19.960283 -0.0053801824 -0.13134156)
(19.845744 -0.029425396 -0.11452338)
(19.757649 -0.048550803 -0.10037455)
(19.685101 -0.064390473 -0.08868087)
(19.626363 -0.07728874 -0.079030905)
(19.577464 -0.088179604 -0.072085954)
(19.533129 -0.096873478 -0.067692766)
(19.493859 -0.10322103 -0.066113317)
(19.451161 -0.10730619 -0.066184812)
(19.409911 -0.10829092 -0.066611381)
(19.363308 -0.10645493 -0.064945491)
(19.319234 -0.10118844 -0.058551612)
(19.277982 -0.091942262 -0.046220733)
(19.250315 -0.07797012 -0.02679264)
(19.244418 -0.060440569 0.00090232611)
(19.27203 -0.041862929 0.036706998)
(19.340025 -0.024649772 0.078279232)
(21.405627 0.15086102 -0.40224942)
(20.679867 0.2382844 -0.41462478)
(20.484286 0.22564221 -0.36805092)
(20.190639 0.15605733 -0.31579788)
(19.951315 0.099273528 -0.27165919)
(19.739872 0.056516835 -0.23407629)
(19.563096 0.026370468 -0.20286988)
(19.421661 0.0047506428 -0.17638602)
(19.305019 -0.012366134 -0.15405123)
(19.211618 -0.025705673 -0.13498923)
(19.136394 -0.036727749 -0.1192625)
(19.073916 -0.04604299 -0.10678269)
(19.022119 -0.054059822 -0.098196363)
(18.974502 -0.060654853 -0.093267115)
(18.931238 -0.065793009 -0.092100762)
(18.885014 -0.06936669 -0.093507811)
(18.838463 -0.070611085 -0.095590189)
(18.787645 -0.069481602 -0.09495842)
(18.738571 -0.06582265 -0.087946126)
(18.692073 -0.059494531 -0.072427108)
(18.658186 -0.049816708 -0.046849402)
(18.645801 -0.037438589 -0.0098011934)
(18.667862 -0.024188378 0.038653336)
(18.730038 -0.01235758 0.095271769)
(21.250642 0.10906554 -0.48200234)
(20.46992 0.15604649 -0.50557711)
(20.244238 0.14586234 -0.45652234)
(19.926036 0.098319189 -0.39222641)
(19.669835 0.062251653 -0.33567904)
(19.446141 0.03542484 -0.28780843)
(19.259394 0.016632938 -0.2490052)
(19.10068 0.0032209023 -0.21650242)
(18.969667 -0.0072185948 -0.18918211)
(18.856713 -0.015241683 -0.16560157)
(18.762372 -0.021633373 -0.14648332)
(18.679081 -0.027210021 -0.13206639)
(18.606074 -0.031927219 -0.12266337)
(18.536455 -0.035873976 -0.11826351)
(18.470123 -0.039081475 -0.11890149)
(18.402604 -0.041370835 -0.12317628)
(18.334408 -0.041907011 -0.12857855)
(18.263587 -0.040571009 -0.13073796)
(18.193706 -0.03754032 -0.12472987)
(18.128331 -0.032919627 -0.10712771)
(18.075971 -0.026319239 -0.075611354)
(18.047689 -0.018152088 -0.02874886)
(18.055473 -0.0098178704 0.032971435)
(18.105409 -0.0030948726 0.10533283)
(21.281524 0.045467309 -0.56895275)
(20.473685 0.05258134 -0.59012741)
(20.256905 0.047044154 -0.53644373)
(19.935337 0.021218532 -0.46182965)
(19.673175 0.0088624936 -0.39077298)
(19.436935 -0.00043624655 -0.33248467)
(19.232736 -0.0070659376 -0.28696694)
(19.048098 -0.012100413 -0.24902916)
(18.883563 -0.016397586 -0.21685714)
(18.735817 -0.02006268 -0.18954375)
(18.603988 -0.023014842 -0.16768615)
(18.482021 -0.025505414 -0.15196513)
(18.36955 -0.027702894 -0.14301513)
(18.260685 -0.029476719 -0.14088616)
(18.155155 -0.030442828 -0.1451695)
(18.051457 -0.030359168 -0.1543519)
(17.948152 -0.028572113 -0.16540316)
(17.844091 -0.025074685 -0.17283114)
(17.740793 -0.020434366 -0.16990038)
(17.643613 -0.015181287 -0.15159041)
(17.560711 -0.0096236454 -0.1145379)
(17.504201 -0.0040944925 -0.05715646)
(17.485674 0.00059703819 0.019506291)
(17.514096 0.0038270613 0.10992078)
(21.614242 -0.00017106062 -0.67745481)
(20.909141 -0.00024253697 -0.69176005)
(20.809538 -0.00033628946 -0.63885643)
(20.514072 -0.00063489481 -0.54469416)
(20.251512 -0.00073619093 -0.45822706)
(19.998328 -0.00099097143 -0.39569692)
(19.763946 -0.0011672928 -0.34485271)
(19.537193 -0.001306191 -0.30040948)
(19.315302 -0.001417037 -0.25950971)
(19.097689 -0.0014096708 -0.22200722)
(18.890926 -0.0013159493 -0.19099347)
(18.692585 -0.0012581224 -0.16862531)
(18.501197 -0.0013339489 -0.156143)
(18.316875 -0.00139191 -0.15444007)
(18.139671 -0.0012846899 -0.16304775)
(17.968923 -0.00086793357 -0.1804849)
(17.803077 -1.3156383e-05 -0.20248894)
(17.639791 0.0012657269 -0.22111369)
(17.47891 0.002672194 -0.2267415)
(17.32381 0.0037672971 -0.21160987)
(17.183656 0.0044092489 -0.17052045)
(17.072599 0.0046677152 -0.10099718)
(17.004557 0.0043173971 -0.0050054502)
(16.992239 0.0033140563 0.1090542)
(23.069609 0.25125358 0.12435025)
(22.798018 0.38881043 0.084998101)
(22.966663 0.36970584 0.079524183)
(22.840465 0.24203871 0.071030183)
(22.703657 0.14680601 0.062871047)
(22.517674 0.068123119 0.056184647)
(22.337192 0.0091389579 0.048872387)
(22.173255 -0.037025036 0.042809961)
(22.014213 -0.074279817 0.037078597)
(21.880749 -0.10347259 0.032595573)
(21.749993 -0.1277389 0.028757287)
(21.634589 -0.14669605 0.025641776)
(21.524321 -0.1618269 0.023227698)
(21.416284 -0.17305288 0.02122238)
(21.313386 -0.18049649 0.020244211)
(21.203805 -0.18369643 0.019323965)
(21.096165 -0.18246693 0.018440371)
(20.982664 -0.17755861 0.016868118)
(20.873288 -0.1678401 0.01384582)
(20.770074 -0.15215662 0.0089078244)
(20.68499 -0.12989511 0.0020584885)
(20.634211 -0.10360679 -0.00688788)
(20.627236 -0.076278057 -0.018400511)
(20.670759 -0.049524253 -0.031471706)
(21.993014 0.20383861 -0.00070049203)
(21.41507 0.37272026 -0.00083764132)
(21.297406 0.34699249 -0.00096579754)
(21.080641 0.22581172 -0.00091959302)
(20.892018 0.13226956 -0.00072233425)
(20.701094 0.056625376 -0.00052284475)
(20.528705 0.0047183699 -0.0002993357)
(20.369846 -0.033790438 7.9239803e-05)
(20.22235 -0.063070574 0.00053010197)
(20.090208 -0.085755102 0.00097203032)
(19.964361 -0.10434997 0.0012736488)
(19.848755 -0.11835557 0.0013898833)
(19.737046 -0.1295864 0.0013083431)
(19.628908 -0.13793741 0.0010627564)
(19.523756 -0.14333354 0.00069424163)
(19.41739 -0.14550709 0.00015510519)
(19.310949 -0.14424056 -0.00048992115)
(19.204155 -0.14021151 -0.0010966137)
(19.10389 -0.13246132 -0.0016506879)
(19.01309 -0.11986379 -0.0020943711)
(18.937407 -0.10133336 -0.0022720108)
(18.888248 -0.078971658 -0.00213135)
(18.878738 -0.056105209 -0.0019318916)
(18.916011 -0.035037937 -0.0017009819)
(21.305884 0.16874272 -0.11407256)
(20.528749 0.32246384 -0.11474112)
(20.239166 0.29962227 -0.10068655)
(19.918104 0.19975153 -0.084253033)
(19.671437 0.1180002 -0.071267028)
(19.461882 0.051631453 -0.060659888)
(19.290463 0.0074977444 -0.051896292)
(19.146931 -0.025136609 -0.045567561)
(19.025194 -0.049283286 -0.039426082)
(18.92344 -0.067853535 -0.03434172)
(18.836019 -0.082893598 -0.030347916)
(18.761889 -0.094550177 -0.027163489)
(18.696568 -0.10407672 -0.025142703)
(18.63785 -0.11101561 -0.024034399)
(18.583411 -0.11588694 -0.024133741)
(18.529625 -0.11822441 -0.024675449)
(18.476212 -0.11762885 -0.025417733)
(18.423344 -0.11450878 -0.025404115)
(18.376151 -0.10829207 -0.023754868)
(18.337045 -0.09841117 -0.020135825)
(18.30839 -0.083523418 -0.014208486)
(18.297877 -0.06495599 -0.0056706672)
(18.318368 -0.045796375 0.005622995)
(18.379025 -0.028790908 0.018995619)
(21.003693 0.13716215 -0.21680213)
(20.145602 0.25717852 -0.23150967)
(19.775928 0.24136174 -0.20185769)
(19.392487 0.16496713 -0.16858145)
(19.107183 0.10066919 -0.14217547)
(18.879438 0.04864082 -0.11963353)
(18.701205 0.01363031 -0.10128807)
(18.559819 -0.010901055 -0.087158446)
(18.446074 -0.029593425 -0.074729306)
(18.355794 -0.043905876 -0.064379118)
(18.28406 -0.055373286 -0.056174937)
(18.227506 -0.064500529 -0.049754786)
(18.18237 -0.072155604 -0.045347867)
(18.144989 -0.077959036 -0.042986049)
(18.112189 -0.082108879 -0.042699367)
(18.080679 -0.084420793 -0.043760394)
(18.049464 -0.084410569 -0.045139879)
(18.018517 -0.082115306 -0.045049171)
(17.992096 -0.077480591 -0.041721859)
(17.972927 -0.070486356 -0.03441731)
(17.963125 -0.059834446 -0.022699617)
(17.968374 -0.045999856 -0.0058107152)
(18.000995 -0.031512774 0.016617216)
(18.071651 -0.019121493 0.043365267)
(20.878627 0.1036542 -0.30821467)
(19.983289 0.18213314 -0.3385834)
(19.579908 0.17065762 -0.29848959)
(19.16685 0.11881732 -0.25001437)
(18.861025 0.076339756 -0.20998783)
(18.620714 0.041303753 -0.17529051)
(18.435254 0.017445963 -0.14780755)
(18.289245 0.00075516364 -0.1257251)
(18.173621 -0.012002211 -0.10734184)
(18.082376 -0.021487946 -0.092154486)
(18.011238 -0.029072404 -0.080139149)
(17.955832 -0.035402533 -0.070966855)
(17.912641 -0.04076585 -0.065035329)
(17.877666 -0.045000497 -0.062281047)
(17.847678 -0.048188177 -0.062633715)
(17.818977 -0.050127043 -0.065119997)
(17.789954 -0.050247523 -0.068086371)
(17.760397 -0.04852615 -0.068927771)
(17.733819 -0.045301429 -0.064773379)
(17.714101 -0.040969696 -0.054240152)
(17.704917 -0.034446282 -0.036752636)
(17.71225 -0.02567459 -0.011310134)
(17.746846 -0.01659625 0.022675614)
(17.818719 -0.0094572514 0.063385231)
(20.874665 0.061674545 -0.39427798)
(19.958277 0.096662082 -0.43367177)
(19.547365 0.088957514 -0.38464494)
(19.125812 0.062941417 -0.32248994)
(18.813029 0.043434538 -0.26952057)
(18.565326 0.025060985 -0.22366948)
(18.372085 0.012636708 -0.18785467)
(18.217113 0.0041048306 -0.15913854)
(18.091773 -0.0023170466 -0.13553637)
(17.989668 -0.0070451476 -0.11620916)
(17.907212 -0.010615789 -0.10119809)
(17.840078 -0.013609778 -0.090358889)
(17.784955 -0.016232807 -0.083814954)
(17.737284 -0.018356141 -0.081540685)
(17.694117 -0.019983228 -0.083494342)
(17.653234 -0.02092561 -0.088447912)
(17.612259 -0.020625314 -0.094081797)
(17.569818 -0.019047229 -0.096861351)
(17.529001 -0.01669205 -0.09279611)
(17.49513 -0.014123891 -0.079547116)
(17.473966 -0.010790271 -0.056117127)
(17.47257 -0.0065460101 -0.02146211)
(17.500169 -0.0027067395 0.024839301)
(17.566502 -0.00064412826 0.080155872)
(21.018789 7.4642766e-05 -0.4854971)
(20.110068 -0.00024551069 -0.52100445)
(19.731234 -0.00069995468 -0.46157687)
(19.329006 -0.0012458628 -0.38908489)
(19.026067 -0.001402016 -0.32717127)
(18.777043 -0.0016682339 -0.2703657)
(18.574468 -0.0019458611 -0.22660325)
(18.403995 -0.0022213706 -0.191584)
(18.258214 -0.0024366999 -0.1632247)
(18.133394 -0.0024195381 -0.14035654)
(18.025934 -0.0021870987 -0.12278785)
(17.932671 -0.0020496049 -0.11064363)
(17.850636 -0.002180079 -0.10399842)
(17.775044 -0.0022948984 -0.10294209)
(17.70324 -0.0021384762 -0.10715812)
(17.634911 -0.0015079133 -0.11514608)
(17.567142 -0.00016843242 -0.1241698)
(17.497117 0.0019233547 -0.12971101)
(17.427379 0.0043153929 -0.12650247)
(17.364112 0.0062278868 -0.11101878)
(17.315647 0.0074439996 -0.081438664)
(17.290534 0.0079945608 -0.036647839)
(17.298077 0.0073852107 0.023281359)
(17.349915 0.0055164505 0.094682461)
(21.277072 -0.045673413 -0.568977)
(20.46615 -0.05334816 -0.58994521)
(20.247508 -0.048345669 -0.53601496)
(19.924351 -0.023261778 -0.46101967)
(19.661164 -0.01108681 -0.38993105)
(19.425001 -0.0020234622 -0.33159756)
(19.221466 0.0043712869 -0.28607571)
(19.038041 0.0090048414 -0.24803588)
(18.875662 0.012889223 -0.21585222)
(18.729597 0.01651127 -0.1885837)
(18.599266 0.019794144 -0.16678786)
(18.47906 0.022480343 -0.15106115)
(18.36914 0.024501271 -0.14207207)
(18.263519 0.026074342 -0.1399658)
(18.161066 0.027273322 -0.14436359)
(18.059898 0.028173353 -0.15375286)
(17.957843 0.028446022 -0.16525299)
(17.852804 0.028112929 -0.17341473)
(17.745847 0.027136373 -0.17140679)
(17.642694 0.02493632 -0.15395515)
(17.552793 0.021315754 -0.11757024)
(17.48725 0.016537072 -0.060577642)
(17.457787 0.010870674 0.016204791)
(17.477358 0.0048448701 0.10729174)
(22.178219 0.21661796 0.22451729)
(21.667126 0.35725633 0.19759621)
(21.646967 0.33725162 0.17133024)
(21.451886 0.2263412 0.14847316)
(21.27504 0.1386674 0.12991234)
(21.087191 0.06791616 0.11401892)
(20.91816 0.017153796 0.0991332)
(20.779645 -0.022604988 0.087343572)
(20.654534 -0.053311742 0.076795316)
(20.556825 -0.077770597 0.067781588)
(20.469818 -0.097862291 0.060618228)
(20.398098 -0.11397278 0.054100429)
(20.334609 -0.12692228 0.049650519)
(20.274756 -0.13735233 0.04646261)
(20.220272 -0.14459203 0.044970625)
(20.160948 -0.14874778 0.043825865)
(20.102755 -0.1489285 0.042879655)
(20.038323 -0.1458521 0.040559122)
(19.977421 -0.138627 0.035310862)
(19.920162 -0.12644976 0.026368765)
(19.875206 -0.10826303 0.013085907)
(19.855256 -0.085530739 -0.005103476)
(19.873231 -0.061516376 -0.02844964)
(19.934642 -0.038544063 -0.055227123)
(21.30104 0.16845849 0.11276182)
(20.522931 0.32208244 0.11318767)
(20.232567 0.29915268 0.099023996)
(19.91022 0.19936924 0.082671542)
(19.662363 0.11785238 0.069953987)
(19.451785 0.051608184 0.059528921)
(19.279884 0.0074872273 0.051148562)
(19.1367 -0.02519475 0.045524676)
(19.01597 -0.049298296 0.040282933)
(18.91586 -0.06773806 0.035959705)
(18.830507 -0.082598563 0.032415646)
(18.758359 -0.094106156 0.02935597)
(18.694677 -0.10364557 0.027210258)
(18.637483 -0.11073086 0.025798576)
(18.584753 -0.11579057 0.025374441)
(18.532688 -0.11833945 0.025060814)
(18.480555 -0.1179252 0.024700096)
(18.428478 -0.1148538 0.023573656)
(18.381587 -0.10870957 0.020954434)
(18.342399 -0.099088169 0.016696503)
(18.313276 -0.084445913 0.010614686)
(18.302157 -0.065730578 0.0022283392)
(18.321952 -0.04616411 -0.0090050832)
(18.380921 -0.028711088 -0.022306694)
(20.762356 0.12034867 -0.00058369819)
(19.846391 0.25160809 -0.00066645963)
(19.426924 0.23779525 -0.00066224106)
(19.011099 0.16169215 -0.00065466831)
(18.708747 0.09517325 -0.00062575358)
(18.475957 0.041852797 -0.00055632454)
(18.300753 0.005925711 -0.00036498825)
(18.166698 -0.019919266 5.7692342e-06)
(18.065585 -0.038913679 0.00043668616)
(17.990515 -0.053271471 0.00077717217)
(17.936696 -0.064813648 0.00094902146)
(17.900524 -0.07391538 0.00097577844)
(17.877715 -0.081496519 0.00093080359)
(17.864999 -0.087146417 0.00085174967)
(17.858738 -0.09116605 0.00067363042)
(17.855548 -0.093294422 0.00033283657)
(17.852972 -0.093018635 -0.00015387528)
(17.851348 -0.090282347 -0.00071230556)
(17.854187 -0.085176028 -0.0012035177)
(17.864116 -0.077881986 -0.0014410523)
(17.880958 -0.066753414 -0.0013968982)
(17.908166 -0.051964537 -0.0013366164)
(17.956471 -0.036344674 -0.0015000799)
(18.036387 -0.022845105 -0.0017138198)
(20.562824 0.082653551 -0.10488409)
(19.602387 0.17312686 -0.11821773)
(19.13096 0.1663961 -0.10397338)
(18.669794 0.11515995 -0.086937714)
(18.337739 0.06884533 -0.072056314)
(18.089593 0.032083993 -0.059899502)
(17.908513 0.0069648941 -0.049928888)
(17.775767 -0.010745628 -0.041983236)
(17.680983 -0.02396766 -0.035240388)
(17.615928 -0.033885817 -0.029741271)
(17.575194 -0.041781983 -0.025375542)
(17.554485 -0.048111224 -0.022056838)
(17.549501 -0.053500116 -0.019798354)
(17.55593 -0.057666509 -0.018616857)
(17.569395 -0.060657079 -0.01854417)
(17.586465 -0.062238553 -0.019296732)
(17.604354 -0.061866192 -0.020334628)
(17.622746 -0.059411906 -0.020716827)
(17.644267 -0.055361614 -0.019439883)
(17.67267 -0.050416403 -0.01594116)
(17.708488 -0.043133807 -0.010188859)
(17.7524 -0.033018274 -0.0020862146)
(17.813078 -0.022302011 0.0085135417)
(17.902518 -0.013446701 0.021224278)
(20.529621 0.045291486 -0.20107483)
(19.558807 0.090509253 -0.22947834)
(19.073679 0.086852369 -0.20364799)
(18.599024 0.060415854 -0.17016943)
(18.256291 0.036996382 -0.14034194)
(18.000706 0.018491254 -0.11577886)
(17.814694 0.0056733215 -0.096198068)
(17.678542 -0.0033929166 -0.080621715)
(17.580788 -0.010146339 -0.06783021)
(17.51414 -0.015087376 -0.057414167)
(17.472724 -0.018918325 -0.049208607)
(17.451587 -0.022084817 -0.043055577)
(17.446361 -0.024941961 -0.039049635)
(17.452614 -0.027295694 -0.037198375)
(17.465983 -0.028984431 -0.037480391)
(17.482643 -0.029742307 -0.039277159)
(17.499684 -0.029058924 -0.041489758)
(17.516165 -0.026854791 -0.042344166)
(17.534262 -0.02381656 -0.039826474)
(17.559415 -0.020859032 -0.032906137)
(17.594701 -0.017132092 -0.021569129)
(17.640383 -0.01203085 -0.0054403289)
(17.702728 -0.0069650942 0.016050421)
(17.793337 -0.0034537388 0.041943716)
(20.619128 0.00010809339 -0.29459748)
(19.655698 -0.00044003907 -0.33413684)
(19.183806 -0.0011063816 -0.29748398)
(18.7191 -0.0019190672 -0.24829911)
(18.381461 -0.0022497874 -0.2043633)
(18.125894 -0.002288414 -0.16823719)
(17.936433 -0.002485873 -0.13983042)
(17.794215 -0.002758232 -0.11750141)
(17.688002 -0.002917293 -0.099397123)
(17.610519 -0.0027933211 -0.084612244)
(17.556369 -0.0024278781 -0.073055688)
(17.520901 -0.0021511957 -0.064601073)
(17.499951 -0.0022045784 -0.059336502)
(17.489049 -0.0023562544 -0.057225499)
(17.484076 -0.0022917535 -0.058331734)
(17.481774 -0.0017249285 -0.061742296)
(17.47902 -0.00035116118 -0.065680989)
(17.474239 0.0019083176 -0.067489744)
(17.470015 0.0044693163 -0.064132809)
(17.473237 0.0063668203 -0.053917465)
(17.489408 0.0074762951 -0.036635838)
(17.519767 0.0080400904 -0.011708185)
(17.569858 0.0075484152 0.02153774)
(17.651415 0.0058336956 0.061431407)
(20.864987 -0.061657757 -0.39404073)
(19.945115 -0.097653433 -0.43328274)
(19.532889 -0.090910959 -0.38407555)
(19.111476 -0.066201444 -0.32175358)
(18.799814 -0.047079957 -0.26860083)
(18.553687 -0.028878126 -0.22286017)
(18.362373 -0.016689606 -0.18708747)
(18.210179 -0.008693883 -0.15843555)
(18.088454 -0.0027060039 -0.13497329)
(17.990072 0.0021206367 -0.11582295)
(17.911165 0.00627535 -0.10097426)
(17.847194 0.0096720211 -0.090281492)
(17.795256 0.012128334 -0.083778851)
(17.750722 0.013962401 -0.081451132)
(17.709931 0.015729395 -0.083327964)
(17.670553 0.017742626 -0.088244464)
(17.629737 0.019967206 -0.09392058)
(17.585208 0.022526501 -0.096863068)
(17.539723 0.02509936 -0.092967591)
(17.50043 0.026603752 -0.079720279)
(17.475265 0.025822201 -0.056194589)
(17.469099 0.02266997 -0.02154765)
(17.490152 0.017667233 0.024628296)
(17.55178 0.012013752 0.079722994)
(21.237865 -0.10958366 -0.48175255)
(20.452807 -0.15753453 -0.50490412)
(20.225437 -0.14772525 -0.45544578)
(19.90704 -0.10091804 -0.3906968)
(19.651869 -0.065095607 -0.33403005)
(19.429421 -0.038174525 -0.28640628)
(19.243977 -0.019245886 -0.24766643)
(19.088312 -0.0061488052 -0.21514336)
(18.960257 0.0039211191 -0.1878497)
(18.850973 0.011960813 -0.16438114)
(18.760897 0.01873396 -0.14553544)
(18.68133 0.024547988 -0.13120376)
(18.612887 0.029187816 -0.12177008)
(18.54872 0.032890181 -0.1173049)
(18.487435 0.036094961 -0.11786981)
(18.424131 0.039076291 -0.12218897)
(18.358039 0.041359015 -0.12793941)
(18.285626 0.042925364 -0.13088257)
(18.209976 0.043635847 -0.12601294)
(18.135166 0.042528568 -0.10946322)
(18.070889 0.038216361 -0.078671449)
(18.026817 0.03081889 -0.032278374)
(18.015557 0.021524973 0.029410641)
(18.050029 0.012121153 0.10223186)
(21.691441 0.18486155 0.31679534)
(21.048084 0.30583196 0.30994882)
(20.91465 0.29024447 0.2688597)
(20.659828 0.19944507 0.23022604)
(20.445529 0.1248421 0.19925498)
(20.245495 0.066315526 0.17316214)
(20.072843 0.025210745 0.14982002)
(19.940826 -0.0054884096 0.13093798)
(19.82793 -0.02954738 0.1145102)
(19.742696 -0.048479057 0.10075567)
(19.673687 -0.064007788 0.089298596)
(19.618514 -0.076661484 0.079797172)
(19.57297 -0.08753202 0.072855072)
(19.531643 -0.096411023 0.068263979)
(19.495482 -0.1030554 0.066290121)
(19.455716 -0.10753904 0.065792286)
(19.416002 -0.10890888 0.065492088)
(19.369336 -0.10722657 0.063115504)
(19.325106 -0.10211637 0.056195455)
(19.283036 -0.093344827 0.043597135)
(19.251464 -0.079818309 0.024164723)
(19.239795 -0.061992189 -0.0033154851)
(19.261679 -0.042540629 -0.038793747)
(19.323251 -0.02432092 -0.079931403)
(20.99692 0.13670546 0.21570621)
(20.13798 0.25648241 0.23019805)
(19.768091 0.24045605 0.20056454)
(19.383899 0.16415904 0.16737736)
(19.097621 0.10019882 0.14110452)
(18.868741 0.048421963 0.11862907)
(18.689819 0.013535748 0.10054349)
(18.548992 -0.010931748 0.08694663)
(18.437045 -0.029441399 0.075184849)
(18.349352 -0.043446141 0.065419412)
(18.280287 -0.054682601 0.057518182)
(18.225797 -0.063719067 0.051203476)
(18.182066 -0.071447648 0.046739818)
(18.146267 -0.077403549 0.04412538)
(18.11565 -0.081785646 0.043400174)
(18.086475 -0.08445424 0.043813198)
(18.05703 -0.084808636 0.044351519)
(18.026825 -0.082702847 0.043373318)
(18.000016 -0.07823325 0.039309122)
(17.979861 -0.071606993 0.031634074)
(17.96945 -0.061329459 0.01992662)
(17.974061 -0.047391433 0.0031557104)
(18.004751 -0.032387204 -0.019290317)
(18.07166 -0.019348799 -0.046057659)
(20.559413 0.08240734 0.10392771)
(19.598403 0.17275259 0.11719605)
(19.12732 0.16594923 0.1030856)
(18.666413 0.11476795 0.086054064)
(18.334423 0.06859573 0.071116321)
(18.08609 0.031948077 0.058944318)
(17.904919 0.0069219566 0.049262839)
(17.772544 -0.010658082 0.041920244)
(17.678561 -0.02370415 0.035853229)
(17.61458 -0.033466118 0.030857381)
(17.574922 -0.041304305 0.026745393)
(17.554933 -0.047680024 0.023484716)
(17.550416 -0.053132663 0.021196683)
(17.557547 -0.057329794 0.019887767)
(17.572057 -0.060387389 0.019528681)
(17.59024 -0.06213729 0.019772157)
(17.608992 -0.061965059 0.020043972)
(17.627735 -0.059669826 0.019468859)
(17.649032 -0.055758233 0.017372763)
(17.676787 -0.050971464 0.013611711)
(17.712192 -0.043848385 0.0081302795)
(17.756246 -0.033783802 0.00014924823)
(17.816663 -0.022899736 -0.010895935)
(17.904596 -0.013740059 -0.02422349)
(20.390951 0.040209446 -0.00033612576)
(19.392976 0.086176344 -0.00027450117)
(18.880994 0.083694501 -0.000172358)
(18.386139 0.057739708 -0.00020305925)
(18.032438 0.033637065 -0.00029526738)
(17.773934 0.014723808 -0.00035138342)
(17.590851 0.0017886143 -0.00028901105)
(17.462885 -0.0073412902 -6.5867662e-05)
(17.378021 -0.01410985 0.00019133701)
(17.326809 -0.019101764 0.00039262088)
(17.302879 -0.022986584 0.00050513585)
(17.301343 -0.026130369 0.0005594537)
(17.317698 -0.028922498 0.00057589517)
(17.347125 -0.031164636 0.0005277655)
(17.384755 -0.032756639 0.00041862744)
(17.426752 -0.033458513 0.00023996032)
(17.469709 -0.032695434 -6.8156491e-05)
(17.511848 -0.030288789 -0.00049961015)
(17.554782 -0.027036584 -0.00085142568)
(17.603935 -0.023970672 -0.00088875816)
(17.661515 -0.020104144 -0.00063870103)
(17.725399 -0.014597062 -0.00053621063)
(17.800297 -0.0088255043 -0.00086984862)
(17.898089 -0.0044527387 -0.0013691087)
(20.383627 -0.00016260985 -0.10021008)
(19.382631 -0.00085955722 -0.11545795)
(18.866214 -0.0014847088 -0.10243583)
(18.367484 -0.0023158185 -0.08546734)
(18.010836 -0.0026849395 -0.070033875)
(17.750514 -0.0026529193 -0.057517213)
(17.566356 -0.002709834 -0.047542388)
(17.437774 -0.0028081439 -0.039530107)
(17.352244 -0.0028084308 -0.03296941)
(17.301016 -0.0025488053 -0.027644407)
(17.277365 -0.002149218 -0.023414942)
(17.276197 -0.0018552366 -0.020241819)
(17.292929 -0.0018726666 -0.018174367)
(17.322639 -0.0020560819 -0.017239631)
(17.360543 -0.0021117836 -0.017360065)
(17.40261 -0.0017166729 -0.018225038)
(17.445265 -0.00047713938 -0.019394828)
(17.486117 0.0017226683 -0.01999418)
(17.526687 0.0041690853 -0.018857271)
(17.574276 0.0058079583 -0.0153522)
(17.632853 0.0066319393 -0.0096144632)
(17.698835 0.0071249576 -0.0017817226)
(17.775169 0.0068883092 0.008329809)
(17.873796 0.0056098325 0.02050585)
(20.521511 -0.045481434 -0.20073478)
(19.547925 -0.091921114 -0.22902212)
(19.061889 -0.089436715 -0.20314223)
(18.587694 -0.064566844 -0.16960368)
(18.246317 -0.041840249 -0.13975129)
(17.992406 -0.023352705 -0.11531538)
(17.808254 -0.010659382 -0.095838109)
(17.674731 -0.0019291732 -0.080429776)
(17.580344 0.0046447089 -0.067824437)
(17.516787 0.0099579616 -0.057581266)
(17.477925 0.01455446 -0.049437029)
(17.459041 0.018311817 -0.043312613)
(17.455927 0.021116654 -0.03932263)
(17.464374 0.02311539 -0.037412709)
(17.479817 0.024754377 -0.037576719)
(17.497989 0.026375833 -0.0392267)
(17.515266 0.028119637 -0.041327642)
(17.529655 0.030180022 -0.042143825)
(17.543714 0.032192573 -0.039541781)
(17.565508 0.033077185 -0.032385586)
(17.600095 0.031472024 -0.020772505)
(17.645759 0.027337214 -0.0045562195)
(17.706694 0.021414012 0.016719646)
(17.795221 0.014877076 0.042198606)
(20.862771 -0.10413428 -0.30776173)
(19.964066 -0.18385838 -0.33795073)
(19.559829 -0.17304777 -0.29761048)
(19.147767 -0.12229864 -0.24889688)
(18.844119 -0.080187592 -0.20864667)
(18.60637 -0.045083689 -0.17415868)
(18.423828 -0.021154835 -0.14669984)
(18.282129 -0.0047339612 -0.12481353)
(18.171924 0.0077513397 -0.10674187)
(18.086303 0.017411081 -0.091925557)
(18.020298 0.025555517 -0.080107877)
(17.969309 0.032264879 -0.071161473)
(17.930492 0.037545509 -0.06527989)
(17.900149 0.041442413 -0.062368923)
(17.874326 0.044500552 -0.06248848)
(17.848695 0.047064412 -0.064787783)
(17.820439 0.04908134 -0.067676958)
(17.787589 0.050890066 -0.068665371)
(17.75352 0.05248837 -0.06465331)
(17.724654 0.052669924 -0.053925864)
(17.707821 0.048978329 -0.036059894)
(17.707697 0.041210865 -0.01051886)
(17.733479 0.031055966 0.023118995)
(17.798308 0.020726534 0.063148156)
(21.387011 -0.15162386 -0.40167312)
(20.658757 -0.24012724 -0.41368361)
(20.462544 -0.22757083 -0.36675918)
(20.169786 -0.15845034 -0.31411516)
(19.93219 -0.1019416 -0.26971114)
(19.722428 -0.059026782 -0.23236361)
(19.547216 -0.028737689 -0.20119138)
(19.409129 -0.0071679362 -0.17491173)
(19.296086 0.0097794022 -0.15277758)
(19.206998 0.023156987 -0.13397529)
(19.136735 0.034483787 -0.11852484)
(19.078786 0.044109928 -0.10629784)
(19.032421 0.052149579 -0.09767968)
(18.991506 0.058473435 -0.092558384)
(18.954922 0.063363435 -0.091122005)
(18.914875 0.067176353 -0.092334595)
(18.872142 0.069520043 -0.094496265)
(18.820961 0.070611889 -0.094501268)
(18.766838 0.070461673 -0.08864193)
(18.709201 0.068010117 -0.074127371)
(18.658457 0.061004504 -0.049056081)
(18.624653 0.049542978 -0.012348923)
(18.622818 0.035596897 0.035854478)
(18.664331 0.021536571 0.092377815)
(21.396914 0.15027555 0.40155246)
(20.669691 0.23750353 0.41375205)
(20.472894 0.22465523 0.36717716)
(20.177621 0.15522144 0.31500312)
(19.937025 0.098895546 0.27089194)
(19.724437 0.056382928 0.2333921)
(19.54665 0.026341272 0.20219173)
(19.405186 0.0047106496 0.17585298)
(19.290074 -0.012272471 0.1537261)
(19.199455 -0.02530924 0.13486338)
(19.12742 -0.036073495 0.11935431)
(19.067779 -0.045251931 0.10705946)
(19.018573 -0.053303598 0.098507204)
(18.973388 -0.06002815 0.093430018)
(18.932585 -0.06541699 0.091962346)
(18.888789 -0.069470378 0.092983067)
(18.843703 -0.071301388 0.094641159)
(18.792583 -0.070539128 0.093586906)
(18.742288 -0.067108537 0.086212563)
(18.693789 -0.061229701 0.070489788)
(18.656735 -0.052031212 0.044941331)
(18.63958 -0.039510532 0.0081795965)