/*--------------------------------*- C++ -*----------------------------------*\
| =========                 |                                                 |
| \\      /  F ield         | OpenFOAM: The Open Source CFD Toolbox           |
|  \\    /   O peration     | Version:  4.1                                   |
|   \\  /    A nd           | Web:      www.OpenFOAM.org                      |
|    \\/     M anipulation  |                                                 |
\*---------------------------------------------------------------------------*/
FoamFile
{
    version     2.0;
    format      ascii;
    class       volVectorField;
    location    "0.000010";
    object      U;
}
// * * * * * * * * * * * * * * * * * * * * * * * * * * * * * * * * * * * * * //

dimensions      [0 1 -1 0 0 0 0];

internalField   nonuniform List<vector> 
6144
(
(0.25158176 0.0024826377 3.8339803e-05)
(0.24079741 0.0042110759 3.980412e-05)
(0.23334533 0.0045815475 4.7552528e-05)
(0.2261945 0.0044726483 2.7335404e-05)
(0.22014287 0.0041668493 -1.3796602e-05)
(0.21508689 0.0038371331 -3.4891204e-05)
(0.21089413 0.0034578734 -3.8133181e-05)
(0.20758025 0.0029292242 -3.3023231e-05)
(0.20532271 0.0022760426 -2.0052068e-05)
(0.20427911 0.0015505714 -2.6985902e-05)
(0.20453115 0.00078559121 -2.3223326e-05)
(0.20612924 -4.0129524e-06 4.0592656e-06)
(0.20904221 -0.00085106493 4.2472968e-05)
(0.21333383 -0.0017709142 5.9875418e-05)
(0.21888952 -0.0026464944 9.8921016e-05)
(0.22537766 -0.0033810806 0.00010711982)
(0.23240984 -0.0040270025 8.3303297e-05)
(0.23966813 -0.0045120101 9.531701e-05)
(0.24683367 -0.0047357764 0.0001066114)
(0.25336829 -0.0045885076 0.00011212842)
(0.25856875 -0.0040420528 0.00010499118)
(0.26190659 -0.0028515057 9.2564828e-05)
(0.2579496 -0.0013846513 5.4720898e-05)
(0.25313905 0.00025844487 -5.7201204e-05)
(0.24873756 0.0013927446 -9.2346177e-05)
(0.24467752 0.0020582462 -7.1263904e-05)
(0.24106332 0.0023333806 -5.9671801e-05)
(0.23780235 0.0023624997 -7.7619565e-05)
(0.23484247 0.0022583322 -9.2227942e-05)
(0.23221392 0.0020617021 -9.8197113e-05)
(0.2300125 0.0017937314 -0.00011964132)
(0.22836886 0.0014898953 -0.00011772355)
(0.22739664 0.0011635616 -6.5947386e-05)
(0.22714873 0.00081719653 -3.6430322e-05)
(0.22763975 0.00043866696 -2.6867075e-05)
(0.22885652 3.2803573e-06 3.3835635e-06)
(0.23076064 -0.00047336524 3.6472385e-05)
(0.23332391 -0.00097093677 5.7840229e-05)
(0.23648509 -0.0015473808 7.2867328e-05)
(0.24018722 -0.0022603171 0.00010251712)
(0.24440239 -0.0032209826 0.00014293885)
(0.24909347 -0.0046733127 0.00017963378)
(0.25408976 -0.0071336494 0.00018242937)
(0.25976608 -0.011692657 0.00015059305)
(0.26783715 -0.020235906 7.0216669e-05)
(0.28310814 -0.036556275 -2.5169793e-05)
(0.26059362 -0.077217619 0.00049360573)
(0.3281744 -0.071770688 0.00033091463)
(0.25138206 0.00075867025 -0.00048682808)
(0.2427364 0.0012716311 -0.0014260787)
(0.23670514 0.0018357902 -0.0013672478)
(0.23067067 0.0021491197 -0.0011745045)
(0.22547487 0.0022566796 -0.00099799064)
(0.2210671 0.0022733512 -0.00084863591)
(0.21733933 0.0022027154 -0.00070795612)
(0.21431976 0.0019864718 -0.00053975072)
(0.21224017 0.0016411919 -0.00033443457)
(0.21128447 0.0012243299 -0.00014224637)
(0.21151475 0.0007624465 6.6149908e-05)
(0.21298983 0.0002866201 0.00030975537)
(0.21569029 -0.00023145066 0.00057426926)
(0.21964135 -0.00079793677 0.00081067899)
(0.22468017 -0.0012773377 0.001044202)
(0.2304521 -0.0016516142 0.0011875919)
(0.23654638 -0.0019544935 0.0012481831)
(0.24266071 -0.0021679401 0.0012888673)
(0.24857613 -0.0021967231 0.0012804659)
(0.25390242 -0.0019891835 0.0011838137)
(0.25791684 -0.0016027361 0.00092856222)
(0.2603788 -0.0011019263 0.00028014087)
(0.25589608 -0.00049603909 -0.00041036498)
(0.24979476 0.00058952416 -0.00075408821)
(0.2441587 0.0014660332 -0.00092230855)
(0.23902975 0.0019978856 -0.00098124322)
(0.23452965 0.0022279028 -0.00095485653)
(0.23055523 0.0022640792 -0.00088967061)
(0.22702274 0.0021630664 -0.00078785909)
(0.22393298 0.0019451106 -0.0006774896)
(0.22137792 0.0016640236 -0.00059153415)
(0.21950158 0.0013602662 -0.0004888694)
(0.21843255 0.001017357 -0.00035919815)
(0.21818198 0.00063622118 -0.00025283993)
(0.21870262 0.00022278752 -0.00015632431)
(0.21998971 -0.00024309969 -2.904378e-05)
(0.22205071 -0.00073422906 0.0001123041)
(0.22487509 -0.001242242 0.00025706411)
(0.22837941 -0.00182789 0.00041481542)
(0.23256074 -0.0024850956 0.00064615154)
(0.23752215 -0.0032819318 0.00097840157)
(0.24331428 -0.0043937872 0.0014177234)
(0.24977242 -0.0060768044 0.0020657475)
(0.25722571 -0.0087396719 0.0031909821)
(0.26729464 -0.012607647 0.0053891219)
(0.28483768 -0.017319055 0.010183546)
(0.2603338 -0.035032344 0.023590658)
(0.34996687 -0.029972451 0.018646893)
(0.25314135 0.00011396765 -0.00058326119)
(0.24701126 0.00023764759 -0.0015874454)
(0.24271163 0.0007839654 -0.0015753205)
(0.23810158 0.0012181726 -0.0013687362)
(0.23398947 0.0014944054 -0.0011438193)
(0.23038906 0.0016356722 -0.00096030231)
(0.2272667 0.0016607966 -0.00079965748)
(0.22467049 0.0015597315 -0.00058855499)
(0.22288088 0.0013587883 -0.00029979734)
(0.22213205 0.0011016653 -2.4442197e-05)
(0.22241969 0.00078995963 0.00025617418)
(0.22375503 0.00045451442 0.00057218284)
(0.22606169 9.1021814e-05 0.00090401209)
(0.22937946 -0.00027266084 0.0011997267)
(0.23355248 -0.00055973693 0.0014195505)
(0.23821224 -0.00079985203 0.0015020633)
(0.24303085 -0.00099970224 0.0014817431)
(0.24773357 -0.0011702182 0.0013971085)
(0.25215704 -0.0011977694 0.0012485935)
(0.2560304 -0.0010873615 0.0010148892)
(0.25817979 -0.00095274406 0.00064436603)
(0.25886944 -0.00095473635 -0.00029081753)
(0.25620903 -0.00061744963 -0.0012320031)
(0.25104956 0.00021575662 -0.0015477712)
(0.24655832 0.0010529167 -0.0016598058)
(0.24249459 0.0015923302 -0.0016667905)
(0.23890785 0.0018613273 -0.0015891659)
(0.23571293 0.0019461081 -0.0014857031)
(0.23283449 0.0018792164 -0.0013387321)
(0.23028267 0.0016815081 -0.0011563072)
(0.22818216 0.0014608622 -0.00095527408)
(0.22667425 0.0012327715 -0.00071896799)
(0.2258429 0.00093299637 -0.00046775458)
(0.2256956 0.00060237677 -0.00022018973)
(0.22620123 0.00024611703 3.2818627e-05)
(0.22737448 -0.00015350695 0.00032636014)
(0.22925551 -0.00058072868 0.00062579802)
(0.23181333 -0.0010440816 0.00090319594)
(0.23492613 -0.0015650419 0.0011968238)
(0.23859814 -0.0021441794 0.0015510695)
(0.24262865 -0.0028175417 0.0019944932)
(0.2472989 -0.0037375594 0.0025128303)
(0.25250692 -0.0050828391 0.0032065504)
(0.25859475 -0.0069854586 0.004324208)
(0.2672095 -0.009300986 0.0063355795)
(0.28441776 -0.011815044 0.010815106)
(0.25797156 -0.028130234 0.023383157)
(0.35221943 -0.022630991 0.016646704)
(0.25505266 -0.00017942263 -0.00060184192)
(0.25134737 -0.00014964421 -0.0014966712)
(0.24882493 0.00032602107 -0.001499874)
(0.24569164 0.00076447297 -0.0012991977)
(0.24270149 0.0010974544 -0.0010650061)
(0.23995255 0.0012855285 -0.00086749072)
(0.23750816 0.0013402171 -0.00069935713)
(0.23542775 0.0013039396 -0.00046587089)
(0.23401079 0.0011988307 -0.00012883894)
(0.23355271 0.0010454413 0.00017778981)
(0.23395478 0.00083467261 0.00046462308)
(0.23509873 0.00056256361 0.00077080173)
(0.2367845 0.00025719672 0.0010975387)
(0.23889198 -3.8422495e-06 0.0013777692)
(0.24144764 -0.00018572421 0.0015354937)
(0.24423469 -0.00037184992 0.0015526328)
(0.24710995 -0.00056545378 0.0014786965)
(0.24997452 -0.00077460084 0.001325435)
(0.25271377 -0.00086687382 0.0011086268)
(0.25511305 -0.00088241622 0.00079290995)
(0.25626962 -0.00094046061 0.00032199776)
(0.25667535 -0.0010346318 -0.00066352047)
(0.25668908 -0.00072743074 -0.0017001926)
(0.25278897 -6.7679011e-05 -0.0020235341)
(0.24953524 0.00084599508 -0.0020393569)
(0.24663314 0.0014246195 -0.0020094853)
(0.24397279 0.0017153669 -0.0019202477)
(0.2415621 0.0018196268 -0.0018209159)
(0.23934261 0.0017669968 -0.0016614493)
(0.23735136 0.0015846646 -0.0014327794)
(0.23573913 0.0014066638 -0.001151792)
(0.23460495 0.0012214392 -0.00082156326)
(0.23398644 0.00094310543 -0.000473761)
(0.23391256 0.00063384105 -0.00012923147)
(0.2343526 0.00028792243 0.00022485614)
(0.23533744 -9.4692079e-05 0.00062579272)
(0.23674043 -0.00050033671 0.0010153626)
(0.23864406 -0.00093924456 0.0013647045)
(0.24097476 -0.001406718 0.0017253926)
(0.24355909 -0.0019280053 0.0020966345)
(0.2463049 -0.0024909722 0.0025480912)
(0.24950408 -0.0031969684 0.0031185293)
(0.25334655 -0.0042214154 0.0039371878)
(0.25824925 -0.0056712851 0.005312135)
(0.26591405 -0.0074834274 0.007746012)
(0.28371045 -0.010177519 0.012493304)
(0.25624527 -0.026558683 0.0245759)
(0.35807416 -0.021154566 0.01660183)
(0.25665742 -0.00020208532 -0.00055660595)
(0.25478982 -4.8552714e-05 -0.0012525212)
(0.25339354 0.00033695916 -0.0012661767)
(0.25097203 0.0007090753 -0.0011189711)
(0.24816484 0.0010397261 -0.00093024789)
(0.24522284 0.0012270736 -0.00075805746)
(0.24239244 0.0012466619 -0.00059551998)
(0.23979349 0.0012225149 -0.00032782617)
(0.23765708 0.0011397379 4.6939261e-05)
(0.2362081 0.00099780847 0.00037344484)
(0.23544458 0.00082246257 0.00067676041)
(0.23543296 0.00055386912 0.00097088725)
(0.23601931 0.00020006551 0.0012406196)
(0.23708706 -8.3071715e-05 0.0014546852)
(0.23863957 -0.00026291205 0.0015489119)
(0.24048492 -0.00048001361 0.0015188477)
(0.24263573 -0.0007073163 0.001449334)
(0.24512943 -0.00094410569 0.001306157)
(0.24777977 -0.001084397 0.0010731992)
(0.25033648 -0.0011447591 0.0007157032)
(0.25237401 -0.0011490577 0.00014988015)
(0.25409938 -0.0011196815 -0.00078162338)
(0.25606682 -0.00093561788 -0.001881762)
(0.25466191 -0.00020936919 -0.0023141859)
(0.25260664 0.00085180068 -0.0022615353)
(0.25063207 0.0014528663 -0.0022537173)
(0.24803718 0.001709817 -0.0021767695)
(0.24553048 0.0017879104 -0.0020617263)
(0.24318743 0.0017258291 -0.0018576048)
(0.24107033 0.0015660807 -0.001565899)
(0.23927804 0.0014001924 -0.0012221354)
(0.23775195 0.001190325 -0.00084107943)
(0.23661601 0.00091060907 -0.00043177243)
(0.23595718 0.00061790743 -3.1562373e-05)
(0.23580663 0.00028435012 0.00035694766)
(0.23622573 -8.7031493e-05 0.00075809561)
(0.23699686 -0.00045775097 0.0011373796)
(0.23819347 -0.0008470921 0.0014957081)
(0.23983029 -0.0012548088 0.0018685326)
(0.24171307 -0.0016680227 0.0022570905)
(0.24401131 -0.0021070055 0.0027418664)
(0.2468021 -0.0026429356 0.0034414099)
(0.25035099 -0.0034380468 0.0045651003)
(0.25525982 -0.004723671 0.0064952233)
(0.26349647 -0.0066651294 0.0098024507)
(0.28263204 -0.0096705194 0.015129694)
(0.25491459 -0.026944606 0.027792588)
(0.36966609 -0.021254292 0.017785554)
(0.2571128 -7.5029259e-05 -0.00060085126)
(0.25529971 0.00035961399 -0.0012921749)
(0.25334034 0.00067086313 -0.001428163)
(0.24995071 0.00091564358 -0.0013858056)
(0.2457939 0.0011539358 -0.0012570234)
(0.24133728 0.001265928 -0.0010824644)
(0.23700654 0.001202552 -0.00086281435)
(0.23299047 0.0011350438 -0.00050811624)
(0.22947452 0.00098976108 -7.6439586e-05)
(0.22665757 0.00080749056 0.00031245283)
(0.22471178 0.00064490608 0.00069583936)
(0.22387721 0.00040243807 0.0010688388)
(0.22415396 5.3381213e-05 0.0013887531)
(0.22548231 -0.0002481252 0.0016212146)
(0.22758965 -0.00044937848 0.0017326446)
(0.2301763 -0.00068609904 0.0017144679)
(0.23323989 -0.00090659487 0.0016909623)
(0.23679354 -0.0011117285 0.0015935441)
(0.24062366 -0.0012508758 0.0013560117)
(0.24444035 -0.0013002348 0.00095346334)
(0.24808544 -0.0012580713 0.00034727813)
(0.25143839 -0.0011223068 -0.00056911314)
(0.25481572 -0.00093549251 -0.0017612443)
(0.25652784 -0.00012432073 -0.0023965676)
(0.2546267 0.00094698173 -0.0024127223)
(0.25179473 0.0014343667 -0.0024977045)
(0.24807954 0.0015792604 -0.0024680262)
(0.24447714 0.0015812947 -0.0023137892)
(0.2410061 0.0014665348 -0.0020514591)
(0.23778603 0.0013314919 -0.0016961625)
(0.23494505 0.0011642726 -0.0013103038)
(0.23249341 0.00092032975 -0.00091665949)
(0.23059211 0.00067885363 -0.00049564033)
(0.2292875 0.00045200498 -8.3834416e-05)
(0.22864689 0.00020579879 0.00031288122)
(0.22871296 -6.1844689e-05 0.0007027209)
(0.22940065 -0.00032327449 0.0010760834)
(0.2306447 -0.00061200125 0.0014570533)
(0.23244301 -0.00091915551 0.0018633276)
(0.2347635 -0.0011991748 0.0023204964)
(0.23761869 -0.0015370663 0.0029101986)
(0.24108756 -0.0019792109 0.0038154628)
(0.24542303 -0.0026372688 0.0053519189)
(0.25118542 -0.0038044232 0.008031314)
(0.26041133 -0.0058103204 0.012500292)
(0.28124635 -0.0095043032 0.018991005)
(0.25381393 -0.027264821 0.034034286)
(0.38195893 -0.020538903 0.020115765)
(0.25664318 9.7150626e-05 -0.00085882582)
(0.25349321 0.00076742517 -0.0019106523)
(0.25007983 0.0010107153 -0.0022400757)
(0.24520468 0.0011044304 -0.0022556612)
(0.23964674 0.001180739 -0.0021113155)
(0.23393736 0.0011563465 -0.0018437948)
(0.22852393 0.0010117407 -0.0014709555)
(0.22357784 0.00087986879 -0.00098780055)
(0.2192726 0.0006795559 -0.00045218325)
(0.21586019 0.00049946538 9.1529162e-05)
(0.2135437 0.00037944862 0.00060915728)
(0.21250657 0.00021790714 0.001109283)
(0.21285118 -4.5669431e-05 0.0015786367)
(0.21445267 -0.00029898718 0.0019141783)
(0.21698018 -0.00048704509 0.0021043248)
(0.22022936 -0.00071176126 0.0021835192)
(0.2241685 -0.0008985169 0.0022483183)
(0.22874923 -0.0010610787 0.0022325215)
(0.23377541 -0.0012064307 0.0020426364)
(0.23895469 -0.00126903 0.0016431425)
(0.24408013 -0.0012110043 0.0010098763)
(0.24898509 -0.0010250185 5.1846034e-05)
(0.25371838 -0.000726483 -0.001251948)
(0.2580168 -2.1446168e-05 -0.002283756)
(0.25487994 0.00065414056 -0.00262601)
(0.2503531 0.00090336593 -0.0029065375)
(0.24552739 0.00094618411 -0.0029256058)
(0.24073422 0.00088937523 -0.0027284485)
(0.23614645 0.00075418743 -0.0024070497)
(0.23193662 0.00066205156 -0.0020007153)
(0.22825086 0.00057284016 -0.0015662009)
(0.22524651 0.00042669708 -0.0011118626)
(0.2230048 0.00030432064 -0.00065821142)
(0.22151913 0.00020642549 -0.00022668711)
(0.22082171 0.00010508372 0.00022035001)
(0.22090671 -7.5166271e-06 0.0006586646)
(0.22171711 -0.00011831315 0.0010744915)
(0.22319235 -0.00026763454 0.0015169387)
(0.2253091 -0.00044029162 0.0019912148)
(0.22805489 -0.00058773018 0.0025228853)
(0.23144259 -0.0008118686 0.0032279666)
(0.23554594 -0.0011405109 0.0043472084)
(0.24059031 -0.0016868655 0.0063091924)
(0.24709278 -0.0027969316 0.0098618707)
(0.257216 -0.0050403563 0.015998672)
(0.2790139 -0.010022385 0.025216923)
(0.25192185 -0.027306339 0.047594646)
(0.38537804 -0.020872267 0.030975976)
(0.25746416 -9.6517616e-06 -0.0019090852)
(0.25329576 5.5720796e-06 -0.0042297133)
(0.24857423 3.3369193e-05 -0.0048260276)
(0.24233252 7.3293258e-05 -0.0047025905)
(0.23552445 0.00014920185 -0.0042779474)
(0.2287764 0.00018955863 -0.0036451425)
(0.22253475 0.00018106995 -0.0028512895)
(0.21695151 0.00018872391 -0.0020008122)
(0.21217163 0.00016918953 -0.0011105837)
(0.20847788 0.00018330352 -0.00019663817)
(0.20608074 0.00023411595 0.00061632579)
(0.20508264 0.00024685178 0.0013642801)
(0.20554515 0.00016861067 0.0020953891)
(0.20733936 7.1755388e-05 0.0026844857)
(0.21019814 -8.1444668e-06 0.0031196436)
(0.21398964 -0.00010955084 0.0034646844)
(0.21863512 -0.00017235695 0.0037637657)
(0.22401675 -0.0002168358 0.003962095)
(0.22996544 -0.00027695333 0.0039806305)
(0.23621188 -0.0003027985 0.0037196247)
(0.24249379 -0.0002527351 0.003112853)
(0.2485674 -0.00013287887 0.0020418227)
(0.25426903 3.6134227e-05 0.00035799394)
(0.25946371 6.7045422e-05 -0.0014633109)
(0.25678965 -5.0733246e-05 -0.0024407263)
(0.25321414 -0.00013873718 -0.002964752)
(0.24947845 -0.00020566816 -0.0030273064)
(0.24553946 -0.00023068338 -0.0028030782)
(0.24168595 -0.00021964076 -0.0024400397)
(0.23814387 -0.00017121586 -0.0020266536)
(0.23501949 -0.00011799246 -0.0015825522)
(0.23242065 -8.8883313e-05 -0.0011117864)
(0.23043893 -7.3917119e-05 -0.00066854303)
(0.22914821 -5.077804e-05 -0.00025891644)
(0.22857931 -1.8295982e-05 0.00016520815)
(0.22872071 7.6064913e-07 0.00058112562)
(0.22955853 5.9633474e-06 0.00098011537)
(0.23101976 -1.7814017e-05 0.0014195355)
(0.23303797 -4.7044005e-05 0.0019197694)
(0.23562138 -4.190564e-05 0.0025111684)
(0.2387283 -3.973377e-05 0.0033697939)
(0.24232802 4.1079746e-06 0.0048562285)
(0.24650919 0.00012174227 0.0076690819)
(0.2515348 0.00028406637 0.013176487)
(0.25948145 0.00045890956 0.023684353)
(0.27596323 0.00054724974 0.042973283)
(0.24758973 0.00044288639 0.08887551)
(0.34006506 -0.00029052098 0.067197245)
(0.25136167 0.00076007742 0.00053200653)
(0.24269931 0.0013075392 0.0014121502)
(0.23665227 0.0018837409 0.0013405746)
(0.23059122 0.0021913977 0.0011206907)
(0.22543095 0.0022938538 0.00089168595)
(0.22111912 0.0023066319 0.00072202495)
(0.21746838 0.0022361361 0.0005796145)
(0.21445784 0.0020119421 0.00042868732)
(0.21231104 0.0016499063 0.00026632519)
(0.21125752 0.0012482432 5.2459788e-05)
(0.21142727 0.0007957863 -0.00015132947)
(0.21287515 0.00031638098 -0.00032864701)
(0.21554353 -0.0002263816 -0.00049185311)
(0.219468 -0.00086145213 -0.00063718958)
(0.22449396 -0.0013727391 -0.00075373518)
(0.23025604 -0.0017574163 -0.00084579672)
(0.23633836 -0.0020474443 -0.00095324971)
(0.24246662 -0.0022188811 -0.0010201082)
(0.24839384 -0.0022100341 -0.0010381902)
(0.25364661 -0.0019808992 -0.00097161885)
(0.25777132 -0.0016037878 -0.00073670678)
(0.25998207 -0.0011893327 -6.6163277e-05)
(0.25573491 -0.00052815166 0.00057593368)
(0.24965905 0.00058997 0.00074786419)
(0.2441375 0.0014755562 0.00085113124)
(0.23913013 0.0020064351 0.00090531508)
(0.23475935 0.0022446459 0.00086571062)
(0.23096933 0.0022904053 0.00077432619)
(0.22765992 0.0021929507 0.00067182361)
(0.22476528 0.0019860245 0.00055574201)
(0.22240291 0.0017233735 0.00041065716)
(0.22073964 0.0014179628 0.00028233584)
(0.21977351 0.0010694518 0.00018585554)
(0.21949607 0.00069580841 6.2351662e-05)
(0.22003635 0.00030772879 -9.7684819e-05)
(0.22144712 -0.00014709325 -0.00024012307)
(0.22364825 -0.00065267932 -0.00035987781)
(0.22656424 -0.0011707936 -0.00049631491)
(0.23013404 -0.0017728944 -0.00063698944)
(0.23434734 -0.0024740569 -0.00076964435)
(0.23903202 -0.0033385212 -0.0009338356)
(0.24430028 -0.0045044093 -0.0012057579)
(0.25025066 -0.0061914397 -0.0017647352)
(0.25725757 -0.0088108234 -0.0028987189)
(0.26702486 -0.012596772 -0.0051617605)
(0.28483535 -0.017671491 -0.010285466)
(0.25909651 -0.037137568 -0.022476652)
(0.35112887 -0.030494905 -0.017714323)
(0.25098563 -0.00030777384 2.4319162e-05)
(0.24482172 -0.00039810411 -3.1224979e-05)
(0.24052681 0.00020161421 -4.8839246e-05)
(0.23587452 0.00066307372 -6.0650474e-05)
(0.23184453 0.00097113599 -8.6090632e-05)
(0.22843611 0.0011662347 -9.8106576e-05)
(0.22546707 0.0012580456 -9.3849067e-05)
(0.22289885 0.001214059 -6.9493951e-05)
(0.22100759 0.0010686369 -3.8645279e-05)
(0.2200752 0.00090656832 -5.5323407e-05)
(0.22020884 0.00068728985 -5.2193025e-05)
(0.22144878 0.00044931139 -2.1436545e-05)
(0.22375271 0.00016575889 4.4356676e-05)
(0.2271142 -0.0001639362 0.00013761372)
(0.23133473 -0.00037061059 0.00022519231)
(0.23607674 -0.00052155397 0.00025638191)
(0.2409761 -0.00064423319 0.0002135658)
(0.24578222 -0.00072426351 0.0001668109)
(0.25035804 -0.0007027718 0.00012949553)
(0.25443555 -0.00058306164 0.00010386948)
(0.25747875 -0.00039250494 0.00010135311)
(0.25918009 -0.00024788302 0.00013228906)
(0.25429382 -0.00034394542 0.00010730749)
(0.24754732 0.00031632903 -1.028935e-05)
(0.24123257 0.0010724418 -4.2479052e-05)
(0.2354157 0.0015757456 -2.824712e-05)
(0.23027623 0.0018311945 -3.557115e-05)
(0.22574746 0.0019205029 -5.7129471e-05)
(0.2217186 0.0018453001 -6.5048042e-05)
(0.21813678 0.0016348778 -8.0535483e-05)
(0.21515784 0.0014133175 -0.00012029893)
(0.2129928 0.0011899429 -0.00013199013)
(0.21168896 0.00090586695 -0.00011003076)
(0.21120039 0.00057722949 -0.00011833929)
(0.21155306 0.00023857144 -0.00016641706)
(0.21279362 -0.00015957693 -0.00018445447)
(0.21491117 -0.00058914944 -0.00016447779)
(0.21785343 -0.0010411394 -0.00013738783)
(0.22152774 -0.0015734294 -0.00011505983)
(0.22598959 -0.0021583502 -6.9399423e-05)
(0.23141909 -0.0028705424 3.3772846e-05)
(0.23795747 -0.0038243626 0.00013562676)
(0.24579512 -0.0051767993 0.00016268535)
(0.25521747 -0.0071381845 0.00014369876)
(0.26782919 -0.0095114847 0.00012846959)
(0.28996976 -0.010831904 4.5704796e-05)
(0.26175506 -0.021421837 0.00096997756)
(0.38160358 -0.018823407 0.00089872462)
(0.25268767 -0.00057730302 -8.3197534e-05)
(0.24900521 -0.00092620732 -0.00049295769)
(0.2465304 -0.00038052445 -0.00050678097)
(0.24342319 0.00012098364 -0.00042071588)
(0.24060412 0.00052386336 -0.00033938228)
(0.238131 0.00077102243 -0.00028330025)
(0.23588892 0.00087370653 -0.00022873625)
(0.23383838 0.00087618241 -0.00013579766)
(0.23229046 0.00082754004 -2.2244729e-06)
(0.23160292 0.00078695763 8.2652036e-05)
(0.23181052 0.0007015262 0.00017654096)
(0.23287003 0.00057985889 0.00029158974)
(0.23478679 0.000409297 0.00044315378)
(0.23743281 0.00023310755 0.00062627869)
(0.2406194 0.00015182922 0.00074176853)
(0.24412537 6.0809422e-05 0.00073613862)
(0.24766654 -4.4221313e-05 0.00063471667)
(0.25102873 -0.00014952827 0.00049737959)
(0.25411944 -0.00016823718 0.00036474728)
(0.25675762 -0.00015559299 0.00023778759)
(0.25845146 -0.00013548678 5.5015789e-05)
(0.25867848 -0.00037217922 -0.00047511453)
(0.25511007 -0.00073346623 -0.00095499254)
(0.24956535 -0.00028359419 -0.0010159512)
(0.24455983 0.00047082601 -0.00096930481)
(0.23991076 0.0010008715 -0.00089375649)
(0.23572324 0.0012946937 -0.00083459263)
(0.23194248 0.0014325186 -0.00080117499)
(0.2284862 0.0013937156 -0.0007393324)
(0.22535487 0.0012170278 -0.00065963554)
(0.22275237 0.0010794854 -0.00057507633)
(0.22086558 0.00095447344 -0.00045365989)
(0.21970198 0.00073990127 -0.00031265033)
(0.21922416 0.00049920577 -0.00017579733)
(0.21946281 0.00025281705 -6.2616992e-05)
(0.22048548 -4.0674343e-05 8.1387789e-05)
(0.22231469 -0.0003645452 0.00024675691)
(0.22487176 -0.00072402852 0.00041306396)
(0.22804766 -0.0011358835 0.00059622136)
(0.23193129 -0.0015974668 0.00080732495)
(0.23668137 -0.0021502622 0.0011096965)
(0.2423959 -0.0029001707 0.0014395821)
(0.24926673 -0.004009837 0.0017607647)
(0.25762012 -0.005582971 0.0021778777)
(0.26906947 -0.0073662359 0.0028406808)
(0.2914466 -0.0082689703 0.004140217)
(0.26224728 -0.018031946 0.0087425901)
(0.38256579 -0.01597826 0.0057826853)
(0.25454089 -0.0006603212 -0.0001599841)
(0.25304457 -0.00097183126 -0.00060201688)
(0.25224134 -0.00051839285 -0.0006046247)
(0.25057715 -7.6895908e-05 -0.00047562062)
(0.24887214 0.00032580978 -0.00034401674)
(0.24726142 0.00057736699 -0.0002479986)
(0.24571985 0.00065211652 -0.00016895822)
(0.24421283 0.00067345432 -3.2381411e-05)
(0.24304435 0.00069102264 0.0001655826)
(0.24262613 0.00072799076 0.00029306812)
(0.2429295 0.00073486602 0.00040732906)
(0.24379342 0.00067254071 0.00052562287)
(0.24522785 0.00053282661 0.00067423338)
(0.24701176 0.00040592753 0.00086163238)
(0.24883116 0.00036830233 0.00095649353)
(0.25064565 0.00028618572 0.00090815948)
(0.25243204 0.00015471658 0.00076297422)
(0.25412267 2.9437168e-06 0.00056314503)
(0.25565014 -7.0375194e-05 0.00035679698)
(0.25687582 -0.00013422262 0.00013768901)
(0.25743754 -0.00023955155 -0.00018944154)
(0.2570591 -0.00059352578 -0.00091822934)
(0.2559973 -0.00086589831 -0.001610094)
(0.25191001 -0.00054838803 -0.0016208571)
(0.2483133 0.00028202487 -0.0014090964)
(0.24488338 0.00082716384 -0.0012690061)
(0.24168586 0.0011149727 -0.001183491)
(0.23868374 0.0012404072 -0.0011539556)
(0.23583811 0.0011970797 -0.0010761625)
(0.23323015 0.0010476451 -0.00093781214)
(0.23109506 0.00094694514 -0.00078627551)
(0.22953027 0.00083438814 -0.00060465485)
(0.22850449 0.00064500251 -0.00039053271)
(0.2280267 0.00044754271 -0.00016748188)
(0.22812009 0.00023256326 3.8883547e-05)
(0.22885539 -1.1636648e-05 0.00029044402)
(0.23030207 -0.00027773435 0.00054938235)
(0.23236648 -0.00059148466 0.000789156)
(0.23493548 -0.00093461961 0.0010640421)
(0.23803244 -0.0012984651 0.001376098)
(0.24183072 -0.0017203115 0.0017870833)
(0.24629587 -0.0022685333 0.0022536458)
(0.2516411 -0.0030718028 0.0028066952)
(0.25852822 -0.0042539747 0.0036568306)
(0.26886762 -0.0056663915 0.0051279817)
(0.2922746 -0.00687359 0.0079513335)
(0.26148679 -0.018037947 0.013413455)
(0.38990499 -0.014874711 0.0084022252)
(0.25594608 -0.00051998886 -0.00013388324)
(0.25584625 -0.00063708406 -0.00046001818)
(0.25592716 -0.00031526254 -0.0004507506)
(0.25485601 -5.901769e-06 -0.00032471694)
(0.25331267 0.00034407075 -0.00019778437)
(0.25158522 0.00057309778 -0.00010674194)
(0.24980883 0.00058401368 -2.3191279e-05)
(0.24799142 0.00059108534 0.00015751459)
(0.2463792 0.00061134936 0.00039419082)
(0.24522907 0.00065051356 0.00053551585)
(0.24457251 0.00070204277 0.00065005277)
(0.24450159 0.00066225282 0.00074211809)
(0.24507427 0.00048138067 0.00083586679)
(0.24602252 0.00030759681 0.00094698872)
(0.24701399 0.00023580311 0.00096214239)
(0.24798161 0.00010150463 0.00085631452)
(0.24908477 -6.2126338e-05 0.00070333989)
(0.25041483 -0.00022624637 0.00049848078)
(0.25182707 -0.00033416999 0.00025345741)
(0.25310548 -0.0004142751 -2.8986018e-05)
(0.25408952 -0.00049527015 -0.00043706914)
(0.25461304 -0.0006414351 -0.0011748684)
(0.25546187 -0.00085214575 -0.0019502734)
(0.25422906 -0.00047379676 -0.0020041192)
(0.2518453 0.00040927767 -0.0016437576)
(0.2489268 0.00088452153 -0.0014539391)
(0.24563935 0.0010846146 -0.0013544818)
(0.24235591 0.0011376598 -0.0013182035)
(0.23923028 0.0010601414 -0.0012162444)
(0.23638702 0.00095521864 -0.0010226299)
(0.23398521 0.00085429288 -0.00082276483)
(0.23215349 0.00068141336 -0.00061003279)
(0.23086435 0.00049965768 -0.00035367415)
(0.23006994 0.00032587596 -9.2217055e-05)
(0.22984418 0.00012789039 0.00014898289)
(0.23027666 -7.3857406e-05 0.00043168537)
(0.23134041 -0.00027354306 0.00072079954)
(0.23293557 -0.0005452703 0.00099061805)
(0.23504375 -0.00083911701 0.0012884534)
(0.23766184 -0.0010708869 0.0016266294)
(0.24085207 -0.0013686664 0.0020707465)
(0.24458491 -0.0017479893 0.0026515951)
(0.2492567 -0.0022363326 0.0034979042)
(0.25580406 -0.0030216901 0.0049050698)
(0.26654205 -0.0041605998 0.0073642246)
(0.29248986 -0.0056564636 0.011557345)
(0.26084768 -0.01623522 0.017840079)
(0.40526468 -0.012922741 0.01040232)
(0.25613678 -0.00029219049 -0.00012402997)
(0.25571587 -0.00022332379 -0.00040311699)
(0.25513343 -5.9225026e-05 -0.00045281538)
(0.25312615 9.5952226e-05 -0.00038608863)
(0.25034623 0.00033825529 -0.00030887593)
(0.24727953 0.00049447709 -0.00024127431)
(0.24420432 0.00046340603 -0.0001356165)
(0.24117957 0.00045783117 9.9104047e-05)
(0.2384215 0.00043773034 0.0003650785)
(0.2360925 0.00045255352 0.00053134263)
(0.23436282 0.00052867695 0.00068193974)
(0.23356789 0.00053110148 0.00081894187)
(0.23382145 0.000367378 0.00093768713)
(0.23484931 0.0001849567 0.0010376796)
(0.23633609 8.3301625e-05 0.0010283186)
(0.2380547 -8.6586914e-05 0.00090985558)
(0.24006295 -0.00023667775 0.00080006983)
(0.24245612 -0.00036347225 0.00064026825)
(0.24504949 -0.00047314585 0.0003810304)
(0.24757762 -0.00053250986 3.9887395e-05)
(0.24990317 -0.0005278373 -0.00043437018)
(0.25198618 -0.00048412453 -0.0011714837)
(0.25424132 -0.00048273553 -0.0020241201)
(0.25607258 -0.00011706756 -0.0022326733)
(0.25330439 0.00047447147 -0.0018489388)
(0.24919295 0.00070592184 -0.0017268459)
(0.2445265 0.00077224552 -0.0016713848)
(0.23986173 0.00075460401 -0.0015984978)
(0.23555192 0.00066311755 -0.0014379175)
(0.23170618 0.00061890801 -0.0011809215)
(0.22840122 0.0005468191 -0.00092249925)
(0.22583511 0.00038025688 -0.00066466831)
(0.22400226 0.0002509249 -0.0003703219)
(0.22279535 0.0001393769 -7.4374198e-05)
(0.22229444 2.382231e-05 0.00019961467)
(0.22256945 -8.3684514e-05 0.00049355282)
(0.22353045 -0.00018610235 0.00079316736)
(0.22508877 -0.00036220977 0.0011010012)
(0.227283 -0.00055073317 0.0014336921)
(0.23018549 -0.00065249422 0.0017979623)
(0.23374508 -0.00083253006 0.0022948265)
(0.23803471 -0.0010511474 0.0030370511)
(0.24350412 -0.0012726533 0.0042393377)
(0.25098364 -0.0016452266 0.0062970515)
(0.26286476 -0.0022314936 0.0097742395)
(0.29098225 -0.0031427718 0.014952489)
(0.25993878 -0.010773562 0.023453602)
(0.42277224 -0.0081645886 0.013311144)
(0.25558844 -2.3923996e-05 -0.00015901175)
(0.25374697 -1.6638225e-05 -0.00063342219)
(0.25175804 -5.0246325e-06 -0.00079886105)
(0.24832499 2.3496135e-05 -0.00080341255)
(0.2441634 0.00013242621 -0.00077258807)
(0.23980583 0.00018875589 -0.00069430904)
(0.23556319 0.00014356719 -0.00052259311)
(0.23151684 0.00012269594 -0.00023552512)
(0.22786799 9.1136114e-05 7.6386164e-05)
(0.22481957 0.00012992995 0.00033354313)
(0.22260384 0.0002509163 0.00056982592)
(0.22155902 0.00033736297 0.00081051338)
(0.22180196 0.00027200294 0.0010539799)
(0.22311048 0.00015679608 0.0012226238)
(0.22511431 6.3880718e-05 0.0012526989)
(0.22759689 -7.9046549e-05 0.0011913453)
(0.2305957 -0.00016519342 0.0011501124)
(0.23414784 -0.00021707899 0.0010510671)
(0.23804934 -0.00029857439 0.00080872881)
(0.24200737 -0.00034110604 0.00043208751)
(0.24584573 -0.00027883783 -0.00010508129)
(0.24946842 -0.00012012701 -0.0009069409)
(0.25309231 0.00011410405 -0.0018917605)
(0.2565085 0.0001317427 -0.0024316475)
(0.25278769 -8.382127e-05 -0.0023209038)
(0.24728354 -0.00015364924 -0.0023917394)
(0.24137837 -0.00014941014 -0.0023944951)
(0.23556206 -0.00015473268 -0.0022482821)
(0.23024609 -0.0001590659 -0.0019750139)
(0.22556242 -9.8793931e-05 -0.0016249653)
(0.22158534 -6.3487271e-05 -0.0012729271)
(0.21845594 -9.1700369e-05 -0.00090112901)
(0.21617585 -9.87041e-05 -0.00051794793)
(0.21469169 -8.7184927e-05 -0.000150175)
(0.21402265 -5.0066262e-05 0.00021410526)
(0.2141769 -1.4245135e-05 0.00058085444)
(0.21511927 1.0475321e-05 0.00093479118)
(0.21678169 -1.3165115e-05 0.0013260747)
(0.21918136 -4.2397905e-05 0.0017449601)
(0.2223927 -1.2749479e-05 0.0021804983)
(0.22637942 -3.7052891e-05 0.0027820342)
(0.23123097 -4.3276799e-05 0.0037083684)
(0.23737455 3.0205351e-05 0.0052379855)