# p  FACE_DATA 1536
#  x  y  z  p
-0.024474 -0.0049545 0.00048789 0.0043197
-0.024474 -0.0047639 0.001445 0.0042464
-0.024474 -0.0043904 0.0023468 0.0042194
-0.024474 -0.0038483 0.0031583 0.0042307
-0.024474 -0.0031583 0.0038483 0.004227
-0.024474 -0.0023468 0.0043904 0.0042086
-0.024474 -0.001445 0.0047639 0.0042296
-0.024474 -0.00048789 0.0049545 0.0042973
-0.023423 -0.0049574 0.0004881 0.012111
-0.023424 -0.0047664 0.0014457 0.011936
-0.023424 -0.0043926 0.0023481 0.011895
-0.023423 -0.0038506 0.0031603 0.011929
-0.023423 -0.0031603 0.0038506 0.011918
-0.023424 -0.0023481 0.0043926 0.011864
-0.023424 -0.0014457 0.0047664 0.011888
-0.023423 -0.0004881 0.0049574 0.012048
-0.022376 -0.0049557 0.00048797 0.018427
-0.022376 -0.0047648 0.0014452 0.018297
-0.022376 -0.0043911 0.0023473 0.018282
-0.022376 -0.0038492 0.0031591 0.018325
-0.022376 -0.0031591 0.0038492 0.018309
-0.022376 -0.0023473 0.0043911 0.018237
-0.022376 -0.0014452 0.0047648 0.018225
-0.022376 -0.00048797 0.0049557 0.018333
-0.021331 -0.0049509 0.00048759 0.024519
-0.021331 -0.0047605 0.001444 0.024454
-0.021331 -0.0043873 0.0023451 0.024495
-0.021331 -0.0038455 0.003156 0.024523
-0.021331 -0.003156 0.0038455 0.024506
-0.021331 -0.0023451 0.0043873 0.024446
-0.021331 -0.001444 0.0047605 0.024372
-0.021331 -0.00048759 0.0049509 0.024407
-0.020287 -0.0049479 0.00048732 0.032633
-0.020287 -0.0047578 0.0014433 0.032525
-0.020287 -0.0043848 0.0023437 0.032574
-0.020287 -0.0038432 0.0031541 0.032563
-0.020287 -0.0031541 0.0038432 0.032548
-0.020287 -0.0023437 0.0043848 0.032529
-0.020287 -0.0014433 0.0047578 0.032451
-0.020287 -0.00048732 0.0049479 0.03253
-0.019242 -0.0049487 0.00048736 0.04366
-0.019242 -0.0047584 0.0014434 0.043334
-0.019242 -0.0043853 0.002344 0.043295
-0.019242 -0.0038438 0.0031546 0.043215
-0.019242 -0.0031546 0.0038438 0.043207
-0.019242 -0.002344 0.0043853 0.043271
-0.019242 -0.0014434 0.0047584 0.043291
-0.019242 -0.00048736 0.0049487 0.043599
-0.018197 -0.004951 0.00048758 0.056435
-0.018197 -0.0047605 0.001444 0.055722
-0.018197 -0.0043872 0.0023451 0.055487
-0.018197 -0.0038456 0.003156 0.055311
-0.018197 -0.003156 0.0038456 0.055316
-0.018197 -0.0023451 0.0043872 0.0555
-0.018197 -0.001444 0.0047605 0.055734
-0.018197 -0.00048758 0.004951 0.056451
-0.017151 -0.0049529 0.00048779 0.068353
-0.017151 -0.0047624 0.0014446 0.067043
-0.017151 -0.004389 0.002346 0.066506
-0.017151 -0.003847 0.0031572 0.066257
-0.017151 -0.0031572 0.003847 0.066277
-0.017151 -0.002346 0.004389 0.066568
-0.017151 -0.0014446 0.0047624 0.067137
-0.017151 -0.00048779 0.0049529 0.068451
-0.016106 -0.004954 0.00048792 0.07668
-0.016106 -0.0047635 0.001445 0.075181
-0.016106 -0.00439 0.0023465 0.07415
-0.016106 -0.0038479 0.0031579 0.073907
-0.016106 -0.0031579 0.0038479 0.073948
-0.016106 -0.0023465 0.00439 0.074271
-0.016106 -0.001445 0.0047635 0.075339
-0.016106 -0.00048792 0.004954 0.076863
-0.01506 -0.0049541 0.00048793 0.070791
-0.01506 -0.0047636 0.001445 0.069436
-0.01506 -0.0043901 0.0023466 0.068338
-0.01506 -0.003848 0.003158 0.068094
-0.01506 -0.003158 0.003848 0.068155
-0.01506 -0.0023466 0.0043901 0.068524
-0.01506 -0.001445 0.0047636 0.06967
-0.01506 -0.00048793 0.0049541 0.071066
-0.014015 -0.0049528 0.00048781 0.054121
-0.014015 -0.0047625 0.0014447 0.053438
-0.014015 -0.0043891 0.002346 0.052417
-0.014015 -0.0038471 0.0031572 0.052273
-0.014015 -0.0031572 0.0038471 0.052344
-0.014015 -0.002346 0.0043891 0.052629
-0.014015 -0.0014447 0.0047625 0.05374
-0.014015 -0.00048781 0.0049528 0.054493
-0.012969 -0.0049501 0.00048755 0.026836
-0.012969 -0.0047599 0.0014439 0.02665
-0.012969 -0.0043868 0.0023448 0.026019
-0.012969 -0.003845 0.0031555 0.025986
-0.012969 -0.0031555 0.003845 0.026063
-0.012969 -0.0023448 0.0043868 0.026246
-0.012969 -0.0014439 0.0047599 0.026993
-0.012969 -0.00048755 0.0049501 0.027268
-0.024474 0.00048789 0.0049545 0.0042902
-0.024474 0.001445 0.0047639 0.0042099
-0.024474 0.0023468 0.0043904 0.0041789
-0.024474 0.0031583 0.0038483 0.004189
-0.024474 0.0038483 0.0031583 0.0041881
-0.024474 0.0043904 0.0023468 0.0041756
-0.024474 0.0047639 0.001445 0.0042045
-0.024474 0.0049545 0.00048789 0.0042814
-0.023423 0.0004881 0.0049574 0.012027
-0.023424 0.0014457 0.0047664 0.011831
-0.023424 0.0023481 0.0043926 0.011776
-0.023423 0.0031603 0.0038506 0.011807
-0.023423 0.0038506 0.0031603 0.011805
-0.023424 0.0043926 0.0023481 0.011769
-0.023424 0.0047664 0.0014457 0.011818
-0.023423 0.0049574 0.0004881 0.012005
-0.022376 0.00048796 0.0049557 0.018307
-0.022376 0.0014452 0.0047648 0.018128
-0.022376 0.0023473 0.0043911 0.018098
-0.022376 0.0031591 0.0038492 0.018138
-0.022376 0.0038492 0.0031591 0.018137
-0.022376 0.0043911 0.0023473 0.018092
-0.022376 0.0047648 0.0014452 0.018118
-0.022376 0.0049557 0.00048797 0.018277
-0.021331 0.00048759 0.0049509 0.02437
-0.021331 0.001444 0.0047605 0.024259
-0.021331 0.0023451 0.0043873 0.024278
-0.021331 0.003156 0.0038455 0.0243
-0.021331 0.0038455 0.003156 0.024299
-0.021331 0.0043873 0.0023451 0.024272
-0.021331 0.0047605 0.001444 0.024246
-0.021331 0.0049509 0.00048759 0.024345
-0.020287 0.00048732 0.0049479 0.032491
-0.020287 0.0014432 0.0047578 0.032331
-0.020287 0.0023437 0.0043848 0.032354
-0.020287 0.0031541 0.0038432 0.032333
-0.020287 0.0038432 0.0031541 0.03233
-0.020287 0.0043848 0.0023437 0.032341
-0.020287 0.0047578 0.0014433 0.032312
-0.020287 0.0049479 0.00048732 0.032461
-0.019242 0.00048735 0.0049487 0.043563
-0.019242 0.0014434 0.0047584 0.043177
-0.019242 0.002344 0.0043853 0.043106
-0.019242 0.0031546 0.0038438 0.043003
-0.019242 0.0038438 0.0031546 0.042994
-0.019242 0.0043853 0.002344 0.043078
-0.019242 0.0047584 0.0014434 0.043138
-0.019242 0.0049487 0.00048736 0.043513
-0.018197 0.00048758 0.004951 0.05642
-0.018197 0.001444 0.0047605 0.055639
-0.018197 0.0023451 0.0043872 0.05536
-0.018197 0.003156 0.0038456 0.055145
-0.018197 0.0038456 0.003156 0.055127
-0.018197 0.0043872 0.0023451 0.055307
-0.018197 0.0047605 0.001444 0.05556
-0.018197 0.004951 0.00048758 0.056324
-0.017151 0.00048779 0.0049529 0.068429
-0.017151 0.0014446 0.0047624 0.067074
-0.017151 0.002346 0.004389 0.066461
-0.017151 0.0031572 0.003847 0.066151
-0.017151 0.003847 0.0031572 0.06612
-0.017151 0.004389 0.002346 0.066374
-0.017151 0.0047624 0.0014446 0.066931
-0.017151 0.0049529 0.00048779 0.068261
-0.016106 0.00048791 0.004954 0.076852
-0.016106 0.001445 0.0047635 0.075303
-0.016106 0.0023465 0.00439 0.074212
-0.016106 0.0031579 0.0038479 0.073877
-0.016106 0.0038479 0.0031579 0.07383
-0.016106 0.00439 0.0023465 0.074077
-0.016106 0.0047635 0.001445 0.075099
-0.016106 0.004954 0.00048791 0.076605
-0.01506 0.00048793 0.0049541 0.071067
-0.01506 0.001445 0.0047636 0.069664
-0.01506 0.0023466 0.0043901 0.068509
-0.01506 0.003158 0.003848 0.068144
-0.01506 0.003848 0.003158 0.068082
-0.01506 0.0043901 0.0023466 0.068329
-0.01506 0.0047636 0.001445 0.0694
-0.01506 0.0049541 0.00048793 0.070739
-0.014015 0.00048781 0.0049528 0.0545
-0.014015 0.0014447 0.0047625 0.053758
-0.014015 0.002346 0.0043891 0.052655
-0.014015 0.0031572 0.0038471 0.052377
-0.014015 0.0038471 0.0031572 0.052303
-0.014015 0.0043891 0.002346 0.052435
-0.014015 0.0047625 0.0014447 0.053429
-0.014015 0.0049528 0.00048781 0.05409
-0.012969 0.00048755 0.0049501 0.027283
-0.012969 0.0014439 0.0047599 0.027033
-0.012969 0.0023448 0.0043868 0.026302
-0.012969 0.0031555 0.003845 0.026124
-0.012969 0.003845 0.0031555 0.026039
-0.012969 0.0043868 0.0023448 0.02605
-0.012969 0.0047599 0.0014439 0.026649
-0.012969 0.0049501 0.00048755 0.0268
-0.024474 0.0049545 -0.00048789 0.0042845
-0.024474 0.0047639 -0.001445 0.0042149
-0.024474 0.0043904 -0.0023468 0.0041923
-0.024474 0.0038483 -0.0031583 0.0042085
-0.024474 0.0031583 -0.0038483 0.0042113
-0.024474 0.0023468 -0.0043904 0.0042007
-0.024474 0.001445 -0.0047639 0.0042293
-0.024474 0.00048789 -0.0049545 0.0043055
-0.023423 0.0049574 -0.0004881 0.012017
-0.023424 0.0047664 -0.0014457 0.011851
-0.023424 0.0043926 -0.0023481 0.011821
-0.023423 0.0038506 -0.0031603 0.011871
-0.023423 0.0031603 -0.0038506 0.01188
-0.023424 0.0023481 -0.0043926 0.011847
-0.023424 0.0014457 -0.0047664 0.011893
-0.023423 0.0004881 -0.0049574 0.012076
-0.022376 0.0049557 -0.00048797 0.018298
-0.022376 0.0047648 -0.0014452 0.018175
-0.022376 0.0043911 -0.0023473 0.018182
-0.022376 0.0038492 -0.0031591 0.018251
-0.022376 0.0031591 -0.0038492 0.018265
-0.022376 0.0023473 -0.0043911 0.018223
-0.022376 0.0014452 -0.0047648 0.018243
-0.022376 0.00048796 -0.0049557 0.018387
-0.021331 0.0049509 -0.00048759 0.024375
-0.021331 0.0047605 -0.001444 0.024327
-0.021331 0.0043873 -0.0023451 0.024396
-0.021331 0.0038455 -0.003156 0.024454
-0.021331 0.003156 -0.0038455 0.02447
-0.021331 0.0023451 -0.0043873 0.024446
-0.021331 0.001444 -0.0047605 0.024411
-0.021331 0.00048759 -0.0049509 0.024491
-0.020287 0.0049479 -0.00048732 0.032497
-0.020287 0.0047578 -0.0014433 0.032411
-0.020287 0.0043848 -0.0023437 0.03249
-0.020287 0.0038432 -0.0031541 0.032511
-0.020287 0.0031541 -0.0038432 0.03253
-0.020287 0.0023437 -0.0043848 0.032547
-0.020287 0.0014432 -0.0047578 0.032507
-0.020287 0.00048732 -0.0049479 0.032632
-0.019242 0.0049487 -0.00048736 0.043549
-0.019242 0.0047584 -0.0014434 0.043239
-0.019242 0.0043853 -0.002344 0.043229
-0.019242 0.0038438 -0.0031546 0.043176
-0.019242 0.0031546 -0.0038438 0.043195
-0.019242 0.002344 -0.0043853 0.043289
-0.019242 0.0014434 -0.0047584 0.043342
-0.019242 0.00048736 -0.0049487 0.043687
-0.018197 0.004951 -0.00048758 0.056354
-0.018197 0.0047605 -0.001444 0.055645
-0.018197 0.0043872 -0.0023451 0.055431
-0.018197 0.0038456 -0.003156 0.055271
-0.018197 0.003156 -0.0038456 0.055291
-0.018197 0.0023451 -0.0043872 0.055492
-0.018197 0.001444 -0.0047605 0.055749
-0.018197 0.00048758 -0.004951 0.05648
-0.017151 0.0049529 -0.00048779 0.06828
-0.017151 0.0047624 -0.0014446 0.066979
-0.017151 0.004389 -0.002346 0.066447
-0.017151 0.003847 -0.0031572 0.066195
-0.017151 0.0031572 -0.003847 0.066214
-0.017151 0.002346 -0.004389 0.066503
-0.017151 0.0014446 -0.0047624 0.067074
-0.017151 0.00048779 -0.0049529 0.068401
-0.016106 0.004954 -0.00048791 0.076605
-0.016106 0.0047635 -0.001445 0.0751
-0.016106 0.00439 -0.0023465 0.074075
-0.016106 0.0038479 -0.0031579 0.073812
-0.016106 0.0031579 -0.0038479 0.07383
-0.016106 0.0023465 -0.00439 0.074126
-0.016106 0.001445 -0.0047635 0.075196
-0.016106 0.00048791 -0.004954 0.076721
-0.01506 0.0049541 -0.00048793 0.070721
-0.01506 0.0047636 -0.001445 0.069349
-0.01506 0.0043901 -0.0023466 0.068251
-0.01506 0.003848 -0.003158 0.067965
-0.01506 0.003158 -0.003848 0.067985
-0.01506 0.0023466 -0.0043901 0.0683
-0.01506 0.001445 -0.0047636 0.069446
-0.01506 0.00048793 -0.0049541 0.070832
-0.014015 0.0049528 -0.00048781 0.054054
-0.014015 0.0047625 -0.0014447 0.053327
-0.014015 0.0043891 -0.002346 0.052279
-0.014015 0.0038471 -0.0031572 0.052094
-0.014015 0.0031572 -0.0038471 0.052123
-0.014015 0.002346 -0.0043891 0.052359
-0.014015 0.0014447 -0.0047625 0.053443
-0.014015 0.00048781 -0.0049528 0.054163
-0.012969 0.0049501 -0.00048755 0.026749
-0.012969 0.0047599 -0.0014439 0.0265
-0.012969 0.0043868 -0.0023448 0.025823
-0.012969 0.003845 -0.0031555 0.025748
-0.012969 0.0031555 -0.003845 0.025788
-0.012969 0.0023448 -0.0043868 0.02593
-0.012969 0.0014439 -0.0047599 0.02664
-0.012969 0.00048755 -0.0049501 0.026874
-0.024474 -0.00048789 -0.0049545 0.0043062
-0.024474 -0.001445 -0.0047639 0.0042325
-0.024474 -0.0023468 -0.0043904 0.0042063
-0.024474 -0.0031583 -0.0038483 0.0042199
-0.024474 -0.0038483 -0.0031583 0.0042213
-0.024474 -0.0043904 -0.0023468 0.0042107
-0.024474 -0.0047639 -0.001445 0.0042402
-0.024474 -0.0049545 -0.00048789 0.0043172
-0.023423 -0.0004881 -0.0049574 0.012078
-0.023424 -0.0014457 -0.0047664 0.0119
-0.023424 -0.0023481 -0.0043926 0.011859
-0.023423 -0.0031603 -0.0038506 0.0119
-0.023423 -0.0038506 -0.0031603 0.011904
-0.023424 -0.0043926 -0.0023481 0.011869
-0.023424 -0.0047664 -0.0014457 0.011919
-0.023423 -0.0049574 -0.0004881 0.012105
-0.022376 -0.00048797 -0.0049557 0.01839
-0.022376 -0.0014452 -0.0047648 0.018247
-0.022376 -0.0023473 -0.0043911 0.018234
-0.022376 -0.0031591 -0.0038492 0.018288
-0.022376 -0.0038492 -0.0031591 0.018291
-0.022376 -0.0043911 -0.0023473 0.018244
-0.022376 -0.0047648 -0.0014452 0.018264
-0.022376 -0.0049557 -0.00048796 0.018424
-0.021331 -0.00048759 -0.0049509 0.024491
-0.021331 -0.001444 -0.0047605 0.024413
-0.021331 -0.0023451 -0.0043873 0.024452
-0.021331 -0.003156 -0.0038455 0.024487
-0.021331 -0.0038455 -0.003156 0.024488
-0.021331 -0.0043873 -0.0023451 0.024457
-0.021331 -0.0047605 -0.001444 0.024421
-0.021331 -0.0049509 -0.00048759 0.02451
-0.020287 -0.00048732 -0.0049479 0.032628
-0.020287 -0.0014433 -0.0047578 0.032498
-0.020287 -0.0023437 -0.0043848 0.032538
-0.020287 -0.0031541 -0.0038432 0.032529
-0.020287 -0.0038432 -0.0031541 0.032527
-0.020287 -0.0043848 -0.0023437 0.032532
-0.020287 -0.0047578 -0.0014432 0.032489
-0.020287 -0.0049479 -0.00048732 0.032623
-0.019242 -0.00048736 -0.0049487 0.043679
-0.019242 -0.0014434 -0.0047584 0.043314
-0.019242 -0.002344 -0.0043853 0.043258
-0.019242 -0.0031546 -0.0038438 0.043171
-0.019242 -0.0038438 -0.0031546 0.043164
-0.019242 -0.0043853 -0.002344 0.043242
-0.019242 -0.0047584 -0.0014434 0.043287
-0.019242 -0.0049487 -0.00048736 0.043651
-0.018197 -0.00048758 -0.004951 0.056472
-0.018197 -0.001444 -0.0047605 0.055702
-0.018197 -0.0023451 -0.0043872 0.055441
-0.018197 -0.003156 -0.0038456 0.055243
-0.018197 -0.0038456 -0.003156 0.055235
-0.018197 -0.0043872 -0.0023451 0.055418
-0.018197 -0.0047605 -0.001444 0.055665
-0.018197 -0.004951 -0.00048758 0.056428
-0.017151 -0.00048779 -0.0049529 0.068387
-0.017151 -0.0014446 -0.0047624 0.067043
-0.017151 -0.002346 -0.004389 0.066457
-0.017151 -0.0031572 -0.003847 0.066166
-0.017151 -0.003847 -0.0031572 0.066157
-0.017151 -0.004389 -0.002346 0.066429
-0.017151 -0.0047624 -0.0014446 0.067002
-0.017151 -0.0049529 -0.00048779 0.068338
-0.016106 -0.00048792 -0.004954 0.076704
-0.016106 -0.001445 -0.0047635 0.075167
-0.016106 -0.0023465 -0.00439 0.074102
-0.016106 -0.0031579 -0.0038479 0.0738
-0.016106 -0.0038479 -0.0031579 0.07379
-0.016106 -0.00439 -0.0023465 0.074075
-0.016106 -0.0047635 -0.001445 0.075127
-0.016106 -0.004954 -0.00048791 0.076657
-0.01506 -0.00048793 -0.0049541 0.070805
-0.01506 -0.001445 -0.0047636 0.06941
-0.01506 -0.0023466 -0.0043901 0.06828
-0.01506 -0.003158 -0.003848 0.067953
-0.01506 -0.003848 -0.003158 0.067943
-0.01506 -0.0043901 -0.0023466 0.06825
-0.01506 -0.0047636 -0.001445 0.069367
-0.01506 -0.0049541 -0.00048793 0.070758
-0.014015 -0.00048781 -0.0049528 0.054143
-0.014015 -0.0014447 -0.0047625 0.053405
-0.014015 -0.002346 -0.0043891 0.052327
-0.014015 -0.0031572 -0.0038471 0.052098
-0.014015 -0.0038471 -0.0031572 0.052088
-0.014015 -0.0043891 -0.002346 0.052297
-0.014015 -0.0047625 -0.0014447 0.053362
-0.014015 -0.0049528 -0.00048781 0.054094
-0.012969 -0.00048755 -0.0049501 0.026864
-0.012969 -0.0014439 -0.0047599 0.026617
-0.012969 -0.0023448 -0.0043868 0.025913
-0.012969 -0.0031555 -0.003845 0.025791
-0.012969 -0.003845 -0.0031555 0.02578
-0.012969 -0.0043868 -0.0023448 0.02588
-0.012969 -0.0047599 -0.0014439 0.026566
-0.012969 -0.0049501 -0.00048755 0.02681
-0.011924 -0.0049464 0.00048719 -0.0098043
-0.011924 -0.0047563 0.0014428 -0.0090705
-0.011924 -0.0043835 0.002343 -0.0092415
-0.011924 -0.0038422 0.0031532 -0.009015
-0.011924 -0.0031532 0.0038422 -0.0089344
-0.011924 -0.002343 0.0043835 -0.0090029
-0.011924 -0.0014428 0.0047563 -0.0087077
-0.011924 -0.00048719 0.0049464 -0.0093427
-0.010878 -0.0049421 0.00048677 -0.051058
-0.010878 -0.0047522 0.0014416 -0.049075
-0.010878 -0.0043798 0.0023411 -0.048718
-0.010878 -0.003839 0.0031505 -0.048104
-0.010878 -0.0031506 0.003839 -0.04802
-0.010878 -0.0023411 0.0043798 -0.048477
-0.010878 -0.0014416 0.0047522 -0.048717
-0.010878 -0.00048677 0.0049421 -0.050612
-0.0098331 -0.0049381 0.00048636 -0.090002
-0.0098332 -0.0047484 0.0014404 -0.086509
-0.0098332 -0.0043763 0.0023392 -0.085646
-0.0098332 -0.003836 0.0031481 -0.084676
-0.0098332 -0.0031481 0.003836 -0.084599
-0.0098332 -0.0023392 0.0043763 -0.085433
-0.0098332 -0.0014404 0.0047484 -0.0862
-0.0098331 -0.00048636 0.0049381 -0.089635
-0.0087882 -0.0049352 0.00048606 -0.12024
-0.0087882 -0.0047456 0.0014395 -0.11552
-0.0087882 -0.0043738 0.0023378 -0.11402
-0.0087882 -0.0038338 0.0031463 -0.11268
-0.0087882 -0.0031463 0.0038338 -0.11263
-0.0087882 -0.0023378 0.0043738 -0.11387
-0.0087882 -0.0014395 0.0047456 -0.11531
-0.0087882 -0.00048606 0.0049352 -0.12
-0.0077435 -0.0049339 0.00048594 -0.13086
-0.0077435 -0.0047445 0.0014392 -0.12619
-0.0077435 -0.0043727 0.0023373 -0.12389
-0.0077435 -0.0038329 0.0031456 -0.12244
-0.0077435 -0.0031456 0.0038329 -0.12243
-0.0077435 -0.0023373 0.0043727 -0.12386
-0.0077435 -0.0014392 0.0047445 -0.12611
-0.0077435 -0.00048594 0.0049339 -0.13078
-0.006699 -0.0049348 0.00048605 -0.1159
-0.006699 -0.0047453 0.0014395 -0.112
-0.006699 -0.0043735 0.0023377 -0.10988
-0.006699 -0.0038336 0.0031461 -0.10852
-0.006699 -0.0031461 0.0038336 -0.10856
-0.006699 -0.0023377 0.0043735 -0.10994
-0.006699 -0.0014395 0.0047453 -0.11209
-0.006699 -0.00048604 0.0049348 -0.11603
-0.0056547 -0.0049379 0.00048635 -0.078491
-0.0056547 -0.0047483 0.0014404 -0.075123
-0.0056547 -0.0043762 0.0023392 -0.073323
-0.0056547 -0.0038359 0.0031481 -0.072572
-0.0056547 -0.0031481 0.0038359 -0.072638
-0.0056547 -0.0023392 0.0043762 -0.07351
-0.0056547 -0.0014404 0.0047483 -0.075403
-0.0056547 -0.00048635 0.0049379 -0.078828
-0.0046106 -0.0049429 0.00048683 -0.023925
-0.0046106 -0.0047531 0.0014418 -0.020869
-0.0046106 -0.0043806 0.0023415 -0.019328
-0.0046106 -0.0038398 0.0031512 -0.018907
-0.0046106 -0.0031512 0.0038398 -0.019002
-0.0046106 -0.0023415 0.0043806 -0.019612
-0.0046106 -0.0014418 0.0047531 -0.021317
-0.0046106 -0.00048682 0.0049429 -0.024417
-0.0035669 -0.0049493 0.00048745 0.04648
-0.0035668 -0.0047592 0.0014436 0.048754
-0.0035668 -0.0043862 0.0023445 0.05067
-0.0035668 -0.0038446 0.0031552 0.05121
-0.0035668 -0.0031552 0.0038446 0.051094
-0.0035668 -0.0023445 0.0043862 0.050326
-0.0035668 -0.0014436 0.0047592 0.048218
-0.0035669 -0.00048744 0.0049493 0.045824
-0.0025236 -0.0049567 0.00048818 0.12866
-0.0025236 -0.0047663 0.0014458 0.12991
-0.0025236 -0.0043927 0.002348 0.1314
-0.0025235 -0.0038503 0.0031599 0.13181
-0.0025235 -0.0031599 0.0038503 0.13168
-0.0025236 -0.002348 0.0043927 0.13103
-0.0025236 -0.0014458 0.0047663 0.12932
-0.0025236 -0.00048818 0.0049567 0.12791
-0.0014809 -0.0049651 0.00048902 0.22227
-0.0014809 -0.0047743 0.0014483 0.22301
-0.0014809 -0.0044001 0.0023519 0.22405
-0.0014809 -0.0038568 0.0031652 0.22431
-0.0014809 -0.0031652 0.0038568 0.22418
-0.0014809 -0.0023519 0.0044001 0.22368
-0.0014809 -0.0014483 0.0047743 0.22242
-0.0014809 -0.00048902 0.0049651 0.22154
-0.00043892 -0.0049745 0.00048994 0.32624
-0.00043888 -0.0047833 0.001451 0.32636
-0.00043886 -0.0044084 0.0023563 0.32705
-0.00043887 -0.003864 0.0031711 0.32712
-0.00043887 -0.0031711 0.003864 0.32699
-0.00043886 -0.0023563 0.0044084 0.32669
-0.00043888 -0.001451 0.0047833 0.32581
-0.00043892 -0.00048994 0.0049745 0.32557
-0.011924 0.00048719 0.0049464 -0.0093219
-0.011924 0.0014428 0.0047563 -0.0086605
-0.011924 0.002343 0.0043835 -0.0089351
-0.011924 0.0031532 0.0038422 -0.0088629
-0.011924 0.0038422 0.0031532 -0.0089556
-0.011924 0.0043835 0.002343 -0.009213
-0.011924 0.0047563 0.0014428 -0.0090843
-0.011924 0.0049464 0.00048719 -0.0098621
-0.010878 0.00048676 0.0049421 -0.050595
-0.010878 0.0014416 0.0047522 -0.048685
-0.010878 0.0023411 0.0043798 -0.048423
-0.010878 0.0031505 0.003839 -0.047966
-0.010878 0.003839 0.0031506 -0.048065
-0.010878 0.0043798 0.0023411 -0.04872
-0.010878 0.0047522 0.0014416 -0.049129
-0.010878 0.0049421 0.00048677 -0.051165
-0.0098331 0.00048636 0.0049381 -0.089618
-0.0098332 0.0014404 0.0047484 -0.086183
-0.0098332 0.0023392 0.0043763 -0.085405
-0.0098332 0.0031481 0.003836 -0.084585
-0.0098332 0.003836 0.0031481 -0.084678
-0.0098332 0.0043763 0.0023392 -0.085696
-0.0098332 0.0047484 0.0014404 -0.086614
-0.0098331 0.0049381 0.00048636 -0.090186
-0.0087882 0.00048606 0.0049352 -0.11999
-0.0087882 0.0014395 0.0047456 -0.11529
-0.0087882 0.0023378 0.0043738 -0.11385
-0.0087882 0.0031463 0.0038338 -0.11264
-0.0087882 0.0038338 0.0031463 -0.11272
-0.0087882 0.0043738 0.0023378 -0.11412
-0.0087882 0.0047456 0.0014395 -0.11569
-0.0087882 0.0049352 0.00048606 -0.1205
-0.0077435 0.00048594 0.0049339 -0.13078
-0.0077435 0.0014392 0.0047445 -0.12612
-0.0077435 0.0023373 0.0043727 -0.12384
-0.0077435 0.0031456 0.0038329 -0.12245
-0.0077435 0.0038329 0.0031456 -0.12254
-0.0077435 0.0043727 0.0023373 -0.12409
-0.0077435 0.0047445 0.0014392 -0.12644
-0.0077435 0.0049339 0.00048594 -0.1312
-0.006699 0.00048604 0.0049348 -0.11604
-0.006699 0.0014395 0.0047453 -0.11212
-0.006699 0.0023377 0.0043735 -0.11
-0.006699 0.0031461 0.0038336 -0.10867
-0.006699 0.0038336 0.0031461 -0.10874
-0.006699 0.0043735 0.0023377 -0.11018
-0.006699 0.0047453 0.0014395 -0.11239
-0.006699 0.0049348 0.00048605 -0.11639
-0.0056547 0.00048635 0.0049379 -0.07886
-0.0056547 0.0014404 0.0047483 -0.075457
-0.0056547 0.0023392 0.0043762 -0.073621
-0.0056547 0.0031481 0.0038359 -0.072842
-0.0056547 0.0038359 0.0031481 -0.072885
-0.0056547 0.0043762 0.0023392 -0.073749
-0.0056547 0.0047483 0.0014404 -0.075657
-0.0056547 0.0049379 0.00048635 -0.07912
-0.0046106 0.00048682 0.0049429 -0.024469
-0.0046106 0.0014418 0.0047531 -0.021393
-0.0046106 0.0023415 0.0043806 -0.019781
-0.0046106 0.0031512 0.0038398 -0.019286
-0.0046106 0.0038398 0.0031512 -0.01931
-0.0046106 0.0043806 0.0023415 -0.019857
-0.0046106 0.0047531 0.0014418 -0.021526
-0.0046106 0.0049429 0.00048683 -0.024657
-0.0035669 0.00048744 0.0049493 0.045777
-0.0035668 0.0014436 0.0047592 0.048098
-0.0035668 0.0023445 0.0043862 0.050107
-0.0035668 0.0031552 0.0038446 0.050757
-0.0035668 0.0038446 0.0031552 0.050749
-0.0035668 0.0043862 0.0023445 0.050077
-0.0035668 0.0047592 0.0014436 0.04803
-0.0035669 0.0049493 0.00048745 0.04565
-0.0025236 0.00048818 0.0049567 0.12787
-0.0025236 0.0014458 0.0047663 0.12919
-0.0025236 0.002348 0.0043927 0.13079
-0.0025235 0.0031599 0.0038503 0.13133
-0.0025235 0.0038503 0.0031599 0.13133
-0.0025236 0.0043927 0.002348 0.13079
-0.0025236 0.0047663 0.0014458 0.12917
-0.0025236 0.0049567 0.00048818 0.1278
-0.0014809 0.00048902 0.0049651 0.2215
-0.0014809 0.0014483 0.0047743 0.22229
-0.0014809 0.0023519 0.0044001 0.22343
-0.0014809 0.0031652 0.0038568 0.22383
-0.0014809 0.0038568 0.0031652 0.22384
-0.0014809 0.0044001 0.0023519 0.22347
-0.0014809 0.0047743 0.0014483 0.22232
-0.0014809 0.0049651 0.00048902 0.22148
-0.00043892 0.00048994 0.0049745 0.32554
-0.00043888 0.001451 0.0047833 0.32568
-0.00043886 0.0023563 0.0044084 0.32646
-0.00043887 0.0031711 0.003864 0.32667
-0.00043887 0.003864 0.0031711 0.32671
-0.00043886 0.0044084 0.0023563 0.32655
-0.00043888 0.0047833 0.001451 0.32577
-0.00043892 0.0049745 0.00048994 0.32559
-0.011924 0.0049464 -0.00048719 -0.0099259
-0.011924 0.0047563 -0.0014428 -0.0092707
-0.011924 0.0043835 -0.002343 -0.0094918
-0.011924 0.0038422 -0.0031532 -0.0093086
-0.011924 0.0031532 -0.0038422 -0.0092615
-0.011924 0.002343 -0.0043835 -0.0093644
-0.011924 0.0014428 -0.0047563 -0.009105
-0.011924 0.00048719 -0.0049464 -0.0097757
-0.010878 0.0049421 -0.00048676 -0.051236
-0.010878 0.0047522 -0.0014416 -0.049339
-0.010878 0.0043798 -0.0023411 -0.049026
-0.010878 0.003839 -0.0031505 -0.048453
-0.010878 0.0031505 -0.003839 -0.048399
-0.010878 0.0023411 -0.0043798 -0.048882
-0.010878 0.0014416 -0.0047522 -0.049154
-0.010878 0.00048676 -0.0049421 -0.051064
-0.0098331 0.0049381 -0.00048636 -0.090258
-0.0098332 0.0047484 -0.0014404 -0.086831
-0.0098332 0.0043763 -0.0023392 -0.086005
-0.0098332 0.003836 -0.0031481 -0.085076
-0.0098332 0.0031481 -0.003836 -0.08502
-0.0098332 0.0023392 -0.0043763 -0.085858
-0.0098332 0.0014404 -0.0047484 -0.086638
-0.0098331 0.00048636 -0.0049381 -0.090055
-0.0087882 0.0049352 -0.00048606 -0.12057
-0.0087882 0.0047456 -0.0014395 -0.11588
-0.0087882 0.0043738 -0.0023378 -0.1144
-0.0087882 0.0038338 -0.0031463 -0.11309
-0.0087882 0.0031463 -0.0038338 -0.11304
-0.0087882 0.0023378 -0.0043738 -0.11427
-0.0087882 0.0014395 -0.0047456 -0.11569
-0.0087882 0.00048606 -0.0049352 -0.12035
-0.0077435 0.0049339 -0.00048594 -0.13125
-0.0077435 0.0047445 -0.0014392 -0.1266
-0.0077435 0.0043727 -0.0023373 -0.12434
-0.0077435 0.0038329 -0.0031456 -0.12287
-0.0077435 0.0031456 -0.0038329 -0.12282
-0.0077435 0.0023373 -0.0043727 -0.1242
-0.0077435 0.0014392 -0.0047445 -0.12644
-0.0077435 0.00048594 -0.0049339 -0.13104
-0.006699 0.0049348 -0.00048604 -0.11645
-0.006699 0.0047453 -0.0014395 -0.11255
-0.006699 0.0043735 -0.0023377 -0.11042
-0.006699 0.0038336 -0.0031461 -0.10905
-0.006699 0.0031461 -0.0038336 -0.109
-0.006699 0.0023377 -0.0043735 -0.1103
-0.006699 0.0014395 -0.0047453 -0.11236
-0.006699 0.00048604 -0.0049348 -0.1162
-0.0056547 0.0049379 -0.00048635 -0.079177
-0.0056547 0.0047483 -0.0014404 -0.075811
-0.0056547 0.0043762 -0.0023392 -0.073985
-0.0056547 0.0038359 -0.0031481 -0.073173
-0.0056547 0.0031481 -0.0038359 -0.073127
-0.0056547 0.0023392 -0.0043762 -0.073859
-0.0056547 0.0014404 -0.0047483 -0.075622
-0.0056547 0.00048635 -0.0049379 -0.078942
-0.0046106 0.0049429 -0.00048682 -0.024719
-0.0046106 0.0047531 -0.0014418 -0.02168
-0.0046106 0.0043806 -0.0023415 -0.020087
-0.0046106 0.0038398 -0.0031512 -0.019576
-0.0046106 0.0031512 -0.0038398 -0.019539
-0.0046106 0.0023415 -0.0043806 -0.019974
-0.0046106 0.0014418 -0.0047531 -0.021491
-0.0046106 0.00048682 -0.0049429 -0.024487
-0.0035669 0.0049493 -0.00048744 0.045594
-0.0035668 0.0047592 -0.0014436 0.047883
-0.0035668 0.0043862 -0.0023445 0.049863
-0.0035668 0.0038446 -0.0031552 0.050509
-0.0035668 0.0031552 -0.0038446 0.050539
-0.0035668 0.0023445 -0.0043862 0.049957
-0.0035668 0.0014436 -0.0047592 0.048045
-0.0035669 0.00048744 -0.0049493 0.045823
-0.0025236 0.0049567 -0.00048818 0.12774
-0.0025236 0.0047663 -0.0014458 0.12902
-0.0025236 0.0043927 -0.002348 0.13059
-0.0025235 0.0038503 -0.0031599 0.13111
-0.0025235 0.0031599 -0.0038503 0.13113
-0.0025236 0.002348 -0.0043927 0.13066
-0.0025236 0.0014458 -0.0047663 0.12914
-0.0025236 0.00048818 -0.0049567 0.12792
-0.0014809 0.0049651 -0.00048902 0.22142
-0.0014809 0.0047743 -0.0014483 0.22217
-0.0014809 0.0044001 -0.0023519 0.22328
-0.0014809 0.0038568 -0.0031652 0.22364
-0.0014809 0.0031652 -0.0038568 0.22365
-0.0014809 0.0023519 -0.0044001 0.2233
-0.0014809 0.0014483 -0.0047743 0.22222
-0.0014809 0.00048902 -0.0049651 0.22149
-0.00043892 0.0049745 -0.00048994 0.32554
-0.00043888 0.0047833 -0.001451 0.32564
-0.00043886 0.0044084 -0.0023563 0.32637
-0.00043887 0.003864 -0.0031711 0.32652
-0.00043887 0.0031711 -0.003864 0.3265
-0.00043886 0.0023563 -0.0044084 0.32632
-0.00043888 0.001451 -0.0047833 0.32557
-0.00043892 0.00048994 -0.0049745 0.32546
-0.011924 -0.00048719 -0.0049464 -0.0097755
-0.011924 -0.0014428 -0.0047563 -0.0091026
-0.011924 -0.002343 -0.0043835 -0.0093442
-0.011924 -0.0031532 -0.0038422 -0.0092107
-0.011924 -0.0038422 -0.0031532 -0.0092241
-0.011924 -0.0043835 -0.002343 -0.0093809
-0.011924 -0.0047563 -0.0014428 -0.0091604
-0.011924 -0.0049464 -0.00048719 -0.0098322
-0.010878 -0.00048677 -0.0049421 -0.051052
-0.010878 -0.0014416 -0.0047522 -0.049113
-0.010878 -0.0023411 -0.0043798 -0.048808
-0.010878 -0.0031506 -0.003839 -0.048283
-0.010878 -0.003839 -0.0031506 -0.048296
-0.010878 -0.0043798 -0.0023411 -0.048837
-0.010878 -0.0047522 -0.0014416 -0.049154
-0.010878 -0.0049421 -0.00048676 -0.051077
-0.0098331 -0.00048636 -0.0049381 -0.090039
-0.0098332 -0.0014404 -0.0047484 -0.086554
-0.0098332 -0.0023392 -0.0043763 -0.085732
-0.0098332 -0.0031481 -0.003836 -0.084833
-0.0098332 -0.003836 -0.0031481 -0.084837
-0.0098332 -0.0043763 -0.0023392 -0.085723
-0.0098332 -0.0047484 -0.0014404 -0.086545
-0.0098331 -0.0049381 -0.00048636 -0.090005
-0.0087882 -0.00048606 -0.0049352 -0.1203
-0.0087882 -0.0014395 -0.0047456 -0.11556
-0.0087882 -0.0023378 -0.0043738 -0.11407
-0.0087882 -0.0031463 -0.0038338 -0.11277
-0.0087882 -0.0038338 -0.0031463 -0.11276
-0.0087882 -0.0043738 -0.0023378 -0.11403
-0.0087882 -0.0047456 -0.0014395 -0.11551
-0.0087882 -0.0049352 -0.00048606 -0.12024
-0.0077435 -0.00048594 -0.0049339 -0.13097
-0.0077435 -0.0014392 -0.0047445 -0.12623
-0.0077435 -0.0023373 -0.0043727 -0.12393
-0.0077435 -0.0031456 -0.0038329 -0.12245
-0.0077435 -0.0038329 -0.0031456 -0.12243
-0.0077435 -0.0043727 -0.0023373 -0.12387
-0.0077435 -0.0047445 -0.0014392 -0.12618
-0.0077435 -0.0049339 -0.00048594 -0.13086
-0.006699 -0.00048605 -0.0049348 -0.11611
-0.006699 -0.0014395 -0.0047453 -0.1121
-0.006699 -0.0023377 -0.0043735 -0.10991
-0.006699 -0.0031461 -0.0038336 -0.10851
-0.006699 -0.0038336 -0.0031461 -0.10847
-0.006699 -0.0043735 -0.0023377 -0.10983
-0.006699 -0.0047453 -0.0014395 -0.11197
-0.006699 -0.0049348 -0.00048604 -0.11589
-0.0056547 -0.00048635 -0.0049379 -0.078814
-0.0056547 -0.0014404 -0.0047483 -0.075316
-0.0056547 -0.0023392 -0.0043762 -0.073397
-0.0056547 -0.0031481 -0.0038359 -0.072529
-0.0056547 -0.0038359 -0.0031481 -0.072472
-0.0056547 -0.0043762 -0.0023392 -0.073235
-0.0056547 -0.0047483 -0.0014404 -0.075059
-0.0056547 -0.0049379 -0.00048635 -0.078465
-0.0046106 -0.00048683 -0.0049429 -0.02433
-0.0046106 -0.0014418 -0.0047531 -0.021165
-0.0046106 -0.0023415 -0.0043806 -0.019443
-0.0046106 -0.0031512 -0.0038398 -0.018844
-0.0046106 -0.0038398 -0.0031512 -0.018768
-0.0046106 -0.0043806 -0.0023415 -0.019211
-0.0046106 -0.0047531 -0.0014418 -0.02079
-0.0046106 -0.0049429 -0.00048682 -0.023887
-0.0035669 -0.00048744 -0.0049493 0.045963
-0.0035668 -0.0014436 -0.0047592 0.048406
-0.0035668 -0.0023445 -0.0043862 0.050528
-0.0035668 -0.0031552 -0.0038446 0.051287
-0.0035668 -0.0038446 -0.0031552 0.051381
-0.0035668 -0.0043862 -0.0023445 0.050809