/*--------------------------------*- C++ -*----------------------------------*\
| =========                 |                                                 |
| \\      /  F ield         | OpenFOAM: The Open Source CFD Toolbox           |
|  \\    /   O peration     | Version:  4.1                                   |
|   \\  /    A nd           | Web:      www.OpenFOAM.org                      |
|    \\/     M anipulation  |                                                 |
\*---------------------------------------------------------------------------*/
FoamFile
{
    version     2.0;
    format      ascii;
    class       pointVectorField;
    location    "0.0091";
    object      pointDisplacement;
}
// * * * * * * * * * * * * * * * * * * * * * * * * * * * * * * * * * * * * * //

dimensions      [0 1 0 0 0 0 0];

internalField   nonuniform List<vector> 
1885
(
(5.422e-05 2.3041e-07 -1.5169e-10)
(5.0665e-05 2.2556e-07 -2.1091e-10)
(4.709e-05 6.5564e-07 -3.081e-10)
(4.3483e-05 1.3538e-06 -4.2612e-10)
(3.9826e-05 2.1454e-06 -5.4595e-10)
(3.6107e-05 2.8567e-06 -6.3814e-10)
(3.2323e-05 3.2702e-06 -6.7871e-10)
(2.8471e-05 3.0842e-06 -6.548e-10)
(2.4443e-05 2.098e-06 -5.6075e-10)
(1.9899e-05 6.1031e-07 -4.1545e-10)
(1.4358e-05 -5.5184e-07 -2.5806e-10)
(7.6004e-06 -7.0856e-07 -1.1847e-10)
(0 0 0)
(5.4211e-05 2.7996e-07 -3.8336e-08)
(5.0657e-05 2.6045e-07 -3.6129e-08)
(4.7081e-05 6.2594e-07 -8.1921e-08)
(4.347e-05 1.23e-06 -1.5728e-07)
(3.9808e-05 1.917e-06 -2.4295e-07)
(3.6084e-05 2.5279e-06 -3.1927e-07)
(3.2288e-05 2.8673e-06 -3.6164e-07)
(2.84e-05 2.6851e-06 -3.3863e-07)
(2.4302e-05 1.8366e-06 -2.325e-07)
(1.9677e-05 5.8683e-07 -7.6529e-08)
(1.411e-05 -3.8928e-07 4.5612e-08)
(7.4345e-06 -5.4632e-07 6.6342e-08)
(0 0 0)
(5.4205e-05 2.9868e-07 -1.0329e-07)
(5.0652e-05 2.7145e-07 -9.4522e-08)
(4.7074e-05 5.7993e-07 -1.9319e-07)
(4.3461e-05 1.0972e-06 -3.5842e-07)
(3.9796e-05 1.6869e-06 -5.4662e-07)
(3.6068e-05 2.207e-06 -7.1263e-07)
(3.2263e-05 2.4854e-06 -8.0162e-07)
(2.835e-05 2.3153e-06 -7.4702e-07)
(2.4203e-05 1.5912e-06 -5.1411e-07)
(1.9523e-05 5.4391e-07 -1.7653e-07)
(1.3941e-05 -2.7435e-07 8.764e-08)
(7.3219e-06 -4.2374e-07 1.3625e-07)
(0 0 0)
(5.4201e-05 2.8328e-07 -1.7464e-07)
(5.0649e-05 2.5492e-07 -1.577e-07)
(4.707e-05 5.0849e-07 -3.0743e-07)
(4.3455e-05 9.3778e-07 -5.6082e-07)
(3.9789e-05 1.4277e-06 -8.4976e-07)
(3.6058e-05 1.8573e-06 -1.1032e-06)
(3.2246e-05 2.0824e-06 -1.2362e-06)
(2.8317e-05 1.9347e-06 -1.149e-06)
(2.4141e-05 1.3337e-06 -7.9221e-07)
(1.943e-05 4.7198e-07 -2.7911e-07)
(1.3841e-05 -2.0183e-07 1.2237e-07)
(7.2552e-06 -3.3293e-07 1.9982e-07)
(0 0 0)
(5.4199e-05 2.3885e-07 -2.3884e-07)
(5.0647e-05 2.1454e-07 -2.1457e-07)
(4.7069e-05 4.1539e-07 -4.1545e-07)
(4.3453e-05 7.5657e-07 -7.5665e-07)
(3.9787e-05 1.1459e-06 -1.146e-06)
(3.6054e-05 1.4867e-06 -1.4867e-06)
(3.2241e-05 1.6642e-06 -1.6642e-06)
(2.8306e-05 1.5452e-06 -1.5452e-06)
(2.412e-05 1.0662e-06 -1.0663e-06)
(1.9399e-05 3.8008e-07 -3.8012e-07)
(1.3807e-05 -1.5669e-07 1.5665e-07)
(7.2333e-06 -2.6248e-07 2.6245e-07)
(0 0 0)
(5.4201e-05 1.746e-07 -2.8321e-07)
(5.0649e-05 1.5758e-07 -2.5485e-07)
(4.707e-05 3.0724e-07 -5.084e-07)
(4.3455e-05 5.6059e-07 -9.3767e-07)
(3.9789e-05 8.4952e-07 -1.4275e-06)
(3.6058e-05 1.1029e-06 -1.8572e-06)
(3.2246e-05 1.2359e-06 -2.0822e-06)
(2.8317e-05 1.1488e-06 -1.9346e-06)
(2.4141e-05 7.9203e-07 -1.3336e-06)
(1.943e-05 2.7896e-07 -4.7189e-07)
(1.384e-05 -1.2248e-07 2.0187e-07)
(7.2552e-06 -1.9988e-07 3.3295e-07)
(0 0 0)
(5.4205e-05 1.0322e-07 -2.9857e-07)
(5.0652e-05 9.435e-08 -2.7128e-07)
(4.7074e-05 1.9292e-07 -5.797e-07)
(4.346e-05 3.5808e-07 -1.0969e-06)
(3.9796e-05 5.4624e-07 -1.6866e-06)
(3.6067e-05 7.1225e-07 -2.2066e-06)
(3.2262e-05 8.0127e-07 -2.485e-06)
(2.835e-05 7.4671e-07 -2.3149e-06)
(2.4203e-05 5.1384e-07 -1.5909e-06)
(1.9523e-05 1.7631e-07 -5.4369e-07)
(1.3941e-05 -8.7799e-08 2.7448e-07)
(7.3218e-06 -1.3633e-07 4.2379e-07)
(0 0 0)
(5.4211e-05 3.8255e-08 -2.798e-07)
(5.0657e-05 3.5924e-08 -2.602e-07)
(4.708e-05 8.1604e-08 -6.256e-07)
(4.3469e-05 1.5688e-07 -1.2295e-06)
(3.9808e-05 2.4251e-07 -1.9164e-06)
(3.6083e-05 3.1883e-07 -2.5273e-06)
(3.2287e-05 3.6123e-07 -2.8667e-06)
(2.84e-05 3.3826e-07 -2.6845e-06)
(2.4301e-05 2.3218e-07 -1.8361e-06)
(1.9676e-05 7.6272e-08 -5.8649e-07)
(1.411e-05 -4.5798e-08 3.8948e-07)
(7.4344e-06 -6.6441e-08 5.4641e-07)
(0 0 0)
(5.4219e-05 7.3867e-11 -2.3021e-07)
(5.0664e-05 -1.0531e-12 -2.2528e-07)
(4.709e-05 -2.0396e-11 -6.5525e-07)
(4.3483e-05 1.3368e-11 -1.3533e-06)
(3.9826e-05 9.0869e-11 -2.1448e-06)
(3.6106e-05 1.8289e-10 -2.856e-06)
(3.2323e-05 2.5533e-10 -3.2695e-06)
(2.847e-05 2.8011e-10 -3.0835e-06)
(2.4442e-05 2.4021e-10 -2.0974e-06)
(1.9899e-05 1.5264e-10 -6.0988e-07)
(1.4358e-05 6.4601e-11 5.521e-07)
(7.6003e-06 1.3979e-11 7.0868e-07)
(0 0 0)
(5.4211e-05 2.7991e-07 3.801e-08)
(5.0657e-05 2.6043e-07 3.5693e-08)
(4.7081e-05 6.2595e-07 8.1264e-08)
(4.347e-05 1.23e-06 1.5634e-07)
(3.9808e-05 1.9171e-06 2.4173e-07)
(3.6084e-05 2.528e-06 3.1783e-07)
(3.2288e-05 2.8674e-06 3.601e-07)
(2.84e-05 2.6852e-06 3.3716e-07)
(2.4302e-05 1.8367e-06 2.3126e-07)
(1.9677e-05 5.8686e-07 7.5657e-08)
(1.411e-05 -3.893e-07 -4.6117e-08)
(7.4346e-06 -5.4635e-07 -6.6556e-08)
(0 0 0)
(5.4198e-05 3.2576e-07 -2.4111e-10)
(5.0645e-05 2.8958e-07 -2.8344e-10)
(4.7065e-05 5.6451e-07 -4.4911e-10)
(4.3449e-05 1.0336e-06 -6.8701e-10)
(3.9781e-05 1.5695e-06 -9.3829e-10)
(3.6047e-05 2.0373e-06 -1.1398e-09)
(3.2231e-05 2.2776e-06 -1.2309e-09)
(2.8289e-05 2.1106e-06 -1.1597e-09)
(2.4088e-05 1.4578e-06 -9.0964e-10)
(1.9351e-05 5.3096e-07 -5.5329e-10)
(1.3755e-05 -1.9353e-07 -2.337e-10)
(7.1982e-06 -3.4245e-07 -5.4873e-11)
(0 0 0)
(5.4191e-05 3.1418e-07 -6.5315e-08)
(5.0639e-05 2.7599e-07 -5.7763e-08)
(4.7058e-05 5.0027e-07 -1.0253e-07)
(4.3439e-05 8.8883e-07 -1.7997e-07)
(3.9768e-05 1.3334e-06 -2.685e-07)
(3.603e-05 1.7184e-06 -3.4518e-07)
(3.2202e-05 1.9091e-06 -3.8328e-07)
(2.8235e-05 1.7622e-06 -3.5396e-07)
(2.399e-05 1.2233e-06 -2.4591e-07)
(1.9208e-05 4.694e-07 -9.4316e-08)
(1.3602e-05 -1.2071e-07 2.4498e-08)
(7.0978e-06 -2.5456e-07 5.1404e-08)
(0 0 0)
(5.4187e-05 2.7415e-07 -1.3969e-07)
(5.0636e-05 2.396e-07 -1.2248e-07)
(4.7054e-05 4.165e-07 -2.1066e-07)
(4.3433e-05 7.2594e-07 -3.6484e-07)
(3.976e-05 1.0803e-06 -5.4132e-07)
(3.6018e-05 1.3856e-06 -6.9336e-07)
(3.2184e-05 1.5336e-06 -7.6722e-07)
(2.82e-05 1.4126e-06 -7.0688e-07)
(2.3929e-05 9.8372e-07 -4.9235e-07)
(1.9121e-05 3.8851e-07 -1.9399e-07)
(1.351e-05 -7.8e-08 3.9987e-08)
(7.0383e-06 -1.8973e-07 9.5747e-08)
(0 0 0)
(5.4185e-05 2.1291e-07 -2.1287e-07)
(5.0634e-05 1.8596e-07 -1.8597e-07)
(4.7052e-05 3.1781e-07 -3.1785e-07)
(4.3431e-05 5.492e-07 -5.4927e-07)
(3.9757e-05 8.1424e-07 -8.1432e-07)
(3.6015e-05 1.0422e-06 -1.0422e-06)
(3.2177e-05 1.152e-06 -1.1521e-06)
(2.8188e-05 1.0605e-06 -1.0605e-06)
(2.3909e-05 7.3932e-07 -7.3936e-07)
(1.9092e-05 2.943e-07 -2.9434e-07)
(1.348e-05 -5.4716e-08 5.468e-08)
(7.0187e-06 -1.3954e-07 1.3952e-07)
(0 0 0)
(5.4187e-05 1.397e-07 -2.7408e-07)
(5.0636e-05 1.2241e-07 -2.3954e-07)
(4.7054e-05 2.1052e-07 -4.1644e-07)
(4.3433e-05 3.6464e-07 -7.2587e-07)
(3.976e-05 5.4109e-07 -1.0802e-06)
(3.6018e-05 6.9312e-07 -1.3855e-06)
(3.2183e-05 7.67e-07 -1.5335e-06)
(2.82e-05 7.0668e-07 -1.4125e-06)
(2.3929e-05 4.9219e-07 -9.8363e-07)
(1.9121e-05 1.9386e-07 -3.8845e-07)
(1.351e-05 -4.0077e-08 7.8027e-08)
(7.0383e-06 -9.5794e-08 1.8974e-07)
(0 0 0)
(5.4191e-05 6.5297e-08 -3.1408e-07)
(5.0639e-05 5.7641e-08 -2.7586e-07)
(4.7058e-05 1.0231e-07 -5.0009e-07)
(4.3439e-05 1.7967e-07 -8.8861e-07)
(3.9768e-05 2.6816e-07 -1.3331e-06)
(3.6029e-05 3.4483e-07 -1.7181e-06)
(3.2202e-05 3.8294e-07 -1.9088e-06)
(2.8234e-05 3.5367e-07 -1.7619e-06)
(2.399e-05 2.4566e-07 -1.223e-06)
(1.9207e-05 9.4125e-08 -4.6923e-07)
(1.3602e-05 -2.4629e-08 1.208e-07)
(7.0978e-06 -5.1471e-08 2.546e-07)
(0 0 0)
(5.4198e-05 1.9571e-10 -3.2563e-07)
(5.0645e-05 1.1142e-10 -2.8939e-07)
(4.7065e-05 1.5912e-10 -5.6425e-07)
(4.3448e-05 3.0539e-10 -1.0333e-06)
(3.9781e-05 5.046e-10 -1.5691e-06)
(3.6047e-05 6.9739e-10 -2.0368e-06)
(3.223e-05 8.1669e-10 -2.2771e-06)
(2.8289e-05 7.9767e-10 -2.1102e-06)
(2.4088e-05 6.1153e-10 -1.4574e-06)
(1.9351e-05 3.2345e-10 -5.3069e-07)
(1.3754e-05 7.5509e-11 1.9369e-07)
(7.1981e-06 -2.6432e-11 3.4252e-07)
(0 0 0)
(5.4211e-05 -3.8058e-08 -2.7974e-07)
(5.0657e-05 -3.5881e-08 -2.6018e-07)
(4.708e-05 -8.1577e-08 -6.2562e-07)
(4.3469e-05 -1.5675e-07 -1.2296e-06)
(3.9808e-05 -2.4218e-07 -1.9165e-06)
(3.6083e-05 -3.1828e-07 -2.5274e-06)
(3.2288e-05 -3.6052e-07 -2.8668e-06)
(2.84e-05 -3.3752e-07 -2.6846e-06)
(2.4301e-05 -2.3156e-07 -1.8362e-06)
(1.9676e-05 -7.5894e-08 -5.8648e-07)
(1.411e-05 4.5946e-08 3.8953e-07)
(7.4345e-06 6.6465e-08 5.4645e-07)
(0 0 0)
(5.4205e-05 2.986e-07 1.0313e-07)
(5.0652e-05 2.7142e-07 9.4242e-08)
(4.7074e-05 5.7998e-07 1.9276e-07)
(4.3461e-05 1.0974e-06 3.5783e-07)
(3.9797e-05 1.6872e-06 5.4589e-07)
(3.6068e-05 2.2073e-06 7.1181e-07)
(3.2263e-05 2.4858e-06 8.0077e-07)
(2.835e-05 2.3156e-06 7.4618e-07)
(2.4203e-05 1.5914e-06 5.1333e-07)
(1.9524e-05 5.4399e-07 1.7586e-07)
(1.3942e-05 -2.7439e-07 -8.8154e-08)
(7.3221e-06 -4.238e-07 -1.3653e-07)
(0 0 0)
(5.4191e-05 3.1408e-07 6.4966e-08)
(5.0639e-05 2.7593e-07 5.7322e-08)
(4.7058e-05 5.0025e-07 1.0182e-07)
(4.3439e-05 8.8885e-07 1.7888e-07)
(3.9768e-05 1.3335e-06 2.6704e-07)
(3.603e-05 1.7184e-06 3.4342e-07)
(3.2202e-05 1.9092e-06 3.8139e-07)
(2.8235e-05 1.7623e-06 3.5218e-07)
(2.399e-05 1.2233e-06 2.4447e-07)
(1.9208e-05 4.6939e-07 9.3364e-08)
(1.3602e-05 -1.2078e-07 -2.4987e-08)
(7.098e-06 -2.5463e-07 -5.158e-08)
(0 0 0)
(5.4184e-05 2.8766e-07 -2.2079e-10)
(5.0633e-05 2.501e-07 -2.5875e-10)
(4.705e-05 4.2582e-07 -4.3224e-10)
(4.3429e-05 7.3539e-07 -6.853e-10)
(3.9754e-05 1.0902e-06 -9.5313e-10)
(3.601e-05 1.3947e-06 -1.1677e-09)
(3.217e-05 1.5399e-06 -1.2626e-09)
(2.8176e-05 1.4159e-06 -1.1837e-09)
(2.3887e-05 9.8823e-07 -9.2083e-10)
(1.906e-05 3.988e-07 -5.5362e-10)
(1.3446e-05 -6.3474e-08 -2.277e-10)
(6.9965e-06 -1.789e-07 -4.9341e-11)
(0 0 0)
(5.4179e-05 2.34e-07 -7.9147e-08)
(5.0629e-05 2.025e-07 -6.8683e-08)
(4.7045e-05 3.3282e-07 -1.122e-07)
(4.3422e-05 5.6485e-07 -1.8961e-07)
(3.9745e-05 8.3103e-07 -2.7838e-07)
(3.5998e-05 1.0583e-06 -3.5415e-07)
(3.215e-05 1.1641e-06 -3.8949e-07)
(2.8139e-05 1.0682e-06 -3.5748e-07)
(2.3823e-05 7.4809e-07 -2.5042e-07)
(1.8971e-05 3.1057e-07 -1.0386e-07)
(1.3354e-05 -3.3088e-08 1.1312e-08)
(6.9366e-06 -1.2369e-07 4.1608e-08)
(0 0 0)
(5.4178e-05 1.6107e-07 -1.6102e-07)
(5.0627e-05 1.3928e-07 -1.3928e-07)
(4.7044e-05 2.2588e-07 -2.2594e-07)
(4.342e-05 3.8063e-07 -3.8073e-07)
(3.9742e-05 5.5819e-07 -5.5832e-07)
(3.5993e-05 7.0951e-07 -7.0964e-07)
(3.2143e-05 7.795e-07 -7.7962e-07)
(2.8126e-05 7.1484e-07 -7.1494e-07)
(2.3801e-05 5.0123e-07 -5.0131e-07)
(1.8941e-05 2.0985e-07 -2.0992e-07)
(1.3323e-05 -1.9175e-08 1.9131e-08)
(6.9167e-06 -8.0538e-08 8.0515e-08)
(0 0 0)
(5.4179e-05 7.9179e-08 -2.3393e-07)
(5.0629e-05 6.8634e-08 -2.0245e-07)
(4.7045e-05 1.1207e-07 -3.328e-07)
(4.3422e-05 1.8941e-07 -5.6484e-07)
(3.9745e-05 2.7813e-07 -8.3101e-07)
(3.5997e-05 3.5388e-07 -1.0582e-06)
(3.215e-05 3.8923e-07 -1.1641e-06)
(2.8138e-05 3.5725e-07 -1.0681e-06)
(2.3823e-05 2.5024e-07 -7.4805e-07)
(1.8971e-05 1.0373e-07 -3.1055e-07)
(1.3354e-05 -1.14e-08 3.3094e-08)
(6.9366e-06 -4.1651e-08 1.2369e-07)
(0 0 0)
(5.4184e-05 2.3593e-10 -2.8756e-07)
(5.0633e-05 1.6893e-10 -2.4999e-07)
(4.705e-05 2.3199e-10 -4.257e-07)
(4.3428e-05 3.8867e-10 -7.3526e-07)
(3.9754e-05 5.9111e-10 -1.09e-06)
(3.601e-05 7.8015e-10 -1.3945e-06)
(3.217e-05 8.8885e-10 -1.5397e-06)
(2.8176e-05 8.5484e-10 -1.4157e-06)
(2.3886e-05 6.5698e-10 -9.8806e-07)
(1.906e-05 3.6244e-10 -3.9869e-07)
(1.3446e-05 1.0678e-10 6.3533e-08)
(6.9965e-06 -8.3013e-12 1.7892e-07)
(0 0 0)
(5.4191e-05 -6.4965e-08 -3.1396e-07)
(5.0639e-05 -5.7449e-08 -2.7578e-07)
(4.7058e-05 -1.0207e-07 -5.0006e-07)
(4.3439e-05 -1.7925e-07 -8.886e-07)
(3.9768e-05 -2.6747e-07 -1.3331e-06)
(3.6029e-05 -3.4388e-07 -1.7181e-06)
(3.2202e-05 -3.8182e-07 -1.9088e-06)
(2.8234e-05 -3.5255e-07 -1.7619e-06)
(2.399e-05 -2.4477e-07 -1.223e-06)
(1.9208e-05 -9.3584e-08 -4.6918e-07)
(1.3602e-05 2.4844e-08 1.2089e-07)
(7.0979e-06 5.151e-08 2.5467e-07)
(0 0 0)
(5.4205e-05 -1.0311e-07 -2.9844e-07)
(5.0652e-05 -9.4368e-08 -2.7122e-07)
(4.7074e-05 -1.9302e-07 -5.7972e-07)
(4.346e-05 -3.582e-07 -1.097e-06)
(3.9796e-05 -5.4632e-07 -1.6867e-06)
(3.6067e-05 -7.1224e-07 -2.2068e-06)
(3.2262e-05 -8.0116e-07 -2.4852e-06)
(2.835e-05 -7.4652e-07 -2.3151e-06)
(2.4203e-05 -5.136e-07 -1.591e-06)
(1.9523e-05 -1.7607e-07 -5.4368e-07)
(1.3941e-05 8.8008e-08 2.7458e-07)
(7.322e-06 1.3645e-07 4.2388e-07)
(0 0 0)
(5.4201e-05 2.8317e-07 1.7467e-07)
(5.0649e-05 2.549e-07 1.576e-07)
(4.707e-05 5.0857e-07 3.0723e-07)
(4.3455e-05 9.3796e-07 5.6055e-07)
(3.9789e-05 1.4279e-06 8.4945e-07)
(3.6058e-05 1.8577e-06 1.1028e-06)
(3.2247e-05 2.0828e-06 1.2359e-06)
(2.8318e-05 1.9351e-06 1.1487e-06)
(2.4141e-05 1.334e-06 7.918e-07)
(1.9431e-05 4.721e-07 2.7862e-07)
(1.3841e-05 -2.0184e-07 -1.2284e-07)
(7.2555e-06 -3.3298e-07 -2.0012e-07)
(0 0 0)
(5.4187e-05 2.7397e-07 1.3965e-07)
(5.0636e-05 2.395e-07 1.2232e-07)
(4.7054e-05 4.1643e-07 2.1035e-07)
(4.3433e-05 7.2589e-07 3.6437e-07)
(3.976e-05 1.0803e-06 5.4072e-07)
(3.6018e-05 1.3856e-06 6.9268e-07)
(3.2184e-05 1.5336e-06 7.6651e-07)
(2.82e-05 1.4126e-06 7.0618e-07)
(2.393e-05 9.8372e-07 4.9168e-07)
(1.9121e-05 3.8848e-07 1.9338e-07)
(1.3511e-05 -7.8064e-08 -4.0475e-08)
(7.0386e-06 -1.8979e-07 -9.6025e-08)
(0 0 0)
(5.418e-05 2.3386e-07 7.896e-08)
(5.0629e-05 2.024e-07 6.8389e-08)
(4.7045e-05 3.3271e-07 1.1165e-07)
(4.3422e-05 5.6471e-07 1.8872e-07)
(3.9745e-05 8.3084e-07 2.7714e-07)
(3.5998e-05 1.058e-06 3.5264e-07)
(3.215e-05 1.1639e-06 3.8787e-07)
(2.8139e-05 1.068e-06 3.5594e-07)
(2.3823e-05 7.4794e-07 2.4917e-07)
(1.8971e-05 3.1049e-07 1.0302e-07)
(1.3354e-05 -3.3121e-08 -1.1759e-08)
(6.9367e-06 -1.237e-07 -4.1778e-08)
(0 0 0)
(5.4175e-05 1.6881e-07 -6.4314e-11)
(5.0624e-05 1.454e-07 -1.2498e-10)
(4.704e-05 2.3168e-07 -2.6254e-10)
(4.3415e-05 3.87e-07 -4.4192e-10)
(3.9736e-05 5.6534e-07 -6.2265e-10)
(3.5984e-05 7.1676e-07 -7.6378e-10)
(3.2128e-05 7.8561e-07 -8.2744e-10)
(2.81e-05 7.1937e-07 -7.8478e-10)
(2.3757e-05 5.0562e-07 -6.3319e-10)
(1.888e-05 2.1594e-07 -4.1611e-10)
(1.3261e-05 -1.1993e-08 -2.1037e-10)
(6.8763e-06 -7.5477e-08 -7.3723e-11)
(0 0 0)
(5.4173e-05 8.7052e-08 -8.6989e-08)
(5.0623e-05 7.4895e-08 -7.4899e-08)
(4.7038e-05 1.1803e-07 -1.1811e-07)
(4.3413e-05 1.9599e-07 -1.9614e-07)
(3.9733e-05 2.8554e-07 -2.8574e-07)
(3.598e-05 3.6144e-07 -3.6165e-07)
(3.2121e-05 3.9568e-07 -3.9589e-07)
(2.8086e-05 3.6211e-07 -3.623e-07)
(2.3735e-05 2.5485e-07 -2.5499e-07)
(1.885e-05 1.0983e-07 -1.0994e-07)
(1.3229e-05 -4.354e-09 4.2931e-09)
(6.8562e-06 -3.6724e-08 3.6696e-08)
(0 0 0)
(5.4175e-05 1.2699e-10 -1.6874e-07)
(5.0624e-05 9.8101e-11 -1.4538e-07)
(4.704e-05 1.3172e-10 -2.3171e-07)
(4.3415e-05 2.1307e-10 -3.8706e-07)
(3.9736e-05 3.2054e-10 -5.6543e-07)
(3.5984e-05 4.2503e-10 -7.1685e-07)
(3.2128e-05 4.9167e-10 -7.8569e-07)
(2.81e-05 4.8726e-10 -7.1944e-07)
(2.3757e-05 3.9903e-10 -5.0567e-07)
(1.888e-05 2.5528e-10 -2.1597e-07)
(1.326e-05 1.1698e-10 1.1969e-08)
(6.8762e-06 3.3036e-11 7.5465e-08)
(0 0 0)
(5.4179e-05 -7.8906e-08 -2.3377e-07)
(5.0629e-05 -6.8443e-08 -2.0233e-07)
(4.7045e-05 -1.1183e-07 -3.3267e-07)
(4.3422e-05 -1.8904e-07 -5.6466e-07)
(3.9745e-05 -2.7756e-07 -8.3077e-07)
(3.5997e-05 -3.5311e-07 -1.0579e-06)
(3.215e-05 -3.8834e-07 -1.1638e-06)
(2.8138e-05 -3.5635e-07 -1.0678e-06)
(2.3823e-05 -2.4949e-07 -7.4784e-07)
(1.8971e-05 -1.0324e-07 -3.1043e-07)
(1.3354e-05 1.1641e-08 3.3136e-08)
(6.9366e-06 4.173e-08 1.237e-07)
(0 0 0)
(5.4187e-05 -1.3959e-07 -2.7385e-07)
(5.0635e-05 -1.2239e-07 -2.3939e-07)
(4.7053e-05 -2.1057e-07 -4.1631e-07)
(4.3433e-05 -3.6473e-07 -7.2573e-07)
(3.976e-05 -5.4118e-07 -1.08e-06)
(3.6018e-05 -6.9318e-07 -1.3853e-06)
(3.2184e-05 -7.67e-07 -1.5333e-06)
(2.82e-05 -7.0661e-07 -1.4123e-06)
(2.3929e-05 -4.9202e-07 -9.8347e-07)
(1.9121e-05 -1.9361e-07 -3.8833e-07)
(1.3511e-05 4.0341e-08 7.812e-08)
(7.0385e-06 9.5965e-08 1.8979e-07)
(0 0 0)
(5.4201e-05 -1.7455e-07 -2.8302e-07)
(5.0648e-05 -1.5763e-07 -2.5474e-07)
(4.707e-05 -3.0741e-07 -5.0838e-07)
(4.3455e-05 -5.6086e-07 -9.3772e-07)
(3.9789e-05 -8.4984e-07 -1.4276e-06)
(3.6058e-05 -1.1032e-06 -1.8573e-06)
(3.2246e-05 -1.2362e-06 -2.0824e-06)
(2.8317e-05 -1.149e-06 -1.9347e-06)
(2.4141e-05 -7.9204e-07 -1.3336e-06)
(1.943e-05 -2.788e-07 -4.7186e-07)
(1.3841e-05 1.2272e-07 2.0196e-07)
(7.2554e-06 2.0005e-07 3.3302e-07)
(0 0 0)
(5.42e-05 2.3874e-07 2.3898e-07)
(5.0648e-05 2.1453e-07 2.1458e-07)
(4.7069e-05 4.1548e-07 4.1534e-07)
(4.3453e-05 7.5675e-07 7.5644e-07)
(3.9787e-05 1.1462e-06 1.1457e-06)
(3.6055e-05 1.487e-06 1.4864e-06)
(3.2241e-05 1.6645e-06 1.6638e-06)
(2.8307e-05 1.5456e-06 1.5449e-06)
(2.412e-05 1.0665e-06 1.0658e-06)
(1.94e-05 3.8023e-07 3.7968e-07)
(1.3808e-05 -1.5665e-07 -1.5706e-07)
(7.2336e-06 -2.6248e-07 -2.627e-07)
(0 0 0)
(5.4186e-05 2.1274e-07 2.1296e-07)
(5.0635e-05 1.8587e-07 1.8592e-07)
(4.7052e-05 3.1777e-07 3.1765e-07)
(4.3431e-05 5.492e-07 5.4891e-07)
(3.9758e-05 8.1425e-07 8.1381e-07)
(3.6015e-05 1.0422e-06 1.0416e-06)
(3.2177e-05 1.1521e-06 1.1514e-06)
(2.8189e-05 1.0605e-06 1.0599e-06)
(2.3909e-05 7.3936e-07 7.3876e-07)
(1.9092e-05 2.9431e-07 2.938e-07)
(1.3481e-05 -5.4732e-08 -5.5108e-08)
(7.0188e-06 -1.3956e-07 -1.3976e-07)
(0 0 0)
(5.4178e-05 1.6088e-07 1.6106e-07)
(5.0628e-05 1.3915e-07 1.3919e-07)
(4.7044e-05 2.2575e-07 2.2563e-07)
(4.342e-05 3.8045e-07 3.8018e-07)
(3.9743e-05 5.5796e-07 5.5754e-07)
(3.5993e-05 7.0923e-07 7.087e-07)
(3.2143e-05 7.792e-07 7.786e-07)
(2.8126e-05 7.1457e-07 7.1395e-07)
(2.3801e-05 5.0104e-07 5.0046e-07)
(1.8941e-05 2.0976e-07 2.0927e-07)
(1.3323e-05 -1.9188e-08 -1.9546e-08)
(6.9168e-06 -8.0524e-08 -8.0713e-08)
(0 0 0)
(5.4173e-05 8.6931e-08 8.7064e-08)
(5.0623e-05 7.4806e-08 7.4818e-08)
(4.7038e-05 1.1793e-07 1.1781e-07)
(4.3413e-05 1.9585e-07 1.9558e-07)
(3.9733e-05 2.8535e-07 2.8494e-07)
(3.598e-05 3.612e-07 3.6068e-07)
(3.2121e-05 3.9542e-07 3.9483e-07)
(2.8086e-05 3.6188e-07 3.6127e-07)
(2.3735e-05 2.5468e-07 2.5411e-07)
(1.885e-05 1.0976e-07 1.0928e-07)
(1.3229e-05 -4.3592e-09 -4.6999e-09)
(6.8562e-06 -3.6707e-08 -3.6884e-08)
(0 0 0)
(5.4171e-05 -4.1803e-13 8.1986e-11)
(5.0621e-05 6.0319e-12 -9.1125e-12)
(4.7037e-05 1.7074e-11 -1.2025e-10)
(4.341e-05 3.7027e-11 -2.3594e-10)
(3.973e-05 6.7115e-11 -3.3892e-10)
(3.5975e-05 1.0379e-10 -4.1378e-10)
(3.2113e-05 1.3954e-10 -4.4958e-10)
(2.8073e-05 1.6523e-10 -4.4069e-10)
(2.3713e-05 1.7272e-10 -3.8838e-10)
(1.8819e-05 1.5733e-10 -3.0312e-10)
(1.3198e-05 1.1949e-10 -2.018e-10)
(6.8361e-06 6.4346e-11 -9.9035e-11)
(0 0 0)
(5.4173e-05 -8.6956e-08 -8.6896e-08)
(5.0623e-05 -7.4814e-08 -7.4835e-08)
(4.7038e-05 -1.1793e-07 -1.1805e-07)
(4.3413e-05 -1.9582e-07 -1.9605e-07)
(3.9733e-05 -2.8528e-07 -2.8562e-07)
(3.598e-05 -3.6108e-07 -3.6151e-07)
(3.2121e-05 -3.9524e-07 -3.9573e-07)
(2.8086e-05 -3.6163e-07 -3.6215e-07)
(2.3735e-05 -2.544e-07 -2.5489e-07)
(1.885e-05 -1.0947e-07 -1.0989e-07)
(1.3229e-05 4.5973e-09 4.299e-09)
(6.8562e-06 3.6842e-08 3.6687e-08)
(0 0 0)
(5.4178e-05 -1.6098e-07 -1.6082e-07)
(5.0627e-05 -1.3921e-07 -1.3914e-07)
(4.7044e-05 -2.2583e-07 -2.2578e-07)
(4.342e-05 -3.8057e-07 -3.805e-07)
(3.9742e-05 -5.581e-07 -5.58e-07)
(3.5993e-05 -7.0935e-07 -7.0924e-07)
(3.2143e-05 -7.7928e-07 -7.7919e-07)
(2.8126e-05 -7.1456e-07 -7.1455e-07)
(2.3801e-05 -5.0092e-07 -5.0103e-07)
(1.8941e-05 -2.0955e-07 -2.0978e-07)
(1.3323e-05 1.9427e-08 1.9147e-08)
(6.9168e-06 8.0682e-08 8.049e-08)
(0 0 0)
(5.4185e-05 -2.1284e-07 -2.1262e-07)
(5.0634e-05 -1.8593e-07 -1.858e-07)
(4.7052e-05 -3.1784e-07 -3.1769e-07)
(4.3431e-05 -5.4929e-07 -5.4907e-07)
(3.9757e-05 -8.1436e-07 -8.1405e-07)
(3.6014e-05 -1.0423e-06 -1.0419e-06)
(3.2177e-05 -1.1521e-06 -1.1517e-06)
(2.8188e-05 -1.0605e-06 -1.0602e-06)
(2.3909e-05 -7.392e-07 -7.3911e-07)
(1.9092e-05 -2.9407e-07 -2.9421e-07)
(1.348e-05 5.4971e-08 5.4714e-08)
(7.0187e-06 1.3971e-07 1.3951e-07)
(0 0 0)
(5.4199e-05 -2.3874e-07 -2.386e-07)
(5.0647e-05 -2.1451e-07 -2.1443e-07)
(4.7069e-05 -4.1543e-07 -4.1538e-07)
(4.3453e-05 -7.5668e-07 -7.5662e-07)
(3.9786e-05 -1.146e-06 -1.1459e-06)
(3.6054e-05 -1.4868e-06 -1.4867e-06)
(3.2241e-05 -1.6642e-06 -1.6641e-06)
(2.8306e-05 -1.5452e-06 -1.5452e-06)
(2.412e-05 -1.0661e-06 -1.0662e-06)
(1.9399e-05 -3.7985e-07 -3.8007e-07)
(1.3807e-05 1.5693e-07 1.5669e-07)
(7.2334e-06 2.6263e-07 2.6247e-07)
(0 0 0)
(5.4201e-05 1.7449e-07 2.8349e-07)
(5.0649e-05 1.5758e-07 2.55e-07)
(4.707e-05 3.0737e-07 5.0844e-07)
(4.3455e-05 5.6085e-07 9.3762e-07)
(3.9789e-05 8.499e-07 1.4274e-06)
(3.6058e-05 1.1034e-06 1.857e-06)
(3.2247e-05 1.2365e-06 2.0821e-06)
(2.8318e-05 1.1493e-06 1.9344e-06)
(2.4141e-05 7.9241e-07 1.3333e-06)
(1.9431e-05 2.7915e-07 4.7153e-07)
(1.3841e-05 -1.2245e-07 -2.0226e-07)
(7.2555e-06 -1.9991e-07 -3.332e-07)
(0 0 0)
(5.4187e-05 1.3949e-07 2.7426e-07)
(5.0636e-05 1.223e-07 2.3958e-07)
(4.7054e-05 2.1048e-07 4.1632e-07)
(4.3433e-05 3.6465e-07 7.256e-07)
(3.976e-05 5.4113e-07 1.0798e-06)
(3.6019e-05 6.932e-07 1.385e-06)
(3.2184e-05 7.671e-07 1.533e-06)
(2.82e-05 7.0679e-07 1.4119e-06)
(2.393e-05 4.9227e-07 9.8311e-07)
(1.9121e-05 1.9388e-07 3.8795e-07)
(1.3511e-05 -4.0109e-08 -7.8453e-08)
(7.0386e-06 -9.5831e-08 -1.8999e-07)
(0 0 0)
(5.418e-05 7.8826e-08 2.341e-07)
(5.0629e-05 6.8376e-08 2.0246e-07)
(4.7045e-05 1.1177e-07 3.3261e-07)
(4.3422e-05 1.8898e-07 5.6443e-07)
(3.9746e-05 2.7754e-07 8.3042e-07)
(3.5998e-05 3.5316e-07 1.0575e-06)
(3.215e-05 3.8845e-07 1.1633e-06)
(2.8139e-05 3.5655e-07 1.0673e-06)
(2.3823e-05 2.4974e-07 7.4735e-07)
(1.8971e-05 1.0351e-07 3.0999e-07)
(1.3354e-05 -1.1412e-08 -3.3493e-08)
(6.9367e-06 -4.1597e-08 -1.239e-07)
(0 0 0)
(5.4175e-05 -1.514e-10 1.6899e-07)
(5.0625e-05 -1.1478e-10 1.4544e-07)
(4.704e-05 -1.2996e-10 2.3157e-07)
(4.3415e-05 -1.727e-10 3.8672e-07)
(3.9736e-05 -2.1857e-10 5.6493e-07)
(3.5985e-05 -2.4605e-10 7.1623e-07)
(3.2128e-05 -2.3616e-10 7.8501e-07)
(2.81e-05 -1.7483e-10 7.1875e-07)
(2.3757e-05 -6.6344e-11 5.0504e-07)
(1.888e-05 5.1115e-11 2.1544e-07)
(1.3261e-05 1.1718e-10 -1.2352e-08)
(6.8763e-06 9.347e-11 -7.5666e-08)
(0 0 0)
(5.4173e-05 -8.7028e-08 8.7154e-08)
(5.0623e-05 -7.4864e-08 7.4882e-08)
(4.7038e-05 -1.1797e-07 1.1787e-07)
(4.3413e-05 -1.9587e-07 1.9567e-07)
(3.9733e-05 -2.8534e-07 2.8506e-07)
(3.598e-05 -3.6114e-07 3.6082e-07)
(3.2121e-05 -3.9531e-07 3.9499e-07)
(2.8086e-05 -3.617e-07 3.6141e-07)
(2.3735e-05 -2.5444e-07 2.5421e-07)
(1.885e-05 -1.0949e-07 1.0932e-07)
(1.3229e-05 4.5968e-09 -4.6996e-09)
(6.8562e-06 3.6847e-08 -3.6895e-08)
(0 0 0)
(5.4175e-05 -1.6879e-07 8.4048e-11)
(5.0624e-05 -1.4536e-07 -2.5113e-11)
(4.704e-05 -2.3162e-07 -1.6993e-10)
(4.3415e-05 -3.8689e-07 -3.273e-10)
(3.9736e-05 -5.6518e-07 -4.7228e-10)
(3.5984e-05 -7.1652e-07 -5.8118e-10)
(3.2128e-05 -7.853e-07 -6.3296e-10)
(2.81e-05 -7.1901e-07 -6.1099e-10)
(2.3757e-05 -5.0525e-07 -5.1251e-10)
(1.888e-05 -2.1561e-07 -3.6249e-10)
(1.3261e-05 1.2242e-08 -2.0809e-10)
(6.8763e-06 7.5611e-08 -8.7162e-11)
(0 0 0)
(5.4179e-05 -2.3392e-07 -7.8945e-08)
(5.0629e-05 -2.0241e-07 -6.8552e-08)
(4.7045e-05 -3.3273e-07 -1.1209e-07)
(4.3422e-05 -5.6474e-07 -1.8948e-07)
(3.9745e-05 -8.3088e-07 -2.782e-07)
(3.5998e-05 -1.058e-06 -3.5393e-07)
(3.215e-05 -1.1639e-06 -3.8926e-07)
(2.8139e-05 -1.0678e-06 -3.5726e-07)
(2.3823e-05 -7.4774e-07 -2.5027e-07)
(1.8971e-05 -3.1025e-07 -1.0379e-07)
(1.3354e-05 3.3347e-08 1.1319e-08)
(6.9366e-06 1.2384e-07 4.1594e-08)
(0 0 0)
(5.4187e-05 -2.7403e-07 -1.3947e-07)
(5.0635e-05 -2.395e-07 -1.2235e-07)
(4.7054e-05 -4.1641e-07 -2.1057e-07)
(4.3433e-05 -7.2586e-07 -3.6474e-07)
(3.976e-05 -1.0802e-06 -5.4119e-07)
(3.6018e-05 -1.3854e-06 -6.9319e-07)
(3.2184e-05 -1.5335e-06 -7.6704e-07)
(2.82e-05 -1.4123e-06 -7.0671e-07)
(2.3929e-05 -9.8343e-07 -4.9222e-07)
(1.9121e-05 -3.8821e-07 -1.9392e-07)
(1.3511e-05 7.8265e-08 4e-08)
(7.0384e-06 1.8989e-07 9.574e-08)
(0 0 0)
(5.4201e-05 -2.8311e-07 -1.744e-07)
(5.0648e-05 -2.548e-07 -1.5756e-07)
(4.707e-05 -5.0841e-07 -3.0737e-07)
(4.3455e-05 -9.3773e-07 -5.6081e-07)
(3.9789e-05 -1.4276e-06 -8.4976e-07)
(3.6058e-05 -1.8572e-06 -1.1031e-06)
(3.2246e-05 -2.0823e-06 -1.2361e-06)
(2.8317e-05 -1.9345e-06 -1.149e-06)
(2.4141e-05 -1.3334e-06 -7.9217e-07)
(1.943e-05 -4.7166e-07 -2.7908e-07)
(1.3841e-05 2.021e-07 1.2238e-07)
(7.2553e-06 3.3309e-07 1.9982e-07)
(0 0 0)
(5.4205e-05 1.0299e-07 2.99e-07)
(5.0652e-05 9.4241e-08 2.7157e-07)
(4.7074e-05 1.929e-07 5.7987e-07)
(4.3461e-05 3.5811e-07 1.097e-06)
(3.9797e-05 5.463e-07 1.6866e-06)
(3.6068e-05 7.1233e-07 2.2067e-06)
(3.2263e-05 8.0136e-07 2.4851e-06)
(2.835e-05 7.468e-07 2.3149e-06)
(2.4203e-05 5.1392e-07 1.5907e-06)
(1.9524e-05 1.7638e-07 5.434e-07)
(1.3942e-05 -8.7769e-08 -2.7483e-07)
(7.3221e-06 -1.3632e-07 -4.2404e-07)
(0 0 0)
(5.4192e-05 6.4833e-08 3.1444e-07)
(5.064e-05 5.7308e-08 2.7606e-07)
(4.7058e-05 1.0193e-07 5.0015e-07)
(4.3439e-05 1.7913e-07 8.8855e-07)
(3.9768e-05 2.6742e-07 1.333e-06)
(3.603e-05 3.4391e-07 1.7179e-06)
(3.2202e-05 3.8195e-07 1.9086e-06)
(2.8235e-05 3.5277e-07 1.7616e-06)
(2.399e-05 2.4503e-07 1.2227e-06)
(1.9208e-05 9.3854e-08 4.6885e-07)
(1.3602e-05 -2.4626e-08 -1.2119e-07)
(7.098e-06 -5.1388e-08 -2.5485e-07)
(0 0 0)
(5.4184e-05 -3.2494e-10 2.8796e-07)
(5.0633e-05 -2.6435e-10 2.5021e-07)
(4.705e-05 -3.1898e-10 4.2574e-07)
(4.3429e-05 -4.4053e-10 7.3514e-07)
(3.9754e-05 -5.7719e-10 1.0898e-06)
(3.601e-05 -6.7896e-10 1.3942e-06)
(3.217e-05 -6.9744e-10 1.5393e-06)
(2.8176e-05 -5.9153e-10 1.4153e-06)
(2.3887e-05 -3.5908e-10 9.8765e-07)
(1.906e-05 -7.8688e-11 3.9829e-07)
(1.3446e-05 1.1415e-10 -6.3865e-08)
(6.9966e-06 1.2878e-10 -1.7911e-07)
(0 0 0)
(5.418e-05 -7.9193e-08 2.3425e-07)
(5.0629e-05 -6.8656e-08 2.0258e-07)
(4.7045e-05 -1.1206e-07 3.3274e-07)
(4.3422e-05 -1.8934e-07 5.6462e-07)
(3.9745e-05 -2.7797e-07 8.3067e-07)
(3.5998e-05 -3.5362e-07 1.0578e-06)
(3.215e-05 -3.8888e-07 1.1636e-06)
(2.8139e-05 -3.5685e-07 1.0676e-06)
(2.3823e-05 -2.4984e-07 7.4755e-07)
(1.8971e-05 -1.0339e-07 3.1008e-07)
(1.3354e-05 1.1633e-08 -3.3468e-08)
(6.9366e-06 4.1768e-08 -1.239e-07)
(0 0 0)
(5.4178e-05 -1.6098e-07 1.6126e-07)
(5.0627e-05 -1.392e-07 1.3933e-07)
(4.7044e-05 -2.2574e-07 2.258e-07)
(4.342e-05 -3.8037e-07 3.8041e-07)
(3.9743e-05 -5.5779e-07 5.5786e-07)
(3.5993e-05 -7.0896e-07 7.0909e-07)
(3.2143e-05 -7.7885e-07 7.7902e-07)
(2.8126e-05 -7.1417e-07 7.1433e-07)
(2.3801e-05 -5.0064e-07 5.0072e-07)
(1.8941e-05 -2.0942e-07 2.0938e-07)
(1.3323e-05 1.9426e-08 -1.9552e-08)
(6.9168e-06 8.0645e-08 -8.075e-08)
(0 0 0)
(5.4179e-05 -2.3385e-07 7.9155e-08)
(5.0629e-05 -2.0235e-07 6.8518e-08)
(4.7045e-05 -3.3262e-07 1.1176e-07)
(4.3422e-05 -5.6455e-07 1.8886e-07)
(3.9745e-05 -8.3061e-07 2.7732e-07)
(3.5998e-05 -1.0577e-06 3.5286e-07)
(3.215e-05 -1.1635e-06 3.881e-07)
(2.8139e-05 -1.0675e-06 3.5614e-07)
(2.3823e-05 -7.4751e-07 2.493e-07)
(1.8971e-05 -3.1012e-07 1.0307e-07)
(1.3354e-05 3.3383e-08 -1.1769e-08)
(6.9367e-06 1.2383e-07 -4.1802e-08)
(0 0 0)
(5.4184e-05 -2.8756e-07 -1.2687e-11)
(5.0633e-05 -2.4998e-07 -1.3033e-10)
(4.705e-05 -4.2567e-07 -3.3713e-10)
(4.3428e-05 -7.352e-07 -5.8835e-10)
(3.9754e-05 -1.0899e-06 -8.3506e-10)
(3.601e-05 -1.3944e-06 -1.0269e-09)
(3.217e-05 -1.5395e-06 -1.1143e-09)
(2.8176e-05 -1.4155e-06 -1.0542e-09)
(2.3886e-05 -9.8781e-07 -8.3675e-10)
(1.906e-05 -3.9843e-07 -5.2506e-10)
(1.3446e-05 6.3753e-08 -2.3896e-10)
(6.9965e-06 1.7905e-07 -6.7999e-11)
(0 0 0)
(5.4191e-05 -3.1402e-07 -6.5101e-08)
(5.0639e-05 -2.7582e-07 -5.7644e-08)
(4.7058e-05 -5.0008e-07 -1.0246e-07)
(4.3439e-05 -8.8862e-07 -1.7992e-07)
(3.9768e-05 -1.3332e-06 -2.6845e-07)
(3.6029e-05 -1.7181e-06 -3.4512e-07)
(3.2202e-05 -1.9088e-06 -3.832e-07)
(2.8235e-05 -1.7618e-06 -3.5389e-07)
(2.399e-05 -1.2228e-06 -2.4586e-07)
(1.9208e-05 -4.6902e-07 -9.4302e-08)
(1.3602e-05 1.21e-07 2.4488e-08)
(7.0978e-06 2.5472e-07 5.139e-08)
(0 0 0)
(5.4205e-05 -2.9847e-07 -1.0306e-07)
(5.0652e-05 -2.7125e-07 -9.4408e-08)
(4.7074e-05 -5.7975e-07 -1.9316e-07)
(4.346e-05 -1.0971e-06 -3.5844e-07)
(3.9796e-05 -1.6867e-06 -5.4665e-07)
(3.6068e-05 -2.2068e-06 -7.1266e-07)
(3.2262e-05 -2.4851e-06 -8.0164e-07)
(2.835e-05 -2.3149e-06 -7.4703e-07)
(2.4203e-05 -1.5908e-06 -5.1411e-07)
(1.9523e-05 -5.4351e-07 -1.7654e-07)
(1.3941e-05 2.7467e-07 8.7631e-08)
(7.3219e-06 4.2391e-07 1.3624e-07)
(0 0 0)
(5.4212e-05 3.7882e-08 2.804e-07)
(5.0658e-05 3.5687e-08 2.6063e-07)
(4.7081e-05 8.138e-08 6.2587e-07)
(4.347e-05 1.5658e-07 1.2297e-06)
(3.9809e-05 2.4209e-07 1.9165e-06)
(3.6084e-05 3.183e-07 2.5273e-06)
(3.2288e-05 3.6065e-07 2.8667e-06)
(2.84e-05 3.3774e-07 2.6844e-06)
(2.4302e-05 2.3184e-07 1.836e-06)
(1.9677e-05 7.6163e-08 5.8624e-07)
(1.411e-05 -4.5735e-08 -3.8977e-07)
(7.4346e-06 -6.635e-08 -5.466e-07)
(0 0 0)
(5.4198e-05 -3.727e-10 3.2619e-07)
(5.0645e-05 -3.1302e-10 2.8976e-07)
(4.7066e-05 -3.655e-10 5.6445e-07)
(4.3449e-05 -4.8109e-10 1.0333e-06)
(3.9781e-05 -6.0788e-10 1.569e-06)
(3.6047e-05 -6.9902e-10 2.0367e-06)
(3.2231e-05 -7.104e-10 2.2769e-06)
(2.8289e-05 -6.0051e-10 2.11e-06)
(2.4088e-05 -3.6134e-10 1.4572e-06)
(1.9351e-05 -7.1418e-11 5.304e-07)
(1.3755e-05 1.2647e-10 -1.9396e-07)
(7.1982e-06 1.3811e-10 -3.4268e-07)
(0 0 0)
(5.4191e-05 -6.5421e-08 3.1456e-07)
(5.064e-05 -5.7787e-08 2.7616e-07)
(4.7058e-05 -1.0245e-07 5.0022e-07)
(4.3439e-05 -1.7977e-07 8.886e-07)
(3.9768e-05 -2.6818e-07 1.333e-06)
(3.603e-05 -3.4475e-07 1.7179e-06)
(3.2202e-05 -3.8277e-07 1.9085e-06)
(2.8235e-05 -3.5341e-07 1.7616e-06)
(2.399e-05 -2.4537e-07 1.2227e-06)
(1.9208e-05 -9.3851e-08 4.6887e-07)
(1.3602e-05 2.484e-08 -1.2112e-07)
(7.0979e-06 5.1585e-08 -2.5479e-07)
(0 0 0)
(5.4187e-05 -1.3974e-07 2.7447e-07)
(5.0636e-05 -1.2247e-07 2.3974e-07)
(4.7054e-05 -2.1056e-07 4.1647e-07)
(4.3433e-05 -3.6462e-07 7.2576e-07)
(3.976e-05 -5.4097e-07 1.08e-06)
(3.6019e-05 -6.9289e-07 1.3852e-06)
(3.2184e-05 -7.6667e-07 1.5332e-06)
(2.82e-05 -7.063e-07 1.4121e-06)
(2.3929e-05 -4.918e-07 9.8322e-07)
(1.9121e-05 -1.9353e-07 3.8803e-07)
(1.3511e-05 4.0309e-08 -7.8402e-08)