/*--------------------------------*- C++ -*----------------------------------*\
| =========                 |                                                 |
| \\      /  F ield         | OpenFOAM: The Open Source CFD Toolbox           |
|  \\    /   O peration     | Version:  4.1                                   |
|   \\  /    A nd           | Web:      www.OpenFOAM.org                      |
|    \\/     M anipulation  |                                                 |
\*---------------------------------------------------------------------------*/
FoamFile
{
    version     2.0;
    format      ascii;
    class       pointVectorField;
    location    "0.0091";
    object      pointDisplacement_Next;
}
// * * * * * * * * * * * * * * * * * * * * * * * * * * * * * * * * * * * * * //

dimensions      [0 1 0 0 0 0 0];

internalField   uniform (0 0 0);

boundaryField
{
    inlet
    {
        type            fixedValue;
        value           uniform (0 0 0);
    }
    outlet
    {
        type            fixedValue;
        value           nonuniform 0();
    }
    mantle
    {
        type            fixedValue;
        value           nonuniform List<vector> 
416
(
(4.2171e-12 -2.071e-12 -1.2021e-16)
(1.0579e-05 -5.0057e-06 -2.8756e-10)
(1.0427e-05 -4.5619e-06 7.0156e-07)
(1.704e-08 -4.3744e-08 -3.4801e-08)
(1.0278e-05 -3.9176e-06 1.6216e-06)
(5.0499e-12 -4.4676e-12 1.7e-12)
(1.0428e-05 -3.7222e-06 2.7279e-06)
(1.7053e-08 -6.3248e-09 5.5495e-08)
(1.0579e-05 -3.539e-06 3.5386e-06)
(2.9494e-12 1.463e-12 -1.4632e-12)
(1.0427e-05 -2.7283e-06 3.7219e-06)
(1.7052e-08 -5.5497e-08 6.3244e-09)
(1.0278e-05 -1.622e-06 3.9174e-06)
(5.0499e-12 -1.7e-12 4.4674e-12)
(1.0427e-05 -7.0196e-07 4.5617e-06)
(1.7039e-08 3.48e-08 4.3745e-08)
(1.0579e-05 -8.2367e-11 5.0055e-06)
(4.2171e-12 -3.0629e-17 2.071e-12)
(1.8613e-05 -5.8757e-06 -5.0472e-10)
(1.8267e-05 -5.025e-06 6.9234e-07)
(1.8002e-05 -4.1016e-06 1.6969e-06)
(1.8267e-05 -4.0444e-06 3.0612e-06)
(1.8612e-05 -4.1549e-06 4.1542e-06)
(1.8267e-05 -3.0619e-06 4.044e-06)
(1.8001e-05 -1.6977e-06 4.1013e-06)
(1.8267e-05 -6.9307e-07 5.0248e-06)
(1.8612e-05 -1.5521e-10 5.8756e-06)
(2.2645e-05 -3.9658e-07 -6.3619e-10)
(2.2491e-05 -1.393e-07 -1.3633e-07)
(2.2346e-05 1.5897e-07 -6.8258e-08)
(2.249e-05 -6.0923e-09 1.9359e-07)
(2.2643e-05 -2.8352e-07 2.8277e-07)
(2.249e-05 -1.9456e-07 5.691e-09)
(2.2346e-05 6.7227e-08 -1.5902e-07)
(2.2491e-05 1.3536e-07 1.3946e-07)
(2.2644e-05 -1.9656e-10 3.9678e-07)
(2.4898e-05 5.9772e-06 -7.1334e-10)
(2.4941e-05 5.6362e-06 -1.1242e-06)
(2.4916e-05 5.2628e-06 -2.182e-06)
(2.4942e-05 4.7764e-06 -3.1909e-06)
(2.4898e-05 4.2224e-06 -4.2232e-06)
(2.4941e-05 3.1897e-06 -4.7767e-06)
(2.4915e-05 2.1808e-06 -5.2626e-06)
(2.4941e-05 1.1231e-06 -5.6356e-06)
(2.4898e-05 -2.4178e-10 -5.9765e-06)
(2.8e-05 7.7874e-06 -7.8098e-10)
(2.7982e-05 7.6423e-06 -1.5516e-06)
(2.7954e-05 7.2355e-06 -2.997e-06)
(2.7987e-05 6.5033e-06 -4.3086e-06)
(2.8007e-05 5.5088e-06 -5.5096e-06)
(2.7986e-05 4.3073e-06 -6.5034e-06)
(2.7953e-05 2.9956e-06 -7.2349e-06)
(2.7981e-05 1.5503e-06 -7.6413e-06)
(2.8e-05 -3.1802e-10 -7.7863e-06)
(3.1914e-05 6.4461e-06 -8.3215e-10)
(3.1816e-05 6.6152e-06 -1.4272e-06)
(3.174e-05 6.4709e-06 -2.6779e-06)
(3.1826e-05 5.7002e-06 -3.6741e-06)
(3.1928e-05 4.5721e-06 -4.573e-06)
(3.1826e-05 3.6726e-06 -5.7003e-06)
(3.174e-05 2.6762e-06 -6.4701e-06)
(3.1816e-05 1.4257e-06 -6.6138e-06)
(3.1913e-05 -3.9899e-10 -6.4446e-06)
(3.5718e-05 5.054e-06 -8.4388e-10)
(3.5671e-05 5.1392e-06 -1.1244e-06)
(3.5631e-05 5.0458e-06 -2.0856e-06)
(3.5685e-05 4.4579e-06 -2.8522e-06)
(3.5737e-05 3.6049e-06 -3.6058e-06)
(3.5684e-05 2.8506e-06 -4.4579e-06)
(3.5631e-05 2.0838e-06 -5.0449e-06)
(3.5671e-05 1.1228e-06 -5.1376e-06)
(3.5717e-05 -4.4716e-10 -5.0523e-06)
(3.9301e-05 3.852e-06 -8.1932e-10)
(3.9306e-05 3.8357e-06 -8.0815e-07)
(3.9312e-05 3.7194e-06 -1.5374e-06)
(3.9323e-05 3.3348e-06 -2.1718e-06)
(3.9325e-05 2.7833e-06 -2.7842e-06)
(3.9322e-05 2.1702e-06 -3.3347e-06)
(3.9312e-05 1.5356e-06 -3.7183e-06)
(3.9305e-05 8.0648e-07 -3.834e-06)
(3.9301e-05 -4.6426e-10 -3.8502e-06)
(4.2827e-05 2.3981e-06 -2.024e-10)
(4.2831e-05 2.3832e-06 -4.9517e-07)
(4.2846e-05 2.3128e-06 -9.6049e-07)
(4.2853e-05 2.1178e-06 -1.3955e-06)
(4.2857e-05 1.7979e-06 -1.7994e-06)
(4.2853e-05 1.394e-06 -2.1176e-06)
(4.2846e-05 9.5872e-07 -2.3116e-06)
(4.2831e-05 4.9355e-07 -2.3814e-06)
(4.2826e-05 -1.0344e-09 -2.3962e-06)
(4.6287e-05 8.3137e-07 -6.7952e-10)
(4.6287e-05 8.4296e-07 -1.6107e-07)
(4.6284e-05 8.5718e-07 -3.5929e-07)
(4.6314e-05 8.3483e-07 -5.6994e-07)
(4.6321e-05 7.4218e-07 -7.4288e-07)
(4.6314e-05 5.6855e-07 -8.3454e-07)
(4.6284e-05 3.5764e-07 -8.5592e-07)
(4.6287e-05 1.5958e-07 -8.4105e-07)
(4.6287e-05 -4.3941e-10 -8.2932e-07)
(4.9683e-05 -4.7129e-07 -3.7358e-10)
(4.9676e-05 -4.4709e-07 1.1339e-07)
(4.9676e-05 -3.612e-07 1.6153e-07)
(4.9691e-05 -2.2667e-07 1.3572e-07)
(4.9706e-05 -1.3205e-07 1.3169e-07)
(4.9691e-05 -1.3695e-07 2.2706e-07)
(4.9675e-05 -1.63e-07 3.6257e-07)
(4.9675e-05 -1.147e-07 4.4913e-07)
(4.9683e-05 -5.5343e-10 4.7352e-07)
(5.3101e-05 -1.2214e-06 -4.014e-10)
(5.3097e-05 -1.1897e-06 2.7103e-07)
(5.3095e-05 -1.0658e-06 4.6584e-07)
(5.3098e-05 -8.3918e-07 5.4632e-07)
(5.3103e-05 -6.3534e-07 6.3494e-07)
(5.3098e-05 -5.4735e-07 8.3968e-07)
(5.3095e-05 -4.6709e-07 1.0672e-06)
(5.3097e-05 -2.7212e-07 1.1918e-06)
(5.3101e-05 -2.9652e-10 1.2237e-06)
(1.0427e-05 7.0182e-07 4.5618e-06)
(1.704e-08 -3.4801e-08 4.3744e-08)
(1.0278e-05 1.6219e-06 3.9175e-06)
(5.0499e-12 1.7001e-12 4.4674e-12)
(1.0427e-05 2.7283e-06 3.7221e-06)
(1.7052e-08 5.5496e-08 6.3251e-09)
(1.0579e-05 3.539e-06 3.5388e-06)
(2.9494e-12 -1.463e-12 -1.463e-12)
(1.0427e-05 3.7223e-06 2.7281e-06)
(1.7053e-08 6.3238e-09 5.5496e-08)
(1.0278e-05 3.9178e-06 1.6217e-06)
(5.0499e-12 4.4676e-12 1.7e-12)
(1.0427e-05 4.5621e-06 7.0161e-07)
(1.7039e-08 4.3746e-08 -3.4801e-08)
(1.0579e-05 5.006e-06 -3.1461e-10)
(4.2171e-12 2.0711e-12 -1.3034e-16)
(1.8267e-05 6.928e-07 5.0249e-06)
(1.8001e-05 1.6975e-06 4.1015e-06)
(1.8267e-05 3.0618e-06 4.0443e-06)
(1.8612e-05 4.1549e-06 4.1546e-06)
(1.8267e-05 4.0447e-06 3.0615e-06)
(1.8001e-05 4.102e-06 1.6971e-06)
(1.8267e-05 5.0255e-06 6.9245e-07)
(1.8612e-05 5.8763e-06 -5.6057e-10)
(2.2491e-05 -1.3572e-07 1.3958e-07)
(2.2346e-05 -6.748e-08 -1.5877e-07)
(2.249e-05 1.9446e-07 6.072e-09)
(2.2643e-05 2.8365e-07 2.8324e-07)
(2.249e-05 6.5076e-09 1.9405e-07)
(2.2346e-05 -1.5827e-07 -6.7903e-08)
(2.2491e-05 1.402e-07 -1.3617e-07)
(2.2644e-05 3.9756e-07 -7.1726e-10)
(2.4941e-05 -1.1235e-06 -5.6355e-06)
(2.4915e-05 -2.1811e-06 -5.2624e-06)
(2.4941e-05 -3.1899e-06 -4.7763e-06)
(2.4898e-05 -4.2223e-06 -4.2227e-06)
(2.4942e-05 -4.776e-06 -3.1904e-06)
(2.4916e-05 -5.262e-06 -2.1816e-06)
(2.4941e-05 -5.6351e-06 -1.124e-06)
(2.4898e-05 -5.976e-06 -8.1934e-10)
(2.7981e-05 -1.5509e-06 -7.6412e-06)
(2.7954e-05 -2.9961e-06 -7.2348e-06)
(2.7986e-05 -4.3076e-06 -6.5032e-06)
(2.8007e-05 -5.5089e-06 -5.5092e-06)
(2.7986e-05 -6.503e-06 -4.3081e-06)
(2.7954e-05 -7.2347e-06 -2.9967e-06)
(2.7982e-05 -7.6412e-06 -1.5515e-06)
(2.8e-05 -7.7862e-06 -9.0916e-10)
(3.1816e-05 -1.4265e-06 -6.6139e-06)
(3.174e-05 -2.6769e-06 -6.4701e-06)
(3.1826e-05 -3.6733e-06 -5.7002e-06)
(3.1928e-05 -4.5725e-06 -4.5728e-06)
(3.1826e-05 -5.7002e-06 -3.6738e-06)
(3.174e-05 -6.4704e-06 -2.6776e-06)
(3.1816e-05 -6.6144e-06 -1.4271e-06)
(3.1913e-05 -6.4451e-06 -9.6948e-10)
(3.5671e-05 -1.1237e-06 -5.1377e-06)
(3.5631e-05 -2.0847e-06 -5.0451e-06)
(3.5684e-05 -2.8514e-06 -4.458e-06)
(3.5736e-05 -3.6055e-06 -3.6057e-06)
(3.5684e-05 -4.4582e-06 -2.8519e-06)
(3.5631e-05 -5.0456e-06 -2.0853e-06)
(3.5671e-05 -5.1386e-06 -1.1243e-06)
(3.5718e-05 -5.0533e-06 -9.6605e-10)
(3.9305e-05 -8.0742e-07 -3.8342e-06)
(3.9312e-05 -1.5365e-06 -3.7186e-06)
(3.9322e-05 -2.1712e-06 -3.3349e-06)
(3.9325e-05 -2.7841e-06 -2.7842e-06)
(3.9322e-05 -3.3352e-06 -2.1716e-06)
(3.9312e-05 -3.7194e-06 -1.5372e-06)
(3.9305e-05 -3.8354e-06 -8.0803e-07)
(3.9301e-05 -3.8515e-06 -9.0198e-10)
(4.2831e-05 -4.9449e-07 -2.3815e-06)
(4.2845e-05 -9.5964e-07 -2.3118e-06)
(4.2853e-05 -1.3949e-06 -2.1177e-06)
(4.2857e-05 -1.7986e-06 -1.7993e-06)
(4.2853e-05 -2.1182e-06 -1.3953e-06)
(4.2846e-05 -2.3128e-06 -9.602e-07)
(4.2831e-05 -2.383e-06 -4.95e-07)
(4.2826e-05 -2.3978e-06 -2.2179e-10)
(4.6286e-05 -1.6044e-07 -8.41e-07)
(4.6283e-05 -3.5843e-07 -8.5579e-07)
(4.6313e-05 -5.6922e-07 -8.3429e-07)
(4.6321e-05 -7.4265e-07 -7.4251e-07)
(4.6313e-05 -8.35e-07 -5.6949e-07)
(4.6283e-05 -8.5705e-07 -3.5888e-07)
(4.6287e-05 -8.4267e-07 -1.6083e-07)
(4.6287e-05 -8.3115e-07 -6.184e-10)
(4.9675e-05 1.14e-07 4.4935e-07)
(4.9675e-05 1.6244e-07 3.6299e-07)
(4.9691e-05 1.3657e-07 2.2765e-07)
(4.9705e-05 1.3191e-07 1.3237e-07)
(4.9691e-05 2.268e-07 1.3641e-07)
(4.9675e-05 3.6158e-07 1.6211e-07)
(4.9675e-05 4.4754e-07 1.1375e-07)
(4.9683e-05 4.7156e-07 -5.7204e-10)
(5.3097e-05 2.7161e-07 1.1922e-06)
(5.3095e-05 4.6677e-07 1.0679e-06)
(5.3098e-05 5.4727e-07 8.4057e-07)
(5.3103e-05 6.3554e-07 6.3592e-07)
(5.3098e-05 8.3964e-07 5.4725e-07)
(5.3095e-05 1.0664e-06 4.666e-07)
(5.3097e-05 1.1903e-06 2.7153e-07)
(5.3101e-05 1.2217e-06 -1.5065e-10)
(1.0427e-05 4.5622e-06 -7.0225e-07)
(1.704e-08 4.3746e-08 3.4801e-08)
(1.0278e-05 3.9179e-06 -1.6224e-06)
(5.0499e-12 4.4676e-12 -1.7002e-12)
(1.0427e-05 3.7224e-06 -2.7288e-06)
(1.7051e-08 6.3257e-09 -5.5499e-08)
(1.0579e-05 3.5391e-06 -3.5395e-06)
(2.9494e-12 -1.4629e-12 1.4627e-12)
(1.0427e-05 2.7283e-06 -3.7228e-06)
(1.7051e-08 5.5497e-08 -6.3261e-09)
(1.0278e-05 1.622e-06 -3.9182e-06)
(5.0499e-12 1.7001e-12 -4.4677e-12)
(1.0427e-05 7.0186e-07 -4.5625e-06)
(1.704e-08 -3.4802e-08 -4.3746e-08)
(1.0579e-05 -5.2425e-11 -5.0063e-06)
(4.2171e-12 -1.9602e-17 -2.0712e-12)
(1.8267e-05 5.0257e-06 -6.9358e-07)
(1.8001e-05 4.1022e-06 -1.6983e-06)
(1.8267e-05 4.0449e-06 -3.0628e-06)
(1.8612e-05 4.1551e-06 -4.1558e-06)
(1.8267e-05 3.062e-06 -4.0455e-06)
(1.8001e-05 1.6976e-06 -4.1027e-06)
(1.8267e-05 6.9287e-07 -5.0261e-06)
(1.8613e-05 -9.46e-11 -5.8767e-06)
(2.2491e-05 1.4037e-07 1.3472e-07)
(2.2346e-05 -1.58e-07 6.6399e-08)
(2.249e-05 6.7904e-09 -1.9561e-07)
(2.2643e-05 2.8388e-07 -2.848e-07)
(2.249e-05 1.946e-07 -7.5463e-09)
(2.2346e-05 -6.741e-08 1.5742e-07)
(2.2491e-05 -1.3565e-07 -1.4084e-07)
(2.2645e-05 -1.1216e-10 -3.9802e-07)
(2.4941e-05 -5.6349e-06 1.1224e-06)
(2.4916e-05 -5.2617e-06 2.1799e-06)
(2.4942e-05 -4.7757e-06 3.1886e-06)
(2.4899e-05 -4.2221e-06 4.221e-06)
(2.4942e-05 -3.1898e-06 4.7748e-06)
(2.4916e-05 -2.1811e-06 5.2611e-06)
(2.4941e-05 -1.1235e-06 5.6344e-06)
(2.4898e-05 -1.3549e-10 5.9755e-06)
(2.7982e-05 -7.641e-06 1.5497e-06)
(2.7954e-05 -7.2345e-06 2.9948e-06)
(2.7987e-05 -6.5028e-06 4.3063e-06)
(2.8007e-05 -5.5088e-06 5.5075e-06)
(2.7987e-05 -4.3077e-06 6.5017e-06)
(2.7954e-05 -2.9961e-06 7.2336e-06)
(2.7982e-05 -1.5509e-06 7.6403e-06)
(2.8e-05 -1.9245e-10 7.7855e-06)
(3.1816e-05 -6.6142e-06 1.4252e-06)
(3.174e-05 -6.4702e-06 2.6756e-06)
(3.1826e-05 -5.7001e-06 3.6719e-06)
(3.1928e-05 -4.5725e-06 4.5711e-06)
(3.1826e-05 -3.6734e-06 5.6988e-06)
(3.174e-05 -2.6771e-06 6.4691e-06)
(3.1816e-05 -1.4265e-06 6.6132e-06)
(3.1914e-05 -2.661e-10 6.444e-06)
(3.5671e-05 -5.1384e-06 1.1224e-06)
(3.5631e-05 -5.0454e-06 2.0834e-06)
(3.5685e-05 -4.458e-06 2.8501e-06)
(3.5737e-05 -3.6055e-06 3.604e-06)
(3.5685e-05 -2.8516e-06 4.4566e-06)
(3.5631e-05 -2.0849e-06 5.0441e-06)
(3.5671e-05 -1.1238e-06 5.1372e-06)
(3.5718e-05 -3.2941e-10 5.0519e-06)
(3.9306e-05 -3.8352e-06 8.0621e-07)
(3.9312e-05 -3.7192e-06 1.5354e-06)
(3.9323e-05 -3.3352e-06 2.1699e-06)
(3.9325e-05 -2.7842e-06 2.7827e-06)
(3.9323e-05 -2.1715e-06 3.3337e-06)
(3.9312e-05 -1.5369e-06 3.7179e-06)
(3.9306e-05 -8.0761e-07 3.8339e-06)
(3.9301e-05 -3.837e-10 3.8501e-06)
(4.2832e-05 -2.3829e-06 4.9342e-07)
(4.2846e-05 -2.3128e-06 9.5866e-07)
(4.2853e-05 -2.1184e-06 1.3939e-06)
(4.2858e-05 -1.7989e-06 1.7982e-06)
(4.2854e-05 -1.3954e-06 2.1171e-06)
(4.2846e-05 -9.6019e-07 2.3117e-06)
(4.2832e-05 -4.9481e-07 2.3819e-06)
(4.2827e-05 -1.012e-09 2.3966e-06)
(4.6287e-05 -8.4277e-07 1.5961e-07)
(4.6284e-05 -8.5732e-07 3.5777e-07)
(4.6314e-05 -8.3551e-07 5.6862e-07)
(4.6322e-05 -7.4341e-07 7.4207e-07)
(4.6314e-05 -5.7014e-07 8.345e-07)
(4.6284e-05 -3.5928e-07 8.5666e-07)
(4.6288e-05 -1.6096e-07 8.423e-07)
(4.6288e-05 -4.9515e-10 8.3062e-07)
(4.9676e-05 4.4728e-07 -1.1449e-07)
(4.9676e-05 3.6101e-07 -1.6266e-07)
(4.9692e-05 2.2589e-07 -1.366e-07)
(4.9707e-05 1.3068e-07 -1.3198e-07)
(4.9692e-05 1.3519e-07 -2.2648e-07)
(4.9676e-05 1.6121e-07 -3.6108e-07)
(4.9676e-05 1.1324e-07 -4.4699e-07)
(4.9684e-05 -7.061e-10 -4.7122e-07)
(5.3097e-05 1.1899e-06 -2.7174e-07)
(5.3096e-05 1.0656e-06 -4.6655e-07)
(5.3099e-05 8.3838e-07 -5.4674e-07)
(5.3104e-05 6.3392e-07 -6.3472e-07)
(5.3099e-05 5.4551e-07 -8.385e-07)
(5.3096e-05 4.6523e-07 -1.065e-06)
(5.3098e-05 2.7064e-07 -1.1888e-06)
(5.3102e-05 -5.51e-10 -1.2205e-06)
(1.0427e-05 -7.0195e-07 -4.5624e-06)
(1.704e-08 3.4801e-08 -4.3746e-08)
(1.0278e-05 -1.622e-06 -3.9181e-06)
(5.0499e-12 -1.7001e-12 -4.4677e-12)
(1.0428e-05 -2.7284e-06 -3.7226e-06)
(1.7052e-08 -5.5498e-08 -6.3255e-09)
(1.058e-05 -3.5391e-06 -3.5393e-06)
(2.9494e-12 1.4629e-12 1.4629e-12)
(1.0428e-05 -3.7223e-06 -2.7286e-06)
(1.7052e-08 -6.3268e-09 -5.5497e-08)
(1.0278e-05 -3.9177e-06 -1.6222e-06)
(5.0499e-12 -4.4676e-12 -1.7002e-12)
(1.0427e-05 -4.562e-06 -7.0215e-07)
(1.7041e-08 -4.3745e-08 3.4802e-08)
(1.8267e-05 -6.9303e-07 -5.026e-06)
(1.8002e-05 -1.6977e-06 -4.1025e-06)
(1.8267e-05 -3.062e-06 -4.0452e-06)
(1.8612e-05 -4.155e-06 -4.1555e-06)
(1.8267e-05 -4.0447e-06 -3.0624e-06)
(1.8002e-05 -4.1018e-06 -1.698e-06)
(1.8267e-05 -5.0251e-06 -6.9337e-07)
(2.2491e-05 1.3545e-07 -1.4072e-07)
(2.2346e-05 6.7271e-08 1.5768e-07)
(2.249e-05 -1.9461e-07 -7.1444e-09)
(2.2643e-05 -2.837e-07 -2.8429e-07)
(2.2491e-05 -6.3604e-09 -1.9508e-07)
(2.2346e-05 1.5869e-07 6.6865e-08)
(2.2491e-05 -1.3947e-07 1.3502e-07)
(2.4941e-05 1.1232e-06 5.6345e-06)
(2.4916e-05 2.1809e-06 5.2613e-06)
(2.4942e-05 3.1898e-06 4.7752e-06)
(2.4899e-05 4.2223e-06 4.2216e-06)
(2.4942e-05 4.7762e-06 3.1892e-06)
(2.4916e-05 5.2626e-06 2.1805e-06)
(2.4941e-05 5.636e-06 1.1228e-06)
(2.7982e-05 1.5505e-06 7.6404e-06)
(2.7954e-05 2.9958e-06 7.2338e-06)
(2.7987e-05 4.3074e-06 6.502e-06)
(2.8007e-05 5.5088e-06 5.508e-06)
(2.7987e-05 6.5031e-06 4.3069e-06)
(2.7954e-05 7.2352e-06 2.9954e-06)
(2.7982e-05 7.6421e-06 1.5501e-06)
(3.1816e-05 1.426e-06 6.6131e-06)
(3.174e-05 2.6765e-06 6.469e-06)
(3.1826e-05 3.6729e-06 5.6989e-06)
(3.1928e-05 4.5722e-06 4.5714e-06)
(3.1826e-05 5.7001e-06 3.6723e-06)
(3.174e-05 6.4706e-06 2.6761e-06)
(3.1816e-05 6.615e-06 1.4255e-06)
(3.5671e-05 1.1231e-06 5.137e-06)
(3.5631e-05 2.0841e-06 5.0439e-06)
(3.5685e-05 2.8508e-06 4.4565e-06)
(3.5737e-05 3.6049e-06 3.6041e-06)
(3.5685e-05 4.4577e-06 2.8503e-06)
(3.5631e-05 5.0455e-06 2.0837e-06)
(3.5671e-05 5.139e-06 1.1227e-06)
(3.9306e-05 8.0678e-07 3.8336e-06)
(3.9312e-05 1.5359e-06 3.7175e-06)
(3.9323e-05 2.1704e-06 3.3334e-06)
(3.9325e-05 2.7833e-06 2.7825e-06)
(3.9323e-05 3.3345e-06 2.17e-06)
(3.9312e-05 3.719e-06 1.5356e-06)
(3.9306e-05 3.8354e-06 8.0645e-07)
(4.2832e-05 4.9385e-07 2.3815e-06)
(4.2846e-05 9.5908e-07 2.3112e-06)
(4.2853e-05 1.3942e-06 2.1165e-06)
(4.2858e-05 1.7978e-06 1.7979e-06)
(4.2853e-05 2.1175e-06 1.3938e-06)
(4.2846e-05 2.3124e-06 9.5878e-07)
(4.2832e-05 2.3829e-06 4.9357e-07)
(4.6287e-05 1.599e-07 8.419e-07)
(4.6284e-05 3.5807e-07 8.5603e-07)
(4.6314e-05 5.6881e-07 8.3388e-07)
(4.6321e-05 7.4211e-07 7.4163e-07)
(4.6314e-05 8.3447e-07 5.6843e-07)
(4.6284e-05 8.5672e-07 3.5777e-07)
(4.6287e-05 8.4265e-07 1.5966e-07)
(4.9676e-05 -1.1437e-07 -4.4742e-07)
(4.9676e-05 -1.625e-07 -3.6178e-07)
(4.9692e-05 -1.3661e-07 -2.2722e-07)
(4.9706e-05 -1.3208e-07 -1.3254e-07)
(4.9692e-05 -2.2704e-07 -1.3691e-07)
(4.9676e-05 -3.617e-07 -1.6277e-07)
(4.9676e-05 -4.4744e-07 -1.1454e-07)
(5.3098e-05 -2.7182e-07 -1.1893e-06)
(5.3096e-05 -4.6656e-07 -1.0658e-06)
(5.3099e-05 -5.47e-07 -8.3936e-07)
(5.3104e-05 -6.354e-07 -6.3541e-07)
(5.3098e-05 -8.3961e-07 -5.4718e-07)
(5.3096e-05 -1.0664e-06 -4.6677e-07)
(5.3097e-05 -1.1901e-06 -2.7189e-07)
)
;
    }
    procBoundary0to1
    {
        type            processor;
    }
}


// ************************************************************************* //
