/*--------------------------------*- C++ -*----------------------------------*\
| =========                 |                                                 |
| \\      /  F ield         | foam-extend: Open Source CFD                    |
|  \\    /   O peration     | Version:     4.1-20200408                       |
|   \\  /    A nd           | Web:         http://www.foam-extend.org         |
|    \\/     M anipulation  |                                                 |
\*---------------------------------------------------------------------------*/
FoamFile
{
    version     2.0;
    format      ascii;
    class       volScalarField;
    location    "0.0950000";
    object      epsilonPEq;
}
// * * * * * * * * * * * * * * * * * * * * * * * * * * * * * * * * * * * * * //

dimensions      [0 0 0 0 0 0 0];

internalField   nonuniform List<scalar> 
1952
(
0.101431
0.101564
0.101846
0.102139
0.102496
0.102886
0.103289
0.103444
0.103333
0.10271
0.101442
0.0991569
0.0962044
0.0940576
0.0927889
0.1013
0.101443
0.101576
0.101856
0.102149
0.102506
0.102896
0.103297
0.103451
0.103341
0.102717
0.101449
0.0991629
0.0962095
0.0940621
0.0927929
0.101311
0.101453
0.101585
0.101866
0.102158
0.102515
0.102904
0.103305
0.103459
0.103348
0.102724
0.101454
0.099169
0.0962149
0.0940663
0.0927966
0.101322
0.101462
0.101594
0.101874
0.102166
0.102523
0.102912
0.103312
0.103464
0.103354
0.10273
0.10146
0.0991739
0.0962191
0.0940702
0.0928
0.101331
0.101468
0.101601
0.10188
0.102171
0.102529
0.102918
0.103318
0.10347
0.103359
0.102735
0.101464
0.0991786
0.0962231
0.0940737
0.0928034
0.101337
0.101474
0.101606
0.101886
0.102177
0.102534
0.102923
0.103323
0.103474
0.103364
0.102739
0.101468
0.0991823
0.0962265
0.0940768
0.0928065
0.101343
0.101477
0.101609
0.101889
0.102179
0.102538
0.102926
0.103326
0.103477
0.103367
0.102742
0.101471
0.0991859
0.0962296
0.0940795
0.0928094
0.101346
0.101479
0.101611
0.10189
0.102181
0.10254
0.102929
0.103328
0.103478
0.10337
0.102745
0.101473
0.0991883
0.0962317
0.0940819
0.0928122
0.101348
0.101479
0.101611
0.101891
0.102181
0.102541
0.10293
0.10333
0.10348
0.103371
0.102747
0.101475
0.0991902
0.0962334
0.0940841
0.0928151
0.101348
0.101479
0.101611
0.101891
0.102181
0.102541
0.10293
0.103329
0.103479
0.103371
0.102747
0.101475
0.0991916
0.096235
0.0940861
0.092818
0.101348
0.101478
0.10161
0.101889
0.102179
0.10254
0.10293
0.103329
0.103479
0.103371
0.102748
0.101476
0.0991931
0.0962365
0.0940881
0.0928205
0.101346
0.101476
0.101608
0.101888
0.102178
0.102539
0.102929
0.103328
0.103478
0.103372
0.102748
0.101476
0.099194
0.0962376
0.0940899
0.0928229
0.101345
0.101474
0.101606
0.101886
0.102176
0.102538
0.102928
0.103328
0.103477
0.103371
0.102748
0.101476
0.099195
0.0962387
0.0940913
0.092825
0.101343
0.101472
0.101605
0.101884
0.102174
0.102537
0.102927
0.103327
0.103476
0.103371
0.102749
0.101476
0.0991961
0.0962399
0.0940926
0.0928266
0.101341
0.101471
0.101603
0.101883
0.102173
0.102536
0.102927
0.103326
0.103476
0.103371
0.102749
0.101477
0.0991969
0.0962406
0.0940937
0.092828
0.10134
0.10147
0.101603
0.101882
0.102172
0.102536
0.102927
0.103327
0.103476
0.103371
0.102749
0.101477
0.0991976
0.0962412
0.0940943
0.0928291
0.101339
0.10147
0.101603
0.101882
0.102172
0.102536
0.102927
0.103327
0.103475
0.103372
0.10275
0.101477
0.0991986
0.0962423
0.0940953
0.0928301
0.101339
0.10147
0.101603
0.101882
0.102172
0.102536
0.102927
0.103327
0.103475
0.103372
0.102751
0.101478
0.0991992
0.0962425
0.094096
0.092831
0.101339
0.101471
0.101604
0.101883
0.102173
0.102537
0.102928
0.103328
0.103476
0.103373
0.102751
0.101478
0.0992003
0.0962436
0.0940968
0.092832
0.10134
0.101473
0.101605
0.101884
0.102174
0.102538
0.102929
0.103329
0.103476
0.103374
0.102752
0.101479
0.0992014
0.0962447
0.0940978
0.0928329
0.101342
0.101474
0.101606
0.101885
0.102174
0.10254
0.102931
0.10333
0.103478
0.103375
0.102754
0.101481
0.0992029
0.0962459
0.0940988
0.0928336
0.101343
0.101476
0.101608
0.101887
0.102176
0.102541
0.102932
0.103332
0.103479
0.103377
0.102755
0.101482
0.0992041
0.0962469
0.0940998
0.0928344
0.101345
0.101478
0.10161
0.101889
0.102178
0.102543
0.102934
0.103333
0.10348
0.103378
0.102757
0.101483
0.0992057
0.0962483
0.0941007
0.092835
0.101346
0.10148
0.101612
0.101891
0.102179
0.102545
0.102936
0.103335
0.103481
0.10338
0.102758
0.101485
0.0992071
0.0962495
0.0941012
0.0928353
0.101348
0.101481
0.101613
0.101892
0.102181
0.102547
0.102938
0.103337
0.103483
0.103381
0.10276
0.101486
0.0992083
0.0962503
0.0941017
0.0928354
0.10135
0.101483
0.101615
0.101894
0.102182
0.102548
0.102939
0.103338
0.103484
0.103382
0.102761
0.101487
0.0992089
0.0962505
0.0941022
0.0928359
0.101352
0.101485
0.101617
0.101895
0.102184
0.10255
0.10294
0.103339
0.103485
0.103383
0.102761
0.101487
0.0992096
0.0962511
0.0941023
0.0928362
0.101353
0.101486
0.101618
0.101897
0.102185
0.10255
0.102941
0.10334
0.103485
0.103384
0.102762
0.101487
0.0992104
0.0962519
0.0941029
0.0928365
0.101355
0.101487
0.101619
0.101897
0.102185
0.102551
0.102942
0.10334
0.103486
0.103384
0.102763
0.101488
0.0992104
0.0962516
0.094103
0.0928368
0.101355
0.101487
0.101619
0.101897
0.102185
0.102551
0.102942
0.103341
0.103486
0.103384
0.102762
0.101488
0.0992108
0.0962521
0.0941032
0.0928372
0.101356
0.101487
0.101619
0.101898
0.102185
0.102551
0.102942
0.10334
0.103485
0.103384
0.102763
0.101488
0.0992109
0.0962522
0.0941037
0.0928376
0.101356
0.101487
0.101618
0.101897
0.102184
0.102551
0.102942
0.10334
0.103485
0.103384
0.102763
0.101488
0.099211
0.0962522
0.0941037
0.0928381
0.101355
0.101486
0.101618
0.101897
0.102184
0.102551
0.102941
0.10334
0.103485
0.103384
0.102762
0.101488
0.0992111
0.0962525
0.0941039
0.0928385
0.101355
0.101485
0.101617
0.101896
0.102183
0.10255
0.102941
0.103339
0.103484
0.103383
0.102763
0.101488
0.0992112
0.0962526
0.0941044
0.092839
0.101354
0.101484
0.101616
0.101895
0.102182
0.102549
0.102941
0.103339
0.103484
0.103383
0.102762
0.101488
0.099211
0.0962523
0.0941045
0.0928396
0.101353
0.101484
0.101616
0.101894
0.102182
0.102549
0.10294
0.103339
0.103484
0.103383
0.102762
0.101487
0.0992114
0.096253
0.0941051
0.0928404
0.101352
0.101483
0.101615
0.101894
0.102181
0.102548
0.102939
0.103338
0.103483
0.103383
0.102762
0.101488
0.0992118
0.0962535
0.0941059
0.092841
0.101352
0.101482
0.101614
0.101893
0.10218
0.102548
0.102939
0.103338
0.103483
0.103383
0.102763
0.101488
0.0992122
0.0962539
0.0941064
0.0928416
0.101351
0.101482
0.101614
0.101893
0.102181
0.102548
0.102939
0.103338
0.103483
0.103383
0.102763
0.101488
0.0992127
0.0962547
0.094107
0.0928422
0.101351
0.101482
0.101614
0.101893
0.102181
0.102548
0.102939
0.103338
0.103484
0.103384
0.102764
0.101489
0.0992135
0.0962555
0.0941073
0.0928422
0.101351
0.101482
0.101614
0.101893
0.102181
0.102548
0.10294
0.103339
0.103485
0.103384
0.102764
0.10149
0.0992138
0.0962557
0.0941077
0.0928423
0.101351
0.101483
0.101615
0.101894
0.102182
0.102549
0.102941
0.10334
0.103485
0.103385
0.102765
0.10149
0.0992137
0.0962555
0.0941076
0.0928424
0.101352
0.101484
0.101616
0.101895
0.102183
0.10255
0.102941
0.10334
0.103486
0.103385
0.102764
0.10149
0.0992143
0.0962563
0.0941078
0.0928423
0.101353
0.101485
0.101617
0.101896
0.102184
0.10255
0.102942
0.10334
0.103486
0.103386
0.102765
0.101491
0.0992145
0.0962564
0.0941079
0.0928421
0.101354
0.101486
0.101618
0.101897
0.102184
0.102551
0.102943
0.103342
0.103487
0.103386
0.102766
0.101491
0.0992144
0.0962561
0.0941074
0.0928416
0.101355
0.101487
0.101619
0.101898
0.102186
0.102552
0.102943
0.103342
0.103488
0.103386
0.102766
0.101491
0.0992142
0.096256
0.0941074
0.0928418
0.101356
0.101487
0.101619
0.101898
0.102186
0.102552
0.102943
0.103342
0.103487
0.103386
0.102766
0.101491
0.0992139
0.0962555
0.0941072
0.0928418
0.101356
0.101488
0.10162
0.101898
0.102186
0.102552
0.102943
0.103342
0.103488
0.103386
0.102765
0.101491
0.099214
0.0962558
0.0941075
0.0928422
0.101356
0.101488
0.10162
0.101898
0.102186
0.102552
0.102943
0.103342
0.103487
0.103386
0.102765
0.101491
0.0992138
0.0962557
0.0941079
0.0927831
0.101356
0.101487
0.101619
0.101898
0.102185
0.102552
0.102943
0.103342
0.103488
0.103386
0.102765
0.101491
0.0992144
0.0962563
0.0941085
0.0925186
0.101356
0.101487
0.101619
0.101897
0.102185
0.102551
0.102943
0.103341
0.103487
0.103386
0.102766
0.101492
0.0992147
0.0962568
0.0939576
0.0918254
0.101355
0.101486
0.101618
0.101897
0.102185
0.102551
0.102943
0.103342
0.103488
0.103387
0.102766
0.101492
0.0992156
0.0962576
0.0933584
0.0904236
0.101354
0.101486
0.101618
0.101897
0.102185
0.102551
0.102943
0.103342
0.103488
0.103387
0.102767
0.101493
0.0991719
0.0958044
0.0920358
0.088201
0.101354
0.101485
0.101618
0.101897
0.102185
0.102552
0.102943
0.103343
0.103489
0.103331
0.102468
0.100888
0.0981662
0.0943501
0.0898564
0.0852828
0.101354
0.101486
0.101618
0.101897
0.102186
0.102507
0.102727
0.102882
0.10275
0.102276
0.101062
0.0990879
0.0959444
0.0917843
0.0868411
0.0818328
0.101355
0.101288
0.10133
0.101456
0.101551
0.101621
0.101543
0.101337
0.100817
0.0999461
0.0983733
0.0960584
0.0926267
0.0882675
0.0831361
0.0779922
0.101191
0.100207
0.100099
0.0999896
0.0997937
0.099524
0.0990945
0.0985117
0.0976224
0.096398
0.0945384
0.0919859
0.0884154
0.0840148
0.0789454
0.0739383
0.100173
0.0977328
0.0974694
0.0971249
0.0966479
0.0960653
0.0953213
0.0944238
0.0932499
0.0917678
0.0897307
0.0870629
0.0835027
0.0792117
0.0744109
0.0697561
0.0977701
0.0935485
0.0931769
0.0926672
0.0919969
0.0912033
0.0902549
0.0891636
0.0878325
0.0862214
0.0841323
0.0814704
0.0780485
0.0739887
0.0696027
0.0654504
0.0936438
0.0875798
0.0871769
0.0866129
0.0858815
0.0850225
0.0840177
0.0828797
0.0815322
0.0799262
0.0779064
0.0753599
0.0721785
0.0684416
0.0645708
0.0610252
0.0877026
0.0800177
0.079662
0.0791555
0.0784962
0.0777163
0.0768003
0.0757564
0.0745218
0.0730407
0.0711941
0.0688547
0.0659924
0.0626479
0.0593637
0.0564988
0.080133
0.0712614
0.0710106
0.0706449
0.070157
0.0695648
0.0688476
0.0680051
0.0669818
0.065717
0.0641216
0.0620603
0.0595753
0.0566773
0.0540319
0.0519012
0.0713407
0.0618335
0.0617121
0.0615245
0.0612539
0.0609025
0.0604399
0.0598567
0.0590996
0.0581061
0.0568091
0.0550744
0.0530062
0.0505971
0.0486291
0.047273
0.0618624
0.0522871
0.0522835
0.0522622
0.0521978
0.0520803
0.0518704
0.0515516
0.0510692
0.0503626
0.0493794
0.0479956
0.0463643
0.0444748
0.0432107
0.0426559
0.0522674
0.043123
0.0431971
0.0432902
0.0433741
0.0434336
0.0434248
0.043329
0.0430883
0.0426477
0.041963
0.0409303
0.0397366
0.038386
0.0378385
0.0380956
0.0430705
0.0347266
0.0348235
0.0349582
0.0351057
0.0352551
0.0353636
0.0354159
0.0353516
0.0351262
0.0346983
0.0339945
0.0332205
0.0324138
0.0325776
0.0336319
0.0346638
0.0273307
0.0273996
0.027505
0.0276307
0.0277769
0.0279072
0.0280163
0.0280432
0.0279606
0.0277277
0.0273116
0.0269225
0.02665
0.0274957
0.0292976
0.0272791
0.0210131
0.0210228
0.0210519
0.0210932
0.0211605
0.0212271
0.0213026
0.0213292
0.0213049
0.0211913
0.0210068
0.0209547
0.0211908
0.0226613
0.0251186
0.0209858
0.0157216
0.0156684
0.0156097
0.015542
0.01549
0.0154359
0.0154067
0.0153514
0.0153007
0.0152243
0.0152031
0.015428
0.0161262
0.0181302
0.0211081
0.0157204
0.0113216
0.0112256
0.0111008
0.01094
0.0107716
0.0105823
0.0104141
0.010224
0.0100791
0.00996211
0.0100264
0.0104516
0.0115297
0.013929
0.0172585
0.0113386
0.00765713
0.00754828
0.00739665
0.00718651
0.00694179
0.0066468
0.00635091
0.00601761
0.00574816
0.00553837
0.00561064
0.00613669
0.00745657
0.0100464
0.0135288
0.00768074
0.00457008
0.00446933
0.00432351
0.0041089
0.00384227
0.00350018
0.00313065
0.00270365
0.00234853
0.00208346
0.00212558
0.00263905
0.00398372
0.00647542
0.0098738
0.00459278
0.00190798
0.00182993
0.00171745
0.00154769
0.00133405
0.00105193
0.000742162
0.000386047
0.000108894
0
0
0.000358846
0.00135672
0.00335583
0.00638323
0.00192644
0
0
0
0
0
0
0
0
0
0
0
0
0
0.00105985
0.00338222
0
0
0
0
0
0
0
0
0
0
0
0
0
0
0
0.00120175
0
0
0
0
0
0
0
0
0
0
0
0
0
0
0
0
0
0
0
0
0
0
0
0
0
0
0
0
0
0
0
0
0
0
0
0
0
0
0
0
0
0
0
0
0
0
0
0
0
0
0
0
0
0
0
0
0
0
0
0
0
0
0
0
0
0
0
0
0
0
0
0
0
0
0
0
0
0
0
0
0
0
0
0
0
0
0
0
0
0
0
0
0
0
0
0
0
0
0
0
0
0
0
0
0
0
0
0
0
0
0
0
0
0
0
0
0
0
0
0
0
0
0
0
0
0
0
0
0
0
0
0
0
0
0
0
0
0
0
0
0
0
0
0
0
0
0
0
0
0
0
0
0
0
0
0
0
0
0
0
0
0
0
0
0
0
0
0
0
0
0
0
0
0
0
0
0
0
0
0
0
0
0
0
0
0
0
0
0
0
0
0
0
0
0
0
0
0
0
0
0
0
0
0
0
0
0
0
0
0
0
0
0
0
0
0
0
0
0
0
0
0
0
0
0
0
0
0
0
0
0
0
0
0
0
0
0
0
0
0
0
0
0
0
0
0
0
0
0
0
0
0
0
0
0
0
0
0
0
0
0
0
0
0
0
0
0
0
0
0
0
0
0
0
0
0
0
0
0
0
0
0
0
0
0
0
0
0
0
0
0
0
0
0
0
0
0
0
0
0
0
0
0
0
0
0
0
0
0
0
0
0
0
0
0
0
0
0
0
0
0
0
0
0
0
0
0
0
0
0
0
0
0
0
0
0
0
0
0
0
0
0
0
0
0
0
0
0
0
0
0
0
0
0
0
0
0
0
0
0
0
0
0
0
0
0
0
0
0
0
0
0
0
0
0
0
0
0
0
0
0
0
0
0
0
0
0
0
0
0
0
0
0
0
0
0
0
0
0
0
0
0
0
0
0
0
0
0
0
0
0
0
0
0
0
0
0
0
0
0
0
0
0
0
0
0
0
0
0
0
0
0
0
0
0
0
0
0
0
0
0
0
0
0
0
0
0
0
0
0
0
0
0
0
0
0
0
0
0
0
0
0
0
0
0
0
0
0
0
0
0
0
0
0
0
0
0
0
0
0
0
0
0
0
0
0
0
0
0
0
0
0
0
0
0
0
0
0
0
0
0
0
0
0
0
0
0
0
0
0
0
0
0
0
0
0
0
0
0
0
0
0
0
0
0
0
0
0
0
0
0
0
0
0
0
0
0
0
0
0
0
0
0
0
0
0
0
0
0
0
0
0
0
0
0
0
0
0
0
0
0
0
0
0
0
0
0
0
0
0
0
0
0
0
0
0
0
0
0
0
0
0
0
0
0
0
0
0
0
0
0
0
0
0
0
0
0
0
0
0
0
0
0
0
0
0
0
0
0
0
0
0
0
0
0
0
0
0
0
0
0
0
0
0
0
0
0
0
0
0
0
0
0
0
0
0
0
0
0
0
0
0
0
0
0
0
0
0
0
0
0
0
0
0
0
0
0
0
0
0
0
0
0
0
0
0
0
0
0
0
0
0
0
0
0
0
0
0
0
0
0
0
0
0
0
0
0
0
0
0
0
0
0
0
0
0
0
0
0
0
0
0
0
0
0
0
0
0
0
0
0
0
0
0
0
0
0
0
0
0
0
0
0
0
0
0
0
0
0
0
0
0
0
0
0
0
0
0
0
0
0
0
0
0
0
0
0
0
0
0
0
0
0
)
;

boundaryField
{
    wireUpstream
    {
        type            calculated;
        value           uniform 0;
    }
    wireDownstream
    {
        type            calculated;
        value           nonuniform List<scalar> 
16
(
0.101431
0.101564
0.101846
0.102139
0.102496
0.102886
0.103289
0.103444
0.103333
0.10271
0.101442
0.0991569
0.0962044
0.0940576
0.0927889
0.1013
)
;
    }
    wireTopContact
    {
        type            calculated;
        value           nonuniform List<scalar> 
122
(
0.0924822
0.0924859
0.0924894
0.0924928
0.0924959
0.0924988
0.0925016
0.0925045
0.0925074
0.0925099
0.0925123
0.0925144
0.092516
0.0925174
0.0925185
0.0925195
0.0925204
0.0925214
0.0925223
0.0925231
0.0925238
0.0925245
0.0925248
0.0925249
0.0925255
0.0925257
0.092526
0.0925264
0.0925268
0.0925272
0.0925276
0.092528
0.0925285
0.0925292
0.0925299
0.0925305
0.0925311
0.0925317
0.0925317
0.0925318
0.0925319
0.0925318
0.0925316
0.0925312
0.0925313
0.0925314
0.0925318
0.0924846
0.0922244
0.0915243
0.0901054
0.0878633
0.0849414
0.0815091
0.077689
0.0736547
0.0694897
0.0651957
0.0607763
0.0562513
0.0516527
0.0470247
0.0424116
0.0378624
0.0334182
0.0291121
0.0249686
0.0209983
0.0171919
0.0135058
0.00988902
0.00642409
0.00342904
0.00122472
0
0
0
0
0
0
0
0
0
0
0
0
0
0
0
0
0
0
0
0
0
0
0
0
0
0
0
0
0
0
0
0
0
0
0
0
0
0
0
0
0
0
0
0
0
0
0
0.0924782
)
;
    }
    front
    {
        type            wedge;
    }
    back
    {
        type            wedge;
    }
}


// ************************************************************************* //
