/*--------------------------------*- C++ -*----------------------------------*\
| =========                 |                                                 |
| \\      /  F ield         | foam-extend: Open Source CFD                    |
|  \\    /   O peration     | Version:     4.1-20200408                       |
|   \\  /    A nd           | Web:         http://www.foam-extend.org         |
|    \\/     M anipulation  |                                                 |
\*---------------------------------------------------------------------------*/
FoamFile
{
    version     2.0;
    format      ascii;
    class       pointVectorField;
    location    "0.0950000";
    object      pointDU;
}
// * * * * * * * * * * * * * * * * * * * * * * * * * * * * * * * * * * * * * //

dimensions      [0 1 0 0 0 0 0];

internalField   nonuniform List<vector> 
4059
(
(0 1.16879e-19 -3.24377e-18)
(0 -6.93928e-15 3.02695e-16)
(0 -2.6355e-09 1.15068e-10)
(0 -4.7419e-19 1.20624e-17)
(0 -6.93928e-15 -3.06222e-16)
(0 -2.6355e-09 -1.15069e-10)
(0 1.22281e-15 -5.36695e-17)
(0 4.43191e-16 -1.96307e-17)
(0 2.58609e-16 -1.15717e-17)
(0 1.38228e-16 -6.31571e-18)
(0 8.27988e-17 -3.89569e-18)
(0 2.33618e-17 -1.30062e-18)
(0 -1.53166e-17 3.88182e-19)
(0 -3.72212e-17 1.34458e-18)
(0 -8.49252e-17 3.42728e-18)
(0 -6.56551e-17 2.58594e-18)
(0 -1.3408e-16 5.57358e-18)
(0 -6.92263e-17 2.74192e-18)
(0 -1.6083e-16 6.74133e-18)
(0 -5.291e-17 2.0295e-18)
(0 -1.99609e-16 8.43459e-18)
(0 -2.61655e-09 1.14241e-10)
(0 -2.57058e-09 1.12234e-10)
(0 -2.48934e-09 1.08687e-10)
(0 -2.38542e-09 1.04149e-10)
(0 -2.26785e-09 9.90162e-11)
(0 -2.13081e-09 9.30331e-11)
(0 -1.97336e-09 8.61589e-11)
(0 -1.80638e-09 7.88684e-11)
(0 -1.62131e-09 7.07879e-11)
(0 -1.42206e-09 6.20886e-11)
(0 -1.20962e-09 5.28132e-11)
(0 -9.87266e-10 4.3105e-11)
(0 -7.51257e-10 3.28006e-11)
(0 -5.05886e-10 2.20874e-11)
(0 -2.54383e-10 1.11066e-11)
(0 1.22281e-15 5.01435e-17)
(0 4.43191e-16 1.61047e-17)
(0 2.58609e-16 8.04565e-18)
(0 1.38228e-16 2.78967e-18)
(0 8.27988e-17 3.69542e-19)
(0 2.33618e-17 -2.22554e-18)
(0 -1.53166e-17 -3.91422e-18)
(0 -3.72212e-17 -4.87057e-18)
(0 -8.49252e-17 -6.95348e-18)
(0 -6.56551e-17 -6.11212e-18)
(0 -1.3408e-16 -9.0995e-18)
(0 -6.92263e-17 -6.26798e-18)
(0 -1.6083e-16 -1.02676e-17)
(0 -5.291e-17 -5.55564e-18)
(0 -1.99609e-16 -1.19606e-17)
(0 -2.61655e-09 -1.14241e-10)
(0 -2.57058e-09 -1.12234e-10)
(0 -2.48934e-09 -1.08687e-10)
(0 -2.38542e-09 -1.0415e-10)
(0 -2.26785e-09 -9.90165e-11)
(0 -2.13081e-09 -9.30334e-11)
(0 -1.97336e-09 -8.61591e-11)
(0 -1.80638e-09 -7.88686e-11)
(0 -1.62131e-09 -7.07881e-11)
(0 -1.42206e-09 -6.20888e-11)
(0 -1.20962e-09 -5.28133e-11)
(0 -9.87266e-10 -4.31051e-11)
(0 -7.51257e-10 -3.28006e-11)
(0 -5.05886e-10 -2.20875e-11)
(0 -2.54383e-10 -1.11066e-11)
(5.00041e-05 -8.00108e-10 3.49335e-11)
(5.00041e-05 -8.00108e-10 -3.49336e-11)
(5.0004e-05 -4.06612e-10 -1.77531e-11)
(5.0004e-05 -4.06612e-10 1.77531e-11)
(5.00043e-05 -1.18594e-09 5.17792e-11)
(5.00043e-05 -1.18594e-09 -5.17793e-11)
(5.00045e-05 -1.53962e-09 6.72212e-11)
(5.00045e-05 -1.53962e-09 -6.72213e-11)
(5.00048e-05 -1.868e-09 8.15587e-11)
(5.00048e-05 -1.868e-09 -8.15589e-11)
(5.00052e-05 -2.14574e-09 9.36848e-11)
(5.00052e-05 -2.14574e-09 -9.36851e-11)
(5.00056e-05 -2.38249e-09 1.04022e-10)
(5.00056e-05 -2.38249e-09 -1.04022e-10)
(5.00062e-05 -2.55651e-09 1.1162e-10)
(5.00062e-05 -2.55651e-09 -1.1162e-10)
(5.00069e-05 -2.67816e-09 1.16931e-10)
(5.00069e-05 -2.67816e-09 -1.16931e-10)
(5.00076e-05 -2.7236e-09 1.18915e-10)
(5.00076e-05 -2.7236e-09 -1.18915e-10)
(5.00086e-05 -2.70869e-09 1.18264e-10)
(5.00086e-05 -2.70869e-09 -1.18264e-10)
(5.00097e-05 -2.61951e-09 1.1437e-10)
(5.00097e-05 -2.61951e-09 -1.14371e-10)
(5.0011e-05 -2.48765e-09 1.08613e-10)
(5.0011e-05 -2.48765e-09 -1.08614e-10)
(5.00125e-05 -2.32825e-09 1.01654e-10)
(5.00125e-05 -2.32825e-09 -1.01654e-10)
(5.00142e-05 -2.23267e-09 9.74804e-11)
(5.00142e-05 -2.23267e-09 -9.74807e-11)
(5.00158e-05 -2.30481e-09 1.0063e-10)
(5.00158e-05 -2.30481e-09 -1.00631e-10)
(5.0004e-05 1.2862e-19 -3.56963e-18)
(5.00046e-05 -4.82557e-10 2.10689e-11)
(5.00046e-05 -4.82557e-10 -2.1069e-11)
(5.00045e-05 -2.45227e-10 -1.07069e-11)
(5.00045e-05 -2.45227e-10 1.07068e-11)
(5.00047e-05 -7.07383e-10 3.0885e-11)
(5.00047e-05 -7.07383e-10 -3.08851e-11)
(5.0005e-05 -9.06118e-10 3.9562e-11)
(5.0005e-05 -9.06118e-10 -3.95621e-11)
(5.00053e-05 -1.07872e-09 4.70979e-11)
(5.00053e-05 -1.07872e-09 -4.7098e-11)
(5.00057e-05 -1.20795e-09 5.27403e-11)
(5.00057e-05 -1.20795e-09 -5.27405e-11)
(5.00062e-05 -1.29885e-09 5.67091e-11)
(5.00062e-05 -1.29885e-09 -5.67093e-11)
(5.00068e-05 -1.33726e-09 5.83862e-11)
(5.00068e-05 -1.33726e-09 -5.83863e-11)
(5.00074e-05 -1.33088e-09 5.81075e-11)
(5.00074e-05 -1.33088e-09 -5.81076e-11)
(5.00082e-05 -1.26666e-09 5.53035e-11)
(5.00082e-05 -1.26666e-09 -5.53037e-11)
(5.00092e-05 -1.16067e-09 5.06758e-11)
(5.00092e-05 -1.16067e-09 -5.06759e-11)
(5.00102e-05 -1.01223e-09 4.41949e-11)
(5.00102e-05 -1.01223e-09 -4.4195e-11)
(5.00115e-05 -8.54642e-10 3.73145e-11)
(5.00115e-05 -8.54642e-10 -3.73146e-11)
(5.00128e-05 -7.06861e-10 3.08622e-11)
(5.00128e-05 -7.06861e-10 -3.08623e-11)
(5.00142e-05 -6.36969e-10 2.78107e-11)
(5.00142e-05 -6.36969e-10 -2.78107e-11)
(5.00156e-05 -6.72432e-10 2.9359e-11)
(5.00156e-05 -6.72432e-10 -2.93591e-11)
(5.00044e-05 1.28621e-19 -3.56966e-18)
(5.00053e-05 -2.15155e-10 9.39385e-12)
(5.00053e-05 -2.15155e-10 -9.39388e-12)
(5.00052e-05 -1.1074e-10 -4.83501e-12)
(5.00052e-05 -1.1074e-10 4.83499e-12)
(5.00054e-05 -3.07641e-10 1.34319e-11)
(5.00054e-05 -3.07641e-10 -1.34319e-11)
(5.00057e-05 -3.78271e-10 1.65157e-11)
(5.00057e-05 -3.78271e-10 -1.65157e-11)
(5.0006e-05 -4.26061e-10 1.86022e-11)
(5.0006e-05 -4.26061e-10 -1.86023e-11)
(5.00064e-05 -4.38611e-10 1.91502e-11)
(5.00064e-05 -4.38611e-10 -1.91502e-11)
(5.00069e-05 -4.20076e-10 1.83409e-11)
(5.00069e-05 -4.20076e-10 -1.8341e-11)
(5.00075e-05 -3.60386e-10 1.57348e-11)
(5.00075e-05 -3.60386e-10 -1.57348e-11)
(5.00082e-05 -2.67674e-10 1.16869e-11)
(5.00082e-05 -2.67674e-10 -1.16869e-11)
(5.0009e-05 -1.35682e-10 5.92401e-12)
(5.0009e-05 -1.35682e-10 -5.92402e-12)
(5.00099e-05 1.92502e-11 -8.40481e-13)
(5.00099e-05 1.92502e-11 8.40477e-13)
(5.00109e-05 1.92184e-10 -8.39093e-12)
(5.00109e-05 1.92184e-10 8.39095e-12)
(5.00119e-05 3.51959e-10 -1.53669e-11)
(5.00119e-05 3.51959e-10 1.53669e-11)
(5.0013e-05 4.80829e-10 -2.09935e-11)
(5.0013e-05 4.80829e-10 2.09935e-11)
(5.00142e-05 5.2356e-10 -2.28591e-11)
(5.00142e-05 5.2356e-10 2.28592e-11)
(5.00152e-05 4.68111e-10 -2.04382e-11)
(5.00152e-05 4.68111e-10 2.04382e-11)
(5.00051e-05 1.28623e-19 -3.56971e-18)
(5.00061e-05 4.28781e-13 -1.87213e-14)
(5.00061e-05 4.28781e-13 1.87175e-14)
(5.0006e-05 -2.38877e-12 -1.043e-13)
(5.0006e-05 -2.38877e-12 1.04295e-13)
(5.00063e-05 1.306e-11 -5.70213e-13)
(5.00063e-05 1.306e-11 5.70211e-13)
(5.00065e-05 4.34756e-11 -1.89819e-12)
(5.00065e-05 4.34756e-11 1.89819e-12)
(5.00069e-05 9.17424e-11 -4.00556e-12)
(5.00069e-05 9.17424e-11 4.00557e-12)
(5.00073e-05 1.67445e-10 -7.31081e-12)
(5.00073e-05 1.67445e-10 7.31083e-12)
(5.00078e-05 2.65573e-10 -1.15952e-11)
(5.00078e-05 2.65573e-10 1.15952e-11)
(5.00083e-05 3.93257e-10 -1.717e-11)
(5.00083e-05 3.93257e-10 1.717e-11)
(5.0009e-05 5.4126e-10 -2.36319e-11)
(5.0009e-05 5.4126e-10 2.3632e-11)
(5.00097e-05 7.1168e-10 -3.10726e-11)
(5.00097e-05 7.1168e-10 3.10727e-11)
(5.00106e-05 8.88697e-10 -3.88014e-11)
(5.00106e-05 8.88697e-10 3.88014e-11)
(5.00115e-05 1.06507e-09 -4.6502e-11)
(5.00115e-05 1.06507e-09 4.65022e-11)
(5.00124e-05 1.21556e-09 -5.30723e-11)
(5.00124e-05 1.21556e-09 5.30724e-11)
(5.00134e-05 1.32655e-09 -5.79185e-11)
(5.00134e-05 1.32655e-09 5.79186e-11)
(5.00143e-05 1.36415e-09 -5.956e-11)
(5.00143e-05 1.36415e-09 5.95601e-11)
(5.0015e-05 1.3289e-09 -5.8021e-11)
(5.0015e-05 1.3289e-09 5.80211e-11)
(5.00059e-05 1.28625e-19 -3.56977e-18)
(5.0007e-05 1.68406e-10 -7.35278e-12)
(5.0007e-05 1.68406e-10 7.3528e-12)
(5.00069e-05 8.21131e-11 3.58514e-12)
(5.00069e-05 8.21131e-11 -3.58513e-12)
(5.00072e-05 2.61819e-10 -1.14313e-11)
(5.00072e-05 2.61819e-10 1.14313e-11)
(5.00075e-05 3.69152e-10 -1.61175e-11)
(5.00075e-05 3.69152e-10 1.61176e-11)
(5.00078e-05 4.88768e-10 -2.13401e-11)
(5.00078e-05 4.88768e-10 2.13401e-11)
(5.00082e-05 6.28542e-10 -2.74427e-11)
(5.00082e-05 6.28542e-10 2.74428e-11)
(5.00087e-05 7.82165e-10 -3.415e-11)
(5.00087e-05 7.82165e-10 3.41501e-11)
(5.00092e-05 9.55094e-10 -4.17003e-11)
(5.00092e-05 9.55094e-10 4.17004e-11)
(5.00099e-05 1.1373e-09 -4.96554e-11)
(5.00099e-05 1.1373e-09 4.96555e-11)
(5.00105e-05 1.32888e-09 -5.80201e-11)
(5.00105e-05 1.32888e-09 5.80203e-11)
(5.00113e-05 1.51545e-09 -6.61659e-11)
(5.00113e-05 1.51545e-09 6.6166e-11)
(5.00121e-05 1.68958e-09 -7.37686e-11)
(5.00121e-05 1.68958e-09 7.37688e-11)
(5.00129e-05 1.83198e-09 -7.99859e-11)
(5.00129e-05 1.83198e-09 7.99861e-11)
(5.00137e-05 1.93233e-09 -8.43672e-11)
(5.00137e-05 1.93233e-09 8.43675e-11)
(5.00144e-05 1.96936e-09 -8.5984e-11)
(5.00144e-05 1.96936e-09 8.59842e-11)
(5.0015e-05 1.94702e-09 -8.50088e-11)
(5.0015e-05 1.94702e-09 8.5009e-11)
(5.00069e-05 1.28628e-19 -3.56983e-18)
(5.0008e-05 2.93607e-10 -1.28191e-11)
(5.0008e-05 2.93607e-10 1.28192e-11)
(5.00079e-05 1.45195e-10 6.33938e-12)
(5.00079e-05 1.45195e-10 -6.33937e-12)
(5.00082e-05 4.46444e-10 -1.94922e-11)
(5.00082e-05 4.46444e-10 1.94922e-11)
(5.00084e-05 6.09654e-10 -2.6618e-11)
(5.00084e-05 6.09654e-10 2.66181e-11)
(5.00088e-05 7.79825e-10 -3.40479e-11)
(5.00088e-05 7.79825e-10 3.4048e-11)
(5.00091e-05 9.63877e-10 -4.20838e-11)
(5.00091e-05 9.63877e-10 4.20839e-11)
(5.00096e-05 1.15411e-09 -5.03897e-11)
(5.00096e-05 1.15411e-09 5.03898e-11)
(5.00101e-05 1.35516e-09 -5.91675e-11)
(5.00101e-05 1.35516e-09 5.91677e-11)
(5.00107e-05 1.55651e-09 -6.79586e-11)
(5.00107e-05 1.55651e-09 6.79588e-11)
(5.00114e-05 1.75761e-09 -7.6739e-11)
(5.00114e-05 1.75761e-09 7.67393e-11)
(5.0012e-05 1.946e-09 -8.49642e-11)
(5.0012e-05 1.946e-09 8.49644e-11)
(5.00127e-05 2.11506e-09 -9.23453e-11)
(5.00127e-05 2.11506e-09 9.23455e-11)
(5.00134e-05 2.25137e-09 -9.82969e-11)
(5.00134e-05 2.25137e-09 9.82972e-11)
(5.0014e-05 2.34738e-09 -1.02489e-10)
(5.0014e-05 2.34738e-09 1.02489e-10)
(5.00146e-05 2.39219e-09 -1.04445e-10)
(5.00146e-05 2.39219e-09 1.04446e-10)
(5.0015e-05 2.39075e-09 -1.04383e-10)
(5.0015e-05 2.39075e-09 1.04383e-10)
(5.00078e-05 1.2863e-19 -3.5699e-18)
(5.0009e-05 3.81883e-10 -1.66733e-11)
(5.0009e-05 3.81883e-10 1.66734e-11)
(5.00089e-05 1.89757e-10 8.28499e-12)
(5.00089e-05 1.89757e-10 -8.28497e-12)
(5.00092e-05 5.76018e-10 -2.51495e-11)
(5.00092e-05 5.76018e-10 2.51496e-11)
(5.00094e-05 7.77509e-10 -3.39468e-11)
(5.00094e-05 7.77509e-10 3.39469e-11)
(5.00098e-05 9.8133e-10 -4.28458e-11)
(5.00098e-05 9.8133e-10 4.28459e-11)
(5.00101e-05 1.19399e-09 -5.21309e-11)
(5.00101e-05 1.19399e-09 5.2131e-11)
(5.00106e-05 1.4066e-09 -6.14135e-11)
(5.00106e-05 1.4066e-09 6.14136e-11)
(5.0011e-05 1.62365e-09 -7.08902e-11)
(5.0011e-05 1.62365e-09 7.08904e-11)
(5.00116e-05 1.83451e-09 -8.00964e-11)
(5.00116e-05 1.83451e-09 8.00966e-11)
(5.00122e-05 2.03881e-09 -8.90165e-11)
(5.00122e-05 2.03881e-09 8.90168e-11)
(5.00127e-05 2.22611e-09 -9.71942e-11)
(5.00127e-05 2.22611e-09 9.71944e-11)
(5.00133e-05 2.39087e-09 -1.04388e-10)
(5.00133e-05 2.39087e-09 1.04388e-10)
(5.00139e-05 2.52454e-09 -1.10224e-10)
(5.00139e-05 2.52454e-09 1.10224e-10)
(5.00144e-05 2.62121e-09 -1.14444e-10)
(5.00144e-05 2.62121e-09 1.14445e-10)
(5.00149e-05 2.67691e-09 -1.16876e-10)
(5.00149e-05 2.67691e-09 1.16877e-10)
(5.00152e-05 2.69564e-09 -1.17694e-10)
(5.00152e-05 2.69564e-09 1.17694e-10)
(5.00089e-05 1.28633e-19 -3.56998e-18)
(5.00101e-05 4.39056e-10 -1.91696e-11)
(5.00101e-05 4.39056e-10 1.91697e-11)
(5.001e-05 2.18685e-10 9.54802e-12)
(5.001e-05 2.18685e-10 -9.548e-12)
(5.00102e-05 6.59433e-10 -2.87914e-11)
(5.00102e-05 6.59433e-10 2.87915e-11)
(5.00105e-05 8.84818e-10 -3.8632e-11)
(5.00105e-05 8.84818e-10 3.86321e-11)
(5.00108e-05 1.10879e-09 -4.84107e-11)
(5.00108e-05 1.10879e-09 4.84108e-11)
(5.00111e-05 1.33791e-09 -5.84143e-11)
(5.00111e-05 1.33791e-09 5.84145e-11)
(5.00115e-05 1.56224e-09 -6.82089e-11)
(5.00115e-05 1.56224e-09 6.82091e-11)
(5.00119e-05 1.78669e-09 -7.80087e-11)
(5.00119e-05 1.78669e-09 7.80089e-11)
(5.00124e-05 2.00066e-09 -8.73506e-11)
(5.00124e-05 2.00066e-09 8.73508e-11)
(5.00129e-05 2.20442e-09 -9.62469e-11)
(5.00129e-05 2.20442e-09 9.62471e-11)
(5.00135e-05 2.38945e-09 -1.04325e-10)
(5.00135e-05 2.38945e-09 1.04326e-10)
(5.0014e-05 2.55123e-09 -1.11389e-10)
(5.0014e-05 2.55123e-09 1.11389e-10)
(5.00144e-05 2.68523e-09 -1.1724e-10)
(5.00144e-05 2.68523e-09 1.1724e-10)
(5.00149e-05 2.78637e-09 -1.21655e-10)
(5.00149e-05 2.78637e-09 1.21656e-10)
(5.00152e-05 2.85576e-09 -1.24685e-10)
(5.00152e-05 2.85576e-09 1.24685e-10)
(5.00154e-05 2.89565e-09 -1.26427e-10)
(5.00154e-05 2.89565e-09 1.26427e-10)
(5.00099e-05 1.28635e-19 -3.57005e-18)
(5.00111e-05 4.70691e-10 -2.05508e-11)
(5.00111e-05 4.70691e-10 2.05509e-11)
(5.0011e-05 2.3475e-10 1.02494e-11)
(5.0011e-05 2.3475e-10 -1.02494e-11)
(5.00112e-05 7.05092e-10 -3.0785e-11)
(5.00112e-05 7.05092e-10 3.07851e-11)
(5.00115e-05 9.42882e-10 -4.11671e-11)
(5.00115e-05 9.42882e-10 4.11672e-11)
(5.00117e-05 1.17644e-09 -5.13645e-11)
(5.00117e-05 1.17644e-09 5.13646e-11)
(5.00121e-05 1.41279e-09 -6.16836e-11)
(5.00121e-05 1.41279e-09 6.16838e-11)
(5.00124e-05 1.64108e-09 -7.16512e-11)
(5.00124e-05 1.64108e-09 7.16514e-11)
(5.00128e-05 1.86703e-09 -8.1516e-11)
(5.00128e-05 1.86703e-09 8.15163e-11)
(5.00133e-05 2.0801e-09 -9.08193e-11)
(5.00133e-05 2.0801e-09 9.08195e-11)
(5.00137e-05 2.28146e-09 -9.96107e-11)
(5.00137e-05 2.28146e-09 9.9611e-11)
(5.00142e-05 2.46426e-09 -1.07592e-10)
(5.00142e-05 2.46426e-09 1.07592e-10)
(5.00146e-05 2.62476e-09 -1.14599e-10)
(5.00146e-05 2.62476e-09 1.146e-10)
(5.0015e-05 2.76158e-09 -1.20573e-10)
(5.0015e-05 2.76158e-09 1.20574e-10)
(5.00153e-05 2.86978e-09 -1.25297e-10)
(5.00153e-05 2.86978e-09 1.25297e-10)
(5.00156e-05 2.95403e-09 -1.28976e-10)
(5.00156e-05 2.95403e-09 1.28976e-10)
(5.00157e-05 3.01437e-09 -1.3161e-10)
(5.00157e-05 3.01437e-09 1.31611e-10)
(5.00109e-05 1.28638e-19 -3.57012e-18)
(5.00121e-05 4.81745e-10 -2.10334e-11)
(5.00121e-05 4.81745e-10 2.10335e-11)
(5.0012e-05 2.40428e-10 1.04973e-11)
(5.0012e-05 2.40428e-10 -1.04973e-11)
(5.00122e-05 7.20426e-10 -3.14545e-11)
(5.00122e-05 7.20426e-10 3.14546e-11)
(5.00124e-05 9.61595e-10 -4.19841e-11)
(5.00124e-05 9.61595e-10 4.19842e-11)
(5.00127e-05 1.19659e-09 -5.22443e-11)
(5.00127e-05 1.19659e-09 5.22444e-11)
(5.0013e-05 1.43324e-09 -6.25766e-11)
(5.0013e-05 1.43324e-09 6.25767e-11)
(5.00133e-05 1.65986e-09 -7.24708e-11)
(5.00133e-05 1.65986e-09 7.2471e-11)
(5.00137e-05 1.88322e-09 -8.22232e-11)
(5.00137e-05 1.88322e-09 8.22234e-11)
(5.00141e-05 2.09289e-09 -9.13775e-11)
(5.00141e-05 2.09289e-09 9.13778e-11)
(5.00145e-05 2.29094e-09 -1.00024e-10)
(5.00145e-05 2.29094e-09 1.00025e-10)
(5.00149e-05 2.47194e-09 -1.07927e-10)
(5.00149e-05 2.47194e-09 1.07928e-10)
(5.00152e-05 2.63266e-09 -1.14944e-10)
(5.00152e-05 2.63266e-09 1.14945e-10)
(5.00156e-05 2.77423e-09 -1.21126e-10)
(5.00156e-05 2.77423e-09 1.21126e-10)
(5.00158e-05 2.89125e-09 -1.26235e-10)
(5.00158e-05 2.89125e-09 1.26235e-10)
(5.0016e-05 2.99106e-09 -1.30592e-10)
(5.0016e-05 2.99106e-09 1.30593e-10)
(5.00161e-05 3.07123e-09 -1.34093e-10)
(5.00161e-05 3.07123e-09 1.34093e-10)
(5.0012e-05 1.28641e-19 -3.5702e-18)
(5.0013e-05 4.76505e-10 -2.08046e-11)
(5.0013e-05 4.76505e-10 2.08047e-11)
(5.0013e-05 2.37869e-10 1.03856e-11)
(5.0013e-05 2.37869e-10 -1.03856e-11)
(5.00132e-05 7.1182e-10 -3.10787e-11)
(5.00132e-05 7.1182e-10 3.10788e-11)
(5.00134e-05 9.49386e-10 -4.14511e-11)
(5.00134e-05 9.49386e-10 4.14512e-11)
(5.00136e-05 1.17961e-09 -5.15027e-11)
(5.00136e-05 1.17961e-09 5.15029e-11)
(5.00139e-05 1.41142e-09 -6.1624e-11)
(5.00139e-05 1.41142e-09 6.16242e-11)
(5.00142e-05 1.6323e-09 -7.12679e-11)
(5.00142e-05 1.6323e-09 7.1268e-11)
(5.00145e-05 1.85034e-09 -8.07876e-11)
(5.00145e-05 1.85034e-09 8.07878e-11)
(5.00149e-05 2.05506e-09 -8.97258e-11)
(5.00149e-05 2.05506e-09 8.97261e-11)
(5.00152e-05 2.24947e-09 -9.82138e-11)
(5.00152e-05 2.24947e-09 9.8214e-11)
(5.00156e-05 2.4293e-09 -1.06065e-10)
(5.00156e-05 2.4293e-09 1.06066e-10)
(5.00159e-05 2.5915e-09 -1.13147e-10)
(5.00159e-05 2.5915e-09 1.13148e-10)
(5.00162e-05 2.73924e-09 -1.19598e-10)
(5.00162e-05 2.73924e-09 1.19598e-10)
(5.00164e-05 2.86621e-09 -1.25142e-10)
(5.00164e-05 2.86621e-09 1.25142e-10)
(5.00165e-05 2.98177e-09 -1.30187e-10)
(5.00165e-05 2.98177e-09 1.30187e-10)
(5.00166e-05 3.08086e-09 -1.34513e-10)
(5.00166e-05 3.08086e-09 1.34514e-10)
(5.00129e-05 1.28643e-19 -3.57026e-18)
(5.00139e-05 4.58541e-10 -2.00203e-11)
(5.00139e-05 4.58541e-10 2.00204e-11)
(5.00139e-05 2.28869e-10 9.99266e-12)
(5.00139e-05 2.28869e-10 -9.99264e-12)
(5.00141e-05 6.8456e-10 -2.98885e-11)
(5.00141e-05 6.8456e-10 2.98886e-11)
(5.00143e-05 9.13185e-10 -3.98705e-11)
(5.00143e-05 9.13185e-10 3.98706e-11)
(5.00145e-05 1.13393e-09 -4.95084e-11)
(5.00145e-05 1.13393e-09 4.95085e-11)
(5.00147e-05 1.35713e-09 -5.92535e-11)
(5.00147e-05 1.35713e-09 5.92537e-11)
(5.0015e-05 1.56936e-09 -6.85196e-11)
(5.0015e-05 1.56936e-09 6.85198e-11)
(5.00153e-05 1.78019e-09 -7.77249e-11)
(5.00153e-05 1.78019e-09 7.77251e-11)
(5.00157e-05 1.97901e-09 -8.64056e-11)
(5.00157e-05 1.97901e-09 8.64058e-11)
(5.0016e-05 2.16971e-09 -9.47317e-11)
(5.0016e-05 2.16971e-09 9.4732e-11)
(5.00163e-05 2.34898e-09 -1.02559e-10)
(5.00163e-05 2.34898e-09 1.02559e-10)
(5.00165e-05 2.51366e-09 -1.09749e-10)
(5.00165e-05 2.51366e-09 1.09749e-10)
(5.00168e-05 2.66863e-09 -1.16515e-10)
(5.00168e-05 2.66863e-09 1.16515e-10)
(5.00169e-05 2.80629e-09 -1.22525e-10)
(5.00169e-05 2.80629e-09 1.22526e-10)
(5.0017e-05 2.93761e-09 -1.28259e-10)
(5.0017e-05 2.93761e-09 1.28259e-10)
(5.0017e-05 3.05482e-09 -1.33376e-10)
(5.0017e-05 3.05482e-09 1.33377e-10)
(5.00138e-05 1.28646e-19 -3.57033e-18)
(5.00148e-05 4.30769e-10 -1.88078e-11)
(5.00148e-05 4.30769e-10 1.88078e-11)
(5.00147e-05 2.14896e-10 9.38257e-12)
(5.00147e-05 2.14896e-10 -9.38255e-12)
(5.00149e-05 6.42942e-10 -2.80715e-11)
(5.00149e-05 6.42942e-10 2.80715e-11)
(5.00151e-05 8.58585e-10 -3.74866e-11)
(5.00151e-05 8.58585e-10 3.74867e-11)
(5.00153e-05 1.06631e-09 -4.65562e-11)
(5.00153e-05 1.06631e-09 4.65563e-11)
(5.00156e-05 1.27812e-09 -5.5804e-11)
(5.00156e-05 1.27812e-09 5.58042e-11)
(5.00158e-05 1.47959e-09 -6.46004e-11)
(5.00158e-05 1.47959e-09 6.46005e-11)
(5.00161e-05 1.68195e-09 -7.34354e-11)
(5.00161e-05 1.68195e-09 7.34356e-11)
(5.00164e-05 1.87428e-09 -8.18329e-11)
(5.00164e-05 1.87428e-09 8.18332e-11)
(5.00167e-05 2.06134e-09 -9e-11)
(5.00167e-05 2.06134e-09 9.00002e-11)
(5.0017e-05 2.24058e-09 -9.7826e-11)
(5.0017e-05 2.24058e-09 9.78262e-11)
(5.00172e-05 2.40852e-09 -1.05158e-10)
(5.00172e-05 2.40852e-09 1.05158e-10)
(5.00174e-05 2.57149e-09 -1.12274e-10)
(5.00174e-05 2.57149e-09 1.12274e-10)
(5.00175e-05 2.72034e-09 -1.18773e-10)
(5.00175e-05 2.72034e-09 1.18773e-10)
(5.00176e-05 2.86736e-09 -1.25192e-10)
(5.00176e-05 2.86736e-09 1.25192e-10)
(5.00176e-05 3.002e-09 -1.3107e-10)
(5.00176e-05 3.002e-09 1.31071e-10)
(5.00147e-05 1.28648e-19 -3.57039e-18)
(5.00156e-05 3.95535e-10 -1.72694e-11)
(5.00156e-05 3.95535e-10 1.72695e-11)
(5.00155e-05 1.97134e-10 8.60709e-12)
(5.00155e-05 1.97134e-10 -8.60707e-12)
(5.00157e-05 5.90405e-10 -2.57776e-11)
(5.00157e-05 5.90405e-10 2.57777e-11)
(5.00159e-05 7.90037e-10 -3.44937e-11)
(5.00159e-05 7.90037e-10 3.44938e-11)
(5.00161e-05 9.82087e-10 -4.28788e-11)
(5.00161e-05 9.82087e-10 4.28789e-11)
(5.00163e-05 1.18048e-09 -5.15408e-11)
(5.00163e-05 1.18048e-09 5.15409e-11)
(5.00166e-05 1.36965e-09 -5.98004e-11)
(5.00166e-05 1.36965e-09 5.98005e-11)
(5.00169e-05 1.56264e-09 -6.82262e-11)
(5.00169e-05 1.56264e-09 6.82263e-11)
(5.00171e-05 1.74811e-09 -7.63242e-11)
(5.00171e-05 1.74811e-09 7.63244e-11)
(5.00174e-05 1.93162e-09 -8.43361e-11)
(5.00174e-05 1.93162e-09 8.43363e-11)
(5.00176e-05 2.11129e-09 -9.2181e-11)
(5.00176e-05 2.11129e-09 9.21812e-11)
(5.00179e-05 2.28307e-09 -9.96809e-11)
(5.00179e-05 2.28307e-09 9.96812e-11)
(5.0018e-05 2.45467e-09 -1.07173e-10)
(5.0018e-05 2.45467e-09 1.07173e-10)
(5.00182e-05 2.61508e-09 -1.14177e-10)
(5.00182e-05 2.61508e-09 1.14177e-10)
(5.00182e-05 2.77784e-09 -1.21283e-10)
(5.00182e-05 2.77784e-09 1.21283e-10)
(5.00182e-05 2.92946e-09 -1.27903e-10)
(5.00182e-05 2.92946e-09 1.27903e-10)
(5.00155e-05 1.2865e-19 -3.57045e-18)
(5.00163e-05 3.5473e-10 -1.54878e-11)
(5.00163e-05 3.5473e-10 1.54879e-11)
(5.00163e-05 1.76542e-10 7.708e-12)
(5.00163e-05 1.76542e-10 -7.70798e-12)
(5.00165e-05 5.29708e-10 -2.31275e-11)
(5.00165e-05 5.29708e-10 2.31276e-11)
(5.00166e-05 7.11095e-10 -3.10471e-11)
(5.00166e-05 7.11095e-10 3.10471e-11)
(5.00168e-05 8.85482e-10 -3.86609e-11)
(5.00168e-05 8.85482e-10 3.8661e-11)
(5.00171e-05 1.06898e-09 -4.66725e-11)
(5.00171e-05 1.06898e-09 4.66726e-11)
(5.00173e-05 1.24472e-09 -5.43456e-11)
(5.00173e-05 1.24472e-09 5.43457e-11)
(5.00176e-05 1.42769e-09 -6.23343e-11)
(5.00176e-05 1.42769e-09 6.23344e-11)
(5.00178e-05 1.60604e-09 -7.01214e-11)
(5.00178e-05 1.60604e-09 7.01216e-11)
(5.00181e-05 1.78608e-09 -7.79818e-11)
(5.00181e-05 1.78608e-09 7.7982e-11)
(5.00183e-05 1.96656e-09 -8.58619e-11)
(5.00183e-05 1.96656e-09 8.58621e-11)
(5.00185e-05 2.14264e-09 -9.35496e-11)
(5.00185e-05 2.14264e-09 9.35498e-11)
(5.00187e-05 2.32341e-09 -1.01442e-10)
(5.00187e-05 2.32341e-09 1.01442e-10)
(5.00188e-05 2.49574e-09 -1.08966e-10)
(5.00188e-05 2.49574e-09 1.08967e-10)
(5.00188e-05 2.67439e-09 -1.16766e-10)
(5.00188e-05 2.67439e-09 1.16767e-10)
(5.00188e-05 2.84283e-09 -1.24121e-10)
(5.00188e-05 2.84283e-09 1.24121e-10)
(5.00162e-05 1.28652e-19 -3.5705e-18)
(5.0017e-05 3.09934e-10 -1.3532e-11)
(5.0017e-05 3.09934e-10 1.3532e-11)
(5.00169e-05 1.5392e-10 6.72028e-12)
(5.00169e-05 1.5392e-10 -6.72027e-12)
(5.00171e-05 4.63146e-10 -2.02214e-11)
(5.00171e-05 4.63146e-10 2.02214e-11)
(5.00173e-05 6.247e-10 -2.7275e-11)
(5.00173e-05 6.247e-10 2.72751e-11)
(5.00175e-05 7.79969e-10 -3.40542e-11)
(5.00175e-05 7.79969e-10 3.40543e-11)
(5.00177e-05 9.47511e-10 -4.13692e-11)
(5.00177e-05 9.47511e-10 4.13693e-11)
(5.0018e-05 1.10898e-09 -4.8419e-11)
(5.0018e-05 1.10898e-09 4.84192e-11)
(5.00183e-05 1.28147e-09 -5.59502e-11)
(5.00183e-05 1.28147e-09 5.59504e-11)
(5.00185e-05 1.45251e-09 -6.3418e-11)
(5.00185e-05 1.45251e-09 6.34182e-11)
(5.00188e-05 1.62912e-09 -7.1129e-11)
(5.00188e-05 1.62912e-09 7.11292e-11)
(5.0019e-05 1.81072e-09 -7.90578e-11)
(5.0019e-05 1.81072e-09 7.9058e-11)
(5.00192e-05 1.99146e-09 -8.69491e-11)
(5.00192e-05 1.99146e-09 8.69493e-11)
(5.00194e-05 2.18191e-09 -9.52643e-11)
(5.00194e-05 2.18191e-09 9.52645e-11)
(5.00195e-05 2.36658e-09 -1.03327e-10)
(5.00195e-05 2.36658e-09 1.03327e-10)
(5.00195e-05 2.56149e-09 -1.11837e-10)
(5.00195e-05 2.56149e-09 1.11837e-10)
(5.00195e-05 2.74694e-09 -1.19934e-10)
(5.00195e-05 2.74694e-09 1.19934e-10)
(5.00169e-05 1.28653e-19 -3.57055e-18)
(5.00176e-05 2.62546e-10 -1.1463e-11)
(5.00176e-05 2.62546e-10 1.1463e-11)
(5.00175e-05 1.29977e-10 5.67494e-12)
(5.00175e-05 1.29977e-10 -5.67493e-12)
(5.00177e-05 3.92744e-10 -1.71476e-11)
(5.00177e-05 3.92744e-10 1.71476e-11)
(5.00179e-05 5.3344e-10 -2.32905e-11)
(5.00179e-05 5.3344e-10 2.32905e-11)
(5.00181e-05 6.68586e-10 -2.91911e-11)
(5.00181e-05 6.68586e-10 2.91912e-11)
(5.00184e-05 8.19477e-10 -3.57791e-11)
(5.00184e-05 8.19477e-10 3.57792e-11)
(5.00186e-05 9.6606e-10 -4.21791e-11)
(5.00186e-05 9.6606e-10 4.21792e-11)
(5.00189e-05 1.12774e-09 -4.92381e-11)
(5.00189e-05 1.12774e-09 4.92383e-11)
(5.00192e-05 1.29131e-09 -5.63797e-11)
(5.00192e-05 1.29131e-09 5.63799e-11)
(5.00194e-05 1.46451e-09 -6.39419e-11)
(5.00194e-05 1.46451e-09 6.39421e-11)
(5.00197e-05 1.64748e-09 -7.19305e-11)
(5.00197e-05 1.64748e-09 7.19307e-11)
(5.00199e-05 1.83319e-09 -8.00389e-11)
(5.00199e-05 1.83319e-09 8.00391e-11)
(5.00201e-05 2.03385e-09 -8.87998e-11)
(5.00201e-05 2.03385e-09 8.88001e-11)
(5.00202e-05 2.23134e-09 -9.74224e-11)
(5.00202e-05 2.23134e-09 9.74226e-11)
(5.00202e-05 2.44313e-09 -1.06669e-10)
(5.00202e-05 2.44313e-09 1.06669e-10)
(5.00202e-05 2.64614e-09 -1.15533e-10)
(5.00202e-05 2.64614e-09 1.15533e-10)
(5.00175e-05 1.28655e-19 -3.57059e-18)
(5.00181e-05 2.13956e-10 -9.34153e-12)
(5.00181e-05 2.13956e-10 9.34155e-12)
(5.00181e-05 1.05421e-10 4.60279e-12)
(5.00181e-05 1.05421e-10 -4.60278e-12)
(5.00183e-05 3.2051e-10 -1.39938e-11)
(5.00183e-05 3.2051e-10 1.39938e-11)
(5.00185e-05 4.39875e-10 -1.92054e-11)
(5.00185e-05 4.39875e-10 1.92054e-11)
(5.00187e-05 5.54339e-10 -2.42029e-11)
(5.00187e-05 5.54339e-10 2.4203e-11)
(5.00189e-05 6.88224e-10 -3.00485e-11)
(5.00189e-05 6.88224e-10 3.00486e-11)
(5.00192e-05 8.1954e-10 -3.57819e-11)
(5.00192e-05 8.1954e-10 3.5782e-11)
(5.00195e-05 9.70194e-10 -4.23596e-11)
(5.00195e-05 9.70194e-10 4.23597e-11)
(5.00198e-05 1.12618e-09 -4.917e-11)
(5.00198e-05 1.12618e-09 4.91701e-11)
(5.00201e-05 1.29596e-09 -5.65829e-11)
(5.00201e-05 1.29596e-09 5.6583e-11)
(5.00204e-05 1.48051e-09 -6.46406e-11)
(5.00204e-05 1.48051e-09 6.46407e-11)
(5.00206e-05 1.67146e-09 -7.29774e-11)
(5.00206e-05 1.67146e-09 7.29776e-11)
(5.00208e-05 1.88289e-09 -8.22087e-11)
(5.00208e-05 1.88289e-09 8.22089e-11)
(5.00209e-05 2.0938e-09 -9.14174e-11)
(5.00209e-05 2.0938e-09 9.14177e-11)
(5.00209e-05 2.32334e-09 -1.01439e-10)
(5.00209e-05 2.32334e-09 1.0144e-10)
(5.00209e-05 2.54486e-09 -1.11111e-10)
(5.00209e-05 2.54486e-09 1.11111e-10)
(5.0018e-05 1.28656e-19 -3.57063e-18)
(5.00186e-05 1.65697e-10 -7.23447e-12)
(5.00186e-05 1.65697e-10 7.23449e-12)
(5.00185e-05 8.10282e-11 3.53777e-12)
(5.00185e-05 8.10282e-11 -3.53777e-12)
(5.00188e-05 2.48657e-10 -1.08566e-11)
(5.00188e-05 2.48657e-10 1.08566e-11)
(5.00189e-05 3.46834e-10 -1.51431e-11)
(5.00189e-05 3.46834e-10 1.51431e-11)
(5.00192e-05 4.40544e-10 -1.92345e-11)
(5.00192e-05 4.40544e-10 1.92346e-11)
(5.00195e-05 5.5746e-10 -2.43392e-11)
(5.00195e-05 5.5746e-10 2.43393e-11)
(5.00198e-05 6.73386e-10 -2.94007e-11)
(5.00198e-05 6.73386e-10 2.94007e-11)
(5.00201e-05 8.12955e-10 -3.54944e-11)
(5.00201e-05 8.12955e-10 3.54945e-11)
(5.00204e-05 9.61299e-10 -4.19712e-11)
(5.00204e-05 9.61299e-10 4.19713e-11)
(5.00207e-05 1.12763e-09 -4.92335e-11)
(5.00207e-05 1.12763e-09 4.92337e-11)
(5.0021e-05 1.31395e-09 -5.73683e-11)
(5.0021e-05 1.31395e-09 5.73685e-11)
(5.00213e-05 1.51035e-09 -6.59431e-11)
(5.00213e-05 1.51035e-09 6.59433e-11)
(5.00215e-05 1.73316e-09 -7.56712e-11)
(5.00215e-05 1.73316e-09 7.56714e-11)
(5.00217e-05 1.9582e-09 -8.54968e-11)
(5.00217e-05 1.9582e-09 8.5497e-11)
(5.00217e-05 2.20663e-09 -9.63437e-11)
(5.00217e-05 2.20663e-09 9.63439e-11)
(5.00217e-05 2.44797e-09 -1.06881e-10)
(5.00217e-05 2.44797e-09 1.06881e-10)
(5.00185e-05 1.28657e-19 -3.57066e-18)
(5.0019e-05 1.19624e-10 -5.22289e-12)
(5.0019e-05 1.19624e-10 5.2229e-12)
(5.00189e-05 5.77401e-11 2.52099e-12)
(5.00189e-05 5.77401e-11 -2.52099e-12)
(5.00191e-05 1.79874e-10 -7.85344e-12)
(5.00191e-05 1.79874e-10 7.85346e-12)
(5.00193e-05 2.57756e-10 -1.12539e-11)
(5.00193e-05 2.57756e-10 1.12539e-11)
(5.00196e-05 3.31254e-10 -1.44629e-11)
(5.00196e-05 3.31254e-10 1.44629e-11)
(5.00199e-05 4.31726e-10 -1.88496e-11)
(5.00199e-05 4.31726e-10 1.88496e-11)
(5.00202e-05 5.3248e-10 -2.32486e-11)
(5.00202e-05 5.3248e-10 2.32486e-11)
(5.00206e-05 6.61117e-10 -2.8865e-11)
(5.00206e-05 6.61117e-10 2.88651e-11)
(5.0021e-05 8.01862e-10 -3.501e-11)
(5.0021e-05 8.01862e-10 3.50101e-11)
(5.00214e-05 9.64723e-10 -4.21207e-11)
(5.00214e-05 9.64723e-10 4.21208e-11)
(5.00217e-05 1.15296e-09 -5.03393e-11)
(5.00217e-05 1.15296e-09 5.03395e-11)
(5.0022e-05 1.35497e-09 -5.91592e-11)
(5.0022e-05 1.35497e-09 5.91594e-11)
(5.00223e-05 1.58978e-09 -6.94113e-11)
(5.00223e-05 1.58978e-09 6.94115e-11)
(5.00224e-05 1.82974e-09 -7.98882e-11)
(5.00224e-05 1.82974e-09 7.98885e-11)
(5.00225e-05 2.09846e-09 -9.16206e-11)
(5.00225e-05 2.09846e-09 9.16208e-11)
(5.00225e-05 2.36133e-09 -1.03098e-10)
(5.00225e-05 2.36133e-09 1.03098e-10)
(5.00188e-05 1.28658e-19 -3.57069e-18)
(5.00193e-05 7.81327e-11 -3.41135e-12)
(5.00193e-05 7.81327e-11 3.41135e-12)
(5.00192e-05 3.67703e-11 1.60543e-12)
(5.00192e-05 3.67703e-11 -1.60543e-12)
(5.00195e-05 1.17635e-10 -5.13605e-12)
(5.00195e-05 1.17635e-10 5.13606e-12)
(5.00197e-05 1.77098e-10 -7.73227e-12)
(5.00197e-05 1.77098e-10 7.73229e-12)
(5.002e-05 2.3174e-10 -1.0118e-11)
(5.002e-05 2.3174e-10 1.0118e-11)
(5.00203e-05 3.16954e-10 -1.38385e-11)
(5.00203e-05 3.16954e-10 1.38386e-11)
(5.00207e-05 4.03224e-10 -1.76051e-11)
(5.00207e-05 4.03224e-10 1.76052e-11)
(5.00211e-05 5.2139e-10 -2.27644e-11)
(5.00211e-05 5.2139e-10 2.27644e-11)
(5.00215e-05 6.54732e-10 -2.85862e-11)
(5.00215e-05 6.54732e-10 2.85863e-11)
(5.0022e-05 8.14122e-10 -3.55453e-11)
(5.0022e-05 8.14122e-10 3.55454e-11)
(5.00224e-05 1.0044e-09 -4.38531e-11)
(5.00224e-05 1.0044e-09 4.38532e-11)
(5.00227e-05 1.2121e-09 -5.29216e-11)
(5.00227e-05 1.2121e-09 5.29217e-11)
(5.0023e-05 1.45952e-09 -6.37238e-11)
(5.0023e-05 1.45952e-09 6.3724e-11)
(5.00233e-05 1.71521e-09 -7.48875e-11)
(5.00233e-05 1.71521e-09 7.48877e-11)
(5.00234e-05 2.00579e-09 -8.75746e-11)
(5.00234e-05 2.00579e-09 8.75749e-11)
(5.00234e-05 2.29224e-09 -1.00081e-10)
(5.00234e-05 2.29224e-09 1.00082e-10)
(5.00191e-05 1.28659e-19 -3.57071e-18)
(5.00195e-05 4.43693e-11 -1.9372e-12)
(5.00195e-05 4.43693e-11 1.93721e-12)
(5.00194e-05 1.97111e-11 8.60603e-13)
(5.00194e-05 1.97111e-11 -8.60604e-13)
(5.00197e-05 6.65174e-11 -2.90421e-12)
(5.00197e-05 6.65174e-11 2.90422e-12)
(5.002e-05 1.10738e-10 -4.83493e-12)
(5.002e-05 1.10738e-10 4.83494e-12)
(5.00203e-05 1.48975e-10 -6.5044e-12)
(5.00203e-05 1.48975e-10 6.50441e-12)
(5.00207e-05 2.21014e-10 -9.64965e-12)
(5.00207e-05 2.21014e-10 9.64968e-12)
(5.00211e-05 2.94146e-10 -1.28427e-11)
(5.00211e-05 2.94146e-10 1.28427e-11)
(5.00216e-05 4.02746e-10 -1.75843e-11)
(5.00216e-05 4.02746e-10 1.75843e-11)
(5.0022e-05 5.29116e-10 -2.31017e-11)
(5.0022e-05 5.29116e-10 2.31018e-11)