/*--------------------------------*- C++ -*----------------------------------*\
| =========                 |                                                 |
| \\      /  F ield         | OpenFOAM: The Open Source CFD Toolbox           |
|  \\    /   O peration     | Version:  4.1                                   |
|   \\  /    A nd           | Web:      www.OpenFOAM.org                      |
|    \\/     M anipulation  |                                                 |
\*---------------------------------------------------------------------------*/
FoamFile
{
    version     2.0;
    format      ascii;
    class       volVectorField;
    location    "0.000580";
    object      U;
}
// * * * * * * * * * * * * * * * * * * * * * * * * * * * * * * * * * * * * * //

dimensions      [0 1 -1 0 0 0 0];

internalField   nonuniform List<vector> 
3072
(
(18.771373 0.073785482 -0.00049143284)
(19.285957 0.022643174 -0.0008006802)
(19.383544 0.0057731379 -0.00072171859)
(19.286147 -0.044169501 -0.00073142018)
(19.156897 -0.066515919 -0.00063481999)
(18.977435 -0.088691016 -0.00051481694)
(18.797797 -0.10222103 -0.00028604942)
(18.619027 -0.11082297 -0.00015437367)
(18.442653 -0.11361238 -0.00025293927)
(18.274648 -0.11127435 -0.0003892598)
(18.106221 -0.10599512 -0.00032509863)
(17.944062 -0.097308084 -2.6103802e-05)
(17.785815 -0.086985752 0.00031490265)
(17.634484 -0.075571101 0.00055119815)
(17.490367 -0.064753042 0.00065196617)
(17.350053 -0.054552092 0.00062634208)
(17.220834 -0.041840686 0.00046700031)
(17.091981 -0.02330172 0.00021019734)
(16.936728 -0.0021788234 -0.00010846786)
(16.779071 0.014907996 -0.00031629419)
(16.649213 0.029015416 -0.00030166588)
(16.548656 0.036498906 -0.00017102569)
(16.508908 0.036911687 1.586343e-05)
(16.531598 0.035674296 0.00022486154)
(17.937726 0.12112629 -0.0018685351)
(18.124934 0.11042446 -0.00023863549)
(18.143318 0.04552407 -0.020900485)
(18.021476 -0.013129859 -0.024849494)
(17.884609 -0.042071719 -0.027517716)
(17.722115 -0.063903383 -0.028254504)
(17.563671 -0.076103992 -0.027901608)
(17.409724 -0.08349983 -0.029117774)
(17.260497 -0.086169977 -0.030543413)
(17.120673 -0.085028665 -0.032780159)
(16.983298 -0.081459986 -0.035056898)
(16.848449 -0.075091985 -0.036745737)
(16.714789 -0.067267213 -0.038239055)
(16.583492 -0.058508252 -0.039369571)
(16.456978 -0.050408262 -0.040436353)
(16.335353 -0.042701892 -0.041351271)
(16.223597 -0.034211436 -0.042218196)
(16.117327 -0.021012432 -0.043252071)
(16.010392 -0.0044212654 -0.043377353)
(15.907513 0.012510816 -0.040931932)
(15.818501 0.02772936 -0.037999898)
(15.74844 0.039205638 -0.033385768)
(15.708312 0.046344046 -0.026420257)
(15.70745 0.051856202 -0.018449672)
(17.530902 0.11496913 -0.044981718)
(17.516646 0.10997962 -0.073271261)
(17.488785 0.046173865 -0.080247245)
(17.368992 -0.0074275903 -0.07544686)
(17.258336 -0.036018861 -0.072389935)
(17.139059 -0.055836932 -0.069429702)
(17.023631 -0.067186823 -0.066895945)
(16.914371 -0.073641944 -0.066357556)
(16.808292 -0.075584179 -0.067215539)
(16.707774 -0.073820399 -0.069142941)
(16.608173 -0.069829129 -0.071181313)
(16.504603 -0.063744701 -0.072610191)
(16.397008 -0.056426751 -0.073930695)
(16.283615 -0.048201596 -0.074583993)
(16.168676 -0.040205435 -0.074675915)
(16.053553 -0.03250685 -0.074397076)
(15.941665 -0.024377288 -0.073373943)
(15.829771 -0.013287629 -0.071961202)
(15.710669 0.0018564717 -0.068555385)
(15.590942 0.015573161 -0.063080481)
(15.478077 0.028628082 -0.055975438)
(15.376593 0.039266799 -0.046822096)
(15.297748 0.046331751 -0.034081595)
(15.250253 0.052707831 -0.019410481)
(17.317818 0.10199863 -0.08540068)
(17.18105 0.10035596 -0.13681356)
(17.126595 0.04075222 -0.13684493)
(17.006249 -0.0046512777 -0.12390662)
(16.913207 -0.029830246 -0.11472156)
(16.82132 -0.046323743 -0.10784737)
(16.73154 -0.055679408 -0.10323697)
(16.645764 -0.060417139 -0.10111167)
(16.563901 -0.061152868 -0.10130927)
(16.482281 -0.058669344 -0.10267924)
(16.398937 -0.054138509 -0.10438419)
(16.307967 -0.04848705 -0.10567764)
(16.210242 -0.041928598 -0.10690966)
(16.103064 -0.034646572 -0.1073705)
(15.990771 -0.027330335 -0.10695145)
(15.875897 -0.020320708 -0.10567752)
(15.760304 -0.013067971 -0.1030929)
(15.643265 -0.003928569 -0.099165499)
(15.520856 0.0075746067 -0.093472891)
(15.395964 0.017929322 -0.085415015)
(15.272504 0.0284056 -0.074250778)
(15.154931 0.037904436 -0.060490445)
(15.051449 0.043572563 -0.042857426)
(14.971444 0.048622532 -0.022627501)
(17.192048 0.082053477 -0.12876265)
(16.946115 0.081177551 -0.19911113)
(16.875357 0.029271219 -0.19290534)
(16.752678 -0.0056156662 -0.17129242)
(16.672706 -0.025698778 -0.15574246)
(16.595418 -0.038394793 -0.14506688)
(16.522973 -0.045467759 -0.13882059)
(16.451461 -0.048371069 -0.1355692)
(16.382194 -0.048216972 -0.13529053)
(16.309109 -0.045613361 -0.13674996)
(16.230357 -0.040989424 -0.1379158)
(16.142635 -0.035956364 -0.13886914)
(16.045692 -0.030409736 -0.13996003)
(15.939262 -0.02419759 -0.14035345)
(15.825217 -0.018017506 -0.1396777)
(15.707069 -0.01181648 -0.13764847)
(15.585771 -0.005884097 -0.13395237)
(15.462339 0.0011346814 -0.12819502)
(15.334496 0.0096703688 -0.12016165)
(15.204481 0.017622528 -0.10935682)
(15.073172 0.025097046 -0.094871781)
(14.945115 0.031728551 -0.077287209)
(14.826053 0.035596074 -0.056392501)
(14.723836 0.038777955 -0.032393143)
(17.154821 0.056203136 -0.17197357)
(16.79629 0.052259768 -0.25486368)
(16.720406 0.013201824 -0.2426636)
(16.590209 -0.0069819397 -0.21053915)
(16.520971 -0.021564605 -0.18941119)
(16.455398 -0.030243085 -0.17513075)
(16.39365 -0.035099022 -0.16759718)
(16.3311 -0.037390473 -0.16472959)
(16.263709 -0.038835411 -0.16557746)
(16.190297 -0.037406075 -0.16898723)
(16.106083 -0.033283744 -0.17007238)
(16.012809 -0.029147604 -0.17020039)
(15.907873 -0.024618615 -0.1709552)
(15.793684 -0.019524581 -0.17116501)
(15.671014 -0.014430406 -0.17041486)
(15.542858 -0.0092970483 -0.16822323)
(15.410891 -0.0046693803 -0.16400231)
(15.277138 0.00040521689 -0.15709594)
(15.141077 0.0061786756 -0.14732291)
(15.00484 0.011437312 -0.13468838)
(14.86736 0.015912803 -0.11799668)
(14.73277 0.019983072 -0.097328408)
(14.605787 0.02275939 -0.0725219)
(14.492119 0.024936933 -0.043319693)
(17.312506 0.020617759 -0.21851205)
(16.825163 0.0092278615 -0.31177652)
(16.763688 -0.0099115795 -0.29112151)
(16.630576 -0.015230839 -0.2487991)
(16.571137 -0.022918875 -0.22318687)
(16.512359 -0.027849251 -0.20556703)
(16.4536 -0.031015023 -0.19579551)
(16.388471 -0.032753086 -0.19256401)
(16.310184 -0.034318556 -0.19524085)
(16.217029 -0.035021032 -0.20357727)
(16.109419 -0.033787728 -0.20784939)
(15.991948 -0.030458145 -0.20695728)
(15.862309 -0.025554834 -0.20473219)
(15.722389 -0.021567785 -0.20349096)
(15.575306 -0.017686335 -0.20226214)
(15.423331 -0.013992679 -0.19982353)
(15.270209 -0.010671332 -0.19546596)
(15.118162 -0.0075126651 -0.18777717)
(14.968748 -0.0044349663 -0.17671359)
(14.822325 -0.0018045909 -0.16247871)
(14.680379 0.0005554775 -0.14441547)
(14.544927 0.0027569508 -0.12131457)
(14.420612 0.0044948453 -0.092925707)
(14.311421 0.0060581459 -0.059022241)
(17.866852 -0.00010417349 -0.30932333)
(17.246033 -0.00086406244 -0.38759904)
(17.222002 -0.00086942704 -0.34238827)
(17.075775 -0.00083443 -0.30556632)
(17.005087 -0.00094517631 -0.27475938)
(16.919219 -0.0010238405 -0.25483819)
(16.822775 -0.00079920171 -0.24257699)
(16.708252 -0.00021438888 -0.23556439)
(16.573678 6.9694745e-05 -0.23119289)
(16.415724 0.0003248273 -0.23452999)
(16.236922 0.00016317658 -0.24147599)
(16.05265 -0.00036131044 -0.24361339)
(15.870404 -0.00086022635 -0.24146824)
(15.682862 -0.00090749151 -0.24081455)
(15.492264 -0.00062521678 -0.23933937)
(15.301958 -0.00016810736 -0.23645753)
(15.115501 0.00036104343 -0.23059923)
(14.936837 0.0007297802 -0.22056539)
(14.769418 0.00085598712 -0.20710874)
(14.615022 0.00074560796 -0.19089313)
(14.474831 0.00047421349 -0.17107626)
(14.350668 0.00022564299 -0.14627628)
(14.245193 5.6536757e-05 -0.11515835)
(14.160161 -0.00010061243 -0.076532791)
(17.933811 0.12131424 0.00057670616)
(18.118759 0.11101389 -0.0020537532)
(18.135463 0.046060608 0.018799856)
(18.012811 -0.012725849 0.022926371)
(17.874752 -0.042016569 0.026046194)
(17.710373 -0.064328104 0.027416094)
(17.550208 -0.076790373 0.027750471)
(17.395869 -0.084062844 0.029186877)
(17.246943 -0.086448688 0.030252717)
(17.106523 -0.085107343 0.032095778)
(16.968179 -0.081485904 0.034455427)
(16.833177 -0.075156057 0.036749355)
(16.700437 -0.067344871 0.038927076)
(16.571037 -0.058537495 0.040487078)
(16.447034 -0.050309322 0.041647781)
(16.327923 -0.042512268 0.042414458)
(16.217971 -0.034015432 0.042940396)
(16.112567 -0.020893572 0.043516838)
(16.005589 -0.0044348776 0.043089895)
(15.902911 0.012371605 0.040293194)
(15.814181 0.027460989 0.03743356)
(15.745279 0.038871428 0.033090602)
(15.706701 0.045906198 0.026551376)
(15.70779 0.051334897 0.019077459)
(17.258173 0.1442599 -0.00080214176)
(17.10298 0.16002737 -0.0015010755)
(16.963896 0.077799334 -0.0014547214)
(16.773694 0.014489301 -0.0013222312)
(16.598584 -0.019733309 -0.00087806316)
(16.422571 -0.042706114 -0.00031765759)
(16.256669 -0.055489386 0.00016688248)
(16.099112 -0.063024492 0.00024471918)
(15.952372 -0.065893089 -5.9497761e-05)
(15.815383 -0.065760737 -0.00034235416)
(15.685048 -0.063904325 -0.0003075454)
(15.560131 -0.060027569 3.4786417e-05)
(15.43968 -0.054823797 0.00040935914)
(15.325856 -0.048470835 0.00062369675)
(15.220585 -0.042471749 0.00063810306)
(15.126518 -0.036354239 0.00053539068)
(15.045569 -0.030502054 0.00037280537)
(14.976322 -0.02284833 0.00018571632)
(14.923717 -0.010521546 -3.2935086e-05)
(14.879348 0.0013340401 -0.00018322656)
(14.844556 0.01315824 -0.00012899926)
(14.823335 0.023617141 3.1758753e-05)
(14.816311 0.031465684 0.00028555565)
(14.834789 0.039212311 0.00055972026)
(16.946764 0.12107433 -0.041048119)
(16.657277 0.13759254 -0.066624767)
(16.476334 0.068084544 -0.05852139)
(16.282024 0.014541112 -0.05023761)
(16.128869 -0.016581938 -0.045401533)
(15.987513 -0.0369956 -0.041780342)
(15.860091 -0.048636933 -0.039189325)
(15.744139 -0.055258826 -0.038106001)
(15.638311 -0.057408802 -0.037895894)
(15.539216 -0.056749353 -0.038173821)
(15.443937 -0.05472029 -0.038432562)
(15.350017 -0.051262918 -0.03840102)
(15.255776 -0.046617039 -0.03830866)
(15.162026 -0.040711088 -0.037973021)
(15.07108 -0.034527024 -0.037394695)
(14.985016 -0.02846293 -0.036723912)
(14.904839 -0.022154787 -0.035581286)
(14.8293 -0.014394668 -0.033792402)
(14.757396 -0.0043023669 -0.03126505)
(14.688836 0.0045213982 -0.027825053)
(14.624825 0.013530823 -0.023935672)
(14.569844 0.021415375 -0.019626001)
(14.527814 0.026883095 -0.013686835)
(14.506708 0.032306299 -0.0067535247)
(16.823833 0.096323557 -0.078205562)
(16.482776 0.11151267 -0.12380174)
(16.290274 0.055886716 -0.11301749)
(16.097495 0.014193454 -0.096890539)
(15.960461 -0.010566765 -0.086485957)
(15.841716 -0.026284545 -0.078783095)
(15.738801 -0.035105171 -0.073529361)
(15.648217 -0.039360295 -0.070785768)
(15.56654 -0.040283728 -0.070117857)
(15.488117 -0.039203021 -0.070432816)
(15.410358 -0.037365005 -0.071075461)
(15.33123 -0.034923653 -0.071584154)
(15.248927 -0.031391548 -0.07201675)
(15.163625 -0.026651306 -0.071940135)
(15.078263 -0.021402512 -0.071259689)
(14.9941 -0.015943564 -0.070292511)
(14.911201 -0.010492737 -0.068340783)
(14.829373 -0.0041857154 -0.065322098)
(14.748168 0.003382613 -0.061134501)
(14.668089 0.0098564219 -0.055400613)
(14.589747 0.016175321 -0.047784275)
(14.517485 0.021623383 -0.038520167)
(14.454863 0.024732299 -0.026327844)
(14.408937 0.027321389 -0.012275152)
(16.780502 0.068784546 -0.1153503)
(16.4086 0.079025495 -0.18004222)
(16.217001 0.040185021 -0.16679186)
(16.028518 0.012560222 -0.14229866)
(15.905297 -0.0043038656 -0.12631858)
(15.803385 -0.014293395 -0.11464334)
(15.71867 -0.01925355 -0.10697043)
(15.644799 -0.020746542 -0.10264886)
(15.577455 -0.020614924 -0.10154735)
(15.510734 -0.019278682 -0.10157686)
(15.44179 -0.018163446 -0.1023066)
(15.368801 -0.01738628 -0.10332428)
(15.290531 -0.015535936 -0.10418669)
(15.207491 -0.012421893 -0.10446313)
(15.121871 -0.0087277074 -0.10407879)
(15.034345 -0.0045249648 -0.10281939)
(14.944643 -0.0006103843 -0.10037712)
(14.853134 0.0037116834 -0.096385996)
(14.759382 0.0086030588 -0.090612208)
(14.665107 0.012525949 -0.082553529)
(14.571237 0.015981103 -0.071720412)
(14.481696 0.018921389 -0.058406534)
(14.401298 0.02061893 -0.042061357)
(14.335476 0.021642452 -0.023370136)
(16.798951 0.037438083 -0.15324727)
(16.39572 0.040421199 -0.2309216)
(16.217699 0.021198565 -0.21654398)
(16.037811 0.0080241913 -0.18531775)
(15.929006 -0.00017590489 -0.16393682)
(15.840615 -0.004463589 -0.1492156)
(15.768853 -0.00586368 -0.14040707)
(15.705306 -0.0052760391 -0.13530903)
(15.643811 -0.0041600342 -0.13316583)
(15.579516 -0.0022101031 -0.13215618)
(15.510533 -0.0016811315 -0.13209253)
(15.43568 -0.0026512323 -0.13281501)
(15.354044 -0.003237058 -0.13411285)
(15.266451 -0.0023700805 -0.13483402)
(15.17401 -0.00047243291 -0.13454866)
(15.076739 0.0019064509 -0.13330429)
(14.975136 0.0040477574 -0.13055739)
(14.870491 0.006252628 -0.12577054)
(14.762812 0.0084936789 -0.11863945)
(14.653098 0.0099943763 -0.10858808)
(14.543371 0.010884591 -0.095071792)
(14.437506 0.011614877 -0.07827044)
(14.34084 0.011882885 -0.057949122)
(14.258915 0.011845953 -0.034319084)
(16.935384 0.00058549221 -0.18836342)
(16.493902 -0.00081190335 -0.27822081)
(16.355588 -0.0011282755 -0.26358342)
(16.192405 -0.0011256712 -0.22304626)
(16.10161 -0.0014156413 -0.19834643)
(16.025278 -0.0017519561 -0.1822206)
(15.960464 -0.0013709477 -0.17418179)
(15.897519 -0.00026336888 -0.17152406)
(15.830174 0.00048697697 -0.17311558)
(15.755888 0.00073311154 -0.17555664)
(15.674595 0.00011015597 -0.1731883)
(15.585638 -0.0011279601 -0.17004379)
(15.487474 -0.0019249246 -0.16938659)
(15.381615 -0.0018237955 -0.16863694)
(15.270047 -0.0010494687 -0.16748374)
(15.153447 -6.9890462e-05 -0.16540168)
(15.033233 0.00077365572 -0.16176333)
(14.911466 0.0013627967 -0.15568117)
(14.788617 0.0014870148 -0.14683751)
(14.664969 0.0011600164 -0.13474873)
(14.542379 0.00060802076 -0.11876971)
(14.424746 0.0002035622 -0.098661141)
(14.317119 2.8280901e-05 -0.074269624)
(14.224999 -0.00014737795 -0.045646879)
(17.310602 -0.020093991 -0.21863734)
(16.825538 -0.010591873 -0.3116053)
(16.76674 0.0077738422 -0.29039236)
(16.634804 0.013166088 -0.2482877)
(16.575229 0.020331761 -0.22237207)
(16.516832 0.025090539 -0.20461995)
(16.460087 0.02908821 -0.1951668)
(16.396267 0.032846017 -0.19269347)
(16.317041 0.03583541 -0.19597742)
(16.220836 0.036605585 -0.20425658)
(16.110697 0.034284662 -0.20790973)
(15.991533 0.029144829 -0.20633006)
(15.86177 0.022906335 -0.20381249)
(15.722468 0.019021384 -0.20266076)
(15.57612 0.016196062 -0.20180405)
(15.424896 0.013886774 -0.19987718)
(15.271435 0.011798577 -0.19592162)
(15.118111 0.0096047067 -0.18836875)
(14.967025 0.0067578588 -0.1772528)
(14.819197 0.0037287481 -0.16273964)
(14.676508 0.00065627723 -0.14430017)
(14.541151 -0.0021842753 -0.12109151)
(14.416936 -0.0042957679 -0.09270994)
(14.308064 -0.0062190299 -0.058807905)
(17.52496 0.11487001 0.043887365)
(17.506164 0.11019681 0.071179382)
(17.473894 0.046620625 0.078154459)
(17.350636 -0.0071307048 0.073594328)
(17.237321 -0.036219647 0.071034183)
(17.116481 -0.056720283 0.068833451)
(17.001418 -0.068322717 0.066988226)
(16.894428 -0.074433666 0.066577744)
(16.790022 -0.075951811 0.067025582)
(16.68938 -0.07399685 0.068563628)
(16.588687 -0.069943354 0.070636183)
(16.4849 -0.063742812 0.072513021)
(16.378571 -0.056205421 0.074321162)
(16.267876 -0.047728808 0.075250948)
(16.156436 -0.039566041 0.075381522)
(16.044336 -0.031807848 0.074929096)
(15.934145 -0.023873037 0.073667756)
(15.822959 -0.01308869 0.071946917)
(15.703932 0.0017846994 0.068138075)
(15.584224 0.015345716 0.062414)
(15.471725 0.028393527 0.055347042)
(15.371452 0.039046799 0.046379414)
(15.29428 0.046005711 0.034031445)
(15.249258 0.052217781 0.019898246)
(16.944802 0.12077588 0.039629842)
(16.653908 0.13716764 0.063786759)
(16.47099 0.067863412 0.055677644)
(16.273926 0.014345469 0.047684019)
(16.118572 -0.016885579 0.043803685)
(15.977154 -0.037429571 0.041476089)
(15.851243 -0.049004094 0.039857964)
(15.736698 -0.055431089 0.038784765)
(15.631226 -0.057486411 0.037895444)
(15.531594 -0.056861491 0.037627096)
(15.43572 -0.054829792 0.037931273)
(15.341442 -0.051211875 0.038452749)
(15.247285 -0.046323566 0.038926145)
(15.154172 -0.040202739 0.038852907)
(15.064084 -0.033951045 0.038226127)
(14.978721 -0.027937799 0.037370618)
(14.899016 -0.021818046 0.036018766)
(14.824037 -0.014274978 0.03400206)
(14.753099 -0.0043537994 0.031164704)
(14.685236 0.0044195316 0.02748701)
(14.622043 0.013502338 0.023678902)
(14.567724 0.0214435 0.019608259)
(14.526312 0.026924972 0.014161637)
(14.505929 0.032386991 0.0077978618)
(16.688904 0.092425282 -0.00064657811)
(16.312749 0.10713074 -0.0013343833)
(16.090989 0.05347669 -0.0013932071)
(15.882551 0.010715288 -0.0012158451)
(15.737752 -0.016092319 -0.00069868437)
(15.619491 -0.03397778 3.9807219e-05)
(15.522964 -0.044454731 0.00047870106)
(15.442339 -0.050018098 0.00037381416)
(15.372819 -0.051752094 -2.7249484e-06)
(15.307621 -0.051285893 -0.00022510039)
(15.243154 -0.049510483 -0.00017876521)
(15.177017 -0.04639416 3.8666768e-05)
(15.106753 -0.042086346 0.00023361726)
(15.032615 -0.036458027 0.00028471383)
(14.956672 -0.030185021 0.0002319115)
(14.879766 -0.024061056 0.00017548903)
(14.802111 -0.017795143 0.00015115186)
(14.723488 -0.010664433 0.00012801156)
(14.64098 -0.0021656673 4.0183572e-05)
(14.556971 0.0051947116 -6.6646034e-05)
(14.474582 0.012359588 -6.2225801e-05)
(14.397049 0.018556126 4.5420468e-05)
(14.331646 0.02294104 0.00026551452)
(14.284404 0.026909805 0.00053950504)
(16.599185 0.063791983 -0.039632114)
(16.199268 0.074720235 -0.06224594)
(15.967909 0.037708275 -0.056942675)
(15.758091 0.0079965922 -0.048033576)
(15.622471 -0.011252528 -0.041442642)
(15.519627 -0.024191225 -0.03640468)
(15.4425 -0.031628562 -0.033071606)
(15.383824 -0.034970744 -0.031493554)
(15.336317 -0.035712465 -0.031401183)
(15.291283 -0.035281078 -0.031882433)
(15.244274 -0.034105561 -0.0324692)
(15.193017 -0.032192677 -0.033112169)
(15.134887 -0.029266781 -0.033718351)
(15.07012 -0.025061255 -0.034127758)
(15.000982 -0.020099358 -0.034184508)
(14.927239 -0.0147601 -0.034082973)
(14.848635 -0.009679408 -0.033460147)
(14.765793 -0.0042416149 -0.032278385)
(14.677697 0.0016350439 -0.030518682)
(14.586087 0.0066472543 -0.027908356)
(14.494219 0.01134268 -0.024303316)
(14.40568 0.015335854 -0.019691889)
(14.326573 0.018508949 -0.013836024)
(14.262723 0.020938075 -0.0068571173)
(16.591314 0.033434472 -0.077532114)
(16.186959 0.038112258 -0.12107876)
(15.958349 0.01907199 -0.11214317)
(15.751659 0.0042387986 -0.094076165)
(15.623185 -0.005719399 -0.081361946)
(15.529736 -0.012440821 -0.071767616)
(15.463262 -0.015807505 -0.065419973)
(15.414563 -0.016572053 -0.062103764)
(15.375462 -0.016367324 -0.061760346)
(15.337496 -0.016266399 -0.062597618)
(15.296416 -0.015938069 -0.063647739)
(15.249747 -0.015553877 -0.065059116)
(15.19498 -0.014418225 -0.066374424)
(15.132434 -0.012050626 -0.067266899)
(15.063467 -0.0088568149 -0.067704795)
(14.987168 -0.0053923442 -0.067505877)
(14.903479 -0.0022743127 -0.06641819)
(14.813519 0.00077963597 -0.064254578)
(14.717158 0.0037231859 -0.060862938)
(14.615869 0.005936495 -0.055769799)
(14.513372 0.0077373817 -0.04872361)
(14.414006 0.0092329218 -0.039936588)
(14.323225 0.010564229 -0.029032745)
(14.246489 0.011442304 -0.016466368)
(16.645338 0.00096466909 -0.11447466)
(16.241377 -0.00053191529 -0.17695394)
(16.027942 -0.00106779 -0.16473336)
(15.830147 -0.0011186326 -0.13830577)
(15.709011 -0.0015326782 -0.12052477)
(15.61961 -0.0020460991 -0.1069553)
(15.554378 -0.0015901867 -0.098023801)
(15.503016 -0.00020689007 -0.093093749)
(15.457833 0.0010554842 -0.092110392)
(15.411634 0.0010695584 -0.092309003)
(15.361862 -3.2682053e-05 -0.093844243)
(15.307331 -0.0016782063 -0.096102219)
(15.245743 -0.0025504085 -0.097820238)
(15.176784 -0.0022938376 -0.098976041)
(15.100719 -0.0011890595 -0.099670304)
(15.016555 4.6394269e-05 -0.099518291)
(14.924825 0.001002946 -0.098057483)
(14.827077 0.0015549507 -0.09495869)
(14.72331 0.0015596516 -0.089951585)
(14.614721 0.0011055323 -0.082540012)
(14.504829 0.00041406551 -0.072299919)
(14.398483 -6.6625629e-05 -0.059513366)
(14.301065 -0.00017430133 -0.043954639)
(14.217915 -0.00026088382 -0.0258935)
(16.796195 -0.035936007 -0.15320269)
(16.395849 -0.041370523 -0.2309042)
(16.22066 -0.023587241 -0.21676068)
(16.040724 -0.010526251 -0.18535715)
(15.930843 -0.0032342492 -0.16397562)
(15.84294 0.00046478643 -0.14906937)
(15.772473 0.0028631813 -0.14025924)
(15.709262 0.0049523331 -0.13518082)
(15.646302 0.0059775133 -0.13314264)
(15.579555 0.0041230824 -0.13215199)
(15.50862 0.001674301 -0.13192823)
(15.43303 -0.00013398026 -0.13247296)
(15.352058 -0.0012734703 -0.13369682)
(15.265619 -0.0017828262 -0.13450607)
(15.173834 -0.0018348216 -0.13444237)
(15.076685 -0.0019653515 -0.13338647)
(14.974881 -0.002277777 -0.13072337)
(14.869752 -0.0033582743 -0.12592966)
(14.761124 -0.0055100626 -0.11870178)
(14.649912 -0.0078147562 -0.10854798)
(14.53916 -0.0099127938 -0.094903997)
(14.432792 -0.011488173 -0.078033172)
(14.335604 -0.012092201 -0.057725906)
(14.252785 -0.012360085 -0.03416317)
(17.146471 -0.054757543 -0.17259535)
(16.789679 -0.052396117 -0.25474633)
(16.717593 -0.015117065 -0.24159056)
(16.58887 0.0047946095 -0.20946553)
(16.520064 0.018707196 -0.18827387)
(16.457228 0.027298994 -0.17386344)
(16.399879 0.033046656 -0.16671626)
(16.340255 0.037328514 -0.16458624)
(16.271396 0.040582337 -0.16632217)
(16.192649 0.038969188 -0.16960049)
(16.103022 0.033167916 -0.1697822)
(16.007408 0.027036288 -0.16888358)
(15.90388 0.021303309 -0.16942646)
(15.792461 0.016539158 -0.16993934)
(15.672488 0.012754277 -0.16986733)
(15.545844 0.0092715102 -0.16837113)
(15.413359 0.0060027518 -0.16457554)
(15.27739 0.0017744838 -0.15775028)
(15.138348 -0.0038902096 -0.14781306)
(14.99934 -0.0096060535 -0.13476531)
(14.860498 -0.014876366 -0.11771427)
(14.72561 -0.019604253 -0.096884042)
(14.598233 -0.022789313 -0.072101063)
(14.483381 -0.025415221 -0.04293574)
(17.311428 0.1015825 0.084673245)
(17.169181 0.099806522 0.13542746)
(17.108766 0.040471585 0.13523624)
(16.982811 -0.0048573275 0.12246681)
(16.885617 -0.030315591 0.11362454)
(16.792589 -0.047199833 0.10721006)
(16.70565 -0.056675112 0.10317583)
(16.625187 -0.061057496 0.10124271)
(16.546819 -0.061510744 0.10115576)
(16.465686 -0.058972864 0.10219307)
(16.381538 -0.054408939 0.10389025)
(16.290634 -0.048508981 0.10547373)
(16.194514 -0.041506582 0.10700032)
(16.090339 -0.033750885 0.10760601)
(15.981339 -0.026252261 0.10724087)
(15.86866 -0.019335089 0.10584988)
(15.753934 -0.012445697 0.10313483)
(15.637049 -0.0037392919 0.09900609)
(15.514217 0.0074327006 0.093021036)
(15.388685 0.017642794 0.084780235)
(15.265084 0.028191698 0.073600809)
(15.147984 0.037738517 0.059987361)
(15.045814 0.043371634 0.042639579)
(14.968435 0.048459657 0.022819592)
(16.820646 0.095717328 0.077180293)
(16.47754 0.11038709 0.12176348)
(16.282527 0.054760979 0.11089201)
(16.085567 0.013249661 0.094906629)
(15.944872 -0.011314462 0.085251551)
(15.825885 -0.02680297 0.078533539)
(15.7257 -0.035278353 0.074134175)
(15.638291 -0.039313332 0.071482477)
(15.557952 -0.040344767 0.070279913)
(15.479304 -0.039497249 0.070091894)
(15.401156 -0.037684063 0.070732895)
(15.322048 -0.034904132 0.071651406)
(15.24038 -0.030851074 0.072436273)
(15.156124 -0.025669528 0.072471394)
(15.071444 -0.020298555 0.071736051)
(14.987314 -0.015073511 0.070603334)
(14.904286 -0.0099880187 0.06852089)
(14.822778 -0.0040335653 0.065337951)
(14.742383 0.0032728718 0.060888181)
(14.662804 0.009674256 0.054965636)
(14.584925 0.016078817 0.0473812)
(14.513237 0.02157966 0.038322513)
(14.451283 0.024784522 0.026587888)
(14.406714 0.02755879 0.013102092)
(16.597483 0.063503421 0.038650973)
(16.196619 0.074113497 0.060229524)
(15.964596 0.036981065 0.054812002)
(15.75293 0.0072812671 0.046179646)
(15.615502 -0.011731556 0.040476998)
(15.512767 -0.024312061 0.036593084)
(15.436993 -0.031446703 0.033961196)
(15.37919 -0.034752518 0.032220805)
(15.331597 -0.035676812 0.031520313)
(15.286451 -0.03546551 0.031656787)
(15.240015 -0.034324294 0.032322972)
(15.189404 -0.032204877 0.033256166)
(15.131748 -0.028982215 0.034038734)
(15.067258 -0.024547191 0.034385418)
(14.997831 -0.01956079 0.034315832)
(14.923601 -0.01438001 0.034166493)
(14.844748 -0.0094732279 0.033585737)
(14.762125 -0.0041716147 0.032425486)
(14.674662 0.0016052673 0.030548976)
(14.583622 0.0065819457 0.02775576)
(14.492055 0.011314117 0.024129105)
(14.403816 0.015311152 0.019699897)
(14.325228 0.018546651 0.01427107)
(14.262169 0.021059695 0.0077614662)
(16.51326 0.032326848 -0.00041763323)
(16.094144 0.037638367 -0.00085231814)
(15.850847 0.018702671 -0.0007631621)
(15.635793 0.0030258308 -0.00056343834)
(15.504128 -0.0074647947 -0.000241507)
(15.414371 -0.014528439 0.00020452504)
(15.356995 -0.01818789 0.00040713377)
(15.320884 -0.019272838 0.00024113473)
(15.29538 -0.019133178 4.896634e-05)
(15.271307 -0.019074623 2.8882994e-05)
(15.243607 -0.019062893 8.9377944e-05)
(15.208902 -0.018667525 0.00013429626)
(15.164445 -0.017376711 0.00010331465)
(15.110541 -0.01476785 -2.6492031e-05)
(15.048884 -0.0113283 -9.0961407e-05)
(14.978821 -0.0077071629 -5.704347e-05)
(14.900608 -0.0044389691 3.5198752e-05)
(14.815586 -0.0012077894 9.5988791e-05)
(14.723552 0.0018517481 8.2789662e-05)
(14.626062 0.004191985 8.986345e-06)
(14.526543 0.0062746925 -1.539464e-05)
(14.429299 0.0080467706 8.1806121e-05)
(14.340075 0.010012028 0.00025646031)
(14.264174 0.01152485 0.00044316102)
(16.513631 0.00072607606 -0.039445611)
(16.095624 -0.0005436953 -0.061954084)
(15.85389 -0.0011052752 -0.057068732)
(15.639816 -0.0014185093 -0.047356011)
(15.510137 -0.0018734377 -0.040326956)
(15.423546 -0.0021580391 -0.0351746)
(15.370248 -0.001429846 -0.031865084)
(15.338035 6.3356224e-05 -0.030256013)
(15.315406 0.0011663514 -0.030191519)
(15.293314 0.0009259398 -0.03073033)
(15.267322 -0.00033661529 -0.031413365)
(15.234421 -0.0018604964 -0.032306256)
(15.191845 -0.002751642 -0.033198047)
(15.139573 -0.0024118624 -0.033866846)
(15.078466 -0.0011096665 -0.034212167)
(15.007424 0.00021958821 -0.034140607)
(14.927099 0.0011771982 -0.033597604)
(14.838961 0.0016665255 -0.032493342)
(14.742875 0.001651467 -0.030803972)
(14.640555 0.00096789377 -0.028175165)
(14.536045 9.6081993e-05 -0.024648376)
(14.43403 -0.00043392207 -0.020097969)
(14.339899 -0.00043182596 -0.014615945)
(14.258658 -0.00036469039 -0.0083131767)
(16.58929 -0.031740777 -0.077371661)
(16.186197 -0.038820742 -0.12101182)
(15.958726 -0.021183914 -0.11201593)
(15.750581 -0.0069077821 -0.093727602)
(15.619852 0.0021524967 -0.081069431)
(15.526162 0.0082115683 -0.071637931)
(15.460796 0.012757525 -0.0654845)
(15.41223 0.01631501 -0.062218592)
(15.371155 0.018304232 -0.061766952)
(15.330637 0.018027692 -0.062396323)
(15.288299 0.015416339 -0.063356942)
(15.241905 0.012060629 -0.064810859)
(15.188877 0.0091512255 -0.066152054)
(15.128533 0.0073714079 -0.067135059)
(15.060756 0.0065141859 -0.0677207)
(14.984719 0.0056589715 -0.067594903)
(14.90121 0.0044956666 -0.066532349)
(14.811322 0.0024347337 -0.064309545)
(14.714398 -0.00071908376 -0.060794062)
(14.611989 -0.0040060979 -0.05561566)
(14.508789 -0.0073175592 -0.048459752)
(14.409364 -0.0098073509 -0.039599263)
(14.318601 -0.011272216 -0.02881067)
(14.241523 -0.012208209 -0.016370661)
(16.774755 -0.066815634 -0.11474775)
(16.405092 -0.078912723 -0.17993452)
(16.216031 -0.042265828 -0.16717391)
(16.026289 -0.015537602 -0.14213797)
(15.900648 0.00042624276 -0.12595201)
(15.799458 0.010218746 -0.11425454)
(15.717899 0.016325291 -0.10682821)
(15.64582 0.020180115 -0.10269378)
(15.576242 0.02185286 -0.1015734)
(15.505094 0.020494294 -0.10138611)
(15.432846 0.01746262 -0.10189778)
(15.359267 0.014250346 -0.10292252)
(15.283581 0.010855013 -0.10365768)
(15.204428 0.0082637366 -0.10407048)
(15.12117 0.0064878556 -0.10400091)
(15.034251 0.0046761295 -0.10300286)
(14.944288 0.0025753812 -0.10064679)
(14.851778 -0.00082822192 -0.096589332)
(14.755952 -0.0058690611 -0.090603789)
(14.65918 -0.010756741 -0.082324885)
(14.563804 -0.015465194 -0.071241605)
(14.474043 -0.019180809 -0.057836408)
(14.393604 -0.021252015 -0.04158841)
(14.327161 -0.022548521 -0.023173796)
(17.177437 -0.079743055 -0.12876437)
(16.930998 -0.080478002 -0.19869826)
(16.862586 -0.030616093 -0.19189282)
(16.740395 0.0032179419 -0.16985545)
(16.661178 0.022875965 -0.15424546)
(16.587855 0.035734604 -0.14358197)
(16.521881 0.043648072 -0.13784073)
(16.455268 0.047740736 -0.13514856)
(16.38477 0.048646231 -0.13529513)
(16.304816 0.045950809 -0.13663791)
(16.218987 0.0400068 -0.13714128)
(16.129259 0.033355102 -0.13747347)
(16.036179 0.026977637 -0.1383572)
(15.936421 0.02127756 -0.13913363)
(15.827892 0.016469215 -0.13923439)
(15.71235 0.011958494 -0.13794851)
(15.590387 0.0073410338 -0.13465034)
(15.463525 0.00099130001 -0.12887262)
(15.331428 -0.0075910273 -0.12046863)
(15.197923 -0.016164817 -0.10924508)
(15.064693 -0.02446094 -0.094334545)
(14.936368 -0.031708649 -0.076617938)
(14.817298 -0.036056695 -0.055792228)
(14.714252 -0.039840187 -0.031807599)
(17.185769 0.08134795 0.12848384)
(16.934224 0.079895575 0.19845242)
(16.857665 0.028100613 0.19192125)
(16.728725 -0.0066059599 0.17047341)
(16.644067 -0.026606547 0.15501504)
(16.566239 -0.039082034 0.14432067)
(16.497762 -0.046032251 0.13845815)
(16.432866 -0.04855278 0.1353492)
(16.368389 -0.048441412 0.13503469)
(16.296362 -0.046002889 0.13628482)
(16.217238 -0.041355284 0.13738074)
(16.130071 -0.035928623 0.13846389)
(16.035122 -0.029773909 0.13974629)
(15.931412 -0.023004325 0.14022839)