/*--------------------------------*- C++ -*----------------------------------*\
| =========                 |                                                 |
| \\      /  F ield         | OpenFOAM: The Open Source CFD Toolbox           |
|  \\    /   O peration     | Version:  4.1                                   |
|   \\  /    A nd           | Web:      www.OpenFOAM.org                      |
|    \\/     M anipulation  |                                                 |
\*---------------------------------------------------------------------------*/
FoamFile
{
    version     2.0;
    format      ascii;
    class       volScalarField;
    location    "0.000290";
    object      nut;
}
// * * * * * * * * * * * * * * * * * * * * * * * * * * * * * * * * * * * * * //

dimensions      [0 2 -1 0 0 0 0];

internalField   nonuniform List<scalar> 
3072
(
0.0002511383
0.00025976947
0.0002684062
0.00027901333
0.00028904908
0.00030044476
0.00031197752
0.00032340003
0.00033558146
0.00034566724
0.00035659857
0.00036671953
0.00037722244
0.00038758777
0.00039687344
0.0004065517
0.00040854109
0.00040989309
0.00040871258
0.00040496277
0.0004071295
0.00042011847
0.00048893992
0.00071770939
0.00033960331
0.0003494653
0.00035953453
0.00037208091
0.00038389963
0.00039753589
0.00041124824
0.00042493356
0.00043945262
0.00045170609
0.00046490199
0.000477073
0.00048985135
0.0005023949
0.0005139438
0.00052602811
0.00053211385
0.00053732083
0.00054042142
0.00054071494
0.00054637748
0.00056325187
0.00062979896
0.0007837574
0.00040763895
0.00041779561
0.00042864365
0.0004421462
0.00045527663
0.00047046524
0.00048583517
0.00050141051
0.00051775322
0.00053230792
0.00054766967
0.00056204327
0.00057702545
0.00059161055
0.00060531407
0.00061917126
0.00062905783
0.00063625179
0.00064223338
0.00064432122
0.00065081964
0.00066770177
0.00071989496
0.00081518112
0.00046076567
0.00046979737
0.00048020459
0.00049327459
0.00050673964
0.00052235995
0.00053836902
0.00055505547
0.00057240046
0.00058870679
0.00060552792
0.00062190749
0.00063852292
0.00065485422
0.00067065063
0.00068611783
0.00070019694
0.00070960435
0.00071855645
0.00072405784
0.00073130218
0.00074661466
0.00078200858
0.00083361644
0.00050245482
0.00050921154
0.0005182775
0.00052992485
0.00054295323
0.00055824774
0.00057426305
0.00059156605
0.00060944967
0.00062717816
0.00064509757
0.00066314026
0.00068095308
0.0006989565
0.00071662378
0.00073366138
0.00075031252
0.00076378406
0.00077573913
0.00078585564
0.0007948024
0.00080767695
0.00082791359
0.00084627184
0.00052995287
0.00053400548
0.00054107789
0.00055104338
0.00056316801
0.00057774008
0.00059343081
0.00061091139
0.00062893194
0.00064754369
0.0006663498
0.00068564442
0.00070469581
0.00072395547
0.00074296571
0.00076175279
0.00078015168
0.00079799839
0.00081395341
0.00082855305
0.00084151874
0.00085335721
0.0008622507
0.00085686529
0.00052631125
0.00052886727
0.00053515366
0.00054447455
0.00055625872
0.00057016315
0.00058549808
0.00060232799
0.00062000696
0.00063799051
0.00065665664
0.00067606193
0.00069573621
0.00071573213
0.00073593507
0.00075633906
0.00077689567
0.00079785485
0.00081923816
0.000840498
0.00086003694
0.00087576955
0.0008806983
0.00086524992
0.00044706403
0.00045196438
0.00046055225
0.00047273235
0.00048781196
0.00050481721
0.00052250071
0.00053985569
0.00055635567
0.00057255175
0.00058915032
0.00060675923
0.00062605605
0.00064687233
0.00066893913
0.00069203746
0.0007163073
0.00074209287
0.00076953739
0.00079837709
0.00082791056
0.00085500294
0.00087107959
0.00086816119
0.00033954097
0.00034936282
0.00035939882
0.00037191165
0.00038369477
0.00039729247
0.00041095483
0.00042455423
0.00043892432
0.00045096371
0.00046412118
0.00047628921
0.00048910091
0.00050168899
0.00051329392
0.00052544339
0.00053154175
0.00053691637
0.00054017077
0.00054052827
0.00054624734
0.00056311745
0.00062971097
0.00078377021
0.00048960287
0.00049875143
0.000508452
0.00052098798
0.00053282018
0.00054679926
0.00056077027
0.00057472604
0.00058945076
0.0006020208
0.00061565986
0.00062829939
0.00064168575
0.00065489408
0.00066739856
0.00068065548
0.00069024297
0.00070034487
0.00070895237
0.00071611764
0.00072630043
0.00074216909
0.00078225759
0.00083719432
0.00058827617
0.00059686887
0.00060658194
0.00061898441
0.00063142054
0.00064590406
0.00066062282
0.00067547191
0.0006909351
0.00070489633
0.00071951158
0.00073318744
0.00074726457
0.00076086855
0.00077367942
0.00078653968
0.00079696731
0.00080679732
0.00081526647
0.00082164392
0.0008282781
0.00083531333
0.0008478912
0.00085576592
0.00064211404
0.00064971485
0.000659068
0.00067086482
0.0006835268
0.00069807855
0.000713179
0.00072871805
0.0007447027
0.00075988547
0.00077530689
0.00079012257
0.00080485427
0.00081897918
0.00083230383
0.00084500391
0.00085635048
0.00086587726
0.00087405358
0.00087956261
0.00088260174
0.00088218205
0.00087746677
0.00086311199
0.00067184774
0.00067790905
0.00068641632
0.00069719919
0.00070954359
0.00072376335
0.000738851
0.00075478057
0.00077106585
0.00078710618
0.00080312365
0.00081885327
0.00083408507
0.00084882829
0.00086273646
0.00087561031
0.00088742348
0.0008974151
0.0009056113
0.00091115511
0.00091246423
0.00090758508
0.00089332436
0.00086716858
0.00068349496
0.00068754783
0.00069448909
0.00070383533
0.00071522866
0.00072863065
0.00074318979
0.0007588928
0.00077489659
0.00079111822
0.00080741571
0.00082367552
0.0008395129
0.00085482848
0.00086937083
0.00088299054
0.00089560871
0.00090694112
0.00091667284
0.00092372506
0.00092618109
0.00092069226
0.00090262952
0.00087018043
0.00065344499
0.00065504101
0.00065972226
0.00066711359
0.00067693179
0.00068894134
0.00070245593
0.00071731686
0.00073298297
0.00074916667
0.00076586114
0.0007829122
0.00079988219
0.00081664213
0.0008330433
0.00084913992
0.00086488937
0.00088013627
0.00089457834
0.00090726764
0.00091608564
0.00091692908
0.00090352932
0.00087178431
0.00052641625
0.00052879731
0.00053498606
0.00054420382
0.00055597459
0.00057000676
0.00058524278
0.00060176184
0.00061920189
0.00063725227
0.00065624407
0.00067585483
0.00069575359
0.00071595445
0.00073624731
0.00075663045
0.00077735476
0.00079848306
0.00081989208
0.00084085017
0.0008602768
0.00087642854
0.00088144226
0.00086553984
0.00040747343
0.00041755508
0.00042834678
0.00044179428
0.00045485362
0.0004699402
0.0004851658
0.00050050815
0.0005164899
0.00053056788
0.00054584899
0.00056024949
0.00057533461
0.00059004556
0.00060387427
0.00061782354
0.00062774775
0.00063528313
0.00064160128
0.00064385722
0.00065053
0.00066747493
0.00071977755
0.00081519834
0.00058824545
0.0005967787
0.00060645258
0.00061882902
0.0006312221
0.00064563168
0.00066021027
0.00067485332
0.00069002539
0.0007036569
0.00071820156
0.00073191129
0.00074605387
0.0007597276
0.00077260171
0.00078552259
0.00079602272
0.00080605446
0.00081472121
0.00082128644
0.00082811715
0.00083524384
0.00084787755
0.00085577441
0.00069144657
0.00070008361
0.00071033934
0.000722866
0.00073609885
0.00075102114
0.00076632854
0.00078172439
0.00079737263
0.00081198707
0.00082677706
0.00084063618
0.00085422823
0.00086685213
0.00087824391
0.00088876888
0.00089700902
0.00090399503
0.00090904246
0.00091130622
0.00091068454
0.00090444549
0.00089093602
0.00086695485
0.0007313669
0.00074052027
0.00075163082
0.00076469716
0.00077892645
0.00079457949
0.00081079958
0.000827224
0.00084367372
0.00085939218
0.00087474647
0.00088914678
0.00090271689
0.000915016
0.00092580538
0.00093509646
0.00094229702
0.00094740671
0.00095014981
0.00094937563
0.00094372306
0.00092985798
0.00090476194
0.00086997539
0.00074453415
0.00075349067
0.00076471592
0.00077779699
0.00079230871
0.0008081512
0.00082471573
0.0008416717
0.00085853067
0.00087480035
0.00089047553
0.00090531955
0.00091902234
0.00093139343
0.00094211041
0.00095102881
0.0009579843
0.00096267951
0.00096461139
0.00096289441
0.00095546017
0.0009387947
0.00090965883
0.00087111119
0.0007395836
0.00074693304
0.00075673411
0.00076846366
0.00078184591
0.00079665845
0.00081236617
0.00082870038
0.0008450491
0.00086110321
0.00087683643
0.00089202652
0.00090623472
0.00091921898
0.00093072758
0.0009406091
0.00094873998
0.0009548362
0.0009584947
0.00095870068
0.00095333488
0.00093855466
0.00091054583
0.00087166853
0.00068361933
0.00068769402
0.00069463179
0.00070394302
0.00071529312
0.00072857816
0.00074299247
0.00075845919
0.0007743638
0.00079056902
0.00080701015
0.00082358294
0.00083957824
0.00085493785
0.00086947263
0.00088307337
0.00089568711
0.00090702091
0.00091647673
0.0009235071
0.00092609246
0.00092080846
0.0009029054
0.00087032753
0.00053001711
0.00053400118
0.00054097422
0.0005508214
0.0005628558
0.00057733208
0.00059283453
0.00060996973
0.00062773779
0.00064636792
0.00066546188
0.00068520853
0.00070459013
0.00072405371
0.00074315581
0.00076196647
0.00078043729
0.00079822392
0.00081356832
0.00082832277
0.00084126951
0.00085360057
0.0008628272
0.00085726069
0.00046055906
0.00046948987
0.00047982472
0.00049281767
0.00050619671
0.00052168801
0.00053748438
0.00055378697
0.00057061217
0.00058628371
0.0006029674
0.00061944437
0.00063622505
0.00065272411
0.00066864129
0.00068416915
0.00069827115
0.00070808139
0.00071745479
0.0007232337
0.00073078903
0.00074635184
0.00078192785
0.00083363879
0.00064207896
0.0006496034
0.0006588748
0.0006706282
0.00068324633
0.00069769359
0.00071253671
0.00072766179
0.00074315961
0.0007578566
0.00077316115
0.00078804294
0.00080288522
0.0008171335
0.00083054407
0.00084331161
0.0008547903
0.00086462559
0.00087313228
0.00087892861
0.00088229988
0.0008821207
0.00087751358
0.00086314616
0.00073138235
0.000740491
0.00075156116
0.00076461801
0.00077885511
0.00079446653
0.00081053051
0.00082671881
0.00084294763
0.00085852251
0.00087387196
0.00088831898
0.00090196247
0.00091433644
0.00092517397
0.00093450646
0.00094177835
0.00094700868
0.00094987214
0.00094920635
0.00094368992
0.00092990549
0.0009048133
0.0008699936
0.00075755034
0.00076832977
0.00078120238
0.00079577422
0.00081160128
0.00082852108
0.00084593468
0.00086344285
0.00088073565
0.00089727679
0.00091305088
0.00092763703
0.00094090814
0.00095252409
0.00096220617
0.00096982507
0.00097515805
0.00097800837
0.00097795887
0.00097384813
0.00096375846
0.00094399883
0.00091170266
0.00087140653
0.00076104689
0.0007719699
0.00078509941
0.0007998955
0.00081596863
0.00083304554
0.00085069308
0.00086850869
0.00088600594
0.00090273108
0.00091859319
0.00093332581
0.00094661723
0.00095818316
0.00096770462
0.00097504371
0.00098007483
0.00098256143
0.00098205649
0.00097749598
0.00096674606
0.00094610709
0.00091278101
0.00087165659
0.00074463252
0.00075361727
0.00076487685
0.0007779693
0.00079239689
0.00080802101
0.00082439146
0.00084117459
0.00085788381
0.00087411956
0.00088985008
0.00090485738
0.00091876858
0.00093127546
0.00094202368
0.00095087933
0.00095774821
0.00096220123
0.00096411895
0.00096239278
0.00095512411
0.00093872117
0.00090975709
0.00087118771
0.00067208504
0.00067821174
0.00068673333
0.00069743737
0.00070957394
0.00072343763
0.00073818566
0.00075372744
0.00076975575
0.00078578742
0.00080193855
0.00081798065
0.00083349926
0.00084841003
0.0008623714
0.00087516652
0.00088693331
0.0008965774
0.00090472733
0.0009101355
0.00091172334
0.00090733823
0.00089348613
0.00086736059
0.00050247591
0.00050922536
0.00051821585
0.00052972764
0.00054258481
0.00055765399
0.00057339465
0.00059026696
0.00060787893
0.00062564985
0.00064377791
0.00066222115
0.00068035045
0.00069852694
0.00071632245
0.00073335387
0.0007500124
0.00076279461
0.00077458989
0.00078437198
0.00079364544
0.00080718331
0.00082805994
0.00084663935
0.00050228135
0.00050895094
0.00051791196
0.0005294634
0.00054243058
0.00055761549
0.00057338988
0.00059024418
0.00060758947
0.00062468474
0.00064232666
0.00066039444
0.00067831321
0.00069641659
0.00071409928
0.00073110814
0.00074789155
0.00076166412
0.00077410456
0.00078460937
0.00079401347
0.00080732566
0.00082787617
0.00084632089
0.00067179693
0.00067780217
0.00068623039
0.00069697661
0.0007093279
0.00072346446
0.00073824581
0.00075368524
0.00076949323
0.0007850899
0.00080090374
0.00081660808
0.00083187197
0.00084666282
0.00086057417
0.00087346124
0.00088544503
0.00089577229
0.00090436628
0.00091028072
0.00091204724
0.00090752427
0.00089341261
0.00086721661
0.0007444573
0.00075338774
0.00076457898
0.00077767309
0.00079224728
0.0008080591
0.00082439991
0.00084102781
0.00085766682
0.00087387261
0.00088953635
0.00090437876
0.0009181036
0.00093050513
0.00094122109
0.00095015146
0.0009572035
0.00096206459
0.00096415548
0.0009626177
0.00095537242
0.00093886039
0.00090975268
0.00087113945
0.00076095991
0.00077188042
0.00078499594
0.00079979441
0.00081589974
0.00083296382
0.00085052754
0.0008682543
0.00088575526
0.00090256658
0.0009184796
0.00093322108
0.00094652338
0.00095806628
0.00096753595
0.00097485786
0.00097991921
0.00098244936
0.00098196648
0.00097744098
0.00096673784
0.00094613088
0.00091280668
0.00087166286
0.00075755899
0.00076839985
0.00078132159
0.00079590802
0.00081164333
0.00082834149
0.00084564163
0.00086315907
0.00088047691
0.00089704864
0.00091284153
0.00092750956
0.00094088553
0.00095254193
0.00096216229
0.00096969035
0.00097479195
0.00097754933
0.00097734336
0.00097325908
0.00096329366
0.00094375828
0.00091170405
0.00087144303
0.00073150382
0.00074077344
0.00075194402
0.00076496231
0.00077895917
0.00079418136
0.00081009104
0.00082632146
0.00084266684
0.00085840381
0.00087379782
0.00088833637
0.00090209125
0.00091453128
0.00092529644
0.00093444774
0.00094134462
0.00094630482
0.00094881376
0.00094803394
0.00094262476
0.00092926287
0.00090471875
0.0008700665
0.00064228693
0.00065001909
0.00065938848
0.00067102794
0.00068335365
0.00069740404
0.00071205298
0.00072713459
0.00074283907
0.00075803234
0.00077349492
0.00078845976
0.00080337588
0.00081762847
0.00083095768
0.00084353814
0.00085452728
0.00086384685
0.00087177656
0.00087713321
0.00088052722
0.00088088844
0.00087717614
0.00086326668
0.00046071004
0.00046977505
0.00048011094
0.00049302526
0.00050628265
0.00052163548
0.00053733494
0.00055357635
0.00057065343
0.00058700808
0.00060391295
0.00062048618
0.00063727614
0.00065365715
0.00066951118
0.00068497436
0.00069851618
0.00070764278
0.00071632877
0.0007213849
0.00072900297
0.00074497157
0.00078147382
0.00083388208
0.0005298336
0.00053380124
0.00054076914
0.00055064794
0.00056275508
0.00057728423
0.00059275187
0.00060984136
0.00062742601
0.00064553561
0.00066384067
0.00068280658
0.00070161893
0.00072071666
0.00073948922
0.00075811461
0.00077664388
0.00079482899
0.00081133987
0.00082667064
0.0008402714
0.00085282301
0.00086225834
0.00085693008
0.00068343653
0.00068747103
0.00069436415
0.00070370533
0.00071516699
0.00072853865
0.00074281012
0.00075814411
0.00077385635
0.00078976176
0.00080571091
0.00082161594
0.00083712099
0.00085213239
0.00086642017
0.00087994573
0.00089270298
0.00090442122
0.00091469863
0.00092233962
0.00092545558
0.00092050643
0.00090268384
0.00087021042
0.00073939052
0.00074679144
0.00075663066
0.0007684131
0.00078186767
0.00079665544
0.00081220529
0.00082831955
0.00084459648
0.0008606664
0.00087627112
0.00089121439
0.00090516607
0.00091788665
0.00092916217
0.00093896197
0.00094718895
0.0009534892
0.00095740028
0.00095794651
0.00095293723
0.00093845389
0.00091059565
0.00087169036
0.00074444996
0.00075347842
0.00076477187
0.00077788777
0.00079235168
0.00080797038
0.00082431896
0.00084110687
0.00085792322
0.00087431703
0.00089006977
0.00090491102
0.00091862673
0.00093090052
0.00094143518
0.00095018877
0.00095704479
0.00096155024
0.00096351612
0.00096193165
0.00095483497
0.00093860186
0.00090976168
0.00087119773
0.00073146588
0.0007407464
0.00075192945
0.00076494995
0.00077895523
0.00079417401
0.00081011458
0.00082640309
0.00084282113
0.00085862044
0.00087401389
0.00088845624
0.00090208993
0.00091438026
0.00092502942
0.00093407369
0.00094096903
0.000945904
0.00094839276
0.00094772256
0.00094244828
0.00092917106
0.00090469548
0.00087006645
0.00069159625
0.00070045362
0.0007107632
0.00072315149
0.00073603649
0.00075041872
0.0007653915
0.00078058572
0.000796214
0.00081102944
0.00082580271
0.00083958986
0.00085315698
0.00086579882
0.00087705088
0.00088750195
0.00089510848
0.00090174176
0.00090622038
0.000908529
0.00090834193
0.00090286863
0.00089046191
0.0008670399
0.00058836734
0.00059712555
0.00060681716
0.00061899976
0.00063105437
0.00064500815
0.00065926423
0.00067362534
0.00068883382
0.00070290716
0.00071742695
0.00073093758
0.0007449181
0.00075850638
0.00077118604
0.00078385867
0.00079378193
0.00080324951
0.00081100827
0.00081740441
0.00082451315
0.00083259058
0.00084680457
0.00085583597
0.00040756303
0.00041773766
0.00042850291
0.00044184762
0.00045479802
0.00046976167
0.00048485198
0.0005000065
0.00051611979
0.00053075086
0.00054604235
0.00056034456
0.00057523605
0.00058974617
0.00060339857
0.00061720972
0.00062659527
0.00063345044
0.00063862171
0.00064074456
0.00064762813
0.00066513877
0.00071852855
0.00081528922
0.00052618312
0.00052866135
0.00053489915
0.00054419242
0.00055600557
0.00056996847
0.00058517084
0.0006017205
0.00061910191
0.00063683807
0.00065500932
0.00067365539
0.00069247266
0.00071174058
0.00073125787
0.00075121278
0.00077189253
0.00079332814
0.00081542303
0.000837655
0.00085817231
0.00087496249
0.00088056717
0.00086525584
0.00065336765
0.00065503637
0.0006597716
0.00066720065
0.00067706491
0.00068905875
0.00070247223
0.00071714072
0.00073261359
0.00074854982
0.00076474736
0.00078105883
0.00079717264
0.00081314719
0.0008289957
0.00084481942
0.00086065821
0.00087627259
0.00089130617
0.00090480437
0.00091453743
0.00091620499
0.00090333593
0.00087175117
0.00068345215
0.00068762028
0.00069466514
0.00070405777
0.00071543155
0.00072867484
0.00074308069
0.00075860796
0.00077456189
0.00079083555
0.00080701646
0.00082299579
0.00083830319
0.00085300664
0.00086703757
0.00088039094
0.00089297642
0.00090446041
0.00091430112
0.0009217736
0.00092495073
0.00092027535
0.00090277052
0.00087030235
0.00067197012
0.00067817307
0.00068678111
0.00069754386
0.00070969833
0.00072355222
0.00073838406
0.00075406555
0.00077021875
0.00078634777
0.00080241024
0.0008180729
0.00083309482
0.00084750922
0.00086108268
0.00087363576
0.00088523927
0.00089492041
0.00090316013
0.00090889506
0.00091088355
0.0009069148
0.00089339155
0.0008673506
0.00064234317
0.00065011838
0.0006595424
0.00067121476
0.00068352971
0.00069753606
0.00071224995
0.00072745099
0.00074322953
0.00075845744
0.00077387867
0.00078860986
0.00080318893
0.00081711095
0.00083021855
0.00084257961
0.00085347045
0.00086271204
0.00087066845
0.00087631712
0.0008800581
0.00088068883
0.00087715123
0.00086327662
0.00058849111
0.00059727982
0.00060698487
0.00061918008
0.00063121633
0.0006451197
0.00065938375
0.00067378502
0.00068900095
0.00070305282
0.00071754655
0.0007309688
0.00074478917
0.00075823266
0.0007708035
0.00078335871
0.00079323917
0.00080263133
0.0008104362
0.00081703614
0.00082438349
0.00083258605
0.00084685325
0.0008558513
0.00048972597
0.0004990132
0.00050865252
0.0005209846
0.00053252025
0.00054608994
0.00055966431
0.00057313471
0.00058764892
0.0006004771
0.00061393901
0.00062618436
0.00063918219
0.00065211006
0.00066432304
0.00067736861
0.00068626363
0.00069572177
0.00070350169
0.00071070978
0.00072147308
0.00073849611
0.00078051873
0.0008371643
0.00033961015
0.00034946943
0.00035944601
0.00037187641
0.00038359815
0.00039710754
0.00041060843
0.00042393139
0.00043826882
0.00045070024
0.00046378312
0.000475703
0.00048820718
0.00050050689
0.00051186843
0.00052382843
0.00052950158
0.00053424563
0.00053664599
0.00053703192
0.00054310648
0.00056063529
0.00062821996
0.00078371317
0.00044702615
0.00045194618
0.0004605574
0.00047276012
0.00048781678
0.00050488347
0.00052252614
0.00053987733
0.00055625592
0.00057229728
0.00058854618
0.00060549463
0.00062373314
0.00064331839
0.00066410458
0.00068649269
0.00071063851
0.00073671174
0.00076479086
0.00079461319
0.00082536252
0.00085364348
0.0008705848
0.00086804825
0.00052641316
0.00052892849
0.00053522595
0.00054449554
0.00055631094
0.00057029353
0.00058553246
0.00060213723
0.00061962065
0.00063753075
0.00065606239
0.00067483758
0.00069359986
0.0007127344
0.00073216252
0.00075217567
0.0007727006
0.0007939019
0.00081580458
0.00083781357
0.00085819852
0.00087524309
0.00088090214
0.00086539039
0.000530001
0.0005341074
0.00054122092
0.00055115477
0.00056320005
0.00057765692
0.00059323985
0.000610531
0.00062838847
0.00064703348
0.0006658257
0.00068488992
0.00070341131
0.00072207526
0.00074055684
0.0007590253
0.00077729431
0.00079515285
0.00081087551
0.00082612068
0.00083978224
0.00085280439
0.00086255244
0.0008571493
0.00050254653
0.00050937776
0.00051847955
0.00053006403
0.00054291027
0.00055794756
0.00057378161
0.00059081756
0.00060851042
0.0006263285
0.00064436083
0.00066236841
0.00067989986
0.00069753166
0.00071491126
0.00073161071
0.00074798211
0.00076085784
0.00077277678
0.00078291597
0.0007927104
0.0008067399
0.00082797198
0.00084660451
0.00046087079
0.00046998777
0.00048040104
0.00049336259
0.00050658983
0.00052187681
0.00053760959
0.00055394702
0.00057105184
0.00058742352
0.00060430844
0.00062062941
0.0006370219
0.00065307058
0.00066869201
0.00068389185
0.00069736083
0.00070641331
0.00071523523
0.00072053596
0.00072856695
0.00074492539
0.00078159718
0.00083391475
0.00040774147
0.00041795684
0.00042875539
0.00044212271
0.00045504561
0.00046994293
0.0004850211
0.00050020426
0.00051629685
0.00053091086
0.00054621074
0.00056038746
0.00057506969
0.00058939744
0.00060292673
0.00061658586
0.00062596609
0.00063275207
0.00063790793
0.00064031414
0.00064750991
0.00066527771
0.00071878503
0.00081532445
0.00033969536
0.00034957209
0.00035955936
0.00037199623
0.00038370431
0.00039718695
0.00041067888
0.00042400888
0.00043833103
0.00045074623
0.00046383261
0.00047572372
0.0004881616
0.00050040004
0.00051170317
0.00052360699
0.00052931514
0.00053404627
0.00053638224
0.00053688207
0.00054309122
0.00056073275
0.00062839138
0.00078373581
0.00025117922
0.00025980337
0.00026838295
0.00027895125
0.00028899175
0.00030039052
0.00031186002
0.00032311564
0.0003352826
0.00034564202
0.00035656415
0.00036654113
0.00037684559
0.0003869979
0.00039611638
0.00040564415
0.00040748237
0.00040841839
0.0004065867
0.00040293153
0.00040539517
0.00041874296
0.00048800722
0.00071745501
0.00045233493
0.00026134542
0.00022452554
0.00021659077
0.00021322788
0.00021283051
0.00021174794
0.00021027834
0.00020862277
0.00020469244
0.00020128708
0.0001975093
0.00019387528
0.00019048233
0.00018692125
0.00018381357
0.00017984207
0.00017624938
0.00017260734
0.00016903642
0.000166019
0.00016272364
0.00016025308
0.00015770588
0.00053875251
0.0003218467
0.0002780316
0.00026752822
0.00026292172
0.00026182291
0.00025972246
0.0002572555
0.00025439608
0.00024919137
0.00024459987
0.0002396836
0.00023493472
0.00023052435
0.00022589795
0.00022178607
0.00021671292
0.00021204667
0.00020734109
0.00020269937
0.00019875268
0.00019448332
0.00019121008
0.00018794298
0.00060016645
0.00038461747
0.00033554365
0.00032165088
0.00031528309
0.0003127301
0.00030855892
0.00030445185
0.00029919572
0.00029244753
0.00028635637
0.00028014435
0.00027411278
0.0002685864
0.00026287127
0.00025771392
0.00025172217
0.00024614791
0.00024064621
0.00023523048
0.00023068891
0.00022588569
0.00022220266
0.0002187401
0.00065742606
0.0004559075
0.00040166257
0.00038291119
0.00037386929
0.00036790783
0.00036055272
0.00035406879
0.000344926
0.0003360984
0.00032784985
0.00031992055
0.00031228381
0.00030520249
0.00029825464
0.00029178847
0.00028482417
0.00027825722
0.00027206577
0.00026601044
0.00026097533
0.00025601835
0.00025226053
0.00024908835
0.00069718446
0.00054096754
0.00048150187
0.00045579439
0.0004416908
0.00042892266
0.00041683496
0.00040439057
0.00039135347
0.00037961733
0.00036852843
0.00035810714
0.00034855338
0.00033938423
0.00033081292
0.00032254084
0.00031433434
0.00030647827
0.00029950762
0.00029280388
0.00028730196
0.000282484
0.00027892485
0.00027646718
0.00072464154
0.0006341947
0.00057192745
0.00053777986
0.00051180589
0.00049031178
0.00046835889
0.00044960552
0.00043270091
0.00041774388
0.00040354093
0.0003908138
0.0003786537
0.00036735019
0.00035659583
0.00034642878
0.00033663378
0.00032729428
0.00031904477
0.00031144711
0.00030526372
0.00030036159
0.00029705778
0.00029539291
0.00071178425
0.00067070684
0.00062289073
0.00057982303
0.00054283463
0.00051191823
0.00048628509
0.0004650062
0.00044687788
0.00043079769
0.00041590858
0.00040227729
0.00038926162
0.0003770322
0.00036554196
0.00035462664
0.00034401408
0.000333168
0.00032273701
0.00031346607
0.00030577194
0.00029981614
0.00029562966
0.00029347343
0.00059813657
0.00057068615
0.00054154932
0.00050923372
0.00047841879
0.00045158591
0.00042905488
0.00041025321
0.00039438653
0.00038058861
0.00036822068
0.00035721756
0.00034756859
0.00033923886
0.00033188791
0.00032516549
0.00031777478
0.00030724766
0.0002952525
0.00028385523
0.00027393285
0.00026585938
0.00025965906
0.0002552952
7.5986876e-05
8.3681676e-05
8.4419703e-05
8.4170071e-05
8.3894034e-05
8.371744e-05
8.3633734e-05
8.3622879e-05
8.3676315e-05
8.3735679e-05
8.379788e-05
8.3858219e-05
8.3919743e-05
8.3985557e-05
8.4056468e-05
8.4131918e-05
8.4207754e-05
8.4287639e-05
8.4373666e-05
8.4470004e-05
8.4577709e-05
8.4699522e-05
8.4841554e-05
8.5010816e-05
8.3770525e-05
9.1770546e-05
9.2855298e-05
9.2841872e-05
9.2719971e-05
9.2657526e-05
9.2670782e-05
9.2748856e-05
9.2883941e-05
9.3025931e-05
9.3166199e-05
9.3297942e-05
9.3420299e-05
9.3533296e-05
9.36357e-05
9.3726502e-05
9.3802889e-05
9.3869984e-05
9.3932544e-05
9.399514e-05
9.4060301e-05
9.4132906e-05
9.4222399e-05
9.4339522e-05
8.8367371e-05
9.6990543e-05
9.8526514e-05
9.8856183e-05
9.9004415e-05
9.9176125e-05
9.9404641e-05
9.9685346e-05
0.00010000429
0.00010031985
0.00010061876
0.00010089433
0.00010114113
0.00010135662
0.00010153681
0.00010167987
0.0001017841
0.00010185373
0.00010189432
0.00010191071
0.00010190738
0.0001018911
0.00010187391
0.00010186944
8.9483928e-05
9.9012178e-05
0.00010105966
0.00010178166
0.00010225726
0.00010273586
0.00010325564
0.00010381322
0.00010438512
0.00010493907
0.00010545183
0.00010591654
0.00010632359
0.00010666723
0.00010694226
0.0001071446
0.00010727333
0.00010733129
0.00010732482
0.00010725883
0.00010714079
0.00010698071
0.00010679351
0.00010659635
8.7219218e-05
9.7756776e-05
0.00010027557
0.00010135805
0.00010215198
0.00010294475
0.00010377664
0.00010463498
0.00010548442
0.00010629857
0.00010704583
0.00010771627
0.00010829593
0.00010877503
0.0001091451
0.00010939908
0.00010953721
0.00010956165
0.00010948058
0.00010930043
0.00010903131
0.00010868696
0.00010828695
0.00010785383
8.2028465e-05
9.3529467e-05
9.6388749e-05
9.7706297e-05
9.8721602e-05
9.9747736e-05
0.00010083513
0.00010193791
0.00010302037
0.00010405387
0.00010500143
0.00010584828
0.00010657338
0.00010716407
0.0001076073
0.00010789403
0.00010802363
0.00010799826
0.00010782701
0.00010751944
0.00010709
0.00010655665
0.00010594385
0.00010528137
7.4620271e-05
8.6925473e-05
8.9920918e-05
9.1308738e-05
9.2404438e-05
9.3530205e-05
9.4715704e-05
9.5924269e-05
9.7113712e-05
9.8248722e-05
9.9292825e-05
0.00010022363
0.0001010179
0.00010165823
0.00010212808
0.00010241579
0.00010251739
0.00010243452
0.00010217739
0.00010176087
0.00010120251
0.0001005226
9.9750469e-05
9.8921272e-05
6.5683882e-05
7.8475833e-05
8.1382603e-05
8.2655623e-05
8.3664526e-05
8.4733796e-05
8.5878885e-05
8.7056583e-05
8.822086e-05
8.9335191e-05
9.0364394e-05
9.1283643e-05
9.2069312e-05
9.2699388e-05
9.3152608e-05
9.3413845e-05
9.3476733e-05
9.3343108e-05
9.3027748e-05
9.2550606e-05
9.1932879e-05
9.1197246e-05
9.0371054e-05
8.9485376e-05
0.00059815535
0.00057069348
0.00054156337
0.00050923084
0.00047839748
0.00045154231
0.00042903803
0.00041022616
0.00039438513
0.00038058394
0.0003681664
0.00035712157
0.00034742588
0.00033905568
0.00033169311
0.00032495083
0.00031757905
0.00030705579
0.00029506948
0.00028371333
0.00027382309
0.00026580926
0.00025966251
0.00025535144
0.00071191913
0.00067089709
0.00062310362
0.00058003037
0.00054296926
0.00051201227
0.00048634219
0.00046511301
0.00044701419
0.00043087675
0.00041585847
0.00040208551
0.00038891558
0.00037649619
0.00036492656
0.00035397562
0.00034342716
0.0003326619
0.00032230113
0.00031309886
0.00030552884
0.00029968145
0.00029556497
0.00029341912
0.00072484766
0.00063430569
0.0005720206
0.00053789668
0.00051199057
0.00049047224
0.00046856088
0.00044987113
0.00043300643
0.00041802445
0.0004037008
0.00039078345
0.00037838987
0.00036681506
0.00035592492
0.0003457226
0.00033597231
0.00032673045
0.00031858364
0.00031103824
0.00030495141
0.00030014532
0.00029691911
0.00029528906
0.00069721019
0.00054089512
0.00048151261
0.00045584556
0.00044181188
0.00042910814
0.00041711234
0.00040469857
0.00039168938
0.00037993516
0.00036874008
0.00035817118
0.00034841879
0.00033897847
0.00033024307
0.00032190481
0.00031371636
0.0003059492
0.00029904507
0.00029240592
0.00028698788
0.00028225354
0.0002787574
0.00027633605
0.00065736946
0.00045568716
0.00040153569
0.00038287012
0.00037389881
0.00036802163
0.00036075774
0.00035432624
0.00034517131
0.00033629132
0.0003279649
0.00031994522
0.00031218913
0.00030492718
0.00029784248
0.00029127891
0.00028430522
0.00027780561
0.00027166065
0.00026565588
0.00026068027
0.00025578959
0.00025208394
0.00024893996
0.00060013724
0.00038441464
0.00033536199
0.0003215281
0.00031521059
0.00031273682
0.00030864287
0.00030457019
0.00029929741
0.0002924964
0.00028636003
0.00028011517
0.00027403827
0.00026844186
0.00026263797
0.00025736744
0.00025134663
0.00024581979
0.00024034418
0.00023495072
0.00023043865
0.00022568489
0.00022204742
0.00021861318
0.00053866719
0.000321649
0.00027782271
0.00026733955
0.00026276001
0.00026171521
0.00025969235
0.00025725623
0.00025436847
0.0002491545
0.00024457253
0.0002396757
0.00023492877
0.00023050809
0.00022583275
0.00022159962
0.0002164884
0.00021185438
0.00020715968
0.00020251891
0.00019857957
0.00019434036
0.00019110545
0.00018785903
0.00045217057
0.00026122035
0.00022437693
0.00021644347
0.00021310071
0.00021274169
0.00021173722
0.00021028668
0.00020861446