/*--------------------------------*- C++ -*----------------------------------*\
  =========                 |
  \\      /  F ield         | OpenFOAM: The Open Source CFD Toolbox
   \\    /   O peration     | Website:  https://openfoam.org
    \\  /    A nd           | Version:  8
     \\/     M anipulation  |
\*---------------------------------------------------------------------------*/
FoamFile
{
    version     2.0;
    format      ascii;
    class       volScalarField;
    location    "0.0025000";
    object      p;
}
// * * * * * * * * * * * * * * * * * * * * * * * * * * * * * * * * * * * * * //

dimensions      [0 2 -2 0 0 0 0];

internalField   nonuniform List<scalar> 
600
(
1098448.50329602
3324952.42284001
5626250.02210687
7975695.76744782
10376610.2198304
12833159.7217415
15347476.8770109
17921508.4540886
20557247.8261924
23256728.7829193
26022165.1828598
28855936.8767011
31760522.2146883
34738477.7194804
37792570.6504759
40925709.7089084
44140841.3105724
47441165.5119066
50830048.5201197
54310966.0767797
57887590.1571237
61563846.0240299
65343854.3741354
69231857.5473325
73232460.2886187
77350544.4358446
81591081.8600565
85959496.2159097
90461547.3119109
95103203.5566225
99890812.6701276
104831219.388718
109931666.102459
115199612.455991
120643277.743814
126271431.741065
132093030.010163
138118023.875882
144356736.953646
150821772.084906
157520987.772497
164469020.883745
171679508.522407
179167139.177575
186947262.687054
195036853.886885
203454141.0396
212217857.012612
221349056.688897
230870735.391991
240805846.643978
251180766.31977
262024168.580593
273365579.61838
285237412.932425
297675790.675164
310719139.849964
324407385.445731
338786260.461865
353906036.226517
369816098.610667
386574669.237146
404245219.389634
422892935.027661
442588924.129664
463413036.239033
485450530.57496
508791731.25636
533523508.403393
559732627.786605
587513719.089167
616980612.893215
648242182.160908
681388655.75915
716505845.51912
753650685.609455
792813634.138914
833939219.030434
876766178.764224
920886278.863935
965260470.564714
1008926144.3347
1047483910.31017
1079671085.26532
1086437608.49582
1072632214.08959
938147130.44866
856552107.690861
754260311.897067
665906178.712232
576280620.321868
493179618.3426
413734170.789917
339956528.766014
271426036.421911
208870426.454364
152235685.674497
101452306.932417
56247419.2757054
16977514.8647003
1110607.34620112
3338094.06695688
5645623.20351368
7998186.24314392
10400526.4340399
12857780.559568
15372512.1328599
17946778.1722894
20582648.7281891
23282236.5266033
26047776.605869
28881641.2493032
31786308.5246481
34764363.7802134
37818555.8756045
40951769.8522033
44166995.8018878
47467413.1552694
50856371.6938678
54337363.7772173
57914071.1962488
61590401.1101601
65370457.6101423
69258529.4431907
73259197.2624259
77377302.0326578
81617884.6010904
85986340.202406
90488395.3552542
95130049.0539182
99917667.1843644
104858062.684849
109958440.305998
115226357.361273
120669980.801702
126297999.612131
132119519.38749
138144336.28669
144383021.609818
150847007.19431
157546287.985472
164494112.638738
171704371.802841
179191637.290781
186971427.38559
195060616.171493
203477297.461205
212240487.795105
221371127.324851
230891866.769975
240826206.350023
251200284.379287
262042499.646111
273382676.07429
285253302.366826
297690206.616938
310731673.211541
324418215.663502
338795263.987107
353912279.098433
369819993.389765
386575981.219966
404243184.58766
422887321.222459
442579795.610883
463399880.465507
485432742.965798
508767752.434938
533492508.494794
559694782.402198
587470358.051281
616930546.941607
648183516.796855
681321896.754341
716429885.407173
753564193.884718
792717632.134337
833832250.462234
876645298.785462
920759112.987712
965123376.559813
1008778062.28911
1047339725.0821
1079543161.48936
1086355337.73913
1072682901.84658
938391795.359596
856807578.049711
754502331.308378
666118433.979936
576477108.179656
493350847.194342
413885153.961368
340088228.246563
271535693.439112
208961393.257592
152312551.793758
101511418.708503
56285528.0129207
16968984.7146688
1111225.62671216
3341620.90253349
5649459.89022988
8001912.61678092
10404448.0447695
12861925.9356107
15376801.4081535
17951116.0654099
20586961.3955255
23286490.758032
26051958.271985
28885736.1552019
31790306.1734982
34768266.2358978
37822356.7238673
40955453.9053944
44170563.9606781
47470859.3813688
50859680.4867726
54340527.3528012
57917086.4152246
61593254.0608058
65373129.4380325
69261019.6898733
73261493.3853182
77379375.726893
81619734.2367124
85987953.7098043
90489742.5251836
95131113.9145457
99918443.0180127
104858522.451098
109958545.52038
115226109.42023
120669354.633333
126296939.267087
132118018.310369
138142358.452278
144380480.103592
150843504.481078
157542240.717683
164489512.837294
171699133.050308
179185670.606814
186964705.321715
195053060.994037
203468781.754341
212231004.059876
221360597.390138
230880083.988132
240813178.554128
251185928.675643
262026592.568121
273365125.940799
285234056.418517
297669047.347178
310708350.75175
324392722.328296
338767405.401161
353881593.444378
369786498.434905
386539485.608676
404203222.25848
422843656.820096
442532328.355134
463348267.942316
485376367.045838
508705701.1492
533424251.472407
559620545.881429
587390627.543158
616844852.855028
648091136.354547
681222783.407402
716323808.142901
753451126.374772
792598075.840823
833706650.547183
876514775.059331
920627726.438026
964992957.0016
1008658473.45575
1047237801.11607
1079495199.46528
1086375630.67645
1072955147.77378
938642672.696196
857079201.418238
754751194.783644
666344864.505298
576677774.663184
493529017.660381
414039810.947416
340220388.658124
271648015.266814
209054181.983429
152385631.408445
101569654.061552
56332882.7072664
17005567.7343966
1106162.42840611
3330480.37508143
5625030.52926294
7972503.0429033
10373555.7297586
12830439.7805298
15344915.1547315
17918840.0184587
20554256.0368156
23253320.8427152
26018298.9762056
28851565.9900909
31755607.6089553
34733026.7742887
37786560.7180214
40919082.8037541
44133603.6483838
47433293.492909
50821488.103931
54301689.9709428
57877586.8158951
61553069.7467947
65332236.3194051
69219399.1200587
73219121.2795389
77336222.401059
81575777.7956543
85943168.5097685
90444094.4931183
95084573.6396232
99870984.1113202
104810108.199051
109909135.928308
115175677.115262
120617860.417414
126244333.954767
132064262.846087
138087420.169818
144324251.020601
150785834.361968
157483224.338655
164429152.064017
171637333.348341
179122358.27288
186899821.853694
194986526.621245
203400500.399285
212160921.394293
221288624.180394
230806091.649543
240737107.188869
251107688.183451
261946034.128435
273282150.100543
285148578.934945
297580910.677091
310617398.306676
324298882.765334
338670518.827961
353781439.422123
369682999.314383
386432514.308313
404092545.224136
422729139.846898
442413896.205692
463225779.227068
485249552.922781
508574255.717058
533288085.410937
559479991.541663
587246089.324646
616696482.512985
647939152.89274
681067750.037299
716166572.782383
753293016.316659
792440950.297961
833553179.518821
876369236.310112
920496447.43883
964883910.25649
1008588478.98568
1047223764.47347
1079588509.78954
1086616115.80197
1073542880.0365
938891644.817752
857321843.272198
754985214.750605
666548248.964327
576858645.559673
493685245.910872
414173218.583573
340331367.641966
271739311.372226
209126610.947574
152440282.674549
101610457.960533
56364561.5455053
17025711.886121
1076710.92218399
3286104.51969711
5563068.67122453
7904394.5081734
10303676.8567193
12759679.6423611
15273375.5245246
17846477.1844091
20481004.6789915
23179129.8496092
25943131.684544
28775392.3484251
31678401.057586
34654763.1028736
37707214.0959018
40838625.6002122
44052009.3715656
47350534.0026363
50737532.6916193
54216508.0992094
57791147.6270069
61465339.4498783
65243179.5010803
69128981.6559134
73127305.9002566
77242968.4897057
81481046.831825
85846919.2916114
90346281.3707104
94985151.533998
99769907.7528224
104707327.033077
109804596.492968
115069329.520603
120509648.599634
126134197.257857
131952143.322636
137973266.796559
144207990.52851
150667366.313618
157362530.54775
164306161.042631
171511946.833545
178994492.528945
186769396.324536
194853451.772457
203264678.189853
212022267.305693
221147039.375256
230661462.486522
240589342.636373
250956682.421861
261791664.24398
273124309.893005
284987162.949588
297415793.618509
310448459.405153
324126026.607399
338493625.986999
353600388.625031
369497715.475386
386242907.808545
403898527.12356
422530671.853182
442210962.499568
463018391.035688
485037781.976331
508358278.812696
533068221.374569
559256693.996716
587019873.391461
616467999.179914
647709396.491354
680838104.656958
715938910.493735
753069951.54629
792226029.075303
833351340.754146
876187604.352939
920345091.130633
964776668.061208
1008549662.88391
1047282379.09279
1079814705.80034
1087077369.65124
1074475354.20465
939156470.281653
857552848.065547
755220839.763361
666742544.276699
577032147.793349
493829956.009582
414294084.977835
340428254.056475
271814989.674058
209182747.01054
152479427.815316
101635509.367643
56379841.7480734
17031308.6889247
1023299.92241722
3210693.47732641
5471453.8849947
7808019.76396261
10206025.6274904
12661233.8049794
15174072.9771512
17746204.4883408
20379673.2541014
23076680.9689874
25839524.5893752
28670594.0524824
31572381.0289923
34547491.0677269
37598658.8383601
40728754.7222767
43940789.6045067
47237930.7033897
50623509.8998309
54101028.7002124
57674173.1362503
61346829.8712425
65123093.2747165
69007275.902905
73003935.9324562
77117887.7744008
81354207.3960096
85718270.9868976
90215772.1533343
94852727.453384
99635512.4970042
104570902.104389
109666080.953711
114928660.060926
120366759.183152
125989020.434341
131804610.213722
137823312.061528
144055558.349335
150512390.514097
157204922.884838
164145807.635223
171348749.339787
178828359.32607
186600231.669803
194681157.901405
203089155.423389
211843409.102619
220964736.843918
230475610.398658
240399825.117387
250763378.007715
261594462.086035
272923092.655416
284781802.307811
297206174.346981
310234475.172173
323907550.76525
338270544.904919
353372632.207211
369265182.713416
386005505.363996
403656229.974085
422283465.870316
441958825.209501
462761375.885583
484776090.137384
508092305.698111
532798451.333714
558983569.828728
586743850.010957
616189900.839234
647430527.390435
680560100.546774
715663981.270607
752801191.816538
791967445.601812
833108827.1238
875968972.418455
920162205.819287
964643868.495178
1008497320.23705
1047336019.08637
1080065694.59702
1087571399.57253
1075541579.62762
939389381.746639
857780918.449457
755442552.31078
666927198.159891
577193830.353877
493963575.994397
414403460.982186
340514037.967
271879565.070419
209228278.643369
152508802.061837
101651412.00416
56386074.2032871
17031164.7756979
)
;

boundaryField
{
    dieWall
    {
        type            zeroGradient;
    }
    outlet
    {
        type            fixedValue;
        value           uniform 0;
    }
    Wire
    {
        type            zeroGradient;
    }
    inlet
    {
        type            fixedValue;
        value           uniform 0;
    }
    back
    {
        type            wedge;
    }
    front
    {
        type            wedge;
    }
}


// ************************************************************************* //
