/*--------------------------------*- C++ -*----------------------------------*\
  =========                 |
  \\      /  F ield         | OpenFOAM: The Open Source CFD Toolbox
   \\    /   O peration     | Website:  https://openfoam.org
    \\  /    A nd           | Version:  8
     \\/     M anipulation  |
\*---------------------------------------------------------------------------*/
FoamFile
{
    version     2.0;
    format      ascii;
    class       volVectorField;
    location    "0.0025000";
    object      U;
}
// * * * * * * * * * * * * * * * * * * * * * * * * * * * * * * * * * * * * * //

dimensions      [0 1 -1 0 0 0 0];

internalField   nonuniform List<vector> 
600
(
(0.687639071691499 0.000543369535909365 4.76963298963334e-18)
(0.688944903775188 0.000349645650156497 -6.11404990761341e-18)
(0.689354254815276 0.000273742610703421 -4.88091734143999e-18)
(0.689783464277996 0.000303798490308713 -4.51249050585955e-19)
(0.690110372668653 0.000325387889832935 2.02467895486073e-17)
(0.690368034669383 0.000336255670238673 1.4561533934053e-17)
(0.690602347967525 0.000341238238744586 7.67950273633204e-18)
(0.690833131929374 0.000343790659895169 -1.20565270964267e-18)
(0.691069109810875 0.000345818071112831 1.16346265288123e-19)
(0.691312929592587 0.000347404537704641 -2.12636334137806e-17)
(0.691563886162017 0.000348629519196842 -4.60375545958321e-18)
(0.691821833940886 0.000349938526409345 2.65763355413535e-18)
(0.692087590461669 0.00035128771893646 -1.11563494176542e-18)
(0.692360885828786 0.000352213331504934 1.84479450621021e-19)
(0.692641123870229 0.000353095614118492 -4.41689113440738e-17)
(0.692929541729875 0.000354243745418285 -5.03273504421035e-17)
(0.693226479178297 0.000355041494820619 7.95850565548084e-17)
(0.693531250031544 0.000355728422893949 5.44967838849866e-18)
(0.693844556845454 0.000356692933704905 2.6151116569538e-17)
(0.694167296085669 0.000357584861838407 4.72047096505366e-17)
(0.694499287395789 0.000358204479169756 4.23350929006615e-17)
(0.69484055663076 0.000358997450422251 9.28647599055815e-17)
(0.695192540575196 0.000360055567082747 9.7929218405342e-17)
(0.69555548652446 0.000360699368019331 9.24881091177993e-17)
(0.695928830479438 0.000361386193720469 1.41713892123025e-17)
(0.696314360676079 0.000362592526740658 1.53730836124218e-17)
(0.696712894905098 0.000363368171419039 -7.18521599800025e-17)
(0.697123797000495 0.000364041660658884 -8.3381845724614e-17)
(0.69754822857321 0.000365256640212199 6.02805276521468e-17)
(0.697987646714899 0.000366423671922192 2.08503779486301e-18)
(0.698441997068905 0.00036716701484091 6.48291567849774e-17)
(0.698911601241741 0.000368237639022464 4.92600369588902e-17)
(0.699398977194969 0.000369839314800096 -7.81654413421921e-17)
(0.699904790367435 0.000370630028904247 -1.72115156703252e-17)
(0.700428455495184 0.000371516821584439 -7.38327227712954e-18)
(0.700972396118468 0.000373410523146136 -2.00643991213246e-17)
(0.701538211917851 0.000374826268416298 -2.97888989717341e-17)
(0.702125355534957 0.000376787490105474 -2.79548382610274e-17)
(0.702733778891245 0.000383028616726856 -3.65185219547691e-17)
(0.70338092217917 0.000399579219155258 -3.70201344094285e-17)
(0.704064963508098 0.000401356213497357 -1.21857049144253e-16)
(0.704771528759698 0.000399504465842866 3.23647147854198e-17)
(0.705506028202244 0.000399022376042566 1.37964919210468e-17)
(0.706273951591583 0.000400016905644299 -2.059531096453e-17)
(0.707076977948778 0.000400520402125796 -2.10562444983091e-16)
(0.707917086428299 0.000401974282295387 -4.11558250994092e-17)
(0.70879914235443 0.000405415815399346 2.53071109489525e-18)
(0.709725487024921 0.000407209189236831 -5.09239547136549e-17)
(0.710697551089002 0.000409447961724389 -1.97039499822213e-17)
(0.711722420403086 0.000415261820264866 -8.86501257850457e-18)
(0.712804414751942 0.00041842223429614 -9.75569720338918e-17)
(0.713945097920485 0.000421251681593109 -7.87718472662023e-18)
(0.715151310085274 0.000427462158528693 -3.62658768889919e-17)
(0.716430281381531 0.000432957538014629 -4.84182678222322e-17)
(0.71778577173644 0.000436367437290358 1.11341523086617e-17)
(0.719224102121134 0.000442035349044239 -1.41965599776744e-17)
(0.720755931822966 0.00045007690255933 8.25360487993786e-17)
(0.722387997493849 0.000453683509347442 2.06014097241614e-17)
(0.724127796243408 0.000457678603500439 -1.35655343333542e-16)
(0.725989035061363 0.000468103232115405 -2.22177119706114e-17)
(0.727982629066779 0.000471994758757953 4.78768900224867e-17)
(0.730119365133339 0.000474277414540746 1.06617449024481e-16)
(0.732415873625454 0.000481230184903944 -5.11142354552139e-17)
(0.734888246154252 0.000486191464740221 -3.22560577123382e-17)
(0.737551941869058 0.000485061832786533 -4.39081976471798e-17)
(0.740429011272626 0.000483717784107808 -1.43593156229123e-17)
(0.743547284285298 0.00048761198873799 -8.25767148658005e-17)
(0.746944379714779 0.000502814682402603 -7.23176744395917e-18)
(0.750660563159547 0.000517860331874326 5.97584933556941e-18)
(0.754727378368527 0.000515397604116262 3.94892683448721e-17)
(0.759169019698181 0.000489247009479729 1.0861365839198e-16)
(0.764023393726772 0.000461995546898232 2.86572537521747e-17)
(0.769342801010535 0.000438985082559601 7.17183430591877e-17)
(0.775196104832615 0.00040413179666723 5.71562162887736e-18)
(0.781663446174043 0.000364447521156216 -1.29072686888443e-18)
(0.788840757291277 0.000318669879190373 9.2000436843535e-18)
(0.796823379384323 0.000257370645656423 -7.60804387699243e-18)
(0.805791564918038 0.000191693074194731 -1.01738858955317e-17)
(0.815831822955414 0.000124818983349752 1.41802834488963e-17)
(0.827335896168101 1.11907175930743e-05 2.17846084482917e-17)
(0.840216392848628 -7.46900417421372e-05 -5.93751277035961e-17)
(0.855713032709694 -0.000188732200769328 2.16849962142166e-18)
(0.872522811403969 -0.000272874661194388 -2.29431868478021e-17)
(0.895356933130898 -0.000456848452097977 -9.4463558210557e-18)
(0.917365040670114 -0.000373174240244276 -2.13867293748336e-17)
(0.956940417031499 -0.000550197887834366 1.0932318529467e-17)
(0.970611943762549 0.000286363789860333 2.04293300107345e-17)
(0.961709855049783 -3.7182842932715e-05 -9.47950567797367e-18)
(0.962156225296349 2.87146047097594e-05 -3.61742522449861e-17)
(0.957963437284778 -5.86363012336274e-05 7.90035136629668e-18)
(0.95556285219286 -8.01903965853156e-05 6.39207078868178e-18)
(0.952170949549747 -0.000118608194154149 -6.00400648914077e-18)
(0.949128803624255 -0.000141992898000085 -7.74006672301314e-18)
(0.945918266497083 -0.000166155456528402 -1.46055777782287e-18)
(0.942834033372703 -0.000178122916493571 -4.59435681048078e-18)
(0.939820711926637 -0.000185486676193228 1.18225318404433e-18)
(0.936996097957994 -0.000187660575608473 9.55865239179033e-19)
(0.934391010059578 -0.000182171533239876 -3.39122053771679e-19)
(0.931999692280946 -0.000168851695677771 5.68733246500278e-19)
(0.930307103664542 -5.75764795077103e-05 7.14730328690896e-20)
(0.228503368988619 0.00256157223018406 9.30811963835872e-18)
(0.232016265409956 0.003092093573346 3.80967040154107e-18)
(0.233135152459206 0.00340546654516943 7.89690697498122e-19)
(0.234026906625223 0.00367576304447009 6.19433564815302e-18)
(0.234649617027352 0.00383994931857124 3.45479813506724e-17)
(0.235120996758281 0.00391962140998106 2.65067559204095e-17)
(0.235538777630163 0.00395160030628006 7.3260629125279e-18)
(0.23594709444747 0.00396240970660173 -8.3124136292423e-18)
(0.236363249293308 0.00396574524879251 -3.85485745183043e-18)
(0.236793276875073 0.00396647764974071 2.398331387872e-17)
(0.237238047758532 0.00396631390623031 6.50009685870319e-18)
(0.237697897419142 0.00396614835583016 1.30801075170706e-17)
(0.238173695716673 0.00396596966774413 -5.5096657870906e-18)
(0.238665494071295 0.00396517655739387 6.3046658046174e-18)
(0.239173270341004 0.00396418000951843 -4.65961204884722e-17)
(0.239698295355997 0.00396336491779585 3.39313330717677e-18)
(0.240241287917612 0.00396195794565919 1.10257572355587e-16)
(0.240802266856108 0.0039602626980284 1.66388526355788e-16)
(0.24138232173341 0.00395875984826547 8.97769374134236e-17)
(0.241982737049012 0.00395702313352188 1.47028550106606e-16)
(0.242603893925 0.00395478920698741 1.02415105102502e-16)
(0.243246546775569 0.00395261084361873 1.21147812915651e-16)
(0.243912504377821 0.0039506374037068 1.25403043405241e-16)
(0.244602605359535 0.0039479495790164 1.07544140042004e-16)
(0.245317301588576 0.00394513494323819 2.54216178830743e-18)
(0.24605879865359 0.00394286678635724 -9.51572442045402e-17)
(0.246828587901166 0.00393981650133799 -2.45815544955875e-16)
(0.247627101466415 0.00393643077006894 -1.14358408191124e-16)
(0.248456373334867 0.00393359223494847 -7.63740349631623e-17)
(0.249318760792996 0.00393047681489703 -2.88209741989892e-17)
(0.250215182277786 0.0039265302786781 2.10693187492629e-16)
(0.251147226044416 0.00392277735222684 1.5138381522855e-16)
(0.252118350527268 0.00391955606182057 2.63998577378738e-17)
(0.253130263219292 0.00391485042266477 -2.63460014639847e-17)
(0.254184032465404 0.0039099712411706 -1.6107281965342e-17)
(0.255283416105066 0.00390641084913189 -5.92464229244131e-17)
(0.256431916913601 0.00390204374720708 -8.99070434632334e-17)
(0.257629892449265 0.00389923642085974 -7.96013725410919e-17)
(0.258883494528308 0.00390285951572071 -1.08627704459198e-16)
(0.26021544967459 0.00392287371059398 -1.0143906576323e-16)
(0.26162442737183 0.00391787463020762 -1.35231843506632e-16)
(0.263093802579617 0.0039057333345271 -1.22277748662393e-16)
(0.264627776409095 0.00389429630903489 3.86199520114099e-17)
(0.26623663958437 0.00388476808987154 -4.24271150534935e-17)
(0.267925111355527 0.0038740483385129 -1.90686491767865e-16)
(0.269698842491269 0.003864356604439 -9.27893723114619e-17)
(0.271567347597401 0.00385738862000126 2.23882460221478e-17)
(0.273536984881164 0.00384700280214869 -1.57139330962245e-16)
(0.275613289274397 0.00383651876451841 -2.78772546066733e-16)
(0.277809659018716 0.0038312892353399 -2.35970311750258e-16)
(0.280135954830008 0.00382051725165626 -9.68820475630823e-17)
(0.282598356156718 0.0038080238299787 -1.33314959897098e-17)
(0.28521167434289 0.00380015547396968 9.53337245574102e-17)
(0.287991794613187 0.00378970449102029 -1.46976384369083e-16)
(0.290948754614968 0.00377405457944551 4.13733241333167e-17)
(0.294098145594446 0.00376063705247881 -5.05320107624762e-17)
(0.297463559959485 0.00374959928013045 7.44194897829759e-17)
(0.301061195549302 0.00372855927490595 6.30075408187459e-17)
(0.30490853682433 0.00370578546015267 -7.57870260116379e-17)
(0.30903859399879 0.00369207167081561 -5.99421963124429e-17)
(0.313478228059884 0.00366359949958922 1.44569138997408e-16)
(0.318249950286754 0.00362881111528643 3.31274657945382e-16)
(0.323392912353256 0.00359890758670061 -1.66052498360391e-16)
(0.328949960613418 0.00356121993800677 -9.37453691691231e-17)
(0.33495688393405 0.00350765666072772 -1.31349753715016e-16)
(0.341459155259016 0.00344868668993722 -3.70794100787654e-17)
(0.348523501652544 0.00339428491281049 -2.52049148703689e-16)
(0.35624514892457 0.00335464781271149 -1.92699520636233e-17)
(0.36472574666837 0.00330678778100981 1.65176829273361e-17)
(0.374037092793594 0.00321611834493936 1.16677492072709e-16)
(0.384223598542788 0.00307030375005037 9.96491798002755e-17)
(0.395369849036074 0.00291092554349183 7.99079850990729e-17)
(0.407618335744374 0.0027468965700207 2.16557926919415e-16)
(0.421130650555543 0.00254651533323598 1.58764500223234e-17)
(0.436081788474366 0.00231973292604615 -4.30914613507251e-18)
(0.452707065199453 0.00206139205370934 2.92125719527775e-17)
(0.471228030231245 0.0017505400260241 -1.91783863379008e-16)
(0.492053710133232 0.00140411638035747 -3.18919262108282e-17)
(0.515427298347265 0.00101824448003745 4.22421904319973e-17)
(0.542218346501206 0.000508846731294835 6.66287550717346e-17)
(0.572213858889355 -5.35930910436931e-06 -1.78529942433226e-16)
(0.608331035563036 -0.000631497361871788 6.98173648909825e-18)
(0.647567706761995 -0.00129721853108435 -1.41581233445284e-17)
(0.700648144200739 -0.0022457538321074 -7.67624834954898e-17)
(0.751859497523013 -0.00286314129675698 -6.43736507336207e-17)
(0.843651593140909 -0.00377443180543695 3.24725885405998e-17)
(0.875742109531819 9.38967105548825e-05 6.09908640712424e-17)
(0.855084215554021 -0.000329189094068362 6.76676207892313e-18)
(0.855940676230089 -0.000240505971466594 -7.3600905386818e-17)
(0.846095204866425 -0.000340232777140954 2.37934796300374e-17)
(0.840403902487803 -0.000356895874446241 1.90062023515216e-17)
(0.832432254272476 -0.000393897969720815 -1.64228640350026e-18)
(0.825281260458495 -0.000410415258468248 -1.49185889521558e-17)
(0.817752310150271 -0.000426621857346538 -4.1816180893526e-18)
(0.810527381442752 -0.00042796536704606 -1.36039407038104e-17)
(0.803471481826541 -0.00042061610418882 -4.16043700936654e-18)
(0.796866362617707 -0.000403178986178773 2.72317408174479e-18)
(0.790784054121943 -0.000379131026800918 -8.74347519947082e-19)
(0.785180373015466 -0.000346589710648079 -1.44678119115621e-19)
(0.781045899619383 -0.000153498212147777 8.11735812127942e-20)
(-0.0756942675922546 0.00620576314284246 6.17632275076803e-18)
(-0.0719488466477217 0.00649977082098841 3.71499930293972e-18)
(-0.0708386647984878 0.00738109098388982 1.44122013705219e-18)
(-0.0700188903439949 0.00803121832027338 3.21497275531541e-18)
(-0.0694448524456482 0.00838184565252247 1.51213628257212e-17)
(-0.068990370833992 0.00854035748333675 4.02795135451708e-17)
(-0.0685712582110342 0.00860068847209489 9.1505449424313e-18)
(-0.0681526918832693 0.00861826480552809 -2.21198095470774e-17)
(-0.0677218993166941 0.00862007470824514 -1.94010405235223e-17)
(-0.0672742229710435 0.00861666578177935 -1.39871893180225e-17)
(-0.0668085287736501 0.0086116830888261 1.88941480039187e-18)
(-0.066324169062421 0.00860642247636771 3.52361346662508e-17)
(-0.0658202087161657 0.00860096261356688 -2.45889296361595e-17)
(-0.0652962444656625 0.00859485294750109 3.78993261082034e-17)
(-0.0647519048160958 0.00858833508331108 9.7446214255025e-19)
(-0.0641859714912383 0.00858164420656072 3.79720985640957e-17)
(-0.0635975351343221 0.00857424434510337 1.64303875008953e-16)
(-0.062986117824589 0.00856631955044493 1.90558188700146e-16)
(-0.0623504893208658 0.00855821880317221 9.9333027925229e-17)
(-0.0616892576540446 0.00854962568978734 1.04352421946155e-16)
(-0.0610016303903717 0.00854033041281095 1.41634149901485e-16)
(-0.0602864982886374 0.00853073650974643 -1.60257555754242e-17)
(-0.0595419891584873 0.00852092114099573 -1.92197085613267e-17)
(-0.058766875469677 0.00851020864476022 1.48461160584057e-16)
(-0.0579601527313328 0.0084990164128647 -1.00829441257813e-17)
(-0.0571195235130449 0.00848780623197012 -1.88968594769138e-16)
(-0.0562431525107262 0.00847559716594908 -1.80299872089001e-16)
(-0.0553299444576008 0.00846267481542071 -1.15688106761291e-16)
(-0.0543775075206231 0.00844970678094643 -5.45470559861411e-17)
(-0.0533831510842142 0.00843603367520068 -1.08982617198745e-16)
(-0.0523452876977742 0.00842118145778316 1.28280060010924e-16)
(-0.0512617256243742 0.00840594547408236 2.62653166246672e-16)
(-0.0501287205435503 0.0083905049187344 1.10892180992613e-16)
(-0.0489438819916594 0.0083732857252132 -4.78128279822971e-17)
(-0.0477052710564186 0.00835529795362086 -1.12635439359937e-17)
(-0.0464084837808518 0.00833768715584265 -1.02932877006416e-16)
(-0.0450492308982025 0.00831901490740433 -1.58052278410104e-16)
(-0.0436253137848224 0.00830114248033995 -1.19129386966063e-16)
(-0.0421289930408948 0.00828930654932764 -1.87044201772193e-16)
(-0.0405365573529426 0.00828907995366828 -1.56703417920267e-16)
(-0.0388477898664918 0.00826742669674549 -1.56599588262094e-16)
(-0.0370794838871213 0.00823665986971553 -3.0255802006947e-16)
(-0.0352269473478848 0.00820530041150762 1.05668425617581e-16)
(-0.0332793138355075 0.0081743920190721 -5.19096271274476e-17)
(-0.0312299505731 0.0081415152961242 -2.11605226910037e-16)
(-0.0290716328177677 0.00810840258001018 -1.46807571500817e-16)
(-0.0267924676105788 0.00807620893439733 8.70103482393206e-17)
(-0.0243837611068922 0.00803971321590674 -2.68671259072665e-16)
(-0.0218384264559572 0.00800169157872572 -3.38959671504003e-16)
(-0.0191396774406359 0.00796626207070088 -2.58129191421382e-16)
(-0.0162745434068767 0.00792431624892769 -8.80078078277296e-17)
(-0.013235257926735 0.00787873509677866 -2.02664538411685e-17)
(-0.0100026627019828 0.007834900390124 6.52250328223337e-17)
(-0.00655619256283015 0.00778636111651749 -9.75971286158882e-17)
(-0.00288309909000382 0.00773050469848418 1.00511651998498e-16)
(0.00103635207410453 0.007673758270928 -1.0745770079898e-16)
(0.00523322324256623 0.00761563322660787 7.85171833385676e-17)
(0.00972869826468415 0.00754507407512745 1.15717811282601e-16)
(0.0145427826584568 0.00746935553419325 -3.04405860309352e-17)
(0.0197205518572289 0.00739676918802678 5.41138022085519e-17)
(0.0252977371118558 0.00730659782090642 2.43234183266304e-16)
(0.0312989469251624 0.00720515133995856 2.88542807145015e-16)
(0.0377766926954615 0.00710211392561359 -3.17475866886996e-16)
(0.0447892464278094 0.00698540717799005 -1.48734520527365e-16)
(0.0523800173580752 0.00684697446420991 -2.25744604361699e-16)
(0.0606043072195957 0.00669552129180152 -4.33880540881074e-17)
(0.0695476234630475 0.00654073102001163 -1.76974785125207e-16)
(0.0793368666545037 0.00638954253542725 -2.17667385581034e-17)
(0.0901106221246722 0.00621850049003152 2.37473674200441e-17)
(0.101961751573842 0.00599235297675618 1.97149729834686e-16)
(0.114934411507833 0.00570041140492152 9.0951247985814e-17)
(0.129129997157569 0.00537896765156954 1.25809746284292e-16)
(0.14474900819504 0.00503401924366741 1.63664442380752e-16)
(0.161998772900391 0.00463612064679909 2.12809390205589e-17)
(0.181094486584127 0.00418897556419512 -8.6409364389824e-18)
(0.20234995016692 0.00368349930169718 5.46392185154552e-17)
(0.226043754099326 0.00309905190385022 -2.13834022240673e-16)
(0.252690914793864 0.00244353549119331 -5.25498123589379e-17)
(0.282643949601643 0.00170087184420304 7.09268286221466e-17)
(0.316980292748948 0.000799049411472963 -2.31989466984866e-17)
(0.35540547983861 -0.000174184959519245 -1.74239695989954e-16)
(0.401729559064105 -0.00134127883933544 1.39856936715698e-17)
(0.452086570193782 -0.00262348248730252 -5.15895525921563e-18)
(0.520091882840543 -0.00432960944792468 -9.5729498333422e-17)
(0.58572545592527 -0.00579868757285394 -6.40108971452238e-17)
(0.703476302903327 -0.00737957546631764 1.63794909485686e-17)
(0.744981347446782 -9.12394327209923e-05 6.62754426386626e-17)
(0.718402369909563 -0.000357925567088087 5.34642386061101e-18)
(0.719424569136091 -0.000317212753735689 -7.72117349963717e-17)
(0.706755250694442 -0.000392507525548786 4.01890874577526e-17)
(0.699397346743515 -0.000406875710676843 1.49653318543608e-17)
(0.689133484112571 -0.000437582591662421 2.37981540388224e-18)
(0.679914501271362 -0.000449345309672943 -6.14995462772935e-18)
(0.670225160983304 -0.000457330318480824 1.11405362523854e-18)
(0.660922808808546 -0.000458276568002409 -1.48049490378251e-17)
(0.651822480024439 -0.000446443866394751 -1.6194925800491e-18)
(0.643324905726111 -0.000419831293645408 4.65160266766964e-18)
(0.635510907154902 -0.00039557088865694 -1.41808075523965e-18)
(0.628237761513472 -0.000370579904635713 -8.47930095451958e-19)
(0.622393134343031 -0.000210036229510554 9.22389511605637e-20)
(-0.22973597397127 0.00836488895732444 4.25386926136906e-18)
(-0.228132483601061 0.00916925269995806 3.26931428891926e-18)
(-0.227919734441942 0.0105618633691151 -2.03554824699986e-19)
(-0.227701523403162 0.0114551394673914 -5.07297765026981e-18)
(-0.227453899481903 0.0118955185973424 -1.17055081519307e-17)
(-0.227178815033356 0.0120826733514109 3.34433617166201e-17)
(-0.226877911363756 0.0121502100156185 1.13662110262223e-17)
(-0.226555697380221 0.0121675787802219 -5.30362009439425e-17)
(-0.226215114520376 0.0121666036508933 -3.41689017185287e-17)
(-0.225856971212263 0.0121596780700306 -5.72325418481515e-17)
(-0.225481296092091 0.0121509805414388 -1.45996448390031e-17)
(-0.225087554374871 0.0121417900609946 6.47680523192067e-18)
(-0.224674878523522 0.0121322143003523 -4.51279270182989e-18)
(-0.224242643781782 0.0121219683283732 1.83720950149364e-17)
(-0.223790251821484 0.0121111356636087 1.47755445534942e-17)
(-0.223316670140731 0.012099809441144 3.32419571794156e-17)
(-0.22282099675035 0.0120876892230095 7.75951443499045e-17)
(-0.222302524660066 0.0120748450908447 8.43716995114686e-17)
(-0.221760118932262 0.0120614640353924 7.16072678943275e-17)
(-0.221192526628731 0.0120473530050455 4.93686079269945e-17)
(-0.220598787117405 0.0120323696371499 8.22054574398545e-17)
(-0.219977730528197 0.0120167294000239 -3.41485729034685e-17)
(-0.219327724074418 0.0120004457737746 -5.59675437613961e-17)
(-0.218647454361155 0.0119831186199317 1.3355615587605e-16)
(-0.217935700425269 0.0119649601413005 -1.33732223874251e-17)
(-0.217190450309807 0.0119461994025964 -1.81678466047257e-16)
(-0.216409911447856 0.0119262597454173 -1.34985769972934e-16)
(-0.215592685036629 0.0119052565720739 -1.15411752350549e-16)
(-0.214736522696609 0.0118835607161948 -1.51578600613655e-16)
(-0.213838936690715 0.0118607477284178 -2.70510891981115e-16)
(-0.212898084992655 0.0118364844409401 7.40447156730959e-17)
(-0.211911699968715 0.0118112208485669 1.52359369178168e-16)
(-0.210876445284605 0.0117849962196561 1.96564626946261e-16)
(-0.209789796154316 0.011756834651677 -1.17390624375109e-16)
(-0.208649470692127 0.0117273020581676 2.46601992859057e-17)
(-0.207451355992131 0.011697030431503 -1.53313787742931e-16)
(-0.206191248516736 0.0116652439605338 -2.46094280602086e-16)
(-0.204865752132277 0.011632893163056 -1.34352428895397e-16)
(-0.203467310947536 0.0116038243773695 -2.84442886161025e-16)
(-0.201976212342731 0.0115802169431978 -2.05621928581294e-16)
(-0.200390959266673 0.0115419478374622 -1.49668513023255e-16)
(-0.198724458249272 0.0114955147848783 -8.63441868048811e-17)
(-0.196972872085496 0.0114472558829493 2.95412062737879e-17)
(-0.195127020374176 0.0113976982265286 -6.03063098969429e-17)
(-0.193179954368714 0.0113453360780478 -2.70184146190557e-16)
(-0.191124330083484 0.0112911189076295 1.48314702395963e-18)
(-0.188948682258847 0.0112355782233174 2.4224518698442e-16)
(-0.186643994830969 0.0111752283501969 -4.18242129050861e-16)
(-0.184202869139425 0.0111117294303144 -4.21891118104193e-16)
(-0.181609177660501 0.0110474247465972 -8.1041573712488e-17)
(-0.178849830093963 0.0109763205721879 -6.57120213124118e-17)
(-0.17591662322636 0.0108999715682005 -2.91375112605734e-17)
(-0.172790743360671 0.0108216920620561 6.36501645818162e-17)
(-0.169451819179102 0.010736964822561 -8.93587193723448e-17)
(-0.165886696581916 0.0106437351935362 2.00921482776882e-16)
(-0.1620758139232 0.010546001794564 -1.86083582750402e-17)
(-0.157988359265016 0.0104429189160252 9.59901954740081e-17)
(-0.153602656718746 0.0103267897655287 1.83697415558448e-16)
(-0.1488993366923 0.0102021835421548 -5.30131876893885e-18)
(-0.143833061267662 0.0100737288879835 1.57804494068199e-16)
(-0.138367522392523 0.00992732221175937 3.52297064052339e-16)
(-0.132479241983217 0.0097663728152357 2.92398456006895e-16)
(-0.126115400173638 0.00959675620979018 -2.17209196674482e-16)
(-0.119216767659571 0.0094094204523139 -1.88666433773111e-16)
(-0.111740560308524 0.00919811745946504 -5.29840020316861e-17)
(-0.103632594728003 0.00896776842488109 -3.29860757107779e-17)
(-0.0948077828328473 0.00872408629040113 -1.16829888072723e-16)
(-0.0851382512423954 0.00846966966652027 -1.87139064919414e-17)
(-0.0744828406154163 0.00818624926181048 2.49942719614346e-17)
(-0.0627476899786057 0.00784747210323438 2.87703066020945e-16)
(-0.0498929223364593 0.00744554411450978 7.76785933079688e-17)
(-0.0358208248207334 0.00700360134697376 1.71451121870032e-16)
(-0.0203250185930662 0.00652268827087939 1.1681053480175e-16)
(-0.00319846494665587 0.00597997796590456 2.27150324737133e-17)
(0.0157695771913771 0.00537373344860798 1.70356716192654e-16)
(0.0368972837141016 0.00469304293918957 8.78157971090779e-17)
(0.0604598248941376 0.00391896002652171 -2.43053885995759e-16)
(0.0869670982930125 0.0030506459631026 -2.29486216903335e-16)
(0.116786177914795 0.00206479502582301 1.02732205800779e-16)
(0.150980118816827 0.00090875988907294 -1.11649988570276e-16)
(0.189235107394244 -0.00037659229211886 -1.74312525163462e-16)
(0.235398570494855 -0.00189377241759804 2.31806870688736e-17)
(0.285572489210061 -0.00360795610848857 -4.8976177462475e-17)
(0.353335819439263 -0.00578712166360572 -1.1555486977098e-16)
(0.418671927302299 -0.00794190247763331 -6.38796363988791e-17)
(0.536435419843519 -0.00987319388777744 4.16154631880097e-19)
(0.578295992420675 -0.000235168690522101 7.18798043458375e-17)
(0.551599793890106 -0.000213325523489505 4.03819885613477e-18)
(0.552595780035491 -0.000264466052371289 -8.13203346079843e-17)
(0.539936313199186 -0.000281301351581567 4.00865860479443e-17)
(0.532569394343892 -0.000306065127495134 1.07698626974073e-17)
(0.522309665571455 -0.000320416902822797 6.36163338218778e-18)
(0.51308876721017 -0.000330878132323825 2.53803875044661e-18)
(0.503403806275873 -0.000333760418916444 6.46393840844343e-18)
(0.494103137096158 -0.000334878653387809 -1.60011708787068e-17)
(0.484996957168583 -0.000325143549596026 -2.9277485752842e-18)
(0.476502662116542 -0.000304575343980866 6.52732970795722e-18)
(0.468695852174073 -0.000286811868029302 -1.97478171141089e-18)
(0.461396522894761 -0.000271668877614838 -1.54648593676054e-18)
(0.455325206128426 -0.00015937000868488 1.06780599773707e-19)
(-0.241270766932457 0.00822519659161699 3.07025386772114e-18)
(-0.242910828561207 0.00939760840067424 4.22595235436692e-18)
(-0.243852388319923 0.0107153666657206 -9.56642713880663e-19)
(-0.244315719912244 0.0114656404560569 -7.63560837114621e-18)
(-0.244425756270719 0.0118025138773761 -2.0651724672469e-17)
(-0.244359594299307 0.0119343362578369 6.20133300066062e-18)
(-0.244214973890622 0.0119769513752615 -5.40641207370334e-18)
(-0.244034613405122 0.0119841413228102 -2.58780587745966e-17)
(-0.243834907994292 0.0119788521542887 -2.71093132801482e-17)
(-0.243621018797955 0.0119696315764809 -4.05233639033033e-17)
(-0.243393964782263 0.0119592124832942 -2.35200083786456e-17)
(-0.24315339532325 0.0119483400568962 -3.46479890777117e-18)
(-0.242898593619044 0.0119370530384461 -5.36477823685108e-19)
(-0.24262893644864 0.0119251830626502 1.09250894943765e-17)
(-0.242343846692586 0.0119127355684905 1.81755018662605e-17)
(-0.242042582206819 0.0118997326679229 1.90620723362332e-17)
(-0.241724442016623 0.0118860212331068 1.25980736108822e-17)
(-0.241388787817307 0.0118716133265991 1.61559158671912e-16)
(-0.241034775577187 0.0118565806490486 4.59658571144859e-17)
(-0.240661485910197 0.0118408185352848 -2.57872313002964e-17)
(-0.240268105953633 0.0118242403054117 7.94521167457995e-17)
(-0.239853706446555 0.0118069261824741 -8.39228309590903e-17)
(-0.2394171114518 0.011788863890642 -6.31838412369498e-18)
(-0.238957265303238 0.0117698440351226 7.08939880119219e-17)
(-0.238473138934728 0.0117499393094807 -5.36292493684504e-18)
(-0.237963279987895 0.0117292342165452 -8.81715150904039e-17)
(-0.237426311018392 0.0117074330827279 -8.39858259068276e-17)
(-0.236861027627378 0.0116845559081715 -9.60308336603027e-17)
(-0.236265741569842 0.0116607492472893 -2.15069712610188e-16)
(-0.235638597188203 0.0116357816138533 -2.65919132207752e-16)
(-0.234978060182626 0.0116094552885204 9.01401923990525e-17)
(-0.234282346527754 0.0115819461098041 5.04498327234346e-17)
(-0.23354902250959 0.0115532363522566 9.07652940633141e-17)
(-0.232776070239582 0.0115228145774751 -2.02277789242151e-17)
(-0.23196159581565 0.0114909021676554 1.35753918424354e-16)
(-0.23110252272442 0.0114577404222931 -2.19257577997541e-16)
(-0.230195616922737 0.0114229111695762 -1.14182133767972e-16)
(-0.229237755546297 0.0113866801386904 -9.17582548298336e-17)
(-0.228223264242633 0.011350803725902 -1.69831837833502e-16)
(-0.227138272691723 0.0113162840399203 -2.51031362063184e-16)
(-0.225980950443484 0.0112734308183652 -1.47556992902024e-16)
(-0.224759824418923 0.0112253719194074 -1.2649943424946e-16)
(-0.22347238043659 0.0111751467125999 -6.08182501751656e-18)
(-0.222112194647586 0.0111228279786609 -4.76166332984334e-17)
(-0.22067372833126 0.0110675946269079 -1.80136061730564e-16)
(-0.219151243704163 0.0110097738519076 -7.64094848594373e-17)
(-0.217535976641783 0.0109495051883621 9.34111640906305e-17)
(-0.215820762917427 0.010884915961293 -2.25543048698263e-16)
(-0.213999791259567 0.0108166646374502 -3.42795889170447e-16)
(-0.212060762546822 0.0107457320063529 -7.16874802353647e-17)
(-0.209993401455942 0.0106689629174691 -4.4264722121568e-17)
(-0.207791231802714 0.0105869414718158 -4.43224802930233e-17)
(-0.205439782044302 0.010501059293171 9.03474679631516e-17)
(-0.202923218864279 0.0104088084273411 -1.3127526687386e-16)
(-0.200231187373391 0.0103089277804735 1.66877735694068e-16)
(-0.197348650870348 0.0102030797577596 3.69858470012184e-17)
(-0.19425165913202 0.0100904753055242 1.15836828096774e-16)
(-0.190923112764486 0.00996693000244548 1.04154152411563e-16)
(-0.187348449652369 0.00983433723665424 -1.01627405525355e-17)
(-0.183492200549655 0.00969444057664499 2.58001297645382e-16)
(-0.179325764140669 0.0095396857349402 1.64794499127819e-16)
(-0.174831596854536 0.00937135028231788 3.26176050529218e-16)
(-0.169968543542864 0.00919159823874459 -1.53653604614252e-16)
(-0.164689999983985 0.00899510430833261 5.16320957343719e-17)
(-0.158963034329942 0.0087781427912642 1.25051990643853e-16)
(-0.152746150828457 0.00854222006949901 -1.62977110544342e-17)
(-0.145973654477662 0.008288667461108 -6.63458471899376e-17)
(-0.138545815272798 0.00801695231745532 -1.24156694830344e-17)
(-0.130351437940938 0.00771627250429268 1.71312292794926e-17)
(-0.121316641784203 0.0073725188170214 1.64721107386108e-16)
(-0.111412604292736 0.0069811042893355 5.31883021298537e-17)
(-0.100565682140164 0.0065518403137659 2.217979408625e-16)