/*--------------------------------*- C++ -*----------------------------------*\
  =========                 |
  \\      /  F ield         | OpenFOAM: The Open Source CFD Toolbox
   \\    /   O peration     | Website:  https://openfoam.org
    \\  /    A nd           | Version:  8
     \\/     M anipulation  |
\*---------------------------------------------------------------------------*/
FoamFile
{
    version     2.0;
    format      ascii;
    class       volVectorField;
    location    "0.0025000";
    object      U;
}
// * * * * * * * * * * * * * * * * * * * * * * * * * * * * * * * * * * * * * //

dimensions      [0 1 -1 0 0 0 0];

internalField   nonuniform List<vector> 
900
(
(0.787154235985819 0.000308762982501577 -2.98856778724493e-18)
(0.78791707045073 0.00019238538682858 -5.65452710229914e-18)
(0.788107579639215 0.000140096033901262 -5.85797145460856e-18)
(0.788431447343778 0.00016063945214354 2.92541339551749e-19)
(0.788635530080294 0.000166981620794424 -1.73304380831374e-18)
(0.788805224149433 0.000172285166760591 -3.23524564200766e-18)
(0.78896325225088 0.000174643884988671 -1.95372375613659e-18)
(0.789120982472147 0.000176109943736304 -2.54841143881816e-18)
(0.789283653945816 0.000177600475315601 6.83410457780407e-18)
(0.789452740836792 0.00017875420659676 4.71190292153637e-18)
(0.789627254229393 0.000179620395907637 1.26529485379555e-17)
(0.789806744961246 0.000180602934185498 1.16747709228349e-17)
(0.789992040447433 0.000181632757395443 8.47893154142938e-18)
(0.790183061528213 0.00018225638769668 5.88519496441842e-17)
(0.790379136662799 0.000182920459146282 4.58533255009672e-17)
(0.790581031112827 0.000183950154192748 -5.08478011361307e-18)
(0.790788978503605 0.000184588242894653 -1.05415012869306e-18)
(0.791002624431636 0.000185098977786545 2.24375243229389e-18)
(0.791222596645746 0.000185913528355985 -9.69623133211617e-18)
(0.791449403606966 0.000186715518712112 5.20235450739995e-18)
(0.791682763936704 0.000187259723714518 -6.50962612953442e-17)
(0.79192290924948 0.000187954848122222 -3.04327647477581e-17)
(0.792170896321579 0.00018898287976814 -2.71812947311361e-17)
(0.792426650680602 0.000189663384641143 -8.18623864856163e-17)
(0.792689625404153 0.000190626950300047 -6.37276046732946e-17)
(0.792959316807677 0.000192040071304105 -2.51037247257064e-17)
(0.793238889180717 0.000192374558892781 -5.02985216220212e-18)
(0.793531034700113 0.000192734140238286 2.69268965788068e-17)
(0.793832515354918 0.000194218665312034 -2.15834711473389e-17)
(0.79414313850179 0.00019569805059846 2.89851521033968e-19)
(0.794464308645635 0.000196632150180638 -6.20994108700547e-17)
(0.794796240460848 0.00019785224455165 -3.88887992975608e-17)
(0.795140801812292 0.000199641724314952 -8.26782927638537e-18)
(0.79549851954693 0.000200693632650802 -1.16413978892532e-17)
(0.795869095342686 0.000201846808559863 -1.51410822643992e-17)
(0.796253927621937 0.000204015625098702 -5.61118215614297e-17)
(0.796654331435937 0.000205652035700173 -6.43261456628427e-17)
(0.797070091126714 0.00020766932442519 -6.85499971076848e-17)
(0.797502103656984 0.000212139507377815 -3.41074024536669e-17)
(0.797960024663275 0.000227580736357459 -7.2073109396153e-18)
(0.798442462188128 0.000228673970562423 4.33921307769408e-17)
(0.798942471883701 0.000228069503685772 5.4354841429217e-18)
(0.799462450988702 0.000228660324804858 7.87608365056874e-17)
(0.800006326081578 0.000230567524419695 2.58050093033019e-17)
(0.800574945156115 0.00023200086502489 5.28414295172787e-17)
(0.80116977259272 0.000234233466063437 -4.56894056116678e-17)
(0.801793777383991 0.000238310971653111 3.9910158531171e-17)
(0.802448999571836 0.000240843009631932 9.50440605204978e-17)
(0.803137371935984 0.000243708312929958 -3.65982200461053e-17)
(0.803862631750899 0.000249929535173166 6.09527660052484e-17)
(0.804627255942467 0.000253842860479151 6.92611286094946e-17)
(0.805433414509697 0.000257704230707418 -1.33936786546238e-17)
(0.806283066478942 0.000264395043086116 4.91336347103323e-17)
(0.807184153350289 0.000270129861110735 -9.75819121564267e-17)
(0.808143162594031 0.00027436318450393 -3.81075356261713e-17)
(0.809159963257895 0.000280901216562505 7.77675511098421e-19)
(0.810239443088885 0.000289665907994546 -1.39808686828047e-17)
(0.81138804437502 0.000294722638249473 -3.5689018301179e-17)
(0.812613045366957 0.000300069243545422 -3.38385887932647e-17)
(0.81392125455133 0.000311122737454921 6.64404448555464e-19)
(0.815319228480511 0.00031693845738861 2.20097227993528e-17)
(0.816817423524327 0.000321692377589155 5.02377764589586e-17)
(0.818426408314514 0.000330256616193271 -1.50378079380746e-18)
(0.820156974716538 0.000337512994639901 -2.43321825878896e-18)
(0.822020105963569 0.000340627598590112 7.03378363114859e-18)
(0.824028846233893 0.000343774332392347 -2.89962398394657e-17)
(0.826205106621312 0.000350457114578108 -4.28642818075135e-17)
(0.828577074641244 0.000366299584076266 -6.04863598030302e-17)
(0.831155788211825 0.0003831292666929 -1.34276980671624e-18)
(0.833971771422544 0.000386962275717983 6.82272850331911e-17)
(0.837035775157903 0.000373286016623739 -1.73698306921512e-18)
(0.840409146871825 0.000358243752424364 6.56700444332073e-17)
(0.844068174306959 0.000349250718464443 4.98959847084421e-17)
(0.848141113981131 0.000328673589932965 -3.07156064223862e-18)
(0.85254129383085 0.000310169705688436 5.81429744671178e-17)
(0.857562818570168 0.000280253832575759 -4.9595103129767e-17)
(0.862895196624557 0.000250063494301045 3.76750570924434e-17)
(0.86928005575739 0.000200918757962335 -3.60029385175156e-18)
(0.875779190555484 0.000176975819831426 -2.70664021595573e-17)
(0.884202228692734 8.15553639409839e-05 -1.00415337958188e-17)
(0.892154892058428 5.54691763738218e-05 3.41269294775365e-17)
(0.903949561753124 -4.88212061195396e-05 3.42585430340458e-17)
(0.91362875616552 -6.29457233469024e-05 -1.62244857192219e-17)
(0.931473824712737 -0.00022489591959049 -1.34119393724885e-17)
(0.943609069262205 -0.000152635489748283 -8.69010498762473e-18)
(0.973321783596807 -0.000247867932443963 -5.85668846482419e-18)
(0.982403087752488 0.000124098743708296 2.722584232601e-18)
(0.974538411793494 -8.00368065768861e-05 3.73478161395566e-20)
(0.976729901944464 -9.35048422034534e-06 -3.35729982067409e-18)
(0.972396866690149 -8.65527558467079e-05 4.66380124046319e-19)
(0.971837288293192 -7.91713772466497e-05 4.00441453385056e-19)
(0.968802252280091 -0.000115285080780579 4.14571776377595e-18)
(0.967205550922 -0.000117969795611423 -2.32147278259908e-18)
(0.964704906230951 -0.000137260674827166 8.84028589099599e-20)
(0.962789512881897 -0.000137571293607366 3.08865573868359e-18)
(0.960600952353171 -0.000142066483108153 -1.53679316817947e-18)
(0.95873848766626 -0.000140340765747356 1.593768587116e-19)
(0.956887762638537 -0.000134391788753421 -6.25761252057881e-19)
(0.955321097572889 -0.000121538427066493 -6.38966211140329e-19)
(0.954319279297325 -3.38873419702827e-05 -3.24584795527686e-20)
(0.439238210583449 0.00161920208548794 -6.60014354122545e-18)
(0.441606817433212 0.00177760543269765 -1.12638379378664e-18)
(0.442251780370008 0.00180611218967435 -6.73090695553238e-18)
(0.443001386974369 0.00191788832120573 3.19351842092492e-18)
(0.443466607820443 0.00198881681544148 -5.46540668610272e-18)
(0.443837061358652 0.00202448083957415 -1.01840647244448e-17)
(0.444173055835639 0.0020380960685103 -5.02170213050501e-18)
(0.444505631258121 0.00204280817709376 -9.49702254547921e-18)
(0.444846762118382 0.00204505306281363 2.26436194540462e-17)
(0.445200186718084 0.00204615826578614 1.1848995556914e-17)
(0.445565510080239 0.00204672657865376 4.32109503242342e-17)
(0.4459425752443 0.00204745936100023 3.50749016036925e-17)
(0.446332233184061 0.00204824534677078 2.90449137037621e-17)
(0.446734399766984 0.0020483205246206 5.75574054285962e-17)
(0.447148786436614 0.00204837859277925 5.84860509543648e-17)
(0.447576585239106 0.00204896557057676 -3.03327213555038e-17)
(0.448018351759073 0.0020488324277401 -2.74466966228656e-18)
(0.44847388773487 0.00204841715995479 1.00262842357375e-17)
(0.448944174717471 0.00204843046328194 -3.31538648943196e-17)
(0.449430300568162 0.00204835800092085 2.18385920769289e-17)
(0.449932345815437 0.00204779456447431 -8.7872090119547e-17)
(0.450450881280211 0.00204742263578926 -7.63296099638784e-17)
(0.45098752262269 0.00204758151476775 -7.93484721478575e-17)
(0.451542662914745 0.00204711062496192 -1.34138636615386e-16)
(0.452116464330011 0.00204701667772896 -1.81341575050427e-16)
(0.452710336007884 0.00204758665162956 -7.06067611201791e-17)
(0.453326300501872 0.00204620852243765 -4.56997815635199e-17)
(0.453965570495231 0.00204477952438901 3.17067911182098e-17)
(0.454628387694846 0.00204525870025328 -6.71772972646217e-17)
(0.455316287692101 0.00204571757525733 1.15922582176478e-17)
(0.456030190754375 0.00204512728372772 -8.81790715595416e-17)
(0.456771190714184 0.00204491767341935 -9.11127091391728e-17)
(0.457542326161881 0.00204562896985298 -1.80339643992367e-17)
(0.458344833815313 0.00204486884968675 6.44531809733967e-17)
(0.459179391125022 0.00204416864552843 -3.80344020117843e-17)
(0.460048859355008 0.00204526498774242 -4.05368804169681e-17)
(0.460956274648805 0.00204541201588389 -9.08746902313608e-17)
(0.461901410280982 0.0020467675118719 -2.36132278107907e-16)
(0.462888719676915 0.00205330630429601 -1.93981764479931e-16)
(0.463936852195206 0.00208055786822118 -2.4225696376231e-17)
(0.465044132418923 0.00207971921303192 3.72821339834147e-17)
(0.466197368075832 0.00207412917903269 3.64415025714877e-18)
(0.46739984389602 0.00207018772272921 2.56638180385325e-16)
(0.468660085136485 0.00206862629607075 7.28047293896065e-17)
(0.469981154488375 0.00206608525232409 7.41401723182877e-18)
(0.471367443799001 0.00206494796700012 -1.58122633028761e-16)
(0.472826096629729 0.00206718565592209 1.18726216745111e-16)
(0.474362104632807 0.00206612949938083 2.70024123672426e-16)
(0.475979982159868 0.00206544805667336 2.01817058193811e-17)
(0.477689488604978 0.00207103188832318 1.92930327030626e-16)
(0.479497755475136 0.00207167008863906 6.15215905907809e-17)
(0.481410165335291 0.00207164656554592 -4.96740493482132e-17)
(0.483436529007726 0.00207675831579644 1.55273762424422e-16)
(0.485590069668434 0.00207935123809392 -1.63107589685125e-16)
(0.487880584111257 0.00207817066462125 -1.10318874894359e-16)
(0.490317812002285 0.00208097441557698 2.0974294855508e-17)
(0.492917896158504 0.00208739267514427 -2.11908338499257e-16)
(0.495694176517716 0.00208524670783956 -1.07299384960973e-16)
(0.498661558750007 0.00208271374560398 -9.31342255246538e-17)
(0.501842548109472 0.00209042091975623 1.2072611233167e-17)
(0.505256717538057 0.00208618682411873 6.79276240743378e-17)
(0.508924376243143 0.00207790526837318 1.10315740269427e-16)
(0.512873267146478 0.00207571276359976 -6.06647061231451e-18)
(0.517134627940141 0.00206875420884768 2.07140621865802e-16)
(0.521736298738369 0.00205079448127858 2.08683308228312e-17)
(0.526714819247415 0.00203025785517077 -1.78421279557926e-16)
(0.532117838242119 0.00201538299444546 -3.98661905071915e-17)
(0.538021362608217 0.00201694367371109 -9.45003509126425e-17)
(0.544479351744643 0.00201662457871156 -2.78033487060348e-18)
(0.55156943288438 0.00198255000558659 1.19224579122167e-16)
(0.559295786757472 0.00190565541268662 9.66392824121695e-17)
(0.567797669271801 0.00181929211729517 2.5843722019919e-16)
(0.577047983409245 0.00173873783887969 1.49363435869858e-16)
(0.587373014450226 0.00162721698149998 -9.5700283876913e-18)
(0.598558120550139 0.00151081989492933 4.84917463682152e-17)
(0.611348525011129 0.00135855501379951 -6.11290242404477e-17)
(0.624972032784475 0.00119578419108248 5.41867213611179e-17)
(0.641261532726244 0.000975939294617463 7.70817564894904e-18)
(0.65794092688289 0.000791937929272354 -7.49041278134509e-17)
(0.679491309962746 0.000434470200083033 1.36532741821239e-17)
(0.699901905278266 0.000207316302730033 5.91574713571358e-17)
(0.730079458754993 -0.000243395934926508 1.02581044945468e-16)
(0.755042244039813 -0.00050447213189847 -4.84122674885343e-17)
(0.800553577553866 -0.00119355170728017 -4.00370998950454e-17)
(0.831682005715578 -0.00136283465759968 -2.59078506171517e-17)
(0.907093424291312 -0.00196007376484734 -1.74738252673577e-17)
(0.930302335449465 5.44687502606731e-05 9.26103777500903e-18)
(0.910270510898549 -0.000320232110026577 1.3477523906658e-19)
(0.915651476638689 -0.00018036396710665 -1.06144571681678e-17)
(0.90449985357483 -0.000318792327453939 2.16812549103741e-20)
(0.902919228026039 -0.000289490398192513 1.29476668354049e-18)
(0.895082800063832 -0.000348642113858198 7.02221026806672e-18)
(0.890914114829665 -0.000341369675492432 -7.00192044994115e-18)
(0.884469806425635 -0.000366333778412747 -2.56451152457113e-18)
(0.879526080645384 -0.000358880782875883 6.56616831540487e-18)
(0.873894807096451 -0.000356870080094315 -4.68153643091785e-18)
(0.869115263480633 -0.000339092068646913 4.70263939162357e-19)
(0.864376163969913 -0.000320092568288993 -2.03688573454047e-18)
(0.860315181766299 -0.000292475562867974 -1.92332858937953e-18)
(0.857420793929058 -0.000125236506588781 -9.43250767126401e-20)
(0.162524984517112 0.00346757813716132 -6.78143819949357e-18)
(0.166235719588617 0.00398331810597082 -1.07641721597976e-17)
(0.167268106993489 0.00433601304556544 -1.91008711560726e-17)
(0.168247109998255 0.00464277621980812 -7.18879389914277e-18)
(0.168834458356849 0.00481989067167402 -1.17742655246577e-17)
(0.169298128142945 0.00490107397136211 -1.64795270143852e-17)
(0.169718735443108 0.00493035628345101 -5.65486982202488e-18)
(0.170135559573132 0.00493809536213988 -1.9397643255486e-17)
(0.170563400930377 0.00493891077869419 1.36119980775249e-17)
(0.171007172033688 0.00493742616831359 1.15396379167429e-17)
(0.171467081332119 0.00493518549244053 3.65966750301969e-18)
(0.171943309033121 0.00493302445462263 5.49291908592791e-17)
(0.172436830148688 0.00493080570869611 4.24319329065597e-17)
(0.172947709376364 0.00492783772807 5.87904424857768e-17)
(0.173475898265544 0.00492471987817195 1.03101907321717e-16)
(0.174022856128882 0.00492189624183439 -1.19676157169204e-17)
(0.174589377852075 0.00491828345446791 2.88453597680818e-18)
(0.175175425402509 0.0049142259124718 2.89138471574576e-17)
(0.175782246708318 0.00491039809077556 -5.817920207689e-17)
(0.176411272392997 0.00490633478823244 6.87158305711693e-17)
(0.177062877391106 0.00490165044036964 -1.31859150731358e-16)
(0.177737877692137 0.00489699802384127 -1.19740807140817e-16)
(0.178438293699996 0.0048926579317455 -1.22178478360739e-16)
(0.179164949389611 0.00488760461575439 -1.85634451523803e-16)
(0.179918392395202 0.00488275273327356 -3.56871017663572e-16)
(0.18070104936151 0.00487821837783776 -1.08878246126809e-16)
(0.181514559774229 0.00487156056125948 2.88586471320662e-17)
(0.182359484822889 0.00486463505132677 -4.62936893472652e-17)
(0.183237919073787 0.0048594366307987 -5.02294156290948e-17)
(0.184152543078394 0.0048540483240111 -5.42319195070789e-17)
(0.185104280851395 0.00484737292365225 -1.32045526326099e-16)
(0.186094706004146 0.00484082171493456 -1.27922899898829e-16)
(0.187127766030997 0.00483481310568713 -2.74494132169248e-17)
(0.188205310178296 0.00482709027889832 5.90472170352186e-17)
(0.189328386203554 0.00481916216456155 1.8811083496242e-18)
(0.19050124418359 0.0048126275950526 4.44655220240031e-18)
(0.191727786404528 0.00480523230195704 -1.06800056542516e-16)
(0.193008885900973 0.00479873229554786 -2.51776692896054e-16)
(0.19434883602115 0.00479973300522319 -2.66968918221317e-16)
(0.195775467271793 0.00481931722009167 -1.28931619316835e-16)
(0.197287564157704 0.00481095232036185 -6.34459249190003e-17)
(0.198863540048408 0.00479407217043081 -2.08719175939524e-17)
(0.20051063150242 0.00477861075151179 1.92571846382324e-16)
(0.202239452181729 0.00476496979717967 1.05528508338999e-16)
(0.204055084450457 0.00475006826050124 -3.09566575756726e-17)
(0.205963143895498 0.00473625381200899 -1.55771105179182e-16)
(0.207974660638563 0.00472518027690939 2.00700144651217e-16)
(0.210096983831446 0.00471011075224734 5.05915330160228e-16)
(0.212334728416722 0.00469496073965148 1.98860541396153e-16)
(0.214703629710578 0.00468520638538844 1.99747496816252e-16)
(0.217214701873648 0.00466968585380192 -4.29478978333793e-17)
(0.219873162420015 0.004652398283138 -1.04676788052047e-16)
(0.222695787324319 0.00463933875593147 1.52251646932441e-16)
(0.225700867339108 0.00462235835454153 -2.43628010164736e-16)
(0.228898865534807 0.0046000126788741 -3.11812057065634e-16)
(0.232305564918035 0.00458073251460096 1.49889281251898e-17)
(0.235948082573597 0.00456332157242491 -2.05367843254995e-16)
(0.239844426716034 0.00453496353016587 -1.92542228250632e-16)
(0.244010041809723 0.00450471043353832 1.14168010883571e-16)
(0.24848415406969 0.00448225857633327 4.90318997548732e-17)
(0.253296741275139 0.00444521938679491 1.12749921334753e-16)
(0.258468102701538 0.00440056162926414 1.91091341296324e-16)
(0.26404248297009 0.00435923482455943 -2.58836524498446e-17)
(0.270069226307195 0.00430915616551121 2.3998831743976e-16)
(0.27658354747762 0.00424322090983259 4.09893163648209e-17)
(0.283635806650727 0.00416988900940238 -1.76419362822258e-16)
(0.291291450796802 0.00410004060743419 -3.23732546899407e-17)
(0.299665656734855 0.00404344024239932 -1.31476331639313e-16)
(0.308853301939839 0.003978361882502 -4.57357446592682e-18)
(0.318965488796076 0.00386530034255072 1.70747095707927e-16)
(0.329986365038414 0.00369642430620998 5.58886290338673e-17)
(0.342100362681666 0.00350627855681164 3.83156024314451e-16)
(0.355300334945942 0.00331216604106426 2.42219263690689e-16)
(0.370048421801223 0.00307299550506191 -1.84797013307681e-17)
(0.386036653289351 0.0028163166353511 5.80955329462546e-17)
(0.404333995649545 0.00249883677026916 1.30140521835176e-17)
(0.423845733190595 0.00216058113223476 -1.13405468587149e-18)
(0.447151388283642 0.00172723231114524 -4.70784347956061e-17)
(0.471096053698866 0.00131848129935987 -1.40194573103343e-16)
(0.501977248551149 0.000672276402846784 3.6386523159457e-17)
(0.531248089418693 0.000173038890249584 8.49861379901141e-17)
(0.574505545012564 -0.000689006663067626 1.31952147288722e-16)
(0.610435263996131 -0.00128233939432017 -8.09429810083344e-17)
(0.675562538214818 -0.002569582322569 -6.66176308168105e-17)
(0.720263532349581 -0.00312229932305502 -1.39017255607261e-17)
(0.828020848592097 -0.00430943807061756 -1.60794092249434e-17)
(0.861371868412221 8.61011579481064e-07 1.29891015575032e-17)
(0.83267483781106 -0.000412004801170261 1.99085647782251e-19)
(0.840277706921742 -0.000254075046565794 -5.28994378940975e-18)
(0.824267432546886 -0.000422923607659802 -5.86899229568896e-18)
(0.821912417781198 -0.000380388771343029 2.11184867203887e-18)
(0.810644569679121 -0.000451558839202917 9.98869176800681e-18)
(0.804615744836416 -0.000440084395360155 -6.38385441236435e-18)
(0.795352957454332 -0.000466039648990509 -1.66957109121648e-18)
(0.788230306344765 -0.000460184545559929 1.01067587879527e-17)
(0.78010850121144 -0.000455474284699057 -7.89532006195241e-18)
(0.773237809742876 -0.000426098067948918 7.17762951674452e-19)
(0.766440740725952 -0.000404962811727531 -2.1972270974422e-18)
(0.760519541768498 -0.000381683842410728 -2.54241197142757e-18)
(0.755694507586428 -0.000213807118352438 -1.07684697348618e-19)
(-0.0433504809915035 0.00608456088283212 -7.6987906371614e-18)
(-0.0394773994728867 0.00631333050414112 -1.08076964631611e-17)
(-0.0384276644318595 0.00715601328149579 -1.49450069522382e-17)
(-0.0374970745833863 0.0077139443383896 -1.27313221215821e-17)
(-0.0369372042900041 0.00801069666506944 -1.68387489061911e-17)
(-0.0364794218909853 0.00813923470780844 -2.49355717685578e-17)
(-0.0360523333926763 0.00818400342347434 -1.48752123895787e-19)
(-0.0356231497927625 0.00819440150017498 -4.92695580239478e-18)
(-0.0351801083726269 0.00819334803396919 1.45016832318552e-17)
(-0.0347191172019433 0.00818880672964024 5.37649178153243e-18)
(-0.0342397081858892 0.00818328881411905 2.66521218978025e-17)
(-0.0337414471724707 0.00817771206713808 9.12684238350146e-17)
(-0.0332233281910087 0.00817195070838537 5.02831797363741e-17)
(-0.0326850604563613 0.00816544519416288 5.99905528272563e-17)
(-0.0321264170391631 0.00815861755889637 6.063126456223e-17)
(-0.0315459377440911 0.00815177012694042 -1.390926810853e-17)
(-0.0309426950748168 0.00814408950647414 1.16420706476233e-17)
(-0.030316453329954 0.00813580331100796 5.00660938853302e-17)
(-0.0296658852411776 0.00812744484514231 -6.37111054034579e-17)
(-0.0289894658397499 0.0081186510517956 7.2261597159672e-17)
(-0.0282865250543355 0.00810910727983079 -9.98501999759196e-17)
(-0.0275560420033945 0.00809933374548382 -1.59270000538055e-16)
(-0.0267959190518969 0.00808952950456185 -1.54416198004871e-16)
(-0.0260049959392002 0.00807890111009565 -2.25237520233528e-16)
(-0.025182343402571 0.00806814005117501 -3.92061362636504e-16)
(-0.0243252660921031 0.00805724488741629 -1.30355025309886e-16)
(-0.0234322598197785 0.00804426722371095 1.3270515810493e-17)
(-0.0225027802470293 0.00803072010112406 -9.95959145803437e-17)
(-0.0215339506290244 0.00801828584327272 -1.29487573879314e-16)
(-0.0205225791209207 0.0080053646752761 -1.08000491655431e-16)
(-0.0194674291243798 0.0079909764262938 -1.93681188606236e-16)
(-0.0183665748061379 0.0079762700392598 -1.75881194187678e-16)
(-0.0172158324319322 0.00796152027242458 -3.45311879663545e-17)
(-0.0160128865391568 0.00794487900241809 -2.97276075697187e-17)
(-0.0147561972860705 0.00792759951134933 3.14639186411218e-17)
(-0.0134409353202255 0.00791093916454876 6.11209971096961e-17)
(-0.0120627713202662 0.00789331322733831 -2.35901328697362e-17)
(-0.010619359680803 0.00787596408869509 -3.15708345056114e-16)
(-0.00910609397516705 0.00786592937126395 -4.0242083018621e-16)
(-0.00749306883651007 0.00787008864110806 -1.99547044183439e-16)
(-0.00578050407834118 0.00784987637941149 -3.52976559703376e-17)
(-0.00399150125922072 0.00781963733302403 -6.18453985310307e-17)
(-0.00211765755168504 0.00778985205260961 8.94081832722715e-17)
(-0.000148124286219291 0.00776073111777857 1.49232223123373e-16)
(0.0019236509625253 0.00772981801715661 9.62031637695788e-17)
(0.0041042431576876 0.00769904283568298 -4.62033384818822e-17)
(0.00640653988649045 0.00766960892931431 2.84170731245224e-16)
(0.00883946819577032 0.00763560189286567 5.89076814021162e-16)
(0.011408236304653 0.00760047865567102 2.22937925721158e-16)
(0.0141314481678174 0.0075686805621713 2.24039421089649e-16)
(0.017022457291879 0.00753048230532442 -2.55901714909917e-17)
(0.0200871172180263 0.0074891181859357 -1.75677113210012e-16)
(0.023345875079332 0.00744981422963177 4.90096780977339e-17)
(0.0268196894063482 0.00740511039007039 -3.37522510254359e-16)
(0.0305199854916552 0.0073535414558028 -5.2852876273618e-16)
(0.0344661979329867 0.00730270854418081 -6.81874273628914e-17)
(0.0386914276675971 0.00725098452000019 -2.5689534367455e-16)
(0.0432169105715001 0.00718663409543175 -2.53431403994622e-16)
(0.0480588013743827 0.00711793041409298 3.76891973444456e-16)
(0.053265597015076 0.00705270785532275 1.82821694693016e-16)
(0.0588736396972968 0.00697088057069587 1.59028637450729e-16)
(0.0649037235814711 0.00687794949139572 1.67183521955344e-16)
(0.0714095785642167 0.0067837454013057 9.71892894449358e-18)
(0.0784512007659772 0.00667660196136654 1.90392757848331e-16)
(0.0860685081053057 0.00654946528544641 1.79752798954761e-17)
(0.094320223666927 0.00640958368263647 -2.70491922683296e-16)
(0.103282416166586 0.00626733486064945 -2.21462901925282e-17)
(0.113093321284162 0.00613053441447649 -8.75306977882227e-17)
(0.123872453891367 0.00597708491907004 -8.86507471058827e-17)
(0.135751326909619 0.00576746600318592 2.34339673706093e-16)
(0.148702408140193 0.00549435179765617 3.51912570763052e-17)
(0.162935642269632 0.0051895841181734 4.07690139846526e-16)
(0.17845729582287 0.00486784215778662 1.9537412308462e-16)
(0.195809396433699 0.00448960535576248 -3.24134858916748e-17)
(0.214629847310932 0.00407784034352955 1.30710184076766e-16)
(0.236178704477853 0.00358809260835732 -3.13667681031341e-18)
(0.259172719624248 0.00305836836527832 -2.67254153385623e-18)
(0.286628713998315 0.00240981728548055 -8.05151309125152e-17)
(0.314881647782317 0.0017572996611863 -1.26782450089161e-16)
(0.351295370285138 0.000834567537705402 5.81028753115909e-17)
(0.385823917486229 2.91912712674945e-05 6.884239163218e-17)
(0.436847695839924 -0.00121569086522511 1.62408251178997e-16)
(0.479301621779988 -0.00220267368291683 -7.7885903935252e-17)
(0.556076569790056 -0.00404775686035779 -9.3172826430859e-17)
(0.608841614342554 -0.00510793880240213 -1.74808757386858e-18)
(0.735927066736474 -0.00681465388775851 -1.47136960484659e-17)
(0.77552253596894 -5.74505582154681e-05 3.00953697087149e-17)
(0.741616887878195 -0.00038057556556585 3.32637172223772e-19)
(0.750528169933983 -0.000274300545920662 -1.3214464318699e-18)
(0.731622841846486 -0.000411197957035338 -1.26810244548139e-17)
(0.728792954665137 -0.000387757114989496 2.95166056133756e-18)
(0.715475095223751 -0.000447010595111454 7.94828446977045e-18)
(0.708328876883518 -0.000442633590116664 -5.92039584028316e-18)
(0.697380586715016 -0.000463974234976681 -5.47370170566555e-18)
(0.688951829583865 -0.000461298618972464 1.09188378392259e-17)
(0.679336608763731 -0.000454933070112213 -8.73302378282089e-18)
(0.671213473097421 -0.000426074301163194 9.90248675249107e-19)
(0.663185072409033 -0.000404872832804565 -1.70518011391585e-18)
(0.656140562364023 -0.000384815791014622 -2.41025789151126e-18)
(0.650098074444682 -0.000215814333955907 3.16141126312128e-20)
(-0.179737362718575 0.00797108147463269 -7.55951731384565e-18)
(-0.177074166806424 0.00836167179036823 -9.96036271131507e-18)
(-0.176467459564823 0.00966259764589829 -1.50674828110283e-17)
(-0.175868321658123 0.010424040525836 -1.59078888106837e-17)
(-0.175466295238623 0.0108047424354255 -1.96572036944163e-17)
(-0.17509228616551 0.010962514373131 -2.77447220347813e-17)
(-0.174717336306399 0.0110156270000511 -2.2211834847882e-17)
(-0.174329027612766 0.0110268315308511 4.96669985660225e-18)
(-0.173923681549784 0.011024060954392 1.93154143092753e-17)
(-0.173499740483621 0.0110171673194934 4.97375152748314e-18)
(-0.173056958283827 0.0110091765115517 2.95670807080746e-17)
(-0.172594779185507 0.0110009934591868 8.95303380147099e-17)
(-0.17211221207603 0.0109925132673144 4.90451041628487e-17)
(-0.171608764258127 0.0109832841238524 6.28970436128427e-17)
(-0.171083987684448 0.0109735727468436 5.29637966464992e-17)
(-0.170536543694846 0.0109635758789088 -3.17303518206544e-17)
(-0.169965467435916 0.0109526953199978 3.0527080204123e-18)
(-0.169370292317757 0.0109410760896126 4.51044447786194e-17)
(-0.168749732144863 0.0109291034117242 2.4715786879786e-17)
(-0.168102317029877 0.0109165031153095 1.81837322950435e-17)
(-0.167427177052723 0.0109030296660204 -8.64170723881092e-17)
(-0.166723184566702 0.0108890591595152 -2.09139733130673e-16)
(-0.165988353664033 0.0108747288409888 -1.73877620101077e-16)
(-0.165221339485876 0.0108594342037397 -2.47240595284801e-16)
(-0.164420958698696 0.010843655014289 -4.26263771933602e-16)
(-0.163584623062305 0.0108273568381254 -1.34967373807002e-16)
(-0.162710914525144 0.010809066809167 5.23825271381599e-17)
(-0.161799137138668 0.0107899099405304 -6.57714224771571e-17)
(-0.160846236732853 0.0107711659449066 -2.15415433621348e-16)
(-0.159848936128113 0.0107516021334603 -1.33429856906011e-16)
(-0.158805709927559 0.0107304180790968 -1.86407824766071e-16)
(-0.157714468402464 0.0107084544941533 -2.45311208285667e-16)
(-0.156571202211368 0.0106858896664278 -2.5841019255962e-17)
(-0.155373364825928 0.010661272350569 -3.03757077559978e-17)
(-0.154119056352657 0.0106355531897234 -1.23145862104368e-17)
(-0.152803421006781 0.0106096606446233 1.08390365832294e-16)
(-0.15142208241018 0.0105824656147419 7.69537055963588e-17)
(-0.149971508541344 0.0105548578866115 -2.85687035001596e-16)
(-0.148446947531426 0.0105326050104275 -3.53601155497507e-16)
(-0.146820192147266 0.0105204701179385 -2.04610279013391e-16)
(-0.145090465928027 0.0104880361621761 1.12581351462104e-17)
(-0.143278965838417 0.0104461051762827 -1.11937733858237e-16)
(-0.141377605599245 0.0104034325958488 -7.45684509298536e-18)
(-0.139376363428121 0.0103602047009308 1.97467868451702e-16)
(-0.137267965594308 0.0103145119156541 2.11010358932762e-16)
(-0.135045415168174 0.0102677789362746 1.52118682856366e-16)
(-0.132695492232226 0.0102208465006728 3.60237957560426e-16)
(-0.13020859511978 0.0101688454427571 5.80801883567066e-16)
(-0.127579090556466 0.010114481118512 2.25176577836523e-16)
(-0.124787814603759 0.0100611581145431 2.67247755714841e-16)
(-0.121820551130197 0.0100008864805201 -4.3673488381996e-18)
(-0.11867089576879 0.00993612312313296 -1.32591496685679e-16)
(-0.1153173538374 0.0098709510810499 -2.19862977582485e-17)
(-0.111738404617358 0.00979907903220639 -3.09705780608787e-16)
(-0.107922170622412 0.00971913542649045 -5.55700787373856e-16)
(-0.103847866217642 0.00963716716928295 -1.58777862518287e-16)
(-0.0994805243734342 0.0095514876383228 -3.1255600385911e-16)
(-0.0947975717868348 0.00945217957018135 -2.53974447708744e-16)
(-0.0897828572667494 0.00934588107984533 4.30855265707777e-16)
(-0.0843848239411952 0.00923851959302617 1.80602477247132e-16)
(-0.0785647291763328 0.00911318203867833 2.08091873163858e-16)
(-0.0723019664079652 0.00897402193159822 1.84977914588105e-16)
(-0.0655396703498698 0.0088287098167329 1.17511775965054e-17)
(-0.0582140773632684 0.00866693632978032 1.70346160636556e-16)
(-0.0502838579645116 0.00848230548869475 8.11280979798801e-18)
(-0.0416875402458349 0.00828028318648139 -2.61184842747742e-16)
(-0.0323460597047643 0.0080687810853551 -8.43003561329903e-18)
(-0.0221134104315143 0.00785322461321205 -4.53855560814254e-17)
(-0.0108604203320158 0.00761328822264961 -9.54555192985192e-17)
(0.0015519362215299 0.00731469035908246 2.02353934665394e-16)
(0.0150902639337464 0.00695032086996443 7.94732316683997e-20)
(0.0299709284923129 0.00654685206326465 4.66047622663513e-16)