/*--------------------------------*- C++ -*----------------------------------*\
| =========                 |                                                 |
| \\      /  F ield         | foam-extend: Open Source CFD                    |
|  \\    /   O peration     | Version:     4.1-20200408                       |
|   \\  /    A nd           | Web:         http://www.foam-extend.org         |
|    \\/     M anipulation  |                                                 |
\*---------------------------------------------------------------------------*/
FoamFile
{
    version     2.0;
    format      ascii;
    class       volVectorField;
    location    "0.0730000";
    object      DU;
}
// * * * * * * * * * * * * * * * * * * * * * * * * * * * * * * * * * * * * * //

dimensions      [0 1 0 0 0 0 0];

internalField   nonuniform List<vector> 
1952
(
(4.99999e-05 -1.45027e-09 0)
(5e-05 -2.27269e-09 0)
(5e-05 -3.2874e-09 0)
(5.00001e-05 -4.03714e-09 0)
(5.00002e-05 -5.09321e-09 0)
(5.00004e-05 -5.76933e-09 0)
(5.00006e-05 -6.81027e-09 0)
(5.00008e-05 -7.39326e-09 0)
(5.00012e-05 -8.35567e-09 0)
(5.00016e-05 -8.79306e-09 0)
(5.00022e-05 -9.58153e-09 0)
(5.00032e-05 -9.77277e-09 0)
(5.00046e-05 -1.02033e-08 0)
(5.00072e-05 -9.97899e-09 0)
(5.0012e-05 -9.64835e-09 0)
(4.99999e-05 -6.12139e-10 0)
(5.00001e-05 -7.13099e-10 0)
(5.00002e-05 -1.12537e-09 0)
(5.00003e-05 -1.59309e-09 0)
(5.00004e-05 -1.95785e-09 0)
(5.00006e-05 -2.40155e-09 0)
(5.00008e-05 -2.69409e-09 0)
(5.00012e-05 -3.08705e-09 0)
(5.00016e-05 -3.28421e-09 0)
(5.00021e-05 -3.59091e-09 0)
(5.00026e-05 -3.65678e-09 0)
(5.00034e-05 -3.8353e-09 0)
(5.00043e-05 -3.74186e-09 0)
(5.00054e-05 -3.77414e-09 0)
(5.00066e-05 -3.53946e-09 0)
(5.00082e-05 -3.56355e-09 0)
(5.00001e-05 -3.02673e-10 0)
(5.00002e-05 -5.0239e-10 0)
(5.00003e-05 -8.04369e-10 0)
(5.00004e-05 -1.11018e-09 0)
(5.00005e-05 -1.3742e-09 0)
(5.00008e-05 -1.63849e-09 0)
(5.0001e-05 -1.8329e-09 0)
(5.00014e-05 -2.03629e-09 0)
(5.00018e-05 -2.13769e-09 0)
(5.00023e-05 -2.25556e-09 0)
(5.00029e-05 -2.23953e-09 0)
(5.00037e-05 -2.2532e-09 0)
(5.00046e-05 -2.1241e-09 0)
(5.00057e-05 -2.0645e-09 0)
(5.00069e-05 -1.87698e-09 0)
(5.00084e-05 -1.85349e-09 0)
(5.00002e-05 -2.15124e-10 0)
(5.00005e-05 -3.16358e-10 0)
(5.00006e-05 -5.04589e-10 0)
(5.00008e-05 -6.85545e-10 0)
(5.00009e-05 -8.39105e-10 0)
(5.00012e-05 -9.78591e-10 0)
(5.00014e-05 -1.06926e-09 0)
(5.00019e-05 -1.14951e-09 0)
(5.00023e-05 -1.15744e-09 0)
(5.00029e-05 -1.16319e-09 0)
(5.00034e-05 -1.0762e-09 0)
(5.00042e-05 -1.00763e-09 0)
(5.0005e-05 -8.4697e-10 0)
(5.0006e-05 -7.54916e-10 0)
(5.0007e-05 -6.00946e-10 0)
(5.00081e-05 -6.30008e-10 0)
(5.00005e-05 -1.3573e-10 0)
(5.0001e-05 -1.59401e-10 0)
(5.00011e-05 -2.50644e-10 0)
(5.00012e-05 -3.31734e-10 0)
(5.00014e-05 -3.9123e-10 0)
(5.00017e-05 -4.34185e-10 0)
(5.0002e-05 -4.39363e-10 0)
(5.00024e-05 -4.32228e-10 0)
(5.00028e-05 -3.70596e-10 0)
(5.00034e-05 -3.08088e-10 0)
(5.00039e-05 -1.81097e-10 0)
(5.00047e-05 -7.6959e-11 0)
(5.00054e-05 8.29435e-11 0)
(5.00063e-05 1.74488e-10 0)
(5.00072e-05 2.95219e-10 0)
(5.00081e-05 2.77249e-10 0)
(5.0001e-05 -6.86314e-11 0)
(5.00016e-05 -3.04514e-11 0)
(5.00017e-05 -4.19893e-11 0)
(5.00018e-05 -4.37713e-11 0)
(5.0002e-05 -2.74e-11 0)
(5.00023e-05 1.7232e-12 0)
(5.00026e-05 6.24516e-11 0)
(5.0003e-05 1.29849e-10 0)
(5.00034e-05 2.4109e-10 0)
(5.0004e-05 3.4534e-10 0)
(5.00045e-05 4.97526e-10 0)
(5.00052e-05 6.18598e-10 0)
(5.00059e-05 7.75809e-10 0)
(5.00066e-05 8.6325e-10 0)
(5.00073e-05 9.62648e-10 0)
(5.0008e-05 9.42215e-10 0)
(5.00015e-05 -1.33814e-11 0)
(5.00022e-05 7.12461e-11 0)
(5.00023e-05 1.22238e-10 0)
(5.00025e-05 1.8133e-10 0)
(5.00027e-05 2.55976e-10 0)
(5.0003e-05 3.38096e-10 0)
(5.00032e-05 4.47107e-10 0)
(5.00037e-05 5.54859e-10 0)
(5.00041e-05 6.98762e-10 0)
(5.00046e-05 8.26009e-10 0)
(5.00051e-05 9.90018e-10 0)
(5.00057e-05 1.11518e-09 0)
(5.00063e-05 1.26485e-09 0)
(5.0007e-05 1.34676e-09 0)
(5.00075e-05 1.4343e-09 0)
(5.00081e-05 1.42571e-09 0)
(5.00022e-05 3.0238e-11 0)
(5.0003e-05 1.48149e-10 0)
(5.00031e-05 2.46082e-10 0)
(5.00032e-05 3.50109e-10 0)
(5.00034e-05 4.67303e-10 0)
(5.00037e-05 5.86517e-10 0)
(5.0004e-05 7.29003e-10 0)
(5.00044e-05 8.62398e-10 0)
(5.00047e-05 1.02687e-09 0)
(5.00053e-05 1.16602e-09 0)
(5.00057e-05 1.3356e-09 0)
(5.00063e-05 1.46044e-09 0)
(5.00067e-05 1.60431e-09 0)
(5.00073e-05 1.68304e-09 0)
(5.00077e-05 1.76551e-09 0)
(5.00082e-05 1.76834e-09 0)
(5.00029e-05 6.32554e-11 0)
(5.00037e-05 2.03051e-10 0)
(5.00038e-05 3.34258e-10 0)
(5.0004e-05 4.6954e-10 0)
(5.00041e-05 6.16083e-10 0)
(5.00044e-05 7.59627e-10 0)
(5.00047e-05 9.23972e-10 0)
(5.00051e-05 1.07209e-09 0)
(5.00054e-05 1.24844e-09 0)
(5.00059e-05 1.39203e-09 0)
(5.00063e-05 1.56317e-09 0)
(5.00068e-05 1.68535e-09 0)
(5.00072e-05 1.82503e-09 0)
(5.00077e-05 1.90301e-09 0)
(5.0008e-05 1.98589e-09 0)
(5.00083e-05 2.00314e-09 0)
(5.00037e-05 8.68491e-11 0)
(5.00045e-05 2.39129e-10 0)
(5.00046e-05 3.92008e-10 0)
(5.00047e-05 5.47136e-10 0)
(5.00049e-05 7.12151e-10 0)
(5.00052e-05 8.69827e-10 0)
(5.00054e-05 1.04705e-09 0)
(5.00058e-05 1.20195e-09 0)
(5.00061e-05 1.38433e-09 0)
(5.00065e-05 1.52791e-09 0)
(5.00068e-05 1.69902e-09 0)
(5.00073e-05 1.81817e-09 0)
(5.00076e-05 1.95609e-09 0)
(5.0008e-05 2.03553e-09 0)
(5.00083e-05 2.12237e-09 0)
(5.00086e-05 2.1542e-09 0)
(5.00044e-05 1.02373e-10 0)
(5.00052e-05 2.59417e-10 0)
(5.00053e-05 4.24336e-10 0)
(5.00055e-05 5.8993e-10 0)
(5.00056e-05 7.64731e-10 0)
(5.00059e-05 9.28494e-10 0)
(5.00061e-05 1.11189e-09 0)
(5.00065e-05 1.26771e-09 0)
(5.00067e-05 1.45225e-09 0)
(5.00071e-05 1.5929e-09 0)
(5.00074e-05 1.76339e-09 0)
(5.00078e-05 1.87968e-09 0)
(5.00081e-05 2.01794e-09 0)
(5.00084e-05 2.10059e-09 0)
(5.00086e-05 2.19402e-09 0)
(5.00088e-05 2.24078e-09 0)
(5.00052e-05 1.11122e-10 0)
(5.0006e-05 2.66739e-10 0)
(5.0006e-05 4.35841e-10 0)
(5.00062e-05 6.04343e-10 0)
(5.00063e-05 7.82038e-10 0)
(5.00066e-05 9.4563e-10 0)
(5.00068e-05 1.13019e-09 0)
(5.00071e-05 1.28267e-09 0)
(5.00073e-05 1.46685e-09 0)
(5.00077e-05 1.6028e-09 0)
(5.0008e-05 1.77278e-09 0)
(5.00083e-05 1.88667e-09 0)
(5.00086e-05 2.02714e-09 0)
(5.00089e-05 2.11429e-09 0)
(5.0009e-05 2.21603e-09 0)
(5.00091e-05 2.27745e-09 0)
(5.00059e-05 1.14306e-10 0)
(5.00067e-05 2.63547e-10 0)
(5.00067e-05 4.3052e-10 0)
(5.00069e-05 5.95869e-10 0)
(5.0007e-05 7.71109e-10 0)
(5.00073e-05 9.29623e-10 0)
(5.00074e-05 1.11172e-09 0)
(5.00078e-05 1.25765e-09 0)
(5.00079e-05 1.43993e-09 0)
(5.00083e-05 1.56995e-09 0)
(5.00085e-05 1.73984e-09 0)
(5.00089e-05 1.85176e-09 0)
(5.0009e-05 1.996e-09 0)
(5.00093e-05 2.08857e-09 0)
(5.00094e-05 2.19986e-09 0)
(5.00095e-05 2.27567e-09 0)
(5.00066e-05 1.12977e-10 0)
(5.00073e-05 2.51938e-10 0)
(5.00074e-05 4.11747e-10 0)
(5.00076e-05 5.69152e-10 0)
(5.00077e-05 7.3777e-10 0)
(5.00079e-05 8.87404e-10 0)
(5.00081e-05 1.06435e-09 0)
(5.00084e-05 1.20134e-09 0)
(5.00085e-05 1.38077e-09 0)
(5.00089e-05 1.50404e-09 0)
(5.00091e-05 1.67437e-09 0)
(5.00094e-05 1.78472e-09 0)
(5.00095e-05 1.93401e-09 0)
(5.00097e-05 2.03266e-09 0)
(5.00098e-05 2.15438e-09 0)
(5.00099e-05 2.24424e-09 0)
(5.00073e-05 1.08032e-10 0)
(5.0008e-05 2.33628e-10 0)
(5.0008e-05 3.82297e-10 0)
(5.00082e-05 5.27943e-10 0)
(5.00083e-05 6.86758e-10 0)
(5.00085e-05 8.24475e-10 0)
(5.00086e-05 9.9438e-10 0)
(5.0009e-05 1.12051e-09 0)
(5.00091e-05 1.29657e-09 0)
(5.00095e-05 1.4124e-09 0)
(5.00096e-05 1.58379e-09 0)
(5.00099e-05 1.69282e-09 0)
(5.001e-05 1.84824e-09 0)
(5.00102e-05 1.95344e-09 0)
(5.00103e-05 2.0863e-09 0)
(5.00103e-05 2.19002e-09 0)
(5.00079e-05 1.00208e-10 0)
(5.00085e-05 2.10032e-10 0)
(5.00086e-05 3.44431e-10 0)
(5.00088e-05 4.75319e-10 0)
(5.00088e-05 6.21874e-10 0)
(5.00091e-05 7.45274e-10 0)
(5.00092e-05 9.06758e-10 0)
(5.00096e-05 1.02047e-09 0)
(5.00097e-05 1.19292e-09 0)
(5.001e-05 1.30071e-09 0)
(5.00101e-05 1.47375e-09 0)
(5.00104e-05 1.58164e-09 0)
(5.00105e-05 1.74409e-09 0)
(5.00107e-05 1.85625e-09 0)
(5.00107e-05 2.00088e-09 0)
(5.00108e-05 2.11842e-09 0)
(5.00085e-05 9.01135e-11 0)
(5.00091e-05 1.82304e-10 0)
(5.00091e-05 3e-10 0)
(5.00093e-05 4.13743e-10 0)
(5.00094e-05 5.46203e-10 0)
(5.00096e-05 6.53293e-10 0)
(5.00097e-05 8.05424e-10 0)
(5.00101e-05 9.05346e-10 0)
(5.00102e-05 1.07414e-09 0)
(5.00105e-05 1.17328e-09 0)
(5.00106e-05 1.34856e-09 0)
(5.00109e-05 1.45536e-09 0)
(5.0011e-05 1.62567e-09 0)
(5.00112e-05 1.74518e-09 0)
(5.00112e-05 1.90221e-09 0)
(5.00112e-05 2.03378e-09 0)
(5.0009e-05 7.82437e-11 0)
(5.00095e-05 1.5144e-10 0)
(5.00096e-05 2.50583e-10 0)
(5.00098e-05 3.4534e-10 0)
(5.00098e-05 4.62345e-10 0)
(5.00101e-05 5.51506e-10 0)
(5.00102e-05 6.9366e-10 0)
(5.00106e-05 7.78586e-10 0)
(5.00107e-05 9.43805e-10 0)
(5.0011e-05 1.03367e-09 0)
(5.00112e-05 1.21176e-09 0)
(5.00114e-05 1.31746e-09 0)
(5.00115e-05 1.49639e-09 0)
(5.00117e-05 1.62367e-09 0)
(5.00117e-05 1.7938e-09 0)
(5.00118e-05 1.93988e-09 0)
(5.00095e-05 6.5026e-11 0)
(5.00099e-05 1.18347e-10 0)
(5.001e-05 1.97632e-10 0)
(5.00102e-05 2.72017e-10 0)
(5.00103e-05 3.72673e-10 0)
(5.00106e-05 4.42547e-10 0)
(5.00107e-05 5.7442e-10 0)
(5.0011e-05 6.43204e-10 0)
(5.00112e-05 8.05068e-10 0)
(5.00115e-05 8.84968e-10 0)
(5.00117e-05 1.06644e-09 0)
(5.0012e-05 1.17095e-09 0)
(5.00121e-05 1.35925e-09 0)
(5.00122e-05 1.49475e-09 0)
(5.00123e-05 1.67878e-09 0)
(5.00123e-05 1.84018e-09 0)
(5.00099e-05 5.08511e-11 0)
(5.00103e-05 8.39612e-11 0)
(5.00103e-05 1.42624e-10 0)
(5.00105e-05 1.95745e-10 0)
(5.00106e-05 2.79599e-10 0)
(5.0011e-05 3.29138e-10 0)
(5.00111e-05 4.50706e-10 0)
(5.00115e-05 5.0231e-10 0)
(5.00116e-05 6.61154e-10 0)
(5.0012e-05 7.30356e-10 0)
(5.00122e-05 9.15779e-10 0)
(5.00125e-05 1.01894e-09 0)
(5.00126e-05 1.21735e-09 0)
(5.00128e-05 1.36163e-09 0)
(5.00128e-05 1.56047e-09 0)
(5.00129e-05 1.73833e-09 0)
(5.00102e-05 3.61198e-11 0)
(5.00105e-05 4.93429e-11 0)
(5.00106e-05 8.72537e-11 0)
(5.00108e-05 1.18749e-10 0)
(5.00109e-05 1.85893e-10 0)
(5.00113e-05 2.14354e-10 0)
(5.00114e-05 3.25967e-10 0)
(5.00119e-05 3.59434e-10 0)
(5.0012e-05 5.15768e-10 0)
(5.00125e-05 5.73478e-10 0)
(5.00126e-05 7.63451e-10 0)
(5.0013e-05 8.65046e-10 0)
(5.00132e-05 1.07429e-09 0)
(5.00134e-05 1.22797e-09 0)
(5.00134e-05 1.44264e-09 0)
(5.00135e-05 1.63843e-09 0)
(5.00105e-05 2.12881e-11 0)
(5.00108e-05 1.58117e-11 0)
(5.00108e-05 3.36144e-11 0)
(5.00111e-05 4.38199e-11 0)
(5.00112e-05 9.49857e-11 0)
(5.00116e-05 1.02081e-10 0)
(5.00117e-05 2.04512e-10 0)
(5.00122e-05 2.19071e-10 0)
(5.00124e-05 3.73601e-10 0)
(5.00129e-05 4.19003e-10 0)
(5.00131e-05 6.14151e-10 0)
(5.00135e-05 7.13868e-10 0)
(5.00137e-05 9.34672e-10 0)
(5.0014e-05 1.0984e-09 0)
(5.00141e-05 1.33004e-09 0)
(5.00141e-05 1.54555e-09 0)
(5.00107e-05 6.92187e-12 0)
(5.00109e-05 -1.49251e-11 0)
(5.0011e-05 -1.55673e-11 0)
(5.00113e-05 -2.54252e-11 0)
(5.00114e-05 1.13708e-11 0)
(5.00118e-05 -2.61505e-12 0)
(5.0012e-05 9.20231e-11 0)
(5.00125e-05 8.71381e-11 0)
(5.00128e-05 2.40885e-10 0)
(5.00133e-05 2.73135e-10 0)
(5.00136e-05 4.74151e-10 0)
(5.0014e-05 5.71565e-10 0)
(5.00143e-05 8.046e-10 0)
(5.00146e-05 9.79042e-10 0)
(5.00147e-05 1.22881e-09 0)
(5.00148e-05 1.46617e-09 0)
(5.00108e-05 -6.24585e-12 0)
(5.00109e-05 -4.05994e-11 0)
(5.0011e-05 -5.66749e-11 0)
(5.00114e-05 -8.4152e-11 0)
(5.00115e-05 -5.89827e-11 0)
(5.0012e-05 -9.29157e-11 0)
(5.00122e-05 -3.91428e-12 0)
(5.00128e-05 -2.83626e-11 0)
(5.00131e-05 1.25987e-10 0)
(5.00137e-05 1.44289e-10 0)
(5.00141e-05 3.51906e-10 0)
(5.00146e-05 4.46447e-10 0)
(5.00149e-05 6.92273e-10 0)
(5.00153e-05 8.78023e-10 0)
(5.00155e-05 1.14706e-09 0)
(5.00156e-05 1.40862e-09 0)
(5.00109e-05 -1.72418e-11 0)
(5.00109e-05 -5.82207e-11 0)
(5.0011e-05 -8.49308e-11 0)
(5.00114e-05 -1.25972e-10 0)
(5.00115e-05 -1.08153e-10 0)
(5.00121e-05 -1.59772e-10 0)
(5.00124e-05 -7.3166e-11 0)
(5.0013e-05 -1.16744e-10 0)
(5.00134e-05 4.01737e-11 0)
(5.0014e-05 4.37687e-11 0)
(5.00145e-05 2.58854e-10 0)
(5.00151e-05 3.49714e-10 0)
(5.00155e-05 6.08752e-10 0)
(5.00159e-05 8.06218e-10 0)
(5.00162e-05 1.09554e-09 0)
(5.00164e-05 1.38386e-09 0)
(5.00109e-05 -2.47829e-11 0)
(5.00108e-05 -6.38273e-11 0)
(5.0011e-05 -9.39984e-11 0)
(5.00114e-05 -1.42386e-10 0)
(5.00115e-05 -1.25624e-10 0)
(5.00122e-05 -1.91092e-10 0)
(5.00124e-05 -1.02252e-10 0)
(5.00132e-05 -1.63669e-10 0)
(5.00136e-05 -1.54276e-12 0)
(5.00144e-05 -1.32399e-11 0)
(5.00149e-05 2.10231e-10 0)
(5.00156e-05 2.96333e-10 0)
(5.00161e-05 5.68686e-10 0)
(5.00167e-05 7.77964e-10 0)
(5.0017e-05 1.08828e-09 0)
(5.00173e-05 1.40598e-09 0)
(5.00108e-05 -2.71683e-11 0)
(5.00107e-05 -5.22939e-11 0)
(5.00108e-05 -7.56841e-11 0)
(5.00113e-05 -1.22375e-10 0)
(5.00115e-05 -9.77515e-11 0)
(5.00121e-05 -1.71148e-10 0)
(5.00125e-05 -7.35859e-11 0)
(5.00133e-05 -1.50434e-10 0)
(5.00138e-05 2.05439e-11 0)
(5.00147e-05 -6.87306e-12 0)
(5.00153e-05 2.26121e-10 0)
(5.00161e-05 3.05912e-10 0)
(5.00168e-05 5.91348e-10 0)
(5.00174e-05 8.11972e-10 0)
(5.00179e-05 1.14355e-09 0)
(5.00183e-05 1.49314e-09 0)
(5.00106e-05 -2.21992e-11 0)
(5.00105e-05 -1.698e-11 0)
(5.00106e-05 -1.93445e-11 0)
(5.00111e-05 -5.16166e-11 0)
(5.00113e-05 -6.78703e-12 0)
(5.00121e-05 -7.94102e-11 0)
(5.00125e-05 3.57602e-11 0)
(5.00134e-05 -5.25036e-11 0)
(5.0014e-05 1.32168e-10 0)
(5.00149e-05 8.90031e-11 0)
(5.00157e-05 3.32745e-10 0)
(5.00166e-05 4.04189e-10 0)
(5.00175e-05 7.01806e-10 0)
(5.00182e-05 9.32569e-10 0)
(5.00189e-05 1.28486e-09 0)
(5.00193e-05 1.66858e-09 0)
(5.00104e-05 -7.02438e-12 0)
(5.00103e-05 5.0497e-11 0)
(5.00104e-05 8.84403e-11 0)
(5.00109e-05 8.80194e-11 0)
(5.00112e-05 1.69718e-10 0)
(5.0012e-05 1.10177e-10 0)
(5.00124e-05 2.54929e-10 0)
(5.00134e-05 1.61317e-10 0)
(5.00141e-05 3.66213e-10 0)
(5.00152e-05 3.07649e-10 0)
(5.00161e-05 5.63713e-10 0)
(5.00172e-05 6.239e-10 0)
(5.00182e-05 9.32115e-10 0)
(5.00191e-05 1.17057e-09 0)
(5.00199e-05 1.54199e-09 0)
(5.00205e-05 1.96144e-09 0)
(5.00102e-05 2.19531e-11 0)
(5.001e-05 1.60698e-10 0)
(5.00102e-05 2.64624e-10 0)
(5.00107e-05 3.19448e-10 0)
(5.0011e-05 4.60203e-10 0)
(5.00119e-05 4.30726e-10 0)
(5.00123e-05 6.20988e-10 0)
(5.00134e-05 5.30941e-10 0)
(5.00142e-05 7.64669e-10 0)
(5.00154e-05 6.91856e-10 0)
(5.00165e-05 9.62049e-10 0)
(5.00177e-05 1.00722e-09 0)
(5.00189e-05 1.32327e-09 0)
(5.002e-05 1.56548e-09 0)
(5.0021e-05 1.95283e-09 0)
(5.00218e-05 2.40864e-09 0)
(5.00099e-05 6.92678e-11 0)
(5.00099e-05 3.26626e-10 0)
(5.001e-05 5.30074e-10 0)
(5.00106e-05 6.70985e-10 0)
(5.00108e-05 8.99809e-10 0)
(5.00118e-05 9.23314e-10 0)
(5.00123e-05 1.18001e-09 0)
(5.00134e-05 1.10605e-09 0)
(5.00143e-05 1.38003e-09 0)
(5.00156e-05 1.295e-09 0)
(5.00169e-05 1.58172e-09 0)
(5.00182e-05 1.60672e-09 0)
(5.00196e-05 1.92657e-09 0)
(5.00209e-05 2.16627e-09 0)
(5.00222e-05 2.56426e-09 0)
(5.00232e-05 3.05551e-09 0)
(5.00098e-05 1.405e-10 0)
(5.00098e-05 5.64145e-10 0)
(5.00099e-05 9.10309e-10 0)
(5.00105e-05 1.17733e-09 0)
(5.00107e-05 1.53172e-09 0)
(5.00117e-05 1.63864e-09 0)
(5.00122e-05 1.98901e-09 0)
(5.00134e-05 1.94852e-09 0)
(5.00144e-05 2.27779e-09 0)
(5.00158e-05 2.18411e-09 0)
(5.00172e-05 2.49048e-09 0)
(5.00187e-05 2.48873e-09 0)
(5.00204e-05 2.80657e-09 0)
(5.00219e-05 3.03467e-09 0)
(5.00235e-05 3.43512e-09 0)
(5.00248e-05 3.95876e-09 0)
(5.00097e-05 2.4246e-10 0)
(5.001e-05 8.92234e-10 0)
(5.001e-05 1.4359e-09 0)
(5.00106e-05 1.88022e-09 0)
(5.00107e-05 2.40799e-09 0)
(5.00117e-05 2.63815e-09 0)
(5.00122e-05 3.11733e-09 0)
(5.00134e-05 3.13396e-09 0)
(5.00145e-05 3.53831e-09 0)
(5.00159e-05 3.44168e-09 0)
(5.00175e-05 3.77203e-09 0)
(5.00192e-05 3.73506e-09 0)
(5.00211e-05 4.04298e-09 0)
(5.0023e-05 4.24645e-09 0)
(5.00249e-05 4.63739e-09 0)
(5.00266e-05 5.18729e-09 0)
(5.00098e-05 3.83295e-10 0)
(5.00104e-05 1.33315e-09 0)
(5.00104e-05 2.14276e-09 0)
(5.0011e-05 2.82892e-09 0)
(5.0011e-05 3.59028e-09 0)
(5.00119e-05 3.99508e-09 0)
(5.00123e-05 4.64811e-09 0)
(5.00135e-05 4.75369e-09 0)
(5.00146e-05 5.25929e-09 0)
(5.00161e-05 5.16861e-09 0)
(5.00178e-05 5.52938e-09 0)
(5.00197e-05 5.4467e-09 0)
(5.00219e-05 5.73456e-09 0)
(5.00241e-05 5.89533e-09 0)
(5.00264e-05 6.25992e-09 0)
(5.00285e-05 6.82584e-09 0)
(5.00103e-05 5.72554e-10 0)
(5.00113e-05 1.91241e-09 0)
(5.00111e-05 3.07225e-09 0)
(5.00117e-05 4.08042e-09 0)
(5.00115e-05 5.15035e-09 0)
(5.00124e-05 5.79542e-09 0)
(5.00126e-05 6.6796e-09 0)
(5.00138e-05 6.91673e-09 0)
(5.00148e-05 7.55815e-09 0)
(5.00163e-05 7.48739e-09 0)
(5.00181e-05 7.88817e-09 0)
(5.00201e-05 7.7476e-09 0)
(5.00227e-05 8.00259e-09 0)
(5.00252e-05 8.09629e-09 0)
(5.00279e-05 8.41121e-09 0)
(5.00306e-05 8.97727e-09 0)
(5.00112e-05 8.21194e-10 0)
(5.00128e-05 2.65834e-09 0)
(5.00125e-05 4.27035e-09 0)
(5.00129e-05 5.69863e-09 0)
(5.00125e-05 7.16915e-09 0)
(5.00133e-05 8.13717e-09 0)
(5.00133e-05 9.32493e-09 0)
(5.00143e-05 9.75007e-09 0)
(5.00151e-05 1.05734e-08 0)
(5.00165e-05 1.05439e-08 0)
(5.00185e-05 1.1e-08 0)
(5.00205e-05 1.0788e-08 0)
(5.00234e-05 1.09956e-08 0)
(5.00263e-05 1.09898e-08 0)
(5.00296e-05 1.12241e-08 0)
(5.00328e-05 1.1767e-08 0)
(5.00127e-05 1.14136e-09 0)
(5.00152e-05 3.60114e-09 0)
(5.00147e-05 5.78641e-09 0)
(5.00149e-05 7.75275e-09 0)
(5.00142e-05 9.73529e-09 0)
(5.00147e-05 1.11292e-08 0)
(5.00144e-05 1.27115e-08 0)
(5.00151e-05 1.33994e-08 0)
(5.00157e-05 1.44662e-08 0)
(5.00169e-05 1.45112e-08 0)
(5.00188e-05 1.5047e-08 0)
(5.00209e-05 1.4751e-08 0)
(5.00241e-05 1.48959e-08 0)
(5.00274e-05 1.47491e-08 0)
(5.00313e-05 1.48623e-08 0)
(5.00353e-05 1.5349e-08 0)
(5.00151e-05 1.54599e-09 0)
(5.00186e-05 4.77098e-09 0)
(5.00179e-05 7.67016e-09 0)
(5.00179e-05 1.03135e-08 0)
(5.00168e-05 1.29406e-08 0)
(5.00169e-05 1.48867e-08 0)
(5.00161e-05 1.69767e-08 0)
(5.00164e-05 1.80254e-08 0)
(5.00166e-05 1.94181e-08 0)
(5.00174e-05 1.95883e-08 0)
(5.00192e-05 2.02429e-08 0)
(5.00213e-05 1.98548e-08 0)
(5.00247e-05 1.99243e-08 0)
(5.00284e-05 1.95839e-08 0)
(5.0033e-05 1.95243e-08 0)
(5.00379e-05 1.99078e-08 0)
(5.00187e-05 2.04803e-09 0)
(5.00236e-05 6.19522e-09 0)
(5.00225e-05 9.96714e-09 0)
(5.00222e-05 1.34472e-08 0)
(5.00205e-05 1.68733e-08 0)
(5.00201e-05 1.95238e-08 0)
(5.00186e-05 2.22609e-08 0)
(5.00183e-05 2.37982e-08 0)
(5.00179e-05 2.56278e-08 0)
(5.00183e-05 2.60009e-08 0)
(5.00197e-05 2.68375e-08 0)
(5.00216e-05 2.63615e-08 0)
(5.00252e-05 2.63513e-08 0)
(5.00292e-05 2.57537e-08 0)
(5.00346e-05 2.5456e-08 0)
(5.00406e-05 2.56687e-08 0)
(5.00236e-05 2.65916e-09 0)
(5.00303e-05 7.89395e-09 0)
(5.00288e-05 1.27119e-08 0)
(5.00281e-05 1.72065e-08 0)
(5.00258e-05 2.16066e-08 0)
(5.00247e-05 2.51412e-08 0)
(5.00223e-05 2.86943e-08 0)
(5.00212e-05 3.0885e-08 0)
(5.00199e-05 3.33001e-08 0)
(5.00195e-05 3.39941e-08 0)
(5.00204e-05 3.51145e-08 0)
(5.00218e-05 3.45818e-08 0)
(5.00255e-05 3.4511e-08 0)
(5.00298e-05 3.35878e-08 0)
(5.00361e-05 3.29768e-08 0)
(5.00433e-05 3.29258e-08 0)
(5.00305e-05 3.38795e-09 0)
(5.00392e-05 9.87392e-09 0)
(5.00372e-05 1.59178e-08 0)
(5.00361e-05 2.16164e-08 0)
(5.00329e-05 2.71815e-08 0)
(5.00309e-05 3.18052e-08 0)
(5.00275e-05 3.63741e-08 0)
(5.00253e-05 3.94267e-08 0)
(5.00229e-05 4.26245e-08 0)
(5.00214e-05 4.38152e-08 0)
(5.00214e-05 4.53822e-08 0)
(5.0022e-05 4.4878e-08 0)
(5.00255e-05 4.48188e-08 0)
(5.003e-05 4.352e-08 0)
(5.00373e-05 4.25373e-08 0)
(5.0046e-05 4.21087e-08 0)
(5.00395e-05 4.2372e-09 0)
(5.00508e-05 1.21209e-08 0)
(5.00483e-05 1.95649e-08 0)
(5.00465e-05 2.66574e-08 0)
(5.00424e-05 3.35849e-08 0)
(5.00394e-05 3.95222e-08 0)
(5.00347e-05 4.53345e-08 0)
(5.00311e-05 4.95044e-08 0)
(5.00272e-05 5.37384e-08 0)
(5.00242e-05 5.56769e-08 0)
(5.00229e-05 5.79355e-08 0)
(5.00224e-05 5.76288e-08 0)
(5.00254e-05 5.77347e-08 0)
(5.00297e-05 5.60534e-08 0)
(5.00379e-05 5.4681e-08 0)
(5.00484e-05 5.37267e-08 0)
(5.00512e-05 5.20071e-09 0)
(5.00655e-05 1.45904e-08 0)
(5.00624e-05 2.35839e-08 0)
(5.00598e-05 3.22423e-08 0)
(5.00546e-05 4.07189e-08 0)
(5.00504e-05 4.8199e-08 0)
(5.00442e-05 5.54996e-08 0)
(5.0039e-05 6.10864e-08 0)
(5.00332e-05 6.66715e-08 0)
(5.00284e-05 6.97025e-08 0)
(5.00252e-05 7.30092e-08 0)
(5.00231e-05 7.31869e-08 0)
(5.0025e-05 7.37186e-08 0)
(5.00288e-05 7.16865e-08 0)
(5.00379e-05 6.98782e-08 0)
(5.00503e-05 6.80863e-08 0)
(5.00661e-05 6.25922e-09 0)
(5.00837e-05 1.71978e-08 0)
(5.00799e-05 2.78403e-08 0)
(5.00766e-05 3.81923e-08 0)
(5.00702e-05 4.83686e-08 0)
(5.00646e-05 5.7601e-08 0)
(5.00566e-05 6.66314e-08 0)
(5.00495e-05 7.39669e-08 0)
(5.00415e-05 8.12797e-08 0)
(5.00344e-05 8.58728e-08 0)
(5.00288e-05 9.07603e-08 0)
(5.00243e-05 9.19497e-08 0)
(5.00245e-05 9.3445e-08 0)
(5.00271e-05 9.13205e-08 0)
(5.00367e-05 8.90676e-08 0)
(5.00514e-05 8.5872e-08 0)
(5.00844e-05 7.3763e-09 0)
(5.01057e-05 1.981e-08 0)
(5.01012e-05 3.21187e-08 0)
(5.0097e-05 4.42127e-08 0)
(5.00894e-05 5.6164e-08 0)
(5.00823e-05 6.72953e-08 0)
(5.00725e-05 7.82466e-08 0)
(5.00633e-05 8.76503e-08 0)
(5.00528e-05 9.70932e-08 0)
(5.0043e-05 1.03843e-07 0)
(5.00345e-05 1.11091e-07 0)
(5.00269e-05 1.14281e-07 0)
(5.00242e-05 1.18056e-07 0)
(5.00243e-05 1.1719e-07 0)
(5.00334e-05 1.15842e-07 0)
(5.00509e-05 1.11827e-07 0)
(5.01066e-05 8.49482e-09 0)
(5.01316e-05 2.22416e-08 0)
(5.01264e-05 3.61157e-08 0)
(5.01215e-05 4.98785e-08 0)
(5.01126e-05 6.35554e-08 0)
(5.0104e-05 7.66064e-08 0)
(5.00923e-05 8.95389e-08 0)
(5.0081e-05 1.01211e-07 0)
(5.00678e-05 1.13067e-07 0)
(5.00553e-05 1.22512e-07 0)
(5.00435e-05 1.32923e-07 0)
(5.00324e-05 1.39377e-07 0)
(5.00262e-05 1.47514e-07 0)
(5.00225e-05 1.50876e-07 0)
(5.0029e-05 1.55058e-07 0)
(5.00475e-05 1.556e-07 0)
(5.01327e-05 9.53531e-09 0)
(5.01614e-05 2.42614e-08 0)
(5.01557e-05 3.94499e-08 0)
(5.01499e-05 5.46479e-08 0)
(5.01398e-05 6.98283e-08 0)
(5.01297e-05 8.46259e-08 0)
(5.01162e-05 9.93749e-08 0)
(5.01028e-05 1.13247e-07 0)
(5.00871e-05 1.27438e-07 0)
(5.00719e-05 1.39662e-07 0)
(5.00569e-05 1.53342e-07 0)
(5.00426e-05 1.63393e-07 0)
(5.00332e-05 1.76636e-07 0)
(5.0026e-05 1.85516e-07 0)
(5.00292e-05 1.98427e-07 0)
(5.00437e-05 2.09092e-07 0)
(5.01627e-05 1.03988e-08 0)
(5.01949e-05 2.56079e-08 0)
(5.01885e-05 4.16893e-08 0)
(5.01819e-05 5.79044e-08 0)
(5.01707e-05 7.41659e-08 0)
(5.01593e-05 9.03104e-08 0)
(5.0144e-05 1.06446e-07 0)
(5.01285e-05 1.22126e-07 0)
(5.01102e-05 1.38128e-07 0)
(5.00923e-05 1.52599e-07 0)
(5.0074e-05 1.68623e-07 0)
(5.00564e-05 1.80952e-07 0)
(5.00433e-05 1.97001e-07 0)
(5.0032e-05 2.07243e-07 0)
(5.00309e-05 2.21979e-07 0)
(5.00383e-05 2.32263e-07 0)
(5.01963e-05 1.09735e-08 0)
(5.02313e-05 2.60091e-08 0)
(5.02244e-05 4.23868e-08 0)
(5.0217e-05 5.90132e-08 0)
(5.02048e-05 7.57409e-08 0)
(5.0192e-05 9.26251e-08 0)
(5.0175e-05 1.0951e-07 0)
(5.01575e-05 1.26401e-07 0)
(5.01367e-05 1.43505e-07 0)
(5.01159e-05 1.59603e-07 0)
(5.00936e-05 1.77053e-07 0)
(5.0072e-05 1.90822e-07 0)
(5.00538e-05 2.08454e-07 0)
(5.00362e-05 2.18207e-07 0)
(5.00293e-05 2.33276e-07 0)
(5.00296e-05 2.41262e-07 0)
(5.02329e-05 1.11432e-08 0)
(5.02698e-05 2.52044e-08 0)
(5.02623e-05 4.1112e-08 0)
(5.02543e-05 5.73623e-08 0)
(5.02412e-05 7.37524e-08 0)
(5.02271e-05 9.05653e-08 0)
(5.02086e-05 1.0737e-07 0)
(5.0189e-05 1.24674e-07 0)
(5.01655e-05 1.42007e-07 0)
(5.01416e-05 1.59005e-07 0)
(5.01151e-05 1.76914e-07 0)
(5.00887e-05 1.91571e-07 0)
(5.0064e-05 2.09826e-07 0)
(5.00388e-05 2.18185e-07 0)
(5.00252e-05 2.34253e-07 0)
(5.0018e-05 2.38758e-07 0)
(5.02715e-05 1.07962e-08 0)
(5.03091e-05 2.2959e-08 0)
(5.03012e-05 3.74807e-08 0)
(5.02925e-05 5.24046e-08 0)
(5.02786e-05 6.74868e-08 0)
(5.02633e-05 8.32275e-08 0)
(5.02434e-05 9.89338e-08 0)
(5.02219e-05 1.1565e-07 0)
(5.01958e-05 1.32168e-07 0)
(5.01687e-05 1.49197e-07 0)
(5.01375e-05 1.6655e-07 0)
(5.01059e-05 1.81832e-07 0)
(5.00729e-05 1.99727e-07 0)
(5.0039e-05 2.07244e-07 0)
(5.00181e-05 2.25398e-07 0)
(4.99993e-05 2.24067e-07 0)
(5.0311e-05 9.83224e-09 0)
(5.03478e-05 1.908e-08 0)
(5.03395e-05 3.11688e-08 0)
(5.03302e-05 4.36613e-08 0)
(5.03155e-05 5.62821e-08 0)
(5.02992e-05 6.97095e-08 0)
(5.02781e-05 8.30321e-08 0)
(5.02548e-05 9.77833e-08 0)
(5.02263e-05 1.12059e-07 0)
(5.0196e-05 1.27814e-07 0)
(5.01604e-05 1.43426e-07 0)
(5.01231e-05 1.59024e-07 0)
(5.00807e-05 1.75809e-07 0)
(5.00379e-05 1.85512e-07 0)
(5.00067e-05 2.04597e-07 0)
(4.99684e-05 1.92469e-07 0)
(5.03498e-05 8.16872e-09 0)
(5.03843e-05 1.33866e-08 0)
(5.03755e-05 2.18537e-08 0)
(5.03656e-05 3.06233e-08 0)
(5.03502e-05 3.94113e-08 0)
(5.03328e-05 4.90657e-08 0)
(5.03105e-05 5.85397e-08 0)
(5.02854e-05 6.97659e-08 0)
(5.02547e-05 8.02911e-08 0)
(5.02215e-05 9.33947e-08 0)
(5.01822e-05 1.06094e-07 0)
(5.01395e-05 1.21134e-07 0)
(5.00887e-05 1.36543e-07 0)
(5.00365e-05 1.49725e-07 0)
(4.99833e-05 1.6182e-07 0)
(4.99141e-05 1.32037e-07 0)
(5.03864e-05 5.73055e-09 0)
(5.04166e-05 5.79716e-09 0)
(5.04072e-05 9.44238e-09 0)
(5.03964e-05 1.32686e-08 0)
(5.03801e-05 1.70553e-08 0)
(5.03616e-05 2.18142e-08 0)
(5.03383e-05 2.64994e-08 0)
(5.03117e-05 3.33874e-08 0)
(5.02795e-05 3.98998e-08 0)
(5.02451e-05 4.97572e-08 0)
(5.02045e-05 5.734e-08 0)
(5.01586e-05 6.7131e-08 0)
(5.00993e-05 7.51987e-08 0)
(5.00284e-05 7.90752e-08 0)
(4.9937e-05 7.07261e-08 0)
(4.98251e-05 2.18596e-08 0)
(5.0419e-05 2.4825e-09 0)
(5.04425e-05 -3.16769e-09 0)
(5.04324e-05 -4.9797e-09 0)
(5.04209e-05 -6.29762e-09 0)
(5.04044e-05 -7.4169e-09 0)
(5.03862e-05 -7.78627e-09 0)
(5.03636e-05 -8.91102e-09 0)
(5.03373e-05 -8.57462e-09 0)
(5.03042e-05 -9.46964e-09 0)
(5.02644e-05 -8.93207e-09 0)
(5.02166e-05 -1.54272e-08 0)
(5.01611e-05 -2.27966e-08 0)
(5.00882e-05 -3.97889e-08 0)
(4.99932e-05 -6.26436e-08 0)
(4.9861e-05 -9.76011e-08 0)
(4.97032e-05 -1.58636e-07 0)
(5.04451e-05 -1.37796e-09 0)
(5.04649e-05 -1.29296e-08 0)
(5.04552e-05 -2.09709e-08 0)
(5.04438e-05 -2.86806e-08 0)
(5.04258e-05 -3.69069e-08 0)
(5.04039e-05 -4.6119e-08 0)
(5.03769e-05 -5.89349e-08 0)
(5.03449e-05 -7.36098e-08 0)
(5.03056e-05 -9.44414e-08 0)
(5.02558e-05 -1.17586e-07 0)
(5.01945e-05 -1.50295e-07 0)
(5.01216e-05 -1.85206e-07 0)
(5.0028e-05 -2.33509e-07 0)
(4.99114e-05 -2.82895e-07 0)
(4.97513e-05 -3.42536e-07 0)
(4.95588e-05 -4.08921e-07 0)
(5.04672e-05 -5.57819e-09 0)
(5.04751e-05 -2.78896e-08 0)
(5.04628e-05 -4.65639e-08 0)
(5.04475e-05 -6.74524e-08 0)
(5.04238e-05 -9.18237e-08 0)
(5.03931e-05 -1.19516e-07 0)
(5.03552e-05 -1.53441e-07 0)
(5.031e-05 -1.92089e-07 0)
(5.02566e-05 -2.398e-07 0)
(5.01927e-05 -2.91322e-07 0)
(5.01168e-05 -3.52971e-07 0)
(5.00271e-05 -4.15569e-07 0)
(4.99168e-05 -4.90578e-07 0)
(4.97826e-05 -5.60889e-07 0)
(4.9605e-05 -6.4095e-07 0)
(4.9392e-05 -7.11187e-07 0)
(5.04782e-05 -1.1929e-08 0)
(5.04482e-05 -5.62826e-08 0)
(5.04299e-05 -9.4024e-08 0)
(5.04055e-05 -1.35902e-07 0)
(5.03716e-05 -1.83319e-07 0)
(5.03292e-05 -2.3569e-07 0)
(5.02783e-05 -2.95342e-07 0)
(5.02189e-05 -3.60528e-07 0)
(5.01511e-05 -4.34592e-07 0)
(5.0073e-05 -5.12087e-07 0)
(4.99836e-05 -5.98721e-07 0)
(4.988e-05 -6.8382e-07 0)
(4.97575e-05 -7.78712e-07 0)
(4.96119e-05 -8.63013e-07 0)
(4.94276e-05 -9.54549e-07 0)
(4.92095e-05 -1.02132e-06 0)
(5.04536e-05 -2.40052e-08 0)
(5.03603e-05 -9.78345e-08 0)
(5.0336e-05 -1.61879e-07 0)
(5.03026e-05 -2.3028e-07 0)
(5.0258e-05 -3.04173e-07 0)
(5.02038e-05 -3.82959e-07 0)
(5.01404e-05 -4.68206e-07 0)
(5.00681e-05 -5.57982e-07 0)
(4.99878e-05 -6.54772e-07 0)
(4.9898e-05 -7.53427e-07 0)
(4.97988e-05 -8.58909e-07 0)
(4.96864e-05 -9.59981e-07 0)
(4.95586e-05 -1.06748e-06 0)
(4.941e-05 -1.15882e-06 0)
(4.9231e-05 -1.2538e-06 0)
(4.90228e-05 -1.31231e-06 0)
(5.03683e-05 -4.17538e-08 0)
(5.01973e-05 -1.46493e-07 0)
(5.01685e-05 -2.40245e-07 0)
(5.01284e-05 -3.37366e-07 0)
(5.0076e-05 -4.38237e-07 0)
(5.00132e-05 -5.42219e-07 0)
(4.9941e-05 -6.50199e-07 0)
(4.986e-05 -7.60461e-07 0)
(4.97718e-05 -8.7481e-07 0)
(4.96749e-05 -9.88728e-07 0)
(4.95708e-05 -1.10655e-06 0)
(4.94555e-05 -1.21737e-06 0)
(4.93294e-05 -1.33135e-06 0)
(4.91863e-05 -1.42509e-06 0)
(4.90225e-05 -1.51948e-06 0)
(4.88356e-05 -1.57018e-06 0)
(5.02075e-05 -6.26128e-08 0)
(4.99565e-05 -1.94307e-07 0)
(4.99262e-05 -3.1665e-07 0)
(4.98833e-05 -4.40738e-07 0)
(4.98279e-05 -5.6591e-07 0)
(4.97616e-05 -6.9153e-07 0)
(4.96861e-05 -8.17929e-07 0)
(4.9602e-05 -9.43886e-07 0)
(4.95113e-05 -1.0707e-06 0)
(4.94129e-05 -1.19472e-06 0)
(4.93094e-05 -1.31965e-06 0)
(4.9197e-05 -1.43562e-06 0)
(4.90787e-05 -1.5519e-06 0)
(4.89481e-05 -1.64564e-06 0)
(4.88067e-05 -1.73792e-06 0)
(4.86495e-05 -1.78278e-06 0)
(4.99678e-05 -8.31744e-08 0)
(4.96474e-05 -2.33492e-07 0)
(4.96185e-05 -3.79066e-07 0)
(4.95773e-05 -5.24872e-07 0)
(4.95237e-05 -6.69218e-07 0)
(4.94595e-05 -8.11481e-07 0)
(4.93862e-05 -9.51483e-07 0)
(4.93046e-05 -1.08856e-06 0)
(4.92169e-05 -1.22356e-06 0)
(4.91224e-05 -1.3538e-06 0)
(4.90245e-05 -1.48227e-06 0)
(4.89201e-05 -1.60057e-06 0)
(4.88146e-05 -1.71686e-06 0)
(4.87017e-05 -1.8099e-06 0)
(4.85881e-05 -1.89996e-06 0)
(4.84667e-05 -1.94153e-06 0)
(4.96586e-05 -1.00066e-07 0)
(4.92894e-05 -2.5848e-07 0)
(4.9264e-05 -4.18918e-07 0)
(4.92274e-05 -5.78739e-07 0)
(4.91796e-05 -7.35476e-07 0)
(4.91217e-05 -8.88518e-07 0)
(4.90551e-05 -1.03718e-06 0)
(4.89805e-05 -1.18124e-06 0)
(4.89001e-05 -1.321e-06 0)
(4.88137e-05 -1.45472e-06 0)
(4.87254e-05 -1.58453e-06 0)
(4.86329e-05 -1.70374e-06 0)
(4.85438e-05 -1.81904e-06 0)
(4.84525e-05 -1.91176e-06 0)
(4.83702e-05 -2.00037e-06 0)
(4.82884e-05 -2.04171e-06 0)
(4.92994e-05 -1.10853e-07 0)
(4.89063e-05 -2.66778e-07 0)
(4.88854e-05 -4.32349e-07 0)
(4.88548e-05 -5.9735e-07 0)
(4.88145e-05 -7.58908e-07 0)
(4.87651e-05 -9.16454e-07 0)
(4.87077e-05 -1.06878e-06 0)
(4.86427e-05 -1.21593e-06 0)
(4.85724e-05 -1.35753e-06 0)
(4.84969e-05 -1.49263e-06 0)
(4.84208e-05 -1.62231e-06 0)
(4.83429e-05 -1.74168e-06 0)
(4.82726e-05 -1.85568e-06 0)
(4.82053e-05 -1.94881e-06 0)
(4.81562e-05 -2.0369e-06 0)
(4.81159e-05 -2.08075e-06 0)
(4.89147e-05 -1.14438e-07 0)
(4.85224e-05 -2.59084e-07 0)
(4.85055e-05 -4.20367e-07 0)
(4.84806e-05 -5.81863e-07 0)
(4.84476e-05 -7.40692e-07 0)
(4.84067e-05 -8.96404e-07 0)
(4.83588e-05 -1.04735e-06 0)
(4.83042e-05 -1.19367e-06 0)
(4.82449e-05 -1.33423e-06 0)
(4.81815e-05 -1.46866e-06 0)
(4.81189e-05 -1.59688e-06 0)
(4.80569e-05 -1.71577e-06 0)
(4.80063e-05 -1.82829e-06 0)
(4.79641e-05 -1.92257e-06 0)
(4.79486e-05 -2.01103e-06 0)
(4.79499e-05 -2.05998e-06 0)