/*--------------------------------*- C++ -*----------------------------------*\
| =========                 |                                                 |
| \\      /  F ield         | foam-extend: Open Source CFD                    |
|  \\    /   O peration     | Version:     4.1-20200408                       |
|   \\  /    A nd           | Web:         http://www.foam-extend.org         |
|    \\/     M anipulation  |                                                 |
\*---------------------------------------------------------------------------*/
FoamFile
{
    version     2.0;
    format      ascii;
    class       volSymmTensorField;
    location    "0.0730000";
    object      epsilonTrue;
}
// * * * * * * * * * * * * * * * * * * * * * * * * * * * * * * * * * * * * * //

dimensions      [0 0 0 0 0 0 0];

internalField   nonuniform List<symmTensor> 
1952
(
(0.0720651 -0.00270908 -9.87678e-11 -0.0377325 4.16097e-10 -0.037799)
(0.0720581 -0.00453957 -4.67597e-11 -0.0376482 -1.09849e-09 -0.0377503)
(0.0720557 -0.00613525 5.79402e-11 -0.0374942 -2.96544e-09 -0.0377215)
(0.0720489 -0.0076271 1.90502e-10 -0.0373373 2.25499e-09 -0.0376478)
(0.0720482 -0.0089039 -5.32296e-11 -0.037121 5.86225e-09 -0.0375952)
(0.0720474 -0.00995421 -3.73961e-10 -0.036918 -2.4291e-10 -0.0375004)
(0.0720527 -0.0107534 -2.17145e-10 -0.0366446 -6.77717e-09 -0.0374299)
(0.0720626 -0.0112693 2.54735e-10 -0.0363624 -4.78016e-10 -0.037314)
(0.0720808 -0.0113883 -6.02002e-12 -0.036014 5.94991e-09 -0.0372188)
(0.0721058 -0.0110501 -4.71738e-10 -0.0356143 -1.94646e-09 -0.0370777)
(0.0721405 -0.0100605 8.05347e-11 -0.0351431 -6.01913e-09 -0.0369473)
(0.0721814 -0.00855992 3.93779e-10 -0.0344591 1.4992e-09 -0.0367719)
(0.0722241 -0.00633642 -2.87047e-11 -0.0337127 5.90475e-09 -0.036578)
(0.0722653 -0.003647 -3.27896e-10 -0.0328784 4.6731e-10 -0.036347)
(0.072305 -0.00167681 -1.67307e-10 -0.0324512 -2.02629e-09 -0.0360978)
(0.0720607 -0.0014431 -3.67453e-11 -0.0377987 -2.19343e-09 -0.0377876)
(0.0721253 -0.00270154 -1.35787e-10 -0.0377436 4.16145e-10 -0.0378092)
(0.0721187 -0.00453716 -7.20604e-11 -0.0376582 -1.09895e-09 -0.0377614)
(0.0721169 -0.00612118 8.57075e-11 -0.0375052 -2.96613e-09 -0.0377316)
(0.0721112 -0.00761913 2.6828e-10 -0.0373482 2.25629e-09 -0.0376588)
(0.072111 -0.00888274 -7.49526e-11 -0.0371321 5.86389e-09 -0.0376056)
(0.072111 -0.00993912 -4.85047e-10 -0.0369291 -2.43773e-10 -0.0375116)
(0.0721178 -0.0107244 -2.44501e-10 -0.0366564 -6.77896e-09 -0.0374406)
(0.072129 -0.0112458 3.08267e-10 -0.0363747 -4.7716e-10 -0.0373254)
(0.0721492 -0.0113501 -1.6042e-11 -0.0360276 5.95174e-09 -0.0372299)
(0.0721762 -0.0110171 -5.31955e-10 -0.0356297 -1.94806e-09 -0.0370896)
(0.072214 -0.0100137 8.84912e-11 -0.0351609 -6.02146e-09 -0.0369593)
(0.0722584 -0.00851914 4.23143e-10 -0.0344804 1.50032e-09 -0.0367848)
(0.0723057 -0.00628437 -3.23809e-11 -0.0337386 5.90702e-09 -0.0365914)
(0.0723524 -0.00360891 -3.65285e-10 -0.0329128 4.67314e-10 -0.0363619)
(0.0724007 -0.00165012 -1.76558e-10 -0.0324941 -2.02715e-09 -0.036114)
(0.0721208 -0.00144366 -4.51399e-11 -0.0378087 -2.19395e-09 -0.0377984)
(0.0721875 -0.00270107 -1.35874e-10 -0.037765 4.1639e-10 -0.0378303)
(0.072181 -0.00453686 -7.20834e-11 -0.0376793 -1.09961e-09 -0.0377827)
(0.0721794 -0.00612014 8.57786e-11 -0.0375266 -2.96779e-09 -0.0377528)
(0.0721738 -0.00761839 2.68336e-10 -0.0373696 2.25774e-09 -0.0376803)
(0.0721741 -0.00888113 -7.50412e-11 -0.037154 5.86729e-09 -0.037627)
(0.0721744 -0.00993731 -4.85289e-10 -0.0369514 -2.44075e-10 -0.0375333)
(0.072182 -0.0107217 -2.44709e-10 -0.0366793 -6.78286e-09 -0.0374623)
(0.0721937 -0.0112432 3.08221e-10 -0.0363983 -4.77207e-10 -0.0373474)
(0.0722151 -0.0113458 -1.61136e-11 -0.0360528 5.95538e-09 -0.037252)
(0.0722427 -0.0110127 -5.31731e-10 -0.0356561 -1.94964e-09 -0.0371123)
(0.0722812 -0.0100091 8.8614e-11 -0.0351887 -6.02548e-09 -0.0369823)
(0.0723252 -0.00851549 4.23004e-10 -0.0345094 1.50163e-09 -0.0368085)
(0.0723712 -0.00628083 -3.24255e-11 -0.0337689 5.911e-09 -0.0366154)
(0.0724135 -0.00360663 -3.65247e-10 -0.0329437 4.67208e-10 -0.0363865)
(0.0724498 -0.00165023 -1.76677e-10 -0.0325215 -2.02862e-09 -0.0361389)
(0.0721829 -0.00144386 -4.51675e-11 -0.0378297 -2.19509e-09 -0.0378197)
(0.0722524 -0.00270111 -1.35969e-10 -0.0377891 4.16678e-10 -0.0378543)
(0.0722461 -0.00453736 -7.21031e-11 -0.0377034 -1.10032e-09 -0.0378069)
(0.0722446 -0.00612038 8.58467e-11 -0.037551 -2.96969e-09 -0.0377768)
(0.0722395 -0.00761882 2.68456e-10 -0.0373945 2.25925e-09 -0.0377046)
(0.0722401 -0.00888097 -7.51155e-11 -0.0371793 5.87118e-09 -0.0376514)
(0.0722407 -0.00993724 -4.85521e-10 -0.0369771 -2.44261e-10 -0.0375579)
(0.0722487 -0.0107211 -2.44953e-10 -0.0367056 -6.78742e-09 -0.0374871)
(0.0722607 -0.0112431 3.08029e-10 -0.0364251 -4.7749e-10 -0.0373726)
(0.0722826 -0.0113451 -1.61587e-11 -0.0360807 5.95954e-09 -0.0372774)
(0.0723105 -0.0110121 -5.31713e-10 -0.035685 -1.9511e-09 -0.0371381)
(0.0723491 -0.0100085 8.86752e-11 -0.0352186 -6.02989e-09 -0.0370084)
(0.0723924 -0.00851606 4.23022e-10 -0.0345396 1.50288e-09 -0.036835)
(0.0724374 -0.00628135 -3.24467e-11 -0.0338001 5.91543e-09 -0.0366422)
(0.0724769 -0.00360817 -3.65267e-10 -0.0329747 4.67297e-10 -0.0364138)
(0.0725085 -0.00165191 -1.76969e-10 -0.032551 -2.03021e-09 -0.0361663)
(0.0722478 -0.00144427 -4.51901e-11 -0.0378536 -2.1964e-09 -0.0378438)
(0.0723209 -0.00270149 -1.36069e-10 -0.0378159 4.17004e-10 -0.0378811)
(0.0723146 -0.00453827 -7.21357e-11 -0.0377302 -1.1011e-09 -0.0378337)
(0.0723133 -0.00612145 8.59193e-11 -0.0375779 -2.97182e-09 -0.0378037)
(0.0723084 -0.0076204 2.68574e-10 -0.0374218 2.26089e-09 -0.0377315)
(0.0723094 -0.00888243 -7.51835e-11 -0.0372069 5.87549e-09 -0.0376784)
(0.0723102 -0.0099388 -4.85765e-10 -0.0370051 -2.44445e-10 -0.0375851)
(0.0723186 -0.0107228 -2.45217e-10 -0.0367342 -6.79246e-09 -0.0375145)
(0.0723307 -0.0112452 3.0792e-10 -0.0364542 -4.77843e-10 -0.0374002)
(0.0723531 -0.0113466 -1.61925e-11 -0.036111 5.96409e-09 -0.0373053)
(0.0723807 -0.0110138 -5.31526e-10 -0.0357159 -1.95275e-09 -0.0371663)
(0.0724189 -0.0100106 8.88063e-11 -0.0352501 -6.03469e-09 -0.0370368)
(0.0724607 -0.00851888 4.22924e-10 -0.0345709 1.50428e-09 -0.0368639)
(0.0725034 -0.00628406 -3.24547e-11 -0.0338312 5.9202e-09 -0.0366711)
(0.0725389 -0.00361018 -3.65432e-10 -0.0330049 4.67405e-10 -0.0364429)
(0.0725645 -0.00165352 -1.77216e-10 -0.0325789 -2.03189e-09 -0.0361954)
(0.0723163 -0.00144478 -4.52373e-11 -0.0378804 -2.19787e-09 -0.0378706)
(0.0723917 -0.00270222 -1.36178e-10 -0.0378449 4.17353e-10 -0.03791)
(0.0723856 -0.00453981 -7.21626e-11 -0.0377592 -1.10195e-09 -0.0378627)
(0.0723844 -0.00612334 8.59842e-11 -0.037607 -2.97412e-09 -0.0378326)
(0.0723797 -0.00762282 2.68684e-10 -0.0374513 2.26265e-09 -0.0377606)
(0.0723808 -0.00888498 -7.52407e-11 -0.0372368 5.88014e-09 -0.0377077)
(0.0723817 -0.00994173 -4.85978e-10 -0.0370353 -2.4463e-10 -0.0376145)
(0.0723901 -0.010726 -2.45513e-10 -0.0367647 -6.79791e-09 -0.037544)
(0.0724021 -0.0112492 3.07683e-10 -0.0364849 -4.78227e-10 -0.0374299)
(0.0724244 -0.0113507 -1.62081e-11 -0.0361423 5.96897e-09 -0.0373351)
(0.0724515 -0.0110179 -5.31535e-10 -0.0357476 -1.95441e-09 -0.0371964)
(0.0724889 -0.0100151 8.88965e-11 -0.0352819 -6.03974e-09 -0.0370671)
(0.0725291 -0.00852377 4.23014e-10 -0.0346021 1.50566e-09 -0.0368943)
(0.0725696 -0.00628822 -3.24508e-11 -0.0338621 5.9252e-09 -0.0367015)
(0.0726019 -0.0036132 -3.65631e-10 -0.0330348 4.67609e-10 -0.0364735)
(0.0726232 -0.00165534 -1.77468e-10 -0.0326072 -2.03364e-09 -0.0362258)
(0.0723871 -0.00144545 -4.52697e-11 -0.0379092 -2.19946e-09 -0.0378995)
(0.0724643 -0.0027033 -1.36278e-10 -0.0378755 4.17724e-10 -0.0379406)
(0.0724582 -0.00454183 -7.22003e-11 -0.0377898 -1.10284e-09 -0.0378933)
(0.0724571 -0.00612601 8.60557e-11 -0.0376377 -2.97656e-09 -0.0378633)
(0.0724524 -0.00762639 2.6883e-10 -0.0374823 2.26452e-09 -0.0377913)
(0.0724537 -0.00888883 -7.52908e-11 -0.0372681 5.88505e-09 -0.0377385)
(0.0724546 -0.00994601 -4.86228e-10 -0.0370668 -2.44833e-10 -0.0376455)
(0.0724631 -0.0107308 -2.45814e-10 -0.0367964 -6.80364e-09 -0.0375751)
(0.0724747 -0.0112547 3.07551e-10 -0.0365167 -4.78615e-10 -0.0374611)
(0.0724967 -0.011356 -1.62162e-11 -0.0361747 5.97409e-09 -0.0373664)
(0.0725229 -0.0110234 -5.31405e-10 -0.0357799 -1.95623e-09 -0.0372279)
(0.0725592 -0.0100208 8.90414e-11 -0.0353141 -6.04501e-09 -0.0370986)
(0.0725975 -0.00852975 4.22969e-10 -0.0346334 1.50715e-09 -0.0369259)
(0.0726357 -0.00629337 -3.24405e-11 -0.0338927 5.93038e-09 -0.0367331)
(0.0726651 -0.00361638 -3.6585e-10 -0.0330645 4.67866e-10 -0.036505)
(0.0726827 -0.00165714 -1.777e-10 -0.0326355 -2.03545e-09 -0.0362571)
(0.0724597 -0.00144623 -4.5312e-11 -0.0379399 -2.20115e-09 -0.0379302)
(0.0725382 -0.00270459 -1.36383e-10 -0.0379075 4.18109e-10 -0.0379726)
(0.0725322 -0.00454427 -7.22272e-11 -0.0378218 -1.10378e-09 -0.0379254)
(0.072531 -0.00612919 8.61186e-11 -0.0376698 -2.97911e-09 -0.0378953)
(0.0725264 -0.00763051 2.68937e-10 -0.0375147 2.26648e-09 -0.0378234)
(0.0725276 -0.00889344 -7.53357e-11 -0.0373006 5.89017e-09 -0.0377707)
(0.0725283 -0.00995129 -4.86427e-10 -0.0370994 -2.45051e-10 -0.0376777)
(0.0725365 -0.0107367 -2.46146e-10 -0.0368291 -6.8096e-09 -0.0376075)
(0.0725477 -0.0112615 3.07314e-10 -0.0365493 -4.78985e-10 -0.0374936)
(0.0725689 -0.011363 -1.62117e-11 -0.0362072 5.97938e-09 -0.0373989)
(0.0725942 -0.0110303 -5.3142e-10 -0.0358124 -1.95803e-09 -0.0372604)
(0.0726293 -0.0100278 8.9156e-11 -0.0353461 -6.05041e-09 -0.0371311)
(0.072666 -0.00853649 4.23082e-10 -0.0346645 1.50858e-09 -0.0369584)
(0.0727022 -0.00629872 -3.24246e-11 -0.0339233 5.93568e-09 -0.0367654)
(0.0727289 -0.00361972 -3.66078e-10 -0.0330941 4.68157e-10 -0.0365372)
(0.0727435 -0.00165884 -1.77909e-10 -0.0326639 -2.03728e-09 -0.0362891)
(0.0725335 -0.00144713 -4.53362e-11 -0.0379718 -2.20293e-09 -0.0379622)
(0.0726128 -0.0027062 -1.36492e-10 -0.0379406 4.18509e-10 -0.0380056)
(0.0726067 -0.00454717 -7.22631e-11 -0.0378549 -1.10475e-09 -0.0379584)
(0.0726055 -0.00613307 8.61889e-11 -0.0377028 -2.98174e-09 -0.0379284)
(0.0726007 -0.00763555 2.69091e-10 -0.0375477 2.26851e-09 -0.0378564)
(0.0726018 -0.00889901 -7.53725e-11 -0.0373336 5.89543e-09 -0.0378038)
(0.0726022 -0.00995752 -4.86672e-10 -0.0371324 -2.45275e-10 -0.0377108)
(0.0726101 -0.0107436 -2.46469e-10 -0.0368621 -6.8157e-09 -0.0376406)
(0.0726207 -0.0112691 3.0721e-10 -0.0365821 -4.79388e-10 -0.0375267)
(0.0726415 -0.0113704 -1.62004e-11 -0.0362402 5.98478e-09 -0.037432)
(0.0726657 -0.0110377 -5.31334e-10 -0.035845 -1.95993e-09 -0.0372936)
(0.0726995 -0.0100351 8.9304e-11 -0.0353782 -6.05591e-09 -0.0371642)
(0.0727345 -0.0085436 4.23031e-10 -0.0346957 1.51007e-09 -0.0369914)
(0.0727688 -0.00630445 -3.24072e-11 -0.0339536 5.94106e-09 -0.0367982)
(0.0727933 -0.00362288 -3.66252e-10 -0.0331238 4.68518e-10 -0.0365699)
(0.0728055 -0.00166045 -1.78094e-10 -0.0326927 -2.03914e-09 -0.0363215)
(0.0726081 -0.00144815 -4.53705e-11 -0.0380048 -2.20476e-09 -0.0379952)
(0.0726876 -0.00270789 -1.36591e-10 -0.0379743 4.18915e-10 -0.0380393)
(0.0726813 -0.00455027 -7.22892e-11 -0.0378884 -1.10574e-09 -0.0379921)
(0.0726801 -0.00613711 8.62422e-11 -0.0377364 -2.98441e-09 -0.037962)
(0.0726752 -0.00764072 2.69177e-10 -0.0375815 2.27058e-09 -0.0378901)
(0.0726761 -0.00890489 -7.54041e-11 -0.0373673 5.90079e-09 -0.0378375)
(0.0726762 -0.00996416 -4.8685e-10 -0.037166 -2.45504e-10 -0.0377445)
(0.0726837 -0.0107509 -2.46816e-10 -0.0368956 -6.82191e-09 -0.0376743)
(0.0726937 -0.0112774 3.06953e-10 -0.0366152 -4.79753e-10 -0.0375604)
(0.0727135 -0.0113787 -1.61867e-11 -0.0362732 5.99026e-09 -0.0374656)
(0.0727368 -0.0110457 -5.31334e-10 -0.0358776 -1.96182e-09 -0.0373272)
(0.0727694 -0.010043 8.94323e-11 -0.0354103 -6.06147e-09 -0.0371976)
(0.0728031 -0.00855089 4.23137e-10 -0.0347267 1.51156e-09 -0.0370248)
(0.0728354 -0.00631017 -3.23865e-11 -0.0339838 5.94648e-09 -0.0368313)
(0.0728582 -0.00362618 -3.66467e-10 -0.0331536 4.68925e-10 -0.0366028)
(0.0728688 -0.00166203 -1.78266e-10 -0.032722 -2.04102e-09 -0.0363542)
(0.0726829 -0.00144923 -4.5404e-11 -0.0380385 -2.20664e-09 -0.038029)
(0.0727625 -0.00270977 -1.36698e-10 -0.0380085 4.19328e-10 -0.0380735)
(0.0727561 -0.00455364 -7.23202e-11 -0.0379225 -1.10674e-09 -0.0380263)
(0.0727548 -0.00614166 8.63065e-11 -0.0377705 -2.98713e-09 -0.0379961)
(0.0727495 -0.00764657 2.69353e-10 -0.0376154 2.2727e-09 -0.0379243)
(0.0727501 -0.0089114 -7.54322e-11 -0.0374011 5.90622e-09 -0.0378716)
(0.0727498 -0.00997151 -4.87074e-10 -0.0371997 -2.45759e-10 -0.0377786)
(0.0727569 -0.0107589 -2.47156e-10 -0.036929 -6.82817e-09 -0.0377083)
(0.0727663 -0.0112862 3.0687e-10 -0.0366483 -4.80115e-10 -0.0375944)
(0.0727851 -0.0113872 -1.6161e-11 -0.0363058 5.99577e-09 -0.0374995)
(0.0728072 -0.011054 -5.31269e-10 -0.0359098 -1.96369e-09 -0.0373609)
(0.0728387 -0.0100511 8.95724e-11 -0.0354417 -6.06703e-09 -0.0372312)
(0.072871 -0.00855837 4.23133e-10 -0.0347573 1.51298e-09 -0.0370582)
(0.0729026 -0.00631584 -3.23662e-11 -0.0340143 5.95192e-09 -0.0368645)
(0.072924 -0.00362918 -3.66583e-10 -0.0331838 4.69322e-10 -0.0366358)
(0.0729332 -0.00166355 -1.78427e-10 -0.0327517 -2.0429e-09 -0.036387)
(0.0727578 -0.00145039 -4.5432e-11 -0.0380727 -2.20854e-09 -0.0380632)
(0.0728369 -0.00271178 -1.36794e-10 -0.0380429 4.19748e-10 -0.038108)
(0.0728303 -0.00455725 -7.23369e-11 -0.0379568 -1.10775e-09 -0.0380608)
(0.0728289 -0.00614633 8.63466e-11 -0.0378046 -2.98987e-09 -0.0380305)
(0.0728231 -0.0076525 2.69397e-10 -0.0376492 2.27483e-09 -0.0379586)
(0.0728232 -0.00891821 -7.54515e-11 -0.0374347 5.91166e-09 -0.0379058)
(0.0728226 -0.0099792 -4.87253e-10 -0.0372332 -2.45982e-10 -0.0378128)
(0.0728292 -0.0107672 -2.475e-10 -0.0369622 -6.83444e-09 -0.0377424)
(0.0728379 -0.0112952 3.06696e-10 -0.0366809 -4.80525e-10 -0.0376283)
(0.0728565 -0.0113959 -1.61402e-11 -0.0363388 6.00128e-09 -0.0375333)
(0.0728779 -0.0110622 -5.31211e-10 -0.0359424 -1.96564e-09 -0.0373947)
(0.0729084 -0.0100589 8.97024e-11 -0.0354737 -6.07263e-09 -0.0372648)
(0.0729398 -0.00856543 4.23133e-10 -0.0347886 1.51446e-09 -0.0370917)
(0.07297 -0.00632127 -3.23454e-11 -0.0340448 5.95737e-09 -0.0368978)
(0.0729904 -0.00363198 -3.66739e-10 -0.0332143 4.69771e-10 -0.0366689)
(0.0729986 -0.0016649 -1.78563e-10 -0.0327821 -2.0448e-09 -0.0364199)
(0.0728322 -0.00145162 -4.54748e-11 -0.0381072 -2.21046e-09 -0.0380977)
(0.0729103 -0.00271386 -1.36895e-10 -0.0380772 4.20162e-10 -0.0381423)
(0.0729036 -0.00456098 -7.23597e-11 -0.0379908 -1.10877e-09 -0.0380951)
(0.0729021 -0.00615124 8.63957e-11 -0.0378386 -2.99258e-09 -0.0380646)
(0.0728963 -0.00765858 2.69536e-10 -0.0376833 2.27696e-09 -0.0379928)
(0.072896 -0.00892507 -7.54692e-11 -0.0374685 5.9171e-09 -0.0379399)
(0.0728954 -0.00998688 -4.87467e-10 -0.037267 -2.46211e-10 -0.0378469)
(0.0729016 -0.0107753 -2.47846e-10 -0.0369957 -6.84073e-09 -0.0377765)
(0.0729097 -0.011304 3.06472e-10 -0.036714 -4.80911e-10 -0.0376623)
(0.0729275 -0.0114045 -1.61165e-11 -0.0363715 6.0068e-09 -0.0375672)
(0.072948 -0.0110703 -5.31161e-10 -0.0359746 -1.96752e-09 -0.0374285)
(0.0729778 -0.0100666 8.98359e-11 -0.0355055 -6.07821e-09 -0.0372985)
(0.0730083 -0.00857245 4.23162e-10 -0.0348195 1.51592e-09 -0.0371252)
(0.0730376 -0.00632657 -3.2324e-11 -0.0340753 5.96282e-09 -0.036931)
(0.0730573 -0.0036347 -3.66831e-10 -0.033245 4.70218e-10 -0.036702)
(0.0730648 -0.00166628 -1.78702e-10 -0.0328126 -2.04669e-09 -0.0364528)
(0.0729056 -0.00145288 -4.55013e-11 -0.0381414 -2.21237e-09 -0.038132)
(0.0729834 -0.0027159 -1.36979e-10 -0.0381115 4.2058e-10 -0.0381766)
(0.0729765 -0.00456471 -7.23689e-11 -0.0380249 -1.10977e-09 -0.0381294)
(0.072975 -0.00615606 8.64374e-11 -0.0378727 -2.99532e-09 -0.0380989)
(0.0729685 -0.00766471 2.69632e-10 -0.037717 2.27908e-09 -0.038027)
(0.0729681 -0.00893206 -7.54849e-11 -0.0375021 5.92252e-09 -0.037974)
(0.0729671 -0.0099948 -4.87672e-10 -0.0373004 -2.4646e-10 -0.0378809)
(0.0729731 -0.0107838 -2.48198e-10 -0.0370289 -6.84696e-09 -0.0378104)
(0.0729806 -0.0113131 3.06307e-10 -0.0367467 -4.8125e-10 -0.0376961)
(0.0729979 -0.0114132 -1.60898e-11 -0.0364041 6.01229e-09 -0.0376008)
(0.0730178 -0.0110784 -5.31052e-10 -0.0360068 -1.96944e-09 -0.0374621)
(0.0730469 -0.0100744 8.99697e-11 -0.0355372 -6.08378e-09 -0.0373319)
(0.0730768 -0.00857938 4.23143e-10 -0.0348506 1.51738e-09 -0.0371585)
(0.0731057 -0.00633173 -3.23025e-11 -0.0341063 5.96824e-09 -0.0369641)
(0.0731251 -0.00363719 -3.66952e-10 -0.0332765 4.70653e-10 -0.036735)
(0.0731322 -0.00166746 -1.78817e-10 -0.032844 -2.04858e-09 -0.0364856)
(0.0729787 -0.00145415 -4.55464e-11 -0.0381758 -2.21428e-09 -0.0381664)
(0.0730551 -0.0027181 -1.37068e-10 -0.0381454 4.20994e-10 -0.0382106)
(0.0730483 -0.00456865 -7.238e-11 -0.0380588 -1.11076e-09 -0.0381634)
(0.0730467 -0.00616109 8.64703e-11 -0.0379064 -2.99802e-09 -0.0381329)
(0.07304 -0.00767094 2.69683e-10 -0.0377507 2.28115e-09 -0.0380609)
(0.0730394 -0.00893923 -7.5497e-11 -0.0375356 5.92791e-09 -0.0380079)
(0.073038 -0.0100029 -4.87868e-10 -0.0373336 -2.46701e-10 -0.0379147)
(0.0730438 -0.0107922 -2.48549e-10 -0.0370618 -6.85316e-09 -0.0378441)
(0.0730509 -0.0113221 3.06081e-10 -0.0367791 -4.81613e-10 -0.0377297)
(0.0730681 -0.0114218 -1.60654e-11 -0.0364366 6.01775e-09 -0.0376343)
(0.0730877 -0.0110863 -5.3096e-10 -0.0360393 -1.97133e-09 -0.0374955)
(0.0731164 -0.0100817 9.00994e-11 -0.0355692 -6.08932e-09 -0.0373652)
(0.0731459 -0.0085858 4.2311e-10 -0.0348822 1.5188e-09 -0.0371917)
(0.0731746 -0.00633642 -3.22843e-11 -0.0341378 5.97367e-09 -0.0369971)
(0.0731936 -0.0036394 -3.67054e-10 -0.0333082 4.71089e-10 -0.0367679)
(0.0732004 -0.00166858 -1.78924e-10 -0.0328756 -2.05048e-09 -0.0365185)
(0.0730505 -0.00145547 -4.55753e-11 -0.0382098 -2.21617e-09 -0.0382004)
(0.0731258 -0.00272027 -1.37154e-10 -0.038179 4.21405e-10 -0.0382443)
(0.0731188 -0.00457257 -7.23882e-11 -0.0380922 -1.11175e-09 -0.038197)
(0.0731172 -0.00616617 8.65072e-11 -0.0379397 -3.0007e-09 -0.0381664)
(0.0731106 -0.0076772 2.69742e-10 -0.0377841 2.28319e-09 -0.0380944)
(0.0731101 -0.00894635 -7.55094e-11 -0.037569 5.93324e-09 -0.0380414)
(0.0731085 -0.0100107 -4.88028e-10 -0.0373667 -2.46952e-10 -0.0379482)
(0.0731143 -0.0108004 -2.48903e-10 -0.0370947 -6.8593e-09 -0.0378775)
(0.0731212 -0.0113308 3.05824e-10 -0.0368118 -4.81959e-10 -0.0377631)
(0.0731385 -0.01143 -1.60424e-11 -0.0364695 6.02318e-09 -0.0376676)
(0.0731578 -0.0110937 -5.30865e-10 -0.036072 -1.97325e-09 -0.0375288)
(0.0731864 -0.0100887 9.02313e-11 -0.0356016 -6.09486e-09 -0.0373984)
(0.0732156 -0.00859202 4.2306e-10 -0.0349141 1.52028e-09 -0.0372248)
(0.0732438 -0.00634108 -3.2266e-11 -0.0341694 5.97908e-09 -0.0370301)
(0.0732625 -0.0036415 -3.67138e-10 -0.0333401 4.71539e-10 -0.0368009)
(0.073269 -0.00166968 -1.79027e-10 -0.0329074 -2.05237e-09 -0.0365514)
(0.0731212 -0.00145678 -4.56205e-11 -0.0382434 -2.21804e-09 -0.0382341)
(0.0731957 -0.00272237 -1.37239e-10 -0.0382123 4.21811e-10 -0.0382776)
(0.0731887 -0.00457639 -7.23926e-11 -0.0381254 -1.11273e-09 -0.0382303)
(0.0731872 -0.00617105 8.65434e-11 -0.0379728 -3.00334e-09 -0.0381997)
(0.0731806 -0.00768329 2.69795e-10 -0.0378173 2.28524e-09 -0.0381277)
(0.0731804 -0.00895334 -7.5525e-11 -0.0376023 5.93853e-09 -0.0380746)
(0.0731787 -0.0100185 -4.88169e-10 -0.0373998 -2.47217e-10 -0.0379815)
(0.0731846 -0.0108086 -2.49265e-10 -0.0371278 -6.8654e-09 -0.0379107)
(0.0731914 -0.0113394 3.0554e-10 -0.0368446 -4.82245e-10 -0.0377964)
(0.0732084 -0.0114384 -1.60205e-11 -0.0365022 6.02859e-09 -0.0377007)
(0.0732277 -0.0111013 -5.30771e-10 -0.0361046 -1.97516e-09 -0.037562)
(0.0732562 -0.0100959 9.03658e-11 -0.035634 -6.10039e-09 -0.0374315)
(0.0732853 -0.00859833 4.2307e-10 -0.034946 1.52177e-09 -0.0372579)
(0.0733132 -0.00634578 -3.22452e-11 -0.034201 5.98448e-09 -0.037063)
(0.0733319 -0.00364371 -3.67244e-10 -0.0333723 4.71978e-10 -0.0368337)
(0.0733384 -0.00167077 -1.7913e-10 -0.0329396 -2.05427e-09 -0.0365842)
(0.073191 -0.00145806 -4.56534e-11 -0.0382768 -2.2199e-09 -0.0382674)
(0.0732648 -0.00272453 -1.37329e-10 -0.0382454 4.22214e-10 -0.0383107)
(0.0732579 -0.00458034 -7.23974e-11 -0.0381585 -1.11369e-09 -0.0382634)
(0.0732566 -0.0061761 8.65769e-11 -0.0380059 -3.00598e-09 -0.0382327)
(0.0732497 -0.00768965 2.6983e-10 -0.0378501 2.28729e-09 -0.0381607)
(0.0732498 -0.00896056 -7.55419e-11 -0.0376353 5.94379e-09 -0.0381076)
(0.073248 -0.0100265 -4.88298e-10 -0.0374326 -2.475e-10 -0.0380145)
(0.0732542 -0.0108171 -2.49641e-10 -0.0371607 -6.87144e-09 -0.0379437)
(0.0732611 -0.0113484 3.05328e-10 -0.0368771 -4.8251e-10 -0.0378294)
(0.073278 -0.011447 -1.59931e-11 -0.0365347 6.03396e-09 -0.0377336)
(0.0732973 -0.0111091 -5.30671e-10 -0.0361372 -1.97706e-09 -0.0375949)
(0.0733258 -0.0101032 9.04957e-11 -0.0356662 -6.10588e-09 -0.0374643)
(0.073355 -0.00860469 4.23046e-10 -0.0349781 1.52318e-09 -0.0372908)
(0.0733834 -0.00635035 -3.22265e-11 -0.0342334 5.98986e-09 -0.0370958)
(0.0734022 -0.00364578 -3.67335e-10 -0.0334051 4.72372e-10 -0.0368665)
(0.0734086 -0.00167181 -1.79228e-10 -0.0329721 -2.05616e-09 -0.0366169)
(0.0732602 -0.00145938 -4.5698e-11 -0.0383099 -2.22173e-09 -0.0383005)
(0.0733328 -0.00272678 -1.37412e-10 -0.0382781 4.22614e-10 -0.0383435)
(0.073326 -0.00458444 -7.24005e-11 -0.0381911 -1.11465e-09 -0.0382961)
(0.0733249 -0.00618125 8.66024e-11 -0.0380385 -3.00859e-09 -0.0382655)
(0.073318 -0.0076961 2.69789e-10 -0.0378827 2.2893e-09 -0.0381934)
(0.0733183 -0.00896794 -7.55597e-11 -0.0376679 5.94899e-09 -0.0381403)
(0.0733166 -0.0100347 -4.88412e-10 -0.037465 -2.4776e-10 -0.0380472)
(0.0733231 -0.0108256 -2.50018e-10 -0.0371931 -6.87743e-09 -0.0379764)
(0.0733301 -0.0113573 3.0506e-10 -0.0369094 -4.82828e-10 -0.0378621)
(0.073348 -0.0114554 -1.59712e-11 -0.0365677 6.03928e-09 -0.0377662)
(0.0733677 -0.0111167 -5.30575e-10 -0.0361703 -1.97902e-09 -0.0376277)
(0.0733964 -0.0101103 9.06272e-11 -0.0356992 -6.11136e-09 -0.037497)
(0.0734259 -0.00861086 4.22992e-10 -0.0350109 1.52466e-09 -0.0373235)
(0.0734542 -0.00635494 -3.2208e-11 -0.0342659 5.99524e-09 -0.0371285)
(0.0734729 -0.00364784 -3.67454e-10 -0.0334379 4.72793e-10 -0.0368993)
(0.0734792 -0.00167285 -1.79323e-10 -0.0330048 -2.05805e-09 -0.0366497)
(0.0733281 -0.00146075 -4.57145e-11 -0.0383426 -2.22355e-09 -0.0383333)
(0.0733997 -0.002729 -1.37501e-10 -0.0383104 4.23005e-10 -0.0383758)
(0.0733929 -0.00458855 -7.23975e-11 -0.0382232 -1.1156e-09 -0.0383285)
(0.0733921 -0.00618646 8.66336e-11 -0.0380707 -3.01115e-09 -0.0382977)
(0.0733857 -0.00770257 2.69791e-10 -0.0379152 2.2913e-09 -0.0382257)
(0.0733866 -0.0089753 -7.55794e-11 -0.0377007 5.95414e-09 -0.0381727)
(0.0733852 -0.0100427 -4.88498e-10 -0.0374976 -2.4805e-10 -0.0380797)
(0.0733922 -0.0108342 -2.50418e-10 -0.037226 -6.88337e-09 -0.0380088)
(0.0733996 -0.0113663 3.04704e-10 -0.0369421 -4.83069e-10 -0.0378947)
(0.0734175 -0.0114642 -1.595e-11 -0.0366005 6.04459e-09 -0.0377988)
(0.0734377 -0.0111246 -5.30527e-10 -0.0362032 -1.98093e-09 -0.0376603)
(0.0734669 -0.0101177 9.07576e-11 -0.035732 -6.11683e-09 -0.0375296)
(0.0734968 -0.00861737 4.23037e-10 -0.0350436 1.52615e-09 -0.0373562)
(0.073525 -0.00635982 -3.21867e-11 -0.0342983 6.0006e-09 -0.0371611)
(0.0735439 -0.00365023 -3.67563e-10 -0.0334708 4.73201e-10 -0.0369319)
(0.0735502 -0.00167404 -1.79437e-10 -0.0330375 -2.05994e-09 -0.0366823)
(0.0733949 -0.00146212 -4.57576e-11 -0.0383749 -2.22534e-09 -0.0383656)
(0.0734662 -0.00273124 -1.37588e-10 -0.0383426 4.23397e-10 -0.038408)
(0.0734595 -0.00459274 -7.23926e-11 -0.0382554 -1.11654e-09 -0.0383606)
(0.0734591 -0.00619175 8.66694e-11 -0.038103 -3.01371e-09 -0.0383298)
(0.0734525 -0.00770934 2.69786e-10 -0.0379472 2.29333e-09 -0.038258)
(0.073454 -0.00898301 -7.56045e-11 -0.037733 5.95926e-09 -0.0382048)
(0.0734528 -0.0100513 -4.8859e-10 -0.0375299 -2.48367e-10 -0.038112)
(0.0734605 -0.0108433 -2.50828e-10 -0.0372585 -6.88925e-09 -0.038041)
(0.0734684 -0.0113758 3.04485e-10 -0.0369746 -4.83267e-10 -0.037927)
(0.0734868 -0.0114734 -1.59227e-11 -0.036633 6.04986e-09 -0.037831)
(0.0735075 -0.0111331 -5.30457e-10 -0.036236 -1.98287e-09 -0.0376927)
(0.0735371 -0.0101258 9.0889e-11 -0.0357647 -6.12227e-09 -0.037562)
(0.0735675 -0.00862445 4.23052e-10 -0.0350762 1.52761e-09 -0.0373887)
(0.0735964 -0.00636505 -3.21641e-11 -0.0343311 6.00593e-09 -0.0371935)
(0.0736157 -0.00365274 -3.67689e-10 -0.0335042 4.73576e-10 -0.0369644)
(0.073622 -0.00167524 -1.79552e-10 -0.0330706 -2.06182e-09 -0.0367149)
(0.0734614 -0.00146352 -4.57874e-11 -0.0384071 -2.22712e-09 -0.0383977)
(0.0735314 -0.00273365 -1.37682e-10 -0.0383744 4.23785e-10 -0.0384398)
(0.0735248 -0.00459724 -7.23794e-11 -0.0382871 -1.11747e-09 -0.0383925)
(0.0735248 -0.00619733 8.66902e-11 -0.0381348 -3.01623e-09 -0.0383616)
(0.0735183 -0.0077164 2.69683e-10 -0.0379789 2.29532e-09 -0.0382898)
(0.0735204 -0.00899114 -7.56284e-11 -0.037765 5.96432e-09 -0.0382366)
(0.0735195 -0.0100603 -4.88655e-10 -0.0375618 -2.48671e-10 -0.0381439)
(0.073528 -0.0108529 -2.51254e-10 -0.0372905 -6.89507e-09 -0.0380728)
(0.0735363 -0.0113858 3.04179e-10 -0.0370066 -4.83484e-10 -0.037959)
(0.0735558 -0.0114832 -1.58983e-11 -0.0366657 6.05508e-09 -0.0378629)
(0.0735774 -0.0111419 -5.30419e-10 -0.0362691 -1.98482e-09 -0.0377249)
(0.0736077 -0.0101341 9.10178e-11 -0.0357978 -6.12768e-09 -0.0375941)
(0.0736389 -0.0086317 4.23091e-10 -0.0351094 1.52908e-09 -0.037421)
(0.0736684 -0.00637044 -3.21415e-11 -0.0343643 6.01124e-09 -0.0372258)
(0.073688 -0.00365545 -3.67869e-10 -0.0335378 4.73955e-10 -0.0369968)
(0.0736943 -0.00167649 -1.7967e-10 -0.0331039 -2.0637e-09 -0.0367473)
(0.0735265 -0.00146501 -4.58414e-11 -0.0384389 -2.22889e-09 -0.0384295)
(0.0735952 -0.0027361 -1.37779e-10 -0.0384058 4.24165e-10 -0.0384712)
(0.0735888 -0.00460188 -7.23678e-11 -0.0383183 -1.1184e-09 -0.0384239)
(0.0735892 -0.00620317 8.67228e-11 -0.0381662 -3.01872e-09 -0.0383929)
(0.0735832 -0.00772376 2.69623e-10 -0.0380104 2.29729e-09 -0.0383212)
(0.073586 -0.00899954 -7.56573e-11 -0.0377969 5.96932e-09 -0.038268)
(0.0735856 -0.0100695 -4.88721e-10 -0.0375935 -2.49002e-10 -0.0381755)
(0.073595 -0.0108628 -2.51698e-10 -0.0373226 -6.90082e-09 -0.0381043)
(0.0736042 -0.0113961 3.03872e-10 -0.0370387 -4.83659e-10 -0.0379907)
(0.0736245 -0.0114934 -1.58727e-11 -0.0366982 6.06026e-09 -0.0378946)
(0.0736471 -0.0111512 -5.30433e-10 -0.0363021 -1.98675e-09 -0.0377568)
(0.0736783 -0.0101429 9.11422e-11 -0.0358308 -6.13305e-09 -0.037626)
(0.0737105 -0.00863953 4.23168e-10 -0.0351427 1.53053e-09 -0.0374531)
(0.0737407 -0.00637629 -3.21167e-11 -0.0343975 6.01653e-09 -0.0372579)
(0.0737606 -0.00365849 -3.68025e-10 -0.0335715 4.74334e-10 -0.0370291)
(0.0737673 -0.0016779 -1.79807e-10 -0.0331373 -2.06557e-09 -0.0367796)
(0.0735902 -0.00146653 -4.58731e-11 -0.0384703 -2.23062e-09 -0.0384609)
(0.073658 -0.00273859 -1.37875e-10 -0.0384369 4.24544e-10 -0.0385023)
(0.0736517 -0.00460665 -7.2344e-11 -0.0383493 -1.11931e-09 -0.038455)
(0.0736527 -0.0062091 8.67487e-11 -0.0381974 -3.02119e-09 -0.038424)
(0.0736469 -0.00773137 2.69512e-10 -0.0380415 2.29928e-09 -0.0383524)
(0.0736506 -0.00900833 -7.56919e-11 -0.0378283 5.97428e-09 -0.0382991)
(0.0736507 -0.0100792 -4.88765e-10 -0.0376249 -2.49355e-10 -0.0382068)
(0.0736611 -0.0108734 -2.52161e-10 -0.0373544 -6.9065e-09 -0.0381355)
(0.0736712 -0.011407 3.03578e-10 -0.0370706 -4.83783e-10 -0.0380222)
(0.0736926 -0.0115043 -1.58468e-11 -0.0367306 6.06539e-09 -0.0379259)
(0.0737164 -0.0111612 -5.30453e-10 -0.036335 -1.98872e-09 -0.0377884)
(0.0737487 -0.0101525 9.1268e-11 -0.0358637 -6.1384e-09 -0.0376577)
(0.0737822 -0.00864801 4.23273e-10 -0.0351759 1.53202e-09 -0.0374849)
(0.0738132 -0.00638274 -3.20894e-11 -0.0344307 6.02178e-09 -0.0372898)
(0.073834 -0.00366194 -3.68225e-10 -0.0336056 4.74736e-10 -0.0370611)
(0.0738413 -0.00167939 -1.79957e-10 -0.0331714 -2.06744e-09 -0.0368118)
(0.0736529 -0.00146811 -4.58993e-11 -0.0385014 -2.23234e-09 -0.0384921)
(0.0737193 -0.00274119 -1.3797e-10 -0.0384677 4.24917e-10 -0.038533)
(0.0737132 -0.00461167 -7.232e-11 -0.0383799 -1.12022e-09 -0.0384858)
(0.0737148 -0.00621531 8.67739e-11 -0.0382283 -3.02362e-09 -0.0384546)
(0.0737092 -0.00773931 2.69376e-10 -0.0380722 2.30125e-09 -0.0383832)
(0.0737139 -0.00901753 -7.57292e-11 -0.0378595 5.97917e-09 -0.0383298)
(0.0737147 -0.0100894 -4.88804e-10 -0.037656 -2.49727e-10 -0.0382378)
(0.0737262 -0.0108845 -2.52644e-10 -0.037386 -6.9121e-09 -0.0381664)
(0.0737374 -0.0114185 3.03287e-10 -0.0371023 -4.83862e-10 -0.0380533)
(0.0737599 -0.0115159 -1.58181e-11 -0.0367627 6.07048e-09 -0.037957)
(0.0737852 -0.011172 -5.30541e-10 -0.0363677 -1.99069e-09 -0.0378197)
(0.0738188 -0.0101629 9.13821e-11 -0.0358966 -6.1437e-09 -0.037689)
(0.0738538 -0.0086572 4.2345e-10 -0.0352092 1.53348e-09 -0.0375165)
(0.0738861 -0.00638967 -3.20587e-11 -0.0344642 6.02699e-09 -0.0373215)
(0.0739082 -0.00366579 -3.68441e-10 -0.0336401 4.75135e-10 -0.037093)
(0.0739165 -0.00168106 -1.80132e-10 -0.033206 -2.0693e-09 -0.0368438)
(0.073714 -0.00146976 -4.59453e-11 -0.0385321 -2.23404e-09 -0.0385228)
(0.073779 -0.00274381 -1.38075e-10 -0.0384982 4.25288e-10 -0.0385635)
(0.0737731 -0.00461684 -7.22842e-11 -0.0384102 -1.12112e-09 -0.0385162)
(0.0737753 -0.0062217 8.68e-11 -0.0382589 -3.02603e-09 -0.038485)
(0.07377 -0.00774756 2.69192e-10 -0.0381025 2.30322e-09 -0.0384138)
(0.0737757 -0.00902715 -7.57727e-11 -0.0378904 5.98402e-09 -0.0383602)
(0.0737772 -0.0101 -4.8883e-10 -0.0376867 -2.50124e-10 -0.0382684)
(0.0737901 -0.0108963 -2.53151e-10 -0.0374171 -6.91762e-09 -0.0381969)
(0.0738025 -0.0114307 3.03021e-10 -0.0371335 -4.83903e-10 -0.0380841)
(0.0738266 -0.0115282 -1.57899e-11 -0.0367946 6.07551e-09 -0.0379877)
(0.0738535 -0.0111834 -5.30646e-10 -0.0364004 -1.99268e-09 -0.0378508)
(0.0738888 -0.0101739 9.14943e-11 -0.0359294 -6.14898e-09 -0.0377201)
(0.0739257 -0.00866696 4.23637e-10 -0.0352427 1.53494e-09 -0.0375478)
(0.0739597 -0.0063971 -3.20274e-11 -0.0344981 6.03217e-09 -0.0373529)
(0.0739835 -0.00366996 -3.687e-10 -0.0336753 4.75521e-10 -0.0371247)