/*--------------------------------*- C++ -*----------------------------------*\
| =========                 |                                                 |
| \\      /  F ield         | foam-extend: Open Source CFD                    |
|  \\    /   O peration     | Version:     4.1-20200408                       |
|   \\  /    A nd           | Web:         http://www.foam-extend.org         |
|    \\/     M anipulation  |                                                 |
\*---------------------------------------------------------------------------*/
FoamFile
{
    version     2.0;
    format      ascii;
    class       volTensorField;
    location    "0.0730000";
    object      F;
}
// * * * * * * * * * * * * * * * * * * * * * * * * * * * * * * * * * * * * * //

dimensions      [0 0 0 0 0 0 0];

internalField   nonuniform List<tensor> 
1952
(
(1.07473 -0.00482989 -2.55713e-10 -0.000444319 0.962966 -5.92491e-11 7.0319e-11 8.59908e-10 0.962906)
(1.07474 -0.00813342 -1.19525e-10 -0.000700569 0.963039 -1.24291e-09 4.21336e-11 -8.73381e-10 0.962953)
(1.07475 -0.0109492 2.10118e-10 -0.000996763 0.963177 4.28462e-10 -7.15127e-11 -6.13968e-09 0.962981)
(1.07477 -0.0136052 5.1292e-10 -0.00124854 0.963315 2.02344e-09 -1.95186e-10 2.32512e-09 0.963052)
(1.07479 -0.0158093 -1.97127e-10 -0.00154311 0.963512 -5.20513e-10 -3.84451e-12 1.18164e-08 0.963103)
(1.0748 -0.0176229 -8.99212e-10 -0.00178611 0.963697 -2.18435e-09 1.98919e-10 1.70852e-09 0.963194)
(1.07483 -0.0189135 -3.27395e-10 -0.0020737 0.963953 -8.68246e-10 4.70574e-11 -1.22004e-08 0.963262)
(1.07485 -0.0197089 6.34512e-10 -0.00230391 0.964221 1.14869e-09 -1.4532e-10 -2.06465e-09 0.963374)
(1.07487 -0.0196982 -8.1951e-11 -0.00257942 0.96456 -2.31641e-10 -6.29018e-11 1.17103e-08 0.963465)
(1.07489 -0.018863 -9.33848e-10 -0.00278999 0.964955 -1.24967e-09 6.66489e-11 -2.51308e-09 0.963601)
(1.0749 -0.0167262 2.9087e-10 -0.00304725 0.965428 2.8819e-10 -2.41972e-11 -1.19087e-08 0.963727)
(1.07492 -0.0136659 8.3661e-10 -0.00323235 0.966107 8.5048e-10 -1.08575e-10 2.04942e-09 0.963896)
(1.07493 -0.00915378 -3.324e-11 -0.0034708 0.966848 -7.64671e-11 -1.02866e-10 1.14951e-08 0.964083)
(1.07495 -0.00380045 -6.21785e-10 -0.00363329 0.967663 -8.91296e-10 -2.01085e-11 1.79884e-09 0.964306)
(1.07498 0.000254888 -3.01546e-10 -0.00389472 0.968073 -2.48906e-10 -1.82716e-11 -3.67272e-09 0.964546)
(1.07472 -0.00262069 -7.86107e-11 -0.000183096 0.962905 -2.97211e-09 1.46001e-11 -1.25217e-09 0.962917)
(1.0748 -0.00483329 -2.55868e-10 -0.000424276 0.962955 -5.93411e-11 -9.23122e-12 8.60287e-10 0.962897)
(1.0748 -0.00813935 -1.19541e-10 -0.00068873 0.963029 -1.24348e-09 -1.23271e-11 -8.7345e-10 0.962943)
(1.07482 -0.0109572 2.10279e-10 -0.000957473 0.963166 4.28749e-10 -1.19856e-11 -6.14157e-09 0.962971)
(1.07483 -0.013615 5.13248e-10 -0.00122043 0.963305 2.02497e-09 -2.80795e-11 2.32482e-09 0.963041)
(1.07485 -0.0158204 -1.97238e-10 -0.00148511 0.963501 -5.20614e-10 -5.02494e-11 1.18199e-08 0.963093)
(1.07487 -0.0176355 -8.99627e-10 -0.0017395 0.963686 -2.186e-09 -3.9764e-11 1.71078e-09 0.963183)
(1.0749 -0.0189276 -3.27617e-10 -0.00199528 0.963941 -8.67982e-10 -1.19157e-11 -1.22034e-08 0.963252)
(1.07492 -0.0197248 6.34533e-10 -0.00223544 0.964208 1.15069e-09 -3.01694e-11 -2.06622e-09 0.963363)
(1.07494 -0.0197159 -8.19857e-11 -0.00247738 0.964546 -2.31635e-10 -8.39976e-11 1.17139e-08 0.963455)
(1.07496 -0.0188833 -9.33642e-10 -0.00269607 0.964939 -1.25155e-09 -6.32661e-11 -2.51289e-09 0.96359)
(1.07498 -0.0167513 2.90788e-10 -0.00291838 0.965409 2.87639e-10 -7.55198e-12 -1.19126e-08 0.963715)
(1.075 -0.0136995 8.35844e-10 -0.00310715 0.966086 8.51727e-10 -4.44818e-11 2.0498e-09 0.963884)
(1.07502 -0.00920154 -3.32132e-11 -0.00330564 0.966821 -7.64781e-11 -1.10197e-10 1.14992e-08 0.96407)
(1.07504 -0.00388121 -6.16788e-10 -0.00346171 0.967629 -8.91805e-10 -1.06027e-10 1.79953e-09 0.964291)
(1.07508 0.000102133 -2.9706e-10 -0.00366798 0.968031 -2.48432e-10 -4.32505e-11 -3.67472e-09 0.96453)
(1.07479 -0.0026228 -7.86857e-11 -0.000181934 0.962896 -2.97272e-09 -3.38815e-12 -1.2525e-09 0.962907)
(1.07486 -0.00483701 -2.5602e-10 -0.000419031 0.962935 -5.935e-11 -9.24454e-12 8.60749e-10 0.962876)
(1.07487 -0.00814589 -1.19551e-10 -0.000680678 0.963009 -1.24418e-09 -1.23493e-11 -8.73956e-10 0.962922)
(1.07489 -0.0109658 2.10442e-10 -0.000945471 0.963145 4.29074e-10 -1.20111e-11 -6.14496e-09 0.962951)
(1.0749 -0.0136263 5.13338e-10 -0.00120603 0.963284 2.02641e-09 -2.81182e-11 2.32609e-09 0.963021)
(1.07492 -0.0158337 -1.97381e-10 -0.00146657 0.96348 -5.20868e-10 -5.03094e-11 1.18265e-08 0.963072)
(1.07494 -0.0176506 -8.9998e-10 -0.00171844 0.963664 -2.18755e-09 -3.98243e-11 1.71173e-09 0.963162)
(1.07496 -0.0189451 -3.27915e-10 -0.00196983 0.963918 -8.68271e-10 -1.19592e-11 -1.22103e-08 0.963231)
(1.07499 -0.0197446 6.34447e-10 -0.00220762 0.964185 1.15186e-09 -3.02219e-11 -2.06744e-09 0.963341)
(1.07501 -0.0197362 -8.20583e-11 -0.00244522 0.964521 -2.31719e-10 -8.40957e-11 1.17207e-08 0.963433)
(1.07503 -0.0189055 -9.33055e-10 -0.00266169 0.964913 -1.25299e-09 -6.33627e-11 -2.51443e-09 0.963568)
(1.07505 -0.0167764 2.91068e-10 -0.00288012 0.965381 2.87506e-10 -7.59793e-12 -1.19199e-08 0.963693)
(1.07507 -0.0137279 8.35576e-10 -0.00306751 0.966057 8.52942e-10 -4.45448e-11 2.05107e-09 0.963861)
(1.07509 -0.00923237 -3.31937e-11 -0.00326369 0.966792 -7.65081e-11 -1.10325e-10 1.15066e-08 0.964047)
(1.07511 -0.00391422 -6.1654e-10 -0.00342023 0.967599 -8.93241e-10 -1.06177e-10 1.80071e-09 0.964267)
(1.07514 6.51298e-05 -2.97205e-10 -0.00362732 0.968004 -2.48734e-10 -4.33258e-11 -3.67717e-09 0.964506)
(1.07485 -0.00262512 -7.87232e-11 -0.00017974 0.962876 -2.97414e-09 -3.39383e-12 -1.25319e-09 0.962887)
(1.07493 -0.00484084 -2.56188e-10 -0.000414764 0.962911 -5.93395e-11 -9.25821e-12 8.61273e-10 0.962853)
(1.07494 -0.00815269 -1.19554e-10 -0.000674015 0.962985 -1.24494e-09 -1.23708e-11 -8.74527e-10 0.962899)
(1.07496 -0.0109748 2.1061e-10 -0.000935775 0.963122 4.29419e-10 -1.20363e-11 -6.14883e-09 0.962928)
(1.07497 -0.0136375 5.1355e-10 -0.00119411 0.96326 2.02777e-09 -2.81583e-11 2.32754e-09 0.962997)
(1.07499 -0.0158468 -1.97521e-10 -0.00145131 0.963455 -5.21173e-10 -5.03707e-11 1.1834e-08 0.963049)
(1.07501 -0.0176659 -9.00319e-10 -0.00170097 0.963639 -2.18899e-09 -3.98841e-11 1.71281e-09 0.963139)
(1.07504 -0.0189623 -3.28247e-10 -0.001949 0.963893 -8.68761e-10 -1.20004e-11 -1.22183e-08 0.963207)
(1.07506 -0.0197645 6.34092e-10 -0.00218472 0.964159 1.15273e-09 -3.02746e-11 -2.06883e-09 0.963317)
(1.07509 -0.0197579 -8.21291e-11 -0.00241912 0.964494 -2.31838e-10 -8.41963e-11 1.17285e-08 0.963409)
(1.07511 -0.0189289 -9.3286e-10 -0.00263399 0.964884 -1.25398e-09 -6.34599e-11 -2.51616e-09 0.963543)
(1.07513 -0.0168024 2.91282e-10 -0.00284978 0.965352 2.87614e-10 -7.64046e-12 -1.19282e-08 0.963668)
(1.07515 -0.0137567 8.35601e-10 -0.00303647 0.966027 8.53873e-10 -4.46067e-11 2.05249e-09 0.963835)
(1.07516 -0.00926245 -3.31767e-11 -0.0032313 0.966761 -7.65459e-11 -1.10455e-10 1.15149e-08 0.964021)
(1.07518 -0.00394575 -6.16413e-10 -0.00338863 0.967568 -8.94415e-10 -1.06328e-10 1.80201e-09 0.964241)
(1.0752 3.33129e-05 -2.97679e-10 -0.00359582 0.967976 -2.48935e-10 -4.33998e-11 -3.67993e-09 0.96448)
(1.07492 -0.00262748 -7.87506e-11 -0.000177943 0.962852 -2.97577e-09 -3.3995e-12 -1.25397e-09 0.962863)
(1.07501 -0.00484477 -2.56365e-10 -0.000411106 0.962886 -5.93159e-11 -9.2722e-12 8.61855e-10 0.962827)
(1.07501 -0.00815957 -1.19581e-10 -0.000668142 0.96296 -1.24575e-09 -1.23918e-11 -8.75162e-10 0.962873)
(1.07503 -0.0109841 2.10792e-10 -0.000927494 0.963096 4.29781e-10 -1.20608e-11 -6.15314e-09 0.962902)
(1.07504 -0.0136497 5.13753e-10 -0.00118371 0.963233 2.02921e-09 -2.81998e-11 2.32914e-09 0.962971)
(1.07507 -0.0158607 -1.97673e-10 -0.00143857 0.963428 -5.21509e-10 -5.04333e-11 1.18423e-08 0.963023)
(1.07509 -0.0176818 -9.00687e-10 -0.00168621 0.963611 -2.19055e-09 -3.99434e-11 1.71401e-09 0.963112)
(1.07511 -0.0189804 -3.28585e-10 -0.00193201 0.963865 -8.69322e-10 -1.20399e-11 -1.22271e-08 0.96318)
(1.07514 -0.019785 6.33902e-10 -0.00216597 0.964131 1.15362e-09 -3.03275e-11 -2.07036e-09 0.963291)
(1.07516 -0.0197791 -8.22103e-11 -0.00239845 0.964464 -2.31971e-10 -8.42989e-11 1.17371e-08 0.963382)
(1.07518 -0.0189515 -9.32333e-10 -0.00261204 0.964854 -1.25516e-09 -6.35573e-11 -2.51807e-09 0.963516)
(1.0752 -0.016827 2.91666e-10 -0.00282657 0.965321 2.87747e-10 -7.68015e-12 -1.19372e-08 0.963641)
(1.07522 -0.0137832 8.35398e-10 -0.00301282 0.965997 8.54948e-10 -4.46679e-11 2.05404e-09 0.963807)
(1.07523 -0.00928921 -3.31604e-11 -0.00320731 0.966731 -7.65856e-11 -1.10589e-10 1.15238e-08 0.963993)
(1.07524 -0.00397073 -6.16573e-10 -0.0033653 0.967539 -8.95635e-10 -1.06481e-10 1.8034e-09 0.964213)
(1.07526 9.46458e-06 -2.9807e-10 -0.003573 0.967949 -2.49164e-10 -4.34729e-11 -3.68286e-09 0.964452)
(1.075 -0.00262981 -7.88251e-11 -0.000176382 0.962827 -2.97761e-09 -3.40516e-12 -1.25484e-09 0.962838)
(1.07508 -0.0048487 -2.56559e-10 -0.000408185 0.962858 -5.92969e-11 -9.28644e-12 8.62483e-10 0.9628)
(1.07509 -0.00816662 -1.19598e-10 -0.000663407 0.962932 -1.24664e-09 -1.24124e-11 -8.75848e-10 0.962845)
(1.07511 -0.0109934 2.10966e-10 -0.000920909 0.963068 4.30173e-10 -1.20849e-11 -6.15779e-09 0.962874)
(1.07512 -0.0136616 5.1394e-10 -0.00117535 0.963205 2.03077e-09 -2.82424e-11 2.33087e-09 0.962943)
(1.07514 -0.0158744 -1.97821e-10 -0.0014284 0.963399 -5.21875e-10 -5.04973e-11 1.18513e-08 0.962994)
(1.07516 -0.0176977 -9.00999e-10 -0.00167442 0.963582 -2.1922e-09 -4.00023e-11 1.7153e-09 0.963084)
(1.07519 -0.0189983 -3.2896e-10 -0.0019186 0.963835 -8.69955e-10 -1.20774e-11 -1.22366e-08 0.963152)
(1.07521 -0.0198056 6.3347e-10 -0.00215122 0.964101 1.15456e-09 -3.03804e-11 -2.072e-09 0.963262)
(1.07524 -0.0198009 -8.22909e-11 -0.00238248 0.964434 -2.32116e-10 -8.44036e-11 1.17463e-08 0.963353)
(1.07526 -0.0189741 -9.32176e-10 -0.00259538 0.964823 -1.25624e-09 -6.36548e-11 -2.5201e-09 0.963487)
(1.07528 -0.0168509 2.92002e-10 -0.00280932 0.96529 2.87972e-10 -7.71766e-12 -1.19468e-08 0.963612)
(1.07529 -0.013808 8.35554e-10 -0.00299557 0.965966 8.5592e-10 -4.47286e-11 2.05567e-09 0.963778)
(1.0753 -0.00931263 -3.31391e-11 -0.00319015 0.966701 -7.66273e-11 -1.10724e-10 1.15331e-08 0.963964)
(1.07531 -0.0039916 -6.168e-10 -0.0033487 0.96751 -8.96732e-10 -1.06635e-10 1.80486e-09 0.964184)
(1.07532 -9.23198e-06 -2.98472e-10 -0.00355637 0.967921 -2.49379e-10 -4.35453e-11 -3.68593e-09 0.964423)
(1.07507 -0.00263216 -7.88707e-11 -0.000175133 0.962799 -2.97961e-09 -3.41081e-12 -1.25579e-09 0.96281)
(1.07516 -0.00485277 -2.56733e-10 -0.000405849 0.962828 -5.92719e-11 -9.30087e-12 8.63147e-10 0.96277)
(1.07517 -0.00817373 -1.19635e-10 -0.000659628 0.962902 -1.24757e-09 -1.24325e-11 -8.76575e-10 0.962816)
(1.07518 -0.011003 2.11158e-10 -0.000915657 0.963038 4.30579e-10 -1.21085e-11 -6.16272e-09 0.962845)
(1.0752 -0.0136741 5.14195e-10 -0.00116869 0.963175 2.0324e-09 -2.82859e-11 2.33269e-09 0.962914)
(1.07522 -0.0158887 -1.97975e-10 -0.00142047 0.963369 -5.22257e-10 -5.05619e-11 1.18607e-08 0.962965)
(1.07524 -0.0177138 -9.01386e-10 -0.00166525 0.963552 -2.19394e-09 -4.0061e-11 1.71666e-09 0.963054)
(1.07527 -0.0190163 -3.29323e-10 -0.00190839 0.963804 -8.70615e-10 -1.21138e-11 -1.22465e-08 0.963122)
(1.07529 -0.0198259 6.33245e-10 -0.00214004 0.96407 1.15557e-09 -3.04334e-11 -2.07372e-09 0.963232)
(1.07532 -0.0198214 -8.23756e-11 -0.00237063 0.964402 -2.32267e-10 -8.45094e-11 1.17559e-08 0.963323)
(1.07534 -0.0189953 -9.31749e-10 -0.00258313 0.964792 -1.2575e-09 -6.37525e-11 -2.52222e-09 0.963457)
(1.07535 -0.0168728 2.92462e-10 -0.00279688 0.965259 2.88182e-10 -7.75376e-12 -1.19568e-08 0.963581)
(1.07537 -0.0138304 8.35448e-10 -0.00298328 0.965936 8.57015e-10 -4.47888e-11 2.05737e-09 0.963748)
(1.07537 -0.00933351 -3.31176e-11 -0.00317797 0.966671 -7.66685e-11 -1.1086e-10 1.15428e-08 0.963933)
(1.07538 -0.00400851 -6.17072e-10 -0.00333686 0.967481 -8.9777e-10 -1.06791e-10 1.80637e-09 0.964153)
(1.07539 -2.35182e-05 -2.98836e-10 -0.00354459 0.967894 -2.4959e-10 -4.36173e-11 -3.68909e-09 0.964392)
(1.07515 -0.00263451 -7.89354e-11 -0.000174134 0.962769 -2.98174e-09 -3.41644e-12 -1.2568e-09 0.96278)
(1.07524 -0.00485676 -2.56921e-10 -0.000404042 0.962797 -5.92507e-11 -9.31544e-12 8.6384e-10 0.962739)
(1.07525 -0.00818088 -1.19651e-10 -0.000656705 0.962871 -1.24855e-09 -1.24524e-11 -8.77334e-10 0.962785)
(1.07526 -0.0110125 2.11337e-10 -0.000911644 0.963007 4.31006e-10 -1.21317e-11 -6.16786e-09 0.962814)
(1.07528 -0.0136863 5.14372e-10 -0.00116364 0.963143 2.03414e-09 -2.83301e-11 2.3346e-09 0.962883)
(1.0753 -0.0159025 -1.9813e-10 -0.00141453 0.963337 -5.22655e-10 -5.06272e-11 1.18706e-08 0.962934)
(1.07532 -0.0177296 -9.01677e-10 -0.00165851 0.96352 -2.19577e-09 -4.01194e-11 1.71807e-09 0.963023)
(1.07535 -0.0190339 -3.2973e-10 -0.001901 0.963773 -8.71301e-10 -1.21491e-11 -1.22569e-08 0.963091)
(1.07537 -0.0198457 6.32823e-10 -0.00213217 0.964038 1.15669e-09 -3.04865e-11 -2.07551e-09 0.963201)
(1.07539 -0.0198419 -8.24586e-11 -0.0023624 0.96437 -2.32423e-10 -8.4616e-11 1.17659e-08 0.963292)
(1.07541 -0.0190158 -9.31601e-10 -0.00257477 0.96476 -1.25868e-09 -6.38503e-11 -2.52442e-09 0.963425)
(1.07543 -0.0168936 2.92879e-10 -0.00278845 0.965228 2.88451e-10 -7.78896e-12 -1.19671e-08 0.96355)
(1.07544 -0.0138506 8.35649e-10 -0.0029751 0.965906 8.57963e-10 -4.48489e-11 2.05911e-09 0.963716)
(1.07545 -0.00935119 -3.30889e-11 -0.00316977 0.966642 -7.67108e-11 -1.10997e-10 1.15528e-08 0.963902)
(1.07545 -0.00402224 -6.17361e-10 -0.00332892 0.967453 -8.98771e-10 -1.06948e-10 1.8079e-09 0.964122)
(1.07545 -3.44222e-05 -2.99155e-10 -0.00353637 0.967867 -2.49793e-10 -4.36889e-11 -3.69233e-09 0.964361)
(1.07523 -0.00263688 -7.89652e-11 -0.00017336 0.962739 -2.98397e-09 -3.42207e-12 -1.25785e-09 0.962749)
(1.07532 -0.0048609 -2.57114e-10 -0.00040276 0.962765 -5.92239e-11 -9.33009e-12 8.64556e-10 0.962708)
(1.07533 -0.0081881 -1.19684e-10 -0.000654658 0.962839 -1.24956e-09 -1.24719e-11 -8.78118e-10 0.962753)
(1.07534 -0.0110222 2.11536e-10 -0.000908904 0.962975 4.31438e-10 -1.21547e-11 -6.17317e-09 0.962782)
(1.07536 -0.0136988 5.14638e-10 -0.0011602 0.963112 2.03594e-09 -2.83746e-11 2.33657e-09 0.962851)
(1.07538 -0.0159165 -1.98283e-10 -0.00141051 0.963305 -5.2306e-10 -5.06929e-11 1.18808e-08 0.962902)
(1.0754 -0.0177453 -9.02061e-10 -0.00165398 0.963488 -2.19765e-09 -4.01774e-11 1.71952e-09 0.962991)
(1.07543 -0.0190511 -3.30106e-10 -0.00189607 0.963741 -8.72006e-10 -1.2184e-11 -1.22676e-08 0.963059)
(1.07545 -0.0198647 6.3266e-10 -0.00212691 0.964006 1.15778e-09 -3.05396e-11 -2.07735e-09 0.963169)
(1.07547 -0.0198607 -8.25352e-11 -0.00235694 0.964338 -2.3258e-10 -8.47231e-11 1.17761e-08 0.96326)
(1.07549 -0.0190347 -9.31256e-10 -0.00256917 0.964729 -1.25997e-09 -6.39482e-11 -2.52665e-09 0.963393)
(1.0755 -0.0169124 2.93367e-10 -0.00278296 0.965197 2.88701e-10 -7.82345e-12 -1.19776e-08 0.963518)
(1.07551 -0.0138692 8.35531e-10 -0.00296957 0.965876 8.58976e-10 -4.4909e-11 2.06087e-09 0.963684)
(1.07552 -0.009367 -3.30623e-11 -0.00316446 0.966612 -7.67529e-11 -1.11134e-10 1.15629e-08 0.963871)
(1.07552 -0.00403295 -6.17549e-10 -0.00332391 0.967424 -8.99658e-10 -1.07105e-10 1.80946e-09 0.964091)
(1.07552 -4.26126e-05 -2.99431e-10 -0.00353097 0.967839 -2.50007e-10 -4.37604e-11 -3.69561e-09 0.96433)
(1.07531 -0.00263927 -7.90141e-11 -0.000172811 0.962707 -2.98628e-09 -3.42767e-12 -1.25893e-09 0.962718)
(1.0754 -0.00486483 -2.57287e-10 -0.000401883 0.962733 -5.91987e-11 -9.34478e-12 8.65285e-10 0.962675)
(1.07541 -0.00819516 -1.19699e-10 -0.000653232 0.962807 -1.25059e-09 -1.24911e-11 -8.78918e-10 0.962721)
(1.07542 -0.0110314 2.11703e-10 -0.000907006 0.962943 4.31884e-10 -1.21775e-11 -6.17858e-09 0.96275)
(1.07544 -0.0137106 5.14774e-10 -0.00115775 0.963079 2.03778e-09 -2.84193e-11 2.33857e-09 0.962819)
(1.07546 -0.0159299 -1.98431e-10 -0.00140777 0.963273 -5.23473e-10 -5.07589e-11 1.18912e-08 0.962869)
(1.07548 -0.0177605 -9.02318e-10 -0.00165083 0.963456 -2.19956e-09 -4.02352e-11 1.721e-09 0.962959)
(1.0755 -0.0190679 -3.30524e-10 -0.00189273 0.963708 -8.72717e-10 -1.22181e-11 -1.22784e-08 0.963027)
(1.07553 -0.0198835 6.32204e-10 -0.00212331 0.963974 1.15897e-09 -3.05923e-11 -2.07921e-09 0.963136)
(1.07555 -0.0198795 -8.26189e-11 -0.00235339 0.964306 -2.32739e-10 -8.4831e-11 1.17865e-08 0.963228)
(1.07557 -0.0190526 -9.31078e-10 -0.00256597 0.964697 -1.26125e-09 -6.4046e-11 -2.52892e-09 0.963361)
(1.07558 -0.0169299 2.93824e-10 -0.00277993 0.965166 2.88951e-10 -7.85728e-12 -1.19882e-08 0.963486)
(1.07559 -0.0138853 8.3572e-10 -0.00296706 0.965846 8.59991e-10 -4.49687e-11 2.06266e-09 0.963652)
(1.07559 -0.00938027 -3.30297e-11 -0.00316198 0.966583 -7.67952e-11 -1.11272e-10 1.1573e-08 0.963839)
(1.07559 -0.00404181 -6.17818e-10 -0.00332129 0.967395 -9.00466e-10 -1.07262e-10 1.81103e-09 0.964059)
(1.07559 -4.85522e-05 -2.99682e-10 -0.003528 0.96781 -2.50214e-10 -4.38318e-11 -3.69891e-09 0.964299)
(1.07539 -0.00264163 -7.90616e-11 -0.000172434 0.962674 -2.98864e-09 -3.43325e-12 -1.26004e-09 0.962685)
(1.07548 -0.00486888 -2.57476e-10 -0.000401279 0.9627 -5.91718e-11 -9.3595e-12 8.66025e-10 0.962642)
(1.07549 -0.00820228 -1.19724e-10 -0.000652324 0.962774 -1.25164e-09 -1.25102e-11 -8.7973e-10 0.962688)
(1.0755 -0.0110411 2.11895e-10 -0.000905721 0.96291 4.32333e-10 -1.21999e-11 -6.18406e-09 0.962717)
(1.07552 -0.0137229 5.15083e-10 -0.00115629 0.963046 2.0397e-09 -2.84642e-11 2.3406e-09 0.962786)
(1.07554 -0.0159434 -1.98581e-10 -0.00140639 0.96324 -5.23886e-10 -5.08253e-11 1.19017e-08 0.962837)
(1.07556 -0.0177755 -9.02667e-10 -0.00164949 0.963423 -2.20154e-09 -4.02927e-11 1.7225e-09 0.962926)
(1.07558 -0.019084 -3.30918e-10 -0.00189145 0.963676 -8.73425e-10 -1.22522e-11 -1.22893e-08 0.962994)
(1.0756 -0.0199008 6.32086e-10 -0.00212236 0.963942 1.16018e-09 -3.06451e-11 -2.08109e-09 0.963104)
(1.07563 -0.0198962 -8.26845e-11 -0.00235263 0.964275 -2.32899e-10 -8.4938e-11 1.17969e-08 0.963195)
(1.07564 -0.0190692 -9.30775e-10 -0.00256511 0.964666 -1.26245e-09 -6.41439e-11 -2.5312e-09 0.963328)
(1.07565 -0.016946 2.94308e-10 -0.00277918 0.965135 2.89239e-10 -7.89114e-12 -1.19988e-08 0.963453)
(1.07566 -0.0139004 8.35697e-10 -0.00296626 0.965816 8.60852e-10 -4.50283e-11 2.06445e-09 0.96362)
(1.07566 -0.00939207 -3.29976e-11 -0.003161 0.966554 -7.68367e-11 -1.1141e-10 1.15832e-08 0.963807)
(1.07566 -0.0040488 -6.17895e-10 -0.0033201 0.967366 -9.01297e-10 -1.0742e-10 1.81261e-09 0.964027)
(1.07566 -5.32662e-05 -2.99911e-10 -0.00352627 0.967782 -2.50419e-10 -4.39029e-11 -3.70224e-09 0.964267)
(1.07547 -0.00264401 -7.90986e-11 -0.00017218 0.962642 -2.99103e-09 -3.43881e-12 -1.26116e-09 0.962652)
(1.07556 -0.00487269 -2.57645e-10 -0.000401218 0.962667 -5.91378e-11 -9.37419e-12 8.66771e-10 0.962609)
(1.07557 -0.00820913 -1.19721e-10 -0.000652223 0.962741 -1.2527e-09 -1.25292e-11 -8.80547e-10 0.962654)
(1.07558 -0.0110498 2.12042e-10 -0.000905755 0.962877 4.32778e-10 -1.22228e-11 -6.18959e-09 0.962684)
(1.0756 -0.013734 5.15139e-10 -0.00115625 0.963014 2.04162e-09 -2.8509e-11 2.34264e-09 0.962753)
(1.07562 -0.0159562 -1.98719e-10 -0.00140629 0.963208 -5.24297e-10 -5.08911e-11 1.19122e-08 0.962804)
(1.07564 -0.01779 -9.02931e-10 -0.00164945 0.963391 -2.20345e-09 -4.03501e-11 1.72399e-09 0.962893)
(1.07566 -0.0190997 -3.31317e-10 -0.00189129 0.963644 -8.74157e-10 -1.22865e-11 -1.23002e-08 0.962961)
(1.07568 -0.0199179 6.31794e-10 -0.00212229 0.96391 1.1613e-09 -3.06977e-11 -2.08296e-09 0.963071)
(1.0757 -0.0199127 -8.27607e-11 -0.00235253 0.964243 -2.33052e-10 -8.50454e-11 1.18073e-08 0.963162)
(1.07572 -0.0190846 -9.30487e-10 -0.00256499 0.964634 -1.2638e-09 -6.42416e-11 -2.53348e-09 0.963296)
(1.07573 -0.0169609 2.94769e-10 -0.00277907 0.965104 2.89471e-10 -7.92443e-12 -1.20095e-08 0.963421)
(1.07574 -0.0139142 8.35682e-10 -0.00296588 0.965786 8.61832e-10 -4.50878e-11 2.06625e-09 0.963588)
(1.07573 -0.00940286 -3.29619e-11 -0.00316064 0.966524 -7.68792e-11 -1.11548e-10 1.15935e-08 0.963775)
(1.07573 -0.00405469 -6.18051e-10 -0.00331969 0.967336 -9.0203e-10 -1.07577e-10 1.81419e-09 0.963995)
(1.07573 -5.68201e-05 -3.00094e-10 -0.00352547 0.967752 -2.50638e-10 -4.3974e-11 -3.70556e-09 0.964235)
(1.07555 -0.00264635 -7.91643e-11 -0.000172151 0.962608 -2.99345e-09 -3.44436e-12 -1.26229e-09 0.962619)
(1.07564 -0.0048765 -2.57823e-10 -0.000401317 0.962634 -5.91113e-11 -9.38887e-12 8.67512e-10 0.962576)
(1.07565 -0.00821598 -1.1973e-10 -0.000652384 0.962708 -1.25376e-09 -1.25481e-11 -8.81361e-10 0.962621)
(1.07566 -0.0110589 2.12207e-10 -0.000905928 0.962844 4.33234e-10 -1.22455e-11 -6.19507e-09 0.962651)
(1.07568 -0.0137452 5.15377e-10 -0.00115651 0.962981 2.04354e-09 -2.85542e-11 2.34467e-09 0.96272)
(1.0757 -0.0159688 -1.98854e-10 -0.00140661 0.963175 -5.2471e-10 -5.09565e-11 1.19227e-08 0.962771)
(1.07572 -0.0178041 -9.03265e-10 -0.00164974 0.963358 -2.20538e-09 -4.04075e-11 1.72548e-09 0.96286)
(1.07574 -0.0191146 -3.31724e-10 -0.00189172 0.963611 -8.7489e-10 -1.23199e-11 -1.23112e-08 0.962928)
(1.07576 -0.0199342 6.31406e-10 -0.00212256 0.963878 1.16247e-09 -3.075e-11 -2.08484e-09 0.963038)
(1.07578 -0.0199285 -8.28303e-11 -0.00235296 0.964211 -2.33212e-10 -8.51535e-11 1.18177e-08 0.96313)
(1.07579 -0.0190994 -9.30216e-10 -0.00256566 0.964603 -1.26501e-09 -6.4339e-11 -2.53576e-09 0.963263)
(1.0758 -0.0169749 2.95237e-10 -0.00277991 0.965073 2.89729e-10 -7.95742e-12 -1.20201e-08 0.963389)
(1.07581 -0.0139266 8.35723e-10 -0.00296691 0.965756 8.62777e-10 -4.51472e-11 2.06804e-09 0.963556)
(1.07581 -0.00941208 -3.29244e-11 -0.00316174 0.966494 -7.6921e-11 -1.11686e-10 1.16037e-08 0.963743)
(1.0758 -0.0040595 -6.18085e-10 -0.00332031 0.967307 -9.02767e-10 -1.07734e-10 1.81577e-09 0.963963)
(1.0758 -5.95484e-05 -3.00282e-10 -0.00352567 0.967723 -2.50853e-10 -4.4045e-11 -3.70889e-09 0.964204)
(1.07563 -0.00264866 -7.91986e-11 -0.000172197 0.962575 -2.99585e-09 -3.4499e-12 -1.26342e-09 0.962586)
(1.07572 -0.00488014 -2.57968e-10 -0.000401528 0.962601 -5.90769e-11 -9.40358e-12 8.68255e-10 0.962543)
(1.07573 -0.00822263 -1.19714e-10 -0.00065278 0.962675 -1.25481e-09 -1.2567e-11 -8.82176e-10 0.962588)
(1.07574 -0.0110676 2.12358e-10 -0.000906249 0.962811 4.33676e-10 -1.22682e-11 -6.20057e-09 0.962618)
(1.07575 -0.0137561 5.15534e-10 -0.00115719 0.962948 2.04545e-09 -2.85999e-11 2.3467e-09 0.962687)
(1.07578 -0.0159812 -1.98988e-10 -0.00140736 0.963143 -5.25119e-10 -5.10211e-11 1.19331e-08 0.962738)
(1.07579 -0.0178181 -9.03581e-10 -0.00165071 0.963326 -2.20734e-09 -4.04647e-11 1.72698e-09 0.962828)
(1.07582 -0.0191293 -3.32138e-10 -0.00189309 0.963579 -8.75587e-10 -1.23534e-11 -1.2322e-08 0.962895)
(1.07584 -0.0199498 6.31133e-10 -0.00212419 0.963847 1.16372e-09 -3.08027e-11 -2.08671e-09 0.963006)
(1.07586 -0.0199431 -8.28968e-11 -0.00235496 0.96418 -2.33366e-10 -8.52601e-11 1.18281e-08 0.963097)
(1.07587 -0.0191131 -9.29831e-10 -0.00256748 0.964572 -1.26632e-09 -6.44364e-11 -2.53804e-09 0.963231)
(1.07588 -0.016988 2.95705e-10 -0.0027817 0.965043 2.89962e-10 -7.9912e-12 -1.20307e-08 0.963356)
(1.07588 -0.0139384 8.35675e-10 -0.00296851 0.965726 8.63712e-10 -4.52063e-11 2.06982e-09 0.963523)
(1.07588 -0.00942101 -3.28853e-11 -0.00316286 0.966465 -7.69617e-11 -1.11823e-10 1.16139e-08 0.963711)
(1.07587 -0.00406387 -6.18174e-10 -0.00332093 0.967276 -9.03525e-10 -1.07891e-10 1.81734e-09 0.963932)
(1.07587 -6.19607e-05 -3.00426e-10 -0.00352578 0.967692 -2.5107e-10 -4.41161e-11 -3.71221e-09 0.964172)
(1.07571 -0.00265096 -7.92691e-11 -0.000172295 0.962542 -2.99826e-09 -3.45543e-12 -1.26455e-09 0.962553)
(1.0758 -0.0048838 -2.58124e-10 -0.000402024 0.962568 -5.90433e-11 -9.41818e-12 8.6899e-10 0.96251)
(1.0758 -0.00822929 -1.19701e-10 -0.000653591 0.962643 -1.25584e-09 -1.2586e-11 -8.82982e-10 0.962556)
(1.07582 -0.011076 2.12493e-10 -0.000907466 0.962779 4.34111e-10 -1.22911e-11 -6.20603e-09 0.962585)
(1.07583 -0.0137664 5.15606e-10 -0.00115873 0.962916 2.04727e-09 -2.86452e-11 2.34872e-09 0.962654)
(1.07585 -0.0159933 -1.99117e-10 -0.0014089 0.96311 -5.2553e-10 -5.10858e-11 1.19435e-08 0.962705)
(1.07587 -0.0178318 -9.03882e-10 -0.00165242 0.963294 -2.20927e-09 -4.0522e-11 1.72846e-09 0.962795)
(1.07589 -0.0191434 -3.32552e-10 -0.00189499 0.963547 -8.7629e-10 -1.23871e-11 -1.23329e-08 0.962863)
(1.07591 -0.0199651 6.30742e-10 -0.00212615 0.963815 1.1649e-09 -3.08552e-11 -2.08857e-09 0.962973)
(1.07593 -0.0199575 -8.29656e-11 -0.0023569 0.964148 -2.33517e-10 -8.53668e-11 1.18384e-08 0.963065)
(1.07594 -0.0191263 -9.29482e-10 -0.00256918 0.96454 -1.2676e-09 -6.45336e-11 -2.54029e-09 0.963199)
(1.07595 -0.0170005 2.9616e-10 -0.00278318 0.965012 2.90203e-10 -8.02452e-12 -1.20413e-08 0.963324)
(1.07596 -0.0139498 8.35598e-10 -0.00296947 0.965695 8.64588e-10 -4.52655e-11 2.0716e-09 0.963491)
(1.07595 -0.00942953 -3.2847e-11 -0.00316343 0.966434 -7.70043e-11 -1.11961e-10 1.1624e-08 0.963679)
(1.07595 -0.00406788 -6.18228e-10 -0.00332134 0.967246 -9.04279e-10 -1.08049e-10 1.81891e-09 0.9639)
(1.07594 -6.4239e-05 -3.00553e-10 -0.00352591 0.967662 -2.51289e-10 -4.4187e-11 -3.71553e-09 0.96414)
(1.07579 -0.00265324 -7.93083e-11 -0.000172507 0.96251 -3.00063e-09 -3.46095e-12 -1.26567e-09 0.96252)
(1.07587 -0.00488743 -2.58274e-10 -0.000402535 0.962536 -5.90085e-11 -9.43275e-12 8.69719e-10 0.962478)
(1.07588 -0.00823594 -1.19682e-10 -0.000654406 0.962611 -1.25687e-09 -1.2605e-11 -8.8378e-10 0.962523)
(1.07589 -0.0110844 2.12636e-10 -0.000908644 0.962747 4.34547e-10 -1.23137e-11 -6.21142e-09 0.962553)
(1.07591 -0.013777 5.15692e-10 -0.00116008 0.962883 2.04907e-09 -2.86902e-11 2.35071e-09 0.962622)
(1.07593 -0.0160053 -1.99245e-10 -0.0014105 0.963078 -5.25939e-10 -5.1151e-11 1.19538e-08 0.962673)
(1.07595 -0.0178451 -9.04113e-10 -0.00165402 0.963262 -2.21121e-09 -4.05794e-11 1.72992e-09 0.962763)
(1.07597 -0.0191574 -3.32975e-10 -0.00189669 0.963516 -8.76968e-10 -1.24212e-11 -1.23436e-08 0.962831)
(1.07599 -0.0199801 6.30291e-10 -0.00212753 0.963784 1.16611e-09 -3.09075e-11 -2.09042e-09 0.962941)
(1.07601 -0.0199718 -8.30323e-11 -0.00235824 0.964116 -2.33668e-10 -8.54738e-11 1.18486e-08 0.963033)
(1.07602 -0.0191393 -9.29129e-10 -0.00257041 0.964509 -1.26893e-09 -6.46307e-11 -2.54254e-09 0.963167)
(1.07603 -0.0170127 2.96616e-10 -0.00278441 0.96498 2.90409e-10 -8.05809e-12 -1.20518e-08 0.963292)
(1.07603 -0.0139609 8.35491e-10 -0.00297033 0.965664 8.65574e-10 -4.53248e-11 2.07338e-09 0.963459)
(1.07603 -0.00943765 -3.28089e-11 -0.00316438 0.966404 -7.70469e-11 -1.12098e-10 1.16342e-08 0.963647)
(1.07602 -0.0040714 -6.18245e-10 -0.00332208 0.967215 -9.05005e-10 -1.08206e-10 1.82048e-09 0.963868)
(1.07602 -6.61424e-05 -3.00674e-10 -0.00352641 0.967631 -2.51518e-10 -4.4258e-11 -3.71885e-09 0.964109)
(1.07586 -0.00265551 -7.93793e-11 -0.000172728 0.962477 -3.00299e-09 -3.46646e-12 -1.26677e-09 0.962488)
(1.07595 -0.00489097 -2.5842e-10 -0.000402976 0.962504 -5.89763e-11 -9.4473e-12 8.70439e-10 0.962446)
(1.07595 -0.00824249 -1.19656e-10 -0.000655094 0.962579 -1.25789e-09 -1.26242e-11 -8.84571e-10 0.962491)
(1.07597 -0.0110929 2.12776e-10 -0.000909428 0.962715 4.34984e-10 -1.23363e-11 -6.21676e-09 0.962521)
(1.07598 -0.0137876 5.15766e-10 -0.00116099 0.962851 2.05089e-09 -2.87353e-11 2.35268e-09 0.96259)
(1.076 -0.0160172 -1.99377e-10 -0.00141179 0.963046 -5.26344e-10 -5.12161e-11 1.19641e-08 0.962641)
(1.07602 -0.0178585 -9.04307e-10 -0.00165531 0.96323 -2.21317e-09 -4.06369e-11 1.73138e-09 0.962731)
(1.07604 -0.0191713 -3.33414e-10 -0.0018982 0.963484 -8.77624e-10 -1.24554e-11 -1.23542e-08 0.962799)
(1.07606 -0.0199952 6.29786e-10 -0.00212892 0.963752 1.16743e-09 -3.09597e-11 -2.09226e-09 0.962909)
(1.07608 -0.0199861 -8.31026e-11 -0.00235986 0.964085 -2.33819e-10 -8.55805e-11 1.18588e-08 0.963001)
(1.0761 -0.0191521 -9.28776e-10 -0.00257209 0.964477 -1.27025e-09 -6.47279e-11 -2.54478e-09 0.963135)
(1.0761 -0.0170247 2.97079e-10 -0.00278613 0.964949 2.90609e-10 -8.09195e-12 -1.20623e-08 0.96326)
(1.07611 -0.0139712 8.35499e-10 -0.00297218 0.965633 8.66582e-10 -4.5384e-11 2.07515e-09 0.963428)
(1.0761 -0.00944523 -3.27664e-11 -0.00316601 0.966373 -7.70886e-11 -1.12235e-10 1.16443e-08 0.963615)
(1.0761 -0.00407488 -6.18305e-10 -0.00332308 0.967184 -9.05751e-10 -1.08363e-10 1.82205e-09 0.963836)
(1.07609 -6.78498e-05 -3.00794e-10 -0.00352712 0.9676 -2.51742e-10 -4.43291e-11 -3.72216e-09 0.964077)
(1.07594 -0.00265775 -7.94264e-11 -0.000172922 0.962445 -3.00531e-09 -3.47197e-12 -1.26787e-09 0.962456)
(1.07602 -0.00489465 -2.5858e-10 -0.000403372 0.962472 -5.8944e-11 -9.46183e-12 8.71155e-10 0.962414)
(1.07603 -0.00824931 -1.19631e-10 -0.000655757 0.962547 -1.25889e-09 -1.26434e-11 -8.85356e-10 0.962459)
(1.07604 -0.0111016 2.12912e-10 -0.000910322 0.962683 4.35415e-10 -1.23589e-11 -6.22207e-09 0.962489)
(1.07606 -0.0137985 5.15807e-10 -0.00116218 0.96282 2.05273e-09 -2.87802e-11 2.35465e-09 0.962558)
(1.07608 -0.0160294 -1.99514e-10 -0.00141331 0.963014 -5.26744e-10 -5.1281e-11 1.19742e-08 0.962609)
(1.0761 -0.017872 -9.04478e-10 -0.00165714 0.963198 -2.21515e-09 -4.06943e-11 1.73283e-09 0.962699)
(1.07612 -0.0191854 -3.33878e-10 -0.00190032 0.963452 -8.78261e-10 -1.24901e-11 -1.23648e-08 0.962767)
(1.07614 -0.0200098 6.29423e-10 -0.00213138 0.963721 1.16877e-09 -3.10123e-11 -2.09408e-09 0.962877)
(1.07616 -0.0199999 -8.31653e-11 -0.00236249 0.964053 -2.33966e-10 -8.56862e-11 1.18689e-08 0.962969)
(1.07617 -0.0191648 -9.28411e-10 -0.00257432 0.964446 -1.27156e-09 -6.48253e-11 -2.54701e-09 0.963103)
(1.07618 -0.0170367 2.97535e-10 -0.00278822 0.964918 2.90827e-10 -8.12644e-12 -1.20727e-08 0.963229)
(1.07618 -0.0139818 8.35442e-10 -0.00297382 0.965602 8.67468e-10 -4.54434e-11 2.07691e-09 0.963396)
(1.07618 -0.009453 -3.27262e-11 -0.00316714 0.966342 -7.71305e-11 -1.12372e-10 1.16544e-08 0.963584)
(1.07617 -0.0040783 -6.18338e-10 -0.00332385 0.967152 -9.06578e-10 -1.0852e-10 1.82362e-09 0.963805)