/*--------------------------------*- C++ -*----------------------------------*\
| =========                 |                                                 |
| \\      /  F ield         | foam-extend: Open Source CFD                    |
|  \\    /   O peration     | Version:     4.1-20200408                       |
|   \\  /    A nd           | Web:         http://www.foam-extend.org         |
|    \\/     M anipulation  |                                                 |
\*---------------------------------------------------------------------------*/
FoamFile
{
    version     2.0;
    format      ascii;
    class       volSymmTensorField;
    location    "0.0685000";
    object      bEbar;
}
// * * * * * * * * * * * * * * * * * * * * * * * * * * * * * * * * * * * * * //

dimensions      [0 0 0 0 0 0 0];

internalField   nonuniform List<symmTensor> 
1952
(
(0.995046 1.19073e-05 -7.12485e-11 1.00244 -1.58322e-11 1.00253)
(0.995242 -3.97595e-07 -4.87908e-11 1.00225 4.03743e-11 1.00252)
(0.995434 2.07995e-05 5.26143e-11 1.00206 1.14669e-10 1.00253)
(0.995771 5.63695e-06 1.48177e-10 1.00175 -1.19312e-10 1.00249)
(0.996213 2.9939e-05 -4.26986e-11 1.00139 -3.02695e-10 1.0024)
(0.99669 1.42942e-05 -2.19842e-10 1.00097 3.46238e-11 1.00234)
(0.997245 3.94805e-05 -5.44303e-11 1.00053 4.66668e-10 1.00223)
(0.998013 2.55923e-05 1.09275e-10 0.99994 -3.97773e-11 1.00205)
(0.998977 5.18886e-05 -1.99935e-11 0.999301 -5.01972e-10 1.00172)
(1.00033 4.1752e-05 -1.1162e-10 0.998354 2.74814e-10 1.00132)
(1.00189 6.86051e-05 1.76273e-11 0.997386 5.58477e-10 1.00073)
(1.00407 6.2982e-05 6.22558e-11 0.995823 -2.78666e-10 1.00012)
(1.00684 9.54651e-05 -7.76544e-12 0.994189 -5.32864e-10 0.999009)
(1.00913 0.000100496 -9.52653e-11 0.992108 2.95426e-10 0.998834)
(1.00996 0.00015273 -2.50726e-11 0.991222 1.94593e-10 0.998904)
(0.995034 -2.07508e-06 -1.63674e-11 1.00248 5.08013e-11 1.00251)
(0.995018 2.7894e-05 -1.42564e-10 1.00245 -1.65889e-11 1.00255)
(0.995215 5.19324e-06 -9.76041e-11 1.00227 4.09332e-11 1.00254)
(0.995408 5.08738e-05 1.05304e-10 1.00207 1.1809e-10 1.00254)
(0.995746 2.23184e-05 2.96556e-10 1.00177 -1.19226e-10 1.0025)
(0.996189 7.46652e-05 -8.54375e-11 1.00141 -3.08825e-10 1.00242)
(0.996667 4.4477e-05 -4.39978e-10 1.00098 3.1565e-11 1.00236)
(0.997223 9.84129e-05 -1.08944e-10 1.00054 4.73507e-10 1.00224)
(0.997995 7.17016e-05 2.18224e-10 0.999948 -3.6352e-11 1.00206)
(0.998963 0.000127266 -4.00002e-11 0.999305 -5.07905e-10 1.00173)
(1.00032 0.000106749 -2.23178e-10 0.998354 2.74291e-10 1.00133)
(1.00189 0.000159623 3.48829e-11 0.997382 5.63853e-10 1.00073)
(1.00407 0.000142634 1.23771e-10 0.995812 -2.78963e-10 1.00013)
(1.00685 0.000195044 -1.54883e-11 0.99417 -5.38206e-10 0.999017)
(1.00916 0.000173175 -1.85829e-10 0.992075 2.94792e-10 0.998842)
(1.01001 0.00020751 -4.57579e-11 0.991174 1.96395e-10 0.99891)
(0.995006 -2.63053e-06 -3.27404e-11 1.00249 5.28648e-11 1.00252)
(0.995004 3.12023e-05 -1.42637e-10 1.00246 -1.68551e-11 1.00256)
(0.995202 9.76559e-06 -9.7625e-11 1.00227 4.14067e-11 1.00254)
(0.995395 5.83106e-05 1.05394e-10 1.00207 1.1965e-10 1.00255)
(0.995735 3.10414e-05 2.96787e-10 1.00177 -1.2007e-10 1.00251)
(0.996178 8.62559e-05 -8.54818e-11 1.00141 -3.11929e-10 1.00242)
(0.996657 5.64198e-05 -4.40052e-10 1.00099 3.11297e-11 1.00236)
(0.997215 0.000113409 -1.0913e-10 1.00054 4.77191e-10 1.00225)
(0.99799 8.68382e-05 2.17626e-10 0.999947 -3.53568e-11 1.00207)
(0.998961 0.000144562 -4.00369e-11 0.999302 -5.10563e-10 1.00174)
(1.00032 0.000123556 -2.23392e-10 0.998349 2.74755e-10 1.00133)
(1.00189 0.000176785 3.47749e-11 0.997375 5.66218e-10 1.00074)
(1.00408 0.000157693 1.23642e-10 0.995801 -2.79185e-10 1.00014)
(1.00686 0.000208431 -1.54837e-11 0.994158 -5.40379e-10 0.999024)
(1.00916 0.000181145 -1.85343e-10 0.992066 2.94102e-10 0.998852)
(1.00999 0.000209944 -4.57948e-11 0.991176 1.96972e-10 0.998925)
(0.994992 -1.54655e-06 -3.27538e-11 1.0025 5.39488e-11 1.00253)
(0.994998 3.39517e-05 -1.42737e-10 1.00246 -1.70261e-11 1.00256)
(0.995196 1.36321e-05 -9.76497e-11 1.00227 4.18286e-11 1.00255)
(0.99539 6.42511e-05 1.05485e-10 1.00208 1.20745e-10 1.00255)
(0.995731 3.77023e-05 2.96815e-10 1.00177 -1.2097e-10 1.00251)
(0.996174 9.47518e-05 -8.55534e-11 1.00141 -3.14197e-10 1.00243)
(0.996654 6.52703e-05 -4.4001e-10 1.00099 3.10879e-11 1.00237)
(0.997215 0.000124046 -1.09346e-10 1.00054 4.79646e-10 1.00225)
(0.997991 9.71352e-05 2.17099e-10 0.999943 -3.51414e-11 1.00207)
(0.998966 0.000155978 -4.00736e-11 0.999295 -5.12339e-10 1.00174)
(1.00032 0.000134502 -2.23345e-10 0.998342 2.75301e-10 1.00134)
(1.0019 0.000187225 3.46843e-11 0.997365 5.67685e-10 1.00074)
(1.00409 0.000165642 1.23662e-10 0.99579 -2.79464e-10 1.00014)
(1.00687 0.000213475 -1.54781e-11 0.994147 -5.41722e-10 0.999028)
(1.00916 0.000181272 -1.85044e-10 0.992056 2.93702e-10 0.998857)
(1.00998 0.000209031 -4.6168e-11 0.991173 1.97349e-10 0.998932)
(0.994985 -6.10512e-07 -3.27798e-11 1.0025 5.4745e-11 1.00253)
(0.994998 3.59091e-05 -1.42839e-10 1.00246 -1.71465e-11 1.00256)
(0.995197 1.63635e-05 -9.76815e-11 1.00227 4.21017e-11 1.00255)
(0.995392 6.83163e-05 1.05573e-10 1.00207 1.2147e-10 1.00255)
(0.995734 4.25154e-05 2.96904e-10 1.00177 -1.2148e-10 1.00251)
(0.996178 0.000100952 -8.56277e-11 1.00141 -3.15507e-10 1.00243)
(0.996659 7.17841e-05 -4.39964e-10 1.00098 3.11013e-11 1.00237)
(0.997222 0.000131313 -1.09619e-10 1.00053 4.81029e-10 1.00225)
(0.998 0.000104345 2.16382e-10 0.999936 -3.4998e-11 1.00207)
(0.998977 0.000163348 -4.01291e-11 0.999286 -5.13218e-10 1.00174)
(1.00033 0.000140759 -2.2333e-10 0.998331 2.75904e-10 1.00134)
(1.00191 0.000192168 3.46745e-11 0.997354 5.68622e-10 1.00074)
(1.0041 0.000168683 1.23485e-10 0.995779 -2.7967e-10 1.00014)
(1.00688 0.000214657 -1.54759e-11 0.994137 -5.42424e-10 0.99903)
(1.00916 0.0001807 -1.84899e-10 0.99205 2.93384e-10 0.998861)
(1.00998 0.000208093 -4.64707e-11 0.991173 1.97527e-10 0.998938)
(0.994985 4.60653e-08 -3.28045e-11 1.0025 5.5259e-11 1.00253)
(0.995005 3.73572e-05 -1.42963e-10 1.00246 -1.72024e-11 1.00256)
(0.995204 1.82491e-05 -9.77177e-11 1.00227 4.22614e-11 1.00254)
(0.9954 7.12489e-05 1.05672e-10 1.00207 1.21801e-10 1.00255)
(0.995743 4.59004e-05 2.97011e-10 1.00176 -1.21849e-10 1.00251)
(0.996187 0.000104988 -8.57008e-11 1.0014 -3.16347e-10 1.00242)
(0.996669 7.56701e-05 -4.39796e-10 1.00098 3.10117e-11 1.00236)
(0.997233 0.000135496 -1.09899e-10 1.00052 4.81832e-10 1.00225)
(0.998012 0.000108075 2.15708e-10 0.999926 -3.48409e-11 1.00207)
(0.998992 0.000166481 -4.01727e-11 0.999275 -5.13601e-10 1.00174)
(1.00035 0.000142857 -2.23528e-10 0.99832 2.76061e-10 1.00133)
(1.00192 0.000193095 3.47302e-11 0.997343 5.68953e-10 1.00074)
(1.00411 0.000168144 1.23519e-10 0.995768 -2.79626e-10 1.00014)
(1.00688 0.000212826 -1.54716e-11 0.994128 -5.42647e-10 0.999029)
(1.00917 0.000177838 -1.84926e-10 0.992045 2.93201e-10 0.998862)
(1.00998 0.000206639 -4.67786e-11 0.991173 1.97575e-10 0.998941)
(0.994992 4.8328e-07 -3.28428e-11 1.0025 5.5509e-11 1.00253)
(0.995016 3.82792e-05 -1.43076e-10 1.00245 -1.72285e-11 1.00255)
(0.995215 1.92953e-05 -9.77475e-11 1.00226 4.23233e-11 1.00254)
(0.995412 7.29553e-05 1.05764e-10 1.00206 1.21902e-10 1.00254)
(0.995756 4.7396e-05 2.96927e-10 1.00176 -1.21989e-10 1.0025)
(0.9962 0.000106823 -8.57954e-11 1.00139 -3.16574e-10 1.00242)
(0.996683 7.72949e-05 -4.39665e-10 1.00097 3.1039e-11 1.00236)
(0.997248 0.000136982 -1.10229e-10 1.00051 4.81955e-10 1.00224)
(0.998028 0.000108897 2.14956e-10 0.999916 -3.49348e-11 1.00206)
(0.999009 0.000166802 -4.02282e-11 0.999264 -5.13496e-10 1.00173)
(1.00036 0.000142385 -2.23444e-10 0.998309 2.76286e-10 1.00133)
(1.00194 0.000191355 3.48228e-11 0.997333 5.68929e-10 1.00074)
(1.00413 0.000165372 1.23476e-10 0.995758 -2.79707e-10 1.00013)
(1.0069 0.000209319 -1.5468e-11 0.99412 -5.42522e-10 0.999027)
(1.00917 0.000174776 -1.849e-10 0.99204 2.93222e-10 0.998861)
(1.00997 0.000205123 -4.7051e-11 0.991172 1.9753e-10 0.998942)
(0.995003 7.30393e-07 -3.28684e-11 1.0025 5.55827e-11 1.00252)
(0.99503 3.85974e-05 -1.43195e-10 1.00245 -1.72249e-11 1.00254)
(0.99523 1.93356e-05 -9.7782e-11 1.00226 4.22975e-11 1.00253)
(0.995428 7.33768e-05 1.05856e-10 1.00205 1.218e-10 1.00253)
(0.995773 4.76065e-05 2.96973e-10 1.00175 -1.21915e-10 1.00249)
(0.996216 0.000107265 -8.58727e-11 1.00138 -3.16415e-10 1.00241)
(0.996699 7.70992e-05 -4.39491e-10 1.00096 3.0945e-11 1.00235)
(0.997265 0.000136491 -1.10562e-10 1.0005 4.817e-10 1.00224)
(0.998046 0.000107751 2.14173e-10 0.999905 -3.48136e-11 1.00205)
(0.999028 0.000164789 -4.02829e-11 0.999252 -5.13025e-10 1.00172)
(1.00038 0.000139532 -2.23634e-10 0.998298 2.76246e-10 1.00132)
(1.00195 0.000187592 3.49527e-11 0.997322 5.686e-10 1.00073)
(1.00414 0.000161202 1.2345e-10 0.995748 -2.7957e-10 1.00013)
(1.00691 0.000205258 -1.54637e-11 0.994113 -5.42111e-10 0.999023)
(1.00918 0.000171481 -1.8475e-10 0.992035 2.9338e-10 0.998859)
(1.00998 0.000203432 -4.73136e-11 0.991171 1.9741e-10 0.998942)
(0.995017 6.85973e-07 -3.29054e-11 1.00249 5.54929e-11 1.00251)
(0.995047 3.8631e-05 -1.43322e-10 1.00244 -1.71918e-11 1.00253)
(0.995248 1.88418e-05 -9.78037e-11 1.00225 4.22193e-11 1.00252)
(0.995446 7.30569e-05 1.05946e-10 1.00204 1.21516e-10 1.00253)
(0.995792 4.65445e-05 2.96893e-10 1.00174 -1.21779e-10 1.00249)
(0.996234 0.00010605 -8.59645e-11 1.00137 -3.15982e-10 1.0024)
(0.996717 7.51867e-05 -4.39269e-10 1.00095 3.08929e-11 1.00234)
(0.997284 0.000134118 -1.10927e-10 1.00049 4.81103e-10 1.00223)
(0.998065 0.000104576 2.13408e-10 0.999894 -3.48775e-11 1.00204)
(0.999048 0.000161026 -4.03354e-11 0.999241 -5.12335e-10 1.00171)
(1.0004 0.000135531 -2.2358e-10 0.998288 2.76124e-10 1.00132)
(1.00197 0.000183055 3.50948e-11 0.997313 5.67977e-10 1.00072)
(1.00416 0.000156756 1.23548e-10 0.995739 -2.79454e-10 1.00012)
(1.00692 0.000200742 -1.54542e-11 0.994106 -5.41559e-10 0.999018)
(1.00919 0.000167982 -1.84638e-10 0.99203 2.93497e-10 0.998856)
(1.00998 0.000201939 -4.75286e-11 0.991169 1.97247e-10 0.99894)
(0.995034 5.11591e-07 -3.29439e-11 1.00248 5.52812e-11 1.00251)
(0.995066 3.81623e-05 -1.4343e-10 1.00243 -1.71484e-11 1.00253)
(0.995267 1.7543e-05 -9.78248e-11 1.00224 4.20789e-11 1.00251)
(0.995465 7.16963e-05 1.06029e-10 1.00203 1.21136e-10 1.00252)
(0.995811 4.43776e-05 2.96852e-10 1.00173 -1.21451e-10 1.00248)
(0.996254 0.000103813 -8.6049e-11 1.00136 -3.15237e-10 1.0024)
(0.996736 7.22397e-05 -4.39067e-10 1.00094 3.08046e-11 1.00234)
(0.997303 0.000130701 -1.11303e-10 1.00048 4.80226e-10 1.00222)
(0.998084 0.000100676 2.12551e-10 0.999884 -3.48316e-11 1.00204)
(0.999068 0.000156659 -4.03962e-11 0.99923 -5.11402e-10 1.0017)
(1.00042 0.000130621 -2.23555e-10 0.998278 2.76154e-10 1.00131)
(1.00199 0.000177723 3.5249e-11 0.997303 5.67365e-10 1.00072)
(1.00417 0.000151713 1.23397e-10 0.99573 -2.79411e-10 1.00011)
(1.00693 0.000196043 -1.54463e-11 0.994098 -5.40933e-10 0.999013)
(1.0092 0.00016493 -1.84438e-10 0.992024 2.93718e-10 0.998853)
(1.00999 0.000200538 -4.7712e-11 0.991166 1.97048e-10 0.998938)
(0.995053 1.12514e-07 -3.29517e-11 1.00247 5.49806e-11 1.0025)
(0.995086 3.75106e-05 -1.4354e-10 1.00242 -1.70831e-11 1.00252)
(0.995286 1.58878e-05 -9.78408e-11 1.00223 4.19185e-11 1.0025)
(0.995485 6.99448e-05 1.06109e-10 1.00202 1.20647e-10 1.00251)
(0.995832 4.17289e-05 2.96815e-10 1.00172 -1.21148e-10 1.00247)
(0.996273 0.000100822 -8.61268e-11 1.00135 -3.14501e-10 1.00239)
(0.996755 6.83264e-05 -4.38757e-10 1.00093 3.06277e-11 1.00233)
(0.997322 0.000126427 -1.11677e-10 1.00047 4.79365e-10 1.00221)
(0.998104 9.58662e-05 2.11712e-10 0.999873 -3.46877e-11 1.00203)
(0.999088 0.000151298 -4.04423e-11 0.999219 -5.10463e-10 1.0017)
(1.00043 0.000125063 -2.23705e-10 0.998268 2.75954e-10 1.0013)
(1.002 0.000172213 3.54266e-11 0.997294 5.66625e-10 1.00071)
(1.00419 0.000146823 1.23352e-10 0.995721 -2.79249e-10 1.00011)
(1.00694 0.000191619 -1.54339e-11 0.994091 -5.40247e-10 0.999008)
(1.00921 0.000161872 -1.84338e-10 0.992018 2.93891e-10 0.998849)
(1.00999 0.000199246 -4.7866e-11 0.991162 1.96826e-10 0.998935)
(0.995072 -4.00381e-07 -3.29677e-11 1.00246 5.46119e-11 1.00249)
(0.995105 3.66834e-05 -1.43648e-10 1.00241 -1.70178e-11 1.00251)
(0.995306 1.39744e-05 -9.78457e-11 1.00222 4.1744e-11 1.00249)
(0.995505 6.78059e-05 1.0618e-10 1.00201 1.20145e-10 1.0025)
(0.995853 3.83615e-05 2.96628e-10 1.0017 -1.20801e-10 1.00246)
(0.996293 9.70837e-05 -8.6216e-11 1.00134 -3.13651e-10 1.00238)
(0.996774 6.3897e-05 -4.38454e-10 1.00092 3.05435e-11 1.00232)
(0.997341 0.000121584 -1.1207e-10 1.00046 4.78399e-10 1.0022)
(0.998123 9.05782e-05 2.10832e-10 0.999862 -3.47046e-11 1.00202)
(0.999108 0.000145741 -4.04936e-11 0.999208 -5.09492e-10 1.00169)
(1.00045 0.000119525 -2.23587e-10 0.998257 2.75902e-10 1.00129)
(1.00202 0.00016646 3.56155e-11 0.997285 5.65895e-10 1.0007)
(1.00421 0.000141683 1.23183e-10 0.995712 -2.79246e-10 1.0001)
(1.00696 0.000187033 -1.54217e-11 0.994084 -5.39523e-10 0.999003)
(1.00922 0.000159245 -1.84116e-10 0.992012 2.94166e-10 0.998844)
(1.01 0.000197996 -4.80073e-11 0.991157 1.96588e-10 0.998931)
(0.995092 -9.6455e-07 -3.30237e-11 1.00245 5.42269e-11 1.00248)
(0.995124 3.56579e-05 -1.43756e-10 1.0024 -1.69542e-11 1.0025)
(0.995325 1.17212e-05 -9.785e-11 1.00221 4.15643e-11 1.00248)
(0.995525 6.53032e-05 1.06249e-10 1.002 1.19655e-10 1.00249)
(0.995872 3.47996e-05 2.96504e-10 1.00169 -1.20416e-10 1.00245)
(0.996311 9.32327e-05 -8.62896e-11 1.00133 -3.1281e-10 1.00237)
(0.996793 5.90778e-05 -4.38105e-10 1.00091 3.03737e-11 1.00231)
(0.99736 0.000116422 -1.12461e-10 1.00045 4.77487e-10 1.0022)
(0.998141 8.49743e-05 2.0992e-10 0.999852 -3.4525e-11 1.00201)
(0.999127 0.000139639 -4.05378e-11 0.999198 -5.08511e-10 1.00168)
(1.00047 0.000113515 -2.23737e-10 0.998248 2.7563e-10 1.00129)
(1.00203 0.000160532 3.58094e-11 0.997276 5.65104e-10 1.0007)
(1.00422 0.000136591 1.23075e-10 0.995703 -2.79027e-10 1.00009)
(1.00697 0.000182972 -1.54081e-11 0.994076 -5.38725e-10 0.998996)
(1.00923 0.000156718 -1.83841e-10 0.992005 2.94477e-10 0.998839)
(1.01001 0.000196803 -4.81319e-11 0.991152 1.96336e-10 0.998927)
(0.995111 -1.64591e-06 -3.30688e-11 1.00244 5.38372e-11 1.00247)
(0.995142 3.45965e-05 -1.43841e-10 1.00239 -1.68884e-11 1.00249)
(0.995344 9.36946e-06 -9.78413e-11 1.0022 4.13948e-11 1.00248)
(0.995543 6.26381e-05 1.06312e-10 1.00199 1.1916e-10 1.00248)
(0.995892 3.07661e-05 2.96264e-10 1.00168 -1.20078e-10 1.00244)
(0.996329 8.87923e-05 -8.63744e-11 1.00132 -3.11985e-10 1.00236)
(0.99681 5.38358e-05 -4.37706e-10 1.0009 3.02849e-11 1.0023)
(0.997378 0.000110715 -1.12874e-10 1.00044 4.7654e-10 1.00219)
(0.998159 7.88119e-05 2.0903e-10 0.999842 -3.45556e-11 1.002)
(0.999146 0.000133243 -4.05827e-11 0.999188 -5.07555e-10 1.00167)
(1.00049 0.000107739 -2.23511e-10 0.998238 2.75368e-10 1.00128)
(1.00205 0.000154936 3.60097e-11 0.997267 5.64208e-10 1.00069)
(1.00424 0.000131976 1.23045e-10 0.995694 -2.78895e-10 1.00009)
(1.00698 0.000178856 -1.53927e-11 0.994068 -5.37964e-10 0.99899)
(1.00924 0.000154108 -1.83552e-10 0.991997 2.9471e-10 0.998835)
(1.01002 0.000195632 -4.82459e-11 0.991146 1.9609e-10 0.998923)
(0.995129 -2.33793e-06 -3.30963e-11 1.00243 5.34538e-11 1.00246)
(0.995159 3.3289e-05 -1.43931e-10 1.00238 -1.68333e-11 1.00248)
(0.995361 6.57723e-06 -9.78363e-11 1.00219 4.12117e-11 1.00247)
(0.995561 5.94603e-05 1.06361e-10 1.00198 1.18702e-10 1.00247)
(0.995909 2.63013e-05 2.9608e-10 1.00167 -1.1963e-10 1.00243)
(0.996347 8.41337e-05 -8.64505e-11 1.00131 -3.11059e-10 1.00235)
(0.996828 4.83433e-05 -4.37329e-10 1.00089 3.01463e-11 1.00229)
(0.997396 0.000104807 -1.13299e-10 1.00043 4.75533e-10 1.00218)
(0.998177 7.27789e-05 2.08042e-10 0.999833 -3.44246e-11 1.00199)
(0.999165 0.000127097 -4.06367e-11 0.999177 -5.0652e-10 1.00166)
(1.0005 0.000101809 -2.23381e-10 0.998229 2.75302e-10 1.00127)
(1.00207 0.0001492 3.61854e-11 0.997258 5.63485e-10 1.00068)
(1.00426 0.000127234 1.22828e-10 0.995684 -2.78857e-10 1.00008)
(1.007 0.00017484 -1.53789e-11 0.994058 -5.37253e-10 0.998984)
(1.00926 0.000151842 -1.83268e-10 0.991989 2.94998e-10 0.99883)
(1.01003 0.00019462 -4.83342e-11 0.991138 1.95848e-10 0.998919)
(0.995146 -3.15863e-06 -3.31122e-11 1.00242 5.30833e-11 1.00245)
(0.995176 3.18975e-05 -1.44032e-10 1.00237 -1.67668e-11 1.00247)
(0.995377 3.60793e-06 -9.78205e-11 1.00218 4.1043e-11 1.00246)
(0.995578 5.61609e-05 1.0642e-10 1.00198 1.18214e-10 1.00246)
(0.995927 2.17491e-05 2.95918e-10 1.00167 -1.19297e-10 1.00242)
(0.996363 7.91654e-05 -8.65214e-11 1.0013 -3.10348e-10 1.00235)
(0.996844 4.2544e-05 -4.3684e-10 1.00088 2.99368e-11 1.00229)
(0.997412 9.8745e-05 -1.13723e-10 1.00042 4.74744e-10 1.00217)
(0.998194 6.66765e-05 2.07062e-10 0.999823 -3.42348e-11 1.00199)
(0.999183 0.000120745 -4.06781e-11 0.999167 -5.05643e-10 1.00165)
(1.00052 9.59007e-05 -2.23307e-10 0.998219 2.75073e-10 1.00126)
(1.00208 0.000143456 3.63959e-11 0.997248 5.62757e-10 1.00067)
(1.00427 0.000122709 1.22674e-10 0.995674 -2.78723e-10 1.00007)
(1.00702 0.000171052 -1.53629e-11 0.994049 -5.36566e-10 0.998978)
(1.00927 0.000149654 -1.82905e-10 0.99198 2.95272e-10 0.998825)
(1.01005 0.000193457 -4.84368e-11 0.99113 1.95608e-10 0.998914)
(0.995162 -4.04101e-06 -3.31372e-11 1.00241 5.27099e-11 1.00244)
(0.99519 3.05388e-05 -1.4412e-10 1.00236 -1.67183e-11 1.00246)
(0.995391 7.07411e-07 -9.78003e-11 1.00217 4.08986e-11 1.00245)
(0.995593 5.29222e-05 1.06464e-10 1.00197 1.17824e-10 1.00245)
(0.995942 1.70327e-05 2.95584e-10 1.00166 -1.18977e-10 1.00241)
(0.996378 7.40246e-05 -8.66042e-11 1.00129 -3.09681e-10 1.00234)
(0.996859 3.6579e-05 -4.36364e-10 1.00087 2.97751e-11 1.00228)
(0.997428 9.24271e-05 -1.14165e-10 1.00041 4.74027e-10 1.00217)
(0.99821 6.01016e-05 2.06021e-10 0.999814 -3.40973e-11 1.00198)
(0.9992 0.000114094 -4.07287e-11 0.999158 -5.04837e-10 1.00164)
(1.00054 8.99116e-05 -2.23144e-10 0.998209 2.74876e-10 1.00126)
(1.0021 0.000137753 3.65844e-11 0.997239 5.62076e-10 1.00067)
(1.00429 0.000118076 1.22524e-10 0.995663 -2.7862e-10 1.00006)
(1.00703 0.000167095 -1.53459e-11 0.994039 -5.3592e-10 0.998972)
(1.00929 0.00014735 -1.82606e-10 0.99197 2.95504e-10 0.99882)
(1.01006 0.0001925 -4.8514e-11 0.991121 1.9538e-10 0.998909)
(0.995176 -4.8922e-06 -3.31841e-11 1.00241 5.24015e-11 1.00243)
(0.995202 2.89554e-05 -1.44208e-10 1.00236 -1.66783e-11 1.00246)
(0.995404 -2.61017e-06 -9.77805e-11 1.00217 4.07731e-11 1.00245)
(0.995606 4.91794e-05 1.06513e-10 1.00196 1.17492e-10 1.00245)
(0.995956 1.18839e-05 2.95328e-10 1.00165 -1.18671e-10 1.00241)
(0.996391 6.85745e-05 -8.66811e-11 1.00129 -3.09118e-10 1.00233)
(0.996872 3.03611e-05 -4.35846e-10 1.00086 2.95998e-11 1.00227)
(0.997442 8.57826e-05 -1.14615e-10 1.0004 4.73427e-10 1.00216)
(0.998226 5.35042e-05 2.04968e-10 0.999805 -3.38958e-11 1.00197)
(0.999217 0.00010726 -4.07749e-11 0.999148 -5.04098e-10 1.00164)
(1.00055 8.36363e-05 -2.22981e-10 0.998199 2.74743e-10 1.00125)
(1.00212 0.00013168 3.67927e-11 0.997229 5.61484e-10 1.00066)
(1.00431 0.000113243 1.22325e-10 0.995652 -2.78532e-10 1.00006)
(1.00705 0.000163082 -1.53314e-11 0.994029 -5.35343e-10 0.998967)
(1.0093 0.000145203 -1.82244e-10 0.991959 2.95766e-10 0.998815)
(1.01007 0.000191449 -4.85964e-11 0.991112 1.95161e-10 0.998905)
(0.995189 -5.86696e-06 -3.32015e-11 1.0024 5.21285e-11 1.00243)
(0.995212 2.74052e-05 -1.44293e-10 1.00235 -1.66473e-11 1.00245)
(0.995415 -5.97142e-06 -9.77444e-11 1.00216 4.06735e-11 1.00244)
(0.995617 4.54489e-05 1.06554e-10 1.00196 1.17223e-10 1.00244)
(0.995968 6.5871e-06 2.94995e-10 1.00164 -1.1842e-10 1.0024)
(0.996403 6.28232e-05 -8.6764e-11 1.00128 -3.08702e-10 1.00233)
(0.996884 2.36994e-05 -4.35287e-10 1.00085 2.93694e-11 1.00227)
(0.997455 7.87186e-05 -1.15092e-10 1.0004 4.72996e-10 1.00215)
(0.99824 4.63232e-05 2.03872e-10 0.999797 -3.36125e-11 1.00197)
(0.999233 9.98983e-05 -4.08249e-11 0.999138 -5.03474e-10 1.00163)
(1.00057 7.69546e-05 -2.22871e-10 0.998189 2.74524e-10 1.00124)
(1.00213 0.000125557 3.69978e-11 0.997219 5.60946e-10 1.00066)
(1.00433 0.000108331 1.22179e-10 0.995641 -2.78415e-10 1.00005)
(1.00706 0.000158943 -1.53135e-11 0.994017 -5.34833e-10 0.998961)
(1.00932 0.000142669 -1.82043e-10 0.991947 2.95931e-10 0.99881)
(1.01009 0.000190409 -4.86765e-11 0.991101 1.94955e-10 0.9989)
(0.995199 -6.85518e-06 -3.32368e-11 1.0024 5.19076e-11 1.00242)
(0.995221 2.5664e-05 -1.44385e-10 1.00235 -1.66275e-11 1.00245)
(0.995423 -9.67038e-06 -9.77087e-11 1.00216 4.05979e-11 1.00244)
(0.995627 4.12786e-05 1.06601e-10 1.00195 1.17022e-10 1.00244)
(0.995979 7.16776e-07 2.94638e-10 1.00164 -1.18209e-10 1.0024)
(0.996413 5.6463e-05 -8.68537e-11 1.00127 -3.08404e-10 1.00232)
(0.996895 1.66212e-05 -4.34723e-10 1.00085 2.91846e-11 1.00227)
(0.997467 7.10926e-05 -1.15582e-10 1.00039 4.72685e-10 1.00215)
(0.998253 3.88714e-05 2.02801e-10 0.999788 -3.3396e-11 1.00196)
(0.999249 9.22239e-05 -4.08742e-11 0.999129 -5.02963e-10 1.00162)
(1.00058 6.99732e-05 -2.22659e-10 0.998179 2.74504e-10 1.00124)
(1.00215 0.000118641 3.72098e-11 0.997208 5.6056e-10 1.00065)
(1.00434 0.000102765 1.21978e-10 0.995629 -2.78466e-10 1.00005)
(1.00708 0.000154342 -1.52999e-11 0.994006 -5.34388e-10 0.998956)
(1.00934 0.000140355 -1.81736e-10 0.991935 2.96206e-10 0.998805)
(1.01011 0.000189294 -4.87671e-11 0.99109 1.9476e-10 0.998895)
(0.995207 -7.93078e-06 -3.32922e-11 1.00239 5.17359e-11 1.00242)
(0.995226 2.38305e-05 -1.44473e-10 1.00235 -1.6621e-11 1.00245)
(0.99543 -1.36111e-05 -9.76628e-11 1.00215 4.05502e-11 1.00243)
(0.995634 3.69341e-05 1.06636e-10 1.00195 1.16914e-10 1.00243)
(0.995987 -5.28877e-06 2.94255e-10 1.00163 -1.18039e-10 1.00239)
(0.996422 4.99138e-05 -8.69459e-11 1.00127 -3.0829e-10 1.00232)
(0.996904 9.04246e-06 -4.34119e-10 1.00084 2.88916e-11 1.00226)
(0.997478 6.30466e-05 -1.161e-10 1.00038 4.72623e-10 1.00215)
(0.998266 3.07618e-05 2.01637e-10 0.99978 -3.29521e-11 1.00196)
(0.999264 8.36853e-05 -4.09281e-11 0.999119 -5.02581e-10 1.00162)
(1.0006 6.21475e-05 -2.22713e-10 0.998169 2.74192e-10 1.00124)
(1.00216 0.000111184 3.74386e-11 0.997197 5.60185e-10 1.00065)
(1.00436 9.67008e-05 1.21864e-10 0.995616 -2.78252e-10 1.00004)
(1.0071 0.000149751 -1.52866e-11 0.993993 -5.3393e-10 0.99895)
(1.00936 0.00013751 -1.81422e-10 0.991922 2.96476e-10 0.9988)
(1.01012 0.000187962 -4.8883e-11 0.991077 1.9457e-10 0.99889)
(0.995213 -9.09636e-06 -3.33027e-11 1.00239 5.16277e-11 1.00242)
(0.99523 2.19498e-05 -1.44577e-10 1.00234 -1.66258e-11 1.00244)
(0.995434 -1.76798e-05 -9.76189e-11 1.00215 4.0541e-11 1.00243)
(0.995639 3.23303e-05 1.06685e-10 1.00194 1.16879e-10 1.00243)
(0.995993 -1.18836e-05 2.93779e-10 1.00163 -1.17953e-10 1.00239)
(0.996428 4.25812e-05 -8.70554e-11 1.00126 -3.08309e-10 1.00232)
(0.996911 8.0564e-07 -4.33509e-10 1.00084 2.86943e-11 1.00226)
(0.997487 5.39316e-05 -1.16642e-10 1.00037 4.72637e-10 1.00214)
(0.998277 2.1556e-05 2.00596e-10 0.999773 -3.27277e-11 1.00195)
(0.999277 7.41005e-05 -4.09834e-11 0.99911 -5.02306e-10 1.00162)
(1.00061 5.3848e-05 -2.22488e-10 0.998159 2.73979e-10 1.00123)
(1.00218 0.000103276 3.76507e-11 0.997186 5.59781e-10 1.00064)
(1.00438 9.03947e-05 1.21933e-10 0.995603 -2.78209e-10 1.00003)
(1.00712 0.000144328 -1.52711e-11 0.99398 -5.33594e-10 0.998945)
(1.00937 0.000134127 -1.81189e-10 0.991908 2.96645e-10 0.998795)
(1.01014 0.000186575 -4.9006e-11 0.991064 1.94405e-10 0.998885)
(0.995216 -1.02819e-05 -3.33478e-11 1.00239 5.15812e-11 1.00241)
(0.995231 1.97393e-05 -1.44673e-10 1.00234 -1.66483e-11 1.00244)
(0.995435 -2.24686e-05 -9.75647e-11 1.00215 4.05332e-11 1.00243)
(0.995642 2.69396e-05 1.06719e-10 1.00194 1.16933e-10 1.00243)
(0.995997 -1.92787e-05 2.93335e-10 1.00163 -1.17766e-10 1.00239)
(0.996433 3.46457e-05 -8.71695e-11 1.00126 -3.08302e-10 1.00232)
(0.996917 -8.08931e-06 -4.32924e-10 1.00083 2.84121e-11 1.00226)
(0.997495 4.41772e-05 -1.17236e-10 1.00037 4.72705e-10 1.00214)
(0.998287 1.20362e-05 1.99384e-10 0.999765 -3.22525e-11 1.00195)
(0.999291 6.4222e-05 -4.10581e-11 0.9991 -5.02016e-10 1.00161)
(1.00063 4.46105e-05 -2.22409e-10 0.998148 2.73939e-10 1.00123)
(1.0022 9.43073e-05 3.78631e-11 0.997175 5.59628e-10 1.00064)
(1.0044 8.29651e-05 1.21772e-10 0.995589 -2.78207e-10 1.00003)
(1.00714 0.000138374 -1.52606e-11 0.993965 -5.33329e-10 0.99894)
(1.00939 0.000130633 -1.80938e-10 0.991892 2.96893e-10 0.99879)
(1.01016 0.000185086 -4.9146e-11 0.991049 1.94249e-10 0.99888)
(0.995217 -1.16857e-05 -3.33925e-11 1.00239 5.15822e-11 1.00241)
(0.99523 1.75158e-05 -1.44786e-10 1.00234 -1.66636e-11 1.00244)
(0.995435 -2.73693e-05 -9.75034e-11 1.00215 4.0555e-11 1.00243)
(0.995643 2.14692e-05 1.06776e-10 1.00194 1.16985e-10 1.00243)
(0.995999 -2.67876e-05 2.92915e-10 1.00162 -1.17731e-10 1.00239)
(0.996436 2.6119e-05 -8.72914e-11 1.00125 -3.08613e-10 1.00232)
(0.996921 -1.77383e-05 -4.32258e-10 1.00083 2.80321e-11 1.00226)
(0.997501 3.35321e-05 -1.1783e-10 1.00036 4.73092e-10 1.00214)
(0.998296 1.4939e-06 1.98314e-10 0.999759 -3.1706e-11 1.00195)
(0.999303 5.29391e-05 -4.11196e-11 0.999091 -5.01956e-10 1.00161)
(1.00064 3.43594e-05 -2.22539e-10 0.998137 2.73662e-10 1.00122)
(1.00221 8.45022e-05 3.80881e-11 0.997163 5.59444e-10 1.00063)
(1.00442 7.50115e-05 1.21903e-10 0.995575 -2.78087e-10 1.00002)
(1.00716 0.000131875 -1.52476e-11 0.99395 -5.33132e-10 0.998935)
(1.00942 0.000126449 -1.80806e-10 0.991876 2.97054e-10 0.998786)
(1.01018 0.000183424 -4.93111e-11 0.991033 1.94104e-10 0.998875)
(0.995216 -1.31411e-05 -3.34291e-11 1.00239 5.16047e-11 1.00241)
(0.995226 1.52058e-05 -1.44906e-10 1.00234 -1.67005e-11 1.00245)
(0.995432 -3.25581e-05 -9.74219e-11 1.00215 4.05997e-11 1.00243)
(0.995641 1.56556e-05 1.06818e-10 1.00194 1.17156e-10 1.00243)
(0.995999 -3.50492e-05 2.92271e-10 1.00162 -1.17673e-10 1.00239)
(0.996437 1.68402e-05 -8.74429e-11 1.00125 -3.0893e-10 1.00232)
(0.996923 -2.79991e-05 -4.31632e-10 1.00083 2.77165e-11 1.00226)
(0.997506 2.20261e-05 -1.18494e-10 1.00036 4.73532e-10 1.00214)
(0.998304 -9.97725e-06 1.97125e-10 0.999752 -3.12116e-11 1.00195)
(0.999315 4.08685e-05 -4.12039e-11 0.999083 -5.01951e-10 1.0016)
(1.00065 2.32467e-05 -2.22513e-10 0.998127 2.73577e-10 1.00122)
(1.00223 7.37029e-05 3.83096e-11 0.997151 5.59405e-10 1.00063)
(1.00444 6.58438e-05 1.21926e-10 0.99556 -2.78122e-10 1.00002)
(1.00718 0.000124314 -1.52379e-11 0.993934 -5.33004e-10 0.998931)
(1.00944 0.000121784 -1.80741e-10 0.991858 2.9724e-10 0.998781)
(1.01021 0.000181617 -4.95024e-11 0.991015 1.93967e-10 0.998869)
(0.995212 -1.46771e-05 -3.34772e-11 1.00239 5.17002e-11 1.00242)
(0.99522 1.27964e-05 -1.45031e-10 1.00235 -1.67409e-11 1.00245)
(0.995426 -3.80644e-05 -9.73435e-11 1.00215 4.06544e-11 1.00244)
(0.995637 9.49638e-06 1.06873e-10 1.00194 1.17363e-10 1.00244)
(0.995997 -4.34941e-05 2.91747e-10 1.00163 -1.17611e-10 1.00239)
(0.996435 7.25109e-06 -8.75918e-11 1.00125 -3.09405e-10 1.00232)
(0.996924 -3.88017e-05 -4.30978e-10 1.00082 2.7269e-11 1.00226)
(0.997509 9.73927e-06 -1.19161e-10 1.00035 4.74186e-10 1.00214)
(0.99831 -2.21185e-05 1.96032e-10 0.999746 -3.0464e-11 1.00195)
(0.999325 2.75712e-05 -4.12803e-11 0.999074 -5.02041e-10 1.0016)
(1.00067 1.0749e-05 -2.22864e-10 0.998116 2.73362e-10 1.00122)
(1.00224 6.15322e-05 3.85355e-11 0.997138 5.59414e-10 1.00063)
(1.00446 5.55248e-05 1.22096e-10 0.995543 -2.78057e-10 1.00002)
(1.0072 0.000116074 -1.52301e-11 0.993917 -5.32902e-10 0.998926)
(1.00946 0.000116504 -1.80755e-10 0.991839 2.97446e-10 0.998776)
(1.01023 0.000179589 -4.97303e-11 0.990996 1.93826e-10 0.998864)
(0.995205 -1.63389e-05 -3.35277e-11 1.00239 5.18138e-11 1.00242)
(0.995212 1.05364e-05 -1.45168e-10 1.00235 -1.67825e-11 1.00245)
(0.995419 -4.35881e-05 -9.723e-11 1.00216 4.07236e-11 1.00244)
(0.995632 3.40047e-06 1.06926e-10 1.00194 1.17594e-10 1.00244)
(0.995992 -5.22843e-05 2.90998e-10 1.00163 -1.17589e-10 1.00239)
(0.996432 -2.97552e-06 -8.7776e-11 1.00125 -3.09947e-10 1.00233)
(0.996922 -5.0183e-05 -4.30293e-10 1.00082 2.68361e-11 1.00226)
(0.997511 -3.37238e-06 -1.19903e-10 1.00035 4.74923e-10 1.00214)
(0.998316 -3.52996e-05 1.94911e-10 0.999741 -2.97889e-11 1.00195)
(0.999334 1.31857e-05 -4.13702e-11 0.999066 -5.02215e-10 1.0016)
(1.00068 -2.59277e-06 -2.23118e-10 0.998105 2.73072e-10 1.00122)
(1.00226 4.83355e-05 3.87697e-11 0.997126 5.59388e-10 1.00062)
(1.00448 4.41056e-05 1.22403e-10 0.995527 -2.78009e-10 1.00001)
(1.00723 0.000106844 -1.52245e-11 0.993899 -5.32793e-10 0.998921)
(1.00949 0.000110393 -1.80854e-10 0.991818 2.97688e-10 0.99877)
(1.01026 0.000177316 -4.99995e-11 0.990975 1.93681e-10 0.998857)
(0.995197 -1.80231e-05 -3.35957e-11 1.0024 5.19508e-11 1.00242)
(0.995203 8.34285e-06 -1.45305e-10 1.00236 -1.68287e-11 1.00246)
(0.99541 -4.91553e-05 -9.7111e-11 1.00216 4.07722e-11 1.00244)
(0.995625 -2.72464e-06 1.06977e-10 1.00195 1.17839e-10 1.00244)
(0.995986 -6.09883e-05 2.90251e-10 1.00163 -1.17445e-10 1.0024)
(0.996428 -1.31193e-05 -8.79714e-11 1.00125 -3.10405e-10 1.00233)
(0.99692 -6.15789e-05 -4.29657e-10 1.00082 2.63396e-11 1.00226)
(0.997511 -1.6923e-05 -1.20665e-10 1.00035 4.75635e-10 1.00215)
(0.99832 -4.89246e-05 1.93849e-10 0.999736 -2.89729e-11 1.00195)
(0.999343 -2.07101e-06 -4.14689e-11 0.999058 -5.02331e-10 1.0016)
(1.00069 -1.69604e-05 -2.23556e-10 0.998095 2.7275e-10 1.00122)
(1.00227 3.40318e-05 3.89776e-11 0.997113 5.59333e-10 1.00062)
(1.0045 3.15461e-05 1.22806e-10 0.99551 -2.77968e-10 1.00001)
(1.00725 9.66195e-05 -1.52217e-11 0.99388 -5.32674e-10 0.998915)
(1.00952 0.000103426 -1.81005e-10 0.991796 2.97977e-10 0.998764)
(1.01029 0.000174616 -5.03376e-11 0.990952 1.93524e-10 0.99885)
(0.995188 -1.97607e-05 -3.36548e-11 1.0024 5.20775e-11 1.00243)
(0.995194 6.47483e-06 -1.45443e-10 1.00236 -1.68572e-11 1.00246)
(0.995401 -5.45684e-05 -9.69548e-11 1.00217 4.07902e-11 1.00245)
(0.995617 -8.51638e-06 1.07033e-10 1.00195 1.17995e-10 1.00245)
(0.99598 -6.94467e-05 2.89405e-10 1.00163 -1.17231e-10 1.0024)
(0.996423 -2.31868e-05 -8.81912e-11 1.00125 -3.10758e-10 1.00233)
(0.996916 -7.28933e-05 -4.28954e-10 1.00082 2.57643e-11 1.00227)
(0.997511 -3.07127e-05 -1.21489e-10 1.00035 4.76266e-10 1.00215)