/*--------------------------------*- C++ -*----------------------------------*\
| =========                 |                                                 |
| \\      /  F ield         | foam-extend: Open Source CFD                    |
|  \\    /   O peration     | Version:     4.1-20200408                       |
|   \\  /    A nd           | Web:         http://www.foam-extend.org         |
|    \\/     M anipulation  |                                                 |
\*---------------------------------------------------------------------------*/
FoamFile
{
    version     2.0;
    format      ascii;
    class       volScalarField;
    location    "0.0685000";
    object      epsilonPEq;
}
// * * * * * * * * * * * * * * * * * * * * * * * * * * * * * * * * * * * * * //

dimensions      [0 0 0 0 0 0 0];

internalField   nonuniform List<scalar> 
1952
(
0.0967027
0.0968378
0.0971218
0.0974235
0.0977803
0.0981312
0.0985214
0.0986882
0.0985947
0.0979474
0.0967209
0.0945024
0.0915328
0.0893251
0.0880554
0.0965728
0.0967826
0.0969177
0.0972018
0.0975035
0.09786
0.0982116
0.0986024
0.0987692
0.0986748
0.0980291
0.0968025
0.0945823
0.091612
0.089405
0.0881353
0.0966527
0.096862
0.0969972
0.0972813
0.097583
0.0979392
0.0982925
0.0986838
0.0988505
0.0987554
0.0981101
0.0968835
0.0946616
0.0916908
0.0894849
0.0882152
0.0967321
0.0969417
0.0970769
0.0973611
0.0976628
0.0980188
0.0983727
0.0987646
0.0989313
0.0988354
0.098191
0.096964
0.0947403
0.0917697
0.089565
0.0882955
0.0968117
0.0970209
0.0971561
0.0974403
0.0977421
0.0980978
0.0984528
0.098845
0.0990116
0.0989147
0.0982717
0.0970448
0.0948195
0.0918489
0.0896454
0.088376
0.0968908
0.0970998
0.097235
0.0975192
0.0978209
0.0981763
0.0985327
0.0989257
0.0990922
0.0989945
0.0983529
0.097126
0.094899
0.0919286
0.0897261
0.0884567
0.0969696
0.0971786
0.0973138
0.0975981
0.0978998
0.098255
0.0986128
0.0990064
0.099173
0.0990746
0.0984344
0.0972076
0.0949791
0.0920081
0.0898065
0.0885372
0.0970484
0.0972573
0.0973926
0.097677
0.0979788
0.0983338
0.0986931
0.0990876
0.0992544
0.0991553
0.0985156
0.0972889
0.0950588
0.0920881
0.0898872
0.0886177
0.097127
0.0973361
0.0974715
0.0977561
0.0980582
0.0984131
0.0987732
0.0991684
0.0993353
0.0992354
0.0985974
0.0973708
0.0951391
0.0921676
0.0899678
0.0886981
0.0972057
0.0974147
0.0975503
0.097835
0.0981372
0.098492
0.0988538
0.0992498
0.0994168
0.0993163
0.0986788
0.0974521
0.0952188
0.0922475
0.0900484
0.0887782
0.0972842
0.097494
0.0976297
0.0979146
0.098217
0.0985716
0.0989341
0.0993307
0.0994978
0.0993965
0.0987606
0.0975338
0.0952989
0.0923269
0.0901287
0.088858
0.0973634
0.0975732
0.0977089
0.0979939
0.0982963
0.0986508
0.099015
0.0994122
0.0995792
0.0994772
0.0988416
0.0976148
0.0953782
0.0924063
0.0902086
0.0889376
0.0974425
0.0976531
0.0977888
0.0980738
0.0983763
0.0987305
0.0990953
0.0994931
0.09966
0.0995572
0.0989226
0.0976955
0.095457
0.0924849
0.0902882
0.0890169
0.0975223
0.0977328
0.0978685
0.0981535
0.0984559
0.0988098
0.0991758
0.0995739
0.0997406
0.0996369
0.0990031
0.0977758
0.0955355
0.0925631
0.0903673
0.0890959
0.097602
0.0978126
0.0979483
0.0982331
0.0985355
0.0988889
0.0992558
0.0996544
0.0998208
0.0997163
0.0990833
0.0978557
0.0956135
0.0926411
0.0904462
0.0891747
0.0976818
0.0978921
0.0980277
0.0983125
0.0986147
0.0989677
0.0993356
0.0997344
0.0999005
0.0997952
0.099163
0.0979352
0.0956912
0.0927188
0.0905252
0.0892535
0.0977613
0.0979711
0.0981066
0.0983914
0.0986935
0.099046
0.099415
0.0998141
0.0999799
0.099874
0.0992425
0.0980145
0.0957689
0.0927964
0.0906041
0.0893323
0.0978402
0.0980495
0.0981851
0.0984698
0.0987719
0.0991241
0.0994941
0.0998934
0.100059
0.0999525
0.099322
0.0980937
0.0958463
0.0928741
0.0906826
0.0894106
0.0979186
0.0981273
0.0982629
0.0985476
0.0988497
0.0992017
0.0995727
0.0999725
0.100138
0.100031
0.0994015
0.0981731
0.0959239
0.0929516
0.0907607
0.0894885
0.0979964
0.0982046
0.0983403
0.0986251
0.0989272
0.099279
0.0996513
0.100052
0.100218
0.10011
0.0994808
0.0982523
0.0960012
0.0930282
0.0908384
0.089566
0.0980737
0.0982817
0.0984174
0.0987023
0.0990046
0.0993563
0.0997296
0.10013
0.100297
0.100188
0.0995593
0.0983302
0.0960771
0.0931049
0.0909161
0.0896437
0.0981506
0.0983584
0.0984942
0.0987793
0.0990816
0.0994332
0.099807
0.100208
0.100374
0.100265
0.0996377
0.0984083
0.0961533
0.0931815
0.090994
0.0897217
0.0982273
0.0984346
0.0985704
0.0988555
0.0991578
0.099509
0.0998844
0.100286
0.100452
0.100342
0.0997157
0.0984861
0.0962296
0.0932578
0.0910717
0.0897996
0.0983034
0.098511
0.0986467
0.0989318
0.0992341
0.0995851
0.0999613
0.100363
0.10053
0.100419
0.0997935
0.0985635
0.0963055
0.0933342
0.0911497
0.0898778
0.0983797
0.0985869
0.0987227
0.0990078
0.09931
0.0996608
0.100038
0.10044
0.100607
0.100495
0.0998712
0.0986411
0.0963817
0.0934108
0.0912278
0.0899561
0.0984556
0.0986626
0.0987984
0.0990835
0.0993857
0.0997362
0.100115
0.100518
0.100684
0.100572
0.0999494
0.098719
0.0964583
0.0934881
0.0913059
0.0900342
0.0985313
0.0987383
0.0988741
0.0991593
0.0994616
0.099812
0.100192
0.100595
0.100762
0.10065
0.100028
0.0987976
0.0965356
0.093565
0.0913838
0.0901121
0.0986069
0.0988141
0.09895
0.0992354
0.0995378
0.0998881
0.100269
0.100674
0.100841
0.100728
0.100106
0.0988757
0.0966123
0.0936416
0.0914616
0.0901898
0.0986826
0.0988903
0.0990264
0.0993119
0.0996146
0.0999648
0.100347
0.100752
0.100919
0.100805
0.100184
0.0989533
0.0966884
0.0937182
0.0915397
0.0902679
0.0987587
0.0989666
0.0991028
0.0993884
0.0996912
0.100041
0.100424
0.100829
0.100997
0.100882
0.100263
0.0990313
0.0967649
0.0937955
0.0916181
0.0903461
0.0988349
0.0990432
0.0991794
0.099465
0.0997677
0.100117
0.100502
0.100907
0.101075
0.10096
0.100342
0.09911
0.0968421
0.0938727
0.0916963
0.0904241
0.0989115
0.0991203
0.0992564
0.099542
0.0998447
0.100194
0.10058
0.100986
0.101154
0.101038
0.10042
0.0991885
0.0969191
0.0939497
0.0917742
0.0905019
0.0989885
0.0991978
0.099334
0.0996196
0.0999223
0.100272
0.100658
0.101065
0.101232
0.101116
0.100499
0.099267
0.096996
0.0940268
0.0918523
0.0905797
0.099066
0.0992754
0.0994116
0.0996972
0.1
0.100349
0.100736
0.101143
0.101311
0.101194
0.100578
0.0993456
0.0970731
0.0941039
0.0919305
0.0906576
0.0991435
0.0993531
0.0994893
0.099775
0.100078
0.100426
0.100815
0.101222
0.10139
0.101272
0.100657
0.0994241
0.09715
0.094181
0.0920085
0.0907354
0.0992212
0.099431
0.0995672
0.0998529
0.100156
0.100504
0.100893
0.101301
0.101469
0.10135
0.100736
0.0995028
0.097227
0.0942585
0.0920866
0.0908131
0.0992991
0.0995089
0.0996451
0.0999308
0.100233
0.100582
0.100972
0.10138
0.101548
0.101429
0.100815
0.0995819
0.0973046
0.0943354
0.0921644
0.0908906
0.0993769
0.0995868
0.099723
0.100009
0.100311
0.100659
0.101051
0.101459
0.101627
0.101507
0.100894
0.0996599
0.097381
0.0944122
0.0922424
0.0909681
0.0994548
0.0996648
0.099801
0.100087
0.100389
0.100737
0.101129
0.101538
0.101706
0.101585
0.100973
0.0997382
0.0974577
0.0944892
0.0923203
0.0910458
0.0995327
0.0997421
0.0998783
0.100164
0.100466
0.100814
0.101207
0.101616
0.101784
0.101663
0.101051
0.0998166
0.0975346
0.0945664
0.0923977
0.0911228
0.0996099
0.0998195
0.0999557
0.100241
0.100544
0.100891
0.101285
0.101695
0.101863
0.101741
0.10113
0.0998952
0.0976116
0.0946428
0.0924749
0.0911998
0.0996873
0.0998966
0.100033
0.100319
0.100621
0.100969
0.101363
0.101773
0.101941
0.101819
0.101208
0.0999728
0.0976877
0.0947184
0.0925517
0.0912766
0.0997644
0.0999736
0.10011
0.100396
0.100698
0.101047
0.101441
0.101851
0.102019
0.101896
0.101286
0.10005
0.0977626
0.0947945
0.0926291
0.0913539
0.0998413
0.10005
0.100186
0.100472
0.100775
0.101124
0.101518
0.101928
0.102096
0.101974
0.101364
0.100127
0.0978386
0.0948701
0.0927063
0.0914311
0.0999178
0.100126
0.100262
0.100548
0.10085
0.101201
0.101595
0.102006
0.102173
0.102052
0.101441
0.100204
0.0979136
0.094946
0.0927834
0.0915082
0.0999938
0.100202
0.100339
0.100624
0.100926
0.101278
0.101672
0.102083
0.10225
0.102131
0.10152
0.100281
0.0979893
0.0950215
0.0928603
0.0915852
0.10007
0.100278
0.100414
0.1007
0.101001
0.101354
0.101749
0.10216
0.102327
0.102209
0.101597
0.100358
0.0980647
0.0950976
0.0929374
0.0916623
0.100145
0.100354
0.10049
0.100775
0.101077
0.101431
0.101826
0.102237
0.102404
0.102287
0.101676
0.100436
0.0981406
0.0951731
0.0930144
0.0917393
0.100221
0.100429
0.100565
0.100851
0.101152
0.101507
0.101903
0.102314
0.102481
0.102365
0.101754
0.100513
0.098216
0.0952495
0.0930916
0.0917655
0.100296
0.100505
0.100641
0.100927
0.101228
0.101583
0.10198
0.102391
0.102557
0.102444
0.101832
0.100591
0.0982924
0.0953253
0.0931685
0.0915911
0.100372
0.10058
0.100716
0.101002
0.101303
0.10166
0.102057
0.102469
0.102635
0.102521
0.10191
0.100668
0.0983679
0.0954014
0.093103
0.0909946
0.100448
0.100657
0.100793
0.101079
0.101379
0.101737
0.102134
0.102546
0.102711
0.1026
0.101989
0.100746
0.0984451
0.0954772
0.0926001
0.0896921
0.100524
0.100733
0.100869
0.101155
0.101455
0.101814
0.102211
0.102623
0.102789
0.102678
0.102067
0.100823
0.0985195
0.0951463
0.091385
0.0875591
0.1006
0.100809
0.100945
0.101231
0.101531
0.101891
0.102289
0.1027
0.102866
0.102734
0.10189
0.100341
0.0976373
0.0938157
0.0893081
0.0847151
0.100677
0.100886
0.101022
0.101307
0.101607
0.101948
0.102181
0.102351
0.102238
0.101792
0.100602
0.0986574
0.0955215
0.0913492
0.0863753
0.0813259
0.100753
0.100788
0.100834
0.100969
0.101076
0.101166
0.101105
0.100915
0.100409
0.0995574
0.0980054
0.0957144
0.0922813
0.0879029
0.0827287
0.0775293
0.100689
0.0998115
0.0997076
0.0996058
0.0994198
0.0991634
0.0987472
0.0981768
0.0972965
0.0960817
0.0942358
0.0917
0.08812
0.0836934
0.078574
0.0735048
0.0997748
0.0974306
0.0971699
0.0968295
0.0963574
0.0957811
0.0950442
0.0941531
0.0929818
0.0915008
0.0894696
0.0868112
0.0832353
0.0789133
0.0740601
0.0693436
0.0974666
0.0933179
0.0929463
0.0924368
0.0917664
0.0909729
0.0900252
0.0889339
0.0875996
0.0859832
0.0838936
0.0812352
0.0777938
0.0737006
0.0692643
0.0650549
0.0934129
0.0873906
0.0869859
0.0864192
0.0856845
0.0848216
0.0838129
0.0826702
0.0813154
0.0796997
0.0776752
0.0751283
0.0719257
0.0681555
0.0642393
0.0606438
0.0875141
0.07984
0.0794817
0.0789716
0.0783076
0.0775221
0.0766004
0.0755495
0.0743058
0.0728128
0.0709592
0.0686174
0.0657339
0.0623575
0.0590341
0.0561279
0.0799565
0.0710721
0.0708188
0.0704496
0.0699572
0.0693598
0.068637
0.0677874
0.0667548
0.0654778
0.0638748
0.0618107
0.0593054
0.0563779
0.0536997
0.0515372
0.0711526
0.0616194
0.0614958
0.0613051
0.061031
0.0606752
0.0602081
0.059619
0.0588536
0.0578486
0.0565446
0.0548079
0.0527213
0.0502861
0.0482926
0.0469144
0.0616493
0.0520459
0.0520402
0.052016
0.0519485
0.0518271
0.0516135
0.0512897
0.0508004
0.0500831
0.0490937
0.0477097
0.0460629
0.0441523
0.0428702
0.0423032
0.0520272
0.042861
0.0429327
0.0430225
0.0431026
0.0431577
0.0431448
0.0430439
0.0427966
0.0423456
0.0416552
0.0406245
0.0394188
0.0380525
0.0374948
0.037749
0.0428094
0.0344538
0.0345482
0.034679
0.0348215
0.0349647
0.035067
0.0351125
0.0350403
0.0348034
0.0343699
0.0336704
0.0328874
0.0320706
0.0322315
0.0332915
0.0343919
0.027058
0.0271248
0.0272263
0.027346
0.027484
0.027605
0.0277039
0.0277195
0.0276223
0.0273829
0.0269733
0.0265775
0.0262998
0.0271491
0.0289636
0.0270071
0.0207493
0.0207576
0.0207837
0.0208194
0.0208777
0.0209325
0.020994
0.0210039
0.0209595
0.0208376
0.0206607
0.0206029
0.0208374
0.0223163
0.0247906
0.0207224
0.0154728
0.0154187
0.015358
0.0152863
0.0152268
0.0151615
0.0151167
0.0150394
0.0149616
0.0148734
0.0148587
0.0150763
0.0157741
0.0177879
0.0207841
0.0154718
0.0110927
0.0109952
0.0108683
0.0107047
0.0105317
0.0103353
0.0101549
0.00994246
0.00976631
0.00963251
0.00969714
0.0101098
0.0111846
0.0135883
0.016933
0.0111103
0.00745201
0.0073402
0.00718499
0.00697112
0.00672292
0.00642475
0.0061227
0.00577363
0.00547938
0.00525516
0.00531902
0.00582178
0.00712768
0.00970749
0.0131946
0.00747677
0.00438657
0.00428215
0.00413137
0.00391098
0.0036387
0.00329189
0.00291733
0.00248374
0.00213278
0.00188937
0.00192607
0.00238491
0.00369536
0.00615352
0.0095331
0.00441071
0.00176378
0.00168314
0.00156683
0.00139185
0.00117209
0.000883377
0.000568047
0.00021471
0
0
0
0.000200146
0.00116676
0.00309335
0.00606259
0.0017832
0
0
0
0
0
0
0
0
0
0
0
0
0
0.000901592
0.00313113
0
0
0
0
0
0
0
0
0
0
0
0
0
0
0
0.00106192
0
0
0
0
0
0
0
0
0
0
0
0
0
0
0
0
0
0
0
0
0
0
0
0
0
0
0
0
0
0
0
0
0
0
0
0
0
0
0
0
0
0
0
0
0
0
0
0
0
0
0
0
0
0
0
0
0
0
0
0
0
0
0
0
0
0
0
0
0
0
0
0
0
0
0
0
0
0
0
0
0
0
0
0
0
0
0
0
0
0
0
0
0
0
0
0
0
0
0
0
0
0
0
0
0
0
0
0
0
0
0
0
0
0
0
0
0
0
0
0
0
0
0
0
0
0
0
0
0
0
0
0
0
0
0
0
0
0
0
0
0
0
0
0
0
0
0
0
0
0
0
0
0
0
0
0
0
0
0
0
0
0
0
0
0
0
0
0
0
0
0
0
0
0
0
0
0
0
0
0
0
0
0
0
0
0
0
0
0
0
0
0
0
0
0
0
0
0
0
0
0
0
0
0
0
0
0
0
0
0
0
0
0
0
0
0
0
0
0
0
0
0
0
0
0
0
0
0
0
0
0
0
0
0
0
0
0
0
0
0
0
0
0
0
0
0
0
0
0
0
0
0
0
0
0
0
0
0
0
0
0
0
0
0
0
0
0
0
0
0
0
0
0
0
0
0
0
0
0
0
0
0
0
0
0
0
0
0
0
0
0
0
0
0
0
0
0
0
0
0
0
0
0
0
0
0
0
0
0
0
0
0
0
0
0
0
0
0
0
0
0
0
0
0
0
0
0
0
0
0
0
0
0
0
0
0
0
0
0
0
0
0
0
0
0
0
0
0
0
0
0
0
0
0
0
0
0
0
0
0
0
0
0
0
0
0
0
0
0
0
0
0
0
0
0
0
0
0
0
0
0
0
0
0
0
0
0
0
0
0
0
0
0
0
0
0
0
0
0
0
0
0
0
0
0
0
0
0
0
0
0
0
0
0
0
0
0
0
0
0
0
0
0
0
0
0
0
0
0
0
0
0
0
0
0
0
0
0
0
0
0
0
0
0
0
0
0
0
0
0
0
0
0
0
0
0
0
0
0
0
0
0
0
0
0
0
0
0
0
0
0
0
0
0
0
0
0
0
0
0
0
0
0
0
0
0
0
0
0
0
0
0
0
0
0
0
0
0
0
0
0
0
0
0
0
0
0
0
0
0
0
0
0
0
0
0
0
0
0
0
0
0
0
0
0
0
0
0
0
0
0
0
0
0
0
0
0
0
0
0
0
0
0
0
0
0
0
0
0
0
0
0
0
0
0
0
0
0
0
0
0
0
0
0
0
0
0
0
0
0
0
0
0
0
0
0
0
0
0
0
0
0
0
0
0
0
0
0
0
0
0
0
0
0
0
0
0
0
0
0
0
0
0
0
0
0
0
0
0
0
0
0
0
0
0
0
0
0
0
0
0
0
0
0
0
0
0
0
0
0
0
0
0
0
0
0
0
0
0
0
0
0
0
0
0
0
0
0
0
0
0
0
0
0
0
0
0
0
0
0
0
0
0
0
0
0
0
0
0
0
0
0
0
0
0
0
0
0
0
0
0
0
0
0
0
0
0
0
0
0
0
0
0
0
0
0
0
0
0
0
0
0
0
0
0
0
0
0
0
0
0
0
0
0
0
0
0
0
0
0
0
0
0
0
0
0
0
0
0
0
0
0
0
0
0
0
0
0
0
0
0
0
0
0
0
0
0
0
0
0
0
0
0
)
;

boundaryField
{
    wireUpstream
    {
        type            calculated;
        value           uniform 0;
    }
    wireDownstream
    {
        type            calculated;
        value           nonuniform List<scalar> 
16
(
0.0967027
0.0968378
0.0971218
0.0974235
0.0977803
0.0981312
0.0985214
0.0986882
0.0985947
0.0979474
0.0967209
0.0945024
0.0915328
0.0893251
0.0880554
0.0965728
)
;
    }
    wireTopContact
    {
        type            calculated;
        value           nonuniform List<scalar> 
122
(
0.0878293
0.0879091
0.0879893
0.0880697
0.0881502
0.0882305
0.0883109
0.0883912
0.0884711
0.0885508
0.0886302
0.0887094
0.0887883
0.088867
0.0889457
0.0890243
0.0891026
0.0891803
0.0892577
0.0893353
0.0894132
0.0894909
0.089569
0.0896472
0.0897252
0.089803
0.0898806
0.0899586
0.0900367
0.0901145
0.0901922
0.0902699
0.0903477
0.0904254
0.090503
0.0905804
0.0906577
0.0907353
0.0908123
0.0908891
0.0909658
0.0910431
0.0911201
0.0911971
0.091274
0.091351
0.0914279
0.0914665
0.0912973
0.0906947
0.0893743
0.0872205
0.0843708
0.0809987
0.077223
0.0732186
0.0690748
0.064798
0.0603927
0.0558781
0.0512863
0.0466635
0.0420565
0.0375138
0.0330764
0.0287775
0.0246409
0.0206756
0.0168688
0.0131751
0.00955165
0.00610542
0.00317691
0.00108132
0
0
0
0
0
0
0
0
0
0
0
0
0
0
0
0
0
0
0
0
0
0
0
0
0
0
0
0
0
0
0
0
0
0
0
0
0
0
0
0
0
0
0
0
0
0
0
0.0877495
)
;
    }
    front
    {
        type            wedge;
    }
    back
    {
        type            wedge;
    }
}


// ************************************************************************* //
