/*--------------------------------*- C++ -*----------------------------------*\
| =========                 |                                                 |
| \\      /  F ield         | foam-extend: Open Source CFD                    |
|  \\    /   O peration     | Version:     4.1-20200408                       |
|   \\  /    A nd           | Web:         http://www.foam-extend.org         |
|    \\/     M anipulation  |                                                 |
\*---------------------------------------------------------------------------*/
FoamFile
{
    version     2.0;
    format      ascii;
    class       volScalarField;
    location    "0.0690000";
    object      ccz;
}
// * * * * * * * * * * * * * * * * * * * * * * * * * * * * * * * * * * * * * //

dimensions      [0 1 0 0 0 0 0];

internalField   nonuniform List<scalar> 
1952
(
-1.38907e-12
1.50107e-12
-4.16997e-12
-1.25e-11
-6.05714e-12
2.56564e-11
2.44278e-11
-2.55076e-11
-1.18157e-11
1.22932e-11
-2.53782e-11
-3.73266e-11
-1.23405e-11
-1.45346e-21
3.54113e-22
-1.45491e-13
-1.38891e-12
2.83335e-12
-2.97629e-12
-1.37963e-11
-7.27286e-12
2.56423e-11
2.44448e-11
-1.27455e-11
4.38872e-13
1.23007e-11
-1.26817e-11
-1.23331e-11
5.0717e-22
1.26445e-11
1.23649e-11
-1.45496e-13
-2.77784e-13
4.16673e-12
-3.09536e-12
-1.37037e-11
-6.06052e-12
2.56415e-11
2.4444e-11
-6.06606e-22
2.544e-11
2.46025e-11
2.98295e-22
-4.93513e-22
-5.07211e-22
1.26444e-11
1.23652e-11
1.52116e-12
8.33183e-13
4.1665e-12
-1.78622e-12
-1.12037e-11
-4.84824e-12
2.56406e-11
2.44431e-11
1.61741e-22
1.27198e-11
1.23014e-11
1.01427e-21
3.83871e-22
-5.07201e-22
1.2644e-11
-2.69813e-13
3.18779e-12
1.11112e-12
5.33354e-12
-4.75963e-13
-1e-11
-4.84841e-12
1.28214e-11
1.22225e-11
-1.27456e-11
4.38347e-13
1.23007e-11
-1.19336e-22
-2.1937e-22
-5.07294e-22
1.26444e-11
-2.69818e-13
1.52122e-12
-9.51243e-23
4.00004e-12
-2.97626e-12
-1.12036e-11
8.0304e-12
2.49996e-11
1.22214e-11
-1.27455e-11
1.31598e-11
2.46034e-11
1.19345e-22
4.93575e-22
2.02894e-22
-2.83102e-22
4.41134e-22
-1.45461e-13
-2.77783e-13
2.83337e-12
-4.28622e-12
-1.24075e-11
2.09096e-11
3.7179e-11
1.22222e-11
-1.27448e-11
4.39554e-13
1.2301e-11
-1.26813e-11
-1.23328e-11
1.26547e-11
1.23552e-11
5.29401e-22
1.52118e-12
8.33181e-13
4.1667e-12
-1.78547e-12
-1.12037e-11
2.09096e-11
2.43586e-11
-5.0447e-22
-1.27456e-11
-1.22805e-11
-1.24285e-21
-1.26817e-11
-2.5e-11
3.09888e-13
1.23559e-11
6.17687e-22
3.18782e-12
1.11116e-12
4.00004e-12
-2.97658e-12
-1.12037e-11
2.09106e-11
2.43594e-11
-7.79868e-22
1.41596e-21
1.27194e-11
1.23011e-11
1.79044e-22
-1.26668e-11
3.09997e-13
1.23557e-11
-5.29492e-22
1.52128e-12
1.11105e-12
4.00001e-12
-2.97633e-12
-1.12037e-11
2.09086e-11
2.43577e-11
-4.12783e-22
-8.08942e-22
2.54392e-11
2.46034e-11
-2.3877e-22
-2.19435e-22
1.26546e-11
2.5e-11
1.23645e-11
1.52118e-12
-2.77751e-13
4.16673e-12
-4.75963e-13
-1e-11
2.09096e-11
3.71791e-11
1.22218e-11
-1.27452e-11
4.39561e-13
1.2301e-11
-1.61152e-21
-1.26669e-11
-1.23451e-11
2.52884e-11
2.47302e-11
1.52126e-12
-1.66658e-12
3.0003e-12
-1.78581e-12
-1.25e-11
1.96975e-11
5e-11
2.4444e-11
-2.54907e-11
-2.45608e-11
2.61739e-22
2.38811e-22
-1.26672e-11
3.09266e-13
2.5e-11
1.23653e-11
1.52126e-12
-2.77791e-13
4.1667e-12
-3.09537e-12
-1.37037e-11
1.96985e-11
3.71795e-11
1.22226e-11
-1.27455e-11
4.39649e-13
1.23011e-11
-1.26814e-11
-2.49996e-11
3.09983e-13
1.23559e-11
4.41336e-22
1.52128e-12
-1.38887e-12
4.16653e-12
-3.09578e-12
-1.24074e-11
2.09086e-11
2.43577e-11
-1.37655e-22
-1.27452e-11
1.3159e-11
2.46025e-11
-1.26817e-11
-2.50004e-11
-1.23453e-11
1.13313e-21
-2.20709e-21
-1.45403e-13
-1.38895e-12
2.83337e-12
-4.28581e-12
-1.24074e-11
8.03134e-12
2.5e-11
1.22219e-11
-2.54915e-11
8.76717e-13
2.46025e-11
-2.98585e-22
-1.26673e-11
-1.2345e-11
-1.69985e-21
8.82911e-22
-1.454e-13
1.11109e-12
2.66669e-12
-5.47629e-12
-1.24074e-11
-4.8484e-12
1.28209e-11
1.22218e-11
-1.27451e-11
1.31599e-11
2.46025e-11
-1.26813e-11
-2.5e-11
3.0927e-13
1.23552e-11
-3.53156e-22
1.52126e-12
2.22221e-12
2.66669e-12
-5.47629e-12
-1.24074e-11
-4.8484e-12
-7.94685e-23
-1.37687e-22
8.09568e-23
2.54392e-11
2.46025e-11
-1.26817e-11
-1.23326e-11
2.53096e-11
2.47124e-11
-1.41301e-21
3.18795e-12
1.11116e-12
4.00001e-12
-2.97633e-12
-1.25e-11
6.81832e-12
1.21787e-11
-5.04848e-22
-4.45255e-22
2.54392e-11
2.46025e-11
-1.26813e-11
-2.49996e-11
1.29658e-11
3.73556e-11
1.23649e-11
1.52135e-12
-1.38887e-12
2.83358e-12
-1.66674e-12
-1.25926e-11
1.84854e-11
2.43594e-11
-1.83594e-22
-1.27448e-11
1.3159e-11
2.46017e-11
-1.26817e-11
-3.76673e-11
6.19259e-13
5e-11
2.47302e-11
-1.45364e-13
-2.779e-13
2.83318e-12
-1.66677e-12
-1.12963e-11
6.81869e-12
1.21794e-11
9.18141e-23
-2.54915e-11
-1.1841e-11
2.5e-11
1.23179e-11
-1.26673e-11
1.29643e-11
3.7356e-11
1.23653e-11
1.52129e-12
8.33338e-13
4.16673e-12
-4.76293e-13
-1.12963e-11
6.81832e-12
2.49996e-11
1.22219e-11
-1.27455e-11
-1.22805e-11
1.26989e-11
1.23187e-11
6.58841e-22
2.53096e-11
2.47116e-11
-1.14823e-21
3.18799e-12
-1.66667e-12
3.0003e-12
-1.78581e-12
-1.37963e-11
5.60651e-12
2.50004e-11
1.22222e-11
7.69331e-22
1.27198e-11
2.49997e-11
1.23183e-11
-1.09815e-22
2.53096e-11
2.47116e-11
-5.29993e-22
1.52132e-12
-2.77739e-13
4.1667e-12
-3.09536e-12
-1.5e-11
-7.27261e-12
1.59014e-22
3.21427e-22
2.42964e-22
1.27194e-11
2.50003e-11
1.23186e-11
-6.04026e-22
2.53096e-11
3.73556e-11
-2.69816e-13
1.52135e-12
1.11108e-12
5.33321e-12
-1.78585e-12
-1.25e-11
-6.06053e-12
1.28206e-11
1.22218e-11
5.26408e-22
1.27194e-11
1.23011e-11
-1.26814e-11
-1.23323e-11
1.26546e-11
3.76448e-11
1.20951e-11
1.52136e-12
1.11109e-12
4.00017e-12
-1.66674e-12
-1e-11
-4.84841e-12
1.28209e-11
1.22217e-11
-1.27452e-11
1.31589e-11
2.46025e-11
-1.26817e-11
-1.23331e-11
4.06371e-22
1.2644e-11
1.23653e-11
1.52133e-12
1.11116e-12
4.00001e-12
-2.97629e-12
-1.25e-11
-6.06049e-12
5.83063e-22
4.59199e-23
-2.54907e-11
-1.1841e-11
1.23014e-11
9.56131e-22
-9.88656e-22
-1.01612e-21
-1.51203e-21
-1.26347e-11
1.52138e-12
-1.38892e-12
4.16653e-12
-1.78622e-12
-1.25e-11
-6.06032e-12
1.28205e-11
-5.55186e-13
-3.77456e-11
-1.18413e-11
1.2301e-11
-1.01586e-21
-1.26669e-11
-1.23451e-11
1.89023e-22
-1.2635e-11
-1.45301e-13
-1.38891e-12
4.1667e-12
-1.78581e-12
-1.12037e-11
8.0304e-12
2.5e-11
-5.5686e-13
-3.77451e-11
8.80042e-13
2.46025e-11
-1.26813e-11
-2.5e-11
-1.23454e-11
-5.67116e-22
3.53438e-22
-1.45293e-13
-8.00413e-23
5.33354e-12
-1.78548e-12
-1.25e-11
1.96964e-11
3.71787e-11
1.22219e-11
-2.54907e-11
8.78371e-13
2.46017e-11
-1.26813e-11
-1.23331e-11
1.26551e-11
1.23556e-11
-5.30209e-22
-1.45285e-13
1.11109e-12
5.33337e-12
-1.78581e-12
-1.25e-11
1.96985e-11
5e-11
2.4444e-11
-1.27459e-11
1.31586e-11
2.46025e-11
1.19544e-22
4.94398e-22
1.2655e-11
2.5e-11
1.23649e-11
1.52137e-12
1.11112e-12
5.33337e-12
-3.09578e-12
-1.37037e-11
6.81802e-12
3.78214e-11
2.4444e-11
0
2.54392e-11
3.73011e-11
1.23182e-11
-1.97796e-21
3.04933e-22
2.52892e-11
1.20955e-11
1.52139e-12
-2.77782e-13
2.83342e-12
-2.97629e-12
-1.37963e-11
-7.27236e-12
2.56415e-11
1.16662e-11
-2.49996e-11
1.3159e-11
5e-11
2.46361e-11
-1.26669e-11
3.09614e-13
2.5e-11
-2.69816e-13
1.52138e-12
-1.66666e-12
1.66669e-12
-2.97596e-12
-1.25e-11
6.81825e-12
2.5e-11
-5.56871e-13
-3.77455e-11
8.80056e-13
3.73015e-11
-3.61827e-13
-2.5e-11
1.29655e-11
2.47124e-11
8.83918e-22
1.52148e-12
-2.77845e-13
4.16669e-12
-1.78623e-12
-1.25e-11
6.8188e-12
2.5e-11
1.22222e-11
-1.2746e-11
1.31586e-11
2.46025e-11
-1.26821e-11
-1.23335e-11
1.26554e-11
1.23556e-11
-1.41428e-21
1.52138e-12
1.11114e-12
5.33338e-12
-4.75968e-13
-1.12964e-11
6.81821e-12
2.5e-11
1.22221e-11
-1.2745e-11
4.40018e-13
2.5e-11
1.23183e-11
-1.64868e-22
8.13301e-22
1.26442e-11
-2.70055e-13
1.52147e-12
-2.77779e-13
4.16673e-12
-4.7653e-13
-1e-11
2.09098e-11
3.71789e-11
1.22215e-11
-1.27458e-11
4.38889e-13
2.5e-11
1.23185e-11
-1.2667e-11
3.09963e-13
3.76441e-11
1.20946e-11
1.52138e-12
-2.77798e-13
4.16668e-12
-1.78579e-12
-1.12037e-11
2.09094e-11
3.71796e-11
1.22223e-11
5.67564e-22
2.54393e-11
2.46022e-11
-5.3825e-22
-2.53346e-11
-1.20348e-11
2.50004e-11
1.23652e-11
1.5215e-12
-1.38883e-12
4.16676e-12
-3.09534e-12
-1.24074e-11
2.09096e-11
2.43586e-11
6.89639e-22
-1.2745e-11
4.39956e-13
1.23014e-11
-1.79447e-22
-1.26676e-11
3.09631e-13
1.23553e-11
-3.53683e-22
-1.45214e-13
-1.38896e-12
4.16665e-12
-1.78589e-12
-1.12037e-11
2.09095e-11
2.43586e-11
-1.37945e-22
-1.27458e-11
-1.22808e-11
-2.62285e-22
1.01696e-21
-1.09957e-22
2.53102e-11
3.73552e-11
1.23645e-11
-1.45206e-13
1.11104e-12
5.33337e-12
-4.76216e-13
-1.12962e-11
6.81915e-12
1.218e-11
0
-8.92311e-22
7.25365e-23
-1.31167e-22
1.79496e-22
-1.2667e-11
3.10772e-13
2.50005e-11
1.2365e-11
1.52136e-12
1.11119e-12
5.33335e-12
-1.78565e-12
-1.37962e-11
-7.27265e-12
1.32741e-21
3.67974e-22
6.49024e-22
-3.62732e-22
3.27958e-22
7.18056e-22
-1.26677e-11
-1.23452e-11
1.26443e-11
1.23643e-11
1.5216e-12
-1.45782e-22
4.00012e-12
-2.97621e-12
-1.25002e-11
-6.06067e-12
1.06217e-22
5.52089e-22
-1.27444e-11
-1.22798e-11
8.52911e-22
5.98531e-22
-4.40059e-22
-1.83137e-21
2.52895e-11
2.47288e-11
-1.45182e-13
1.111e-12
3.99987e-12
-2.97616e-12
-1.12036e-11
-4.84849e-12
3.71827e-22
-1.15039e-21
-2.54903e-11
-1.18425e-11
1.23006e-11
-1.26809e-11
-1.23322e-11
2.03522e-22
1.26452e-11
1.23645e-11
1.52133e-12
2.22224e-12
4.00015e-12
-2.97619e-12
-1.25e-11
-6.06052e-12
2.12522e-22
-2.30138e-22
-1.27462e-11
4.38761e-13
1.23024e-11
-1.26824e-11
-1.23336e-11
1.26544e-11
1.23546e-11
7.96239e-22
3.18816e-12
2.22222e-12
3.99981e-12
-2.9761e-12
-1.37961e-11
5.60439e-12
2.49972e-11
-5.55239e-13
-2.49974e-11
-1.22794e-11
9.1921e-22
7.18835e-22
1.10104e-22
2.531e-11
2.47104e-11
2.65509e-22
3.18817e-12
-2.77433e-13
4.16679e-12
-1.78576e-12
-1.25003e-11
1.96963e-11
5e-11
1.16658e-11
-3.77463e-11
-1.18442e-11
1.23003e-11
8.98924e-22
-7.71111e-22
1.26562e-11
1.23567e-11
-1.32851e-21
1.52173e-12
-1.38907e-12
2.83331e-12
-2.97572e-12
-1.24997e-11
1.96965e-11
5e-11
2.44451e-11
-1.27465e-11
4.38122e-13
1.23034e-11
8.39286e-22
1.70818e-21
-1.01932e-22
2.84442e-22
-1.41808e-21
-1.45141e-13
-1.38869e-12
1.50012e-12
-4.16669e-12
-1.37964e-11
5.60733e-12
2.50034e-11
1.22243e-11
8.12711e-23
2.90763e-22
1.26964e-11
1.23175e-11
-1.10267e-21
6.11997e-22
1.26428e-11
1.23639e-11
-1.45134e-13
-1.66679e-12
1.66639e-12
-1.66665e-12
-1.12964e-11
6.81572e-12
1.21783e-11
3.68627e-22
-1.27428e-11
4.37272e-13
2.5e-11
-3.58089e-13
-1.23324e-11
1.26529e-11
3.76427e-11
1.20972e-11
1.52132e-12
8.33219e-13
4.16642e-12
-4.75955e-13
-1e-11
2.09081e-11
2.43601e-11
9.21747e-23
-2.54889e-11
8.74162e-13
2.46048e-11
-1.26818e-11
-1.23355e-11
1.26554e-11
2.50019e-11
-1.29018e-11
3.18821e-12
2.22225e-12
5.33323e-12
-1.78531e-12
-1.12036e-11
8.0309e-12
1.21813e-11
-9.21775e-22
-1.27456e-11
4.36707e-13
1.2304e-11
-1.20124e-22
-1.26642e-11
-1.23453e-11
1.26423e-11
-2.64401e-13
3.18821e-12
8.3348e-13
2.8334e-12
-2.97589e-12
-1.12038e-11
-4.84872e-12
1.28188e-11
1.22222e-11
-1.27431e-11
4.36346e-13
2.49979e-11
1.23192e-11
-1.26661e-11
-1.23482e-11
2.52825e-11
1.2104e-11
3.18822e-12
8.33352e-13
1.49988e-12
-4.16632e-12
-1.12037e-11
8.02896e-12
2.5e-11
1.22236e-11
-2.54881e-11
-1.18454e-11
3.76973e-11
1.19623e-11
-1.2336e-11
1.22816e-21
1.26369e-11
-2.58169e-13
3.18823e-12
-2.77774e-13
2.83321e-12
-4.28531e-12
-1.37038e-11
1.96952e-11
2.43607e-11
-2.76395e-22
-1.27434e-11
4.36902e-13
2.49999e-11
-3.56939e-13
-1.23345e-11
-9.21722e-22
-1.04839e-21
0
1.52155e-12
-2.77563e-13
4.16656e-12
-1.78515e-12
-1.37961e-11
1.84824e-11
2.43614e-11
-1.27783e-11
-1.2259e-11
2.54341e-11
2.46087e-11
-1.26818e-11
-1.23422e-11
-3.07427e-22
9.53812e-22
-1.0718e-21
1.5217e-12
2.22229e-12
5.33309e-12
-4.75539e-13
-1.12959e-11
1.96938e-11
2.43625e-11
-1.27714e-11
-1.22526e-11
1.27108e-11
1.22993e-11
-2.53539e-11
-2.46768e-11
-6.15147e-22
-3.81778e-22
-5.36425e-22
3.18824e-12
8.33012e-13
4.16578e-12
-4.75201e-13
-1e-11
2.09045e-11
3.71884e-11
1.22316e-11
-1.27497e-11
4.32046e-13
1.23137e-11
-1.26677e-11
-1.23301e-11
1.26565e-11
1.23725e-11
3.57923e-22
3.18823e-12
8.34349e-13
4.16676e-12
-4.74832e-13
-1e-11
8.01783e-12
2.49816e-11
1.22159e-11
-2.54832e-11
-1.18638e-11
1.22955e-11
-7.81905e-22
2.76785e-22
2.52956e-11
2.47279e-11
1.96969e-21
3.18822e-12
2.2224e-12
3.99839e-12
-2.97692e-12
-1.1205e-11
-4.84958e-12
-1.32721e-22
-1.27867e-11
-2.49995e-11
-1.22725e-11
0
3.60955e-22
-5.53733e-22
1.26371e-11
1.23535e-11
1.79146e-22
3.18821e-12
-2.80441e-13
2.83292e-12
-4.28248e-12
-1.37054e-11
-6.06341e-12
1.28318e-11
-5.20574e-13
-2.50005e-11
-1.22982e-11
9.22e-22
1.62443e-21
1.49532e-21
1.33445e-21
3.82448e-22
-8.95917e-23
1.51969e-12
-1.38692e-12
2.83253e-12
-4.28556e-12
-1.37022e-11
6.8322e-12
2.49992e-11
1.22102e-11
-2.54832e-11
-2.45688e-11
3.29348e-22
-8.42461e-22
6.09353e-22
3.07996e-22
1.26498e-11
1.23803e-11
-1.45029e-13
-6.0975e-23
4.00159e-12
-4.28242e-12
-1.37058e-11
1.96891e-11
2.43645e-11
-2.30228e-22
-1.27254e-11
-1.22686e-11
3.29398e-22
1.80545e-22
-1.44043e-21
1.02663e-22
1.26292e-11
-2.80332e-13
-1.45021e-13
8.7092e-23
5.33293e-12
-1.78247e-12
-1.37943e-11
5.5842e-12
2.50008e-11
1.22415e-11
-1.2759e-11
-1.22991e-11
-9.88362e-22
-1.26932e-11
-1.23496e-11
1.26649e-11
2.50223e-11
-2.46055e-13
-1.45014e-13
1.11284e-12
5.33302e-12
-1.78667e-12
-1.24999e-11
6.83558e-12
3.78354e-11
1.16559e-11
-2.49994e-11
-1.22675e-11
-1.97719e-22
-1.26644e-11
-1.23217e-11
2.53064e-11
5e-11
2.47307e-11
1.52418e-12
8.31478e-13
4.16474e-12
-3.09439e-12
-1.24076e-11
2.09059e-11
3.71642e-11
-5.51378e-13
-1.22414e-11
1.27328e-11
2.50293e-11
-3.59788e-13
-1.23474e-11
2.53087e-11
5e-11
2.47267e-11
3.1883e-12
-2.77377e-13
2.83295e-12
-2.97554e-12
-8.60667e-12
1.04405e-11
2.50008e-11
1.22382e-11
3.66299e-22
2.54358e-11
5e-11
-7.21834e-13
-2.46667e-11
1.26434e-11
3.76356e-11
2.47232e-11
1.51957e-12
-2.78029e-13
2.83334e-12
-1.66494e-12
-1.77913e-11
-1.21352e-11
1.28057e-11
1.22102e-11
-1.27575e-11
1.31423e-11
3.72893e-11
-3.619e-13
-2.50003e-11
-1.23545e-11
1.26371e-11
1.23504e-11
1.52344e-12
8.34661e-13
4.16749e-12
-1.78642e-12
-3.19445e-11
-1.13541e-11
1.21916e-11
-9.2308e-23
-1.27326e-11
4.3684e-13
1.22906e-11
-1.26931e-11
-2.49997e-11
3.3633e-13
2.50198e-11
1.2368e-11
3.18832e-12
-2.79545e-13
2.83134e-12
-4.28601e-12
-2.01753e-11
7.55422e-13
2.50005e-11
1.22323e-11
-4.07499e-23
1.27288e-11
1.23112e-11
-2.53643e-11
-2.46621e-11
2.5317e-11
5e-11
2.47156e-11
1.52045e-12
-2.77773e-12
3.33131e-13
-5.47575e-12
-7.22269e-12
1.28857e-11
2.49996e-11
1.22155e-11
-1.27523e-11
4.22208e-13
1.22933e-11
-1.26741e-11
-2.50002e-11
3.01092e-13
3.76417e-11
2.47146e-11
-1.4499e-13
-1.38818e-12
1.50045e-12
-4.16561e-12
-6.01828e-12
1.2872e-11
2.50003e-11
1.22287e-11
-1.27383e-11
4.50092e-13
1.23073e-11
6.026e-22
-1.26627e-11
3.33292e-13
2.49998e-11
1.2349e-11
-1.44989e-13
-2.77851e-13
2.83324e-12
-1.66588e-12
-4.81508e-12
-2.52312e-22
1.28151e-11
1.22187e-11
-9.79626e-22
2.54382e-11
3.73057e-11
1.23219e-11
7.76006e-22
1.26533e-11
1.2343e-11
-6.23967e-22
1.52234e-12
-2.77654e-13
4.16693e-12
-1.78578e-12
-6.01911e-12
1.28823e-11
1.21836e-11
-3.23939e-22
-1.27482e-11
4.32733e-13
2.49939e-11
1.23146e-11
2.77122e-22
1.26624e-11
1.23562e-11
8.02148e-22
1.52112e-12
1.11142e-12
5.33327e-12
-1.78523e-12
-6.01828e-12
1.28753e-11
2.50001e-11
-5.55682e-13
-2.49999e-11
-1.22778e-11
3.96131e-22
-1.20494e-22
-3.32406e-22
1.26543e-11
1.23485e-11
2.67413e-22
1.52213e-12
8.33034e-13
4.16638e-12
-1.78596e-12
-6.01883e-12
-1.26144e-22
2.56411e-11
1.16686e-11
-1.22523e-11
-2.18861e-22
5.27849e-22
4.21489e-22
-1.26695e-11
-1.23455e-11
-1.3351e-21
1.3372e-21
3.18834e-12
8.33558e-13
4.16679e-12
-1.78556e-12
-6.01841e-12
0
1.28185e-11
1.22203e-11
4.0765e-23
-2.18774e-22
-4.61656e-22
5.41698e-22
-1.26666e-11
-1.23433e-11
1.26469e-11
1.23652e-11
3.18836e-12
8.33096e-13
4.16649e-12
-4.76227e-13
-1.77799e-11
7.5784e-13
1.21812e-11
9.23751e-23
-1.27467e-11
-1.22816e-11
-7.91153e-22
-1.26833e-11
-1.23331e-11
5.12104e-22
1.26435e-11
-2.75577e-13
3.18828e-12
-2.77738e-13
4.16684e-12
-1.78592e-12
-1.89802e-11
1.36381e-11
2.43589e-11
-1.84696e-22
-2.54921e-11
-1.18381e-11
1.23027e-11
-1.26815e-11
-1.23315e-11
9.21735e-22
1.14377e-21
-1.26347e-11
1.52144e-12
1.11124e-12
5.33334e-12
-3.09526e-12
-7.22221e-12
1.2878e-11
2.50001e-11
1.22228e-11
-1.27445e-11
1.31603e-11
2.46014e-11
-9.62235e-22
-6.08449e-22
3.07217e-22
-1.23908e-21
2.05022e-21
1.52188e-12
8.33201e-13
4.16679e-12
-3.09524e-12
-7.22221e-12
1.007e-21
1.282e-11
1.22208e-11
7.73376e-22
1.27189e-11
1.22999e-11
3.60815e-22
-1.26687e-11
-1.23456e-11
4.7649e-22
9.80349e-22
3.18842e-12
-2.77665e-13
4.16676e-12
-1.78602e-12
-6.01821e-12
4.71916e-22
0
2.76816e-22
4.07017e-23
1.27204e-11
1.23014e-11
-1.26827e-11
-2.5e-11
-1.23438e-11
1.90613e-22
5.3483e-22
1.52155e-12
1.11114e-12
3.99992e-12
-2.97634e-12
-6.01837e-12
-7.86316e-22
1.28212e-11
1.2222e-11
-8.13774e-22
1.27196e-11
1.23006e-11
-1.26815e-11
-1.2332e-11
-9.21429e-22
1.26451e-11
1.23654e-11
1.52176e-12
2.22223e-12
4.00007e-12
-2.97606e-12
-6.01847e-12
6.28994e-23
1.28204e-11
1.22213e-11
4.47503e-22
-9.463e-22
-1.18536e-21
-2.40463e-22
1.10598e-22
1.02385e-22
1.2644e-11
-2.70774e-13
3.18842e-12
2.22223e-12
4.00008e-12
-1.66702e-12
-1.77783e-11
-1.21216e-11
1.28214e-11
1.22222e-11
-2.03409e-22
1.27202e-11
1.23012e-11
-1.2682e-11
-2.5001e-11
3.10308e-13
1.23565e-11
-1.26342e-11
3.18835e-12
8.33162e-13
2.83333e-12
-1.6663e-12
-3.07414e-11
-2.42416e-11
1.28205e-11
1.22219e-11
2.03393e-22
1.27194e-11
1.23008e-11
-1.26812e-11
-2.49992e-11
1.29632e-11
3.73564e-11
1.23652e-11
3.18835e-12
-2.77766e-13
4.16669e-12
-4.76533e-13
-1.77775e-11
-1.21205e-11
-3.19162e-22
-1.0141e-21
0
1.272e-11
1.23015e-11
-7.81474e-22
9.40102e-22
1.26543e-11
3.76441e-11
2.47314e-11
1.52164e-12
-1.38887e-12
4.16686e-12
-4.76532e-13
-4.81483e-12
-2.20054e-22
-3.72391e-22
-6.91561e-22
8.54177e-22
2.54394e-11
2.46033e-11
-1.26819e-11
-1.23333e-11
1.26555e-11
3.7644e-11
1.20952e-11
-1.44984e-13
-2.77786e-12
2.99999e-12
-1.78571e-12
-6.01832e-12
1.28794e-11
2.50006e-11
1.2222e-11
-1.27453e-11
4.38912e-13
1.23009e-11
-1.26813e-11
-1.23326e-11
1.26539e-11
2.49993e-11
-2.68658e-13
-1.44984e-13
-2.77738e-13
4.16668e-12
-3.09521e-12
-2.01855e-11
7.57075e-13
2.49997e-11
1.22216e-11
-2.5491e-11
-2.45615e-11
0
-5.40958e-22
-1.26673e-11
-1.23456e-11
1.2644e-11
1.23655e-11
1.52174e-12
2.22223e-12
3.99998e-12
-2.97653e-12
-1.89812e-11
7.57771e-13
1.21793e-11
-3.68759e-22
-1.27448e-11
4.39765e-13
1.23019e-11
-1.26822e-11
-2.5e-11
-1.23454e-11
2.52882e-11
2.47304e-11
3.18828e-12
8.33326e-13
2.83351e-12
-1.66663e-12
-1.77779e-11
1.36375e-11
2.43591e-11
3.68771e-22
-1.27457e-11
1.31589e-11
2.46033e-11
-1.26809e-11
-1.23327e-11
-2.04812e-21
1.26433e-11
1.23653e-11
3.18835e-12
-2.77771e-13
2.83333e-12
-2.97619e-12
-3.19451e-11
-1.13639e-11
2.5e-11
1.22224e-11
-1.27453e-11
1.31579e-11
2.46024e-11
-1.26813e-11
-1.23336e-11
1.2655e-11
1.23562e-11
-4.45934e-22
1.5217e-12
-2.45768e-22
4.00001e-12
-4.28568e-12
-2.01851e-11
-1.21207e-11
2.5641e-11
2.44436e-11
-1.27452e-11
1.31576e-11
2.46024e-11
-2.53631e-11
-2.46668e-11
1.26541e-11
2.5e-11
1.23659e-11
-1.44984e-13
1.11108e-12
5.33333e-12
-1.78568e-12
-1.89816e-11
-1.21213e-11
1.28208e-11
1.22221e-11
-1.27449e-11
1.31593e-11
2.46033e-11
-1.2681e-11
-1.23323e-11
-9.21649e-22
1.26434e-11
1.23654e-11
1.52166e-12
2.22231e-12
5.33333e-12
-4.76537e-13
-1.77777e-11
-1.21211e-11
1.28206e-11
1.22219e-11
-1.46422e-21
2.54394e-11
2.46032e-11
-1.2023e-22
-1.54868e-21
0
1.26439e-11
1.23654e-11
3.18842e-12
8.33331e-13
2.83331e-12
-1.66666e-12
-4.81464e-12
-6.28592e-23
1.28203e-11
1.22221e-11
-8.13498e-23
2.54385e-11
3.73013e-11
1.23195e-11
-3.31904e-22
1.12673e-21
1.26434e-11
1.23654e-11
3.18835e-12
-5.55547e-13
1.6669e-12
-1.66664e-12
-4.815e-12
-5.34337e-22
1.28206e-11
1.22223e-11
-1.27457e-11
4.38268e-13
2.49997e-11
1.23183e-11
-1.26668e-11
-1.23459e-11
1.26443e-11
1.23658e-11
3.18835e-12
-5.55724e-13
2.99973e-12
-4.76176e-13
-4.81464e-12
1.28789e-11
3.7821e-11
2.44445e-11
-1.27445e-11
4.39674e-13
1.23013e-11
-1.26813e-11
-3.76667e-11
-1.20369e-11
2.5e-11
-2.69163e-13
3.18828e-12
-5.55371e-13
3.00027e-12
-4.76178e-13
-1.77779e-11
7.57382e-13
2.49998e-11
1.22221e-11
8.13529e-23
2.54376e-11
2.46023e-11
-2.53623e-11
-5e-11
-1.20372e-11
2.5e-11
-2.68446e-13
3.18842e-12
-5.55724e-13
3e-12
-1.78571e-12
-1.89814e-11
-1.21211e-11
4.78838e-22
-8.29891e-22
-1.27452e-11
4.38366e-13
1.23015e-11
-1.2681e-11
-2.49997e-11
-1.23456e-11
1.26435e-11
1.23655e-11
3.18828e-12
8.33348e-13
4.16667e-12
-3.09522e-12
-7.22223e-12
1.28789e-11
2.50003e-11
1.22223e-11
-1.27449e-11
-1.22801e-11
-2.63441e-22
4.20946e-22
-1.26668e-11
-1.23454e-11
9.5384e-23
8.92465e-22
3.18842e-12
2.22231e-12
3.99999e-12
-2.97654e-12
-6.01851e-12
1.28787e-11
3.78204e-11
2.44445e-11
-7.7297e-22
-1.31046e-21
6.58709e-23
-1.26817e-11
-2.5e-11
-1.2346e-11
-9.5399e-23
-2.05252e-21
3.18835e-12
2.22223e-12
4.00001e-12
-1.66665e-12
-4.81482e-12
-3.14402e-22
1.28209e-11
1.22221e-11
-1.27452e-11
-1.22808e-11
1.26985e-11
-3.62003e-13
-1.23333e-11
-1.02456e-21
1.26434e-11
1.23653e-11
3.18835e-12
2.22214e-12
5.33333e-12
-4.75817e-13
-4.81464e-12
1.28789e-11
1.21796e-11
-4.15001e-22
-2.54902e-11
-2.45614e-11
1.26988e-11
1.23187e-11
-1.26667e-11
3.07708e-13
3.76442e-11
2.47312e-11
3.18835e-12
8.33329e-13
2.83332e-12
-2.97657e-12
-1.89813e-11
7.58221e-13
1.21799e-11
6.45606e-22
-1.2745e-11
4.38859e-13
1.23022e-11
-6.01537e-23
-1.26666e-11
1.29644e-11
5e-11
2.47312e-11
3.18835e-12
-5.55549e-13
1.66668e-12
-2.97616e-12
-3.19444e-11
-1.13636e-11
1.21796e-11
-3.68943e-22
4.06925e-23
2.54395e-11
3.73017e-11
-3.61381e-13
-2.50003e-11
1.29628e-11
3.73557e-11
1.23655e-11
3.18835e-12
8.33348e-13
2.83333e-12
-1.66666e-12
-3.07415e-11
-1.13651e-11
1.2179e-11
-7.37847e-22
-6.10355e-22
2.54377e-11
3.7301e-11
-3.62286e-13
-2.49998e-11
1.29644e-11
3.73564e-11
1.23663e-11
3.18828e-12
2.22223e-12
3.99987e-12
-2.97618e-12
-3.19444e-11
-1.13621e-11
1.218e-11
9.22463e-23
-1.27456e-11
4.38324e-13
2.5e-11
-3.62293e-13
-1.23335e-11
1.26538e-11
3.76435e-11
2.47303e-11
3.18842e-12
1.11111e-12
5.33351e-12
-1.7857e-12
-1.89811e-11
1.36364e-11
3.71791e-11
1.22223e-11
-2.54893e-11
-1.18407e-11
2.5e-11
-3.6321e-13
-2.5e-11
-1.23453e-11
2.52873e-11
2.47321e-11
1.52167e-12
1.11112e-12
5.33333e-12
-1.78571e-12
-6.0183e-12
1.28787e-11
2.49998e-11
1.22222e-11
-1.27455e-11
4.38591e-13
1.23015e-11
9.62547e-22
-1.26665e-11
-1.23456e-11
1.26436e-11
1.23651e-11
1.52169e-12
2.22223e-12
3.99999e-12
-2.97618e-12
-6.01852e-12
2.20154e-22
1.28206e-11
1.22223e-11
0
-7.28361e-22
6.58988e-22
-1.26812e-11
-1.2333e-11
-1.74256e-21
-1.6226e-21
2.67881e-22
3.18835e-12
2.22222e-12
3.99987e-12
-2.97618e-12
-1.89816e-11
-1.21213e-11
1.28209e-11
1.22221e-11
-1.27452e-11
4.37681e-13
1.23012e-11
-1.26811e-11
-1.23333e-11
5.12554e-22
1.04987e-21
3.5716e-22
3.18835e-12
2.22223e-12
5.33351e-12
-1.7857e-12
-1.89814e-11
7.57633e-13
1.21796e-11
-6.92024e-22
-1.2745e-11
1.31593e-11
2.46041e-11
2.28676e-21
-1.26667e-11
-1.23458e-11
1.26442e-11
1.23657e-11
3.18835e-12
1.11111e-12
5.33333e-12
-4.76184e-13
-4.81482e-12
1.28787e-11
1.21794e-11
-5.07473e-22
-1.27452e-11
1.31578e-11
2.46032e-11
6.01757e-23
-1.26665e-11
-1.23452e-11
2.52864e-11
1.20967e-11
1.52168e-12
-1.38889e-12
4.16666e-12
-1.78571e-12
-6.01853e-12
1.28788e-11
2.50001e-11
1.22223e-11
-1.27451e-11
4.38599e-13
1.23011e-11
-9.62776e-22
-1.26662e-11
-1.23458e-11
1.26441e-11
-1.29033e-11
-1.44984e-13
-1.38888e-12
4.16667e-12
-3.09523e-12
-7.22223e-12
1.28787e-11
2.5e-11
1.22222e-11
-1.27451e-11
4.38611e-13
1.23017e-11
-6.01848e-22
-2.53342e-11
-1.20383e-11
1.23564e-11
-1.26348e-11
-1.44984e-13
1.16222e-22
4e-12
-2.97618e-12
-6.01874e-12
1.28788e-11
1.21795e-11
7.84554e-22
-1.2745e-11
4.38611e-13
1.23015e-11
-5.41777e-22
-1.26666e-11
1.29644e-11
3.73564e-11
1.23661e-11
-1.44984e-13
-1.74286e-24
2.66667e-12
-4.16666e-12
-1.89817e-11
7.57559e-13
1.21794e-11
9.22795e-23
-9.36358e-22
5.82819e-22
1.26984e-11
1.23189e-11
-7.1979e-22
1.26543e-11
2.49999e-11
1.23651e-11
-1.44984e-13
1.11111e-12
4e-12
-2.97618e-12
-1.89815e-11
7.57593e-13
1.21795e-11
-1.27778e-11
-1.22549e-11
5.83073e-22
1.26984e-11
-3.62327e-13
-1.23333e-11
0
1.26441e-11
1.23657e-11
1.52168e-12
1.11111e-12
5.33333e-12
-1.78571e-12
-6.01852e-12
1.28788e-11
1.21795e-11
-1.27778e-11
-1.22549e-11
-1.45736e-22
1.26984e-11
-3.6222e-13
-2.5e-11
3.08648e-13
2.5e-11
1.23656e-11
1.52168e-12
5.76994e-23
5.33333e-12
-3.09523e-12
-7.22222e-12
-9.44176e-23
-1.06521e-22
-3.23115e-22
-1.22185e-22
-6.55956e-22
2.53968e-11
2.46377e-11
-2.53333e-11
6.17296e-13
2.47126e-11
5.36073e-22
-1.44984e-13
4.50174e-23
5.33333e-12
-3.09523e-12
-7.22222e-12
3.14725e-23
-1.0652e-22
-4.61598e-22
5.29469e-22
-5.10188e-22
2.53968e-11
2.46377e-11
-2.53333e-11
6.17296e-13
2.47126e-11
-3.57382e-22
-1.44984e-13
)
;

boundaryField
{
    wireUpstream
    {
        type            calculated;
        value           nonuniform List<scalar> 
16
(
0
5.33333e-12
-3.09523e-12
-7.22222e-12
0
0
0
-2.48339e-22
0
2.53968e-11
2.46377e-11
-2.53333e-11
6.17296e-13
2.47126e-11
5.63006e-22
-1.44984e-13
)
;
    }
    wireDownstream
    {
        type            calculated;
        value           nonuniform List<scalar> 
16
(
0
2.66669e-12
-5.47629e-12
-1.24074e-11
-4.84841e-12
2.56415e-11
2.4444e-11
-2.54907e-11
8.78384e-13
2.46025e-11
-2.5363e-11
-5e-11
-2.46904e-11
0
7.74099e-22
-1.45508e-13
)
;
    }
    wireTopContact
    {
        type            calculated;
        value           nonuniform List<scalar> 
122
(
6.7017e-22
6.70327e-22
-2.49998e-11
-2.50002e-11
6.70272e-22
0
6.70327e-22
0
6.70382e-22
0
0
6.70465e-22
0
6.7052e-22
-6.70548e-22
0
6.70602e-22
-6.70629e-22
6.70657e-22
6.70684e-22
6.70711e-22
-2.49998e-11
-2.50002e-11
1.34159e-21
-2.49998e-11
-2.50002e-11
0
6.70769e-22
-6.70798e-22
-2.49998e-11
-2.50002e-11
-6.70755e-22
6.70789e-22
-2.49998e-11
-2.50003e-11
-6.70788e-22
0
0
0
6.70828e-22
-6.70901e-22
0
6.71015e-22
0
0
0
0
-2.49985e-11
-5e-11
-2.50009e-11
-2.49996e-11
-2.49994e-11
6.80519e-22
0
0
0
0
0
0
0
-2.5014e-11
-2.49857e-11
-6.92132e-22
0
0
0
0
-6.94402e-22
6.95433e-22
-6.96647e-22
0
0
7.01651e-22
0
-1.40771e-21
-2.50014e-11
-2.49988e-11
-7.04575e-22
7.04574e-22
-7.0475e-22
2.11483e-21
-2.50005e-11
-2.49995e-11
-7.05456e-22
0
-2.50003e-11
-2.49997e-11
-7.06007e-22
0
0
0
-1.41326e-21
7.066e-22
-1.41314e-21
0
0
-2.50001e-11
-2.49999e-11
0
7.07199e-22
0
1.41432e-21
1.41459e-21
-7.07431e-22
0
-1.4151e-21
-7.07534e-22
-7.07673e-22
-7.07503e-22
0
7.07785e-22
0
-2.50001e-11
-5e-11
-2.49999e-11
0
0
0
0
0
0
-1.79331e-21
)
;
    }
    front
    {
        type            wedge;
    }
    back
    {
        type            wedge;
    }
}


// ************************************************************************* //
