/*--------------------------------*- C++ -*----------------------------------*\
| =========                 |                                                 |
| \\      /  F ield         | foam-extend: Open Source CFD                    |
|  \\    /   O peration     | Version:     4.1-20200408                       |
|   \\  /    A nd           | Web:         http://www.foam-extend.org         |
|    \\/     M anipulation  |                                                 |
\*---------------------------------------------------------------------------*/
FoamFile
{
    version     2.0;
    format      ascii;
    class       volTensorField;
    location    "0.0690000";
    object      F;
}
// * * * * * * * * * * * * * * * * * * * * * * * * * * * * * * * * * * * * * //

dimensions      [0 0 0 0 0 0 0];

internalField   nonuniform List<tensor> 
1952
(
(1.09656 -0.00554518 -2.84866e-10 -0.000439591 0.953062 -4.63446e-11 7.43303e-11 1.08026e-09 0.952988)
(1.09657 -0.00931567 -1.24055e-10 -0.000683928 0.953158 -1.55338e-09 3.97725e-11 -1.12013e-09 0.953045)
(1.09658 -0.0125219 2.46715e-10 -0.000983365 0.953325 5.63785e-10 -8.90312e-11 -7.79379e-09 0.953084)
(1.0966 -0.0155324 5.84445e-10 -0.0012201 0.953495 2.58656e-09 -2.30148e-10 2.93286e-09 0.953169)
(1.09662 -0.0180763 -2.1311e-10 -0.00152164 0.953745 -6.41934e-10 -2.58776e-11 1.49643e-08 0.953233)
(1.09664 -0.0202059 -1.00055e-09 -0.0017469 0.953977 -2.75468e-09 1.93211e-10 2.15425e-09 0.953346)
(1.09667 -0.0216445 -3.73228e-10 -0.00204148 0.95427 -1.08025e-09 3.93076e-11 -1.54781e-08 0.953433)
(1.0967 -0.0225226 7.08751e-10 -0.00225041 0.954577 1.4778e-09 -1.62901e-10 -2.63046e-09 0.953565)
(1.09672 -0.0224928 -7.97883e-11 -0.00253363 0.954961 -2.77538e-10 -1.03182e-10 1.48358e-08 0.953675)
(1.09675 -0.0216693 -9.68492e-10 -0.00272146 0.955421 -1.58016e-09 4.55987e-12 -3.19967e-09 0.953832)
(1.09677 -0.0193533 3.60872e-10 -0.00298652 0.955938 3.6965e-10 -5.51611e-11 -1.51177e-08 0.953982)
(1.09679 -0.0158926 9.38002e-10 -0.00314299 0.956682 1.09745e-09 -1.07135e-10 2.58722e-09 0.954172)
(1.09681 -0.0107093 -1.2613e-11 -0.00339187 0.957432 -8.71729e-11 -1.549e-10 1.45866e-08 0.954386)
(1.09683 -0.00469161 -6.37052e-10 -0.00352199 0.958162 -1.0948e-09 -1.30598e-10 2.27589e-09 0.954625)
(1.09687 -0.000312075 -3.04299e-10 -0.00379928 0.958535 -3.18907e-10 -5.15852e-11 -4.68549e-09 0.954874)
(1.09655 -0.00306969 -8.65671e-11 -0.000178104 0.95299 -3.68985e-09 1.39983e-11 -1.59308e-09 0.952994)
(1.09665 -0.00554878 -2.85001e-10 -0.000408848 0.95305 -4.64174e-11 -1.45937e-11 1.08072e-09 0.952976)
(1.09666 -0.00932185 -1.24047e-10 -0.000663698 0.953146 -1.55399e-09 -2.00109e-11 -1.12021e-09 0.953033)
(1.09668 -0.0125303 2.46902e-10 -0.000922631 0.953311 5.64148e-10 -2.12182e-11 -7.79607e-09 0.953072)
(1.09669 -0.0155434 5.84638e-10 -0.0011757 0.953482 2.58845e-09 -4.41072e-11 2.93243e-09 0.953156)
(1.09672 -0.0180896 -2.13218e-10 -0.00143121 0.953731 -6.42045e-10 -7.35765e-11 1.49685e-08 0.953221)
(1.09674 -0.0202207 -1.00112e-09 -0.00167495 0.953962 -2.75679e-09 -6.10836e-11 2.15697e-09 0.953333)
(1.09677 -0.0216621 -3.73325e-10 -0.00192088 0.954252 -1.07987e-09 -2.6806e-11 -1.54818e-08 0.95342)
(1.0968 -0.0225434 7.08945e-10 -0.00214919 0.954558 1.48043e-09 -5.02491e-11 -2.63231e-09 0.953551)
(1.09683 -0.0225173 -7.97889e-11 -0.00238088 0.954939 -2.77523e-10 -1.21883e-10 1.48404e-08 0.953661)
(1.09686 -0.0216979 -9.68657e-10 -0.00258703 0.955397 -1.58273e-09 -9.96927e-11 -3.19983e-09 0.953817)
(1.09688 -0.0193891 3.60561e-10 -0.00279868 0.95591 3.68897e-10 -2.34033e-11 -1.51231e-08 0.953966)
(1.09691 -0.0159408 9.3735e-10 -0.00297164 0.95665 1.09936e-09 -6.66996e-11 2.58792e-09 0.954155)
(1.09693 -0.010778 -1.25131e-11 -0.00316022 0.957394 -8.71623e-11 -1.58727e-10 1.45923e-08 0.954368)
(1.09696 -0.00480332 -6.3124e-10 -0.00329869 0.958115 -1.09585e-09 -1.63471e-10 2.27686e-09 0.954605)
(1.09701 -0.00051142 -2.98654e-10 -0.00349763 0.95848 -3.18384e-10 -7.11907e-11 -4.68816e-09 0.954853)
(1.09664 -0.00307196 -8.66168e-11 -0.000175471 0.952979 -3.69044e-09 -5.5173e-12 -1.59345e-09 0.952982)
(1.09675 -0.00555297 -2.85173e-10 -0.000402091 0.953022 -4.6386e-11 -1.46149e-11 1.08132e-09 0.952949)
(1.09675 -0.00932908 -1.24057e-10 -0.000653251 0.953119 -1.55489e-09 -2.0047e-11 -1.12089e-09 0.953005)
(1.09677 -0.01254 2.4712e-10 -0.000907338 0.953283 5.64616e-10 -2.12608e-11 -7.80061e-09 0.953045)
(1.09679 -0.0155561 5.84892e-10 -0.00115718 0.953454 2.59042e-09 -4.41682e-11 2.93411e-09 0.953128)
(1.09681 -0.0181049 -2.13352e-10 -0.00140763 0.953702 -6.42362e-10 -7.36698e-11 1.49772e-08 0.953194)
(1.09684 -0.0202386 -1.00164e-09 -0.00164855 0.953932 -2.75889e-09 -6.1175e-11 2.15824e-09 0.953305)
(1.09686 -0.0216828 -3.73582e-10 -0.00188963 0.954221 -1.0802e-09 -2.68785e-11 -1.54911e-08 0.953392)
(1.09689 -0.0225672 7.08957e-10 -0.00211554 0.954526 1.48225e-09 -5.03335e-11 -2.63397e-09 0.953522)
(1.09692 -0.0225439 -7.98226e-11 -0.00234281 0.954906 -2.77616e-10 -1.22034e-10 1.48496e-08 0.953633)
(1.09695 -0.0217263 -9.69155e-10 -0.00254726 0.955362 -1.58444e-09 -9.98449e-11 -3.20191e-09 0.953788)
(1.09698 -0.0194207 3.60619e-10 -0.00275514 0.955874 3.68834e-10 -2.34827e-11 -1.51329e-08 0.953937)
(1.097 -0.0159758 9.37936e-10 -0.00292769 0.956613 1.10091e-09 -6.67957e-11 2.58961e-09 0.954125)
(1.09702 -0.0108138 -1.24403e-11 -0.00311461 0.957356 -8.71761e-11 -1.58921e-10 1.46022e-08 0.954337)
(1.09705 -0.00484111 -6.3129e-10 -0.00325497 0.958077 -1.09775e-09 -1.63707e-10 2.27841e-09 0.954573)
(1.09708 -0.000550567 -2.98938e-10 -0.00345515 0.958447 -3.18741e-10 -7.13134e-11 -4.69144e-09 0.954821)
(1.09673 -0.00307453 -8.66583e-11 -0.000172633 0.952952 -3.6922e-09 -5.52647e-12 -1.59437e-09 0.952955)
(1.09684 -0.00555723 -2.85354e-10 -0.00039662 0.952992 -4.63158e-11 -1.46366e-11 1.08201e-09 0.952919)
(1.09685 -0.00933651 -1.24061e-10 -0.000644717 0.953088 -1.55583e-09 -2.00821e-11 -1.12167e-09 0.952974)
(1.09686 -0.01255 2.47335e-10 -0.000895017 0.953252 5.65099e-10 -2.13027e-11 -7.80577e-09 0.953014)
(1.09688 -0.0155691 5.85087e-10 -0.00114214 0.953422 2.59233e-09 -4.4231e-11 2.93601e-09 0.953097)
(1.09691 -0.0181205 -2.13488e-10 -0.00138874 0.953669 -6.42731e-10 -7.3764e-11 1.49871e-08 0.953163)
(1.09693 -0.0202564 -1.00216e-09 -0.00162731 0.953899 -2.76083e-09 -6.12654e-11 2.15965e-09 0.953274)
(1.09696 -0.0217035 -3.73815e-10 -0.00186446 0.954187 -1.08078e-09 -2.69488e-11 -1.55017e-08 0.95336)
(1.09699 -0.0225911 7.09086e-10 -0.00208852 0.954492 1.48363e-09 -5.04182e-11 -2.63583e-09 0.95349)
(1.09702 -0.0225711 -7.98468e-11 -0.00231232 0.954871 -2.77746e-10 -1.22188e-10 1.48599e-08 0.9536)
(1.09705 -0.0217556 -9.6984e-10 -0.00251554 0.955325 -1.58575e-09 -9.99973e-11 -3.20422e-09 0.953755)
(1.09707 -0.0194524 3.60713e-10 -0.00272096 0.955836 3.69001e-10 -2.35582e-11 -1.51438e-08 0.953903)
(1.0971 -0.0160105 9.38582e-10 -0.00289352 0.956575 1.10224e-09 -6.689e-11 2.59145e-09 0.954091)
(1.09711 -0.0108488 -1.23654e-11 -0.00307948 0.957318 -8.71969e-11 -1.59119e-10 1.46129e-08 0.954303)
(1.09713 -0.00487732 -6.31483e-10 -0.00322141 0.95804 -1.09917e-09 -1.63945e-10 2.28009e-09 0.954539)
(1.09716 -0.0005847 -2.99518e-10 -0.00342157 0.958412 -3.1896e-10 -7.14342e-11 -4.69505e-09 0.954787)
(1.09683 -0.00307712 -8.66817e-11 -0.000170325 0.952921 -3.69423e-09 -5.53564e-12 -1.59541e-09 0.952924)
(1.09694 -0.00556153 -2.85548e-10 -0.000392168 0.952958 -4.62358e-11 -1.46588e-11 1.08276e-09 0.952885)
(1.09695 -0.00934399 -1.24081e-10 -0.000637564 0.953054 -1.55687e-09 -2.01163e-11 -1.12252e-09 0.95294)
(1.09696 -0.01256 2.4756e-10 -0.000885021 0.953218 5.65614e-10 -2.13435e-11 -7.81145e-09 0.952981)
(1.09698 -0.0155823 5.85321e-10 -0.00112962 0.953388 2.59436e-09 -4.42958e-11 2.9381e-09 0.953063)
(1.09701 -0.0181366 -2.13627e-10 -0.00137347 0.953635 -6.43137e-10 -7.38601e-11 1.4998e-08 0.953129)
(1.09703 -0.020275 -1.00274e-09 -0.00160988 0.953864 -2.76285e-09 -6.13548e-11 2.1612e-09 0.953239)
(1.09706 -0.0217246 -3.74116e-10 -0.00184469 0.95415 -1.08147e-09 -2.70162e-11 -1.55132e-08 0.953326)
(1.09709 -0.0226151 7.09076e-10 -0.0020672 0.954455 1.48498e-09 -5.0503e-11 -2.63785e-09 0.953455)
(1.09712 -0.0225978 -7.988e-11 -0.00228918 0.954833 -2.77892e-10 -1.22345e-10 1.48711e-08 0.953565)
(1.09715 -0.0217836 -9.70412e-10 -0.00249147 0.955287 -1.58711e-09 -1.0015e-10 -3.20671e-09 0.95372)
(1.09717 -0.0194821 3.60903e-10 -0.00269592 0.955797 3.69259e-10 -2.36296e-11 -1.51555e-08 0.953868)
(1.09719 -0.0160416 9.39277e-10 -0.00286857 0.956537 1.10354e-09 -6.69828e-11 2.59343e-09 0.954055)
(1.09721 -0.0108785 -1.22913e-11 -0.00305449 0.95728 -8.72207e-11 -1.59319e-10 1.46244e-08 0.954268)
(1.09722 -0.00490527 -6.31864e-10 -0.00319726 0.958003 -1.1006e-09 -1.64185e-10 2.28186e-09 0.954503)
(1.09724 -0.000609768 -2.99969e-10 -0.00339775 0.958378 -3.19219e-10 -7.15538e-11 -4.69884e-09 0.954751)
(1.09693 -0.00307966 -8.67643e-11 -0.000168422 0.952887 -3.6965e-09 -5.54476e-12 -1.59657e-09 0.95289)
(1.09704 -0.00556581 -2.85743e-10 -0.000388784 0.952921 -4.61509e-11 -1.46813e-11 1.08357e-09 0.952849)
(1.09705 -0.00935147 -1.24095e-10 -0.000632103 0.953018 -1.55797e-09 -2.01499e-11 -1.12344e-09 0.952904)
(1.09707 -0.01257 2.47776e-10 -0.000877478 0.953181 5.66157e-10 -2.13839e-11 -7.81754e-09 0.952944)
(1.09708 -0.0155955 5.85508e-10 -0.00112013 0.953351 2.59651e-09 -4.43618e-11 2.94033e-09 0.953027)
(1.09711 -0.0181524 -2.13769e-10 -0.00136206 0.953597 -6.4357e-10 -7.3957e-11 1.50097e-08 0.953092)
(1.09713 -0.0202931 -1.00325e-09 -0.00159684 0.953826 -2.765e-09 -6.14437e-11 2.16285e-09 0.953203)
(1.09716 -0.0217452 -3.7441e-10 -0.00182999 0.954113 -1.08223e-09 -2.70821e-11 -1.55255e-08 0.953289)
(1.09719 -0.0226385 7.09094e-10 -0.0020515 0.954417 1.48636e-09 -5.05884e-11 -2.64e-09 0.953418)
(1.09722 -0.022624 -7.99114e-11 -0.00227246 0.954795 -2.78048e-10 -1.22503e-10 1.48829e-08 0.953528)
(1.09725 -0.0218107 -9.71199e-10 -0.0024742 0.955249 -1.58847e-09 -1.00302e-10 -3.20934e-09 0.953682)
(1.09727 -0.0195101 3.61105e-10 -0.00267831 0.955758 3.69563e-10 -2.36991e-11 -1.51678e-08 0.953831)
(1.09729 -0.0160703 9.40061e-10 -0.00285112 0.956499 1.10483e-09 -6.70743e-11 2.59549e-09 0.954018)
(1.0973 -0.0109047 -1.22177e-11 -0.00303723 0.957243 -8.72447e-11 -1.5952e-10 1.46363e-08 0.95423)
(1.09731 -0.00492877 -6.32316e-10 -0.0031805 0.957967 -1.10185e-09 -1.64425e-10 2.28369e-09 0.954465)
(1.09732 -0.000629354 -3.00429e-10 -0.00338062 0.958343 -3.19462e-10 -7.16724e-11 -4.70276e-09 0.954713)
(1.09703 -0.00308218 -8.67962e-11 -0.000166972 0.952851 -3.69895e-09 -5.55389e-12 -1.59781e-09 0.952854)
(1.09715 -0.00557007 -2.85923e-10 -0.000386303 0.952883 -4.60623e-11 -1.4704e-11 1.08441e-09 0.952811)
(1.09715 -0.00935892 -1.2411e-10 -0.000628096 0.95298 -1.55914e-09 -2.01829e-11 -1.1244e-09 0.952866)
(1.09717 -0.01258 2.47995e-10 -0.000871985 0.953143 5.66722e-10 -2.14235e-11 -7.82392e-09 0.952906)
(1.09719 -0.0156085 5.85732e-10 -0.0011132 0.953313 2.59876e-09 -4.44291e-11 2.94266e-09 0.952988)
(1.09721 -0.0181681 -2.13904e-10 -0.00135383 0.953559 -6.44022e-10 -7.40551e-11 1.50218e-08 0.953054)
(1.09723 -0.0203111 -1.00382e-09 -0.00158739 0.953787 -2.76721e-09 -6.15323e-11 2.16457e-09 0.953165)
(1.09726 -0.0217653 -3.74723e-10 -0.00181951 0.954074 -1.08305e-09 -2.71459e-11 -1.55383e-08 0.953251)
(1.09729 -0.0226612 7.0901e-10 -0.00204028 0.954378 1.48777e-09 -5.0675e-11 -2.64223e-09 0.95338)
(1.09732 -0.0226489 -7.99469e-11 -0.00226071 0.954756 -2.78208e-10 -1.22662e-10 1.48952e-08 0.95349)
(1.09735 -0.021836 -9.71839e-10 -0.00246211 0.95521 -1.58993e-09 -1.00455e-10 -3.21206e-09 0.953644)
(1.09736 -0.0195358 3.61375e-10 -0.00266606 0.95572 3.69887e-10 -2.37658e-11 -1.51805e-08 0.953792)
(1.09738 -0.0160959 9.40798e-10 -0.00283911 0.956462 1.10612e-09 -6.71651e-11 2.59761e-09 0.953979)
(1.09739 -0.0109272 -1.21429e-11 -0.00302522 0.957206 -8.72693e-11 -1.59723e-10 1.46485e-08 0.954192)
(1.09739 -0.00494775 -6.32799e-10 -0.00316882 0.95793 -1.10303e-09 -1.64666e-10 2.28558e-09 0.954427)
(1.0974 -0.000644107 -3.00834e-10 -0.00336884 0.958308 -3.19705e-10 -7.179e-11 -4.70678e-09 0.954675)
(1.09713 -0.00308468 -8.68321e-11 -0.000165908 0.952813 -3.70155e-09 -5.56299e-12 -1.59911e-09 0.952816)
(1.09725 -0.00557422 -2.86103e-10 -0.000384607 0.952844 -4.59712e-11 -1.47269e-11 1.08528e-09 0.952771)
(1.09726 -0.0093662 -1.24117e-10 -0.000625357 0.95294 -1.56034e-09 -2.02156e-11 -1.1254e-09 0.952827)
(1.09727 -0.0125896 2.48203e-10 -0.000868239 0.953103 5.67303e-10 -2.1463e-11 -7.83051e-09 0.952867)
(1.09729 -0.0156212 5.85909e-10 -0.00110847 0.953273 2.6011e-09 -4.4497e-11 2.94508e-09 0.952949)
(1.09731 -0.0181834 -2.14037e-10 -0.00134828 0.95352 -6.44486e-10 -7.41544e-11 1.50344e-08 0.953015)
(1.09734 -0.0203284 -1.00437e-09 -0.00158097 0.953747 -2.76953e-09 -6.16214e-11 2.16635e-09 0.953125)
(1.09736 -0.0217843 -3.75043e-10 -0.0018127 0.954034 -1.08388e-09 -2.72061e-11 -1.55515e-08 0.953211)
(1.09739 -0.0226829 7.08785e-10 -0.00203272 0.954339 1.48929e-09 -5.07639e-11 -2.64452e-09 0.95334)
(1.09742 -0.022673 -7.99823e-11 -0.00225283 0.954717 -2.78371e-10 -1.22819e-10 1.49078e-08 0.95345)
(1.09744 -0.0218597 -9.72675e-10 -0.00245427 0.955171 -1.59138e-09 -1.00608e-10 -3.21485e-09 0.953604)
(1.09746 -0.0195593 3.61623e-10 -0.00265799 0.955681 3.70242e-10 -2.38329e-11 -1.51935e-08 0.953753)
(1.09748 -0.0161189 9.41608e-10 -0.00283129 0.956424 1.10733e-09 -6.72552e-11 2.59977e-09 0.95394)
(1.09748 -0.0109468 -1.20638e-11 -0.00301728 0.957169 -8.72945e-11 -1.59925e-10 1.4661e-08 0.954153)
(1.09748 -0.00496344 -6.3328e-10 -0.00316119 0.957894 -1.10415e-09 -1.64907e-10 2.28749e-09 0.954388)
(1.09749 -0.000655321 -3.01212e-10 -0.00336106 0.958273 -3.19938e-10 -7.1907e-11 -4.71088e-09 0.954636)
(1.09724 -0.00308713 -8.686e-11 -0.00016518 0.952774 -3.70423e-09 -5.57209e-12 -1.60046e-09 0.952777)
(1.09735 -0.00557833 -2.86297e-10 -0.000383508 0.952803 -4.58779e-11 -1.47498e-11 1.08617e-09 0.952731)
(1.09736 -0.0093734 -1.24131e-10 -0.000623581 0.9529 -1.56158e-09 -2.02479e-11 -1.12641e-09 0.952786)
(1.09738 -0.0125992 2.48409e-10 -0.000865859 0.953063 5.67893e-10 -2.15019e-11 -7.83724e-09 0.952826)
(1.09739 -0.0156336 5.86106e-10 -0.00110546 0.953233 2.6035e-09 -4.45654e-11 2.94753e-09 0.952909)
(1.09742 -0.0181983 -2.14171e-10 -0.00134487 0.953479 -6.44957e-10 -7.42539e-11 1.50472e-08 0.952975)
(1.09744 -0.0203451 -1.00495e-09 -0.00157698 0.953707 -2.77194e-09 -6.17104e-11 2.16816e-09 0.953085)
(1.09747 -0.0218023 -3.75361e-10 -0.00180853 0.953994 -1.08468e-09 -2.72654e-11 -1.55649e-08 0.953171)
(1.09749 -0.0227036 7.08536e-10 -0.00202793 0.954299 1.49091e-09 -5.08532e-11 -2.64685e-09 0.9533)
(1.09752 -0.0226957 -8.00156e-11 -0.00224779 0.954677 -2.78538e-10 -1.22977e-10 1.49205e-08 0.95341)
(1.09754 -0.0218817 -9.73424e-10 -0.00244912 0.955131 -1.59274e-09 -1.00761e-10 -3.21768e-09 0.953564)
(1.09756 -0.0195807 3.61909e-10 -0.00265288 0.955642 3.70624e-10 -2.38987e-11 -1.52067e-08 0.953713)
(1.09757 -0.0161396 9.42288e-10 -0.00282615 0.956387 1.10851e-09 -6.73452e-11 2.60196e-09 0.9539)
(1.09757 -0.0109635 -1.19859e-11 -0.00301241 0.957132 -8.73207e-11 -1.60129e-10 1.46736e-08 0.954113)
(1.09757 -0.00497584 -6.33639e-10 -0.00315664 0.957858 -1.10519e-09 -1.65147e-10 2.28942e-09 0.954348)
(1.09757 -0.000663652 -3.0154e-10 -0.00335629 0.958237 -3.20178e-10 -7.20233e-11 -4.715e-09 0.954597)
(1.09734 -0.00308955 -8.68662e-11 -0.000164708 0.952733 -3.70698e-09 -5.58114e-12 -1.60184e-09 0.952736)
(1.09746 -0.00558228 -2.8647e-10 -0.000382868 0.952763 -4.57837e-11 -1.47727e-11 1.08707e-09 0.95269)
(1.09746 -0.00938037 -1.24128e-10 -0.000622534 0.952859 -1.56283e-09 -2.02798e-11 -1.12744e-09 0.952746)
(1.09748 -0.0126083 2.48598e-10 -0.00086443 0.953022 5.68493e-10 -2.15407e-11 -7.84406e-09 0.952786)
(1.0975 -0.0156456 5.86237e-10 -0.00110361 0.953193 2.60596e-09 -4.46339e-11 2.95002e-09 0.952868)
(1.09752 -0.0182127 -2.14292e-10 -0.00134266 0.953439 -6.45431e-10 -7.43524e-11 1.50601e-08 0.952934)
(1.09754 -0.0203612 -1.00544e-09 -0.00157444 0.953667 -2.77442e-09 -6.17987e-11 2.16999e-09 0.953044)
(1.09757 -0.0218198 -3.75681e-10 -0.00180578 0.953953 -1.08548e-09 -2.73266e-11 -1.55784e-08 0.95313)
(1.09759 -0.0227231 7.08375e-10 -0.0020251 0.954259 1.4926e-09 -5.09414e-11 -2.64921e-09 0.953259)
(1.09762 -0.0227173 -8.00369e-11 -0.00224474 0.954638 -2.78704e-10 -1.23137e-10 1.49335e-08 0.95337)
(1.09764 -0.0219025 -9.74332e-10 -0.00244623 0.955092 -1.59426e-09 -1.00914e-10 -3.22053e-09 0.953524)
(1.09765 -0.0196002 3.62203e-10 -0.00265027 0.955604 3.70969e-10 -2.39636e-11 -1.522e-08 0.953672)
(1.09767 -0.0161576 9.43043e-10 -0.00282403 0.956349 1.10979e-09 -6.74352e-11 2.60416e-09 0.95386)
(1.09766 -0.0109776 -1.19033e-11 -0.00301071 0.957096 -8.73463e-11 -1.60332e-10 1.46863e-08 0.954073)
(1.09766 -0.00498587 -6.33984e-10 -0.0031547 0.957821 -1.10616e-09 -1.65388e-10 2.29136e-09 0.954309)
(1.09766 -0.000669659 -3.01831e-10 -0.00335397 0.958201 -3.20418e-10 -7.21393e-11 -4.71915e-09 0.954558)
(1.09745 -0.00309191 -8.69153e-11 -0.000164433 0.952693 -3.70977e-09 -5.59017e-12 -1.60324e-09 0.952696)
(1.09756 -0.00558617 -2.8662e-10 -0.000382474 0.952722 -4.56896e-11 -1.47956e-11 1.08797e-09 0.952649)
(1.09757 -0.00938724 -1.2412e-10 -0.000621907 0.952819 -1.56409e-09 -2.03115e-11 -1.12848e-09 0.952705)
(1.09759 -0.0126173 2.48791e-10 -0.00086355 0.952981 5.69096e-10 -2.1579e-11 -7.85092e-09 0.952745)
(1.0976 -0.0156573 5.86372e-10 -0.00110257 0.953152 2.60842e-09 -4.47025e-11 2.95253e-09 0.952827)
(1.09762 -0.0182269 -2.14412e-10 -0.00134135 0.953398 -6.4591e-10 -7.44514e-11 1.50732e-08 0.952893)
(1.09765 -0.0203769 -1.00601e-09 -0.00157312 0.953626 -2.77689e-09 -6.18865e-11 2.17183e-09 0.953003)
(1.09767 -0.0218364 -3.7599e-10 -0.0018047 0.953913 -1.08631e-09 -2.73864e-11 -1.55921e-08 0.95309)
(1.09769 -0.0227416 7.08263e-10 -0.00202424 0.954218 1.49417e-09 -5.10293e-11 -2.65158e-09 0.953219)
(1.09772 -0.0227371 -8.00609e-11 -0.00224435 0.954598 -2.78876e-10 -1.23297e-10 1.49464e-08 0.953329)
(1.09774 -0.0219214 -9.75014e-10 -0.00244617 0.955053 -1.59566e-09 -1.01067e-10 -3.22339e-09 0.953483)
(1.09775 -0.0196179 3.62511e-10 -0.00265027 0.955566 3.71372e-10 -2.40274e-11 -1.52333e-08 0.953632)
(1.09776 -0.0161737 9.43745e-10 -0.00282441 0.956313 1.11093e-09 -6.75259e-11 2.60637e-09 0.95382)
(1.09776 -0.0109896 -1.18211e-11 -0.00301094 0.957059 -8.73704e-11 -1.60535e-10 1.4699e-08 0.954033)
(1.09775 -0.00499389 -6.34235e-10 -0.00315455 0.957785 -1.10716e-09 -1.65628e-10 2.2933e-09 0.954269)
(1.09775 -0.000674099 -3.02077e-10 -0.00335315 0.958165 -3.20651e-10 -7.22547e-11 -4.72332e-09 0.954518)
(1.09755 -0.00309425 -8.69598e-11 -0.000164264 0.952652 -3.71258e-09 -5.59913e-12 -1.60464e-09 0.952655)
(1.09767 -0.00558998 -2.86791e-10 -0.000382378 0.95268 -4.55927e-11 -1.48184e-11 1.08889e-09 0.952608)
(1.09767 -0.00939399 -1.24121e-10 -0.000621768 0.952777 -1.56536e-09 -2.03428e-11 -1.12952e-09 0.952663)
(1.09769 -0.0126261 2.48972e-10 -0.000863493 0.95294 5.69699e-10 -2.16172e-11 -7.85781e-09 0.952704)
(1.0977 -0.0156687 5.86495e-10 -0.00110257 0.953111 2.61088e-09 -4.47709e-11 2.95505e-09 0.952786)
(1.09773 -0.0182401 -2.14524e-10 -0.00134171 0.953358 -6.46389e-10 -7.4549e-11 1.50862e-08 0.952852)
(1.09775 -0.0203914 -1.00639e-09 -0.00157365 0.953586 -2.77943e-09 -6.19737e-11 2.17367e-09 0.952962)
(1.09777 -0.0218523 -3.76294e-10 -0.00180543 0.953873 -1.08709e-09 -2.74462e-11 -1.56057e-08 0.953049)
(1.09779 -0.0227592 7.08162e-10 -0.00202513 0.954179 1.49594e-09 -5.11168e-11 -2.65395e-09 0.953178)
(1.09782 -0.0227559 -8.00796e-11 -0.00224576 0.95456 -2.79038e-10 -1.23456e-10 1.49594e-08 0.953289)
(1.09784 -0.0219387 -9.75858e-10 -0.00244749 0.955014 -1.59704e-09 -1.01222e-10 -3.22625e-09 0.953443)
(1.09785 -0.0196334 3.62814e-10 -0.00265191 0.955528 3.71754e-10 -2.40887e-11 -1.52465e-08 0.953592)
(1.09785 -0.0161883 9.44181e-10 -0.00282555 0.956275 1.11206e-09 -6.76174e-11 2.60857e-09 0.95378)
(1.09785 -0.0110008 -1.17419e-11 -0.00301176 0.957022 -8.73957e-11 -1.60734e-10 1.47116e-08 0.953994)
(1.09784 -0.00500063 -6.34523e-10 -0.00315527 0.957747 -1.10807e-09 -1.65868e-10 2.29524e-09 0.95423)
(1.09784 -0.000677374 -3.02275e-10 -0.00335325 0.958128 -3.20897e-10 -7.23697e-11 -4.72747e-09 0.954479)
(1.09765 -0.00309657 -8.69822e-11 -0.00016422 0.952611 -3.7154e-09 -5.60804e-12 -1.60606e-09 0.952613)
(1.09777 -0.00559366 -2.86943e-10 -0.000382578 0.952639 -4.54965e-11 -1.48411e-11 1.08979e-09 0.952567)
(1.09777 -0.00940055 -1.24099e-10 -0.000622107 0.952737 -1.56664e-09 -2.0374e-11 -1.13056e-09 0.952622)
(1.09779 -0.0126346 2.49146e-10 -0.00086406 0.952899 5.70301e-10 -2.16553e-11 -7.86468e-09 0.952663)
(1.0978 -0.0156797 5.86563e-10 -0.00110333 0.953071 2.6134e-09 -4.4839e-11 2.95755e-09 0.952745)
(1.09783 -0.018253 -2.14635e-10 -0.00134284 0.953317 -6.4686e-10 -7.4646e-11 1.50992e-08 0.952811)
(1.09785 -0.0204053 -1.00681e-09 -0.001575 0.953546 -2.78188e-09 -6.20604e-11 2.17551e-09 0.952921)
(1.09787 -0.0218672 -3.76576e-10 -0.00180699 0.953833 -1.0879e-09 -2.75058e-11 -1.56193e-08 0.953008)
(1.09789 -0.0227756 7.08074e-10 -0.00202684 0.954139 1.49764e-09 -5.12038e-11 -2.6563e-09 0.953137)
(1.09791 -0.0227739 -8.00882e-11 -0.00224762 0.954521 -2.792e-10 -1.23614e-10 1.49722e-08 0.953248)
(1.09793 -0.0219554 -9.76741e-10 -0.00244927 0.954976 -1.59859e-09 -1.01376e-10 -3.22909e-09 0.953403)
(1.09794 -0.0196481 3.6312e-10 -0.00265407 0.955489 3.72064e-10 -2.41505e-11 -1.52598e-08 0.953552)
(1.09795 -0.0162015 9.44714e-10 -0.0028275 0.956238 1.11325e-09 -6.77088e-11 2.61076e-09 0.95374)
(1.09794 -0.0110105 -1.16566e-11 -0.00301366 0.956985 -8.74212e-11 -1.60934e-10 1.47243e-08 0.953954)
(1.09794 -0.00500634 -6.34738e-10 -0.00315679 0.95771 -1.10894e-09 -1.66108e-10 2.29717e-09 0.95419)
(1.09793 -0.000679854 -3.0246e-10 -0.00335417 0.958091 -3.21143e-10 -7.24845e-11 -4.73163e-09 0.95444)
(1.09775 -0.00309884 -8.69977e-11 -0.000164302 0.952569 -3.71822e-09 -5.61691e-12 -1.60747e-09 0.952572)
(1.09787 -0.00559719 -2.87085e-10 -0.000382989 0.952598 -4.53981e-11 -1.48636e-11 1.0907e-09 0.952526)
(1.09787 -0.00940684 -1.24075e-10 -0.000622787 0.952696 -1.5679e-09 -2.0405e-11 -1.13159e-09 0.952581)
(1.09789 -0.0126427 2.4931e-10 -0.000865007 0.952859 5.70899e-10 -2.16929e-11 -7.87152e-09 0.952622)
(1.0979 -0.0156902 5.86621e-10 -0.00110455 0.95303 2.61588e-09 -4.49067e-11 2.96005e-09 0.952704)
(1.09793 -0.0182655 -2.14743e-10 -0.00134429 0.953277 -6.4733e-10 -7.47432e-11 1.51122e-08 0.952771)
(1.09795 -0.020419 -1.00724e-09 -0.00157663 0.953506 -2.78439e-09 -6.21466e-11 2.17733e-09 0.952881)
(1.09797 -0.0218817 -3.76876e-10 -0.00180915 0.953793 -1.08867e-09 -2.75648e-11 -1.56328e-08 0.952968)
(1.09799 -0.0227915 7.07904e-10 -0.00202911 0.9541 1.4994e-09 -5.12905e-11 -2.65865e-09 0.953097)
(1.09801 -0.0227908 -8.01035e-11 -0.0022503 0.954482 -2.79358e-10 -1.23771e-10 1.49851e-08 0.953208)
(1.09803 -0.0219707 -9.77499e-10 -0.00245204 0.954937 -1.60014e-09 -1.0153e-10 -3.23193e-09 0.953363)
(1.09804 -0.0196617 3.63397e-10 -0.0026568 0.955451 3.72377e-10 -2.42135e-11 -1.52729e-08 0.953512)
(1.09804 -0.0162139 9.4519e-10 -0.00283011 0.956201 1.11442e-09 -6.77995e-11 2.61294e-09 0.9537)
(1.09804 -0.0110194 -1.15724e-11 -0.00301603 0.956947 -8.74456e-11 -1.61135e-10 1.47368e-08 0.953914)
(1.09803 -0.00501146 -6.34924e-10 -0.00315855 0.957672 -1.1098e-09 -1.66346e-10 2.2991e-09 0.954151)
(1.09803 -0.000681941 -3.02625e-10 -0.00335537 0.958052 -3.21397e-10 -7.25989e-11 -4.73576e-09 0.9544)
(1.09786 -0.00310105 -8.70509e-11 -0.000164477 0.952529 -3.72102e-09 -5.62571e-12 -1.60887e-09 0.952531)
(1.09797 -0.0056006 -2.87217e-10 -0.000383621 0.952558 -4.5301e-11 -1.4886e-11 1.09159e-09 0.952485)
(1.09797 -0.00941299 -1.24043e-10 -0.000623798 0.952655 -1.56916e-09 -2.04359e-11 -1.13261e-09 0.952541)
(1.09799 -0.0126505 2.49461e-10 -0.000866451 0.952818 5.71495e-10 -2.17307e-11 -7.87829e-09 0.952581)
(1.098 -0.0157004 5.86618e-10 -0.00110632 0.95299 2.61836e-09 -4.4974e-11 2.96252e-09 0.952664)
(1.09802 -0.0182774 -2.14842e-10 -0.00134654 0.953237 -6.47795e-10 -7.48393e-11 1.5125e-08 0.95273)
(1.09804 -0.0204317 -1.00753e-09 -0.00157915 0.953466 -2.7869e-09 -6.22325e-11 2.17914e-09 0.952841)
(1.09807 -0.0218954 -3.77159e-10 -0.00181189 0.953754 -1.08942e-09 -2.76242e-11 -1.56461e-08 0.952928)
(1.09809 -0.0228067 7.07751e-10 -0.00203192 0.954061 1.5012e-09 -5.1377e-11 -2.66098e-09 0.953057)
(1.09811 -0.0228073 -8.0109e-11 -0.00225326 0.954443 -2.79513e-10 -1.23927e-10 1.49978e-08 0.953168)
(1.09813 -0.0219856 -9.78423e-10 -0.00245493 0.954899 -1.60164e-09 -1.01683e-10 -3.23473e-09 0.953323)
(1.09813 -0.0196745 3.63657e-10 -0.00265951 0.955413 3.72679e-10 -2.42766e-11 -1.5286e-08 0.953472)
(1.09814 -0.0162255 9.4568e-10 -0.00283249 0.956163 1.11559e-09 -6.78896e-11 2.61511e-09 0.95366)
(1.09813 -0.0110281 -1.14855e-11 -0.00301782 0.95691 -8.74701e-11 -1.61334e-10 1.47494e-08 0.953875)
(1.09812 -0.00501649 -6.35189e-10 -0.00315985 0.957633 -1.1107e-09 -1.66584e-10 2.30103e-09 0.954111)
(1.09812 -0.000683896 -3.02763e-10 -0.00335641 0.958014 -3.21649e-10 -7.27132e-11 -4.7399e-09 0.954361)
(1.09795 -0.00310321 -8.70826e-11 -0.000164746 0.952488 -3.72379e-09 -5.6345e-12 -1.61027e-09 0.952491)
(1.09806 -0.0056039 -2.87341e-10 -0.000384335 0.952518 -4.52054e-11 -1.49083e-11 1.09248e-09 0.952445)
(1.09807 -0.00941899 -1.2401e-10 -0.000624928 0.952615 -1.5704e-09 -2.04668e-11 -1.13363e-09 0.9525)
(1.09809 -0.0126582 2.49608e-10 -0.000868003 0.952779 5.72087e-10 -2.17683e-11 -7.885e-09 0.952541)
(1.0981 -0.0157105 5.86599e-10 -0.00110819 0.952951 2.62083e-09 -4.5041e-11 2.96497e-09 0.952623)
(1.09812 -0.0182893 -2.14946e-10 -0.00134882 0.953198 -6.48253e-10 -7.49351e-11 1.51377e-08 0.95269)
(1.09814 -0.0204444 -1.00789e-09 -0.0015816 0.953427 -2.78937e-09 -6.23182e-11 2.18093e-09 0.952801)
(1.09816 -0.0219089 -3.77447e-10 -0.00181461 0.953714 -1.09016e-09 -2.76834e-11 -1.56594e-08 0.952888)
(1.09818 -0.0228214 7.07574e-10 -0.00203456 0.954022 1.50298e-09 -5.14632e-11 -2.66328e-09 0.953017)
(1.0982 -0.0228233 -8.0116e-11 -0.00225598 0.954405 -2.79667e-10 -1.24082e-10 1.50104e-08 0.953129)
(1.09822 -0.0219999 -9.79254e-10 -0.00245731 0.95486 -1.60315e-09 -1.01835e-10 -3.23753e-09 0.953283)
(1.09823 -0.019687 3.63917e-10 -0.00266178 0.955375 3.72981e-10 -2.43394e-11 -1.5299e-08 0.953433)
(1.09823 -0.016237 9.46117e-10 -0.00283423 0.956125 1.1167e-09 -6.79796e-11 2.61727e-09 0.953621)
(1.09823 -0.0110364 -1.14009e-11 -0.00301912 0.956871 -8.74955e-11 -1.61534e-10 1.47619e-08 0.953836)
(1.09822 -0.00502114 -6.35386e-10 -0.00316098 0.957594 -1.11163e-09 -1.66822e-10 2.30295e-09 0.954072)
(1.09821 -0.000685801 -3.02884e-10 -0.00335736 0.957975 -3.21899e-10 -7.28272e-11 -4.74402e-09 0.954322)
(1.09805 -0.00310532 -8.71021e-11 -0.000165052 0.952448 -3.72653e-09 -5.64324e-12 -1.61165e-09 0.95245)
(1.09816 -0.00560713 -2.87464e-10 -0.000385093 0.952478 -4.51123e-11 -1.49306e-11 1.09336e-09 0.952405)
(1.09817 -0.00942492 -1.2396e-10 -0.00062612 0.952576 -1.57163e-09 -2.04978e-11 -1.13463e-09 0.952461)
(1.09818 -0.0126656 2.49752e-10 -0.000869601 0.952739 5.72677e-10 -2.1806e-11 -7.89162e-09 0.952502)
(1.0982 -0.0157203 5.86528e-10 -0.00111006 0.952912 2.6233e-09 -4.51077e-11 2.9674e-09 0.952584)
(1.09822 -0.0183009 -2.15045e-10 -0.00135095 0.953159 -6.48709e-10 -7.50307e-11 1.51503e-08 0.952651)
(1.09824 -0.0204569 -1.00816e-09 -0.00158376 0.953388 -2.79188e-09 -6.24038e-11 2.18271e-09 0.952761)
(1.09826 -0.0219223 -3.77747e-10 -0.00181693 0.953675 -1.09087e-09 -2.77429e-11 -1.56725e-08 0.952849)
(1.09828 -0.022836 7.07382e-10 -0.00203671 0.953983 1.50485e-09 -5.15494e-11 -2.66558e-09 0.952978)
(1.0983 -0.0228395 -8.01192e-11 -0.00225804 0.954366 -2.79817e-10 -1.24238e-10 1.50229e-08 0.953089)
(1.09832 -0.0220144 -9.80269e-10 -0.00245904 0.954821 -1.60475e-09 -1.01988e-10 -3.2403e-09 0.953244)
(1.09833 -0.0196993 3.64154e-10 -0.0026637 0.955336 3.73239e-10 -2.44022e-11 -1.53119e-08 0.953394)
(1.09833 -0.0162482 9.46594e-10 -0.00283568 0.956086 1.11792e-09 -6.80697e-11 2.61943e-09 0.953582)
(1.09832 -0.0110444 -1.13147e-11 -0.00302072 0.956833 -8.75214e-11 -1.61733e-10 1.47743e-08 0.953797)
(1.09831 -0.0050255 -6.3558e-10 -0.00316244 0.957555 -1.11252e-09 -1.67059e-10 2.30486e-09 0.954033)
(1.09831 -0.000687446 -3.03001e-10 -0.0033586 0.957936 -3.22157e-10 -7.29411e-11 -4.74814e-09 0.954283)
(1.09815 -0.00310741 -8.7144e-11 -0.000165378 0.952408 -3.72924e-09 -5.65197e-12 -1.61301e-09 0.952411)
(1.09826 -0.0056104 -2.87579e-10 -0.000385714 0.952439 -4.50218e-11 -1.49527e-11 1.09422e-09 0.952366)
(1.09826 -0.00943095 -1.23904e-10 -0.000627093 0.952537 -1.57285e-09 -2.05289e-11 -1.13562e-09 0.952422)
(1.09828 -0.0126732 2.49889e-10 -0.000870867 0.9527 5.73266e-10 -2.18438e-11 -7.89818e-09 0.952463)
(1.09829 -0.0157303 5.86445e-10 -0.00111155 0.952873 2.62574e-09 -4.51741e-11 2.96979e-09 0.952545)
(1.09831 -0.0183129 -2.15147e-10 -0.00135252 0.95312 -6.49161e-10 -7.51265e-11 1.51627e-08 0.952612)
(1.09833 -0.0204697 -1.00849e-09 -0.0015854 0.953349 -2.79437e-09 -6.24897e-11 2.18447e-09 0.952722)
(1.09835 -0.0219357 -3.78049e-10 -0.00181882 0.953636 -1.09157e-09 -2.78023e-11 -1.56856e-08 0.952809)
(1.09838 -0.0228506 7.07229e-10 -0.0020386 0.953944 1.50667e-09 -5.16357e-11 -2.66785e-09 0.952938)
(1.0984 -0.0228555 -8.01222e-11 -0.00225997 0.954327 -2.79969e-10 -1.24393e-10 1.50354e-08 0.95305)
(1.09841 -0.0220289 -9.81178e-10 -0.00246099 0.954782 -1.60646e-09 -1.0214e-10 -3.24307e-09 0.953205)
(1.09842 -0.0197118 3.64397e-10 -0.00266586 0.955297 3.73467e-10 -2.44652e-11 -1.53248e-08 0.953355)
(1.09843 -0.0162591 9.47203e-10 -0.00283793 0.956047 1.11919e-09 -6.81597e-11 2.62158e-09 0.953543)
(1.09842 -0.0110518 -1.12275e-11 -0.00302319 0.956794 -8.75458e-11 -1.61932e-10 1.47867e-08 0.953758)
(1.09841 -0.00502966 -6.35727e-10 -0.00316438 0.957516 -1.11342e-09 -1.67297e-10 2.30677e-09 0.953994)
(1.0984 -0.000688919 -3.0313e-10 -0.00336016 0.957897 -3.22415e-10 -7.3055e-11 -4.75224e-09 0.954244)