/*--------------------------------*- C++ -*----------------------------------*\
| =========                 |                                                 |
| \\      /  F ield         | foam-extend: Open Source CFD                    |
|  \\    /   O peration     | Version:     4.1-20200408                       |
|   \\  /    A nd           | Web:         http://www.foam-extend.org         |
|    \\/     M anipulation  |                                                 |
\*---------------------------------------------------------------------------*/
FoamFile
{
    version     2.0;
    format      ascii;
    class       volScalarField;
    location    "0.0690000";
    object      rho_0;
}
// * * * * * * * * * * * * * * * * * * * * * * * * * * * * * * * * * * * * * //

dimensions      [1 -3 0 0 0 0 0];

internalField   nonuniform List<scalar> 
1952
(
7864.31
7863.03
7861.27
7859.11
7856.41
7853.47
7850.24
7846.49
7842.28
7837.04
7831.43
7823.57
7815.49
7807.32
7801.88
7864.93
7864.1
7862.83
7861.06
7858.9
7856.2
7853.27
7850.04
7846.3
7842.1
7836.88
7831.28
7823.45
7815.4
7807.29
7801.93
7864.72
7863.94
7862.66
7860.89
7858.74
7856.04
7853.12
7849.9
7846.16
7841.97
7836.76
7831.18
7823.36
7815.34
7807.25
7801.92
7864.55
7863.78
7862.51
7860.74
7858.59
7855.9
7852.98
7849.76
7846.04
7841.85
7836.66
7831.09
7823.29
7815.29
7807.24
7801.94
7864.39
7863.65
7862.38
7860.62
7858.46
7855.77
7852.86
7849.65
7845.93
7841.76
7836.57
7831.02
7823.23
7815.25
7807.22
7801.94
7864.26
7863.54
7862.26
7860.5
7858.35
7855.67
7852.76
7849.56
7845.85
7841.67
7836.5
7830.96
7823.18
7815.21
7807.21
7801.95
7864.15
7863.44
7862.17
7860.41
7858.26
7855.58
7852.68
7849.48
7845.77
7841.6
7836.44
7830.91
7823.13
7815.18
7807.19
7801.94
7864.05
7863.35
7862.08
7860.32
7858.18
7855.49
7852.6
7849.4
7845.7
7841.54
7836.39
7830.86
7823.09
7815.15
7807.18
7801.94
7863.96
7863.28
7862.01
7860.25
7858.11
7855.42
7852.53
7849.34
7845.64
7841.48
7836.34
7830.82
7823.05
7815.12
7807.16
7801.93
7863.89
7863.21
7861.94
7860.19
7858.04
7855.36
7852.47
7849.28
7845.59
7841.43
7836.29
7830.78
7823.02
7815.09
7807.14
7801.91
7863.82
7863.16
7861.88
7860.13
7857.98
7855.3
7852.42
7849.23
7845.54
7841.38
7836.25
7830.74
7822.98
7815.06
7807.11
7801.89
7863.77
7863.1
7861.83
7860.08
7857.93
7855.25
7852.37
7849.19
7845.5
7841.34
7836.2
7830.7
7822.94
7815.02
7807.08
7801.87
7863.71
7863.06
7861.79
7860.03
7857.89
7855.21
7852.33
7849.14
7845.45
7841.29
7836.16
7830.65
7822.9
7814.98
7807.05
7801.84
7863.67
7863.02
7861.74
7859.99
7857.85
7855.16
7852.28
7849.1
7845.41
7841.25
7836.12
7830.61
7822.85
7814.94
7807.02
7801.81
7863.63
7862.98
7861.71
7859.95
7857.81
7855.12
7852.24
7849.06
7845.37
7841.21
7836.08
7830.57
7822.81
7814.9
7806.98
7801.77
7863.59
7862.95
7861.67
7859.92
7857.77
7855.08
7852.2
7849.02
7845.33
7841.16
7836.04
7830.53
7822.76
7814.85
7806.94
7801.73
7863.56
7862.92
7861.64
7859.88
7857.73
7855.04
7852.17
7848.98
7845.28
7841.12
7835.99
7830.48
7822.71
7814.8
7806.9
7801.69
7863.53
7862.89
7861.61
7859.85
7857.7
7855
7852.13
7848.94
7845.24
7841.07
7835.95
7830.43
7822.66
7814.75
7806.85
7801.64
7863.5
7862.86
7861.58
7859.82
7857.67
7854.97
7852.09
7848.9
7845.2
7841.02
7835.9
7830.38
7822.61
7814.7
7806.8
7801.59
7863.47
7862.83
7861.55
7859.79
7857.64
7854.94
7852.06
7848.87
7845.16
7840.98
7835.85
7830.33
7822.55
7814.64
7806.75
7801.53
7863.45
7862.82
7861.53
7859.77
7857.61
7854.91
7852.03
7848.83
7845.12
7840.93
7835.8
7830.28
7822.49
7814.58
7806.69
7801.47
7863.43
7862.8
7861.52
7859.75
7857.59
7854.88
7852
7848.79
7845.08
7840.88
7835.76
7830.22
7822.43
7814.51
7806.63
7801.41
7863.41
7862.79
7861.5
7859.73
7857.57
7854.85
7851.97
7848.76
7845.05
7840.84
7835.71
7830.16
7822.37
7814.44
7806.56
7801.34
7863.4
7862.79
7861.5
7859.72
7857.56
7854.84
7851.95
7848.73
7845.01
7840.79
7835.66
7830.11
7822.3
7814.37
7806.49
7801.26
7863.4
7862.79
7861.5
7859.72
7857.55
7854.82
7851.93
7848.71
7844.98
7840.75
7835.61
7830.05
7822.24
7814.29
7806.42
7801.18
7863.41
7862.81
7861.51
7859.73
7857.55
7854.82
7851.92
7848.69
7844.96
7840.71
7835.56
7829.99
7822.17
7814.22
7806.34
7801.08
7863.42
7862.84
7861.54
7859.75
7857.57
7854.82
7851.92
7848.68
7844.94
7840.68
7835.52
7829.93
7822.1
7814.13
7806.25
7800.99
7863.45
7862.88
7861.58
7859.79
7857.6
7854.84
7851.93
7848.68
7844.93
7840.65
7835.49
7829.88
7822.03
7814.05
7806.16
7800.88
7863.5
7862.94
7861.64
7859.84
7857.64
7854.88
7851.96
7848.7
7844.93
7840.63
7835.46
7829.83
7821.97
7813.96
7806.06
7800.76
7863.56
7863.03
7861.72
7859.92
7857.71
7854.94
7852.01
7848.73
7844.95
7840.63
7835.44
7829.78
7821.9
7813.87
7805.96
7800.63
7863.65
7863.15
7861.83
7860.02
7857.81
7855.02
7852.08
7848.78
7844.98
7840.64
7835.43
7829.75
7821.85
7813.78
7805.86
7800.5
7863.77
7863.29
7861.97
7860.15
7857.93
7855.13
7852.18
7848.86
7845.05
7840.68
7835.45
7829.73
7821.8
7813.7
7805.76
7800.36
7863.91
7863.47
7862.15
7860.32
7858.09
7855.28
7852.32
7848.98
7845.14
7840.74
7835.49
7829.73
7821.77
7813.62
7805.66
7800.21
7864.1
7863.7
7862.38
7860.54
7858.3
7855.47
7852.5
7849.13
7845.27
7840.84
7835.57
7829.76
7821.76
7813.56
7805.56
7800.05
7864.33
7863.98
7862.65
7860.8
7858.56
7855.71
7852.73
7849.34
7845.46
7840.99
7835.69
7829.82
7821.79
7813.52
7805.48
7799.89
7864.61
7864.31
7862.99
7861.13
7858.87
7856.02
7853.01
7849.6
7845.7
7841.19
7835.86
7829.94
7821.85
7813.51
7805.42
7799.74
7864.94
7864.7
7863.38
7861.51
7859.26
7856.39
7853.37
7849.93
7846.01
7841.46
7836.1
7830.11
7821.97
7813.54
7805.39
7799.61
7865.33
7865.16
7863.84
7861.97
7859.71
7856.83
7853.81
7850.35
7846.41
7841.83
7836.42
7830.37
7822.17
7813.63
7805.41
7799.49
7865.79
7865.68
7864.37
7862.49
7860.24
7857.36
7854.34
7850.87
7846.91
7842.3
7836.86
7830.74
7822.47
7813.81
7805.5
7799.41
7866.31
7866.26
7864.97
7863.1
7860.85
7857.98
7854.97
7851.5
7847.53
7842.9
7837.43
7831.24
7822.91
7814.12
7805.69
7799.39
7866.9
7866.91
7865.63
7863.77
7861.55
7858.7
7855.7
7852.25
7848.29
7843.66
7838.17
7831.92
7823.53
7814.59
7806.03
7799.47
7867.54
7867.59
7866.34
7864.5
7862.32
7859.5
7856.55
7853.14
7849.2
7844.6
7839.12
7832.83
7824.39
7815.3
7806.58
7799.67
7868.22
7868.3
7867.09
7865.28
7863.14
7860.39
7857.5
7854.16
7850.28
7845.75
7840.31
7834.04
7825.58
7816.34
7807.44
7800.06
7868.92
7869.01
7867.84
7866.07
7864.01
7861.34
7858.53
7855.32
7851.54
7847.13
7841.79
7835.61
7827.2
7817.9
7808.89
7800.96
7869.61
7869.65
7868.54
7866.84
7864.86
7862.32
7859.64
7856.59
7852.95
7848.76
7843.59
7837.62
7829.41
7820.25
7811.42
7803.35
7870.25
7870.19
7869.14
7867.52
7865.66
7863.26
7860.75
7857.92
7854.49
7850.6
7845.69
7840.09
7832.25
7823.55
7815.39
7808.12
7870.76
7870.54
7869.56
7868.04
7866.32
7864.11
7861.79
7859.23
7856.08
7852.56
7847.99
7842.87
7835.47
7827.35
7819.89
7813.31
7871.09
7870.6
7869.72
7868.31
7866.76
7864.75
7862.68
7860.44
7857.61
7854.54
7850.38
7845.86
7838.98
7831.55
7824.78
7818.69
7871.13
7870.28
7869.5
7868.22
7866.85
7865.09
7863.29
7861.42
7858.96
7856.42
7852.74
7848.92
7842.6
7836.04
7829.88
7824.19
7870.78
7869.45
7868.78
7867.64
7866.47
7864.97
7863.48
7862.02
7859.98
7858.04
7854.9
7851.93
7846.26
7840.87
7835.16
7829.85
7869.91
7867.97
7867.42
7866.43
7865.48
7864.26
7863.11
7862.06
7860.49
7859.21
7856.72
7854.7
7849.89
7845.93
7840.68
7835.9
7868.4
7865.7
7865.27
7864.44
7863.73
7862.81
7862
7861.4
7860.31
7859.69
7857.83
7856.75
7853.15
7850.96
7846.36
7842.61
7866.1
7862.52
7862.22
7861.56
7861.08
7860.42
7859.89
7859.62
7858.98
7859.08
7858.06
7858.19
7855.83
7855.4
7851.78
7850.09
7862.88
7858.17
7857.97
7857.42
7857.16
7856.83
7856.76
7856.98
7856.99
7857.9
7857.82
7859.15
7857.93
7859.24
7856.93
7858.01
7858.51
7852.54
7852.56
7852.31
7852.49
7852.74
7853.36
7854.33
7855.15
7856.83
7857.58
7860.01
7859.98
7862.93
7861.87
7865.83
7852.83
7846.72
7847.15
7847.43
7848.23
7849.14
7850.44
7852.15
7853.76
7856.2
7857.73
7861.01
7861.94
7866.25
7866.3
7872.69
7846.84
7841.88
7842.68
7843.48
7844.86
7846.4
7848.28
7850.54
7852.77
7855.77
7857.98
7861.92
7863.67
7869.03
7870.07
7878.4
7841.81
7838.42
7839.43
7840.59
7842.34
7844.31
7846.64
7849.33
7852.05
7855.48
7858.26
7862.67
7865.12
7871.21
7873.12
7882.84
7838.18
7836.19
7837.3
7838.68
7840.65
7842.89
7845.54
7848.51
7851.61
7855.32
7858.57
7863.26
7866.29
7872.79
7875.41
7885.98
7835.82
7835.07
7836.21
7837.7
7839.78
7842.17
7845
7848.13
7851.49
7855.33
7858.92
7863.72
7867.18
7873.79
7876.97
7887.83
7834.62
7834.93
7836.06
7837.6
7839.71
7842.14
7845.06
7848.23
7851.72
7855.56
7859.35
7864.07
7867.83
7874.26
7877.8
7888.41
7834.43
7835.68
7836.77
7838.31
7840.4
7842.8
7845.7
7848.8
7852.31
7856.02
7859.88
7864.36
7868.25
7874.23
7877.92
7887.76
7835.16
7837.26
7838.3
7839.78
7841.79
7844.08
7846.89
7849.83
7853.25
7856.73
7860.52
7864.59
7868.45
7873.72
7877.36
7885.94
7836.77
7839.66
7840.61
7841.96
7843.83
7845.94
7848.57
7851.27
7854.51
7857.65
7861.25
7864.8
7868.45
7872.79
7876.13
7883.01
7839.21
7842.83
7843.66
7844.82
7846.47
7848.32
7850.69
7853.08
7856.04
7858.77
7862.07
7864.98
7868.27
7871.46
7874.3
7879.14
7842.47
7846.73
7847.39
7848.31
7849.68
7851.19
7853.24
7855.24
7857.84
7860.08
7862.97
7865.15
7867.91
7869.78
7871.91
7874.47
7846.46
7851.22
7851.71
7852.38
7853.43
7854.57
7856.22
7857.77
7859.92
7861.6
7863.98
7865.33
7867.38
7867.79
7869.02
7869.23
7851.03
7856.1
7856.46
7856.91
7857.68
7858.46
7859.69
7860.76
7862.39
7863.44
7865.17
7865.59
7866.73
7865.56
7865.72
7863.68
7855.97
7861.15
7861.45
7861.76
7862.33
7862.83
7863.69
7864.29
7865.37
7865.73
7866.71
7866.06
7866.07
7863.18
7862.15
7858.08
7861.04
7866.13
7866.44
7866.7
7867.18
7867.5
7868.09
7868.31
7868.89
7868.59
7868.74
7866.91
7865.55
7860.86
7858.55
7852.73
7866.02
7870.85
7871.17
7871.43
7871.88
7872.14
7872.59
7872.59
7872.81
7872.02
7871.42
7868.36
7865.46
7858.96
7855.32
7848.01
7870.74
7875.46
7875.79
7876.08
7876.57
7876.88
7877.34
7877.29
7877.31
7876.14
7874.59
7870.33
7865.99
7857.87
7852.99
7844.39
7875.35
7880.29
7880.47
7880.56
7880.77
7880.72
7880.7
7880.05
7879.2
7877.04
7874.44
7869.65
7864.77
7856.75
7851.5
7842.2
7880.22
7881.76
7881.59
7881.2
7880.71
7879.87
7878.86
7877.21
7875.32
7872.34
7869.41
7865.03
7860.92
7854.44
7850.06
7841.32
7881.83
7877.81
7877.48
7876.9
7876.12
7874.97
7873.61
7871.7
7869.62
7866.77
7864.09
7860.17
7856.81
7851.64
7848.15
7841.34
7877.93
7872.79
7872.46
7871.9
7871.15
7870.08
7868.81
7867.07
7865.17
7862.59
7860.03
7856.55
7853.38
7849.01
7845.68
7840.85
7872.92
7868.76
7868.39
7867.8
7867
7865.91
7864.62
7862.94
7861.11
7858.75
7856.4
7853.33
7850.5
7846.8
7843.58
7839.71
7868.89
7864.84
7864.47
7863.91
7863.13
7862.11
7860.9
7859.36
7857.67
7855.54
7853.4
7850.69
7848.14
7844.93
7842.09
7838.52
7864.97
7861.4
7861.03
7860.49
7859.74
7858.78
7857.64
7856.22
7854.67
7852.76
7850.82
7848.45
7846.19
7843.43
7840.94
7837.92
7861.53
7858.27
7857.91
7857.41
7856.71
7855.83
7854.77
7853.49
7852.08
7850.38
7848.65
7846.57
7844.58
7842.2
7840.05
7837.44
7858.39
7855.49
7855.14
7854.69
7854.03
7853.23
7852.27
7851.11
7849.84
7848.34
7846.8
7844.99
7843.25
7841.21
7839.36
7837.15
7855.6
7853
7852.68
7852.27
7851.67
7850.94
7850.07
7849.04
7847.91
7846.58
7845.23
7843.66
7842.15
7840.4
7838.81
7836.93
7853.1
7850.8
7850.5
7850.13
7849.58
7848.94
7848.15
7847.24
7846.23
7845.07
7843.89
7842.53
7841.22
7839.73
7838.38
7836.79
7850.89
7848.85
7848.57
7848.24
7847.75
7847.18
7846.48
7845.67
7844.78
7843.77
7842.74
7841.57
7840.44
7839.17
7838.02
7836.68
7848.92
7847.12
7846.87
7846.58
7846.14
7845.63
7845.01
7844.3
7843.53
7842.65
7841.75
7840.74
7839.78
7838.7
7837.73
7836.59
7847.19
7845.59
7845.36
7845.11
7844.72
7844.27
7843.73
7843.11
7842.43
7841.67
7840.9
7840.03
7839.21
7838.29
7837.47
7836.51
7845.65
7844.24
7844.04
7843.82
7843.47
7843.08
7842.6
7842.07
7841.48
7840.82
7840.15
7839.42
7838.71
7837.94
7837.24
7836.43
7844.3
7843.05
7842.87
7842.68
7842.37
7842.04
7841.62
7841.15
7840.64
7840.08
7839.5
7838.87
7838.28
7837.62
7837.03
7836.35
7843.1
7842
7841.84
7841.67
7841.4
7841.11
7840.75
7840.35
7839.9
7839.42
7838.93
7838.39
7837.89
7837.33
7836.84
7836.26
7842.04
7841.07
7840.93
7840.78
7840.55
7840.29
7839.98
7839.63
7839.25
7838.84
7838.42
7837.96
7837.53
7837.07
7836.65
7836.16
7841.1
7840.24
7840.12
7839.99
7839.79
7839.57
7839.3
7839
7838.67
7838.32
7837.96
7837.57
7837.21
7836.82
7836.46
7836.04
7840.27
7839.51
7839.4
7839.29
7839.11
7838.92
7838.69
7838.43
7838.15
7837.85
7837.55
7837.22
7836.91
7836.58
7836.28
7835.92
7839.53
7838.85
7838.75
7838.66
7838.51
7838.35
7838.14
7837.93
7837.69
7837.43
7837.17
7836.89
7836.63
7836.35
7836.1
7835.79
7838.87
7838.26
7838.18
7838.1
7837.97
7837.83
7837.65
7837.47
7837.26
7837.04
7836.82
7836.58
7836.36
7836.13
7835.91
7835.64
7838.28
7837.74
7837.66
7837.59
7837.48
7837.36
7837.21
7837.05
7836.87
7836.69
7836.5
7836.3
7836.11
7835.91
7835.72
7835.49
7837.75
7837.26
7837.2
7837.14
7837.04
7836.94
7836.81
7836.67
7836.52
7836.36
7836.2
7836.03
7835.87
7835.69
7835.53
7835.32
7837.27
7836.83
7836.77
7836.72
7836.64
7836.55
7836.44
7836.32
7836.19
7836.05
7835.92
7835.77
7835.63
7835.48
7835.34
7835.16
7836.84
7836.44
7836.39
7836.35
7836.27
7836.2
7836.1
7836
7835.89
7835.77
7835.65
7835.52
7835.41
7835.28
7835.15
7834.98
7836.45
7836.08
7836.04
7836
7835.93
7835.87
7835.79
7835.7
7835.6
7835.5
7835.4
7835.29
7835.19
7835.08
7834.96
7834.81
7836.09
7835.75
7835.71
7835.68
7835.62
7835.57
7835.5
7835.42
7835.34
7835.25
7835.16
7835.06
7834.97
7834.88
7834.78
7834.63
7835.76
7835.45
7835.42
7835.39
7835.34
7835.29
7835.22
7835.16
7835.08
7835.01
7834.93
7834.85
7834.77
7834.68
7834.59
7834.45
7835.46
7835.17
7835.14
7835.12
7835.07
7835.03
7834.97
7834.91
7834.85
7834.78
7834.71
7834.64
7834.57
7834.49
7834.4
7834.28
7835.18
7834.91
7834.88
7834.86
7834.82
7834.78
7834.73
7834.68
7834.62
7834.56
7834.5
7834.43
7834.37
7834.3
7834.22
7834.1
7834.92
7834.67
7834.65
7834.63
7834.59
7834.56
7834.51
7834.46
7834.41
7834.36
7834.3
7834.24
7834.18
7834.11
7834.04
7833.92
7834.68
7834.45
7834.43
7834.41
7834.38
7834.34
7834.3
7834.26
7834.21
7834.16
7834.11
7834.05
7834
7833.93
7833.86
7833.75
7834.45
7834.24
7834.22
7834.2
7834.17
7834.14
7834.11
7834.07
7834.02
7833.97
7833.92
7833.87
7833.82
7833.76
7833.69
7833.57
7834.24
7834.04
7834.03
7834.01
7833.98
7833.96
7833.92
7833.88
7833.84
7833.79
7833.75
7833.7
7833.64
7833.59
7833.51
7833.4
7834.05
7833.86
7833.85
7833.83
7833.81
7833.78
7833.75
7833.71
7833.67
7833.63
7833.58
7833.53
7833.48
7833.42
7833.35
7833.23
7833.87
7833.7
7833.68
7833.67
7833.64
7833.62
7833.58
7833.55
7833.51
7833.47
7833.42
7833.37
7833.32
7833.26
7833.18
7833.07
7833.7
7833.54
7833.53
7833.51
7833.49
7833.46
7833.43
7833.4
7833.36
7833.31
7833.27
7833.22
7833.16
7833.1
7833.03
7832.91
7833.55
7833.4
7833.39
7833.37
7833.35
7833.32
7833.29
7833.26
7833.22
7833.17
7833.13
7833.07
7833.02
7832.95
7832.87
7832.75
7833.4
7833.27
7833.26
7833.24
7833.22
7833.19
7833.16
7833.13
7833.09
7833.04
7832.99
7832.94
7832.88
7832.81
7832.73
7832.6
7833.27
7833.15
7833.14
7833.12
7833.1
7833.08
7833.05
7833.01
7832.97
7832.92
7832.87
7832.82
7832.75
7832.68
7832.59
7832.46
7833.15
7833.04
7833.03
7833.01
7832.99
7832.97
7832.94
7832.9
7832.86
7832.82
7832.76
7832.7
7832.64
7832.56
7832.46
7832.32
7833.04
7832.94
7832.93
7832.92
7832.9
7832.87
7832.84
7832.81
7832.77
7832.72
7832.67
7832.6
7832.53
7832.45
7832.34
7832.19
7832.95
7832.86
7832.85
7832.83
7832.81
7832.79
7832.76
7832.73
7832.69
7832.64
7832.58
7832.52
7832.45
7832.36
7832.24
7832.07
7832.86
7832.78
7832.77
7832.76
7832.74
7832.72
7832.69
7832.66
7832.62
7832.57
7832.52
7832.45
7832.37
7832.28
7832.15
7831.96
7832.79
7832.72
7832.71
7832.7
7832.68
7832.66
7832.63
7832.6
7832.56
7832.52
7832.47
7832.4
7832.33
7832.23
7832.09
7831.88
7832.72
7832.66
7832.66
7832.64
7832.63
7832.61
7832.58
7832.56
7832.52
7832.48
7832.43
7832.37
7832.3
7832.21
7832.07
7831.85
7832.67
7832.61
7832.6
7832.59
7832.58
7832.56
7832.54
7832.52
7832.49
7832.45
7832.41
7832.36
7832.31
7832.24
7832.13
7831.97
7832.61
7832.59
7832.58
7832.57
7832.56
7832.55
7832.53
7832.51
7832.48
7832.45
7832.41
7832.37
7832.33
7832.27
7832.21
7832.09
7832.59
7832.59
7832.58
7832.57
7832.56
7832.55
7832.53
7832.51
7832.48
7832.45
7832.41
7832.37
7832.33
7832.27
7832.21
7832.09
7832.59
)
;

boundaryField
{
    wireUpstream
    {
        type            calculated;
        value           nonuniform List<scalar> 
16
(
7832.56
7832.56
7832.55
7832.54
7832.52
7832.51
7832.49
7832.47
7832.44
7832.41
7832.37
7832.34
7832.3
7832.27
7832.25
7832.56
)
;
    }
    wireDownstream
    {
        type            calculated;
        value           nonuniform List<scalar> 
16
(
7864.31
7863.03
7861.27
7859.11
7856.41
7853.47
7850.24
7846.49
7842.28
7837.04
7831.43
7823.57
7815.49
7807.32
7801.88
7864.93
)
;
    }
    wireTopContact
    {
        type            calculated;
        value           nonuniform List<scalar> 
122
(
7801.36
7801.35
7801.37
7801.37
7801.38
7801.38
7801.37
7801.36
7801.35
7801.33
7801.31
7801.28
7801.25
7801.21
7801.17
7801.13
7801.08
7801.03
7800.98
7800.92
7800.85
7800.78
7800.7
7800.62
7800.53
7800.43
7800.32
7800.21
7800.09
7799.95
7799.81
7799.67
7799.52
7799.37
7799.23
7799.1
7799
7798.94
7798.95
7799.06
7799.32
7799.79
7800.71
7803.06
7808.05
7813.35
7818.89
7824.58
7830.32
7836.27
7842.68
7849.71
7857.25
7864.83
7871.45
7877
7881.4
7884.56
7886.48
7887.17
7886.64
7884.98
7882.22
7878.54
7874.08
7869.08
7863.79
7858.48
7853.47
7849.1
7845.72
7843.6
7842.57
7841.91
7840.65
7839.62
7838.51
7837.89
7837.4
7837.1
7836.88
7836.73
7836.62
7836.53
7836.45
7836.38
7836.29
7836.21
7836.11
7836
7835.88
7835.75
7835.61
7835.45
7835.3
7835.13
7834.96
7834.79
7834.61
7834.44
7834.26
7834.08
7833.91
7833.73
7833.56
7833.39
7833.22
7833.06
7832.9
7832.75
7832.6
7832.45
7832.31
7832.18
7832.07
7831.96
7831.88
7831.85
7831.95
7832.04
7832.04
7801.32
)
;
    }
    front
    {
        type            wedge;
    }
    back
    {
        type            wedge;
    }
}


// ************************************************************************* //
