/*--------------------------------*- C++ -*----------------------------------*\
| =========                 |                                                 |
| \\      /  F ield         | foam-extend: Open Source CFD                    |
|  \\    /   O peration     | Version:     4.1-20200408                       |
|   \\  /    A nd           | Web:         http://www.foam-extend.org         |
|    \\/     M anipulation  |                                                 |
\*---------------------------------------------------------------------------*/
FoamFile
{
    version     2.0;
    format      ascii;
    class       volVectorField;
    location    "0.0690000";
    object      U_0;
}
// * * * * * * * * * * * * * * * * * * * * * * * * * * * * * * * * * * * * * //

dimensions      [0 1 0 0 0 0 0];

internalField   nonuniform List<vector> 
1952
(
(0.0671803 -2.5281e-06 0)
(0.06718 -4.11227e-06 0)
(0.0671796 -5.71567e-06 0)
(0.067179 -7.31583e-06 0)
(0.0671783 -8.91729e-06 0)
(0.0671776 -1.0504e-05 0)
(0.0671767 -1.20915e-05 0)
(0.0671759 -1.36573e-05 0)
(0.067175 -1.52224e-05 0)
(0.0671741 -1.67586e-05 0)
(0.0671732 -1.82873e-05 0)
(0.0671725 -1.97809e-05 0)
(0.067172 -2.12491e-05 0)
(0.0671717 -2.26743e-05 0)
(0.0671716 -2.40665e-05 0)
(0.0671804 -1.08325e-06 0)
(0.067177 -2.52962e-06 0)
(0.0671767 -4.11477e-06 0)
(0.0671763 -5.71911e-06 0)
(0.0671757 -7.3203e-06 0)
(0.0671751 -8.9227e-06 0)
(0.0671743 -1.05105e-05 0)
(0.0671735 -1.2099e-05 0)
(0.0671726 -1.3666e-05 0)
(0.0671717 -1.52321e-05 0)
(0.0671708 -1.67695e-05 0)
(0.06717 -1.82994e-05 0)
(0.0671693 -1.97943e-05 0)
(0.0671687 -2.12639e-05 0)
(0.0671684 -2.26906e-05 0)
(0.0671684 -2.40841e-05 0)
(0.0671771 -1.0839e-06 0)
(0.0671738 -2.53131e-06 0)
(0.0671735 -4.11753e-06 0)
(0.0671731 -5.72296e-06 0)
(0.0671725 -7.32527e-06 0)
(0.0671718 -8.92878e-06 0)
(0.0671711 -1.05177e-05 0)
(0.0671702 -1.21074e-05 0)
(0.0671693 -1.36757e-05 0)
(0.0671684 -1.5243e-05 0)
(0.0671676 -1.67817e-05 0)
(0.0671667 -1.8313e-05 0)
(0.067166 -1.98094e-05 0)
(0.0671655 -2.12803e-05 0)
(0.0671652 -2.27085e-05 0)
(0.0671651 -2.41033e-05 0)
(0.0671739 -1.08463e-06 0)
(0.0671705 -2.53317e-06 0)
(0.0671702 -4.12057e-06 0)
(0.0671698 -5.72719e-06 0)
(0.0671692 -7.33071e-06 0)
(0.0671686 -8.93547e-06 0)
(0.0671678 -1.05257e-05 0)
(0.067167 -1.21167e-05 0)
(0.0671661 -1.36863e-05 0)
(0.0671652 -1.5255e-05 0)
(0.0671643 -1.67951e-05 0)
(0.0671635 -1.83278e-05 0)
(0.0671628 -1.98256e-05 0)
(0.0671622 -2.12979e-05 0)
(0.0671619 -2.27276e-05 0)
(0.0671618 -2.41236e-05 0)
(0.0671706 -1.08543e-06 0)
(0.0671673 -2.53519e-06 0)
(0.067167 -4.12386e-06 0)
(0.0671665 -5.73178e-06 0)
(0.067166 -7.33663e-06 0)
(0.0671653 -8.9427e-06 0)
(0.0671645 -1.05343e-05 0)
(0.0671637 -1.21267e-05 0)
(0.0671628 -1.36976e-05 0)
(0.0671619 -1.52677e-05 0)
(0.067161 -1.68093e-05 0)
(0.0671602 -1.83434e-05 0)
(0.0671595 -1.98427e-05 0)
(0.0671589 -2.13164e-05 0)
(0.0671586 -2.27475e-05 0)
(0.0671586 -2.41448e-05 0)
(0.0671674 -1.08629e-06 0)
(0.067164 -2.53732e-06 0)
(0.0671637 -4.12733e-06 0)
(0.0671633 -5.73662e-06 0)
(0.0671627 -7.34283e-06 0)
(0.0671621 -8.9503e-06 0)
(0.0671613 -1.05433e-05 0)
(0.0671605 -1.21371e-05 0)
(0.0671596 -1.37095e-05 0)
(0.0671587 -1.52811e-05 0)
(0.0671578 -1.68241e-05 0)
(0.0671569 -1.83597e-05 0)
(0.0671562 -1.98604e-05 0)
(0.0671557 -2.13355e-05 0)
(0.0671554 -2.2768e-05 0)
(0.0671553 -2.41667e-05 0)
(0.0671641 -1.0872e-06 0)
(0.0671608 -2.53955e-06 0)
(0.0671604 -4.13096e-06 0)
(0.06716 -5.74168e-06 0)
(0.0671594 -7.34932e-06 0)
(0.0671588 -8.95824e-06 0)
(0.067158 -1.05527e-05 0)
(0.0671572 -1.2148e-05 0)
(0.0671563 -1.37219e-05 0)
(0.0671554 -1.52949e-05 0)
(0.0671545 -1.68394e-05 0)
(0.0671537 -1.83764e-05 0)
(0.0671529 -1.98786e-05 0)
(0.0671524 -2.13551e-05 0)
(0.0671521 -2.2789e-05 0)
(0.067152 -2.4189e-05 0)
(0.0671609 -1.08816e-06 0)
(0.0671575 -2.54186e-06 0)
(0.0671572 -4.13471e-06 0)
(0.0671568 -5.74691e-06 0)
(0.0671562 -7.35602e-06 0)
(0.0671555 -8.96642e-06 0)
(0.0671547 -1.05624e-05 0)
(0.0671539 -1.21591e-05 0)
(0.067153 -1.37345e-05 0)
(0.0671521 -1.5309e-05 0)
(0.0671512 -1.6855e-05 0)
(0.0671504 -1.83935e-05 0)
(0.0671497 -1.98971e-05 0)
(0.0671491 -2.1375e-05 0)
(0.0671488 -2.28103e-05 0)
(0.0671487 -2.42116e-05 0)
(0.0671576 -1.08915e-06 0)
(0.0671542 -2.54421e-06 0)
(0.0671539 -4.13854e-06 0)
(0.0671535 -5.75224e-06 0)
(0.0671529 -7.36284e-06 0)
(0.0671522 -8.97475e-06 0)
(0.0671515 -1.05722e-05 0)
(0.0671506 -1.21705e-05 0)
(0.0671497 -1.37474e-05 0)
(0.0671488 -1.53234e-05 0)
(0.0671479 -1.68708e-05 0)
(0.0671471 -1.84108e-05 0)
(0.0671464 -1.99159e-05 0)
(0.0671458 -2.13952e-05 0)
(0.0671455 -2.28318e-05 0)
(0.0671455 -2.42345e-05 0)
(0.0671543 -1.09016e-06 0)
(0.0671509 -2.5466e-06 0)
(0.0671506 -4.14243e-06 0)
(0.0671502 -5.75765e-06 0)
(0.0671496 -7.36976e-06 0)
(0.067149 -8.98319e-06 0)
(0.0671482 -1.05822e-05 0)
(0.0671474 -1.21819e-05 0)
(0.0671465 -1.37604e-05 0)
(0.0671456 -1.53378e-05 0)
(0.0671447 -1.68867e-05 0)
(0.0671438 -1.84282e-05 0)
(0.0671431 -1.99347e-05 0)
(0.0671426 -2.14154e-05 0)
(0.0671422 -2.28535e-05 0)
(0.0671422 -2.42574e-05 0)
(0.067151 -1.09118e-06 0)
(0.0671477 -2.54901e-06 0)
(0.0671473 -4.14634e-06 0)
(0.0671469 -5.76308e-06 0)
(0.0671463 -7.37672e-06 0)
(0.0671457 -8.99166e-06 0)
(0.0671449 -1.05922e-05 0)
(0.0671441 -1.21935e-05 0)
(0.0671432 -1.37734e-05 0)
(0.0671423 -1.53523e-05 0)
(0.0671414 -1.69027e-05 0)
(0.0671405 -1.84457e-05 0)
(0.0671398 -1.99536e-05 0)
(0.0671393 -2.14357e-05 0)
(0.067139 -2.28751e-05 0)
(0.0671389 -2.42804e-05 0)
(0.0671478 -1.09221e-06 0)
(0.0671444 -2.55141e-06 0)
(0.0671441 -4.15026e-06 0)
(0.0671436 -5.76853e-06 0)
(0.0671431 -7.38369e-06 0)
(0.0671424 -9.00016e-06 0)
(0.0671416 -1.06022e-05 0)
(0.0671408 -1.2205e-05 0)
(0.0671399 -1.37865e-05 0)
(0.067139 -1.53669e-05 0)
(0.0671381 -1.69188e-05 0)
(0.0671372 -1.84631e-05 0)
(0.0671365 -1.99725e-05 0)
(0.067136 -2.1456e-05 0)
(0.0671357 -2.28968e-05 0)
(0.0671356 -2.43034e-05 0)
(0.0671445 -1.09324e-06 0)
(0.0671411 -2.55383e-06 0)
(0.0671408 -4.15418e-06 0)
(0.0671404 -5.77398e-06 0)
(0.0671398 -7.39068e-06 0)
(0.0671391 -9.00866e-06 0)
(0.0671383 -1.06123e-05 0)
(0.0671375 -1.22165e-05 0)
(0.0671366 -1.37995e-05 0)
(0.0671357 -1.53814e-05 0)
(0.0671348 -1.69347e-05 0)
(0.067134 -1.84805e-05 0)
(0.0671332 -1.99913e-05 0)
(0.0671327 -2.14761e-05 0)
(0.0671324 -2.29183e-05 0)
(0.0671323 -2.43264e-05 0)
(0.0671412 -1.09428e-06 0)
(0.0671378 -2.55621e-06 0)
(0.0671375 -4.15806e-06 0)
(0.0671371 -5.77937e-06 0)
(0.0671365 -7.39756e-06 0)
(0.0671358 -9.01704e-06 0)
(0.067135 -1.06222e-05 0)
(0.0671342 -1.22279e-05 0)
(0.0671333 -1.38124e-05 0)
(0.0671324 -1.53957e-05 0)
(0.0671315 -1.69505e-05 0)
(0.0671307 -1.84977e-05 0)
(0.0671299 -2.001e-05 0)
(0.0671294 -2.14962e-05 0)
(0.0671291 -2.29398e-05 0)
(0.067129 -2.43493e-05 0)
(0.0671379 -1.0953e-06 0)
(0.0671345 -2.55858e-06 0)
(0.0671342 -4.16191e-06 0)
(0.0671338 -5.78472e-06 0)
(0.0671332 -7.40441e-06 0)
(0.0671325 -9.02538e-06 0)
(0.0671317 -1.0632e-05 0)
(0.0671309 -1.22392e-05 0)
(0.06713 -1.38252e-05 0)
(0.0671291 -1.54099e-05 0)
(0.0671282 -1.69662e-05 0)
(0.0671274 -1.85149e-05 0)
(0.0671266 -2.00285e-05 0)
(0.0671261 -2.15162e-05 0)
(0.0671258 -2.29612e-05 0)
(0.0671257 -2.43721e-05 0)
(0.0671346 -1.09631e-06 0)
(0.0671312 -2.56091e-06 0)
(0.0671309 -4.1657e-06 0)
(0.0671305 -5.78999e-06 0)
(0.0671299 -7.41116e-06 0)
(0.0671292 -9.03359e-06 0)
(0.0671285 -1.06417e-05 0)
(0.0671276 -1.22504e-05 0)
(0.0671267 -1.38378e-05 0)
(0.0671258 -1.5424e-05 0)
(0.0671249 -1.69817e-05 0)
(0.0671241 -1.85318e-05 0)
(0.0671233 -2.0047e-05 0)
(0.0671228 -2.1536e-05 0)
(0.0671225 -2.29825e-05 0)
(0.0671224 -2.43948e-05 0)
(0.0671313 -1.09731e-06 0)
(0.0671279 -2.56321e-06 0)
(0.0671276 -4.16944e-06 0)
(0.0671272 -5.79519e-06 0)
(0.0671266 -7.41781e-06 0)
(0.0671259 -9.0417e-06 0)
(0.0671252 -1.06513e-05 0)
(0.0671243 -1.22614e-05 0)
(0.0671234 -1.38504e-05 0)
(0.0671225 -1.5438e-05 0)
(0.0671216 -1.69971e-05 0)
(0.0671208 -1.85487e-05 0)
(0.06712 -2.00653e-05 0)
(0.0671195 -2.15558e-05 0)
(0.0671192 -2.30037e-05 0)
(0.0671191 -2.44174e-05 0)
(0.067128 -1.0983e-06 0)
(0.0671246 -2.56548e-06 0)
(0.0671243 -4.17313e-06 0)
(0.0671239 -5.80032e-06 0)
(0.0671233 -7.4244e-06 0)
(0.0671226 -9.04973e-06 0)
(0.0671218 -1.06608e-05 0)
(0.067121 -1.22723e-05 0)
(0.0671201 -1.38628e-05 0)
(0.0671192 -1.54518e-05 0)
(0.0671183 -1.70124e-05 0)
(0.0671174 -1.85655e-05 0)
(0.0671167 -2.00835e-05 0)
(0.0671162 -2.15754e-05 0)
(0.0671159 -2.30248e-05 0)
(0.0671158 -2.44399e-05 0)
(0.0671247 -1.09927e-06 0)
(0.0671213 -2.56771e-06 0)
(0.067121 -4.17677e-06 0)
(0.0671206 -5.80538e-06 0)
(0.06712 -7.43089e-06 0)
(0.0671193 -9.05763e-06 0)
(0.0671185 -1.06702e-05 0)
(0.0671177 -1.22831e-05 0)
(0.0671168 -1.3875e-05 0)
(0.0671159 -1.54655e-05 0)
(0.067115 -1.70276e-05 0)
(0.0671141 -1.85821e-05 0)
(0.0671134 -2.01015e-05 0)
(0.0671129 -2.15949e-05 0)
(0.0671125 -2.30457e-05 0)
(0.0671125 -2.44623e-05 0)
(0.0671214 -1.10023e-06 0)
(0.067118 -2.56992e-06 0)
(0.0671177 -4.18036e-06 0)
(0.0671173 -5.81037e-06 0)
(0.0671167 -7.4373e-06 0)
(0.067116 -9.06544e-06 0)
(0.0671152 -1.06794e-05 0)
(0.0671144 -1.22938e-05 0)
(0.0671135 -1.38872e-05 0)
(0.0671126 -1.5479e-05 0)
(0.0671117 -1.70426e-05 0)
(0.0671108 -1.85985e-05 0)
(0.0671101 -2.01194e-05 0)
(0.0671095 -2.16142e-05 0)
(0.0671092 -2.30665e-05 0)
(0.0671092 -2.44846e-05 0)
(0.0671181 -1.10117e-06 0)
(0.0671147 -2.57208e-06 0)
(0.0671144 -4.18388e-06 0)
(0.0671139 -5.81528e-06 0)
(0.0671134 -7.4436e-06 0)
(0.0671127 -9.0731e-06 0)
(0.0671119 -1.06886e-05 0)
(0.0671111 -1.23043e-05 0)
(0.0671102 -1.38991e-05 0)
(0.0671093 -1.54924e-05 0)
(0.0671083 -1.70574e-05 0)
(0.0671075 -1.86147e-05 0)
(0.0671068 -2.01372e-05 0)
(0.0671062 -2.16334e-05 0)
(0.0671059 -2.30873e-05 0)
(0.0671058 -2.45069e-05 0)
(0.0671148 -1.1021e-06 0)
(0.0671114 -2.57422e-06 0)
(0.0671111 -4.18736e-06 0)
(0.0671106 -5.82012e-06 0)
(0.06711 -7.44981e-06 0)
(0.0671094 -9.08067e-06 0)
(0.0671086 -1.06976e-05 0)
(0.0671078 -1.23146e-05 0)
(0.0671069 -1.3911e-05 0)
(0.0671059 -1.55056e-05 0)
(0.067105 -1.70721e-05 0)
(0.0671042 -1.86309e-05 0)
(0.0671035 -2.01548e-05 0)
(0.0671029 -2.16526e-05 0)
(0.0671026 -2.3108e-05 0)
(0.0671025 -2.45292e-05 0)
(0.0671115 -1.10302e-06 0)
(0.0671081 -2.57633e-06 0)
(0.0671077 -4.19079e-06 0)
(0.0671073 -5.82489e-06 0)
(0.0671067 -7.45593e-06 0)
(0.0671061 -9.08812e-06 0)
(0.0671053 -1.07065e-05 0)
(0.0671044 -1.23249e-05 0)
(0.0671035 -1.39227e-05 0)
(0.0671026 -1.55187e-05 0)
(0.0671017 -1.70867e-05 0)
(0.0671009 -1.8647e-05 0)
(0.0671001 -2.01725e-05 0)
(0.0670996 -2.16717e-05 0)
(0.0670993 -2.31287e-05 0)
(0.0670992 -2.45514e-05 0)
(0.0671082 -1.10392e-06 0)
(0.0671047 -2.57841e-06 0)
(0.0671044 -4.19419e-06 0)
(0.067104 -5.82962e-06 0)
(0.0671034 -7.46201e-06 0)
(0.0671027 -9.09553e-06 0)
(0.067102 -1.07153e-05 0)
(0.0671011 -1.23351e-05 0)
(0.0671002 -1.39344e-05 0)
(0.0670993 -1.55318e-05 0)
(0.0670984 -1.71013e-05 0)
(0.0670975 -1.8663e-05 0)
(0.0670968 -2.01901e-05 0)
(0.0670963 -2.16908e-05 0)
(0.0670959 -2.31494e-05 0)
(0.0670959 -2.45737e-05 0)
(0.0671048 -1.10481e-06 0)
(0.0671014 -2.5805e-06 0)
(0.0671011 -4.19759e-06 0)
(0.0671007 -5.83435e-06 0)
(0.0671001 -7.46812e-06 0)
(0.0670994 -9.10295e-06 0)
(0.0670986 -1.07242e-05 0)
(0.0670978 -1.23452e-05 0)
(0.0670969 -1.39461e-05 0)
(0.067096 -1.55448e-05 0)
(0.067095 -1.71159e-05 0)
(0.0670942 -1.8679e-05 0)
(0.0670935 -2.02077e-05 0)
(0.0670929 -2.17099e-05 0)
(0.0670926 -2.317e-05 0)
(0.0670925 -2.45959e-05 0)
(0.0671015 -1.10571e-06 0)
(0.0670981 -2.58258e-06 0)
(0.0670978 -4.201e-06 0)
(0.0670973 -5.83907e-06 0)
(0.0670968 -7.47422e-06 0)
(0.0670961 -9.11035e-06 0)
(0.0670953 -1.0733e-05 0)
(0.0670945 -1.23554e-05 0)
(0.0670935 -1.39578e-05 0)
(0.0670926 -1.55578e-05 0)
(0.0670917 -1.71305e-05 0)
(0.0670909 -1.86951e-05 0)
(0.0670901 -2.02252e-05 0)
(0.0670896 -2.1729e-05 0)
(0.0670893 -2.31907e-05 0)
(0.0670892 -2.46182e-05 0)
(0.0670982 -1.1066e-06 0)
(0.0670948 -2.58471e-06 0)
(0.0670944 -4.20446e-06 0)
(0.067094 -5.84386e-06 0)
(0.0670934 -7.4804e-06 0)
(0.0670928 -9.11784e-06 0)
(0.067092 -1.0742e-05 0)
(0.0670911 -1.23656e-05 0)
(0.0670902 -1.39695e-05 0)
(0.0670893 -1.55709e-05 0)
(0.0670884 -1.7145e-05 0)
(0.0670875 -1.87111e-05 0)
(0.0670868 -2.02428e-05 0)
(0.0670862 -2.17482e-05 0)
(0.0670859 -2.32115e-05 0)
(0.0670859 -2.46406e-05 0)
(0.0670949 -1.10751e-06 0)
(0.0670914 -2.58686e-06 0)
(0.0670911 -4.20797e-06 0)
(0.0670907 -5.8487e-06 0)
(0.0670901 -7.48666e-06 0)
(0.0670894 -9.12539e-06 0)
(0.0670886 -1.0751e-05 0)
(0.0670878 -1.23759e-05 0)
(0.0670869 -1.39813e-05 0)
(0.067086 -1.5584e-05 0)
(0.067085 -1.71598e-05 0)
(0.0670842 -1.87272e-05 0)
(0.0670835 -2.02605e-05 0)
(0.0670829 -2.17674e-05 0)
(0.0670826 -2.32323e-05 0)
(0.0670825 -2.46631e-05 0)
(0.0670915 -1.10843e-06 0)
(0.0670881 -2.58908e-06 0)
(0.0670878 -4.21159e-06 0)
(0.0670873 -5.85371e-06 0)
(0.0670868 -7.49311e-06 0)
(0.0670861 -9.13315e-06 0)
(0.0670853 -1.07603e-05 0)
(0.0670845 -1.23865e-05 0)
(0.0670835 -1.39934e-05 0)
(0.0670826 -1.55974e-05 0)
(0.0670817 -1.71747e-05 0)
(0.0670808 -1.87435e-05 0)
(0.0670801 -2.02784e-05 0)
(0.0670796 -2.17868e-05 0)
(0.0670792 -2.32534e-05 0)
(0.0670792 -2.46859e-05 0)
(0.0670882 -1.10939e-06 0)
(0.0670848 -2.59141e-06 0)
(0.0670844 -4.21538e-06 0)
(0.067084 -5.85891e-06 0)
(0.0670834 -7.49982e-06 0)
(0.0670828 -9.1412e-06 0)
(0.067082 -1.07698e-05 0)
(0.0670811 -1.23973e-05 0)
(0.0670802 -1.40058e-05 0)
(0.0670793 -1.5611e-05 0)
(0.0670784 -1.71899e-05 0)
(0.0670775 -1.87601e-05 0)
(0.0670768 -2.02966e-05 0)
(0.0670762 -2.18066e-05 0)
(0.0670759 -2.32749e-05 0)
(0.0670758 -2.47092e-05 0)
(0.0670849 -1.11039e-06 0)
(0.0670814 -2.59387e-06 0)
(0.0670811 -4.21939e-06 0)
(0.0670807 -5.86442e-06 0)
(0.0670801 -7.50689e-06 0)
(0.0670794 -9.14964e-06 0)
(0.0670786 -1.07799e-05 0)
(0.0670778 -1.24087e-05 0)
(0.0670769 -1.40187e-05 0)
(0.0670759 -1.56252e-05 0)
(0.067075 -1.72057e-05 0)
(0.0670741 -1.87773e-05 0)
(0.0670734 -2.03154e-05 0)
(0.0670729 -2.18269e-05 0)
(0.0670725 -2.32969e-05 0)
(0.0670724 -2.4733e-05 0)
(0.0670815 -1.11145e-06 0)
(0.0670781 -2.59656e-06 0)
(0.0670778 -4.22375e-06 0)
(0.0670773 -5.87039e-06 0)
(0.0670767 -7.51455e-06 0)
(0.0670761 -9.15876e-06 0)
(0.0670753 -1.07907e-05 0)
(0.0670744 -1.24208e-05 0)
(0.0670735 -1.40325e-05 0)
(0.0670726 -1.56403e-05 0)
(0.0670717 -1.72223e-05 0)
(0.0670708 -1.87953e-05 0)
(0.0670701 -2.03351e-05 0)
(0.0670695 -2.1848e-05 0)
(0.0670692 -2.33198e-05 0)
(0.0670691 -2.47577e-05 0)
(0.0670782 -1.1126e-06 0)
(0.0670747 -2.59954e-06 0)
(0.0670744 -4.22859e-06 0)
(0.067074 -5.87702e-06 0)
(0.0670734 -7.52303e-06 0)
(0.0670727 -9.16882e-06 0)
(0.0670719 -1.08026e-05 0)
(0.0670711 -1.2434e-05 0)
(0.0670702 -1.40475e-05 0)
(0.0670692 -1.56565e-05 0)
(0.0670683 -1.72402e-05 0)
(0.0670674 -1.88144e-05 0)
(0.0670667 -2.03558e-05 0)
(0.0670661 -2.18703e-05 0)
(0.0670658 -2.33437e-05 0)
(0.0670657 -2.47835e-05 0)
(0.0670748 -1.11388e-06 0)
(0.0670714 -2.60295e-06 0)
(0.0670711 -4.23411e-06 0)
(0.0670706 -5.88454e-06 0)
(0.06707 -7.53265e-06 0)
(0.0670694 -9.18016e-06 0)
(0.0670686 -1.08159e-05 0)
(0.0670677 -1.24488e-05 0)
(0.0670668 -1.40641e-05 0)
(0.0670659 -1.56743e-05 0)
(0.0670649 -1.72596e-05 0)
(0.0670641 -1.88352e-05 0)
(0.0670633 -2.03781e-05 0)
(0.0670628 -2.18941e-05 0)
(0.0670624 -2.33692e-05 0)
(0.0670624 -2.48108e-05 0)
(0.0670715 -1.11534e-06 0)
(0.067068 -2.60691e-06 0)
(0.0670677 -4.24051e-06 0)
(0.0670673 -5.89325e-06 0)
(0.0670667 -7.54372e-06 0)
(0.067066 -9.19319e-06 0)
(0.0670652 -1.08311e-05 0)
(0.0670644 -1.24656e-05 0)
(0.0670634 -1.40828e-05 0)
(0.0670625 -1.56943e-05 0)
(0.0670616 -1.72813e-05 0)
(0.0670607 -1.88581e-05 0)
(0.06706 -2.04026e-05 0)
(0.0670594 -2.19199e-05 0)
(0.0670591 -2.33966e-05 0)
(0.067059 -2.48402e-05 0)
(0.0670681 -1.11704e-06 0)
(0.0670647 -2.61159e-06 0)
(0.0670644 -4.24807e-06 0)
(0.0670639 -5.90352e-06 0)
(0.0670633 -7.55675e-06 0)
(0.0670627 -9.20847e-06 0)
(0.0670619 -1.08489e-05 0)
(0.067061 -1.24851e-05 0)
(0.0670601 -1.41044e-05 0)
(0.0670591 -1.57172e-05 0)
(0.0670582 -1.73059e-05 0)
(0.0670573 -1.88838e-05 0)
(0.0670566 -2.04298e-05 0)
(0.067056 -2.19485e-05 0)
(0.0670557 -2.34268e-05 0)
(0.0670556 -2.48722e-05 0)
(0.0670648 -1.11905e-06 0)
(0.0670613 -2.61716e-06 0)
(0.067061 -4.25706e-06 0)
(0.0670606 -5.91574e-06 0)
(0.06706 -7.57219e-06 0)
(0.0670593 -9.22659e-06 0)
(0.0670585 -1.08699e-05 0)
(0.0670576 -1.2508e-05 0)
(0.0670567 -1.41297e-05 0)
(0.0670558 -1.57439e-05 0)
(0.0670548 -1.73344e-05 0)
(0.067054 -1.89134e-05 0)
(0.0670532 -2.04608e-05 0)
(0.0670526 -2.19807e-05 0)
(0.0670523 -2.34604e-05 0)
(0.0670522 -2.49076e-05 0)
(0.0670614 -1.12144e-06 0)
(0.067058 -2.62387e-06 0)
(0.0670576 -4.26789e-06 0)
(0.0670572 -5.93045e-06 0)
(0.0670566 -7.59076e-06 0)
(0.0670559 -9.24835e-06 0)
(0.0670551 -1.0895e-05 0)
(0.0670543 -1.25354e-05 0)
(0.0670534 -1.41598e-05 0)
(0.0670524 -1.57754e-05 0)
(0.0670515 -1.73679e-05 0)
(0.0670506 -1.89478e-05 0)
(0.0670499 -2.04966e-05 0)
(0.0670493 -2.20175e-05 0)
(0.0670489 -2.34984e-05 0)
(0.0670488 -2.49474e-05 0)
(0.0670581 -1.12432e-06 0)
(0.0670546 -2.63195e-06 0)
(0.0670543 -4.28092e-06 0)
(0.0670538 -5.94816e-06 0)
(0.0670532 -7.6131e-06 0)
(0.0670526 -9.27457e-06 0)
(0.0670518 -1.09251e-05 0)
(0.0670509 -1.25684e-05 0)
(0.06705 -1.41958e-05 0)
(0.067049 -1.58131e-05 0)
(0.0670481 -1.74077e-05 0)
(0.0670472 -1.89885e-05 0)
(0.0670465 -2.05386e-05 0)
(0.0670459 -2.20602e-05 0)
(0.0670455 -2.35422e-05 0)
(0.0670454 -2.49928e-05 0)
(0.0670547 -1.12778e-06 0)
(0.0670512 -2.6417e-06 0)
(0.0670509 -4.29665e-06 0)
(0.0670504 -5.96956e-06 0)
(0.0670499 -7.64008e-06 0)
(0.0670492 -9.30626e-06 0)
(0.0670484 -1.09616e-05 0)
(0.0670475 -1.26083e-05 0)
(0.0670466 -1.42393e-05 0)
(0.0670457 -1.58586e-05 0)
(0.0670447 -1.74555e-05 0)
(0.0670439 -1.90371e-05 0)
(0.0670431 -2.05884e-05 0)
(0.0670425 -2.21105e-05 0)
(0.0670421 -2.35932e-05 0)
(0.067042 -2.50451e-05 0)
(0.0670513 -1.13197e-06 0)
(0.0670478 -2.65337e-06 0)
(0.0670475 -4.31549e-06 0)
(0.0670471 -5.99525e-06 0)
(0.0670465 -7.67248e-06 0)
(0.0670458 -9.34444e-06 0)
(0.067045 -1.10055e-05 0)
(0.0670441 -1.26564e-05 0)
(0.0670432 -1.42919e-05 0)
(0.0670423 -1.59136e-05 0)
(0.0670413 -1.75132e-05 0)
(0.0670405 -1.90957e-05 0)
(0.0670397 -2.06481e-05 0)
(0.0670391 -2.21703e-05 0)
(0.0670387 -2.36534e-05 0)
(0.0670386 -2.51063e-05 0)
(0.0670479 -1.13697e-06 0)
(0.0670444 -2.66726e-06 0)
(0.0670441 -4.33795e-06 0)
(0.0670437 -6.02592e-06 0)
(0.0670431 -7.71121e-06 0)
(0.0670424 -9.39023e-06 0)
(0.0670416 -1.10582e-05 0)
(0.0670408 -1.27145e-05 0)
(0.0670398 -1.43552e-05 0)
(0.0670389 -1.598e-05 0)
(0.067038 -1.75831e-05 0)
(0.0670371 -1.91665e-05 0)
(0.0670363 -2.07203e-05 0)
(0.0670357 -2.22421e-05 0)
(0.0670353 -2.37252e-05 0)
(0.0670352 -2.51786e-05 0)
(0.0670445 -1.14294e-06 0)
(0.067041 -2.6836e-06 0)
(0.0670407 -4.36437e-06 0)
(0.0670402 -6.06209e-06 0)
(0.0670397 -7.75694e-06 0)
(0.067039 -9.44451e-06 0)
(0.0670382 -1.11209e-05 0)
(0.0670374 -1.27838e-05 0)
(0.0670364 -1.44312e-05 0)
(0.0670355 -1.60602e-05 0)
(0.0670346 -1.76676e-05 0)
(0.0670337 -1.92524e-05 0)
(0.0670329 -2.08079e-05 0)
(0.0670323 -2.23291e-05 0)
(0.0670319 -2.38117e-05 0)
(0.0670318 -2.52647e-05 0)
(0.0670411 -1.14994e-06 0)
(0.0670375 -2.70253e-06 0)
(0.0670372 -4.39503e-06 0)
(0.0670368 -6.10419e-06 0)
(0.0670362 -7.81028e-06 0)
(0.0670356 -9.50815e-06 0)
(0.0670348 -1.11946e-05 0)
(0.0670339 -1.28659e-05 0)
(0.067033 -1.45216e-05 0)
(0.0670321 -1.61562e-05 0)
(0.0670312 -1.77694e-05 0)
(0.0670303 -1.93565e-05 0)
(0.0670295 -2.09144e-05 0)
(0.0670289 -2.24347e-05 0)
(0.0670285 -2.39164e-05 0)
(0.0670284 -2.53678e-05 0)
(0.0670376 -1.15807e-06 0)
(0.0670341 -2.72411e-06 0)
(0.0670338 -4.43001e-06 0)
(0.0670333 -6.15236e-06 0)
(0.0670328 -7.8715e-06 0)
(0.0670321 -9.58154e-06 0)
(0.0670313 -1.128e-05 0)
(0.0670305 -1.29616e-05 0)
(0.0670296 -1.46278e-05 0)
(0.0670287 -1.627e-05 0)
(0.0670278 -1.78912e-05 0)
(0.0670269 -1.94824e-05 0)
(0.0670261 -2.10447e-05 0)
(0.0670255 -2.25649e-05 0)
(0.0670251 -2.40459e-05 0)
(0.0670249 -2.54945e-05 0)
(0.0670342 -1.16732e-06 0)
(0.0670306 -2.74815e-06 0)
(0.0670303 -4.46905e-06 0)
(0.0670298 -6.20629e-06 0)
(0.0670293 -7.9402e-06 0)
(0.0670286 -9.66437e-06 0)
(0.0670279 -1.13768e-05 0)
(0.0670271 -1.30711e-05 0)
(0.0670262 -1.475e-05 0)
(0.0670253 -1.64026e-05 0)
(0.0670244 -1.80348e-05 0)
(0.0670235 -1.96331e-05 0)
(0.0670227 -2.12038e-05 0)
(0.0670221 -2.27276e-05 0)
(0.0670217 -2.42124e-05 0)
(0.0670215 -2.56611e-05 0)
(0.0670307 -1.17763e-06 0)
(0.067027 -2.77434e-06 0)
(0.0670267 -4.51162e-06 0)
(0.0670263 -6.26525e-06 0)
(0.0670258 -8.01553e-06 0)
(0.0670251 -9.75561e-06 0)
(0.0670244 -1.14839e-05 0)
(0.0670236 -1.31932e-05 0)
(0.0670227 -1.48873e-05 0)
(0.0670218 -1.65529e-05 0)
(0.0670209 -1.81997e-05 0)
(0.0670201 -1.98088e-05 0)
(0.0670193 -2.13931e-05 0)
(0.0670187 -2.29262e-05 0)
(0.0670183 -2.44236e-05 0)
(0.0670181 -2.58825e-05 0)
(0.0670271 -1.18885e-06 0)
(0.0670235 -2.80199e-06 0)
(0.0670232 -4.55663e-06 0)
(0.0670228 -6.32777e-06 0)
(0.0670222 -8.09556e-06 0)
(0.0670216 -9.85305e-06 0)
(0.0670209 -1.15988e-05 0)
(0.0670201 -1.33249e-05 0)
(0.0670192 -1.50362e-05 0)
(0.0670184 -1.67175e-05 0)
(0.0670175 -1.83813e-05 0)
(0.0670167 -2.00039e-05 0)
(0.0670159 -2.16053e-05 0)
(0.0670153 -2.31501e-05 0)
(0.0670149 -2.46635e-05 0)
(0.0670147 -2.61344e-05 0)
(0.0670236 -1.2007e-06 0)
(0.0670199 -2.83026e-06 0)
(0.0670196 -4.60268e-06 0)
(0.0670192 -6.39187e-06 0)
(0.0670187 -8.1778e-06 0)
(0.067018 -9.95356e-06 0)
(0.0670173 -1.17176e-05 0)
(0.0670166 -1.34619e-05 0)
(0.0670157 -1.51917e-05 0)
(0.0670149 -1.68904e-05 0)
(0.067014 -1.85731e-05 0)
(0.0670132 -2.02109e-05 0)
(0.0670125 -2.18313e-05 0)
(0.0670119 -2.33878e-05 0)
(0.0670115 -2.49179e-05 0)
(0.0670113 -2.63989e-05 0)
(0.06702 -1.21281e-06 0)
(0.0670162 -2.85793e-06 0)
(0.067016 -4.6478e-06 0)
(0.0670156 -6.45483e-06 0)
(0.0670151 -8.2587e-06 0)
(0.0670144 -1.00528e-05 0)
(0.0670138 -1.18352e-05 0)
(0.067013 -1.35984e-05 0)
(0.0670122 -1.53472e-05 0)
(0.0670113 -1.70644e-05 0)
(0.0670105 -1.87667e-05 0)
(0.0670097 -2.04206e-05 0)
(0.067009 -2.20611e-05 0)
(0.0670085 -2.36281e-05 0)
(0.0670081 -2.51756e-05 0)
(0.0670079 -2.66636e-05 0)
(0.0670163 -1.22467e-06 0)
(0.0670125 -2.88362e-06 0)
(0.0670123 -4.68972e-06 0)
(0.0670119 -6.51345e-06 0)
(0.0670114 -8.33414e-06 0)
(0.0670108 -1.01458e-05 0)
(0.0670101 -1.19456e-05 0)
(0.0670094 -1.37273e-05 0)
(0.0670086 -1.54944e-05 0)
(0.0670078 -1.72305e-05 0)
(0.067007 -1.8952e-05 0)
(0.0670062 -2.06227e-05 0)
(0.0670056 -2.22832e-05 0)
(0.067005 -2.38595e-05 0)
(0.0670047 -2.54264e-05 0)
(0.0670045 -2.69166e-05 0)
(0.0670126 -1.23567e-06 0)
(0.0670088 -2.90572e-06 0)
(0.0670086 -4.7258e-06 0)
(0.0670082 -6.56401e-06 0)
(0.0670077 -8.39927e-06 0)
(0.0670071 -1.02264e-05 0)
(0.0670065 -1.20415e-05 0)
(0.0670057 -1.384e-05 0)
(0.067005 -1.56236e-05 0)
(0.0670042 -1.73775e-05 0)
(0.0670034 -1.91167e-05 0)
(0.0670027 -2.08044e-05 0)
(0.0670021 -2.2484e-05 0)
(0.0670016 -2.40708e-05 0)
(0.0670013 -2.5659e-05 0)
(0.0670011 -2.71429e-05 0)
(0.0670089 -1.24513e-06 0)
(0.067005 -2.92242e-06 0)
(0.0670048 -4.75307e-06 0)
(0.0670044 -6.60228e-06 0)
(0.067004 -8.4485e-06 0)
(0.0670034 -1.02876e-05 0)
(0.0670028 -1.21143e-05 0)
(0.0670021 -1.39265e-05 0)
(0.0670013 -1.5723e-05 0)
(0.0670006 -1.74923e-05 0)
(0.0669999 -1.92465e-05 0)
(0.0669992 -2.09511e-05 0)
(0.0669986 -2.26482e-05 0)
(0.0669982 -2.42493e-05 0)
(0.0669979 -2.58549e-05 0)
(0.0669978 -2.7317e-05 0)
(0.0670051 -1.25228e-06 0)
(0.0670012 -2.93183e-06 0)
(0.067001 -4.76844e-06 0)
(0.0670007 -6.62392e-06 0)
(0.0670002 -8.47629e-06 0)
(0.0669997 -1.03225e-05 0)
(0.066999 -1.21561e-05 0)
(0.0669984 -1.39776e-05 0)
(0.0669977 -1.57826e-05 0)
(0.066997 -1.75642e-05 0)
(0.0669963 -1.93296e-05 0)
(0.0669956 -2.10476e-05 0)
(0.0669951 -2.27562e-05 0)
(0.0669947 -2.43668e-05 0)
(0.0669945 -2.59734e-05 0)
(0.0669945 -2.73955e-05 0)
(0.0670013 -1.25631e-06 0)
(0.0669974 -2.93233e-06 0)
(0.0669972 -4.76945e-06 0)
(0.0669968 -6.62586e-06 0)
(0.0669964 -8.47944e-06 0)
(0.0669959 -1.03282e-05 0)
(0.0669953 -1.21633e-05 0)
(0.0669946 -1.39882e-05 0)
(0.066994 -1.57948e-05 0)
(0.0669933 -1.75812e-05 0)
(0.0669927 -1.93468e-05 0)
(0.0669921 -2.10649e-05 0)
(0.0669916 -2.27647e-05 0)
(0.0669913 -2.43618e-05 0)
(0.0669913 -2.5943e-05 0)
(0.0669914 -2.73123e-05 0)
(0.0669975 -1.25651e-06 0)
(0.0669936 -2.92337e-06 0)
(0.0669933 -4.75497e-06 0)
(0.066993 -6.60597e-06 0)
(0.0669926 -8.4543e-06 0)
(0.0669921 -1.0298e-05 0)
(0.0669915 -1.21254e-05 0)
(0.0669909 -1.39411e-05 0)
(0.0669903 -1.57331e-05 0)
(0.0669896 -1.75036e-05 0)
(0.066989 -1.92446e-05 0)
(0.0669885 -2.0937e-05 0)
(0.0669882 -2.25989e-05 0)
(0.066988 -2.41561e-05 0)
(0.0669881 -2.56869e-05 0)
(0.0669884 -2.69971e-05 0)
(0.0669936 -1.25264e-06 0)
(0.0669897 -2.90112e-06 0)
(0.0669895 -4.71788e-06 0)
(0.0669892 -6.55233e-06 0)
(0.0669888 -8.38132e-06 0)
(0.0669883 -1.02031e-05 0)
(0.0669877 -1.20032e-05 0)
(0.0669872 -1.37878e-05 0)
(0.0669866 -1.55407e-05 0)
(0.066986 -1.7268e-05 0)
(0.0669855 -1.89561e-05 0)
(0.0669851 -2.05951e-05 0)
(0.0669848 -2.21917e-05 0)
(0.0669848 -2.36872e-05 0)
(0.066985 -2.51464e-05 0)
(0.0669855 -2.63928e-05 0)
(0.0669898 -1.24312e-06 0)
(0.0669858 -2.85351e-06 0)
(0.0669856 -4.63834e-06 0)
(0.0669853 -6.43737e-06 0)
(0.066985 -8.22585e-06 0)
(0.0669845 -1.00024e-05 0)
(0.066984 -1.17507e-05 0)
(0.0669835 -1.34786e-05 0)
(0.066983 -1.51665e-05 0)
(0.0669825 -1.6825e-05 0)
(0.0669821 -1.84351e-05 0)
(0.0669817 -1.99973e-05 0)
(0.0669816 -2.15075e-05 0)
(0.0669817 -2.29258e-05 0)
(0.0669821 -2.42999e-05 0)
(0.0669828 -2.54837e-05 0)
(0.0669859 -1.2228e-06 0)
(0.066982 -2.76783e-06 0)
(0.0669819 -4.49642e-06 0)
(0.0669816 -6.23516e-06 0)
(0.0669813 -7.95807e-06 0)
(0.0669809 -9.66421e-06 0)
(0.0669805 -1.13359e-05 0)
(0.06698 -1.29827e-05 0)
(0.0669796 -1.45826e-05 0)
(0.0669791 -1.61509e-05 0)
(0.0669788 -1.76635e-05 0)
(0.0669786 -1.91319e-05 0)
(0.0669786 -2.05415e-05 0)
(0.0669788 -2.1874e-05 0)
(0.0669794 -2.3158e-05 0)
(0.0669803 -2.42858e-05 0)
(0.0669821 -1.18623e-06 0)
(0.0669784 -2.63646e-06 0)
(0.0669783 -4.28075e-06 0)
(0.066978 -5.93184e-06 0)
(0.0669777 -7.56323e-06 0)
(0.0669774 -9.1745e-06 0)
(0.0669771 -1.07471e-05 0)
(0.0669767 -1.22922e-05 0)
(0.0669763 -1.3786e-05 0)
(0.066976 -1.52481e-05 0)
(0.0669757 -1.66501e-05 0)
(0.0669756 -1.8014e-05 0)
(0.0669757 -1.93153e-05 0)
(0.0669761 -2.05586e-05 0)
(0.0669769 -2.1752e-05 0)
(0.066978 -2.28313e-05 0)
(0.0669785 -1.13009e-06 0)
(0.066975 -2.45923e-06 0)
(0.0669749 -3.99169e-06 0)
(0.0669747 -5.52901e-06 0)
(0.0669744 -7.04515e-06 0)
(0.0669742 -8.54023e-06 0)
(0.0669739 -9.99535e-06 0)
(0.0669736 -1.14227e-05 0)
(0.0669733 -1.27974e-05 0)
(0.0669731 -1.41425e-05 0)
(0.0669729 -1.54262e-05 0)
(0.0669729 -1.66796e-05 0)
(0.0669732 -1.78697e-05 0)
(0.0669737 -1.90232e-05 0)
(0.0669745 -2.01278e-05 0)
(0.0669758 -2.11641e-05 0)
(0.066975 -1.05425e-06 0)
(0.0669718 -2.24362e-06 0)
(0.0669717 -3.64141e-06 0)
(0.0669716 -5.04353e-06 0)
(0.0669714 -6.42539e-06 0)
(0.0669712 -7.78763e-06 0)
(0.066971 -9.11144e-06 0)
(0.0669708 -1.04097e-05 0)
(0.0669706 -1.16567e-05 0)
(0.0669704 -1.28781e-05 0)
(0.0669704 -1.40393e-05 0)
(0.0669705 -1.51796e-05 0)
(0.0669708 -1.62582e-05 0)
(0.0669714 -1.73222e-05 0)
(0.0669724 -1.83402e-05 0)
(0.0669738 -1.93368e-05 0)
(0.0669719 -9.61861e-07 0)
(0.066969 -2.00275e-06 0)
(0.066969 -3.25083e-06 0)
(0.0669688 -4.50352e-06 0)
(0.0669687 -5.73845e-06 0)
(0.0669686 -6.9568e-06 0)
(0.0669684 -8.14034e-06 0)
(0.0669683 -9.30217e-06 0)
(0.0669682 -1.04164e-05 0)
(0.0669681 -1.15104e-05 0)
(0.0669681 -1.25474e-05 0)
(0.0669683 -1.35736e-05 0)
(0.0669687 -1.45415e-05 0)
(0.0669694 -1.55165e-05 0)
(0.0669705 -1.64493e-05 0)
(0.066972 -1.74067e-05 0)
(0.0669691 -8.5858e-07 0)
(0.0669666 -1.75249e-06 0)
(0.0669665 -2.84506e-06 0)
(0.0669664 -3.94252e-06 0)
(0.0669664 -5.02514e-06 0)
(0.0669663 -6.09461e-06 0)
(0.0669662 -7.13379e-06 0)
(0.0669661 -8.1558e-06 0)
(0.066966 -9.13506e-06 0)
(0.0669661 -1.01001e-05 0)
(0.0669662 -1.10131e-05 0)
(0.0669664 -1.1925e-05 0)
(0.0669669 -1.27835e-05 0)
(0.0669677 -1.36694e-05 0)
(0.0669688 -1.45177e-05 0)
(0.0669704 -1.54336e-05 0)
(0.0669666 -7.51243e-07 0)
(0.0669645 -1.50822e-06 0)
(0.0669645 -2.44857e-06 0)
(0.0669644 -3.39338e-06 0)
(0.0669644 -4.32563e-06 0)
(0.0669643 -5.24738e-06 0)
(0.0669642 -6.14307e-06 0)
(0.0669642 -7.02573e-06 0)
(0.0669642 -7.87088e-06 0)
(0.0669643 -8.7075e-06 0)
(0.0669645 -9.49785e-06 0)
(0.0669648 -1.0296e-05 0)
(0.0669654 -1.10468e-05 0)
(0.0669662 -1.18426e-05 0)
(0.0669673 -1.26064e-05 0)
(0.0669689 -1.34761e-05 0)
(0.0669645 -6.46495e-07 0)
(0.0669628 -1.2822e-06 0)
(0.0669627 -2.0811e-06 0)
(0.0669627 -2.88309e-06 0)
(0.0669627 -3.67357e-06 0)
(0.0669626 -4.45475e-06 0)
(0.0669626 -5.21284e-06 0)
(0.0669627 -5.96076e-06 0)
(0.0669627 -6.67578e-06 0)
(0.0669629 -7.38696e-06 0)
(0.0669631 -8.05771e-06 0)
(0.0669635 -8.74368e-06 0)
(0.066964 -9.38879e-06 0)
(0.0669649 -1.00933e-05 0)
(0.066966 -1.07722e-05 0)
(0.0669675 -1.15894e-05 0)
(0.0669628 -5.4961e-07 0)
(0.0669613 -1.08187e-06 0)
(0.0669613 -1.755e-06 0)
(0.0669613 -2.42926e-06 0)
(0.0669613 -3.09199e-06 0)
(0.0669613 -3.74509e-06 0)
(0.0669613 -4.37645e-06 0)
(0.0669614 -4.99864e-06 0)
(0.0669615 -5.59122e-06 0)
(0.0669617 -6.18286e-06 0)
(0.066962 -6.73915e-06 0)
(0.0669624 -7.31589e-06 0)
(0.0669629 -7.85824e-06 0)
(0.0669638 -8.4706e-06 0)
(0.0669649 -9.0645e-06 0)
(0.0669663 -9.82189e-06 0)
(0.0669613 -4.63765e-07 0)
(0.0669602 -9.0967e-07 0)
(0.0669602 -1.47473e-06 0)
(0.0669602 -2.03906e-06 0)
(0.0669602 -2.59153e-06 0)
(0.0669603 -3.13319e-06 0)
(0.0669603 -3.65312e-06 0)
(0.0669604 -4.16315e-06 0)
(0.0669606 -4.6451e-06 0)
(0.0669608 -5.12676e-06 0)
(0.0669611 -5.57661e-06 0)
(0.0669615 -6.04926e-06 0)
(0.0669621 -6.49316e-06 0)
(0.0669629 -7.01342e-06 0)
(0.0669639 -7.52271e-06 0)
(0.0669652 -8.21296e-06 0)
(0.0669602 -3.89986e-07 0)