/*--------------------------------*- C++ -*----------------------------------*\
  =========                 |
  \\      /  F ield         | OpenFOAM: The Open Source CFD Toolbox
   \\    /   O peration     | Website:  https://openfoam.org
    \\  /    A nd           | Version:  8
     \\/     M anipulation  |
\*---------------------------------------------------------------------------*/
FoamFile
{
    version     2.0;
    format      ascii;
    class       surfaceScalarField;
    location    "0.0070000";
    object      phi;
}
// * * * * * * * * * * * * * * * * * * * * * * * * * * * * * * * * * * * * * //

dimensions      [0 3 -1 0 0 0 0];

internalField   nonuniform List<scalar> 
1094
(
1.24766872472987e-09
1.30808210979325e-11
1.23453467113544e-09
1.34981789481164e-11
1.22129262362894e-09
1.36799767771694e-11
1.20777841368531e-09
1.39890051499861e-11
1.19408748571528e-09
1.41988920834309e-11
1.18033173917867e-09
1.43122562389363e-11
1.16654948002671e-09
1.43655557241076e-11
1.1527642218668e-09
1.43939327829905e-11
1.13898931737763e-09
1.44180569103712e-11
1.1252214180871e-09
1.44362735066801e-11
1.11146611508516e-09
1.44431473761752e-11
1.09772784303358e-09
1.44492649473359e-11
1.08400228821579e-09
1.44648707467514e-11
1.07027859673398e-09
1.44807204701647e-11
1.05655878332112e-09
1.44944977143046e-11
1.04285400702812e-09
1.45098609308062e-11
1.02915472365926e-09
1.45214562557054e-11
1.01546078834177e-09
1.45323113401049e-11
1.00177688457704e-09
1.45459153019268e-11
9.88105073810855e-10
1.45578606506641e-11
9.74443195057912e-10
1.45661459209007e-11
9.60787680788734e-10
1.45810006035597e-11
9.47138275241559e-10
1.46048433680651e-11
9.33492179054591e-10
1.46225405117806e-11
9.19855180028776e-10
1.46347103230097e-11
9.06233839430459e-10
1.46503694139939e-11
8.92622496485088e-10
1.46664443825876e-11
8.79018571776781e-10
1.46823443057383e-11
8.65426078517946e-10
1.47024351895671e-11
8.51846470926182e-10
1.47251623498217e-11
8.38273710894568e-10
1.47454543454516e-11
8.24709454108664e-10
1.47682380466229e-11
8.11164811864461e-10
1.47965963457798e-11
7.97627908951072e-10
1.48209719629048e-11
7.84097929780114e-10
1.48470253278538e-11
7.70591083706648e-10
1.48820488800022e-11
7.57094089735466e-10
1.49139389223997e-11
7.43604417184759e-10
1.49447862111573e-11
7.30130463964877e-10
1.4984052232507e-11
7.16679996105602e-10
1.50278924072723e-11
7.03239168897276e-10
1.5065651550893e-11
6.89805945570289e-10
1.51090113338505e-11
6.76405290623889e-10
1.51666717625319e-11
6.63016351169318e-10
1.52155271725551e-11
6.49640929029714e-10
1.52634171845855e-11
6.36299728137272e-10
1.53278093296163e-11
6.22976022886977e-10
1.53964591368644e-11
6.09658437031183e-10
1.54665955450516e-11
5.96362979763006e-10
1.55484025244375e-11
5.83105665919348e-10
1.5633239803784e-11
5.6986758799008e-10
1.57062200826307e-11
5.56647394344663e-10
1.57903327702567e-11
5.4348211690048e-10
1.59027339524532e-11
5.30330996757113e-10
1.6005375121916e-11
5.17192639663447e-10
1.61120309678802e-11
5.04112115172819e-10
1.62454331399892e-11
4.91064435617861e-10
1.63700366041336e-11
4.78036784363842e-10
1.64930201362588e-11
4.65059393099171e-10
1.66471572388459e-11
4.52133269799249e-10
1.68067715805585e-11
4.39232498950633e-10
1.69449386605001e-11
4.26358621758299e-10
1.71015131655276e-11
4.13570782598953e-10
1.72962044740914e-11
4.00807862516745e-10
1.74498030063227e-11
3.8808009288581e-10
1.75995335422108e-11
3.75467171788318e-10
1.7816674774876e-11
3.62838051674283e-10
1.80160631520121e-11
3.50212180003939e-10
1.81929460434384e-11
3.37687754969146e-10
1.83773087052131e-11
3.25204821122945e-10
1.85267039096168e-11
3.12747446551786e-10
1.86530177537779e-11
3.00330973099146e-10
1.87863765432738e-11
2.87967306029817e-10
1.89049476298389e-11
2.756035380964e-10
1.89595948669361e-11
2.63264450151694e-10
1.89685750285135e-11
2.50914896083296e-10
1.89010602733237e-11
2.3852504224108e-10
1.87573380895746e-11
2.26126400042636e-10
1.85255896476364e-11
2.13660293754822e-10
1.81147969434904e-11
2.01003916648425e-10
1.74763927171663e-11
1.8820805390276e-10
1.67975452375059e-11
1.75481880101633e-10
1.571044897262e-11
1.61954625678968e-10
1.4129664155809e-11
1.4831459236693e-10
1.21412951242121e-11
1.34412981990862e-10
1.00674195364751e-11
1.20701829597409e-10
4.83663875917226e-12
1.1801798969636e-10
-8.1111838356062e-12
1.15760383433902e-10
-9.86420505614407e-12
1.12946209143268e-10
-1.0467491907762e-11
1.10285062251176e-10
-1.088766607476e-11
1.07635384764193e-10
-1.08511209477124e-11
1.04952308600781e-10
-1.0635350904096e-11
1.02546330275716e-10
-1.01321969409037e-11
1.00250595391409e-10
-9.56023353054279e-12
9.79851167236138e-11
-8.86262420007878e-12
9.61390276544236e-11
-7.92989731875811e-12
9.44916509528696e-11
-7.00641174618821e-12
9.29402667023711e-11
-6.12686804565885e-12
9.17040393302172e-11
-5.11412497679573e-12
-2.37194273327774e-12
4.26583832381114e-10
1.42346328570015e-11
4.24872737646991e-10
1.53230848454304e-11
4.21934260954745e-10
1.6732076840949e-11
4.18167785922419e-10
1.78689169088544e-11
4.13972884013363e-10
1.85070428569752e-11
4.09597040984295e-10
1.88011605278695e-11
4.05158495563891e-10
1.89169739722827e-11
4.00708046495121e-10
1.89570565178602e-11
3.96266533909676e-10
1.89720336158207e-11
3.91838764363042e-10
1.89763043960584e-11
3.8742349345065e-10
1.89704976456217e-11
3.83021203792068e-10
1.89634570602816e-11
3.78633349091898e-10
1.89644420102442e-11
3.74257366378669e-10
1.89682266918533e-11
3.69892528842149e-10
1.89706566763773e-11
3.65540731835818e-10
1.8972761279912e-11
3.61200240747932e-10
1.89728280927793e-11
3.56870765675739e-10
1.89724640897312e-11
3.52554116692049e-10
1.89730618790555e-11
3.48250440292658e-10
1.89718569892491e-11
3.43958118567038e-10
1.8968597295217e-11
3.39677674937853e-10
1.89713746060579e-11
3.3541059258678e-10
1.89816494380516e-11
3.31155184904328e-10
1.89874466118851e-11
3.26911760074527e-10
1.89873969640902e-11
3.22682675391506e-10
1.89884985229563e-11
3.18467354840108e-10
1.8990608648437e-11
3.14265095143597e-10
1.89932440039419e-11
3.10077272825403e-10
1.89986998511436e-11
3.05904455638809e-10
1.90062285571752e-11
3.01745315381735e-10
1.90126375558131e-11
2.97601010680994e-10
1.90203678844809e-11
2.93473889599451e-10
1.90313200862374e-11
2.89361850092366e-10
1.90403885932399e-11
2.85265427675771e-10
1.90505871085321e-11
2.8118809625306e-10
1.90662601148006e-11
2.77127807746784e-10
1.90808487339314e-11
2.73083809560558e-10
1.90951790845338e-11
2.69059426125423e-10
1.91146129986177e-11
2.65056433118266e-10
1.91368024612001e-11
2.61071972865635e-10
1.91557377202329e-11
2.57107439167464e-10
1.91789059589705e-11
2.53167937160211e-10
1.92112906821725e-11
2.49250573170609e-10
1.92377413783655e-11
2.45356118537664e-10
1.92624422886071e-11
2.41489575342374e-10
1.92986663514115e-11
2.37648907417871e-10
1.93411868561168e-11
2.33832372337735e-10
1.93869013501426e-11
2.30045042158028e-10
1.94391895251276e-11
2.26290621599412e-10
1.94907898750141e-11
2.22566221931576e-10
1.95334089069401e-11
2.18874673291029e-10
1.95843478039973e-11
2.15222899305655e-10
1.96566914176168e-11
2.11605326812577e-10
1.97248351346714e-11
2.0802336669778e-10
1.9795512549662e-11
2.04486525547891e-10
1.98833920083354e-11
2.00992592375265e-10
1.99646772198185e-11
1.9754060200198e-10
2.00452146660351e-11
1.94138114455298e-10
2.01491866878378e-11
1.90786315257215e-10
2.0257428069437e-11
1.87480639412118e-10
2.03488929214199e-11
1.84225819256626e-10
2.04540792930441e-11
1.81030863503682e-10
2.05883874988328e-11
1.77888330689105e-10
2.06891262815282e-11
1.74804296106427e-10
2.07798514111253e-11
1.71787655748007e-10
2.09287820288978e-11
1.68816475824728e-10
2.10818767747346e-11
1.65892267208507e-10
2.12111260593443e-11
1.63031858790999e-10
2.13308633588524e-11
1.60225976679731e-10
2.14249281473531e-11
1.57465371358572e-10
2.15054557071573e-11
1.54749714222475e-10
2.15932783594116e-11
1.52073817639111e-10
2.16712217289652e-11
1.49422346932188e-10
2.17004678891969e-11
1.46782579258633e-10
2.16967512549669e-11
1.44134866538062e-10
2.16361533721958e-11
1.41457978775996e-10
2.15205469482555e-11
1.38728287403117e-10
2.13406167046652e-11
1.3590007609113e-10
2.10275502541179e-11
1.32923043220733e-10
2.05372870945205e-11
1.29763000925376e-10
2.0040703849387e-11
1.26337395331852e-10
1.92184865920605e-11
1.22489477931208e-10
1.80598306399969e-11
1.18179277530694e-10
1.65341421041997e-11
1.13216098755566e-10
1.51140826587241e-11
1.07936879653727e-10
1.02007884867432e-11
1.05564189655176e-10
-5.65147988057802e-12
1.02934109378493e-10
-7.14455641563788e-12
1.00075344859191e-10
-7.5161256412436e-12
9.71379375792953e-11
-7.85471155796942e-12
9.42018611948778e-11
-7.81712746001364e-12
9.13331907046188e-11
-7.66673305984876e-12
8.85979735148268e-11
-7.29527951700239e-12
8.60196332021362e-11
-6.87885356423687e-12
8.36310513761946e-11
-6.37008500894164e-12
8.14893523888655e-11
-5.68379058066752e-12
7.95937238569324e-11
-5.00642638757648e-12
7.79362628716653e-11
-4.36551418128928e-12
7.65778539893738e-11
-3.65251698547075e-12
-1.66159478451424e-12
-1.5340223303437e-10
8.28553139759125e-12
-1.47891530604103e-10
9.92994469113255e-12
-1.44050797207723e-10
1.30086764280176e-11
-1.41108424712913e-10
1.50436480587543e-11
-1.385551600567e-10
1.60706513384599e-11
-1.36152941990595e-10
1.65155853366213e-11
-1.33801271181844e-10
1.6681714792674e-11
-1.31459839775778e-10
1.67317953944147e-11
-1.29112892764228e-10
1.67410029113579e-11
-1.26756991883521e-10
1.67360741103916e-11
-1.24394356689349e-10
1.67233087899116e-11
-1.22025087071588e-10
1.67094145845394e-11
-1.19646633258016e-10
1.67009868075244e-11
-1.17259190002783e-10
1.66955460990551e-11
-1.1486352826345e-10
1.66895122991456e-11
-1.1245930061123e-10
1.66827892309732e-11
-1.10047462648511e-10
1.66749795941082e-11
-1.076281711454e-10
1.666691625514e-11
-1.0520049944483e-10
1.66589116449051e-11
-1.02764906379484e-10
1.6649565481042e-11
-1.00322525939907e-10
1.66392854380027e-11
-9.7871564945636e-11
1.66332400310858e-11
-9.54096494588343e-11
1.66323105419077e-11
-9.29385559893419e-11
1.66286607388772e-11
-9.04597055307113e-11
1.6620573722496e-11
-8.79719292430724e-11
1.66124890653817e-11
-8.54750341125395e-11
1.66052369962799e-11
-8.29691406015108e-11
1.65986274573492e-11
-8.04531000643247e-11
1.65936961260446e-11
-7.79262492793873e-11
1.65901787623653e-11
-7.53893105283767e-11
1.65862507992762e-11
-7.28415230325553e-11
1.65828714574634e-11
-7.02814275473292e-11
1.65812499995676e-11
-6.77101002407758e-11
1.65788178601698e-11
-6.51270346942712e-11
1.6576996818349e-11
-6.25299015540348e-11
1.65782986117024e-11
-5.99195392469599e-11
1.65793557711246e-11
-5.72962631629824e-11
1.65805028977707e-11
-5.46576521188155e-11
1.65843416567335e-11
-5.20025827562721e-11
1.65897684026189e-11
-4.93327721816655e-11
1.65936267762333e-11
-4.66465446941646e-11
1.66000697003101e-11
-4.39402094401822e-11
1.66120594733613e-11
-4.12159725831525e-11
1.66202979664788e-11
-3.84739511238497e-11
1.66268906490626e-11
-3.57098115394075e-11
1.6640696777247e-11
-3.29226749046869e-11
1.66599228389821e-11
-3.01124074938841e-11
1.66821733115918e-11
-2.72757561470023e-11
1.67077193107284e-11
-2.4411712319339e-11
1.67315552781746e-11
-2.15231809408866e-11
1.6749301676002e-11
-1.86069427777635e-11
1.6772167051455e-11
-1.56560280909162e-11
1.68095079349241e-11
-1.26730376906003e-11
1.6845236036304e-11
-9.65682220597623e-12
1.68822772682699e-11
-6.60046936300978e-12
1.69295703162316e-11
-3.50597874071375e-12
1.69722620528921e-11
-3.73718908363677e-13
1.70144801431648e-11
2.80403917742716e-12
1.70722427014169e-11
6.02859284678018e-12
1.71329554873717e-11
9.29485713788371e-12
1.71820845151095e-11
1.26080650259988e-11
1.72397492646852e-11
1.5977314691824e-11
1.7317451581018e-11
1.93928896657992e-11
1.73713836207581e-11
2.28553293577188e-11
1.74146907311074e-11
2.63799702602263e-11
1.75005552971162e-11
2.99600959434158e-11
1.7597284859425e-11
3.35910809416572e-11
1.76749647363896e-11
3.72765083107921e-11
1.77393880867016e-11
4.10075559162931e-11
1.77869837879713e-11
4.47781278822173e-11
1.78274304126626e-11
4.85896422992217e-11
1.78736762045605e-11
5.24374170811614e-11
1.79144459481627e-11
5.63050770440572e-11
1.79227845490809e-11
6.01802969051359e-11
1.79104663648761e-11
6.40423115261143e-11
1.78619974513274e-11
6.78727076991107e-11
1.77769039022578e-11
7.16438187990192e-11
1.76552286714549e-11
7.53164928713289e-11
1.74397556902588e-11
7.88171626430612e-11
1.71207641734957e-11
8.21630086005337e-11
1.67782111552157e-11
8.51830377973565e-11
1.62810843990812e-11
8.78716420616973e-11
1.54536166542451e-11
8.99001805175483e-11
1.45883221063129e-11
9.16030574383283e-11
1.34946957565426e-11
9.14905573880319e-11
1.03981836591959e-11
8.9566404162316e-11
-3.64030594169224e-12
8.67943609139748e-11
-4.28287773501758e-12
8.40163940018313e-11
-4.64546904343695e-12
8.10601231467654e-11
-4.80278273929253e-12
7.81472959885938e-11
-4.80622435882271e-12
7.5281824325166e-11
-4.70111511073196e-12
7.25581755359213e-11
-4.46970218697803e-12
6.99863896235198e-11
-4.20377652718871e-12
6.76038948598462e-11
-3.88334818318391e-12
6.54693292753029e-11
-3.44450831322831e-12
6.35815272426283e-11
-3.01395506017263e-12
6.19274034709323e-11
-2.60717753321925e-12
6.05447261195338e-11
-2.1662765408962e-12
-9.12472861788408e-13
-4.71225490340319e-10
5.96610293156697e-13
-4.64416331735711e-10
3.24197585431786e-12
-4.58160948887562e-10
6.87421589467949e-12
-4.52044189562781e-10
9.04754166288428e-12
-4.45915251151036e-10
1.0062095244771e-11
-4.39757184742559e-10
1.04776308486734e-11
-4.33581632033835e-10
1.06260025201545e-11
-4.27397671142555e-10
1.06673930052809e-11
-4.21209064360336e-10
1.06716597464098e-11
-4.15018248119105e-10
1.06642351207172e-11
-4.08828166486392e-10
1.06519400631985e-11
-4.02639269152726e-10
1.06389710188982e-11
-3.96449204544768e-10
1.06291072390539e-11
-3.90257043723729e-10
1.06212938983454e-11
-3.84063202289952e-10
1.06132933792905e-11
-3.77867891597055e-10
1.06047980423835e-11
-3.71671692948275e-10
1.05957929942117e-11
-3.65474699495189e-10
1.05866483016656e-11
-3.59276663050072e-10
1.05773383555161e-11
-3.53078139417872e-10
1.05672450062943e-11
-3.46879663902327e-10
1.05567396770543e-11
-3.4067935408824e-10
1.05485771035259e-11
-3.34474973155927e-10
1.05432856921535e-11
-3.28267874443171e-10
1.0536607651667e-11
-3.22059887998037e-10
1.05273108497098e-11
-3.15850727823311e-10
1.05177508707149e-11
-3.09640019869881e-10
1.05086668424865e-11
-3.03427540433867e-10
1.04999984892185e-11
-2.9721243172881e-10
1.04921570718121e-11
-2.90994054678998e-10
1.04850949131085e-11
-2.84772690266493e-10
1.04778896644346e-11
-2.7854795537344e-10
1.04708377060846e-11
-2.72318940825136e-10
1.04646295799249e-11
-2.66086117676901e-10
1.04580785823031e-11
-2.59849121378943e-10
1.04517613337901e-11
-2.53606401589055e-10
1.04469938321796e-11
-2.47358178884103e-10
1.04422037031697e-11
-2.41104409285838e-10
1.0437493076112e-11
-2.34843582948525e-10
1.04339736060074e-11
-2.285749500428e-10
1.0431247230451e-11
-2.22299382899458e-10
1.04277930321423e-11
-2.16015503097392e-10
1.04255727453141e-11
-2.09720630712138e-10
1.042624093998e-11
-2.03416470654096e-10
1.04248389688052e-11
-1.9710350465333e-10
1.04222597386313e-11
-1.90778236882198e-10
1.04234223521085e-11
-1.84438527421114e-10
1.0427867373762e-11
-1.78083260059708e-10
1.04341841737037e-11
-1.71710568520331e-10
1.0441904836668e-11
-1.6532082765e-10
1.04482764080398e-11
-1.58916649808249e-10
1.04511574426263e-11
-1.52495329081099e-10
1.04564702691108e-11
-1.46050381455806e-10
1.04698157318254e-11
-1.39582764904912e-10
1.04824923980444e-11
-1.33091657166531e-10
1.04955877602548e-11
-1.26572108195834e-10
1.05139465249012e-11
-1.20025973849787e-10
1.05295531151204e-11
-1.13453372102811e-10
1.05447082477154e-11
-1.0684739032382e-10
1.05683322485359e-11
-1.00206765462146e-10
1.05936217652017e-11
-9.35362877547316e-11
1.0612227002677e-11
-8.68315035063723e-11
1.06349621228286e-11
-8.00838133386944e-11
1.0669149800539e-11
-7.33033614457684e-11
1.06897952873067e-11
-6.64930799289472e-11
1.07026750322753e-11
-5.96353408898486e-11
1.07401696836921e-11
-5.27282466868262e-11
1.07866171507161e-11
-4.5779088787012e-11
1.08214779348527e-11
-3.87917473827706e-11
1.08467992695683e-11
-3.17742172777834e-11
1.08633120778052e-11
-2.4730175087213e-11
1.08766469512776e-11
-1.76574456441641e-11
1.08935271236195e-11
-1.05596702839488e-11
1.09082924010727e-11
-3.45217144409119e-12
1.09058395273075e-11
3.65457986186026e-12
1.08931818944748e-11
1.07419404596212e-11
1.08629823360727e-11
1.77941205517161e-11
1.08119189629145e-11
2.47871652280012e-11
1.07483055369482e-11
3.1685865333687e-11
1.06262917357217e-11
3.84208153706279e-11
1.04702764484576e-11
4.50180463755198e-11
1.02646072839521e-11
5.13173158379112e-11
1.00646754588846e-11
5.73212959594953e-11
9.53222241187613e-12
6.27173346528901e-11
9.27515985657918e-12
6.78774356519091e-11
8.41820601950243e-12
7.09534996161274e-11
7.40710871292871e-12
6.93446908731725e-11
-1.94436393420839e-12
6.69005312936794e-11
-1.74894713625814e-12
6.44816838388401e-11
-2.13377747217026e-12
6.18959365878805e-11
-2.12120546826824e-12
5.9352989386582e-11
-2.16501221575162e-12
5.68486811137998e-11
-2.09645551906523e-12
5.44700079569232e-11
-1.98888136122621e-12
5.22232104082253e-11
-1.85345655163505e-12
5.014106163792e-11
-1.69671607383513e-12
4.82768668784916e-11
-1.47534796745501e-12
4.66286524612153e-11
-1.26081690415117e-12
4.51833710972602e-11
-1.05742564071456e-12
4.39633781144465e-11
-8.42463075692743e-13
-2.28990345225064e-13
-5.12139867156674e-10
-2.81939706368666e-12
-5.08502498910998e-10
-2.70691807237141e-13
-5.03556991716413e-10
2.05310654340703e-12
-4.97675757453683e-10
3.29039818584008e-12
-4.91301232062858e-10
3.81135222148838e-12
-4.84710130417181e-10
4.01000331715048e-12
-4.78037590754384e-10
4.07662759121211e-12
-4.71340570685913e-10
4.09321754581748e-12
-4.64639707144797e-10
4.09330724401253e-12
-4.57941941134689e-10
4.08865510829529e-12
-4.51250426880439e-10
4.08230937409727e-12
-4.4456565209318e-10
4.07578289057292e-12
-4.37885675317243e-10
4.07041041355033e-12
-4.31209236684826e-10
4.06582053144506e-12
-4.24536487441678e-10
4.06118473871749e-12
-4.17867773263366e-10
4.05638238596622e-12
-4.11203441434698e-10
4.05141283367791e-12
-4.04543558679619e-10
4.04639164972789e-12
-3.97888190088397e-10
4.04129521567671e-12
-3.91237832531651e-10
4.03591482951354e-12
-3.84592735775923e-10
4.03035851606826e-12
-3.77951360768291e-10
4.02559611724417e-12
-3.71311888120867e-10
4.02187733260742e-12
-3.64675252877543e-10
4.017686803989e-12
-3.58043139341414e-10
4.01254975303319e-12
-3.51415675244572e-10
4.00729803152317e-12
-3.44792519865474e-10
4.00219943167485e-12
-3.38173385822078e-10
3.99722599143821e-12
-3.31557696654104e-10
3.99250964001466e-12
-3.2494493440582e-10
3.98805907608976e-12
-3.18335191285669e-10
3.98354390057911e-12
-3.11728339196316e-10
3.97904135364128e-12
-3.05123828339585e-10
3.97482776678035e-12
-2.98521863926419e-10
3.97047319818117e-12
-2.91922257745668e-10
3.96615112367137e-12
-2.85324014723391e-10
3.96236042728297e-12
-2.78727125757923e-10
3.95853926322494e-12
-2.72131461451154e-10
3.95470234661449e-12
-2.65536170668247e-10
3.95121524694933e-12
-2.58940776999981e-10
3.94799901794714e-12
-2.52345755542863e-10
3.94449744140762e-12
-2.45750179439888e-10
3.94133100220993e-12
-2.39152149420453e-10
3.93917584811786e-12
-2.3255298812409e-10
3.93624907166501e-12
-2.25953365741021e-10
3.93280168384168e-12
-2.19350738838444e-10
3.93057727591606e-12
-2.12742919837411e-10
3.92945025292386e-12
-2.06128681947069e-10
3.92893127371058e-12
-1.99507057933983e-10
3.92882304223198e-12
-1.92878901920581e-10
3.92820562277397e-12
-1.86246429025741e-10
3.92629917145958e-12
-1.79607827801278e-10
3.92503197827678e-12
-1.72957797109004e-10
3.92653812116164e-12
-1.66296691778905e-10
3.92771632362876e-12
-1.59624160761779e-10
3.92888904532108e-12
-1.5293677520195e-10
3.93185731458847e-12
-1.46236220204335e-10
3.9337518503608e-12
-1.39522747852644e-10
3.93535024945696e-12
-1.32790946966503e-10
3.93984121306078e-12
-1.26039755893755e-10
3.94491384147909e-12
-1.19273283017684e-10
3.94752108786641e-12
-1.1248847164867e-10
3.95125024298943e-12
-1.05677980701848e-10
3.95910558935466e-12
-9.88505619259728e-11
3.96225579798622e-12
-9.20107810266928e-11
3.96213278985397e-12
-8.51429274412425e-11
3.97059616036095e-12
-7.82416818467982e-11
3.98267858928518e-12
-7.13142882198133e-11
3.990591382487e-12
-6.43669796225933e-11
3.99503328316502e-12
-5.7405835320931e-11
3.99677107898756e-12
-5.04328022491757e-11
3.99757483965614e-12
-4.34457113047799e-11
3.99967610422543e-12
-3.64467216086854e-11
4.00154014984176e-12
-2.94477706307587e-11
3.99801339789916e-12
-2.24562082461391e-11
3.99161296440695e-12
-1.54850425472153e-11
3.98064471880609e-12
-8.54751553147375e-12
3.96202605919074e-12
-1.65618452325726e-12
3.94349242667879e-12
5.15469546994376e-12
3.90100328591393e-12
1.18487221743559e-11
3.86102767044678e-12
1.84163469119469e-11
3.78088568332818e-12
2.48070548484293e-11
3.75706534353602e-12
3.0891541476309e-11
3.53052262016691e-12
3.6676330834286e-11
3.57341261417937e-12
4.20548392942685e-11
3.12344038955546e-12
4.63014600654907e-11
3.24558263763064e-12
4.48647034950565e-11
-4.20352822205651e-13
4.32274851440061e-11
-2.18200426601872e-14
4.14517580571348e-11
-2.65055452562234e-13
3.96292237872338e-11
-2.02677862914882e-13
3.78052836976219e-11
-2.42631626926625e-13
3.60221245393534e-11
-2.12757456311425e-13
3.43231494100573e-11
-1.87560317777982e-13
3.27207330176656e-11
-1.47310176177213e-13
3.12333817942481e-11
-1.04666172944625e-13
2.99036382779846e-11
-4.04176785931259e-14
2.87275839107447e-11
2.03863423149663e-14
2.7696091019732e-11
7.87653179607326e-14
2.68189414872431e-11
1.38734846857783e-13
3.05016915209115e-13
-2.65022677217943e-10
-2.6588135855077e-10
-2.64415138877876e-10
-2.61710531813477e-10
-2.58483876509593e-10
-2.55057475817306e-10
-2.51563357622111e-10
-2.4805156707799e-10
-2.44538618565745e-10
-2.4102924587877e-10
-2.37525119410917e-10
-2.34026413704381e-10
-2.30531984650928e-10
-2.27041057943266e-10
-2.23553689624592e-10
-2.20070064170134e-10
-2.16590354307479e-10
-2.13114590380332e-10
-2.09642821877592e-10
-2.06175329533742e-10
-2.02712303184704e-10
-1.99252959124167e-10
-1.95796262016911e-10
-1.92342704132292e-10
-1.88893244937265e-10
-1.85447978407111e-10
-1.8200673272609e-10
-1.78569385798316e-10
-1.75135674027396e-10
-1.717053267868e-10
-1.68278422525162e-10
-1.64854961625742e-10
-1.61434660466679e-10
-1.58017663404303e-10
-1.546039510162e-10
-1.51193015797501e-10
-1.47784887669073e-10
-1.44379547810274e-10
-1.40976635534798e-10
-1.37575926069541e-10
-1.34177738869422e-10
-1.30781710929293e-10
-1.27386807910517e-10
-1.23993825523932e-10
-1.20603298725928e-10
-1.17213979849877e-10
-1.13824768276199e-10
-1.1043509324047e-10
-1.07044570587544e-10
-1.0365372403101e-10
-1.00263856678198e-10
-9.68743106268755e-11
-9.34822699162961e-11
-9.00880756325196e-11
-8.66918071531307e-11
-8.32917091069842e-11
-7.98888616383307e-11
-7.64836574790633e-11
-7.30733714961726e-11
-6.96574464567324e-11
-6.62382362799477e-11
-6.28145688655413e-11
-5.93823032769368e-11
-5.59460580594089e-11
-5.2509177642601e-11
-4.90633965928722e-11
-4.5605113481117e-11
-4.21383221224674e-11
-3.86666577617735e-11
-3.51928015376614e-11
-3.17173875788639e-11
-2.8239194512499e-11
-2.47587425436114e-11
-2.12815340681884e-11
-1.78104614428582e-11
-1.43501259823365e-11
-1.09082065817981e-11
-7.48454007030211e-12
-4.10289057884421e-12
-7.60629972141183e-13
2.50201465860865e-12
5.74143409022658e-12
8.7554013136222e-12
1.18139168663457e-11
1.44245704126125e-11
1.71599655759294e-11
1.62315122346264e-11
1.5704228561724e-11
1.49368018949443e-11
1.42347579605058e-11
1.34952139904154e-11
1.27876488974518e-11
1.2107093290869e-11
1.14681763268993e-11
1.08728754380139e-11
1.03423132098975e-11
9.87251789829397e-12
9.4606505563564e-12
9.10809771073729e-12
)
;

boundaryField
{
    dieWall
    {
        type            calculated;
        value           nonuniform List<scalar> 
100
(
7.17926647841389e-13
7.16489764137511e-13
7.15052892150513e-13
7.13615998482827e-13
7.121791089818e-13
7.10742231315666e-13
7.09305351676519e-13
7.07868472046595e-13
7.06431585994256e-13
7.04994699202956e-13
7.03557819746e-13
7.02120939190535e-13
7.00684052050242e-13
6.99247162314194e-13
6.97810282355515e-13
6.96373404018909e-13
6.94936520351463e-13
6.93499632268328e-13
6.9206274860258e-13
6.90625866923138e-13
6.89188982203181e-13
6.87752099930093e-13
6.86315213137359e-13
6.84878317147605e-13
6.83441433244833e-13
6.82004558330458e-13
6.80567679097976e-13
6.79130800713724e-13
6.77693916282112e-13
6.76257032322571e-13
6.74820149408296e-13
6.73383266035968e-13
6.71946379502053e-13
6.70509495841359e-13
6.69072611795013e-13
6.67635727480268e-13
6.66198846129636e-13
6.64761957194495e-13
6.6332507040332e-13
6.61888189055275e-13
6.60451306670689e-13
6.59014420318839e-13
6.57577536155685e-13
6.56140654980016e-13
6.5470376458266e-13
6.53266877493887e-13
6.5183000100337e-13
6.50393120995916e-13
6.4895623872992e-13
6.47519354904995e-13
6.46082472638713e-13
6.44645591138778e-13
6.43208703219261e-13
6.41771821065455e-13
6.40334935599644e-13
6.38898048624819e-13
6.37461164727401e-13
6.36024269964513e-13
6.34587392093601e-13
6.33150521766365e-13
6.31713634794777e-13
6.30276752169292e-13
6.28839866890348e-13
6.27402976809712e-13
6.25966094868696e-13
6.24529217608617e-13
6.23092337605228e-13
6.21655444967543e-13
6.20218559091019e-13
6.18781674861278e-13
6.17344782476463e-13
6.15907899891643e-13
6.14471025995427e-13
6.13034147827499e-13
6.1159725968786e-13
6.10160375716034e-13
6.08723487468356e-13
6.07286605592586e-13
6.05849726245121e-13
6.04412844026909e-13
6.0297596391756e-13
6.01539078502399e-13
6.00102182381612e-13
5.98665296609453e-13
5.97228424697206e-13
5.95985174626542e-13
5.96068712423766e-13
5.9606870939486e-13
5.96068716391777e-13
5.96068716863413e-13
5.96068704027803e-13
5.96068702071804e-13
5.96068713298468e-13
5.96068717806707e-13
5.96068718715712e-13
5.96068714338787e-13
5.96068710709459e-13
5.96068705899315e-13
5.96068708003312e-13
5.9606871529208e-13
)
;
    }
    outlet
    {
        type            calculated;
        value           nonuniform List<scalar> 6(8.93201496334723e-11 7.59700499666724e-11 5.98986616375382e-11 4.33832064141002e-11 2.63884696387092e-11 8.9214051643308e-12);
    }
    Wire
    {
        type            calculated;
        value           nonuniform List<scalar> 
100
(
-7.49154233163119e-14
-2.53861921220244e-13
-3.27813559507261e-13
-3.6482227165629e-13
-3.98143220089785e-13
-4.46834709047566e-13
-4.73756092875337e-13
-4.99259250270865e-13
-5.33962255383362e-13
-5.59389044844763e-13
-5.7893957455301e-13
-6.0220432009178e-13
-6.3068288604758e-13
-6.48555218645516e-13
-6.66332419060061e-13
-6.96933165337136e-13
-7.14262860019505e-13
-7.30633542425671e-13
-7.54360474270089e-13
-7.7849865655168e-13
-7.96892049284448e-13
-8.18274013470241e-13
-8.48363362129434e-13
-8.69532156081882e-13
-8.91107848260123e-13
-9.2258620146562e-13
-9.4872173054405e-13
-9.72289887515506e-13
-1.00394869054521e-12
-1.03965707793531e-12
-1.06698980117775e-12
-1.0984597823078e-12
-1.14661623168752e-12
-1.17891468147976e-12
-1.21203077482807e-12
-1.27045955569153e-12
-1.31250913449276e-12
-1.35082274609837e-12
-1.40583848628042e-12
-1.47339096715997e-12
-1.52124183942187e-12
-1.57237208806377e-12
-1.6626864853742e-12
-1.72350635472403e-12
-1.78528228736227e-12
-1.88405242840646e-12
-1.97027382387536e-12
-2.04687845048401e-12
-2.15108380080494e-12
-2.27432227410368e-12
-2.36689834997254e-12
-2.46927443120564e-12
-2.63671851541659e-12
-2.75358191839457e-12
-2.87346914418672e-12
-3.06516383328943e-12
-3.22283014949823e-12
-3.36597097634296e-12
-3.57138462679133e-12
-3.78327681183483e-12
-3.94698719402674e-12
-4.1309168214276e-12
-4.41233660495602e-12
-4.59127924163239e-12
-4.7754180940472e-12
-5.10909577825914e-12
-5.29423706903782e-12
-5.4728778516035e-12
-5.7605232400302e-12
-5.9533062039116e-12
-6.10397747526663e-12
-6.27875370758704e-12
-6.45144825714882e-12
-6.5069783426454e-12
-6.54153360723155e-12
-6.46450067251156e-12
-6.28164959944127e-12
-6.04243295859498e-12
-5.56472048800742e-12
-4.73625280227811e-12
-3.91859478277248e-12
-2.9030711260988e-12
-5.21515539041052e-13
1.58113533974864e-12
3.91628627617563e-12
8.95831384069987e-12
1.08818756713109e-11
1.22098664284381e-11
1.33742778685511e-11
1.36457790762037e-11
1.3598579288025e-11
1.34185434693409e-11
1.26404400433207e-11
1.19591934126138e-11
1.12324979482243e-11
9.8809402800183e-12
8.75839986802768e-12
7.78221524774854e-12
6.45305001100289e-12
4.85649690648059e-12
)
;
    }
    inlet
    {
        type            calculated;
        value           nonuniform List<scalar> 6(-1.26056419704942e-09 -4.27623604165509e-10 1.594691765015e-10 4.79035927542113e-10 5.1568094458826e-10 2.61613937351181e-10);
    }
    back
    {
        type            wedge;
        value           nonuniform List<scalar> 
600
(
-5.24166944667825e-26
-5.20667448977582e-25
-8.60449293418569e-25
-9.77451574109905e-25
-7.78432927381797e-25
-5.69132471481104e-25
8.84064262322743e-26
-3.12832682761356e-25
-8.79318891579039e-25
-1.0185962396071e-24
-1.02565362438174e-24
-6.52920759593196e-25
1.46224980529729e-25
-3.31092399423015e-25
-9.9941140516194e-25
-1.31743929319643e-24
-1.18552249617617e-24
-6.40419934761175e-25
-1.2248483587978e-25
-4.33291969759225e-25
-1.21140642123357e-24
-1.29035084746115e-24
-1.20921731983584e-24
-5.86154877756708e-25
-8.38353693023399e-26
-5.56452844309815e-25
-1.13372231974097e-24
-1.37643593344429e-24
-1.13083638096888e-24
-5.91882313691672e-25
-1.8639410612208e-25
-5.24738829397873e-25
-1.07335786423428e-24
-1.26644317169539e-24
-1.41344534140514e-24
-5.88448831683639e-25
-4.0149469649407e-26
-5.2593273336152e-25
-1.1003040174615e-24
-1.40767776874203e-24
-1.41490633642029e-24
-4.9865474775954e-25
-9.00818783061601e-27
-4.04659902603876e-25
-1.02337149647796e-24
-1.21165292625894e-24