/*--------------------------------*- C++ -*----------------------------------*\
  =========                 |
  \\      /  F ield         | OpenFOAM: The Open Source CFD Toolbox
   \\    /   O peration     | Website:  https://openfoam.org
    \\  /    A nd           | Version:  8
     \\/     M anipulation  |
\*---------------------------------------------------------------------------*/
FoamFile
{
    version     2.0;
    format      ascii;
    class       volVectorField;
    location    "0.0065000";
    object      cellDisplacement;
}
// * * * * * * * * * * * * * * * * * * * * * * * * * * * * * * * * * * * * * //

dimensions      [0 1 0 0 0 0 0];

internalField   nonuniform List<vector> 
900
(
(0 -1.60342143559477e-07 -4.88119170146416e-15)
(0 -1.6268182129128e-07 -4.56716729479949e-15)
(0 -1.66883881183114e-07 -5.66354469199985e-16)
(0 -1.71898750935957e-07 -5.69308549802316e-15)
(0 -1.77428569497214e-07 7.7071250069756e-15)
(0 -1.83562031888496e-07 2.06247191729166e-14)
(0 -1.90251090968573e-07 1.19270029885981e-14)
(0 -1.97320657608993e-07 4.24153372971647e-15)
(0 -2.04820549345741e-07 9.18017275295812e-15)
(0 -2.12762848299268e-07 7.86960286220181e-15)
(0 -2.21048169431261e-07 -1.45610270893448e-15)
(0 -2.29648321045159e-07 -1.2702032214208e-16)
(0 -2.38623472113701e-07 7.28730043744963e-15)
(0 -2.47935597266894e-07 -5.42061996935998e-15)
(0 -2.57507623686171e-07 -1.20845713751024e-14)
(0 -2.67418024948066e-07 1.80083546744178e-15)
(0 -2.7767159497224e-07 1.04529280845995e-15)
(0 -2.8818608562584e-07 -1.08706008052679e-14)
(0 -2.99007433381105e-07 -9.98636419734002e-15)
(0 -3.10178678128013e-07 6.7972251028156e-15)
(0 -3.2165110414608e-07 4.1804027754365e-15)
(0 -3.33410219873112e-07 1.29741079928356e-15)
(0 -3.45544080827354e-07 -4.64079360945385e-16)
(0 -3.58042948177456e-07 -2.9707908107959e-15)
(0 -3.70834693112016e-07 1.04134536698124e-14)
(0 -3.84026358256117e-07 2.01430055044419e-14)
(0 -3.97650952883915e-07 1.0468159454725e-14)
(0 -4.11624384659111e-07 -2.66784250158671e-16)
(0 -4.26009000768172e-07 -1.58743957169578e-15)
(0 -4.40888935648166e-07 -8.8547818396237e-16)
(0 -4.56217484904095e-07 6.39457276594972e-16)
(0 -4.7197116165842e-07 -1.92385612450074e-16)
(0 -4.88298666530574e-07 -6.11673820765398e-15)
(0 -5.05204010380985e-07 -6.02339960745618e-15)
(0 -5.22580693086725e-07 -6.85008887491405e-15)
(0 -5.40604846964797e-07 -7.92574932716865e-15)
(0 -5.5934885130488e-07 4.44510214286141e-16)
(0 -5.78688995289858e-07 -1.06093245498771e-14)
(0 -5.98722313816081e-07 -6.21383732915142e-15)
(0 -6.19612947540796e-07 1.22106733363936e-14)
(0 -6.41299870779996e-07 1.00164440101273e-14)
(0 -6.6373203504884e-07 -9.58407479357726e-15)
(0 -6.87195507210661e-07 -1.88936088856686e-14)
(0 -7.11718660495107e-07 2.00098770069989e-15)
(0 -7.37106145572387e-07 1.97633107342632e-15)
(0 -7.63676518636284e-07 -4.97256287273006e-15)
(0 -7.91581188262684e-07 -5.17814773621011e-15)
(0 -8.20609923088309e-07 1.78462392457093e-15)
(0 -8.50935753790998e-07 4.62273277615917e-15)
(0 -8.82881150887464e-07 4.96899660207207e-15)
(0 -9.1634123050114e-07 7.67779245173983e-15)
(0 -9.51204114996331e-07 -3.58740029152806e-15)
(0 -9.88022690078847e-07 -1.23872390882677e-14)
(0 -1.02687234968738e-06 -8.6065362270142e-15)
(0 -1.06737577478314e-06 1.33980866276051e-14)
(0 -1.11004329734833e-06 2.01702389720543e-14)
(0 -1.15516359218321e-06 2.03698098586615e-14)
(0 -1.20240412679216e-06 7.04365351908829e-15)
(0 -1.25203670498697e-06 -7.15224071358765e-15)
(0 -1.30455304011623e-06 -3.34847776320156e-15)
(0 -1.35970174002985e-06 -1.0490458341813e-14)
(0 -1.417287186977e-06 -8.2007500974976e-15)
(0 -1.47818003872714e-06 -1.17854119517635e-14)
(0 -1.54237577896405e-06 -1.50817103496337e-14)
(0 -1.6091581472568e-06 4.61281592077001e-15)
(0 -1.67924888350924e-06 7.89016873867577e-15)
(0 -1.75286015282349e-06 -1.35933351006017e-16)
(0 -1.82925972586992e-06 -2.90867957236861e-15)
(0 -1.90860196501008e-06 2.07290418315359e-15)
(0 -1.99118389970688e-06 1.15492484431206e-14)
(0 -2.07638466816111e-06 2.22829256123615e-15)
(0 -2.16371452780871e-06 -2.27959090289546e-14)
(0 -2.253184518178e-06 -1.86949367263046e-14)
(0 -2.34399568596698e-06 5.98840449429646e-15)
(0 -2.43523721624052e-06 -6.14174900873505e-15)
(0 -2.525914222804e-06 -5.27752081928865e-15)
(0 -2.61445878234106e-06 3.12942099310678e-17)
(0 -2.69981117746202e-06 -3.75099971129899e-15)
(0 -2.77996556274226e-06 1.63264365264542e-14)
(0 -2.85060143152314e-06 1.28285703399411e-14)
(0 -2.9092339850485e-06 -5.24131232117941e-15)
(0 -2.95440201308341e-06 -2.30393242089034e-15)
(0 -2.97631513398956e-06 5.53928057258985e-15)
(0 -2.96744057912592e-06 -5.96246474392481e-15)
(0 -2.92640690690826e-06 -9.73328333384889e-15)
(0 -2.83260426715293e-06 -8.99816368294679e-16)
(0 -2.69237587454993e-06 1.57614318691414e-14)
(0 -2.53289012507932e-06 2.24128342011777e-14)
(0 -2.3568178431249e-06 6.68839522125128e-15)
(0 -2.1689793075425e-06 -5.719017106228e-15)
(0 -1.97782428002783e-06 -3.59403034937159e-15)
(0 -1.78819231967025e-06 8.83461375380599e-15)
(0 -1.60480865868709e-06 1.03136996907448e-14)
(0 -1.43033370490952e-06 3.56234072454855e-15)
(0 -1.26447659584253e-06 1.53753186112829e-15)
(0 -1.11190373603825e-06 -8.16565462282499e-15)
(0 -9.75554213286875e-07 -1.02265599429502e-16)
(0 -8.53183529224203e-07 1.02888180467601e-14)
(0 -7.467086465721e-07 5.6021810494237e-15)
(0 -6.6122519127952e-07 7.14221992526294e-16)
(0 -2.71395017810274e-07 -1.43737778988965e-14)
(0 -2.73332226839735e-07 -1.34671190494161e-14)
(0 -2.76907489631424e-07 -1.65701624679475e-15)
(0 -2.81192198252223e-07 -1.68140401226072e-14)
(0 -2.85927488560436e-07 2.26316731000982e-14)
(0 -2.91190545364118e-07 6.07946940345448e-14)
(0 -2.96939414009308e-07 3.52105870897341e-14)
(0 -3.03021899895553e-07 1.25056185201893e-14)
(0 -3.09481483821326e-07 2.70682330067763e-14)
(0 -3.16328713528211e-07 2.32521097051487e-14)
(0 -3.23477062560827e-07 -4.27947710877244e-15)
(0 -3.30902080408759e-07 -4.053476313171e-16)
(0 -3.38656318847443e-07 2.15388338283511e-14)
(0 -3.46706675124108e-07 -1.59489234608615e-14)
(0 -3.54986143191109e-07 -3.57183960487679e-14)
(0 -3.63563224728616e-07 5.28861448224345e-15)
(0 -3.7244210109153e-07 3.13208839701871e-15)
(0 -3.81551203490394e-07 -3.20935566578332e-14)
(0 -3.90930785186087e-07 -2.95732015978317e-14)
(0 -4.00618418103602e-07 2.00606016687004e-14)
(0 -4.10571653081762e-07 1.23753201338523e-14)
(0 -4.20778093225411e-07 3.84946456221898e-15)
(0 -4.31314709827678e-07 -1.35974733700918e-15)
(0 -4.42173041925658e-07 -8.82761529518562e-15)
(0 -4.5329030750899e-07 3.07467114771031e-14)
(0 -4.64760125989293e-07 5.96208391978152e-14)
(0 -4.76611450557299e-07 3.10452631956898e-14)
(0 -4.88770995797534e-07 -7.594074169689e-16)
(0 -5.01293406093013e-07 -4.69985839548378e-15)
(0 -5.14252369424896e-07 -2.6293147101797e-15)
(0 -5.27607188159784e-07 1.89329993368093e-15)
(0 -5.41337579471606e-07 -5.49047307380832e-16)
(0 -5.55573830970291e-07 -1.81136488850465e-14)
(0 -5.70319558507234e-07 -1.78524642219254e-14)
(0 -5.85481752019127e-07 -2.03040838795809e-14)
(0 -6.01214883129744e-07 -2.35269185191867e-14)
(0 -6.17582444882501e-07 1.33201800642609e-15)
(0 -6.34476323524735e-07 -3.14603821995797e-14)
(0 -6.51981908337131e-07 -1.85052322212055e-14)
(0 -6.70243146688983e-07 3.62004342480675e-14)
(0 -6.89206750408163e-07 2.97978688214219e-14)
(0 -7.08828419991535e-07 -2.83790390845827e-14)
(0 -7.2935908784605e-07 -5.61466415618447e-14)
(0 -7.50823930610677e-07 5.89140740264819e-15)
(0 -7.73052057784635e-07 5.89186782592441e-15)
(0 -7.96323144616364e-07 -1.4757774163835e-14)
(0 -8.20770328685045e-07 -1.54094483209364e-14)
(0 -8.46209620339245e-07 5.27940524463681e-15)
(0 -8.72793251438386e-07 1.37364460622783e-14)
(0 -9.00804441039703e-07 1.47683933344462e-14)
(0 -9.30151769189032e-07 2.28623575069376e-14)
(0 -9.60737723694366e-07 -1.06193975947174e-14)
(0 -9.93047564382541e-07 -3.68483504588286e-14)
(0 -1.02714833862528e-06 -2.56861958697035e-14)
(0 -1.06270979058669e-06 3.98093143390324e-14)
(0 -1.10017986619207e-06 6.00376671444254e-14)
(0 -1.13981288493494e-06 6.06976100610775e-14)
(0 -1.18131810079187e-06 2.10530426030171e-14)
(0 -1.22493477484125e-06 -2.12823182278322e-14)
(0 -1.27109426111009e-06 -9.96791496245276e-15)
(0 -1.31957777172709e-06 -3.12530188933409e-14)
(0 -1.37021628910766e-06 -2.44423546378462e-14)
(0 -1.42377081440458e-06 -3.51207991790201e-14)
(0 -1.48024046198112e-06 -4.50190706246802e-14)
(0 -1.53900003933149e-06 1.36997378641502e-14)
(0 -1.60067871001943e-06 2.3551282256936e-14)
(0 -1.66546664992701e-06 -3.77810854876875e-16)
(0 -1.73272531652896e-06 -8.68652056726392e-15)
(0 -1.80258350664708e-06 6.15004378018509e-15)
(0 -1.8753057800896e-06 3.44794891714905e-14)
(0 -1.95035124047366e-06 6.7412618739766e-15)
(0 -2.02728352830404e-06 -6.80277166745853e-14)
(0 -2.10611257637525e-06 -5.59141662568397e-14)
(0 -2.1861405818322e-06 1.78587552324699e-14)
(0 -2.2665609290221e-06 -1.83229377155524e-14)
(0 -2.34649941906104e-06 -1.57859029708067e-14)
(0 -2.42457896706966e-06 8.96835366295066e-17)
(0 -2.49985094447804e-06 -1.12504769495849e-14)
(0 -2.57054002783846e-06 4.87594136689428e-14)
(0 -2.63287518832147e-06 3.83957133591281e-14)
(0 -2.68465101317561e-06 -1.56319021566679e-14)
(0 -2.72446468844892e-06 -6.91067687266686e-15)
(0 -2.7438013760489e-06 1.65542153411419e-14)
(0 -2.73608231974635e-06 -1.77738182996949e-14)
(0 -2.69971558595201e-06 -2.90443513055929e-14)
(0 -2.61714991130607e-06 -2.71480402261915e-15)
(0 -2.4944628081082e-06 4.70666021132363e-14)
(0 -2.35410952963388e-06 6.70115373716619e-14)
(0 -2.1990688275648e-06 2.00330131836473e-14)
(0 -2.03372439075984e-06 -1.71040377220843e-14)
(0 -1.8653600233086e-06 -1.0775012744416e-14)
(0 -1.69827380582422e-06 2.64518506599607e-14)
(0 -1.53667474858264e-06 3.09068863403362e-14)
(0 -1.38286069777591e-06 1.06802772422316e-14)
(0 -1.23663193120996e-06 4.61385203383926e-15)
(0 -1.10213800808401e-06 -2.44872451887072e-14)
(0 -9.81897978149373e-07 -3.13380647441863e-16)
(0 -8.73966975830799e-07 3.08588220072679e-14)
(0 -7.80052413746658e-07 1.68106484006442e-14)
(0 -7.0427871610905e-07 2.14213468857184e-15)
(0 -3.79869362805744e-07 -2.36497609011011e-14)
(0 -3.81438199376807e-07 -2.22110393328837e-14)
(0 -3.84425303070169e-07 -2.68970861617299e-15)
(0 -3.88021957777655e-07 -2.78028077893406e-14)
(0 -3.92006170982086e-07 3.69965312238266e-14)
(0 -3.96443540827536e-07 1.00095985334706e-13)
(0 -4.01298240008207e-07 5.81265875250359e-14)
(0 -4.06440392202273e-07 2.05876679649907e-14)
(0 -4.11907054577502e-07 4.45594407926907e-14)
(0 -4.17707289091022e-07 3.84176453723912e-14)
(0 -4.23767211934167e-07 -6.99984726440339e-15)
(0 -4.30065961050956e-07 -7.62198559675433e-16)
(0 -4.36648498677715e-07 3.55841773998557e-14)
(0 -4.43486585826992e-07 -2.61218371301676e-14)
(0 -4.50523035361872e-07 -5.89811781508071e-14)
(0 -4.57816460500343e-07 8.63081373372414e-15)
(0 -4.65370525218155e-07 5.29752136115531e-15)
(0 -4.73124114349014e-07 -5.28488850588803e-14)
(0 -4.81111730401506e-07 -4.89547814535617e-14)
(0 -4.89365633564112e-07 3.30018890578809e-14)
(0 -4.97849586027956e-07 2.04620923936729e-14)
(0 -5.06553095976113e-07 6.38845086694188e-15)
(0 -5.15542179088093e-07 -2.20646446624225e-15)
(0 -5.24809707894233e-07 -1.46840889262756e-14)
(0 -5.34302053814958e-07 5.05660112531099e-14)
(0 -5.4409952723009e-07 9.84516754495384e-14)
(0 -5.54227103714543e-07 5.14229443373594e-14)
(0 -5.64622123296845e-07 -1.17110455254751e-15)
(0 -5.7533155872063e-07 -7.75958972689501e-15)
(0 -5.86418772594371e-07 -4.36145997900844e-15)
(0 -5.97849027275317e-07 3.12521909251788e-15)
(0 -6.09605108731889e-07 -8.49042648440393e-16)
(0 -6.21798968528892e-07 -2.98947209388661e-14)
(0 -6.34433941626402e-07 -2.94976090709774e-14)
(0 -6.47430402840353e-07 -3.35461207648289e-14)
(0 -6.60921140386649e-07 -3.89572607525055e-14)
(0 -6.74960957841583e-07 2.24212895144129e-15)
(0 -6.89457242168179e-07 -5.199011842284e-14)
(0 -7.04483537390322e-07 -3.07806395855716e-14)
(0 -7.20163834431938e-07 5.97819850523802e-14)
(0 -7.36452641867674e-07 4.94615672889139e-14)
(0 -7.53312153657212e-07 -4.6762770528082e-14)
(0 -7.70958371282442e-07 -9.30127178161166e-14)
(0 -7.89413377698885e-07 9.6256430907256e-15)
(0 -8.08530519438348e-07 9.80384530007649e-15)
(0 -8.28550634568267e-07 -2.43883327670976e-14)
(0 -8.49588782546922e-07 -2.55620475390475e-14)
(0 -8.71487094264919e-07 8.68168445713658e-15)
(0 -8.94376855040051e-07 2.2730816966782e-14)
(0 -9.1850237518806e-07 2.44412305797677e-14)
(0 -9.43785545719079e-07 3.79349519562717e-14)
(0 -9.70142802484131e-07 -1.74723478799384e-14)
(0 -9.97992515448272e-07 -6.10357487425847e-14)
(0 -1.02739325564549e-06 -4.27331256298161e-14)
(0 -1.05806100584743e-06 6.58209506520356e-14)
(0 -1.09038210786804e-06 9.94897224924445e-14)
(0 -1.12457668371769e-06 1.0071676993071e-13)
(0 -1.16039488568755e-06 3.50683341170378e-14)
(0 -1.19804326693237e-06 -3.52430398577892e-14)
(0 -1.23789460041434e-06 -1.65112064874625e-14)
(0 -1.27976146134371e-06 -5.1821134249053e-14)
(0 -1.32349831434235e-06 -4.05443199743272e-14)
(0 -1.36976201521924e-06 -5.8240953899629e-14)
(0 -1.41855348791397e-06 -7.48035000745891e-14)
(0 -1.46933389752394e-06 2.26221554543167e-14)
(0 -1.52264653348157e-06 3.91216297599085e-14)
(0 -1.57865708744377e-06 -5.73405885264422e-16)
(0 -1.63681479912849e-06 -1.44354690954374e-14)
(0 -1.69723111818564e-06 1.01414420290953e-14)
(0 -1.76013585361636e-06 5.72659141633769e-14)
(0 -1.8250624843047e-06 1.13624080191829e-14)
(0 -1.89163427025714e-06 -1.12915443949144e-13)
(0 -1.95986070225076e-06 -9.30299213335795e-14)
(0 -2.02913938707198e-06 2.96195298894644e-14)
(0 -2.09877335250518e-06 -3.03993096859118e-14)
(0 -2.16800713150698e-06 -2.62610880573996e-14)
(0 -2.23564994230307e-06 1.42862133062523e-16)
(0 -2.30088097953685e-06 -1.87663020983598e-14)
(0 -2.36216529145499e-06 8.09762431026951e-14)
(0 -2.4162405990429e-06 6.39009355046211e-14)
(0 -2.46119532784129e-06 -2.59246064020207e-14)
(0 -2.49581334189574e-06 -1.15208846424912e-14)
(0 -2.51272764292816e-06 2.75099706406446e-14)
(0 -2.5062366210622e-06 -2.94681124040912e-14)
(0 -2.47495220142842e-06 -4.81965950339936e-14)
(0 -2.40369110173785e-06 -4.58912878713066e-15)
(0 -2.29769940945949e-06 7.81479775138939e-14)
(0 -2.17624825277552e-06 1.11387461292367e-13)
(0 -2.04206439541867e-06 3.33591556035839e-14)
(0 -1.89894835515815e-06 -2.8434942727551e-14)
(0 -1.75320264150728e-06 -1.79530669128366e-14)
(0 -1.60854966760426e-06 4.40168415352429e-14)
(0 -1.46863586705233e-06 5.14709747690438e-14)
(0 -1.33545304999318e-06 1.77940364812941e-14)
(0 -1.20883033999317e-06 7.69731360919905e-15)
(0 -1.09236247581137e-06 -4.08036336646438e-14)
(0 -9.88233167176706e-07 -5.31083114169615e-16)
(0 -8.94760301680003e-07 5.14251516046626e-14)
(0 -8.13424146851836e-07 2.80280673445391e-14)
(0 -7.47802506377804e-07 3.59515711522219e-15)
(0 -4.85879887666015e-07 -3.2720653105214e-14)
(0 -4.87114438399752e-07 -3.08383208669628e-14)
(0 -4.89550620537207e-07 -3.64410093005271e-15)
(0 -4.92498905534229e-07 -3.87416931110146e-14)
(0 -4.95772714315813e-07 5.06733507946582e-14)
(0 -4.99426416796154e-07 1.38572463441035e-13)
(0 -5.03430286517149e-07 8.07815113644789e-14)
(0 -5.07675988931187e-07 2.84927082967977e-14)
(0 -5.12194281375804e-07 6.1658276512858e-14)
(0 -5.16992848204148e-07 5.34438929296339e-14)
(0 -5.22010114695267e-07 -9.59177011031553e-15)
(0 -5.27228611833955e-07 -1.24959155073234e-15)
(0 -5.32685897497341e-07 4.94841050514734e-14)
(0 -5.38358508157506e-07 -3.58593312465592e-14)
(0 -5.44198713752455e-07 -8.19483516904325e-14)
(0 -5.50255483110503e-07 1.17831117147526e-14)
(0 -5.5653202706486e-07 7.61402866815089e-15)
(0 -5.62977322317492e-07 -7.31125337798424e-14)
(0 -5.69620206529705e-07 -6.82411553025099e-14)
(0 -5.76487800847447e-07 4.55850619635325e-14)
(0 -5.8354989860483e-07 2.84700139203673e-14)
(0 -5.90797748095739e-07 8.93522854909574e-15)
(0 -5.98286661474896e-07 -2.98465341826903e-15)
(0 -6.06010847798255e-07 -2.06034651036944e-14)
(0 -6.13925514823162e-07 6.97886947796226e-14)
(0 -6.22097911332138e-07 1.36672729202956e-13)
(0 -6.30549134722076e-07 7.16963148692104e-14)
(0 -6.39226848682602e-07 -1.46067574204305e-15)
(0 -6.48170436312129e-07 -1.07668930056687e-14)
(0 -6.57433144078724e-07 -6.09207998174018e-15)
(0 -6.66986048361153e-07 4.33450997211295e-15)
(0 -6.7681477862638e-07 -1.06359090428805e-15)
(0 -6.87013278757088e-07 -4.14478553995125e-14)
(0 -6.97584671992705e-07 -4.09607585424953e-14)
(0 -7.08462295859335e-07 -4.6574664527688e-14)
(0 -7.19757561935059e-07 -5.42551932670575e-14)
(0 -7.31516795248057e-07 3.19591579176234e-15)
(0 -7.4366245863567e-07 -7.2192120541791e-14)
(0 -7.56256295086015e-07 -4.31282499929817e-14)
(0 -7.69402702827565e-07 8.29206437442846e-14)
(0 -7.83063824807613e-07 6.90924569732268e-14)
(0 -7.97207999309506e-07 -6.4654584698669e-14)
(0 -8.12016789611831e-07 -1.29553254176744e-13)
(0 -8.27509280674465e-07 1.31508487861434e-14)
(0 -8.43562423561192e-07 1.37365115791515e-14)
(0 -8.60378629329567e-07 -3.38488141163641e-14)
(0 -8.78055208496793e-07 -3.56605888044306e-14)
(0 -8.96459858314015e-07 1.19667350965986e-14)
(0 -9.15702951277345e-07 3.16003939660018e-14)
(0 -9.35990369376305e-07 3.39807400645345e-14)
(0 -9.57257072037277e-07 5.2925655386852e-14)
(0 -9.79432949687947e-07 -2.40979541546029e-14)
(0 -1.00287018571104e-06 -8.49453275789574e-14)
(0 -1.02761895621415e-06 -5.98175529787731e-14)
(0 -1.05344059851906e-06 9.13751399579094e-14)
(0 -1.08066033873764e-06 1.38519211574478e-13)
(0 -1.10946446410722e-06 1.40466911107489e-13)
(0 -1.1396433241375e-06 4.91514540580091e-14)
(0 -1.17137074741367e-06 -4.90186901123281e-14)
(0 -1.20496141017727e-06 -2.29703874634263e-14)
(0 -1.24025887895315e-06 -7.21908777858655e-14)
(0 -1.27714041320135e-06 -5.65056190760565e-14)
(0 -1.31615941475226e-06 -8.11362003060576e-14)
(0 -1.35731861560443e-06 -1.04472040680949e-13)
(0 -1.40016441757057e-06 3.13444165163673e-14)
(0 -1.44515470507837e-06 5.46123300948228e-14)
(0 -1.49243076786288e-06 -7.06242767910351e-16)
(0 -1.54152857187927e-06 -2.01602562489299e-14)
(0 -1.59254214857664e-06 1.40260199218783e-14)
(0 -1.64566670845064e-06 7.99136855957388e-14)
(0 -1.70050932033434e-06 1.61394570599357e-14)
(0 -1.75675233891438e-06 -1.5744279700355e-13)
(0 -1.81440475170017e-06 -1.30087717526085e-13)
(0 -1.87295885375029e-06 4.1261418694026e-14)
(0 -1.93182666640839e-06 -4.23633108492744e-14)
(0 -1.99037085264588e-06 -3.67141393358333e-14)
(0 -2.04758607317476e-06 1.89789454393003e-16)
(0 -2.10277918236907e-06 -2.63195867274988e-14)
(0 -2.15465488620864e-06 1.12991548290054e-13)
(0 -2.20045751617232e-06 8.93909895370565e-14)
(0 -2.23856955929736e-06 -3.61212175844445e-14)
(0 -2.26796370203845e-06 -1.61537280670868e-14)
(0 -2.2824162225447e-06 3.84411000184852e-14)
(0 -2.27710210023317e-06 -4.10756734361504e-14)
(0 -2.25084435570295e-06 -6.73066981976185e-14)
(0 -2.19080377369051e-06 -6.52870785811974e-15)
(0 -2.10137943562247e-06 1.09116090171028e-13)
(0 -1.99876303355316e-06 1.55677524753042e-13)
(0 -1.88537468657039e-06 4.66963539230074e-14)
(0 -1.76442646463153e-06 -3.97295431216993e-14)
(0 -1.64124460548473e-06 -2.51340398446228e-14)
(0 -1.51897624767515e-06 6.15347030165816e-14)
(0 -1.40070487268776e-06 7.20027809318701e-14)
(0 -1.28811604095348e-06 2.49020990243006e-14)
(0 -1.18106641285831e-06 1.07833371091382e-14)
(0 -1.08259626876659e-06 -5.70927443677029e-14)
(0 -9.9455390586699e-07 -7.55891594414348e-16)
(0 -9.15518729807261e-07 7.19580423048566e-14)
(0 -8.46743403827385e-07 3.92296436611033e-14)
(0 -7.91256620138634e-07 5.04586250292883e-15)
(0 -5.8953571079325e-07 -4.15969056695294e-14)
(0 -5.90469776008966e-07 -3.9387361688985e-14)
(0 -5.92390280683354e-07 -4.49966519095133e-15)
(0 -5.94727454020936e-07 -4.97072709788806e-14)
(0 -5.97329062428773e-07 6.35358973673986e-14)
(0 -6.00238622341303e-07 1.76262031718032e-13)
(0 -6.03432404341827e-07 1.03278394366423e-13)
(0 -6.06822929896679e-07 3.62268467302709e-14)
(0 -6.10434818289107e-07 7.83674568342655e-14)
(0 -6.14274435800673e-07 6.84053561539656e-14)
(0 -6.18292181250339e-07 -1.20286357565243e-14)
(0 -6.22473838822355e-07 -1.91855153398863e-15)
(0 -6.26849741439443e-07 6.32952099998376e-14)
(0 -6.31401085093739e-07 -4.50816256376195e-14)
(0 -6.36089287190797e-07 -1.04690876199952e-13)
(0 -6.40953907938663e-07 1.47003214079692e-14)
(0 -6.45997726474708e-07 1.01509243322485e-14)
(0 -6.51179496953496e-07 -9.28581908255181e-14)
(0 -6.56522495053979e-07 -8.75379969264656e-14)
(0 -6.62048829967216e-07 5.77730653452348e-14)
(0 -6.67734153798755e-07 3.64266958338851e-14)
(0 -6.73571338295649e-07 1.15101104554946e-14)
(0 -6.79605221467744e-07 -3.67412948217124e-15)
(0 -6.85831315110456e-07 -2.66457673203508e-14)
(0 -6.92213389505622e-07 8.83327257403604e-14)
(0 -6.98805882995684e-07 1.74317332435206e-13)
(0 -7.05626077495048e-07 9.19575442865774e-14)
(0 -7.12631682102877e-07 -1.5868837372819e-15)
(0 -7.19854591467649e-07 -1.37213869847242e-14)
(0 -7.27338113688283e-07 -7.83105209576244e-15)
(0 -7.35058984814693e-07 5.51998703625145e-15)
(0 -7.43005514166804e-07 -1.16476609975029e-15)
(0 -7.51253948952074e-07 -5.2760714975723e-14)
(0 -7.59807194673246e-07 -5.22434734341125e-14)
(0 -7.68611200030469e-07 -5.93875576175254e-14)
(0 -7.77756318801689e-07 -6.94582091158162e-14)
(0 -7.87280528664494e-07 4.21347094621074e-15)
(0 -7.97120997216728e-07 -9.2058505423553e-14)
(0 -8.07327762971541e-07 -5.56336665599136e-14)
(0 -8.17985920820301e-07 1.0558021121691e-13)
(0 -8.29065061123038e-07 8.87720529706904e-14)
(0 -8.4053941056093e-07 -8.19736362010221e-14)
(0 -8.5255656237113e-07 -1.65826386172654e-13)
(0 -8.65132600581751e-07 1.64143048491901e-14)
(0 -8.78167558354687e-07 1.77129385035772e-14)
(0 -8.91825856785424e-07 -4.31234530909314e-14)
(0 -9.06187263798755e-07 -4.57286259545179e-14)
(0 -9.21144526117355e-07 1.51100356039842e-14)
(0 -9.36787228075468e-07 4.03395006869586e-14)
(0 -9.53283231054329e-07 4.33797376233811e-14)
(0 -9.70580265567887e-07 6.78631242104035e-14)
(0 -9.88621295816445e-07 -3.04483522922051e-14)
(0 -1.00769300189551e-06 -1.08571520968544e-13)
(0 -1.02783712281053e-06 -7.70074952293949e-14)
(0 -1.04885958471081e-06 1.1641377712379e-13)
(0 -1.07102503021295e-06 1.77117457759226e-13)
(0 -1.0944861249617e-06 1.79985169902336e-13)
(0 -1.11907274129218e-06 6.33631609929352e-14)
(0 -1.14492611110133e-06 -6.25930778676693e-14)
(0 -1.17230320972607e-06 -2.93373563537167e-14)
(0 -1.20107806032128e-06 -9.235730686512e-14)
(0 -1.23115025421086e-06 -7.23248754627392e-14)
(0 -1.26297048786358e-06 -1.03796284025334e-13)
(0 -1.29654302419962e-06 -1.34059282792967e-13)
(0 -1.33149849797569e-06 3.98305082898924e-14)
(0 -1.36820991914932e-06 7.00332384917126e-14)
(0 -1.40679407409811e-06 -7.59934300996049e-16)
(0 -1.44687274184998e-06 -2.5864961640931e-14)
(0 -1.48852251397641e-06 1.77827369994958e-14)
(0 -1.53190398990356e-06 1.02424953591926e-13)
(0 -1.57669709985372e-06 2.1119026757171e-14)
(0 -1.62264280143645e-06 -2.01587165959611e-13)
(0 -1.66974938872193e-06 -1.67125139552666e-13)
(0 -1.71760313101376e-06 5.27722394158492e-14)
(0 -1.76572436548743e-06 -5.42040727615331e-14)
(0 -1.81359324763236e-06 -4.71519331802551e-14)
(0 -1.86038901310653e-06 2.2947388203021e-16)
(0 -1.90554573661254e-06 -3.39262668822674e-14)
(0 -1.94800673681281e-06 1.44792693357693e-13)
(0 -1.98552116897852e-06 1.14884628225216e-13)
(0 -2.01676535365685e-06 -4.62108665013169e-14)
(0 -2.04090064708096e-06 -2.08171524073106e-14)
(0 -2.05284324560727e-06 4.93510497413905e-14)
(0 -2.0486443171381e-06 -5.25888552961526e-14)
(0 -2.02733938774463e-06 -8.63814085153849e-14)
(0 -1.97842808742556e-06 -8.54414439782274e-15)
(0 -1.90546702587209e-06 1.39976081366647e-13)
(0 -1.82163065565991e-06 1.99887725446623e-13)
(0 -1.72898352299904e-06 6.00465690445079e-14)
(0 -1.63014959404728e-06 -5.09882611320604e-14)
(0 -1.52948118722138e-06 -3.23187675694283e-14)
(0 -1.42955109089016e-06 7.90052676993857e-14)
(0 -1.33288052706439e-06 9.25026827246741e-14)
(0 -1.2408487401209e-06 3.20047595534323e-14)
(0 -1.1533394449807e-06 1.38723766510329e-14)
(0 -1.07283892949896e-06 -7.33546963965465e-14)
(0 -1.00085991178214e-06 -9.88340682537858e-16)
(0 -9.36242324661478e-07 9.24576973049893e-14)
(0 -8.80011142861935e-07 5.04159338356191e-14)
(0 -8.34645646678429e-07 6.49457519712603e-15)
(0 -6.90938756600366e-07 -5.02875787228222e-14)
(0 -6.91605911931262e-07 -4.78957260324279e-14)
(0 -6.9304423705177e-07 -5.23531457793794e-15)
(0 -6.94805369127106e-07 -6.07696097315796e-14)
(0 -6.96770747042666e-07 7.54593127578675e-14)
(0 -6.98973426136582e-07 2.13195419941533e-13)
(0 -7.01395496808087e-07 1.25717007205969e-13)
(0 -7.03969737151257e-07 4.3797693455453e-14)
(0 -7.06714824872755e-07 9.4687525822313e-14)
(0 -7.09635823123044e-07 8.33732918017282e-14)
(0 -7.12694768159212e-07 -1.42820421377982e-14)
(0 -7.15880606479317e-07 -2.81935922480597e-15)
(0 -7.19216622595052e-07 7.70693238274414e-14)
(0 -7.22688529716659e-07 -5.3708530395233e-14)
(0 -7.26266632678259e-07 -1.27274751703996e-13)
(0 -7.29981311221229e-07 1.73357302687381e-14)
(0 -7.33834892761122e-07 1.29741286000804e-14)
(0 -7.37795640169932e-07 -1.1205650268239e-13)
(0 -7.41881386510023e-07 -1.06946425741774e-13)
(0 -7.46109312983399e-07 6.95273073100511e-14)
(0 -7.50460763696711e-07 4.43578512553877e-14)
(0 -7.54930166088603e-07 1.41328786732677e-14)
(0 -7.59552089953184e-07 -4.25372248439161e-15)
(0 -7.64323280998524e-07 -3.2867392406437e-14)
(0 -7.69215842191479e-07 1.06116373738453e-13)
(0 -7.74271652382047e-07 2.11414415834054e-13)
(0 -7.79504207922893e-07 1.12295940136917e-13)
(0 -7.84881006972545e-07 -1.5081245894809e-15)
(0 -7.9042657680785e-07 -1.66218736460301e-14)
(0 -7.96174433647211e-07 -9.58797091289918e-15)
(0 -8.02106808827506e-07 6.67984286523785e-15)
(0 -8.08214592586284e-07 -1.12554664903391e-15)
(0 -8.1455662331696e-07 -6.38207091194761e-14)
(0 -8.21135517197001e-07 -6.33470338889966e-14)
(0 -8.27909545077122e-07 -7.19819900910289e-14)
(0 -8.3494833641371e-07 -8.46031058061869e-14)
(0 -8.42281576329608e-07 5.31378327172597e-15)
(0 -8.49860815317269e-07 -1.11579784139465e-13)
(0 -8.57724535933821e-07 -6.83798889345374e-14)
(0 -8.65938750163376e-07 1.27722727651644e-13)
(0 -8.74480280230836e-07 1.08578370285437e-13)
(0 -8.83329078899039e-07 -9.86387386351327e-14)
(0 -8.92599212571936e-07 -2.01887073330842e-13)
(0 -9.02303669772919e-07 1.93632608420544e-14)
(0 -9.1236513835048e-07 2.17548702369255e-14)
(0 -9.22910529128098e-07 -5.21961361042191e-14)
(0 -9.34002142471261e-07 -5.57887061000052e-14)
(0 -9.45557299759097e-07 1.80873016097072e-14)
(0 -9.57645008381339e-07 4.89423338935495e-14)
(0 -9.70395445372497e-07 5.26307062589621e-14)
(0 -9.837687624504e-07 8.27747859671e-14)
(0 -9.97720727733109e-07 -3.64762244596516e-14)
(0 -1.01247318019586e-06 -1.31907460250925e-13)
(0 -1.02805926133186e-06 -9.43690665109587e-14)
(0 -1.04432883298801e-06 1.40879006255421e-13)
(0 -1.06148653366322e-06 2.15274812130794e-13)
(0 -1.07965146881236e-06 2.19307259967572e-13)
(0 -1.09869239101358e-06 7.77634474600798e-14)
(0 -1.11871820301797e-06 -7.59497220904817e-14)
(0 -1.13992848757305e-06 -3.56040162143632e-14)
(0 -1.16222703254681e-06 -1.12315445352234e-13)
(0 -1.18553550714269e-06 -8.80007516170344e-14)
(0 -1.21020272921376e-06 -1.26210709902778e-13)
(0 -1.23623392758154e-06 -1.63598892084723e-13)
(0 -1.26334307683415e-06 4.80444888934388e-14)
(0 -1.29181892827656e-06 8.53936263080312e-14)
(0 -1.3217534655331e-06 -7.18179532251267e-16)
(0 -1.35285349964764e-06 -3.15533078610066e-14)
(0 -1.38517824091479e-06 2.13907432038064e-14)
(0 -1.41885348693618e-06 1.24801291099786e-13)
(0 -1.45363135530798e-06 2.63470525821628e-14)
(0 -1.48931096231074e-06 -2.45325501581925e-13)
(0 -1.52589961931009e-06 -2.04179035532787e-13)
(0 -1.56307684461195e-06 6.41395815119658e-14)
(0 -1.60047064398755e-06 -6.59108264177755e-14)
(0 -1.63767798602294e-06 -5.75811410180097e-14)
(0 -1.6740618576706e-06 2.60991158681086e-16)
(0 -1.70918306221386e-06 -4.16019536435113e-14)
(0 -1.742222338078e-06 1.76366470049957e-13)
(0 -1.77143193064087e-06 1.40399673166658e-13)
(0 -1.79578190501445e-06 -5.61823711328687e-14)
(0 -1.81462178806026e-06 -2.55186446392712e-14)
(0 -1.82400420108959e-06 6.02422338465151e-14)
(0 -1.82085646715925e-06 -6.39988705579217e-14)
(0 -1.80442768756841e-06 -1.05423495391394e-13)
(0 -1.76655310301326e-06 -1.06460754974303e-14)
(0 -1.70995787101479e-06 1.70727860251395e-13)
(0 -1.64484781632495e-06 2.44019262857241e-13)
(0 -1.57288810393844e-06 7.34110213988543e-14)
(0 -1.49611540414737e-06 -6.22109202590151e-14)
(0 -1.4179104497426e-06 -3.9508003562716e-14)
(0 -1.34027261120932e-06 9.64282106007963e-14)
(0 -1.26516154595017e-06 1.12971087169825e-13)
(0 -1.19365012282196e-06 3.91023354018513e-14)
(0 -1.12564864940655e-06 1.69649009014756e-14)
(0 -1.06308990222817e-06 -8.95896532731901e-14)
(0 -1.00715081524584e-06 -1.22893363235715e-15)
(0 -9.56930872991091e-07 1.12924175055841e-13)
(0 -9.13227282841183e-07 6.15871695048373e-14)
(0 -8.77969715742381e-07 7.94131035112051e-15)
(0 -7.9018435206758e-07 -5.88001888715511e-14)
(0 -7.90617998358755e-07 -5.64004394410253e-14)
(0 -7.91606124211086e-07 -5.82911069374165e-15)
(0 -7.92824313196405e-07 -7.19915173940217e-14)
(0 -7.94187405609238e-07 8.63195929125416e-14)
(0 -7.95718410659269e-07 2.49395204577572e-13)
(0 -7.97404990710178e-07 1.48194097056581e-13)
(0 -7.99199661287195e-07 5.12148599217817e-14)
(0 -8.01115391533944e-07 1.10616571276145e-13)
(0 -8.03155912871681e-07 9.84156516983397e-14)
(0 -8.0529455928263e-07 -1.63211839005158e-14)
(0 -8.07523399303201e-07 -4.00174000441259e-15)
(0 -8.09858841469561e-07 9.08529430065521e-14)
(0 -8.1229094861984e-07 -6.1658869078218e-14)
(0 -8.14798700190998e-07 -1.4976053321943e-13)
(0 -8.17403516975271e-07 1.96404852647794e-14)
(0 -8.2010721507887e-07 1.61458335604028e-14)
(0 -8.22887340251584e-07 -1.30674331982037e-13)
(0 -8.25756419133669e-07 -1.26562780195971e-13)