/*--------------------------------*- C++ -*----------------------------------*\
  =========                 |
  \\      /  F ield         | OpenFOAM: The Open Source CFD Toolbox
   \\    /   O peration     | Website:  https://openfoam.org
    \\  /    A nd           | Version:  8
     \\/     M anipulation  |
\*---------------------------------------------------------------------------*/
FoamFile
{
    version     2.0;
    format      ascii;
    class       surfaceScalarField;
    location    "0.0065000";
    object      meshPhi;
}
// * * * * * * * * * * * * * * * * * * * * * * * * * * * * * * * * * * * * * //

dimensions      [0 3 -1 0 0 0 0];

internalField   nonuniform List<scalar> 
1094
(
-1.76576860748059e-18
-1.10691205451177e-13
-3.52523343364002e-18
-1.1053492690248e-13
-5.30828364406289e-18
-1.10493635095768e-13
-7.08007532889012e-18
-1.10459645659785e-13
-8.80785426534527e-18
-1.10340816872065e-13
-1.06406919454132e-17
-1.10312603252378e-13
-1.24480235264467e-17
-1.10394960037454e-13
-1.42136669200361e-17
-1.10392379683276e-13
-1.59884993305964e-17
-1.10277936865176e-13
-1.76874597386874e-17
-1.10085094497403e-13
-1.94253814517131e-17
-1.09913886457808e-13
-2.12890013913653e-17
-1.09812022214169e-13
-2.27961798424213e-17
-1.09570842746458e-13
-2.45571553992463e-17
-1.09366367771637e-13
-2.67470301692453e-17
-1.09571538915845e-13
-2.85861531550694e-17
-1.0989314423406e-13
-3.04834370405786e-17
-1.10048327028823e-13
-3.25565840349538e-17
-1.10294261092931e-13
-3.47657038969393e-17
-1.10585689873409e-13
-3.60251790694199e-17
-1.10380141763051e-13
-3.728934090378e-17
-1.09769279206786e-13
-3.94036329963589e-17
-1.0950029457731e-13
-4.13881879991967e-17
-1.09638975465036e-13
-4.32445418916888e-17
-1.09739962823878e-13
-4.51023327093183e-17
-1.09758006694282e-13
-4.7124205129757e-17
-1.09777839089159e-13
-4.86262461471863e-17
-1.09617471833854e-13
-5.00065407065429e-17
-1.09284429858938e-13
-5.2110134913315e-17
-1.09120689527206e-13
-5.39446116367359e-17
-1.09150413060354e-13
-5.59125027725386e-17
-1.09238795702022e-13
-5.83373910531239e-17
-1.09473371110322e-13
-6.05942050952393e-17
-1.09853922061131e-13
-6.33741943475667e-17
-1.10399075245812e-13
-6.61580085938762e-17
-1.10850117408015e-13
-6.64056671186087e-17
-1.10567411480931e-13
-6.76459146209172e-17
-1.0988386090224e-13
-7.04260940933157e-17
-1.09925641714187e-13
-7.47165270691102e-17
-1.10952920739766e-13
-7.8347131579374e-17
-1.12212077929752e-13
-8.07157507278604e-17
-1.12847808439945e-13
-8.1901715999806e-17
-1.12872352975518e-13
-8.53786824968427e-17
-1.13010911858545e-13
-8.7224943578803e-17
-1.13131053818601e-13
-8.79116698963199e-17
-1.13011414051796e-13
-9.36656704173919e-17
-1.137036514122e-13
-9.86712817810401e-17
-1.15318745324758e-13
-1.02280593123936e-16
-1.16631722741074e-13
-1.05196041973855e-16
-1.17293245114402e-13
-1.08160774678093e-16
-1.1769984786864e-13
-1.11075528937792e-16
-1.18039445115639e-13
-1.13299788858806e-16
-1.18052488868557e-13
-1.12481987838822e-16
-1.17124172961752e-13
-1.09544301788766e-16
-1.15061457752531e-13
-1.08430007649351e-16
-1.13543195482974e-13
-1.20902569710252e-16
-1.1525131944077e-13
-1.34365106815274e-16
-1.19912148604049e-13
-1.44898859902949e-16
-1.24442855174486e-13
-1.49100642658934e-16
-1.26683793607247e-13
-1.4815484604459e-16
-1.26454470633179e-13
-1.47316236888637e-16
-1.25079414743758e-13
-1.51252829966862e-16
-1.25172656322034e-13
-1.68560217468268e-16
-1.28029073182038e-13
-1.70492822134502e-16
-1.30134096808415e-13
-1.69725262875777e-16
-1.32261531057961e-13
-2.26157320386458e-16
-1.41744401014117e-13
-2.4714726203115e-16
-1.53639494783133e-13
-2.40398789412405e-16
-1.56730739208524e-13
-2.30626919102016e-16
-1.52491012988117e-13
-2.20514492805483e-16
-1.47321467897144e-13
-2.23618739315444e-16
-1.4524214982211e-13
-2.46848223978902e-16
-1.48585768905757e-13
-2.67435426574325e-16
-1.54713590054294e-13
-2.74367889364733e-16
-1.58439272508575e-13
-2.76183449101445e-16
-1.60069010547215e-13
-3.08546697417235e-16
-1.65195185999369e-13
-3.42892148645847e-16
-1.74631893064495e-13
-3.60286926735373e-16
-1.81383846264329e-13
-3.4638940589304e-16
-1.81978388074679e-13
-3.68156675535148e-16
-1.82598065314865e-13
-3.86386078517145e-16
-1.85870095852326e-13
-3.79391487824684e-16
-1.86743219255241e-13
-3.81095084911809e-16
-1.8462394671829e-13
-3.735793759578e-16
-1.81283652467544e-13
-3.55990772027497e-16
-1.76023812802247e-13
-3.42631923676448e-16
-1.70163442360411e-13
-3.04230857393935e-16
-1.64998113211022e-13
-2.60591216804391e-16
-1.5820440753071e-13
-2.03292025985459e-16
-1.46548434637488e-13
-1.43073528293504e-16
-1.30351354778791e-13
-1.05957934444418e-16
-1.16115562044489e-13
-9.35452773317978e-17
-1.08448424110016e-13
-6.77779005003643e-17
-1.02903004030609e-13
-4.99722975857885e-17
-9.63815278954272e-14
-3.86630391117271e-17
-9.08548726668875e-14
-2.41509355359486e-17
-8.56049894113311e-14
-1.58360230483464e-17
-8.07127910489284e-14
-1.06591632180497e-17
-7.87581586243234e-14
-5.75101410522675e-18
-7.94880826229804e-14
-8.06834880752367e-14
-5.37366024436998e-18
-2.24676572749869e-13
-1.07346038850556e-17
-2.24290424079021e-13
-1.60948074798563e-17
-2.24046211047232e-13
-2.14366716017188e-17
-2.23812862509661e-13
-2.67593132622206e-17
-2.23511196621021e-13
-3.21082504276617e-17
-2.23282874413453e-13
-3.74536292174845e-17
-2.23143978722367e-13
-4.27606483860217e-17
-2.22936446713616e-13
-4.80392414623775e-17
-2.22638187054595e-13
-5.3276872228508e-17
-2.22276631481284e-13
-5.85371651813165e-17
-2.21932633802783e-13
-6.37869632400786e-17
-2.21644163645063e-13
-6.8917631843522e-17
-2.21243810159126e-13
-7.41655382582031e-17
-2.2087396207244e-13
-7.96076053309646e-17
-2.20834606581219e-13
-8.4962633224998e-17
-2.20889936699574e-13
-9.02721242944232e-17
-2.20811649431436e-13
-9.57308939458695e-17
-2.20806109494897e-13
-1.01098193903766e-16
-2.20836100364028e-13
-1.06005148559533e-16
-2.20464616818234e-13
-1.1086381792175e-16
-2.19766373075024e-13
-1.16125380796889e-16
-2.1934365032207e-13
-1.21466636989224e-16
-2.19250309336471e-13
-1.2667648227835e-16
-2.19127375081643e-13
-1.31902119094828e-16
-2.18937467629428e-13
-1.37103129829264e-16
-2.18748380047277e-13
-1.42036187038102e-16
-2.18413819657343e-13
-1.46934798919979e-16
-2.17940486354943e-13
-1.52102674195562e-16
-2.17603416708398e-13
-1.57298037721214e-16
-2.1742272783418e-13
-1.6256286197556e-16
-2.1729037350146e-13
-1.68026316108973e-16
-2.17275958005646e-13
-1.735807700888e-16
-2.17379517218138e-13
-1.79399509677751e-16
-2.17615621442246e-13
-1.84804666114836e-16
-2.17774345621572e-13
-1.89139423939716e-16
-2.17341945223564e-13
-1.93667375582475e-16
-2.16587710318269e-13
-1.99508188585203e-16
-2.16418567251737e-13
-2.06230243450885e-16
-2.1704385890678e-13
-2.12695934702626e-16
-2.17855535319916e-13
-2.18072864991716e-16
-2.18164479780065e-13
-2.2313481572585e-16
-2.17981229049345e-13
-2.2879369493903e-16
-2.17888886259127e-13
-2.33797877906909e-16
-2.17781330519247e-13
-2.38849834195517e-16
-2.17483441435771e-13
-2.45999127600903e-16
-2.17839764029478e-13
-2.53595142066009e-16
-2.18938098056294e-13
-2.60069078956716e-16
-2.19793179903137e-13
-2.6597333831621e-16
-2.20123189908591e-13
-2.71782731973462e-16
-2.20247739449275e-13
-2.77524763032185e-16
-2.20317863450199e-13
-2.82372883097044e-16
-2.20123449189545e-13
-2.85219174692622e-16
-2.19170541019226e-13
-2.86427097386318e-16
-2.17307369101268e-13
-2.90800601739461e-16
-2.15888356994399e-13
-3.02267005658402e-16
-2.17067532496321e-13
-3.16479236507244e-16
-2.20619123498193e-13
-3.27985402900239e-16
-2.24061818782413e-13
-3.34905264354276e-16
-2.25659464862365e-13
-3.38126693937836e-16
-2.2527090750722e-13
-3.41014731174978e-16
-2.23964802534085e-13
-3.49364873650053e-16
-2.23842989461233e-13
-3.62275906413447e-16
-2.25941518383052e-13
-3.68078417820082e-16
-2.27433771756013e-13
-3.81424329806069e-16
-2.28947211265905e-13
-4.15572342849687e-16
-2.3638397427654e-13
-4.39065861231207e-16
-2.45746772683593e-13
-4.39922807511171e-16
-2.48009241657425e-13
-4.34728266229113e-16
-2.44387642811053e-13
-4.31407943311309e-16
-2.40030232451322e-13
-4.38321019717789e-16
-2.38159628969005e-13
-4.57306498806658e-16
-2.40658240516823e-13
-4.76227523690592e-16
-2.4538969031004e-13
-4.85552462737854e-16
-2.48173023210011e-13
-4.95868799239357e-16
-2.49261746832886e-13
-5.20838572343929e-16
-2.53180364230501e-13
-5.50884841231713e-16
-2.60585973005943e-13
-5.6469508996618e-16
-2.65823940724152e-13
-5.67304304383718e-16
-2.66047070462009e-13
-5.81479787575014e-16
-2.66312321770011e-13
-5.96675733935999e-16
-2.68783509633e-13
-5.9961618817922e-16
-2.69261483491878e-13
-6.00630608526674e-16
-2.67337231464577e-13
-5.97512561310747e-16
-2.64481809077856e-13
-5.88576934119071e-16
-2.60038439117613e-13
-5.75852375659875e-16
-2.55132769324888e-13
-5.23271949250885e-16
-2.51015476000739e-13
-4.64990243350398e-16
-2.45630078706691e-13
-3.97524064864657e-16
-2.3626614615568e-13
-3.30194320716447e-16
-2.23181605037208e-13
-2.79943599311153e-16
-2.1169203162821e-13
-2.42503885308198e-16
-2.05526694831782e-13
-2.04009669604022e-16
-2.01051577944931e-13
-1.68019894066272e-16
-1.95768583284417e-13
-1.35927556180266e-16
-1.91284147551291e-13
-1.0458297097594e-16
-1.87040119304698e-13
-7.63769822389239e-17
-1.83108121902886e-13
-5.09064777069935e-17
-1.81522723999639e-13
-2.57083282302162e-17
-1.82066064419441e-13
-1.82889320524078e-13
-9.10192086366147e-18
-3.42508836189628e-13
-1.81772775374877e-17
-3.41844330096926e-13
-2.7236329640675e-17
-3.41356514034854e-13
-3.62649948367062e-17
-3.40880585528599e-13
-4.52625995486645e-17
-3.40353068880406e-13
-5.42649119004601e-17
-3.39881485851282e-13
-6.32485009441886e-17
-3.3947775337104e-13
-7.21858306433739e-17
-3.39021590360854e-13
-8.10847100573946e-17
-3.38496119177293e-13
-8.99355968592776e-17
-3.37922847466148e-13
-9.87882770575762e-17
-3.37363381857751e-13
-1.07616466385961e-16
-3.36845714634261e-13
-1.16335678325187e-16
-3.36243481861322e-13
-1.25131367790882e-16
-3.35665806383286e-13
-1.34063372684556e-16
-3.3533892575192e-13
-1.42911340219249e-16
-3.35082940251542e-13
-1.51707839964043e-16
-3.34725821090922e-13
-1.60605333087946e-16
-3.34424065712745e-13
-1.69413877539742e-16
-3.34147770420198e-13
-1.77845317406285e-16
-3.33566264324621e-13
-1.86223611078706e-16
-3.32738660466123e-13
-1.94902275920837e-16
-3.32121333953557e-13
-2.03627734585659e-16
-3.31753251409413e-13
-2.12234176999389e-16
-3.31362187916585e-13
-2.20836962545385e-16
-3.30920401764085e-13
-2.29403828348307e-16
-3.30478869142695e-13
-2.37744845383908e-16
-3.29926917088892e-13
-2.46043603487376e-16
-3.29270674851775e-13
-2.54537267085435e-16
-3.28718192818531e-13
-2.63037305063285e-16
-3.28283979303174e-13
-2.71576541967784e-16
-3.27886704030463e-13
-2.80255769973091e-16
-3.27579272724037e-13
-2.88990876026981e-16
-3.27361179477839e-13
-2.97915897472201e-16
-3.27242466718164e-13
-3.06498613006353e-16
-3.27063391280598e-13
-3.1422830457455e-16
-3.2643691018969e-13
-3.22095815647877e-16
-3.25569719113565e-13
-3.30978131652944e-16
-3.25147619935117e-13
-3.40533816081741e-16
-3.25325807894029e-13
-3.49870718775844e-16
-3.25642365817421e-13
-3.58338064244583e-16
-3.25577287116126e-13
-3.66544286185396e-16
-3.25140838269469e-13
-3.7520002839232e-16
-3.24773545000701e-13
-3.83328502303458e-16
-3.2439448274398e-13
-3.91483509153559e-16
-3.23873449630889e-13
-4.0126407432241e-16
-3.23848826935723e-13
-4.11377006696966e-16
-3.24383591261043e-13
-4.20593958362182e-16
-3.24732382952612e-13
-4.29348893796142e-16
-3.24684123783723e-13
-4.38014062701184e-16
-3.24481094728766e-13
-4.46609192661196e-16
-3.24236757749551e-13
-4.54485036453701e-16
-3.23791208403998e-13
-4.60777867555035e-16
-3.22771527139285e-13
-4.65781778606422e-16
-3.21067402216957e-13
-4.73261451893323e-16
-3.19706226555371e-13
-4.86272857439713e-16
-3.20310326034886e-13
-5.01405852727024e-16
-3.226997759663e-13
-5.14394571992663e-16
-3.24998543848255e-13
-5.23777612932279e-16
-3.25900990732345e-13
-5.30258495320285e-16
-3.2530680505116e-13
-5.36476192068789e-16
-3.24027119126127e-13
-5.46954091196901e-16
-3.23646417487738e-13
-5.6096695569217e-16
-3.24935944430225e-13
-5.69412549417121e-16
-3.25765225462712e-13
-5.83763337500143e-16
-3.26622211398676e-13
-6.14356613334155e-16
-3.31944846937493e-13
-6.36534336587719e-16
-3.38695731778128e-13
-6.41001500449306e-16
-3.40083282493371e-13
-6.40765962677454e-16
-3.37047713701059e-13
-6.41990242652361e-16
-3.33471242994835e-13
-6.5120743974466e-16
-3.3177590518891e-13
-6.69848893756692e-16
-3.33369982354757e-13
-6.88383736056163e-16
-3.36635696300521e-13
-6.99398672000438e-16
-3.38430550091876e-13
-7.11172464068165e-16
-3.38956867490508e-13
-7.34432022174429e-16
-3.41618122278207e-13
-7.61615938480333e-16
-3.46894470059082e-13
-7.760757044427e-16
-3.50526699985211e-13
-7.81639675624542e-16
-3.50386358255253e-13
-7.96423625069781e-16
-3.502856137907e-13
-8.11967664677432e-16
-3.51843757115288e-13
-8.17775751362802e-16
-3.5189943255505e-13
-8.22229872999587e-16
-3.50151388989566e-13
-8.23413606564712e-16
-3.47706163513515e-13
-8.19955713563275e-16
-3.44068759976821e-13
-8.09919749004029e-16
-3.40127908075826e-13
-7.43259178723328e-16
-3.37044157121215e-13
-6.72072040700886e-16
-3.32996607291269e-13
-5.93574073220446e-16
-3.25940194982434e-13
-5.15183868400135e-16
-3.16086912359073e-13
-4.50185839000359e-16
-3.07433863112969e-13
-3.95214058182463e-16
-3.02779185366576e-13
-3.39379256629514e-16
-2.99392563946591e-13
-2.85524853388533e-16
-2.95401140205231e-13
-2.34713433464495e-16
-2.92012722772756e-13
-1.84521357657582e-16
-2.88807930637883e-13
-1.36779337828693e-16
-2.8584089420198e-13
-9.11706104846341e-17
-2.84639474654124e-13
-4.57785154928629e-17
-2.85042904733803e-13
-2.85640220755425e-13
-1.29511927448123e-17
-4.6405468028825e-13
-2.58597388055825e-17
-4.63068940565197e-13
-3.87334874025786e-17
-4.62300690982185e-13
-5.15620824371098e-17
-4.61541560505243e-13
-6.43451513875268e-17
-4.60747836577982e-13
-7.71085023703279e-17
-4.59992161387536e-13
-8.983517222389e-17
-4.59282259232827e-13
-1.02505095192595e-16
-4.58536483825666e-13
-1.15123941355992e-16
-4.57743407962262e-13
-1.27685181480846e-16
-4.56918390853131e-13
-1.40224674688446e-16
-4.56103313622451e-13
-1.52722986775974e-16
-4.55316101319272e-13
-1.65119919336743e-16
-4.54472059482312e-13
-1.77549728888847e-16
-4.53646164955251e-13
-1.90054412285911e-16
-4.52989574215691e-13
-2.02474804056314e-16
-4.52379425615805e-13
-2.14835495320197e-16
-4.51701085666252e-13
-2.27245752536457e-16
-4.51060479904414e-13
-2.39567176565886e-16
-4.50435491214946e-13
-2.51593407382835e-16
-4.49603797208266e-13
-2.63559963069491e-16
-4.48608225846313e-13
-2.7572064857879e-16
-4.47756265547348e-13
-2.87891083783723e-16
-4.47071662544229e-13
-2.99952391975115e-16
-4.46370616017213e-13
-3.11988087340938e-16
-4.45635402662567e-13
-3.2397404764395e-16
-4.44900049510549e-13
-3.35774201950627e-16
-4.44090092125286e-13
-3.47521933752286e-16
-4.43210851673574e-13
-3.59387103022142e-16
-4.42402156802349e-13
-3.71233495341533e-16
-4.41672788747591e-13
-3.83085906631563e-16
-4.40968495213395e-13
-3.95016532441098e-16
-4.40325271746526e-13
-4.06964109435713e-16
-4.39742128680756e-13
-4.19023660715449e-16
-4.39224714913562e-13
-4.30811154478386e-16
-4.38664757519394e-13
-4.41962636025441e-16
-4.37803797426177e-13
-4.53195063227911e-16
-4.36784118047219e-13
-4.65137125279533e-16
-4.3606653589612e-13
-4.77538259558238e-16
-4.35751683443273e-13
-4.89754966218116e-16
-4.35526773317898e-13
-5.01322117307234e-16
-4.35043702043207e-13
-5.12680374704329e-16
-4.34312002561643e-13
-5.24338269491771e-16
-4.33627426737787e-13
-5.35593719056135e-16
-4.32934692428166e-13
-5.46850071359213e-16
-4.32148401630643e-13
-5.59254414943494e-16
-4.31697666594327e-13
-5.71870355489242e-16
-4.31621298721354e-13
-5.83816379539299e-16
-4.31417599607054e-13
-5.95407761631459e-16
-4.30946900249341e-13
-6.06912085519612e-16
-4.30372875042436e-13
-6.18341798889087e-16
-4.29771006327093e-13
-6.29227584680679e-16
-4.2903266680317e-13
-6.38950475310821e-16
-4.2790753658366e-13
-6.47733786474058e-16
-4.26325784460645e-13
-6.58289445716771e-16
-4.24981621806982e-13
-6.72798098477536e-16
-4.2496000563517e-13
-6.88792204587723e-16
-4.26130861623107e-13
-7.03208538452102e-16
-4.2723231154507e-13
-7.15008943031983e-16
-4.27393245674568e-13
-7.24709126902617e-16
-4.26552554377701e-13
-7.34213450913194e-16
-4.25258755134761e-13
-7.46760338328872e-16
-4.24573140150177e-13
-7.61802409618184e-16
-4.25003188905894e-13
-7.72832794326031e-16
-4.25121751738342e-13
-7.88115206638746e-16
-4.25269200588473e-13
-8.15003765499792e-16
-4.28409716230582e-13
-8.35770326991344e-16
-4.32486557533523e-13
-8.43809176137507e-16
-4.32959121077866e-13
-8.48483740510365e-16
-4.3047864766868e-13
-8.54203897104147e-16
-4.27648263159399e-13
-8.65646390797486e-16
-4.26084226770865e-13
-8.83809430357787e-16
-4.26721053818978e-13
-9.01848837129878e-16
-4.28468373882952e-13
-9.14480083570704e-16
-4.29227924976662e-13
-9.27655416858163e-16
-4.29144700932106e-13
-9.49038465969912e-16
-4.304937523468e-13
-9.73173743693252e-16
-4.33584357906755e-13
-9.88147721170382e-16
-4.35564611890467e-13
-9.9674637454146e-16
-4.35022877447426e-13
-1.01193833666226e-15
-4.34513735141569e-13
-1.02763691163534e-15
-4.35112677009316e-13
-1.03633916852113e-15
-4.34704864735713e-13
-1.04405831821886e-15
-4.33092894089401e-13
-1.04941281382211e-15
-4.31015956975945e-13
-1.05143002961435e-15
-4.28144183447856e-13
-1.04400557618322e-15
-4.25138007776418e-13
-9.63200243274589e-16
-4.2311745969157e-13
-8.79053900565917e-16
-4.20430077595327e-13
-7.89674289418915e-16
-4.15709041317235e-13
-7.00383252824946e-16
-4.09120582949194e-13
-6.2067763350407e-16
-4.03334275518151e-13
-5.48143898724261e-16
-4.00215657815437e-13
-4.75000465378672e-16
-3.97942213038038e-13
-4.03283608840041e-16
-3.95266112181359e-13
-3.33750981128917e-16
-3.9299427507542e-13
-2.64668490842546e-16
-3.90846683291828e-13
-1.97343938630554e-16
-3.88859760835633e-13
-1.31548932277337e-16
-3.88052946051277e-13
-6.59128336628691e-17
-3.88321009717181e-13
-3.88690225548507e-13
-1.69184897319388e-17
-5.89255803381103e-13
-3.37762525083471e-17
-5.87909705718638e-13
-5.0577858486985e-17
-5.86827326343414e-13
-6.73171261369924e-17
-5.85746688975999e-13
-8.39938075279555e-17
-5.84648663189902e-13
-1.00623654186768e-16
-5.83570012488144e-13
-1.17196249361586e-16
-5.82514604920605e-13
-1.3369928368906e-16
-5.81440711109827e-13
-1.50136275420892e-16
-5.80342458181392e-13
-1.66503523322529e-16
-5.79228271740985e-13
-1.82822684135018e-16
-5.78119516577628e-13
-1.99081663639857e-16
-5.77024682977045e-13
-2.15244565585717e-16
-5.75901278103497e-13
-2.31393091619756e-16
-5.74787963571563e-13
-2.47551778106776e-16
-5.73760398634585e-13
-2.63623858329001e-16
-5.72755460121154e-13
-2.79625234893116e-16
-5.71715906856962e-13
-2.95621602294942e-16
-5.70695668620584e-13
-3.11527942886634e-16
-5.69682431430018e-13
-3.27220443350585e-16
-5.68564161318686e-13
-3.42843370611761e-16
-5.67364261445479e-13
-3.58549582472027e-16
-5.66238184433397e-13
-3.74225890765343e-16
-5.6519640454757e-13
-3.8980088351997e-16
-5.64145613954155e-13
-4.0532554702443e-16
-5.63077480597994e-13
-4.20784605823098e-16
-5.6200910873572e-13
-4.36096318452512e-16
-5.60902970436931e-13
-4.51342273645786e-16
-5.5976241657849e-13
-4.66624442509653e-16
-5.58657886205508e-13
-4.81860012092643e-16
-5.57593247275582e-13
-4.97064891152221e-16
-5.56541334423065e-13
-5.12282612686383e-16
-5.55520622820957e-13
-5.27475331082642e-16
-5.54530221030459e-13
-5.42699294719161e-16
-5.53572111433378e-13
-5.57721967187798e-16
-5.52591383081009e-13
-5.72326105304763e-16
-5.51458948911479e-13
-5.86948208013466e-16
-5.50248370511502e-13
-6.01966205645385e-16
-5.49191850636302e-13
-6.17224475982739e-16
-5.48337838640305e-13
-6.32333058066079e-16
-5.47527202172338e-13
-6.47013602333298e-16
-5.46585452878206e-13
-6.61534575375664e-16
-5.45518927586644e-13
-6.76201211238315e-16
-5.44476480528831e-13
-6.90589922107508e-16
-5.43430011341933e-13
-7.04947608587378e-16
-5.42337450893475e-13
-7.19965466876243e-16
-5.41414970039524e-13
-7.35072862559203e-16
-5.40680445668226e-13
-7.49738393316589e-16
-5.39880352199948e-13
-7.64155392101557e-16
-5.38945449849944e-13
-7.78485364076022e-16
-5.379588994087e-13
-7.92734472070762e-16
-5.369582968003e-13
-8.06617332918817e-16
-5.35888208929057e-13
-8.19761593104198e-16
-5.34622616294476e-13
-8.32311326016847e-16
-5.33128913669079e-13
-8.45907748460461e-16
-5.31759009096447e-13
-8.61855871310871e-16
-5.31056631178868e-13
-8.78653500004379e-16
-5.30951223634747e-13
-8.94452818749441e-16
-5.30805819809024e-13
-9.08637056579361e-16
-5.30184942270605e-13
-9.21524905207993e-16
-5.29061652559954e-13
-9.34272017683637e-16
-5.27714475732143e-13
-9.48823361768511e-16
-5.26676056471694e-13
-9.64830343375554e-16
-5.2619605078947e-13
-9.78390313005953e-16
-5.25558609631975e-13
-9.94501496628126e-16
-5.24940689841892e-13
-1.01755638628565e-15
-5.25826282580477e-13
-1.03684568453677e-15
-5.27172433995591e-13
-1.04842845747662e-15
-5.26701569624326e-13
-1.05797310593106e-15
-5.2475198532924e-13
-1.06812809984649e-15
-5.22633902777081e-13
-1.08170352921952e-15
-5.21155277708516e-13
-1.09928208544647e-15
-5.20780716133856e-13
-1.11673523366493e-15
-5.20959345605492e-13
-1.13090121790224e-15
-5.20640801117799e-13
-1.14537430140238e-15
-5.19902336868598e-13
-1.16475238333728e-15
-5.19884145040268e-13
-1.1857280968945e-15
-5.20735819749933e-13
-1.20114198104045e-15
-5.21025575218559e-13
-1.21269781036344e-15
-5.20050819602374e-13
-1.22819178279041e-15
-5.19095042722881e-13
-1.24394853332258e-15
-5.18695254792972e-13
-1.25546136416886e-15
-5.17790328913269e-13
-1.26635234442004e-15
-5.16282495709927e-13
-1.27578714043364e-15
-5.14542857951668e-13
-1.28317818320774e-15
-5.12402920016229e-13
-1.2782089590795e-15
-5.10275321481656e-13
-1.1832409000105e-15
-5.09295617015817e-13
-1.08617263996048e-15
-5.07962523910661e-13
-9.85958160721964e-16
-5.05597061306412e-13
-8.85801903507087e-16
-5.02296211238712e-13
-7.91405117316307e-16
-4.99397148327071e-13
-7.01315644005551e-16
-4.97832838993131e-13
-6.10862844546664e-16
-4.96691023834781e-13
-5.21271251773318e-16
-4.95347955362153e-13
-4.3299497179077e-16
-4.94207942995627e-13
-3.44991987408196e-16
-4.93130798222782e-13
-2.58047195619951e-16
-4.921347954875e-13
-1.72022408345775e-16
-4.91730074709477e-13
-8.6095001205462e-17
-4.91866454208893e-13
-4.9200555222334e-13
-2.10067018533791e-17
-4.19321814824789e-17
-6.27778300267107e-17
-8.35416029774227e-17
-1.04223410252827e-16
-1.24828619112445e-16
-1.45353655170854e-16
-1.65794348771563e-16
-1.86151882505831e-16
-2.06425097123333e-16
-2.26621287655157e-16
-2.46736270165179e-16
-2.66758086218089e-16
-2.86714410019443e-16
-3.06613267799714e-16
-3.26421912477959e-16
-3.46145983580143e-16
-3.65807524103558e-16
-3.8537752339793e-16
-4.04814590663098e-16
-4.24167773645749e-16
-4.4348839443472e-16
-4.62737870196329e-16
-4.8189225425235e-16
-5.00968886217642e-16
-5.19962431006452e-16
-5.3884552525958e-16
-5.57645871253605e-16
-5.76397614097015e-16
-5.95072725925349e-16
-6.13676801750976e-16
-6.32224495900722e-16
-6.50702810564084e-16
-6.69130308339082e-16
-6.87428787040747e-16
-7.05525886332414e-16
-7.23569240079547e-16
-7.41685390549789e-16
-7.59820809690286e-16
-7.77844120210747e-16
-7.95662522327069e-16
-8.1336679140706e-16
-8.31059051932614e-16
-8.485971947982e-16
-8.66064784070816e-16
-8.83693771463931e-16
-9.01291125322451e-16
-9.1867844257746e-16
-9.3592155476981e-16
-9.53074683296312e-16
-9.70139546025022e-16
-9.8701979836494e-16
-1.00359080066463e-15
-1.01990349816152e-15
-1.03650955981725e-15
-1.05384408156942e-15
-1.07139952491832e-15
-1.08855591375529e-15
-1.10510922517211e-15
-1.12116829569418e-15
-1.13712263457438e-15
-1.15362180443273e-15
-1.1705443661245e-15
-1.18658814493517e-15
-1.20343045315905e-15
-1.2225341344912e-15
-1.24030547856932e-15
-1.25543315184109e-15
-1.26982383171835e-15
-1.28436206964896e-15
-1.29998642663632e-15
-1.31688736866373e-15
-1.3336814202188e-15
-1.349315621286e-15
-1.36499474298087e-15
-1.38225334310891e-15
-1.39997942757805e-15
-1.41578142891121e-15
-1.43023517463009e-15
-1.44594597799035e-15
-1.46168293717368e-15
-1.47594029749383e-15
-1.4899303060951e-15
-1.50337407389836e-15
-1.51607001472546e-15
-1.51347641943639e-15
-1.40416953966045e-15
-1.2941374327834e-15
-1.18305412740608e-15
-1.0719910189861e-15
-9.62850035340928e-16
-8.5514613833001e-16
-7.47321241619362e-16
-6.39784314225066e-16
-5.32686760618203e-16
-4.2568071351443e-16
-3.19028008755494e-16
-2.12682340545967e-16
-1.06369513163818e-16
)
;

boundaryField
{
    dieWall
    {
        type            calculated;
        value           nonuniform List<scalar> 
100
(
-7.18032673014235e-13
-7.16595789302384e-13
-7.15158917319621e-13
-7.13722023648398e-13
-7.12285134146938e-13
-7.10848256484492e-13
-7.09411376843988e-13
-7.07974497223797e-13
-7.06537611167393e-13
-7.0510072435596e-13
-7.0366384490992e-13
-7.02226964381307e-13
-7.00790077225734e-13
-6.99353187499076e-13
-6.97916307541511e-13
-6.96479429197289e-13
-6.95042545528668e-13
-6.93605657441829e-13
-6.9216877377958e-13
-6.90731892092621e-13
-6.89295007374816e-13
-6.87858125113623e-13
-6.86421238316459e-13
-6.84984342326284e-13
-6.8354745841502e-13
-6.82110583498014e-13
-6.80673704271877e-13
-6.79236825886179e-13
-6.77799941462767e-13
-6.76363057490219e-13
-6.74926174576521e-13
-6.73489291211183e-13
-6.72052404680111e-13
-6.70615521012035e-13
-6.69178636965685e-13
-6.67741752661727e-13
-6.66304871306305e-13
-6.64867982371609e-13
-6.63431095580019e-13
-6.61994214233257e-13
-6.60557331857148e-13
-6.59120445500512e-13
-6.57683561335198e-13
-6.56246680156483e-13
-6.54809789764696e-13
-6.53372902667057e-13
-6.5193602617834e-13
-6.50499146183068e-13
-6.49062263907514e-13
-6.47625380089157e-13
-6.46188497809694e-13
-6.44751616309774e-13
-6.43314728399446e-13
-6.41877846240155e-13
-6.40440960778874e-13
-6.39004073808715e-13
-6.37567189896722e-13
-6.36130295131409e-13
-6.34693417260425e-13
-6.33256546938802e-13
-6.31819659968269e-13
-6.30382777340774e-13
-6.28945892058225e-13
-6.27509001983111e-13
-6.26072120042637e-13
-6.2463524278044e-13
-6.23198362770477e-13
-6.21761470137773e-13
-6.20324584268267e-13
-6.1888770004162e-13
-6.17450807651186e-13
-6.16013925062076e-13
-6.1457705116453e-13
-6.1314017300154e-13
-6.11703284852596e-13
-6.10266400882136e-13
-6.08829512639595e-13
-6.07392630770011e-13
-6.05955751429655e-13
-6.04518869201759e-13
-6.0308198908662e-13
-6.01645103676523e-13
-6.00208207555337e-13
-5.98771321777961e-13
-5.97334449868825e-13
-5.96091218112076e-13
-5.9617488261643e-13
-5.96174879588119e-13
-5.96174886579991e-13
-5.96174887061853e-13
-5.96174874220823e-13
-5.96174872264964e-13
-5.96174883498151e-13
-5.96174888003807e-13
-5.96174888905594e-13
-5.96174884522077e-13
-5.96174880894806e-13
-5.96174876099709e-13
-5.96174878209487e-13
-5.96174885494152e-13
)
;
    }
    outlet
    {
        type            calculated;
        value           nonuniform List<scalar> 6(0 7.29059165794753e-26 -7.29377667601413e-26 7.320591310896e-26 0 0);
    }
    Wire
    {
        type            calculated;
        value           nonuniform List<scalar> 
100
(
3.76541189918186e-16
3.35102075985887e-16
4.73783425639021e-16
7.20551763281171e-16
5.8179439765815e-16
7.01069929982225e-16
1.12024620437514e-15
1.20922949508974e-15
1.25260304397055e-15
1.18308804763563e-15
1.01277730398538e-15
1.26294439881228e-15
1.10469119663208e-15
6.76690298139555e-16
1.37151154997406e-15
2.04354154962796e-15
2.18563620876301e-15
2.60951079449191e-15
3.43682436836903e-15
3.3960584979704e-15
2.31797158250275e-15
2.25521976129176e-15
2.83806200137664e-15
3.05725375118371e-15
3.16789002527775e-15
3.46172102645441e-15
3.50979111101332e-15
3.00712148529211e-15
3.02940797613348e-15
3.36269796428779e-15
3.46961976841685e-15
3.99225593179342e-15
4.60753324376818e-15
5.31800129539946e-15
6.52611986529959e-15
6.19491840814432e-15
4.9450516200752e-15
5.15940584767945e-15
6.83296067004164e-15
8.82748638197789e-15
9.81797885540805e-15
9.51411677202342e-15
9.88500641456701e-15
1.07513421283644e-14
9.87004888601126e-15
1.08348637212562e-14
1.37269355841899e-14
1.5338248020837e-14
1.61372100633722e-14
1.67220104821921e-14
1.73337152384721e-14
1.77907332336954e-14
1.69771669467167e-14
1.43635961581392e-14
1.11922921568031e-14
1.35179475614995e-14
2.08147783805788e-14
2.68020046768378e-14
2.98199919844241e-14
2.91377757167942e-14
2.70217053565671e-14
2.59987561042698e-14
3.12130254944292e-14
3.6053817944329e-14
3.19368724137627e-14
4.611479157684e-14
6.76419682957622e-14
6.79222861824543e-14
6.14010182797235e-14
5.46044689250772e-14
5.06881846716154e-14
5.59700168975421e-14
6.57829638870512e-14
7.07148723326589e-14
6.9668699690939e-14
7.54682980075103e-14
8.9946506615806e-14
1.00544675941138e-13
9.78182725470732e-14
9.66610967460413e-14
1.05343075277491e-13
1.05229413964144e-13
1.01790150266327e-13
9.95474106822276e-14
9.22698048559895e-14
8.50361633615441e-14
7.97174312203317e-14
7.24191839002688e-14
5.89297662220068e-14
3.72748690251216e-14
1.72375433022965e-14
1.15424870623303e-14
6.40469673940146e-15
-4.26341633742219e-15
-8.70308153048513e-15
-1.515945314708e-14
-2.28053792632194e-14
-2.44706830084931e-14
-2.27887876263996e-14
-2.01028216282621e-14
)
;
    }
    inlet
    {
        type            calculated;
        value           nonuniform List<scalar> 6(0 0 -5.70700146421108e-24 0 -6.09548264508263e-24 0);
    }
    back
    {
        type            wedge;
        value           nonuniform List<scalar> 
600
(
-1.46733651266746e-25
-5.1065510869401e-26
-7.26675435964583e-26
-8.22144184543264e-26
-2.90141346121937e-27
2.40088031808933e-26
-6.15830895273381e-27
3.80291518788571e-26
-3.27675714561019e-26
3.11034476135298e-26
3.50327860590253e-26
-6.63710767551489e-26
-8.88705957358434e-27
2.21051618632583e-26
-2.63878883917787e-26
-1.98615136633579e-26
-6.74865513048136e-26