/*--------------------------------*- C++ -*----------------------------------*\
| =========                 |                                                 |
| \\      /  F ield         | foam-extend: Open Source CFD                    |
|  \\    /   O peration     | Version:     4.1-20200408                       |
|   \\  /    A nd           | Web:         http://www.foam-extend.org         |
|    \\/     M anipulation  |                                                 |
\*---------------------------------------------------------------------------*/
FoamFile
{
    version     2.0;
    format      ascii;
    class       volScalarField::DimensionedInternalField;
    location    "0.0850000";
    object      V0;
}
// * * * * * * * * * * * * * * * * * * * * * * * * * * * * * * * * * * * * * //

dimensions      [0 3 0 0 0 0 0];

value           nonuniform List<scalar> 
1952
(
1.31771e-14
2.1965e-14
3.07577e-14
3.95548e-14
4.83611e-14
5.7173e-14
6.59969e-14
7.48285e-14
8.36744e-14
9.25407e-14
1.01427e-13
1.10349e-13
1.19301e-13
1.28271e-13
1.37201e-13
4.39206e-15
1.31773e-14
2.19654e-14
3.07582e-14
3.95554e-14
4.83618e-14
5.71739e-14
6.59979e-14
7.48295e-14
8.36754e-14
9.25418e-14
1.01428e-13
1.1035e-13
1.19302e-13
1.28271e-13
1.37201e-13
4.39214e-15
1.31763e-14
2.19636e-14
3.07558e-14
3.95523e-14
4.83579e-14
5.71693e-14
6.59925e-14
7.48234e-14
8.36684e-14
9.25339e-14
1.01419e-13
1.1034e-13
1.19291e-13
1.28258e-13
1.37187e-13
4.39179e-15
1.31761e-14
2.19634e-14
3.07554e-14
3.95518e-14
4.83573e-14
5.71685e-14
6.59916e-14
7.48223e-14
8.36671e-14
9.25323e-14
1.01417e-13
1.10338e-13
1.19288e-13
1.28255e-13
1.37183e-13
4.39174e-15
1.31757e-14
2.19626e-14
3.07543e-14
3.95503e-14
4.83556e-14
5.71664e-14
6.59891e-14
7.48194e-14
8.36637e-14
9.25286e-14
1.01413e-13
1.10333e-13
1.19282e-13
1.28249e-13
1.37176e-13
4.39159e-15
1.31746e-14
2.19609e-14
3.07519e-14
3.95472e-14
4.83518e-14
5.71619e-14
6.59838e-14
7.48133e-14
8.36569e-14
9.2521e-14
1.01405e-13
1.10323e-13
1.19272e-13
1.28238e-13
1.37164e-13
4.39125e-15
1.31747e-14
2.19609e-14
3.0752e-14
3.95473e-14
4.83519e-14
5.7162e-14
6.59839e-14
7.48134e-14
8.36569e-14
9.25208e-14
1.01404e-13
1.10323e-13
1.19271e-13
1.28237e-13
1.37163e-13
4.39126e-15
1.31734e-14
2.19589e-14
3.07491e-14
3.95436e-14
4.83473e-14
5.71566e-14
6.59776e-14
7.48062e-14
8.36488e-14
9.25119e-14
1.01394e-13
1.10312e-13
1.1926e-13
1.28224e-13
1.37149e-13
4.39085e-15
1.31734e-14
2.19589e-14
3.07491e-14
3.95436e-14
4.83472e-14
5.71565e-14
6.59774e-14
7.4806e-14
8.36485e-14
9.25115e-14
1.01394e-13
1.10312e-13
1.19259e-13
1.28223e-13
1.37148e-13
4.39084e-15
1.31721e-14
2.19567e-14
3.0746e-14
3.95396e-14
4.83424e-14
5.71508e-14
6.59708e-14
7.47985e-14
8.36401e-14
9.25022e-14
1.01384e-13
1.103e-13
1.19247e-13
1.2821e-13
1.37134e-13
4.39041e-15
1.3172e-14
2.19565e-14
3.07457e-14
3.95393e-14
4.8342e-14
5.71502e-14
6.59702e-14
7.47977e-14
8.36392e-14
9.25012e-14
1.01383e-13
1.10299e-13
1.19245e-13
1.28208e-13
1.37132e-13
4.39037e-15
1.31714e-14
2.19554e-14
3.07443e-14
3.95374e-14
4.83397e-14
5.71476e-14
6.59671e-14
7.47942e-14
8.36353e-14
9.24969e-14
1.01378e-13
1.10294e-13
1.1924e-13
1.28202e-13
1.37125e-13
4.39016e-15
1.31702e-14
2.19534e-14
3.07415e-14
3.95338e-14
4.83353e-14
5.71423e-14
6.5961e-14
7.47873e-14
8.36276e-14
9.24884e-14
1.01369e-13
1.10284e-13
1.19229e-13
1.2819e-13
1.37113e-13
4.38976e-15
1.31699e-14
2.19529e-14
3.07407e-14
3.95328e-14
4.83341e-14
5.71409e-14
6.59594e-14
7.47855e-14
8.36256e-14
9.24861e-14
1.01366e-13
1.10281e-13
1.19226e-13
1.28187e-13
1.37109e-13
4.38965e-15
1.31691e-14
2.19516e-14
3.07389e-14
3.95305e-14
4.83313e-14
5.71376e-14
6.59556e-14
7.47811e-14
8.36207e-14
9.24808e-14
1.0136e-13
1.10275e-13
1.19219e-13
1.28179e-13
1.37101e-13
4.3894e-15
1.31682e-14
2.19502e-14
3.07369e-14
3.9528e-14
4.83282e-14
5.7134e-14
6.59514e-14
7.47764e-14
8.36154e-14
9.24749e-14
1.01354e-13
1.10268e-13
1.19211e-13
1.28171e-13
1.37092e-13
4.38911e-15
1.31678e-14
2.19494e-14
3.07358e-14
3.95266e-14
4.83264e-14
5.7132e-14
6.5949e-14
7.47737e-14
8.36125e-14
9.24717e-14
1.0135e-13
1.10264e-13
1.19207e-13
1.28167e-13
1.37088e-13
4.38896e-15
1.3167e-14
2.19482e-14
3.07342e-14
3.95244e-14
4.83238e-14
5.71289e-14
6.59455e-14
7.47697e-14
8.36081e-14
9.24669e-14
1.01345e-13
1.10258e-13
1.19201e-13
1.2816e-13
1.37081e-13
4.38872e-15
1.31663e-14
2.1947e-14
3.07324e-14
3.95222e-14
4.83212e-14
5.71258e-14
6.59419e-14
7.47657e-14
8.36036e-14
9.2462e-14
1.0134e-13
1.10252e-13
1.19195e-13
1.28153e-13
1.37073e-13
4.38847e-15
1.31655e-14
2.19457e-14
3.07306e-14
3.95199e-14
4.83183e-14
5.71225e-14
6.59381e-14
7.47614e-14
8.35988e-14
9.24568e-14
1.01334e-13
1.10246e-13
1.19188e-13
1.28146e-13
1.37066e-13
4.38821e-15
1.31647e-14
2.19443e-14
3.07287e-14
3.95175e-14
4.83154e-14
5.7119e-14
6.59341e-14
7.4757e-14
8.35939e-14
9.24514e-14
1.01328e-13
1.1024e-13
1.19181e-13
1.28139e-13
1.37058e-13
4.38793e-15
1.31645e-14
2.1944e-14
3.07283e-14
3.95169e-14
4.83147e-14
5.71183e-14
6.59333e-14
7.47561e-14
8.3593e-14
9.24504e-14
1.01327e-13
1.10239e-13
1.1918e-13
1.28138e-13
1.37057e-13
4.38787e-15
1.3163e-14
2.19415e-14
3.07247e-14
3.95124e-14
4.83092e-14
5.71118e-14
6.59258e-14
7.47477e-14
8.35837e-14
9.24402e-14
1.01316e-13
1.10227e-13
1.19168e-13
1.28124e-13
1.37042e-13
4.38736e-15
1.3163e-14
2.19414e-14
3.07247e-14
3.95124e-14
4.83092e-14
5.71119e-14
6.5926e-14
7.47479e-14
8.3584e-14
9.24407e-14
1.01317e-13
1.10228e-13
1.19169e-13
1.28125e-13
1.37044e-13
4.38736e-15
1.31615e-14
2.19391e-14
3.07214e-14
3.95082e-14
4.83041e-14
5.7106e-14
6.59191e-14
7.47403e-14
8.35756e-14
9.24315e-14
1.01307e-13
1.10217e-13
1.19157e-13
1.28113e-13
1.37031e-13
4.38688e-15
1.31613e-14
2.19388e-14
3.0721e-14
3.95077e-14
4.83035e-14
5.71053e-14
6.59184e-14
7.47396e-14
8.35749e-14
9.24309e-14
1.01306e-13
1.10217e-13
1.19157e-13
1.28112e-13
1.37031e-13
4.38682e-15
1.31603e-14
2.1937e-14
3.07186e-14
3.95047e-14
4.82998e-14
5.7101e-14
6.59135e-14
7.47341e-14
8.3569e-14
9.24245e-14
1.01299e-13
1.10209e-13
1.19149e-13
1.28104e-13
1.37022e-13
4.38647e-15
1.31593e-14
2.19355e-14
3.07163e-14
3.95019e-14
4.82964e-14
5.70972e-14
6.59091e-14
7.47292e-14
8.35637e-14
9.24188e-14
1.01293e-13
1.10203e-13
1.19143e-13
1.28097e-13
1.37015e-13
4.38615e-15
1.31588e-14
2.19346e-14
3.07152e-14
3.95004e-14
4.82947e-14
5.70952e-14
6.5907e-14
7.4727e-14
8.35614e-14
9.24164e-14
1.01291e-13
1.10201e-13
1.19141e-13
1.28095e-13
1.37014e-13
4.38597e-15
1.31574e-14
2.19323e-14
3.07119e-14
3.94963e-14
4.82897e-14
5.70895e-14
6.59004e-14
7.47197e-14
8.35535e-14
9.24079e-14
1.01282e-13
1.10191e-13
1.19131e-13
1.28085e-13
1.37003e-13
4.3855e-15
1.3157e-14
2.19316e-14
3.0711e-14
3.94953e-14
4.82884e-14
5.70882e-14
6.5899e-14
7.47184e-14
8.35522e-14
9.24068e-14
1.01281e-13
1.10191e-13
1.19131e-13
1.28085e-13
1.37004e-13
4.38537e-15
1.31552e-14
2.19286e-14
3.07067e-14
3.94899e-14
4.82818e-14
5.70805e-14
6.58903e-14
7.47087e-14
8.35417e-14
9.23955e-14
1.0127e-13
1.10178e-13
1.19118e-13
1.28072e-13
1.36991e-13
4.38476e-15
1.31548e-14
2.1928e-14
3.07059e-14
3.94889e-14
4.82807e-14
5.70794e-14
6.58892e-14
7.47077e-14
8.35409e-14
9.2395e-14
1.01269e-13
1.10178e-13
1.19119e-13
1.28074e-13
1.36993e-13
4.38464e-15
1.31529e-14
2.19249e-14
3.07017e-14
3.94835e-14
4.82741e-14
5.70718e-14
6.58805e-14
7.46982e-14
8.35306e-14
9.2384e-14
1.01258e-13
1.10167e-13
1.19107e-13
1.28062e-13
1.36982e-13
4.38402e-15
1.31522e-14
2.19238e-14
3.07e-14
3.94815e-14
4.82717e-14
5.70692e-14
6.58775e-14
7.46951e-14
8.35275e-14
9.23811e-14
1.01256e-13
1.10164e-13
1.19106e-13
1.28061e-13
1.36983e-13
4.38378e-15
1.31503e-14
2.19206e-14
3.06955e-14
3.94758e-14
4.82648e-14
5.70612e-14
6.58684e-14
7.46851e-14
8.35167e-14
9.23696e-14
1.01244e-13
1.10152e-13
1.19095e-13
1.2805e-13
1.36972e-13
4.38314e-15
1.31493e-14
2.19189e-14
3.06932e-14
3.94729e-14
4.82612e-14
5.70572e-14
6.58638e-14
7.46802e-14
8.35116e-14
9.23646e-14
1.01239e-13
1.10148e-13
1.19092e-13
1.28048e-13
1.36972e-13
4.38282e-15
1.31471e-14
2.19153e-14
3.0688e-14
3.94663e-14
4.8253e-14
5.70477e-14
6.58528e-14
7.46681e-14
8.34983e-14
9.23505e-14
1.01225e-13
1.10133e-13
1.19078e-13
1.28034e-13
1.3696e-13
4.38208e-15
1.31457e-14
2.19129e-14
3.06846e-14
3.9462e-14
4.82476e-14
5.70414e-14
6.58454e-14
7.466e-14
8.34894e-14
9.23412e-14
1.01216e-13
1.10124e-13
1.1907e-13
1.28027e-13
1.36957e-13
4.38161e-15
1.31438e-14
2.19099e-14
3.06803e-14
3.94563e-14
4.82405e-14
5.7033e-14
6.58355e-14
7.4649e-14
8.3477e-14
9.2328e-14
1.01202e-13
1.1011e-13
1.19058e-13
1.28016e-13
1.36949e-13
4.38102e-15
1.31415e-14
2.1906e-14
3.06747e-14
3.94491e-14
4.82315e-14
5.70222e-14
6.58225e-14
7.46342e-14
8.34601e-14
9.23096e-14
1.01182e-13
1.1009e-13
1.19039e-13
1.27998e-13
1.36935e-13
4.38026e-15
1.31404e-14
2.1904e-14
3.06717e-14
3.94451e-14
4.82261e-14
5.70155e-14
6.5814e-14
7.46243e-14
8.34481e-14
9.22963e-14
1.01167e-13
1.10075e-13
1.19025e-13
1.27987e-13
1.36933e-13
4.37988e-15
1.31379e-14
2.18999e-14
3.06658e-14
3.94371e-14
4.82158e-14
5.70028e-14
6.57983e-14
7.46058e-14
8.34258e-14
9.2271e-14
1.01138e-13
1.10043e-13
1.18992e-13
1.27954e-13
1.36913e-13
4.37909e-15
1.31363e-14
2.18971e-14
3.06616e-14
3.94313e-14
4.8208e-14
5.69928e-14
6.57853e-14
7.459e-14
8.34057e-14
9.22474e-14
1.0111e-13
1.10009e-13
1.18954e-13
1.27913e-13
1.36876e-13
4.37857e-15
1.31345e-14
2.18939e-14
3.06568e-14
3.94247e-14
4.81989e-14
5.69811e-14
6.57699e-14
7.45709e-14
8.33812e-14
9.22182e-14
1.01073e-13
1.09966e-13
1.18903e-13
1.27849e-13
1.36795e-13
4.37798e-15
1.3133e-14
2.18913e-14
3.06527e-14
3.94187e-14
4.81906e-14
5.69699e-14
6.57546e-14
7.45515e-14
8.33553e-14
9.21867e-14
1.01032e-13
1.09916e-13
1.18841e-13
1.2777e-13
1.36692e-13
4.37751e-15
1.3132e-14
2.18893e-14
3.06495e-14
3.94138e-14
4.81834e-14
5.69597e-14
6.57402e-14
7.45323e-14
8.33288e-14
9.21535e-14
1.00987e-13
1.09862e-13
1.18771e-13
1.27683e-13
1.36585e-13
4.37718e-15
1.31319e-14
2.1889e-14
3.06485e-14
3.94117e-14
4.81793e-14
5.69529e-14
6.57294e-14
7.45166e-14
8.33054e-14
9.21228e-14
1.00943e-13
1.09808e-13
1.18699e-13
1.27595e-13
1.36482e-13
4.37719e-15
1.3132e-14
2.18887e-14
3.06477e-14
3.94095e-14
4.81753e-14
5.69458e-14
6.57179e-14
7.44996e-14
8.32799e-14
9.20887e-14
1.00894e-13
1.09747e-13
1.18615e-13
1.27496e-13
1.36372e-13
4.37722e-15
1.31342e-14
2.18921e-14
3.06519e-14
3.94138e-14
4.8179e-14
5.69476e-14
6.57167e-14
7.44936e-14
8.32663e-14
9.20663e-14
1.00855e-13
1.09696e-13
1.18536e-13
1.27408e-13
1.36271e-13
4.37798e-15
1.31361e-14
2.18951e-14
3.06554e-14
3.94172e-14
4.81815e-14
5.69478e-14
6.57135e-14
7.44847e-14
8.32495e-14
9.20393e-14
1.00813e-13
1.09639e-13
1.18443e-13
1.27305e-13
1.36138e-13
4.37866e-15
1.31409e-14
2.19028e-14
3.06656e-14
3.94289e-14
4.81942e-14
5.69601e-14
6.57252e-14
7.44944e-14
8.32551e-14
9.2037e-14
1.00798e-13
1.09606e-13
1.18373e-13
1.27218e-13
1.35997e-13
4.3803e-15
1.31461e-14
2.19111e-14
3.0677e-14
3.94428e-14
4.82101e-14
5.69763e-14
6.57414e-14
7.45087e-14
8.32659e-14
9.20387e-14
1.00784e-13
1.09571e-13
1.18299e-13
1.27119e-13
1.35826e-13
4.38202e-15
1.31547e-14
2.19252e-14
3.06962e-14
3.94665e-14
4.82374e-14
5.70049e-14
6.57699e-14
7.4533e-14
8.32837e-14
9.20451e-14
1.00776e-13
1.09542e-13
1.18238e-13
1.27032e-13
1.3567e-13
4.38494e-15
1.31643e-14
2.19403e-14
3.07156e-14
3.94883e-14
4.82601e-14
5.7026e-14
6.5788e-14
7.45445e-14
8.32875e-14
9.20359e-14
1.00753e-13
1.095e-13
1.18173e-13
1.26939e-13
1.35521e-13
4.38823e-15
1.31738e-14
2.1955e-14
3.07341e-14
3.95085e-14
4.82803e-14
5.70439e-14
6.58028e-14
7.45535e-14
8.32913e-14
9.20297e-14
1.00738e-13
1.09469e-13
1.18126e-13
1.26867e-13
1.35412e-13
4.39155e-15
1.31797e-14
2.19639e-14
3.07449e-14
3.95196e-14
4.82905e-14
5.70514e-14
6.5807e-14
7.4552e-14
8.32851e-14
9.20142e-14
1.00716e-13
1.09432e-13
1.18081e-13
1.26799e-13
1.35323e-13
4.39367e-15
1.31839e-14
2.19703e-14
3.07528e-14
3.95279e-14
4.82984e-14
5.70577e-14
6.58113e-14
7.45522e-14
8.32827e-14
9.20051e-14
1.00705e-13
1.0941e-13
1.18056e-13
1.26756e-13
1.35272e-13
4.39518e-15
1.31844e-14
2.19709e-14
3.0753e-14
3.95273e-14
4.82967e-14
5.7054e-14
6.58057e-14
7.4543e-14
8.32716e-14
9.19884e-14
1.00688e-13
1.09383e-13
1.18032e-13
1.26717e-13
1.35236e-13
4.39541e-15
1.31836e-14
2.19695e-14
3.07511e-14
3.95248e-14
4.82935e-14
5.70497e-14
6.58009e-14
7.45364e-14
8.32651e-14
9.19789e-14
1.00681e-13
1.09371e-13
1.18027e-13
1.26702e-13
1.35237e-13
4.39517e-15
1.31797e-14
2.19631e-14
3.07424e-14
3.9514e-14
4.82809e-14
5.70354e-14
6.57856e-14
7.45195e-14
8.32487e-14
9.19604e-14
1.00666e-13
1.09353e-13
1.18021e-13
1.26688e-13
1.35248e-13
4.39383e-15
1.31753e-14
2.19559e-14
3.07328e-14
3.95024e-14
4.82679e-14
5.70214e-14
6.57715e-14
7.45051e-14
8.32363e-14
9.19483e-14
1.00661e-13
1.09347e-13
1.18031e-13
1.26696e-13
1.35291e-13
4.39228e-15
1.31685e-14
2.19449e-14
3.07181e-14
3.94846e-14
4.82478e-14
5.69995e-14
6.57488e-14
7.44821e-14
8.3215e-14
9.1928e-14
1.00647e-13
1.09336e-13
1.18038e-13
1.26706e-13
1.35341e-13
4.38994e-15
1.31618e-14
2.19341e-14
3.07038e-14
3.94676e-14
4.82288e-14
5.69795e-14
6.57288e-14
7.44628e-14
8.31986e-14
9.19146e-14
1.00642e-13
1.09337e-13
1.1806e-13
1.26736e-13
1.35418e-13
4.38762e-15
1.31532e-14
2.19203e-14
3.06854e-14
3.94454e-14
4.82037e-14
5.69525e-14
6.5701e-14
7.44355e-14
8.31737e-14
9.18931e-14
1.00629e-13
1.09331e-13
1.18077e-13
1.26764e-13
1.35494e-13
4.38471e-15
1.31452e-14
2.19074e-14
3.06682e-14
3.94246e-14
4.81803e-14
5.69277e-14
6.5676e-14
7.44119e-14
8.31535e-14
9.18782e-14
1.00624e-13
1.09338e-13
1.18108e-13
1.26811e-13
1.35588e-13
4.38201e-15
1.31365e-14
2.18933e-14
3.06489e-14
3.94011e-14
4.81533e-14
5.68984e-14
6.56458e-14
7.43828e-14
8.31276e-14
9.18583e-14
1.00614e-13
1.09342e-13
1.18137e-13
1.26859e-13
1.35679e-13
4.37909e-15
1.31271e-14
2.18777e-14
3.06275e-14
3.93743e-14
4.81219e-14
5.68636e-14
6.56086e-14
7.43457e-14
8.30926e-14
9.18297e-14
1.00596e-13
1.09341e-13
1.1816e-13
1.26903e-13
1.35761e-13
4.37595e-15
1.3119e-14
2.18642e-14
3.06087e-14
3.93506e-14
4.80936e-14
5.68318e-14
6.55744e-14
7.43111e-14
8.30594e-14
9.1803e-14
1.00581e-13
1.09347e-13
1.1819e-13
1.26959e-13
1.35847e-13
4.37324e-15
1.31109e-14
2.18508e-14
3.059e-14
3.93268e-14
4.80649e-14
5.6799e-14
6.5538e-14
7.42726e-14
8.30191e-14
9.17667e-14
1.00555e-13
1.09343e-13
1.18207e-13
1.27004e-13
1.35918e-13
4.37056e-15
1.31023e-14
2.18364e-14
3.05698e-14
3.9301e-14
4.80332e-14
5.67618e-14
6.54957e-14
7.42279e-14
8.2974e-14
9.17271e-14
1.00522e-13
1.09325e-13
1.18204e-13
1.27028e-13
1.35958e-13
4.36767e-15
1.30945e-14
2.18239e-14
3.05533e-14
3.92816e-14
4.80121e-14
5.67413e-14
6.54782e-14
7.42181e-14
8.29738e-14
9.17376e-14
1.00536e-13
1.0934e-13
1.18212e-13
1.27046e-13
1.35972e-13
4.36501e-15
1.30925e-14
2.18214e-14
3.05518e-14
3.9283e-14
4.8019e-14
5.67572e-14
6.55052e-14
7.4258e-14
8.3024e-14
9.17967e-14
1.00595e-13
1.09393e-13
1.1824e-13
1.27065e-13
1.35961e-13
4.36423e-15
1.30989e-14
2.18324e-14
3.05677e-14
3.93047e-14
4.80468e-14
5.67919e-14
6.55461e-14
7.43047e-14
8.30747e-14
9.1852e-14
1.00649e-13
1.09446e-13
1.18275e-13
1.27093e-13
1.35952e-13
4.36631e-15
1.31061e-14
2.18444e-14
3.05846e-14
3.93262e-14
4.80727e-14
5.68219e-14
6.5579e-14
7.43406e-14
8.31125e-14
9.18923e-14
1.00686e-13
1.09484e-13
1.18304e-13
1.27121e-13
1.35959e-13
4.36871e-15
1.31126e-14
2.18553e-14
3.05999e-14
3.93462e-14
4.80972e-14
5.68509e-14
6.56118e-14
7.4377e-14
8.31506e-14
9.19318e-14
1.00724e-13
1.09521e-13
1.18334e-13
1.2715e-13
1.35981e-13
4.37085e-15
1.3118e-14
2.18643e-14
3.06124e-14
3.93621e-14
4.81162e-14
5.68726e-14
6.56357e-14
7.44027e-14
8.31769e-14
9.19582e-14
1.00749e-13
1.09543e-13
1.18352e-13
1.27163e-13
1.35985e-13
4.37265e-15
1.31228e-14
2.18723e-14
3.06234e-14
3.93761e-14
4.81329e-14
5.68919e-14
6.56569e-14
7.44253e-14
8.31998e-14
9.19809e-14
1.00769e-13
1.09561e-13
1.18366e-13
1.27171e-13
1.35984e-13
4.37424e-15
1.31275e-14
2.18801e-14
3.06343e-14
3.93898e-14
4.81491e-14
5.69103e-14
6.56769e-14
7.44467e-14
8.32215e-14
9.20023e-14
1.00789e-13
1.09579e-13
1.18379e-13
1.2718e-13
1.35986e-13
4.37582e-15
1.3131e-14
2.18859e-14
3.06422e-14
3.93997e-14
4.81608e-14
5.69234e-14
6.5691e-14
7.44612e-14
8.32357e-14
9.20156e-14
1.008e-13
1.09588e-13
1.18384e-13
1.2718e-13
1.35979e-13
4.377e-15
1.31348e-14
2.18921e-14
3.06507e-14
3.94104e-14
4.81733e-14
5.69375e-14
6.57062e-14
7.44771e-14
8.32516e-14
9.2031e-14
1.00814e-13
1.09599e-13
1.18393e-13
1.27185e-13
1.35979e-13
4.37826e-15
1.31373e-14
2.18961e-14
3.06562e-14
3.94172e-14
4.81811e-14
5.69461e-14
6.5715e-14
7.44859e-14
8.32597e-14
9.2038e-14
1.00819e-13
1.09602e-13
1.18392e-13
1.2718e-13
1.35969e-13
4.37908e-15
1.31404e-14
2.19014e-14
3.06634e-14
3.94261e-14
4.81916e-14
5.69578e-14
6.57277e-14
7.44991e-14
8.3273e-14
9.20508e-14
1.00831e-13
1.09612e-13
1.184e-13
1.27185e-13
1.3597e-13
4.38016e-15
1.3142e-14
2.19039e-14
3.06668e-14
3.94302e-14
4.81961e-14
5.69626e-14
6.57324e-14
7.45034e-14
8.32763e-14
9.2053e-14
1.00832e-13
1.0961e-13
1.18395e-13
1.27178e-13
1.35959e-13
4.38068e-15
1.31441e-14
2.19073e-14
3.06713e-14
3.94358e-14
4.82026e-14
5.69698e-14
6.57399e-14
7.4511e-14
8.32836e-14
9.20596e-14
1.00837e-13
1.09615e-13
1.18397e-13
1.27178e-13
1.35956e-13
4.38137e-15
1.31456e-14
2.19098e-14
3.06748e-14
3.944e-14
4.82074e-14
5.69749e-14
6.57452e-14
7.45161e-14
8.32883e-14
9.20635e-14
1.0084e-13
1.09616e-13
1.18397e-13
1.27175e-13
1.3595e-13
4.3819e-15
1.31463e-14
2.19109e-14
3.06762e-14
3.94416e-14
4.8209e-14
5.69764e-14
6.57463e-14
7.45167e-14
8.32879e-14
9.20621e-14
1.00837e-13
1.09611e-13
1.1839e-13
1.27166e-13
1.35939e-13
4.38213e-15
1.31475e-14
2.19128e-14
3.06787e-14
3.94447e-14
4.82125e-14
5.69801e-14
6.575e-14
7.45203e-14
8.32911e-14
9.20647e-14
1.00839e-13
1.09612e-13
1.18389e-13
1.27164e-13
1.35935e-13
4.38252e-15
1.31482e-14
2.19139e-14
3.06802e-14
3.94464e-14
4.82144e-14
5.69821e-14
6.57518e-14
7.45217e-14
8.32921e-14
9.20649e-14
1.00838e-13
1.0961e-13
1.18386e-13
1.27159e-13
1.35929e-13
4.38277e-15
1.31491e-14
2.19154e-14
3.06821e-14
3.94488e-14
4.8217e-14
5.69849e-14
6.57547e-14
7.45245e-14
8.32945e-14
9.20669e-14
1.00839e-13
1.09611e-13
1.18386e-13
1.27158e-13
1.35926e-13
4.38307e-15
1.31495e-14
2.19161e-14
3.06831e-14
3.94499e-14
4.82182e-14
5.6986e-14
6.57556e-14
7.45252e-14
8.32947e-14
9.20666e-14
1.00838e-13
1.09609e-13
1.18383e-13
1.27154e-13
1.35921e-13
4.38323e-15
1.31499e-14
2.19167e-14
3.06839e-14
3.94508e-14
4.82192e-14
5.6987e-14
6.57564e-14
7.45257e-14
8.32949e-14
9.20662e-14
1.00837e-13
1.09607e-13
1.1838e-13
1.27151e-13
1.35916e-13
4.38336e-15
1.31498e-14
2.19165e-14
3.06836e-14
3.94503e-14
4.82185e-14
5.69859e-14
6.57549e-14
7.45237e-14
8.32923e-14
9.20629e-14
1.00833e-13
1.09602e-13
1.18374e-13
1.27144e-13
1.35908e-13
4.38333e-15
1.31505e-14
2.19176e-14
3.06851e-14
3.94522e-14
4.82206e-14
5.69882e-14
6.57574e-14
7.45262e-14
8.32948e-14
9.20653e-14
1.00835e-13
1.09604e-13
1.18376e-13
1.27145e-13
1.35909e-13
4.38356e-15
1.315e-14
2.19167e-14
3.06838e-14
3.94504e-14
4.82183e-14
5.69855e-14
6.5754e-14
7.45222e-14
8.329e-14
9.20597e-14
1.00829e-13
1.09597e-13
1.18367e-13
1.27135e-13
1.35899e-13
4.38339e-15
1.31507e-14
2.19179e-14
3.06853e-14
3.94524e-14
4.82206e-14
5.6988e-14
6.57568e-14
7.45252e-14
8.32931e-14
9.20629e-14
1.00832e-13
1.096e-13
1.1837e-13
1.27138e-13
1.35902e-13
4.38362e-15
1.31498e-14
2.19164e-14
3.06832e-14
3.94496e-14
4.82171e-14
5.69838e-14
6.57518e-14
7.45194e-14
8.32864e-14
9.20553e-14
1.00823e-13
1.0959e-13
1.1836e-13
1.27127e-13
1.35889e-13
4.38332e-15
1.31504e-14
2.19173e-14
3.06845e-14
3.94512e-14
4.82191e-14
5.6986e-14
6.57543e-14
7.4522e-14
8.32892e-14
9.20582e-14
1.00826e-13
1.09593e-13
1.18363e-13
1.2713e-13
1.35892e-13
4.38352e-15
1.31495e-14
2.19159e-14
3.06824e-14
3.94485e-14
4.82157e-14
5.6982e-14
6.57496e-14
7.45165e-14
8.32829e-14
9.20512e-14
1.00818e-13
1.09585e-13
1.18353e-13
1.27119e-13
1.35881e-13
4.38323e-15
1.31498e-14
2.19164e-14
3.06831e-14
3.94494e-14
4.82168e-14
5.69832e-14
6.57508e-14
7.45179e-14
8.32843e-14
9.20525e-14
1.0082e-13
1.09586e-13
1.18355e-13
1.27121e-13
1.35882e-13
4.38334e-15
1.31489e-14
2.19148e-14
3.06809e-14
3.94466e-14
4.82133e-14
5.6979e-14
6.57459e-14
7.45122e-14
8.3278e-14
9.20454e-14
1.00812e-13
1.09577e-13
1.18345e-13
1.2711e-13
1.35871e-13
4.38303e-15
1.31491e-14
2.19152e-14
3.06814e-14
3.94472e-14
4.8214e-14
5.69798e-14
6.57468e-14
7.45132e-14
8.32789e-14
9.20464e-14
1.00813e-13
1.09578e-13
1.18346e-13
1.27111e-13
1.35872e-13
4.3831e-15
1.31488e-14
2.19147e-14
3.06807e-14
3.94463e-14
4.82129e-14
5.69784e-14
6.57452e-14
7.45113e-14
8.32768e-14
9.2044e-14
1.0081e-13
1.09575e-13
1.18343e-13
1.27108e-13
1.35868e-13
4.38301e-15
1.3148e-14
2.19133e-14
3.06788e-14
3.94437e-14
4.82097e-14
5.69747e-14
6.57409e-14
7.45064e-14
8.32713e-14
9.20378e-14
1.00803e-13
1.09568e-13
1.18335e-13
1.27099e-13
1.35858e-13
4.38273e-15
1.31478e-14
2.1913e-14
3.06783e-14
3.94432e-14
4.8209e-14
5.69738e-14
6.57398e-14
7.45052e-14
8.32699e-14
9.20363e-14
1.00802e-13
1.09566e-13
1.18333e-13
1.27097e-13
1.35856e-13
4.38267e-15
1.31469e-14
2.19116e-14
3.06763e-14
3.94406e-14
4.82059e-14
5.69701e-14
6.57355e-14
7.45003e-14
8.32644e-14
9.20302e-14
1.00795e-13
1.09559e-13
1.18325e-13
1.27088e-13
1.35847e-13
4.38239e-15
1.31472e-14
2.1912e-14
3.06769e-14
3.94413e-14
4.82067e-14
5.69711e-14
6.57367e-14
7.45016e-14
8.32658e-14
9.20318e-14
1.00797e-13
1.0956e-13
1.18327e-13
1.2709e-13
1.35849e-13
4.38247e-15
1.31464e-14
2.19107e-14
3.06751e-14
3.9439e-14
4.82039e-14
5.69678e-14
6.57328e-14
7.44972e-14
8.32609e-14
9.20263e-14
1.00791e-13
1.09554e-13
1.1832e-13
1.27083e-13
1.35841e-13
4.38221e-15
1.31457e-14
2.19096e-14
3.06736e-14
3.94371e-14
4.82015e-14
5.69649e-14
6.57295e-14
7.44935e-14
8.32568e-14
9.20218e-14
1.00786e-13
1.09549e-13
1.18314e-13
1.27077e-13
1.35835e-13
4.382e-15
1.31458e-14
2.19097e-14
3.06737e-14
3.94372e-14
4.82016e-14
5.69651e-14
6.57297e-14
7.44937e-14
8.3257e-14
9.20221e-14
1.00786e-13
1.09549e-13
1.18315e-13
1.27077e-13
1.35835e-13
4.38201e-15
1.31446e-14
2.19076e-14
3.06708e-14
3.94335e-14
4.81971e-14
5.69598e-14
6.57236e-14
7.44868e-14
8.32493e-14
9.20135e-14
1.00777e-13
1.09539e-13
1.18304e-13
1.27066e-13
1.35823e-13
4.3816e-15
1.31447e-14
2.19078e-14
3.06711e-14
3.94338e-14
4.81976e-14
5.69603e-14
6.57242e-14
7.44874e-14
8.325e-14
9.20144e-14
1.00778e-13
1.0954e-13
1.18305e-13
1.27067e-13
1.35825e-13
4.38164e-15
1.31434e-14
2.19058e-14
3.06682e-14
3.94301e-14
4.8193e-14
5.69549e-14
6.57179e-14
7.44804e-14
8.32421e-14
9.20057e-14
1.00768e-13
1.0953e-13
1.18294e-13
1.27056e-13
1.35813e-13
4.38123e-15
1.31435e-14
2.19059e-14
3.06684e-14
3.94304e-14
4.81933e-14
5.69553e-14
6.57184e-14
7.44809e-14
8.32428e-14
9.20064e-14
1.00769e-13
1.09531e-13
1.18295e-13
1.27057e-13
1.35814e-13
4.38126e-15
1.31424e-14
2.19041e-14
3.06659e-14
3.94271e-14
4.81894e-14
5.69506e-14
6.5713e-14
7.44747e-14
8.32359e-14
9.19988e-14
1.00761e-13
1.09522e-13
1.18286e-13
1.27047e-13
1.35804e-13
4.3809e-15
1.31423e-14
2.19039e-14
3.06655e-14
3.94267e-14
4.81888e-14
5.695e-14
6.57122e-14
7.44739e-14
8.32349e-14
9.19977e-14
1.0076e-13
1.09521e-13
1.18284e-13
1.27046e-13
1.35803e-13
4.38085e-15
1.31414e-14
2.19024e-14
3.06634e-14
3.94239e-14
4.81854e-14
5.69459e-14
6.57076e-14
7.44686e-14
8.3229e-14
9.19912e-14
1.00752e-13
1.09513e-13
1.18276e-13
1.27037e-13
1.35795e-13
4.38055e-15
1.31404e-14
2.19008e-14
3.06612e-14
3.9421e-14
4.81819e-14
5.69417e-14
6.57027e-14
7.44631e-14
8.32227e-14
9.19842e-14
1.00745e-13
1.09504e-13
1.18267e-13
1.27027e-13
1.35785e-13
4.38023e-15
1.31401e-14
2.19002e-14
3.06603e-14
3.94199e-14
4.81805e-14
5.69401e-14
6.57008e-14
7.44608e-14
8.32201e-14
9.19812e-14
1.00741e-13
1.095e-13
1.18262e-13
1.27022e-13
1.35778e-13
4.38011e-15
1.31391e-14
2.18986e-14
3.06581e-14
3.9417e-14
4.8177e-14
5.69359e-14
6.56959e-14
7.44553e-14
8.32139e-14
9.19743e-14
1.00734e-13
1.09492e-13
1.18253e-13
1.27011e-13
1.35765e-13
4.37979e-15
1.31391e-14
2.18986e-14
3.06581e-14
3.94171e-14
4.8177e-14
5.69359e-14
6.56959e-14
7.44553e-14
8.32139e-14
9.19744e-14
1.00734e-13
1.09492e-13
1.18253e-13
1.27011e-13
1.35764e-13
4.37979e-15
6.31089e-30
5.04871e-29
1.26218e-29
1.00974e-28
0
-5.04871e-29
0
2.01948e-28
-5.04871e-29
0
-1.00974e-28
-5.04871e-29
0
-3.02923e-28
0
0
)
;


// ************************************************************************* //
