/*--------------------------------*- C++ -*----------------------------------*\
| =========                 |                                                 |
| \\      /  F ield         | foam-extend: Open Source CFD                    |
|  \\    /   O peration     | Version:     4.1-20200408                       |
|   \\  /    A nd           | Web:         http://www.foam-extend.org         |
|    \\/     M anipulation  |                                                 |
\*---------------------------------------------------------------------------*/
FoamFile
{
    version     2.0;
    format      ascii;
    class       pointVectorField;
    location    "0.0355000";
    object      pointDU;
}
// * * * * * * * * * * * * * * * * * * * * * * * * * * * * * * * * * * * * * //

dimensions      [0 1 0 0 0 0 0];

internalField   nonuniform List<vector> 
4059
(
(0 1.46431e-17 -3.85669e-16)
(0 -9.97835e-15 4.10864e-16)
(0 -3.45838e-08 1.50996e-09)
(0 1.4681e-17 -3.8663e-16)
(0 -9.97835e-15 -8.21582e-16)
(0 -3.45838e-08 -1.50996e-09)
(0 2.33695e-14 -1.04514e-15)
(0 8.64273e-15 -4.0215e-16)
(0 4.84632e-15 -2.36395e-16)
(0 2.81269e-15 -1.47604e-16)
(0 1.50903e-15 -9.06866e-17)
(0 5.08048e-16 -4.69828e-17)
(0 -2.57257e-16 -1.35676e-17)
(0 -8.43771e-16 1.20409e-17)
(0 -1.33582e-15 3.35223e-17)
(0 -1.57809e-15 4.40995e-17)
(0 -1.82385e-15 5.48321e-17)
(0 -1.68396e-15 4.87237e-17)
(0 -1.67345e-15 4.82634e-17)
(0 -1.14376e-15 2.51368e-17)
(0 -1.1174e-15 2.39869e-17)
(0 -3.25751e-08 1.42226e-09)
(0 -3.05558e-08 1.33409e-09)
(0 -2.85346e-08 1.24585e-09)
(0 -2.64762e-08 1.15598e-09)
(0 -2.43703e-08 1.06403e-09)
(0 -2.22486e-08 9.71396e-10)
(0 -2.00966e-08 8.77437e-10)
(0 -1.79375e-08 7.83169e-10)
(0 -1.577e-08 6.88533e-10)
(0 -1.35686e-08 5.92416e-10)
(0 -1.13478e-08 4.95455e-10)
(0 -9.10235e-09 3.97417e-10)
(0 -6.84195e-09 2.98726e-10)
(0 -4.56898e-09 1.99486e-10)
(0 -2.28619e-09 9.9817e-11)
(0 2.33695e-14 6.34422e-16)
(0 8.64273e-15 -8.56589e-18)
(0 4.84632e-15 -1.74321e-16)
(0 2.81269e-15 -2.63111e-16)
(0 1.50903e-15 -3.20031e-16)
(0 5.08048e-16 -3.63735e-16)
(0 -2.57257e-16 -3.97148e-16)
(0 -8.43771e-16 -4.22755e-16)
(0 -1.33582e-15 -4.44241e-16)
(0 -1.57809e-15 -4.54819e-16)
(0 -1.82385e-15 -4.65547e-16)
(0 -1.68396e-15 -4.5944e-16)
(0 -1.67345e-15 -4.58982e-16)
(0 -1.14376e-15 -4.35855e-16)
(0 -1.1174e-15 -4.34704e-16)
(0 -3.25751e-08 -1.42226e-09)
(0 -3.05558e-08 -1.3341e-09)
(0 -2.85346e-08 -1.24585e-09)
(0 -2.64762e-08 -1.15598e-09)
(0 -2.43703e-08 -1.06403e-09)
(0 -2.22486e-08 -9.71399e-10)
(0 -2.00966e-08 -8.7744e-10)
(0 -1.79375e-08 -7.83172e-10)
(0 -1.577e-08 -6.88535e-10)
(0 -1.35686e-08 -5.92418e-10)
(0 -1.13478e-08 -4.95456e-10)
(0 -9.10235e-09 -3.97419e-10)
(0 -6.84195e-09 -2.98727e-10)
(0 -4.56898e-09 -1.99487e-10)
(0 -2.28619e-09 -9.98177e-11)
(5.00009e-05 2.98932e-10 -1.30517e-11)
(5.00009e-05 2.98932e-10 1.30513e-11)
(5.00009e-05 1.50249e-10 6.55964e-12)
(5.00009e-05 1.50249e-10 -6.56005e-12)
(5.00008e-05 4.37464e-10 -1.91001e-11)
(5.00008e-05 4.37464e-10 1.90997e-11)
(5.00008e-05 5.65271e-10 -2.46803e-11)
(5.00008e-05 5.65271e-10 2.46799e-11)
(5.00008e-05 6.78604e-10 -2.96285e-11)
(5.00008e-05 6.78604e-10 2.96282e-11)
(5.00007e-05 7.7372e-10 -3.37814e-11)
(5.00007e-05 7.7372e-10 3.3781e-11)
(5.00007e-05 8.51865e-10 -3.71933e-11)
(5.00007e-05 8.51865e-10 3.71929e-11)
(5.00007e-05 9.07681e-10 -3.96302e-11)
(5.00007e-05 9.07681e-10 3.96299e-11)
(5.00006e-05 9.53164e-10 -4.1616e-11)
(5.00006e-05 9.53164e-10 4.16157e-11)
(5.00006e-05 9.81267e-10 -4.28431e-11)
(5.00006e-05 9.81267e-10 4.28427e-11)
(5.00006e-05 9.97879e-10 -4.35683e-11)
(5.00006e-05 9.97879e-10 4.3568e-11)
(5.00006e-05 9.99134e-10 -4.36231e-11)
(5.00006e-05 9.99134e-10 4.36228e-11)
(5.00006e-05 9.91077e-10 -4.32713e-11)
(5.00006e-05 9.91077e-10 4.3271e-11)
(5.00006e-05 9.74578e-10 -4.2551e-11)
(5.00006e-05 9.74578e-10 4.25507e-11)
(5.00006e-05 9.60093e-10 -4.19186e-11)
(5.00006e-05 9.60093e-10 4.19183e-11)
(5.00006e-05 9.59315e-10 -4.18846e-11)
(5.00006e-05 9.59315e-10 4.18843e-11)
(5.00009e-05 1.52913e-17 -4.0274e-16)
(5.00011e-05 2.1673e-10 -9.46264e-12)
(5.00011e-05 2.1673e-10 9.46224e-12)
(5.00011e-05 1.09825e-10 4.79466e-12)
(5.00011e-05 1.09825e-10 -4.79508e-12)
(5.0001e-05 3.19872e-10 -1.39659e-11)
(5.0001e-05 3.19872e-10 1.39656e-11)
(5.0001e-05 4.15674e-10 -1.81487e-11)
(5.0001e-05 4.15674e-10 1.81484e-11)
(5.0001e-05 5.03143e-10 -2.19677e-11)
(5.0001e-05 5.03143e-10 2.19674e-11)
(5.00009e-05 5.80921e-10 -2.53636e-11)
(5.00009e-05 5.80921e-10 2.53632e-11)
(5.00009e-05 6.47274e-10 -2.82606e-11)
(5.00009e-05 6.47274e-10 2.82602e-11)
(5.00008e-05 7.03554e-10 -3.07179e-11)
(5.00008e-05 7.03554e-10 3.07175e-11)
(5.00008e-05 7.51746e-10 -3.2822e-11)
(5.00008e-05 7.51746e-10 3.28216e-11)
(5.00007e-05 7.92868e-10 -3.46174e-11)
(5.00007e-05 7.92868e-10 3.4617e-11)
(5.00007e-05 8.24314e-10 -3.59904e-11)
(5.00007e-05 8.24314e-10 3.599e-11)
(5.00007e-05 8.48862e-10 -3.70621e-11)
(5.00007e-05 8.48862e-10 3.70618e-11)
(5.00007e-05 8.6382e-10 -3.77152e-11)
(5.00007e-05 8.6382e-10 3.77149e-11)
(5.00007e-05 8.72466e-10 -3.80927e-11)
(5.00007e-05 8.72466e-10 3.80924e-11)
(5.00007e-05 8.78623e-10 -3.83615e-11)
(5.00007e-05 8.78623e-10 3.83612e-11)
(5.00007e-05 8.83513e-10 -3.8575e-11)
(5.00007e-05 8.83513e-10 3.85747e-11)
(5.00011e-05 1.52913e-17 -4.02742e-16)
(5.00012e-05 1.59548e-10 -6.96604e-12)
(5.00012e-05 1.59548e-10 6.96563e-12)
(5.00012e-05 8.09007e-11 3.53181e-12)
(5.00012e-05 8.09007e-11 -3.53223e-12)
(5.00012e-05 2.37207e-10 -1.03567e-11)
(5.00012e-05 2.37207e-10 1.03563e-11)
(5.00011e-05 3.10227e-10 -1.35448e-11)
(5.00011e-05 3.10227e-10 1.35444e-11)
(5.00011e-05 3.79115e-10 -1.65525e-11)
(5.00011e-05 3.79115e-10 1.65521e-11)
(5.0001e-05 4.43061e-10 -1.93445e-11)
(5.0001e-05 4.43061e-10 1.93441e-11)
(5.0001e-05 5.00568e-10 -2.18553e-11)
(5.0001e-05 5.00568e-10 2.18549e-11)
(5.00009e-05 5.53848e-10 -2.41816e-11)
(5.00009e-05 5.53848e-10 2.41812e-11)
(5.00009e-05 6.01495e-10 -2.62618e-11)
(5.00009e-05 6.01495e-10 2.62615e-11)
(5.00009e-05 6.46207e-10 -2.8214e-11)
(5.00009e-05 6.46207e-10 2.82136e-11)
(5.00008e-05 6.83682e-10 -2.98502e-11)
(5.00008e-05 6.83682e-10 2.98499e-11)
(5.00008e-05 7.17218e-10 -3.13144e-11)
(5.00008e-05 7.17218e-10 3.13141e-11)
(5.00008e-05 7.42773e-10 -3.24302e-11)
(5.00008e-05 7.42773e-10 3.24298e-11)
(5.00008e-05 7.63084e-10 -3.3317e-11)
(5.00008e-05 7.63084e-10 3.33166e-11)
(5.00008e-05 7.79572e-10 -3.40369e-11)
(5.00008e-05 7.79572e-10 3.40365e-11)
(5.00008e-05 7.91837e-10 -3.45724e-11)
(5.00008e-05 7.91837e-10 3.4572e-11)
(5.00012e-05 1.52914e-17 -4.02743e-16)
(5.00013e-05 1.17704e-10 -5.13907e-12)
(5.00013e-05 1.17704e-10 5.13866e-12)
(5.00013e-05 5.96119e-11 2.60232e-12)
(5.00013e-05 5.96119e-11 -2.60274e-12)
(5.00013e-05 1.76283e-10 -7.69672e-12)
(5.00013e-05 1.76283e-10 7.69631e-12)
(5.00012e-05 2.32293e-10 -1.01421e-11)
(5.00012e-05 2.32293e-10 1.01417e-11)
(5.00012e-05 2.86883e-10 -1.25256e-11)
(5.00012e-05 2.86883e-10 1.25252e-11)
(5.00012e-05 3.39555e-10 -1.48253e-11)
(5.00012e-05 3.39555e-10 1.48249e-11)
(5.00011e-05 3.89031e-10 -1.69855e-11)
(5.00011e-05 3.89031e-10 1.69851e-11)
(5.00011e-05 4.37478e-10 -1.91007e-11)
(5.00011e-05 4.37478e-10 1.91003e-11)
(5.0001e-05 4.82434e-10 -2.10635e-11)
(5.0001e-05 4.82434e-10 2.10632e-11)
(5.0001e-05 5.26666e-10 -2.29947e-11)
(5.0001e-05 5.26666e-10 2.29944e-11)
(5.0001e-05 5.65591e-10 -2.46943e-11)
(5.0001e-05 5.65591e-10 2.46939e-11)
(5.0001e-05 6.02033e-10 -2.62854e-11)
(5.0001e-05 6.02033e-10 2.6285e-11)
(5.00009e-05 6.32031e-10 -2.75951e-11)
(5.00009e-05 6.32031e-10 2.75947e-11)
(5.00009e-05 6.57498e-10 -2.8707e-11)
(5.00009e-05 6.57498e-10 2.87066e-11)
(5.00009e-05 6.79586e-10 -2.96714e-11)
(5.00009e-05 6.79586e-10 2.9671e-11)
(5.00009e-05 6.97909e-10 -3.04714e-11)
(5.00009e-05 6.97909e-10 3.0471e-11)
(5.00013e-05 1.52914e-17 -4.02744e-16)
(5.00014e-05 8.62733e-11 -3.7668e-12)
(5.00014e-05 8.62733e-11 3.76638e-12)
(5.00014e-05 4.36254e-11 1.90433e-12)
(5.00014e-05 4.36254e-11 -1.90475e-12)
(5.00014e-05 1.30222e-10 -5.68564e-12)
(5.00014e-05 1.30222e-10 5.68523e-12)
(5.00013e-05 1.73063e-10 -7.55611e-12)
(5.00013e-05 1.73063e-10 7.5557e-12)
(5.00013e-05 2.16163e-10 -9.43792e-12)
(5.00013e-05 2.16163e-10 9.43752e-12)
(5.00013e-05 2.59278e-10 -1.13203e-11)
(5.00013e-05 2.59278e-10 1.13199e-11)
(5.00012e-05 3.0132e-10 -1.31559e-11)
(5.00012e-05 3.0132e-10 1.31555e-11)
(5.00012e-05 3.44206e-10 -1.50284e-11)
(5.00012e-05 3.44206e-10 1.5028e-11)
(5.00012e-05 3.85124e-10 -1.68149e-11)
(5.00012e-05 3.85124e-10 1.68145e-11)
(5.00011e-05 4.26587e-10 -1.86252e-11)
(5.00011e-05 4.26587e-10 1.86248e-11)
(5.00011e-05 4.6436e-10 -2.02744e-11)
(5.00011e-05 4.6436e-10 2.02741e-11)
(5.00011e-05 5.00765e-10 -2.18639e-11)
(5.00011e-05 5.00765e-10 2.18635e-11)
(5.0001e-05 5.32416e-10 -2.32458e-11)
(5.0001e-05 5.32416e-10 2.32454e-11)
(5.0001e-05 5.60709e-10 -2.44811e-11)
(5.0001e-05 5.60709e-10 2.44808e-11)
(5.0001e-05 5.86648e-10 -2.56136e-11)
(5.0001e-05 5.86648e-10 2.56133e-11)
(5.0001e-05 6.0977e-10 -2.66231e-11)
(5.0001e-05 6.0977e-10 2.66228e-11)
(5.00014e-05 1.52914e-17 -4.02744e-16)
(5.00014e-05 6.1705e-11 -2.69412e-12)
(5.00014e-05 6.1705e-11 2.6937e-12)
(5.00015e-05 3.11558e-11 1.35989e-12)
(5.00015e-05 3.11558e-11 -1.36032e-12)
(5.00014e-05 9.40519e-11 -4.10642e-12)
(5.00014e-05 9.40519e-11 4.106e-12)
(5.00014e-05 1.26297e-10 -5.51425e-12)
(5.00014e-05 1.26297e-10 5.51384e-12)
(5.00014e-05 1.59851e-10 -6.97928e-12)
(5.00014e-05 1.59851e-10 6.97887e-12)
(5.00013e-05 1.94704e-10 -8.501e-12)
(5.00013e-05 1.94704e-10 8.5006e-12)
(5.00013e-05 2.2982e-10 -1.00342e-11)
(5.00013e-05 2.2982e-10 1.00338e-11)
(5.00013e-05 2.67e-10 -1.16575e-11)
(5.00013e-05 2.67e-10 1.16571e-11)
(5.00013e-05 3.03377e-10 -1.32457e-11)
(5.00013e-05 3.03377e-10 1.32453e-11)
(5.00012e-05 3.41268e-10 -1.49001e-11)
(5.00012e-05 3.41268e-10 1.48997e-11)
(5.00012e-05 3.76804e-10 -1.64516e-11)
(5.00012e-05 3.76804e-10 1.64513e-11)
(5.00012e-05 4.11969e-10 -1.7987e-11)
(5.00012e-05 4.11969e-10 1.79866e-11)
(5.00012e-05 4.43904e-10 -1.93813e-11)
(5.00012e-05 4.43904e-10 1.93809e-11)
(5.00011e-05 4.73637e-10 -2.06795e-11)
(5.00011e-05 4.73637e-10 2.06791e-11)
(5.00011e-05 5.02179e-10 -2.19256e-11)
(5.00011e-05 5.02179e-10 2.19253e-11)
(5.00011e-05 5.28745e-10 -2.30855e-11)
(5.00011e-05 5.28745e-10 2.30851e-11)
(5.00015e-05 1.52914e-17 -4.02745e-16)
(5.00015e-05 4.14515e-11 -1.80984e-12)
(5.00015e-05 4.14515e-11 1.80941e-12)
(5.00015e-05 2.09054e-11 9.12347e-13)
(5.00015e-05 2.09054e-11 -9.12774e-13)
(5.00015e-05 6.41262e-11 -2.79984e-12)
(5.00015e-05 6.41262e-11 2.79942e-12)
(5.00015e-05 8.74042e-11 -3.81618e-12)
(5.00015e-05 8.74042e-11 3.81576e-12)
(5.00015e-05 1.12677e-10 -4.91962e-12)
(5.00015e-05 1.12677e-10 4.91921e-12)
(5.00014e-05 1.40182e-10 -6.1205e-12)
(5.00014e-05 1.40182e-10 6.12009e-12)
(5.00014e-05 1.68857e-10 -7.37248e-12)
(5.00014e-05 1.68857e-10 7.37207e-12)
(5.00014e-05 2.00538e-10 -8.7557e-12)
(5.00014e-05 2.00538e-10 8.75529e-12)
(5.00014e-05 2.32353e-10 -1.01448e-11)
(5.00014e-05 2.32353e-10 1.01444e-11)
(5.00013e-05 2.66563e-10 -1.16384e-11)
(5.00013e-05 2.66563e-10 1.1638e-11)
(5.00013e-05 2.99607e-10 -1.30811e-11)
(5.00013e-05 2.99607e-10 1.30807e-11)
(5.00013e-05 3.33287e-10 -1.45516e-11)
(5.00013e-05 3.33287e-10 1.45513e-11)
(5.00013e-05 3.65121e-10 -1.59415e-11)
(5.00013e-05 3.65121e-10 1.59412e-11)
(5.00012e-05 3.95848e-10 -1.72831e-11)
(5.00012e-05 3.95848e-10 1.72827e-11)
(5.00012e-05 4.26357e-10 -1.86152e-11)
(5.00012e-05 4.26357e-10 1.86148e-11)
(5.00012e-05 4.55368e-10 -1.98818e-11)
(5.00012e-05 4.55368e-10 1.98814e-11)
(5.00015e-05 1.52915e-17 -4.02745e-16)
(5.00015e-05 2.37853e-11 -1.03851e-12)
(5.00015e-05 2.37853e-11 1.03809e-12)
(5.00015e-05 1.1984e-11 5.22831e-13)
(5.00015e-05 1.1984e-11 -5.23259e-13)
(5.00015e-05 3.7969e-11 -1.65779e-12)
(5.00015e-05 3.7969e-11 1.65736e-12)
(5.00015e-05 5.32951e-11 -2.32694e-12)
(5.00015e-05 5.32951e-11 2.32652e-12)
(5.00015e-05 7.1112e-11 -3.10484e-12)
(5.00015e-05 7.1112e-11 3.10442e-12)
(5.00015e-05 9.19274e-11 -4.01366e-12)
(5.00015e-05 9.19274e-11 4.01324e-12)
(5.00015e-05 1.14598e-10 -5.00348e-12)
(5.00015e-05 1.14598e-10 5.00307e-12)
(5.00015e-05 1.41123e-10 -6.16157e-12)
(5.00015e-05 1.41123e-10 6.16116e-12)
(5.00014e-05 1.68616e-10 -7.36196e-12)
(5.00014e-05 1.68616e-10 7.36155e-12)
(5.00014e-05 1.99391e-10 -8.70561e-12)
(5.00014e-05 1.99391e-10 8.7052e-12)
(5.00014e-05 2.30091e-10 -1.0046e-11)
(5.00014e-05 2.30091e-10 1.00456e-11)
(5.00014e-05 2.62417e-10 -1.14574e-11)
(5.00014e-05 2.62417e-10 1.1457e-11)
(5.00014e-05 2.94117e-10 -1.28414e-11)
(5.00014e-05 2.94117e-10 1.2841e-11)
(5.00014e-05 3.25644e-10 -1.42179e-11)
(5.00014e-05 3.25644e-10 1.42175e-11)
(5.00013e-05 3.57708e-10 -1.56179e-11)
(5.00013e-05 3.57708e-10 1.56175e-11)
(5.00013e-05 3.88445e-10 -1.69599e-11)
(5.00013e-05 3.88445e-10 1.69595e-11)
(5.00015e-05 1.52915e-17 -4.02746e-16)
(5.00016e-05 7.41353e-12 -3.23708e-13)
(5.00016e-05 7.41353e-12 3.2328e-13)
(5.00016e-05 3.72813e-12 1.62371e-13)
(5.00016e-05 3.72813e-12 -1.628e-13)
(5.00016e-05 1.37101e-11 -5.9862e-13)
(5.00016e-05 1.37101e-11 5.98193e-13)
(5.00016e-05 2.16187e-11 -9.43921e-13)
(5.00016e-05 2.16187e-11 9.43494e-13)
(5.00016e-05 3.24362e-11 -1.41622e-12)
(5.00016e-05 3.24362e-11 1.4158e-12)
(5.00015e-05 4.69788e-11 -2.05117e-12)
(5.00015e-05 4.69788e-11 2.05074e-12)
(5.00015e-05 6.39808e-11 -2.79349e-12)
(5.00015e-05 6.39808e-11 2.79307e-12)
(5.00015e-05 8.56983e-11 -3.74169e-12)
(5.00015e-05 8.56983e-11 3.74127e-12)
(5.00015e-05 1.09197e-10 -4.76767e-12)
(5.00015e-05 1.09197e-10 4.76725e-12)
(5.00015e-05 1.36909e-10 -5.97759e-12)
(5.00015e-05 1.36909e-10 5.97718e-12)
(5.00015e-05 1.656e-10 -7.23029e-12)
(5.00015e-05 1.656e-10 7.22988e-12)
(5.00015e-05 1.96892e-10 -8.59652e-12)
(5.00015e-05 1.96892e-10 8.59612e-12)
(5.00015e-05 2.28648e-10 -9.98303e-12)
(5.00015e-05 2.28648e-10 9.98263e-12)
(5.00015e-05 2.61013e-10 -1.13961e-11)
(5.00015e-05 2.61013e-10 1.13957e-11)
(5.00014e-05 2.94471e-10 -1.28569e-11)
(5.00014e-05 2.94471e-10 1.28565e-11)
(5.00014e-05 3.26547e-10 -1.42574e-11)
(5.00014e-05 3.26547e-10 1.4257e-11)
(5.00016e-05 1.52915e-17 -4.02746e-16)
(5.00016e-05 -8.61321e-12 3.76035e-13)
(5.00016e-05 -8.61321e-12 -3.76465e-13)
(5.00016e-05 -4.34877e-12 -1.90275e-13)
(5.00016e-05 -4.34877e-12 1.89845e-13)
(5.00016e-05 -1.00297e-11 4.3788e-13)
(5.00016e-05 -1.00297e-11 -4.3831e-13)
(5.00016e-05 -9.36735e-12 4.08961e-13)
(5.00016e-05 -9.36735e-12 -4.09391e-13)
(5.00016e-05 -5.38768e-12 2.35205e-13)
(5.00016e-05 -5.38768e-12 -2.35635e-13)
(5.00016e-05 3.08066e-12 -1.3453e-13)
(5.00016e-05 3.08066e-12 1.34102e-13)
(5.00016e-05 1.46128e-11 -6.38036e-13)
(5.00016e-05 1.46128e-11 6.37609e-13)
(5.00016e-05 3.17931e-11 -1.38814e-12)
(5.00016e-05 3.17931e-11 1.38772e-12)
(5.00016e-05 5.16003e-11 -2.25294e-12)
(5.00016e-05 5.16003e-11 2.25252e-12)
(5.00016e-05 7.66186e-11 -3.34526e-12)
(5.00016e-05 7.66186e-11 3.34484e-12)
(5.00016e-05 1.03674e-10 -4.52652e-12)
(5.00016e-05 1.03674e-10 4.5261e-12)
(5.00016e-05 1.34291e-10 -5.86328e-12)
(5.00016e-05 1.34291e-10 5.86287e-12)
(5.00016e-05 1.66382e-10 -7.26441e-12)
(5.00016e-05 1.66382e-10 7.264e-12)
(5.00016e-05 1.99739e-10 -8.72082e-12)
(5.00016e-05 1.99739e-10 8.72042e-12)
(5.00015e-05 2.34615e-10 -1.02436e-11)
(5.00015e-05 2.34615e-10 1.02432e-11)
(5.00015e-05 2.67912e-10 -1.16973e-11)
(5.00015e-05 2.67912e-10 1.16969e-11)
(5.00016e-05 1.52915e-17 -4.02746e-16)
(5.00016e-05 -2.505e-11 1.09368e-12)
(5.00016e-05 -2.505e-11 -1.09411e-12)
(5.00016e-05 -1.26317e-11 -5.51917e-13)
(5.00016e-05 -1.26317e-11 5.51486e-13)
(5.00016e-05 -3.4355e-11 1.49994e-12)
(5.00016e-05 -3.4355e-11 -1.50038e-12)
(5.00016e-05 -4.10732e-11 1.79327e-12)
(5.00016e-05 -4.10732e-11 -1.7937e-12)
(5.00016e-05 -4.40333e-11 1.92251e-12)
(5.00016e-05 -4.40333e-11 -1.92294e-12)
(5.00016e-05 -4.16529e-11 1.81858e-12)
(5.00016e-05 -4.16529e-11 -1.81901e-12)
(5.00016e-05 -3.55516e-11 1.55219e-12)
(5.00016e-05 -3.55516e-11 -1.55262e-12)
(5.00017e-05 -2.27598e-11 9.93688e-13)
(5.00017e-05 -2.27598e-11 -9.9412e-13)
(5.00017e-05 -6.41985e-12 2.80271e-13)
(5.00017e-05 -6.41985e-12 -2.807e-13)
(5.00017e-05 1.62151e-11 -7.07992e-13)
(5.00017e-05 1.62151e-11 7.07565e-13)
(5.00017e-05 4.19926e-11 -1.83346e-12)
(5.00017e-05 4.19926e-11 1.83304e-12)
(5.00017e-05 7.23049e-11 -3.15693e-12)
(5.00017e-05 7.23049e-11 3.1565e-12)
(5.00017e-05 1.05079e-10 -4.58785e-12)
(5.00017e-05 1.05079e-10 4.58744e-12)
(5.00017e-05 1.39703e-10 -6.0996e-12)
(5.00017e-05 1.39703e-10 6.09919e-12)
(5.00016e-05 1.76209e-10 -7.69346e-12)
(5.00016e-05 1.76209e-10 7.69305e-12)
(5.00016e-05 2.10862e-10 -9.20648e-12)
(5.00016e-05 2.10862e-10 9.20607e-12)
(5.00016e-05 1.52915e-17 -4.02746e-16)
(5.00016e-05 -4.25074e-11 1.85589e-12)
(5.00016e-05 -4.25074e-11 -1.85632e-12)
(5.00016e-05 -2.14308e-11 -9.36096e-13)
(5.00016e-05 -2.14308e-11 9.35664e-13)
(5.00016e-05 -6.01652e-11 2.62684e-12)
(5.00016e-05 -6.01652e-11 -2.62728e-12)
(5.00016e-05 -7.46581e-11 3.25962e-12)
(5.00016e-05 -7.46581e-11 -3.26005e-12)
(5.00016e-05 -8.48963e-11 3.70662e-12)
(5.00016e-05 -8.48963e-11 -3.70706e-12)
(5.00017e-05 -8.88204e-11 3.87796e-12)
(5.00017e-05 -8.88204e-11 -3.87839e-12)
(5.00017e-05 -8.82819e-11 3.85444e-12)
(5.00017e-05 -8.82819e-11 -3.85488e-12)
(5.00017e-05 -7.98747e-11 3.48738e-12)
(5.00017e-05 -7.98747e-11 -3.48782e-12)
(5.00017e-05 -6.68879e-11 2.92036e-12)
(5.00017e-05 -6.68879e-11 -2.9208e-12)
(5.00017e-05 -4.64155e-11 2.02652e-12)
(5.00017e-05 -4.64155e-11 -2.02695e-12)
(5.00017e-05 -2.1601e-11 9.43093e-13)
(5.00017e-05 -2.1601e-11 -9.43525e-13)
(5.00018e-05 8.76467e-12 -3.827e-13)
(5.00018e-05 8.76467e-12 3.82271e-13)
(5.00018e-05 4.26186e-11 -1.8608e-12)
(5.00018e-05 4.26186e-11 1.86037e-12)
(5.00018e-05 7.88902e-11 -3.44444e-12)
(5.00018e-05 7.88902e-11 3.44403e-12)
(5.00017e-05 1.17407e-10 -5.12611e-12)
(5.00017e-05 1.17407e-10 5.12569e-12)
(5.00017e-05 1.53777e-10 -6.71408e-12)
(5.00017e-05 1.53777e-10 6.71367e-12)
(5.00016e-05 1.52915e-17 -4.02746e-16)
(5.00016e-05 -6.14985e-11 2.68505e-12)
(5.00016e-05 -6.14985e-11 -2.68549e-12)
(5.00016e-05 -3.10056e-11 -1.35414e-12)
(5.00016e-05 -3.10056e-11 1.35371e-12)
(5.00016e-05 -8.82207e-11 3.85177e-12)
(5.00016e-05 -8.82207e-11 -3.85221e-12)
(5.00016e-05 -1.1111e-10 4.85113e-12)
(5.00016e-05 -1.1111e-10 -4.85157e-12)
(5.00017e-05 -1.29179e-10 5.64003e-12)
(5.00017e-05 -1.29179e-10 -5.64048e-12)
(5.00017e-05 -1.39814e-10 6.10438e-12)
(5.00017e-05 -1.39814e-10 -6.10483e-12)
(5.00017e-05 -1.45138e-10 6.33686e-12)
(5.00017e-05 -1.45138e-10 -6.3373e-12)
(5.00017e-05 -1.41258e-10 6.16742e-12)
(5.00017e-05 -1.41258e-10 -6.16787e-12)
(5.00018e-05 -1.31624e-10 5.74682e-12)
(5.00018e-05 -1.31624e-10 -5.74726e-12)
(5.00018e-05 -1.13183e-10 4.94166e-12)
(5.00018e-05 -1.13183e-10 -4.9421e-12)
(5.00018e-05 -8.90595e-11 3.8884e-12)
(5.00018e-05 -8.90595e-11 -3.88884e-12)
(5.00018e-05 -5.82868e-11 2.54483e-12)
(5.00018e-05 -5.82868e-11 -2.54527e-12)
(5.00018e-05 -2.28956e-11 9.99618e-13)
(5.00018e-05 -2.28956e-11 -1.00005e-12)
(5.00019e-05 1.55143e-11 -6.77396e-13)
(5.00019e-05 1.55143e-11 6.7697e-13)
(5.00018e-05 5.65955e-11 -2.47104e-12)
(5.00018e-05 5.65955e-11 2.47062e-12)
(5.00018e-05 9.52544e-11 -4.15892e-12)
(5.00018e-05 9.52544e-11 4.1585e-12)
(5.00016e-05 1.52915e-17 -4.02746e-16)
(5.00015e-05 -8.24496e-11 3.5998e-12)
(5.00015e-05 -8.24496e-11 -3.60024e-12)
(5.00015e-05 -4.15712e-11 -1.81544e-12)
(5.00015e-05 -4.15712e-11 1.81501e-12)
(5.00016e-05 -1.19158e-10 5.20252e-12)
(5.00016e-05 -1.19158e-10 -5.20296e-12)
(5.00016e-05 -1.51261e-10 6.60417e-12)
(5.00016e-05 -1.51261e-10 -6.60462e-12)
(5.00016e-05 -1.77905e-10 7.76747e-12)
(5.00016e-05 -1.77905e-10 -7.76792e-12)
(5.00017e-05 -1.95833e-10 8.55023e-12)
(5.00017e-05 -1.95833e-10 -8.55068e-12)
(5.00017e-05 -2.0748e-10 9.05875e-12)
(5.00017e-05 -2.0748e-10 -9.0592e-12)
(5.00018e-05 -2.0841e-10 9.09934e-12)
(5.00018e-05 -2.0841e-10 -9.09979e-12)
(5.00018e-05 -2.02242e-10 8.83003e-12)
(5.00018e-05 -2.02242e-10 -8.83048e-12)
(5.00019e-05 -1.85788e-10 8.11165e-12)
(5.00019e-05 -1.85788e-10 -8.1121e-12)
(5.00019e-05 -1.62122e-10 7.07836e-12)
(5.00019e-05 -1.62122e-10 -7.07881e-12)
(5.00019e-05 -1.30588e-10 5.70156e-12)
(5.00019e-05 -1.30588e-10 -5.702e-12)
(5.00019e-05 -9.31399e-11 4.06655e-12)
(5.00019e-05 -9.31399e-11 -4.06699e-12)
(5.0002e-05 -5.19853e-11 2.2697e-12)
(5.0002e-05 -5.19853e-11 -2.27014e-12)
(5.00019e-05 -7.61676e-12 3.32529e-13)
(5.00019e-05 -7.61676e-12 -3.32959e-13)
(5.00019e-05 3.41072e-11 -1.48918e-12)
(5.00019e-05 3.41072e-11 1.48875e-12)
(5.00015e-05 1.52915e-17 -4.02745e-16)
(5.00015e-05 -1.05706e-10 4.61521e-12)
(5.00015e-05 -1.05706e-10 -4.61565e-12)
(5.00015e-05 -5.33011e-11 -2.32758e-12)
(5.00015e-05 -5.33011e-11 2.32715e-12)
(5.00015e-05 -1.53496e-10 6.70176e-12)
(5.00015e-05 -1.53496e-10 -6.70221e-12)
(5.00015e-05 -1.95796e-10 8.5486e-12)
(5.00015e-05 -1.95796e-10 -8.54905e-12)
(5.00016e-05 -2.31925e-10 1.0126e-11)
(5.00016e-05 -2.31925e-10 -1.01265e-11)
(5.00017e-05 -2.5788e-10 1.12592e-11)
(5.00017e-05 -2.5788e-10 -1.12597e-11)
(5.00017e-05 -2.76453e-10 1.20702e-11)
(5.00017e-05 -2.76453e-10 -1.20706e-11)
(5.00018e-05 -2.82604e-10 1.23387e-11)
(5.00018e-05 -2.82604e-10 -1.23392e-11)
(5.00019e-05 -2.80114e-10 1.223e-11)
(5.00019e-05 -2.80114e-10 -1.22305e-11)
(5.00019e-05 -2.6568e-10 1.15998e-11)
(5.00019e-05 -2.6568e-10 -1.16003e-11)
(5.0002e-05 -2.42267e-10 1.05776e-11)
(5.0002e-05 -2.42267e-10 -1.0578e-11)
(5.0002e-05 -2.09607e-10 9.1516e-12)
(5.0002e-05 -2.09607e-10 -9.15206e-12)
(5.0002e-05 -1.6951e-10 7.40095e-12)
(5.0002e-05 -1.6951e-10 -7.4014e-12)
(5.00021e-05 -1.24885e-10 5.45258e-12)
(5.00021e-05 -1.24885e-10 -5.45302e-12)
(5.0002e-05 -7.63322e-11 3.33271e-12)
(5.0002e-05 -7.63322e-11 -3.33315e-12)
(5.0002e-05 -3.0561e-11 1.3343e-12)
(5.0002e-05 -3.0561e-11 -1.33473e-12)
(5.00014e-05 1.52914e-17 -4.02745e-16)
(5.00014e-05 -1.31512e-10 5.7419e-12)
(5.00014e-05 -1.31512e-10 -5.74235e-12)
(5.00014e-05 -6.63171e-11 -2.89588e-12)
(5.00014e-05 -6.63171e-11 2.89544e-12)
(5.00014e-05 -1.91607e-10 8.36571e-12)
(5.00014e-05 -1.91607e-10 -8.36616e-12)
(5.00015e-05 -2.45208e-10 1.0706e-11)
(5.00015e-05 -2.45208e-10 -1.07064e-11)
(5.00016e-05 -2.91863e-10 1.2743e-11)
(5.00016e-05 -2.91863e-10 -1.27435e-11)
(5.00016e-05 -3.26702e-10 1.42641e-11)
(5.00016e-05 -3.26702e-10 -1.42646e-11)
(5.00017e-05 -3.52924e-10 1.5409e-11)
(5.00017e-05 -3.52924e-10 -1.54095e-11)
(5.00018e-05 -3.64818e-10 1.59282e-11)
(5.00018e-05 -3.64818e-10 -1.59287e-11)
(5.00019e-05 -3.66305e-10 1.59932e-11)
(5.00019e-05 -3.66305e-10 -1.59936e-11)
(5.0002e-05 -3.53988e-10 1.54554e-11)
(5.0002e-05 -3.53988e-10 -1.54559e-11)
(5.0002e-05 -3.30643e-10 1.44362e-11)
(5.0002e-05 -3.30643e-10 -1.44366e-11)
(5.00021e-05 -2.96475e-10 1.29444e-11)
(5.00021e-05 -2.96475e-10 -1.29448e-11)
(5.00021e-05 -2.53061e-10 1.10489e-11)
(5.00021e-05 -2.53061e-10 -1.10493e-11)
(5.00022e-05 -2.04114e-10 8.9118e-12)
(5.00022e-05 -2.04114e-10 -8.91225e-12)
(5.00022e-05 -1.50303e-10 6.56232e-12)
(5.00022e-05 -1.50303e-10 -6.56277e-12)
(5.00022e-05 -9.92881e-11 4.33498e-12)
(5.00022e-05 -9.92881e-11 -4.33543e-12)
(5.00013e-05 1.52914e-17 -4.02744e-16)
(5.00012e-05 -1.59987e-10 6.98515e-12)
(5.00012e-05 -1.59987e-10 -6.98559e-12)
(5.00012e-05 -8.06789e-11 -3.52293e-12)
(5.00012e-05 -8.06789e-11 3.52249e-12)
(5.00013e-05 -2.33683e-10 1.02028e-11)
(5.00013e-05 -2.33683e-10 -1.02033e-11)
(5.00014e-05 -2.99761e-10 1.30878e-11)
(5.00014e-05 -2.99761e-10 -1.30883e-11)
(5.00015e-05 -3.58072e-10 1.56337e-11)
(5.00015e-05 -3.58072e-10 -1.56342e-11)
(5.00016e-05 -4.0274e-10 1.7584e-11)
(5.00016e-05 -4.0274e-10 -1.75844e-11)
(5.00017e-05 -4.37426e-10 1.90984e-11)
(5.00017e-05 -4.37426e-10 -1.90989e-11)
(5.00018e-05 -4.5567e-10 1.98949e-11)
(5.00018e-05 -4.5567e-10 -1.98954e-11)
(5.00019e-05 -4.61504e-10 2.01497e-11)
(5.00019e-05 -4.61504e-10 -2.01502e-11)
(5.0002e-05 -4.51458e-10 1.97111e-11)
(5.0002e-05 -4.51458e-10 -1.97115e-11)
(5.00021e-05 -4.28009e-10 1.86873e-11)
(5.00021e-05 -4.28009e-10 -1.86877e-11)
(5.00022e-05 -3.91933e-10 1.71121e-11)
(5.00022e-05 -3.91933e-10 -1.71126e-11)
(5.00022e-05 -3.44452e-10 1.50391e-11)
(5.00022e-05 -3.44452e-10 -1.50395e-11)
(5.00023e-05 -2.90207e-10 1.26707e-11)
(5.00023e-05 -2.90207e-10 -1.26712e-11)
(5.00023e-05 -2.29877e-10 1.00366e-11)
(5.00023e-05 -2.29877e-10 -1.00371e-11)
(5.00023e-05 -1.722e-10 7.5184e-12)
(5.00023e-05 -1.722e-10 -7.51885e-12)
(5.00012e-05 1.52914e-17 -4.02743e-16)
(5.00011e-05 -1.91082e-10 8.34278e-12)
(5.00011e-05 -1.91082e-10 -8.34323e-12)
(5.00011e-05 -9.63599e-11 -4.20758e-12)
(5.00011e-05 -9.63599e-11 4.20714e-12)
(5.00012e-05 -2.7967e-10 1.22106e-11)
(5.00012e-05 -2.7967e-10 -1.22111e-11)
(5.00012e-05 -3.59402e-10 1.56918e-11)
(5.00012e-05 -3.59402e-10 -1.56923e-11)
(5.00014e-05 -4.30522e-10 1.87969e-11)
(5.00014e-05 -4.30522e-10 -1.87974e-11)
(5.00015e-05 -4.85998e-10 2.12191e-11)
(5.00015e-05 -4.85998e-10 -2.12196e-11)
(5.00016e-05 -5.30014e-10 2.31409e-11)
(5.00016e-05 -5.30014e-10 -2.31414e-11)
(5.00018e-05 -5.55277e-10 2.42439e-11)
(5.00018e-05 -5.55277e-10 -2.42444e-11)
(5.00019e-05 -5.65876e-10 2.47067e-11)
(5.00019e-05 -5.65876e-10 -2.47072e-11)
(5.0002e-05 -5.58299e-10 2.43758e-11)
(5.0002e-05 -5.58299e-10 -2.43763e-11)
(5.00022e-05 -5.3458e-10 2.33403e-11)
(5.00022e-05 -5.3458e-10 -2.33407e-11)
(5.00023e-05 -4.96174e-10 2.16634e-11)
(5.00023e-05 -4.96174e-10 -2.16639e-11)
(5.00024e-05 -4.43794e-10 1.93764e-11)
(5.00024e-05 -4.43794e-10 -1.93769e-11)
(5.00024e-05 -3.8315e-10 1.67286e-11)
(5.00024e-05 -3.8315e-10 -1.67291e-11)
(5.00024e-05 -3.14851e-10 1.37466e-11)
(5.00024e-05 -3.14851e-10 -1.37471e-11)
(5.00024e-05 -2.48855e-10 1.08652e-11)
(5.00024e-05 -2.48855e-10 -1.08657e-11)
(5.0001e-05 1.52913e-17 -4.02741e-16)
(5.00009e-05 -2.24528e-10 9.80309e-12)
(5.00009e-05 -2.24528e-10 -9.80354e-12)
(5.00008e-05 -1.13223e-10 -4.94385e-12)
(5.00008e-05 -1.13223e-10 4.9434e-12)
(5.0001e-05 -3.29195e-10 1.43729e-11)
(5.0001e-05 -3.29195e-10 -1.43734e-11)
(5.00011e-05 -4.23664e-10 1.84975e-11)
(5.00011e-05 -4.23664e-10 -1.8498e-11)
(5.00012e-05 -5.08697e-10 2.22102e-11)
(5.00012e-05 -5.08697e-10 -2.22107e-11)
(5.00014e-05 -5.75933e-10 2.51457e-11)
(5.00014e-05 -5.75933e-10 -2.51462e-11)
(5.00015e-05 -6.30146e-10 2.75127e-11)
(5.00015e-05 -6.30146e-10 -2.75132e-11)
(5.00017e-05 -6.63117e-10 2.89523e-11)
(5.00017e-05 -6.63117e-10 -2.89528e-11)
(5.00019e-05 -6.78931e-10 2.96427e-11)
(5.00019e-05 -6.78931e-10 -2.96432e-11)
(5.00021e-05 -6.74055e-10 2.94299e-11)
(5.00021e-05 -6.74055e-10 -2.94304e-11)
(5.00022e-05 -6.49909e-10 2.83756e-11)
(5.00022e-05 -6.49909e-10 -2.83761e-11)
(5.00024e-05 -6.08738e-10 2.6578e-11)
(5.00024e-05 -6.08738e-10 -2.65785e-11)
(5.00025e-05 -5.50558e-10 2.40378e-11)
(5.00025e-05 -5.50558e-10 -2.40383e-11)
(5.00026e-05 -4.82292e-10 2.10573e-11)
(5.00026e-05 -4.82292e-10 -2.10578e-11)
(5.00026e-05 -4.04381e-10 1.76556e-11)
(5.00026e-05 -4.04381e-10 -1.76561e-11)
(5.00026e-05 -3.28162e-10 1.43278e-11)
(5.00026e-05 -3.28162e-10 -1.43283e-11)
(5.00008e-05 1.52913e-17 -4.0274e-16)
(5.00006e-05 -2.5976e-10 1.13414e-11)
(5.00006e-05 -2.5976e-10 -1.13418e-11)
(5.00006e-05 -1.30981e-10 -5.71916e-12)
(5.00006e-05 -1.30981e-10 5.71872e-12)
(5.00007e-05 -3.8145e-10 1.66544e-11)
(5.00007e-05 -3.8145e-10 -1.66549e-11)
(5.00009e-05 -4.91525e-10 2.14604e-11)
(5.00009e-05 -4.91525e-10 -2.14609e-11)
(5.0001e-05 -5.91417e-10 2.58218e-11)
(5.0001e-05 -5.91417e-10 -2.58223e-11)
(5.00012e-05 -6.71244e-10 2.93071e-11)
(5.00012e-05 -6.71244e-10 -2.93076e-11)
(5.00014e-05 -7.36455e-10 3.21543e-11)
(5.00014e-05 -7.36455e-10 -3.21548e-11)
(5.00016e-05 -7.77803e-10 3.39596e-11)
(5.00016e-05 -7.77803e-10 -3.39601e-11)
(5.00019e-05 -7.99277e-10 3.48972e-11)
(5.00019e-05 -7.99277e-10 -3.48977e-11)
(5.00021e-05 -7.9736e-10 3.48135e-11)
(5.00021e-05 -7.9736e-10 -3.4814e-11)
(5.00023e-05 -7.72632e-10 3.37338e-11)
(5.00023e-05 -7.72632e-10 -3.37343e-11)
(5.00025e-05 -7.2826e-10 3.17965e-11)
(5.00025e-05 -7.2826e-10 -3.1797e-11)
(5.00026e-05 -6.63313e-10 2.89609e-11)
(5.00026e-05 -6.63313e-10 -2.89614e-11)
(5.00027e-05 -5.86097e-10 2.55895e-11)
(5.00027e-05 -5.86097e-10 -2.559e-11)
(5.00028e-05 -4.96738e-10 2.1688e-11)
(5.00028e-05 -4.96738e-10 -2.16885e-11)
(5.00028e-05 -4.08127e-10 1.78192e-11)
(5.00028e-05 -4.08127e-10 -1.78197e-11)
(5.00005e-05 1.52912e-17 -4.02738e-16)
(5.00003e-05 -2.95826e-10 1.2916e-11)
(5.00003e-05 -2.95826e-10 -1.29165e-11)
(5.00003e-05 -1.4915e-10 -6.51244e-12)
(5.00003e-05 -1.4915e-10 6.512e-12)
(5.00005e-05 -4.35066e-10 1.89954e-11)
(5.00005e-05 -4.35066e-10 -1.89958e-11)
(5.00006e-05 -5.61237e-10 2.45041e-11)
(5.00006e-05 -5.61237e-10 -2.45046e-11)
(5.00008e-05 -6.76637e-10 2.95426e-11)
(5.00008e-05 -6.76637e-10 -2.95431e-11)
(5.0001e-05 -7.69658e-10 3.36039e-11)
(5.0001e-05 -7.69658e-10 -3.36045e-11)
(5.00013e-05 -8.46513e-10 3.69595e-11)
(5.00013e-05 -8.46513e-10 -3.696e-11)
(5.00015e-05 -8.96819e-10 3.91559e-11)
(5.00015e-05 -8.96819e-10 -3.91565e-11)
(5.00018e-05 -9.24366e-10 4.03586e-11)
(5.00018e-05 -9.24366e-10 -4.03592e-11)
(5.00021e-05 -9.25678e-10 4.04159e-11)
(5.00021e-05 -9.25678e-10 -4.04165e-11)
(5.00023e-05 -9.00229e-10 3.93048e-11)
(5.00023e-05 -9.00229e-10 -3.93053e-11)
(5.00026e-05 -8.52237e-10 3.72095e-11)
(5.00026e-05 -8.52237e-10 -3.721e-11)
(5.00027e-05 -7.79522e-10 3.40346e-11)
(5.00027e-05 -7.79522e-10 -3.40352e-11)
(5.00029e-05 -6.91943e-10 3.02108e-11)
(5.00029e-05 -6.91943e-10 -3.02114e-11)
(5.00029e-05 -5.8912e-10 2.57215e-11)
(5.00029e-05 -5.8912e-10 -2.5722e-11)
(5.0003e-05 -4.85687e-10 2.12055e-11)
(5.0003e-05 -4.85687e-10 -2.1206e-11)
(5.00002e-05 1.52911e-17 -4.02735e-16)
(5e-05 -3.31268e-10 1.44635e-11)
(5e-05 -3.31268e-10 -1.44639e-11)
(4.99999e-05 -1.66992e-10 -7.29144e-12)
(4.99999e-05 -1.66992e-10 7.29099e-12)
(5.00001e-05 -4.87936e-10 2.13037e-11)
(5.00001e-05 -4.87936e-10 -2.13042e-11)
(5.00003e-05 -6.30104e-10 2.75109e-11)
(5.00003e-05 -6.30104e-10 -2.75114e-11)
(5.00005e-05 -7.61184e-10 3.3234e-11)
(5.00005e-05 -7.61184e-10 -3.32345e-11)