/*--------------------------------*- C++ -*----------------------------------*\
| =========                 |                                                 |
| \\      /  F ield         | foam-extend: Open Source CFD                    |
|  \\    /   O peration     | Version:     4.1-20200408                       |
|   \\  /    A nd           | Web:         http://www.foam-extend.org         |
|    \\/     M anipulation  |                                                 |
\*---------------------------------------------------------------------------*/
FoamFile
{
    version     2.0;
    format      ascii;
    class       volScalarField::DimensionedInternalField;
    location    "0.0355000";
    object      V0;
}
// * * * * * * * * * * * * * * * * * * * * * * * * * * * * * * * * * * * * * //

dimensions      [0 3 0 0 0 0 0];

value           nonuniform List<scalar> 
1952
(
1.38794e-14
2.31335e-14
3.23894e-14
4.16467e-14
5.0909e-14
6.01733e-14
6.94455e-14
7.87218e-14
8.80071e-14
9.73052e-14
1.06618e-13
1.15956e-13
1.25324e-13
1.34734e-13
1.44112e-13
4.62644e-15
1.38779e-14
2.3131e-14
3.2386e-14
4.16423e-14
5.09036e-14
6.0167e-14
6.94383e-14
7.87137e-14
8.79981e-14
9.72953e-14
1.06607e-13
1.15945e-13
1.25312e-13
1.34721e-13
1.44097e-13
4.62594e-15
1.38765e-14
2.31286e-14
3.23827e-14
4.16381e-14
5.08985e-14
6.0161e-14
6.94314e-14
7.8706e-14
8.79894e-14
9.72859e-14
1.06597e-13
1.15934e-13
1.253e-13
1.34709e-13
1.44084e-13
4.62546e-15
1.38752e-14
2.31264e-14
3.23796e-14
4.16341e-14
5.08937e-14
6.01553e-14
6.9425e-14
7.86987e-14
8.79814e-14
9.72771e-14
1.06587e-13
1.15924e-13
1.25289e-13
1.34697e-13
1.44072e-13
4.62501e-15
1.38739e-14
2.31243e-14
3.23766e-14
4.16303e-14
5.08891e-14
6.01499e-14
6.94188e-14
7.86917e-14
8.79736e-14
9.72686e-14
1.06578e-13
1.15914e-13
1.25279e-13
1.34686e-13
1.4406e-13
4.62459e-15
1.38725e-14
2.3122e-14
3.23734e-14
4.16263e-14
5.08842e-14
6.01441e-14
6.94122e-14
7.86843e-14
8.79654e-14
9.72595e-14
1.06568e-13
1.15903e-13
1.25268e-13
1.34674e-13
1.44047e-13
4.62414e-15
1.3871e-14
2.31195e-14
3.23699e-14
4.16218e-14
5.08786e-14
6.01376e-14
6.94047e-14
7.86758e-14
8.7956e-14
9.72492e-14
1.06557e-13
1.15891e-13
1.25255e-13
1.3466e-13
1.44033e-13
4.62362e-15
1.38696e-14
2.31171e-14
3.23667e-14
4.16176e-14
5.08736e-14
6.01317e-14
6.93979e-14
7.86682e-14
8.79474e-14
9.72399e-14
1.06547e-13
1.1588e-13
1.25243e-13
1.34648e-13
1.4402e-13
4.62316e-15
1.38685e-14
2.31153e-14
3.23642e-14
4.16144e-14
5.08697e-14
6.01272e-14
6.93927e-14
7.86623e-14
8.79409e-14
9.72328e-14
1.06539e-13
1.15872e-13
1.25234e-13
1.34639e-13
1.4401e-13
4.6228e-15
1.3867e-14
2.31128e-14
3.23606e-14
4.16098e-14
5.08641e-14
6.01206e-14
6.93851e-14
7.86538e-14
8.79314e-14
9.72223e-14
1.06528e-13
1.1586e-13
1.25221e-13
1.34625e-13
1.43995e-13
4.62228e-15
1.38657e-14
2.31106e-14
3.23575e-14
4.16059e-14
5.08594e-14
6.01151e-14
6.93787e-14
7.86466e-14
8.79234e-14
9.72136e-14
1.06518e-13
1.1585e-13
1.25211e-13
1.34613e-13
1.43982e-13
4.62185e-15
1.38643e-14
2.31084e-14
3.23545e-14
4.1602e-14
5.08546e-14
6.01095e-14
6.93722e-14
7.86393e-14
8.79153e-14
9.72047e-14
1.06509e-13
1.15839e-13
1.252e-13
1.34601e-13
1.4397e-13
4.6214e-15
1.38631e-14
2.31063e-14
3.23516e-14
4.15983e-14
5.08502e-14
6.01043e-14
6.93662e-14
7.86325e-14
8.79078e-14
9.71964e-14
1.065e-13
1.1583e-13
1.25189e-13
1.3459e-13
1.43958e-13
4.62099e-15
1.38615e-14
2.31036e-14
3.23478e-14
4.15935e-14
5.08443e-14
6.00973e-14
6.93582e-14
7.86235e-14
8.78977e-14
9.71854e-14
1.06488e-13
1.15817e-13
1.25175e-13
1.34576e-13
1.43942e-13
4.62045e-15
1.38603e-14
2.31016e-14
3.2345e-14
4.15899e-14
5.08399e-14
6.00922e-14
6.93523e-14
7.86169e-14
8.78904e-14
9.71773e-14
1.06479e-13
1.15807e-13
1.25166e-13
1.34565e-13
1.43931e-13
4.62005e-15
1.38589e-14
2.30994e-14
3.23419e-14
4.1586e-14
5.08351e-14
6.00866e-14
6.93459e-14
7.86096e-14
8.78823e-14
9.71684e-14
1.06469e-13
1.15797e-13
1.25154e-13
1.34553e-13
1.43918e-13
4.6196e-15
1.38576e-14
2.30972e-14
3.23388e-14
4.1582e-14
5.08303e-14
6.00809e-14
6.93393e-14
7.86022e-14
8.78741e-14
9.71594e-14
1.0646e-13
1.15787e-13
1.25143e-13
1.34541e-13
1.43905e-13
4.61915e-15
1.38563e-14
2.3095e-14
3.23357e-14
4.1578e-14
5.08255e-14
6.00753e-14
6.93328e-14
7.85948e-14
8.78659e-14
9.71505e-14
1.0645e-13
1.15776e-13
1.25132e-13
1.34529e-13
1.43893e-13
4.61871e-15
1.38549e-14
2.30927e-14
3.23326e-14
4.1574e-14
5.08205e-14
6.00695e-14
6.93261e-14
7.85874e-14
8.78576e-14
9.71414e-14
1.0644e-13
1.15765e-13
1.25121e-13
1.34517e-13
1.4388e-13
4.61825e-15
1.38536e-14
2.30906e-14
3.23296e-14
4.15701e-14
5.08159e-14
6.0064e-14
6.93198e-14
7.85803e-14
8.78498e-14
9.71328e-14
1.06431e-13
1.15755e-13
1.2511e-13
1.34506e-13
1.43868e-13
4.61782e-15
1.3852e-14
2.3088e-14
3.23259e-14
4.15655e-14
5.08102e-14
6.00574e-14
6.93123e-14
7.85718e-14
8.78403e-14
9.71225e-14
1.0642e-13
1.15743e-13
1.25097e-13
1.34492e-13
1.43853e-13
4.6173e-15
1.38508e-14
2.30859e-14
3.2323e-14
4.15618e-14
5.08058e-14
6.00522e-14
6.93063e-14
7.8565e-14
8.78328e-14
9.71143e-14
1.06411e-13
1.15734e-13
1.25087e-13
1.34481e-13
1.43842e-13
4.61688e-15
1.38495e-14
2.30837e-14
3.232e-14
4.1558e-14
5.08011e-14
6.00467e-14
6.93e-14
7.8558e-14
8.78251e-14
9.71058e-14
1.06402e-13
1.15724e-13
1.25077e-13
1.3447e-13
1.4383e-13
4.61645e-15
1.38479e-14
2.30811e-14
3.23164e-14
4.15533e-14
5.07955e-14
6.00402e-14
6.92925e-14
7.85495e-14
8.78158e-14
9.70956e-14
1.06391e-13
1.15712e-13
1.25064e-13
1.34457e-13
1.43816e-13
4.61593e-15
1.38465e-14
2.30787e-14
3.2313e-14
4.1549e-14
5.07903e-14
6.00341e-14
6.92855e-14
7.85417e-14
8.78071e-14
9.70861e-14
1.0638e-13
1.15702e-13
1.25053e-13
1.34444e-13
1.43803e-13
4.61544e-15
1.38453e-14
2.30767e-14
3.23102e-14
4.15455e-14
5.0786e-14
6.00291e-14
6.92798e-14
7.85353e-14
8.78001e-14
9.70785e-14
1.06372e-13
1.15693e-13
1.25044e-13
1.34435e-13
1.43793e-13
4.61504e-15
1.38439e-14
2.30744e-14
3.2307e-14
4.15414e-14
5.0781e-14
6.00233e-14
6.92732e-14
7.85279e-14
8.7792e-14
9.70697e-14
1.06363e-13
1.15683e-13
1.25033e-13
1.34424e-13
1.43781e-13
4.61457e-15
1.38424e-14
2.30719e-14
3.23035e-14
4.15369e-14
5.07756e-14
6.0017e-14
6.92661e-14
7.85199e-14
8.77833e-14
9.70602e-14
1.06353e-13
1.15672e-13
1.25022e-13
1.34412e-13
1.43768e-13
4.61406e-15
1.38409e-14
2.30695e-14
3.23002e-14
4.15327e-14
5.07705e-14
6.0011e-14
6.92592e-14
7.85123e-14
8.7775e-14
9.70512e-14
1.06343e-13
1.15662e-13
1.25011e-13
1.34401e-13
1.43757e-13
4.61358e-15
1.38394e-14
2.30669e-14
3.22967e-14
4.15282e-14
5.07651e-14
6.00048e-14
6.92521e-14
7.85044e-14
8.77664e-14
9.70419e-14
1.06333e-13
1.15652e-13
1.25e-13
1.34389e-13
1.43745e-13
4.61307e-15
1.38378e-14
2.30644e-14
3.22931e-14
4.15237e-14
5.07596e-14
5.99985e-14
6.92449e-14
7.84965e-14
8.77578e-14
9.70326e-14
1.06324e-13
1.15641e-13
1.2499e-13
1.34378e-13
1.43734e-13
4.61255e-15
1.38361e-14
2.30616e-14
3.22892e-14
4.15187e-14
5.07536e-14
5.99915e-14
6.92371e-14
7.84877e-14
8.77483e-14
9.70225e-14
1.06313e-13
1.1563e-13
1.24978e-13
1.34366e-13
1.43721e-13
4.61198e-15
1.38344e-14
2.30587e-14
3.22852e-14
4.15137e-14
5.07476e-14
5.99846e-14
6.92292e-14
7.8479e-14
8.77389e-14
9.70124e-14
1.06302e-13
1.15619e-13
1.24967e-13
1.34355e-13
1.4371e-13
4.6114e-15
1.38327e-14
2.3056e-14
3.22814e-14
4.15089e-14
5.07418e-14
5.99778e-14
6.92216e-14
7.84707e-14
8.773e-14
9.70029e-14
1.06293e-13
1.15609e-13
1.24957e-13
1.34344e-13
1.437e-13
4.61085e-15
1.38309e-14
2.30529e-14
3.22771e-14
4.15035e-14
5.07353e-14
5.99703e-14
6.92131e-14
7.84613e-14
8.77199e-14
9.69922e-14
1.06282e-13
1.15598e-13
1.24945e-13
1.34333e-13
1.43688e-13
4.61023e-15
1.38289e-14
2.30497e-14
3.22726e-14
4.14978e-14
5.07284e-14
5.99624e-14
6.92042e-14
7.84516e-14
8.77094e-14
9.69811e-14
1.0627e-13
1.15586e-13
1.24934e-13
1.34322e-13
1.43677e-13
4.60958e-15
1.38269e-14
2.30463e-14
3.22679e-14
4.14918e-14
5.07211e-14
5.99539e-14
6.91947e-14
7.84411e-14
8.76983e-14
9.69693e-14
1.06258e-13
1.15574e-13
1.24922e-13
1.3431e-13
1.43666e-13
4.60889e-15
1.38249e-14
2.3043e-14
3.22633e-14
4.1486e-14
5.07142e-14
5.99459e-14
6.91856e-14
7.84312e-14
8.76876e-14
9.69581e-14
1.06247e-13
1.15563e-13
1.24911e-13
1.34299e-13
1.43657e-13
4.60824e-15
1.38227e-14
2.30393e-14
3.22581e-14
4.14794e-14
5.07061e-14
5.99365e-14
6.9175e-14
7.84194e-14
8.7675e-14
9.69448e-14
1.06233e-13
1.15549e-13
1.24898e-13
1.34287e-13
1.43646e-13
4.60749e-15
1.38201e-14
2.3035e-14
3.22521e-14
4.14718e-14
5.06968e-14
5.99256e-14
6.91625e-14
7.84056e-14
8.766e-14
9.69289e-14
1.06217e-13
1.15532e-13
1.24882e-13
1.34271e-13
1.43632e-13
4.60664e-15
1.38178e-14
2.30312e-14
3.22467e-14
4.14648e-14
5.06882e-14
5.99155e-14
6.91509e-14
7.83928e-14
8.7646e-14
9.6914e-14
1.06202e-13
1.15517e-13
1.24868e-13
1.34258e-13
1.43622e-13
4.60588e-15
1.38152e-14
2.30269e-14
3.22406e-14
4.14569e-14
5.06784e-14
5.9904e-14
6.91374e-14
7.83776e-14
8.76292e-14
9.6896e-14
1.06183e-13
1.15498e-13
1.2485e-13
1.34242e-13
1.43609e-13
4.60503e-15
1.38124e-14
2.30222e-14
3.22339e-14
4.14483e-14
5.06677e-14
5.98911e-14
6.91222e-14
7.83604e-14
8.76098e-14
9.6875e-14
1.06161e-13
1.15476e-13
1.24829e-13
1.34222e-13
1.43593e-13
4.60411e-15
1.38095e-14
2.30174e-14
3.2227e-14
4.14392e-14
5.06561e-14
5.98771e-14
6.91055e-14
7.83411e-14
8.75877e-14
9.68505e-14
1.06135e-13
1.15448e-13
1.24803e-13
1.34197e-13
1.43575e-13
4.60317e-15
1.3807e-14
2.30131e-14
3.22207e-14
4.14308e-14
5.06454e-14
5.98639e-14
6.90892e-14
7.83219e-14
8.7565e-14
9.68247e-14
1.06106e-13
1.15417e-13
1.24772e-13
1.34169e-13
1.43559e-13
4.60233e-15
1.38043e-14
2.30085e-14
3.22141e-14
4.14219e-14
5.06338e-14
5.98493e-14
6.9071e-14
7.83e-14
8.75385e-14
9.67938e-14
1.0607e-13
1.15377e-13
1.24728e-13
1.34125e-13
1.43528e-13
4.60146e-15
1.38016e-14
2.30038e-14
3.22071e-14
4.14124e-14
5.06213e-14
5.98335e-14
6.90509e-14
7.82755e-14
8.7508e-14
9.67576e-14
1.06026e-13
1.15326e-13
1.24669e-13
1.34058e-13
1.43455e-13
4.60056e-15
1.37992e-14
2.29997e-14
3.2201e-14
4.14039e-14
5.06098e-14
5.98185e-14
6.90314e-14
7.82511e-14
8.74767e-14
9.67196e-14
1.05978e-13
1.15268e-13
1.24598e-13
1.3397e-13
1.43339e-13
4.5998e-15
1.37974e-14
2.29964e-14
3.2196e-14
4.13967e-14
5.05997e-14
5.98048e-14
6.90128e-14
7.82271e-14
8.74449e-14
9.66797e-14
1.05926e-13
1.15204e-13
1.24516e-13
1.33867e-13
1.43204e-13
4.59921e-15
1.37961e-14
2.29941e-14
3.21922e-14
4.13909e-14
5.05913e-14
5.97928e-14
6.8996e-14
7.82044e-14
8.74135e-14
9.66393e-14
1.05872e-13
1.15135e-13
1.24427e-13
1.33756e-13
1.43067e-13
4.59881e-15
1.37956e-14
2.29929e-14
3.219e-14
4.13872e-14
5.05853e-14
5.97835e-14
6.89819e-14
7.81843e-14
8.73845e-14
9.66006e-14
1.05817e-13
1.15066e-13
1.24334e-13
1.3364e-13
1.42928e-13
4.59865e-15
1.37959e-14
2.29933e-14
3.219e-14
4.13861e-14
5.05824e-14
5.97778e-14
6.89719e-14
7.81685e-14
8.73599e-14
9.65659e-14
1.05765e-13
1.14998e-13
1.24238e-13
1.3352e-13
1.42784e-13
4.59879e-15
1.37972e-14
2.29951e-14
3.2192e-14
4.13877e-14
5.05829e-14
5.97758e-14
6.89664e-14
7.81575e-14
8.73407e-14
9.65363e-14
1.05718e-13
1.14934e-13
1.24141e-13
1.334e-13
1.4263e-13
4.59924e-15
1.38001e-14
2.29997e-14
3.21978e-14
4.1394e-14
5.05892e-14
5.97811e-14
6.897e-14
7.81577e-14
8.73357e-14
9.65231e-14
1.05691e-13
1.14889e-13
1.24058e-13
1.33287e-13
1.42464e-13
4.60023e-15
1.38047e-14
2.30071e-14
3.22079e-14
4.14061e-14
5.06027e-14
5.97949e-14
6.89836e-14
7.81692e-14
8.7344e-14
9.65244e-14
1.05681e-13
1.1486e-13
1.23992e-13
1.33183e-13
1.42282e-13
4.60176e-15
1.38104e-14
2.30164e-14
3.22206e-14
4.14214e-14
5.06199e-14
5.98124e-14
6.90001e-14
7.81819e-14
8.73517e-14
9.65226e-14
1.05667e-13
1.14827e-13
1.23929e-13
1.33084e-13
1.42103e-13
4.6037e-15
1.38168e-14
2.30265e-14
3.22337e-14
4.14365e-14
5.06359e-14
5.98276e-14
6.90135e-14
7.81906e-14
8.73549e-14
9.65156e-14
1.0565e-13
1.14791e-13
1.23873e-13
1.33e-13
1.41961e-13
4.60588e-15
1.38213e-14
2.30334e-14
3.22423e-14
4.14456e-14
5.06445e-14
5.98344e-14
6.90176e-14
7.81899e-14
8.73492e-14
9.65009e-14
1.05628e-13
1.14754e-13
1.23825e-13
1.32929e-13
1.41865e-13
4.60744e-15
1.38236e-14
2.30368e-14
3.22463e-14
4.14494e-14
5.06474e-14
5.98353e-14
6.9016e-14
7.81842e-14
8.73398e-14
9.64845e-14
1.05607e-13
1.14723e-13
1.23792e-13
1.32882e-13
1.41822e-13
4.60826e-15
1.38228e-14
2.30354e-14
3.22439e-14
4.14456e-14
5.0642e-14
5.98275e-14
6.90058e-14
7.81703e-14
8.73235e-14
9.64634e-14
1.05586e-13
1.14696e-13
1.23771e-13
1.32855e-13
1.41814e-13
4.60806e-15
1.38201e-14
2.3031e-14
3.22377e-14
4.14377e-14
5.06323e-14
5.98158e-14
6.89926e-14
7.8155e-14
8.73075e-14
9.64454e-14
1.05571e-13
1.1468e-13
1.23767e-13
1.32852e-13
1.41843e-13
4.60717e-15
1.38151e-14
2.30229e-14
3.22267e-14
4.14242e-14
5.06166e-14
5.97983e-14
6.89738e-14
7.8135e-14
8.72882e-14
9.64263e-14
1.05557e-13
1.14668e-13
1.23773e-13
1.32864e-13
1.41895e-13
4.60549e-15
1.38087e-14
2.30124e-14
3.22127e-14
4.14071e-14
5.05972e-14
5.97771e-14
6.89519e-14
7.81129e-14
8.72681e-14
9.64083e-14
1.05547e-13
1.14664e-13
1.23789e-13
1.32893e-13
1.41969e-13
4.60331e-15
1.38002e-14
2.29985e-14
3.21939e-14
4.13841e-14
5.05709e-14
5.97483e-14
6.8922e-14
7.80828e-14
8.72402e-14
9.63837e-14
1.05531e-13
1.14657e-13
1.23805e-13
1.32926e-13
1.4205e-13
4.60046e-15
1.37917e-14
2.29845e-14
3.21748e-14
4.13606e-14
5.05438e-14
5.97189e-14
6.88915e-14
7.80529e-14
8.72133e-14
9.6362e-14
1.05519e-13
1.14658e-13
1.23831e-13
1.32974e-13
1.42147e-13
4.59759e-15
1.37826e-14
2.29695e-14
3.21541e-14
4.13347e-14
5.05136e-14
5.96855e-14
6.88563e-14
7.80177e-14
8.71809e-14
9.63354e-14
1.05504e-13
1.14659e-13
1.23859e-13
1.33026e-13
1.42246e-13
4.59456e-15
1.37728e-14
2.29534e-14
3.21318e-14
4.13066e-14
5.04802e-14
5.96478e-14
6.88155e-14
7.79759e-14
8.71407e-14
9.63004e-14
1.0548e-13
1.14653e-13
1.23881e-13
1.33075e-13
1.42339e-13
4.59129e-15
1.37634e-14
2.2938e-14
3.21107e-14
4.128e-14
5.04483e-14
5.96113e-14
6.87752e-14
7.79338e-14
8.70984e-14
9.62614e-14
1.0545e-13
1.14643e-13
1.23899e-13
1.33122e-13
1.42424e-13
4.58812e-15
1.37543e-14
2.29229e-14
3.20902e-14
4.12543e-14
5.04167e-14
5.95742e-14
6.87329e-14
7.78883e-14
8.70521e-14
9.62197e-14
1.05418e-13
1.14628e-13
1.23904e-13
1.33155e-13
1.42484e-13
4.58503e-15
1.37438e-14
2.29053e-14
3.20658e-14
4.1224e-14
5.03819e-14
5.95377e-14
6.86978e-14
7.78588e-14
8.70321e-14
9.62138e-14
1.05423e-13
1.1464e-13
1.23914e-13
1.33173e-13
1.42499e-13
4.58154e-15
1.3737e-14
2.28946e-14
3.20523e-14
4.121e-14
5.03709e-14
5.95337e-14
6.87047e-14
7.78805e-14
8.70688e-14
9.6265e-14
1.0548e-13
1.14698e-13
1.23954e-13
1.332e-13
1.42497e-13
4.57922e-15
1.37394e-14
2.28998e-14
3.2062e-14
4.12256e-14
5.03932e-14
5.95629e-14
6.87408e-14
7.79236e-14
8.71165e-14
9.63172e-14
1.05533e-13
1.14752e-13
1.23996e-13
1.33237e-13
1.42505e-13
4.57986e-15
1.37459e-14
2.29109e-14
3.20778e-14
4.12461e-14
5.04184e-14
5.95924e-14
6.87735e-14
7.79589e-14
8.71528e-14
9.63551e-14
1.05569e-13
1.14789e-13
1.24028e-13
1.33268e-13
1.42525e-13
4.58197e-15
1.37516e-14
2.29203e-14
3.20906e-14
4.12622e-14
5.04382e-14
5.96164e-14
6.88012e-14
7.79899e-14
8.71859e-14
9.63894e-14
1.05602e-13
1.1482e-13
1.24054e-13
1.33289e-13
1.42539e-13
4.58389e-15
1.37565e-14
2.29284e-14
3.2102e-14
4.12768e-14
5.04557e-14
5.96366e-14
6.88234e-14
7.80137e-14
8.72102e-14
9.64138e-14
1.05625e-13
1.14841e-13
1.2407e-13
1.33301e-13
1.42541e-13
4.58549e-15
1.37609e-14
2.29358e-14
3.21121e-14
4.12897e-14
5.04711e-14
5.96543e-14
6.8843e-14
7.80349e-14
8.72319e-14
9.64354e-14
1.05645e-13
1.14859e-13
1.24084e-13
1.33309e-13
1.42541e-13
4.58698e-15
1.37646e-14
2.29418e-14
3.21204e-14
4.13001e-14
5.04834e-14
5.96683e-14
6.88581e-14
7.80506e-14
8.72476e-14
9.64503e-14
1.05659e-13
1.14869e-13
1.2409e-13
1.33311e-13
1.42536e-13
4.58819e-15
1.3768e-14
2.29474e-14
3.21282e-14
4.13099e-14
5.04949e-14
5.96812e-14
6.8872e-14
7.80652e-14
8.72621e-14
9.64642e-14
1.05671e-13
1.14879e-13
1.24097e-13
1.33313e-13
1.42532e-13
4.58934e-15
1.37708e-14
2.2952e-14
3.21344e-14
4.13176e-14
5.05039e-14
5.96912e-14
6.88827e-14
7.80761e-14
8.72726e-14
9.64738e-14
1.05679e-13
1.14885e-13
1.24099e-13
1.33311e-13
1.42525e-13
4.59027e-15
1.37731e-14
2.29559e-14
3.21397e-14
4.13241e-14
5.05114e-14
5.96995e-14
6.88913e-14
7.80848e-14
8.72807e-14
9.6481e-14
1.05684e-13
1.14888e-13
1.24099e-13
1.33308e-13
1.42517e-13
4.59106e-15
1.37751e-14
2.29591e-14
3.2144e-14
4.13295e-14
5.05175e-14
5.97061e-14
6.88981e-14
7.80915e-14
8.72868e-14
9.64861e-14
1.05688e-13
1.14889e-13
1.24098e-13
1.33304e-13
1.42509e-13
4.59172e-15
1.37768e-14
2.29619e-14
3.21478e-14
4.13341e-14
5.05228e-14
5.97118e-14
6.8904e-14
7.80971e-14
8.72919e-14
9.64903e-14
1.0569e-13
1.1489e-13
1.24096e-13
1.333e-13
1.42501e-13
4.59229e-15
1.37779e-14
2.29637e-14
3.21502e-14
4.1337e-14
5.0526e-14
5.97151e-14
6.89071e-14
7.80998e-14
8.72938e-14
9.64911e-14
1.0569e-13
1.14888e-13
1.24091e-13
1.33292e-13
1.42491e-13
4.59267e-15
1.37792e-14
2.29657e-14
3.2153e-14
4.13403e-14
5.05298e-14
5.97192e-14
6.89111e-14
7.81037e-14
8.72971e-14
9.64936e-14
1.05691e-13
1.14888e-13
1.2409e-13
1.33289e-13
1.42485e-13
4.5931e-15
1.37798e-14
2.29666e-14
3.21541e-14
4.13416e-14
5.0531e-14
5.97202e-14
6.89118e-14
7.81038e-14
8.72964e-14
9.64919e-14
1.05688e-13
1.14883e-13
1.24083e-13
1.3328e-13
1.42474e-13
4.59329e-15
1.37806e-14
2.29679e-14
3.21558e-14
4.13437e-14
5.05333e-14
5.97226e-14
6.89141e-14
7.81058e-14
8.72979e-14
9.64927e-14
1.05688e-13
1.14882e-13
1.2408e-13
1.33276e-13
1.42468e-13
4.59357e-15
1.37807e-14
2.29681e-14
3.2156e-14
4.13438e-14
5.05332e-14
5.97222e-14
6.89132e-14
7.81043e-14
8.72956e-14
9.64894e-14
1.05683e-13
1.14876e-13
1.24073e-13
1.33267e-13
1.42457e-13
4.59362e-15
1.3781e-14
2.29686e-14
3.21566e-14
4.13444e-14
5.05337e-14
5.97226e-14
6.89133e-14
7.81039e-14
8.72947e-14
9.64878e-14
1.05681e-13
1.14873e-13
1.24068e-13
1.33261e-13
1.4245e-13
4.59372e-15
1.3781e-14
2.29686e-14
3.21565e-14
4.13442e-14
5.05334e-14
5.97219e-14
6.89123e-14
7.81024e-14
8.72925e-14
9.64848e-14
1.05677e-13
1.14868e-13
1.24062e-13
1.33254e-13
1.42441e-13
4.59374e-15
1.37808e-14
2.29682e-14
3.2156e-14
4.13434e-14
5.05322e-14
5.97204e-14
6.89102e-14
7.80997e-14
8.72891e-14
9.64806e-14
1.05672e-13
1.14862e-13
1.24055e-13
1.33246e-13
1.42431e-13
4.59367e-15
1.37807e-14
2.29679e-14
3.21554e-14
4.13427e-14
5.05312e-14
5.9719e-14
6.89084e-14
7.80974e-14
8.72861e-14
9.6477e-14
1.05667e-13
1.14856e-13
1.24049e-13
1.33238e-13
1.42423e-13
4.59362e-15
1.37804e-14
2.29676e-14
3.21549e-14
4.13419e-14
5.05302e-14
5.97176e-14
6.89066e-14
7.80951e-14
8.72833e-14
9.64736e-14
1.05663e-13
1.14852e-13
1.24043e-13
1.33232e-13
1.42416e-13
4.59355e-15
1.37801e-14
2.29669e-14
3.21539e-14
4.13406e-14
5.05284e-14
5.97155e-14
6.89039e-14
7.8092e-14
8.72795e-14
9.64691e-14
1.05658e-13
1.14846e-13
1.24036e-13
1.33224e-13
1.42407e-13
4.59342e-15
1.37793e-14
2.29655e-14
3.2152e-14
4.1338e-14
5.05253e-14
5.97116e-14
6.88994e-14
7.80866e-14
8.72733e-14
9.6462e-14
1.0565e-13
1.14837e-13
1.24026e-13
1.33213e-13
1.42395e-13
4.59315e-15
1.3779e-14
2.29651e-14
3.21514e-14
4.13372e-14
5.05242e-14
5.97103e-14
6.88977e-14
7.80846e-14
8.72709e-14
9.64592e-14
1.05647e-13
1.14833e-13
1.24022e-13
1.33208e-13
1.42389e-13
4.59308e-15
1.37784e-14
2.29641e-14
3.21499e-14
4.13353e-14
5.05218e-14
5.97074e-14
6.88942e-14
7.80805e-14
8.72663e-14
9.64539e-14
1.05641e-13
1.14826e-13
1.24014e-13
1.332e-13
1.4238e-13
4.59288e-15
1.37778e-14
2.2963e-14
3.21484e-14
4.13333e-14
5.05194e-14
5.97044e-14
6.88908e-14
7.80765e-14
8.72616e-14
9.64486e-14
1.05635e-13
1.1482e-13
1.24007e-13
1.33192e-13
1.42372e-13
4.59267e-15
1.37771e-14
2.29618e-14
3.21467e-14
4.13312e-14
5.05167e-14
5.97012e-14
6.8887e-14
7.80721e-14
8.72566e-14
9.6443e-14
1.05628e-13
1.14813e-13
1.23999e-13
1.33184e-13
1.42363e-13
4.59243e-15
1.37763e-14
2.29605e-14
3.21449e-14
4.13288e-14
5.05137e-14
5.96976e-14
6.88828e-14
7.80673e-14
8.72512e-14
9.64369e-14
1.05622e-13
1.14805e-13
1.23991e-13
1.33175e-13
1.42353e-13
4.59217e-15
1.37757e-14
2.29596e-14
3.21436e-14
4.13271e-14
5.05116e-14
5.96951e-14
6.88799e-14
7.8064e-14
8.72474e-14
9.64326e-14
1.05617e-13
1.148e-13
1.23985e-13
1.33168e-13
1.42346e-13
4.59199e-15
1.37752e-14
2.29587e-14
3.21423e-14
4.13254e-14
5.05096e-14
5.96927e-14
6.8877e-14
7.80607e-14
8.72437e-14
9.64284e-14
1.05612e-13
1.14795e-13
1.2398e-13
1.33162e-13
1.4234e-13
4.59181e-15
1.37738e-14
2.29564e-14
3.21391e-14
4.13213e-14
5.05045e-14
5.96866e-14
6.887e-14
7.80527e-14
8.72346e-14
9.64184e-14
1.05601e-13
1.14783e-13
1.23967e-13
1.33148e-13
1.42325e-13
4.59135e-15
1.37734e-14
2.29557e-14
3.21381e-14
4.132e-14
5.05029e-14
5.96848e-14
6.88678e-14
7.80502e-14
8.72319e-14
9.64153e-14
1.05598e-13
1.14779e-13
1.23963e-13
1.33144e-13
1.4232e-13
4.59122e-15
1.37725e-14
2.29541e-14
3.21359e-14
4.13172e-14
5.04994e-14
5.96806e-14
6.88631e-14
7.80448e-14
8.72258e-14
9.64086e-14
1.0559e-13
1.14771e-13
1.23954e-13
1.33134e-13
1.4231e-13
4.5909e-15
1.37716e-14
2.29527e-14
3.21339e-14
4.13145e-14
5.04962e-14
5.96768e-14
6.88586e-14
7.80398e-14
8.72201e-14
9.64023e-14
1.05583e-13
1.14763e-13
1.23946e-13
1.33126e-13
1.423e-13
4.59061e-15
1.37706e-14
2.29511e-14
3.21316e-14
4.13116e-14
5.04927e-14
5.96726e-14
6.88538e-14
7.80342e-14
8.7214e-14
9.63955e-14
1.05576e-13
1.14755e-13
1.23937e-13
1.33116e-13
1.4229e-13
4.59029e-15
1.37701e-14
2.29502e-14
3.21304e-14
4.13101e-14
5.04908e-14
5.96704e-14
6.88512e-14
7.80313e-14
8.72107e-14
9.63919e-14
1.05572e-13
1.14751e-13
1.23932e-13
1.33111e-13
1.42285e-13
4.59012e-15
1.3769e-14
2.29485e-14
3.21279e-14
4.13069e-14
5.04869e-14
5.96658e-14
6.88459e-14
7.80253e-14
8.72039e-14
9.63844e-14
1.05564e-13
1.14742e-13
1.23923e-13
1.33101e-13
1.42274e-13
4.58976e-15
1.37681e-14
2.29469e-14
3.21257e-14
4.13041e-14
5.04834e-14
5.96617e-14
6.88412e-14
7.80199e-14
8.7198e-14
9.63779e-14
1.05557e-13
1.14734e-13
1.23915e-13
1.33092e-13
1.42265e-13
4.58945e-15
1.37671e-14
2.29452e-14
3.21233e-14
4.13009e-14
5.04796e-14
5.96572e-14
6.8836e-14
7.80141e-14
8.71914e-14
9.63706e-14
1.05549e-13
1.14726e-13
1.23905e-13
1.33082e-13
1.42254e-13
4.5891e-15
1.37662e-14
2.29437e-14
3.21213e-14
4.12983e-14
5.04764e-14
5.96534e-14
6.88316e-14
7.80092e-14
8.7186e-14
9.63646e-14
1.05542e-13
1.14719e-13
1.23898e-13
1.33074e-13
1.42246e-13
4.58882e-15
1.37652e-14
2.29421e-14
3.2119e-14
4.12954e-14
5.04728e-14
5.96492e-14
6.88268e-14
7.80037e-14
8.71798e-14
9.63579e-14
1.05535e-13
1.14711e-13
1.23889e-13
1.33065e-13
1.42236e-13
4.58849e-15
1.37642e-14
2.29404e-14
3.21167e-14
4.12925e-14
5.04692e-14
5.96449e-14
6.88218e-14
7.79981e-14
8.71736e-14
9.63511e-14
1.05527e-13
1.14703e-13
1.23881e-13
1.33056e-13
1.42226e-13
4.58816e-15
1.37631e-14
2.29385e-14
3.2114e-14
4.1289e-14
5.04649e-14
5.96399e-14
6.8816e-14
7.79915e-14
8.71663e-14
9.63429e-14
1.05519e-13
1.14693e-13
1.23871e-13
1.33045e-13
1.42215e-13
4.58777e-15
1.37623e-14
2.29372e-14
3.21122e-14
4.12866e-14
5.04621e-14
5.96365e-14
6.88121e-14
7.79871e-14
8.71614e-14
9.63376e-14
1.05513e-13
1.14687e-13
1.23864e-13
1.33038e-13
1.42208e-13
4.58752e-15
1.3761e-14
2.29351e-14
3.21092e-14
4.12828e-14
5.04575e-14
5.9631e-14
6.88058e-14
7.79799e-14
8.71534e-14
9.63287e-14
1.05503e-13
1.14676e-13
1.23853e-13
1.33026e-13
1.42196e-13
4.5871e-15
1.376e-14
2.29334e-14
3.21068e-14
4.12797e-14
5.04537e-14
5.96265e-14
6.88006e-14
7.7974e-14
8.71467e-14
9.63213e-14
1.05495e-13
1.14668e-13
1.23843e-13
1.33016e-13
1.42186e-13
4.58675e-15
1.37588e-14
2.29314e-14
3.21041e-14
4.12762e-14
5.04493e-14
5.96214e-14
6.87947e-14
7.79673e-14
8.71391e-14
9.63129e-14
1.05486e-13
1.14657e-13
1.23832e-13
1.33005e-13
1.42174e-13
4.58636e-15
1.37578e-14
2.29297e-14
3.21017e-14
4.12731e-14
5.04456e-14
5.96169e-14
6.87895e-14
7.79613e-14
8.71325e-14
9.63055e-14
1.05477e-13
1.14648e-13
1.23822e-13
1.32993e-13
1.42161e-13
4.58602e-15
1.37566e-14
2.29278e-14
3.2099e-14
4.12696e-14
5.04413e-14
5.96119e-14
6.87836e-14
7.79547e-14
8.7125e-14
9.62971e-14
1.05468e-13
1.14638e-13
1.23811e-13
1.3298e-13
1.42146e-13
4.58563e-15
1.37555e-14
2.29258e-14
3.20962e-14
4.12661e-14
5.04369e-14
5.96067e-14
6.87776e-14
7.79479e-14
8.71174e-14
9.62888e-14
1.05459e-13
1.14628e-13
1.238e-13
1.32969e-13
1.42133e-13
4.58524e-15
1.26218e-29
3.78653e-29
-1.26218e-29
2.52435e-29
0
7.57306e-29
5.04871e-29
-5.04871e-29
5.04871e-29
1.51461e-28
1.00974e-28
2.01948e-28
0
5.04871e-29
-1.51461e-28
0
)
;


// ************************************************************************* //
