/*--------------------------------*- C++ -*----------------------------------*\
| =========                 |                                                 |
| \\      /  F ield         | OpenFOAM: The Open Source CFD Toolbox           |
|  \\    /   O peration     | Version:  4.1                                   |
|   \\  /    A nd           | Web:      www.OpenFOAM.org                      |
|    \\/     M anipulation  |                                                 |
\*---------------------------------------------------------------------------*/
FoamFile
{
    version     2.0;
    format      ascii;
    class       pointVectorField;
    location    "0.0006";
    object      pointDisplacement_Next_Iter2;
}
// * * * * * * * * * * * * * * * * * * * * * * * * * * * * * * * * * * * * * //

dimensions      [0 1 0 0 0 0 0];

internalField   uniform (0 0 0);

boundaryField
{
    inlet
    {
        type            fixedValue;
        value           uniform (0 0 0);
    }
    outlet
    {
        type            fixedValue;
        value           uniform (0 0 0);
    }
    mantle
    {
        type            fixedValue;
        value           nonuniform List<vector> 
1568
(
(1.2604e-12 -1.4103e-11 4.9294e-18)
(3.6675e-06 -3.6423e-05 6.6833e-12)
(3.8038e-06 -3.4774e-05 6.338e-06)
(-5.6068e-09 -1.6242e-07 -9.858e-08)
(3.8939e-06 -3.1772e-05 1.3195e-05)
(8.8917e-13 -1.887e-11 7.3415e-12)
(3.6959e-06 -2.9315e-05 2.0323e-05)
(-1.1028e-08 -6.1487e-08 1.8613e-07)
(3.5119e-06 -2.6076e-05 2.6076e-05)
(1.6799e-12 -3.6735e-12 3.6738e-12)
(3.6959e-06 -2.0323e-05 2.9315e-05)
(-1.1028e-08 -1.8613e-07 6.1489e-08)
(3.8939e-06 -1.3195e-05 3.1772e-05)
(8.8917e-13 -7.3418e-12 1.887e-11)
(3.8038e-06 -6.338e-06 3.4773e-05)
(-5.6072e-09 9.8579e-08 1.6241e-07)
(3.6675e-06 -4.3528e-11 3.6422e-05)
(1.2604e-12 -2.0272e-17 1.4103e-11)
(8.4695e-06 -5.9167e-05 -8.1857e-12)
(8.7511e-06 -5.5996e-05 1.0262e-05)
(8.9076e-06 -5.1199e-05 2.1236e-05)
(8.5845e-06 -4.7419e-05 3.2772e-05)
(8.2172e-06 -4.2562e-05 4.2562e-05)
(8.5845e-06 -3.2771e-05 4.7419e-05)
(8.9076e-06 -2.1236e-05 5.1198e-05)
(8.7511e-06 -1.0262e-05 5.5995e-05)
(8.4695e-06 -4.2828e-11 5.9166e-05)
(1.3644e-05 -5.585e-05 -5.3165e-11)
(1.3682e-05 -5.4216e-05 1.0309e-05)
(1.371e-05 -5.0728e-05 2.0966e-05)
(1.3589e-05 -4.652e-05 3.1601e-05)
(1.3508e-05 -4.057e-05 4.057e-05)
(1.3589e-05 -3.1601e-05 4.6519e-05)
(1.371e-05 -2.0966e-05 5.0727e-05)
(1.3682e-05 -1.0308e-05 5.4214e-05)
(1.3644e-05 1.1782e-12 5.5848e-05)
(1.5218e-05 -3.738e-05 -7.77e-11)
(1.5048e-05 -3.7586e-05 7.5589e-06)
(1.5035e-05 -3.6415e-05 1.4959e-05)
(1.5087e-05 -3.2989e-05 2.1816e-05)
(1.5278e-05 -2.7702e-05 2.7702e-05)
(1.5087e-05 -2.1816e-05 3.2988e-05)
(1.5035e-05 -1.4959e-05 3.6414e-05)
(1.5048e-05 -7.5585e-06 3.7584e-05)
(1.5218e-05 3.1553e-11 3.7378e-05)
(1.0779e-05 -1.963e-05 -3.9649e-11)
(1.093e-05 -2.0161e-05 4.3095e-06)
(1.1127e-05 -2.0182e-05 8.3018e-06)
(1.1064e-05 -1.8225e-05 1.1762e-05)
(1.0973e-05 -1.4981e-05 1.4981e-05)
(1.1064e-05 -1.1762e-05 1.8224e-05)
(1.1127e-05 -8.301e-06 2.018e-05)
(1.093e-05 -4.309e-06 2.0158e-05)
(1.0779e-05 4.7721e-11 1.9627e-05)
(4.2149e-06 -8.5407e-06 2.9961e-11)
(4.6947e-06 -9.0437e-06 2.0647e-06)
(5.1094e-06 -9.379e-06 3.8926e-06)
(4.859e-06 -8.4945e-06 5.3829e-06)
(4.4549e-06 -6.831e-06 6.8312e-06)
(4.859e-06 -5.3821e-06 8.4937e-06)
(5.1094e-06 -3.8917e-06 9.3773e-06)
(4.6946e-06 -2.0641e-06 9.041e-06)
(4.2148e-06 5.7438e-11 8.5375e-06)
(3.7796e-07 -5.1658e-06 7.9371e-11)
(6.3047e-07 -5.1575e-06 1.0379e-06)
(8.981e-07 -5.0856e-06 2.1148e-06)
(7.5724e-07 -4.7623e-06 3.1837e-06)
(5.5937e-07 -4.1216e-06 4.1218e-06)
(7.5722e-07 -3.1829e-06 4.7617e-06)
(8.9806e-07 -2.1138e-06 5.0839e-06)
(6.3041e-07 -1.0372e-06 5.155e-06)
(3.779e-07 1.0959e-10 5.1628e-06)
(-6.8962e-07 -5.4886e-06 1.1702e-10)
(-6.7282e-07 -5.0283e-06 8.5026e-07)
(-6.1264e-07 -4.5153e-06 1.8532e-06)
(-6.0177e-07 -4.3641e-06 3.0687e-06)
(-5.916e-07 -4.1122e-06 4.1126e-06)
(-6.018e-07 -3.0678e-06 4.3637e-06)
(-6.127e-07 -1.8522e-06 4.514e-06)
(-6.7291e-07 -8.4948e-07 5.0262e-06)
(-6.8972e-07 1.8714e-10 5.486e-06)
(-5.7061e-07 -4.9977e-06 8.7143e-10)
(-6.1119e-07 -4.7021e-06 7.8922e-07)
(-6.365e-07 -4.251e-06 1.7429e-06)
(-5.7249e-07 -4.0096e-06 2.8241e-06)
(-5.1715e-07 -3.6709e-06 3.6703e-06)
(-5.7252e-07 -2.8233e-06 4.0094e-06)
(-6.3656e-07 -1.7419e-06 4.2502e-06)
(-6.1127e-07 -7.884e-07 4.7007e-06)
(-5.707e-07 -4.466e-10 4.996e-06)
(-3.066e-07 -3.4175e-06 1.5401e-10)
(-3.8415e-07 -3.3787e-06 6.3543e-07)
(-4.2204e-07 -3.1923e-06 1.3175e-06)
(-3.5888e-07 -2.934e-06 1.9982e-06)
(-2.7004e-07 -2.532e-06 2.5325e-06)
(-3.589e-07 -1.9974e-06 2.9341e-06)
(-4.2208e-07 -1.3165e-06 3.192e-06)
(-3.842e-07 -6.3461e-07 3.3781e-06)
(-3.0665e-07 3.8996e-10 3.4166e-06)
(-4.6708e-07 -1.6956e-06 2.2741e-10)
(-5.0358e-07 -1.7631e-06 3.9111e-07)
(-5.3124e-07 -1.7777e-06 7.3951e-07)
(-4.8471e-07 -1.5962e-06 1.0251e-06)
(-4.4036e-07 -1.2905e-06 1.2912e-06)
(-4.8471e-07 -1.0242e-06 1.5966e-06)
(-5.3123e-07 -7.3859e-07 1.7779e-06)
(-5.0358e-07 -3.9029e-07 1.7632e-06)
(-4.6708e-07 4.1759e-10 1.6955e-06)
(-7.9544e-07 -5.9639e-07 2.7546e-10)
(-7.8681e-07 -6.9638e-07 1.8105e-07)
(-7.8798e-07 -7.7574e-07 3.2386e-07)
(-7.7305e-07 -6.7054e-07 4.0338e-07)
(-7.7605e-07 -4.8493e-07 4.8576e-07)
(-7.7304e-07 -4.0246e-07 6.7118e-07)
(-7.8795e-07 -3.2296e-07 7.7623e-07)
(-7.8676e-07 -1.8023e-07 6.9684e-07)
(-7.9539e-07 4.6072e-10 5.9681e-07)
(-8.8304e-07 -3.6765e-07 9.2611e-11)
(-8.8674e-07 -3.9633e-07 1.0235e-07)
(-8.8744e-07 -4.2477e-07 1.7786e-07)
(-8.7687e-07 -3.8475e-07 2.328e-07)
(-8.6877e-07 -2.9998e-07 3.0105e-07)
(-8.7685e-07 -2.3185e-07 3.8558e-07)
(-8.874e-07 -1.7695e-07 4.2552e-07)
(-8.8668e-07 -1.0149e-07 3.971e-07)
(-8.8298e-07 7.4617e-10 3.6846e-07)
(-7.2304e-07 -5.1689e-07 3.0811e-10)
(-7.3522e-07 -4.698e-07 8.0452e-08)
(-7.4761e-07 -4.1088e-07 1.748e-07)
(-7.2516e-07 -4.2548e-07 2.9594e-07)
(-7.1308e-07 -3.9095e-07 3.9194e-07)
(-7.2515e-07 -2.9497e-07 4.2644e-07)
(-7.4759e-07 -1.7388e-07 4.1184e-07)
(-7.3519e-07 -7.9568e-08 4.7085e-07)
(-7.2301e-07 6.1678e-10 5.1807e-07)
(-5.2205e-07 -5.1892e-07 1.8776e-10)
(-5.3062e-07 -4.7291e-07 7.545e-08)
(-5.3651e-07 -4.1216e-07 1.7204e-07)
(-5.2711e-07 -4.0262e-07 2.937e-07)
(-5.1712e-07 -3.8602e-07 3.8681e-07)
(-5.2711e-07 -2.9274e-07 4.0368e-07)
(-5.365e-07 -1.7114e-07 4.1332e-07)
(-5.3061e-07 -7.4547e-08 4.7426e-07)
(-5.2205e-07 8.0691e-10 5.2053e-07)
(-3.9085e-07 -3.3853e-07 3.0106e-10)
(-3.9385e-07 -3.156e-07 4.9649e-08)
(-3.9416e-07 -2.7721e-07 1.1531e-07)
(-3.9255e-07 -2.7024e-07 1.9766e-07)
(-3.8924e-07 -2.5485e-07 2.5586e-07)
(-3.9255e-07 -1.9675e-07 2.7137e-07)
(-3.9417e-07 -1.1445e-07 2.7853e-07)
(-3.9386e-07 -4.8762e-08 3.1724e-07)
(-3.9087e-07 7.2491e-10 3.4054e-07)
(-3.3982e-07 -1.6484e-07 2.8849e-10)
(-3.3584e-07 -1.568e-07 2.5792e-08)
(-3.3146e-07 -1.4325e-07 6.015e-08)
(-3.3435e-07 -1.3779e-07 1.0019e-07)
(-3.3774e-07 -1.2779e-07 1.2878e-07)
(-3.3435e-07 -9.9341e-08 1.3898e-07)
(-3.3147e-07 -5.9362e-08 1.4474e-07)
(-3.3586e-07 -2.4958e-08 1.5867e-07)
(-3.3983e-07 7.1878e-10 1.671e-07)
(-3.2086e-07 -7.0574e-08 2.6962e-10)
(-3.1075e-07 -7.2805e-08 1.6925e-08)
(-3.0278e-07 -7.3505e-08 3.0724e-08)
(-3.0875e-07 -6.8424e-08 4.4821e-08)
(-3.1783e-07 -5.6646e-08 5.7595e-08)
(-3.0875e-07 -4.4054e-08 6.9643e-08)
(-3.0279e-07 -3.003e-08 7.5075e-08)
(-3.1075e-07 -1.617e-08 7.4779e-08)
(-3.2087e-07 6.8421e-10 7.2921e-08)
(-2.6213e-07 -6.0848e-08 3.1751e-10)
(-2.5792e-07 -6.2736e-08 1.4627e-08)
(-2.5364e-07 -6.3694e-08 2.7075e-08)
(-2.568e-07 -5.7523e-08 3.7358e-08)
(-2.6052e-07 -4.6954e-08 4.7765e-08)
(-2.5681e-07 -3.6678e-08 5.8704e-08)
(-2.5365e-07 -2.6478e-08 6.5231e-08)
(-2.5793e-07 -1.395e-08 6.4658e-08)
(-2.6214e-07 5.7491e-10 6.3095e-08)
(-1.8598e-07 -7.2392e-08 2.3404e-10)
(-1.8765e-07 -7.1865e-08 1.6212e-08)
(-1.88e-07 -7.1911e-08 3.0299e-08)
(-1.8767e-07 -6.3956e-08 4.16e-08)
(-1.8618e-07 -5.358e-08 5.4382e-08)
(-1.8768e-07 -4.1007e-08 6.5031e-08)
(-1.8801e-07 -2.979e-08 7.3306e-08)
(-1.8766e-07 -1.561e-08 7.3601e-08)
(-1.86e-07 5.8142e-10 7.4399e-08)
(-1.3596e-07 -5.3773e-08 2.0167e-10)
(-1.3659e-07 -5.6137e-08 1.3676e-08)
(-1.371e-07 -5.7363e-08 2.4324e-08)
(-1.3662e-07 -5.0631e-08 3.2002e-08)
(-1.3604e-07 -3.9962e-08 4.0641e-08)
(-1.3663e-07 -3.1485e-08 5.1544e-08)
(-1.3712e-07 -2.3869e-08 5.8538e-08)
(-1.366e-07 -1.3145e-08 5.7579e-08)
(-1.3598e-07 5.0055e-10 5.5424e-08)
(-1.0939e-07 -1.9018e-08 1.6318e-10)
(-1.0846e-07 -2.4553e-08 7.5675e-09)
(-1.0747e-07 -2.8517e-08 1.2369e-08)
(-1.0805e-07 -2.3714e-08 1.3744e-08)
(-1.0875e-07 -1.5118e-08 1.5672e-08)
(-1.0806e-07 -1.33e-08 2.4426e-08)
(-1.0748e-07 -1.1961e-08 2.9411e-08)
(-1.0848e-07 -7.1111e-09 2.5625e-08)
(-1.0942e-07 4.0846e-10 2.0234e-08)
(-8.8522e-08 -8.7041e-09 1.2241e-10)
(-8.8045e-08 -1.0968e-08 3.8365e-09)
(-8.7578e-08 -1.3212e-08 5.7634e-09)
(-8.7671e-08 -1.1167e-08 6.1329e-09)
(-8.7986e-08 -7.199e-09 7.6189e-09)
(-8.7681e-08 -5.7611e-09 1.1661e-08)
(-8.7596e-08 -5.4056e-09 1.3785e-08)
(-8.8068e-08 -3.4573e-09 1.1614e-08)
(-8.8554e-08 3.0924e-10 9.4186e-09)
(-6.8852e-08 -1.351e-08 8.0488e-11)
(-6.9018e-08 -1.2341e-08 2.4907e-09)
(-6.9252e-08 -1.1395e-08 4.7524e-09)
(-6.8925e-08 -1.087e-08 7.3924e-09)
(-6.876e-08 -9.9687e-09 1.0251e-08)
(-6.8937e-08 -7.0972e-09 1.1134e-08)
(-6.9273e-08 -4.4515e-09 1.1631e-08)
(-6.9043e-08 -2.1944e-09 1.2541e-08)
(-6.8888e-08 2.0552e-10 1.3691e-08)
(-5.0772e-08 -1.3693e-08 3.5666e-11)
(-5.1158e-08 -1.2672e-08 2.2502e-09)
(-5.1546e-08 -1.1406e-08 4.7081e-09)
(-5.1154e-08 -1.0815e-08 7.5736e-09)
(-5.0778e-08 -9.9161e-09 1.0065e-08)
(-5.1166e-08 -7.3559e-09 1.0844e-08)
(-5.1567e-08 -4.4646e-09 1.13e-08)
(-5.1187e-08 -2.0351e-09 1.243e-08)
(-5.0812e-08 1.0697e-10 1.3352e-08)
(-3.5821e-08 -9.4248e-09 4.9841e-12)
(-3.6425e-08 -9.3619e-09 1.7521e-09)
(-3.6835e-08 -8.7512e-09 3.6807e-09)
(-3.6368e-08 -8.1853e-09 5.5665e-09)
(-3.5747e-08 -6.8699e-09 6.8749e-09)
(-3.638e-08 -5.4205e-09 7.9832e-09)
(-3.6857e-08 -3.4861e-09 8.31e-09)
(-3.6455e-08 -1.6098e-09 8.6885e-09)
(-3.5862e-08 1.8075e-12 8.57e-09)
(-2.6697e-08 -5.9157e-09 -2.6696e-11)
(-2.6958e-08 -5.9425e-09 1.2366e-09)
(-2.7212e-08 -5.7581e-09 2.3833e-09)
(-2.6885e-08 -5.1102e-09 3.3083e-09)
(-2.6598e-08 -4.1528e-09 4.03e-09)
(-2.6897e-08 -3.223e-09 4.6866e-09)
(-2.7233e-08 -2.2245e-09 4.9908e-09)
(-2.6985e-08 -1.1544e-09 4.8438e-09)
(-2.6733e-08 -9.1606e-11 4.5514e-09)
(-2.1002e-08 -4.0982e-09 -5.4832e-11)
(-2.1006e-08 -4.1264e-09 8.2885e-10)
(-2.1097e-08 -3.9459e-09 1.5615e-09)
(-2.0953e-08 -3.3559e-09 2.0298e-09)
(-2.0931e-08 -2.5614e-09 2.3231e-09)
(-2.0964e-08 -1.9976e-09 2.7267e-09)
(-2.1116e-08 -1.4322e-09 2.8694e-09)
(-2.1028e-08 -7.9928e-10 2.6176e-09)
(-2.1031e-08 -1.7663e-10 2.241e-09)
(-1.5733e-08 -4.3623e-09 -7.9525e-11)
(-1.5765e-08 -4.1603e-09 7.3089e-10)
(-1.5808e-08 -3.7665e-09 1.4051e-09)
(-1.5743e-08 -3.2216e-09 1.9045e-09)
(-1.5705e-08 -2.5755e-09 2.2377e-09)
(-1.5752e-08 -1.9207e-09 2.4094e-09)
(-1.5823e-08 -1.3086e-09 2.408e-09)
(-1.5783e-08 -7.4927e-10 2.2725e-09)
(-1.5757e-08 -2.4904e-10 2.0477e-09)
(-1.0818e-08 -5.1693e-09 -1.0202e-10)
(-1.098e-08 -4.7402e-09 7.2857e-10)
(-1.1074e-08 -4.1053e-09 1.4878e-09)
(-1.1013e-08 -3.6224e-09 2.1781e-09)
(-1.0824e-08 -3.0491e-09 2.6269e-09)
(-1.1021e-08 -2.2341e-09 2.6547e-09)
(-1.1088e-08 -1.4168e-09 2.5066e-09)
(-1.0998e-08 -7.8648e-10 2.5298e-09)
(-1.0842e-08 -3.0971e-10 2.4636e-09)
(-7.4155e-09 -4.8443e-09 -1.2121e-10)
(-7.4846e-09 -4.5083e-09 6.8309e-10)
(-7.5587e-09 -3.9445e-09 1.3849e-09)
(-7.4904e-09 -3.3591e-09 1.9342e-09)
(-7.4277e-09 -2.7382e-09 2.2455e-09)
(-7.499e-09 -2.0223e-09 2.2684e-09)
(-7.5745e-09 -1.3308e-09 2.1639e-09)
(-7.5067e-09 -7.7347e-10 2.0568e-09)
(-7.445e-09 -3.6118e-10 1.8481e-09)
(-5.0597e-09 -3.8407e-09 -1.3535e-10)
(-5.0746e-09 -3.6459e-09 5.4181e-10)
(-5.1044e-09 -3.2295e-09 1.0715e-09)
(-5.0749e-09 -2.637e-09 1.3659e-09)
(-5.0629e-09 -1.991e-09 1.4461e-09)
(-5.084e-09 -1.4816e-09 1.4644e-09)
(-5.122e-09 -1.0339e-09 1.3334e-09)
(-5.0998e-09 -6.6004e-10 1.0457e-09)
(-5.0928e-09 -3.9953e-10 6.6593e-10)
(-3.1503e-09 -3.186e-09 -1.4621e-10)
(-3.136e-09 -2.978e-09 4.0019e-10)
(-3.1255e-09 -2.6088e-09 8.0058e-10)
(-3.1292e-09 -2.106e-09 9.9284e-10)
(-3.1433e-09 -1.5783e-09 1.0018e-09)
(-3.137e-09 -1.1368e-09 8.9321e-10)
(-3.1406e-09 -7.9202e-10 6.618e-10)
(-3.1578e-09 -5.4579e-10 3.1692e-10)
(-3.1785e-09 -4.1981e-10 -5.8206e-11)
(-1.4068e-09 -2.8578e-09 -1.5191e-10)
(-1.3924e-09 -2.6189e-09 3.1634e-10)
(-1.3754e-09 -2.2608e-09 6.5322e-10)
(-1.3799e-09 -1.8473e-09 8.2697e-10)
(-1.3901e-09 -1.4203e-09 8.2958e-10)
(-1.3847e-09 -9.9123e-10 6.2523e-10)
(-1.3844e-09 -6.6774e-10 3.0773e-10)
(-1.4052e-09 -4.8076e-10 -4.5941e-11)
(-1.423e-09 -4.2799e-10 -3.8787e-10)
(1.7838e-10 -2.6246e-09 -1.5118e-10)
(1.8662e-10 -2.4146e-09 2.7439e-10)
(1.9506e-10 -2.0899e-09 5.8321e-10)
(2.0268e-10 -1.7052e-09 7.3513e-10)
(2.0189e-10 -1.298e-09 7.0605e-10)
(2.0112e-10 -9.0873e-10 4.9458e-10)
(1.9256e-10 -6.0853e-10 1.5887e-10)
(1.8398e-10 -4.4627e-10 -2.2389e-10)
(1.7551e-10 -4.2865e-10 -5.9041e-10)
(1.5829e-09 -2.6216e-09 -1.472e-10)
(1.5757e-09 -2.4408e-09 2.9319e-10)
(1.5719e-09 -2.1418e-09 6.1066e-10)
(1.5873e-09 -1.7489e-09 7.6177e-10)
(1.6017e-09 -1.3184e-09 7.3747e-10)
(1.5877e-09 -9.365e-10 5.6851e-10)
(1.5732e-09 -6.3964e-10 2.5875e-10)
(1.5788e-09 -4.6468e-10 -1.3939e-10)
(1.588e-09 -4.1998e-10 -5.2535e-10)
(2.6913e-09 -2.9799e-09 -1.4147e-10)
(2.6928e-09 -2.7941e-09 3.7515e-10)
(2.691e-09 -2.4836e-09 7.6534e-10)
(2.6891e-09 -2.0622e-09 9.8636e-10)
(2.6871e-09 -1.5938e-09 1.0365e-09)
(2.69e-09 -1.1604e-09 9.3363e-10)
(2.6927e-09 -8.0336e-10 6.8026e-10)
(2.6953e-09 -5.458e-10 3.1995e-10)
(2.6956e-09 -4.0253e-10 -3.7312e-11)
(3.5493e-09 -3.4775e-09 -1.3308e-10)
(3.5499e-09 -3.289e-09 4.9205e-10)
(3.5487e-09 -2.9627e-09 9.8416e-10)
(3.5287e-09 -2.5017e-09 1.302e-09)
(3.5238e-09 -1.9775e-09 1.4541e-09)
(3.5301e-09 -1.4727e-09 1.4486e-09)
(3.5504e-09 -1.0298e-09 1.2801e-09)
(3.5511e-09 -6.5849e-10 9.7746e-10)
(3.5517e-09 -3.7807e-10 6.5443e-10)
(4.1858e-09 -3.7947e-09 -1.2302e-10)
(4.1782e-09 -3.619e-09 5.7801e-10)
(4.1633e-09 -3.2934e-09 1.1445e-09)
(4.1598e-09 -2.807e-09 1.5299e-09)
(4.1611e-09 -2.2433e-09 1.7575e-09)
(4.163e-09 -1.6954e-09 1.8478e-09)
(4.168e-09 -1.1931e-09 1.7687e-09)
(4.183e-09 -7.3575e-10 1.5203e-09)
(4.193e-09 -3.4888e-10 1.2281e-09)
(4.5703e-09 -3.6147e-09 -1.1219e-10)
(4.5505e-09 -3.4565e-09 5.5836e-10)
(4.5269e-09 -3.1591e-09 1.1053e-09)
(4.5374e-09 -2.684e-09 1.4702e-09)
(4.5547e-09 -2.1445e-09 1.7002e-09)
(4.5429e-09 -1.6266e-09 1.8248e-09)
(4.5362e-09 -1.1531e-09 1.8035e-09)
(4.5616e-09 -7.0472e-10 1.5868e-09)
(4.5852e-09 -3.1678e-10 1.3236e-09)
(4.639e-09 -2.7807e-09 -1.0123e-10)
(4.6281e-09 -2.6333e-09 3.9143e-10)
(4.6124e-09 -2.3637e-09 7.7766e-10)
(4.6169e-09 -1.9791e-09 1.0238e-09)
(4.6266e-09 -1.5552e-09 1.1611e-09)
(4.6237e-09 -1.1657e-09 1.2182e-09)
(4.6244e-09 -8.2594e-10 1.1637e-09)
(4.644e-09 -5.2672e-10 9.8198e-10)
(4.6602e-09 -2.8295e-10 7.5883e-10)
(4.4407e-09 -1.4074e-09 -8.817e-11)
(4.4343e-09 -1.2765e-09 1.1687e-10)
(4.4225e-09 -1.067e-09 2.4881e-10)
(4.4201e-09 -8.2443e-10 2.8971e-10)
(4.424e-09 -5.9175e-10 2.5314e-10)
(4.4273e-09 -4.1125e-10 1.6541e-10)
(4.4352e-09 -2.9178e-10 2.6181e-11)
(4.4514e-09 -2.3565e-10 -1.523e-10)
(4.4637e-09 -2.4504e-10 -3.408e-10)
(4.0315e-09 1.8747e-10 -7.2491e-11)
(4.0233e-09 2.8335e-10 -1.7957e-10)
(4.0091e-09 3.9868e-10 -3.2979e-10)
(4.0046e-09 4.6926e-10 -5.2469e-10)
(4.0077e-09 4.8031e-10 -7.5929e-10)
(4.0122e-09 4.2792e-10 -1.0184e-09)
(4.0221e-09 2.9862e-10 -1.2667e-09)
(4.0396e-09 8.506e-11 -1.4689e-09)
(4.0527e-09 -2.0114e-10 -1.6341e-09)
(3.4539e-09 1.584e-09 -5.7507e-11)
(3.4422e-09 1.6347e-09 -4.1979e-10)
(3.4243e-09 1.6466e-09 -8.0616e-10)
(3.4242e-09 1.5587e-09 -1.2046e-09)
(3.4304e-09 1.3819e-09 -1.6058e-09)
(3.4328e-09 1.1273e-09 -1.9991e-09)
(3.4391e-09 7.8251e-10 -2.3398e-09)
(3.4599e-09 3.4557e-10 -2.5763e-09)
(3.4759e-09 -1.6011e-10 -2.7288e-09)
(2.7279e-09 2.4074e-09 -4.5425e-11)
(2.7187e-09 2.3902e-09 -5.3328e-10)
(2.707e-09 2.2941e-09 -1.0414e-09)
(2.7114e-09 2.1278e-09 -1.5591e-09)
(2.721e-09 1.8691e-09 -2.0482e-09)
(2.7206e-09 1.4889e-09 -2.4674e-09)
(2.7239e-09 1.0108e-09 -2.8224e-09)
(2.7417e-09 4.6542e-10 -3.1058e-09)
(2.7575e-09 -1.2886e-10 -3.2766e-09)
(1.8773e-09 2.3549e-09 -3.4351e-11)
(1.8715e-09 2.2872e-09 -4.827e-10)
(1.8662e-09 2.1435e-09 -9.5199e-10)
(1.8749e-09 1.9794e-09 -1.4367e-09)
(1.8864e-09 1.7493e-09 -1.8836e-09)
(1.8832e-09 1.3719e-09 -2.2171e-09)
(1.8826e-09 9.122e-10 -2.505e-09)
(1.8959e-09 4.191e-10 -2.7752e-09)
(1.9095e-09 -9.7006e-11 -2.9464e-09)
(9.4222e-10 1.3833e-09 -2.0081e-11)
(9.4119e-10 1.3456e-09 -2.8143e-10)
(9.4003e-10 1.2531e-09 -5.5569e-10)
(9.4595e-10 1.1503e-09 -8.3641e-10)
(9.513e-10 1.0079e-09 -1.0851e-09)
(9.51e-10 7.9069e-10 -1.275e-09)
(9.5024e-10 5.2127e-10 -1.4354e-09)
(9.5676e-10 2.3642e-10 -1.5873e-09)
(9.6253e-10 -5.5386e-11 -1.6723e-09)
(3.5735e-16 5.2475e-16 -8.1107e-18)
(3.0992e-13 5.0877e-12 1.8823e-12)
(3.0184e-16 6.7047e-16 -3.4282e-16)
(4.6958e-13 2.3973e-12 -4.4565e-12)
(4.4756e-16 2.5153e-16 -1.223e-16)
(4.3321e-13 4.8974e-12 -1.952e-12)
(3.0531e-16 1.8648e-16 -7.4593e-16)
(4.2632e-13 -1.4091e-12 -5.8712e-12)
(3.6429e-16 -2.2091e-17 -6.297e-16)
(3.8038e-06 6.3379e-06 3.4773e-05)
(-5.6076e-09 -9.858e-08 1.6242e-07)
(3.894e-06 1.3195e-05 3.1771e-05)
(8.8919e-13 7.3416e-12 1.887e-11)
(3.696e-06 2.0323e-05 2.9315e-05)
(-1.1027e-08 1.8613e-07 6.1486e-08)
(3.5119e-06 2.6076e-05 2.6076e-05)
(1.6799e-12 3.6733e-12 3.6732e-12)
(3.696e-06 2.9315e-05 2.0322e-05)
(-1.1027e-08 6.1488e-08 1.8613e-07)
(3.894e-06 3.1771e-05 1.3195e-05)
(8.8919e-13 1.887e-11 7.3416e-12)
(3.8038e-06 3.4773e-05 6.3379e-06)
(-5.6077e-09 1.6241e-07 -9.8576e-08)
(3.6675e-06 3.6422e-05 -4.9602e-12)
(1.2604e-12 1.4103e-11 -4.2888e-19)
(8.7511e-06 1.0261e-05 5.5994e-05)
(8.9076e-06 2.1236e-05 5.1198e-05)
(8.5846e-06 3.2771e-05 4.7418e-05)
(8.2173e-06 4.2562e-05 4.2561e-05)
(8.5846e-06 4.7418e-05 3.2771e-05)
(8.9076e-06 5.1198e-05 2.1236e-05)
(8.7511e-06 5.5994e-05 1.0261e-05)
(8.4695e-06 5.9166e-05 -1.6857e-11)
(1.3682e-05 1.0308e-05 5.4214e-05)
(1.371e-05 2.0966e-05 5.0726e-05)
(1.3589e-05 3.16e-05 4.6518e-05)
(1.3508e-05 4.0568e-05 4.0568e-05)
(1.3589e-05 4.6518e-05 3.16e-05)
(1.371e-05 5.0726e-05 2.0966e-05)
(1.3682e-05 5.4214e-05 1.0308e-05)
(1.3644e-05 5.5848e-05 -3.7925e-11)
(1.5048e-05 7.5586e-06 3.7584e-05)
(1.5035e-05 1.4959e-05 3.6413e-05)
(1.5087e-05 2.1815e-05 3.2987e-05)
(1.5278e-05 2.77e-05 2.77e-05)
(1.5087e-05 3.2987e-05 2.1814e-05)
(1.5035e-05 3.6413e-05 1.4958e-05)
(1.5048e-05 3.7584e-05 7.5585e-06)
(1.5218e-05 3.7378e-05 -6.1151e-11)
(1.093e-05 4.309e-06 2.0158e-05)
(1.1127e-05 8.3008e-06 2.018e-05)
(1.1064e-05 1.1761e-05 1.8223e-05)
(1.0973e-05 1.4979e-05 1.4979e-05)
(1.1064e-05 1.8223e-05 1.1761e-05)
(1.1127e-05 2.018e-05 8.3007e-06)
(1.093e-05 2.0158e-05 4.3089e-06)
(1.0779e-05 1.9627e-05 -7.0419e-11)
(4.6946e-06 2.0642e-06 9.0407e-06)
(5.1094e-06 3.8916e-06 9.3764e-06)
(4.8589e-06 5.3813e-06 8.4923e-06)
(4.4549e-06 6.8294e-06 6.8293e-06)
(4.8589e-06 8.4922e-06 5.3811e-06)
(5.1094e-06 9.3761e-06 3.8913e-06)
(4.6947e-06 9.0401e-06 2.064e-06)
(4.2149e-06 8.5368e-06 -5.102e-11)
(6.3042e-07 1.0374e-06 5.1546e-06)
(8.9808e-07 2.1138e-06 5.083e-06)
(7.5723e-07 3.1823e-06 4.7603e-06)
(5.5938e-07 4.1202e-06 4.1201e-06)
(7.5723e-07 4.7601e-06 3.182e-06)
(8.9809e-07 5.0825e-06 2.1135e-06)
(6.3044e-07 5.1537e-06 1.0371e-06)
(3.7792e-07 5.1615e-06 5.5005e-12)
(-6.7288e-07 8.4985e-07 5.0258e-06)
(-6.1264e-07 1.8524e-06 4.5132e-06)
(-6.0172e-07 3.0674e-06 4.3623e-06)
(-5.9152e-07 4.111e-06 4.1108e-06)
(-6.0174e-07 4.3621e-06 3.067e-06)
(-6.1268e-07 4.5126e-06 1.852e-06)
(-6.7293e-07 5.0247e-06 8.4952e-07)
(-6.8978e-07 5.4846e-06 6.0584e-11)
(-6.1124e-07 7.8893e-07 4.7003e-06)
(-6.365e-07 1.7421e-06 4.2494e-06)
(-5.7245e-07 2.8229e-06 4.0081e-06)
(-5.1708e-07 3.6698e-06 3.6686e-06)
(-5.7247e-07 4.0079e-06 2.8225e-06)
(-6.3656e-07 4.2488e-06 1.7417e-06)
(-6.1131e-07 4.6994e-06 7.8855e-07)
(-5.7077e-07 4.9948e-06 8.4999e-10)
(-3.8418e-07 6.3529e-07 3.3777e-06)
(-4.2205e-07 1.3169e-06 3.1912e-06)
(-3.5888e-07 1.9972e-06 2.9329e-06)
(-2.7004e-07 2.5311e-06 2.531e-06)
(-3.589e-07 2.9328e-06 1.9968e-06)
(-4.221e-07 3.1909e-06 1.3165e-06)
(-3.8423e-07 3.3771e-06 6.349e-07)
(-3.0671e-07 3.4159e-06 1.3772e-10)
(-5.0357e-07 3.9113e-07 1.7629e-06)
(-5.3123e-07 7.3924e-07 1.7773e-06)
(-4.8474e-07 1.0244e-06 1.5956e-06)
(-4.4041e-07 1.2902e-06 1.29e-06)
(-4.8476e-07 1.5956e-06 1.024e-06)
(-5.3127e-07 1.777e-06 7.3882e-07)
(-5.0361e-07 1.7626e-06 3.9076e-07)
(-4.6711e-07 1.6951e-06 1.6749e-10)
(-7.8676e-07 1.8122e-07 6.9675e-07)
(-7.8796e-07 3.2394e-07 7.7594e-07)
(-7.7308e-07 4.0317e-07 6.7058e-07)
(-7.7612e-07 4.8529e-07 4.8497e-07)
(-7.731e-07 6.7065e-07 4.0275e-07)
(-7.8799e-07 7.7581e-07 3.2354e-07)
(-7.8679e-07 6.9658e-07 1.8089e-07)
(-7.9542e-07 5.9666e-07 2.2299e-10)
(-8.8668e-07 1.0264e-07 3.9713e-07)
(-8.8741e-07 1.7817e-07 4.2549e-07)
(-8.7689e-07 2.3298e-07 3.8536e-07)
(-8.6882e-07 3.0093e-07 3.0072e-07)
(-8.769e-07 3.8556e-07 2.3256e-07)
(-8.8745e-07 4.2556e-07 1.7777e-07)
(-8.8672e-07 3.972e-07 1.0232e-07)
(-8.8303e-07 3.6857e-07 6.0304e-11)
(-7.3519e-07 8.0857e-08 4.7099e-07)
(-7.476e-07 1.7528e-07 4.1205e-07)
(-7.2517e-07 2.9642e-07 4.2659e-07)
(-7.1311e-07 3.924e-07 3.9203e-07)
(-7.2519e-07 4.2691e-07 2.9602e-07)
(-7.4763e-07 4.1233e-07 1.749e-07)
(-7.3524e-07 4.7131e-07 8.052e-08)
(-7.2306e-07 5.1844e-07 2.988e-10)
(-5.3061e-07 7.5957e-08 4.7453e-07)
(-5.3651e-07 1.7268e-07 4.1376e-07)
(-5.2712e-07 2.9446e-07 4.0418e-07)
(-5.1714e-07 3.8767e-07 3.8751e-07)
(-5.2714e-07 4.0459e-07 2.9409e-07)
(-5.3654e-07 4.142e-07 1.7232e-07)
(-5.3065e-07 4.7502e-07 7.5608e-08)
(-5.2209e-07 5.2109e-07 1.9635e-10)
(-3.9387e-07 5.0246e-08 3.176e-07)
(-3.9418e-07 1.1608e-07 2.7917e-07)
(-3.9257e-07 1.9866e-07 2.7215e-07)
(-3.8926e-07 2.5705e-07 2.5665e-07)
(-3.9258e-07 2.7263e-07 1.9832e-07)
(-3.942e-07 2.7972e-07 1.1576e-07)
(-3.9389e-07 3.1823e-07 4.9898e-08)
(-3.9089e-07 3.4125e-07 3.2664e-10)
(-3.3586e-07 2.6452e-08 1.5907e-07)
(-3.3147e-07 6.105e-08 1.4547e-07)
(-3.3436e-07 1.0136e-07 1.3993e-07)
(-3.3775e-07 1.3017e-07 1.2976e-07)
(-3.3437e-07 1.4045e-07 1.0104e-07)
(-3.3149e-07 1.4613e-07 6.0754e-08)
(-3.3587e-07 1.5984e-07 2.6122e-08)
(-3.3984e-07 1.6796e-07 3.1375e-10)
(-3.1076e-07 1.7607e-08 7.5169e-08)
(-3.0279e-07 3.1684e-08 7.5807e-08)
(-3.0876e-07 4.6056e-08 7.0615e-08)
(-3.1784e-07 5.9049e-08 5.8648e-08)
(-3.0876e-07 7.1183e-08 4.5766e-08)
(-3.028e-07 7.654e-08 3.1426e-08)
(-3.1076e-07 7.603e-08 1.7307e-08)
(-3.2087e-07 7.3877e-08 2.9118e-10)
(-2.5794e-07 1.5287e-08 6.5006e-08)
(-2.5367e-07 2.8013e-08 6.5897e-08)
(-2.5682e-07 3.8558e-08 5.9616e-08)
(-2.6054e-07 4.9248e-08 4.8785e-08)
(-2.5682e-07 6.0205e-08 3.8307e-08)
(-2.5366e-07 6.6675e-08 2.7797e-08)
(-2.5793e-07 6.5896e-08 1.502e-08)
(-2.6213e-07 6.4059e-08 3.3093e-10)
(-1.8767e-07 1.6812e-08 7.3896e-08)
(-1.8803e-07 3.1155e-08 7.388e-08)
(-1.877e-07 4.2693e-08 6.5843e-08)
(-1.8621e-07 5.5661e-08 5.5313e-08)
(-1.877e-07 6.6413e-08 4.2485e-08)
(-1.8802e-07 7.465e-08 3.0981e-08)
(-1.8766e-07 7.4753e-08 1.658e-08)
(-1.8599e-07 7.5305e-08 2.3761e-10)
(-1.3662e-07 1.4187e-08 5.7826e-08)
(-1.3714e-07 2.5056e-08 5.9026e-08)
(-1.3666e-07 3.2942e-08 5.224e-08)
(-1.3607e-07 4.1748e-08 4.1453e-08)
(-1.3665e-07 5.2737e-08 3.2768e-08)
(-1.3713e-07 5.9703e-08 2.491e-08)
(-1.3661e-07 5.8601e-08 1.3988e-08)
(-1.3597e-07 5.6257e-08 1.9905e-10)
(-1.0849e-07 7.9629e-09 2.5812e-08)
(-1.075e-07 1.2931e-08 2.9785e-08)
(-1.0809e-07 1.4471e-08 2.4963e-08)
(-1.0877e-07 1.6537e-08 1.6295e-08)
(-1.0808e-07 2.5359e-08 1.4327e-08)
(-1.0749e-07 3.0331e-08 1.2807e-08)
(-1.0848e-07 2.6463e-08 7.7951e-09)
(-1.0941e-07 2.0947e-08 1.5668e-10)
(-8.8082e-08 4.0955e-09 1.1719e-08)
(-8.7617e-08 6.1084e-09 1.3995e-08)
(-8.7701e-08 6.5765e-09 1.1962e-08)
(-8.8005e-08 8.1531e-09 7.9667e-09)
(-8.7695e-08 1.2251e-08 6.4568e-09)
(-8.7607e-08 1.4391e-08 6.0034e-09)
(-8.8071e-08 1.2199e-08 3.9584e-09)
(-8.8545e-08 9.9468e-09 1.1516e-10)
(-6.906e-08 2.6026e-09 1.2546e-08)
(-6.9298e-08 4.861e-09 1.1646e-08)
(-6.896e-08 7.5214e-09 1.1163e-08)
(-6.878e-08 1.0414e-08 1.0286e-08)
(-6.8954e-08 1.1337e-08 7.4258e-09)
(-6.9287e-08 1.1868e-08 4.7737e-09)
(-6.9047e-08 1.2806e-08 2.4983e-09)
(-6.8876e-08 1.3969e-08 7.6154e-11)
(-5.1204e-08 2.2157e-09 1.233e-08)
(-5.1596e-08 4.5874e-09 1.1118e-08)
(-5.1198e-08 7.398e-09 1.0607e-08)
(-5.0813e-08 9.8624e-09 9.8049e-09)
(-5.1194e-08 1.0658e-08 7.3277e-09)
(-5.1588e-08 1.1147e-08 4.5147e-09)
(-5.1195e-08 1.2329e-08 2.1444e-09)
(-5.0806e-08 1.3317e-08 3.758e-11)
(-3.6472e-08 1.5736e-09 8.4862e-09)
(-3.6887e-08 3.3375e-09 7.9383e-09)
(-3.6419e-08 5.1012e-09 7.499e-09)
(-3.5792e-08 6.339e-09 6.3431e-09)
(-3.6417e-08 7.4247e-09 5.0592e-09)
(-3.6883e-08 7.7762e-09 3.2779e-09)
(-3.6469e-08 8.2267e-09 1.5312e-09)
(-3.5864e-08 8.226e-09 1.0931e-11)
(-2.7001e-08 9.1455e-10 4.5397e-09)
(-2.7261e-08 1.8188e-09 4.4336e-09)
(-2.693e-08 2.5585e-09 3.964e-09)
(-2.6637e-08 3.1643e-09 3.2386e-09)
(-2.6931e-08 3.772e-09 2.5461e-09)
(-2.726e-08 4.1022e-09 1.7698e-09)
(-2.7e-08 4.0624e-09 8.9326e-10)
(-2.6735e-08 3.9541e-09 -2.6682e-11)
(-2.1042e-08 3.7038e-10 2.2141e-09)
(-2.1139e-08 7.8103e-10 2.1274e-09)
(-2.099e-08 9.9925e-10 1.7637e-09)
(-2.0961e-08 1.133e-09 1.2704e-09)
(-2.0992e-08 1.4667e-09 1.0154e-09)
(-2.1142e-08 1.6434e-09 7.4403e-10)
(-2.1043e-08 1.5376e-09 3.6992e-10)
(-2.1034e-08 1.4098e-09 -6.218e-11)
(-1.5797e-08 1.5333e-10 1.7777e-09)
(-1.5846e-08 4.3062e-10 1.4921e-09)
(-1.5779e-08 6.0852e-10 1.2061e-09)
(-1.5737e-08 7.3234e-10 9.1441e-10)
(-1.5783e-08 8.2192e-10 6.4888e-10)
(-1.5851e-08 8.6562e-10 4.1392e-10)
(-1.5803e-08 9.0172e-10 1.8079e-10)
(-1.5766e-08 9.731e-10 -8.5657e-11)
(-1.1012e-08 5.1966e-11 1.9572e-09)
(-1.1113e-08 3.5245e-10 1.4438e-09)
(-1.1054e-08 6.6261e-10 1.2497e-09)
(-1.0864e-08 8.6194e-10 1.0787e-09)
(-1.1059e-08 8.0156e-10 7.2452e-10)
(-1.1123e-08 7.1154e-10 3.5596e-10)
(-1.1026e-08 9.2707e-10 1.0714e-10)
(-1.0859e-08 1.1956e-09 -1.0359e-10)
(-7.5212e-09 -7.0647e-11 1.4262e-09)
(-7.601e-09 1.3105e-10 9.9607e-10)
(-7.5345e-09 2.6878e-10 7.3415e-10)
(-7.4711e-09 3.1424e-10 5.6444e-10)
(-7.5412e-09 2.4536e-10 3.5316e-10)
(-7.6141e-09 2.1278e-10 1.5039e-10)
(-7.5403e-09 3.2599e-10 5.221e-12)
(-7.4691e-09 4.9343e-10 -1.217e-10)
(-5.1131e-09 -2.6223e-10 3.7949e-10)
(-5.1461e-09 -2.5712e-10 1.0195e-10)
(-5.1157e-09 -3.9162e-10 -1.4409e-10)
(-5.1017e-09 -5.8578e-10 -3.0799e-10)
(-5.1221e-09 -6.5933e-10 -2.8967e-10)
(-5.1589e-09 -7.055e-10 -2.2775e-10)
(-5.1321e-09 -7.5204e-10 -1.729e-10)
(-5.1168e-09 -7.2975e-10 -1.3673e-10)
(-3.1678e-09 -4.2559e-10 -3.6403e-10)
(-3.1583e-09 -5.6438e-10 -5.982e-10)
(-3.1595e-09 -8.1555e-10 -7.5918e-10)
(-3.1707e-09 -1.0927e-09 -8.0514e-10)
(-3.1638e-09 -1.2989e-09 -7.0631e-10)
(-3.1666e-09 -1.4446e-09 -5.2591e-10)
(-3.1797e-09 -1.5366e-09 -3.2767e-10)
(-3.1935e-09 -1.4988e-09 -1.4512e-10)
(-1.4117e-09 -5.1221e-10 -7.2712e-10)
(-1.3956e-09 -7.1738e-10 -9.5505e-10)
(-1.3985e-09 -9.9245e-10 -1.038e-09)
(-1.406e-09 -1.2852e-09 -9.9489e-10)
(-1.4002e-09 -1.5958e-09 -8.841e-10)
(-1.3989e-09 -1.8334e-09 -6.7704e-10)
(-1.416e-09 -1.9329e-09 -4.1154e-10)
(-1.4286e-09 -1.8615e-09 -1.4917e-10)
(1.8014e-10 -5.4521e-10 -8.9261e-10)
(1.8541e-10 -7.6702e-10 -1.0806e-09)
(1.9142e-10 -1.0508e-09 -1.1355e-09)
(1.9056e-10 -1.369e-09 -1.0809e-09)
(1.9096e-10 -1.6959e-09 -9.4643e-10)
(1.8425e-10 -1.9611e-09 -7.2941e-10)
(1.7783e-10 -2.0903e-09 -4.4519e-10)
(1.7139e-10 -2.0445e-09 -1.4988e-10)
(1.5774e-09 -5.0347e-10 -7.8447e-10)
(1.5699e-09 -6.9574e-10 -9.3604e-10)
(1.5818e-09 -9.5795e-10 -9.9833e-10)
(1.594e-09 -1.2569e-09 -9.7731e-10)
(1.5812e-09 -1.5432e-09 -8.58e-10)
(1.5682e-09 -1.7891e-09 -6.6059e-10)
(1.5733e-09 -1.9369e-09 -4.0524e-10)
(1.5818e-09 -1.9185e-09 -1.4739e-10)
(2.6969e-09 -3.8157e-10 -2.9092e-10)
(2.6951e-09 -4.7371e-10 -4.5213e-10)
(2.6925e-09 -6.4785e-10 -5.5493e-10)
(2.6895e-09 -8.6046e-10 -5.9407e-10)
(2.6915e-09 -1.0696e-09 -5.4893e-10)
(2.6924e-09 -1.255e-09 -4.3403e-10)
(2.6919e-09 -1.3744e-09 -2.8325e-10)
(2.6894e-09 -1.3474e-09 -1.4163e-10)
(3.5558e-09 -2.1335e-10 4.0772e-10)
(3.5588e-09 -1.7233e-10 2.2169e-10)
(3.5411e-09 -2.3023e-10 5.1782e-11)
(3.5366e-09 -3.2688e-10 -7.758e-11)
(3.5403e-09 -4.2215e-10 -1.3207e-10)
(3.5569e-09 -5.139e-10 -1.2743e-10)
(3.5527e-09 -5.8461e-10 -1.1586e-10)
(3.5489e-09 -5.4913e-10 -1.3296e-10)
(4.19e-09 -6.8014e-11 9.9875e-10)
(4.1799e-09 8.2713e-11 7.9665e-10)
(4.1773e-09 1.1856e-10 5.6141e-10)
(4.1771e-09 1.1695e-10 3.4667e-10)
(4.1777e-09 1.337e-10 2.1418e-10)
(4.1809e-09 1.3941e-10 1.3021e-10)
(4.1918e-09 1.1655e-10 2.5446e-11)
(4.1967e-09 1.5796e-10 -1.2324e-10)
(4.5699e-09 -2.2481e-11 1.1191e-09)
(4.55e-09 1.5223e-10 9.3211e-10)
(4.5583e-09 2.0247e-10 6.7125e-10)
(4.5718e-09 2.259e-10 4.3481e-10)
(4.5605e-09 2.8935e-10 2.9315e-10)
(4.5546e-09 3.4996e-10 1.9974e-10)
(4.5773e-09 3.4147e-10 6.5206e-11)
(4.5954e-09 3.8192e-10 -1.1263e-10)
(4.6529e-09 -1.194e-10 5.724e-10)
(4.6395e-09 -5.5878e-11 4.039e-10)
(4.6422e-09 -7.8814e-11 2.1839e-10)
(4.6489e-09 -1.1751e-10 6.8885e-11)
(4.6457e-09 -1.1971e-10 4.6366e-12)
(4.6467e-09 -1.1329e-10 -9.6504e-12)
(4.6639e-09 -1.2399e-10 -3.754e-11)
(4.6745e-09 -8.6649e-11 -9.95e-11)
(4.4612e-09 -3.218e-10 -5.0343e-10)
(4.4525e-09 -4.625e-10 -6.2045e-10)
(4.4498e-09 -6.4319e-10 -6.7729e-10)
(4.4518e-09 -8.2418e-10 -6.6276e-10)
(4.4537e-09 -9.6954e-10 -5.6996e-10)
(4.46e-09 -1.0721e-09 -4.2133e-10)
(4.4723e-09 -1.1213e-09 -2.4951e-10)
(4.4782e-09 -1.0944e-09 -8.5158e-11)
(4.0507e-09 -5.4651e-10 -1.7648e-09)
(4.042e-09 -9.2503e-10 -1.8073e-09)
(4.0377e-09 -1.2999e-09 -1.7161e-09)
(4.0385e-09 -1.6499e-09 -1.5151e-09)
(4.0414e-09 -1.9571e-09 -1.2388e-09)
(4.0483e-09 -2.1818e-09 -8.9301e-10)
(4.0588e-09 -2.2849e-09 -4.8963e-10)
(4.0634e-09 -2.2711e-09 -7.0472e-11)
(3.4724e-09 -7.1721e-10 -2.8167e-09)
(3.4616e-09 -1.2907e-09 -2.7778e-09)
(3.4615e-09 -1.8308e-09 -2.5586e-09)
(3.4644e-09 -2.3201e-09 -2.2093e-09)
(3.4651e-09 -2.7494e-09 -1.7796e-09)