/*--------------------------------*- C++ -*----------------------------------*\
| =========                 |                                                 |
| \\      /  F ield         | OpenFOAM: The Open Source CFD Toolbox           |
|  \\    /   O peration     | Version:  4.1                                   |
|   \\  /    A nd           | Web:      www.OpenFOAM.org                      |
|    \\/     M anipulation  |                                                 |
\*---------------------------------------------------------------------------*/
FoamFile
{
    version     2.0;
    format      ascii;
    class       volVectorField;
    location    "0.0006";
    object      U;
}
// * * * * * * * * * * * * * * * * * * * * * * * * * * * * * * * * * * * * * //

dimensions      [0 1 -1 0 0 0 0];

internalField   nonuniform List<vector> 
6144
(
(-4.2007e-06 3.412e-07 6.8207e-08)
(-4.2298e-06 9.621e-07 2.0476e-07)
(-4.3243e-06 1.4817e-06 3.4338e-07)
(-4.494e-06 1.9322e-06 4.8421e-07)
(-4.4371e-06 2.1597e-06 6.3031e-07)
(-4.2533e-06 2.6505e-06 7.8141e-07)
(-4.1329e-06 3.3527e-06 9.2467e-07)
(-4.0715e-06 3.9327e-06 1.0693e-06)
(-4.2119e-06 4.6945e-06 1.2295e-06)
(-4.4534e-06 5.3479e-06 1.399e-06)
(-4.5787e-06 5.5119e-06 1.5687e-06)
(-4.2721e-06 5.5e-06 1.749e-06)
(-3.0809e-06 5.1859e-06 1.9515e-06)
(-1.0119e-06 4.9623e-06 2.1166e-06)
(1.758e-06 5.1601e-06 2.2035e-06)
(4.8035e-06 5.5855e-06 2.3131e-06)
(7.6177e-06 6.5798e-06 2.4463e-06)
(9.7246e-06 7.631e-06 2.5057e-06)
(1.1812e-05 8.097e-06 2.6496e-06)
(1.4351e-05 7.5717e-06 2.8453e-06)
(1.8013e-05 4.8776e-06 2.901e-06)
(2.505e-05 -4.7895e-07 2.9021e-06)
(3.7148e-05 -6.7595e-06 2.889e-06)
(5.372e-05 -1.4172e-05 2.8612e-06)
(7.4603e-05 -2.2558e-05 2.8209e-06)
(0.0001031 -3.9752e-05 2.7623e-06)
(0.00014681 -6.7499e-05 2.7276e-06)
(0.00021256 -0.00010023 2.72e-06)
(0.00030039 -0.00013474 2.7191e-06)
(0.00041548 -0.0001917 2.7188e-06)
(0.00058461 -0.00029747 2.6809e-06)
(0.00085074 -0.00045731 2.6267e-06)
(0.0012462 -0.00064828 2.5719e-06)
(0.0017706 -0.00085557 2.4988e-06)
(0.0024377 -0.0011691 2.479e-06)
(0.0033859 -0.0017891 2.6349e-06)
(0.0049274 -0.0028757 2.831e-06)
(0.0074091 -0.0043496 3.117e-06)
(0.011033 -0.006053 3.2938e-06)
(0.015884 -0.008154 3.2459e-06)
(0.022402 -0.011494 3.0141e-06)
(0.031912 -0.017027 2.7466e-06)
(0.046479 -0.024845 2.5939e-06)
(0.067832 -0.033182 2.4182e-06)
(0.095622 -0.038439 2.1006e-06)
(0.12607 -0.036849 1.5751e-06)
(0.15275 -0.026826 9.3879e-07)
(0.16872 -0.01084 3.3759e-07)
(-4.52e-06 2.2708e-07 3.2766e-08)
(-4.5617e-06 6.2256e-07 1.0127e-07)
(-4.657e-06 1.0852e-06 2.344e-07)
(-4.8088e-06 1.4529e-06 3.4353e-07)
(-4.7761e-06 1.7326e-06 5.5265e-07)
(-4.6663e-06 2.2835e-06 6.7607e-07)
(-4.5679e-06 3.0184e-06 8.3433e-07)
(-4.5073e-06 3.5572e-06 1.0487e-06)
(-4.6659e-06 4.2696e-06 1.234e-06)
(-4.8246e-06 4.8549e-06 1.4531e-06)
(-4.8499e-06 4.9974e-06 1.7419e-06)
(-4.4833e-06 5.0234e-06 2.0034e-06)
(-3.2572e-06 4.8733e-06 2.3132e-06)
(-1.2006e-06 4.7451e-06 2.5738e-06)
(1.5141e-06 4.9028e-06 2.6618e-06)
(4.4369e-06 5.3027e-06 2.7273e-06)
(7.2007e-06 6.0491e-06 2.716e-06)
(9.4232e-06 6.8101e-06 2.599e-06)
(1.1669e-05 6.8598e-06 2.6273e-06)
(1.4541e-05 6.2805e-06 2.8495e-06)
(1.8689e-05 4.1371e-06 3.2857e-06)
(2.6025e-05 2.1629e-07 4.1974e-06)
(3.8301e-05 -4.0896e-06 5.2045e-06)
(5.5078e-05 -9.2461e-06 6.3427e-06)
(7.6854e-05 -1.539e-05 7.8342e-06)
(0.00010708 -2.7323e-05 1.079e-05)
(0.00015233 -4.5964e-05 1.5278e-05)
(0.00021921 -6.8618e-05 2.0327e-05)
(0.00030958 -9.4784e-05 2.5746e-05)
(0.00043099 -0.00013709 3.5699e-05)
(0.00060942 -0.00021089 5.3819e-05)
(0.00088416 -0.00031963 7.9675e-05)
(0.0012861 -0.00045161 0.00010852)
(0.0018243 -0.000605 0.00014058)
(0.0025302 -0.00084289 0.00019381)
(0.003549 -0.0012885 0.00029904)
(0.0051733 -0.0020352 0.00047195)
(0.0077272 -0.0030458 0.00068887)
(0.011425 -0.0042561 0.00092305)
(0.01643 -0.0057982 0.0012369)
(0.023258 -0.0081978 0.0017748)
(0.033188 -0.012025 0.0026282)
(0.048049 -0.017276 0.0036929)
(0.069216 -0.022789 0.0046189)
(0.096081 -0.026239 0.004943)
(0.125 -0.025096 0.0044078)
(0.15005 -0.018218 0.0030557)
(0.16495 -0.0073318 0.0011977)
(-4.6466e-06 2.2025e-07 4.1846e-08)
(-4.7007e-06 6.111e-07 1.4545e-07)
(-4.8013e-06 1.0649e-06 2.8126e-07)
(-4.942e-06 1.4384e-06 4.3842e-07)
(-4.9474e-06 1.7211e-06 6.9864e-07)
(-4.8872e-06 2.27e-06 8.7862e-07)
(-4.7916e-06 2.922e-06 1.0278e-06)
(-4.7313e-06 3.4238e-06 1.282e-06)
(-4.8855e-06 4.0678e-06 1.4597e-06)
(-4.9849e-06 4.5993e-06 1.6828e-06)
(-4.9527e-06 4.7751e-06 2.0373e-06)
(-4.5624e-06 4.8912e-06 2.3966e-06)
(-3.3232e-06 4.8809e-06 2.8175e-06)
(-1.2792e-06 4.8847e-06 3.2045e-06)
(1.3907e-06 5.1199e-06 3.4484e-06)
(4.2885e-06 5.5438e-06 3.6511e-06)
(7.048e-06 6.1135e-06 3.6595e-06)
(9.3506e-06 6.7704e-06 3.5848e-06)
(1.1737e-05 6.7216e-06 3.7276e-06)
(1.481e-05 6.1736e-06 4.0412e-06)
(1.9266e-05 4.4599e-06 4.776e-06)
(2.6779e-05 1.2902e-06 6.1275e-06)
(3.918e-05 -2.2028e-06 7.6812e-06)
(5.6158e-05 -6.2904e-06 9.3963e-06)
(7.8527e-05 -1.144e-05 1.1663e-05)
(0.00010986 -2.0993e-05 1.5956e-05)
(0.00015616 -3.5856e-05 2.2422e-05)
(0.00022388 -5.4263e-05 3.0149e-05)
(0.00031613 -7.6404e-05 3.9398e-05)
(0.00044169 -0.00011153 5.433e-05)
(0.00062594 -0.00017148 8.0882e-05)
(0.00090624 -0.00025877 0.00011945)
(0.0013132 -0.00036567 0.00016555)
(0.001862 -0.00049378 0.00021932)
(0.0025947 -0.00069357 0.00030328)
(0.0036591 -0.0010592 0.00045999)
(0.0053356 -0.0016612 0.00071942)
(0.0079366 -0.0024753 0.0010648)
(0.011689 -0.0034616 0.001471)
(0.016802 -0.0047352 0.0019976)
(0.023835 -0.0066999 0.0028277)
(0.034022 -0.0097762 0.0041272)
(0.049044 -0.013927 0.0058425)
(0.070059 -0.018214 0.0075371)
(0.096316 -0.020824 0.008454)
(0.12427 -0.01982 0.0079022)
(0.14831 -0.014344 0.0056531)
(0.16256 -0.0057565 0.0022534)
(-4.7963e-06 2.2001e-07 6.0045e-08)
(-4.8579e-06 6.1911e-07 2.1393e-07)
(-4.9634e-06 1.0568e-06 3.6441e-07)
(-5.1007e-06 1.4277e-06 5.672e-07)
(-5.1269e-06 1.7101e-06 8.661e-07)
(-5.0942e-06 2.2003e-06 1.0259e-06)
(-5.0037e-06 2.7822e-06 1.145e-06)
(-4.9491e-06 3.2365e-06 1.3976e-06)
(-5.1075e-06 3.818e-06 1.5658e-06)
(-5.1792e-06 4.3209e-06 1.8178e-06)
(-5.1213e-06 4.5652e-06 2.27e-06)
(-4.7193e-06 4.769e-06 2.7586e-06)
(-3.4683e-06 4.8684e-06 3.3141e-06)
(-1.4325e-06 4.9714e-06 3.8252e-06)
(1.2115e-06 5.2571e-06 4.1744e-06)
(4.1048e-06 5.671e-06 4.4541e-06)
(6.882e-06 6.1712e-06 4.5377e-06)
(9.2501e-06 6.7608e-06 4.4694e-06)
(1.1741e-05 6.7524e-06 4.7626e-06)
(1.4935e-05 6.3293e-06 5.2409e-06)
(1.9558e-05 5.0268e-06 6.3234e-06)
(2.7182e-05 2.5463e-06 8.1559e-06)
(3.9624e-05 -3.102e-07 1.0267e-05)
(5.6684e-05 -3.4838e-06 1.2611e-05)
(7.9326e-05 -7.5525e-06 1.576e-05)
(0.0001112 -1.4964e-05 2.1627e-05)
(0.00015808 -2.6544e-05 3.0492e-05)
(0.0002263 -4.1048e-05 4.1307e-05)
(0.00031953 -5.8888e-05 5.4514e-05)
(0.00044708 -8.6926e-05 7.5484e-05)
(0.00063406 -0.00013457 0.00011193)
(0.00091702 -0.00020354 0.00016503)
(0.0013266 -0.00028797 0.00022978)
(0.0018813 -0.00038976 0.00030697)
(0.0026275 -0.00054834 0.00042654)
(0.0037142 -0.00083684 0.0006449)
(0.0054162 -0.0013097 0.0010039)
(0.0080408 -0.0019483 0.0014869)
(0.011821 -0.0027229 0.0020681)
(0.01699 -0.0037287 0.0028229)
(0.024124 -0.0052749 0.0039884)
(0.034436 -0.0076721 0.0057936)
(0.049532 -0.01087 0.0081868)
(0.070468 -0.014129 0.010596)
(0.096423 -0.016059 0.011978)
(0.1239 -0.015214 0.011293)
(0.14746 -0.010973 0.0081199)
(0.16138 -0.0043886 0.003241)
(-4.9713e-06 2.1891e-07 7.7332e-08)
(-5.034e-06 6.2579e-07 2.7617e-07)
(-5.1406e-06 1.0397e-06 4.4271e-07)
(-5.2791e-06 1.4086e-06 6.8297e-07)
(-5.3072e-06 1.6887e-06 1.0196e-06)
(-5.2828e-06 2.119e-06 1.156e-06)
(-5.2041e-06 2.6336e-06 1.2518e-06)
(-5.1584e-06 3.0306e-06 1.5046e-06)
(-5.3271e-06 3.5505e-06 1.6652e-06)
(-5.4107e-06 4.0269e-06 1.9399e-06)
(-5.3599e-06 4.3382e-06 2.512e-06)
(-4.9573e-06 4.6283e-06 3.1329e-06)
(-3.6947e-06 4.817e-06 3.8411e-06)
(-1.6448e-06 4.9931e-06 4.4841e-06)
(1.0013e-06 5.3073e-06 4.9141e-06)
(3.9145e-06 5.7067e-06 5.2185e-06)
(6.7257e-06 6.1495e-06 5.3123e-06)
(9.1182e-06 6.6836e-06 5.2067e-06)
(1.1644e-05 6.7742e-06 5.6359e-06)
(1.4869e-05 6.543e-06 6.3376e-06)
(1.9536e-05 5.6563e-06 7.8661e-06)
(2.7207e-05 3.8017e-06 1.0286e-05)
(3.9661e-05 1.5806e-06 1.3089e-05)
(5.6692e-05 -8.9395e-07 1.6087e-05)
(7.9276e-05 -3.9688e-06 2.019e-05)
(0.00011115 -9.5879e-06 2.7782e-05)
(0.00015809 -1.8361e-05 3.9389e-05)
(0.00022639 -2.936e-05 5.3699e-05)
(0.00031965 -4.2942e-05 7.1173e-05)
(0.00044717 -6.4297e-05 9.8849e-05)
(0.00063406 -0.00010096 0.00014633)
(0.0009169 -0.00015402 0.00021549)
(0.0013264 -0.00021832 0.00030045)
(0.0018811 -0.00029464 0.00040285)
(0.0026274 -0.00041353 0.00056198)
(0.0037142 -0.0006317 0.00085074)
(0.0054163 -0.00099104 0.0013234)
(0.008041 -0.0014746 0.0019617)
(0.011822 -0.0020562 0.0027358)
(0.016991 -0.0028112 0.0037414)
(0.024124 -0.0039767 0.0052874)
(0.034436 -0.0057823 0.0076843)
(0.049532 -0.0081763 0.010881)
(0.070469 -0.010587 0.014139)
(0.096423 -0.011971 0.016067)
(0.1239 -0.011287 0.01522)
(0.14746 -0.0081166 0.010977)
(0.16138 -0.00324 0.0043898)
(-5.1649e-06 2.1134e-07 8.5027e-08)
(-5.223e-06 6.1525e-07 3.0818e-07)
(-5.3297e-06 9.9255e-07 4.8498e-07)
(-5.478e-06 1.3588e-06 7.5551e-07)
(-5.4917e-06 1.6404e-06 1.1369e-06)
(-5.4572e-06 2.034e-06 1.2768e-06)
(-5.3916e-06 2.4874e-06 1.3573e-06)
(-5.3582e-06 2.835e-06 1.6144e-06)
(-5.5469e-06 3.2905e-06 1.7644e-06)
(-5.6793e-06 3.7282e-06 2.0628e-06)
(-5.6692e-06 4.0797e-06 2.7585e-06)
(-5.2711e-06 4.429e-06 3.5179e-06)
(-3.9923e-06 4.6789e-06 4.3697e-06)
(-1.9106e-06 4.9008e-06 5.1458e-06)
(7.6786e-07 5.2466e-06 5.6659e-06)
(3.7234e-06 5.6514e-06 5.971e-06)
(6.5832e-06 6.1054e-06 6.0872e-06)
(8.9562e-06 6.5949e-06 5.8998e-06)
(1.1434e-05 6.7809e-06 6.4058e-06)
(1.4592e-05 6.7295e-06 7.3113e-06)
(1.9187e-05 6.191e-06 9.3177e-06)
(2.6829e-05 4.8924e-06 1.2424e-05)
(3.9283e-05 3.3295e-06 1.6058e-05)
(5.6209e-05 1.4499e-06 1.9824e-05)
(7.8416e-05 -7.7341e-07 2.4894e-05)
(0.00010975 -4.9216e-06 3.442e-05)
(0.00015623 -1.1334e-05 4.9131e-05)
(0.00022413 -1.9284e-05 6.7296e-05)
(0.00031646 -2.8917e-05 8.9152e-05)
(0.00044194 -4.414e-05 0.00012402)
(0.00062598 -7.0795e-05 0.00018379)
(0.00090599 -0.00010912 0.00027094)
(0.0013126 -0.00015471 0.000378)
(0.0018614 -0.00020788 0.00050685)
(0.0025943 -0.00029134 0.00070727)
(0.0036591 -0.00044792 0.0010734)
(0.0053359 -0.00070756 0.0016754)
(0.007937 -0.001053 0.0024899)
(0.011689 -0.0014592 0.0034762)
(0.016803 -0.0019858 0.0047497)
(0.023835 -0.0028161 0.0067141)
(0.034023 -0.004116 0.00979)
(0.049045 -0.0058324 0.013939)
(0.070061 -0.0075285 0.018225)
(0.096318 -0.0084473 0.020833)
(0.12427 -0.0078976 0.019826)
(0.14832 -0.0056506 0.014348)
(0.16256 -0.0022527 0.0057576)
(-5.3664e-06 1.972e-07 8.8781e-08)
(-5.4176e-06 5.9502e-07 3.3183e-07)
(-5.5276e-06 9.2127e-07 5.2304e-07)
(-5.6993e-06 1.2964e-06 8.4507e-07)
(-5.697e-06 1.5788e-06 1.28e-06)
(-5.6342e-06 1.9476e-06 1.4615e-06)
(-5.5772e-06 2.3227e-06 1.4983e-06)
(-5.553e-06 2.6808e-06 1.788e-06)
(-5.761e-06 3.0979e-06 1.9311e-06)
(-5.9768e-06 3.4944e-06 2.2377e-06)
(-6.0371e-06 3.7934e-06 2.9881e-06)
(-5.6504e-06 4.0981e-06 3.8645e-06)
(-4.3542e-06 4.4405e-06 4.9259e-06)
(-2.2333e-06 4.7494e-06 5.9182e-06)
(4.9925e-07 5.1436e-06 6.5501e-06)
(3.501e-06 5.5631e-06 6.8426e-06)
(6.4345e-06 6.0188e-06 6.9483e-06)
(8.7901e-06 6.5064e-06 6.6379e-06)
(1.115e-05 6.715e-06 7.0266e-06)
(1.4142e-05 6.7966e-06 8.0627e-06)
(1.8523e-05 6.5415e-06 1.0526e-05)
(2.6013e-05 5.6958e-06 1.44e-05)
(3.8445e-05 4.55e-06 1.8807e-05)
(5.5244e-05 3.3365e-06 2.3608e-05)
(7.678e-05 1.8555e-06 2.958e-05)
(0.00010702 -1.0504e-06 4.1184e-05)
(0.00015251 -5.4702e-06 5.944e-05)
(0.00021963 -1.0512e-05 8.168e-05)
(0.00031007 -1.5979e-05 0.00010751)
(0.00043133 -2.5856e-05 0.00014963)
(0.00060947 -4.3619e-05 0.00022325)
(0.00088382 -6.8758e-05 0.00033181)
(0.0012853 -9.6801e-05 0.0004638)
(0.0018233 -0.00012875 0.00061779)
(0.0025295 -0.0001821 0.00085637)
(0.0035489 -0.00028717 0.0013028)
(0.0051734 -0.00046047 0.0020497)
(0.0077273 -0.00067668 0.0030612)
(0.011425 -0.00091052 0.004272)
(0.01643 -0.0012245 0.0058144)
(0.023259 -0.0017629 0.0082136)
(0.033189 -0.0026171 0.01204)
(0.048051 -0.0036827 0.01729)
(0.069218 -0.0046101 0.0228)
(0.096084 -0.004936 0.026248)
(0.12501 -0.0044032 0.025102)
(0.15006 -0.0030536 0.018222)
(0.16495 -0.0011972 0.0073329)
(-5.3775e-06 1.361e-07 -1.9375e-09)
(-5.4174e-06 4.1295e-07 6.5864e-08)
(-5.5386e-06 6.8709e-07 2.5955e-07)
(-5.7438e-06 9.8532e-07 5.5114e-07)
(-5.7104e-06 1.2901e-06 1.1116e-06)
(-5.5819e-06 1.5949e-06 1.4362e-06)
(-5.5445e-06 1.9189e-06 1.5951e-06)
(-5.5559e-06 2.345e-06 1.9567e-06)
(-5.7626e-06 2.7318e-06 2.1577e-06)
(-6.044e-06 3.1133e-06 2.4802e-06)
(-6.1798e-06 3.4732e-06 3.2737e-06)
(-5.8902e-06 3.8144e-06 4.2789e-06)
(-4.6489e-06 4.1832e-06 5.6021e-06)
(-2.4546e-06 4.5671e-06 6.8765e-06)
(4.0065e-07 4.9287e-06 7.6215e-06)
(3.4963e-06 5.2593e-06 7.904e-06)
(6.5178e-06 5.5113e-06 7.8019e-06)
(8.8814e-06 5.7698e-06 7.2223e-06)
(1.1078e-05 5.8225e-06 7.1144e-06)
(1.3755e-05 5.9422e-06 8.1181e-06)
(1.7777e-05 6.0767e-06 1.1244e-05)
(2.5105e-05 6.1342e-06 1.6617e-05)
(3.7392e-05 6.0162e-06 2.3046e-05)
(5.3948e-05 6.0623e-06 3.0074e-05)
(7.4623e-05 6.0317e-06 3.805e-05)
(0.00010316 6.0041e-06 5.4434e-05)
(0.0001471 5.9133e-06 8.1468e-05)
(0.00021305 5.8312e-06 0.00011389)
(0.00030086 5.7987e-06 0.00014846)
(0.00041571 5.7859e-06 0.00020573)
(0.00058444 5.8927e-06 0.00031169)
(0.00085009 6.1681e-06 0.00047166)
(0.0012452 6.5141e-06 0.00066275)
(0.0017696 6.7765e-06 0.00086985)
(0.0024369 6.8566e-06 0.0011836)
(0.0033857 6.9232e-06 0.0018045)
(0.0049273 6.8561e-06 0.0028923)
(0.0074087 6.8603e-06 0.0043666)
(0.011033 6.8591e-06 0.0060701)
(0.015885 6.6996e-06 0.008171)
(0.022403 6.3368e-06 0.011511)
(0.031913 5.8913e-06 0.017043)
(0.046482 5.5033e-06 0.024859)
(0.067836 4.9744e-06 0.033194)
(0.095626 4.1419e-06 0.038449)
(0.12608 3.1286e-06 0.036857)
(0.15275 1.987e-06 0.026832)
(0.16873 6.9417e-07 0.010842)
(-4.4076e-06 2.0953e-07 1.3389e-07)
(-4.4475e-06 5.6992e-07 4.0226e-07)
(-4.5407e-06 9.9821e-07 6.1227e-07)
(-4.6897e-06 1.3295e-06 8.577e-07)
(-4.6534e-06 1.5735e-06 1.0165e-06)
(-4.5472e-06 2.0864e-06 1.2825e-06)
(-4.4529e-06 2.7857e-06 1.501e-06)
(-4.3843e-06 3.2857e-06 1.6767e-06)
(-4.5308e-06 3.9611e-06 1.899e-06)
(-4.6838e-06 4.5127e-06 2.1016e-06)
(-4.7037e-06 4.62e-06 2.2374e-06)
(-4.3222e-06 4.6065e-06 2.4013e-06)
(-3.1077e-06 4.3971e-06 2.5082e-06)
(-1.1073e-06 4.2359e-06 2.6577e-06)
(1.5817e-06 4.3759e-06 2.851e-06)
(4.5356e-06 4.7441e-06 3.0772e-06)
(7.2862e-06 5.4797e-06 3.3848e-06)
(9.5204e-06 6.2109e-06 3.6624e-06)
(1.1843e-05 6.1811e-06 3.9566e-06)
(1.4665e-05 5.546e-06 4.0943e-06)
(1.8728e-05 3.4076e-06 3.8024e-06)
(2.6044e-05 -4.73e-07 3.0612e-06)
(3.8287e-05 -4.7124e-06 2.17e-06)
(5.5044e-05 -9.8141e-06 1.0597e-06)
(7.6815e-05 -1.5907e-05 -4.3548e-07)
(0.00010706 -2.7804e-05 -3.4362e-06)
(0.00015235 -4.6407e-05 -7.9367e-06)
(0.00021924 -6.9001e-05 -1.2962e-05)
(0.0003096 -9.5131e-05 -1.8383e-05)
(0.00043097 -0.00013744 -2.8407e-05)
(0.00060938 -0.0002112 -4.6564e-05)
(0.00088411 -0.00031987 -7.2457e-05)
(0.001286 -0.00045178 -0.00010138)
(0.0018242 -0.00060516 -0.00013354)
(0.0025303 -0.00084311 -0.00018676)
(0.0035491 -0.0012888 -0.00029172)
(0.0051735 -0.0020355 -0.00046426)
(0.0077274 -0.0030463 -0.00068062)
(0.011425 -0.0042567 -0.00091442)
(0.01643 -0.0057989 -0.0012283)
(0.023258 -0.0081983 -0.0017666)
(0.033187 -0.012025 -0.0026205)
(0.048048 -0.017276 -0.0036859)
(0.069215 -0.022789 -0.0046127)
(0.09608 -0.026239 -0.0049377)
(0.125 -0.025096 -0.0044039)
(0.15005 -0.018218 -0.0030536)
(0.16495 -0.0073319 -0.0011969)
(-4.8125e-06 1.9016e-07 9.2557e-08)
(-4.8663e-06 5.1067e-07 2.7979e-07)
(-4.9645e-06 9.4956e-07 4.7008e-07)
(-5.0904e-06 1.2687e-06 6.6539e-07)
(-5.1049e-06 1.5403e-06 8.6657e-07)
(-5.0617e-06 2.0895e-06 1.0768e-06)
(-4.9545e-06 2.7139e-06 1.2753e-06)
(-4.8905e-06 3.2104e-06 1.4805e-06)
(-5.0411e-06 3.8296e-06 1.7002e-06)
(-5.0976e-06 4.3321e-06 1.9319e-06)
(-5.0356e-06 4.4747e-06 2.1648e-06)
(-4.6326e-06 4.5517e-06 2.4074e-06)
(-3.3923e-06 4.5379e-06 2.666e-06)
(-1.3998e-06 4.5172e-06 2.8806e-06)
(1.2205e-06 4.674e-06 3.0128e-06)
(4.0854e-06 5.0666e-06 3.1593e-06)
(6.8023e-06 5.5826e-06 3.3349e-06)
(9.1412e-06 6.1515e-06 3.4339e-06)
(1.1637e-05 6.0109e-06 3.6432e-06)
(1.4782e-05 5.417e-06 3.8899e-06)
(1.9341e-05 3.66e-06 3.9636e-06)
(2.6939e-05 5.7828e-07 4.0286e-06)
(3.9333e-05 -2.8077e-06 4.0373e-06)
(5.6377e-05 -6.7258e-06 4.014e-06)
(7.907e-05 -1.1767e-05 3.9733e-06)
(0.00011098 -2.0828e-05 3.9253e-06)
(0.00015781 -3.4965e-05 3.9107e-06)
(0.00022601 -5.2775e-05 3.921e-06)
(0.0003193 -7.4659e-05 3.9316e-06)
(0.00044719 -0.00010908 3.9051e-06)
(0.00063457 -0.00016668 3.8625e-06)
(0.00091748 -0.00025031 3.7959e-06)
(0.0013267 -0.00035397 3.7146e-06)
(0.0018811 -0.00048068 3.6449e-06)
(0.002628 -0.00067811 3.6758e-06)
(0.003716 -0.0010333 3.8661e-06)
(0.0054179 -0.0016125 4.1053e-06)
(0.0080395 -0.0023994 4.5217e-06)
(0.011818 -0.0033666 4.7414e-06)
(0.016991 -0.0046209 4.6722e-06)
(0.024127 -0.0065317 4.3475e-06)
(0.034432 -0.0094912 3.9426e-06)
(0.04951 -0.013467 3.5971e-06)
(0.070452 -0.017592 3.2705e-06)
(0.096485 -0.020162 2.8352e-06)
(0.12411 -0.019273 2.0969e-06)
(0.14774 -0.013995 1.189e-06)
(0.1616 -0.0056417 4.038e-07)
(-4.978e-06 2.0098e-07 8.3755e-08)
(-5.0399e-06 5.5298e-07 2.6698e-07)
(-5.1386e-06 9.9361e-07 4.3925e-07)
(-5.2453e-06 1.3376e-06 6.4162e-07)
(-5.287e-06 1.6352e-06 8.7415e-07)
(-5.2894e-06 2.1356e-06 1.0647e-06)
(-5.1797e-06 2.7099e-06 1.2546e-06)
(-5.1159e-06 3.1826e-06 1.4816e-06)
(-5.2702e-06 3.7568e-06 1.6904e-06)
(-5.2809e-06 4.2395e-06 1.9322e-06)
(-5.1724e-06 4.4911e-06 2.2502e-06)
(-4.7479e-06 4.6663e-06 2.5742e-06)
(-3.4928e-06 4.7674e-06 2.9255e-06)
(-1.504e-06 4.8692e-06 3.2376e-06)
(1.0816e-06 5.121e-06 3.4521e-06)
(3.9135e-06 5.5224e-06 3.6212e-06)
(6.6236e-06 6.0064e-06 3.7259e-06)
(9.0425e-06 6.5188e-06 3.7705e-06)
(1.1667e-05 6.4268e-06 3.9879e-06)
(1.5014e-05 5.9422e-06 4.3265e-06)
(1.9877e-05 4.5816e-06 4.7737e-06)
(2.7701e-05 2.2238e-06 5.4551e-06)
(4.0222e-05 -6.8843e-07 6.1983e-06)
(5.7492e-05 -3.7326e-06 6.9072e-06)
(8.0815e-05 -8.0586e-06 7.9811e-06)
(0.00011378 -1.5352e-05 9.7957e-06)
(0.00016167 -2.6679e-05 1.2629e-05)
(0.00023088 -4.1133e-05 1.6189e-05)
(0.00032624 -5.9381e-05 2.0725e-05)
(0.00045834 -8.7804e-05 2.7857e-05)
(0.00065151 -0.0001345 3.9926e-05)
(0.00094005 -0.00020165 5.7206e-05)
(0.0013549 -0.00028548 7.8377e-05)
(0.0019212 -0.00039037 0.00010447)
(0.0026956 -0.00055442 0.00014544)
(0.0038289 -0.00084431 0.00021872)
(0.0055824 -0.00131 0.00033648)
(0.0082525 -0.001942 0.00049415)
(0.012091 -0.0027261 0.00068596)
(0.017378 -0.0037549 0.00093847)
(0.024716 -0.005312 0.0013257)
(0.035261 -0.0076822 0.0019137)
(0.050474 -0.010811 0.002676)
(0.071245 -0.014 0.0034302)
(0.096681 -0.015921 0.0038558)
(0.12338 -0.015129 0.0036294)
(0.14606 -0.010937 0.0026088)
(0.15931 -0.0043855 0.0010465)
(-5.1441e-06 2.0468e-07 7.8735e-08)
(-5.2114e-06 5.752e-07 2.6613e-07)
(-5.3128e-06 1.0078e-06 4.2288e-07)
(-5.4138e-06 1.3693e-06 6.375e-07)
(-5.4718e-06 1.6936e-06 8.9666e-07)
(-5.4989e-06 2.1649e-06 1.0733e-06)
(-5.3943e-06 2.695e-06 1.2363e-06)
(-5.3359e-06 3.1591e-06 1.4699e-06)
(-5.4939e-06 3.7033e-06 1.667e-06)
(-5.4864e-06 4.1816e-06 1.9286e-06)
(-5.3569e-06 4.5181e-06 2.3014e-06)
(-4.9188e-06 4.784e-06 2.7208e-06)
(-3.6527e-06 4.9948e-06 3.1682e-06)
(-1.6644e-06 5.2013e-06 3.577e-06)
(9.0894e-07 5.5234e-06 3.8728e-06)
(3.7372e-06 5.9294e-06 4.0963e-06)
(6.458e-06 6.3921e-06 4.1956e-06)
(8.9359e-06 6.8631e-06 4.2184e-06)
(1.1642e-05 6.8575e-06 4.5e-06)
(1.5099e-05 6.5462e-06 4.9551e-06)
(2.0118e-05 5.5878e-06 5.7501e-06)
(2.8092e-05 3.8875e-06 6.9629e-06)
(4.0683e-05 1.5908e-06 8.4229e-06)
(5.8053e-05 -6.6987e-07 9.8844e-06)
(8.1688e-05 -4.0541e-06 1.2166e-05)
(0.00011517 -9.575e-06 1.5924e-05)
(0.00016362 -1.8107e-05 2.163e-05)
(0.00023339 -2.9036e-05 2.8806e-05)
(0.0003298 -4.303e-05 3.798e-05)
(0.00046396 -6.4737e-05 5.2354e-05)
(0.00065991 -0.00010024 7.6272e-05)
(0.00095123 -0.000151 0.00011064)
(0.0013691 -0.00021438 0.00015343)
(0.0019416 -0.00029422 0.00020702)
(0.0027299 -0.00041925 0.00029067)
(0.0038853 -0.00063884 0.0004378)
(0.0056644 -0.00098961 0.00067289)
(0.0083591 -0.0014647 0.00099018)
(0.012228 -0.0020551 0.0013823)
(0.017573 -0.0028343 0.0019)
(0.02501 -0.0040111 0.0026845)
(0.035672 -0.0057859 0.0038665)
(0.050946 -0.0081015 0.0054008)
(0.071628 -0.01043 0.0069302)
(0.096768 -0.011794 0.0078098)
(0.12301 -0.011161 0.0073697)
(0.14523 -0.008046 0.0053033)
(0.15818 -0.0032192 0.0021209)
(-5.3152e-06 2.0218e-07 8.0722e-08)
(-5.3841e-06 5.8012e-07 2.8425e-07)
(-5.4881e-06 9.9643e-07 4.3189e-07)
(-5.593e-06 1.371e-06 6.6072e-07)
(-5.6563e-06 1.7194e-06 9.3912e-07)
(-5.6917e-06 2.1767e-06 1.0883e-06)
(-5.5969e-06 2.678e-06 1.2164e-06)
(-5.5475e-06 3.1382e-06 1.4398e-06)
(-5.7145e-06 3.6658e-06 1.6144e-06)
(-5.7155e-06 4.1534e-06 1.8876e-06)
(-5.5908e-06 4.5515e-06 2.3325e-06)
(-5.151e-06 4.9069e-06 2.8546e-06)
(-3.8748e-06 5.2161e-06 3.4139e-06)
(-1.8738e-06 5.5176e-06 3.9219e-06)
(7.0745e-07 5.8949e-06 4.2809e-06)
(3.5562e-06 6.3171e-06 4.5507e-06)
(6.3068e-06 6.755e-06 4.6392e-06)
(8.8116e-06 7.1855e-06 4.633e-06)
(1.1541e-05 7.2598e-06 5.0063e-06)
(1.502e-05 7.1386e-06 5.6191e-06)
(2.0072e-05 6.5798e-06 6.8031e-06)
(2.8098e-05 5.4943e-06 8.5405e-06)
(4.0713e-05 3.9361e-06 1.0729e-05)
(5.8063e-05 2.4116e-06 1.2882e-05)
(8.1674e-05 1.0283e-07 1.6292e-05)
(0.00011516 -3.6469e-06 2.1946e-05)
(0.00016365 -9.4171e-06 3.0493e-05)
(0.00023346 -1.6763e-05 4.1238e-05)
(0.00032988 -2.6163e-05 5.4913e-05)
(0.00046401 -4.0724e-05 7.6313e-05)
(0.0006599 -6.4696e-05 0.00011168)
(0.00095114 -9.8928e-05 0.0001626)
(0.0013689 -0.00014136 0.00022643)
(0.0019415 -0.00019442 0.00030692)
(0.0027298 -0.00027761 0.00043248)
(0.0038853 -0.00042449 0.00065232)
(0.0056644 -0.00065956 0.0010029)
(0.0083592 -0.00097685 0.0014777)
(0.012228 -0.001369 0.0020679)
(0.017573 -0.0018869 0.0028468)
(0.02501 -0.0026717 0.0040234)
(0.035672 -0.0038544 0.0057978)
(0.050946 -0.0053897 0.0081125)
(0.071629 -0.0069205 0.010439)
(0.096768 -0.007802 0.011802)
(0.12301 -0.007364 0.011166)
(0.14524 -0.0052999 0.0080495)
(0.15818 -0.0021198 0.0032203)
(-5.4883e-06 1.9142e-07 8.3265e-08)
(-5.5552e-06 5.6282e-07 3.0303e-07)
(-5.6631e-06 9.5473e-07 4.4035e-07)
(-5.783e-06 1.3388e-06 6.8598e-07)
(-5.8419e-06 1.7188e-06 9.8937e-07)
(-5.8697e-06 2.177e-06 1.1045e-06)
(-5.7883e-06 2.6597e-06 1.1893e-06)
(-5.7517e-06 3.1441e-06 1.3969e-06)
(-5.9329e-06 3.6653e-06 1.5418e-06)
(-5.9677e-06 4.1699e-06 1.8121e-06)
(-5.8731e-06 4.6086e-06 2.3484e-06)
(-5.4426e-06 5.0367e-06 2.9696e-06)
(-4.1562e-06 5.4379e-06 3.6402e-06)
(-2.1282e-06 5.8339e-06 4.2466e-06)
(4.8036e-07 6.2661e-06 4.6655e-06)
(3.3716e-06 6.7219e-06 4.9553e-06)
(6.1727e-06 7.1427e-06 5.0388e-06)
(8.6743e-06 7.5351e-06 4.9841e-06)
(1.1361e-05 7.6525e-06 5.4541e-06)
(1.4764e-05 7.6889e-06 6.244e-06)
(1.9735e-05 7.4973e-06 7.8502e-06)
(2.7708e-05 6.9999e-06 1.0147e-05)
(4.0306e-05 6.2325e-06 1.306e-05)
(5.7534e-05 5.464e-06 1.5887e-05)
(8.0786e-05 4.3135e-06 2.0242e-05)
(0.00011376 2.3846e-06 2.7721e-05)
(0.00016177 -5.7641e-07 3.908e-05)
(0.00023109 -4.2955e-06 5.3319e-05)
(0.00032647 -8.9787e-06 7.1186e-05)
(0.00045849 -1.6187e-05 9.9237e-05)
(0.00065149 -2.8215e-05 0.00014575)
(0.0009398 -4.5287e-05 0.00021299)
(0.0013545 -6.612e-05 0.00029729)
(0.0019207 -9.1843e-05 0.00040296)
(0.0026953 -0.00013247 0.00056763)
(0.0038288 -0.00020547 0.00085776)
(0.0055825 -0.00032303 0.0013232)
(0.0082526 -0.00048042 0.001955)
(0.012091 -0.00067208 0.0027388)
(0.017378 -0.00092476 0.0037675)
(0.024716 -0.0013125 0.0053244)
(0.035262 -0.0019013 0.0076943)
(0.050475 -0.0026648 0.010822)
(0.071246 -0.0034204 0.01401)
(0.096682 -0.0038479 0.015929)
(0.12338 -0.0036236 0.015134)
(0.14607 -0.0026054 0.010941)
(0.15931 -0.0010454 0.0043865)
(-5.6569e-06 1.8294e-07 8.8693e-08)
(-5.7196e-06 5.537e-07 3.2939e-07)
(-5.8353e-06 9.2514e-07 4.5996e-07)
(-5.9865e-06 1.3223e-06 7.2513e-07)
(-6.0328e-06 1.7364e-06 1.0547e-06)
(-6.0333e-06 2.1635e-06 1.1265e-06)
(-5.9741e-06 2.6323e-06 1.1633e-06)
(-5.9544e-06 3.1723e-06 1.3635e-06)
(-6.1462e-06 3.6971e-06 1.4589e-06)
(-6.2399e-06 4.2226e-06 1.7072e-06)
(-6.1975e-06 4.7243e-06 2.3512e-06)
(-5.7867e-06 5.2034e-06 3.052e-06)
(-4.4964e-06 5.7227e-06 3.8461e-06)
(-2.4294e-06 6.2385e-06 4.558e-06)
(2.2894e-07 6.72e-06 5.0427e-06)
(3.1817e-06 7.1868e-06 5.318e-06)
(6.0548e-06 7.5565e-06 5.4324e-06)
(8.5347e-06 7.9095e-06 5.2902e-06)
(1.1118e-05 8.0614e-06 5.8318e-06)
(1.4348e-05 8.2267e-06 6.7734e-06)
(1.9109e-05 8.362e-06 8.7795e-06)
(2.6915e-05 8.432e-06 1.1683e-05)
(3.9452e-05 8.2731e-06 1.5197e-05)
(5.6485e-05 8.3539e-06 1.8763e-05)
(7.9049e-05 8.3642e-06 2.3843e-05)
(0.00011097 8.373e-06 3.3072e-05)
(0.00015797 8.341e-06 4.7242e-05)
(0.00022635 8.2538e-06 6.4812e-05)
(0.00031968 8.1481e-06 8.6268e-05)
(0.00044742 8.1001e-06 0.0001203)
(0.00063451 8.2473e-06 0.0001777)
(0.00091706 8.6968e-06 0.00026146)
(0.0013259 9.3203e-06 0.00036565)
(0.0018803 9.7585e-06 0.00049317)
(0.0026275 9.9827e-06 0.0006912)
(0.0037159 1.0036e-05 0.0010467)
(0.0054179 9.8207e-06 0.0016256)
(0.0080395 9.6132e-06 0.0024126)
(0.011819 9.4637e-06 0.0033798)
(0.016991 9.176e-06 0.0046341)
(0.024128 8.7375e-06 0.0065447)
(0.034433 8.2138e-06 0.0095036)
(0.049512 7.5832e-06 0.013479)
(0.070454 6.7541e-06 0.017602)
(0.096488 5.5516e-06 0.02017)
(0.12411 4.137e-06 0.019278)
(0.14775 2.6353e-06 0.013998)
(0.1616 9.0683e-07 0.0056425)
(-5.5857e-06 1.4152e-07 6.4711e-08)
(-5.6377e-06 4.2731e-07 2.5985e-07)
(-5.7572e-06 7.9183e-07 3.9423e-07)
(-5.945e-06 1.1322e-06 6.5097e-07)
(-5.9502e-06 1.5973e-06 1.0119e-06)
(-5.9031e-06 2.0076e-06 1.1017e-06)
(-5.8921e-06 2.4692e-06 1.0366e-06)
(-5.8899e-06 3.0554e-06 1.2437e-06)
(-6.0832e-06 3.5738e-06 1.2967e-06)
(-6.2789e-06 4.127e-06 1.5058e-06)
(-6.3099e-06 4.7729e-06 2.157e-06)
(-5.9335e-06 5.3939e-06 2.9378e-06)
(-4.6644e-06 6.0373e-06 3.9482e-06)
(-2.5339e-06 6.6693e-06 4.8727e-06)
(2.2015e-07 7.1714e-06 5.4333e-06)
(3.2571e-06 7.576e-06 5.6271e-06)
(6.2195e-06 7.8375e-06 5.626e-06)
(8.6603e-06 8.0378e-06 5.2806e-06)
(1.108e-05 8.0839e-06 5.569e-06)
(1.405e-05 8.3156e-06 6.5719e-06)
(1.8462e-05 8.8273e-06 9.0528e-06)
(2.6071e-05 9.783e-06 1.2908e-05)
(3.8465e-05 1.0848e-05 1.7412e-05)
(5.5171e-05 1.2057e-05 2.22e-05)
(7.6745e-05 1.346e-05 2.8124e-05)
(0.00010701 1.6317e-05 3.9679e-05)
(0.00015254 2.0696e-05 5.798e-05)
(0.00021969 2.5745e-05 8.0433e-05)
(0.00031012 3.1248e-05 0.00010655)
(0.00043129 4.1325e-05 0.00014897)
(0.00060923 5.9625e-05 0.00022291)
(0.00088338 8.5755e-05 0.00033176)
(0.0012849 0.00011491 0.00046386)
(0.0018231 0.00014725 0.00061739)
(0.0025295 0.00020073 0.00085558)
(0.003549 0.00030581 0.001302)
(0.0051736 0.00047914 0.0020489)
(0.0077274 0.00069525 0.0030607)
(0.011426 0.00092893 0.0042716)
(0.01643 0.0012423 0.0058139)
(0.023259 0.0017798 0.008213)
(0.033189 0.0026329 0.012039)
(0.048051 0.0036973 0.017289)
(0.069218 0.0046229 0.0228)
(0.096084 0.0049466 0.026248)
(0.12501 0.0044109 0.025102)
(0.15006 0.0030583 0.018222)
(0.16495 0.0011988 0.0073327)
(-4.4244e-06 2.1033e-07 1.3228e-07)
(-4.4757e-06 5.8207e-07 3.7841e-07)
(-4.5707e-06 1.0153e-06 5.9983e-07)
(-4.7036e-06 1.37e-06 8.0893e-07)
(-4.6981e-06 1.6343e-06 9.3046e-07)
(-4.6352e-06 2.1587e-06 1.1573e-06)
(-4.5391e-06 2.793e-06 1.4242e-06)
(-4.4692e-06 3.2634e-06 1.5968e-06)
(-4.6155e-06 3.8814e-06 1.8511e-06)
(-4.7103e-06 4.3924e-06 2.0585e-06)
(-4.6752e-06 4.5428e-06 2.1387e-06)
(-4.2801e-06 4.6409e-06 2.2032e-06)
(-3.0474e-06 4.6282e-06 2.1795e-06)
(-1.0565e-06 4.6253e-06 2.2225e-06)
(1.5775e-06 4.803e-06 2.3394e-06)
(4.4777e-06 5.1807e-06 2.4703e-06)
(7.1973e-06 5.7759e-06 2.7407e-06)
(9.5284e-06 6.3754e-06 3.0004e-06)
(1.1982e-05 6.3349e-06 3.0923e-06)
(1.4976e-05 5.8779e-06 2.9805e-06)
(1.9347e-05 4.1539e-06 2.3903e-06)
(2.6833e-05 9.9678e-07 1.1775e-06)
(3.9186e-05 -2.4585e-06 -2.4651e-07)
(5.6134e-05 -6.5442e-06 -1.8958e-06)
(7.8487e-05 -1.1697e-05 -4.1292e-06)
(0.00010982 -2.1238e-05 -8.4261e-06)
(0.00015614 -3.6067e-05 -1.4982e-05)
(0.00022386 -5.4425e-05 -2.2852e-05)
(0.0003161 -7.6514e-05 -3.2249e-05)
(0.00044164 -0.00011162 -4.7319e-05)
(0.00062588 -0.00017155 -7.3935e-05)
(0.00090616 -0.00025886 -0.00011254)
(0.0013131 -0.00036582 -0.00015869)
(0.001862 -0.00049398 -0.00021242)
(0.0025948 -0.00069378 -0.00029621)
(0.0036593 -0.0010594 -0.00045277)
(0.005336 -0.0016614 -0.00071194)
(0.007937 -0.0024754 -0.0010571)
(0.011689 -0.0034617 -0.001463)
(0.016802 -0.0047353 -0.0019894)
(0.023835 -0.0067001 -0.0028194)
(0.034022 -0.0097765 -0.0041191)
(0.049043 -0.013927 -0.0058351)
(0.070058 -0.018214 -0.0075308)
(0.096315 -0.020824 -0.008449)
(0.12427 -0.01982 -0.0078986)
(0.14831 -0.014344 -0.005651)
(0.16255 -0.0057565 -0.0022526)
(-4.867e-06 2.0085e-07 1.0065e-07)
(-4.9274e-06 5.5325e-07 2.8913e-07)
(-5.0235e-06 9.9346e-07 4.9493e-07)
(-5.1264e-06 1.3392e-06 6.8193e-07)
(-5.1628e-06 1.6381e-06 8.5193e-07)
(-5.1632e-06 2.1412e-06 1.0862e-06)
(-5.0525e-06 2.7128e-06 1.3117e-06)
(-4.984e-06 3.183e-06 1.5164e-06)
(-5.1344e-06 3.754e-06 1.7554e-06)
(-5.1429e-06 4.2351e-06 1.971e-06)
(-5.0334e-06 4.4846e-06 2.1151e-06)
(-4.6083e-06 4.6609e-06 2.2553e-06)
(-3.3583e-06 4.7728e-06 2.3694e-06)
(-1.3893e-06 4.8847e-06 2.4907e-06)
(1.1811e-06 5.1068e-06 2.6051e-06)
(4.0081e-06 5.5044e-06 2.7634e-06)
(6.7028e-06 5.9928e-06 2.9615e-06)
(9.1303e-06 6.4811e-06 3.1316e-06)
(1.1767e-05 6.4479e-06 3.2576e-06)
(1.5082e-05 6.0387e-06 3.2592e-06)
(1.9921e-05 4.664e-06 2.9656e-06)
(2.7726e-05 2.2959e-06 2.4249e-06)
(4.0227e-05 -5.9773e-07 1.7126e-06)
(5.7488e-05 -3.6685e-06 1.0032e-06)
(8.08e-05 -8.0125e-06 -1.0769e-07)
(0.00011376 -1.532e-05 -1.9887e-06)
(0.00016166 -2.6635e-05 -4.8856e-06)
(0.00023086 -4.1063e-05 -8.5099e-06)
(0.00032621 -5.928e-05 -1.3115e-05)
(0.00045831 -8.7681e-05 -2.034e-05)
(0.00065148 -0.00013437 -3.2498e-05)
(0.00094002 -0.00020152 -4.9879e-05)