/*--------------------------------*- C++ -*----------------------------------*\
| =========                 |                                                 |
| \\      /  F ield         | OpenFOAM: The Open Source CFD Toolbox           |
|  \\    /   O peration     | Version:  4.1                                   |
|   \\  /    A nd           | Web:      www.OpenFOAM.org                      |
|    \\/     M anipulation  |                                                 |
\*---------------------------------------------------------------------------*/
FoamFile
{
    version     2.0;
    format      ascii;
    class       pointVectorField;
    location    "0.0040";
    object      pointDisplacement_Next;
}
// * * * * * * * * * * * * * * * * * * * * * * * * * * * * * * * * * * * * * //

dimensions      [0 1 0 0 0 0 0];

internalField   uniform (0 0 0);

boundaryField
{
    inlet
    {
        type            fixedValue;
        value           nonuniform 0();
    }
    outlet
    {
        type            fixedValue;
        value           nonuniform 0();
    }
    mantle
    {
        type            fixedValue;
        value           nonuniform List<vector> 
416
(
(-5.3934e-05 -2.656e-05 -1.7539e-10)
(-5.3558e-05 -2.1252e-05 2.5962e-10)
(-5.3564e-05 -2.0864e-05 4.1314e-06)
(-5.3957e-05 -2.6031e-05 5.1296e-06)
(-5.357e-05 -1.9726e-05 8.1638e-06)
(-5.398e-05 -2.4553e-05 1.015e-05)
(-5.3555e-05 -1.786e-05 1.195e-05)
(-5.3956e-05 -2.2235e-05 1.4892e-05)
(-5.3544e-05 -1.5251e-05 1.525e-05)
(-5.3932e-05 -1.9019e-05 1.9019e-05)
(-5.3555e-05 -1.1949e-05 1.7859e-05)
(-5.3956e-05 -1.4892e-05 2.2234e-05)
(-5.357e-05 -8.1636e-06 1.9725e-05)
(-5.398e-05 -1.015e-05 2.4552e-05)
(-5.3564e-05 -4.1312e-06 2.0864e-05)
(-5.3956e-05 -5.1294e-06 2.6029e-05)
(-5.3557e-05 -3.1011e-10 2.1251e-05)
(-5.3933e-05 9.624e-11 2.6559e-05)
(-5.2841e-05 -1.6923e-05 -7.1822e-11)
(-5.2837e-05 -1.6653e-05 3.3155e-06)
(-5.2828e-05 -1.5775e-05 6.5449e-06)
(-5.2823e-05 -1.4289e-05 9.5483e-06)
(-5.2819e-05 -1.2167e-05 1.2167e-05)
(-5.2823e-05 -9.5483e-06 1.4289e-05)
(-5.2828e-05 -6.5449e-06 1.5775e-05)
(-5.2837e-05 -3.3155e-06 1.6653e-05)
(-5.2841e-05 7.2448e-11 1.6923e-05)
(-5.1748e-05 -1.3703e-05 -1.2364e-11)
(-5.1744e-05 -1.346e-05 2.6707e-06)
(-5.1738e-05 -1.2737e-05 5.2744e-06)
(-5.1729e-05 -1.1545e-05 7.7231e-06)
(-5.1727e-05 -9.8591e-06 9.8591e-06)
(-5.1729e-05 -7.7231e-06 1.1545e-05)
(-5.1738e-05 -5.2745e-06 1.2737e-05)
(-5.1744e-05 -2.6707e-06 1.3461e-05)
(-5.1748e-05 7.2372e-11 1.3703e-05)
(-5.0283e-05 -1.1199e-05 4.1125e-11)
(-5.0286e-05 -1.096e-05 2.1489e-06)
(-5.0289e-05 -1.0337e-05 4.2702e-06)
(-5.0273e-05 -9.3908e-06 6.2984e-06)
(-5.0265e-05 -8.0613e-06 8.0614e-06)
(-5.0273e-05 -6.2985e-06 9.3912e-06)
(-5.0289e-05 -4.2703e-06 1.0338e-05)
(-5.0285e-05 -2.149e-06 1.0961e-05)
(-5.0282e-05 8.0552e-11 1.1201e-05)
(-4.8495e-05 -9.0321e-06 6.7613e-11)
(-4.8497e-05 -8.8493e-06 1.7379e-06)
(-4.8497e-05 -8.3543e-06 3.4535e-06)
(-4.8485e-05 -7.5869e-06 5.0872e-06)
(-4.8479e-05 -6.5049e-06 6.505e-06)
(-4.8485e-05 -5.0873e-06 7.5875e-06)
(-4.8497e-05 -3.4537e-06 8.3554e-06)
(-4.8496e-05 -1.738e-06 8.8509e-06)
(-4.8495e-05 1.0637e-10 9.0342e-06)
(-4.6501e-05 -7.1325e-06 8.9374e-11)
(-4.6506e-05 -7.0047e-06 1.3846e-06)
(-4.6504e-05 -6.6206e-06 2.7427e-06)
(-4.6497e-05 -6.02e-06 4.031e-06)
(-4.6486e-05 -5.1445e-06 5.1448e-06)
(-4.6497e-05 -4.0311e-06 6.0208e-06)
(-4.6503e-05 -2.7429e-06 6.6221e-06)
(-4.6506e-05 -1.3847e-06 7.0068e-06)
(-4.65e-05 1.4366e-10 7.1351e-06)
(-4.4412e-05 -5.5738e-06 -4.246e-10)
(-4.4412e-05 -5.4728e-06 1.0835e-06)
(-4.4413e-05 -5.1788e-06 2.1452e-06)
(-4.4404e-05 -4.7044e-06 3.1509e-06)
(-4.4401e-05 -4.025e-06 4.0261e-06)
(-4.4404e-05 -3.1509e-06 4.7053e-06)
(-4.4413e-05 -2.1453e-06 5.1804e-06)
(-4.4412e-05 -1.0836e-06 5.4751e-06)
(-4.4411e-05 7.4257e-10 5.5767e-06)
(-4.2242e-05 -4.3382e-06 1.0017e-10)
(-4.2244e-05 -4.2521e-06 8.3429e-07)
(-4.2247e-05 -4.0164e-06 1.6604e-06)
(-4.2238e-05 -3.6542e-06 2.4525e-06)
(-4.2234e-05 -3.1369e-06 3.1373e-06)
(-4.2238e-05 -2.4525e-06 3.6552e-06)
(-4.2247e-05 -1.6605e-06 4.0181e-06)
(-4.2244e-05 -8.3424e-07 4.2544e-06)
(-4.2242e-05 3.016e-10 4.341e-06)
(-3.998e-05 -3.4103e-06 6.7763e-11)
(-3.9974e-05 -3.3446e-06 6.5819e-07)
(-3.9969e-05 -3.1627e-06 1.3087e-06)
(-3.9968e-05 -2.8762e-06 1.9292e-06)
(-3.9971e-05 -2.4667e-06 2.4673e-06)
(-3.9968e-05 -1.929e-06 2.8772e-06)
(-3.9969e-05 -1.3087e-06 3.1644e-06)
(-3.9974e-05 -6.5804e-07 3.3468e-06)
(-3.998e-05 4.016e-10 3.413e-06)
(-3.7621e-05 -2.7245e-06 5.8846e-11)
(-3.7614e-05 -2.6732e-06 5.2805e-07)
(-3.7606e-05 -2.5279e-06 1.0485e-06)
(-3.7608e-05 -2.2986e-06 1.5425e-06)
(-3.7611e-05 -1.9704e-06 1.9711e-06)
(-3.7608e-05 -1.5422e-06 2.2996e-06)
(-3.7606e-05 -1.0483e-06 2.5295e-06)
(-3.7614e-05 -5.2778e-07 2.6753e-06)
(-3.7621e-05 4.7188e-10 2.7269e-06)
(-3.5189e-05 -2.2146e-06 6.9948e-11)
(-3.5183e-05 -2.17e-06 4.2751e-07)
(-3.518e-05 -2.0492e-06 8.4888e-07)
(-3.5179e-05 -1.864e-06 1.2511e-06)
(-3.5182e-05 -1.5994e-06 1.6001e-06)
(-3.5179e-05 -1.2507e-06 1.8651e-06)
(-3.518e-05 -8.4861e-07 2.0508e-06)
(-3.5183e-05 -4.2715e-07 2.172e-06)
(-3.5189e-05 5.2421e-10 2.217e-06)
(-3.2718e-05 -1.7717e-06 4.9321e-11)
(-3.272e-05 -1.73e-06 3.3807e-07)
(-3.2724e-05 -1.6301e-06 6.7357e-07)
(-3.2717e-05 -1.4835e-06 9.9687e-07)
(-3.2714e-05 -1.2778e-06 1.2785e-06)
(-3.2717e-05 -9.9642e-07 1.4847e-06)
(-3.2723e-05 -6.7321e-07 1.6318e-06)
(-3.272e-05 -3.3763e-07 1.732e-06)
(-3.2718e-05 6.1193e-10 1.774e-06)
(-5.3564e-05 4.1315e-06 2.0864e-05)
(-5.3956e-05 5.1297e-06 2.603e-05)
(-5.357e-05 8.1641e-06 1.9726e-05)
(-5.398e-05 1.015e-05 2.4553e-05)
(-5.3555e-05 1.195e-05 1.786e-05)
(-5.3955e-05 1.4893e-05 2.2235e-05)
(-5.3544e-05 1.5251e-05 1.5251e-05)
(-5.3932e-05 1.9019e-05 1.9019e-05)
(-5.3555e-05 1.786e-05 1.195e-05)
(-5.3955e-05 2.2235e-05 1.4892e-05)
(-5.357e-05 1.9726e-05 8.1639e-06)
(-5.398e-05 2.4552e-05 1.015e-05)
(-5.3564e-05 2.0863e-05 4.1314e-06)
(-5.3956e-05 2.6029e-05 5.1297e-06)
(-5.3557e-05 2.125e-05 5.296e-10)
(-5.3933e-05 2.6559e-05 1.2884e-10)
(-5.2837e-05 3.3157e-06 1.6653e-05)
(-5.2828e-05 6.5453e-06 1.5776e-05)
(-5.2822e-05 9.5489e-06 1.429e-05)
(-5.2819e-05 1.2168e-05 1.2168e-05)
(-5.2822e-05 1.429e-05 9.5488e-06)
(-5.2828e-05 1.5775e-05 6.5452e-06)
(-5.2837e-05 1.6652e-05 3.3157e-06)
(-5.2841e-05 1.6922e-05 1.6457e-10)
(-5.1744e-05 2.6709e-06 1.3461e-05)
(-5.1738e-05 5.2749e-06 1.2738e-05)
(-5.1729e-05 7.7237e-06 1.1546e-05)
(-5.1727e-05 9.8598e-06 9.8599e-06)
(-5.1729e-05 1.1546e-05 7.7237e-06)
(-5.1738e-05 1.2737e-05 5.2748e-06)
(-5.1744e-05 1.346e-05 2.6709e-06)
(-5.1748e-05 1.3702e-05 1.9265e-10)
(-5.0285e-05 2.1492e-06 1.0961e-05)
(-5.0289e-05 4.2708e-06 1.0339e-05)
(-5.0273e-05 6.2991e-06 9.3921e-06)
(-5.0264e-05 8.0621e-06 8.0623e-06)
(-5.0273e-05 9.3917e-06 6.2991e-06)
(-5.0289e-05 1.0338e-05 4.2707e-06)
(-5.0286e-05 1.096e-05 2.1492e-06)
(-5.0282e-05 1.1199e-05 2.1598e-10)
(-4.8496e-05 1.7383e-06 8.8514e-06)
(-4.8496e-05 3.4542e-06 8.3562e-06)
(-4.8485e-05 5.088e-06 7.5884e-06)
(-4.8479e-05 6.5058e-06 6.5059e-06)
(-4.8485e-05 7.588e-06 5.088e-06)
(-4.8497e-05 8.3554e-06 3.4541e-06)
(-4.8496e-05 8.8502e-06 1.7382e-06)
(-4.8495e-05 9.0328e-06 2.4087e-10)
(-4.6505e-05 1.3851e-06 7.0072e-06)
(-4.6503e-05 2.7435e-06 6.6228e-06)
(-4.6497e-05 4.0319e-06 6.0217e-06)
(-4.6486e-05 5.1456e-06 5.1457e-06)
(-4.6497e-05 6.0212e-06 4.0318e-06)
(-4.6504e-05 6.6219e-06 2.7433e-06)
(-4.6506e-05 7.0059e-06 1.385e-06)
(-4.65e-05 7.1335e-06 2.4106e-10)
(-4.4412e-05 1.0841e-06 5.4755e-06)
(-4.4413e-05 2.146e-06 5.1811e-06)
(-4.4404e-05 3.1518e-06 4.7061e-06)
(-4.4401e-05 4.0269e-06 4.0262e-06)
(-4.4404e-05 4.7057e-06 3.1516e-06)
(-4.4413e-05 5.1801e-06 2.1457e-06)
(-4.4412e-05 5.4741e-06 1.0838e-06)
(-4.4412e-05 5.5749e-06 7.6279e-10)
(-4.2244e-05 8.3489e-07 4.2547e-06)
(-4.2247e-05 1.6612e-06 4.0186e-06)
(-4.2238e-05 2.4534e-06 3.6559e-06)
(-4.2234e-05 3.138e-06 3.138e-06)
(-4.2238e-05 3.6555e-06 2.4531e-06)
(-4.2247e-05 4.0177e-06 1.6608e-06)
(-4.2244e-05 4.2533e-06 8.3456e-07)
(-4.2242e-05 4.3391e-06 2.1235e-10)
(-3.9974e-05 6.5884e-07 3.347e-06)
(-3.9969e-05 1.3095e-06 3.1647e-06)
(-3.9968e-05 1.93e-06 2.8777e-06)
(-3.9971e-05 2.4679e-06 2.4677e-06)
(-3.9968e-05 2.8774e-06 1.9296e-06)
(-3.9969e-05 3.1639e-06 1.309e-06)
(-3.9974e-05 3.3456e-06 6.5839e-07)
(-3.998e-05 3.4112e-06 1.6425e-10)
(-3.7614e-05 5.2874e-07 2.6754e-06)
(-3.7606e-05 1.0493e-06 2.5296e-06)
(-3.7608e-05 1.5432e-06 2.2999e-06)
(-3.7612e-05 1.9715e-06 1.9713e-06)
(-3.7608e-05 2.2997e-06 1.5427e-06)
(-3.7606e-05 2.5289e-06 1.0486e-06)
(-3.7614e-05 2.6742e-06 5.2817e-07)
(-3.7621e-05 2.7253e-06 1.437e-10)
(-3.5183e-05 4.2824e-07 2.1721e-06)
(-3.518e-05 8.497e-07 2.0508e-06)
(-3.5179e-05 1.2518e-06 1.8651e-06)
(-3.5182e-05 1.6005e-06 1.6001e-06)
(-3.5179e-05 1.8651e-06 1.2512e-06)
(-3.518e-05 2.0502e-06 8.4896e-07)
(-3.5184e-05 2.1709e-06 4.2758e-07)
(-3.5189e-05 2.2154e-06 1.0077e-10)
(-3.272e-05 3.3883e-07 1.732e-06)
(-3.2723e-05 6.7437e-07 1.6316e-06)
(-3.2717e-05 9.9754e-07 1.4846e-06)
(-3.2714e-05 1.2788e-06 1.2784e-06)
(-3.2717e-05 1.4846e-06 9.9683e-07)
(-3.2724e-05 1.6311e-06 6.7354e-07)
(-3.272e-05 1.7308e-06 3.3808e-07)
(-3.2718e-05 1.7724e-06 1.238e-10)
(-5.3564e-05 2.0863e-05 -4.1311e-06)
(-5.3956e-05 2.6029e-05 -5.1294e-06)
(-5.357e-05 1.9725e-05 -8.1634e-06)
(-5.398e-05 2.4552e-05 -1.015e-05)
(-5.3555e-05 1.7859e-05 -1.1949e-05)
(-5.3955e-05 2.2234e-05 -1.4892e-05)
(-5.3544e-05 1.525e-05 -1.525e-05)
(-5.3932e-05 1.9018e-05 -1.9018e-05)
(-5.3555e-05 1.1949e-05 -1.7859e-05)
(-5.3956e-05 1.4892e-05 -2.2234e-05)
(-5.357e-05 8.1635e-06 -1.9725e-05)
(-5.398e-05 1.015e-05 -2.4552e-05)
(-5.3564e-05 4.1311e-06 -2.0863e-05)
(-5.3957e-05 5.1295e-06 -2.603e-05)
(-5.3558e-05 2.1043e-10 -2.1251e-05)
(-5.3934e-05 -1.77e-10 -2.6559e-05)
(-5.2837e-05 1.6652e-05 -3.3153e-06)
(-5.2828e-05 1.5774e-05 -6.5445e-06)
(-5.2823e-05 1.4288e-05 -9.5478e-06)
(-5.2819e-05 1.2166e-05 -1.2166e-05)
(-5.2823e-05 9.5477e-06 -1.4288e-05)
(-5.2829e-05 6.5445e-06 -1.5774e-05)
(-5.2837e-05 3.3153e-06 -1.6652e-05)
(-5.2841e-05 -1.6882e-10 -1.6922e-05)
(-5.1744e-05 1.346e-05 -2.6704e-06)
(-5.1738e-05 1.2736e-05 -5.274e-06)
(-5.1729e-05 1.1544e-05 -7.7224e-06)
(-5.1727e-05 9.8582e-06 -9.8581e-06)
(-5.1729e-05 7.7223e-06 -1.1544e-05)
(-5.1739e-05 5.2739e-06 -1.2735e-05)
(-5.1744e-05 2.6703e-06 -1.3459e-05)
(-5.1748e-05 -1.3706e-10 -1.3701e-05)
(-5.0286e-05 1.096e-05 -2.1486e-06)
(-5.0289e-05 1.0337e-05 -4.2696e-06)
(-5.0273e-05 9.3898e-06 -6.2975e-06)
(-5.0265e-05 8.0602e-06 -8.06e-06)
(-5.0273e-05 6.2974e-06 -9.3894e-06)
(-5.0289e-05 4.2695e-06 -1.0336e-05)
(-5.0286e-05 2.1485e-06 -1.0958e-05)
(-5.0283e-05 -9.5768e-11 -1.1198e-05)
(-4.8497e-05 8.8493e-06 -1.7375e-06)
(-4.8497e-05 8.3537e-06 -3.4529e-06)
(-4.8486e-05 7.5858e-06 -5.0862e-06)
(-4.848e-05 6.5036e-06 -6.5034e-06)
(-4.8486e-05 5.0861e-06 -7.5853e-06)
(-4.8497e-05 3.4527e-06 -8.3526e-06)
(-4.8497e-05 1.7374e-06 -8.8475e-06)
(-4.8496e-05 -6.1531e-11 -9.0305e-06)
(-4.6506e-05 7.0049e-06 -1.3843e-06)
(-4.6504e-05 6.6202e-06 -2.7421e-06)
(-4.6498e-05 6.019e-06 -4.0299e-06)
(-4.6487e-05 5.1432e-06 -5.143e-06)
(-4.6498e-05 4.0298e-06 -6.0183e-06)
(-4.6504e-05 2.7419e-06 -6.6188e-06)
(-4.6506e-05 1.3842e-06 -7.0029e-06)
(-4.6501e-05 -2.1449e-12 -7.1308e-06)
(-4.4412e-05 5.4731e-06 -1.0832e-06)
(-4.4413e-05 5.1784e-06 -2.1445e-06)
(-4.4405e-05 4.7035e-06 -3.1497e-06)
(-4.4401e-05 4.0246e-06 -4.0235e-06)
(-4.4405e-05 3.1497e-06 -4.7027e-06)
(-4.4413e-05 2.1444e-06 -5.1771e-06)
(-4.4412e-05 1.0831e-06 -5.4711e-06)
(-4.4412e-05 -4.448e-10 -5.5722e-06)
(-4.2244e-05 4.2524e-06 -8.3395e-07)
(-4.2248e-05 4.0161e-06 -1.6598e-06)
(-4.2238e-05 3.6534e-06 -2.4514e-06)
(-4.2234e-05 3.1358e-06 -3.1355e-06)
(-4.2239e-05 2.4514e-06 -3.6527e-06)
(-4.2248e-05 1.6597e-06 -4.0148e-06)
(-4.2245e-05 8.3402e-07 -4.2505e-06)
(-4.2243e-05 1.816e-10 -4.3368e-06)
(-3.9975e-05 3.3448e-06 -6.5787e-07)
(-3.9969e-05 3.1624e-06 -1.3081e-06)
(-3.9968e-05 2.8755e-06 -1.928e-06)
(-3.9971e-05 2.4659e-06 -2.4655e-06)
(-3.9969e-05 1.9282e-06 -2.8748e-06)
(-3.997e-05 1.3082e-06 -3.1613e-06)
(-3.9975e-05 6.5806e-07 -3.3433e-06)
(-3.998e-05 2.947e-10 -3.4092e-06)
(-3.7615e-05 2.6735e-06 -5.2774e-07)
(-3.7606e-05 2.5277e-06 -1.0478e-06)
(-3.7608e-05 2.2981e-06 -1.5414e-06)
(-3.7612e-05 1.9698e-06 -1.9694e-06)
(-3.7609e-05 1.5417e-06 -2.2974e-06)
(-3.7606e-05 1.0481e-06 -2.5267e-06)
(-3.7615e-05 5.2806e-07 -2.6722e-06)
(-3.7621e-05 3.7711e-10 -2.7237e-06)
(-3.5184e-05 2.1703e-06 -4.272e-07)
(-3.518e-05 2.0491e-06 -8.4825e-07)
(-3.5179e-05 1.8636e-06 -1.25e-06)
(-3.5182e-05 1.599e-06 -1.5985e-06)
(-3.5179e-05 1.2505e-06 -1.863e-06)
(-3.518e-05 8.4868e-07 -2.0483e-06)
(-3.5184e-05 4.2767e-07 -2.1693e-06)
(-3.5189e-05 4.8748e-10 -2.2142e-06)
(-3.272e-05 1.7303e-06 -3.3772e-07)
(-3.2724e-05 1.6301e-06 -6.7288e-07)
(-3.2718e-05 1.4833e-06 -9.9577e-07)
(-3.2715e-05 1.2775e-06 -1.2769e-06)
(-3.2718e-05 9.9637e-07 -1.4827e-06)
(-3.2724e-05 6.7349e-07 -1.6294e-06)
(-3.272e-05 3.3833e-07 -1.7295e-06)
(-3.2718e-05 5.346e-10 -1.7714e-06)
(-5.3564e-05 -4.1316e-06 -2.0864e-05)
(-5.3957e-05 -5.1299e-06 -2.603e-05)
(-5.357e-05 -8.1641e-06 -1.9726e-05)
(-5.398e-05 -1.0151e-05 -2.4553e-05)
(-5.3555e-05 -1.195e-05 -1.786e-05)
(-5.3956e-05 -1.4893e-05 -2.2236e-05)
(-5.3544e-05 -1.5252e-05 -1.5251e-05)
(-5.3932e-05 -1.902e-05 -1.902e-05)
(-5.3555e-05 -1.7861e-05 -1.195e-05)
(-5.3956e-05 -2.2236e-05 -1.4893e-05)
(-5.357e-05 -1.9727e-05 -8.1643e-06)
(-5.398e-05 -2.4554e-05 -1.0151e-05)
(-5.3565e-05 -2.0865e-05 -4.1317e-06)
(-5.3957e-05 -2.6031e-05 -5.13e-06)
(-5.2837e-05 -3.3157e-06 -1.6652e-05)
(-5.2829e-05 -6.545e-06 -1.5775e-05)
(-5.2823e-05 -9.5485e-06 -1.4289e-05)
(-5.2819e-05 -1.2167e-05 -1.2167e-05)
(-5.2823e-05 -1.429e-05 -9.5486e-06)
(-5.2829e-05 -1.5776e-05 -6.5452e-06)
(-5.2837e-05 -1.6653e-05 -3.3157e-06)
(-5.1744e-05 -2.6706e-06 -1.3459e-05)
(-5.1739e-05 -5.2743e-06 -1.2736e-05)
(-5.1729e-05 -7.7229e-06 -1.1545e-05)
(-5.1727e-05 -9.8588e-06 -9.8587e-06)
(-5.1729e-05 -1.1545e-05 -7.7229e-06)
(-5.1739e-05 -1.2737e-05 -5.2744e-06)
(-5.1744e-05 -1.346e-05 -2.6707e-06)
(-5.0286e-05 -2.1487e-06 -1.0958e-05)
(-5.029e-05 -4.2697e-06 -1.0336e-05)
(-5.0273e-05 -6.2977e-06 -9.3897e-06)
(-5.0265e-05 -8.0605e-06 -8.0603e-06)
(-5.0273e-05 -9.3901e-06 -6.2978e-06)
(-5.0289e-05 -1.0337e-05 -4.2699e-06)
(-5.0286e-05 -1.096e-05 -2.1488e-06)
(-4.8497e-05 -1.7375e-06 -8.8475e-06)
(-4.8497e-05 -3.4528e-06 -8.3526e-06)
(-4.8486e-05 -5.0861e-06 -7.5853e-06)
(-4.848e-05 -6.5036e-06 -6.5035e-06)
(-4.8486e-05 -7.5858e-06 -5.0862e-06)
(-4.8497e-05 -8.3535e-06 -3.453e-06)
(-4.8497e-05 -8.8489e-06 -1.7376e-06)
(-4.6506e-05 -1.3842e-06 -7.0029e-06)
(-4.6504e-05 -2.7418e-06 -6.6187e-06)
(-4.6498e-05 -4.0297e-06 -6.0182e-06)
(-4.6487e-05 -5.143e-06 -5.1429e-06)
(-4.6498e-05 -6.0186e-06 -4.0298e-06)
(-4.6504e-05 -6.6196e-06 -2.742e-06)
(-4.6506e-05 -7.0042e-06 -1.3843e-06)
(-4.4412e-05 -1.083e-06 -5.4711e-06)
(-4.4413e-05 -2.1442e-06 -5.177e-06)
(-4.4405e-05 -3.1494e-06 -4.7026e-06)
(-4.4401e-05 -4.0234e-06 -4.0242e-06)
(-4.4405e-05 -4.703e-06 -3.1496e-06)
(-4.4413e-05 -5.1778e-06 -2.1445e-06)
(-4.4412e-05 -5.4723e-06 -1.0832e-06)
(-4.2245e-05 -8.3366e-07 -4.2505e-06)
(-4.2248e-05 -1.6593e-06 -4.0148e-06)
(-4.2239e-05 -2.451e-06 -3.6527e-06)
(-4.2234e-05 -3.1354e-06 -3.1355e-06)
(-4.2238e-05 -3.6529e-06 -2.4514e-06)
(-4.2248e-05 -4.0154e-06 -1.6597e-06)
(-4.2244e-05 -4.2516e-06 -8.3397e-07)
(-3.9975e-05 -6.5751e-07 -3.3433e-06)
(-3.997e-05 -1.3077e-06 -3.1615e-06)
(-3.9969e-05 -1.9277e-06 -2.875e-06)
(-3.9971e-05 -2.4654e-06 -2.4657e-06)
(-3.9968e-05 -2.875e-06 -1.9282e-06)
(-3.9969e-05 -3.1618e-06 -1.3082e-06)
(-3.9974e-05 -3.3441e-06 -6.5793e-07)
(-3.7615e-05 -5.2734e-07 -2.6723e-06)
(-3.7606e-05 -1.0474e-06 -2.5269e-06)
(-3.7608e-05 -1.5411e-06 -2.2977e-06)
(-3.7612e-05 -1.9693e-06 -1.9697e-06)
(-3.7608e-05 -2.2975e-06 -1.5416e-06)
(-3.7606e-05 -2.5271e-06 -1.048e-06)
(-3.7614e-05 -2.6728e-06 -5.2784e-07)
(-3.5184e-05 -4.2678e-07 -2.1695e-06)
(-3.518e-05 -8.4787e-07 -2.0486e-06)
(-3.5179e-05 -1.2498e-06 -1.8634e-06)
(-3.5182e-05 -1.5984e-06 -1.5988e-06)
(-3.5179e-05 -1.863e-06 -1.2504e-06)
(-3.518e-05 -2.0485e-06 -8.4848e-07)
(-3.5184e-05 -2.1697e-06 -4.2734e-07)
(-3.272e-05 -3.373e-07 -1.7297e-06)
(-3.2724e-05 -6.7254e-07 -1.6298e-06)
(-3.2718e-05 -9.9554e-07 -1.4831e-06)
(-3.2715e-05 -1.2768e-06 -1.2774e-06)
(-3.2718e-05 -1.4827e-06 -9.9615e-07)
(-3.2724e-05 -1.6295e-06 -6.7317e-07)
(-3.272e-05 -1.7297e-06 -3.379e-07)
)
;
    }
    procBoundary2to1
    {
        type            processor;
    }
    procBoundary2to3
    {
        type            processor;
    }
}


// ************************************************************************* //
