/*--------------------------------*- C++ -*----------------------------------*\
| =========                 |                                                 |
| \\      /  F ield         | OpenFOAM: The Open Source CFD Toolbox           |
|  \\    /   O peration     | Version:  4.1                                   |
|   \\  /    A nd           | Web:      www.OpenFOAM.org                      |
|    \\/     M anipulation  |                                                 |
\*---------------------------------------------------------------------------*/
FoamFile
{
    version     2.0;
    format      ascii;
    class       volScalarField;
    location    "0.000380";
    object      k;
}
// * * * * * * * * * * * * * * * * * * * * * * * * * * * * * * * * * * * * * //

dimensions      [0 2 -2 0 0 0 0];

internalField   nonuniform List<scalar> 
3072
(
0.39443877
0.39333783
0.39287421
0.39251404
0.39246906
0.39241654
0.39253749
0.39279078
0.39313274
0.39370926
0.39422986
0.39491887
0.39561842
0.39639578
0.3972328
0.39807951
0.39897602
0.39987141
0.40125996
0.40332622
0.40470116
0.40380788
0.39920235
0.39102882
0.39304894
0.3915071
0.39086188
0.39076681
0.39122193
0.39202344
0.39315726
0.39454342
0.39601978
0.39776438
0.3994053
0.40119873
0.40295156
0.40478436
0.40677177
0.40878404
0.41094347
0.41293131
0.41447355
0.41374909
0.40866779
0.39958308
0.3906734
0.38307036
0.38297892
0.3816052
0.38098036
0.38091335
0.38141504
0.38231507
0.38361013
0.38520744
0.38698685
0.38900225
0.39105055
0.39324975
0.39541258
0.3975749
0.39976245
0.40180364
0.40370735
0.40497995
0.40508194
0.40242669
0.39594977
0.38863197
0.38467052
0.37999196
0.37743787
0.37589922
0.37504421
0.37476525
0.37504943
0.37575747
0.37687657
0.37830754
0.37994942
0.38182868
0.38383167
0.38601046
0.38822679
0.39040149
0.39255033
0.39450931
0.39619324
0.39715871
0.39686055
0.39419742
0.38897159
0.38462189
0.38332749
0.37872993
0.37460085
0.37298947
0.37201471
0.37159683
0.37171437
0.37224762
0.37314651
0.37432084
0.37573136
0.37736241
0.37915993
0.38112291
0.38314963
0.38515932
0.38711552
0.38890722
0.39039965
0.39129534
0.39115374
0.3893205
0.38617722
0.38468177
0.38478186
0.3786741
0.37295076
0.37136984
0.37041088
0.36999423
0.37007563
0.37054593
0.371335
0.37236375
0.37361762
0.37505265
0.37663183
0.37832486
0.38007442
0.38180946
0.38348247
0.38502186
0.38634673
0.38729101
0.3875689
0.38701524
0.38634906
0.38767948
0.38827316
0.37956031
0.37220814
0.37068011
0.36981382
0.36954305
0.36979273
0.37045524
0.37145149
0.37271131
0.37419182
0.37583579
0.37759443
0.37941026
0.38123147
0.38297522
0.38456218
0.38591743
0.38700452
0.38783724
0.3883719
0.38871602
0.38990477
0.3931212
0.39297752
0.38108593
0.37154991
0.37020521
0.3696799
0.36991388
0.37081299
0.37225041
0.37409864
0.37621395
0.37851087
0.38096311
0.38350975
0.38605977
0.38852094
0.39077902
0.39270538
0.39417513
0.3951224
0.39562523
0.39584092
0.39598407
0.39704774
0.39930997
0.39677105
0.38272744
0.39302316
0.39149994
0.39086223
0.39076463
0.39121069
0.3919936
0.39309735
0.39445616
0.39592884
0.39769107
0.39933984
0.40112674
0.4028695
0.40470258
0.40669862
0.40871659
0.41088178
0.41287739
0.41441586
0.41369296
0.40861113
0.39952853
0.39063428
0.38305519
0.38993003
0.38877725
0.38842778
0.38869332
0.38959131
0.39100475
0.39289846
0.39517628
0.39770173
0.40057438
0.40348674
0.40656583
0.40955368
0.41249284
0.41541511
0.41805578
0.42037014
0.42167292
0.4210017
0.41577113
0.40488428
0.39347734
0.38731012
0.37974886
0.37852881
0.37758504
0.37728197
0.37748073
0.37822458
0.37939641
0.38097889
0.38287554
0.38503339
0.38746486
0.39005475
0.39281616
0.39555535
0.39821303
0.40070822
0.40286011
0.4045038
0.40509214
0.40387681
0.39949728
0.39242486
0.38757763
0.38603503
0.37882925
0.37364439
0.37243194
0.37180738
0.37167134
0.37203275
0.3727988
0.37392117
0.37530843
0.37694168
0.37882129
0.38088996
0.38312779
0.38541343
0.38765373
0.38974087
0.39154423
0.3929143
0.3935224
0.39288343
0.39044615
0.38712573
0.38620294
0.38603662
0.37841493
0.37143785
0.37004223
0.36921317
0.36887463
0.36900323
0.36952132
0.37035625
0.3714262
0.3727306
0.37425979
0.37597924
0.37785205
0.37978598
0.38170471
0.38351028
0.38510091
0.38636719
0.38712898
0.38713153
0.38627543
0.38551712
0.38678013
0.3868405
0.37838852
0.37043188
0.36893464
0.36799995
0.3675792
0.36762102
0.368032
0.36874454
0.36970331
0.37089332
0.3722783
0.37382149
0.37548248
0.37720595
0.37892111
0.38054277
0.38198534
0.38319028
0.38406408
0.38449036
0.38465569
0.38548384
0.3881117
0.38819826
0.37868803
0.37043462
0.36890196
0.36795796
0.36755513
0.36762579
0.36806408
0.36881459
0.36983938
0.37108651
0.37250052
0.37403731
0.37564311
0.37727261
0.37887444
0.38037125
0.38168648
0.38280954
0.38369791
0.38425912
0.38481218
0.38644463
0.3901122
0.39043944
0.37956321
0.37230377
0.37080207
0.36990251
0.36956552
0.36973485
0.37032928
0.3713003
0.37257351
0.37407716
0.37576333
0.37757356
0.3794243
0.38126782
0.38301769
0.38458227
0.3858791
0.38690258
0.3876754
0.38815141
0.38845101
0.38961993
0.39287233
0.3928354
0.3810385
0.38294434
0.38160583
0.38099638
0.38092481
0.38141022
0.38228471
0.38354371
0.38509671
0.38685867
0.38889145
0.39095373
0.39315073
0.39530851
0.3974807
0.39968239
0.40172167
0.40361328
0.40487353
0.4049643
0.40230191
0.39582761
0.38853031
0.38460468
0.37996786
0.37844136
0.37753368
0.37725452
0.37746477
0.37821369
0.37938326
0.38096193
0.38285179
0.38500669
0.38744293
0.39003559
0.39279841
0.39554197
0.39820481
0.40069939
0.40284637
0.40448258
0.40506196
0.40384304
0.39945865
0.39239377
0.38755589
0.38602101
0.37882312
0.37157029
0.37054916
0.37005447
0.36999261
0.37039247
0.37120352
0.37239064
0.37386619
0.37561833
0.37764707
0.37989912
0.382348
0.38486593
0.38734007
0.38961287
0.39155804
0.39300824
0.39363671
0.39300275
0.39067169
0.38762449
0.38672927
0.38602522
0.37822751
0.37000664
0.36863071
0.36774284
0.36729286
0.3672898
0.36771266
0.36851455
0.36962246
0.37103428
0.37275951
0.37474982
0.37694851
0.37926322
0.38157237
0.3837052
0.38553416
0.38695039
0.38777566
0.38775348
0.38682158
0.38584102
0.38644551
0.3858247
0.37795126
0.36958654
0.36799336
0.366877
0.36621495
0.36600112
0.36621269
0.3668074
0.36772684
0.36895844
0.37050318
0.37231435
0.37432098
0.3764414
0.37856014
0.38052731
0.3822422
0.38363216
0.38458843
0.38497792
0.38486999
0.38500741
0.38644722
0.38595921
0.37789804
0.36953277
0.36792314
0.36679661
0.36613997
0.36592413
0.36610489
0.3666531
0.36752688
0.36869609
0.37014555
0.37181591
0.3736354
0.3755425
0.3774457
0.3792316
0.3808112
0.38212897
0.38310149
0.38366143
0.38395094
0.38471272
0.38684502
0.38661666
0.3780502
0.37050824
0.36903378
0.36807045
0.36759162
0.36755534
0.36788827
0.36856943
0.36954395
0.37076683
0.37220263
0.37379527
0.37547333
0.37718293
0.37887662
0.38048248
0.38190378
0.38308991
0.38394688
0.38435893
0.38451888
0.38534414
0.3879659
0.38809018
0.37865386
0.37311343
0.37156375
0.37055498
0.37003887
0.37000282
0.37036513
0.37111842
0.37218195
0.37348652
0.37499234
0.37665346
0.37840058
0.38017132
0.38190579
0.38352916
0.38497801
0.38620183
0.38706007
0.38726432
0.38666339
0.38597282
0.38733025
0.38806162
0.37948956
0.37748456
0.37598347
0.37513567
0.37483179
0.37506993
0.37572133
0.37679197
0.3781887
0.37982881
0.38173277
0.38376991
0.38597592
0.38822379
0.39044125
0.39261586
0.3945637
0.39621476
0.39714326
0.39680693
0.39411981
0.38888911
0.38455512
0.3832794
0.37870825
0.37360162
0.37242783
0.37181826
0.37167389
0.37200886
0.37273952
0.37384853
0.37524901
0.37690254
0.37879945
0.38088793
0.38315484
0.38548181
0.38775666
0.38985287
0.39164997
0.3930059
0.39359209
0.39292569
0.39047035
0.38714139
0.38621736
0.38604226
0.37841097
0.36998766
0.36863411
0.36775221
0.36729378
0.3672769
0.36768789
0.36849578
0.36962692
0.37105808
0.37278999
0.37478285
0.37699233
0.37932752
0.381657
0.38380131
0.38563076
0.38703935
0.38785089
0.38781181
0.38686295
0.38587301
0.38647766
0.38584994
0.37795614
0.36953273
0.36788842
0.36667313
0.36586781
0.36549956
0.36558925
0.36611243
0.36701456
0.36829369
0.36996611
0.37197444
0.37421811
0.37659999
0.37898416
0.38117067
0.38302862
0.38449431
0.3854598
0.38578008
0.38551258
0.38533078
0.38625248
0.38543106
0.37776792
0.36945944
0.3677148
0.36638446
0.36546993
0.36499504
0.3649751
0.3653932
0.36621037
0.36742828
0.3690554
0.3710214
0.37320765
0.37551532
0.37781465
0.37993063
0.38175982
0.38324382
0.38428672
0.3847815
0.38480568
0.38496629
0.3861318
0.38539236
0.37773741
0.36969767
0.36810623
0.36694975
0.36623121
0.3659559
0.36610944
0.36667181
0.36759774
0.3688636
0.37045208
0.37229704
0.37430636
0.37638914
0.37845449
0.38038599
0.3820892
0.38348508
0.38445523
0.38486796
0.38478661
0.38492002
0.38633173
0.38585536
0.3778623
0.37156762
0.37018022
0.36928101
0.36884237
0.36885893
0.36927847
0.37008407
0.37120917
0.37260513
0.374226
0.37601528
0.37790648
0.37980928
0.38167449
0.38342282
0.38496429
0.38619152
0.38693705
0.3869366
0.38610208
0.38534714
0.38658018
0.3866598
0.37832262
0.37481057
0.37320515
0.37215265
0.37161481
0.37161078
0.37204373
0.3729174
0.37414949
0.37564508
0.37736257
0.3792313
0.38122225
0.38323845
0.38521844
0.38710188
0.38877895
0.39014201
0.39094862
0.39074624
0.38889349
0.38576441
0.38430343
0.38451904
0.3785823
0.37469693
0.37312409
0.37215012
0.37169315
0.37173209
0.37217353
0.37301718
0.37418918
0.3756277
0.37729303
0.37913065
0.38113834
0.38322447
0.38530037
0.38728852
0.38906636
0.39052976
0.39138413
0.39118382
0.38930216
0.38613447
0.38464668
0.38475462
0.37865325
0.37141301
0.37004995
0.36922903
0.36887437
0.36895363
0.36940989
0.37022695
0.3713269
0.37266965
0.37423024
0.37598067
0.37789344
0.37987961
0.38184409
0.38367339
0.3852672
0.38652124
0.38725406
0.38721086
0.38631547
0.38554214
0.38681917
0.38687494
0.37839003
0.36953077
0.36795778
0.36684545
0.36617546
0.36594755
0.36614804
0.36676182
0.36772745
0.36899961
0.37057143
0.37240476
0.37444271
0.37659903
0.3787498
0.38074099
0.38245982
0.38383295
0.3847572
0.38510442
0.38496073
0.38508597
0.38653638
0.3860274
0.37791082
0.36939993
0.36765795
0.36632453
0.36540359
0.36493207
0.36493181
0.36538293
0.36623644
0.36747984
0.3691256
0.37111596
0.37333501
0.37567092
0.37798851
0.38011266
0.38194095
0.3834153
0.3844383
0.38490739
0.38490634
0.38505239
0.38621201
0.3854453
0.37774891
0.36962102
0.36795328
0.36668759
0.36583329
0.36542732
0.36549149
0.36599392
0.366891
0.36819602
0.36991141
0.3719607
0.37421565
0.37655864
0.37887201
0.38100737
0.38285931
0.38434763
0.38534961
0.38571643
0.38548141
0.38529711
0.38618191
0.38534977
0.37773802
0.37014681
0.36873919
0.36776551
0.3672235
0.36714018
0.36750289
0.36827735
0.369416
0.37091046
0.3727237
0.37477238
0.37697105
0.37921729
0.3814252
0.38348258
0.38528917
0.38671477
0.38757502
0.38760947
0.38672732
0.38574928
0.3862899
0.3856535
0.37788705
0.37378871
0.3725387
0.37180094
0.37153964
0.371789
0.37247608
0.37358677
0.37505246
0.3768198
0.3788208
0.38095629
0.3831843
0.38540349
0.38754775
0.3895373
0.39126305
0.39256889
0.39314881
0.39251105
0.39012741
0.38687325
0.38595844
0.38581436
0.37833051
0.37764917
0.37607773
0.37510305
0.3746944
0.37487874
0.3755249
0.37663143
0.37809817
0.37982302
0.38178134
0.38382242
0.3859836
0.38815737
0.39027536
0.39234881
0.3941979
0.39575196
0.39661822
0.39626776
0.39361472
0.38845193
0.38418386
0.38303385
0.37862307
0.37303547
0.37148478
0.37051838
0.37005983
0.37005909
0.37043422
0.37116624
0.37218431
0.37345105
0.37490798
0.37650853
0.3782221
0.38000231
0.38176935
0.38345191
0.3849815
0.38630392
0.38723456
0.3874754
0.38688963
0.38623341
0.3876295
0.38826624
0.37954669
0.37037474
0.36888634
0.36794781
0.36751567
0.36752359
0.36789161
0.36859514
0.36957255
0.3707807
0.37218799
0.37375507
0.37544199
0.37718966
0.37892018
0.38055386
0.38201055
0.38322242
0.38408859
0.38449316
0.38464572
0.3855024
0.38818996
0.38827603
0.37869926
0.36940452
0.36778307
0.36665018
0.36599856
0.36579579
0.36599461
0.36657916
0.36750414
0.36871114
0.37018153
0.37188928
0.37376883
0.37573097
0.37766336
0.37945849
0.38104504
0.38236087
0.38331612
0.38385096
0.38411857
0.38488133
0.38702437
0.38673686
0.37807323
0.36954883
0.36794493
0.36678717
0.36608013
0.36583328
0.36603098
0.36664149
0.36760703
0.36889878
0.37051509
0.37240728
0.37448087
0.37662131
0.37871292
0.38064343
0.38234888
0.38374592
0.3847055
0.38509746
0.38499268
0.38511075
0.38650826
0.38596476
0.37788648
0.3700511
0.3686435
0.36767624
0.36714505
0.36708533
0.36748027
0.36827777
0.36942372
0.37091983
0.37274276
0.37481213
0.37703724
0.3793062
0.38152615
0.38358828
0.38540223
0.38683544
0.38769449
0.38772163
0.38682516
0.38584019
0.38637591
0.38570981
0.37790118
0.37168523
0.37058953
0.36997404
0.36980315
0.37012739
0.37089851
0.37207488
0.3736048
0.37547982
0.37763032
0.37994588
0.38237121
0.38479108
0.38714156
0.38932604
0.39123346
0.39266943
0.39330959
0.39272498
0.39046451
0.38746816
0.38653791
0.38581926
0.37814703
0.37867858
0.37763985
0.37718124
0.3772349
0.37787201
0.37898918
0.38057166
0.38253965
0.38484358
0.38740005
0.39003022
0.39274047
0.39538556
0.39793361
0.40033796
0.40240438
0.40394965
0.404458
0.40320348
0.39887782
0.39194343
0.38721579
0.38578632
0.37874537
0.38317567
0.38171814
0.3809444
0.38074029
0.38115779
0.38202903
0.38332927
0.3849459
0.38679102
0.38885502
0.39090221
0.39306654
0.39519155
0.39731157
0.3994539
0.40141204
0.40320655
0.40438947
0.40443506
0.40176993
0.39535606
0.38814472
0.38436872
0.37989848
0.37225121
0.37073413
0.36985098
0.36954466
0.36972863
0.37031674
0.37125489
0.37247895
0.37393592
0.37555881
0.37728195
0.37905861
0.3808536
0.38257857
0.38415688
0.38552238
0.38666202
0.38755287
0.38813319
0.38852769
0.38979088
0.39311227
0.39300712
0.38107996
0.3703183
0.36876153
0.36780696
0.36740795
0.36748072
0.36792991
0.36868816
0.36971373
0.37095544
0.37236223
0.37388709
0.37548568
0.37711103
0.37870039
0.38019525
0.38154453
0.38272205
0.38366125
0.38426792
0.38486862
0.38656123
0.39028468
0.39056138
0.37958348
0.37032948
0.36881297
0.36784074
0.36738694
0.36739752
0.36778763
0.36851563
0.36952117
0.37075923
0.37220513
0.37382554
0.37555139
0.37730498
0.37900879
0.3806039
0.38204776
0.38327232
0.38415881
0.38459444
0.38477153
0.38561174
0.38822933
0.38824669
0.37868374
0.37139078
0.36996829
0.36907275
0.36867001
0.3687441
0.36922757
0.37007496
0.37121309
0.37261625
0.37425928
0.37608922
0.37803303
0.37997687
0.38185176
0.38359543
0.38515409
0.38640721
0.38716508
0.38716873
0.38633256
0.38557751
0.38679961
0.38679905
0.37835425
0.3736742
0.37240419
0.37167631
0.37144522
0.37174281
0.37247753
0.37360699
0.37506426
0.37682588
0.37883931
0.38099718
0.38325131
0.3854888
0.38764447
0.38964478
0.39139151
0.3927175
0.39330418
0.39266219
0.39026381
0.38700285
0.38607975
0.38589973
0.37835384
0.37863519
0.37759529
0.37714833
0.37722206
0.37788857
0.37902889
0.38061697
0.38257574
0.38486984
0.38742424
0.39005605
0.39276961
0.39541723
0.39796877
0.40037926
0.40245665
0.40401303
0.40452271
0.40326306
0.39893036
0.39199209
0.38726157
0.38582123
0.37875641
0.39019785
0.3888891
0.38833299
0.38842352
0.3892103
0.39057876
0.39247971
0.39481222
0.397468
0.40042904
0.40335324
0.40638121
0.40930854
0.41217162
0.41503683
0.41759503
0.41978521
0.42095843
0.42013691
0.41490883
0.40416212
0.39297326
0.38705439
0.37969194
0.39328536
0.39163253
0.39082698
0.39059515
0.39098196
0.39177454
0.39292416
0.39433382
0.39586566
0.39762282
0.39924071
0.40101271
0.40275809
0.40457624
0.40654007
0.40848957
0.41057315
0.41251379
0.41398778
0.41323068
0.40816883
0.39916409
0.39041374
0.38299432
0.37150195
0.37014559
0.36960758
0.3698309
0.37070762
0.37211645
0.37392665
0.37599279
0.37823453
0.38062277
0.38308775
0.38554929
0.38793322
0.39013412
0.39204839
0.39358299
0.39464736
0.39527906
0.39561772
0.39586845
0.39703339
0.39938011
0.39683289
0.38273254
0.37212358
0.37058444
0.36968527
0.36937607
0.36958997
0.37023226
0.3712247
0.37248769
0.37397152
0.37563104
0.37740241
0.37920857
0.38099844
0.38270058
0.38426063
0.3856177
0.38673874
0.38761761
0.38819954
0.38859047
0.38981831
0.39309481
0.39296987
0.38106453
0.37291535
0.37132045
0.37031534
0.36984221
0.36987659
0.37031626
0.3711159
0.37219018
0.37349752
0.37501123
0.37667879
0.37842913
0.38019044
0.38189235
0.38349351
0.38496582
0.38625208
0.38717519
0.38744035
0.38689247
0.38623196
0.38757295
0.38820485
0.37952082
0.37464678
0.37300041
0.37195684
0.37146277
0.37152263
0.37202321
0.37293584
0.37417771
0.37568567
0.3774337
0.37933302
0.38134833
0.38336737
0.38532267
0.38718253
0.3888754
0.3902759
0.39110422
0.39091397
0.38906825
0.38595084
0.38447338
0.38463076
0.37861442
0.37755751
0.37595653
0.37499024
0.3746111
0.37483342
0.37551597
0.37664377
0.37812051
0.37986225
0.38185092
0.38392335
0.38610866
0.3882876
0.39039812
0.39246619
0.39433105
0.39590916
0.39678388
0.39642094
0.39375119
0.38857593
0.38429104
0.38310808
0.37864611
0.38313254
0.38166609
0.3809033
0.38071853
0.38115581
0.38204225
0.38335621
0.38498443
0.38684472
0.38892725
0.39098726
0.39315594
0.39527582
0.39738253
0.3995197
0.40148496
0.40329125
0.40447666
0.40451236
0.40183594
0.39541081
0.38820113
0.38440906
0.37991473
0.39324616
0.39160172
0.39080963
0.39059177
0.39098938
0.39178814
0.39294555
0.39436662
0.39591236
0.39768002
0.39930049
0.40106779
0.40280281
0.40460757
0.40656149
0.40850511
0.4105882
0.41252892
0.41399753
0.41324124
0.40818042
0.39917718
0.39042657
0.38299962
0.3945692
0.39340157
0.39284759
0.39241794
0.39236664
0.39235835
0.39253508
0.39283638
0.39320355
0.39374964
0.39422011
0.39488526
0.39556819
0.39631853
0.39710007
0.39785815
0.39869103
0.39957619
0.40100714
0.40304679
0.4044069
0.4035305
0.39899413
0.39095036
0.44550543
0.45226873
0.44690729
0.44194269
0.43812491
0.43555746
0.43257978
0.42899878
0.42499917
0.4208713
0.41672735
0.41256555
0.40848442
0.40444
0.40059842
0.39690458
0.39341613
0.39027217
0.38750279
0.38524275
0.38354241
0.38244088
0.38212463
0.38252438
0.42276397
0.42617449
0.42339182
0.42085491
0.41836794
0.41654387
0.4145625
0.41216879
0.40939384
0.40647525
0.40347498
0.40039546
0.39734687
0.39427622
0.39134253
0.3884705
0.38574381
0.38322883
0.38093883
0.37899896
0.37739541
0.37622722
0.37555494
0.37546584
0.40778334
0.4088711
0.40758148
0.40657437
0.40492255
0.40347486
0.40195847
0.40019878
0.39810817
0.39593808
0.39364257
0.39130162
0.38895989
0.38653677
0.3842068
0.38184985
0.37959385
0.37744665
0.37542793
0.37367323
0.37215977
0.371042
0.37033696
0.37019183
0.39870569
0.39850525
0.39792592
0.39776274
0.3967649
0.39555993
0.39432408
0.39290721
0.39121007
0.38948317
0.38757413
0.38570032
0.38372819
0.38170764
0.37975853
0.37772061
0.37579658
0.3738921
0.37214658
0.37066934
0.36944497
0.36866322
0.36834017
0.36862522
0.3941343
0.39471442
0.39497311
0.39539645
0.39510781
0.39433601
0.39334693
0.39205747
0.39048643
0.38876443
0.38680892
0.38482875
0.38269014
0.38055628
0.37842973
0.37630505
0.37429049
0.37232646
0.37070027
0.36938873
0.36849838
0.36819702
0.36848981
0.36952882
0.39471644
0.39980912
0.40122495
0.40215381
0.40257071
0.4020944
0.40074622
0.39883439
0.39656209
0.39399435
0.39125481
0.38838374
0.38541819
0.38245121
0.37952763
0.37679565
0.37421812
0.371921
0.37012292
0.3688762
0.36836777
0.36868956
0.36987915
0.37203167
0.40002303
0.41433423
0.41603531
0.41543551
0.41491279
0.41289533
0.40988779
0.40657226
0.40298533
0.39904488
0.39491511
0.39065998
0.38634753
0.38218957
0.37833373
0.37490641
0.37205116
0.36981217
0.36826207
0.36759023
0.36792941
0.3693657
0.37195605
0.37570435
0.40570191
0.43102183
0.44134244
0.44275968
0.44184513
0.4381438
0.43323175
0.42799929
0.42209382
0.41548008
0.40837379
0.40099978
0.39363573
0.38663061
0.38029006
0.37484007
0.37047705
0.36729903
0.36546678
0.36512544
0.36632138
0.36904404
0.3732443
0.37884446
0.36951651
0.39085266
0.39925702
0.39877734
0.3971523
0.39606777
0.39555307
0.39526628
0.39500686
0.39460683
0.39406797
0.3933211
0.39236039
0.39121687
0.38986302
0.38838236
0.38672543
0.38499704
0.38326145
0.38155442
0.37998974
0.37858463
0.37748687
0.37678593
0.36928291
0.38638811
0.39498464
0.3956496
0.3946998
0.39392135
0.39346099
0.39313689
0.39281139
0.39235306
0.39175787
0.39096075
0.38995896
0.3887692
0.38737422
0.38583555
0.3841127
0.38230267
0.38046114
0.37864337
0.3769479
0.37541463
0.374179
0.37333667
0.37036795
0.38397098
0.39178777
0.39279179
0.39212879
0.39149596
0.39108038
0.39076941
0.39044924
0.39001724
0.38945925
0.38871592
0.3877905
0.38668507
0.38539246
0.3839504
0.38233729
0.38063517
0.37888926
0.37716559
0.37555384
0.37410524
0.37295181
0.3721834
0.37259522
0.3834522
0.38979496
0.39040497
0.38960481
0.38891297
0.38848456
0.38819791
0.38792114
0.38756877
0.38710035
0.38647754
0.38569594
0.38474339
0.38362864
0.38236052
0.38094362
0.37943895
0.37788477
0.37635324
0.37492376
0.37365882
0.37268107
0.37207763
0.37584784
0.38477845
0.38921997
0.38882553
0.38746841
0.38649137
0.38595559
0.38566612
0.38544457
0.38519568
0.38485148
0.38438364
0.38377043
0.38300215
0.38208508
0.38100761
0.37979851
0.37849104
0.37714204
0.3758111
0.37456646
0.3734824
0.37266817
0.37222006
0.38029791
0.38821237
0.39051389
0.38863008
0.38633463
0.38483884
0.38407561
0.38373131
0.38354761
0.38338435
0.38315904
0.38283237
0.38237376
0.38176494
0.3810035
0.38008241
0.37902296
0.37785334
0.37664112
0.37542832
0.37428883
0.37329721
0.37255146
0.37216908
0.38609921
0.39430473
0.39460902
0.39097314
0.3874937
0.38536748
0.38434178
0.38393384
0.38377348
0.38365634
0.38346897
0.38316089
0.38270129
0.38208375
0.38130728
0.38036694
0.37927258
0.3780395
0.37672907
0.37540074
0.37413041
0.37298945
0.37209514
0.37157555
0.39317146
0.40318799
0.40239388
0.39723061
0.39259151
0.3897473
0.38831301
0.38766094
0.38730771
0.38699308
0.38658288
0.38602865
0.38531655
0.38444605
0.38341173
0.38219855
0.38080396
0.37922985
0.37754519
0.3758431
0.37421683
0.37274312
0.37150843
0.3706326
0.40571154
0.43109023
0.44148434
0.44289861
0.44191965
0.43819268
0.43324967
0.42799876
0.42207842
0.41544383
0.40830909
0.40089895
0.39349592
0.3864592
0.38010204
0.37465469
0.37031493
0.36717139
0.36537682
0.36506926
0.36629051
0.3690318
0.37324279
0.37884903
0.40002404
0.41432945
0.41604311
0.415428
0.41487051
0.41281635
0.4098094
0.40651348
0.40295797
0.39903417
0.39490034
0.39060489
0.38621806
0.38197171
0.37804417
0.37458372
0.37173697
0.36953488
0.36804681
0.36744899
0.36786037
0.36935376
0.37197547
0.37572339
0.39470128
0.39972074
0.40109245
0.40201173
0.40244442
0.40198031
0.40067488
0.39880852
0.39658986
0.39405967
0.39131211
0.38840664
0.38537331
0.38230758
0.37928573
0.37648184
0.37387737
0.37160262
0.3698664
0.36870613
0.36828597
0.36868128
0.36991454
0.37206898
0.39406984
0.39455256
0.394778
0.39519522
0.39491843
0.39416723
0.39322587
0.39199543
0.39049179
0.3888276
0.38687807
0.38488545
0.38271129
0.3804997
0.3782803
0.37607548
0.37401246
0.37204536
0.37046326
0.36922475
0.36841561
0.36818821
0.36853061
0.3695775
0.39861416
0.39831855
0.39770023
0.39752032
0.39652422
0.39534313
0.39414771
0.39278057
0.39114684
0.38947808
0.38759672
0.38573396
0.38376109
0.38169594
0.37967604
0.37756232
0.37558334
0.37365854
0.37193153
0.37049558
0.36933283
0.36862228
0.36835661
0.36866175
0.40770388
0.40867303
0.40730503
0.406271
0.40463035
0.40321611
0.40173477
0.4000137
0.39797673
0.39586079
0.39360541
0.39129669
0.38897995
0.38654916
0.38417884
0.38175592
0.37944055
0.37725885
0.37523137
0.37349032
0.37202188
0.37097137
0.37032901
0.37021714
0.42267739
0.42595481
0.42307033
0.42049794
0.41803056
0.41625176
0.41431296
0.41195497
0.40922928
0.40636975
0.40342312
0.40039696
0.39739812
0.39434928
0.39139802
0.38846916
0.38567716
0.38311383
0.38079343
0.37884506
0.3772696
0.37616125
0.37554923
0.37549518
0.4453858
0.45201487
0.44655183
0.44155274
0.4377598
0.43525087
0.43233592
0.42879858
0.42485575
0.42079939
0.41672292
0.41262957
0.40861434
0.40461051
0.40076892
0.39702828
0.39347354
0.39026347
0.38743725
0.38514586
0.38345495
0.38239469
0.38212181
0.38254251
0.39318251
0.40320674
0.4024117
0.39723885
0.39258778
0.38973617
0.3882973
0.38764269
0.38728675
0.38696722
0.38654805
0.38598076
0.38525209
0.38436323
0.38331483
0.38209862
0.38071462
0.37915893
0.37749282
0.37580726
0.37419481
0.3727319
0.37150462
0.37063408
0.3861009
0.39430394
0.39460383
0.3909604
0.38747367
0.38534303
0.38431569
0.38390728
0.38374625
0.38362462
0.38342352
0.38309175
0.3826006
0.38194602
0.38113841
0.38018691
0.37910571
0.37790221
0.37662427
0.37532666
0.37408481
0.37296724
0.37208831
0.37157681
0.38029908
0.38820252
0.39049267
0.38860238
0.38630455
0.3848094
0.38404883
0.38370769
0.38352729
0.38336242
0.38312466
0.38277261
0.38227758
0.3816239
0.38082296
0.3798834
0.37883146
0.37768728
0.37650632
0.37532585
0.37421944
0.37325731
0.37253197
0.37216077
0.37583255
0.38474332
0.38917265
0.38877599
0.38741971
0.3864452
0.3859137
0.38562926
0.38541541
0.38517084
0.38482088
0.38433484
0.38369244
0.38288389
0.38192784
0.38082699
0.37961642
0.37832384
0.37699745
0.37569396
0.37448084
0.37342731
0.37263598
0.37220118
0.3725886
0.38342607
0.38975116
0.39035064
0.3895455
0.38885421
0.3884289
0.38814808
0.38788082
0.38753563
0.38706802
0.38643773
0.38564147
0.38466331
0.3835181
0.38222475
0.38079707
0.37929521
0.37775087
0.37623584
0.37483072
0.3735937
0.37263904
0.37204989
0.37036458
0.38394699
0.3917418
0.39273207
0.39206313
0.39143187
0.39101928
0.39071355
0.39040286
0.38997991
0.38942954
0.38869154
0.38776967
0.38665928
0.38534947
0.38388316
0.38225108
0.38053962
0.37878935
0.37706835
0.37547046
0.37404396
0.37291115
0.37215586
0.36927802
0.38635855
0.39492847
0.3955791
0.39462648
0.39385393
0.3933993
0.39308251
0.39276809
0.39232422
0.39174681
0.39097155
0.38999449
0.38882111
0.38742334
0.38586399
0.3841155
0.38228277
0.38042074
0.37858994
0.37689582
0.37537608
0.37415548
0.37332206
0.36951015
0.39081727
0.39919151
0.39869588
0.39707045
0.395996
0.39549168
0.39521916
0.3949773
0.39460054
0.39409097
0.39338134
0.39246287
0.39135438
0.39001504
0.38852348
0.38683752
0.38507069
0.38329407
0.38155499
0.37997634
0.37857303
0.37748146
0.37678265
0.44538124
0.45201436
0.44655812
0.44156204
0.43776854
0.43526077
0.43234046
0.4287989
0.4248555
0.42080208
0.41672782
0.41263625
0.40862341
0.40462099
0.40078111
0.39703926
0.39348037
0.39026435
0.38743278
0.38513853
0.38344796
0.38238949
0.382118
0.38253854
0.42266143
0.42594356
0.42307344
0.42050896
0.41803949
0.41625553
0.41430967
0.41194178
0.40921177
0.40635388
0.40340882
0.40038733
0.39739838
0.39436228
0.39142321
0.38849933
0.38570431
0.38313309
0.38080506
0.37885166
0.37727345
0.37616287
0.37554926
0.3754935
0.4076991
0.40867579
0.40731708
0.40628782
0.40464545
0.40322436
0.40173378
0.40000033
0.39795553
0.39583845
0.39358227
0.39128008
0.38897496
0.38656359
0.38420897
0.3817926
0.37947578
0.37728725
0.3752539
0.37350844
0.37203632
0.37098286
0.37034048
0.37023328
0.39863649
0.39835462
0.39773379
0.39755469
0.39655597
0.39536297
0.39414996
0.39276412
0.39111745
0.38944636
0.38756882
0.38572053
0.38376384
0.38172781
0.37972656
0.37761972
0.37564225
0.37371301
0.37197786
0.37052983
0.36935337
0.36863143
0.36836078
0.36867248
0.39408174
0.39460401
0.39484503
0.39525564
0.39495955
0.39417936
0.39320815
0.3919491
0.39043231
0.38876957
0.38683372
0.38486965
0.38273905
0.38057473
0.37838234
0.37618889
0.3741299
0.37215601
0.37055248
0.36928273
0.36843915
0.36818434
0.36851162
0.3695618
0.39467637
0.39973438
0.40114665
0.40205722
0.40245429
0.40194193
0.40059337
0.39870012
0.39646717
0.39392952
0.39120933
0.38835627
0.3853957
0.38239354
0.3794129
0.37663434
0.37404769
0.37176491
0.3699931
0.36878306
0.36831246
0.3686676
0.36987672
0.37202985
0.39999755
0.41427593
0.41596307
0.41533542
0.41476079
0.41267396
0.40962362
0.40628929
0.40270999
0.39878461
0.39469462
0.39046739
0.38616045
0.3819891
0.37811841
0.37469606
0.37187208
0.36966773
0.36815344
0.36751331
0.36788172
0.36933862
0.37193631
0.37567834
0.40569373
0.43097913
0.44125725
0.44260048
0.44158648
0.43782288
0.43284324
0.42755197
0.42161093
0.41500164
0.4079573
0.4006453
0.3933258
0.3863559
0.38005311
0.37465015
0.37033689
0.36720458
0.365411
0.36509812
0.3663118
0.3690397
0.3732375
0.37883424
0.36950897
0.39081409
0.39918735
0.39869148
0.39706876
0.39599536
0.39549163
0.39522211
0.39498693
0.39461726
0.394111
0.39340179
0.392482
0.3913706
0.39002815
0.38853227
0.38684009
0.38506628
0.38328475
0.38154452
0.37996772
0.37856723
0.37747731
0.37677805
0.36927588
0.38635298
0.39492002
0.39556833
0.39461663
0.39384395
0.39339071
0.39307804
0.39277252
0.39233831
0.39176704
0.39099713
0.39002481
0.38885348
0.38745548
0.3858925
0.38413664
0.38229498
0.38042744
0.37859653
0.37690523
0.37538805
0.37416759
0.37333136
0.37036222
0.38394215
0.3917329
0.39271862
0.39204606
0.39141097
0.39099929
0.39070013
0.39040122
0.38999032
0.38944827
0.38872047
0.38781168
0.38671139
0.38540577
0.38393813
0.3823
0.3805813
0.37882807
0.37710794
0.37551101
0.3740833
0.37294676
0.3721855
0.37259029
0.38342946
0.38975077
0.39034168
0.38952467
0.38882146
0.38839117
0.38811528
0.38785981
0.38752802
0.38707338
0.38646124
0.385688
0.38473038
0.38359707
0.38230794
0.3808786
0.37937307
0.37782759
0.37631076
0.37489965
0.37365285
0.37268684
0.37208637
0.3758436
0.38476111
0.38918599
0.3887723
0.38739241
0.38639444
0.38584718
0.38555945
0.3853518
0.38511965
0.38478844
0.38432992
0.38372148
0.38294552
0.38201347
0.38092739
0.37972316
0.3784313
0.37710436
0.3757949
0.37456752
0.37349518
0.37268505
0.37223405
0.38029314
0.38819887
0.39048707
0.38858331
0.38625936
0.38473149
0.38394126
0.38358278
0.38339717
0.38323993
0.38302346
0.38270461
0.3822504
0.38163886
0.38087648
0.37996784
0.37893503
0.37779908
0.37662028
0.37543276
0.37430837
0.37332276
0.37257456
0.37218476
0.38609289
0.39429095
0.39458229
0.39092232
0.38740491
0.38523267
0.38416239
0.38371965
0.38353851
0.3834146
0.38323133
0.38293163
0.38248099
0.38187185
0.38111375
0.38020936
0.3791624
0.37797786
0.37670995
0.37541185
0.37415785
0.37302081
0.37212099
0.37159181
0.39316338
0.4031702
0.40235981
0.39716521
0.39247585
0.38957041
0.3880729
0.387366
0.38697459
0.38664353
0.38623831