/*--------------------------------*- C++ -*----------------------------------*\
| =========                 |                                                 |
| \\      /  F ield         | OpenFOAM: The Open Source CFD Toolbox           |
|  \\    /   O peration     | Version:  4.1                                   |
|   \\  /    A nd           | Web:      www.OpenFOAM.org                      |
|    \\/     M anipulation  |                                                 |
\*---------------------------------------------------------------------------*/
FoamFile
{
    version     2.0;
    format      ascii;
    class       pointVectorField;
    location    "0.000380";
    object      pointDisplacement;
}
// * * * * * * * * * * * * * * * * * * * * * * * * * * * * * * * * * * * * * //

dimensions      [0 1 0 0 0 0 0];

internalField   nonuniform List<vector> 
3625
(
(0 0.00019873247 1.7367347e-07)
(0 0.00016218041 1.7235784e-07)
(0 0.00012281388 1.694279e-07)
(0 8.1327082e-05 1.5809024e-07)
(0 3.8501973e-05 1.3631549e-07)
(0 -4.8584812e-06 1.1002913e-07)
(0 -4.7998493e-05 8.7756782e-08)
(0 -9.0341746e-05 7.3303879e-08)
(0 -0.00013122093 6.2830607e-08)
(0 -0.00016983393 4.7198307e-08)
(0 -0.00020550246 2.4827056e-08)
(0 -0.00023753632 7.6033561e-09)
(0 -0.0002653164 2.635648e-09)
(0 -0.00028847828 2.1899718e-08)
(0 -0.00030667847 5.61655e-08)
(0 -0.00031969375 7.9899226e-08)
(0 -0.00032715323 8.0459366e-08)
(0 -0.00032868842 6.4650306e-08)
(0 -0.00032415844 4.6941862e-08)
(0 -0.000313123 2.612566e-08)
(0 -0.0002943804 9.3163401e-09)
(0 -0.00026488986 3.5000789e-09)
(0 -0.000217337 2.6224698e-09)
(0 -0.00013426465 2.3583813e-09)
(0 0 0)
(0 0.00017721501 3.4777432e-05)
(0 0.00014430491 3.296027e-05)
(0 0.00010883071 3.0587195e-05)
(0 7.1436768e-05 2.7697509e-05)
(0 3.2896064e-05 2.432406e-05)
(0 -6.028273e-06 2.0513599e-05)
(0 -4.4689414e-05 1.6329268e-05)
(0 -8.2601673e-05 1.1853059e-05)
(0 -0.00011915936 7.1604475e-06)
(0 -0.00015363089 2.3143947e-06)
(0 -0.00018540274 -2.6025055e-06)
(0 -0.0002138368 -7.4869295e-06)
(0 -0.00023837906 -1.2241881e-05)
(0 -0.0002587107 -1.6762075e-05)
(0 -0.00027454987 -2.0978231e-05)
(0 -0.00028576283 -2.4856668e-05)
(0 -0.00029198958 -2.8340589e-05)
(0 -0.0002928306 -3.1336409e-05)
(0 -0.00028818078 -3.373684e-05)
(0 -0.00027764528 -3.5433303e-05)
(0 -0.00025998623 -3.6167241e-05)
(0 -0.00023219983 -3.5401387e-05)
(0 -0.00018767713 -3.1926314e-05)
(0 -0.00011314101 -2.2702282e-05)
(0 0 0)
(0 0.00015666166 7.792512e-05)
(0 0.00012765054 7.3876888e-05)
(0 9.6311954e-05 6.8572672e-05)
(0 6.3246772e-05 6.2111142e-05)
(0 2.917658e-05 5.4573699e-05)
(0 -5.1880079e-06 4.6040373e-05)
(0 -3.929785e-05 3.6635388e-05)
(0 -7.2731264e-05 2.6552792e-05)
(0 -0.00010491371 1.5957242e-05)
(0 -0.00013520937 4.9943678e-06)
(0 -0.00016311328 -6.13722e-06)
(0 -0.00018805796 -1.7219936e-05)
(0 -0.00020952875 -2.8035236e-05)
(0 -0.00022724128 -3.8364716e-05)
(0 -0.00024096326 -4.8030722e-05)
(0 -0.00025061257 -5.6901115e-05)
(0 -0.00025589216 -6.4828454e-05)
(0 -0.00025640055 -7.1613064e-05)
(0 -0.00025202468 -7.7022095e-05)
(0 -0.00024242134 -8.0765544e-05)
(0 -0.00022637516 -8.2235398e-05)
(0 -0.00020112872 -8.0152354e-05)
(0 -0.00016098961 -7.163699e-05)
(0 -9.5762896e-05 -5.0008779e-05)
(0 0 0)
(0 0.00013353561 0.00012108127)
(0 0.00010899322 0.00011482146)
(0 8.2399104e-05 0.00010659788)
(0 5.4301496e-05 9.6553841e-05)
(0 2.5344299e-05 8.4820607e-05)
(0 -3.8613248e-06 7.1522034e-05)
(0 -3.2798623e-05 5.6864187e-05)
(0 -6.1133071e-05 4.113933e-05)
(0 -8.8401992e-05 2.4591621e-05)
(0 -0.00011402395 7.4685815e-06)
(0 -0.00013760835 -9.9040789e-06)
(0 -0.00015869129 -2.7192235e-05)
(0 -0.00017680766 -4.405571e-05)
(0 -0.00019172157 -6.0162985e-05)
(0 -0.00020325615 -7.5233281e-05)
(0 -0.00021134436 -8.9024783e-05)
(0 -0.00021577296 -0.00010129167)
(0 -0.00021615105 -0.00011174846)
(0 -0.0002123517 -0.00012004985)
(0 -0.00020407681 -0.000125695)
(0 -0.00019022163 -0.00012773268)
(0 -0.00016846798 -0.0001241368)
(0 -0.00013415858 -0.00011033179)
(0 -7.968773e-05 -7.6406113e-05)
(0 0 0)
(0 0.00010835842 0.00016337393)
(0 8.8718467e-05 0.00015496863)
(0 6.7356002e-05 0.00014390491)
(0 4.471358e-05 0.00013034571)
(0 2.1373452e-05 0.00011447348)
(0 -2.1909137e-06 9.647813e-05)
(0 -2.553544e-05 7.6653688e-05)
(0 -4.8343167e-05 5.537722e-05)
(0 -7.0259644e-05 3.2978419e-05)
(0 -9.0830353e-05 9.8201333e-06)
(0 -0.00010973082 -1.3649991e-05)
(0 -0.00012662147 -3.6981775e-05)
(0 -0.00014117815 -5.9717744e-05)
(0 -0.00015317483 -8.1414122e-05)
(0 -0.00016245974 -0.00010168896)
(0 -0.00016899559 -0.00012021155)
(0 -0.00017265163 -0.00013663365)
(0 -0.00017305905 -0.00015058623)
(0 -0.00017006695 -0.00016163348)
(0 -0.00016342449 -0.00016908021)
(0 -0.00015222584 -0.00017164403)
(0 -0.00013466747 -0.00016657542)
(0 -0.00010715387 -0.00014769598)
(0 -6.411838e-05 -0.00010225092)
(0 0 0)
(0 8.1410219e-05 0.00020402571)
(0 6.6961179e-05 0.00019353806)
(0 5.1167987e-05 0.00017971831)
(0 3.4356008e-05 0.0001627464)
(0 1.6987451e-05 0.00014286477)
(0 -5.9788352e-07 0.00012034765)
(0 -1.8035416e-05 9.5563968e-05)
(0 -3.4975962e-05 6.896866e-05)
(0 -5.1219138e-05 4.0988348e-05)
(0 -6.649582e-05 1.2096239e-05)
(0 -8.0499326e-05 -1.7150387e-05)
(0 -9.3024063e-05 -4.6192467e-05)
(0 -0.00010386362 -7.446923e-05)
(0 -0.0001128247 -0.00010143916)
(0 -0.00011979228 -0.0001266141)
(0 -0.00012476428 -0.00014958077)
(0 -0.00012764741 -0.0001699181)
(0 -0.00012812932 -0.00018717709)
(0 -0.00012607443 -0.0002008277)
(0 -0.00012126574 -0.00021002567)
(0 -0.00011304079 -0.00021319344)
(0 -0.00010012482 -0.00020693689)
(0 -7.9938247e-05 -0.00018366614)
(0 -4.855037e-05 -0.00012804401)
(0 0 0)
(0 5.3038602e-05 0.00024213376)
(0 4.3921273e-05 0.00022963241)
(0 3.3873227e-05 0.0002131702)
(0 2.3091694e-05 0.00019295829)
(0 1.1897326e-05 0.00016929303)
(0 5.1369569e-07 0.00014253943)
(0 -1.0766693e-05 0.0001131437)
(0 -2.1643775e-05 8.1618702e-05)
(0 -3.2089548e-05 4.8485326e-05)
(0 -4.1969287e-05 1.4328626e-05)
(0 -5.0996501e-05 -2.0209779e-05)
(0 -5.9069874e-05 -5.4480006e-05)
(0 -6.6077441e-05 -8.7835552e-05)
(0 -7.1879601e-05 -0.00011964803)
(0 -7.645148e-05 -0.00014933799)
(0 -7.9800536e-05 -0.00017640952)
(0 -8.1822916e-05 -0.00020037345)
(0 -8.231538e-05 -0.00022071462)
(0 -8.1174108e-05 -0.00023681475)
(0 -7.8245187e-05 -0.00024772394)
(0 -7.3113916e-05 -0.00025164393)
(0 -6.5002427e-05 -0.00024469004)
(0 -5.229842e-05 -0.00021812813)
(0 -3.2491665e-05 -0.00015426743)
(0 0 0)
(0 2.3646545e-05 0.00027683582)
(0 1.9802164e-05 0.00026243857)
(0 1.5478087e-05 0.00024350468)
(0 1.0726438e-05 0.00022029853)
(0 5.7311389e-06 0.00019317238)
(0 6.0698187e-07 0.00016256653)
(0 -4.4453754e-06 0.00012900204)
(0 -9.2470992e-06 9.3056255e-05)
(0 -1.3881523e-05 5.5333403e-05)
(0 -1.8306625e-05 1.6508485e-05)
(0 -2.233729e-05 -2.2704783e-05)
(0 -2.5935462e-05 -6.1583945e-05)
(0 -2.9059919e-05 -9.9412828e-05)
(0 -3.1650188e-05 -0.00013549434)
(0 -3.3737882e-05 -0.00016917688)
(0 -3.5334442e-05 -0.00019988946)
(0 -3.6357718e-05 -0.00022707641)
(0 -3.6706435e-05 -0.00025016666)
(0 -3.6323371e-05 -0.00026848704)
(0 -3.5131575e-05 -0.00028102625)
(0 -3.2951407e-05 -0.00028586992)
(0 -2.9472722e-05 -0.00027885678)
(0 -2.4004425e-05 -0.00025047297)
(0 -1.541454e-05 -0.0001811319)
(0 0 0)
(0 3.6170762e-07 0.00031153419)
(0 5.5858684e-07 0.0002952532)
(0 6.5189474e-07 0.00027385295)
(0 6.0252588e-07 0.00024766019)
(0 4.7208617e-07 0.0002170971)
(0 2.9117136e-07 0.0001826757)
(0 1.5772341e-07 0.00014498872)
(0 1.446976e-07 0.00010468916)
(0 1.2156061e-07 6.2465639e-05)
(0 5.6269914e-08 1.9064884e-05)
(0 2.3848717e-08 -2.4728938e-05)
(0 9.3141551e-09 -6.8124999e-05)
(0 1.3264833e-08 -0.00011034276)
(0 3.5828413e-08 -0.00015062284)
(0 2.5513107e-08 -0.00018824714)
(0 -5.1240207e-08 -0.00022256726)
(0 -1.6005811e-07 -0.00025296572)
(0 -2.6390759e-07 -0.00027881967)
(0 -3.5486448e-07 -0.0002994156)
(0 -4.1382628e-07 -0.00031370714)
(0 -4.1853175e-07 -0.00031973187)
(0 -3.8345671e-07 -0.00031319225)
(0 -3.0009323e-07 -0.00028403275)
(0 -1.66365e-07 -0.00021127699)
(0 0 0)
(0 0.00017719384 -3.4346387e-05)
(0 0.00014421619 -3.2529072e-05)
(0 0.00010868371 -3.0156653e-05)
(0 7.127064e-05 -2.7285588e-05)
(0 3.2698646e-05 -2.3961278e-05)
(0 -6.2700231e-06 -2.0217581e-05)
(0 -4.4960838e-05 -1.6102192e-05)
(0 -8.2868126e-05 -1.1667901e-05)
(0 -0.00011937411 -6.9909568e-06)
(0 -0.00015379747 -2.1796179e-06)
(0 -0.00018557271 2.6788443e-06)
(0 -0.00021401893 7.5170758e-06)
(0 -0.00023851951 1.2256901e-05)
(0 -0.00025881316 1.6828296e-05)
(0 -0.00027464756 2.1136836e-05)
(0 -0.00028584178 2.5077243e-05)
(0 -0.00029202169 2.8560044e-05)
(0 -0.00029282518 3.1513706e-05)
(0 -0.00028815701 3.386917e-05)
(0 -0.00027760262 3.5506429e-05)
(0 -0.00025993166 3.6192061e-05)
(0 -0.00023216767 3.541089e-05)
(0 -0.00018767747 3.1932419e-05)
(0 -0.00011314894 2.2706298e-05)
(0 0 0)
(0 0.00014477612 3.7269461e-07)
(0 0.00011754605 3.6456839e-07)
(0 8.8118927e-05 3.5571911e-07)
(0 5.7108851e-05 3.3644162e-07)
(0 2.5180052e-05 2.9037404e-07)
(0 -6.9571336e-06 2.2792073e-07)
(0 -3.8753213e-05 1.6348046e-07)
(0 -6.9887555e-05 1.2715649e-07)
(0 -9.9871381e-05 1.1964888e-07)
(0 -0.00012810565 9.3719098e-08)
(0 -0.00015415517 4.6811806e-08)
(0 -0.00017738843 9.2305052e-09)
(0 -0.00019721469 -4.5312833e-09)
(0 -0.00021348735 3.060563e-08)
(0 -0.00022604893 9.7123843e-08)
(0 -0.00023483589 1.4354619e-07)
(0 -0.00023946737 1.4669479e-07)
(0 -0.00023951076 1.2114913e-07)
(0 -0.00023494351 9.1016082e-08)
(0 -0.00022544117 4.7646457e-08)
(0 -0.00020977873 1.191361e-08)
(0 -0.00018514886 1.5185413e-09)
(0 -0.00014603097 1.4883812e-11)
(0 -8.4261652e-05 -6.6416534e-10)
(0 0 0)
(0 0.00012475873 3.7939137e-05)
(0 0.00010159944 3.6045276e-05)
(0 7.646381e-05 3.3544965e-05)
(0 4.9921461e-05 3.0472928e-05)
(0 2.2604188e-05 2.685518e-05)
(0 -4.832874e-06 2.2711491e-05)
(0 -3.191723e-05 1.809931e-05)
(0 -5.8435686e-05 1.3158898e-05)
(0 -8.3946883e-05 7.9597777e-06)
(0 -0.00010789386 2.5259415e-06)
(0 -0.00012997825 -3.0425904e-06)
(0 -0.00014967423 -8.6133962e-06)
(0 -0.00016644032 -1.4057902e-05)
(0 -0.00018014987 -1.9242711e-05)
(0 -0.00019067908 -2.4078294e-05)
(0 -0.00019803938 -2.8528243e-05)
(0 -0.00020192469 -3.2520779e-05)
(0 -0.00020186628 -3.5944169e-05)
(0 -0.00019784024 -3.8666812e-05)
(0 -0.00018960446 -4.0521755e-05)
(0 -0.00017602588 -4.1158082e-05)
(0 -0.00015467182 -3.9849269e-05)
(0 -0.00012102483 -3.506888e-05)
(0 -6.9160887e-05 -2.358492e-05)
(0 0 0)
(0 0.00010257324 7.6111623e-05)
(0 8.3844459e-05 7.230557e-05)
(0 6.3399599e-05 6.7274155e-05)
(0 4.1750404e-05 6.1094744e-05)
(0 1.9474066e-05 5.3829117e-05)
(0 -2.8755918e-06 4.550229e-05)
(0 -2.4882874e-05 3.6232132e-05)
(0 -4.6395687e-05 2.6268106e-05)
(0 -6.7057534e-05 1.5732358e-05)
(0 -8.6387663e-05 4.7334173e-06)
(0 -0.00010418542 -6.5009038e-06)
(0 -0.00012007002 -1.7729306e-05)
(0 -0.00013361766 -2.8703811e-05)
(0 -0.00014469719 -3.9179976e-05)
(0 -0.00015318653 -4.895947e-05)
(0 -0.00015913827 -5.789598e-05)
(0 -0.00016237049 -6.5834968e-05)
(0 -0.00016238622 -7.2593321e-05)
(0 -0.00015913613 -7.792979e-05)
(0 -0.00015243509 -8.1480857e-05)
(0 -0.00014131024 -8.2556882e-05)
(0 -0.00012386799 -7.9694299e-05)
(0 -9.6575617e-05 -6.9765911e-05)
(0 -5.5116559e-05 -4.6531907e-05)
(0 0 0)
(0 7.8833403e-05 0.00011457831)
(0 6.4798043e-05 0.00010884518)
(0 4.934712e-05 0.00010125472)
(0 3.2895786e-05 9.1919051e-05)
(0 1.5969526e-05 8.0931408e-05)
(0 -1.0106975e-06 6.8351923e-05)
(0 -1.7702243e-05 5.438272e-05)
(0 -3.3932941e-05 3.9343717e-05)
(0 -4.9473489e-05 2.342104e-05)
(0 -6.399242e-05 6.8309679e-06)
(0 -7.7314924e-05 -1.0064017e-05)
(0 -8.9214289e-05 -2.6908942e-05)
(0 -9.9447332e-05 -4.3337604e-05)
(0 -0.00010786017 -5.899767e-05)
(0 -0.00011432433 -7.3591364e-05)
(0 -0.000118908 -8.6885173e-05)
(0 -0.0001215308 -9.8648387e-05)
(0 -0.00012172761 -0.00010862266)
(0 -0.00011940985 -0.00011647149)
(0 -0.00011443318 -0.00012162691)
(0 -0.00010605107 -0.00012307101)
(0 -9.2933896e-05 -0.00011862942)
(0 -7.2486276e-05 -0.00010360704)
(0 -4.160187e-05 -6.8987088e-05)
(0 0 0)
(0 5.3743577e-05 0.00015277608)
(0 4.4568168e-05 0.00014509846)
(0 3.43206e-05 0.00013492888)
(0 2.3292354e-05 0.00012239663)
(0 1.1923652e-05 0.00010765406)
(0 4.7730951e-07 9.0833938e-05)
(0 -1.0754347e-05 7.2204903e-05)
(0 -2.1545873e-05 5.213277e-05)
(0 -3.184029e-05 3.0910168e-05)
(0 -4.1482492e-05 8.8783288e-06)
(0 -5.0298776e-05 -1.3501249e-05)
(0 -5.8193691e-05 -3.576314e-05)
(0 -6.506179e-05 -5.7440844e-05)
(0 -7.0744953e-05 -7.8076207e-05)
(0 -7.5173729e-05 -9.7271674e-05)
(0 -7.8421997e-05 -0.00011474482)
(0 -8.0407299e-05 -0.00013019892)
(0 -8.0767716e-05 -0.00014328172)
(0 -7.9417085e-05 -0.00015355592)
(0 -7.6246592e-05 -0.00016028762)
(0 -7.0761551e-05 -0.00016215202)
(0 -6.2139312e-05 -0.00015631186)
(0 -4.867266e-05 -0.00013663047)
(0 -2.8266857e-05 -9.142066e-05)
(0 0 0)
(0 2.7559712e-05 0.000189938)
(0 2.3256945e-05 0.00018029099)
(0 1.8272485e-05 0.00016754466)
(0 1.27542e-05 0.00015184072)
(0 7.0124657e-06 0.00013338375)
(0 1.1729479e-06 0.00011241414)
(0 -4.5167077e-06 8.9271127e-05)
(0 -9.8330236e-06 6.4357276e-05)
(0 -1.4932851e-05 3.8075851e-05)
(0 -1.9776459e-05 1.0898096e-05)
(0 -2.4148538e-05 -1.6645304e-05)
(0 -2.8064976e-05 -4.4000799e-05)
(0 -3.1517238e-05 -7.0621032e-05)
(0 -3.4408002e-05 -9.5958525e-05)
(0 -3.6744501e-05 -0.00011952426)
(0 -3.8583059e-05 -0.00014097074)
(0 -3.9822422e-05 -0.00015993697)
(0 -4.0226599e-05 -0.00017599231)
(0 -3.9743805e-05 -0.00018860174)
(0 -3.8315519e-05 -0.00019691661)
(0 -3.5690638e-05 -0.00019934426)
(0 -3.1499945e-05 -0.00019247349)
(0 -2.4884882e-05 -0.00016890877)
(0 -1.4717223e-05 -0.00011435458)
(0 0 0)
(0 6.4163206e-07 0.00022550301)
(0 9.8900922e-07 0.00021387395)
(0 1.0953395e-06 0.00019855894)
(0 9.5503475e-07 0.0001797429)
(0 7.2292387e-07 0.00015768375)
(0 4.400249e-07 0.00013272306)
(0 2.7433652e-07 0.00010527671)
(0 3.3388683e-07 7.5806331e-05)
(0 3.3089932e-07 4.4804803e-05)
(0 2.4974728e-07 1.2847167e-05)
(0 2.6512112e-07 -1.945695e-05)
(0 2.9541496e-07 -5.1488575e-05)
(0 2.9067657e-07 -8.2635149e-05)
(0 2.507203e-07 -0.00011229046)
(0 1.2565419e-07 -0.00013989414)
(0 -1.2020964e-07 -0.00016500616)
(0 -4.1011487e-07 -0.00018719757)
(0 -6.2396754e-07 -0.00020598277)
(0 -7.5578276e-07 -0.00022076273)
(0 -8.1133613e-07 -0.0002306106)
(0 -7.7219369e-07 -0.00023375641)
(0 -7.0012006e-07 -0.00022638471)
(0 -5.6576894e-07 -0.00020008375)
(0 -3.290513e-07 -0.00013816355)
(0 0 0)
(0 -2.2757571e-05 0.00027681918)
(0 -1.8422671e-05 0.00026241324)
(0 -1.3905527e-05 0.00024346838)
(0 -9.3146384e-06 0.00022025278)
(0 -4.6488207e-06 0.0001931217)
(0 5.6097582e-08 0.00016252071)
(0 4.8378384e-06 0.00012896458)
(0 9.6704651e-06 9.3021685e-05)
(0 1.4279271e-05 5.5302517e-05)
(0 1.8568548e-05 1.6483932e-05)
(0 2.2571345e-05 -2.2719982e-05)
(0 2.6180988e-05 -6.1590772e-05)
(0 2.9315046e-05 -9.9418402e-05)
(0 3.191623e-05 -0.00013550645)
(0 3.3905332e-05 -0.00016919561)
(0 3.5231419e-05 -0.00019990872)
(0 3.5919934e-05 -0.00022709655)
(0 3.5990831e-05 -0.0002501853)
(0 3.5404344e-05 -0.00026850028)
(0 3.4101265e-05 -0.0002810304)
(0 3.1941432e-05 -0.00028586667)
(0 2.8554345e-05 -0.00027885144)
(0 2.3277476e-05 -0.00025047295)
(0 1.5005174e-05 -0.00018114364)
(0 0 0)
(0 0.00015652617 -7.7667192e-05)
(0 0.00012733643 -7.3594517e-05)
(0 9.5847237e-05 -6.8261374e-05)
(0 6.2720033e-05 -6.1783242e-05)
(0 2.8600758e-05 -5.4267102e-05)
(0 -5.8238368e-06 -4.5788335e-05)
(0 -3.9972272e-05 -3.6455772e-05)
(0 -7.3376699e-05 -2.6401543e-05)
(0 -0.00010550136 -1.5799731e-05)
(0 -0.0001357693 -4.8692821e-06)
(0 -0.00016367629 6.1956509e-06)
(0 -0.00018860058 1.7217964e-05)
(0 -0.00020997112 2.801259e-05)
(0 -0.00022759662 3.8394946e-05)
(0 -0.00024129563 4.8160846e-05)
(0 -0.00025088904 5.7106772e-05)
(0 -0.00025603863 6.5051453e-05)
(0 -0.00025643665 7.1808903e-05)
(0 -0.00025198943 7.7172397e-05)
(0 -0.00024232656 8.0848178e-05)
(0 -0.00022627464 8.2261955e-05)
(0 -0.00020107737 8.0159993e-05)
(0 -0.00016099569 7.1640844e-05)
(0 -9.5787986e-05 5.00102e-05)
(0 0 0)
(0 0.00012455039 -3.7353267e-05)
(0 0.0001012279 -3.5455257e-05)
(0 7.5952094e-05 -3.2947882e-05)
(0 4.9352613e-05 -2.9882116e-05)
(0 2.1989853e-05 -2.6332337e-05)
(0 -5.4938175e-06 -2.2311148e-05)
(0 -3.261242e-05 -1.7839765e-05)
(0 -5.9103127e-05 -1.295922e-05)
(0 -8.4560169e-05 -7.755735e-06)
(0 -0.00010849751 -2.3804109e-06)
(0 -0.00013059523 3.0773154e-06)
(0 -0.00015026985 8.5516507e-06)
(0 -0.00016693639 1.3955146e-05)
(0 -0.00018055283 1.9205495e-05)
(0 -0.00019104517 2.4181448e-05)
(0 -0.00019834231 2.8748215e-05)
(0 -0.00020209692 3.2783381e-05)
(0 -0.00020192882 3.6184103e-05)
(0 -0.0001978258 3.8849335e-05)
(0 -0.00018952084 4.0612596e-05)
(0 -0.00017592213 4.1171822e-05)
(0 -0.00015458895 3.9837737e-05)
(0 -0.00012098342 3.5056304e-05)
(0 -6.9153178e-05 2.3575092e-05)
(0 0 0)
(0 0.00010335317 3.4017351e-07)
(0 8.420998e-05 3.3418896e-07)
(0 6.3353464e-05 3.2976975e-07)
(0 4.1368346e-05 3.2890567e-07)
(0 1.8761106e-05 2.9115354e-07)
(0 -3.8626071e-06 2.1035799e-07)
(0 -2.6074851e-05 1.2147646e-07)
(0 -4.7743638e-05 8.6141056e-08)
(0 -6.8520682e-05 8.5860669e-08)
(0 -8.7974924e-05 4.3960999e-08)
(0 -0.00010594461 -2.5567991e-08)
(0 -0.00012195512 -8.4284741e-08)
(0 -0.00013547694 -1.1340982e-07)
(0 -0.00014648773 -8.4392758e-08)
(0 -0.00015492038 -6.5510002e-09)
(0 -0.00016078623 7.0028667e-08)
(0 -0.00016382097 1.1277701e-07)
(0 -0.00016358855 1.1609063e-07)
(0 -0.00016008913 9.0270175e-08)
(0 -0.00015314101 4.2195715e-08)
(0 -0.00014179414 -1.9669704e-10)
(0 -0.00012404302 -1.5818831e-08)
(0 -9.6281937e-05 -1.5152077e-08)
(0 -5.4341779e-05 -1.010918e-08)
(0 0 0)
(0 8.0017798e-05 3.8729157e-05)
(0 6.5430788e-05 3.6817848e-05)
(0 4.9404124e-05 3.4288547e-05)
(0 3.2450593e-05 3.118927e-05)
(0 1.5037022e-05 2.7529389e-05)
(0 -2.3113639e-06 2.3282798e-05)
(0 -1.9261835e-05 1.852143e-05)
(0 -3.5770019e-05 1.3431471e-05)
(0 -5.1548926e-05 8.03561e-06)
(0 -6.6255311e-05 2.3406619e-06)
(0 -7.9808721e-05 -3.5123675e-06)
(0 -9.1895582e-05 -9.3713359e-06)
(0 -0.00010216526 -1.5088311e-05)
(0 -0.00011055834 -2.0519702e-05)
(0 -0.00011695855 -2.5553337e-05)
(0 -0.00012141601 -3.0136363e-05)
(0 -0.00012380869 -3.4214983e-05)
(0 -0.00012367694 -3.7700157e-05)
(0 -0.00012099135 -4.0451312e-05)
(0 -0.00011563608 -4.2264791e-05)
(0 -0.00010686439 -4.276219e-05)
(0 -9.3248021e-05 -4.1133934e-05)
(0 -7.2099319e-05 -3.5719723e-05)
(0 -4.0527267e-05 -2.3411874e-05)
(0 0 0)
(0 5.494258e-05 7.7489343e-05)
(0 4.5205508e-05 7.3664636e-05)
(0 3.4335886e-05 6.8592786e-05)
(0 2.2751819e-05 6.2363108e-05)
(0 1.0877611e-05 5.5010134e-05)
(0 -8.9543677e-07 4.652755e-05)
(0 -1.2330168e-05 3.7052016e-05)
(0 -2.3394208e-05 2.684226e-05)
(0 -3.3905733e-05 1.5972567e-05)
(0 -4.3668268e-05 4.5547217e-06)
(0 -5.2652815e-05 -7.1258738e-06)
(0 -6.068642e-05 -1.8792989e-05)
(0 -6.7620559e-05 -3.0169326e-05)
(0 -7.3355928e-05 -4.100915e-05)
(0 -7.7754555e-05 -5.1083743e-05)
(0 -8.0875698e-05 -6.023356e-05)
(0 -8.266592e-05 -6.8334429e-05)
(0 -8.2715739e-05 -7.5208254e-05)
(0 -8.0972679e-05 -8.0597495e-05)
(0 -7.7373459e-05 -8.4063738e-05)
(0 -7.1426288e-05 -8.4896944e-05)
(0 -6.229241e-05 -8.1539215e-05)
(0 -4.817341e-05 -7.0651342e-05)
(0 -2.7166676e-05 -4.6198622e-05)
(0 0 0)
(0 2.829986e-05 0.00011603834)
(0 2.361814e-05 0.00011028927)
(0 1.816135e-05 0.00010265441)
(0 1.2214312e-05 9.3251892e-05)
(0 6.1235766e-06 8.2164339e-05)
(0 1.0720751e-07 6.9443334e-05)
(0 -5.6514424e-06 5.5284103e-05)
(0 -1.1107568e-05 3.997292e-05)
(0 -1.6271421e-05 2.370365e-05)
(0 -2.107619e-05 6.7176685e-06)
(0 -2.5500579e-05 -1.0600365e-05)
(0 -2.949334e-05 -2.7856942e-05)
(0 -3.3033741e-05 -4.4669255e-05)
(0 -3.6042961e-05 -6.0679932e-05)
(0 -3.8404358e-05 -7.5539897e-05)
(0 -4.0182132e-05 -8.9034161e-05)
(0 -4.133679e-05 -0.00010098031)
(0 -4.153776e-05 -0.00011109271)
(0 -4.0751444e-05 -0.00011900425)
(0 -3.8981799e-05 -0.00012407617)
(0 -3.5992649e-05 -0.00012527328)
(0 -3.144738e-05 -0.00012033284)
(0 -2.4428793e-05 -0.00010436124)
(0 -1.3916001e-05 -6.8522107e-05)
(0 0 0)
(0 8.6206937e-07 0.00015365681)
(0 1.2129246e-06 0.00014596389)
(0 1.2028657e-06 0.00013576083)
(0 9.3985076e-07 0.00012317473)
(0 6.4436086e-07 0.00010836216)
(0 3.9429394e-07 9.1472416e-05)
(0 3.2797278e-07 7.2750558e-05)
(0 4.5509206e-07 5.2506967e-05)
(0 5.3033179e-07 3.107533e-05)
(0 5.5656103e-07 8.8300014e-06)
(0 6.1317565e-07 -1.378422e-05)
(0 6.3016166e-07 -3.6286109e-05)
(0 5.411765e-07 -5.821037e-05)
(0 3.3429432e-07 -7.9082155e-05)
(0 8.39055e-08 -9.8457331e-05)
(0 -2.4601603e-07 -0.00011607112)
(0 -6.3831069e-07 -0.00013166489)
(0 -8.6336772e-07 -0.00014486051)
(0 -9.2607496e-07 -0.00015518817)
(0 -9.0011641e-07 -0.00016188844)
(0 -7.8794994e-07 -0.00016360903)
(0 -7.0373286e-07 -0.00015743316)
(0 -5.9044901e-07 -0.00013710664)
(0 -3.519655e-07 -9.1025686e-05)
(0 0 0)
(0 -2.6052467e-05 0.00018990677)
(0 -2.1040561e-05 0.00018023838)
(0 -1.5936629e-05 0.00016746369)
(0 -1.0797843e-05 0.00015173629)
(0 -5.5634488e-06 0.00013326971)
(0 -2.5096613e-07 0.00011232268)
(0 5.1969293e-06 8.9211613e-05)
(0 1.0694001e-05 6.4301078e-05)
(0 1.5861952e-05 3.8023576e-05)
(0 2.0637e-05 1.0864648e-05)
(0 2.5079945e-05 -1.6653293e-05)
(0 2.9054163e-05 -4.3984752e-05)
(0 3.2426829e-05 -7.05958e-05)
(0 3.5105382e-05 -9.594013e-05)
(0 3.7091192e-05 -0.00011951099)
(0 3.8359383e-05 -0.00014094852)
(0 3.8918058e-05 -0.00015990654)
(0 3.8878729e-05 -0.00017594878)
(0 3.819379e-05 -0.00018853407)
(0 3.6725814e-05 -0.00019681944)
(0 3.4243129e-05 -0.00019922592)
(0 3.0200504e-05 -0.00019234959)
(0 2.3818697e-05 -0.00016879887)
(0 1.4094132e-05 -0.00011428056)
(0 0 0)
(0 -5.2028753e-05 0.00024209084)
(0 -4.2416769e-05 0.00022956574)
(0 -3.2235242e-05 0.00021307322)
(0 -2.167161e-05 0.00019283516)
(0 -1.0823998e-05 0.00016915872)
(0 1.8410033e-07 0.00014242278)
(0 1.1272339e-05 0.00011305529)
(0 2.2241971e-05 8.1537568e-05)
(0 3.2711708e-05 4.8412127e-05)
(0 4.2503348e-05 1.4275676e-05)
(0 5.1538032e-05 -2.0238629e-05)
(0 5.9634611e-05 -5.4487412e-05)
(0 6.6614076e-05 -8.7837427e-05)
(0 7.2341393e-05 -0.00011966187)
(0 7.6746879e-05 -0.00014936348)
(0 7.977613e-05 -0.00017643318)
(0 8.1399751e-05 -0.00020039532)
(0 8.1605978e-05 -0.00022072928)
(0 8.0299947e-05 -0.00023680986)
(0 7.7303122e-05 -0.00024769074)
(0 7.223031e-05 -0.00025158822)
(0 6.420879e-05 -0.00024462531)
(0 5.1663622e-05 -0.00021807125)
(0 3.2135478e-05 -0.00015423471)
(0 0 0)
(0 0.00013317329 -0.00012095208)
(0 0.00010833782 -0.00011465511)
(0 8.1513995e-05 -0.00010638717)
(0 5.3321783e-05 -9.6310148e-05)
(0 2.4327551e-05 -8.4578198e-05)
(0 -4.9009536e-06 -7.1322214e-05)
(0 -3.3898022e-05 -5.6736428e-05)
(0 -6.2226231e-05 -4.1031348e-05)
(0 -8.9435164e-05 -2.4474008e-05)
(0 -0.00011504247 -7.3916961e-06)
(0 -0.00013860818 9.9054079e-06)
(0 -0.000159615 2.7125304e-05)
(0 -0.00017758671 4.3964675e-05)
(0 -0.00019239157 6.0119007e-05)
(0 -0.00020387097 7.5281651e-05)
(0 -0.00021185133 8.9157824e-05)
(0 -0.000216063 0.00010147302)
(0 -0.00021624896 0.00011193033)
(0 -0.00021231314 0.0001201937)
(0 -0.00020393116 0.00012577594)
(0 -0.00019006758 0.00012776014)
(0 -0.00016835201 0.00012413947)
(0 -0.00013410929 0.00011032829)
(0 -7.969253e-05 7.6402e-05)
(0 0 0)
(0 0.00010201637 -7.5812321e-05)
(0 8.294279e-05 -7.1974259e-05)
(0 6.222174e-05 -6.6903164e-05)
(0 4.0456777e-05 -6.0699966e-05)
(0 1.8125697e-05 -5.3458614e-05)
(0 -4.2492583e-06 -4.5218715e-05)
(0 -2.6312639e-05 -3.6080531e-05)
(0 -4.780474e-05 -2.6152117e-05)
(0 -6.839209e-05 -1.5605184e-05)
(0 -8.7715424e-05 -4.680799e-06)
(0 -0.00010551848 6.4333347e-06)
(0 -0.00012132638 1.7555893e-05)
(0 -0.00013467332 2.8481238e-05)
(0 -0.00014558263 3.9011635e-05)
(0 -0.00015398032 4.8925884e-05)
(0 -0.00015978738 5.799896e-05)
(0 -0.00016274401 6.6026162e-05)
(0 -0.00016252278 7.2799414e-05)
(0 -0.00015910071 7.8089037e-05)
(0 -0.00015226241 8.1554721e-05)
(0 -0.00014111034 8.2556534e-05)
(0 -0.00012367871 7.9662262e-05)
(0 -9.6448402e-05 6.9732373e-05)
(0 -5.5075684e-05 4.6507894e-05)
(0 0 0)
(0 7.9630463e-05 -3.8254958e-05)
(0 6.4835168e-05 -3.6345169e-05)
(0 4.8646146e-05 -3.3811881e-05)
(0 3.1623809e-05 -3.0697829e-05)
(0 1.4177723e-05 -2.7081126e-05)
(0 -3.1790683e-06 -2.2970474e-05)
(0 -2.0159482e-05 -1.8380713e-05)
(0 -3.666411e-05 -1.3340606e-05)
(0 -5.2405966e-05 -7.9501379e-06)
(0 -6.711121e-05 -2.3665749e-06)
(0 -8.0671954e-05 3.3348569e-06)
(0 -9.2711041e-05 9.0671119e-06)
(0 -0.0001028496 1.471838e-05)
(0 -0.0001111255 2.0202083e-05)
(0 -0.00011745225 2.5400717e-05)
(0 -0.00012180988 3.0169222e-05)
(0 -0.0001240318 3.4380261e-05)
(0 -0.0001237534 3.7908546e-05)
(0 -0.00012096208 4.0619936e-05)
(0 -0.00011553154 4.2338139e-05)
(0 -0.00010674818 4.2746429e-05)
(0 -9.313076e-05 4.1080484e-05)
(0 -7.2013501e-05 3.566783e-05)
(0 -4.0496119e-05 2.3378046e-05)
(0 0 0)
(0 5.5049705e-05 2.4995126e-07)
(0 4.4949781e-05 2.3456363e-07)
(0 3.373783e-05 2.210144e-07)
(0 2.1908592e-05 2.2773033e-07)
(0 9.8218966e-06 2.103656e-07)
(0 -2.0657029e-06 1.3565993e-07)
(0 -1.3573432e-05 4.4503259e-08)
(0 -2.4751812e-05 1.6078784e-08)
(0 -3.5351625e-05 -1.2124744e-10)
(0 -4.5178617e-05 -7.1833763e-08)
(0 -5.4247301e-05 -1.5688491e-07)
(0 -6.2316175e-05 -2.2481679e-07)
(0 -6.919061e-05 -2.5851258e-07)
(0 -7.4881457e-05 -2.2964296e-07)
(0 -7.92441e-05 -1.3488434e-07)
(0 -8.2247702e-05 -2.1181411e-08)
(0 -8.3820791e-05 6.4855583e-08)
(0 -8.362506e-05 1.0082294e-07)
(0 -8.1647245e-05 8.8255967e-08)
(0 -7.782621e-05 4.2774636e-08)
(0 -7.1697225e-05 -2.8821077e-09)
(0 -6.2375085e-05 -2.4457731e-08)
(0 -4.8026575e-05 -2.5168961e-08)
(0 -2.6817123e-05 -1.5704228e-08)
(0 0 0)
(0 2.8587426e-05 3.9292832e-05)
(0 2.3529387e-05 3.735553e-05)
(0 1.7680173e-05 3.4787398e-05)
(0 1.1436658e-05 3.16554e-05)
(0 5.1171739e-06 2.7951824e-05)
(0 -9.4937618e-07 2.3645838e-05)
(0 -6.6887165e-06 1.8827095e-05)
(0 -1.2247758e-05 1.3650192e-05)
(0 -1.7459042e-05 8.1017132e-06)
(0 -2.2235112e-05 2.2156569e-06)
(0 -2.6710155e-05 -3.8286551e-06)
(0 -3.0747641e-05 -9.862769e-06)
(0 -3.431253e-05 -1.5723021e-05)
(0 -3.741503e-05 -2.1280599e-05)
(0 -3.9845519e-05 -2.6409713e-05)
(0 -4.1550603e-05 -3.1034832e-05)
(0 -4.2520413e-05 -3.513134e-05)
(0 -4.2474242e-05 -3.8622596e-05)
(0 -4.1420703e-05 -4.1362929e-05)
(0 -3.9383365e-05 -4.3104856e-05)
(0 -3.6160843e-05 -4.3482551e-05)
(0 -3.1428553e-05 -4.1682963e-05)
(0 -2.4210309e-05 -3.5964369e-05)
(0 -1.3532133e-05 -2.3297427e-05)
(0 0 0)
(0 8.7014281e-07 7.8098013e-05)
(0 1.0294554e-06 7.4240092e-05)
(0 7.6894288e-07 6.9118092e-05)
(0 3.457278e-07 6.2841474e-05)
(0 -3.2518467e-09 5.5433033e-05)
(0 -1.0753737e-07 4.690821e-05)
(0 3.0890893e-08 3.7397724e-05)
(0 2.1711784e-07 2.7086091e-05)
(0 4.4185989e-07 1.606475e-05)
(0 6.8066184e-07 4.4836561e-06)
(0 7.6196117e-07 -7.3649498e-06)
(0 7.3174238e-07 -1.918567e-05)
(0 5.3668885e-07 -3.0695165e-05)
(0 1.0759359e-07 -4.166411e-05)
(0 -3.07487e-07 -5.1827033e-05)
(0 -6.5237792e-07 -6.101309e-05)
(0 -9.8810202e-07 -6.9145741e-05)
(0 -1.0786323e-06 -7.6037074e-05)
(0 -9.6717622e-07 -8.1413217e-05)
(0 -7.9691262e-07 -8.4797134e-05)
(0 -5.9691054e-07 -8.5500564e-05)
(0 -5.1288303e-07 -8.1970014e-05)
(0 -4.6016552e-07 -7.0793375e-05)
(0 -2.8632503e-07 -4.6012109e-05)
(0 0 0)
(0 -2.6559791e-05 0.00011599965)
(0 -2.1361145e-05 0.00011022211)
(0 -1.6159753e-05 0.00010255062)
(0 -1.087984e-05 9.3118292e-05)
(0 -5.4119407e-06 8.2021566e-05)
(0 2.7672113e-07 6.9341817e-05)
(0 6.1389471e-06 5.523898e-05)
(0 1.1923296e-05 3.9930962e-05)
(0 1.7392645e-05 2.3658998e-05)
(0 2.2459204e-05 6.6961063e-06)
(0 2.7002277e-05 -1.0598947e-05)
(0 3.0965449e-05 -2.7840473e-05)
(0 3.4211699e-05 -4.4655474e-05)
(0 3.659906e-05 -6.0689084e-05)
(0 3.8309202e-05 -7.5559298e-05)
(0 3.9404402e-05 -8.904303e-05)
(0 3.9811562e-05 -0.00010098572)
(0 3.9685751e-05 -0.00011109109)
(0 3.8950092e-05 -0.00011898022)
(0 3.7378537e-05 -0.0001240227)
(0 3.4703426e-05 -0.00012519805)
(0 3.031875e-05 -0.00012025001)
(0 2.3453359e-05 -0.00010428818)
(0 1.3328725e-05 -6.8475285e-05)
(0 0 0)
(0 -5.2208953e-05 0.00015271111)
(0 -4.2471719e-05 0.00014498826)
(0 -3.2276826e-05 0.00013476)
(0 -2.1722021e-05 0.00012217927)
(0 -1.085025e-05 0.00010741934)
(0 2.5844886e-07 9.0651102e-05)
(0 1.1497274e-05 7.209838e-05)
(0 2.2544146e-05 5.2035206e-05)
(0 3.3017753e-05 3.081554e-05)
(0 4.2753528e-05 8.8218562e-06)
(0 5.1631789e-05 -1.3520741e-05)
(0 5.9512838e-05 -3.5756217e-05)
(0 6.6183186e-05 -5.7433367e-05)
(0 7.1471374e-05 -7.8098598e-05)
(0 7.5436596e-05 -9.7306906e-05)
(0 7.8098775e-05 -0.00011476349)
(0 7.9402362e-05 -0.00013021)
(0 7.9403629e-05 -0.00014327722)
(0 7.799297e-05 -0.00015351163)
(0 7.4898381e-05 -0.00016019325)
(0 6.9627949e-05 -0.00016202072)
(0 6.1141348e-05 -0.0001561655)
(0 4.7839698e-05 -0.00013649656)
(0 2.7787056e-05 -9.13261e-05)
(0 0 0)
(0 -8.0397537e-05 0.00020395757)
(0 -6.5541294e-05 0.00019343015)
(0 -4.9711308e-05 0.00017955959)
(0 -3.3168249e-05 0.00016254416)
(0 -1.6118382e-05 0.00014264401)
(0 1.2273762e-06 0.0001201604)
(0 1.8635777e-05 9.5432595e-05)
(0 3.5720781e-05 6.8851486e-05)
(0 5.2052089e-05 4.0880853e-05)
(0 6.7340206e-05 1.2020138e-05)
(0 8.1351522e-05 -1.719798e-05)
(0 9.3849024e-05 -4.6219952e-05)
(0 0.00010456644 -7.4497413e-05)
(0 0.00011330537 -0.00010149216)
(0 0.00012001266 -0.00012668611)
(0 0.00012464012 -0.00014965049)
(0 0.00012709835 -0.00016998622)
(0 0.00012733234 -0.00018723711)
(0 0.00012519797 -0.00020085844)
(0 0.00012039394 -0.00021001239)
(0 0.00011227788 -0.00021314384)
(0 9.9453607e-05 -0.00020686833)
(0 7.9397245e-05 -0.00018359775)
(0 4.8252467e-05 -0.00012799274)
(0 0 0)
(0 0.0001077297 -0.00016326418)
(0 8.76907e-05 -0.00015482698)
(0 6.6032927e-05 -0.00014372305)
(0 4.3294197e-05 -0.00013013447)
(0 1.9961093e-05 -0.00011425936)
(0 -3.5422135e-06 -9.6307266e-05)
(0 -2.6897277e-05 -7.6557592e-05)
(0 -4.9707121e-05 -5.5299508e-05)
(0 -7.1595576e-05 -3.2905179e-05)
(0 -9.2167523e-05 -9.8070609e-06)
(0 -0.00011103144 1.3580544e-05)
(0 -0.00012782223 3.6845207e-05)