/*--------------------------------*- C++ -*----------------------------------*\
| =========                 |                                                 |
| \\      /  F ield         | OpenFOAM: The Open Source CFD Toolbox           |
|  \\    /   O peration     | Version:  4.1                                   |
|   \\  /    A nd           | Web:      www.OpenFOAM.org                      |
|    \\/     M anipulation  |                                                 |
\*---------------------------------------------------------------------------*/
FoamFile
{
    version     2.0;
    format      ascii;
    class       volVectorField;
    location    "0.000380";
    object      wallShearStress;
}
// * * * * * * * * * * * * * * * * * * * * * * * * * * * * * * * * * * * * * //

dimensions      [0 2 -2 0 0 0 0];

internalField   uniform (0 0 0);

boundaryField
{
    inlet
    {
        type            calculated;
        value           uniform (0 0 0);
    }
    outlet
    {
        type            calculated;
        value           nonuniform 0();
    }
    mantle
    {
        type            calculated;
        value           nonuniform List<vector> 
768
(
(-0.16909565 0.002514372 0.0015320599)
(-0.17450907 0.0053711858 -0.0018808922)
(-0.18268614 0.0077166562 -0.0067545249)
(-0.19322052 0.0099341468 -0.014188481)
(-0.20523954 0.010704961 -0.023866793)
(-0.21590261 0.0095888676 -0.033730502)
(-0.2248876 0.0069471371 -0.042946238)
(-0.2310379 0.0021892302 -0.050674)
(-0.15521646 -0.010453592 0.0023206477)
(-0.16315352 -0.0069375414 0.0017939124)
(-0.17444728 -0.0032764733 -0.00042095925)
(-0.18942745 0.00079005737 -0.0055301825)
(-0.20802155 0.0040965014 -0.013742814)
(-0.22856807 0.0059852465 -0.024212698)
(-0.24917015 0.0059073664 -0.035537166)
(-0.26648346 0.0024728508 -0.045441422)
(-0.14038596 -0.012528179 0.0017532497)
(-0.15032896 -0.010316951 0.0018416191)
(-0.16378045 -0.0078524979 0.0012012861)
(-0.18126821 -0.0048683707 -0.0010905145)
(-0.20338646 -0.0019523805 -0.0053190088)
(-0.22983136 0.00054615599 -0.011529334)
(-0.25838364 0.00211264 -0.019243248)
(-0.28237487 0.0013099243 -0.026182841)
(-0.12795816 -0.010782664 0.0011850753)
(-0.13928438 -0.0096216033 0.0012695111)
(-0.15432204 -0.0081890649 0.0010592743)
(-0.1733347 -0.0064105927 2.9011379e-05)
(-0.19718681 -0.0044727521 -0.0019103941)
(-0.22620254 -0.0024845998 -0.0048355156)
(-0.25874027 -0.00067168705 -0.0087652903)
(-0.28594153 0.00024564854 -0.012465619)
(-0.11869149 -0.0074963466 0.00066680381)
(-0.13099861 -0.0069087024 0.00048059548)
(-0.1472743 -0.00612731 6.8693272e-05)
(-0.16757877 -0.0051927753 -0.00084143463)
(-0.19286267 -0.0041866731 -0.0021419989)
(-0.22346154 -0.0029949327 -0.0037727159)
(-0.25791012 -0.0016376388 -0.0056152165)
(-0.28646462 -0.00011846628 -0.0074653398)
(-0.11240867 -0.004698775 0.00025178915)
(-0.12533931 -0.0043905447 -0.00023952824)
(-0.14245381 -0.0040127611 -0.00093854008)
(-0.16375243 -0.0035864925 -0.0020075041)
(-0.19016007 -0.0031836625 -0.0032885143)
(-0.22215364 -0.002555919 -0.0047002964)
(-0.25784303 -0.0016501483 -0.0059673699)
(-0.2870479 -8.1747587e-05 -0.0074604537)
(-0.10823629 -0.0028867491 -3.2029794e-05)
(-0.1214752 -0.0027268037 -0.00074995654)
(-0.13906247 -0.0026186538 -0.0016473498)
(-0.1610479 -0.002550589 -0.0028136646)
(-0.18831517 -0.00252077 -0.0041212861)
(-0.22142451 -0.0022447912 -0.005467004)
(-0.25811194 -0.00159007 -0.0066378888)
(-0.28799104 -2.784112e-05 -0.008331089)
(-0.10550916 -0.0016272473 -0.0002199323)
(-0.11888115 -0.0015575577 -0.0010876397)
(-0.13667775 -0.0016832455 -0.0021092481)
(-0.15900053 -0.0019536629 -0.0032804678)
(-0.18684238 -0.0022813049 -0.0044808161)
(-0.22066955 -0.0022628447 -0.0056605726)
(-0.25804289 -0.0017402022 -0.0066623117)
(-0.28864366 -8.1880564e-05 -0.0084150662)
(-0.10404771 -0.00066666599 -0.00035901997)
(-0.11741325 -0.00067015516 -0.0013409069)
(-0.13518066 -0.001006623 -0.0024341253)
(-0.15747848 -0.0015720445 -0.0035482394)
(-0.18538649 -0.0022232728 -0.0045358766)
(-0.21954861 -0.0024546584 -0.0054430271)
(-0.25717506 -0.0020316373 -0.0061184495)
(-0.28815214 -0.00019585057 -0.0076696406)
(-0.10358978 0.00023071699 -0.00048961592)
(-0.11684261 0.00014828619 -0.001560399)
(-0.1344113 -0.00038611612 -0.0026914926)
(-0.15645257 -0.0012371518 -0.0037106066)
(-0.18407172 -0.0021928229 -0.0044420637)
(-0.21806427 -0.0026991375 -0.00492229)
(-0.25538801 -0.0023143672 -0.0051889061)
(-0.28621721 -0.00030339633 -0.0063654466)
(-0.10424012 0.001047448 -0.00058231176)
(-0.11730686 0.00090503244 -0.0017251556)
(-0.13451193 0.00018220534 -0.002893648)
(-0.15601034 -0.00094048757 -0.0037906568)
(-0.18292018 -0.0021653021 -0.0042292529)
(-0.21610816 -0.0029158075 -0.0042258161)
(-0.2527193 -0.0025695413 -0.0040343835)
(-0.28289746 -0.00042605659 -0.0047562605)
(-0.10584621 0.001803538 -0.00066427575)
(-0.11862005 0.0015981114 -0.0018665799)
(-0.13529463 0.00070121274 -0.0030467106)
(-0.15605032 -0.0006552367 -0.003809736)
(-0.18198052 -0.0021201463 -0.0039382644)
(-0.21387606 -0.0030669909 -0.0034674055)
(-0.24923409 -0.0027798509 -0.0027602877)
(-0.27825116 -0.00055374683 -0.0029994459)
(-0.10849742 0.002591375 -0.0007488041)
(-0.12086326 0.002311526 -0.0020043986)
(-0.13686031 0.001234978 -0.0031672219)
(-0.15667034 -0.0003534269 -0.0037651083)
(-0.18124628 -0.002040874 -0.0035675875)
(-0.21142188 -0.0031609358 -0.0026381806)
(-0.24499746 -0.0029374732 -0.0014263685)
(-0.27237573 -0.00067306697 -0.0011950411)
(-0.11227354 0.0033731892 -0.00082601196)
(-0.12407469 0.0030062082 -0.0021172047)
(-0.13916074 0.0017579731 -0.0032368682)
(-0.15773245 -4.557046e-05 -0.003650531)
(-0.1806743 -0.0019123166 -0.0031438096)
(-0.20872901 -0.0031831947 -0.0017683288)
(-0.24007354 -0.0030307397 -8.5173338e-05)
(-0.26541615 -0.00077652627 0.00057546136)
(-0.11705823 0.0042093484 -0.00090053792)
(-0.12814387 0.0037375362 -0.0022186422)
(-0.14213438 0.0023153847 -0.0032739367)
(-0.15926625 0.00031565822 -0.003495223)
(-0.18031986 -0.0017210417 -0.0026727091)
(-0.20586645 -0.0031145451 -0.00089994241)
(-0.23455327 -0.0030428902 0.0012061518)
(-0.25755422 -0.00085531203 0.0022477349)
(-0.12316164 0.0050396097 -0.00096083997)
(-0.13329362 0.0044469811 -0.0022840591)
(-0.14589504 0.00285807 -0.0032506399)
(-0.16128372 0.00068767622 -0.0032698056)
(-0.18009598 -0.0014826507 -0.0021479405)
(-0.202874 -0.0029705063 -2.6670433e-05)
(-0.22855401 -0.0029884563 0.0024528349)
(-0.2489623 -0.00091452303 0.003790767)
(-0.13023606 0.0058323059 -0.00099999436)
(-0.13919585 0.005115385 -0.0023043094)
(-0.15020095 0.0033794244 -0.0031638538)
(-0.16362425 0.0010781901 -0.0029854721)
(-0.18002357 -0.001191457 -0.0015873678)
(-0.19974122 -0.002754093 0.00084309205)
(-0.22205212 -0.002877162 0.0036431829)
(-0.23982893 -0.00095982231 0.0052057771)
(-0.13856346 0.0066843428 -0.001026498)
(-0.14607159 0.0058131858 -0.0022840805)
(-0.1552064 0.0039151545 -0.0030094887)
(-0.16642497 0.0014803094 -0.0026256972)
(-0.18009858 -0.00087124693 -0.00098284971)
(-0.19650966 -0.0024738676 0.0016705005)
(-0.21514975 -0.0026913996 0.0047026766)
(-0.23024411 -0.00097755611 0.0064951008)
(-0.14809292 0.0074986911 -0.0010295052)
(-0.15379038 0.006458681 -0.0022028513)
(-0.16072574 0.0044140987 -0.0027706534)
(-0.16942396 0.0018680608 -0.0021866591)
(-0.18020257 -0.00052201131 -0.00035933258)
(-0.19326115 -0.0021512885 0.002458192)
(-0.20807144 -0.0024405581 0.0056123068)
(-0.22030586 -0.00096481715 0.0076166586)
(-0.15875377 0.0083436534 -0.0010148195)
(-0.16230369 0.0071122305 -0.0020763837)
(-0.16674476 0.0049238734 -0.0024735861)
(-0.17269435 0.0022864966 -0.0017051487)
(-0.18041687 -0.00013974197 0.0002796628)
(-0.18995361 -0.0017939755 0.0031982849)
(-0.20090675 -0.0021525148 0.0063666779)
(-0.21018265 -0.00093306713 0.0084974981)
(-0.17079269 0.009055904 -0.00096212316)
(-0.17172551 0.0076405599 -0.0018703369)
(-0.17329412 0.0053432933 -0.002077675)
(-0.17619782 0.0026582646 -0.0011438803)
(-0.18062784 0.00022631391 0.00094371137)
(-0.18660369 -0.0014186276 0.0038570612)
(-0.19378121 -0.0018416481 0.0069531474)
(-0.20010519 -0.00088715236 0.0091139661)
(-0.18364253 0.0096350312 -0.00086983935)
(-0.18160505 0.0080526708 -0.0015818894)
(-0.18005662 0.0056776834 -0.00159004)
(-0.17975518 0.0029883203 -0.0005266469)
(-0.1808288 0.00059412172 0.0015897915)
(-0.18328982 -0.0010320339 0.0044373271)
(-0.18679176 -0.0015195552 0.0073874578)
(-0.1902481 -0.00083382267 0.0094939996)
(-0.19772445 0.010015557 -0.00072899124)
(-0.19221919 0.0082992515 -0.0011933038)
(-0.18719622 0.0059012785 -0.00099728703)
(-0.18347822 0.0032483538 0.00016482218)
(-0.18111756 0.00091802039 0.0022545744)
(-0.18004937 -0.00067065499 0.0049606244)
(-0.18002852 -0.0012096321 0.0076892102)
(-0.18076861 -0.00077849549 0.0096789632)
(-0.21229343 0.010078452 -0.00052974154)
(-0.20299936 0.0082988367 -0.00069020453)
(-0.1943306 0.0059515683 -0.00029294184)
(-0.18709074 0.0034009028 0.00092387893)
(-0.18129751 0.0011765551 0.0029260949)
(-0.17687747 -0.00034360792 0.0054168497)
(-0.17359113 -0.00091298467 0.0078645605)
(-0.17180093 -0.00072319384 0.0097347288)
(-0.23104718 -0.0022193468 -0.050658674)
(-0.22488786 -0.0069222752 -0.042974899)
(-0.21587588 -0.0096074718 -0.033762286)
(-0.20513944 -0.010704058 -0.023852213)
(-0.19316437 -0.0099099676 -0.014182589)
(-0.18265615 -0.007717544 -0.0067628033)
(-0.17447404 -0.0053762606 -0.001886572)
(-0.16905874 -0.0025217769 0.0015314024)
(-0.26652117 -0.0025012052 -0.045422169)
(-0.2491966 -0.0058817799 -0.035567365)
(-0.2285434 -0.006013591 -0.024241826)
(-0.2078942 -0.0041042555 -0.013739542)
(-0.18936314 -0.00077389187 -0.0055379841)
(-0.17442035 0.0032715636 -0.00043782963)
(-0.16311991 0.0069262889 0.0017845631)
(-0.15517857 0.010440831 0.0023202325)
(-0.28243121 -0.0013301903 -0.026154168)
(-0.25842558 -0.0020984486 -0.019256255)
(-0.22981289 -0.00057930181 -0.011546018)
(-0.20328207 0.0019308827 -0.0053357516)
(-0.18121495 0.0048727915 -0.0011059579)
(-0.16375407 0.0078502694 0.0011864815)
(-0.1502984 0.010308919 0.0018335658)
(-0.14035198 0.012518753 0.0017530858)
(-0.28598327 -0.00025370209 -0.012433113)
(-0.25876579 0.00067263982 -0.0087593476)
(-0.22619097 0.0024580264 -0.004838778)
(-0.19713532 0.0044508791 -0.0019283009)
(-0.17329919 0.0064076057 1.9721956e-05)
(-0.15429113 0.0081883447 0.001053995)
(-0.13925309 0.0096199685 0.0012672493)
(-0.12792534 0.010781713 0.0011864459)
(-0.28647492 0.00011663297 -0.0074413514)
(-0.25791048 0.0016302452 -0.0056011385)
(-0.22345601 0.0029780366 -0.00376783)
(-0.19283862 0.0041729079 -0.0021466427)
(-0.16754908 0.0051884627 -0.0008396238)
(-0.14724304 0.0061276596 7.2027757e-05)
(-0.13096706 0.0069115979 0.00048314263)
(-0.11865871 0.0075007447 0.00066905233)
(-0.28704027 7.5686501e-05 -0.007449186)
(-0.25782174 0.0016360075 -0.0059565572)
(-0.22214938 0.0025441283 -0.0046894926)
(-0.19014454 0.0031758213 -0.0032812744)
(-0.16372687 0.0035828901 -0.0020000984)
(-0.14242414 0.0040141993 -0.00093164408)
(-0.12530876 0.004394951 -0.00023522915)
(-0.11237647 0.0047044441 0.00025379603)
(-0.28797678 1.2160658e-05 -0.0083257377)
(-0.25809264 0.0015708075 -0.0066319987)
(-0.22141939 0.0022328163 -0.0054528293)
(-0.18830011 0.0025138801 -0.0041082629)
(-0.16103012 0.0025502314 -0.0028024159)
(-0.13903981 0.0026217488 -0.0016393338)
(-0.12145074 0.0027310571 -0.000745983)
(-0.10821019 0.0028906782 -3.134224e-05)
(-0.2886293 5.9553149e-05 -0.0084105775)
(-0.25802888 0.0017174638 -0.0066549356)
(-0.22066223 0.0022486345 -0.0056424167)
(-0.18683411 0.002276137 -0.0044639427)
(-0.15898297 0.0019569882 -0.0032651783)
(-0.13665775 0.0016891158 -0.0020983692)
(-0.1188613 0.0015647764 -0.0010821222)
(-0.10548938 0.0016338706 -0.00021918404)
(-0.28813747 0.0001718044 -0.0076645259)
(-0.25716154 0.0020085109 -0.0061065756)
(-0.21953925 0.0024389789 -0.0054244286)
(-0.18537492 0.002218383 -0.0045136029)
(-0.15745997 0.0015753745 -0.0035288638)
(-0.13516026 0.0010146036 -0.0024197891)
(-0.11739292 0.00067985672 -0.001332864)
(-0.1040274 0.00067690755 -0.00035677833)
(-0.28620018 0.0002811997 -0.0063597618)
(-0.25537162 0.0022925585 -0.0051746911)
(-0.21805877 0.0026828972 -0.0049026878)
(-0.1840588 0.0021852012 -0.0044193279)
(-0.15643139 0.0012376535 -0.0036904179)
(-0.13438943 0.00039096712 -0.0026770403)
(-0.11682101 -0.00014127498 -0.0015518501)
(-0.103569 -0.00022314081 -0.0004868348)
(-0.28287548 0.00040799429 -0.0047510602)
(-0.25269309 0.0025508994 -0.0040196284)
(-0.21609465 0.0029012793 -0.0042039292)
(-0.18290472 0.0021563935 -0.0042067438)
(-0.15599049 0.0009376378 -0.0037718441)
(-0.13449308 -0.00018137696 -0.002880449)
(-0.11728905 -0.00090276838 -0.0017175799)
(-0.10422526 -0.0010452278 -0.00058010493)
(-0.27822292 0.00053975558 -0.0029958572)
(-0.24919481 0.002763998 -0.0027486952)
(-0.21384745 0.0030540519 -0.0034485403)
(-0.1819565 0.0021115906 -0.0039187318)
(-0.15602921 0.00065172832 -0.003793145)
(-0.13527825 -0.00070111222 -0.0030346055)
(-0.11860879 -0.0015973969 -0.0018600456)
(-0.10584062 -0.0018031486 -0.00066316372)
(-0.2723415 0.0006624527 -0.0011934267)
(-0.24494684 0.0029242759 -0.0014202541)
(-0.21137992 0.003148892 -0.0026263317)
(-0.18121349 0.0020318594 -0.003554012)
(-0.15664504 0.00034885006 -0.0037527085)
(-0.13684133 -0.0012364381 -0.0031580854)
(-0.12085546 -0.0023123403 -0.0019999867)
(-0.10849936 -0.002592401 -0.00074928339)
(-0.26537749 0.00076973602 0.00057467415)
(-0.24001275 0.0030214823 -8.4445848e-05)
(-0.2086738 0.0031722965 -0.0017639669)
(-0.18063213 0.0019020165 -0.0031369788)
(-0.15770308 3.771537e-05 -0.0036437481)
(-0.13914358 -0.0017638403 -0.0032321162)
(-0.12407376 -0.0030108108 -0.0021156713)
(-0.11228626 -0.0033778658 -0.00082819542)
(-0.25751575 0.0008520042 0.0022452657)
(-0.2344856 0.0030378303 0.0012028431)
(-0.20580095 0.0031059603 -0.00090159573)
(-0.18027004 0.0017110065 -0.002672631)
(-0.15923411 -0.00032484582 -0.0034942666)
(-0.14211926 -0.0023232472 -0.0032732533)
(-0.1281486 -0.0037438213 -0.0022196018)
(-0.11708129 -0.0042152869 -0.00090410548)
(-0.24892822 0.00091298097 0.0037882164)
(-0.22848658 0.0029864912 0.0024490884)
(-0.20280389 0.0029645972 -3.2165783e-05)
(-0.1800436 0.0014751317 -0.0021538017)
(-0.16124996 -0.0006951244 -0.0032747248)
(-0.14588021 -0.0028653316 -0.0032547207)
(-0.13330049 -0.0044534238 -0.002288279)
(-0.12318913 -0.0050457047 -0.00096592478)
(-0.23980275 0.00095681908 0.0052038528)
(-0.22198608 0.0028757447 0.0036389699)
(-0.19967698 0.0027508886 0.0008353368)
(-0.17997587 0.0011882582 -0.0015959771)
(-0.16359288 -0.001081948 -0.0029942156)
(-0.15018791 -0.0033851746 -0.0031726396)
(-0.13920511 -0.0051221673 -0.0023124423)
(-0.13026681 -0.0058407504 -0.0010068429)
(-0.2302285 0.00097053642 0.0064943979)
(-0.21509988 0.0026882606 0.0046980498)
(-0.19645764 0.0024732496 0.0016637787)
(-0.1800555 0.00087325512 -0.00099061041)
(-0.16639641 -0.0014780319 -0.0026351564)
(-0.15519878 -0.0039154449 -0.0030201737)
(-0.14608544 -0.0058165334 -0.0022943091)
(-0.138599 -0.0066918018 -0.0010341257)
(-0.22030105 0.00095452598 0.0076173848)
(-0.20803899 0.0024357146 0.005611756)
(-0.19322403 0.0021516263 0.0024557342)
(-0.18016617 0.00052733915 -0.00036375233)
(-0.169397 -0.0018606428 -0.002193858)
(-0.16071534 -0.0044077014 -0.0027793186)
(-0.15380035 -0.006456264 -0.0022118143)
(-0.14812384 -0.0075011384 -0.0010360393)
(-0.21018595 0.00092198706 0.00849999)
(-0.2008876 0.0021466673 0.0063701889)
(-0.18992983 0.001794211 0.0032015994)
(-0.18038783 0.00014595799 0.0002809909)
(-0.17266864 -0.0022774358 -0.001706578)
(-0.16673031 -0.0049145934 -0.0024767024)
(-0.16230809 -0.0071052385 -0.0020805146)
(-0.15877756 -0.0083397549 -0.001018042)
(-0.20011268 0.00087766084 0.0091169195)
(-0.19377065 0.0018358804 0.0069578831)
(-0.1865885 0.001417648 0.0038634169)
(-0.1806045 -0.00022214224 0.00094971766)
(-0.1761723 -0.00265047 -0.0011389386)
(-0.1732758 -0.0053329736 -0.0020734989)
(-0.17172307 -0.0076292018 -0.0018676337)
(-0.1708079 -0.0090440607 -0.00096068366)
(-0.1902572 0.00082828771 0.0094959623)
(-0.18678687 0.0015153419 0.0073898526)
(-0.18328077 0.0010306827 0.004442979)
(-0.18080983 -0.00059289765 0.0015963201)
(-0.1797306 -0.0029835666 -0.00051860449)
(-0.18003497 -0.0056683177 -0.001581024)
(-0.18159612 -0.0080395629 -0.0015740878)
(-0.18364725 -0.0096185649 -0.00086430134)
(-0.18077718 0.00077889269 0.0096804329)
(-0.18002752 0.0012089527 0.0076871108)
(-0.1800408 0.00067021028 0.0049610017)
(-0.18110243 -0.0009183272 0.0022571834)
(-0.18345486 -0.0032467182 0.00017088802)
(-0.18717185 -0.0058952785 -0.00098867554)
(-0.19220452 -0.0082881771 -0.0011845673)
(-0.19771997 -0.0099999479 -0.00072144276)
(-0.17180078 0.0007284662 0.0097326987)
(-0.17359555 0.00091662229 0.0078592819)
(-0.17687287 0.0003454314 0.0054105177)
(-0.18128347 -0.0011763149 0.0029216376)
(-0.1870675 -0.0034016465 0.00092317328)
(-0.19430376 -0.0059507416 -0.00028966446)
(-0.20297817 -0.0082944025 -0.00068448653)
(-0.21227791 -0.010070097 -0.00052270509)
(-0.16905936 -0.0025199021 -0.0015337601)
(-0.17447448 -0.0053764548 0.0018819794)
(-0.18265364 -0.0077194409 0.0067583743)
(-0.19319066 -0.0099327139 0.014192279)
(-0.20521237 -0.010701249 0.023867413)
(-0.21588201 -0.0095845253 0.033726754)
(-0.22487084 -0.0069436881 0.042938818)
(-0.23102419 -0.0021871322 0.050662993)
(-0.15517907 0.010442657 -0.0023219661)
(-0.16311771 0.0069274013 -0.0017907218)
(-0.17441294 0.0032693275 0.00042891339)
(-0.18939442 -0.00079152487 0.0055393913)
(-0.20799299 -0.0040933351 0.013749384)
(-0.22854081 -0.0059802735 0.024214006)
(-0.24914678 -0.0059020634 0.03553244)
(-0.26645725 -0.0024685077 0.045430481)
(-0.14035297 0.012519341 -0.0017567414)
(-0.15029675 0.010308407 -0.0018407762)
(-0.16374891 0.0078455447 -0.0011965002)
(-0.18123767 0.0048648944 0.0010973885)
(-0.20335876 0.0019521999 0.0053244616)
(-0.22980831 -0.00054598607 0.011533044)
(-0.25835488 -0.0021122138 0.01924216)
(-0.28233642 -0.0013091655 0.026178145)
(-0.12792712 0.010781855 -0.0011915676)
(-0.13925388 0.0096191465 -0.0012739291)
(-0.15429223 0.0081856346 -0.00106203)
(-0.17330477 0.0064062145 -2.9847473e-05)
(-0.19715939 0.0044674474 0.0019107051)
(-0.226178 0.0024789387 0.0048354606)
(-0.25870724 0.00066487311 0.0087668648)
(-0.28589564 -0.00025138863 0.012467236)
(-0.1186601 0.007500719 -0.00067425922)
(-0.13096723 0.0069105759 -0.00048858288)
(-0.14724293 0.0061267484 -7.7703708e-05)
(-0.16754911 0.0051879582 0.00083328465)
(-0.19283676 0.0041774177 0.0021359209)
(-0.22343177 0.002983106 0.0037677995)
(-0.25787183 0.0016246734 0.0056136456)
(-0.2864069 0.00010664732 0.0074689712)
(-0.11237704 0.0047040604 -0.00025764984)
(-0.12530774 0.0043933418 0.00023101075)
(-0.14242081 0.0040120599 0.00092735607)
(-0.16372127 0.003580315 0.0019957036)
(-0.19013191 0.0031722613 0.0032767406)
(-0.22211447 0.0025370457 0.0046925845)
(-0.25778472 0.0016295589 0.0059640948)
(-0.28697488 6.4544503e-05 0.0074639742)
(-0.10821075 0.0028899683 2.9664531e-05)
(-0.1214499 0.002728943 0.00074334768)
(-0.13903623 0.0026180376 0.0016363163)
(-0.16102325 0.0025446928 0.002800175)
(-0.18828708 0.0025071448 0.0041070424)
(-0.22139046 0.0022223569 0.0054574453)
(-0.25804466 0.0015640891 0.0066340185)
(-0.2878976 4.9049693e-06 0.0083314099)
(-0.10549098 0.0016333764 0.00022025294)
(-0.1188614 0.0015634304 0.0010823726)
(-0.1366565 0.001686097 0.0020973239)
(-0.15897914 0.0019517876 0.0032642317)
(-0.18682036 0.0022704242 0.00446271)
(-0.22063263 0.0022409782 0.0056440557)
(-0.25796883 0.0017114036 0.0066538128)
(-0.28853148 5.5115827e-05 0.0084116129)
(-0.10402954 0.00067680185 0.0003610119)
(-0.11739439 0.00067937154 0.0013357325)
(-0.13516171 0.0010133257 0.0024216379)
(-0.15745961 0.0015732199 0.0035295248)
(-0.18536277 0.0022155083 0.0045133762)
(-0.21951231 0.0024351258 0.0054234538)
(-0.2570955 0.0020039667 0.0061046289)
(-0.28802623 0.00016887976 0.0076621104)
(-0.10357228 -0.00022325545 0.00049397245)
(-0.11682599 -0.00014143025 0.001558054)
(-0.13439493 0.00039120944 0.0026819761)
(-0.15643467 0.0012386556 0.0036931619)
(-0.18405126 0.0021858629 0.0044200995)
(-0.21803238 0.0026837979 0.0048981467)
(-0.25530626 0.0022908854 0.005170779)
(-0.28608454 0.00027938822 0.0063544235)
(-0.10423047 -0.0010452588 0.00058868605)
(-0.11729792 -0.00090214514 0.0017255282)
(-0.13450259 -0.00017960929 0.0028870517)
(-0.15599766 0.0009408007 0.0037763962)
(-0.18290313 0.0021600726 0.0042085448)
(-0.21606752 0.0029057773 0.0041990037)
(-0.25263344 0.0025529029 0.0040142469)
(-0.28276624 0.00040753418 0.0047434435)
(-0.1058471 -0.0018031395 0.00067116081)
(-0.11862072 -0.0015965172 0.0018678678)
(-0.13529181 -0.00069926901 0.003041667)
(-0.15604215 0.00065589398 0.0037981232)
(-0.18196338 0.002117825 0.0039206806)
(-0.2138264 0.0030606681 0.0034467654)
(-0.24914513 0.0027688777 0.0027432428)
(-0.27812567 0.00054069187 0.0029872024)
(-0.10850713 -0.0025921958 0.00075494183)
(-0.12087143 -0.0023109946 0.0020060102)
(-0.13686203 -0.0012339575 0.0031639134)
(-0.15666244 0.00035343831 0.0037574447)
(-0.18122413 0.0020392937 0.0035564438)
(-0.21137001 0.0031565649 0.0026271472)
(-0.24490956 0.0029306265 0.0014153374)
(-0.27225722 0.0006648607 0.0011852669)
(-0.11229341 -0.0033777678 0.00083124809)
(-0.12408959 -0.0030093085 0.0021195984)
(-0.13916459 -0.0017607063 0.0032367494)
(-0.15772385 4.224335e-05 0.0036492065)
(-0.18064922 0.0019087152 0.0031413676)
(-0.20867657 0.0031796242 0.0017658113)
(-0.23998822 0.0030276844 8.0507953e-05)
(-0.26530641 0.00077276545 -0.00058176576)
(-0.1170885 -0.0042154332 0.00090523367)
(-0.12816493 -0.0037429482 0.0022223797)
(-0.14214046 -0.0023205803 0.0032777522)
(-0.15925785 -0.00031993837 0.0034997187)
(-0.18029405 0.0017176077 0.0026770335)
(-0.20581555 0.0031129043 0.00090270598)
(-0.23447574 0.0030432964 -0.0012064889)
(-0.25745989 0.00085455619 -0.0022507453)
(-0.12319534 -0.0050457901 0.00096583338)
(-0.13331497 -0.0044527143 0.0022902719)
(-0.14589907 -0.0028627148 0.0032586299)
(-0.16127279 -0.00068995 0.0032791752)
(-0.18007023 0.0014815598 0.0021572584)
(-0.2028264 0.0029714828 3.2620234e-05)
(-0.22848746 0.0029914268 -0.0024511385)
(-0.24889005 0.00091472656 -0.0037912161)
(-0.13027164 -0.0058410562 0.0010060724)
(-0.13921701 -0.0051223165 0.0023138769)
(-0.15020381 -0.0033838208 0.0031760045)
(-0.16361407 -0.001078319 0.002998024)
(-0.18000354 0.0011933355 0.0015989968)
(-0.1997032 0.0027571793 -0.00083431754)
(-0.22199983 0.0028805784 -0.0036384599)
(-0.23978116 0.00095899546 -0.0052047733)
(-0.13860239 -0.0066923214 0.0010327366)
(-0.14609571 -0.0058175551 0.0022951656)
(-0.15521336 -0.0039155836 0.0030228789)
(-0.1664166 -0.0014767013 0.0026384632)
(-0.18008228 0.00087617668 0.00099351868)
(-0.19648494 0.0024777699 -0.0016616641)
(-0.21512062 0.00269349 -0.00469619)
(-0.23021732 0.0009755557 -0.0064936569)
(-0.14812578 -0.0075015171 0.0010342658)
(-0.153809 -0.0064572953 0.0022121459)
(-0.16072909 -0.0044085325 0.0027812786)
(-0.16941762 -0.0018612905 0.0021965999)
(-0.18019291 0.00052772302 0.00036684289)
(-0.19325105 0.0021538509 -0.0024520273)
(-0.20806132 0.0024406652 -0.0056080526)
(-0.22029642 0.00096173296 -0.0076153854)
(-0.15877812 -0.0083398283 0.0010169873)
(-0.16231591 -0.0071061852 0.0020811374)
(-0.16674501 -0.0049163082 0.0024784832)
(-0.17269056 -0.0022799819 0.0017089104)
(-0.18041423 0.00014390562 -0.00027782604)
(-0.18995616 0.0017945067 -0.0031972115)
(-0.20090942 0.0021504936 -0.0063659273)
(-0.21018485 0.00092921082 -0.008496991)
(-0.17080785 -0.0090437525 0.0009611407)
(-0.17173227 -0.0076294221 0.0018688808)
(-0.17329447 -0.005334286 0.0020747818)
(-0.17619782 -0.002653058 0.0011399973)
(-0.18063145 -0.00022481284 -0.00094803619)
(-0.18661165 0.0014170459 -0.0038605534)
(-0.19378841 0.0018385541 -0.0069549407)
(-0.20011298 0.0008835929 -0.0091141539)
(-0.18364677 -0.0096176809 0.00086639937)
(-0.18160599 -0.0080382269 0.0015757992)
(-0.18005573 -0.0056676285 0.001581448)
(-0.17975654 -0.0029838564 0.00051755892)
(-0.18083404 -0.00059377069 -0.0015976619)
(-0.18329843 0.0010303089 -0.0044432281)
(-0.18679853 0.001516802 -0.0073896005)
(-0.19025717 0.00083174319 -0.0094943519)
(-0.19771905 -0.009998397 0.00072486842)
(-0.19221453 -0.0082853366 0.0011867794)
(-0.18719362 -0.005892448 0.00098863438)
(-0.18347905 -0.0032446414 -0.0001735204)
(-0.18112184 -0.00091726177 -0.0022613088)
(-0.18005232 0.0006702544 -0.0049647187)
(-0.18003238 0.001208835 -0.0076898872)
(-0.18077569 0.00077893057 -0.0096797642)
(-0.21227558 -0.010068204 0.00052652354)
(-0.20298677 -0.0082908798 0.00068713985)
(-0.19432493 -0.0059466327 0.0002899589)
(-0.18708905 -0.0033980548 -0.00092612619)
(-0.18129758 -0.0011744002 -0.0029268991)
(-0.17687786 0.0003450653 -0.0054161769)
(-0.17359446 0.0009142087 -0.0078637843)
(-0.17180008 0.00072502562 -0.0097328204)
(-0.23103865 0.0022200877 0.050650621)
(-0.22488337 0.0069254912 0.042962476)
(-0.21587724 0.0096113627 0.033745311)
(-0.20514855 0.010706927 0.023831634)
(-0.19317996 0.0099106166 0.014161994)
(-0.18267999 0.0077150597 0.0067456738)
(-0.17450486 0.0053722373 0.0018744679)
(-0.16909351 0.0025156156 -0.0015393341)
(-0.26650143 0.0025047019 0.045413445)
(-0.24917969 0.0058872857 0.035552251)
(-0.22853444 0.006019476 0.024221032)
(-0.20789362 0.0041090317 0.013716281)
(-0.18937734 0.00077540126 0.0055156131)
(-0.17444474 -0.0032738557 0.00041819908)
(-0.163153 -0.0069324726 -0.0017997421)
(-0.15521333 -0.010451193 -0.0023307996)
(-0.2823994 0.0013315946 0.026150823)
(-0.25838926 0.0021028544 0.019247527)
(-0.22978249 0.00058696122 0.011532421)
(-0.20327263 -0.0019225821 0.0053201249)
(-0.18122399 -0.0048674085 0.0010882708)
(-0.16377617 -0.007848024 -0.0012031558)
(-0.15032881 -0.010311621 -0.0018480119)
(-0.14038167 -0.012525881 -0.0017641397)
(-0.28594107 0.00025062455 0.012436833)
(-0.25871774 -0.00067098621 0.0087601053)
(-0.22615414 -0.0024504367 0.0048378251)
(-0.19712002 -0.0044415862 0.0019235225)
(-0.17330444 -0.0063992512 -2.8087527e-05)
(-0.15431293 -0.0081820254 -0.0010638672)
(-0.1392822 -0.0096166266 -0.0012774914)
(-0.12795367 -0.010780941 -0.0011954451)
(-0.28641863 -0.00012356523 0.0074482531)
(-0.25784812 -0.0016313389 0.0056087582)
(-0.22341247 -0.0029743632 0.0037726351)
(-0.19282229 -0.0041667811 0.0021487477)
(-0.16755401 -0.0051810724 0.00083876551)
(-0.14726286 -0.0061198622 -7.5429849e-05)
(-0.13099557 -0.0069044758 -0.00048874486)
(-0.11868794 -0.0074950908 -0.00067523263)
(-0.28696136 -8.5867385e-05 0.0074552877)
(-0.25775103 -0.0016417767 0.0059658083)
(-0.22209704 -0.0025463882 0.0046970482)
(-0.19011896 -0.0031748255 0.0032859044)
(-0.16372515 -0.0035805799 0.0020011519)
(-0.14244165 -0.0040095283 0.00093147705)
(-0.12533624 -0.0043891485 0.00023294284)
(-0.11240597 -0.0046986142 -0.00025697874)
(-0.2878748 -2.6971434e-05 0.0083302932)
(-0.25800619 -0.001581777 0.0066386438)
(-0.22135302 -0.0022408532 0.0054606698)
(-0.18826198 -0.0025192213 0.0041137729)
(-0.16101168 -0.0025520446 0.0028056547)
(-0.1390437 -0.0026218363 0.0016407416)
(-0.12146804 -0.0027293001 0.00074593849)
(-0.10823246 -0.0028881749 3.0780214e-05)
(-0.28850502 -7.8373742e-05 0.0084135818)
(-0.25792506 -0.0017329801 0.006660861)
(-0.22058387 -0.0022595725 0.0056534109)
(-0.18677723 -0.0022824444 0.0044732453)
(-0.15895183 -0.0019585086 0.0032741656)
(-0.13664819 -0.0016891292 0.0021059578)
(-0.11886734 -0.0015616658 0.0010881536)
(-0.10550332 -0.0016290981 0.00022314428)
(-0.28799772 -0.00019372626 0.0076660612)
(-0.25704556 -0.002027788 0.0061137285)
(-0.21945256 -0.0024532212 0.0054353702)
(-0.18531258 -0.0022254931 0.0045283793)
(-0.15742247 -0.0015773095 0.0035442493)
(-0.13514489 -0.0010129589 0.0024341034)
(-0.11739551 -0.00067464852 0.0013449728)
(-0.10404059 -0.00066869385 0.00036607327)
(-0.28605616 -0.00030419025 0.006358723)
(-0.2552512 -0.0023152409 0.0051820937)
(-0.2179576 -0.002701573 0.0049138156)
(-0.18398997 -0.0021970234 0.0044348542)
(-0.15639173 -0.0012438884 0.0037073442)
(-0.13437151 -0.00039323211 0.0026935522)
(-0.11682207 0.00014336316 0.0015669012)
(-0.10358154 0.00022875188 0.00049850288)
(-0.28273851 -0.00042952499 0.0047472159)
(-0.25257798 -0.0025744199 0.0040258292)
(-0.21599104 -0.0029217809 0.0042170103)
(-0.18282979 -0.0021718498 0.0042229777)
(-0.15594188 -0.00094904189 0.0037880594)
(-0.13446648 0.00017336665 0.0028964238)
(-0.11728331 0.0008986958 0.0017328036)
(-0.10423061 0.0010449383 0.00059207453)
(-0.27809971 -0.000557615 0.0029898518)
(-0.24909028 -0.0027855948 0.0027520961)
(-0.21374938 -0.0030741818 0.0034598342)
(-0.18188278 -0.0021286807 0.0039323654)
(-0.15597482 -0.00066531982 0.0038077859)
(-0.13524305 0.00069085759 0.0030502301)
(-0.11859218 0.001590084 0.0018749868)
(-0.10583501 0.0018004205 0.00067499231)
(-0.27223361 -0.00067515285 0.0011858989)
(-0.24485669 -0.0029416976 0.0014201855)
(-0.21129139 -0.0031675032 0.0026333776)
(-0.18113843 -0.0020503684 0.0035624461)
(-0.15658631 -0.00036436396 0.0037639166)
(-0.13680236 0.0012235193 0.0031711119)
(-0.1208303 0.0023026273 0.0020130086)
(-0.10848448 0.002587879 0.00075970515)
(-0.26528391 -0.00077714876 -0.00058297616)
(-0.23993897 -0.0030333369 8.0870441e-05)
(-0.2085981 -0.0031877321 0.0017664473)
(-0.18055756 -0.0019196326 0.0031419918)
(-0.15763963 -5.5304837e-05 0.0036509849)
(-0.13909409 0.00174738 0.0032411939)
(-0.12403546 0.0029981186 0.0021254331)
(-0.11225811 0.0033701031 0.00083613998)
(-0.25743547 -0.00085577431 -0.0022523267)
(-0.23442556 -0.0030442625 -0.0012086326)
(-0.20573889 -0.0031158403 0.00090004126)
(-0.18020252 -0.0017235167 0.0026747844)
(-0.15916584 0.0003105771 0.0034986834)
(-0.14205969 0.0023095012 0.0032801146)
(-0.12809835 0.0037329345 0.0022273059)
(-0.11703986 0.0042076776 0.00091043905)
(-0.24886008 -0.00091515606 -0.0037926916)
(-0.22843439 -0.0029891554 -0.0024546617)
(-0.20275113 -0.0029694259 2.7966475e-05)
(-0.17998446 -0.001481995 0.0021513012)
(-0.16118659 0.00068655891 0.0032750612)
(-0.14582102 0.0028557951 0.0032578872)