/*--------------------------------*- C++ -*----------------------------------*\
| =========                 |                                                 |
| \\      /  F ield         | OpenFOAM: The Open Source CFD Toolbox           |
|  \\    /   O peration     | Version:  4.1                                   |
|   \\  /    A nd           | Web:      www.OpenFOAM.org                      |
|    \\/     M anipulation  |                                                 |
\*---------------------------------------------------------------------------*/
FoamFile
{
    version     2.0;
    format      ascii;
    class       pointVectorField;
    location    "0.0088";
    object      pointDisplacement_Next_Iter4;
}
// * * * * * * * * * * * * * * * * * * * * * * * * * * * * * * * * * * * * * //

dimensions      [0 1 0 0 0 0 0];

internalField   uniform (0 0 0);

boundaryField
{
    inlet
    {
        type            fixedValue;
        value           uniform (0 0 0);
    }
    outlet
    {
        type            fixedValue;
        value           uniform (0 0 0);
    }
    mantle
    {
        type            fixedValue;
        value           nonuniform List<vector> 
1568
(
(4.4185e-12 -2.2168e-12 -7.3949e-17)
(1.108e-05 -5.3708e-06 -1.8619e-10)
(1.0922e-05 -4.9009e-06 7.5801e-07)
(1.7855e-08 -4.6074e-08 -3.6632e-08)
(1.0766e-05 -4.2148e-06 1.7448e-06)
(5.3011e-12 -4.6366e-12 1.7624e-12)
(1.0923e-05 -3.9986e-06 2.9257e-06)
(1.7943e-08 -6.4495e-09 5.8425e-08)
(1.1083e-05 -3.7932e-06 3.7931e-06)
(3.0761e-12 1.3958e-12 -1.3959e-12)
(1.0923e-05 -2.9259e-06 3.9985e-06)
(1.7943e-08 -5.8427e-08 6.4493e-09)
(1.0766e-05 -1.745e-06 4.2148e-06)
(5.3011e-12 -1.7624e-12 4.6364e-12)
(1.0921e-05 -7.5822e-07 4.901e-06)
(1.7853e-08 3.6631e-08 4.6074e-08)
(1.108e-05 1.2356e-12 5.3708e-06)
(4.4184e-12 -1.8258e-18 2.2168e-12)
(1.9478e-05 -6.4292e-06 -3.129e-10)
(1.9118e-05 -5.5264e-06 7.7554e-07)
(1.8841e-05 -4.5354e-06 1.8772e-06)
(1.912e-05 -4.4503e-06 3.3529e-06)
(1.9483e-05 -4.5374e-06 4.5372e-06)
(1.912e-05 -3.3533e-06 4.4502e-06)
(1.8841e-05 -1.8776e-06 4.5355e-06)
(1.9117e-05 -7.7592e-07 5.5267e-06)
(1.9478e-05 -2.691e-12 6.4295e-06)
(2.3663e-05 -8.6279e-07 -3.3176e-10)
(2.3503e-05 -5.7652e-07 -5.9044e-08)
(2.3354e-05 -2.2636e-07 9.2981e-08)
(2.3506e-05 -3.5727e-07 4.4219e-07)
(2.3666e-05 -5.9908e-07 5.9882e-07)
(2.3506e-05 -4.4264e-07 3.5731e-07)
(2.3354e-05 -9.3502e-08 2.2671e-07)
(2.3503e-05 5.8562e-08 5.7708e-07)
(2.3662e-05 -3.6835e-11 8.6341e-07)
(2.5959e-05 5.5797e-06 -3.0084e-10)
(2.6006e-05 5.2454e-06 -1.0481e-06)
(2.5982e-05 4.9096e-06 -2.0336e-06)
(2.601e-05 4.4652e-06 -2.9781e-06)
(2.5964e-05 3.963e-06 -3.9632e-06)
(2.601e-05 2.9776e-06 -4.4651e-06)
(2.5981e-05 2.033e-06 -4.909e-06)
(2.6005e-05 1.0476e-06 -5.2446e-06)
(2.5958e-05 -9.1066e-11 -5.5789e-06)
(2.9121e-05 7.1552e-06 -2.8451e-10)
(2.9102e-05 7.0295e-06 -1.4309e-06)
(2.9075e-05 6.6756e-06 -2.7647e-06)
(2.9112e-05 6.0117e-06 -3.9775e-06)
(2.9135e-05 5.0942e-06 -5.0944e-06)
(2.9112e-05 3.977e-06 -6.0115e-06)
(2.9074e-05 2.7641e-06 -6.6751e-06)
(2.9102e-05 1.4303e-06 -7.0286e-06)
(2.912e-05 -1.4299e-10 -7.1543e-06)
(3.3118e-05 5.3459e-06 -2.9071e-10)
(3.3015e-05 5.5539e-06 -1.2174e-06)
(3.2937e-05 5.4971e-06 -2.2734e-06)
(3.3031e-05 4.8396e-06 -3.0957e-06)
(3.3141e-05 3.8399e-06 -3.8402e-06)
(3.3031e-05 3.0952e-06 -4.8395e-06)
(3.2937e-05 2.2728e-06 -5.4966e-06)
(3.3015e-05 1.2168e-06 -5.5532e-06)
(3.3118e-05 -1.9266e-10 -5.3452e-06)
(3.7008e-05 3.4482e-06 -2.924e-10)
(3.696e-05 3.5769e-06 -8.1104e-07)
(3.692e-05 3.6012e-06 -1.4821e-06)
(3.6978e-05 3.1816e-06 -1.9957e-06)
(3.7034e-05 2.5274e-06 -2.5277e-06)
(3.6978e-05 1.9951e-06 -3.1815e-06)
(3.692e-05 1.4814e-06 -3.6007e-06)
(3.696e-05 8.1038e-07 -3.5763e-06)
(3.7008e-05 -2.3761e-10 -3.4476e-06)
(4.0723e-05 1.828e-06 -2.8238e-10)
(4.073e-05 1.8585e-06 -4.0856e-07)
(4.0738e-05 1.8812e-06 -7.6776e-07)
(4.0748e-05 1.7101e-06 -1.0839e-06)
(4.0748e-05 1.4172e-06 -1.4176e-06)
(4.0747e-05 1.0832e-06 -1.71e-06)
(4.0738e-05 7.6699e-07 -1.8807e-06)
(4.073e-05 4.0788e-07 -1.8579e-06)
(4.0722e-05 -2.6169e-10 -1.8275e-06)
(4.4471e-05 1.6432e-07 3.3004e-10)
(4.4476e-05 2.0811e-07 -6.2661e-08)
(4.4488e-05 2.9258e-07 -1.2122e-07)
(4.449e-05 3.2058e-07 -1.9191e-07)
(4.4492e-05 2.7481e-07 -2.76e-07)
(4.449e-05 1.9125e-07 -3.2049e-07)
(4.4487e-05 1.2046e-07 -2.921e-07)
(4.4475e-05 6.1988e-08 -2.0745e-07)
(4.447e-05 -8.5872e-10 -1.6379e-07)
(4.823e-05 -1.2152e-06 -2.439e-10)
(4.8226e-05 -1.1436e-06 2.2931e-07)
(4.8215e-05 -9.8717e-07 4.0135e-07)
(4.824e-05 -8.1876e-07 5.3457e-07)
(4.8244e-05 -6.6643e-07 6.6607e-07)
(4.824e-05 -5.3522e-07 8.1884e-07)
(4.8215e-05 -4.0208e-07 9.8765e-07)
(4.8226e-05 -2.2994e-07 1.1443e-06)
(4.823e-05 -2.3138e-10 1.2158e-06)
(5.1961e-05 -1.8013e-06 -6.4709e-11)
(5.1947e-05 -1.7491e-06 3.711e-07)
(5.1935e-05 -1.5845e-06 6.6473e-07)
(5.1946e-05 -1.3233e-06 8.6445e-07)
(5.196e-05 -1.0615e-06 1.0613e-06)
(5.1946e-05 -8.6507e-07 1.3233e-06)
(5.1935e-05 -6.6542e-07 1.5849e-06)
(5.1947e-05 -3.7167e-07 1.7497e-06)
(5.1961e-05 -3.2882e-10 1.8019e-06)
(5.571e-05 -1.3844e-06 -1.6631e-10)
(5.5696e-05 -1.3653e-06 3.1128e-07)
(5.568e-05 -1.2562e-06 5.4511e-07)
(5.5678e-05 -1.0121e-06 6.5651e-07)
(5.5685e-05 -7.7528e-07 7.7496e-07)
(5.5678e-05 -6.5707e-07 1.0121e-06)
(5.568e-05 -5.4572e-07 1.2566e-06)
(5.5696e-05 -3.1176e-07 1.3658e-06)
(5.5709e-05 -1.3086e-10 1.3848e-06)
(5.9489e-05 1.5302e-07 -1.7661e-10)
(5.9467e-05 1.6213e-07 -1.2168e-08)
(5.9439e-05 1.9107e-07 -6.7252e-08)
(5.9427e-05 2.3665e-07 -1.6799e-07)
(5.9431e-05 2.4137e-07 -2.4155e-07)
(5.9427e-05 1.6755e-07 -2.3666e-07)
(5.9439e-05 6.679e-08 -1.9086e-07)
(5.9467e-05 1.1817e-08 -1.6184e-07)
(5.9488e-05 -2.3681e-11 -1.5281e-07)
(6.327e-05 2.939e-06 -3.4951e-11)
(6.3249e-05 2.9117e-06 -5.8848e-07)
(6.3208e-05 2.7728e-06 -1.157e-06)
(6.3192e-05 2.496e-06 -1.6698e-06)
(6.3187e-05 2.1125e-06 -2.1127e-06)
(6.3192e-05 1.6696e-06 -2.496e-06)
(6.3208e-05 1.1567e-06 -2.7727e-06)
(6.3248e-05 5.8831e-07 -2.9116e-06)
(6.327e-05 -4.3093e-11 -2.939e-06)
(6.6992e-05 6.8397e-06 2.2844e-10)
(6.6956e-05 6.7111e-06 -1.356e-06)
(6.6907e-05 6.302e-06 -2.6311e-06)
(6.6898e-05 5.6274e-06 -3.7648e-06)
(6.6909e-05 4.7582e-06 -4.7581e-06)
(6.6898e-05 3.7648e-06 -5.6274e-06)
(6.6907e-05 2.6311e-06 -6.3019e-06)
(6.6956e-05 1.3561e-06 -6.7111e-06)
(6.6991e-05 -1.4276e-10 -6.8399e-06)
(7.0492e-05 1.1324e-05 2.6609e-10)
(7.0451e-05 1.1072e-05 -2.2118e-06)
(7.0403e-05 1.0342e-05 -4.3024e-06)
(7.0399e-05 9.2258e-06 -6.1739e-06)
(7.0418e-05 7.8117e-06 -7.8116e-06)
(7.0399e-05 6.1742e-06 -9.2257e-06)
(7.0402e-05 4.3027e-06 -1.0342e-05)
(7.0451e-05 2.2121e-06 -1.1072e-05)
(7.0492e-05 1.2286e-11 -1.1324e-05)
(7.3645e-05 1.5613e-05 8.2514e-10)
(7.361e-05 1.5223e-05 -3.0044e-06)
(7.3567e-05 1.4177e-05 -5.8656e-06)
(7.3562e-05 1.2653e-05 -8.467e-06)
(7.3578e-05 1.0744e-05 -1.0743e-05)
(7.3562e-05 8.4675e-06 -1.2653e-05)
(7.3566e-05 5.8662e-06 -1.4177e-05)
(7.3609e-05 3.0049e-06 -1.5223e-05)
(7.3644e-05 -3.4729e-10 -1.5613e-05)
(7.65e-05 1.8768e-05 6.4787e-10)
(7.6481e-05 1.8268e-05 -3.5998e-06)
(7.6445e-05 1.6995e-05 -7.0255e-06)
(7.6446e-05 1.5158e-05 -1.0143e-05)
(7.6446e-05 1.2889e-05 -1.2888e-05)
(7.6446e-05 1.0143e-05 -1.5157e-05)
(7.6445e-05 7.0263e-06 -1.6995e-05)
(7.648e-05 3.6006e-06 -1.8268e-05)
(7.65e-05 3.3034e-11 -1.8769e-05)
(7.9159e-05 1.9981e-05 9.0437e-10)
(7.9145e-05 1.9504e-05 -3.8844e-06)
(7.9129e-05 1.8175e-05 -7.5413e-06)
(7.9127e-05 1.6177e-05 -1.0814e-05)
(7.9133e-05 1.3692e-05 -1.3691e-05)
(7.9127e-05 1.0815e-05 -1.6177e-05)
(7.9129e-05 7.5424e-06 -1.8174e-05)
(7.9144e-05 3.8854e-06 -1.9504e-05)
(7.9158e-05 -1.9759e-11 -1.9981e-05)
(8.1679e-05 1.9283e-05 1.009e-09)
(8.1679e-05 1.8866e-05 -3.798e-06)
(8.1684e-05 1.7615e-05 -7.3409e-06)
(8.1685e-05 1.5632e-05 -1.0439e-05)
(8.1687e-05 1.3173e-05 -1.3172e-05)
(8.1684e-05 1.0441e-05 -1.5631e-05)
(8.1683e-05 7.3423e-06 -1.7614e-05)
(8.1679e-05 3.7993e-06 -1.8865e-05)
(8.1678e-05 8.5096e-11 -1.9283e-05)
(8.4068e-05 1.6899e-05 1.2308e-09)
(8.4063e-05 1.6512e-05 -3.3093e-06)
(8.407e-05 1.5393e-05 -6.3968e-06)
(8.4086e-05 1.3658e-05 -9.1191e-06)
(8.41e-05 1.1525e-05 -1.1523e-05)
(8.4086e-05 9.1206e-06 -1.3657e-05)
(8.407e-05 6.3984e-06 -1.5392e-05)
(8.4063e-05 3.3108e-06 -1.6511e-05)
(8.4068e-05 7.6725e-11 -1.6899e-05)
(8.6218e-05 1.2936e-05 1.2972e-09)
(8.6219e-05 1.2616e-05 -2.5149e-06)
(8.6223e-05 1.1733e-05 -4.8509e-06)
(8.6251e-05 1.0396e-05 -6.9319e-06)
(8.6262e-05 8.7775e-06 -8.7761e-06)
(8.6251e-05 6.9335e-06 -1.0394e-05)
(8.6223e-05 4.8526e-06 -1.1732e-05)
(8.6218e-05 2.5165e-06 -1.2615e-05)
(8.6218e-05 1.7752e-10 -1.2936e-05)
(8.7982e-05 7.4892e-06 1.0066e-09)
(8.7989e-05 7.3102e-06 -1.4694e-06)
(8.8008e-05 6.7798e-06 -2.8101e-06)
(8.8018e-05 5.9601e-06 -3.9615e-06)
(8.8024e-05 4.992e-06 -4.9909e-06)
(8.8018e-05 3.9632e-06 -5.9588e-06)
(8.8008e-05 2.8119e-06 -6.7788e-06)
(8.7988e-05 1.4711e-06 -7.3094e-06)
(8.7982e-05 5.4491e-10 -7.4886e-06)
(8.9211e-05 8.8509e-07 1.3554e-09)
(8.9233e-05 8.7294e-07 -2.0956e-07)
(8.927e-05 7.684e-07 -3.3696e-07)
(8.9262e-05 5.6296e-07 -3.5273e-07)
(8.925e-05 3.8695e-07 -3.8535e-07)
(8.9262e-05 3.5451e-07 -5.6162e-07)
(8.927e-05 3.3877e-07 -7.6734e-07)
(8.9233e-05 2.1127e-07 -8.7219e-07)
(8.9211e-05 1.8745e-10 -8.8439e-07)
(8.9806e-05 -6.6392e-06 1.3099e-09)
(8.9814e-05 -6.5294e-06 1.2833e-06)
(8.9839e-05 -6.204e-06 2.5594e-06)
(8.985e-05 -5.6653e-06 3.7922e-06)
(8.9857e-05 -4.8603e-06 4.8618e-06)
(8.985e-05 -3.7905e-06 5.6667e-06)
(8.9839e-05 -2.5577e-06 6.2051e-06)
(8.9814e-05 -1.2816e-06 6.5303e-06)
(8.9806e-05 1.7587e-10 6.6398e-06)
(8.9696e-05 -1.5161e-05 1.2535e-09)
(8.9705e-05 -1.4893e-05 2.9618e-06)
(8.9721e-05 -1.4061e-05 5.8274e-06)
(8.9749e-05 -1.2702e-05 8.495e-06)
(8.9758e-05 -1.0815e-05 1.0816e-05)
(8.9749e-05 -8.4935e-06 1.2703e-05)
(8.9721e-05 -5.8258e-06 1.4062e-05)
(8.9705e-05 -2.9602e-06 1.4894e-05)
(8.9696e-05 1.2369e-10 1.5161e-05)
(8.8882e-05 -2.4756e-05 1.4275e-09)
(8.8902e-05 -2.426e-05 4.8168e-06)
(8.8939e-05 -2.2832e-05 9.4677e-06)
(8.8943e-05 -2.0569e-05 1.3771e-05)
(8.894e-05 -1.7524e-05 1.7525e-05)
(8.8943e-05 -1.377e-05 2.057e-05)
(8.8939e-05 -9.4664e-06 2.2833e-05)
(8.8903e-05 -4.8154e-06 2.4261e-05)
(8.8883e-05 3.6988e-10 2.4756e-05)
(8.7432e-05 -3.5085e-05 1.0054e-09)
(8.7475e-05 -3.4343e-05 6.8033e-06)
(8.7532e-05 -3.2256e-05 1.3367e-05)
(8.7513e-05 -2.904e-05 1.9445e-05)
(8.7485e-05 -2.4746e-05 2.4747e-05)
(8.7513e-05 -1.9444e-05 2.9041e-05)
(8.7532e-05 -1.3366e-05 3.2257e-05)
(8.7476e-05 -6.8021e-06 3.4343e-05)
(8.7433e-05 4.541e-11 3.5085e-05)
(8.5442e-05 -4.5609e-05 1.3838e-09)
(8.5463e-05 -4.4646e-05 8.8437e-06)
(8.55e-05 -4.1925e-05 1.7361e-05)
(8.5506e-05 -3.7707e-05 2.523e-05)
(8.5503e-05 -3.2103e-05 3.2105e-05)
(8.5506e-05 -2.5229e-05 3.7708e-05)
(8.55e-05 -1.736e-05 4.1925e-05)
(8.5464e-05 -8.8427e-06 4.4646e-05)
(8.5443e-05 -5.277e-10 4.5608e-05)
(8.2896e-05 -5.5675e-05 6.9592e-10)
(8.2907e-05 -5.4492e-05 1.0802e-05)
(8.2928e-05 -5.1168e-05 2.1194e-05)
(8.2956e-05 -4.5986e-05 3.0762e-05)
(8.2963e-05 -3.9138e-05 3.9139e-05)
(8.2956e-05 -3.0762e-05 4.5986e-05)
(8.2928e-05 -2.1194e-05 5.1168e-05)
(8.2908e-05 -1.0801e-05 5.4492e-05)
(8.2897e-05 -1.9121e-11 5.5674e-05)
(7.9798e-05 -6.4632e-05 7.3209e-10)
(7.981e-05 -6.3289e-05 1.2571e-05)
(7.9837e-05 -5.9437e-05 2.4635e-05)
(7.9846e-05 -5.3386e-05 3.571e-05)
(7.9849e-05 -4.5398e-05 4.5398e-05)
(7.9846e-05 -3.571e-05 5.3386e-05)
(7.9837e-05 -2.4635e-05 5.9436e-05)
(7.981e-05 -1.2571e-05 6.3288e-05)
(7.9798e-05 -2.1295e-10 6.4631e-05)
(7.6191e-05 -7.2209e-05 4.0301e-10)
(7.6215e-05 -7.0719e-05 1.406e-05)
(7.6249e-05 -6.6416e-05 2.7542e-05)
(7.6237e-05 -5.9637e-05 3.989e-05)
(7.6221e-05 -5.0692e-05 5.0692e-05)
(7.6237e-05 -3.989e-05 5.9637e-05)
(7.6249e-05 -2.7542e-05 6.6415e-05)
(7.6216e-05 -1.406e-05 7.0718e-05)
(7.6192e-05 3.7803e-12 7.2208e-05)
(7.2142e-05 -7.8165e-05 -2.666e-11)
(7.2146e-05 -7.653e-05 1.5191e-05)
(7.2157e-05 -7.1853e-05 2.977e-05)
(7.2158e-05 -6.4534e-05 4.3161e-05)
(7.2159e-05 -5.4878e-05 5.4878e-05)
(7.2158e-05 -4.3161e-05 6.4533e-05)
(7.2157e-05 -2.9769e-05 7.1852e-05)
(7.2146e-05 -1.5191e-05 7.6528e-05)
(7.2142e-05 3.7557e-10 7.8163e-05)
(6.7653e-05 -8.2167e-05 1.6754e-10)
(6.7645e-05 -8.0406e-05 1.5937e-05)
(6.7638e-05 -7.5471e-05 3.1253e-05)
(6.765e-05 -6.7799e-05 4.535e-05)
(6.766e-05 -5.7693e-05 5.7693e-05)
(6.765e-05 -4.5349e-05 6.7799e-05)
(6.7638e-05 -3.1252e-05 7.547e-05)
(6.7645e-05 -1.5936e-05 8.0405e-05)
(6.7653e-05 1.5858e-10 8.2165e-05)
(6.2756e-05 -8.3979e-05 1.9989e-11)
(6.274e-05 -8.2214e-05 1.631e-05)
(6.2727e-05 -7.7183e-05 3.1977e-05)
(6.2735e-05 -6.9333e-05 4.638e-05)
(6.275e-05 -5.8974e-05 5.8974e-05)
(6.2735e-05 -4.638e-05 6.9332e-05)
(6.2727e-05 -3.1976e-05 7.7183e-05)
(6.274e-05 -1.631e-05 8.2213e-05)
(6.2756e-05 3.0686e-10 8.3977e-05)
(5.7518e-05 -8.4101e-05 9.1855e-11)
(5.7502e-05 -8.2356e-05 1.636e-05)
(5.7486e-05 -7.7331e-05 3.2063e-05)
(5.7487e-05 -6.9467e-05 4.6474e-05)
(5.7496e-05 -5.9069e-05 5.9069e-05)
(5.7487e-05 -4.6473e-05 6.9467e-05)
(5.7486e-05 -3.2062e-05 7.733e-05)
(5.7502e-05 -1.636e-05 8.2355e-05)
(5.7518e-05 2.3383e-10 8.4099e-05)
(5.2042e-05 -8.2926e-05 5.6965e-11)
(5.2022e-05 -8.1201e-05 1.6117e-05)
(5.1998e-05 -7.6259e-05 3.1602e-05)
(5.1997e-05 -6.8516e-05 4.5836e-05)
(5.2007e-05 -5.8281e-05 5.8281e-05)
(5.1997e-05 -4.5836e-05 6.8516e-05)
(5.1998e-05 -3.1601e-05 7.6259e-05)
(5.2022e-05 -1.6117e-05 8.12e-05)
(5.2042e-05 2.3469e-10 8.2925e-05)
(4.6468e-05 -8.0446e-05 3.694e-11)
(4.6452e-05 -7.8756e-05 1.5614e-05)
(4.6418e-05 -7.397e-05 3.0637e-05)
(4.6428e-05 -6.6477e-05 4.4471e-05)
(4.6427e-05 -5.6573e-05 5.6573e-05)
(4.6428e-05 -4.4471e-05 6.6476e-05)
(4.6418e-05 -3.0636e-05 7.3969e-05)
(4.6452e-05 -1.5614e-05 7.8755e-05)
(4.6468e-05 1.884e-10 8.0446e-05)
(4.0931e-05 -7.6494e-05 -3.5196e-10)
(4.0904e-05 -7.4916e-05 1.487e-05)
(4.0875e-05 -7.039e-05 2.9158e-05)
(4.0881e-05 -6.3271e-05 4.2313e-05)
(4.0897e-05 -5.3823e-05 5.3824e-05)
(4.0881e-05 -4.2312e-05 6.3271e-05)
(4.0875e-05 -2.9158e-05 7.039e-05)
(4.0904e-05 -1.487e-05 7.4916e-05)
(4.0931e-05 4.7343e-10 7.6494e-05)
(3.5536e-05 -7.133e-05 -3.603e-11)
(3.55e-05 -6.9884e-05 1.3894e-05)
(3.546e-05 -6.5697e-05 2.7228e-05)
(3.548e-05 -5.9049e-05 3.9478e-05)
(3.5508e-05 -5.021e-05 5.021e-05)
(3.548e-05 -3.9478e-05 5.9049e-05)
(3.546e-05 -2.7228e-05 6.5697e-05)
(3.55e-05 -1.3894e-05 6.9884e-05)
(3.5536e-05 3.0212e-11 7.133e-05)
(3.0356e-05 -6.5207e-05 -6.3304e-11)
(3.0304e-05 -6.3941e-05 1.2733e-05)
(3.0248e-05 -6.017e-05 2.493e-05)
(3.0282e-05 -5.4061e-05 3.6113e-05)
(3.0324e-05 -4.5922e-05 4.5922e-05)
(3.0282e-05 -3.6113e-05 5.4061e-05)
(3.0248e-05 -2.493e-05 6.0171e-05)
(3.0305e-05 -1.2733e-05 6.3941e-05)
(3.0356e-05 -6.6157e-11 6.5208e-05)
(2.541e-05 -5.8333e-05 -8.1616e-11)
(2.5343e-05 -5.7247e-05 1.1399e-05)
(2.5276e-05 -5.3899e-05 2.2323e-05)
(2.5318e-05 -4.8421e-05 3.2334e-05)
(2.5374e-05 -4.1098e-05 4.1098e-05)
(2.5318e-05 -3.2334e-05 4.8422e-05)
(2.5276e-05 -2.2323e-05 5.3899e-05)
(2.5343e-05 -1.14e-05 5.7248e-05)
(2.541e-05 -1.4768e-10 5.8333e-05)
(2.0811e-05 -5.0496e-05 -8.4747e-11)
(2.0767e-05 -4.9461e-05 9.8203e-06)
(2.0712e-05 -4.6508e-05 1.9265e-05)
(2.0747e-05 -4.1829e-05 2.7966e-05)
(2.0782e-05 -3.5594e-05 3.5594e-05)
(2.0747e-05 -2.7966e-05 4.1829e-05)
(2.0712e-05 -1.9265e-05 4.6508e-05)
(2.0767e-05 -9.8206e-06 4.9462e-05)
(2.0811e-05 -1.9688e-10 5.0496e-05)
(1.6968e-05 -4.0558e-05 -9.364e-11)
(1.6937e-05 -3.9622e-05 7.8544e-06)
(1.6873e-05 -3.7215e-05 1.542e-05)
(1.6923e-05 -3.3504e-05 2.2423e-05)
(1.6948e-05 -2.8599e-05 2.8599e-05)
(1.6923e-05 -2.2423e-05 3.3504e-05)
(1.6873e-05 -1.542e-05 3.7215e-05)
(1.6938e-05 -7.8547e-06 3.9622e-05)
(1.6968e-05 -2.0523e-10 4.0558e-05)
(1.387e-05 -2.8149e-05 -1.1291e-10)
(1.3772e-05 -2.7651e-05 5.5393e-06)
(1.3674e-05 -2.6088e-05 1.081e-05)
(1.3758e-05 -2.3424e-05 1.561e-05)
(1.385e-05 -1.9852e-05 1.9851e-05)
(1.3758e-05 -1.561e-05 2.3423e-05)
(1.3674e-05 -1.081e-05 2.6088e-05)
(1.3772e-05 -5.5396e-06 2.7651e-05)
(1.387e-05 -1.9007e-10 2.8149e-05)
(1.0396e-05 -1.5878e-05 -1.1465e-10)
(1.0231e-05 -1.5821e-05 3.2486e-06)
(1.0098e-05 -1.51e-05 6.256e-06)
(1.0218e-05 -1.3458e-05 8.8739e-06)
(1.0376e-05 -1.1195e-05 1.1195e-05)
(1.0218e-05 -8.8741e-06 1.3458e-05)
(1.0098e-05 -6.2562e-06 1.51e-05)
(1.0231e-05 -3.2489e-06 1.5821e-05)
(1.0396e-05 -1.4426e-10 1.5877e-05)
(5.5712e-06 -6.5296e-06 -8.1761e-11)
(5.5013e-06 -6.5287e-06 1.3705e-06)
(5.4298e-06 -6.2766e-06 2.5996e-06)
(5.4938e-06 -5.5745e-06 3.6397e-06)
(5.5604e-06 -4.6036e-06 4.6035e-06)
(5.4939e-06 -3.6398e-06 5.5744e-06)
(5.4299e-06 -2.5998e-06 6.2766e-06)
(5.5014e-06 -1.3706e-06 6.5287e-06)
(5.5712e-06 -6.8005e-11 6.5296e-06)
(2.1371e-12 -2.2227e-12 -4.0235e-17)
(7.5195e-09 9.8768e-09 1.3716e-08)
(2.7428e-12 1.2851e-12 -4.7888e-13)
(7.1642e-09 -1.9224e-09 -1.6704e-08)
(1.2011e-12 -5.5508e-12 5.5507e-12)
(7.1642e-09 1.6703e-08 1.9216e-09)
(2.7428e-12 4.7882e-13 -1.2851e-12)
(7.5198e-09 -1.3716e-08 -9.8748e-09)
(2.1371e-12 -2.0599e-17 2.2227e-12)
(1.0921e-05 7.5821e-07 4.9009e-06)
(1.7853e-08 -3.6629e-08 4.6074e-08)
(1.0766e-05 1.7449e-06 4.2147e-06)
(5.3011e-12 1.7624e-12 4.6365e-12)
(1.0923e-05 2.9258e-06 3.9983e-06)
(1.7944e-08 5.8427e-08 6.4476e-09)
(1.1083e-05 3.793e-06 3.7929e-06)
(3.0761e-12 -1.396e-12 -1.3962e-12)
(1.0923e-05 3.9984e-06 2.9255e-06)
(1.7943e-08 6.4489e-09 5.8423e-08)
(1.0766e-05 4.2146e-06 1.7446e-06)
(5.3011e-12 4.6366e-12 1.7624e-12)
(1.0922e-05 4.9007e-06 7.5792e-07)
(1.7855e-08 4.6072e-08 -3.6631e-08)
(1.108e-05 5.3706e-06 -2.2708e-10)
(4.4185e-12 2.2168e-12 -9.1767e-17)
(1.9117e-05 7.7588e-07 5.5265e-06)
(1.8841e-05 1.8774e-06 4.5352e-06)
(1.912e-05 3.353e-06 4.4498e-06)
(1.9483e-05 4.5371e-06 4.5367e-06)
(1.9121e-05 4.4498e-06 3.3525e-06)
(1.8841e-05 4.5349e-06 1.8769e-06)
(1.9118e-05 5.5259e-06 7.7535e-07)
(1.9478e-05 6.4288e-06 -3.9449e-10)
(2.3503e-05 -5.8674e-08 5.7681e-07)
(2.3354e-05 9.3274e-08 2.2621e-07)
(2.3506e-05 4.4223e-07 3.5668e-07)
(2.3666e-05 5.9849e-07 5.9816e-07)
(2.3506e-05 3.5654e-07 4.416e-07)
(2.3354e-05 2.256e-07 9.2533e-08)
(2.3503e-05 5.7582e-07 -5.9323e-08)
(2.3663e-05 8.6225e-07 -4.6236e-10)
(2.6005e-05 -1.0478e-06 -5.2449e-06)
(2.5981e-05 -2.0334e-06 -4.9097e-06)
(2.601e-05 -2.9782e-06 -4.4659e-06)
(2.5964e-05 -3.9638e-06 -3.964e-06)
(2.601e-05 -4.4662e-06 -2.9788e-06)
(2.5982e-05 -4.9106e-06 -2.0342e-06)
(2.6005e-05 -5.2463e-06 -1.0484e-06)
(2.5959e-05 -5.5804e-06 -4.7921e-10)
(2.9102e-05 -1.4307e-06 -7.029e-06)
(2.9074e-05 -2.7647e-06 -6.6758e-06)
(2.9112e-05 -3.9777e-06 -6.0125e-06)
(2.9135e-05 -5.0953e-06 -5.0954e-06)
(2.9112e-05 -6.0129e-06 -3.9784e-06)
(2.9075e-05 -6.6769e-06 -2.7654e-06)
(2.9102e-05 -7.0307e-06 -1.4313e-06)
(2.9121e-05 -7.1562e-06 -4.9771e-10)
(3.3015e-05 -1.2173e-06 -5.5536e-06)
(3.2936e-05 -2.2734e-06 -5.4974e-06)
(3.3031e-05 -3.0961e-06 -4.8405e-06)
(3.3141e-05 -3.8412e-06 -3.8413e-06)
(3.3031e-05 -4.841e-06 -3.0967e-06)
(3.2937e-05 -5.4986e-06 -2.2742e-06)
(3.3015e-05 -5.5553e-06 -1.2179e-06)
(3.3118e-05 -5.3471e-06 -5.1148e-10)
(3.696e-05 -8.1093e-07 -3.5767e-06)
(3.692e-05 -1.4821e-06 -3.6015e-06)
(3.6978e-05 -1.9961e-06 -3.1825e-06)
(3.7034e-05 -2.5286e-06 -2.5287e-06)
(3.6978e-05 -3.183e-06 -1.9966e-06)
(3.692e-05 -3.6027e-06 -1.4828e-06)
(3.696e-05 -3.5783e-06 -8.1145e-07)
(3.7008e-05 -3.4494e-06 -4.8943e-10)
(4.073e-05 -4.0846e-07 -1.8582e-06)
(4.0738e-05 -7.6773e-07 -1.8813e-06)
(4.0747e-05 -1.0842e-06 -1.7108e-06)
(4.0747e-05 -1.4184e-06 -1.4184e-06)
(4.0747e-05 -1.7113e-06 -1.0845e-06)
(4.0738e-05 -1.8824e-06 -7.6827e-07)
(4.073e-05 -1.8597e-06 -4.0887e-07)
(4.0723e-05 -1.8291e-06 -4.2509e-10)
(4.4475e-05 -6.254e-08 -2.0768e-07)
(4.4487e-05 -1.211e-07 -2.925e-07)
(4.449e-05 -1.9201e-07 -3.2097e-07)
(4.4491e-05 -2.7567e-07 -2.7646e-07)
(4.449e-05 -3.215e-07 -1.9229e-07)
(4.4487e-05 -2.9349e-07 -1.215e-07)
(4.4475e-05 -2.0897e-07 -6.283e-08)
(4.447e-05 -1.6511e-07 2.5762e-10)
(4.8225e-05 2.2947e-07 1.1443e-06)
(4.8215e-05 4.0159e-07 9.8753e-07)
(4.8239e-05 5.3472e-07 8.1874e-07)
(4.8243e-05 6.6593e-07 6.6602e-07)
(4.8239e-05 8.1829e-07 5.3455e-07)
(4.8215e-05 9.8672e-07 4.0135e-07)
(4.8225e-05 1.1432e-06 2.2931e-07)
(4.823e-05 1.2148e-06 -2.2652e-10)
(5.1946e-05 3.7131e-07 1.7498e-06)
(5.1935e-05 6.651e-07 1.5851e-06)
(5.1946e-05 8.6485e-07 1.3236e-06)
(5.196e-05 1.0614e-06 1.0616e-06)
(5.1945e-05 1.3232e-06 8.648e-07)
(5.1935e-05 1.5845e-06 6.6501e-07)
(5.1947e-05 1.749e-06 3.7129e-07)
(5.1961e-05 1.8011e-06 -2.278e-10)
(5.5696e-05 3.1152e-07 1.366e-06)
(5.568e-05 5.4557e-07 1.257e-06)
(5.5678e-05 6.5709e-07 1.0127e-06)
(5.5684e-05 7.755e-07 7.7565e-07)
(5.5677e-05 1.0124e-06 6.5717e-07)
(5.568e-05 1.2566e-06 5.4564e-07)
(5.5696e-05 1.3656e-06 3.1165e-07)
(5.571e-05 1.3844e-06 7.2601e-11)
(5.9467e-05 -1.1948e-08 -1.6154e-07)
(5.9439e-05 -6.6799e-08 -1.9028e-07)
(5.9427e-05 -1.6735e-07 -2.3587e-07)
(5.9431e-05 -2.4093e-07 -2.4065e-07)
(5.9427e-05 -2.3602e-07 -1.6712e-07)
(5.9439e-05 -1.9039e-07 -6.6534e-08)
(5.9467e-05 -1.6158e-07 -1.1653e-08)
(5.9488e-05 -1.5278e-07 1.6704e-10)
(6.3248e-05 -5.8835e-07 -2.9112e-06)
(6.3208e-05 -1.1566e-06 -2.772e-06)
(6.3192e-05 -1.6692e-06 -2.4951e-06)
(6.3187e-05 -2.1119e-06 -2.1116e-06)
(6.3192e-05 -2.4952e-06 -1.6688e-06)
(6.3208e-05 -2.7719e-06 -1.1561e-06)
(6.3248e-05 -2.9109e-06 -5.8786e-07)
(6.327e-05 -2.9386e-06 3.8988e-10)
(6.6955e-05 -1.356e-06 -6.7107e-06)
(6.6907e-05 -2.6309e-06 -6.3012e-06)
(6.6897e-05 -3.7643e-06 -5.6263e-06)
(6.6908e-05 -4.7573e-06 -4.7571e-06)
(6.6897e-05 -5.6264e-06 -3.7637e-06)
(6.6907e-05 -6.3009e-06 -2.6302e-06)
(6.6955e-05 -6.7102e-06 -1.3553e-06)
(6.6992e-05 -6.8392e-06 7.0417e-10)
(7.0451e-05 -2.212e-06 -1.1071e-05)
(7.0402e-05 -4.3024e-06 -1.0341e-05)
(7.0398e-05 -6.1736e-06 -9.2246e-06)
(7.0417e-05 -7.8109e-06 -7.8103e-06)
(7.0398e-05 -9.2248e-06 -6.1728e-06)
(7.0402e-05 -1.0341e-05 -4.3014e-06)
(7.0451e-05 -1.1071e-05 -2.2111e-06)
(7.0492e-05 -1.1323e-05 7.6551e-10)
(7.3609e-05 -3.0048e-06 -1.5223e-05)
(7.3566e-05 -5.8658e-06 -1.4176e-05)
(7.3562e-05 -8.4669e-06 -1.2652e-05)
(7.3577e-05 -1.0743e-05 -1.0742e-05)
(7.3562e-05 -1.2652e-05 -8.4658e-06)
(7.3566e-05 -1.4176e-05 -5.8646e-06)
(7.3609e-05 -1.5222e-05 -3.0037e-06)
(7.3645e-05 -1.5612e-05 1.3387e-09)
(7.648e-05 -3.6005e-06 -1.8267e-05)
(7.6445e-05 -7.026e-06 -1.6994e-05)
(7.6446e-05 -1.0143e-05 -1.5156e-05)
(7.6445e-05 -1.2888e-05 -1.2887e-05)
(7.6446e-05 -1.5157e-05 -1.0141e-05)
(7.6445e-05 -1.6994e-05 -7.0246e-06)
(7.648e-05 -1.8267e-05 -3.5992e-06)
(7.65e-05 -1.8768e-05 1.1631e-09)
(7.9144e-05 -3.8852e-06 -1.9503e-05)
(7.9129e-05 -7.542e-06 -1.8173e-05)
(7.9127e-05 -1.0814e-05 -1.6175e-05)
(7.9133e-05 -1.3691e-05 -1.369e-05)
(7.9127e-05 -1.6176e-05 -1.0813e-05)
(7.9129e-05 -1.8174e-05 -7.5405e-06)
(7.9144e-05 -1.9503e-05 -3.8838e-06)
(7.9158e-05 -1.9981e-05 1.4115e-09)
(8.1679e-05 -3.799e-06 -1.8865e-05)
(8.1683e-05 -7.3418e-06 -1.7613e-05)
(8.1684e-05 -1.044e-05 -1.563e-05)
(8.1686e-05 -1.3172e-05 -1.3171e-05)
(8.1684e-05 -1.5631e-05 -1.0439e-05)
(8.1683e-05 -1.7614e-05 -7.3402e-06)
(8.1679e-05 -1.8865e-05 -3.7975e-06)
(8.1678e-05 -1.9284e-05 1.4929e-09)
(8.4063e-05 -3.3105e-06 -1.6511e-05)
(8.4069e-05 -6.3979e-06 -1.5391e-05)
(8.4085e-05 -9.1199e-06 -1.3656e-05)
(8.41e-05 -1.1524e-05 -1.1522e-05)
(8.4085e-05 -1.3658e-05 -9.1182e-06)
(8.4069e-05 -1.5393e-05 -6.3962e-06)
(8.4063e-05 -1.6512e-05 -3.3088e-06)
(8.4068e-05 -1.6899e-05 1.6767e-09)
(8.6218e-05 -2.5161e-06 -1.2615e-05)
(8.6223e-05 -4.8521e-06 -1.1731e-05)
(8.6251e-05 -6.9328e-06 -1.0393e-05)
(8.6262e-05 -8.7767e-06 -8.7751e-06)
(8.6251e-05 -1.0395e-05 -6.931e-06)
(8.6222e-05 -1.1733e-05 -4.8503e-06)
(8.6218e-05 -1.2616e-05 -2.5144e-06)
(8.6217e-05 -1.2937e-05 1.6936e-09)
(8.7988e-05 -1.4706e-06 -7.309e-06)
(8.8008e-05 -2.8114e-06 -6.7781e-06)
(8.8018e-05 -3.9625e-06 -5.958e-06)
(8.8024e-05 -4.9912e-06 -4.9901e-06)
(8.8017e-05 -5.9594e-06 -3.9608e-06)
(8.8008e-05 -6.7793e-06 -2.8096e-06)
(8.7988e-05 -7.31e-06 -1.469e-06)
(8.7982e-05 -7.4894e-06 2.0555e-09)
(8.9233e-05 -2.1086e-07 -8.7189e-07)
(8.927e-05 -3.3827e-07 -7.6681e-07)
(8.9262e-05 -3.5389e-07 -5.61e-07)
(8.925e-05 -3.8628e-07 -3.8475e-07)
(8.9262e-05 -5.6235e-07 -3.5225e-07)
(8.927e-05 -7.6795e-07 -3.366e-07)
(8.9233e-05 -8.7273e-07 -2.0927e-07)
(8.921e-05 -8.8515e-07 1.6573e-09)
(8.9814e-05 1.2819e-06 6.5304e-06)
(8.9839e-05 2.558e-06 6.2054e-06)
(8.985e-05 3.7909e-06 5.667e-06)
(8.9857e-05 4.8607e-06 4.8621e-06)
(8.985e-05 5.6657e-06 3.7924e-06)
(8.9838e-05 6.2043e-06 2.5596e-06)
(8.9814e-05 6.5294e-06 1.2834e-06)
(8.9805e-05 6.639e-06 1.5378e-09)
(8.9705e-05 2.9604e-06 1.4894e-05)
(8.9721e-05 5.826e-06 1.4062e-05)
(8.9749e-05 8.4936e-06 1.2703e-05)
(8.9758e-05 1.0815e-05 1.0816e-05)
(8.9749e-05 1.2702e-05 8.495e-06)
(8.9721e-05 1.4061e-05 5.8273e-06)
(8.9704e-05 1.4893e-05 2.9618e-06)
(8.9695e-05 1.516e-05 1.4031e-09)
(8.8903e-05 4.8155e-06 2.4261e-05)
(8.8939e-05 9.4664e-06 2.2833e-05)
(8.8943e-05 1.3769e-05 2.057e-05)
(8.894e-05 1.7523e-05 1.7525e-05)
(8.8943e-05 2.0569e-05 1.3771e-05)
(8.8939e-05 2.2832e-05 9.4675e-06)
(8.8902e-05 2.4259e-05 4.8166e-06)
(8.8882e-05 2.4755e-05 9.2985e-10)
(8.7476e-05 6.8021e-06 3.4342e-05)
(8.7532e-05 1.3366e-05 3.2256e-05)
(8.7513e-05 1.9443e-05 2.904e-05)
(8.7485e-05 2.4745e-05 2.4746e-05)
(8.7513e-05 2.9039e-05 1.9444e-05)
(8.7532e-05 3.2255e-05 1.3366e-05)
(8.7475e-05 3.4341e-05 6.8029e-06)
(8.7432e-05 3.5083e-05 9.9923e-10)
(8.5464e-05 8.8426e-06 4.4646e-05)
(8.55e-05 1.736e-05 4.1925e-05)
(8.5506e-05 2.5229e-05 3.7707e-05)
(8.5503e-05 3.2102e-05 3.2104e-05)
(8.5506e-05 3.7706e-05 2.5229e-05)
(8.55e-05 4.1923e-05 1.736e-05)
(8.5463e-05 4.4644e-05 8.8432e-06)
(8.5442e-05 4.5607e-05 2.3792e-10)
(8.2908e-05 1.0801e-05 5.4492e-05)
(8.2928e-05 2.1193e-05 5.1168e-05)
(8.2956e-05 3.0761e-05 4.5985e-05)
(8.2962e-05 3.9137e-05 3.9137e-05)
(8.2956e-05 4.5984e-05 3.0761e-05)
(8.2928e-05 5.1166e-05 2.1193e-05)
(8.2907e-05 5.449e-05 1.0801e-05)
(8.2896e-05 5.5672e-05 5.4901e-10)
(7.981e-05 1.257e-05 6.3288e-05)
(7.9837e-05 2.4634e-05 5.9436e-05)
(7.9846e-05 3.5709e-05 5.3385e-05)
(7.9849e-05 4.5397e-05 4.5397e-05)
(7.9846e-05 5.3384e-05 3.5709e-05)
(7.9837e-05 5.9434e-05 2.4634e-05)
(7.981e-05 6.3286e-05 1.2571e-05)
(7.9798e-05 6.4629e-05 1.6875e-10)
(7.6216e-05 1.406e-05 7.0717e-05)
(7.6249e-05 2.7542e-05 6.6415e-05)
(7.6237e-05 3.9889e-05 5.9636e-05)
(7.6221e-05 5.0691e-05 5.0691e-05)
(7.6237e-05 5.9635e-05 3.9889e-05)
(7.6249e-05 6.6413e-05 2.7541e-05)
(7.6215e-05 7.0716e-05 1.406e-05)
(7.6191e-05 7.2207e-05 2.1408e-10)
(7.2146e-05 1.5191e-05 7.6528e-05)
(7.2157e-05 2.9769e-05 7.1852e-05)
(7.2158e-05 4.316e-05 6.4533e-05)
(7.2159e-05 5.4878e-05 5.4877e-05)
(7.2158e-05 6.4532e-05 4.316e-05)
(7.2157e-05 7.1851e-05 2.9769e-05)
(7.2146e-05 7.6527e-05 1.5191e-05)
(7.2142e-05 7.8162e-05 -1.9291e-10)
(6.7645e-05 1.5937e-05 8.0405e-05)
(6.7638e-05 3.1253e-05 7.547e-05)
(6.765e-05 4.5349e-05 6.7798e-05)
(6.766e-05 5.7693e-05 5.7693e-05)
(6.765e-05 6.7798e-05 4.5349e-05)
(6.7638e-05 7.547e-05 3.1252e-05)
(6.7645e-05 8.0404e-05 1.5936e-05)
(6.7653e-05 8.2165e-05 4.45e-11)
(6.274e-05 1.631e-05 8.2213e-05)
(6.2727e-05 3.1977e-05 7.7183e-05)
(6.2735e-05 4.638e-05 6.9333e-05)
(6.275e-05 5.8975e-05 5.8974e-05)
(6.2735e-05 6.9333e-05 4.638e-05)
(6.2727e-05 7.7183e-05 3.1977e-05)
(6.274e-05 8.2213e-05 1.631e-05)
(6.2756e-05 8.3977e-05 1.2945e-10)
(5.7502e-05 1.636e-05 8.2355e-05)
(5.7486e-05 3.2063e-05 7.7331e-05)
(5.7487e-05 4.6474e-05 6.9467e-05)
(5.7496e-05 5.907e-05 5.9069e-05)
(5.7487e-05 6.9467e-05 4.6473e-05)
(5.7486e-05 7.7331e-05 3.2062e-05)
(5.7502e-05 8.2355e-05 1.636e-05)
(5.7518e-05 8.41e-05 5.2902e-11)
(5.2022e-05 1.6117e-05 8.12e-05)
(5.1998e-05 3.1602e-05 7.6259e-05)
(5.1998e-05 4.5837e-05 6.8517e-05)
(5.2007e-05 5.8282e-05 5.8281e-05)
(5.1998e-05 6.8517e-05 4.5837e-05)
(5.1998e-05 7.626e-05 3.1602e-05)
(5.2022e-05 8.12e-05 1.6117e-05)
(5.2042e-05 8.2925e-05 8.801e-11)
(4.6452e-05 1.5614e-05 7.8755e-05)
(4.6418e-05 3.0637e-05 7.397e-05)
(4.6429e-05 4.4471e-05 6.6477e-05)
(4.6428e-05 5.6573e-05 5.6573e-05)
(4.6429e-05 6.6477e-05 4.4471e-05)
(4.6419e-05 7.397e-05 3.0637e-05)
(4.6452e-05 7.8756e-05 1.5614e-05)
(4.6468e-05 8.0446e-05 8.5961e-11)
(4.0904e-05 1.487e-05 7.4916e-05)
(4.0875e-05 2.9159e-05 7.039e-05)
(4.0881e-05 4.2313e-05 6.3271e-05)
(4.0897e-05 5.3824e-05 5.3825e-05)
(4.0881e-05 6.3271e-05 4.2313e-05)
(4.0876e-05 7.0391e-05 2.9159e-05)
(4.0905e-05 7.4917e-05 1.487e-05)
(4.0931e-05 7.6495e-05 -2.9536e-10)
(3.55e-05 1.3895e-05 6.9884e-05)
(3.546e-05 2.7228e-05 6.5697e-05)
(3.5481e-05 3.9478e-05 5.9049e-05)
(3.5509e-05 5.0211e-05 5.0211e-05)
(3.5481e-05 5.9049e-05 3.9479e-05)
(3.546e-05 6.5698e-05 2.7228e-05)
(3.5501e-05 6.9885e-05 1.3895e-05)
(3.5536e-05 7.133e-05 7.3234e-12)
(3.0305e-05 1.2733e-05 6.3941e-05)
(3.0249e-05 2.493e-05 6.0171e-05)
(3.0282e-05 3.6113e-05 5.4061e-05)
(3.0325e-05 4.5923e-05 4.5923e-05)
(3.0282e-05 5.4062e-05 3.6113e-05)
(3.0249e-05 6.0171e-05 2.4931e-05)
(3.0305e-05 6.3942e-05 1.2733e-05)
(3.0357e-05 6.5208e-05 -3.5829e-11)
(2.5343e-05 1.1399e-05 5.7248e-05)
(2.5276e-05 2.2323e-05 5.39e-05)
(2.5318e-05 3.2334e-05 4.8422e-05)
(2.5374e-05 4.1098e-05 4.1099e-05)
(2.5318e-05 4.8422e-05 3.2334e-05)
(2.5276e-05 5.39e-05 2.2323e-05)
(2.5343e-05 5.7248e-05 1.14e-05)
(2.5411e-05 5.8334e-05 -7.1592e-11)
(2.0767e-05 9.8202e-06 4.9462e-05)
(2.0712e-05 1.9265e-05 4.6509e-05)
(2.0747e-05 2.7966e-05 4.1829e-05)
(2.0782e-05 3.5594e-05 3.5594e-05)
(2.0747e-05 4.1829e-05 2.7966e-05)
(2.0712e-05 4.6509e-05 1.9265e-05)
(2.0767e-05 4.9462e-05 9.8205e-06)
(2.0811e-05 5.0496e-05 -9.4402e-11)
(1.6938e-05 7.8543e-06 3.9622e-05)
(1.6873e-05 1.542e-05 3.7216e-05)
(1.6923e-05 2.2423e-05 3.3504e-05)
(1.6948e-05 2.8599e-05 2.86e-05)
(1.6923e-05 3.3504e-05 2.2423e-05)
(1.6873e-05 3.7216e-05 1.542e-05)
(1.6938e-05 3.9622e-05 7.8545e-06)
(1.6968e-05 4.0558e-05 -1.1569e-10)
(1.3772e-05 5.5392e-06 2.7651e-05)
(1.3674e-05 1.081e-05 2.6088e-05)
(1.3758e-05 1.561e-05 2.3424e-05)
(1.385e-05 1.9852e-05 1.9852e-05)
(1.3758e-05 2.3424e-05 1.5611e-05)
(1.3674e-05 2.6088e-05 1.081e-05)
(1.3772e-05 2.7651e-05 5.5394e-06)
(1.387e-05 2.8149e-05 -1.2395e-10)
(1.0231e-05 3.2486e-06 1.5822e-05)