/*--------------------------------*- C++ -*----------------------------------*\
| =========                 |                                                 |
| \\      /  F ield         | foam-extend: Open Source CFD                    |
|  \\    /   O peration     | Version:     4.1-20200408                       |
|   \\  /    A nd           | Web:         http://www.foam-extend.org         |
|    \\/     M anipulation  |                                                 |
\*---------------------------------------------------------------------------*/
FoamFile
{
    version     2.0;
    format      ascii;
    class       volScalarField::DimensionedInternalField;
    location    "0.0370000";
    object      V0;
}
// * * * * * * * * * * * * * * * * * * * * * * * * * * * * * * * * * * * * * //

dimensions      [0 3 0 0 0 0 0];

value           nonuniform List<scalar> 
1952
(
1.40273e-14
2.33794e-14
3.27326e-14
4.20864e-14
5.14434e-14
6.08015e-14
7.01645e-14
7.9531e-14
8.89033e-14
9.8287e-14
1.0768e-13
1.17095e-13
1.26531e-13
1.36007e-13
1.45463e-13
4.67579e-15
1.40262e-14
2.33777e-14
3.27301e-14
4.20832e-14
5.14395e-14
6.0797e-14
7.01593e-14
7.95253e-14
8.8897e-14
9.82801e-14
1.07673e-13
1.17087e-13
1.26522e-13
1.35998e-13
1.45454e-13
4.67543e-15
1.40251e-14
2.33757e-14
3.27274e-14
4.20798e-14
5.14354e-14
6.07921e-14
7.01538e-14
7.95191e-14
8.88902e-14
9.82727e-14
1.07665e-13
1.17079e-13
1.26514e-13
1.3599e-13
1.45445e-13
4.67505e-15
1.4024e-14
2.3374e-14
3.2725e-14
4.20766e-14
5.14316e-14
6.07876e-14
7.01487e-14
7.95134e-14
8.88839e-14
9.82659e-14
1.07658e-13
1.17071e-13
1.26506e-13
1.35981e-13
1.45437e-13
4.67469e-15
1.4023e-14
2.33723e-14
3.27227e-14
4.20738e-14
5.14281e-14
6.07835e-14
7.01441e-14
7.95082e-14
8.88782e-14
9.82598e-14
1.07651e-13
1.17064e-13
1.26499e-13
1.35974e-13
1.45429e-13
4.67436e-15
1.40216e-14
2.337e-14
3.27194e-14
4.20695e-14
5.1423e-14
6.07774e-14
7.01371e-14
7.95004e-14
8.88696e-14
9.82503e-14
1.07641e-13
1.17054e-13
1.26487e-13
1.35962e-13
1.45417e-13
4.67388e-15
1.40205e-14
2.33682e-14
3.27169e-14
4.20663e-14
5.14191e-14
6.07729e-14
7.01319e-14
7.94946e-14
8.88633e-14
9.82435e-14
1.07634e-13
1.17046e-13
1.26479e-13
1.35954e-13
1.45408e-13
4.67352e-15
1.40197e-14
2.33668e-14
3.2715e-14
4.20639e-14
5.14162e-14
6.07695e-14
7.01281e-14
7.94903e-14
8.88585e-14
9.82383e-14
1.07628e-13
1.1704e-13
1.26473e-13
1.35947e-13
1.45401e-13
4.67325e-15
1.40186e-14
2.33651e-14
3.27126e-14
4.20609e-14
5.14125e-14
6.07652e-14
7.01231e-14
7.94848e-14
8.88524e-14
9.82317e-14
1.07621e-13
1.17032e-13
1.26465e-13
1.35939e-13
1.45392e-13
4.67291e-15
1.40175e-14
2.33632e-14
3.27099e-14
4.20574e-14
5.14083e-14
6.07602e-14
7.01175e-14
7.94785e-14
8.88455e-14
9.82241e-14
1.07613e-13
1.17024e-13
1.26456e-13
1.35929e-13
1.45382e-13
4.67252e-15
1.40167e-14
2.33618e-14
3.2708e-14
4.2055e-14
5.14054e-14
6.07567e-14
7.01135e-14
7.9474e-14
8.88405e-14
9.82188e-14
1.07607e-13
1.17018e-13
1.2645e-13
1.35923e-13
1.45375e-13
4.67224e-15
1.40156e-14
2.336e-14
3.27055e-14
4.20518e-14
5.14015e-14
6.07522e-14
7.01083e-14
7.94682e-14
8.88341e-14
9.82118e-14
1.076e-13
1.1701e-13
1.26441e-13
1.35914e-13
1.45366e-13
4.67188e-15
1.40146e-14
2.33583e-14
3.27031e-14
4.20488e-14
5.13978e-14
6.07478e-14
7.01033e-14
7.94626e-14
8.88279e-14
9.8205e-14
1.07592e-13
1.17002e-13
1.26433e-13
1.35905e-13
1.45356e-13
4.67154e-15
1.40135e-14
2.33565e-14
3.27007e-14
4.20456e-14
5.1394e-14
6.07434e-14
7.00982e-14
7.94568e-14
8.88216e-14
9.81981e-14
1.07585e-13
1.16994e-13
1.26424e-13
1.35896e-13
1.45347e-13
4.67119e-15
1.40125e-14
2.33548e-14
3.26983e-14
4.20425e-14
5.13902e-14
6.07389e-14
7.00931e-14
7.94511e-14
8.88152e-14
9.81911e-14
1.07577e-13
1.16986e-13
1.26416e-13
1.35887e-13
1.45337e-13
4.67084e-15
1.40115e-14
2.33532e-14
3.26961e-14
4.20397e-14
5.13867e-14
6.07349e-14
7.00885e-14
7.94459e-14
8.88095e-14
9.81849e-14
1.07571e-13
1.16978e-13
1.26408e-13
1.35879e-13
1.45329e-13
4.67052e-15
1.40105e-14
2.33515e-14
3.26936e-14
4.20366e-14
5.13829e-14
6.07304e-14
7.00834e-14
7.94402e-14
8.88032e-14
9.81779e-14
1.07563e-13
1.16971e-13
1.264e-13
1.3587e-13
1.45319e-13
4.67017e-15
1.40094e-14
2.33497e-14
3.26912e-14
4.20335e-14
5.13791e-14
6.0726e-14
7.00783e-14
7.94345e-14
8.87968e-14
9.8171e-14
1.07556e-13
1.16962e-13
1.26391e-13
1.35861e-13
1.4531e-13
4.66982e-15
1.40084e-14
2.3348e-14
3.26888e-14
4.20304e-14
5.13753e-14
6.07215e-14
7.00732e-14
7.94287e-14
8.87905e-14
9.81641e-14
1.07548e-13
1.16954e-13
1.26383e-13
1.35852e-13
1.453e-13
4.66947e-15
1.40075e-14
2.33466e-14
3.26869e-14
4.2028e-14
5.13724e-14
6.07181e-14
7.00693e-14
7.94244e-14
8.87857e-14
9.81589e-14
1.07543e-13
1.16948e-13
1.26377e-13
1.35845e-13
1.45293e-13
4.66919e-15
1.40065e-14
2.33449e-14
3.26846e-14
4.2025e-14
5.13688e-14
6.07139e-14
7.00644e-14
7.94189e-14
8.87797e-14
9.81523e-14
1.07535e-13
1.16941e-13
1.26369e-13
1.35837e-13
1.45284e-13
4.66886e-15
1.40053e-14
2.33428e-14
3.26816e-14
4.20212e-14
5.13642e-14
6.07084e-14
7.00582e-14
7.9412e-14
8.87719e-14
9.81439e-14
1.07526e-13
1.16931e-13
1.26358e-13
1.35826e-13
1.45272e-13
4.66843e-15
1.40042e-14
2.3341e-14
3.26791e-14
4.2018e-14
5.13603e-14
6.07039e-14
7.0053e-14
7.94061e-14
8.87655e-14
9.81369e-14
1.07519e-13
1.16923e-13
1.2635e-13
1.35817e-13
1.45263e-13
4.66807e-15
1.40033e-14
2.33395e-14
3.2677e-14
4.20153e-14
5.1357e-14
6.07001e-14
7.00487e-14
7.94013e-14
8.87602e-14
9.81311e-14
1.07513e-13
1.16916e-13
1.26343e-13
1.3581e-13
1.45255e-13
4.66776e-15
1.40022e-14
2.33377e-14
3.26745e-14
4.20121e-14
5.13532e-14
6.06955e-14
7.00435e-14
7.93955e-14
8.87538e-14
9.81242e-14
1.07505e-13
1.16909e-13
1.26335e-13
1.35801e-13
1.45246e-13
4.6674e-15
1.40012e-14
2.33361e-14
3.26722e-14
4.20092e-14
5.13497e-14
6.06915e-14
7.00389e-14
7.93904e-14
8.87482e-14
9.81182e-14
1.07499e-13
1.16902e-13
1.26327e-13
1.35793e-13
1.45238e-13
4.66707e-15
1.40001e-14
2.33343e-14
3.26697e-14
4.2006e-14
5.13457e-14
6.06869e-14
7.00337e-14
7.93846e-14
8.87419e-14
9.81113e-14
1.07491e-13
1.16894e-13
1.26319e-13
1.35785e-13
1.45229e-13
4.6667e-15
1.3999e-14
2.33325e-14
3.26672e-14
4.20028e-14
5.13419e-14
6.06825e-14
7.00287e-14
7.9379e-14
8.87358e-14
9.81047e-14
1.07484e-13
1.16887e-13
1.26312e-13
1.35777e-13
1.45221e-13
4.66634e-15
1.39978e-14
2.33305e-14
3.26645e-14
4.19994e-14
5.13378e-14
6.06776e-14
7.00232e-14
7.9373e-14
8.87292e-14
9.80977e-14
1.07477e-13
1.16879e-13
1.26304e-13
1.35769e-13
1.45212e-13
4.66595e-15
1.39967e-14
2.33287e-14
3.2662e-14
4.19962e-14
5.13339e-14
6.06732e-14
7.00183e-14
7.93675e-14
8.87233e-14
9.80913e-14
1.0747e-13
1.16872e-13
1.26297e-13
1.35761e-13
1.45205e-13
4.66558e-15
1.39956e-14
2.33268e-14
3.26593e-14
4.19928e-14
5.13298e-14
6.06685e-14
7.00129e-14
7.93616e-14
8.8717e-14
9.80846e-14
1.07463e-13
1.16865e-13
1.26289e-13
1.35754e-13
1.45197e-13
4.66519e-15
1.39941e-14
2.33244e-14
3.2656e-14
4.19886e-14
5.13247e-14
6.06626e-14
7.00063e-14
7.93543e-14
8.87091e-14
9.80761e-14
1.07454e-13
1.16855e-13
1.2628e-13
1.35744e-13
1.45187e-13
4.6647e-15
1.39927e-14
2.33221e-14
3.26528e-14
4.19845e-14
5.13199e-14
6.0657e-14
7e-14
7.93474e-14
8.87017e-14
9.80683e-14
1.07446e-13
1.16847e-13
1.26271e-13
1.35736e-13
1.45179e-13
4.66424e-15
1.39913e-14
2.33197e-14
3.26494e-14
4.19803e-14
5.13148e-14
6.06512e-14
6.99935e-14
7.93402e-14
8.86941e-14
9.80602e-14
1.07438e-13
1.16838e-13
1.26263e-13
1.35727e-13
1.4517e-13
4.66375e-15
1.39897e-14
2.33171e-14
3.26459e-14
4.19758e-14
5.13095e-14
6.0645e-14
6.99866e-14
7.93327e-14
8.86861e-14
9.80518e-14
1.07429e-13
1.1683e-13
1.26254e-13
1.35719e-13
1.45162e-13
4.66324e-15
1.39885e-14
2.33151e-14
3.2643e-14
4.19723e-14
5.13052e-14
6.06401e-14
6.99812e-14
7.93269e-14
8.86801e-14
9.80456e-14
1.07423e-13
1.16824e-13
1.26249e-13
1.35714e-13
1.45158e-13
4.66282e-15
1.39868e-14
2.33123e-14
3.26392e-14
4.19674e-14
5.12993e-14
6.06334e-14
6.99737e-14
7.93188e-14
8.86715e-14
9.80366e-14
1.07414e-13
1.16815e-13
1.26241e-13
1.35706e-13
1.45151e-13
4.66227e-15
1.39846e-14
2.33086e-14
3.2634e-14
4.19609e-14
5.12915e-14
6.06243e-14
6.99635e-14
7.93075e-14
8.86594e-14
9.80239e-14
1.07401e-13
1.16802e-13
1.26228e-13
1.35694e-13
1.45139e-13
4.66152e-15
1.3983e-14
2.3306e-14
3.26303e-14
4.19562e-14
5.12858e-14
6.06178e-14
6.99562e-14
7.92996e-14
8.86511e-14
9.80154e-14
1.07393e-13
1.16794e-13
1.26221e-13
1.35688e-13
1.45135e-13
4.66099e-15
1.3981e-14
2.33027e-14
3.26257e-14
4.19503e-14
5.12786e-14
6.06095e-14
6.99468e-14
7.92894e-14
8.86403e-14
9.80041e-14
1.07382e-13
1.16783e-13
1.26211e-13
1.35679e-13
1.45128e-13
4.66033e-15
1.39786e-14
2.32987e-14
3.26201e-14
4.19432e-14
5.127e-14
6.05995e-14
6.99354e-14
7.92768e-14
8.86266e-14
9.79898e-14
1.07367e-13
1.16768e-13
1.26198e-13
1.35667e-13
1.45118e-13
4.65954e-15
1.39766e-14
2.32954e-14
3.26154e-14
4.19372e-14
5.12625e-14
6.05907e-14
6.99253e-14
7.92657e-14
8.86146e-14
9.79772e-14
1.07355e-13
1.16756e-13
1.26187e-13
1.35658e-13
1.45113e-13
4.65888e-15
1.39741e-14
2.32912e-14
3.26094e-14
4.19294e-14
5.12529e-14
6.05793e-14
6.9912e-14
7.92508e-14
8.85981e-14
9.79596e-14
1.07337e-13
1.16738e-13
1.26171e-13
1.35643e-13
1.45101e-13
4.65804e-15
1.39714e-14
2.32867e-14
3.26031e-14
4.19211e-14
5.12426e-14
6.05669e-14
6.98974e-14
7.92341e-14
8.85794e-14
9.79393e-14
1.07315e-13
1.16716e-13
1.26151e-13
1.35625e-13
1.45089e-13
4.65717e-15
1.39688e-14
2.32822e-14
3.25966e-14
4.19126e-14
5.12318e-14
6.05538e-14
6.98816e-14
7.92158e-14
8.85583e-14
9.79159e-14
1.0729e-13
1.1669e-13
1.26126e-13
1.35603e-13
1.45076e-13
4.65629e-15
1.39661e-14
2.32777e-14
3.25901e-14
4.19039e-14
5.12206e-14
6.054e-14
6.98647e-14
7.91958e-14
8.85346e-14
9.78888e-14
1.07259e-13
1.16657e-13
1.26092e-13
1.35573e-13
1.45059e-13
4.65542e-15
1.39635e-14
2.32732e-14
3.25835e-14
4.1895e-14
5.1209e-14
6.05254e-14
6.98465e-14
7.91738e-14
8.85079e-14
9.78575e-14
1.07223e-13
1.16615e-13
1.26046e-13
1.35525e-13
1.4502e-13
4.65456e-15
1.39611e-14
2.3269e-14
3.25773e-14
4.18865e-14
5.11977e-14
6.05109e-14
6.98279e-14
7.91509e-14
8.84793e-14
9.78231e-14
1.07181e-13
1.16566e-13
1.25988e-13
1.35455e-13
1.44938e-13
4.65377e-15
1.39589e-14
2.32652e-14
3.25716e-14
4.18784e-14
5.11868e-14
6.04966e-14
6.98092e-14
7.91272e-14
8.84488e-14
9.77855e-14
1.07133e-13
1.16508e-13
1.25916e-13
1.35366e-13
1.44818e-13
4.65306e-15
1.3957e-14
2.32619e-14
3.25666e-14
4.18712e-14
5.11768e-14
6.04831e-14
6.9791e-14
7.91034e-14
8.84173e-14
9.77456e-14
1.07081e-13
1.16443e-13
1.25833e-13
1.35261e-13
1.44683e-13
4.65248e-15
1.39557e-14
2.32595e-14
3.25627e-14
4.18654e-14
5.11684e-14
6.04711e-14
6.97742e-14
7.90807e-14
8.83863e-14
9.77053e-14
1.07027e-13
1.16374e-13
1.25744e-13
1.3515e-13
1.44545e-13
4.65206e-15
1.39551e-14
2.32583e-14
3.25605e-14
4.18616e-14
5.11623e-14
6.04618e-14
6.97603e-14
7.90609e-14
8.83578e-14
9.76669e-14
1.06974e-13
1.16305e-13
1.25652e-13
1.35036e-13
1.44404e-13
4.65187e-15
1.39554e-14
2.32585e-14
3.25603e-14
4.18604e-14
5.11594e-14
6.04561e-14
6.97507e-14
7.90455e-14
8.83341e-14
9.76332e-14
1.06924e-13
1.16239e-13
1.25558e-13
1.34918e-13
1.44258e-13
4.65198e-15
1.39567e-14
2.32604e-14
3.25625e-14
4.18624e-14
5.11605e-14
6.04551e-14
6.97465e-14
7.90363e-14
8.83174e-14
9.76066e-14
1.06881e-13
1.1618e-13
1.25468e-13
1.34801e-13
1.44105e-13
4.65244e-15
1.39591e-14
2.32643e-14
3.25675e-14
4.1868e-14
5.11662e-14
6.046e-14
6.97498e-14
7.90362e-14
8.83123e-14
9.75933e-14
1.06855e-13
1.16136e-13
1.25391e-13
1.34691e-13
1.43939e-13
4.65326e-15
1.39633e-14
2.32709e-14
3.25765e-14
4.18787e-14
5.11783e-14
6.04724e-14
6.9762e-14
7.90463e-14
8.83195e-14
9.75941e-14
1.06846e-13
1.16111e-13
1.25332e-13
1.34596e-13
1.43767e-13
4.65465e-15
1.39686e-14
2.32795e-14
3.25879e-14
4.18923e-14
5.11935e-14
6.0488e-14
6.9777e-14
7.90588e-14
8.83284e-14
9.75956e-14
1.06838e-13
1.16087e-13
1.25283e-13
1.34513e-13
1.43611e-13
4.65645e-15
1.39728e-14
2.32863e-14
3.25968e-14
4.19027e-14
5.12046e-14
6.04985e-14
6.97862e-14
7.90644e-14
8.83298e-14
9.75887e-14
1.06823e-13
1.16057e-13
1.25237e-13
1.34443e-13
1.43497e-13
4.6579e-15
1.3975e-14
2.32897e-14
3.26012e-14
4.19073e-14
5.1209e-14
6.05017e-14
6.97875e-14
7.90621e-14
8.83237e-14
9.75756e-14
1.06805e-13
1.16026e-13
1.25201e-13
1.34392e-13
1.4344e-13
4.65865e-15
1.39751e-14
2.32897e-14
3.26009e-14
4.19065e-14
5.12072e-14
6.04983e-14
6.97823e-14
7.90537e-14
8.83127e-14
9.75597e-14
1.06787e-13
1.16002e-13
1.25181e-13
1.34368e-13
1.43436e-13
4.6587e-15
1.39729e-14
2.32861e-14
3.25959e-14
4.19e-14
5.11993e-14
6.04886e-14
6.9771e-14
7.90402e-14
8.82982e-14
9.75428e-14
1.06772e-13
1.15986e-13
1.25177e-13
1.34368e-13
1.43469e-13
4.65799e-15
1.39687e-14
2.32793e-14
3.25865e-14
4.18883e-14
5.11856e-14
6.04731e-14
6.97542e-14
7.90222e-14
8.82806e-14
9.75253e-14
1.0676e-13
1.15977e-13
1.25186e-13
1.34386e-13
1.43528e-13
4.6566e-15
1.3963e-14
2.32699e-14
3.25738e-14
4.18726e-14
5.11674e-14
6.04529e-14
6.97332e-14
7.90009e-14
8.82611e-14
9.7508e-14
1.0675e-13
1.15975e-13
1.25204e-13
1.3442e-13
1.43608e-13
4.65469e-15
1.39558e-14
2.32581e-14
3.25576e-14
4.18524e-14
5.11439e-14
6.0427e-14
6.97062e-14
7.89739e-14
8.82366e-14
9.74872e-14
1.06739e-13
1.15974e-13
1.25227e-13
1.34462e-13
1.43698e-13
4.65229e-15
1.39475e-14
2.32444e-14
3.25388e-14
4.18288e-14
5.11162e-14
6.0396e-14
6.96734e-14
7.89409e-14
8.8206e-14
9.74615e-14
1.06723e-13
1.15973e-13
1.25251e-13
1.3451e-13
1.43793e-13
4.64953e-15
1.39391e-14
2.32304e-14
3.25195e-14
4.18046e-14
5.10873e-14
6.03634e-14
6.96382e-14
7.89051e-14
8.81723e-14
9.74333e-14
1.06706e-13
1.15972e-13
1.25278e-13
1.34563e-13
1.43894e-13
4.6467e-15
1.39305e-14
2.32163e-14
3.25e-14
4.17801e-14
5.10584e-14
6.03307e-14
6.96023e-14
7.88674e-14
8.81353e-14
9.74008e-14
1.06684e-13
1.15968e-13
1.25301e-13
1.34616e-13
1.43992e-13
4.64384e-15
1.3922e-14
2.32021e-14
3.24804e-14
4.17555e-14
5.10293e-14
6.02978e-14
6.95652e-14
7.88266e-14
8.80926e-14
9.73605e-14
1.06652e-13
1.15952e-13
1.2531e-13
1.34657e-13
1.44068e-13
4.64099e-15
1.39128e-14
2.31868e-14
3.24589e-14
4.17278e-14
5.09958e-14
6.02599e-14
6.95252e-14
7.87889e-14
8.80616e-14
9.73416e-14
1.06646e-13
1.15959e-13
1.25325e-13
1.34683e-13
1.44103e-13
4.63794e-15
1.39044e-14
2.31733e-14
3.24412e-14
4.17073e-14
5.09746e-14
6.02417e-14
6.95148e-14
7.87919e-14
8.80808e-14
9.73793e-14
1.06697e-13
1.16016e-13
1.2537e-13
1.34719e-13
1.44115e-13
4.63504e-15
1.39019e-14
2.31703e-14
3.24397e-14
4.17098e-14
5.0984e-14
6.02606e-14
6.9544e-14
7.88308e-14
8.81269e-14
9.74317e-14
1.0675e-13
1.16072e-13
1.25418e-13
1.34761e-13
1.44131e-13
4.63407e-15
1.39072e-14
2.31796e-14
3.24534e-14
4.17286e-14
5.10082e-14
6.02899e-14
6.95778e-14
7.88687e-14
8.81669e-14
9.74731e-14
1.06791e-13
1.16114e-13
1.25456e-13
1.34799e-13
1.44159e-13
4.63579e-15
1.39133e-14
2.31897e-14
3.24674e-14
4.17462e-14
5.1029e-14
6.03136e-14
6.96045e-14
7.88991e-14
8.82002e-14
9.75087e-14
1.06826e-13
1.16148e-13
1.25486e-13
1.34825e-13
1.44179e-13
4.63782e-15
1.39182e-14
2.31979e-14
3.24791e-14
4.17615e-14
5.10477e-14
6.03356e-14
6.96292e-14
7.8926e-14
8.82284e-14
9.75374e-14
1.06854e-13
1.16175e-13
1.25509e-13
1.34844e-13
1.44189e-13
4.63944e-15
1.39229e-14
2.32056e-14
3.24897e-14
4.17749e-14
5.10638e-14
6.03541e-14
6.96497e-14
7.89482e-14
8.82516e-14
9.75611e-14
1.06877e-13
1.16196e-13
1.25527e-13
1.34857e-13
1.44195e-13
4.64098e-15
1.3927e-14
2.32124e-14
3.24991e-14
4.17869e-14
5.1078e-14
6.03705e-14
6.96677e-14
7.89675e-14
8.82715e-14
9.7581e-14
1.06896e-13
1.16213e-13
1.2554e-13
1.34867e-13
1.44199e-13
4.64234e-15
1.39306e-14
2.32183e-14
3.25073e-14
4.17971e-14
5.10902e-14
6.03843e-14
6.96828e-14
7.89834e-14
8.82876e-14
9.75969e-14
1.0691e-13
1.16226e-13
1.2555e-13
1.34873e-13
1.442e-13
4.64354e-15
1.39336e-14
2.32233e-14
3.25142e-14
4.18057e-14
5.11003e-14
6.03957e-14
6.96951e-14
7.89963e-14
8.83005e-14
9.76093e-14
1.06922e-13
1.16235e-13
1.25557e-13
1.34877e-13
1.44198e-13
4.64455e-15
1.39362e-14
2.32276e-14
3.252e-14
4.1813e-14
5.11087e-14
6.04051e-14
6.97052e-14
7.90067e-14
8.83107e-14
9.76189e-14
1.0693e-13
1.16242e-13
1.25561e-13
1.34878e-13
1.44195e-13
4.64542e-15
1.39384e-14
2.32312e-14
3.25249e-14
4.18191e-14
5.11159e-14
6.04131e-14
6.97136e-14
7.90153e-14
8.8319e-14
9.76265e-14
1.06936e-13
1.16246e-13
1.25563e-13
1.34877e-13
1.44191e-13
4.64616e-15
1.39403e-14
2.32342e-14
3.25291e-14
4.18242e-14
5.11217e-14
6.04195e-14
6.97203e-14
7.9022e-14
8.83253e-14
9.76322e-14
1.06941e-13
1.16249e-13
1.25564e-13
1.34876e-13
1.44186e-13
4.64678e-15
1.39418e-14
2.32368e-14
3.25325e-14
4.18285e-14
5.11266e-14
6.04248e-14
6.97258e-14
7.90275e-14
8.83304e-14
9.76366e-14
1.06944e-13
1.16251e-13
1.25564e-13
1.34874e-13
1.44181e-13
4.64731e-15
1.39431e-14
2.32389e-14
3.25353e-14
4.18319e-14
5.11304e-14
6.04289e-14
6.973e-14
7.90316e-14
8.8334e-14
9.76395e-14
1.06946e-13
1.16252e-13
1.25563e-13
1.34871e-13
1.44176e-13
4.64773e-15
1.39441e-14
2.32405e-14
3.25375e-14
4.18346e-14
5.11335e-14
6.04322e-14
6.97332e-14
7.90346e-14
8.83366e-14
9.76415e-14
1.06947e-13
1.16252e-13
1.25561e-13
1.34868e-13
1.44171e-13
4.64808e-15
1.39449e-14
2.32418e-14
3.25392e-14
4.18365e-14
5.11357e-14
6.04344e-14
6.97354e-14
7.90365e-14
8.8338e-14
9.76423e-14
1.06947e-13
1.16251e-13
1.25558e-13
1.34864e-13
1.44165e-13
4.64834e-15
1.39455e-14
2.32427e-14
3.25404e-14
4.1838e-14
5.11372e-14
6.0436e-14
6.97368e-14
7.90377e-14
8.83387e-14
9.76423e-14
1.06946e-13
1.16249e-13
1.25555e-13
1.34859e-13
1.44159e-13
4.64855e-15
1.39459e-14
2.32434e-14
3.25413e-14
4.18391e-14
5.11383e-14
6.04371e-14
6.97377e-14
7.90382e-14
8.83388e-14
9.76418e-14
1.06945e-13
1.16247e-13
1.25552e-13
1.34855e-13
1.44154e-13
4.6487e-15
1.39462e-14
2.32439e-14
3.25419e-14
4.18397e-14
5.1139e-14
6.04376e-14
6.9738e-14
7.90382e-14
8.83384e-14
9.76408e-14
1.06943e-13
1.16244e-13
1.25549e-13
1.34851e-13
1.44148e-13
4.6488e-15
1.39464e-14
2.32442e-14
3.25422e-14
4.184e-14
5.11392e-14
6.04377e-14
6.97379e-14
7.90377e-14
8.83374e-14
9.76394e-14
1.06941e-13
1.16241e-13
1.25545e-13
1.34846e-13
1.44142e-13
4.64886e-15
1.39464e-14
2.32442e-14
3.25423e-14
4.184e-14
5.11391e-14
6.04374e-14
6.97373e-14
7.90368e-14
8.83361e-14
9.76375e-14
1.06938e-13
1.16238e-13
1.25541e-13
1.34841e-13
1.44137e-13
4.64888e-15
1.39464e-14
2.32442e-14
3.25421e-14
4.18397e-14
5.11387e-14
6.04367e-14
6.97363e-14
7.90355e-14
8.83344e-14
9.76353e-14
1.06936e-13
1.16235e-13
1.25537e-13
1.34836e-13
1.44131e-13
4.64887e-15
1.39463e-14
2.32439e-14
3.25418e-14
4.18393e-14
5.1138e-14
6.04358e-14
6.97351e-14
7.9034e-14
8.83324e-14
9.76328e-14
1.06933e-13
1.16231e-13
1.25533e-13
1.34832e-13
1.44125e-13
4.64884e-15
1.39461e-14
2.32436e-14
3.25413e-14
4.18386e-14
5.11371e-14
6.04347e-14
6.97337e-14
7.90321e-14
8.83301e-14
9.76301e-14
1.06929e-13
1.16227e-13
1.25528e-13
1.34827e-13
1.4412e-13
4.64878e-15
1.39459e-14
2.32432e-14
3.25407e-14
4.18377e-14
5.1136e-14
6.04333e-14
6.97319e-14
7.90301e-14
8.83276e-14
9.76272e-14
1.06926e-13
1.16223e-13
1.25524e-13
1.34821e-13
1.44114e-13
4.64869e-15
1.39455e-14
2.32427e-14
3.25399e-14
4.18367e-14
5.11347e-14
6.04317e-14
6.973e-14
7.90277e-14
8.83249e-14
9.7624e-14
1.06922e-13
1.16219e-13
1.25519e-13
1.34816e-13
1.44108e-13
4.64859e-15
1.39452e-14
2.32421e-14
3.25391e-14
4.18356e-14
5.11332e-14
6.04299e-14
6.97279e-14
7.90252e-14
8.8322e-14
9.76207e-14
1.06918e-13
1.16215e-13
1.25514e-13
1.34811e-13
1.44102e-13
4.64847e-15
1.39448e-14
2.32414e-14
3.25381e-14
4.18344e-14
5.11317e-14
6.0428e-14
6.97256e-14
7.90226e-14
8.8319e-14
9.76172e-14
1.06914e-13
1.1621e-13
1.25509e-13
1.34805e-13
1.44096e-13
4.64834e-15
1.39444e-14
2.32407e-14
3.25371e-14
4.1833e-14
5.113e-14
6.0426e-14
6.97232e-14
7.90198e-14
8.83157e-14
9.76136e-14
1.0691e-13
1.16206e-13
1.25504e-13
1.348e-13
1.4409e-13
4.6482e-15
1.39439e-14
2.32398e-14
3.25359e-14
4.18314e-14
5.11281e-14
6.04237e-14
6.97205e-14
7.90167e-14
8.83122e-14
9.76095e-14
1.06906e-13
1.16201e-13
1.25499e-13
1.34794e-13
1.44084e-13
4.64803e-15
1.39434e-14
2.3239e-14
3.25347e-14
4.18299e-14
5.11262e-14
6.04214e-14
6.97178e-14
7.90136e-14
8.83087e-14
9.76056e-14
1.06902e-13
1.16196e-13
1.25493e-13
1.34788e-13
1.44078e-13
4.64787e-15
1.39429e-14
2.32382e-14
3.25336e-14
4.18284e-14
5.11244e-14
6.04192e-14
6.97153e-14
7.90107e-14
8.83054e-14
9.76019e-14
1.06897e-13
1.16192e-13
1.25489e-13
1.34783e-13
1.44072e-13
4.64771e-15
1.39423e-14
2.32373e-14
3.25323e-14
4.18268e-14
5.11224e-14
6.04168e-14
6.97125e-14
7.90075e-14
8.83018e-14
9.75979e-14
1.06893e-13
1.16187e-13
1.25483e-13
1.34777e-13
1.44066e-13
4.64753e-15
1.39418e-14
2.32363e-14
3.2531e-14
4.18251e-14
5.11203e-14
6.04144e-14
6.97096e-14
7.90042e-14
8.82981e-14
9.75938e-14
1.06888e-13
1.16182e-13
1.25478e-13
1.34771e-13
1.44059e-13
4.64734e-15
1.39412e-14
2.32354e-14
3.25296e-14
4.18234e-14
5.11181e-14
6.04118e-14
6.97067e-14
7.90009e-14
8.82943e-14
9.75896e-14
1.06884e-13
1.16177e-13
1.25472e-13
1.34765e-13
1.44053e-13
4.64715e-15
1.39406e-14
2.32343e-14
3.25282e-14
4.18215e-14
5.11158e-14
6.0409e-14
6.97035e-14
7.89972e-14
8.82903e-14
9.75851e-14
1.06879e-13
1.16171e-13
1.25466e-13
1.34759e-13
1.44046e-13
4.64694e-15
1.39399e-14
2.32333e-14
3.25267e-14
4.18196e-14
5.11135e-14
6.04063e-14
6.97003e-14
7.89936e-14
8.82862e-14
9.75806e-14
1.06874e-13
1.16166e-13
1.25461e-13
1.34753e-13
1.4404e-13
4.64673e-15
1.39393e-14
2.32322e-14
3.25252e-14
4.18176e-14
5.11111e-14
6.04034e-14
6.9697e-14
7.89899e-14
8.8282e-14
9.7576e-14
1.06869e-13
1.16161e-13
1.25455e-13
1.34746e-13
1.44033e-13
4.64651e-15
1.39386e-14
2.32311e-14
3.25236e-14
4.18156e-14
5.11086e-14
6.04005e-14
6.96937e-14
7.89861e-14
8.82778e-14
9.75713e-14
1.06864e-13
1.16155e-13
1.25449e-13
1.3474e-13
1.44026e-13
4.64629e-15
1.39379e-14
2.32299e-14
3.2522e-14
4.18135e-14
5.1106e-14
6.03975e-14
6.96902e-14
7.89822e-14
8.82734e-14
9.75665e-14
1.06858e-13
1.16149e-13
1.25443e-13
1.34733e-13
1.44019e-13
4.64606e-15
1.3937e-14
2.32284e-14
3.25199e-14
4.18108e-14
5.11028e-14
6.03937e-14
6.96858e-14
7.89772e-14
8.82678e-14
9.75604e-14
1.06852e-13
1.16142e-13
1.25435e-13
1.34725e-13
1.4401e-13
4.64576e-15
1.39366e-14
2.32277e-14
3.25189e-14
4.18095e-14
5.11012e-14
6.03918e-14
6.96836e-14
7.89747e-14
8.82651e-14
9.75573e-14
1.06849e-13
1.16138e-13
1.25431e-13
1.34721e-13
1.44006e-13
4.64561e-15
1.39359e-14
2.32265e-14
3.25172e-14
4.18074e-14
5.10986e-14
6.03888e-14
6.96801e-14
7.89708e-14
8.82607e-14
9.75526e-14
1.06843e-13
1.16133e-13
1.25425e-13
1.34715e-13
1.43999e-13
4.64538e-15
1.39351e-14
2.32252e-14
3.25153e-14
4.1805e-14
5.10956e-14
6.03852e-14
6.9676e-14
7.89661e-14
8.82556e-14
9.75469e-14
1.06837e-13
1.16126e-13
1.25418e-13
1.34707e-13
1.43992e-13
4.64511e-15
1.39341e-14
2.32236e-14
3.25132e-14
4.18022e-14
5.10922e-14
6.03812e-14
6.96714e-14
7.89609e-14
8.82498e-14
9.75405e-14
1.0683e-13
1.16119e-13
1.2541e-13
1.34699e-13
1.43983e-13
4.6448e-15
1.39336e-14
2.32226e-14
3.25118e-14
4.18004e-14
5.10901e-14
6.03786e-14
6.96684e-14
7.89576e-14
8.8246e-14
9.75363e-14
1.06826e-13
1.16114e-13
1.25405e-13
1.34694e-13
1.43977e-13
4.6446e-15
1.39328e-14
2.32214e-14
3.251e-14
4.17981e-14
5.10872e-14
6.03753e-14
6.96646e-14
7.89532e-14
8.82411e-14
9.75309e-14
1.0682e-13
1.16108e-13
1.25398e-13
1.34687e-13
1.4397e-13
4.64435e-15
1.39316e-14
2.32194e-14
3.25072e-14
4.17945e-14
5.10828e-14
6.03701e-14
6.96585e-14
7.89463e-14
8.82334e-14
9.75224e-14
1.0681e-13
1.16097e-13
1.25387e-13
1.34675e-13
1.43959e-13
4.64395e-15
1.39311e-14
2.32185e-14
3.2506e-14
4.17929e-14
5.10809e-14
6.03677e-14
6.96558e-14
7.89432e-14
8.82299e-14
9.75185e-14
1.06806e-13
1.16093e-13
1.25382e-13
1.3467e-13
1.43954e-13
4.64377e-15
1.39302e-14
2.32171e-14
3.2504e-14
4.17904e-14
5.10778e-14
6.03641e-14
6.96516e-14
7.89384e-14
8.82245e-14
9.75125e-14
1.06799e-13
1.16085e-13
1.25374e-13
1.3466e-13
1.43942e-13
4.6435e-15
1.39292e-14
2.32154e-14
3.25016e-14
4.17873e-14
5.1074e-14
6.03596e-14
6.96464e-14
7.89325e-14
8.82178e-14
9.7505e-14
1.06791e-13
1.16076e-13
1.25364e-13
1.34648e-13
1.43929e-13
4.64316e-15
1.39283e-14
2.32139e-14
3.24995e-14
4.17846e-14
5.10707e-14
6.03557e-14
6.96418e-14
7.89273e-14
8.8212e-14
9.74986e-14
1.06784e-13
1.16068e-13
1.25355e-13
1.3464e-13
1.43919e-13
4.64285e-15
0
8.83524e-29
-1.26218e-29
2.52435e-29
-5.04871e-29
2.01948e-28
5.04871e-29
-7.57306e-29
-5.04871e-29
-1.00974e-28
1.51461e-28
0
5.04871e-29
3.02923e-28
5.04871e-29
0
)
;


// ************************************************************************* //
