/*--------------------------------*- C++ -*----------------------------------*\
| =========                 |                                                 |
| \\      /  F ield         | OpenFOAM: The Open Source CFD Toolbox           |
|  \\    /   O peration     | Version:  4.1                                   |
|   \\  /    A nd           | Web:      www.OpenFOAM.org                      |
|    \\/     M anipulation  |                                                 |
\*---------------------------------------------------------------------------*/
FoamFile
{
    version     2.0;
    format      ascii;
    class       volVectorField;
    location    "0.0064";
    object      cellDisplacement;
}
// * * * * * * * * * * * * * * * * * * * * * * * * * * * * * * * * * * * * * //

dimensions      [0 1 0 0 0 0 0];

internalField   nonuniform List<vector> 
1536
(
(-2.0557e-05 -5.8857e-05 2.0617e-08)
(-1.6751e-05 -5.8191e-05 2.03e-08)
(-1.3005e-05 -5.6068e-05 1.9555e-08)
(-9.3403e-06 -5.2556e-05 1.8419e-08)
(-5.7984e-06 -4.7889e-05 1.6889e-08)
(-2.4652e-06 -4.2372e-05 1.5024e-08)
(5.4354e-07 -3.6278e-05 1.2927e-08)
(3.1206e-06 -2.9821e-05 1.0692e-08)
(5.2047e-06 -2.3182e-05 8.406e-09)
(6.7955e-06 -1.6547e-05 6.1528e-09)
(7.9467e-06 -1.0155e-05 4.0091e-09)
(8.74e-06 -4.3117e-06 2.0686e-09)
(-2.056e-05 -5.1646e-05 8.6291e-06)
(-1.6763e-05 -5.1047e-05 8.5283e-06)
(-1.3024e-05 -4.9185e-05 8.2173e-06)
(-9.3686e-06 -4.6117e-05 7.7055e-06)
(-5.8437e-06 -4.2042e-05 7.0257e-06)
(-2.5323e-06 -3.7215e-05 6.2204e-06)
(4.5654e-07 -3.1877e-05 5.3295e-06)
(3.0221e-06 -2.6217e-05 4.3851e-06)
(5.1058e-06 -2.0396e-05 3.4139e-06)
(6.7062e-06 -1.4585e-05 2.444e-06)
(7.872e-06 -8.9951e-06 1.5107e-06)
(8.6789e-06 -3.8923e-06 6.585e-07)
(-2.0562e-05 -4.3713e-05 1.747e-05)
(-1.6771e-05 -4.3197e-05 1.7263e-05)
(-1.3037e-05 -4.162e-05 1.6633e-05)
(-9.389e-06 -3.9031e-05 1.5598e-05)
(-5.8758e-06 -3.5591e-05 1.4225e-05)
(-2.5791e-06 -3.1515e-05 1.2596e-05)
(3.9628e-07 -2.7002e-05 1.0794e-05)
(2.9539e-06 -2.2214e-05 8.8826e-06)
(5.0373e-06 -1.7293e-05 6.9175e-06)
(6.6441e-06 -1.2383e-05 4.9569e-06)
(7.8197e-06 -7.6638e-06 3.0723e-06)
(8.6356e-06 -3.3606e-06 1.3537e-06)
(-2.0563e-05 -3.5244e-05 2.6427e-05)
(-1.6776e-05 -3.4825e-05 2.6111e-05)
(-1.3044e-05 -3.3553e-05 2.5158e-05)
(-9.3997e-06 -3.1468e-05 2.3595e-05)
(-5.8925e-06 -2.8699e-05 2.1519e-05)
(-2.6031e-06 -2.5416e-05 1.9058e-05)
(3.6549e-07 -2.178e-05 1.6332e-05)
(2.9191e-06 -1.7923e-05 1.3441e-05)
(5.0023e-06 -1.3957e-05 1.0468e-05)
(6.6123e-06 -1.0003e-05 7.504e-06)
(7.7928e-06 -6.2037e-06 4.6563e-06)
(8.6133e-06 -2.7411e-06 2.0608e-06)
(-2.0563e-05 -2.6424e-05 3.5246e-05)
(-1.6776e-05 -2.6109e-05 3.4827e-05)
(-1.3044e-05 -2.5156e-05 3.3555e-05)
(-9.3998e-06 -2.3593e-05 3.147e-05)
(-5.8926e-06 -2.1517e-05 2.8701e-05)
(-2.6032e-06 -1.9057e-05 2.5417e-05)
(3.6541e-07 -1.6331e-05 2.1781e-05)
(2.919e-06 -1.344e-05 1.7923e-05)
(5.0022e-06 -1.0468e-05 1.3958e-05)
(6.6122e-06 -7.5037e-06 1.0003e-05)
(7.7928e-06 -4.6563e-06 6.2036e-06)
(8.6132e-06 -2.061e-06 2.7408e-06)
(-2.0562e-05 -1.7467e-05 4.3714e-05)
(-1.6771e-05 -1.726e-05 4.3198e-05)
(-1.3037e-05 -1.663e-05 4.1621e-05)
(-9.3892e-06 -1.5596e-05 3.9032e-05)
(-5.876e-06 -1.4222e-05 3.5592e-05)
(-2.5793e-06 -1.2595e-05 3.1515e-05)
(3.9602e-07 -1.0793e-05 2.7002e-05)
(2.9536e-06 -8.8816e-06 2.2215e-05)
(5.037e-06 -6.9168e-06 1.7293e-05)
(6.6438e-06 -4.9565e-06 1.2383e-05)
(7.8195e-06 -3.0722e-06 7.6635e-06)
(8.6355e-06 -1.3538e-06 3.3602e-06)
(-2.056e-05 -8.6262e-06 5.1647e-05)
(-1.6763e-05 -8.5255e-06 5.1047e-05)
(-1.3024e-05 -8.2147e-06 4.9185e-05)
(-9.3689e-06 -7.7032e-06 4.6117e-05)
(-5.8441e-06 -7.0236e-06 4.2042e-05)
(-2.5326e-06 -6.2187e-06 3.7215e-05)
(4.5612e-07 -5.3282e-06 3.1877e-05)
(3.0216e-06 -4.3841e-06 2.6216e-05)
(5.1054e-06 -3.4132e-06 2.0396e-05)
(6.7058e-06 -2.4437e-06 1.4585e-05)
(7.8717e-06 -1.5106e-06 8.9946e-06)
(8.6786e-06 -6.5855e-07 3.8917e-06)
(-2.0557e-05 -1.8074e-08 5.8857e-05)
(-1.6751e-05 -1.7882e-08 5.819e-05)
(-1.3006e-05 -1.7335e-08 5.6068e-05)
(-9.3407e-06 -1.6443e-08 5.2555e-05)
(-5.7989e-06 -1.5185e-08 4.7889e-05)
(-2.4657e-06 -1.3614e-08 4.2371e-05)
(5.4297e-07 -1.1827e-08 3.6277e-05)
(3.12e-06 -9.9007e-09 2.9821e-05)
(5.2041e-06 -7.898e-09 2.3181e-05)
(6.795e-06 -5.8821e-09 1.6546e-05)
(7.9463e-06 -3.9266e-09 1.0154e-05)
(8.7396e-06 -2.1167e-09 4.311e-06)
(-2.056e-05 -5.1644e-05 -8.5935e-06)
(-1.6763e-05 -5.1045e-05 -8.4933e-06)
(-1.3024e-05 -4.9183e-05 -8.1836e-06)
(-9.3685e-06 -4.6115e-05 -7.6738e-06)
(-5.8436e-06 -4.204e-05 -6.9966e-06)
(-2.5321e-06 -3.7214e-05 -6.1945e-06)
(4.5672e-07 -3.1876e-05 -5.3073e-06)
(3.0223e-06 -2.6216e-05 -4.3667e-06)
(5.106e-06 -2.0396e-05 -3.3994e-06)
(6.7064e-06 -1.4585e-05 -2.4334e-06)
(7.8722e-06 -8.9947e-06 -1.5037e-06)
(8.679e-06 -3.8921e-06 -6.5482e-07)
(-2.0562e-05 -4.412e-05 3.9617e-08)
(-1.6776e-05 -4.3596e-05 3.9033e-08)
(-1.3044e-05 -4.2006e-05 3.7572e-08)
(-9.4006e-06 -3.9398e-05 3.5287e-08)
(-5.8942e-06 -3.5934e-05 3.225e-08)
(-2.6056e-06 -3.1825e-05 2.8612e-08)
(3.6233e-07 -2.7273e-05 2.4556e-08)
(2.9157e-06 -2.2442e-05 2.0249e-08)
(4.9989e-06 -1.7475e-05 1.5843e-08)
(6.609e-06 -1.252e-05 1.1485e-08)
(7.79e-06 -7.7603e-06 7.3309e-09)
(8.6112e-06 -3.4213e-06 3.5705e-09)
(-2.0563e-05 -3.6002e-05 9.025e-06)
(-1.6784e-05 -3.5568e-05 8.9156e-06)
(-1.3059e-05 -3.427e-05 8.5903e-06)
(-9.4233e-06 -3.2148e-05 8.0584e-06)
(-5.9293e-06 -2.9329e-05 7.3521e-06)
(-2.6559e-06 -2.5983e-05 6.5137e-06)
(2.9826e-07 -2.2273e-05 5.5841e-06)
(2.8435e-06 -1.8333e-05 4.5973e-06)
(4.9262e-06 -1.4284e-05 3.5829e-06)
(6.5427e-06 -1.0247e-05 2.5717e-06)
(7.7337e-06 -6.3732e-06 1.6013e-06)
(8.5644e-06 -2.8453e-06 7.1752e-07)
(-2.0563e-05 -2.7314e-05 1.8221e-05)
(-1.6788e-05 -2.6982e-05 1.7999e-05)
(-1.3066e-05 -2.5997e-05 1.7342e-05)
(-9.435e-06 -2.4389e-05 1.627e-05)
(-5.9473e-06 -2.2254e-05 1.4845e-05)
(-2.6815e-06 -1.9718e-05 1.3154e-05)
(2.6576e-07 -1.6905e-05 1.1278e-05)
(2.8069e-06 -1.3918e-05 9.2852e-06)
(4.8894e-06 -1.0847e-05 7.2375e-06)
(6.5091e-06 -7.7877e-06 5.197e-06)
(7.705e-06 -4.8528e-06 3.2396e-06)
(8.5404e-06 -2.1815e-06 1.458e-06)
(-2.0563e-05 -1.8218e-05 2.7317e-05)
(-1.6788e-05 -1.7996e-05 2.6984e-05)
(-1.3066e-05 -1.7339e-05 2.5999e-05)
(-9.4351e-06 -1.6267e-05 2.4391e-05)
(-5.9473e-06 -1.4843e-05 2.2255e-05)
(-2.6816e-06 -1.3152e-05 1.9719e-05)
(2.6567e-07 -1.1276e-05 1.6906e-05)
(2.8068e-06 -9.2839e-06 1.3918e-05)
(4.8893e-06 -7.2365e-06 1.0848e-05)
(6.509e-06 -5.1965e-06 7.788e-06)
(7.705e-06 -3.2394e-06 4.8528e-06)
(8.5403e-06 -1.4581e-06 2.1813e-06)
(-2.0563e-05 -9.0207e-06 3.6004e-05)
(-1.6784e-05 -8.9116e-06 3.5569e-05)
(-1.3059e-05 -8.5865e-06 3.4271e-05)
(-9.4235e-06 -8.0549e-06 3.2149e-05)
(-5.9295e-06 -7.349e-06 2.933e-05)
(-2.6562e-06 -6.5111e-06 2.5984e-05)
(2.98e-07 -5.5819e-06 2.2273e-05)
(2.8432e-06 -4.5956e-06 1.8334e-05)
(4.926e-06 -3.5817e-06 1.4284e-05)
(6.5425e-06 -2.571e-06 1.0247e-05)
(7.7335e-06 -1.6009e-06 6.3729e-06)
(8.5642e-06 -7.1748e-07 2.845e-06)
(-2.0562e-05 -3.5205e-08 4.412e-05)
(-1.6776e-05 -3.4791e-08 4.3596e-05)
(-1.3044e-05 -3.3612e-08 4.2006e-05)
(-9.4009e-06 -3.1698e-08 3.9398e-05)
(-5.8945e-06 -2.9092e-08 3.5934e-05)
(-2.606e-06 -2.5926e-08 3.1825e-05)
(3.6191e-07 -2.2369e-08 2.7273e-05)
(2.9152e-06 -1.8566e-08 2.2442e-05)
(4.9984e-06 -1.4641e-08 1.7475e-05)
(6.6086e-06 -1.0717e-08 1.252e-05)
(7.7897e-06 -6.9388e-09 7.7598e-06)
(8.6109e-06 -3.4797e-09 3.4208e-06)
(-2.056e-05 8.5972e-06 5.1644e-05)
(-1.6763e-05 8.4968e-06 5.1044e-05)
(-1.3024e-05 8.1868e-06 4.9183e-05)
(-9.3689e-06 7.6767e-06 4.6115e-05)
(-5.8441e-06 6.9991e-06 4.2039e-05)
(-2.5326e-06 6.1967e-06 3.7213e-05)
(4.5616e-07 5.309e-06 3.1875e-05)
(3.0217e-06 4.368e-06 2.6215e-05)
(5.1054e-06 3.4003e-06 2.0395e-05)
(6.7059e-06 2.434e-06 1.4584e-05)
(7.8718e-06 1.504e-06 8.994e-06)
(8.6787e-06 6.5487e-07 3.8914e-06)
(-2.0562e-05 -4.3719e-05 -1.7474e-05)
(-1.6771e-05 -4.3203e-05 -1.7267e-05)
(-1.3037e-05 -4.1627e-05 -1.6637e-05)
(-9.3888e-06 -3.9037e-05 -1.5602e-05)
(-5.8755e-06 -3.5596e-05 -1.4228e-05)
(-2.5787e-06 -3.1519e-05 -1.2599e-05)
(3.9674e-07 -2.7005e-05 -1.0796e-05)
(2.9544e-06 -2.2218e-05 -8.8844e-06)
(5.0378e-06 -1.7295e-05 -6.9188e-06)
(6.6445e-06 -1.2385e-05 -4.9575e-06)
(7.8201e-06 -7.6648e-06 -3.0724e-06)
(8.636e-06 -3.3609e-06 -1.3532e-06)
(-2.0563e-05 -3.5997e-05 -8.9887e-06)
(-1.6784e-05 -3.5563e-05 -8.8799e-06)
(-1.3058e-05 -3.4266e-05 -8.556e-06)
(-9.4231e-06 -3.2144e-05 -8.0262e-06)
(-5.9291e-06 -2.9325e-05 -7.3227e-06)
(-2.6557e-06 -2.598e-05 -6.4876e-06)
(2.9855e-07 -2.2269e-05 -5.5616e-06)
(2.8438e-06 -1.8331e-05 -4.5787e-06)
(4.9265e-06 -1.4282e-05 -3.5683e-06)
(6.543e-06 -1.0246e-05 -2.5611e-06)
(7.734e-06 -6.3721e-06 -1.5943e-06)
(8.5646e-06 -2.8447e-06 -7.138e-07)
(-2.0563e-05 -2.7679e-05 3.08e-08)
(-1.6793e-05 -2.734e-05 3.0356e-08)
(-1.3074e-05 -2.6342e-05 2.92e-08)
(-9.4474e-06 -2.4715e-05 2.7382e-08)
(-5.9664e-06 -2.2553e-05 2.4994e-08)
(-2.7087e-06 -1.9986e-05 2.216e-08)
(2.3148e-07 -1.7136e-05 1.9015e-08)
(2.7684e-06 -1.4109e-05 1.5681e-08)
(4.8507e-06 -1.0998e-05 1.2274e-08)
(6.4736e-06 -7.8998e-06 8.9102e-09)
(7.6747e-06 -4.9292e-06 5.7156e-09)
(8.515e-06 -2.227e-06 2.8336e-09)
(-2.0563e-05 -1.8779e-05 9.4317e-06)
(-1.6797e-05 -1.8547e-05 9.315e-06)
(-1.3082e-05 -1.787e-05 8.9747e-06)
(-9.46e-06 -1.6767e-05 8.4208e-06)
(-5.9856e-06 -1.5303e-05 7.6853e-06)
(-2.7357e-06 -1.3562e-05 6.8113e-06)
(1.9742e-07 -1.163e-05 5.8408e-06)
(2.7302e-06 -9.5772e-06 4.81e-06)
(4.8122e-06 -7.4678e-06 3.7508e-06)
(6.4383e-06 -5.3676e-06 2.6962e-06)
(7.6444e-06 -3.3551e-06 1.6857e-06)
(8.4896e-06 -1.5255e-06 7.6703e-07)
(-2.0563e-05 -9.4266e-06 1.8783e-05)
(-1.6797e-05 -9.3101e-06 1.8551e-05)
(-1.3082e-05 -8.9701e-06 1.7874e-05)
(-9.4601e-06 -8.4166e-06 1.677e-05)
(-5.9856e-06 -7.6816e-06 1.5306e-05)
(-2.7358e-06 -6.8081e-06 1.3565e-05)
(1.9733e-07 -5.8382e-06 1.1632e-05)
(2.7301e-06 -4.808e-06 9.5787e-06)
(4.8121e-06 -3.7493e-06 7.4689e-06)
(6.4382e-06 -2.6952e-06 5.3682e-06)
(7.6444e-06 -1.6852e-06 3.3554e-06)
(8.4896e-06 -7.6693e-07 1.5254e-06)
(-2.0563e-05 -2.4481e-08 2.7682e-05)
(-1.6793e-05 -2.4247e-08 2.7342e-05)
(-1.3074e-05 -2.3459e-08 2.6344e-05)
(-9.4476e-06 -2.2137e-08 2.4716e-05)
(-5.9666e-06 -2.0339e-08 2.2555e-05)
(-2.7089e-06 -1.8159e-08 1.9987e-05)
(2.3123e-07 -1.5705e-08 1.7137e-05)
(2.7682e-06 -1.3075e-08 1.411e-05)
(4.8504e-06 -1.0354e-08 1.0999e-05)
(6.4734e-06 -7.6291e-09 7.9e-06)
(7.6745e-06 -5.0035e-09 4.9292e-06)
(8.5149e-06 -2.5987e-09 2.2268e-06)
(-2.0563e-05 8.9957e-06 3.5997e-05)
(-1.6784e-05 8.8867e-06 3.5563e-05)
(-1.3059e-05 8.5623e-06 3.4265e-05)
(-9.4234e-06 8.032e-06 3.2143e-05)
(-5.9294e-06 7.3278e-06 2.9325e-05)
(-2.6561e-06 6.492e-06 2.5979e-05)
(2.9814e-07 5.5653e-06 2.2269e-05)
(2.8434e-06 4.5816e-06 1.833e-05)
(4.9261e-06 3.5704e-06 1.4281e-05)
(6.5427e-06 2.5625e-06 1.0245e-05)
(7.7337e-06 1.5951e-06 6.3716e-06)
(8.5643e-06 7.1412e-07 2.8442e-06)
(-2.0562e-05 1.7479e-05 4.3717e-05)
(-1.6771e-05 1.7272e-05 4.3201e-05)
(-1.3037e-05 1.6641e-05 4.1625e-05)
(-9.3892e-06 1.5606e-05 3.9035e-05)
(-5.876e-06 1.4232e-05 3.5595e-05)
(-2.5792e-06 1.2603e-05 3.1518e-05)
(3.9619e-07 1.0799e-05 2.7004e-05)
(2.9538e-06 8.8864e-06 2.2216e-05)
(5.0373e-06 6.9203e-06 1.7294e-05)
(6.6441e-06 4.9585e-06 1.2384e-05)
(7.8197e-06 3.073e-06 7.664e-06)
(8.6357e-06 1.3534e-06 3.3602e-06)
(-2.0563e-05 -3.5242e-05 -2.6424e-05)
(-1.6775e-05 -3.4823e-05 -2.6109e-05)
(-1.3044e-05 -3.3552e-05 -2.5156e-05)
(-9.3995e-06 -3.1467e-05 -2.3593e-05)
(-5.8922e-06 -2.8698e-05 -2.1517e-05)
(-2.6027e-06 -2.5415e-05 -1.9056e-05)
(3.6593e-07 -2.1779e-05 -1.6331e-05)
(2.9196e-06 -1.7922e-05 -1.3439e-05)
(5.0028e-06 -1.3957e-05 -1.0467e-05)
(6.6127e-06 -1.0002e-05 -7.503e-06)
(7.7932e-06 -6.2033e-06 -4.6554e-06)
(8.6137e-06 -2.7409e-06 -2.0599e-06)
(-2.0563e-05 -2.7296e-05 -1.8215e-05)
(-1.6788e-05 -2.6964e-05 -1.7993e-05)
(-1.3066e-05 -2.598e-05 -1.7336e-05)
(-9.4348e-06 -2.4373e-05 -1.6264e-05)
(-5.9471e-06 -2.2239e-05 -1.484e-05)
(-2.6813e-06 -1.9705e-05 -1.3149e-05)
(2.6601e-07 -1.6893e-05 -1.1274e-05)
(2.8072e-06 -1.3908e-05 -9.2819e-06)
(4.8897e-06 -1.084e-05 -7.2348e-06)
(6.5093e-06 -7.7825e-06 -5.1949e-06)
(7.7053e-06 -4.8495e-06 -3.238e-06)
(8.5406e-06 -2.18e-06 -1.4569e-06)
(-2.0563e-05 -1.8771e-05 -9.4054e-06)
(-1.6797e-05 -1.8539e-05 -9.2892e-06)
(-1.3082e-05 -1.7862e-05 -8.9499e-06)
(-9.4599e-06 -1.6759e-05 -8.3976e-06)
(-5.9855e-06 -1.5296e-05 -7.6641e-06)
(-2.7356e-06 -1.3556e-05 -6.7925e-06)
(1.9754e-07 -1.1625e-05 -5.8247e-06)
(2.7303e-06 -9.5728e-06 -4.7967e-06)
(4.8123e-06 -7.4644e-06 -3.7403e-06)
(6.4384e-06 -5.3651e-06 -2.6885e-06)
(7.6445e-06 -3.3536e-06 -1.6806e-06)
(8.4897e-06 -1.5247e-06 -7.6429e-07)
(-2.0563e-05 -9.6078e-06 9.7015e-09)
(-1.6801e-05 -9.4882e-06 9.5407e-09)
(-1.309e-05 -9.1416e-06 9.1536e-09)
(-9.4731e-06 -8.578e-06 8.5677e-09)
(-6.0054e-06 -7.8297e-06 7.8167e-09)
(-2.7635e-06 -6.94e-06 6.9359e-09)
(1.6248e-07 -5.9518e-06 5.9623e-09)
(2.6911e-06 -4.9019e-06 4.9336e-09)
(4.7728e-06 -3.8232e-06 3.8899e-09)
(6.4021e-06 -2.7496e-06 2.8713e-09)
(7.6133e-06 -1.7215e-06 1.9182e-09)
(8.4635e-06 -7.8724e-07 1.0708e-09)
(-2.0563e-05 -3.1031e-09 9.6138e-06)
(-1.6802e-05 -3.1628e-09 9.494e-06)
(-1.309e-05 -3.1618e-09 9.1471e-06)
(-9.4731e-06 -3.0961e-09 8.583e-06)
(-6.0055e-06 -2.9622e-09 7.8341e-06)
(-2.7636e-06 -2.7628e-09 6.9438e-06)
(1.624e-07 -2.5081e-09 5.9549e-06)
(2.691e-06 -2.2096e-09 4.9044e-06)
(4.7727e-06 -1.878e-09 3.825e-06)
(6.402e-06 -1.5249e-09 2.7508e-06)
(7.6133e-06 -1.1665e-09 1.7221e-06)
(8.4635e-06 -8.2038e-10 7.8741e-07)
(-2.0563e-05 9.4145e-06 1.8775e-05)
(-1.6797e-05 9.298e-06 1.8543e-05)
(-1.3082e-05 8.9582e-06 1.7866e-05)
(-9.4601e-06 8.4052e-06 1.6763e-05)
(-5.9857e-06 7.6709e-06 1.5299e-05)
(-2.7358e-06 6.7983e-06 1.3559e-05)
(1.973e-07 5.8295e-06 1.1627e-05)
(2.7301e-06 4.8006e-06 9.5747e-06)
(4.8121e-06 3.7432e-06 7.4657e-06)
(6.4382e-06 2.6905e-06 5.366e-06)
(7.6444e-06 1.6818e-06 3.354e-06)
(8.4896e-06 7.6476e-07 1.5247e-06)
(-2.0563e-05 1.8227e-05 2.7294e-05)
(-1.6788e-05 1.8005e-05 2.6962e-05)
(-1.3066e-05 1.7347e-05 2.5978e-05)
(-9.4352e-06 1.6274e-05 2.4371e-05)
(-5.9474e-06 1.4849e-05 2.2237e-05)
(-2.6817e-06 1.3157e-05 1.9703e-05)
(2.656e-07 1.128e-05 1.6892e-05)
(2.8068e-06 9.2872e-06 1.3907e-05)
(4.8893e-06 7.2388e-06 1.0839e-05)
(6.509e-06 5.1977e-06 7.7814e-06)
(7.705e-06 3.2397e-06 4.8487e-06)
(8.5404e-06 1.4576e-06 2.1794e-06)
(-2.0563e-05 2.6432e-05 3.5239e-05)
(-1.6776e-05 2.6117e-05 3.4819e-05)
(-1.3044e-05 2.5163e-05 3.3548e-05)
(-9.3999e-06 2.3599e-05 3.1463e-05)
(-5.8927e-06 2.1523e-05 2.8695e-05)
(-2.6032e-06 1.9061e-05 2.5412e-05)
(3.6537e-07 1.6335e-05 2.1777e-05)
(2.919e-06 1.3442e-05 1.792e-05)
(5.0023e-06 1.0469e-05 1.3955e-05)
(6.6123e-06 7.5045e-06 1.0001e-05)
(7.7929e-06 4.6564e-06 6.2023e-06)
(8.6134e-06 2.0603e-06 2.7402e-06)
(-2.0562e-05 -2.6427e-05 -3.524e-05)
(-1.6775e-05 -2.6112e-05 -3.482e-05)
(-1.3044e-05 -2.5159e-05 -3.3549e-05)
(-9.3995e-06 -2.3596e-05 -3.1464e-05)
(-5.8921e-06 -2.152e-05 -2.8696e-05)
(-2.6027e-06 -1.9059e-05 -2.5413e-05)
(3.6595e-07 -1.6333e-05 -2.1777e-05)
(2.9196e-06 -1.3441e-05 -1.792e-05)
(5.0028e-06 -1.0469e-05 -1.3955e-05)
(6.6128e-06 -7.5046e-06 -1.0001e-05)
(7.7933e-06 -4.6568e-06 -6.2021e-06)
(8.6137e-06 -2.0611e-06 -2.7398e-06)
(-2.0563e-05 -1.8219e-05 -2.7293e-05)
(-1.6788e-05 -1.7997e-05 -2.696e-05)
(-1.3066e-05 -1.734e-05 -2.5977e-05)
(-9.4348e-06 -1.6268e-05 -2.437e-05)
(-5.947e-06 -1.4844e-05 -2.2236e-05)
(-2.6813e-06 -1.3152e-05 -1.9702e-05)
(2.6603e-07 -1.1276e-05 -1.6891e-05)
(2.8072e-06 -9.2845e-06 -1.3906e-05)
(4.8897e-06 -7.237e-06 -1.0838e-05)
(6.5094e-06 -5.1967e-06 -7.7809e-06)
(7.7053e-06 -3.2395e-06 -4.8482e-06)
(8.5406e-06 -1.458e-06 -2.1789e-06)
(-2.0563e-05 -9.4107e-06 -1.8766e-05)
(-1.6797e-05 -9.2944e-06 -1.8534e-05)
(-1.3082e-05 -8.9551e-06 -1.7858e-05)
(-9.4599e-06 -8.4025e-06 -1.6755e-05)
(-5.9855e-06 -7.6687e-06 -1.5292e-05)
(-2.7355e-06 -6.7967e-06 -1.3553e-05)
(1.9758e-07 -5.8284e-06 -1.1621e-05)
(2.7304e-06 -4.7999e-06 -9.5701e-06)
(4.8124e-06 -3.743e-06 -7.462e-06)
(6.4384e-06 -2.6907e-06 -5.3632e-06)
(7.6446e-06 -1.6824e-06 -3.352e-06)
(8.4898e-06 -7.6555e-07 -1.5235e-06)
(-2.0563e-05 3.1472e-09 -9.6016e-06)
(-1.6801e-05 2.9926e-09 -9.4821e-06)
(-1.309e-05 2.7575e-09 -9.1356e-06)
(-9.4731e-06 2.4541e-09 -8.5723e-06)
(-6.0054e-06 2.1012e-09 -7.8244e-06)
(-2.7635e-06 1.7209e-09 -6.9352e-06)
(1.6252e-07 1.332e-09 -5.9475e-06)
(2.6911e-06 9.5025e-10 -4.8982e-06)
(4.7728e-06 5.8943e-10 -3.8201e-06)
(6.4021e-06 2.6056e-10 -2.7471e-06)
(7.6134e-06 -2.766e-11 -1.7196e-06)
(8.4636e-06 -2.6472e-10 -7.8592e-07)
(-2.0563e-05 9.6078e-06 5.6662e-09)
(-1.6802e-05 9.488e-06 5.5694e-09)
(-1.309e-05 9.1412e-06 5.3366e-09)
(-9.4731e-06 8.5774e-06 4.9904e-09)
(-6.0054e-06 7.8288e-06 4.5537e-09)
(-2.7635e-06 6.939e-06 4.0462e-09)
(1.6244e-07 5.9506e-06 3.4865e-09)
(2.691e-06 4.9007e-06 2.8948e-09)
(4.7727e-06 3.8219e-06 2.2959e-09)
(6.402e-06 2.7483e-06 1.7154e-09)
(7.6133e-06 1.7203e-06 1.1775e-09)
(8.4635e-06 7.8615e-07 7.0488e-10)
(-2.0563e-05 1.8777e-05 9.4238e-06)
(-1.6797e-05 1.8545e-05 9.3072e-06)
(-1.3082e-05 1.7868e-05 8.9673e-06)
(-9.4601e-06 1.6765e-05 8.4138e-06)
(-5.9857e-06 1.53e-05 7.679e-06)
(-2.7358e-06 1.356e-05 6.8056e-06)
(1.9734e-07 1.1627e-05 5.836e-06)
(2.7301e-06 9.5748e-06 4.806e-06)
(4.8122e-06 7.4657e-06 3.7477e-06)
(6.4383e-06 5.3657e-06 2.6939e-06)
(7.6444e-06 3.3535e-06 1.6843e-06)
(8.4897e-06 1.5242e-06 7.6633e-07)
(-2.0563e-05 2.7317e-05 1.821e-05)
(-1.6788e-05 2.6985e-05 1.7988e-05)
(-1.3066e-05 2.6e-05 1.7332e-05)
(-9.4352e-06 2.4391e-05 1.626e-05)
(-5.9474e-06 2.2255e-05 1.4836e-05)
(-2.6817e-06 1.9719e-05 1.3146e-05)
(2.6565e-07 1.6905e-05 1.1271e-05)
(2.8068e-06 1.3918e-05 9.2795e-06)
(4.8894e-06 1.0847e-05 7.233e-06)
(6.5091e-06 7.7873e-06 5.1938e-06)
(7.7051e-06 4.8521e-06 3.2376e-06)
(8.5404e-06 2.1806e-06 1.4571e-06)
(-2.0563e-05 3.5248e-05 2.642e-05)
(-1.6776e-05 3.4829e-05 2.6105e-05)
(-1.3044e-05 3.3557e-05 2.5152e-05)
(-9.3999e-06 3.1471e-05 2.3589e-05)
(-5.8927e-06 2.8702e-05 2.1513e-05)
(-2.6032e-06 2.5418e-05 1.9053e-05)
(3.6536e-07 2.1781e-05 1.6328e-05)
(2.919e-06 1.7923e-05 1.3437e-05)
(5.0023e-06 1.3958e-05 1.0466e-05)
(6.6123e-06 1.0002e-05 7.502e-06)
(7.7929e-06 6.2032e-06 4.6551e-06)
(8.6134e-06 2.7403e-06 2.0602e-06)
(-2.0562e-05 -1.7477e-05 -4.3717e-05)
(-1.6771e-05 -1.727e-05 -4.3201e-05)
(-1.3037e-05 -1.664e-05 -4.1625e-05)
(-9.3887e-06 -1.5605e-05 -3.9035e-05)
(-5.8755e-06 -1.4231e-05 -3.5595e-05)
(-2.5786e-06 -1.2602e-05 -3.1518e-05)
(3.9681e-07 -1.0799e-05 -2.7004e-05)
(2.9545e-06 -8.8867e-06 -2.2216e-05)
(5.0379e-06 -6.9208e-06 -1.7294e-05)
(6.6446e-06 -4.9593e-06 -1.2383e-05)
(7.8202e-06 -3.0739e-06 -7.6638e-06)
(8.6361e-06 -1.3544e-06 -3.3599e-06)
(-2.0563e-05 -8.993e-06 -3.5995e-05)
(-1.6784e-05 -8.8843e-06 -3.556e-05)
(-1.3058e-05 -8.5603e-06 -3.4263e-05)
(-9.4231e-06 -8.0304e-06 -3.2141e-05)
(-5.929e-06 -7.3266e-06 -2.9323e-05)
(-2.6556e-06 -6.4912e-06 -2.5978e-05)
(2.9862e-07 -5.5649e-06 -2.2268e-05)
(2.8439e-06 -4.5816e-06 -1.8329e-05)
(4.9266e-06 -3.5708e-06 -1.428e-05)
(6.5431e-06 -2.5631e-06 -1.0245e-05)
(7.7341e-06 -1.5959e-06 -6.371e-06)
(8.5647e-06 -7.1504e-07 -2.8437e-06)
(-2.0563e-05 2.4534e-08 -2.7676e-05)
(-1.6793e-05 2.4088e-08 -2.7337e-05)
(-1.3074e-05 2.3065e-08 -2.6339e-05)
(-9.4474e-06 2.1504e-08 -2.4712e-05)
(-5.9663e-06 1.9484e-08 -2.2551e-05)
(-2.7086e-06 1.7119e-08 -1.9983e-05)
(2.3158e-07 1.4523e-08 -1.7134e-05)
(2.7685e-06 1.1802e-08 -1.4107e-05)
(4.8508e-06 9.046e-09 -1.0997e-05)
(6.4737e-06 6.3427e-09 -7.8984e-06)
(7.6748e-06 3.7869e-09 -4.928e-06)
(8.5152e-06 1.4931e-09 -2.226e-06)
(-2.0563e-05 9.4229e-06 -1.8774e-05)
(-1.6797e-05 9.3062e-06 -1.8542e-05)
(-1.3082e-05 8.9662e-06 -1.7865e-05)
(-9.46e-06 8.4126e-06 -1.6762e-05)
(-5.9855e-06 7.6777e-06 -1.5298e-05)
(-2.7356e-06 6.8044e-06 -1.3558e-05)
(1.9753e-07 5.8347e-06 -1.1626e-05)
(2.7303e-06 4.8048e-06 -9.5741e-06)
(4.8123e-06 3.7465e-06 -7.4652e-06)
(6.4384e-06 2.6929e-06 -5.3655e-06)
(7.6446e-06 1.6834e-06 -3.3535e-06)
(8.4898e-06 7.6554e-07 -1.5242e-06)
(-2.0563e-05 1.8773e-05 -9.4133e-06)
(-1.6797e-05 1.8541e-05 -9.2969e-06)
(-1.3082e-05 1.7863e-05 -8.9574e-06)
(-9.46e-06 1.6761e-05 -8.4046e-06)
(-5.9856e-06 1.5297e-05 -7.6705e-06)
(-2.7357e-06 1.3557e-05 -6.7981e-06)
(1.9746e-07 1.1625e-05 -5.8295e-06)
(2.7303e-06 9.5726e-06 -4.8007e-06)
(4.8123e-06 7.464e-06 -3.7434e-06)
(6.4384e-06 5.3645e-06 -2.6907e-06)
(7.6445e-06 3.3528e-06 -1.6821e-06)
(8.4898e-06 1.5238e-06 -7.6502e-07)
(-2.0563e-05 2.7679e-05 2.3134e-08)
(-1.6793e-05 2.734e-05 2.2817e-08)
(-1.3074e-05 2.6342e-05 2.1956e-08)
(-9.4476e-06 2.4714e-05 2.0593e-08)
(-5.9665e-06 2.2552e-05 1.8799e-08)
(-2.7088e-06 1.9985e-05 1.6672e-08)
(2.3136e-07 1.7134e-05 1.4309e-08)
(2.7683e-06 1.4108e-05 1.1801e-08)
(4.8506e-06 1.0997e-05 9.234e-09)
(6.4736e-06 7.8986e-06 6.6975e-09)
(7.6747e-06 4.928e-06 4.2883e-09)
(8.5151e-06 2.2259e-06 2.1168e-09)
(-2.0563e-05 3.6004e-05 9.0175e-06)
(-1.6784e-05 3.5569e-05 8.9083e-06)
(-1.3059e-05 3.4271e-05 8.5832e-06)
(-9.4235e-06 3.2148e-05 8.0518e-06)
(-5.9294e-06 2.9329e-05 7.3461e-06)
(-2.6561e-06 2.5983e-05 6.5084e-06)
(2.981e-07 2.2272e-05 5.5795e-06)
(2.8433e-06 1.8333e-05 4.5935e-06)
(4.9261e-06 1.4283e-05 3.5799e-06)
(6.5427e-06 1.0246e-05 2.5696e-06)
(7.7338e-06 6.3722e-06 1.5999e-06)
(8.5644e-06 2.8443e-06 7.1683e-07)
(-2.0562e-05 4.3715e-05 1.7464e-05)
(-1.6772e-05 4.3198e-05 1.7257e-05)
(-1.3037e-05 4.1622e-05 1.6627e-05)
(-9.3893e-06 3.9032e-05 1.5593e-05)
(-5.8761e-06 3.5592e-05 1.422e-05)
(-2.5793e-06 3.1515e-05 1.2593e-05)
(3.9608e-07 2.7002e-05 1.0791e-05)
(2.9537e-06 2.2214e-05 8.8798e-06)
(5.0372e-06 1.7292e-05 6.9154e-06)
(6.644e-06 1.2382e-05 4.9553e-06)
(7.8198e-06 7.663e-06 3.0713e-06)
(8.6358e-06 3.3597e-06 1.3532e-06)
(-2.056e-05 -8.5964e-06 -5.1643e-05)
(-1.6763e-05 -8.4962e-06 -5.1043e-05)
(-1.3023e-05 -8.1865e-06 -4.9182e-05)
(-9.3684e-06 -7.6767e-06 -4.6114e-05)
(-5.8435e-06 -6.9994e-06 -4.2039e-05)
(-2.532e-06 -6.1972e-06 -3.7213e-05)
(4.5682e-07 -5.3098e-06 -3.1875e-05)
(3.0224e-06 -4.369e-06 -2.6215e-05)
(5.1061e-06 -3.4014e-06 -2.0395e-05)
(6.7065e-06 -2.4352e-06 -1.4584e-05)
(7.8724e-06 -1.5052e-06 -8.9939e-06)
(8.6792e-06 -6.5601e-07 -3.8913e-06)
(-2.0562e-05 3.528e-08 -4.4119e-05)
(-1.6775e-05 3.4659e-08 -4.3594e-05)
(-1.3044e-05 3.3246e-08 -4.2005e-05)
(-9.4006e-06 3.1088e-08 -3.9397e-05)
(-5.8941e-06 2.8254e-08 -3.5933e-05)
(-2.6055e-06 2.4894e-08 -3.1824e-05)
(3.6245e-07 2.1181e-08 -2.7272e-05)
(2.9158e-06 1.727e-08 -2.2441e-05)
(4.999e-06 1.3299e-08 -1.7474e-05)
(6.6092e-06 9.3919e-09 -1.252e-05)
(7.7902e-06 5.6813e-09 -7.7596e-06)
(8.6114e-06 2.3364e-09 -3.4205e-06)
(-2.0563e-05 9.0182e-06 -3.6002e-05)
(-1.6784e-05 8.9089e-06 -3.5567e-05)
(-1.3058e-05 8.5836e-06 -3.427e-05)
(-9.4232e-06 8.0521e-06 -3.2147e-05)
(-5.9291e-06 7.3461e-06 -2.9329e-05)
(-2.6558e-06 6.5083e-06 -2.5983e-05)
(2.9841e-07 5.5792e-06 -2.2272e-05)
(2.8436e-06 4.5931e-06 -1.8333e-05)
(4.9264e-06 3.5794e-06 -1.4283e-05)
(6.543e-06 2.569e-06 -1.0247e-05)
(7.734e-06 1.5993e-06 -6.3725e-06)
(8.5646e-06 7.1616e-07 -2.8446e-06)
(-2.0563e-05 1.821e-05 -2.7316e-05)
(-1.6788e-05 1.7988e-05 -2.6983e-05)
(-1.3066e-05 1.7331e-05 -2.5998e-05)
(-9.4349e-06 1.6259e-05 -2.439e-05)
(-5.9472e-06 1.4835e-05 -2.2255e-05)
(-2.6814e-06 1.3145e-05 -1.9719e-05)
(2.6594e-07 1.127e-05 -1.6905e-05)
(2.8071e-06 9.2786e-06 -1.3918e-05)
(4.8897e-06 7.2321e-06 -1.0847e-05)
(6.5094e-06 5.1929e-06 -7.7875e-06)
(7.7053e-06 3.2368e-06 -4.8524e-06)
(8.5407e-06 1.4563e-06 -2.1809e-06)
(-2.0563e-05 2.7293e-05 -1.8226e-05)
(-1.6788e-05 2.696e-05 -1.8004e-05)
(-1.3066e-05 2.5976e-05 -1.7347e-05)
(-9.435e-06 2.4369e-05 -1.6274e-05)
(-5.9472e-06 2.2235e-05 -1.4849e-05)
(-2.6815e-06 1.9701e-05 -1.3157e-05)
(2.6587e-07 1.689e-05 -1.128e-05)
(2.807e-06 1.3906e-05 -9.2876e-06)
(4.8896e-06 1.0837e-05 -7.2393e-06)
(6.5093e-06 7.7804e-06 -5.1982e-06)
(7.7053e-06 4.8478e-06 -3.2401e-06)
(8.5406e-06 2.1787e-06 -1.4579e-06)
(-2.0563e-05 3.5996e-05 -8.9961e-06)
(-1.6784e-05 3.5561e-05 -8.8873e-06)
(-1.3059e-05 3.4264e-05 -8.563e-06)
(-9.4233e-06 3.2142e-05 -8.0328e-06)
(-5.9293e-06 2.9323e-05 -7.3287e-06)
(-2.6559e-06 2.5978e-05 -6.4929e-06)
(2.9838e-07 2.2267e-05 -5.5662e-06)
(2.8437e-06 1.8329e-05 -4.5825e-06)
(4.9265e-06 1.428e-05 -3.5713e-06)
(6.543e-06 1.0244e-05 -2.5633e-06)
(7.734e-06 6.3707e-06 -1.5957e-06)
(8.5647e-06 2.8436e-06 -7.1454e-07)
(-2.0562e-05 4.412e-05 3.385e-08)
(-1.6776e-05 4.3595e-05 3.3374e-08)
(-1.3044e-05 4.2006e-05 3.214e-08)
(-9.4009e-06 3.9398e-05 3.0199e-08)
(-5.8944e-06 3.5933e-05 2.7605e-08)
(-2.6059e-06 3.1824e-05 2.4496e-08)
(3.6213e-07 2.7272e-05 2.1026e-08)
(2.9155e-06 2.2441e-05 1.7331e-08)
(4.9988e-06 1.7474e-05 1.3546e-08)
(6.609e-06 1.2519e-05 9.797e-09)
(7.7901e-06 7.7592e-06 6.2241e-09)
(8.6113e-06 3.4203e-06 2.9938e-09)
(-2.056e-05 5.1647e-05 8.6249e-06)
(-1.6763e-05 5.1047e-05 8.5242e-06)
(-1.3024e-05 4.9185e-05 8.2133e-06)
(-9.3689e-06 4.6117e-05 7.7018e-06)
(-5.844e-06 4.2041e-05 7.0223e-06)
(-2.5325e-06 3.7215e-05 6.2174e-06)
(4.563e-07 3.1876e-05 5.327e-06)
(3.0219e-06 2.6216e-05 4.383e-06)
(5.1057e-06 2.0395e-05 3.4122e-06)
(6.7061e-06 1.4584e-05 2.4428e-06)
(7.8721e-06 8.9941e-06 1.5099e-06)
(8.679e-06 3.8913e-06 6.5808e-07)
(-2.0557e-05 1.819e-08 -5.8855e-05)
(-1.6751e-05 1.7797e-08 -5.8189e-05)
(-1.3005e-05 1.7013e-08 -5.6067e-05)
(-9.3402e-06 1.5868e-08 -5.2555e-05)
(-5.7983e-06 1.4373e-08 -4.7889e-05)
(-2.465e-06 1.2596e-08 -4.2371e-05)
(5.4368e-07 1.0633e-08 -3.6277e-05)
(3.1208e-06 8.5774e-09 -2.9821e-05)
(5.2049e-06 6.5142e-09 -2.3181e-05)
(6.7957e-06 4.506e-09 -1.6546e-05)
(7.947e-06 2.6155e-09 -1.0154e-05)
(8.7402e-06 9.2463e-10 -4.311e-06)
(-2.056e-05 8.6256e-06 -5.1645e-05)
(-1.6763e-05 8.5247e-06 -5.1046e-05)
(-1.3024e-05 8.2137e-06 -4.9184e-05)
(-9.3685e-06 7.702e-06 -4.6117e-05)
(-5.8436e-06 7.0223e-06 -4.2041e-05)
(-2.5321e-06 6.2172e-06 -3.7215e-05)
(4.5671e-07 5.3266e-06 -3.1876e-05)
(3.0223e-06 4.3825e-06 -2.6216e-05)
(5.106e-06 3.4117e-06 -2.0396e-05)
(6.7064e-06 2.4422e-06 -1.4585e-05)
(7.8723e-06 1.5092e-06 -8.9946e-06)
(8.6792e-06 6.5736e-07 -3.8917e-06)
(-2.0562e-05 1.7465e-05 -4.3713e-05)
(-1.6771e-05 1.7258e-05 -4.3197e-05)
(-1.3037e-05 1.6627e-05 -4.1621e-05)
(-9.3889e-06 1.5593e-05 -3.9031e-05)
(-5.8757e-06 1.422e-05 -3.5592e-05)
(-2.5789e-06 1.2592e-05 -3.1515e-05)
(3.9649e-07 1.079e-05 -2.7002e-05)
(2.9541e-06 8.8792e-06 -2.2215e-05)
(5.0376e-06 6.9147e-06 -1.7293e-05)
(6.6444e-06 4.9546e-06 -1.2383e-05)
(7.8201e-06 3.0706e-06 -7.6634e-06)
(8.636e-06 1.3525e-06 -3.36e-06)
(-2.0563e-05 2.642e-05 -3.5247e-05)
(-1.6776e-05 2.6104e-05 -3.4827e-05)
(-1.3044e-05 2.5151e-05 -3.3556e-05)
(-9.3996e-06 2.3588e-05 -3.1471e-05)
(-5.8923e-06 2.1513e-05 -2.8702e-05)
(-2.6029e-06 1.9052e-05 -2.5418e-05)
(3.6576e-07 1.6327e-05 -2.1782e-05)
(2.9194e-06 1.3436e-05 -1.7924e-05)
(5.0027e-06 1.0465e-05 -1.3958e-05)
(6.6127e-06 7.5012e-06 -1.0003e-05)
(7.7932e-06 4.6544e-06 -6.2036e-06)
(8.6137e-06 2.0595e-06 -2.7406e-06)
(-2.0563e-05 3.5239e-05 -2.6431e-05)
(-1.6776e-05 3.4819e-05 -2.6116e-05)
(-1.3044e-05 3.3548e-05 -2.5163e-05)
(-9.3997e-06 3.1463e-05 -2.3599e-05)
(-5.8924e-06 2.8694e-05 -2.1523e-05)
(-2.6029e-06 2.5411e-05 -1.9061e-05)
(3.6575e-07 2.1775e-05 -1.6335e-05)
(2.9194e-06 1.7919e-05 -1.3443e-05)
(5.0027e-06 1.3954e-05 -1.047e-05)
(6.6127e-06 9.9998e-06 -7.5051e-06)
(7.7933e-06 6.2015e-06 -4.6568e-06)
(8.6137e-06 2.7395e-06 -2.0607e-06)
(-2.0562e-05 4.3717e-05 -1.7479e-05)
(-1.6771e-05 4.3201e-05 -1.7272e-05)
(-1.3037e-05 4.1624e-05 -1.6642e-05)
(-9.389e-06 3.9034e-05 -1.5607e-05)
(-5.8758e-06 3.5594e-05 -1.4232e-05)
(-2.5789e-06 3.1517e-05 -1.2603e-05)
(3.9654e-07 2.7003e-05 -1.08e-05)
(2.9542e-06 2.2215e-05 -8.8872e-06)
(5.0377e-06 1.7293e-05 -6.921e-06)
(6.6445e-06 1.2383e-05 -4.9592e-06)
(7.8202e-06 7.6633e-06 -3.0735e-06)
(8.6361e-06 3.3597e-06 -1.3538e-06)
(-2.056e-05 5.1644e-05 -8.5977e-06)
(-1.6763e-05 5.1044e-05 -8.4973e-06)
(-1.3024e-05 4.9182e-05 -8.1875e-06)
(-9.3688e-06 4.6114e-05 -7.6774e-06)
(-5.8439e-06 4.2038e-05 -6.9999e-06)
(-2.5324e-06 3.7212e-05 -6.1975e-06)
(4.5648e-07 3.1874e-05 -5.3098e-06)
(3.0221e-06 2.6214e-05 -4.3688e-06)
(5.1059e-06 2.0394e-05 -3.4011e-06)
(6.7063e-06 1.4583e-05 -2.4347e-06)
(7.8723e-06 8.9935e-06 -1.5046e-06)
(8.6791e-06 3.891e-06 -6.5529e-07)
(-2.0557e-05 5.8857e-05 1.7523e-08)
(-1.6751e-05 5.819e-05 1.7278e-08)
(-1.3006e-05 5.6068e-05 1.6664e-08)
(-9.3406e-06 5.2555e-05 1.5715e-08)
(-5.7988e-06 4.7888e-05 1.4418e-08)
(-2.4655e-06 4.2371e-05 1.2835e-08)
(5.4326e-07 3.6276e-05 1.1049e-08)
(3.1204e-06 2.982e-05 9.1321e-09)
(5.2045e-06 2.318e-05 7.1651e-09)
(6.7955e-06 1.6545e-05 5.2225e-09)
(7.9468e-06 1.0153e-05 3.3787e-09)
(8.7401e-06 4.3106e-06 1.7197e-09)
(8.955e-06 -5.1827e-06 4.6629e-07)
(8.2136e-06 -1.3015e-05 1.1509e-06)
(7.1182e-06 -2.1536e-05 1.8959e-06)
(5.5638e-06 -3.0334e-05 2.6648e-06)
(3.4788e-06 -3.9104e-05 3.4313e-06)
(8.5792e-07 -4.7623e-05 4.176e-06)
(-2.2264e-06 -5.568e-05 4.8802e-06)
(-5.6419e-06 -6.3011e-05 5.5202e-06)
(-9.2457e-06 -6.9241e-05 6.0628e-06)
(-1.2944e-05 -7.3931e-05 6.4707e-06)
(-1.6708e-05 -7.6721e-05 6.7149e-06)
(-2.0542e-05 -7.7522e-05 6.7877e-06)
(8.9021e-06 -4.9587e-06 1.3559e-06)
(8.1457e-06 -1.2141e-05 3.264e-06)
(7.0337e-06 -1.9969e-05 5.3443e-06)
(5.4682e-06 -2.8065e-05 7.4956e-06)
(3.383e-06 -3.6147e-05 9.6428e-06)
(7.7454e-07 -4.3997e-05 1.1729e-05)
(-2.2875e-06 -5.1415e-05 1.37e-05)
(-5.679e-06 -5.815e-05 1.5488e-05)
(-9.2662e-06 -6.3862e-05 1.7003e-05)
(-1.2958e-05 -6.8161e-05 1.8142e-05)
(-1.672e-05 -7.0734e-05 1.8827e-05)
(-2.055e-05 -7.1501e-05 1.9036e-05)
(8.8625e-06 -4.5473e-06 2.2839e-06)
(8.0963e-06 -1.0917e-05 5.4205e-06)
(6.9728e-06 -1.7867e-05 8.844e-06)
(5.3995e-06 -2.5065e-05 1.2389e-05)
(3.3143e-06 -3.2255e-05 1.593e-05)
(7.1492e-07 -3.9241e-05 1.9371e-05)
(-2.3317e-06 -4.5838e-05 2.2621e-05)
(-5.707e-06 -5.1819e-05 2.5566e-05)
(-9.2827e-06 -5.6886e-05 2.806e-05)
(-1.2969e-05 -6.0699e-05 2.9937e-05)
(-1.673e-05 -6.2992e-05 3.1068e-05)
(-2.0555e-05 -6.3692e-05 3.1418e-05)
(8.8406e-06 -3.9432e-06 3.1706e-06)
(8.0695e-06 -9.3478e-06 7.4864e-06)