/*--------------------------------*- C++ -*----------------------------------*\
| =========                 |                                                 |
| \\      /  F ield         | OpenFOAM: The Open Source CFD Toolbox           |
|  \\    /   O peration     | Version:  4.1                                   |
|   \\  /    A nd           | Web:      www.OpenFOAM.org                      |
|    \\/     M anipulation  |                                                 |
\*---------------------------------------------------------------------------*/
FoamFile
{
    version     2.0;
    format      ascii;
    class       surfaceVectorField;
    location    "0.00011";
    object      Uf;
}
// * * * * * * * * * * * * * * * * * * * * * * * * * * * * * * * * * * * * * //

dimensions      [0 1 -1 0 0 0 0];

internalField   nonuniform List<vector> 
17536
(
(2.85699 -9.79842e-05 -2.66586e-08)
(2.85318 -7.33799e-05 2.68994e-06)
(2.85318 -7.48007e-05 -2.76178e-06)
(2.87669 -9.78286e-05 -3.36207e-07)
(2.87668 -9.87775e-05 1.789e-06)
(2.85705 -9.21753e-05 2.61714e-07)
(2.85327 -0.000106771 8.05129e-06)
(2.85327 -0.000111409 -5.88206e-06)
(2.87678 -0.000119487 4.15474e-06)
(2.87677 -0.000119748 2.90104e-06)
(2.85703 -5.31162e-05 1.56832e-07)
(2.85327 -7.3334e-05 4.83508e-06)
(2.85328 -7.75594e-05 -4.29067e-06)
(2.87683 -6.66837e-05 3.61036e-06)
(2.87682 -6.70257e-05 8.5691e-06)
(2.85701 -2.44206e-05 -1.10412e-06)
(2.85322 -3.78336e-05 1.82055e-06)
(2.85323 -4.14554e-05 -4.64548e-06)
(2.87681 -3.22727e-05 5.64308e-06)
(2.8768 -3.19108e-05 9.7189e-06)
(2.85701 -1.05294e-05 -3.49918e-06)
(2.85321 -1.46342e-05 -9.44162e-07)
(2.85322 -1.84788e-05 -6.68972e-06)
(2.87683 -1.28776e-05 8.27489e-06)
(2.87682 -1.22081e-05 5.92652e-06)
(2.85702 -8.9195e-06 -5.78583e-06)
(2.85321 -6.03499e-06 -4.0488e-06)
(2.85322 -1.05415e-05 -9.47698e-06)
(2.87686 -7.24731e-06 8.64588e-06)
(2.87684 -6.75046e-06 1.2345e-06)
(2.85705 -1.24421e-05 -5.34025e-06)
(2.85324 -6.46207e-06 -6.19893e-06)
(2.85325 -1.12434e-05 -1.07987e-05)
(2.87689 -9.62617e-06 9.30559e-06)
(2.87688 -1.00541e-05 -2.12284e-06)
(2.85709 -1.46638e-05 -3.18503e-06)
(2.85327 -9.27458e-06 -3.80887e-06)
(2.85328 -1.3476e-05 -8.53011e-06)
(2.87693 -1.28022e-05 1.29864e-05)
(2.87691 -1.36672e-05 -1.18996e-07)
(2.85713 -1.35748e-05 -3.2233e-06)
(2.85331 -9.07711e-06 -2.2053e-06)
(2.85332 -1.32199e-05 -6.86209e-06)
(2.87696 -1.29767e-05 1.4487e-05)
(2.87694 -1.37997e-05 1.80212e-06)
(2.85716 -1.08609e-05 -2.74015e-06)
(2.85335 -6.19954e-06 -3.86646e-06)
(2.85336 -1.07475e-05 -8.20188e-06)
(2.87698 -1.05727e-05 1.17825e-05)
(2.87697 -1.1146e-05 5.50555e-07)
(2.85719 -9.56434e-06 8.84337e-07)
(2.85338 -3.35159e-06 -1.00609e-06)
(2.85339 -7.7406e-06 -5.22813e-06)
(2.877 -7.81512e-06 1.27627e-05)
(2.87699 -8.09241e-06 2.72344e-06)
(2.85722 -1.16905e-05 2.39428e-06)
(2.85342 -3.2468e-06 3.38074e-06)
(2.85343 -7.09705e-06 -2.42437e-07)
(2.87702 -7.81323e-06 1.50567e-05)
(2.87701 -7.85175e-06 5.83604e-06)
(2.85725 -1.53648e-05 1.13481e-06)
(2.85345 -6.66074e-06 2.69399e-06)
(2.85346 -1.10696e-05 -1.121e-06)
(2.87704 -1.055e-05 1.18156e-05)
(2.87702 -1.09669e-05 2.72163e-06)
(2.85727 -1.81883e-05 1.12864e-06)
(2.85348 -1.13987e-05 1.82007e-06)
(2.85349 -1.47432e-05 -2.0954e-06)
(2.87705 -1.26216e-05 1.01431e-05)
(2.87703 -1.33263e-05 4.92559e-07)
(2.85729 -2.11921e-05 1.58651e-06)
(2.85351 -1.4969e-05 1.94254e-06)
(2.85351 -1.67991e-05 -4.01452e-07)
(2.87705 -1.42311e-05 1.073e-05)
(2.87703 -1.52557e-05 2.09415e-07)
(2.85731 -2.48387e-05 2.38831e-06)
(2.85353 -1.83278e-05 7.70962e-07)
(2.85353 -1.91762e-05 6.81002e-07)
(2.87704 -1.77609e-05 1.02287e-05)
(2.87703 -1.90645e-05 -1.3401e-06)
(2.85733 -2.63692e-05 3.52555e-06)
(2.85356 -2.12201e-05 1.72776e-06)
(2.85356 -2.14226e-05 3.34645e-06)
(2.87704 -2.15284e-05 1.13046e-05)
(2.87702 -2.32057e-05 -1.4569e-06)
(2.85736 -2.32238e-05 2.29492e-06)
(2.85359 -1.98714e-05 1.13474e-06)
(2.85359 -1.98334e-05 5.29258e-06)
(2.87703 -2.23552e-05 1.10007e-05)
(2.87701 -2.42639e-05 -2.12158e-06)
(2.85739 -1.84798e-05 -9.42138e-07)
(2.85362 -1.39814e-05 -4.17014e-06)
(2.85363 -1.35513e-05 3.87968e-06)
(2.87702 -1.91695e-05 7.00031e-06)
(2.87701 -2.0754e-05 -5.14835e-06)
(2.85741 -1.88354e-05 -3.53361e-06)
(2.85366 -1.04484e-05 -9.07906e-06)
(2.85367 -1.01735e-05 2.16562e-06)
(2.87701 -1.73505e-05 2.00965e-06)
(2.877 -1.86295e-05 -8.44625e-06)
(2.85743 -2.73067e-05 -4.2419e-06)
(2.85369 -1.47754e-05 -1.12464e-05)
(2.85369 -1.46194e-05 2.11324e-06)
(2.877 -2.23958e-05 -1.61503e-06)
(2.87698 -2.32937e-05 -1.03522e-05)
(2.85744 -4.17814e-05 -3.31804e-06)
(2.85372 -2.72171e-05 -1.16551e-05)
(2.85372 -2.62836e-05 4.13005e-06)
(2.87697 -3.41901e-05 -3.39114e-06)
(2.87695 -3.48202e-05 -1.05127e-05)
(2.85744 -5.6563e-05 -1.14924e-06)
(2.85374 -4.43313e-05 -1.09655e-05)
(2.85374 -4.16036e-05 6.53521e-06)
(2.87692 -4.8938e-05 -3.93545e-06)
(2.87691 -4.95003e-05 -9.87184e-06)
(2.85744 -6.39677e-05 2.31386e-06)
(2.85376 -5.77936e-05 -8.83921e-06)
(2.85375 -5.32837e-05 1.02014e-05)
(2.87686 -6.10755e-05 -3.49476e-06)
(2.87684 -6.18932e-05 -8.36142e-06)
(2.85744 -5.74771e-05 6.15563e-06)
(2.85377 -5.9808e-05 -6.32247e-06)
(2.85377 -5.34895e-05 1.59316e-05)
(2.87679 -6.44065e-05 -1.02191e-06)
(2.87677 -6.56703e-05 -5.83819e-06)
(2.85745 -3.70525e-05 1.00345e-05)
(2.85379 -4.64244e-05 -5.05138e-06)
(2.85379 -3.82465e-05 2.16517e-05)
(2.87673 -5.41461e-05 2.33629e-06)
(2.87671 -5.61429e-05 -3.26243e-06)
(2.85746 -4.7207e-06 1.23287e-05)
(2.85382 -1.88904e-05 -3.16393e-06)
(2.85382 -1.2327e-05 2.95683e-05)
(2.87667 -3.27599e-05 5.9699e-06)
(2.87665 -3.65396e-05 -3.20239e-07)
(2.85751 5.07613e-05 1.1181e-05)
(2.85386 2.20564e-05 -7.16303e-06)
(2.85386 2.76012e-05 3.3214e-05)
(2.87663 -1.29231e-06 8.71746e-06)
(2.87661 -5.83536e-06 -1.47664e-06)
(2.85757 0.000148941 8.46896e-06)
(2.85393 9.6287e-05 -1.22388e-05)
(2.85394 9.96943e-05 3.19427e-05)
(2.87661 6.23338e-05 9.07285e-06)
(2.8766 6.03129e-05 2.16401e-07)
(2.85767 0.000312384 6.78076e-06)
(2.85402 0.000224047 -1.54729e-05)
(2.85403 0.000224913 2.88635e-05)
(2.87663 0.000175041 7.68152e-06)
(2.87661 0.000174227 4.50576e-06)
(2.85782 0.00056931 9.07605e-06)
(2.85415 0.000430898 -1.76677e-05)
(2.85415 0.000428381 2.98379e-05)
(2.87669 0.00035891 7.11148e-06)
(2.87668 0.000359418 1.31278e-05)
(2.85803 0.000949994 1.5822e-05)
(2.85433 0.000743132 -1.93583e-05)
(2.85433 0.000737137 4.32154e-05)
(2.87684 0.000635817 1.60444e-05)
(2.87682 0.000642038 2.75153e-05)
(2.85835 0.00149004 2.58303e-05)
(2.85458 0.00118829 -2.62368e-05)
(2.85458 0.00118163 6.54263e-05)
(2.87711 0.00103004 3.72033e-05)
(2.87709 0.00105129 4.3439e-05)
(2.85882 0.00223313 4.13636e-05)
(2.85493 0.00181436 -3.18909e-05)
(2.85494 0.00180844 9.20609e-05)
(2.87753 0.0015935 5.44978e-05)
(2.87752 0.00162026 5.82921e-05)
(2.85951 0.00323578 6.23996e-05)
(2.85545 0.00267005 -3.09696e-05)
(2.85546 0.00266489 0.000127821)
(2.87818 0.00236827 7.73832e-05)
(2.87818 0.00239511 7.41485e-05)
(2.86054 0.00456501 8.8918e-05)
(2.85622 0.00382402 -2.8198e-05)
(2.85623 0.00382092 0.000168843)
(2.87915 0.00341051 0.000107454)
(2.87915 0.00343746 8.86122e-05)
(2.86208 0.00627883 0.000125747)
(2.85738 0.00535392 -1.82273e-05)
(2.8574 0.00535418 0.0002179)
(2.88055 0.00478221 0.000149109)
(2.88056 0.00481134 0.000101727)
(2.86443 0.00837981 0.000181261)
(2.85916 0.00731871 1.06771e-05)
(2.8592 0.00732451 0.000274545)
(2.88258 0.00652053 0.000213009)
(2.8826 0.00655425 0.000112153)
(2.86806 0.0107103 0.000268805)
(2.86195 0.00970192 8.26177e-05)
(2.862 0.00971833 0.000332177)
(2.88553 0.00857499 0.000320746)
(2.88557 0.00861379 0.000120863)
(2.87388 0.0126758 0.000408198)
(2.86644 0.012288 0.000247355)
(2.86651 0.0123231 0.000368385)
(2.8899 0.0106683 0.00050078)
(2.88996 0.0107079 0.000128027)
(2.8836 0.0126855 0.000633585)
(2.87371 0.014294 0.000626365)
(2.8738 0.0143644 0.000300754)
(2.89631 0.0118977 0.000797293)
(2.89639 0.0119229 0.000127958)
(2.90062 0.00779243 0.00099273)
(2.88664 0.0137702 0.00151399)
(2.88677 0.0139096 -8.18749e-05)
(2.90697 0.0100979 0.00117729)
(2.90711 0.0100017 0.000137309)
(2.92977 -0.00994573 0.00158007)
(2.91406 0.00745922 0.00310929)
(2.91424 0.00769134 -0.000876859)
(2.92867 0.00155088 0.00175735)
(2.92891 0.00146943 0.000382342)
(2.98468 -0.0665352 0.00255671)
(2.94041 -0.0163807 0.0063506)
(2.9407 -0.0159768 -0.00294071)
(2.94062 -0.0260578 0.00408989)
(2.94106 -0.0256429 -0.000218805)
(3.12136 -0.212678 0.00447377)
(2.99623 -0.0922219 0.0169546)
(2.99678 -0.0915588 -0.0114766)
(2.97259 -0.11355 0.00886892)
(2.97357 -0.112632 -0.00230489)
(3.47405 -0.483881 0.00691557)
(3.41845 -0.270255 0.0354674)
(3.41909 -0.268854 -0.0255504)
(3.35185 -0.336117 0.0154652)
(3.35306 -0.334707 -0.00341972)
(4.17921 -0.497386 0.00841519)
(3.4347 -0.563741 0.0767395)
(3.43504 -0.56182 -0.0628272)
(3.2625 -0.67728 0.0393047)
(3.26288 -0.672546 -0.0199568)
(4.81149 -0.307017 0.0442136)
(4.81094 -0.305607 -0.0286337)
(4.35146 -0.349603 0.0307177)
(4.35141 -0.347739 -0.00867433)
(2.84946 -8.06666e-05 1.22681e-05)
(2.84811 -5.7228e-05 9.59771e-06)
(2.84518 -5.64738e-05 6.28637e-06)
(2.86436 -7.24113e-05 7.18398e-06)
(2.8495 -8.82095e-05 1.2345e-05)
(2.84815 -0.000103575 1.4059e-05)
(2.84522 -9.79572e-05 7.9494e-06)
(2.86441 -0.000102755 1.49542e-05)
(2.84947 -5.85003e-05 6.04997e-06)
(2.84815 -8.55637e-05 8.13682e-06)
(2.84522 -8.14177e-05 5.30375e-06)
(2.86443 -6.73285e-05 1.04466e-05)
(2.84943 -2.95449e-05 4.82848e-07)
(2.84809 -5.1153e-05 1.3452e-06)
(2.84517 -4.74887e-05 -2.62071e-07)
(2.8644 -3.46382e-05 7.50959e-06)
(2.84942 -1.22264e-05 -3.58045e-06)
(2.84807 -2.35068e-05 -2.83415e-06)
(2.84515 -2.16729e-05 -4.55989e-06)
(2.86439 -1.34672e-05 7.10601e-06)
(2.84943 -6.13729e-06 -7.02162e-06)
(2.84807 -8.46582e-06 -6.2154e-06)
(2.84515 -8.77021e-06 -8.29685e-06)
(2.8644 -5.12435e-06 6.08483e-06)
(2.84946 -6.29235e-06 -7.66539e-06)
(2.84809 -2.92387e-06 -9.0241e-06)
(2.84517 -5.64409e-06 -1.06178e-05)
(2.86443 -5.44151e-06 4.96631e-06)
(2.84949 -6.66538e-06 -5.80666e-06)
(2.84813 -3.03002e-06 -6.99846e-06)
(2.8452 -5.7842e-06 -8.91959e-06)
(2.86446 -7.41341e-06 7.64084e-06)
(2.84953 -4.50651e-06 -5.65312e-06)
(2.84817 -1.14503e-06 -5.25142e-06)
(2.84524 -4.2116e-06 -7.08375e-06)
(2.86449 -6.65163e-06 8.88607e-06)
(2.84957 -1.14204e-06 -4.5842e-06)
(2.84821 2.81921e-06 -6.62681e-06)
(2.84528 -1.11314e-06 -7.87411e-06)
(2.86452 -3.82102e-06 6.45597e-06)
(2.84961 1.37033e-06 -1.05309e-07)
(2.84825 5.76695e-06 -3.41328e-06)
(2.84532 2.48094e-06 -4.03592e-06)
(2.86455 -3.23652e-07 8.62798e-06)
(2.84965 3.43744e-07 2.24119e-06)
(2.84828 7.56304e-06 1.50891e-06)
(2.84536 4.99536e-06 1.88938e-06)
(2.86458 1.12188e-06 1.21567e-05)
(2.84969 -4.71572e-06 1.35817e-06)
(2.84832 5.38937e-06 1.85734e-06)
(2.8454 1.36626e-06 1.79893e-06)
(2.86461 -2.5076e-06 1.0123e-05)
(2.84972 -1.03167e-05 4.96707e-07)
(2.84836 -1.33819e-06 1.72558e-06)
(2.84544 -6.21804e-06 8.16249e-07)
(2.86463 -8.04027e-06 8.7497e-06)
(2.84975 -1.41942e-05 -9.6255e-07)
(2.84839 -6.0589e-06 1.12304e-06)
(2.84547 -1.09646e-05 4.0596e-07)
(2.86465 -1.24317e-05 7.9653e-06)
(2.84978 -1.66537e-05 -1.83406e-06)
(2.84842 -7.05499e-06 -1.41865e-06)
(2.8455 -1.2547e-05 -9.40227e-07)
(2.86466 -1.61278e-05 5.27698e-06)
(2.84982 -1.61472e-05 -2.08798e-06)
(2.84846 -7.37233e-06 -9.71469e-07)
(2.84554 -1.32729e-05 1.57644e-07)
(2.86468 -1.86326e-05 5.18159e-06)
(2.84986 -1.08438e-05 -5.54515e-06)
(2.8485 -2.70805e-06 -2.155e-06)
(2.84559 -9.42326e-06 4.99973e-09)
(2.8647 -1.68677e-05 3.09829e-06)
(2.8499 -4.70839e-06 -1.10654e-05)
(2.84855 6.74755e-06 -8.44191e-06)
(2.84563 -1.64507e-06 -4.32736e-06)
(2.86472 -1.08157e-05 -4.52055e-06)
(2.84994 -4.27372e-06 -1.46773e-05)
(2.84859 1.25013e-05 -1.35208e-05)
(2.84568 1.47894e-06 -7.5841e-06)
(2.86473 -8.22321e-06 -1.05989e-05)
(2.84998 -1.19041e-05 -1.58779e-05)
(2.84864 1.08818e-05 -1.58477e-05)
(2.84572 -2.44077e-06 -8.44097e-06)
(2.86475 -1.30877e-05 -1.45626e-05)
(2.85003 -2.5968e-05 -1.55034e-05)
(2.84869 1.0284e-06 -1.65521e-05)
(2.84577 -1.35806e-05 -7.7505e-06)
(2.86476 -2.44069e-05 -1.78721e-05)
(2.85006 -4.06415e-05 -1.37351e-05)
(2.84874 -1.47143e-05 -1.52584e-05)
(2.84581 -3.05561e-05 -5.8792e-06)
(2.86477 -3.9928e-05 -1.98008e-05)
(2.85009 -4.76716e-05 -1.15133e-05)
(2.84877 -2.67394e-05 -1.26291e-05)
(2.84586 -4.32627e-05 -2.94083e-06)
(2.86476 -5.28673e-05 -1.9746e-05)
(2.85013 -4.17127e-05 -1.04869e-05)
(2.84882 -2.68065e-05 -1.08753e-05)
(2.8459 -4.37381e-05 2.2461e-07)
(2.86476 -5.58204e-05 -1.8687e-05)
(2.85017 -2.13077e-05 -1.12952e-05)
(2.84886 -1.24299e-05 -1.10167e-05)
(2.84595 -3.03116e-05 2.09678e-06)
(2.86475 -4.52473e-05 -1.76771e-05)
(2.85022 1.48592e-05 -1.56832e-05)
(2.8489 1.53779e-05 -1.33729e-05)
(2.846 -8.54419e-07 1.79396e-06)
(2.86475 -2.3241e-05 -1.53265e-05)
(2.85028 7.62151e-05 -2.19499e-05)
(2.84896 6.73116e-05 -1.56343e-05)
(2.84607 4.4907e-05 -5.42587e-07)
(2.86476 1.94169e-05 -2.22356e-05)
(2.85038 0.000179688 -2.78861e-05)
(2.84905 0.000150852 -2.04134e-05)
(2.84616 0.000123591 -5.03319e-06)
(2.8648 9.27682e-05 -2.68788e-05)
(2.8505 0.000348911 -3.35718e-05)
(2.84915 0.000286728 -2.62579e-05)
(2.84627 0.000254498 -1.03257e-05)
(2.86486 0.000214531 -3.08516e-05)
(2.85066 0.000614229 -3.65936e-05)
(2.84928 0.000502758 -3.29435e-05)
(2.8464 0.000465624 -1.26635e-05)
(2.86497 0.000409664 -2.9812e-05)
(2.85086 0.00100456 -3.82892e-05)
(2.84946 0.000826887 -3.73128e-05)
(2.84658 0.000781736 -3.8307e-06)
(2.86514 0.000707121 -1.92326e-05)
(2.85115 0.00155617 -4.0408e-05)
(2.84967 0.00129005 -4.38899e-05)
(2.84681 0.00123742 5.29667e-06)
(2.86539 0.00113778 -7.69564e-06)
(2.85155 0.00231719 -3.831e-05)
(2.84997 0.00194668 -4.59362e-05)
(2.84711 0.00188089 1.65252e-05)
(2.86576 0.00174521 4.71876e-06)
(2.85215 0.00335037 -2.94747e-05)
(2.85041 0.00284633 -4.03829e-05)
(2.84754 0.00276341 3.73624e-05)
(2.86631 0.00257003 3.66094e-05)
(2.85306 0.00473678 -1.1492e-05)
(2.85106 0.00407237 -2.67187e-05)
(2.84821 0.00396441 6.46879e-05)
(2.86713 0.00368624 8.30977e-05)
(2.85448 0.00655576 2.8662e-05)
(2.85208 0.00572434 5.89712e-06)
(2.84924 0.00558053 0.0001051)
(2.86837 0.00517443 0.000153121)
(2.85672 0.00884654 0.000117745)
(2.85371 0.00789075 8.43287e-05)
(2.85089 0.00769744 0.000170552)
(2.87024 0.00709659 0.000270869)
(2.86037 0.0115284 0.000309922)
(2.85638 0.0106113 0.000258748)
(2.85359 0.0103525 0.000279578)
(2.8731 0.00944242 0.00047434)
(2.86649 0.0141747 0.000734048)
(2.86087 0.0137812 0.000636843)
(2.85814 0.0134421 0.00046755)
(2.87761 0.0120195 0.000834765)
(2.87717 0.0155536 0.00168176)
(2.86845 0.0168359 0.00148099)
(2.86585 0.0164223 0.000816462)
(2.88471 0.0141144 0.00151598)
(2.89662 0.0132764 0.00346997)
(2.88235 0.0182176 0.00333045)
(2.87997 0.0177998 0.00150385)
(2.89718 0.0138118 0.00292225)
(2.93114 0.000437528 0.00729313)
(2.91247 0.0153309 0.00666798)
(2.9106 0.0149961 0.00257109)
(2.92319 0.00816566 0.00502564)
(2.99774 -0.044082 0.0187339)
(2.94567 -0.00202714 0.0144148)
(2.94554 -0.0020231 0.00527966)
(2.94548 -0.0138895 0.010957)
(3.15638 -0.154606 0.0431408)
(3.01409 -0.0619887 0.0381479)
(3.01509 -0.0601018 0.0134628)
(2.99619 -0.0864224 0.0308944)
(3.52322 -0.362152 0.0932544)
(3.45427 -0.195075 0.0779579)
(3.46396 -0.185391 0.0277052)
(3.39968 -0.255259 0.060275)
(4.26538 -0.384179 0.101731)
(3.46319 -0.426872 0.168206)
(3.49807 -0.405904 0.0584941)
(3.32719 -0.539923 0.141432)
(4.89444 -0.237316 0.106286)
(4.96528 -0.229675 0.0373142)
(4.54584 -0.293089 0.082614)
(2.84679 -7.7451e-05 1.40736e-05)
(2.84605 -5.19196e-05 1.50596e-05)
(2.84286 -5.18735e-05 8.19406e-06)
(2.85932 -6.03599e-05 1.36257e-05)
(2.84681 -9.73497e-05 1.343e-05)
(2.84605 -0.000104742 1.92005e-05)
(2.84286 -0.000101034 1.01882e-05)
(2.85935 -0.000101533 1.58511e-05)
(2.84678 -7.5601e-05 6.04748e-06)
(2.84604 -9.90297e-05 1.15684e-05)
(2.84286 -9.61329e-05 5.30253e-06)
(2.85937 -8.29128e-05 9.4961e-06)
(2.84675 -4.37241e-05 -5.80976e-07)
(2.84598 -6.49082e-05 2.82418e-06)
(2.84281 -6.39416e-05 -1.15449e-06)
(2.85933 -5.0676e-05 4.51466e-06)
(2.84673 -1.9043e-05 -4.76584e-06)
(2.84596 -3.22953e-05 -2.86226e-06)
(2.84279 -3.22919e-05 -5.55742e-06)
(2.85931 -2.34967e-05 2.75273e-06)
(2.84674 -5.00746e-06 -7.97293e-06)
(2.84596 -9.39021e-06 -6.44011e-06)
(2.84279 -1.1301e-05 -8.25426e-06)
(2.85931 -7.30766e-06 1.74446e-06)
(2.84677 1.64686e-07 -8.53095e-06)
(2.84598 2.50393e-06 -9.41257e-06)
(2.84281 -1.01889e-06 -1.0305e-05)
(2.85934 -7.02485e-07 9.34297e-07)
(2.8468 2.21355e-06 -6.72e-06)
(2.84602 4.50465e-06 -7.47333e-06)
(2.84284 1.68916e-06 -8.80615e-06)
(2.85937 6.66278e-07 3.60729e-06)
(2.84684 6.03005e-06 -6.37576e-06)
(2.84605 7.76733e-06 -5.52108e-06)
(2.84288 4.91645e-06 -6.91346e-06)
(2.8594 3.27369e-06 5.32222e-06)
(2.84688 9.88297e-06 -5.30112e-06)
(2.84609 1.38193e-05 -6.31366e-06)
(2.84292 9.87338e-06 -7.08884e-06)
(2.85943 7.82667e-06 3.59383e-06)
(2.84692 1.25317e-05 -1.22705e-06)
(2.84613 1.64046e-05 -3.2192e-06)
(2.84295 1.31691e-05 -3.85253e-06)
(2.85947 1.09753e-05 5.97667e-06)
(2.84696 1.32694e-05 1.78582e-06)
(2.84616 1.94891e-05 1.61439e-06)
(2.84299 1.67275e-05 1.54038e-06)
(2.8595 1.33448e-05 9.80178e-06)
(2.847 9.02058e-06 2.47842e-06)
(2.84621 1.99766e-05 3.05204e-06)
(2.84304 1.56638e-05 3.66058e-06)
(2.85953 1.17382e-05 9.90492e-06)
(2.84704 2.65139e-06 2.08365e-06)
(2.84625 1.16473e-05 3.49946e-06)
(2.84308 7.24324e-06 4.07676e-06)
(2.85957 5.29239e-06 9.75887e-06)
(2.84707 2.92929e-07 -1.20458e-07)
(2.84628 5.70475e-06 2.00947e-06)
(2.84311 1.96074e-06 2.85345e-06)
(2.85959 2.68729e-07 8.51888e-06)
(2.84711 1.07805e-06 -1.70435e-06)
(2.84632 7.3588e-06 -1.81751e-06)
(2.84315 3.51342e-06 3.71165e-07)
(2.85961 -3.66636e-07 4.96842e-06)
(2.84715 4.80241e-06 -2.3029e-06)
(2.84636 8.609e-06 -2.05507e-06)
(2.84319 5.10267e-06 7.11394e-07)
(2.85964 1.12081e-07 4.69632e-06)
(2.84719 1.38563e-05 -6.07871e-06)
(2.8464 1.59626e-05 -3.73645e-06)
(2.84324 1.16519e-05 2.58283e-07)
(2.85967 5.21458e-06 3.11372e-06)
(2.84724 2.33273e-05 -1.15272e-05)
(2.84645 3.0136e-05 -1.01411e-05)
(2.84329 2.31317e-05 -4.29781e-06)
(2.8597 1.50417e-05 -4.09505e-06)
(2.84729 2.72006e-05 -1.51473e-05)
(2.84651 3.91715e-05 -1.46231e-05)
(2.84334 2.94744e-05 -7.4693e-06)
(2.85974 2.14822e-05 -9.76219e-06)
(2.84735 2.32197e-05 -1.71165e-05)
(2.84656 4.1702e-05 -1.69002e-05)
(2.84339 2.97362e-05 -8.52304e-06)
(2.85977 2.13206e-05 -1.41868e-05)
(2.8474 1.11501e-05 -1.74389e-05)
(2.84662 3.46714e-05 -1.82628e-05)
(2.84345 2.13763e-05 -8.82661e-06)
(2.85981 1.22659e-05 -1.71615e-05)
(2.84745 -2.65206e-06 -1.59923e-05)
(2.84668 1.87872e-05 -1.76556e-05)
(2.8435 4.90256e-06 -7.37663e-06)
(2.85984 -3.55614e-06 -1.73229e-05)
(2.8475 -8.18588e-06 -1.43027e-05)
(2.84673 5.5025e-06 -1.70491e-05)
(2.84355 -6.45832e-06 -5.34431e-06)
(2.85987 -1.69028e-05 -1.48798e-05)
(2.84755 -1.87858e-07 -1.40692e-05)
(2.84678 5.99535e-06 -1.69524e-05)
(2.84361 -4.83318e-06 -3.40513e-06)
(2.85989 -1.74845e-05 -1.3527e-05)
(2.8476 2.25917e-05 -1.47584e-05)
(2.84683 2.09368e-05 -1.83597e-05)
(2.84366 1.01662e-05 -2.32941e-06)
(2.85991 -3.83835e-06 -1.32474e-05)
(2.84765 6.50871e-05 -1.60672e-05)
(2.84688 5.14601e-05 -2.02336e-05)
(2.84372 4.09308e-05 -1.62692e-06)
(2.85994 2.55106e-05 -1.32476e-05)
(2.84773 0.000136433 -1.96129e-05)
(2.84695 0.000108549 -2.24693e-05)
(2.84378 9.679e-05 -2.48004e-06)
(2.85997 7.67411e-05 -1.34929e-05)
(2.84782 0.000250775 -2.59025e-05)
(2.84703 0.000200051 -2.75477e-05)
(2.84387 0.000184798 -4.202e-06)
(2.86003 0.000159962 -1.63108e-05)
(2.84793 0.000432346 -3.38582e-05)
(2.84712 0.000344632 -3.54209e-05)
(2.84398 0.000324928 -6.74026e-06)
(2.86011 0.000292583 -1.89899e-05)
(2.84808 0.000709013 -4.00657e-05)
(2.84725 0.000572818 -4.2846e-05)
(2.8441 0.000544772 -7.44538e-06)
(2.86022 0.000504145 -2.11004e-05)
(2.84825 0.00111025 -4.50431e-05)
(2.84739 0.000906255 -4.55463e-05)
(2.84425 0.000869385 -3.08236e-06)
(2.86038 0.000820971 -1.58677e-05)
(2.84848 0.00167997 -5.00033e-05)
(2.84756 0.00138158 -5.05594e-05)
(2.84443 0.00133692 -7.82716e-08)
(2.86059 0.00127659 -7.76472e-06)
(2.84881 0.00247462 -4.92036e-05)
(2.84779 0.00205802 -5.33523e-05)
(2.84467 0.00200336 7.59235e-06)
(2.8609 0.00191748 1.46895e-05)
(2.84931 0.00356741 -3.85414e-05)
(2.84814 0.00299611 -4.72872e-05)
(2.84501 0.00292945 2.65596e-05)
(2.86135 0.00280335 5.40411e-05)
(2.85008 0.00505749 -1.17709e-05)
(2.84866 0.00429216 -2.80995e-05)
(2.84555 0.00420741 5.72545e-05)
(2.86204 0.00401876 0.000114062)
(2.85133 0.00705239 5.46256e-05)
(2.84952 0.00606917 1.98208e-05)
(2.84643 0.00595564 0.000110089)
(2.8631 0.00566541 0.000211567)
(2.8534 0.00964076 0.000210552)
(2.85095 0.00844895 0.000137338)
(2.84789 0.00829507 0.00021297)
(2.86478 0.00783969 0.0003888)
(2.85691 0.0128358 0.000557277)
(2.85339 0.0115371 0.000404056)
(2.8504 0.0113287 0.000414666)
(2.86748 0.010594 0.000716112)
(2.86304 0.0163907 0.00133213)
(2.85767 0.0153556 0.000990736)
(2.8548 0.015078 0.000814224)
(2.87193 0.0138494 0.00133628)
(2.87415 0.0194223 0.00305221)
(2.86517 0.0195893 0.00230623)
(2.86256 0.0192422 0.00164624)
(2.87929 0.0170997 0.00258863)
(2.89489 0.0201491 0.0064055)
(2.87935 0.0231827 0.0051934)
(2.87719 0.0227928 0.00340291)
(2.8927 0.0189246 0.00514801)
(2.9332 0.012809 0.0137324)
(2.91083 0.0243597 0.0105728)
(2.90971 0.023946 0.00651143)
(2.92125 0.0169753 0.00959559)
(3.00864 -0.0200856 0.033677)
(2.94794 0.0149465 0.0232664)
(2.94989 0.014349 0.0141653)
(2.94973 0.00149283 0.02075)
(3.17649 -0.101855 0.0735678)
(3.02421 -0.0287568 0.0572815)
(3.02927 -0.0265451 0.0346726)
(3.01339 -0.0562316 0.0533264)
(3.54357 -0.257886 0.154818)
(3.4719 -0.121898 0.11561)
(3.48982 -0.111476 0.0670649)
(3.43081 -0.183402 0.104559)
(4.27026 -0.278295 0.174474)
(3.46016 -0.295623 0.245161)
(3.49931 -0.268237 0.143819)
(3.34293 -0.412508 0.227356)
(4.90375 -0.159421 0.164372)
(4.9758 -0.14788 0.0992869)
(4.61366 -0.224921 0.141799)
(2.84529 -7.89771e-05 2.04201e-05)
(2.84476 -5.69735e-05 1.75717e-05)
(2.84186 -5.25614e-05 1.4195e-05)
(2.85608 -5.5532e-05 2.44476e-05)
(2.84528 -0.000105651 1.81099e-05)
(2.84473 -0.000114233 2.11579e-05)
(2.84183 -0.000107503 1.58454e-05)
(2.85606 -0.000102845 2.43745e-05)
(2.84525 -8.7991e-05 8.69091e-06)
(2.84472 -0.00011359 1.17937e-05)
(2.84183 -0.000108515 8.07389e-06)
(2.85607 -9.59224e-05 1.36676e-05)
(2.84522 -5.33799e-05 6.42399e-07)
(2.84466 -7.6938e-05 2.83881e-06)
(2.84178 -7.59192e-05 1.01525e-07)
(2.85602 -6.3331e-05 5.08166e-06)
(2.8452 -2.249e-05 -4.38397e-06)
(2.84464 -3.83892e-05 -2.92598e-06)
(2.84176 -3.97959e-05 -4.74981e-06)
(2.856 -3.09926e-05 1.22208e-06)
(2.84521 -1.52812e-06 -7.52905e-06)
(2.84464 -7.53068e-06 -5.93466e-06)
(2.84175 -1.15509e-05 -7.36345e-06)
(2.856 -7.30576e-06 -5.75102e-07)
(2.84524 7.40849e-06 -7.79036e-06)
(2.84466 1.06136e-05 -7.39935e-06)
(2.84177 5.01631e-06 -8.92184e-06)
(2.85602 6.31657e-06 -1.3943e-06)
(2.84527 1.04061e-05 -5.92671e-06)
(2.8447 1.2232e-05 -5.64464e-06)
(2.84181 8.72678e-06 -7.99945e-06)
(2.85605 8.96651e-06 1.63218e-06)
(2.8453 1.58696e-05 -5.14598e-06)
(2.84473 1.5368e-05 -3.8098e-06)
(2.84184 1.28854e-05 -6.2278e-06)
(2.85608 1.27309e-05 3.87842e-06)
(2.84534 2.07071e-05 -3.86553e-06)
(2.84476 2.5008e-05 -3.5918e-06)
(2.84187 2.08783e-05 -5.60044e-06)
(2.85612 1.95939e-05 2.87389e-06)
(2.84538 2.35473e-05 -1.92586e-07)
(2.8448 2.69039e-05 -9.90416e-07)
(2.84191 2.40846e-05 -2.86994e-06)
(2.85615 2.22661e-05 5.33101e-06)
(2.84542 2.6249e-05 2.93327e-06)
(2.84483 3.04427e-05 3.12651e-06)
(2.84195 2.88007e-05 1.77138e-06)
(2.85618 2.55252e-05 9.13607e-06)
(2.84546 2.28105e-05 4.28026e-06)
(2.84488 3.48971e-05 5.69266e-06)
(2.84199 3.1085e-05 5.03215e-06)
(2.85622 2.66238e-05 1.00163e-05)
(2.8455 1.51241e-05 3.84868e-06)
(2.84492 2.495e-05 6.74706e-06)
(2.84203 2.09235e-05 6.63841e-06)
(2.85626 1.84524e-05 1.09439e-05)
(2.84554 1.32316e-05 7.73433e-07)
(2.84495 1.72271e-05 4.84252e-06)
(2.84207 1.42577e-05 4.5865e-06)
(2.85629 1.23983e-05 9.29063e-06)
(2.84558 1.54213e-05 -1.63667e-06)
(2.84499 2.17818e-05 9.15619e-07)
(2.84211 1.76076e-05 7.52545e-07)
(2.85632 1.36758e-05 4.94533e-06)
(2.84562 2.0578e-05 -2.67978e-06)
(2.84504 2.2765e-05 2.57423e-07)
(2.84215 1.95361e-05 -2.59797e-08)
(2.85635 1.51998e-05 4.411e-06)
(2.84567 3.32407e-05 -6.80045e-06)
(2.84508 3.21426e-05 -1.24879e-06)
(2.8422 2.82972e-05 -1.2462e-06)
(2.85638 2.33349e-05 2.19611e-06)
(2.84572 4.70225e-05 -1.21947e-05)
(2.84514 5.32698e-05 -6.39594e-06)
(2.84225 4.47368e-05 -5.58427e-06)
(2.85642 3.81101e-05 -5.45677e-06)
(2.84578 5.46771e-05 -1.53716e-05)
(2.8452 6.63542e-05 -9.92677e-06)
(2.84231 5.4744e-05 -7.96886e-06)
(2.85647 4.81855e-05 -1.09019e-05)
(2.84584 5.39853e-05 -1.72149e-05)
(2.84526 7.23285e-05 -1.17042e-05)
(2.84237 5.86455e-05 -8.57559e-06)
(2.85652 5.18954e-05 -1.43347e-05)
(2.84591 4.29261e-05 -1.78618e-05)
(2.84532 6.77466e-05 -1.29612e-05)
(2.84243 5.29118e-05 -9.25983e-06)
(2.85658 4.56237e-05 -1.68411e-05)
(2.84596 2.80229e-05 -1.76312e-05)
(2.84539 4.99409e-05 -1.34844e-05)
(2.84249 3.65039e-05 -8.96369e-06)
(2.85663 2.97287e-05 -1.68247e-05)
(2.84602 2.14124e-05 -1.79701e-05)
(2.84544 3.58724e-05 -1.35917e-05)
(2.84254 2.32146e-05 -8.18947e-06)
(2.85667 1.62125e-05 -1.65583e-05)
(2.84607 2.85665e-05 -1.97963e-05)
(2.8455 3.55508e-05 -1.51588e-05)
(2.8426 2.43429e-05 -8.77188e-06)
(2.8567 1.51215e-05 -1.67398e-05)
(2.84612 5.12482e-05 -2.23918e-05)
(2.84556 4.82776e-05 -1.84906e-05)
(2.84266 3.8916e-05 -1.13934e-05)
(2.85674 2.77203e-05 -1.80193e-05)
(2.84618 9.70721e-05 -2.4486e-05)
(2.84561 7.92048e-05 -2.10504e-05)
(2.84271 7.04648e-05 -1.26556e-05)
(2.85677 5.73951e-05 -1.89671e-05)
(2.84625 0.00017531 -2.72615e-05)
(2.84567 0.000141823 -2.30426e-05)
(2.84278 0.000130809 -1.15545e-05)
(2.85682 0.000114695 -1.91501e-05)
(2.84633 0.000298986 -3.19886e-05)
(2.84575 0.000240611 -2.69108e-05)
(2.84286 0.000225456 -1.0685e-05)
(2.85687 0.000207797 -2.06924e-05)
(2.84643 0.000491494 -3.80176e-05)
(2.84583 0.000394676 -3.22988e-05)
(2.84294 0.000373092 -9.56988e-06)
(2.85695 0.000354465 -2.23628e-05)
(2.84655 0.0007757 -4.26861e-05)
(2.84593 0.000633403 -3.70953e-05)
(2.84305 0.000602658 -8.91597e-06)
(2.85705 0.000581803 -2.31174e-05)
(2.84669 0.00118181 -4.68404e-05)
(2.84605 0.000965485 -4.44301e-05)
(2.84317 0.000932697 -6.25792e-06)
(2.85719 0.000904911 -1.22632e-05)
(2.84686 0.00176223 -5.13083e-05)
(2.84616 0.00144334 -5.41187e-05)
(2.84329 0.00140776 -5.24218e-06)
(2.85734 0.00137107 2.40295e-07)
(2.8471 0.00258156 -4.93922e-05)
(2.84632 0.00213569 -6.0373e-05)
(2.84346 0.0020935 -1.58991e-06)
(2.85757 0.00203941 2.15656e-05)
(2.84748 0.00372341 -3.42987e-05)
(2.84657 0.00310417 -5.71766e-05)
(2.84371 0.00305769 1.36851e-05)
(2.85792 0.0029765 6.17099e-05)
(2.8481 0.00530481 4.45545e-06)
(2.84695 0.00445845 -3.69717e-05)
(2.84411 0.00440555 4.41811e-05)
(2.85846 0.00427823 0.000129318)
(2.84915 0.00746287 9.9673e-05)
(2.84762 0.00634738 2.13017e-05)
(2.84481 0.00628021 0.000104745)
(2.85932 0.00607114 0.000245455)
(2.85096 0.010338 0.000323564)
(2.84881 0.00892585 0.000169673)
(2.84604 0.00883873 0.000237689)
(2.86076 0.00848707 0.000467081)
(2.85418 0.0140445 0.000825064)
(2.85092 0.0123686 0.000515844)
(2.84824 0.0122545 0.000522861)
(2.86317 0.0116473 0.000901905)
(2.86002 0.0185361 0.00194667)
(2.8548 0.0168357 0.00129113)
(2.8523 0.0166875 0.0011249)
(2.86732 0.0156036 0.00176589)
(2.87098 0.0233247 0.00442253)
(2.86183 0.0222876 0.00304271)
(2.85972 0.0221115 0.00243004)
(2.87446 0.0201015 0.00355941)
(2.89198 0.027373 0.0093404)
(2.87554 0.0282127 0.0068951)
(2.87414 0.0280334 0.00523385)
(2.88796 0.0242136 0.00728399)
(2.93181 0.0264716 0.0200812)
(2.90688 0.0338929 0.0143434)
(2.90709 0.0336429 0.0104858)
(2.91751 0.0265748 0.014009)
(3.0115 0.00627559 0.0468712)
(2.94504 0.0334847 0.031645)
(2.9494 0.0333437 0.0226469)
(2.94918 0.0194495 0.0296508)
(3.18268 -0.0489914 0.0991328)
(3.02377 0.00742938 0.0739905)
(3.03284 0.00963264 0.0536102)
(3.01933 -0.0225603 0.0712331)
(3.54502 -0.15998 0.205609)
(3.47111 -0.0501641 0.14646)
(3.49548 -0.0399057 0.102929)
(3.44211 -0.116453 0.141199)
(4.25818 -0.17626 0.235548)
(3.45231 -0.169585 0.309388)
(3.48748 -0.140445 0.216787)
(3.34513 -0.297378 0.297485)
(4.91311 -0.0771304 0.218004)
(4.9642 -0.0644736 0.155386)
(4.64581 -0.153034 0.196554)
(2.8442 -9.09521e-05 1.95863e-05)
(2.84393 -6.6155e-05 1.36759e-05)
(2.84124 -6.12957e-05 1.39894e-05)
(2.8536 -6.6569e-05 2.46507e-05)
(2.84418 -0.00012055 1.64635e-05)
(2.8439 -0.000129295 1.53566e-05)
(2.8412 -0.000121907 1.52793e-05)
(2.85354 -0.000120648 2.70468e-05)
(2.84414 -0.00010169 6.78909e-06)
(2.84389 -0.000129169 6.29161e-06)
(2.84119 -0.000124444 6.76132e-06)
(2.85354 -0.000115361 1.38944e-05)
(2.84411 -6.18952e-05 -6.77514e-07)
(2.84384 -8.79789e-05 -1.10715e-06)
(2.84114 -8.77856e-05 -1.00684e-06)
(2.85348 -7.84271e-05 5.13776e-06)
(2.8441 -2.35306e-05 -4.5774e-06)
(2.84382 -4.20629e-05 -4.50791e-06)
(2.84113 -4.56279e-05 -4.75087e-06)
(2.85347 -3.80869e-05 2.42969e-07)
(2.8441 4.49662e-06 -5.91941e-06)
(2.84382 -2.94982e-06 -4.891e-06)
(2.84113 -9.18307e-06 -5.80204e-06)
(2.85347 -4.43379e-06 -1.65172e-06)
(2.84413 1.53922e-05 -5.29857e-06)
(2.84384 2.0162e-05 -3.75212e-06)
(2.84114 1.28466e-05 -5.65622e-06)
(2.85349 1.48718e-05 -4.85554e-07)
(2.84416 1.70824e-05 -3.63923e-06)
(2.84387 1.81848e-05 -2.99594e-06)
(2.84117 1.51369e-05 -5.78583e-06)
(2.85352 1.58238e-05 2.35229e-06)
(2.84418 2.42325e-05 -2.52956e-06)
(2.84389 1.96053e-05 -1.98859e-06)
(2.8412 1.89998e-05 -4.66418e-06)
(2.85355 1.87446e-05 4.52971e-06)
(2.84422 3.07862e-05 -1.1352e-06)
(2.84392 3.44245e-05 3.98625e-08)
(2.84123 3.12192e-05 -2.78772e-06)
(2.85358 2.96281e-05 4.68702e-06)
(2.84426 3.34206e-05 1.94997e-06)
(2.84395 3.57527e-05 1.81346e-06)
(2.84126 3.44021e-05 -8.92833e-07)
(2.85361 3.14771e-05 6.65968e-06)
(2.8443 3.8491e-05 5.28614e-06)
(2.84399 3.90162e-05 4.96026e-06)
(2.8413 3.95254e-05 2.94174e-06)
(2.85364 3.49918e-05 1.0104e-05)
(2.84434 3.64122e-05 7.53518e-06)
(2.84403 4.813e-05 9.04548e-06)