/*--------------------------------*- C++ -*----------------------------------*\
| =========                 |                                                 |
| \\      /  F ield         | foam-extend: Open Source CFD                    |
|  \\    /   O peration     | Version:     4.1-20200408                       |
|   \\  /    A nd           | Web:         http://www.foam-extend.org         |
|    \\/     M anipulation  |                                                 |
\*---------------------------------------------------------------------------*/
FoamFile
{
    version     2.0;
    format      ascii;
    class       regIOobject;
    location    "0.0775000/uniform";
    object      profilingInfo;
}
// * * * * * * * * * * * * * * * * * * * * * * * * * * * * * * * * * * * * * //

profilingInfo
(

    {
        id              10;
        parentId        9;
        description     "Foam::Time::writeObject - outputTime";
        calls           6449;
        totalTime       883.143;
        childTime       0;
        onStack         1;
    }

    {
        id              9;
        parentId        1;
        description     "Foam::Time::writeObject";
        calls           6449;
        totalTime       883.16;
        childTime       883.143;
        onStack         1;
    }

    {
        id              1;
        description     "application::main";
        calls           1;
        totalTime       344851;
        childTime       40751.5;
        onStack         1;
    }

    {
        id              8;
        parentId        1;
        description     "FO::drawingForce::execute";
        calls           6448;
        totalTime       0.279243;
        childTime       0;
        onStack         0;
    }

    {
        id              3;
        parentId        2;
        description     "FO::drawingForce::start";
        calls           1;
        totalTime       5.7e-05;
        childTime       0;
        onStack         0;
    }

    {
        id              2;
        parentId        1;
        description     "functionObjectList::read";
        calls           1;
        totalTime       0.000394;
        childTime       5.7e-05;
        onStack         0;
    }

    {
        id              4;
        parentId        1;
        description     "fvMatrix::solve_DU";
        calls           14913100;
        totalTime       39868.1;
        childTime       35244.3;
        onStack         0;
    }

    {
        id              5;
        parentId        4;
        description     "lduMatrix::solver_DUx";
        calls           14913100;
        totalTime       25680.1;
        childTime       0;
        onStack         0;
    }

    {
        id              6;
        parentId        4;
        description     "lduMatrix::solver_DUy";
        calls           14913100;
        totalTime       7969.11;
        childTime       0;
        onStack         0;
    }

    {
        id              7;
        parentId        4;
        description     "lduMatrix::solver_DUz";
        calls           14913100;
        totalTime       1595.07;
        childTime       0;
        onStack         0;
    }
);


// ************************************************************************* //
