/*--------------------------------*- C++ -*----------------------------------*\
| =========                 |                                                 |
| \\      /  F ield         | OpenFOAM: The Open Source CFD Toolbox           |
|  \\    /   O peration     | Version:  4.1                                   |
|   \\  /    A nd           | Web:      www.OpenFOAM.org                      |
|    \\/     M anipulation  |                                                 |
\*---------------------------------------------------------------------------*/
FoamFile
{
    version     2.0;
    format      ascii;
    class       volVectorField;
    location    "0.0058";
    object      cellDisplacement;
}
// * * * * * * * * * * * * * * * * * * * * * * * * * * * * * * * * * * * * * //

dimensions      [0 1 0 0 0 0 0];

internalField   nonuniform List<vector> 
1536
(
(-5.0636e-05 -5.5144e-05 1.9604e-08)
(-4.6646e-05 -5.8061e-05 2.0472e-08)
(-4.2457e-05 -5.9966e-05 2.0973e-08)
(-3.8155e-05 -6.0557e-05 2.1037e-08)
(-3.3797e-05 -5.9644e-05 2.0585e-08)
(-2.9419e-05 -5.7197e-05 1.9628e-08)
(-2.5069e-05 -5.336e-05 1.827e-08)
(-2.0833e-05 -4.8411e-05 1.6589e-08)
(-1.6833e-05 -4.2662e-05 1.464e-08)
(-1.3199e-05 -3.6348e-05 1.2499e-08)
(-1.0021e-05 -2.961e-05 1.0241e-08)
(-7.3225e-06 -2.2583e-05 7.9247e-09)
(-5.057e-05 -4.845e-05 8.0982e-06)
(-4.6602e-05 -5.0982e-05 8.5197e-06)
(-4.2431e-05 -5.2626e-05 8.7929e-06)
(-3.8142e-05 -5.3124e-05 8.8753e-06)
(-3.3792e-05 -5.2316e-05 8.7398e-06)
(-2.9426e-05 -5.0177e-05 8.3823e-06)
(-2.5094e-05 -4.6829e-05 7.8235e-06)
(-2.0882e-05 -4.2505e-05 7.1025e-06)
(-1.6906e-05 -3.7471e-05 6.2628e-06)
(-1.3289e-05 -3.1932e-05 5.3387e-06)
(-1.0116e-05 -2.6021e-05 4.3525e-06)
(-7.4103e-06 -1.9865e-05 3.3257e-06)
(-5.0524e-05 -4.1043e-05 1.6407e-05)
(-4.6571e-05 -4.3171e-05 1.7255e-05)
(-4.2413e-05 -4.4546e-05 1.7803e-05)
(-3.8132e-05 -4.4956e-05 1.7966e-05)
(-3.379e-05 -4.4268e-05 1.769e-05)
(-2.9432e-05 -4.2461e-05 1.6967e-05)
(-2.5112e-05 -3.9636e-05 1.5839e-05)
(-2.0916e-05 -3.5987e-05 1.4382e-05)
(-1.6957e-05 -3.1732e-05 1.2683e-05)
(-1.3351e-05 -2.7045e-05 1.0812e-05)
(-1.0181e-05 -2.2043e-05 8.8146e-06)
(-7.4713e-06 -1.684e-05 6.7376e-06)
(-5.05e-05 -3.3108e-05 2.4826e-05)
(-4.6556e-05 -3.4817e-05 2.6107e-05)
(-4.2403e-05 -3.5918e-05 2.6931e-05)
(-3.8127e-05 -3.6244e-05 2.7175e-05)
(-3.3789e-05 -3.5687e-05 2.6757e-05)
(-2.9435e-05 -3.4231e-05 2.5665e-05)
(-2.5122e-05 -3.1958e-05 2.3961e-05)
(-2.0934e-05 -2.902e-05 2.1759e-05)
(-1.6983e-05 -2.5592e-05 1.9189e-05)
(-1.3382e-05 -2.1814e-05 1.6358e-05)
(-1.0215e-05 -1.7783e-05 1.3336e-05)
(-7.5025e-06 -1.3592e-05 1.0195e-05)
(-5.05e-05 -2.4824e-05 3.3109e-05)
(-4.6556e-05 -2.6105e-05 3.4818e-05)
(-4.2403e-05 -2.693e-05 3.5919e-05)
(-3.8127e-05 -2.7173e-05 3.6245e-05)
(-3.3789e-05 -2.6755e-05 3.5688e-05)
(-2.9435e-05 -2.5664e-05 3.4232e-05)
(-2.5122e-05 -2.396e-05 3.1958e-05)
(-2.0934e-05 -2.1757e-05 2.902e-05)
(-1.6983e-05 -1.9188e-05 2.5593e-05)
(-1.3382e-05 -1.6357e-05 2.1815e-05)
(-1.0215e-05 -1.3335e-05 1.7784e-05)
(-7.5025e-06 -1.0194e-05 1.3592e-05)
(-5.0524e-05 -1.6404e-05 4.1044e-05)
(-4.6572e-05 -1.7253e-05 4.3171e-05)
(-4.2413e-05 -1.7801e-05 4.4546e-05)
(-3.8132e-05 -1.7963e-05 4.4956e-05)
(-3.379e-05 -1.7688e-05 4.4268e-05)
(-2.9432e-05 -1.6966e-05 4.2461e-05)
(-2.5112e-05 -1.5838e-05 3.9636e-05)
(-2.0916e-05 -1.4381e-05 3.5987e-05)
(-1.6957e-05 -1.2682e-05 3.1732e-05)
(-1.3351e-05 -1.0811e-05 2.7045e-05)
(-1.0181e-05 -8.8137e-06 2.2044e-05)
(-7.4714e-06 -6.737e-06 1.6841e-05)
(-5.057e-05 -8.0957e-06 4.845e-05)
(-4.6603e-05 -8.5172e-06 5.0982e-05)
(-4.2431e-05 -8.7905e-06 5.2625e-05)
(-3.8142e-05 -8.8731e-06 5.3124e-05)
(-3.3793e-05 -8.7377e-06 5.2316e-05)
(-2.9426e-05 -8.3805e-06 5.0177e-05)
(-2.5094e-05 -7.8219e-06 4.6828e-05)
(-2.0882e-05 -7.101e-06 4.2505e-05)
(-1.6906e-05 -6.2615e-06 3.7471e-05)
(-1.3289e-05 -5.3376e-06 3.1932e-05)
(-1.0116e-05 -4.3516e-06 2.6021e-05)
(-7.4104e-06 -3.325e-06 1.9865e-05)
(-5.0637e-05 -1.737e-08 5.5143e-05)
(-4.6647e-05 -1.833e-08 5.806e-05)
(-4.2457e-05 -1.8956e-08 5.9965e-05)
(-3.8155e-05 -1.9175e-08 6.0556e-05)
(-3.3797e-05 -1.8911e-08 5.9643e-05)
(-2.9419e-05 -1.8159e-08 5.7196e-05)
(-2.5069e-05 -1.6996e-08 5.336e-05)
(-2.0833e-05 -1.5486e-08 4.841e-05)
(-1.6833e-05 -1.3682e-08 4.2661e-05)
(-1.3199e-05 -1.1673e-08 3.6347e-05)
(-1.0021e-05 -9.5598e-09 2.961e-05)
(-7.3226e-06 -7.4133e-09 2.2583e-05)
(-5.057e-05 -4.8448e-05 -8.0644e-06)
(-4.6602e-05 -5.098e-05 -8.4844e-06)
(-4.2431e-05 -5.2624e-05 -8.7568e-06)
(-3.8141e-05 -5.3122e-05 -8.8391e-06)
(-3.3792e-05 -5.2314e-05 -8.7044e-06)
(-2.9426e-05 -5.0175e-05 -8.3486e-06)
(-2.5094e-05 -4.6827e-05 -7.7921e-06)
(-2.0882e-05 -4.2504e-05 -7.074e-06)
(-1.6906e-05 -3.747e-05 -6.2376e-06)
(-1.3289e-05 -3.1931e-05 -5.3172e-06)
(-1.0116e-05 -2.602e-05 -4.3348e-06)
(-7.4102e-06 -1.9864e-05 -3.312e-06)
(-5.0497e-05 -4.1444e-05 3.7405e-08)
(-4.6553e-05 -4.3582e-05 3.9162e-08)
(-4.2401e-05 -4.4961e-05 4.0227e-08)
(-3.8126e-05 -4.537e-05 4.0445e-08)
(-3.3788e-05 -4.4674e-05 3.9693e-08)
(-2.9435e-05 -4.2854e-05 3.7973e-08)
(-2.5123e-05 -4.001e-05 3.5417e-08)
(-2.0935e-05 -3.6335e-05 3.2177e-08)
(-1.6985e-05 -3.2044e-05 2.8396e-08)
(-1.3386e-05 -2.7315e-05 2.4228e-08)
(-1.0218e-05 -2.2266e-05 1.9811e-08)
(-7.5062e-06 -1.7015e-05 1.5262e-08)
(-5.0448e-05 -3.3847e-05 8.486e-06)
(-4.6519e-05 -3.558e-05 8.9196e-06)
(-4.2381e-05 -3.6692e-05 9.1978e-06)
(-3.8115e-05 -3.7016e-05 9.2786e-06)
(-3.3786e-05 -3.6445e-05 9.1351e-06)
(-2.9442e-05 -3.4963e-05 8.7634e-06)
(-2.5143e-05 -3.265e-05 8.1837e-06)
(-2.0972e-05 -2.9658e-05 7.4342e-06)
(-1.7039e-05 -2.6162e-05 6.5584e-06)
(-1.3452e-05 -2.2304e-05 5.5918e-06)
(-1.0288e-05 -1.8185e-05 4.5601e-06)
(-7.5716e-06 -1.3906e-05 3.4886e-06)
(-5.0422e-05 -2.5691e-05 1.7139e-05)
(-4.6502e-05 -2.7e-05 1.8012e-05)
(-4.237e-05 -2.7839e-05 1.8571e-05)
(-3.811e-05 -2.8081e-05 1.8732e-05)
(-3.3784e-05 -2.7646e-05 1.8442e-05)
(-2.9445e-05 -2.6523e-05 1.7692e-05)
(-2.5153e-05 -2.4771e-05 1.6524e-05)
(-2.0991e-05 -2.2504e-05 1.5012e-05)
(-1.7066e-05 -1.9854e-05 1.3244e-05)
(-1.3485e-05 -1.6927e-05 1.1293e-05)
(-1.0323e-05 -1.3803e-05 9.2092e-06)
(-7.6047e-06 -1.056e-05 7.0464e-06)
(-5.0422e-05 -1.7136e-05 2.5693e-05)
(-4.6502e-05 -1.8009e-05 2.7002e-05)
(-4.237e-05 -1.8568e-05 2.7841e-05)
(-3.811e-05 -1.8729e-05 2.8083e-05)
(-3.3784e-05 -1.8439e-05 2.7648e-05)
(-2.9445e-05 -1.769e-05 2.6525e-05)
(-2.5153e-05 -1.6521e-05 2.4773e-05)
(-2.0991e-05 -1.501e-05 2.2506e-05)
(-1.7066e-05 -1.3243e-05 1.9855e-05)
(-1.3485e-05 -1.1291e-05 1.6929e-05)
(-1.0323e-05 -9.2078e-06 1.3804e-05)
(-7.6047e-06 -7.0454e-06 1.0561e-05)
(-5.0448e-05 -8.4822e-06 3.3848e-05)
(-4.6519e-05 -8.9159e-06 3.5581e-05)
(-4.2381e-05 -9.1941e-06 3.6693e-05)
(-3.8116e-05 -9.275e-06 3.7017e-05)
(-3.3786e-05 -9.1317e-06 3.6446e-05)
(-2.9442e-05 -8.7602e-06 3.4964e-05)
(-2.5143e-05 -8.1808e-06 3.2651e-05)
(-2.0972e-05 -7.4316e-06 2.9659e-05)
(-1.7039e-05 -6.5561e-06 2.6163e-05)
(-1.3452e-05 -5.5898e-06 2.2304e-05)
(-1.0288e-05 -4.5585e-06 1.8185e-05)
(-7.5716e-06 -3.4874e-06 1.3907e-05)
(-5.0498e-05 -3.3445e-08 4.1443e-05)
(-4.6553e-05 -3.5203e-08 4.3582e-05)
(-4.2402e-05 -3.6331e-08 4.4961e-05)
(-3.8126e-05 -3.668e-08 4.5369e-05)
(-3.3788e-05 -3.6135e-08 4.4674e-05)
(-2.9435e-05 -3.4684e-08 4.2854e-05)
(-2.5123e-05 -3.2431e-08 4.001e-05)
(-2.0935e-05 -2.9507e-08 3.6334e-05)
(-1.6985e-05 -2.6043e-08 3.2044e-05)
(-1.3386e-05 -2.2199e-08 2.7314e-05)
(-1.0218e-05 -1.8134e-08 2.2266e-05)
(-7.5063e-06 -1.3971e-08 1.7015e-05)
(-5.057e-05 8.0678e-06 4.8447e-05)
(-4.6603e-05 8.4877e-06 5.0979e-05)
(-4.2431e-05 8.76e-06 5.2622e-05)
(-3.8142e-05 8.8422e-06 5.3121e-05)
(-3.3793e-05 8.7072e-06 5.2313e-05)
(-2.9426e-05 8.3512e-06 5.0174e-05)
(-2.5094e-05 7.7945e-06 4.6826e-05)
(-2.0882e-05 7.076e-06 4.2502e-05)
(-1.6906e-05 6.2395e-06 3.7469e-05)
(-1.3289e-05 5.3188e-06 3.193e-05)
(-1.0116e-05 4.3362e-06 2.6019e-05)
(-7.4103e-06 3.313e-06 1.9864e-05)
(-5.0524e-05 -4.1048e-05 -1.641e-05)
(-4.6571e-05 -4.3177e-05 -1.7259e-05)
(-4.2413e-05 -4.4552e-05 -1.7807e-05)
(-3.8132e-05 -4.4962e-05 -1.797e-05)
(-3.379e-05 -4.4274e-05 -1.7695e-05)
(-2.9431e-05 -4.2467e-05 -1.6972e-05)
(-2.5112e-05 -3.9642e-05 -1.5844e-05)
(-2.0916e-05 -3.5992e-05 -1.4386e-05)
(-1.6956e-05 -3.1736e-05 -1.2687e-05)
(-1.3351e-05 -2.7049e-05 -1.0815e-05)
(-1.0181e-05 -2.2046e-05 -8.8169e-06)
(-7.471e-06 -1.6843e-05 -6.7391e-06)
(-5.0448e-05 -3.3842e-05 -8.4518e-06)
(-4.6519e-05 -3.5575e-05 -8.884e-06)
(-4.2381e-05 -3.6687e-05 -9.1614e-06)
(-3.8115e-05 -3.7011e-05 -9.242e-06)
(-3.3786e-05 -3.644e-05 -9.0993e-06)
(-2.9442e-05 -3.4958e-05 -8.7292e-06)
(-2.5143e-05 -3.2646e-05 -8.1518e-06)
(-2.0972e-05 -2.9654e-05 -7.4053e-06)
(-1.7039e-05 -2.6159e-05 -6.5328e-06)
(-1.3451e-05 -2.2301e-05 -5.5699e-06)
(-1.0287e-05 -1.8182e-05 -4.5421e-06)
(-7.5713e-06 -1.3904e-05 -3.4747e-06)
(-5.0395e-05 -2.6044e-05 2.8945e-08)
(-4.6483e-05 -2.7367e-05 3.0287e-08)
(-4.2358e-05 -2.8212e-05 3.1092e-08)
(-3.8104e-05 -2.8455e-05 3.1245e-08)
(-3.3783e-05 -2.8013e-05 3.0663e-08)
(-2.9449e-05 -2.6876e-05 2.9346e-08)
(-2.5164e-05 -2.5103e-05 2.7371e-08)
(-2.1011e-05 -2.2808e-05 2.486e-08)
(-1.7095e-05 -2.0124e-05 2.1947e-08)
(-1.352e-05 -1.7157e-05 1.8747e-08)
(-1.036e-05 -1.3991e-05 1.5356e-08)
(-7.64e-06 -1.0706e-05 1.1865e-08)
(-5.0368e-05 -1.7677e-05 8.8782e-06)
(-4.6465e-05 -1.8572e-05 9.3271e-06)
(-4.2347e-05 -1.9142e-05 9.6135e-06)
(-3.8098e-05 -1.9304e-05 9.6946e-06)
(-3.3782e-05 -1.9003e-05 9.5434e-06)
(-2.9453e-05 -1.8232e-05 9.1561e-06)
(-2.5175e-05 -1.7031e-05 8.5528e-06)
(-2.1031e-05 -1.5477e-05 7.7722e-06)
(-1.7124e-05 -1.3656e-05 6.8581e-06)
(-1.3555e-05 -1.1644e-05 5.8477e-06)
(-1.0397e-05 -9.4961e-06 4.7693e-06)
(-7.6749e-06 -7.2689e-06 3.6511e-06)
(-5.0369e-05 -8.8736e-06 1.7681e-05)
(-4.6465e-05 -9.3225e-06 1.8575e-05)
(-4.2347e-05 -9.6089e-06 1.9146e-05)
(-3.8098e-05 -9.6901e-06 1.9307e-05)
(-3.3782e-05 -9.5392e-06 1.9007e-05)
(-2.9453e-05 -9.1521e-06 1.8235e-05)
(-2.5175e-05 -8.5492e-06 1.7034e-05)
(-2.1031e-05 -7.7689e-06 1.5479e-05)
(-1.7124e-05 -6.8551e-06 1.3658e-05)
(-1.3555e-05 -5.8451e-06 1.1646e-05)
(-1.0397e-05 -4.7672e-06 9.4977e-06)
(-7.6749e-06 -3.6494e-06 7.2702e-06)
(-5.0395e-05 -2.3223e-08 2.6046e-05)
(-4.6483e-05 -2.4476e-08 2.7369e-05)
(-4.2359e-05 -2.5283e-08 2.8214e-05)
(-3.8104e-05 -2.5543e-08 2.8456e-05)
(-3.3783e-05 -2.5188e-08 2.8015e-05)
(-2.9449e-05 -2.4207e-08 2.6877e-05)
(-2.5164e-05 -2.2648e-08 2.5104e-05)
(-2.1011e-05 -2.0601e-08 2.281e-05)
(-1.7095e-05 -1.8181e-08 2.0125e-05)
(-1.352e-05 -1.5503e-08 1.7158e-05)
(-1.036e-05 -1.2675e-08 1.3992e-05)
(-7.64e-06 -9.7914e-09 1.0707e-05)
(-5.0448e-05 8.4582e-06 3.3842e-05)
(-4.652e-05 8.8905e-06 3.5574e-05)
(-4.2381e-05 9.1679e-06 3.6686e-05)
(-3.8116e-05 9.2484e-06 3.701e-05)
(-3.3786e-05 9.1054e-06 3.6439e-05)
(-2.9442e-05 8.7349e-06 3.4957e-05)
(-2.5143e-05 8.1571e-06 3.2645e-05)
(-2.0972e-05 7.41e-06 2.9654e-05)
(-1.7039e-05 6.537e-06 2.6158e-05)
(-1.3451e-05 5.5736e-06 2.23e-05)
(-1.0287e-05 4.5451e-06 1.8182e-05)
(-7.5714e-06 3.477e-06 1.3904e-05)
(-5.0524e-05 1.6415e-05 4.1047e-05)
(-4.6572e-05 1.7264e-05 4.3175e-05)
(-4.2413e-05 1.7812e-05 4.455e-05)
(-3.8132e-05 1.7975e-05 4.496e-05)
(-3.379e-05 1.7699e-05 4.4272e-05)
(-2.9432e-05 1.6976e-05 4.2465e-05)
(-2.5112e-05 1.5848e-05 3.964e-05)
(-2.0916e-05 1.439e-05 3.599e-05)
(-1.6956e-05 1.269e-05 3.1735e-05)
(-1.3351e-05 1.0817e-05 2.7048e-05)
(-1.0181e-05 8.8191e-06 2.2046e-05)
(-7.471e-06 6.7409e-06 1.6842e-05)
(-5.05e-05 -3.3106e-05 -2.4824e-05)
(-4.6556e-05 -3.4815e-05 -2.6105e-05)
(-4.2403e-05 -3.5916e-05 -2.693e-05)
(-3.8127e-05 -3.6242e-05 -2.7173e-05)
(-3.3788e-05 -3.5685e-05 -2.6755e-05)
(-2.9435e-05 -3.4229e-05 -2.5664e-05)
(-2.5121e-05 -3.1956e-05 -2.396e-05)
(-2.0933e-05 -2.9018e-05 -2.1758e-05)
(-1.6982e-05 -2.559e-05 -1.9188e-05)
(-1.3382e-05 -2.1813e-05 -1.6357e-05)
(-1.0214e-05 -1.7782e-05 -1.3335e-05)
(-7.5023e-06 -1.3591e-05 -1.0194e-05)
(-5.0422e-05 -2.5673e-05 -1.7133e-05)
(-4.6502e-05 -2.6982e-05 -1.8006e-05)
(-4.237e-05 -2.7821e-05 -1.8565e-05)
(-3.811e-05 -2.8062e-05 -1.8726e-05)
(-3.3784e-05 -2.7628e-05 -1.8436e-05)
(-2.9445e-05 -2.6505e-05 -1.7687e-05)
(-2.5153e-05 -2.4754e-05 -1.6519e-05)
(-2.0991e-05 -2.2489e-05 -1.5008e-05)
(-1.7066e-05 -1.9841e-05 -1.3241e-05)
(-1.3485e-05 -1.6916e-05 -1.1289e-05)
(-1.0323e-05 -1.3794e-05 -9.2062e-06)
(-7.6046e-06 -1.0553e-05 -7.0439e-06)
(-5.0368e-05 -1.7669e-05 -8.8538e-06)
(-4.6465e-05 -1.8563e-05 -9.3017e-06)
(-4.2347e-05 -1.9133e-05 -9.5875e-06)
(-3.8098e-05 -1.9295e-05 -9.6685e-06)
(-3.3782e-05 -1.8994e-05 -9.518e-06)
(-2.9453e-05 -1.8224e-05 -9.1317e-06)
(-2.5175e-05 -1.7023e-05 -8.5302e-06)
(-2.1031e-05 -1.5469e-05 -7.7516e-06)
(-1.7124e-05 -1.365e-05 -6.8398e-06)
(-1.3555e-05 -1.1638e-05 -5.832e-06)
(-1.0397e-05 -9.4917e-06 -4.7563e-06)
(-7.6748e-06 -7.2656e-06 -3.6409e-06)
(-5.0341e-05 -9.0473e-06 8.9102e-09)
(-4.6445e-05 -9.5035e-06 9.2553e-09)
(-4.2335e-05 -9.7939e-06 9.4453e-09)
(-3.8092e-05 -9.8756e-06 9.4493e-09)
(-3.378e-05 -9.7213e-06 9.2376e-09)
(-2.9458e-05 -9.3271e-06 8.8136e-09)
(-2.5187e-05 -8.7134e-06 8.2081e-09)
(-2.1052e-05 -7.9189e-06 7.4638e-09)
(-1.7154e-05 -6.9879e-06 6.6205e-09)
(-1.3591e-05 -5.9584e-06 5.7077e-09)
(-1.0435e-05 -4.8596e-06 4.7466e-09)
(-7.7108e-06 -3.721e-06 3.7591e-09)
(-5.0341e-05 -2.9498e-09 9.0527e-06)
(-4.6445e-05 -3.1945e-09 9.509e-06)
(-4.2335e-05 -3.3745e-09 9.7994e-06)
(-3.8092e-05 -3.4767e-09 9.881e-06)
(-3.378e-05 -3.4877e-09 9.7265e-06)
(-2.9458e-05 -3.4037e-09 9.332e-06)
(-2.5187e-05 -3.2264e-09 8.7179e-06)
(-2.1052e-05 -2.9636e-09 7.923e-06)
(-1.7154e-05 -2.6348e-09 6.9915e-06)
(-1.3591e-05 -2.2692e-09 5.9615e-06)
(-1.0435e-05 -1.899e-09 4.8622e-06)
(-7.7108e-06 -1.5483e-09 3.723e-06)
(-5.0369e-05 8.8621e-06 1.7673e-05)
(-4.6465e-05 9.3102e-06 1.8567e-05)
(-4.2347e-05 9.5961e-06 1.9137e-05)
(-3.8098e-05 9.677e-06 1.9299e-05)
(-3.3782e-05 9.5262e-06 1.8998e-05)
(-2.9453e-05 9.1395e-06 1.8227e-05)
(-2.5175e-05 8.5373e-06 1.7027e-05)
(-2.1031e-05 7.7581e-06 1.5472e-05)
(-1.7124e-05 6.8456e-06 1.3652e-05)
(-1.3555e-05 5.837e-06 1.1641e-05)
(-1.0397e-05 4.7604e-06 9.4937e-06)
(-7.6748e-06 3.6441e-06 7.2671e-06)
(-5.0422e-05 1.7144e-05 2.5671e-05)
(-4.6502e-05 1.8018e-05 2.698e-05)
(-4.237e-05 1.8577e-05 2.7818e-05)
(-3.811e-05 1.8738e-05 2.8059e-05)
(-3.3785e-05 1.8448e-05 2.7625e-05)
(-2.9445e-05 1.7698e-05 2.6502e-05)
(-2.5153e-05 1.6529e-05 2.4752e-05)
(-2.0991e-05 1.5017e-05 2.2487e-05)
(-1.7066e-05 1.3248e-05 1.9839e-05)
(-1.3485e-05 1.1296e-05 1.6914e-05)
(-1.0323e-05 9.2117e-06 1.3793e-05)
(-7.6046e-06 7.0482e-06 1.0552e-05)
(-5.05e-05 2.4831e-05 3.3102e-05)
(-4.6556e-05 2.6112e-05 3.4811e-05)
(-4.2403e-05 2.6937e-05 3.5912e-05)
(-3.8127e-05 2.718e-05 3.6237e-05)
(-3.3789e-05 2.6762e-05 3.568e-05)
(-2.9435e-05 2.567e-05 3.4225e-05)
(-2.5122e-05 2.3965e-05 3.1952e-05)
(-2.0933e-05 2.1763e-05 2.9014e-05)
(-1.6982e-05 1.9193e-05 2.5587e-05)
(-1.3382e-05 1.6361e-05 2.1811e-05)
(-1.0214e-05 1.3339e-05 1.778e-05)
(-7.5023e-06 1.0197e-05 1.359e-05)
(-5.05e-05 -2.4827e-05 -3.3104e-05)
(-4.6555e-05 -2.6107e-05 -3.4812e-05)
(-4.2403e-05 -2.6932e-05 -3.5914e-05)
(-3.8127e-05 -2.7176e-05 -3.6239e-05)
(-3.3788e-05 -2.6758e-05 -3.5682e-05)
(-2.9434e-05 -2.5667e-05 -3.4227e-05)
(-2.5121e-05 -2.3962e-05 -3.1954e-05)
(-2.0933e-05 -2.176e-05 -2.9016e-05)
(-1.6982e-05 -1.919e-05 -2.5589e-05)
(-1.3382e-05 -1.6359e-05 -2.1812e-05)
(-1.0214e-05 -1.3337e-05 -1.7781e-05)
(-7.5023e-06 -1.0195e-05 -1.359e-05)
(-5.0422e-05 -1.7137e-05 -2.5671e-05)
(-4.6502e-05 -1.801e-05 -2.6979e-05)
(-4.237e-05 -1.8569e-05 -2.7818e-05)
(-3.811e-05 -1.873e-05 -2.8059e-05)
(-3.3784e-05 -1.844e-05 -2.7625e-05)
(-2.9445e-05 -1.7691e-05 -2.6502e-05)
(-2.5153e-05 -1.6522e-05 -2.4752e-05)
(-2.0991e-05 -1.5011e-05 -2.2487e-05)
(-1.7066e-05 -1.3243e-05 -1.9839e-05)
(-1.3485e-05 -1.1292e-05 -1.6914e-05)
(-1.0323e-05 -9.2083e-06 -1.3792e-05)
(-7.6046e-06 -7.0458e-06 -1.0552e-05)
(-5.0368e-05 -8.8584e-06 -1.7665e-05)
(-4.6465e-05 -9.3066e-06 -1.8559e-05)
(-4.2347e-05 -9.5925e-06 -1.9129e-05)
(-3.8098e-05 -9.6736e-06 -1.9291e-05)
(-3.3782e-05 -9.5229e-06 -1.899e-05)
(-2.9453e-05 -9.1365e-06 -1.822e-05)
(-2.5175e-05 -8.5347e-06 -1.702e-05)
(-2.1031e-05 -7.7557e-06 -1.5466e-05)
(-1.7124e-05 -6.8436e-06 -1.3647e-05)
(-1.3555e-05 -5.8353e-06 -1.1636e-05)
(-1.0397e-05 -4.7592e-06 -9.4893e-06)
(-7.6748e-06 -3.6434e-06 -7.2635e-06)
(-5.0341e-05 3.0364e-09 -9.0418e-06)
(-4.6445e-05 3.087e-09 -9.4978e-06)
(-4.2335e-05 3.0879e-09 -9.788e-06)
(-3.8092e-05 3.0271e-09 -9.8696e-06)
(-3.378e-05 2.9024e-09 -9.7154e-06)
(-2.9458e-05 2.7154e-09 -9.3215e-06)
(-2.5187e-05 2.4774e-09 -8.7081e-06)
(-2.1052e-05 2.2051e-09 -7.914e-06)
(-1.7154e-05 1.9058e-09 -6.9836e-06)
(-1.3591e-05 1.5794e-09 -5.9546e-06)
(-1.0434e-05 1.2207e-09 -4.8564e-06)
(-7.7108e-06 8.2965e-10 -3.7182e-06)
(-5.0341e-05 9.0474e-06 5.0182e-09)
(-4.6445e-05 9.5034e-06 5.1686e-09)
(-4.2335e-05 9.7937e-06 5.2409e-09)
(-3.8092e-05 9.8752e-06 5.2203e-09)
(-3.378e-05 9.7208e-06 5.0864e-09)
(-2.9458e-05 9.3264e-06 4.8426e-09)
(-2.5187e-05 8.7127e-06 4.5111e-09)
(-2.1052e-05 7.9181e-06 4.1187e-09)
(-1.7154e-05 6.9872e-06 3.6868e-09)
(-1.3591e-05 5.9577e-06 3.2265e-09)
(-1.0434e-05 4.859e-06 2.7413e-09)
(-7.7108e-06 3.7203e-06 2.2367e-09)
(-5.0369e-05 1.7675e-05 8.8706e-06)
(-4.6465e-05 1.8569e-05 9.3191e-06)
(-4.2347e-05 1.914e-05 9.6053e-06)
(-3.8098e-05 1.9301e-05 9.6863e-06)
(-3.3782e-05 1.9e-05 9.5353e-06)
(-2.9453e-05 1.8229e-05 9.1483e-06)
(-2.5175e-05 1.7028e-05 8.5456e-06)
(-2.1031e-05 1.5474e-05 7.7657e-06)
(-1.7124e-05 1.3654e-05 6.8523e-06)
(-1.3555e-05 1.1642e-05 5.8429e-06)
(-1.0397e-05 9.4943e-06 4.7654e-06)
(-7.6748e-06 7.2674e-06 3.6481e-06)
(-5.0422e-05 2.5694e-05 1.7128e-05)
(-4.6502e-05 2.7003e-05 1.8001e-05)
(-4.237e-05 2.7842e-05 1.8559e-05)
(-3.811e-05 2.8084e-05 1.872e-05)
(-3.3785e-05 2.7649e-05 1.843e-05)
(-2.9445e-05 2.6525e-05 1.7681e-05)
(-2.5153e-05 2.4773e-05 1.6513e-05)
(-2.0991e-05 2.2506e-05 1.5003e-05)
(-1.7066e-05 1.9856e-05 1.3236e-05)
(-1.3485e-05 1.6929e-05 1.1286e-05)
(-1.0323e-05 1.3804e-05 9.2036e-06)
(-7.6046e-06 1.0561e-05 7.0422e-06)
(-5.05e-05 3.3111e-05 2.482e-05)
(-4.6556e-05 3.482e-05 2.6099e-05)
(-4.2403e-05 3.5922e-05 2.6924e-05)
(-3.8127e-05 3.6247e-05 2.7168e-05)
(-3.3789e-05 3.569e-05 2.675e-05)
(-2.9435e-05 3.4234e-05 2.5658e-05)
(-2.5122e-05 3.196e-05 2.3955e-05)
(-2.0933e-05 2.9022e-05 2.1753e-05)
(-1.6982e-05 2.5594e-05 1.9184e-05)
(-1.3382e-05 2.1816e-05 1.6354e-05)
(-1.0214e-05 1.7784e-05 1.3333e-05)
(-7.5024e-06 1.3593e-05 1.0192e-05)
(-5.0524e-05 -1.6413e-05 -4.1047e-05)
(-4.6571e-05 -1.7262e-05 -4.3175e-05)
(-4.2412e-05 -1.781e-05 -4.455e-05)
(-3.8132e-05 -1.7973e-05 -4.4961e-05)
(-3.379e-05 -1.7698e-05 -4.4273e-05)
(-2.9431e-05 -1.6975e-05 -4.2465e-05)
(-2.5112e-05 -1.5846e-05 -3.964e-05)
(-2.0916e-05 -1.4389e-05 -3.5991e-05)
(-1.6956e-05 -1.2689e-05 -3.1735e-05)
(-1.335e-05 -1.0817e-05 -2.7048e-05)
(-1.0181e-05 -8.8187e-06 -2.2046e-05)
(-7.471e-06 -6.7407e-06 -1.6842e-05)
(-5.0448e-05 -8.4557e-06 -3.3841e-05)
(-4.6519e-05 -8.8881e-06 -3.5573e-05)
(-4.2381e-05 -9.1656e-06 -3.6685e-05)
(-3.8115e-05 -9.2463e-06 -3.7009e-05)
(-3.3785e-05 -9.1034e-06 -3.6438e-05)
(-2.9442e-05 -8.7332e-06 -3.4957e-05)
(-2.5142e-05 -8.1556e-06 -3.2644e-05)
(-2.0972e-05 -7.4087e-06 -2.9653e-05)
(-1.7039e-05 -6.536e-06 -2.6157e-05)
(-1.3451e-05 -5.5727e-06 -2.2299e-05)
(-1.0287e-05 -4.5446e-06 -1.8181e-05)
(-7.5713e-06 -3.4768e-06 -1.3903e-05)
(-5.0395e-05 2.3272e-08 -2.6041e-05)
(-4.6483e-05 2.4328e-08 -2.7364e-05)
(-4.2358e-05 2.4956e-08 -2.821e-05)
(-3.8104e-05 2.5055e-08 -2.8452e-05)
(-3.3783e-05 2.4567e-08 -2.801e-05)
(-2.9449e-05 2.3487e-08 -2.6873e-05)
(-2.5164e-05 2.187e-08 -2.51e-05)
(-2.1011e-05 1.9812e-08 -2.2806e-05)
(-1.7095e-05 1.7416e-08 -2.0122e-05)
(-1.352e-05 1.4771e-08 -1.7156e-05)
(-1.036e-05 1.195e-08 -1.399e-05)
(-7.64e-06 9.0251e-09 -1.0704e-05)
(-5.0368e-05 8.8701e-06 -1.7673e-05)
(-4.6465e-05 9.3187e-06 -1.8567e-05)
(-4.2347e-05 9.6048e-06 -1.9137e-05)
(-3.8098e-05 9.6858e-06 -1.9299e-05)
(-3.3782e-05 9.5348e-06 -1.8999e-05)
(-2.9453e-05 9.1477e-06 -1.8228e-05)
(-2.5175e-05 8.545e-06 -1.7027e-05)
(-2.1031e-05 7.765e-06 -1.5473e-05)
(-1.7124e-05 6.8516e-06 -1.3653e-05)
(-1.3555e-05 5.8421e-06 -1.1641e-05)
(-1.0397e-05 4.7646e-06 -9.4933e-06)
(-7.6748e-06 3.6473e-06 -7.2666e-06)
(-5.0368e-05 1.7671e-05 -8.8614e-06)
(-4.6465e-05 1.8565e-05 -9.3097e-06)
(-4.2347e-05 1.9135e-05 -9.5957e-06)
(-3.8098e-05 1.9297e-05 -9.6768e-06)
(-3.3782e-05 1.8996e-05 -9.5261e-06)
(-2.9453e-05 1.8225e-05 -9.1395e-06)
(-2.5175e-05 1.7024e-05 -8.5374e-06)
(-2.1031e-05 1.547e-05 -7.7581e-06)
(-1.7124e-05 1.3651e-05 -6.8456e-06)
(-1.3555e-05 1.1639e-05 -5.8369e-06)
(-1.0397e-05 9.4921e-06 -4.7603e-06)
(-7.6748e-06 7.2657e-06 -3.6439e-06)
(-5.0395e-05 2.6044e-05 2.1481e-08)
(-4.6483e-05 2.7367e-05 2.2448e-08)
(-4.2359e-05 2.8212e-05 2.303e-08)
(-3.8104e-05 2.8454e-05 2.3138e-08)
(-3.3783e-05 2.8012e-05 2.271e-08)
(-2.9449e-05 2.6875e-05 2.1746e-08)
(-2.5164e-05 2.5102e-05 2.0303e-08)
(-2.1011e-05 2.2808e-05 1.8474e-08)
(-1.7095e-05 2.0123e-05 1.6357e-08)
(-1.352e-05 1.7157e-05 1.403e-08)
(-1.036e-05 1.3991e-05 1.1554e-08)
(-7.64e-06 1.0705e-05 8.9886e-09)
(-5.0448e-05 3.3848e-05 8.4787e-06)
(-4.6519e-05 3.5581e-05 8.9119e-06)
(-4.2381e-05 3.6693e-05 9.1899e-06)
(-3.8116e-05 3.7017e-05 9.2706e-06)
(-3.3786e-05 3.6446e-05 9.1273e-06)
(-2.9442e-05 3.4964e-05 8.7559e-06)
(-2.5143e-05 3.265e-05 8.1768e-06)
(-2.0972e-05 2.9659e-05 7.428e-06)
(-1.7039e-05 2.6162e-05 6.5529e-06)
(-1.3452e-05 2.2304e-05 5.5872e-06)
(-1.0288e-05 1.8185e-05 4.5564e-06)
(-7.5715e-06 1.3906e-05 3.4859e-06)
(-5.0524e-05 4.1045e-05 1.6401e-05)
(-4.6572e-05 4.3173e-05 1.7249e-05)
(-4.2413e-05 4.4547e-05 1.7797e-05)
(-3.8132e-05 4.4958e-05 1.796e-05)
(-3.379e-05 4.4269e-05 1.7684e-05)
(-2.9432e-05 4.2462e-05 1.6962e-05)
(-2.5112e-05 3.9637e-05 1.5834e-05)
(-2.0916e-05 3.5988e-05 1.4378e-05)
(-1.6957e-05 3.1733e-05 1.2679e-05)
(-1.3351e-05 2.7046e-05 1.0808e-05)
(-1.0181e-05 2.2044e-05 8.812e-06)
(-7.4712e-06 1.6841e-05 6.7357e-06)
(-5.057e-05 -8.0671e-06 -4.8447e-05)
(-4.6602e-05 -8.4872e-06 -5.0979e-05)
(-4.2431e-05 -8.7597e-06 -5.2623e-05)
(-3.8141e-05 -8.842e-06 -5.3121e-05)
(-3.3792e-05 -8.7072e-06 -5.2313e-05)
(-2.9426e-05 -8.3513e-06 -5.0174e-05)
(-2.5094e-05 -7.7947e-06 -4.6826e-05)
(-2.0881e-05 -7.0763e-06 -4.2503e-05)
(-1.6906e-05 -6.2398e-06 -3.7469e-05)
(-1.3289e-05 -5.3192e-06 -3.193e-05)
(-1.0116e-05 -4.3366e-06 -2.6019e-05)
(-7.4102e-06 -3.3136e-06 -1.9863e-05)
(-5.0497e-05 3.3434e-08 -4.1443e-05)
(-4.6553e-05 3.499e-08 -4.3582e-05)
(-4.2401e-05 3.5938e-08 -4.4961e-05)
(-3.8126e-05 3.6131e-08 -4.5369e-05)
(-3.3788e-05 3.5457e-08 -4.4674e-05)
(-2.9435e-05 3.3911e-08 -4.2854e-05)
(-2.5122e-05 3.1603e-08 -4.001e-05)
(-2.0935e-05 2.8664e-08 -3.6334e-05)
(-1.6985e-05 2.5215e-08 -3.2044e-05)
(-1.3386e-05 2.1395e-08 -2.7314e-05)
(-1.0218e-05 1.733e-08 -2.2265e-05)
(-7.5062e-06 1.3124e-08 -1.7015e-05)
(-5.0448e-05 8.4798e-06 -3.3847e-05)
(-4.6519e-05 8.9131e-06 -3.558e-05)
(-4.2381e-05 9.1911e-06 -3.6692e-05)
(-3.8115e-05 9.2718e-06 -3.7016e-05)
(-3.3786e-05 9.1284e-06 -3.6445e-05)
(-2.9442e-05 8.757e-06 -3.4963e-05)
(-2.5143e-05 8.1777e-06 -3.265e-05)
(-2.0972e-05 7.4287e-06 -2.9659e-05)
(-1.7039e-05 6.5534e-06 -2.6162e-05)
(-1.3452e-05 5.5875e-06 -2.2304e-05)
(-1.0288e-05 4.5564e-06 -1.8184e-05)
(-7.5715e-06 3.4856e-06 -1.3906e-05)
(-5.0422e-05 1.7128e-05 -2.5693e-05)
(-4.6502e-05 1.8001e-05 -2.7002e-05)
(-4.237e-05 1.856e-05 -2.7841e-05)
(-3.811e-05 1.8721e-05 -2.8083e-05)
(-3.3784e-05 1.843e-05 -2.7648e-05)
(-2.9445e-05 1.7681e-05 -2.6525e-05)
(-2.5153e-05 1.6513e-05 -2.4773e-05)
(-2.0991e-05 1.5003e-05 -2.2506e-05)
(-1.7066e-05 1.3236e-05 -1.9855e-05)
(-1.3485e-05 1.1285e-05 -1.6928e-05)
(-1.0323e-05 9.203e-06 -1.3804e-05)
(-7.6046e-06 7.0415e-06 -1.056e-05)
(-5.0422e-05 2.5671e-05 -1.7144e-05)
(-4.6502e-05 2.6979e-05 -1.8018e-05)
(-4.237e-05 2.7817e-05 -1.8577e-05)
(-3.811e-05 2.8059e-05 -1.8738e-05)
(-3.3784e-05 2.7624e-05 -1.8448e-05)
(-2.9445e-05 2.6502e-05 -1.7698e-05)
(-2.5153e-05 2.4751e-05 -1.6529e-05)
(-2.0991e-05 2.2486e-05 -1.5017e-05)
(-1.7066e-05 1.9838e-05 -1.3249e-05)
(-1.3485e-05 1.6914e-05 -1.1296e-05)
(-1.0323e-05 1.3792e-05 -9.2119e-06)
(-7.6046e-06 1.0551e-05 -7.0482e-06)
(-5.0448e-05 3.3841e-05 -8.4592e-06)
(-4.6519e-05 3.5574e-05 -8.8917e-06)
(-4.2381e-05 3.6686e-05 -9.1693e-06)
(-3.8116e-05 3.701e-05 -9.25e-06)
(-3.3786e-05 3.6439e-05 -9.1071e-06)
(-2.9442e-05 3.4957e-05 -8.7367e-06)
(-2.5143e-05 3.2644e-05 -8.1588e-06)
(-2.0972e-05 2.9653e-05 -7.4116e-06)
(-1.7039e-05 2.6157e-05 -6.5383e-06)
(-1.3451e-05 2.2299e-05 -5.5746e-06)
(-1.0287e-05 1.8181e-05 -4.5459e-06)
(-7.5713e-06 1.3903e-05 -3.4775e-06)
(-5.0497e-05 4.1444e-05 3.1627e-08)
(-4.6553e-05 4.3582e-05 3.3084e-08)
(-4.2401e-05 4.4961e-05 3.3979e-08)
(-3.8126e-05 4.537e-05 3.4169e-08)
(-3.3788e-05 4.4674e-05 3.3549e-08)
(-2.9435e-05 4.2854e-05 3.2122e-08)
(-2.5123e-05 4.001e-05 3e-08)
(-2.0935e-05 3.6334e-05 2.7311e-08)
(-1.6985e-05 3.2044e-05 2.4167e-08)
(-1.3386e-05 2.7314e-05 2.0693e-08)
(-1.0218e-05 2.2265e-05 1.6992e-08)
(-7.5061e-06 1.7015e-05 1.3158e-08)
(-5.057e-05 4.845e-05 8.0939e-06)
(-4.6603e-05 5.0983e-05 8.5151e-06)
(-4.2431e-05 5.2626e-05 8.7882e-06)
(-3.8142e-05 5.3124e-05 8.8706e-06)
(-3.3793e-05 5.2316e-05 8.7352e-06)
(-2.9426e-05 5.0177e-05 8.3779e-06)
(-2.5094e-05 4.6828e-05 7.8195e-06)
(-2.0882e-05 4.2505e-05 7.0989e-06)
(-1.6906e-05 3.7471e-05 6.2597e-06)
(-1.3289e-05 3.1932e-05 5.3362e-06)
(-1.0116e-05 2.6021e-05 4.3505e-06)
(-7.4102e-06 1.9865e-05 3.3242e-06)
(-5.0636e-05 1.7313e-08 -5.5143e-05)
(-4.6646e-05 1.8061e-08 -5.8061e-05)
(-4.2457e-05 1.8503e-08 -5.9965e-05)
(-3.8155e-05 1.8565e-08 -6.0556e-05)
(-3.3796e-05 1.8178e-08 -5.9643e-05)
(-2.9419e-05 1.7336e-08 -5.7197e-05)
(-2.5069e-05 1.6116e-08 -5.336e-05)
(-2.0833e-05 1.4587e-08 -4.8411e-05)
(-1.6833e-05 1.2788e-08 -4.2661e-05)
(-1.3199e-05 1.0794e-08 -3.6347e-05)
(-1.0021e-05 8.6779e-09 -2.961e-05)
(-7.3224e-06 6.4879e-09 -2.2582e-05)
(-5.057e-05 8.0949e-06 -4.845e-05)
(-4.6602e-05 8.5162e-06 -5.0982e-05)
(-4.2431e-05 8.7894e-06 -5.2626e-05)
(-3.8141e-05 8.8717e-06 -5.3124e-05)
(-3.3792e-05 8.7363e-06 -5.2316e-05)
(-2.9426e-05 8.379e-06 -5.0177e-05)
(-2.5094e-05 7.8204e-06 -4.6829e-05)
(-2.0881e-05 7.0996e-06 -4.2505e-05)
(-1.6906e-05 6.2602e-06 -3.7471e-05)
(-1.3289e-05 5.3363e-06 -3.1932e-05)
(-1.0116e-05 4.3504e-06 -2.6021e-05)
(-7.4102e-06 3.3238e-06 -1.9864e-05)
(-5.0524e-05 1.6402e-05 -4.1044e-05)
(-4.6571e-05 1.725e-05 -4.3172e-05)
(-4.2412e-05 1.7798e-05 -4.4547e-05)
(-3.8132e-05 1.7961e-05 -4.4957e-05)
(-3.379e-05 1.7685e-05 -4.4269e-05)
(-2.9432e-05 1.6963e-05 -4.2462e-05)
(-2.5112e-05 1.5835e-05 -3.9637e-05)
(-2.0916e-05 1.4378e-05 -3.5988e-05)
(-1.6956e-05 1.2679e-05 -3.1733e-05)
(-1.3351e-05 1.0808e-05 -2.7046e-05)
(-1.0181e-05 8.8117e-06 -2.2044e-05)
(-7.4712e-06 6.7352e-06 -1.684e-05)
(-5.05e-05 2.482e-05 -3.3111e-05)
(-4.6556e-05 2.61e-05 -3.482e-05)
(-4.2403e-05 2.6925e-05 -3.5921e-05)
(-3.8127e-05 2.7168e-05 -3.6247e-05)
(-3.3789e-05 2.675e-05 -3.569e-05)
(-2.9435e-05 2.5659e-05 -3.4234e-05)
(-2.5121e-05 2.3955e-05 -3.1961e-05)
(-2.0933e-05 2.1753e-05 -2.9022e-05)
(-1.6982e-05 1.9184e-05 -2.5594e-05)
(-1.3382e-05 1.6353e-05 -2.1816e-05)
(-1.0214e-05 1.3332e-05 -1.7784e-05)
(-7.5024e-06 1.0192e-05 -1.3593e-05)
(-5.05e-05 3.3102e-05 -2.4831e-05)
(-4.6556e-05 3.4811e-05 -2.6112e-05)
(-4.2403e-05 3.5912e-05 -2.6937e-05)
(-3.8127e-05 3.6237e-05 -2.7181e-05)
(-3.3789e-05 3.568e-05 -2.6763e-05)
(-2.9435e-05 3.4225e-05 -2.5671e-05)
(-2.5121e-05 3.1952e-05 -2.3966e-05)
(-2.0933e-05 2.9014e-05 -2.1764e-05)
(-1.6982e-05 2.5587e-05 -1.9194e-05)
(-1.3382e-05 2.181e-05 -1.6361e-05)
(-1.0214e-05 1.7779e-05 -1.3339e-05)
(-7.5023e-06 1.3589e-05 -1.0197e-05)
(-5.0524e-05 4.1047e-05 -1.6416e-05)
(-4.6572e-05 4.3175e-05 -1.7265e-05)
(-4.2413e-05 4.455e-05 -1.7813e-05)
(-3.8132e-05 4.496e-05 -1.7976e-05)
(-3.379e-05 4.4272e-05 -1.7701e-05)
(-2.9432e-05 4.2465e-05 -1.6978e-05)
(-2.5112e-05 3.9639e-05 -1.5849e-05)
(-2.0916e-05 3.599e-05 -1.4391e-05)
(-1.6956e-05 3.1734e-05 -1.2691e-05)
(-1.335e-05 2.7047e-05 -1.0818e-05)
(-1.0181e-05 2.2045e-05 -8.8196e-06)
(-7.471e-06 1.6841e-05 -6.7412e-06)
(-5.057e-05 4.8447e-05 -8.0688e-06)
(-4.6603e-05 5.098e-05 -8.489e-06)
(-4.2431e-05 5.2623e-05 -8.7615e-06)
(-3.8142e-05 5.3121e-05 -8.8439e-06)
(-3.3793e-05 5.2313e-05 -8.709e-06)
(-2.9426e-05 5.0174e-05 -8.3529e-06)
(-2.5094e-05 4.6826e-05 -7.7962e-06)
(-2.0882e-05 4.2502e-05 -7.0776e-06)
(-1.6906e-05 3.7468e-05 -6.2408e-06)
(-1.3289e-05 3.193e-05 -5.3198e-06)
(-1.0116e-05 2.6019e-05 -4.3369e-06)
(-7.4101e-06 1.9863e-05 -3.3135e-06)
(-5.0636e-05 5.5144e-05 1.6276e-08)
(-4.6647e-05 5.8061e-05 1.6948e-08)
(-4.2457e-05 5.9966e-05 1.7354e-08)
(-3.8155e-05 6.0556e-05 1.7413e-08)
(-3.3797e-05 5.9643e-05 1.7061e-08)
(-2.9419e-05 5.7196e-05 1.6305e-08)
(-2.5069e-05 5.336e-05 1.523e-08)
(-2.0833e-05 4.841e-05 1.3901e-08)
(-1.6833e-05 4.2661e-05 1.235e-08)
(-1.3199e-05 3.6347e-05 1.0633e-08)
(-1.0021e-05 2.961e-05 8.8012e-09)
(-7.3224e-06 2.2582e-05 6.8966e-09)
(-7.0055e-06 -2.9584e-05 2.5989e-06)
(-9.6767e-06 -3.8884e-05 3.4109e-06)
(-1.2871e-05 -4.7747e-05 4.1859e-06)
(-1.6569e-05 -5.6055e-05 4.9123e-06)
(-2.0661e-05 -6.3668e-05 5.5766e-06)
(-2.4986e-05 -7.0271e-05 6.1518e-06)
(-2.9399e-05 -7.5404e-05 6.5998e-06)
(-3.3813e-05 -7.8656e-05 6.8851e-06)
(-3.8201e-05 -7.9823e-05 6.9885e-06)
(-4.2545e-05 -7.8951e-05 6.9136e-06)
(-4.6799e-05 -7.6313e-05 6.6851e-06)
(-5.087e-05 -7.2345e-05 6.3409e-06)
(-7.0872e-06 -2.7361e-05 7.3084e-06)
(-9.7685e-06 -3.5923e-05 9.582e-06)
(-1.2959e-05 -4.4101e-05 1.1756e-05)
(-1.6639e-05 -5.1763e-05 1.3793e-05)
(-2.0703e-05 -5.8766e-05 1.5651e-05)
(-2.5003e-05 -6.4822e-05 1.7257e-05)
(-2.94e-05 -6.9524e-05 1.8504e-05)
(-3.3808e-05 -7.2511e-05 1.93e-05)
(-3.8191e-05 -7.36e-05 1.9592e-05)
(-4.2526e-05 -7.2829e-05 1.9391e-05)
(-4.6763e-05 -7.0444e-05 1.8763e-05)
(-5.081e-05 -6.6831e-05 1.781e-05)
(-7.1459e-06 -2.4432e-05 1.2078e-05)
(-9.8336e-06 -3.2046e-05 1.5826e-05)
(-1.3021e-05 -3.9328e-05 1.9414e-05)