/*--------------------------------*- C++ -*----------------------------------*\
| =========                 |                                                 |
| \\      /  F ield         | OpenFOAM: The Open Source CFD Toolbox           |
|  \\    /   O peration     | Version:  4.1                                   |
|   \\  /    A nd           | Web:      www.OpenFOAM.org                      |
|    \\/     M anipulation  |                                                 |
\*---------------------------------------------------------------------------*/
FoamFile
{
    version     2.0;
    format      ascii;
    class       volScalarField;
    location    "0.000060";
    object      epsilon;
}
// * * * * * * * * * * * * * * * * * * * * * * * * * * * * * * * * * * * * * //

dimensions      [0 2 -3 0 0 0 0];

internalField   nonuniform List<scalar> 
3072
(
35.837014
34.338687
32.979928
31.390515
29.975008
28.525132
26.944971
25.40602
23.989605
22.532603
22.053659
21.695581
21.259883
20.745088
20.343119
21.081815
21.715519
22.204704
22.528109
22.671166
22.600424
22.18562
21.062628
16.977451
27.288656
26.456292
25.653085
24.686806
23.836807
22.931683
21.971734
20.994949
20.061238
19.118046
18.654367
18.417482
18.184972
17.959454
17.82914
18.433472
18.995061
19.512696
19.971005
20.29649
20.451123
20.272939
19.366101
16.403741
24.579409
23.931966
23.331188
22.611813
21.963896
21.267437
20.497536
19.753424
19.025666
18.287889
17.770553
17.693786
17.639463
17.592908
17.604647
18.223175
18.917927
19.53076
20.031054
20.383372
20.52222
20.272554
19.208
16.313381
23.592101
23.077644
22.582574
21.981387
21.447289
20.852688
20.195378
19.624019
19.203213
18.721094
18.263354
18.232603
18.265341
18.298198
18.359812
18.940459
19.730683
20.418988
20.965713
21.328533
21.423647
21.0392
19.684795
16.387397
23.321435
22.908274
22.514162
22.011355
21.572166
21.074168
20.656166
20.467575
20.196958
19.843402
19.431468
19.356473
19.482724
19.591441
19.68723
20.212005
21.118451
21.891248
22.480372
22.834971
22.852292
22.281707
20.548009
16.576088
23.769868
23.427718
23.111569
22.688201
22.3358
21.947325
21.996128
22.041711
21.956911
21.732751
21.381999
21.228879
21.464477
21.653801
21.776139
22.236666
23.300933
24.17839
24.811185
25.136928
25.033032
24.206659
21.953942
16.925362
25.8328
25.51958
25.254188
24.83594
24.517652
24.405518
24.861581
25.221684
25.370599
25.286555
24.977152
24.71456
25.112935
25.396882
25.52637
25.91316
27.249015
28.311985
29.031152
29.332603
29.071981
27.875435
24.785256
17.692211
32.909031
32.474973
32.153757
31.556887
31.133774
31.286646
32.129071
32.98868
33.475614
33.558654
33.255813
32.83036
33.526698
33.956161
34.064674
34.37724
36.2841
37.771778
38.761993
39.162437
38.784193
37.118567
32.696287
20.661937
27.330243
26.546697
25.760778
24.786432
23.904818
22.978287
21.979155
21.062827
20.126388
19.169369
18.676178
18.430053
18.214908
18.01764
17.916428
18.507924
19.107982
19.697486
20.160948
20.483521
20.621436
20.397378
19.438842
16.422892
19.4242
19.06142
18.697232
18.256359
17.850513
17.414739
16.94939
16.488975
16.026953
15.593881
15.359686
15.259156
15.225589
15.265244
15.411694
15.831305
16.245871
16.627273
16.958195
17.21689
17.368093
17.322327
16.850451
15.511084
17.180488
16.944013
16.705424
16.416108
16.144735
15.857136
15.546991
15.235676
14.952139
14.70307
14.54411
14.505034
14.532855
14.640846
14.844951
15.227686
15.629192
16.020232
16.379873
16.678852
16.870143
16.850927
16.429698
15.361267
16.632464
16.424401
16.214783
15.97554
15.750054
15.509724
15.252116
15.009185
14.818786
14.660085
14.532967
14.53351
14.607954
14.750028
14.966436
15.342263
15.773087
16.190742
16.569463
16.876116
17.054879
16.986921
16.470543
15.341539
16.561538
16.39414
16.226237
16.029366
15.843063
15.642701
15.453834
15.325251
15.194771
15.062329
14.933157
14.913528
15.005961
15.161725
15.37756
15.746716
16.226833
16.678117
17.069325
17.363373
17.495962
17.33302
16.655525
15.355953
16.947189
16.818584
16.693762
16.540938
16.401721
16.253483
16.221821
16.166606
16.083109
15.965282
15.816633
15.749597
15.866226
16.03661
16.246664
16.60742
17.172889
17.674237
18.075212
18.333287
18.374627
18.043853
17.078499
15.412698
18.794466
18.681427
18.570771
18.395362
18.258607
18.23382
18.345027
18.408482
18.396292
18.289544
18.089515
17.93668
18.121045
18.317007
18.502366
18.859648
19.630582
20.269496
20.728455
20.953537
20.847684
20.189776
18.549505
15.696867
25.712408
25.453169
25.242253
24.835203
24.513654
24.365544
24.774355
25.159426
25.343615
25.293569
25.014348
24.75304
25.158935
25.437058
25.55402
25.928502
27.267393
28.333148
29.0566
29.362339
29.099794
27.893508
24.791921
17.693898
24.654894
24.065808
23.50293
22.778981
22.090974
21.366664
20.577807
19.8472
19.112095
18.351008
17.793467
17.685638
17.664534
17.669866
17.726675
18.353789
19.108122
19.754918
20.267658
20.619034
20.738433
20.442622
19.309474
16.33876
17.215298
16.99414
16.764568
16.471579
16.186684
15.894883
15.583952
15.267364
14.973548
14.71391
14.551139
14.518074
14.557057
14.667403
14.887061
15.279666
15.709835
16.117955
16.483887
16.782391
16.965198
16.923468
16.468214
15.368463
15.104925
14.949529
14.788111
14.615576
14.45309
14.296008
14.136275
13.985761
13.863978
13.781101
13.753804
13.795447
13.895545
14.061185
14.301195
14.627019
14.977082
15.331636
15.675942
15.9843
16.208053
16.254876
15.975976
15.231814
14.596198
14.439798
14.291833
14.14893
14.020189
13.897717
13.782454
13.687159
13.624802
13.604264
13.617677
13.685379
13.810632
13.997536
14.248792
14.571973
14.926932
15.293695
15.653307
15.975085
16.206765
16.249511
15.955034
15.216611
14.570492
14.433886
14.304881
14.181748
14.070981
13.967505
13.880851
13.822346
13.785102
13.769422
13.775917
13.829242
13.951612
14.138963
14.387397
14.710565
15.082993
15.461295
15.823794
16.138761
16.35026
16.35445
16.002374
15.218636
14.989571
14.87645
14.76912
14.664789
14.57095
14.481453
14.433547
14.386259
14.341913
14.297066
14.255501
14.265446
14.373682
14.549058
14.782934
15.109609
15.52438
15.924297
16.284819
16.572323
16.727765
16.641101
16.155001
15.236949
16.850528
16.732455
16.618638
16.455605
16.310938
16.201011
16.188302
16.154091
16.086255
15.975307
15.828598
15.757611
15.871153
16.030995
16.228717
16.581859
17.150243
17.653029
18.057705
18.32153
18.367338
18.039575
17.078198
15.414693
23.589072
23.306075
23.051292
22.629612
22.264401
21.81497
21.867686
21.959257
21.925037
21.746209
21.432995
21.285013
21.530455
21.709879
21.814372
22.260248
23.334627
24.220053
24.864213
25.19899
25.092254
24.249096
21.974049
16.930288
23.679664
23.234559
22.785271
22.189547
21.610031
20.989587
20.309848
19.70336
19.281024
18.774171
18.289643
18.257369
18.319751
18.392641
18.492211
19.080784
19.93567
20.660504
21.220785
21.581339
21.653596
21.21809
19.791896
16.414238
16.670521
16.481594
16.285222
16.044588
15.798855
15.55488
15.295453
15.03694
14.821158
14.652463
14.530936
14.548686
14.642324
14.799815
15.030799
15.419791
15.88833
16.326037
16.709928
17.013635
17.179107
17.080577
16.520706
15.351572
14.597697
14.446732
14.303688
14.159422
14.021336
13.900371
13.784793
13.684178
13.612353
13.584111
13.606773
13.690307
13.824167
14.015805
14.274175
14.606808
14.97745
15.350941
15.709899
16.027629
16.252371
16.282618
15.971959
15.220173
14.087044
13.925344
13.778763
13.649385
13.538777
13.445736
13.370475
13.321297
13.307289
13.331744
13.394222
13.501347
13.655985
13.86397
14.129634
14.450906
14.805288
15.175199
15.544442
15.883467
16.137396
16.2025
15.926766
15.209287
14.096038
13.943738
13.805171
13.68418
13.580691
13.491508
13.426475
13.388501
13.381634
13.404314
13.455637
13.549929
13.701419
13.910831
14.175172
14.49447
14.849888
15.22059
15.589588
15.927107
16.176001
16.231314
15.940466
15.210664
14.575887
14.443144
14.317029
14.199967
14.092646
13.995841
13.915501
13.858836
13.819231
13.792983
13.783736
13.831269
13.954653
14.143902
14.392648
14.71756
15.093102
15.47122
15.833095
16.148841
16.361351
16.365595
16.010805
15.221339
16.488464
16.331664
16.179247
15.979699
15.787223
15.616382
15.466443
15.358818
15.239604
15.102295
14.958996
14.929577
15.019974
15.168902
15.375705
15.742219
16.230156
16.684377
17.080016
17.380841
17.517085
17.352393
16.668751
15.360209
23.138677
22.769892
22.420912
21.918356
21.472739
20.925589
20.529768
20.390327
20.172217
19.860193
19.475431
19.403562
19.541955
19.645881
19.728199
20.243066
21.165583
21.950433
22.555541
22.92335
22.938445
22.346735
20.58129
16.583953
23.414487
23.077442
22.73567
22.24282
21.755603
21.233783
20.756195
20.520092
20.260161
19.896257
19.483154
19.395229
19.545652
19.686888
19.820209
20.350626
21.32533
22.136373
22.738724
23.087304
23.076831
22.451536
20.647306
16.601698
16.587911
16.442436
16.289049
16.087626
15.875973
15.67268
15.481801
15.32565
15.176355
15.048131
14.938496
14.941893
15.054729
15.223991
15.45639
15.840953
16.365412
16.838108
17.231608
17.51744
17.631196
17.432833
16.708841
15.36718
14.557487
14.427104
14.302323
14.173623
14.047712
13.945534
13.861499
13.795066
13.749553
13.73498
13.762352
13.844823
13.982346
14.174845
14.432244
14.770183
15.164849
15.550645
15.909296
16.214693
16.413664
16.399595
16.025613
15.223846
14.082679
13.930356
13.791284
13.663754
13.551176
13.46124
13.397185
13.358748
13.352238
13.379769
13.446685
13.559192
13.719036
13.92929
14.197474
14.525555
14.891612
15.265625
15.632346
15.963393
16.20473
16.251098
15.95042
15.212748
14.123181
13.970629
13.83142
13.702218
13.584841
13.486629
13.411148
13.363275
13.347044
13.357816
13.401729
13.497258
13.650919
13.861981
14.129804
14.451854
14.806068
15.174355
15.542126
15.88127
16.136791
16.204609
15.929957
15.210631
14.636655
14.492428
14.356057
14.218549
14.085561
13.962403
13.854689
13.766785
13.701498
13.653591
13.635608
13.686232
13.80832
13.998406
14.252835
14.579395
14.93702
15.301724
15.658492
15.980582
16.214839
16.259967
15.964193
15.219848
16.604573
16.412472
16.225083
15.989326
15.754344
15.523698
15.305653
15.094386
14.906402
14.728218
14.568014
14.549448
14.618095
14.75671
14.97043
15.34869
15.788329
16.208354
16.590071
16.902773
17.085068
17.013678
16.48687
15.345782
23.42503
22.947033
22.492174
21.898197
21.36409
20.735284
20.109643
19.577386
19.199124
18.74662
18.291493
18.263716
18.307294
18.342103
18.398483
18.975209
19.784796
20.486902
21.050121
21.427214
21.521826
21.115958
19.725392
16.396736
23.887066
23.632172
23.384721
22.980083
22.572833
22.149332
22.105907
22.087255
22.008751
21.785812
21.45017
21.277154
21.528664
21.746533
21.909312
22.369048
23.50686
24.428109
25.075276
25.390974
25.254541
24.368594
22.045292
16.949383
16.973937
16.874256
16.769002
16.60993
16.436527
16.288448
16.224932
16.141415
16.053911
15.948842
15.831481
15.784923
15.918776
16.102798
16.335011
16.710229
17.328069
17.856572
18.260635
18.506685
18.523421
18.149989
17.133134
15.424084
14.972985
14.868191
14.769458
14.65708
14.544197
14.452935
14.397649
14.341054
14.290723
14.256063
14.246342
14.285976
14.409957
14.591923
14.8398
15.182809
15.62779
16.040279
16.397724
16.672113
16.809069
16.695865
16.18048
15.241921
14.556985
14.423392
14.298196
14.172404
14.052336
13.945813
13.865318
13.804875
13.765324
13.752584
13.773891
13.847677
13.98133
14.1723
14.428948
14.766162
15.15781
15.543865
15.904047
16.209351
16.407938
16.395268
16.023167
15.223462
14.630277
14.484887
14.346901
14.208669
14.068428
13.938536
13.826511
13.734834
13.667701
13.633788
13.633819
13.696637
13.821452
14.010663
14.268973
14.600194
14.966149
15.337519
15.695701
16.012975
16.239321
16.274742
15.96942
15.220598
15.140896
14.992664
14.838292
14.679398
14.516959
14.355965
14.20707
14.07421
13.95759
13.854191
13.790841
13.804585
13.892056
14.055014
14.295687
14.622483
14.969425
15.318762
15.656223
15.964516
16.193549
16.246303
15.974145
15.232815
17.157707
16.926185
16.703609
16.429673
16.157769
15.874066
15.60165
15.332966
15.065486
14.797409
14.599952
14.52932
14.54047
14.640787
14.844764
15.232119
15.639212
16.029481
16.388182
16.689553
16.882719
16.861052
16.433982
15.362155
24.424256
23.793088
23.210368
22.504908
21.879523
21.163232
20.38951
19.731544
19.051526
18.338752
17.80194
17.704046
17.660778
17.622235
17.634975
18.253467
18.967482
19.592469
20.104587
20.467756
20.605865
20.336376
19.238252
16.319162
25.988312
25.76036
25.56683
25.196843
24.857254
24.719345
25.021398
25.262056
25.411482
25.336913
25.051217
24.753969
25.161869
25.479546
25.657708
26.026885
27.445862
28.563904
29.303866
29.5982
29.301395
28.038303
24.874469
17.715537
18.840827
18.748702
18.660555
18.498667
18.338522
18.25935
18.327732
18.373353
18.361812
18.272279
18.109454
17.968464
18.164321
18.381027
18.599221
18.960666
19.797293
20.475764
20.944103
21.155549
21.016514
20.304366
18.605772
15.708301
16.849353
16.727545
16.614124
16.460904
16.311924
16.167821
16.140233
16.095815
16.026653
15.933303
15.823803
15.778592
15.905007
16.077604
16.298599
16.665704
17.275099
17.802619
18.210003
18.457363
18.474606
18.107101
17.107616
15.420112
16.477768
16.306605
16.141959
15.947171
15.764683
15.564011
15.411314
15.296827
15.176683
15.057641
14.951822
14.950681
15.051553
15.20691
15.427894
15.805432
16.319486
16.792379
17.191524
17.478713
17.591133
17.396566
16.686761
15.363494
16.597179
16.38781
16.182544
15.947496
15.728014
15.484477
15.25908
15.042514
14.861954
14.698027
14.569491
14.570675
14.644095
14.784582
15.004989
15.387119
15.843551
16.279114
16.666281
16.970393
17.135105
17.041903
16.497244
15.347678
17.150093
16.902228
16.658835
16.382661
16.128991
15.846734
15.572005
15.302141
15.03451
14.775882
14.597342
14.539184
14.555052
14.655244
14.863007
15.248767
15.665687
16.066185
16.429296
16.72577
16.9086
16.874232
16.437758
15.36282
19.33682
18.943426
18.561857
18.135255
17.753647
17.35198
16.944897
16.531029
16.10644
15.677654
15.426824
15.295904
15.235668
15.255988
15.390795
15.808376
16.216199
16.591452
16.918307
17.175361
17.323762
17.28063
16.819758
15.502674
27.126561
26.274648
25.452465
24.480766
23.67361
22.761991
21.789312
20.959154
20.081828
19.175545
18.709561
18.45346
18.209996
17.974254
17.830246
18.428447
18.994379
19.555689
20.017017
20.346161
20.496728
20.294506
19.359113
16.398015
33.098268
32.721505
32.451107
31.922272
31.507813
31.740072
32.441522
33.026711
33.510457
33.602017
33.31587
32.83246
33.537318
34.009635
34.180984
34.446223
36.449711
38.005275
39.026659
39.424913
39.009188
37.27466
32.780969
20.687066
25.813324
25.548551
25.333159
24.956657
24.665962
24.547352
24.808217
25.149963
25.330542
25.291196
25.034642
24.759522
25.16912
25.478404
25.645522
26.008278
27.422456
28.541528
29.282913
29.575062
29.272176
28.003634
24.843713
17.707231
23.640813
23.325315
23.039822
22.63522
22.290896
21.881258
21.853735
21.933026
21.894567
21.726298
21.435682
21.291904
21.542858
21.742579
21.885648
22.335446
23.463564
24.388248
25.042867
25.356407
25.210823
24.317126
22.001377
16.937453
23.169358
22.756097
22.361587
21.866109
21.449052
20.953455
20.50407
20.360082
20.137067
19.836542
19.477562
19.420238
19.562486
19.678591
19.786456
20.305394
21.266267
22.081969
22.695851
23.045452
23.02626
22.393564
20.597961
16.58821
23.439074
22.913267
22.406928
21.810834
21.309382
20.726118
20.068573
19.556269
19.173901
18.733042
18.310512
18.294485
18.336319
18.374992
18.444454
19.02088
19.857207
20.584134
21.155511
21.51846
21.584093
21.144512
19.731368
16.397647
24.423957
23.744586
23.116984
22.399786
21.801828
21.125461
20.355279
19.69171
19.014035
18.312586
17.824977
17.748245
17.694206
17.64994
17.669201
18.284435
19.015717
19.657591
20.175244
20.52696
20.641613
20.346112
19.23259
16.316922
27.131833
26.251284
25.400215
24.419018
23.622003
22.746775
21.788839
20.926113
20.052263
19.151023
18.716608
18.471002
18.227562
17.99176
17.85387
18.447921
19.019684
19.588319
20.05372
20.376717
20.513496
20.29258
19.349092
16.394511
35.638951
34.064704
32.647106
31.028879
29.702794
28.258572
26.658203
25.260401
23.917256
22.529139
22.101727
21.742225
21.290137
20.743423
20.309331
21.042249
21.665495
22.152577
22.477991
22.621894
22.545814
22.116857
20.980017
16.946918
28.33609
36.374673
37.910924
38.517505
38.578479
38.28092
37.648227
36.687066
35.408278
33.862299
35.66937
37.343223
38.484415
39.19548
39.734203
42.494168
45.100256
47.643875
50.516046
53.116417
55.562611
58.109365
60.168392
62.291593
25.159362
34.09473
35.333514
35.281454
34.638178
34.136555
33.449594
32.456059
31.184468
29.826821
31.315482
32.488212
33.314691
33.839378
34.73139
36.909924
38.956341
40.891403
43.141819
45.19925
47.135898
49.207432
50.919347
52.665798
25.433475
34.698733
36.515069
36.757849
36.305252
35.42251
34.212167
32.72594
31.003555
29.674351
30.407616
30.876798
31.296283
31.584291
32.797812
34.563661
36.216727
37.748056
39.550689
41.210129
42.733236
44.43683
45.82744
47.229136
26.433847
36.746117
39.036504
39.512211
39.165239
38.306916
37.064647
35.502279
33.671847
32.650958
33.066381
33.213567
33.060933
32.77545
33.752987
34.717194
35.582076
36.780093
38.174127
39.559586
40.790917
42.215131
43.353719
44.497699
28.176086
40.01375
42.795481
43.485995
43.20456
42.315555
40.976711
39.26473
37.247411
36.469071
36.662708
36.565264
36.170129
36.068382
36.846332
37.441899
37.808044
37.944208
38.623738
39.799007
40.825778
42.029163
42.944638
43.868374
30.960005
44.81473
48.11786
49.020087
48.794035
47.836499
46.341822
44.408571
42.120032
41.521161
41.551963
41.252687
40.640828
40.765874
41.361662
41.681525
41.692465
41.386614
41.151588
41.989575
42.884302
43.927308
44.654353
45.397131
35.478854
51.962133
55.762248
56.829294
56.621954
55.589469
53.906691
51.66163
48.979074
48.505579
48.413311
47.937522
47.110174
47.458776
47.950492
48.064544
47.767835
47.05207
46.511194
46.661379
47.533289
48.504502
49.097822
49.728465
44.238531
63.140373
67.167064
68.260414
67.969051
66.753951
64.789277
62.162323
58.95327
58.579814
58.389775
57.751259
56.699759
57.35428
57.857721
57.874761
57.365102
56.424655
55.490352
55.104818
56.150222
57.242066
57.870998
58.557391
321.02124
225.26191
205.12682
195.64234
189.11982
183.28965
177.44829
171.42761
165.26598
159.08736
154.32911
151.12734
149.1084
148.15925
148.14862
147.20086
146.26816
145.3053
144.25278
143.19973
142.11166
141.00094
139.96768
138.96629
269.49665
200.30921
184.09096
175.84755
169.88186
164.46173
159.05536
153.55301
148.00243
142.51683
138.2915
135.3507
133.43721
132.45655
132.07028
131.15072
130.3127
129.5131
128.68709
127.90601
127.13042
126.35589
125.61936
124.92128
237.50853
184.53105
170.83762
163.33107
157.62576
152.37276
147.16473
141.9278
136.71089
131.66413
127.75874
125.00362
123.19302
122.24762
121.5474
120.66886
119.91478
119.25492
118.62206
118.06714
117.56925
117.11564
116.7197
116.38793
218.81885
175.35536
163.26409
156.19197
150.59117
145.38535
140.25671
135.15566
130.13487
125.36938
121.71453
119.15013
117.50448
116.70986
115.82927
115.07809
114.4798
113.9993
113.58188
113.25123
113.00138
112.81203
112.73627
112.74014
210.67353
171.98865
160.73146
153.86251
148.22488
142.94475
137.77777
132.69053
127.73873
123.12011
119.67236
117.31622
115.89794
115.14766
114.38132
113.83256
113.45608
113.20629
113.0299
112.94388
112.94621
113.00696
113.17223
113.4054
212.57786
174.43485
163.19454
156.26126
150.50331
145.07616
139.76641
134.56981
129.5578
124.96273
121.67926
119.55152
118.43263
117.76592
117.24196
116.96186
116.86352
116.89219
116.98271
117.15418
117.39313
117.66868
118.02586
118.43511
226.04758
183.59573
171.44644
164.10216
158.09246
152.45045
146.91073
141.47874
136.25837
131.55355
128.37779
126.48341
125.72153
125.2131
124.99108
125.03229
125.25741
125.59671
125.94654
126.3701
126.82974
127.27867
127.77831
128.31164
255.61009
202.17797
187.90333
179.69358
173.11264
167.0041
161.02431
155.13099
149.4179
144.33123
141.07877
139.3064
138.81033
138.52042
138.57587
138.90383
139.40964
140.00278
140.57547
141.18983
141.79174
142.33652
142.91271
143.50733
44.243214
63.148849
67.17909
68.275821
67.985912
66.769938
64.80467
62.178707
58.969891
58.604337
58.417253
57.776297
56.71845
57.408813
57.906137
57.901464
57.353739
56.460962
55.482016
55.083016
56.146019
57.254728
57.892418
58.591824
35.484974
51.982636
55.798724
56.878756
56.677521
55.643352
53.958115
51.708246
49.020136
48.551625
48.457576
47.970221
47.123185
47.50433
47.972386
48.05159
47.71063
47.088665
46.5201
46.635709
47.517767
48.490336
49.105279
49.763811
30.970214
44.843941
48.171732
49.092634
48.876426
47.917287
46.410854
44.467194
42.166645
41.575919
41.606411
41.295948
40.663011
40.81853
41.384232
41.659996
41.616043
41.292346
41.168944
41.998194
42.905865
43.950597
44.684475
45.436923
28.189977
40.054132
42.866155
43.576104
43.300501
42.403164
41.049314
39.323873
37.291368
36.521892
36.713431
36.60404
36.191767
36.121196
36.873273
37.421588
37.726273
37.808115
38.625781
39.800438
40.846442
42.05914
42.976249
43.898746
26.450115
36.79274
39.11229
39.602663
39.255822
38.387066
37.130215
35.553455
33.706607
32.697839
33.110296
33.248005
33.089046
32.815208
33.799825
34.717819
35.516706
36.661335
38.169976
39.557632
40.800097
42.226664
43.362498
44.503518
25.445436
34.734536
36.574922
36.826648
36.371043
35.479152
34.258884
32.761409
31.024454
29.709787
30.441224
30.905679
31.32993
31.639418
32.866162
34.58878
36.177689
37.673297
39.537062
41.192715
42.715062
44.417187
45.819581
47.228252
25.155813
34.095238
35.351229
35.306241
34.661426
34.119971
33.432817
32.449766
31.17674
29.838659
31.335657
32.515182
33.360718
33.91463
34.803967
36.944431
38.938175
40.840506
43.08518
45.137998
47.08598
49.181631
50.91911
52.689764
28.309224
36.317351
37.862019
38.474979
38.531762
38.22564
37.592335
36.638685
35.370906
33.835249
35.676224
37.388618
38.566786
39.309323
39.839734
42.561436
45.115015
47.585332
50.447503
53.046105
55.515453
58.09048
60.171713
62.323679
255.60552
202.16856
187.89472
179.69188
173.11988
167.01773
161.0432
155.15484
149.44535
144.35985
141.10474
139.32736
138.82529
138.53408
138.58838
138.91281
139.42257
140.0252
140.61574
141.23999
141.84073
142.3795
142.94535
143.52211
226.03655
183.58065
171.43471
164.1036
158.11512
152.4909
146.96319
141.53921
136.32426
131.62063
128.44055
126.53576
125.76085
125.24998
125.02471
125.06102
125.29863
125.66206
126.05187
126.50283
126.96531
127.39791
127.87198
128.36239
212.56536
174.41895
163.18548
156.26889
150.54365
145.14349
139.84726
134.65698
129.64895
125.05371
121.76339
119.62255
118.48701
117.80827
117.27959
116.99936
116.92443
117.00105
117.12561
117.32701
117.56919
117.81953
118.13274
118.47958
210.66247
171.98389
160.74064
153.88959
148.28389
143.03047
137.87469
132.79203
127.84147
123.21721
119.75361
117.37514
115.93128
115.15206
114.37745
113.84168
113.50998
113.32295
113.18044
113.12232
113.12963
113.1668
113.2788
113.43362
218.81621
175.36483
163.29516
156.23908
150.65774
145.46925
140.34978
135.25211
130.23011
125.4532
121.76835
119.16209
117.47479
116.64133
115.75143
115.03051
114.49768
114.08824
113.70776
113.40472
113.16354
112.95866
112.84741
112.77574
237.5197
184.55393
170.88283
163.38467
157.68386
152.43639
147.23054
141.99412
136.7763
131.71589
127.76903
124.95472
123.0858
122.09588
121.38883
120.554
119.87906
119.29436
118.70272
118.18414
117.71069
117.25612
116.84004
116.43386
269.54736
200.3815
184.17135
175.91663
169.93072
164.49164
159.07258
153.5665
148.01733
142.52506
138.25443
135.24019
133.25321
132.2242
131.83333
130.95635
130.19834
129.47662
128.70281
127.96778
127.23586
126.46265
125.69665
124.93148
321.1511
225.42296
205.25763
195.72653
189.15137
183.26995
177.39324
171.35841
165.20069
159.02615
154.23764
150.96851
148.87584
147.88227
147.87466
146.95708
146.09947
145.22136
144.22421
143.21866
142.17693
141.0577
139.97746
138.91632
28.297232
36.284027
37.837507
38.461088
38.52443
38.226361
37.59728
36.643986
35.378504
33.849745
35.693518
37.417676
38.592606
39.327915
39.78943
42.500912
45.04841
47.523739
50.396493
53.001515
55.486861
58.066939
60.150145
62.309355
25.137853
34.052892
35.324898
35.29966
34.667254
34.124028
33.434935
32.453182
31.180156
29.8435
31.347944
32.538165
33.393966
33.941719
34.752138
36.885842
38.87814
40.793749
43.04844
45.099189
47.047815
49.144679
50.884241
52.656052
25.427713
34.699843
36.55927
36.834937
36.395826
35.506677
34.276729
32.767135
31.022494
29.713004
30.451751
30.924739
31.356223
31.664513
32.832092
34.554771
36.150871
37.65627
39.485801
41.137355
42.673745
44.380381
45.787668
47.203619
26.438729
36.779758
39.118644
39.63508
39.305566
38.439246
37.168143
35.5697
33.707334
32.706442
33.113509
33.250725
33.096665
32.822323
33.767043
34.684002
35.4879
36.632985
38.139285
39.52317
40.771026
42.20383
43.350526
44.497687
28.186811
40.056303
42.893362
43.633951
43.378833
42.48737
41.115149
39.359732
37.299304
36.539603
36.709808
36.59054
36.178078
36.09471
36.82877
37.36986
37.680918
37.77208
38.603721
39.777894
40.83318
42.049252
42.977033
43.906508
30.972938
44.855589
48.215637
49.175028
48.98459
48.042851
46.512146
44.525557
42.181225
41.607288
41.603084
41.274781
40.637448
40.797233
41.342421
41.603896
41.561185
41.303277
41.158797
41.977043
42.900003
43.950734
44.689493
45.444738
35.497426
52.01733
55.879365
57.007415
56.832682
55.80049
54.090662
51.788291
49.036341
48.602124
48.461102
47.946396
47.090033
47.497393
47.943327
48.007252
47.665156
47.138092
46.538343
46.646434
47.540105
48.514072
49.124057
49.774236
44.262449
63.211836
67.301784
68.454549
68.191794
66.970272
64.972781
62.288616
58.997575
58.677778
58.424431
57.741625
56.663254
57.407283
57.880891
57.860485
57.309979
56.536053
55.546599
55.124667
56.165252
57.248175
57.875164
58.574213
321.20856
225.50472
205.33724
195.79617
189.20899
183.30943
177.4098
171.3512
165.17586
158.99413
154.20933
150.94858
148.87196
147.90153
147.91991
147.01224
146.16083
145.29225
144.30476
143.30535
142.25369
141.12326
140.0254
138.95233
269.65329
200.53856
184.33289
176.06252
170.04936
164.5691
159.10377
153.5511
147.9701
142.46323
138.19382
135.19004
133.2324
132.24994
131.90323
131.03884
130.29092
129.5926
128.84812
128.1287
127.38227
126.58714
125.79349
125.01412
237.62693
184.72343
171.06932
163.56081
157.82783
152.53087
147.27052
141.9812
136.72624
131.64646
127.69506
124.88606
123.04343
122.10204
121.43647
120.61732
119.95753
119.39687
118.84035
118.34207
117.86516
117.39285
116.95403
116.5363
218.89474
175.50841
163.4687
156.41424
150.80535
145.57162
140.39977
135.25275
130.19595
125.39513
121.69693
119.09068
117.42293
116.62879
115.77371
115.0779
114.56378
114.17408
113.81223
113.52479
113.28584
113.07284
112.95784
112.88491
210.70867
172.08182
160.87544
154.03559
148.42099
143.13861
137.94397
132.82351
127.83966
123.18317
119.69784
117.31412
115.88397
115.13636
114.39727
113.89454
113.58281
113.40467
113.26597
113.21509
113.22153
113.25822
113.37963
113.54262
212.58605
174.47478
163.28148
156.38836
150.67309
145.26971
139.95234
134.73558
129.69674
125.05541
121.73054
119.58038
118.45787
117.81178
117.3262
117.08387
117.0263
117.09491
117.21435
117.41081
117.64715
117.9029
118.23168
118.58863
226.03329
183.6049
171.5076
164.21978
158.25425
152.64525
147.11926
141.68193
136.43685
131.66497
128.43168
126.50946
125.75275
125.29492
125.12842
125.20549
125.45769
125.80605
126.18511
126.62055
127.07067
127.51293
128.00822
128.50659
255.57605
202.15929
187.94166
179.80131
173.27611
167.20798
161.26314
155.38096
149.64459
144.45561
141.11665
139.30471
138.82521
138.61554
138.74633
139.11275
139.63487
140.22127
140.8017
141.40632
141.99274
142.54369
143.13329
143.71539
44.27121
63.231592
67.324201
68.476798
68.215093
66.996398
65.00069
62.311336
59.024068
58.701586
58.438182
57.740746
56.651275
57.402195
57.88344
57.871454
57.327967
56.51833
55.543421
55.132995
56.158621
57.24017
57.862458
58.55512
35.513573
52.058819
55.922804
57.045163
56.867601
55.837998
54.134756
51.844612
49.09395
48.646445
48.486675
47.952531
47.087346
47.51382
47.990115
48.086474
47.766545
47.162618
46.557904
46.657932
47.51476
48.470976
49.064753
49.698296
30.995639
44.908774
48.271648
49.224518
49.031274
48.089563
46.576898
44.606042
42.260017
41.667755
41.638253
41.287354
40.644011
40.831921
41.422578
41.733034
41.72249
41.371183
41.210953
42.017605
42.901987
43.922185
44.628636
45.35408
28.213131
40.118143
42.959392
43.694329
43.43841
42.555761
41.202903
39.459899
37.391443
36.613355
36.752926
36.608857
36.190389
36.143369
36.930297
37.523695
37.869826
37.95416
38.675337
39.835128
40.859666
42.043163
42.93092
43.823723
26.469519
36.85498
39.201027
39.712602
39.383148
38.527541
37.274151
35.682922
33.804507
32.789432
33.15976
33.266585
33.100162
32.839549
33.856171
34.824066
35.666302
36.819093
38.229048
39.61251
40.836577
42.243669
43.357078
44.473531
25.465725
34.791071
36.6602
36.92989
36.489377
35.607931
34.388614
32.87756
31.11101
29.794346
30.488499
30.923693
31.34951
31.655848
32.906484
34.675182
36.310329
37.816596
39.609536
41.272847
42.785573
44.471592
45.852609
47.24134
25.182123
34.15682
35.434685
35.400063
34.765094
34.216281
33.529761
32.54202
31.250322
29.921544
31.380934
32.528201
33.352093
33.897778
34.834731
37.021302
39.061702
40.959091
43.202134
45.247337
47.168072
49.231193
50.950407
52.702897
28.339542
36.392436
37.945776
38.553901
38.610613
38.312337
37.683103
36.71485
35.422595
33.873596
35.697195
37.372
38.546523
39.266881
39.834869
42.601939
45.203004
47.71559
50.56462
53.145282
55.586128
58.14528
60.208475
62.33542
255.57258
202.15139
187.93642
179.79841
173.27676
167.21524
161.27614
155.40328
149.67154
144.4788
141.13163
139.30867
138.81706
138.59567
138.71016
139.05693
139.5603
140.13484
140.70767
141.31274
141.90952
142.47194
143.06929
143.66472
226.01968
183.57718
171.476
164.18731
158.22853
152.63354
147.13706
141.72936
136.49611
131.71902
128.46886
126.52449
125.74661
125.26995
125.07453
125.11357
125.32597
125.64836
126.00575
126.43347
126.89063
127.34049
127.83979
128.35456
212.56102
174.41996
163.21412
156.32322
150.62112
145.24354
139.97688
134.80526
129.78541
125.13668
121.78692
119.60749
118.4614
117.79631
117.28349
116.99769
116.88718
116.91653