/*--------------------------------*- C++ -*----------------------------------*\
| =========                 |                                                 |
| \\      /  F ield         | foam-extend: Open Source CFD                    |
|  \\    /   O peration     | Version:     4.1-20200408                       |
|   \\  /    A nd           | Web:         http://www.foam-extend.org         |
|    \\/     M anipulation  |                                                 |
\*---------------------------------------------------------------------------*/
FoamFile
{
    version     2.0;
    format      ascii;
    class       volScalarField;
    location    "0.0400000";
    object      ccx;
}
// * * * * * * * * * * * * * * * * * * * * * * * * * * * * * * * * * * * * * //

dimensions      [0 1 0 0 0 0 0];

internalField   nonuniform List<scalar> 
1952
(
0.00293864
0.00293856
0.00293843
0.00293826
0.00293806
0.00293783
0.00293757
0.00293728
0.00293698
0.00293667
0.00293637
0.0029361
0.00293587
0.00293571
0.00293561
0.00293869
0.00285219
0.00285203
0.00285177
0.00285144
0.00285103
0.00285056
0.00285003
0.00284946
0.00284886
0.00284825
0.00284765
0.00284711
0.00284665
0.00284632
0.00284611
0.00285228
0.00280201
0.00280184
0.00280158
0.00280125
0.00280085
0.00280037
0.00279984
0.00279927
0.00279866
0.00279805
0.00279746
0.00279692
0.00279646
0.00279612
0.00279592
0.0028021
0.00275182
0.00275165
0.0027514
0.00275106
0.00275066
0.00275018
0.00274965
0.00274908
0.00274847
0.00274786
0.00274726
0.00274672
0.00274627
0.00274593
0.00274572
0.00275191
0.00270164
0.00270147
0.00270121
0.00270088
0.00270047
0.0027
0.00269947
0.00269889
0.00269828
0.00269767
0.00269707
0.00269653
0.00269607
0.00269574
0.00269553
0.00270173
0.00265145
0.00265128
0.00265103
0.00265069
0.00265029
0.00264981
0.00264928
0.0026487
0.00264809
0.00264748
0.00264688
0.00264634
0.00264588
0.00264554
0.00264534
0.00265154
0.00260127
0.0026011
0.00260084
0.00260051
0.0026001
0.00259962
0.00259909
0.00259851
0.0025979
0.00259729
0.00259669
0.00259614
0.00259569
0.00259535
0.00259514
0.00260136
0.00255108
0.00255091
0.00255066
0.00255032
0.00254991
0.00254943
0.0025489
0.00254832
0.00254771
0.00254709
0.0025465
0.00254595
0.00254549
0.00254515
0.00254495
0.00255117
0.0025009
0.00250073
0.00250047
0.00250014
0.00249972
0.00249924
0.00249871
0.00249813
0.00249752
0.0024969
0.0024963
0.00249576
0.0024953
0.00249496
0.00249476
0.00250099
0.00245071
0.00245054
0.00245029
0.00244995
0.00244954
0.00244906
0.00244852
0.00244794
0.00244733
0.00244671
0.00244611
0.00244556
0.00244511
0.00244477
0.00244456
0.0024508
0.00240053
0.00240036
0.0024001
0.00239976
0.00239935
0.00239887
0.00239833
0.00239775
0.00239714
0.00239652
0.00239592
0.00239537
0.00239491
0.00239457
0.00239437
0.00240062
0.00235035
0.00235017
0.00234992
0.00234958
0.00234916
0.00234868
0.00234815
0.00234756
0.00234695
0.00234633
0.00234573
0.00234518
0.00234472
0.00234438
0.00234418
0.00235044
0.00230016
0.00229999
0.00229973
0.00229939
0.00229898
0.0022985
0.00229796
0.00229737
0.00229676
0.00229614
0.00229554
0.00229499
0.00229453
0.00229419
0.00229398
0.00230025
0.00224998
0.00224981
0.00224955
0.00224921
0.00224879
0.00224831
0.00224777
0.00224719
0.00224657
0.00224595
0.00224535
0.00224479
0.00224433
0.00224399
0.00224379
0.00225007
0.0021998
0.00219962
0.00219936
0.00219902
0.00219861
0.00219813
0.00219758
0.002197
0.00219638
0.00219576
0.00219516
0.0021946
0.00219414
0.0021938
0.0021936
0.00219989
0.00214962
0.00214944
0.00214918
0.00214884
0.00214843
0.00214794
0.0021474
0.00214681
0.00214619
0.00214557
0.00214497
0.00214441
0.00214395
0.00214361
0.0021434
0.00214971
0.00209943
0.00209926
0.002099
0.00209866
0.00209824
0.00209776
0.00209721
0.00209662
0.002096
0.00209538
0.00209478
0.00209422
0.00209376
0.00209342
0.00209321
0.00209952
0.00204925
0.00204908
0.00204881
0.00204847
0.00204806
0.00204757
0.00204702
0.00204643
0.00204581
0.00204519
0.00204459
0.00204403
0.00204356
0.00204322
0.00204302
0.00204934
0.00199907
0.00199889
0.00199863
0.00199829
0.00199787
0.00199738
0.00199684
0.00199625
0.00199562
0.001995
0.00199439
0.00199383
0.00199337
0.00199303
0.00199282
0.00199916
0.00194889
0.00194871
0.00194845
0.00194811
0.00194769
0.0019472
0.00194665
0.00194606
0.00194544
0.00194481
0.0019442
0.00194364
0.00194318
0.00194284
0.00194263
0.00194898
0.00189871
0.00189853
0.00189827
0.00189793
0.00189751
0.00189702
0.00189647
0.00189587
0.00189525
0.00189463
0.00189401
0.00189345
0.00189299
0.00189265
0.00189244
0.0018988
0.00184853
0.00184835
0.00184809
0.00184775
0.00184732
0.00184683
0.00184628
0.00184569
0.00184506
0.00184444
0.00184382
0.00184326
0.0018428
0.00184246
0.00184225
0.00184862
0.00179835
0.00179817
0.00179791
0.00179756
0.00179714
0.00179665
0.0017961
0.0017955
0.00179488
0.00179425
0.00179363
0.00179307
0.00179261
0.00179226
0.00179205
0.00179844
0.00174817
0.001748
0.00174773
0.00174738
0.00174696
0.00174647
0.00174591
0.00174532
0.00174469
0.00174406
0.00174344
0.00174288
0.00174241
0.00174207
0.00174186
0.00174826
0.001698
0.00169782
0.00169755
0.0016972
0.00169678
0.00169628
0.00169573
0.00169513
0.0016945
0.00169387
0.00169325
0.00169269
0.00169222
0.00169188
0.00169167
0.00169809
0.00164782
0.00164764
0.00164737
0.00164702
0.0016466
0.0016461
0.00164554
0.00164494
0.00164431
0.00164368
0.00164306
0.0016425
0.00164203
0.00164169
0.00164148
0.00164791
0.00159764
0.00159746
0.0015972
0.00159685
0.00159642
0.00159592
0.00159536
0.00159476
0.00159413
0.00159349
0.00159287
0.00159231
0.00159184
0.00159149
0.00159128
0.00159773
0.00154746
0.00154729
0.00154702
0.00154667
0.00154624
0.00154574
0.00154518
0.00154458
0.00154394
0.0015433
0.00154268
0.00154212
0.00154164
0.0015413
0.00154109
0.00154756
0.00149729
0.00149711
0.00149684
0.00149649
0.00149606
0.00149556
0.001495
0.00149439
0.00149376
0.00149311
0.00149249
0.00149193
0.00149145
0.00149111
0.0014909
0.00149738
0.00144711
0.00144693
0.00144666
0.00144631
0.00144588
0.00144538
0.00144482
0.00144421
0.00144357
0.00144293
0.0014423
0.00144173
0.00144126
0.00144091
0.0014407
0.00144721
0.00139694
0.00139676
0.00139649
0.00139614
0.0013957
0.0013952
0.00139464
0.00139403
0.00139338
0.00139274
0.00139212
0.00139154
0.00139106
0.00139072
0.00139051
0.00139704
0.00134677
0.00134659
0.00134632
0.00134596
0.00134553
0.00134502
0.00134446
0.00134384
0.0013432
0.00134255
0.00134193
0.00134135
0.00134087
0.00134052
0.00134031
0.00134687
0.0012966
0.00129641
0.00129614
0.00129579
0.00129535
0.00129484
0.00129427
0.00129366
0.00129302
0.00129237
0.00129174
0.00129116
0.00129068
0.00129033
0.00129011
0.0012967
0.00124643
0.00124624
0.00124597
0.00124562
0.00124518
0.00124467
0.00124409
0.00124348
0.00124283
0.00124218
0.00124155
0.00124097
0.00124048
0.00124013
0.00123991
0.00124653
0.00119626
0.00119608
0.0011958
0.00119544
0.001195
0.00119449
0.00119392
0.0011933
0.00119265
0.00119199
0.00119136
0.00119078
0.00119029
0.00118993
0.00118971
0.00119636
0.00114609
0.00114591
0.00114563
0.00114527
0.00114483
0.00114432
0.00114374
0.00114312
0.00114246
0.00114181
0.00114117
0.00114058
0.00114009
0.00113973
0.00113951
0.00114619
0.00109592
0.00109574
0.00109546
0.0010951
0.00109466
0.00109414
0.00109356
0.00109294
0.00109228
0.00109162
0.00109098
0.00109039
0.00108989
0.00108953
0.00108931
0.00109602
0.00104575
0.00104557
0.00104529
0.00104493
0.00104448
0.00104397
0.00104339
0.00104276
0.0010421
0.00104143
0.00104079
0.00104019
0.0010397
0.00103933
0.00103911
0.00104585
0.000995581
0.000995395
0.000995116
0.000994752
0.000994307
0.000993791
0.00099321
0.00099258
0.00099192
0.000991249
0.000990598
0.000990002
0.0009895
0.000989131
0.000988904
0.000995677
0.000945405
0.00094522
0.000944942
0.000944579
0.000944134
0.000943615
0.000943033
0.000942402
0.000941738
0.000941064
0.00094041
0.00093981
0.000939303
0.000938927
0.000938693
0.000945502
0.000895227
0.000895042
0.000894764
0.000894401
0.000893956
0.000893437
0.000892854
0.000892222
0.000891556
0.000890879
0.000890221
0.000889617
0.000889104
0.000888722
0.000888482
0.000895324
0.000845043
0.000844858
0.000844581
0.000844219
0.000843774
0.000843256
0.000842673
0.00084204
0.000841374
0.000840694
0.000840033
0.000839424
0.000838905
0.000838515
0.000838267
0.00084514
0.000794851
0.000794668
0.000794391
0.00079403
0.000793587
0.00079307
0.000792489
0.000791856
0.000791189
0.000790509
0.000789844
0.00078923
0.000788705
0.000788307
0.000788049
0.000794947
0.000744648
0.000744466
0.000744192
0.000743833
0.000743393
0.000742878
0.000742299
0.000741669
0.000741003
0.000740322
0.000739656
0.000739038
0.000738506
0.000738099
0.000737829
0.000744744
0.000694432
0.000694251
0.00069398
0.000693625
0.000693188
0.000692678
0.000692103
0.000691476
0.000690813
0.000690134
0.000689467
0.000688845
0.000688307
0.00068789
0.000687606
0.000694527
0.000644199
0.000644021
0.000643753
0.000643402
0.00064297
0.000642466
0.000641897
0.000641275
0.000640618
0.000639942
0.000639277
0.000638654
0.00063811
0.000637682
0.000637381
0.000644292
0.000593945
0.00059377
0.000593506
0.00059316
0.000592735
0.000592238
0.000591677
0.000591064
0.000590414
0.000589745
0.000589084
0.000588463
0.000587915
0.000587476
0.000587155
0.000594037
0.000543667
0.000543496
0.000543237
0.000542898
0.00054248
0.000541992
0.000541441
0.000540839
0.000540199
0.000539539
0.000538886
0.00053827
0.000537722
0.000537273
0.000536929
0.000543758
0.000493362
0.000493194
0.00049294
0.000492609
0.000492201
0.000491723
0.000491184
0.000490594
0.000489967
0.00048932
0.000488679
0.00048807
0.000487526
0.000487072
0.000486708
0.00049345
0.000443026
0.000442862
0.000442615
0.000442291
0.000441893
0.000441428
0.000440902
0.000440326
0.000439715
0.000439084
0.000438457
0.000437861
0.000437323
0.00043687
0.000436494
0.000443112
0.000392656
0.000392496
0.000392256
0.000391941
0.000391554
0.000391101
0.00039059
0.000390032
0.000389438
0.000388826
0.000388218
0.000387638
0.000387114
0.000386668
0.000386291
0.00039274
0.00034225
0.000342095
0.000341862
0.000341556
0.000341181
0.000340742
0.000340248
0.000339708
0.000339135
0.000338544
0.000337959
0.000337402
0.000336898
0.000336467
0.000336099
0.000342332
0.000291809
0.000291659
0.000291433
0.000291137
0.000290774
0.00029035
0.000289873
0.000289353
0.000288803
0.000288238
0.00028768
0.000287151
0.000286677
0.000286272
0.000285924
0.000291889
0.000241335
0.00024119
0.000240971
0.000240685
0.000240334
0.000239925
0.000239466
0.000238968
0.000238443
0.000237906
0.000237381
0.000236888
0.000236452
0.000236084
0.000235771
0.000241412
0.000190831
0.00019069
0.000190478
0.000190202
0.000189864
0.00018947
0.00018903
0.000188554
0.000188056
0.000187551
0.000187062
0.000186612
0.000186224
0.000185907
0.000185649
0.000190905
0.0001403
0.000140164
0.000139959
0.000139693
0.000139367
0.000138989
0.000138568
0.000138115
0.000137644
0.000137172
0.000136724
0.000136323
0.000135994
0.000135748
0.000135573
0.000140372
8.97498e-05
8.96187e-05
8.94211e-05
8.91641e-05
8.88507e-05
8.84883e-05
8.8086e-05
8.76563e-05
8.72143e-05
8.67787e-05
8.63742e-05
8.60297e-05
8.57713e-05
8.56185e-05
8.55597e-05
8.98193e-05
3.91893e-05
3.90631e-05
3.88733e-05
3.86268e-05
3.83269e-05
3.79815e-05
3.76e-05
3.71962e-05
3.67859e-05
3.639e-05
3.60357e-05
3.57549e-05
3.55799e-05
3.55382e-05
3.56242e-05
3.92563e-05
-1.13637e-05
-1.14838e-05
-1.16644e-05
-1.18987e-05
-1.2182e-05
-1.25072e-05
-1.28635e-05
-1.3237e-05
-1.36095e-05
-1.39593e-05
-1.42562e-05
-1.44651e-05
-1.45473e-05
-1.44676e-05
-1.42222e-05
-1.12997e-05
-6.18777e-05
-6.19904e-05
-6.21598e-05
-6.23784e-05
-6.26422e-05
-6.29421e-05
-6.32679e-05
-6.36042e-05
-6.39325e-05
-6.42288e-05
-6.44611e-05
-6.45912e-05
-6.45757e-05
-6.43727e-05
-6.39708e-05
-6.18174e-05
-0.000112315
-0.000112419
-0.000112575
-0.000112775
-0.000113015
-0.000113285
-0.000113575
-0.000113868
-0.000114146
-0.000114383
-0.000114545
-0.000114593
-0.00011448
-0.000114161
-0.000113621
-0.000112259
-0.000162637
-0.000162731
-0.000162871
-0.00016305
-0.000163263
-0.0001635
-0.000163749
-0.000163995
-0.000164218
-0.000164392
-0.000164483
-0.00016445
-0.000164247
-0.000163828
-0.000163174
-0.000162587
-0.000212809
-0.000212892
-0.000213015
-0.000213172
-0.000213355
-0.000213556
-0.000213763
-0.000213959
-0.000214126
-0.000214236
-0.000214258
-0.000214151
-0.000213871
-0.000213373
-0.000212638
-0.000212764
-0.000262805
-0.000262876
-0.000262981
-0.000263114
-0.000263266
-0.000263431
-0.000263594
-0.000263741
-0.000263852
-0.000263902
-0.000263861
-0.000263691
-0.000263349
-0.000262796
-0.000262013
-0.000262766
-0.000312609
-0.000312668
-0.000312754
-0.000312862
-0.000312984
-0.000313111
-0.000313232
-0.000313331
-0.00031339
-0.000313386
-0.000313291
-0.00031307
-0.000312685
-0.000312103
-0.000311305
-0.000312576
-0.000362219
-0.000362265
-0.000362332
-0.000362414
-0.000362505
-0.000362596
-0.000362676
-0.00036273
-0.000362741
-0.00036269
-0.000362551
-0.000362293
-0.000361886
-0.0003613
-0.00036052
-0.000362194
-0.000411641
-0.000411673
-0.000411721
-0.000411777
-0.000411836
-0.000411891
-0.000411931
-0.000411944
-0.000411912
-0.000411821
-0.000411648
-0.000411369
-0.000410959
-0.000410395
-0.000409662
-0.000411622
-0.000460885
-0.000460904
-0.000460931
-0.000460962
-0.000460991
-0.000461012
-0.000461014
-0.000460986
-0.000460917
-0.000460791
-0.000460594
-0.000460308
-0.000459913
-0.000459393
-0.000458732
-0.000460873
-0.000509966
-0.000509972
-0.000509981
-0.000509987
-0.000509988
-0.000509976
-0.000509943
-0.000509879
-0.000509775
-0.00050962
-0.000509407
-0.000509124
-0.000508759
-0.0005083
-0.000507731
-0.000509961
-0.000558899
-0.000558894
-0.000558886
-0.000558871
-0.000558845
-0.000558804
-0.000558739
-0.000558644
-0.000558511
-0.000558336
-0.000558114
-0.000557842
-0.000557514
-0.000557122
-0.000556651
-0.000558901
-0.000607697
-0.000607683
-0.000607661
-0.000607628
-0.000607581
-0.000607516
-0.000607426
-0.000607309
-0.000607161
-0.000606977
-0.000606757
-0.000606498
-0.000606202
-0.00060587
-0.000605489
-0.000607703
-0.00065638
-0.00065636
-0.00065633
-0.000656285
-0.000656225
-0.000656146
-0.000656043
-0.000655917
-0.000655764
-0.000655581
-0.000655368
-0.000655125
-0.000654855
-0.000654566
-0.000654251
-0.000656389
-0.00070499
-0.000704967
-0.000704932
-0.000704882
-0.000704815
-0.000704729
-0.000704623
-0.000704494
-0.000704342
-0.000704164
-0.000703962
-0.000703736
-0.000703491
-0.000703232
-0.000702963
-0.000705002
-0.00075356
-0.000753535
-0.000753496
-0.000753442
-0.000753372
-0.000753284
-0.000753177
-0.000753049
-0.000752901
-0.000752731
-0.000752541
-0.000752333
-0.000752112
-0.000751882
-0.000751647
-0.000753573
-0.000802098
-0.000802071
-0.00080203
-0.000801975
-0.000801904
-0.000801815
-0.000801709
-0.000801585
-0.000801443
-0.000801283
-0.000801107
-0.000800917
-0.000800718
-0.000800514
-0.000800311
-0.000802111
-0.000850609
-0.000850581
-0.00085054
-0.000850484
-0.000850414
-0.000850327
-0.000850224
-0.000850105
-0.000849971
-0.000849822
-0.00084966
-0.000849488
-0.000849311
-0.000849131
-0.000848955
-0.000850622
-0.000899098
-0.000899072
-0.000899031
-0.000898976
-0.000898907
-0.000898823
-0.000898725
-0.000898613
-0.000898488
-0.00089835
-0.000898203
-0.000898048
-0.00089789
-0.000897732
-0.000897579
-0.000899112
-0.000947572
-0.000947546
-0.000947506
-0.000947453
-0.000947387
-0.000947308
-0.000947215
-0.000947111
-0.000946995
-0.000946869
-0.000946736
-0.000946597
-0.000946456
-0.000946318
-0.000946185
-0.000947585
-0.000996033
-0.000996007
-0.00099597
-0.000995919
-0.000995858
-0.000995784
-0.000995697
-0.000995599
-0.000995493
-0.000995381
-0.00099526
-0.000995134
-0.000995011
-0.000994889
-0.000994772
-0.000996046
-0.00104448
-0.00104446
-0.00104443
-0.00104438
-0.00104432
-0.00104425
-0.00104417
-0.00104408
-0.00104398
-0.00104388
-0.00104377
-0.00104366
-0.00104355
-0.00104345
-0.00104334
-0.00104449
-0.00109293
-0.00109291
-0.00109287
-0.00109283
-0.00109278
-0.00109271
-0.00109263
-0.00109255
-0.00109247
-0.00109237
-0.00109228
-0.00109218
-0.00109208
-0.00109199
-0.0010919
-0.00109293
-0.00114136
-0.00114134
-0.00114131
-0.00114127
-0.00114122
-0.00114116
-0.0011411
-0.00114102
-0.00114094
-0.00114086
-0.00114077
-0.00114069
-0.0011406
-0.00114052
-0.00114044
-0.00114137
-0.00118979
-0.00118978
-0.00118975
-0.00118971
-0.00118966
-0.00118961
-0.00118955
-0.00118949
-0.00118941
-0.00118934
-0.00118926
-0.00118919
-0.00118911
-0.00118904
-0.00118897
-0.0011898
-0.00123822
-0.0012382
-0.00123818
-0.00123814
-0.0012381
-0.00123805
-0.001238
-0.00123794
-0.00123788
-0.00123781
-0.00123774
-0.00123768
-0.00123761
-0.00123755
-0.00123749
-0.00123823
-0.00128664
-0.00128663
-0.00128661
-0.00128657
-0.00128654
-0.00128649
-0.00128644
-0.00128639
-0.00128634
-0.00128628
-0.00128622
-0.00128616
-0.0012861
-0.00128604
-0.00128599
-0.00128665
-0.00133506
-0.00133505
-0.00133503
-0.001335
-0.00133497
-0.00133493
-0.00133489
-0.00133484
-0.00133479
-0.00133474
-0.00133468
-0.00133463
-0.00133458
-0.00133453
-0.00133448
-0.00133507
-0.00138348
-0.00138347
-0.00138345
-0.00138343
-0.0013834
-0.00138336
-0.00138332
-0.00138328
-0.00138324
-0.00138319
-0.00138314
-0.0013831
-0.00138305
-0.00138301
-0.00138296
-0.00138349
-0.0014319
-0.00143189
-0.00143187
-0.00143185
-0.00143182
-0.00143179
-0.00143176
-0.00143172
-0.00143168
-0.00143164
-0.0014316
-0.00143155
-0.00143151
-0.00143147
-0.00143144
-0.00143191
-0.00148031
-0.0014803
-0.00148029
-0.00148027
-0.00148024
-0.00148021
-0.00148019
-0.00148015
-0.00148012
-0.00148008
-0.00148004
-0.00148001
-0.00147997
-0.00147994
-0.0014799
-0.00148032
-0.00152872
-0.00152871
-0.0015287
-0.00152868
-0.00152866
-0.00152863
-0.00152861
-0.00152858
-0.00152855
-0.00152852
-0.00152849
-0.00152845
-0.00152842
-0.00152839
-0.00152835
-0.00152873
-0.00157713
-0.00157712
-0.00157711
-0.00157709
-0.00157708
-0.00157705
-0.00157703
-0.00157701
-0.00157698
-0.00157695
-0.00157692
-0.00157689
-0.00157686
-0.00157683
-0.0015768
-0.00157713
-0.00162553
-0.00162552
-0.00162551
-0.0016255
-0.00162548
-0.00162547
-0.00162545
-0.00162542
-0.0016254
-0.00162537
-0.00162535
-0.00162532
-0.00162529
-0.00162527
-0.00162524
-0.00162554
-0.00167393
-0.00167393
-0.00167392
-0.00167391
-0.00167389
-0.00167388
-0.00167386
-0.00167384
-0.00167381
-0.00167379
-0.00167377
-0.00167375
-0.00167372
-0.0016737
-0.00167367
-0.00167394
-0.00172233
-0.00172233
-0.00172232
-0.00172231
-0.0017223
-0.00172228
-0.00172226
-0.00172225
-0.00172223
-0.00172221
-0.00172219
-0.00172216
-0.00172214
-0.00172212
-0.0017221
-0.00172234
-0.00177073
-0.00177072
-0.00177071
-0.00177071
-0.0017707
-0.00177068
-0.00177067
-0.00177065
-0.00177063
-0.00177062
-0.0017706
-0.00177058
-0.00177056
-0.00177054
-0.00177052
-0.00177073
-0.00181912
-0.00181912
-0.00181911
-0.0018191
-0.00181909
-0.00181908
-0.00181907
-0.00181905
-0.00181904
-0.00181902
-0.001819
-0.00181898
-0.00181897
-0.00181895
-0.00181893
-0.00181913
-0.00186751
-0.0018675
-0.0018675
-0.00186749
-0.00186748
-0.00186747
-0.00186746
-0.00186745
-0.00186743
-0.00186742
-0.0018674
-0.00186739
-0.00186737
-0.00186735
-0.00186733
-0.00186751
-0.00191589
-0.00191589
-0.00191588
-0.00191588
-0.00191587
-0.00191586
-0.00191585
-0.00191584
-0.00191582
-0.00191581
-0.0019158
-0.00191578
-0.00191577
-0.00191575
-0.00191573
-0.00191589
-0.00196427
-0.00196427
-0.00196426
-0.00196426
-0.00196425
-0.00196425
-0.00196424
-0.00196422
-0.00196421
-0.0019642
-0.00196419
-0.00196417
-0.00196416
-0.00196415
-0.00196413
-0.00196427
-0.00201265
-0.00201264
-0.00201264
-0.00201263
-0.00201263
-0.00201262
-0.00201262
-0.00201261
-0.0020126
-0.00201259
-0.00201257
-0.00201256
-0.00201255
-0.00201253
-0.00201252
-0.00201265
-0.00206102
-0.00206102
-0.00206101
-0.00206101
-0.002061
-0.002061
-0.00206099
-0.00206098
-0.00206097
-0.00206096
-0.00206095
-0.00206094
-0.00206093
-0.00206092
-0.0020609
-0.00206102
-0.00210939
-0.00210938
-0.00210938
-0.00210938
-0.00210937
-0.00210937
-0.00210936
-0.00210935
-0.00210934
-0.00210933
-0.00210933
-0.00210932
-0.00210931
-0.00210929
-0.00210928
-0.00210939
-0.00215775
-0.00215775
-0.00215774
-0.00215774
-0.00215774
-0.00215773
-0.00215773
-0.00215772
-0.00215771
-0.0021577
-0.0021577
-0.00215769
-0.00215768
-0.00215766
-0.00215765
-0.00215775
-0.00220611
-0.00220611
-0.0022061
-0.0022061
-0.0022061
-0.00220609
-0.00220609
-0.00220608
-0.00220608
-0.00220607
-0.00220606
-0.00220605
-0.00220604
-0.00220603
-0.00220602
-0.00220611
-0.00225447
-0.00225446
-0.00225446
-0.00225446
-0.00225445
-0.00225445
-0.00225444
-0.00225444
-0.00225443
-0.00225443
-0.00225442
-0.00225442
-0.00225441
-0.0022544
-0.00225438
-0.00225447
-0.00230282
-0.00230282
-0.00230281
-0.00230281
-0.00230281
-0.0023028
-0.0023028
-0.00230279
-0.00230279
-0.00230278
-0.00230278
-0.00230277
-0.00230276
-0.00230275
-0.00230274
-0.00230282
-0.00235116
-0.00235116
-0.00235116
-0.00235116
-0.00235115
-0.00235115
-0.00235115
-0.00235114
-0.00235114
-0.00235113
-0.00235113
-0.00235112
-0.00235111
-0.0023511
-0.00235109
-0.00235116
-0.0023995
-0.0023995
-0.0023995
-0.0023995
-0.0023995
-0.00239949
-0.00239949
-0.00239949
-0.00239948
-0.00239948
-0.00239947
-0.00239947
-0.00239946
-0.00239945
-0.00239944
-0.0023995
-0.00244784
-0.00244784
-0.00244784
-0.00244784
-0.00244783
-0.00244783
-0.00244783
-0.00244783
-0.00244782
-0.00244782
-0.00244782
-0.00244781
-0.00244781
-0.0024478
-0.00244779
-0.00244784
-0.00249618
-0.00249617
-0.00249617
-0.00249617
-0.00249617
-0.00249617
-0.00249617
-0.00249616
-0.00249616
-0.00249616
-0.00249615
-0.00249615
-0.00249614
-0.00249613
-0.00249613
-0.00249618
-0.0025445
-0.0025445
-0.0025445
-0.0025445
-0.0025445
-0.0025445
-0.0025445
-0.00254449
-0.00254449
-0.00254449
-0.00254449
-0.00254448
-0.00254447
-0.00254447
-0.00254446
-0.0025445
-0.00259283
-0.00259283
-0.00259282
-0.00259282
-0.00259282
-0.00259282
-0.00259282
-0.00259282
-0.00259282
-0.00259282
-0.00259281
-0.00259281
-0.0025928
-0.0025928
-0.00259279
-0.00259283
-0.00264115
-0.00264115
-0.00264114
-0.00264114
-0.00264114
-0.00264114
-0.00264114
-0.00264114
-0.00264114
-0.00264114
-0.00264114
-0.00264113
-0.00264113
-0.00264112
-0.00264112
-0.00264115
-0.00268946
-0.00268946
-0.00268946
-0.00268946
-0.00268946
-0.00268946
-0.00268946
-0.00268946
-0.00268946
-0.00268946
-0.00268945
-0.00268945
-0.00268945
-0.00268944
-0.00268944
-0.00268946
-0.00273778
-0.00273778
-0.00273778
-0.00273778
-0.00273778
-0.00273778
-0.00273778
-0.00273777
-0.00273777
-0.00273777
-0.00273777
-0.00273777
-0.00273776
-0.00273776
-0.00273775
-0.00273778
-0.00278609
-0.00278609
-0.00278609
-0.00278608
-0.00278608
-0.00278608
-0.00278608
-0.00278608
-0.00278608
-0.00278608
-0.00278608
-0.00278608
-0.00278608
-0.00278607
-0.00278607
-0.00278609
-0.00283439
-0.00283439
-0.00283439
-0.00283439
-0.00283439
-0.00283439
-0.00283439
-0.00283439
-0.00283439
-0.00283439
-0.00283439
-0.00283439
-0.00283438
-0.00283438
-0.00283438
-0.00283439
-0.00288269
-0.00288269
-0.00288269
-0.00288269
-0.00288269
-0.00288269
-0.00288269
-0.00288269
-0.00288269
-0.00288269
-0.00288269
-0.00288269
-0.00288269
-0.00288268
-0.00288268
-0.00288269
-0.00293099
-0.00293098
-0.00293099
-0.00293099
-0.00293099
-0.00293099
-0.00293099
-0.00293098
-0.00293099
-0.00293099
-0.00293099
-0.00293099
-0.00293099
-0.00293098
-0.00293098
-0.00293099
-0.00297928
-0.00297928
-0.00297928
-0.00297928
-0.00297928
-0.00297928
-0.00297928
-0.00297928
-0.00297928
-0.00297927
-0.00297928
-0.00297928
-0.00297927
-0.00297928
-0.00297928
-0.00297928
-0.00302757
-0.00302757
-0.00302757
-0.00302757
-0.00302757
-0.00302757
-0.00302757
-0.00302756
-0.00302757
-0.00302757
-0.00302757
-0.00302756
-0.00302756
-0.00302757
-0.00302757
-0.00302757
-0.00307586
-0.00307585
-0.00307586
-0.00307585
-0.00307585
-0.00307585
-0.00307586
-0.00307586
-0.00307586
-0.00307586
-0.00307586
-0.00307586
-0.00307585
-0.00307586
-0.00307586
-0.00307586
)
;

boundaryField
{
    wireUpstream
    {
        type            calculated;
        value           nonuniform List<scalar> 
16
(
-0.0031
-0.0031
-0.0031
-0.0031
-0.0031
-0.0031
-0.0031
-0.0031
-0.0031
-0.0031
-0.0031
-0.0031
-0.0031
-0.0031
-0.0031
-0.0031
)
;
    }
    wireDownstream
    {
        type            calculated;
        value           nonuniform List<scalar> 
16
(
0.003
0.003
0.003
0.003
0.003
0.003
0.003
0.003
0.003
0.003
0.003
0.003
0.003
0.003
0.003
0.003
)
;
    }
    wireTopContact
    {
        type            calculated;
        value           nonuniform List<scalar> 
122
(
0.00284605
0.00279585
0.00274566
0.00269547
0.00264527
0.00259508
0.00254489
0.00249469
0.0024445
0.00239431
0.00234411
0.00229392
0.00224373
0.00219353
0.00214334
0.00209315
0.00204295
0.00199276
0.00194257
0.00189238
0.00184218
0.00179199
0.0017418
0.00169161
0.00164141
0.00159122
0.00154102
0.00149083
0.00144063
0.00139044
0.00134024
0.00129004
0.00123984
0.00118964
0.00113944
0.00108924
0.00103904
0.000988824
0.000938611
0.000888396
0.000838177
0.000787954
0.000737728
0.000687498
0.000637263
0.000587024
0.000536782
0.000486546
0.000436323
0.000386117
0.000335928
0.000285762
0.000235626
0.000185532
0.0001355
8.55506e-05
3.56964e-05
-1.406e-05
-6.37217e-05
-0.000113296
-0.000162791
-0.000212213
-0.000261566
-0.000310854
-0.000360084
-0.000409254
-0.000458366
-0.000507416
-0.000556392
-0.000605282
-0.000654086
-0.000702826
-0.00075153
-0.000800211
-0.000848869
-0.000897505
-0.000946121
-0.000994718
-0.0010433
-0.00109186
-0.00114041
-0.00118894
-0.00123746
-0.00128597
-0.00133446
-0.00138294
-0.00143142
-0.00147988
-0.00152834
-0.00157679
-0.00162523
-0.00167366
-0.00172209
-0.00177051
-0.00181892
-0.00186732
-0.00191572
-0.00196412
-0.00201251
-0.00206089
-0.00210927
-0.00215765
-0.00220601
-0.00225437
-0.00230273
-0.00235109
-0.00239944
-0.00244778
-0.00249612
-0.00254446
-0.00259279
-0.00264111
-0.00268943
-0.00273775
-0.00278607
-0.00283438
-0.00288268
-0.00293098
-0.00297927
-0.00302757
-0.00307586
0.00293557
)
;
    }
    front
    {
        type            wedge;
    }
    back
    {
        type            wedge;
    }
}


// ************************************************************************* //
