/*--------------------------------*- C++ -*----------------------------------*\
| =========                 |                                                 |
| \\      /  F ield         | foam-extend: Open Source CFD                    |
|  \\    /   O peration     | Version:     4.1-20200408                       |
|   \\  /    A nd           | Web:         http://www.foam-extend.org         |
|    \\/     M anipulation  |                                                 |
\*---------------------------------------------------------------------------*/
FoamFile
{
    version     2.0;
    format      ascii;
    class       volVectorField;
    location    "0.0400000";
    object      U;
}
// * * * * * * * * * * * * * * * * * * * * * * * * * * * * * * * * * * * * * //

dimensions      [0 1 0 0 0 0 0];

internalField   nonuniform List<vector> 
1952
(
(0.0394143 -1.72735e-06 0)
(0.0394141 -2.80994e-06 0)
(0.0394138 -3.90675e-06 0)
(0.0394134 -5.00106e-06 0)
(0.0394129 -6.09789e-06 0)
(0.0394123 -7.18446e-06 0)
(0.0394117 -8.27268e-06 0)
(0.039411 -9.34454e-06 0)
(0.0394103 -1.04168e-05 0)
(0.0394096 -1.14664e-05 0)
(0.0394089 -1.25107e-05 0)
(0.0394084 -1.35255e-05 0)
(0.039408 -1.452e-05 0)
(0.0394077 -1.54766e-05 0)
(0.0394077 -1.63944e-05 0)
(0.0394144 -7.40018e-07 0)
(0.0394121 -1.73042e-06 0)
(0.0394119 -2.81496e-06 0)
(0.0394116 -3.91362e-06 0)
(0.0394111 -5.00989e-06 0)
(0.0394107 -6.10849e-06 0)
(0.0394101 -7.19695e-06 0)
(0.0394094 -8.28689e-06 0)
(0.0394087 -9.36051e-06 0)
(0.0394081 -1.04345e-05 0)
(0.0394074 -1.14857e-05 0)
(0.0394067 -1.25316e-05 0)
(0.0394061 -1.3548e-05 0)
(0.0394057 -1.45442e-05 0)
(0.0394055 -1.55025e-05 0)
(0.0394054 -1.64222e-05 0)
(0.0394122 -7.41339e-07 0)
(0.0394099 -1.73353e-06 0)
(0.0394097 -2.82003e-06 0)
(0.0394093 -3.92064e-06 0)
(0.0394089 -5.01886e-06 0)
(0.0394084 -6.11937e-06 0)
(0.0394078 -7.20977e-06 0)
(0.0394072 -8.30159e-06 0)
(0.0394065 -9.3771e-06 0)
(0.0394058 -1.04529e-05 0)
(0.0394051 -1.1506e-05 0)
(0.0394045 -1.25537e-05 0)
(0.0394039 -1.3572e-05 0)
(0.0394035 -1.45701e-05 0)
(0.0394032 -1.55302e-05 0)
(0.0394032 -1.64518e-05 0)
(0.03941 -7.42676e-07 0)
(0.0394077 -1.73666e-06 0)
(0.0394074 -2.82511e-06 0)
(0.0394071 -3.92771e-06 0)
(0.0394067 -5.02787e-06 0)
(0.0394062 -6.13035e-06 0)
(0.0394056 -7.22269e-06 0)
(0.039405 -8.31647e-06 0)
(0.0394043 -9.39389e-06 0)
(0.0394036 -1.04717e-05 0)
(0.0394029 -1.15266e-05 0)
(0.0394022 -1.25763e-05 0)
(0.0394017 -1.35965e-05 0)
(0.0394012 -1.45964e-05 0)
(0.039401 -1.55585e-05 0)
(0.0394009 -1.64819e-05 0)
(0.0394077 -7.44018e-07 0)
(0.0394054 -1.73982e-06 0)
(0.0394052 -2.83023e-06 0)
(0.0394049 -3.93484e-06 0)
(0.0394044 -5.03696e-06 0)
(0.0394039 -6.14143e-06 0)
(0.0394034 -7.23575e-06 0)
(0.0394027 -8.33152e-06 0)
(0.039402 -9.4109e-06 0)
(0.0394013 -1.04907e-05 0)
(0.0394006 -1.15475e-05 0)
(0.0394 -1.25992e-05 0)
(0.0393994 -1.36213e-05 0)
(0.039399 -1.46232e-05 0)
(0.0393987 -1.55872e-05 0)
(0.0393987 -1.65124e-05 0)
(0.0394055 -7.45369e-07 0)
(0.0394032 -1.74299e-06 0)
(0.0394029 -2.83539e-06 0)
(0.0394026 -3.94202e-06 0)
(0.0394022 -5.04612e-06 0)
(0.0394017 -6.15262e-06 0)
(0.0394011 -7.24892e-06 0)
(0.0394005 -8.34673e-06 0)
(0.0393998 -9.42808e-06 0)
(0.0393991 -1.05099e-05 0)
(0.0393984 -1.15687e-05 0)
(0.0393977 -1.26223e-05 0)
(0.0393972 -1.36464e-05 0)
(0.0393967 -1.46503e-05 0)
(0.0393965 -1.56161e-05 0)
(0.0393964 -1.65432e-05 0)
(0.0394033 -7.46731e-07 0)
(0.0394009 -1.74619e-06 0)
(0.0394007 -2.84058e-06 0)
(0.0394004 -3.94924e-06 0)
(0.0394 -5.05537e-06 0)
(0.0393995 -6.16392e-06 0)
(0.0393989 -7.26222e-06 0)
(0.0393982 -8.36208e-06 0)
(0.0393975 -9.44541e-06 0)
(0.0393968 -1.05292e-05 0)
(0.0393961 -1.159e-05 0)
(0.0393955 -1.26456e-05 0)
(0.0393949 -1.36717e-05 0)
(0.0393945 -1.46775e-05 0)
(0.0393942 -1.56452e-05 0)
(0.0393942 -1.65741e-05 0)
(0.039401 -7.481e-07 0)
(0.0393987 -1.7494e-06 0)
(0.0393984 -2.84581e-06 0)
(0.0393981 -3.9565e-06 0)
(0.0393977 -5.06468e-06 0)
(0.0393972 -6.17531e-06 0)
(0.0393966 -7.27561e-06 0)
(0.039396 -8.37754e-06 0)
(0.0393953 -9.46285e-06 0)
(0.0393946 -1.05487e-05 0)
(0.0393939 -1.16115e-05 0)
(0.0393932 -1.26691e-05 0)
(0.0393926 -1.36971e-05 0)
(0.0393922 -1.47049e-05 0)
(0.039392 -1.56745e-05 0)
(0.0393919 -1.66053e-05 0)
(0.0393988 -7.49477e-07 0)
(0.0393964 -1.75263e-06 0)
(0.0393962 -2.85107e-06 0)
(0.0393959 -3.9638e-06 0)
(0.0393954 -5.07405e-06 0)
(0.0393949 -6.18676e-06 0)
(0.0393943 -7.28909e-06 0)
(0.0393937 -8.39309e-06 0)
(0.039393 -9.48041e-06 0)
(0.0393923 -1.05683e-05 0)
(0.0393916 -1.1633e-05 0)
(0.039391 -1.26926e-05 0)
(0.0393904 -1.37226e-05 0)
(0.0393899 -1.47323e-05 0)
(0.0393897 -1.57038e-05 0)
(0.0393896 -1.66365e-05 0)
(0.0393965 -7.50862e-07 0)
(0.0393942 -1.75588e-06 0)
(0.0393939 -2.85637e-06 0)
(0.0393936 -3.97117e-06 0)
(0.0393932 -5.08347e-06 0)
(0.0393927 -6.19826e-06 0)
(0.0393921 -7.30263e-06 0)
(0.0393914 -8.40869e-06 0)
(0.0393907 -9.49801e-06 0)
(0.03939 -1.0588e-05 0)
(0.0393893 -1.16546e-05 0)
(0.0393887 -1.27162e-05 0)
(0.0393881 -1.37482e-05 0)
(0.0393877 -1.47597e-05 0)
(0.0393874 -1.57332e-05 0)
(0.0393874 -1.66678e-05 0)
(0.0393942 -7.52258e-07 0)
(0.0393919 -1.75913e-06 0)
(0.0393917 -2.86167e-06 0)
(0.0393914 -3.97851e-06 0)
(0.0393909 -5.09288e-06 0)
(0.0393904 -6.20975e-06 0)
(0.0393898 -7.31616e-06 0)
(0.0393892 -8.42429e-06 0)
(0.0393885 -9.51563e-06 0)
(0.0393878 -1.06076e-05 0)
(0.0393871 -1.16763e-05 0)
(0.0393864 -1.27399e-05 0)
(0.0393858 -1.37738e-05 0)
(0.0393854 -1.47872e-05 0)
(0.0393851 -1.57626e-05 0)
(0.0393851 -1.66991e-05 0)
(0.039392 -7.53653e-07 0)
(0.0393896 -1.76239e-06 0)
(0.0393894 -2.86698e-06 0)
(0.0393891 -3.98587e-06 0)
(0.0393886 -5.10232e-06 0)
(0.0393881 -6.22126e-06 0)
(0.0393875 -7.32972e-06 0)
(0.0393869 -8.43992e-06 0)
(0.0393862 -9.53328e-06 0)
(0.0393855 -1.06273e-05 0)
(0.0393848 -1.1698e-05 0)
(0.0393841 -1.27635e-05 0)
(0.0393836 -1.37994e-05 0)
(0.0393831 -1.48147e-05 0)
(0.0393829 -1.5792e-05 0)
(0.0393828 -1.67304e-05 0)
(0.0393897 -7.55051e-07 0)
(0.0393874 -1.76565e-06 0)
(0.0393871 -2.87228e-06 0)
(0.0393868 -3.99323e-06 0)
(0.0393864 -5.11174e-06 0)
(0.0393859 -6.23274e-06 0)
(0.0393853 -7.34324e-06 0)
(0.0393846 -8.4555e-06 0)
(0.0393839 -9.55088e-06 0)
(0.0393832 -1.0647e-05 0)
(0.0393825 -1.17196e-05 0)
(0.0393819 -1.2787e-05 0)
(0.0393813 -1.3825e-05 0)
(0.0393808 -1.48422e-05 0)
(0.0393806 -1.58214e-05 0)
(0.0393805 -1.67617e-05 0)
(0.0393874 -7.56448e-07 0)
(0.0393851 -1.76889e-06 0)
(0.0393848 -2.87756e-06 0)
(0.0393845 -4.00053e-06 0)
(0.0393841 -5.12111e-06 0)
(0.0393836 -6.24417e-06 0)
(0.039383 -7.35673e-06 0)
(0.0393823 -8.47105e-06 0)
(0.0393816 -9.56845e-06 0)
(0.0393809 -1.06666e-05 0)
(0.0393802 -1.17412e-05 0)
(0.0393796 -1.28106e-05 0)
(0.039379 -1.38505e-05 0)
(0.0393786 -1.48696e-05 0)
(0.0393783 -1.58508e-05 0)
(0.0393782 -1.67929e-05 0)
(0.0393852 -7.57838e-07 0)
(0.0393828 -1.77213e-06 0)
(0.0393826 -2.88283e-06 0)
(0.0393823 -4.00784e-06 0)
(0.0393818 -5.13049e-06 0)
(0.0393813 -6.25556e-06 0)
(0.0393807 -7.37015e-06 0)
(0.0393801 -8.48652e-06 0)
(0.0393794 -9.58595e-06 0)
(0.0393787 -1.06861e-05 0)
(0.0393779 -1.17627e-05 0)
(0.0393773 -1.28341e-05 0)
(0.0393767 -1.3876e-05 0)
(0.0393763 -1.48971e-05 0)
(0.039376 -1.58801e-05 0)
(0.039376 -1.68242e-05 0)
(0.0393829 -7.59226e-07 0)
(0.0393805 -1.77534e-06 0)
(0.0393803 -2.88806e-06 0)
(0.03938 -4.0151e-06 0)
(0.0393795 -5.13981e-06 0)
(0.039379 -6.2669e-06 0)
(0.0393784 -7.38354e-06 0)
(0.0393778 -8.50194e-06 0)
(0.0393771 -9.60343e-06 0)
(0.0393764 -1.07055e-05 0)
(0.0393756 -1.17843e-05 0)
(0.039375 -1.28576e-05 0)
(0.0393744 -1.39015e-05 0)
(0.039374 -1.49245e-05 0)
(0.0393737 -1.59094e-05 0)
(0.0393737 -1.68554e-05 0)
(0.0393806 -7.60603e-07 0)
(0.0393782 -1.77854e-06 0)
(0.039378 -2.89327e-06 0)
(0.0393777 -4.02234e-06 0)
(0.0393772 -5.14908e-06 0)
(0.0393767 -6.2782e-06 0)
(0.0393761 -7.3969e-06 0)
(0.0393755 -8.51729e-06 0)
(0.0393748 -9.62086e-06 0)
(0.0393741 -1.07249e-05 0)
(0.0393733 -1.18057e-05 0)
(0.0393727 -1.2881e-05 0)
(0.0393721 -1.39269e-05 0)
(0.0393717 -1.49518e-05 0)
(0.0393714 -1.59386e-05 0)
(0.0393714 -1.68865e-05 0)
(0.0393783 -7.61975e-07 0)
(0.0393759 -1.78172e-06 0)
(0.0393757 -2.89844e-06 0)
(0.0393754 -4.02952e-06 0)
(0.0393749 -5.15829e-06 0)
(0.0393744 -6.28943e-06 0)
(0.0393738 -7.41019e-06 0)
(0.0393732 -8.53256e-06 0)
(0.0393725 -9.6382e-06 0)
(0.0393718 -1.07442e-05 0)
(0.039371 -1.1827e-05 0)
(0.0393704 -1.29044e-05 0)
(0.0393698 -1.39522e-05 0)
(0.0393694 -1.49791e-05 0)
(0.0393691 -1.59678e-05 0)
(0.0393691 -1.69177e-05 0)
(0.039376 -7.63337e-07 0)
(0.0393736 -1.78488e-06 0)
(0.0393734 -2.90358e-06 0)
(0.0393731 -4.03666e-06 0)
(0.0393726 -5.16745e-06 0)
(0.0393721 -6.3006e-06 0)
(0.0393715 -7.42341e-06 0)
(0.0393709 -8.54776e-06 0)
(0.0393702 -9.65548e-06 0)
(0.0393695 -1.07634e-05 0)
(0.0393687 -1.18483e-05 0)
(0.0393681 -1.29276e-05 0)
(0.0393675 -1.39775e-05 0)
(0.0393671 -1.50063e-05 0)
(0.0393668 -1.59969e-05 0)
(0.0393667 -1.69487e-05 0)
(0.0393737 -7.64691e-07 0)
(0.0393713 -1.78802e-06 0)
(0.0393711 -2.9087e-06 0)
(0.0393708 -4.04376e-06 0)
(0.0393703 -5.17657e-06 0)
(0.0393698 -6.31172e-06 0)
(0.0393692 -7.43658e-06 0)
(0.0393686 -8.56288e-06 0)
(0.0393679 -9.67268e-06 0)
(0.0393671 -1.07825e-05 0)
(0.0393664 -1.18695e-05 0)
(0.0393658 -1.29508e-05 0)
(0.0393652 -1.40027e-05 0)
(0.0393647 -1.50334e-05 0)
(0.0393645 -1.6026e-05 0)
(0.0393644 -1.69798e-05 0)
(0.0393714 -7.66038e-07 0)
(0.039369 -1.79114e-06 0)
(0.0393688 -2.91379e-06 0)
(0.0393685 -4.05083e-06 0)
(0.039368 -5.18564e-06 0)
(0.0393675 -6.32278e-06 0)
(0.0393669 -7.44969e-06 0)
(0.0393663 -8.57796e-06 0)
(0.0393655 -9.68981e-06 0)
(0.0393648 -1.08016e-05 0)
(0.0393641 -1.18906e-05 0)
(0.0393634 -1.29738e-05 0)
(0.0393629 -1.40278e-05 0)
(0.0393624 -1.50604e-05 0)
(0.0393622 -1.6055e-05 0)
(0.0393621 -1.70107e-05 0)
(0.0393691 -7.67376e-07 0)
(0.0393667 -1.79426e-06 0)
(0.0393665 -2.91886e-06 0)
(0.0393662 -4.05787e-06 0)
(0.0393657 -5.19468e-06 0)
(0.0393652 -6.33377e-06 0)
(0.0393646 -7.46271e-06 0)
(0.0393639 -8.59291e-06 0)
(0.0393632 -9.70682e-06 0)
(0.0393625 -1.08205e-05 0)
(0.0393618 -1.19116e-05 0)
(0.0393611 -1.29968e-05 0)
(0.0393605 -1.40527e-05 0)
(0.0393601 -1.50873e-05 0)
(0.0393598 -1.60839e-05 0)
(0.0393598 -1.70415e-05 0)
(0.0393668 -7.6871e-07 0)
(0.0393644 -1.79733e-06 0)
(0.0393642 -2.92387e-06 0)
(0.0393638 -4.06482e-06 0)
(0.0393634 -5.20361e-06 0)
(0.0393629 -6.34467e-06 0)
(0.0393623 -7.47562e-06 0)
(0.0393616 -8.60777e-06 0)
(0.0393609 -9.72372e-06 0)
(0.0393602 -1.08394e-05 0)
(0.0393595 -1.19325e-05 0)
(0.0393588 -1.30196e-05 0)
(0.0393582 -1.40775e-05 0)
(0.0393578 -1.51141e-05 0)
(0.0393575 -1.61126e-05 0)
(0.0393575 -1.70723e-05 0)
(0.0393645 -7.70029e-07 0)
(0.0393621 -1.80039e-06 0)
(0.0393618 -2.92885e-06 0)
(0.0393615 -4.07172e-06 0)
(0.0393611 -5.21248e-06 0)
(0.0393606 -6.35547e-06 0)
(0.03936 -7.48842e-06 0)
(0.0393593 -8.62248e-06 0)
(0.0393586 -9.74047e-06 0)
(0.0393579 -1.0858e-05 0)
(0.0393571 -1.19532e-05 0)
(0.0393565 -1.30422e-05 0)
(0.0393559 -1.41022e-05 0)
(0.0393554 -1.51408e-05 0)
(0.0393552 -1.61413e-05 0)
(0.0393551 -1.7103e-05 0)
(0.0393622 -7.71338e-07 0)
(0.0393598 -1.80341e-06 0)
(0.0393595 -2.93378e-06 0)
(0.0393592 -4.07856e-06 0)
(0.0393588 -5.22127e-06 0)
(0.0393582 -6.36619e-06 0)
(0.0393576 -7.50113e-06 0)
(0.039357 -8.63711e-06 0)
(0.0393563 -9.75711e-06 0)
(0.0393555 -1.08766e-05 0)
(0.0393548 -1.19738e-05 0)
(0.0393541 -1.30648e-05 0)
(0.0393536 -1.41269e-05 0)
(0.0393531 -1.51674e-05 0)
(0.0393528 -1.61699e-05 0)
(0.0393528 -1.71336e-05 0)
(0.0393598 -7.72635e-07 0)
(0.0393574 -1.80641e-06 0)
(0.0393572 -2.93867e-06 0)
(0.0393569 -4.08534e-06 0)
(0.0393564 -5.22999e-06 0)
(0.0393559 -6.37681e-06 0)
(0.0393553 -7.51374e-06 0)
(0.0393546 -8.65161e-06 0)
(0.0393539 -9.77364e-06 0)
(0.0393532 -1.0895e-05 0)
(0.0393525 -1.19942e-05 0)
(0.0393518 -1.30873e-05 0)
(0.0393512 -1.41514e-05 0)
(0.0393508 -1.51939e-05 0)
(0.0393505 -1.61985e-05 0)
(0.0393505 -1.71642e-05 0)
(0.0393575 -7.73921e-07 0)
(0.0393551 -1.8094e-06 0)
(0.0393549 -2.94353e-06 0)
(0.0393545 -4.0921e-06 0)
(0.0393541 -5.23869e-06 0)
(0.0393536 -6.3874e-06 0)
(0.039353 -7.5263e-06 0)
(0.0393523 -8.66608e-06 0)
(0.0393516 -9.79012e-06 0)
(0.0393509 -1.09134e-05 0)
(0.0393501 -1.20146e-05 0)
(0.0393495 -1.31097e-05 0)
(0.0393489 -1.41759e-05 0)
(0.0393484 -1.52204e-05 0)
(0.0393482 -1.6227e-05 0)
(0.0393481 -1.71948e-05 0)
(0.0393552 -7.75201e-07 0)
(0.0393528 -1.81239e-06 0)
(0.0393525 -2.9484e-06 0)
(0.0393522 -4.09884e-06 0)
(0.0393518 -5.24735e-06 0)
(0.0393512 -6.39793e-06 0)
(0.0393506 -7.53881e-06 0)
(0.03935 -8.68043e-06 0)
(0.0393492 -9.8065e-06 0)
(0.0393485 -1.09317e-05 0)
(0.0393478 -1.20349e-05 0)
(0.0393471 -1.3132e-05 0)
(0.0393465 -1.42002e-05 0)
(0.0393461 -1.52468e-05 0)
(0.0393458 -1.62555e-05 0)
(0.0393458 -1.72254e-05 0)
(0.0393529 -7.76481e-07 0)
(0.0393504 -1.81537e-06 0)
(0.0393502 -2.95325e-06 0)
(0.0393499 -4.10556e-06 0)
(0.0393494 -5.25601e-06 0)
(0.0393489 -6.40849e-06 0)
(0.0393483 -7.55134e-06 0)
(0.0393476 -8.69485e-06 0)
(0.0393469 -9.82294e-06 0)
(0.0393462 -1.095e-05 0)
(0.0393454 -1.20553e-05 0)
(0.0393448 -1.31543e-05 0)
(0.0393442 -1.42247e-05 0)
(0.0393437 -1.52732e-05 0)
(0.0393435 -1.6284e-05 0)
(0.0393434 -1.72561e-05 0)
(0.0393505 -7.77758e-07 0)
(0.0393481 -1.81841e-06 0)
(0.0393479 -2.9582e-06 0)
(0.0393475 -4.11241e-06 0)
(0.0393471 -5.26481e-06 0)
(0.0393466 -6.41914e-06 0)
(0.0393459 -7.56399e-06 0)
(0.0393453 -8.70933e-06 0)
(0.0393445 -9.83943e-06 0)
(0.0393438 -1.09684e-05 0)
(0.0393431 -1.20757e-05 0)
(0.0393424 -1.31767e-05 0)
(0.0393418 -1.42491e-05 0)
(0.0393414 -1.52998e-05 0)
(0.0393411 -1.63127e-05 0)
(0.0393411 -1.72869e-05 0)
(0.0393482 -7.7906e-07 0)
(0.0393458 -1.82148e-06 0)
(0.0393455 -2.96321e-06 0)
(0.0393452 -4.11932e-06 0)
(0.0393447 -5.2737e-06 0)
(0.0393442 -6.42993e-06 0)
(0.0393436 -7.5768e-06 0)
(0.0393429 -8.72398e-06 0)
(0.0393422 -9.85614e-06 0)
(0.0393415 -1.09869e-05 0)
(0.0393407 -1.20963e-05 0)
(0.0393401 -1.31993e-05 0)
(0.0393395 -1.42739e-05 0)
(0.039339 -1.53266e-05 0)
(0.0393387 -1.63417e-05 0)
(0.0393387 -1.73182e-05 0)
(0.0393458 -7.80378e-07 0)
(0.0393434 -1.82467e-06 0)
(0.0393432 -2.9684e-06 0)
(0.0393428 -4.12649e-06 0)
(0.0393424 -5.28291e-06 0)
(0.0393419 -6.44107e-06 0)
(0.0393412 -7.59e-06 0)
(0.0393406 -8.73906e-06 0)
(0.0393398 -9.87329e-06 0)
(0.0393391 -1.10059e-05 0)
(0.0393384 -1.21174e-05 0)
(0.0393377 -1.32223e-05 0)
(0.0393371 -1.4299e-05 0)
(0.0393366 -1.53539e-05 0)
(0.0393364 -1.63711e-05 0)
(0.0393363 -1.73497e-05 0)
(0.0393435 -7.81746e-07 0)
(0.0393411 -1.82805e-06 0)
(0.0393408 -2.97388e-06 0)
(0.0393405 -4.13405e-06 0)
(0.03934 -5.2926e-06 0)
(0.0393395 -6.45272e-06 0)
(0.0393389 -7.60377e-06 0)
(0.0393382 -8.75468e-06 0)
(0.0393375 -9.89101e-06 0)
(0.0393367 -1.10255e-05 0)
(0.039336 -1.2139e-05 0)
(0.0393353 -1.32459e-05 0)
(0.0393347 -1.43247e-05 0)
(0.0393343 -1.53817e-05 0)
(0.039334 -1.6401e-05 0)
(0.0393339 -1.7382e-05 0)
(0.0393411 -7.83193e-07 0)
(0.0393387 -1.83164e-06 0)
(0.0393384 -2.97972e-06 0)
(0.0393381 -4.14207e-06 0)
(0.0393377 -5.30287e-06 0)
(0.0393371 -6.46507e-06 0)
(0.0393365 -7.61833e-06 0)
(0.0393358 -8.77117e-06 0)
(0.0393351 -9.90966e-06 0)
(0.0393344 -1.1046e-05 0)
(0.0393336 -1.21616e-05 0)
(0.0393329 -1.32704e-05 0)
(0.0393323 -1.43513e-05 0)
(0.0393319 -1.54103e-05 0)
(0.0393316 -1.64318e-05 0)
(0.0393316 -1.74151e-05 0)
(0.0393388 -7.84734e-07 0)
(0.0393363 -1.8356e-06 0)
(0.0393361 -2.98613e-06 0)
(0.0393358 -4.15086e-06 0)
(0.0393353 -5.31408e-06 0)
(0.0393348 -6.47844e-06 0)
(0.0393341 -7.63403e-06 0)
(0.0393335 -8.78881e-06 0)
(0.0393327 -9.92951e-06 0)
(0.039332 -1.10676e-05 0)
(0.0393313 -1.21854e-05 0)
(0.0393306 -1.3296e-05 0)
(0.03933 -1.4379e-05 0)
(0.0393295 -1.544e-05 0)
(0.0393292 -1.64637e-05 0)
(0.0393292 -1.74494e-05 0)
(0.0393364 -7.86429e-07 0)
(0.039334 -1.83996e-06 0)
(0.0393337 -2.99321e-06 0)
(0.0393334 -4.16052e-06 0)
(0.0393329 -5.3264e-06 0)
(0.0393324 -6.49311e-06 0)
(0.0393318 -7.65121e-06 0)
(0.0393311 -8.80804e-06 0)
(0.0393304 -9.95104e-06 0)
(0.0393296 -1.1091e-05 0)
(0.0393289 -1.22108e-05 0)
(0.0393282 -1.33234e-05 0)
(0.0393276 -1.44085e-05 0)
(0.0393271 -1.54715e-05 0)
(0.0393268 -1.64973e-05 0)
(0.0393268 -1.74854e-05 0)
(0.0393341 -7.88302e-07 0)
(0.0393316 -1.84491e-06 0)
(0.0393314 -3.00121e-06 0)
(0.039331 -4.17146e-06 0)
(0.0393306 -5.34031e-06 0)
(0.03933 -6.50961e-06 0)
(0.0393294 -7.67044e-06 0)
(0.0393287 -8.82945e-06 0)
(0.039328 -9.9749e-06 0)
(0.0393272 -1.11167e-05 0)
(0.0393265 -1.22387e-05 0)
(0.0393258 -1.3353e-05 0)
(0.0393252 -1.44401e-05 0)
(0.0393247 -1.55051e-05 0)
(0.0393245 -1.6533e-05 0)
(0.0393244 -1.75234e-05 0)
(0.0393317 -7.90424e-07 0)
(0.0393292 -1.85062e-06 0)
(0.039329 -3.01042e-06 0)
(0.0393287 -4.18406e-06 0)
(0.0393282 -5.35629e-06 0)
(0.0393277 -6.52848e-06 0)
(0.039327 -7.69234e-06 0)
(0.0393264 -8.85371e-06 0)
(0.0393256 -1.00018e-05 0)
(0.0393249 -1.11455e-05 0)
(0.0393241 -1.22697e-05 0)
(0.0393234 -1.33857e-05 0)
(0.0393228 -1.44747e-05 0)
(0.0393223 -1.55416e-05 0)
(0.0393221 -1.65714e-05 0)
(0.039322 -1.75643e-05 0)
(0.0393293 -7.92872e-07 0)
(0.0393269 -1.85728e-06 0)
(0.0393266 -3.02116e-06 0)
(0.0393263 -4.19871e-06 0)
(0.0393258 -5.37481e-06 0)
(0.0393253 -6.55032e-06 0)
(0.0393246 -7.7176e-06 0)
(0.039324 -8.88158e-06 0)
(0.0393232 -1.00325e-05 0)
(0.0393225 -1.11781e-05 0)
(0.0393217 -1.23046e-05 0)
(0.039321 -1.34222e-05 0)
(0.0393204 -1.45132e-05 0)
(0.0393199 -1.55817e-05 0)
(0.0393196 -1.66134e-05 0)
(0.0393196 -1.76086e-05 0)
(0.0393269 -7.95726e-07 0)
(0.0393245 -1.8651e-06 0)
(0.0393242 -3.03376e-06 0)
(0.0393239 -4.21589e-06 0)
(0.0393234 -5.39652e-06 0)
(0.0393229 -6.57589e-06 0)
(0.0393223 -7.74709e-06 0)
(0.0393216 -8.91403e-06 0)
(0.0393208 -1.00681e-05 0)
(0.0393201 -1.12158e-05 0)
(0.0393193 -1.23446e-05 0)
(0.0393186 -1.34639e-05 0)
(0.039318 -1.45566e-05 0)
(0.0393175 -1.56268e-05 0)
(0.0393172 -1.66601e-05 0)
(0.0393172 -1.76576e-05 0)
(0.0393246 -7.99079e-07 0)
(0.0393221 -1.87434e-06 0)
(0.0393218 -3.04866e-06 0)
(0.0393215 -4.2362e-06 0)
(0.039321 -5.42216e-06 0)
(0.0393205 -6.60612e-06 0)
(0.0393199 -7.78188e-06 0)
(0.0393192 -8.9523e-06 0)
(0.0393184 -1.01099e-05 0)
(0.0393177 -1.126e-05 0)
(0.0393169 -1.23913e-05 0)
(0.0393162 -1.3512e-05 0)
(0.0393156 -1.46064e-05 0)
(0.0393151 -1.56779e-05 0)
(0.0393148 -1.67127e-05 0)
(0.0393147 -1.77122e-05 0)
(0.0393222 -8.03042e-07 0)
(0.0393197 -1.8853e-06 0)
(0.0393194 -3.06636e-06 0)
(0.0393191 -4.26033e-06 0)
(0.0393186 -5.45256e-06 0)
(0.0393181 -6.64199e-06 0)
(0.0393175 -7.82312e-06 0)
(0.0393168 -8.99765e-06 0)
(0.039316 -1.01594e-05 0)
(0.0393153 -1.13121e-05 0)
(0.0393145 -1.24461e-05 0)
(0.0393138 -1.35683e-05 0)
(0.0393132 -1.46643e-05 0)
(0.0393127 -1.57368e-05 0)
(0.0393124 -1.67727e-05 0)
(0.0393123 -1.7774e-05 0)
(0.0393198 -8.07746e-07 0)
(0.0393173 -1.89824e-06 0)
(0.039317 -3.08724e-06 0)
(0.0393167 -4.28884e-06 0)
(0.0393162 -5.48854e-06 0)
(0.0393157 -6.68451e-06 0)
(0.0393151 -7.87204e-06 0)
(0.0393144 -9.05153e-06 0)
(0.0393136 -1.02182e-05 0)
(0.0393129 -1.1374e-05 0)
(0.0393121 -1.25112e-05 0)
(0.0393114 -1.36348e-05 0)
(0.0393108 -1.47323e-05 0)
(0.0393103 -1.58055e-05 0)
(0.03931 -1.6842e-05 0)
(0.0393099 -1.78449e-05 0)
(0.0393173 -8.13296e-07 0)
(0.0393148 -1.91343e-06 0)
(0.0393146 -3.11178e-06 0)
(0.0393142 -4.32241e-06 0)
(0.0393138 -5.53095e-06 0)
(0.0393133 -6.73478e-06 0)
(0.0393126 -7.92993e-06 0)
(0.039312 -9.1155e-06 0)
(0.0393112 -1.02881e-05 0)
(0.0393105 -1.14477e-05 0)
(0.0393097 -1.25887e-05 0)
(0.039309 -1.3714e-05 0)
(0.0393084 -1.48131e-05 0)
(0.0393079 -1.58865e-05 0)
(0.0393075 -1.69234e-05 0)
(0.0393074 -1.79272e-05 0)
(0.0393149 -8.19812e-07 0)
(0.0393124 -1.93109e-06 0)
(0.0393121 -3.14035e-06 0)
(0.0393118 -4.36157e-06 0)
(0.0393114 -5.58051e-06 0)
(0.0393108 -6.79374e-06 0)
(0.0393102 -7.99802e-06 0)
(0.0393095 -9.19106e-06 0)
(0.0393088 -1.03709e-05 0)
(0.039308 -1.15355e-05 0)
(0.0393073 -1.26812e-05 0)
(0.0393066 -1.38086e-05 0)
(0.0393059 -1.49098e-05 0)
(0.0393054 -1.59831e-05 0)
(0.0393051 -1.70198e-05 0)
(0.039305 -1.80239e-05 0)
(0.0393125 -8.27388e-07 0)
(0.0393099 -1.95136e-06 0)
(0.0393097 -3.17318e-06 0)
(0.0393093 -4.40671e-06 0)
(0.0393089 -5.63777e-06 0)
(0.0393084 -6.86217e-06 0)
(0.0393078 -8.07735e-06 0)
(0.0393071 -9.27964e-06 0)
(0.0393064 -1.04685e-05 0)
(0.0393056 -1.16395e-05 0)
(0.0393049 -1.27916e-05 0)
(0.0393041 -1.39221e-05 0)
(0.0393035 -1.5026e-05 0)
(0.039303 -1.60991e-05 0)
(0.0393027 -1.71351e-05 0)
(0.0393025 -1.81381e-05 0)
(0.03931 -8.36082e-07 0)
(0.0393074 -1.97429e-06 0)
(0.0393072 -3.21038e-06 0)
(0.0393068 -4.45799e-06 0)
(0.0393064 -5.70295e-06 0)
(0.0393059 -6.94048e-06 0)
(0.0393053 -8.1685e-06 0)
(0.0393046 -9.38215e-06 0)
(0.0393039 -1.05822e-05 0)
(0.0393032 -1.17618e-05 0)
(0.0393024 -1.29225e-05 0)
(0.0393017 -1.40578e-05 0)
(0.0393011 -1.51665e-05 0)
(0.0393006 -1.624e-05 0)
(0.0393002 -1.72756e-05 0)
(0.0393001 -1.82761e-05 0)
(0.0393075 -8.45916e-07 0)
(0.0393049 -1.99969e-06 0)
(0.0393046 -3.25163e-06 0)
(0.0393043 -4.51502e-06 0)
(0.0393039 -5.77569e-06 0)
(0.0393034 -7.02832e-06 0)
(0.0393028 -8.27127e-06 0)
(0.0393021 -9.49865e-06 0)
(0.0393014 -1.07123e-05 0)
(0.0393007 -1.19034e-05 0)
(0.0393 -1.30759e-05 0)
(0.0392993 -1.42193e-05 0)
(0.0392987 -1.53365e-05 0)
(0.0392981 -1.64141e-05 0)
(0.0392978 -1.74532e-05 0)
(0.0392976 -1.84534e-05 0)
(0.039305 -8.56801e-07 0)
(0.0393023 -2.02713e-06 0)
(0.0393021 -3.29628e-06 0)
(0.0393018 -4.57694e-06 0)
(0.0393014 -5.85491e-06 0)
(0.0393009 -7.12451e-06 0)
(0.0393003 -8.38437e-06 0)
(0.0392996 -9.62788e-06 0)
(0.0392989 -1.08578e-05 0)
(0.0392982 -1.20634e-05 0)
(0.0392975 -1.32514e-05 0)
(0.0392968 -1.44069e-05 0)
(0.0392962 -1.55383e-05 0)
(0.0392957 -1.66259e-05 0)
(0.0392953 -1.76773e-05 0)
(0.0392951 -1.8687e-05 0)
(0.0393024 -8.68565e-07 0)
(0.0392997 -2.05597e-06 0)
(0.0392995 -3.34326e-06 0)
(0.0392992 -4.64229e-06 0)
(0.0392988 -5.93874e-06 0)
(0.0392983 -7.22679e-06 0)
(0.0392977 -8.50516e-06 0)
(0.0392971 -9.76684e-06 0)
(0.0392964 -1.10153e-05 0)
(0.0392957 -1.22381e-05 0)
(0.039295 -1.34446e-05 0)
(0.0392944 -1.46156e-05 0)
(0.0392938 -1.57654e-05 0)
(0.0392933 -1.68669e-05 0)
(0.0392929 -1.79357e-05 0)
(0.0392927 -1.89593e-05 0)
(0.0392998 -8.80923e-07 0)
(0.0392971 -2.08524e-06 0)
(0.0392969 -3.391e-06 0)
(0.0392966 -4.70886e-06 0)
(0.0392962 -6.02436e-06 0)
(0.0392957 -7.33173e-06 0)
(0.0392951 -8.62958e-06 0)
(0.0392945 -9.91088e-06 0)
(0.0392939 -1.11793e-05 0)
(0.0392932 -1.24214e-05 0)
(0.0392925 -1.36486e-05 0)
(0.0392919 -1.48372e-05 0)
(0.0392913 -1.60079e-05 0)
(0.0392908 -1.71242e-05 0)
(0.0392904 -1.82116e-05 0)
(0.0392902 -1.92475e-05 0)
(0.0392972 -8.93463e-07 0)
(0.0392944 -2.11371e-06 0)
(0.0392942 -3.43748e-06 0)
(0.0392939 -4.77384e-06 0)
(0.0392935 -6.10814e-06 0)
(0.0392931 -7.43488e-06 0)
(0.0392925 -8.75231e-06 0)
(0.0392919 -1.00539e-05 0)
(0.0392913 -1.13429e-05 0)
(0.0392906 -1.26054e-05 0)
(0.03929 -1.38543e-05 0)
(0.0392894 -1.50618e-05 0)
(0.0392888 -1.62548e-05 0)
(0.0392883 -1.73855e-05 0)
(0.039288 -1.84918e-05 0)
(0.0392878 -1.95376e-05 0)
(0.0392945 -9.05655e-07 0)
(0.0392917 -2.13993e-06 0)
(0.0392915 -3.48034e-06 0)
(0.0392912 -4.8339e-06 0)
(0.0392908 -6.18576e-06 0)
(0.0392904 -7.53088e-06 0)
(0.0392899 -8.86695e-06 0)
(0.0392893 -1.01883e-05 0)
(0.0392887 -1.14974e-05 0)
(0.039288 -1.27806e-05 0)
(0.0392874 -1.4051e-05 0)
(0.0392868 -1.5278e-05 0)
(0.0392863 -1.64937e-05 0)
(0.0392859 -1.76379e-05 0)
(0.0392855 -1.87647e-05 0)
(0.0392854 -1.98162e-05 0)
(0.0392918 -9.16882e-07 0)
(0.0392889 -2.16227e-06 0)
(0.0392887 -3.5169e-06 0)
(0.0392885 -4.88524e-06 0)
(0.0392881 -6.25221e-06 0)
(0.0392877 -7.61347e-06 0)
(0.0392872 -8.96588e-06 0)
(0.0392866 -1.03052e-05 0)
(0.039286 -1.16322e-05 0)
(0.0392854 -1.2935e-05 0)
(0.0392848 -1.42254e-05 0)
(0.0392843 -1.54721e-05 0)
(0.0392838 -1.67097e-05 0)
(0.0392834 -1.78675e-05 0)
(0.0392831 -1.9017e-05 0)
(0.039283 -2.0069e-05 0)
(0.039289 -9.26443e-07 0)
(0.0392861 -2.17886e-06 0)
(0.0392859 -3.54406e-06 0)
(0.0392857 -4.92348e-06 0)
(0.0392853 -6.30184e-06 0)
(0.0392849 -7.67556e-06 0)
(0.0392844 -9.04055e-06 0)
(0.0392839 -1.03944e-05 0)
(0.0392833 -1.17358e-05 0)
(0.0392828 -1.30556e-05 0)
(0.0392822 -1.43628e-05 0)
(0.0392817 -1.56284e-05 0)
(0.0392812 -1.6886e-05 0)
(0.0392809 -1.80598e-05 0)
(0.0392807 -1.92315e-05 0)
(0.0392806 -2.02749e-05 0)
(0.0392862 -9.33545e-07 0)
(0.0392833 -2.18794e-06 0)
(0.0392831 -3.55891e-06 0)
(0.0392829 -4.94453e-06 0)
(0.0392825 -6.3293e-06 0)
(0.0392821 -7.71055e-06 0)
(0.0392816 -9.08315e-06 0)
(0.0392811 -1.04468e-05 0)
(0.0392806 -1.17979e-05 0)
(0.0392801 -1.31308e-05 0)
(0.0392795 -1.44504e-05 0)
(0.0392791 -1.57315e-05 0)
(0.0392787 -1.70027e-05 0)
(0.0392784 -1.8191e-05 0)
(0.0392783 -1.93739e-05 0)
(0.0392783 -2.03964e-05 0)
(0.0392834 -9.37428e-07 0)
(0.0392804 -2.18833e-06 0)
(0.0392803 -3.55979e-06 0)
(0.03928 -4.94633e-06 0)
(0.0392797 -6.3321e-06 0)
(0.0392793 -7.71523e-06 0)
(0.0392789 -9.08939e-06 0)
(0.0392784 -1.04563e-05 0)
(0.0392779 -1.18098e-05 0)
(0.0392774 -1.3148e-05 0)
(0.0392769 -1.44695e-05 0)
(0.0392764 -1.57543e-05 0)
(0.0392761 -1.70234e-05 0)
(0.0392759 -1.82094e-05 0)
(0.0392759 -1.93817e-05 0)
(0.039276 -2.03742e-05 0)
(0.0392805 -9.37583e-07 0)
(0.0392776 -2.17885e-06 0)
(0.0392774 -3.54464e-06 0)
(0.0392771 -4.92555e-06 0)
(0.0392768 -6.30501e-06 0)
(0.0392765 -7.68154e-06 0)
(0.039276 -9.04723e-06 0)
(0.0392756 -1.04053e-05 0)
(0.0392751 -1.17464e-05 0)
(0.0392746 -1.3072e-05 0)
(0.0392742 -1.4375e-05 0)
(0.0392738 -1.56419e-05 0)
(0.0392736 -1.68844e-05 0)
(0.0392735 -1.80455e-05 0)
(0.0392736 -1.91844e-05 0)
(0.0392739 -2.01414e-05 0)
(0.0392776 -9.335e-07 0)
(0.0392747 -2.15441e-06 0)
(0.0392745 -3.50414e-06 0)
(0.0392743 -4.86766e-06 0)
(0.039274 -6.22769e-06 0)
(0.0392736 -7.58295e-06 0)
(0.0392732 -8.9237e-06 0)
(0.0392728 -1.02543e-05 0)
(0.0392724 -1.15625e-05 0)
(0.039272 -1.28528e-05 0)
(0.0392716 -1.41135e-05 0)
(0.0392713 -1.53387e-05 0)
(0.0392711 -1.65304e-05 0)
(0.0392711 -1.76457e-05 0)
(0.0392714 -1.87306e-05 0)
(0.0392719 -1.96459e-05 0)
(0.0392747 -9.2304e-07 0)
(0.0392718 -2.10564e-06 0)
(0.0392717 -3.42335e-06 0)
(0.0392714 -4.75248e-06 0)
(0.0392712 -6.07507e-06 0)
(0.0392708 -7.39004e-06 0)
(0.0392705 -8.68591e-06 0)
(0.0392701 -9.9682e-06 0)
(0.0392697 -1.12222e-05 0)
(0.0392694 -1.24556e-05 0)
(0.0392691 -1.36527e-05 0)
(0.0392689 -1.48153e-05 0)
(0.0392688 -1.59364e-05 0)
(0.0392689 -1.699e-05 0)
(0.0392693 -1.8006e-05 0)
(0.03927 -1.88768e-05 0)
(0.0392719 -9.02206e-07 0)
(0.039269 -2.02492e-06 0)
(0.0392689 -3.29055e-06 0)
(0.0392687 -4.56504e-06 0)
(0.0392685 -5.82989e-06 0)
(0.0392682 -7.08418e-06 0)
(0.0392679 -8.31522e-06 0)
(0.0392675 -9.52951e-06 0)
(0.0392672 -1.07105e-05 0)
(0.0392669 -1.1869e-05 0)
(0.0392667 -1.29854e-05 0)
(0.0392666 -1.40699e-05 0)
(0.0392666 -1.5107e-05 0)
(0.0392668 -1.60893e-05 0)
(0.0392674 -1.70298e-05 0)
(0.0392682 -1.78588e-05 0)
(0.0392691 -8.67707e-07 0)
(0.0392664 -1.90961e-06 0)
(0.0392662 -3.10187e-06 0)
(0.0392661 -4.30084e-06 0)
(0.0392659 -5.48795e-06 0)
(0.0392656 -6.66245e-06 0)
(0.0392654 -7.81093e-06 0)
(0.0392651 -8.94072e-06 0)
(0.0392649 -1.00338e-05 0)
(0.0392646 -1.11039e-05 0)
(0.0392645 -1.21283e-05 0)
(0.0392644 -1.31249e-05 0)
(0.0392646 -1.40708e-05 0)
(0.0392649 -1.49775e-05 0)
(0.0392656 -1.58412e-05 0)
(0.0392666 -1.66325e-05 0)
(0.0392664 -8.18376e-07 0)
(0.0392639 -1.76295e-06 0)
(0.0392638 -2.86279e-06 0)
(0.0392637 -3.96782e-06 0)
(0.0392635 -5.06e-06 0)
(0.0392633 -6.13884e-06 0)
(0.0392631 -7.19065e-06 0)
(0.0392629 -8.22336e-06 0)
(0.0392627 -9.21798e-06 0)
(0.0392626 -1.01908e-05 0)
(0.0392625 -1.11163e-05 0)
(0.0392625 -1.20198e-05 0)
(0.0392628 -1.28718e-05 0)
(0.0392632 -1.37021e-05 0)
(0.039264 -1.44903e-05 0)
(0.0392651 -1.52467e-05 0)
(0.0392639 -7.55582e-07 0)
(0.0392617 -1.59342e-06 0)
(0.0392616 -2.58694e-06 0)
(0.0392615 -3.58456e-06 0)
(0.0392613 -4.56936e-06 0)
(0.0392612 -5.54112e-06 0)
(0.039261 -6.4864e-06 0)
(0.0392609 -7.41351e-06 0)
(0.0392608 -8.30306e-06 0)
(0.0392607 -9.1732e-06 0)
(0.0392607 -9.99672e-06 0)
(0.0392608 -1.0805e-05 0)
(0.0392612 -1.15633e-05 0)
(0.0392617 -1.23175e-05 0)
(0.0392626 -1.30322e-05 0)
(0.0392638 -1.37549e-05 0)
(0.0392617 -6.82952e-07 0)
(0.0392597 -1.41253e-06 0)
(0.0392596 -2.29274e-06 0)
(0.0392596 -3.17598e-06 0)
(0.0392595 -4.04682e-06 0)
(0.0392593 -4.90531e-06 0)
(0.0392592 -5.73872e-06 0)
(0.0392591 -6.55566e-06 0)
(0.0392591 -7.33692e-06 0)
(0.0392591 -8.10209e-06 0)
(0.0392592 -8.82303e-06 0)
(0.0392594 -9.53595e-06 0)
(0.0392598 -1.02021e-05 0)
(0.0392604 -1.08808e-05 0)
(0.0392613 -1.15239e-05 0)
(0.0392625 -1.22119e-05 0)
(0.0392597 -6.0544e-07 0)
(0.039258 -1.23209e-06 0)
(0.039258 -1.99915e-06 0)
(0.0392579 -2.76788e-06 0)
(0.0392578 -3.52443e-06 0)
(0.0392578 -4.26906e-06 0)
(0.0392577 -4.99003e-06 0)
(0.0392577 -5.69619e-06 0)
(0.0392577 -6.36917e-06 0)
(0.0392577 -7.02955e-06 0)
(0.0392579 -7.64927e-06 0)
(0.0392581 -8.26791e-06 0)
(0.0392586 -8.84434e-06 0)
(0.0392592 -9.44803e-06 0)
(0.0392602 -1.00211e-05 0)
(0.0392614 -1.06715e-05 0)
(0.039258 -5.28122e-07 0)
(0.0392566 -1.06174e-06 0)
(0.0392565 -1.72183e-06 0)
(0.0392565 -2.38198e-06 0)
(0.0392565 -3.02978e-06 0)
(0.0392564 -3.66548e-06 0)
(0.0392564 -4.27839e-06 0)
(0.0392564 -4.87739e-06 0)
(0.0392565 -5.44546e-06 0)
(0.0392566 -6.00382e-06 0)
(0.0392568 -6.52549e-06 0)
(0.0392571 -7.05204e-06 0)
(0.0392576 -7.54165e-06 0)
(0.0392583 -8.0707e-06 0)
(0.0392592 -8.57486e-06 0)
(0.0392604 -9.18365e-06 0)
(0.0392566 -4.55135e-07 0)
(0.0392554 -9.07574e-07 0)
(0.0392554 -1.47087e-06 0)
(0.0392554 -2.03266e-06 0)
(0.0392554 -2.58185e-06 0)
(0.0392554 -3.1184e-06 0)
(0.0392554 -3.63247e-06 0)
(0.0392554 -4.13244e-06 0)
(0.0392555 -4.60286e-06 0)
(0.0392557 -5.0651e-06 0)
(0.0392559 -5.49411e-06 0)
(0.0392563 -5.93212e-06 0)
(0.0392568 -6.33849e-06 0)
(0.0392574 -6.7933e-06 0)
(0.0392583 -7.22977e-06 0)
(0.0392595 -7.792e-06 0)