/*--------------------------------*- C++ -*----------------------------------*\
| =========                 |                                                 |
| \\      /  F ield         | OpenFOAM: The Open Source CFD Toolbox           |
|  \\    /   O peration     | Version:  4.1                                   |
|   \\  /    A nd           | Web:      www.OpenFOAM.org                      |
|    \\/     M anipulation  |                                                 |
\*---------------------------------------------------------------------------*/
FoamFile
{
    version     2.0;
    format      ascii;
    class       surfaceVectorField;
    location    "0.0001";
    object      Uf;
}
// * * * * * * * * * * * * * * * * * * * * * * * * * * * * * * * * * * * * * //

dimensions      [0 1 -1 0 0 0 0];

internalField   nonuniform List<vector> 
17536
(
(2.66008 -7.88973e-05 9.73268e-06)
(2.65977 -2.79978e-05 7.22341e-06)
(2.65977 -2.67266e-05 4.56899e-06)
(2.66081 -2.41294e-05 9.4369e-06)
(2.66081 -2.30245e-05 6.64829e-07)
(2.66016 -0.000156421 1.46911e-05)
(2.65975 -0.00011406 2.22259e-05)
(2.65975 -0.000111733 1.16265e-06)
(2.66078 -0.000108601 2.56746e-05)
(2.66078 -0.000106761 -7.82302e-06)
(2.66028 -0.000179939 1.66245e-05)
(2.65993 -0.000169751 3.12061e-05)
(2.65993 -0.000166645 -1.00945e-06)
(2.66092 -0.000165345 3.47893e-05)
(2.66092 -0.000163098 -1.28807e-05)
(2.66039 -0.000152313 1.54393e-05)
(2.66004 -0.000159026 2.88929e-05)
(2.66004 -0.000155855 2.0861e-06)
(2.661 -0.000156314 3.19226e-05)
(2.661 -0.000154072 -1.0523e-05)
(2.66046 -0.000105054 1.23204e-05)
(2.66015 -0.000121773 2.27427e-05)
(2.66015 -0.000119171 3.9207e-06)
(2.66108 -0.000120592 2.36646e-05)
(2.66108 -0.000118768 -6.12594e-06)
(2.66051 -5.45613e-05 8.08688e-06)
(2.66021 -7.44031e-05 1.52857e-05)
(2.66021 -7.30504e-05 5.40566e-06)
(2.66113 -7.49806e-05 1.45603e-05)
(2.66113 -7.32073e-05 -1.32715e-06)
(2.66052 -1.11932e-05 3.62246e-06)
(2.66024 -2.97779e-05 7.09159e-06)
(2.66024 -2.80825e-05 3.71977e-06)
(2.66115 -2.96523e-05 3.24712e-06)
(2.66115 -2.93593e-05 2.76939e-06)
(2.66051 2.26349e-05 2.95194e-08)
(2.66024 5.56524e-06 -2.35415e-07)
(2.66024 6.29943e-06 3.47514e-06)
(2.66115 3.06889e-06 -1.52961e-06)
(2.66115 3.53279e-06 2.82715e-06)
(2.66048 4.70645e-05 -2.62831e-06)
(2.66022 3.29738e-05 -5.59117e-06)
(2.66022 3.2771e-05 3.12354e-06)
(2.66113 3.08911e-05 -7.47126e-06)
(2.66113 3.08497e-05 4.914e-06)
(2.66044 6.21701e-05 -4.43771e-06)
(2.66018 5.12184e-05 -8.9412e-06)
(2.66018 5.04462e-05 2.20536e-06)
(2.66111 4.89672e-05 -1.09517e-05)
(2.66111 4.86638e-05 5.90495e-06)
(2.6604 6.93242e-05 -5.42507e-06)
(2.66013 6.15586e-05 -1.08248e-05)
(2.66013 6.0426e-05 1.4421e-06)
(2.66107 5.93368e-05 -1.28939e-05)
(2.66107 5.88241e-05 6.39452e-06)
(2.66035 6.95123e-05 -5.69186e-06)
(2.66008 6.50261e-05 -1.13975e-05)
(2.66008 6.37229e-05 8.93043e-07)
(2.66103 6.29771e-05 -1.34401e-05)
(2.66103 6.23388e-05 6.50028e-06)
(2.66031 6.37291e-05 -5.41087e-06)
(2.66003 6.24115e-05 -1.09034e-05)
(2.66003 6.10807e-05 4.51463e-07)
(2.661 6.06428e-05 -1.28034e-05)
(2.661 5.99527e-05 6.16836e-06)
(2.66027 5.33241e-05 -4.75233e-06)
(2.65998 5.47849e-05 -9.60913e-06)
(2.65998 5.35184e-05 5.24332e-08)
(2.66096 5.33612e-05 -1.12164e-05)
(2.66096 5.26815e-05 5.41216e-06)
(2.66023 4.00092e-05 -3.85799e-06)
(2.65994 4.3553e-05 -7.8235e-06)
(2.65994 4.2421e-05 -3.14072e-07)
(2.66093 4.25035e-05 -8.98954e-06)
(2.66093 4.18795e-05 4.32534e-06)
(2.66021 2.53489e-05 -2.83531e-06)
(2.65991 3.04246e-05 -5.79973e-06)
(2.65991 2.94788e-05 -5.91355e-07)
(2.66091 2.97239e-05 -6.4288e-06)
(2.66091 2.91967e-05 3.08438e-06)
(2.6602 1.02789e-05 -1.77845e-06)
(2.65989 1.65394e-05 -3.72626e-06)
(2.6599 1.58165e-05 -7.80634e-07)
(2.6609 1.61705e-05 -3.79503e-06)
(2.66089 1.57809e-05 1.84408e-06)
(2.66019 -4.87228e-06 -9.06182e-07)
(2.65989 2.6228e-06 -1.6428e-06)
(2.65989 2.10453e-06 -1.02107e-06)
(2.66089 2.36103e-06 -1.16525e-06)
(2.66089 2.12372e-06 5.62462e-07)
(2.6602 -2.03502e-05 -1.59728e-07)
(2.65989 -1.12839e-05 2.24139e-07)
(2.65989 -1.17318e-05 -1.55519e-06)
(2.66089 -1.11139e-05 7.29675e-07)
(2.66089 -1.11987e-05 -4.54708e-07)
(2.66021 -3.64955e-05 7.38637e-07)
(2.6599 -2.58827e-05 1.83812e-06)
(2.6599 -2.61072e-05 -1.804e-06)
(2.6609 -2.56109e-05 3.36551e-06)
(2.6609 -2.57507e-05 -2.11669e-06)
(2.66023 -5.34321e-05 1.80891e-06)
(2.65992 -4.12212e-05 3.79982e-06)
(2.65992 -4.13017e-05 -1.99487e-06)
(2.66091 -4.07038e-05 6.17294e-06)
(2.66091 -4.06905e-05 -3.51549e-06)
(2.66027 -7.13486e-05 3.10873e-06)
(2.65995 -5.7298e-05 6.15523e-06)
(2.65995 -5.72857e-05 -2.14476e-06)
(2.66093 -5.64823e-05 9.14994e-06)
(2.66093 -5.63228e-05 -4.88797e-06)
(2.66031 -9.04892e-05 4.80297e-06)
(2.65999 -7.44303e-05 8.93833e-06)
(2.65999 -7.42918e-05 -2.04452e-06)
(2.66096 -7.32376e-05 1.24566e-05)
(2.66096 -7.29248e-05 -6.09165e-06)
(2.66037 -0.000111311 6.99737e-06)
(2.66004 -9.28277e-05 1.2245e-05)
(2.66004 -9.25445e-05 -1.48066e-06)
(2.661 -9.119e-05 1.62389e-05)
(2.661 -9.0714e-05 -6.96568e-06)
(2.66044 -0.000134543 9.77187e-06)
(2.66011 -0.000113119 1.61739e-05)
(2.66011 -0.000112694 -4.43054e-07)
(2.66105 -0.000110942 2.06332e-05)
(2.66105 -0.000110276 -7.45574e-06)
(2.66051 -0.000160682 1.32789e-05)
(2.66019 -0.000135965 2.09465e-05)
(2.66019 -0.000135435 1.12847e-06)
(2.66111 -0.000133108 2.5861e-05)
(2.66111 -0.000132228 -7.46277e-06)
(2.6606 -0.000189567 1.77485e-05)
(2.66028 -0.000161563 2.67546e-05)
(2.66028 -0.000160992 3.49658e-06)
(2.66117 -0.000157847 3.20844e-05)
(2.66117 -0.000156754 -6.65679e-06)
(2.6607 -0.0002206 2.35122e-05)
(2.66038 -0.000189414 3.37685e-05)
(2.66038 -0.00018891 7.17441e-06)
(2.66124 -0.000184659 3.93828e-05)
(2.66124 -0.000183415 -4.43346e-06)
(2.66081 -0.000253389 3.10011e-05)
(2.66049 -0.000219029 4.22835e-05)
(2.66049 -0.000218775 1.2608e-05)
(2.66132 -0.000212973 4.80312e-05)
(2.66132 -0.000211551 -6.11223e-08)
(2.66092 -0.000288321 4.10325e-05)
(2.66061 -0.000250313 5.28357e-05)
(2.66061 -0.000250724 2.01445e-05)
(2.6614 -0.0002426 5.84476e-05)
(2.66141 -0.000240876 7.0073e-06)
(2.66103 -0.000327841 5.49908e-05)
(2.66073 -0.000284386 6.65541e-05)
(2.66074 -0.000285924 3.07391e-05)
(2.66148 -0.000274433 7.20467e-05)
(2.66149 -0.000271794 1.83721e-05)
(2.66113 -0.000377242 7.47604e-05)
(2.66085 -0.00032468 8.54638e-05)
(2.66086 -0.000328124 4.63083e-05)
(2.66156 -0.000311676 9.03911e-05)
(2.66156 -0.000307906 3.59318e-05)
(2.66121 -0.000444815 0.000102883)
(2.66095 -0.000377148 0.000112295)
(2.66096 -0.000383624 6.89669e-05)
(2.66162 -0.000359847 0.000115969)
(2.66162 -0.000354749 6.23006e-05)
(2.66127 -0.000542353 0.00014287)
(2.66104 -0.000450599 0.000150564)
(2.66105 -0.000461813 0.000101508)
(2.66165 -0.000427207 0.000152469)
(2.66166 -0.000420609 0.000100994)
(2.6613 -0.000684081 0.000200116)
(2.6611 -0.000556643 0.000204967)
(2.66112 -0.000574715 0.000147832)
(2.66165 -0.000525495 0.000205092)
(2.66166 -0.000516512 0.000157624)
(2.66127 -0.00089084 0.000283624)
(2.66111 -0.000708908 0.000282513)
(2.66114 -0.00073676 0.000215249)
(2.6616 -0.000666853 0.00028048)
(2.66162 -0.000654778 0.000241818)
(2.66116 -0.00119344 0.00040629)
(2.66106 -0.000932345 0.000394094)
(2.66111 -0.000973785 0.000315789)
(2.66148 -0.000876789 0.000393746)
(2.6615 -0.000859397 0.000366891)
(2.66094 -0.00163718 0.000589102)
(2.66092 -0.0012612 0.000553597)
(2.661 -0.00132054 0.000464577)
(2.66124 -0.00118542 0.000559852)
(2.66129 -0.00116718 0.000548832)
(2.66058 -0.00231287 0.00086953)
(2.66066 -0.00175438 0.000786406)
(2.66077 -0.00184114 0.000695824)
(2.66086 -0.00165226 0.000814313)
(2.66093 -0.00163931 0.000817896)
(2.66007 -0.00341326 0.00128077)
(2.66026 -0.00254177 0.00112904)
(2.66042 -0.00264304 0.00104734)
(2.66029 -0.00238991 0.00120336)
(2.6604 -0.00241387 0.00121274)
(2.65942 -0.00522995 0.00188399)
(2.65972 -0.00374304 0.00173375)
(2.65996 -0.0039556 0.00153173)
(2.65948 -0.0036473 0.00177711)
(2.65964 -0.00358917 0.00190958)
(2.65882 -0.00822323 0.00279602)
(2.65913 -0.00570762 0.00264514)
(2.6595 -0.00608333 0.00225606)
(2.65847 -0.00578687 0.00268354)
(2.65872 -0.00553503 0.00296383)
(2.65898 -0.0132766 0.00423076)
(2.65891 -0.00894016 0.00406505)
(2.6595 -0.00956399 0.00333872)
(2.65748 -0.00945943 0.00413248)
(2.65791 -0.00883188 0.00456769)
(2.66138 -0.0213724 0.00652166)
(2.65943 -0.0143912 0.00649103)
(2.66039 -0.0151789 0.00477083)
(2.65695 -0.0155076 0.00632547)
(2.65758 -0.0145632 0.00715293)
(2.66719 -0.0363276 0.0096434)
(2.66416 -0.0227203 0.0104463)
(2.66549 -0.0236362 0.00700574)
(2.66002 -0.024423 0.00967284)
(2.66075 -0.0234707 0.0113438)
(2.6879 -0.0681481 0.0114648)
(2.6825 -0.0397349 0.0153556)
(2.68332 -0.0407939 0.0101798)
(2.67444 -0.0462457 0.014577)
(2.67537 -0.0439973 0.0176913)
(2.77814 -0.0706025 0.00803636)
(2.7002 -0.0767269 0.0189696)
(2.69876 -0.075279 0.00567598)
(2.69745 -0.103604 0.0149566)
(2.69637 -0.093413 0.0220446)
(2.84549 -0.0424282 0.0126117)
(2.82927 -0.0415822 -0.00214678)
(2.85188 -0.051556 0.0113657)
(2.83003 -0.0458794 0.00703297)
(2.65946 -7.14366e-05 1.14409e-05)
(2.65935 -2.46153e-05 6.56231e-06)
(2.65901 -2.56324e-05 3.7418e-06)
(2.66014 -2.61855e-05 6.50696e-06)
(2.65954 -0.000141251 2.48797e-05)
(2.65933 -0.000100484 3.1919e-05)
(2.659 -0.000102807 1.24792e-05)
(2.66012 -0.000109147 3.11657e-05)
(2.65967 -0.000162449 2.98635e-05)
(2.65951 -0.000148882 5.00748e-05)
(2.65919 -0.000152429 2.01083e-05)
(2.66027 -0.000163005 4.85597e-05)
(2.65979 -0.000137792 2.68915e-05)
(2.65963 -0.00013895 4.7046e-05)
(2.65933 -0.000143009 2.0803e-05)
(2.66036 -0.000152854 4.4649e-05)
(2.65988 -9.50773e-05 2.17532e-05)
(2.65974 -0.000106316 3.78952e-05)
(2.65945 -0.00010973 1.88557e-05)
(2.66045 -0.000116709 3.48075e-05)
(2.65993 -4.91087e-05 1.48013e-05)
(2.65981 -6.50606e-05 2.55029e-05)
(2.65953 -6.63105e-05 1.47401e-05)
(2.6605 -7.01014e-05 2.2318e-05)
(2.65995 -1.06597e-05 5.59351e-06)
(2.65984 -2.58057e-05 1.23365e-05)
(2.65956 -2.58873e-05 8.80596e-06)
(2.66053 -2.59395e-05 8.49007e-06)
(2.65994 1.98276e-05 -1.93258e-06)
(2.65984 4.71543e-06 -7.25176e-07)
(2.65956 4.20293e-06 1.90392e-06)
(2.66053 4.66072e-06 -1.86668e-06)
(2.65991 4.3193e-05 -5.83876e-06)
(2.65982 2.92854e-05 -8.55774e-06)
(2.65953 2.91269e-05 -1.05425e-06)
(2.66051 3.27735e-05 -9.50901e-06)
(2.65987 5.75669e-05 -8.36821e-06)
(2.65978 4.53983e-05 -1.39356e-05)
(2.65949 4.57603e-05 -3.59324e-06)
(2.66048 5.09662e-05 -1.43399e-05)
(2.65981 6.4428e-05 -9.62976e-06)
(2.65973 5.45136e-05 -1.7048e-05)
(2.65944 5.51875e-05 -5.21081e-06)
(2.66044 6.12865e-05 -1.70525e-05)
(2.65976 6.47582e-05 -9.77611e-06)
(2.65968 5.75506e-05 -1.81145e-05)
(2.65938 5.83974e-05 -5.93357e-06)
(2.6604 6.47987e-05 -1.78536e-05)
(2.65971 5.95195e-05 -9.04945e-06)
(2.65962 5.52123e-05 -1.74448e-05)
(2.65932 5.60942e-05 -5.95656e-06)
(2.66035 6.22913e-05 -1.70354e-05)
(2.65966 4.99667e-05 -7.72746e-06)
(2.65957 4.84652e-05 -1.54438e-05)
(2.65926 4.92351e-05 -5.47406e-06)
(2.66031 5.48421e-05 -1.49535e-05)
(2.65963 3.76623e-05 -6.07143e-06)
(2.65953 3.85534e-05 -1.25728e-05)
(2.65922 3.90769e-05 -4.68204e-06)
(2.66028 4.38301e-05 -1.20421e-05)
(2.6596 2.40241e-05 -4.28167e-06)
(2.6595 2.69776e-05 -9.26524e-06)
(2.65918 2.71773e-05 -3.70284e-06)
(2.66026 3.09107e-05 -8.72627e-06)
(2.65958 9.9721e-06 -2.50181e-06)
(2.65948 1.47035e-05 -5.83303e-06)
(2.65916 1.45575e-05 -2.65427e-06)
(2.66024 1.71991e-05 -5.31513e-06)
(2.65958 -3.86437e-06 -5.8809e-07)
(2.65947 2.4469e-06 -2.42346e-06)
(2.65915 1.93943e-06 -1.66471e-06)
(2.66023 3.33721e-06 -1.95617e-06)
(2.65959 -1.8066e-05 9.72309e-07)
(2.65947 -9.84439e-06 1.0266e-06)
(2.65915 -1.0542e-05 -4.95645e-07)
(2.66023 -9.76137e-06 1.17871e-06)
(2.6596 -3.32708e-05 2.23693e-06)
(2.65948 -2.26593e-05 3.97563e-06)
(2.65916 -2.40233e-05 3.55262e-08)
(2.66024 -2.42771e-05 4.12911e-06)
(2.65963 -4.92135e-05 4.01964e-06)
(2.6595 -3.63426e-05 7.19383e-06)
(2.65918 -3.82029e-05 8.60083e-07)
(2.66026 -3.97058e-05 7.64422e-06)
(2.65967 -6.60533e-05 6.31116e-06)
(2.65954 -5.07139e-05 1.11121e-05)
(2.65922 -5.30246e-05 2.1188e-06)
(2.66028 -5.57146e-05 1.15357e-05)
(2.65972 -8.40859e-05 9.0633e-06)
(2.65958 -6.61239e-05 1.55634e-05)
(2.65927 -6.88392e-05 3.78639e-06)
(2.66032 -7.28055e-05 1.59078e-05)
(2.65978 -0.000103702 1.23555e-05)
(2.65964 -8.27518e-05 2.05953e-05)
(2.65933 -8.58418e-05 5.95482e-06)
(2.66037 -9.11306e-05 2.07893e-05)
(2.65986 -0.000125548 1.63411e-05)
(2.65971 -0.000101171 2.63308e-05)
(2.65941 -0.000104629 8.69385e-06)
(2.66042 -0.000111244 2.63318e-05)
(2.65995 -0.000150059 2.12095e-05)
(2.6598 -0.000122036 3.29646e-05)
(2.65951 -0.000125855 1.21675e-05)
(2.66049 -0.000133771 3.28014e-05)
(2.66005 -0.000177064 2.71204e-05)
(2.65989 -0.00014558 4.05905e-05)
(2.65961 -0.000149757 1.65938e-05)
(2.66056 -0.000158839 4.03167e-05)
(2.66017 -0.000206074 3.43094e-05)
(2.66001 -0.000171436 4.91604e-05)
(2.65974 -0.000175965 2.22681e-05)
(2.66065 -0.000185891 4.88315e-05)
(2.6603 -0.000236834 4.32371e-05)
(2.66013 -0.000199373 5.88142e-05)
(2.65987 -0.000204193 2.95995e-05)
(2.66074 -0.000214445 5.84736e-05)
(2.66043 -0.000269957 5.47774e-05)
(2.66026 -0.00022957 6.99728e-05)
(2.66002 -0.000234462 3.91801e-05)
(2.66084 -0.000244416 6.96575e-05)
(2.66056 -0.000307751 7.05e-05)
(2.66039 -0.000263586 8.35809e-05)
(2.66017 -0.000268177 5.21139e-05)
(2.66094 -0.000276998 8.34569e-05)
(2.66068 -0.000354807 9.27769e-05)
(2.66052 -0.000304843 0.000101452)
(2.66032 -0.000308613 7.04033e-05)
(2.66103 -0.000315272 0.000101646)
(2.66079 -0.000418332 0.000124576)
(2.66064 -0.000359402 0.000126266)
(2.66045 -0.000361625 9.65981e-05)
(2.66111 -0.000364685 0.000127041)
(2.66087 -0.000508076 0.000169473)
(2.66075 -0.000436068 0.000161086)
(2.66058 -0.000435629 0.00013376)
(2.66116 -0.00043319 0.000163168)
(2.66093 -0.000636005 0.000232828)
(2.66082 -0.00054576 0.00020846)
(2.66067 -0.000540797 0.000186646)
(2.66118 -0.000530775 0.000213974)
(2.66093 -0.000820395 0.000322999)
(2.66086 -0.00070298 0.000274234)
(2.66074 -0.00069059 0.000261736)
(2.66116 -0.000669958 0.000286162)
(2.66086 -0.00108955 0.000451948)
(2.66084 -0.000932782 0.000365484)
(2.66074 -0.000907175 0.000369494)
(2.66106 -0.000872976 0.000389882)
(2.66068 -0.0014875 0.00064178)
(2.66073 -0.00126722 0.000494484)
(2.66067 -0.00122309 0.000524253)
(2.66087 -0.00117012 0.00053667)
(2.66037 -0.00209674 0.000932425)
(2.66052 -0.0017631 0.000692614)
(2.6605 -0.00170227 0.000759895)
(2.66053 -0.00162232 0.000758507)
(2.65998 -0.0030698 0.00138371)
(2.66019 -0.00252943 0.00100306)
(2.66025 -0.00244107 0.00111997)
(2.66004 -0.00234039 0.00109969)
(2.65948 -0.00463973 0.00207581)
(2.65977 -0.00373746 0.00150026)
(2.65991 -0.00359649 0.00164796)
(2.65937 -0.00353407 0.00163729)
(2.65913 -0.00717872 0.00316072)
(2.65938 -0.00565904 0.00226712)
(2.65963 -0.0054346 0.0024424)
(2.65857 -0.00551429 0.00247559)
(2.65963 -0.0113635 0.00502336)
(2.65946 -0.00876925 0.00347733)
(2.6599 -0.00837548 0.00367812)
(2.65793 -0.00887422 0.00388746)
(2.66259 -0.0179974 0.00819764)
(2.66035 -0.0138829 0.00570103)
(2.66106 -0.0130159 0.00560348)
(2.65776 -0.0143797 0.00625196)
(2.66985 -0.0295871 0.0128689)
(2.66579 -0.0217081 0.0093682)
(2.66671 -0.0199818 0.00872792)
(2.66177 -0.0228048 0.0101657)
(2.69312 -0.0527526 0.018843)
(2.6863 -0.03534 0.0149429)
(2.68747 -0.0329556 0.0132036)
(2.67985 -0.0403516 0.0152576)
(2.78449 -0.0537768 0.0187573)
(2.7014 -0.0610469 0.024999)
(2.70229 -0.057926 0.0154004)
(2.69779 -0.0824087 0.0216358)
(2.84589 -0.035559 0.0159422)
(2.8458 -0.0329984 0.00991436)
(2.8523 -0.0468206 0.0203379)
(2.65925 -5.65752e-05 2.41283e-05)
(2.65922 -2.03643e-05 9.46879e-06)
(2.65874 -2.14673e-05 9.4105e-06)
(2.65989 -2.13219e-05 9.85304e-06)
(2.65933 -0.000113716 5.15138e-05)
(2.65921 -8.43707e-05 4.7466e-05)
(2.65873 -8.61359e-05 3.74171e-05)
(2.65987 -9.10846e-05 4.84494e-05)
(2.65945 -0.000131874 6.07665e-05)
(2.65938 -0.000125672 7.4256e-05)
(2.65893 -0.00012782 5.58219e-05)
(2.66001 -0.000137215 7.53273e-05)
(2.65957 -0.000112836 5.26871e-05)
(2.6595 -0.000117131 7.00204e-05)
(2.65906 -0.000120137 5.23416e-05)
(2.66011 -0.000128815 7.00169e-05)
(2.65966 -7.92262e-05 3.87176e-05)
(2.65961 -8.99107e-05 5.55952e-05)
(2.65918 -9.26224e-05 4.12259e-05)
(2.66019 -9.91943e-05 5.43257e-05)
(2.65971 -4.22135e-05 2.25822e-05)
(2.65968 -5.53733e-05 3.61713e-05)
(2.65926 -5.66198e-05 2.62644e-05)
(2.66025 -6.06177e-05 3.39367e-05)
(2.65973 -1.01246e-05 6.32387e-06)
(2.65971 -2.21572e-05 1.6518e-05)
(2.6593 -2.26647e-05 1.12426e-05)
(2.66027 -2.30522e-05 1.31913e-05)
(2.65972 1.50122e-05 -6.5113e-06)
(2.65971 4.17396e-06 -2.12893e-06)
(2.6593 2.47322e-06 -1.29609e-06)
(2.66027 4.3673e-06 -3.23449e-06)
(2.65969 3.3472e-05 -1.46732e-05)
(2.65969 2.43394e-05 -1.35339e-05)
(2.65927 2.30473e-05 -1.06435e-05)
(2.66026 2.71636e-05 -1.50073e-05)
(2.65965 4.49575e-05 -2.00028e-05)
(2.65965 3.75858e-05 -2.16522e-05)
(2.65923 3.68493e-05 -1.72377e-05)
(2.66023 4.22195e-05 -2.30935e-05)
(2.6596 5.05489e-05 -2.26201e-05)
(2.6596 4.51394e-05 -2.63355e-05)
(2.65917 4.47782e-05 -2.10477e-05)
(2.66019 5.08386e-05 -2.77236e-05)
(2.65954 5.09433e-05 -2.28447e-05)
(2.65955 4.76784e-05 -2.79301e-05)
(2.65911 4.75742e-05 -2.23827e-05)
(2.66014 5.38096e-05 -2.92528e-05)
(2.65949 4.68844e-05 -2.11126e-05)
(2.65949 4.57483e-05 -2.68757e-05)
(2.65905 4.57833e-05 -2.16298e-05)
(2.6601 5.17565e-05 -2.80888e-05)
(2.65944 3.93778e-05 -1.79632e-05)
(2.65944 4.01586e-05 -2.37677e-05)
(2.659 4.0202e-05 -1.9265e-05)
(2.66006 4.55944e-05 -2.48104e-05)
(2.65941 2.96714e-05 -1.39639e-05)
(2.6594 3.1956e-05 -1.92778e-05)
(2.65895 3.1878e-05 -1.58322e-05)
(2.66003 3.64812e-05 -2.01034e-05)
(2.65938 1.88812e-05 -9.59246e-06)
(2.65937 2.23854e-05 -1.40799e-05)
(2.65891 2.21037e-05 -1.18268e-05)
(2.66 2.57922e-05 -1.46649e-05)
(2.65936 7.74114e-06 -5.19187e-06)
(2.65935 1.22376e-05 -8.63574e-06)
(2.65889 1.16942e-05 -7.61302e-06)
(2.65999 1.44167e-05 -8.9782e-06)
(2.65936 -3.37146e-06 -6.47101e-07)
(2.65934 1.97139e-06 -3.30738e-06)
(2.65888 1.22151e-06 -3.51502e-06)
(2.65998 2.90816e-06 -3.32896e-06)
(2.65937 -1.47685e-05 3.69905e-06)
(2.65934 -8.27016e-06 2.28777e-06)
(2.65888 -9.09708e-06 5.97642e-07)
(2.65998 -8.22969e-06 2.23806e-06)
(2.65938 -2.68617e-05 7.80194e-06)
(2.65935 -1.87737e-05 7.48392e-06)
(2.65889 -1.99636e-05 4.04905e-06)
(2.65999 -1.96582e-05 6.97999e-06)
(2.65941 -3.97115e-05 1.24177e-05)
(2.65937 -3.0135e-05 1.28638e-05)
(2.65892 -3.17949e-05 8.16906e-06)
(2.66 -3.23183e-05 1.26103e-05)
(2.65945 -5.34159e-05 1.7733e-05)
(2.6594 -4.23789e-05 1.8844e-05)
(2.65895 -4.43627e-05 1.30351e-05)
(2.66003 -4.62624e-05 1.93766e-05)
(2.6595 -6.81644e-05 2.3721e-05)
(2.65945 -5.55166e-05 2.56115e-05)
(2.65901 -5.76963e-05 1.85237e-05)
(2.66007 -6.08696e-05 2.65477e-05)
(2.65957 -8.43642e-05 3.04273e-05)
(2.65951 -6.97924e-05 3.31138e-05)
(2.65907 -7.21367e-05 2.46756e-05)
(2.66012 -7.6604e-05 3.4347e-05)
(2.65965 -0.000102607 3.8006e-05)
(2.65958 -8.57286e-05 4.14797e-05)
(2.65915 -8.82504e-05 3.15977e-05)
(2.66017 -9.4011e-05 4.29457e-05)
(2.65974 -0.000123337 4.65664e-05)
(2.65967 -0.000103965 5.0856e-05)
(2.65925 -0.000106658 3.94807e-05)
(2.66024 -0.000113685 5.25675e-05)
(2.65985 -0.000146553 5.60294e-05)
(2.65977 -0.00012479 6.12144e-05)
(2.65936 -0.000127669 4.83756e-05)
(2.66032 -0.000135824 6.31904e-05)
(2.65997 -0.000172085 6.63157e-05)
(2.65988 -0.000148016 7.22555e-05)
(2.65949 -0.000151126 5.81694e-05)
(2.66041 -0.00016009 7.44735e-05)
(2.6601 -0.000200047 7.76116e-05)
(2.66001 -0.000173671 8.38984e-05)
(2.65963 -0.000176996 6.89562e-05)
(2.6605 -0.000186338 8.62904e-05)
(2.66023 -0.000231458 9.05171e-05)
(2.66014 -0.00020226 9.63293e-05)
(2.65978 -0.000205531 8.11282e-05)
(2.66061 -0.00021486 9.88463e-05)
(2.66036 -0.000268906 0.000106305)
(2.66028 -0.000235661 0.000110298)
(2.65994 -0.000238409 9.55532e-05)
(2.66071 -0.000247253 0.000112869)
(2.66049 -0.000317213 0.000127166)
(2.66041 -0.000277396 0.000127372)
(2.66009 -0.000278868 0.000113876)
(2.6608 -0.000286756 0.000129838)
(2.66061 -0.000383926 0.000155988)
(2.66054 -0.000333648 0.00015007)
(2.66024 -0.000332798 0.000138457)
(2.66089 -0.000339026 0.000152135)
(2.6607 -0.000478352 0.000195473)
(2.66064 -0.000413507 0.000180939)
(2.66037 -0.000408573 0.00017172)
(2.66095 -0.000412575 0.000182789)
(2.66077 -0.000613109 0.000249491)
(2.66073 -0.000527006 0.00022272)
(2.66048 -0.000518019 0.000218376)
(2.66098 -0.000517689 0.000225087)
(2.66079 -0.000807985 0.0003241)
(2.66078 -0.000689291 0.000279726)
(2.66056 -0.000675042 0.000282242)
(2.66097 -0.000667311 0.000281874)
(2.66074 -0.00109081 0.000427653)
(2.66078 -0.000923716 0.000356854)
(2.66059 -0.000903686 0.000372605)
(2.6609 -0.000886797 0.000361861)
(2.66061 -0.00150962 0.00057852)
(2.6607 -0.00126315 0.0004653)
(2.66055 -0.00123806 0.000501764)
(2.66073 -0.00120838 0.000474573)
(2.66036 -0.00215009 0.000808951)
(2.66054 -0.00177172 0.000628404)
(2.66043 -0.00173354 0.000687242)
(2.66045 -0.00169899 0.000646918)
(2.66004 -0.00313067 0.00118605)
(2.66028 -0.0025453 0.000888125)
(2.66023 -0.00248966 0.000970395)
(2.66003 -0.00247431 0.000921983)
(2.6597 -0.00465841 0.00179)
(2.65997 -0.00374571 0.00129785)
(2.66 -0.00362448 0.00144505)
(2.65949 -0.00368411 0.00139187)
(2.65961 -0.00708588 0.00274782)
(2.65977 -0.00561004 0.00196145)
(2.65991 -0.00539347 0.00216018)
(2.65893 -0.00563026 0.00212308)
(2.66049 -0.01102 0.00442589)
(2.66015 -0.00852972 0.00306597)
(2.66047 -0.00815212 0.00327707)
(2.65868 -0.00880679 0.00331477)
(2.66404 -0.0171957 0.00727918)
(2.66143 -0.0132438 0.00516224)
(2.66201 -0.0124432 0.00510776)
(2.65908 -0.0140661 0.00546836)
(2.67223 -0.0268907 0.0120479)
(2.66732 -0.0203017 0.00878238)
(2.66831 -0.0188546 0.00801806)
(2.6641 -0.0219992 0.00882014)
(2.69642 -0.0430084 0.0218093)
(2.68828 -0.031029 0.0160794)
(2.69053 -0.0292108 0.0130378)
(2.68378 -0.0358181 0.0150703)
(2.77798 -0.0413967 0.0236478)
(2.70022 -0.0493821 0.0330115)
(2.70255 -0.0442774 0.0215464)
(2.69765 -0.062269 0.0310117)
(2.83128 -0.0270633 0.0209737)
(2.83871 -0.0251725 0.0144237)
(2.8363 -0.0356908 0.021437)
(2.65921 -4.70193e-05 3.39469e-05)
(2.6592 -1.57559e-05 1.39583e-05)
(2.65869 -1.86459e-05 1.26112e-05)
(2.65983 -1.74018e-05 1.23371e-05)
(2.65928 -9.4854e-05 7.16816e-05)
(2.65919 -6.79659e-05 6.44252e-05)
(2.65868 -7.26399e-05 5.30088e-05)
(2.65981 -7.71341e-05 6.12168e-05)
(2.65941 -0.000109829 8.46099e-05)
(2.65936 -0.000102142 9.90325e-05)
(2.65887 -0.00010669 7.98865e-05)
(2.65995 -0.000116813 9.51437e-05)
(2.65952 -9.376e-05 7.33734e-05)
(2.65947 -9.49307e-05 9.35896e-05)
(2.659 -9.94011e-05 7.53542e-05)
(2.66004 -0.00010919 8.95046e-05)
(2.65961 -6.60275e-05 5.30791e-05)
(2.65958 -7.32415e-05 7.348e-05)
(2.65912 -7.62759e-05 5.90678e-05)
(2.66012 -8.42422e-05 6.98903e-05)
(2.65967 -3.54397e-05 2.99844e-05)
(2.65965 -4.57711e-05 4.65812e-05)
(2.6592 -4.66862e-05 3.71893e-05)
(2.66018 -5.19691e-05 4.39389e-05)
(2.65968 -8.15674e-06 7.76719e-06)
(2.65969 -1.92797e-05 1.98718e-05)
(2.65924 -1.85882e-05 1.56337e-05)
(2.66021 -2.07928e-05 1.85425e-05)
(2.65968 1.28356e-05 -9.817e-06)
(2.65969 3.12547e-06 -3.7228e-06)
(2.65924 3.14676e-06 -2.69389e-06)
(2.66021 4.84714e-06 -4.24156e-06)
(2.65965 2.74583e-05 -2.15077e-05)
(2.65967 1.83433e-05 -1.98171e-05)
(2.65922 1.9593e-05 -1.61778e-05)
(2.66019 2.25727e-05 -1.88308e-05)
(2.6596 3.66887e-05 -2.90638e-05)
(2.65963 2.86837e-05 -3.08311e-05)
(2.65917 3.06869e-05 -2.54945e-05)
(2.66016 3.5072e-05 -2.94714e-05)
(2.65955 4.11713e-05 -3.2743e-05)
(2.65958 3.4594e-05 -3.71315e-05)
(2.65912 3.70352e-05 -3.08395e-05)
(2.66012 4.21575e-05 -3.54867e-05)
(2.6595 4.14326e-05 -3.3012e-05)
(2.65952 3.65927e-05 -3.91949e-05)
(2.65906 3.91875e-05 -3.26474e-05)
(2.66008 4.45382e-05 -3.74811e-05)
(2.65945 3.80792e-05 -3.0474e-05)
(2.65947 3.50947e-05 -3.76241e-05)
(2.659 3.76053e-05 -3.14443e-05)
(2.66004 4.27595e-05 -3.59939e-05)
(2.6594 3.19481e-05 -2.5871e-05)
(2.65942 3.07409e-05 -3.32206e-05)
(2.65894 3.29459e-05 -2.79095e-05)
(2.66 3.76054e-05 -3.17865e-05)
(2.65936 2.40658e-05 -1.9998e-05)
(2.65938 2.43726e-05 -2.688e-05)
(2.65889 2.60988e-05 -2.27977e-05)
(2.65996 3.00664e-05 -2.57213e-05)
(2.65934 1.5324e-05 -1.35411e-05)
(2.65935 1.69561e-05 -1.95264e-05)
(2.65886 1.81051e-05 -1.68458e-05)
(2.65994 2.12696e-05 -1.86822e-05)
(2.65932 6.25184e-06 -6.96728e-06)
(2.65932 9.07468e-06 -1.18104e-05)
(2.65883 9.6152e-06 -1.05932e-05)
(2.65992 1.19122e-05 -1.12797e-05)
(2.65932 -2.9046e-06 -3.498e-07)
(2.65931 1.05608e-06 -4.18856e-06)
(2.65882 9.25769e-07 -4.38898e-06)
(2.65991 2.40043e-06 -3.92344e-06)
(2.65932 -1.21215e-05 6.22655e-06)
(2.65932 -7.00245e-06 3.56859e-06)
(2.65882 -7.59922e-06 1.68182e-06)
(2.65991 -7.04168e-06 3.36486e-06)
(2.65934 -2.17644e-05 1.28284e-05)
(2.65933 -1.5094e-05 1.11744e-05)
(2.65884 -1.64464e-05 7.71239e-06)
(2.65992 -1.65124e-05 1.03914e-05)
(2.65937 -3.22516e-05 1.98407e-05)
(2.65935 -2.38826e-05 1.91102e-05)
(2.65886 -2.60815e-05 1.41191e-05)
(2.65994 -2.68287e-05 1.79119e-05)
(2.65941 -4.36454e-05 2.75567e-05)
(2.65938 -3.34852e-05 2.76986e-05)
(2.6589 -3.65045e-05 2.11234e-05)
(2.65997 -3.8111e-05 2.609e-05)
(2.65946 -5.60333e-05 3.61158e-05)
(2.65943 -4.39541e-05 3.72131e-05)
(2.65895 -4.77586e-05 2.90228e-05)
(2.66 -5.03811e-05 3.51693e-05)
(2.65953 -6.97694e-05 4.55537e-05)
(2.65949 -5.54861e-05 4.75913e-05)
(2.65902 -6.0084e-05 3.7779e-05)
(2.66005 -6.37974e-05 4.50601e-05)
(2.65961 -8.54131e-05 5.60033e-05)
(2.65956 -6.85416e-05 5.89798e-05)
(2.6591 -7.3957e-05 4.7491e-05)
(2.66011 -7.88159e-05 5.59055e-05)
(2.6597 -0.000103445 6.74781e-05)
(2.65965 -8.37685e-05 7.14846e-05)
(2.6592 -9.00312e-05 5.82735e-05)
(2.66018 -9.6024e-05 6.7849e-05)
(2.65981 -0.000123981 7.97126e-05)
(2.65975 -0.000101513 8.49495e-05)
(2.65931 -0.000108682 7.0043e-05)
(2.66026 -0.00011569 8.07373e-05)
(2.65993 -0.000147047 9.23933e-05)
(2.65986 -0.000121784 9.88165e-05)
(2.65944 -0.000129893 8.24555e-05)
(2.66035 -0.000137655 9.40405e-05)
(2.66006 -0.000173062 0.000105438)
(2.65999 -0.000144808 0.000112764)
(2.65958 -0.000153832 9.54264e-05)
(2.66044 -0.000162022 0.00010744)
(2.66019 -0.000203388 0.000119185)
(2.66012 -0.000171392 0.000126716)
(2.65973 -0.000181163 0.00010911)
(2.66055 -0.000189492 0.000120891)
(2.66033 -0.000240842 0.000134674)
(2.66026 -0.000203574 0.000141282)
(2.65989 -0.00021388 0.000124281)
(2.66065 -0.000222023 0.000134928)
(2.66046 -0.00029023 0.000153877)
(2.6604 -0.000245072 0.000157681)
(2.66005 -0.000255375 0.000142463)
(2.66075 -0.000263212 0.000150921)
(2.66058 -0.000358988 0.000179262)
(2.66053 -0.000301852 0.000178389)
(2.6602 -0.000311585 0.000166136)
(2.66084 -0.000318808 0.000171126)
(2.66068 -0.000456891 0.000213456)
(2.66064 -0.000382361 0.000205966)
(2.66034 -0.000391128 0.000197629)
(2.66091 -0.000397045 0.000197425)
(2.66076 -0.000597082 0.00025906)
(2.66074 -0.000497478 0.000243061)
(2.66046 -0.00050435 0.000238678)
(2.66095 -0.000507182 0.000231177)
(2.66079 -0.000798653 0.000318847)
(2.6608 -0.000663817 0.000290216)
(2.66055 -0.000668482 0.000294576)
(2.66095 -0.000669185 0.00027914)
(2.66077 -0.00108937 0.000401187)
(2.66082 -0.000903093 0.000350148)
(2.6606 -0.000905136 0.000370211)
(2.6609 -0.000904078 0.000342627)
(2.66066 -0.00151603 0.000524407)
(2.66077 -0.00124869 0.000435134)
(2.66059 -0.00124822 0.000478241)
(2.66077 -0.00124622 0.00043339)
(2.66048 -0.00215969 0.000714824)
(2.66065 -0.00176161 0.000564121)
(2.66051 -0.00175199 0.000639148)
(2.66053 -0.00175902 0.0005742)
(2.66024 -0.00314021 0.00102009)
(2.66047 -0.00253311 0.000767782)
(2.66037 -0.00250783 0.000884359)
(2.66019 -0.00255423 0.000801746)
(2.66004 -0.00464335 0.00152342)
(2.66026 -0.00370258 0.0011021)
(2.66023 -0.00364472 0.00128477)
(2.65977 -0.00378194 0.00118214)
(2.66018 -0.00697144 0.00236267)
(2.66024 -0.00547958 0.00167574)
(2.66031 -0.00536088 0.00192115)
(2.65943 -0.00570052 0.00181528)
(2.66138 -0.010678 0.00388115)
(2.66088 -0.00819152 0.00267025)
(2.66111 -0.0079656 0.00295389)
(2.65953 -0.00877297 0.00291475)
(2.66519 -0.0164678 0.00656342)
(2.66249 -0.0124613 0.00459487)
(2.66295 -0.0119247 0.00471762)
(2.66038 -0.0137655 0.00490754)
(2.67331 -0.0254078 0.0119254)
(2.66857 -0.0188337 0.00789389)
(2.66942 -0.0178803 0.00771343)
(2.66559 -0.0214808 0.0082717)
(2.69626 -0.0388241 0.0260274)
(2.68869 -0.0289691 0.0148658)
(2.69125 -0.0269868 0.0139458)
(2.6842 -0.0356095 0.0178592)
(2.76729 -0.0353885 0.0301249)
(2.69779 -0.0433446 0.0362391)
(2.70069 -0.0372167 0.0288548)
(2.69547 -0.0557683 0.0421845)
(2.8124 -0.022474 0.0233459)
(2.8235 -0.0205326 0.0205515)
(2.81454 -0.0322865 0.0289121)
(2.65921 -3.66683e-05 4.44709e-05)
(2.65922 -1.14539e-05 1.82805e-05)
(2.65869 -1.49511e-05 1.63112e-05)
(2.65983 -1.39871e-05 1.61241e-05)
(2.65928 -7.51812e-05 9.18489e-05)
(2.65921 -5.16237e-05 8.04655e-05)
(2.65868 -5.77943e-05 6.80406e-05)
(2.65981 -6.44195e-05 7.4915e-05)
(2.65941 -8.72063e-05 0.00010805)
(2.65938 -7.83221e-05 0.000122474)
(2.65887 -8.45416e-05 0.000102548)
(2.65995 -9.81961e-05 0.000115141)
(2.65952 -7.44044e-05 9.37041e-05)
(2.6595 -7.24597e-05 0.000116201)
(2.659 -7.81295e-05 9.74779e-05)
(2.66004 -9.1168e-05 0.000108995)
(2.65961 -5.29753e-05 6.69919e-05)
(2.65961 -5.62545e-05 9.09141e-05)
(2.65912 -5.98625e-05 7.64967e-05)
(2.66012 -7.01543e-05 8.5188e-05)
(2.65967 -2.95852e-05 3.64944e-05)
(2.65968 -3.59508e-05 5.68947e-05)
(2.6592 -3.70004e-05 4.76832e-05)
(2.66018 -4.35805e-05 5.31192e-05)
(2.65969 -7.94308e-06 8.43619e-06)
(2.65971 -1.63878e-05 2.33945e-05)
(2.65924 -1.56126e-05 1.92033e-05)
(2.66021 -1.82601e-05 2.16706e-05)
(2.65968 8.6697e-06 -1.36864e-05)
(2.65971 1.27278e-06 -4.4766e-06)
(2.65924 1.58519e-06 -3.8753e-06)
(2.66021 3.71163e-06 -5.05381e-06)
(2.65965 1.95569e-05 -2.91524e-05)
(2.65969 1.16825e-05 -2.57998e-05)
(2.65922 1.39101e-05 -2.15159e-05)
(2.66019 1.73526e-05 -2.3358e-05)
(2.6596 2.65598e-05 -3.8928e-05)
(2.65965 1.89927e-05 -3.98945e-05)
(2.65917 2.2277e-05 -3.35057e-05)
(2.66016 2.72391e-05 -3.62726e-05)
(2.65955 2.99846e-05 -4.36141e-05)
(2.6596 2.32311e-05 -4.78417e-05)