/*--------------------------------*- C++ -*----------------------------------*\
| =========                 |                                                 |
| \\      /  F ield         | OpenFOAM: The Open Source CFD Toolbox           |
|  \\    /   O peration     | Version:  4.1                                   |
|   \\  /    A nd           | Web:      www.OpenFOAM.org                      |
|    \\/     M anipulation  |                                                 |
\*---------------------------------------------------------------------------*/
FoamFile
{
    version     2.0;
    format      ascii;
    class       pointVectorField;
    location    "0.0000";
    object      pointDisplacement_Next;
}
// * * * * * * * * * * * * * * * * * * * * * * * * * * * * * * * * * * * * * //

dimensions      [0 1 0 0 0 0 0];

internalField   uniform (0 0 0);

boundaryField
{
    inlet
    {
        type            fixedValue;
        value           nonuniform 0();
    }
    outlet
    {
        type            fixedValue;
        value           nonuniform 0();
    }
    mantle
    {
        type            fixedValue;
        value           nonuniform List<vector> 
416
(
(3.3746e-09 -3.7625e-08 5.3128e-14)
(7.8592e-09 -2.4451e-08 -1.2184e-12)
(7.9172e-09 -2.7172e-08 6.9495e-09)
(2.0675e-09 -3.8818e-08 9.0136e-09)
(8.1722e-09 -2.9823e-08 1.1799e-08)
(2.616e-09 -4.1033e-08 1.6405e-08)
(7.9483e-09 -2.6004e-08 1.4748e-08)
(2.1314e-09 -3.5997e-08 2.1819e-08)
(7.8855e-09 -1.916e-08 1.9157e-08)
(3.4383e-09 -2.9039e-08 2.904e-08)
(7.9482e-09 -1.4748e-08 2.6004e-08)
(2.1313e-09 -2.1819e-08 3.5998e-08)
(8.1721e-09 -1.1799e-08 2.9823e-08)
(2.6159e-09 -1.6405e-08 4.1033e-08)
(7.917e-09 -6.9494e-09 2.7172e-08)
(2.0673e-09 -9.0135e-09 3.8819e-08)
(7.859e-09 1.3208e-12 2.4451e-08)
(3.3744e-09 1.3383e-13 3.7625e-08)
(-3.7177e-09 -3.3669e-09 1.8127e-14)
(-1.0567e-09 -7.5937e-09 3.0852e-09)
(7.5382e-10 -1.1069e-08 4.5914e-09)
(-6.7591e-10 -8.7264e-09 3.5175e-09)
(-3.6129e-09 -3.265e-09 3.2651e-09)
(-6.7592e-10 -3.5174e-09 8.7263e-09)
(7.5379e-10 -4.5912e-09 1.1069e-08)
(-1.0568e-09 -3.0851e-09 7.5934e-09)
(-3.7177e-09 1.2878e-14 3.3665e-09)
(-5.1642e-09 -4.6041e-11 -2.0393e-11)
(-3.9978e-09 -1.4056e-09 1.2084e-09)
(-2.9273e-09 -2.9227e-09 1.2386e-09)
(-3.986e-09 -2.1138e-09 3.4643e-10)
(-5.1462e-09 -3.6597e-10 3.3527e-10)
(-3.986e-09 -3.462e-10 2.1135e-09)
(-2.9273e-09 -1.2383e-09 2.9222e-09)
(-3.9978e-09 -1.2083e-09 1.4049e-09)
(-5.1642e-09 2.0392e-11 4.5302e-11)
(-9.2839e-10 -5.1858e-09 2.6412e-14)
(-1.0385e-09 -3.8798e-09 7.3103e-10)
(-9.3937e-10 -2.8969e-09 1.4197e-09)
(-1.0977e-09 -3.1963e-09 2.4932e-09)
(-1.0276e-09 -3.7387e-09 3.7387e-09)
(-1.0977e-09 -2.493e-09 3.1959e-09)
(-9.3934e-10 -1.4194e-09 2.8961e-09)
(-1.0385e-09 -7.3089e-10 3.8787e-09)
(-9.2838e-10 -4.2953e-14 5.1848e-09)
(1.6411e-10 -4.0023e-09 3.1593e-16)
(1.2145e-10 -3.2969e-09 6.0082e-10)
(1.0326e-10 -2.5647e-09 1.2921e-09)
(9.1282e-11 -2.6555e-09 2.182e-09)
(1.2006e-10 -2.8856e-09 2.8855e-09)
(9.1288e-11 -2.1818e-09 2.6551e-09)
(1.0326e-10 -1.2919e-09 2.5639e-09)
(1.2145e-10 -6.0069e-10 3.2959e-09)
(1.6409e-10 1.1405e-14 4.0014e-09)
(-7.391e-10 1.4165e-10 1.3922e-14)
(-5.3659e-10 -2.8866e-10 2.2641e-10)
(-3.5683e-10 -5.5437e-10 3.7112e-10)
(-5.0299e-10 -3.3895e-10 2.2302e-10)
(-6.8358e-10 1.9151e-11 -1.9259e-11)
(-5.03e-10 -2.229e-10 3.3856e-10)
(-3.5685e-10 -3.7094e-10 5.5374e-10)
(-5.3661e-10 -2.263e-10 2.8797e-10)
(-7.3913e-10 6.7121e-15 -1.4222e-10)
(-9.236e-10 7.6906e-10 -1.8784e-12)
(-8.3035e-10 4.0487e-10 1.0829e-10)
(-7.3617e-10 3.7939e-13 2.0997e-11)
(-7.9137e-10 1.5973e-10 -2.9041e-10)
(-8.6684e-10 4.6157e-10 -4.585e-10)
(-7.9139e-10 2.9052e-10 -1.6001e-10)
(-7.362e-10 -2.0844e-11 -8.2079e-13)
(-8.3037e-10 -1.0819e-10 -4.0531e-10)
(-9.2362e-10 1.8928e-12 -7.6941e-10)
(-6.5378e-10 -4.469e-10 -6.0513e-15)
(-6.6787e-10 -5.8113e-10 1.9125e-10)
(-6.6917e-10 -7.9435e-10 2.7602e-10)
(-6.5495e-10 -6.2506e-10 2.5649e-10)
(-6.3817e-10 -3.7695e-10 3.7697e-10)
(-6.5497e-10 -2.5637e-10 6.2489e-10)
(-6.6921e-10 -2.7589e-10 7.9406e-10)
(-6.6789e-10 -1.9117e-10 5.8087e-10)
(-6.5379e-10 7.0811e-15 4.467e-10)
(-5.0255e-10 -1.2257e-09 -6.1123e-13)
(-5.2474e-10 -1.3071e-09 3.0101e-10)
(-5.4333e-10 -1.3765e-09 5.1105e-10)
(-5.2358e-10 -1.193e-09 6.5959e-10)
(-5.0147e-10 -8.8616e-10 8.8684e-10)
(-5.236e-10 -6.595e-10 1.1929e-09)
(-5.4336e-10 -5.1097e-10 1.3763e-09)
(-5.2477e-10 -3.0098e-10 1.307e-09)
(-5.0257e-10 5.8685e-13 1.2256e-09)
(-4.4846e-10 -1.3997e-09 2.3168e-14)
(-4.6216e-10 -1.4557e-09 3.0823e-10)
(-4.7159e-10 -1.4466e-09 5.6889e-10)
(-4.6148e-10 -1.2542e-09 7.674e-10)
(-4.4694e-10 -9.7076e-10 9.7078e-10)
(-4.6149e-10 -7.6738e-10 1.2542e-09)
(-4.7161e-10 -5.6887e-10 1.4466e-09)
(-4.6218e-10 -3.0824e-10 1.4556e-09)
(-4.4849e-10 -5.5892e-14 1.3996e-09)
(-4.6355e-10 -1.5047e-09 6.0748e-16)
(-4.6766e-10 -1.4845e-09 3.1031e-10)
(-4.7241e-10 -1.3986e-09 5.7767e-10)
(-4.6893e-10 -1.2309e-09 7.9987e-10)
(-4.6543e-10 -1.0135e-09 1.0135e-09)
(-4.6892e-10 -7.999e-10 1.2309e-09)
(-4.724e-10 -5.777e-10 1.3987e-09)
(-4.6766e-10 -3.1033e-10 1.4844e-09)
(-4.6354e-10 -6.0134e-15 1.5047e-09)
(-5.0089e-10 -1.3904e-09 -3.7014e-14)
(-4.9768e-10 -1.3165e-09 2.6457e-10)
(-4.9845e-10 -1.1821e-09 5.0993e-10)
(-5.0207e-10 -1.0558e-09 7.2787e-10)
(-5.0751e-10 -9.1728e-10 9.1725e-10)
(-5.0206e-10 -7.2792e-10 1.0559e-09)
(-4.9842e-10 -5.0996e-10 1.1822e-09)
(-4.9765e-10 -2.6458e-10 1.3165e-09)
(-5.0086e-10 5.9566e-14 1.3903e-09)
(7.9171e-09 6.9493e-09 2.7171e-08)
(2.0674e-09 9.0135e-09 3.8818e-08)
(8.1722e-09 1.1799e-08 2.9822e-08)
(2.616e-09 1.6405e-08 4.1032e-08)
(7.9483e-09 1.4748e-08 2.6003e-08)
(2.1315e-09 2.1819e-08 3.5997e-08)
(7.8855e-09 1.916e-08 1.9157e-08)
(3.4384e-09 2.904e-08 2.904e-08)
(7.9483e-09 2.6004e-08 1.4749e-08)
(2.1314e-09 3.5998e-08 2.182e-08)
(8.1722e-09 2.9823e-08 1.1799e-08)
(2.616e-09 4.1033e-08 1.6405e-08)
(7.9171e-09 2.7173e-08 6.9496e-09)
(2.0674e-09 3.8819e-08 9.0137e-09)
(7.8591e-09 2.4452e-08 -1.2253e-12)
(3.3744e-09 3.7626e-08 2.9077e-14)
(-1.0568e-09 3.0851e-09 7.5932e-09)
(7.5375e-10 4.5911e-09 1.1068e-08)
(-6.7598e-10 3.5173e-09 8.7261e-09)
(-3.613e-09 3.2651e-09 3.265e-09)
(-6.7597e-10 8.7266e-09 3.5176e-09)
(7.5378e-10 1.1069e-08 4.5915e-09)
(-1.0567e-09 7.5944e-09 3.0853e-09)
(-3.7177e-09 3.3678e-09 3.7702e-14)
(-3.9978e-09 1.2083e-09 1.4051e-09)
(-2.9274e-09 1.2385e-09 2.9225e-09)
(-3.9861e-09 3.4639e-10 2.1137e-09)
(-5.1463e-09 3.3539e-10 3.6606e-10)
(-3.9861e-09 2.114e-09 3.4647e-10)
(-2.9273e-09 2.9231e-09 1.2387e-09)
(-3.9978e-09 1.4061e-09 1.2085e-09)
(-5.1641e-09 4.654e-11 -2.0371e-11)
(-1.0385e-09 7.31e-10 3.8792e-09)
(-9.3941e-10 1.4198e-09 2.8968e-09)
(-1.0978e-09 2.4933e-09 3.1964e-09)
(-1.0276e-09 3.7389e-09 3.7388e-09)
(-1.0977e-09 3.1965e-09 2.4933e-09)
(-9.3935e-10 2.8971e-09 1.4198e-09)
(-1.0385e-09 3.8799e-09 7.3109e-10)
(-9.2836e-10 5.1859e-09 1.7641e-14)
(1.2142e-10 6.0081e-10 3.2964e-09)
(1.0323e-10 1.2922e-09 2.5647e-09)
(9.127e-11 2.1822e-09 2.6557e-09)
(1.2007e-10 2.8858e-09 2.8858e-09)
(9.13e-11 2.6557e-09 2.1821e-09)
(1.0327e-10 2.5648e-09 1.2922e-09)
(1.2146e-10 3.2968e-09 6.0082e-10)
(1.6411e-10 4.0021e-09 -4.882e-14)
(-5.3661e-10 2.2641e-10 2.8836e-10)
(-3.5685e-10 3.7122e-10 5.5433e-10)
(-5.0299e-10 2.2323e-10 3.3909e-10)
(-6.8356e-10 -1.8894e-11 -1.8914e-11)
(-5.0298e-10 3.3909e-10 2.2318e-10)
(-3.5684e-10 5.5437e-10 3.7116e-10)
(-5.366e-10 2.8851e-10 2.2636e-10)
(-7.3912e-10 -1.4197e-10 -5.4221e-14)
(-8.3036e-10 1.0829e-10 -4.0504e-10)
(-7.3618e-10 2.1053e-11 -4.1496e-13)
(-7.9138e-10 -2.9029e-10 -1.5962e-10)
(-8.6685e-10 -4.6139e-10 -4.5823e-10)
(-7.9139e-10 -1.5962e-10 -2.9028e-10)
(-7.3619e-10 -3.4215e-13 2.1009e-11)
(-8.3037e-10 -4.0495e-10 1.0823e-10)
(-9.2362e-10 -7.693e-10 -1.9123e-12)
(-6.6787e-10 1.9124e-10 5.8104e-10)
(-6.6918e-10 2.7607e-10 7.9434e-10)
(-6.5497e-10 2.5657e-10 6.2518e-10)
(-6.382e-10 3.7711e-10 3.7718e-10)
(-6.5499e-10 6.252e-10 2.5662e-10)
(-6.6921e-10 7.9446e-10 2.7605e-10)
(-6.6789e-10 5.8116e-10 1.9119e-10)
(-6.538e-10 4.4678e-10 -9.4394e-15)
(-5.2474e-10 3.0098e-10 1.3071e-09)
(-5.4333e-10 5.1111e-10 1.3765e-09)
(-5.2358e-10 6.5975e-10 1.1932e-09)
(-5.0148e-10 8.8709e-10 8.8646e-10)
(-5.236e-10 1.1932e-09 6.5976e-10)
(-5.4335e-10 1.3766e-09 5.111e-10)
(-5.2476e-10 1.3072e-09 3.0099e-10)
(-5.0257e-10 1.2256e-09 -5.9968e-13)
(-4.6217e-10 3.0819e-10 1.4557e-09)
(-4.7159e-10 5.6896e-10 1.4467e-09)
(-4.6147e-10 7.6762e-10 1.2545e-09)
(-4.4692e-10 9.7111e-10 9.7105e-10)
(-4.6148e-10 1.2545e-09 7.6758e-10)
(-4.716e-10 1.4468e-09 5.6895e-10)
(-4.6217e-10 1.4557e-09 3.0822e-10)
(-4.4848e-10 1.3996e-09 1.5173e-14)
(-4.6766e-10 3.1032e-10 1.4845e-09)
(-4.724e-10 5.7771e-10 1.3988e-09)
(-4.6891e-10 7.9999e-10 1.231e-09)
(-4.6542e-10 1.0137e-09 1.0136e-09)
(-4.6892e-10 1.231e-09 7.9994e-10)
(-4.724e-10 1.3987e-09 5.7769e-10)
(-4.6767e-10 1.4845e-09 3.1032e-10)
(-4.6356e-10 1.5048e-09 1.859e-15)
(-4.9766e-10 2.6464e-10 1.3165e-09)
(-4.9844e-10 5.0996e-10 1.1822e-09)
(-5.0207e-10 7.2791e-10 1.056e-09)
(-5.0752e-10 9.1727e-10 9.1726e-10)
(-5.0207e-10 1.0559e-09 7.2787e-10)
(-4.9844e-10 1.1822e-09 5.0993e-10)
(-4.9768e-10 1.3166e-09 2.6461e-10)
(-5.0089e-10 1.3906e-09 1.7755e-15)
(7.9171e-09 2.7173e-08 -6.9495e-09)
(2.0674e-09 3.882e-08 -9.0137e-09)
(8.1722e-09 2.9824e-08 -1.1799e-08)
(2.616e-09 4.1034e-08 -1.6405e-08)
(7.9483e-09 2.6004e-08 -1.4749e-08)
(2.1314e-09 3.5998e-08 -2.182e-08)
(7.8855e-09 1.916e-08 -1.9157e-08)
(3.4384e-09 2.904e-08 -2.904e-08)
(7.9483e-09 1.4748e-08 -2.6003e-08)
(2.1315e-09 2.1819e-08 -3.5997e-08)
(8.1722e-09 1.1799e-08 -2.9822e-08)
(2.6161e-09 1.6405e-08 -4.1032e-08)
(7.9171e-09 6.9492e-09 -2.7171e-08)
(2.0675e-09 9.0134e-09 -3.8818e-08)
(7.8591e-09 -1.1658e-12 -2.445e-08)
(3.3745e-09 1.614e-13 -3.7624e-08)
(-1.0567e-09 7.5945e-09 -3.0852e-09)
(7.5378e-10 1.1069e-08 -4.5915e-09)
(-6.7598e-10 8.7268e-09 -3.5176e-09)
(-3.613e-09 3.2652e-09 -3.2651e-09)
(-6.7599e-10 3.5173e-09 -8.7262e-09)
(7.5375e-10 4.5911e-09 -1.1068e-08)
(-1.0568e-09 3.085e-09 -7.593e-09)
(-3.7178e-09 4.7377e-14 -3.3661e-09)
(-3.9978e-09 1.406e-09 -1.2084e-09)
(-2.9273e-09 2.923e-09 -1.2386e-09)
(-3.9861e-09 2.114e-09 -3.4655e-10)
(-5.1463e-09 3.3552e-10 -3.6618e-10)
(-3.9861e-09 3.4645e-10 -2.1138e-09)
(-2.9274e-09 1.2385e-09 -2.9224e-09)
(-3.9978e-09 1.2083e-09 -1.405e-09)
(-5.1642e-09 -2.0376e-11 -4.5154e-11)
(-1.0385e-09 3.8798e-09 -7.3103e-10)
(-9.3934e-10 2.8969e-09 -1.4197e-09)
(-1.0977e-09 3.1965e-09 -2.4934e-09)
(-1.0276e-09 3.739e-09 -3.7389e-09)
(-1.0978e-09 2.4934e-09 -3.1964e-09)
(-9.3937e-10 1.4198e-09 -2.8968e-09)
(-1.0385e-09 7.31e-10 -3.8792e-09)
(-9.2837e-10 1.3664e-14 -5.1849e-09)
(1.2146e-10 3.2966e-09 -6.0083e-10)
(1.0328e-10 2.5646e-09 -1.2922e-09)
(9.1295e-11 2.6556e-09 -2.1822e-09)
(1.2006e-10 2.8859e-09 -2.8859e-09)
(9.1286e-11 2.1823e-09 -2.6556e-09)
(1.0327e-10 1.2922e-09 -2.5646e-09)
(1.2147e-10 6.008e-10 -3.2964e-09)
(1.6412e-10 2.3058e-14 -4.0015e-09)
(-5.366e-10 2.8834e-10 -2.2641e-10)
(-3.5683e-10 5.5418e-10 -3.7115e-10)
(-5.0298e-10 3.3904e-10 -2.2319e-10)
(-6.8356e-10 -1.8817e-11 1.8921e-11)
(-5.0298e-10 2.2329e-10 -3.3899e-10)
(-3.5683e-10 3.712e-10 -5.5415e-10)
(-5.3659e-10 2.2638e-10 -2.8826e-10)
(-7.3911e-10 -1.0363e-14 1.4217e-10)
(-8.3037e-10 -4.0515e-10 -1.0823e-10)
(-7.3618e-10 -5.7402e-13 -2.0946e-11)
(-7.9137e-10 -1.5969e-10 2.9027e-10)
(-8.6683e-10 -4.6131e-10 4.5819e-10)
(-7.9137e-10 -2.9025e-10 1.5973e-10)
(-7.3619e-10 2.0995e-11 6.4828e-13)
(-8.3038e-10 1.0826e-10 4.0517e-10)
(-9.2364e-10 -1.8358e-12 7.6932e-10)
(-6.6789e-10 5.8094e-10 -1.9112e-10)
(-6.692e-10 7.9418e-10 -2.759e-10)
(-6.5496e-10 6.251e-10 -2.5662e-10)
(-6.3817e-10 3.7718e-10 -3.7729e-10)
(-6.5496e-10 2.5657e-10 -6.251e-10)
(-6.6921e-10 2.7596e-10 -7.941e-10)
(-6.6791e-10 1.9121e-10 -5.8099e-10)
(-6.5383e-10 8.2997e-14 -4.4692e-10)
(-5.2476e-10 1.307e-09 -3.009e-10)
(-5.4335e-10 1.3764e-09 -5.1097e-10)
(-5.2358e-10 1.1931e-09 -6.5972e-10)
(-5.0147e-10 8.8704e-10 -8.8647e-10)
(-5.2358e-10 6.5969e-10 -1.1931e-09)
(-5.4335e-10 5.1102e-10 -1.3764e-09)
(-5.2476e-10 3.0096e-10 -1.3072e-09)
(-5.0258e-10 6.3806e-13 -1.2259e-09)
(-4.6217e-10 1.4556e-09 -3.0818e-10)
(-4.716e-10 1.4466e-09 -5.6888e-10)
(-4.6148e-10 1.2544e-09 -7.675e-10)
(-4.4692e-10 9.7098e-10 -9.7097e-10)
(-4.6147e-10 7.6754e-10 -1.2544e-09)
(-4.7159e-10 5.6892e-10 -1.4467e-09)
(-4.6216e-10 3.082e-10 -1.4558e-09)
(-4.4846e-10 -2.8228e-14 -1.3999e-09)
(-4.6768e-10 1.4845e-09 -3.1033e-10)
(-4.7241e-10 1.3987e-09 -5.7769e-10)
(-4.6892e-10 1.2309e-09 -7.9988e-10)
(-4.6542e-10 1.0136e-09 -1.0135e-09)
(-4.6891e-10 7.9995e-10 -1.231e-09)
(-4.724e-10 5.7774e-10 -1.3988e-09)
(-4.6765e-10 3.1036e-10 -1.4845e-09)
(-4.6353e-10 1.4922e-14 -1.5047e-09)
(-4.9769e-10 1.3167e-09 -2.6464e-10)
(-4.9845e-10 1.1822e-09 -5.0997e-10)
(-5.0207e-10 1.0558e-09 -7.2781e-10)
(-5.075e-10 9.1717e-10 -9.1713e-10)
(-5.0206e-10 7.2787e-10 -1.0559e-09)
(-4.9844e-10 5.1001e-10 -1.1822e-09)
(-4.9767e-10 2.6469e-10 -1.3165e-09)
(-5.0087e-10 5.7776e-14 -1.3902e-09)
(7.9171e-09 -6.9491e-09 -2.7171e-08)
(2.0674e-09 -9.0132e-09 -3.8818e-08)
(8.1722e-09 -1.1799e-08 -2.9822e-08)
(2.616e-09 -1.6404e-08 -4.1032e-08)
(7.9483e-09 -1.4748e-08 -2.6003e-08)
(2.1314e-09 -2.1819e-08 -3.5997e-08)
(7.8855e-09 -1.9157e-08 -1.916e-08)
(3.4383e-09 -2.9039e-08 -2.9039e-08)
(7.9483e-09 -2.6003e-08 -1.4748e-08)
(2.1313e-09 -3.5997e-08 -2.1819e-08)
(8.1722e-09 -2.9823e-08 -1.1799e-08)
(2.616e-09 -4.1032e-08 -1.6405e-08)
(7.9172e-09 -2.7172e-08 -6.9494e-09)
(2.0675e-09 -3.8818e-08 -9.0134e-09)
(-1.0568e-09 -3.0849e-09 -7.5928e-09)
(7.5379e-10 -4.5909e-09 -1.1068e-08)
(-6.7592e-10 -3.517e-09 -8.7258e-09)
(-3.6129e-09 -3.2647e-09 -3.2648e-09)
(-6.7593e-10 -8.7262e-09 -3.5174e-09)
(7.5379e-10 -1.1069e-08 -4.5913e-09)
(-1.0567e-09 -7.5936e-09 -3.0852e-09)
(-3.9978e-09 -1.2081e-09 -1.4046e-09)
(-2.9273e-09 -1.2382e-09 -2.9219e-09)
(-3.9861e-09 -3.461e-10 -2.1133e-09)
(-5.1462e-09 -3.6591e-10 -3.3516e-10)
(-3.9861e-09 -2.1137e-09 -3.4639e-10)
(-2.9273e-09 -2.9227e-09 -1.2386e-09)
(-3.9978e-09 -1.4056e-09 -1.2084e-09)
(-1.0385e-09 -7.3084e-10 -3.8788e-09)
(-9.3936e-10 -1.4194e-09 -2.8962e-09)
(-1.0977e-09 -2.493e-09 -3.196e-09)
(-1.0276e-09 -3.7388e-09 -3.7387e-09)
(-1.0977e-09 -3.1964e-09 -2.4933e-09)
(-9.3935e-10 -2.8969e-09 -1.4197e-09)
(-1.0385e-09 -3.8797e-09 -7.31e-10)
(1.2146e-10 -6.0069e-10 -3.2961e-09)
(1.0326e-10 -1.2919e-09 -2.5641e-09)
(9.1284e-11 -2.1819e-09 -2.6552e-09)
(1.2007e-10 -2.8857e-09 -2.8855e-09)
(9.13e-11 -2.6556e-09 -2.182e-09)
(1.0328e-10 -2.5647e-09 -1.2921e-09)
(1.2146e-10 -3.2969e-09 -6.0079e-10)
(-5.366e-10 -2.2632e-10 -2.8812e-10)
(-3.5685e-10 -3.7099e-10 -5.5388e-10)
(-5.03e-10 -2.2292e-10 -3.3862e-10)
(-6.8356e-10 1.9169e-11 1.9243e-11)
(-5.0298e-10 -3.3897e-10 -2.2304e-10)
(-3.5682e-10 -5.5443e-10 -3.7114e-10)
(-5.3658e-10 -2.8872e-10 -2.2641e-10)
(-8.3039e-10 -1.0822e-10 4.0512e-10)
(-7.3621e-10 -2.0925e-11 6.8157e-13)
(-7.914e-10 2.9048e-10 1.5997e-10)
(-8.6684e-10 4.6156e-10 4.585e-10)
(-7.9137e-10 1.5966e-10 2.9038e-10)
(-7.3617e-10 2.2608e-13 -2.1069e-11)
(-8.3035e-10 4.0475e-10 -1.0833e-10)
(-6.6792e-10 -1.9118e-10 -5.8115e-10)
(-6.6923e-10 -2.7602e-10 -7.9425e-10)
(-6.5499e-10 -2.5647e-10 -6.2497e-10)
(-6.3818e-10 -3.7701e-10 -3.77e-10)
(-6.5496e-10 -6.252e-10 -2.5657e-10)
(-6.6918e-10 -7.9458e-10 -2.7614e-10)
(-6.6787e-10 -5.8129e-10 -1.9131e-10)
(-5.2477e-10 -3.0098e-10 -1.3073e-09)
(-5.4336e-10 -5.1106e-10 -1.3766e-09)
(-5.236e-10 -6.596e-10 -1.193e-09)
(-5.0148e-10 -8.8625e-10 -8.8694e-10)
(-5.2358e-10 -1.1931e-09 -6.597e-10)
(-5.4333e-10 -1.3766e-09 -5.1114e-10)
(-5.2474e-10 -1.3072e-09 -3.0103e-10)
(-4.6216e-10 -3.0824e-10 -1.4559e-09)
(-4.7159e-10 -5.6892e-10 -1.4467e-09)
(-4.6148e-10 -7.6745e-10 -1.2544e-09)
(-4.4693e-10 -9.7084e-10 -9.7093e-10)
(-4.6148e-10 -1.2543e-09 -7.675e-10)
(-4.7159e-10 -1.4467e-09 -5.6892e-10)
(-4.6216e-10 -1.4557e-09 -3.082e-10)
(-4.6764e-10 -3.1032e-10 -1.4844e-09)
(-4.7239e-10 -5.7771e-10 -1.3987e-09)
(-4.6891e-10 -7.9997e-10 -1.231e-09)
(-4.6543e-10 -1.0136e-09 -1.0136e-09)
(-4.6892e-10 -1.2309e-09 -7.9994e-10)
(-4.724e-10 -1.3986e-09 -5.7764e-10)
(-4.6766e-10 -1.4844e-09 -3.1028e-10)
(-4.9765e-10 -2.6458e-10 -1.3164e-09)
(-4.9843e-10 -5.0997e-10 -1.1821e-09)
(-5.0206e-10 -7.28e-10 -1.0559e-09)
(-5.0751e-10 -9.174e-10 -9.1738e-10)
(-5.0207e-10 -1.0559e-09 -7.2793e-10)
(-4.9845e-10 -1.182e-09 -5.0987e-10)
(-4.9768e-10 -1.3164e-09 -2.6457e-10)
)
;
    }
    procBoundary1to0
    {
        type            processor;
    }
    procBoundary1to2
    {
        type            processor;
    }
}


// ************************************************************************* //
