/*--------------------------------*- C++ -*----------------------------------*\
| =========                 |                                                 |
| \\      /  F ield         | foam-extend: Open Source CFD                    |
|  \\    /   O peration     | Version:     4.1-20200408                       |
|   \\  /    A nd           | Web:         http://www.foam-extend.org         |
|    \\/     M anipulation  |                                                 |
\*---------------------------------------------------------------------------*/
FoamFile
{
    version     2.0;
    format      ascii;
    class       volScalarField;
    location    "0.0415000";
    object      J;
}
// * * * * * * * * * * * * * * * * * * * * * * * * * * * * * * * * * * * * * //

dimensions      [0 0 0 0 0 0 0];

internalField   nonuniform List<scalar> 
1952
(
0.998508
0.998549
0.998603
0.998677
0.998776
0.998897
0.999051
0.999245
0.99948
0.999795
1.00017
1.0007
1.00133
1.0022
1.00285
0.998494
0.998491
0.998533
0.998588
0.998662
0.998763
0.998884
0.999041
0.999235
0.999472
0.999788
1.00017
1.0007
1.00132
1.00219
1.00284
0.998477
0.99848
0.998522
0.998578
0.998652
0.998754
0.998876
0.999034
0.999228
0.999467
0.999784
1.00016
1.0007
1.00132
1.00219
1.00285
0.998466
0.99847
0.998512
0.998568
0.998643
0.998746
0.998868
0.999027
0.999222
0.999463
0.99978
1.00016
1.0007
1.00132
1.0022
1.00285
0.998455
0.998461
0.998503
0.99856
0.998635
0.998738
0.998861
0.999021
0.999217
0.999459
0.999777
1.00016
1.00069
1.00132
1.0022
1.00285
0.998446
0.998452
0.998495
0.998552
0.998627
0.998732
0.998855
0.999016
0.999212
0.999455
0.999775
1.00016
1.00069
1.00132
1.0022
1.00285
0.998438
0.998445
0.998487
0.998545
0.99862
0.998725
0.998849
0.999011
0.999208
0.999452
0.999773
1.00015
1.00069
1.00133
1.0022
1.00286
0.99843
0.998438
0.99848
0.998538
0.998614
0.99872
0.998844
0.999007
0.999204
0.999449
0.999771
1.00015
1.00069
1.00133
1.0022
1.00286
0.998423
0.998431
0.998474
0.998532
0.998609
0.998715
0.998839
0.999003
0.999201
0.999447
0.999769
1.00015
1.00069
1.00133
1.00221
1.00286
0.998416
0.998425
0.998468
0.998527
0.998603
0.99871
0.998835
0.998999
0.999197
0.999445
0.999768
1.00015
1.00069
1.00133
1.00221
1.00287
0.99841
0.998419
0.998462
0.998522
0.998598
0.998706
0.998831
0.998996
0.999195
0.999443
0.999767
1.00015
1.00069
1.00133
1.00221
1.00287
0.998404
0.998414
0.998457
0.998517
0.998594
0.998701
0.998827
0.998993
0.999192
0.999441
0.999766
1.00015
1.00069
1.00133
1.00222
1.00288
0.998398
0.998409
0.998452
0.998512
0.998589
0.998698
0.998824
0.99899
0.99919
0.99944
0.999765
1.00015
1.00069
1.00134
1.00222
1.00288
0.998393
0.998404
0.998447
0.998508
0.998585
0.998694
0.99882
0.998988
0.999187
0.999439
0.999764
1.00015
1.00069
1.00134
1.00222
1.00288
0.998388
0.998399
0.998443
0.998503
0.998581
0.99869
0.998817
0.998985
0.999185
0.999438
0.999764
1.00015
1.00069
1.00134
1.00222
1.00289
0.998383
0.998395
0.998438
0.998499
0.998577
0.998687
0.998814
0.998983
0.999184
0.999437
0.999763
1.00015
1.0007
1.00134
1.00223
1.00289
0.998379
0.99839
0.998434
0.998495
0.998574
0.998684
0.998812
0.998981
0.999182
0.999436
0.999763
1.00015
1.0007
1.00134
1.00223
1.00289
0.998374
0.998386
0.99843
0.998492
0.99857
0.998681
0.998809
0.998979
0.999181
0.999436
0.999763
1.00015
1.0007
1.00135
1.00223
1.0029
0.99837
0.998382
0.998426
0.998488
0.998566
0.998678
0.998806
0.998977
0.999179
0.999435
0.999762
1.00015
1.0007
1.00135
1.00224
1.0029
0.998365
0.998377
0.998422
0.998484
0.998563
0.998675
0.998804
0.998975
0.999178
0.999435
0.999762
1.00015
1.0007
1.00135
1.00224
1.0029
0.998361
0.998373
0.998417
0.99848
0.998559
0.998671
0.998801
0.998973
0.999177
0.999434
0.999762
1.00015
1.0007
1.00135
1.00224
1.00291
0.998356
0.998368
0.998413
0.998476
0.998555
0.998668
0.998798
0.998971
0.999175
0.999434
0.999762
1.00015
1.0007
1.00136
1.00225
1.00291
0.998351
0.998363
0.998408
0.998471
0.998551
0.998665
0.998795
0.998969
0.999174
0.999434
0.999762
1.00015
1.00071
1.00136
1.00225
1.00292
0.998346
0.998358
0.998403
0.998467
0.998547
0.998661
0.998792
0.998966
0.999173
0.999433
0.999762
1.00015
1.00071
1.00136
1.00226
1.00292
0.998341
0.998352
0.998398
0.998462
0.998543
0.998657
0.998789
0.998964
0.999171
0.999433
0.999763
1.00016
1.00071
1.00137
1.00226
1.00293
0.998335
0.998346
0.998392
0.998456
0.998538
0.998653
0.998786
0.998961
0.999169
0.999433
0.999763
1.00016
1.00071
1.00137
1.00227
1.00293
0.998329
0.998339
0.998385
0.99845
0.998532
0.998648
0.998781
0.998958
0.999167
0.999432
0.999763
1.00016
1.00072
1.00137
1.00227
1.00294
0.998321
0.99833
0.998377
0.998442
0.998525
0.998642
0.998777
0.998955
0.999165
0.999432
0.999763
1.00016
1.00072
1.00138
1.00228
1.00295
0.998313
0.998321
0.998368
0.998434
0.998518
0.998636
0.998771
0.998951
0.999162
0.99943
0.999763
1.00016
1.00072
1.00139
1.00229
1.00296
0.998304
0.99831
0.998358
0.998424
0.998509
0.998628
0.998764
0.998945
0.999158
0.999429
0.999763
1.00016
1.00073
1.00139
1.0023
1.00297
0.998292
0.998297
0.998345
0.998413
0.998498
0.998618
0.998756
0.998939
0.999154
0.999426
0.999762
1.00016
1.00073
1.0014
1.0023
1.00298
0.998279
0.998282
0.99833
0.998399
0.998485
0.998607
0.998746
0.998931
0.999147
0.999422
0.99976
1.00017
1.00073
1.0014
1.00231
1.00299
0.998264
0.998264
0.998313
0.998382
0.998469
0.998593
0.998734
0.998921
0.999139
0.999417
0.999757
1.00017
1.00074
1.00141
1.00232
1.003
0.998246
0.998243
0.998292
0.998363
0.998451
0.998576
0.998719
0.998908
0.999129
0.99941
0.999752
1.00017
1.00074
1.00142
1.00234
1.00302
0.998224
0.998217
0.998267
0.998339
0.998428
0.998556
0.9987
0.998892
0.999117
0.999401
0.999745
1.00016
1.00074
1.00143
1.00235
1.00303
0.998198
0.998187
0.998238
0.998311
0.998401
0.998531
0.998677
0.998873
0.9991
0.999388
0.999736
1.00016
1.00074
1.00143
1.00236
1.00305
0.998168
0.998152
0.998203
0.998277
0.998369
0.998501
0.99865
0.998849
0.999079
0.999371
0.999723
1.00015
1.00074
1.00144
1.00237
1.00307
0.998132
0.99811
0.998162
0.998238
0.998331
0.998465
0.998616
0.998818
0.999052
0.999349
0.999705
1.00014
1.00073
1.00144
1.00238
1.00309
0.99809
0.998062
0.998113
0.998191
0.998285
0.998422
0.998575
0.998781
0.999018
0.999321
0.999681
1.00012
1.00072
1.00144
1.00239
1.0031
0.998041
0.998005
0.998057
0.998136
0.998231
0.99837
0.998525
0.998735
0.998976
0.999284
0.99965
1.0001
1.00071
1.00144
1.00239
1.00312
0.997985
0.997941
0.997992
0.998072
0.998168
0.998309
0.998466
0.99868
0.998924
0.999237
0.999609
1.00007
1.00068
1.00143
1.0024
1.00314
0.997919
0.997867
0.997917
0.997998
0.998094
0.998237
0.998395
0.998612
0.99886
0.999179
0.999556
1.00003
1.00065
1.00141
1.00239
1.00315
0.997846
0.997784
0.997834
0.997915
0.99801
0.998153
0.998313
0.998531
0.998782
0.999105
0.999488
0.999969
1.0006
1.00138
1.00238
1.00316
0.997763
0.997692
0.99774
0.997821
0.997915
0.998057
0.998216
0.998435
0.998687
0.999014
0.999402
0.999893
1.00054
1.00133
1.00235
1.00316
0.997671
0.997592
0.997638
0.997717
0.997808
0.997948
0.998104
0.998322
0.998574
0.998901
0.999292
0.999791
1.00045
1.00127
1.0023
1.00315
0.997571
0.997485
0.997528
0.997604
0.997691
0.997826
0.997978
0.99819
0.998438
0.998763
0.999154
0.999659
1.00032
1.00116
1.00223
1.00312
0.997466
0.997375
0.997413
0.997485
0.997566
0.997693
0.997837
0.99804
0.99828
0.998596
0.998982
0.999487
1.00016
1.00102
1.00211
1.00307
0.997356
0.997265
0.997298
0.997363
0.997435
0.997551
0.997683
0.997871
0.998098
0.998398
0.99877
0.999266
0.999931
1.00081
1.00193
1.00297
0.997248
0.99716
0.997187
0.997243
0.997303
0.997405
0.99752
0.997687
0.997893
0.998167
0.998516
0.998986
0.999628
1.00049
1.00161
1.00271
0.997145
0.997068
0.997087
0.997133
0.997179
0.997261
0.997355
0.997494
0.997671
0.997907
0.998217
0.998639
0.999228
1.00003
1.00105
1.00204
0.997055
0.996997
0.997007
0.997041
0.997069
0.997129
0.997196
0.997301
0.997442
0.997629
0.997889
0.998246
0.998766
0.999483
1.0004
1.00125
0.996988
0.996959
0.996959
0.996978
0.996987
0.997021
0.997057
0.997122
0.997219
0.997348
0.997548
0.997825
0.998262
0.998876
0.999672
1.0004
0.996953
0.996964
0.996955
0.996958
0.996945
0.99695
0.996953
0.996973
0.99702
0.997083
0.997215
0.997399
0.997744
0.998238
0.998908
0.999525
0.996962
0.997028
0.997007
0.996994
0.996959
0.996934
0.996899
0.996872
0.996866
0.996856
0.996914
0.996991
0.997237
0.997583
0.998121
0.998617
0.99703
0.997163
0.997132
0.997102
0.997044
0.996988
0.996917
0.996841
0.996778
0.996693
0.996671
0.996632
0.996767
0.996934
0.997335
0.997666
0.997169
0.997382
0.99734
0.997294
0.997214
0.997128
0.997019
0.996896
0.996778
0.996623
0.996524
0.996367
0.996385
0.996335
0.996566
0.99665
0.997392
0.997705
0.997654
0.997596
0.997498
0.997389
0.99725
0.997088
0.996916
0.996691
0.996511
0.99624
0.996119
0.995841
0.995852
0.995593
0.997717
0.998143
0.998082
0.998008
0.997889
0.997753
0.99758
0.997373
0.997145
0.996848
0.996583
0.9962
0.995941
0.995462
0.995241
0.99459
0.998158
0.998607
0.998529
0.99843
0.998279
0.998101
0.99788
0.997617
0.997328
0.996966
0.996617
0.996137
0.995758
0.99511
0.994688
0.993648
0.998629
0.998974
0.998879
0.998755
0.998572
0.998354
0.998086
0.997771
0.997424
0.997006
0.99659
0.996039
0.995571
0.994819
0.994279
0.993044
0.999003
0.9992
0.999094
0.99895
0.998743
0.998497
0.998196
0.997847
0.997459
0.997002
0.996538
0.995947
0.995422
0.994624
0.994029
0.992761
0.999235
0.999286
0.999173
0.999019
0.998799
0.998537
0.998217
0.99785
0.997438
0.996965
0.996475
0.995876
0.995327
0.99454
0.993939
0.99274
0.999325
0.999229
0.999116
0.998961
0.99874
0.998477
0.998153
0.997786
0.997368
0.996899
0.996406
0.995829
0.995287
0.994561
0.993998
0.992945
0.999269
0.999037
0.998931
0.998783
0.998572
0.99832
0.998007
0.997655
0.997249
0.996805
0.99633
0.9958
0.995293
0.994669
0.994181
0.993333
0.999076
0.998725
0.998628
0.998495
0.998301
0.998072
0.997781
0.997458
0.997081
0.996679
0.996241
0.995782
0.995334
0.994845
0.994466
0.993864
0.998761
0.998311
0.998225
0.998109
0.997937
0.997736
0.997477
0.997194
0.996858
0.996514
0.996131
0.995762
0.995398
0.995072
0.99483
0.994504
0.998343
0.997819
0.997742
0.997642
0.997492
0.997321
0.997097
0.99686
0.996576
0.9963
0.995987
0.995726
0.995471
0.995333
0.995252
0.995211
0.997848
0.997276
0.997203
0.997115
0.996983
0.996837
0.996647
0.996456
0.996226
0.996025
0.995796
0.99566
0.995537
0.995609
0.99571
0.995946
0.997304
0.996706
0.996635
0.996554
0.996433
0.996308
0.996147
0.995998
0.99582
0.99569
0.995549
0.995545
0.995577
0.995878
0.996167
0.996662
0.996734
0.996138
0.996071
0.995993
0.995881
0.995771
0.995631
0.995514
0.995372
0.995288
0.995222
0.995354
0.995561
0.9961
0.996571
0.997291
0.996165
0.995569
0.995504
0.995425
0.995312
0.995203
0.995069
0.99497
0.994861
0.994857
0.994926
0.995225
0.995608
0.996291
0.996883
0.997764
0.995593
0.994905
0.994856
0.994807
0.994736
0.994683
0.994629
0.994638
0.994684
0.994858
0.995089
0.995494
0.995934
0.996609
0.997172
0.998056
0.994922
0.994562
0.994565
0.994591
0.994621
0.994687
0.994776
0.994926
0.995125
0.995408
0.995701
0.996099
0.996481
0.997048
0.997506
0.998227
0.994561
0.994934
0.994965
0.995022
0.995099
0.995211
0.99535
0.995536
0.995749
0.996006
0.996273
0.996629
0.996984
0.997456
0.997863
0.998403
0.994924
0.995494
0.995531
0.995582
0.995654
0.995754
0.995879
0.996044
0.996235
0.996478
0.996735
0.997059
0.997381
0.997789
0.998172
0.998619
0.995481
0.995933
0.99597
0.996026
0.996105
0.99621
0.996338
0.9965
0.996683
0.996905
0.99714
0.997429
0.997717
0.998072
0.998405
0.998813
0.99592
0.996365
0.996402
0.996455
0.996531
0.996629
0.996748
0.996897
0.997064
0.997266
0.997479
0.997736
0.997993
0.9983
0.998592
0.99894
0.996352
0.996741
0.996777
0.996829
0.996903
0.996995
0.997108
0.997245
0.997398
0.99758
0.997771
0.997998
0.998223
0.99849
0.998741
0.999041
0.996729
0.997085
0.99712
0.997168
0.997237
0.997321
0.997425
0.997548
0.997686
0.997849
0.998019
0.998218
0.998415
0.998645
0.998861
0.999117
0.997074
0.99739
0.997424
0.997467
0.997531
0.997608
0.997703
0.997814
0.997937
0.998081
0.998232
0.998405
0.998577
0.998774
0.998958
0.999176
0.99738
0.997663
0.997695
0.997734
0.997792
0.997862
0.997947
0.998045
0.998155
0.998282
0.998414
0.998565
0.998713
0.998882
0.999039
0.999224
0.997654
0.997906
0.997935
0.99797
0.998023
0.998085
0.99816
0.998248
0.998345
0.998456
0.998571
0.998701
0.998829
0.998974
0.999107
0.999264
0.997897
0.998121
0.998147
0.998179
0.998226
0.998281
0.998348
0.998425
0.998511
0.998607
0.998707
0.998819
0.998929
0.999052
0.999165
0.999298
0.998113
0.998312
0.998336
0.998363
0.998406
0.998454
0.998513
0.99858
0.998655
0.998739
0.998825
0.998922
0.999016
0.99912
0.999216
0.999329
0.998305
0.998481
0.998503
0.998527
0.998564
0.998606
0.998659
0.998717
0.998782
0.998854
0.998929
0.999012
0.999092
0.99918
0.999262
0.999357
0.998475
0.998631
0.99865
0.998671
0.998704
0.998741
0.998787
0.998837
0.998894
0.998956
0.99902
0.999091
0.999159
0.999234
0.999303
0.999384
0.998626
0.998764
0.998781
0.9988
0.998829
0.998861
0.9989
0.998944
0.998993
0.999046
0.999101
0.999162
0.99922
0.999283
0.999342
0.999411
0.99876
0.998883
0.998898
0.998914
0.998939
0.998967
0.999001
0.999039
0.999081
0.999127
0.999174
0.999225
0.999274
0.999329
0.999378
0.999437
0.998879
0.998988
0.999002
0.999015
0.999037
0.999061
0.999091
0.999123
0.99916
0.999199
0.999239
0.999283
0.999325
0.999371
0.999413
0.999464
0.998985
0.999083
0.999095
0.999106
0.999125
0.999146
0.999172
0.999199
0.999231
0.999264
0.999299
0.999336
0.999371
0.99941
0.999446
0.99949
0.99908
0.999167
0.999178
0.999188
0.999204
0.999222
0.999244
0.999268
0.999295
0.999323
0.999353
0.999385
0.999415
0.999448
0.999479
0.999517
0.999165
0.999244
0.999253
0.999261
0.999276
0.999291
0.99931
0.99933
0.999353
0.999378
0.999403
0.99943
0.999456
0.999484
0.999511
0.999544
0.999241
0.999312
0.99932
0.999328
0.99934
0.999353
0.99937
0.999387
0.999407
0.999428
0.999449
0.999472
0.999495
0.999519
0.999542
0.999572
0.999311
0.999375
0.999382
0.999388
0.999399
0.99941
0.999424
0.999439
0.999456
0.999474
0.999493
0.999512
0.999531
0.999552
0.999572
0.999599
0.999373
0.999432
0.999438
0.999443
0.999453
0.999462
0.999474
0.999487
0.999502
0.999517
0.999533
0.99955
0.999566
0.999584
0.999602
0.999626
0.99943
0.999484
0.999489
0.999494
0.999502
0.99951
0.999521
0.999532
0.999544
0.999558
0.999571
0.999586
0.9996
0.999616
0.999631
0.999653
0.999483
0.999532
0.999536
0.99954
0.999547
0.999555
0.999564
0.999573
0.999584
0.999596
0.999608
0.99962
0.999633
0.999646
0.99966
0.99968
0.999531
0.999576
0.99958
0.999583
0.99959
0.999596
0.999604
0.999612
0.999622
0.999632
0.999642
0.999653
0.999664
0.999676
0.999688
0.999707
0.999575
0.999617
0.99962
0.999624
0.999629
0.999634
0.999641
0.999649
0.999657
0.999666
0.999675
0.999684
0.999694
0.999705
0.999716
0.999733
0.999616
0.999655
0.999658
0.999661
0.999666
0.99967
0.999676
0.999683
0.99969
0.999698
0.999706
0.999714
0.999723
0.999733
0.999743
0.999759
0.999654
0.999691
0.999693
0.999696
0.9997
0.999704
0.99971
0.999715
0.999722
0.999729
0.999736
0.999743
0.999751
0.99976
0.99977
0.999785
0.99969
0.999724
0.999726
0.999728
0.999732
0.999736
0.999741
0.999746
0.999752
0.999758
0.999764
0.999771
0.999778
0.999786
0.999795
0.99981
0.999723
0.999755
0.999757
0.999759
0.999763
0.999766
0.99977
0.999775
0.99978
0.999786
0.999792
0.999798
0.999804
0.999812
0.99982
0.999835
0.999755
0.999784
0.999786
0.999788
0.999791
0.999794
0.999798
0.999803
0.999807
0.999812
0.999818
0.999824
0.99983
0.999836
0.999845
0.999859
0.999784
0.999812
0.999814
0.999815
0.999818
0.999821
0.999825
0.999829
0.999833
0.999838
0.999843
0.999848
0.999854
0.999861
0.999869
0.999882
0.999812
0.999838
0.99984
0.999841
0.999844
0.999846
0.99985
0.999854
0.999858
0.999862
0.999867
0.999872
0.999878
0.999884
0.999892
0.999905
0.999837
0.999862
0.999864
0.999865
0.999868
0.99987
0.999874
0.999877
0.999881
0.999885
0.99989
0.999895
0.9999
0.999907
0.999914
0.999928
0.999862
0.999885
0.999887
0.999888
0.99989
0.999893
0.999896
0.999899
0.999903
0.999908
0.999912
0.999917
0.999922
0.999928
0.999936
0.999949
0.999885
0.999906
0.999908
0.999909
0.999912
0.999914
0.999917
0.999921
0.999924
0.999929
0.999933
0.999938
0.999943
0.999949
0.999957
0.999971
0.999906
0.999927
0.999928
0.999929
0.999931
0.999934
0.999937
0.99994
0.999944
0.999949
0.999953
0.999958
0.999964
0.99997
0.999978
0.999991
0.999926
0.999945
0.999946
0.999948
0.99995
0.999953
0.999956
0.999959
0.999963
0.999967
0.999972
0.999977
0.999983
0.999989
0.999998
1.00001
0.999945
0.999962
0.999964
0.999965
0.999967
0.99997
0.999973
0.999976
0.99998
0.999985
0.99999
0.999995
1
1.00001
1.00002
1.00003
0.999962
0.999978
0.999979
0.999981
0.999983
0.999986
0.999989
0.999992
0.999997
1
1.00001
1.00001
1.00002
1.00003
1.00003
1.00005
0.999978
0.999993
0.999994
0.999995
0.999998
1
1
1.00001
1.00001
1.00002
1.00002
1.00003
1.00003
1.00004
1.00005
1.00007
0.999992
1.00001
1.00001
1.00001
1.00001
1.00001
1.00002
1.00002
1.00002
1.00003
1.00004
1.00004
1.00005
1.00006
1.00007
1.00008
1.00001
1.00002
1.00002
1.00002
1.00002
1.00002
1.00003
1.00003
1.00004
1.00004
1.00005
1.00005
1.00006
1.00007
1.00008
1.0001
1.00002
1.00003
1.00003
1.00003
1.00003
1.00003
1.00004
1.00004
1.00005
1.00005
1.00006
1.00007
1.00007
1.00008
1.0001
1.00012
1.00003
1.00004
1.00004
1.00004
1.00004
1.00004
1.00005
1.00005
1.00006
1.00006
1.00007
1.00007
1.00008
1.00009
1.00011
1.00013
1.00004
1.00004
1.00004
1.00005
1.00005
1.00005
1.00005
1.00006
1.00006
1.00007
1.00007
1.00008
1.00009
1.0001
1.00012
1.00014
1.00004
1.00005
1.00005
1.00005
1.00005
1.00006
1.00006
1.00006
1.00007
1.00007
1.00008
1.00008
1.00009
1.0001
1.00012
1.00015
1.00005
1.00006
1.00006
1.00006
1.00006
1.00006
1.00006
1.00007
1.00007
1.00007
1.00008
1.00008
1.00009
1.0001
1.00011
1.00013
1.00006
1.00006
1.00006
1.00006
1.00006
1.00006
1.00007
1.00007
1.00007
1.00007
1.00008
1.00008
1.00009
1.0001
1.0001
1.00012
1.00006
)
;

boundaryField
{
    wireUpstream
    {
        type            calculated;
        value           nonuniform List<scalar> 
16
(
1.00006
1.00006
1.00006
1.00006
1.00007
1.00007
1.00007
1.00007
1.00008
1.00008
1.00008
1.00009
1.00009
1.0001
1.0001
1.00006
)
;
    }
    wireDownstream
    {
        type            calculated;
        value           nonuniform List<scalar> 
16
(
0.998508
0.998549
0.998603
0.998677
0.998776
0.998897
0.999051
0.999244
0.999479
0.999795
1.00017
1.0007
1.00133
1.0022
1.00286
0.998493
)
;
    }
    wireTopContact
    {
        type            calculated;
        value           nonuniform List<scalar> 
122
(
1.00288
1.00289
1.00289
1.00289
1.00289
1.0029
1.0029
1.0029
1.00291
1.00291
1.00291
1.00292
1.00292
1.00292
1.00293
1.00293
1.00294
1.00294
1.00294
1.00295
1.00295
1.00296
1.00296
1.00297
1.00297
1.00298
1.00299
1.003
1.00301
1.00302
1.00303
1.00304
1.00306
1.00307
1.00309
1.00311
1.00313
1.00315
1.00316
1.00318
1.00319
1.0032
1.0032
1.00318
1.00315
1.00308
1.00297
1.00273
1.00204
1.00123
1.00038
0.99949
0.998576
0.997642
0.996662
0.995639
0.994664
0.993701
0.993107
0.99284
0.992819
0.993017
0.993397
0.993918
0.994545
0.995237
0.995951
0.996634
0.997225
0.997668
0.997958
0.998174
0.998413
0.998623
0.998812
0.998941
0.999044
0.999121
0.999182
0.99923
0.99927
0.999305
0.999335
0.999363
0.99939
0.999417
0.999443
0.999469
0.999495
0.999521
0.999548
0.999575
0.999602
0.999629
0.999656
0.999683
0.999709
0.999735
0.999761
0.999787
0.999812
0.999836
0.99986
0.999883
0.999906
0.999929
0.99995
0.999972
0.999992
1.00001
1.00003
1.00005
1.00007
1.00009
1.0001
1.00012
1.00013
1.00014
1.00015
1.00013
1.00012
1.00288
)
;
    }
    front
    {
        type            wedge;
    }
    back
    {
        type            wedge;
    }
}


// ************************************************************************* //
