/*--------------------------------*- C++ -*----------------------------------*\
| =========                 |                                                 |
| \\      /  F ield         | foam-extend: Open Source CFD                    |
|  \\    /   O peration     | Version:     4.1-20200408                       |
|   \\  /    A nd           | Web:         http://www.foam-extend.org         |
|    \\/     M anipulation  |                                                 |
\*---------------------------------------------------------------------------*/
FoamFile
{
    version     2.0;
    format      ascii;
    class       volScalarField;
    location    "0.0415000";
    object      sigmaHyd;
}
// * * * * * * * * * * * * * * * * * * * * * * * * * * * * * * * * * * * * * //

dimensions      [1 -1 -2 0 0 0 0];

internalField   nonuniform List<scalar> 
1952
(
-2.19877e+08
-2.13832e+08
-2.0585e+08
-1.95012e+08
-1.80437e+08
-1.62597e+08
-1.39857e+08
-1.11393e+08
-7.67273e+07
-3.02139e+07
2.5212e+07
1.0397e+08
1.96019e+08
3.2435e+08
4.20658e+08
-2.21981e+08
-2.22358e+08
-2.16268e+08
-2.08123e+08
-1.97243e+08
-1.82392e+08
-1.64494e+08
-1.41405e+08
-1.12862e+08
-7.78112e+07
-3.11951e+07
2.4508e+07
1.03241e+08
1.95529e+08
3.23943e+08
4.20046e+08
-2.24464e+08
-2.24037e+08
-2.17914e+08
-2.09666e+08
-1.98742e+08
-1.8372e+08
-1.65762e+08
-1.42459e+08
-1.13844e+08
-7.85506e+07
-3.18364e+07
2.40417e+07
1.02855e+08
1.95408e+08
3.24034e+08
4.20383e+08
-2.26158e+08
-2.25517e+08
-2.19361e+08
-2.11034e+08
-2.00059e+08
-1.84907e+08
-1.66882e+08
-1.43411e+08
-1.14718e+08
-7.92222e+07
-3.23898e+07
2.36376e+07
1.02556e+08
1.95349e+08
3.24173e+08
4.20693e+08
-2.27659e+08
-2.2687e+08
-2.20686e+08
-2.12287e+08
-2.01261e+08
-1.85992e+08
-1.67899e+08
-1.44277e+08
-1.15502e+08
-7.98156e+07
-3.28538e+07
2.33125e+07
1.0236e+08
1.95409e+08
3.24436e+08
4.21135e+08
-2.29036e+08
-2.28091e+08
-2.21881e+08
-2.13416e+08
-2.02343e+08
-1.8697e+08
-1.68811e+08
-1.45052e+08
-1.16192e+08
-8.03324e+07
-3.32348e+07
2.30501e+07
1.02227e+08
1.95521e+08
3.24745e+08
4.21599e+08
-2.30279e+08
-2.29217e+08
-2.22983e+08
-2.14458e+08
-2.03339e+08
-1.8787e+08
-1.69647e+08
-1.4576e+08
-1.16816e+08
-8.07907e+07
-3.35523e+07
2.2845e+07
1.02151e+08
1.95684e+08
3.25102e+08
4.22103e+08
-2.31427e+08
-2.30253e+08
-2.23998e+08
-2.15415e+08
-2.04254e+08
-1.88693e+08
-1.70409e+08
-1.464e+08
-1.17375e+08
-8.11919e+07
-3.38166e+07
2.26861e+07
1.02118e+08
1.95881e+08
3.25483e+08
4.22616e+08
-2.32484e+08
-2.31213e+08
-2.24937e+08
-2.16299e+08
-2.05099e+08
-1.89451e+08
-1.71107e+08
-1.46983e+08
-1.17879e+08
-8.15438e+07
-3.40355e+07
2.25656e+07
1.02119e+08
1.96103e+08
3.25885e+08
4.23137e+08
-2.33465e+08
-2.32108e+08
-2.25813e+08
-2.17122e+08
-2.05883e+08
-1.90151e+08
-1.71751e+08
-1.47515e+08
-1.18337e+08
-8.1853e+07
-3.42179e+07
2.24762e+07
1.02147e+08
1.96343e+08
3.26296e+08
4.23656e+08
-2.3438e+08
-2.32946e+08
-2.26631e+08
-2.1789e+08
-2.06614e+08
-1.908e+08
-1.72347e+08
-1.48002e+08
-1.18755e+08
-8.21258e+07
-3.43756e+07
2.24103e+07
1.02194e+08
1.96595e+08
3.26715e+08
4.24171e+08
-2.35238e+08
-2.33737e+08
-2.27403e+08
-2.18611e+08
-2.07299e+08
-1.91406e+08
-1.72902e+08
-1.48449e+08
-1.19139e+08
-8.23642e+07
-3.45109e+07
2.23604e+07
1.02257e+08
1.96856e+08
3.27141e+08
4.24682e+08
-2.36048e+08
-2.34487e+08
-2.28132e+08
-2.19293e+08
-2.07944e+08
-1.91974e+08
-1.73419e+08
-1.48862e+08
-1.19494e+08
-8.25744e+07
-3.46502e+07
2.23192e+07
1.02331e+08
1.97123e+08
3.27573e+08
4.25189e+08
-2.36816e+08
-2.35205e+08
-2.28829e+08
-2.19944e+08
-2.08558e+08
-1.92512e+08
-1.73907e+08
-1.49244e+08
-1.19824e+08
-8.27421e+07
-3.47849e+07
2.2262e+07
1.02413e+08
1.97391e+08
3.2801e+08
4.25691e+08
-2.3755e+08
-2.35898e+08
-2.295e+08
-2.20569e+08
-2.09144e+08
-1.93026e+08
-1.74364e+08
-1.49601e+08
-1.20106e+08
-8.28693e+07
-3.48659e+07
2.21964e+07
1.02523e+08
1.97656e+08
3.28461e+08
4.26186e+08
-2.3826e+08
-2.36574e+08
-2.30153e+08
-2.21178e+08
-2.09711e+08
-1.93522e+08
-1.74797e+08
-1.49942e+08
-1.20349e+08
-8.29896e+07
-3.48995e+07
2.21764e+07
1.02671e+08
1.97937e+08
3.28918e+08
4.26677e+08
-2.38951e+08
-2.37228e+08
-2.3078e+08
-2.21761e+08
-2.10249e+08
-1.9399e+08
-1.75199e+08
-1.50255e+08
-1.20566e+08
-8.30985e+07
-3.49408e+07
2.21955e+07
1.02833e+08
1.98239e+08
3.29381e+08
4.27168e+08
-2.39618e+08
-2.37866e+08
-2.31391e+08
-2.22327e+08
-2.10769e+08
-1.9444e+08
-1.75583e+08
-1.50552e+08
-1.20772e+08
-8.31908e+07
-3.49885e+07
2.22258e+07
1.02999e+08
1.98556e+08
3.29853e+08
4.2767e+08
-2.40271e+08
-2.38514e+08
-2.3201e+08
-2.22903e+08
-2.11297e+08
-1.94899e+08
-1.75974e+08
-1.50857e+08
-1.20982e+08
-8.32767e+07
-3.5029e+07
2.22668e+07
1.03175e+08
1.98889e+08
3.30343e+08
4.28196e+08
-2.40932e+08
-2.39168e+08
-2.32633e+08
-2.23482e+08
-2.11827e+08
-1.9536e+08
-1.76366e+08
-1.51159e+08
-1.21188e+08
-8.33539e+07
-3.50591e+07
2.23286e+07
1.03372e+08
1.9925e+08
3.30856e+08
4.28749e+08
-2.41598e+08
-2.39833e+08
-2.33266e+08
-2.24071e+08
-2.12365e+08
-1.95825e+08
-1.76757e+08
-1.51456e+08
-1.21385e+08
-8.34142e+07
-3.5074e+07
2.24114e+07
1.03591e+08
1.99641e+08
3.314e+08
4.29339e+08
-2.42276e+08
-2.40523e+08
-2.33922e+08
-2.2468e+08
-2.12919e+08
-1.96303e+08
-1.77158e+08
-1.51755e+08
-1.21582e+08
-8.3465e+07
-3.50749e+07
2.25167e+07
1.03836e+08
2.00067e+08
3.31981e+08
4.29974e+08
-2.42979e+08
-2.41249e+08
-2.34611e+08
-2.2532e+08
-2.13499e+08
-1.96801e+08
-1.77573e+08
-1.52061e+08
-1.21779e+08
-8.35073e+07
-3.50612e+07
2.26471e+07
1.04112e+08
2.00534e+08
3.32609e+08
4.30663e+08
-2.43719e+08
-2.42025e+08
-2.35348e+08
-2.26002e+08
-2.14118e+08
-1.97331e+08
-1.78014e+08
-1.52383e+08
-1.21985e+08
-8.35456e+07
-3.50356e+07
2.28029e+07
1.04422e+08
2.01048e+08
3.33291e+08
4.31417e+08
-2.4451e+08
-2.42869e+08
-2.36149e+08
-2.26744e+08
-2.14791e+08
-1.97905e+08
-1.78492e+08
-1.52729e+08
-1.22206e+08
-8.35852e+07
-3.50003e+07
2.29836e+07
1.04768e+08
2.01613e+08
3.34036e+08
4.32247e+08
-2.45369e+08
-2.43804e+08
-2.37038e+08
-2.27567e+08
-2.15538e+08
-1.98544e+08
-1.79025e+08
-1.53117e+08
-1.22456e+08
-8.36365e+07
-3.4962e+07
2.31865e+07
1.05152e+08
2.02236e+08
3.34855e+08
4.33168e+08
-2.46321e+08
-2.44855e+08
-2.38038e+08
-2.28495e+08
-2.16383e+08
-1.99267e+08
-1.79631e+08
-1.53562e+08
-1.22748e+08
-8.37093e+07
-3.49257e+07
2.34115e+07
1.05577e+08
2.02923e+08
3.35757e+08
4.34192e+08
-2.47391e+08
-2.46051e+08
-2.3918e+08
-2.29554e+08
-2.17351e+08
-2.001e+08
-1.80333e+08
-1.54084e+08
-1.23098e+08
-8.38187e+07
-3.49053e+07
2.36506e+07
1.06039e+08
2.0368e+08
3.3675e+08
4.35335e+08
-2.48608e+08
-2.47431e+08
-2.40502e+08
-2.30784e+08
-2.18479e+08
-2.01078e+08
-1.81163e+08
-1.54713e+08
-1.23534e+08
-8.39867e+07
-3.49193e+07
2.38897e+07
1.06529e+08
2.04505e+08
3.37842e+08
4.36614e+08
-2.50012e+08
-2.49045e+08
-2.42053e+08
-2.32231e+08
-2.19815e+08
-2.02243e+08
-1.82165e+08
-1.55489e+08
-1.24091e+08
-8.42463e+07
-3.49893e+07
2.41127e+07
1.0704e+08
2.05397e+08
3.39042e+08
4.38046e+08
-2.51652e+08
-2.50943e+08
-2.43884e+08
-2.33944e+08
-2.21405e+08
-2.03643e+08
-1.83379e+08
-1.56451e+08
-1.24802e+08
-8.4628e+07
-3.51453e+07
2.43028e+07
1.07558e+08
2.06355e+08
3.40351e+08
4.39645e+08
-2.53579e+08
-2.53181e+08
-2.46053e+08
-2.3598e+08
-2.23306e+08
-2.05329e+08
-1.84858e+08
-1.57646e+08
-1.25713e+08
-8.51887e+07
-3.54274e+07
2.44301e+07
1.0806e+08
2.07369e+08
3.4177e+08
4.41425e+08
-2.55852e+08
-2.55835e+08
-2.48634e+08
-2.38411e+08
-2.25591e+08
-2.07374e+08
-1.86671e+08
-1.5914e+08
-1.26872e+08
-8.59759e+07
-3.58965e+07
2.44558e+07
1.08517e+08
2.08423e+08
3.43293e+08
4.43394e+08
-2.58544e+08
-2.58982e+08
-2.51707e+08
-2.41317e+08
-2.28338e+08
-2.09849e+08
-1.8889e+08
-1.60983e+08
-1.28344e+08
-8.7011e+07
-3.66105e+07
2.43496e+07
1.08887e+08
2.09492e+08
3.44899e+08
4.45553e+08
-2.61734e+08
-2.62711e+08
-2.55363e+08
-2.44787e+08
-2.31639e+08
-2.12847e+08
-1.91613e+08
-1.63271e+08
-1.30248e+08
-8.83897e+07
-3.76158e+07
2.40357e+07
1.09114e+08
2.10531e+08
3.46569e+08
4.47896e+08
-2.65511e+08
-2.67131e+08
-2.59713e+08
-2.48937e+08
-2.35611e+08
-2.16492e+08
-1.9496e+08
-1.66143e+08
-1.32699e+08
-9.02528e+07
-3.90051e+07
2.34177e+07
1.0913e+08
2.1148e+08
3.48262e+08
4.50413e+08
-2.69985e+08
-2.72342e+08
-2.64861e+08
-2.53872e+08
-2.40364e+08
-2.20898e+08
-1.99052e+08
-1.69724e+08
-1.35818e+08
-9.27345e+07
-4.09199e+07
2.238e+07
1.08831e+08
2.12265e+08
3.49921e+08
4.53072e+08
-2.75251e+08
-2.78459e+08
-2.70929e+08
-2.59721e+08
-2.46035e+08
-2.26212e+08
-2.04036e+08
-1.74172e+08
-1.39758e+08
-9.59803e+07
-4.35205e+07
2.07676e+07
1.0808e+08
2.12772e+08
3.51464e+08
4.55829e+08
-2.81425e+08
-2.85611e+08
-2.7805e+08
-2.66627e+08
-2.52773e+08
-2.32596e+08
-2.10086e+08
-1.79669e+08
-1.4471e+08
-1.00181e+08
-4.70028e+07
1.83995e+07
1.06699e+08
2.12854e+08
3.52766e+08
4.58617e+08
-2.88632e+08
-2.93903e+08
-2.86339e+08
-2.74715e+08
-2.60719e+08
-2.40208e+08
-2.17374e+08
-1.86412e+08
-1.50891e+08
-1.05573e+08
-5.16083e+07
1.50325e+07
1.04456e+08
2.12313e+08
3.5366e+08
4.61323e+08
-2.96974e+08
-3.03443e+08
-2.95913e+08
-2.8412e+08
-2.70024e+08
-2.49226e+08
-2.26104e+08
-1.94632e+08
-1.58553e+08
-1.12432e+08
-5.76338e+07
1.03631e+07
1.01051e+08
2.10877e+08
3.53914e+08
4.63802e+08
-3.06555e+08
-3.14301e+08
-3.06856e+08
-2.94947e+08
-2.80819e+08
-2.59816e+08
-2.36476e+08
-2.04575e+08
-1.67986e+08
-1.21087e+08
-6.54366e+07
4.01292e+06
9.6099e+07
2.08195e+08
3.5321e+08
4.65844e+08
-3.17438e+08
-3.26503e+08
-3.19209e+08
-3.07265e+08
-2.93204e+08
-2.72123e+08
-2.48686e+08
-2.16499e+08
-1.79506e+08
-1.31932e+08
-7.54622e+07
-4.51389e+06
8.90854e+07
2.03775e+08
3.51111e+08
4.67161e+08
-3.29643e+08
-3.40024e+08
-3.32964e+08
-3.211e+08
-3.07246e+08
-2.86275e+08
-2.62922e+08
-2.30677e+08
-1.93467e+08
-1.45417e+08
-8.82509e+07
-1.5846e+07
7.93302e+07
1.96934e+08
3.46977e+08
4.67299e+08
-3.43135e+08
-3.54744e+08
-3.4802e+08
-3.3639e+08
-3.22933e+08
-3.02328e+08
-2.79324e+08
-2.47356e+08
-2.10232e+08
-1.62053e+08
-1.04446e+08
-3.07802e+07
6.59314e+07
1.86711e+08
3.399e+08
4.65531e+08
-3.57785e+08
-3.70423e+08
-3.6416e+08
-3.52963e+08
-3.40147e+08
-3.20244e+08
-2.97951e+08
-2.66728e+08
-2.30143e+08
-1.82382e+08
-1.24795e+08
-5.03068e+07
4.77082e+07
1.71797e+08
3.28725e+08
4.61162e+08
-3.73345e+08
-3.86676e+08
-3.81017e+08
-3.70493e+08
-3.58622e+08
-3.39843e+08
-3.18733e+08
-2.88877e+08
-2.53466e+08
-2.06929e+08
-1.50116e+08
-7.56331e+07
2.30765e+07
1.50308e+08
3.11656e+08
4.53522e+08
-3.89418e+08
-4.02916e+08
-3.98025e+08
-3.88452e+08
-3.77884e+08
-3.60733e+08
-3.41389e+08
-3.13683e+08
-2.803e+08
-2.36119e+08
-1.8124e+08
-1.08208e+08
-1.01886e+07
1.19062e+08
2.8435e+08
4.38392e+08
-4.05412e+08
-4.1834e+08
-4.1439e+08
-4.06076e+08
-3.97209e+08
-3.82252e+08
-3.6535e+08
-3.40723e+08
-3.10421e+08
-2.70069e+08
-2.18761e+08
-1.49492e+08
-5.48262e+07
7.29463e+07
2.37574e+08
4.00185e+08
-4.2052e+08
-4.31901e+08
-4.2907e+08
-4.22326e+08
-4.15582e+08
-4.03413e+08
-3.89686e+08
-3.69157e+08
-3.43145e+08
-3.08388e+08
-2.62773e+08
-2.00634e+08
-1.13848e+08
4.49263e+06
1.55684e+08
3.01161e+08
-4.33695e+08
-4.42285e+08
-4.40739e+08
-4.35862e+08
-4.31641e+08
-4.22823e+08
-4.12973e+08
-3.97497e+08
-3.76883e+08
-3.49281e+08
-3.11017e+08
-2.58441e+08
-1.81916e+08
-7.62825e+07
5.85134e+07
1.83952e+08
-4.43628e+08
-4.47931e+08
-4.47816e+08
-4.4506e+08
-4.4372e+08
-4.38747e+08
-4.33412e+08
-4.23846e+08
-4.09647e+08
-3.90643e+08
-3.61215e+08
-3.20462e+08
-2.56097e+08
-1.65732e+08
-4.84351e+07
5.93041e+07
-4.4877e+08
-4.47064e+08
-4.48489e+08
-4.48046e+08
-4.49869e+08
-4.49116e+08
-4.48808e+08
-4.4582e+08
-4.38866e+08
-4.29617e+08
-4.10178e+08
-3.83185e+08
-3.32315e+08
-2.59693e+08
-1.60931e+08
-7.00457e+07
-4.47362e+08
-4.37737e+08
-4.40763e+08
-4.42739e+08
-4.47894e+08
-4.51582e+08
-4.56648e+08
-4.60665e+08
-4.61589e+08
-4.62953e+08
-4.54461e+08
-4.43101e+08
-4.07027e+08
-3.56029e+08
-2.76945e+08
-2.0386e+08
-4.37476e+08
-4.17841e+08
-4.22469e+08
-4.26861e+08
-4.3538e+08
-4.43534e+08
-4.54111e+08
-4.65267e+08
-4.74489e+08
-4.8694e+08
-4.90165e+08
-4.95986e+08
-4.76037e+08
-4.51489e+08
-3.92607e+08
-3.43871e+08
-4.17029e+08
-3.856e+08
-3.91815e+08
-3.98582e+08
-4.10424e+08
-4.22952e+08
-4.38992e+08
-4.57072e+08
-4.7453e+08
-4.97289e+08
-5.11868e+08
-5.34838e+08
-5.32217e+08
-5.3961e+08
-5.05718e+08
-4.93257e+08
-3.84245e+08
-3.38124e+08
-3.45589e+08
-3.54174e+08
-3.68611e+08
-3.84551e+08
-4.05002e+08
-4.28858e+08
-4.5413e+08
-4.87287e+08
-5.13719e+08
-5.53627e+08
-5.71339e+08
-6.12186e+08
-6.10568e+08
-6.48542e+08
-3.36375e+08
-2.73672e+08
-2.82672e+08
-2.93508e+08
-3.11011e+08
-3.31013e+08
-3.5651e+08
-3.87015e+08
-4.2053e+08
-4.64132e+08
-5.03185e+08
-5.59496e+08
-5.9752e+08
-6.67845e+08
-7.00294e+08
-7.9584e+08
-2.71413e+08
-2.05358e+08
-2.16809e+08
-2.31366e+08
-2.53649e+08
-2.79799e+08
-3.12422e+08
-3.51118e+08
-3.93566e+08
-4.46892e+08
-4.98116e+08
-5.68624e+08
-6.24368e+08
-7.19547e+08
-7.81449e+08
-9.33878e+08
-2.02132e+08
-1.513e+08
-1.65209e+08
-1.83544e+08
-2.1055e+08
-2.42637e+08
-2.82111e+08
-3.28349e+08
-3.794e+08
-4.40999e+08
-5.02188e+08
-5.83052e+08
-6.51814e+08
-7.62261e+08
-8.41373e+08
-1.02246e+09
-1.46999e+08
-1.17919e+08
-1.3363e+08
-1.54776e+08
-1.85247e+08
-2.21543e+08
-2.65911e+08
-3.17241e+08
-3.74345e+08
-4.41489e+08
-5.09743e+08
-5.96557e+08
-6.73717e+08
-7.90813e+08
-8.78145e+08
-1.06386e+09
-1.12724e+08
-1.05317e+08
-1.2194e+08
-1.44646e+08
-1.77007e+08
-2.15582e+08
-2.62759e+08
-3.16759e+08
-3.77382e+08
-4.46991e+08
-5.19022e+08
-6.07061e+08
-6.87696e+08
-8.03112e+08
-8.91296e+08
-1.06692e+09
-9.95381e+07
-1.13744e+08
-1.30314e+08
-1.53179e+08
-1.85697e+08
-2.24455e+08
-2.72162e+08
-3.26272e+08
-3.87705e+08
-4.56623e+08
-5.29133e+08
-6.13992e+08
-6.936e+08
-8.00082e+08
-8.82671e+08
-1.03701e+09
-1.07777e+08
-1.41935e+08
-1.57628e+08
-1.79377e+08
-2.10497e+08
-2.47542e+08
-2.93671e+08
-3.45516e+08
-4.05178e+08
-4.70456e+08
-5.40337e+08
-6.18127e+08
-6.92651e+08
-7.84247e+08
-8.55753e+08
-9.8013e+08
-1.36163e+08
-1.87951e+08
-2.02206e+08
-2.21861e+08
-2.50377e+08
-2.84176e+08
-3.26935e+08
-3.74446e+08
-4.29983e+08
-4.89008e+08
-5.53422e+08
-6.20825e+08
-6.86562e+08
-7.58395e+08
-8.14036e+08
-9.0225e+08
-1.82655e+08
-2.48962e+08
-2.61617e+08
-2.78702e+08
-3.03963e+08
-3.33564e+08
-3.71683e+08
-4.13267e+08
-4.62677e+08
-5.13251e+08
-5.69617e+08
-6.23768e+08
-6.77188e+08
-7.25084e+08
-7.60582e+08
-8.08499e+08
-2.44234e+08
-3.21369e+08
-3.32714e+08
-3.47382e+08
-3.69421e+08
-3.94628e+08
-4.27579e+08
-4.62363e+08
-5.04246e+08
-5.44718e+08
-5.90711e+08
-6.29017e+08
-6.66562e+08
-6.8683e+08
-6.98594e+08
-7.04709e+08
-3.17075e+08
-4.0129e+08
-4.11932e+08
-4.24888e+08
-4.44365e+08
-4.6574e+08
-4.938e+08
-5.21795e+08
-5.556e+08
-5.85089e+08
-6.18745e+08
-6.38826e+08
-6.56854e+08
-6.46187e+08
-6.3147e+08
-5.96713e+08
-3.97144e+08
-4.85084e+08
-4.95465e+08
-5.07465e+08
-5.25163e+08
-5.43502e+08
-5.67275e+08
-5.89085e+08
-6.1523e+08
-6.34349e+08
-6.55092e+08
-6.55596e+08
-6.5094e+08
-6.06757e+08
-5.64251e+08
-4.91537e+08
-4.80922e+08
-5.68486e+08
-5.78454e+08
-5.89838e+08
-6.06324e+08
-6.22483e+08
-6.43015e+08
-6.60256e+08
-6.81095e+08
-6.93388e+08
-7.0305e+08
-6.83754e+08
-6.53245e+08
-5.74141e+08
-5.04882e+08
-3.98993e+08
-5.64564e+08
-6.52069e+08
-6.61618e+08
-6.73221e+08
-6.89897e+08
-7.05917e+08
-7.25511e+08
-7.40054e+08
-7.56043e+08
-7.56623e+08
-7.46494e+08
-7.02646e+08
-6.46369e+08
-5.46102e+08
-4.59009e+08
-3.29484e+08
-6.48626e+08
-7.496e+08
-7.5677e+08
-7.63991e+08
-7.74405e+08
-7.822e+08
-7.90091e+08
-7.88825e+08
-7.82083e+08
-7.56509e+08
-7.22602e+08
-6.63097e+08
-5.98521e+08
-4.99302e+08
-4.16508e+08
-2.86411e+08
-7.47062e+08
-7.99936e+08
-7.99468e+08
-7.95723e+08
-7.91277e+08
-7.81549e+08
-7.68537e+08
-7.46527e+08
-7.17373e+08
-6.75774e+08
-6.32802e+08
-5.74233e+08
-5.18144e+08
-4.34751e+08
-3.67357e+08
-2.61277e+08
-8.00025e+08
-7.45363e+08
-7.40754e+08
-7.32439e+08
-7.21176e+08
-7.04729e+08
-6.84338e+08
-6.56928e+08
-6.25703e+08
-5.87968e+08
-5.48776e+08
-4.9633e+08
-4.44227e+08
-3.74786e+08
-3.149e+08
-2.35382e+08
-7.46826e+08
-6.63135e+08
-6.57778e+08
-6.50185e+08
-6.39644e+08
-6.24897e+08
-6.06628e+08
-5.82323e+08
-5.54222e+08
-5.18512e+08
-4.80862e+08
-4.33118e+08
-3.85775e+08
-3.258e+08
-2.69322e+08
-2.03542e+08
-6.65114e+08
-5.987e+08
-5.93299e+08
-5.84964e+08
-5.73355e+08
-5.57911e+08
-5.39086e+08
-5.15297e+08
-4.88501e+08
-4.55778e+08
-4.2131e+08
-3.78756e+08
-3.36323e+08
-2.84128e+08
-2.35044e+08
-1.74928e+08
-6.00575e+08
-5.35244e+08
-5.29802e+08
-5.21902e+08
-5.10768e+08
-4.9637e+08
-4.78822e+08
-4.57035e+08
-4.32488e+08
-4.02731e+08
-3.7134e+08
-3.33504e+08
-2.95773e+08
-2.50499e+08
-2.07569e+08
-1.5626e+08
-5.37092e+08
-4.79957e+08
-4.74567e+08
-4.66965e+08
-4.56161e+08
-4.42533e+08
-4.25973e+08
-4.05869e+08
-3.83359e+08
-3.56582e+08
-3.28401e+08
-2.95033e+08
-2.61823e+08
-2.22584e+08
-1.85615e+08
-1.41353e+08
-4.81726e+08
-4.29361e+08
-4.24167e+08
-4.17143e+08
-4.07042e+08
-3.94558e+08
-3.79364e+08
-3.6119e+08
-3.40865e+08
-3.16979e+08
-2.91887e+08
-2.62612e+08
-2.33566e+08
-1.99721e+08
-1.67969e+08
-1.30255e+08
-4.31012e+08
-3.84471e+08
-3.79531e+08
-3.73087e+08
-3.63714e+08
-3.52341e+08
-3.38483e+08
-3.22143e+08
-3.03907e+08
-2.82747e+08
-2.6058e+08
-2.35034e+08
-2.0979e+08
-1.80686e+08
-1.5356e+08
-1.21439e+08
-3.85994e+08
-3.44278e+08
-3.39659e+08
-3.33844e+08
-3.25283e+08
-3.15064e+08
-3.02579e+08
-2.88034e+08
-2.71817e+08
-2.53195e+08
-2.33738e+08
-2.1155e+08
-1.89718e+08
-1.64783e+08
-1.41675e+08
-1.1441e+08
-3.4566e+08
-3.08603e+08
-3.04332e+08
-2.99128e+08
-2.91372e+08
-2.82255e+08
-2.71088e+08
-2.5822e+08
-2.43885e+08
-2.27585e+08
-2.106e+08
-1.91408e+08
-1.72607e+08
-1.51302e+08
-1.31665e+08
-1.08529e+08
-3.09847e+08
-2.76902e+08
-2.72996e+08
-2.68381e+08
-2.61419e+08
-2.53351e+08
-2.43436e+08
-2.32125e+08
-2.19532e+08
-2.05334e+08
-1.90577e+08
-1.74038e+08
-1.57906e+08
-1.39754e+08
-1.23101e+08
-1.03494e+08
-2.7801e+08
-2.48801e+08
-2.45259e+08
-2.41192e+08
-2.34986e+08
-2.27886e+08
-2.19135e+08
-2.09242e+08
-1.98232e+08
-1.85917e+08
-1.73148e+08
-1.5894e+08
-1.45138e+08
-1.29702e+08
-1.15592e+08
-9.89597e+07
-2.49782e+08
-2.2388e+08
-2.20693e+08
-2.17132e+08
-2.11633e+08
-2.0542e+08
-1.97737e+08
-1.89124e+08
-1.79541e+08
-1.68898e+08
-1.57887e+08
-1.45715e+08
-1.33936e+08
-1.20832e+08
-1.08886e+08
-9.47662e+07
-2.24743e+08
-2.01779e+08
-1.9893e+08
-1.95826e+08
-1.90979e+08
-1.85567e+08
-1.78851e+08
-1.71381e+08
-1.6307e+08
-1.539e+08
-1.44433e+08
-1.34029e+08
-1.23994e+08
-1.12882e+08
-1.02767e+08
-9.07586e+07
-2.02534e+08
-1.82155e+08
-1.79622e+08
-1.76928e+08
-1.72675e+08
-1.67978e+08
-1.6213e+08
-1.55673e+08
-1.48488e+08
-1.40608e+08
-1.32487e+08
-1.23608e+08
-1.15072e+08
-1.05654e+08
-9.70797e+07
-8.68322e+07
-1.82812e+08
-1.64701e+08
-1.6246e+08
-1.6013e+08
-1.56412e+08
-1.52349e+08
-1.47273e+08
-1.41706e+08
-1.35511e+08
-1.28753e+08
-1.218e+08
-1.14234e+08
-1.06979e+08
-9.89995e+07
-9.17247e+07
-8.29613e+07
-1.65271e+08
-1.49142e+08
-1.47167e+08
-1.45158e+08
-1.41918e+08
-1.38413e+08
-1.34018e+08
-1.2923e+08
-1.23899e+08
-1.18112e+08
-1.12167e+08
-1.05723e+08
-9.95572e+07
-9.27902e+07
-8.65981e+07
-7.90551e+07
-1.49635e+08
-1.35234e+08
-1.335e+08
-1.31771e+08
-1.28955e+08
-1.25937e+08
-1.22141e+08
-1.18028e+08
-1.13447e+08
-1.08498e+08
-1.03418e+08
-9.79307e+07
-9.26903e+07
-8.6947e+07
-8.16643e+07
-7.51487e+07
-1.3566e+08
-1.22761e+08
-1.21242e+08
-1.19757e+08
-1.17315e+08
-1.1472e+08
-1.11445e+08
-1.07917e+08
-1.03984e+08
-9.97521e+07
-9.54121e+07
-9.07377e+07
-8.62779e+07
-8.1392e+07
-7.68623e+07
-7.11883e+07
-1.23128e+08
-1.11534e+08
-1.10207e+08
-1.08932e+08
-1.06817e+08
-1.04588e+08
-1.01765e+08
-9.87395e+07
-9.53651e+07
-9.17457e+07
-8.80365e+07
-8.40499e+07
-8.02482e+07
-7.60808e+07
-7.2177e+07
-6.71994e+07
-1.1185e+08
-1.01389e+08
-1.00231e+08
-9.91372e+07
-9.73065e+07
-9.53918e+07
-9.29602e+07
-9.03647e+07
-8.74683e+07
-8.43704e+07
-8.11968e+07
-7.77907e+07
-7.45418e+07
-7.09746e+07
-6.75899e+07
-6.31891e+07
-1.0166e+08
-9.21819e+07
-9.11728e+07
-9.02341e+07
-8.86499e+07
-8.70047e+07
-8.49089e+07
-8.26808e+07
-8.01922e+07
-7.75367e+07
-7.48164e+07
-7.18988e+07
-6.91127e+07
-6.60446e+07
-6.30864e+07
-5.9151e+07
-9.24151e+07
-8.37906e+07
-8.29114e+07
-8.21049e+07
-8.07333e+07
-7.93178e+07
-7.75097e+07
-7.55937e+07
-7.34521e+07
-7.11708e+07
-6.88334e+07
-6.63266e+07
-6.3929e+07
-6.12798e+07
-5.86807e+07
-5.51465e+07
-8.39914e+07
-7.61093e+07
-7.53428e+07
-7.46485e+07
-7.34595e+07
-7.22392e+07
-7.06764e+07
-6.90248e+07
-6.71772e+07
-6.52112e+07
-6.31958e+07
-6.10328e+07
-5.89584e+07
-5.66552e+07
-5.43481e+07
-5.11323e+07
-7.62824e+07
-6.90475e+07
-6.83784e+07
-6.7779e+07
-6.67461e+07
-6.56909e+07
-6.43365e+07
-6.29081e+07
-6.13089e+07
-5.96079e+07
-5.7863e+07
-5.59876e+07
-5.41832e+07
-5.21692e+07
-5.01061e+07
-4.7161e+07
-6.91972e+07
-6.25283e+07
-6.1943e+07
-6.14234e+07
-6.05235e+07
-5.96073e+07
-5.84293e+07
-5.71884e+07
-5.57982e+07
-5.43192e+07
-5.28002e+07
-5.11643e+07
-4.95835e+07
-4.78077e+07
-4.59434e+07
-4.32164e+07
-6.26582e+07
-5.64865e+07
-5.5973e+07
-5.55201e+07
-5.47329e+07
-5.39333e+07
-5.29039e+07
-5.182e+07
-5.06049e+07
-4.9311e+07
-4.79804e+07
-4.65435e+07
-4.51478e+07
-4.35693e+07
-4.18683e+07
-3.93206e+07
-5.65998e+07
-5.0867e+07
-5.04146e+07
-5.00173e+07
-4.93252e+07
-4.86228e+07
-4.7718e+07
-4.67647e+07
-4.56957e+07
-4.45554e+07
-4.3381e+07
-4.21086e+07
-4.08655e+07
-3.94496e+07
-3.78827e+07
-3.54841e+07
-5.09665e+07
-4.56236e+07
-4.52231e+07
-4.48717e+07
-4.42593e+07
-4.36373e+07
-4.28364e+07
-4.19912e+07
-4.10431e+07
-4.00296e+07
-3.89838e+07
-3.78466e+07
-3.67283e+07
-3.54452e+07
-3.39859e+07
-3.17056e+07
-4.57117e+07
-4.07179e+07
-4.03611e+07
-4.00471e+07
-3.95012e+07
-3.89452e+07
-3.82302e+07
-3.74735e+07
-3.6625e+07
-3.57151e+07
-3.47745e+07
-3.37477e+07
-3.2731e+07
-3.15568e+07
-3.01862e+07
-2.8007e+07
-4.07967e+07
-3.61178e+07
-3.57977e+07
-3.5514e+07
-3.5023e+07
-3.45204e+07
-3.38758e+07
-3.31908e+07
-3.24232e+07
-3.15969e+07
-3.07411e+07
-2.9803e+07
-2.88674e+07
-2.77802e+07
-2.64789e+07
-2.43784e+07
-3.61891e+07
-3.17974e+07
-3.15078e+07
-3.12479e+07
-3.08018e+07
-3.03418e+07
-2.97541e+07
-2.91262e+07
-2.84233e+07
-2.76633e+07
-2.68746e+07
-2.60067e+07
-2.51347e+07
-2.41166e+07
-2.28698e+07
-2.08338e+07
-3.18628e+07
-2.77354e+07
-2.7471e+07
-2.72295e+07
-2.68196e+07
-2.63927e+07
-2.58501e+07
-2.52664e+07
-2.4614e+07
-2.39051e+07
-2.31678e+07
-2.23534e+07
-2.15291e+07
-2.05634e+07
-1.93567e+07
-1.73701e+07
-2.77963e+07
-2.39152e+07
-2.36712e+07
-2.34434e+07
-2.30621e+07
-2.266e+07
-2.21522e+07
-2.16015e+07
-2.09869e+07
-2.03156e+07
-1.96157e+07
-1.88399e+07
-1.8049e+07
-1.71204e+07
-1.594e+07
-1.3988e+07
-2.39727e+07
-2.03236e+07
-2.00963e+07
-1.98778e+07
-1.95186e+07
-1.91341e+07
-1.8652e+07
-1.81243e+07
-1.75364e+07
-1.68904e+07
-1.62152e+07
-1.54642e+07
-1.46933e+07
-1.37876e+07
-1.2621e+07
-1.06909e+07
-2.03788e+07
-1.6951e+07
-1.6737e+07
-1.65243e+07
-1.61814e+07
-1.58081e+07
-1.53437e+07
-1.48302e+07
-1.4259e+07
-1.36273e+07
-1.2965e+07
-1.22259e+07
-1.14621e+07
-1.0565e+07
-9.39882e+06
-7.47521e+06
-1.70049e+07
-1.37906e+07
-1.35871e+07
-1.3377e+07
-1.30457e+07
-1.26781e+07
-1.22245e+07
-1.17174e+07
-1.11538e+07
-1.05263e+07
-9.86599e+06
-9.12665e+06
-8.35746e+06
-7.45512e+06
-6.27631e+06
-4.34532e+06
-1.3844e+07
-1.0838e+07
-1.06426e+07
-1.04327e+07
-1.01087e+07
-9.74233e+06
-9.29347e+06
-8.78605e+06
-8.22213e+06
-7.58963e+06
-6.92109e+06
-6.16963e+06
-5.38259e+06
-4.46053e+06
-3.25501e+06
-1.30059e+06
-1.08914e+07
-8.0907e+06
-7.90184e+06
-7.68994e+06
-7.37012e+06
-7.00119e+06
-6.5522e+06
-6.03876e+06
-5.46752e+06
-4.82191e+06
-4.13561e+06
-3.3607e+06
-2.54318e+06
-1.58619e+06
-338215
1.65902e+06
-8.14469e+06
-5.54804e+06
-5.36441e+06
-5.14916e+06
-4.83109e+06
-4.45694e+06
-4.00403e+06
-3.48017e+06
-2.89591e+06
-2.23026e+06
-1.51761e+06
-708622
151922
1.15943e+06
2.46643e+06
4.52629e+06
-5.6029e+06
-3.21038e+06
-3.03123e+06
-2.81195e+06
-2.49418e+06
-2.11328e+06
-1.65403e+06
-1.11684e+06
-515411
175602
921899
1.77465e+06
2.69083e+06
3.76564e+06
5.15146e+06
7.30054e+06
-3.26624e+06
-1.0788e+06
-903890
-680665
-362778
25049.5
491465
1.04299e+06
1.66368e+06
2.38318e+06
3.16837e+06
4.07264e+06
5.05613e+06
6.21478e+06
7.70088e+06
9.96879e+06
-1.13557e+06
845560
1.01595e+06
1.24216e+06
1.55941e+06
1.95283e+06
2.42534e+06
2.98995e+06
3.62933e+06
4.3774e+06
5.20368e+06
6.16413e+06
7.22475e+06
8.48287e+06
1.00932e+07
1.25155e+07
788179
2.56208e+06
2.72717e+06
2.95451e+06
3.26914e+06
3.66514e+06
4.14051e+06
4.71419e+06
5.36828e+06
6.14097e+06
7.00588e+06
8.02208e+06
9.16543e+06
1.05348e+07
1.22946e+07
1.49106e+07
2.5046e+06
4.07091e+06
4.22948e+06
4.45522e+06
4.76401e+06
5.15788e+06
5.63055e+06
6.20627e+06
6.86702e+06
7.65523e+06
8.54984e+06
9.61376e+06
1.0838e+07
1.2323e+07
1.42605e+07
1.71113e+07
4.01403e+06
5.37528e+06
5.52568e+06
5.7463e+06
6.04491e+06
6.43028e+06
6.89234e+06
7.45979e+06
8.11446e+06
8.90272e+06
9.80896e+06
1.09014e+07
1.21909e+07
1.37842e+07
1.59339e+07
1.909e+07
5.31987e+06
6.48025e+06
6.62054e+06
6.83191e+06
7.11507e+06
7.48423e+06
7.92579e+06
8.47167e+06
9.10278e+06
9.86843e+06
1.07565e+07
1.18412e+07
1.3153e+07
1.48167e+07
1.71764e+07
2.07242e+07
6.42728e+06
7.37056e+06
7.49927e+06
7.69794e+06
7.96134e+06
8.30769e+06
8.72004e+06
9.23215e+06
9.82275e+06
1.05421e+07
1.1377e+07
1.24056e+07
1.3666e+07
1.53069e+07
1.77465e+07
2.16085e+07
7.32077e+06
8.19619e+06
8.30877e+06
8.48685e+06
8.71993e+06
9.02891e+06
9.39307e+06
9.84578e+06
1.03606e+07
1.09829e+07
1.16868e+07
1.25361e+07
1.35312e+07
1.47859e+07
1.66244e+07
1.95128e+07
8.15152e+06
8.51188e+06
8.61279e+06
8.7751e+06
8.98591e+06
9.26715e+06
9.59644e+06
1.00067e+07
1.04689e+07
1.10254e+07
1.16429e+07
1.23729e+07
1.31801e+07
1.41213e+07
1.52607e+07
1.73889e+07
8.47112e+06
)
;

boundaryField
{
    wireUpstream
    {
        type            zeroGradient;
    }
    wireDownstream
    {
        type            zeroGradient;
    }
    wireTopContact
    {
        type            zeroGradient;
    }
    front
    {
        type            wedge;
    }
    back
    {
        type            wedge;
    }
}


// ************************************************************************* //
