/*--------------------------------*- C++ -*----------------------------------*\
| =========                 |                                                 |
| \\      /  F ield         | foam-extend: Open Source CFD                    |
|  \\    /   O peration     | Version:     4.1-20200408                       |
|   \\  /    A nd           | Web:         http://www.foam-extend.org         |
|    \\/     M anipulation  |                                                 |
\*---------------------------------------------------------------------------*/
FoamFile
{
    version     2.0;
    format      ascii;
    class       volVectorField;
    location    "0.0415000";
    object      Velocity;
}
// * * * * * * * * * * * * * * * * * * * * * * * * * * * * * * * * * * * * * //

dimensions      [0 1 -1 0 0 0 0];

internalField   nonuniform List<vector> 
1952
(
(1.00001 1.32611e-05 0)
(1.00001 2.20966e-05 0)
(1.00001 2.91164e-05 0)
(1.00001 3.73667e-05 0)
(1.00001 4.32969e-05 0)
(1.00001 4.96086e-05 0)
(1.00001 5.45244e-05 0)
(1.00001 5.82066e-05 0)
(1.00001 6.21912e-05 0)
(1.00001 6.32561e-05 0)
(1 6.64894e-05 0)
(1 6.55795e-05 0)
(1 6.86167e-05 0)
(0.999997 6.63903e-05 0)
(0.999985 6.73303e-05 0)
(1.00001 5.78938e-06 0)
(1.00002 8.82083e-06 0)
(1.00002 1.43646e-05 0)
(1.00002 1.94094e-05 0)
(1.00002 2.44473e-05 0)
(1.00002 2.88143e-05 0)
(1.00002 3.27569e-05 0)
(1.00002 3.62641e-05 0)
(1.00001 3.87917e-05 0)
(1.00001 4.1316e-05 0)
(1.00001 4.23051e-05 0)
(1.00001 4.37659e-05 0)
(1.00001 4.34728e-05 0)
(1 4.40517e-05 0)
(0.999999 4.23428e-05 0)
(0.999993 4.19196e-05 0)
(1.00002 3.81157e-06 0)
(1.00003 6.63392e-06 0)
(1.00002 1.0622e-05 0)
(1.00002 1.4618e-05 0)
(1.00002 1.81812e-05 0)
(1.00002 2.16985e-05 0)
(1.00002 2.45546e-05 0)
(1.00002 2.73469e-05 0)
(1.00002 2.9334e-05 0)
(1.00002 3.1232e-05 0)
(1.00001 3.22296e-05 0)
(1.00001 3.31426e-05 0)
(1.00001 3.32655e-05 0)
(1.00001 3.32786e-05 0)
(0.999999 3.24498e-05 0)
(0.999993 3.19592e-05 0)
(1.00003 2.84516e-06 0)
(1.00003 4.87822e-06 0)
(1.00003 7.77877e-06 0)
(1.00003 1.07747e-05 0)
(1.00002 1.33408e-05 0)
(1.00002 1.601e-05 0)
(1.00002 1.80747e-05 0)
(1.00002 2.01883e-05 0)
(1.00002 2.16492e-05 0)
(1.00002 2.30406e-05 0)
(1.00001 2.38111e-05 0)
(1.00001 2.44008e-05 0)
(1.00001 2.45079e-05 0)
(1.00001 2.44235e-05 0)
(1 2.39854e-05 0)
(0.999996 2.39358e-05 0)
(1.00003 2.08899e-06 0)
(1.00003 3.46463e-06 0)
(1.00003 5.50969e-06 0)
(1.00003 7.66839e-06 0)
(1.00003 9.45962e-06 0)
(1.00003 1.14029e-05 0)
(1.00002 1.28397e-05 0)
(1.00002 1.43761e-05 0)
(1.00002 1.53954e-05 0)
(1.00002 1.63833e-05 0)
(1.00001 1.69276e-05 0)
(1.00001 1.73211e-05 0)
(1.00001 1.74266e-05 0)
(1.00001 1.73893e-05 0)
(1 1.72196e-05 0)
(0.999998 1.73529e-05 0)
(1.00003 1.48174e-06 0)
(1.00003 2.32624e-06 0)
(1.00003 3.68504e-06 0)
(1.00003 5.15799e-06 0)
(1.00003 6.32927e-06 0)
(1.00003 7.66973e-06 0)
(1.00002 8.59731e-06 0)
(1.00002 9.65553e-06 0)
(1.00002 1.03071e-05 0)
(1.00002 1.09748e-05 0)
(1.00001 1.13243e-05 0)
(1.00001 1.15864e-05 0)
(1.00001 1.16784e-05 0)
(1.00001 1.17101e-05 0)
(1 1.17259e-05 0)
(1 1.20344e-05 0)
(1.00003 9.93447e-07 0)
(1.00003 1.40779e-06 0)
(1.00003 2.21281e-06 0)
(1.00003 3.13083e-06 0)
(1.00003 3.80198e-06 0)
(1.00003 4.65351e-06 0)
(1.00002 5.17149e-06 0)
(1.00002 5.84482e-06 0)
(1.00002 6.20458e-06 0)
(1.00002 6.62362e-06 0)
(1.00001 6.8243e-06 0)
(1.00001 6.99793e-06 0)
(1.00001 7.09194e-06 0)
(1.00001 7.18352e-06 0)
(1 7.32257e-06 0)
(1 7.71299e-06 0)
(1.00003 5.99684e-07 0)
(1.00003 6.6144e-07 0)
(1.00003 1.01553e-06 0)
(1.00003 1.48406e-06 0)
(1.00003 1.74844e-06 0)
(1.00003 2.20537e-06 0)
(1.00002 2.39359e-06 0)
(1.00002 2.75987e-06 0)
(1.00002 2.89094e-06 0)
(1.00002 3.11785e-06 0)
(1.00001 3.20949e-06 0)
(1.00001 3.32021e-06 0)
(1.00001 3.42314e-06 0)
(1.00001 3.55793e-06 0)
(1.00001 3.78369e-06 0)
(1 4.22072e-06 0)
(1.00003 2.79731e-07 0)
(1.00003 5.02498e-08 0)
(1.00003 3.48374e-08 0)
(1.00003 1.37604e-07 0)
(1.00002 7.01026e-08 0)
(1.00003 2.08725e-07 0)
(1.00002 1.32607e-07 0)
(1.00002 2.55019e-07 0)
(1.00002 2.09816e-07 0)
(1.00002 2.88752e-07 0)
(1.00001 3.0372e-07 0)
(1.00001 3.68732e-07 0)
(1.00001 4.8536e-07 0)
(1.00001 6.47282e-07 0)
(1.00001 9.30778e-07 0)
(1 1.37873e-06 0)
(1.00003 1.76873e-08 0)
(1.00003 -4.58012e-07 0)
(1.00002 -7.80664e-07 0)
(1.00003 -9.79662e-07 0)
(1.00002 -1.32106e-06 0)
(1.00002 -1.44223e-06 0)
(1.00002 -1.73159e-06 0)
(1.00002 -1.80487e-06 0)
(1.00002 -1.98574e-06 0)
(1.00002 -2.02223e-06 0)
(1.00001 -2.05981e-06 0)
(1.00001 -2.02932e-06 0)
(1.00001 -1.89661e-06 0)
(1.00001 -1.71881e-06 0)
(1.00001 -1.39511e-06 0)
(1.00001 -9.53259e-07 0)
(1.00003 -2.00277e-07 0)
(1.00002 -8.90348e-07 0)
(1.00002 -1.47415e-06 0)
(1.00002 -1.9276e-06 0)
(1.00002 -2.49959e-06 0)
(1.00002 -2.83725e-06 0)
(1.00002 -3.30145e-06 0)
(1.00002 -3.5351e-06 0)
(1.00002 -3.82138e-06 0)
(1.00002 -3.94998e-06 0)
(1.00001 -4.02268e-06 0)
(1.00001 -4.019e-06 0)
(1.00001 -3.8687e-06 0)
(1.00001 -3.68206e-06 0)
(1.00001 -3.32933e-06 0)
(1.00001 -2.90323e-06 0)
(1.00002 -3.85731e-07 0)
(1.00002 -1.27055e-06 0)
(1.00002 -2.08373e-06 0)
(1.00002 -2.75918e-06 0)
(1.00002 -3.53148e-06 0)
(1.00002 -4.05618e-06 0)
(1.00002 -4.668e-06 0)
(1.00002 -5.03829e-06 0)
(1.00001 -5.40848e-06 0)
(1.00002 -5.61378e-06 0)
(1.00001 -5.70922e-06 0)
(1.00001 -5.72692e-06 0)
(1.00001 -5.55712e-06 0)
(1.00001 -5.36408e-06 0)
(1.00001 -4.98676e-06 0)
(1.00001 -4.57707e-06 0)
(1.00002 -5.48858e-07 0)
(1.00002 -1.61914e-06 0)
(1.00002 -2.64247e-06 0)
(1.00002 -3.52012e-06 0)
(1.00002 -4.47409e-06 0)
(1.00002 -5.16795e-06 0)
(1.00002 -5.91015e-06 0)
(1.00002 -6.40284e-06 0)
(1.00001 -6.84299e-06 0)
(1.00002 -7.11562e-06 0)
(1.00001 -7.22534e-06 0)
(1.00001 -7.2602e-06 0)
(1.00001 -7.0682e-06 0)
(1.00001 -6.86731e-06 0)
(1.00001 -6.46476e-06 0)
(1.00001 -6.0661e-06 0)
(1.00002 -6.98457e-07 0)
(1.00002 -1.95426e-06 0)
(1.00001 -3.17951e-06 0)
(1.00002 -4.25078e-06 0)
(1.00001 -5.3778e-06 0)
(1.00002 -6.23335e-06 0)
(1.00001 -7.09697e-06 0)
(1.00002 -7.70628e-06 0)
(1.00001 -8.2083e-06 0)
(1.00002 -8.54402e-06 0)
(1.00001 -8.66213e-06 0)
(1.00001 -8.71061e-06 0)
(1.00001 -8.49232e-06 0)
(1.00001 -8.27841e-06 0)
(1.00001 -7.84519e-06 0)
(1.00001 -7.44643e-06 0)
(1.00002 -8.4229e-07 0)
(1.00001 -2.29135e-06 0)
(1.00001 -3.71977e-06 0)
(1.00001 -4.98552e-06 0)
(1.00001 -6.28572e-06 0)
(1.00001 -7.30403e-06 0)
(1.00001 -8.28736e-06 0)
(1.00001 -9.01424e-06 0)
(1.00001 -9.57504e-06 0)
(1.00001 -9.97345e-06 0)
(1.00001 -1.00961e-05 0)
(1.00001 -1.01547e-05 0)
(1.00001 -9.90468e-06 0)
(1.00001 -9.66928e-06 0)
(1.00001 -9.19584e-06 0)
(1.00001 -8.78114e-06 0)
(1.00001 -9.86981e-07 0)
(1.00001 -2.64376e-06 0)
(1.00001 -4.28471e-06 0)
(1.00001 -5.75407e-06 0)
(1.00001 -7.23487e-06 0)
(1.00001 -8.42464e-06 0)
(1.00001 -9.53175e-06 0)
(1.00001 -1.03832e-05 0)
(1.00001 -1.10034e-05 0)
(1.00001 -1.14675e-05 0)
(1.00001 -1.15919e-05 0)
(1.00001 -1.16573e-05 0)
(1.00001 -1.13684e-05 0)
(1.00001 -1.10998e-05 0)
(1.00001 -1.05728e-05 0)
(1.00001 -1.01217e-05 0)
(1.00001 -1.13825e-06 0)
(1 -3.02212e-06 0)
(1 -4.89157e-06 0)
(1.00001 -6.58018e-06 0)
(1 -8.25501e-06 0)
(1.00001 -9.63098e-06 0)
(1.00001 -1.08707e-05 0)
(1.00001 -1.18584e-05 0)
(1.00001 -1.25419e-05 0)
(1.00001 -1.30771e-05 0)
(1.00001 -1.32015e-05 0)
(1.00001 -1.327e-05 0)
(1.00001 -1.29335e-05 0)
(1.00001 -1.26172e-05 0)
(1.00001 -1.20198e-05 0)
(1.00001 -1.15074e-05 0)
(1 -1.30066e-06 0)
(0.999999 -3.43479e-06 0)
(0.999999 -5.5538e-06 0)
(1 -7.48265e-06 0)
(1 -9.36945e-06 0)
(1 -1.09515e-05 0)
(1 -1.23363e-05 0)
(1.00001 -1.34762e-05 0)
(1.00001 -1.4229e-05 0)
(1.00001 -1.4843e-05 0)
(1.00001 -1.49662e-05 0)
(1.00001 -1.50335e-05 0)
(1.00001 -1.46395e-05 0)
(1.00001 -1.42578e-05 0)
(1.00001 -1.35699e-05 0)
(1.00001 -1.2967e-05 0)
(0.999999 -1.4778e-06 0)
(0.999994 -3.88687e-06 0)
(0.999994 -6.27974e-06 0)
(0.999996 -8.47323e-06 0)
(0.999996 -1.05929e-05 0)
(1 -1.24046e-05 0)
(0.999999 -1.39492e-05 0)
(1 -1.52604e-05 0)
(1 -1.609e-05 0)
(1.00001 -1.67925e-05 0)
(1.00001 -1.69135e-05 0)
(1.00001 -1.69753e-05 0)
(1.00001 -1.65122e-05 0)
(1.00001 -1.60448e-05 0)
(1.00001 -1.52431e-05 0)
(1.00001 -1.45159e-05 0)
(0.999993 -1.67187e-06 0)
(0.999988 -4.38025e-06 0)
(0.999988 -7.07255e-06 0)
(0.999991 -9.55679e-06 0)
(0.999991 -1.19314e-05 0)
(0.999996 -1.39987e-05 0)
(0.999995 -1.57189e-05 0)
(1 -1.72231e-05 0)
(1 -1.8138e-05 0)
(1.00001 -1.894e-05 0)
(1.00001 -1.90582e-05 0)
(1.00001 -1.91096e-05 0)
(1.00001 -1.85649e-05 0)
(1.00001 -1.79888e-05 0)
(1.00001 -1.70471e-05 0)
(1.00001 -1.61567e-05 0)
(0.999987 -1.88366e-06 0)
(0.999981 -4.91234e-06 0)
(0.999981 -7.92822e-06 0)
(0.999985 -1.07285e-05 0)
(0.999985 -1.33791e-05 0)
(0.999991 -1.57285e-05 0)
(0.99999 -1.76397e-05 0)
(0.999998 -1.93599e-05 0)
(0.999997 -2.03685e-05 0)
(1 -2.12825e-05 0)
(1 -2.13971e-05 0)
(1.00001 -2.14333e-05 0)
(1.00001 -2.07935e-05 0)
(1.00001 -2.00833e-05 0)
(1.00001 -1.89725e-05 0)
(1.00002 -1.78752e-05 0)
(0.99998 -2.11208e-06 0)
(0.999973 -5.47536e-06 0)
(0.999974 -8.83448e-06 0)
(0.999978 -1.19727e-05 0)
(0.999978 -1.49164e-05 0)
(0.999985 -1.7573e-05 0)
(0.999985 -1.96882e-05 0)
(0.999994 -2.16479e-05 0)
(0.999994 -2.27578e-05 0)
(1 -2.37972e-05 0)
(1 -2.39075e-05 0)
(1.00001 -2.39237e-05 0)
(1.00001 -2.31749e-05 0)
(1.00002 -2.23028e-05 0)
(1.00002 -2.09918e-05 0)
(1.00002 -1.96383e-05 0)
(0.999972 -2.35379e-06 0)
(0.999964 -6.05468e-06 0)
(0.999965 -9.76811e-06 0)
(0.999969 -1.32586e-05 0)
(0.999971 -1.65055e-05 0)
(0.999978 -1.94902e-05 0)
(0.999979 -2.18177e-05 0)
(0.999989 -2.4039e-05 0)
(0.99999 -2.5256e-05 0)
(1 -2.64348e-05 0)
(1 -2.654e-05 0)
(1.00001 -2.65319e-05 0)
(1.00001 -2.56603e-05 0)
(1.00002 -2.45969e-05 0)
(1.00002 -2.30526e-05 0)
(1.00002 -2.13884e-05 0)
(0.999963 -2.60251e-06 0)
(0.999954 -6.62714e-06 0)
(0.999955 -1.06922e-05 0)
(0.99996 -1.45376e-05 0)
(0.999962 -1.80861e-05 0)
(0.99997 -2.14123e-05 0)
(0.999972 -2.39526e-05 0)
(0.999983 -2.64549e-05 0)
(0.999985 -2.77811e-05 0)
(0.999997 -2.91136e-05 0)
(0.999999 -2.92128e-05 0)
(1.00001 -2.91773e-05 0)
(1.00001 -2.817e-05 0)
(1.00002 -2.6885e-05 0)
(1.00002 -2.50731e-05 0)
(1.00002 -2.30383e-05 0)
(0.999953 -2.8483e-06 0)
(0.999942 -7.15874e-06 0)
(0.999944 -1.15527e-05 0)
(0.99995 -1.57374e-05 0)
(0.999952 -1.95691e-05 0)
(0.999962 -2.32382e-05 0)
(0.999965 -2.59805e-05 0)
(0.999977 -2.87774e-05 0)
(0.99998 -3.02099e-05 0)
(0.999993 -3.171e-05 0)
(0.999997 -3.18023e-05 0)
(1.00001 -3.17379e-05 0)
(1.00001 -3.05838e-05 0)
(1.00002 -2.9047e-05 0)
(1.00002 -2.69337e-05 0)
(1.00003 -2.44633e-05 0)
(0.999941 -3.07658e-06 0)
(0.999929 -7.60171e-06 0)
(0.999931 -1.22731e-05 0)
(0.999938 -1.67565e-05 0)
(0.999941 -2.08287e-05 0)
(0.999952 -2.48245e-05 0)
(0.999956 -2.77418e-05 0)
(0.99997 -3.08384e-05 0)
(0.999974 -3.23669e-05 0)
(0.999989 -3.40476e-05 0)
(0.999995 -3.41315e-05 0)
(1.00001 -3.40399e-05 0)
(1.00001 -3.27314e-05 0)
(1.00002 -3.09145e-05 0)
(1.00003 -2.84675e-05 0)
(1.00003 -2.54925e-05 0)
(0.999928 -3.26683e-06 0)
(0.999915 -7.89127e-06 0)
(0.999917 -1.27502e-05 0)
(0.999925 -1.74563e-05 0)
(0.999928 -2.16939e-05 0)
(0.999941 -2.59754e-05 0)
(0.999946 -2.90186e-05 0)
(0.999961 -3.24071e-05 0)
(0.999968 -3.40109e-05 0)
(0.999985 -3.5883e-05 0)
(0.999992 -3.5957e-05 0)
(1.00001 -3.5844e-05 0)
(1.00001 -3.43787e-05 0)
(1.00003 -3.22571e-05 0)
(1.00003 -2.94486e-05 0)
(1.00004 -2.58969e-05 0)
(0.999913 -3.39125e-06 0)
(0.999899 -7.94116e-06 0)
(0.999902 -1.2846e-05 0)
(0.99991 -1.76521e-05 0)
(0.999915 -2.1936e-05 0)
(0.999928 -2.64285e-05 0)
(0.999935 -2.95185e-05 0)
(0.999952 -3.31732e-05 0)
(0.999961 -3.48173e-05 0)
(0.99998 -3.6889e-05 0)
(0.999989 -3.69506e-05 0)
(1.00001 -3.68288e-05 0)
(1.00002 -3.52118e-05 0)
(1.00003 -3.27685e-05 0)
(1.00004 -2.95777e-05 0)
(1.00004 -2.53767e-05 0)
(0.999897 -3.4128e-06 0)
(0.999882 -7.63927e-06 0)
(0.999885 -1.23811e-05 0)
(0.999894 -1.71029e-05 0)
(0.9999 -2.12574e-05 0)
(0.999915 -2.58403e-05 0)
(0.999923 -2.88591e-05 0)
(0.999942 -3.27292e-05 0)
(0.999952 -3.43599e-05 0)
(0.999974 -3.66339e-05 0)
(0.999986 -3.66806e-05 0)
(1.00001 -3.65707e-05 0)
(1.00002 -3.4818e-05 0)
(1.00004 -3.20469e-05 0)
(1.00004 -2.84648e-05 0)
(1.00005 -2.35438e-05 0)
(0.99988 -3.28334e-06 0)
(0.999863 -6.84134e-06 0)
(0.999867 -1.11246e-05 0)
(0.999877 -1.5498e-05 0)
(0.999883 -1.92732e-05 0)
(0.9999 -2.37666e-05 0)
(0.999909 -2.65446e-05 0)
(0.999931 -3.0546e-05 0)
(0.999943 -3.20841e-05 0)
(0.999967 -3.45568e-05 0)
(0.999982 -3.4584e-05 0)
(1.00001 -3.45195e-05 0)
(1.00002 -3.26616e-05 0)
(1.00004 -2.95738e-05 0)
(1.00005 -2.56086e-05 0)
(1.00007 -1.99036e-05 0)
(0.999861 -2.94093e-06 0)
(0.999845 -5.36559e-06 0)
(0.999849 -8.78505e-06 0)
(0.99986 -1.24445e-05 0)
(0.999866 -1.5497e-05 0)
(0.999885 -1.96429e-05 0)
(0.999895 -2.19453e-05 0)
(0.999919 -2.59484e-05 0)
(0.999933 -2.72819e-05 0)
(0.99996 -2.9939e-05 0)
(0.999978 -2.99403e-05 0)
(1.00001 -2.99698e-05 0)
(1.00002 -2.80572e-05 0)
(1.00005 -2.46876e-05 0)
(1.00006 -2.03722e-05 0)
(1.00008 -1.38312e-05 0)
(0.999842 -2.30751e-06 0)
(0.999826 -2.98493e-06 0)
(0.99983 -4.99809e-06 0)
(0.999842 -7.44975e-06 0)
(0.999849 -9.3178e-06 0)
(0.999868 -1.27589e-05 0)
(0.99988 -1.42661e-05 0)
(0.999906 -1.80824e-05 0)
(0.999923 -1.90551e-05 0)
(0.999952 -2.18679e-05 0)
(0.999974 -2.18326e-05 0)
(1 -2.20258e-05 0)
(1.00003 -2.01343e-05 0)
(1.00006 -1.65512e-05 0)
(1.00008 -1.19525e-05 0)
(1.0001 -4.54381e-06 0)
(0.999823 -1.28555e-06 0)
(0.999808 5.7904e-07 0)
(0.999812 6.83551e-07 0)
(0.999824 9.24406e-08 0)
(0.999831 1.73882e-08 0)
(0.999852 -2.23455e-06 0)
(0.999865 -2.52022e-06 0)
(0.999892 -5.88314e-06 0)
(0.999911 -6.28134e-06 0)
(0.999944 -9.19948e-06 0)
(0.999969 -9.10934e-06 0)
(1 -9.56173e-06 0)
(1.00003 -7.79967e-06 0)
(1.00007 -4.11709e-06 0)
(1.00009 6.51803e-07 0)
(1.00012 8.92983e-06 0)
(0.999805 2.44492e-07 0)
(0.999792 5.66337e-06 0)
(0.999796 8.80232e-06 0)
(0.999809 1.09198e-05 0)
(0.999815 1.34272e-05 0)
(0.999837 1.30082e-05 0)
(0.999849 1.45055e-05 0)
(0.999878 1.19652e-05 0)
(0.9999 1.24316e-05 0)
(0.999935 9.49054e-06 0)
(0.999963 9.66665e-06 0)
(1 8.82871e-06 0)
(1.00004 1.03128e-05 0)
(1.00008 1.39208e-05 0)
(1.00011 1.86848e-05 0)
(1.00014 2.77902e-05 0)
(0.99979 2.42736e-06 0)
(0.99978 1.26682e-05 0)
(0.999783 2.00035e-05 0)
(0.999796 2.59131e-05 0)
(0.999801 3.20126e-05 0)
(0.999823 3.42684e-05 0)
(0.999836 3.82804e-05 0)
(0.999865 3.70652e-05 0)
(0.999888 3.87886e-05 0)
(0.999925 3.59543e-05 0)
(0.999958 3.62715e-05 0)
(1 3.48854e-05 0)
(1.00004 3.58959e-05 0)
(1.00009 3.91752e-05 0)
(1.00013 4.36787e-05 0)
(1.00017 5.35086e-05 0)
(0.999778 5.43484e-06 0)
(0.999774 2.20595e-05 0)
(0.999776 3.50407e-05 0)
(0.999788 4.61066e-05 0)
(0.999792 5.70713e-05 0)
(0.999813 6.30897e-05 0)
(0.999824 7.05601e-05 0)
(0.999854 7.13486e-05 0)
(0.999877 7.48573e-05 0)
(0.999916 7.2333e-05 0)
(0.999952 7.28868e-05 0)
(1 7.07537e-05 0)
(1.00005 7.10409e-05 0)
(1.0001 7.36358e-05 0)
(1.00015 7.75177e-05 0)
(1.0002 8.78855e-05 0)
(0.999772 9.46705e-06 0)
(0.999778 3.43662e-05 0)
(0.999777 5.47718e-05 0)
(0.999788 7.26844e-05 0)
(0.999789 9.00993e-05 0)
(0.999808 0.000101266 0)
(0.999817 0.000113404 0)
(0.999845 0.000117103 0)
(0.999867 0.000123111 0)
(0.999907 0.00012121 0)
(0.999946 0.000122168 0)
(0.999998 0.000119057 0)
(1.00005 0.000118317 0)
(1.00011 0.000119741 0)
(1.00017 0.000122506 0)
(1.00023 0.000133112 0)
(0.999776 1.47509e-05 0)
(0.999794 5.01683e-05 0)
(0.99979 8.0142e-05 0)
(0.999799 0.000106963 0)
(0.999795 0.000132772 0)
(0.999811 0.000150833 0)
(0.999815 0.000169175 0)
(0.99984 0.000176991 0)
(0.999861 0.000186464 0)
(0.999899 0.000185672 0)
(0.999939 0.00018732 0)
(0.999996 0.00018299 0)
(1.00005 0.000180874 0)
(1.00013 0.000180484 0)
(1.00019 0.000181472 0)
(1.00027 0.000191864 0)
(0.999792 2.15354e-05 0)
(0.999827 7.0075e-05 0)
(0.999819 0.000112151 0)
(0.999824 0.000150347 0)
(0.999815 0.000186903 0)
(0.999825 0.000214025 0)
(0.999823 0.000240511 0)
(0.999842 0.00025404 0)
(0.999858 0.000268286 0)
(0.999894 0.00026935 0)
(0.999934 0.000272179 0)
(0.999992 0.000266426 0)
(1.00006 0.000262574 0)
(1.00014 0.000259541 0)
(1.00022 0.000257893 0)
(1.00031 0.00026742 0)
(0.999826 3.00815e-05 0)
(0.999882 9.46826e-05 0)
(0.99987 0.000151785 0)
(0.99987 0.000204251 0)
(0.999852 0.000254344 0)
(0.999854 0.000293184 0)
(0.999843 0.000330234 0)
(0.999854 0.000351574 0)
(0.999862 0.000372371 0)
(0.999892 0.000376436 0)
(0.999929 0.000381264 0)
(0.999988 0.000374012 0)
(1.00006 0.000368118 0)
(1.00015 0.000361409 0)
(1.00025 0.000356033 0)
(1.00036 0.00036376 0)
(0.999883 4.06448e-05 0)
(0.999967 0.000124512 0)
(0.999948 0.000199922 0)
(0.999942 0.000269962 0)
(0.999913 0.000336837 0)
(0.999905 0.000390587 0)
(0.999881 0.000441193 0)
(0.99988 0.000473081 0)
(0.999876 0.000502838 0)
(0.999895 0.000511647 0)
(0.999926 0.000519823 0)
(0.999982 0.000511291 0)
(1.00006 0.000503234 0)
(1.00016 0.000491602 0)
(1.00027 0.000481123 0)
(1.00041 0.00048569 0)
(0.999969 5.34477e-05 0)
(1.00009 0.000159911 0)
(1.00006 0.000257174 0)
(1.00005 0.00034844 0)
(1 0.00043576 0)
(0.999983 0.000508175 0)
(0.999942 0.000575974 0)
(0.999924 0.000621938 0)
(0.999904 0.000663908 0)
(0.999908 0.000680096 0)
(0.999928 0.000693825 0)
(0.999976 0.000684865 0)
(1.00005 0.000675008 0)
(1.00016 0.000657128 0)
(1.0003 0.000639934 0)
(1.00046 0.000639422 0)
(1.00009 6.86387e-05 0)
(1.00025 0.000200936 0)
(1.00022 0.000323687 0)
(1.00019 0.000440037 0)
(1.00013 0.000551783 0)
(1.00009 0.000647139 0)
(1.00003 0.000736444 0)
(0.999994 0.000800947 0)
(0.999951 0.00085947 0)
(0.999934 0.000886943 0)
(0.999935 0.000909767 0)
(0.999971 0.000902448 0)
(1.00004 0.000892274 0)
(1.00016 0.000867242 0)
(1.00031 0.00084201 0)
(1.00051 0.000834028 0)
(1.00026 8.62388e-05 0)
(1.00047 0.000247178 0)
(1.00042 0.000398875 0)
(1.00039 0.000544119 0)
(1.00031 0.000684378 0)
(1.00025 0.000807327 0)
(1.00016 0.000923064 0)
(1.0001 0.00101157 0)
(1.00002 0.00109227 0)
(0.999979 0.0011366 0)
(0.999954 0.00117392 0)
(0.999968 0.00117223 0)
(1.00003 0.00116505 0)
(1.00015 0.00113306 0)
(1.00032 0.0010995 0)
(1.00056 0.00108112 0)
(1.00048 0.000106071 0)
(1.00075 0.000297589 0)
(1.00069 0.000481105 0)
(1.00064 0.00065862 0)
(1.00054 0.000831227 0)
(1.00046 0.000986497 0)
(1.00034 0.00113399 0)
(1.00024 0.0012529 0)
(1.00014 0.00136278 0)
(1.00005 0.00143157 0)
(0.999991 0.00149123 0)
(0.999973 0.0015018 0)
(1.00001 0.0015032 0)
(1.00012 0.00146549 0)
(1.00032 0.00142308 0)
(1.0006 0.00138836 0)
(1.00076 0.000127682 0)
(1.0011 0.000350277 0)
(1.00103 0.00056737 0)
(1.00096 0.000779547 0)
(1.00084 0.000987533 0)
(1.00073 0.0011794 0)
(1.00058 0.0013639 0)
(1.00045 0.00152029 0)
(1.00029 0.00166777 0)
(1.00016 0.00177126 0)
(1.00006 0.00186483 0)
(0.999991 0.00189917 0)
(0.999996 0.00191987 0)
(1.00008 0.00188143 0)
(1.00029 0.00182871 0)
(1.00062 0.00176455 0)
(1.00111 0.000150256 0)
(1.00152 0.000402354 0)
(1.00144 0.000653 0)
(1.00135 0.000900511 0)
(1.00121 0.00114531 0)
(1.00107 0.0013767 0)
(1.00089 0.00160249 0)
(1.00071 0.00180323 0)
(1.00051 0.00199748 0)
(1.00033 0.0021487 0)
(1.00016 0.00229326 0)
(1.00004 0.00237273 0)
(0.999983 0.00243903 0)
(1.00002 0.00242598 0)
(1.00022 0.00238426 0)
(1.00061 0.00229288 0)
(1.00154 0.000172554 0)
(1.00201 0.000449872 0)
(1.00192 0.000731536 0)
(1.00182 0.00101248 0)
(1.00166 0.00129288 0)
(1.0015 0.0015641 0)
(1.00128 0.00183279 0)
(1.00106 0.00208238 0)
(1.00081 0.00233056 0)
(1.00058 0.00254205 0)
(1.00034 0.00275677 0)
(1.00014 0.00291088 0)
(1.00001 0.00306903 0)
(0.999976 0.00314723 0)
(1.00012 0.00321182 0)
(1.00054 0.0031981 0)
(1.00203 0.000192882 0)
(1.00258 0.000487964 0)
(1.00248 0.000794942 0)
(1.00237 0.00110403 0)
(1.00219 0.00141518 0)
(1.002 0.00172245 0)
(1.00175 0.00203093 0)
(1.00149 0.00232834 0)
(1.0012 0.00263049 0)
(1.00091 0.00290597 0)
(1.00062 0.0031977 0)
(1.00036 0.00344044 0)
(1.00015 0.00371708 0)
(1.00004 0.00393385 0)
(1.00011 0.00420084 0)
(1.00045 0.00442209 0)
(1.0026 0.000209157 0)
(1.00321 0.000511195 0)
(1.0031 0.000834222 0)
(1.00298 0.0011623 0)
(1.00278 0.00149509 0)
(1.00257 0.00182975 0)
(1.0023 0.00216911 0)
(1.00201 0.00250605 0)
(1.00167 0.0028522 0)
(1.00134 0.00318122 0)
(1.00099 0.00353364 0)
(1.00066 0.00384099 0)
(1.00039 0.0041938 0)
(1.00019 0.00447538 0)
(1.00015 0.00481321 0)
(1.00034 0.0050683 0)
(1.00324 0.000219057 0)
(1.00389 0.000514052 0)
(1.00377 0.000840264 0)
(1.00364 0.0011743 0)
(1.00343 0.0015155 0)
(1.0032 0.00186437 0)
(1.00291 0.00222086 0)
(1.00259 0.00258392 0)
(1.00221 0.00295876 0)
(1.00183 0.00332642 0)
(1.00142 0.00371994 0)
(1.00102 0.00406996 0)
(1.00065 0.00446869 0)
(1.00034 0.00477198 0)
(1.00015 0.00512481 0)
(1.00015 0.00535217 0)
(1.00392 0.000220222 0)
(1.00459 0.000491402 0)
(1.00447 0.000804584 0)
(1.00434 0.00112792 0)
(1.00412 0.00146047 0)
(1.00388 0.00180612 0)
(1.00356 0.00216164 0)
(1.00322 0.00253281 0)
(1.00281 0.00291662 0)
(1.00238 0.00330467 0)
(1.00189 0.00371737 0)
(1.00141 0.00409122 0)
(1.00092 0.00451454 0)
(1.00046 0.00481667 0)
(1.0001 0.00517444 0)
(0.999912 0.00536675 0)
(1.00462 0.000210458 0)
(1.0053 0.000438967 0)
(1.00518 0.000720089 0)
(1.00504 0.00101297 0)
(1.00482 0.0013165 0)
(1.00456 0.00163776 0)
(1.00423 0.00197044 0)
(1.00387 0.00232759 0)
(1.00342 0.00269707 0)
(1.00295 0.00308472 0)
(1.00239 0.00349342 0)
(1.00182 0.0038771 0)
(1.0012 0.00430936 0)
(1.00056 0.00460173 0)
(1 0.00497707 0)
(0.999593 0.00511272 0)
(1.00533 0.000187936 0)
(1.00598 0.000353324 0)
(1.00585 0.000581033 0)
(1.00571 0.000821014 0)
(1.00549 0.00107211 0)
(1.00523 0.00134407 0)
(1.00489 0.00162794 0)
(1.00451 0.00194361 0)
(1.00404 0.00226991 0)
(1.00352 0.0026304 0)
(1.0029 0.00300689 0)
(1.00224 0.00338616 0)
(1.00146 0.00380778 0)
(1.00064 0.00409905 0)
(0.99984 0.00451352 0)
(0.999128 0.00458954 0)
(1.00601 0.000151198 0)
(1.00659 0.000231898 0)
(1.00646 0.000383082 0)
(1.00632 0.000545696 0)
(1.0061 0.000718691 0)
(1.00583 0.000913752 0)
(1.00549 0.00112013 0)
(1.0051 0.00136306 0)
(1.0046 0.00161448 0)
(1.00406 0.00191681 0)
(1.00338 0.00222906 0)
(1.00264 0.00258434 0)
(1.00172 0.0029666 0)
(1.00071 0.00328008 0)
(0.999655 0.00371726 0)
(0.998481 0.00370807 0)
(1.00662 9.91545e-05 0)
(1.00709 7.73582e-05 0)
(1.00696 0.000130784 0)
(1.00682 0.000193724 0)
(1.0066 0.000265434 0)
(1.00633 0.000358979 0)
(1.00599 0.000463123 0)
(1.00558 0.000606863 0)
(1.00508 0.000760775 0)
(1.00452 0.000976167 0)
(1.00383 0.00118292 0)
(1.00303 0.00146103 0)
(1.002 0.0017276 0)
(1.00081 0.00201676 0)
(0.999345 0.00230844 0)
(0.997545 0.00213745 0)
(1.00712 3.29134e-05 0)
(1.00746 -9.57789e-05 0)
(1.00735 -0.000152121 0)
(1.00721 -0.000202254 0)
(1.00699 -0.000247166 0)
(1.00673 -0.000274378 0)
(1.0064 -0.000297916 0)
(1.00601 -0.000290299 0)
(1.00551 -0.000281002 0)
(1.00491 -0.000228191 0)
(1.00417 -0.000224004 0)
(1.00329 -0.000161122 0)
(1.00213 -0.000170647 0)
(1.00071 -0.000121858 0)
(0.998726 -0.000179555 0)
(0.996245 -0.000494976 0)
(1.00749 -4.13023e-05 0)
(1.0077 -0.000304225 0)
(1.00758 -0.000495472 0)
(1.00742 -0.000689512 0)
(1.00719 -0.00088959 0)
(1.00691 -0.00108786 0)
(1.00655 -0.00130524 0)
(1.00611 -0.00152157 0)
(1.00556 -0.00178003 0)
(1.00488 -0.00203315 0)
(1.00403 -0.00236405 0)
(1.00301 -0.00266509 0)
(1.00169 -0.00308892 0)
(1.00004 -0.00343014 0)
(0.997697 -0.00389885 0)
(0.994726 -0.00430675 0)
(1.00774 -0.000130477 0)
(1.00754 -0.000616029 0)
(1.00739 -0.00101046 0)
(1.00719 -0.00142112 0)
(1.00691 -0.00185509 0)
(1.00655 -0.00230917 0)
(1.0061 -0.00280737 0)
(1.00555 -0.00333454 0)
(1.00489 -0.00393604 0)
(1.00407 -0.00455968 0)
(1.00309 -0.00528312 0)
(1.00189 -0.00599627 0)
(1.0004 -0.00685963 0)
(0.998565 -0.00762058 0)
(0.996052 -0.00854375 0)
(0.992872 -0.00917696 0)
(1.00758 -0.000263745 0)
(1.00669 -0.00103852 0)
(1.00651 -0.00170392 0)
(1.00626 -0.00239664 0)
(1.00591 -0.00312459 0)
(1.00546 -0.00388705 0)
(1.0049 -0.00470671 0)
(1.00423 -0.00557074 0)
(1.00343 -0.00651821 0)
(1.00246 -0.00750058 0)
(1.00133 -0.0085903 0)
(0.999971 -0.00966979 0)
(0.998341 -0.0108907 0)
(0.996357 -0.0119656 0)
(0.993828 -0.0131842 0)
(0.990736 -0.0139183 0)
(1.00674 -0.000444405 0)
(1.00504 -0.0015212 0)
(1.00482 -0.00249142 0)
(1.00452 -0.00349464 0)
(1.0041 -0.00453536 0)
(1.00356 -0.00561354 0)
(1.0029 -0.00674745 0)
(1.00211 -0.00792577 0)
(1.00118 -0.00918046 0)
(1.00009 -0.0104666 0)
(0.998836 -0.0118463 0)
(0.997361 -0.0131966 0)
(0.995676 -0.014651 0)
(0.993682 -0.0158972 0)
(0.991334 -0.0172209 0)
(0.988593 -0.0179173 0)
(1.00511 -0.000651002 0)
(1.00254 -0.00198799 0)
(1.0023 -0.00325003 0)
(1.00196 -0.0045466 0)
(1.00149 -0.00587604 0)
(1.00088 -0.00723792 0)
(1.00015 -0.00864372 0)
(0.999271 -0.010083 0)
(0.998256 -0.0115783 0)
(0.997076 -0.0130881 0)
(0.995761 -0.0146616 0)
(0.994251 -0.0161777 0)
(0.992613 -0.0177486 0)
(0.990752 -0.0190625 0)
(0.988745 -0.0203931 0)
(0.986525 -0.0210389 0)
(1.00262 -0.000850996 0)
(0.999306 -0.0023593 0)
(0.999049 -0.0038528 0)
(0.998683 -0.00538187 0)
(0.99818 -0.00693806 0)
(0.997543 -0.00852034 0)
(0.996768 -0.0101322 0)
(0.995848 -0.011763 0)
(0.994797 -0.0134242 0)
(0.993593 -0.0150778 0)
(0.992284 -0.0167586 0)
(0.990824 -0.0183554 0)
(0.989328 -0.0199585 0)
(0.987711 -0.0212818 0)
(0.986145 -0.0225775 0)
(0.984541 -0.0231937 0)
(0.999393 -0.00101018 0)
(0.995529 -0.00258047 0)
(0.995263 -0.00421259 0)
(0.994885 -0.00588298 0)
(0.994369 -0.00757783 0)
(0.99372 -0.00929595 0)
(0.992938 -0.0110332 0)
(0.992018 -0.0127787 0)
(0.990982 -0.014532 0)
(0.989814 -0.01626 0)
(0.988575 -0.0179806 0)
(0.987242 -0.0195998 0)
(0.985959 -0.0211835 0)
(0.984666 -0.0224903 0)
(0.9836 -0.0237369 0)
(0.98266 -0.0243484 0)
(0.99562 -0.00110498 0)
(0.991469 -0.00263652 0)
(0.991195 -0.00430437 0)
(0.990808 -0.00601354 0)
(0.990286 -0.00774707 0)
(0.989636 -0.00950466 0)
(0.988866 -0.0112769 0)
(0.987977 -0.0130545 0)
(0.986991 -0.0148272 0)
(0.985905 -0.0165689 0)
(0.984787 -0.0182786 0)
(0.983636 -0.0198827 0)
(0.982617 -0.0214192 0)
(0.981695 -0.022702 0)
(0.981157 -0.0238997 0)
(0.980887 -0.0245349 0)
(0.991563 -0.00112894 0)
(0.987375 -0.00255141 0)
(0.987091 -0.00416452 0)
(0.986693 -0.00581837 0)
(0.986165 -0.00749501 0)
(0.985519 -0.0091957 0)
(0.984767 -0.010909 0)
(0.983918 -0.0126302 0)
(0.982998 -0.0143453 0)
(0.982018 -0.0160388 0)
(0.981048 -0.0176922 0)
(0.980113 -0.0192535 0)
(0.979385 -0.0207275 0)
(0.978862 -0.021987 0)
(0.978851 -0.0231397 0)
(0.979225 -0.0238198 0)
(0.987473 -0.00109242 0)
(0.983443 -0.00237326 0)
(0.983148 -0.0038687 0)
(0.982741 -0.0053971 0)
(0.982208 -0.0069413 0)
(0.981567 -0.00850393 0)
(0.980834 -0.0100732 0)
(0.980025 -0.011651 0)
(0.979168 -0.0132248 0)
(0.97829 -0.0147958 0)
(0.977469 -0.0163365 0)
(0.97676 -0.0178206 0)
(0.976329 -0.0192181 0)
(0.976211 -0.0204571 0)
(0.976708 -0.0215733 0)
(0.97767 -0.0223202 0)
(0.983544 -0.00101621 0)
(0.979785 -0.00215351 0)
(0.97949 -0.00349997 0)
(0.979083 -0.00486392 0)
(0.978553 -0.00623013 0)
(0.977927 -0.00760212 0)
(0.977219 -0.0089682 0)
(0.976453 -0.0103348 0)
(0.97565 -0.0116912 0)
(0.974858 -0.0130556 0)
(0.974163 -0.0144036 0)
(0.973656 -0.0157477 0)
(0.9735 -0.0170321 0)
(0.973769 -0.0182407 0)
(0.97473 -0.0193305 0)
(0.9762 -0.0201762 0)
(0.979888 -0.000922533 0)
(0.97645 -0.00192721 0)
(0.976174 -0.00311938 0)
(0.975787 -0.0043096 0)
(0.975282 -0.00548313 0)
(0.97469 -0.0066439 0)
(0.974027 -0.00778256 0)
(0.97332 -0.00891014 0)
(0.972579 -0.0100147 0)
(0.971862 -0.0111125 0)
(0.971256 -0.0121756 0)
(0.970901 -0.0132708 0)
(0.970959 -0.0143452 0)
(0.971554 -0.0154658 0)
(0.972881 -0.0165256 0)
(0.974749 -0.0175144 0)
(0.976545 -0.000826443 0)
(0.973457 -0.00170531 0)
(0.973222 -0.00275588 0)
(0.972884 -0.00378902 0)
(0.972431 -0.00478423 0)
(0.971895 -0.00574391 0)
(0.971291 -0.0066635 0)
(0.970646 -0.00756449 0)
(0.969972 -0.00843667 0)
(0.969341 -0.00926917 0)
(0.968833 -0.00999568 0)
(0.968612 -0.0107247 0)
(0.968815 -0.0114414 0)
(0.969604 -0.0123411 0)
(0.971108 -0.0133125 0)
(0.9732 -0.0144576 0)
(0.973534 -0.000731839 0)
(0.970747 -0.00148254 0)
(0.970548 -0.00241002 0)
(0.970264 -0.00331798 0)
(0.969877 -0.00417626 0)
(0.969407 -0.00498071 0)
(0.968862 -0.00572245 0)
(0.968279 -0.0064225 0)
(0.967714 -0.00706044 0)
(0.967349 -0.00765251 0)
(0.967178 -0.0081266 0)
(0.96722 -0.00855539 0)
(0.967502 -0.00892088 0)
(0.968144 -0.00944947 0)
(0.969473 -0.0101245 0)
(0.971508 -0.0112962 0)
(0.97081 -0.000635084 0)
(0.968169 -0.00124051 0)
(0.968009 -0.00202168 0)
(0.967839 -0.0027957 0)
(0.967622 -0.003544 0)
(0.967366 -0.00425007 0)
(0.967083 -0.00489352 0)
(0.966811 -0.00546555 0)
(0.966612 -0.00591608 0)
(0.966563 -0.00631557 0)
(0.966616 -0.00668156 0)
(0.966788 -0.0070285 0)
(0.967073 -0.00726592 0)
(0.967571 -0.007514 0)
(0.968375 -0.00770633 0)
(0.969905 -0.0086011 0)
(0.968231 -0.000530326 0)
(0.966748 -0.00102374 0)
(0.96667 -0.001639 0)
(0.96659 -0.00224963 0)
(0.966498 -0.00286309 0)
(0.966404 -0.00345595 0)
(0.96632 -0.00401705 0)
(0.966268 -0.00453174 0)
(0.966253 -0.00497164 0)
(0.966257 -0.00535095 0)
(0.966323 -0.0056528 0)
(0.966542 -0.00593804 0)
(0.966881 -0.00611132 0)
(0.967416 -0.00633711 0)
(0.967934 -0.0063533 0)
(0.968789 -0.00677922 0)
(0.966783 -0.00043938 0)
(0.966191 -0.000883584 0)
(0.966152 -0.00142481 0)
(0.966075 -0.00195648 0)
(0.965982 -0.0024702 0)
(0.965888 -0.00295725 0)
(0.965806 -0.00340574 0)
(0.965762 -0.00381679 0)
(0.965773 -0.00417447 0)
(0.965861 -0.00449501 0)
(0.966015 -0.0047416 0)
(0.966288 -0.00496944 0)
(0.966641 -0.00512612 0)
(0.967159 -0.00531794 0)
(0.967722 -0.00543437 0)
(0.968356 -0.00561596 0)
(0.966203 -0.000379376 0)
(0.9655 -0.000746998 0)
(0.965474 -0.00120841 0)
(0.965439 -0.00166186 0)
(0.965405 -0.00209335 0)
(0.96538 -0.00249939 0)
(0.965377 -0.00286846 0)
(0.96541 -0.0032038 0)
(0.965486 -0.00349132 0)
(0.965617 -0.00375108 0)
(0.965805 -0.00395744 0)
(0.966096 -0.00415186 0)
(0.966456 -0.00429674 0)
(0.966942 -0.00445997 0)
(0.967465 -0.00459609 0)
(0.968109 -0.0047636 0)
(0.965511 -0.000320375 0)
(0.965065 -0.000627024 0)
(0.965056 -0.0010116 0)
(0.96504 -0.00138788 0)
(0.965031 -0.00174481 0)