/*--------------------------------*- C++ -*----------------------------------*\
| =========                 |                                                 |
| \\      /  F ield         | foam-extend: Open Source CFD                    |
|  \\    /   O peration     | Version:     4.1-20200408                       |
|   \\  /    A nd           | Web:         http://www.foam-extend.org         |
|    \\/     M anipulation  |                                                 |
\*---------------------------------------------------------------------------*/
FoamFile
{
    version     2.0;
    format      ascii;
    class       volVectorField;
    location    "0.0395000";
    object      U_0_0;
}
// * * * * * * * * * * * * * * * * * * * * * * * * * * * * * * * * * * * * * //

dimensions      [0 1 0 0 0 0 0];

internalField   nonuniform List<vector> 
1952
(
(0.039038 -1.13247e-06 0)
(0.0390379 -1.84279e-06 0)
(0.0390377 -2.56248e-06 0)
(0.0390374 -3.28222e-06 0)
(0.0390371 -4.00316e-06 0)
(0.0390367 -4.71954e-06 0)
(0.0390363 -5.43564e-06 0)
(0.0390358 -6.14377e-06 0)
(0.0390354 -6.84933e-06 0)
(0.0390349 -7.54303e-06 0)
(0.0390345 -8.22876e-06 0)
(0.0390341 -8.89781e-06 0)
(0.0390338 -9.5456e-06 0)
(0.0390336 -1.01697e-05 0)
(0.0390336 -1.07539e-05 0)
(0.0390381 -4.85143e-07 0)
(0.0390366 -1.13551e-06 0)
(0.0390364 -1.84774e-06 0)
(0.0390362 -2.56939e-06 0)
(0.039036 -3.29104e-06 0)
(0.0390356 -4.01388e-06 0)
(0.0390352 -4.73211e-06 0)
(0.0390348 -5.45004e-06 0)
(0.0390344 -6.15991e-06 0)
(0.0390339 -6.86721e-06 0)
(0.0390334 -7.56254e-06 0)
(0.039033 -8.2499e-06 0)
(0.0390326 -8.92047e-06 0)
(0.0390323 -9.56973e-06 0)
(0.0390321 -1.01951e-05 0)
(0.0390321 -1.07807e-05 0)
(0.0390366 -4.86449e-07 0)
(0.0390351 -1.13847e-06 0)
(0.039035 -1.85254e-06 0)
(0.0390348 -2.57604e-06 0)
(0.0390345 -3.29952e-06 0)
(0.0390342 -4.02419e-06 0)
(0.0390338 -4.74419e-06 0)
(0.0390334 -5.46389e-06 0)
(0.0390329 -6.17545e-06 0)
(0.0390324 -6.88443e-06 0)
(0.0390319 -7.58135e-06 0)
(0.0390315 -8.27028e-06 0)
(0.0390311 -8.9423e-06 0)
(0.0390308 -9.59303e-06 0)
(0.0390307 -1.02197e-05 0)
(0.0390307 -1.08067e-05 0)
(0.0390352 -4.87718e-07 0)
(0.0390336 -1.14131e-06 0)
(0.0390335 -1.85716e-06 0)
(0.0390333 -2.58243e-06 0)
(0.039033 -3.30767e-06 0)
(0.0390327 -4.0341e-06 0)
(0.0390323 -4.75581e-06 0)
(0.0390319 -5.47723e-06 0)
(0.0390314 -6.19042e-06 0)
(0.039031 -6.90106e-06 0)
(0.0390305 -7.5995e-06 0)
(0.03903 -8.29003e-06 0)
(0.0390296 -8.96343e-06 0)
(0.0390293 -9.61569e-06 0)
(0.0390292 -1.02438e-05 0)
(0.0390292 -1.08321e-05 0)
(0.0390337 -4.88933e-07 0)
(0.0390322 -1.14404e-06 0)
(0.039032 -1.86162e-06 0)
(0.0390318 -2.58863e-06 0)
(0.0390315 -3.31558e-06 0)
(0.0390312 -4.04373e-06 0)
(0.0390308 -4.7671e-06 0)
(0.0390304 -5.4902e-06 0)
(0.0390299 -6.20498e-06 0)
(0.0390295 -6.91726e-06 0)
(0.039029 -7.61721e-06 0)
(0.0390285 -8.30932e-06 0)
(0.0390281 -8.98412e-06 0)
(0.0390279 -9.63793e-06 0)
(0.0390277 -1.02675e-05 0)
(0.0390277 -1.08572e-05 0)
(0.0390322 -4.90103e-07 0)
(0.0390307 -1.14671e-06 0)
(0.0390305 -1.86596e-06 0)
(0.0390303 -2.59465e-06 0)
(0.03903 -3.32328e-06 0)
(0.0390297 -4.0531e-06 0)
(0.0390293 -4.77809e-06 0)
(0.0390289 -5.50285e-06 0)
(0.0390284 -6.2192e-06 0)
(0.039028 -6.9331e-06 0)
(0.0390275 -7.63456e-06 0)
(0.0390271 -8.32825e-06 0)
(0.0390267 -9.00444e-06 0)
(0.0390264 -9.6598e-06 0)
(0.0390262 -1.02908e-05 0)
(0.0390262 -1.08819e-05 0)
(0.0390307 -4.91242e-07 0)
(0.0390292 -1.14932e-06 0)
(0.039029 -1.87021e-06 0)
(0.0390288 -2.60056e-06 0)
(0.0390286 -3.33083e-06 0)
(0.0390282 -4.06231e-06 0)
(0.0390278 -4.7889e-06 0)
(0.0390274 -5.51531e-06 0)
(0.039027 -6.23322e-06 0)
(0.0390265 -6.94875e-06 0)
(0.039026 -7.65173e-06 0)
(0.0390256 -8.34699e-06 0)
(0.0390252 -9.02461e-06 0)
(0.0390249 -9.68149e-06 0)
(0.0390247 -1.03138e-05 0)
(0.0390247 -1.09064e-05 0)
(0.0390292 -4.92358e-07 0)
(0.0390277 -1.15189e-06 0)
(0.0390276 -1.87439e-06 0)
(0.0390274 -2.60638e-06 0)
(0.0390271 -3.33825e-06 0)
(0.0390268 -4.07138e-06 0)
(0.0390264 -4.79954e-06 0)
(0.0390259 -5.5276e-06 0)
(0.0390255 -6.24703e-06 0)
(0.039025 -6.96419e-06 0)
(0.0390245 -7.66863e-06 0)
(0.0390241 -8.36547e-06 0)
(0.0390237 -9.04448e-06 0)
(0.0390234 -9.70287e-06 0)
(0.0390232 -1.03367e-05 0)
(0.0390232 -1.09307e-05 0)
(0.0390278 -4.93461e-07 0)
(0.0390262 -1.15443e-06 0)
(0.0390261 -1.8785e-06 0)
(0.0390259 -2.61211e-06 0)
(0.0390256 -3.34557e-06 0)
(0.0390253 -4.08032e-06 0)
(0.0390249 -4.81004e-06 0)
(0.0390244 -5.53973e-06 0)
(0.039024 -6.26067e-06 0)
(0.0390235 -6.97947e-06 0)
(0.039023 -7.68537e-06 0)
(0.0390226 -8.38383e-06 0)
(0.0390222 -9.06426e-06 0)
(0.0390219 -9.72417e-06 0)
(0.0390217 -1.03594e-05 0)
(0.0390217 -1.09549e-05 0)
(0.0390263 -4.94547e-07 0)
(0.0390247 -1.15695e-06 0)
(0.0390246 -1.8826e-06 0)
(0.0390244 -2.61782e-06 0)
(0.0390241 -3.35285e-06 0)
(0.0390238 -4.08923e-06 0)
(0.0390234 -4.8205e-06 0)
(0.0390229 -5.55182e-06 0)
(0.0390225 -6.27428e-06 0)
(0.039022 -6.9947e-06 0)
(0.0390215 -7.70207e-06 0)
(0.0390211 -8.40213e-06 0)
(0.0390207 -9.08401e-06 0)
(0.0390204 -9.74543e-06 0)
(0.0390202 -1.0382e-05 0)
(0.0390202 -1.09789e-05 0)
(0.0390248 -4.95628e-07 0)
(0.0390232 -1.15945e-06 0)
(0.0390231 -1.88665e-06 0)
(0.0390229 -2.62347e-06 0)
(0.0390226 -3.36006e-06 0)
(0.0390223 -4.09806e-06 0)
(0.0390219 -4.83086e-06 0)
(0.0390215 -5.5638e-06 0)
(0.039021 -6.28775e-06 0)
(0.0390205 -7.0098e-06 0)
(0.03902 -7.71861e-06 0)
(0.0390196 -8.42027e-06 0)
(0.0390192 -9.10352e-06 0)
(0.0390189 -9.76644e-06 0)
(0.0390187 -1.04045e-05 0)
(0.0390187 -1.10027e-05 0)
(0.0390233 -4.96698e-07 0)
(0.0390217 -1.16193e-06 0)
(0.0390216 -1.89068e-06 0)
(0.0390214 -2.62908e-06 0)
(0.0390211 -3.36722e-06 0)
(0.0390208 -4.10683e-06 0)
(0.0390204 -4.84116e-06 0)
(0.0390199 -5.57571e-06 0)
(0.0390195 -6.30116e-06 0)
(0.039019 -7.02482e-06 0)
(0.0390185 -7.73508e-06 0)
(0.0390181 -8.43834e-06 0)
(0.0390177 -9.12299e-06 0)
(0.0390174 -9.78744e-06 0)
(0.0390172 -1.04269e-05 0)
(0.0390172 -1.10265e-05 0)
(0.0390218 -4.9776e-07 0)
(0.0390202 -1.16438e-06 0)
(0.0390201 -1.89467e-06 0)
(0.0390199 -2.63465e-06 0)
(0.0390196 -3.37433e-06 0)
(0.0390193 -4.11553e-06 0)
(0.0390189 -4.85138e-06 0)
(0.0390184 -5.58754e-06 0)
(0.039018 -6.31447e-06 0)
(0.0390175 -7.03974e-06 0)
(0.039017 -7.75144e-06 0)
(0.0390166 -8.4563e-06 0)
(0.0390161 -9.14234e-06 0)
(0.0390159 -9.80831e-06 0)
(0.0390157 -1.04492e-05 0)
(0.0390157 -1.10502e-05 0)
(0.0390203 -4.98813e-07 0)
(0.0390187 -1.16683e-06 0)
(0.0390186 -1.89865e-06 0)
(0.0390184 -2.64019e-06 0)
(0.0390181 -3.38142e-06 0)
(0.0390178 -4.1242e-06 0)
(0.0390174 -4.86157e-06 0)
(0.0390169 -5.59932e-06 0)
(0.0390165 -6.32775e-06 0)
(0.039016 -7.05461e-06 0)
(0.0390155 -7.76779e-06 0)
(0.039015 -8.47423e-06 0)
(0.0390146 -9.1617e-06 0)
(0.0390143 -9.82909e-06 0)
(0.0390142 -1.04714e-05 0)
(0.0390142 -1.10739e-05 0)
(0.0390188 -4.99861e-07 0)
(0.0390172 -1.16926e-06 0)
(0.0390171 -1.90259e-06 0)
(0.0390169 -2.64569e-06 0)
(0.0390166 -3.38843e-06 0)
(0.0390162 -4.13279e-06 0)
(0.0390158 -4.87166e-06 0)
(0.0390154 -5.611e-06 0)
(0.0390149 -6.34091e-06 0)
(0.0390145 -7.06935e-06 0)
(0.039014 -7.78398e-06 0)
(0.0390135 -8.49197e-06 0)
(0.0390131 -9.18088e-06 0)
(0.0390128 -9.84971e-06 0)
(0.0390126 -1.04936e-05 0)
(0.0390126 -1.10975e-05 0)
(0.0390173 -5.00899e-07 0)
(0.0390157 -1.17166e-06 0)
(0.0390155 -1.9065e-06 0)
(0.0390153 -2.65114e-06 0)
(0.0390151 -3.3954e-06 0)
(0.0390147 -4.14132e-06 0)
(0.0390143 -4.8817e-06 0)
(0.0390139 -5.6226e-06 0)
(0.0390134 -6.35401e-06 0)
(0.0390129 -7.08402e-06 0)
(0.0390124 -7.80014e-06 0)
(0.039012 -8.50967e-06 0)
(0.0390116 -9.20004e-06 0)
(0.0390113 -9.87035e-06 0)
(0.0390111 -1.05157e-05 0)
(0.0390111 -1.11211e-05 0)
(0.0390158 -5.0193e-07 0)
(0.0390142 -1.17404e-06 0)
(0.039014 -1.91037e-06 0)
(0.0390138 -2.65654e-06 0)
(0.0390135 -3.4023e-06 0)
(0.0390132 -4.14977e-06 0)
(0.0390128 -4.89165e-06 0)
(0.0390124 -5.63411e-06 0)
(0.0390119 -6.36701e-06 0)
(0.0390114 -7.09858e-06 0)
(0.0390109 -7.81619e-06 0)
(0.0390105 -8.52727e-06 0)
(0.0390101 -9.21911e-06 0)
(0.0390098 -9.89091e-06 0)
(0.0390096 -1.05377e-05 0)
(0.0390096 -1.11445e-05 0)
(0.0390142 -5.0295e-07 0)
(0.0390127 -1.17641e-06 0)
(0.0390125 -1.91421e-06 0)
(0.0390123 -2.6619e-06 0)
(0.039012 -3.40916e-06 0)
(0.0390117 -4.15817e-06 0)
(0.0390113 -4.90155e-06 0)
(0.0390109 -5.64556e-06 0)
(0.0390104 -6.37997e-06 0)
(0.0390099 -7.1131e-06 0)
(0.0390094 -7.83222e-06 0)
(0.039009 -8.54485e-06 0)
(0.0390085 -9.23816e-06 0)
(0.0390082 -9.91142e-06 0)
(0.0390081 -1.05596e-05 0)
(0.0390081 -1.11679e-05 0)
(0.0390127 -5.03962e-07 0)
(0.0390112 -1.17874e-06 0)
(0.039011 -1.918e-06 0)
(0.0390108 -2.66719e-06 0)
(0.0390105 -3.41594e-06 0)
(0.0390102 -4.16647e-06 0)
(0.0390098 -4.91134e-06 0)
(0.0390093 -5.6569e-06 0)
(0.0390089 -6.3928e-06 0)
(0.0390084 -7.1275e-06 0)
(0.0390079 -7.84809e-06 0)
(0.0390074 -8.56228e-06 0)
(0.039007 -9.25703e-06 0)
(0.0390067 -9.93177e-06 0)
(0.0390065 -1.05815e-05 0)
(0.0390065 -1.11912e-05 0)
(0.0390112 -5.04961e-07 0)
(0.0390096 -1.18105e-06 0)
(0.0390095 -1.92175e-06 0)
(0.0390093 -2.67242e-06 0)
(0.039009 -3.42264e-06 0)
(0.0390086 -4.17468e-06 0)
(0.0390082 -4.92104e-06 0)
(0.0390078 -5.66813e-06 0)
(0.0390073 -6.40553e-06 0)
(0.0390068 -7.14178e-06 0)
(0.0390063 -7.86386e-06 0)
(0.0390059 -8.57963e-06 0)
(0.0390055 -9.27582e-06 0)
(0.0390052 -9.95209e-06 0)
(0.039005 -1.06032e-05 0)
(0.039005 -1.12144e-05 0)
(0.0390097 -5.05949e-07 0)
(0.0390081 -1.18333e-06 0)
(0.0390079 -1.92547e-06 0)
(0.0390077 -2.6776e-06 0)
(0.0390075 -3.42929e-06 0)
(0.0390071 -4.18281e-06 0)
(0.0390067 -4.93066e-06 0)
(0.0390063 -5.67926e-06 0)
(0.0390058 -6.41815e-06 0)
(0.0390053 -7.15594e-06 0)
(0.0390048 -7.87952e-06 0)
(0.0390044 -8.59685e-06 0)
(0.0390039 -9.29453e-06 0)
(0.0390036 -9.97237e-06 0)
(0.0390035 -1.06249e-05 0)
(0.0390035 -1.12376e-05 0)
(0.0390082 -5.06926e-07 0)
(0.0390066 -1.18558e-06 0)
(0.0390064 -1.92914e-06 0)
(0.0390062 -2.68271e-06 0)
(0.0390059 -3.43585e-06 0)
(0.0390056 -4.19085e-06 0)
(0.0390052 -4.94017e-06 0)
(0.0390047 -5.69026e-06 0)
(0.0390043 -6.43067e-06 0)
(0.0390038 -7.16996e-06 0)
(0.0390033 -7.89508e-06 0)
(0.0390028 -8.61392e-06 0)
(0.0390024 -9.31316e-06 0)
(0.0390021 -9.99259e-06 0)
(0.0390019 -1.06466e-05 0)
(0.0390019 -1.12608e-05 0)
(0.0390066 -5.07891e-07 0)
(0.039005 -1.18781e-06 0)
(0.0390049 -1.93276e-06 0)
(0.0390047 -2.68777e-06 0)
(0.0390044 -3.44235e-06 0)
(0.0390041 -4.1988e-06 0)
(0.0390036 -4.9496e-06 0)
(0.0390032 -5.70116e-06 0)
(0.0390027 -6.4431e-06 0)
(0.0390022 -7.18388e-06 0)
(0.0390017 -7.91058e-06 0)
(0.0390013 -8.63092e-06 0)
(0.0390009 -9.33177e-06 0)
(0.0390006 -1.00127e-05 0)
(0.0390004 -1.06683e-05 0)
(0.0390004 -1.1284e-05 0)
(0.0390051 -5.08845e-07 0)
(0.0390035 -1.19001e-06 0)
(0.0390034 -1.93635e-06 0)
(0.0390031 -2.69277e-06 0)
(0.0390029 -3.44878e-06 0)
(0.0390025 -4.20666e-06 0)
(0.0390021 -4.95894e-06 0)
(0.0390017 -5.71196e-06 0)
(0.0390012 -6.45542e-06 0)
(0.0390007 -7.19768e-06 0)
(0.0390002 -7.92596e-06 0)
(0.0389997 -8.64778e-06 0)
(0.0389993 -9.35022e-06 0)
(0.038999 -1.00328e-05 0)
(0.0389988 -1.06899e-05 0)
(0.0389988 -1.13072e-05 0)
(0.0390036 -5.09788e-07 0)
(0.039002 -1.19219e-06 0)
(0.0390018 -1.9399e-06 0)
(0.0390016 -2.69772e-06 0)
(0.0390013 -3.45516e-06 0)
(0.039001 -4.21445e-06 0)
(0.0390006 -4.96821e-06 0)
(0.0390001 -5.72266e-06 0)
(0.0389996 -6.46766e-06 0)
(0.0389991 -7.21139e-06 0)
(0.0389986 -7.94126e-06 0)
(0.0389982 -8.66458e-06 0)
(0.0389978 -9.36863e-06 0)
(0.0389975 -1.00528e-05 0)
(0.0389973 -1.07115e-05 0)
(0.0389973 -1.13304e-05 0)
(0.039002 -5.10722e-07 0)
(0.0390004 -1.19436e-06 0)
(0.0390003 -1.94344e-06 0)
(0.0390001 -2.70265e-06 0)
(0.0389998 -3.46151e-06 0)
(0.0389994 -4.2222e-06 0)
(0.038999 -4.97744e-06 0)
(0.0389986 -5.73332e-06 0)
(0.0389981 -6.47985e-06 0)
(0.0389976 -7.22506e-06 0)
(0.0389971 -7.95652e-06 0)
(0.0389966 -8.68137e-06 0)
(0.0389962 -9.38702e-06 0)
(0.0389959 -1.00728e-05 0)
(0.0389957 -1.07331e-05 0)
(0.0389957 -1.13535e-05 0)
(0.0390005 -5.11652e-07 0)
(0.0389989 -1.19654e-06 0)
(0.0389987 -1.94699e-06 0)
(0.0389985 -2.70758e-06 0)
(0.0389982 -3.46786e-06 0)
(0.0389979 -4.22996e-06 0)
(0.0389975 -4.98667e-06 0)
(0.038997 -5.74398e-06 0)
(0.0389965 -6.49205e-06 0)
(0.038996 -7.23872e-06 0)
(0.0389955 -7.97177e-06 0)
(0.0389951 -8.69814e-06 0)
(0.0389947 -9.40537e-06 0)
(0.0389943 -1.00928e-05 0)
(0.0389942 -1.07546e-05 0)
(0.0389942 -1.13767e-05 0)
(0.0389989 -5.12584e-07 0)
(0.0389974 -1.19873e-06 0)
(0.0389972 -1.95056e-06 0)
(0.038997 -2.71255e-06 0)
(0.0389967 -3.47426e-06 0)
(0.0389963 -4.23776e-06 0)
(0.0389959 -4.99595e-06 0)
(0.0389955 -5.75467e-06 0)
(0.038995 -6.50427e-06 0)
(0.0389945 -7.2524e-06 0)
(0.038994 -7.98701e-06 0)
(0.0389935 -8.7149e-06 0)
(0.0389931 -9.42371e-06 0)
(0.0389928 -1.01127e-05 0)
(0.0389926 -1.07762e-05 0)
(0.0389926 -1.14e-05 0)
(0.0389974 -5.13523e-07 0)
(0.0389958 -1.20096e-06 0)
(0.0389956 -1.9542e-06 0)
(0.0389954 -2.7176e-06 0)
(0.0389951 -3.48077e-06 0)
(0.0389948 -4.24566e-06 0)
(0.0389944 -5.00535e-06 0)
(0.0389939 -5.76546e-06 0)
(0.0389934 -6.51659e-06 0)
(0.0389929 -7.26615e-06 0)
(0.0389924 -8.00233e-06 0)
(0.038992 -8.73173e-06 0)
(0.0389915 -9.44212e-06 0)
(0.0389912 -1.01328e-05 0)
(0.038991 -1.07979e-05 0)
(0.038991 -1.14234e-05 0)
(0.0389959 -5.14481e-07 0)
(0.0389943 -1.20327e-06 0)
(0.0389941 -1.95795e-06 0)
(0.0389939 -2.7228e-06 0)
(0.0389936 -3.48745e-06 0)
(0.0389932 -4.25375e-06 0)
(0.0389928 -5.01495e-06 0)
(0.0389924 -5.77646e-06 0)
(0.0389919 -6.52912e-06 0)
(0.0389914 -7.28011e-06 0)
(0.0389909 -8.01784e-06 0)
(0.0389904 -8.74875e-06 0)
(0.03899 -9.46073e-06 0)
(0.0389897 -1.01531e-05 0)
(0.0389895 -1.08198e-05 0)
(0.0389895 -1.14471e-05 0)
(0.0389943 -5.15469e-07 0)
(0.0389927 -1.20569e-06 0)
(0.0389925 -1.96188e-06 0)
(0.0389923 -2.72822e-06 0)
(0.038992 -3.49441e-06 0)
(0.0389917 -4.26216e-06 0)
(0.0389913 -5.0249e-06 0)
(0.0389908 -5.78781e-06 0)
(0.0389903 -6.54202e-06 0)
(0.0389898 -7.29443e-06 0)
(0.0389893 -8.03372e-06 0)
(0.0389888 -8.76614e-06 0)
(0.0389884 -9.4797e-06 0)
(0.0389881 -1.01738e-05 0)
(0.0389879 -1.08421e-05 0)
(0.0389879 -1.14712e-05 0)
(0.0389928 -5.16505e-07 0)
(0.0389912 -1.20827e-06 0)
(0.038991 -1.96607e-06 0)
(0.0389908 -2.734e-06 0)
(0.0389905 -3.50181e-06 0)
(0.0389901 -4.27106e-06 0)
(0.0389897 -5.03539e-06 0)
(0.0389893 -5.79973e-06 0)
(0.0389887 -6.5555e-06 0)
(0.0389882 -7.30934e-06 0)
(0.0389877 -8.05018e-06 0)
(0.0389872 -8.78409e-06 0)
(0.0389868 -9.49924e-06 0)
(0.0389865 -1.0195e-05 0)
(0.0389863 -1.08651e-05 0)
(0.0389863 -1.1496e-05 0)
(0.0389912 -5.17612e-07 0)
(0.0389896 -1.21109e-06 0)
(0.0389894 -1.97065e-06 0)
(0.0389892 -2.74029e-06 0)
(0.0389889 -3.50984e-06 0)
(0.0389886 -4.28067e-06 0)
(0.0389881 -5.04668e-06 0)
(0.0389877 -5.81248e-06 0)
(0.0389872 -6.56986e-06 0)
(0.0389867 -7.32511e-06 0)
(0.0389861 -8.06752e-06 0)
(0.0389857 -8.80292e-06 0)
(0.0389852 -9.51964e-06 0)
(0.0389849 -1.02171e-05 0)
(0.0389847 -1.08888e-05 0)
(0.0389847 -1.15217e-05 0)
(0.0389897 -5.18822e-07 0)
(0.038988 -1.21424e-06 0)
(0.0389879 -1.97575e-06 0)
(0.0389877 -2.74728e-06 0)
(0.0389874 -3.51875e-06 0)
(0.038987 -4.29128e-06 0)
(0.0389866 -5.05909e-06 0)
(0.0389861 -5.82641e-06 0)
(0.0389856 -6.58546e-06 0)
(0.0389851 -7.34213e-06 0)
(0.0389846 -8.08611e-06 0)
(0.0389841 -8.82297e-06 0)
(0.0389837 -9.54124e-06 0)
(0.0389833 -1.02404e-05 0)
(0.0389832 -1.09138e-05 0)
(0.0389831 -1.15486e-05 0)
(0.0389881 -5.20173e-07 0)
(0.0389865 -1.21784e-06 0)
(0.0389863 -1.98157e-06 0)
(0.0389861 -2.75524e-06 0)
(0.0389858 -3.52884e-06 0)
(0.0389854 -4.30326e-06 0)
(0.038985 -5.07304e-06 0)
(0.0389845 -5.84198e-06 0)
(0.038984 -6.60278e-06 0)
(0.0389835 -7.36089e-06 0)
(0.038983 -8.10644e-06 0)
(0.0389825 -8.84473e-06 0)
(0.0389821 -9.56451e-06 0)
(0.0389818 -1.02653e-05 0)
(0.0389816 -1.09404e-05 0)
(0.0389815 -1.15771e-05 0)
(0.0389865 -5.21718e-07 0)
(0.0389849 -1.22204e-06 0)
(0.0389848 -1.98833e-06 0)
(0.0389845 -2.76447e-06 0)
(0.0389842 -3.54053e-06 0)
(0.0389839 -4.31707e-06 0)
(0.0389834 -5.08904e-06 0)
(0.038983 -5.85972e-06 0)
(0.0389825 -6.62239e-06 0)
(0.0389819 -7.38197e-06 0)
(0.0389814 -8.12913e-06 0)
(0.0389809 -8.86881e-06 0)
(0.0389805 -9.59004e-06 0)
(0.0389802 -1.02925e-05 0)
(0.03898 -1.09691e-05 0)
(0.0389799 -1.16079e-05 0)
(0.038985 -5.23516e-07 0)
(0.0389833 -1.22699e-06 0)
(0.0389832 -1.99633e-06 0)
(0.038983 -2.77535e-06 0)
(0.0389827 -3.55427e-06 0)
(0.0389823 -4.33326e-06 0)
(0.0389819 -5.10773e-06 0)
(0.0389814 -5.88035e-06 0)
(0.0389809 -6.64506e-06 0)
(0.0389804 -7.40616e-06 0)
(0.0389798 -8.15495e-06 0)
(0.0389793 -8.89596e-06 0)
(0.0389789 -9.61857e-06 0)
(0.0389786 -1.03225e-05 0)
(0.0389784 -1.10007e-05 0)
(0.0389783 -1.16414e-05 0)
(0.0389834 -5.25641e-07 0)
(0.0389818 -1.23291e-06 0)
(0.0389816 -2.00587e-06 0)
(0.0389814 -2.78834e-06 0)
(0.0389811 -3.57063e-06 0)
(0.0389807 -4.35251e-06 0)
(0.0389803 -5.12987e-06 0)
(0.0389798 -5.90469e-06 0)
(0.0389793 -6.67166e-06 0)
(0.0389788 -7.43438e-06 0)
(0.0389782 -8.18485e-06 0)
(0.0389777 -8.92713e-06 0)
(0.0389773 -9.65103e-06 0)
(0.038977 -1.03564e-05 0)
(0.0389768 -1.10359e-05 0)
(0.0389767 -1.16786e-05 0)
(0.0389818 -5.2818e-07 0)
(0.0389802 -1.24002e-06 0)
(0.03898 -2.01732e-06 0)
(0.0389798 -2.80394e-06 0)
(0.0389795 -3.59025e-06 0)
(0.0389791 -4.3756e-06 0)
(0.0389787 -5.15635e-06 0)
(0.0389782 -5.93375e-06 0)
(0.0389777 -6.70328e-06 0)
(0.0389772 -7.46777e-06 0)
(0.0389767 -8.22002e-06 0)
(0.0389762 -8.96349e-06 0)
(0.0389757 -9.68857e-06 0)
(0.0389754 -1.03952e-05 0)
(0.0389752 -1.10759e-05 0)
(0.0389751 -1.17205e-05 0)
(0.0389803 -5.31231e-07 0)
(0.0389786 -1.24858e-06 0)
(0.0389784 -2.03112e-06 0)
(0.0389782 -2.82273e-06 0)
(0.0389779 -3.61388e-06 0)
(0.0389776 -4.40343e-06 0)
(0.0389771 -5.18821e-06 0)
(0.0389767 -5.96871e-06 0)
(0.0389761 -6.74123e-06 0)
(0.0389756 -7.50771e-06 0)
(0.0389751 -8.2619e-06 0)
(0.0389746 -9.00648e-06 0)
(0.0389741 -9.73266e-06 0)
(0.0389738 -1.04402e-05 0)
(0.0389735 -1.1122e-05 0)
(0.0389735 -1.17683e-05 0)
(0.0389787 -5.34904e-07 0)
(0.038977 -1.25888e-06 0)
(0.0389769 -2.04772e-06 0)
(0.0389766 -2.84536e-06 0)
(0.0389763 -3.64232e-06 0)
(0.038976 -4.43699e-06 0)
(0.0389755 -5.2266e-06 0)
(0.0389751 -6.01092e-06 0)
(0.0389745 -6.787e-06 0)
(0.038974 -7.55583e-06 0)
(0.0389735 -8.31216e-06 0)
(0.038973 -9.05789e-06 0)
(0.0389725 -9.78516e-06 0)
(0.0389721 -1.04934e-05 0)
(0.0389719 -1.11758e-05 0)
(0.0389719 -1.18236e-05 0)
(0.0389771 -5.3932e-07 0)
(0.0389754 -1.27118e-06 0)
(0.0389752 -2.06757e-06 0)
(0.038975 -2.87247e-06 0)
(0.0389747 -3.67645e-06 0)
(0.0389744 -4.47736e-06 0)
(0.0389739 -5.27284e-06 0)
(0.0389735 -6.06189e-06 0)
(0.0389729 -6.8423e-06 0)
(0.0389724 -7.61406e-06 0)
(0.0389719 -8.37294e-06 0)
(0.0389714 -9.11994e-06 0)
(0.0389709 -9.84826e-06 0)
(0.0389705 -1.05568e-05 0)
(0.0389703 -1.12395e-05 0)
(0.0389702 -1.18885e-05 0)
(0.0389755 -5.44599e-07 0)
(0.0389738 -1.28577e-06 0)
(0.0389736 -2.09113e-06 0)
(0.0389734 -2.90472e-06 0)
(0.0389731 -3.71711e-06 0)
(0.0389728 -4.52561e-06 0)
(0.0389723 -5.32827e-06 0)
(0.0389719 -6.12321e-06 0)
(0.0389713 -6.90904e-06 0)
(0.0389708 -7.68454e-06 0)
(0.0389703 -8.44669e-06 0)
(0.0389697 -9.1952e-06 0)
(0.0389693 -9.92465e-06 0)
(0.0389689 -1.06332e-05 0)
(0.0389687 -1.13158e-05 0)
(0.0389686 -1.19654e-05 0)
(0.0389738 -5.50856e-07 0)
(0.0389722 -1.30286e-06 0)
(0.038972 -2.11878e-06 0)
(0.0389718 -2.94266e-06 0)
(0.0389715 -3.76505e-06 0)
(0.0389711 -4.58274e-06 0)
(0.0389707 -5.39413e-06 0)
(0.0389702 -6.19647e-06 0)
(0.0389697 -6.98912e-06 0)
(0.0389692 -7.76955e-06 0)
(0.0389687 -8.53601e-06 0)
(0.0389681 -9.28657e-06 0)
(0.0389677 -1.00176e-05 0)
(0.0389673 -1.07258e-05 0)
(0.038967 -1.14078e-05 0)
(0.038967 -1.20573e-05 0)
(0.0389722 -5.58187e-07 0)
(0.0389705 -1.32258e-06 0)
(0.0389703 -2.15074e-06 0)
(0.0389701 -2.98663e-06 0)
(0.0389698 -3.8208e-06 0)
(0.0389695 -4.6495e-06 0)
(0.0389691 -5.47144e-06 0)
(0.0389686 -6.28301e-06 0)
(0.0389681 -7.08431e-06 0)
(0.0389676 -7.87134e-06 0)
(0.038967 -8.64371e-06 0)
(0.0389665 -9.39744e-06 0)
(0.0389661 -1.01308e-05 0)
(0.0389657 -1.08388e-05 0)
(0.0389654 -1.15197e-05 0)
(0.0389653 -1.21677e-05 0)
(0.0389705 -5.66647e-07 0)
(0.0389688 -1.34495e-06 0)
(0.0389687 -2.18703e-06 0)
(0.0389685 -3.03672e-06 0)
(0.0389682 -3.88451e-06 0)
(0.0389678 -4.72618e-06 0)
(0.0389674 -5.56074e-06 0)
(0.038967 -6.38372e-06 0)
(0.0389665 -7.19596e-06 0)
(0.0389659 -7.99189e-06 0)
(0.0389654 -8.77261e-06 0)
(0.0389649 -9.5316e-06 0)
(0.0389644 -1.02695e-05 0)
(0.0389641 -1.09781e-05 0)
(0.0389638 -1.16583e-05 0)
(0.0389637 -1.23035e-05 0)
(0.0389689 -5.76237e-07 0)
(0.0389671 -1.36975e-06 0)
(0.038967 -2.22736e-06 0)
(0.0389668 -3.09255e-06 0)
(0.0389665 -3.95578e-06 0)
(0.0389661 -4.81244e-06 0)
(0.0389657 -5.66177e-06 0)
(0.0389653 -6.49859e-06 0)
(0.0389648 -7.32445e-06 0)
(0.0389643 -8.1322e-06 0)
(0.0389638 -8.92465e-06 0)
(0.0389633 -9.69241e-06 0)
(0.0389628 -1.0439e-05 0)
(0.0389624 -1.11523e-05 0)
(0.0389621 -1.18363e-05 0)
(0.038962 -1.24816e-05 0)
(0.0389672 -5.86871e-07 0)
(0.0389654 -1.39657e-06 0)
(0.0389652 -2.27103e-06 0)
(0.038965 -3.15319e-06 0)
(0.0389648 -4.03347e-06 0)
(0.0389644 -4.90697e-06 0)
(0.038964 -5.77313e-06 0)
(0.0389636 -6.62622e-06 0)
(0.0389631 -7.46843e-06 0)
(0.0389626 -8.29124e-06 0)
(0.0389621 -9.09926e-06 0)
(0.0389616 -9.88019e-06 0)
(0.0389612 -1.06412e-05 0)
(0.0389608 -1.13659e-05 0)
(0.0389605 -1.20631e-05 0)
(0.0389604 -1.2719e-05 0)
(0.0389654 -5.98365e-07 0)
(0.0389636 -1.4247e-06 0)
(0.0389635 -2.31691e-06 0)
(0.0389633 -3.2171e-06 0)
(0.038963 -4.1156e-06 0)
(0.0389627 -5.00741e-06 0)
(0.0389623 -5.89206e-06 0)
(0.0389619 -6.7635e-06 0)
(0.0389614 -7.62441e-06 0)
(0.038961 -8.46508e-06 0)
(0.0389605 -9.29192e-06 0)
(0.03896 -1.00895e-05 0)
(0.0389595 -1.08692e-05 0)
(0.0389592 -1.16095e-05 0)
(0.0389589 -1.23248e-05 0)
(0.0389587 -1.2995e-05 0)
(0.0389636 -6.10419e-07 0)
(0.0389618 -1.45317e-06 0)
(0.0389617 -2.36341e-06 0)
(0.0389615 -3.28205e-06 0)
(0.0389612 -4.19933e-06 0)
(0.0389609 -5.1103e-06 0)
(0.0389605 -6.01445e-06 0)
(0.0389601 -6.9057e-06 0)
(0.0389597 -7.78694e-06 0)
(0.0389592 -8.64758e-06 0)
(0.0389588 -9.49551e-06 0)
(0.0389583 -1.03122e-05 0)
(0.0389579 -1.11132e-05 0)
(0.0389575 -1.18704e-05 0)
(0.0389572 -1.2605e-05 0)
(0.0389571 -1.32887e-05 0)
(0.0389618 -6.22614e-07 0)
(0.0389599 -1.48074e-06 0)
(0.0389598 -2.40852e-06 0)
(0.0389596 -3.34522e-06 0)
(0.0389594 -4.28103e-06 0)
(0.0389591 -5.21116e-06 0)
(0.0389587 -6.13497e-06 0)
(0.0389584 -7.0466e-06 0)
(0.0389579 -7.94886e-06 0)
(0.0389575 -8.8307e-06 0)
(0.038957 -9.70093e-06 0)
(0.0389566 -1.05381e-05 0)
(0.0389562 -1.13618e-05 0)
(0.0389559 -1.21363e-05 0)
(0.0389556 -1.28905e-05 0)
(0.0389554 -1.35861e-05 0)
(0.03896 -6.34423e-07 0)
(0.0389581 -1.50596e-06 0)
(0.0389579 -2.44986e-06 0)
(0.0389578 -3.40329e-06 0)
(0.0389575 -4.35636e-06 0)
(0.0389572 -5.30463e-06 0)
(0.0389569 -6.24718e-06 0)
(0.0389565 -7.17872e-06 0)
(0.0389561 -8.10156e-06 0)
(0.0389557 -9.00481e-06 0)
(0.0389553 -9.89745e-06 0)
(0.0389549 -1.07557e-05 0)
(0.0389545 -1.16027e-05 0)
(0.0389542 -1.23941e-05 0)
(0.0389539 -1.31684e-05 0)
(0.0389538 -1.38738e-05 0)
(0.0389581 -6.45224e-07 0)
(0.0389561 -1.52722e-06 0)
(0.038956 -2.48475e-06 0)
(0.0389558 -3.45247e-06 0)
(0.0389556 -4.42041e-06 0)
(0.0389553 -5.3846e-06 0)
(0.038955 -6.3437e-06 0)
(0.0389547 -7.29337e-06 0)
(0.0389543 -8.23498e-06 0)
(0.0389539 -9.15861e-06 0)
(0.0389535 -1.00724e-05 0)
(0.0389531 -1.09516e-05 0)
(0.0389528 -1.18216e-05 0)
(0.0389525 -1.26299e-05 0)
(0.0389523 -1.34259e-05 0)
(0.0389522 -1.41384e-05 0)
(0.0389562 -6.5432e-07 0)
(0.0389542 -1.54274e-06 0)
(0.0389541 -2.51031e-06 0)
(0.0389539 -3.48868e-06 0)
(0.0389537 -4.46781e-06 0)
(0.0389534 -5.44431e-06 0)
(0.0389531 -6.41635e-06 0)
(0.0389528 -7.38078e-06 0)
(0.0389524 -8.33778e-06 0)
(0.0389521 -9.27915e-06 0)
(0.0389517 -1.02113e-05 0)
(0.0389513 -1.11104e-05 0)
(0.038951 -1.2002e-05 0)
(0.0389508 -1.28279e-05 0)
(0.0389507 -1.36474e-05 0)
(0.0389506 -1.43639e-05 0)
(0.0389542 -6.6096e-07 0)
(0.0389522 -1.55086e-06 0)
(0.0389521 -2.52379e-06 0)
(0.0389519 -3.50803e-06 0)
(0.0389517 -4.49349e-06 0)
(0.0389515 -5.47742e-06 0)
(0.0389512 -6.45737e-06 0)
(0.0389509 -7.43166e-06 0)
(0.0389505 -8.39905e-06 0)
(0.0389502 -9.35375e-06 0)
(0.0389499 -1.02997e-05 0)
(0.0389495 -1.12161e-05 0)
(0.0389493 -1.21252e-05 0)
(0.0389491 -1.29683e-05 0)
(0.038949 -1.38075e-05 0)
(0.0389491 -1.45217e-05 0)
(0.0389522 -6.6443e-07 0)
(0.0389502 -1.55056e-06 0)
(0.0389501 -2.52351e-06 0)
(0.0389499 -3.50814e-06 0)
(0.0389497 -4.4943e-06 0)
(0.0389495 -5.47984e-06 0)
(0.0389492 -6.46161e-06 0)
(0.0389489 -7.43936e-06 0)
(0.0389486 -8.41015e-06 0)
(0.0389483 -9.37089e-06 0)
(0.038948 -1.03224e-05 0)
(0.0389477 -1.1248e-05 0)
(0.0389475 -1.21634e-05 0)
(0.0389474 -1.30153e-05 0)
(0.0389474 -1.38594e-05 0)
(0.0389476 -1.45634e-05 0)
(0.0389502 -6.64289e-07 0)
(0.0389482 -1.54033e-06 0)
(0.0389481 -2.50689e-06 0)
(0.0389479 -3.48515e-06 0)
(0.0389477 -4.46481e-06 0)
(0.0389475 -5.44419e-06 0)
(0.0389472 -6.4192e-06 0)
(0.038947 -7.3907e-06 0)
(0.0389467 -8.35375e-06 0)
(0.0389464 -9.30762e-06 0)
(0.0389461 -1.02492e-05 0)
(0.0389459 -1.11669e-05 0)
(0.0389458 -1.20691e-05 0)
(0.0389458 -1.2912e-05 0)
(0.0389459 -1.37407e-05 0)
(0.0389461 -1.44291e-05 0)
(0.0389482 -6.59895e-07 0)
(0.0389461 -1.51571e-06 0)
(0.038946 -2.46655e-06 0)
(0.0389459 -3.42855e-06 0)
(0.0389457 -4.39111e-06 0)
(0.0389455 -5.35275e-06 0)
(0.0389453 -6.30837e-06 0)
(0.038945 -7.25953e-06 0)
(0.0389448 -8.19926e-06 0)
(0.0389445 -9.12894e-06 0)
(0.0389443 -1.00414e-05 0)
(0.0389441 -1.09307e-05 0)
(0.0389441 -1.17977e-05 0)
(0.0389441 -1.26102e-05 0)
(0.0389444 -1.34006e-05 0)
(0.0389448 -1.40628e-05 0)
(0.0389462 -6.49351e-07 0)
(0.0389441 -1.4717e-06 0)
(0.0389441 -2.39439e-06 0)
(0.0389439 -3.32716e-06 0)
(0.0389438 -4.25906e-06 0)
(0.0389436 -5.18869e-06 0)
(0.0389434 -6.10983e-06 0)
(0.0389431 -7.02464e-06 0)
(0.0389429 -7.92417e-06 0)
(0.0389427 -8.81188e-06 0)
(0.0389425 -9.67685e-06 0)
(0.0389424 -1.0519e-05 0)
(0.0389425 -1.13318e-05 0)
(0.0389426 -1.20966e-05 0)
(0.038943 -1.28318e-05 0)
(0.0389436 -1.34606e-05 0)
(0.0389442 -6.30516e-07 0)
(0.0389422 -1.40551e-06 0)
(0.0389421 -2.28596e-06 0)
(0.038942 -3.17504e-06 0)
(0.0389419 -4.06157e-06 0)
(0.0389417 -4.94413e-06 0)
(0.0389415 -5.81557e-06 0)
(0.0389413 -6.67853e-06 0)
(0.0389412 -7.52237e-06 0)
(0.038941 -8.35261e-06 0)
(0.0389409 -9.15509e-06 0)
(0.0389409 -9.93567e-06 0)
(0.038941 -1.06813e-05 0)
(0.0389412 -1.13882e-05 0)
(0.0389417 -1.2061e-05 0)
(0.0389424 -1.26567e-05 0)
(0.0389422 -6.02183e-07 0)
(0.0389404 -1.31764e-06 0)
(0.0389403 -2.14221e-06 0)
(0.0389402 -2.97373e-06 0)
(0.0389401 -3.80105e-06 0)
(0.03894 -4.62267e-06 0)
(0.0389398 -5.43087e-06 0)
(0.0389397 -6.22872e-06 0)
(0.0389395 -7.00438e-06 0)
(0.0389394 -7.76535e-06 0)
(0.0389394 -8.49487e-06 0)
(0.0389394 -9.20471e-06 0)
(0.0389396 -9.87625e-06 0)
(0.0389399 -1.05209e-05 0)
(0.0389405 -1.113e-05 0)
(0.0389414 -1.16951e-05 0)
(0.0389404 -5.64571e-07 0)
(0.0389387 -1.21219e-06 0)
(0.0389387 -1.96985e-06 0)
(0.0389386 -2.7326e-06 0)
(0.0389385 -3.48957e-06 0)
(0.0389384 -4.23927e-06 0)
(0.0389383 -4.97371e-06 0)
(0.0389382 -5.6965e-06 0)
(0.0389381 -6.39509e-06 0)
(0.038938 -7.07891e-06 0)
(0.038938 -7.72936e-06 0)
(0.0389382 -8.36374e-06 0)
(0.0389384 -8.9589e-06 0)
(0.0389388 -9.54036e-06 0)
(0.0389395 -1.00872e-05 0)
(0.0389404 -1.0623e-05 0)
(0.0389388 -5.19427e-07 0)
(0.0389372 -1.09578e-06 0)
(0.0389372 -1.77961e-06 0)
(0.0389371 -2.46653e-06 0)
(0.0389371 -3.14615e-06 0)
(0.038937 -3.81694e-06 0)
(0.0389369 -4.47104e-06 0)
(0.0389368 -5.11259e-06 0)
(0.0389368 -5.72898e-06 0)
(0.0389368 -6.33135e-06 0)
(0.0389369 -6.90015e-06 0)
(0.038937 -7.4575e-06 0)
(0.0389374 -7.97687e-06 0)
(0.0389378 -8.4958e-06 0)
(0.0389386 -8.98288e-06 0)
(0.0389395 -9.48978e-06 0)
(0.0389373 -4.69586e-07 0)
(0.0389359 -9.7577e-07 0)
(0.0389359 -1.58355e-06 0)
(0.0389358 -2.1923e-06 0)
(0.0389358 -2.79229e-06 0)
(0.0389357 -3.38187e-06 0)
(0.0389357 -3.95356e-06 0)
(0.0389357 -4.5119e-06 0)
(0.0389357 -5.04467e-06 0)
(0.0389357 -5.56448e-06 0)
(0.0389359 -6.05181e-06 0)
(0.0389361 -6.53262e-06 0)
(0.0389365 -6.97838e-06 0)
(0.038937 -7.43599e-06 0)
(0.0389377 -7.86588e-06 0)
(0.0389387 -8.34306e-06 0)
(0.0389359 -4.18206e-07 0)
(0.0389348 -8.58596e-07 0)
(0.0389348 -1.39222e-06 0)
(0.0389348 -1.92482e-06 0)
(0.0389347 -2.4474e-06 0)
(0.0389347 -2.95816e-06 0)
(0.0389347 -3.45004e-06 0)
(0.0389347 -3.92769e-06 0)
(0.0389348 -4.37944e-06 0)
(0.0389349 -4.81887e-06 0)
(0.0389351 -5.22738e-06 0)
(0.0389353 -5.63372e-06 0)
(0.0389357 -6.00888e-06 0)
(0.0389363 -6.40639e-06 0)
(0.038937 -6.78144e-06 0)
(0.038938 -7.22696e-06 0)
(0.0389348 -3.6804e-07 0)
(0.0389339 -7.4869e-07 0)
(0.0389339 -1.21297e-06 0)
(0.0389339 -1.67462e-06 0)
(0.0389339 -2.12547e-06 0)
(0.0389339 -2.56361e-06 0)
(0.0389339 -2.98243e-06 0)
(0.0389339 -3.38631e-06 0)
(0.038934 -3.76397e-06 0)
(0.0389342 -4.12912e-06 0)
(0.0389344 -4.4645e-06 0)
(0.0389347 -4.80035e-06 0)
(0.0389351 -5.10879e-06 0)
(0.0389357 -5.44725e-06 0)
(0.0389364 -5.7693e-06 0)
(0.0389373 -6.18001e-06 0)
(0.0389339 -3.20982e-07 0)
(0.0389331 -6.48319e-07 0)
(0.0389331 -1.04964e-06 0)
(0.0389331 -1.44739e-06 0)
(0.0389331 -1.8342e-06 0)
(0.0389332 -2.20818e-06 0)
(0.0389332 -2.56331e-06 0)
(0.0389333 -2.90351e-06 0)
(0.0389335 -3.21789e-06 0)
(0.0389337 -3.51921e-06 0)
(0.0389339 -3.79131e-06 0)
(0.0389343 -4.06399e-06 0)
(0.0389347 -4.31172e-06 0)
(0.0389352 -4.59297e-06 0)
(0.0389359 -4.86336e-06 0)
(0.0389368 -5.23426e-06 0)
(0.0389331 -2.77996e-07 0)
(0.0389325 -5.58102e-07 0)
(0.0389325 -9.03365e-07 0)
(0.0389325 -1.24495e-06 0)
(0.0389326 -1.57623e-06 0)
(0.0389327 -1.89534e-06 0)
(0.0389328 -2.19678e-06 0)
(0.0389329 -2.48404e-06 0)
(0.0389331 -2.74728e-06 0)
(0.0389333 -2.99833e-06 0)
(0.0389336 -3.22166e-06 0)
(0.0389339 -3.44401e-06 0)
(0.0389343 -3.64223e-06 0)
(0.0389349 -3.87182e-06 0)
(0.0389355 -4.09262e-06 0)
(0.0389362 -4.4163e-06 0)