/*--------------------------------*- C++ -*----------------------------------*\
| =========                 |                                                 |
| \\      /  F ield         | OpenFOAM: The Open Source CFD Toolbox           |
|  \\    /   O peration     | Version:  4.1                                   |
|   \\  /    A nd           | Web:      www.OpenFOAM.org                      |
|    \\/     M anipulation  |                                                 |
\*---------------------------------------------------------------------------*/
FoamFile
{
    version     2.0;
    format      ascii;
    class       volScalarField;
    location    "0.000020";
    object      epsilon;
}
// * * * * * * * * * * * * * * * * * * * * * * * * * * * * * * * * * * * * * //

dimensions      [0 2 -3 0 0 0 0];

internalField   nonuniform List<scalar> 
3072
(
17.987637
18.752041
19.416686
19.953133
20.348731
20.600981
20.716525
20.704751
20.553331
20.485572
20.508811
20.430844
20.246242
19.955542
19.56009
19.060985
18.461539
17.777324
17.042214
16.329652
15.744932
15.407269
15.371268
15.026931
15.620731
15.980164
16.318673
16.61349
16.851212
17.023173
17.128216
17.176552
17.197564
17.160545
17.240226
17.264158
17.229078
17.134999
16.985879
16.78738
16.544301
16.269253
15.986129
15.740298
15.580575
15.528213
15.517563
15.158231
15.038654
15.269295
15.497887
15.706359
15.882598
16.018286
16.117479
16.184334
16.21252
16.206434
16.318427
16.400074
16.440177
16.43761
16.394355
16.315225
16.200846
16.063048
15.918376
15.79345
15.714193
15.678544
15.597689
15.192375
14.843424
15.021609
15.208369
15.386658
15.543749
15.670807
15.768136
15.835868
15.872323
15.884056
16.013362
16.1305
16.209504
16.251162
16.256788
16.229274
16.169466
16.086839
15.994647
15.909338
15.844757
15.78865
15.653501
15.205413
14.861999
15.01998
15.196609
15.372226
15.530504
15.66045
15.761028
15.829317
15.865651
15.878468
16.006674
16.145451
16.245442
16.307411
16.332651
16.322043
16.278545
16.208138
16.120894
16.029655
15.945163
15.85451
15.681025
15.208761
15.092078
15.267062
15.469614
15.674023
15.855722
16.000588
16.106733
16.171017
16.196043
16.189971
16.29991
16.447578
16.551063
16.609107
16.625021
16.598988
16.534113
16.437273
16.315282
16.180589
16.047063
15.906891
15.696672
15.207261
15.715921
15.987292
16.288321
16.57995
16.826779
17.0092
17.123738
17.174758
17.167998
17.112463
17.182812
17.333951
17.424478
17.451286
17.420301
17.331103
17.18815
17.000138
16.771378
16.517533
16.262111
16.010153
15.722123
15.196061
18.066697
18.759234
19.433044
20.010753
20.452821
20.742508
20.87583
20.861792
20.717388
20.466915
20.393305
20.532619
20.569855
20.49817
20.323466
20.044655
19.664364
19.188903
18.620527
17.978172
17.299625
16.61941
15.947655
15.149297
15.650182
16.002927
16.339165
16.629872
16.858966
17.021895
17.118473
17.152343
17.107184
17.225725
17.302462
17.318608
17.277273
17.178103
17.023676
16.817227
16.561106
16.273951
15.984012
15.731925
15.564521
15.507697
15.501346
15.153404
13.917848
13.908614
13.934947
13.980075
14.033322
14.090907
14.149055
14.200223
14.271731
14.340346
14.424609
14.499674
14.565492
14.621378
14.67307
14.724806
14.778494
14.843631
14.933313
15.060758
15.224033
15.379573
15.413845
15.108805
13.621217
13.529227
13.474781
13.447933
13.442071
13.456523
13.488744
13.53571
13.591687
13.657117
13.746449
13.852012
13.96349
14.080642
14.206802
14.344289
14.493245
14.657763
14.842329
15.047688
15.259395
15.424259
15.428665
15.104487
13.542428
13.427031
13.348735
13.300457
13.27685
13.278392
13.302401
13.341135
13.393539
13.462361
13.556156
13.677779
13.809482
13.951791
14.106625
14.27454
14.455374
14.652162
14.866811
15.091631
15.309174
15.463258
15.443994
15.105249
13.54835
13.421254
13.334285
13.28145
13.256751
13.257924
13.281886
13.321337
13.37578
13.447641
13.544527
13.674999
13.815747
13.967006
14.130494
14.304968
14.491073
14.692015
14.907047
15.126263
15.333334
15.474118
15.446505
15.107039
13.640147
13.514856
13.436059
13.397364
13.388643
13.403799
13.438453
13.486259
13.546216
13.619222
13.719198
13.854126
13.992129
14.134481
14.284886
14.441327
14.60505
14.780761
14.966181
15.156487
15.339029
15.466225
15.443913
15.111022
13.957978
13.885748
13.86889
13.894207
13.943516
14.00283
14.06457
14.126641
14.189869
14.252735
14.364013
14.498605
14.620787
14.730451
14.8335
14.929271
15.021322
15.116368
15.214113
15.316431
15.421629
15.496308
15.460184
15.122758
15.70498
15.981783
16.287138
16.579462
16.827777
17.00838
17.117316
17.159717
17.147508
17.090652
17.198115
17.339502
17.420881
17.440763
17.405315
17.314162
17.171134
16.983896
16.757323
16.505902
16.251083
15.999414
15.71278
15.191151
15.079489
15.302095
15.529853
15.73664
15.907771
16.037277
16.123583
16.169501
16.173451
16.299825
16.412186
16.482138
16.51244
16.498126
16.439031
16.34176
16.209467
16.056848
15.900921
15.765397
15.677326
15.639644
15.568528
15.184327
13.634276
13.539907
13.485456
13.459251
13.454259
13.469408
13.502365
13.547729
13.606969
13.694729
13.791669
13.896316
14.007513
14.121628
14.243269
14.374392
14.513813
14.668235
14.843512
15.041454
15.249952
15.413481
15.421136
15.102247
13.397782
13.236812
13.112629
13.019895
12.956619
12.925538
12.9257
12.950749
13.003095
13.078567
13.178538
13.301444
13.44492
13.608498
13.793914
13.999753
14.223775
14.46662
14.726986
14.996973
15.252594
15.431562
15.420289
15.092313
13.329339
13.152767
13.010237
12.898714
12.81843
12.771965
12.758769
12.775825
12.820777
12.894384
12.996715
13.12867
13.285798
13.468857
13.678248
13.910975
14.163965
14.436339
14.724072
15.016351
15.284376
15.459696
15.430669
15.091402
13.332561
13.150128
13.002636
12.888109
12.806558
12.759015
12.744592
12.759715
12.803374
12.876104
12.977999
13.111523
13.271629
13.459224
13.674127
13.912275
14.170438
14.448066
14.739485
15.031569
15.295622
15.464886
15.432669
15.09352
13.405089
13.22725
13.089255
12.988957
12.923024
12.889607
12.886934
12.911399
12.96105
13.035595
13.136694
13.268006
13.421517
13.597581
13.797185
14.016526
14.253026
14.507996
14.775366
15.042609
15.286642
15.448562
15.427492
15.097451
13.645028
13.515618
13.43569
13.396744
13.388925
13.403
13.433613
13.479508
13.539769
13.612149
13.71478
13.842907
13.975275
14.115021
14.265897
14.424621
14.591445
14.770897
14.960008
15.152683
15.335701
15.462734
15.440591
15.109658
15.09042
15.267386
15.473109
15.678134
15.861524
16.005115
16.10368
16.160063
16.182744
16.178364
16.317764
16.452827
16.5434
16.591394
16.602846
16.574678
16.508846
16.414141
16.295432
16.162949
16.029586
15.889462
15.681706
15.201416
14.889469
15.061969
15.249862
15.428097
15.58238
15.703973
15.79019
15.843481
15.868891
15.979205
16.115773
16.210925
16.271262
16.295063
16.2806
16.231998
16.154751
16.060797
15.958812
15.861435
15.78613
15.729699
15.612095
15.193589
13.563446
13.444591
13.366067
13.318738
13.296868
13.298578
13.322802
13.365037
13.417984
13.509883
13.617553
13.737197
13.867832
14.006201
14.154352
14.31161
14.477259
14.658064
14.856207
15.068627
15.280312
15.434809
15.425328
15.100678
13.337636
13.159219
13.016132
12.904954
12.825338
12.779002
12.766368
12.784168
12.830466
12.908152
13.013749
13.146015
13.304277
13.487224
13.694457
13.922114
14.16756
14.432083
14.7127
14.998491
15.262668
15.440678
15.420526
15.089943
13.257088
13.064175
12.904068
12.774782
12.678185
12.615902
12.588577
12.5956
12.637027
12.710781
12.817593
12.956286
13.126308
13.327586
13.558687
13.814122
14.089753
14.38512
14.695284
15.006352
15.287049
15.467145
15.432928
15.089107
13.260139
13.063776
12.900574
12.769123
12.670751
12.607265
12.579596
12.585716
12.62363
12.69405
12.797725
12.934618
13.104478
13.307548
13.542229
13.802726
14.084386
14.386746
14.702803
15.016794
15.297615
15.475216
15.437403
15.090508
13.342767
13.154789
13.003619
12.887978
12.806342
12.758408
12.743923
12.759442
12.802105
12.872847
12.972746
13.102455
13.262087
13.451002
13.668328
13.907988
14.166047
14.444575
14.73645
15.027003
15.290319
15.460492
15.430698
15.093283
13.56354
13.427346
13.336037
13.282498
13.25973
13.261174
13.282767
13.322422
13.378063
13.448772
13.542629
13.66914
13.804049
13.953146
14.117973
14.293264
14.479554
14.681888
14.897093
15.116846
15.323356
15.463999
15.438603
15.104212
14.870975
15.025524
15.202382
15.378615
15.538416
15.66847
15.763557
15.826672
15.863228
15.878826
16.025949
16.152036
16.239286
16.290469
16.310381
16.295071
16.247254
16.177187
16.091873
16.001837
15.917503
15.827908
15.660059
15.201024
14.904571
15.06228
15.242969
15.420514
15.578489
15.703939
15.792945
15.844889
15.867249
15.94924
16.106823
16.221501
16.299499
16.341139
16.345076
16.313104
16.252114
16.170203
16.072007
15.967486
15.871294
15.782071
15.630804
15.194306
13.572179
13.441875
13.355561
13.304155
13.281618
13.28322
13.307176
13.349718
13.406328
13.495169
13.61453
13.745456
13.88661
14.034705
14.189184
14.347657
14.51148
14.687852
14.878778
15.080807
15.279126
15.424618
15.416556
15.099835
13.34314
13.158851
13.01143
12.897699
12.817223
12.770093
12.756705
12.774437
12.819768
12.900111
13.010687
13.14931
13.314705
13.503527
13.712982
13.938472
14.178761
14.436732
14.710172
14.988957
15.247592
15.423777
15.410418
15.08924
13.263391
13.067128
12.904867
12.773907
12.675338
12.611172
12.584031
12.59187
12.633132
12.708636
12.818166
12.960966
13.13592
13.340895
13.572766
13.825032
14.094879
14.383605
14.686776
14.99177
15.26933
15.450892
15.423975
15.088629
13.260724
13.064619
12.902247
12.771124
12.67161
12.606749
12.579542
12.58599
12.623356
12.693727
12.798742
12.937867
13.110042
13.314307
13.548195
13.804742
14.08131
14.378476
14.688965
14.999277
15.280009
15.461733
15.43043
15.088839
13.337588
13.153125
13.005315
12.892306
12.812105
12.765052
12.751281
12.766361
12.807114
12.875837
12.97482
13.103122
13.26181
13.44913
13.663451
13.898222
14.15226
14.426938
14.715461
15.005975
15.273001
15.449569
15.424695
15.089966
13.554081
13.428031
13.343943
13.295299
13.274709
13.276774
13.298542
13.337376
13.390283
13.457146
13.544744
13.665742
13.795466
13.939261
14.097224
14.264611
14.444035
14.640887
14.85429
15.078137
15.293899
15.446406
15.429851
15.099901
14.855794
15.025326
15.209547
15.388388
15.547502
15.675345
15.768932
15.832544
15.869363
15.884299
16.021751
16.132294
16.205202
16.241054
16.243017
16.207496
16.141105
16.055262
15.961878
15.876331
15.811476
15.756466
15.627941
15.195894
15.119852
15.301125
15.511891
15.720094
15.903362
16.043097
16.135998
16.180676
16.186285
16.211919
16.38804
16.518421
16.604666
16.647875
16.647357
16.604355
16.525302
16.41601
16.280511
16.129911
15.980499
15.83724
15.646064
15.191956
13.655935
13.530824
13.45512
13.418359
13.411688
13.426424
13.459256
13.50677
13.566246
13.653361
13.782735
13.919215
14.060568
14.203597
14.345898
14.485023
14.62502
14.773505
14.933818
15.105332
15.277573
15.408983
15.40733
15.100981
13.408807
13.231515
13.095672
12.996927
12.932641
12.899926
12.89809
12.923926
12.974664
13.057001
13.170259
13.309035
13.469922
13.648671
13.841346
14.044352
14.259231
14.489486
14.734514
14.987622
15.227688
15.398189
15.397718
15.089668
13.339326
13.152892
13.004438
12.890496
12.809727
12.761755
12.74737
12.763248
12.809312
12.887729
12.997316
13.137543
13.304775
13.496185
13.707866
13.934558
14.176195
14.434752
14.707661
14.985851
15.24459
15.421162
15.408298
15.088363
13.332926
13.149479
13.003447
12.891585
12.811622
12.763957
12.749297
12.763364
12.806034
12.878275
12.982283
13.117283
13.279775
13.468598
13.680431
13.910022
14.157319
14.423775
14.705426
14.99027
15.254096
15.432922
15.415181
15.088211
13.394259
13.22446
13.095016
13.002196
12.941251
12.910755
12.909871
12.933699
12.979128
13.048228
13.145417
13.268867
13.416319
13.58689
13.778071
13.985727
14.211593
14.457682
14.720471
14.989376
15.243092
15.420253
15.409836
15.088167
13.621286
13.518323
13.458423
13.432599
13.431073
13.447878
13.480009
13.523678
13.576207
13.63939
13.724971
13.834105
13.948148
14.070155
14.200457
14.33704
14.484837
14.650252
14.835687
15.039626
15.247248
15.406169
15.408776
15.095625
15.047351
15.266238
15.490416
15.699668
15.879465
16.018581
16.115193
16.173796
16.200099
16.198741
16.311462
16.396695
16.439005
16.435769
16.390756
16.302681
16.180272
16.037308
15.890781
15.76616
15.685917
15.648498
15.570536
15.181502
15.719447
16.003299
16.317864
16.615518
16.864631
17.042605
17.146777
17.17961
17.149866
17.077556
17.272781
17.414143
17.49332
17.513061
17.47377
17.376036
17.224466
17.023768
16.779201
16.504921
16.224609
15.957991
15.67863
15.18071
13.96078
13.893057
13.882048
13.909782
13.959789
14.018822
14.080533
14.140694
14.199392
14.275916
14.41816
14.560356
14.69124
14.808324
14.909366
14.992805
15.064144
15.13235
15.20366
15.28303
15.37085
15.442179
15.421446
15.11107
13.639819
13.512559
13.436271
13.399069
13.39175
13.40697
13.440249
13.486001
13.544322
13.622827
13.738859
13.878475
14.024947
14.174292
14.323112
14.469356
14.616913
14.771362
14.935801
15.109708
15.28237
15.412186
15.40724
15.1
13.552657
13.417457
13.32901
13.277103
13.254683
13.25715
13.280792
13.320042
13.375804
13.452061
13.560266
13.696734
13.845198
14.002763
14.166097
14.332572
14.504983
14.687434
14.881605
15.084778
15.282404
15.425706
15.414093
15.097691
13.542645
13.416321
13.333774
13.285997
13.265642
13.268882
13.291963
13.32999
13.38282
13.452603
13.5529
13.679448
13.81838
13.968559
14.127129
14.292098
14.467019
14.656079
14.859314
15.072242
15.280942
15.43209
15.419086
15.097016
13.61404
13.509391
13.449134
13.422967
13.421729
13.440145
13.4737
13.517795
13.571152
13.63414
13.727793
13.839282
13.957835
14.083611
14.215603
14.35338
14.502236
14.667455
14.850283
15.04865
15.25177
15.40782
15.408907
15.095582
13.903608
13.882636
13.903062
13.9491
14.007621
14.069985
14.130714
14.186602
14.237106
14.286116
14.374555
14.45788
14.531726
14.596443
14.65527
14.710531
14.76957
14.84235
14.938531
15.066396
15.223125
15.367524
15.393158
15.097882
15.624291
15.96995
16.301439
16.595046
16.835507
17.012052
17.123
17.173503
17.16657
17.126983
17.203388
17.237023
17.210603
17.120795
16.97288
16.771352
16.523946
16.248172
15.968912
15.728002
15.568122
15.51039
15.496337
15.148378
18.044328
18.753991
19.448305
20.036767
20.48385
20.772935
20.899252
20.869669
20.70136
20.39953
20.476813
20.615359
20.647673
20.577231
20.405319
20.132369
19.757814
19.27971
18.700582
18.0364
17.322204
16.609197
15.926515
15.140405
15.692849
15.977105
16.292454
16.590553
16.840015
17.023456
17.135211
17.175113
17.153765
17.095442
17.227977
17.378174
17.467743
17.498163
17.468036
17.376455
17.227419
17.028032
16.786361
16.514654
16.234941
15.966375
15.681816
15.181594
15.076351
15.25545
15.46592
15.673688
15.857529
16.005606
16.110463
16.164879
16.181817
16.173609
16.314652
16.45926
16.561353
16.621053
16.635013
16.602935
16.530891
16.425873
16.295098
16.147893
15.998506
15.850614
15.649872
15.190756
14.85377
15.007158
15.185725
15.362625
15.523231
15.658441
15.760047
15.823024
15.857334
15.868646
16.013498
16.146617
16.244442
16.305517
16.326243
16.308077
16.258663
16.184677
16.09211
15.990505
15.89315
15.797261
15.634035
15.192399
14.838775
15.004516
15.188298
15.366495
15.526819
15.660439
15.759913
15.825776
15.863197
15.874469
16.012056
16.126838
16.2068
16.250081
16.252227
16.218554
16.158264
16.078802
15.986236
15.892199
15.813844
15.747165
15.614575
15.191114
15.033952
15.246898
15.468194
15.675366
15.856262
16.000711
16.102135
16.164136
16.193083
16.190139
16.310296
16.398209
16.444274
16.446278
16.401638
16.31863
16.207096
16.074558
15.933425
15.802905
15.709388
15.657304
15.568664
15.180566
15.617175
15.958223
16.2868
16.578397
16.819254
16.998168
17.11092
17.163664
17.159905
17.114043
17.200945
17.235896
17.211468
17.125186
16.981569
16.786489
16.549384
16.281746
16.009068
15.764805
15.593088
15.521813
15.498868
15.148704
17.979059
18.730078
19.3842
19.918441
20.322938
20.590288
20.722448
20.73185
20.629326
20.397345
20.413146
20.352949
20.185777
19.905762
19.516312
19.020757
18.426517
17.753577
17.036696
16.339209
15.760286
15.416792
15.370685
15.025034
16.55949
16.684241
17.912726
21.296577
24.476898
27.229112
29.538658
31.425578
32.933173
34.107061
34.987153
35.604758
35.982308
36.132927
36.062394
36.222437
36.622827
36.797086
36.730623
36.410591
35.815908
34.912899
33.666396
32.035325
15.747175
16.030692
17.60411
20.190634
22.588062
24.681694
26.436141
27.842021
28.948945
29.795347
30.412233
30.822425
31.044005
31.089643
30.966453
31.077489
31.363571
31.470643
31.39077
31.114485
30.62548
29.898304
28.904842
27.613519
15.653929
16.006611
17.999324
20.108975
22.02599
23.687275
25.074972
26.19393
27.071932
27.710776
28.157753
28.428956
28.540306
28.504517
28.323256
28.400705
28.640631
28.726942
28.652885
28.410909
27.987815
27.362829
26.511984
25.408945
15.621084
16.616857
18.561594
20.432667
22.096515
23.518324
24.696247
25.64183
26.372469
26.895349
27.245569
27.440485
27.489265
27.389668
27.153665
27.275713
27.503099
27.584391
27.512766
27.281627
26.879483
26.288391
25.487732
24.453303
15.778327
17.344712
19.310216
21.114923
22.685212
24.008293
25.090472
25.947181
26.599707
27.067698
27.368503
27.51749
27.520675
27.377285
27.099116
27.36353
27.61713
27.710464
27.633069
27.387608
26.963072
26.343658
25.511252
24.44131
16.152224
18.204291
20.343465
22.238195
23.857812
25.208304
26.302241
27.159496
27.805606
28.260732
28.541528
28.66367
28.635106
28.461962
28.162818
28.649223
28.961687
29.08421
29.004693
28.729022
28.241835
27.525919
26.571801
25.352369
16.652446
19.351739
21.865475
24.036435
25.871578
27.393638
28.620663
29.578522
30.299566
30.806754
31.117775
31.248161
31.204554
30.996915
30.849646
31.46551
31.862327
32.031436
31.96266
31.643145
31.048271
30.155895
28.964005
27.441515
17.896432
21.425372
24.551956
27.24263
29.519115
31.412426
32.94194
34.141409
35.052259
35.700956
36.107292
36.287106
36.246498
36.001808
36.007829
36.847954
37.391938
37.630704
37.552476
37.142223
36.379692
35.234436
33.661266
31.635064
188.11045
160.59509
150.94686
145.38217
141.58104
138.6631
136.27319
134.25696
132.55171
131.11705
129.93819
129.00229
128.30029
127.82583
127.57523
127.55569
127.78053
128.26543
129.03352
130.11038
131.51982
133.29125
135.47282
138.13682
165.69679
144.28275
136.15253
131.23705
127.76797
125.05739
122.81807
120.9209
119.31386
117.96637
116.86609
115.99258
115.33675
114.89277
114.66108
114.65095
114.87457
115.34368
116.07544
117.09276
118.41947
120.08071
122.11626
124.58997
152.00792
134.32918
127.19439
122.68441
119.40234
116.79195
114.61416
112.75871
111.17389
109.83803
108.73901
107.86634
107.21397
106.76878
106.5336
106.51677
106.73039
107.1854
107.89328
108.87516
110.15635
111.76043
113.72394
116.10623
145.10085
129.55243
123.04438
118.78475
115.60766
113.04228
110.8824
109.03214
107.44505
106.09475
104.96546
104.05653
103.366
102.88718
102.62965
102.59252
102.7862
103.21837
103.90013
104.85223
106.09959
107.66793
109.59494
111.93882
144.05414
129.42715
123.21849
119.06269
115.91019
113.33613
111.15141
109.26877
107.64814
106.26154
105.09168
104.13498
103.38731
102.85159
102.54289
102.46103
102.62499
103.02892
103.68326
104.60822
105.83219
107.38511
109.30825
111.66295
148.76839
133.95733
127.71996
123.51761
120.30513
117.66573
115.41311
113.46251
111.77454
110.32291
109.09123
108.07388
107.26703
106.67231
106.30091
106.16184
106.27376
106.63039
107.25311
108.15364
109.36456
110.91965
112.86968
115.28468
159.96216
143.66214
137.03044
132.61378
129.24855
126.4855
124.121
122.06383
120.27661
118.73142
117.41152
116.31264
115.42755
114.76262
114.33549
114.14468
114.1918
114.49264
115.07235
115.94536
117.15221
118.72573
120.7304
123.2524
179.28094
159.67295
152.14718
147.25758
143.57941
140.57635
138.00832
135.77004
133.8176
132.12191
130.66726
129.4464
128.45272
127.69843
127.19958
126.9463
126.94036
127.20879
127.76934
128.64375
129.87535
131.50779
133.62138
136.32935
17.907179
21.426913
24.54886
27.237653
29.513405
31.404195
32.931923
34.132369
35.044361
35.697091
36.113424
36.307403
36.285808
36.060421
36.021143
36.865151
37.411603
37.653054
37.578754
37.171191
36.407776
35.24595
33.65921
31.635277
16.644115
19.341023
21.847176
24.014367
25.848835
27.369589
28.596543
29.557243
30.282516
30.79606
31.116839
31.260295
31.234202
31.046787
30.88173
31.508165
31.911797
32.085411
32.022315
31.708013
31.097113
30.197669
28.994996
27.46257
16.146683
18.187714
20.318201
22.207001
23.824021
25.172579
26.266177
27.126355
27.777788
28.240295
28.532721
28.671016
28.661741
28.510646
28.217089
28.688576
29.011887
29.140533
29.066368
28.793761
28.298039
27.575579
26.612149
25.382588
15.771905
17.326373
19.282267
21.078271
22.642562
23.961987
25.043147
25.903077
26.56203
27.037683
27.349294
27.513509
27.536437
27.423599
27.162023
27.403954
27.664291
27.761114
27.68664
27.441216
27.012756
26.387603
25.549961
24.47596
15.616357
16.601682
18.535793
20.395038
22.048697
23.463814
24.638891
25.58709
26.326453
26.87129
27.231337
27.436788
27.494328
27.415156
27.187997
27.312049
27.541106
27.6227
27.551546
27.318605
26.912173
26.316947
25.515794
24.484251
15.650027
15.994856
17.98115
20.077553
21.98057
23.630501
25.016974
26.139135
27.02539
27.691187
28.142521
28.418334
28.530606
28.492922
28.314533
28.426324
28.664597
28.748572
28.67282
28.42733
27.999311
27.371386
26.523978
25.429708
15.746431
16.028221
17.604128
20.176436
22.550836
24.621455
26.371523
27.781761
28.900801
29.755588
30.376906
30.788571
31.000709
31.034514
30.908778
31.092619
31.374232
31.47667
31.393254
31.112578
30.619034
29.891424
28.904986
27.624977
16.562348
16.691809
17.933421
21.30441
24.46192
27.198152
29.500326
31.394384
32.912857
34.091008
34.968616
35.575904
35.93304
36.06462
35.989018
36.277064
36.664718
36.823833
36.745411
36.413784
35.808732
34.903623
33.664339
32.043687
179.27364
159.65454
152.12152
147.23284
143.56102
140.56373
138.0011
135.76793
133.81991
132.1294
130.68051
129.46622
128.48266
127.74012
127.24741
126.99215
126.98103
127.24789
127.81234
128.69447
129.92638
131.55638
133.66577
136.3661
159.9435
143.62062
136.97426
132.55985
129.20795
126.45705
124.10415
122.05959
120.2828
118.74899
117.444
116.362
115.50095
114.86439
114.45261
114.25808
114.29228
114.59009
115.18031
116.06439
117.26751
118.83436
120.82869
123.33264
148.74763
133.90777
127.65468
123.45309
120.25152
117.62449
115.3865
113.45117
111.77628
110.34039
109.12978
108.13805
107.36391
106.80263
106.44884
106.30561
106.40364
106.75729
107.38971
108.29431
109.49716
111.04479
112.98693
115.38514
144.03224
129.38162
123.16042
119.00114
115.85209
113.28683
111.11535
109.24806
107.64105
106.26937
105.12187
104.19324
103.47385
102.95907
102.6648
102.58211
102.73796
103.14072
103.79985
104.72462
105.94336
107.49271
109.4135
111.75965
145.0852
129.52004
123.00198
118.73424
115.5521
112.98804
110.83719
109.00077
107.42653
106.08882
104.9759
104.08089
103.40351
102.93138
102.68491
102.65346
102.84554
103.27896
103.96573
104.91973
106.16723
107.73756
109.66865
112.0139
152.00198
134.31757
127.1774
122.65511
119.35801
116.74038
114.56472
112.7191
111.14633
109.81373
108.71914
107.84532
107.18781
106.73809
106.51025
106.50428
106.72363
107.18205
107.89583
108.8867
110.17623
111.78662
113.76027
116.15499
165.71231
144.31241
136.18079
131.24807
127.75458
125.02431
122.77739
120.88561
119.28715
117.93743
116.83048
115.94244
115.2633
114.80151
114.57182
114.57428
114.80928
115.28871
116.03198
117.06409
118.40441
120.07492
122.12472
124.61868
188.16216
160.68995
151.04501
145.45511
141.6173
138.66804
136.26493
134.24985
132.5493
131.11247
129.91773
128.95424
128.2152
127.70779
127.4464
127.4336
127.67273
128.17667
128.96367
130.05862
131.48238
133.26335
135.46174
138.15237
16.564387
16.697955
17.968424
21.338417
24.482515
27.233299
29.541031
31.420923
32.927527
34.101063
34.975015
35.575746
35.929376
36.060555
35.986666
36.272143
36.662302
36.821333
36.738243
36.40222
35.795272
34.889812
33.653075
32.036778
15.749896
16.039338
17.654246
20.237474
22.611306
24.672737
26.403643
27.820156
28.919843
29.762452
30.376071
30.781462
30.994301
31.029699
30.903477
31.080484
31.36128
31.461917
31.374192
31.090599
30.596593
29.870927
28.88928
27.615323
15.653463
16.008127
18.032904
20.144959
22.053122
23.693402
25.05667
26.160664
27.024307
27.685009
28.15167
28.416106
28.51902
28.481945
28.30054
28.410199
28.645336
28.725355
28.64339
28.39365
27.964583
27.339077
26.497878
25.411831
15.618293
16.626597
18.579799
20.455886
22.117736
23.525585
24.678481
25.598313
26.317172
26.857543
27.224481
27.416167
27.464254
27.382471
27.161349
27.293375
27.517151
27.592681
27.513283
27.275002
26.867282
26.27482
25.480087
24.45754
15.778438
17.345234
19.315917
21.128654
22.702739
24.017525
25.080999
25.919147
26.563041
27.032261
27.335684
27.48507
27.496455
27.378895
27.113902
27.37414
27.630153
27.726411
27.641953
27.390491
26.961228
26.338992
25.506974
24.441027
16.151471
18.200778
20.345307
22.253486
23.883964
25.231881
26.313876
27.160018
27.800416
28.25543
28.537855
28.662023
28.64139
28.479648
28.158526
28.647593
28.97
29.102761
29.018515
28.739729
28.246827
27.525596
26.564725
25.339681
16.654072
19.353529
21.878145
24.072899
25.928745
27.45479
28.675537
29.626338
30.341379
30.845207
31.155791
31.289459
31.256064
31.055326
30.841667
31.470541
31.877345
32.048969
31.979285
31.659539
31.05501
30.153219
28.94522
27.407943
17.903764
21.443928
24.592809
27.321174
29.629269
31.531334
33.055856
34.243993
35.140844
35.78073
36.187238
36.374465
36.348584
36.111353
35.994758
36.858077
37.412341
37.653435
37.572676
37.158129
36.386716
35.226197
33.621933
31.574883
188.18887
160.74046
151.1038
145.51313
141.67299
138.71946
136.30615
134.27539
132.56112
131.11799
129.92126
128.95638
128.21679
127.70995
127.44679
127.43264
127.67375
128.18067
128.96836
130.05933
131.47642
133.25269
135.45065
138.14371
165.76641
144.42122
136.31012
131.38167
127.88782
125.14596
122.87288
120.94397
119.31557
117.95245
116.83747
115.94141
115.25963
114.79903
114.56868
114.56988
114.80687
115.29206
116.03644
117.05765
118.3822
120.04304
122.09275
124.59253
152.06403
134.44725
127.33663
122.82841
119.53745
116.90393
114.69
112.79488
111.18168
109.82902
108.72136
107.82917
107.1609
106.71189
106.4864
106.48062
106.70253
107.16264
107.8701
108.848
110.12294
111.72431
113.70038
116.10573
145.14156
129.64046
123.15582
118.91005
115.73796
113.15872
110.96455
109.07442
107.46196
106.10124
104.96543
104.04356
103.34692
102.86887
102.62242
102.59151
102.78607
103.21258
103.88412
104.82859
106.07178
107.64015
109.57846
111.93987
144.07624
129.47665
123.28725
119.15322
116.01589
113.43662
111.22884
109.31843
107.67672
106.28059
105.10836
104.15039
103.40617
102.87633
102.57267
102.48374
102.63674
103.0244
103.66259
104.58341
105.80943
107.36481
109.29683
111.66286
148.77175
133.96642
127.74167
123.56689
120.3795
117.74609
115.48361
113.5172
111.81597
110.35762
109.12626
108.11771
107.32684
106.74502
106.36795
106.2067
106.29511
106.62671
107.23204
108.13107
109.34642
110.90425
112.8575
115.27401
159.94719
143.63251
137.00668
132.62213
129.28778
126.53495
124.16895
122.10541
120.30849
118.76101
117.45303
116.37568
115.51759
114.86801
114.42435
114.20553
114.23195
114.50839
115.06872
115.93551
117.13951
118.7087
120.70709
123.21811
179.24959
159.61286
152.08758
147.22999
143.57973
140.58349
138.01606
135.77378
133.8141
132.12507
130.69653
129.51083
128.55166
127.81126
127.29399
127.0201
127.00686
127.25912
127.79431
128.64842
129.86219
131.47657
133.57279
136.25838
17.915293
21.448576
24.596764
27.327797
29.640655
31.550789
33.087175
34.285235
35.185937
35.828621
36.239531
36.430554
36.408046
36.173902
36.009581
36.872916
37.432557
37.678819
37.601309
37.186259
36.409845
35.23957
33.630761
31.578755
16.653214
19.363088
21.888509
24.085609
25.946948
27.482106
28.713593
29.670923
30.389024
30.899253
31.220982
31.365274
31.340196
31.148319
30.877719
31.523576
31.935884
32.112443
32.043829
31.718273
31.098645
30.185695
28.967207
27.417737
16.15599
18.20951
20.353286
22.262286
23.898472
25.256984
26.35186
27.207829
27.855314
28.320133
28.61763
28.759361
28.755777
28.61013
28.328354
28.715391
29.044075
29.179965
29.09828
28.814964
28.310142
27.577013
26.603184
25.363387
15.781277
17.349459
19.316559
21.127689
22.706919
24.033158
25.11191
25.965263
26.621687
27.102803
27.42194
27.592883
27.629026
27.533417
27.296297
27.446351
27.710391
27.809611
27.726961
27.472316
27.03522
26.402569
25.557502
24.476215
15.616982
16.625044
18.569823
20.441411
22.107956
23.528701
24.700386
25.641645
26.378237
26.930518
27.314021
27.530765
27.604077
27.545386
27.344271
27.364364
27.596395
27.674964
27.597069
27.357467
26.944861
26.343726
25.535909
24.497705
15.651368
15.998483
18.01156
20.118908
22.034172
23.690815
25.075631
26.203392
27.093434
27.765122
28.246945
28.535982
28.662048
28.643588
28.482192
28.477003
28.719063
28.800988
28.720719
28.4714
28.039111
27.405914
26.551612
25.448391
15.747062
16.027963
17.627573
20.210927
22.598701
24.682466
26.438269
27.87564
29.011137
29.864632
30.487907
30.906862
31.141326
31.202893
31.090755
31.138227
31.421928
31.523661
31.439128
31.157597
30.66159
29.928804
28.93339
27.640181
16.559122
16.68314
17.937902
21.313377
24.477577
27.251415
29.589706
31.482474
32.995253
34.173234
35.057592
35.681114
36.067516
36.229219
36.171178
36.296678
36.699658
36.864869
36.787719
36.457
35.849762
34.93751
33.685609
32.047324
179.24456
159.60448
152.08017
147.22441
143.57583
140.58334
138.02321
135.79073
133.84027
132.15759
130.73177
129.54465
128.58423
127.84744
127.33898
127.07594
127.07037
127.32605
127.85972
128.70681
129.90674
131.50756
133.58912
136.25813
159.93467
143.61485
136.99113
132.60948
129.27764
126.53433
124.18965
122.1504
120.37252
118.84101
117.54489
116.4705
115.6124
114.97082
114.54955
114.35543
114.39375
114.6761
115.23342
116.08075
117.2512
118.78561
120.74953
123.22457
148.75486
133.93581
127.71053
123.53867
120.35538
117.73761
115.50717
113.5769
111.90392
110.46676
109.25367
108.26011
107.48347
106.9202
106.56938
106.43027
106.52272
106.85352
107.45168