/*--------------------------------*- C++ -*----------------------------------*\
| =========                 |                                                 |
| \\      /  F ield         | foam-extend: Open Source CFD                    |
|  \\    /   O peration     | Version:     4.1-20200408                       |
|   \\  /    A nd           | Web:         http://www.foam-extend.org         |
|    \\/     M anipulation  |                                                 |
\*---------------------------------------------------------------------------*/
FoamFile
{
    version     2.0;
    format      ascii;
    class       volVectorField;
    location    "0.0625000";
    object      DU;
}
// * * * * * * * * * * * * * * * * * * * * * * * * * * * * * * * * * * * * * //

dimensions      [0 1 0 0 0 0 0];

internalField   nonuniform List<vector> 
1952
(
(4.99996e-05 -9.87073e-10 0)
(4.99997e-05 -1.52915e-09 0)
(4.99997e-05 -2.2567e-09 0)
(4.99997e-05 -2.7509e-09 0)
(4.99998e-05 -3.53523e-09 0)
(4.99999e-05 -4.00443e-09 0)
(5e-05 -4.80631e-09 0)
(5.00001e-05 -5.25151e-09 0)
(5.00003e-05 -6.01986e-09 0)
(5.00006e-05 -6.40829e-09 0)
(5.0001e-05 -7.05931e-09 0)
(5.00015e-05 -7.30933e-09 0)
(5.00024e-05 -7.69196e-09 0)
(5.00041e-05 -7.64289e-09 0)
(5.00074e-05 -7.42202e-09 0)
(4.99996e-05 -4.13798e-10 0)
(4.99995e-05 -5.40294e-10 0)
(4.99996e-05 -8.50263e-10 0)
(4.99996e-05 -1.21412e-09 0)
(4.99997e-05 -1.49424e-09 0)
(4.99999e-05 -1.85569e-09 0)
(5e-05 -2.09669e-09 0)
(5.00002e-05 -2.43123e-09 0)
(5.00004e-05 -2.61047e-09 0)
(5.00007e-05 -2.88433e-09 0)
(5.00011e-05 -2.97765e-09 0)
(5.00016e-05 -3.15445e-09 0)
(5.00022e-05 -3.12419e-09 0)
(5.0003e-05 -3.15948e-09 0)
(5.00039e-05 -2.99776e-09 0)
(5.00052e-05 -2.98522e-09 0)
(4.99995e-05 -2.2867e-10 0)
(4.99996e-05 -3.96212e-10 0)
(4.99996e-05 -6.36195e-10 0)
(4.99997e-05 -8.80115e-10 0)
(4.99998e-05 -1.09742e-09 0)
(5e-05 -1.32024e-09 0)
(5.00001e-05 -1.49329e-09 0)
(5.00003e-05 -1.67492e-09 0)
(5.00005e-05 -1.77574e-09 0)
(5.00009e-05 -1.89182e-09 0)
(5.00013e-05 -1.9039e-09 0)
(5.00019e-05 -1.93942e-09 0)
(5.00024e-05 -1.85385e-09 0)
(5.00033e-05 -1.80907e-09 0)
(5.00042e-05 -1.6615e-09 0)
(5.00054e-05 -1.62561e-09 0)
(4.99996e-05 -1.69569e-10 0)
(4.99998e-05 -2.64648e-10 0)
(4.99998e-05 -4.24374e-10 0)
(4.99999e-05 -5.77918e-10 0)
(5e-05 -7.15156e-10 0)
(5.00002e-05 -8.40921e-10 0)
(5.00003e-05 -9.33117e-10 0)
(5.00006e-05 -1.01455e-09 0)
(5.00008e-05 -1.03986e-09 0)
(5.00013e-05 -1.06179e-09 0)
(5.00016e-05 -1.01044e-09 0)
(5.00022e-05 -9.70299e-10 0)
(5.00028e-05 -8.50189e-10 0)
(5.00035e-05 -7.75162e-10 0)
(5.00043e-05 -6.44709e-10 0)
(5.00052e-05 -6.5168e-10 0)
(4.99998e-05 -1.13517e-10 0)
(5.00001e-05 -1.50146e-10 0)
(5.00001e-05 -2.38693e-10 0)
(5.00002e-05 -3.17963e-10 0)
(5.00003e-05 -3.84443e-10 0)
(5.00005e-05 -4.3532e-10 0)
(5.00007e-05 -4.60149e-10 0)
(5.0001e-05 -4.70533e-10 0)
(5.00012e-05 -4.38563e-10 0)
(5.00017e-05 -4.01717e-10 0)
(5.0002e-05 -3.1257e-10 0)
(5.00026e-05 -2.37391e-10 0)
(5.00031e-05 -1.11836e-10 0)
(5.00038e-05 -3.48632e-11 0)
(5.00044e-05 6.96241e-11 0)
(5.00051e-05 6.65363e-11 0)
(5.00001e-05 -6.46163e-11 0)
(5.00005e-05 -5.40835e-11 0)
(5.00005e-05 -8.28009e-11 0)
(5.00007e-05 -1.02214e-10 0)
(5.00007e-05 -1.10108e-10 0)
(5.0001e-05 -1.04143e-10 0)
(5.00011e-05 -7.58763e-11 0)
(5.00014e-05 -3.67348e-11 0)
(5.00017e-05 3.63685e-11 0)
(5.00021e-05 1.09337e-10 0)
(5.00024e-05 2.21406e-10 0)
(5.0003e-05 3.13826e-10 0)
(5.00034e-05 4.39131e-10 0)
(5.0004e-05 5.13401e-10 0)
(5.00045e-05 6.00605e-10 0)
(5.00051e-05 5.93576e-10 0)
(5.00004e-05 -2.3475e-11 0)
(5.00009e-05 2.35246e-11 0)
(5.0001e-05 4.28616e-11 0)
(5.00011e-05 7.04411e-11 0)
(5.00012e-05 1.08345e-10 0)
(5.00014e-05 1.56487e-10 0)
(5.00016e-05 2.2394e-10 0)
(5.00019e-05 2.96486e-10 0)
(5.00021e-05 3.96996e-10 0)
(5.00026e-05 4.90383e-10 0)
(5.00029e-05 6.13802e-10 0)
(5.00034e-05 7.11556e-10 0)
(5.00038e-05 8.31569e-10 0)
(5.00043e-05 9.01155e-10 0)
(5.00047e-05 9.77331e-10 0)
(5.00052e-05 9.77336e-10 0)
(5.00009e-05 9.80141e-12 0)
(5.00014e-05 8.32604e-11 0)
(5.00015e-05 1.39309e-10 0)
(5.00016e-05 2.02178e-10 0)
(5.00017e-05 2.74096e-10 0)
(5.0002e-05 3.52245e-10 0)
(5.00021e-05 4.47276e-10 0)
(5.00024e-05 5.41381e-10 0)
(5.00026e-05 6.59346e-10 0)
(5.00031e-05 7.63542e-10 0)
(5.00033e-05 8.92272e-10 0)
(5.00038e-05 9.90655e-10 0)
(5.00041e-05 1.10582e-09 0)
(5.00046e-05 1.17218e-09 0)
(5.00049e-05 1.24288e-09 0)
(5.00052e-05 1.25025e-09 0)
(5.00014e-05 3.54423e-11 0)
(5.00019e-05 1.26771e-10 0)
(5.0002e-05 2.09349e-10 0)
(5.00021e-05 2.97254e-10 0)
(5.00022e-05 3.93008e-10 0)
(5.00025e-05 4.91172e-10 0)
(5.00026e-05 6.04427e-10 0)
(5.0003e-05 7.11198e-10 0)
(5.00031e-05 8.39391e-10 0)
(5.00035e-05 9.4801e-10 0)
(5.00037e-05 1.0784e-09 0)
(5.00042e-05 1.17498e-09 0)
(5.00044e-05 1.28631e-09 0)
(5.00049e-05 1.35123e-09 0)
(5.00051e-05 1.42084e-09 0)
(5.00054e-05 1.43811e-09 0)
(5.00019e-05 5.41364e-11 0)
(5.00025e-05 1.55909e-10 0)
(5.00025e-05 2.561e-10 0)
(5.00027e-05 3.60233e-10 0)
(5.00028e-05 4.71299e-10 0)
(5.0003e-05 5.81395e-10 0)
(5.00031e-05 7.05637e-10 0)
(5.00035e-05 8.18545e-10 0)
(5.00036e-05 9.5208e-10 0)
(5.0004e-05 1.0612e-09 0)
(5.00042e-05 1.19165e-09 0)
(5.00046e-05 1.2858e-09 0)
(5.00048e-05 1.39508e-09 0)
(5.00051e-05 1.46035e-09 0)
(5.00053e-05 1.53192e-09 0)
(5.00055e-05 1.55952e-09 0)
(5.00025e-05 6.66703e-11 0)
(5.0003e-05 1.72718e-10 0)
(5.00031e-05 2.82954e-10 0)
(5.00032e-05 3.95923e-10 0)
(5.00033e-05 5.15334e-10 0)
(5.00035e-05 6.30886e-10 0)
(5.00036e-05 7.60581e-10 0)
(5.0004e-05 8.74786e-10 0)
(5.00041e-05 1.01034e-09 0)
(5.00045e-05 1.11746e-09 0)
(5.00046e-05 1.24731e-09 0)
(5.0005e-05 1.33904e-09 0)
(5.00051e-05 1.44797e-09 0)
(5.00054e-05 1.51509e-09 0)
(5.00056e-05 1.59091e-09 0)
(5.00057e-05 1.62933e-09 0)
(5.0003e-05 7.39157e-11 0)
(5.00036e-05 1.79112e-10 0)
(5.00036e-05 2.93056e-10 0)
(5.00037e-05 4.08743e-10 0)
(5.00038e-05 5.30872e-10 0)
(5.00041e-05 6.46723e-10 0)
(5.00041e-05 7.777e-10 0)
(5.00045e-05 8.89601e-10 0)
(5.00046e-05 1.02501e-09 0)
(5.00049e-05 1.12853e-09 0)
(5.0005e-05 1.25778e-09 0)
(5.00054e-05 1.3474e-09 0)
(5.00055e-05 1.45755e-09 0)
(5.00058e-05 1.52768e-09 0)
(5.00059e-05 1.60935e-09 0)
(5.0006e-05 1.65864e-09 0)
(5.00035e-05 7.66917e-11 0)
(5.00041e-05 1.76848e-10 0)
(5.00041e-05 2.89277e-10 0)
(5.00043e-05 4.02665e-10 0)
(5.00043e-05 5.23017e-10 0)
(5.00046e-05 6.35057e-10 0)
(5.00046e-05 7.64185e-10 0)
(5.00049e-05 8.71054e-10 0)
(5.0005e-05 1.00491e-09 0)
(5.00054e-05 1.10376e-09 0)
(5.00055e-05 1.23269e-09 0)
(5.00058e-05 1.32058e-09 0)
(5.00059e-05 1.43327e-09 0)
(5.00061e-05 1.50733e-09 0)
(5.00062e-05 1.59604e-09 0)
(5.00063e-05 1.65622e-09 0)
(5.0004e-05 7.57512e-11 0)
(5.00045e-05 1.67427e-10 0)
(5.00046e-05 2.74045e-10 0)
(5.00047e-05 3.81032e-10 0)
(5.00048e-05 4.96013e-10 0)
(5.0005e-05 6.00943e-10 0)
(5.00051e-05 7.25859e-10 0)
(5.00054e-05 8.25576e-10 0)
(5.00055e-05 9.56974e-10 0)
(5.00058e-05 1.05039e-09 0)
(5.00059e-05 1.17939e-09 0)
(5.00062e-05 1.26594e-09 0)
(5.00062e-05 1.38228e-09 0)
(5.00064e-05 1.46099e-09 0)
(5.00065e-05 1.55766e-09 0)
(5.00065e-05 1.62873e-09 0)
(5.00045e-05 7.17365e-11 0)
(5.0005e-05 1.52119e-10 0)
(5.0005e-05 2.4942e-10 0)
(5.00052e-05 3.46641e-10 0)
(5.00052e-05 4.53398e-10 0)
(5.00055e-05 5.48513e-10 0)
(5.00055e-05 6.67453e-10 0)
(5.00058e-05 7.58282e-10 0)
(5.00059e-05 8.86668e-10 0)
(5.00062e-05 9.74032e-10 0)
(5.00063e-05 1.10357e-09 0)
(5.00066e-05 1.18903e-09 0)
(5.00066e-05 1.31001e-09 0)
(5.00068e-05 1.39395e-09 0)
(5.00068e-05 1.49936e-09 0)
(5.00069e-05 1.58143e-09 0)
(5.0005e-05 6.51943e-11 0)
(5.00054e-05 1.31969e-10 0)
(5.00054e-05 2.17066e-10 0)
(5.00056e-05 3.0176e-10 0)
(5.00056e-05 3.97983e-10 0)
(5.00059e-05 4.81055e-10 0)
(5.00059e-05 5.92647e-10 0)
(5.00062e-05 6.73143e-10 0)
(5.00063e-05 7.9815e-10 0)
(5.00066e-05 8.78922e-10 0)
(5.00067e-05 1.00943e-09 0)
(5.00069e-05 1.09404e-09 0)
(5.0007e-05 1.2205e-09 0)
(5.00072e-05 1.31021e-09 0)
(5.00072e-05 1.42509e-09 0)
(5.00072e-05 1.51841e-09 0)
(5.00054e-05 5.65713e-11 0)
(5.00057e-05 1.07856e-10 0)
(5.00058e-05 1.78405e-10 0)
(5.00059e-05 2.48275e-10 0)
(5.0006e-05 3.32141e-10 0)
(5.00063e-05 4.01243e-10 0)
(5.00063e-05 5.04483e-10 0)
(5.00066e-05 5.73314e-10 0)
(5.00067e-05 6.94771e-10 0)
(5.0007e-05 7.68369e-10 0)
(5.00071e-05 9.00325e-10 0)
(5.00073e-05 9.84202e-10 0)
(5.00074e-05 1.11692e-09 0)
(5.00075e-05 1.21293e-09 0)
(5.00075e-05 1.33801e-09 0)
(5.00076e-05 1.44305e-09 0)
(5.00057e-05 4.62466e-11 0)
(5.00061e-05 8.05373e-11 0)
(5.00061e-05 1.34628e-10 0)
(5.00063e-05 1.87797e-10 0)
(5.00063e-05 2.57833e-10 0)
(5.00066e-05 3.11334e-10 0)
(5.00066e-05 4.05424e-10 0)
(5.0007e-05 4.61407e-10 0)
(5.0007e-05 5.79194e-10 0)
(5.00074e-05 6.45064e-10 0)
(5.00074e-05 7.78871e-10 0)
(5.00077e-05 8.62122e-10 0)
(5.00078e-05 1.00181e-09 0)
(5.00079e-05 1.1047e-09 0)
(5.00079e-05 1.24078e-09 0)
(5.0008e-05 1.35826e-09 0)
(5.0006e-05 3.45441e-11 0)
(5.00063e-05 5.07362e-11 0)
(5.00064e-05 8.69003e-11 0)
(5.00065e-05 1.2184e-10 0)
(5.00066e-05 1.76968e-10 0)
(5.00069e-05 2.13416e-10 0)
(5.00069e-05 2.97851e-10 0)
(5.00073e-05 3.39809e-10 0)
(5.00074e-05 4.5396e-10 0)
(5.00077e-05 5.11447e-10 0)
(5.00078e-05 6.47547e-10 0)
(5.00081e-05 7.30183e-10 0)
(5.00082e-05 8.7756e-10 0)
(5.00084e-05 9.87963e-10 0)
(5.00084e-05 1.13592e-09 0)
(5.00084e-05 1.26682e-09 0)
(5.00063e-05 2.17757e-11 0)
(5.00065e-05 1.92069e-11 0)
(5.00066e-05 3.64036e-11 0)
(5.00068e-05 5.19933e-11 0)
(5.00068e-05 9.14652e-11 0)
(5.00071e-05 1.09669e-10 0)
(5.00072e-05 1.84133e-10 0)
(5.00076e-05 2.10997e-10 0)
(5.00077e-05 3.2159e-10 0)
(5.00081e-05 3.70041e-10 0)
(5.00082e-05 5.08836e-10 0)
(5.00085e-05 5.90855e-10 0)
(5.00086e-05 7.46619e-10 0)
(5.00088e-05 8.65253e-10 0)
(5.00088e-05 1.0261e-09 0)
(5.00088e-05 1.17172e-09 0)
(5.00065e-05 8.26404e-12 0)
(5.00067e-05 -1.31552e-11 0)
(5.00067e-05 -1.5425e-11 0)
(5.00069e-05 -1.98694e-11 0)
(5.0007e-05 3.67727e-12 0)
(5.00074e-05 2.68404e-12 0)
(5.00074e-05 6.72003e-11 0)
(5.00079e-05 7.79446e-11 0)
(5.0008e-05 1.85233e-10 0)
(5.00084e-05 2.23915e-10 0)
(5.00085e-05 3.65845e-10 0)
(5.00089e-05 4.47171e-10 0)
(5.0009e-05 6.12022e-10 0)
(5.00092e-05 7.39671e-10 0)
(5.00093e-05 9.14496e-10 0)
(5.00093e-05 1.07643e-09 0)
(5.00066e-05 -5.60544e-12 0)
(5.00067e-05 -4.5227e-11 0)
(5.00068e-05 -6.68114e-11 0)
(5.0007e-05 -9.13804e-11 0)
(5.00071e-05 -8.34989e-11 0)
(5.00075e-05 -1.04262e-10 0)
(5.00076e-05 -4.93292e-11 0)
(5.00081e-05 -5.55795e-11 0)
(5.00082e-05 4.87966e-11 0)
(5.00087e-05 7.69622e-11 0)
(5.00089e-05 2.22471e-10 0)
(5.00093e-05 3.02975e-10 0)
(5.00094e-05 4.77591e-10 0)
(5.00097e-05 6.15108e-10 0)
(5.00098e-05 8.0511e-10 0)
(5.00098e-05 9.85284e-10 0)
(5.00067e-05 -1.93518e-11 0)
(5.00067e-05 -7.55181e-11 0)
(5.00068e-05 -1.15371e-10 0)
(5.00071e-05 -1.59382e-10 0)
(5.00072e-05 -1.66135e-10 0)
(5.00076e-05 -2.0674e-10 0)
(5.00078e-05 -1.60492e-10 0)
(5.00083e-05 -1.84402e-10 0)
(5.00085e-05 -8.22815e-11 0)
(5.0009e-05 -6.53904e-11 0)
(5.00092e-05 8.41811e-11 0)
(5.00097e-05 1.63648e-10 0)
(5.00099e-05 3.48659e-10 0)
(5.00102e-05 4.96915e-10 0)
(5.00103e-05 7.03335e-10 0)
(5.00104e-05 9.03947e-10 0)
(5.00067e-05 -3.23345e-11 0)
(5.00067e-05 -1.02039e-10 0)
(5.00068e-05 -1.57939e-10 0)
(5.00071e-05 -2.19649e-10 0)
(5.00072e-05 -2.39017e-10 0)
(5.00077e-05 -2.98824e-10 0)
(5.00078e-05 -2.59689e-10 0)
(5.00084e-05 -3.01596e-10 0)
(5.00087e-05 -2.00752e-10 0)
(5.00093e-05 -1.95883e-10 0)
(5.00096e-05 -4.17274e-11 0)
(5.00101e-05 3.63608e-11 0)
(5.00103e-05 2.32304e-10 0)
(5.00107e-05 3.92138e-10 0)
(5.00109e-05 6.16206e-10 0)
(5.0011e-05 8.3973e-10 0)
(5.00066e-05 -4.37005e-11 0)
(5.00065e-05 -1.2214e-10 0)
(5.00066e-05 -1.90277e-10 0)
(5.0007e-05 -2.66519e-10 0)
(5.00071e-05 -2.95126e-10 0)
(5.00077e-05 -3.72489e-10 0)
(5.00079e-05 -3.37954e-10 0)
(5.00085e-05 -3.97689e-10 0)
(5.00088e-05 -2.96668e-10 0)
(5.00095e-05 -3.04503e-10 0)
(5.00099e-05 -1.45168e-10 0)
(5.00105e-05 -6.89802e-11 0)
(5.00108e-05 1.38284e-10 0)
(5.00113e-05 3.10397e-10 0)
(5.00115e-05 5.53245e-10 0)
(5.00117e-05 8.02345e-10 0)
(5.00065e-05 -5.2312e-11 0)
(5.00063e-05 -1.32291e-10 0)
(5.00064e-05 -2.06752e-10 0)
(5.00068e-05 -2.92444e-10 0)
(5.0007e-05 -3.2513e-10 0)
(5.00076e-05 -4.17037e-10 0)
(5.00079e-05 -3.83361e-10 0)
(5.00086e-05 -4.60039e-10 0)
(5.0009e-05 -3.56793e-10 0)
(5.00097e-05 -3.77891e-10 0)
(5.00102e-05 -2.12738e-10 0)
(5.00109e-05 -1.39202e-10 0)
(5.00113e-05 7.94947e-11 0)
(5.00118e-05 2.64354e-10 0)
(5.00121e-05 5.26868e-10 0)
(5.00124e-05 8.04329e-10 0)
(5.00063e-05 -5.6655e-11 0)
(5.0006e-05 -1.27913e-10 0)
(5.00062e-05 -2.00032e-10 0)
(5.00066e-05 -2.8758e-10 0)
(5.00068e-05 -3.1683e-10 0)
(5.00075e-05 -4.18428e-10 0)
(5.00078e-05 -3.80215e-10 0)
(5.00086e-05 -4.71962e-10 0)
(5.00091e-05 -3.63577e-10 0)
(5.00099e-05 -3.98347e-10 0)
(5.00105e-05 -2.26587e-10 0)
(5.00113e-05 -1.56851e-10 0)
(5.00118e-05 7.30632e-11 0)
(5.00125e-05 2.70678e-10 0)
(5.00129e-05 5.53352e-10 0)
(5.00132e-05 8.61924e-10 0)
(5.0006e-05 -5.47626e-11 0)
(5.00057e-05 -1.03031e-10 0)
(5.00059e-05 -1.60563e-10 0)
(5.00063e-05 -2.39072e-10 0)
(5.00065e-05 -2.54331e-10 0)
(5.00073e-05 -3.58293e-10 0)
(5.00077e-05 -3.08043e-10 0)
(5.00085e-05 -4.1158e-10 0)
(5.00091e-05 -2.94113e-10 0)
(5.001e-05 -3.42619e-10 0)
(5.00107e-05 -1.63413e-10 0)
(5.00116e-05 -9.90338e-11 0)
(5.00124e-05 1.41288e-10 0)
(5.00131e-05 3.51051e-10 0)
(5.00137e-05 6.53709e-10 0)
(5.00141e-05 9.95943e-10 0)
(5.00056e-05 -4.40717e-11 0)
(5.00054e-05 -5.00989e-11 0)
(5.00055e-05 -7.62485e-11 0)
(5.0006e-05 -1.3062e-10 0)
(5.00063e-05 -1.17417e-10 0)
(5.00071e-05 -2.13241e-10 0)
(5.00075e-05 -1.40655e-10 0)
(5.00085e-05 -2.50924e-10 0)
(5.00091e-05 -1.18926e-10 0)
(5.00102e-05 -1.80924e-10 0)
(5.0011e-05 6.83406e-12 0)
(5.0012e-05 6.35524e-11 0)
(5.00129e-05 3.12815e-10 0)
(5.00138e-05 5.33097e-10 0)
(5.00145e-05 8.54639e-10 0)
(5.00151e-05 1.23261e-09 0)
(5.00053e-05 -2.13419e-11 0)
(5.0005e-05 4.04636e-11 0)
(5.00051e-05 6.82606e-11 0)
(5.00057e-05 5.85249e-11 0)
(5.00059e-05 1.19594e-10 0)
(5.00068e-05 4.6617e-11 0)
(5.00073e-05 1.55307e-10 0)
(5.00083e-05 4.59051e-11 0)
(5.00091e-05 1.99643e-10 0)
(5.00103e-05 1.25119e-10 0)
(5.00113e-05 3.22657e-10 0)
(5.00124e-05 3.68686e-10 0)
(5.00135e-05 6.24353e-10 0)
(5.00146e-05 8.52233e-10 0)
(5.00155e-05 1.19017e-09 0)
(5.00162e-05 1.60516e-09 0)
(5.00049e-05 1.75386e-11 0)
(5.00046e-05 1.80465e-10 0)
(5.00048e-05 2.91929e-10 0)
(5.00054e-05 3.54021e-10 0)
(5.00056e-05 4.88585e-10 0)
(5.00065e-05 4.58408e-10 0)
(5.0007e-05 6.21527e-10 0)
(5.00082e-05 5.23691e-10 0)
(5.0009e-05 7.08929e-10 0)
(5.00103e-05 6.23514e-10 0)
(5.00115e-05 8.32563e-10 0)
(5.00128e-05 8.6361e-10 0)
(5.00141e-05 1.12197e-09 0)
(5.00154e-05 1.35256e-09 0)
(5.00165e-05 1.70256e-09 0)
(5.00175e-05 2.15459e-09 0)
(5.00045e-05 7.76399e-11 0)
(5.00044e-05 3.84441e-10 0)
(5.00045e-05 6.18101e-10 0)
(5.00051e-05 7.87596e-10 0)
(5.00053e-05 1.02894e-09 0)
(5.00063e-05 1.06832e-09 0)
(5.00068e-05 1.30977e-09 0)
(5.0008e-05 1.23856e-09 0)
(5.0009e-05 1.46809e-09 0)
(5.00104e-05 1.37484e-09 0)
(5.00117e-05 1.59754e-09 0)
(5.00132e-05 1.60813e-09 0)
(5.00147e-05 1.86373e-09 0)
(5.00162e-05 2.08973e-09 0)
(5.00176e-05 2.4449e-09 0)
(5.00189e-05 2.93217e-09 0)
(5.00042e-05 1.65201e-10 0)
(5.00042e-05 6.69829e-10 0)
(5.00043e-05 1.07486e-09 0)
(5.00049e-05 1.39748e-09 0)
(5.00051e-05 1.78834e-09 0)
(5.00061e-05 1.93238e-09 0)
(5.00066e-05 2.28328e-09 0)
(5.00079e-05 2.25912e-09 0)
(5.00089e-05 2.55006e-09 0)
(5.00104e-05 2.45359e-09 0)
(5.00119e-05 2.69317e-09 0)
(5.00136e-05 2.67596e-09 0)
(5.00153e-05 2.92149e-09 0)
(5.00172e-05 3.13211e-09 0)
(5.00188e-05 3.48224e-09 0)
(5.00204e-05 4.00037e-09 0)
(5.00041e-05 2.8771e-10 0)
(5.00044e-05 1.05731e-09 0)
(5.00044e-05 1.69554e-09 0)
(5.0005e-05 2.22929e-09 0)
(5.00051e-05 2.82376e-09 0)
(5.00061e-05 3.11811e-09 0)
(5.00065e-05 3.61838e-09 0)
(5.00078e-05 3.66901e-09 0)
(5.00089e-05 4.04385e-09 0)
(5.00104e-05 3.95163e-09 0)
(5.00121e-05 4.2127e-09 0)
(5.00139e-05 4.15867e-09 0)
(5.0016e-05 4.3844e-09 0)
(5.00181e-05 4.56458e-09 0)
(5.00202e-05 4.89506e-09 0)
(5.00221e-05 5.43611e-09 0)
(5.00043e-05 4.54039e-10 0)
(5.00049e-05 1.57078e-09 0)
(5.00048e-05 2.51882e-09 0)
(5.00054e-05 3.33619e-09 0)
(5.00053e-05 4.20198e-09 0)
(5.00063e-05 4.70507e-09 0)
(5.00066e-05 5.40581e-09 0)
(5.00078e-05 5.56823e-09 0)
(5.00089e-05 6.05693e-09 0)
(5.00104e-05 5.98028e-09 0)
(5.00122e-05 6.2701e-09 0)
(5.00143e-05 6.16815e-09 0)
(5.00166e-05 6.36186e-09 0)
(5.00191e-05 6.49085e-09 0)
(5.00216e-05 6.78142e-09 0)
(5.0024e-05 7.33262e-09 0)
(5.00048e-05 6.74452e-10 0)
(5.00059e-05 2.23718e-09 0)
(5.00057e-05 3.58837e-09 0)
(5.00062e-05 4.77861e-09 0)
(5.0006e-05 5.99935e-09 0)
(5.00068e-05 6.7852e-09 0)
(5.00069e-05 7.75115e-09 0)
(5.0008e-05 8.07459e-09 0)
(5.0009e-05 8.717e-09 0)
(5.00105e-05 8.67342e-09 0)
(5.00124e-05 9.00349e-09 0)
(5.00146e-05 8.84108e-09 0)
(5.00173e-05 8.98816e-09 0)
(5.00201e-05 9.0382e-09 0)
(5.00231e-05 9.26149e-09 0)
(5.00261e-05 9.80364e-09 0)
(5.00058e-05 9.60502e-10 0)
(5.00077e-05 3.08582e-09 0)
(5.00073e-05 4.95197e-09 0)
(5.00077e-05 6.62326e-09 0)
(5.00072e-05 8.30084e-09 0)
(5.00077e-05 9.46216e-09 0)
(5.00076e-05 1.07749e-08 0)
(5.00085e-05 1.13246e-08 0)
(5.00093e-05 1.21739e-08 0)
(5.00107e-05 1.21903e-08 0)
(5.00126e-05 1.25792e-08 0)
(5.00149e-05 1.23435e-08 0)
(5.00178e-05 1.24277e-08 0)
(5.00211e-05 1.23625e-08 0)
(5.00246e-05 1.24824e-08 0)
(5.00283e-05 1.29879e-08 0)
(5.00076e-05 1.32476e-09 0)
(5.00104e-05 4.1469e-09 0)
(5.00098e-05 6.65919e-09 0)
(5.001e-05 8.94008e-09 0)
(5.00091e-05 1.11967e-08 0)
(5.00094e-05 1.28478e-08 0)
(5.00089e-05 1.46095e-08 0)
(5.00094e-05 1.54709e-08 0)
(5.00099e-05 1.65986e-08 0)
(5.0011e-05 1.67162e-08 0)
(5.00128e-05 1.71942e-08 0)
(5.00151e-05 1.68748e-08 0)
(5.00184e-05 1.68805e-08 0)
(5.0022e-05 1.6654e-08 0)
(5.00262e-05 1.66242e-08 0)
(5.00307e-05 1.70537e-08 0)
(5.00104e-05 1.78017e-09 0)
(5.00145e-05 5.44935e-09 0)
(5.00136e-05 8.75797e-09 0)
(5.00134e-05 1.17981e-08 0)
(5.00121e-05 1.47776e-08 0)
(5.00119e-05 1.70577e-08 0)
(5.00109e-05 1.93946e-08 0)
(5.00109e-05 2.068e-08 0)
(5.00108e-05 2.21821e-08 0)
(5.00115e-05 2.24639e-08 0)
(5.00131e-05 2.30801e-08 0)
(5.00153e-05 2.26744e-08 0)
(5.00188e-05 2.25905e-08 0)
(5.00228e-05 2.21454e-08 0)
(5.00278e-05 2.19069e-08 0)
(5.00333e-05 2.22046e-08 0)
(5.00145e-05 2.33912e-09 0)
(5.00201e-05 7.01717e-09 0)
(5.00188e-05 1.12888e-08 0)
(5.00183e-05 1.52574e-08 0)
(5.00164e-05 1.91251e-08 0)
(5.00156e-05 2.22e-08 0)
(5.00138e-05 2.52666e-08 0)
(5.00131e-05 2.71212e-08 0)
(5.00123e-05 2.91267e-08 0)
(5.00124e-05 2.96685e-08 0)
(5.00136e-05 3.05023e-08 0)
(5.00154e-05 3.0026e-08 0)
(5.0019e-05 2.98555e-08 0)
(5.00234e-05 2.91256e-08 0)
(5.00292e-05 2.86061e-08 0)
(5.00359e-05 2.86927e-08 0)
(5.00202e-05 3.01184e-09 0)
(5.00277e-05 8.86408e-09 0)
(5.0026e-05 1.42762e-08 0)
(5.00251e-05 1.93577e-08 0)
(5.00224e-05 2.42979e-08 0)
(5.00208e-05 2.83604e-08 0)
(5.00181e-05 3.23422e-08 0)
(5.00164e-05 3.49519e-08 0)
(5.00147e-05 3.76333e-08 0)
(5.00138e-05 3.85791e-08 0)
(5.00143e-05 3.97588e-08 0)
(5.00155e-05 3.92661e-08 0)
(5.00191e-05 3.90465e-08 0)
(5.00238e-05 3.79692e-08 0)
(5.00305e-05 3.70951e-08 0)
(5.00385e-05 3.68665e-08 0)
(5.0028e-05 3.80417e-09 0)
(5.00378e-05 1.09872e-08 0)
(5.00356e-05 1.77184e-08 0)
(5.0034e-05 2.41042e-08 0)
(5.00305e-05 3.03129e-08 0)
(5.0028e-05 3.55792e-08 0)
(5.0024e-05 4.06919e-08 0)
(5.00211e-05 4.42883e-08 0)
(5.00181e-05 4.78715e-08 0)
(5.0016e-05 4.9432e-08 0)
(5.00153e-05 5.11574e-08 0)
(5.00157e-05 5.07703e-08 0)
(5.00189e-05 5.06057e-08 0)
(5.00237e-05 4.91489e-08 0)
(5.00313e-05 4.78749e-08 0)
(5.0041e-05 4.72038e-08 0)
(5.00381e-05 4.71475e-09 0)
(5.00507e-05 1.33578e-08 0)
(5.00479e-05 2.1572e-08 0)
(5.00457e-05 2.94454e-08 0)
(5.00411e-05 3.7118e-08 0)
(5.00375e-05 4.38179e-08 0)
(5.00321e-05 5.03018e-08 0)
(5.00277e-05 5.51642e-08 0)
(5.0023e-05 5.99357e-08 0)
(5.00192e-05 6.24063e-08 0)
(5.00171e-05 6.49736e-08 0)
(5.0016e-05 6.49132e-08 0)
(5.00185e-05 6.50001e-08 0)
(5.0023e-05 6.31758e-08 0)
(5.00316e-05 6.14782e-08 0)
(5.00432e-05 6.01622e-08 0)
(5.00512e-05 5.73113e-09 0)
(5.00669e-05 1.59126e-08 0)
(5.00634e-05 2.57374e-08 0)
(5.00605e-05 3.52523e-08 0)
(5.00548e-05 4.45625e-08 0)
(5.00498e-05 5.29208e-08 0)
(5.00428e-05 6.10262e-08 0)
(5.00367e-05 6.74745e-08 0)
(5.00299e-05 7.37853e-08 0)
(5.00241e-05 7.7569e-08 0)
(5.00198e-05 8.14124e-08 0)
(5.00168e-05 8.20609e-08 0)
(5.00179e-05 8.27551e-08 0)
(5.00216e-05 8.06626e-08 0)
(5.00309e-05 7.84794e-08 0)
(5.00447e-05 7.60805e-08 0)
(5.00675e-05 6.82599e-09 0)
(5.00867e-05 1.85435e-08 0)
(5.00826e-05 3.00412e-08 0)
(5.00788e-05 4.12915e-08 0)
(5.00719e-05 5.23598e-08 0)
(5.00655e-05 6.25645e-08 0)
(5.00567e-05 7.25203e-08 0)
(5.00486e-05 8.08924e-08 0)
(5.00395e-05 8.91464e-08 0)
(5.00311e-05 9.47791e-08 0)
(5.00242e-05 1.00546e-07 0)
(5.00185e-05 1.02618e-07 0)
(5.00173e-05 1.04736e-07 0)
(5.00193e-05 1.02996e-07 0)
(5.00287e-05 1.00696e-07 0)
(5.00451e-05 9.68803e-08 0)
(5.00875e-05 7.95287e-09 0)
(5.01103e-05 2.10912e-08 0)
(5.01056e-05 3.42245e-08 0)
(5.0101e-05 4.72046e-08 0)
(5.00929e-05 6.00551e-08 0)
(5.0085e-05 7.22049e-08 0)
(5.00743e-05 8.41597e-08 0)
(5.0064e-05 9.47434e-08 0)
(5.00524e-05 1.05325e-07 0)
(5.00412e-05 1.13417e-07 0)
(5.00311e-05 1.21955e-07 0)
(5.0022e-05 1.26611e-07 0)
(5.00176e-05 1.31835e-07 0)
(5.00165e-05 1.32489e-07 0)
(5.00245e-05 1.32648e-07 0)
(5.00432e-05 1.29659e-07 0)
(5.01114e-05 9.04337e-09 0)
(5.01379e-05 2.33458e-08 0)
(5.01325e-05 3.79426e-08 0)
(5.01271e-05 5.25066e-08 0)
(5.01178e-05 6.70146e-08 0)
(5.01085e-05 8.10522e-08 0)
(5.0096e-05 9.49819e-08 0)
(5.00836e-05 1.07887e-07 0)
(5.00693e-05 1.20971e-07 0)
(5.00554e-05 1.31938e-07 0)
(5.0042e-05 1.43878e-07 0)
(5.00293e-05 1.52171e-07 0)
(5.00213e-05 1.62319e-07 0)
(5.00163e-05 1.68101e-07 0)
(5.00212e-05 1.75423e-07 0)
(5.00392e-05 1.79541e-07 0)
(5.01391e-05 1.00077e-08 0)
(5.01692e-05 2.50557e-08 0)
(5.01633e-05 4.07802e-08 0)
(5.01571e-05 5.66051e-08 0)
(5.01467e-05 7.24563e-08 0)
(5.01359e-05 8.81083e-08 0)
(5.01217e-05 1.03737e-07 0)
(5.01073e-05 1.18768e-07 0)
(5.00905e-05 1.34113e-07 0)
(5.00739e-05 1.47822e-07 0)
(5.00572e-05 1.62922e-07 0)
(5.00412e-05 1.74608e-07 0)
(5.00297e-05 1.89373e-07 0)
(5.0021e-05 1.99708e-07 0)
(5.00218e-05 2.13844e-07 0)
(5.00345e-05 2.24998e-07 0)
(5.01706e-05 1.0738e-08 0)
(5.02038e-05 2.59488e-08 0)
(5.01973e-05 4.2288e-08 0)
(5.01904e-05 5.88603e-08 0)
(5.0179e-05 7.55346e-08 0)
(5.0167e-05 9.22975e-08 0)
(5.01511e-05 1.09089e-07 0)
(5.01347e-05 1.25748e-07 0)
(5.01154e-05 1.42733e-07 0)
(5.00961e-05 1.58593e-07 0)
(5.0076e-05 1.759e-07 0)
(5.00564e-05 1.89747e-07 0)
(5.00407e-05 2.07111e-07 0)
(5.00269e-05 2.18484e-07 0)
(5.00223e-05 2.33994e-07 0)
(5.00272e-05 2.44259e-07 0)
(5.02053e-05 1.11182e-08 0)
(5.02408e-05 2.57507e-08 0)
(5.02338e-05 4.20147e-08 0)
(5.02263e-05 5.86305e-08 0)
(5.0214e-05 7.54121e-08 0)
(5.02008e-05 9.25678e-08 0)
(5.01834e-05 1.09771e-07 0)
(5.01652e-05 1.27341e-07 0)
(5.01434e-05 1.45147e-07 0)
(5.01213e-05 1.62465e-07 0)
(5.00972e-05 1.81003e-07 0)
(5.00732e-05 1.96195e-07 0)
(5.00519e-05 2.15027e-07 0)
(5.00313e-05 2.25833e-07 0)
(5.00199e-05 2.41802e-07 0)
(5.00173e-05 2.49627e-07 0)
(5.02424e-05 1.10308e-08 0)
(5.02792e-05 2.42086e-08 0)
(5.02718e-05 3.95441e-08 0)
(5.02637e-05 5.53231e-08 0)
(5.02507e-05 7.13169e-08 0)
(5.02363e-05 8.79476e-08 0)
(5.02176e-05 1.04617e-07 0)
(5.01976e-05 1.22169e-07 0)
(5.01735e-05 1.39798e-07 0)
(5.01485e-05 1.57753e-07 0)
(5.012e-05 1.76472e-07 0)
(5.00912e-05 1.92477e-07 0)
(5.00628e-05 2.11837e-07 0)
(5.00338e-05 2.21445e-07 0)
(5.00144e-05 2.389e-07 0)
(5.00029e-05 2.42573e-07 0)
(5.02809e-05 1.03676e-08 0)
(5.03175e-05 2.1113e-08 0)
(5.03098e-05 3.45279e-08 0)
(5.03013e-05 4.84327e-08 0)
(5.02876e-05 6.25738e-08 0)
(5.02723e-05 7.75582e-08 0)
(5.02524e-05 9.25328e-08 0)
(5.02307e-05 1.08867e-07 0)
(5.02046e-05 1.25072e-07 0)
(5.01766e-05 1.42586e-07 0)
(5.01437e-05 1.60251e-07 0)
(5.01095e-05 1.76658e-07 0)
(5.00727e-05 1.95467e-07 0)
(5.00345e-05 2.04834e-07 0)
(5.00059e-05 2.24595e-07 0)
(4.99797e-05 2.22262e-07 0)
(5.03194e-05 9.03918e-09 0)
(5.03543e-05 1.62865e-08 0)
(5.03463e-05 2.66648e-08 0)
(5.03373e-05 3.75071e-08 0)
(5.03231e-05 4.85495e-08 0)
(5.03069e-05 6.05108e-08 0)
(5.0286e-05 7.23266e-08 0)
(5.02629e-05 8.58745e-08 0)
(5.02349e-05 9.91054e-08 0)
(5.02042e-05 1.1474e-07 0)
(5.01672e-05 1.29964e-07 0)
(5.01274e-05 1.46289e-07 0)
(5.00818e-05 1.63652e-07 0)
(5.00343e-05 1.75634e-07 0)
(4.99928e-05 1.95559e-07 0)
(4.99432e-05 1.82796e-07 0)
(5.03563e-05 6.97033e-09 0)
(5.03877e-05 9.5453e-09 0)
(5.03794e-05 1.56643e-08 0)
(5.03699e-05 2.21705e-08 0)
(5.0355e-05 2.88236e-08 0)
(5.03378e-05 3.63771e-08 0)
(5.03159e-05 4.36787e-08 0)
(5.02913e-05 5.30239e-08 0)
(5.0262e-05 6.19178e-08 0)
(5.02291e-05 7.42374e-08 0)
(5.0189e-05 8.58234e-08 0)
(5.01448e-05 1.0105e-07 0)
(5.00924e-05 1.15124e-07 0)
(5.00348e-05 1.27563e-07 0)
(4.99672e-05 1.37679e-07 0)
(4.98831e-05 1.09393e-07 0)
(5.03898e-05 4.08273e-09 0)
(5.04154e-05 1.07101e-09 0)
(5.04067e-05 1.8821e-09 0)
(5.03966e-05 3.07041e-09 0)
(5.03812e-05 4.52889e-09 0)
(5.0363e-05 7.13809e-09 0)
(5.03406e-05 9.88024e-09 0)
(5.03159e-05 1.46828e-08 0)
(5.02869e-05 1.79935e-08 0)
(5.02537e-05 2.41627e-08 0)
(5.02121e-05 2.79031e-08 0)
(5.01623e-05 3.52782e-08 0)
(5.00981e-05 3.70583e-08 0)
(5.0023e-05 3.49434e-08 0)
(4.99191e-05 2.23071e-08 0)
(4.97929e-05 -1.9901e-08 0)
(5.04176e-05 4.46855e-10 0)
(5.04372e-05 -7.88639e-09 0)
(5.04287e-05 -1.27486e-08 0)
(5.0419e-05 -1.74629e-08 0)
(5.04042e-05 -2.21922e-08 0)
(5.03864e-05 -2.60853e-08 0)
(5.03633e-05 -3.02886e-08 0)
(5.0335e-05 -3.41613e-08 0)
(5.03016e-05 -4.23029e-08 0)
(5.02628e-05 -5.07714e-08 0)
(5.02148e-05 -6.58019e-08 0)
(5.0156e-05 -8.0675e-08 0)
(5.00764e-05 -1.05063e-07 0)
(4.99785e-05 -1.31244e-07 0)
(4.98424e-05 -1.68124e-07 0)
(4.9678e-05 -2.17834e-07 0)
(5.04393e-05 -3.39824e-09 0)
(5.04534e-05 -1.91343e-08 0)
(5.04434e-05 -3.16211e-08 0)
(5.04315e-05 -4.51476e-08 0)
(5.04139e-05 -6.04325e-08 0)
(5.03921e-05 -7.72192e-08 0)
(5.0364e-05 -9.77578e-08 0)
(5.03281e-05 -1.20682e-07 0)
(5.02848e-05 -1.49715e-07 0)
(5.0234e-05 -1.81498e-07 0)
(5.01731e-05 -2.22212e-07 0)
(5.00998e-05 -2.63906e-07 0)
(5.00058e-05 -3.15968e-07 0)
(4.98908e-05 -3.64825e-07 0)
(4.97344e-05 -4.22971e-07 0)
(4.95446e-05 -4.76985e-07 0)
(5.04559e-05 -8.20161e-09 0)
(5.04455e-05 -3.99754e-08 0)
(5.04318e-05 -6.65146e-08 0)
(5.0414e-05 -9.56294e-08 0)
(5.03889e-05 -1.28505e-07 0)
(5.03575e-05 -1.65081e-07 0)
(5.03188e-05 -2.07616e-07 0)
(5.02721e-05 -2.54134e-07 0)
(5.02174e-05 -3.07553e-07 0)
(5.01538e-05 -3.6417e-07 0)
(5.00801e-05 -4.29653e-07 0)
(4.99935e-05 -4.94964e-07 0)
(4.98878e-05 -5.69754e-07 0)
(4.97602e-05 -6.36696e-07 0)
(4.95938e-05 -7.11856e-07 0)
(4.93931e-05 -7.68482e-07 0)
(5.04494e-05 -1.70769e-08 0)
(5.03897e-05 -7.22719e-08 0)
(5.03713e-05 -1.19624e-07 0)
(5.03464e-05 -1.70376e-07 0)
(5.03125e-05 -2.25662e-07 0)
(5.02708e-05 -2.85262e-07 0)
(5.02212e-05 -3.50805e-07 0)
(5.01632e-05 -4.20488e-07 0)
(5.00973e-05 -4.96598e-07 0)
(5.0022e-05 -5.75082e-07 0)
(4.99375e-05 -6.60876e-07 0)
(4.98404e-05 -7.44484e-07 0)
(4.97274e-05 -8.35494e-07 0)
(4.95936e-05 -9.13932e-07 0)
(4.94278e-05 -9.97804e-07 0)
(4.92315e-05 -1.05101e-06 0)
(5.03955e-05 -3.08598e-08 0)
(5.02726e-05 -1.12415e-07 0)
(5.025e-05 -1.84694e-07 0)
(5.02187e-05 -2.60124e-07 0)
(5.01771e-05 -3.39307e-07 0)
(5.01267e-05 -4.21883e-07 0)
(5.00679e-05 -5.08927e-07 0)
(5.00008e-05 -5.98954e-07 0)
(4.99262e-05 -6.93665e-07 0)
(4.98427e-05 -7.89109e-07 0)
(4.97513e-05 -8.89471e-07 0)
(4.96486e-05 -9.85299e-07 0)
(4.95342e-05 -1.08575e-06 0)
(4.94021e-05 -1.16959e-06 0)
(4.92474e-05 -1.25561e-06 0)
(4.90685e-05 -1.30258e-06 0)
(5.02802e-05 -4.80434e-08 0)
(5.00875e-05 -1.54073e-07 0)
(5.00627e-05 -2.51601e-07 0)
(5.00277e-05 -3.51263e-07 0)
(4.99818e-05 -4.52843e-07 0)
(4.99264e-05 -5.55923e-07 0)
(4.98625e-05 -6.61059e-07 0)
(4.97902e-05 -7.67194e-07 0)
(4.97111e-05 -8.75581e-07 0)
(4.96238e-05 -9.82782e-07 0)
(4.95304e-05 -1.09226e-06 0)
(4.94276e-05 -1.19514e-06 0)
(4.93176e-05 -1.29982e-06 0)
(4.91945e-05 -1.38523e-06 0)
(4.9059e-05 -1.47031e-06 0)
(4.89068e-05 -1.51209e-06 0)
(5.00964e-05 -6.59267e-08 0)
(4.98396e-05 -1.9011e-07 0)
(4.98148e-05 -3.09212e-07 0)
(4.97795e-05 -4.29285e-07 0)
(4.97333e-05 -5.49255e-07 0)
(4.96774e-05 -6.68697e-07 0)
(4.9613e-05 -7.87672e-07 0)
(4.95404e-05 -9.05546e-07 0)
(4.94614e-05 -1.02314e-06 0)
(4.93751e-05 -1.13774e-06 0)
(4.92844e-05 -1.25213e-06 0)
(4.91865e-05 -1.35843e-06 0)
(4.90864e-05 -1.46404e-06 0)
(4.89779e-05 -1.54925e-06 0)
(4.88673e-05 -1.63236e-06 0)
(4.8748e-05 -1.67097e-06 0)
(4.98488e-05 -8.14336e-08 0)
(4.95432e-05 -2.14854e-07 0)
(4.95204e-05 -3.48767e-07 0)
(4.94877e-05 -4.82912e-07 0)
(4.94446e-05 -6.15508e-07 0)
(4.93921e-05 -7.46141e-07 0)
(4.93312e-05 -8.74363e-07 0)
(4.92624e-05 -9.99875e-07 0)
(4.91876e-05 -1.12297e-06 0)
(4.91065e-05 -1.24171e-06 0)
(4.90227e-05 -1.35812e-06 0)
(4.89339e-05 -1.46569e-06 0)
(4.88475e-05 -1.57051e-06 0)
(4.8758e-05 -1.65518e-06 0)
(4.86759e-05 -1.73644e-06 0)
(4.85936e-05 -1.77428e-06 0)
(4.95519e-05 -9.2098e-08 0)
(4.92186e-05 -2.25301e-07 0)
(4.91988e-05 -3.65629e-07 0)
(4.917e-05 -5.06155e-07 0)
(4.91319e-05 -6.44671e-07 0)
(4.90851e-05 -7.80786e-07 0)
(4.90304e-05 -9.13542e-07 0)
(4.89682e-05 -1.04283e-06 0)
(4.89007e-05 -1.16828e-06 0)
(4.88278e-05 -1.28869e-06 0)
(4.87537e-05 -1.40518e-06 0)
(4.86772e-05 -1.51278e-06 0)
(4.86071e-05 -1.61606e-06 0)
(4.85393e-05 -1.70056e-06 0)
(4.84879e-05 -1.78065e-06 0)
(4.84445e-05 -1.82024e-06 0)
(4.92263e-05 -9.6603e-08 0)
(4.88874e-05 -2.21504e-07 0)
(4.88703e-05 -3.59822e-07 0)
(4.88456e-05 -4.98928e-07 0)
(4.88126e-05 -6.36495e-07 0)
(4.87719e-05 -7.72207e-07 0)
(4.87242e-05 -9.04667e-07 0)
(4.867e-05 -1.03385e-06 0)
(4.86112e-05 -1.15869e-06 0)
(4.85481e-05 -1.27855e-06 0)
(4.84854e-05 -1.39357e-06 0)
(4.84229e-05 -1.50034e-06 0)
(4.83706e-05 -1.60167e-06 0)