/*--------------------------------*- C++ -*----------------------------------*\
| =========                 |                                                 |
| \\      /  F ield         | foam-extend: Open Source CFD                    |
|  \\    /   O peration     | Version:     4.1-20200408                       |
|   \\  /    A nd           | Web:         http://www.foam-extend.org         |
|    \\/     M anipulation  |                                                 |
\*---------------------------------------------------------------------------*/
FoamFile
{
    version     2.0;
    format      ascii;
    class       volVectorField;
    location    "0.0375000";
    object      DU_0;
}
// * * * * * * * * * * * * * * * * * * * * * * * * * * * * * * * * * * * * * //

dimensions      [0 1 0 0 0 0 0];

internalField   nonuniform List<vector> 
1952
(
(5.00004e-05 7.02598e-11 0)
(5.00004e-05 1.22279e-10 0)
(5.00004e-05 1.38425e-10 0)
(5.00003e-05 1.77444e-10 0)
(5.00004e-05 1.6742e-10 0)
(5.00003e-05 1.75517e-10 0)
(5.00003e-05 1.50924e-10 0)
(5.00003e-05 1.23324e-10 0)
(5.00004e-05 8.32306e-11 0)
(5.00003e-05 2.78692e-11 0)
(5.00005e-05 -1.41625e-11 0)
(5.00006e-05 -7.23256e-11 0)
(5.00008e-05 -9.67137e-11 0)
(5.0001e-05 -1.03579e-10 0)
(5.00013e-05 -9.06757e-11 0)
(5.00004e-05 3.21318e-11 0)
(5.00005e-05 4.54253e-11 0)
(5.00005e-05 6.98472e-11 0)
(5.00005e-05 9.24532e-11 0)
(5.00005e-05 1.07038e-10 0)
(5.00005e-05 1.17804e-10 0)
(5.00004e-05 1.20997e-10 0)
(5.00005e-05 1.25693e-10 0)
(5.00004e-05 1.23552e-10 0)
(5.00005e-05 1.22423e-10 0)
(5.00005e-05 1.21464e-10 0)
(5.00007e-05 1.22585e-10 0)
(5.00007e-05 1.31077e-10 0)
(5.00009e-05 1.38922e-10 0)
(5.00011e-05 1.74059e-10 0)
(5.00014e-05 1.90622e-10 0)
(5.00005e-05 1.9632e-11 0)
(5.00007e-05 3.37553e-11 0)
(5.00006e-05 5.11281e-11 0)
(5.00007e-05 7.38104e-11 0)
(5.00006e-05 8.63476e-11 0)
(5.00006e-05 1.07394e-10 0)
(5.00005e-05 1.19048e-10 0)
(5.00006e-05 1.40962e-10 0)
(5.00005e-05 1.58243e-10 0)
(5.00007e-05 1.81223e-10 0)
(5.00006e-05 2.08767e-10 0)
(5.00008e-05 2.35201e-10 0)
(5.00008e-05 2.74557e-10 0)
(5.00011e-05 3.01917e-10 0)
(5.00012e-05 3.49128e-10 0)
(5.00014e-05 3.61155e-10 0)
(5.00007e-05 1.43746e-11 0)
(5.00008e-05 3.02648e-11 0)
(5.00008e-05 4.66958e-11 0)
(5.00008e-05 7.06001e-11 0)
(5.00007e-05 8.61289e-11 0)
(5.00008e-05 1.13983e-10 0)
(5.00007e-05 1.34225e-10 0)
(5.00008e-05 1.67287e-10 0)
(5.00007e-05 1.98055e-10 0)
(5.00009e-05 2.35365e-10 0)
(5.00008e-05 2.78043e-10 0)
(5.0001e-05 3.17406e-10 0)
(5.0001e-05 3.67326e-10 0)
(5.00012e-05 4.01191e-10 0)
(5.00013e-05 4.47454e-10 0)
(5.00015e-05 4.6243e-10 0)
(5.00008e-05 1.27638e-11 0)
(5.00009e-05 3.06974e-11 0)
(5.00009e-05 4.84555e-11 0)
(5.00009e-05 7.41249e-11 0)
(5.00009e-05 9.36719e-11 0)
(5.00009e-05 1.26108e-10 0)
(5.00008e-05 1.53164e-10 0)
(5.0001e-05 1.92631e-10 0)
(5.00009e-05 2.31464e-10 0)
(5.00011e-05 2.75966e-10 0)
(5.0001e-05 3.25843e-10 0)
(5.00012e-05 3.70899e-10 0)
(5.00012e-05 4.24726e-10 0)
(5.00014e-05 4.61486e-10 0)
(5.00014e-05 5.06181e-10 0)
(5.00015e-05 5.23016e-10 0)
(5.00009e-05 1.2915e-11 0)
(5.0001e-05 3.2712e-11 0)
(5.0001e-05 5.24184e-11 0)
(5.00011e-05 7.98677e-11 0)
(5.0001e-05 1.02846e-10 0)
(5.00011e-05 1.38073e-10 0)
(5.0001e-05 1.69597e-10 0)
(5.00011e-05 2.12158e-10 0)
(5.0001e-05 2.55203e-10 0)
(5.00012e-05 3.02335e-10 0)
(5.00011e-05 3.54628e-10 0)
(5.00013e-05 4.00852e-10 0)
(5.00013e-05 4.54336e-10 0)
(5.00015e-05 4.91276e-10 0)
(5.00015e-05 5.34131e-10 0)
(5.00016e-05 5.54252e-10 0)
(5.0001e-05 1.37727e-11 0)
(5.00012e-05 3.42051e-11 0)
(5.00012e-05 5.52257e-11 0)
(5.00012e-05 8.36666e-11 0)
(5.00011e-05 1.08676e-10 0)
(5.00013e-05 1.44998e-10 0)
(5.00012e-05 1.78798e-10 0)
(5.00013e-05 2.22032e-10 0)
(5.00012e-05 2.66659e-10 0)
(5.00014e-05 3.13687e-10 0)
(5.00013e-05 3.66135e-10 0)
(5.00015e-05 4.11514e-10 0)
(5.00015e-05 4.63879e-10 0)
(5.00016e-05 5.00494e-10 0)
(5.00016e-05 5.42595e-10 0)
(5.00017e-05 5.65662e-10 0)
(5.00012e-05 1.4419e-11 0)
(5.00013e-05 3.42587e-11 0)
(5.00013e-05 5.5515e-11 0)
(5.00013e-05 8.38161e-11 0)
(5.00013e-05 1.09354e-10 0)
(5.00014e-05 1.45211e-10 0)
(5.00013e-05 1.79493e-10 0)
(5.00015e-05 2.21609e-10 0)
(5.00014e-05 2.66126e-10 0)
(5.00016e-05 3.11404e-10 0)
(5.00015e-05 3.6289e-10 0)
(5.00017e-05 4.06452e-10 0)
(5.00016e-05 4.57577e-10 0)
(5.00018e-05 4.93776e-10 0)
(5.00017e-05 5.35993e-10 0)
(5.00018e-05 5.62058e-10 0)
(5.00013e-05 1.44529e-11 0)
(5.00014e-05 3.21965e-11 0)
(5.00014e-05 5.22757e-11 0)
(5.00015e-05 7.90697e-11 0)
(5.00014e-05 1.03587e-10 0)
(5.00016e-05 1.37551e-10 0)
(5.00015e-05 1.70859e-10 0)
(5.00016e-05 2.10571e-10 0)
(5.00015e-05 2.53942e-10 0)
(5.00017e-05 2.96601e-10 0)
(5.00016e-05 3.46822e-10 0)
(5.00018e-05 3.88378e-10 0)
(5.00018e-05 4.38778e-10 0)
(5.00019e-05 4.74879e-10 0)
(5.00019e-05 5.18039e-10 0)
(5.00019e-05 5.46989e-10 0)
(5.00014e-05 1.35801e-11 0)
(5.00016e-05 2.77645e-11 0)
(5.00015e-05 4.51678e-11 0)
(5.00016e-05 6.90089e-11 0)
(5.00016e-05 9.10626e-11 0)
(5.00017e-05 1.21795e-10 0)
(5.00016e-05 1.52984e-10 0)
(5.00018e-05 1.8925e-10 0)
(5.00017e-05 2.30866e-10 0)
(5.00019e-05 2.70379e-10 0)
(5.00018e-05 3.19392e-10 0)
(5.0002e-05 3.59009e-10 0)
(5.00019e-05 4.09298e-10 0)
(5.0002e-05 4.45688e-10 0)
(5.0002e-05 4.90482e-10 0)
(5.00021e-05 5.22348e-10 0)
(5.00015e-05 1.16908e-11 0)
(5.00017e-05 2.08248e-11 0)
(5.00017e-05 3.40022e-11 0)
(5.00017e-05 5.34339e-11 0)
(5.00017e-05 7.16385e-11 0)
(5.00018e-05 9.79136e-11 0)
(5.00017e-05 1.2601e-10 0)
(5.00019e-05 1.58008e-10 0)
(5.00018e-05 1.9748e-10 0)
(5.0002e-05 2.33569e-10 0)
(5.00019e-05 2.81604e-10 0)
(5.00021e-05 3.19532e-10 0)
(5.0002e-05 3.70367e-10 0)
(5.00022e-05 4.07505e-10 0)
(5.00021e-05 4.54562e-10 0)
(5.00022e-05 4.89479e-10 0)
(5.00017e-05 8.72431e-12 0)
(5.00018e-05 1.13334e-11 0)
(5.00018e-05 1.87405e-11 0)
(5.00018e-05 3.22895e-11 0)
(5.00018e-05 4.53457e-11 0)
(5.00019e-05 6.59476e-11 0)
(5.00019e-05 9.01257e-11 0)
(5.00021e-05 1.17063e-10 0)
(5.0002e-05 1.54152e-10 0)
(5.00022e-05 1.86568e-10 0)
(5.00021e-05 2.33931e-10 0)
(5.00023e-05 2.70421e-10 0)
(5.00022e-05 3.2244e-10 0)
(5.00023e-05 3.60799e-10 0)
(5.00023e-05 4.10723e-10 0)
(5.00023e-05 4.48967e-10 0)
(5.00018e-05 4.66231e-12 0)
(5.00018e-05 -7.05018e-13 0)
(5.00018e-05 -6.0463e-13 0)
(5.00019e-05 5.61418e-12 0)
(5.00019e-05 1.22526e-11 0)
(5.00021e-05 2.60148e-11 0)
(5.0002e-05 4.54932e-11 0)
(5.00022e-05 6.66327e-11 0)
(5.00021e-05 1.01127e-10 0)
(5.00023e-05 1.2966e-10 0)
(5.00022e-05 1.76651e-10 0)
(5.00024e-05 2.11973e-10 0)
(5.00023e-05 2.65784e-10 0)
(5.00025e-05 3.05878e-10 0)
(5.00024e-05 3.59295e-10 0)
(5.00025e-05 4.01299e-10 0)
(5.00018e-05 -4.93955e-13 0)
(5.00019e-05 -1.53085e-11 0)
(5.00019e-05 -2.40489e-11 0)
(5.0002e-05 -2.66389e-11 0)
(5.0002e-05 -2.7656e-11 0)
(5.00021e-05 -2.19587e-11 0)
(5.00021e-05 -7.91586e-12 0)
(5.00023e-05 6.60918e-12 0)
(5.00022e-05 3.8325e-11 0)
(5.00025e-05 6.26863e-11 0)
(5.00023e-05 1.09596e-10 0)
(5.00026e-05 1.43976e-10 0)
(5.00025e-05 2.00173e-10 0)
(5.00026e-05 2.42558e-10 0)
(5.00026e-05 3.00145e-10 0)
(5.00026e-05 3.46511e-10 0)
(5.00019e-05 -6.75136e-12 0)
(5.00019e-05 -3.2442e-11 0)
(5.00019e-05 -5.1542e-11 0)
(5.00021e-05 -6.44003e-11 0)
(5.0002e-05 -7.43027e-11 0)
(5.00022e-05 -7.78932e-11 0)
(5.00021e-05 -7.00277e-11 0)
(5.00024e-05 -6.2952e-11 0)
(5.00023e-05 -3.42243e-11 0)
(5.00026e-05 -1.43508e-11 0)
(5.00025e-05 3.27347e-11 0)
(5.00027e-05 6.63921e-11 0)
(5.00026e-05 1.2557e-10 0)
(5.00028e-05 1.70867e-10 0)
(5.00027e-05 2.33385e-10 0)
(5.00027e-05 2.84897e-10 0)
(5.00019e-05 -1.40954e-11 0)
(5.0002e-05 -5.2108e-11 0)
(5.0002e-05 -8.30848e-11 0)
(5.00021e-05 -1.07707e-10 0)
(5.00021e-05 -1.27715e-10 0)
(5.00023e-05 -1.41903e-10 0)
(5.00022e-05 -1.40952e-10 0)
(5.00025e-05 -1.42279e-10 0)
(5.00024e-05 -1.16764e-10 0)
(5.00027e-05 -1.018e-10 0)
(5.00026e-05 -5.43054e-11 0)
(5.00029e-05 -2.11883e-11 0)
(5.00028e-05 4.15685e-11 0)
(5.00029e-05 9.04796e-11 0)
(5.00029e-05 1.58781e-10 0)
(5.00029e-05 2.16431e-10 0)
(5.00019e-05 -2.25264e-11 0)
(5.00019e-05 -7.42032e-11 0)
(5.00019e-05 -1.18522e-10 0)
(5.00021e-05 -1.56359e-10 0)
(5.00021e-05 -1.87658e-10 0)
(5.00023e-05 -2.13749e-10 0)
(5.00022e-05 -2.20442e-10 0)
(5.00025e-05 -2.31156e-10 0)
(5.00025e-05 -2.09094e-10 0)
(5.00028e-05 -1.99499e-10 0)
(5.00027e-05 -1.51379e-10 0)
(5.0003e-05 -1.18618e-10 0)
(5.00029e-05 -5.1652e-11 0)
(5.00031e-05 1.66644e-12 0)
(5.0003e-05 7.67238e-11 0)
(5.00031e-05 1.41716e-10 0)
(5.00019e-05 -3.20005e-11 0)
(5.00019e-05 -9.86157e-11 0)
(5.00019e-05 -1.57675e-10 0)
(5.0002e-05 -2.10159e-10 0)
(5.0002e-05 -2.53878e-10 0)
(5.00023e-05 -2.93239e-10 0)
(5.00022e-05 -3.08271e-10 0)
(5.00026e-05 -3.29473e-10 0)
(5.00025e-05 -3.11107e-10 0)
(5.00029e-05 -3.07453e-10 0)
(5.00028e-05 -2.58508e-10 0)
(5.00031e-05 -2.25955e-10 0)
(5.00031e-05 -1.54132e-10 0)
(5.00033e-05 -9.55138e-11 0)
(5.00032e-05 -1.26151e-11 0)
(5.00033e-05 6.1171e-11 0)
(5.00018e-05 -4.24691e-11 0)
(5.00018e-05 -1.25043e-10 0)
(5.00018e-05 -2.00072e-10 0)
(5.0002e-05 -2.68486e-10 0)
(5.0002e-05 -3.25617e-10 0)
(5.00023e-05 -3.7954e-10 0)
(5.00022e-05 -4.03532e-10 0)
(5.00026e-05 -4.3631e-10 0)
(5.00026e-05 -4.21864e-10 0)
(5.0003e-05 -4.24737e-10 0)
(5.00029e-05 -3.74772e-10 0)
(5.00033e-05 -3.42261e-10 0)
(5.00032e-05 -2.64902e-10 0)
(5.00035e-05 -1.99982e-10 0)
(5.00034e-05 -1.08028e-10 0)
(5.00035e-05 -2.37532e-11 0)
(5.00017e-05 -5.38028e-11 0)
(5.00016e-05 -1.53064e-10 0)
(5.00016e-05 -2.45041e-10 0)
(5.00018e-05 -3.30487e-10 0)
(5.00018e-05 -4.01807e-10 0)
(5.00022e-05 -4.71537e-10 0)
(5.00022e-05 -5.04958e-10 0)
(5.00026e-05 -5.50474e-10 0)
(5.00026e-05 -5.40105e-10 0)
(5.0003e-05 -5.50206e-10 0)
(5.0003e-05 -4.99018e-10 0)
(5.00034e-05 -4.66444e-10 0)
(5.00034e-05 -3.82851e-10 0)
(5.00037e-05 -3.10541e-10 0)
(5.00036e-05 -2.08207e-10 0)
(5.00037e-05 -1.11471e-10 0)
(5.00016e-05 -6.58203e-11 0)
(5.00014e-05 -1.8195e-10 0)
(5.00014e-05 -2.91431e-10 0)
(5.00016e-05 -3.9463e-10 0)
(5.00017e-05 -4.80569e-10 0)
(5.00021e-05 -5.67103e-10 0)
(5.00021e-05 -6.1021e-10 0)
(5.00026e-05 -6.69507e-10 0)
(5.00026e-05 -6.63296e-10 0)
(5.00031e-05 -6.81295e-10 0)
(5.00031e-05 -6.28691e-10 0)
(5.00035e-05 -5.95927e-10 0)
(5.00036e-05 -5.05409e-10 0)
(5.00039e-05 -4.2452e-10 0)
(5.00039e-05 -3.10381e-10 0)
(5.0004e-05 -1.98947e-10 0)
(5.00013e-05 -7.82099e-11 0)
(5.00011e-05 -2.10669e-10 0)
(5.00012e-05 -3.37592e-10 0)
(5.00014e-05 -4.58753e-10 0)
(5.00015e-05 -5.59201e-10 0)
(5.00019e-05 -6.63258e-10 0)
(5.0002e-05 -7.15921e-10 0)
(5.00025e-05 -7.89994e-10 0)
(5.00026e-05 -7.87822e-10 0)
(5.00031e-05 -8.14491e-10 0)
(5.00032e-05 -7.60231e-10 0)
(5.00037e-05 -7.27265e-10 0)
(5.00038e-05 -6.2914e-10 0)
(5.00041e-05 -5.38455e-10 0)
(5.00041e-05 -4.11014e-10 0)
(5.00042e-05 -2.82368e-10 0)
(5.00011e-05 -9.05273e-11 0)
(5.00008e-05 -2.37714e-10 0)
(5.00009e-05 -3.81131e-10 0)
(5.00011e-05 -5.19657e-10 0)
(5.00012e-05 -6.33775e-10 0)
(5.00017e-05 -7.5551e-10 0)
(5.00018e-05 -8.17132e-10 0)
(5.00024e-05 -9.06677e-10 0)
(5.00025e-05 -9.08239e-10 0)
(5.00031e-05 -9.44266e-10 0)
(5.00033e-05 -8.88138e-10 0)
(5.00038e-05 -8.54968e-10 0)
(5.00039e-05 -7.4865e-10 0)
(5.00043e-05 -6.46907e-10 0)
(5.00044e-05 -5.04657e-10 0)
(5.00046e-05 -3.56031e-10 0)
(5.00007e-05 -1.02127e-10 0)
(5.00004e-05 -2.60987e-10 0)
(5.00005e-05 -4.18689e-10 0)
(5.00008e-05 -5.72881e-10 0)
(5.00009e-05 -6.98737e-10 0)
(5.00014e-05 -8.37584e-10 0)
(5.00016e-05 -9.06787e-10 0)
(5.00022e-05 -1.0122e-09 0)
(5.00024e-05 -1.01678e-09 0)
(5.00031e-05 -1.0629e-09 0)
(5.00033e-05 -1.00459e-09 0)
(5.00039e-05 -9.71424e-10 0)
(5.00042e-05 -8.56405e-10 0)
(5.00046e-05 -7.42449e-10 0)
(5.00047e-05 -5.83917e-10 0)
(5.00049e-05 -4.12327e-10 0)
(5.00003e-05 -1.12108e-10 0)
(4.99999e-05 -2.77672e-10 0)
(5e-05 -4.45779e-10 0)
(5.00004e-05 -6.12416e-10 0)
(5.00005e-05 -7.46683e-10 0)
(5.00011e-05 -9.00982e-10 0)
(5.00013e-05 -9.75474e-10 0)
(5.0002e-05 -1.09656e-09 0)
(5.00023e-05 -1.10305e-09 0)
(5.00031e-05 -1.15985e-09 0)
(5.00034e-05 -1.09911e-09 0)
(5.00041e-05 -1.06624e-09 0)
(5.00044e-05 -9.42286e-10 0)
(5.00049e-05 -8.15062e-10 0)
(5.00051e-05 -6.38954e-10 0)
(5.00054e-05 -4.41242e-10 0)
(4.99998e-05 -1.19262e-10 0)
(4.99994e-05 -2.83954e-10 0)
(4.99995e-05 -4.56297e-10 0)
(4.99999e-05 -6.30086e-10 0)
(5.00001e-05 -7.6747e-10 0)
(5.00007e-05 -9.34086e-10 0)
(5.0001e-05 -1.01018e-09 0)
(5.00018e-05 -1.146e-09 0)
(5.00021e-05 -1.15254e-09 0)
(5.0003e-05 -1.22054e-09 0)
(5.00034e-05 -1.15694e-09 0)
(5.00042e-05 -1.12505e-09 0)
(5.00046e-05 -9.92131e-10 0)
(5.00053e-05 -8.50944e-10 0)
(5.00055e-05 -6.56217e-10 0)
(5.00059e-05 -4.29179e-10 0)
(4.99993e-05 -1.21951e-10 0)
(4.99987e-05 -2.74934e-10 0)
(4.99989e-05 -4.42407e-10 0)
(4.99993e-05 -6.15386e-10 0)
(4.99995e-05 -7.48117e-10 0)
(5.00003e-05 -9.21954e-10 0)
(5.00006e-05 -9.9429e-10 0)
(5.00015e-05 -1.14281e-09 0)
(5.00019e-05 -1.14682e-09 0)
(5.00029e-05 -1.22628e-09 0)
(5.00034e-05 -1.15948e-09 0)
(5.00044e-05 -1.12951e-09 0)
(5.00049e-05 -9.88161e-10 0)
(5.00056e-05 -8.32717e-10 0)
(5.0006e-05 -6.18859e-10 0)
(5.00065e-05 -3.59326e-10 0)
(4.99987e-05 -1.18071e-10 0)
(4.99981e-05 -2.44181e-10 0)
(4.99983e-05 -3.93822e-10 0)
(4.99987e-05 -5.54447e-10 0)
(4.9999e-05 -6.71455e-10 0)
(4.99998e-05 -8.44735e-10 0)
(5.00001e-05 -9.05613e-10 0)
(5.00011e-05 -1.06331e-09 0)
(5.00017e-05 -1.06094e-09 0)
(5.00028e-05 -1.15186e-09 0)
(5.00034e-05 -1.08127e-09 0)
(5.00045e-05 -1.05478e-09 0)
(5.00052e-05 -9.06018e-10 0)
(5.00061e-05 -7.36825e-10 0)
(5.00066e-05 -5.03987e-10 0)
(5.00071e-05 -2.0909e-10 0)
(4.9998e-05 -1.04863e-10 0)
(4.99974e-05 -1.83652e-10 0)
(4.99976e-05 -2.97641e-10 0)
(4.99981e-05 -4.29931e-10 0)
(4.99984e-05 -5.16001e-10 0)
(4.99992e-05 -6.77596e-10 0)
(4.99997e-05 -7.16455e-10 0)
(5.00007e-05 -8.77884e-10 0)
(5.00014e-05 -8.63914e-10 0)
(5.00026e-05 -9.65819e-10 0)
(5.00034e-05 -8.90891e-10 0)
(5.00046e-05 -8.70043e-10 0)
(5.00055e-05 -7.1587e-10 0)
(5.00065e-05 -5.34393e-10 0)
(5.00072e-05 -2.83853e-10 0)
(5.00079e-05 4.8799e-11 0)
(4.99973e-05 -7.8871e-11 0)
(4.99967e-05 -8.31357e-11 0)
(4.99969e-05 -1.37512e-10 0)
(4.99974e-05 -2.19688e-10 0)
(4.99977e-05 -2.54323e-10 0)
(4.99986e-05 -3.88589e-10 0)
(4.99991e-05 -3.9106e-10 0)
(5.00003e-05 -5.48122e-10 0)
(5.00011e-05 -5.15264e-10 0)
(5.00024e-05 -6.27095e-10 0)
(5.00034e-05 -5.46895e-10 0)
(5.00048e-05 -5.34855e-10 0)
(5.00058e-05 -3.78206e-10 0)
(5.0007e-05 -1.87456e-10 0)
(5.00079e-05 7.81084e-11 0)
(5.00088e-05 4.49995e-10 0)
(4.99966e-05 -3.57146e-11 0)
(4.9996e-05 6.98716e-11 0)
(4.99962e-05 1.06666e-10 0)
(4.99968e-05 1.0343e-10 0)
(4.99971e-05 1.47307e-10 0)
(4.99981e-05 6.15426e-11 0)
(4.99986e-05 1.1453e-10 0)
(4.99999e-05 -2.66835e-11 0)
(5.00007e-05 3.47673e-11 0)
(5.00022e-05 -8.49679e-11 0)
(5.00033e-05 1.57642e-12 0)
(5.00049e-05 5.96846e-13 0)
(5.00061e-05 1.55199e-10 0)
(5.00076e-05 3.50304e-10 0)
(5.00087e-05 6.26119e-10 0)
(5.00098e-05 1.03741e-09 0)
(4.99959e-05 2.99794e-11 0)
(4.99954e-05 2.90692e-10 0)
(4.99956e-05 4.59498e-10 0)
(4.99962e-05 5.72917e-10 0)
(4.99965e-05 7.30502e-10 0)
(4.99975e-05 7.21623e-10 0)
(4.99981e-05 8.55198e-10 0)
(4.99994e-05 7.4581e-10 0)
(5.00003e-05 8.49057e-10 0)
(5.00019e-05 7.24666e-10 0)
(5.00032e-05 8.19377e-10 0)
(5.0005e-05 7.99595e-10 0)
(5.00065e-05 9.46016e-10 0)
(5.00082e-05 1.1378e-09 0)
(5.00096e-05 1.41645e-09 0)
(5.0011e-05 1.86538e-09 0)
(4.99953e-05 1.24786e-10 0)
(4.9995e-05 5.97636e-10 0)
(4.99951e-05 9.50506e-10 0)
(4.99958e-05 1.22892e-09 0)
(4.9996e-05 1.54538e-09 0)
(4.9997e-05 1.65057e-09 0)
(4.99976e-05 1.89736e-09 0)
(4.9999e-05 1.84163e-09 0)
(5e-05 2.00416e-09 0)
(5.00017e-05 1.88042e-09 0)
(5.00031e-05 1.98587e-09 0)
(5.00051e-05 1.93996e-09 0)
(5.00069e-05 2.06976e-09 0)
(5.00089e-05 2.2471e-09 0)
(5.00106e-05 2.51755e-09 0)
(5.00124e-05 2.99961e-09 0)
(4.99949e-05 2.5657e-10 0)
(4.99949e-05 1.01225e-09 0)
(4.99949e-05 1.61443e-09 0)
(4.99955e-05 2.11909e-09 0)
(4.99957e-05 2.6515e-09 0)
(4.99967e-05 2.91903e-09 0)
(4.99972e-05 3.32115e-09 0)
(4.99986e-05 3.3485e-09 0)
(4.99996e-05 3.59381e-09 0)
(5.00014e-05 3.4788e-09 0)
(5.0003e-05 3.59935e-09 0)
(5.00052e-05 3.51794e-09 0)
(5.00072e-05 3.6203e-09 0)
(5.00096e-05 3.76743e-09 0)
(5.00117e-05 4.01401e-09 0)
(5.00139e-05 4.52101e-09 0)
(4.99948e-05 4.34577e-10 0)
(4.99951e-05 1.55934e-09 0)
(4.99951e-05 2.49147e-09 0)
(4.99956e-05 3.29863e-09 0)
(4.99956e-05 4.11842e-09 0)
(4.99966e-05 4.60995e-09 0)
(4.9997e-05 5.22127e-09 0)
(4.99983e-05 5.3711e-09 0)
(4.99993e-05 5.73051e-09 0)
(5.00011e-05 5.63683e-09 0)
(5.00029e-05 5.77948e-09 0)
(5.00053e-05 5.65148e-09 0)
(5.00076e-05 5.71287e-09 0)
(5.00104e-05 5.80817e-09 0)
(5.00129e-05 6.00924e-09 0)
(5.00156e-05 6.52786e-09 0)
(4.9995e-05 6.69459e-10 0)
(4.99959e-05 2.26654e-09 0)
(4.99958e-05 3.62649e-09 0)
(4.99962e-05 4.82984e-09 0)
(4.9996e-05 6.02492e-09 0)
(4.99968e-05 6.81853e-09 0)
(4.9997e-05 7.7074e-09 0)
(4.99982e-05 8.0321e-09 0)
(4.99992e-05 8.54757e-09 0)
(5.00009e-05 8.49454e-09 0)
(5.00028e-05 8.67095e-09 0)
(5.00053e-05 8.48397e-09 0)
(5.0008e-05 8.48824e-09 0)
(5.00112e-05 8.50289e-09 0)
(5.00142e-05 8.62924e-09 0)
(5.00175e-05 9.13951e-09 0)
(4.99959e-05 9.7307e-10 0)
(4.99975e-05 3.16366e-09 0)
(4.99972e-05 5.06825e-09 0)
(4.99975e-05 6.78077e-09 0)
(4.9997e-05 8.45824e-09 0)
(4.99976e-05 9.6512e-09 0)
(4.99975e-05 1.09041e-08 0)
(4.99984e-05 1.14728e-08 0)
(4.99992e-05 1.2201e-08 0)
(5.00008e-05 1.22181e-08 0)
(5.00027e-05 1.24481e-08 0)
(5.00053e-05 1.21897e-08 0)
(5.00083e-05 1.21196e-08 0)
(5.00119e-05 1.20158e-08 0)
(5.00156e-05 1.20293e-08 0)
(5.00196e-05 1.25022e-08 0)
(4.99975e-05 1.3582e-09 0)
(5.00001e-05 4.28094e-09 0)
(4.99995e-05 6.86642e-09 0)
(4.99996e-05 9.222e-09 0)
(4.99988e-05 1.15096e-08 0)
(4.9999e-05 1.32221e-08 0)
(4.99985e-05 1.49467e-08 0)
(4.99991e-05 1.58506e-08 0)
(4.99995e-05 1.68677e-08 0)
(5.00009e-05 1.70006e-08 0)
(5.00026e-05 1.73162e-08 0)
(5.00053e-05 1.6978e-08 0)
(5.00085e-05 1.68165e-08 0)
(5.00126e-05 1.65469e-08 0)
(5.0017e-05 1.63983e-08 0)
(5.00219e-05 1.67929e-08 0)
(5.00001e-05 1.83781e-09 0)
(5.00041e-05 5.64664e-09 0)
(5.00032e-05 9.06815e-09 0)
(5.0003e-05 1.22215e-08 0)
(5.00016e-05 1.52697e-08 0)
(5.00014e-05 1.76467e-08 0)
(5.00003e-05 1.99773e-08 0)
(5.00003e-05 2.13351e-08 0)
(5.00002e-05 2.27445e-08 0)
(5.00011e-05 2.30621e-08 0)
(5.00027e-05 2.3517e-08 0)
(5.00052e-05 2.30993e-08 0)
(5.00087e-05 2.28356e-08 0)
(5.00132e-05 2.23415e-08 0)
(5.00184e-05 2.1969e-08 0)
(5.00243e-05 2.22265e-08 0)
(5.00041e-05 2.42398e-09 0)
(5.00097e-05 7.28302e-09 0)
(5.00084e-05 1.17113e-08 0)
(5.00078e-05 1.58365e-08 0)
(5.00058e-05 1.98167e-08 0)
(5.0005e-05 2.30314e-08 0)
(5.00031e-05 2.61311e-08 0)
(5.00024e-05 2.80973e-08 0)
(5.00015e-05 3.00372e-08 0)
(5.00018e-05 3.06452e-08 0)
(5.00028e-05 3.13256e-08 0)
(5.00051e-05 3.08507e-08 0)
(5.00086e-05 3.04892e-08 0)
(5.00136e-05 2.9704e-08 0)
(5.00196e-05 2.90317e-08 0)
(5.00268e-05 2.90688e-08 0)
(5.00098e-05 3.12621e-09 0)
(5.00173e-05 9.20079e-09 0)
(5.00156e-05 1.48159e-08 0)
(5.00145e-05 2.0101e-08 0)
(5.00118e-05 2.52036e-08 0)
(5.00101e-05 2.94554e-08 0)
(5.00073e-05 3.35206e-08 0)
(5.00056e-05 3.62915e-08 0)
(5.00037e-05 3.89486e-08 0)
(5.0003e-05 4.00041e-08 0)
(5.00033e-05 4.10505e-08 0)
(5.00049e-05 4.05836e-08 0)
(5.00084e-05 4.01678e-08 0)
(5.00137e-05 3.90304e-08 0)
(5.00206e-05 3.79824e-08 0)
(5.00293e-05 3.76893e-08 0)
(5.00176e-05 3.94902e-09 0)
(5.00275e-05 1.13921e-08 0)
(5.00252e-05 1.83723e-08 0)
(5.00236e-05 2.50097e-08 0)
(5.002e-05 3.14354e-08 0)
(5.00173e-05 3.6947e-08 0)
(5.00132e-05 4.2205e-08 0)
(5.00103e-05 4.60257e-08 0)
(5.0007e-05 4.96432e-08 0)
(5.0005e-05 5.13759e-08 0)
(5.00041e-05 5.30064e-08 0)
(5.00048e-05 5.26887e-08 0)
(5.00079e-05 5.23341e-08 0)
(5.00133e-05 5.08198e-08 0)
(5.00212e-05 4.93521e-08 0)
(5.00317e-05 4.85948e-08 0)
(5.00279e-05 4.8889e-09 0)
(5.00405e-05 1.38211e-08 0)
(5.00377e-05 2.23261e-08 0)
(5.00354e-05 3.04968e-08 0)
(5.00308e-05 3.8443e-08 0)
(5.00269e-05 4.54485e-08 0)
(5.00214e-05 5.21519e-08 0)
(5.00169e-05 5.73156e-08 0)
(5.00119e-05 6.22026e-08 0)
(5.00082e-05 6.49326e-08 0)
(5.00057e-05 6.74707e-08 0)
(5.0005e-05 6.75527e-08 0)
(5.00072e-05 6.74765e-08 0)
(5.00124e-05 6.56124e-08 0)
(5.00212e-05 6.37061e-08 0)
(5.00337e-05 6.22698e-08 0)
(5.00411e-05 5.93039e-09 0)
(5.00569e-05 1.64153e-08 0)
(5.00535e-05 2.65625e-08 0)
(5.00504e-05 3.64125e-08 0)
(5.00446e-05 4.60505e-08 0)
(5.00394e-05 5.47754e-08 0)
(5.00323e-05 6.31846e-08 0)
(5.0026e-05 7.00255e-08 0)
(5.0019e-05 7.6559e-08 0)
(5.00131e-05 8.07211e-08 0)
(5.00084e-05 8.46387e-08 0)
(5.00056e-05 8.55491e-08 0)
(5.00064e-05 8.61418e-08 0)
(5.00107e-05 8.40581e-08 0)
(5.00203e-05 8.1657e-08 0)
(5.0035e-05 7.90753e-08 0)
(5.00576e-05 7.04213e-09 0)
(5.00769e-05 1.90548e-08 0)
(5.00728e-05 3.08894e-08 0)
(5.00689e-05 4.24973e-08 0)
(5.0062e-05 5.39383e-08 0)
(5.00554e-05 6.45645e-08 0)
(5.00465e-05 7.49148e-08 0)
(5.00382e-05 8.37813e-08 0)
(5.00288e-05 9.23936e-08 0)
(5.00203e-05 9.856e-08 0)
(5.00128e-05 1.04558e-07 0)
(5.00073e-05 1.07082e-07 0)
(5.00056e-05 1.09229e-07 0)
(5.00081e-05 1.07627e-07 0)
(5.00177e-05 1.05144e-07 0)
(5.00351e-05 1.01072e-07 0)
(5.00778e-05 8.17263e-09 0)
(5.01007e-05 2.15675e-08 0)
(5.0096e-05 3.50264e-08 0)
(5.00913e-05 4.83629e-08 0)
(5.00833e-05 6.1612e-08 0)
(5.00752e-05 7.42227e-08 0)
(5.00645e-05 8.66592e-08 0)
(5.0054e-05 9.78402e-08 0)
(5.00421e-05 1.08938e-07 0)
(5.00308e-05 1.17751e-07 0)
(5.00201e-05 1.26737e-07 0)
(5.0011e-05 1.3213e-07 0)
(5.00058e-05 1.37634e-07 0)
(5.00051e-05 1.38738e-07 0)
(5.0013e-05 1.38952e-07 0)
(5.00328e-05 1.35827e-07 0)
(5.01018e-05 9.24803e-09 0)
(5.01283e-05 2.37299e-08 0)
(5.01231e-05 3.8606e-08 0)
(5.01176e-05 5.34908e-08 0)
(5.01085e-05 6.83935e-08 0)
(5.0099e-05 8.29024e-08 0)
(5.00866e-05 9.73841e-08 0)
(5.00741e-05 1.10974e-07 0)
(5.00596e-05 1.24736e-07 0)
(5.00455e-05 1.36623e-07 0)
(5.00315e-05 1.4927e-07 0)
(5.00188e-05 1.58659e-07 0)
(5.00097e-05 1.6945e-07 0)
(5.0005e-05 1.76214e-07 0)
(5.00094e-05 1.84136e-07 0)
(5.00283e-05 1.8869e-07 0)
(5.01296e-05 1.01726e-08 0)
(5.01595e-05 2.52794e-08 0)
(5.01538e-05 4.1194e-08 0)
(5.01476e-05 5.72613e-08 0)
(5.01375e-05 7.34607e-08 0)
(5.01268e-05 8.95518e-08 0)
(5.01128e-05 1.05768e-07 0)
(5.00984e-05 1.21534e-07 0)
(5.00815e-05 1.37698e-07 0)
(5.00649e-05 1.52494e-07 0)
(5.00477e-05 1.68554e-07 0)
(5.00316e-05 1.8169e-07 0)
(5.00189e-05 1.97441e-07 0)
(5.00102e-05 2.09319e-07 0)
(5.001e-05 2.24545e-07 0)
(5.0023e-05 2.36644e-07 0)
(5.01609e-05 1.08339e-08 0)
(5.01936e-05 2.59361e-08 0)
(5.01875e-05 4.23271e-08 0)
(5.01807e-05 5.9012e-08 0)
(5.01698e-05 7.59354e-08 0)
(5.0158e-05 9.30495e-08 0)
(5.01426e-05 1.10414e-07 0)
(5.01265e-05 1.27802e-07 0)
(5.01074e-05 1.45703e-07 0)
(5.00881e-05 1.6275e-07 0)
(5.00676e-05 1.8123e-07 0)
(5.00479e-05 1.96812e-07 0)
(5.00309e-05 2.15424e-07 0)
(5.0017e-05 2.28859e-07 0)
(5.00107e-05 2.45691e-07 0)
(5.00149e-05 2.57064e-07 0)
(5.01951e-05 1.11125e-08 0)
(5.02298e-05 2.5427e-08 0)
(5.02233e-05 4.15547e-08 0)
(5.02161e-05 5.80997e-08 0)
(5.02045e-05 7.49709e-08 0)
(5.01918e-05 9.23242e-08 0)
(5.01752e-05 1.10021e-07 0)
(5.01575e-05 1.28238e-07 0)
(5.01362e-05 1.46986e-07 0)
(5.01144e-05 1.65488e-07 0)
(5.00901e-05 1.85346e-07 0)
(5.00662e-05 2.0243e-07 0)
(5.00436e-05 2.22701e-07 0)
(5.00226e-05 2.36094e-07 0)
(5.00083e-05 2.53354e-07 0)
(5.00039e-05 2.6251e-07 0)
(5.02314e-05 1.08916e-08 0)
(5.02669e-05 2.35099e-08 0)
(5.02601e-05 3.84768e-08 0)
(5.02525e-05 5.39527e-08 0)
(5.02404e-05 6.98145e-08 0)
(5.02269e-05 8.64186e-08 0)
(5.02094e-05 1.03421e-07 0)
(5.01902e-05 1.21446e-07 0)
(5.0167e-05 1.39943e-07 0)
(5.01426e-05 1.58946e-07 0)
(5.01144e-05 1.79027e-07 0)
(5.00857e-05 1.96893e-07 0)
(5.00563e-05 2.17877e-07 0)
(5.00267e-05 2.30529e-07 0)
(5.00032e-05 2.48814e-07 0)
(4.99887e-05 2.5458e-07 0)
(5.02686e-05 1.00676e-08 0)
(5.03033e-05 1.99882e-08 0)
(5.02964e-05 3.27669e-08 0)
(5.02885e-05 4.60946e-08 0)
(5.0276e-05 5.98236e-08 0)
(5.02619e-05 7.44857e-08 0)
(5.02437e-05 8.95482e-08 0)
(5.02233e-05 1.06091e-07 0)
(5.01984e-05 1.2299e-07 0)
(5.01716e-05 1.41281e-07 0)
(5.01394e-05 1.6021e-07 0)
(5.01057e-05 1.78202e-07 0)
(5.00684e-05 1.98803e-07 0)
(5.00292e-05 2.11062e-07 0)
(4.99947e-05 2.31448e-07 0)
(4.99656e-05 2.3326e-07 0)
(5.03051e-05 8.55682e-09 0)
(5.03375e-05 1.47073e-08 0)
(5.03304e-05 2.41604e-08 0)
(5.03222e-05 3.41159e-08 0)
(5.03095e-05 4.44085e-08 0)
(5.02949e-05 5.57134e-08 0)
(5.02762e-05 6.73581e-08 0)
(5.02549e-05 8.08478e-08 0)
(5.02287e-05 9.45604e-08 0)
(5.01997e-05 1.10611e-07 0)
(5.01639e-05 1.26849e-07 0)
(5.01254e-05 1.44301e-07 0)
(5.00798e-05 1.63334e-07 0)
(5.00314e-05 1.76945e-07 0)
(4.99845e-05 1.98682e-07 0)
(4.99325e-05 1.94383e-07 0)
(5.03393e-05 6.29419e-09 0)
(5.03676e-05 7.59266e-09 0)
(5.03603e-05 1.25606e-08 0)
(5.03518e-05 1.79195e-08 0)
(5.03386e-05 2.35327e-08 0)
(5.03235e-05 3.01715e-08 0)
(5.03044e-05 3.70468e-08 0)
(5.02823e-05 4.59975e-08 0)
(5.02553e-05 5.5036e-08 0)
(5.02245e-05 6.72275e-08 0)
(5.01862e-05 7.93466e-08 0)
(5.0144e-05 9.50578e-08 0)
(5.00921e-05 1.10164e-07 0)
(5.0034e-05 1.24342e-07 0)
(4.99665e-05 1.38869e-07 0)
(4.98825e-05 1.23854e-07 0)
(5.03695e-05 3.24768e-09 0)
(5.03912e-05 -1.03593e-09 0)
(5.03837e-05 -1.40903e-09 0)
(5.03748e-05 -1.36993e-09 0)
(5.03614e-05 -8.12208e-10 0)
(5.03463e-05 7.84323e-10 0)
(5.03277e-05 2.16926e-09 0)
(5.0306e-05 5.28603e-09 0)
(5.02794e-05 7.76401e-09 0)
(5.02484e-05 1.29792e-08 0)
(5.02088e-05 1.68885e-08 0)
(5.01617e-05 2.45116e-08 0)
(5.01007e-05 2.77909e-08 0)
(5.00284e-05 3.10977e-08 0)
(4.99305e-05 2.72172e-08 0)
(4.98095e-05 2.13762e-09 0)
(5.03931e-05 -4.57037e-10 0)
(5.04103e-05 -1.05941e-08 0)
(5.04031e-05 -1.70339e-08 0)
(5.03946e-05 -2.32757e-08 0)
(5.03813e-05 -2.90366e-08 0)
(5.03648e-05 -3.44677e-08 0)
(5.03441e-05 -4.13913e-08 0)
(5.03197e-05 -4.82147e-08 0)
(5.02901e-05 -5.76216e-08 0)
(5.0255e-05 -6.65491e-08 0)
(5.02111e-05 -8.00319e-08 0)
(5.01569e-05 -9.20126e-08 0)
(5.00848e-05 -1.11073e-07 0)
(4.99959e-05 -1.28168e-07 0)
(4.98716e-05 -1.53545e-07 0)
(4.97182e-05 -1.84428e-07 0)
(5.04121e-05 -4.5599e-09 0)
(5.04171e-05 -2.36197e-08 0)
(5.04088e-05 -3.88482e-08 0)
(5.03985e-05 -5.49657e-08 0)
(5.03831e-05 -7.24705e-08 0)
(5.03625e-05 -9.11736e-08 0)
(5.03366e-05 -1.12559e-07 0)
(5.03055e-05 -1.35716e-07 0)
(5.02685e-05 -1.6331e-07 0)
(5.02244e-05 -1.92443e-07 0)
(5.01712e-05 -2.28135e-07 0)
(5.01066e-05 -2.63341e-07 0)
(5.00243e-05 -3.06616e-07 0)
(4.9923e-05 -3.44815e-07 0)
(4.97842e-05 -3.90974e-07 0)
(4.96118e-05 -4.27575e-07 0)
(5.04192e-05 -1.01168e-08 0)
(5.03937e-05 -4.48223e-08 0)
(5.03826e-05 -7.39938e-08 0)
(5.03678e-05 -1.05089e-07 0)
(5.03469e-05 -1.38898e-07 0)
(5.03203e-05 -1.75039e-07 0)
(5.02875e-05 -2.1476e-07 0)
(5.02484e-05 -2.5727e-07 0)
(5.02026e-05 -3.04995e-07 0)
(5.01489e-05 -3.55029e-07 0)
(5.00862e-05 -4.11869e-07 0)
(5.00117e-05 -4.68006e-07 0)
(4.99209e-05 -5.31933e-07 0)
(4.98105e-05 -5.87855e-07 0)
(4.96665e-05 -6.51207e-07 0)
(4.94899e-05 -6.92901e-07 0)
(5.03969e-05 -1.91624e-08 0)
(5.0326e-05 -7.32887e-08 0)
(5.03119e-05 -1.20526e-07 0)
(5.02926e-05 -1.70056e-07 0)
(5.02661e-05 -2.2243e-07 0)
(5.02329e-05 -2.77409e-07 0)
(5.0193e-05 -3.36058e-07 0)
(5.01457e-05 -3.97549e-07 0)
(5.00916e-05 -4.6386e-07 0)
(5.0029e-05 -5.3212e-07 0)
(4.99581e-05 -6.06262e-07 0)
(4.98756e-05 -6.78666e-07 0)
(4.978e-05 -7.57318e-07 0)
(4.96661e-05 -8.24662e-07 0)
(4.95267e-05 -8.96954e-07 0)
(4.93606e-05 -9.37955e-07 0)
(5.03305e-05 -3.13341e-08 0)
(5.02065e-05 -1.0472e-07 0)
(5.01901e-05 -1.71427e-07 0)
(5.01671e-05 -2.4022e-07 0)
(5.01362e-05 -3.11229e-07 0)
(5.00979e-05 -3.84289e-07 0)
(5.00522e-05 -4.60135e-07 0)
(4.99988e-05 -5.38027e-07 0)
(4.99385e-05 -6.19452e-07 0)
(4.98697e-05 -7.01715e-07 0)
(4.97938e-05 -7.88106e-07 0)
(4.97073e-05 -8.71185e-07 0)
(4.96118e-05 -9.5818e-07 0)
(4.95016e-05 -1.03093e-06 0)
(4.93761e-05 -1.10559e-06 0)
(4.92322e-05 -1.14319e-06 0)
(5.0212e-05 -4.4802e-08 0)
(5.00354e-05 -1.33719e-07 0)
(5.0018e-05 -2.18161e-07 0)
(4.99933e-05 -3.04246e-07 0)
(4.99601e-05 -3.91551e-07 0)
(4.99191e-05 -4.7992e-07 0)
(4.98704e-05 -5.69688e-07 0)
(4.98138e-05 -6.60278e-07 0)
(4.97504e-05 -7.52679e-07 0)
(4.96791e-05 -8.44514e-07 0)
(4.9602e-05 -9.38367e-07 0)
(4.95163e-05 -1.02732e-06 0)
(4.94262e-05 -1.11767e-06 0)
(4.93261e-05 -1.19197e-06 0)
(4.92213e-05 -1.26575e-06 0)
(4.91069e-05 -1.30059e-06 0)
(5.00415e-05 -5.72491e-08 0)
(4.98214e-05 -1.55284e-07 0)
(4.98041e-05 -2.52908e-07 0)
(4.97794e-05 -3.51884e-07 0)
(4.97462e-05 -4.51263e-07 0)
(4.9705e-05 -5.50851e-07 0)
(4.96562e-05 -6.50522e-07 0)
(4.95997e-05 -7.49851e-07 0)
(4.95367e-05 -8.4928e-07 0)
(4.94665e-05 -9.46837e-07 0)
(4.93922e-05 -1.04433e-06 0)
(4.93116e-05 -1.13575e-06 0)
(4.92313e-05 -1.22626e-06 0)
(4.91463e-05 -1.30027e-06 0)
(4.90666e-05 -1.37198e-06 0)
(4.89861e-05 -1.4056e-06 0)
(4.98276e-05 -6.65139e-08 0)
(4.9579e-05 -1.66407e-07 0)
(4.95624e-05 -2.70925e-07 0)
(4.95387e-05 -3.76844e-07 0)
(4.95069e-05 -4.82847e-07 0)
(4.94674e-05 -5.88728e-07 0)
(4.94208e-05 -6.939e-07 0)
(4.93668e-05 -7.98031e-07 0)
(4.9307e-05 -9.00945e-07 0)
(4.92411e-05 -1.00109e-06 0)
(4.91728e-05 -1.09943e-06 0)
(4.91011e-05 -1.19111e-06 0)
(4.90337e-05 -1.28005e-06 0)
(4.89673e-05 -1.35323e-06 0)
(4.89152e-05 -1.4228e-06 0)
(4.88706e-05 -1.45702e-06 0)
(4.9585e-05 -7.12916e-08 0)
(4.93249e-05 -1.66704e-07 0)
(4.9309e-05 -2.715e-07 0)
(4.92864e-05 -3.77961e-07 0)
(4.92564e-05 -4.84646e-07 0)
(4.92194e-05 -5.91454e-07 0)
(4.91759e-05 -6.97463e-07 0)
(4.9126e-05 -8.02411e-07 0)
(4.90712e-05 -9.05478e-07 0)
(4.90119e-05 -1.00551e-06 0)
(4.89518e-05 -1.10256e-06 0)
(4.88912e-05 -1.19309e-06 0)
(4.88389e-05 -1.27954e-06 0)
(4.8793e-05 -1.35195e-06 0)
(4.87693e-05 -1.41968e-06 0)
(4.87609e-05 -1.4562e-06 0)
(4.93306e-05 -7.14158e-08 0)
(4.90745e-05 -1.58167e-07 0)
(4.9059e-05 -2.57629e-07 0)
(4.90372e-05 -3.58889e-07 0)
(4.90085e-05 -4.60599e-07 0)
(4.89737e-05 -5.62945e-07 0)
(4.89333e-05 -6.64936e-07 0)
(4.88876e-05 -7.6648e-07 0)
(4.88385e-05 -8.66228e-07 0)
(4.87866e-05 -9.63444e-07 0)
(4.87359e-05 -1.05726e-06 0)