/*--------------------------------*- C++ -*----------------------------------*\
| =========                 |                                                 |
| \\      /  F ield         | foam-extend: Open Source CFD                    |
|  \\    /   O peration     | Version:     4.1-20200408                       |
|   \\  /    A nd           | Web:         http://www.foam-extend.org         |
|    \\/     M anipulation  |                                                 |
\*---------------------------------------------------------------------------*/
FoamFile
{
    version     2.0;
    format      ascii;
    class       volVectorField;
    location    "0.0375000";
    object      U_0_0;
}
// * * * * * * * * * * * * * * * * * * * * * * * * * * * * * * * * * * * * * //

dimensions      [0 1 0 0 0 0 0];

internalField   nonuniform List<vector> 
1952
(
(0.0370939 -1.02646e-06 0)
(0.0370938 -1.67055e-06 0)
(0.0370936 -2.32294e-06 0)
(0.0370934 -2.97598e-06 0)
(0.0370931 -3.62971e-06 0)
(0.0370927 -4.28001e-06 0)
(0.0370924 -4.93001e-06 0)
(0.037092 -5.57325e-06 0)
(0.0370915 -6.21408e-06 0)
(0.0370911 -6.84464e-06 0)
(0.0370907 -7.46753e-06 0)
(0.0370903 -8.07557e-06 0)
(0.0370901 -8.66334e-06 0)
(0.0370899 -9.23026e-06 0)
(0.0370899 -9.75685e-06 0)
(0.037094 -4.39742e-07 0)
(0.0370926 -1.02981e-06 0)
(0.0370925 -1.67598e-06 0)
(0.0370923 -2.33051e-06 0)
(0.037092 -2.98558e-06 0)
(0.0370918 -3.64143e-06 0)
(0.0370914 -4.29374e-06 0)
(0.037091 -4.94571e-06 0)
(0.0370906 -5.59086e-06 0)
(0.0370902 -6.23356e-06 0)
(0.0370898 -6.86588e-06 0)
(0.0370894 -7.4905e-06 0)
(0.037089 -8.10013e-06 0)
(0.0370888 -8.68943e-06 0)
(0.0370886 -9.25771e-06 0)
(0.0370886 -9.7857e-06 0)
(0.0370926 -4.41178e-07 0)
(0.0370913 -1.033e-06 0)
(0.0370911 -1.68115e-06 0)
(0.0370909 -2.33771e-06 0)
(0.0370907 -2.99473e-06 0)
(0.0370904 -3.65257e-06 0)
(0.0370901 -4.3068e-06 0)
(0.0370897 -4.96067e-06 0)
(0.0370893 -5.60765e-06 0)
(0.0370889 -6.25214e-06 0)
(0.0370884 -6.88616e-06 0)
(0.037088 -7.51243e-06 0)
(0.0370877 -8.12361e-06 0)
(0.0370874 -8.71442e-06 0)
(0.0370872 -9.28408e-06 0)
(0.0370873 -9.81351e-06 0)
(0.0370913 -4.42545e-07 0)
(0.0370899 -1.03606e-06 0)
(0.0370898 -1.6861e-06 0)
(0.0370896 -2.3446e-06 0)
(0.0370894 -3.00348e-06 0)
(0.0370891 -3.66324e-06 0)
(0.0370887 -4.31931e-06 0)
(0.0370883 -4.97501e-06 0)
(0.0370879 -5.62375e-06 0)
(0.0370875 -6.26996e-06 0)
(0.0370871 -6.90564e-06 0)
(0.0370867 -7.53352e-06 0)
(0.0370863 -8.14624e-06 0)
(0.0370861 -8.73854e-06 0)
(0.0370859 -9.30961e-06 0)
(0.0370859 -9.84049e-06 0)
(0.03709 -4.43853e-07 0)
(0.0370886 -1.039e-06 0)
(0.0370884 -1.69086e-06 0)
(0.0370883 -2.35123e-06 0)
(0.037088 -3.01191e-06 0)
(0.0370877 -3.6735e-06 0)
(0.0370874 -4.33135e-06 0)
(0.037087 -4.98883e-06 0)
(0.0370866 -5.63927e-06 0)
(0.0370862 -6.28716e-06 0)
(0.0370857 -6.92446e-06 0)
(0.0370853 -7.55393e-06 0)
(0.037085 -8.16818e-06 0)
(0.0370847 -8.76197e-06 0)
(0.0370845 -9.33446e-06 0)
(0.0370846 -9.86682e-06 0)
(0.0370886 -4.4511e-07 0)
(0.0370872 -1.04184e-06 0)
(0.0370871 -1.69546e-06 0)
(0.0370869 -2.35763e-06 0)
(0.0370867 -3.02005e-06 0)
(0.0370864 -3.68342e-06 0)
(0.037086 -4.34299e-06 0)
(0.0370857 -5.00219e-06 0)
(0.0370852 -5.6543e-06 0)
(0.0370848 -6.30385e-06 0)
(0.0370844 -6.94275e-06 0)
(0.037084 -7.57379e-06 0)
(0.0370836 -8.18956e-06 0)
(0.0370833 -8.78484e-06 0)
(0.0370832 -9.35877e-06 0)
(0.0370832 -9.89261e-06 0)
(0.0370873 -4.46324e-07 0)
(0.0370859 -1.04459e-06 0)
(0.0370857 -1.69992e-06 0)
(0.0370856 -2.36384e-06 0)
(0.0370853 -3.02796e-06 0)
(0.037085 -3.69306e-06 0)
(0.0370847 -4.35431e-06 0)
(0.0370843 -5.0152e-06 0)
(0.0370839 -5.66895e-06 0)
(0.0370834 -6.32012e-06 0)
(0.037083 -6.9606e-06 0)
(0.0370826 -7.59321e-06 0)
(0.0370822 -8.21049e-06 0)
(0.037082 -8.80728e-06 0)
(0.0370818 -9.38265e-06 0)
(0.0370818 -9.91797e-06 0)
(0.0370859 -4.47502e-07 0)
(0.0370845 -1.04727e-06 0)
(0.0370844 -1.70426e-06 0)
(0.0370842 -2.3699e-06 0)
(0.037084 -3.03567e-06 0)
(0.0370837 -3.70246e-06 0)
(0.0370833 -4.36536e-06 0)
(0.0370829 -5.02791e-06 0)
(0.0370825 -5.68327e-06 0)
(0.0370821 -6.33606e-06 0)
(0.0370816 -6.97809e-06 0)
(0.0370812 -7.61227e-06 0)
(0.0370809 -8.23106e-06 0)
(0.0370806 -8.82936e-06 0)
(0.0370805 -9.40617e-06 0)
(0.0370805 -9.94297e-06 0)
(0.0370846 -4.4865e-07 0)
(0.0370832 -1.04989e-06 0)
(0.037083 -1.70852e-06 0)
(0.0370829 -2.37582e-06 0)
(0.0370826 -3.04322e-06 0)
(0.0370823 -3.71167e-06 0)
(0.037082 -4.3762e-06 0)
(0.0370816 -5.04039e-06 0)
(0.0370811 -5.69733e-06 0)
(0.0370807 -6.35172e-06 0)
(0.0370803 -6.99531e-06 0)
(0.0370799 -7.63105e-06 0)
(0.0370795 -8.25135e-06 0)
(0.0370793 -8.85115e-06 0)
(0.0370791 -9.42941e-06 0)
(0.0370791 -9.96769e-06 0)
(0.0370832 -4.49772e-07 0)
(0.0370818 -1.05247e-06 0)
(0.0370817 -1.7127e-06 0)
(0.0370815 -2.38164e-06 0)
(0.0370812 -3.05064e-06 0)
(0.0370809 -3.72072e-06 0)
(0.0370806 -4.38686e-06 0)
(0.0370802 -5.05267e-06 0)
(0.0370798 -5.71119e-06 0)
(0.0370794 -6.36717e-06 0)
(0.0370789 -7.01231e-06 0)
(0.0370785 -7.6496e-06 0)
(0.0370782 -8.27141e-06 0)
(0.0370779 -8.87271e-06 0)
(0.0370777 -9.45242e-06 0)
(0.0370777 -9.99218e-06 0)
(0.0370818 -4.50875e-07 0)
(0.0370804 -1.05501e-06 0)
(0.0370803 -1.71681e-06 0)
(0.0370801 -2.38739e-06 0)
(0.0370799 -3.05795e-06 0)
(0.0370796 -3.72965e-06 0)
(0.0370792 -4.39738e-06 0)
(0.0370788 -5.0648e-06 0)
(0.0370784 -5.72489e-06 0)
(0.037078 -6.38245e-06 0)
(0.0370775 -7.02914e-06 0)
(0.0370771 -7.66797e-06 0)
(0.0370768 -8.2913e-06 0)
(0.0370765 -8.89411e-06 0)
(0.0370764 -9.47527e-06 0)
(0.0370764 -1.00165e-05 0)
(0.0370805 -4.51962e-07 0)
(0.0370791 -1.05753e-06 0)
(0.0370789 -1.72089e-06 0)
(0.0370788 -2.39307e-06 0)
(0.0370785 -3.06519e-06 0)
(0.0370782 -3.73849e-06 0)
(0.0370779 -4.4078e-06 0)
(0.0370775 -5.07682e-06 0)
(0.037077 -5.73846e-06 0)
(0.0370766 -6.39761e-06 0)
(0.0370762 -7.04583e-06 0)
(0.0370758 -7.68622e-06 0)
(0.0370754 -8.31105e-06 0)
(0.0370751 -8.91537e-06 0)
(0.037075 -9.49798e-06 0)
(0.037075 -1.00407e-05 0)
(0.0370791 -4.53037e-07 0)
(0.0370777 -1.06001e-06 0)
(0.0370776 -1.72492e-06 0)
(0.0370774 -2.3987e-06 0)
(0.0370771 -3.07236e-06 0)
(0.0370768 -3.74726e-06 0)
(0.0370765 -4.41813e-06 0)
(0.0370761 -5.08874e-06 0)
(0.0370757 -5.75193e-06 0)
(0.0370752 -6.41267e-06 0)
(0.0370748 -7.06242e-06 0)
(0.0370744 -7.70435e-06 0)
(0.037074 -8.3307e-06 0)
(0.0370738 -8.93652e-06 0)
(0.0370736 -9.52058e-06 0)
(0.0370736 -1.00647e-05 0)
(0.0370777 -4.54101e-07 0)
(0.0370763 -1.06247e-06 0)
(0.0370762 -1.72892e-06 0)
(0.037076 -2.40425e-06 0)
(0.0370758 -3.0795e-06 0)
(0.0370755 -3.756e-06 0)
(0.0370751 -4.4284e-06 0)
(0.0370747 -5.10061e-06 0)
(0.0370743 -5.76532e-06 0)
(0.0370739 -6.42766e-06 0)
(0.0370734 -7.07891e-06 0)
(0.037073 -7.72239e-06 0)
(0.0370726 -8.35027e-06 0)
(0.0370724 -8.95758e-06 0)
(0.0370722 -9.54308e-06 0)
(0.0370722 -1.00887e-05 0)
(0.0370764 -4.55152e-07 0)
(0.037075 -1.0649e-06 0)
(0.0370748 -1.73288e-06 0)
(0.0370746 -2.40976e-06 0)
(0.0370744 -3.08658e-06 0)
(0.0370741 -3.76468e-06 0)
(0.0370737 -4.43861e-06 0)
(0.0370733 -5.11241e-06 0)
(0.0370729 -5.77865e-06 0)
(0.0370725 -6.44258e-06 0)
(0.037072 -7.09533e-06 0)
(0.0370716 -7.74033e-06 0)
(0.0370713 -8.36975e-06 0)
(0.037071 -8.97855e-06 0)
(0.0370708 -9.5655e-06 0)
(0.0370708 -1.01126e-05 0)
(0.037075 -4.56195e-07 0)
(0.0370736 -1.06732e-06 0)
(0.0370734 -1.73683e-06 0)
(0.0370733 -2.41524e-06 0)
(0.037073 -3.09361e-06 0)
(0.0370727 -3.77328e-06 0)
(0.0370723 -4.44875e-06 0)
(0.037072 -5.12414e-06 0)
(0.0370715 -5.7919e-06 0)
(0.0370711 -6.45741e-06 0)
(0.0370706 -7.11168e-06 0)
(0.0370702 -7.75821e-06 0)
(0.0370699 -8.38917e-06 0)
(0.0370696 -8.99944e-06 0)
(0.0370695 -9.58782e-06 0)
(0.0370695 -1.01363e-05 0)
(0.0370736 -4.57232e-07 0)
(0.0370722 -1.06972e-06 0)
(0.0370721 -1.74074e-06 0)
(0.0370719 -2.42068e-06 0)
(0.0370716 -3.10058e-06 0)
(0.0370713 -3.78182e-06 0)
(0.037071 -4.45882e-06 0)
(0.0370706 -5.13577e-06 0)
(0.0370701 -5.80508e-06 0)
(0.0370697 -6.47214e-06 0)
(0.0370693 -7.12795e-06 0)
(0.0370689 -7.77602e-06 0)
(0.0370685 -8.40851e-06 0)
(0.0370682 -9.02027e-06 0)
(0.0370681 -9.61005e-06 0)
(0.0370681 -1.016e-05 0)
(0.0370722 -4.58261e-07 0)
(0.0370708 -1.07211e-06 0)
(0.0370707 -1.74462e-06 0)
(0.0370705 -2.42607e-06 0)
(0.0370702 -3.10749e-06 0)
(0.0370699 -3.79028e-06 0)
(0.0370696 -4.46882e-06 0)
(0.0370692 -5.14732e-06 0)
(0.0370688 -5.81817e-06 0)
(0.0370683 -6.48678e-06 0)
(0.0370679 -7.14413e-06 0)
(0.0370675 -7.79375e-06 0)
(0.0370671 -8.42775e-06 0)
(0.0370668 -9.04101e-06 0)
(0.0370667 -9.63223e-06 0)
(0.0370667 -1.01836e-05 0)
(0.0370709 -4.59281e-07 0)
(0.0370694 -1.07446e-06 0)
(0.0370693 -1.74846e-06 0)
(0.0370691 -2.43141e-06 0)
(0.0370688 -3.11433e-06 0)
(0.0370686 -3.79866e-06 0)
(0.0370682 -4.47872e-06 0)
(0.0370678 -5.15877e-06 0)
(0.0370674 -5.83115e-06 0)
(0.0370669 -6.50132e-06 0)
(0.0370665 -7.16019e-06 0)
(0.0370661 -7.81138e-06 0)
(0.0370657 -8.44688e-06 0)
(0.0370654 -9.06167e-06 0)
(0.0370653 -9.65434e-06 0)
(0.0370653 -1.02072e-05 0)
(0.0370695 -4.60291e-07 0)
(0.037068 -1.07679e-06 0)
(0.0370679 -1.75225e-06 0)
(0.0370677 -2.43668e-06 0)
(0.0370675 -3.1211e-06 0)
(0.0370672 -3.80695e-06 0)
(0.0370668 -4.48853e-06 0)
(0.0370664 -5.17011e-06 0)
(0.037066 -5.84402e-06 0)
(0.0370655 -6.51574e-06 0)
(0.0370651 -7.17615e-06 0)
(0.0370647 -7.8289e-06 0)
(0.0370643 -8.46591e-06 0)
(0.037064 -9.08223e-06 0)
(0.0370639 -9.67635e-06 0)
(0.0370639 -1.02307e-05 0)
(0.0370681 -4.61288e-07 0)
(0.0370666 -1.07909e-06 0)
(0.0370665 -1.756e-06 0)
(0.0370663 -2.44189e-06 0)
(0.0370661 -3.12778e-06 0)
(0.0370658 -3.81515e-06 0)
(0.0370654 -4.49822e-06 0)
(0.037065 -5.18134e-06 0)
(0.0370646 -5.85677e-06 0)
(0.0370641 -6.53004e-06 0)
(0.0370637 -7.19198e-06 0)
(0.0370633 -7.84629e-06 0)
(0.0370629 -8.48482e-06 0)
(0.0370626 -9.10267e-06 0)
(0.0370625 -9.69825e-06 0)
(0.0370625 -1.02541e-05 0)
(0.0370667 -4.62273e-07 0)
(0.0370653 -1.08136e-06 0)
(0.0370651 -1.75969e-06 0)
(0.0370649 -2.44703e-06 0)
(0.0370647 -3.13438e-06 0)
(0.0370644 -3.82325e-06 0)
(0.037064 -4.50781e-06 0)
(0.0370636 -5.19244e-06 0)
(0.0370632 -5.86939e-06 0)
(0.0370627 -6.5442e-06 0)
(0.0370623 -7.20766e-06 0)
(0.0370619 -7.86354e-06 0)
(0.0370615 -8.5036e-06 0)
(0.0370612 -9.12299e-06 0)
(0.037061 -9.72005e-06 0)
(0.0370611 -1.02773e-05 0)
(0.0370653 -4.63245e-07 0)
(0.0370639 -1.0836e-06 0)
(0.0370637 -1.76334e-06 0)
(0.0370635 -2.45211e-06 0)
(0.0370633 -3.1409e-06 0)
(0.037063 -3.83124e-06 0)
(0.0370626 -4.51728e-06 0)
(0.0370622 -5.20342e-06 0)
(0.0370618 -5.88187e-06 0)
(0.0370613 -6.55821e-06 0)
(0.0370609 -7.22321e-06 0)
(0.0370604 -7.88065e-06 0)
(0.0370601 -8.52224e-06 0)
(0.0370598 -9.14318e-06 0)
(0.0370596 -9.74172e-06 0)
(0.0370596 -1.03005e-05 0)
(0.0370639 -4.64204e-07 0)
(0.0370625 -1.0858e-06 0)
(0.0370623 -1.76693e-06 0)
(0.0370621 -2.45712e-06 0)
(0.0370619 -3.14735e-06 0)
(0.0370616 -3.83914e-06 0)
(0.0370612 -4.52664e-06 0)
(0.0370608 -5.21426e-06 0)
(0.0370603 -5.89422e-06 0)
(0.0370599 -6.57208e-06 0)
(0.0370594 -7.23861e-06 0)
(0.037059 -7.8976e-06 0)
(0.0370587 -8.54074e-06 0)
(0.0370584 -9.16323e-06 0)
(0.0370582 -9.76329e-06 0)
(0.0370582 -1.03236e-05 0)
(0.0370625 -4.65148e-07 0)
(0.0370611 -1.08798e-06 0)
(0.0370609 -1.77047e-06 0)
(0.0370607 -2.46208e-06 0)
(0.0370605 -3.15374e-06 0)
(0.0370602 -3.84694e-06 0)
(0.0370598 -4.53591e-06 0)
(0.0370594 -5.22498e-06 0)
(0.0370589 -5.90644e-06 0)
(0.0370585 -6.5858e-06 0)
(0.037058 -7.25387e-06 0)
(0.0370576 -7.91442e-06 0)
(0.0370572 -8.55911e-06 0)
(0.037057 -9.18318e-06 0)
(0.0370568 -9.78475e-06 0)
(0.0370568 -1.03466e-05 0)
(0.0370611 -4.6608e-07 0)
(0.0370596 -1.09015e-06 0)
(0.0370595 -1.77398e-06 0)
(0.0370593 -2.467e-06 0)
(0.0370591 -3.16007e-06 0)
(0.0370587 -3.85468e-06 0)
(0.0370584 -4.5451e-06 0)
(0.037058 -5.2356e-06 0)
(0.0370575 -5.91855e-06 0)
(0.0370571 -6.59941e-06 0)
(0.0370566 -7.269e-06 0)
(0.0370562 -7.93111e-06 0)
(0.0370558 -8.57736e-06 0)
(0.0370555 -9.20301e-06 0)
(0.0370554 -9.80612e-06 0)
(0.0370554 -1.03696e-05 0)
(0.0370597 -4.67007e-07 0)
(0.0370582 -1.09231e-06 0)
(0.0370581 -1.77748e-06 0)
(0.0370579 -2.47189e-06 0)
(0.0370576 -3.16636e-06 0)
(0.0370573 -3.86237e-06 0)
(0.037057 -4.55423e-06 0)
(0.0370566 -5.24615e-06 0)
(0.0370561 -5.93059e-06 0)
(0.0370557 -6.61292e-06 0)
(0.0370552 -7.28404e-06 0)
(0.0370548 -7.9477e-06 0)
(0.0370544 -8.59551e-06 0)
(0.0370541 -9.22275e-06 0)
(0.0370539 -9.82741e-06 0)
(0.037054 -1.03925e-05 0)
(0.0370583 -4.67929e-07 0)
(0.0370568 -1.09446e-06 0)
(0.0370567 -1.78098e-06 0)
(0.0370565 -2.47678e-06 0)
(0.0370562 -3.17264e-06 0)
(0.0370559 -3.87004e-06 0)
(0.0370555 -4.56334e-06 0)
(0.0370551 -5.25668e-06 0)
(0.0370547 -5.94259e-06 0)
(0.0370542 -6.6264e-06 0)
(0.0370538 -7.29904e-06 0)
(0.0370533 -7.96425e-06 0)
(0.037053 -8.61361e-06 0)
(0.0370527 -9.24247e-06 0)
(0.0370525 -9.8487e-06 0)
(0.0370525 -1.04154e-05 0)
(0.0370569 -4.68851e-07 0)
(0.0370554 -1.09665e-06 0)
(0.0370553 -1.78452e-06 0)
(0.0370551 -2.4817e-06 0)
(0.0370548 -3.17898e-06 0)
(0.0370545 -3.87777e-06 0)
(0.0370541 -4.57251e-06 0)
(0.0370537 -5.26725e-06 0)
(0.0370533 -5.95464e-06 0)
(0.0370528 -6.6399e-06 0)
(0.0370523 -7.31406e-06 0)
(0.0370519 -7.98081e-06 0)
(0.0370515 -8.63175e-06 0)
(0.0370513 -9.26222e-06 0)
(0.0370511 -9.87004e-06 0)
(0.0370511 -1.04384e-05 0)
(0.0370555 -4.69784e-07 0)
(0.037054 -1.09888e-06 0)
(0.0370539 -1.78813e-06 0)
(0.0370537 -2.48673e-06 0)
(0.0370534 -3.18544e-06 0)
(0.0370531 -3.88564e-06 0)
(0.0370527 -4.58183e-06 0)
(0.0370523 -5.27797e-06 0)
(0.0370518 -5.96685e-06 0)
(0.0370514 -6.65355e-06 0)
(0.0370509 -7.32923e-06 0)
(0.0370505 -7.99752e-06 0)
(0.0370501 -8.65002e-06 0)
(0.0370498 -9.28214e-06 0)
(0.0370496 -9.89156e-06 0)
(0.0370497 -1.04617e-05 0)
(0.037054 -4.70738e-07 0)
(0.0370526 -1.1012e-06 0)
(0.0370524 -1.7919e-06 0)
(0.0370522 -2.49196e-06 0)
(0.037052 -3.19215e-06 0)
(0.0370517 -3.89377e-06 0)
(0.0370513 -4.59145e-06 0)
(0.0370509 -5.289e-06 0)
(0.0370504 -5.97936e-06 0)
(0.03705 -6.6675e-06 0)
(0.0370495 -7.34469e-06 0)
(0.037049 -8.01452e-06 0)
(0.0370487 -8.6686e-06 0)
(0.0370484 -9.30237e-06 0)
(0.0370482 -9.91341e-06 0)
(0.0370482 -1.04853e-05 0)
(0.0370526 -4.71733e-07 0)
(0.0370512 -1.10368e-06 0)
(0.037051 -1.7959e-06 0)
(0.0370508 -2.4975e-06 0)
(0.0370506 -3.19924e-06 0)
(0.0370502 -3.90234e-06 0)
(0.0370499 -4.60155e-06 0)
(0.0370494 -5.30051e-06 0)
(0.037049 -5.99239e-06 0)
(0.0370485 -6.68196e-06 0)
(0.037048 -7.36067e-06 0)
(0.0370476 -8.03203e-06 0)
(0.0370472 -8.68767e-06 0)
(0.0370469 -9.3231e-06 0)
(0.0370468 -9.93578e-06 0)
(0.0370468 -1.05095e-05 0)
(0.0370512 -4.72791e-07 0)
(0.0370497 -1.10637e-06 0)
(0.0370496 -1.80025e-06 0)
(0.0370494 -2.50351e-06 0)
(0.0370491 -3.20691e-06 0)
(0.0370488 -3.91157e-06 0)
(0.0370484 -4.61238e-06 0)
(0.037048 -5.3128e-06 0)
(0.0370475 -6.00622e-06 0)
(0.0370471 -6.69722e-06 0)
(0.0370466 -7.37745e-06 0)
(0.0370462 -8.05033e-06 0)
(0.0370458 -8.70752e-06 0)
(0.0370455 -9.34462e-06 0)
(0.0370453 -9.95894e-06 0)
(0.0370453 -1.05345e-05 0)
(0.0370498 -4.73945e-07 0)
(0.0370483 -1.10938e-06 0)
(0.0370482 -1.80511e-06 0)
(0.037048 -2.51019e-06 0)
(0.0370477 -3.2154e-06 0)
(0.0370474 -3.92173e-06 0)
(0.037047 -4.62425e-06 0)
(0.0370466 -5.32617e-06 0)
(0.0370461 -6.02119e-06 0)
(0.0370456 -6.71362e-06 0)
(0.0370452 -7.39538e-06 0)
(0.0370447 -8.06973e-06 0)
(0.0370443 -8.72846e-06 0)
(0.037044 -9.36721e-06 0)
(0.0370439 -9.98318e-06 0)
(0.0370439 -1.05607e-05 0)
(0.0370484 -4.75234e-07 0)
(0.0370469 -1.11282e-06 0)
(0.0370467 -1.81064e-06 0)
(0.0370465 -2.51777e-06 0)
(0.0370463 -3.22502e-06 0)
(0.0370459 -3.93319e-06 0)
(0.0370456 -4.63756e-06 0)
(0.0370451 -5.34109e-06 0)
(0.0370447 -6.03778e-06 0)
(0.0370442 -6.73166e-06 0)
(0.0370437 -7.41495e-06 0)
(0.0370433 -8.09077e-06 0)
(0.0370429 -8.751e-06 0)
(0.0370426 -9.39141e-06 0)
(0.0370424 -1.0009e-05 0)
(0.0370424 -1.05884e-05 0)
(0.0370469 -4.76705e-07 0)
(0.0370455 -1.11682e-06 0)
(0.0370453 -1.81711e-06 0)
(0.0370451 -2.52662e-06 0)
(0.0370448 -3.23617e-06 0)
(0.0370445 -3.94643e-06 0)
(0.0370441 -4.65282e-06 0)
(0.0370437 -5.35807e-06 0)
(0.0370432 -6.05656e-06 0)
(0.0370428 -6.7519e-06 0)
(0.0370423 -7.43674e-06 0)
(0.0370418 -8.11396e-06 0)
(0.0370414 -8.77564e-06 0)
(0.0370411 -9.41763e-06 0)
(0.0370409 -1.00367e-05 0)
(0.0370409 -1.06181e-05 0)
(0.0370455 -4.78423e-07 0)
(0.037044 -1.12155e-06 0)
(0.0370439 -1.82473e-06 0)
(0.0370437 -2.53703e-06 0)
(0.0370434 -3.24927e-06 0)
(0.0370431 -3.96193e-06 0)
(0.0370427 -4.67063e-06 0)
(0.0370423 -5.37778e-06 0)
(0.0370418 -6.07821e-06 0)
(0.0370413 -6.77506e-06 0)
(0.0370408 -7.46147e-06 0)
(0.0370404 -8.14004e-06 0)
(0.03704 -8.80309e-06 0)
(0.0370397 -9.44657e-06 0)
(0.0370395 -1.00671e-05 0)
(0.0370395 -1.06505e-05 0)
(0.0370441 -4.80449e-07 0)
(0.0370426 -1.12718e-06 0)
(0.0370424 -1.83382e-06 0)
(0.0370422 -2.54943e-06 0)
(0.037042 -3.26487e-06 0)
(0.0370416 -3.98032e-06 0)
(0.0370412 -4.69173e-06 0)
(0.0370408 -5.40104e-06 0)
(0.0370403 -6.10361e-06 0)
(0.0370399 -6.80204e-06 0)
(0.0370394 -7.49005e-06 0)
(0.0370389 -8.16989e-06 0)
(0.0370385 -8.83423e-06 0)
(0.0370382 -9.47907e-06 0)
(0.037038 -1.0101e-05 0)
(0.037038 -1.06863e-05 0)
(0.0370426 -4.82867e-07 0)
(0.0370411 -1.13395e-06 0)
(0.037041 -1.84475e-06 0)
(0.0370408 -2.56433e-06 0)
(0.0370405 -3.2836e-06 0)
(0.0370402 -4.00238e-06 0)
(0.0370398 -4.71699e-06 0)
(0.0370394 -5.42882e-06 0)
(0.0370389 -6.1338e-06 0)
(0.0370384 -6.83397e-06 0)
(0.0370379 -7.52365e-06 0)
(0.0370375 -8.2047e-06 0)
(0.037037 -8.87024e-06 0)
(0.0370367 -9.51633e-06 0)
(0.0370365 -1.01395e-05 0)
(0.0370365 -1.07266e-05 0)
(0.0370412 -4.85775e-07 0)
(0.0370397 -1.14216e-06 0)
(0.0370395 -1.85798e-06 0)
(0.0370393 -2.58233e-06 0)
(0.0370391 -3.30623e-06 0)
(0.0370387 -4.02902e-06 0)
(0.0370383 -4.74747e-06 0)
(0.0370379 -5.46231e-06 0)
(0.0370374 -6.17011e-06 0)
(0.037037 -6.87222e-06 0)
(0.0370365 -7.56372e-06 0)
(0.037036 -8.24592e-06 0)
(0.0370356 -8.91253e-06 0)
(0.0370353 -9.55963e-06 0)
(0.0370351 -1.01837e-05 0)
(0.037035 -1.07726e-05 0)
(0.0370397 -4.89298e-07 0)
(0.0370382 -1.15204e-06 0)
(0.0370381 -1.87389e-06 0)
(0.0370379 -2.60403e-06 0)
(0.0370376 -3.33351e-06 0)
(0.0370373 -4.06119e-06 0)
(0.0370369 -4.78427e-06 0)
(0.0370365 -5.50275e-06 0)
(0.037036 -6.21394e-06 0)
(0.0370355 -6.9183e-06 0)
(0.037035 -7.61186e-06 0)
(0.0370345 -8.29515e-06 0)
(0.0370341 -8.96275e-06 0)
(0.0370338 -9.61053e-06 0)
(0.0370336 -1.02352e-05 0)
(0.0370335 -1.08257e-05 0)
(0.0370383 -4.93535e-07 0)
(0.0370368 -1.16384e-06 0)
(0.0370366 -1.89296e-06 0)
(0.0370364 -2.6301e-06 0)
(0.0370361 -3.36632e-06 0)
(0.0370358 -4.09998e-06 0)
(0.0370354 -4.82869e-06 0)
(0.037035 -5.5517e-06 0)
(0.0370345 -6.26702e-06 0)
(0.037034 -6.97417e-06 0)
(0.0370335 -7.67017e-06 0)
(0.0370331 -8.35465e-06 0)
(0.0370326 -9.0232e-06 0)
(0.0370323 -9.67138e-06 0)
(0.0370321 -1.02963e-05 0)
(0.037032 -1.0888e-05 0)
(0.0370368 -4.98603e-07 0)
(0.0370353 -1.17793e-06 0)
(0.0370351 -1.91572e-06 0)
(0.0370349 -2.66121e-06 0)
(0.0370347 -3.40555e-06 0)
(0.0370343 -4.1465e-06 0)
(0.037034 -4.8821e-06 0)
(0.0370335 -5.61074e-06 0)
(0.0370331 -6.33121e-06 0)
(0.0370326 -7.04191e-06 0)
(0.0370321 -7.74099e-06 0)
(0.0370316 -8.42688e-06 0)
(0.0370312 -9.09644e-06 0)
(0.0370308 -9.74468e-06 0)
(0.0370306 -1.03695e-05 0)
(0.0370305 -1.09619e-05 0)
(0.0370353 -5.0465e-07 0)
(0.0370338 -1.19448e-06 0)
(0.0370336 -1.94249e-06 0)
(0.0370334 -2.69791e-06 0)
(0.0370332 -3.45191e-06 0)
(0.0370329 -4.2017e-06 0)
(0.0370325 -4.94569e-06 0)
(0.037032 -5.68142e-06 0)
(0.0370316 -6.40839e-06 0)
(0.0370311 -7.12378e-06 0)
(0.0370306 -7.8269e-06 0)
(0.0370301 -8.51476e-06 0)
(0.0370297 -9.18561e-06 0)
(0.0370293 -9.83367e-06 0)
(0.0370291 -1.0458e-05 0)
(0.037029 -1.10504e-05 0)
(0.0370338 -5.11748e-07 0)
(0.0370323 -1.21363e-06 0)
(0.0370321 -1.97353e-06 0)
(0.0370319 -2.74058e-06 0)
(0.0370317 -3.506e-06 0)
(0.0370314 -4.26641e-06 0)
(0.037031 -5.02058e-06 0)
(0.0370306 -5.76517e-06 0)
(0.0370301 -6.50042e-06 0)
(0.0370296 -7.2221e-06 0)
(0.0370291 -7.93077e-06 0)
(0.0370286 -8.62166e-06 0)
(0.0370282 -9.29459e-06 0)
(0.0370278 -9.94241e-06 0)
(0.0370276 -1.05658e-05 0)
(0.0370275 -1.1157e-05 0)
(0.0370323 -5.19958e-07 0)
(0.0370307 -1.23542e-06 0)
(0.0370306 -2.00889e-06 0)
(0.0370304 -2.78936e-06 0)
(0.0370301 -3.56803e-06 0)
(0.0370298 -4.34101e-06 0)
(0.0370295 -5.10739e-06 0)
(0.037029 -5.86299e-06 0)
(0.0370286 -6.60872e-06 0)
(0.0370281 -7.33892e-06 0)
(0.0370276 -8.05547e-06 0)
(0.0370271 -8.75132e-06 0)
(0.0370267 -9.42821e-06 0)
(0.0370264 -1.00766e-05 0)
(0.0370261 -1.06991e-05 0)
(0.037026 -1.12878e-05 0)
(0.0370308 -5.29297e-07 0)
(0.0370292 -1.25968e-06 0)
(0.037029 -2.04835e-06 0)
(0.0370288 -2.84396e-06 0)
(0.0370286 -3.63771e-06 0)
(0.0370283 -4.4253e-06 0)
(0.0370279 -5.20606e-06 0)
(0.0370275 -5.97509e-06 0)
(0.0370271 -6.73397e-06 0)
(0.0370266 -7.47557e-06 0)
(0.0370261 -8.20325e-06 0)
(0.0370257 -8.90738e-06 0)
(0.0370252 -9.59208e-06 0)
(0.0370249 -1.02445e-05 0)
(0.0370246 -1.08699e-05 0)
(0.0370245 -1.14579e-05 0)
(0.0370292 -5.397e-07 0)
(0.0370276 -1.28605e-06 0)
(0.0370274 -2.09129e-06 0)
(0.0370273 -2.90357e-06 0)
(0.037027 -3.71406e-06 0)
(0.0370267 -4.51815e-06 0)
(0.0370264 -5.31539e-06 0)
(0.037026 -6.10031e-06 0)
(0.0370255 -6.87509e-06 0)
(0.0370251 -7.63132e-06 0)
(0.0370246 -8.37392e-06 0)
(0.0370242 -9.09068e-06 0)
(0.0370237 -9.78874e-06 0)
(0.0370234 -1.04516e-05 0)
(0.0370231 -1.10885e-05 0)
(0.0370229 -1.16851e-05 0)
(0.0370276 -5.51005e-07 0)
(0.0370259 -1.31387e-06 0)
(0.0370258 -2.13666e-06 0)
(0.0370256 -2.96674e-06 0)
(0.0370254 -3.79524e-06 0)
(0.0370251 -4.61739e-06 0)
(0.0370248 -5.43286e-06 0)
(0.0370244 -6.23586e-06 0)
(0.037024 -7.029e-06 0)
(0.0370235 -7.80283e-06 0)
(0.0370231 -8.56378e-06 0)
(0.0370226 -9.29701e-06 0)
(0.0370222 -1.00132e-05 0)
(0.0370219 -1.06912e-05 0)
(0.0370216 -1.13458e-05 0)
(0.0370214 -1.19568e-05 0)
(0.037026 -5.62925e-07 0)
(0.0370243 -1.34223e-06 0)
(0.0370242 -2.18298e-06 0)
(0.037024 -3.03143e-06 0)
(0.0370238 -3.87863e-06 0)
(0.0370235 -4.71982e-06 0)
(0.0370232 -5.55469e-06 0)
(0.0370228 -6.37735e-06 0)
(0.0370224 -7.19067e-06 0)
(0.037022 -7.98435e-06 0)
(0.0370215 -8.76616e-06 0)
(0.0370211 -9.51848e-06 0)
(0.0370207 -1.02556e-05 0)
(0.0370204 -1.09508e-05 0)
(0.0370201 -1.16247e-05 0)
(0.0370199 -1.22495e-05 0)
(0.0370243 -5.75076e-07 0)
(0.0370226 -1.36994e-06 0)
(0.0370225 -2.22831e-06 0)
(0.0370223 -3.0949e-06 0)
(0.0370221 -3.9607e-06 0)
(0.0370218 -4.82112e-06 0)
(0.0370215 -5.67571e-06 0)
(0.0370211 -6.51881e-06 0)
(0.0370208 -7.35319e-06 0)
(0.0370203 -8.16812e-06 0)
(0.0370199 -8.97222e-06 0)
(0.0370195 -9.74524e-06 0)
(0.0370191 -1.05048e-05 0)
(0.0370188 -1.12179e-05 0)
(0.0370186 -1.19115e-05 0)
(0.0370184 -1.25488e-05 0)
(0.0370226 -5.86945e-07 0)
(0.0370208 -1.39559e-06 0)
(0.0370207 -2.27035e-06 0)
(0.0370206 -3.15393e-06 0)
(0.0370204 -4.03728e-06 0)
(0.0370201 -4.91611e-06 0)
(0.0370198 -5.78973e-06 0)
(0.0370195 -6.65298e-06 0)
(0.0370191 -7.50823e-06 0)
(0.0370187 -8.34482e-06 0)
(0.0370183 -9.17159e-06 0)
(0.0370179 -9.96608e-06 0)
(0.0370176 -1.0749e-05 0)
(0.0370173 -1.14798e-05 0)
(0.0370171 -1.21933e-05 0)
(0.0370169 -1.28417e-05 0)
(0.0370209 -5.97928e-07 0)
(0.0370191 -1.41761e-06 0)
(0.037019 -2.3065e-06 0)
(0.0370188 -3.20488e-06 0)
(0.0370186 -4.10362e-06 0)
(0.0370184 -4.99887e-06 0)
(0.0370181 -5.8896e-06 0)
(0.0370177 -6.77148e-06 0)
(0.0370174 -7.64611e-06 0)
(0.037017 -8.50356e-06 0)
(0.0370167 -9.35215e-06 0)
(0.0370163 -1.01682e-05 0)
(0.037016 -1.09745e-05 0)
(0.0370157 -1.17227e-05 0)
(0.0370156 -1.24574e-05 0)
(0.0370154 -1.31145e-05 0)
(0.0370191 -6.07355e-07 0)
(0.0370173 -1.43428e-06 0)
(0.0370172 -2.33395e-06 0)
(0.037017 -3.24374e-06 0)
(0.0370168 -4.15446e-06 0)
(0.0370166 -5.06284e-06 0)
(0.0370163 -5.96735e-06 0)
(0.037016 -6.86483e-06 0)
(0.0370157 -7.75576e-06 0)
(0.0370153 -8.63176e-06 0)
(0.037015 -9.49971e-06 0)
(0.0370147 -1.03363e-05 0)
(0.0370144 -1.1165e-05 0)
(0.0370142 -1.19308e-05 0)
(0.037014 -1.2689e-05 0)
(0.037014 -1.33528e-05 0)
(0.0370173 -6.14489e-07 0)
(0.0370154 -1.44393e-06 0)
(0.0370153 -2.34993e-06 0)
(0.0370152 -3.26661e-06 0)
(0.037015 -4.18473e-06 0)
(0.0370148 -5.1016e-06 0)
(0.0370145 -6.01518e-06 0)
(0.0370142 -6.92363e-06 0)
(0.0370139 -7.82611e-06 0)
(0.0370136 -8.71648e-06 0)
(0.0370133 -9.59938e-06 0)
(0.037013 -1.04541e-05 0)
(0.0370128 -1.13019e-05 0)
(0.0370126 -1.20861e-05 0)
(0.0370125 -1.28672e-05 0)
(0.0370125 -1.35333e-05 0)
(0.0370154 -6.1861e-07 0)
(0.0370135 -1.44541e-06 0)
(0.0370135 -2.35257e-06 0)
(0.0370133 -3.27085e-06 0)
(0.0370132 -4.19093e-06 0)
(0.0370129 -5.11074e-06 0)
(0.0370127 -6.02759e-06 0)
(0.0370124 -6.94099e-06 0)
(0.0370121 -7.84853e-06 0)
(0.0370119 -8.74665e-06 0)
(0.0370116 -9.63698e-06 0)
(0.0370113 -1.0503e-05 0)
(0.0370112 -1.13615e-05 0)
(0.0370111 -1.21597e-05 0)
(0.0370111 -1.2952e-05 0)
(0.0370112 -1.36125e-05 0)
(0.0370136 -6.19232e-07 0)
(0.0370117 -1.43742e-06 0)
(0.0370116 -2.33967e-06 0)
(0.0370115 -3.25315e-06 0)
(0.0370113 -4.16847e-06 0)
(0.0370111 -5.08401e-06 0)
(0.0370109 -5.99628e-06 0)
(0.0370106 -6.90591e-06 0)
(0.0370103 -7.80871e-06 0)
(0.0370101 -8.70349e-06 0)
(0.0370098 -9.58825e-06 0)
(0.0370097 -1.04514e-05 0)
(0.0370095 -1.1303e-05 0)
(0.0370095 -1.20984e-05 0)
(0.0370096 -1.28824e-05 0)
(0.0370098 -1.35314e-05 0)
(0.0370117 -6.158e-07 0)
(0.0370098 -1.41613e-06 0)
(0.0370097 -2.30485e-06 0)
(0.0370096 -3.20446e-06 0)
(0.0370094 -4.10536e-06 0)
(0.0370092 -5.00616e-06 0)
(0.037009 -5.90246e-06 0)
(0.0370088 -6.79568e-06 0)
(0.0370086 -7.67971e-06 0)
(0.0370083 -8.55543e-06 0)
(0.0370081 -9.41703e-06 0)
(0.037008 -1.0258e-05 0)
(0.0370079 -1.10806e-05 0)
(0.037008 -1.18517e-05 0)
(0.0370082 -1.2604e-05 0)
(0.0370086 -1.32314e-05 0)
(0.0370098 -6.06679e-07 0)
(0.0370079 -1.37703e-06 0)
(0.0370079 -2.24081e-06 0)
(0.0370077 -3.11464e-06 0)
(0.0370076 -3.98865e-06 0)
(0.0370074 -4.86155e-06 0)
(0.0370072 -5.72796e-06 0)
(0.037007 -6.58982e-06 0)
(0.0370068 -7.43916e-06 0)
(0.0370066 -8.27872e-06 0)
(0.0370065 -9.09898e-06 0)
(0.0370064 -9.89864e-06 0)
(0.0370064 -1.06727e-05 0)
(0.0370066 -1.14008e-05 0)
(0.0370069 -1.21023e-05 0)
(0.0370074 -1.26987e-05 0)
(0.037008 -5.89939e-07 0)
(0.0370061 -1.31761e-06 0)
(0.0370061 -2.14351e-06 0)
(0.037006 -2.9782e-06 0)
(0.0370058 -3.81163e-06 0)
(0.0370057 -4.64247e-06 0)
(0.0370055 -5.46449e-06 0)
(0.0370053 -6.28004e-06 0)
(0.0370052 -7.07942e-06 0)
(0.037005 -7.86722e-06 0)
(0.0370049 -8.63064e-06 0)
(0.0370049 -9.37385e-06 0)
(0.037005 -1.00853e-05 0)
(0.0370052 -1.0759e-05 0)
(0.0370057 -1.14006e-05 0)
(0.0370064 -1.19647e-05 0)
(0.0370062 -5.64503e-07 0)
(0.0370044 -1.23832e-06 0)
(0.0370044 -2.01374e-06 0)
(0.0370043 -2.79634e-06 0)
(0.0370042 -3.5761e-06 0)
(0.0370041 -4.35159e-06 0)
(0.0370039 -5.116e-06 0)
(0.0370038 -5.87203e-06 0)
(0.0370037 -6.60872e-06 0)
(0.0370036 -7.33246e-06 0)
(0.0370035 -8.02779e-06 0)
(0.0370036 -8.70455e-06 0)
(0.0370037 -9.34561e-06 0)
(0.0370041 -9.95959e-06 0)
(0.0370046 -1.05394e-05 0)
(0.0370054 -1.10733e-05 0)
(0.0370045 -5.30558e-07 0)
(0.0370029 -1.14275e-06 0)
(0.0370028 -1.85739e-06 0)
(0.0370027 -2.57732e-06 0)
(0.0370027 -3.29274e-06 0)
(0.0370026 -4.00213e-06 0)
(0.0370025 -4.69843e-06 0)
(0.0370024 -5.38477e-06 0)
(0.0370023 -6.04945e-06 0)
(0.0370022 -6.70066e-06 0)
(0.0370023 -7.32109e-06 0)
(0.0370024 -7.926e-06 0)
(0.0370026 -8.49376e-06 0)
(0.037003 -9.0467e-06 0)
(0.0370036 -9.56604e-06 0)
(0.0370045 -1.00713e-05 0)
(0.0370029 -4.89648e-07 0)
(0.0370015 -1.03676e-06 0)
(0.0370014 -1.68403e-06 0)
(0.0370014 -2.3345e-06 0)
(0.0370013 -2.97872e-06 0)
(0.0370012 -3.61503e-06 0)
(0.0370012 -4.2365e-06 0)
(0.0370011 -4.84668e-06 0)
(0.0370011 -5.43374e-06 0)
(0.0370011 -6.00762e-06 0)
(0.0370011 -6.55005e-06 0)
(0.0370013 -7.08111e-06 0)
(0.0370016 -7.57581e-06 0)
(0.0370021 -8.06827e-06 0)
(0.0370028 -8.52962e-06 0)
(0.0370037 -9.00687e-06 0)
(0.0370015 -4.44277e-07 0)
(0.0370002 -9.26871e-07 0)
(0.0370002 -1.50439e-06 0)
(0.0370002 -2.08296e-06 0)
(0.0370001 -2.6536e-06 0)
(0.0370001 -3.21443e-06 0)
(0.037 -3.7588e-06 0)
(0.037 -4.29053e-06 0)
(0.037 -4.79821e-06 0)
(0.0370001 -5.29331e-06 0)
(0.0370002 -5.75761e-06 0)
(0.0370004 -6.21509e-06 0)
(0.0370008 -6.63873e-06 0)
(0.0370013 -7.07196e-06 0)
(0.037002 -7.47808e-06 0)
(0.0370029 -7.92682e-06 0)
(0.0370002 -3.97237e-07 0)
(0.0369992 -8.18788e-07 0)
(0.0369992 -1.32787e-06 0)
(0.0369991 -1.8361e-06 0)
(0.0369991 -2.33505e-06 0)
(0.0369991 -2.82255e-06 0)
(0.0369991 -3.29225e-06 0)
(0.0369991 -3.74784e-06 0)
(0.0369992 -4.17851e-06 0)
(0.0369993 -4.59685e-06 0)
(0.0369994 -4.9856e-06 0)
(0.0369997 -5.37153e-06 0)
(0.0370001 -5.72705e-06 0)
(0.0370006 -6.10231e-06 0)
(0.0370013 -6.45571e-06 0)
(0.0370023 -6.87431e-06 0)
(0.0369992 -3.50964e-07 0)
(0.0369983 -7.16579e-07 0)
(0.0369983 -1.16118e-06 0)
(0.0369983 -1.60348e-06 0)
(0.0369983 -2.03576e-06 0)
(0.0369983 -2.4557e-06 0)
(0.0369983 -2.85725e-06 0)
(0.0369984 -3.24346e-06 0)
(0.0369985 -3.604e-06 0)
(0.0369986 -3.95169e-06 0)
(0.0369988 -4.2707e-06 0)
(0.0369991 -4.58925e-06 0)
(0.0369995 -4.88058e-06 0)
(0.0370001 -5.19904e-06 0)
(0.0370008 -5.50155e-06 0)
(0.0370016 -5.8871e-06 0)
(0.0369983 -3.07199e-07 0)
(0.0369975 -6.22601e-07 0)
(0.0369976 -1.0082e-06 0)
(0.0369976 -1.39057e-06 0)
(0.0369976 -1.76285e-06 0)
(0.0369976 -2.12289e-06 0)
(0.0369977 -2.46515e-06 0)
(0.0369978 -2.79189e-06 0)
(0.0369979 -3.0932e-06 0)
(0.0369981 -3.38083e-06 0)
(0.0369984 -3.64018e-06 0)
(0.0369987 -3.89908e-06 0)
(0.0369991 -4.13256e-06 0)
(0.0369997 -4.39639e-06 0)
(0.0370003 -4.64942e-06 0)
(0.0370011 -4.99689e-06 0)
(0.0369975 -2.66952e-07 0)
(0.036997 -5.37887e-07 0)
(0.036997 -8.70687e-07 0)
(0.036997 -1.19996e-06 0)
(0.0369971 -1.5196e-06 0)
(0.0369971 -1.8277e-06 0)
(0.0369972 -2.11939e-06 0)
(0.0369974 -2.39662e-06 0)
(0.0369975 -2.65107e-06 0)
(0.0369978 -2.89257e-06 0)
(0.036998 -3.10697e-06 0)
(0.0369984 -3.31947e-06 0)
(0.0369988 -3.50708e-06 0)
(0.0369993 -3.723e-06 0)
(0.0369999 -3.92922e-06 0)
(0.0370006 -4.23095e-06 0)
(0.036997 -2.30659e-07 0)