/*--------------------------------*- C++ -*----------------------------------*\
| =========                 |                                                 |
| \\      /  F ield         | OpenFOAM: The Open Source CFD Toolbox           |
|  \\    /   O peration     | Version:  4.1                                   |
|   \\  /    A nd           | Web:      www.OpenFOAM.org                      |
|    \\/     M anipulation  |                                                 |
\*---------------------------------------------------------------------------*/
FoamFile
{
    version     2.0;
    format      ascii;
    class       volScalarField;
    location    "0.000120";
    object      k;
}
// * * * * * * * * * * * * * * * * * * * * * * * * * * * * * * * * * * * * * //

dimensions      [0 2 -2 0 0 0 0];

internalField   nonuniform List<scalar> 
6144
(
0.38462576
0.39639267
0.40506745
0.41242709
0.41891
0.4245865
0.42940308
0.43326012
0.43609547
0.43789855
0.43863114
0.43825493
0.43676487
0.43414775
0.43044996
0.42576987
0.42018252
0.41377631
0.40667842
0.39903766
0.39100357
0.38275636
0.37449088
0.36689452
0.36012885
0.35418146
0.34900676
0.34455218
0.34075028
0.33754937
0.33494746
0.3329437
0.33149784
0.3305717
0.33017409
0.33033678
0.33107058
0.33236525
0.33422269
0.33668631
0.33980868
0.343637
0.34821185
0.35356283
0.35967456
0.36618783
0.37220396
0.37453617
0.38459285
0.39659025
0.40576825
0.41347526
0.42021784
0.42610822
0.43109489
0.43507822
0.43800487
0.43987516
0.44065088
0.44028927
0.43877956
0.43610791
0.43232947
0.42753749
0.42181083
0.41523387
0.40793476
0.40005975
0.39174217
0.38317297
0.37461035
0.36674177
0.35972951
0.35355218
0.34817186
0.34353903
0.33959444
0.33631444
0.33370449
0.33170794
0.3302203
0.32922616
0.32879238
0.32896201
0.32972465
0.33104666
0.33295682
0.33551015
0.33871651
0.34260911
0.34725611
0.35269574
0.35887614
0.365384
0.37142382
0.37419014
0.38464406
0.39702573
0.40683338
0.41503388
0.42215925
0.42835565
0.43357908
0.437733
0.44077583
0.44271341
0.44350264
0.44308556
0.44144798
0.43860241
0.4346158
0.4295728
0.42357026
0.41670509
0.40911501
0.40094825
0.39231304
0.3834406
0.37463248
0.36646761
0.35917326
0.35274026
0.34713352
0.34230093
0.33819264
0.33480276
0.33212136
0.33005525
0.32851375
0.32750662
0.32708268
0.3272753
0.32807512
0.32944697
0.33143494
0.33411081
0.3374676
0.34151444
0.34632403
0.35191914
0.35821307
0.36474435
0.37074853
0.37385726
0.38470862
0.39746634
0.40783752
0.41649718
0.42397134
0.43043061
0.43584604
0.44012921
0.44324138
0.44519001
0.44593211
0.44539819
0.44356458
0.44047188
0.43620916
0.43087016
0.42457451
0.41744471
0.40962696
0.40126821
0.39247744
0.38349865
0.37459369
0.36620615
0.35866534
0.35199269
0.34616923
0.34114119
0.33686764
0.33335379
0.33057576
0.32842566
0.32684017
0.32584156
0.32545443
0.32569665
0.32656906
0.32804716
0.33017169
0.33302878
0.33658485
0.34083005
0.34582336
0.35155887
0.35791702
0.36441256
0.37036877
0.37369542
0.38467243
0.39760304
0.40826018
0.41711931
0.42468863
0.43116871
0.43655794
0.44077591
0.44377172
0.44554995
0.44609841
0.44538255
0.44338383
0.44014258
0.43575234
0.43031964
0.42397228
0.41684796
0.40908679
0.40082447
0.39218505
0.38334654
0.37451874
0.36605835
0.35839838
0.3516195
0.34574488
0.34069211
0.33640997
0.33290573
0.33015746
0.32805138
0.3265289
0.32561532
0.3253155
0.32563445
0.32658197
0.32814607
0.33035474
0.3332864
0.33689801
0.34117405
0.34616453
0.35184953
0.35809145
0.36442087
0.37030652
0.37370836
0.38447836
0.39724385
0.40776837
0.41646196
0.42382241
0.43006627
0.43521473
0.43919543
0.44194343
0.44347343
0.44382318
0.44299041
0.44096753
0.4377819
0.4335113
0.42826409
0.42215333
0.41530313
0.40784484
0.3998979
0.39158005
0.38303395
0.3744341
0.36607933
0.35850299
0.35185802
0.34613713
0.34125182
0.33714472
0.33380561
0.33120462
0.32924636
0.32787382
0.32708027
0.3268718
0.32725955
0.32823177
0.32979039
0.3319634
0.33478991
0.33825742
0.34236367
0.34714597
0.35259901
0.35860121
0.36470867
0.37050578
0.37383625
0.38419485
0.39656522
0.40667521
0.41501143
0.42205922
0.42801879
0.43291542
0.43668355
0.43925955
0.44066413
0.44094565
0.44010448
0.43813487
0.43507068
0.43098869
0.42599133
0.42016839
0.41362234
0.40648353
0.39886881
0.39088861
0.38267344
0.37438331
0.36628157
0.35893975
0.35252425
0.34699383
0.34228585
0.33835302
0.33515795
0.33265018
0.3307916
0.32954183
0.32884524
0.3287147
0.32917327
0.33017634
0.33171849
0.33383362
0.33653471
0.33983028
0.34373998
0.34828638
0.35348608
0.35924499
0.36515636
0.37086101
0.37404111
0.38395276
0.3959062
0.40554296
0.41354488
0.42035604
0.42613844
0.43090183
0.43458565
0.43713716
0.43855452
0.43886185
0.43806584
0.43616617
0.43320703
0.42926701
0.42444064
0.41880866
0.4124627
0.4055334
0.3981441
0.39040868
0.38245797
0.37445385
0.36664726
0.3595412
0.35331379
0.34793581
0.3433616
0.33955909
0.33647367
0.33403299
0.33224308
0.33108884
0.3304897
0.33044065
0.33096319
0.33199626
0.3335148
0.33555961
0.33813967
0.34126338
0.34496767
0.349285
0.35425243
0.35980363
0.36558427
0.37109353
0.37414132
0.38460735
0.39663303
0.40583866
0.41357105
0.42032679
0.4262242
0.43121809
0.43520417
0.43812586
0.43998603
0.44075083
0.44037857
0.43886471
0.43619409
0.43241528
0.42762323
0.42187781
0.41528097
0.40796798
0.40007473
0.3917485
0.3831685
0.37461499
0.36673647
0.3597047
0.35350526
0.34809107
0.34339014
0.33935374
0.33598957
0.33327185
0.33114341
0.32959937
0.32863018
0.32819595
0.32832214
0.32905798
0.33040994
0.33237933
0.33498732
0.33827943
0.34229429
0.34705163
0.352574
0.35881605
0.36536667
0.37142632
0.37419562
0.38404029
0.39585842
0.40534828
0.41329504
0.42021501
0.42625112
0.43135364
0.43541584
0.43839117
0.44029309
0.44108865
0.4407356
0.43922366
0.43653426
0.43272134
0.42788196
0.42208924
0.41545009
0.40811063
0.40021235
0.39189652
0.38335378
0.37486098
0.36701117
0.35994915
0.35367208
0.34815529
0.3433382
0.33919696
0.33579246
0.3331038
0.33099402
0.32940376
0.32837035
0.32792176
0.32808781
0.32887511
0.33026289
0.33229058
0.33498036
0.33831996
0.34233924
0.34707281
0.35253362
0.35863357
0.3649001
0.37076851
0.37380435
0.3839359
0.39600047
0.40602945
0.4144284
0.42171074
0.42804019
0.43336849
0.4375905
0.44067216
0.44263333
0.44343337
0.4430166
0.44137562
0.43851034
0.43447881
0.42938327
0.42332143
0.4164178
0.4088312
0.40071271
0.39219985
0.38349256
0.37487797
0.36684356
0.35955639
0.35303632
0.3472777
0.3422322
0.33789113
0.33433624
0.3315328
0.32931317
0.32763878
0.32657692
0.32615092
0.32637523
0.32724118
0.32872668
0.33088324
0.33373631
0.337256
0.34146469
0.3463955
0.35202413
0.35821519
0.36445046
0.37023939
0.37350828
0.38402638
0.39647642
0.40705695
0.41592196
0.42356545
0.43017142
0.43570616
0.44006867
0.44322706
0.4452023
0.44594806
0.44540032
0.44355862
0.44043627
0.4360979
0.43066326
0.42426718
0.41706412
0.40922275
0.40089971
0.39223619
0.38343157
0.37474488
0.36653223
0.35902103
0.35226462
0.34627573
0.34101791
0.33649056
0.33277574
0.32982748
0.32748489
0.32574211
0.32466828
0.32427322
0.32456215
0.32551996
0.32713534
0.32945462
0.33249816
0.3362301
0.34067361
0.34584748
0.35167714
0.35798932
0.36423486
0.37000994
0.37340639
0.3840662
0.39672232
0.40757463
0.41662824
0.42435411
0.43096853
0.43647168
0.4407686
0.44381507
0.44562061
0.44616305
0.44541988
0.44340303
0.44012429
0.43564534
0.4300911
0.42362142
0.41640848
0.40861012
0.40036975
0.39182813
0.38315288
0.37454579
0.3662868
0.35869441
0.35188259
0.34587075
0.34061505
0.33610319
0.33240417
0.32947113
0.32715193
0.32544985
0.32442861
0.32408972
0.32443351
0.32544816
0.32713569
0.32953122
0.33263895
0.33643077
0.3409339
0.34614483
0.35196707
0.35821971
0.36435535
0.37010439
0.3734817
0.38398916
0.39654035
0.40724123
0.41609574
0.42357228
0.42990975
0.43514039
0.43917899
0.44196402
0.44350874
0.44384109
0.44297037
0.44091146
0.43767987
0.43332665
0.42796774
0.42174896
0.41482349
0.40733468
0.39940692
0.3911657
0.38275653
0.37435049
0.36619621
0.35872557
0.3520904
0.34628554
0.3412564
0.33697389
0.33347773
0.33071729
0.32856964
0.32702644
0.32612356
0.32586731
0.32626006
0.32727484
0.3289288
0.33125587
0.33423029
0.33785606
0.34217765
0.34716883
0.35275444
0.3587818
0.36472985
0.37044365
0.37364878
0.38394762
0.39629262
0.40663982
0.41515553
0.42232092
0.42836806
0.43333949
0.43715828
0.43975994
0.4411715
0.44143805
0.44055707
0.43853979
0.43541647
0.43124719
0.42613895
0.42020167
0.4135546
0.40633898
0.3986769
0.39067976
0.38248239
0.37424962
0.36622652
0.35891082
0.35246633
0.34686628
0.34205236
0.33799212
0.33468574
0.33206559
0.33007916
0.32872205
0.32796033
0.3278108
0.32829033
0.32933226
0.3309466
0.3331749
0.33597442
0.33938011
0.34345915
0.34817657
0.35349512
0.35930169
0.3651229
0.3708213
0.3738623
0.38419459
0.39656573
0.40667283
0.41500728
0.42205215
0.42801026
0.43291226
0.43669229
0.439296
0.44073378
0.44102777
0.44017724
0.43820338
0.43514588
0.43107292
0.42608168
0.42025985
0.4137035
0.40654839
0.39891958
0.39092135
0.38268246
0.37437445
0.36626012
0.3588637
0.35239007
0.34679409
0.34201901
0.33803876
0.33481669
0.33225316
0.33035833
0.32914657
0.32853427
0.32851321
0.32909903
0.33020372
0.33181195
0.33397743
0.33667014
0.33992293
0.3438146
0.34834113
0.35351305
0.35925668
0.36516165
0.37086322
0.3740385
0.38465764
0.39707047
0.40690794
0.41513628
0.42228186
0.42849987
0.4337409
0.43789477
0.44091621
0.44281196
0.44355303
0.4430966
0.44143908
0.43858556
0.43459817
0.42957776
0.42358523
0.41672348
0.40913374
0.40094012
0.39230284
0.38342897
0.37463429
0.36645913
0.35914335
0.35268159
0.34702796
0.34211583
0.33790788
0.33440507
0.33156862
0.32934772
0.32773163
0.32671657
0.32626357
0.32639174
0.32717113
0.32861995
0.33073105
0.33350282
0.33697295
0.34117785
0.34611842
0.35182048
0.35818985
0.36474993
0.37077043
0.37388168
0.38393939
0.39601676
0.40606121
0.41447692
0.42177308
0.42811516
0.43345094
0.43767653
0.44075209
0.44268996
0.44345999
0.44301562
0.4413481
0.43846796
0.43444007
0.4293655
0.42332323
0.4164282
0.40884025
0.40070968
0.39218675
0.38348166
0.37487856
0.36684366
0.35955159
0.35302175
0.34724492
0.34217799
0.3378172
0.33422486
0.33136934
0.3291192
0.32742337
0.32633699
0.32588616
0.32608541
0.32695089
0.3284742
0.33068801
0.33358761
0.33715317
0.34141451
0.3463772
0.35203028
0.35824903
0.36447851
0.37027274
0.37353102
0.38382518
0.39614284
0.40672409
0.41561296
0.42329655
0.42995446
0.43554297
0.43995889
0.44316577
0.44518545
0.44598081
0.44548515
0.44369519
0.44063322
0.43636288
0.43099949
0.4246512
0.4174558
0.40958919
0.40122249
0.39251902
0.38366808
0.37493674
0.36672811
0.35920455
0.3524076
0.3463536
0.34101928
0.33641844
0.33263183
0.32962027
0.32723206
0.32543843
0.32431526
0.32388919
0.32416353
0.32512675
0.32677448
0.32915015
0.33224002
0.3360108
0.34049156
0.34568081
0.3515205
0.35783694
0.36405164
0.3697887
0.37325817
0.38395897
0.39668605
0.40782204
0.41719267
0.42526131
0.43222553
0.4380583
0.44265658
0.44598082
0.44805324
0.44882629
0.44822237
0.44625207
0.44294676
0.43836333
0.43263575
0.42591529
0.4183774
0.4102085
0.4015884
0.39268845
0.38369383
0.37483625
0.36642849
0.35866334
0.351606
0.34528947
0.33970976
0.33488883
0.33090188
0.3277055
0.32517013
0.32329385
0.32214075
0.32173264
0.32207252
0.32313385
0.3249223
0.32747974
0.33077395
0.33476963
0.33950078
0.34494994
0.35102213
0.35750549
0.36378767
0.36954671
0.37314963
0.3840214
0.3969251
0.40827713
0.41780342
0.42594067
0.43291452
0.43873226
0.44329712
0.44655583
0.44850415
0.44910705
0.44833514
0.44621494
0.44277359
0.4380602
0.43221112
0.42540901
0.41785038
0.40970945
0.40115224
0.39233918
0.38343988
0.37464838
0.36621184
0.35840157
0.35131821
0.344994
0.33942412
0.3346173
0.33063645
0.32743858
0.32490802
0.32304683
0.32191216
0.32152182
0.32187588
0.32295997
0.32479385
0.32740846
0.33075226
0.33480214
0.33960229
0.34511057
0.35120607
0.35767345
0.36389999
0.36965303
0.37323476
0.38395189
0.39669113
0.40779703
0.41705115
0.42488752
0.43154945
0.43707444
0.44137848
0.44439553
0.44610832
0.44651867
0.44563841
0.44349772
0.44012188
0.43555301
0.42992046
0.42339726
0.41615666
0.40835556
0.40013896
0.39164489
0.38302525
0.37445759
0.36617677
0.35853659
0.35167041
0.34559529
0.34029019
0.33573982
0.33198105
0.32897574
0.32662589
0.32491993
0.32389709
0.32357233
0.32393684
0.32497714
0.32673387
0.32923719
0.33241553
0.33627301
0.3408767
0.34616661
0.35202419
0.35826711
0.3643167
0.37003038
0.37342575
0.38399107
0.39654388
0.40724633
0.41610425
0.42357882
0.42990912
0.43514065
0.43919605
0.44200795
0.44357318
0.44391017
0.44301895
0.44093489
0.43769107
0.43333975
0.42799463
0.42178903
0.41486054
0.40735967
0.39942506
0.39117735
0.38275864
0.3743486
0.36619749
0.35870653
0.35203129
0.34619136
0.34113914
0.33684593
0.33330937
0.33048308
0.32833024
0.32683489
0.32598092
0.32577713
0.32621864
0.32726158
0.32894387
0.33130861
0.33427745
0.33787857
0.34220254
0.34719164
0.35276429
0.35878268
0.36472502
0.37043178
0.37364219
0.38447886
0.39724695
0.40777028
0.4164647
0.42382257
0.43006348
0.43522241
0.43922611
0.4420084
0.44357371
0.44392798
0.4430553
0.44101064
0.43782965
0.4335736
0.42834503
0.42224824
0.41539228
0.40791706
0.39995703
0.39162105
0.38304568
0.37442425
0.36605121
0.3584099
0.351681
0.3458603
0.34088753
0.33672404
0.33332607
0.3306142
0.32861543
0.3273257
0.32666558
0.32661535
0.32717586
0.32827338
0.32991902
0.3321749
0.33498367
0.33837853
0.34246527
0.34722305
0.35263253
0.3586108
0.36470716
0.37049487
0.37381858
0.38471325
0.39748097
0.40784807
0.41650056
0.42397179
0.43043349
0.43583824
0.44009876
0.44317434
0.44504959
0.44569668
0.44508232
0.4432127
0.44011843
0.43588613
0.43063086
0.42442345
0.41735931
0.40957935
0.40121658
0.39244486
0.38348449
0.37459306
0.36619997
0.35864615
0.35194913
0.34608212
0.3409925
0.33664426
0.33301437
0.3300683
0.3277725
0.3261025
0.32506583
0.32464885
0.3248727
0.32578973
0.3274161
0.32971887
0.33267198
0.33630984
0.34068299
0.34577234
0.35156796
0.35795107
0.36443176
0.37040277
0.37373691
0.38402298
0.39646875
0.40703535
0.4158857
0.4235151
0.43009878
0.43559129
0.43993226
0.44307797
0.44500883
0.44569361
0.44508668
0.4431865
0.44004362
0.43574954
0.43041377
0.42412143
0.4169865
0.40917425
0.40085642
0.39219923
0.38341505
0.37474601
0.36653744
0.35902655
0.35225823
0.34624368
0.34096804
0.33643283
0.33266809
0.32965172
0.32728581
0.32551552
0.32440575
0.32399543
0.32430077
0.3253219
0.32704892
0.32948734
0.33260138
0.33637615
0.34085873
0.34602653
0.35182731
0.3581107
0.36430004
0.37007382
0.37345514
0.38395276
0.39666454
0.40777158
0.41710797
0.42513555
0.43204563
0.43782074
0.44239655
0.44571949
0.44777787
0.44853084
0.44790366
0.44589833
0.44257925
0.43804181
0.43240899
0.42578477
0.41830844
0.41016472
0.40155441
0.39266497
0.38368239
0.37483772
0.36643402
0.35867084
0.3516094
0.34528131
0.33970113
0.33488828
0.33088393
0.32766439
0.32512957
0.3232464
0.32208598
0.32168282
0.3220571
0.32317967
0.32504191
0.32766275
0.33099494
0.33500723
0.33974038
0.34516591
0.35119061
0.35761751
0.36384563
0.3695991
0.37319176
0.38411173
0.3972242
0.40885768
0.41866804
0.42709447
0.43433861
0.44040481
0.44522623
0.44873691
0.45092083
0.45172282
0.45104868
0.44890852
0.44537511
0.44054764
0.434566
0.42755829
0.41970715
0.41120985
0.40227712
0.39310916
0.38389479
0.37483748
0.36619686
0.35816286
0.35080653
0.34417808
0.3383091
0.33322369
0.32896882
0.32552212
0.32281056
0.32082239
0.31960868
0.31919998
0.31962076
0.32082984
0.32282727
0.32563803
0.32919398
0.33345428
0.33845982
0.34416807
0.35045447
0.3570951
0.36346351
0.36926565
0.37302263
0.38414396
0.39733871
0.40908519
0.41899356
0.42747296
0.43473908
0.44082668
0.4456754
0.4492036
0.45135701
0.45208008
0.45131922
0.44909376
0.44547338
0.44055097
0.43446901
0.4273853
0.41950485
0.41101444
0.4021094
0.3929757
0.38379537
0.37476237
0.36611355
0.35806685
0.35070228
0.34407375
0.33820678
0.33310993
0.32883968
0.32537427
0.32264192
0.32063211
0.31939933
0.31897134
0.31935434
0.32053444
0.32252874
0.3253577
0.32893854
0.33324153
0.33831435
0.34409186
0.35042846
0.35710093
0.36348134
0.36928759
0.3730421
0.38402005
0.3969214
0.40828343
0.41782916
0.42596241
0.43290332
0.43870693
0.44332166
0.44665898
0.44864119
0.44923222
0.44841885
0.44622875
0.44272378
0.43797353
0.43212263
0.42533907
0.41779841
0.40967098
0.40112922
0.3923302
0.38343867
0.37465077
0.36622318
0.35841229
0.35131605
0.34497754
0.33940641
0.33459312
0.33056668
0.32731125
0.32475579
0.32287834
0.32173364
0.32134023
0.32167973
0.32275143
0.32460388
0.32725883
0.33062337
0.33469397
0.33953927
0.34508527
0.35119231
0.35766384
0.36389279
0.3696445
0.37323068
0.38406616
0.39672276
0.40758679
0.41666069
0.42438198
0.43096581
0.43646364
0.44081807
0.44394295
0.44577689
0.44629883
0.44548028
0.44337988
0.44004774
0.43555027
0.43001496
0.42358088
0.41638692
0.40859274
0.40036085
0.39182825
0.38315294
0.37454454
0.3662863
0.35868014
0.35182356
0.34576783
0.3404917
0.33597519
0.33220798
0.32916485
0.32681987
0.32515043
0.32416337
0.32386954
0.32425601
0.32529116
0.32702692
0.32949355
0.33260519
0.33638656
0.3409221
0.34614763
0.35196182
0.35820929
0.36434287
0.37008607
0.37347289
0.38467128
0.3976054
0.40827181
0.41714487
0.42471109
0.43117848
0.4365808
0.44084893
0.44389887
0.44569317
0.44621323
0.44540018
0.44334594
0.44009122
0.43570085
0.43029026
0.42397503
0.41686778
0.40911124
0.40085342
0.39221204
0.38335623
0.37451055
0.36602269
0.35830602
0.35144555
0.34546942
0.34033518
0.33600411
0.33242131
0.32953898
0.32738371
0.32593653
0.3251434
0.32498919
0.32548378
0.32655416
0.32822245
0.33053314
0.33343778
0.33697678
0.34124406
0.34621605
0.35186073
0.35808301
0.36440717
0.37028599
0.37369232
0.38465773
0.39754194
0.40811215
0.41688107
0.4243806
0.43079661
0.43611571
0.44028802
0.44327875
0.4450436
0.44555427
0.44479166
0.44277111
0.43955424
0.43524614
0.42994986
0.42373914
0.41671264
0.40900669
0.40076752
0.39215319
0.38333463
0.37451657
0.36605433
0.3583845
0.35157523
0.34564734
0.34055191
0.33622624
0.3326161
0.32970587
0.32747849
0.3258863
0.32494001
0.32463547
0.32498619
0.32603199
0.32775758
0.33011813
0.33310981
0.3367763
0.34115401
0.34619897
0.35187898
0.35810678
0.36442393
0.37033557
0.37374861
0.38404114
0.3966277
0.40736593
0.41630238
0.42392839
0.43043401
0.43581798
0.44007006
0.44313902
0.44496613
0.4455171
0.44475678
0.44269765
0.43942859
0.43505791
0.4296797
0.42337886
0.41627268
0.40852026
0.40030088
0.39178421
0.38313657
0.37454669
0.3662945
0.35870252
0.35186153
0.34581243
0.34054713
0.33604183
0.3322899
0.32929325
0.32697758
0.32528059
0.32426851
0.32397243
0.32439884
0.32554577
0.32738595
0.32989917
0.33304864
0.33684538
0.34133996
0.34648436
0.35220671
0.35836424
0.36441967
0.37017813
0.37353646
0.38399243
0.39681335
0.40802833
0.41740704
0.42540561
0.43222561
0.43789594
0.44240492
0.44568442
0.44767506
0.44832705
0.44757467
0.4454349
0.44201365
0.43742528
0.43177737
0.42516614
0.41772213
0.4096252
0.40108469
0.39229591
0.38342399
0.37465019
0.36621904
0.3584055
0.35130499
0.34495747
0.33939145
0.3346039
0.33060219
0.32738702
0.3248844
0.32305845
0.32197638
0.32165994
0.32212828
0.32335838
0.32532499
0.32801937
0.33138885
0.33542192
0.34016272
0.34556684
0.35153384
0.35787099
0.3639886
0.36973888
0.37329687
0.38412504
0.39726419
0.40891347
0.41871536
0.42709778
0.43425481
0.44023616
0.44503391
0.44856139
0.45074577
0.45151703
0.45078472
0.44856538
0.44497347
0.44013721
0.43418639
0.42723311
0.41942865
0.41096519
0.4020657
0.39294481
0.38378393
0.37476292
0.36611634
0.35806938
0.35070082
0.34406669
0.33820824
0.33312678
0.32884516
0.32537208
0.32266005
0.32069916
0.31953315
0.31917803
0.31965864
0.32094132
0.32301524
0.32588634
0.3294761
0.333751
0.33875631
0.34444143
0.35067997
0.35725603
0.36355186
0.36934659
0.37309487
0.38410669
0.39721029
0.4088506
0.41868228
0.42710095
0.43429461
0.4403346
0.44522087
0.44885046
0.45110826
0.45191467
0.45120226
0.44898204
0.44536679
0.44048673
0.43447607
0.42746981
0.41963698
0.41116087
0.40224646
0.39309555
0.3838935
0.37484033
0.36620971
0.35818757
0.35083529
0.34421337
0.33835277
0.333241
0.32892291
0.325406
0.32263416
0.32060239
0.31936663
0.31894812
0.31934763
0.32055009
0.32256824
0.3254184
0.32900835
0.33330839
0.33837095
0.34412957
0.35044007
0.3570888
0.363459
0.36926096
0.37302041
0.38395445
0.39667574
0.40783023
0.41723749
0.42529315
0.43218116
0.43797788
0.44268015
0.44618243
0.44834993
0.44911338
0.44843558
0.44632752
0.44288491
0.43821258
0.43244703
0.42573337
0.41822832
0.41009827
0.40151916
0.39265922
0.38368999
0.37483799
0.36643723
0.35867558
0.35160642
0.34527927
0.33971044
0.33487764
0.33080719
0.32749913
0.3248892
0.32295483
0.32175872
0.32132433
0.32163067
0.32267533
0.3245042
0.32713461
0.33047596
0.33452687
0.33935363
0.34488794
0.35099733
0.35749283
0.36377822
0.36953598
0.37314428
0.38402427
0.39647567
0.40707877
0.41597821
0.42360918
0.43015348
0.43566939
0.44012982
0.44343586
0.44547645
0.44620023
0.44555727
0.44358632
0.44035411
0.43595139
0.4304988
0.42412092
0.41694847
0.40913512
0.40084311
0.39221572
0.38342763
0.37474185
0.36652082
0.35899158
0.35220034
0.34617625
0.34091227
0.33638301
0.33257694
0.32948411
0.32707476
0.32532302
0.32424884
0.32387057
0.32417739
0.32514731
0.32682829
0.32923546
0.33230261
0.33606031
0.340579
0.34580701
0.35165421
0.35797154
0.36421893
0.36999249
0.37339851
0.38470719
0.39747204
0.40786482
0.41655123
0.42401894
0.43044683
0.43586651
0.44022697
0.44343915
0.44542341
0.44613895
0.44550388
0.4435874
0.44043878
0.4361332
0.43078148
0.42449573
0.41738629
0.40959147
0.40125416
0.39248197
0.38350269
0.37458542
0.3661616
0.35856112
0.35181332
0.34590769
0.34081157
0.3364891
0.33288017
0.329959
0.32773291
0.32617975
0.3252744
0.32500613
0.3253839
0.3263549
0.32793849
0.33016295
0.33301683
0.33654263
0.34081177
0.34581783
0.35153995
0.35789164
0.36439211
0.37035059
0.37368554
0.38444991
0.39713243
0.40752185
0.41608484
0.42334541
0.42949044
0.434548
0.43849357
0.44129345
0.44290255
0.44330448
0.44248867
0.44047178
0.43732346
0.43314064
0.42800548
0.42199345
0.41521391
0.40779417
0.3998643
0.39156099
0.38302575
0.37442851
0.36607019
0.35847305
0.35178989
0.34601468
0.34109558
0.33695007
0.3335078
0.33076462
0.32870615
0.32726332
0.32643543
0.32620969
0.32657994
0.32759299
0.32923225
0.33147277
0.33434055
0.33789466
0.34214181
0.34702334
0.35251403
0.35854043
0.36467561
0.37052809
0.37387197
0.38394799
0.39638653
0.40691273
0.41559454
0.42293382
0.42913597
0.43423973
0.4382407
0.44108639
0.44272703
0.44314706
0.44232219
0.4402713
0.43708221
0.4328482
0.42764581
0.42156001
0.41471797
0.40726446
0.39935171
0.39113159
0.3827446
0.37434987
0.3661986
0.35871823
0.35204728
0.34620633
0.34117633
0.33690059
0.33334929
0.33053742
0.3283984
0.32686997
0.32600398
0.32580043
0.32624191
0.32734646
0.32909231
0.33145311
0.33442881
0.33807614
0.34240903
0.34736352
0.35288797
0.35885413
0.3647588
0.37051181
0.37370048
0.38390533
0.39651684
0.40742108
0.41646762
0.42413088
0.43062193
0.43598976
0.44022887
0.44327442
0.4450767
0.44559861
0.44479039
0.44268111
0.43937088
0.43495692
0.42952973
0.42318137
0.41604411
0.40828244
0.40007759
0.3916054
0.38301269
0.3744598
0.3661804
0.35853251
0.35164547
0.34555129
0.34026269
0.33573917
0.33196531
0.32895445
0.32663641
0.32497926
0.3240422
0.32381291
0.32428269
0.32545306
0.32730367
0.32982001
0.33298626
0.33683271
0.34136871
0.34654264
0.35228496
0.35842165
0.36438635
0.37012347
0.37348263
0.38398807
0.39680304
0.4080226
0.41741759
0.42542346
0.43222996
0.4378971
0.44242909
0.44574014
0.44776057
0.44842686
0.4476715
0.44552213
0.44208546
0.43747465
0.43180169
0.42517037
0.41771803
0.40962195
0.40108276
0.39229588
0.38342657
0.37465336
0.36622813
0.35841755
0.35131773
0.34498225
0.3394357
0.33464219
0.33060626
0.32734669
0.32480452
0.32298624
0.3219489
0.32166252
0.32212404
0.32332502
0.32525961
0.32792666
0.33128499
0.33533251
0.3400865
0.34550142
0.35148576
0.35784293
0.36397637
0.3697348
0.37329638
0.38394546
0.3966455
0.407762
0.41712787
0.4251497
0.43200086
0.4377508
0.44240724
0.44586845
0.4480218
0.44878926
0.44812082
0.44603174
0.44262356
0.43801723
0.43232814
0.42567453
0.41820317
0.41008387
0.40150295
0.39264449
0.38368247
0.37484074
0.36644369
0.35868698
0.35162399
0.3453104
0.33976187
0.33493502
0.33085279
0.32753064
0.32490452
0.32298513
0.32183601
0.32144449
0.32180194
0.32290522
0.32477085
0.32739768
0.33074201
0.33479841
0.33959084
0.34507145
0.35113517
0.35758665
0.36382976
0.36959195
0.37318974
0.38382168
0.39613734
0.4067389
0.41566284
0.42332978
0.42991032
0.43546601
0.43998738
0.44337466
0.44550099
0.446294
0.4457307
0.44381517
0.44061774
0.43624403
0.43080847
0.42443349
0.41725991
0.409438
0.40112532
0.39247891
0.38366425
0.37493618
0.36672614
0.35919789
0.35238402
0.34632674
0.34102584
0.33643485
0.33256841
0.32942747
0.32695042
0.32511564
0.32396403
0.32351668
0.32376544
0.32471134
0.32639107
0.32880243
0.3319084
0.33572831
0.34029739
0.34557391
0.35146831
0.3578118
0.36403774
0.36977865
0.37325397
0.38393544
0.39600635
0.40606006
0.41449007
0.42175557
0.42802444
0.43333515
0.43765055
0.44087886
0.44291434
0.44370389
0.44322624
0.44148198
0.43850817
0.43439401
0.42924233
0.42316006
0.41627093
0.40871385
0.40063245
0.39216641
0.38348672
0.37487293
0.36682302
0.35951132
0.35295732
0.34717332
0.34214147
0.33781765
0.33418781
0.33124173
0.32894117
0.32725947
0.32620376
0.32579179
0.32602476
0.32689141
0.32842169
0.33062376
0.33347645
0.33701909
0.3413021
0.34630503
0.3519758
0.35818927
0.36443467
0.37022431
0.37350183
0.38464403
0.39703709
0.4068705
0.41509923
0.42221867
0.42838227
0.43360303
0.43782896
0.44097849
0.44296562
0.44374877
0.44328571
0.44158439
0.43867474
0.43462944
0.42954066
0.42350775
0.41663733
0.40906373
0.40091572
0.39230265
0.38344035
0.37462473
0.366422
0.35906887
0.35256785
0.34689164
0.342007
0.33786354
0.33440033
0.33159593
0.32944555
0.32792824
0.3270193
0.32670304
0.32698156
0.32783134
0.32926124
0.33130152
0.33397587
0.33732713
0.34141427
0.34626242
0.35187193
0.35817753
0.36472273
0.37073185
0.37384936
0.38417102
0.39647854
0.40648452
0.41472065
0.4216906
0.42756298
0.43237808
0.4361219
0.43874553
0.44021799
0.44055444
0.43976073
0.43783824
0.43482204
0.43079235
0.42584647
0.42007174
0.41357248
0.40646456
0.39885892
0.3908808
0.38266764
0.37437545
0.36626836
0.35890905
0.35247151
0.34691131
0.3421781
0.33819892
0.33492935
0.33235018
0.33041989
0.32908023
0.32831448
0.32810807
0.32844895
0.32935761
0.33085523
0.33294049
0.33565481
0.33906579
0.34315907
0.34788408
0.35321639
0.35907549
0.36507563
0.37087415
0.37409144
0.38391198
0.39616867
0.40637633
0.4147545
0.42181398
0.42775461
0.43262436
0.43640837
0.43904465
0.44051325
0.44084493
0.4400387
0.43809112
0.43503238
0.43093684
0.42590911
0.42004725
0.41346716
0.4062926
0.39864532
0.39065966
0.38247565
0.37424954
0.36622668
0.35891369
0.35246194
0.34685506
0.34205586
0.33800063
0.33466933
0.33205395
0.33008018
0.32870458
0.32794769
0.32778745
0.32820036
0.32919127
0.33077062
0.3329236
0.33568724
0.33914848
0.3432888
0.34805417
0.35341478
0.35924732
0.36509619
0.37087384
0.37392426
0.38394933
0.39639574
0.40692731
0.41561235
0.42295143
0.42915106
0.43425906
0.43825457
0.44106744
0.44267951
0.44309969
0.44231099
0.44031911
0.43716224
0.43291681
0.42769692
0.42160647
0.41476445
0.40730963
0.39938919
0.39115473
0.38275384
0.37435399
0.36620577
0.3587249
0.35205223
0.34622145
0.34120272
0.33693543
0.33341139
0.33062299
0.32849702
0.32701697
0.32621094
0.32603635
0.32647621
0.32753206
0.32920672
0.33148771
0.33440706
0.3380285
0.34232671
0.34726662
0.35281584
0.35881579
0.36474503
0.37051116
0.37370706
0.38403843
0.39662532
0.40736939
0.41631848
0.42394108
0.43042331
0.43581387
0.44009621
0.4431744
0.44500561
0.44556883
0.44483857
0.44282351
0.43957432
0.43518106
0.4297668
0.42344071
0.41632144
0.40856259
0.40033679
0.39180963
0.38314852
0.37455169
0.36630187
0.35871106
0.35186796
0.34583765
0.34059863
0.33609604
0.33233845
0.32931886
0.32697741
0.32532431
0.32441307
0.32417536
0.32459853
0.32568319
0.32743665
0.32985008
0.33293492
0.33672091
0.34119175
0.34632986
0.35209134
0.3582996
0.36439432
0.37017256
0.3735395
0.3840174
0.39645655
0.40702885
0.41589574
0.42350587
0.43002892
0.43551096
0.43992866
0.44317417
0.44516707
0.44586417
0.44524873
0.44332085
0.44013492
0.43578669
0.43039173
0.4240639
0.41692527
0.40912715
0.4008372
0.39220564
0.38342339
0.37474905
0.36653872
0.35902638
0.35225521
0.34626313
0.34103071
0.33650567
0.33270221
0.32960863
0.32717375
0.3254071
0.32435793
0.32398484
0.32428731
0.3252709
0.32695097
0.32932153
0.33238822
0.33617452
0.34067064
0.3458648
0.35171334
0.3580445
0.36427231
0.37006452
0.3734542
0.38393658
0.39601347
0.40606912
0.41450219
0.42177655
0.42805742
0.43337308
0.43767584
0.44087448
0.44288279
0.44365156
0.44317568
0.44144253
0.43847953
0.4343705
0.4292228
0.42314926
0.41626793
0.4087153
0.40063787
0.39216756
0.38348483
0.37487791
0.36683383
0.35953099
0.3529884
0.34722105
0.34220108
0.33787865
0.33425617
0.33131062
0.32900025
0.32731285
0.32623888
0.32578645
0.3259793
0.32681923
0.32832437
0.33049663
0.33335091
0.33692296
0.3412154
0.34622763
0.35193617
0.35819833
0.36445688
0.37026141
0.37352745
0.38403833
0.39585926
0.40536324
0.41332483
0.42022819
0.42622443
0.4313157
0.43543771
0.43851329
0.44046672
0.44125972
0.44088681
0.4393209
0.4365628
0.43268583
0.42778642
0.42196365
0.41532884
0.40801136
0.40014607
0.39186951
0.38335206
0.37485724
0.36698907
0.3599035
0.35360433
0.34807811
0.34328993
0.33919711
0.33577726
0.3329984
0.33083527
0.32927168
0.32827269
0.32784957
0.32803307
0.32881004
0.33018751
0.33218105
0.33481896
0.33814391
0.34218151
0.34695265
0.35245737
0.35859381
0.36488248
0.370754
0.37379801
0.38459052
0.39659405
0.40579133
0.41351967
0.42026094
0.42613059
0.43110979
0.43513962
0.43815214
0.44006912
0.44085016
0.4404791
0.43893402
0.43622079
0.43240307
0.4275636
0.42179272
0.41519476
0.40789989
0.40003274
0.39173014
0.38317326
0.37460652
0.36670467
0.35964434
0.35341785
0.34798884
0.34332305
0.33937114
0.33606934
0.33338889
0.33133636
0.32989667
0.32902167
0.32869093
0.32891567