/*--------------------------------*- C++ -*----------------------------------*\
| =========                 |                                                 |
| \\      /  F ield         | OpenFOAM: The Open Source CFD Toolbox           |
|  \\    /   O peration     | Version:  4.1                                   |
|   \\  /    A nd           | Web:      www.OpenFOAM.org                      |
|    \\/     M anipulation  |                                                 |
\*---------------------------------------------------------------------------*/
FoamFile
{
    version     2.0;
    format      ascii;
    class       volScalarField;
    location    "0.000700";
    object      p;
}
// * * * * * * * * * * * * * * * * * * * * * * * * * * * * * * * * * * * * * //

dimensions      [0 2 -2 0 0 0 0];

internalField   nonuniform List<scalar> 
3072
(
560.55826
508.85354
456.75694
405.75822
357.41165
313.37975
275.38106
245.11968
224.18851
213.93864
215.46568
229.68854
257.38985
298.58449
351.29897
413.61538
484.93213
564.39646
651.00444
743.20645
839.23284
937.64386
1036.8006
1111.117
560.22775
508.32868
456.10199
405.06618
356.729
312.72242
274.77177
244.59476
223.77914
213.64259
215.27261
229.59736
257.30814
298.31945
350.72817
412.81714
483.98077
563.47779
650.38588
743.57073
841.06709
941.35647
1040.8776
1112.6872
560.03998
507.98193
455.6193
404.5046
356.13228
312.13126
274.23025
244.13594
223.42868
213.40941
215.14713
229.52269
257.15063
297.92593
350.13695
412.21364
483.5064
563.26496
650.57341
744.30834
842.46811
943.87583
1043.8961
1114.4771
559.8494
507.67081
455.18577
403.97718
355.54634
311.54809
273.70998
243.70515
223.09932
213.19309
215.03759
229.45807
257.00743
297.5863
349.64765
411.71636
483.12476
563.12439
650.81825
745.02839
843.77796
946.17349
1046.9355
1117.1862
559.67196
507.40201
454.81845
403.52399
355.02451
311.03823
273.26905
243.37926
222.88604
213.08339
215.01611
229.47361
256.95816
297.37063
349.31613
411.39781
482.90599
563.07565
651.04209
745.56936
844.67489
947.90453
1049.8168
1119.1989
559.49099
507.11862
454.47328
403.1216
354.53903
310.57827
272.95899
243.18739
222.81387
213.11939
215.13487
229.62957
257.06392
297.33544
349.19913
411.30536
482.87442
563.11523
651.21581
745.86995
845.12619
948.53131
1049.838
1119.5074
559.34471
506.87866
454.16455
402.80515
354.09313
310.27435
272.72915
243.09085
222.85287
213.28003
215.39246
229.94269
257.35542
297.53026
349.34457
411.46808
483.04805
563.2671
651.33273
745.832
845.30843
947.94156
1049.9669
1120.1301
559.23152
506.63615
453.78601
402.14684
353.56902
309.80755
272.33604
242.8138
222.70392
213.25774
215.48626
230.12248
257.57506
297.79105
349.69555
411.91671
483.53999
563.72021
651.66019
745.92182
845.45965
946.46801
1048.7449
1118.5647
560.2162
508.43043
456.26702
405.20147
356.78227
312.72661
274.78586
244.62338
223.79415
213.64525
215.27969
229.59727
257.28692
298.28532
350.70509
412.80504
483.9671
563.45991
650.36626
743.55134
841.05587
941.35962
1040.8902
1112.6941
559.82941
507.91535
455.67796
404.6124
356.22601
312.21346
274.3349
244.26827
223.55916
213.51309
215.21692
229.58661
257.22148
297.92378
350.02661
412.00611
483.16851
562.82544
650.14566
744.0705
842.68509
944.36797
1043.9085
1113.975
559.63431
507.61828
455.29148
404.17733
355.77495
311.77619
273.94676
243.95823
223.34772
213.39871
215.17518
229.54777
257.06706
297.51689
349.42757
411.41054
482.71382
562.63026
650.31299
744.66744
843.78918
946.29387
1045.964
1115.2126
559.50145
507.41283
455.00472
403.82249
355.37547
311.38362
273.61787
243.69682
223.15719
213.27828
215.11998
229.49865
256.91954
297.18853
348.97266
410.94213
482.34942
562.46401
650.45691
745.19537
844.77319
947.97925
1047.8891
1116.7705
559.40195
507.2631
454.79894
403.5558
355.05264
311.07411
273.39903
243.53283
223.05807
213.23556
215.12274
229.51112
256.868
297.01015
348.71107
410.68896
482.16391
562.40107
650.58773
745.53973
845.32718
948.9502
1049.1033
1118.2063
559.31322
507.11831
454.61456
403.32998
354.76071
310.81179
273.19443
243.44613
223.05695
213.30328
215.23345
229.63491
256.96045
297.02602
348.68597
410.68538
482.19795
562.47064
650.71948
745.71586
845.36574
949.14855
1049.91
1119.3846
559.2637
506.99613
454.43797
403.11768
354.50958
310.59857
273.04498
243.3916
223.09674
213.42747
215.41841
229.85459
257.18794
297.2473
348.91719
410.9383
482.45873
562.70412
650.90159
745.72626
844.82482
948.74111
1050.338
1120.5844
559.27126
506.89148
454.22918
402.84736
354.08834
310.25575
272.75064
243.16206
222.94653
213.36075
215.43346
229.93857
257.33509
297.52907
349.35998
411.47798
483.04035
563.24538
651.30894
745.8321
845.3616
948.011
1050.0281
1120.1622
560.01616
508.12945
455.86254
404.70906
356.22436
312.16011
274.27749
244.20509
223.47586
213.42918
215.16266
229.52365
257.11637
297.86917
350.09847
412.1962
483.48517
563.23357
650.54056
744.27378
842.44774
943.88055
1043.9164
1114.487
559.62166
507.6683
455.37249
404.24674
355.8147
311.80533
273.98781
244.00887
223.38835
213.41873
215.18374
229.54532
257.04392
297.47865
349.40405
411.40447
482.70732
562.6162
650.29723
744.6525
843.78135
946.29711
1045.9733
1115.2175
559.42294
507.41473
455.06768
403.92183
355.49269
311.49802
273.71976
243.80987
223.27034
213.36726
215.16346
229.50124
256.88954
297.11217
348.8543
410.82767
482.2158
562.29816
650.2279
744.88721
844.45239
947.60124
1047.138
1115.7358
559.32134
507.27606
454.8789
403.68763
355.22799
311.2399
273.50948
243.64999
223.1511
213.28388
215.10966
229.43513
256.74285
296.82313
348.47592
410.42457
481.86504
562.07235
650.21374
745.15988
845.10923
948.79212
1048.3863
1116.621
559.26259
507.20118
454.77668
403.53918
355.03551
311.0544
273.38536
243.57467
223.1074
213.25952
215.09961
229.42231
256.687
296.69691
348.30594
410.25503
481.72845
562.001
650.26133
745.35726
845.4754
949.4546
1049.2464
1117.5383
559.22578
507.14465
454.70214
403.42646
354.88123
310.89868
273.28824
243.55254
223.1439
213.33018
215.17419
229.49099
256.75651
296.76891
348.38562
410.35292
481.84047
562.11697
650.39533
745.50141
845.53384
949.49728
1049.6394
1118.348
559.24956
507.12113
454.638
403.32699
354.71973
310.76859
273.20639
243.52517
223.17571
213.41222
215.28358
229.61915
256.92972
297.02816
348.71007
410.70127
482.19106
562.4421
650.68236
745.69096
845.38112
949.20571
1049.9693
1119.417
559.36432
507.14471
454.57464
403.16994
354.48761
310.51716
272.99389
243.33129
223.01084
213.29108
215.22189
229.62464
257.02972
297.34022
349.23499
411.32786
482.85765
563.06431
651.15622
745.84327
845.18246
948.64921
1049.9553
1119.5732
559.81386
507.79337
455.39709
404.16163
355.64752
311.6117
273.79676
243.81495
223.19385
213.25352
215.07295
229.4608
256.97007
297.52621
349.60224
411.69017
483.0951
563.0829
650.77511
744.98972
843.7592
946.18275
1046.9595
1117.1952
559.48344
507.44511
455.05307
403.86726
355.42211
311.44878
273.7017
243.79684
223.2581
213.34785
215.14991
229.49368
256.88543
297.13622
348.93491
410.9265
482.33244
562.43784
650.43066
745.17679
844.7691
947.99097
1047.9067
1116.7802
559.32217
507.26519
454.84895
403.66453
355.23767
311.27744
273.55484
243.70605
223.21785
213.33455
215.12924
229.43165
256.7273
296.7935
348.45569
410.41401
481.85607
562.05978
650.20245
745.15635
845.11471
948.80312
1048.3965
1116.627
559.25326
507.19127
454.74984
403.53769
355.09124
311.13247
273.435
243.62021
223.15166
213.28313
215.0858
229.36943
256.60686
296.59206
348.17994
410.10809
481.5673
561.84094
650.10633
745.24274
845.49181
949.53454
1049.0441
1116.9045
559.21688
507.17462
454.73253
403.48325
354.99148
311.03751
273.38212
243.60517
223.15379
213.28908
215.08733
229.36026
256.58284
296.55561
348.13381
410.05715
481.51977
561.80823
650.10929
745.29927
845.62127
949.78533
1049.3773
1117.2464
559.21629
507.1925
454.76159
403.47772
354.93302
310.96837
273.3749
243.64708
223.23111
213.37235
215.14947
229.41319
256.67125
296.71098
348.33626
410.27378
481.72446
561.97473
650.22537
745.34052
845.50736
949.53206
1049.3235
1117.5811
559.30437
507.27138
454.8304
403.4995
354.91219
310.95776
273.40191
243.68126
223.28382
213.43648
215.21829
229.50309
256.83813
297.02851
348.76076
410.71971
482.14925
562.34351
650.51605
745.50517
845.37521
949.0792
1049.2285
1118.2726
559.52902
507.4469
454.93562
403.53362
354.8929
310.91513
273.31407
243.58893
223.17378
213.32962
215.14507
229.48843
256.93703
297.39305
349.37253
411.43094
482.8788
562.99508
650.94977
745.52908
844.74625
948.06622
1049.9762
1119.3018
559.63689
507.46962
454.93979
403.63236
355.10313
311.12286
273.38161
243.51133
223.02011
213.19287
215.08275
229.48211
256.92003
297.31645
349.27169
411.36251
482.8662
563.02529
650.99239
745.53332
844.66578
947.92144
1049.8427
1119.1994
559.39459
507.2514
454.75916
403.52083
355.07232
311.1552
273.50064
243.65492
223.20435
213.36235
215.18808
229.50993
256.8295
296.96296
348.67234
410.65934
482.13355
562.36395
650.55415
745.52278
845.3329
948.97434
1049.1282
1118.22
559.2834
507.15258
454.66042
403.43942
355.02312
311.11162
273.45169
243.65555
223.219
213.36021
215.15109
229.42935
256.67282
296.67235
348.27981
410.23125
481.70618
561.97638
650.24205
745.35577
845.49233
949.47876
1049.2639
1117.5488
559.24132
507.13613
454.64304
403.40839
354.97932
311.06014
273.40353
243.63031
223.19552
213.33122
215.11748
229.38046
256.59212
296.55069
348.12051
410.04274
481.50617
561.79432
650.10006
745.3018
845.63486
949.80048
1049.3851
1117.2508
559.22428
507.1682
454.698
403.43239
354.95467
311.02331
273.39769
243.65889
223.23965
213.37375
215.14258
229.39135
256.62137
296.62279
348.21599
410.12753
481.56327
561.81502
650.0702
745.22594
845.52648
949.61513
1049.1214
1116.9514
559.25537
507.2554
454.81802
403.52288
354.99641
311.05914
273.47052
243.76098
223.35389
213.47567
215.21329
229.45714
256.75123
296.8656
348.54026
410.4612
481.85378
562.01693
650.14282
745.12998
845.17443
948.9418
1048.5323
1116.7052
559.40154
507.42732
455.00093
403.67666
355.12048
311.18538
273.60784
243.88497
223.45098
213.54249
215.26327
229.5306
256.92454
297.24003
349.05232
410.98625
482.32376
562.37632
650.35385
745.14963
844.84965
948.16624
1048.0726
1116.8731
559.72234
507.74145
455.28515
403.91383
355.32122
311.35897
273.73698
243.95355
223.45043
213.49666
215.2103
229.51076
257.02142
297.64136
349.73008
411.75941
483.08504
563.01544
650.69619
744.97578
843.8653
946.38261
1047.1391
1117.2929
559.46556
507.13757
454.49343
403.13162
354.56921
310.65672
273.065
243.31208
222.95877
213.25815
215.23257
229.6605
257.03718
297.28987
349.16063
411.2672
482.82674
563.05763
651.16108
745.83643
845.1277
948.55997
1049.8758
1119.5264
559.32425
507.06872
454.48753
403.20487
354.73246
310.88015
273.29054
243.55797
223.20552
213.45125
215.33341
229.67005
256.94112
296.98492
348.64844
410.64922
482.15629
562.42366
650.6795
745.70079
845.37814
949.18073
1049.9405
1119.4043
559.27164
507.06063
454.50057
403.24061
354.81789
310.94909
273.35355
243.62432
223.24867
213.43732
215.25582
229.54567
256.77575
296.75521
348.35764
410.31982
481.80426
562.08018
650.36912
745.50102
845.5578
949.53033
1049.6623
1118.3644
559.26661
507.11052
454.5736
403.30891
354.87748
310.99594
273.39875
243.66794
223.27118
213.42296
215.20839
229.47949
256.71556
296.71495
348.31622
410.24714
481.6956
561.94707
650.20856
745.3455
845.53035
949.5577
1049.3388
1117.5923
559.282
507.20415
454.70926
403.42559
354.95761
311.06015
273.47173
243.76091
223.36213
213.49341
215.24385
229.4978
256.77881
296.86741
348.52798
410.44909
481.83943
562.00186
650.13455
745.13409
845.18679
948.95408
1048.54
1116.7124
559.36106
507.36558
454.92295
403.62654
355.12825
311.22551
273.64678
243.93894
223.52404
213.62077
215.3233
229.56963
256.9378
297.2044
348.95325
410.87966
482.19103
562.20947
650.12788
744.8543
844.549
947.80657
1047.3356
1115.8498
559.55497
507.6205
455.214
403.91206
355.40472
311.5045
273.91461
244.16578
223.68763
213.71669
215.36934
229.62524
257.11404
297.61014
349.53913
411.46874
482.6752
562.51397
650.18599
744.61837
843.88897
946.52238
1046.1873
1115.3387
559.94646
508.05554
455.65856
404.33889
355.81422
311.88793
274.24273
244.40611
223.82329
213.76275
215.36486
229.61641
257.20473
298.01876
350.24697
412.26599
483.45468
563.1311
650.42998
744.24983
842.56841
944.11409
1044.1313
1114.6099
559.33182
506.85332
454.09209
402.71602
354.06428
310.32295
272.81379
243.19768
222.9877
213.41766
215.50549
230.00976
257.36071
297.49864
349.30972
411.42726
482.99309
563.20306
651.27446
745.79955
845.31819
947.97626
1050.0097
1120.1589
559.29153
506.91333
454.23578
402.90206
354.4177
310.62927
273.11456
243.48001
223.22214
213.5595
215.53441
229.94445
257.2167
297.22109
348.87817
410.89569
482.40582
562.64667
650.85484
745.70806
844.8331
948.77608
1050.3729
1120.6115
559.31069
507.00223
454.36292
403.06198
354.59776
310.77986
273.24914
243.57751
223.25916
213.50376
215.37908
229.72385
256.99555
297.03139
348.68151
410.66069
482.14208
562.39319
650.64853
745.68721
845.40362
949.23987
1049.9964
1119.442
559.36663
507.14346
454.54996
403.23951
354.78899
310.94536
273.4095
243.69325
223.32103
213.49051
215.29144
229.59748
256.91051
297.04736
348.74347
410.68729
482.10899
562.3045
650.49256
745.50856
845.39884
949.1077
1049.2466
1118.2922
559.44075
507.32114
454.78863
403.47651
355.01151
311.15066
273.59364
243.88046
223.46577
213.57444
215.31134
229.59138
256.96809
297.24653
349.04034
410.97243
482.30064
562.3499
650.33904
745.15443
844.86635
948.18296
1048.0853
1116.889
559.56949
507.56117
455.10234
403.80277
355.33512
311.47219
273.90105
244.16295
223.69412
213.73012
215.38944
229.64982
257.12706
297.60483
349.53338
411.46718
482.66796
562.50119
650.17863
744.62064
843.89645
946.52947
1046.1933
1115.3461
559.7726
507.86815
455.47868
404.20665
355.75783
311.89879
274.29678
244.49661
223.9406
213.87955
215.45384
229.69971
257.3068
298.05332
350.16496
412.07138
483.11796
562.68845
650.00541
744.02287
842.79752
944.61336
1044.1467
1114.1128
560.16511
508.35967
456.02811
404.77646
356.33308
312.45133
274.7847
244.88538
224.21027
214.03837
215.52865
229.72872
257.39924
298.44486
350.8598
412.87447
483.9188
563.32668
650.23394
743.51239
841.17379
941.60284
1041.121
1112.8304
559.23161
506.56762
453.63148
401.9732
353.48689
309.81742
272.39069
242.8964
222.81973
213.38216
215.5987
230.21112
257.61375
297.78132
349.66531
411.87295
483.48036
563.65255
651.60131
745.89162
845.46698
946.50973
1048.7968
1118.6048
559.30676
506.77126
453.96151
402.57865
353.94511
310.24225
272.7864
243.22538
223.04983
213.47581
215.54613
230.04767
257.39768
297.52759
349.32741
411.43197
482.9809
563.18152
651.25844
745.81139
845.37084
948.05195
1050.0721
1120.2008
559.4237
506.9886
454.23961
402.84195
354.31256
310.48094
273.00382
243.36438
223.08278
213.37846
215.31726
229.73528
257.11171
297.36123
349.21447
411.28566
482.80227
563.00784
651.11665
745.83562
845.20099
948.68652
1049.9917
1119.6154
559.58391
507.27882
454.59549
403.20646
354.70833
310.85357
273.29185
243.59009
223.21385
213.39348
215.22214
229.57998
257.01274
297.42404
349.36451
411.3983
482.83228
562.94785
650.91956
745.5284
844.76762
948.09229
1050.008
1119.3682
559.75619
507.58801
454.99643
403.63311
355.14621
311.27839
273.69659
243.93967
223.47028
213.5413
215.26788
229.57514
257.07083
297.65914
349.7261
411.74265
483.05368
562.97925
650.67401
744.97735
843.88284
946.40214
1047.1574
1117.3154
559.96097
507.94078
455.45366
404.13549
355.6748
311.81182
274.20374
244.3921
223.83154
213.78822
215.4019
229.65602
257.22646
298.01795
350.2427
412.26105
483.43704
563.10606
650.41418
744.25035
842.57954
944.12732
1044.1446
1114.6237
560.16771
508.2992
455.92509
404.67295
356.25745
312.40584
274.76035
244.87567
224.21185
214.0501
215.54914
229.74888
257.40448
298.43832
350.85556
412.87133
483.90911
563.31304
650.22467
743.5116
841.17895
941.61009
1041.1287
1112.8375
560.51164
508.79872
456.53762
405.35039
356.96776
313.10717
275.40395
245.42529
224.64399
214.36367
215.75015
229.85009
257.51247
298.73182
351.44164
413.67399
484.86652
564.23874
650.85301
743.15534
839.34649
937.88898
1037.0378
1111.2623
1111.6941
1025.9505
926.01166
832.12215
740.92085
653.02836
568.43632
489.84359
418.45278
355.68984
301.50143
258.72715
230.4527
216.35447
215.03974
225.49078
246.60497
276.99005
315.01754
358.97309
407.19693
458.03783
509.84547
561.11766
1108.2206
1026.5209
927.23893
832.72817
740.97794
652.15164
567.82278
489.39241
418.36986
355.91146
301.94967
259.19606
230.87405
216.45764
214.89865
225.14847
246.09172
276.35839
314.31402
358.23446
406.45702
457.37485
509.36715
560.87596
1105.976
1027.3112
928.77208
833.69006
741.14472
651.41081
566.66272
488.1005
417.1983
355.00314
301.5367
259.24724
231.01001
216.46562
214.68199
224.71659
245.46495
275.59473
313.45896
357.35384
405.60616
456.63175
508.84331
560.62252
1104.0103
1028.4214
930.46664
834.52693
741.1573
650.72252
565.46875
486.74049
415.88211
353.87308
300.89526
259.14263
231.07635
216.43022
214.43422
224.24146
244.77393
274.75805
312.50403
356.38639
404.70781
455.8787
508.32091
560.37963
1104.6454
1029.5586
932.00794
835.26297
741.2573
650.25606
564.53071
485.63889
414.78514
352.89928
300.32902
259.07053
231.20011
216.48433
214.30265
223.88045
244.19494
274.0389
311.59086
355.45063
403.85474
455.16793
507.81965
560.13941
1105.5771
1031.9686
933.2195
835.59467
741.32532
649.9306
563.88524
484.89408
414.03601
352.22221
299.97257
259.14162
231.45313
216.69151
214.35825
223.73164
243.8107
273.35072
310.83613
354.64799
403.1146
454.52594
507.34005
559.90228
1105.8755
1032.8319
933.62862
835.20438
741.26181
649.76641
563.57859
484.56014
413.68923
351.86782
299.86291
259.3896
231.81295
216.9909
214.51202
223.69255
243.55146
272.85051
310.15711
354.0165
402.55749
453.99274
506.95003
559.76152
1107.9635
1033.3494
933.29166
834.51435
741.0324
649.77262
563.68451
484.71547
413.78085
351.83501
299.90327
259.59669
232.01984
217.08623
214.43537
223.41503
243.06617
272.1748
309.34877
353.13964
401.9753
453.35007
506.52906
559.53934
1167.366
1051.6695
942.31438
840.34035
738.14514
640.74087
550.58298
467.07804
393.22271
331.28375
283.39553
248.57756
224.99931
212.69731
212.30919
223.50363
245.32233
276.37936
315.05858
359.64779
408.42628
459.68071
511.70139
562.96106
1162.1023
1049.5
940.84766
839.15689
738.09218
642.37924
552.63509
469.89261
396.32829
334.26535
285.76561
250.14363
225.7718
213.15988
212.51816
223.48314
245.09251
275.97275
314.52389
359.03821
407.79496
459.09385
511.24314
562.67049
1157.9157
1047.9628
940.85642
839.68137
740.19618
644.59828
555.35076
473.10862
399.78097
337.51717
288.31759
251.78814
226.73631
213.59695
212.55693
223.15851
244.43618
275.04371
313.41734
357.85236
406.63254
458.0616
510.4625
562.21925
1156.8254
1047.5627
941.68822
840.58908
741.63337
646.94985
558.27748
476.48937
403.34373
340.84902
290.93008
253.45868
227.63203
213.87676
212.30211
222.40943
243.25423
273.49786
311.67117
356.03893
404.90861
456.58764
509.38115
561.62092
1156.1352
1048.3543
943.25317
842.08789
743.67775
649.60955
561.33868
479.86091
406.79273
344.0287
293.42344
255.05811
228.44156
214.02131
211.82809
221.36016
241.67708
271.4266
309.40755
353.69753
402.68692
454.69305
507.99105
560.8648
1157.457
1048.465
944.89429
844.11445
745.83209
652.13626
564.16535
482.90703
409.87233
346.8549
295.64547
256.49729
229.16391
214.09783
211.2782
220.20201
239.96891
269.35605
306.93884
351.1192
400.22065
452.56932
506.41787
560.00547
1160.0139
1048.6805
945.9284
845.55399
747.47238
654.09286
566.3906
485.32718
412.34171
349.16259
297.45164
257.65917
229.79906
214.24049
210.922
219.34738
238.64317
267.64154
304.96348
348.98139
398.14626
450.81819
505.13861
559.36508
1163.9714
1049.7973
947.00972
846.64777
748.66987
655.39382
567.79436
486.79893
413.81027
350.53967
298.52066
258.31815
230.1323
214.27384
210.64587
218.74811
237.72198
266.42709
303.52239
347.45937
396.40339
449.45213
504.09057
558.71982
1107.9744
1033.3661
933.31025
834.53352
741.03912
649.77622
563.68309
484.71691
413.78637
351.8385
299.90233
259.59707
232.02885
217.10864
214.47036
223.45534
243.10012
272.19578
309.36267
353.15767
402.00598
453.36817
506.50752
559.49477
1105.9189
1032.8999
933.70689
835.27166
741.29153
649.76103
563.57015
484.55977
413.70073
351.87767
299.8592
259.38613
231.83635
217.05888
214.6206
223.81692
243.65208
272.90046
310.17481
354.05812
402.64807
454.07206
506.95027
559.63861
1105.6565
1032.0979
933.36642
835.69995
741.3579
649.91034
563.85659
484.88534
414.05439
352.24648
299.97677
259.14238
231.4958
216.80747
214.54524
223.94763
243.98332
273.42443
310.83531
354.67639
403.2347
454.65656
507.34694
559.7273
1104.7574
1029.7473
932.2129
835.39227
741.28286
650.21002
564.47476
485.61705
414.81018
352.94283
300.35247
259.08818
231.26859
216.64615
214.56158
224.18313
244.43568
274.12927
311.55403
355.43066
403.96053
455.32554
507.85247
559.95319
1104.1528
1028.6472
930.70379
834.66489
741.16589
650.6426
565.3826
486.70304
415.91436
353.94251
300.95125
259.19202
231.17932
216.63614
214.74987
224.60416
245.05682
274.84807
312.42029
356.29401
404.75267
456.02
508.37679
560.21917
1106.1255
1027.5475
929.01695
833.82268
741.13496
651.30536
566.54909
488.0484
417.23681
355.09729
301.62793
259.3334
231.14912
216.71041
215.04018
225.11716
245.76887
275.679
313.33578
357.18307
405.54883
456.69625
508.8873
560.5017
1108.3667
1026.7471
927.47392
832.85093
740.95879
652.04984
567.6906
489.3303
418.41284
356.02286
302.06701
259.31213
231.04323
216.73197
215.28692
225.57292
246.40736
276.44238
314.17002
357.99699
406.27908
457.31437
509.35386
560.78423
1111.8307
1026.1559
926.22632
832.23196
740.89646
652.91996
568.29779
489.7817
418.50302
355.81422
301.63706
258.86463
230.64091
216.6453
215.44154
225.9219
246.9216
277.0768
314.86938
358.6908
406.9125
457.84689
509.75398
561.03872
1163.9796
1049.8069
947.01941
846.65
748.67271
655.39279
567.79145
486.79646
413.81054
350.54364
298.52516
258.32204
230.14322
214.29852
210.68456
218.79258
237.75852
266.44837
303.5372
347.48414
396.435
449.47521
504.07745
558.67106
1160.0391
1048.7176
945.96543
845.5886
747.48814
654.09237
566.38409
485.32304
412.34453
349.17297
297.4629
257.67283
229.8339
214.31173
211.02956
219.47075
238.7481
267.70667
305.00453
349.03715
398.22464
450.87596
505.11753
559.25418
1157.4994
1048.528
944.96084
844.18301
745.85605
652.13279
564.15232
482.90086
409.87957
346.87332
295.67071
256.53155
229.22806
214.2155
211.4499
220.39668
240.13383
269.4551
306.98896
351.17809
400.3136
452.64517
506.39819
559.86649
1156.1912
1048.4352
943.33376
842.12989
743.69878
649.59803
561.31689
479.8525
406.80673
344.06046
293.46815
255.11686
228.53636
214.18298
212.05764
221.61706
241.89182
271.54786
309.44938
353.73052
402.75578
454.75875
507.97181
560.72432
1156.8904
1047.6581
941.78536
840.65058
741.65003
646.92655
558.24508
476.47764
403.36579
340.89891
290.99917
253.54524
227.75876
214.07821
212.57927
222.71496
243.50435
273.62815
311.69075
356.0231
404.92026
456.61341
509.35233
561.49296
1157.985
1048.0641
940.96158
839.74739
740.20414
644.56095
555.30796
473.09372
399.81175
337.58777
288.4139
251.90355
226.89225
213.83096
212.87056
223.49757
244.70749
275.17298
313.40706
357.77465
406.56219
458.01853
510.4078
562.1069
1162.1684
1049.5999
940.95383
839.22175
738.09171
642.33046
552.585
469.87645
396.36886
334.35667
285.88794
250.28458
225.95001
213.41711
212.85756
223.8453
245.37574
276.09533
314.4805
358.89244
407.6275
458.96033
511.14671
562.57307
1167.4268
1051.7662
942.41839
840.40395
738.14418
640.70903
550.53121
467.06254
393.27188
331.39118
283.53842
248.73793
225.19395
212.96876
212.66377
223.87901
245.611
276.49451
314.98556
359.43808
408.16373
459.45325
511.55502
562.87258
1111.8309
1026.156
926.22687
832.23229
740.89431
652.91447
568.29215
489.77742
418.50257
355.81693
301.64232
258.87194
230.64969
216.65317
215.44491
225.91952
246.91288
277.06084
314.84531
358.65744
406.87245
457.81048
509.73404
561.0413
1108.3699
1026.7501
927.47611
832.85131
740.95112
652.031
567.66904
489.31432
418.40841
356.02783
302.07879
259.33184
231.07094
216.75824
215.30136
225.5712
246.38717
276.40043
314.10094
357.89562
406.15274
457.19484
509.28469
560.78666
1106.1341
1027.555
929.02298
833.82469
741.12472
651.27915
566.51431
488.02108
417.22766
355.10709
301.65355
259.37059
231.1931
216.75202
215.06785
225.12057
245.74189
275.61764
313.22982
357.01699
405.33095
456.48527
508.76461
560.50454
1104.1689
1028.6622
930.7174
834.6716
741.15544
650.61103
565.33753
486.6642
415.89728
353.9552
300.99164
259.24754
231.23856
216.69302
214.79469
224.62002
245.03377
274.7837
312.30021
356.08682
404.46336
455.73453
508.21266
560.2249
1104.771
1029.771
932.23778
835.40431
741.27204
650.17246
564.42124
485.56746
414.78293
352.95232
300.39879
259.15575
231.34152
216.71828
214.62605
224.22035
244.43215
274.08283
311.44659
355.21581
403.64117
455.00755
507.67404
559.96389
1105.6859
1032.1356
933.39899
835.71412
741.34327
649.86702
563.79709
484.82915
414.01919
352.24688
300.01689
259.21281
231.57824
216.89193
214.62773
224.0093
244.00669
273.40671
310.75521
354.483
402.93501
454.3615
507.1847
559.73691
1105.958
1032.95
933.74573
835.28307
741.26854
649.71151
563.50716
484.50164
413.66199
351.86876
299.88724
259.45064
231.92131
217.15102
214.715
223.89607
243.69734
272.90645
310.122
353.90977
402.41512
453.84946
506.81967
559.63382
1108.0168
1033.4219
933.35069
834.53965
741.01079
649.72175
563.62075
484.66202
413.75046
351.82745
299.92152
259.64895
232.10577
217.19998
214.56716
223.5405
243.15713
272.21865
309.33892
353.07031
401.8686
453.24484
506.4494
559.47436
1167.4274
1051.7675
942.42032
840.40586
738.14502
640.7093
550.52765
467.05953
393.2713
331.39297
283.5418
248.74217
225.19856
212.9717
212.66425
223.8763
245.60368
276.48108
314.96578
359.4129
408.13617
459.43028
511.54434
562.876
1162.1702
1049.6034
940.95759
839.22477
738.09099
642.32037
552.5739
469.86823
396.36716
334.36256
285.90008
250.30093
225.96643
213.42873
212.86156
223.83854
245.35375
276.05427
314.41828
358.8102
407.53453
458.87935
511.10455
562.57831
1157.9887
1048.0705
940.96671
839.75016
740.20042
644.54709
555.289
473.07849
399.80727
337.59693
288.43572
251.93349
226.9224
213.85424
212.88282
223.49294
244.67874
275.11433
313.31283
357.6424
406.40546
457.87726
510.32977
562.10793
1156.896
1047.6686
941.79328
840.65348
741.64384
646.90788
558.21864
476.45491
403.35687
340.90928
291.02841
253.58661
227.80229
214.11603
212.6059
222.72164
243.48103
273.56726
311.58189
355.85755
404.71376
456.42162
509.24123
561.48441
1156.2015
1048.4506
943.34374
842.13169
743.68809
649.5729
561.28315
479.82242
406.79248
344.06984
293.50171
255.16642
228.59098
214.23547
212.10186
221.64172
241.88448
271.49914
309.34318
353.55266
402.52332
454.53808
507.84027
560.70669
1157.5142
1048.5479
944.97588
844.18571
745.84079
652.101
564.11196
482.86502
409.86066
346.87999
295.70491
256.58508
229.29038
214.28054
211.51121
220.44149
240.1479
269.4263
306.89913
351.0103
400.08621
452.42736
506.26697
559.8433
1160.0577
1048.744
945.98496
845.59141
747.46835
654.0542
566.33732
485.28204
412.32119
349.1753
297.49315
257.72492
229.89994
214.38598
211.10483
219.5337
238.78442
267.70391
304.94477
348.90403
398.03898
450.69822
505.01091
559.2292
1164.0013
1049.8387
947.04197
846.65402
748.64943
655.3504
567.74156
486.75217
413.78165
350.53832
298.54646
258.36686
230.20726
214.37655
210.76886
218.87008
237.81583
266.47464
303.51896
347.41238
396.3287
449.37391
504.01795
558.64633
1108.0062
1033.4093
933.33443
834.52079
741.00331
649.71703
563.62102
484.6585
413.74026
351.8184
299.91186
259.63412
232.08653
217.17476
214.53514
223.50838
243.13632
272.21953
309.36219
353.11278
401.92814
453.30876
506.49937
559.51173
1105.9171
1032.8911
933.67188
835.21132
741.2333
649.7129
563.517
484.50299
413.64536
351.84319
299.85709
259.40807
231.86583
217.07519
214.61338
223.79316
243.63513
272.91566
310.20619
354.05835
402.60595
454.04635
506.98916
559.72757
1105.6124
1032.0211
933.25824
835.59966
741.29675
649.88005
563.82728
484.84086
413.99112
352.18796
299.95238
259.14382
231.49011
216.76277
214.44917
223.83109
243.90575
273.43319
310.9145
354.75772
403.27684
454.69489
507.43389
559.86726
1104.6756
1029.6045
932.03997
835.26247
741.22808
650.21122
564.47886
485.59121
414.74039
352.85563
300.29375
259.05841
231.22175
216.53335
214.36759
223.96648
244.29115
274.12264
311.6776
355.61375
404.12734
455.45854
507.98253
560.10553
1104.0302
1028.4599
930.49087
834.51782
741.12319
650.68552
565.42398
486.69989
415.84259
353.82992
300.85555
259.125
231.08864
216.45721
214.46398
224.29247
244.84224
274.81032
312.56603
356.5644
405.04545
456.25348
508.54026
560.35366
1105.9907
1027.3402
928.78737
833.67702
741.11297
651.38736
566.62583
488.06814
417.1669
354.96697
301.50053
259.22967
231.01752
216.47817
214.68523
224.73249
245.49766
275.61175
313.48848
357.50721
405.92663
456.99637
509.06152
560.60487
1108.2291
1026.5372
927.24692
832.7182
740.95542
652.1194
567.79702
489.37029
418.34798
355.88669
301.92414
259.18313
230.87938
216.46445
214.8948
225.14911
246.10152
276.35765
314.32523
358.33445
406.67272
457.62106
509.51376
560.86208
1111.6961
1025.9545
926.01307
832.11772
740.9116
653.01285
568.4328
489.83683
418.44566
355.68239
301.49445
258.72374
230.45421
216.35586
215.03723
225.48847
246.6047
276.98763
315.02235
359.00919
407.27063
458.12045
509.89509
561.11433
1163.9946
1049.8313
947.03363
846.65033
748.64504
655.34962
567.74234
486.75064
413.77527
350.52313
298.52613
258.34865
230.18778
214.34966
210.73361
218.83603
237.79748
266.48214
303.55461
347.47356
396.40869
449.45909
504.08826
558.69071
1160.0355
1048.7136
945.9519
845.55735
747.45051
654.0524
566.34107
485.27945
412.30346
349.13728
297.44353
257.67471
229.84198
214.30739
211.00498
219.43751
238.73036
267.72027
305.03998
349.07191
398.25762
450.92803
505.1999
559.34481
1157.4745
1048.4926
944.91555
844.11743
745.81409
652.10226
564.12194
482.86212
409.8331
346.82497
295.62724
256.49856
229.19129
214.14827
211.3459
220.28334
240.05717
269.44671
307.04686
351.27336
400.42422