/*--------------------------------*- C++ -*----------------------------------*\
| =========                 |                                                 |
| \\      /  F ield         | foam-extend: Open Source CFD                    |
|  \\    /   O peration     | Version:     4.1-20200408                       |
|   \\  /    A nd           | Web:         http://www.foam-extend.org         |
|    \\/     M anipulation  |                                                 |
\*---------------------------------------------------------------------------*/
FoamFile
{
    version     2.0;
    format      ascii;
    class       volSymmTensorField;
    location    "0.0830000";
    object      bEbar;
}
// * * * * * * * * * * * * * * * * * * * * * * * * * * * * * * * * * * * * * //

dimensions      [0 0 0 0 0 0 0];

internalField   nonuniform List<symmTensor> 
1952
(
(0.994517 1.9129e-05 -7.7847e-11 1.00269 -1.73479e-11 1.00282)
(0.994777 5.21527e-06 -5.22489e-11 1.00244 4.18379e-11 1.0028)
(0.994971 3.50727e-05 5.86272e-11 1.0022 1.2321e-10 1.00285)
(0.995312 1.66046e-05 1.62047e-10 1.00186 -1.31746e-10 1.00285)
(0.995729 5.10521e-05 -4.29091e-11 1.00147 -3.43407e-10 1.00282)
(0.996322 3.06298e-05 -2.188e-10 1.00097 2.86021e-11 1.00272)
(0.997046 6.88585e-05 -5.92958e-11 1.00042 5.08328e-10 1.00254)
(0.997889 4.68901e-05 1.05748e-10 0.999752 -4.80615e-11 1.00236)
(0.998884 8.82527e-05 -1.83507e-11 0.999057 -5.48947e-10 1.00206)
(1.00031 6.68947e-05 -8.16889e-11 0.998021 3.08324e-10 1.00167)
(1.00211 0.000113062 2.60551e-11 0.996916 6.00693e-10 1.00098)
(1.00435 9.3529e-05 5.0679e-11 0.995219 -3.30611e-10 1.00045)
(1.00706 0.000147564 -4.72219e-12 0.993543 -5.89845e-10 0.999445)
(1.00891 0.000139052 -5.67642e-11 0.991595 3.62696e-10 0.999567)
(1.0096 0.000216689 -1.97982e-11 0.990834 2.13567e-10 0.999651)
(0.994485 -1.17091e-06 -1.71891e-11 1.00275 4.66997e-11 1.00279)
(0.99449 4.38454e-05 -1.55732e-10 1.0027 -1.83434e-11 1.00283)
(0.99475 1.86871e-05 -1.04485e-10 1.00246 4.27456e-11 1.00281)
(0.994945 8.17542e-05 1.17345e-10 1.00221 1.27854e-10 1.00286)
(0.995288 4.69785e-05 3.24285e-10 1.00187 -1.32131e-10 1.00286)
(0.995707 0.000119551 -8.58748e-11 1.00147 -3.51712e-10 1.00283)
(0.996304 8.03214e-05 -4.3792e-10 1.00098 2.49449e-11 1.00273)
(0.997028 0.000160281 -1.18778e-10 1.00042 5.17591e-10 1.00256)
(0.997876 0.000117279 2.11161e-10 0.999755 -4.34441e-11 1.00237)
(0.998875 0.000201922 -3.6704e-11 0.999056 -5.56754e-10 1.00207)
(1.00031 0.000157726 -1.62918e-10 0.998015 3.07008e-10 1.00168)
(1.00211 0.000247519 5.17792e-11 0.996904 6.07079e-10 1.00099)
(1.00436 0.000197 9.97991e-11 0.995197 -3.3011e-10 1.00046)
(1.00708 0.000285321 -9.37201e-12 0.993512 -5.96199e-10 0.999451)
(1.00895 0.000223624 -1.07825e-10 0.991548 3.61585e-10 0.999574)
(1.00966 0.000287047 -3.37804e-11 0.990772 2.15754e-10 0.999655)
(0.994457 -2.3993e-07 -3.43779e-11 1.00277 4.95581e-11 1.0028)
(0.994481 4.76784e-05 -1.55877e-10 1.00271 -1.86791e-11 1.00284)
(0.99474 2.42526e-05 -1.04593e-10 1.00246 4.33305e-11 1.00282)
(0.994935 9.04608e-05 1.17471e-10 1.00222 1.29759e-10 1.00287)
(0.995279 5.6945e-05 3.24558e-10 1.00187 -1.33084e-10 1.00286)
(0.9957 0.000132749 -8.59478e-11 1.00148 -3.55176e-10 1.00284)
(0.996299 9.46407e-05 -4.38334e-10 1.00098 2.45595e-11 1.00273)
(0.997025 0.000177602 -1.1886e-10 1.00042 5.21619e-10 1.00256)
(0.997875 0.000134409 2.11133e-10 0.999752 -4.24572e-11 1.00238)
(0.998878 0.000220934 -3.67293e-11 0.999049 -5.59701e-10 1.00208)
(1.00031 0.000175679 -1.62929e-10 0.998005 3.07101e-10 1.00168)
(1.00212 0.000265699 5.19486e-11 0.996893 6.09391e-10 1.001)
(1.00437 0.000211812 9.93463e-11 0.995184 -3.29885e-10 1.00047)
(1.00709 0.000297765 -9.36136e-12 0.993499 -5.98424e-10 0.999458)
(1.00895 0.000229619 -1.07669e-10 0.99154 3.60402e-10 0.999584)
(1.00964 0.000288769 -3.39589e-11 0.99078 2.16339e-10 0.999671)
(0.994446 1.14169e-06 -3.44419e-11 1.00277 5.08181e-11 1.0028)
(0.994478 5.07684e-05 -1.55998e-10 1.00271 -1.88768e-11 1.00284)
(0.994738 2.85991e-05 -1.04624e-10 1.00246 4.37741e-11 1.00282)
(0.994934 9.68783e-05 1.17596e-10 1.00222 1.30989e-10 1.00287)
(0.99528 6.43028e-05 3.24777e-10 1.00187 -1.33912e-10 1.00287)
(0.995702 0.000142161 -8.60406e-11 1.00147 -3.57408e-10 1.00284)
(0.996303 0.0001046 -4.38725e-10 1.00098 2.45178e-11 1.00273)
(0.99703 0.000189107 -1.19126e-10 1.00042 5.24371e-10 1.00256)
(0.997882 0.000145725 2.10759e-10 0.999744 -4.18555e-11 1.00238)
(0.998886 0.000232915 -3.67597e-11 0.99904 -5.61619e-10 1.00208)
(1.00033 0.000186246 -1.62622e-10 0.997994 3.07104e-10 1.00168)
(1.00213 0.000275597 5.20321e-11 0.99688 6.10688e-10 1.001)
(1.00438 0.000218084 9.91935e-11 0.995171 -3.29742e-10 1.00047)
(1.0071 0.000301493 -9.3535e-12 0.993487 -5.9957e-10 0.99946)
(1.00896 0.000227614 -1.07705e-10 0.991531 3.59927e-10 0.999588)
(1.00963 0.000287193 -3.44725e-11 0.990778 2.16683e-10 0.999678)
(0.994444 2.19527e-06 -3.44718e-11 1.00277 5.16958e-11 1.00281)
(0.994487 5.28721e-05 -1.56157e-10 1.0027 -1.9014e-11 1.00283)
(0.994746 3.15645e-05 -1.04732e-10 1.00246 4.40756e-11 1.00282)
(0.994943 0.000101279 1.17721e-10 1.00221 1.31772e-10 1.00286)
(0.995289 6.93834e-05 3.25e-10 1.00187 -1.34466e-10 1.00286)
(0.995712 0.000148371 -8.61255e-11 1.00147 -3.58769e-10 1.00284)
(0.996316 0.000111133 -4.39007e-10 1.00097 2.44958e-11 1.00273)
(0.997044 0.000196275 -1.19316e-10 1.00041 5.25701e-10 1.00256)
(0.997897 0.000152495 2.10767e-10 0.999733 -4.17687e-11 1.00238)
(0.998903 0.000239252 -3.67902e-11 0.999027 -5.62488e-10 1.00207)
(1.00034 0.000191414 -1.62798e-10 0.99798 3.07166e-10 1.00168)
(1.00215 0.000279363 5.22469e-11 0.996866 6.1126e-10 1.001)
(1.0044 0.000219898 9.91128e-11 0.995159 -3.29445e-10 1.00047)
(1.00711 0.000301546 -9.34244e-12 0.993477 -5.99982e-10 0.999459)
(1.00896 0.000225143 -1.07948e-10 0.991526 3.59459e-10 0.99959)
(1.00963 0.000285755 -3.48794e-11 0.990781 2.16793e-10 0.999682)
(0.994452 2.9362e-06 -3.45061e-11 1.00277 5.21826e-11 1.0028)
(0.994501 5.41635e-05 -1.5631e-10 1.0027 -1.90703e-11 1.00283)
(0.99476 3.33594e-05 -1.04809e-10 1.00245 4.41989e-11 1.00281)
(0.994958 0.000103871 1.17858e-10 1.0022 1.32081e-10 1.00286)
(0.995305 7.23045e-05 3.25245e-10 1.00186 -1.34694e-10 1.00285)
(0.99573 0.000151656 -8.62264e-11 1.00146 -3.59229e-10 1.00283)
(0.996335 0.00011447 -4.39434e-10 1.00096 2.4491e-11 1.00272)
(0.997062 0.000199389 -1.19595e-10 1.00039 5.26311e-10 1.00255)
(0.997916 0.000154944 2.10411e-10 0.999721 -4.15621e-11 1.00237)
(0.998923 0.000240768 -3.68277e-11 0.999014 -5.62711e-10 1.00207)
(1.00036 0.00019164 -1.62605e-10 0.997967 3.06951e-10 1.00167)
(1.00216 0.000278123 5.24482e-11 0.996853 6.11179e-10 1.00099)
(1.00441 0.000217325 9.9319e-11 0.995147 -3.29229e-10 1.00046)
(1.00712 0.000297726 -9.33234e-12 0.993468 -5.99904e-10 0.999456)
(1.00897 0.000220564 -1.0819e-10 0.991522 3.59181e-10 0.999589)
(1.00962 0.000283704 -3.53037e-11 0.990782 2.16755e-10 0.999683)
(0.994466 3.37405e-06 -3.455e-11 1.00276 5.24028e-11 1.00279)
(0.994523 5.48429e-05 -1.56465e-10 1.00268 -1.90875e-11 1.00282)
(0.99478 3.39403e-05 -1.04883e-10 1.00244 4.42195e-11 1.0028)
(0.994978 0.00010482 1.17989e-10 1.00219 1.32093e-10 1.00285)
(0.995326 7.30103e-05 3.2544e-10 1.00185 -1.34704e-10 1.00284)
(0.995752 0.000152428 -8.63184e-11 1.00144 -3.5912e-10 1.00282)
(0.996357 0.000114791 -4.39706e-10 1.00094 2.44674e-11 1.00271)
(0.997085 0.000199276 -1.19842e-10 1.00038 5.26037e-10 1.00254)
(0.997939 0.000154239 2.10445e-10 0.999707 -4.16302e-11 1.00236)
(0.998946 0.000239004 -3.686e-11 0.999 -5.62309e-10 1.00206)
(1.00039 0.000189071 -1.62906e-10 0.997952 3.06776e-10 1.00166)
(1.00218 0.00027426 5.27007e-11 0.996841 6.10714e-10 1.00098)
(1.00443 0.000212754 9.94064e-11 0.995136 -3.28909e-10 1.00045)
(1.00714 0.000292669 -9.32177e-12 0.993459 -5.99447e-10 0.999452)
(1.00897 0.000215906 -1.08349e-10 0.991518 3.58955e-10 0.999586)
(1.00962 0.000281756 -3.56697e-11 0.990783 2.16595e-10 0.999682)
(0.994487 3.47411e-06 -3.45652e-11 1.00275 5.23392e-11 1.00278)
(0.994547 5.47487e-05 -1.56638e-10 1.00267 -1.90571e-11 1.0028)
(0.994804 3.35243e-05 -1.04977e-10 1.00243 4.41294e-11 1.00279)
(0.995003 0.000104437 1.18124e-10 1.00218 1.31818e-10 1.00284)
(0.995351 7.22452e-05 3.25697e-10 1.00183 -1.34507e-10 1.00283)
(0.995777 0.000151311 -8.64162e-11 1.00143 -3.58477e-10 1.00281)
(0.996384 0.000113214 -4.40131e-10 1.00093 2.44478e-11 1.0027)
(0.99711 0.000196889 -1.20122e-10 1.00037 5.25402e-10 1.00253)
(0.997963 0.000150899 2.10172e-10 0.999693 -4.15562e-11 1.00235)
(0.99897 0.000234583 -3.68966e-11 0.998986 -5.61573e-10 1.00205)
(1.00041 0.000183738 -1.62831e-10 0.997939 3.06392e-10 1.00165)
(1.00221 0.00026809 5.29622e-11 0.996829 6.09877e-10 1.00097)
(1.00445 0.000206737 9.96305e-11 0.995125 -3.28711e-10 1.00045)
(1.00715 0.000286361 -9.31012e-12 0.993452 -5.98759e-10 0.999446)
(1.00898 0.000210964 -1.08511e-10 0.991514 3.58815e-10 0.999582)
(1.00963 0.000279859 -3.59865e-11 0.990783 2.16357e-10 0.999679)
(0.994511 3.33744e-06 -3.45923e-11 1.00274 5.21188e-11 1.00277)
(0.994575 5.43848e-05 -1.56782e-10 1.00266 -1.90035e-11 1.00279)
(0.994831 3.23451e-05 -1.05045e-10 1.00241 4.39775e-11 1.00278)
(0.995029 0.000102949 1.18245e-10 1.00217 1.31373e-10 1.00282)
(0.995377 6.98724e-05 3.25857e-10 1.00182 -1.34171e-10 1.00282)
(0.995804 0.000148387 -8.65089e-11 1.00142 -3.57516e-10 1.00279)
(0.996411 0.000109409 -4.40377e-10 1.00091 2.43899e-11 1.00269)
(0.997136 0.000192353 -1.20402e-10 1.00035 5.24239e-10 1.00252)
(0.997989 0.000146018 2.10209e-10 0.999678 -4.17e-11 1.00234)
(0.998995 0.000228683 -3.69241e-11 0.998973 -5.60484e-10 1.00204)
(1.00044 0.000177876 -1.63213e-10 0.997925 3.06148e-10 1.00164)
(1.00223 0.000261145 5.32127e-11 0.996817 6.08877e-10 1.00096)
(1.00447 0.000199812 9.95947e-11 0.995115 -3.28399e-10 1.00044)
(1.00716 0.000280005 -9.3012e-12 0.993445 -5.97835e-10 0.999439)
(1.00899 0.000206465 -1.08476e-10 0.99151 3.5883e-10 0.999576)
(1.00963 0.000277965 -3.6278e-11 0.990782 2.16055e-10 0.999674)
(0.994539 2.96468e-06 -3.46378e-11 1.00273 5.1724e-11 1.00276)
(0.994603 5.32854e-05 -1.5695e-10 1.00264 -1.89197e-11 1.00278)
(0.994859 3.03826e-05 -1.05137e-10 1.0024 4.37622e-11 1.00276)
(0.995057 0.000100602 1.18375e-10 1.00215 1.30773e-10 1.00281)
(0.995405 6.67192e-05 3.26109e-10 1.0018 -1.33733e-10 1.00281)
(0.995832 0.000144616 -8.65976e-11 1.0014 -3.56283e-10 1.00278)
(0.99644 0.000105125 -4.40796e-10 1.0009 2.43736e-11 1.00267)
(0.997163 0.00018696 -1.20645e-10 1.00034 5.23027e-10 1.00251)
(0.998015 0.000139786 2.10026e-10 0.999664 -4.16384e-11 1.00233)
(0.999021 0.000221527 -3.69506e-11 0.998959 -5.59308e-10 1.00202)
(1.00046 0.000170219 -1.63086e-10 0.997912 3.05604e-10 1.00163)
(1.00225 0.000253171 5.35699e-11 0.996806 6.07662e-10 1.00095)
(1.00449 0.000192889 9.97097e-11 0.995105 -3.2803e-10 1.00043)
(1.00718 0.000273827 -9.2903e-12 0.993437 -5.96779e-10 0.999432)
(1.009 0.000202015 -1.08515e-10 0.991505 3.58859e-10 0.99957)
(1.00964 0.00027628 -3.65174e-11 0.990779 2.15712e-10 0.999668)
(0.994567 2.39298e-06 -3.46726e-11 1.00271 5.12549e-11 1.00274)
(0.994633 5.23981e-05 -1.57075e-10 1.00263 -1.88369e-11 1.00276)
(0.994887 2.82739e-05 -1.05176e-10 1.00238 4.35412e-11 1.00275)
(0.995086 9.77671e-05 1.18482e-10 1.00214 1.30128e-10 1.0028)
(0.995434 6.27851e-05 3.26214e-10 1.00179 -1.33264e-10 1.00279)
(0.995861 0.000139835 -8.66836e-11 1.00139 -3.54964e-10 1.00277)
(0.996468 9.92405e-05 -4.40923e-10 1.00088 2.43012e-11 1.00266)
(0.99719 0.000180218 -1.20988e-10 1.00032 5.21538e-10 1.00249)
(0.998041 0.000132884 2.10009e-10 0.999651 -4.1731e-11 1.00231)
(0.999046 0.000213808 -3.69726e-11 0.998946 -5.5797e-10 1.00201)
(1.00049 0.000162841 -1.63439e-10 0.997899 3.05197e-10 1.00162)
(1.00227 0.000245675 5.37754e-11 0.996794 6.06379e-10 1.00094)
(1.00451 0.000185916 9.96987e-11 0.995095 -3.27773e-10 1.00042)
(1.00719 0.000267607 -9.27934e-12 0.993429 -5.95648e-10 0.999423)
(1.00901 0.000198034 -1.08415e-10 0.991499 3.58951e-10 0.999562)
(1.00965 0.000274627 -3.67379e-11 0.990775 2.15344e-10 0.999662)
(0.994597 1.76736e-06 -3.4716e-11 1.0027 5.07085e-11 1.00273)
(0.994662 5.0668e-05 -1.57255e-10 1.00261 -1.87357e-11 1.00275)
(0.994916 2.53301e-05 -1.05301e-10 1.00237 4.32738e-11 1.00273)
(0.995114 9.42873e-05 1.18595e-10 1.00212 1.29421e-10 1.00278)
(0.995462 5.81786e-05 3.26425e-10 1.00177 -1.32694e-10 1.00278)
(0.995889 0.000134412 -8.67593e-11 1.00137 -3.53537e-10 1.00275)
(0.996497 9.327e-05 -4.41286e-10 1.00087 2.41999e-11 1.00264)
(0.997217 0.000173447 -1.21181e-10 1.00031 5.19982e-10 1.00248)
(0.998067 0.000125648 2.0992e-10 0.999637 -4.17579e-11 1.0023)
(0.999071 0.000205892 -3.69946e-11 0.998933 -5.56552e-10 1.002)
(1.00051 0.000155162 -1.63408e-10 0.997886 3.04697e-10 1.0016)
(1.00229 0.000237534 5.41661e-11 0.996783 6.05041e-10 1.00093)
(1.00453 0.000179002 9.9556e-11 0.995085 -3.27343e-10 1.00041)
(1.00721 0.000261967 -9.26767e-12 0.993421 -5.94456e-10 0.999414)
(1.00903 0.000194362 -1.08291e-10 0.991493 3.59105e-10 0.999555)
(1.00966 0.00027316 -3.69202e-11 0.990771 2.14955e-10 0.999655)
(0.994626 9.63972e-07 -3.47328e-11 1.00268 5.01408e-11 1.00271)
(0.994691 4.93688e-05 -1.57342e-10 1.0026 -1.86285e-11 1.00273)
(0.994943 2.26477e-05 -1.05298e-10 1.00236 4.30103e-11 1.00272)
(0.995142 9.06946e-05 1.18692e-10 1.00211 1.2868e-10 1.00277)
(0.995489 5.34265e-05 3.26505e-10 1.00176 -1.32162e-10 1.00277)
(0.995917 0.000128852 -8.68392e-11 1.00136 -3.5206e-10 1.00274)
(0.996525 8.68638e-05 -4.41424e-10 1.00085 2.41546e-11 1.00263)
(0.997243 0.000165924 -1.21524e-10 1.0003 5.1856e-10 1.00247)
(0.998092 0.00011807 2.09772e-10 0.999624 -4.16625e-11 1.00229)
(0.999095 0.00019767 -3.70113e-11 0.998921 -5.5523e-10 1.00199)
(1.00054 0.000147289 -1.63494e-10 0.997874 3.04106e-10 1.00159)
(1.00231 0.000230178 5.43921e-11 0.996772 6.03668e-10 1.00092)
(1.00455 0.000172738 9.9672e-11 0.995075 -3.27059e-10 1.0004)
(1.00723 0.000256678 -9.25526e-12 0.993413 -5.93254e-10 0.999405)
(1.00905 0.000190936 -1.08097e-10 0.991486 3.59264e-10 0.999547)
(1.00968 0.000271743 -3.70864e-11 0.990765 2.1456e-10 0.999647)
(0.994654 1.32593e-07 -3.47706e-11 1.00267 4.9558e-11 1.0027)
(0.994719 4.75868e-05 -1.5751e-10 1.00258 -1.85421e-11 1.00272)
(0.99497 1.94154e-05 -1.05409e-10 1.00234 4.27659e-11 1.00271)
(0.995168 8.67739e-05 1.1879e-10 1.00209 1.28012e-10 1.00276)
(0.995516 4.82917e-05 3.26633e-10 1.00175 -1.31606e-10 1.00275)
(0.995943 0.000122838 -8.69041e-11 1.00134 -3.50703e-10 1.00273)
(0.996551 8.0093e-05 -4.41573e-10 1.00084 2.39938e-11 1.00262)
(0.997269 0.000158634 -1.21751e-10 1.00028 5.16939e-10 1.00246)
(0.998117 0.00011059 2.09755e-10 0.999611 -4.17173e-11 1.00228)
(0.99912 0.00018966 -3.70285e-11 0.998908 -5.53786e-10 1.00197)
(1.00056 0.000139954 -1.63704e-10 0.997862 3.03596e-10 1.00158)
(1.00234 0.000222807 5.4701e-11 0.996761 6.02308e-10 1.00091)
(1.00457 0.000166585 9.94242e-11 0.995064 -3.26672e-10 1.00039)
(1.00725 0.000251429 -9.24398e-12 0.993403 -5.92067e-10 0.999396)
(1.00906 0.000187746 -1.07844e-10 0.991477 3.59433e-10 0.999538)
(1.00969 0.000270424 -3.72318e-11 0.990757 2.14167e-10 0.999639)
(0.994682 -7.29932e-07 -3.48047e-11 1.00265 4.89801e-11 1.00269)
(0.994744 4.58247e-05 -1.57616e-10 1.00257 -1.84313e-11 1.0027)
(0.994995 1.61361e-05 -1.05429e-10 1.00233 4.24909e-11 1.00269)
(0.995193 8.2656e-05 1.18874e-10 1.00208 1.27292e-10 1.00274)
(0.995541 4.28735e-05 3.26683e-10 1.00173 -1.31029e-10 1.00274)
(0.995968 0.000116566 -8.6981e-11 1.00133 -3.49266e-10 1.00271)
(0.996577 7.33092e-05 -4.41789e-10 1.00083 2.38883e-11 1.0026)
(0.997293 0.000150992 -1.22033e-10 1.00027 5.15576e-10 1.00244)
(0.99814 0.000103074 2.09497e-10 0.999599 -4.15699e-11 1.00227)
(0.999143 0.00018166 -3.70414e-11 0.998896 -5.52482e-10 1.00196)
(1.00059 0.00013271 -1.6367e-10 0.997849 3.03017e-10 1.00157)
(1.00236 0.000215651 5.49658e-11 0.99675 6.0098e-10 1.0009)
(1.00459 0.000160772 9.94332e-11 0.995053 -3.26315e-10 1.00038)
(1.00727 0.000246792 -9.22997e-12 0.993393 -5.90935e-10 0.999387)
(1.00908 0.000184836 -1.07572e-10 0.991468 3.59595e-10 0.99953)
(1.00971 0.000269228 -3.73563e-11 0.990749 2.13776e-10 0.999631)
(0.994707 -1.69862e-06 -3.48219e-11 1.00264 4.84351e-11 1.00267)
(0.994769 4.41187e-05 -1.57725e-10 1.00256 -1.83482e-11 1.00269)
(0.995018 1.28802e-05 -1.05462e-10 1.00232 4.227e-11 1.00268)
(0.995216 7.85659e-05 1.18957e-10 1.00207 1.26669e-10 1.00273)
(0.995564 3.75416e-05 3.26732e-10 1.00172 -1.30538e-10 1.00273)
(0.995992 0.000110507 -8.70437e-11 1.00132 -3.48e-10 1.0027)
(0.996601 6.65396e-05 -4.41845e-10 1.00082 2.37718e-11 1.00259)
(0.997316 0.000143425 -1.22301e-10 1.00026 5.14242e-10 1.00243)
(0.998163 9.55214e-05 2.09426e-10 0.999587 -4.14801e-11 1.00225)
(0.999166 0.000173724 -3.70531e-11 0.998884 -5.51236e-10 1.00195)
(1.00061 0.000125459 -1.63823e-10 0.997837 3.02473e-10 1.00156)
(1.00238 0.000208842 5.52512e-11 0.996739 5.9974e-10 1.00089)
(1.00461 0.000155319 9.9246e-11 0.995041 -3.25981e-10 1.00037)
(1.00729 0.000242073 -9.21592e-12 0.993383 -5.89853e-10 0.999378)
(1.0091 0.00018196 -1.07338e-10 0.991458 3.5972e-10 0.999522)
(1.00973 0.000268104 -3.74663e-11 0.99074 2.13397e-10 0.999623)
(0.994732 -2.64814e-06 -3.48449e-11 1.00263 4.79021e-11 1.00266)
(0.994791 4.21873e-05 -1.57846e-10 1.00255 -1.82697e-11 1.00268)
(0.99504 9.23925e-06 -1.05506e-10 1.00231 4.20542e-11 1.00267)
(0.995238 7.4161e-05 1.19029e-10 1.00206 1.26094e-10 1.00272)
(0.995586 3.17995e-05 3.26711e-10 1.00171 -1.30042e-10 1.00272)
(0.996014 0.000103868 -8.71133e-11 1.00131 -3.46827e-10 1.00269)
(0.996624 5.93995e-05 -4.41931e-10 1.0008 2.36207e-11 1.00258)
(0.997338 0.000135604 -1.22599e-10 1.00025 5.13078e-10 1.00242)
(0.998185 8.80798e-05 2.09156e-10 0.999575 -4.13614e-11 1.00224)
(0.999188 0.000165806 -3.70656e-11 0.998872 -5.50098e-10 1.00194)
(1.00063 0.000118663 -1.63858e-10 0.997824 3.01999e-10 1.00155)
(1.0024 0.000201882 5.54982e-11 0.996726 5.98575e-10 1.00088)
(1.00464 0.000149616 9.91372e-11 0.995028 -3.25647e-10 1.00036)
(1.00731 0.000237527 -9.20143e-12 0.993372 -5.8885e-10 0.99937)
(1.00912 0.000179334 -1.07043e-10 0.991447 3.59855e-10 0.999514)
(1.00975 0.000267005 -3.7573e-11 0.99073 2.13028e-10 0.999614)
(0.994754 -3.67004e-06 -3.48824e-11 1.00262 4.74289e-11 1.00265)
(0.994812 4.03046e-05 -1.5794e-10 1.00254 -1.81982e-11 1.00267)
(0.995059 5.69088e-06 -1.05523e-10 1.0023 4.18697e-11 1.00266)
(0.995258 6.98486e-05 1.191e-10 1.00205 1.25597e-10 1.00271)
(0.995605 2.61851e-05 3.26695e-10 1.0017 -1.29625e-10 1.00271)
(0.996035 9.75071e-05 -8.71781e-11 1.0013 -3.45807e-10 1.00268)
(0.996645 5.25443e-05 -4.41981e-10 1.00079 2.34966e-11 1.00257)
(0.997359 0.00012772 -1.22861e-10 1.00023 5.12125e-10 1.00241)
(0.998206 8.03446e-05 2.0902e-10 0.999563 -4.11311e-11 1.00223)
(0.99921 0.000157649 -3.70735e-11 0.99886 -5.49107e-10 1.00193)
(1.00066 0.000111172 -1.63853e-10 0.997811 3.01419e-10 1.00154)
(1.00242 0.000194839 5.58305e-11 0.996714 5.97506e-10 1.00087)
(1.00466 0.000144134 9.90047e-11 0.995016 -3.25292e-10 1.00035)
(1.00733 0.000233112 -9.18633e-12 0.993359 -5.87886e-10 0.999361)
(1.00914 0.000176544 -1.06864e-10 0.991435 3.59974e-10 0.999506)
(1.00977 0.000266001 -3.76622e-11 0.990719 2.1267e-10 0.999606)
(0.994774 -4.71623e-06 -3.4915e-11 1.00261 4.70001e-11 1.00264)
(0.994829 3.84186e-05 -1.58051e-10 1.00253 -1.81523e-11 1.00266)
(0.995076 1.94208e-06 -1.05536e-10 1.00229 4.17264e-11 1.00265)
(0.995275 6.52647e-05 1.19163e-10 1.00204 1.25199e-10 1.0027)
(0.995623 2.02203e-05 3.26592e-10 1.00169 -1.29261e-10 1.0027)
(0.996054 9.05865e-05 -8.725e-11 1.00128 -3.44962e-10 1.00267)
(0.996665 4.49419e-05 -4.41894e-10 1.00078 2.3321e-11 1.00256)
(0.997378 0.000119254 -1.23239e-10 1.00022 5.11314e-10 1.00241)
(0.998225 7.23985e-05 2.08748e-10 0.999553 -4.09294e-11 1.00223)
(0.99923 0.000149098 -3.70862e-11 0.998849 -5.48235e-10 1.00192)
(1.00068 0.000103805 -1.63981e-10 0.997798 3.00924e-10 1.00153)
(1.00245 0.000187711 5.60076e-11 0.996702 5.96492e-10 1.00086)
(1.00468 0.000138281 9.90133e-11 0.995002 -3.25048e-10 1.00034)
(1.00735 0.000228289 -9.17195e-12 0.993347 -5.87003e-10 0.999353)
(1.00916 0.00017378 -1.06572e-10 0.991422 3.60103e-10 0.999498)
(1.00979 0.00026485 -3.77737e-11 0.990707 2.1233e-10 0.999597)
(0.994791 -5.7783e-06 -3.49403e-11 1.0026 4.66433e-11 1.00263)
(0.994845 3.62188e-05 -1.58179e-10 1.00252 -1.81094e-11 1.00266)
(0.995091 -2.1844e-06 -1.05592e-10 1.00228 4.15974e-11 1.00265)
(0.99529 6.04638e-05 1.19223e-10 1.00203 1.24889e-10 1.0027)
(0.995638 1.39074e-05 3.26505e-10 1.00168 -1.28903e-10 1.00269)
(0.99607 8.33396e-05 -8.7321e-11 1.00128 -3.44282e-10 1.00267)
(0.996682 3.72553e-05 -4.41908e-10 1.00077 2.30815e-11 1.00255)
(0.997396 0.000110672 -1.23493e-10 1.00021 5.106e-10 1.0024)
(0.998244 6.40692e-05 2.08631e-10 0.999542 -4.06477e-11 1.00222)
(0.999251 0.000140188 -3.7097e-11 0.998837 -5.47411e-10 1.00192)
(1.0007 9.58557e-05 -1.64099e-10 0.997785 3.00344e-10 1.00152)
(1.00247 0.000179898 5.63483e-11 0.996689 5.9557e-10 1.00085)
(1.0047 0.000132157 9.88517e-11 0.994988 -3.24627e-10 1.00033)
(1.00737 0.000223527 -9.15696e-12 0.993333 -5.86165e-10 0.999345)
(1.00918 0.000170781 -1.0638e-10 0.991408 3.60219e-10 0.99949)
(1.00981 0.00026379 -3.78701e-11 0.990693 2.12e-10 0.999589)
(0.994806 -6.94267e-06 -3.49666e-11 1.00259 4.634e-11 1.00262)
(0.994857 3.42121e-05 -1.58271e-10 1.00251 -1.80768e-11 1.00265)
(0.995103 -6.26626e-06 -1.05554e-10 1.00227 4.14942e-11 1.00264)
(0.995303 5.54244e-05 1.19288e-10 1.00202 1.24624e-10 1.00269)
(0.995652 7.28055e-06 3.26335e-10 1.00168 -1.28612e-10 1.00269)
(0.996085 7.56767e-05 -8.74076e-11 1.00127 -3.43681e-10 1.00266)
(0.996699 2.8925e-05 -4.41836e-10 1.00076 2.28817e-11 1.00255)
(0.997412 0.000101136 -1.23911e-10 1.0002 5.10199e-10 1.00239)
(0.998261 5.5072e-05 2.08284e-10 0.999531 -4.02455e-11 1.00221)
(0.999269 0.000130493 -3.71136e-11 0.998826 -5.46803e-10 1.00191)
(1.00072 8.73475e-05 -1.64245e-10 0.997772 2.99784e-10 1.00151)
(1.00249 0.000171852 5.64953e-11 0.996676 5.94716e-10 1.00084)
(1.00473 0.000125668 9.90714e-11 0.994973 -3.24395e-10 1.00032)
(1.00739 0.000218202 -9.14112e-12 0.993319 -5.85438e-10 0.999337)
(1.0092 0.000167506 -1.06179e-10 0.991393 3.60296e-10 0.999482)
(1.00983 0.000262553 -3.79911e-11 0.990679 2.11691e-10 0.99958)
(0.994818 -8.1495e-06 -3.50124e-11 1.00258 4.61103e-11 1.00262)
(0.994868 3.18453e-05 -1.58404e-10 1.00251 -1.80685e-11 1.00264)
(0.995112 -1.09523e-05 -1.05585e-10 1.00227 4.1435e-11 1.00264)
(0.995313 4.9995e-05 1.19351e-10 1.00202 1.24494e-10 1.00269)
(0.995663 8.7862e-08 3.26151e-10 1.00167 -1.28344e-10 1.00268)
(0.996097 6.74104e-05 -8.74934e-11 1.00126 -3.43321e-10 1.00265)
(0.996713 2.00897e-05 -4.41754e-10 1.00075 2.25766e-11 1.00254)
(0.997427 9.12462e-05 -1.24219e-10 1.00019 5.09788e-10 1.00238)
(0.998278 4.55807e-05 2.08225e-10 0.999521 -3.98946e-11 1.0022)
(0.999288 0.000120273 -3.71305e-11 0.998814 -5.46192e-10 1.0019)
(1.00074 7.83761e-05 -1.64614e-10 0.997759 2.9926e-10 1.0015)
(1.00251 0.000162955 5.68093e-11 0.996662 5.93986e-10 1.00084)
(1.00475 0.000118422 9.89141e-11 0.994958 -3.23993e-10 1.00032)
(1.00742 0.000212464 -9.12713e-12 0.993303 -5.84765e-10 0.999329)
(1.00923 0.000163923 -1.06063e-10 0.991377 3.6036e-10 0.999474)
(1.00986 0.000261347 -3.81085e-11 0.990663 2.11393e-10 0.999572)
(0.994829 -9.47895e-06 -3.50469e-11 1.00258 4.59157e-11 1.00261)
(0.994875 2.95283e-05 -1.58503e-10 1.0025 -1.80564e-11 1.00264)
(0.99512 -1.57064e-05 -1.05537e-10 1.00226 4.13783e-11 1.00263)
(0.995321 4.42731e-05 1.19415e-10 1.00201 1.2438e-10 1.00268)
(0.995672 -7.45251e-06 3.25904e-10 1.00166 -1.28114e-10 1.00268)
(0.996108 5.86142e-05 -8.76033e-11 1.00125 -3.42996e-10 1.00265)
(0.996726 1.07368e-05 -4.4173e-10 1.00075 2.23287e-11 1.00254)
(0.99744 8.03227e-05 -1.24668e-10 1.00019 5.09786e-10 1.00238)
(0.998293 3.52364e-05 2.07847e-10 0.999511 -3.93299e-11 1.0022)
(0.999305 0.000108998 -3.71518e-11 0.998803 -5.45841e-10 1.00189)
(1.00076 6.83515e-05 -1.64787e-10 0.997745 2.98691e-10 1.00149)
(1.00253 0.000153203 5.69802e-11 0.996648 5.93321e-10 1.00083)
(1.00478 0.000110455 9.92807e-11 0.994942 -3.23761e-10 1.00031)
(1.00744 0.000206156 -9.11163e-12 0.993287 -5.8419e-10 0.999321)
(1.00925 0.000159853 -1.06013e-10 0.99136 3.60429e-10 0.999466)
(1.00988 0.000259962 -3.8253e-11 0.990646 2.11109e-10 0.999563)
(0.994835 -1.08875e-05 -3.50773e-11 1.00258 4.58051e-11 1.00261)
(0.99488 2.71113e-05 -1.58633e-10 1.0025 -1.80749e-11 1.00264)
(0.995123 -2.08489e-05 -1.05524e-10 1.00226 4.13802e-11 1.00263)
(0.995326 3.82824e-05 1.19476e-10 1.00201 1.24413e-10 1.00268)
(0.995678 -1.54447e-05 3.25593e-10 1.00166 -1.2794e-10 1.00268)
(0.996116 4.93165e-05 -8.7712e-11 1.00125 -3.42937e-10 1.00265)
(0.996736 7.03179e-07 -4.41548e-10 1.00074 2.19776e-11 1.00253)
(0.997452 6.87192e-05 -1.2507e-10 1.00018 5.09767e-10 1.00238)
(0.998307 2.41466e-05 2.07842e-10 0.999502 -3.88314e-11 1.0022)
(0.999321 9.68403e-05 -3.7174e-11 0.998792 -5.45504e-10 1.00189)
(1.00079 5.74621e-05 -1.65357e-10 0.997732 2.98142e-10 1.00149)
(1.00255 0.000142617 5.72617e-11 0.996634 5.92767e-10 1.00082)
(1.0048 0.000101544 9.93134e-11 0.994925 -3.23408e-10 1.0003)
(1.00747 0.000199124 -9.09871e-12 0.99327 -5.83648e-10 0.999314)
(1.00928 0.000155271 -1.06028e-10 0.991342 3.60498e-10 0.999459)
(1.00991 0.000258507 -3.84085e-11 0.990628 2.10831e-10 0.999554)
(0.99484 -1.23936e-05 -3.51228e-11 1.00257 4.57178e-11 1.00261)
(0.994882 2.45508e-05 -1.58772e-10 1.0025 -1.80885e-11 1.00264)
(0.995126 -2.62714e-05 -1.05479e-10 1.00226 4.13712e-11 1.00263)
(0.99533 3.19417e-05 1.19543e-10 1.00201 1.24457e-10 1.00268)
(0.995682 -2.38627e-05 3.2524e-10 1.00166 -1.27748e-10 1.00267)
(0.996123 3.92913e-05 -8.78451e-11 1.00124 -3.42903e-10 1.00265)
(0.996745 -9.92391e-06 -4.41496e-10 1.00074 2.16144e-11 1.00253)
(0.997461 5.61782e-05 -1.25572e-10 1.00017 5.10054e-10 1.00237)
(0.998319 1.22008e-05 2.07524e-10 0.999493 -3.81385e-11 1.00219)
(0.999336 8.35223e-05 -3.72053e-11 0.998782 -5.4534e-10 1.00188)
(1.0008 4.55057e-05 -1.65762e-10 0.997718 2.97544e-10 1.00148)
(1.00257 0.000130748 5.74206e-11 0.996619 5.92236e-10 1.00082)
(1.00482 9.16129e-05 9.98362e-11 0.994907 -3.23198e-10 1.00029)
(1.00749 0.000191256 -9.08421e-12 0.993252 -5.83182e-10 0.999306)
(1.00931 0.000150048 -1.06132e-10 0.991322 3.60649e-10 0.999451)
(1.00994 0.00025671 -3.86117e-11 0.990608 2.10553e-10 0.999545)
(0.994842 -1.39901e-05 -3.51689e-11 1.00257 4.57075e-11 1.00261)
(0.994883 2.21253e-05 -1.589e-10 1.0025 -1.8115e-11 1.00264)
(0.995125 -3.18172e-05 -1.05417e-10 1.00226 4.13927e-11 1.00263)
(0.99533 2.55319e-05 1.19605e-10 1.00201 1.24582e-10 1.00268)
(0.995684 -3.25572e-05 3.2479e-10 1.00166 -1.27574e-10 1.00267)
(0.996127 2.89604e-05 -8.79888e-11 1.00124 -3.43017e-10 1.00265)
(0.996751 -2.10435e-05 -4.41308e-10 1.00073 2.11674e-11 1.00253)
(0.99747 4.28736e-05 -1.26049e-10 1.00016 5.10327e-10 1.00237)
(0.99833 -5.28094e-07 2.07563e-10 0.999485 -3.74258e-11 1.00219)
(0.999351 6.92155e-05 -3.72378e-11 0.998771 -5.45172e-10 1.00188)
(1.00082 3.25236e-05 -1.66568e-10 0.997704 2.96906e-10 1.00147)
(1.00259 0.000117957 5.76699e-11 0.996604 5.9177e-10 1.00081)
(1.00485 8.06769e-05 1.0014e-10 0.994889 -3.22851e-10 1.00029)
(1.00752 0.000182628 -9.07249e-12 0.993233 -5.82716e-10 0.999298)
(1.00934 0.000144148 -1.06266e-10 0.991301 3.60736e-10 0.999442)
(1.00997 0.000254662 -3.88598e-11 0.990587 2.10279e-10 0.999535)
(0.994842 -1.56773e-05 -3.52106e-11 1.00257 4.56937e-11 1.00261)
(0.99488 1.9682e-05 -1.59045e-10 1.0025 -1.8138e-11 1.00264)
(0.995123 -3.75112e-05 -1.05328e-10 1.00226 4.13943e-11 1.00263)
(0.99533 1.89973e-05 1.19676e-10 1.00201 1.24683e-10 1.00268)
(0.995684 -4.13852e-05 3.24283e-10 1.00166 -1.27339e-10 1.00267)
(0.99613 1.8218e-05 -8.81589e-11 1.00124 -3.43088e-10 1.00265)
(0.996757 -3.24601e-05 -4.41207e-10 1.00073 2.06777e-11 1.00253)
(0.997477 2.8939e-05 -1.2663e-10 1.00016 5.10786e-10 1.00237)
(0.99834 -1.38724e-05 2.07338e-10 0.999478 -3.65293e-11 1.00219)
(0.999364 5.38846e-05 -3.72798e-11 0.998762 -5.45092e-10 1.00188)
(1.00084 1.85475e-05 -1.67309e-10 0.997691 2.96188e-10 1.00147)
(1.00262 0.000103877 5.77885e-11 0.996589 5.91258e-10 1.0008)
(1.00488 6.85341e-05 1.00904e-10 0.99487 -3.22611e-10 1.00028)
(1.00755 0.000172909 -9.06133e-12 0.993213 -5.82282e-10 0.99929)
(1.00937 0.000137441 -1.06548e-10 0.991278 3.60883e-10 0.999433)
(1.01001 0.000252408 -3.91457e-11 0.990563 2.0999e-10 0.999525)
(0.994839 -1.74138e-05 -3.52675e-11 1.00257 4.57087e-11 1.00261)
(0.994878 1.75855e-05 -1.59186e-10 1.0025 -1.81564e-11 1.00264)
(0.995119 -4.30486e-05 -1.0522e-10 1.00226 4.13877e-11 1.00263)
(0.995328 1.28088e-05 1.19739e-10 1.00201 1.2478e-10 1.00268)
(0.995683 -5.00068e-05 3.23645e-10 1.00166 -1.27043e-10 1.00267)
(0.996131 7.61881e-06 -8.83412e-11 1.00123 -3.43157e-10 1.00265)
(0.99676 -4.38003e-05 -4.41004e-10 1.00072 2.00862e-11 1.00252)
(0.997483 1.47294e-05 -1.27178e-10 1.00015 5.11119e-10 1.00237)
(0.99835 -2.7512e-05 2.07435e-10 0.999471 -3.55782e-11 1.00218)
(0.999377 3.78941e-05 -3.73237e-11 0.998752 -5.44906e-10 1.00187)
(1.00086 3.82504e-06 -1.68445e-10 0.997678 2.9539e-10 1.00146)
(1.00264 8.88615e-05 5.79942e-11 0.996574 5.90729e-10 1.0008)
(1.0049 5.53522e-05 1.01499e-10 0.994851 -3.2223e-10 1.00027)
(1.00758 0.000162431 -9.05233e-12 0.993191 -5.81796e-10 0.999282)
(1.00941 0.000130001 -1.06862e-10 0.991253 3.61006e-10 0.999424)
(1.01004 0.000249879 -3.94893e-11 0.990538 2.09686e-10 0.999513)
(0.994836 -1.91789e-05 -3.53443e-11 1.00258 4.56659e-11 1.00261)
(0.994875 1.58792e-05 -1.59318e-10 1.0025 -1.81545e-11 1.00264)
(0.995116 -4.8158e-05 -1.05057e-10 1.00227 4.13206e-11 1.00264)
(0.995326 7.20879e-06 1.19801e-10 1.00201 1.24748e-10 1.00268)
(0.995681 -5.79121e-05 3.22913e-10 1.00166 -1.26607e-10 1.00268)
(0.996133 -2.45354e-06 -8.8551e-11 1.00123 -3.42992e-10 1.00265)
(0.996764 -5.44977e-05 -4.40847e-10 1.00072 1.94404e-11 1.00252)
(0.997487 6.8893e-07 -1.27841e-10 1.00015 5.11485e-10 1.00237)