/*--------------------------------*- C++ -*----------------------------------*\
| =========                 |                                                 |
| \\      /  F ield         | foam-extend: Open Source CFD                    |
|  \\    /   O peration     | Version:     4.1-20200408                       |
|   \\  /    A nd           | Web:         http://www.foam-extend.org         |
|    \\/     M anipulation  |                                                 |
\*---------------------------------------------------------------------------*/
FoamFile
{
    version     2.0;
    format      ascii;
    class       volScalarField;
    location    "0.0830000";
    object      ccx;
}
// * * * * * * * * * * * * * * * * * * * * * * * * * * * * * * * * * * * * * //

dimensions      [0 1 0 0 0 0 0];

internalField   nonuniform List<scalar> 
1952
(
0.00286705
0.00286687
0.0028666
0.00286626
0.00286585
0.00286537
0.00286485
0.0028643
0.00286374
0.00286317
0.00286264
0.00286216
0.00286178
0.00286152
0.00286137
0.00286715
0.00270902
0.00270866
0.00270813
0.00270744
0.00270661
0.00270567
0.00270463
0.00270352
0.00270239
0.00270126
0.00270019
0.00269924
0.00269848
0.00269795
0.00269765
0.00270921
0.00265887
0.00265851
0.00265798
0.00265729
0.00265646
0.00265551
0.00265447
0.00265337
0.00265223
0.0026511
0.00265003
0.00264908
0.00264832
0.00264779
0.00264748
0.00265906
0.00260871
0.00260836
0.00260782
0.00260713
0.00260631
0.00260536
0.00260432
0.00260321
0.00260207
0.00260094
0.00259987
0.00259892
0.00259816
0.00259763
0.00259732
0.00260891
0.00255856
0.0025582
0.00255767
0.00255698
0.00255615
0.0025552
0.00255416
0.00255305
0.00255192
0.00255078
0.00254971
0.00254876
0.00254799
0.00254746
0.00254715
0.00255875
0.00250841
0.00250805
0.00250751
0.00250682
0.00250599
0.00250504
0.002504
0.00250289
0.00250176
0.00250062
0.00249955
0.00249859
0.00249783
0.0024973
0.00249698
0.0025086
0.00245825
0.00245789
0.00245736
0.00245667
0.00245584
0.00245489
0.00245385
0.00245274
0.0024516
0.00245046
0.00244939
0.00244843
0.00244766
0.00244713
0.00244682
0.00245845
0.0024081
0.00240773
0.0024072
0.00240651
0.00240568
0.00240473
0.00240369
0.00240258
0.00240144
0.0024003
0.00239923
0.00239827
0.0023975
0.00239697
0.00239665
0.00240829
0.00235794
0.00235758
0.00235704
0.00235635
0.00235552
0.00235457
0.00235353
0.00235242
0.00235128
0.00235014
0.00234907
0.00234811
0.00234733
0.0023468
0.00234649
0.00235813
0.00230778
0.00230742
0.00230689
0.00230619
0.00230536
0.00230441
0.00230337
0.00230225
0.00230111
0.00229998
0.0022989
0.00229794
0.00229717
0.00229664
0.00229632
0.00230798
0.00225762
0.00225726
0.00225673
0.00225603
0.0022552
0.00225425
0.0022532
0.00225209
0.00225095
0.00224981
0.00224873
0.00224777
0.002247
0.00224647
0.00224615
0.00225782
0.00220746
0.0022071
0.00220656
0.00220587
0.00220504
0.00220409
0.00220304
0.00220193
0.00220078
0.00219964
0.00219857
0.00219761
0.00219683
0.0021963
0.00219598
0.00220766
0.0021573
0.00215693
0.0021564
0.00215571
0.00215488
0.00215392
0.00215288
0.00215176
0.00215062
0.00214948
0.0021484
0.00214744
0.00214667
0.00214613
0.00214582
0.00215749
0.00210714
0.00210677
0.00210624
0.00210555
0.00210471
0.00210376
0.00210271
0.0021016
0.00210045
0.00209931
0.00209824
0.00209727
0.0020965
0.00209597
0.00209565
0.00210733
0.00205698
0.00205661
0.00205608
0.00205538
0.00205455
0.0020536
0.00205255
0.00205143
0.00205029
0.00204915
0.00204807
0.0020471
0.00204633
0.0020458
0.00204548
0.00205717
0.00200681
0.00200645
0.00200591
0.00200522
0.00200439
0.00200343
0.00200238
0.00200127
0.00200012
0.00199898
0.0019979
0.00199694
0.00199616
0.00199563
0.00199531
0.00200701
0.00195665
0.00195628
0.00195575
0.00195506
0.00195422
0.00195327
0.00195222
0.0019511
0.00194995
0.00194881
0.00194773
0.00194677
0.001946
0.00194546
0.00194514
0.00195684
0.00190648
0.00190612
0.00190558
0.00190489
0.00190405
0.0019031
0.00190205
0.00190093
0.00189978
0.00189864
0.00189756
0.0018966
0.00189582
0.00189529
0.00189497
0.00190668
0.00185632
0.00185596
0.00185542
0.00185472
0.00185389
0.00185293
0.00185188
0.00185076
0.00184961
0.00184847
0.00184739
0.00184643
0.00184565
0.00184512
0.0018448
0.00185651
0.00180615
0.00180579
0.00180525
0.00180456
0.00180372
0.00180276
0.00180171
0.00180059
0.00179945
0.0017983
0.00179722
0.00179626
0.00179548
0.00179495
0.00179463
0.00180635
0.00175599
0.00175562
0.00175509
0.00175439
0.00175355
0.0017526
0.00175154
0.00175042
0.00174928
0.00174813
0.00174705
0.00174608
0.00174531
0.00174477
0.00174446
0.00175618
0.00170582
0.00170546
0.00170492
0.00170422
0.00170338
0.00170243
0.00170137
0.00170025
0.00169911
0.00169796
0.00169688
0.00169591
0.00169514
0.0016946
0.00169428
0.00170602
0.00165565
0.00165529
0.00165475
0.00165406
0.00165322
0.00165226
0.0016512
0.00165008
0.00164894
0.00164779
0.00164671
0.00164574
0.00164496
0.00164442
0.00164411
0.00165585
0.00160549
0.00160512
0.00160458
0.00160389
0.00160305
0.00160209
0.00160103
0.00159991
0.00159876
0.00159762
0.00159653
0.00159557
0.00159479
0.00159425
0.00159393
0.00160569
0.00155532
0.00155496
0.00155442
0.00155372
0.00155288
0.00155192
0.00155086
0.00154974
0.00154859
0.00154744
0.00154636
0.00154539
0.00154461
0.00154407
0.00154376
0.00155552
0.00150515
0.00150479
0.00150425
0.00150355
0.00150271
0.00150175
0.00150069
0.00149957
0.00149842
0.00149727
0.00149618
0.00149522
0.00149443
0.00149389
0.00149358
0.00150535
0.00145499
0.00145462
0.00145408
0.00145338
0.00145254
0.00145158
0.00145052
0.0014494
0.00144825
0.0014471
0.00144601
0.00144504
0.00144426
0.00144372
0.0014434
0.00145519
0.00140482
0.00140445
0.00140391
0.00140321
0.00140237
0.00140141
0.00140035
0.00139923
0.00139807
0.00139692
0.00139583
0.00139486
0.00139408
0.00139354
0.00139322
0.00140502
0.00135465
0.00135428
0.00135374
0.00135304
0.0013522
0.00135124
0.00135018
0.00134905
0.00134789
0.00134674
0.00134565
0.00134468
0.0013439
0.00134336
0.00134304
0.00135485
0.00130448
0.00130412
0.00130357
0.00130287
0.00130203
0.00130106
0.0013
0.00129888
0.00129772
0.00129657
0.00129548
0.0012945
0.00129372
0.00129317
0.00129286
0.00130468
0.00125432
0.00125395
0.00125341
0.0012527
0.00125186
0.00125089
0.00124983
0.0012487
0.00124754
0.00124639
0.0012453
0.00124432
0.00124354
0.00124299
0.00124267
0.00125452
0.00120415
0.00120378
0.00120324
0.00120254
0.00120169
0.00120073
0.00119966
0.00119853
0.00119737
0.00119621
0.00119512
0.00119414
0.00119335
0.00119281
0.00119249
0.00120435
0.00115398
0.00115361
0.00115307
0.00115237
0.00115153
0.00115056
0.00114949
0.00114836
0.00114719
0.00114604
0.00114494
0.00114396
0.00114317
0.00114262
0.0011423
0.00115418
0.00110382
0.00110345
0.0011029
0.0011022
0.00110135
0.00110038
0.00109932
0.00109818
0.00109702
0.00109586
0.00109476
0.00109378
0.00109298
0.00109243
0.00109211
0.00110402
0.00105365
0.00105328
0.00105274
0.00105203
0.00105118
0.00105021
0.00104915
0.00104801
0.00104684
0.00104568
0.00104458
0.00104359
0.0010428
0.00104224
0.00104192
0.00105385
0.00100347
0.00100311
0.00100256
0.00100186
0.00100101
0.00100004
0.000998973
0.000997835
0.000996665
0.000995501
0.000994393
0.000993407
0.000992607
0.000992051
0.00099172
0.00100367
0.000953298
0.000952931
0.000952386
0.000951682
0.000950835
0.000949865
0.000948796
0.000947658
0.000946486
0.000945321
0.000944212
0.000943222
0.000942418
0.000941856
0.000941521
0.000953496
0.00090312
0.000902753
0.000902208
0.000901505
0.000900658
0.000899688
0.000898619
0.000897481
0.000896308
0.000895141
0.000894029
0.000893036
0.000892227
0.000891661
0.00089132
0.000903317
0.000852936
0.00085257
0.000852026
0.000851323
0.000850477
0.000849509
0.00084844
0.000847302
0.000846129
0.00084496
0.000843846
0.000842849
0.000842036
0.000841464
0.000841116
0.000853133
0.000802743
0.000802378
0.000801835
0.000801134
0.00080029
0.000799324
0.000798257
0.00079712
0.000795948
0.000794778
0.000793662
0.000792661
0.000791843
0.000791264
0.000790909
0.00080294
0.000752541
0.000752177
0.000751637
0.000750938
0.000750097
0.000749133
0.00074807
0.000746935
0.000745764
0.000744595
0.000743478
0.000742474
0.000741651
0.000741064
0.000740699
0.000752737
0.000702326
0.000701964
0.000701426
0.000700732
0.000699895
0.000698935
0.000697875
0.000696745
0.000695577
0.00069441
0.000693293
0.000692287
0.000691458
0.000690863
0.000690487
0.000702521
0.000652094
0.000651735
0.000651201
0.000650511
0.000649679
0.000648725
0.000647672
0.000646547
0.000645385
0.000644221
0.000643106
0.000642099
0.000641267
0.000640662
0.000640272
0.000652288
0.000601843
0.000601487
0.000600957
0.000600273
0.000599447
0.000598501
0.000597456
0.00059634
0.000595185
0.000594028
0.000592918
0.000591912
0.000591077
0.000590463
0.000590056
0.000602035
0.000551567
0.000551215
0.00055069
0.000550013
0.000549196
0.000548259
0.000547224
0.000546118
0.000544974
0.000543827
0.000542725
0.000541724
0.000540887
0.000540266
0.000539839
0.000551758
0.000501265
0.000500916
0.000500397
0.000499728
0.000498922
0.000497996
0.000496973
0.000495881
0.00049475
0.000493615
0.000492523
0.00049153
0.000490697
0.00049007
0.000489626
0.000501453
0.00045093
0.000450586
0.000450075
0.000449415
0.000448619
0.000447707
0.000446698
0.000445622
0.000444507
0.000443387
0.00044231
0.000441327
0.000440501
0.000439873
0.000439418
0.000451116
0.00040056
0.000400222
0.000399719
0.000399069
0.000398286
0.000397389
0.000396397
0.000395338
0.000394242
0.000393142
0.000392082
0.000391116
0.0003903
0.000389677
0.000389218
0.000400743
0.000350153
0.000349821
0.000349326
0.000348688
0.000347919
0.000347039
0.000346066
0.000345028
0.000343954
0.000342877
0.00034184
0.000340895
0.000340097
0.000339484
0.000339029
0.000350333
0.000299707
0.000299381
0.000298896
0.00029827
0.000297517
0.000296655
0.000295703
0.000294689
0.000293641
0.000292592
0.000291583
0.000290664
0.000289892
0.000289296
0.000288855
0.000299884
0.000249222
0.000248903
0.000248427
0.000247815
0.000247079
0.000246237
0.000245308
0.00024432
0.000243301
0.000242284
0.00024131
0.000240428
0.000239688
0.00023912
0.000238707
0.000249395
0.000198697
0.000198385
0.00019792
0.000197323
0.000196605
0.000195784
0.00019488
0.000193921
0.000192935
0.000191955
0.000191021
0.000190183
0.000189488
0.000188965
0.000188605
0.000198866
0.000148137
0.000147833
0.00014738
0.000146798
0.000146099
0.000145302
0.000144425
0.000143496
0.000142545
0.000141606
0.000140718
0.000139933
0.000139299
0.000138852
0.000138585
0.000148303
9.75477e-05
9.72521e-05
9.68113e-05
9.6245e-05
9.55662e-05
9.4793e-05
9.39448e-05
9.30481e-05
9.2135e-05
9.12409e-05
9.04087e-05
8.9691e-05
8.91444e-05
8.88105e-05
8.86844e-05
9.77089e-05
4.69324e-05
4.66454e-05
4.62174e-05
4.56679e-05
4.50105e-05
4.42634e-05
4.34475e-05
4.25892e-05
4.17217e-05
4.08833e-05
4.01213e-05
3.94929e-05
3.90614e-05
3.88767e-05
3.8937e-05
4.70891e-05
-3.70131e-06
-3.97755e-06
-4.3898e-06
-4.91818e-06
-5.54891e-06
-6.26249e-06
-7.03694e-06
-7.84474e-06
-8.6524e-06
-9.41884e-06
-1.00924e-05
-1.06105e-05
-1.09027e-05
-1.09112e-05
-1.06314e-05
-3.54996e-06
-5.43307e-05
-5.45918e-05
-5.49811e-05
-5.54793e-05
-5.60719e-05
-5.6739e-05
-5.74577e-05
-5.82001e-05
-5.89313e-05
-5.96088e-05
-6.0177e-05
-6.05682e-05
-6.07045e-05
-6.05205e-05
-6.00047e-05
-5.41869e-05
-0.000104907
-0.000105146
-0.000105503
-0.000105959
-0.0001065
-0.000107106
-0.000107754
-0.000108415
-0.000109056
-0.00010963
-0.000110081
-0.000110335
-0.000110308
-0.000109927
-0.000109175
-0.000104774
-0.000155356
-0.000155568
-0.000155884
-0.000156288
-0.000156764
-0.000157296
-0.000157861
-0.00015843
-0.00015897
-0.000159433
-0.000159759
-0.000159872
-0.000159683
-0.000159114
-0.000158139
-0.000155239
-0.000205597
-0.000205778
-0.000206047
-0.000206391
-0.000206796
-0.000207246
-0.00020772
-0.000208192
-0.000208625
-0.000208973
-0.000209175
-0.000209152
-0.000208811
-0.00020807
-0.000206897
-0.000205496
-0.000255548
-0.000255696
-0.000255917
-0.000256199
-0.000256531
-0.000256898
-0.000257281
-0.000257654
-0.000257982
-0.000258219
-0.000258303
-0.000258155
-0.000257678
-0.000256789
-0.000255452
-0.000255464
-0.000305139
-0.000305257
-0.000305433
-0.000305658
-0.000305921
-0.00030621
-0.000306507
-0.000306787
-0.000307016
-0.00030715
-0.000307127
-0.000306867
-0.000306276
-0.000305269
-0.000303807
-0.000305072
-0.000354322
-0.000354414
-0.000354552
-0.000354727
-0.00035493
-0.00035515
-0.00035537
-0.000355567
-0.000355708
-0.000355751
-0.000355635
-0.000355283
-0.000354602
-0.00035351
-0.000351966
-0.00035427
-0.000403076
-0.000403148
-0.000403255
-0.000403389
-0.000403542
-0.000403704
-0.000403859
-0.000403984
-0.000404051
-0.000404017
-0.000403825
-0.000403402
-0.000402658
-0.000401516
-0.000399936
-0.000403035
-0.000451405
-0.000451461
-0.000451545
-0.000451646
-0.00045176
-0.000451875
-0.000451976
-0.000452044
-0.000452049
-0.000451953
-0.000451703
-0.000451231
-0.000450452
-0.000449295
-0.000447723
-0.000451373
-0.000499334
-0.000499378
-0.000499442
-0.000499518
-0.0004996
-0.000499677
-0.000499736
-0.000499756
-0.000499713
-0.00049957
-0.00049928
-0.000498779
-0.000497992
-0.000496854
-0.000495333
-0.000499309
-0.000546901
-0.000546934
-0.000546982
-0.000547036
-0.000547091
-0.000547137
-0.000547161
-0.000547145
-0.000547064
-0.000546888
-0.000546573
-0.000546063
-0.000545293
-0.000544207
-0.000542774
-0.000546882
-0.000594152
-0.000594174
-0.000594206
-0.00059424
-0.000594271
-0.00059429
-0.000594284
-0.000594237
-0.000594127
-0.000593928
-0.000593602
-0.000593102
-0.000592371
-0.000591363
-0.000590051
-0.000594139
-0.000641133
-0.000641145
-0.000641161
-0.000641175
-0.000641183
-0.000641175
-0.000641141
-0.000641068
-0.000640935
-0.00064072
-0.000640394
-0.000639917
-0.000639244
-0.000638337
-0.00063717
-0.000641126
-0.000687888
-0.000687889
-0.000687889
-0.000687883
-0.000687868
-0.000687834
-0.000687774
-0.000687675
-0.000687521
-0.000687296
-0.000686976
-0.000686533
-0.000685932
-0.000685142
-0.000684136
-0.000687886
-0.000734453
-0.000734444
-0.000734428
-0.000734403
-0.000734365
-0.000734307
-0.000734221
-0.000734097
-0.000733923
-0.000733689
-0.000733381
-0.000732978
-0.000732457
-0.000731792
-0.000730954
-0.000734457
-0.000780857
-0.000780839
-0.000780809
-0.000780767
-0.000780707
-0.000780626
-0.000780516
-0.000780369
-0.000780179
-0.000779939
-0.000779643
-0.00077928
-0.000778838
-0.000778296
-0.000777624
-0.000780866
-0.000827124
-0.000827098
-0.000827058
-0.000827002
-0.000826925
-0.000826825
-0.000826696
-0.000826533
-0.000826334
-0.000826094
-0.00082581
-0.00082548
-0.000825106
-0.000824671
-0.000824148
-0.000827136
-0.000873284
-0.000873254
-0.000873207
-0.000873142
-0.000873054
-0.000872943
-0.000872805
-0.000872636
-0.000872436
-0.000872201
-0.000871931
-0.000871629
-0.0008713
-0.000870944
-0.000870539
-0.000873299
-0.000919377
-0.000919345
-0.000919294
-0.000919224
-0.000919133
-0.000919018
-0.000918877
-0.000918709
-0.000918513
-0.000918288
-0.000918034
-0.000917755
-0.000917459
-0.000917152
-0.000916827
-0.000919394
-0.000965432
-0.000965398
-0.000965345
-0.000965273
-0.000965179
-0.000965063
-0.000964924
-0.00096476
-0.000964571
-0.000964357
-0.000964121
-0.000963866
-0.000963598
-0.000963327
-0.000963052
-0.00096545
-0.00101146
-0.00101142
-0.00101137
-0.0010113
-0.0010112
-0.00101109
-0.00101095
-0.00101079
-0.00101061
-0.00101041
-0.0010102
-0.00100996
-0.00100972
-0.00100948
-0.00100924
-0.00101147
-0.00105745
-0.00105742
-0.00105737
-0.0010573
-0.0010572
-0.00105709
-0.00105696
-0.00105681
-0.00105664
-0.00105646
-0.00105626
-0.00105605
-0.00105584
-0.00105562
-0.00105542
-0.00105747
-0.00110343
-0.0011034
-0.00110335
-0.00110328
-0.00110319
-0.00110308
-0.00110296
-0.00110282
-0.00110266
-0.00110249
-0.00110231
-0.00110212
-0.00110193
-0.00110174
-0.00110156
-0.00110345
-0.0011494
-0.00114936
-0.00114931
-0.00114925
-0.00114916
-0.00114906
-0.00114895
-0.00114882
-0.00114867
-0.00114852
-0.00114835
-0.00114818
-0.00114801
-0.00114785
-0.00114769
-0.00114942
-0.00119535
-0.00119532
-0.00119527
-0.00119521
-0.00119513
-0.00119504
-0.00119493
-0.00119481
-0.00119467
-0.00119453
-0.00119439
-0.00119423
-0.00119408
-0.00119394
-0.00119381
-0.00119537
-0.00124129
-0.00124126
-0.00124122
-0.00124116
-0.00124109
-0.001241
-0.0012409
-0.00124079
-0.00124067
-0.00124054
-0.00124041
-0.00124028
-0.00124014
-0.00124002
-0.00123991
-0.00124131
-0.00128723
-0.00128721
-0.00128716
-0.00128711
-0.00128704
-0.00128696
-0.00128687
-0.00128677
-0.00128666
-0.00128654
-0.00128643
-0.00128631
-0.00128619
-0.00128608
-0.00128599
-0.00128725
-0.00133316
-0.00133314
-0.0013331
-0.00133305
-0.00133299
-0.00133292
-0.00133283
-0.00133274
-0.00133264
-0.00133254
-0.00133244
-0.00133233
-0.00133223
-0.00133214
-0.00133205
-0.00133318
-0.00137909
-0.00137907
-0.00137904
-0.00137899
-0.00137894
-0.00137887
-0.00137879
-0.00137871
-0.00137862
-0.00137853
-0.00137844
-0.00137835
-0.00137826
-0.00137818
-0.0013781
-0.00137911
-0.00142502
-0.001425
-0.00142497
-0.00142493
-0.00142488
-0.00142482
-0.00142475
-0.00142468
-0.0014246
-0.00142452
-0.00142444
-0.00142436
-0.00142428
-0.00142421
-0.00142414
-0.00142504
-0.00147095
-0.00147093
-0.0014709
-0.00147086
-0.00147082
-0.00147076
-0.0014707
-0.00147064
-0.00147057
-0.0014705
-0.00147042
-0.00147035
-0.00147029
-0.00147022
-0.00147017
-0.00147096
-0.00151688
-0.00151686
-0.00151684
-0.0015168
-0.00151676
-0.00151671
-0.00151666
-0.0015166
-0.00151654
-0.00151647
-0.00151641
-0.00151635
-0.00151629
-0.00151623
-0.00151618
-0.00151689
-0.0015628
-0.00156279
-0.00156277
-0.00156273
-0.0015627
-0.00156265
-0.00156261
-0.00156256
-0.0015625
-0.00156244
-0.00156239
-0.00156233
-0.00156228
-0.00156223
-0.00156218
-0.00156281
-0.00160873
-0.00160871
-0.00160869
-0.00160867
-0.00160863
-0.0016086
-0.00160855
-0.00160851
-0.00160846
-0.00160841
-0.00160836
-0.00160831
-0.00160826
-0.00160822
-0.00160818
-0.00160874
-0.00165465
-0.00165464
-0.00165462
-0.0016546
-0.00165457
-0.00165453
-0.00165449
-0.00165445
-0.00165441
-0.00165437
-0.00165433
-0.00165428
-0.00165424
-0.0016542
-0.00165417
-0.00165466
-0.00170057
-0.00170056
-0.00170054
-0.00170052
-0.0017005
-0.00170047
-0.00170043
-0.0017004
-0.00170037
-0.00170033
-0.00170029
-0.00170025
-0.00170021
-0.00170018
-0.00170015
-0.00170058
-0.00174649
-0.00174648
-0.00174647
-0.00174645
-0.00174643
-0.0017464
-0.00174637
-0.00174634
-0.00174631
-0.00174627
-0.00174624
-0.00174621
-0.00174618
-0.00174615
-0.00174612
-0.0017465
-0.00179241
-0.0017924
-0.0017924
-0.00179238
-0.00179236
-0.00179234
-0.00179231
-0.00179228
-0.00179225
-0.00179222
-0.00179219
-0.00179216
-0.00179213
-0.00179211
-0.00179208
-0.00179242
-0.00183833
-0.00183832
-0.00183831
-0.0018383
-0.00183828
-0.00183826
-0.00183824
-0.00183822
-0.00183819
-0.00183816
-0.00183814
-0.00183811
-0.00183809
-0.00183806
-0.00183803
-0.00183834
-0.00188425
-0.00188424
-0.00188423
-0.00188422
-0.00188421
-0.00188419
-0.00188417
-0.00188414
-0.00188412
-0.0018841
-0.00188408
-0.00188405
-0.00188403
-0.00188401
-0.00188399
-0.00188426
-0.00193017
-0.00193016
-0.00193015
-0.00193014
-0.00193013
-0.00193011
-0.00193009
-0.00193008
-0.00193006
-0.00193004
-0.00193001
-0.00192999
-0.00192997
-0.00192995
-0.00192993
-0.00193017
-0.00197608
-0.00197607
-0.00197606
-0.00197606
-0.00197605
-0.00197603
-0.00197602
-0.001976
-0.00197598
-0.00197596
-0.00197595
-0.00197593
-0.00197591
-0.00197589
-0.00197587
-0.00197609
-0.00202199
-0.00202199
-0.00202198
-0.00202197
-0.00202196
-0.00202195
-0.00202193
-0.00202192
-0.0020219
-0.00202189
-0.00202187
-0.00202185
-0.00202184
-0.00202182
-0.0020218
-0.002022
-0.0020679
-0.0020679
-0.00206789
-0.00206788
-0.00206787
-0.00206786
-0.00206785
-0.00206783
-0.00206782
-0.00206781
-0.00206779
-0.00206778
-0.00206776
-0.00206775
-0.00206773
-0.0020679
-0.0021138
-0.0021138
-0.00211379
-0.00211379
-0.00211378
-0.00211377
-0.00211376
-0.00211375
-0.00211374
-0.00211372
-0.00211371
-0.0021137
-0.00211368
-0.00211367
-0.00211365
-0.00211381
-0.0021597
-0.0021597
-0.0021597
-0.00215969
-0.00215969
-0.00215968
-0.00215967
-0.00215966
-0.00215965
-0.00215964
-0.00215962
-0.00215961
-0.0021596
-0.00215958
-0.00215957
-0.00215971
-0.0022056
-0.0022056
-0.0022056
-0.00220559
-0.00220559
-0.00220558
-0.00220558
-0.00220557
-0.00220556
-0.00220555
-0.00220553
-0.00220552
-0.00220551
-0.0022055
-0.00220548
-0.00220561
-0.0022515
-0.0022515
-0.00225149
-0.00225149
-0.00225149
-0.00225148
-0.00225148
-0.00225147
-0.00225146
-0.00225145
-0.00225144
-0.00225143
-0.00225142
-0.0022514
-0.00225139
-0.0022515
-0.0022974
-0.00229739
-0.00229739
-0.00229739
-0.00229738
-0.00229738
-0.00229737
-0.00229736
-0.00229736
-0.00229735
-0.00229734
-0.00229733
-0.00229732
-0.00229731
-0.0022973
-0.0022974
-0.00234329
-0.00234328
-0.00234328
-0.00234328
-0.00234327
-0.00234327
-0.00234326
-0.00234326
-0.00234325
-0.00234324
-0.00234324
-0.00234323
-0.00234322
-0.00234321
-0.0023432
-0.00234329
-0.00238917
-0.00238917
-0.00238917
-0.00238917
-0.00238916
-0.00238916
-0.00238915
-0.00238915
-0.00238914
-0.00238914
-0.00238913
-0.00238912
-0.00238911
-0.00238911
-0.00238909
-0.00238917
-0.00243505
-0.00243505
-0.00243505
-0.00243505
-0.00243505
-0.00243504
-0.00243504
-0.00243503
-0.00243503
-0.00243502
-0.00243502
-0.00243501
-0.002435
-0.002435
-0.00243498
-0.00243505
-0.00248093
-0.00248093
-0.00248093
-0.00248093
-0.00248092
-0.00248092
-0.00248092
-0.00248092
-0.00248091
-0.00248091
-0.0024809
-0.0024809
-0.00248089
-0.00248088
-0.00248087
-0.00248093
-0.00252681
-0.00252681
-0.00252681
-0.00252681
-0.0025268
-0.0025268
-0.0025268
-0.0025268
-0.00252679
-0.00252679
-0.00252679
-0.00252678
-0.00252678
-0.00252677
-0.00252676
-0.00252681
-0.00257269
-0.00257269
-0.00257268
-0.00257268
-0.00257268
-0.00257268
-0.00257268
-0.00257267
-0.00257267
-0.00257267
-0.00257266
-0.00257266
-0.00257265
-0.00257265
-0.00257264
-0.00257269
-0.00261856
-0.00261855
-0.00261855
-0.00261855
-0.00261855
-0.00261855
-0.00261855
-0.00261855
-0.00261854
-0.00261854
-0.00261854
-0.00261853
-0.00261853
-0.00261852
-0.00261851
-0.00261856
-0.00266442
-0.00266442
-0.00266442
-0.00266442
-0.00266442
-0.00266442
-0.00266442
-0.00266441
-0.00266441
-0.00266441
-0.00266441
-0.00266441
-0.0026644
-0.00266439
-0.00266438
-0.00266442
-0.00271028
-0.00271028
-0.00271028
-0.00271028
-0.00271028
-0.00271028
-0.00271028
-0.00271028
-0.00271028
-0.00271028
-0.00271027
-0.00271027
-0.00271027
-0.00271026
-0.00271025
-0.00271028
-0.00275614
-0.00275614
-0.00275614
-0.00275614
-0.00275614
-0.00275614
-0.00275614
-0.00275614
-0.00275614
-0.00275614
-0.00275614
-0.00275613
-0.00275613
-0.00275613
-0.00275612
-0.00275614
-0.002802
-0.002802
-0.002802
-0.002802
-0.002802
-0.002802
-0.002802
-0.002802
-0.002802
-0.002802
-0.00280199
-0.00280199
-0.00280199
-0.00280199
-0.00280199
-0.002802
-0.00284786
-0.00284786
-0.00284786
-0.00284786
-0.00284786
-0.00284786
-0.00284785
-0.00284785
-0.00284785
-0.00284785
-0.00284785
-0.00284785
-0.00284785
-0.00284785
-0.00284784
-0.00284786
-0.00289371
-0.00289371
-0.00289371
-0.00289371
-0.00289371
-0.00289371
-0.00289371
-0.00289371
-0.0028937
-0.00289371
-0.00289371
-0.00289371
-0.0028937
-0.0028937
-0.0028937
-0.00289371
-0.00293956
-0.00293955
-0.00293956
-0.00293956
-0.00293956
-0.00293956
-0.00293956
-0.00293955
-0.00293955
-0.00293955
-0.00293955
-0.00293955
-0.00293955
-0.00293955
-0.00293955
-0.00293956
-0.0029854
-0.0029854
-0.0029854
-0.0029854
-0.0029854
-0.0029854
-0.0029854
-0.0029854
-0.0029854
-0.00298539
-0.0029854
-0.0029854
-0.00298539
-0.0029854
-0.0029854
-0.0029854
-0.00303124
-0.00303124
-0.00303124
-0.00303124
-0.00303124
-0.00303124
-0.00303124
-0.00303124
-0.00303124
-0.00303124
-0.00303124
-0.00303124
-0.00303124
-0.00303124
-0.00303124
-0.00303124
-0.00307708
-0.00307708
-0.00307708
-0.00307708
-0.00307708
-0.00307708
-0.00307708
-0.00307708
-0.00307708
-0.00307708
-0.00307708
-0.00307708
-0.00307708
-0.00307708
-0.00307708
-0.00307708
)
;

boundaryField
{
    wireUpstream
    {
        type            calculated;
        value           nonuniform List<scalar> 
16
(
-0.0031
-0.0031
-0.0031
-0.0031
-0.0031
-0.0031
-0.0031
-0.0031
-0.0031
-0.0031
-0.0031
-0.0031
-0.0031
-0.0031
-0.0031
-0.0031
)
;
    }
    wireDownstream
    {
        type            calculated;
        value           nonuniform List<scalar> 
16
(
0.003
0.003
0.003
0.003
0.003
0.003
0.003
0.003
0.003
0.003
0.003
0.003
0.003
0.003
0.003
0.003
)
;
    }
    wireTopContact
    {
        type            calculated;
        value           nonuniform List<scalar> 
122
(
0.00269754
0.00264738
0.00259721
0.00254705
0.00249688
0.00244671
0.00239655
0.00234638
0.00229622
0.00224605
0.00219588
0.00214571
0.00209555
0.00204538
0.00199521
0.00194504
0.00189487
0.0018447
0.00179453
0.00174435
0.00169418
0.001644
0.00159383
0.00154365
0.00149347
0.00144329
0.00139311
0.00134293
0.00129275
0.00124256
0.00119238
0.00114219
0.001092
0.0010418
0.000991602
0.000941402
0.000891199
0.000840992
0.00079078
0.000740566
0.000690348
0.000640125
0.000589898
0.000539667
0.000489441
0.000439225
0.000389022
0.000338835
0.000288668
0.000238537
0.000188465
0.000138497
8.86752e-05
3.903e-05
-1.04185e-05
-5.96637e-05
-0.000108707
-0.000157552
-0.000206206
-0.000254674
-0.000302965
-0.000351085
-0.00039904
-0.000446836
-0.000494479
-0.000541973
-0.00058932
-0.000636521
-0.000683577
-0.000730487
-0.000777248
-0.000823856
-0.000870317
-0.000916656
-0.000962914
-0.00100913
-0.00105532
-0.00110148
-0.00114762
-0.00119375
-0.00123985
-0.00128594
-0.00133201
-0.00137807
-0.00142411
-0.00147014
-0.00151616
-0.00156216
-0.00160816
-0.00165415
-0.00170013
-0.0017461
-0.00179206
-0.00183802
-0.00188398
-0.00192992
-0.00197586
-0.00202179
-0.00206772
-0.00211364
-0.00215956
-0.00220548
-0.00225139
-0.00229729
-0.00234319
-0.00238909
-0.00243498
-0.00248087
-0.00252675
-0.00257263
-0.00261851
-0.00266438
-0.00271025
-0.00275612
-0.00280198
-0.00284784
-0.0028937
-0.00293955
-0.00298539
-0.00303124
-0.00307708
0.00286131
)
;
    }
    front
    {
        type            wedge;
    }
    back
    {
        type            wedge;
    }
}


// ************************************************************************* //
