/*--------------------------------*- C++ -*----------------------------------*\
| =========                 |                                                 |
| \\      /  F ield         | foam-extend: Open Source CFD                    |
|  \\    /   O peration     | Version:     4.1-20200408                       |
|   \\  /    A nd           | Web:         http://www.foam-extend.org         |
|    \\/     M anipulation  |                                                 |
\*---------------------------------------------------------------------------*/
FoamFile
{
    version     2.0;
    format      ascii;
    class       volTensorField;
    location    "0.0075000";
    object      F;
}
// * * * * * * * * * * * * * * * * * * * * * * * * * * * * * * * * * * * * * //

dimensions      [0 0 0 0 0 0 0];

internalField   nonuniform List<tensor> 
1952
(
(1.00267 0.000142196 9.8698e-12 -0.000144184 0.999388 -3.67052e-12 -4.97296e-12 1.44703e-11 0.999388)
(1.00266 0.000234858 8.07049e-12 -0.000237303 0.999389 -2.25569e-11 -4.12189e-12 -1.32377e-11 0.999388)
(1.00265 0.000325886 -4.76802e-12 -0.000330242 0.999389 5.48445e-12 2.282e-12 -1.02655e-10 0.999389)
(1.00263 0.000424527 -1.59178e-11 -0.000429304 0.999392 3.42804e-11 7.77583e-12 3.98427e-11 0.999388)
(1.00261 0.000519358 6.20189e-12 -0.00052637 0.999392 -1.001e-11 -3.42596e-12 1.95354e-10 0.99939)
(1.00258 0.000624117 3.31674e-11 -0.000631607 0.999396 -3.92555e-11 -1.68454e-11 2.94896e-11 0.99939)
(1.00255 0.000723036 9.14942e-12 -0.000733021 0.999396 -1.44468e-11 -4.69575e-12 -1.96765e-10 0.999392)
(1.00252 0.000833643 -1.13314e-11 -0.000844273 0.9994 2.29612e-11 5.43351e-12 -3.99262e-11 0.999391)
(1.00248 0.000934572 1.25427e-11 -0.000948068 0.999399 -5.15859e-12 -6.87372e-12 1.95787e-10 0.999393)
(1.00244 0.00104779 1.56273e-11 -0.00106255 0.999402 -2.74308e-11 -8.29957e-12 -3.37411e-11 0.999393)
(1.00239 0.00114384 -8.23703e-12 -0.00116296 0.999398 2.81066e-12 3.96079e-12 -2.08151e-10 0.999395)
(1.00234 0.00124917 1.29059e-11 -0.00127312 0.999398 1.2241e-11 -6.89977e-12 3.60572e-11 0.999394)
(1.00229 0.00131987 -4.27181e-11 -0.00135724 0.999388 1.31046e-11 2.03495e-11 1.93109e-10 0.999395)
(1.00223 0.00135239 1.18639e-10 -0.00142636 0.999376 -3.56661e-11 -6.00979e-11 3.21212e-11 0.999393)
(1.00216 0.00111351 -1.33876e-10 -0.00134066 0.999339 3.70832e-11 6.62362e-11 -5.79125e-11 0.999393)
(1.00267 6.15659e-05 2.68209e-12 -6.21141e-05 0.999388 -5.71573e-11 -1.35996e-12 -2.07971e-11 0.999388)
(1.0027 0.000149302 1.03541e-11 -0.000162014 0.999346 -3.8844e-12 -1.06989e-13 1.54464e-11 0.999346)
(1.00269 0.000246512 8.41883e-12 -0.000265468 0.999347 -2.399e-11 -2.02558e-13 -1.4173e-11 0.999346)
(1.00268 0.000341895 -5.06499e-12 -0.000370904 0.999347 5.88582e-12 -2.17049e-13 -1.09538e-10 0.999347)
(1.00266 0.000445164 -1.68082e-11 -0.00048073 0.999349 3.62335e-11 -3.00245e-13 4.25145e-11 0.999347)
(1.00264 0.00054421 6.57417e-12 -0.000591426 0.999348 -1.07247e-11 -5.84763e-13 2.08976e-10 0.999348)
(1.00261 0.000653493 3.47125e-11 -0.00070834 0.99935 -4.15885e-11 -6.13615e-13 3.15136e-11 0.999347)
(1.00258 0.000756393 9.64327e-12 -0.00082496 0.999348 -1.56754e-11 -3.90401e-13 -2.11139e-10 0.999348)
(1.00255 0.000871297 -1.19346e-11 -0.000949835 0.99935 2.34701e-11 -4.58488e-13 -4.23482e-11 0.999347)
(1.00251 0.000975907 1.28276e-11 -0.00107183 0.999347 -5.57293e-12 -1.08904e-12 2.10169e-10 0.999349)
(1.00247 0.00109322 1.66172e-11 -0.00120445 0.999346 -2.82424e-11 -1.0482e-12 -3.68505e-11 0.999347)
(1.00242 0.00119301 -8.26596e-12 -0.0013304 0.99934 3.17383e-12 -4.93785e-13 -2.23377e-10 0.999348)
(1.00237 0.00130369 1.2633e-11 -0.00147086 0.999337 1.28251e-11 -8.93944e-13 3.87991e-11 0.999346)
(1.00231 0.00138427 -4.24902e-11 -0.00160258 0.999328 1.28622e-11 -1.6804e-12 2.08645e-10 0.999347)
(1.00223 0.00145669 1.12388e-10 -0.00174859 0.999327 -3.86268e-11 -1.85911e-12 3.47188e-11 0.999344)
(1.00209 0.00144396 -1.5275e-10 -0.00186507 0.999343 3.17136e-11 -1.10158e-12 -6.05532e-11 0.999344)
(1.0027 6.46486e-05 2.85303e-12 -6.94283e-05 0.999346 -6.09346e-11 -4.69128e-14 -2.21977e-11 0.999346)
(1.00272 0.000156275 1.08291e-11 -0.000178294 0.99931 -4.07684e-12 -1.07359e-13 1.63118e-11 0.99931)
(1.00271 0.000257923 8.76238e-12 -0.000291934 0.99931 -2.52887e-11 -2.02199e-13 -1.5004e-11 0.99931)
(1.0027 0.000357555 -5.36008e-12 -0.000408168 0.99931 6.2403e-12 -2.12234e-13 -1.15617e-10 0.99931)
(1.00268 0.000465366 -1.76802e-11 -0.000528647 0.999311 3.807e-11 -3.02904e-13 4.48735e-11 0.99931)
(1.00266 0.000568526 6.93547e-12 -0.00065089 0.99931 -1.13325e-11 -6.00222e-13 2.20905e-10 0.99931)
(1.00264 0.000682287 3.62091e-11 -0.000779259 0.999311 -4.37351e-11 -6.16527e-13 3.32691e-11 0.99931)
(1.00261 0.000789164 1.01284e-11 -0.00090863 0.999309 -1.67092e-11 -3.69257e-13 -2.23559e-10 0.999311)
(1.00257 0.000908516 -1.24495e-11 -0.00104655 0.999311 2.42915e-11 -4.54976e-13 -4.44174e-11 0.99931)
(1.00253 0.00101725 1.31049e-11 -0.00118355 0.999308 -5.89573e-12 -1.1158e-12 2.22307e-10 0.999311)
(1.00249 0.0011397 1.73549e-11 -0.00133236 0.999309 -2.94797e-11 -1.04244e-12 -3.94395e-11 0.999309)
(1.00244 0.00124551 -8.13521e-12 -0.00147765 0.999305 3.72657e-12 -4.62319e-13 -2.35719e-10 0.99931)
(1.00238 0.00136596 1.29721e-11 -0.00164016 0.999308 1.41437e-11 -9.00928e-13 4.09472e-11 0.999309)
(1.0023 0.0014634 -4.22186e-11 -0.00179842 0.999309 1.27608e-11 -1.71682e-12 2.20343e-10 0.99931)
(1.00221 0.00156938 1.09133e-10 -0.0019728 0.999326 -4.16635e-11 -1.86626e-12 3.64928e-11 0.999309)
(1.00207 0.00163719 -1.57426e-10 -0.00211629 0.999359 3.13437e-11 -1.09166e-12 -6.37664e-11 0.999313)
(1.00273 6.7667e-05 2.99542e-12 -7.63859e-05 0.99931 -6.42857e-11 -4.67547e-14 -2.34422e-11 0.99931)
(1.00274 0.000163352 1.13203e-11 -0.000195418 0.999279 -4.23417e-12 -1.07741e-13 1.70431e-11 0.999279)
(1.00273 0.000269524 9.10834e-12 -0.000319847 0.999279 -2.63995e-11 -2.01891e-13 -1.57053e-11 0.999279)
(1.00272 0.000373492 -5.65806e-12 -0.000447266 0.999279 6.53112e-12 -2.07755e-13 -1.20724e-10 0.999279)
(1.0027 0.000485994 -1.85546e-11 -0.000578997 0.99928 3.96726e-11 -3.05499e-13 4.6848e-11 0.999279)
(1.00268 0.00059346 7.30907e-12 -0.000712998 0.99928 -1.18201e-11 -6.14771e-13 2.30819e-10 0.99928)
(1.00265 0.000712009 3.77139e-11 -0.000853261 0.999281 -4.55545e-11 -6.19366e-13 3.47174e-11 0.999279)
(1.00262 0.000823338 1.06148e-11 -0.000995256 0.999281 -1.75481e-11 -3.50007e-13 -2.33699e-10 0.99928)
(1.00258 0.000947882 -1.28564e-11 -0.00114614 0.999283 2.51956e-11 -4.51945e-13 -4.60865e-11 0.999279)
(1.00254 0.0010619 1.34007e-11 -0.00129708 0.999282 -6.12766e-12 -1.1401e-12 2.31944e-10 0.999281)
(1.00249 0.00119122 1.78852e-11 -0.00146038 0.999286 -3.06735e-11 -1.03773e-12 -4.14552e-11 0.99928)
(1.00244 0.00130555 -7.87262e-12 -0.00162107 0.999288 4.2986e-12 -4.35506e-13 -2.45097e-10 0.999282)
(1.00237 0.00143873 1.34875e-11 -0.00179912 0.999297 1.51551e-11 -9.07074e-13 4.25296e-11 0.999281)
(1.00229 0.00155522 -4.19009e-11 -0.00197166 0.999308 1.27352e-11 -1.74728e-12 2.2867e-10 0.999284)
(1.00219 0.00169167 1.07134e-10 -0.00215704 0.999336 -4.26177e-11 -1.87295e-12 3.77072e-11 0.999285)
(1.00205 0.00180001 -1.58233e-10 -0.00230069 0.999374 3.14051e-11 -1.08377e-12 -6.60752e-11 0.999291)
(1.00274 7.07058e-05 3.16105e-12 -8.3716e-05 0.999279 -6.71131e-11 -4.66146e-14 -2.4494e-11 0.999279)
(1.00275 0.000170608 1.18091e-11 -0.0002124 0.999254 -4.35267e-12 -1.08117e-13 1.7637e-11 0.999253)
(1.00274 0.000281468 9.46003e-12 -0.000347531 0.999255 -2.73074e-11 -2.01643e-13 -1.62732e-11 0.999254)
(1.00272 0.000389905 -5.95989e-12 -0.00048588 0.999254 6.75551e-12 -2.03716e-13 -1.2484e-10 0.999254)
(1.0027 0.000507323 -1.94331e-11 -0.000628638 0.999256 4.09954e-11 -3.07943e-13 4.84314e-11 0.999254)
(1.00268 0.000619337 7.69543e-12 -0.000773852 0.999257 -1.21915e-11 -6.28028e-13 2.38707e-10 0.999255)
(1.00265 0.000743035 3.923e-11 -0.000925422 0.99926 -4.69988e-11 -6.22042e-13 3.58585e-11 0.999255)
(1.00262 0.000859275 1.112e-11 -0.00107894 0.99926 -1.82034e-11 -3.33025e-13 -2.41595e-10 0.999256)
(1.00258 0.000989644 -1.31604e-11 -0.0012414 0.999265 2.60225e-11 -4.49426e-13 -4.73667e-11 0.999256)
(1.00254 0.00110973 1.37136e-11 -0.00140404 0.999267 -6.28138e-12 -1.16146e-12 2.39207e-10 0.999258)
(1.00248 0.00124682 1.83514e-11 -0.0015788 0.999275 -3.15833e-11 -1.03406e-12 -4.29411e-11 0.999258)
(1.00242 0.00137038 -7.62079e-12 -0.00175041 0.999282 4.78953e-12 -4.13213e-13 -2.51841e-10 0.999261)
(1.00235 0.00151617 1.38253e-11 -0.00193797 0.999297 1.56497e-11 -9.12386e-13 4.36331e-11 0.999262)
(1.00227 0.00164881 -4.15639e-11 -0.00211737 0.999314 1.27447e-11 -1.77242e-12 2.34317e-10 0.999267)
(1.00217 0.00180625 1.0676e-10 -0.00230574 0.999345 -4.21345e-11 -1.87908e-12 3.85059e-11 0.99927)
(1.00205 0.00193631 -1.5793e-10 -0.00244644 0.999382 3.15971e-11 -1.0777e-12 -6.76728e-11 0.999277)
(1.00275 7.38173e-05 3.25888e-12 -9.09904e-05 0.999253 -6.94035e-11 -4.64951e-14 -2.53476e-11 0.999254)
(1.00275 0.000178181 1.23221e-11 -0.000228944 0.999234 -4.43442e-12 -1.08483e-13 1.80964e-11 0.999234)
(1.00273 0.000293983 9.81775e-12 -0.000374463 0.999236 -2.8012e-11 -2.01452e-13 -1.67108e-11 0.999234)
(1.00272 0.000407123 -6.28527e-12 -0.000523319 0.999236 6.9172e-12 -2.00142e-13 -1.27996e-10 0.999235)
(1.0027 0.000529758 -2.03284e-11 -0.000676599 0.999239 4.2024e-11 -3.10206e-13 4.96369e-11 0.999235)
(1.00268 0.000646648 8.10092e-12 -0.000832294 0.99924 -1.24572e-11 -6.39897e-13 2.44658e-10 0.999236)
(1.00265 0.000775889 4.08014e-11 -0.000994265 0.999245 -4.80633e-11 -6.24524e-13 3.67093e-11 0.999237)
(1.00261 0.000897496 1.16593e-11 -0.00115801 0.999248 -1.86898e-11 -3.18364e-13 -2.47404e-10 0.999239)
(1.00257 0.0010342 -1.34443e-11 -0.00133043 0.999254 2.66751e-11 -4.47393e-13 -4.82918e-11 0.999239)
(1.00252 0.00116084 1.40522e-11 -0.00150255 0.99926 -6.37325e-12 -1.17985e-12 2.44354e-10 0.999242)
(1.00247 0.00130605 1.8902e-11 -0.00168597 0.999271 -3.21422e-11 -1.03134e-12 -4.39679e-11 0.999243)
(1.00241 0.00143865 -7.42245e-12 -0.00186504 0.999282 5.16224e-12 -3.95074e-13 -2.56382e-10 0.999247)
(1.00233 0.00159583 1.38751e-11 -0.00205807 0.999301 1.57365e-11 -9.16911e-13 4.43525e-11 0.99925)
(1.00225 0.00174115 -4.12252e-11 -0.00224055 0.999322 1.27682e-11 -1.79296e-12 2.37901e-10 0.999256)
(1.00215 0.00191302 1.07252e-10 -0.00242874 0.999354 -4.1239e-11 -1.88464e-12 3.89983e-11 0.99926)
(1.00205 0.00205457 -1.57087e-10 -0.00256784 0.999387 3.17235e-11 -1.07332e-12 -6.86593e-11 0.999269)
(1.00275 7.70742e-05 3.39452e-12 -9.80802e-05 0.999234 -7.11675e-11 -4.63964e-14 -2.60068e-11 0.999234)
(1.00274 0.000186056 1.28658e-11 -0.000244699 0.99922 -4.48336e-12 -1.08824e-13 1.8427e-11 0.99922)
(1.00272 0.000307052 1.01921e-11 -0.000400064 0.999222 -2.85208e-11 -2.01307e-13 -1.70239e-11 0.99922)
(1.00271 0.000425097 -6.61638e-12 -0.000558796 0.999224 7.02248e-12 -1.97045e-13 -1.30239e-10 0.999221)
(1.00269 0.000553212 -2.12299e-11 -0.000721867 0.999227 4.27653e-11 -3.12241e-13 5.04859e-11 0.999222)
(1.00266 0.000675225 8.53059e-12 -0.000887143 0.99923 -1.26287e-11 -6.50269e-13 2.48801e-10 0.999224)
(1.00263 0.000810283 4.24165e-11 -0.00105844 0.999236 -4.87718e-11 -6.26761e-13 3.7292e-11 0.999224)
(1.0026 0.000937504 1.22326e-11 -0.00123109 0.999241 -1.90206e-11 -3.05962e-13 -2.51313e-10 0.999227)
(1.00255 0.00108073 -1.37379e-11 -0.00141186 0.99925 2.71222e-11 -4.45777e-13 -4.88992e-11 0.999228)
(1.0025 0.00121395 1.44034e-11 -0.00159155 0.999258 -6.41707e-12 -1.19541e-12 2.47647e-10 0.999232)
(1.00245 0.00136699 1.95871e-11 -0.00178142 0.999272 -3.2376e-11 -1.0294e-12 -4.46022e-11 0.999234)
(1.00238 0.00150771 -7.31501e-12 -0.00196561 0.999286 5.42085e-12 -3.80495e-13 -2.59088e-10 0.999239)
(1.00231 0.00167436 1.36329e-11 -0.00216176 0.999307 1.55425e-11 -9.20733e-13 4.47613e-11 0.999243)
(1.00223 0.00182894 -4.08924e-11 -0.00234558 0.999329 1.27959e-11 -1.80971e-12 2.3986e-10 0.999249)
(1.00214 0.00201001 1.08293e-10 -0.00253275 0.99936 -4.02158e-11 -1.88968e-12 3.92546e-11 0.999255)
(1.00205 0.00215743 -1.56099e-10 -0.00267118 0.99939 3.18167e-11 -1.07019e-12 -6.91845e-11 0.999264)
(1.00274 8.04841e-05 3.55999e-12 -0.000104833 0.99922 -7.24272e-11 -4.63159e-14 -2.64797e-11 0.99922)
(1.00272 0.000194257 1.34281e-11 -0.000259468 0.999212 -4.50488e-12 -1.09136e-13 1.86426e-11 0.999211)
(1.00271 0.000320701 1.05629e-11 -0.00042402 0.999214 -2.88525e-11 -2.01203e-13 -1.7226e-11 0.999211)
(1.00269 0.000443857 -6.95809e-12 -0.000591895 0.999216 7.08016e-12 -1.94414e-13 -1.31674e-10 0.999213)
(1.00267 0.000577681 -2.21593e-11 -0.000763934 0.999221 4.32428e-11 -3.14037e-13 5.1021e-11 0.999213)
(1.00264 0.000705018 8.97515e-12 -0.000937843 0.999225 -1.27218e-11 -6.59166e-13 2.51367e-10 0.999216)
(1.00261 0.000846061 4.40991e-11 -0.00111739 0.999232 -4.91674e-11 -6.28745e-13 3.76436e-11 0.999217)
(1.00257 0.000978998 1.28438e-11 -0.00129768 0.999239 -1.9221e-11 -2.95698e-13 -2.53606e-10 0.99922)
(1.00253 0.00112871 -1.40983e-11 -0.0014854 0.999249 2.73642e-11 -4.44536e-13 -4.92407e-11 0.999222)
(1.00248 0.00126826 1.47677e-11 -0.00167112 0.99926 -6.42636e-12 -1.20833e-12 2.49417e-10 0.999226)
(1.00242 0.00142853 2.04526e-11 -0.00186583 0.999276 -3.23511e-11 -1.02812e-12 -4.49207e-11 0.99923)
(1.00236 0.0015762 -7.29378e-12 -0.00205357 0.999292 5.58668e-12 -3.6904e-13 -2.60351e-10 0.999235)
(1.00229 0.00175042 1.31326e-11 -0.00225152 0.999314 1.51942e-11 -9.23939e-13 4.49312e-11 0.99924)
(1.00221 0.00191143 -4.05771e-11 -0.00243595 0.999336 1.28236e-11 -1.82324e-12 2.40589e-10 0.999247)
(1.00213 0.00209812 1.09617e-10 -0.00262209 0.999364 -3.92597e-11 -1.89426e-12 3.93341e-11 0.999253)
(1.00204 0.00224802 -1.55065e-10 -0.00276075 0.999391 3.18762e-11 -1.06811e-12 -6.93552e-11 0.999263)
(1.00272 8.4061e-05 3.75711e-12 -0.000111166 0.999211 -7.32367e-11 -4.62521e-14 -2.6786e-11 0.999211)
(1.0027 0.000202687 1.3995e-11 -0.000273141 0.999207 -4.50387e-12 -1.09411e-13 1.87546e-11 0.999206)
(1.00268 0.000334769 1.09517e-11 -0.00044616 0.99921 -2.90247e-11 -2.01125e-13 -1.73287e-11 0.999207)
(1.00267 0.000463158 -7.30964e-12 -0.000622404 0.999213 7.09795e-12 -1.92216e-13 -1.32387e-10 0.999208)
(1.00265 0.000602824 -2.3095e-11 -0.000802574 0.999218 4.34827e-11 -3.1558e-13 5.12782e-11 0.999209)
(1.00262 0.000735565 9.43489e-12 -0.000984202 0.999223 -1.27492e-11 -6.66635e-13 2.52547e-10 0.999212)
(1.00259 0.00088261 4.58158e-11 -0.00117099 0.999232 -4.92942e-11 -6.30457e-13 3.77942e-11 0.999214)
(1.00255 0.00102119 1.34813e-11 -0.00135786 0.99924 -1.93098e-11 -2.8735e-13 -2.54511e-10 0.999217)
(1.0025 0.00117715 -1.45178e-11 -0.00155139 0.999252 2.74226e-11 -4.43596e-13 -4.93572e-11 0.99922)
(1.00245 0.00132258 1.51357e-11 -0.00174196 0.999264 -6.41051e-12 -1.21889e-12 2.49919e-10 0.999225)
(1.0024 0.00148927 2.14624e-11 -0.0019404 0.999281 -3.21316e-11 -1.02737e-12 -4.49806e-11 0.999229)
(1.00233 0.0016427 -7.34929e-12 -0.00213075 0.999298 5.6817e-12 -3.60181e-13 -2.6045e-10 0.999235)
(1.00227 0.00182279 1.24526e-11 -0.00232984 0.99932 1.4765e-11 -9.26605e-13 4.49114e-11 0.99924)
(1.00219 0.00198807 -4.02797e-11 -0.00251463 0.999342 1.28497e-11 -1.83409e-12 2.40351e-10 0.999248)
(1.00212 0.00217793 1.11068e-10 -0.00269998 0.999368 -3.84036e-11 -1.89842e-12 3.9275e-11 0.999255)
(1.00204 0.00232838 -1.54057e-10 -0.0028394 0.999392 3.19168e-11 -1.06684e-12 -6.92502e-11 0.999264)
(1.0027 8.77677e-05 3.9176e-12 -0.000117031 0.999206 -7.36409e-11 -4.62011e-14 -2.69426e-11 0.999206)
(1.00267 0.000211298 1.45586e-11 -0.000285687 0.999206 -4.48542e-12 -1.09647e-13 1.87801e-11 0.999205)
(1.00266 0.000349157 1.13467e-11 -0.000466445 0.999209 -2.90622e-11 -2.01067e-13 -1.73484e-11 0.999206)
(1.00264 0.000482862 -7.66224e-12 -0.000650293 0.999213 7.08427e-12 -1.90416e-13 -1.32503e-10 0.999208)
(1.00262 0.000628432 -2.40431e-11 -0.000837789 0.999219 4.35206e-11 -3.16878e-13 5.1306e-11 0.999209)
(1.00259 0.000766585 9.90155e-12 -0.00102629 0.999225 -1.27254e-11 -6.72775e-13 2.52594e-10 0.999212)
(1.00256 0.000919553 4.75698e-11 -0.00121944 0.999234 -4.92024e-11 -6.31908e-13 3.77823e-11 0.999214)
(1.00252 0.00106359 1.41423e-11 -0.00141197 0.999244 -1.93119e-11 -2.80726e-13 -2.54306e-10 0.999218)
(1.00247 0.00122545 -1.502e-11 -0.00161039 0.999257 2.7328e-11 -4.42913e-13 -4.92959e-11 0.999221)
(1.00242 0.00137622 1.55043e-11 -0.00180497 0.99927 -6.37769e-12 -1.22735e-12 2.49431e-10 0.999226)
(1.00237 0.00154853 2.26046e-11 -0.00200638 0.999288 -3.17784e-11 -1.02706e-12 -4.48417e-11 0.999231)
(1.00231 0.00170661 -7.46058e-12 -0.00219875 0.999305 5.72705e-12 -3.53548e-13 -2.59668e-10 0.999237)
(1.00224 0.00189113 1.16423e-11 -0.00239867 0.999327 1.43075e-11 -9.28797e-13 4.47496e-11 0.999243)
(1.00218 0.00205906 -3.99993e-11 -0.00258381 0.999347 1.28741e-11 -1.84266e-12 2.39392e-10 0.999251)
(1.00211 0.00225046 1.12552e-10 -0.00276868 0.999371 -3.76597e-11 -1.90221e-12 3.91127e-11 0.999258)
(1.00204 0.0024003 -1.53094e-10 -0.00290926 0.999392 3.19443e-11 -1.06628e-12 -6.89382e-11 0.999267)
(1.00267 9.15798e-05 4.07366e-12 -0.000122413 0.999205 -7.37069e-11 -4.61609e-14 -2.69738e-11 0.999205)
(1.00264 0.000219965 1.51404e-11 -0.000297142 0.999209 -4.45341e-12 -1.09841e-13 1.87313e-11 0.999207)
(1.00262 0.000363658 1.17206e-11 -0.000484945 0.999212 -2.89842e-11 -2.01017e-13 -1.72974e-11 0.999208)
(1.00261 0.00050267 -8.01658e-12 -0.000675679 0.999216 7.04534e-12 -1.88966e-13 -1.32109e-10 0.99921)
(1.00259 0.000654114 -2.4987e-11 -0.000869766 0.999222 4.33864e-11 -3.17933e-13 5.11397e-11 0.999212)
(1.00256 0.000797588 1.03665e-11 -0.00106439 0.999229 -1.26602e-11 -6.77695e-13 2.5169e-10 0.999215)
(1.00252 0.000956301 4.9328e-11 -0.00126315 0.999239 -4.89323e-11 -6.331e-13 3.76348e-11 0.999217)
(1.00249 0.00110554 1.48144e-11 -0.0014606 0.999249 -1.92437e-11 -2.7559e-13 -2.53184e-10 0.999221)
(1.00244 0.00127287 -1.55803e-11 -0.00166324 0.999263 2.71096e-11 -4.42423e-13 -4.90895e-11 0.999225)
(1.00239 0.00142842 1.58673e-11 -0.00186119 0.999277 -6.33293e-12 -1.23398e-12 2.48144e-10 0.99923)
(1.00234 0.00160556 2.38261e-11 -0.00206507 0.999295 -3.13337e-11 -1.02709e-12 -4.4544e-11 0.999235)
(1.00228 0.00176736 -7.61719e-12 -0.00225914 0.999312 5.73771e-12 -3.48743e-13 -2.58187e-10 0.999242)
(1.00222 0.00195521 1.07627e-11 -0.00245978 0.999333 1.38466e-11 -9.30572e-13 4.44759e-11 0.999248)
(1.00216 0.00212465 -3.97399e-11 -0.00264533 0.999352 1.28969e-11 -1.84932e-12 2.37867e-10 0.999256)
(1.0021 0.00231654 1.14006e-10 -0.00283 0.999374 -3.70135e-11 -1.90567e-12 3.88688e-11 0.999263)
(1.00203 0.00246517 -1.52193e-10 -0.00297198 0.999392 3.19644e-11 -1.06626e-12 -6.8463e-11 0.999271)
(1.00264 9.54426e-05 4.23867e-12 -0.000127328 0.999207 -7.34827e-11 -4.6128e-14 -2.68977e-11 0.999207)
(1.0026 0.000228618 1.57116e-11 -0.000307569 0.999213 -4.41157e-12 -1.09995e-13 1.86239e-11 0.999212)
(1.00259 0.00037814 1.21035e-11 -0.000501768 0.999217 -2.88141e-11 -2.00972e-13 -1.71904e-11 0.999213)
(1.00257 0.000522408 -8.36549e-12 -0.000698731 0.999221 6.98752e-12 -1.87827e-13 -1.31315e-10 0.999215)
(1.00255 0.000679635 -2.59265e-11 -0.000898751 0.999228 4.31143e-11 -3.18764e-13 5.08219e-11 0.999217)
(1.00252 0.000828292 1.08297e-11 -0.00109884 0.999235 -1.25646e-11 -6.81523e-13 2.50047e-10 0.99922)
(1.00249 0.000992518 5.10823e-11 -0.00130258 0.999246 -4.85256e-11 -6.34054e-13 3.73831e-11 0.999222)
(1.00245 0.00114665 1.54878e-11 -0.00150436 0.999256 -1.91241e-11 -2.71742e-13 -2.51365e-10 0.999227)
(1.00241 0.00131902 -1.61967e-11 -0.00171066 0.99927 2.67971e-11 -4.42088e-13 -4.87738e-11 0.999231)
(1.00236 0.0014788 1.62185e-11 -0.00191154 0.999284 -6.28058e-12 -1.23901e-12 2.46263e-10 0.999236)
(1.00231 0.0016601 2.51057e-11 -0.00211757 0.999302 -3.08332e-11 -1.02739e-12 -4.41292e-11 0.999241)
(1.00226 0.00182485 -7.79989e-12 -0.00231314 0.999319 5.72603e-12 -3.4547e-13 -2.56196e-10 0.999248)
(1.0022 0.00201516 9.84322e-12 -0.00251447 0.999338 1.33987e-11 -9.31981e-13 4.4121e-11 0.999254)
(1.00214 0.00218529 -3.94985e-11 -0.00270054 0.999357 1.29186e-11 -1.85437e-12 2.3593e-10 0.999262)
(1.00208 0.00237702 1.15403e-10 -0.00288523 0.999376 -3.64517e-11 -1.90884e-12 3.85657e-11 0.999268)
(1.00202 0.00252413 -1.51353e-10 -0.00302881 0.999393 3.19807e-11 -1.06667e-12 -6.78684e-11 0.999277)
(1.00261 9.93194e-05 4.42631e-12 -0.000131803 0.999212 -7.30296e-11 -4.61013e-14 -2.67366e-11 0.999212)
(1.00257 0.000237143 1.62746e-11 -0.000317071 0.99922 -4.36241e-12 -1.10112e-13 1.84677e-11 0.999219)
(1.00255 0.000392418 1.24785e-11 -0.000517086 0.999224 -2.85679e-11 -2.00928e-13 -1.70374e-11 0.99922)
(1.00254 0.000541822 -8.70666e-12 -0.0007197 0.999228 6.91502e-12 -1.86959e-13 -1.30193e-10 0.999222)
(1.00251 0.000704675 -2.68516e-11 -0.00092508 0.999235 4.27293e-11 -3.19389e-13 5.03802e-11 0.999224)
(1.00249 0.000858317 1.12867e-11 -0.00113009 0.999243 -1.24449e-11 -6.84375e-13 2.47805e-10 0.999227)
(1.00246 0.00102778 5.28036e-11 -0.00133829 0.999253 -4.80112e-11 -6.34782e-13 3.70474e-11 0.99923)
(1.00242 0.00118648 1.6156e-11 -0.00154393 0.999264 -1.89645e-11 -2.68998e-13 -2.48986e-10 0.999234)
(1.00238 0.00136346 -1.68452e-11 -0.00175349 0.999278 2.64126e-11 -4.41863e-13 -4.8371e-11 0.999238)
(1.00233 0.001527 1.6558e-11 -0.00195697 0.999292 -6.223e-12 -1.24264e-12 2.43911e-10 0.999244)
(1.00228 0.00171186 2.64002e-11 -0.00216493 0.999309 -3.02975e-11 -1.02788e-12 -4.36225e-11 0.999249)
(1.00223 0.00187895 -7.99896e-12 -0.0023619 0.999325 5.69971e-12 -3.43471e-13 -2.53805e-10 0.999255)
(1.00218 0.0020711 8.9212e-12 -0.00256394 0.999344 1.29685e-11 -9.33048e-13 4.37025e-11 0.999261)
(1.00212 0.00224141 -3.92737e-11 -0.00275061 0.999361 1.29395e-11 -1.85801e-12 2.3367e-10 0.999269)
(1.00207 0.00243261 1.1672e-10 -0.0029355 0.999379 -3.59579e-11 -1.91173e-12 3.82155e-11 0.999275)
(1.00201 0.00257814 -1.50574e-10 -0.00308078 0.999394 3.19956e-11 -1.06745e-12 -6.71791e-11 0.999283)
(1.00257 0.000103159 4.58849e-12 -0.000135881 0.999219 -7.23872e-11 -4.6079e-14 -2.65054e-11 0.999219)
(1.00253 0.00024548 1.68255e-11 -0.00032574 0.999228 -4.30833e-12 -1.10197e-13 1.82751e-11 0.999227)
(1.00251 0.000406383 1.28423e-11 -0.000531056 0.999232 -2.82641e-11 -2.00889e-13 -1.68499e-11 0.999228)
(1.0025 0.000560769 -9.03891e-12 -0.000738809 0.999237 6.83208e-12 -1.86333e-13 -1.28826e-10 0.99923)
(1.00248 0.000729053 -2.77446e-11 -0.000949056 0.999244 4.22584e-11 -3.19839e-13 4.98464e-11 0.999232)
(1.00245 0.000887464 1.17271e-11 -0.00115852 0.999251 -1.23084e-11 -6.86389e-13 2.45122e-10 0.999235)
(1.00242 0.00106188 5.44851e-11 -0.00137075 0.999262 -4.74184e-11 -6.35322e-13 3.66502e-11 0.999238)
(1.00239 0.00122483 1.68079e-11 -0.00157986 0.999273 -1.87773e-11 -2.67195e-13 -2.46203e-10 0.999242)
(1.00235 0.00140601 -1.75111e-11 -0.00179236 0.999286 2.59766e-11 -4.41728e-13 -4.7906e-11 0.999246)
(1.0023 0.00157288 1.6884e-11 -0.0019982 0.9993 -6.1624e-12 -1.2451e-12 2.41226e-10 0.999252)
(1.00226 0.00176082 2.76926e-11 -0.00220795 0.999316 -2.97441e-11 -1.02853e-12 -4.30512e-11 0.999257)
(1.00221 0.00192978 -8.20811e-12 -0.00240624 0.999332 5.66497e-12 -3.4252e-13 -2.51135e-10 0.999263)
(1.00216 0.00212331 8.01474e-12 -0.00260903 0.999349 1.25594e-11 -9.33813e-13 4.32398e-11 0.999269)
(1.0021 0.00229344 -3.90638e-11 -0.00279638 0.999365 1.29601e-11 -1.86046e-12 2.31185e-10 0.999276)
(1.00205 0.00248393 1.17954e-10 -0.00298161 0.999381 -3.552e-11 -1.91437e-12 3.78324e-11 0.999283)
(1.002 0.00262792 -1.49855e-10 -0.00312868 0.999395 3.20108e-11 -1.06852e-12 -6.6423e-11 0.99929)
(1.00253 0.00010693 4.80126e-12 -0.000139602 0.999227 -7.16033e-11 -4.60622e-14 -2.62216e-11 0.999227)
(1.00249 0.000253546 1.73608e-11 -0.000333691 0.999238 -4.25074e-12 -1.10263e-13 1.80529e-11 0.999236)
(1.00248 0.000419901 1.31848e-11 -0.000543865 0.999242 -2.7914e-11 -2.00867e-13 -1.66347e-11 0.999238)
(1.00246 0.000579073 -9.3561e-12 -0.000756324 0.999246 6.74115e-12 -1.85937e-13 -1.27262e-10 0.999239)
(1.00244 0.000752556 -2.86127e-11 -0.000971021 0.999253 4.17189e-11 -3.2015e-13 4.92392e-11 0.999241)
(1.00242 0.000915493 1.21517e-11 -0.00118455 0.999261 -1.2159e-11 -6.87677e-13 2.42087e-10 0.999244)
(1.00239 0.00109455 5.6106e-11 -0.00140046 0.999271 -4.6765e-11 -6.35709e-13 3.62044e-11 0.999247)
(1.00235 0.00126145 1.74414e-11 -0.00161274 0.999282 -1.85693e-11 -2.66231e-13 -2.43101e-10 0.999252)
(1.00231 0.00144647 -1.81821e-11 -0.00182795 0.999295 2.55024e-11 -4.41679e-13 -4.73922e-11 0.999256)
(1.00227 0.00161632 1.71905e-11 -0.00203597 0.999308 -6.09973e-12 -1.24652e-12 2.3828e-10 0.999261)
(1.00223 0.00180693 2.8955e-11 -0.00224739 0.999323 -2.91811e-11 -1.02931e-12 -4.24294e-11 0.999266)
(1.00218 0.00197743 -8.41416e-12 -0.00244699 0.999338 5.62533e-12 -3.42474e-13 -2.48247e-10 0.999272)
(1.00213 0.00217203 7.13768e-12 -0.00265055 0.999354 1.21697e-11 -9.34305e-13 4.27425e-11 0.999278)
(1.00209 0.00234181 -3.88698e-11 -0.00283864 0.999369 1.29805e-11 -1.86186e-12 2.28521e-10 0.999285)
(1.00204 0.00253155 1.19098e-10 -0.00302431 0.999384 -3.51259e-11 -1.91678e-12 3.74229e-11 0.999291)
(1.00199 0.00267416 -1.49191e-10 -0.00317321 0.999396 3.20274e-11 -1.06983e-12 -6.56132e-11 0.999298)
(1.00249 0.000110593 4.92638e-12 -0.000143015 0.999237 -7.07054e-11 -4.60535e-14 -2.58954e-11 0.999237)
(1.00245 0.000261299 1.78661e-11 -0.000341015 0.999248 -4.19105e-12 -1.10326e-13 1.78097e-11 0.999247)
(1.00244 0.000432898 1.35224e-11 -0.000555663 0.999252 -2.75304e-11 -2.00884e-13 -1.63997e-11 0.999248)
(1.00242 0.000596641 -9.66067e-12 -0.000772451 0.999256 6.64482e-12 -1.85773e-13 -1.25559e-10 0.99925)
(1.0024 0.000775074 -2.94369e-11 -0.000991245 0.999263 4.11296e-11 -3.20379e-13 4.85801e-11 0.999252)
(1.00238 0.000942292 1.25611e-11 -0.00120852 0.999271 -1.20011e-11 -6.88389e-13 2.38807e-10 0.999255)
(1.00235 0.00112571 5.76583e-11 -0.00142781 0.99928 -4.60695e-11 -6.36015e-13 3.57248e-11 0.999258)
(1.00232 0.00129627 1.80506e-11 -0.00164302 0.999291 -1.83482e-11 -2.66026e-13 -2.39781e-10 0.999262)
(1.00228 0.0014848 -1.88468e-11 -0.00186074 0.999303 2.50021e-11 -4.41747e-13 -4.68454e-11 0.999266)
(1.00224 0.00165731 1.74839e-11 -0.00207081 0.999316 -6.03612e-12 -1.24711e-12 2.35159e-10 0.999271)
(1.0022 0.0018503 3.018e-11 -0.00228383 0.99933 -2.86161e-11 -1.03023e-12 -4.17743e-11 0.999275)
(1.00216 0.00202208 -8.61609e-12 -0.00248469 0.999344 5.5837e-12 -3.43202e-13 -2.45216e-10 0.999281)
(1.00211 0.00221755 6.3003e-12 -0.00268905 0.999359 1.17985e-11 -9.34583e-13 4.22225e-11 0.999287)
(1.00207 0.00238688 -3.86883e-11 -0.00287793 0.999373 1.30009e-11 -1.8624e-12 2.2574e-10 0.999293)
(1.00202 0.0025759 1.20155e-10 -0.0030641 0.999387 -3.47674e-11 -1.919e-12 3.69958e-11 0.999299)
(1.00198 0.00271732 -1.48579e-10 -0.00321485 0.999398 3.20459e-11 -1.07135e-12 -6.47675e-11 0.999306)
(1.00245 0.000114127 5.11287e-12 -0.000146159 0.999247 -6.97266e-11 -4.60583e-14 -2.5539e-11 0.999247)
(1.00241 0.000268685 1.83529e-11 -0.000347813 0.999259 -4.12998e-12 -1.1041e-13 1.75494e-11 0.999258)
(1.0024 0.000445291 1.38405e-11 -0.000566612 0.999263 -2.71201e-11 -2.00973e-13 -1.61487e-11 0.999259)
(1.00238 0.000613367 -9.94437e-12 -0.000787419 0.999267 6.54426e-12 -1.85867e-13 -1.23745e-10 0.999261)
(1.00236 0.000796482 -3.02232e-11 -0.00101002 0.999274 4.05004e-11 -3.20597e-13 4.78797e-11 0.999263)
(1.00234 0.000967729 1.29461e-11 -0.00123076 0.999281 -1.18366e-11 -6.88654e-13 2.35331e-10 0.999266)
(1.00231 0.00115521 5.91338e-11 -0.00145322 0.99929 -4.53414e-11 -6.3633e-13 3.52185e-11 0.999268)
(1.00228 0.00132917 1.86309e-11 -0.00167115 0.9993 -1.81172e-11 -2.6659e-13 -2.36288e-10 0.999272)
(1.00225 0.00152093 -1.94878e-11 -0.00189123 0.999312 2.44823e-11 -4.42009e-13 -4.62723e-11 0.999276)
(1.00221 0.00169587 1.77571e-11 -0.00210324 0.999324 -5.97184e-12 -1.24704e-12 2.319e-10 0.999281)
(1.00217 0.001891 3.1349e-11 -0.00231779 0.999337 -2.80507e-11 -1.03136e-12 -4.10927e-11 0.999285)
(1.00213 0.00206389 -8.80641e-12 -0.0025199 0.99935 5.54156e-12 -3.44702e-13 -2.42071e-10 0.999291)
(1.00209 0.00226012 5.50847e-12 -0.00272508 0.999364 1.14426e-11 -9.34723e-13 4.16841e-11 0.999296)
(1.00205 0.002429 -3.8517e-11 -0.00291477 0.999377 1.30216e-11 -1.86219e-12 2.22864e-10 0.999302)
(1.002 0.00261742 1.21128e-10 -0.00310149 0.99939 -3.44366e-11 -1.92109e-12 3.65541e-11 0.999308)
(1.00196 0.0027579 -1.48018e-10 -0.00325411 0.999401 3.20666e-11 -1.0731e-12 -6.38917e-11 0.999314)
(1.00241 0.000117507 5.25886e-12 -0.000149077 0.999258 -6.86831e-11 -4.60851e-14 -2.51582e-11 0.999258)
(1.00237 0.000275679 1.87989e-11 -0.000354159 0.999271 -4.06835e-12 -1.10543e-13 1.72774e-11 0.99927)
(1.00236 0.000457036 1.41317e-11 -0.000576834 0.999274 -2.66912e-11 -2.01178e-13 -1.58866e-11 0.999271)
(1.00234 0.000629198 -1.02199e-11 -0.000801395 0.999278 6.44083e-12 -1.86259e-13 -1.21853e-10 0.999272)
(1.00233 0.000816723 -3.09553e-11 -0.00102755 0.999284 3.98426e-11 -3.20897e-13 4.7151e-11 0.999274)
(1.00231 0.000991755 1.33088e-11 -0.00125154 0.999291 -1.16681e-11 -6.88645e-13 2.31723e-10 0.999277)
(1.00228 0.00118302 6.05243e-11 -0.00147696 0.9993 -4.4591e-11 -6.36784e-13 3.46943e-11 0.999279)
(1.00225 0.00136016 1.91793e-11 -0.00169747 0.999309 -1.78807e-11 -2.67961e-13 -2.32682e-10 0.999283)
(1.00222 0.00155488 -2.01057e-11 -0.00191977 0.99932 2.39489e-11 -4.42594e-13 -4.56823e-11 0.999287)
(1.00218 0.00173206 1.80163e-11 -0.00213363 0.999331 -5.90748e-12 -1.24658e-12 2.28553e-10 0.999291)
(1.00215 0.00192913 3.24596e-11 -0.00234967 0.999344 -2.74876e-11 -1.03281e-12 -4.03944e-11 0.999296)
(1.00211 0.00210304 -8.98636e-12 -0.002553 0.999356 5.50017e-12 -3.47006e-13 -2.38854e-10 0.999301)
(1.00207 0.00229998 4.76376e-12 -0.00275901 0.99937 1.10999e-11 -9.34877e-13 4.11342e-11 0.999306)
(1.00203 0.00246845 -3.83584e-11 -0.00294953 0.999382 1.30424e-11 -1.86147e-12 2.19926e-10 0.999312)
(1.00199 0.00265642 1.22019e-10 -0.00313682 0.999393 -3.41283e-11 -1.92316e-12 3.6103e-11 0.999317)
(1.00195 0.0027962 -1.47499e-10 -0.00329129 0.999403 3.20894e-11 -1.07515e-12 -6.29964e-11 0.999323)