/*--------------------------------*- C++ -*----------------------------------*\
  =========                 |
  \\      /  F ield         | OpenFOAM: The Open Source CFD Toolbox
   \\    /   O peration     | Website:  https://openfoam.org
    \\  /    A nd           | Version:  8
     \\/     M anipulation  |
\*---------------------------------------------------------------------------*/
FoamFile
{
    version     2.0;
    format      ascii;
    class       surfaceVectorField;
    location    "0.0765000";
    object      Uf_0;
}
// * * * * * * * * * * * * * * * * * * * * * * * * * * * * * * * * * * * * * //

dimensions      [0 1 -1 0 0 0 0];

internalField   nonuniform List<vector> 
1094
(
(0.590924180038433 0.000542876577155444 -1.2084747955475e-18)
(0.360540398763266 0.00179626961077046 4.31539643110606e-19)
(0.591115216473531 0.000390462226214238 4.28411011342717e-18)
(0.36235923207226 0.00191178089574983 -2.1417106433232e-18)
(0.591186031232088 0.000384092172136542 1.96476437288105e-18)
(0.362372774160834 0.00201475415336754 8.7663864540744e-18)
(0.591062068736065 0.000417629175811938 -5.42168377079839e-18)
(0.362213958667693 0.00216158574397078 6.18914203936236e-18)
(0.59082513703921 0.000435259532167762 -3.991985421232e-18)
(0.361813539718685 0.00224743739556764 3.0670392763338e-19)
(0.590538855478585 0.000444698817940275 -1.60268264430601e-17)
(0.361286673528474 0.00228914578623317 -3.3849424087895e-18)
(0.590232671402753 0.000451410851773948 -7.41724915993097e-18)
(0.360710224418414 0.0023109174556418 -2.07309617699313e-17)
(0.58991770096147 0.000457205233174871 1.45948633473019e-17)
(0.360112831721888 0.0023260117343737 3.25339466317724e-17)
(0.589596240676298 0.000462337621536096 1.7172448250069e-17)
(0.359502376088351 0.00233893491078598 3.19655027443174e-17)
(0.589267101068302 0.000467004743550468 2.02578222088204e-17)
(0.358879435500254 0.00235075213075284 3.45096172429192e-17)
(0.588929725859031 0.000471630800291803 4.15519507908973e-17)
(0.358242686338742 0.00236243805167626 4.35916902913009e-17)
(0.588583686789187 0.000476451519969855 6.9246625450669e-18)
(0.357591387703215 0.00237444273586534 5.04642794461429e-17)
(0.588229893891587 0.000481086302484485 -2.72860332865631e-17)
(0.356925451678878 0.00238705216136099 -3.71624517158131e-17)
(0.587866335874629 0.000485260188231296 1.66945711343545e-17)
(0.356243981779467 0.00239888510652918 -1.40767118467054e-17)
(0.587492609452383 0.000489335243508085 1.24781000675245e-17)
(0.35554543997367 0.00241052396594016 1.13796072537706e-17)
(0.587108209599814 0.000493649362307965 1.87911312738087e-17)
(0.354829009444758 0.00242243694775469 -5.33646442456342e-17)
(0.586713687205572 0.000498045222153266 4.4075439877816e-17)
(0.354094422774437 0.00243509706664393 3.55957290532443e-17)
(0.586308139902403 0.000502179223864624 2.53989359961229e-17)
(0.353341139512926 0.00244765945043383 6.40020409485017e-17)
(0.585890549928421 0.000506134804387818 -1.16342297801339e-17)
(0.352567873591967 0.00245998446844079 3.45934042326159e-17)
(0.585460475497009 0.000510262282720976 -1.35924874758273e-17)
(0.35177326483797 0.00247251107510602 -1.35712157876849e-17)
(0.58501783883671 0.000514790357767414 2.53966032763971e-17)
(0.350956903360725 0.00248578296490576 2.99682134576274e-17)
(0.584562905402437 0.000519342962070841 6.38134102119126e-17)
(0.350118383005253 0.00250000180476002 7.43277739456608e-17)
(0.584093794750262 0.000523673155746678 3.18434020297662e-17)
(0.349256404332068 0.00251388133238919 1.15040245750844e-16)
(0.583610043872158 0.000528200394148781 -1.05745038273658e-17)
(0.348369369245431 0.00252804784945137 3.70557488438541e-18)
(0.583111012189617 0.000533397984035186 4.66933396222649e-17)
(0.347456229468993 0.00254309779001849 4.73567691994654e-18)
(0.582597896220419 0.000538939903397927 4.32447750536873e-17)
(0.346516823130179 0.00255988645205276 5.36295549688167e-17)
(0.582068956356899 0.000544320539913226 9.39822797926171e-18)
(0.345550306650257 0.00257666508592493 -2.20491416156868e-17)
(0.581523141305969 0.000549855885119323 -2.15144559632718e-17)
(0.34455479326922 0.00259369538549888 5.06721609977832e-17)
(0.580959541142543 0.000556204136324056 -8.78919108208783e-17)
(0.343528555953729 0.00261172160155771 -1.30555599271271e-16)
(0.580378857907947 0.00056357129431117 -9.74575826468011e-17)
(0.342471122912717 0.0026319404112842 -2.29010048757604e-16)
(0.579781500898552 0.000571278159362288 2.42631075041354e-17)
(0.341382439521383 0.00265394098624694 -1.81655078918516e-16)
(0.579165105097597 0.000579098981988935 8.45164438170101e-17)
(0.340261091281536 0.00267609958814286 1.54198067688321e-16)
(0.578528893593453 0.00058793006595326 5.00174839296687e-17)
(0.33910439019585 0.00269949149929325 5.76558766483846e-17)
(0.577872267808205 0.000599199636906574 9.90155971781079e-17)
(0.337911753501113 0.00272561196225447 1.14419467974253e-16)
(0.577200043817721 0.000611862024258448 1.77149295169843e-16)
(0.336684682558607 0.00275759247355857 2.69256786579987e-16)
(0.576507690154663 0.000624607413529083 1.20776178462453e-16)
(0.335422757043484 0.00278916752790473 2.14571131846686e-16)
(0.575795017200169 0.00063885565364465 -3.62459281115421e-18)
(0.334123241154196 0.00282264624131611 3.44118823033516e-17)
(0.575061396224003 0.000657001948512187 -7.28378069827106e-17)
(0.332785185509862 0.00286011893415936 -5.9376664005718e-17)
(0.574312990869477 0.000678945307842402 -1.00931150652173e-16)
(0.331412134634854 0.00290686988058476 -2.36504781552251e-16)
(0.573549140534218 0.000702181262435968 -6.062774339708e-17)
(0.330006417713258 0.00295758894784494 -6.62247669819665e-17)
(0.572767879541911 0.000726941097463138 -5.65577834194045e-17)
(0.328567267393742 0.00300985050960288 -5.79893092013087e-17)
(0.571970228285103 0.000756789696424078 -4.15172360836314e-17)
(0.327093428640661 0.00306704273026579 -1.61223623038745e-16)
(0.571161133950916 0.000795465175076878 -3.70501105383816e-17)
(0.325591229418754 0.00313641446807566 -1.01606606501036e-16)
(0.570353059487338 0.000838749187600489 -1.04633918574744e-16)
(0.324069926636709 0.00322288806480548 -1.38392602487522e-16)
(0.569539018925908 0.000882968946014625 -1.44479934035157e-16)
(0.322534496955656 0.00330845378597576 -2.7728931745057e-16)
(0.568724357036944 0.000933465028986064 -2.33513777790465e-17)
(0.320984502218922 0.00340001686518035 -3.12991665157244e-16)
(0.567911736265762 0.00100154531734829 1.46662442283367e-17)
(0.319431526148596 0.00350653147777089 3.22310055265993e-17)
(0.567136638077211 0.00108141597909985 -3.82994320697336e-17)
(0.317899568182998 0.00365491170296224 -1.51704044973888e-16)
(0.566389342802569 0.00116210377853759 -9.97468343452593e-17)
(0.316405120456829 0.00380051890015201 -1.76373242702995e-16)
(0.565681260797063 0.00125095725177486 -1.40888630700705e-16)
(0.314959400977944 0.003953417412027 -3.94465917562518e-16)
(0.565024845042047 0.00136385245396215 -1.32142916920031e-16)
(0.31357965139175 0.00412652216014668 -1.69364674570665e-16)
(0.56446228132606 0.00150446476236028 -8.66618411312069e-17)
(0.312316815819659 0.0043557178884937 -1.96110704616602e-16)
(0.564022274446369 0.00165381786060818 1.09892299407597e-16)
(0.311212241138422 0.00461734791677289 3.98386044124725e-19)
(0.563717610526675 0.00180823468310969 1.19670605959017e-16)
(0.310313354418431 0.0048757629452784 2.93780449094292e-16)
(0.563601704256176 0.00199795011099476 -1.13129441806334e-17)
(0.309655389963673 0.00515682538743028 3.93862984317849e-17)
(0.563800671581972 0.00231700479881415 2.43094209515697e-17)
(0.30939018910676 0.00552839613543235 4.7474927920671e-17)
(0.564768423480854 0.00277151876122116 -5.58315097563644e-18)
(0.309860826892144 0.0062155842426628 5.48040462264808e-17)
(0.566778421906525 0.00331067416065081 -6.29737534004841e-17)
(0.311545249892459 0.00701573757839347 -7.85844207158612e-17)
(0.57014041205075 0.0039867626954632 -4.79377050840239e-17)
(0.314833849430355 0.00797272811398636 -4.68314902548746e-17)
(0.575020276670809 0.00497557577631998 -1.58211926419867e-16)
(0.32030960300208 0.00920082985716291 -1.42354896368254e-16)
(0.581951191950633 0.00606837034832721 -7.11054555602947e-17)
(0.328512080277217 0.0111021204430284 -2.54573138976745e-16)
(0.590693411768837 0.00696504785121331 -4.07689533535241e-17)
(0.339689673054665 0.0126264861387209 2.15234562578649e-16)
(0.601351962474934 0.00776185582265317 -8.80799768508219e-17)
(0.354023237074491 0.0138916215809147 -3.67356350980359e-16)
(0.613937014528428 0.00861597622529395 -3.47264809784466e-17)
(0.371631213268006 0.015054071481175 1.19868752748145e-16)
(0.628754776027593 0.00936240339649527 -4.03710812582493e-17)
(0.392718916391137 0.0164172421693095 -1.46121504603278e-16)
(0.645507188013359 0.00975119312164587 -1.63941548337589e-17)
(0.417178498553905 0.0171640804366859 -1.61463444479718e-17)
(0.664031451264833 0.00988833700381292 -1.21675296864738e-17)
(0.444808532652366 0.0173608022697216 -5.29804532091916e-17)
(0.684102517087095 0.00991142156369268 1.02669397180824e-17)
(0.47526441520359 0.0172502903728624 9.29718436217332e-19)
(0.705648350516646 0.00969989320362731 -5.69112770885453e-17)
(0.508174703683006 0.0170025431722422 -6.49966203581781e-17)
(0.728188326300736 0.00915257092790769 -9.18330545949509e-17)
(0.543056930543559 0.01608630420311 -1.61612094008162e-16)
(0.751450059318336 0.00841365475464869 -3.67358593815705e-19)
(0.579432699284812 0.0147536913995532 -9.85396585323044e-17)
(0.775189933997523 0.007539624573926 -7.67717003187181e-17)
(0.616737639756827 0.0131916095680225 1.13285643403198e-16)
(0.799206421985154 0.0065205783936147 2.12901396385802e-18)
(0.654575673519322 0.0114018994622265 -1.86431774425678e-16)
(0.82326249967287 0.00541234292960708 1.10250760319952e-16)
(0.692612627390012 0.00936909198001696 2.04314559154375e-16)
(0.847267312460176 0.00428473474834681 2.72414223834178e-17)
(0.730597964209899 0.00729807979636311 2.39057891761577e-17)
(0.87115525100388 0.00313809544118143 -5.40325402552561e-18)
(0.768283408542173 0.00520981705278122 8.71084588840626e-17)
(0.894808327072174 0.00203598329670403 -2.23671527731908e-17)
(0.805605678156369 0.0030812943390896 -9.91126451749308e-17)
(0.918374979837577 0.00103967342072371 4.14101094731099e-17)
(0.842579547030529 0.00115654275915703 1.68464095091068e-17)
(0.941950327311249 0.00014264320428851 1.59750306998184e-16)
(0.879333942520986 -0.000611128387145725 1.462154191549e-16)
(0.965588455811195 -0.00061622132237101 2.55813455968088e-16)
(0.916074655593052 -0.00221977713972044 4.80656554620827e-16)
(0.989442117529302 -0.00123807232981772 1.13153218719685e-16)
(0.952870318054991 -0.00356253553457121 3.2171528295677e-16)
(1.01398724050137 -0.00172018630114398 -4.57400795011771e-17)
(0.990442279301268 -0.00470287590992896 -8.38430217422481e-17)
(1.03928583988885 -0.00200219325553153 -7.49922845713333e-17)
(1.02867156193944 -0.00558251849781851 -9.9668839711005e-17)
(1.06604249071852 -0.00202196211386623 -1.0150530900862e-16)
(1.06977907757434 -0.0061574306754705 -9.32527228202637e-17)
(1.09334785887718 -0.00214072973911338 -4.72351443880911e-17)
(1.10975480869261 -0.00627317804206023 -1.07281667711464e-16)
(1.12148195284419 -0.0010905250837388 4.8515374705265e-17)
(1.15926827704007 -0.00632609002264145 1.98484095026027e-17)
(1.12148337956617 -0.000127988397935458 2.95498819555566e-17)
(1.17983776607471 -0.00104928701572391 8.18517894474024e-17)
(1.12421489747517 6.11303776914319e-05 -1.39385215313906e-17)
(1.17470445027719 -0.00077103367554463 -6.02277669020095e-17)
(1.12520143464515 0.000271980561077862 6.29364693704781e-18)
(1.17862281695293 -0.00016125187273377 3.45553829028871e-19)
(1.12633312592474 0.000434037586048662 -2.19659847742313e-17)
(1.17806478572491 9.89308475318622e-05 2.23271594513447e-17)
(1.12685205987559 0.000560595006467212 -9.98040121569754e-18)
(1.17891328710253 0.000446779586462677 -1.70217863521404e-17)
(1.12713368097613 0.000597362207635426 9.3807333340916e-18)
(1.17870853610312 0.00058964228999491 7.27531672938888e-17)
(1.12721416981249 0.000621515248946441 1.23367776716136e-17)
(1.17869828744083 0.000687832286969114 1.38654510631639e-17)
(1.12716263137127 0.00062530152466139 1.74491874462822e-17)
(1.1784405681119 0.000755825103358186 3.59646832047846e-17)
(1.12702181916424 0.000607360129787086 6.563384099534e-18)
(1.17814575555917 0.000784739287959845 -1.33094397239736e-17)
(1.12684082864654 0.000580347793168314 3.32740877623849e-17)
(1.17779744876136 0.000787084226267845 3.94869225542899e-17)
(1.12663995422352 0.000539900022772409 2.00557843869302e-17)
(1.17744728544228 0.000775786021138708 4.89424283952858e-17)
(1.12639479967051 0.000490326428516903 -8.03657016723306e-18)
(1.17704235789532 0.000731301021579388 -1.63979521921043e-17)
(1.12597693453954 0.000460411908761701 -6.63630346910425e-18)
(1.17671866269869 0.000678791357698875 -1.78483963267054e-17)
(1.17589511970682 0.000533844158813627 -8.75880191645904e-18)
(0.129112185060015 0.00345724609546551 -5.02023843865247e-19)
(-0.0218251818142979 0.00523871133085052 1.36866311157581e-18)
(0.130059200927493 0.00395337508869234 2.35010508944492e-18)
(-0.0190954994302249 0.00576331440450637 2.09790148244093e-18)
(0.130162572018873 0.00431200579148049 1.3064236894091e-17)
(-0.0191933298951863 0.00646184215226525 5.12137262784712e-18)
(0.129740140694487 0.00455648276141558 1.20278230788897e-17)
(-0.0196425995516928 0.00697059189680785 1.51082079623536e-17)
(0.12905975523653 0.00468411733192765 9.40011504491427e-19)
(-0.020418189774011 0.007233434654281 5.67619244368826e-18)
(0.128267499185374 0.00474582794332935 -8.07319844515886e-18)
(-0.0213545508826572 0.0073531107002663 -1.57833596139777e-18)
(0.127427121348094 0.00477989533272015 1.95270938487647e-17)
(-0.0223569055074358 0.0074105494269006 -2.2560310395298e-17)
(0.126562144916974 0.00480460490039593 5.01448360012364e-17)
(-0.0233909303609076 0.00744596758726173 4.05971007834437e-17)
(0.125678559952409 0.00482642387300209 4.95263009506062e-17)
(-0.0244471263189176 0.00747485764918993 1.65111082173482e-17)
(0.124775915361699 0.00484748698716999 5.81172292021807e-17)
(-0.025524641015387 0.00750201455402303 2.03019781720563e-17)
(0.123853042281047 0.00486877814845555 5.25934315723393e-17)
(-0.0266249395645101 0.00752917898942598 4.71283818361145e-17)
(0.122909270425643 0.00489066197910327 6.15781903790537e-18)
(-0.0277490751936598 0.00755707484200909 3.49160823253025e-17)
(0.121944271024605 0.00491258941069791 -2.38738303931351e-17)
(-0.0288975025166362 0.0075856893729915 -3.64483513940937e-17)
(0.120955936714711 0.00493416534551567 -1.95592175537414e-17)
(-0.0300715927053448 0.00761406643618107 -2.88079293821802e-17)
(0.119942765621485 0.00495590418664779 -5.50550324842991e-17)
(-0.0312734618415676 0.00764245476097331 -4.0614904050658e-17)
(0.118903922742976 0.00497831565347725 -3.66765583821078e-17)
(-0.0325044385958144 0.00767150829665754 -7.60792148563972e-17)
(0.117839042834611 0.005001217927 5.5668568091357e-17)
(-0.0337651621643123 0.00770154554726819 5.15533508060426e-18)
(0.116746614499173 0.00502413144245949 7.34117815222729e-17)
(-0.0350566990386625 0.00773193917302793 6.06705676255419e-17)
(0.115624767487186 0.00504720773910746 3.27947400195943e-17)
(-0.0363810261349464 0.00776249608570717 6.9584972761894e-17)
(0.11447214840048 0.00507100618841469 3.03719207685588e-17)
(-0.0377401055591448 0.00779368173887646 2.69987416112932e-17)
(0.113288028570407 0.00509590565515257 7.93418795758561e-17)
(-0.0391350786003766 0.00782613060839997 6.10838901835692e-17)
(0.112071627460572 0.00512137074258902 1.26033360849276e-16)
(-0.0405667559469727 0.00785989724924329 1.48561839196344e-16)
(0.110820487409777 0.00514707813715245 8.68992837643355e-17)
(-0.0420370351674469 0.00789401919165507 1.81829929403877e-16)
(0.109532740901326 0.005173703429679 1.91884751796826e-17)
(-0.0435484913359171 0.00792889457133698 4.8657849686067e-17)
(0.108207297406032 0.0052020243369081 1.16200385795124e-17)
(-0.0451028975017525 0.00796542290369891 3.72388089227502e-19)
(0.106843911766715 0.00523158036271633 -1.22019727531977e-17)
(-0.046700899339521 0.00800415635095529 -1.27336997635365e-17)
(0.10544007967932 0.00526161527552419 1.95042840982526e-17)
(-0.0483440778164565 0.00804374209504547 -8.25361110203586e-17)
(0.103993237404023 0.00529267936810695 -5.91411516197912e-17)
(-0.0500354852922025 0.00808420549034249 1.5439856664929e-17)
(0.102501651066887 0.00532589843220748 -2.72978396171234e-16)
(-0.0517777560448966 0.00812655679332818 -2.78481829962791e-16)
(0.100965022993887 0.00536168768587863 -3.14198242257213e-16)
(-0.0535720089289223 0.00817200518303014 -4.893875989692e-16)
(0.0993823400181308 0.00539899084991926 -5.10004973999766e-17)
(-0.0554188556548382 0.00822009918254079 -2.88711822848363e-16)
(0.0977502404856847 0.0054375324698655 1.27231219466717e-16)
(-0.0573208404584791 0.00826944588875185 1.19991525385672e-16)
(0.0960662306337261 0.00547888890175732 1.22621090411599e-16)
(-0.0592818200039783 0.00832094183631726 -5.06706136931192e-17)
(0.0943300489401627 0.00552555246457416 2.86139014368799e-16)
(-0.0613035594982037 0.00837692251511748 2.019956318745e-16)
(0.0925445849612039 0.00557584271377489 3.07124096221561e-16)
(-0.0633839721433136 0.00843956491595783 3.34461191333876e-16)
(0.0907053573155106 0.00562765318613733 1.27582564203503e-16)
(-0.0655239652986296 0.00850372949885404 2.06426415657945e-16)
(0.0888097535762231 0.00568351375255218 -2.17763034444446e-17)
(-0.0677284200026165 0.00857073077511913 5.14428393568231e-17)
(0.0868583484835703 0.00574769830809883 -2.24431972153737e-16)
(-0.0699991779577469 0.00864411953005644 -1.0609460854969e-16)
(0.0848575637561249 0.00582014751798067 -2.01605917343653e-16)
(-0.0723313622377955 0.00872857506982407 -4.14258226685984e-16)
(0.0828076607142888 0.00589658480045779 -6.35670033367171e-17)
(-0.0747206568461022 0.00881926570091534 -3.63737435802198e-19)
(0.0807057103072244 0.0059775696466775 -1.63555095770717e-16)
(-0.0771692991003611 0.00891319347711556 -9.81734317542859e-17)
(0.0785532483117382 0.00606956805661723 -2.2186657088401e-16)
(-0.0796799668257808 0.00901433006022049 -2.34974346197171e-16)
(0.07636150467562 0.00617935704371339 -2.03834063191681e-16)
(-0.0822453292448811 0.00913172715314265 -1.93391405536258e-16)
(0.0741466912507427 0.00629946744862227 -3.12542332831438e-16)
(-0.0848471021306739 0.00926852434429424 -1.66217749770917e-16)
(0.0719057644997685 0.00642348090134338 -4.47238655518387e-16)
(-0.0874775457340331 0.00940790055173776 -3.67428388168462e-16)
(0.0696432530716493 0.00656117308935387 -2.56818694749442e-16)
(-0.0901403228429067 0.00955423155644905 -6.70624675980304e-16)
(0.0673795082856434 0.00673322974567977 -1.35608298014118e-16)
(-0.0928242185133975 0.00972323855713979 -8.33739099285885e-17)
(0.0651643786990163 0.00692909457759818 -2.9091485539125e-16)
(-0.0954812023706121 0.00993704530262586 -3.16428359975854e-16)
(0.0630021352165474 0.00712864719221778 -4.73630587959309e-16)
(-0.0980789929326716 0.0101539042058229 -3.42063813408465e-16)
(0.0609078361953618 0.00734529622436327 -4.22930262673498e-16)
(-0.100613517432374 0.01037769463361 -6.50584717684819e-16)
(0.0589217384000859 0.00760864497685715 -2.33861132518743e-16)
(-0.103061405925465 0.0106296622471704 -3.18816961198308e-16)
(0.0571306863404022 0.00792518859489721 -1.08118682158008e-16)
(-0.105340197157488 0.0109462620514153 -2.45939872175482e-16)
(0.0556019671674729 0.00825941949027369 1.86116705002531e-16)
(-0.107354607477489 0.0113008981667249 -5.41139848271542e-18)
(0.0543702388435619 0.00860462668722416 2.12471880651533e-16)
(-0.109048837193305 0.0116540482110591 3.17701241481539e-16)
(0.0535242328500394 0.00902077237990668 9.86380949270049e-17)
(-0.110384347026706 0.0120292418000385 6.13912886696193e-17)
(0.0533325171207186 0.00968596336314108 7.82116656329168e-17)
(-0.111218096168934 0.0125377708728096 9.76403273374171e-17)
(0.0544305518013717 0.0106123315836032 -1.89838373645485e-17)
(-0.111012850708183 0.0133953468958455 -2.31570939017768e-17)
(0.0572916306519989 0.0117010550670679 -6.22696603158482e-17)
(-0.109108686875297 0.0144138887188834 -3.33764671495724e-17)
(0.062466363497248 0.0130497230665725 -1.42202204148431e-16)
(-0.105034013676634 0.0155951936092294 3.40781933740803e-17)
(0.0707518537517486 0.0149740008950938 -2.39677345458922e-16)
(-0.0980924447773396 0.0171585083139842 -2.89169417829917e-16)
(0.0833830121204252 0.017059435643905 3.43851707332879e-17)
(-0.0868010880959454 0.019400768374215 -2.92311751209207e-16)
(0.10031441135752 0.0187236881968717 -1.14098605080879e-16)
(-0.0704099052389908 0.021227582872481 4.80412993886426e-16)
(0.121574183691575 0.0201397277978094 -1.57873353742461e-16)
(-0.0491572070000012 0.0226309849771438 -5.43227249526765e-16)
(0.147461807722811 0.0215976997493357 7.83799023732014e-18)
(-0.0229281847659692 0.0239040589465962 2.57414372676674e-16)
(0.178570206497515 0.0227661768904791 -1.21959920901759e-16)
(0.00910140383923057 0.0252657399139667 -1.93376128537387e-16)
(0.214323268722492 0.0231728329602637 -5.29530443067337e-17)
(0.046978295078024 0.0258522511070117 -2.83679619825762e-17)
(0.254086728753976 0.0230239161882149 -3.99018194098541e-17)
(0.0897489581036342 0.0256681291851191 -1.16450523605736e-16)
(0.297500281016848 0.0225806507971585 -7.4688770665878e-17)
(0.136798438408632 0.0250686457281582 5.66165441722403e-18)
(0.344310035580212 0.0216120405735787 -1.70082091295256e-16)
(0.188010403157368 0.0241741287958458 -1.29652817432666e-16)
(0.393463877339845 0.0199474493047661 -1.68439904207162e-16)
(0.242595834962702 0.0224497884905643 -2.1746483392812e-16)
(0.444172103053934 0.0178730511532254 1.51215510338184e-17)
(0.29930641723667 0.0201554962497523 -1.99551140379822e-16)
(0.49589746795736 0.0155074459658859 3.70158410033466e-18)
(0.357418616060713 0.0175478181634666 2.67202648570582e-16)
(0.548112125002305 0.0128460206667664 1.56966284646784e-17)
(0.416387965691376 0.0146318484911523 -1.53942613722266e-16)
(0.600271588696253 0.0100113241747459 1.17960639460722e-16)
(0.475518734386277 0.011426224473269 2.19893199325404e-16)
(0.652124761871196 0.00714171107761348 8.36010512186643e-17)
(0.534353754563968 0.00816584809338454 4.0311084249984e-17)
(0.703456246211428 0.00424657313381536 -6.63381665191751e-18)
(0.592662467494191 0.00487981010645616 1.92299281229944e-16)
(0.754059093750836 0.00146067832682512 -5.96230120155359e-17)
(0.650122160938876 0.00158480382732761 -1.945122360757e-16)
(0.80418298628007 -0.00110339113911491 1.21295830010801e-16)
(0.706740077900137 -0.00146013419762567 4.33908218063406e-17)
(0.854050226463098 -0.00346372847199798 4.65286211916214e-16)
(0.76287240319154 -0.00429400504309595 2.79426308084744e-16)
(0.903825714216152 -0.00554617831156541 5.43649256176524e-16)
(0.818745001985875 -0.00691676461023586 7.31228931505332e-16)
(0.953954618816615 -0.00734983164108246 1.23284696307031e-16)
(0.874445280654519 -0.00920708437651129 3.2539021256412e-16)
(1.00516197772687 -0.00888834841458527 -1.36831052968729e-16)
(0.931135739566867 -0.0112450748297897 -1.7336018560975e-16)
(1.05807982905549 -0.0100597556986626 -1.17385548341304e-16)
(0.988485312179909 -0.0129551604129957 -1.95340484826577e-16)
(1.11354520193089 -0.0107220378789916 -9.91471613900954e-17)
(1.05008355178132 -0.0143436773472376 -8.09875934974168e-17)
(1.17196540053451 -0.0109212745116972 -3.9492473601198e-17)
(1.11002534433839 -0.0150655284131559 -1.16840143805125e-16)
(1.22637688928358 -0.00593170381572104 5.32641240939904e-17)
(1.18485758372516 -0.0147007993506094 4.39946091943722e-17)
(1.2278447214262 -0.00108734889558447 -7.29116508551164e-18)
(1.21489284343408 -0.00144780120730766 7.20775579831562e-17)
(1.22908689674029 -0.000467794451145048 -4.5500727141354e-17)
(1.20514931910864 -0.00102228586971931 -1.22918522326389e-16)
(1.22940414569524 2.93582056203701e-05 1.62586585641517e-17)
(1.2100649871842 -0.000213771920944666 -5.45917556173143e-18)
(1.22952786547117 0.00041371878983708 2.66596580688552e-17)
(1.20810287229839 0.000121673194110508 4.35543037143662e-17)
(1.22943075860458 0.00070980109208162 6.49190200288537e-17)
(1.20871283468446 0.000536297664745818 7.90591902878677e-18)
(1.22915957189474 0.000842214730230314 7.64484817645761e-17)
(1.20807062992659 0.000725018548585446 1.49400151323508e-16)
(1.22879247057683 0.00093715401547767 3.72431701430327e-17)
(1.20780010951263 0.000848061717034835 2.58948456439535e-17)
(1.22836257325766 0.000992179995420055 5.28611045630499e-18)
(1.20728784252118 0.000931505323385307 2.59250512214013e-17)
(1.22789006464555 0.00100495821988348 1.95339924333621e-17)
(1.20682207439429 0.000968962820051907 -2.91940576586791e-17)
(1.22739837595747 0.000997384401527622 5.49464496463006e-17)
(1.2062984580831 0.000973255333323641 8.10416578612736e-17)
(1.22691053080024 0.000962459022928187 1.24986162605585e-17)
(1.20581330024586 0.000957745746559191 3.02850151773083e-17)
(1.22642880941076 0.000908291833759703 -2.60446313441057e-17)
(1.20528164135133 0.000904360333785993 -3.62424473512564e-17)
(1.22596719902222 0.000849908335299345 -1.9855449603711e-17)
(1.20495454454409 0.000834672591533899 -2.54546130903903e-17)
(1.20444039995447 0.000618442352449435 -1.42212103118102e-17)
(-0.17149110391348 0.00764972465949651 4.00086714441109e-18)
(-0.242960054234502 0.00854484943114099 2.4322154830922e-18)
(-0.17067265477683 0.00846297581623317 4.89306033341213e-18)
(-0.241543707721662 0.00943105384829388 3.86502883499964e-18)
(-0.170950748721951 0.00937591687223767 7.14817322834981e-18)
(-0.242302878252802 0.0108889310800434 3.57964205438002e-19)
(-0.171763154513749 0.00991663373826105 8.71321017591401e-18)
(-0.243246613952053 0.0117569877808431 8.43419158526304e-18)
(-0.172800419405636 0.0101768268000606 3.15573368363163e-18)
(-0.244347198797174 0.012167391560515 8.77529339373096e-18)
(-0.173933695013066 0.0102962294628592 -1.6166862852557e-17)
(-0.245525582126127 0.0123483366906331 5.06065178287965e-18)
(-0.175113103171121 0.0103584066435948 -1.47705283728367e-18)
(-0.246741630456759 0.0124342852165356 -1.5441343505079e-17)
(-0.176321278602992 0.0104011587960591 6.62848886242207e-18)
(-0.247983543201741 0.0124868974511149 3.9369219593701e-17)
(-0.177554027733971 0.0104384486146813 -1.3099474045081e-17)
(-0.24924917717976 0.0125299097512379 -1.01789496881614e-17)
(-0.1788118964471 0.0104747653119034 9.07210586353555e-18)
(-0.250539321495207 0.0125708964116991 -6.62627407905964e-18)
(-0.180096182139048 0.0105115993031649 2.92765110850593e-17)
(-0.251855488023847 0.0126121704820391 1.60101833360386e-17)
(-0.181407771851128 0.0105493378943002 -7.95555707048025e-18)
(-0.253198787629495 0.0126544399162597 -8.12874038647871e-18)
(-0.18274761546312 0.0105875380611821 -4.14697054420063e-17)
(-0.254569980555657 0.0126976812006812 -7.61096887075483e-17)
(-0.184117678177605 0.0106258750177219 -5.00771325981919e-17)
(-0.255970497788557 0.0127412286802051 -4.91569721425477e-17)
(-0.185519794776072 0.0106647653006521 -6.17717266046205e-17)
(-0.257402332502811 0.0127852368041959 -9.25878543399194e-17)
(-0.186955134550873 0.0107046596998903 -3.40163608980294e-17)
(-0.25886697632478 0.0128302010195143 -5.6273915521466e-17)
(-0.188424683254665 0.0107454374237298 1.00417949129388e-17)
(-0.26036542924503 0.0128763724194319 -1.58560113490226e-17)
(-0.189930197446299 0.0107867348280768 5.67725169194906e-17)
(-0.26189902641716 0.0129233420140901 -1.02441997603568e-17)
(-0.191473820891497 0.0108286965639735 6.38472472179378e-17)
(-0.263469793756576 0.0129709862156431 1.1742700819285e-16)
(-0.193057332428361 0.0108718410912339 5.79613138662358e-17)
(-0.265079769661117 0.0130196754619078 4.40147119517388e-17)
(-0.194681963797677 0.0109165092180924 1.30839075173853e-16)
(-0.266730446148949 0.0130699157723937 7.52602293441433e-17)
(-0.196349141000045 0.0109622956063238 2.04886915340017e-16)
(-0.268423023916031 0.0131217676617765 2.33140829195646e-16)
(-0.198061433917947 0.0110089629624681 1.43502620037482e-16)
(-0.270159529627251 0.013174581678752 2.09887719174611e-16)
(-0.199821242284034 0.0110571297180785 2.97537059379463e-17)
(-0.27194259548496 0.0132286634676447 -7.62284980353817e-17)
(-0.201630082623894 0.0111074929889686 -2.42104282392647e-17)
(-0.273774243885639 0.0132847412338729 -1.68871830061496e-17)
(-0.20348913521575 0.0111596997607326 -8.36563606799148e-17)
(-0.275655631259447 0.0133432378391623 -7.19569227642663e-17)
(-0.205401154129319 0.0112131491104859 -8.68397122652951e-17)
(-0.277588674857002 0.0134032152881685 -1.84239366074042e-16)
(-0.207369242219784 0.0112683545301504 -2.0558589076072e-16)
(-0.27957651429696 0.0134647011518117 -7.3883637352972e-17)
(-0.209395600494905 0.0113263785082818 -4.96699953377538e-16)
(-0.281621939573303 0.013528525903097 -3.13652612339667e-16)
(-0.211481296256011 0.0113876128165908 -4.63977066921331e-16)
(-0.283726517981609 0.0135956542092651 -5.80973767319733e-16)
(-0.213628126150378 0.0114512045895864 -1.16660203670292e-16)
(-0.285891414259622 0.0136657827769124 -3.10055178120704e-16)
(-0.215839710148789 0.0115169625407031 -5.93951866370863e-17)
(-0.288119418538272 0.0137379172752114 5.6923516154034e-17)
(-0.21811917691894 0.0115864326372376 2.91455382284261e-17)
(-0.290414322426441 0.013812771607904 -1.31538661472864e-16)
(-0.220466917611762 0.0116618095953363 2.50625100317996e-16)
(-0.292778246358026 0.0138922764364132 1.78034233103681e-16)
(-0.222881509842086 0.0117416909674558 2.32955525965646e-16)
(-0.295209772420472 0.0139780422782337 2.0450960165235e-16)
(-0.225366979493991 0.0118242883849744 1.29720834453204e-16)
(-0.297710065151238 0.0140662799792635 8.90874661626125e-17)
(-0.227926790291969 0.0119119630050904 -3.35247419487681e-17)
(-0.300283880245175 0.0141579183483746 6.58605131370666e-17)
(-0.230559964156758 0.0120086815933256 -2.97433152464549e-16)
(-0.302933117462145 0.0142559313476264 -1.30727923215399e-16)
(-0.233260599580758 0.0121143890118575 -2.11425495821936e-16)
(-0.30565337921553 0.0143639167075823 -4.79433570831325e-16)