/*--------------------------------*- C++ -*----------------------------------*\
  =========                 |
  \\      /  F ield         | OpenFOAM: The Open Source CFD Toolbox
   \\    /   O peration     | Website:  https://openfoam.org
    \\  /    A nd           | Version:  8
     \\/     M anipulation  |
\*---------------------------------------------------------------------------*/
FoamFile
{
    version     2.0;
    format      ascii;
    class       volScalarField::Internal;
    location    "0.0765000";
    object      V0;
}
// * * * * * * * * * * * * * * * * * * * * * * * * * * * * * * * * * * * * * //

dimensions      [0 3 0 0 0 0 0];

value           nonuniform List<scalar> 
600
(
5.69499307170284e-14
5.62400351391277e-14
5.55286023826296e-14
5.48175789742061e-14
5.41071804083061e-14
5.33972241443827e-14
5.268774633085e-14
5.19787847102901e-14
5.12703905088678e-14
5.05624736925614e-14
4.98549792223111e-14
4.91479031834863e-14
4.84413430850806e-14
4.77352809381634e-14
4.7029612520022e-14
4.63243502477231e-14
4.56195475961124e-14
4.49152419787217e-14
4.42113647379966e-14
4.3507895992735e-14
4.28048465545362e-14
4.2102310407744e-14
4.14002651607135e-14
4.06986417984216e-14
3.99974400385451e-14
3.92967727974082e-14
3.85966864953329e-14
3.78970863831094e-14
3.71979619894625e-14
3.64993695074309e-14
3.58014696764205e-14
3.51042252475401e-14
3.44075711505699e-14
3.3711451726397e-14
3.30162403453341e-14
3.23220311476267e-14
3.16285842784561e-14
3.09359030383168e-14
3.0244341817702e-14
2.95543089318085e-14
2.88656026934609e-14
2.81781290084534e-14
2.74919749841976e-14
2.68082288442246e-14
2.612700328149e-14
2.54478249143583e-14
2.47703420960678e-14
2.40966339573819e-14
2.34276345892284e-14
2.2762025158498e-14
2.20998021970801e-14
2.14425364949825e-14
2.07931134892738e-14
2.01507064492582e-14
1.9514591104424e-14
1.88808607161849e-14
1.82619437234084e-14
1.76688970801108e-14
1.71013653810618e-14
1.65541061176997e-14
1.6064822970325e-14
1.56451112085355e-14
1.52649362003939e-14
1.49206940816066e-14
1.46399472787886e-14
1.44313301251327e-14
1.42622660771914e-14
1.4125110445642e-14
1.40431357964821e-14
1.40110383106962e-14
1.39952057911309e-14
1.39980846374718e-14
1.4021789460696e-14
1.40474000315901e-14
1.40623292844937e-14
1.40781952807853e-14
1.40601719493269e-14
1.39950986336339e-14
1.391238137374e-14
1.37909230514794e-14
1.35902714198119e-14
1.33287850349741e-14
1.30473053391853e-14
1.26845007503413e-14
1.22258711747828e-14
1.17722834280011e-14
1.16028533065624e-14
1.16372593149361e-14
1.16220912916387e-14
1.15998652587865e-14
1.15517117680474e-14
1.14880634920425e-14
1.14263376841596e-14
1.13612868358572e-14
1.12937852486236e-14
1.12271266951524e-14
1.11596599802677e-14
1.10926929496812e-14
1.10258784137365e-14
1.0928161242418e-14
5.90207055376024e-14
5.8262288633948e-14
5.7502820013892e-14
5.67445351839788e-14
5.59874432539619e-14
5.52314716897442e-14
5.44765881570049e-14
5.37227898186686e-14
5.29700697156902e-14
5.22184039859337e-14
5.14677684238603e-14
5.071815969652e-14
4.99695852038939e-14
4.92220376581355e-14
4.84754982044994e-14
4.77299618306189e-14
4.69854391781073e-14
4.62419346599904e-14
4.54994396599251e-14
4.47579480149359e-14
4.40174705442925e-14
4.32780235943493e-14
4.25396097451762e-14
4.18022232862512e-14
4.10658762066043e-14
4.03305977454623e-14
3.95964057548508e-14
3.88633001229249e-14
3.81312905008617e-14
3.74004156651876e-14
3.66707202428724e-14
3.59422267607869e-14
3.52149475353691e-14
3.4488938951709e-14
3.37642971606049e-14
3.30410887307046e-14
3.23193410226743e-14
3.15991322777573e-14
3.08806252110637e-14
3.01639740462078e-14
2.94492651212504e-14
2.87365939281676e-14
2.80262030103808e-14
2.7318414375425e-14
2.66134464659203e-14
2.59114175382596e-14
2.52126779207836e-14
2.45178387942159e-14
2.3827377821234e-14
2.31415204565822e-14
2.24607069038861e-14
2.17858907305474e-14
2.11180574872633e-14
2.04578190288583e-14
1.9805785019237e-14
1.91645861955481e-14
1.85395681671842e-14
1.79369752428857e-14
1.73623227437147e-14
1.68237695475191e-14
1.63313233093576e-14
1.58901200748816e-14
1.54988546012165e-14
1.51576597164614e-14
1.48705839157531e-14
1.46377183827453e-14
1.44533076687856e-14
1.43126342277147e-14
1.42141485474193e-14
1.41523577372961e-14
1.41174298733767e-14
1.41010246619508e-14
1.40961123566204e-14
1.40934915739542e-14
1.40842693112922e-14
1.40601050115001e-14
1.40098173029854e-14
1.39255623876288e-14
1.38042305444299e-14
1.36375819018126e-14
1.34155939841972e-14
1.31381846593962e-14
1.28074788798562e-14
1.24147271980531e-14
1.19575293410286e-14
1.1487937842563e-14
1.13090224004358e-14
1.13661913799094e-14
1.13806697626098e-14
1.1368705981814e-14
1.13364160914007e-14
1.12900324550391e-14
1.12362939624064e-14
1.11781440934424e-14
1.11174320405362e-14
1.10559710223276e-14
1.09950291598741e-14
1.09361974280217e-14
1.08814016731304e-14
1.08399391420589e-14
6.10749060626331e-14
6.02688762115851e-14
5.94616780563222e-14
5.86563243093116e-14
5.78527406984371e-14
5.70508525050226e-14
5.62506265494666e-14
5.54520605366932e-14
5.46551475060871e-14
5.38598612783934e-14
5.30661757892298e-14
5.22740876311847e-14
5.14836056380009e-14
5.06947216729782e-14
4.99074145422513e-14
4.91216791048749e-14
4.83375271887384e-14
4.75549636180871e-14
4.67739781879733e-14
4.59945638767801e-14
4.52167321013776e-14
4.4440501024825e-14
4.3665872549436e-14
4.28928391462742e-14
4.21214129775694e-14
4.13516260207514e-14
4.05834969504639e-14
3.98170232870105e-14
3.90522139845526e-14
3.82891098281561e-14
3.75277591532647e-14
3.67681834613339e-14
3.60103921931264e-14
3.52544413606411e-14
3.4500436692538e-14
3.37484467233469e-14
3.29984911283167e-14
3.2250647024228e-14
3.15050880800795e-14
3.07619787718534e-14
3.00213978709147e-14
2.92834327908754e-14
2.85483298321194e-14
2.7816441936699e-14
2.7087988222181e-14
2.6363059869861e-14
2.56419927431074e-14
2.49254639834944e-14
2.42139747218806e-14
2.35076896420058e-14
2.28070247031375e-14
2.21129870628171e-14
2.14266508641685e-14
2.07485767650965e-14
2.00792379222149e-14
1.94210387897195e-14
1.87797287062399e-14
1.81618970033079e-14
1.75727418489653e-14
1.70200392680076e-14
1.65152495321787e-14
1.60638741277274e-14
1.566307410836e-14
1.53126760743748e-14
1.50177727124699e-14
1.47786706078329e-14
1.45883177535674e-14
1.4441729327665e-14
1.43377754066887e-14
1.42707050842855e-14
1.42299668260867e-14
1.42070498970254e-14
1.41946409490355e-14
1.41833702856483e-14
1.41640940280613e-14
1.41279187014159e-14
1.40643310795968e-14
1.39655185565597e-14
1.38268981708022e-14
1.36409306445672e-14
1.33997401743581e-14
1.31017249115767e-14
1.27464846729025e-14
1.23296637489363e-14
1.1850755018859e-14
1.13604297894639e-14
1.11728552292558e-14
1.12306489804358e-14
1.12502213693582e-14
1.12426199527098e-14
1.12152064877769e-14
1.11739697701959e-14
1.11243155347761e-14
1.10697223590966e-14
1.10124112208864e-14
1.09541918761151e-14
1.08966854033823e-14
1.0841901389808e-14
1.07933086060069e-14
1.0760265675308e-14
6.31378450977682e-14
6.22838837200241e-14
6.14287267087507e-14
6.05761185380139e-14
5.97258616005119e-14
5.88778790173413e-14
5.80321357984278e-14
5.71886290347616e-14
5.63473510841913e-14
5.55082745392985e-14
5.46713721891043e-14
5.38366402289885e-14
5.30040874515523e-14
5.21737051956042e-14
5.13454714247878e-14
5.05193806446663e-14
4.96954448238571e-14
4.88736687268731e-14
4.80540416886602e-14
4.72365563527809e-14
4.6421224334032e-14
4.56080641306789e-14
4.47970775394221e-14
4.3988256736512e-14
4.31816141330039e-14
4.23771824055344e-14
4.15749805461524e-14
4.077500590637e-14
3.99772675941698e-14
3.91818073175242e-14
3.83886744084058e-14
3.75978907167877e-14
3.68094658591745e-14
3.60234571856486e-14
3.52399725852421e-14
3.445908182283e-14
3.36808049684604e-14
3.29052208166918e-14
3.21325064469735e-14
3.13628291980181e-14
3.05962691069243e-14
2.98329152301726e-14
2.90730185137826e-14
2.83169374195977e-14
2.75648940066537e-14
2.68169808876899e-14
2.60735399572375e-14
2.53352575152582e-14
2.4602640333451e-14
2.38758552719587e-14
2.31553239986067e-14
2.2442065775177e-14
2.17371647906438e-14
2.1041187183185e-14
2.03546156655623e-14
1.96798985583894e-14
1.90228523283241e-14
1.83901381811664e-14
1.7787022370098e-14
1.72213613884437e-14
1.6704654686712e-14
1.62424103609281e-14
1.58317528538913e-14
1.54724001580212e-14
1.51693471218573e-14
1.49228295039404e-14
1.47256686451459e-14
1.45726725864328e-14
1.44625498715466e-14
1.43894169889191e-14
1.43425214924479e-14
1.43131187441861e-14
1.4293703906675e-14
1.42747301027558e-14
1.4246881172575e-14
1.42011277854904e-14
1.41268644331275e-14
1.40161671084129e-14
1.38643497217833e-14
1.36639386205625e-14
1.34071839715747e-14
1.30923299542392e-14
1.27188143789009e-14
1.22827106810654e-14
1.17840059524664e-14
1.12755111467868e-14
1.10804061335291e-14
1.11351587962165e-14
1.11547534838192e-14
1.11483684829076e-14
1.11228373482407e-14
1.10838641255051e-14
1.10365358091634e-14
1.09842541797119e-14
1.09292483141035e-14
1.08733207892987e-14
1.08181207528579e-14
1.0765714282708e-14
1.07195908784955e-14
1.06884876695454e-14
6.52087491318503e-14
6.43068217796687e-14
6.34035616249606e-14
6.25035359356109e-14
6.16064473002527e-14
6.07122143058865e-14
5.98207998433436e-14
5.8932200331541e-14
5.80464076419166e-14
5.71633932582697e-14
5.62831287070714e-14
5.5405609637959e-14
5.45308449034409e-14
5.36588255086602e-14
5.27895285556509e-14
5.19229480531058e-14
5.10590961232497e-14
5.01979776291706e-14
4.93395815148206e-14
4.84838999941809e-14
4.76309448098486e-14
4.67807349243691e-14
4.59332721609806e-14
4.50885483403119e-14
4.42465760169491e-14
4.3407388646334e-14
4.25710057272541e-14
4.17374244627774e-14
4.09066539489538e-14
4.00787367724395e-14
3.92537234779486e-14
3.84316364276682e-14
3.76124852300052e-14
3.67963282842353e-14
3.598327590204e-14
3.51733994823881e-14
3.43667192761927e-14
3.35633152362758e-14
3.2763367991306e-14
3.19670484066645e-14
3.11744378189722e-14
3.03856261427412e-14
2.96008684807984e-14
2.88205299621449e-14
2.80448363430507e-14
2.7273880305037e-14
2.65080079621234e-14
2.5747916816325e-14
2.49941213814536e-14
2.42467884519073e-14
2.35063423283135e-14
2.27738155260077e-14
2.20503067406643e-14
2.13363860488502e-14
2.06325331364228e-14
1.99412214292727e-14
1.92683455484322e-14
1.86206542547821e-14
1.80034623381023e-14
1.74246906912418e-14
1.68959508625604e-14
1.64227809764641e-14
1.60021934670861e-14
1.56337794413047e-14
1.53224793528271e-14
1.50684531652693e-14
1.48643369229288e-14
1.47047234130581e-14
1.45881660749896e-14
1.45086313397023e-14
1.44551571050724e-14
1.44187823254839e-14
1.43918313355619e-14
1.43646079630337e-14
1.43276692304724e-14
1.42719051401257e-14
1.41866466632053e-14
1.40639238146271e-14
1.38990708412529e-14
1.36846900959425e-14
1.34130869070572e-14
1.30825197049094e-14
1.26924650640647e-14
1.22391681316114e-14
1.17231398647279e-14
1.11993539413086e-14
1.09980004347718e-14
1.10488305694207e-14
1.10672035627052e-14
1.10610480855182e-14
1.10364879303909e-14
1.09989163766263e-14
1.095321971236e-14
1.09026835374596e-14
1.08494739878451e-14
1.07953469596092e-14
1.07419013856976e-14
1.06910812332609e-14
1.0645953846025e-14
1.06148263764123e-14
6.72840755602993e-14
6.63121239830716e-14
6.5360683270216e-14
6.44130012162509e-14
6.34688452362656e-14
6.25281266680312e-14
6.15908065836654e-14
6.06568803751676e-14
5.9726340238934e-14
5.87991565114761e-14
5.78752987499437e-14
5.69547622801663e-14
5.6037556449206e-14
5.51236720929306e-14
5.42130846405512e-14
5.33057878417991e-14
5.24017943367106e-14
5.1501109295658e-14
5.06037208480151e-14
4.9709620778752e-14
4.88188210405981e-14
4.79313407511322e-14
4.70471825539145e-14
4.61663382126618e-14
4.52888185738633e-14
4.441465799253e-14
4.35438777415482e-14
4.26764746434006e-14
4.18124579204205e-14
4.09518701886261e-14
4.00947633036468e-14
3.92411606338434e-14
3.83910718179578e-14
3.75445550125362e-14
3.67017229004123e-14
3.58626492988443e-14
3.50273544863976e-14
3.41959191190077e-14
3.33685258010431e-14
3.25453493463922e-14
3.17264735539106e-14
3.09119884730028e-14
3.01021508144917e-14
2.92973320308131e-14
2.84977643698713e-14
2.7703539681524e-14
2.6915003859927e-14
2.61328644902271e-14
2.53576470636267e-14
2.45895195459134e-14
2.382890419347e-14
2.30768420913418e-14
2.23344485556576e-14
2.16023006631812e-14
2.0880872065008e-14
2.01726376555606e-14
1.94835438426937e-14
1.88204270466521e-14
1.8188649698742e-14
1.75961627627952e-14
1.70546737058683e-14
1.65697955853047e-14
1.61384554093631e-14
1.57600891250035e-14
1.54395687516952e-14
1.51770134235071e-14
1.49649037089811e-14
1.47976153682172e-14
1.46735589973951e-14
1.45865954736077e-14
1.45255904284226e-14
1.44813949209185e-14
1.44462083327149e-14
1.44102356301897e-14
1.43639494047577e-14
1.42982084998169e-14
1.42023313925959e-14
1.40683338229884e-14
1.38916104661304e-14
1.36648777245882e-14
1.33805081324062e-14
1.30368030018439e-14
1.26333362410233e-14
1.21665916141745e-14
1.16385847322801e-14
1.11091838803672e-14
1.09036717787059e-14
1.09461743907216e-14
1.09630460740972e-14
1.09568570477425e-14
1.09328277836777e-14
1.08960995500045e-14
1.08514256270712e-14
1.08020105978092e-14
1.07499684956251e-14
1.06970140338802e-14
1.06446932356735e-14
1.05947903547424e-14
1.05494979229376e-14
1.05107874343816e-14
)
;


// ************************************************************************* //
