/*--------------------------------*- C++ -*----------------------------------*\
  =========                 |
  \\      /  F ield         | OpenFOAM: The Open Source CFD Toolbox
   \\    /   O peration     | Website:  https://openfoam.org
    \\  /    A nd           | Version:  8
     \\/     M anipulation  |
\*---------------------------------------------------------------------------*/
FoamFile
{
    version     2.0;
    format      ascii;
    class       volScalarField::Internal;
    location    "0.0580000";
    object      V0;
}
// * * * * * * * * * * * * * * * * * * * * * * * * * * * * * * * * * * * * * //

dimensions      [0 3 0 0 0 0 0];

value           nonuniform List<scalar> 
900
(
3.97885755030324e-14
3.93168472195142e-14
3.88454887446098e-14
3.8374235208554e-14
3.79031695646755e-14
3.74322773410146e-14
3.69617172116671e-14
3.64915109031528e-14
3.60215069224824e-14
3.55516756127239e-14
3.50821412372143e-14
3.46129066101376e-14
3.41438495831721e-14
3.36749584587905e-14
3.32063550446439e-14
3.27380335116356e-14
3.22698692184736e-14
3.18018930611071e-14
3.1334196688299e-14
3.08667629517962e-14
3.03994934935963e-14
2.99324278043781e-14
2.94656542348676e-14
2.89991432890443e-14
2.85328011890773e-14
2.80666872143313e-14
2.76008887607826e-14
2.71353588574567e-14
2.66700007558713e-14
2.62049154276786e-14
2.57401939883092e-14
2.52757564463953e-14
2.48114937549269e-14
2.43475856623183e-14
2.38841353029726e-14
2.34210013291659e-14
2.29580420166447e-14
2.24956001295082e-14
2.20337896203675e-14
2.15723237226934e-14
2.11110828264243e-14
2.06506488969859e-14
2.01911323286453e-14
1.97319940513924e-14
1.92733047089715e-14
1.88158902094568e-14
1.83598041603875e-14
1.79042240634244e-14
1.74495596743078e-14
1.69970338942359e-14
1.65464513199608e-14
1.6096467498847e-14
1.56484537146143e-14
1.52040857231039e-14
1.47624651154174e-14
1.4321511743302e-14
1.38847379669498e-14
1.3454140995475e-14
1.30272183544116e-14
1.25998433175259e-14
1.21793098331181e-14
1.17712579046684e-14
1.13702661370762e-14
1.09752078749219e-14
1.06150229310386e-14
1.02909189847857e-14
9.97486628547604e-15
9.68557276882265e-15
9.436436413026e-15
9.20881861081843e-15
8.98754158706773e-15
8.79788428799208e-15
8.63454366927876e-15
8.47233736273827e-15
8.32284943233856e-15
8.18127333158981e-15
8.03441708095393e-15
7.8898296958783e-15
7.73594977113729e-15
7.55401117242361e-15
7.3584469517457e-15
7.15775606440803e-15
6.90812987056024e-15
6.61272162924536e-15
6.31838782790032e-15
5.99485717047685e-15
5.82921826728658e-15
5.84747771316732e-15
5.84290088170763e-15
5.80586866021425e-15
5.76034494318998e-15
5.718363817837e-15
5.66750660883115e-15
5.61245855341434e-15
5.55982654596097e-15
5.50494695841433e-15
5.45014671767684e-15
5.39523715061017e-15
5.32861654914505e-15
5.21652836583249e-15
4.07610976415484e-14
4.02668553261879e-14
3.97733060471052e-14
3.92803519497383e-14
3.87879743615321e-14
3.82961369422825e-14
3.780483730565e-14
3.73140679495865e-14
3.68238070760091e-14
3.6334043143454e-14
3.58447795096655e-14
3.53560118932479e-14
3.48677255022562e-14
3.43799163641761e-14
3.38925921338858e-14
3.34057509933956e-14
3.29193824046093e-14
3.24334866843323e-14
3.19480724991827e-14
3.14631390117205e-14
3.09786800819906e-14
3.04947003496228e-14
3.00112099579257e-14
2.95282086654168e-14
2.90456928924322e-14
2.85636709326176e-14
2.80821546856985e-14
2.76011445343279e-14
2.71206410212717e-14
2.66406594709993e-14
2.61612157905647e-14
2.56823114693487e-14
2.5203954147364e-14
2.4726172107338e-14
2.42489891639327e-14
2.37724087399402e-14
2.32964514258878e-14
2.28211690912338e-14
2.23465986976103e-14
2.18727482166567e-14
2.13996637004062e-14
2.09274375836671e-14
2.04561284702721e-14
1.99857601132006e-14
1.95164256449049e-14
1.90482775611289e-14
1.85814073922961e-14
1.8115878639543e-14
1.76518720044115e-14
1.71896282026992e-14
1.67292762712844e-14
1.62709561206746e-14
1.58150105199079e-14
1.53618119224311e-14
1.49115283360696e-14
1.44644531860622e-14
1.40212225309518e-14
1.35823901897786e-14
1.31481568330931e-14
1.27193147079203e-14
1.22978281006355e-14
1.18860585954235e-14
1.14865051967837e-14
1.11034670742017e-14
1.07419954116233e-14
1.04042850534567e-14
1.00902866689022e-14
9.8009013931959e-15
9.53671784288452e-15
9.29529047881832e-15
9.07409228894438e-15
8.87225878070139e-15
8.68711887663433e-15
8.51382695344687e-15
8.34839486283149e-15
8.1868642398009e-15
8.0245225478193e-15
7.85700701952923e-15
7.67870832051783e-15
7.48417540020941e-15
7.27102639355291e-15
7.03572444538178e-15
6.77077638654262e-15
6.47437455727033e-15
6.1484571231842e-15
5.81544491787006e-15
5.67474095997302e-15
5.70236956209356e-15
5.70647070879707e-15
5.69055394587566e-15
5.66158841136101e-15
5.62496830364324e-15
5.58219242908377e-15
5.53528349036448e-15
5.48646345967451e-15
5.43663374685727e-15
5.38680356347279e-15
5.33770563067922e-15
5.28986592180087e-15
5.25300256774415e-15
4.17272330380042e-14
4.12111979689276e-14
4.06959405679017e-14
4.01815485793376e-14
3.96679864563573e-14
3.91552184659716e-14
3.86432437579925e-14
3.81320546340405e-14
3.76216272473879e-14
3.71119495757507e-14
3.66030262188324e-14
3.60948526182174e-14
3.5587412329926e-14
3.50807012520695e-14
3.45747283992125e-14
3.40694916232464e-14
3.35649788012914e-14
3.30611905670155e-14
3.25581367290029e-14
3.20558160034869e-14
3.15542209594458e-14
3.10533567500422e-14
3.05532346689823e-14
3.00538538594554e-14
2.95552094625681e-14
2.90573106042464e-14
2.85601703549312e-14
2.80637881757489e-14
2.75681633048309e-14
2.70733125398562e-14
2.65792530733753e-14
2.6085984842451e-14
2.55935139999776e-14
2.51018715920285e-14
2.46110829410497e-14
2.4121148609271e-14
2.36320872894232e-14
2.31439563705892e-14
2.26567943842174e-14
2.21706035039793e-14
2.16854281428671e-14
2.12013707985548e-14
2.07184910396071e-14
2.02368016988632e-14
1.97563970073977e-14
1.92774448745989e-14
1.88000354513946e-14
1.83242144421444e-14
1.7850169653215e-14
1.73781657911894e-14
1.69083221972589e-14
1.64407481599574e-14
1.59758133155705e-14
1.5513924469533e-14
1.50552166117429e-14
1.45999340760527e-14
1.41487869249673e-14
1.37023713584984e-14
1.32607939386263e-14
1.282473121361e-14
1.23963011692475e-14
1.19779600053785e-14
1.15719883762765e-14
1.11826607463977e-14
1.08156897456933e-14
1.04732189423363e-14
1.01545165666426e-14
9.86082660092958e-15
9.59298508378519e-15
9.3481244940609e-15
9.12349272596259e-15
8.91842329843655e-15
8.73013345250243e-15
8.5535406929628e-15
8.38456131543168e-15
8.21913938027116e-15
8.05251874059197e-15
7.88001173926649e-15
7.69615957172929e-15
7.49586818854042e-15
7.27595405813575e-15
7.03238582032157e-15
6.75968884317863e-15
6.45558982484563e-15
6.11974407436454e-15
5.77948061748437e-15
5.63911312033459e-15
5.66820993080758e-15
5.67452803361073e-15
5.66224494270282e-15
5.63660530277639e-15
5.60210164172751e-15
5.56132484459219e-15
5.51633825487316e-15
5.4690132690362e-15
5.42064541359134e-15
5.37237078470567e-15
5.32551265270132e-15
5.28288618648892e-15
5.25401358342459e-15
4.26950290757511e-14
4.21571368875813e-14
4.16201219942475e-14
4.10842536619372e-14
4.05494711703121e-14
4.00157385451303e-14
3.94830546200394e-14
3.89514111802626e-14
3.84207837269928e-14
3.78911599427571e-14
3.73625443313729e-14
3.68349319994464e-14
3.63083060961534e-14
3.57826624292672e-14
3.52580100365796e-14
3.47343465401819e-14
3.42116595483815e-14
3.36899496935509e-14
3.3169226829514e-14
3.26494895076994e-14
3.2130730142873e-14
3.16129539614652e-14
3.10961723224858e-14
3.05803842277882e-14
3.00655847262524e-14
2.95517830690138e-14
2.90389923964347e-14
2.85272120514125e-14
2.80164412751901e-14
2.75066970858695e-14
2.69979967713928e-14
2.64903401760455e-14
2.59837335955472e-14
2.54782084634903e-14
2.49737902414128e-14
2.44704794282348e-14
2.39682950958192e-14
2.34672952825304e-14
2.29675187022763e-14
2.24689675366189e-14
2.19716869624973e-14
2.14757804951773e-14
2.09813079620715e-14
2.04882824128653e-14
1.99967993744238e-14
1.95070281475932e-14
1.9019059255899e-14
1.8532939076826e-14
1.80488574174254e-14
1.75670806312527e-14
1.70877284155356e-14
1.66109115051852e-14
1.61370024793041e-14
1.56664097541508e-14
1.51992684921176e-14
1.47358258106511e-14
1.42767954623466e-14
1.38227746070065e-14
1.33738703138247e-14
1.2930767249722e-14
1.24955961324278e-14
1.20708255990357e-14
1.16587523472154e-14
1.12636724607006e-14
1.08913069366384e-14
1.0543792876329e-14
1.02203840537969e-14
9.92229689795174e-15
9.65034082014862e-15
9.40161229386825e-15
9.17331045786623e-15
8.96472901231878e-15
8.77304722250056e-15
8.59313127599704e-15
8.42084260556408e-15
8.25207556057529e-15
8.08202673637819e-15
7.9059596425262e-15
7.71838111724177e-15
7.51416628612567e-15
7.29006198320278e-15
7.04199940546131e-15
6.76458821546831e-15
6.45549555143269e-15
6.11430005769494e-15
5.76936749888497e-15
5.62811058470281e-15
5.65704939241759e-15
5.66374383629178e-15
5.65219264577825e-15
5.62737859147629e-15
5.59362728518389e-15
5.55358234825662e-15
5.50931799931379e-15
5.46267139717446e-15
5.4149644810248e-15
5.36738106508659e-15
5.32137530609792e-15
5.27994461143236e-15
5.25221051592871e-15
4.36643097303237e-14
4.31045091895475e-14
4.25456957238576e-14
4.19883176388439e-14
4.14322819272811e-14
4.08775521801097e-14
4.03241269011544e-14
3.9771997437682e-14
3.92211386300537e-14
3.86715377952972e-14
3.81231993548342e-14
3.7576118140211e-14
3.70302768726103e-14
3.64856712111251e-14
3.59423102410092e-14
3.54001914058372e-14
3.48593020177184e-14
3.43196426651506e-14
3.37812232754886e-14
3.32440422704599e-14
3.27080918779155e-14
3.21733773669202e-14
3.16399101973004e-14
3.11076892561299e-14
3.05767094604654e-14
3.0046980165068e-14
2.9518514622171e-14
2.89913120694689e-14
2.84653716973219e-14
2.79407107354462e-14
2.74173466233057e-14
2.6895279105537e-14
2.63745145407996e-14
2.58550847639512e-14
2.5337015456846e-14
2.48203070110836e-14
2.43049787533474e-14
2.37910894375014e-14
2.32786780777316e-14
2.27677467384937e-14
2.22583411828445e-14
2.17505661120076e-14
2.1244481758243e-14
2.07401011169698e-14
2.02375208220787e-14
1.97369118913396e-14
1.92383653396769e-14
1.87419277173433e-14
1.82477907270873e-14
1.77562229866437e-14
1.72673444760313e-14
1.67812664351237e-14
1.62983647027779e-14
1.5819050397216e-14
1.53434581294631e-14
1.48718361735053e-14
1.44049035266806e-14
1.39432599480146e-14
1.34870100277178e-14
1.30368420158223e-14
1.2594902110438e-14
1.21636737220813e-14
1.17454631230007e-14
1.13445888323128e-14
1.09668003550502e-14
1.06142302752338e-14
1.02861019341345e-14
9.98361013385433e-15
9.70754285869641e-15
9.45495106517442e-15
9.22298028001348e-15
9.01088651420262e-15
8.81581056794478e-15
8.63256835686298e-15
8.45697292045885e-15
8.28487826509289e-15
8.1114478251548e-15
7.93191920942516e-15
7.74077678428493e-15
7.53287711537869e-15
7.30496024038638e-15
7.05295945773856e-15
6.77148850279674e-15
6.45821219621499e-15
6.11272918138809e-15
5.76400485814593e-15
5.62211526188653e-15
5.65071116425285e-15
5.65739502516696e-15
5.646048887654e-15
5.62156980111913e-15
5.58821974503314e-15
5.54861561445883e-15
5.50481468909274e-15
5.45863617324972e-15
5.41139412757632e-15
5.36427387415459e-15
5.31873681261191e-15
5.27776114498755e-15
5.2503443088664e-15
4.46350223712298e-14
4.4053264370193e-14
4.34726129117943e-14
4.2893693228053e-14
4.23163731762534e-14
4.17406155363317e-14
4.11664184464268e-14
4.05937728918311e-14
4.00226530574064e-14
3.94530458230134e-14
3.88849555259362e-14
3.83183767838572e-14
3.77532918825892e-14
3.71896962719514e-14
3.66275990937109e-14
3.60669976676106e-14
3.55078789967822e-14
3.49502435786095e-14
3.43941014293795e-14
3.38394508813851e-14
3.32862839565377e-14
3.27346059296744e-14
3.2184428383347e-14
3.16357501245618e-14
3.10885659142245e-14
3.05428851791284e-14
2.99987213111624e-14
2.94560734690967e-14
2.89149407558435e-14
2.83753405856574e-14
2.78372905891651e-14
2.7300790429675e-14
2.67658464717653e-14
2.62324909276893e-14
2.57007497608532e-14
2.51706232635797e-14
2.46421309247019e-14
2.4115332197935e-14
2.35902664959687e-14
2.30669357527941e-14
2.25453861732164e-14
2.20257236478051e-14
2.15080089564784e-14
2.09922549911029e-14
2.04785593001797e-14
1.9967094661734e-14
1.94579527605191e-14
1.89511802084895e-14
1.84469703779101e-14
1.79455942836669e-14
1.74471723968829e-14
1.69518162249712e-14
1.64599046189374e-14
1.59718517130959e-14
1.54877917869882e-14
1.5007973811205e-14
1.45331218112285e-14
1.40638387649569e-14
1.36002268754156e-14
1.31429767169547e-14
1.26942490537123e-14
1.22565425106518e-14
1.18321727138795e-14
1.14254797631293e-14
1.10422433497733e-14
1.06845946914648e-14
1.03517274488608e-14
1.0044814216608e-14
9.764621885112e-15
9.50815600359276e-15
9.27250802350619e-15
9.05689572988247e-15
8.85842060355229e-15
8.67184769127049e-15
8.49294161807288e-15
8.317516288827e-15
8.14070312021856e-15
7.95771633471046e-15
7.76302152478011e-15
7.55146275447727e-15
7.3197833787408e-15
7.06392906574221e-15
6.7785241225353e-15
6.46124624617965e-15
6.11172385307011e-15
5.75946566649284e-15
5.61709543102965e-15
5.64535433471784e-15
5.65195664046644e-15
5.64071575626182e-15
5.61647273744708e-15
5.58344280786266e-15
5.54421128666563e-15
5.50081363022786e-15
5.45505067836073e-15
5.40822316149676e-15
5.36150635294817e-15
5.31634770116143e-15
5.27569371259526e-15
5.24847668117882e-15
4.56071130880166e-14
4.50033503723182e-14
4.44008227490882e-14
4.38003308888449e-14
4.32016968399935e-14
4.26048819695501e-14
4.20098840100205e-14
4.14166936633196e-14
4.08252844645617e-14
4.02356427796029e-14
3.9647772857695e-14
3.90616691665758e-14
3.8477313549568e-14
3.78947011823642e-14
3.73138412714168e-14
3.6734731070367e-14
3.61573572595428e-14
3.55817201946291e-14
3.50078299969944e-14
3.44356849515245e-14
3.38652768540012e-14
3.32966109458125e-14
3.27296989543902e-14
3.21645396431175e-14
3.16011275906882e-14
3.10394722617644e-14
3.04795872173711e-14
2.99214715646077e-14
2.93651242793057e-14
2.88105629315233e-14
2.82578053837861e-14
2.77068512362723e-14
2.71577067997261e-14
2.66104046383414e-14
2.60649710595759e-14
2.55214062636773e-14
2.4979729803821e-14
2.44400018173542e-14
2.39022622169098e-14
2.33665127889748e-14
2.28328000290054e-14
2.2301231022409e-14
2.17718672431666e-14
2.12447214234613e-14
2.07198918263571e-14
2.01975530406986e-14
1.96777976024302e-14
1.91606720594961e-14
1.86463712292314e-14
1.81351686739803e-14
1.76271855611162e-14
1.71225334111026e-14
1.66215938432165e-14
1.61247843569154e-14
1.56322391215218e-14
1.51442073086357e-14
1.46614178125119e-14
1.41844775175251e-14
1.37134862570681e-14
1.32491355813862e-14
1.27936000496238e-14
1.23493941182247e-14
1.19188425314759e-14
1.15063064229268e-14
1.11175982020201e-14
1.07548510795812e-14
1.04172293250668e-14
1.01058827001441e-14
9.82155717299093e-15
9.56121227505734e-15
9.32188412366773e-15
9.10275101728057e-15
8.90087334962401e-15
8.71096357753693e-15
8.52873665899846e-15
8.34996502719796e-15
8.16974694622302e-15
7.98327276636645e-15
7.78498962565442e-15
7.56973043040574e-15
7.33424356846577e-15
7.07448945841829e-15
6.78510636319236e-15
6.46379011044963e-15
6.11021143424514e-15
5.75443440951978e-15
5.61159769592338e-15
5.63950090734136e-15
5.64599653862785e-15
5.63484089384759e-15
5.6108174646399e-15
5.57809475031191e-15
5.53922605708675e-15
5.49622414523479e-15
5.45087095484242e-15
5.40445257949308e-15
5.35813052373241e-15
5.31332927150121e-15
5.27295042062747e-15
5.24587819274088e-15
4.65807639363744e-14
4.59549886234613e-14
4.53305636200162e-14
4.47084749236708e-14
4.40885034680802e-14
4.34706083608176e-14
4.28547868797911e-14
4.22410295261547e-14
4.16293091950754e-14
4.10196116656334e-14
4.04119411002557e-14
3.98062918836728e-14
3.92026454126093e-14
3.86009965290799e-14
3.80013545206138e-14
3.74037166360926e-14
3.68080692231578e-14
3.62144124500936e-14
3.56227565673387e-14
3.50330998614719e-14
3.44454338880526e-14
3.38597638223942e-14
3.32761015619628e-14
3.26944458713203e-14
3.21147911402435e-14
3.15371468436862e-14
3.0961526741904e-14
3.03879299287156e-14
2.98163552223492e-14
2.92468203303923e-14
2.86793433988105e-14
2.81139239954515e-14
2.75505683278163e-14
2.69893092975895e-14
2.64301736294872e-14
2.58731614556744e-14
2.53182923092205e-14
2.47656269957913e-14
2.42152060463183e-14
2.36670311062571e-14
2.31211488170828e-14
2.25776674603349e-14
2.20366493643002e-14
2.14981070665906e-14
2.09621393400064e-14
2.04289226240627e-14
1.98985504938995e-14
1.93710693153094e-14
1.88466750939741e-14
1.83256440337203e-14
1.78080981899454e-14
1.72941488250945e-14
1.67841799871745e-14
1.62786127575374e-14
1.57775813364082e-14
1.52813345218644e-14
1.47906056326378e-14
1.43060058174663e-14
1.38276324470482e-14
1.33561763655176e-14
1.28938241082288e-14
1.24431051720297e-14
1.20063516873516e-14
1.15879425973979e-14
1.11937214019635e-14
1.08258235999733e-14
1.04833827795166e-14
1.0167522420625e-14
9.87896471723817e-15
9.61462177517853e-15
9.37147259501439e-15
9.14865299726319e-15
8.94318042177423e-15
8.74971499290551e-15
8.56392249796441e-15
8.38153479105955e-15
8.19761899400272e-15
8.00734430389595e-15
7.80514346188791e-15
7.58584233844602e-15
7.34619656095567e-15
7.08218399767733e-15
6.78846043179848e-15
6.46274805840959e-15
6.10481221583711e-15
5.74534843850422e-15
5.6018726256595e-15
5.62923883141429e-15
5.63556760133494e-15
5.62449245600384e-15
5.60069636829921e-15
5.56829292691103e-15
5.52980234529623e-15
5.48721430428474e-15
5.44229129653199e-15
5.39630407049878e-15
5.35039715281805e-15
5.30595208432999e-15
5.26570588055392e-15
5.2384044934965e-15
4.75392306928238e-14
4.68856211527112e-14
4.62393042693809e-14
4.55955970582033e-14
4.49542676140052e-14
4.43152712348323e-14
4.36786051656867e-14
4.30442598843636e-14
4.24122080193019e-14
4.17824343214477e-14
4.1154942490532e-14
4.05297273954676e-14
3.9906770259039e-14
3.92860652361736e-14
3.866762117214e-14
3.80514358542432e-14
3.74374955892031e-14
3.68258001594088e-14
3.62163596019267e-14
3.56091724659632e-14
3.5004230253612e-14
3.44015377057448e-14
3.38011072241743e-14
3.32029379187409e-14
3.26070230634425e-14
3.20133721484023e-14
3.14219997530799e-14
3.08329048671138e-14
3.02460863472991e-14
2.96615616379003e-14
2.90793492615196e-14
2.84994489373797e-14
2.79218667101819e-14
2.73466354183167e-14
2.67737825335534e-14
2.62033082333234e-14
2.56352315724027e-14
2.50696142874568e-14
2.45064974577603e-14
2.39458825345186e-14
2.33878160166343e-14
2.28324073134812e-14
2.22797198785194e-14
2.17297659743869e-14
2.11826445629021e-14
2.06385332899552e-14
2.00975271603406e-14
1.95596726430058e-14
1.90251657131571e-14
1.84942852883049e-14
1.79671551054716e-14
1.74438852865285e-14
1.69248609980466e-14
1.64105070805696e-14
1.59009593007768e-14
1.53964638563632e-14
1.48977561834064e-14
1.44054541843134e-14
1.39196526821134e-14
1.34410362470734e-14
1.2971797402514e-14
1.25144792623066e-14
1.20714179534824e-14
1.16469960604428e-14
1.1247084979638e-14
1.08738384446512e-14
1.05263605768661e-14
1.02057407589428e-14
9.91268566969562e-15
9.64407213735375e-15
9.39682050498693e-15
9.17002521576313e-15
8.96067616548417e-15
8.76339066252975e-15
8.57379141412436e-15
8.38758078503049e-15
8.19980380508353e-15
8.00561656152896e-15
7.79944747712934e-15
7.57611822327163e-15
7.33239137495731e-15
7.06426824581652e-15
6.76642210064742e-15
6.43660359864102e-15
6.07490542401097e-15
5.71336713188748e-15
5.56934264582285e-15
5.59505544459131e-15
5.60116139707439e-15
5.59014605225896e-15
5.56653139648603e-15
5.53438060194734e-15
5.49618843941315e-15
5.45392789880427e-15
5.40934643185341e-15
5.36370306011944e-15
5.31812735489971e-15
5.27394745363529e-15
5.2335057292307e-15
5.20173793819646e-15
)
;


// ************************************************************************* //
