/*--------------------------------*- C++ -*----------------------------------*\
| =========                 |                                                 |
| \\      /  F ield         | foam-extend: Open Source CFD                    |
|  \\    /   O peration     | Version:     4.1-20200408                       |
|   \\  /    A nd           | Web:         http://www.foam-extend.org         |
|    \\/     M anipulation  |                                                 |
\*---------------------------------------------------------------------------*/
FoamFile
{
    version     2.0;
    format      ascii;
    class       volVectorField;
    location    "0.0740000";
    object      U_0;
}
// * * * * * * * * * * * * * * * * * * * * * * * * * * * * * * * * * * * * * //

dimensions      [0 1 0 0 0 0 0];

internalField   nonuniform List<vector> 
1952
(
(0.0709663 -3.68471e-06 0)
(0.0709659 -5.99377e-06 0)
(0.0709654 -8.32988e-06 0)
(0.0709647 -1.0662e-05 0)
(0.0709639 -1.29946e-05 0)
(0.0709629 -1.53093e-05 0)
(0.0709619 -1.76229e-05 0)
(0.0709608 -1.99106e-05 0)
(0.0709597 -2.21937e-05 0)
(0.0709586 -2.44453e-05 0)
(0.0709576 -2.66842e-05 0)
(0.0709567 -2.88858e-05 0)
(0.070956 -3.1053e-05 0)
(0.0709556 -3.31857e-05 0)
(0.0709555 -3.52887e-05 0)
(0.0709664 -1.57911e-06 0)
(0.0709615 -3.68568e-06 0)
(0.0709611 -5.99538e-06 0)
(0.0709606 -8.33206e-06 0)
(0.0709599 -1.06648e-05 0)
(0.0709591 -1.2998e-05 0)
(0.0709582 -1.53134e-05 0)
(0.0709572 -1.76275e-05 0)
(0.0709561 -1.9916e-05 0)
(0.070955 -2.21995e-05 0)
(0.0709539 -2.44521e-05 0)
(0.0709528 -2.66915e-05 0)
(0.0709519 -2.8894e-05 0)
(0.0709512 -3.10619e-05 0)
(0.0709509 -3.31956e-05 0)
(0.0709507 -3.52991e-05 0)
(0.0709617 -1.57953e-06 0)
(0.0709568 -3.68664e-06 0)
(0.0709564 -5.99695e-06 0)
(0.0709559 -8.33423e-06 0)
(0.0709552 -1.06676e-05 0)
(0.0709544 -1.30014e-05 0)
(0.0709534 -1.53175e-05 0)
(0.0709524 -1.76322e-05 0)
(0.0709513 -1.99213e-05 0)
(0.0709502 -2.22055e-05 0)
(0.0709491 -2.44588e-05 0)
(0.0709481 -2.66989e-05 0)
(0.0709472 -2.89022e-05 0)
(0.0709465 -3.10709e-05 0)
(0.0709461 -3.32053e-05 0)
(0.070946 -3.53094e-05 0)
(0.0709569 -1.57994e-06 0)
(0.070952 -3.68754e-06 0)
(0.0709517 -5.99842e-06 0)
(0.0709511 -8.33627e-06 0)
(0.0709504 -1.06702e-05 0)
(0.0709496 -1.30046e-05 0)
(0.0709487 -1.53213e-05 0)
(0.0709477 -1.76366e-05 0)
(0.0709466 -1.99264e-05 0)
(0.0709455 -2.22112e-05 0)
(0.0709444 -2.44652e-05 0)
(0.0709433 -2.6706e-05 0)
(0.0709424 -2.891e-05 0)
(0.0709417 -3.10794e-05 0)
(0.0709414 -3.32145e-05 0)
(0.0709412 -3.53192e-05 0)
(0.0709522 -1.58033e-06 0)
(0.0709473 -3.68832e-06 0)
(0.0709469 -5.9997e-06 0)
(0.0709464 -8.33806e-06 0)
(0.0709457 -1.06725e-05 0)
(0.0709449 -1.30075e-05 0)
(0.0709439 -1.53247e-05 0)
(0.0709429 -1.76406e-05 0)
(0.0709418 -1.9931e-05 0)
(0.0709407 -2.22164e-05 0)
(0.0709396 -2.44711e-05 0)
(0.0709386 -2.67125e-05 0)
(0.0709377 -2.89172e-05 0)
(0.070937 -3.10872e-05 0)
(0.0709366 -3.32229e-05 0)
(0.0709365 -3.53283e-05 0)
(0.0709474 -1.58067e-06 0)
(0.0709425 -3.68897e-06 0)
(0.0709422 -6.00076e-06 0)
(0.0709416 -8.33957e-06 0)
(0.0709409 -1.06745e-05 0)
(0.0709401 -1.30099e-05 0)
(0.0709392 -1.53277e-05 0)
(0.0709382 -1.76441e-05 0)
(0.0709371 -1.99351e-05 0)
(0.070936 -2.2221e-05 0)
(0.0709349 -2.44763e-05 0)
(0.0709338 -2.67183e-05 0)
(0.0709329 -2.89236e-05 0)
(0.0709322 -3.10942e-05 0)
(0.0709319 -3.32305e-05 0)
(0.0709317 -3.53364e-05 0)
(0.0709427 -1.58095e-06 0)
(0.0709378 -3.6895e-06 0)
(0.0709374 -6.00163e-06 0)
(0.0709369 -8.3408e-06 0)
(0.0709362 -1.06761e-05 0)
(0.0709354 -1.30119e-05 0)
(0.0709344 -1.53302e-05 0)
(0.0709334 -1.76471e-05 0)
(0.0709323 -1.99385e-05 0)
(0.0709312 -2.2225e-05 0)
(0.0709301 -2.44809e-05 0)
(0.0709291 -2.67234e-05 0)
(0.0709282 -2.89292e-05 0)
(0.0709275 -3.11003e-05 0)
(0.0709271 -3.32372e-05 0)
(0.070927 -3.53438e-05 0)
(0.0709379 -1.58117e-06 0)
(0.070933 -3.68992e-06 0)
(0.0709326 -6.00233e-06 0)
(0.0709321 -8.3418e-06 0)
(0.0709314 -1.06774e-05 0)
(0.0709306 -1.30136e-05 0)
(0.0709297 -1.53323e-05 0)
(0.0709287 -1.76496e-05 0)
(0.0709276 -1.99415e-05 0)
(0.0709264 -2.22284e-05 0)
(0.0709254 -2.44848e-05 0)
(0.0709243 -2.67278e-05 0)
(0.0709234 -2.89341e-05 0)
(0.0709227 -3.11058e-05 0)
(0.0709223 -3.32431e-05 0)
(0.0709222 -3.53504e-05 0)
(0.0709332 -1.58135e-06 0)
(0.0709283 -3.69026e-06 0)
(0.0709279 -6.00291e-06 0)
(0.0709274 -8.34263e-06 0)
(0.0709267 -1.06786e-05 0)
(0.0709259 -1.3015e-05 0)
(0.0709249 -1.53341e-05 0)
(0.0709239 -1.76517e-05 0)
(0.0709228 -1.99441e-05 0)
(0.0709217 -2.22314e-05 0)
(0.0709206 -2.44882e-05 0)
(0.0709196 -2.67316e-05 0)
(0.0709187 -2.89385e-05 0)
(0.070918 -3.11106e-05 0)
(0.0709176 -3.32485e-05 0)
(0.0709175 -3.53564e-05 0)
(0.0709284 -1.5815e-06 0)
(0.0709235 -3.69057e-06 0)
(0.0709231 -6.00341e-06 0)
(0.0709226 -8.34337e-06 0)
(0.0709219 -1.06795e-05 0)
(0.0709211 -1.30163e-05 0)
(0.0709202 -1.53356e-05 0)
(0.0709192 -1.76536e-05 0)
(0.0709181 -1.99463e-05 0)
(0.0709169 -2.2234e-05 0)
(0.0709158 -2.44913e-05 0)
(0.0709148 -2.67351e-05 0)
(0.0709139 -2.89424e-05 0)
(0.0709132 -3.1115e-05 0)
(0.0709128 -3.32534e-05 0)
(0.0709127 -3.53619e-05 0)
(0.0709237 -1.58162e-06 0)
(0.0709188 -3.69085e-06 0)
(0.0709184 -6.00389e-06 0)
(0.0709179 -8.34405e-06 0)
(0.0709172 -1.06805e-05 0)
(0.0709164 -1.30175e-05 0)
(0.0709154 -1.53371e-05 0)
(0.0709144 -1.76554e-05 0)
(0.0709133 -1.99485e-05 0)
(0.0709122 -2.22365e-05 0)
(0.0709111 -2.44942e-05 0)
(0.07091 -2.67383e-05 0)
(0.0709092 -2.89461e-05 0)
(0.0709085 -3.11192e-05 0)
(0.0709081 -3.3258e-05 0)
(0.070908 -3.53672e-05 0)
(0.0709189 -1.58175e-06 0)
(0.070914 -3.69116e-06 0)
(0.0709136 -6.0044e-06 0)
(0.0709131 -8.34478e-06 0)
(0.0709124 -1.06814e-05 0)
(0.0709116 -1.30187e-05 0)
(0.0709107 -1.53386e-05 0)
(0.0709096 -1.76572e-05 0)
(0.0709085 -1.99506e-05 0)
(0.0709074 -2.22389e-05 0)
(0.0709063 -2.44971e-05 0)
(0.0709053 -2.67415e-05 0)
(0.0709044 -2.89497e-05 0)
(0.0709037 -3.11233e-05 0)
(0.0709033 -3.32626e-05 0)
(0.0709032 -3.53724e-05 0)
(0.0709142 -1.58188e-06 0)
(0.0709093 -3.69149e-06 0)
(0.0709089 -6.00494e-06 0)
(0.0709084 -8.34554e-06 0)
(0.0709077 -1.06824e-05 0)
(0.0709069 -1.30199e-05 0)
(0.0709059 -1.53402e-05 0)
(0.0709049 -1.76591e-05 0)
(0.0709038 -1.99529e-05 0)
(0.0709027 -2.22415e-05 0)
(0.0709016 -2.45001e-05 0)
(0.0709005 -2.67449e-05 0)
(0.0708997 -2.89535e-05 0)
(0.0708989 -3.11275e-05 0)
(0.0708986 -3.32672e-05 0)
(0.0708984 -3.53776e-05 0)
(0.0709094 -1.58202e-06 0)
(0.0709045 -3.69187e-06 0)
(0.0709041 -6.00557e-06 0)
(0.0709036 -8.34643e-06 0)
(0.0709029 -1.06836e-05 0)
(0.0709021 -1.30214e-05 0)
(0.0709011 -1.5342e-05 0)
(0.0709001 -1.76611e-05 0)
(0.070899 -1.99554e-05 0)
(0.0708979 -2.22442e-05 0)
(0.0708968 -2.45033e-05 0)
(0.0708958 -2.67484e-05 0)
(0.0708949 -2.89575e-05 0)
(0.0708942 -3.11319e-05 0)
(0.0708938 -3.32721e-05 0)
(0.0708937 -3.5383e-05 0)
(0.0709046 -1.58218e-06 0)
(0.0708998 -3.69231e-06 0)
(0.0708994 -6.00629e-06 0)
(0.0708989 -8.34744e-06 0)
(0.0708981 -1.06849e-05 0)
(0.0708973 -1.3023e-05 0)
(0.0708964 -1.5344e-05 0)
(0.0708954 -1.76634e-05 0)
(0.0708943 -1.99581e-05 0)
(0.0708932 -2.22472e-05 0)
(0.0708921 -2.45068e-05 0)
(0.070891 -2.67522e-05 0)
(0.0708901 -2.89618e-05 0)
(0.0708894 -3.11366e-05 0)
(0.070889 -3.32773e-05 0)
(0.0708889 -3.53887e-05 0)
(0.0708999 -1.58237e-06 0)
(0.070895 -3.69281e-06 0)
(0.0708946 -6.0071e-06 0)
(0.0708941 -8.34858e-06 0)
(0.0708934 -1.06864e-05 0)
(0.0708926 -1.30248e-05 0)
(0.0708916 -1.53462e-05 0)
(0.0708906 -1.7666e-05 0)
(0.0708895 -1.9961e-05 0)
(0.0708884 -2.22506e-05 0)
(0.0708873 -2.45106e-05 0)
(0.0708863 -2.67564e-05 0)
(0.0708854 -2.89664e-05 0)
(0.0708847 -3.11417e-05 0)
(0.0708843 -3.32828e-05 0)
(0.0708842 -3.53946e-05 0)
(0.0708951 -1.58258e-06 0)
(0.0708902 -3.69336e-06 0)
(0.0708898 -6.00801e-06 0)
(0.0708893 -8.34984e-06 0)
(0.0708886 -1.0688e-05 0)
(0.0708878 -1.30268e-05 0)
(0.0708869 -1.53486e-05 0)
(0.0708859 -1.76688e-05 0)
(0.0708848 -1.99643e-05 0)
(0.0708836 -2.22542e-05 0)
(0.0708825 -2.45147e-05 0)
(0.0708815 -2.67609e-05 0)
(0.0708806 -2.89714e-05 0)
(0.0708799 -3.1147e-05 0)
(0.0708795 -3.32886e-05 0)
(0.0708794 -3.54007e-05 0)
(0.0708904 -1.58281e-06 0)
(0.0708855 -3.69396e-06 0)
(0.0708851 -6.00899e-06 0)
(0.0708846 -8.3512e-06 0)
(0.0708839 -1.06898e-05 0)
(0.0708831 -1.30289e-05 0)
(0.0708821 -1.53512e-05 0)
(0.0708811 -1.76717e-05 0)
(0.07088 -1.99677e-05 0)
(0.0708789 -2.2258e-05 0)
(0.0708778 -2.4519e-05 0)
(0.0708767 -2.67655e-05 0)
(0.0708758 -2.89765e-05 0)
(0.0708751 -3.11525e-05 0)
(0.0708748 -3.32945e-05 0)
(0.0708746 -3.54069e-05 0)
(0.0708856 -1.58307e-06 0)
(0.0708807 -3.6946e-06 0)
(0.0708803 -6.01004e-06 0)
(0.0708798 -8.35264e-06 0)
(0.0708791 -1.06917e-05 0)
(0.0708783 -1.30312e-05 0)
(0.0708773 -1.53539e-05 0)
(0.0708763 -1.76748e-05 0)
(0.0708752 -1.99713e-05 0)
(0.0708741 -2.22619e-05 0)
(0.070873 -2.45234e-05 0)
(0.070872 -2.67703e-05 0)
(0.0708711 -2.89817e-05 0)
(0.0708704 -3.11581e-05 0)
(0.07087 -3.33004e-05 0)
(0.0708699 -3.54131e-05 0)
(0.0708809 -1.58335e-06 0)
(0.070876 -3.69525e-06 0)
(0.0708756 -6.0111e-06 0)
(0.0708751 -8.35411e-06 0)
(0.0708744 -1.06936e-05 0)
(0.0708735 -1.30334e-05 0)
(0.0708726 -1.53567e-05 0)
(0.0708716 -1.76779e-05 0)
(0.0708705 -1.99749e-05 0)
(0.0708693 -2.22658e-05 0)
(0.0708682 -2.45278e-05 0)
(0.0708672 -2.6775e-05 0)
(0.0708663 -2.89869e-05 0)
(0.0708656 -3.11636e-05 0)
(0.0708652 -3.33063e-05 0)
(0.0708651 -3.54193e-05 0)
(0.0708761 -1.58363e-06 0)
(0.0708712 -3.69589e-06 0)
(0.0708708 -6.01215e-06 0)
(0.0708703 -8.35555e-06 0)
(0.0708696 -1.06954e-05 0)
(0.0708688 -1.30356e-05 0)
(0.0708678 -1.53593e-05 0)
(0.0708668 -1.76808e-05 0)
(0.0708657 -1.99783e-05 0)
(0.0708646 -2.22695e-05 0)
(0.0708635 -2.4532e-05 0)
(0.0708624 -2.67795e-05 0)
(0.0708616 -2.89919e-05 0)
(0.0708608 -3.11689e-05 0)
(0.0708605 -3.3312e-05 0)
(0.0708603 -3.54252e-05 0)
(0.0708713 -1.5839e-06 0)
(0.0708664 -3.69649e-06 0)
(0.070866 -6.01312e-06 0)
(0.0708655 -8.35688e-06 0)
(0.0708648 -1.06972e-05 0)
(0.070864 -1.30377e-05 0)
(0.0708631 -1.53618e-05 0)
(0.070862 -1.76836e-05 0)
(0.0708609 -1.99815e-05 0)
(0.0708598 -2.2273e-05 0)
(0.0708587 -2.4536e-05 0)
(0.0708577 -2.67837e-05 0)
(0.0708568 -2.89965e-05 0)
(0.0708561 -3.11738e-05 0)
(0.0708557 -3.33173e-05 0)
(0.0708556 -3.54308e-05 0)
(0.0708666 -1.58416e-06 0)
(0.0708617 -3.69704e-06 0)
(0.0708613 -6.01402e-06 0)
(0.0708608 -8.35809e-06 0)
(0.0708601 -1.06987e-05 0)
(0.0708593 -1.30395e-05 0)
(0.0708583 -1.53641e-05 0)
(0.0708573 -1.76861e-05 0)
(0.0708562 -1.99844e-05 0)
(0.0708551 -2.22761e-05 0)
(0.0708539 -2.45395e-05 0)
(0.0708529 -2.67875e-05 0)
(0.070852 -2.90007e-05 0)
(0.0708513 -3.11783e-05 0)
(0.0708509 -3.33223e-05 0)
(0.0708508 -3.54361e-05 0)
(0.0708618 -1.58439e-06 0)
(0.0708569 -3.6975e-06 0)
(0.0708565 -6.01477e-06 0)
(0.070856 -8.35911e-06 0)
(0.0708553 -1.07001e-05 0)
(0.0708545 -1.3041e-05 0)
(0.0708535 -1.5366e-05 0)
(0.0708525 -1.76882e-05 0)
(0.0708514 -1.99869e-05 0)
(0.0708503 -2.22787e-05 0)
(0.0708492 -2.45426e-05 0)
(0.0708481 -2.67908e-05 0)
(0.0708473 -2.90045e-05 0)
(0.0708465 -3.11824e-05 0)
(0.0708462 -3.33267e-05 0)
(0.070846 -3.54409e-05 0)
(0.070857 -1.58459e-06 0)
(0.0708521 -3.69788e-06 0)
(0.0708518 -6.01539e-06 0)
(0.0708512 -8.35995e-06 0)
(0.0708505 -1.07012e-05 0)
(0.0708497 -1.30423e-05 0)
(0.0708488 -1.53676e-05 0)
(0.0708477 -1.76899e-05 0)
(0.0708466 -1.9989e-05 0)
(0.0708455 -2.2281e-05 0)
(0.0708444 -2.45453e-05 0)
(0.0708434 -2.67937e-05 0)
(0.0708425 -2.90078e-05 0)
(0.0708418 -3.1186e-05 0)
(0.0708414 -3.33307e-05 0)
(0.0708413 -3.54452e-05 0)
(0.0708523 -1.58476e-06 0)
(0.0708474 -3.69818e-06 0)
(0.070847 -6.01589e-06 0)
(0.0708465 -8.3606e-06 0)
(0.0708458 -1.07021e-05 0)
(0.070845 -1.30433e-05 0)
(0.070844 -1.53689e-05 0)
(0.070843 -1.76913e-05 0)
(0.0708419 -1.99907e-05 0)
(0.0708408 -2.22828e-05 0)
(0.0708396 -2.45475e-05 0)
(0.0708386 -2.6796e-05 0)
(0.0708377 -2.90106e-05 0)
(0.070837 -3.11891e-05 0)
(0.0708366 -3.33342e-05 0)
(0.0708365 -3.54491e-05 0)
(0.0708475 -1.58488e-06 0)
(0.0708426 -3.69841e-06 0)
(0.0708422 -6.01628e-06 0)
(0.0708417 -8.36111e-06 0)
(0.070841 -1.07028e-05 0)
(0.0708402 -1.30441e-05 0)
(0.0708392 -1.537e-05 0)
(0.0708382 -1.76923e-05 0)
(0.0708371 -1.99922e-05 0)
(0.070836 -2.22842e-05 0)
(0.0708349 -2.45493e-05 0)
(0.0708338 -2.6798e-05 0)
(0.0708329 -2.90129e-05 0)
(0.0708322 -3.11918e-05 0)
(0.0708319 -3.33373e-05 0)
(0.0708317 -3.54527e-05 0)
(0.0708428 -1.58499e-06 0)
(0.0708379 -3.69864e-06 0)
(0.0708375 -6.01665e-06 0)
(0.070837 -8.36158e-06 0)
(0.0708362 -1.07035e-05 0)
(0.0708354 -1.30448e-05 0)
(0.0708345 -1.53709e-05 0)
(0.0708334 -1.76933e-05 0)
(0.0708323 -1.99934e-05 0)
(0.0708312 -2.22855e-05 0)
(0.0708301 -2.45509e-05 0)
(0.0708291 -2.67997e-05 0)
(0.0708282 -2.90151e-05 0)
(0.0708275 -3.11942e-05 0)
(0.0708271 -3.33402e-05 0)
(0.070827 -3.54561e-05 0)
(0.070838 -1.58508e-06 0)
(0.0708331 -3.69887e-06 0)
(0.0708327 -6.01704e-06 0)
(0.0708322 -8.36208e-06 0)
(0.0708315 -1.07042e-05 0)
(0.0708307 -1.30455e-05 0)
(0.0708297 -1.53719e-05 0)
(0.0708287 -1.76942e-05 0)
(0.0708276 -1.99947e-05 0)
(0.0708264 -2.22867e-05 0)
(0.0708253 -2.45525e-05 0)
(0.0708243 -2.68014e-05 0)
(0.0708234 -2.90171e-05 0)
(0.0708227 -3.11966e-05 0)
(0.0708223 -3.3343e-05 0)
(0.0708222 -3.54596e-05 0)
(0.0708332 -1.58518e-06 0)
(0.0708283 -3.69921e-06 0)
(0.0708279 -6.0176e-06 0)
(0.0708274 -8.36279e-06 0)
(0.0708267 -1.07051e-05 0)
(0.0708259 -1.30465e-05 0)
(0.0708249 -1.53732e-05 0)
(0.0708239 -1.76954e-05 0)
(0.0708228 -1.99962e-05 0)
(0.0708217 -2.22881e-05 0)
(0.0708206 -2.45544e-05 0)
(0.0708195 -2.68033e-05 0)
(0.0708186 -2.90194e-05 0)
(0.0708179 -3.11992e-05 0)
(0.0708175 -3.33461e-05 0)
(0.0708174 -3.54633e-05 0)
(0.0708285 -1.58533e-06 0)
(0.0708236 -3.69973e-06 0)
(0.0708232 -6.01843e-06 0)
(0.0708227 -8.36385e-06 0)
(0.070822 -1.07065e-05 0)
(0.0708211 -1.30479e-05 0)
(0.0708202 -1.53751e-05 0)
(0.0708192 -1.76972e-05 0)
(0.070818 -1.99984e-05 0)
(0.0708169 -2.22902e-05 0)
(0.0708158 -2.45568e-05 0)
(0.0708148 -2.68057e-05 0)
(0.0708139 -2.90223e-05 0)
(0.0708131 -3.12023e-05 0)
(0.0708128 -3.33498e-05 0)
(0.0708126 -3.54678e-05 0)
(0.0708237 -1.58555e-06 0)
(0.0708188 -3.70052e-06 0)
(0.0708184 -6.01971e-06 0)
(0.0708179 -8.36553e-06 0)
(0.0708172 -1.07087e-05 0)
(0.0708164 -1.30503e-05 0)
(0.0708154 -1.53779e-05 0)
(0.0708144 -1.77e-05 0)
(0.0708133 -2.00017e-05 0)
(0.0708121 -2.22933e-05 0)
(0.070811 -2.45604e-05 0)
(0.07081 -2.68093e-05 0)
(0.0708091 -2.90262e-05 0)
(0.0708084 -3.12066e-05 0)
(0.070808 -3.33546e-05 0)
(0.0708079 -3.54733e-05 0)
(0.0708189 -1.58589e-06 0)
(0.070814 -3.70174e-06 0)
(0.0708137 -6.02167e-06 0)
(0.0708131 -8.36811e-06 0)
(0.0708124 -1.0712e-05 0)
(0.0708116 -1.30539e-05 0)
(0.0708107 -1.53822e-05 0)
(0.0708096 -1.77044e-05 0)
(0.0708085 -2.00066e-05 0)
(0.0708074 -2.22981e-05 0)
(0.0708063 -2.45657e-05 0)
(0.0708052 -2.68145e-05 0)
(0.0708043 -2.90319e-05 0)
(0.0708036 -3.12125e-05 0)
(0.0708032 -3.3361e-05 0)
(0.0708031 -3.54804e-05 0)
(0.0708142 -1.58641e-06 0)
(0.0708093 -3.70351e-06 0)
(0.0708089 -6.02453e-06 0)
(0.0708084 -8.3719e-06 0)
(0.0708077 -1.07168e-05 0)
(0.0708068 -1.30593e-05 0)
(0.0708059 -1.53885e-05 0)
(0.0708049 -1.77109e-05 0)
(0.0708037 -2.00139e-05 0)
(0.0708026 -2.23053e-05 0)
(0.0708015 -2.45734e-05 0)
(0.0708004 -2.68221e-05 0)
(0.0707995 -2.90398e-05 0)
(0.0707988 -3.12207e-05 0)
(0.0707984 -3.33696e-05 0)
(0.0707983 -3.54898e-05 0)
(0.0708094 -1.58718e-06 0)
(0.0708045 -3.70606e-06 0)
(0.0708041 -6.02861e-06 0)
(0.0708036 -8.37737e-06 0)
(0.0708029 -1.07237e-05 0)
(0.0708021 -1.30672e-05 0)
(0.0708011 -1.53976e-05 0)
(0.0708001 -1.77204e-05 0)
(0.070799 -2.00243e-05 0)
(0.0707978 -2.23156e-05 0)
(0.0707967 -2.45844e-05 0)
(0.0707957 -2.68328e-05 0)
(0.0707948 -2.9051e-05 0)
(0.070794 -3.12319e-05 0)
(0.0707936 -3.33812e-05 0)
(0.0707935 -3.55021e-05 0)
(0.0708047 -1.58827e-06 0)
(0.0707998 -3.70957e-06 0)
(0.0707994 -6.03427e-06 0)
(0.0707988 -8.38495e-06 0)
(0.0707981 -1.07333e-05 0)
(0.0707973 -1.30781e-05 0)
(0.0707964 -1.54102e-05 0)
(0.0707953 -1.77337e-05 0)
(0.0707942 -2.00387e-05 0)
(0.0707931 -2.23301e-05 0)
(0.070792 -2.45996e-05 0)
(0.0707909 -2.68478e-05 0)
(0.07079 -2.90663e-05 0)
(0.0707893 -3.12471e-05 0)
(0.0707889 -3.33966e-05 0)
(0.0707887 -3.55181e-05 0)
(0.0707999 -1.58978e-06 0)
(0.070795 -3.71429e-06 0)
(0.0707946 -6.04186e-06 0)
(0.0707941 -8.39519e-06 0)
(0.0707934 -1.07461e-05 0)
(0.0707925 -1.30929e-05 0)
(0.0707916 -1.54272e-05 0)
(0.0707906 -1.77518e-05 0)
(0.0707894 -2.00584e-05 0)
(0.0707883 -2.235e-05 0)
(0.0707872 -2.46203e-05 0)
(0.0707861 -2.68681e-05 0)
(0.0707852 -2.90868e-05 0)
(0.0707845 -3.12674e-05 0)
(0.0707841 -3.3417e-05 0)
(0.0707839 -3.5539e-05 0)
(0.0707951 -1.5918e-06 0)
(0.0707902 -3.7205e-06 0)
(0.0707898 -6.05186e-06 0)
(0.0707893 -8.40869e-06 0)
(0.0707886 -1.07631e-05 0)
(0.0707878 -1.31126e-05 0)
(0.0707868 -1.54497e-05 0)
(0.0707858 -1.77759e-05 0)
(0.0707847 -2.00844e-05 0)
(0.0707835 -2.23765e-05 0)
(0.0707824 -2.46478e-05 0)
(0.0707814 -2.68953e-05 0)
(0.0707804 -2.91141e-05 0)
(0.0707797 -3.12942e-05 0)
(0.0707793 -3.34436e-05 0)
(0.0707791 -3.55659e-05 0)
(0.0707903 -1.59446e-06 0)
(0.0707854 -3.72843e-06 0)
(0.070785 -6.06464e-06 0)
(0.0707845 -8.42601e-06 0)
(0.0707838 -1.07849e-05 0)
(0.070783 -1.3138e-05 0)
(0.0707821 -1.54787e-05 0)
(0.070781 -1.78072e-05 0)
(0.0707799 -2.01184e-05 0)
(0.0707788 -2.24113e-05 0)
(0.0707776 -2.4684e-05 0)
(0.0707766 -2.6931e-05 0)
(0.0707757 -2.915e-05 0)
(0.0707749 -3.13292e-05 0)
(0.0707745 -3.34781e-05 0)
(0.0707743 -3.56004e-05 0)
(0.0707856 -1.59787e-06 0)
(0.0707806 -3.73839e-06 0)
(0.0707803 -6.08069e-06 0)
(0.0707797 -8.44784e-06 0)
(0.070779 -1.08123e-05 0)
(0.0707782 -1.31702e-05 0)
(0.0707773 -1.55157e-05 0)
(0.0707762 -1.78473e-05 0)
(0.0707751 -2.0162e-05 0)
(0.070774 -2.24562e-05 0)
(0.0707729 -2.47307e-05 0)
(0.0707718 -2.69774e-05 0)
(0.0707709 -2.91966e-05 0)
(0.0707701 -3.13746e-05 0)
(0.0707697 -3.35227e-05 0)
(0.0707695 -3.56446e-05 0)
(0.0707808 -1.60214e-06 0)
(0.0707758 -3.75061e-06 0)
(0.0707755 -6.10042e-06 0)
(0.0707749 -8.47476e-06 0)
(0.0707743 -1.08463e-05 0)
(0.0707734 -1.32102e-05 0)
(0.0707725 -1.55616e-05 0)
(0.0707715 -1.78977e-05 0)
(0.0707704 -2.02168e-05 0)
(0.0707692 -2.25131e-05 0)
(0.0707681 -2.47903e-05 0)
(0.070767 -2.70369e-05 0)
(0.0707661 -2.92566e-05 0)
(0.0707654 -3.1433e-05 0)
(0.0707649 -3.358e-05 0)
(0.0707647 -3.57009e-05 0)
(0.070776 -1.60738e-06 0)
(0.070771 -3.7653e-06 0)
(0.0707707 -6.12416e-06 0)
(0.0707701 -8.50725e-06 0)
(0.0707694 -1.08873e-05 0)
(0.0707686 -1.32589e-05 0)
(0.0707677 -1.56178e-05 0)
(0.0707667 -1.79596e-05 0)
(0.0707656 -2.02846e-05 0)
(0.0707644 -2.25843e-05 0)
(0.0707633 -2.48653e-05 0)
(0.0707623 -2.71124e-05 0)
(0.0707613 -2.93332e-05 0)
(0.0707606 -3.15077e-05 0)
(0.0707601 -3.3653e-05 0)
(0.0707599 -3.5772e-05 0)
(0.0707712 -1.61368e-06 0)
(0.0707662 -3.78258e-06 0)
(0.0707658 -6.15212e-06 0)
(0.0707653 -8.54566e-06 0)
(0.0707646 -1.0936e-05 0)
(0.0707638 -1.33169e-05 0)
(0.0707629 -1.5685e-05 0)
(0.0707619 -1.80344e-05 0)
(0.0707608 -2.03671e-05 0)
(0.0707597 -2.26717e-05 0)
(0.0707585 -2.49582e-05 0)
(0.0707575 -2.72071e-05 0)
(0.0707566 -2.94302e-05 0)
(0.0707558 -3.16033e-05 0)
(0.0707554 -3.37471e-05 0)
(0.0707551 -3.58628e-05 0)
(0.0707663 -1.62109e-06 0)
(0.0707613 -3.80243e-06 0)
(0.070761 -6.1843e-06 0)
(0.0707605 -8.58998e-06 0)
(0.0707598 -1.09923e-05 0)
(0.070759 -1.33844e-05 0)
(0.0707581 -1.57635e-05 0)
(0.0707571 -1.81225e-05 0)
(0.070756 -2.04649e-05 0)
(0.0707549 -2.27767e-05 0)
(0.0707538 -2.50713e-05 0)
(0.0707527 -2.73242e-05 0)
(0.0707518 -2.95528e-05 0)
(0.070751 -3.17268e-05 0)
(0.0707506 -3.38717e-05 0)
(0.0707503 -3.59858e-05 0)
(0.0707615 -1.6296e-06 0)
(0.0707565 -3.82466e-06 0)
(0.0707561 -6.22036e-06 0)
(0.0707556 -8.6398e-06 0)
(0.0707549 -1.10557e-05 0)
(0.0707541 -1.34609e-05 0)
(0.0707532 -1.58529e-05 0)
(0.0707522 -1.82236e-05 0)
(0.0707512 -2.0578e-05 0)
(0.0707501 -2.28995e-05 0)
(0.070749 -2.5205e-05 0)
(0.0707479 -2.74652e-05 0)
(0.070747 -2.97035e-05 0)
(0.0707463 -3.18829e-05 0)
(0.0707458 -3.40358e-05 0)
(0.0707455 -3.61553e-05 0)
(0.0707566 -1.63913e-06 0)
(0.0707515 -3.84885e-06 0)
(0.0707512 -6.25964e-06 0)
(0.0707507 -8.69423e-06 0)
(0.07075 -1.11251e-05 0)
(0.0707493 -1.3545e-05 0)
(0.0707484 -1.59515e-05 0)
(0.0707474 -1.8336e-05 0)
(0.0707463 -2.07042e-05 0)
(0.0707452 -2.30377e-05 0)
(0.0707442 -2.53567e-05 0)
(0.0707431 -2.76266e-05 0)
(0.0707422 -2.98782e-05 0)
(0.0707415 -3.20662e-05 0)
(0.070741 -3.42318e-05 0)
(0.0707408 -3.63611e-05 0)
(0.0707517 -1.64949e-06 0)
(0.0707466 -3.87434e-06 0)
(0.0707463 -6.3011e-06 0)
(0.0707458 -8.75178e-06 0)
(0.0707451 -1.11986e-05 0)
(0.0707443 -1.36345e-05 0)
(0.0707435 -1.60565e-05 0)
(0.0707425 -1.84563e-05 0)
(0.0707415 -2.08398e-05 0)
(0.0707404 -2.31871e-05 0)
(0.0707393 -2.55213e-05 0)
(0.0707383 -2.78026e-05 0)
(0.0707374 -3.00694e-05 0)
(0.0707367 -3.22662e-05 0)
(0.0707362 -3.44453e-05 0)
(0.070736 -3.65832e-05 0)
(0.0707467 -1.66042e-06 0)
(0.0707416 -3.90023e-06 0)
(0.0707413 -6.34321e-06 0)
(0.0707408 -8.81034e-06 0)
(0.0707402 -1.12736e-05 0)
(0.0707394 -1.37259e-05 0)
(0.0707385 -1.61642e-05 0)
(0.0707376 -1.85803e-05 0)
(0.0707366 -2.09798e-05 0)
(0.0707355 -2.33422e-05 0)
(0.0707345 -2.56924e-05 0)
(0.0707335 -2.79859e-05 0)
(0.0707326 -3.02688e-05 0)
(0.0707319 -3.24731e-05 0)
(0.0707314 -3.46659e-05 0)
(0.0707312 -3.68103e-05 0)
(0.0707417 -1.67151e-06 0)
(0.0707366 -3.92537e-06 0)
(0.0707363 -6.38413e-06 0)
(0.0707358 -8.86735e-06 0)
(0.0707352 -1.13466e-05 0)
(0.0707344 -1.38154e-05 0)
(0.0707336 -1.62696e-05 0)
(0.0707326 -1.87023e-05 0)
(0.0707317 -2.11178e-05 0)
(0.0707306 -2.3496e-05 0)
(0.0707296 -2.58623e-05 0)
(0.0707287 -2.81686e-05 0)
(0.0707278 -3.04676e-05 0)
(0.0707271 -3.26775e-05 0)
(0.0707267 -3.48856e-05 0)
(0.0707264 -3.70327e-05 0)
(0.0707367 -1.68227e-06 0)
(0.0707315 -3.94837e-06 0)
(0.0707312 -6.42158e-06 0)
(0.0707307 -8.91964e-06 0)
(0.0707301 -1.14136e-05 0)
(0.0707294 -1.38977e-05 0)
(0.0707286 -1.63668e-05 0)
(0.0707277 -1.88154e-05 0)
(0.0707267 -2.1246e-05 0)
(0.0707257 -2.36399e-05 0)
(0.0707247 -2.60215e-05 0)
(0.0707238 -2.83412e-05 0)
(0.070723 -3.06555e-05 0)
(0.0707223 -3.28706e-05 0)
(0.0707219 -3.50966e-05 0)
(0.0707217 -3.7239e-05 0)
(0.0707317 -1.69212e-06 0)
(0.0707264 -3.96764e-06 0)
(0.0707261 -6.45297e-06 0)
(0.0707257 -8.96351e-06 0)
(0.0707251 -1.14698e-05 0)
(0.0707244 -1.39671e-05 0)
(0.0707236 -1.64486e-05 0)
(0.0707227 -1.89114e-05 0)
(0.0707217 -2.13547e-05 0)
(0.0707208 -2.37631e-05 0)
(0.0707198 -2.61581e-05 0)
(0.0707189 -2.84916e-05 0)
(0.0707182 -3.08202e-05 0)
(0.0707175 -3.30442e-05 0)
(0.0707171 -3.52878e-05 0)
(0.0707169 -3.74089e-05 0)
(0.0707266 -1.70037e-06 0)
(0.0707213 -3.98142e-06 0)
(0.070721 -6.47537e-06 0)
(0.0707206 -8.99481e-06 0)
(0.07072 -1.15097e-05 0)
(0.0707193 -1.40164e-05 0)
(0.0707185 -1.65067e-05 0)
(0.0707177 -1.89801e-05 0)
(0.0707167 -2.14326e-05 0)
(0.0707158 -2.38533e-05 0)
(0.0707149 -2.6259e-05 0)
(0.0707141 -2.86063e-05 0)
(0.0707133 -3.09481e-05 0)
(0.0707128 -3.31828e-05 0)
(0.0707124 -3.54317e-05 0)
(0.0707123 -3.75069e-05 0)
(0.0707214 -1.70627e-06 0)
(0.0707161 -3.98772e-06 0)
(0.0707158 -6.48559e-06 0)
(0.0707154 -9.00906e-06 0)
(0.0707149 -1.15277e-05 0)
(0.0707142 -1.4039e-05 0)
(0.0707134 -1.65335e-05 0)
(0.0707126 -1.90136e-05 0)
(0.0707117 -2.14719e-05 0)
(0.0707108 -2.39022e-05 0)
(0.07071 -2.63139e-05 0)
(0.0707092 -2.86699e-05 0)
(0.0707085 -3.10153e-05 0)
(0.070708 -3.32429e-05 0)
(0.0707077 -3.54676e-05 0)
(0.0707078 -3.7472e-05 0)
(0.0707163 -1.70897e-06 0)
(0.0707109 -3.98495e-06 0)
(0.0707107 -6.48126e-06 0)
(0.0707102 -9.00351e-06 0)
(0.0707097 -1.15212e-05 0)
(0.070709 -1.40329e-05 0)
(0.0707083 -1.65262e-05 0)
(0.0707075 -1.90068e-05 0)
(0.0707067 -2.14636e-05 0)
(0.0707058 -2.38933e-05 0)
(0.070705 -2.62947e-05 0)
(0.0707043 -2.86371e-05 0)
(0.0707037 -3.0955e-05 0)
(0.0707033 -3.3143e-05 0)
(0.0707032 -3.53111e-05 0)
(0.0707034 -3.7227e-05 0)
(0.0707111 -1.70777e-06 0)
(0.0707057 -3.97274e-06 0)
(0.0707054 -6.46147e-06 0)
(0.070705 -8.97607e-06 0)
(0.0707045 -1.14863e-05 0)
(0.0707039 -1.39899e-05 0)
(0.0707032 -1.647e-05 0)
(0.0707024 -1.89345e-05 0)
(0.0707016 -2.13669e-05 0)
(0.0707008 -2.37682e-05 0)
(0.0707001 -2.61284e-05 0)
(0.0706994 -2.8424e-05 0)
(0.0706989 -3.06784e-05 0)
(0.0706987 -3.27974e-05 0)
(0.0706988 -3.48822e-05 0)
(0.0706992 -3.67012e-05 0)
(0.0707058 -1.7025e-06 0)
(0.0707005 -3.94645e-06 0)
(0.0707002 -6.41727e-06 0)
(0.0706998 -8.91132e-06 0)
(0.0706993 -1.13965e-05 0)
(0.0706987 -1.38707e-05 0)
(0.0706981 -1.63135e-05 0)
(0.0706974 -1.87342e-05 0)
(0.0706966 -2.11106e-05 0)
(0.0706959 -2.34503e-05 0)
(0.0706953 -2.57357e-05 0)
(0.0706947 -2.79538e-05 0)
(0.0706944 -3.01158e-05 0)
(0.0706943 -3.21452e-05 0)
(0.0706945 -3.41287e-05 0)
(0.0706952 -3.58512e-05 0)
(0.0707006 -1.69126e-06 0)
(0.0706953 -3.89018e-06 0)
(0.070695 -6.3225e-06 0)
(0.0706947 -8.77295e-06 0)
(0.0706942 -1.12068e-05 0)
(0.0706937 -1.36228e-05 0)
(0.0706931 -1.59978e-05 0)
(0.0706924 -1.83434e-05 0)
(0.0706918 -2.06331e-05 0)
(0.0706912 -2.28814e-05 0)
(0.0706906 -2.50639e-05 0)
(0.0706902 -2.71802e-05 0)
(0.07069 -2.92292e-05 0)
(0.07069 -3.11564e-05 0)
(0.0706905 -3.30302e-05 0)
(0.0706914 -3.46645e-05 0)
(0.0706954 -1.66729e-06 0)
(0.0706901 -3.78639e-06 0)
(0.0706899 -6.14982e-06 0)
(0.0706896 -8.52561e-06 0)
(0.0706892 -1.0877e-05 0)
(0.0706887 -1.32037e-05 0)
(0.0706882 -1.54806e-05 0)
(0.0706877 -1.77222e-05 0)
(0.0706871 -1.98987e-05 0)
(0.0706866 -2.20314e-05 0)
(0.0706861 -2.409e-05 0)
(0.0706859 -2.60878e-05 0)
(0.0706858 -2.8011e-05 0)
(0.070686 -2.98302e-05 0)
(0.0706867 -3.15926e-05 0)
(0.0706879 -3.31505e-05 0)
(0.0706902 -1.62304e-06 0)
(0.0706852 -3.62367e-06 0)
(0.070685 -5.88217e-06 0)
(0.0706847 -8.14841e-06 0)
(0.0706844 -1.03846e-05 0)
(0.070684 -1.25916e-05 0)
(0.0706836 -1.47432e-05 0)
(0.0706831 -1.68562e-05 0)
(0.0706827 -1.88989e-05 0)
(0.0706823 -2.08986e-05 0)
(0.070682 -2.28195e-05 0)
(0.0706818 -2.46884e-05 0)
(0.0706819 -2.64793e-05 0)
(0.0706823 -2.81894e-05 0)
(0.0706832 -2.98421e-05 0)
(0.0706845 -3.13348e-05 0)
(0.0706853 -1.55356e-06 0)
(0.0706805 -3.39971e-06 0)
(0.0706804 -5.51675e-06 0)
(0.0706802 -7.63911e-06 0)
(0.0706799 -9.72951e-06 0)
(0.0706796 -1.17898e-05 0)
(0.0706792 -1.37931e-05 0)
(0.0706789 -1.57585e-05 0)
(0.0706786 -1.76523e-05 0)
(0.0706783 -1.95073e-05 0)
(0.0706781 -2.12822e-05 0)
(0.070678 -2.30168e-05 0)
(0.0706783 -2.4673e-05 0)
(0.0706789 -2.62748e-05 0)
(0.0706799 -2.78207e-05 0)
(0.0706815 -2.92573e-05 0)
(0.0706806 -1.45773e-06 0)
(0.0706762 -3.12165e-06 0)
(0.0706761 -5.06539e-06 0)
(0.0706759 -7.01431e-06 0)
(0.0706757 -8.93312e-06 0)
(0.0706755 -1.08246e-05 0)
(0.0706753 -1.2662e-05 0)
(0.070675 -1.44655e-05 0)
(0.0706748 -1.62002e-05 0)
(0.0706746 -1.79026e-05 0)
(0.0706745 -1.95273e-05 0)
(0.0706746 -2.11248e-05 0)
(0.070675 -2.26459e-05 0)
(0.0706757 -2.41405e-05 0)
(0.0706769 -2.55823e-05 0)
(0.0706786 -2.6969e-05 0)
(0.0706762 -1.33858e-06 0)
(0.0706723 -2.80402e-06 0)
(0.0706722 -4.5512e-06 0)
(0.0706721 -6.30514e-06 0)
(0.070672 -8.03369e-06 0)
(0.0706718 -9.74046e-06 0)
(0.0706717 -1.13994e-05 0)
(0.0706715 -1.30312e-05 0)
(0.0706714 -1.46001e-05 0)
(0.0706713 -1.61451e-05 0)
(0.0706713 -1.76172e-05 0)
(0.0706715 -1.9076e-05 0)
(0.070672 -2.04625e-05 0)
(0.0706728 -2.18505e-05 0)
(0.0706742 -2.31898e-05 0)
(0.070676 -2.4529e-05 0)
(0.0706723 -1.20231e-06 0)
(0.0706689 -2.46568e-06 0)
(0.0706689 -4.00398e-06 0)
(0.0706688 -5.55129e-06 0)
(0.0706687 -7.07928e-06 0)
(0.0706686 -8.59238e-06 0)
(0.0706685 -1.00658e-05 0)
(0.0706684 -1.152e-05 0)
(0.0706684 -1.29192e-05 0)
(0.0706684 -1.43036e-05 0)
(0.0706685 -1.5622e-05 0)
(0.0706688 -1.69409e-05 0)
(0.0706694 -1.81934e-05 0)
(0.0706703 -1.9474e-05 0)
(0.0706717 -2.0711e-05 0)
(0.0706736 -2.20018e-05 0)
(0.0706689 -1.05709e-06 0)
(0.070666 -2.12654e-06 0)
(0.0706659 -3.45517e-06 0)
(0.0706659 -4.79457e-06 0)
(0.0706658 -6.12046e-06 0)
(0.0706658 -7.43797e-06 0)
(0.0706657 -8.724e-06 0)
(0.0706657 -9.99876e-06 0)
(0.0706657 -1.1227e-05 0)
(0.0706658 -1.24497e-05 0)
(0.070666 -1.36142e-05 0)
(0.0706664 -1.47922e-05 0)
(0.070667 -1.59109e-05 0)
(0.070668 -1.7082e-05 0)
(0.0706695 -1.82155e-05 0)
(0.0706714 -1.94533e-05 0)
(0.070666 -9.11512e-07 0)
(0.0706635 -1.80456e-06 0)
(0.0706635 -2.93323e-06 0)
(0.0706635 -4.07306e-06 0)
(0.0706634 -5.2036e-06 0)
(0.0706634 -6.33048e-06 0)
(0.0706634 -7.43284e-06 0)
(0.0706634 -8.53044e-06 0)
(0.0706635 -9.58968e-06 0)
(0.0706637 -1.06512e-05 0)
(0.0706639 -1.1663e-05 0)
(0.0706643 -1.26993e-05 0)
(0.070665 -1.36844e-05 0)
(0.070666 -1.47431e-05 0)
(0.0706675 -1.57708e-05 0)
(0.0706694 -1.69484e-05 0)
(0.0706635 -7.73364e-07 0)
(0.0706615 -1.51341e-06 0)
(0.0706615 -2.46009e-06 0)
(0.0706615 -3.41656e-06 0)
(0.0706615 -4.36569e-06 0)
(0.0706615 -5.31337e-06 0)
(0.0706615 -6.24121e-06 0)
(0.0706616 -7.16852e-06 0)
(0.0706617 -8.06414e-06 0)
(0.0706619 -8.96806e-06 0)
(0.0706622 -9.82991e-06 0)
(0.0706626 -1.07252e-05 0)
(0.0706633 -1.15774e-05 0)
(0.0706643 -1.25203e-05 0)
(0.0706658 -1.34395e-05 0)
(0.0706676 -1.45476e-05 0)
(0.0706615 -6.48526e-07 0)
(0.0706598 -1.26092e-06 0)
(0.0706598 -2.04872e-06 0)
(0.0706598 -2.84349e-06 0)
(0.0706598 -3.63075e-06 0)
(0.0706599 -4.4162e-06 0)
(0.0706599 -5.18394e-06 0)
(0.07066 -5.95267e-06 0)
(0.0706602 -6.69422e-06 0)
(0.0706604 -7.44743e-06 0)
(0.0706607 -8.16497e-06 0)
(0.0706612 -8.92184e-06 0)
(0.0706619 -9.64319e-06 0)
(0.0706629 -1.04676e-05 0)
(0.0706643 -1.12762e-05 0)
(0.070666 -1.23041e-05 0)
(0.0706598 -5.40344e-07 0)
(0.0706585 -1.04888e-06 0)
(0.0706585 -1.70267e-06 0)
(0.0706585 -2.36002e-06 0)
(0.0706586 -3.00838e-06 0)
(0.0706586 -3.6528e-06 0)
(0.0706587 -4.27945e-06 0)
(0.0706588 -4.90605e-06 0)
(0.070659 -5.50751e-06 0)
(0.0706592 -6.12101e-06 0)
(0.0706596 -6.70321e-06 0)
(0.0706601 -7.32705e-06 0)
(0.0706608 -7.92184e-06 0)
(0.0706617 -8.6267e-06 0)
(0.070663 -9.32368e-06 0)
(0.0706646 -1.02611e-05 0)