/*--------------------------------*- C++ -*----------------------------------*\
  =========                 |
  \\      /  F ield         | OpenFOAM: The Open Source CFD Toolbox
   \\    /   O peration     | Website:  https://openfoam.org
    \\  /    A nd           | Version:  8
     \\/     M anipulation  |
\*---------------------------------------------------------------------------*/
FoamFile
{
    version     2.0;
    format      ascii;
    class       volVectorField;
    location    "0.0520000";
    object      U_0;
}
// * * * * * * * * * * * * * * * * * * * * * * * * * * * * * * * * * * * * * //

dimensions      [0 1 -1 0 0 0 0];

internalField   nonuniform List<vector> 
900
(
(0.733938784490167 0.000359300335176894 -1.42883114238406e-18)
(0.734485436089845 0.000207197974651767 -8.8368109674957e-18)
(0.734506902118358 0.000164793587248959 1.83848649620628e-18)
(0.734625775686028 0.000187884815181163 7.54769715598745e-19)
(0.734606983574287 0.000195186290594971 -1.44836051402717e-18)
(0.734547238391616 0.000201249725654138 -6.0653884772131e-18)
(0.734470920874196 0.000205781020359366 -2.37698238814806e-18)
(0.73439080592568 0.000208861886104828 7.49512648678326e-18)
(0.734308876533655 0.000211141972760169 5.00951954623354e-18)
(0.73422722738924 0.000213516533222552 6.27752242976272e-18)
(0.73414536932955 0.000216500139976672 4.95685964272092e-17)
(0.734061310703006 0.000218897451758227 1.81914104430464e-17)
(0.73397484896236 0.000220798125269422 1.01965891528573e-17)
(0.733887701418044 0.000222920272953853 1.21565012857181e-17)
(0.733799205230664 0.00022531872830972 3.09665161049695e-17)
(0.733708322421347 0.000227097114395451 9.17097540041242e-18)
(0.733616148693877 0.000228748100846939 3.78865892683897e-17)
(0.733522112920586 0.000231004342411723 -1.63925588363701e-17)
(0.733425760244268 0.000233241227322612 2.04657392569613e-17)
(0.733326674652503 0.000235101861851427 -1.81177901903613e-18)
(0.733224304061764 0.000236828039265377 -6.58727661124811e-17)
(0.733121103825932 0.00023892684487578 2.36451035645247e-17)
(0.733016964157971 0.000240913878062558 1.26032269825567e-17)
(0.732909388055861 0.000242846815857803 -1.10350495718659e-17)
(0.732798540305501 0.0002449468637203 -3.58345754772214e-17)
(0.732685562576909 0.000247716903236436 -2.90454285135705e-17)
(0.732570105612676 0.000249956256211742 3.59745960775786e-18)
(0.732451348588251 0.000251927715044448 -7.70368974694671e-18)
(0.732331048686274 0.00025429082008607 -5.1736189984555e-18)
(0.732209348316646 0.000257474310236786 1.13815335071808e-18)
(0.732084334796778 0.000260210230318746 -3.3917664341961e-18)
(0.731955726792875 0.000262788797542287 9.84366934008181e-18)
(0.731826064348175 0.000266196642662784 -1.42856083857152e-17)
(0.731695723375549 0.000270183377136272 4.32806127084965e-17)
(0.73156259342826 0.000273702203504883 6.41774548346213e-17)
(0.731426849823194 0.000277516615612192 3.16105497207315e-18)
(0.731289990318797 0.000283182773051673 -5.8691990124414e-17)
(0.731153120751897 0.000288760317598523 1.05172441530362e-16)
(0.731015019583807 0.000293994628817494 2.60795990843203e-17)
(0.730874928290071 0.00030004984858815 -9.16798830345197e-18)
(0.730738328474581 0.000309659900979923 4.15680908097671e-17)
(0.730606028471807 0.000317989580698302 7.51363935375597e-17)
(0.730473919795785 0.000326714904973773 6.66120522295498e-17)
(0.730343847671664 0.00033804879406308 7.12131174767045e-17)
(0.730222352213347 0.000353863496254492 -1.61627233617927e-17)
(0.730110606810621 0.000367731385869578 -7.26609970941745e-17)
(0.730006606594236 0.000382882023508418 -3.97484021530146e-17)
(0.729914767681214 0.000404668193551135 -5.17185632201325e-17)
(0.729840970639097 0.000430785156116308 7.83368482569308e-17)
(0.729786678593822 0.000454338424197188 9.35604089753722e-17)
(0.729755734247376 0.000481085068258177 8.68323826411145e-17)
(0.729756583046338 0.000522967806369103 -2.13040887049716e-17)
(0.729795869917152 0.000564961940925278 -7.93872180482362e-17)
(0.729877357936971 0.000604485234997222 -1.05176041653591e-16)
(0.730014914386662 0.000651652232576989 -4.98939796261312e-17)
(0.730220117701264 0.000730818639771167 2.70255109534191e-17)
(0.730502145216922 0.000795802496954836 9.06275475077371e-17)
(0.730881482413294 0.000862631816910485 8.38503031077057e-17)
(0.73137603488298 0.000952049317233518 4.60724007621984e-17)
(0.73201271782193 0.00107536847697958 -3.23974184372031e-17)
(0.732810370298228 0.0011804937556695 -7.07087606029394e-17)
(0.733849537491613 0.00130195865696163 -8.84717558732922e-17)
(0.735308702184287 0.00152526682070086 -5.85268486267352e-17)
(0.737457170530746 0.00183795013199833 -2.6793594818329e-17)
(0.740464351941081 0.0021425738030018 5.09210129525282e-17)
(0.744505455311422 0.00249964178291697 1.89981153948965e-17)
(0.749479412357973 0.00311495197786324 -2.14818343517268e-17)
(0.755273116080964 0.00351695397128491 6.80948337724552e-18)
(0.762088045031431 0.00382191172563646 2.42010256866081e-18)
(0.769887099376251 0.00413991261465897 -1.03639516138115e-16)
(0.778596870673099 0.00444096405540607 -2.79648189010121e-17)
(0.788298416384167 0.00449278580981998 4.36421440525239e-17)
(0.799058840303888 0.00446476485697019 -5.89249125917814e-17)
(0.810698157665956 0.00440779004440035 -1.01002867506734e-16)
(0.82312014267827 0.00417257215177537 -6.85962691328624e-17)
(0.836405213078921 0.00384114591988743 3.36425634599947e-17)
(0.850226628306303 0.00346101196224143 -1.89184572734338e-17)
(0.864809573661618 0.00295254140379444 9.63524642423254e-17)
(0.879735760552351 0.00245855207405217 -9.55308639758902e-19)
(0.895599025085657 0.00193420093358549 6.40710102511424e-18)
(0.911313152255973 0.0014030072012306 5.90498668795583e-17)
(0.928908807924412 0.000848549442027982 2.0537491164079e-17)
(0.94537425184505 0.000484190395408387 -6.16339071715627e-17)
(0.966121725422515 -1.01555348493722e-05 -1.30028406464986e-17)
(0.983146282608601 -9.73352782260938e-05 5.89429996402476e-17)
(1.00990901587799 -0.000478516911126308 -2.07699714476412e-17)
(1.02049117328409 6.68945692975104e-05 2.69803661198497e-17)
(1.01716430390092 2.8121636970594e-05 2.89232499376591e-17)
(1.0214439003515 0.000149336591507974 -6.7562940408788e-18)
(1.02034771959063 8.9831238117031e-05 -8.01587131558816e-18)
(1.02197012929152 0.00016766883086399 -1.47693785099097e-17)
(1.02127784503212 0.00015342413275293 -5.43884613932402e-18)
(1.02145177542973 0.000158833231103453 1.07726673968712e-17)
(1.02077167766639 0.000146140015769908 -2.58438081810805e-17)
(1.02032229790486 0.000151842551630724 5.69480521976142e-18)
(1.01949953346734 0.000130644048631243 -5.9579941895841e-18)
(1.01882413691487 0.000123905107664362 -1.04171701852984e-18)
(1.01800241493705 0.000108676139479172 7.03303270305061e-18)
(1.01730647521265 0.000103839653113528 -1.21953262583625e-18)
(1.01622262096505 0.000273546480893043 9.9565609598893e-19)
(0.37718976147234 0.00188191623025701 -7.40329729994092e-20)
(0.379095495277374 0.00200679428003346 -3.5605751216212e-18)
(0.379283957548506 0.0020688035976379 -2.76055749624439e-18)
(0.37949525265516 0.0021994944472252 -6.850062739344e-18)
(0.379378829612404 0.00227771934031934 -3.41393029649799e-18)
(0.379153879632926 0.0023173944165411 -1.95235942711094e-17)
(0.378883986806641 0.00233795269586333 -8.39134480767672e-18)
(0.378600984091168 0.00234968473225279 2.24831330733975e-17)
(0.378312135394356 0.00235835022728564 1.39029897093229e-17)
(0.37801976416039 0.00236689019020981 1.43449989537803e-17)
(0.377724369016661 0.00237651099582612 9.45901993988466e-17)
(0.377424597381788 0.00238525012518344 4.45369621216298e-17)
(0.377119067540804 0.0023932573806617 2.83700885026869e-17)
(0.376808284204662 0.00240164974032772 3.46712228250735e-17)
(0.376492492582703 0.0024105145097423 7.63010974384008e-17)
(0.37617069395712 0.00241840178273374 3.03201374495064e-17)
(0.375842462410779 0.00242615837112043 -1.171382460992e-17)
(0.375507824295469 0.002435034487112 3.49271126856822e-17)
(0.375166825861333 0.0024439806056599 6.80419488103409e-17)
(0.374818545629166 0.00245235089961117 7.3224743889024e-19)
(0.374462189090396 0.00246056852732281 -1.26577801985749e-16)
(0.37409909158348 0.00246958014322261 7.2727190981708e-17)
(0.373729192952846 0.00247850283487205 4.03785741272197e-17)
(0.373350614179728 0.00248748672936516 -3.34497143386555e-17)
(0.372963023899888 0.00249695814570363 -1.13165687032621e-16)
(0.372567447109224 0.0025078166171647 -9.5530628041488e-17)
(0.372163544485717 0.00251783926551888 1.50938840057098e-17)
(0.371749867128286 0.00252753848024247 -2.39447575141429e-17)
(0.371327012905032 0.00253817514365723 -1.56927504362386e-17)
(0.3708957436861 0.00255055209111892 4.54958378131132e-18)
(0.370454798430349 0.00256231457317989 -1.18340624025708e-17)
(0.370002963394273 0.00257403493714015 3.60576073925417e-17)
(0.3695416692251 0.0025876085097673 -1.44889315538305e-16)
(0.369071942465281 0.0026025666286049 -2.9956866429494e-17)
(0.368591985626101 0.00261694397005848 3.9927949980081e-17)
(0.368101008573842 0.00263226205058747 8.86169233856267e-18)
(0.367601052777044 0.00265154529757062 -1.96155257426429e-17)
(0.36709364714407 0.00267106768163987 1.54108229489289e-16)
(0.366576905715588 0.00269029847764123 7.36777270705539e-17)
(0.366050251898176 0.00271171110379171 -2.77822594780277e-17)
(0.365519821118867 0.00274063354524896 1.24849459964984e-16)
(0.364987184853286 0.00276765114855114 2.25700414129543e-16)
(0.364448700348496 0.00279593495971277 1.97894771635023e-16)
(0.363907214968432 0.00283028403912592 6.77481266103657e-17)
(0.363372177543682 0.0028742904428108 -5.06518935888963e-17)
(0.362845824934613 0.00291521535491774 -2.20423327116439e-16)
(0.362326698564239 0.00295949710518897 -1.17837890745485e-16)
(0.361823956538806 0.00301833085579401 6.64624757059245e-17)
(0.361350948137446 0.00308693770118365 2.36952478700908e-16)
(0.360910831253313 0.00315118731843461 1.34724288317976e-16)
(0.360508955748945 0.00322342170791396 3.37402461494042e-17)
(0.3601682259281 0.0033277366919614 -7.52573583841947e-17)
(0.359908802862679 0.00343386307941603 -9.94060450553028e-17)
(0.35973665485496 0.00353515773289114 -1.74608167396859e-16)
(0.359672562659837 0.00365540596959015 -1.60246996379019e-16)
(0.359766614000369 0.00384177905836412 -5.28651690936198e-17)
(0.360048934643024 0.00400164251526871 1.69500275243742e-16)
(0.360542305992891 0.00416444493136364 1.76571295963403e-16)
(0.361298004474828 0.00437804976259601 1.37310442174745e-16)
(0.362407020477829 0.00466183667676304 -9.70737149775822e-17)
(0.363927957786885 0.00491055159854741 -1.15882389615144e-16)
(0.365972677420198 0.00519945051158389 -2.68549327347278e-16)
(0.36884147793274 0.00571124523767147 -2.31432221479522e-16)
(0.372967031381722 0.00641654210643459 -7.76869933490242e-17)
(0.378676513602633 0.00710802926813873 8.12231233144488e-17)
(0.386329640874495 0.00793487802363055 5.57066122573179e-17)
(0.39632959062367 0.00926043776660222 -6.87330480898395e-17)
(0.408813581059545 0.0101431992850091 2.1353423649778e-17)
(0.423871215884097 0.0107715834628189 -1.31716687192451e-17)
(0.441556195878676 0.0114004438821763 -2.22606709690784e-16)
(0.461944723940794 0.0119317482591194 5.38190401796112e-17)
(0.484992425737915 0.0119094027881255 1.33865636885178e-16)
(0.510525192411279 0.0116684283797259 -1.75067295319219e-16)
(0.538407972012985 0.0113089478163214 -3.02796689670308e-16)
(0.568333374717497 0.0105442626249837 -1.76902848374936e-16)
(0.600282779895046 0.00953495654699524 -2.00306899239997e-17)
(0.633594528128061 0.00838209798727694 -7.49010485883096e-17)
(0.668706045990431 0.00694390825105638 2.85667395073783e-16)
(0.704478533785986 0.00551938010198673 6.61517081349497e-17)
(0.742559374604424 0.00400302511125095 -9.43692806996369e-17)
(0.780127749100035 0.00247814318063596 6.77046021460894e-17)
(0.822090155911902 0.000888897579878082 5.8495403636122e-17)
(0.861115667703177 -0.000280301068594001 -6.40456392743415e-17)
(0.910500173700252 -0.00176379760565232 5.09674525949795e-17)
(0.950560113633848 -0.00236666203510547 1.7446781870242e-16)
(1.01469458457131 -0.0032913933484988 -1.77869643676295e-17)
(1.0384623600339 -0.000170224997565908 7.75498503920395e-17)
(1.02765838593487 -0.000217222172029403 8.60811886183005e-17)
(1.03605517543019 8.35705425548574e-05 -1.9806814054926e-17)
(1.03117098860651 2.02231071010684e-05 -2.46954018997266e-17)
(1.03337798421331 0.000194936233719186 -3.50512926342202e-17)
(1.03037676244759 0.000197807226484057 -3.59938171238829e-17)
(1.02984746684331 0.000237463807207755 5.59038955619342e-18)
(1.02737360379826 0.000233135161172616 -5.19819326042672e-17)
(1.02573008018694 0.000258727846353123 1.73809347751607e-17)
(1.02329421183046 0.000237416677959402 -1.7465565727806e-17)
(1.02124635600641 0.000234474097302516 -2.866528479108e-18)
(1.0188951714086 0.000216471549375921 7.7081320400083e-18)
(1.01694921211558 0.000219136098127566 -3.69350105064104e-18)
(1.01485084290408 0.000408973465179835 1.9359953629618e-18)
(0.0949877297485742 0.00401533115780449 1.94024664420769e-18)
(0.0981292084494353 0.00454652272484433 1.01808857913069e-18)
(0.0984964083085442 0.00498284486363718 -5.05140562650811e-18)
(0.0986938034626769 0.00532862050256596 -1.5345316985784e-17)
(0.0984474028164224 0.00552078998688093 -7.37990924680399e-19)
(0.0980587353990416 0.00561018500966684 -3.88558863682166e-17)
(0.0976116131050593 0.00565123184269587 -1.74703628918896e-17)
(0.0971457008642772 0.00567261088154772 4.35930726370036e-17)
(0.0966706401753392 0.00568759667382575 1.92239326620924e-17)
(0.0961891630497429 0.00570184137719197 9.48576211348009e-18)
(0.0957022739671897 0.00571711167265704 9.83255692845531e-17)
(0.0952090047891139 0.00573174742236197 5.98262961654045e-17)
(0.0947075387543453 0.00574572160197025 4.2447652061874e-17)
(0.0941978325704029 0.0057601239366761 4.9763861686796e-17)
(0.0936803655206403 0.00577500598803286 8.34490685460093e-17)
(0.093154139587269 0.00578903474901405 3.7351466130174e-17)
(0.0926180394402166 0.00580301800735904 7.17939765827759e-17)
(0.0920723136932258 0.00581818590528173 2.36367324474367e-17)
(0.0915171970797726 0.00583355881977252 1.40322657356032e-16)
(0.0909515274991644 0.00584844090610677 7.17931766494996e-18)
(0.0903742664935078 0.00586328558607542 -1.19659956088383e-16)
(0.0897861834303911 0.0058789668857934 8.17962493119437e-17)
(0.0891871939880798 0.00589477746044328 7.67499330711795e-17)
(0.0885756574430156 0.00591077915522528 4.38597142751887e-17)
(0.0879509703045675 0.00592753048377679 -9.92688453851198e-17)
(0.0873141357250812 0.00594575172579741 -1.07659106504846e-16)
(0.0866647672605589 0.00596337222262199 -5.37357550486842e-17)
(0.0860008993220092 0.0059807511773308 -4.7074849290763e-17)
(0.0853225164942239 0.00599935899860506 -2.71008896443798e-17)
(0.0846307434311692 0.00601992338074892 1.2173670883425e-17)
(0.0839246451210069 0.00604016509666025 -2.69396960137517e-17)
(0.083202265256852 0.00606057496113327 8.18588004987879e-17)
(0.0824645121979884 0.00608317682101245 -1.19253003918671e-16)
(0.0817128595884811 0.00610751543890969 -6.92942831615779e-17)
(0.0809456215761389 0.00613156994234183 1.46459695715447e-16)
(0.0801610886853076 0.00615707408430773 -8.82068028930788e-18)
(0.0793619618970454 0.0061869871511431 -5.54144099999128e-17)
(0.0785502506915244 0.00621768146152907 1.06719293310863e-16)
(0.0777234265399061 0.0062483056277395 1.15436906776684e-16)
(0.0768802464320935 0.00628214716629728 1.11262635965919e-16)
(0.0760283663425003 0.0063239885813311 2.13664858660826e-16)
(0.0751702825083598 0.00636484426500549 3.29556916193014e-16)
(0.0743012731357483 0.00640728091446857 1.82176949748517e-16)
(0.0734247245849534 0.00645745777762262 6.30417267578023e-17)
(0.0725537290725398 0.0065181566755843 -8.12789450797796e-17)
(0.0716916538751344 0.00657671919288678 -3.82129332648987e-16)
(0.0708344799659945 0.00663966034859387 -2.01093428197329e-16)
(0.0699957507591449 0.00671953906346519 1.77531906848204e-16)
(0.0691967858584202 0.00681070070524024 2.63726743216743e-16)
(0.0684413654211719 0.00689791976490034 1.48620778370626e-16)
(0.0677297822713 0.00699612792232226 7.74231049725637e-18)
(0.0671005898662332 0.00712925307802221 -1.07084278242438e-16)
(0.0665878733339999 0.00726658298777543 -9.79289147808211e-17)
(0.0661941649630095 0.00739761310493767 -2.1882122859091e-16)
(0.0659333539214016 0.00755555471230431 -2.3258805781875e-16)
(0.065900872211 0.00778171725488575 3.8764540181015e-17)
(0.0661483916856228 0.00798442451069811 1.61187202097705e-16)
(0.0666747925522732 0.00818733940344146 1.43113614723988e-16)
(0.0675550808997689 0.00845237351306616 2.34302254182369e-16)
(0.0689526706702344 0.00878975785413511 -1.66269019428637e-16)
(0.0709524876661965 0.00909324207410991 -1.57098099565205e-16)
(0.0736186301398599 0.00945077862223981 -3.65734773936673e-16)
(0.0773472347611529 0.0100649867416867 -2.5471670978047e-16)
(0.0827746610148172 0.0108955965535789 -3.23047558549396e-17)
(0.0903320167782207 0.0117141276876275 1.88599707238052e-16)
(0.100302385735165 0.0127324834865079 9.38557575815107e-17)
(0.113744603111783 0.014211121796136 -1.28928073932752e-16)
(0.131064640210375 0.0152289807621819 6.05763459304876e-17)
(0.151916028096477 0.0158875515340773 1.31387992379403e-17)
(0.176522137814127 0.0165089161474903 -3.73754069009151e-16)
(0.205283919238092 0.0169266557292951 1.35974529694269e-16)
(0.237951427319942 0.0167051534909672 2.32753100160917e-16)
(0.273974586924813 0.0161648016762803 -2.92193140875737e-16)
(0.313495875682339 0.0154075395143012 -3.79282733007707e-16)
(0.356018377724999 0.0141714084856723 -1.50590539948529e-16)
(0.401307310277816 0.0126006446467077 -6.99759408145456e-17)
(0.448600458017776 0.0108125639959351 -1.00937158153324e-16)
(0.498384852831219 0.00869204936596807 4.72291921662112e-16)
(0.548962311214994 0.0065616268225988 1.41225480630996e-16)
(0.602873804271019 0.00428477925037875 -1.96590187773184e-16)
(0.655964460865139 0.00202495648450399 7.75617289819154e-17)
(0.715005611461212 -0.000350702374683018 8.96892002453121e-17)
(0.769863514814712 -0.00219805522216698 -1.08015701858568e-16)
(0.839211854159251 -0.0044801246998784 9.44426539216427e-17)
(0.895210748022351 -0.00568447693683353 2.47875846038279e-16)
(0.985137506491826 -0.00691535804329815 -1.53989698728231e-17)
(1.01812421772262 -0.000232634566092608 8.64895427801031e-17)
(1.00211185351569 -0.000364180391112609 1.42954602439497e-16)
(1.01332134757192 3.70163643115917e-05 -7.43541802189574e-17)
(1.00584038695427 4.0598298918264e-07 -4.3110410610291e-17)
(1.00843075441297 0.000192058954480959 -5.69420764006344e-17)
(1.003853149885 0.000205549597918729 -6.39044084394953e-17)
(1.0028429768728 0.000269046116778783 -2.03571360015031e-17)
(0.999136354563712 0.000268236818434214 -7.91838557549834e-17)
(0.996678187628051 0.000292219416988941 1.54631844939081e-17)
(0.993140538481784 0.000277010131864683 -2.88922830326263e-17)
(0.99015599598356 0.000266438554708797 5.31462245843022e-18)
(0.986764812677601 0.000242875044219706 7.00175618542227e-18)
(0.983984026579193 0.000231725689920372 -6.25518263331879e-18)
(0.981267709602611 0.000187068453560972 1.82295416421515e-18)
(-0.112501102836184 0.00696050462342417 5.13151485999712e-18)
(-0.109339987056431 0.00725568683260962 6.87686684642699e-18)
(-0.109098573013046 0.00825343991131796 -6.66198621474101e-18)
(-0.109102750192328 0.00887028729109633 -1.01050231032655e-17)
(-0.109523666862078 0.00918927572272854 1.33775930295444e-17)
(-0.110067425518672 0.00933037056532046 -3.6774156754626e-17)
(-0.110661351508197 0.00939202160128065 -3.48299435699754e-17)
(-0.111272809079558 0.00942306179798602 3.96754733558452e-17)
(-0.111894402757634 0.00944452380598829 1.95505660233186e-17)
(-0.112524138805102 0.00946452827107877 4.55781415082281e-17)
(-0.113161138540521 0.0094853655636722 1.30085170250171e-16)
(-0.113806083282319 0.00950591813885627 7.02920817099484e-17)
(-0.114460661464112 0.00952605523461209 5.19201098990155e-17)
(-0.115125211220148 0.00954663574452607 5.67825275464559e-17)
(-0.115799383543877 0.00956767349419238 8.02097629343977e-17)
(-0.116484093560804 0.00958813648887489 3.53935773116932e-17)
(-0.117180593028854 0.00960867855742601 3.48530412308879e-17)
(-0.117888699726707 0.00963031310199781 -3.75854939872704e-17)
(-0.118608225574796 0.00965226835259515 1.25676909646351e-16)
(-0.119340302539213 0.00967393675388449 1.33202358199977e-17)
(-0.120086026383975 0.00969571733406384 -5.22104924360561e-17)
(-0.120845099588174 0.00971830938753298 8.75043065062043e-17)
(-0.121617704379297 0.00974122162962329 1.22164886207187e-16)
(-0.122405190542401 0.00976446466925064 2.47088285494765e-17)
(-0.123208243308633 0.00978858910517797 6.34636743061989e-18)
(-0.124026112015364 0.00981410164456506 -1.33662140617174e-16)
(-0.124859245596799 0.0098393409035119 -1.23023262783499e-16)
(-0.125709653250251 0.00986453174917356 -7.1521175432877e-17)
(-0.126577718446463 0.0098910414628867 -3.95588268467679e-17)
(-0.127462399608312 0.00991944994052943 2.94161422731691e-17)
(-0.128364403156367 0.0099478728763193 -5.72138269550025e-17)
(-0.129285821188369 0.00997668888480514 6.56040001715654e-17)
(-0.130226187296043 0.0100076945833943 -1.18448176411026e-16)
(-0.131184071969749 0.0100405169295755 -2.92424740299276e-17)
(-0.132160886239233 0.0100734065103626 1.72691425616335e-16)
(-0.133158559826882 0.0101079682637303 1.21412044583623e-16)
(-0.134174393644715 0.0101467033726369 -2.35119282122759e-18)
(-0.135206350910064 0.0101865627642896 6.36700945845934e-17)
(-0.136256852363348 0.0102266341076402 1.67401113513644e-16)
(-0.137327286727916 0.010270198054839 2.73161974077786e-16)
(-0.138409886645724 0.0103210863506877 3.00330744023554e-16)
(-0.139501707774587 0.0103717696283277 4.15797834346142e-16)
(-0.140607192712066 0.0104241235879552 3.12133119109766e-16)
(-0.141722693088602 0.0104842199498847 6.05091310313922e-17)
(-0.142834014819711 0.0105540278925712 -1.01799326819523e-16)
(-0.143936860152978 0.010622556449521 -5.69436972012551e-16)
(-0.145035595850951 0.0106954872668042 -2.91423825787933e-16)
(-0.146114677193349 0.0107844703665252 1.60138673164924e-16)
(-0.147149238139271 0.0108840549291818 2.96211523197344e-16)
(-0.148134077398316 0.0109802390719292 1.68467477219915e-16)
(-0.149070673400227 0.0110874165596961 1.6349382671241e-16)
(-0.149912840570046 0.0112264219010196 -2.62374545450658e-18)
(-0.150619227478396 0.0113698263900243 -9.35093810351031e-17)
(-0.151186862605927 0.0115061760325161 -2.65141748552332e-16)
(-0.151605207145396 0.0116694946722226 -2.54601068199315e-16)
(-0.151755067245274 0.0118931895846862 -1.36841054209401e-17)
(-0.151571561983482 0.012095766726505 1.64010193631381e-16)
(-0.151066640793821 0.0122952146973511 1.48961899476367e-16)
(-0.150152069530883 0.0125532171053989 2.45224526528949e-16)
(-0.148624397491386 0.0128738476539768 -2.45082403690192e-16)
(-0.146379542812307 0.0131602025266709 -1.92606037490402e-16)
(-0.143379879910696 0.0134964167555676 -3.18195200963544e-16)
(-0.139181164674265 0.0140728001151246 -1.32562481139997e-16)
(-0.1330378102807 0.0148449904156946 2.02127238123294e-17)
(-0.12445053853194 0.015591846316298 2.76355004347663e-16)
(-0.113188911337069 0.0165313194652424 1.32599501455178e-16)
(-0.0977940258343844 0.0178518361822168 -5.24418263855584e-17)
(-0.0776796829551084 0.0187135902175317 -2.96531427405651e-17)
(-0.0534578569861805 0.0191772691192741 -1.46706890610782e-16)
(-0.0248042107954188 0.0195649855192373 -4.53902998989816e-16)
(0.00888473553150844 0.0196925433452604 2.21916753118611e-16)
(0.0472350128041817 0.0191687700777581 2.91670543187168e-16)
(0.0894538115021072 0.0182890352234254 -2.82682265582832e-16)
(0.135863667428717 0.017146357053849 -4.59436976423227e-16)
(0.185852577846084 0.0155104258374204 -9.817593574324e-17)
(0.239041519385752 0.0135144571562471 1.30919274595885e-17)
(0.294619303885837 0.0112717878749209 -4.21602615198767e-17)
(0.353088352723515 0.00869270973909933 6.57688192572945e-16)
(0.412408566810118 0.00608273278970765 1.45446649891766e-16)
(0.475662284668846 0.00330458938089904 -3.12883541417282e-16)
(0.537892398234206 0.000539717390548493 8.7264176419373e-17)
(0.606938648068264 -0.00236041320289381 1.11095347951716e-16)
(0.671045534223753 -0.00475584789099399 -1.00525081201395e-17)
(0.752009869724551 -0.00762189857811674 6.79198142792594e-17)
(0.817230494246916 -0.00941095818318671 3.05331730257814e-16)
(0.9222653068229 -0.0107334215374887 -1.34674820725592e-17)
(0.960733482430162 -0.000302811848971156 9.34318891706375e-17)
(0.941484688478105 -0.000343751794074879 1.5946554348773e-16)
(0.954250039073594 8.84055452265652e-07 -8.78167209580397e-17)
(0.94521461360477 1.36791488364606e-05 -6.52156950968206e-17)
(0.947977834057672 0.000172310385231575 -5.07186909922643e-17)
(0.942464603127137 0.000201954523398634 -6.84969557929115e-17)
(0.941160714030797 0.000258095762106334 -4.281122386336e-17)
(0.936732122886914 0.000263079391685422 -1.05791120726276e-16)
(0.933801645210936 0.000281620973881485 1.36586601337583e-17)
(0.929628902249903 0.000269815668780592 -4.31723937753299e-17)
(0.926104559245276 0.000256450566106517 1.33409375303399e-17)
(0.922113681026861 0.00023147670816403 2.83140517694948e-18)
(0.918847259895936 0.000211344617423478 -4.16961644830268e-18)
(0.91578551286454 0.000130557047891173 1.86246634668297e-18)
(-0.246280405191071 0.00912622586988729 6.42160426082393e-18)
(-0.244569411669723 0.00965595723757235 7.84340210137613e-18)
(-0.244853755729169 0.0111714607566506 -8.95005208790719e-18)
(-0.245251708145742 0.0120057520052332 -1.22833758544629e-17)
(-0.245873599479763 0.0124137553501258 -5.37759798047702e-18)
(-0.246544575406842 0.0125882969922653 -4.33883399789048e-17)
(-0.247237167950399 0.0126633211153705 -2.72868725944377e-17)
(-0.247939370208965 0.0127014417946202 1.32479011053665e-17)
(-0.248650380334357 0.0127284041114616 9.92072872166945e-18)
(-0.249370122198736 0.012753527842791 6.91300645515668e-17)
(-0.250098211661251 0.012779339863229 1.23194552702599e-16)
(-0.250835111315744 0.012805160062069 7.48958135850215e-17)
(-0.251582164237232 0.0128308406134819 5.50113650684411e-17)
(-0.252339831643568 0.0128569812192311 6.02035019489739e-17)
(-0.253107968272062 0.0128835760121013 1.05229463826133e-16)
(-0.253887365775726 0.0129098778711434 2.37306334843833e-17)
(-0.254679177928385 0.012936380258723 2.58190587423769e-17)
(-0.255483362106038 0.0129638513813016 -1.35248790886455e-17)
(-0.256299842298405 0.0129917254560533 5.28865907667885e-17)
(-0.257129606485223 0.0130195335390842 1.06147957490944e-17)
(-0.257973697154279 0.0130475892466905 -1.3013235094202e-17)
(-0.258832163104427 0.0130764315994239 7.59358507594656e-17)
(-0.25970527794212 0.013105715552469 1.33223769736574e-16)
(-0.260594100736303 0.0131354487630764 -3.33259343402324e-18)
(-0.261499300389774 0.0131660835805024 -1.47197432437653e-17)
(-0.262420417777743 0.0131979900369727 -8.82111400433231e-17)
(-0.263357935901527 0.0132299018930697 -9.68208511550814e-17)
(-0.2643136776054 0.0132619835796768 -8.29525303688449e-17)
(-0.265288225380333 0.0132953389823611 -6.09128169280642e-17)
(-0.26628077794752 0.0133304220909167 6.53603002182564e-17)
(-0.267291866674268 0.0133657768388628 -1.5837813537861e-17)
(-0.26832342364715 0.0134016984817349 7.89249229895096e-17)
(-0.269375320063491 0.0134396225651769 -1.68922982361289e-16)
(-0.27044636502766 0.0134792692806092 -8.11160529864645e-17)
(-0.271537649389466 0.0135192571168921 1.57670035574162e-16)
(-0.272650988226813 0.0135608893966473 1.35327449481215e-16)
(-0.273783991991556 0.0136061484340742 -3.42597548305492e-17)
(-0.274934815910962 0.0136526269355224 5.30893440798746e-17)
(-0.276105460978378 0.0136995565506449 2.17985806650494e-16)
(-0.277297231870548 0.0137496562771634 2.93074910464378e-16)
(-0.278502999896072 0.0138059362274184 3.9114851751949e-16)
(-0.279719720510181 0.0138623881039002 4.63603393072896e-16)
(-0.280951016509199 0.0139204353191328 4.55852022843073e-16)
(-0.28219328196265 0.0139851058183761 5.34810827354699e-17)
(-0.283432779253138 0.014057869487511 -1.03077914015417e-16)
(-0.284664677771178 0.0141297894173357 -6.58087109960124e-16)
(-0.28589276266494 0.014205438886319 -3.86854595058334e-16)
(-0.287101284939302 0.0142943452901404 2.95393313268439e-16)
(-0.28826490056331 0.0143918661386777 3.37164644687631e-16)
(-0.28937717039053 0.0144863380309733 1.76939926951403e-16)
(-0.29043993728817 0.014589700085433 8.19725292313526e-17)
(-0.291405305545565 0.0147187245097233 8.8052177932229e-17)
(-0.292229810212197 0.0148505823321419 -8.56242506043513e-17)
(-0.2929089003009 0.0149752402161138 -3.30499631532292e-16)
(-0.293434184924376 0.0151214024148386 -2.24320687209901e-16)
(-0.293679035940754 0.0153153397547029 -2.61218279559121e-17)
(-0.293573050554586 0.0154890883646894 1.78662150876818e-16)
(-0.293132104499588 0.0156567886340701 1.06008741923167e-16)
(-0.292264548831891 0.0158700127452258 2.73370372578625e-16)
(-0.290753148004652 0.0161298402700893 -2.42274270256679e-16)
(-0.28848462898091 0.0163542736401193 -1.31398847428725e-16)
(-0.285437581378315 0.0166135886211931 -3.0393298098008e-16)
(-0.281162460552743 0.0170648535498764 -1.79977764668678e-16)
(-0.274885104251133 0.017664243461133 6.64832489233757e-17)
(-0.266081432539953 0.0182193769270041 3.1937303342959e-16)
(-0.254565915023431 0.0189146956133837 1.91980997117804e-16)
(-0.23869907720433 0.0198884983939566 1.35837887930386e-17)
(-0.217799521034461 0.0204272399372299 -3.90945827179448e-17)
(-0.192612030125341 0.0205827121419914 -1.2587843780205e-16)
(-0.162768915845404 0.020627370978018 -5.01836279026653e-16)
(-0.127567509655348 0.0203950503561569 1.77762322652322e-16)
(-0.0874382125552304 0.0195606389288621 3.40079396216461e-16)
(-0.0432954070406836 0.0183815733271635 -2.77550649990365e-16)
(0.00528104980218215 0.0169335034940427 -5.42853687261153e-16)
(0.0576345881267723 0.0150264913556458 -5.39777662892299e-17)
(0.113310058150174 0.0127824094361069 -2.41901505060221e-17)