/*--------------------------------*- C++ -*----------------------------------*\
  =========                 |
  \\      /  F ield         | OpenFOAM: The Open Source CFD Toolbox
   \\    /   O peration     | Website:  https://openfoam.org
    \\  /    A nd           | Version:  8
     \\/     M anipulation  |
\*---------------------------------------------------------------------------*/
FoamFile
{
    version     2.0;
    format      ascii;
    class       volVectorField;
    location    "0.0520000";
    object      U_0;
}
// * * * * * * * * * * * * * * * * * * * * * * * * * * * * * * * * * * * * * //

dimensions      [0 1 -1 0 0 0 0];

internalField   nonuniform List<vector> 
600
(
(0.613198960279521 0.000648034465736102 3.14710445893946e-18)
(0.614199980864004 0.000410896224619392 -2.30085068993868e-18)
(0.614260333996221 0.000348813245194767 1.28846015452937e-18)
(0.614306398518787 0.000390044474960533 7.50613752511336e-18)
(0.614214852492381 0.000413841733974807 -5.84234849035051e-18)
(0.614041199536224 0.000425527352063829 8.86018244667628e-18)
(0.613838006311479 0.000433107638199568 5.12234329828099e-17)
(0.613624867451894 0.000439191790969072 3.81784113109103e-17)
(0.613405990785373 0.000443866441461143 3.36172317872187e-17)
(0.613182488194652 0.000447863510550399 4.35172595999799e-17)
(0.612955140968786 0.000452107992926324 6.34994710117071e-17)
(0.612723773854867 0.000456508716011878 1.71236125643461e-17)
(0.612486811409774 0.000460374302380591 5.4209823456997e-17)
(0.612243445559936 0.000463930608803193 -7.01652805561715e-18)
(0.61199449211763 0.000467934099166449 -4.78939160711537e-17)
(0.611738936873508 0.000472218030750378 -4.9344376728711e-17)
(0.611475875781109 0.000475748189367692 -1.54487717708926e-18)
(0.611206241039192 0.000478983177336871 1.17193292765645e-16)
(0.610929424763901 0.000482725617920372 3.86670936107931e-17)
(0.610645524453415 0.00048661022049332 -1.13910662483782e-16)
(0.610354053761619 0.000490051532169374 7.64450076607268e-17)
(0.610053811881245 0.000493480929322369 2.86353291610341e-17)
(0.609744863542093 0.000497261949389534 2.91287731327882e-17)
(0.609428347575226 0.000501293401243173 5.49877033120792e-17)
(0.6091027628933 0.000505220223893603 5.02855677540795e-17)
(0.608765715648164 0.000509113612917705 -1.59866331128106e-16)
(0.608418893334318 0.000513286244608349 2.52142624900998e-18)
(0.608063597118374 0.000517833384076066 2.57940768165524e-17)
(0.607698520325995 0.000522007787137668 1.85888140638811e-18)
(0.607322477440116 0.000526288619877872 -2.88732942325556e-17)
(0.60693565049608 0.000531671847180589 -7.51436966943554e-17)
(0.606538121742676 0.0005380327744113 -6.34062860710817e-17)
(0.606128483112624 0.000543906771312554 1.07605524278466e-17)
(0.605705823856672 0.000549867909942511 5.63493066866291e-17)
(0.605271858429747 0.000557470432841668 4.17324997792419e-18)
(0.604827614908083 0.000566616469436369 1.06636163576237e-16)
(0.604371496550625 0.000575256721394186 6.49188008116416e-17)
(0.603902651190097 0.000584519929979036 4.30251494628523e-17)
(0.603422698820683 0.000596823362265716 1.2506780342914e-16)
(0.602934506604154 0.000611609205000779 2.66356479540446e-16)
(0.602436938995792 0.000625787363276906 1.29641969165347e-16)
(0.601927830519485 0.000641414705784867 1.59756260364517e-16)
(0.601410492478177 0.000662524426495811 6.20182205946553e-17)
(0.600891069843846 0.000688135282611691 1.16104708178569e-16)
(0.600368843696195 0.000712695490268784 1.03086430214915e-17)
(0.59984161901828 0.000740000309373933 -1.19068396223287e-16)
(0.599318467438373 0.000777753990763618 -1.97963231401401e-17)
(0.59881055064774 0.000822714734132062 -2.6838306286885e-17)
(0.598316569309005 0.000865561296281934 -1.1330914214162e-17)
(0.597835992493707 0.000913884157903528 3.37829650207499e-17)
(0.597385647143988 0.000982396469765169 -8.89000647896115e-17)
(0.59698570322606 0.0010609877039153 -1.64230511708551e-16)
(0.596639847542439 0.00113535536926215 -2.80278702551242e-16)
(0.596354803416371 0.00121920609613183 -1.53023034711133e-17)
(0.59616342156677 0.0013405150710291 -2.1751300576582e-17)
(0.596093715390836 0.00147577739434399 -3.82560508041336e-17)
(0.596162421717711 0.00160192041480096 1.22893596722304e-16)
(0.596405929676758 0.00174360587135258 9.44775878611412e-17)
(0.596885171480345 0.00196499211777291 2.33145458852828e-17)
(0.597791079900014 0.00227048586747624 1.99342365102686e-17)
(0.599380520744327 0.00260879814762049 7.03337336348078e-17)
(0.601981440509939 0.0030449867048243 8.92623620777811e-17)
(0.605964038001041 0.00384473277950907 1.11519253658585e-17)
(0.611468015773912 0.00463951111465301 4.87470515913034e-17)
(0.618481508612602 0.00532019347112709 1.5688841464706e-16)
(0.627132723575969 0.00599962494830718 1.54556116899506e-17)
(0.637496525174463 0.00691946300699895 -3.45946490027851e-17)
(0.649564986423863 0.00739912102522629 -9.59969675744833e-17)
(0.66340021065605 0.00768979685448006 5.41546603820523e-17)
(0.678897090325812 0.0079298356011619 1.206940916793e-16)
(0.695986966286196 0.00808823494197828 -1.54059665944873e-16)
(0.714483562023525 0.00785641844286869 1.00777079001557e-16)
(0.734218720533908 0.00747305381750045 2.76654056768994e-17)
(0.754926038250468 0.00698316711154001 9.21688788038236e-17)
(0.776436849157634 0.00628378294406424 -1.42318518113662e-16)
(0.798592494419654 0.00548109885399613 -5.40288508432391e-17)
(0.821199623992557 0.00462784744101652 -2.58957796698494e-16)
(0.844157987286853 0.00365189373482525 1.05938651854448e-16)
(0.867418298567833 0.00273016317919034 -3.90722411629127e-16)
(0.891062567400848 0.0018589321275823 7.98528965102903e-17)
(0.915052006499872 0.00102019371225939 5.76687808814893e-17)
(0.93971647164462 0.000263356409539903 -6.23103992412853e-17)
(0.964750126972821 -0.000316369710521113 3.22770256220818e-17)
(0.992137921617597 -0.000887438334270213 -1.91700087113575e-20)
(1.01861519141765 -0.000950245961838601 1.30997607480414e-17)
(1.05197088599116 -0.00138685636942467 -6.50683978264292e-17)
(1.06628244621807 0.000140627346934915 5.0646259081104e-17)
(1.06379967780445 -1.85185553729368e-05 7.00900940125451e-17)
(1.06725301837598 0.000300347335517963 -1.44809008939832e-16)
(1.06725253664363 0.000282430133815537 -5.8430303412459e-17)
(1.06828269368743 0.000367934358340983 3.70164720327273e-18)
(1.0682620074163 0.000438676800499559 -3.19943565124319e-17)
(1.06810692782515 0.000434386854336124 4.20250111407321e-17)
(1.06772242480809 0.000429899671836986 4.06182250834731e-17)
(1.06720504948808 0.00042855324767954 8.90317588819634e-19)
(1.06655825371425 0.000401331705728508 -5.94100410388836e-18)
(1.06589367003907 0.000375210046701569 -5.86245952668581e-18)
(1.06516087151977 0.000351528665714678 1.07297051201583e-17)
(1.0644645684332 0.000318303943897293 5.9142543249252e-18)
(1.06327977412548 0.000417955276160795 8.03362659857247e-19)
(0.14509158689992 0.00306953319269787 6.83528907696799e-18)
(0.148027187020841 0.00367324675384647 2.08927333605062e-18)
(0.148324425356008 0.00406573544913525 1.78268010138132e-17)
(0.148305017430336 0.00438199075361444 3.13841146742353e-17)
(0.147949173527188 0.00456048416193129 -1.4782566905848e-17)
(0.147416473024634 0.00464618509378814 1.4026291390955e-17)
(0.146814517801762 0.00468821956463242 5.94723539557792e-17)
(0.14618597890342 0.00471346754639918 1.06299286237921e-16)
(0.145542810230637 0.00473243162077054 9.15074355460518e-17)
(0.144887124198104 0.0047496552215905 1.23042909191191e-16)
(0.144219344691125 0.00476723623887325 1.17346827044954e-16)
(0.14353934379308 0.00478524457991217 3.04904850754969e-17)
(0.142845629973889 0.00480280230314404 1.18954968537498e-17)
(0.142136674368173 0.00482023994426408 -4.10979272936126e-17)
(0.141412360848058 0.00483846509045353 -1.53619206925457e-16)
(0.140672423216617 0.0048572293575795 -1.6137000734043e-16)
(0.139915626076265 0.00487525340416514 -1.5661268563344e-17)
(0.139140956218551 0.0048931357638014 7.15980884812239e-17)
(0.138347908551311 0.00491192900625671 -5.70954975643901e-17)
(0.137536404925647 0.00493124998255551 -1.07182722461395e-16)
(0.136705227681804 0.0049502775592595 1.43368858032954e-16)
(0.135852764540857 0.00496962413957453 6.36110183631828e-17)
(0.134978564815035 0.00498988428839177 7.7589955592797e-17)
(0.134082690244613 0.00501095489967755 1.69022010248185e-16)
(0.133163628997473 0.00503224344925071 1.84409331408505e-16)
(0.132219259106911 0.00505394213018842 4.12061126721594e-17)
(0.131249486355571 0.00507657339967717 5.83818331888193e-17)
(0.130254487036055 0.00510026191788566 8.67689313751779e-17)
(0.129232605161324 0.00512390608593039 7.22737548650556e-18)
(0.128181716975429 0.00514835823237023 -8.67476640788319e-17)
(0.127101412561935 0.00517518939224613 4.49117698528709e-17)
(0.125991953329448 0.00520425846543162 -1.94298777004465e-16)
(0.124851516268406 0.00523328672775153 3.6550428026934e-17)
(0.123677667450673 0.0052632812249063 1.84242128864061e-16)
(0.122470891482985 0.00529677092457533 -1.15169590083713e-17)
(0.121232595261531 0.00533367633364512 9.13034138028277e-17)
(0.119960918564829 0.00537072899704103 -6.49835884771439e-17)
(0.118653337941845 0.00540989142191102 1.03900351485619e-16)
(0.117311551931736 0.00545524955453267 3.62389079224462e-16)
(0.115939476923131 0.00550600374298554 3.60383400287532e-16)
(0.114535773002039 0.00555698560019028 3.53574627487861e-16)
(0.113097528020044 0.00561180773667837 2.65726311716547e-16)
(0.111629885860128 0.00567752224857024 1.62718062922386e-16)
(0.110142339697461 0.00575259793600567 1.49819419698195e-16)
(0.108635178078092 0.00582741288932112 2.95200036698313e-17)
(0.10710647681524 0.00590871432853926 2.86708486631747e-17)
(0.105570568590319 0.00601027280778147 -4.31066449200284e-17)
(0.104047907112365 0.00612647568934809 -8.17220022937889e-17)
(0.102541373445252 0.00624068533677277 -3.69449114759059e-17)
(0.101053318846203 0.00636654081673291 1.16033770733952e-16)
(0.0996171771538259 0.00653080981458762 -2.63992013701444e-16)
(0.0982750752652648 0.00671523615555975 -4.85934313196675e-16)
(0.0970387385119706 0.00689347652204408 -1.90325100804056e-16)
(0.0959228145528326 0.00709059156353648 -2.12035468104016e-17)
(0.0950010076955432 0.0073579435103007 -6.0922653582067e-17)
(0.0943552443195215 0.00765213052275647 -1.25511745850062e-16)
(0.0940182941851581 0.00792961638898922 7.52593375007795e-17)
(0.0940401670014999 0.00823717752480306 2.81262201608868e-16)
(0.0945908897730626 0.00869572182757276 6.60913440756597e-17)
(0.0960100619801401 0.0093149671216027 5.57357738570553e-17)
(0.0986291439894618 0.00999792784264833 2.09224007422332e-16)
(0.102887498368091 0.0108727661499806 2.69855677469181e-16)
(0.109695038365627 0.012417671063612 2.84964561882647e-17)
(0.119771359910416 0.0139381961435005 1.42691929510972e-16)
(0.133242699013775 0.0151995478637381 9.84106241390913e-18)
(0.150355173439125 0.0164288616118436 4.24473142145423e-17)
(0.171796387133779 0.0180314994259536 -1.01901771723134e-16)
(0.197601355102656 0.0187498052870653 -7.73995642387042e-17)
(0.227343959122627 0.0190296521257172 1.62596811004437e-16)
(0.260926128098554 0.0191541359943431 1.62074059007448e-16)
(0.298403658736158 0.0190374351041764 -2.69344110423273e-16)
(0.339216529795439 0.0181218717103102 3.06106348496648e-16)
(0.382715650278847 0.016858150875582 7.97318964577509e-17)
(0.428487867539667 0.0153374573440865 8.44958087036118e-17)
(0.47606736381994 0.0133809137037583 -4.30991275721261e-16)
(0.524964766508916 0.0112011420308843 -1.55517417208761e-16)
(0.574823490647738 0.00889775530200887 -1.98872643500595e-16)
(0.625314676317503 0.00635614338699747 1.46736092295872e-16)
(0.676240054316229 0.00391838916556224 -8.02289704755751e-16)
(0.727870983402421 0.00157222901674291 2.43029687346632e-16)
(0.780074319650072 -0.000717818484083449 -1.07026992643916e-17)
(0.833589290529013 -0.0028472454969023 -9.36159444947366e-18)
(0.887729854274831 -0.00465028469995102 9.87620582096214e-17)
(0.946701325213163 -0.00642285856820047 -5.61427231843194e-19)
(1.00364732269128 -0.00731169345881149 4.09806634420471e-17)
(1.0763927886824 -0.0078981304916828 -1.94368194136308e-16)
(1.10602576572367 -0.00061851765267575 3.60619757293299e-19)
(1.09738556474598 -0.000546600453281487 5.81918137503883e-17)
(1.1027178983195 5.91838187842942e-05 -2.81497062820232e-16)
(1.10060915892975 0.000152041958900151 -1.72282133801046e-16)
(1.10095534974608 0.000356878518801567 1.22961954720613e-17)
(1.09961678086078 0.000539846144605545 -9.56487613207086e-17)
(1.09847375662133 0.000588571305508713 5.20863539364492e-17)
(1.09694349159068 0.00062511330491425 4.67880142906879e-17)
(1.09536437661658 0.000661873099180588 1.53066139667313e-18)
(1.09364636210154 0.000654018218124721 -1.83845470586463e-17)
(1.09193473464556 0.000643255056639767 1.8153180406615e-17)
(1.09017193254477 0.00063125653172728 3.34079154796924e-17)
(1.0886182612929 0.000608512626834935 6.95681596019933e-21)
(1.08699070979984 0.000698321186799036 1.67755163805442e-18)
(-0.159446742575275 0.00724747364546745 1.00061352302025e-17)
(-0.156527376363178 0.00773513016704731 9.0139894073457e-18)
(-0.156520278544788 0.00881696783592962 1.32415937019485e-17)
(-0.156885812431767 0.00954984057073077 2.65870763396228e-17)
(-0.157558743337566 0.0099233864901543 -1.28936495559484e-17)
(-0.158380402608885 0.0100930512413494 1.49070208041519e-17)
(-0.159261270620915 0.0101714070820029 7.02893212996262e-17)
(-0.160168626492734 0.0102150106851666 1.03696438040871e-16)
(-0.161093766792156 0.0102469180721707 1.26146161990778e-16)
(-0.162035476379146 0.01027589051581 1.25023615826722e-16)
(-0.162993759558634 0.0103051042490207 1.09627528699425e-16)
(-0.163968885526332 0.0103349516012648 1.28334576019558e-17)
(-0.164962118689629 0.0103647978531257 -1.61789235410965e-17)
(-0.165974969442317 0.0103948583147464 -5.20594075071202e-17)
(-0.167007971400601 0.0104258372432206 -1.22588449635249e-16)
(-0.168061441247981 0.0104575226941258 -1.5221480396989e-16)
(-0.169136679117456 0.0104889380911895 -5.7794044843103e-18)
(-0.170235223262258 0.0105205385199348 -6.78168169475464e-17)
(-0.171357796436982 0.010553204366937 -1.78668879683469e-16)
(-0.172504802068971 0.0105866638736436 -1.9427755510492e-16)
(-0.173677646591973 0.0106202960622021 1.48764998610775e-16)
(-0.174878024882103 0.0106545839158697 6.86975780399144e-17)
(-0.176106758935565 0.0106900679916318 1.04328125101731e-16)
(-0.177364368910254 0.0107266837009335 1.47994514737254e-16)
(-0.178652350840211 0.0107639856996327 3.5543989646957e-16)
(-0.179972676972269 0.0108021167877669 1.98027451813403e-16)
(-0.181326284682683 0.0108415518483447 1.10965525523747e-16)
(-0.182713733642403 0.0108823869794867 1.72406945082904e-16)
(-0.184136856326742 0.0109237980193899 1.55332036679422e-17)
(-0.185598027973042 0.0109665279812264 -1.93271586555177e-16)
(-0.187098036056667 0.0110120010571604 -2.9348340260428e-17)
(-0.188636790947568 0.0110600740168311 -1.55233524893505e-16)
(-0.19021620442638 0.0111088816695428 7.81771783285679e-17)
(-0.191839210011221 0.0111592760958335 3.77126500197878e-16)
(-0.193506077866604 0.0112135534234255 -8.17478014110948e-17)
(-0.195215555628082 0.0112716297498395 1.23438870790491e-16)
(-0.196969481175125 0.0113307957659451 -2.4948690296075e-16)
(-0.198770942090304 0.0113927740222836 1.45968175755186e-16)
(-0.200618486005318 0.0114612845499973 6.36937134055968e-16)
(-0.202507943134889 0.0115355539209998 4.5345301006288e-16)
(-0.204440458354222 0.0116111951437923 5.86164724933812e-16)
(-0.206419147293823 0.0116914337104636 3.72759182541758e-16)
(-0.208438357032228 0.0117827249565669 2.50163916520655e-16)
(-0.210487006144019 0.0118834862829644 1.97062510015435e-16)
(-0.212563858792326 0.0119853706714148 3.33027678061443e-17)
(-0.214671062459905 0.0120944994588507 1.83086596671661e-16)
(-0.216792130112497 0.0122233299340687 -6.87149991383667e-17)
(-0.21890137117041 0.0123664997828488 -1.44628751731266e-16)
(-0.220993246740316 0.0125091371395978 -7.24893561237426e-17)
(-0.223065742629902 0.0126639959545924 -1.14524627904959e-16)
(-0.225077088802408 0.0128548317519672 -4.51601321139576e-16)
(-0.226971726903725 0.0130647982555663 -5.06232317419553e-16)
(-0.228734045175376 0.013269374934163 -9.18153176127921e-17)
(-0.230350697323472 0.0134928882668923 -1.05504781090624e-17)
(-0.231725671209832 0.0137800969191644 -9.7571804606694e-17)
(-0.232742745819167 0.0140913564423518 -2.29750444834566e-16)
(-0.233363995614941 0.0143845874063715 2.69380390597398e-17)
(-0.23354582208527 0.014707058681127 2.02896736499162e-16)
(-0.233070485539868 0.0151700613345266 9.69378980735509e-17)
(-0.231515348978911 0.0157792570392456 8.22313665446353e-17)
(-0.228510797435571 0.0164413250276418 3.50260109278822e-16)
(-0.223667901449269 0.0173072892280642 4.63525250440637e-16)
(-0.21573555833213 0.0187480805631339 3.12778842044894e-17)
(-0.203583176433881 0.0201559043156073 2.4714576882838e-16)
(-0.187103222516599 0.0212589214087162 -1.42723554029326e-16)
(-0.166112513218252 0.0223136429734228 7.46541823061024e-17)
(-0.139377706243577 0.023559165285527 -1.7437339710083e-16)
(-0.106794311722636 0.0239586206017781 -6.61799616331249e-17)
(-0.0693119474883514 0.0238256062588969 6.59130067287739e-17)
(-0.0269320085663394 0.0234753299654195 2.15282010931446e-16)
(0.0206157058885015 0.0227744235133935 -2.09382269548049e-16)
(0.0725076540647308 0.0212808924505807 5.3057334675291e-16)
(0.127706007579592 0.0193691327319902 3.2715343863052e-16)
(0.185870464770017 0.0171451499720086 9.33660110802955e-17)
(0.246342551493801 0.0144759468322496 -5.40287656042577e-16)
(0.308385944474549 0.0115583688551238 -2.49743689629613e-16)
(0.371657832772379 0.00848295844508319 -1.49956548118127e-16)
(0.43561724267851 0.0051887476689519 2.18899487672522e-16)
(0.499935483211854 0.00197915466461886 -8.80346919892476e-16)
(0.565080620141644 -0.00114513231998067 4.33303134506888e-16)
(0.630828318028331 -0.0042192780700882 -8.2389017299687e-17)
(0.697996313103358 -0.0071494389953308 4.10758691249863e-17)
(0.765769866673082 -0.00976212339863773 -2.77083787046699e-18)
(0.839416420527623 -0.0123350633616944 -4.40035840546095e-18)
(0.910333771814416 -0.0141440796552665 7.22871985127179e-17)
(1.00170718722704 -0.014508855330011 -1.76308519491012e-16)
(1.03858683107544 -0.000893479903366723 -4.62809784140947e-17)
(1.02649314403986 -0.000633843970559997 5.09394154826601e-17)
(1.03260381630305 -8.90461486025431e-05 -2.73148168930873e-16)
(1.02946934746167 7.95021738666271e-05 -2.83475719396916e-16)
(1.0294281203854 0.000281664381480378 2.39882908049203e-17)
(1.02747487833214 0.000449559557743265 -8.76290503706953e-17)
(1.02590612842378 0.000526287123606712 -8.05241868708016e-17)
(1.02386864134127 0.000570975369894751 5.26851248006762e-17)
(1.02183900139627 0.000607524813652304 1.82953138900312e-18)
(1.01967630254941 0.000611590088633494 -3.13311906720586e-17)
(1.0175338169234 0.000604623903175463 4.26631535931535e-17)
(1.01536877993863 0.000586966818662183 3.89166684744556e-17)
(1.01352975979338 0.000559577005493388 -6.82694283410538e-18)
(1.01194999416609 0.000449570710014784 2.57109222423959e-18)
(-0.303632500937635 0.00981863176085139 1.31490336035114e-17)
(-0.303252568291996 0.0109576896379952 1.30287982772296e-17)
(-0.3042431120464 0.0126259237935023 4.29692227033654e-18)
(-0.305228954337816 0.0136161284584136 -1.01564070283371e-18)
(-0.306210163747689 0.0140832840873795 -4.36613608926176e-17)
(-0.307191080692325 0.0142876384017429 2.57885896358144e-18)
(-0.308176160289474 0.0143812205506993 9.08615162905432e-17)
(-0.30917116985477 0.0144340082349179 1.06111434295726e-16)
(-0.310180192702051 0.0144738426159367 7.52121998621236e-17)
(-0.31120547881851 0.014510687150318 3.96466858437584e-17)
(-0.312247929733817 0.0145477738909815 4.91781917825792e-17)
(-0.313307990275354 0.0145856119475991 -3.2094371828124e-17)
(-0.314386572669554 0.0146238502144244 -4.19714297231483e-17)
(-0.315484841778494 0.0146625830208778 -4.72730940167731e-17)
(-0.316603458960503 0.0147022292129215 -1.06764540738786e-16)
(-0.317742885310748 0.0147426607560195 -2.07935522072134e-16)
(-0.318904263383277 0.0147833125901109 -8.86455378711359e-17)
(-0.320089037274477 0.0148244585486065 -1.82426337197408e-16)
(-0.321298061975884 0.0148666681548854 -1.65603292635327e-16)
(-0.322531962034591 0.014909802638588 -2.39234817163955e-16)
(-0.323792009688355 0.0149535145471212 -3.34421540803458e-17)
(-0.325079680988671 0.0149981039660266 4.06559259090288e-17)
(-0.326395944833737 0.0150439450989947 1.28248510768079e-16)
(-0.327741593016192 0.015091020692521 7.98097575709848e-17)
(-0.329117931085789 0.0151390897733999 3.24689039253301e-16)
(-0.330526605113228 0.0151882395611769 4.48132498400627e-17)
(-0.331968844604968 0.0152388047354228 1.24891466746909e-16)
(-0.333445609089424 0.0152908623232146 3.09587580247879e-16)
(-0.334958597440965 0.0153439524960546 3.98165389297292e-17)
(-0.336509900803842 0.0153985653778459 -1.09909749008657e-16)
(-0.338100461099186 0.0154556700540075 -4.15955552752997e-17)
(-0.339730468152589 0.0155151800767617 -1.93250897812899e-16)
(-0.341401592171434 0.0155759459872599 1.0443290972158e-16)
(-0.343116462117154 0.015638514971194 2.09109668618619e-16)
(-0.344875765625725 0.0157044419982482 -2.70847389167248e-17)
(-0.346678741276166 0.0157736820505527 1.6568069992021e-17)
(-0.348526899229258 0.0158445291370561 -3.23162182244704e-16)
(-0.350422930650478 0.0159181060728488 1.65474510914383e-16)
(-0.352365846688574 0.0159969206652041 5.54182496334679e-16)
(-0.354352186323319 0.016080430406859 4.97485022088047e-16)
(-0.356382630113726 0.0161657984841893 6.45008377209709e-16)
(-0.358459570648614 0.0162551318745435 2.50765601154945e-16)
(-0.360578025342377 0.0163527645839313 3.27034887145516e-16)
(-0.362727938217582 0.0164575078702709 2.58235640635191e-16)
(-0.36490731113869 0.0165638275329339 -2.24611793606794e-18)
(-0.367117407090158 0.0166757456669619 1.84414606301556e-16)
(-0.369343087645182 0.0168015317520361 -1.12023417442435e-16)
(-0.371559823146708 0.0169373153854542 -2.22595844854198e-16)
(-0.37376048302484 0.0170729439445714 -9.29831166989535e-17)
(-0.375942280781454 0.0172169554765361 -3.14173752945825e-16)
(-0.378065159644662 0.0173848872491056 -3.16619304106393e-16)
(-0.380074324738612 0.0175648210119894 -2.2891970210596e-16)
(-0.381952275488343 0.01773947614936 3.20406109076827e-17)
(-0.383686264351868 0.0179254732291304 1.38224749635236e-17)
(-0.385182002840626 0.0181516975149275 1.82661137387459e-16)
(-0.386320747368181 0.0183901107064098 -3.58103544117861e-16)
(-0.387063294085299 0.018610208560142 -1.64220595928704e-17)
(-0.38737118343045 0.0188446689327911 -1.4401328668214e-16)
(-0.387030327894708 0.0191670651163486 1.21318257045173e-16)
(-0.385629618023528 0.0195761956665633 9.29157203744587e-17)
(-0.38281787650116 0.0200006813859836 4.96533669558182e-16)
(-0.378276785207848 0.0205500779328527 4.30012638903687e-16)
(-0.370740699448698 0.0214464976077319 7.28270851172179e-18)
(-0.358998717673829 0.0222691105597737 1.390166176564e-16)
(-0.342941281778892 0.0228079325142433 -8.7035282049993e-17)
(-0.322440711627655 0.023255183106989 1.23356990269996e-16)
(-0.296139310488079 0.023722958443071 -2.57968288629139e-16)
(-0.263892651753822 0.0235282617171152 -5.57366121140907e-17)
(-0.226800191002571 0.0228706925342106 -3.08389176123985e-17)
(-0.184828863222161 0.021987377253304 2.82814697001055e-16)
(-0.137633267572157 0.0207649109324687 1.90434376400787e-17)
(-0.0860671509060968 0.0189290400913359 5.79150848524944e-16)
(-0.0312557844041484 0.0167401625382017 3.76362483896834e-16)
(0.0265303772332806 0.0142812027078999 1.14149814032506e-16)
(0.0866076407362852 0.0114767028193167 -4.76462273080487e-16)
(0.148189135013192 0.00847288823183781 -3.38816660505196e-16)
(0.210975052601657 0.00533350133812489 -1.08487128410923e-16)
(0.274371705312169 0.00203819855161493 1.35915496245027e-16)
(0.338008145229568 -0.00120586188643417 -6.41986446487072e-16)
(0.402397330522297 -0.00439814386057751 2.99550860541932e-16)
(0.467285293456164 -0.00756780591719084 -1.67447705797994e-16)
(0.533426959705274 -0.0106442689763734 9.2775416430998e-17)
(0.600009476156336 -0.0135286758353848 6.67301527080193e-17)
(0.672250505874914 -0.0163950067145242 -1.71219265958045e-16)
(0.741638978805027 -0.0187909902415938 1.06890609474032e-16)
(0.832192101318108 -0.018775012405716 -1.63405969838439e-16)
(0.868541657750256 -0.000925886198800327 -9.16595669883105e-17)
(0.855468042729053 -0.000412905311491155 4.95173754455375e-17)
(0.861242245894078 -0.000121746490536999 -2.70632399537018e-16)
(0.85794227105041 5.19820633437994e-05 -1.79330402070687e-16)
(0.857716322713897 0.000172842456296127 4.25851065659277e-17)
(0.855702166473934 0.000292069580199693 -8.11565702538102e-17)
(0.854134773911009 0.000347735864881999 -2.12771696299001e-16)
(0.852116476464807 0.000381448286175611 6.07986974151666e-17)
(0.850138333514247 0.000405503690383114 1.87969261812191e-18)
(0.848047431266241 0.000410403508980936 -4.54766637068325e-17)
(0.845981132646871 0.000405635517489226 6.71696815852207e-17)
(0.843907346862907 0.00038954091524241 6.14375765024207e-17)
(0.842166987240608 0.000363654980065373 3.47599975509874e-18)
(0.84078597005693 0.000252020606280291 4.20332873308274e-18)
(-0.294370872444914 0.00968239235785821 1.00094438834648e-17)
(-0.297496927025032 0.0112306275753415 9.42289155238655e-18)
(-0.299487290654198 0.0127773531705382 4.69352903584908e-19)
(-0.3009001253326 0.0136013839383998 -3.18379224487737e-18)
(-0.301946395796104 0.0139621529439734 -1.60998499987437e-17)
(-0.302839075275089 0.014114810369968 4.53481965680236e-18)
(-0.303683314325229 0.0141860850059779 4.09049944210469e-17)
(-0.304520701671987 0.0142290241115892 4.56366969888629e-17)
(-0.305365922779807 0.014263613499617 4.04861667185725e-17)
(-0.306223707623832 0.0142965938516341 2.5719670658513e-17)
(-0.307095351298427 0.0143299697742199 2.04589410858137e-17)
(-0.307981215137267 0.0143640502326595 -1.83490208963906e-17)
(-0.308881800139502 0.0143986632117993 -7.05470227490789e-17)
(-0.30979783277255 0.0144338375587482 -2.38337499586969e-17)
(-0.310729855550995 0.0144697681449281 -7.52857560602997e-17)
(-0.311678288454307 0.0145064057570576 -1.75879106479437e-16)
(-0.312643953837635 0.0145435026216604 -8.97686966204708e-17)
(-0.313627922192913 0.0145811973250009 -1.73548079457603e-16)
(-0.314630927502824 0.0146197754551097 -1.26144250935899e-16)
(-0.315653543533704 0.0146591900413815 -2.13242241555681e-16)
(-0.316696697982914 0.0146992966361948 -1.73954343644525e-16)
(-0.317761453959892 0.0147402489026619 1.21576953602751e-18)
(-0.318848629039573 0.0147822430835421 4.31931385813824e-17)
(-0.319958937185997 0.0148252913595698 -6.73942747655248e-17)
(-0.3210933145974 0.0148693011487676 1.49885897487638e-16)
(-0.322252919286734 0.0149143237409602 8.79878974024038e-17)
(-0.323438814944041 0.0149605423275046 1.03146442409589e-16)
(-0.324651907890154 0.0150080201810436 2.79815719474699e-16)
(-0.325893470556262 0.0150565618101072 4.00419078058004e-17)
(-0.327165016467519 0.0151064148547143 -7.75946180746588e-17)
(-0.328467343927899 0.0151580635812944 -2.45310023044724e-18)
(-0.329800702802505 0.015211487423208 -6.84135297559213e-17)
(-0.331166281733294 0.0152661515660102 1.69671576150474e-16)
(-0.332566009513938 0.0153223293167734 1.11172853674498e-16)
(-0.334000601416759 0.0153807873470136 -2.76854506561326e-17)
(-0.335469651759283 0.0154415240676214 -2.55717973263762e-16)
(-0.336974188210755 0.015503718109222 -3.0531546461328e-16)
(-0.33851615895633 0.015567908687788 2.00148752240616e-16)
(-0.340095010893856 0.0156353099425693 9.01131495319655e-17)
(-0.341708299692003 0.0157056480450083 2.83859617530536e-16)
(-0.343356337074126 0.015777524228816 3.49989464546717e-16)
(-0.345040743357922 0.015851920169103 6.56820430718482e-17)
(-0.346757963368334 0.0159308845965586 2.12189151465517e-16)
(-0.348500503068677 0.0160137638295549 1.41308476918942e-16)
(-0.350266444859692 0.016097766440846 -9.13239302256684e-17)
(-0.352056550580727 0.0161847357125455 4.68491224135563e-17)
(-0.353859673957057 0.0162785194355783 -1.74596144718621e-16)
(-0.355657013049467 0.0163769955799211 -3.25382788262468e-16)
(-0.357442286628706 0.0164749514495807 -7.73798691665244e-17)
(-0.359213341462192 0.0165762789259297 -1.79655995151228e-16)
(-0.360939823225655 0.0166880954469092 -1.95434327022225e-16)
(-0.362578998349454 0.0168039323440916 -3.04838393164332e-16)
(-0.364116359044441 0.0169148274181863 1.78625319001835e-16)
(-0.365542993330542 0.0170283187367974 2.24682838722414e-17)
(-0.366786377539995 0.0171574013771757 2.04830667399561e-16)
(-0.367752236235821 0.0172868132895792 -2.41177504117359e-16)
(-0.368409442821958 0.0174005556973126 -2.91630862376621e-17)
(-0.368731753724203 0.0175131576026113 -2.29464313477145e-16)
(-0.368555852268604 0.0176568529525939 1.58670751157805e-16)
(-0.367566185680605 0.0178254059519413 8.01618271612773e-17)
(-0.365496774458965 0.0179768594719664 6.64562078883731e-16)
(-0.362138074546716 0.0181575584926411 1.65603647315778e-16)
(-0.356498214052468 0.018462208421 -3.89868596326059e-17)
(-0.347592044685965 0.0186670823835531 -1.89104006928081e-16)
(-0.335332246605786 0.0186667916638365 -4.93921850390074e-17)
(-0.319653354465542 0.0185540967637227 1.92938721214287e-16)
(-0.299438158372174 0.0183697410703013 -1.43348709903226e-16)
(-0.274548449097046 0.017772788920332 -3.85934445302185e-17)
(-0.245911867205268 0.0168814507470622 -1.35776135977493e-16)
(-0.213493824469271 0.0158117645910637 1.60062212997915e-16)
(-0.176987290153924 0.0145033514736378 2.11410776352034e-17)
(-0.137068388592153 0.0128337084844003 4.51034250328519e-16)
(-0.0946578555062691 0.0109497324900202 2.29422081155131e-16)
(-0.0499371241185229 0.00889455618343851 1.41657441867334e-16)
(-0.00344986314829637 0.00663967963736226 -2.38894141325357e-16)
(0.0441645635434348 0.00426973086698726 -2.3736582462302e-16)
(0.0926901943501457 0.00181850056157923 -6.68725129320046e-17)