/*--------------------------------*- C++ -*----------------------------------*\
  =========                 |
  \\      /  F ield         | OpenFOAM: The Open Source CFD Toolbox
   \\    /   O peration     | Website:  https://openfoam.org
    \\  /    A nd           | Version:  8
     \\/     M anipulation  |
\*---------------------------------------------------------------------------*/
FoamFile
{
    version     2.0;
    format      ascii;
    class       surfaceVectorField;
    location    "0.0520000";
    object      Uf;
}
// * * * * * * * * * * * * * * * * * * * * * * * * * * * * * * * * * * * * * //

dimensions      [0 1 -1 0 0 0 0];

internalField   nonuniform List<vector> 
1094
(
(0.613807281331913 0.000529144951549893 -1.79746901278786e-18)
(0.38071503914097 0.0017483937329156 6.3237982039558e-19)
(0.614072136387467 0.000379838277233926 -8.05450311080234e-18)
(0.382660604380796 0.00187868842361688 -6.28430330500128e-18)
(0.614233080250907 0.000369669147469559 -7.19571326055809e-18)
(0.382821441300906 0.00197432170585759 -1.42341561446289e-17)
(0.614206434700788 0.000402084195025549 -4.48415546434669e-18)
(0.38281839124313 0.00211915728486113 -7.10514597138666e-18)
(0.614066691970764 0.000419647456190894 -6.97418426428375e-18)
(0.382579495677116 0.00220684649425034 -7.90490889434775e-18)
(0.61387713153449 0.000429206240229097 -5.32612583704885e-18)
(0.382211727251631 0.0022498134239029 -2.11451646519372e-17)
(0.613668987111546 0.000436183445728658 -2.7216632079807e-18)
(0.381794969219907 0.00227212811365288 -3.61845368401524e-20)
(0.613453080192248 0.000441737969985141 -7.26974622893295e-18)
(0.381359549491628 0.00228681669145517 -7.38854261142833e-18)
(0.613231448226508 0.000446060345812369 -2.46131124977253e-17)
(0.380913486839387 0.00229766808550887 -2.29160975337663e-17)
(0.61300550496395 0.000450101701166188 -3.29272487834493e-17)
(0.380459154126393 0.00230715698710985 -3.63494544928331e-17)
(0.612775751054446 0.000454379637914732 -3.73669226857428e-17)
(0.379996900334782 0.00231708911475653 -4.00889010719545e-17)
(0.612541641507802 0.000458443193501052 -2.55854630080083e-17)
(0.379526387731047 0.00232737245696989 -5.93149427728342e-17)
(0.612301554817663 0.000462062569873516 -7.59520263586359e-19)
(0.379046290176392 0.00233697515843076 2.85571668426693e-19)
(0.612055453119458 0.000465851332143143 4.57344914369349e-18)
(0.378555567556974 0.00234638816803024 4.38530191569692e-18)
(0.611803018429174 0.00047016762767318 1.43799334899753e-17)
(0.378054479704385 0.00235674340474483 1.16521179255308e-17)
(0.611543424461039 0.000474220056024801 7.95231498338242e-19)
(0.377541760300978 0.0023677600436407 5.25288182978436e-17)
(0.611276372910408 0.000477556065908453 -5.0299052430526e-17)
(0.377016404036657 0.00237766103489832 -3.9041025585239e-17)
(0.611002543645041 0.000480949002796053 -4.84095773326619e-17)
(0.376479074021401 0.00238710060804607 -8.89453108727879e-17)
(0.610721869444477 0.000484766195888215 -2.28997639702923e-17)
(0.375929205122538 0.00239745333523671 -1.01082904811643e-16)
(0.610434011551795 0.000488456300658554 -6.52330299122984e-17)
(0.375366349598915 0.00240833861274592 -5.38997053558529e-17)
(0.610137691069227 0.000491844312030104 -4.65628124546068e-17)
(0.374789631804777 0.00241868114557776 -1.435806444056e-16)
(0.609832819480317 0.000495358212818472 2.37493623203326e-17)
(0.374198093737876 0.00242909970053694 2.89312631933334e-17)
(0.609520117278323 0.000499223631063842 7.9289981406883e-17)
(0.373591502040936 0.0024402448104997 7.66972608425067e-17)
(0.609199215404957 0.000503303304532727 4.05259436642149e-17)
(0.372970266879944 0.00245214086710594 1.80984540477167e-16)
(0.608867415811075 0.000507371961887078 -8.02628969078439e-17)
(0.37233260451549 0.00246427325510485 -1.35592710750375e-17)
(0.608524626010451 0.000511431445471801 -7.86033609162905e-17)
(0.371676167284964 0.00247654584574433 -1.07594606155123e-16)
(0.608172707135832 0.000515724194082054 -2.7875258834294e-17)
(0.371002187413781 0.00248923602616822 -4.98007195509202e-17)
(0.60781231701664 0.000520045875297024 -6.4663281020815e-17)
(0.370311362235805 0.00250279195814741 -3.55662688240004e-17)
(0.607441487663241 0.000524207586695727 -2.5810596505086e-17)
(0.369602111830186 0.00251608381015238 -9.91693174460392e-17)
(0.607059949960006 0.000528931823679051 3.1019911851025e-17)
(0.368873113955047 0.00252975995952197 -3.14294455772974e-18)
(0.606667702707395 0.000534820557029033 1.1662150224034e-17)
(0.368124441886995 0.00254535989392338 4.00038633188069e-18)
(0.606264328597074 0.000541085220614127 2.06500309665963e-17)
(0.367355468167899 0.00256313867300666 3.26701142267775e-17)
(0.605847694453963 0.00054707752542538 1.44816719733685e-16)
(0.366564298045188 0.00258055273295566 3.0167446362687e-17)
(0.605418584252468 0.000553828969476989 2.17265958252609e-16)
(0.365750072448212 0.00259832086218164 2.91635011714302e-16)
(0.604978556788323 0.00056222337111363 1.88530865278797e-17)
(0.364914005169893 0.00261884305154767 2.1933611547927e-16)
(0.60452826640859 0.000571185052671373 -1.27191749488638e-16)
(0.364056547312898 0.00264240472118046 -3.71066873119714e-17)
(0.604065164079972 0.000580162176031055 -1.15307118004127e-16)
(0.363176008893306 0.00266554516682955 -2.41314235475628e-16)
(0.603589543059253 0.000590953390871913 -1.65113835998005e-16)
(0.362271747784313 0.0026900991816216 -8.36792490444304e-17)
(0.603104185246605 0.000604497605835507 -1.11365349781543e-16)
(0.361344986442326 0.00271973271865466 -2.23167295194929e-16)
(0.602611438829368 0.000618985072177474 1.06494490768396e-17)
(0.360398244879878 0.00275380094275577 1.278870225371e-17)
(0.602107766108196 0.000633917161189711 1.80980788867167e-17)
(0.359430808929579 0.00278749538528539 4.53490689899364e-17)
(0.601593255784122 0.000652268922744061 4.69152704593204e-18)
(0.358441279235963 0.00282404900935315 1.37347488256412e-16)
(0.601073361594597 0.000675633935532629 -7.41096445202339e-17)
(0.357433379932183 0.00286939141291625 3.19716677358899e-18)
(0.600553219218304 0.000700851208948736 -4.17545545306444e-17)
(0.356413230031546 0.00292280610334643 -1.99437456845848e-16)
(0.600027823375048 0.000726933727795517 7.35146533183589e-17)
(0.355381129151973 0.00297533845877044 1.29535755969528e-16)
(0.599499743748816 0.000759482940171099 -1.66980939017415e-17)
(0.354337389014001 0.00303268310744026 8.45684530510855e-17)
(0.59898247364271 0.000800836129807249 -7.82961177736659e-17)
(0.353293260929919 0.00310661788676288 -1.54899245681126e-16)
(0.598483574738613 0.000844786377707927 -1.18617459280507e-16)
(0.352261457548186 0.00319298837588986 -6.13776809672037e-17)
(0.597996068300811 0.000890439180863741 -2.47671301537988e-16)
(0.351243522709363 0.00327672227027226 -2.09543782036417e-16)
(0.597524975875578 0.000949062352600331 -6.89537254351461e-17)
(0.350245194831767 0.00336960124756278 -4.25076332838723e-16)
(0.59709735318138 0.00102285052366423 1.63820782802778e-17)
(0.349289105008793 0.00349511888472212 1.61882726484266e-16)
(0.596726553645947 0.001099419836576 -8.10018054648466e-17)
(0.348400461519026 0.00363707958119457 -2.55296272674879e-16)
(0.596411639632413 0.00117852914835637 -1.841139571499e-17)
(0.347591037766943 0.00377315987457214 -8.00689050291054e-17)
(0.596165074924436 0.00128108300876445 2.59028943644918e-17)
(0.346881340122283 0.00392411428483233 6.47373415164364e-18)
(0.596031643969383 0.00140990425889576 6.22618038872334e-17)
(0.34631729085481 0.00413414016696133 9.44552927609004e-17)
(0.596033978921948 0.0015413319279117 1.47671042617612e-16)
(0.345941323049943 0.00436833058225044 1.49147493345984e-16)
(0.596190125904462 0.00167537520967709 2.15747073081889e-16)
(0.345788111576062 0.00458820719729132 2.86799001723883e-16)
(0.596537532378677 0.00185663519002412 9.97057625049942e-17)
(0.345922555854451 0.00483204447115685 2.84501010068943e-16)
(0.597213165386041 0.00212106217828168 -8.21757216260715e-18)
(0.346461440203402 0.00519961614257116 -3.21056567982801e-17)
(0.598464299720678 0.0024453752192652 5.69075267832983e-17)
(0.347645073442399 0.00570423891799565 -8.88769831625317e-18)
(0.600570370702923 0.00283489484680987 3.53208058354717e-17)
(0.349769021855397 0.00626396946499173 1.06664290316879e-16)
(0.6037752698416 0.00345244924131408 -5.2899452424069e-17)
(0.353315782814856 0.00697683565597269 -9.33783792222115e-17)
(0.608532215163552 0.00425101167777746 -3.69947741024064e-17)
(0.358812641332762 0.00823400470808681 -1.21862281259429e-16)
(0.61482048001555 0.00499185259181427 -7.60581239868021e-17)
(0.366578140945848 0.00949302076656923 -2.42741266545505e-17)
(0.622666806348338 0.00567188717672564 -1.03930584992732e-16)
(0.376803819674518 0.0105567104830057 -1.60785730456528e-16)
(0.632078366043409 0.00646728015524001 -3.00155209726397e-17)
(0.389796285658486 0.0116010535381788 -1.40970204400795e-16)
(0.643411802368608 0.00716665141257049 7.71921062187358e-17)
(0.405684587223217 0.0129515823664416 1.27891931311056e-16)
(0.656390952906923 0.00755327832066259 1.85527757636758e-17)
(0.424471366719801 0.0136395713829885 1.85440852731899e-16)
(0.671060658497486 0.00781511218717633 -6.00717300402682e-17)
(0.446232233922734 0.0139845643784236 -2.14728423719703e-16)
(0.687349846930466 0.00801242853587834 -8.78578081539718e-17)
(0.470772805259755 0.0142090937354025 -2.56911983757466e-17)
(0.705244837606052 0.00797675050502049 -5.92297481854335e-17)
(0.497934348530492 0.0142682384165486 -2.22113064339227e-16)
(0.724384109807622 0.00766689974274899 -3.4090846086245e-17)
(0.527430135382078 0.0137083135141741 8.68811579115456e-17)
(0.744619836810665 0.00722770893333763 -1.7439085685753e-16)
(0.5589756890223 0.0128737505481651 -1.16766704588817e-16)
(0.765783089402059 0.00663220788446549 -1.26711793544444e-16)
(0.592093478580376 0.0118427627422502 -2.79942987037272e-16)
(0.787636316904557 0.00587985750727847 -6.6007834539862e-17)
(0.626501134497545 0.0104773576803166 7.42766361913812e-17)
(0.810019282100293 0.00504957849491199 -6.80124528258905e-17)
(0.661935642387005 0.00893205036505239 -2.33786104344631e-16)
(0.832844921203698 0.00413519042111053 1.12814278655351e-16)
(0.698041314900134 0.00729478380386724 -4.17482760308729e-17)
(0.855943470637586 0.0031859875978071 1.54041252303846e-16)
(0.734672958117202 0.00547087510771256 1.99251179491293e-16)
(0.879369728603372 0.00228785889854361 9.96209662407807e-17)
(0.77174572717833 0.00372505794419136 1.23161236226614e-16)
(0.90321034657648 0.00143298331706496 9.93853036936986e-17)
(0.809339999006277 0.00205916326030139 2.68925086081364e-16)
(0.927472458745316 0.000633658373512445 3.96803370277812e-17)
(0.847392298688715 0.000441202225271897 2.20966353678667e-16)
(0.952404651628775 -3.32961083769434e-05 -7.61022785620546e-18)
(0.886528572461042 -0.00106332464498776 3.20751999522092e-17)
(0.978235317341273 -0.000615510981946954 -5.29800579261785e-17)
(0.926198422332593 -0.00227369092577918 -5.9890961049936e-17)
(1.00588006382812 -0.000917803928743703 -3.03709672090504e-17)
(0.969451459786878 -0.00342861544782718 -1.51143336454862e-16)
(1.03418195281081 -0.00120310033747945 -1.60162385824315e-17)
(1.0113090424727 -0.00398312840615624 2.81541364927898e-17)
(1.06369113717571 -0.000521656943301529 1.29636244339994e-17)
(1.06458642441916 -0.00446015782769542 -1.35074028897527e-17)
(1.06362460189445 2.72769350797252e-05 8.17807590980379e-17)
(1.0866436748163 -0.000523819069865782 6.60189540514591e-17)
(1.06630564012587 0.000152191011494139 2.81274020527072e-17)
(1.08104535564041 -0.00051492329355368 1.07987178509543e-16)
(1.06708355537058 0.000287064688299302 -2.94719831627367e-18)
(1.08542545424341 -4.00292199783349e-05 2.60324305228896e-18)
(1.068017517095 0.000326665587696308 4.03150010838577e-17)
(1.08433776645629 6.79027051387299e-05 6.14822231725498e-17)
(1.06834906917742 0.000402174841577268 8.24491841910341e-18)
(1.08501946514701 0.000243621824771531 2.44578113769096e-17)
(1.06835311218767 0.00043773114101616 -1.71250937569664e-17)
(1.08432784283267 0.000375719237861573 -3.04096216554203e-17)
(1.0680540890441 0.000432988068653342 -3.92442265591336e-18)
(1.0836643318442 0.000439323123730871 -6.89898436500434e-19)
(1.06761782889749 0.000429979264152136 -1.60924734645584e-17)
(1.082700287736 0.000474104663230624 -1.41814367888151e-17)
(1.06703652339082 0.000415433184708284 -2.601287122894e-18)
(1.08164557883841 0.000502163440250846 -5.01271284240231e-17)
(1.06638370675819 0.000388772003355986 1.3868686376821e-17)
(1.0804576881513 0.000503451459757996 3.95731051626909e-17)
(1.06569442847018 0.000364305512616146 2.27783688078122e-17)
(1.07926614595773 0.000495237154872585 1.60736101509857e-17)
(1.06497097424102 0.000335651075719383 2.21533360238925e-17)
(1.07801056679565 0.000477466906575484 5.74429436292476e-17)
(1.06408535919269 0.000368187251206309 4.45511141007582e-18)
(1.07687627029277 0.000445552818229072 1.31991391818601e-17)
(1.07542284609736 0.000344363319787136 3.65985309295739e-18)
(0.146839118470527 0.00337220404417681 -3.88317384736331e-18)
(-0.0062285611694755 0.00512971646069134 -1.9138057335451e-18)
(0.147962885703575 0.00387023811356462 -1.25110963851442e-17)
(-0.00331093196637441 0.00564347895583759 -6.55105516214157e-18)
(0.148283364765487 0.00422471067650894 -1.41759843224089e-17)
(-0.00316874130042398 0.00632718936377204 -1.50181662542382e-17)
(0.148086772283439 0.00447183941148718 -1.0568530584009e-17)
(-0.00337025879371401 0.00684053919163293 -8.38609034870257e-18)
(0.147629761285925 0.00460362465574698 -2.22059924826002e-17)
(-0.00389372884359415 0.00711300833976852 -1.15117680564809e-17)
(0.147059324546925 0.00466736548109546 -1.58787735631763e-17)
(-0.00458019548445278 0.00723823599133791 -3.30007111527954e-17)
(0.146443172366812 0.00470117705958019 -4.73246561517122e-18)
(-0.00533093242618617 0.00729672123281657 -3.33363797345758e-17)
(0.145806941678209 0.00472351037114517 -2.31725929480257e-17)
(-0.00610822221258933 0.00732991767263266 -1.1196192460851e-17)
(0.145157001643226 0.00474162030824504 -3.47478630637059e-17)
(-0.00690178030302959 0.0073540716855084 -5.40793572880062e-17)
(0.144494505003098 0.00475892877442255 -4.35872885915581e-17)
(-0.00770992321939219 0.0073756592421025 -2.7092828207512e-17)
(0.143819901597749 0.00477663866433558 -6.22376688018822e-17)
(-0.00853248256315671 0.00739754994944304 -6.72536129083524e-17)
(0.143132562231478 0.00479430930422161 -3.33516406710626e-17)
(-0.00936961045947579 0.0074199539530209 -5.64548363506177e-17)
(0.142430678377521 0.00481169551500222 5.47842716335886e-18)
(-0.0102226856466654 0.00744210445162189 2.29350791383111e-17)
(0.141713280176547 0.00482957108991324 1.15237100064173e-17)
(-0.011093280046662 0.00746433447897134 7.50100551621734e-18)
(0.140980351594093 0.00484832221153187 5.01158169802012e-17)
(-0.0119816558231283 0.00748765573241131 1.22320309690235e-17)
(0.140231431474486 0.00486693466976295 1.25344342664739e-17)
(-0.0128881306866765 0.00751174100626209 6.52283222115284e-17)
(0.139464923964824 0.0048848578601604 -7.79757080112743e-17)
(-0.0138140118144766 0.00753510144360975 -9.55990087034487e-17)
(0.138680060621553 0.00490308434570643 -1.42193916094622e-16)
(-0.014760551545173 0.00755821680425356 -9.8114061162706e-17)
(0.137876918859923 0.00492213911420494 -1.32589568549281e-16)
(-0.0157283439745773 0.00758239178547629 -2.18055996753995e-16)
(0.137054883180818 0.00494133792655553 -1.32867010554075e-16)
(-0.0167176292792858 0.00760732716114079 -1.50746417731762e-16)
(0.13621218921407 0.00496045542470748 -6.77437491927598e-17)
(-0.0177297611021302 0.00763215265315118 -2.00821485306555e-16)
(0.13534792823334 0.00498013852996872 8.23330960356291e-17)
(-0.0187663701249395 0.00765733849279803 1.96261005401785e-17)
(0.134462015792748 0.00500076951696236 1.79225688911336e-16)
(-0.0198280968597164 0.00768358347426657 6.35313912710024e-17)
(0.133553702497593 0.00502212095893465 1.26820067491872e-16)
(-0.0209151507488922 0.00771093893910302 2.02047941319208e-16)
(0.132621018467088 0.00504387052121097 -4.09491454244191e-17)
(-0.0220290610911107 0.00773901869398584 1.53323740798733e-17)
(0.131662833619154 0.00506610555246268 -7.86248066182686e-17)
(-0.0231719275979511 0.00776761958867442 -9.29477857236127e-17)
(0.130679193965915 0.00508918595326248 -5.76043416819613e-17)
(-0.0243442112701251 0.00779705954617196 -7.90456033445161e-17)
(0.129669804630396 0.00511278626091764 -7.02914776251287e-17)
(-0.025546090897523 0.00782766935526888 -5.731216832506e-17)
(0.128632433970643 0.00513672846896709 -7.64655882503339e-17)
(-0.0267793111933255 0.00785862080405555 -8.99045924623409e-17)
(0.127565648189556 0.00516222204722471 -3.04471040718232e-17)
(-0.0280461524003108 0.00789050654472112 -1.24295791260795e-16)
(0.126469463105907 0.00519022198181626 2.51650849889632e-17)
(-0.029347204227572 0.00792501831363194 -1.92538309834235e-19)
(0.125343585599625 0.00521952222669088 4.22844332659087e-17)
(-0.0306823245770758 0.00796225666238418 7.09293663992177e-17)
(0.124185289765551 0.00524918686909565 1.77998330137762e-16)
(-0.0320533847198975 0.00799995466605757 1.23304520934267e-17)
(0.122993371561661 0.005280922094729 2.9382547077741e-16)
(-0.0334630516873298 0.00803867918907849 2.50820333097292e-16)
(0.121769070590664 0.00531618391407829 1.63177441024075e-16)
(-0.0349112540791497 0.00808104469088723 2.03483353848078e-16)
(0.120512994532563 0.00535329921928445 -1.52048029465072e-16)
(-0.0363966189526887 0.00812717580397844 1.69572279326824e-16)
(0.11922196394271 0.00539147789587455 -2.09555756734508e-16)
(-0.0379210045309433 0.00817396764599226 -2.95907967194642e-16)
(0.117895201247531 0.00543378012590454 -1.42132080835024e-16)
(-0.039487208610027 0.00822317606080259 -2.33504425000713e-16)
(0.116536183886465 0.00548186577688848 -9.80899805131491e-17)
(-0.0410937423331783 0.00827878345708987 -2.59353443456804e-16)
(0.115147198549239 0.00553277131045605 4.77697927637925e-17)
(-0.0427364834961005 0.00833989770859384 -5.73414124411592e-17)
(0.113724725726208 0.0055857504558588 1.65574021233051e-16)
(-0.0444166110606539 0.00840203170146933 1.89256163297288e-16)
(0.112269239324638 0.00564602399512206 1.35875914877778e-16)
(-0.0461372275443951 0.0084684763987064 3.07656463116474e-16)
(0.110788922774578 0.00571647566329856 -1.23139324910405e-16)
(-0.0478931018885821 0.00854581835303897 1.79592194578575e-17)
(0.109290622413353 0.0057916894505015 -2.67469344870839e-17)
(-0.049673792421687 0.00863274571022356 -2.51296768783525e-16)
(0.107770932494132 0.00587004764961948 1.40668038733986e-16)
(-0.0514783891636313 0.00872061114055527 2.01326628610923e-16)
(0.106234770151751 0.00596156763647338 -5.48013727995523e-17)
(-0.0533091716417189 0.00881543884018383 8.82241438018117e-17)
(0.104702293803142 0.00607050314408825 -1.37801586531484e-16)
(-0.05515061832685 0.00892994850932953 -2.4542916215834e-16)
(0.103187710309994 0.00618582861157078 -1.53093372199757e-16)
(-0.0569792897981799 0.00905915600805667 -9.76250426734277e-17)
(0.10168848324658 0.006306018394227 -3.88451938774332e-16)
(-0.0587914252330433 0.00918760373396878 -2.19933066042252e-16)
(0.100219641113831 0.00645152414907947 -1.91948878968239e-16)
(-0.0605854403322657 0.00932872743692926 -5.5261836590116e-16)
(0.0988266352403087 0.00662637300920924 -1.12244853480183e-16)
(-0.0623229512984852 0.00950707932331834 2.31006824917172e-16)
(0.097538368486882 0.00680791632631311 -2.54116147628215e-16)
(-0.0639544607753458 0.00970519261183147 -3.8593787121164e-16)
(0.0963608175600956 0.00699563621747112 -5.48767943492338e-17)
(-0.0654667526826297 0.00989801395567252 -1.52819326395305e-16)
(0.0953313237880499 0.00722792483953956 7.56460012683213e-17)
(-0.066846517005853 0.0101109949518971 1.06894910217706e-17)
(0.094542411366225 0.00750975867737482 1.82028836506998e-16)
(-0.0680091368572047 0.0103901244260934 1.89921382640049e-16)
(0.0940545556546876 0.00779698408781577 2.89474849966562e-16)
(-0.0688538899396659 0.0106975292107165 1.39744792223659e-16)
(0.0938968216205076 0.00808978754767956 3.559963591038e-16)
(-0.069344686026739 0.0109875939943759 4.28543387385385e-16)
(0.0941657396663205 0.00847246955417552 1.5109240654732e-16)
(-0.0694363935467332 0.0113091432136571 2.9509130450575e-16)
(0.0951289233355182 0.00901342797413947 -3.27273699317409e-17)
(-0.0689372488550378 0.0117771736291521 -8.26073396257966e-17)
(0.0971522243160638 0.00966922000749915 4.14699813501985e-17)
(-0.0674610612065868 0.0124038161757365 -2.16142662749994e-17)
(0.100596929623778 0.0104523027759231 -2.33972623533276e-17)
(-0.0646512900530793 0.0130922528326476 9.49819192460914e-17)
(0.106033490023262 0.0116620560225223 -1.62948498634317e-16)
(-0.0600960157465114 0.014000060363851 -1.93955637136877e-16)
(0.114487350006932 0.0131971117419523 -1.08926882155549e-16)
(-0.0527233528542398 0.0154956649188162 -2.49085716840645e-16)
(0.126316420603844 0.0145935349320113 -1.09825678385365e-16)
(-0.041596211417913 0.0169987756397345 -4.02181384257147e-17)
(0.141636144908093 0.0158381399779951 -1.98126255074489e-16)
(-0.0265937863587676 0.0182150015445785 -2.08282228343538e-16)
(0.160824648257551 0.0172465503335838 1.83266759027169e-17)
(-0.00751362266491924 0.0194099148762465 -2.91897676064176e-16)
(0.184601001034014 0.0184049296056638 2.37007187826613e-16)
(0.0165922944824952 0.0208167553928342 2.61497884018609e-16)
(0.212440958641931 0.0189058951434228 -4.95368731528445e-17)
(0.04581178130153 0.0214357518742913 2.78413479065983e-16)
(0.244124616597688 0.0191009018236585 -1.80123916827261e-16)
(0.0794546588123814 0.0215353612359456 -4.45257467092598e-16)
(0.279675306008054 0.0191008567211961 -1.60727897206718e-16)
(0.117456229489703 0.02144206301758 -4.0681541443698e-17)
(0.318967247288943 0.0185851219827904 -7.528869526346e-17)
(0.159985667850242 0.0210358576685763 -3.54816330026754e-16)
(0.361175480466449 0.0174905836058599 3.79569523006614e-18)
(0.206359727155017 0.0198610819446157 1.85595421544851e-16)
(0.405847804341272 0.0160929058170874 -2.22715699974531e-16)
(0.255720317902557 0.0182786078409131 -1.30656926088885e-16)
(0.45260707488135 0.0143517002424653 -7.82626114444346e-17)
(0.307688380231163 0.0164009550181305 -3.71712549454539e-16)
(0.500881734380201 0.0122804785877586 -9.4073561886387e-17)
(0.3617082567688 0.0140954011562049 2.64941015229463e-16)
(0.550275451483277 0.0100342738938801 -2.06935520361884e-16)
(0.417164672547594 0.0115444293950136 -3.77889067216313e-16)
(0.600506993360948 0.0076116195920731 4.54527949378606e-17)
(0.47370394441349 0.00884249574799591 -8.60903173766536e-17)
(0.651205363658211 0.00512126566146064 1.68082585034857e-16)
(0.53090440584908 0.00593222138273714 2.06524038180594e-16)
(0.702455070365079 0.00272612091384209 2.9201054086952e-16)
(0.588502385770816 0.00310164544182855 2.38024084591579e-16)
(0.75441416216947 0.000407945026837171 3.88556588905522e-16)
(0.64685876478157 0.000363869948293265 3.51658011312373e-16)
(0.807173398549953 -0.00180428628837517 2.11266019389195e-16)
(0.705801994839905 -0.00231380831069091 2.60230481645571e-16)
(0.861126760830358 -0.00376850518166289 -2.05956673186151e-17)
(0.766113517790226 -0.004848577175737 6.27448661130357e-17)
(0.917165915947854 -0.00556609379272652 -1.57575646612275e-16)
(0.827034608712481 -0.00703516801393157 -1.17650460680795e-16)
(0.976143771249658 -0.00687445250475949 -9.06171750377447e-17)
(0.893305322388101 -0.00917406867281172 -2.20193545788746e-16)
(1.03869469153071 -0.00765997058410191 2.9758584538718e-17)
(0.957211965246727 -0.0105351479112971 5.83608753817916e-17)
(1.09780410993454 -0.00410572421473424 3.94836413657051e-17)
(1.03926294139221 -0.0110440225585497 4.82391975798762e-17)
(1.09985036548345 -0.000632173209328945 9.20612300361396e-17)
(1.07250841205181 -0.000734579113382489 5.6343001876202e-17)
(1.10128678886349 -0.000227650993437028 8.18551651127497e-17)
(1.06213565480243 -0.000661402027793393 1.38800418198212e-16)
(1.10154259650319 9.93579541894049e-05 6.63522780079991e-17)
(1.06786497807921 -7.08657979267149e-05 7.75455888589604e-17)
(1.1012649321079 0.000256678724517619 4.55419486693493e-17)
(1.06525054677304 8.28140027114992e-05 1.23365218550865e-16)
(1.10051786002129 0.000446739967364811 -1.40485163858464e-17)
(1.06540993448152 0.000298555615078314 -2.63331874353786e-17)
(1.09941035289408 0.000566271137799732 -1.39642338504523e-17)
(1.06377378880809 0.000459548583017332 -2.44793828330363e-17)
(1.09803451737247 0.000608486469062888 -1.09101207126551e-17)
(1.0624264559846 0.000544018024042413 -7.70082864255233e-19)
(1.09650409694066 0.000644929469432759 -4.80257379858025e-17)
(1.06065024850083 0.000588122747765804 8.18679149617738e-18)
(1.09485993972524 0.000658921166613985 -7.78425222314379e-18)
(1.05885443449844 0.00062227956519529 -6.41704520708205e-17)
(1.09315218524335 0.000649656370416347 4.15506806902393e-17)
(1.05692373264401 0.000625490920136508 6.2225032179266e-17)
(1.09143076087286 0.000638994324694501 5.06157714454759e-17)
(1.05500694290891 0.000615395624442023 3.13019453451273e-17)
(1.089762168945 0.000621263671998269 4.82670563930181e-17)
(1.05305381308247 0.000591784328553366 8.02895417193093e-17)
(1.08824601469939 0.000653513807659462 1.23548409741852e-17)
(1.05137482931233 0.000550778323088247 1.70248856870385e-17)
(1.04979608508382 0.000396543132421313 4.9591094554459e-18)
(-0.157766664534705 0.00749231561480031 -4.59618678028421e-18)
(-0.231128171461573 0.00837350848604113 -2.2290652691838e-18)
(-0.156721761835597 0.00827793280840766 -9.05388664312843e-18)
(-0.229474533846334 0.00921275198901501 -6.32709646233509e-18)
(-0.156724747901134 0.00918508141046131 -9.18178072285456e-18)
(-0.229966504035078 0.0106485032869232 -1.1986959950697e-17)
(-0.157257422737465 0.00973780384497419 -9.32829747621762e-18)
(-0.230644605236865 0.0115316699081545 -5.1902971592271e-18)
(-0.15801673707365 0.0100089966305445 -2.23551251694925e-17)
(-0.231475536798426 0.0119594128112082 -6.35469435860056e-18)
(-0.158870788147284 0.0101328397456955 -5.06762431851602e-17)
(-0.232381426266216 0.012148922109353 -2.7325850182925e-17)
(-0.159765973253588 0.0101939410544051 -3.99675763924896e-17)
(-0.233319289301271 0.0122355730140825 -7.77999785454783e-17)
(-0.160682964082834 0.0102318898615635 -4.23188258394915e-17)
(-0.234275379138772 0.0122838715975449 -3.24089563945705e-17)
(-0.161617102125203 0.0102623651343649 -4.64322490831923e-17)
(-0.235247329446076 0.0123195533777394 -6.99296319586828e-17)
(-0.162567971945005 0.0102913914888727 -5.08977190229883e-17)
(-0.236235745829544 0.0123520721089653 -3.37178820860949e-17)
(-0.163535573624716 0.0103208474091249 -6.14403121012835e-17)
(-0.237241132298303 0.0123848039352013 -6.99921036014015e-17)
(-0.164520606580882 0.010350599333467 2.21095331801623e-19)
(-0.238263816696613 0.0124182161624708 5.85424694833635e-18)
(-0.165524596762641 0.010380472557214 2.5033428123928e-17)
(-0.239304905437404 0.0124518276992509 8.25600800110225e-17)
(-0.166548641244784 0.0104110545650255 8.20194202435783e-18)
(-0.240365767417379 0.0124858487218288 3.74294751300398e-18)
(-0.167592962201336 0.010442628792891 2.73484724528087e-17)
(-0.241446915843911 0.0125209493073027 -2.86637477203339e-18)
(-0.168658167862409 0.0104743893796135 -4.36312902263104e-17)
(-0.2425486357679 0.0125568896787815 6.86328269488265e-17)
(-0.169745989604685 0.0105058983142403 -1.15955089153397e-16)
(-0.243672177578332 0.0125926651468853 -1.24669028849639e-16)
(-0.170857695574948 0.0105379537725049 -1.7446809876308e-16)
(-0.244819160377967 0.0126285990141069 -6.82991754524721e-17)
(-0.171993619811214 0.0105710212412342 -2.36599014421756e-16)
(-0.245990403869543 0.0126656212166547 -2.27362001824727e-16)
(-0.17315460464342 0.0106045949525472 -2.19300414282334e-16)
(-0.247186353254401 0.0127035730068688 -2.12365266823854e-16)
(-0.174342388353074 0.0106385055325298 -1.13088630914242e-16)
(-0.248408350661867 0.012741869003762 -1.82946594752567e-16)
(-0.175558245373665 0.0106733015772225 5.17369873860289e-19)
(-0.249658032809236 0.012780844965709 -1.45814674054524e-17)
(-0.176802782229579 0.0107093453613471 8.62628485915068e-17)
(-0.250936330262301 0.012821043371332 2.08958062114169e-17)
(-0.178076948812198 0.0107464847775269 8.98358058479402e-17)
(-0.252243858100581 0.0128625368135784 1.56613881359889e-16)
(-0.179382413652624 0.0107844555723169 -3.69613301340369e-17)
(-0.253581907200019 0.0129050592635836 2.18660987571192e-17)
(-0.180720709671716 0.0108233302469263 -9.34012207690296e-17)
(-0.254952249327637 0.0129484672923313 -1.09773456350219e-16)
(-0.182092704332948 0.0108634166993256 -7.87925568581694e-17)
(-0.256356070091465 0.0129930155817965 -1.09681772183394e-16)
(-0.183499401599824 0.0109044907243101 -7.70577418180945e-17)
(-0.257794213064447 0.0130389538947628 -6.6258584218028e-17)
(-0.184943043877742 0.0109464769698487 -1.38137257553854e-16)
(-0.259268411882077 0.013085736838694 -7.94242685783468e-17)
(-0.186425408956647 0.0109904694274997 -9.39495838835037e-17)
(-0.260780945197658 0.0131338482453977 -1.44297278974902e-16)
(-0.187946724802176 0.0110373185941122 4.58970452948485e-17)
(-0.262332736866515 0.0131846004025107 5.39420346825357e-18)
(-0.189507484500171 0.011086019659239 4.07768038587545e-17)
(-0.263923723273937 0.0132380789768453 1.3631276375301e-16)
(-0.191110376564058 0.011135797134616 8.55276036463192e-17)
(-0.265555547769174 0.0132926256843244 -6.34770761185869e-17)
(-0.192757327254145 0.011188166705459 1.5971851258094e-16)
(-0.267231069152382 0.0133486712578988 1.37473389488088e-16)
(-0.194447667507944 0.0112444360548177 2.09966781170867e-16)
(-0.268950911970095 0.0134082490687096 5.46847739286584e-17)
(-0.196181146703731 0.0113032137761333 2.4840636376241e-17)
(-0.270713983892574 0.0134714764430666 2.0518846037241e-16)
(-0.197960784766773 0.0113638875813434 -3.20104219448163e-16)
(-0.272521903211466 0.0135360538491143 -1.9157204771715e-16)
(-0.199787724603342 0.0114292050614751 -3.51701256522251e-16)
(-0.274377619327014 0.0136033355863223 -3.70927292690201e-16)
(-0.201658710857389 0.0115006559320177 -2.18348129316913e-16)