/*--------------------------------*- C++ -*----------------------------------*\
| =========                 |                                                 |
| \\      /  F ield         | foam-extend: Open Source CFD                    |
|  \\    /   O peration     | Version:     4.1-20200408                       |
|   \\  /    A nd           | Web:         http://www.foam-extend.org         |
|    \\/     M anipulation  |                                                 |
\*---------------------------------------------------------------------------*/
FoamFile
{
    version     2.0;
    format      ascii;
    class       pointVectorField;
    location    "0.0120000";
    object      pointDU;
}
// * * * * * * * * * * * * * * * * * * * * * * * * * * * * * * * * * * * * * //

dimensions      [0 1 0 0 0 0 0];

internalField   nonuniform List<vector> 
4059
(
(0 1.17477e-17 -3.01154e-16)
(0 -2.37113e-14 1.01949e-15)
(0 -1.57603e-09 6.8811e-11)
(0 1.16033e-17 -3.00998e-16)
(0 -2.37113e-14 -1.33663e-15)
(0 -1.57603e-09 -6.88115e-11)
(0 2.36627e-14 -1.04891e-15)
(0 8.43868e-15 -3.84213e-16)
(0 5.05011e-15 -2.36265e-16)
(0 2.53442e-15 -1.26428e-16)
(0 1.62693e-15 -8.68065e-17)
(0 4.09356e-16 -3.36462e-17)
(0 -2.89708e-16 -3.12322e-18)
(0 -5.95154e-16 1.02131e-17)
(0 -1.53828e-15 5.13889e-17)
(0 -9.62869e-16 2.62664e-17)
(0 -2.1613e-15 7.85933e-17)
(0 -8.73073e-16 2.23468e-17)
(0 -2.07423e-15 7.47892e-17)
(0 -4.90473e-16 5.64158e-18)
(0 -1.67728e-15 5.74595e-17)
(0 -1.52986e-09 6.6795e-11)
(0 -1.48392e-09 6.47895e-11)
(0 -1.44744e-09 6.31966e-11)
(0 -1.41782e-09 6.19034e-11)
(0 -1.28074e-09 5.59183e-11)
(0 -1.13684e-09 4.96355e-11)
(0 -1.03462e-09 4.51726e-11)
(0 -9.15147e-10 3.99561e-11)
(0 -8.03963e-10 3.51017e-11)
(0 -6.88881e-10 3.00771e-11)
(0 -5.8068e-10 2.5353e-11)
(0 -4.64885e-10 2.02973e-11)
(0 -3.73491e-10 1.63069e-11)
(0 -2.72038e-10 1.18774e-11)
(0 -1.42683e-10 6.22967e-12)
(0 2.36627e-14 7.31774e-16)
(0 8.43868e-15 6.70772e-17)
(0 5.05011e-15 -8.08713e-17)
(0 2.53442e-15 -1.90708e-16)
(0 1.62693e-15 -2.30332e-16)
(0 4.09356e-16 -2.83492e-16)
(0 -2.89708e-16 -3.14013e-16)
(0 -5.95154e-16 -3.27349e-16)
(0 -1.53828e-15 -3.68528e-16)
(0 -9.62869e-16 -3.43405e-16)
(0 -2.1613e-15 -3.95728e-16)
(0 -8.73073e-16 -3.39484e-16)
(0 -2.07423e-15 -3.91929e-16)
(0 -4.90473e-16 -3.2278e-16)
(0 -1.67728e-15 -3.74596e-16)
(0 -1.52986e-09 -6.67955e-11)
(0 -1.48392e-09 -6.47899e-11)
(0 -1.44744e-09 -6.31971e-11)
(0 -1.41782e-09 -6.19039e-11)
(0 -1.28074e-09 -5.59188e-11)
(0 -1.13684e-09 -4.96359e-11)
(0 -1.03462e-09 -4.5173e-11)
(0 -9.15147e-10 -3.99565e-11)
(0 -8.03963e-10 -3.51021e-11)
(0 -6.88881e-10 -3.00775e-11)
(0 -5.8068e-10 -2.53534e-11)
(0 -4.64885e-10 -2.02976e-11)
(0 -3.73491e-10 -1.63073e-11)
(0 -2.72038e-10 -1.18778e-11)
(0 -1.42683e-10 -6.23e-12)
(5.00036e-05 3.79038e-09 -1.65492e-10)
(5.00036e-05 3.79038e-09 1.65492e-10)
(5.00036e-05 1.89714e-09 8.28307e-11)
(5.00036e-05 1.89714e-09 -8.28308e-11)
(5.00036e-05 5.70038e-09 -2.48884e-10)
(5.00036e-05 5.70038e-09 2.48884e-10)
(5.00036e-05 7.60664e-09 -3.32113e-10)
(5.00036e-05 7.60664e-09 3.32114e-10)
(5.00037e-05 9.52665e-09 -4.15942e-10)
(5.00037e-05 9.52665e-09 4.15943e-10)
(5.00037e-05 1.14339e-08 -4.99215e-10)
(5.00037e-05 1.14339e-08 4.99216e-10)
(5.00037e-05 1.33376e-08 -5.82334e-10)
(5.00037e-05 1.33376e-08 5.82335e-10)
(5.00036e-05 1.52019e-08 -6.63729e-10)
(5.00036e-05 1.52019e-08 6.6373e-10)
(5.00036e-05 1.70255e-08 -7.43348e-10)
(5.00036e-05 1.70255e-08 7.4335e-10)
(5.00034e-05 1.8746e-08 -8.18468e-10)
(5.00034e-05 1.8746e-08 8.1847e-10)
(5.00031e-05 2.03348e-08 -8.87838e-10)
(5.00031e-05 2.03348e-08 8.8784e-10)
(5.00025e-05 2.16759e-08 -9.46388e-10)
(5.00025e-05 2.16759e-08 9.4639e-10)
(5.00014e-05 2.26366e-08 -9.88335e-10)
(5.00014e-05 2.26366e-08 9.88337e-10)
(4.99995e-05 2.30495e-08 -1.00636e-09)
(4.99995e-05 2.30495e-08 1.00636e-09)
(4.99959e-05 2.26349e-08 -9.88261e-10)
(4.99959e-05 2.26349e-08 9.88264e-10)
(4.99891e-05 2.16525e-08 -9.45367e-10)
(4.99891e-05 2.16525e-08 9.45369e-10)
(5.00036e-05 1.17816e-17 -3.02024e-16)
(5.00046e-05 3.12896e-09 -1.36613e-10)
(5.00046e-05 3.12896e-09 1.36613e-10)
(5.00046e-05 1.56721e-09 6.84257e-11)
(5.00046e-05 1.56721e-09 -6.84258e-11)
(5.00046e-05 4.68544e-09 -2.04571e-10)
(5.00046e-05 4.68544e-09 2.04571e-10)
(5.00046e-05 6.22194e-09 -2.71656e-10)
(5.00046e-05 6.22194e-09 2.71656e-10)
(5.00046e-05 7.73941e-09 -3.3791e-10)
(5.00046e-05 7.73941e-09 3.3791e-10)
(5.00045e-05 9.21461e-09 -4.02319e-10)
(5.00045e-05 9.21461e-09 4.02319e-10)
(5.00044e-05 1.0643e-08 -4.64681e-10)
(5.00044e-05 1.0643e-08 4.64682e-10)
(5.00043e-05 1.19874e-08 -5.23382e-10)
(5.00043e-05 1.19874e-08 5.23383e-10)
(5.00041e-05 1.32307e-08 -5.77666e-10)
(5.00041e-05 1.32307e-08 5.77667e-10)
(5.00037e-05 1.43129e-08 -6.24913e-10)
(5.00037e-05 1.43129e-08 6.24914e-10)
(5.00031e-05 1.51921e-08 -6.63303e-10)
(5.00031e-05 1.51921e-08 6.63305e-10)
(5.00021e-05 1.57767e-08 -6.88826e-10)
(5.00021e-05 1.57767e-08 6.88827e-10)
(5.00006e-05 1.60015e-08 -6.98641e-10)
(5.00006e-05 1.60015e-08 6.98643e-10)
(4.99982e-05 1.57745e-08 -6.88728e-10)
(4.99982e-05 1.57745e-08 6.88729e-10)
(4.99945e-05 1.5129e-08 -6.60545e-10)
(4.99945e-05 1.5129e-08 6.60547e-10)
(4.99892e-05 1.43618e-08 -6.27048e-10)
(4.99892e-05 1.43618e-08 6.27049e-10)
(5.00046e-05 1.17818e-17 -3.0203e-16)
(5.0005e-05 2.46987e-09 -1.07837e-10)
(5.0005e-05 2.46987e-09 1.07837e-10)
(5.00051e-05 1.23911e-09 5.41003e-11)
(5.00051e-05 1.23911e-09 -5.41005e-11)
(5.0005e-05 3.68322e-09 -1.60813e-10)
(5.0005e-05 3.68322e-09 1.60813e-10)
(5.0005e-05 4.86464e-09 -2.12395e-10)
(5.0005e-05 4.86464e-09 2.12395e-10)
(5.00049e-05 6.00641e-09 -2.62246e-10)
(5.00049e-05 6.00641e-09 2.62246e-10)
(5.00048e-05 7.08563e-09 -3.09365e-10)
(5.00048e-05 7.08563e-09 3.09366e-10)
(5.00046e-05 8.09094e-09 -3.53258e-10)
(5.00046e-05 8.09094e-09 3.53259e-10)
(5.00043e-05 8.98715e-09 -3.92388e-10)
(5.00043e-05 8.98715e-09 3.92388e-10)
(5.00039e-05 9.75435e-09 -4.25884e-10)
(5.00039e-05 9.75435e-09 4.25885e-10)
(5.00033e-05 1.03419e-08 -4.51537e-10)
(5.00033e-05 1.03419e-08 4.51538e-10)
(5.00025e-05 1.07218e-08 -4.68124e-10)
(5.00025e-05 1.07218e-08 4.68125e-10)
(5.00012e-05 1.08334e-08 -4.72996e-10)
(5.00012e-05 1.08334e-08 4.72997e-10)
(4.99995e-05 1.06748e-08 -4.6607e-10)
(4.99995e-05 1.06748e-08 4.66071e-10)
(4.9997e-05 1.02209e-08 -4.46256e-10)
(4.9997e-05 1.02209e-08 4.46257e-10)
(4.99937e-05 9.63762e-09 -4.20787e-10)
(4.99937e-05 9.63762e-09 4.20788e-10)
(4.99895e-05 9.14994e-09 -3.99495e-10)
(4.99895e-05 9.14994e-09 3.99496e-10)
(5.00051e-05 1.1782e-17 -3.02033e-16)
(5.0005e-05 1.84121e-09 -8.03892e-11)
(5.0005e-05 1.84121e-09 8.03891e-11)
(5.00051e-05 9.25788e-10 4.04206e-11)
(5.00051e-05 9.25788e-10 -4.04208e-11)
(5.0005e-05 2.73277e-09 -1.19315e-10)
(5.0005e-05 2.73277e-09 1.19315e-10)
(5.00049e-05 3.58526e-09 -1.56536e-10)
(5.00049e-05 3.58526e-09 1.56536e-10)
(5.00047e-05 4.38727e-09 -1.91552e-10)
(5.00047e-05 4.38727e-09 1.91552e-10)
(5.00045e-05 5.11667e-09 -2.23399e-10)
(5.00045e-05 5.11667e-09 2.23399e-10)
(5.00042e-05 5.76067e-09 -2.51516e-10)
(5.00042e-05 5.76067e-09 2.51517e-10)
(5.00038e-05 6.28877e-09 -2.74574e-10)
(5.00038e-05 6.28877e-09 2.74574e-10)
(5.00032e-05 6.68546e-09 -2.91893e-10)
(5.00032e-05 6.68546e-09 2.91894e-10)
(5.00025e-05 6.91359e-09 -3.01854e-10)
(5.00025e-05 6.91359e-09 3.01854e-10)
(5.00014e-05 6.96352e-09 -3.04034e-10)
(5.00014e-05 6.96352e-09 3.04034e-10)
(5e-05 6.80374e-09 -2.97058e-10)
(5e-05 6.80374e-09 2.97058e-10)
(4.99982e-05 6.47002e-09 -2.82487e-10)
(4.99982e-05 6.47002e-09 2.82487e-10)
(4.99958e-05 5.9751e-09 -2.60878e-10)
(4.99958e-05 5.9751e-09 2.60879e-10)
(4.99929e-05 5.49244e-09 -2.39805e-10)
(4.99929e-05 5.49244e-09 2.39805e-10)
(4.99896e-05 5.15578e-09 -2.25106e-10)
(4.99896e-05 5.15578e-09 2.25106e-10)
(5.00051e-05 1.1782e-17 -3.02033e-16)
(5.00046e-05 1.26619e-09 -5.52832e-11)
(5.00046e-05 1.26619e-09 5.5283e-11)
(5.00046e-05 6.38685e-10 2.78854e-11)
(5.00046e-05 6.38685e-10 -2.78856e-11)
(5.00044e-05 1.86753e-09 -8.15381e-11)
(5.00044e-05 1.86753e-09 8.1538e-11)
(5.00043e-05 2.42744e-09 -1.05984e-10)
(5.00043e-05 2.42744e-09 1.05984e-10)
(5.00041e-05 2.93389e-09 -1.28096e-10)
(5.00041e-05 2.93389e-09 1.28096e-10)
(5.00038e-05 3.36667e-09 -1.46992e-10)
(5.00038e-05 3.36667e-09 1.46992e-10)
(5.00034e-05 3.7146e-09 -1.62183e-10)
(5.00034e-05 3.7146e-09 1.62183e-10)
(5.00029e-05 3.95338e-09 -1.72608e-10)
(5.00029e-05 3.95338e-09 1.72609e-10)
(5.00022e-05 4.07417e-09 -1.77882e-10)
(5.00022e-05 4.07417e-09 1.77882e-10)
(5.00013e-05 4.05301e-09 -1.76958e-10)
(5.00013e-05 4.05301e-09 1.76958e-10)
(5.00002e-05 3.895e-09 -1.70059e-10)
(5.00002e-05 3.895e-09 1.70059e-10)
(4.99987e-05 3.58953e-09 -1.56722e-10)
(4.99987e-05 3.58953e-09 1.56722e-10)
(4.99969e-05 3.18848e-09 -1.39212e-10)
(4.99969e-05 3.18848e-09 1.39212e-10)
(4.99947e-05 2.71882e-09 -1.18706e-10)
(4.99947e-05 2.71882e-09 1.18706e-10)
(4.99922e-05 2.32908e-09 -1.0169e-10)
(4.99922e-05 2.32908e-09 1.0169e-10)
(4.99896e-05 2.09445e-09 -9.14459e-11)
(4.99896e-05 2.09445e-09 9.14458e-11)
(5.00046e-05 1.17819e-17 -3.02031e-16)
(5.00037e-05 7.57738e-10 -3.30836e-11)
(5.00037e-05 7.57738e-10 3.30833e-11)
(5.00038e-05 3.84337e-10 1.67803e-11)
(5.00038e-05 3.84337e-10 -1.67805e-11)
(5.00036e-05 1.10562e-09 -4.82726e-11)
(5.00036e-05 1.10562e-09 4.82724e-11)
(5.00034e-05 1.41361e-09 -6.17197e-11)
(5.00034e-05 1.41361e-09 6.17195e-11)
(5.00031e-05 1.67092e-09 -7.29539e-11)
(5.00031e-05 1.67092e-09 7.29538e-11)
(5.00027e-05 1.86014e-09 -8.12156e-11)
(5.00027e-05 1.86014e-09 8.12155e-11)
(5.00022e-05 1.97321e-09 -8.61522e-11)
(5.00022e-05 1.97321e-09 8.61521e-11)
(5.00016e-05 1.99218e-09 -8.69805e-11)
(5.00016e-05 1.99218e-09 8.69804e-11)
(5.00009e-05 1.91464e-09 -8.3595e-11)
(5.00009e-05 1.91464e-09 8.35949e-11)
(4.99999e-05 1.72748e-09 -7.54232e-11)
(4.99999e-05 1.72748e-09 7.54231e-11)
(4.99987e-05 1.445e-09 -6.30901e-11)
(4.99987e-05 1.445e-09 6.30899e-11)
(4.99973e-05 1.06932e-09 -4.66877e-11)
(4.99973e-05 1.06932e-09 4.66875e-11)
(4.99956e-05 6.5418e-10 -2.85621e-11)
(4.99956e-05 6.5418e-10 2.85619e-11)
(4.99937e-05 2.27886e-10 -9.94975e-12)
(4.99937e-05 2.27886e-10 9.94945e-12)
(4.99916e-05 -9.58067e-11 4.18299e-12)
(4.99916e-05 -9.58067e-11 -4.18332e-12)
(4.99895e-05 -2.80406e-10 1.22428e-11)
(4.99895e-05 -2.80406e-10 -1.22431e-11)
(5.00038e-05 1.17817e-17 -3.02026e-16)
(5.00025e-05 3.21282e-10 -1.40275e-11)
(5.00025e-05 3.21282e-10 1.40272e-11)
(5.00026e-05 1.65599e-10 7.22993e-12)
(5.00026e-05 1.65599e-10 -7.23023e-12)
(5.00023e-05 4.5411e-10 -1.98269e-11)
(5.00023e-05 4.5411e-10 1.98266e-11)
(5.00021e-05 5.51314e-10 -2.40709e-11)
(5.00021e-05 5.51314e-10 2.40706e-11)
(5.00018e-05 6.04299e-10 -2.63843e-11)
(5.00018e-05 6.04299e-10 2.6384e-11)
(5.00014e-05 5.98896e-10 -2.61484e-11)
(5.00014e-05 5.98896e-10 2.61481e-11)
(5.00008e-05 5.30452e-10 -2.316e-11)
(5.00008e-05 5.30452e-10 2.31598e-11)
(5.00002e-05 3.86705e-10 -1.68839e-11)
(5.00002e-05 3.86705e-10 1.68836e-11)
(4.99994e-05 1.70231e-10 -7.43248e-12)
(4.99994e-05 1.70231e-10 7.43218e-12)
(4.99984e-05 -1.24269e-10 5.42567e-12)
(4.99984e-05 -1.24269e-10 -5.426e-12)
(4.99972e-05 -4.78093e-10 2.0874e-11)
(4.99972e-05 -4.78093e-10 -2.08743e-11)
(4.99959e-05 -8.82734e-10 3.8541e-11)
(4.99959e-05 -8.82734e-10 -3.85414e-11)
(4.99943e-05 -1.28959e-09 5.63048e-11)
(4.99943e-05 -1.28959e-09 -5.63053e-11)
(4.99926e-05 -1.67452e-09 7.31113e-11)
(4.99926e-05 -1.67452e-09 -7.31118e-11)
(4.99909e-05 -1.95408e-09 8.53168e-11)
(4.99909e-05 -1.95408e-09 -8.53173e-11)
(4.99892e-05 -2.11448e-09 9.23201e-11)
(4.99892e-05 -2.11448e-09 -9.23206e-11)
(5.00026e-05 1.17814e-17 -3.02019e-16)
(5.00011e-05 -4.34217e-11 1.89582e-12)
(5.00011e-05 -4.34217e-11 -1.89614e-12)
(5.00012e-05 -1.75036e-11 -7.64527e-13)
(5.00012e-05 -1.75036e-11 7.64207e-13)
(5.00009e-05 -8.83467e-11 3.85729e-12)
(5.00009e-05 -8.83467e-11 -3.85761e-12)
(5.00006e-05 -1.63022e-10 7.11766e-12)
(5.00006e-05 -1.63022e-10 -7.118e-12)
(5.00003e-05 -2.73476e-10 1.19402e-11)
(5.00003e-05 -2.73476e-10 -1.19405e-11)
(4.99998e-05 -4.30673e-10 1.88036e-11)
(4.99998e-05 -4.30673e-10 -1.88039e-11)
(4.99992e-05 -6.36133e-10 2.77741e-11)
(4.99992e-05 -6.36133e-10 -2.77745e-11)
(4.99986e-05 -8.97526e-10 3.91868e-11)
(4.99986e-05 -8.97526e-10 -3.91872e-11)
(4.99977e-05 -1.20893e-09 5.27832e-11)
(4.99977e-05 -1.20893e-09 -5.27837e-11)
(4.99968e-05 -1.57062e-09 6.85747e-11)
(4.99968e-05 -1.57062e-09 -6.85752e-11)
(4.99957e-05 -1.96292e-09 8.57031e-11)
(4.99957e-05 -1.96292e-09 -8.57036e-11)
(4.99944e-05 -2.37509e-09 1.03699e-10)
(4.99944e-05 -2.37509e-09 -1.03699e-10)
(4.9993e-05 -2.76655e-09 1.2079e-10)
(4.9993e-05 -2.76655e-09 -1.20791e-10)
(4.99916e-05 -3.119e-09 1.36178e-10)
(4.99916e-05 -3.119e-09 -1.36179e-10)
(4.99901e-05 -3.37336e-09 1.47284e-10)
(4.99901e-05 -3.37336e-09 -1.47285e-10)
(4.99888e-05 -3.52927e-09 1.54091e-10)
(4.99888e-05 -3.52927e-09 -1.54092e-10)
(5.00012e-05 1.17811e-17 -3.0201e-16)
(4.99994e-05 -3.40672e-10 1.4874e-11)
(4.99994e-05 -3.40672e-10 -1.48744e-11)
(4.99995e-05 -1.66995e-10 -7.29148e-12)
(4.99995e-05 -1.66995e-10 7.29114e-12)
(4.99992e-05 -5.2898e-10 2.30957e-11)
(4.99992e-05 -5.2898e-10 -2.30961e-11)
(4.9999e-05 -7.4051e-10 3.23313e-11)
(4.9999e-05 -7.4051e-10 -3.23317e-11)
(4.99986e-05 -9.78732e-10 4.27323e-11)
(4.99986e-05 -9.78732e-10 -4.27327e-11)
(4.99981e-05 -1.25172e-09 5.46514e-11)
(4.99981e-05 -1.25172e-09 -5.46518e-11)
(4.99975e-05 -1.55843e-09 6.80427e-11)
(4.99975e-05 -1.55843e-09 -6.80431e-11)
(4.99968e-05 -1.90311e-09 8.30915e-11)
(4.99968e-05 -1.90311e-09 -8.3092e-11)
(4.9996e-05 -2.27795e-09 9.94573e-11)
(4.9996e-05 -2.27795e-09 -9.94579e-11)
(4.99951e-05 -2.68035e-09 1.17026e-10)
(4.99951e-05 -2.68035e-09 -1.17027e-10)
(4.99941e-05 -3.09179e-09 1.34991e-10)
(4.99941e-05 -3.09179e-09 -1.34991e-10)
(4.99929e-05 -3.50167e-09 1.52886e-10)
(4.99929e-05 -3.50167e-09 -1.52887e-10)
(4.99917e-05 -3.87785e-09 1.6931e-10)
(4.99917e-05 -3.87785e-09 -1.69311e-10)
(4.99905e-05 -4.20764e-09 1.8371e-10)
(4.99905e-05 -4.20764e-09 -1.8371e-10)
(4.99893e-05 -4.45037e-09 1.94307e-10)
(4.99893e-05 -4.45037e-09 -1.94308e-10)
(4.99883e-05 -4.61303e-09 2.01409e-10)
(4.99883e-05 -4.61303e-09 -2.0141e-10)
(4.99996e-05 1.17807e-17 -3.02e-16)
(4.99976e-05 -5.77236e-10 2.52026e-11)
(4.99976e-05 -5.77236e-10 -2.5203e-11)
(4.99978e-05 -2.86162e-10 -1.24944e-11)
(4.99978e-05 -2.86162e-10 1.24941e-11)
(4.99974e-05 -8.7852e-10 3.8357e-11)
(4.99974e-05 -8.7852e-10 -3.83574e-11)
(4.99971e-05 -1.19654e-09 5.2242e-11)
(4.99971e-05 -1.19654e-09 -5.22425e-11)
(4.99968e-05 -1.53242e-09 6.69071e-11)
(4.99968e-05 -1.53242e-09 -6.69076e-11)
(4.99963e-05 -1.89183e-09 8.2599e-11)
(4.99963e-05 -1.89183e-09 -8.25996e-11)
(4.99957e-05 -2.27176e-09 9.91871e-11)
(4.99957e-05 -2.27176e-09 -9.91877e-11)
(4.99951e-05 -2.67407e-09 1.16753e-10)
(4.99951e-05 -2.67407e-09 -1.16753e-10)
(4.99943e-05 -3.0902e-09 1.34921e-10)
(4.99943e-05 -3.0902e-09 -1.34922e-10)
(4.99934e-05 -3.51621e-09 1.53521e-10)
(4.99934e-05 -3.51621e-09 -1.53522e-10)
(4.99925e-05 -3.93584e-09 1.71842e-10)
(4.99925e-05 -3.93584e-09 -1.71843e-10)
(4.99915e-05 -4.33979e-09 1.89479e-10)
(4.99915e-05 -4.33979e-09 -1.8948e-10)
(4.99904e-05 -4.70373e-09 2.05369e-10)
(4.99904e-05 -4.70373e-09 -2.0537e-10)
(4.99894e-05 -5.01968e-09 2.19164e-10)
(4.99894e-05 -5.01968e-09 -2.19165e-10)
(4.99884e-05 -5.26066e-09 2.29685e-10)
(4.99884e-05 -5.26066e-09 -2.29686e-10)
(4.99876e-05 -5.43741e-09 2.37402e-10)
(4.99876e-05 -5.43741e-09 -2.37403e-10)
(4.99978e-05 1.17803e-17 -3.01989e-16)
(4.99957e-05 -7.6119e-10 3.32343e-11)
(4.99957e-05 -7.6119e-10 -3.32347e-11)
(4.99959e-05 -3.78977e-10 -1.65468e-11)
(4.99959e-05 -3.78977e-10 1.65465e-11)
(4.99955e-05 -1.14947e-09 5.01869e-11)
(4.99955e-05 -1.14947e-09 -5.01874e-11)
(4.99953e-05 -1.54849e-09 6.76085e-11)
(4.99953e-05 -1.54849e-09 -6.7609e-11)
(4.99949e-05 -1.95737e-09 8.54604e-11)
(4.99949e-05 -1.95737e-09 -8.5461e-11)
(4.99944e-05 -2.37983e-09 1.03905e-10)
(4.99944e-05 -2.37983e-09 -1.03906e-10)
(4.99939e-05 -2.8115e-09 1.22753e-10)
(4.99939e-05 -2.8115e-09 -1.22753e-10)
(4.99933e-05 -3.25271e-09 1.42016e-10)
(4.99933e-05 -3.25271e-09 -1.42017e-10)
(4.99925e-05 -3.69488e-09 1.61322e-10)
(4.99925e-05 -3.69488e-09 -1.61323e-10)
(4.99917e-05 -4.13374e-09 1.80483e-10)
(4.99917e-05 -4.13374e-09 -1.80484e-10)
(4.99909e-05 -4.5557e-09 1.98906e-10)
(4.99909e-05 -4.5557e-09 -1.98907e-10)
(4.999e-05 -4.95324e-09 2.16263e-10)
(4.999e-05 -4.95324e-09 -2.16264e-10)
(4.99891e-05 -5.30874e-09 2.31784e-10)
(4.99891e-05 -5.30874e-09 -2.31785e-10)
(4.99882e-05 -5.61781e-09 2.45279e-10)
(4.99882e-05 -5.61781e-09 -2.4528e-10)
(4.99874e-05 -5.8636e-09 2.5601e-10)
(4.99874e-05 -5.8636e-09 -2.56011e-10)
(4.99868e-05 -6.05839e-09 2.64515e-10)
(4.99868e-05 -6.05839e-09 -2.64516e-10)
(4.99959e-05 1.17798e-17 -3.01978e-16)
(4.99938e-05 -9.0101e-10 3.93389e-11)
(4.99938e-05 -9.0101e-10 -3.93394e-11)
(4.99939e-05 -4.49637e-10 -1.96319e-11)
(4.99939e-05 -4.49637e-10 1.96316e-11)
(4.99936e-05 -1.35476e-09 5.91502e-11)
(4.99936e-05 -1.35476e-09 -5.91507e-11)
(4.99933e-05 -1.814e-09 7.92008e-11)
(4.99933e-05 -1.814e-09 -7.92014e-11)
(4.9993e-05 -2.27616e-09 9.93793e-11)
(4.9993e-05 -2.27616e-09 -9.93799e-11)
(4.99925e-05 -2.74353e-09 1.19785e-10)
(4.99925e-05 -2.74353e-09 -1.19786e-10)
(4.9992e-05 -3.21081e-09 1.40187e-10)
(4.9992e-05 -3.21081e-09 -1.40188e-10)
(4.99914e-05 -3.67746e-09 1.60561e-10)
(4.99914e-05 -3.67746e-09 -1.60562e-10)
(4.99908e-05 -4.13532e-09 1.80552e-10)
(4.99908e-05 -4.13532e-09 -1.80553e-10)
(4.99901e-05 -4.58041e-09 1.99985e-10)
(4.99901e-05 -4.58041e-09 -1.99986e-10)
(4.99893e-05 -5.00182e-09 2.18384e-10)
(4.99893e-05 -5.00182e-09 -2.18385e-10)
(4.99885e-05 -5.39387e-09 2.35501e-10)
(4.99885e-05 -5.39387e-09 -2.35502e-10)
(4.99877e-05 -5.74445e-09 2.50808e-10)
(4.99877e-05 -5.74445e-09 -2.50809e-10)
(4.9987e-05 -6.05182e-09 2.64228e-10)
(4.9987e-05 -6.05182e-09 -2.64229e-10)
(4.99864e-05 -6.3066e-09 2.75352e-10)
(4.99864e-05 -6.3066e-09 -2.75353e-10)
(4.99859e-05 -6.52132e-09 2.84727e-10)
(4.99859e-05 -6.52132e-09 -2.84728e-10)
(4.99939e-05 1.17793e-17 -3.01966e-16)
(4.99918e-05 -1.00497e-09 4.38779e-11)
(4.99918e-05 -1.00497e-09 -4.38783e-11)
(4.99919e-05 -5.02263e-10 -2.19296e-11)
(4.99919e-05 -5.02263e-10 2.19293e-11)
(4.99916e-05 -1.5069e-09 6.57928e-11)
(4.99916e-05 -1.5069e-09 -6.57933e-11)
(4.99913e-05 -2.00988e-09 8.77533e-11)
(4.99913e-05 -2.00988e-09 -8.77539e-11)
(4.9991e-05 -2.51001e-09 1.0959e-10)
(4.9991e-05 -2.51001e-09 -1.0959e-10)
(4.99906e-05 -3.00853e-09 1.31355e-10)
(4.99906e-05 -3.00853e-09 -1.31356e-10)
(4.99902e-05 -3.49958e-09 1.52795e-10)
(4.99902e-05 -3.49958e-09 -1.52795e-10)
(4.99896e-05 -3.98218e-09 1.73865e-10)
(4.99896e-05 -3.98218e-09 -1.73866e-10)
(4.9989e-05 -4.44887e-09 1.94242e-10)
(4.9989e-05 -4.44887e-09 -1.94243e-10)
(4.99884e-05 -4.89625e-09 2.13775e-10)
(4.99884e-05 -4.89625e-09 -2.13776e-10)
(4.99877e-05 -5.3159e-09 2.32097e-10)
(4.99877e-05 -5.3159e-09 -2.32098e-10)
(4.99871e-05 -5.7038e-09 2.49033e-10)
(4.99871e-05 -5.7038e-09 -2.49034e-10)
(4.99864e-05 -6.05229e-09 2.64249e-10)
(4.99864e-05 -6.05229e-09 -2.6425e-10)
(4.99858e-05 -6.36152e-09 2.7775e-10)
(4.99858e-05 -6.36152e-09 -2.77751e-10)
(4.99853e-05 -6.6276e-09 2.89367e-10)
(4.99853e-05 -6.6276e-09 -2.89368e-10)
(4.99849e-05 -6.86256e-09 2.99626e-10)
(4.99849e-05 -6.86256e-09 -2.99627e-10)
(4.99919e-05 1.17789e-17 -3.01954e-16)
(4.99898e-05 -1.08076e-09 4.71868e-11)
(4.99898e-05 -1.08076e-09 -4.71872e-11)
(4.99899e-05 -5.40695e-10 -2.36076e-11)
(4.99899e-05 -5.40695e-10 2.36072e-11)
(4.99896e-05 -1.61742e-09 7.0618e-11)
(4.99896e-05 -1.61742e-09 -7.06185e-11)
(4.99894e-05 -2.1515e-09 9.39364e-11)
(4.99894e-05 -2.1515e-09 -9.39369e-11)
(4.99891e-05 -2.67804e-09 1.16926e-10)
(4.99891e-05 -2.67804e-09 -1.16926e-10)
(4.99887e-05 -3.19756e-09 1.39608e-10)
(4.99887e-05 -3.19756e-09 -1.39609e-10)
(4.99883e-05 -3.7039e-09 1.61716e-10)
(4.99883e-05 -3.7039e-09 -1.61716e-10)
(4.99878e-05 -4.19595e-09 1.83199e-10)
(4.99878e-05 -4.19595e-09 -1.832e-10)
(4.99873e-05 -4.66703e-09 2.03767e-10)
(4.99873e-05 -4.66703e-09 -2.03768e-10)
(4.99867e-05 -5.11447e-09 2.23302e-10)
(4.99867e-05 -5.11447e-09 -2.23303e-10)
(4.99862e-05 -5.532e-09 2.41532e-10)
(4.99862e-05 -5.532e-09 -2.41533e-10)
(4.99856e-05 -5.91706e-09 2.58344e-10)
(4.99856e-05 -5.91706e-09 -2.58345e-10)
(4.9985e-05 -6.26554e-09 2.73559e-10)
(4.9985e-05 -6.26554e-09 -2.7356e-10)
(4.99845e-05 -6.57882e-09 2.87237e-10)
(4.99845e-05 -6.57882e-09 -2.87238e-10)
(4.99841e-05 -6.85711e-09 2.99388e-10)
(4.99841e-05 -6.85711e-09 -2.99389e-10)
(4.99838e-05 -7.11156e-09 3.10498e-10)
(4.99838e-05 -7.11156e-09 -3.10499e-10)
(4.99899e-05 1.17784e-17 -3.01942e-16)
(4.99877e-05 -1.13527e-09 4.95669e-11)
(4.99877e-05 -1.13527e-09 -4.95674e-11)
(4.99878e-05 -5.68392e-10 -2.48169e-11)
(4.99878e-05 -5.68392e-10 2.48165e-11)
(4.99876e-05 -1.6966e-09 7.40753e-11)
(4.99876e-05 -1.6966e-09 -7.40758e-11)
(4.99874e-05 -2.25244e-09 9.83437e-11)
(4.99874e-05 -2.25244e-09 -9.83442e-11)
(4.99871e-05 -2.797e-09 1.2212e-10)
(4.99871e-05 -2.797e-09 -1.2212e-10)
(4.99868e-05 -3.33033e-09 1.45405e-10)
(4.99868e-05 -3.33033e-09 -1.45406e-10)
(4.99864e-05 -3.84612e-09 1.67925e-10)
(4.99864e-05 -3.84612e-09 -1.67926e-10)
(4.9986e-05 -4.34333e-09 1.89634e-10)
(4.9986e-05 -4.34333e-09 -1.89635e-10)
(4.99856e-05 -4.81606e-09 2.10274e-10)
(4.99856e-05 -4.81606e-09 -2.10275e-10)
(4.99851e-05 -5.26238e-09 2.2976e-10)
(4.99851e-05 -5.26238e-09 -2.29761e-10)
(4.99846e-05 -5.67786e-09 2.47901e-10)
(4.99846e-05 -5.67786e-09 -2.47902e-10)
(4.99841e-05 -6.06116e-09 2.64636e-10)
(4.99841e-05 -6.06116e-09 -2.64637e-10)
(4.99836e-05 -6.41091e-09 2.79906e-10)
(4.99836e-05 -6.41091e-09 -2.79907e-10)
(4.99832e-05 -6.72933e-09 2.93809e-10)
(4.99832e-05 -6.72933e-09 -2.9381e-10)
(4.99829e-05 -7.01973e-09 3.06488e-10)
(4.99829e-05 -7.01973e-09 -3.06489e-10)
(4.99826e-05 -7.29217e-09 3.18383e-10)
(4.99826e-05 -7.29217e-09 -3.18384e-10)
(4.99879e-05 1.17779e-17 -3.01929e-16)
(4.99857e-05 -1.17454e-09 5.12816e-11)
(4.99857e-05 -1.17454e-09 -5.12821e-11)
(4.99858e-05 -5.88385e-10 -2.56898e-11)
(4.99858e-05 -5.88385e-10 2.56894e-11)
(4.99856e-05 -1.75341e-09 7.65556e-11)
(4.99856e-05 -1.75341e-09 -7.65561e-11)
(4.99854e-05 -2.32447e-09 1.01489e-10)
(4.99854e-05 -2.32447e-09 -1.01489e-10)
(4.99852e-05 -2.88128e-09 1.25799e-10)
(4.99852e-05 -2.88128e-09 -1.258e-10)
(4.99849e-05 -3.42359e-09 1.49477e-10)
(4.99849e-05 -3.42359e-09 -1.49478e-10)
(4.99846e-05 -3.94505e-09 1.72244e-10)
(4.99846e-05 -3.94505e-09 -1.72245e-10)
(4.99842e-05 -4.4448e-09 1.94064e-10)
(4.99842e-05 -4.4448e-09 -1.94065e-10)
(4.99838e-05 -4.91762e-09 2.14708e-10)
(4.99838e-05 -4.91762e-09 -2.14709e-10)
(4.99834e-05 -5.36232e-09 2.34124e-10)
(4.99834e-05 -5.36232e-09 -2.34125e-10)
(4.9983e-05 -5.77596e-09 2.52184e-10)
(4.9983e-05 -5.77596e-09 -2.52185e-10)
(4.99826e-05 -6.15821e-09 2.68873e-10)
(4.99826e-05 -6.15821e-09 -2.68874e-10)
(4.99822e-05 -6.50988e-09 2.84227e-10)
(4.99822e-05 -6.50988e-09 -2.84228e-10)
(4.99819e-05 -6.83368e-09 2.98365e-10)
(4.99819e-05 -6.83368e-09 -2.98366e-10)
(4.99816e-05 -7.1353e-09 3.11534e-10)
(4.99816e-05 -7.1353e-09 -3.11535e-10)
(4.99814e-05 -7.42367e-09 3.24124e-10)
(4.99814e-05 -7.42367e-09 -3.24125e-10)
(4.99858e-05 1.17774e-17 -3.01917e-16)
(4.99837e-05 -1.20374e-09 5.25565e-11)
(4.99837e-05 -1.20374e-09 -5.2557e-11)
(4.99838e-05 -6.03273e-10 -2.63398e-11)
(4.99838e-05 -6.03273e-10 2.63394e-11)
(4.99836e-05 -1.79549e-09 7.83928e-11)
(4.99836e-05 -1.79549e-09 -7.83933e-11)
(4.99835e-05 -2.37757e-09 1.03807e-10)
(4.99835e-05 -2.37757e-09 -1.03808e-10)
(4.99833e-05 -2.94301e-09 1.28495e-10)
(4.99833e-05 -2.94301e-09 -1.28495e-10)
(4.9983e-05 -3.49139e-09 1.52437e-10)
(4.9983e-05 -3.49139e-09 -1.52438e-10)
(4.99828e-05 -4.01633e-09 1.75357e-10)
(4.99828e-05 -4.01633e-09 -1.75358e-10)
(4.99825e-05 -4.51723e-09 1.97226e-10)
(4.99825e-05 -4.51723e-09 -1.97227e-10)
(4.99822e-05 -4.98942e-09 2.17843e-10)
(4.99822e-05 -4.98942e-09 -2.17844e-10)
(4.99818e-05 -5.43242e-09 2.37185e-10)
(4.99818e-05 -5.43242e-09 -2.37185e-10)
(4.99815e-05 -5.84446e-09 2.55174e-10)
(4.99815e-05 -5.84446e-09 -2.55175e-10)
(4.99811e-05 -6.22605e-09 2.71835e-10)
(4.99811e-05 -6.22605e-09 -2.71836e-10)
(4.99808e-05 -6.57968e-09 2.87275e-10)
(4.99808e-05 -6.57968e-09 -2.87276e-10)
(4.99805e-05 -6.90842e-09 3.01628e-10)
(4.99805e-05 -6.90842e-09 -3.01629e-10)
(4.99803e-05 -7.21979e-09 3.15223e-10)
(4.99803e-05 -7.21979e-09 -3.15224e-10)
(4.99802e-05 -7.52164e-09 3.28402e-10)
(4.99802e-05 -7.52164e-09 -3.28403e-10)
(4.99838e-05 1.1777e-17 -3.01905e-16)
(4.99817e-05 -1.22722e-09 5.35817e-11)
(4.99817e-05 -1.22722e-09 -5.35822e-11)
(4.99818e-05 -6.1525e-10 -2.68627e-11)
(4.99818e-05 -6.1525e-10 2.68624e-11)
(4.99816e-05 -1.82926e-09 7.98671e-11)
(4.99816e-05 -1.82926e-09 -7.98677e-11)
(4.99815e-05 -2.4201e-09 1.05664e-10)
(4.99815e-05 -2.4201e-09 -1.05664e-10)
(4.99814e-05 -2.99231e-09 1.30647e-10)
(4.99814e-05 -2.99231e-09 -1.30648e-10)
(4.99812e-05 -3.54535e-09 1.54793e-10)
(4.99812e-05 -3.54535e-09 -1.54794e-10)
(4.9981e-05 -4.07286e-09 1.77825e-10)
(4.9981e-05 -4.07286e-09 -1.77825e-10)
(4.99807e-05 -4.57444e-09 1.99724e-10)
(4.99807e-05 -4.57444e-09 -1.99725e-10)
(4.99805e-05 -5.04589e-09 2.20308e-10)
(4.99805e-05 -5.04589e-09 -2.20309e-10)
(4.99802e-05 -5.48736e-09 2.39583e-10)
(4.99802e-05 -5.48736e-09 -2.39584e-10)
(4.99799e-05 -5.89797e-09 2.57511e-10)
(4.99799e-05 -5.89797e-09 -2.57512e-10)
(4.99796e-05 -6.27898e-09 2.74146e-10)
(4.99796e-05 -6.27898e-09 -2.74147e-10)
(4.99794e-05 -6.63417e-09 2.89654e-10)
(4.99794e-05 -6.63417e-09 -2.89655e-10)
(4.99792e-05 -6.96684e-09 3.04179e-10)
(4.99792e-05 -6.96684e-09 -3.0418e-10)
(4.9979e-05 -7.28605e-09 3.18116e-10)
(4.9979e-05 -7.28605e-09 -3.18117e-10)
(4.99788e-05 -7.59865e-09 3.31764e-10)
(4.99788e-05 -7.59865e-09 -3.31765e-10)
(4.99818e-05 1.17765e-17 -3.01893e-16)
(4.99797e-05 -1.24859e-09 5.45148e-11)
(4.99797e-05 -1.24859e-09 -5.45152e-11)
(4.99798e-05 -6.26137e-10 -2.73381e-11)
(4.99798e-05 -6.26137e-10 2.73377e-11)
(4.99797e-05 -1.86003e-09 8.12107e-11)
(4.99797e-05 -1.86003e-09 -8.12113e-11)
(4.99796e-05 -2.45895e-09 1.0736e-10)
(4.99796e-05 -2.45895e-09 -1.07361e-10)
(4.99795e-05 -3.03749e-09 1.3262e-10)
(4.99795e-05 -3.03749e-09 -1.3262e-10)
(4.99793e-05 -3.59501e-09 1.56962e-10)
(4.99793e-05 -3.59501e-09 -1.56962e-10)
(4.99792e-05 -4.12512e-09 1.80107e-10)
(4.99792e-05 -4.12512e-09 -1.80107e-10)
(4.9979e-05 -4.62764e-09 2.02047e-10)
(4.9979e-05 -4.62764e-09 -2.02048e-10)
(4.99788e-05 -5.09868e-09 2.22613e-10)
(4.99788e-05 -5.09868e-09 -2.22614e-10)
(4.99786e-05 -5.53896e-09 2.41836e-10)
(4.99786e-05 -5.53896e-09 -2.41837e-10)
(4.99784e-05 -5.94825e-09 2.59706e-10)
(4.99784e-05 -5.94825e-09 -2.59707e-10)
(4.99782e-05 -6.32847e-09 2.76307e-10)
(4.99782e-05 -6.32847e-09 -2.76308e-10)
(4.9978e-05 -6.68442e-09 2.91848e-10)
(4.9978e-05 -6.68442e-09 -2.91849e-10)
(4.99778e-05 -7.0196e-09 3.06482e-10)
(4.99778e-05 -7.0196e-09 -3.06483e-10)
(4.99776e-05 -7.34437e-09 3.20662e-10)
(4.99776e-05 -7.34437e-09 -3.20663e-10)
(4.99775e-05 -7.66475e-09 3.3465e-10)
(4.99775e-05 -7.66475e-09 -3.34651e-10)
(4.99798e-05 1.1776e-17 -3.0188e-16)
(4.99777e-05 -1.2708e-09 5.54844e-11)
(4.99777e-05 -1.2708e-09 -5.54849e-11)
(4.99777e-05 -6.37423e-10 -2.78309e-11)
(4.99777e-05 -6.37423e-10 2.78305e-11)
(4.99777e-05 -1.89215e-09 8.26128e-11)
(4.99777e-05 -1.89215e-09 -8.26134e-11)
(4.99776e-05 -2.49973e-09 1.09141e-10)
(4.99776e-05 -2.49973e-09 -1.09141e-10)
(4.99776e-05 -3.0853e-09 1.34707e-10)
(4.99776e-05 -3.0853e-09 -1.34708e-10)
(4.99775e-05 -3.64809e-09 1.59279e-10)
(4.99775e-05 -3.64809e-09 -1.5928e-10)
(4.99774e-05 -4.18161e-09 1.82573e-10)
(4.99774e-05 -4.18161e-09 -1.82574e-10)
(4.99773e-05 -4.68588e-09 2.0459e-10)
(4.99773e-05 -4.68588e-09 -2.04591e-10)
(4.99771e-05 -5.15715e-09 2.25166e-10)
(4.99771e-05 -5.15715e-09 -2.25167e-10)
(4.9977e-05 -5.59669e-09 2.44357e-10)
(4.9977e-05 -5.59669e-09 -2.44358e-10)
(4.99768e-05 -6.00468e-09 2.6217e-10)
(4.99768e-05 -6.00468e-09 -2.62171e-10)
(4.99767e-05 -6.3837e-09 2.78718e-10)
(4.99767e-05 -6.3837e-09 -2.78719e-10)
(4.99765e-05 -6.73928e-09 2.94243e-10)
(4.99765e-05 -6.73928e-09 -2.94244e-10)
(4.99764e-05 -7.07519e-09 3.08909e-10)
(4.99764e-05 -7.07519e-09 -3.0891e-10)
(4.99762e-05 -7.40295e-09 3.2322e-10)
(4.99762e-05 -7.40295e-09 -3.23221e-10)
(4.99761e-05 -7.72792e-09 3.37408e-10)
(4.99761e-05 -7.72792e-09 -3.37409e-10)
(4.99778e-05 1.17755e-17 -3.01868e-16)
(4.99757e-05 -1.2962e-09 5.65934e-11)
(4.99757e-05 -1.2962e-09 -5.65939e-11)
(4.99757e-05 -6.50298e-10 -2.8393e-11)
(4.99757e-05 -6.50298e-10 2.83926e-11)
(4.99757e-05 -1.92906e-09 8.42246e-11)
(4.99757e-05 -1.92906e-09 -8.42251e-11)
(4.99757e-05 -2.54693e-09 1.11201e-10)
(4.99757e-05 -2.54693e-09 -1.11202e-10)
(4.99757e-05 -3.14113e-09 1.37145e-10)
(4.99757e-05 -3.14113e-09 -1.37145e-10)
(4.99756e-05 -3.71071e-09 1.62013e-10)
(4.99756e-05 -3.71071e-09 -1.62014e-10)
(4.99756e-05 -4.24907e-09 1.85518e-10)
(4.99756e-05 -4.24907e-09 -1.85519e-10)
(4.99755e-05 -4.75632e-09 2.07665e-10)
(4.99755e-05 -4.75632e-09 -2.07666e-10)
(4.99755e-05 -5.22872e-09 2.28291e-10)
(4.99755e-05 -5.22872e-09 -2.28292e-10)
(4.99754e-05 -5.66807e-09 2.47473e-10)
(4.99754e-05 -5.66807e-09 -2.47474e-10)
(4.99753e-05 -6.07471e-09 2.65228e-10)
(4.99753e-05 -6.07471e-09 -2.65229e-10)
(4.99752e-05 -6.45189e-09 2.81695e-10)
(4.99752e-05 -6.45189e-09 -2.81696e-10)
(4.99751e-05 -6.80572e-09 2.97144e-10)
(4.99751e-05 -6.80572e-09 -2.97145e-10)
(4.9975e-05 -7.14027e-09 3.11751e-10)
(4.9975e-05 -7.14027e-09 -3.11752e-10)
(4.99749e-05 -7.46819e-09 3.26068e-10)
(4.99749e-05 -7.46819e-09 -3.26069e-10)
(4.99748e-05 -7.79435e-09 3.40309e-10)
(4.99748e-05 -7.79435e-09 -3.4031e-10)
(4.99757e-05 1.17751e-17 -3.01856e-16)
(4.99737e-05 -1.32662e-09 5.79212e-11)
(4.99737e-05 -1.32662e-09 -5.79217e-11)
(4.99737e-05 -6.65677e-10 -2.90645e-11)
(4.99737e-05 -6.65677e-10 2.90641e-11)
(4.99737e-05 -1.97345e-09 8.61626e-11)
(4.99737e-05 -1.97345e-09 -8.61632e-11)
(4.99737e-05 -2.604e-09 1.13693e-10)