/*--------------------------------*- C++ -*----------------------------------*\
| =========                 |                                                 |
| \\      /  F ield         | OpenFOAM: The Open Source CFD Toolbox           |
|  \\    /   O peration     | Version:  4.1                                   |
|   \\  /    A nd           | Web:      www.OpenFOAM.org                      |
|    \\/     M anipulation  |                                                 |
\*---------------------------------------------------------------------------*/
FoamFile
{
    version     2.0;
    format      ascii;
    class       volScalarField;
    location    "0.0060";
    object      p;
}
// * * * * * * * * * * * * * * * * * * * * * * * * * * * * * * * * * * * * * //

dimensions      [0 2 -2 0 0 0 0];

internalField   nonuniform List<scalar> 
1536
(
0.3485
0.40588
0.46873
0.53702
0.61036
0.68781
0.76777
0.84802
0.92591
0.99867
1.0636
1.1176
0.35016
0.40759
0.47043
0.53862
0.61171
0.68873
0.76809
0.8476
0.92472
0.99669
1.0607
1.1138
0.35122
0.40867
0.4715
0.53961
0.61252
0.68926
0.76822
0.84727
0.92387
0.9953
1.0588
1.1112
0.35178
0.40924
0.47207
0.54013
0.61296
0.68954
0.76832
0.84713
0.92348
0.99463
1.0578
1.1099
0.35181
0.40927
0.47209
0.54015
0.61297
0.68956
0.76832
0.84714
0.92348
0.99463
1.0578
1.1099
0.35132
0.40877
0.47159
0.53968
0.61257
0.68929
0.76824
0.84728
0.92387
0.99529
1.0587
1.1112
0.35032
0.40775
0.47057
0.53874
0.6118
0.68878
0.76811
0.84761
0.92471
0.99668
1.0607
1.1138
0.34874
0.40611
0.46893
0.53718
0.61048
0.68789
0.76781
0.84803
0.9259
0.99865
1.0635
1.1175
0.35012
0.40756
0.47041
0.5386
0.61169
0.68871
0.76807
0.84759
0.92471
0.99669
1.0607
1.1138
0.35162
0.40907
0.47189
0.53995
0.61278
0.68938
0.76818
0.84704
0.92344
0.99468
1.0579
1.1102
0.35265
0.41011
0.47291
0.54088
0.61353
0.68984
0.76826
0.84665
0.92254
0.99323
1.0559
1.1075
0.35319
0.41066
0.47344
0.54136
0.61392
0.69009
0.76831
0.84647
0.92211
0.99252
1.0549
1.1062
0.35322
0.41069
0.47347
0.54139
0.61394
0.6901
0.76832
0.84648
0.92211
0.99252
1.0549
1.1062
0.35275
0.41021
0.47299
0.54095
0.61358
0.68988
0.76828
0.84666
0.92254
0.99322
1.0559
1.1075
0.35179
0.40924
0.47204
0.54007
0.61287
0.68944
0.76821
0.84705
0.92344
0.99467
1.0579
1.1102
0.35037
0.40779
0.47062
0.53877
0.61182
0.6888
0.76812
0.84761
0.9247
0.99667
1.0607
1.1138
0.35116
0.40862
0.47145
0.53957
0.61249
0.68923
0.7682
0.84726
0.92386
0.99529
1.0587
1.1112
0.35262
0.41009
0.47288
0.54086
0.61351
0.68983
0.76825
0.84664
0.92253
0.99322
1.0559
1.1075
0.35362
0.41109
0.47386
0.54175
0.61422
0.69025
0.76829
0.84623
0.92163
0.99178
1.0539
1.1049
0.35415
0.41162
0.47437
0.54221
0.61458
0.69047
0.76832
0.84604
0.92118
0.99107
1.0529
1.1036
0.35418
0.41165
0.4744
0.54223
0.6146
0.69049
0.76833
0.84604
0.92118
0.99106
1.0529
1.1036
0.35373
0.4112
0.47396
0.54182
0.61428
0.69029
0.76831
0.84625
0.92163
0.99178
1.0539
1.1049
0.3528
0.41026
0.47304
0.54099
0.61361
0.6899
0.76829
0.84666
0.92253
0.99321
1.0559
1.1075
0.35141
0.40886
0.47167
0.53975
0.61263
0.68932
0.76825
0.84728
0.92386
0.99528
1.0587
1.1112
0.35169
0.40916
0.47199
0.54007
0.6129
0.6895
0.76828
0.84711
0.92346
0.99461
1.0578
1.1099
0.35313
0.4106
0.47339
0.54132
0.61389
0.69007
0.76829
0.84646
0.92209
0.99251
1.0549
1.1061
0.35412
0.41159
0.47435
0.54219
0.61457
0.69046
0.76831
0.84603
0.92117
0.99106
1.0529
1.1035
0.35463
0.41211
0.47485
0.54263
0.61492
0.69067
0.76832
0.84582
0.92071
0.99034
1.0519
1.1022
0.35467
0.41215
0.47488
0.54266
0.61494
0.69069
0.76833
0.84582
0.92071
0.99033
1.0519
1.1022
0.35423
0.4117
0.47445
0.54227
0.61463
0.69051
0.76834
0.84604
0.92117
0.99106
1.0529
1.1035
0.35331
0.41078
0.47355
0.54146
0.61399
0.69014
0.76834
0.84648
0.9221
0.9925
1.0549
1.1061
0.35195
0.40942
0.47223
0.54027
0.61306
0.68961
0.76835
0.84714
0.92346
0.99461
1.0578
1.1099
0.35169
0.40916
0.472
0.54008
0.61291
0.6895
0.76828
0.8471
0.92345
0.9946
1.0578
1.1099
0.35313
0.41061
0.4734
0.54133
0.61389
0.69007
0.76829
0.84645
0.92208
0.9925
1.0549
1.1061
0.35412
0.4116
0.47436
0.5422
0.61457
0.69047
0.76831
0.84602
0.92116
0.99105
1.0529
1.1035
0.35464
0.41212
0.47486
0.54264
0.61493
0.69067
0.76833
0.84581
0.9207
0.99033
1.0518
1.1022
0.35468
0.41216
0.47489
0.54267
0.61495
0.69069
0.76834
0.84582
0.92071
0.99033
1.0518
1.1022
0.35424
0.41172
0.47446
0.54228
0.61464
0.69052
0.76834
0.84604
0.92117
0.99105
1.0529
1.1035
0.35333
0.4108
0.47357
0.54148
0.61401
0.69015
0.76834
0.84648
0.92209
0.9925
1.0549
1.1061
0.35197
0.40943
0.47225
0.54029
0.61307
0.68962
0.76836
0.84714
0.92346
0.9946
1.0578
1.1099
0.35116
0.40863
0.47147
0.53958
0.6125
0.68923
0.76819
0.84724
0.92383
0.99526
1.0587
1.1111
0.35263
0.41011
0.4729
0.54088
0.61352
0.68984
0.76824
0.84663
0.92251
0.99319
1.0559
1.1075
0.35364
0.41112
0.47389
0.54177
0.61423
0.69026
0.76829
0.84622
0.92161
0.99176
1.0538
1.1048
0.35417
0.41165
0.4744
0.54224
0.6146
0.69049
0.76832
0.84603
0.92116
0.99104
1.0528
1.1035
0.35421
0.41169
0.47444
0.54227
0.61463
0.69051
0.76833
0.84604
0.92116
0.99104
1.0528
1.1035
0.35376
0.41124
0.474
0.54187
0.61431
0.69032
0.76833
0.84624
0.92162
0.99176
1.0539
1.1048
0.35284
0.41031
0.47309
0.54104
0.61365
0.68993
0.7683
0.84666
0.92252
0.9932
1.0559
1.1075
0.35146
0.40891
0.47173
0.53981
0.61267
0.68936
0.76827
0.84728
0.92385
0.99526
1.0587
1.1111
0.35014
0.40759
0.47044
0.53863
0.61171
0.68872
0.76806
0.84757
0.92467
0.99663
1.0607
1.1138
0.35164
0.40911
0.47193
0.53998
0.6128
0.68939
0.76817
0.84702
0.9234
0.99463
1.0579
1.1102
0.35268
0.41015
0.47295
0.54092
0.61356
0.68986
0.76825
0.84663
0.92251
0.99319
1.0558
1.1074
0.35323
0.41071
0.47349
0.54141
0.61396
0.69012
0.76832
0.84646
0.92208
0.99248
1.0548
1.1061
0.35327
0.41075
0.47353
0.54145
0.61399
0.69014
0.76833
0.84647
0.92208
0.99248
1.0548
1.1061
0.35281
0.41028
0.47307
0.54102
0.61364
0.68992
0.7683
0.84666
0.92252
0.99319
1.0559
1.1075
0.35186
0.40932
0.47212
0.54015
0.61294
0.68949
0.76824
0.84705
0.92342
0.99464
1.0579
1.1102
0.35045
0.40788
0.47071
0.53886
0.6119
0.68886
0.76815
0.84762
0.92469
0.99664
1.0607
1.1138
0.34852
0.40592
0.46877
0.53706
0.61039
0.68781
0.76775
0.84798
0.92585
0.9986
1.0635
1.1175
0.35019
0.40764
0.47049
0.53867
0.61175
0.68874
0.76808
0.84757
0.92466
0.99663
1.0607
1.1138
0.35126
0.40873
0.47157
0.53967
0.61256
0.68928
0.76822
0.84725
0.92383
0.99524
1.0587
1.1111
0.35183
0.40931
0.47214
0.5402
0.61301
0.68958
0.76832
0.84712
0.92344
0.99458
1.0577
1.1098
0.35188
0.40936
0.47218
0.54024
0.61304
0.6896
0.76834
0.84713
0.92344
0.99458
1.0577
1.1098
0.3514
0.40886
0.47169
0.53978
0.61265
0.68934
0.76827
0.84728
0.92384
0.99525
1.0587
1.1111
0.35042
0.40786
0.47069
0.53885
0.61189
0.68885
0.76815
0.84761
0.92468
0.99664
1.0607
1.1138
0.34884
0.40623
0.46906
0.53731
0.61059
0.68797
0.76785
0.84804
0.92588
0.99862
1.0635
1.1175
1.134
1.0763
1.0084
0.93291
0.85232
0.76947
0.68723
0.60801
0.53348
0.46453
0.40141
0.34392
1.1289
1.0729
1.0062
0.93172
0.85214
0.77024
0.68879
0.61012
0.53589
0.46703
0.40385
0.34625
1.1258
1.0704
1.0042
0.93022
0.85112
0.7697
0.68868
0.61035
0.53636
0.46765
0.40455
0.34699
1.1244
1.0694
1.0035
0.92982
0.85101
0.76987
0.68908
0.61093
0.53704
0.46837
0.40526
0.34768
1.1244
1.0694
1.0035
0.92981
0.85101
0.76988
0.6891
0.61095
0.53707
0.46841
0.40531
0.34773
1.1258
1.0704
1.0042
0.93021
0.85112
0.76972
0.68871
0.61041
0.53645
0.46776
0.40467
0.34713
1.1289
1.0729
1.0062
0.9317
0.85213
0.77026
0.68884
0.61021
0.53603
0.46721
0.40405
0.34647
1.134
1.0762
1.0084
0.93288
0.85231
0.76949
0.6873
0.60814
0.53367
0.46478
0.40169
0.34423
1.166
1.0981
1.0221
0.9388
0.85042
0.76042
0.67253
0.58967
0.5135
0.44451
0.38242
0.32633
1.1638
1.0969
1.0214
0.93861
0.85081
0.76135
0.67387
0.59125
0.51516
0.44615
0.38394
0.32772
1.1623
1.0958
1.0207
0.93815
0.8506
0.76141
0.67418
0.59173
0.51571
0.44672
0.38449
0.32822
1.1618
1.0954
1.0204
0.93805
0.85066
0.76163
0.67454
0.59221
0.51624
0.44724
0.38497
0.32867
1.1618
1.0954
1.0204
0.93804
0.85066
0.76163
0.67455
0.59223
0.51627
0.44728
0.38503
0.32874
1.1623
1.0958
1.0206
0.93811
0.85059
0.76141
0.6742
0.59178
0.5158
0.44686
0.38466
0.32842
1.1637
1.0968
1.0213
0.93855
0.85078
0.76133
0.67389
0.59134
0.51532
0.44638
0.38422
0.32803
1.1659
1.098
1.022
0.93872
0.85037
0.7604
0.67257
0.58982
0.51373
0.44484
0.3828
0.32676
1.134
1.0762
1.0083
0.93287
0.85231
0.76949
0.68731
0.60815
0.5337
0.46481
0.40173
0.34427
1.1289
1.0728
1.0061
0.93168
0.85212
0.77027
0.68887
0.61026
0.5361
0.4673
0.40416
0.34658
1.1257
1.0703
1.0042
0.93018
0.85112
0.76974
0.68877
0.6105
0.53658
0.46792
0.40485
0.34731
1.1244
1.0693
1.0035
0.92978
0.85101
0.76991
0.68918
0.61109
0.53727
0.46864
0.40556
0.34798
1.1244
1.0693
1.0035
0.92978
0.85102
0.76993
0.6892
0.61112
0.5373
0.46867
0.40558
0.348
1.1257
1.0703
1.0041
0.93018
0.85113
0.76978
0.68883
0.61059
0.53668
0.46802
0.40494
0.34737
1.1289
1.0728
1.0061
0.93168
0.85215
0.77034
0.68897
0.6104
0.53626
0.46746
0.40431
0.34669
1.1339
1.0762
1.0083
0.93287
0.85234
0.76959
0.68745
0.60834
0.53391
0.46503
0.40192
0.34442
1.1659
1.098
1.022
0.93871
0.85035
0.76039
0.67258
0.58983
0.51376
0.44488
0.38286
0.32682
1.1637
1.0968
1.0213
0.9385
0.85072
0.76131
0.6739
0.59139
0.51542
0.44653
0.38439
0.32822
1.1623
1.0957
1.0205
0.93804
0.85053
0.76139
0.67423
0.59189
0.51601
0.44713
0.38495
0.32871
1.1617
1.0954
1.0203
0.93795
0.85061
0.76164
0.67463
0.59241
0.51658
0.44768
0.38545
0.32914
1.1617
1.0953
1.0203
0.93795
0.85063
0.76168
0.67469
0.59248
0.51666
0.44776
0.38551
0.32919
1.1622
1.0957
1.0205
0.93804
0.85058
0.7615
0.67437
0.59207
0.51622
0.44733
0.38513
0.32885
1.1637
1.0968
1.0212
0.9385
0.85079
0.76145
0.67411
0.59166
0.51573
0.44685
0.38467
0.32842
1.1659
1.0979
1.0219
0.93868
0.85042
0.76056
0.67282
0.59015
0.51415
0.44527
0.3832
0.32709
1.1339
1.0762
1.0083
0.93286
0.85234
0.76959
0.68745
0.60833
0.5339
0.46501
0.4019
0.3444
1.1288
1.0728
1.0061
0.93167
0.85215
0.77033
0.68897
0.61038
0.53623
0.46741
0.40424
0.34662
1.1257
1.0703
1.0041
0.93017
0.85112
0.76977
0.68882
0.61056
0.53663
0.46794
0.40484
0.34726
1.1243
1.0693
1.0034
0.92976
0.851
0.76991
0.68917
0.61107
0.53723
0.46857
0.40545
0.34785
1.1243
1.0693
1.0034
0.92975
0.85098
0.76988
0.68913
0.61102
0.53717
0.4685
0.40539
0.34778
1.1257
1.0703
1.0041
0.93014
0.85107
0.76969
0.6887
0.61042
0.53646
0.46776
0.40465
0.34707
1.1288
1.0728
1.0061
0.93162
0.85207
0.7702
0.68879
0.61016
0.53596
0.46712
0.40393
0.34631
1.1339
1.0761
1.0083
0.93281
0.85224
0.76942
0.68721
0.60803
0.53354
0.4646
0.40147
0.34396
1.1659
1.0979
1.0219
0.93868
0.85042
0.76057
0.67284
0.59017
0.51414
0.44525
0.38317
0.32705
1.1637
1.0967
1.0212
0.93849
0.8508
0.76147
0.67414
0.59168
0.51571
0.44676
0.38457
0.32831
1.1622
1.0957
1.0205
0.93803
0.85059
0.76151
0.67439
0.59207
0.51616
0.44721
0.38497
0.32868
1.1616
1.0953
1.0203
0.93794
0.85065
0.7617
0.67469
0.59245
0.51657
0.44758
0.38529
0.32895
1.1616
1.0952
1.0202
0.93793
0.85063
0.76165
0.67461
0.59236
0.51647
0.44748
0.38519
0.32884
1.1621
1.0956
1.0205
0.93799
0.85051
0.76136
0.67418
0.59181
0.51586
0.44689
0.38465
0.32834
1.1635
1.0967
1.0212
0.93843
0.85067
0.76124
0.67382
0.59127
0.51525
0.44626
0.38405
0.32779
1.1657
1.0979
1.0219
0.93863
0.85027
0.7603
0.67246
0.58968
0.51356
0.4446
0.38249
0.32636
1.1339
1.0761
1.0083
0.93281
0.85224
0.76941
0.68719
0.608
0.5335
0.46456
0.40143
0.34392
1.1288
1.0728
1.0061
0.93163
0.85206
0.77017
0.68873
0.61008
0.53586
0.467
0.40381
0.34619
1.1257
1.0703
1.0041
0.93015
0.85106
0.76963
0.68861
0.61028
0.53629
0.46757
0.40445
0.34688
1.1244
1.0693
1.0035
0.92977
0.85096
0.7698
0.689
0.61084
0.53694
0.46825
0.40512
0.34752
1.1244
1.0693
1.0035
0.92978
0.85097
0.76981
0.68901
0.61084
0.53694
0.46824
0.40512
0.34752
1.1258
1.0704
1.0042
0.9302
0.85109
0.76966
0.68862
0.61028
0.53628
0.46756
0.40444
0.34688
1.1289
1.0729
1.0062
0.9317
0.85212
0.77021
0.68875
0.61007
0.53584
0.46697
0.40378
0.34618
1.134
1.0763
1.0084
0.93291
0.85231
0.76946
0.68721
0.60799
0.53346
0.46451
0.40139
0.3439
1.1658
1.0979
1.0219
0.93864
0.85027
0.76029
0.67243
0.58963
0.51351
0.44454
0.38242
0.32629
1.1636
1.0968
1.0212
0.93846
0.85066
0.7612
0.67373
0.59114
0.51507
0.44607
0.38385
0.32758
1.1622
1.0957
1.0205
0.93803
0.85048
0.76127
0.67402
0.59157
0.51557
0.44657
0.38432
0.32802
1.1617
1.0954
1.0204
0.93799
0.85058
0.76152
0.67439
0.59203
0.51606
0.44704
0.38473
0.3284
1.1618
1.0954
1.0204
0.93802
0.85061
0.76155
0.67441
0.59204
0.51607
0.44704
0.38473
0.32841
1.1624
1.0958
1.0207
0.93812
0.85055
0.76134
0.67406
0.59158
0.51557
0.44656
0.38431
0.32805
1.1638
1.0969
1.0214
0.93859
0.85076
0.76127
0.67377
0.59114
0.51505
0.44603
0.38382
0.32761
1.166
1.0981
1.0221
0.93879
0.8504
0.76038
0.67249
0.58964
0.51346
0.44447
0.38238
0.3263
)
;

boundaryField
{
    inlet
    {
        type            uniformTotalPressure;
        rho             rho;
        psi             none;
        gamma           1;
        p0              table
        
4
(
(0 1.3332)
(0.003 1.3332)
(0.0031 0)
(0.01 0)
)
;
        value           nonuniform 0();
    }
    outlet
    {
        type            fixedValue;
        value           nonuniform 0();
    }
    mantle
    {
        type            zeroGradient;
    }
    procBoundary2to1
    {
        type            processor;
        value           nonuniform List<scalar> 
128
(
1.1568
1.1523
1.149
1.1473
1.1473
1.149
1.1523
1.1568
1.1523
1.148
1.1446
1.143
1.143
1.1446
1.148
1.1523
1.1489
1.1446
1.1415
1.1399
1.1399
1.1415
1.1446
1.1489
1.1473
1.143
1.1399
1.1383
1.1383
1.1399
1.143
1.1473
1.1473
1.143
1.1398
1.1383
1.1383
1.1398
1.143
1.1473
1.1489
1.1446
1.1414
1.1398
1.1398
1.1414
1.1446
1.1489
1.1523
1.148
1.1446
1.1429
1.1429
1.1446
1.148
1.1523
1.1567
1.1523
1.1489
1.1473
1.1473
1.1489
1.1523
1.1568
1.1776
1.1699
1.1661
1.1644
1.1643
1.166
1.1699
1.1776
1.2243
1.2206
1.2189
1.2181
1.2181
1.2188
1.2204
1.224
1.1776
1.1699
1.166
1.1643
1.1643
1.166
1.1699
1.1776
1.224
1.2204
1.2188
1.218
1.218
1.2188
1.2205
1.2242
1.1776
1.1699
1.166
1.1643
1.1642
1.1659
1.1698
1.1774
1.2242
1.2205
1.2188
1.218
1.2179
1.2186
1.2202
1.2238
1.1775
1.1698
1.166
1.1643
1.1643
1.166
1.1699
1.1776
1.2239
1.2203
1.2187
1.218
1.2181
1.2189
1.2206
1.2243
)
;
    }
    procBoundary2to3
    {
        type            processor;
        value           nonuniform List<scalar> 
128
(
0.29643
0.29803
0.29907
0.29961
0.29965
0.29917
0.2982
0.29666
0.298
0.29947
0.30048
0.30101
0.30104
0.30058
0.29964
0.29824
0.29901
0.30045
0.30144
0.30195
0.30199
0.30154
0.30063
0.29926
0.29952
0.30094
0.30192
0.30243
0.30247
0.30203
0.30113
0.29978
0.29952
0.30095
0.30192
0.30244
0.30248
0.30204
0.30114
0.29979
0.29901
0.30045
0.30145
0.30197
0.30201
0.30157
0.30066
0.29929
0.298
0.29948
0.3005
0.30103
0.30107
0.30062
0.29969
0.2983
0.29643
0.29805
0.29909
0.29965
0.29969
0.29923
0.29827
0.29674
0.29177
0.29399
0.29477
0.29545
0.29549
0.29491
0.29421
0.29208
0.27529
0.27657
0.27705
0.27748
0.27755
0.27726
0.27688
0.27573
0.29211
0.29432
0.29508
0.29572
0.29574
0.29513
0.2944
0.29222
0.2758
0.27707
0.27754
0.27793
0.27796
0.27763
0.27721
0.27597
0.2922
0.29432
0.29501
0.29557
0.29551
0.29482
0.29402
0.29177
0.27592
0.27707
0.27743
0.27769
0.27758
0.27711
0.27658
0.27527
0.29174
0.29391
0.29465
0.29527
0.29528
0.29466
0.29392
0.29174
0.27521
0.27639
0.27682
0.27719
0.27722
0.27689
0.27646
0.27526
)
;
    }
}


// ************************************************************************* //
