/*--------------------------------*- C++ -*----------------------------------*\
| =========                 |                                                 |
| \\      /  F ield         | OpenFOAM: The Open Source CFD Toolbox           |
|  \\    /   O peration     | Version:  4.1                                   |
|   \\  /    A nd           | Web:      www.OpenFOAM.org                      |
|    \\/     M anipulation  |                                                 |
\*---------------------------------------------------------------------------*/
FoamFile
{
    version     2.0;
    format      ascii;
    class       surfaceScalarField;
    location    "0.000070";
    object      phi;
}
// * * * * * * * * * * * * * * * * * * * * * * * * * * * * * * * * * * * * * //

dimensions      [0 3 -1 0 0 0 0];

internalField   nonuniform List<scalar> 
8704
(
-3.8195835e-07
-1.4946228e-06
-1.4956158e-06
1.650247e-06
1.6531724e-06
-3.7702382e-07
-1.8425368e-06
-1.8423197e-06
2.0568797e-06
2.0613449e-06
-3.7204606e-07
-2.1676025e-06
-2.1656148e-06
2.4374095e-06
2.4434768e-06
-3.6699875e-07
-2.4577506e-06
-2.4547256e-06
2.7799354e-06
2.7866803e-06
-3.6192147e-07
-2.7044179e-06
-2.7024263e-06
3.0748586e-06
3.0802548e-06
-3.5682879e-07
-2.8994983e-06
-2.8991359e-06
3.3131468e-06
3.3158736e-06
-3.5188279e-07
-3.0356849e-06
-3.0352173e-06
3.4853875e-06
3.4859377e-06
-3.4722656e-07
-3.1132292e-06
-3.1118367e-06
3.5890804e-06
3.5882952e-06
-3.4287993e-07
-3.1290705e-06
-3.1271563e-06
3.6214529e-06
3.6201118e-06
-3.3890143e-07
-3.0792166e-06
-3.076912e-06
3.579892e-06
3.578751e-06
-3.3533049e-07
-2.965878e-06
-2.9636937e-06
3.4667805e-06
3.4659182e-06
-3.3220909e-07
-2.7935919e-06
-2.7920162e-06
3.2861961e-06
3.2853121e-06
-3.2953724e-07
-2.5716039e-06
-2.5704768e-06
3.0457719e-06
3.0449117e-06
-3.2720598e-07
-2.3107391e-06
-2.3100716e-06
2.7554492e-06
2.7543883e-06
-3.2549442e-07
-2.0178426e-06
-2.0179509e-06
2.4236378e-06
2.4219726e-06
-3.2446768e-07
-1.6959915e-06
-1.6975137e-06
2.0555019e-06
2.0535231e-06
-3.2390025e-07
-1.3514285e-06
-1.3547035e-06
1.6591058e-06
1.6571502e-06
-3.2389682e-07
-9.9740805e-07
-1.0015913e-06
1.2484135e-06
1.2463637e-06
-3.2441132e-07
-6.4711529e-07
-6.5116456e-07
8.3713718e-07
8.346616e-07
-3.255378e-07
-3.0984869e-07
-3.1358919e-07
4.3731969e-07
4.3428393e-07
-3.2721209e-07
-1.7983571e-09
-6.0080876e-09
6.768117e-08
6.4004954e-08
-3.3065625e-07
2.3648862e-07
2.3168197e-07
-2.2899388e-07
-2.3295927e-07
-3.4229311e-07
3.1672265e-07
3.1247421e-07
-3.5443677e-07
-3.576928e-07
8.2541082e-08
8.0671345e-08
-8.8829742e-08
-9.0103061e-08
-3.8315835e-07
-1.3727517e-06
-1.1915071e-06
1.4160564e-06
-3.7922644e-07
-1.6703481e-06
-1.4912619e-06
1.7927144e-06
-3.7501697e-07
-1.9475054e-06
-1.7749612e-06
2.1501465e-06
-3.7055513e-07
-2.1945797e-06
-2.0317849e-06
2.4760365e-06
-3.6589343e-07
-2.405834e-06
-2.2548179e-06
2.7602412e-06
-3.610887e-07
-2.5721079e-06
-2.4342935e-06
2.9931715e-06
-3.5630132e-07
-2.6853253e-06
-2.5599777e-06
3.1645536e-06
-3.5166997e-07
-2.7471321e-06
-2.6340894e-06
3.2719965e-06
-3.4718534e-07
-2.7539895e-06
-2.6544024e-06
3.3122422e-06
-3.4290753e-07
-2.6995243e-06
-2.614775e-06
3.2809188e-06
-3.3897914e-07
-2.5868143e-06
-2.5182092e-06
3.180536e-06
-3.3546575e-07
-2.422354e-06
-2.3700995e-06
3.0161019e-06
-3.3236647e-07
-2.2156012e-06
-2.1795286e-06
2.7957169e-06
-3.2961014e-07
-1.9780072e-06
-1.9583366e-06
2.530038e-06
-3.2738617e-07
-1.7148344e-06
-1.713312e-06
2.2278636e-06
-3.2583687e-07
-1.4278842e-06
-1.4468103e-06
1.8949122e-06
-3.2487968e-07
-1.1230336e-06
-1.1625214e-06
1.5372493e-06
-3.2443304e-07
-8.1245309e-07
-8.7032521e-07
1.1667792e-06
-3.2464527e-07
-5.0871517e-07
-5.82743e-07
7.9901359e-07
-3.2562766e-07
-2.1868227e-07
-3.070357e-07
4.4390507e-07
-3.2780443e-07
4.3516815e-08
-5.7158886e-08
1.1774188e-07
-3.3265001e-07
2.3961744e-07
1.32889e-07
-1.414026e-07
-3.4724186e-07
2.9233526e-07
1.9215738e-07
-2.4740413e-07
8.1724425e-08
3.4065367e-08
-4.6703093e-08
-3.8629072e-07
-1.2258552e-06
-8.9510621e-07
1.1246262e-06
-3.8302843e-07
-1.4657725e-06
-1.1516026e-06
1.4568461e-06
-3.7940298e-07
-1.6886114e-06
-1.3990112e-06
1.7757495e-06
-3.7543933e-07
-1.8870272e-06
-1.62787e-06
2.0704812e-06
-3.7115148e-07
-2.0561487e-06
-1.8310839e-06
2.3316768e-06
-3.6661808e-07
-2.1871183e-06
-1.9983804e-06
2.5493908e-06
-3.619951e-07
-2.2736643e-06
-2.1201363e-06
2.7134326e-06
-3.5736895e-07
-2.317728e-06
-2.1980219e-06
2.8215901e-06
-3.5273421e-07
-2.3142612e-06
-2.2285164e-06
2.870126e-06
-3.4818645e-07
-2.2564723e-06
-2.2049628e-06
2.8537847e-06
-3.4390326e-07
-2.1492026e-06
-2.1313973e-06
2.7756765e-06
-3.3994681e-07
-1.9998063e-06
-2.0136866e-06
2.6414397e-06
-3.3632445e-07
-1.8161285e-06
-1.8592285e-06
2.4580336e-06
-3.3301259e-07
-1.6081006e-06
-1.6783713e-06
2.2346179e-06
-3.301503e-07
-1.3794019e-06
-1.4775731e-06
1.9785589e-06
-3.2786745e-07
-1.1323731e-06
-1.2600821e-06
1.6957279e-06
-3.2617289e-07
-8.7382123e-07
-1.0286313e-06
1.3922882e-06
-3.2499112e-07
-6.1303591e-07
-7.8974822e-07
1.0768578e-06
-3.24533e-07
-3.6038547e-07
-5.5426655e-07
7.6304717e-07
-3.250366e-07
-1.2084237e-07
-3.2787172e-07
4.5949477e-07
-3.2725705e-07
9.3400596e-08
-1.2139535e-07
1.8006647e-07
-3.329989e-07
2.4832864e-07
3.7508925e-08
-4.3188713e-08
-3.4962048e-07
2.7773216e-07
9.3163606e-08
-1.3783558e-07
8.5226194e-08
-2.2665075e-09
-3.9892773e-09
-3.8820628e-07
-1.0591686e-06
-5.8413495e-07
8.0518814e-07
-3.8544997e-07
-1.236588e-06
-7.9266752e-07
1.0865663e-06
-3.8223441e-07
-1.3999616e-06
-9.9903021e-07
1.3604616e-06
-3.7861032e-07
-1.5443253e-06
-1.195796e-06
1.6181803e-06
-3.7457646e-07
-1.6652215e-06
-1.3759222e-06
1.8512797e-06
-3.7023298e-07
-1.7552621e-06
-1.5283437e-06
2.049295e-06
-3.6570232e-07
-1.8109739e-06
-1.6447313e-06
2.203381e-06
-3.6104719e-07
-1.833994e-06
-1.7260545e-06
2.3115109e-06
-3.5630184e-07
-1.8188686e-06
-1.7668156e-06
2.3685103e-06
-3.5158755e-07
-1.759845e-06
-1.7606184e-06
2.369047e-06
-3.4709081e-07
-1.662839e-06
-1.7130347e-06
2.3171604e-06
-3.428685e-07
-1.5348525e-06
-1.6305748e-06
2.2189128e-06
-3.3893965e-07
-1.3810546e-06
-1.5180458e-06
2.0794557e-06
-3.3531359e-07
-1.2089969e-06
-1.3821666e-06
1.9049148e-06
-3.3211114e-07
-1.0214036e-06
-1.2284238e-06
1.7008527e-06
-3.2943398e-07
-8.210138e-07
-1.0619412e-06
1.473726e-06
-3.2727399e-07
-6.1384911e-07
-8.8507719e-07
1.2292493e-06
-3.2571282e-07
-4.0678764e-07
-7.0102154e-07
9.7443303e-07
-3.2488234e-07
-2.0752167e-07
-5.1849242e-07
7.1883479e-07
-3.2517712e-07
-2.0294893e-08
-3.4225918e-07
4.7065699e-07
-3.2750094e-07
1.4544332e-07
-1.7929963e-07
2.4032937e-07
-3.3383233e-07
2.6089577e-07
-4.9514485e-08
5.256933e-08
-3.5187625e-07
2.7030526e-07
6.4170118e-09
-3.5635527e-08
9.1870613e-08
-3.2726438e-08
3.4955454e-08
-3.8828755e-07
-8.8255904e-07
-2.7109723e-07
4.718922e-07
-3.8574025e-07
-9.9587545e-07
-4.2859331e-07
6.9814385e-07
-3.8262848e-07
-1.0967503e-06
-5.8953693e-07
9.2221794e-07
-3.7903952e-07
-1.1822091e-06
-7.489218e-07
1.1377396e-06
-3.7501846e-07
-1.2494338e-06
-9.0009711e-07
1.3369528e-06
-3.7068588e-07
-1.2948369e-06
-1.0319973e-06
1.509856e-06
-3.6610981e-07
-1.316704e-06
-1.1381592e-06
1.6499049e-06
-3.6137489e-07
-1.3149156e-06
-1.219764e-06
1.755438e-06
-3.5656621e-07
-1.2854934e-06
-1.2704817e-06
1.8205614e-06
-3.5179793e-07
-1.2249783e-06
-1.2834494e-06
1.8399158e-06
-3.4726118e-07
-1.1396602e-06
-1.2643083e-06
1.8174698e-06
-3.4301916e-07
-1.0358649e-06
-1.2200315e-06
1.759089e-06
-3.3907512e-07
-9.1584457e-07
-1.1531015e-06
1.6676728e-06
-3.3546112e-07
-7.8416184e-07
-1.0665604e-06
1.546296e-06
-3.3228958e-07
-6.4310349e-07
-9.6431573e-07
1.3992569e-06
-3.2962772e-07
-4.9514343e-07
-8.523092e-07
1.233045e-06
-3.2747275e-07
-3.438697e-07
-7.3244322e-07
1.052204e-06
-3.2589535e-07
-1.929133e-07
-6.0487264e-07
8.6066615e-07
-3.2512217e-07
-4.8583248e-08
-4.7643806e-07
6.6697836e-07
-3.2555149e-07
8.5471285e-08
-3.5115727e-07
4.7661855e-07
-3.2809858e-07
2.0185388e-07
-2.3226189e-07
2.9700845e-07
-3.3482074e-07
2.7793196e-07
-1.3107074e-07
1.4459984e-07
-3.5417277e-07
2.6879468e-07
-7.3396513e-08
6.0328183e-08
1.0186624e-07
-5.9584515e-08
6.9735195e-08
-3.863353e-07
-7.0398089e-07
2.888556e-08
1.4033975e-07
-3.8351531e-07
-7.5366811e-07
-7.7375284e-08
3.0944385e-07
-3.8016698e-07
-7.9251117e-07
-1.9042937e-07
4.8125913e-07
-3.7635251e-07
-8.1862339e-07
-3.0781323e-07
6.5043757e-07
-3.7214332e-07
-8.3102384e-07
-4.239701e-07
8.1060789e-07
-3.6765397e-07
-8.2904762e-07
-5.2913262e-07
9.5407884e-07
-3.6298672e-07
-8.1315681e-07
-6.1916682e-07
1.0763659e-06
-3.58244e-07
-7.8372104e-07
-6.9566258e-07
1.1755901e-06
-3.5351749e-07
-7.3854175e-07
-7.5289909e-07
1.2464722e-06
-3.4891892e-07
-6.7619574e-07
-7.8410141e-07
1.2842238e-06
-3.4459394e-07
-6.0205624e-07
-7.9363648e-07
1.291789e-06
-3.4061718e-07
-5.2089973e-07
-7.8743826e-07
1.2737053e-06
-3.3699454e-07
-4.3364942e-07
-7.6601404e-07
1.230856e-06
-3.3375273e-07
-3.4278204e-07
-7.2995657e-07
1.1643276e-06
-3.3097622e-07
-2.4954582e-07
-6.8190542e-07
1.0772352e-06
-3.2870691e-07
-1.5503181e-07
-6.2703682e-07
9.7489582e-07
-3.269591e-07
-6.0635718e-08
-5.6617136e-07
8.6018441e-07
-3.2579512e-07
3.2540395e-08
-4.9708816e-07
7.3451304e-07
-3.2537801e-07
1.2054742e-07
-4.2419365e-07
6.0397107e-07
-3.2620556e-07
1.9974942e-07
-3.5123916e-07
4.740958e-07
-3.2905215e-07
2.6551173e-07
-2.7810537e-07
3.4722834e-07
-3.3593955e-07
3.0145388e-07
-2.0701811e-07
2.313695e-07
-3.5610679e-07
2.7414551e-07
-1.4871793e-07
1.5115286e-07
1.1575859e-07
-8.4671635e-08
1.0255342e-07
-3.8286258e-07
-5.327865e-07
3.0451471e-07
-1.7411151e-07
-3.7962542e-07
-5.2083419e-07
2.4896395e-07
-6.235344e-08
-3.7586508e-07
-4.995185e-07
1.838691e-07
5.5751008e-08
-3.7175195e-07
-4.693276e-07
1.1020501e-07
1.7684178e-07
-3.6732737e-07
-4.3011505e-07
3.1818281e-08
2.9591543e-07
-3.6271313e-07
-3.8119129e-07
-4.3933488e-08
4.0823528e-07
-3.5804145e-07
-3.2529755e-07
-1.1456707e-07
5.1034372e-07
-3.534363e-07
-2.6680397e-07
-1.8176549e-07
6.0029648e-07
-3.4897703e-07
-2.0580396e-07
-2.4084884e-07
6.7395026e-07
-3.4475629e-07
-1.4080257e-07
-2.8644943e-07
7.2729816e-07
-3.4087161e-07
-7.5129669e-08
-3.2124798e-07
7.618449e-07
-3.37387e-07
-1.193468e-08
-3.491022e-07
7.8030752e-07
-3.3428694e-07
4.7554864e-08
-3.6942562e-07
7.8271119e-07
-3.3162063e-07
1.0144316e-07
-3.8170085e-07
7.6932306e-07
-3.294309e-07
1.5017275e-07
-3.8691763e-07
7.4149373e-07
-3.2774904e-07
1.9494889e-07
-3.8799015e-07
7.0219326e-07
-3.2660399e-07
2.3579029e-07
-3.8471736e-07
6.5266898e-07
-3.2604921e-07
2.7249799e-07
-3.7411817e-07
5.9319551e-07
-3.2620428e-07
3.0351962e-07
-3.5807752e-07
5.2740159e-07
-3.2745087e-07
3.2724138e-07
-3.3856581e-07
4.5853272e-07
-3.3050377e-07
3.4123514e-07
-3.1260042e-07
3.8668274e-07
-3.3719373e-07
3.3577122e-07
-2.741896e-07
3.1012689e-07
-3.5672383e-07
2.8927851e-07
-2.1864879e-07
2.3615052e-07
1.3571824e-07
-1.0785838e-07
1.3229641e-07
-3.7944168e-07
5.6739067e-07
-4.3763334e-07
-4.1689011e-07
-3.7612967e-07
5.5872638e-07
-3.7675547e-07
-3.5365467e-07
-3.722824e-07
5.3766436e-07
-3.0604008e-07
-2.8277806e-07
-3.6804611e-07
5.0413736e-07
-2.2752012e-07
-2.0610639e-07
-3.6356745e-07
4.6052938e-07
-1.4454204e-07
-1.244668e-07
-3.5898935e-07
4.1193377e-07
-6.0921715e-08
-3.8303767e-08
-3.5443399e-07
3.5928015e-07
2.1519483e-08
4.84207e-08
-3.5013572e-07
3.0112131e-07
1.0175109e-07
1.3039465e-07
-3.4612177e-07
2.407108e-07
1.7636381e-07
2.0589976e-07
-3.4247989e-07
1.818688e-07
2.4227115e-07
2.7525827e-07
-3.3926773e-07
1.2351696e-07
2.9961437e-07
3.3659459e-07
-3.3650664e-07
6.408896e-08
3.4949386e-07
3.8815715e-07
-3.341645e-07
4.642177e-09
3.9130082e-07
4.2912403e-07
-3.3226574e-07
-5.3800277e-08
4.2447589e-07
4.5853405e-07
-3.3082914e-07
-1.1030472e-07
4.4886625e-07
4.773397e-07
-3.2989536e-07
-1.6503628e-07
4.654048e-07
4.8731347e-07
-3.2946002e-07
-2.1706671e-07
4.7432082e-07
4.8904033e-07
-3.2953331e-07
-2.6354074e-07
4.7492815e-07
4.8315349e-07
-3.3017662e-07
-3.0399968e-07
4.6845289e-07
4.6998454e-07
-3.3163533e-07
-3.3745506e-07
4.555568e-07
4.4971305e-07
-3.342529e-07
-3.5783948e-07
4.3282125e-07
4.2172723e-07
-3.3993673e-07
-3.5311617e-07
3.9322496e-07
3.8102918e-07
-3.5497443e-07
-3.0197901e-07
3.2461144e-07
3.1537677e-07
-1.4028029e-07
1.6597435e-07
1.6242434e-07
-3.8305056e-07
-1.1998776e-06
-1.3822393e-06
1.42563e-06
-3.7913064e-07
-1.5016448e-06
-1.6807372e-06
1.8045991e-06
-3.7492703e-07
-1.7862396e-06
-1.9571168e-06
2.1631393e-06
-3.7045498e-07
-2.0424356e-06
-2.202384e-06
2.4884377e-06
-3.6574668e-07
-2.261855e-06
-2.4111629e-06
2.7694801e-06
-3.6089214e-07
-2.435632e-06
-2.573648e-06
2.996875e-06
-3.5605781e-07
-2.5574294e-06
-2.6818153e-06
3.1628618e-06
-3.5136628e-07
-2.6288884e-06
-2.7374735e-06
3.2660274e-06
-3.4689059e-07
-2.6469207e-06
-2.7383816e-06
3.3034387e-06
-3.4266574e-07
-2.6071628e-06
-2.6812379e-06
3.2718203e-06
-3.3874674e-07
-2.5118071e-06
-2.5695395e-06
3.1727757e-06
-3.3521743e-07
-2.3650989e-06
-2.408322e-06
3.0100966e-06
-3.3211984e-07
-2.1761944e-06
-2.2055858e-06
2.7917746e-06
-3.2939063e-07
-1.9561492e-06
-1.9705939e-06
2.5273478e-06
-3.2718677e-07
-1.7107655e-06
-1.7088159e-06
2.2248892e-06
-3.2561986e-07
-1.441679e-06
-1.4236393e-06
1.8907385e-06
-3.2464335e-07
-1.1545506e-06
-1.1215332e-06
1.532495e-06
-3.2418673e-07
-8.619817e-07
-8.1363472e-07
1.1627269e-06
-3.2441121e-07
-5.7536428e-07
-5.1039535e-07
7.9531755e-07
-3.2541155e-07
-3.0030363e-07
-2.1984998e-07
4.3969961e-07
-3.2764013e-07
-5.0083408e-08
4.1150631e-08
1.1299764e-07
-3.3251593e-07
1.4036371e-07
2.3569316e-07
-1.4635786e-07
-3.4726243e-07
1.9825149e-07
2.8823651e-07
-2.5123353e-07
3.6516285e-08
7.9809589e-08
-4.8163265e-08
-3.7467262e-07
-1.0475026e-06
-1.0479683e-06
-3.712977e-07
-1.2928218e-06
-1.2937368e-06
-3.6760133e-07
-1.5232448e-06
-1.5243575e-06
-3.6366034e-07
-1.7302313e-06
-1.7311858e-06
-3.5954773e-07
-1.9087326e-06
-1.9101198e-06
-3.5537378e-07
-2.0492738e-06
-2.0511421e-06
-3.5127825e-07
-2.1456703e-06
-2.1454366e-06
-3.473307e-07
-2.2006268e-06
-2.1962229e-06
-3.4359096e-07
-2.2098893e-06
-2.2014152e-06
-3.4010418e-07
-2.1673574e-06
-2.1562656e-06
-3.3701003e-07
-2.0763661e-06
-2.0646293e-06
-3.3437434e-07
-1.9425775e-06
-1.9322586e-06
-3.3218026e-07
-1.7749587e-06
-1.7673887e-06
-3.3041255e-07
-1.5854465e-06
-1.5797322e-06
-3.291856e-07
-1.3776326e-06
-1.3733678e-06
-3.2857768e-07
-1.1508898e-06
-1.1498274e-06
-3.2855596e-07
-9.1107145e-07
-9.1379208e-07
-3.2910588e-07
-6.6938004e-07
-6.740387e-07
-3.3035274e-07
-4.3478866e-07
-4.3898878e-07
-3.3249856e-07
-2.1027237e-07
-2.1369861e-07
-3.3624112e-07
-7.0446405e-09
-1.1738481e-08
-3.4302218e-07
1.4268682e-07
1.3633801e-07
-3.6045797e-07
1.7827793e-07
1.7226837e-07
3.6915607e-08
3.4393906e-08
-3.7708716e-07
-8.8404101e-07
-7.4642494e-07
-3.7405535e-07
-1.0673876e-06
-9.4797644e-07
-3.7067992e-07
-1.239658e-06
-1.1421127e-06
-3.6700423e-07
-1.3944736e-06
-1.3207335e-06
-3.6308966e-07
-1.5279319e-06
-1.4789094e-06
-3.590658e-07
-1.6313646e-06
-1.606912e-06
-3.5503143e-07
-1.6997329e-06
-1.696755e-06
-3.5100464e-07
-1.7362794e-06
-1.7506956e-06
-3.4706324e-07
-1.7357962e-06
-1.7652647e-06
-3.4330965e-07
-1.6911923e-06
-1.7358637e-06
-3.3989835e-07
-1.6074184e-06
-1.6675529e-06
-3.3689201e-07
-1.4913837e-06
-1.5656033e-06
-3.3427316e-07
-1.3504597e-06
-1.4362518e-06
-3.3204201e-07
-1.1948804e-06
-1.2886587e-06
-3.3031617e-07
-1.0262515e-06
-1.1272146e-06
-3.2916223e-07
-8.4423052e-07
-9.5371422e-07
-3.2857439e-07
-6.5490188e-07
-7.7137033e-07
-3.2857766e-07
-4.6632545e-07
-5.8574607e-07
-3.2934028e-07
-2.8532037e-07
-4.0370244e-07
-3.3120743e-07
-1.1293524e-07
-2.2862606e-07
-3.3506851e-07
4.2726992e-08
-7.02423e-08
-3.4273751e-07
1.5408718e-07
4.7913403e-08
-3.617702e-07
1.7106688e-07
8.3189369e-08
4.3674833e-08
3.1357067e-09
-3.7915691e-07
-7.1481312e-07
-4.3100007e-07
-3.7636355e-07
-8.3437276e-07
-5.8352541e-07
-3.7317486e-07
-9.4581422e-07
-7.3631468e-07
-3.6963104e-07
-1.0451766e-06
-8.8282839e-07
-3.6578459e-07
-1.1291785e-06
-1.0173848e-06
-3.6178519e-07
-1.1910684e-06
-1.1301711e-06
-3.5768822e-07
-1.2280638e-06
-1.2146883e-06
-3.5349795e-07
-1.2435412e-06
-1.2720634e-06
-3.4932924e-07
-1.2321637e-06
-1.2966189e-06
-3.4533578e-07
-1.1870297e-06
-1.2843553e-06
-3.4165527e-07
-1.1143584e-06
-1.2420048e-06
-3.3833719e-07
-1.0209787e-06
-1.1745976e-06
-3.3539054e-07
-9.1129047e-07
-1.0857448e-06
-3.3283251e-07
-7.9294425e-07
-9.822807e-07
-3.3077553e-07
-6.6676444e-07
-8.6842137e-07
-3.2925543e-07
-5.3293165e-07
-7.4702613e-07
-3.2827995e-07
-3.9627357e-07
-6.2006599e-07
-3.2793145e-07
-2.6160331e-07
-4.8973537e-07
-3.2838614e-07
-1.3400456e-07
-3.6163114e-07
-3.3011733e-07
-1.358145e-08
-2.3788616e-07
-3.34135e-07
9.5038039e-08
-1.2326811e-07
-3.4245735e-07
1.6984676e-07
-3.2987833e-08
-3.628422e-07
1.7031732e-07
4.8932354e-09
5.3283351e-08
-2.248262e-08
-3.800924e-07
-5.5029305e-07
-1.1524097e-07
-3.7724276e-07
-6.0741987e-07
-2.1537287e-07
-3.7391011e-07
-6.570754e-07
-3.2144955e-07
-3.701785e-07
-6.9780771e-07
-4.29957e-07
-3.661562e-07
-7.2861927e-07
-5.3576944e-07
-3.6198737e-07
-7.4630302e-07
-6.2862225e-07
-3.5768556e-07
-7.4995128e-07
-7.0293631e-07
-3.5328449e-07
-7.4092399e-07
-7.6018081e-07
-3.4892398e-07
-7.1491835e-07
-7.9422805e-07
-3.4475402e-07
-6.6760637e-07
-8.0032294e-07
-3.4090371e-07
-6.0588318e-07
-7.8504258e-07
-3.3741326e-07
-5.3563692e-07
-7.5419353e-07
-3.3429866e-07
-4.5836071e-07
-7.0985901e-07
-3.3160482e-07
-3.7920321e-07
-6.5557884e-07
-3.294358e-07
-2.9858573e-07
-5.9376254e-07
-3.277846e-07
-2.1610566e-07
-5.27522e-07
-3.266851e-07
-1.3392017e-07
-4.5819942e-07
-3.2625392e-07
-5.3685061e-08
-3.8525499e-07
-3.266942e-07
2.1198571e-08
-3.1237253e-07
-3.2855499e-07
9.0501874e-08
-2.4075279e-07
-3.3287781e-07
1.5177797e-07
-1.708689e-07
-3.4178244e-07
1.894551e-07
-1.0900577e-07
-3.639073e-07
1.7397228e-07
-6.8410989e-08
6.5437871e-08
-4.5720935e-08
-3.7953093e-07
-3.9608316e-07
1.8494887e-07
-3.7623402e-07
-3.9332639e-07
1.373446e-07
-3.7243982e-07
-3.8371334e-07
8.0417742e-08
-3.6830656e-07
-3.6761269e-07
1.3853943e-08
-3.6393817e-07
-3.4573483e-07
-5.8295676e-08
-3.594594e-07
-3.1783105e-07
-1.2465637e-07
-3.5489963e-07
-2.8506374e-07
-1.8129156e-07
-3.5032406e-07
-2.4816365e-07
-2.3219217e-07
-3.4586583e-07
-2.0484656e-07
-2.7251153e-07
-3.4166123e-07
-1.5388786e-07
-2.9622647e-07
-3.3780366e-07
-1.0129912e-07
-3.0796437e-07
-3.3434532e-07
-5.1292425e-08
-3.1315178e-07
-3.313019e-07
-4.1009535e-09
-3.1318028e-07
-3.2872467e-07
3.7349699e-08
-3.0941497e-07
-3.2668904e-07
7.352186e-08
-3.0202892e-07
-3.2517865e-07
1.0606138e-07
-2.9285676e-07
-3.2426631e-07
1.3512851e-07
-2.8261923e-07
-3.2407076e-07
1.6138424e-07
-2.6902813e-07
-3.2477772e-07
1.8366493e-07
-2.5306225e-07
-3.2694509e-07
2.0175311e-07
-2.3478096e-07
-3.3159102e-07
2.1507892e-07
-2.1137572e-07
-3.4085607e-07
2.1487108e-07
-1.7999931e-07
-3.6459716e-07
1.8358251e-07
-1.38447e-07
8.1207424e-08
-6.7613335e-08
-3.7800438e-07
-2.5534867e-07
4.6115958e-07
-3.7420976e-07
-1.9567466e-07
4.6419783e-07
-3.6996885e-07
-1.3078608e-07
4.5500754e-07
-3.6548072e-07
-6.2862159e-08
4.3115954e-07
-3.6080065e-07
7.0881705e-09
3.9535786e-07
-3.5605628e-07
7.9631997e-08
3.5820113e-07
-3.5129433e-07
1.5106112e-07
3.2188533e-07
-3.4663656e-07
2.1644846e-07
2.8055841e-07
-3.4219381e-07
2.7583775e-07
2.376841e-07
-3.3808644e-07
3.3033853e-07
1.991358e-07
-3.343789e-07
3.7612808e-07
1.6229209e-07
-3.3112002e-07
4.1047247e-07
1.2360725e-07
-3.2832073e-07
4.3290787e-07
8.2478999e-08
-3.2603169e-07
4.4158015e-07
3.8480043e-08
-3.2429094e-07
4.3850683e-07
-6.7788566e-09
-3.2309681e-07
4.2705793e-07
-5.2956542e-08
-3.2253153e-07
4.0844452e-07
-9.9864588e-08
-3.2269749e-07
3.8411031e-07
-1.4450299e-07
-3.2375171e-07
3.5504686e-07
-1.8544973e-07
-3.2618653e-07
3.2274269e-07
-2.2073691e-07
-3.3093807e-07
2.8867728e-07
-2.443854e-07
-3.3998855e-07
2.4954403e-07
-2.4516662e-07
-3.6384468e-07
2.005982e-07
-2.0578292e-07
1.0148796e-07
-8.9098577e-08
-3.8277815e-07
7.5349697e-07
-1.4417412e-07
-3.7953206e-07
8.0788366e-07
-2.9424124e-08
-3.7575536e-07
8.4690736e-07
8.8551273e-08
-3.716011e-07
8.6753726e-07
2.0626126e-07
-3.6713607e-07
8.7098752e-07
3.2164241e-07
-3.625002e-07
8.6372705e-07
4.3440472e-07
-3.5779312e-07
8.4643702e-07
5.3930231e-07
-3.5315462e-07
8.1460006e-07
6.2975606e-07
-3.4870796e-07
7.7004842e-07
7.0408554e-07
-3.4454897e-07
7.1670593e-07
7.6259132e-07
-3.4074036e-07
6.5351466e-07
8.0329721e-07
-3.3732599e-07
5.7932377e-07
8.2498469e-07
-3.3428945e-07
4.9475222e-07
8.2755093e-07
-3.3168276e-07
4.0038342e-07
8.1053272e-07
-3.2953365e-07
2.9930268e-07
7.7639126e-07
-3.2785776e-07
1.9424685e-07
7.2895982e-07
-3.2670704e-07
8.6954262e-08
6.7023046e-07
-3.2615032e-07
-1.9102519e-08
6.0232796e-07
-3.2630683e-07
-1.2052222e-07
5.2777294e-07
-3.2755058e-07
-2.1265043e-07
4.4968447e-07
-3.3060977e-07
-2.8639837e-07
3.7170859e-07
-3.3727794e-07
-3.2303334e-07
2.9398114e-07
-3.5679607e-07
-2.8979802e-07
2.2418774e-07
-1.2147726e-07
1.2843063e-07
-3.8608741e-07
-9.1850669e-07
-1.2445469e-06
1.1438699e-06
-3.8284848e-07
-1.1778265e-06
-1.4882863e-06
1.4791053e-06
-3.792251e-07
-1.4238995e-06
-1.7111285e-06
1.7975797e-06
-3.7522684e-07
-1.6474715e-06
-1.9053682e-06
2.0884296e-06
-3.7085655e-07
-1.8413788e-06
-2.0658798e-06
2.342616e-06
-3.6623596e-07
-1.9966728e-06
-2.1856918e-06
2.5507351e-06
-3.6151347e-07
-2.1078788e-06
-2.2617835e-06
2.705347e-06
-3.56773e-07
-2.1761164e-06
-2.2943542e-06
2.8049158e-06
-3.5211733e-07
-2.1988089e-06
-2.27979e-06
2.8469158e-06
-3.4760837e-07
-2.1734719e-06
-2.2172194e-06
2.8291805e-06
-3.4330323e-07
-2.102519e-06
-2.1110752e-06
2.7534517e-06
-3.3928476e-07
-1.9893091e-06
-1.9664686e-06
2.6232463e-06
-3.3563786e-07
-1.8405249e-06
-1.7897453e-06
2.4447988e-06
-3.3236757e-07
-1.6642778e-06
-1.5866777e-06
2.2247941e-06
-3.2954441e-07
-1.4645942e-06
-1.3602944e-06
1.9694045e-06
-3.2723685e-07
-1.2432071e-06
-1.1145868e-06
1.6847129e-06
-3.2554598e-07
-1.0081127e-06
-8.5869164e-07
1.3801366e-06
-3.2443481e-07
-7.7145931e-07
-6.0283643e-07
1.067238e-06
-3.2404597e-07
-5.400522e-07
-3.5309047e-07
7.5603706e-07
-3.246372e-07
-3.1599672e-07
-1.14709e-07
4.5332609e-07
-3.2700187e-07
-1.1054544e-07
9.6331559e-08
1.7401866e-07
-3.328487e-07
4.7399798e-08
2.4751361e-07
-4.899523e-08
-3.4987826e-07
1.0030243e-07
2.7517492e-07
-1.4196147e-07
1.7168975e-10
8.365571e-08
-5.1123687e-09
-3.7699789e-07
-7.6318448e-07
-8.9623944e-07
-3.7398103e-07
-9.6534681e-07
-1.0838542e-06
-3.7060766e-07
-1.1574802e-06
-1.2572711e-06
-3.6692361e-07
-1.3317806e-06
-1.4090783e-06
-3.6295888e-07
-1.4825113e-06
-1.5351741e-06
-3.5886943e-07
-1.6015322e-06
-1.6290425e-06
-3.5478397e-07
-1.6859071e-06
-1.6878093e-06
-3.5070902e-07
-1.7370522e-06
-1.7131415e-06
-3.4675307e-07
-1.7499104e-06
-1.7017958e-06
-3.4301242e-07
-1.7216271e-06
-1.6517971e-06
-3.3959861e-07
-1.6561935e-06
-1.5678971e-06
-3.3655163e-07
-1.5564898e-06
-1.4557201e-06
-3.3390188e-07
-1.4283842e-06
-1.321552e-06
-3.3169771e-07
-1.2822379e-06
-1.1712704e-06
-3.299922e-07
-1.1206123e-06
-1.0055192e-06
-3.2881514e-07
-9.4253513e-07
-8.2563732e-07
-3.2822757e-07
-7.5582586e-07
-6.3936212e-07
-3.2827602e-07
-5.7096792e-07
-4.5525e-07
-3.2909184e-07
-3.9237589e-07
-2.7662711e-07
-3.3101516e-07
-2.1965094e-07
-1.0549848e-07
-3.3497475e-07
-6.1445175e-08
4.6063169e-08
-3.427076e-07
5.6844508e-08
1.5258602e-07
-3.621039e-07
9.0415171e-08
1.6733151e-07
5.8833952e-09
4.171111e-08
-3.7974005e-07
-5.982507e-07
-5.9384904e-07
-3.7711629e-07
-7.3663938e-07
-7.3550821e-07
-3.7409226e-07
-8.6937089e-07
-8.7080102e-07
-3.7066879e-07
-9.8972549e-07
-9.9212663e-07
-3.6691381e-07
-1.0930544e-06
-1.0951496e-06
-3.629978e-07
-1.1730937e-06
-1.1742847e-06
-3.5895617e-07
-1.2279645e-06
-1.2259183e-06
-3.5478201e-07
-1.2596346e-06
-1.2514875e-06
-3.5061512e-07
-1.262194e-06
-1.2478109e-06
-3.4657578e-07
-1.2313653e-06
-1.2125732e-06
-3.4281236e-07
-1.1725761e-06
-1.1513966e-06
-3.3938735e-07
-1.0899432e-06
-1.0696516e-06
-3.3628876e-07
-9.8819834e-07
-9.7204232e-07
-3.3357921e-07
-8.7697208e-07
-8.6403914e-07
-3.313502e-07
-7.5664191e-07
-7.4584816e-07
-3.2962461e-07
-6.254346e-07
-6.1789704e-07
-3.284587e-07
-4.9070828e-07
-4.8614489e-07
-3.2796312e-07
-3.5992509e-07
-3.5682089e-07
-3.2830192e-07
-2.3626177e-07
-2.3297398e-07
-3.2994509e-07
-1.1747096e-07
-1.144186e-07
-3.3397662e-07
-7.5465623e-09
-7.4753043e-09
-3.4260494e-07
7.3376454e-08
6.9952221e-08
-3.6316139e-07
9.0600774e-08
8.5768674e-08
1.642816e-08
1.4108058e-08
-3.8203483e-07
-4.2848321e-07
-2.7664309e-07
-3.7973569e-07
-5.0023675e-07
-3.682753e-07
-3.7695723e-07
-5.6856486e-07
-4.6072709e-07
-3.7370311e-07
-6.3006055e-07
-5.4815144e-07
-3.7006587e-07
-6.8209285e-07
-6.2624148e-07
-3.6621042e-07
-7.195921e-07
-6.892701e-07
-3.6210962e-07
-7.4086528e-07
-7.3395382e-07
-3.5777417e-07
-7.495329e-07
-7.6104762e-07
-3.5338023e-07
-7.4113772e-07
-7.6582943e-07
-3.4907564e-07
-7.0937247e-07
-7.4665137e-07
-3.450115e-07
-6.6002967e-07
-7.1074934e-07
-3.412553e-07
-5.9856229e-07
-6.626276e-07
-3.3779094e-07
-5.2813642e-07
-6.0476667e-07
-3.3469822e-07
-4.5608164e-07
-5.4180969e-07
-3.3209355e-07
-3.8108975e-07
-4.737032e-07
-3.2996757e-07
-3.0081946e-07
-4.0003647e-07
-3.2839933e-07
-2.2079219e-07
-3.2493936e-07
-3.2752704e-07
-1.4572662e-07
-2.5231468e-07
-3.2753188e-07
-7.7563727e-08
-1.8445725e-07
-3.2897922e-07
-1.2821764e-08
-1.1935517e-07
-3.3304466e-07
4.8477606e-08
-5.7461307e-08
-3.4226853e-07
9.2500344e-08
-8.0723827e-09
-3.6359151e-07
9.3851904e-08
1.1352682e-08
2.8091276e-08
-9.2367423e-09
-3.8269021e-07
-2.6412028e-07
4.2229183e-08
-3.8034207e-07
-2.7081947e-07
3.7506957e-09
-3.7743861e-07
-2.7362526e-07
-4.0737185e-08
-3.7406315e-07
-2.7392475e-07
-8.9783423e-08
-3.7032144e-07
-2.7210881e-07
-1.4001925e-07
-3.6633713e-07
-2.6385575e-07
-1.83804e-07
-3.620985e-07
-2.4896431e-07
-2.1856741e-07
-3.5762484e-07
-2.3136543e-07
-2.4533231e-07
-3.5308947e-07
-2.0775893e-07
-2.5857181e-07
-3.4867219e-07
-1.7316329e-07
-2.5671178e-07
-3.444868e-07
-1.3358861e-07
-2.4710405e-07
-3.4057375e-07
-9.3742408e-08
-2.3373369e-07
-3.3695944e-07
-5.4886364e-08
-2.1794449e-07
-3.3374779e-07
-2.2787218e-08
-2.0348581e-07
-3.3103659e-07
4.5419765e-09
-1.8897419e-07
-3.2878135e-07
3.1029552e-08
-1.7225022e-07
-3.270907e-07
5.4268388e-08
-1.5616615e-07
-3.2613395e-07
7.2242971e-08
-1.4275337e-07
-3.2610357e-07
8.5110521e-08
-1.3180993e-07
-3.2761649e-07
9.6728375e-08
-1.1980361e-07
-3.3187585e-07
1.0893924e-07
-1.0352265e-07
-3.4155449e-07
1.147053e-07
-8.3093239e-08
-3.6414338e-07
9.9684598e-08
-6.0351902e-08
4.126225e-08
-3.125218e-08
-3.8149551e-07
-1.0978083e-07
3.4641099e-07
-3.7867569e-07
-5.491763e-08
3.6089442e-07
-3.753164e-07
2.8951496e-09
3.6505301e-07
-3.715502e-07
6.0252169e-08
3.5623428e-07
-3.6748693e-07
1.1496048e-07
3.3689578e-07
-3.6323311e-07
1.688614e-07
3.1635541e-07
-3.5880206e-07
2.202427e-07
2.967627e-07
-3.5423759e-07
2.6590026e-07
2.7497776e-07
-3.4970271e-07
3.075315e-07
2.5487324e-07
-3.4536081e-07
3.4682036e-07
2.3914945e-07
-3.4128724e-07
3.7844368e-07
2.2254575e-07
-3.3751967e-07
3.9945848e-07
2.0162549e-07
-3.3409804e-07
4.0941408e-07
1.7522134e-07
-3.3112119e-07
4.0394356e-07
1.4066495e-07
-3.2865208e-07
3.8600915e-07
1.0105094e-07
-3.2664249e-07
3.6137687e-07
6.0448715e-08
-3.2522733e-07
3.3039304e-07
1.7456262e-08
-3.2456899e-07
2.9337237e-07
-2.8451762e-08
-3.2485479e-07
2.5253554e-07
-7.4412538e-08
-3.2669331e-07
2.1200856e-07
-1.1537134e-07
-3.3123024e-07
1.7539372e-07
-1.4513029e-07
-3.4101677e-07
1.4237891e-07
-1.5471302e-07
-3.6486849e-07
1.1073511e-07
-1.299364e-07
5.7623184e-08
-5.2364674e-08
-3.7938626e-07
3.3401731e-08
6.2782693e-07
-3.7609527e-07
1.4549274e-07
6.9215208e-07
-3.7229204e-07
2.5792538e-07
7.4171509e-07
-3.6814232e-07
3.6691636e-07
7.723778e-07
-3.6374979e-07
4.7008672e-07
7.8576893e-07
-3.5923096e-07
5.6697645e-07
7.9025177e-07
-3.5462633e-07
6.5401932e-07
7.874015e-07
-3.500387e-07
7.263529e-07
7.723365e-07
-3.4561422e-07
7.8359994e-07
7.4692942e-07
-3.4147968e-07
8.2619385e-07
7.1458716e-07
-3.37689e-07
8.5056475e-07
6.7248005e-07
-3.3427512e-07
8.5520355e-07
6.1854176e-07
-3.3126269e-07
8.3980012e-07
5.519028e-07
-3.2872595e-07
8.0173365e-07
4.7107601e-07
-3.2670611e-07
7.4493109e-07
3.804103e-07
-3.2517725e-07
6.7610624e-07
2.8550026e-07
-3.2425763e-07
5.9750852e-07
1.8668368e-07
-3.2407262e-07
5.1103257e-07
8.4724576e-08
-3.2479423e-07
4.20406e-07
-1.5846588e-08
-3.2696896e-07
3.3069994e-07
-1.0842428e-07
-3.3159893e-07
2.4732527e-07
-1.8332681e-07
-3.40857e-07
1.7548926e-07
-2.2326936e-07
-3.6458404e-07
1.2587013e-07
-1.9908355e-07
7.6652876e-08
-7.4497741e-08
-3.8611268e-07
9.4489914e-07
1.8014167e-07
-3.8328385e-07
1.0642738e-06
3.5342535e-07
-3.7989287e-07
1.1646274e-06
5.2467004e-07
-3.7600913e-07
1.241622e-06
6.8833209e-07
-3.7173801e-07
1.2951854e-06
8.413503e-07
-3.672009e-07
1.3300185e-06
9.8131291e-07
-3.6246507e-07
1.3464728e-06
1.10337e-06
-3.57673e-07
1.3400506e-06
1.201455e-06
-3.5299064e-07
1.3110359e-06
1.2731791e-06
-3.4852778e-07
1.2616335e-06
1.3180771e-06
-3.4434283e-07
1.1907219e-06
1.3343096e-06
-3.4048161e-07
1.098324e-06
1.3217178e-06
-3.3695722e-07
9.8513574e-07
1.2810086e-06
-3.3382186e-07
8.5141172e-07
1.2119899e-06
-3.3111066e-07
7.0236318e-07
1.1186598e-06
-3.2882878e-07
5.4482189e-07
1.0073378e-06
-3.2706698e-07
3.8157614e-07
8.8188473e-07
-3.2591098e-07
2.1549779e-07
7.457256e-07
-3.2550022e-07
5.261433e-08
6.0367915e-07
-3.2633586e-07
-9.8889444e-08
4.622195e-07
-3.291533e-07
-2.2541148e-07
3.2771761e-07
-3.3600452e-07
-3.0284176e-07
2.1095906e-07
-3.5613056e-07
-2.8698575e-07
1.3637607e-07
-1.0836106e-07
9.7346366e-08
-3.879333e-07
-6.2239452e-07
-1.083914e-06
8.3381826e-07
-3.8519321e-07
-8.3410609e-07
-1.2673463e-06
1.1182824e-06
-3.8196864e-07
-1.036719e-06
-1.4310668e-06
1.3898737e-06
-3.7826901e-07
-1.2224779e-06
-1.5685031e-06
1.6398084e-06
-3.7412735e-07
-1.3857853e-06
-1.6756825e-06
1.8611812e-06
-3.6966668e-07
-1.5195796e-06
-1.7495143e-06
2.0458903e-06
-3.6497683e-07
-1.6194731e-06
-1.7907745e-06
2.1876404e-06
-3.6015881e-07
-1.6852251e-06