/*--------------------------------*- C++ -*----------------------------------*\
| =========                 |                                                 |
| \\      /  F ield         | OpenFOAM: The Open Source CFD Toolbox           |
|  \\    /   O peration     | Version:  4.1                                   |
|   \\  /    A nd           | Web:      www.OpenFOAM.org                      |
|    \\/     M anipulation  |                                                 |
\*---------------------------------------------------------------------------*/
FoamFile
{
    version     2.0;
    format      ascii;
    class       surfaceVectorField;
    location    "0.0093";
    object      Uf;
}
// * * * * * * * * * * * * * * * * * * * * * * * * * * * * * * * * * * * * * //

dimensions      [0 1 -1 0 0 0 0];

internalField   nonuniform List<vector> 
4288
(
(-0.0013332 0.007833 8.1181e-07)
(0.0036774 0.010298 0.0020143)
(0.0036782 0.010299 -0.0020125)
(0.0024444 0.014407 -0.00080479)
(0.0024442 0.014397 0.00079512)
(-0.0082181 0.0038302 7.8353e-07)
(-0.0049154 0.0068017 0.0022326)
(-0.0049149 0.0068025 -0.0022305)
(-0.0060586 0.010119 -0.00096032)
(-0.0060585 0.010122 0.00096395)
(-0.012844 0.00048709 6.9451e-07)
(-0.010754 0.0037605 0.0022012)
(-0.010754 0.0037615 -0.0022)
(-0.011678 0.0061743 -0.0011578)
(-0.011678 0.0061767 0.0011609)
(-0.015297 -0.0019166 9.0788e-07)
(-0.014329 0.00091902 0.0017299)
(-0.014328 0.00092028 -0.0017284)
(-0.014955 0.0022981 -0.0010745)
(-0.014955 0.0022998 0.0010776)
(-0.014714 -0.0036878 7.2367e-07)
(-0.015271 -0.0014162 0.00076954)
(-0.015271 -0.0014138 -0.00076895)
(-0.015699 -0.0012059 -0.00038254)
(-0.015699 -0.0012047 0.00038529)
(-0.011894 -0.0050917 4.2739e-07)
(-0.013692 -0.0031324 0.00055581)
(-0.013692 -0.0031322 -0.0005542)
(-0.014006 -0.003672 -0.00025079)
(-0.014006 -0.0036703 0.00025307)
(-0.0083258 -0.0056116 5.2627e-07)
(-0.010615 -0.0042605 0.00036337)
(-0.010614 -0.0042596 -0.00036209)
(-0.010666 -0.005175 -0.00021261)
(-0.010666 -0.005175 0.00021347)
(-0.0043446 -0.0051359 6.1435e-07)
(-0.0067786 -0.0043845 0.00016323)
(-0.0067784 -0.0043839 -0.00016168)
(-0.006538 -0.0055384 -0.00012771)
(-0.0065379 -0.0055382 0.00012912)
(-0.00097508 -0.0038666 6.127e-07)
(-0.0030737 -0.0038117 -7.8969e-05)
(-0.0030734 -0.0038112 8.0444e-05)
(-0.0025989 -0.0049043 -6.5283e-06)
(-0.002599 -0.004904 7.8233e-06)
(0.00093741 -0.0020574 8.9807e-07)
(-6.8481e-05 -0.0026303 -0.00034391)
(-6.7829e-05 -0.0026294 0.00034541)
(0.00056538 -0.0034836 6.3162e-05)
(0.00056527 -0.0034827 -6.1244e-05)
(0.0017103 -0.00031931 9.9641e-07)
(0.0016437 -0.001038 -0.00047254)
(0.0016443 -0.0010368 0.00047502)
(0.0022548 -0.0016017 0.00014124)
(0.0022547 -0.0016016 -0.00013924)
(0.0020024 0.00022225 -0.00037264)
(0.0020026 0.00022382 0.00037402)
(0.0025036 3.5579e-05 0.00017361)
(0.0025038 3.4542e-05 -0.0001734)
(-0.00075102 0.0068294 0.0018141)
(0.0043297 0.0073161 0.00010531)
(0.0042354 0.0091121 -0.00010587)
(0.0035274 0.010704 0.00051929)
(-0.0077103 0.0045254 0.0022316)
(-0.0043066 0.0048532 0.0006696)
(-0.0044219 0.0067197 0.00024845)
(-0.0050054 0.0078639 0.00075107)
(-0.012228 0.002598 0.0023394)
(-0.010177 0.0028575 0.0010612)
(-0.010335 0.0047076 0.00056728)
(-0.0107 0.005521 0.00072937)
(-0.014495 0.00080276 0.0018831)
(-0.013632 0.0010809 0.0011466)
(-0.013847 0.0027468 0.00075401)
(-0.013992 0.0033356 0.00041203)
(-0.014145 -0.00087184 0.0013132)
(-0.014583 -0.00057801 0.0007607)
(-0.014764 0.0003547 0.00071819)
(-0.014829 0.0005657 0.00030803)
(-0.011494 -0.0021705 0.0010489)
(-0.01321 -0.0018646 0.00084078)
(-0.013292 -0.0013617 0.00072034)
(-0.013327 -0.0016533 0.00045618)
(-0.0081286 -0.0027078 0.00085138)
(-0.010383 -0.0028046 0.00083742)
(-0.01043 -0.002485 0.00068794)
(-0.010249 -0.002882 0.00036884)
(-0.0043966 -0.002522 0.0006219)
(-0.0067508 -0.0028505 0.00073361)
(-0.0068276 -0.0026751 0.0006505)
(-0.006418 -0.0031458 0.00030284)
(-0.0011492 -0.0018551 0.00029706)
(-0.0031573 -0.0024518 0.0004771)
(-0.0032656 -0.0023838 0.00055325)
(-0.0026827 -0.0027747 0.00018543)
(0.00078499 -0.00084604 -5.2063e-05)
(-0.00024306 -0.0016248 0.00012145)
(-0.00034481 -0.0016585 0.00038958)
(0.00035018 -0.0017973 -6.4922e-05)
(0.001674 7.8309e-05 -0.00027121)
(0.0014593 -0.00054414 -0.00018255)
(0.0014049 -0.00061036 0.00014729)
(0.0020378 -0.00065389 -0.00014911)
(0.0018314 0.00027585 -0.0002394)
(0.0017791 0.00021138 -5.3697e-05)
(0.0023305 0.00032668 -0.00022184)
(-0.00018437 0.0058188 -0.00056003)
(0.0047733 0.0056927 -0.00174)
(0.0048354 0.0072569 -0.0016671)
(0.0041655 0.0087976 -0.0025141)
(-0.0071115 0.0037932 0.0001066)
(-0.0038737 0.0037648 -0.00075193)
(-0.0038296 0.0052811 -0.0011526)
(-0.0044213 0.0063715 -0.0016847)
(-0.011513 0.0020279 0.00055467)
(-0.0097646 0.0021667 3.3441e-05)
(-0.009756 0.0035673 -0.00073128)
(-0.010194 0.0042336 -0.00097043)
(-0.01364 0.00031334 0.00063628)
(-0.013132 0.00082137 0.00059694)
(-0.013119 0.0019142 -0.00042994)
(-0.013422 0.0022835 -0.00051934)
(-0.013564 -0.00121 0.00064812)
(-0.014124 -0.00043338 0.00082318)
(-0.014088 -0.00011009 -0.00020617)
(-0.014305 8.6986e-05 -0.00017044)
(-0.0113 -0.002312 0.00081535)
(-0.012925 -0.0015509 0.0010654)
(-0.012894 -0.0013905 8.9171e-05)
(-0.013025 -0.0017588 0.00053186)
(-0.0079233 -0.0027938 0.00087291)
(-0.010251 -0.0023088 0.0013079)
(-0.010267 -0.0022953 0.00029604)
(-0.010174 -0.0028039 0.00083541)
(-0.0044159 -0.0026438 0.00072525)
(-0.0067456 -0.0023503 0.0012584)
(-0.0068358 -0.0024667 0.00037055)
(-0.0064898 -0.0029986 0.00090679)
(-0.0012885 -0.0021009 0.00042223)
(-0.0032215 -0.0020003 0.00097341)
(-0.0033664 -0.0022082 0.00027769)
(-0.0028553 -0.0026771 0.00072841)
(0.00065043 -0.0012587 5.5342e-05)
(-0.00037616 -0.0013437 0.00054807)
(-0.00054282 -0.0016651 0.00013351)
(7.8282e-05 -0.0018674 0.00038141)
(0.001466 -0.00040744 -0.00021154)
(0.0012952 -0.00047555 6.5121e-05)
(0.0011527 -0.00082004 -7.5806e-05)
(0.0017496 -0.00087159 4.3426e-05)
(0.0016715 0.00014985 -0.00020822)
(0.0015372 -4.3201e-05 -0.00022469)
(0.0020749 1.4952e-06 -0.00018493)
(9.5332e-05 0.0035712 -0.0019985)
(0.0049171 0.0035042 -0.0035031)
(0.0051161 0.0049436 -0.0032367)
(0.0044688 0.0061673 -0.0039125)
(-0.0067797 0.0020497 -0.00091349)
(-0.0037344 0.0020669 -0.002065)
(-0.0035584 0.0034905 -0.0022524)
(-0.0041227 0.0042857 -0.0025468)
(-0.011137 0.00081369 -7.0976e-05)
(-0.0096407 0.00089791 -0.00089583)
(-0.0095164 0.0022481 -0.0014144)
(-0.0099129 0.0026623 -0.0013993)
(-0.013379 -0.00019179 0.00051717)
(-0.013003 -1.1453e-05 1.3569e-05)
(-0.012886 0.0011423 -0.00068453)
(-0.013128 0.0012563 -0.00049045)
(-0.013416 -0.0010063 0.0010081)
(-0.014024 -0.00069556 0.00069804)
(-0.01392 -6.3319e-05 0.00012916)
(-0.014069 -0.00016813 0.00038965)
(-0.011254 -0.0016597 0.0014456)
(-0.012858 -0.0013165 0.0013194)
(-0.012779 -0.00082633 0.00072759)
(-0.012858 -0.0012157 0.0011379)
(-0.0078893 -0.0019615 0.0015969)
(-0.010204 -0.0017863 0.0017887)
(-0.010184 -0.0014581 0.0011441)
(-0.010064 -0.001985 0.0016204)
(-0.0044299 -0.0017903 0.0014231)
(-0.0067424 -0.00177 0.001772)
(-0.0068377 -0.0016039 0.0012279)
(-0.0064749 -0.002133 0.0016692)
(-0.0013478 -0.0013133 0.0010294)
(-0.0032433 -0.0014414 0.0014436)
(-0.0034216 -0.00136 0.0010541)
(-0.0029004 -0.0018231 0.001402)
(0.00060296 -0.0006227 0.00049595)
(-0.00041934 -0.00089924 0.00090119)
(-0.00063926 -0.00092539 0.00074005)
(-1.1322e-05 -0.0011696 0.00086322)
(0.0013801 3.3183e-05 1.9973e-05)
(0.0012459 -0.00021765 0.00021955)
(0.0010444 -0.00028722 0.00031403)
(0.0016474 -0.0003775 0.00027553)
(0.0016273 0.00023202 -0.00023103)
(0.0014475 0.00024446 -5.4055e-05)
(0.001976 0.0002493 -0.00017807)
(9.527e-05 0.0019997 -0.0035691)
(0.0047731 0.0017414 -0.0056915)
(0.0051161 0.0032386 -0.0049421)
(0.0044688 0.0039144 -0.0061661)
(-0.0067798 0.00091525 -0.0020471)
(-0.003874 0.00075413 -0.0037621)
(-0.0035585 0.0022551 -0.0034882)
(-0.0041228 0.0025499 -0.0042839)
(-0.011137 7.3169e-05 -0.00081119)
(-0.0097648 -3.0699e-05 -0.0021635)
(-0.0095165 0.0014176 -0.0022456)
(-0.009913 0.0014033 -0.0026607)
(-0.013379 -0.00051466 0.00019461)
(-0.013132 -0.00059408 -0.00081778)
(-0.012886 0.00068797 -0.0011397)
(-0.013128 0.00049512 -0.0012549)
(-0.013416 -0.0010056 0.0010089)
(-0.014124 -0.00082003 0.00043713)
(-0.01392 -0.00012627 6.678e-05)
(-0.014069 -0.0003857 0.00017068)
(-0.011254 -0.0014432 0.0016618)
(-0.012925 -0.0010615 0.0015549)
(-0.01278 -0.00072498 0.00082914)
(-0.012858 -0.0011346 0.0012175)
(-0.0078892 -0.0015946 0.0019637)
(-0.010251 -0.0013053 0.0023121)
(-0.010184 -0.0011415 0.0014606)
(-0.010064 -0.0016171 0.0019872)
(-0.0044296 -0.0014211 0.0017925)
(-0.0067456 -0.0012562 0.0023528)
(-0.0068375 -0.0012254 0.0016062)
(-0.0064747 -0.0016664 0.0021351)
(-0.0013478 -0.0010274 0.0013154)
(-0.0032215 -0.0009715 0.0020027)
(-0.0034215 -0.0010516 0.0013622)
(-0.0029002 -0.0013994 0.0018253)
(0.00060292 -0.0004943 0.0006249)
(-0.00037612 -0.00054608 0.0013461)
(-0.00063932 -0.00073799 0.00092756)
(-1.1483e-05 -0.0008609 0.0011716)
(0.0013802 -1.8948e-05 -3.151e-05)
(0.0012955 -6.3347e-05 0.00047763)
(0.0010445 -0.00031232 0.00028952)
(0.0016475 -0.00027379 0.00037986)
(0.0016716 0.00020942 -0.00014825)
(0.0014476 5.5072e-05 -0.00024342)
(0.0019761 0.0001796 -0.00024859)
(-0.00018515 0.00056328 -0.0058162)
(0.0043289 -0.00010177 -0.0073118)
(0.0048348 0.0016712 -0.0072554)
(0.0041648 0.0025212 -0.0087989)
(-0.0071119 -0.00010291 -0.0037894)
(-0.0043075 -0.00066597 -0.0048483)
(-0.0038301 0.0011571 -0.0052789)
(-0.0044221 0.001691 -0.006371)
(-0.011513 -0.00055081 -0.0020232)
(-0.010177 -0.0010569 -0.0028516)
(-0.0097561 0.00073644 -0.0035641)
(-0.010194 0.00097782 -0.0042322)
(-0.013641 -0.00063313 -0.00030918)
(-0.013632 -0.0011426 -0.0010751)
(-0.01312 0.0004348 -0.0019108)
(-0.013423 0.00052624 -0.0022817)
(-0.013563 -0.00064529 0.0012133)
(-0.014582 -0.00075734 0.00058239)
(-0.014087 0.00020971 0.00011315)
(-0.014305 0.00017396 -8.4113e-05)
(-0.0113 -0.00081294 0.0023153)
(-0.01321 -0.00083832 0.001868)
(-0.012893 -8.6054e-05 0.0013935)
(-0.013025 -0.0005294 0.0017628)
(-0.0079235 -0.00087088 0.0027971)
(-0.010382 -0.00083554 0.0028076)
(-0.010267 -0.00029317 0.002298)
(-0.010174 -0.00083295 0.002807)
(-0.0044161 -0.00072314 0.0026466)
(-0.0067506 -0.00073147 0.0028533)
(-0.0068359 -0.00036767 0.0024694)
(-0.0064897 -0.00090388 0.0030012)
(-0.0012883 -0.00042032 0.0021034)
(-0.0031572 -0.00047502 0.0024547)
(-0.0033663 -0.00027534 0.0022108)
(-0.0028553 -0.0007258 0.0026795)
(0.00065038 -5.3536e-05 0.0012606)
(-0.00024279 -0.00011977 0.0016272)
(-0.00054261 -0.00013149 0.0016675)
(7.8664e-05 -0.00037941 0.00187)
(0.0014664 0.00021276 0.00040871)
(0.00146 0.00018446 0.00054603)
(0.0011532 7.7737e-05 0.0008215)
(0.0017502 -4.1846e-05 0.00087304)
(0.0018315 0.00023943 -0.00027573)
(0.0015374 0.00022652 4.4171e-05)
(0.002075 0.0001853 4.3316e-07)
(-0.00075216 -0.0018104 -0.006823)
(0.0036759 -0.0020101 -0.010291)
(0.0042345 0.00011028 -0.0091077)
(0.0035264 -0.00051211 -0.010701)
(-0.0077114 -0.0022283 -0.0045193)
(-0.004916 -0.0022303 -0.0067965)
(-0.0044229 -0.00024475 -0.0067159)
(-0.0050064 -0.00074753 -0.0078592)
(-0.012228 -0.0023355 -0.0025914)
(-0.010755 -0.0021984 -0.0037549)
(-0.010336 -0.00056241 -0.0047026)
(-0.010701 -0.00072555 -0.0055148)
(-0.014494 -0.0018798 -0.00079759)
(-0.014328 -0.0017269 -0.00091305)
(-0.013847 -0.00074907 -0.0027419)
(-0.013991 -0.00040775 -0.0033298)
(-0.014145 -0.0013105 0.000876)
(-0.01527 -0.00076849 0.0014188)
(-0.014764 -0.00071342 -0.00035209)
(-0.014828 -0.00030517 -0.00056158)
(-0.011494 -0.0010463 0.0021742)
(-0.013691 -0.00055317 0.0031372)
(-0.013292 -0.00071687 0.0013654)
(-0.013326 -0.000452 0.0016563)
(-0.0081277 -0.00084896 0.0027107)
(-0.010614 -0.00036143 0.0042645)
(-0.01043 -0.00068411 0.0024874)
(-0.010248 -0.00036473 0.0028841)
(-0.004396 -0.00061987 0.0025248)
(-0.0067783 -0.00016111 0.0043884)
(-0.0068271 -0.0006477 0.0026776)
(-0.0064177 -0.00029918 0.0031478)
(-0.0011488 -0.0002953 0.0018578)
(-0.0030735 8.0795e-05 0.0038155)
(-0.0032652 -0.00055087 0.0023861)
(-0.0026823 -0.00018244 0.0027769)
(0.00078525 5.4033e-05 0.00084861)
(-6.8247e-05 0.00034539 0.0026332)
(-0.0003444 -0.00038755 0.0016608)
(0.0003507 6.7275e-05 0.0017995)
(0.0016748 0.00027277 -7.6724e-05)
(0.0016448 0.00047458 0.0010403)
(0.0014054 -0.00014451 0.00061277)
(0.0020385 0.00015207 0.00065616)
(0.0020027 0.00037229 -0.0002227)
(0.0017794 5.6737e-05 -0.00021165)
(0.0023306 0.00022448 -0.00032696)
(-0.0013347 1.299e-06 -0.0078274)
(0.0036761 0.002013 -0.010293)
(0.002442 0.00080017 -0.014397)
(0.002442 -0.00079407 -0.014393)
(-0.008219 2.0198e-06 -0.0038246)
(-0.0049158 0.0022348 -0.006799)
(-0.0060593 0.00096576 -0.010117)
(-0.0060594 -0.00095989 -0.010115)
(-0.012844 2.4508e-06 -0.00048086)
(-0.010755 0.0022038 -0.0037574)
(-0.011679 0.0011628 -0.0061718)
(-0.011679 -0.001156 -0.0061695)
(-0.015297 2.4315e-06 0.0019226)
(-0.014328 0.0017327 -0.00091479)
(-0.014955 0.0010806 -0.0022944)
(-0.014954 -0.0010728 -0.0022921)
(-0.014713 1.9151e-06 0.0036926)
(-0.015269 0.00077276 0.0014183)
(-0.015698 0.00038862 0.001208)
(-0.015698 -0.00038173 0.00121)
(-0.011893 1.4937e-06 0.0050966)
(-0.013691 0.00055806 0.003135)
(-0.014006 0.00025587 0.0036736)
(-0.014005 -0.00024951 0.0036762)
(-0.0083253 1.3031e-06 0.0056168)
(-0.010614 0.00036558 0.0042631)
(-0.010666 0.00021674 0.0051785)
(-0.010665 -0.00021169 0.0051799)
(-0.0043446 1.434e-06 0.0051409)
(-0.006778 0.00016468 0.0043868)
(-0.0065375 0.00013172 0.0055413)
(-0.0065375 -0.00012725 0.0055429)
(-0.0009743 1.3203e-06 0.003871)
(-0.003073 -7.75e-05 0.0038143)
(-0.0025985 1.0443e-05 0.0049074)
(-0.0025984 -5.734e-06 0.0049089)
(0.00093818 1.031e-06 0.0020605)
(-6.7773e-05 -0.00034307 0.0026316)
(0.00056581 -5.97e-05 0.0034855)
(0.0005659 6.3029e-05 0.0034868)
(0.001711 1.0652e-06 0.00032156)
(0.0016453 -0.00047195 0.0010389)
(0.002256 -0.00013802 0.0016032)
(0.002256 0.00014146 0.0016043)
(0.0020035 -0.00037099 -0.00022372)
(0.0025047 -0.00017093 -3.4081e-05)
(0.0025046 0.00017169 -3.5361e-05)
(-0.0007499 0.0068306 -0.0018116)
(0.0042362 0.0091127 0.00010827)
(0.0043312 0.007317 -0.00010198)
(0.0035287 0.010704 -0.0005175)
(-0.0077096 0.0045269 -0.0022294)
(-0.0044215 0.0067204 -0.00024625)
(-0.0043059 0.0048547 -0.00066664)
(-0.0050047 0.007865 -0.00074905)
(-0.012227 0.0025996 -0.0023375)
(-0.010335 0.0047085 -0.00056498)
(-0.010176 0.0028587 -0.0010589)
(-0.0107 0.0055218 -0.0007278)
(-0.014494 0.00080488 -0.0018813)
(-0.013847 0.002748 -0.00075148)
(-0.013632 0.0010824 -0.0011442)
(-0.013991 0.0033367 -0.00041022)
(-0.014145 -0.00087013 -0.0013116)
(-0.014764 0.00035671 -0.00071534)
(-0.014582 -0.00057704 -0.00075819)
(-0.014829 0.00056695 -0.00030724)
(-0.011494 -0.002169 -0.0010473)
(-0.013292 -0.0013606 -0.00071838)
(-0.01321 -0.0018628 -0.00083901)
(-0.013326 -0.0016513 -0.00045364)
(-0.0081279 -0.002706 -0.00084993)
(-0.01043 -0.0024837 -0.00068598)
(-0.010382 -0.002803 -0.00083591)
(-0.010248 -0.00288 -0.00036725)
(-0.004396 -0.0025205 -0.00062052)
(-0.0068273 -0.0026742 -0.00064917)
(-0.0067502 -0.002849 -0.0007316)
(-0.0064176 -0.0031444 -0.00030138)
(-0.0011483 -0.0018536 -0.00029552)
(-0.0032652 -0.0023829 -0.00055159)
(-0.0031566 -0.0024505 -0.0004752)
(-0.002682 -0.0027734 -0.00018407)
(0.00078603 -0.00084418 5.4318e-05)
(-0.00034416 -0.0016576 -0.00038756)
(-0.00024197 -0.0016235 -0.00011942)
(0.00035138 -0.0017959 6.6375e-05)
(0.0016749 8.0276e-05 0.00027379)
(0.0014054 -0.0006091 -0.00014409)
(0.0014602 -0.00054233 0.0001855)
(0.0020387 -0.00065198 0.00015197)
(0.0017793 0.00021411 5.8095e-05)
(0.0018318 0.00027772 0.0002414)
(0.0023307 0.00032997 0.00022566)
(-0.00037801 0.0073293 1.0339e-06)
(0.0047382 0.0070817 -0.00079388)
(0.0047389 0.0070826 0.0007967)
(-0.0074179 0.0054847 1.0515e-06)
(-0.0039466 0.0051423 -0.00076911)
(-0.0039459 0.005143 0.00077181)
(-0.011939 0.0038371 1.212e-06)
(-0.0099146 0.0035463 -0.00075133)
(-0.0099138 0.0035469 0.000754)
(-0.014139 0.0018869 1.2832e-06)
(-0.013334 0.0020643 -0.00072418)
(-0.013333 0.0020648 0.00072698)
(-0.013818 -1.0455e-05 9.0797e-07)
(-0.014268 0.00022951 -0.00049492)
(-0.014268 0.00023133 0.0004959)
(-0.011389 -0.0013173 6.9512e-07)
(-0.012975 -0.0010105 -0.00034476)
(-0.012975 -0.0010099 0.00034698)
(-0.0080795 -0.001966 6.6605e-07)
(-0.010314 -0.0019465 -0.00023671)
(-0.010314 -0.0019456 0.00023842)
(-0.0046285 -0.0019559 6.0588e-07)
(-0.006913 -0.0021228 -0.00017083)
(-0.0069126 -0.0021223 0.0001727)
(-0.0015096 -0.0015426 9.2568e-07)
(-0.0034751 -0.0018382 -0.00016541)
(-0.0034746 -0.0018375 0.00016747)
(0.00061068 -0.00083551 1.3376e-06)
(-0.00064502 -0.0012581 -0.00015434)
(-0.00064459 -0.0012573 0.00015672)
(0.0014453 -0.00011411 1.4966e-06)
(0.001098 -0.00039829 -0.00010665)
(0.0010985 -0.00039741 0.00010985)
(0.0014848 0.0002224 -5.2949e-05)
(0.0014853 0.00022399 5.5206e-05)
(0.00021156 0.0054586 -0.00099963)
(0.0051763 0.0053255 -0.0018995)
(0.0053183 0.0054436 -0.00049108)
(-0.0066663 0.0038948 -0.00083043)
(-0.0035153 0.0039113 -0.0014245)
(-0.0033785 0.0038908 -0.00032567)
(-0.011163 0.0024938 -0.00075635)
(-0.009508 0.0027327 -0.0010565)
(-0.0093761 0.0025377 -0.00019876)
(-0.013457 0.00092299 -0.00070454)
(-0.012873 0.001668 -0.00075232)
(-0.012691 0.0012641 -0.00013716)
(-0.013316 -0.00049262 -0.00056303)
(-0.013883 0.00027841 -0.00033882)
(-0.01368 -0.00021833 -0.00019392)
(-0.011271 -0.0014305 -0.0003733)
(-0.012748 -0.00062818 -3.1999e-05)
(-0.012616 -0.0010874 -0.00013275)
(-0.0080217 -0.0019347 -0.00023975)
(-0.010199 -0.0013243 0.00023968)
(-0.010139 -0.0017957 -4.4902e-05)
(-0.0046668 -0.0018883 -0.0002199)
(-0.0069281 -0.0015103 0.00033533)
(-0.0069114 -0.0019645 -1.1619e-05)
(-0.0016684 -0.0015083 -0.00027519)
(-0.0035668 -0.0012718 0.0002278)
(-0.0035682 -0.0016984 -4.3904e-05)
(0.00041977 -0.00089141 -0.00033274)
(-0.00080626 -0.00086654 8.0546e-05)
(-0.0008196 -0.0012681 -9.0862e-05)
(0.0012244 -0.00022277 -0.00032206)
(0.00090174 -0.00024362 -0.00010249)
(0.00087786 -0.00057523 -0.00015298)
(0.0013133 0.00018193 -0.00018639)
(0.0012925 -1.7803e-06 -0.00015391)
(0.0004799 0.0037372 -0.002365)
(0.0053132 0.0035203 -0.0035181)
(0.0055896 0.0036468 -0.0021114)
(-0.0064313 0.0026677 -0.0017321)
(-0.0033836 0.0025849 -0.002582)
(-0.0031191 0.0025942 -0.0015097)
(-0.010943 0.0017541 -0.0012054)
(-0.0093925 0.0018183 -0.0018149)
(-0.0091489 0.0016698 -0.00097641)
(-0.013346 0.00080437 -0.00060613)
(-0.01277 0.0011449 -0.0011415)
(-0.012482 0.00082337 -0.00048355)
(-0.013188 -4.1814e-05 7.1341e-06)
(-0.013815 0.00026859 -0.00026613)
(-0.013542 -8.0538e-05 8.0251e-05)
(-0.011191 -0.00065058 0.0004519)
(-0.012701 -0.00031479 0.00031804)
(-0.012524 -0.0005725 0.00045371)
(-0.0080046 -0.0010199 0.00069447)
(-0.010163 -0.00078478 0.0007876)
(-0.010064 -0.0010469 0.00074136)
(-0.0046813 -0.0009958 0.00068109)
(-0.0069331 -0.00092688 0.00092958)
(-0.0069167 -0.0011974 0.00082797)
(-0.0017486 -0.00071048 0.00050314)
(-0.0036002 -0.00074733 0.00074982)
(-0.003632 -0.00099721 0.00071165)
(0.00031373 -0.00028073 0.00024891)
(-0.00085956 -0.00046376 0.00046611)
(-0.00091903 -0.0006856 0.00053593)
(0.0011006 0.00014595 1.8087e-05)
(0.00084285 -6.3741e-05 6.5813e-05)
(0.00076951 -0.00021096 0.00026825)
(0.0012678 0.00019314 -0.00019181)
(0.0012061 0.00017269 5.3945e-05)
(0.00047988 0.0023679 -0.0037349)
(0.0051759 0.0019025 -0.0053237)
(0.0055895 0.0021139 -0.0036444)
(-0.0064315 0.0017357 -0.0026648)
(-0.0035157 0.001428 -0.0039091)
(-0.0031192 0.0015131 -0.0025912)
(-0.010943 0.0012093 -0.001751)
(-0.0095082 0.0010606 -0.0027297)
(-0.0091491 0.00097998 -0.0016665)
(-0.013346 0.00060989 -0.00080114)
(-0.012873 0.00075664 -0.0016647)
(-0.012482 0.00048721 -0.00082002)
(-0.013189 -3.725e-06 4.5083e-05)
(-0.013883 0.00034048 -0.00027709)
(-0.013542 -7.6388e-05 8.3409e-05)
(-0.011191 -0.00044889 0.00065346)
(-0.012747 3.5373e-05 0.00063129)
(-0.012524 -0.00045078 0.00057531)
(-0.0080044 -0.00069172 0.0010225)
(-0.010199 -0.00023676 0.0013271)
(-0.010064 -0.00073873 0.0010494)
(-0.0046811 -0.0006784 0.00099834)
(-0.0069281 -0.00033239 0.001513)
(-0.0069165 -0.00082552 0.0012)
(-0.0017485 -0.00050067 0.00071282)
(-0.0035667 -0.0002252 0.0012742)
(-0.0036319 -0.00070919 0.00099954)
(0.00031378 -0.00024683 0.00028305)
(-0.00080615 -7.8185e-05 0.00086887)
(-0.00091898 -0.00053385 0.00068778)
(0.0011007 -1.6583e-05 -0.00014408)
(0.00090205 0.00010438 0.00024561)
(0.00076961 -0.00026645 0.00021308)
(0.0013134 0.00018802 -0.00018058)
(0.0012061 -5.2966e-05 -0.00017134)
(0.00021073 0.0010038 -0.0054564)
(0.0047374 0.00079748 -0.0070792)
(0.0053176 0.00049446 -0.0054416)
(-0.0066664 0.00083502 -0.003892)
(-0.0039473 0.00077314 -0.0051391)
(-0.003379 0.00032933 -0.0038882)
(-0.011163 0.00076104 -0.0024905)
(-0.0099149 0.00075584 -0.0035423)
(-0.0093761 0.00020295 -0.0025342)
(-0.013457 0.00070874 -0.0009196)
(-0.013334 0.00072872 -0.0020599)
(-0.012691 0.00014108 -0.0012605)
(-0.013316 0.00056654 0.00049566)
(-0.014268 0.00049671 -0.0002277)
(-0.013679 0.00019701 0.00022148)
(-0.01127 0.00037636 0.0014334)
(-0.012975 0.00034876 0.0010148)
(-0.012615 0.00013476 0.0010909)
(-0.0080221 0.00024283 0.0019376)
(-0.010314 0.00023952 0.0019491)
(-0.010139 4.7734e-05 0.0017986)
(-0.0046668 0.00022289 0.0018909)
(-0.0069128 0.00017378 0.0021255)
(-0.0069116 1.4635e-05 0.0019671)
(-0.0016682 0.00027773 0.0015108)
(-0.0034748 0.00016794 0.0018405)
(-0.0035681 4.6402e-05 0.0017009)
(0.00042004 0.0003349 0.00089341)
(-0.00064467 0.00015633 0.0012603)
(-0.00081939 9.3044e-05 0.0012702)
(0.001225 0.00032419 0.00022435)
(0.0010984 0.00010887 0.0004004)
(0.00087833 0.00015489 0.00057691)
(0.0014853 5.4484e-05 -0.00022136)
(0.0012928 0.00015586 2.8318e-06)
(-0.0003789 2.1201e-06 -0.0073261)
(0.0042347 -0.00010627 -0.0091081)
(0.004738 -0.00079424 -0.0070799)
(-0.0074187 2.7216e-06 -0.0054804)
(-0.0044227 0.00024995 -0.0067164)
(-0.0039468 -0.00076887 -0.0051395)
(-0.011939 3.1211e-06 -0.0038321)
(-0.010335 0.0005689 -0.0047032)
(-0.0099144 -0.00075018 -0.0035427)
(-0.014139 2.811e-06 -0.0018822)
(-0.013847 0.00075549 -0.0027425)
(-0.013333 -0.00072303 -0.0020605)
(-0.013818 2.5577e-06 1.4774e-05)
(-0.014763 0.00071878 -0.00035202)
(-0.014267 -0.00049403 -0.00022702)
(-0.01139 2.713e-06 0.001321)
(-0.013292 0.0007227 0.0013651)
(-0.012975 -0.00034382 0.0010142)
(-0.0080784 2.6063e-06 0.001969)
(-0.010429 0.00068977 0.0024874)
(-0.010314 -0.00023534 0.0019486)
(-0.0046279 2.0645e-06 0.0019584)
(-0.0068269 0.00065211 0.0026772)
(-0.0069121 -0.00017031 0.0021249)
(-0.0015091 1.3155e-06 0.0015449)
(-0.0032647 0.00055414 0.0023854)
(-0.003474 -0.00016526 0.0018399)
(0.00061085 1.0191e-06 0.00083812)
(-0.00034393 0.00038951 0.0016597)
(-0.00064412 -0.00015469 0.0012596)
(0.001446 9.3644e-07 0.00011649)
(0.0014059 0.00014666 0.00061165)
(0.001099 -0.00010734 0.0004)
(0.0017802 -5.3281e-05 -0.00021118)
(0.0014859 -5.3909e-05 -0.00022116)
(-0.00075182 0.0018135 -0.006826)
(0.0043292 0.00010378 -0.0073138)
(0.0035267 0.00051707 -0.010701)
(-0.0077111 0.0022325 -0.0045226)
(-0.0043073 0.00066956 -0.0048506)
(-0.0050061 0.00075357 -0.0078596)
(-0.012227 0.0023405 -0.0025944)
(-0.010177 0.0010614 -0.0028538)
(-0.010701 0.00073299 -0.005515)
(-0.014494 0.0018846 -0.0007995)
(-0.013631 0.0011473 -0.0010768)
(-0.013991 0.00041485 -0.0033302)
(-0.014144 0.0013151 0.00087417)
(-0.014582 0.00076152 0.00058137)
(-0.014828 0.00031077 -0.00056185)
(-0.011493 0.0010508 0.0021722)
(-0.013209 0.00084184 0.0018667)
(-0.013326 0.00045933 0.0016568)
(-0.0081272 0.00085272 0.0027091)
(-0.010381 0.00083796 0.0028066)
(-0.010247 0.00037117 0.002885)
(-0.0043955 0.00062288 0.002523)
(-0.0067499 0.00073354 0.0028517)
(-0.0064169 0.00030428 0.0031482)
(-0.0011477 0.00029761 0.0018557)
(-0.0031563 0.00047715 0.0024533)
(-0.0026813 0.00018645 0.0027767)
(0.0007862 -5.1981e-05 0.00084637)
(-0.00024194 0.00012102 0.0016256)
(0.0003515 -6.4535e-05 0.0017985)
(0.0016757 -0.00027092 -7.9263e-05)
(0.0014607 -0.00018307 0.00054496)
(0.0020393 -0.00014867 0.00065543)
(0.0018329 -0.00023846 -0.0002777)
(0.002332 -0.00022071 -0.00032693)
(-0.00018352 0.0058205 0.0005633)
(0.0048369 0.0072586 0.0016704)
(0.0047742 0.0056936 0.001743)
(0.0041666 0.0087996 0.0025181)
(-0.0071108 0.0037948 -0.00010385)
(-0.0038285 0.0052828 0.0011555)
(-0.0038736 0.0037656 0.00075474)
(-0.0044208 0.0063729 0.0016874)
(-0.011512 0.0020292 -0.00055213)
(-0.009755 0.0035686 0.00073396)
(-0.0097645 0.002167 -3.0855e-05)
(-0.010193 0.0042343 0.0009727)
(-0.01364 0.00031469 -0.00063413)
(-0.013119 0.0019156 0.00043279)
(-0.013132 0.00082164 -0.00059379)
(-0.013422 0.0022838 0.00052159)
(-0.013563 -0.0012084 -0.00064601)
(-0.014087 -0.00010884 0.0002082)
(-0.014124 -0.00043402 -0.00082018)
(-0.014305 8.6803e-05 0.0001709)
(-0.0113 -0.0023105 -0.00081317)
(-0.012893 -0.0013908 -8.8759e-05)
(-0.012925 -0.0015509 -0.0010625)
(-0.013025 -0.0017603 -0.00053231)
(-0.0079226 -0.0027926 -0.00087067)
(-0.010266 -0.002294 -0.00029379)
(-0.010251 -0.0023086 -0.0013063)
(-0.010173 -0.0028035 -0.00083424)
(-0.0044154 -0.0026426 -0.00072267)
(-0.0068351 -0.0024653 -0.000368)
(-0.0067453 -0.0023497 -0.0012563)
(-0.0064892 -0.0029978 -0.00090461)
(-0.0012879 -0.0020999 -0.00041988)
(-0.0033655 -0.002207 -0.00027509)
(-0.0032212 -0.0020001 -0.00097139)
(-0.0028549 -0.0026765 -0.00072628)
(0.00065085 -0.0012573 -5.2835e-05)
(-0.00054195 -0.0016638 -0.00013107)
(-0.00037556 -0.0013435 -0.00054585)
(7.9047e-05 -0.0018669 -0.00037943)
(0.0014668 -0.00040572 0.0002139)
(0.0011536 -0.00081796 7.8766e-05)
(0.0012956 -0.00047489 -6.2432e-05)
(0.0017502 -0.00086999 -4.1117e-05)
(0.0015379 -4.2577e-05 0.00022619)
(0.0016713 0.00014998 0.00021029)
(0.0020751 1.7589e-06 0.00018567)
(0.00021275 0.0054605 0.0010027)
(0.005319 0.0054448 0.00049435)
(0.0051773 0.0053268 0.0019026)
(-0.0066638 0.0038964 0.00083336)
(-0.0033778 0.0038922 0.00032888)
(-0.0035144 0.0039127 0.0014272)
(-0.011162 0.0024952 0.00075918)
(-0.0093754 0.0025383 0.00020161)
(-0.0095071 0.0027334 0.0010595)
(-0.013457 0.00092404 0.00070702)
(-0.012691 0.0012647 0.00014003)
(-0.012873 0.0016688 0.00075535)
(-0.013316 -0.00049122 0.00056541)
(-0.013679 -0.00021726 0.00019683)
(-0.013883 0.00028015 0.00034014)
(-0.01127 -0.001429 0.00037575)
(-0.012615 -0.0010871 0.00013397)
(-0.012747 -0.00062746 3.5153e-05)
(-0.0080215 -0.0019335 0.00024217)
(-0.010138 -0.0017951 4.7812e-05)
(-0.010199 -0.0013237 -0.00023756)
(-0.0046655 -0.0018869 0.00022248)
(-0.006911 -0.0019632 1.4907e-05)
(-0.0069277 -0.0015095 -0.00033323)
(-0.0016675 -0.0015069 0.00027786)
(-0.0035676 -0.0016977 4.6975e-05)
(-0.0035661 -0.001271 -0.0002254)
(0.00042063 -0.00088961 0.00033556)
(-0.00081917 -0.0012673 9.3871e-05)
(-0.00080578 -0.00086557 -7.7811e-05)
(0.0012254 -0.00022087 0.0003251)
(0.00087834 -0.00057411 0.00015616)
(0.00090239 -0.00024218 0.00010544)
(0.001293 -9.4662e-07 0.00015696)
(0.0013138 0.00018268 0.00018967)
(0.00075546 0.0040571 1.3885e-06)
(0.0057317 0.0038166 -0.00080234)
(0.0057319 0.0038165 0.00080546)
(-0.0061809 0.0028383 1.3502e-06)
(-0.0029822 0.00275 -0.00059858)
(-0.0029822 0.0027498 0.00060145)
(-0.010674 0.0017269 1.5151e-06)
(-0.009017 0.0018128 -0.00041216)
(-0.009017 0.0018129 0.00041517)
(-0.01293 0.00049511 1.3333e-06)
(-0.0123 0.00094279 -0.00021028)
(-0.0123 0.00094287 0.00021338)
(-0.012749 -0.00057753 9.0987e-07)
(-0.013339 -0.00010144 0.00013441)
(-0.013339 -0.00010124 -0.00013183)
(-0.011031 -0.001258 1.1842e-06)
(-0.012393 -0.00071878 0.00027881)
(-0.012392 -0.0007193 -0.00027637)
(-0.0079481 -0.0016438 1.5835e-06)
(-0.010004 -0.0012004 0.00037252)
(-0.010003 -0.0012 -0.0003696)
(-0.0046113 -0.0016119 1.5713e-06)
(-0.0069003 -0.0013583 0.00040523)
(-0.0069002 -0.0013581 -0.0004024)
(-0.0017551 -0.0013195 1.6216e-06)
(-0.0036336 -0.0011601 0.00036196)
(-0.0036336 -0.0011598 -0.00035899)
(0.00027897 -0.00086476 1.6004e-06)
(-0.00093248 -0.0008672 0.00030107)
(-0.00093238 -0.00086701 -0.00029809)
(0.0010356 -0.00034069 1.5765e-06)
(0.00074559 -0.00040384 0.00021137)
(0.00074569 -0.0004038 -0.0002083)
(0.0011853 -2.5414e-05 0.00010013)
(0.0011852 -2.4973e-05 -9.7274e-05)
(0.0010175 0.0025795 -0.001332)
(0.0058659 0.0022681 -0.0022656)
(0.0060011 0.0021868 -0.00073635)
(-0.0059555 0.0017894 -0.0009471)
(-0.0028547 0.0016466 -0.0016434)
(-0.0027265 0.0015597 -0.00053335)
(-0.010462 0.0010686 -0.00058409)
(-0.0089055 0.0010934 -0.00109)
(-0.0087901 0.0010051 -0.00035272)
(-0.01275 0.00028254 -0.00014121)
(-0.012195 0.00056268 -0.00055926)
(-0.012085 0.00049101 -0.00018182)
(-0.012565 -0.00036954 0.00028516)
(-0.013269 -0.00013572 0.00013881)
(-0.013193 -2.9322e-05 -9.0705e-06)
(-0.010928 -0.00076831 0.00054275)
(-0.012348 -0.00051587 0.00051924)
(-0.012302 -0.00032436 0.0001686)
(-0.0079561 -0.0010202 0.00067071)
(-0.0099643 -0.00079235 0.00079504)
(-0.0099235 -0.00058249 0.00026301)
(-0.0046259 -0.0010062 0.00066592)
(-0.0069003 -0.00089618 0.00089857)
(-0.0068945 -0.0006964 0.00029629)
(-0.0018201 -0.0007986 0.00057068)
(-0.0036638 -0.00077372 0.00077597)
(-0.0036931 -0.00057296 0.00026021)
(0.00018637 -0.0004889 0.0004283)
(-0.00097855 -0.00059353 0.00059544)
(-0.0010232 -0.00038024 0.00021024)
(0.00093532 -0.00013932 0.00025919)
(0.00069624 -0.00032192 0.00032373)
(0.00064714 -9.9301e-05 0.00012656)
(0.0011443 -7.538e-05 7.6304e-05)
(0.0011055 0.00012853 7.2391e-05)
(0.0010174 0.0013351 -0.0025767)
(0.0057313 0.00080506 -0.0038144)
(0.006001 0.00073909 -0.0021842)
(-0.0059557 0.00095065 -0.0017862)
(-0.0029825 0.00060214 -0.002747)
(-0.0027267 0.00053701 -0.0015564)
(-0.010462 0.00058759 -0.0010652)
(-0.009017 0.00041578 -0.0018094)
(-0.0087902 0.00035633 -0.0010016)
(-0.01275 0.00014468 -0.00027926)
(-0.0123 0.00021388 -0.00093933)
(-0.012085 0.00018544 -0.00048751)
(-0.012565 -0.00028226 0.00037242)
(-0.013338 -0.00013104 0.00010534)
(-0.013193 1.2076e-05 3.2501e-05)
(-0.010928 -0.00054033 0.00077088)
(-0.012392 -0.00027552 0.00072273)
(-0.012302 -0.00016619 0.00032699)