/*--------------------------------*- C++ -*----------------------------------*\
  =========                 |
  \\      /  F ield         | OpenFOAM: The Open Source CFD Toolbox
   \\    /   O peration     | Website:  https://openfoam.org
    \\  /    A nd           | Version:  8
     \\/     M anipulation  |
\*---------------------------------------------------------------------------*/
FoamFile
{
    version     2.0;
    format      ascii;
    class       volScalarField;
    location    "0.0475000";
    object      p;
}
// * * * * * * * * * * * * * * * * * * * * * * * * * * * * * * * * * * * * * //

dimensions      [0 2 -2 0 0 0 0];

internalField   nonuniform List<scalar> 
900
(
1326301.99650417
4046149.61691188
6872902.08488731
9757115.85522381
12715871.7449376
15751304.6950481
18866755.1668074
22064848.3244495
25348729.1004193
28721693.7370143
32187256.1696515
35749112.5208586
39411220.6763151
43177734.8218736
47053048.6486511
51041879.1491843
55149130.0276619
59380022.4687716
63739982.303673
68234937.8992562
72871109.3330014
77655133.8293002
82593860.2466034
87694812.1549893
92965980.677815
98415757.9508331
104053081.592909
109887615.200361
115929736.220992
122190268.621002
128680973.185817
135414510.362612
142404611.325817
149665387.28006
157212616.887374
165063304.010486
173235666.171177
181748733.347812
190623819.48157
199884217.725281
209554284.003189
219660635.608411
230232561.092021
241302675.56676
252903590.190381
265073098.930739
277852457.775155
291287000.216254
305422575.330722
320312877.952864
336017547.408258
352597965.005946
370120445.29165
388661065.34302
408307860.611589
429138127.731607
451249431.429461
474748999.650042
499755733.528364
526365830.282702
554711350.705463
584938716.937146
617172542.639338
651515180.409747
688058937.658729
726978326.415424
768020530.58912
811035336.947053
855813087.714828
901943890.788749
948709929.195613
995683623.442841
1042309793.30561
1087716043.01306
1131211371.17234
1172210617.06121
1209741784.95429
1243381425.46689
1271866211.60424
1295054488.6131
1310519632.25205
1319597015.69085
1315695605.03916
1304254901.20145
1267332765.65729
1223404787.54938
1120054409.90122
1049805311.06862
960134618.04981
882774935.022605
797847139.353041
717245219.918923
633465050.35185
551010493.113072
467017373.223911
383196016.642572
298560763.042815
213659674.232615
128413743.723402
42775278.3352882
1353851.72704276
4067653.12357587
6898534.76827615
9784961.41688407
12745006.355312
15781184.0174468
18897041.2428239
22095471.3725213
25379640.0770151
28752880.6185369
32218711.73005
35780856.5574241
39443258.8416212
43210071.4889841
47085703.1179654
51074849.4192564
55182424.5524759
59413624.2816245
63773933.7109381
68269237.4138103
72905762.5076373
77690112.9159079
82629211.6521834
87730540.0235682
93002068.1182547
98452207.3379249
104089919.976659
109924853.618205
115967331.629791
122228252.808167
128719360.04165
135453318.448259
142443740.755682
149704934.099979
157252578.293666
165103648.008646
173276298.134079
181789749.467095
190665238.212762
199925890.457089
209596210.66355
219702851.600227
230275120.420083
241345108.674411
252946167.237866
265115760.862346
277895125.481475
291329069.297977
305464409.157804
320354426.923386
336058092.978829
352637189.25242
370158563.277295
388698298.324732
408341514.955604
429169435.775972
451278036.616397
474774547.163369
499773794.000555
526379218.813456
554719621.395069
584937956.909876
617158648.163655
651487462.743141
688025419.517807
726896757.86956
767910444.94926
810898030.60922
855637779.431915
901713631.04108
948462508.679451
995417936.384437
1042004007.69145
1087404481.99261
1130898242.4828
1171893343.45548
1209438018.971
1243096869.21429
1271594531.27047
1294819208.54405
1310314968.61139
1319419563.51458
1315550082.79325
1304137308.95759
1267248212.8952
1223394795.12853
1120189073.64151
1049938904.54987
960269684.135003
882876218.472739
797936168.400108
717331070.140828
633539769.009891
551067345.618833
467068234.759256
383232772.392708
298586361.99446
213674463.296939
128397099.787153
42607884.9991267
1352250.40284272
4076606.43067747
6915290.3156307
9803514.84109051
12764588.5000536
15801348.0056664
18917534.2835546
22116198.4548892
25400557.5491128
28773969.5204235
32239965.9710882
35802279.3388162
39464853.4650999
43231846.81073
47107668.0358902
51096997.8136158
55204754.7289758
59436136.3259937
63796643.6923675
68292146.0647496
72928865.4136241
77713398.0920177
82652696.9153878
87754227.650591
93025944.876284
98476270.8055004
104114181.253423
109949310.631692
115991961.258937
122253061.475363
128744355.707666
135478490.70767
142469044.566819
149730397.140554
157278202.472959
165129389.538516
173302099.744842
181815643.662373
190691217.041046
199951862.742648
209622145.767888
219728756.686955
230300936.472301
241370626.37075
252971417.85486
265140720.766189
277919626.368726
291352822.569174
305487450.847772
320376635.580855
336079019.860989
352656554.499287
370176377.168715
388714193.298832
408354420.24827
429179315.687969
451284723.492373
474776999.513843
499770402.194364
526370105.068758
554704066.577278
584913337.313398
617122259.120728
651438298.374894
687958635.6049
726801620.994037
767785446.904806
810743386.63871
855448606.89721
901490194.264684
948213471.492136
995147550.934854
1041714615.8182
1087105137.27832
1130597180.33378
1171597231.22182
1209153817.55182
1242831634.87525
1271351517.07034
1294608207.28084
1310132646.08979
1319274023.91879
1315431199.45502
1304070445.39864
1267198106.98539
1223428740.78387
1120348283.47651
1050095427.52682
960399060.959526
882999637.503705
798040660.858546
717423774.657424
633618612.971789
551136815.103815
467124399.784445
383278999.19368
298621460.479337
213698116.592176
128411441.890155
42651682.1367669
1345701.0792367
4076241.00384542
6915142.00818831
9803475.28220966
12764646.8041868
15801520.9753899
18917739.1016837
22116376.4095444
25400670.6130715
28773992.6489969
32239886.2863796
35802089.1006944
39464547.6285867
43231424.5902193
47107126.5549493
51096325.6560067
55203941.3805891
59435176.1867844
63795534.6081289
68290880.3032624
72927428.7203112
77711775.0339576
82650884.331955
87752215.7288421
93023713.3857543
98473804.9723995
104111473.09889
109946342.591354
115988706.132065
122249503.790037
128740483.992621
135474275.03365
142464444.35933
149725400.531236
157272790.998101
165123507.616099
173295689.768395
181808693.319516
190683689.102696
199943672.623678
209613235.710328
219719096.545722
230290429.243036
241359126.340114
252958869.617693
265127074.22711
277904697.12115
291336401.564903
305469467.311684
320356938.956376
336057261.346877
352632471.466721
370149902.234746
388684902.770602
408321673.917254
429142853.318974
451244411.949883
474731888.574498
499719566.109999
526313298.880146
554640732.029629
584841613.347067
617040258.148516
651345604.420907
687850551.493407
726672985.149781
767633972.612932
810570133.722119
855250601.585163
901269575.606978
947975957.170252
994897348.247406
1041455619.08518
1086843603.68829
1130340404.7548
1171351607.727
1208924686.11153
1242625374.47343
1271172225.31057
1294463625.74589
1310021332.52712
1319206370.28335
1315399492.72572
1304101095.29251
1267264575.9671
1223595528.65665
1120487263.47412
1050241485.73805
960523146.179714
883116466.323292
798142094.006363
717513659.483049
633695836.283266
551204821.982042
467180497.140215
383325370.48121
298657272.832512
213723779.435485
128431269.620266
42683246.6041751
1345696.2536472
4072786.51231261
6900300.65167011
9786610.47274707
12746968.3692359
15783516.8183008
18899469.7226119
22097821.0594224
25381793.9090282
28754764.6305314
32220286.5362498
35782102.509377
39444160.7517809
43210625.981411
47085903.8370271
51074661.0339013
55181816.6890399
59412574.9263939
63772443.0599152
68267280.258535
72903296.9941427
77687086.4563387
82625621.9383599
87726356.8035602
92997227.3499171
98446664.1602862
104083653.591822
109917812.960439
115959426.728381
122219442.432465
128709609.636543
135442543.369514
142431800.492507
149691810.048567
157238211.56901
165087870.775679
173258922.56008
181770753.678686
190644514.459304
199903164.173082
209571312.411473
219675693.738839
230245436.057849
241312385.650235
252910296.261501
265076575.107369
277852087.493334
291281464.946923
305412097.470359
320296961.903576
335994354.56096
352566373.751196
370080492.489228
388611821.492083
408244343.076905
429061049.719192
451157945.895716
474640040.350054
499621524.125011
526208923.715718
554529580.245753
584722336.296269
616911531.444484
651207312.53661
687700226.651297
726506273.407144
767450966.310133
810372384.443989
855036709.727252
901041422.446296
947739990.657765
994657218.429489
1041214141.4704
1086607634.76733
1130115895.49123
1171143739.28558
1208738940.85602
1242467367.62906
1271045790.04543
1294376597.33961
1309974366.84074
1319209583.57146
1315451166.89339
1304225085.54857
1267449467.00019
1223894047.70813
1120615785.59786
1050377567.04585
960647934.281296
883227860.896518
798242426.455333
717602481.851187
633773834.437702
551272302.788802
467237435.690085
383371947.785456
298693434.606579
213749765.3379
128448201.437808
42690667.9823742
1334445.18573711
4058878.20091276
6870611.7928466
9753822.7190278
12712855.3883462
15748783.9951737
18864229.637864
22062059.0784562
25345469.6191103
28717842.3485544
32182739.1211858
35743907.8675654
39405297.7638488
43171074.1840731
47045642.1217641
51033664.4661398
55140059.3881275
59370030.7027007
63729087.5291401
68223085.0926065
72858230.0860233
77641113.048124
82578712.3549569
87678476.2172056
92948334.8010929
98396719.5745201
104032618.241464
109865642.050611
115906068.219381
122164848.340531
128653730.742603
135385320.982993
142373165.532027
149631706.95071
157176576.074946
165024620.691929
173193969.229115
181704027.489853
190575928.924626
199832605.660459
209498677.285237
219600884.929656
230168326.701268
241232808.27363
252828134.911748
264991697.069757
277764303.460749
291190553.163398
305317912.923295
320199305.60705
335892928.04676
352460916.310796
369970826.291367
388497628.385639
408125132.769159
428936601.239949
451028013.80557
474504091.748061
499478927.257791
526059547.845477
554373060.290238
584557819.924366
616738263.601055
651025363.775505
687508649.147769
726302727.054067
767236833.399713
810149518.605409
854805518.520752
900804406.436054
947502865.687466
994423439.998099
1040986862.83695
1086393031.43778
1129918946.95903
1170969054.00181
1208591676.04145
1242352506.60836
1270967529.54195
1294342041.29526
1309986526.17325
1319278326.00775
1315580195.02948
1304437051.70451
1267745771.22225
1224314459.17536
1120742412.08267
1050507003.47923
960775069.927662
883337063.303178
798344357.085318
717691623.557752
633853670.842785
551340878.588257
467296011.378416
383419755.37195
298730815.831046
213776620.39805
128464881.117598
42694359.4221914
1308085.00098011
4028148.6800099
6823210.38004764
9703306.48420844
12661071.7294177
15696267.5128819
18811000.2274565
22008058.5260755
25290639.1123224
28662137.6522927
32126126.1185861
35686356.9050077
39346779.6268715
43111559.340522
46985099.9805292
50972061.5429605
55077360.9496112
59306200.5827632
63664089.5174137
68156879.676474
72790774.9349971
77572362.8786793
82508623.467529
87607000.5224503
92875419.590038
98322311.0020572
103956661.344252
109788076.975131
115826829.185852
122083869.706973
128570943.559798
135300649.701541
142286525.830069
149543019.279104
157085752.609585
164931562.65839
173098570.430888
181606187.794602
190475535.01941
199729527.038231
209392784.629708
219492045.690409
230056392.089359
241117602.542107
252709503.50776
264869465.373678
277638271.207454
291060496.588903
305183638.000867
320060582.618083
335749483.707228
352312488.54495
369817172.706147
388338453.223965
407960067.518077
428765397.222596
450850371.054607
474319643.824913
499287289.875656
525860540.121725
554166390.645942
584343166.223384
616515499.99473
650794763.5651
687270513.335278
726057526.520737
766986851.640807
809896948.865151
854552782.425058
900555117.197536
947261400.24904
994193202.645709
1040771968.04893
1086198435.90523
1129748771.71825
1170827585.89611
1208483524.08554
1242282081.48353
1270939706.99056
1294362865.26001
1310061546.55101
1319417565.42823
1315792600.38062
1304745114.02116
1268163714.51218
1224869474.7337
1120870671.58304
1050631638.31288
960906463.084768
883446274.54689
798449971.237212
717782611.09329
633936652.545962
551411913.518274
467357288.434456
383469805.574399
298770283.526036
213805155.824249
128483126.597466
42699044.4787898
1259105.6083317
3968901.66065933
6751124.20166994
9629589.86858872
12586775.4523198
15621284.1639476
18735096.7505653
21931083.7965684
25212503.6764088
28582786.1693032
32045516.660566
35604451.0316276
39263538.4351283
43026942.5295696
46899065.4070186
50884564.7413714
54988355.9804028
59215639.0653627
63571920.8279347
68063050.3281199
72695229.482925
77475042.6072682
82409467.5574992
87505944.2750439
92772395.01996
98217246.9142187
103849482.659586
109678704.611044
115715179.390761
121969854.657126
128454469.73477
135181619.374864
142164834.391856
149418557.335007
156958402.621463
164801202.672379
172965070.419234
181469409.717399
190335330.59231
199585741.124555
209245253.759183
219340592.393279
229900834.722465
240957749.213782
252545149.091082
264700381.101595
277464232.491568
290881268.25465
304998961.247575
319870180.310946
335553095.216193
352109836.972528
369607931.970859
388122325.45015
407736804.786004
428534699.282324
450611861.354056
474073098.373528
499032583.190003
525597411.51956
553894594.37017
584062917.022309
616227324.073127
650499157.378205
686968974.212658
725753631.501923
766683873.698564
809597524.239157
854261544.569722
900277124.254675
946999755.655248
993951411.218523
1040555399.22263
1086011005.52027
1129593821.99158
1170709417.5436
1208406145.08915
1242249845.87958
1270957872.07573
1294437527.63915
1310199554.55157
1319632114.87739
1316094335.92613
1305163799.58797
1268718158.3295
1225593265.65409
1121000913.41777
1050760519.02887
961046378.764803
883562180.936217
798563632.693896
717880437.482796
634026567.987056
551489076.677851
467424194.785031
383524625.667032
298813763.726387
213836840.75619
128504143.568163
42705540.3615992
1188009.39323621
3886965.07257986
6661393.09443508
9539981.81235265
12497109.3762077
15530974.2165542
18643761.1033588
21838523.9408024
25118619.4498775
28487519.6029369
31948823.0773743
35506287.644504
39163861.2176575
42925705.3457087
46796219.6666158
50780060.0546907
54882140.2939565
59107657.4981771
63462114.6207663
67951358.3583876
72581589.0899691
77359388.1082758
82291728.394404
87386046.5791931
92650262.609691
98092799.2506244
103722633.329976
109549363.86549
115583254.106396
121835244.6407
128317067.761795
135041315.181063
142021513.414813
149272092.831325
156808660.389048
164648047.843617
172808361.16842
181308985.724681
190171023.283515
199417383.127547
209072662.096703
219163563.756507
229719166.070192
240771244.058033
252353569.91318
264503467.642565
277261742.682973
290672964.933715
304784541.914489
319649334.995723
335325570.038998
351875343.28516
369366088.425161
387872808.892005
407479450.636547
428269148.809565
450337683.496835
473790109.040306
498740816.132048
525296507.360452
553584279.582247
583743662.485799
615899939.489545
650164200.34678
686628213.857122
725412476.497291
766345792.060465
809265247.102858
853940751.003631
899973769.395362
946715979.743889
993690785.604381
1040324042.58477
1085812224.31995
1129430343.4689
1170585968.9456
1208325669.3453
1242217624.74259
1270977605.44599
1294517861.51274
1310343152.03507
1319860917.12008
1316407382.2328
1305612614.82791
1269293632.45939
1226386694.47862
1121112643.57925
1050901231.70862
961182449.807925
883684489.265058
798677774.982576
717982370.309005
634118281.728515
551569251.540455
467493108.288486
383581655.99876
298858943.769136
213869982.84777
128526782.082037
42724257.9068598
)
;

boundaryField
{
    dieWall
    {
        type            zeroGradient;
    }
    outlet
    {
        type            fixedValue;
        value           uniform 0;
    }
    Wire
    {
        type            zeroGradient;
    }
    inlet
    {
        type            fixedValue;
        value           uniform 0;
    }
    back
    {
        type            wedge;
    }
    front
    {
        type            wedge;
    }
}


// ************************************************************************* //
