/*--------------------------------*- C++ -*----------------------------------*\
  =========                 |
  \\      /  F ield         | OpenFOAM: The Open Source CFD Toolbox
   \\    /   O peration     | Website:  https://openfoam.org
    \\  /    A nd           | Version:  8
     \\/     M anipulation  |
\*---------------------------------------------------------------------------*/
FoamFile
{
    version     2.0;
    format      ascii;
    class       surfaceVectorField;
    location    "0.0475000";
    object      Uf_0;
}
// * * * * * * * * * * * * * * * * * * * * * * * * * * * * * * * * * * * * * //

dimensions      [0 1 -1 0 0 0 0];

internalField   nonuniform List<vector> 
1691
(
(0.739672930069621 0.000281054071939301 -1.60935355379094e-18)
(0.561697322159624 0.000947178268960973 1.71280032543811e-19)
(0.739834653178269 0.000184518449918617 -4.66081392461744e-18)
(0.562940942005008 0.000988509707894873 -8.78002696105875e-18)
(0.740009165406618 0.000174314259153481 -7.02132779089857e-18)
(0.563061679948268 0.00099969448511 -1.06679828093979e-17)
(0.740056508371572 0.00018951144873811 -6.30895916964019e-18)
(0.563248439032806 0.00106928618761655 -1.291290495674e-17)
(0.740035820888095 0.000196446128163231 -2.30079044854654e-18)
(0.563203963031539 0.00110856678321309 -8.90120502672203e-18)
(0.739983175994345 0.000202008155714938 2.66126779831493e-18)
(0.563085838221811 0.00113036513315832 4.86668170122286e-19)
(0.739921542228129 0.000205224165957838 8.44192492923459e-18)
(0.562935607128485 0.00114254483410349 1.00390325729963e-17)
(0.739860659014011 0.000206680114563042 1.20845839658137e-17)
(0.562777903389787 0.00114778529728399 2.4014328218637e-17)
(0.739802968633801 0.000208724073814906 2.22815565487749e-17)
(0.562621709751079 0.00115142682675669 2.59845546141869e-17)
(0.739744060803107 0.000212063078861638 2.09566351389347e-17)
(0.562465513617113 0.00115745915317654 3.73602889844024e-17)
(0.739681813747032 0.00021506186647229 -6.47213001411448e-19)
(0.562305558409537 0.00116475354458735 1.68981743772606e-17)
(0.739617369685315 0.000217447990129124 -1.64601184494812e-17)
(0.562141581963367 0.00117010198910358 -2.17814392769083e-17)
(0.73954963932853 0.000220151327690969 -1.21253407813569e-17)
(0.561976138511719 0.00117572017763885 -4.6668115639002e-17)
(0.739479229509959 0.000222104596969223 1.41343120406332e-17)
(0.561804435176335 0.00118189420477219 -2.40554168286409e-18)
(0.739411509177656 0.000223008449824545 2.70886656035568e-17)
(0.561630792688816 0.00118537389302248 2.62003675812816e-17)
(0.739345437343036 0.000224334648794183 -8.82400157886276e-18)
(0.561459616245593 0.00118856427561747 3.84817658448101e-17)
(0.739277755815829 0.000226466249681247 -7.105985584741e-19)
(0.56128424547182 0.00119322278466826 -2.52272627500455e-17)
(0.739209346122261 0.000228918497449126 1.53013222473074e-17)
(0.561106809893492 0.00119898564672724 2.79386062954336e-17)
(0.739136777024544 0.000231209423965253 -6.94257606072727e-18)
(0.56092608641005 0.00120478127866642 -2.37991985663219e-17)
(0.73906043168415 0.000233066798632141 -4.00833223207404e-18)
(0.560738521093984 0.00121011536433787 -1.00681893008821e-17)
(0.738983228388802 0.000235034274901808 2.7586282350881e-18)
(0.560547514633065 0.00121478764633315 -7.75840708908992e-18)
(0.738905031775689 0.000237291655411491 -1.56685052554627e-17)
(0.560354273554181 0.0012205891195022 3.56935515127433e-17)
(0.738823441188022 0.000239022203891232 -1.6841784646435e-17)
(0.560156529856704 0.0012261256581653 -2.75819001769097e-17)
(0.738741950991378 0.00024013460239167 1.7609404584746e-17)
(0.559953672179967 0.00123038253484465 1.00401426124314e-17)
(0.738664335868132 0.000241672488688708 3.80797717907794e-17)
(0.559750941550062 0.00123432193076405 6.48678766726751e-17)
(0.738586485886764 0.000244211436995185 3.7098770885548e-17)
(0.559548351383405 0.00124007036013209 4.00743771841849e-17)
(0.738502552480647 0.000247046247848095 4.7323930386584e-17)
(0.559339679320644 0.00124715529838133 1.01013762754311e-16)
(0.738413776661256 0.000249638197026201 5.29453171361503e-17)
(0.559122813397509 0.00125397614314481 9.16433940117114e-17)
(0.738325080658583 0.000252051715537323 3.51273401751558e-17)
(0.558901711512216 0.00126062582693058 7.49138214980591e-17)
(0.738236483796775 0.000254394533457083 2.27521608831839e-17)
(0.558678837912336 0.00126711541445375 6.26082572040028e-17)
(0.738146330402972 0.000256900924519686 1.95496027159131e-17)
(0.558451814564127 0.00127368489609967 2.696746010764e-17)
(0.738054612012069 0.000260162705793423 2.23488560386444e-17)
(0.558220690345803 0.00128083782075454 4.98248918760856e-17)
(0.737963154420384 0.00026360397454169 3.56903427942125e-17)
(0.557986229192346 0.00129007837607112 3.75102092573329e-17)
(0.73787042711752 0.000266654545272822 5.82994153314925e-17)
(0.55774841370921 0.00129807524157843 1.03110155423183e-16)
(0.737776660619129 0.000270262890199381 4.42882196079839e-17)
(0.557506657944766 0.00130630320474693 8.48929042427503e-17)
(0.737682992123057 0.000274932504888352 -2.14818374822317e-17)
(0.55726166982113 0.0013163603747348 5.28710411453212e-17)
(0.737590523544255 0.000279715221515717 -7.42124277087169e-17)
(0.557014684913448 0.00132828845011761 -1.31622619828062e-16)
(0.737497868688722 0.000284269686731725 -9.51719442560108e-17)
(0.5567652825881 0.00133906703208403 -1.65257195951788e-16)
(0.737405574278619 0.000290142629834578 -1.0152912564509e-16)
(0.556513515432506 0.00135055246578092 -1.23834077488845e-16)
(0.737316582054503 0.00029734234108315 -2.85078888620741e-17)
(0.556261261542328 0.00136594745090021 -1.38042761378827e-16)
(0.737230756526783 0.000304387517471833 3.9955647927713e-17)
(0.556010046989535 0.00138210695075942 8.2375270316056e-17)
(0.737147912040609 0.000311687782785886 2.81965538823568e-17)
(0.555759381132976 0.00139748370408291 8.51257478020209e-17)
(0.737068934038476 0.000322043528853661 4.38775669439362e-17)
(0.555511493847763 0.00141482935019798 2.45174682913589e-17)
(0.737000213474503 0.000334066850868692 5.17072940896995e-17)
(0.555269506605961 0.00144061028055977 1.47073396202238e-16)
(0.736939201071605 0.000345648942470042 2.68434618808102e-17)
(0.555035820746643 0.00146397296046621 1.36014194204045e-16)
(0.736883353078898 0.000359368250294385 1.30564851928296e-17)
(0.554811330190608 0.00148885555203648 -2.46754534720468e-17)
(0.736836673701661 0.000377646160885011 1.54878111846723e-17)
(0.554594490313215 0.00151965664335801 3.43909372914272e-18)
(0.736812250541927 0.000397287810348467 -1.37516053293774e-17)
(0.554397525112518 0.00155999436809215 -9.88383377658416e-18)
(0.736805799753337 0.000416214473717655 -9.68804203240917e-17)
(0.554226175252376 0.0015960588002743 -1.12191393835076e-16)
(0.736821245346605 0.0004405745633718 -4.12475035285414e-17)
(0.554080144947071 0.001634736453137 -1.67104063548855e-16)
(0.736868969345952 0.000472656202655507 -1.85307075675049e-17)
(0.553975277430608 0.00168917160182911 1.38233147149261e-16)
(0.736947425618523 0.000505681096142621 -5.99419278795386e-17)
(0.55391495778189 0.00175374812020146 -5.75554541498822e-17)
(0.737061036701835 0.000538487656018144 -2.20276020818667e-17)
(0.553899256907791 0.00181238686092307 1.37360817131059e-17)
(0.737221244541217 0.000585036264298212 -3.68916956949588e-17)
(0.553956594049044 0.00187723953855938 -2.90371962364566e-17)
(0.737446294809292 0.000640314152951824 -3.95411133495228e-17)
(0.554100432026344 0.00198108740355738 -7.35514685087191e-17)
(0.737730566220544 0.00069149372893058 -3.03910812308222e-17)
(0.554335519215915 0.00207547238469922 -1.01474971795198e-16)
(0.738097847755979 0.000749271356332186 -1.11026206104218e-17)
(0.554687103159451 0.00216742540943469 -3.08468146202141e-17)
(0.738562332329302 0.000830902323411888 -1.36806446646733e-17)
(0.555201561228145 0.00228431135655836 4.0707367911094e-17)
(0.739144234370687 0.000919588074407142 -3.20289806027992e-17)
(0.555888355498345 0.00245356238423409 -3.50240135870056e-17)
(0.739858497311516 0.00100108660596861 -6.60780763894765e-17)
(0.556768165914113 0.00259495782319312 -3.77436730928469e-17)
(0.740744531201089 0.00110696251337027 -4.31212027697047e-17)
(0.557928996902086 0.00274376056378531 -1.77169547320528e-16)
(0.741858630843545 0.00125357024335935 3.95457394903022e-17)
(0.559429547071862 0.00296500963701375 -3.45187886514674e-17)
(0.743309391433559 0.00141953211025429 6.62805959609047e-17)
(0.561360322723206 0.00324700950053395 1.19329140356067e-16)
(0.745325488532454 0.00160647850770189 5.74734159021541e-17)
(0.563908777550097 0.00353599484466164 1.55411211863292e-16)
(0.748101633479182 0.00193768944007601 2.18803877971191e-17)
(0.567513432421067 0.00390482421802359 7.04579677258989e-17)
(0.751838895286107 0.00235852616738346 -8.23971499035925e-18)
(0.572398607364689 0.00464836975245221 -5.64404219128834e-17)
(0.756497266165741 0.00272518744248043 -1.62009703846249e-17)
(0.578623485601549 0.00530290900976859 -4.73376741731341e-17)
(0.762089343479359 0.00310423120483488 -2.71349518889473e-17)
(0.586520011901971 0.00588758355473924 -1.78752481166723e-17)
(0.768534340105414 0.00351966724965317 -5.27052578514779e-17)
(0.596113622040994 0.00655892805315046 -3.44825333537837e-17)
(0.775860687881784 0.00382044396037963 -5.26898574960595e-17)
(0.607246583084707 0.00721177668153001 -1.19914111153838e-16)
(0.784147501684591 0.0039669741617916 -5.50228423420475e-17)
(0.620066541458087 0.00749346307598445 -9.11367579662754e-17)
(0.793421855203585 0.00408963591398255 -4.87750146260107e-17)
(0.634865212360565 0.00763508017334168 -6.26860763017344e-17)
(0.80364161666031 0.00412211768557887 9.85486133287688e-18)
(0.65128423040989 0.00776339140503099 -6.52804784593002e-17)
(0.814781298136093 0.00400098273768958 7.2328488932704e-17)
(0.66933810766266 0.00757406291052072 4.00784929205267e-17)
(0.826770225724206 0.00379679456451201 3.41739777405396e-17)
(0.68901122666711 0.00718831026300756 1.66360574857239e-16)
(0.839559559776559 0.0035051381789062 -4.40932305746538e-17)
(0.7101623031834 0.00667433837515623 -4.60443479153943e-17)
(0.85304071769371 0.00312101215307349 -3.04739037103819e-17)
(0.732415488480593 0.00596977079417005 -1.88032813852195e-16)
(0.867252823369784 0.00270466824432758 -2.22780378241658e-17)
(0.756238414255537 0.00514136993510841 7.4301038952501e-18)
(0.88200110770114 0.00221809146981551 -2.62760672254264e-17)
(0.780585980891741 0.00428341300447194 -5.74697773370616e-17)
(0.897582593376609 0.00171060262749603 -1.88574899790865e-17)
(0.806834392963299 0.0032250962353887 3.22896116238055e-17)
(0.913584380234426 0.00121413269679286 -3.2514232425389e-18)
(0.832931591249359 0.00227444768491184 -9.4405704507262e-18)
(0.930886161817549 0.000783809249090276 3.8342927305276e-18)
(0.862474518934493 0.00126796407536906 3.54811725418936e-17)
(0.948457827357957 0.000329255723000408 -1.55180707970949e-17)
(0.889866718031496 0.000459152974958396 -5.08180280761365e-17)
(0.968604530773619 4.92704882447239e-05 -1.95957728834515e-17)
(0.925162171424309 -0.00055505558747069 -2.67813877393831e-17)
(0.98857289987755 -0.000278821027365688 -1.4941050918875e-17)
(0.953750536835279 -0.00096147154603812 -5.07507786505447e-17)
(1.01151965568061 -4.18173131460719e-05 -2.27497209418923e-17)
(1.00051743578287 -0.00162996291576261 -8.89038635250431e-18)
(1.01079129603058 7.12622849374586e-05 -2.20539357921331e-17)
(1.01791056840326 -2.77509341607598e-05 -6.12367726035685e-17)
(1.01339256287919 8.81169475269753e-05 -1.74119559062752e-17)
(1.01026409356093 -0.000179179016598169 -6.45472102672117e-18)
(1.01351465926412 9.92017771772468e-05 -1.24775933957515e-17)
(1.01672086727184 1.88504749947645e-05 -4.28368491869169e-17)
(1.01442766778375 0.000132034345019557 1.20252623161671e-17)
(1.01344065546216 -6.38840336093757e-06 1.33925437166669e-17)
(1.01417265930924 0.000129395386510581 4.87473969964842e-19)
(1.01510245697936 9.03667009910401e-05 1.52405608656528e-17)
(1.01409137643468 0.000120097653690719 -1.89334746184681e-18)
(1.01297378326688 7.60450886110316e-05 -3.2724795255821e-17)
(1.01350271059091 0.000118692018706213 7.66156997304541e-18)
(1.01261672346776 0.000109185698329699 2.2537838889475e-17)
(1.01288325650478 0.000111299302587189 -1.32680037225807e-19)
(1.01073850715063 0.000104514578441892 5.38439747870502e-18)
(1.01204917119705 9.91022981057134e-05 2.48716291309818e-18)
(1.00944311569642 0.000109509219344268 -4.32269341149226e-18)
(1.01119811519898 8.67402504660803e-05 2.0244125365436e-18)
(1.0075595431124 9.89294397600602e-05 9.86811162557739e-18)
(1.01028769127116 7.18241482855405e-05 -1.74091430502258e-18)
(1.00593124996181 9.05720743283793e-05 -7.73736107630693e-18)
(1.00938882557865 7.15496348785729e-05 4.65982556886506e-19)
(1.00408130217279 7.69286445630696e-05 -4.51589460987576e-21)
(1.00844492626884 0.000156442739959525 3.9653603560243e-19)
(1.00251776725579 7.00977988481918e-05 1.20804703917785e-18)
(1.00086887994992 5.01548869491589e-05 4.22203921975028e-19)
(0.383661834026698 0.0019294193718695 -7.04145639109727e-18)
(0.241890689218422 0.00299430609748821 -1.23085644446399e-18)
(0.384409153933424 0.00202306659732102 -1.4836019598061e-17)
(0.244450985280036 0.003259027185708 -1.30326380693595e-17)
(0.38479740140613 0.00211758878050175 -1.66060758581283e-17)
(0.24476701512703 0.00346031714074925 -1.45175054437882e-17)
(0.384859753275397 0.00222161795838908 -1.55368909985798e-17)
(0.245018160405317 0.00369238336064905 -2.12746142281912e-17)
(0.384735769929384 0.00228090745126261 -6.11057434961841e-18)
(0.244885780270177 0.00382531676421243 -1.80174342929953e-17)
(0.384532556526447 0.00231120694951208 7.90679568168637e-18)
(0.244628862391209 0.00388957042249838 1.32271951995356e-18)
(0.384302884033819 0.00232597349446072 2.57136972294078e-17)
(0.244320899405375 0.00391947761542885 1.94454309554991e-17)
(0.384065427564314 0.00233375720550738 3.80262855991701e-17)
(0.243998075079939 0.00393297650417358 4.86839695535912e-17)
(0.383825313546039 0.0023414412762989 4.11656845579618e-17)
(0.243669970722305 0.00394196068967282 3.34247352986641e-17)
(0.383583061976409 0.0023511998835555 3.33068565240437e-17)
(0.243338749499875 0.00395328992331665 1.02074649157586e-17)
(0.383337792355 0.00236070531584873 -4.33731684186415e-18)
(0.243004446729211 0.003966191301186 4.96888534154287e-18)
(0.383087914523084 0.00236931188023536 -5.21877406832555e-17)
(0.242665496759787 0.0039772706973494 -4.85560343516058e-17)
(0.382833140336076 0.00237825040688468 -3.69443319366375e-17)
(0.242321569356622 0.00398854613309873 -6.53413750451796e-17)
(0.382574596367106 0.00238585132122859 9.70980182938789e-18)
(0.241971794657683 0.004000135415181 3.37489117948116e-18)
(0.38231296227663 0.00239170099460423 3.76629571802741e-17)
(0.241617489377409 0.00400861367341602 1.74578622948894e-17)
(0.382047544072852 0.00239825202165392 2.20434988763403e-17)
(0.241259020298026 0.0040166774297724 4.28661464537658e-17)
(0.381777683672528 0.0024063714075215 3.56662201044445e-18)
(0.240893893007193 0.00402665951429071 -1.05006160603107e-17)
(0.381503638705952 0.00241524932770682 -1.13876662545051e-17)
(0.240523758842288 0.00403801214119749 1.80665308079125e-17)
(0.381223639769646 0.00242391949782143 -2.6963866670504e-17)
(0.240147955206951 0.00404972665755556 -5.11103571624719e-17)
(0.380937144989202 0.00243193454810454 -1.38479930185266e-17)
(0.239764129116104 0.00406082421193073 -1.81851797169797e-17)
(0.380645151379871 0.0024402135540787 2.53683999873294e-17)
(0.239373091673741 0.00407125779598127 -1.62610193736745e-17)
(0.380348240243481 0.00244897773352582 2.37545091628525e-17)
(0.238975883898852 0.00408288111851982 4.05528518227397e-17)
(0.380045222057324 0.00245682598105034 -5.44068304771021e-19)
(0.238571845909158 0.00409433628005971 9.52212891362746e-18)
(0.379736814391315 0.0024637240599358 5.75825718523828e-17)
(0.238159656490346 0.00410418310587742 1.82761745263126e-17)
(0.379424470197624 0.00247158304236282 6.68925976113002e-17)
(0.237741040187877 0.00411371237495423 9.18205698486113e-17)
(0.379106849308736 0.00248144245687582 1.04382293873156e-16)
(0.23731650835758 0.00412567198004013 6.73370193206204e-17)
(0.378781213891507 0.00249206241795621 1.45630577907674e-16)
(0.236883573044712 0.00413960335520266 1.84241237804696e-16)
(0.378447612932439 0.00250244858570784 1.13761590464435e-16)
(0.236440665742674 0.00415342601173323 1.89669666502745e-16)
(0.378108268230226 0.00251263564133801 1.02574907027782e-16)
(0.235989448980395 0.00416694490167446 1.49009205817514e-16)
(0.377763136202888 0.00252281302321891 6.68575557874427e-17)
(0.235531233878604 0.00418039962884389 1.2795405755032e-16)
(0.377411017840669 0.002533504264428 5.74290917103326e-17)
(0.235064256208569 0.00419406299873155 4.87414355129977e-17)
(0.377052183125547 0.00254587123216134 6.50795532797749e-17)
(0.23458802231857 0.00420886780558623 5.57128102017451e-17)
(0.376688249422343 0.00255881833115861 1.05343863969455e-16)
(0.2341043381221 0.00422608507426402 6.08206583456672e-17)
(0.376317597657618 0.00257127477149363 1.29858500561637e-16)
(0.233613167400053 0.00424229978939066 1.72917311672327e-16)
(0.37593997166364 0.00258509022328278 9.35164932725608e-17)
(0.233112441532624 0.00425886337023416 1.21518473381915e-16)
(0.375557105904571 0.00260127507049039 -5.79800414003788e-17)
(0.232603213545968 0.00427811295150022 4.13619156485505e-17)
(0.375170296482089 0.00261800601754584 -2.23201573821096e-16)
(0.232088213548596 0.00429978390068949 -2.69044277878756e-16)
(0.374777944960365 0.00263465508079415 -1.94053520227045e-16)
(0.231566694503141 0.00432047890933699 -3.07012385285095e-16)
(0.374380749880633 0.00265428581126718 -1.60558904915923e-16)
(0.231036927975683 0.00434250139245753 -2.47217173889263e-16)
(0.373982507413813 0.00267695243417738 -2.63727443480021e-17)
(0.230502470812877 0.00436961154924274 -1.48660553980332e-16)
(0.373583730737705 0.00269975088574142 1.27787778970773e-16)
(0.229966852760389 0.00439825825514659 1.84356886890446e-16)
(0.373183666008033 0.00272359840959503 8.13611702917708e-17)
(0.229428336961541 0.00442609048252272 9.10211852495768e-17)
(0.372785232311443 0.00275413400198204 1.28391801146657e-16)
(0.228886822571042 0.00445775614536501 4.84020069671445e-17)
(0.372396521118375 0.00278862948188823 2.31790320060173e-16)
(0.22835137406466 0.00449971371159762 2.25875911828712e-16)
(0.372016105245157 0.00282286568221658 8.400408863509e-17)
(0.227826502998 0.00454014537408227 2.85606163745353e-16)
(0.37164404008344 0.00286212867693368 -3.4294508231245e-17)
(0.22730930400439 0.00458254434568165 -6.12065757309075e-17)
(0.371288821508956 0.00291141206439202 -2.20769954373691e-17)
(0.226802528950782 0.0046343600365023 8.76304435805294e-18)
(0.370964227509423 0.00296418717958475 -1.08976159582596e-16)
(0.226325149601098 0.00469789380835976 -8.34506151789138e-17)
(0.370669228566033 0.00301634819361733 -1.82848519092086e-16)
(0.225883917648493 0.00475758982497712 -2.9426582980291e-16)
(0.370411371373906 0.0030806115248797 1.38468124482651e-17)
(0.22547402004386 0.00482151374315971 -2.40081449477754e-16)
(0.370210343320735 0.0031617929385309 9.85876744119818e-17)
(0.225118059061533 0.00490718981282773 2.07267948000337e-16)
(0.370076529833974 0.00324575925127142 1.66177776168027e-17)
(0.224839753342322 0.00500713237926975 -1.03210142824745e-17)
(0.370016699178016 0.0033306049313963 6.58492880373905e-18)
(0.224642316951617 0.00509955542252037 1.25585857013409e-16)
(0.370053510439441 0.00344498281933786 -6.59744656161057e-17)
(0.224536482113123 0.00520451983556458 -5.85614920461833e-17)
(0.370228323962009 0.00357852472305594 -1.35824231607226e-16)
(0.224574674494897 0.00535808975079064 -6.60709108266888e-17)
(0.370549628201451 0.00370441277761537 -1.01717778994625e-16)
(0.224789783451154 0.0055039312633565 -2.60923280269126e-16)
(0.371046870143752 0.0038453993112081 2.14026020849994e-17)
(0.225186377543442 0.00564384152256372 -6.69613452936107e-17)
(0.371769615367468 0.00403730892218188 1.9028476496795e-17)
(0.225812359791417 0.00582388603334036 8.65694653841852e-17)
(0.372783084045009 0.0042445599001741 -4.0770585516257e-17)
(0.226760858048714 0.00606896544304166 -2.13429252770371e-17)
(0.374118221176089 0.00443807497369404 -1.49780423473782e-16)
(0.228082097524003 0.00628145891318911 -7.1871081010812e-17)
(0.375850375744517 0.00468433912052005 -1.68011919430603e-16)
(0.229808859031415 0.0065036522496356 -2.17282018591041e-16)
(0.378124327322759 0.00501923818715449 4.61769699669957e-17)
(0.232077768725532 0.00682773581179381 -1.14782196823098e-16)
(0.381129135303321 0.00539675799537993 2.08994420712744e-16)
(0.235099616528556 0.00723806604693839 1.77212622657705e-16)
(0.385153290747088 0.00583219188640692 1.6816361320585e-16)
(0.239109602689287 0.00765207545049997 2.66501540212507e-16)
(0.390582601713163 0.006576073353678 -8.73311969392014e-18)
(0.244408833926393 0.00822456219962384 1.41728318936493e-16)
(0.397962070730646 0.00750707573089874 -9.57770947782741e-17)
(0.251745437172019 0.00927284597874905 -1.81570497427319e-16)
(0.407462339442026 0.00832132575344034 -4.89495907546644e-17)
(0.261605673589334 0.0102279027549575 -9.53255916506231e-17)
(0.41926464390637 0.00914268951676449 -2.53061722317198e-17)
(0.274096772409108 0.0110581754232314 -3.53174048677765e-17)
(0.433550269179031 0.0100072000502522 -1.02299574716074e-16)
(0.289501787249642 0.0119952020221336 -1.01769951819343e-17)
(0.45045685758841 0.0105922188361825 -1.58528160986774e-16)
(0.30819094741287 0.0128435024076746 -2.40577901820286e-16)
(0.469914403532996 0.0108188672532047 -9.87717111993559e-17)
(0.330082556426863 0.0131523186234974 -1.86675280234607e-16)
(0.491911316396497 0.0109432284547077 -7.9273276409154e-17)
(0.355040156257473 0.0132223808949888 -5.76496486945344e-17)
(0.5164391600265 0.0108325255507223 -3.46701819036375e-17)
(0.383112600537173 0.0132054537693165 -1.31491026889611e-16)
(0.543304389588078 0.0103606437009918 1.34716768118248e-16)
(0.414289480428801 0.0127200775525926 7.82592549246847e-17)
(0.572295671214473 0.00966618119060023 8.52445955148306e-17)
(0.448050162743611 0.0119105752259962 2.70398994788702e-16)
(0.603245569691791 0.00875053717066477 -1.90471809997745e-16)
(0.484461644997995 0.0108706049714592 -9.15891247458433e-17)
(0.635929687014717 0.00761383117329307 -1.49048719729098e-16)
(0.52280182936592 0.00954443406882734 -3.72586990447089e-16)
(0.670262066257931 0.00637604799791712 -2.80518867892755e-17)
(0.563661092021165 0.00801275728657266 1.87779754452678e-17)
(0.706057033427521 0.00496976456746195 1.42014205171295e-18)
(0.605557029953581 0.0064084518816249 -7.77419071555243e-17)
(0.743419234605144 0.00350878903881312 4.11262168489614e-17)
(0.650603178440199 0.00450866070568902 5.25772082433928e-17)
(0.782236881621959 0.00206231572260559 2.93728306959191e-17)
(0.695047523153162 0.00277128507812045 2.16078201408797e-17)
(0.823265824323253 0.000735007936753095 -1.95495662258635e-17)
(0.745407693076949 0.0009025315454817 8.26671535552999e-17)
(0.866237074116885 -0.000646140861411142 -6.1383009970269e-17)
(0.792087755724723 -0.000635923849366167 -4.97843986081702e-17)
(0.91303592670109 -0.0016762345931263 -5.77299965821823e-17)
(0.851857847865299 -0.0025561415389742 -5.22957745880648e-17)
(0.96294267977976 -0.00260171300840347 -4.38937279464716e-17)
(0.899949237799742 -0.00347260699162038 -7.2091739670912e-17)
(1.01339107552225 -0.00137148874908624 -4.72657310690601e-17)
(0.979001495846047 -0.00465645723495301 -1.70797339002163e-17)
(1.01387034240348 -0.000121845236471873 -4.53172821092101e-17)
(1.00785829767934 -3.239740978542e-05 -8.14072830719971e-17)
(1.01568766763575 -4.85815984109917e-05 -3.17267173631083e-17)
(0.993753816225342 -0.000284664756103348 -1.22902882558808e-17)
(1.01530654631836 2.31971560740654e-05 -1.68699104264716e-17)
(1.00368897418325 3.10714013034994e-05 -6.52496202922745e-17)
(1.0148944592581 0.000106274301999628 1.65630470824286e-17)
(0.997096665010771 -1.46481438191335e-05 7.76299159607123e-18)
(1.01341975843195 0.000136580584957582 -1.78980941889498e-17)
(0.99919982972847 0.000134419131562944 1.09811244975615e-17)
(1.01180170571612 0.000144109414250537 -8.1573549819257e-18)
(0.99496594363905 0.000112286724821023 -6.41885451480486e-17)
(1.00970047829306 0.000160556061481293 2.01405151877991e-17)
(0.993882265725637 0.000163846430201138 3.08547471044915e-17)
(1.00743568574976 0.000162680333653542 1.16716490382921e-18)
(0.990324969117627 0.000155445848971765 1.05800446194668e-17)
(1.00493690364117 0.000155537856761423 3.08171108155548e-18)
(0.987846649915234 0.00016405451582804 -9.3037062565873e-18)
(1.00237222105154 0.000144178798295785 8.27381214974979e-20)
(0.984390728508555 0.000147577952014629 1.41147221386513e-17)
(0.999770784701109 0.000128609059680594 -5.9638260654876e-18)
(0.981414253406149 0.00013527448615977 -1.54150006581626e-17)
(0.997250526679936 0.000133974804090082 7.39341164951542e-19)
(0.978070178621661 0.000114397080606327 -3.34831952845557e-18)
(0.994983173371225 0.000238836366459896 1.23121569403336e-18)
(0.975263276411464 0.000100869330951176 9.53026684794701e-19)
(0.972548083557016 6.97183768594716e-05 1.05654487439683e-19)
(0.101884012726562 0.00424703782011805 -7.24687652818034e-18)
(-0.00335889595004704 0.00548020907578129 -3.78219344311181e-18)
(0.103371461118727 0.00472857064168332 -1.2708121148117e-17)
(-0.000155510610021293 0.00587271668210123 -1.11130913440514e-17)
(0.103875708258007 0.00511592722004268 -1.92110122822977e-17)
(0.00020362232832328 0.0065653591733229 -1.21186485428191e-17)
(0.103876002982185 0.00538409496465808 -2.37826907377564e-17)
(0.00036430535398802 0.00704278867781009 -2.26932242007809e-17)
(0.103624532929239 0.00552515833278031 -1.05615031765166e-17)
(9.679457975707e-05 0.00729841981786292 -1.85719790390193e-17)
(0.103271048452723 0.00559030964202666 1.29207010858023e-17)
(-0.000302264850052476 0.00741416024235558 3.38238604465044e-18)
(0.102881825474876 0.00561964722315385 4.25471844009851e-17)
(-0.00075420001924158 0.00746464839133935 2.65099040538511e-17)
(0.10247973836284 0.00563481701261352 4.40730932301449e-17)
(-0.00122316256685933 0.00748767940644009 6.81870137927553e-17)
(0.102071389188222 0.00564785433427665 2.26100541812729e-18)
(-0.00170057752288163 0.00750281617958656 1.91597503973007e-17)
(0.101659303098988 0.00566268735030957 -1.83444421635413e-17)
(-0.00218325816268673 0.00751925423582522 -2.22083430845203e-17)
(0.101243395948487 0.00567751294227811 -3.95079042495198e-17)
(-0.00266975067682019 0.00753722812347543 -2.78903993385652e-17)
(0.100821606779117 0.00569160033351018 -6.17851409044815e-17)
(-0.00316162088076812 0.00755389705685284 -8.49447742202369e-17)
(0.100393679170267 0.00570588626902867 -2.48157071261148e-17)
(-0.00366009445964749 0.0075707227684446 -5.88895947166217e-17)
(0.0999603666902536 0.00571873988999214 1.11617179117494e-17)
(-0.00416490171419221 0.00758767969253002 -9.81227887387779e-18)
(0.0995206390081534 0.00572983990254612 2.26664874201242e-17)
(-0.00467619586624416 0.0076018711280765 6.98272302336961e-18)
(0.0990737055481298 0.00574170692278535 1.01488535907472e-17)
(-0.00519520598698891 0.00761567706390576 2.05833482227541e-17)
(0.0986198937716356 0.00575530499111114 4.07146766907807e-18)
(-0.00572270385296823 0.00763133771293327 -1.78069501439873e-17)
(0.0981595498871239 0.00576986284032889 -2.18662825702176e-17)
(-0.00625734186875009 0.00764844209223713 2.97258087770325e-17)
(0.0976916144128684 0.00578433623706137 -4.23024506732752e-17)
(-0.00679940374105157 0.00766604871841442 -5.00251402897554e-17)
(0.0972151186766691 0.00579820424594368 -2.06168586641736e-17)
(-0.00735048698779277 0.00768314675336604 -2.0090235648215e-17)
(0.0967302413621926 0.00581236516397274 -1.01943057546246e-18)
(-0.00791095437299931 0.00769973593999685 2.85345780836046e-17)
(0.0962376319350688 0.00582704014245718 2.62469236300016e-17)
(-0.00848014780073491 0.00771741834914785 -2.9904218172389e-18)
(0.0957364129902366 0.00584082508132408 2.84631798413683e-17)
(-0.00905813198662714 0.0077349951132449 6.05575714499118e-17)
(0.0952259470710738 0.00585368836250924 5.26981966904243e-17)
(-0.00964646283083185 0.00775112976607808 1.79104762429699e-17)
(0.094706655497807 0.00586771627983231 9.22802832088213e-17)
(-0.0102452161050203 0.00776710790626934 8.68178633492086e-17)
(0.0941785026834406 0.00588408949909965 1.47663674623369e-16)
(-0.0108538023422706 0.00778556797789378 7.68565132230209e-17)
(0.0936403375884189 0.00590151463820955 2.28559577482425e-16)
(-0.0114727024436754 0.0078061306822351 2.04803987388583e-16)
(0.0930917632030315 0.00591880549577678 2.25148977915129e-16)
(-0.0121029244699063 0.00782679537444916 2.98812804804627e-16)
(0.0925336158844136 0.00593595463633426 1.74549033455177e-16)
(-0.0127441057421171 0.00784725313907775 2.23750471073535e-16)
(0.0919655931139974 0.00595323230109725 1.09731593754177e-16)
(-0.0133957963117402 0.00786776113224194 1.52732967904189e-16)
(0.0913866000033967 0.00597129542982929 4.7015091651907e-17)
(-0.0140593472006561 0.00788861279781686 6.26803671332747e-17)
(0.0907971325547802 0.00599129630833896 5.14292859802814e-17)
(-0.0147353933931095 0.00791081963965026 1.34929650636689e-17)
(0.0901987317233161 0.00601211629983283 1.28815745043974e-16)
(-0.0154219449321838 0.00793546094558927 8.01401326908654e-17)
(0.0895896731255975 0.00603269910700132 1.6451204906241e-16)
(-0.0161190448123086 0.00795941982773551 1.99798551977754e-16)
(0.0889693475801734 0.00605497589505408 6.90329958103385e-17)
(-0.0168291282714537 0.00798389279785766 1.14212550288742e-16)
(0.0883399350811701 0.00608003186629099 -1.71049206306067e-16)
(-0.0175511065952479 0.00801125567665451 -2.54177189447749e-17)
(0.0877029278094787 0.00610595567182894 -3.53340285464896e-16)
(-0.0182818575692538 0.00804117933705741 -3.74108119797249e-16)
(0.0870564286123161 0.00613219902315681 -3.60417977544273e-16)
(-0.0190220664038928 0.00807044753323975 -4.09049635811248e-16)
(0.0864012003461768 0.00616195068138799 -2.35169859767551e-16)