/*--------------------------------*- C++ -*----------------------------------*\
  =========                 |
  \\      /  F ield         | OpenFOAM: The Open Source CFD Toolbox
   \\    /   O peration     | Website:  https://openfoam.org
    \\  /    A nd           | Version:  8
     \\/     M anipulation  |
\*---------------------------------------------------------------------------*/
FoamFile
{
    version     2.0;
    format      ascii;
    class       volVectorField;
    location    "0.0915000";
    object      U;
}
// * * * * * * * * * * * * * * * * * * * * * * * * * * * * * * * * * * * * * //

dimensions      [0 1 -1 0 0 0 0];

internalField   nonuniform List<vector> 
900
(
(0.694668005324584 0.000378957192957456 -3.82776301952644e-18)
(0.695085638730846 0.000210016557088212 -1.26135574122352e-17)
(0.695021340328328 0.000175159828989428 -1.33778871795017e-17)
(0.695029778105515 0.000199394630480634 -2.24032410466982e-18)
(0.694895671561579 0.000207234152324306 -1.27634363085827e-17)
(0.694723118328547 0.000213143568237242 -1.90639415034051e-17)
(0.694532779084732 0.000217131876925012 -1.99627580658385e-17)
(0.694337016410855 0.000220995775470737 -4.96340569367183e-18)
(0.694138029641597 0.000224383324718945 5.78717322019035e-18)
(0.693935109400288 0.000227252332925423 2.20409767160295e-17)
(0.693727398716364 0.000229977727044032 1.20888922013699e-17)
(0.693514850453699 0.0002328621234109 3.02872886688389e-17)
(0.693297614211581 0.000235885460699068 2.34948146254982e-17)
(0.693075159093586 0.000238375927661672 2.41129953698472e-17)
(0.692846769501508 0.000240667058796678 1.65732116782173e-18)
(0.692612231407162 0.000243066999929859 -2.78815929329823e-18)
(0.692371906149363 0.000245886169628064 9.6037729152567e-18)
(0.692125565095507 0.000248315859157413 -9.33748718580294e-18)
(0.691872315049959 0.000250549977250184 2.31528736497918e-17)
(0.691611818567521 0.000252868550785875 1.11832837996684e-17)
(0.691344207911638 0.000255597191284945 2.47995745731355e-17)
(0.691069566042287 0.000258349185731124 -2.87888397578361e-17)
(0.690787287384716 0.000260829855002246 -5.57170707290807e-17)
(0.690496667610213 0.000263376971059226 -2.2141308694852e-17)
(0.690197434203031 0.00026634774681412 4.63495703513899e-17)
(0.689890170707257 0.000269892139283564 -8.84337631019245e-18)
(0.68957461508252 0.000273094175565115 -5.78022869576143e-17)
(0.68924964827611 0.000276300881692659 -4.86839450985857e-17)
(0.68891493693775 0.000279921581813021 -4.96410273996676e-17)
(0.688571263762331 0.000284836497619333 -8.02696221678716e-18)
(0.688218661812566 0.000289480236430129 1.22223874895528e-17)
(0.687856057699804 0.000294132890007825 4.0482926748832e-17)
(0.687482813814717 0.000299387497608958 1.54775632641684e-17)
(0.687099819806438 0.000306421833511777 7.80349801634173e-17)
(0.686707980630674 0.00031442281270993 3.10849368687775e-17)
(0.686306716614878 0.000322240389620477 1.66416239477363e-17)
(0.685895033932674 0.000330775186084131 -3.93841301639658e-17)
(0.685474081121487 0.000341688444549995 5.78108772901571e-17)
(0.685046233097277 0.000356439015145413 8.03350460346728e-17)
(0.684611905788734 0.000370618458509594 4.20732881660373e-18)
(0.684169860220312 0.000385726487855029 5.76146319956305e-17)
(0.683721461369539 0.000403868214159929 -3.16192538560164e-17)
(0.683271931818188 0.000430955805737014 -3.44638267879236e-17)
(0.682823925276875 0.000457285603816345 1.23327993206088e-17)
(0.682377142493475 0.000484708110142186 5.13987513914796e-17)
(0.681933950638468 0.00051652323935379 -3.92563737009081e-17)
(0.681502725125657 0.000561536547722242 2.76872443537014e-17)
(0.681089914373662 0.000612334241742483 1.07220959984651e-17)
(0.680700013017603 0.000662665111489201 -5.65946795593628e-17)
(0.68033830689548 0.000718414849653549 1.57260223910099e-17)
(0.680018882025633 0.000791534687113593 -3.55981084000325e-18)
(0.679756829784279 0.000887482334166154 8.42747157695499e-18)
(0.679562304124912 0.000978191975008974 -2.84167562297335e-17)
(0.679447920280254 0.00107342006450618 2.2188519374054e-17)
(0.679462533005199 0.00118704401750461 2.10596399848075e-17)
(0.679636408039714 0.00137353191181471 4.91013053865541e-17)
(0.680122557057049 0.0016038640085403 5.75892707297045e-17)
(0.681214627390763 0.00188474566608518 7.7486709965027e-18)
(0.683281620237066 0.00225678574182778 -3.23935830965792e-17)
(0.68654514301266 0.00294881012402454 -7.4129912219296e-17)
(0.690974895518655 0.00363649364309386 7.05724591671585e-18)
(0.696619083244958 0.0042565225221286 3.8119400387186e-17)
(0.703557444188239 0.00486526460319274 -1.16203341134406e-16)
(0.711769650314433 0.00563303938412425 -7.13815603992518e-18)
(0.721210865327421 0.00620598146668014 6.42802993855071e-17)
(0.732002136338694 0.00654709074824862 1.30069796764772e-17)
(0.74413420532424 0.00677843418637726 -4.77826134417522e-17)
(0.757410470951876 0.00703422604595097 7.62377807670284e-17)
(0.771657246709601 0.00699335828775635 -2.19732301200411e-17)
(0.786821210353249 0.00672571265483636 2.12114490957111e-17)
(0.802680518008491 0.00634441604006093 -6.03514869957082e-17)
(0.819006972797857 0.00587703725402546 3.39978721123095e-17)
(0.835669111253601 0.00522018487673489 1.49208390208765e-16)
(0.852573173675721 0.00450097306848948 -8.10665323731073e-17)
(0.869513935891991 0.00374844125876553 -2.5323098108827e-17)
(0.886502177537677 0.00292283018781508 1.37947188500245e-16)
(0.903441260544522 0.0021510691662412 3.74900633334308e-17)
(0.920440940178761 0.00141735185324741 -3.17085836109652e-17)
(0.937306421142367 0.000736253871745511 -2.62580763268643e-18)
(0.954484351622818 0.000121272577811349 -1.31029236524956e-17)
(0.971387090142629 -0.000357317403670198 -1.56574375820647e-17)
(0.989521513883254 -0.000821952206801341 1.08478192773731e-16)
(1.00676233654239 -0.000969149528319337 9.99270943975809e-17)
(1.02695529026313 -0.00123584986667224 -9.64566205973247e-17)
(1.04438966698862 -0.00115033254587969 -4.78065259746526e-17)
(1.06938906679332 -0.00129698103084527 9.11619993943478e-17)
(1.0793616895142 -0.000119161014165513 2.50379703805912e-18)
(1.07702667197109 -0.000231184160052341 5.92219185997205e-17)
(1.08164645611834 8.12841239104172e-05 2.48178549449835e-17)
(1.08132747820102 0.000209526762814085 -4.31644745149516e-17)
(1.08307409200511 0.000327722330764909 1.90337552104241e-17)
(1.0830716652095 0.00034473343689527 7.42229088412924e-19)
(1.08367892835735 0.000410695430720128 -3.04361694552733e-18)
(1.08351518753125 0.000416526586122565 -1.76822482431899e-18)
(1.08357686250653 0.00041940468489171 1.70514248065836e-17)
(1.08338714199889 0.000412032369114468 -3.55551281107695e-18)
(1.0832877026501 0.000393578454844992 -8.63658117210875e-18)
(1.08306923964025 0.000373390741751746 5.0376660868814e-18)
(1.08281465445617 0.000376259520959317 -6.71560630487768e-18)
(1.08202296264649 0.000347617679820754 -6.31887819309664e-19)
(0.34267714509214 0.00197665404598091 -5.77514355335028e-18)
(0.344301389111576 0.00206558408053932 -1.71919647964108e-17)
(0.344251027196706 0.00214489566199859 -2.707244194139e-17)
(0.344179882321417 0.00227987103347746 -3.10577011256907e-17)
(0.343772807709679 0.00235691893580064 -1.84796759901075e-17)
(0.343261201365342 0.00239499040408544 -1.62827543623564e-17)
(0.342701661418248 0.0024151351501042 -2.19343869286555e-17)
(0.342124140676103 0.00242991719611327 -4.23930644159043e-18)
(0.341535218350122 0.00244271433962996 1.62865018194393e-17)
(0.340934667801664 0.0024545534839765 6.89209592618932e-17)
(0.340320963117989 0.00246629864616772 3.37649179465763e-17)
(0.339693586876702 0.00247847419855427 9.30767684522604e-17)
(0.339052411042526 0.00249102226897788 4.43421147028377e-17)
(0.338396362806013 0.00250273489876659 7.62477778867155e-17)
(0.337723907241039 0.00251421177932588 -1.23648714346114e-17)
(0.337034364304285 0.00252601813414778 -1.00665336697083e-17)
(0.336327901374454 0.00253874536739178 2.80212953941391e-17)
(0.335603798490791 0.00255094132617538 1.89171709233513e-17)
(0.334860399165027 0.00256295836375279 7.63579991505151e-17)
(0.334096674577955 0.00257533538374032 6.77219641888856e-17)
(0.333312432120535 0.00258870457893031 -1.12711898512494e-17)
(0.332507257356634 0.00260236601951856 -9.31157034904181e-17)
(0.33167972880724 0.00261577470782634 -6.5866648637107e-17)
(0.330828258743685 0.00262959094920846 -6.40409410181171e-17)
(0.329952130628419 0.00264453318225262 5.51411593414582e-17)
(0.329051434017126 0.00266089865005191 -3.28240078179081e-17)
(0.328125083500373 0.00267696043558046 -8.02659668410528e-17)
(0.327170865619523 0.00269339358681259 -1.43059469845547e-16)
(0.326187583093501 0.00271106713846748 -5.78577508829907e-17)
(0.325175768410564 0.00273168718907769 -1.94705853660623e-17)
(0.324134769450382 0.00275227672273728 3.50057647801787e-17)
(0.323062143491409 0.00277335707371953 1.52369746878211e-16)
(0.321956178805649 0.00279622136057008 3.63072324995478e-17)
(0.320817643614843 0.00282325165195416 1.54123554325743e-16)
(0.319647351029433 0.00285287474013811 1.39281400353935e-16)
(0.318443673929819 0.00288282029572197 5.05074171563143e-17)
(0.317204103745591 0.00291497470484758 -1.48235891191939e-16)
(0.315929690925929 0.00295291678636569 2.33444613733124e-16)
(0.314624650256584 0.00299947769811284 2.38538094063785e-16)
(0.313289662142841 0.00304596334915213 6.38827345335087e-17)
(0.311921658091905 0.00309522667098618 3.50631104831255e-17)
(0.310522258892302 0.00315226231295473 -9.97329533330433e-17)
(0.309102487899505 0.00322868384528147 -1.02359245116067e-16)
(0.307668360957978 0.00330523005774867 3.81663234391812e-17)
(0.306218482953134 0.003384976784291 1.56423018147317e-16)
(0.304756724710335 0.00347584958704489 -1.66959503605125e-16)
(0.303302613963998 0.00359583116283126 -3.92138728565642e-17)
(0.301875433595415 0.00372980977942134 2.98776761817507e-17)
(0.3004839018774 0.00386434802362157 3.45824810643189e-17)
(0.299137113317637 0.00401206400004618 5.17670872666873e-17)
(0.297868028258139 0.00419946617288917 2.14458399139791e-17)
(0.296726808587499 0.00443600992081851 2.68206037195474e-17)
(0.295744893251662 0.00466462994807891 -9.08451172175117e-17)
(0.294943487281252 0.00490253845894943 6.72892347092933e-17)
(0.294391065248816 0.00518728583569551 6.17803854180479e-17)
(0.294228042513363 0.00563032431803676 1.46394576201075e-16)
(0.294704048084822 0.00617925103550391 1.72133356563154e-16)
(0.296171965663595 0.00684061102092461 1.69437149480218e-17)
(0.29912429600795 0.0077348024121077 -9.59630454738141e-17)
(0.304261155570266 0.00929822210729993 -2.21163113621854e-16)
(0.312033462093021 0.0108712055560548 -5.18009760797615e-17)
(0.322651820668867 0.0122697056861577 -5.53779038305924e-17)
(0.33632217603918 0.0136443010010377 -3.74985250887819e-16)
(0.35341028462577 0.0152960747402684 -2.15954205039214e-17)
(0.374030842447376 0.0164996559128268 1.95466568042797e-16)
(0.398036127602561 0.0171444226602092 -1.58574751107027e-17)
(0.425239465308858 0.0175221250672357 -9.17433534698839e-17)
(0.455506946241317 0.0178634092355552 8.35288591757391e-17)
(0.488481030021788 0.0175270934971441 -6.78614252515808e-17)
(0.523615818170102 0.0166461658017306 6.45730688364615e-17)
(0.560385633672678 0.0154831068479398 -3.51952529053372e-17)
(0.598362032913629 0.0140835076872016 1.03044739226915e-16)
(0.637102452096434 0.0122617751410964 1.60645850565827e-16)
(0.676230715820282 0.0102878706585393 1.52833361998492e-17)
(0.715357154502255 0.00822651603014809 -7.83028426561927e-17)
(0.754385800275151 0.00601830292477768 2.74150309629697e-16)
(0.793020727247443 0.00393713060447635 -3.90499730011025e-17)
(0.831626530417643 0.00194705776784142 -9.55219596440335e-17)
(0.869688214344776 8.3723053436628e-05 -1.18317255844937e-17)
(0.908299998941317 -0.00162173609880318 -3.47907019181923e-17)
(0.946046645894932 -0.0030040909406998 -4.91318034377628e-17)
(0.986433722228633 -0.00434266040858697 1.7623198522526e-16)
(1.02458679735137 -0.00503279754510996 1.55887354125744e-16)
(1.06992404187693 -0.00593244759244718 -2.88355203636887e-16)
(1.10828120904327 -0.00602659769083596 -8.87820432791687e-18)
(1.16483173171799 -0.00616350587269291 1.50254042799903e-16)
(1.18549308979255 -0.000810082856207229 4.93633519646069e-18)
(1.17627644768316 -0.000831624480590898 1.66950197715022e-16)
(1.18395266859416 -0.000102596400515817 7.62130434870163e-17)
(1.18050013020155 0.000217826415882359 -4.58614845434031e-17)
(1.18292626971584 0.000524353215654573 5.75302914173073e-17)
(1.18149711853782 0.000608242649254218 2.11381146123954e-18)
(1.18206097034769 0.000772720823931355 -8.95043189023861e-18)
(1.1811744210433 0.00081776819116971 -5.55191410159815e-18)
(1.18099682384418 0.000850448036967768 5.17983193853254e-17)
(1.18030799213718 0.000855756371294747 -1.00793923719481e-17)
(1.17990906167821 0.000839122827950903 -2.52097393203523e-17)
(1.17925216687629 0.000815588661823615 7.42684456121198e-20)
(1.1787371328387 0.000817903228578984 -1.77295048320103e-17)
(1.17768064535015 0.000674475974707003 -1.84496166450673e-18)
(0.0645670884251048 0.00421480761605222 -7.90588736370248e-18)
(0.0673564164230778 0.00470803844543353 -2.3428953808493e-17)
(0.0673660495785057 0.00517314479637847 -4.22845898602707e-17)
(0.0671571726305378 0.00551960511000565 -6.24324269374036e-17)
(0.0664994526581978 0.0057056787498443 -2.26110183016106e-17)
(0.0657033058037323 0.00579072906463763 -1.66126795717123e-17)
(0.0648437016122501 0.0058320037958905 1.36551347649805e-17)
(0.0639576135835767 0.00585887890798847 1.0800378774197e-18)
(0.0630536602336725 0.00588150161468562 2.33167193027185e-17)
(0.0621320779878274 0.00590289431983385 7.02622801160879e-17)
(0.0611912215217341 0.00592436543262384 3.56323329449783e-17)
(0.0602303005267013 0.00594651479935527 1.06913223932219e-16)
(0.0592489788707084 0.00596917859952858 1.71551254685777e-16)
(0.05824584050658 0.00599122570912546 1.38219609336982e-16)
(0.0572188871266758 0.00601315156671137 7.00836241073649e-17)
(0.0561670797166084 0.00603566600459901 -2.36554556765987e-17)
(0.0550903523096858 0.00605925622723279 5.20374696765228e-17)
(0.0539876547587717 0.0060826066439144 3.62011256807025e-17)
(0.0528568100108669 0.00610596039464391 8.74905542806298e-17)
(0.0516963565932342 0.00612998669646231 1.41477455038929e-16)
(0.0505057671780939 0.00615530886230213 -3.33436445571348e-17)
(0.0492842952147132 0.00618124784894591 -9.6022214056046e-17)
(0.0480299397488516 0.00620725385831532 -7.88949303021928e-17)
(0.0467405447999481 0.00623401835697832 -1.19623833664027e-16)
(0.0454149659947336 0.00626240702495747 8.18352237425372e-17)
(0.0440529903748956 0.00629261381363074 -5.87653316446273e-17)
(0.0426529506599456 0.00632300498927094 -1.0017071928856e-16)
(0.0412118624807055 0.00635414286883669 -2.51682072183595e-16)
(0.0397278227484959 0.00638724583370656 -6.38195309423008e-17)
(0.0382012346414482 0.00642384873686656 6.19011191750757e-17)
(0.0366310518955302 0.00646112691704073 5.63145072706521e-17)
(0.0350137034959445 0.00649939167396392 1.19441925085952e-16)
(0.0333467270957222 0.00654036040192731 3.85959583606569e-17)
(0.0316307045674658 0.00658651347880013 2.42830878893358e-16)
(0.0298667021593507 0.00663621826157567 2.63443975367904e-16)
(0.0280521342558037 0.00668709758685907 1.02055666407503e-16)
(0.0261833605845403 0.00674117657756539 -9.44854075405027e-17)
(0.0242608919131278 0.00680292510800056 2.01216662988132e-16)
(0.0222911248449302 0.00687470285471777 4.10511801690768e-16)
(0.0202749235792964 0.00694794431679115 1.62708490884239e-16)
(0.0182074170293802 0.00702480647873176 1.58112904509471e-16)
(0.0160890729524044 0.00711270834906142 -3.2927811222616e-17)
(0.0139369276359909 0.00722223406856644 -1.75760568545106e-16)
(0.011760658417262 0.00733443331114437 5.71955069618581e-17)
(0.00955551167977533 0.00745057837182363 2.73418011050465e-16)
(0.00732530716358597 0.00758203181180342 -8.39166921007637e-17)
(0.00509849933011469 0.00774716502536623 -1.0372087595931e-16)
(0.00290801716130622 0.00792998915311902 5.4190836117394e-17)
(0.00076228206887987 0.00811500461444719 -2.32049635360144e-17)
(-0.00133012080248235 0.00831660313276612 9.1032553112543e-17)
(-0.00332593061971397 0.00856713606823925 4.65761590740202e-17)
(-0.00513716014448481 0.00887170039372748 4.97572027969487e-17)
(-0.00671866195072082 0.00917233576986912 -6.04206990778917e-17)
(-0.00805232807940206 0.00948018122008493 1.16731032932375e-16)
(-0.00907376352064558 0.00985411310224655 9.98702540428379e-17)
(-0.00955872973240196 0.0104070069448171 2.44460457265207e-16)
(-0.009176699252017 0.0110963421110571 2.431301227646e-16)
(-0.00753786863855926 0.0119107280859644 3.57132513540404e-17)
(-0.00418678589460468 0.0130543334398864 -1.57353172695816e-16)
(0.00205476428183066 0.0149131438569254 -2.44164778169543e-16)
(0.0121360059854581 0.016817460136367 -1.25669232619529e-16)
(0.0262065875456983 0.0184772348297363 -1.58026761835757e-16)
(0.044447283743925 0.0201190639590843 -3.95559496501198e-16)
(0.0677013597166657 0.0219682943585464 -3.53015781713839e-17)
(0.0963367024654603 0.0232811838797998 8.76268321846308e-17)
(0.129764744854059 0.0238735714281101 -8.12169068694286e-17)
(0.167568354086849 0.0241235846825785 4.11909345620621e-17)
(0.209929131735133 0.024197973561682 9.80486256176154e-17)
(0.256399549396844 0.0234701678224824 -1.17735170477043e-16)
(0.305820740322989 0.0220391229950821 1.10408812919237e-16)
(0.357483351080985 0.020235075045816 -1.29989904146216e-17)
(0.410959918695432 0.0180900996347977 1.79154247855323e-16)
(0.465493056787838 0.0154556943830317 1.27087224459103e-16)
(0.520413513345562 0.012613332471978 7.00071722121656e-17)
(0.575333016966523 0.00964966191253609 -1.35475591856882e-16)
(0.629950961730151 0.00653635076373553 2.32521475869602e-16)
(0.683811622781239 0.00357197406180178 -1.18814161616697e-16)
(0.737553008191381 0.00072761260557987 -1.60789940943528e-16)
(0.790385270828446 -0.0019507761101302 -1.15579789624682e-17)
(0.843760626914262 -0.00444011910396941 9.56121339803955e-17)
(0.895780168303119 -0.00651142784297124 -8.65399537401713e-17)
(0.951270129648861 -0.00851343618364842 2.434276435526e-16)
(1.00347620768665 -0.00980469667186429 2.15422189333701e-16)
(1.06559424340309 -0.0113150150909113 -3.49224198548743e-16)
(1.11778936643422 -0.0117474687011084 3.02894296153437e-17)
(1.19520254198852 -0.011725060014089 2.11336986233865e-16)
(1.22310525468612 -0.00118118445137008 3.25996093574134e-18)
(1.20924990103273 -0.00108387443709309 2.93301286330796e-16)
(1.21890768168647 -0.000166637617427953 5.93255968142904e-17)
(1.21348467209014 0.000186495524729505 -4.84074060612561e-17)
(1.21650177916056 0.000592078997175462 9.67043320116693e-17)
(1.21421157938269 0.000714785195364091 3.10747460654094e-18)
(1.21482393577977 0.000907782676399427 -1.46084417174572e-17)
(1.2135509611083 0.000971858659950701 -9.41422710838416e-18)
(1.21329367648152 0.00101902002865191 4.65693618484211e-17)
(1.21235215557384 0.00102451705276105 -1.61482491502928e-17)
(1.2118391677376 0.00100928957536195 -2.70615866215968e-17)
(1.2109926939002 0.000979101322216732 -8.14748365747243e-18)
(1.21051249750608 0.00093823248198058 -2.3058905080698e-17)
(1.20972806209487 0.00063965567662498 -3.50468167602861e-18)
(-0.139130771648512 0.00724395821777544 -1.21392492325436e-17)
(-0.136382254655349 0.00754592262580248 -2.93915238094778e-17)
(-0.136567303366113 0.00858717369361833 -5.7452697369299e-17)
(-0.137045569892899 0.00919605763188401 -7.89015375031634e-17)
(-0.13794214820891 0.00950223597827111 -4.81578813485156e-17)
(-0.138960894846073 0.00963623197256759 -1.84532366993853e-17)
(-0.140037815955445 0.00969916186010148 6.35734078397281e-18)
(-0.141142716208252 0.00973836204283614 1.29605619436252e-18)
(-0.142269062115265 0.00977105239972224 2.63183903821605e-17)
(-0.143416871353462 0.00980236664008343 8.35987072445383e-17)
(-0.144587742387317 0.00983399257367598 9.46283889310926e-17)
(-0.145782616881093 0.00986650951818226 1.24336615389395e-16)
(-0.147002061813264 0.00989971001457525 1.68781269328611e-16)
(-0.148247611485154 0.009932682360118 2.01332299136714e-16)
(-0.149521347194807 0.00996578187982824 7.54259196588715e-17)
(-0.150824537032078 0.00999968883071543 4.75866752374899e-17)
(-0.152157588658303 0.0100347672957735 8.91974573525464e-17)
(-0.153521770015934 0.0100699995479031 3.10542568406761e-17)
(-0.154919384713888 0.0101055385067911 1.39015854492676e-16)
(-0.156352118844791 0.0101420294545306 2.01170185053558e-16)
(-0.157820839435192 0.0101800066260956 1.54453625584505e-18)
(-0.159326594754649 0.0102189223062741 -1.38238097148059e-16)
(-0.160871618860987 0.0102583206669006 -1.67990091600737e-16)
(-0.162458280962019 0.0102988155832719 -1.16462713624702e-16)
(-0.164088044023038 0.0103412378236692 7.29998652367391e-17)
(-0.165761510100135 0.0103857099290713 -6.17151643991999e-17)
(-0.167480675094347 0.0104309090819856 -1.08131983255867e-16)
(-0.169248756732232 0.0104772638496329 -3.01788312517694e-16)
(-0.171068030568327 0.0105260230825449 -6.40150620747839e-17)
(-0.172938488477422 0.0105784232737949 5.93522663112542e-17)
(-0.174861504944469 0.0106321486447284 7.02057296038041e-17)
(-0.176841008430646 0.010687366585663 1.22782574530467e-16)
(-0.178879773725383 0.0107458018605506 6.18414315399063e-18)
(-0.180977599639947 0.0108096629033472 1.99204591397385e-16)
(-0.183133581716448 0.0108775282332357 2.44075793908109e-16)
(-0.185350659075866 0.0109473081696997 1.59194763556807e-16)
(-0.187632723250034 0.0110208400790569 -7.24821369643103e-17)
(-0.189979658872792 0.0111024953353811 1.28598432409884e-16)
(-0.192384506425735 0.0111940752336844 4.71295915927483e-16)
(-0.194846299485772 0.0112882224005067 2.15756009550047e-16)
(-0.197370075511601 0.0113864353072236 2.85861246456163e-16)
(-0.199955770011777 0.0114964736696377 3.03600109383937e-17)
(-0.202584092422629 0.0116270291293271 -1.3001007669833e-16)
(-0.205243541834342 0.011761647854649 -5.46292708397297e-17)
(-0.20793945144239 0.0119004703109728 4.07371279209354e-16)
(-0.210667362489723 0.0120552130770999 -6.10310878210048e-17)
(-0.21339481818547 0.0122421820980325 -5.03542705855523e-17)
(-0.216081860981974 0.0124466951093632 7.91258822023066e-17)
(-0.218719013505632 0.0126538851108808 -8.68917642681012e-17)
(-0.221296173746335 0.0128772107921783 1.23699572358021e-16)
(-0.223764774446748 0.0131481027209566 7.38528445782114e-17)
(-0.226016708721686 0.0134685933022506 7.89277226634704e-17)
(-0.227998107904197 0.0137861774396506 -4.33649764841946e-17)
(-0.229688947521446 0.0141075451393124 6.98805931454064e-17)
(-0.231025974984447 0.0144948768936983 1.33132040895816e-16)
(-0.231737574044725 0.015049176967873 2.51572815707008e-16)
(-0.23145227259748 0.0157351837403684 1.26276513055535e-16)
(-0.229759136049997 0.016531591087572 -6.16837649523438e-17)
(-0.226233517154228 0.0176569252746156 -1.33156818199997e-16)
(-0.219429159154972 0.0194351687379432 -1.58021084767624e-16)
(-0.208093574382623 0.0212439089321736 -1.97740316233089e-16)
(-0.192089794627848 0.0227707073964611 -1.04387115051631e-16)
(-0.1712472684665 0.024252661426105 -4.78611761825944e-16)
(-0.144444079015854 0.025861575759724 -3.96148242679188e-17)
(-0.111151060204339 0.0269029045856838 1.93066493061928e-17)
(-0.0722132634214074 0.027182040229435 -5.87009773356516e-17)
(-0.0281960977055109 0.0270857082523641 1.74117879260509e-16)
(0.0212706151558268 0.0267402171479599 1.19240549238796e-16)
(0.075696080438581 0.0255771956006385 -1.74072348504913e-16)
(0.133547936687117 0.0236842541813253 1.60464531934301e-16)
(0.193999463385517 0.0213973048151883 4.96867920378752e-18)
(0.256626283175992 0.0187418708458089 2.50539211823758e-16)
(0.320477265537356 0.0156044808166236 1.229857544787e-16)
(0.384694432983196 0.0122527644433751 -2.57775434920353e-17)
(0.448894403418129 0.00877524699610172 -2.00177253941439e-16)
(0.512638783272227 0.00516764150856771 1.98059857803893e-16)
(0.575366379873564 0.0017088449679992 -2.02220161441588e-16)
(0.637878976249895 -0.0016229659354468 -2.2747629703669e-16)
(0.699217529598103 -0.0047829189700159 -2.68375067967266e-17)
(0.761024291249241 -0.0077473005458826 2.29205084298413e-16)
(0.82112317545803 -0.0103008282759241 -1.35019356064402e-16)
(0.885083989406084 -0.0127754214000337 3.11821100780972e-16)
(0.945068386974695 -0.0145927427245369 2.80768213937619e-16)
(1.0164074368315 -0.0166074924322211 -4.18265691665496e-16)
(1.07607471760526 -0.0175351790701639 -5.60737546985339e-17)
(1.16516107841771 -0.0171779478667264 1.4920396214839e-16)
(1.19705968148008 -0.0013226601576027 -4.44173301572509e-18)
(1.18016254789496 -0.00105669451630372 2.75519757764438e-16)
(1.1908026559684 -0.000196365337465775 1.22259683510975e-16)
(1.18424055881594 0.000181808425672492 -4.57031701685941e-17)
(1.18758000924184 0.000557824260446159 1.5587175479946e-16)
(1.18482210914626 0.000699289209549379 3.46538476401465e-18)
(1.18548744961053 0.0008759253835567 -1.98341875256901e-17)
(1.18404355555706 0.000945753588186711 -1.42204652770859e-17)
(1.18378961002308 0.000990182280285724 4.40381817480633e-17)
(1.18275859036878 0.000996369823088827 -3.1268567838568e-17)
(1.18223657315032 0.00098103988322147 -2.93212921849489e-17)
(1.18134393649227 0.000948407135785853 -1.60961619371387e-17)
(1.18096154540466 0.000891382868435236 -1.83262424130171e-17)
(1.18042503341965 0.000586772330339988 -4.39419778195602e-18)
(-0.26912024844371 0.00950383064803101 -1.58298497442018e-17)
(-0.267902074003484 0.0100728598857503 -2.98461144889684e-17)
(-0.268629320536053 0.0116402676602604 -5.73610031058867e-17)
(-0.2695106645223 0.01245789312075 -8.79373875877168e-17)
(-0.270616894777838 0.0128480365109314 -5.12584122650754e-17)
(-0.271778232577745 0.0130145419216623 -1.88108634518308e-17)
(-0.272973313110756 0.0130926220693506 6.31027698426512e-18)
(-0.274191025268202 0.0131415529212028 -1.71157349419265e-18)
(-0.275430575952137 0.0131828503462614 2.31831217439404e-17)
(-0.276693088734044 0.0132228702842344 4.49893274470989e-17)
(-0.277980126788574 0.0132634426676042 8.504356567342e-17)
(-0.279292661205687 0.0133050630117427 1.39510760237294e-16)
(-0.280631396838638 0.0133475390737809 1.87774854500243e-16)
(-0.281997822307868 0.0133901737617548 2.44803636738058e-16)
(-0.283393887355938 0.0134332242259915 1.33758495018013e-16)
(-0.284820950679153 0.0134772425796314 1.04659610783636e-16)
(-0.286279700052145 0.0135225163499771 1.21633143274645e-16)
(-0.287771491388827 0.0135682994665522 3.76043519585042e-18)
(-0.289298521779448 0.0136147104872582 6.49206695809376e-17)
(-0.290862526220932 0.0136622825927155 1.5070728572753e-16)
(-0.292464604980894 0.0137114518334563 3.30122904823871e-17)
(-0.29410599165 0.0137618182658168 -7.59678986621722e-17)
(-0.2957889114828 0.0138130459798214 -1.66661419574863e-16)
(-0.297515702518881 0.0138656380380432 -1.34243298780513e-16)
(-0.299287990353974 0.0139202882581083 2.71760372767712e-17)
(-0.301106682382167 0.0139771040775884 -4.86645977029002e-17)
(-0.302973875945094 0.0140350824625931 -9.67125184887332e-17)
(-0.30489268294065 0.0140945687151477 -2.1326448963642e-16)
(-0.306865486596072 0.0141566188715817 -5.40666044889987e-17)
(-0.308892668019851 0.0142222219253458 6.57864882063174e-17)
(-0.310975782776355 0.0142895865886717 7.85795758610249e-17)
(-0.313118648344248 0.0143588483656722 5.30834111743216e-17)
(-0.315324048486858 0.0144314602382527 -2.2693632398267e-17)
(-0.317592151454091 0.0145092296245093 1.87598995344806e-16)
(-0.319922336358275 0.0145910358646588 2.88235970472947e-16)
(-0.32231751227059 0.0146752202261303 1.17171409912729e-16)
(-0.324781345882068 0.0147632967837964 -3.4512248370566e-17)
(-0.327314009078704 0.0148589114868362 3.73218031600875e-18)
(-0.329908857113095 0.0149634701545391 4.12658793521599e-16)
(-0.332564890191173 0.0150710489790709 2.35655659380882e-16)
(-0.335286559259483 0.0151827867425178 2.93254152547531e-16)
(-0.338073932738781 0.0153052383635859 -4.94424370755081e-17)
(-0.340907837145496 0.0154453185793181 -2.63362275641174e-16)
(-0.343776308500155 0.0155895761826554 -1.93498248934031e-16)
(-0.346684041099849 0.0157379068251655 4.90772145811303e-16)
(-0.349626091259011 0.0159001627786806 -5.91538011345563e-17)
(-0.352569645919797 0.0160895822508881 -1.41007899569958e-18)
(-0.355472716990234 0.016293757694588 1.25328669900064e-16)
(-0.358324885328267 0.0165000837685364 -1.9754128528317e-16)
(-0.361114660934674 0.0167195763064164 2.1208441018454e-16)
(-0.363792874402906 0.016978339737566 1.02446300693319e-16)
(-0.366245029010019 0.0172768896047856 1.155478502964e-16)
(-0.36841386469573 0.0175710909978042 -3.5331316479142e-17)
(-0.370277074247569 0.0178655063677914 2.44105394762433e-17)
(-0.371774417444361 0.018212804525387 6.62812134327497e-17)
(-0.372618940373829 0.0186951226753453 2.64447664084972e-16)
(-0.372433534191152 0.0192809947084505 -2.15117243853396e-17)
(-0.370810835842739 0.0199473947483085 -5.78808040063962e-17)
(-0.367367509064804 0.0208788902469534 -1.95264578618003e-16)
(-0.360565470264274 0.0223322660258289 -8.31492133739583e-17)
(-0.349018011233077 0.0237713347056569 -2.35841164225299e-16)
(-0.33258813363994 0.0249227807002967 -2.4152397441117e-16)
(-0.311118376366233 0.0259879157901042 -5.00355849114121e-16)
(-0.283370009290018 0.0270971660082847 -3.52680083693853e-17)
(-0.248731739629434 0.0276573147870156 1.0200518434663e-17)
(-0.208162122982305 0.0275076112131186 -4.15846112351061e-17)
(-0.162299999131918 0.0269855921777592 2.80340483844337e-16)
(-0.110679710445966 0.0261905229736985 1.45521684568344e-16)
(-0.0537913203815298 0.0246473132021945 -9.47817747055201e-17)
(0.00666994956458871 0.0224446624815645 2.17489397946091e-16)
(0.0698336993643173 0.019878071996932 1.69128712789173e-17)
(0.135293185584434 0.0169721230021092 3.44027904345379e-16)
(0.202018225592015 0.0136439397693598 -6.68374416840219e-17)
(0.26906566088875 0.0101301067608948 -1.47165515057915e-16)
(0.336068670159882 0.0065075042450387 -1.26258514549825e-16)
(0.402519493842824 0.00278481332242201 5.49429084415371e-17)