/*--------------------------------*- C++ -*----------------------------------*\
  =========                 |
  \\      /  F ield         | OpenFOAM: The Open Source CFD Toolbox
   \\    /   O peration     | Website:  https://openfoam.org
    \\  /    A nd           | Version:  8
     \\/     M anipulation  |
\*---------------------------------------------------------------------------*/
FoamFile
{
    version     2.0;
    format      ascii;
    class       surfaceVectorField;
    location    "0.0750000";
    object      Uf;
}
// * * * * * * * * * * * * * * * * * * * * * * * * * * * * * * * * * * * * * //

dimensions      [0 1 -1 0 0 0 0];

internalField   nonuniform List<vector> 
1691
(
(0.709633718562212 0.000291814880685005 1.14146191744623e-18)
(0.532919283621149 0.000992784050624174 -1.90659391415758e-18)
(0.709728435456533 0.000191396264442158 -9.34244322769008e-19)
(0.534000747845093 0.00101703042430508 2.9459777353952e-18)
(0.709817367397971 0.000183839945915491 -6.5101574404488e-19)
(0.5339899932213 0.00103607205889447 -6.53333467479734e-18)
(0.709775230889165 0.000199431561694703 5.64419851928927e-18)
(0.534020069661948 0.00110756611896799 3.71766226214181e-18)
(0.70966334283313 0.000206531488917866 7.78391760803472e-18)
(0.533813579941077 0.00114713496044306 1.10878064162803e-17)
(0.709519273374481 0.000211672341210572 7.80445102537933e-18)
(0.533532239360555 0.00116852103818805 1.5507179368105e-17)
(0.7093651666786 0.000215460361448642 1.98984971349824e-17)
(0.533218518582003 0.00118003809440928 1.63612768024475e-17)
(0.70920878361172 0.000218590598457679 1.44518345392407e-17)
(0.532894859672483 0.00118862200286537 3.53114557843972e-17)
(0.709050044993926 0.000221262023077667 -3.6365031491423e-18)
(0.532565766270452 0.00119521326500019 2.21667746112171e-17)
(0.708887870917759 0.000224175248957017 -1.10746557445243e-17)
(0.532231210079394 0.00120181808046404 -3.90164338210374e-18)
(0.708720796484608 0.000227402878476791 -2.77936661612105e-17)
(0.531889306327121 0.00120914505644383 -3.80071575592708e-17)
(0.708549886121026 0.000230190332342483 -2.55068570480357e-17)
(0.531539677054905 0.00121684736319687 -4.9333142475713e-17)
(0.708375044850952 0.000232321421751245 1.09251771676419e-17)
(0.531182762754849 0.00122303010705189 1.79452092780153e-17)
(0.708196557082954 0.000234354587065834 1.76173007045518e-17)
(0.53081828351297 0.00122885982737251 4.03216588452482e-17)
(0.708014526427865 0.000236673719559469 -2.55383460552097e-17)
(0.530445654918581 0.00123483945788514 -5.10612370990443e-18)
(0.707829514179148 0.000239175597465239 -6.80735135521333e-17)
(0.530065756643131 0.00124169090266308 -5.17897882084376e-17)
(0.7076388384062 0.000241617232096154 -4.17800985752143e-17)
(0.529677392943271 0.00124837071192879 -1.14228183504993e-16)
(0.70744139426818 0.000243882933249464 -3.34583139738358e-17)
(0.529278182493839 0.00125513536697538 -4.27203785049123e-17)
(0.707238622812507 0.000246062562607845 -4.05658094692854e-17)
(0.528867759040935 0.00126145014869326 -9.12832875098891e-17)
(0.707032747151592 0.000248337873125817 -1.47693586452618e-17)
(0.528448532631438 0.00126820283046939 -2.13697727700346e-17)
(0.706821132241864 0.000250726632648513 -1.02015428729109e-17)
(0.528020038673834 0.0012749932128695 -5.12667458630443e-17)
(0.706602040858431 0.000253097574144469 -1.32562598164216e-18)
(0.527579144419211 0.00128220198442385 -1.41588229696657e-18)
(0.706376944404418 0.0002554579973796 1.52017625184391e-18)
(0.52712543536402 0.00128916037700263 -1.55803631553831e-18)
(0.706147968661706 0.00025797193507101 -9.28977341958906e-18)
(0.526661303425158 0.00129663655997184 4.91503359174284e-18)
(0.705912987184844 0.000260548691098057 -2.25067088643088e-17)
(0.526186306740257 0.00130431851063922 -4.04546137644072e-17)
(0.705670498216106 0.000263213734831353 1.29762351219509e-17)
(0.525697492560697 0.00131220529870913 -5.31779611481316e-17)
(0.705420511918219 0.000266373940132831 2.14156104386625e-17)
(0.525194792704586 0.0013204447144041 5.61406910218902e-17)
(0.705163668167068 0.000269882390578334 -6.00019801865636e-18)
(0.52467816263847 0.00133020863709772 3.39873503097371e-17)
(0.704899090286326 0.000273169888209802 -7.03685272048656e-18)
(0.524147041585652 0.001339852915366 -1.24927236562147e-17)
(0.704626920356037 0.000276278536998613 -4.66225462496406e-17)
(0.523600714763372 0.00134922491618241 -1.77428201102179e-17)
(0.704349233550029 0.000279962116174301 -3.6440193733837e-17)
(0.523039067875182 0.00135867262567414 -1.05436285580061e-16)
(0.704067307068575 0.000284670674290857 1.41395508476504e-17)
(0.522465176369891 0.00137028817763746 -3.87761105617737e-17)
(0.703777354218353 0.000289718024693778 4.42339128484932e-17)
(0.52187674050024 0.00138339442369763 -1.16042960504424e-17)
(0.703478268515359 0.000294783824550905 2.99993871449935e-17)
(0.52126998948462 0.00139650551794366 8.89948518164357e-17)
(0.703171755022775 0.000300884988177297 5.13539409587846e-18)
(0.520646638332687 0.00141017500947845 -2.6324570658053e-17)
(0.702859519599859 0.000308356695475819 -3.919484227192e-17)
(0.520007693280706 0.00142710991026531 4.6773010818212e-17)
(0.702542023622774 0.000316044206341486 -6.63392605573245e-17)
(0.519353543394002 0.00144573459539897 -1.42504793276022e-16)
(0.702218676388811 0.000324078513002934 -3.08536277284162e-17)
(0.518684050664658 0.00146397351326345 -6.83490289869311e-17)
(0.701888348218576 0.000334370935966864 2.95337413417032e-19)
(0.517999144577188 0.00148433502491516 -5.45379560194038e-17)
(0.701552422199939 0.000347368089588971 -1.25810285130825e-17)
(0.517298230161954 0.00151049337818125 3.22370028342283e-17)
(0.70121387895356 0.000361025396668768 -6.15293065346052e-17)
(0.516583698311099 0.00154036874012338 -1.04977182044229e-16)
(0.700872024134065 0.000375018176841351 -5.17791142530499e-17)
(0.515857580802449 0.00156949339413434 -1.32659810756825e-16)
(0.700528691044457 0.000392388654047886 -5.18469885877572e-17)
(0.515119630952504 0.00160130444268569 -6.26230491118869e-17)
(0.700188280927068 0.000415290903606004 -8.70364179240429e-17)
(0.514376033300298 0.00164224663993193 -1.38430229504729e-16)
(0.699853768629883 0.000440337899314229 -1.02364072858375e-16)
(0.513630107035107 0.00169302833780107 -2.04466791576303e-16)
(0.699523006862557 0.000465641523528915 -5.73485674947708e-17)
(0.512882751017274 0.00174206578080644 -2.05629567947661e-16)
(0.699200221821095 0.000496265896789037 4.67060949987795e-17)
(0.51213854896838 0.00179485949951401 -2.64463147084982e-17)
(0.698892547568119 0.000537177920748625 5.91038432886007e-17)
(0.511407408349909 0.00186233440586326 8.70618483158351e-17)
(0.698612147988345 0.000582052549479579 2.82600832972439e-19)
(0.510699424108022 0.00194985233903056 -3.85714971051787e-17)
(0.698356991637529 0.000626793716806394 5.38313136322546e-17)
(0.510022511027459 0.00203181598994904 -2.21490067349984e-17)
(0.698134631587395 0.000681143748755661 1.09717314719985e-16)
(0.509388296843457 0.0021205008912363 2.38715275346789e-16)
(0.697955389644977 0.000753670080596764 8.54617572942344e-18)
(0.508815559748215 0.00223524445516338 1.01376309693845e-16)
(0.69783911907884 0.000833131886811562 -4.81187270325035e-17)
(0.508321329079786 0.00238442054026386 -1.25977469015194e-16)
(0.697789773398363 0.000911499604583 -3.31112184708984e-17)
(0.507924746933314 0.00252380077842644 -2.49269873034646e-17)
(0.697831624473592 0.00100399905702433 -3.55183928263955e-17)
(0.507658879350975 0.00267162267037124 -7.92717889262093e-17)
(0.697986149966686 0.00112913835085243 -4.85725600454708e-17)
(0.50757048389707 0.00285919439828085 1.46932810197777e-17)
(0.698303414512339 0.00127396580775681 -5.57569697564998e-17)
(0.507701248491022 0.00311463829202701 -1.05966274610647e-16)
(0.698853921524776 0.0014314627646112 -6.25722473048932e-17)
(0.50812489363606 0.00337098458064106 -1.14380649172785e-16)
(0.699856868726635 0.00165149978195952 -6.86560038002375e-17)
(0.509025296334662 0.00367637621527127 -1.3543738839737e-16)
(0.701591626810301 0.00203810796851116 -8.73630466809772e-18)
(0.510795476395669 0.00415149477742577 -1.07691845358475e-16)
(0.704361372434855 0.00253262452302395 -1.75236927009779e-17)
(0.513793410121439 0.00499728543222472 -1.83507269223663e-17)
(0.708199727540994 0.00302910058102267 3.39693615877139e-17)
(0.518237348765126 0.00583172144051047 -1.32757721901882e-16)
(0.713175828108031 0.00359906306847248 6.82488273094114e-17)
(0.524458899131233 0.0067025957346851 1.74265911145011e-16)
(0.719255403557 0.00427692124333503 4.12944914846384e-17)
(0.532657440546095 0.00776732983751867 3.19641818731021e-17)
(0.726464176507693 0.00486539409529789 5.40262183095716e-17)
(0.542733755944372 0.00894676337868752 1.57009451977555e-16)
(0.734822579552529 0.00527341033283622 3.29242037816653e-18)
(0.554806431045091 0.00970442106023304 -8.09382166006706e-18)
(0.744395345007249 0.00565649837255179 1.69506525379919e-17)
(0.569201081361144 0.0102888888121363 -5.41522175914329e-17)
(0.755119966559168 0.00599750041213144 6.45918194529774e-18)
(0.585720672730139 0.0108988754422324 6.4479336578836e-17)
(0.766956729934328 0.00613827361583854 -1.84825381319485e-17)
(0.604169061682269 0.0112820371218595 -2.25579322336712e-17)
(0.77983900042089 0.0060834660495971 -4.60011731776888e-17)
(0.624560874731997 0.0112114724915032 -5.10450194633502e-17)
(0.793619198118833 0.00594734265245215 -5.51901420778122e-17)
(0.646792244141307 0.0109239257968347 -1.32459744051951e-16)
(0.808154122569272 0.00567664495915624 3.03919642520767e-17)
(0.670388101579539 0.0105151514436426 -1.90382628853306e-17)
(0.823294017279496 0.00523502257832723 4.49587220844701e-17)
(0.69511779795485 0.00974730821508343 1.41068041145045e-16)
(0.838913239142794 0.00470534285796137 -2.7285312657881e-17)
(0.720885410209033 0.00876317302950689 5.07864947753808e-17)
(0.854874448089848 0.0040902468751831 -8.55070933148494e-17)
(0.74723002099079 0.0076664917077007 -1.47799977377543e-16)
(0.871106854476988 0.00341245462071278 -1.45429308336648e-17)
(0.774097971396721 0.00638462307708346 -2.19361274540278e-16)
(0.887515619786254 0.00272996932600644 1.91230574583981e-17)
(0.801242281726017 0.00507703958258796 6.44222403661682e-17)
(0.904126796318879 0.0020531420302517 -5.44476065113616e-17)
(0.828774738978158 0.00377269765441783 -5.769466382129e-17)
(0.920840468922066 0.00137919460634294 -6.91102616499572e-18)
(0.856168276847168 0.00247827011709576 -9.12941675458501e-17)
(0.937891079496143 0.000780355161206337 6.48878993513909e-17)
(0.884401073191243 0.00119162932487566 1.18474529340549e-17)
(0.955073821992179 0.000238874408047798 -4.17922416873864e-17)
(0.912102925176803 0.000144753156659223 1.08809579900902e-16)
(0.973123500202793 -0.00017106513169988 -6.55335629583283e-17)
(0.941978539564985 -0.000897504822884597 -2.94890212296908e-16)
(0.991158297877442 -0.000523484115035597 -1.50236334226264e-17)
(0.970108936311363 -0.00160372462066015 3.05016171210035e-17)
(1.01119810468993 -0.000707653625961179 -1.43598478494515e-17)
(1.00393889755782 -0.00237961610645534 -8.57453776612351e-17)
(1.0307737064931 -0.000875345319709574 2.75182986993487e-17)
(1.03235596673965 -0.00256806276185611 -1.57745190476899e-17)
(1.05234586939238 -0.00043783714628633 -9.11097109847054e-18)
(1.07496963887173 -0.0029126329155525 7.824546883193e-17)
(1.05216125943875 -0.00011204813943352 -3.3558906063922e-17)
(1.09088581510509 -0.000467259895570043 -5.93552570679714e-17)
(1.05534882117063 -1.86342845712598e-05 -1.8885260543182e-17)
(1.08463556510448 -0.000490299792973739 -1.86658821220096e-17)
(1.056129610882 0.000127352893517077 -1.75779640381091e-17)
(1.09103343267058 -7.12937895408227e-05 -5.25356315581086e-17)
(1.05756251441896 0.000225159463023616 -3.16764355506424e-18)
(1.08881935284509 7.57492468128595e-05 -1.76985400219382e-17)
(1.05794158235805 0.000260116115081648 -2.37645718470505e-18)
(1.09087817000886 0.000263933548883908 4.13872328045263e-17)
(1.05844943912515 0.00029543355289304 2.91046097792647e-18)
(1.08989918604447 0.000313266666471783 1.53289272764809e-17)
(1.0584228772597 0.000321238944653898 -1.12111006326247e-17)
(1.0903181264364 0.000415133102157944 2.3298043598568e-17)
(1.05834971167296 0.00032063144422005 -8.25294423799233e-18)
(1.08947461837293 0.000439528803308099 -3.97074264648446e-17)
(1.05810374596373 0.000317193126088288 5.49468152263244e-18)
(1.08915723176709 0.000462451432119675 1.72940558572968e-17)
(1.05783701424228 0.000305696214853062 4.78391070325425e-19)
(1.08838633867475 0.000464275731076828 -1.22224271241073e-17)
(1.05751713390373 0.000288489549181122 5.58764900443885e-18)
(1.08782329236629 0.000455645358375316 1.49576966534351e-17)
(1.05713610010162 0.000286525943041364 8.22550392893343e-19)
(1.08705962271668 0.000437589046393487 1.62375139419893e-18)
(1.05653129268909 0.00030094291418554 -1.88566020312596e-18)
(1.08636734565279 0.000420503473920229 -4.52881797017398e-18)
(1.08507560252236 0.000292904449577038 -3.16540704643758e-18)
(0.355866139237835 0.00200042603228214 -9.80028829244041e-20)
(0.21534719986235 0.00312061519137006 -4.08187040625245e-18)
(0.356436486110471 0.00208889148106987 -2.68097481246718e-18)
(0.217660041012503 0.00336141074452218 -1.79910940572139e-18)
(0.356608323650831 0.00219158612191914 -2.15006886104374e-18)
(0.217738987127055 0.003582554919691 -5.71514545998913e-18)
(0.356440170577449 0.00229733227162276 9.19321871156547e-18)
(0.217714728943416 0.00381817995927072 5.91259071785997e-18)
(0.356082729803645 0.00235621343669359 1.88708796162517e-17)
(0.217299117120885 0.0039501006285413 1.8090010496546e-17)
(0.355644441965669 0.00238599454715967 2.41392652986356e-17)
(0.216758822190464 0.00401292276656929 3.14572364476059e-17)
(0.35517568502802 0.00240291342276297 3.18692611763266e-17)
(0.216163628107546 0.00404320680667662 3.23432978866471e-17)
(0.354694853392105 0.00241516336700403 4.31232745340265e-17)
(0.215548673920406 0.00406221660591173 4.65091579332993e-17)
(0.354204882933068 0.00242589648438027 2.19542376083311e-17)
(0.214921960174494 0.00407711172320983 5.11430298907688e-17)
(0.353705197789005 0.00243705416226693 -3.09981371298099e-17)
(0.214283699509746 0.00409166702110462 -6.61818179785214e-18)
(0.353195268813937 0.00244888450975741 -5.97091240383276e-17)
(0.213632995698402 0.00410731653782566 -5.26614239888313e-17)
(0.352675144850489 0.00246007196310101 -5.63920334969168e-18)
(0.212969903157855 0.00412335359687427 -4.38103076010605e-17)
(0.352143491700005 0.00247017222773374 4.75478663417711e-17)
(0.212293562121116 0.00413786355924924 5.86042468918624e-17)
(0.351599693442372 0.00248015293041697 1.74879939735783e-17)
(0.211602405368145 0.0041518312614327 4.88070241338433e-17)
(0.351043760660818 0.00249076974168794 -3.14961882041821e-17)
(0.210895802596365 0.0041661887059557 -1.63434051887511e-17)
(0.350475819420529 0.00250186324169811 -9.82211134654425e-17)
(0.210174361672917 0.00418156629795776 -5.54219439908668e-17)
(0.349893950494444 0.00251296842102741 -1.15281622556519e-16)
(0.209437106015226 0.00419709439377635 -1.35601466130415e-16)
(0.349296878673635 0.00252389495156472 -1.00935596684438e-16)
(0.208681903848116 0.00421272439739493 -1.30738036211522e-16)
(0.348684728372278 0.00253484939015813 -7.20285894115455e-17)
(0.207907809895266 0.00422805761750208 -1.06510935957283e-16)
(0.348058196402044 0.00254614163476296 -5.81127413158116e-17)
(0.207115691460462 0.0042438699907723 -2.98346057907571e-17)
(0.347415527593354 0.00255778666275302 -4.24707000440381e-17)
(0.206304917861623 0.00426008951591188 -6.59322363994437e-17)
(0.346755235785222 0.0025696022072945 -1.64987054293889e-18)
(0.205473138389151 0.00427690204759374 8.0133076991642e-18)
(0.346077358910023 0.0025816503793606 1.85592471645174e-18)
(0.204619348025544 0.00429371020328097 1.03653343968498e-17)
(0.345382524136394 0.00259420907507135 -2.64397011608935e-17)
(0.203744293033521 0.00431120579950551 -2.14187043095253e-17)
(0.344669118733994 0.00260712287523772 -7.1338777750488e-17)
(0.202847386684908 0.0043293124080699 -8.46313934651462e-17)
(0.34393537386203 0.00262050620849148 -9.77852425144103e-18)
(0.201926057750226 0.00434788401965536 -1.14963399840962e-16)
(0.343180699091397 0.00263514458912544 6.88143226342308e-17)
(0.200979137184916 0.00436733014801571 7.54709393526367e-17)
(0.342405387206669 0.00265074008208786 2.74722743723171e-17)
(0.200006704214069 0.00438879616822958 6.09540552171914e-17)
(0.341608111391667 0.00266620840334081 -2.32703767309624e-17)
(0.199008191018951 0.00441054409624821 2.26184488604553e-17)
(0.340787704791671 0.00268168438721493 -7.69308506317577e-17)
(0.197981619640687 0.00443212542684638 -2.87446609857358e-17)
(0.339944502081357 0.00269870159724065 -1.07800182198007e-16)
(0.196925481712892 0.00445427681671812 -1.15076903058278e-16)
(0.339079342281228 0.00271814836218544 -6.46922237078735e-17)
(0.195841397749319 0.00447945375612484 -5.80407236554336e-17)
(0.338190048503774 0.0027387207202358 3.34506869308636e-17)
(0.194728769946739 0.00450713736151586 -7.78410365747515e-17)
(0.337274509024039 0.00275986386482584 3.22938528278495e-17)
(0.193584247027321 0.00453526501984446 1.36851255011738e-16)
(0.33633291114174 0.00278361225200453 1.55943315585626e-17)
(0.192406681093971 0.00456474899274713 -8.06495359707468e-17)
(0.335367170105899 0.00281064867401687 -5.7248487392724e-17)
(0.191197300136805 0.00459886964394114 1.17630204298456e-16)
(0.334377384238058 0.00283874687430835 -1.44491569469881e-16)
(0.189957856705215 0.00463575263504819 -1.59460832387637e-16)
(0.333361566371029 0.00286825188192645 -9.21681657566638e-17)
(0.188686415501478 0.00467282179885806 -6.92713334129799e-17)
(0.332319333815769 0.00290309276246141 -2.23442293246973e-17)
(0.18738071831419 0.00471354153403835 -1.13171168768854e-16)
(0.331254131710672 0.00294422891732961 -6.08151749408036e-17)
(0.186042864772173 0.00476267847062559 -3.78164328431135e-17)
(0.330168749347385 0.00298756059769924 -1.76544316165178e-16)
(0.184678260003581 0.00481732438435303 -2.17784901352698e-16)
(0.3290616101989 0.00303251454931167 -1.43488755903208e-16)
(0.183286821428758 0.00487204761389977 -2.80688279956829e-16)
(0.327934966238419 0.00308550160253239 -1.49783111063902e-16)
(0.181865544352734 0.00493129599164014 -1.1479096160171e-16)
(0.326797383983714 0.00315099598402712 -2.5659685135047e-16)
(0.180422177085271 0.00500423161230745 -2.72145496467636e-16)
(0.325656212820853 0.00322206956728905 -3.08293422073921e-16)
(0.17896969564279 0.0050907066227787 -4.0760419724217e-16)
(0.324510270368027 0.0032949162745307 -1.74271678043757e-16)
(0.177510378409097 0.00517678659543551 -4.05313054388723e-16)
(0.323365733604123 0.00338032636336583 1.43209314984221e-17)
(0.176042632319493 0.0052686924529653 -4.96061378027025e-17)
(0.322240197126782 0.00348860707839189 -1.13581913208679e-17)
(0.174580438035586 0.0053833248965231 7.16585356214631e-17)
(0.321155060297549 0.00360664020349525 -6.10847003989076e-17)
(0.173155381752726 0.00552426247104575 -6.18993920155384e-17)
(0.32011258283727 0.00372598521907686 1.64233321356629e-16)
(0.171779522633871 0.00566124551641329 -4.94494080546141e-17)
(0.319128369474982 0.00386742976167869 2.30014840761512e-16)
(0.170453787123328 0.00580761435674703 4.97024881055737e-16)
(0.318237440653984 0.00404886310089483 -3.43662574383181e-17)
(0.169209501150444 0.00599403432162624 1.15717132010303e-16)
(0.317483379107409 0.00424658643028645 -1.02413782616058e-16)
(0.168109956147971 0.006225501796585 -1.75410733058196e-16)
(0.316881457124831 0.00444360967437918 -7.14578855928468e-17)
(0.167186434765869 0.00644851013906489 -4.5789439407154e-17)
(0.316472683894228 0.00467298656435183 -2.85493838435381e-17)
(0.166455299383651 0.00668158660661536 -8.74576187957415e-17)
(0.31633047658927 0.00497386718162939 -4.33315452097491e-17)
(0.165981100978242 0.0069772462070794 3.60821928128489e-17)
(0.316567423245633 0.00532002241689094 -1.64908597982101e-16)
(0.165900105346854 0.0073620281293547 -1.1437194439743e-16)
(0.317296393881005 0.00569872064573315 -1.87684289682298e-16)
(0.166320714499044 0.00775891432195603 -2.76839488913725e-16)
(0.318800479499886 0.00622595650997869 -1.74641320941127e-16)
(0.167401454293237 0.00822256941539196 -2.29984685475652e-16)
(0.321556339551411 0.00711811685402568 -1.17196884700205e-16)
(0.169528078836603 0.00896726428265196 -1.50361381100352e-16)
(0.326178046585133 0.00824772498548837 -1.34635942369823e-16)
(0.173516478902258 0.0102024414412776 -9.85757989003565e-17)
(0.332946225528214 0.00938837788364487 9.05085828212173e-18)
(0.179922834601568 0.0114585834854102 -1.97969654903029e-16)
(0.34219077898457 0.010681372699527 1.37575607672653e-16)
(0.188999507470902 0.0127508296971968 3.0028724666695e-16)
(0.354273436205086 0.0121788977396337 1.48735577599791e-16)
(0.201261588826461 0.0143246437608955 1.26494875673405e-16)
(0.36946893241314 0.0134518204350942 9.44147151237261e-17)
(0.217332172216236 0.0159870542830135 2.47742619066926e-16)
(0.387689672056389 0.0143083952167287 -6.59922185671569e-17)
(0.237223306809328 0.017049089952939 -9.22177644728025e-17)
(0.408978242431097 0.0150634642956265 -6.31423976353485e-18)
(0.260729156502953 0.0178132022099096 -1.14259494881035e-16)
(0.43338786778192 0.0156734326946265 3.53209521990692e-17)
(0.288044716215515 0.0185639821384334 7.23568175982769e-17)
(0.460760455800732 0.0158032746062957 -5.5277104284089e-17)
(0.319245013664604 0.0189262009187344 2.59312210944507e-17)
(0.490716417931772 0.0154699057812661 -1.37914365042142e-16)
(0.353847212366108 0.0186053213924172 -1.72419564232619e-16)
(0.522922068083482 0.014906178409414 -9.6187355285112e-17)
(0.391312705378599 0.0179311302154927 -1.9637223821183e-16)
(0.557072617030213 0.0140072788450635 9.19005407669856e-17)
(0.431389765753476 0.0170124748010751 -3.97981002779173e-17)
(0.592706008325505 0.0127114126582904 1.46760403822242e-16)
(0.473571959649029 0.0155646601944604 2.78639717981655e-16)
(0.62942987123477 0.0111926386135246 -6.98966424850798e-17)
(0.517288720909774 0.0137733368188426 9.37630724020255e-17)
(0.666914429722286 0.00947024770562463 -2.81232071862817e-16)
(0.562029052044477 0.011784839345342 -2.94670671510619e-16)
(0.704882722688255 0.00760711956548735 -1.39517381240819e-16)
(0.607568039308551 0.00953396181913514 -3.44026497060669e-16)
(0.74316332554403 0.00572886325041844 -1.24446706333908e-17)
(0.653313371575739 0.00723998675224996 6.31080035436304e-17)
(0.781715219318361 0.00386098224477987 -9.43574807147835e-17)
(0.699667328768326 0.00494152789120046 -1.15666182693324e-16)
(0.82044546410037 0.00200787036791529 -7.17129327999325e-17)
(0.745699147252275 0.00266747575046753 -1.12675801073305e-16)
(0.859564786946105 0.000328940947073934 5.61508336933508e-17)
(0.79282268907335 0.000415971602859968 -7.83767526491341e-17)
(0.899205362367234 -0.00121069220363345 -1.44500740734836e-16)
(0.838836969318071 -0.00147536489132215 1.51260811632695e-16)
(0.940045500395819 -0.00248215023139354 -1.95730928365409e-16)
(0.888455140431938 -0.00337944530401072 -5.35446628155926e-16)
(0.981924642541019 -0.00361027453778073 -4.0554865928528e-17)
(0.934858911264601 -0.00474902910956546 6.25694025799168e-17)
(1.02658109800157 -0.00436010041284346 -8.56273091606348e-17)
(0.990745738861176 -0.00629012191152022 -1.68592278265362e-16)
(1.07305335058791 -0.00482779610118219 3.54445412025453e-17)
(1.03724838749542 -0.00683890273728341 -6.66788999844066e-17)
(1.1185007226377 -0.00268893342799772 2.69294489508155e-17)
(1.10759280587442 -0.00735383020984054 1.54662181770313e-16)
(1.11901693246489 -0.000617483929867627 -4.43150580710462e-17)
(1.13320203021135 -0.000702723731586635 -3.14508263490155e-17)
(1.12127867085917 -0.000329863785444932 -5.18248346827038e-17)
(1.12115116185378 -0.000761520391362189 -3.67358028876073e-17)
(1.1215733551598 3.73081678280899e-05 -5.2149524753709e-17)
(1.130390574619 -9.93378882744756e-05 -7.48378117060642e-17)
(1.12201673262892 0.00028235512140816 2.6568536281651e-17)
(1.12549735760848 9.75744492490798e-05 -2.56176248731214e-17)
(1.12167176596239 0.000410578180616626 5.83710473913736e-17)
(1.12821090432218 0.000394467955822035 9.30315533478902e-17)
(1.12131663130619 0.000514479250267404 3.53705106671083e-17)
(1.1258356604439 0.000467012431446004 5.46123992718751e-17)
(1.12057454560313 0.00059649180122597 -5.3407012072958e-18)
(1.12609143346816 0.000618578092802901 3.30721480776629e-17)
(1.11975830627338 0.000623268840306398 -1.40312536404749e-17)
(1.12442412695672 0.000656515486892307 -5.42351304802113e-17)
(1.11881336548584 0.000637926426094756 -4.05459087327883e-19)
(1.12370608245346 0.000692681286064692 1.54404784400366e-17)
(1.11784498421296 0.000633525951558285 2.2773367011774e-18)
(1.12227979524728 0.000694414084842795 -2.66079876827329e-17)
(1.11684534341832 0.00061696568442296 1.09283563681331e-17)
(1.12125497054584 0.000682960990954418 2.37528967661266e-17)
(1.11581742791394 0.000618337812216634 -3.70116334695743e-18)
(1.11991021608697 0.000657047113062364 -9.86864152067363e-18)
(1.11471674859322 0.000596394662526249 -5.78741628403089e-18)
(1.11888864586061 0.000625657088795628 -9.43119996208682e-18)
(1.11753835394395 0.000408899098085318 -5.56511686451894e-18)
(0.0762563050789393 0.00440927059925391 -5.80386287668888e-18)
(-0.0276395001434726 0.0056913780796271 -4.73555017224707e-18)
(0.0774936322490608 0.0048936464793808 -4.85125354710865e-18)
(-0.0247364750582304 0.00608093705692126 -6.99297131729672e-18)
(0.0776839666835246 0.00529510321598336 2.39248043679154e-18)
(-0.0246879310179817 0.00680631157379478 -1.22039137624603e-18)
(0.0773552970085049 0.00556387437288308 1.48605508223943e-17)
(-0.0248805325390824 0.00728583742180336 9.40950826170215e-18)
(0.0767713290724024 0.00570283843215645 3.07571330905626e-17)
(-0.0255079196737541 0.00753770569800981 2.48306144186141e-17)
(0.0760823377574993 0.00576743040262648 3.97300567346017e-17)
(-0.0262679518958245 0.00765086100143446 4.97701977406188e-17)
(0.0753516790962932 0.00580054461360633 4.70795454174732e-17)
(-0.0270871393711736 0.00770297943304865 4.45166037695962e-17)
(0.0746020837116585 0.00582272707600039 5.45875888658587e-17)
(-0.027930355332178 0.0077336075896491 4.71292680238117e-17)
(0.0738381399296334 0.00584189942216696 2.24396236541201e-17)
(-0.0287895737107964 0.00775752262527244 3.80353597549584e-17)
(0.073059782154587 0.00586138894862024 -2.8378066023642e-17)
(-0.0296643934856783 0.00778067305869697 -1.52370214213584e-17)
(0.0722668742404097 0.0058817035390001 -3.66478402265121e-17)
(-0.0305552699882154 0.00780500143204367 -4.5987567388411e-17)
(0.0714589731217683 0.00590152705287699 2.07846266290253e-17)
(-0.0314621546792102 0.00782986620114878 -1.43853466092288e-17)
(0.0706342139496031 0.00592036668316017 5.98888051405355e-17)
(-0.0323864193625948 0.00785354466981793 8.98110993514315e-17)
(0.0697913913423203 0.0059391837503282 1.48049503990239e-17)
(-0.0333300765290176 0.00787681160367338 3.64452281793678e-17)
(0.0689303164264832 0.00595879425284903 -4.04012103256829e-17)
(-0.0342939404389786 0.0079006192221594 -3.7775290618035e-17)
(0.0680508648451063 0.00597909018470209 -9.29846625112748e-17)
(-0.0352777919197255 0.00792554440336236 -5.88436525127954e-17)
(0.0671514546635657 0.00599960068253985 -1.51182122414128e-16)
(-0.0362825117226365 0.00795086468904345 -1.23042433172163e-16)
(0.0662306200431688 0.00602009916039188 -1.36383922370267e-16)
(-0.03730995368314 0.00797644798551423 -1.67013363236361e-16)
(0.065287775941383 0.00604078954756871 -6.40852321440834e-17)
(-0.0383613828159694 0.00800199281390328 -8.95431586638502e-17)
(0.0643227861177669 0.0060620317784196 -3.76755247500939e-17)
(-0.0394369354280461 0.00802817204220448 -2.38064671350091e-17)
(0.063334171568895 0.0060838877224674 -1.5148134474094e-17)
(-0.0405374460083091 0.00805500988891587 -4.77383411003071e-17)
(0.0623204184217044 0.00610616295618227 2.01130853583339e-17)
(-0.0416647919741004 0.00808263613529636 -2.35893796992047e-18)
(0.0612808124035869 0.00612892006782542 -1.30510667024487e-17)
(-0.0428202954714984 0.00811056874576952 -1.14255135717527e-17)
(0.0602151272523998 0.00615247363337989 -7.99775350890766e-17)
(-0.0440042675239111 0.00813941130092122 -7.24624830759436e-17)
(0.0591218248000262 0.00617672258725348 -1.28541297418964e-16)
(-0.0452175411683615 0.00816916731454021 -1.29918845133085e-16)
(0.0579989334969523 0.00620182780748259 -2.92209775754461e-17)
(-0.0464623736374751 0.00819969932153605 -1.90832183310099e-16)
(0.0568455458388378 0.00622859907279816 6.75631622419713e-17)
(-0.0477404091969318 0.00823148104112494 6.95560834304338e-17)
(0.0556616477321149 0.00625671983414392 5.60787933919707e-17)
(-0.0490517792638074 0.00826553566636274 8.73839129864576e-17)
(0.0544455289198783 0.00628505952789749 1.71178936961801e-17)
(-0.0503972409020269 0.00830026109885118 5.57114736704186e-17)
(0.0531950597083755 0.00631379033610298 -6.71303315497013e-17)
(-0.0517793294600889 0.0083351715671874 -8.16659787230009e-17)
(0.0519095376446664 0.00634460900776072 -6.49987385817346e-17)
(-0.0532003030955005 0.00837110258774408 -1.46643729446248e-16)
(0.0505895724154576 0.00637853801792444 -7.12745734497881e-17)
(-0.0546596445623469 0.00841044276095648 -1.01113218900427e-17)
(0.0492337145769273 0.00641424120643303 2.62489407147455e-17)
(-0.0561572784669226 0.00845278796918381 -1.16708893532996e-16)
(0.0478391990773069 0.00645114300455233 2.31454907805872e-17)
(-0.0576960592031944 0.00849609596597538 1.71648897087914e-16)
(0.0464053225220497 0.00649145744081217 2.20880820030298e-17)
(-0.059278445869863 0.00854134221203218 -8.8831025204516e-17)
(0.0449341026713583 0.00653592288514847 1.4658602280279e-17)
(-0.0609034680574263 0.0085917312236551 1.50848359034862e-16)
(0.0434253980160541 0.00658222076215185 -8.37411777121766e-17)
(-0.0625690726893061 0.00864546938819041 -1.25176096271307e-16)
(0.0418761749702507 0.00663086699256446 -9.04294177565648e-17)
(-0.0642778872405772 0.00870005613499075 2.48771036369448e-17)
(0.0402863617072536 0.00668624599675099 -1.2866245210781e-16)