/*--------------------------------*- C++ -*----------------------------------*\
| =========                 |                                                 |
| \\      /  F ield         | OpenFOAM: The Open Source CFD Toolbox           |
|  \\    /   O peration     | Version:  4.1                                   |
|   \\  /    A nd           | Web:      www.OpenFOAM.org                      |
|    \\/     M anipulation  |                                                 |
\*---------------------------------------------------------------------------*/
FoamFile
{
    version     2.0;
    format      ascii;
    class       pointVectorField;
    location    "0.0090";
    object      pointDisplacement;
}
// * * * * * * * * * * * * * * * * * * * * * * * * * * * * * * * * * * * * * //

dimensions      [0 1 0 0 0 0 0];

internalField   nonuniform List<vector> 
1885
(
(0 0 0)
(4.7696e-06 -6.3279e-06 7.6533e-10)
(9.3385e-06 -1.3093e-05 1.5603e-09)
(1.3652e-05 -2.0274e-05 2.3775e-09)
(1.7862e-05 -2.7417e-05 3.1873e-09)
(2.2194e-05 -3.3993e-05 3.9624e-09)
(2.6789e-05 -3.9714e-05 4.6747e-09)
(3.1662e-05 -4.4544e-05 5.2978e-09)
(3.6763e-05 -4.8517e-05 5.8144e-09)
(4.2022e-05 -5.1625e-05 6.2289e-09)
(4.7356e-05 -5.3816e-05 6.5477e-09)
(5.2669e-05 -5.5028e-05 6.7524e-09)
(5.786e-05 -5.5216e-05 6.8219e-09)
(0 0 0)
(4.7318e-06 -5.7143e-06 7.1537e-07)
(9.2905e-06 -1.1778e-05 1.474e-06)
(1.3631e-05 -1.8171e-05 2.2732e-06)
(1.7883e-05 -2.4521e-05 3.0662e-06)
(2.2246e-05 -3.0386e-05 3.798e-06)
(2.685e-05 -3.551e-05 4.4371e-06)
(3.1715e-05 -3.9845e-05 4.9775e-06)
(3.68e-05 -4.3408e-05 5.4213e-06)
(4.2038e-05 -4.6192e-05 5.7676e-06)
(4.7347e-05 -4.815e-05 6.0111e-06)
(5.2634e-05 -4.9231e-05 6.1457e-06)
(5.78e-05 -4.9392e-05 6.1657e-06)
(0 0 0)
(4.7062e-06 -5.063e-06 1.6305e-06)
(9.2582e-06 -1.0407e-05 3.3513e-06)
(1.3616e-05 -1.6013e-05 5.1559e-06)
(1.7897e-05 -2.1574e-05 6.9451e-06)
(2.2282e-05 -2.6722e-05 8.6001e-06)
(2.6891e-05 -3.1234e-05 1.005e-05)
(3.1751e-05 -3.5056e-05 1.1279e-05)
(3.6825e-05 -3.8197e-05 1.2288e-05)
(4.2049e-05 -4.0647e-05 1.3075e-05)
(4.7341e-05 -4.2368e-05 1.3627e-05)
(5.261e-05 -4.3317e-05 1.3932e-05)
(5.7758e-05 -4.3454e-05 1.3975e-05)
(0 0 0)
(4.6919e-06 -4.3003e-06 2.5532e-06)
(9.2402e-06 -8.8263e-06 5.2408e-06)
(1.3608e-05 -1.3561e-05 8.0523e-06)
(1.7906e-05 -1.8253e-05 1.0838e-05)
(2.2303e-05 -2.2602e-05 1.3419e-05)
(2.6917e-05 -2.642e-05 1.5684e-05)
(3.1774e-05 -2.9658e-05 1.7606e-05)
(3.6841e-05 -3.2318e-05 1.9184e-05)
(4.2055e-05 -3.4391e-05 2.0414e-05)
(4.7337e-05 -3.5847e-05 2.1277e-05)
(5.2594e-05 -3.6648e-05 2.1752e-05)
(5.7732e-05 -3.6761e-05 2.1819e-05)
(0 0 0)
(4.6874e-06 -3.4537e-06 3.4538e-06)
(9.2346e-06 -7.0856e-06 7.0859e-06)
(1.3606e-05 -1.0882e-05 1.0882e-05)
(1.791e-05 -1.4643e-05 1.4643e-05)
(2.2311e-05 -1.8129e-05 1.8129e-05)
(2.6926e-05 -2.1191e-05 2.1192e-05)
(3.1782e-05 -2.3789e-05 2.379e-05)
(3.6847e-05 -2.5923e-05 2.5924e-05)
(4.2057e-05 -2.7586e-05 2.7588e-05)
(4.7335e-05 -2.8753e-05 2.8754e-05)
(5.2589e-05 -2.9395e-05 2.9396e-05)
(5.7723e-05 -2.9485e-05 2.9486e-05)
(0 0 0)
(4.6919e-06 -2.5531e-06 4.3004e-06)
(9.2402e-06 -5.2405e-06 8.8265e-06)
(1.3608e-05 -8.0518e-06 1.3561e-05)
(1.7906e-05 -1.0838e-05 1.8254e-05)
(2.2303e-05 -1.3418e-05 2.2602e-05)
(2.6917e-05 -1.5683e-05 2.642e-05)
(3.1774e-05 -1.7605e-05 2.9658e-05)
(3.6841e-05 -1.9183e-05 3.2319e-05)
(4.2055e-05 -2.0413e-05 3.4392e-05)
(4.7337e-05 -2.1276e-05 3.5848e-05)
(5.2594e-05 -2.175e-05 3.6648e-05)
(5.7732e-05 -2.1817e-05 3.6761e-05)
(0 0 0)
(4.7063e-06 -1.6303e-06 5.063e-06)
(9.2582e-06 -3.351e-06 1.0407e-05)
(1.3616e-05 -5.1554e-06 1.6013e-05)
(1.7897e-05 -6.9445e-06 2.1574e-05)
(2.2282e-05 -8.5993e-06 2.6722e-05)
(2.6891e-05 -1.0049e-05 3.1234e-05)
(3.1751e-05 -1.1278e-05 3.5057e-05)
(3.6825e-05 -1.2287e-05 3.8197e-05)
(4.2049e-05 -1.3073e-05 4.0647e-05)
(4.7341e-05 -1.3626e-05 4.2369e-05)
(5.261e-05 -1.393e-05 4.3317e-05)
(5.7758e-05 -1.3974e-05 4.3454e-05)
(0 0 0)
(4.7318e-06 -7.1525e-07 5.7143e-06)
(9.2905e-06 -1.4738e-06 1.1778e-05)
(1.3631e-05 -2.2728e-06 1.8171e-05)
(1.7883e-05 -3.0656e-06 2.4521e-05)
(2.2246e-05 -3.7973e-06 3.0386e-05)
(2.685e-05 -4.4363e-06 3.551e-05)
(3.1715e-05 -4.9765e-06 3.9845e-05)
(3.68e-05 -5.4202e-06 4.3408e-05)
(4.2038e-05 -5.7663e-06 4.6192e-05)
(4.7347e-05 -6.0098e-06 4.815e-05)
(5.2634e-05 -6.1443e-06 4.9231e-05)
(5.78e-05 -6.1643e-06 4.9392e-05)
(0 0 0)
(4.7696e-06 -7.0915e-10 6.3279e-06)
(9.3385e-06 -1.4365e-09 1.3093e-05)
(1.3652e-05 -2.1689e-09 2.0274e-05)
(1.7862e-05 -2.8791e-09 2.7417e-05)
(2.2194e-05 -3.544e-09 3.3993e-05)
(2.6789e-05 -4.1346e-09 3.9714e-05)
(3.1662e-05 -4.6242e-09 4.4544e-05)
(3.6763e-05 -5.0122e-09 4.8517e-05)
(4.2022e-05 -5.327e-09 5.1625e-05)
(4.7356e-05 -5.5884e-09 5.3815e-05)
(5.2669e-05 -5.7803e-09 5.5028e-05)
(5.786e-05 -5.8707e-09 5.5216e-05)
(0 0 0)
(4.7318e-06 -5.7144e-06 -7.1326e-07)
(9.2905e-06 -1.1778e-05 -1.4698e-06)
(1.3631e-05 -1.8172e-05 -2.2667e-06)
(1.7883e-05 -2.4522e-05 -3.0574e-06)
(2.2246e-05 -3.0386e-05 -3.7871e-06)
(2.685e-05 -3.5511e-05 -4.4244e-06)
(3.1715e-05 -3.9846e-05 -4.9631e-06)
(3.68e-05 -4.3409e-05 -5.4055e-06)
(4.2038e-05 -4.6192e-05 -5.7507e-06)
(4.7347e-05 -4.815e-05 -5.9934e-06)
(5.2634e-05 -4.9232e-05 -6.1274e-06)
(5.78e-05 -4.9393e-05 -6.1472e-06)
(0 0 0)
(4.6793e-06 -4.7659e-06 2.1941e-09)
(9.2248e-06 -9.7706e-06 4.4613e-09)
(1.3602e-05 -1.4994e-05 6.7793e-09)
(1.7914e-05 -2.017e-05 9.0698e-09)
(2.2322e-05 -2.4974e-05 1.1245e-08)
(2.6939e-05 -2.9201e-05 1.3211e-08)
(3.1793e-05 -3.2789e-05 1.4898e-08)
(3.6855e-05 -3.5737e-05 1.6282e-08)
(4.2061e-05 -3.8034e-05 1.7367e-08)
(4.7334e-05 -3.9646e-05 1.8149e-08)
(5.2583e-05 -4.0533e-05 1.8608e-08)
(5.771e-05 -4.0657e-05 1.871e-08)
(0 0 0)
(4.6581e-06 -4.0786e-06 8.1741e-07)
(9.1982e-06 -8.3436e-06 1.6723e-06)
(1.3591e-05 -1.2776e-05 2.5609e-06)
(1.7928e-05 -1.7164e-05 3.4403e-06)
(2.2355e-05 -2.1243e-05 4.2575e-06)
(2.6978e-05 -2.4842e-05 4.9783e-06)
(3.1829e-05 -2.7901e-05 5.591e-06)
(3.688e-05 -3.0414e-05 6.0945e-06)
(4.2072e-05 -3.2371e-05 6.4862e-06)
(4.7328e-05 -3.3742e-05 6.7607e-06)
(5.2559e-05 -3.4495e-05 6.9113e-06)
(5.7669e-05 -3.4597e-05 6.9316e-06)
(0 0 0)
(4.646e-06 -3.3172e-06 1.6587e-06)
(9.183e-06 -6.778e-06 3.3893e-06)
(1.3584e-05 -1.0366e-05 5.1841e-06)
(1.7936e-05 -1.3916e-05 6.9594e-06)
(2.2374e-05 -1.7219e-05 8.611e-06)
(2.7002e-05 -2.0138e-05 1.007e-05)
(3.1851e-05 -2.2621e-05 1.1312e-05)
(3.6895e-05 -2.4662e-05 1.2332e-05)
(4.2078e-05 -2.6249e-05 1.3125e-05)
(4.7324e-05 -2.7361e-05 1.3681e-05)
(5.2544e-05 -2.797e-05 1.3985e-05)
(5.7644e-05 -2.8051e-05 1.4026e-05)
(0 0 0)
(4.6421e-06 -2.5019e-06 2.5021e-06)
(9.1781e-06 -5.1103e-06 5.1107e-06)
(1.3582e-05 -7.8131e-06 7.8137e-06)
(1.7939e-05 -1.0486e-05 1.0487e-05)
(2.2381e-05 -1.2974e-05 1.2975e-05)
(2.701e-05 -1.5173e-05 1.5174e-05)
(3.1858e-05 -1.7045e-05 1.7046e-05)
(3.69e-05 -1.8583e-05 1.8584e-05)
(4.2081e-05 -1.9779e-05 1.9781e-05)
(4.7323e-05 -2.0616e-05 2.0618e-05)
(5.2539e-05 -2.1075e-05 2.1077e-05)
(5.7635e-05 -2.1136e-05 2.1138e-05)
(0 0 0)
(4.646e-06 -1.6584e-06 3.3174e-06)
(9.183e-06 -3.3888e-06 6.7783e-06)
(1.3584e-05 -5.1833e-06 1.0367e-05)
(1.7936e-05 -6.9582e-06 1.3917e-05)
(2.2374e-05 -8.6096e-06 1.722e-05)
(2.7002e-05 -1.0068e-05 2.0139e-05)
(3.1851e-05 -1.131e-05 2.2622e-05)
(3.6895e-05 -1.233e-05 2.4663e-05)
(4.2078e-05 -1.3123e-05 2.625e-05)
(4.7324e-05 -1.3678e-05 2.7362e-05)
(5.2544e-05 -1.3983e-05 2.7971e-05)
(5.7644e-05 -1.4023e-05 2.8052e-05)
(0 0 0)
(4.6581e-06 -8.1713e-07 4.0787e-06)
(9.1982e-06 -1.6717e-06 8.3438e-06)
(1.3591e-05 -2.56e-06 1.2776e-05)
(1.7928e-05 -3.4391e-06 1.7164e-05)
(2.2355e-05 -4.256e-06 2.1243e-05)
(2.6978e-05 -4.9765e-06 2.4842e-05)
(3.1829e-05 -5.589e-06 2.7901e-05)
(3.688e-05 -6.0922e-06 3.0415e-05)
(4.2072e-05 -6.4837e-06 3.2371e-05)
(4.7328e-05 -6.7582e-06 3.3743e-05)
(5.2559e-05 -6.9087e-06 3.4495e-05)
(5.7669e-05 -6.929e-06 3.4597e-05)
(0 0 0)
(4.6793e-06 -1.9453e-09 4.7659e-06)
(9.2248e-06 -3.9523e-09 9.7706e-06)
(1.3602e-05 -5.9942e-09 1.4994e-05)
(1.7914e-05 -7.9975e-09 2.017e-05)
(2.2322e-05 -9.8855e-09 2.4974e-05)
(2.6939e-05 -1.1574e-08 2.9201e-05)
(3.1794e-05 -1.3003e-08 3.2789e-05)
(3.6855e-05 -1.4164e-08 3.5737e-05)
(4.2062e-05 -1.5078e-08 3.8034e-05)
(4.7334e-05 -1.5752e-08 3.9646e-05)
(5.2583e-05 -1.617e-08 4.0533e-05)
(5.771e-05 -1.6292e-08 4.0657e-05)
(0 0 0)
(4.7318e-06 7.1338e-07 5.7143e-06)
(9.2906e-06 1.47e-06 1.1778e-05)
(1.3631e-05 2.2671e-06 1.8172e-05)
(1.7883e-05 3.058e-06 2.4522e-05)
(2.2246e-05 3.7879e-06 3.0386e-05)
(2.685e-05 4.4253e-06 3.5511e-05)
(3.1715e-05 4.9642e-06 3.9845e-05)
(3.68e-05 5.4068e-06 4.3409e-05)
(4.2038e-05 5.7521e-06 4.6192e-05)
(4.7347e-05 5.9949e-06 4.815e-05)
(5.2634e-05 6.1289e-06 4.9231e-05)
(5.78e-05 6.1488e-06 4.9393e-05)
(0 0 0)
(4.7063e-06 -5.0633e-06 -1.6296e-06)
(9.2582e-06 -1.0408e-05 -3.3497e-06)
(1.3616e-05 -1.6014e-05 -5.1535e-06)
(1.7897e-05 -2.1576e-05 -6.9419e-06)
(2.2282e-05 -2.6723e-05 -8.5961e-06)
(2.6891e-05 -3.1236e-05 -1.0046e-05)
(3.1751e-05 -3.5058e-05 -1.1273e-05)
(3.6825e-05 -3.8199e-05 -1.2282e-05)
(4.2049e-05 -4.065e-05 -1.3068e-05)
(4.7341e-05 -4.2371e-05 -1.362e-05)
(5.261e-05 -4.3319e-05 -1.3924e-05)
(5.7758e-05 -4.3457e-05 -1.3968e-05)
(0 0 0)
(4.6582e-06 -4.0786e-06 -8.1407e-07)
(9.1982e-06 -8.3435e-06 -1.6655e-06)
(1.3591e-05 -1.2776e-05 -2.5506e-06)
(1.7927e-05 -1.7164e-05 -3.4266e-06)
(2.2355e-05 -2.1243e-05 -4.2405e-06)
(2.6978e-05 -2.4841e-05 -4.9583e-06)
(3.1829e-05 -2.7901e-05 -5.5685e-06)
(3.688e-05 -3.0414e-05 -6.0697e-06)
(4.2072e-05 -3.2371e-05 -6.4598e-06)
(4.7328e-05 -3.3742e-05 -6.7331e-06)
(5.2559e-05 -3.4495e-05 -6.883e-06)
(5.7669e-05 -3.4597e-05 -6.9031e-06)
(0 0 0)
(4.6375e-06 -3.362e-06 2.4358e-09)
(9.1725e-06 -6.8631e-06 4.9471e-09)
(1.358e-05 -1.0487e-05 7.5174e-09)
(1.7942e-05 -1.4069e-05 1.0061e-08)
(2.2389e-05 -1.7405e-05 1.2471e-08)
(2.7019e-05 -2.0356e-05 1.4647e-08)
(3.1866e-05 -2.2869e-05 1.652e-08)
(3.6906e-05 -2.4933e-05 1.8066e-08)
(4.2083e-05 -2.6539e-05 1.9276e-08)
(4.7322e-05 -2.7663e-05 2.0142e-08)
(5.2533e-05 -2.8278e-05 2.0642e-08)
(5.7626e-05 -2.8359e-05 2.0747e-08)
(0 0 0)
(4.6257e-06 -2.5743e-06 8.6078e-07)
(9.1577e-06 -5.249e-06 1.7552e-06)
(1.3574e-05 -8.011e-06 2.6789e-06)
(1.795e-05 -1.074e-05 3.5915e-06)
(2.2409e-05 -1.3284e-05 4.4421e-06)
(2.7044e-05 -1.5537e-05 5.1955e-06)
(3.1889e-05 -1.7458e-05 5.8378e-06)
(3.6922e-05 -1.9036e-05 6.3654e-06)
(4.209e-05 -2.0263e-05 6.7755e-06)
(4.7318e-05 -2.1121e-05 7.0625e-06)
(5.2518e-05 -2.159e-05 7.2193e-06)
(5.7599e-05 -2.165e-05 7.2395e-06)
(0 0 0)
(4.6219e-06 -1.7308e-06 1.7312e-06)
(9.153e-06 -3.528e-06 3.5287e-06)
(1.3572e-05 -5.3824e-06 5.3834e-06)
(1.7953e-05 -7.2141e-06 7.2155e-06)
(2.2416e-05 -8.9221e-06 8.9238e-06)
(2.7052e-05 -1.0436e-05 1.0438e-05)
(3.1896e-05 -1.1727e-05 1.1729e-05)
(3.6927e-05 -1.2787e-05 1.279e-05)
(4.2092e-05 -1.3611e-05 1.3614e-05)
(4.7316e-05 -1.4188e-05 1.4191e-05)
(5.2513e-05 -1.4503e-05 1.4506e-05)
(5.759e-05 -1.4543e-05 1.4546e-05)
(0 0 0)
(4.6257e-06 -8.6039e-07 2.5745e-06)
(9.1577e-06 -1.7544e-06 5.2495e-06)
(1.3574e-05 -2.6777e-06 8.0117e-06)
(1.795e-05 -3.5898e-06 1.0741e-05)
(2.2409e-05 -4.44e-06 1.3285e-05)
(2.7044e-05 -5.1931e-06 1.5538e-05)
(3.1889e-05 -5.8349e-06 1.7459e-05)
(3.6922e-05 -6.3623e-06 1.9038e-05)
(4.209e-05 -6.7722e-06 2.0264e-05)
(4.7318e-05 -7.059e-06 2.1123e-05)
(5.2518e-05 -7.2158e-06 2.1592e-05)
(5.7599e-05 -7.236e-06 2.1652e-05)
(0 0 0)
(4.6375e-06 -1.9897e-09 3.3621e-06)
(9.1725e-06 -4.04e-09 6.8632e-06)
(1.358e-05 -6.1307e-09 1.0487e-05)
(1.7942e-05 -8.1861e-09 1.4069e-05)
(2.2389e-05 -1.0118e-08 1.7406e-05)
(2.7019e-05 -1.1846e-08 2.0357e-05)
(3.1866e-05 -1.3321e-08 2.287e-05)
(3.6906e-05 -1.4531e-08 2.4934e-05)
(4.2083e-05 -1.5486e-08 2.654e-05)
(4.7322e-05 -1.6186e-08 2.7664e-05)
(5.2534e-05 -1.6613e-08 2.8279e-05)
(5.7626e-05 -1.6737e-08 2.836e-05)
(0 0 0)
(4.6582e-06 8.1447e-07 4.0785e-06)
(9.1983e-06 1.6663e-06 8.3434e-06)
(1.3591e-05 2.5519e-06 1.2776e-05)
(1.7928e-05 3.4283e-06 1.7164e-05)
(2.2355e-05 4.2427e-06 2.1243e-05)
(2.6978e-05 4.9608e-06 2.4841e-05)
(3.1829e-05 5.5714e-06 2.7901e-05)
(3.688e-05 6.073e-06 3.0414e-05)
(4.2072e-05 6.4633e-06 3.237e-05)
(4.7328e-05 6.7368e-06 3.3742e-05)
(5.2559e-05 6.8867e-06 3.4494e-05)
(5.7669e-05 6.9068e-06 3.4596e-05)
(0 0 0)
(4.7063e-06 1.6299e-06 5.0632e-06)
(9.2583e-06 3.3501e-06 1.0408e-05)
(1.3616e-05 5.1541e-06 1.6014e-05)
(1.7897e-05 6.9428e-06 2.1575e-05)
(2.2282e-05 8.5973e-06 2.6723e-05)
(2.6891e-05 1.0047e-05 3.1235e-05)
(3.1751e-05 1.1275e-05 3.5058e-05)
(3.6825e-05 1.2284e-05 3.8199e-05)
(4.2049e-05 1.307e-05 4.0649e-05)
(4.7341e-05 1.3623e-05 4.237e-05)
(5.261e-05 1.3927e-05 4.3319e-05)
(5.7758e-05 1.397e-05 4.3456e-05)
(0 0 0)
(4.6919e-06 -4.3005e-06 -2.5534e-06)
(9.2402e-06 -8.8268e-06 -5.2412e-06)
(1.3608e-05 -1.3561e-05 -8.0529e-06)
(1.7906e-05 -1.8254e-05 -1.0839e-05)
(2.2303e-05 -2.2603e-05 -1.342e-05)
(2.6917e-05 -2.6421e-05 -1.5686e-05)
(3.1774e-05 -2.966e-05 -1.7607e-05)
(3.6841e-05 -3.232e-05 -1.9185e-05)
(4.2055e-05 -3.4393e-05 -2.0415e-05)
(4.7337e-05 -3.5849e-05 -2.1278e-05)
(5.2594e-05 -3.665e-05 -2.1753e-05)
(5.7732e-05 -3.6763e-05 -2.182e-05)
(0 0 0)
(4.646e-06 -3.3167e-06 -1.6578e-06)
(9.1831e-06 -6.777e-06 -3.3876e-06)
(1.3584e-05 -1.0365e-05 -5.1816e-06)
(1.7936e-05 -1.3914e-05 -6.956e-06)
(2.2374e-05 -1.7217e-05 -8.6068e-06)
(2.7002e-05 -2.0135e-05 -1.0065e-05)
(3.1851e-05 -2.2618e-05 -1.1306e-05)
(3.6895e-05 -2.4658e-05 -1.2325e-05)
(4.2078e-05 -2.6246e-05 -1.3118e-05)
(4.7324e-05 -2.7357e-05 -1.3674e-05)
(5.2544e-05 -2.7966e-05 -1.3978e-05)
(5.7644e-05 -2.8047e-05 -1.4018e-05)
(0 0 0)
(4.6257e-06 -2.5735e-06 -8.5785e-07)
(9.1578e-06 -5.2475e-06 -1.7493e-06)
(1.3574e-05 -8.0086e-06 -2.6699e-06)
(1.795e-05 -1.0737e-05 -3.5795e-06)
(2.2409e-05 -1.328e-05 -4.4272e-06)
(2.7044e-05 -1.5533e-05 -5.178e-06)
(3.1889e-05 -1.7453e-05 -5.8179e-06)
(3.6922e-05 -1.903e-05 -6.3437e-06)
(4.209e-05 -2.0257e-05 -6.7523e-06)
(4.7318e-05 -2.1115e-05 -7.0382e-06)
(5.2518e-05 -2.1584e-05 -7.1944e-06)
(5.7599e-05 -2.1644e-05 -7.2144e-06)
(0 0 0)
(4.6141e-06 -1.76e-06 1.4886e-09)
(9.1433e-06 -3.5846e-06 3.0209e-09)
(1.3568e-05 -5.4644e-06 4.5902e-09)
(1.7959e-05 -7.3205e-06 6.1471e-09)
(2.2429e-05 -9.0525e-06 7.6247e-09)
(2.7069e-05 -1.0589e-05 8.9632e-09)
(3.1912e-05 -1.1901e-05 1.0123e-08)
(3.6938e-05 -1.2978e-05 1.1087e-08)
(4.2097e-05 -1.3815e-05 1.1846e-08)
(4.7313e-05 -1.44e-05 1.2395e-08)
(5.2502e-05 -1.472e-05 1.2718e-08)
(5.7572e-05 -1.476e-05 1.28e-08)
(0 0 0)
(4.6103e-06 -8.9013e-07 8.9058e-07)
(9.1385e-06 -1.8123e-06 1.8133e-06)
(1.3566e-05 -2.7617e-06 2.7631e-06)
(1.7962e-05 -3.699e-06 3.7008e-06)
(2.2436e-05 -4.5738e-06 4.5762e-06)
(2.7078e-05 -5.3504e-06 5.3532e-06)
(3.1919e-05 -6.0133e-06 6.0165e-06)
(3.6944e-05 -6.5581e-06 6.5616e-06)
(4.2099e-05 -6.9812e-06 6.985e-06)
(4.7312e-05 -7.277e-06 7.281e-06)
(5.2497e-05 -7.4386e-06 7.4425e-06)
(5.7563e-05 -7.4588e-06 7.4628e-06)
(0 0 0)
(4.6141e-06 -9.2447e-10 1.7603e-06)
(9.1433e-06 -1.875e-09 3.5853e-06)
(1.3568e-05 -2.8422e-09 5.4655e-06)
(1.7959e-05 -3.79e-09 7.322e-06)
(2.2429e-05 -4.6754e-09 9.0544e-06)
(2.7069e-05 -5.4645e-09 1.0592e-05)
(3.1912e-05 -6.1399e-09 1.1903e-05)
(3.6939e-05 -6.7009e-09 1.2981e-05)
(4.2097e-05 -7.1537e-09 1.3818e-05)
(4.7313e-05 -7.5002e-09 1.4404e-05)
(5.2502e-05 -7.7321e-09 1.4723e-05)
(5.7572e-05 -7.8334e-09 1.4764e-05)
(0 0 0)
(4.6257e-06 8.5858e-07 2.5736e-06)
(9.1578e-06 1.7508e-06 5.2477e-06)
(1.3574e-05 2.6722e-06 8.0089e-06)
(1.795e-05 3.5825e-06 1.0737e-05)
(2.2409e-05 4.4309e-06 1.328e-05)
(2.7044e-05 5.1825e-06 1.5533e-05)
(3.1889e-05 5.823e-06 1.7453e-05)
(3.6922e-05 6.3493e-06 1.9031e-05)
(4.209e-05 6.7583e-06 2.0257e-05)
(4.7318e-05 7.0444e-06 2.1115e-05)
(5.2518e-05 7.2008e-06 2.1585e-05)
(5.7599e-05 7.2208e-06 2.1645e-05)
(0 0 0)
(4.646e-06 1.6585e-06 3.3165e-06)
(9.1831e-06 3.389e-06 6.7766e-06)
(1.3584e-05 5.1836e-06 1.0364e-05)
(1.7936e-05 6.9587e-06 1.3913e-05)
(2.2374e-05 8.6102e-06 1.7216e-05)
(2.7002e-05 1.0069e-05 2.0134e-05)
(3.1851e-05 1.1311e-05 2.2617e-05)
(3.6895e-05 1.2331e-05 2.4657e-05)
(4.2078e-05 1.3124e-05 2.6244e-05)
(4.7324e-05 1.3679e-05 2.7356e-05)
(5.2544e-05 1.3984e-05 2.7965e-05)
(5.7644e-05 1.4024e-05 2.8046e-05)
(0 0 0)
(4.6919e-06 2.5537e-06 4.3003e-06)
(9.2403e-06 5.2418e-06 8.8264e-06)
(1.3608e-05 8.0539e-06 1.3561e-05)
(1.7906e-05 1.0841e-05 1.8254e-05)
(2.2303e-05 1.3422e-05 2.2602e-05)
(2.6917e-05 1.5688e-05 2.642e-05)
(3.1774e-05 1.7609e-05 2.9658e-05)
(3.6841e-05 1.9188e-05 3.2319e-05)
(4.2055e-05 2.0418e-05 3.4392e-05)
(4.7337e-05 2.1281e-05 3.5847e-05)
(5.2595e-05 2.1756e-05 3.6648e-05)
(5.7732e-05 2.1823e-05 3.6761e-05)
(0 0 0)
(4.6874e-06 -3.4538e-06 -3.4537e-06)
(9.2346e-06 -7.0858e-06 -7.0857e-06)
(1.3606e-05 -1.0882e-05 -1.0882e-05)
(1.7909e-05 -1.4643e-05 -1.4643e-05)
(2.2311e-05 -1.8129e-05 -1.8129e-05)
(2.6926e-05 -2.1192e-05 -2.1191e-05)
(3.1782e-05 -2.379e-05 -2.3789e-05)
(3.6847e-05 -2.5924e-05 -2.5924e-05)
(4.2057e-05 -2.7587e-05 -2.7587e-05)
(4.7335e-05 -2.8754e-05 -2.8753e-05)
(5.2589e-05 -2.9396e-05 -2.9395e-05)
(5.7723e-05 -2.9486e-05 -2.9484e-05)
(0 0 0)
(4.6421e-06 -2.5015e-06 -2.5013e-06)
(9.1781e-06 -5.1095e-06 -5.1091e-06)
(1.3582e-05 -7.8119e-06 -7.8113e-06)
(1.7938e-05 -1.0484e-05 -1.0484e-05)
(2.2381e-05 -1.2972e-05 -1.2971e-05)
(2.701e-05 -1.5171e-05 -1.5169e-05)
(3.1858e-05 -1.7042e-05 -1.7041e-05)
(3.69e-05 -1.858e-05 -1.8579e-05)
(4.2081e-05 -1.9776e-05 -1.9774e-05)
(4.7323e-05 -2.0613e-05 -2.0612e-05)
(5.2539e-05 -2.1072e-05 -2.107e-05)
(5.7635e-05 -2.1133e-05 -2.113e-05)
(0 0 0)
(4.6219e-06 -1.7298e-06 -1.7296e-06)
(9.153e-06 -3.526e-06 -3.5254e-06)
(1.3572e-05 -5.3794e-06 -5.3785e-06)
(1.7953e-05 -7.2101e-06 -7.209e-06)
(2.2415e-05 -8.9172e-06 -8.9157e-06)
(2.7052e-05 -1.043e-05 -1.0428e-05)
(3.1896e-05 -1.172e-05 -1.1718e-05)
(3.6927e-05 -1.278e-05 -1.2778e-05)
(4.2092e-05 -1.3604e-05 -1.3601e-05)
(4.7316e-05 -1.418e-05 -1.4177e-05)
(5.2513e-05 -1.4495e-05 -1.4492e-05)
(5.759e-05 -1.4535e-05 -1.4532e-05)
(0 0 0)
(4.6103e-06 -8.894e-07 -8.8898e-07)
(9.1385e-06 -1.8109e-06 -1.81e-06)
(1.3566e-05 -2.7595e-06 -2.7582e-06)
(1.7962e-05 -3.696e-06 -3.6942e-06)
(2.2436e-05 -4.5701e-06 -4.568e-06)
(2.7078e-05 -5.3461e-06 -5.3436e-06)
(3.1919e-05 -6.0085e-06 -6.0056e-06)
(3.6944e-05 -6.5527e-06 -6.5496e-06)
(4.2099e-05 -6.9755e-06 -6.9721e-06)
(4.7312e-05 -7.2711e-06 -7.2675e-06)
(5.2497e-05 -7.4325e-06 -7.4287e-06)
(5.7563e-05 -7.4528e-06 -7.4488e-06)
(0 0 0)
(4.6065e-06 8.6434e-12 5.6836e-10)
(9.1338e-06 2.1121e-11 1.1504e-09)
(1.3564e-05 4.0234e-11 1.7455e-09)
(1.7965e-05 6.6883e-11 2.3394e-09)
(2.2443e-05 9.9056e-11 2.9101e-09)
(2.7086e-05 1.3292e-10 3.4347e-09)
(3.1927e-05 1.6328e-10 3.8957e-09)
(3.695e-05 1.8241e-10 4.2836e-09)
(4.2102e-05 1.8123e-10 4.5946e-09)
(4.7311e-05 1.5334e-10 4.8268e-09)
(5.2491e-05 9.8197e-11 4.9754e-09)
(5.7553e-05 2.0792e-11 5.0338e-09)
(0 0 0)
(4.6103e-06 8.8966e-07 8.9011e-07)
(9.1385e-06 1.8114e-06 1.8123e-06)
(1.3566e-05 2.7603e-06 2.7617e-06)
(1.7962e-05 3.6971e-06 3.6989e-06)
(2.2436e-05 4.5715e-06 4.5738e-06)
(2.7078e-05 5.3478e-06 5.3505e-06)
(3.1919e-05 6.0104e-06 6.0134e-06)
(3.6944e-05 6.5549e-06 6.5582e-06)
(4.2099e-05 6.9778e-06 6.9813e-06)
(4.7312e-05 7.2734e-06 7.2771e-06)
(5.2497e-05 7.4347e-06 7.4386e-06)
(5.7563e-05 7.4548e-06 7.4588e-06)
(0 0 0)
(4.6219e-06 1.7308e-06 1.73e-06)
(9.153e-06 3.5279e-06 3.5263e-06)
(1.3572e-05 5.3823e-06 5.3798e-06)
(1.7953e-05 7.2141e-06 7.2106e-06)
(2.2416e-05 8.9221e-06 8.9178e-06)
(2.7052e-05 1.0436e-05 1.0431e-05)
(3.1896e-05 1.1727e-05 1.1721e-05)
(3.6927e-05 1.2787e-05 1.2781e-05)
(4.2092e-05 1.3611e-05 1.3605e-05)
(4.7316e-05 1.4188e-05 1.4181e-05)
(5.2513e-05 1.4503e-05 1.4496e-05)
(5.759e-05 1.4543e-05 1.4536e-05)
(0 0 0)
(4.6421e-06 2.5025e-06 2.501e-06)
(9.1782e-06 5.1114e-06 5.1084e-06)
(1.3582e-05 7.8148e-06 7.8102e-06)
(1.7939e-05 1.0488e-05 1.0482e-05)
(2.2381e-05 1.2977e-05 1.2969e-05)
(2.701e-05 1.5176e-05 1.5167e-05)
(3.1858e-05 1.7049e-05 1.7039e-05)
(3.69e-05 1.8587e-05 1.8576e-05)
(4.2081e-05 1.9784e-05 1.9772e-05)
(4.7323e-05 2.0621e-05 2.0609e-05)
(5.2539e-05 2.108e-05 2.1068e-05)
(5.7635e-05 2.114e-05 2.1128e-05)
(0 0 0)
(4.6874e-06 3.4541e-06 3.4534e-06)
(9.2346e-06 7.0864e-06 7.085e-06)
(1.3606e-05 1.0883e-05 1.0881e-05)
(1.791e-05 1.4645e-05 1.4642e-05)
(2.2311e-05 1.8131e-05 1.8127e-05)
(2.6926e-05 2.1194e-05 2.119e-05)
(3.1782e-05 2.3792e-05 2.3787e-05)
(3.6847e-05 2.5927e-05 2.5921e-05)
(4.2058e-05 2.759e-05 2.7584e-05)
(4.7335e-05 2.8757e-05 2.8751e-05)
(5.2589e-05 2.9398e-05 2.9392e-05)
(5.7723e-05 2.9488e-05 2.9482e-05)
(0 0 0)
(4.6919e-06 -2.5535e-06 -4.3005e-06)
(9.2402e-06 -5.2414e-06 -8.8268e-06)
(1.3608e-05 -8.0532e-06 -1.3561e-05)
(1.7906e-05 -1.084e-05 -1.8254e-05)
(2.2303e-05 -1.3421e-05 -2.2603e-05)
(2.6917e-05 -1.5686e-05 -2.6421e-05)
(3.1774e-05 -1.7608e-05 -2.9659e-05)
(3.6841e-05 -1.9186e-05 -3.232e-05)
(4.2055e-05 -2.0416e-05 -3.4393e-05)
(4.7337e-05 -2.128e-05 -3.5848e-05)
(5.2594e-05 -2.1754e-05 -3.6649e-05)
(5.7732e-05 -2.1821e-05 -3.6762e-05)
(0 0 0)
(4.646e-06 -1.658e-06 -3.3166e-06)
(9.1831e-06 -3.3881e-06 -6.7768e-06)
(1.3584e-05 -5.1823e-06 -1.0365e-05)
(1.7936e-05 -6.9569e-06 -1.3914e-05)
(2.2374e-05 -8.608e-06 -1.7217e-05)
(2.7002e-05 -1.0066e-05 -2.0134e-05)
(3.1851e-05 -1.1308e-05 -2.2618e-05)
(3.6895e-05 -1.2327e-05 -2.4658e-05)
(4.2078e-05 -1.312e-05 -2.6245e-05)
(4.7324e-05 -1.3676e-05 -2.7356e-05)
(5.2544e-05 -1.398e-05 -2.7965e-05)
(5.7644e-05 -1.402e-05 -2.8046e-05)
(0 0 0)
(4.6257e-06 -8.5822e-07 -2.5733e-06)
(9.1578e-06 -1.7501e-06 -5.2472e-06)
(1.3574e-05 -2.6711e-06 -8.0081e-06)
(1.795e-05 -3.581e-06 -1.0736e-05)
(2.2409e-05 -4.429e-06 -1.3279e-05)
(2.7044e-05 -5.1802e-06 -1.5531e-05)
(3.1889e-05 -5.8205e-06 -1.7452e-05)
(3.6922e-05 -6.3465e-06 -1.9029e-05)
(4.209e-05 -6.7553e-06 -2.0255e-05)
(4.7318e-05 -7.0414e-06 -2.1113e-05)
(5.2518e-05 -7.1978e-06 -2.1582e-05)
(5.7599e-05 -7.2179e-06 -2.1642e-05)
(0 0 0)
(4.6141e-06 9.4076e-10 -1.7597e-06)
(9.1433e-06 1.915e-09 -3.584e-06)
(1.3568e-05 2.919e-09 -5.4634e-06)
(1.7959e-05 3.9186e-09 -7.3192e-06)
(2.2429e-05 4.8672e-09 -9.0509e-06)
(2.7069e-05 5.7229e-09 -1.0587e-05)
(3.1912e-05 6.4589e-09 -1.1898e-05)
(3.6938e-05 7.0596e-09 -1.2976e-05)
(4.2097e-05 7.5128e-09 -1.3812e-05)
(4.7313e-05 7.8069e-09 -1.4398e-05)
(5.2502e-05 7.9323e-09 -1.4717e-05)
(5.7572e-05 7.8829e-09 -1.4757e-05)
(0 0 0)
(4.6103e-06 8.8991e-07 -8.8945e-07)
(9.1385e-06 1.8119e-06 -1.811e-06)
(1.3566e-05 2.7611e-06 -2.7597e-06)
(1.7962e-05 3.6981e-06 -3.6962e-06)
(2.2436e-05 4.5728e-06 -4.5704e-06)
(2.7078e-05 5.3493e-06 -5.3464e-06)
(3.1919e-05 6.012e-06 -6.0088e-06)
(3.6944e-05 6.5567e-06 -6.553e-06)
(4.2099e-05 6.9797e-06 -6.9758e-06)
(4.7312e-05 7.2754e-06 -7.2713e-06)
(5.2497e-05 7.4367e-06 -7.4326e-06)
(5.7563e-05 7.4569e-06 -7.4527e-06)
(0 0 0)
(4.6141e-06 1.76e-06 8.3911e-10)
(9.1433e-06 3.5846e-06 1.7077e-09)
(1.3568e-05 5.4645e-06 2.6033e-09)
(1.7959e-05 7.3206e-06 3.4961e-09)
(2.2429e-05 9.0527e-06 4.345e-09)
(2.7069e-05 1.059e-05 5.1144e-09)
(3.1912e-05 1.1901e-05 5.7825e-09)
(3.6939e-05 1.2978e-05 6.3384e-09)
(4.2097e-05 1.3815e-05 6.7769e-09)
(4.7313e-05 1.4401e-05 7.0945e-09)
(5.2502e-05 1.472e-05 7.2858e-09)
(5.7572e-05 1.4761e-05 7.3431e-09)
(0 0 0)
(4.6257e-06 2.5743e-06 8.5997e-07)
(9.1578e-06 5.2492e-06 1.7536e-06)
(1.3574e-05 8.0112e-06 2.6765e-06)
(1.795e-05 1.074e-05 3.5882e-06)
(2.2409e-05 1.3284e-05 4.438e-06)
(2.7044e-05 1.5538e-05 5.1907e-06)
(3.1889e-05 1.7458e-05 5.8324e-06)
(3.6922e-05 1.9037e-05 6.3595e-06)
(4.209e-05 2.0263e-05 6.7692e-06)
(4.7318e-05 2.1121e-05 7.0558e-06)
(5.2518e-05 2.1591e-05 7.2125e-06)
(5.7599e-05 2.1651e-05 7.2327e-06)
(0 0 0)
(4.646e-06 3.3175e-06 1.6579e-06)
(9.1831e-06 6.7785e-06 3.3879e-06)
(1.3584e-05 1.0367e-05 5.1819e-06)
(1.7936e-05 1.3917e-05 6.9563e-06)
(2.2374e-05 1.7221e-05 8.6073e-06)
(2.7002e-05 2.0139e-05 1.0066e-05)
(3.1851e-05 2.2623e-05 1.1307e-05)
(3.6895e-05 2.4664e-05 1.2326e-05)
(4.2079e-05 2.6251e-05 1.3119e-05)
(4.7324e-05 2.7363e-05 1.3675e-05)
(5.2544e-05 2.7972e-05 1.3979e-05)
(5.7644e-05 2.8053e-05 1.4019e-05)
(0 0 0)
(4.6919e-06 4.3005e-06 2.5528e-06)
(9.2402e-06 8.8268e-06 5.2401e-06)
(1.3608e-05 1.3561e-05 8.0511e-06)
(1.7906e-05 1.8254e-05 1.0837e-05)
(2.2304e-05 2.2603e-05 1.3417e-05)
(2.6917e-05 2.6421e-05 1.5682e-05)
(3.1774e-05 2.966e-05 1.7603e-05)
(3.6841e-05 3.232e-05 1.9181e-05)
(4.2055e-05 3.4393e-05 2.0411e-05)
(4.7337e-05 3.5849e-05 2.1274e-05)
(5.2595e-05 3.6649e-05 2.1749e-05)
(5.7732e-05 3.6763e-05 2.1815e-05)
(0 0 0)
(4.7063e-06 -1.6298e-06 -5.0633e-06)
(9.2583e-06 -3.35e-06 -1.0408e-05)
(1.3616e-05 -5.1539e-06 -1.6014e-05)
(1.7897e-05 -6.9424e-06 -2.1576e-05)
(2.2282e-05 -8.5968e-06 -2.6723e-05)
(2.6891e-05 -1.0046e-05 -3.1236e-05)
(3.1751e-05 -1.1274e-05 -3.5058e-05)
(3.6825e-05 -1.2283e-05 -3.8199e-05)
(4.2048e-05 -1.307e-05 -4.0649e-05)
(4.7341e-05 -1.3622e-05 -4.2371e-05)
(5.261e-05 -1.3926e-05 -4.3319e-05)
(5.7758e-05 -1.397e-05 -4.3456e-05)
(0 0 0)
(4.6582e-06 -8.1433e-07 -4.0786e-06)
(9.1983e-06 -1.666e-06 -8.3435e-06)
(1.3591e-05 -2.5514e-06 -1.2776e-05)
(1.7927e-05 -3.4276e-06 -1.7164e-05)
(2.2355e-05 -4.2419e-06 -2.1243e-05)
(2.6978e-05 -4.9598e-06 -2.4841e-05)
(3.1829e-05 -5.5702e-06 -2.7901e-05)
(3.688e-05 -6.0717e-06 -3.0414e-05)
(4.2072e-05 -6.462e-06 -3.237e-05)
(4.7328e-05 -6.7354e-06 -3.3742e-05)
(5.2558e-05 -6.8854e-06 -3.4494e-05)
(5.7669e-05 -6.9057e-06 -3.4596e-05)
(0 0 0)
(4.6375e-06 2.0031e-09 -3.362e-06)
(9.1725e-06 4.0734e-09 -6.8631e-06)
(1.358e-05 6.1965e-09 -1.0487e-05)
(1.7942e-05 8.2996e-09 -1.4069e-05)
(2.2389e-05 1.0291e-08 -1.7405e-05)
(2.7019e-05 1.2084e-08 -2.0356e-05)
(3.1866e-05 1.3619e-08 -2.2869e-05)
(3.6906e-05 1.4873e-08 -2.4933e-05)
(4.2083e-05 1.5837e-08 -2.6539e-05)
(4.7322e-05 1.6493e-08 -2.7662e-05)
(5.2533e-05 1.6824e-08 -2.8278e-05)
(5.7626e-05 1.6808e-08 -2.8358e-05)
(0 0 0)
(4.6257e-06 8.6006e-07 -2.5743e-06)
(9.1578e-06 1.7538e-06 -5.249e-06)
(1.3574e-05 2.6767e-06 -8.0109e-06)
(1.795e-05 3.5886e-06 -1.074e-05)
(2.2409e-05 4.4385e-06 -1.3283e-05)
(2.7044e-05 5.1913e-06 -1.5537e-05)
(3.1889e-05 5.833e-06 -1.7458e-05)
(3.6922e-05 6.3602e-06 -1.9036e-05)
(4.209e-05 6.7699e-06 -2.0262e-05)
(4.7318e-05 7.0565e-06 -2.112e-05)
(5.2518e-05 7.2132e-06 -2.1589e-05)
(5.7599e-05 7.2332e-06 -2.165e-05)
(0 0 0)
(4.6219e-06 1.7299e-06 -1.7308e-06)
(9.153e-06 3.5262e-06 -3.5278e-06)
(1.3572e-05 5.3796e-06 -5.3822e-06)
(1.7953e-05 7.2104e-06 -7.2138e-06)
(2.2416e-05 8.9176e-06 -8.9218e-06)
(2.7052e-05 1.0431e-05 -1.0435e-05)
(3.1896e-05 1.1721e-05 -1.1726e-05)
(3.6927e-05 1.2781e-05 -1.2786e-05)
(4.2092e-05 1.3604e-05 -1.3611e-05)
(4.7316e-05 1.418e-05 -1.4187e-05)
(5.2513e-05 1.4495e-05 -1.4502e-05)
(5.759e-05 1.4535e-05 -1.4542e-05)
(0 0 0)
(4.6257e-06 2.5735e-06 -8.5867e-07)
(9.1578e-06 5.2474e-06 -1.751e-06)
(1.3574e-05 8.0086e-06 -2.6724e-06)
(1.795e-05 1.0737e-05 -3.5828e-06)
(2.2409e-05 1.328e-05 -4.4313e-06)
(2.7044e-05 1.5532e-05 -5.1828e-06)
(3.1889e-05 1.7453e-05 -5.8234e-06)
(3.6922e-05 1.903e-05 -6.3497e-06)
(4.209e-05 2.0257e-05 -6.7587e-06)
(4.7318e-05 2.1115e-05 -7.0448e-06)
(5.2518e-05 2.1584e-05 -7.2012e-06)
(5.7599e-05 2.1644e-05 -7.2213e-06)
(0 0 0)
(4.6375e-06 3.362e-06 1.7559e-09)
(9.1725e-06 6.8631e-06 3.5756e-09)
(1.358e-05 1.0487e-05 5.447e-09)
(1.7942e-05 1.4069e-05 7.3039e-09)
(2.2389e-05 1.7406e-05 9.0639e-09)
(2.7019e-05 2.0357e-05 1.065e-08)
(3.1866e-05 2.2869e-05 1.2011e-08)
(3.6906e-05 2.4934e-05 1.313e-08)
(4.2083e-05 2.6539e-05 1.3999e-08)
(4.7322e-05 2.7663e-05 1.4614e-08)
(5.2534e-05 2.8279e-05 1.4966e-08)
(5.7626e-05 2.8359e-05 1.5035e-08)
(0 0 0)
(4.6582e-06 4.0787e-06 8.1686e-07)
(9.1982e-06 8.3438e-06 1.6712e-06)
(1.3591e-05 1.2777e-05 2.5592e-06)
(1.7928e-05 1.7164e-05 3.4381e-06)
(2.2355e-05 2.1244e-05 4.2548e-06)
(2.6978e-05 2.4842e-05 4.9751e-06)
(3.1829e-05 2.7902e-05 5.5874e-06)
(3.688e-05 3.0415e-05 6.0905e-06)
(4.2072e-05 3.2372e-05 6.482e-06)
(4.7328e-05 3.3743e-05 6.7563e-06)
(5.2559e-05 3.4496e-05 6.9067e-06)
(5.7669e-05 3.4598e-05 6.927e-06)
(0 0 0)
(4.7063e-06 5.0631e-06 1.6302e-06)
(9.2582e-06 1.0408e-05 3.3507e-06)
(1.3616e-05 1.6014e-05 5.155e-06)
(1.7897e-05 2.1575e-05 6.9439e-06)
(2.2282e-05 2.6722e-05 8.5986e-06)
(2.6891e-05 3.1235e-05 1.0049e-05)
(3.1751e-05 3.5057e-05 1.1277e-05)
(3.6825e-05 3.8198e-05 1.2286e-05)
(4.2049e-05 4.0648e-05 1.3073e-05)
(4.7341e-05 4.2369e-05 1.3625e-05)
(5.261e-05 4.3318e-05 1.3929e-05)
(5.7758e-05 4.3455e-05 1.3973e-05)
(0 0 0)
(4.7318e-06 -7.1337e-07 -5.7145e-06)
(9.2906e-06 -1.47e-06 -1.1779e-05)
(1.3631e-05 -2.267e-06 -1.8172e-05)
(1.7883e-05 -3.0579e-06 -2.4522e-05)
(2.2246e-05 -3.7877e-06 -3.0387e-05)
(2.685e-05 -4.4251e-06 -3.5511e-05)
(3.1715e-05 -4.9639e-06 -3.9846e-05)
(3.68e-05 -5.4064e-06 -4.341e-05)
(4.2038e-05 -5.7517e-06 -4.6193e-05)
(4.7347e-05 -5.9945e-06 -4.8151e-05)
(5.2634e-05 -6.1286e-06 -4.9232e-05)
(5.78e-05 -6.1485e-06 -4.9393e-05)
(0 0 0)
(4.6793e-06 1.9534e-09 -4.766e-06)
(9.2248e-06 3.9741e-09 -9.7708e-06)
(1.3602e-05 6.0409e-09 -1.4994e-05)
(1.7914e-05 8.0852e-09 -2.0171e-05)
(2.2322e-05 1.0029e-08 -2.4975e-05)
(2.6939e-05 1.1781e-08 -2.9202e-05)
(3.1794e-05 1.327e-08 -3.279e-05)
(3.6855e-05 1.4483e-08 -3.5738e-05)
(4.2061e-05 1.5418e-08 -3.8035e-05)
(4.7334e-05 1.6063e-08 -3.9647e-05)
(5.2582e-05 1.6396e-08 -4.0533e-05)
(5.771e-05 1.6392e-08 -4.0657e-05)
(0 0 0)
(4.6582e-06 8.1701e-07 -4.0788e-06)
(9.1982e-06 1.6715e-06 -8.3439e-06)
(1.3591e-05 2.5597e-06 -1.2777e-05)
(1.7928e-05 3.4387e-06 -1.7164e-05)
(2.2355e-05 4.2556e-06 -2.1244e-05)
(2.6978e-05 4.9759e-06 -2.4842e-05)
(3.1829e-05 5.5884e-06 -2.7902e-05)
(3.688e-05 6.0915e-06 -3.0415e-05)
(4.2072e-05 6.4831e-06 -3.2372e-05)
(4.7328e-05 6.7574e-06 -3.3743e-05)
(5.2558e-05 6.9079e-06 -3.4495e-05)
(5.7669e-05 6.9281e-06 -3.4597e-05)
(0 0 0)
(4.646e-06 1.658e-06 -3.3175e-06)
(9.1831e-06 3.388e-06 -6.7785e-06)
(1.3584e-05 5.1821e-06 -1.0367e-05)
(1.7936e-05 6.9567e-06 -1.3917e-05)
(2.2374e-05 8.6077e-06 -1.7221e-05)
(2.7002e-05 1.0066e-05 -2.0139e-05)
(3.1851e-05 1.1307e-05 -2.2623e-05)
(3.6895e-05 1.2327e-05 -2.4663e-05)
(4.2078e-05 1.312e-05 -2.6251e-05)
(4.7324e-05 1.3675e-05 -2.7363e-05)