/*--------------------------------*- C++ -*----------------------------------*\
| =========                 |                                                 |
| \\      /  F ield         | foam-extend: Open Source CFD                    |
|  \\    /   O peration     | Version:     4.1-20200408                       |
|   \\  /    A nd           | Web:         http://www.foam-extend.org         |
|    \\/     M anipulation  |                                                 |
\*---------------------------------------------------------------------------*/
FoamFile
{
    version     2.0;
    format      ascii;
    class       volVectorField;
    location    "0.0605000";
    object      DU_0;
}
// * * * * * * * * * * * * * * * * * * * * * * * * * * * * * * * * * * * * * //

dimensions      [0 1 0 0 0 0 0];

internalField   nonuniform List<vector> 
1952
(
(4.99995e-05 -4.93482e-10 0)
(4.99995e-05 -7.77664e-10 0)
(4.99996e-05 -1.11103e-09 0)
(4.99997e-05 -1.37182e-09 0)
(4.99998e-05 -1.70376e-09 0)
(4.99999e-05 -1.93396e-09 0)
(5.00001e-05 -2.24053e-09 0)
(5.00002e-05 -2.42503e-09 0)
(5.00006e-05 -2.66724e-09 0)
(5.00008e-05 -2.77508e-09 0)
(5.00014e-05 -2.92624e-09 0)
(5.00018e-05 -2.92558e-09 0)
(5.00026e-05 -2.95243e-09 0)
(5.00035e-05 -2.81358e-09 0)
(5.00046e-05 -2.79129e-09 0)
(4.99995e-05 -2.08819e-10 0)
(4.99996e-05 -3.65274e-10 0)
(4.99996e-05 -5.87645e-10 0)
(4.99997e-05 -8.12338e-10 0)
(4.99997e-05 -1.01592e-09 0)
(4.99999e-05 -1.22199e-09 0)
(5e-05 -1.38657e-09 0)
(5.00002e-05 -1.55745e-09 0)
(5.00004e-05 -1.66079e-09 0)
(5.00007e-05 -1.76419e-09 0)
(5.0001e-05 -1.78357e-09 0)
(5.00016e-05 -1.81301e-09 0)
(5.00021e-05 -1.74295e-09 0)
(5.00029e-05 -1.70068e-09 0)
(5.00037e-05 -1.565e-09 0)
(5.00048e-05 -1.52703e-09 0)
(4.99996e-05 -1.56374e-10 0)
(4.99997e-05 -2.46578e-10 0)
(4.99998e-05 -3.96326e-10 0)
(4.99999e-05 -5.38912e-10 0)
(4.99999e-05 -6.69199e-10 0)
(5.00001e-05 -7.86238e-10 0)
(5.00002e-05 -8.75939e-10 0)
(5.00005e-05 -9.52976e-10 0)
(5.00006e-05 -9.82856e-10 0)
(5.00011e-05 -1.00263e-09 0)
(5.00013e-05 -9.5962e-10 0)
(5.00019e-05 -9.21492e-10 0)
(5.00024e-05 -8.12875e-10 0)
(5.00031e-05 -7.41608e-10 0)
(5.00038e-05 -6.18285e-10 0)
(5.00046e-05 -6.20929e-10 0)
(4.99997e-05 -1.05819e-10 0)
(5e-05 -1.42555e-10 0)
(5e-05 -2.2742e-10 0)
(5.00002e-05 -3.02344e-10 0)
(5.00002e-05 -3.67644e-10 0)
(5.00004e-05 -4.16078e-10 0)
(5.00005e-05 -4.43185e-10 0)
(5.00008e-05 -4.54466e-10 0)
(5.0001e-05 -4.29131e-10 0)
(5.00014e-05 -3.94358e-10 0)
(5.00017e-05 -3.13753e-10 0)
(5.00023e-05 -2.42874e-10 0)
(5.00027e-05 -1.26665e-10 0)
(5.00034e-05 -5.38523e-11 0)
(5.00039e-05 4.56911e-11 0)
(5.00046e-05 4.53621e-11 0)
(5e-05 -6.13931e-11 0)
(5.00004e-05 -5.4653e-11 0)
(5.00004e-05 -8.46269e-11 0)
(5.00005e-05 -1.04647e-10 0)
(5.00006e-05 -1.15879e-10 0)
(5.00008e-05 -1.11764e-10 0)
(5.00009e-05 -8.94908e-11 0)
(5.00012e-05 -5.427e-11 0)
(5.00014e-05 1.01293e-11 0)
(5.00018e-05 7.79965e-11 0)
(5.00021e-05 1.8061e-10 0)
(5.00026e-05 2.67333e-10 0)
(5.0003e-05 3.84374e-10 0)
(5.00036e-05 4.55004e-10 0)
(5.0004e-05 5.38636e-10 0)
(5.00046e-05 5.34321e-10 0)
(5.00003e-05 -2.3746e-11 0)
(5.00008e-05 1.65745e-11 0)
(5.00008e-05 3.07944e-11 0)
(5.00009e-05 5.39643e-11 0)
(5.0001e-05 8.50381e-11 0)
(5.00012e-05 1.28142e-10 0)
(5.00013e-05 1.869e-10 0)
(5.00017e-05 2.53405e-10 0)
(5.00018e-05 3.43855e-10 0)
(5.00023e-05 4.30967e-10 0)
(5.00025e-05 5.44656e-10 0)
(5.0003e-05 6.36568e-10 0)
(5.00033e-05 7.48964e-10 0)
(5.00038e-05 8.15121e-10 0)
(5.00042e-05 8.8814e-10 0)
(5.00046e-05 8.89875e-10 0)
(5.00007e-05 6.79658e-12 0)
(5.00012e-05 7.16607e-11 0)
(5.00013e-05 1.1979e-10 0)
(5.00014e-05 1.75558e-10 0)
(5.00015e-05 2.38168e-10 0)
(5.00017e-05 3.09156e-10 0)
(5.00018e-05 3.93635e-10 0)
(5.00021e-05 4.804e-10 0)
(5.00023e-05 5.87313e-10 0)
(5.00027e-05 6.84494e-10 0)
(5.00029e-05 8.0324e-10 0)
(5.00034e-05 8.95713e-10 0)
(5.00036e-05 1.00364e-09 0)
(5.00041e-05 1.06671e-09 0)
(5.00044e-05 1.13441e-09 0)
(5.00047e-05 1.14274e-09 0)
(5.00012e-05 3.04423e-11 0)
(5.00017e-05 1.11812e-10 0)
(5.00017e-05 1.84458e-10 0)
(5.00019e-05 2.63362e-10 0)
(5.00019e-05 3.48075e-10 0)
(5.00022e-05 4.37657e-10 0)
(5.00023e-05 5.39143e-10 0)
(5.00026e-05 6.37815e-10 0)
(5.00027e-05 7.54398e-10 0)
(5.00031e-05 8.55789e-10 0)
(5.00033e-05 9.7615e-10 0)
(5.00037e-05 1.06695e-09 0)
(5.0004e-05 1.17122e-09 0)
(5.00043e-05 1.23279e-09 0)
(5.00046e-05 1.29921e-09 0)
(5.00048e-05 1.31646e-09 0)
(5.00017e-05 4.76937e-11 0)
(5.00022e-05 1.38755e-10 0)
(5.00022e-05 2.27709e-10 0)
(5.00024e-05 3.21643e-10 0)
(5.00024e-05 4.20575e-10 0)
(5.00027e-05 5.2127e-10 0)
(5.00027e-05 6.33007e-10 0)
(5.00031e-05 7.37464e-10 0)
(5.00032e-05 8.59062e-10 0)
(5.00036e-05 9.60933e-10 0)
(5.00037e-05 1.08132e-09 0)
(5.00041e-05 1.1698e-09 0)
(5.00043e-05 1.27207e-09 0)
(5.00046e-05 1.33382e-09 0)
(5.00048e-05 1.40189e-09 0)
(5.0005e-05 1.42854e-09 0)
(5.00022e-05 5.92837e-11 0)
(5.00027e-05 1.54215e-10 0)
(5.00027e-05 2.52421e-10 0)
(5.00029e-05 3.5449e-10 0)
(5.00029e-05 4.61133e-10 0)
(5.00032e-05 5.66871e-10 0)
(5.00032e-05 6.83677e-10 0)
(5.00036e-05 7.89349e-10 0)
(5.00036e-05 9.12843e-10 0)
(5.0004e-05 1.01283e-09 0)
(5.00041e-05 1.13265e-09 0)
(5.00045e-05 1.21879e-09 0)
(5.00046e-05 1.32066e-09 0)
(5.00049e-05 1.38399e-09 0)
(5.0005e-05 1.45587e-09 0)
(5.00052e-05 1.49241e-09 0)
(5.00026e-05 6.59482e-11 0)
(5.00032e-05 1.59965e-10 0)
(5.00032e-05 2.6151e-10 0)
(5.00033e-05 3.66004e-10 0)
(5.00034e-05 4.75092e-10 0)
(5.00036e-05 5.81046e-10 0)
(5.00037e-05 6.98991e-10 0)
(5.0004e-05 8.02489e-10 0)
(5.00041e-05 9.25808e-10 0)
(5.00044e-05 1.02241e-09 0)
(5.00045e-05 1.14162e-09 0)
(5.00048e-05 1.22574e-09 0)
(5.00049e-05 1.32867e-09 0)
(5.00052e-05 1.39471e-09 0)
(5.00053e-05 1.47196e-09 0)
(5.00054e-05 1.5185e-09 0)
(5.00031e-05 6.84458e-11 0)
(5.00036e-05 1.57555e-10 0)
(5.00037e-05 2.57514e-10 0)
(5.00038e-05 3.59696e-10 0)
(5.00038e-05 4.66989e-10 0)
(5.00041e-05 5.69259e-10 0)
(5.00041e-05 6.85389e-10 0)
(5.00044e-05 7.84103e-10 0)
(5.00045e-05 9.05919e-10 0)
(5.00048e-05 9.98095e-10 0)
(5.00049e-05 1.11696e-09 0)
(5.00052e-05 1.19942e-09 0)
(5.00053e-05 1.30469e-09 0)
(5.00055e-05 1.37432e-09 0)
(5.00055e-05 1.45811e-09 0)
(5.00056e-05 1.5147e-09 0)
(5.00036e-05 6.74407e-11 0)
(5.0004e-05 1.48358e-10 0)
(5.00041e-05 2.42657e-10 0)
(5.00042e-05 3.38633e-10 0)
(5.00043e-05 4.40713e-10 0)
(5.00045e-05 5.36161e-10 0)
(5.00045e-05 6.48214e-10 0)
(5.00049e-05 7.40123e-10 0)
(5.00049e-05 8.59553e-10 0)
(5.00052e-05 9.46584e-10 0)
(5.00053e-05 1.06548e-09 0)
(5.00056e-05 1.14662e-09 0)
(5.00056e-05 1.25532e-09 0)
(5.00058e-05 1.32926e-09 0)
(5.00058e-05 1.4205e-09 0)
(5.00059e-05 1.48724e-09 0)
(5.0004e-05 6.3521e-11 0)
(5.00045e-05 1.33533e-10 0)
(5.00045e-05 2.18814e-10 0)
(5.00046e-05 3.05362e-10 0)
(5.00047e-05 3.99491e-10 0)
(5.00049e-05 4.85517e-10 0)
(5.00049e-05 5.91796e-10 0)
(5.00053e-05 6.75218e-10 0)
(5.00053e-05 7.91725e-10 0)
(5.00056e-05 8.72992e-10 0)
(5.00056e-05 9.92354e-10 0)
(5.00059e-05 1.07246e-09 0)
(5.0006e-05 1.18552e-09 0)
(5.00062e-05 1.26436e-09 0)
(5.00062e-05 1.36385e-09 0)
(5.00062e-05 1.44087e-09 0)
(5.00044e-05 5.71843e-11 0)
(5.00048e-05 1.1401e-10 0)
(5.00049e-05 1.87479e-10 0)
(5.0005e-05 2.61909e-10 0)
(5.0005e-05 3.45847e-10 0)
(5.00053e-05 4.20267e-10 0)
(5.00053e-05 5.19433e-10 0)
(5.00056e-05 5.92939e-10 0)
(5.00057e-05 7.06156e-10 0)
(5.0006e-05 7.81119e-10 0)
(5.0006e-05 9.01372e-10 0)
(5.00063e-05 9.80654e-10 0)
(5.00063e-05 1.09891e-09 0)
(5.00065e-05 1.18321e-09 0)
(5.00065e-05 1.29169e-09 0)
(5.00065e-05 1.37934e-09 0)
(5.00048e-05 4.883e-11 0)
(5.00051e-05 9.06232e-11 0)
(5.00052e-05 1.49985e-10 0)
(5.00053e-05 2.10061e-10 0)
(5.00054e-05 2.82014e-10 0)
(5.00056e-05 3.42952e-10 0)
(5.00056e-05 4.33996e-10 0)
(5.0006e-05 4.96293e-10 0)
(5.0006e-05 6.06019e-10 0)
(5.00063e-05 6.7412e-10 0)
(5.00064e-05 7.95698e-10 0)
(5.00067e-05 8.74293e-10 0)
(5.00067e-05 9.98511e-10 0)
(5.00069e-05 1.08882e-09 0)
(5.00068e-05 1.20704e-09 0)
(5.00069e-05 1.30583e-09 0)
(5.00051e-05 3.88161e-11 0)
(5.00054e-05 6.40278e-11 0)
(5.00055e-05 1.0738e-10 0)
(5.00056e-05 1.51203e-10 0)
(5.00056e-05 2.09704e-10 0)
(5.00059e-05 2.55497e-10 0)
(5.0006e-05 3.37624e-10 0)
(5.00063e-05 3.87488e-10 0)
(5.00063e-05 4.936e-10 0)
(5.00067e-05 5.54251e-10 0)
(5.00067e-05 6.7756e-10 0)
(5.0007e-05 7.5556e-10 0)
(5.0007e-05 8.86469e-10 0)
(5.00072e-05 9.83385e-10 0)
(5.00072e-05 1.11218e-09 0)
(5.00072e-05 1.22287e-09 0)
(5.00054e-05 2.74244e-11 0)
(5.00056e-05 3.49419e-11 0)
(5.00057e-05 6.08008e-11 0)
(5.00059e-05 8.68542e-11 0)
(5.00059e-05 1.30789e-10 0)
(5.00062e-05 1.60009e-10 0)
(5.00062e-05 2.32661e-10 0)
(5.00066e-05 2.68954e-10 0)
(5.00066e-05 3.71428e-10 0)
(5.0007e-05 4.24015e-10 0)
(5.00071e-05 5.49456e-10 0)
(5.00074e-05 6.26906e-10 0)
(5.00074e-05 7.65212e-10 0)
(5.00076e-05 8.69392e-10 0)
(5.00076e-05 1.00967e-09 0)
(5.00076e-05 1.13329e-09 0)
(5.00056e-05 1.49627e-11 0)
(5.00058e-05 4.0216e-12 0)
(5.00059e-05 1.12961e-11 0)
(5.0006e-05 1.83728e-11 0)
(5.00061e-05 4.6963e-11 0)
(5.00064e-05 5.83297e-11 0)
(5.00065e-05 1.21173e-10 0)
(5.00069e-05 1.42746e-10 0)
(5.00069e-05 2.41659e-10 0)
(5.00073e-05 2.85473e-10 0)
(5.00074e-05 4.13458e-10 0)
(5.00077e-05 4.90337e-10 0)
(5.00078e-05 6.36761e-10 0)
(5.0008e-05 7.48943e-10 0)
(5.0008e-05 9.0173e-10 0)
(5.00081e-05 1.03962e-09 0)
(5.00058e-05 1.71371e-12 0)
(5.00059e-05 -2.78333e-11 0)
(5.0006e-05 -3.97146e-11 0)
(5.00062e-05 -5.23349e-11 0)
(5.00062e-05 -3.94454e-11 0)
(5.00066e-05 -4.68844e-11 0)
(5.00067e-05 6.08495e-12 0)
(5.00071e-05 1.19448e-11 0)
(5.00072e-05 1.07472e-10 0)
(5.00076e-05 1.41829e-10 0)
(5.00077e-05 2.72754e-10 0)
(5.00081e-05 3.49033e-10 0)
(5.00082e-05 5.04268e-10 0)
(5.00084e-05 6.25271e-10 0)
(5.00084e-05 7.91694e-10 0)
(5.00085e-05 9.45465e-10 0)
(5.00059e-05 -1.19376e-11 0)
(5.00059e-05 -5.95923e-11 0)
(5.0006e-05 -9.05771e-11 0)
(5.00063e-05 -1.23124e-10 0)
(5.00063e-05 -1.25742e-10 0)
(5.00067e-05 -1.52696e-10 0)
(5.00068e-05 -1.09272e-10 0)
(5.00073e-05 -1.20111e-10 0)
(5.00074e-05 -2.75835e-11 0)
(5.00079e-05 -3.49882e-12 0)
(5.0008e-05 1.30822e-10 0)
(5.00085e-05 2.06351e-10 0)
(5.00086e-05 3.71105e-10 0)
(5.00089e-05 5.01797e-10 0)
(5.00089e-05 6.83086e-10 0)
(5.0009e-05 8.54688e-10 0)
(5.00059e-05 -2.55473e-11 0)
(5.00059e-05 -8.97811e-11 0)
(5.0006e-05 -1.3896e-10 0)
(5.00063e-05 -1.90845e-10 0)
(5.00064e-05 -2.08081e-10 0)
(5.00068e-05 -2.54661e-10 0)
(5.00069e-05 -2.20011e-10 0)
(5.00075e-05 -2.48199e-10 0)
(5.00076e-05 -1.58109e-10 0)
(5.00082e-05 -1.45006e-10 0)
(5.00084e-05 -6.84877e-12 0)
(5.00088e-05 6.77684e-11 0)
(5.0009e-05 2.42676e-10 0)
(5.00093e-05 3.83967e-10 0)
(5.00094e-05 5.81395e-10 0)
(5.00095e-05 7.73042e-10 0)
(5.00059e-05 -3.84845e-11 0)
(5.00058e-05 -1.16502e-10 0)
(5.00059e-05 -1.81816e-10 0)
(5.00062e-05 -2.51501e-10 0)
(5.00063e-05 -2.81452e-10 0)
(5.00068e-05 -3.47208e-10 0)
(5.0007e-05 -3.19827e-10 0)
(5.00076e-05 -3.65851e-10 0)
(5.00078e-05 -2.77238e-10 0)
(5.00084e-05 -2.75951e-10 0)
(5.00087e-05 -1.3342e-10 0)
(5.00092e-05 -6.00784e-11 0)
(5.00094e-05 1.25558e-10 0)
(5.00098e-05 2.78307e-10 0)
(5.00099e-05 4.93144e-10 0)
(5.00101e-05 7.07338e-10 0)
(5.00058e-05 -4.99328e-11 0)
(5.00057e-05 -1.37167e-10 0)
(5.00058e-05 -2.15034e-10 0)
(5.00061e-05 -2.99532e-10 0)
(5.00062e-05 -3.39038e-10 0)
(5.00068e-05 -4.22428e-10 0)
(5.0007e-05 -3.99982e-10 0)
(5.00076e-05 -4.6369e-10 0)
(5.00079e-05 -3.75226e-10 0)
(5.00086e-05 -3.8639e-10 0)
(5.00089e-05 -2.38941e-10 0)
(5.00096e-05 -1.67326e-10 0)
(5.00099e-05 2.94456e-11 0)
(5.00103e-05 1.9441e-10 0)
(5.00105e-05 4.2784e-10 0)
(5.00107e-05 6.67261e-10 0)
(5.00056e-05 -5.87834e-11 0)
(5.00054e-05 -1.48346e-10 0)
(5.00056e-05 -2.33109e-10 0)
(5.00059e-05 -3.27635e-10 0)
(5.00061e-05 -3.71732e-10 0)
(5.00067e-05 -4.70014e-10 0)
(5.00069e-05 -4.4888e-10 0)
(5.00077e-05 -5.29593e-10 0)
(5.0008e-05 -4.39267e-10 0)
(5.00088e-05 -4.63559e-10 0)
(5.00092e-05 -3.10528e-10 0)
(5.00099e-05 -2.41421e-10 0)
(5.00103e-05 -3.3342e-11 0)
(5.00109e-05 1.44336e-10 0)
(5.00112e-05 3.97304e-10 0)
(5.00114e-05 6.6477e-10 0)
(5.00054e-05 -6.35618e-11 0)
(5.00051e-05 -1.4559e-10 0)
(5.00053e-05 -2.28947e-10 0)
(5.00057e-05 -3.26227e-10 0)
(5.00059e-05 -3.67728e-10 0)
(5.00065e-05 -4.76263e-10 0)
(5.00068e-05 -4.51304e-10 0)
(5.00077e-05 -5.47234e-10 0)
(5.00081e-05 -4.52303e-10 0)
(5.00089e-05 -4.90096e-10 0)
(5.00095e-05 -3.30761e-10 0)
(5.00103e-05 -2.65209e-10 0)
(5.00108e-05 -4.60014e-11 0)
(5.00115e-05 1.44494e-10 0)
(5.00118e-05 4.17588e-10 0)
(5.00122e-05 7.15892e-10 0)
(5.0005e-05 -6.23608e-11 0)
(5.00048e-05 -1.23045e-10 0)
(5.00049e-05 -1.93163e-10 0)
(5.00054e-05 -2.82742e-10 0)
(5.00056e-05 -3.11418e-10 0)
(5.00063e-05 -4.23272e-10 0)
(5.00067e-05 -3.87192e-10 0)
(5.00076e-05 -4.95349e-10 0)
(5.00081e-05 -3.91948e-10 0)
(5.00091e-05 -4.43463e-10 0)
(5.00097e-05 -2.76958e-10 0)
(5.00107e-05 -2.16541e-10 0)
(5.00113e-05 1.308e-11 0)
(5.00121e-05 2.15849e-10 0)
(5.00126e-05 5.08993e-10 0)
(5.00131e-05 8.40747e-10 0)
(5.00047e-05 -5.26658e-11 0)
(5.00044e-05 -7.33835e-11 0)
(5.00045e-05 -1.14026e-10 0)
(5.0005e-05 -1.81334e-10 0)
(5.00053e-05 -1.83208e-10 0)
(5.00061e-05 -2.88276e-10 0)
(5.00065e-05 -2.31156e-10 0)
(5.00075e-05 -3.46692e-10 0)
(5.00081e-05 -2.29611e-10 0)
(5.00092e-05 -2.94613e-10 0)
(5.001e-05 -1.19909e-10 0)
(5.0011e-05 -6.68077e-11 0)
(5.00118e-05 1.71843e-10 0)
(5.00128e-05 3.85415e-10 0)
(5.00134e-05 6.97673e-10 0)
(5.0014e-05 1.06505e-09 0)
(5.00043e-05 -3.13317e-11 0)
(5.0004e-05 1.28113e-11 0)
(5.00041e-05 2.35566e-11 0)
(5.00047e-05 -1.64021e-12 0)
(5.00049e-05 4.21563e-11 0)
(5.00058e-05 -4.19854e-11 0)
(5.00062e-05 4.95826e-11 0)
(5.00073e-05 -6.61383e-11 0)
(5.0008e-05 7.16614e-11 0)
(5.00092e-05 -6.05106e-12 0)
(5.00102e-05 1.78087e-10 0)
(5.00114e-05 2.20861e-10 0)
(5.00124e-05 4.66139e-10 0)
(5.00135e-05 6.87733e-10 0)
(5.00143e-05 1.01679e-09 0)
(5.00151e-05 1.4212e-09 0)
(5.00039e-05 5.68337e-12 0)
(5.00036e-05 1.47044e-10 0)
(5.00037e-05 2.38065e-10 0)
(5.00043e-05 2.81335e-10 0)
(5.00045e-05 3.95709e-10 0)
(5.00055e-05 3.51746e-10 0)
(5.0006e-05 4.95545e-10 0)
(5.00071e-05 3.89889e-10 0)
(5.0008e-05 5.57841e-10 0)
(5.00093e-05 4.68918e-10 0)
(5.00104e-05 6.6414e-10 0)
(5.00117e-05 6.92425e-10 0)
(5.0013e-05 9.4078e-10 0)
(5.00143e-05 1.16576e-09 0)
(5.00153e-05 1.50758e-09 0)
(5.00163e-05 1.94924e-09 0)
(5.00035e-05 6.33206e-11 0)
(5.00032e-05 3.43604e-10 0)
(5.00034e-05 5.52426e-10 0)
(5.0004e-05 6.98771e-10 0)
(5.00042e-05 9.16135e-10 0)
(5.00052e-05 9.38295e-10 0)
(5.00057e-05 1.15758e-09 0)
(5.00069e-05 1.0765e-09 0)
(5.00079e-05 1.28703e-09 0)
(5.00093e-05 1.18974e-09 0)
(5.00105e-05 1.39811e-09 0)
(5.00121e-05 1.40654e-09 0)
(5.00135e-05 1.6527e-09 0)
(5.00151e-05 1.87404e-09 0)
(5.00164e-05 2.22204e-09 0)
(5.00176e-05 2.69939e-09 0)
(5.00031e-05 1.4771e-10 0)
(5.00031e-05 6.19591e-10 0)
(5.00032e-05 9.94207e-10 0)
(5.00038e-05 1.28809e-09 0)
(5.0004e-05 1.65017e-09 0)
(5.0005e-05 1.77239e-09 0)
(5.00055e-05 2.09753e-09 0)
(5.00068e-05 2.06057e-09 0)
(5.00077e-05 2.33033e-09 0)
(5.00093e-05 2.22889e-09 0)
(5.00107e-05 2.45352e-09 0)
(5.00124e-05 2.43485e-09 0)
(5.00141e-05 2.67177e-09 0)
(5.0016e-05 2.87909e-09 0)
(5.00176e-05 3.22354e-09 0)
(5.00191e-05 3.73257e-09 0)
(5.0003e-05 2.66199e-10 0)
(5.00031e-05 9.95327e-10 0)
(5.00032e-05 1.59611e-09 0)
(5.00038e-05 2.09418e-09 0)
(5.00039e-05 2.65371e-09 0)
(5.00049e-05 2.92049e-09 0)
(5.00053e-05 3.39029e-09 0)
(5.00066e-05 3.42442e-09 0)
(5.00077e-05 3.77515e-09 0)
(5.00093e-05 3.67675e-09 0)
(5.00109e-05 3.92195e-09 0)
(5.00128e-05 3.8674e-09 0)
(5.00148e-05 4.08555e-09 0)
(5.00169e-05 4.26432e-09 0)
(5.00189e-05 4.59114e-09 0)
(5.00208e-05 5.12436e-09 0)
(5.0003e-05 4.27504e-10 0)
(5.00036e-05 1.49445e-09 0)
(5.00035e-05 2.39644e-09 0)
(5.00041e-05 3.16942e-09 0)
(5.00041e-05 3.99272e-09 0)
(5.0005e-05 4.46072e-09 0)
(5.00054e-05 5.12514e-09 0)
(5.00066e-05 5.26584e-09 0)
(5.00076e-05 5.72674e-09 0)
(5.00093e-05 5.64185e-09 0)
(5.0011e-05 5.91459e-09 0)
(5.00131e-05 5.81306e-09 0)
(5.00154e-05 6.00053e-09 0)
(5.00178e-05 6.13066e-09 0)
(5.00203e-05 6.42034e-09 0)
(5.00227e-05 6.96566e-09 0)
(5.00035e-05 6.41778e-10 0)
(5.00045e-05 2.14348e-09 0)
(5.00043e-05 3.43809e-09 0)
(5.00048e-05 4.57342e-09 0)
(5.00046e-05 5.74221e-09 0)
(5.00054e-05 6.48379e-09 0)
(5.00056e-05 7.40587e-09 0)
(5.00068e-05 7.70109e-09 0)
(5.00077e-05 8.3106e-09 0)
(5.00093e-05 8.25608e-09 0)
(5.00111e-05 8.56711e-09 0)
(5.00134e-05 8.40625e-09 0)
(5.0016e-05 8.54855e-09 0)
(5.00188e-05 8.60311e-09 0)
(5.00217e-05 8.82915e-09 0)
(5.00247e-05 9.36816e-09 0)
(5.00044e-05 9.2039e-10 0)
(5.00061e-05 2.9717e-09 0)
(5.00058e-05 4.76888e-09 0)
(5.00062e-05 6.37252e-09 0)
(5.00057e-05 7.98687e-09 0)
(5.00063e-05 9.09223e-09 0)
(5.00062e-05 1.03518e-08 0)
(5.00072e-05 1.08644e-08 0)
(5.00079e-05 1.16742e-08 0)
(5.00094e-05 1.16753e-08 0)
(5.00113e-05 1.20422e-08 0)
(5.00136e-05 1.18089e-08 0)
(5.00165e-05 1.18898e-08 0)
(5.00198e-05 1.18335e-08 0)
(5.00233e-05 1.19609e-08 0)
(5.00269e-05 1.2467e-08 0)
(5.00061e-05 1.27591e-09 0)
(5.00087e-05 4.00905e-09 0)
(5.00082e-05 6.43781e-09 0)
(5.00083e-05 8.63615e-09 0)
(5.00075e-05 1.08159e-08 0)
(5.00078e-05 1.23971e-08 0)
(5.00074e-05 1.40938e-08 0)
(5.0008e-05 1.49069e-08 0)
(5.00084e-05 1.59861e-08 0)
(5.00097e-05 1.60823e-08 0)
(5.00115e-05 1.65336e-08 0)
(5.00138e-05 1.6217e-08 0)
(5.0017e-05 1.62204e-08 0)
(5.00207e-05 1.60083e-08 0)
(5.00248e-05 1.59919e-08 0)
(5.00293e-05 1.64275e-08 0)
(5.00087e-05 1.72116e-09 0)
(5.00126e-05 5.28512e-09 0)
(5.00117e-05 8.4939e-09 0)
(5.00116e-05 1.14343e-08 0)
(5.00103e-05 1.43213e-08 0)
(5.00102e-05 1.65144e-08 0)
(5.00092e-05 1.8772e-08 0)
(5.00093e-05 1.99943e-08 0)
(5.00093e-05 2.14358e-08 0)
(5.00102e-05 2.16869e-08 0)
(5.00118e-05 2.22688e-08 0)
(5.0014e-05 2.18648e-08 0)
(5.00174e-05 2.17787e-08 0)
(5.00215e-05 2.13549e-08 0)
(5.00264e-05 2.11372e-08 0)
(5.00318e-05 2.14489e-08 0)
(5.00126e-05 2.26883e-09 0)
(5.0018e-05 6.82421e-09 0)
(5.00167e-05 1.09781e-08 0)
(5.00163e-05 1.48278e-08 0)
(5.00144e-05 1.85851e-08 0)
(5.00137e-05 2.15531e-08 0)
(5.0012e-05 2.45231e-08 0)
(5.00114e-05 2.62958e-08 0)
(5.00107e-05 2.82247e-08 0)
(5.0011e-05 2.8722e-08 0)
(5.00121e-05 2.95097e-08 0)
(5.00141e-05 2.90309e-08 0)
(5.00177e-05 2.88553e-08 0)
(5.00221e-05 2.81539e-08 0)
(5.00278e-05 2.7664e-08 0)
(5.00344e-05 2.77755e-08 0)
(5.00181e-05 2.92927e-09 0)
(5.00253e-05 8.64207e-09 0)
(5.00236e-05 1.3918e-08 0)
(5.00228e-05 1.88606e-08 0)
(5.00202e-05 2.3671e-08 0)
(5.00187e-05 2.7604e-08 0)
(5.00161e-05 3.14685e-08 0)
(5.00145e-05 3.39727e-08 0)
(5.00129e-05 3.65561e-08 0)
(5.00122e-05 3.74372e-08 0)
(5.00128e-05 3.85517e-08 0)
(5.00142e-05 3.8046e-08 0)
(5.00177e-05 3.7812e-08 0)
(5.00225e-05 3.67679e-08 0)
(5.0029e-05 3.59296e-08 0)
(5.0037e-05 3.57389e-08 0)
(5.00255e-05 3.70918e-09 0)
(5.0035e-05 1.07374e-08 0)
(5.00329e-05 1.73146e-08 0)
(5.00314e-05 2.35412e-08 0)
(5.0028e-05 2.96003e-08 0)
(5.00256e-05 3.47125e-08 0)
(5.00218e-05 3.9685e-08 0)
(5.00191e-05 4.31473e-08 0)
(5.00162e-05 4.66055e-08 0)
(5.00143e-05 4.80726e-08 0)
(5.00137e-05 4.97045e-08 0)
(5.00143e-05 4.92841e-08 0)
(5.00175e-05 4.90856e-08 0)
(5.00224e-05 4.76606e-08 0)
(5.00299e-05 4.64222e-08 0)
(5.00395e-05 4.58046e-08 0)
(5.00354e-05 4.6079e-09 0)
(5.00475e-05 1.30854e-08 0)
(5.00448e-05 2.11306e-08 0)
(5.00427e-05 2.88269e-08 0)
(5.00383e-05 3.63316e-08 0)
(5.00347e-05 4.28526e-08 0)
(5.00296e-05 4.91722e-08 0)
(5.00254e-05 5.38673e-08 0)
(5.00208e-05 5.84805e-08 0)
(5.00173e-05 6.08193e-08 0)
(5.00153e-05 6.32526e-08 0)
(5.00146e-05 6.31262e-08 0)
(5.00171e-05 6.31483e-08 0)
(5.00218e-05 6.13511e-08 0)
(5.00302e-05 5.96928e-08 0)
(5.00417e-05 5.84654e-08 0)
(5.0048e-05 5.61463e-09 0)
(5.00633e-05 1.56264e-08 0)
(5.00599e-05 2.52726e-08 0)
(5.00571e-05 3.45973e-08 0)
(5.00515e-05 4.3726e-08 0)
(5.00467e-05 5.18831e-08 0)
(5.00399e-05 5.98016e-08 0)
(5.0034e-05 6.60463e-08 0)
(5.00275e-05 7.21599e-08 0)
(5.00219e-05 7.57594e-08 0)
(5.00179e-05 7.94089e-08 0)
(5.00153e-05 7.99325e-08 0)
(5.00165e-05 8.05012e-08 0)
(5.00205e-05 7.84107e-08 0)
(5.00297e-05 7.62794e-08 0)
(5.00433e-05 7.40502e-08 0)
(5.00639e-05 6.70367e-09 0)
(5.00826e-05 1.82577e-08 0)
(5.00786e-05 2.95762e-08 0)
(5.00749e-05 4.06322e-08 0)
(5.00682e-05 5.15142e-08 0)
(5.0062e-05 6.15032e-08 0)
(5.00534e-05 7.12566e-08 0)
(5.00455e-05 7.93911e-08 0)
(5.00366e-05 8.74076e-08 0)
(5.00287e-05 9.27893e-08 0)
(5.0022e-05 9.82726e-08 0)
(5.00168e-05 1.00102e-07 0)
(5.00158e-05 1.01934e-07 0)
(5.00183e-05 1.00032e-07 0)
(5.00278e-05 9.76351e-08 0)
(5.00438e-05 9.39514e-08 0)
(5.00834e-05 7.83081e-09 0)
(5.01058e-05 2.08257e-08 0)
(5.01011e-05 3.37922e-08 0)
(5.00966e-05 4.65878e-08 0)
(5.00886e-05 5.92617e-08 0)
(5.00809e-05 7.11965e-08 0)
(5.00705e-05 8.29506e-08 0)
(5.00605e-05 9.32781e-08 0)
(5.00491e-05 1.03599e-07 0)
(5.00383e-05 1.11381e-07 0)
(5.00285e-05 1.19541e-07 0)
(5.00199e-05 1.23798e-07 0)
(5.00158e-05 1.28458e-07 0)
(5.00154e-05 1.28537e-07 0)
(5.00237e-05 1.27958e-07 0)
(5.00424e-05 1.24357e-07 0)
(5.01068e-05 8.93011e-09 0)
(5.01329e-05 2.31245e-08 0)
(5.01276e-05 3.75824e-08 0)
(5.01223e-05 5.19893e-08 0)
(5.01131e-05 6.63504e-08 0)
(5.01039e-05 8.01974e-08 0)
(5.00917e-05 9.39576e-08 0)
(5.00795e-05 1.06623e-07 0)
(5.00655e-05 1.19475e-07 0)
(5.00519e-05 1.30137e-07 0)
(5.00388e-05 1.41705e-07 0)
(5.00266e-05 1.49573e-07 0)
(5.00188e-05 1.59057e-07 0)
(5.00144e-05 1.64058e-07 0)
(5.00197e-05 1.70108e-07 0)
(5.00383e-05 1.72649e-07 0)
(5.0134e-05 9.91331e-09 0)
(5.01637e-05 2.49058e-08 0)
(5.01578e-05 4.05375e-08 0)
(5.01517e-05 5.62534e-08 0)
(5.01415e-05 7.20095e-08 0)
(5.01309e-05 8.75223e-08 0)
(5.01169e-05 1.03046e-07 0)
(5.01027e-05 1.17897e-07 0)
(5.00862e-05 1.33101e-07 0)
(5.007e-05 1.466e-07 0)
(5.00536e-05 1.61496e-07 0)
(5.00381e-05 1.72999e-07 0)
(5.00268e-05 1.87492e-07 0)
(5.00187e-05 1.97724e-07 0)
(5.002e-05 2.11724e-07 0)
(5.00337e-05 2.23007e-07 0)
(5.0165e-05 1.06743e-08 0)
(5.01978e-05 2.58962e-08 0)
(5.01914e-05 4.22054e-08 0)
(5.01846e-05 5.87359e-08 0)
(5.01734e-05 7.53866e-08 0)
(5.01615e-05 9.20847e-08 0)
(5.01459e-05 1.08859e-07 0)
(5.01298e-05 1.2542e-07 0)
(5.01109e-05 1.42376e-07 0)
(5.00919e-05 1.58128e-07 0)
(5.00722e-05 1.75393e-07 0)
(5.00531e-05 1.89233e-07 0)
(5.00378e-05 2.06545e-07 0)
(5.00249e-05 2.18141e-07 0)
(5.0021e-05 2.33823e-07 0)
(5.00269e-05 2.44488e-07 0)
(5.01993e-05 1.1096e-08 0)
(5.02344e-05 2.5821e-08 0)
(5.02276e-05 4.2134e-08 0)
(5.02202e-05 5.87934e-08 0)
(5.02081e-05 7.56406e-08 0)
(5.01951e-05 9.28269e-08 0)
(5.0178e-05 1.10119e-07 0)
(5.016e-05 1.27692e-07 0)
(5.01386e-05 1.45595e-07 0)
(5.01169e-05 1.62901e-07 0)
(5.00933e-05 1.81566e-07 0)
(5.007e-05 1.96875e-07 0)
(5.00492e-05 2.15818e-07 0)
(5.00296e-05 2.27054e-07 0)
(5.00188e-05 2.43181e-07 0)
(5.0017e-05 2.51461e-07 0)
(5.02361e-05 1.10611e-08 0)
(5.02726e-05 2.44226e-08 0)
(5.02653e-05 3.98992e-08 0)
(5.02574e-05 5.58224e-08 0)
(5.02445e-05 7.19834e-08 0)
(5.02305e-05 8.87586e-08 0)
(5.0212e-05 1.05637e-07 0)
(5.01923e-05 1.23308e-07 0)
(5.01686e-05 1.41162e-07 0)
(5.01441e-05 1.59195e-07 0)
(5.01162e-05 1.78196e-07 0)
(5.00881e-05 1.94374e-07 0)
(5.00605e-05 2.13984e-07 0)
(5.00326e-05 2.24094e-07 0)
(5.00138e-05 2.41426e-07 0)
(5.00032e-05 2.45897e-07 0)
(5.02743e-05 1.04594e-08 0)
(5.03108e-05 2.14898e-08 0)
(5.03032e-05 3.51504e-08 0)
(5.02948e-05 4.93146e-08 0)
(5.02814e-05 6.37396e-08 0)
(5.02663e-05 7.90038e-08 0)
(5.02468e-05 9.43291e-08 0)
(5.02254e-05 1.10932e-07 0)
(5.01996e-05 1.27511e-07 0)
(5.01723e-05 1.45219e-07 0)
(5.01401e-05 1.63344e-07 0)
(5.01067e-05 1.79938e-07 0)
(5.00707e-05 1.99144e-07 0)
(5.00337e-05 2.08735e-07 0)
(5.00055e-05 2.28235e-07 0)
(4.99812e-05 2.2738e-07 0)
(5.03126e-05 9.20052e-09 0)
(5.03475e-05 1.68433e-08 0)
(5.03397e-05 2.75841e-08 0)
(5.03309e-05 3.88158e-08 0)
(5.03169e-05 5.02775e-08 0)
(5.03011e-05 6.26907e-08 0)
(5.02806e-05 7.50338e-08 0)
(5.02577e-05 8.90329e-08 0)
(5.02302e-05 1.02794e-07 0)
(5.02001e-05 1.18764e-07 0)
(5.01639e-05 1.34638e-07 0)
(5.0125e-05 1.5116e-07 0)
(5.00802e-05 1.69044e-07 0)
(5.00339e-05 1.80664e-07 0)
(4.99938e-05 2.01047e-07 0)
(4.99474e-05 1.91235e-07 0)
(5.03495e-05 7.20845e-09 0)
(5.03811e-05 1.02968e-08 0)
(5.0373e-05 1.69004e-08 0)
(5.03637e-05 2.39218e-08 0)
(5.03493e-05 3.11196e-08 0)
(5.03325e-05 3.92887e-08 0)
(5.03109e-05 4.72468e-08 0)
(5.02867e-05 5.71748e-08 0)
(5.02577e-05 6.66927e-08 0)
(5.02255e-05 7.94443e-08 0)
(5.01861e-05 9.17015e-08 0)
(5.01425e-05 1.07228e-07 0)
(5.00904e-05 1.22495e-07 0)
(5.00344e-05 1.35693e-07 0)
(4.99714e-05 1.48135e-07 0)
(4.98926e-05 1.23877e-07 0)
(5.03831e-05 4.40404e-09 0)
(5.04091e-05 2.00248e-09 0)
(5.04007e-05 3.39463e-09 0)
(5.03909e-05 5.15564e-09 0)
(5.03759e-05 7.16484e-09 0)
(5.03582e-05 1.03213e-08 0)
(5.0336e-05 1.35768e-08 0)
(5.03113e-05 1.91237e-08 0)
(5.02824e-05 2.35116e-08 0)
(5.02499e-05 3.07099e-08 0)
(5.02094e-05 3.5635e-08 0)
(5.01616e-05 4.43552e-08 0)
(5.0099e-05 4.92128e-08 0)
(5.00259e-05 5.10646e-08 0)
(4.9928e-05 4.3024e-08 0)
(4.98085e-05 4.62208e-09 0)
(5.04112e-05 8.46815e-10 0)
(5.04309e-05 -6.80614e-09 0)
(5.04226e-05 -1.09826e-08 0)
(5.04132e-05 -1.50095e-08 0)
(5.03987e-05 -1.90279e-08 0)
(5.03816e-05 -2.22444e-08 0)
(5.03594e-05 -2.57006e-08 0)
(5.03323e-05 -2.79793e-08 0)
(5.02995e-05 -3.3743e-08 0)
(5.02618e-05 -3.95677e-08 0)
(5.02154e-05 -5.1459e-08 0)
(5.01596e-05 -6.27296e-08 0)
(5.00838e-05 -8.27515e-08 0)
(4.99893e-05 -1.04103e-07 0)
(4.9858e-05 -1.35806e-07 0)
(4.96995e-05 -1.81971e-07 0)
(5.0433e-05 -2.93341e-09 0)
(5.04482e-05 -1.75657e-08 0)
(5.04385e-05 -2.89762e-08 0)
(5.04271e-05 -4.12594e-08 0)
(5.04101e-05 -5.50253e-08 0)
(5.03894e-05 -6.99822e-08 0)
(5.03631e-05 -8.82381e-08 0)
(5.03296e-05 -1.08435e-07 0)
(5.02883e-05 -1.34186e-07 0)
(5.02396e-05 -1.62129e-07 0)
(5.01811e-05 -1.98484e-07 0)
(5.01111e-05 -2.35648e-07 0)
(5.00211e-05 -2.83157e-07 0)
(4.991e-05 -3.27522e-07 0)
(4.97581e-05 -3.80751e-07 0)
(4.9573e-05 -4.30998e-07 0)
(5.04506e-05 -7.53166e-09 0)
(5.04433e-05 -3.71699e-08 0)
(5.04303e-05 -6.1783e-08 0)
(5.04136e-05 -8.86982e-08 0)
(5.03899e-05 -1.18996e-07 0)
(5.03603e-05 -1.52588e-07 0)
(5.0324e-05 -1.91697e-07 0)
(5.028e-05 -2.34694e-07 0)
(5.0228e-05 -2.84262e-07 0)
(5.01672e-05 -3.36662e-07 0)
(5.00964e-05 -3.97627e-07 0)
(5.00132e-05 -4.58568e-07 0)
(4.99113e-05 -5.2919e-07 0)
(4.97877e-05 -5.92465e-07 0)
(4.96252e-05 -6.64027e-07 0)
(4.94282e-05 -7.18305e-07 0)
(5.04469e-05 -1.58832e-08 0)
(5.0393e-05 -6.77484e-08 0)
(5.03756e-05 -1.12105e-07 0)
(5.03522e-05 -1.59622e-07 0)
(5.03203e-05 -2.11387e-07 0)
(5.0281e-05 -2.67224e-07 0)
(5.0234e-05 -3.28784e-07 0)
(5.0179e-05 -3.94472e-07 0)
(5.01161e-05 -4.66478e-07 0)
(5.0044e-05 -5.40824e-07 0)
(4.99624e-05 -6.22432e-07 0)
(4.98685e-05 -7.02176e-07 0)
(4.97587e-05 -7.89645e-07 0)
(4.96282e-05 -8.65353e-07 0)
(4.94653e-05 -9.46883e-07 0)
(4.92717e-05 -9.98941e-07 0)
(5.03983e-05 -2.89328e-08 0)
(5.0284e-05 -1.06117e-07 0)
(5.02627e-05 -1.74375e-07 0)
(5.02331e-05 -2.45671e-07 0)
(5.01938e-05 -3.20626e-07 0)
(5.01459e-05 -3.98936e-07 0)
(5.00898e-05 -4.8171e-07 0)
(5.00256e-05 -5.67584e-07 0)
(4.9954e-05 -6.58262e-07 0)
(4.98734e-05 -7.49889e-07 0)
(4.97848e-05 -8.46586e-07 0)
(4.96847e-05 -9.3917e-07 0)
(4.95728e-05 -1.03671e-06 0)
(4.94432e-05 -1.11845e-06 0)
(4.92906e-05 -1.20273e-06 0)
(4.91136e-05 -1.24892e-06 0)
(5.02912e-05 -4.53532e-08 0)
(5.01095e-05 -1.46327e-07 0)
(5.00858e-05 -2.3904e-07 0)
(5.00525e-05 -3.33915e-07 0)
(5.00087e-05 -4.30813e-07 0)
(4.99557e-05 -5.2936e-07 0)
(4.98942e-05 -6.30156e-07 0)
(4.98246e-05 -7.3219e-07 0)
(4.9748e-05 -8.36746e-07 0)
(4.96632e-05 -9.40461e-07 0)
(4.95721e-05 -1.04673e-06 0)
(4.94713e-05 -1.14685e-06 0)
(4.93633e-05 -1.24907e-06 0)
(4.92419e-05 -1.33272e-06 0)
(4.91078e-05 -1.41632e-06 0)
(4.89569e-05 -1.45747e-06 0)
(5.01178e-05 -6.26091e-08 0)
(4.98735e-05 -1.81476e-07 0)
(4.98497e-05 -2.95294e-07 0)
(4.98158e-05 -4.10214e-07 0)
(4.97713e-05 -5.2528e-07 0)
(4.97174e-05 -6.40098e-07 0)
(4.9655e-05 -7.54778e-07 0)
(4.95844e-05 -8.68686e-07 0)
(4.95074e-05 -9.82661e-07 0)
(4.9423e-05 -1.09404e-06 0)
(4.93341e-05 -1.20551e-06 0)
(4.92377e-05 -1.30935e-06 0)
(4.91387e-05 -1.41274e-06 0)
(4.90314e-05 -1.49633e-06 0)
(4.89215e-05 -1.578e-06 0)
(4.8803e-05 -1.61601e-06 0)
(4.98823e-05 -7.77276e-08 0)
(4.95896e-05 -2.05953e-07 0)
(4.95675e-05 -3.34454e-07 0)
(4.95357e-05 -4.63361e-07 0)
(4.94938e-05 -5.91038e-07 0)
(4.94426e-05 -7.17092e-07 0)
(4.93832e-05 -8.41134e-07 0)
(4.93158e-05 -9.62824e-07 0)
(4.92425e-05 -1.08247e-06 0)
(4.91626e-05 -1.19814e-06 0)
(4.90799e-05 -1.3118e-06 0)
(4.89922e-05 -1.41701e-06 0)
(4.89064e-05 -1.5197e-06 0)
(4.88174e-05 -1.60273e-06 0)
(4.87356e-05 -1.68247e-06 0)
(4.86535e-05 -1.71961e-06 0)
(4.9598e-05 -8.82723e-08 0)
(4.92772e-05 -2.167e-07 0)
(4.92577e-05 -3.51792e-07 0)
(4.92295e-05 -4.87241e-07 0)
(4.9192e-05 -6.20993e-07 0)
(4.91459e-05 -7.52678e-07 0)
(4.9092e-05 -8.81409e-07 0)
(4.90307e-05 -1.00701e-06 0)
(4.8964e-05 -1.12914e-06 0)
(4.88918e-05 -1.24656e-06 0)
(4.88183e-05 -1.36035e-06 0)
(4.87422e-05 -1.4656e-06 0)
(4.86724e-05 -1.56671e-06 0)
(4.86046e-05 -1.64947e-06 0)
(4.8553e-05 -1.7279e-06 0)
(4.85093e-05 -1.76664e-06 0)
(4.92847e-05 -9.29051e-08 0)
(4.89571e-05 -2.13659e-07 0)
(4.89401e-05 -3.47163e-07 0)
(4.89155e-05 -4.81551e-07 0)
(4.88827e-05 -6.14646e-07 0)
(4.88422e-05 -7.46152e-07 0)
(4.87948e-05 -8.74766e-07 0)
(4.87409e-05 -1.00039e-06 0)
(4.86824e-05 -1.122e-06 0)
(4.86196e-05 -1.23892e-06 0)
(4.8557e-05 -1.35127e-06 0)
(4.84945e-05 -1.45561e-06 0)
(4.84421e-05 -1.55468e-06 0)
(4.8397e-05 -1.63758e-06 0)
(4.83763e-05 -1.71529e-06 0)
(4.83713e-05 -1.75762e-06 0)
(4.89636e-05 -9.15935e-08 0)
(4.86479e-05 -1.99401e-07 0)
(4.86326e-05 -3.24461e-07 0)
(4.86105e-05 -4.51132e-07 0)
(4.85814e-05 -5.77361e-07 0)
(4.85457e-05 -7.03021e-07 0)
(4.85042e-05 -8.26593e-07 0)
(4.84574e-05 -9.48095e-07 0)
(4.84072e-05 -1.06595e-06 0)
(4.83542e-05 -1.17999e-06 0)
(4.8303e-05 -1.28927e-06 0)
(4.82548e-05 -1.39175e-06 0)
(4.82201e-05 -1.48832e-06 0)