/*--------------------------------*- C++ -*----------------------------------*\
| =========                 |                                                 |
| \\      /  F ield         | OpenFOAM: The Open Source CFD Toolbox           |
|  \\    /   O peration     | Version:  4.1                                   |
|   \\  /    A nd           | Web:      www.OpenFOAM.org                      |
|    \\/     M anipulation  |                                                 |
\*---------------------------------------------------------------------------*/
FoamFile
{
    version     2.0;
    format      ascii;
    class       pointVectorField;
    location    "0.0061";
    object      pointDisplacement_Next;
}
// * * * * * * * * * * * * * * * * * * * * * * * * * * * * * * * * * * * * * //

dimensions      [0 1 0 0 0 0 0];

internalField   uniform (0 0 0);

boundaryField
{
    inlet
    {
        type            fixedValue;
        value           uniform (0 0 0);
    }
    outlet
    {
        type            fixedValue;
        value           nonuniform 0();
    }
    mantle
    {
        type            fixedValue;
        value           nonuniform List<vector> 
416
(
(4.4121e-13 -5.6498e-13 -1.7678e-17)
(1.1752e-06 -1.4533e-06 -3.4593e-11)
(1.1721e-06 -1.3662e-06 2.3858e-07)
(2.2303e-10 -1.0909e-08 -2.6818e-09)
(1.173e-06 -1.2091e-06 4.9056e-07)
(3.9539e-13 -1.8696e-12 7.4216e-13)
(1.1882e-06 -1.0881e-06 7.504e-07)
(1.086e-09 -2.8433e-09 9.1943e-09)
(1.1986e-06 -9.6307e-07 9.632e-07)
(5.2641e-13 1.2697e-12 -1.2695e-12)
(1.1883e-06 -7.5023e-07 1.0882e-06)
(1.0859e-09 -9.1916e-09 2.8376e-09)
(1.1732e-06 -4.9037e-07 1.2092e-06)
(3.9541e-13 -7.4229e-13 1.8698e-12)
(1.1724e-06 -2.3841e-07 1.3664e-06)
(2.2568e-10 2.6817e-09 1.0917e-08)
(1.1755e-06 1.7178e-10 1.4535e-06)
(4.4131e-13 9.3869e-17 5.6508e-13)
(2.3543e-06 -1.8243e-06 -2.5378e-11)
(2.3429e-06 -1.6618e-06 2.8451e-07)
(2.3391e-06 -1.4216e-06 5.7651e-07)
(2.3637e-06 -1.2693e-06 8.8147e-07)
(2.3868e-06 -1.1473e-06 1.1474e-06)
(2.3639e-06 -8.8122e-07 1.2693e-06)
(2.3394e-06 -5.7621e-07 1.4215e-06)
(2.3434e-06 -2.8423e-07 1.6617e-06)
(2.3548e-06 2.162e-10 1.8243e-06)
(3.467e-06 -1.4772e-07 6.5686e-12)
(3.4517e-06 -8.7397e-08 9.5971e-09)
(3.4356e-06 1.7863e-08 -3.9497e-09)
(3.449e-06 9.0519e-08 -5.226e-08)
(3.4642e-06 9.4289e-08 -9.4257e-08)
(3.4493e-06 5.2546e-08 -9.0833e-08)
(3.4361e-06 4.3343e-09 -1.8441e-08)
(3.4523e-06 -9.255e-09 8.6715e-08)
(3.4676e-06 1.8168e-10 1.4689e-07)
(4.5386e-06 3.3214e-06 5.177e-11)
(4.5172e-06 3.2377e-06 -6.0688e-07)
(4.4792e-06 3.0616e-06 -1.2409e-06)
(4.4714e-06 2.869e-06 -1.9327e-06)
(4.4736e-06 2.5298e-06 -2.5299e-06)
(4.4716e-06 1.933e-06 -2.8697e-06)
(4.4797e-06 1.2414e-06 -3.0628e-06)
(4.5179e-06 6.0723e-07 -3.2392e-06)
(4.5392e-06 7.4437e-11 -3.3233e-06)
(5.5815e-06 7.8149e-06 6.7546e-11)
(5.5541e-06 7.6392e-06 -1.4904e-06)
(5.5007e-06 7.1694e-06 -2.9424e-06)
(5.463e-06 6.4817e-06 -4.3345e-06)
(5.4507e-06 5.5453e-06 -5.5456e-06)
(5.4633e-06 4.3348e-06 -6.4828e-06)
(5.5011e-06 2.9429e-06 -7.1712e-06)
(5.5547e-06 1.4907e-06 -7.6416e-06)
(5.582e-06 -7.2127e-11 -7.8176e-06)
(6.4871e-06 1.2505e-05 7.1062e-11)
(6.455e-06 1.2237e-05 -2.4421e-06)
(6.3944e-06 1.146e-05 -4.744e-06)
(6.3418e-06 1.0212e-05 -6.8075e-06)
(6.3214e-06 8.6329e-06 -8.6333e-06)
(6.342e-06 6.8077e-06 -1.0213e-05)
(6.3948e-06 4.7443e-06 -1.1462e-05)
(6.4554e-06 2.4423e-06 -1.224e-05)
(6.4875e-06 -2.2231e-10 -1.2508e-05)
(7.0737e-06 1.6354e-05 4.8497e-11)
(7.0516e-06 1.6018e-05 -3.244e-06)
(7.0035e-06 1.4968e-05 -6.2328e-06)
(6.9597e-06 1.3249e-05 -8.8231e-06)
(6.9419e-06 1.1127e-05 -1.1128e-05)
(6.9599e-06 8.8231e-06 -1.325e-05)
(7.0037e-06 6.233e-06 -1.4971e-05)
(7.0518e-06 3.244e-06 -1.6021e-05)
(7.0739e-06 -4.0125e-10 -1.6357e-05)
(7.2333e-06 1.822e-05 7.9989e-12)
(7.2197e-06 1.7831e-05 -3.6207e-06)
(7.1943e-06 1.6635e-05 -6.9461e-06)
(7.172e-06 1.4658e-05 -9.7643e-06)
(7.1659e-06 1.2274e-05 -1.2275e-05)
(7.172e-06 9.7641e-06 -1.466e-05)
(7.1944e-06 6.9461e-06 -1.6637e-05)
(7.2197e-06 3.6204e-06 -1.7834e-05)
(7.2334e-06 -5.778e-10 -1.8222e-05)
(6.9263e-06 1.7049e-05 -3.3743e-11)
(6.931e-06 1.6596e-05 -3.3099e-06)
(6.9332e-06 1.5369e-05 -6.3754e-06)
(6.9267e-06 1.3562e-05 -9.0523e-06)
(6.9208e-06 1.1425e-05 -1.1426e-05)
(6.9266e-06 9.0518e-06 -1.3564e-05)
(6.933e-06 6.3751e-06 -1.5371e-05)
(6.9309e-06 3.3095e-06 -1.6598e-05)
(6.9261e-06 -6.9524e-10 -1.7051e-05)
(6.2701e-06 1.213e-05 -5.0766e-11)
(6.2919e-06 1.17e-05 -2.2916e-06)
(6.3244e-06 1.0713e-05 -4.4099e-06)
(6.3169e-06 9.4281e-06 -6.3047e-06)
(6.3096e-06 7.993e-06 -7.9942e-06)
(6.3168e-06 6.3041e-06 -9.43e-06)
(6.3241e-06 4.4094e-06 -1.0716e-05)
(6.2916e-06 2.2909e-06 -1.1702e-05)
(6.2697e-06 -8.4138e-10 -1.2132e-05)
(5.4158e-06 3.3222e-06 -5.3064e-10)
(5.4641e-06 3.1526e-06 -6.2816e-07)
(5.5214e-06 2.7474e-06 -1.1393e-06)
(5.5056e-06 2.27e-06 -1.5089e-06)
(5.4751e-06 1.8514e-06 -1.8532e-06)
(5.5053e-06 1.5082e-06 -2.2718e-06)
(5.5209e-06 1.1387e-06 -2.7496e-06)
(5.4635e-06 6.2735e-07 -3.1549e-06)
(5.4152e-06 -5.1491e-10 -3.3242e-06)
(4.4852e-06 -8.1308e-06 -1.637e-10)
(4.5544e-06 -7.9729e-06 1.5199e-06)
(4.6334e-06 -7.6046e-06 3.1083e-06)
(4.6064e-06 -7.0535e-06 4.7429e-06)
(4.5583e-06 -6.1465e-06 6.1454e-06)
(4.606e-06 -4.7437e-06 7.052e-06)
(4.6327e-06 -3.109e-06 7.6027e-06)
(4.5535e-06 -1.5209e-06 7.971e-06)
(4.4844e-06 -1.016e-09 8.1291e-06)
(1.1724e-06 2.3881e-07 1.3666e-06)
(2.2568e-10 -2.6875e-09 1.0915e-08)
(1.1733e-06 4.9093e-07 1.2096e-06)
(3.9539e-13 7.426e-13 1.8701e-12)
(1.1885e-06 7.5097e-07 1.0888e-06)
(1.0857e-09 9.1988e-09 2.8454e-09)
(1.1987e-06 9.6396e-07 9.6388e-07)
(5.2664e-13 -1.2694e-12 -1.2695e-12)
(1.1884e-06 1.0891e-06 7.51e-07)
(1.0869e-09 2.8442e-09 9.2035e-09)
(1.1732e-06 1.21e-06 4.9099e-07)
(3.9536e-13 1.87e-12 7.4257e-13)
(1.1723e-06 1.3672e-06 2.3884e-07)
(2.2288e-10 1.0921e-08 -2.6867e-09)
(1.1753e-06 1.454e-06 1.3654e-10)
(4.4128e-13 5.6527e-13 7.4539e-17)
(2.3435e-06 2.8477e-07 1.6621e-06)
(2.3397e-06 5.77e-07 1.4222e-06)
(2.3643e-06 8.8232e-07 1.2702e-06)
(2.3872e-06 1.1486e-06 1.1485e-06)
(2.3642e-06 1.2707e-06 8.8243e-07)
(2.3395e-06 1.4231e-06 5.7717e-07)
(2.3433e-06 1.6631e-06 2.8488e-07)
(2.3547e-06 1.8253e-06 1.8896e-10)
(3.4525e-06 9.6948e-09 8.7033e-08)
(3.4365e-06 -3.7085e-09 -1.7851e-08)
(3.4498e-06 -5.1692e-08 -9.0058e-08)
(3.4649e-06 -9.3244e-08 -9.3417e-08)
(3.4497e-06 -8.9388e-08 -5.1512e-08)
(3.4364e-06 -1.6743e-08 -3.403e-09)
(3.4524e-06 8.8331e-08 9.9124e-09)
(3.4676e-06 1.4809e-07 2.1987e-10)
(4.5181e-06 -6.0708e-07 -3.2392e-06)
(4.4801e-06 -1.2412e-06 -3.0627e-06)
(4.4723e-06 -1.9328e-06 -2.8697e-06)
(4.4745e-06 -2.5296e-06 -2.5299e-06)
(4.4723e-06 -2.8689e-06 -1.9326e-06)
(4.4801e-06 -3.0615e-06 -1.2409e-06)
(4.5181e-06 -3.2378e-06 -6.0678e-07)
(4.5394e-06 -3.3221e-06 2.2271e-10)
(5.5549e-06 -1.491e-06 -7.6419e-06)
(5.5016e-06 -2.9433e-06 -7.1718e-06)
(5.464e-06 -4.3355e-06 -6.4838e-06)
(5.4516e-06 -5.5464e-06 -5.5467e-06)
(5.4641e-06 -6.483e-06 -4.3355e-06)
(5.5017e-06 -7.1708e-06 -2.943e-06)
(5.5551e-06 -7.6407e-06 -1.4907e-06)
(5.5823e-06 -7.8167e-06 2.0001e-10)
(6.4557e-06 -2.4429e-06 -1.2241e-05)
(6.3953e-06 -4.7453e-06 -1.1463e-05)
(6.3428e-06 -6.8093e-06 -1.0215e-05)
(6.3224e-06 -8.6351e-06 -8.6354e-06)
(6.3429e-06 -1.0214e-05 -6.8094e-06)
(6.3955e-06 -1.1463e-05 -4.7452e-06)
(6.456e-06 -1.224e-05 -2.4427e-06)
(6.4879e-06 -1.2507e-05 1.3785e-10)
(7.052e-06 -3.2449e-06 -1.6022e-05)
(7.0042e-06 -6.2344e-06 -1.4972e-05)
(6.9605e-06 -8.8254e-06 -1.3253e-05)
(6.9428e-06 -1.113e-05 -1.1131e-05)
(6.9607e-06 -1.3252e-05 -8.8256e-06)
(7.0046e-06 -1.4972e-05 -6.2345e-06)
(7.0525e-06 -1.6022e-05 -3.2448e-06)
(7.0745e-06 -1.6357e-05 -5.9465e-13)
(7.2199e-06 -3.6216e-06 -1.7835e-05)
(7.1947e-06 -6.9477e-06 -1.6639e-05)
(7.1725e-06 -9.7667e-06 -1.4662e-05)
(7.1666e-06 -1.2278e-05 -1.2278e-05)
(7.1728e-06 -1.4662e-05 -9.7669e-06)
(7.1953e-06 -1.6639e-05 -6.9479e-06)
(7.2206e-06 -1.7835e-05 -3.6215e-06)
(7.2342e-06 -1.8223e-05 -1.3837e-10)
(6.931e-06 -3.3109e-06 -1.6599e-05)
(6.9333e-06 -6.3769e-06 -1.5373e-05)
(6.9269e-06 -9.0544e-06 -1.3566e-05)
(6.9213e-06 -1.1428e-05 -1.1428e-05)
(6.9273e-06 -1.3567e-05 -9.0547e-06)
(6.9339e-06 -1.5374e-05 -6.3771e-06)
(6.9318e-06 -1.66e-05 -3.3108e-06)
(6.9271e-06 -1.7052e-05 -2.6477e-10)
(6.2916e-06 -2.2926e-06 -1.1703e-05)
(6.3243e-06 -4.4112e-06 -1.0717e-05)
(6.317e-06 -6.3064e-06 -9.4316e-06)
(6.3099e-06 -7.9962e-06 -7.9963e-06)
(6.3173e-06 -9.4321e-06 -6.3067e-06)
(6.3249e-06 -1.0718e-05 -4.4114e-06)
(6.2924e-06 -1.1704e-05 -2.2924e-06)
(6.2706e-06 -1.2133e-05 -2.8301e-10)
(5.4635e-06 -6.2911e-07 -3.1549e-06)
(5.521e-06 -1.1404e-06 -2.75e-06)
(5.5055e-06 -1.5103e-06 -2.2729e-06)
(5.4754e-06 -1.8544e-06 -1.8549e-06)
(5.5059e-06 -2.2736e-06 -1.5106e-06)
(5.5216e-06 -2.7513e-06 -1.1406e-06)
(5.4643e-06 -3.1564e-06 -6.2882e-07)
(5.4161e-06 -3.3257e-06 1.5306e-10)
(4.5536e-06 1.519e-06 7.9712e-06)
(4.6328e-06 3.1073e-06 7.6026e-06)
(4.6062e-06 4.7415e-06 7.0512e-06)
(4.5586e-06 6.1437e-06 6.1439e-06)
(4.6065e-06 7.0503e-06 4.7414e-06)
(4.6335e-06 7.6012e-06 3.1073e-06)
(4.5544e-06 7.9699e-06 1.5194e-06)
(4.4853e-06 8.128e-06 -2.8773e-10)
(1.1723e-06 1.3669e-06 -2.3849e-07)
(2.219e-10 1.0921e-08 2.6793e-09)
(1.1733e-06 1.2095e-06 -4.9046e-07)
(3.9541e-13 1.87e-12 -7.4237e-13)
(1.1885e-06 1.0884e-06 -7.5026e-07)
(1.0892e-09 2.8339e-09 -9.1956e-09)
(1.1988e-06 9.6327e-07 -9.6302e-07)
(5.2657e-13 -1.2698e-12 1.2701e-12)
(1.1885e-06 7.5044e-07 -1.088e-06)
(1.0868e-09 9.1918e-09 -2.8391e-09)
(1.1733e-06 4.9063e-07 -1.2089e-06)
(3.9551e-13 7.4228e-13 -1.8698e-12)
(1.1724e-06 2.3866e-07 -1.3662e-06)
(2.2544e-10 -2.6771e-09 -1.0907e-08)
(1.1754e-06 1.4131e-11 -1.4533e-06)
(4.4131e-13 4.438e-18 -5.6499e-13)
(2.3433e-06 1.6626e-06 -2.8436e-07)
(2.3396e-06 1.422e-06 -5.7633e-07)
(2.3643e-06 1.2695e-06 -8.8121e-07)
(2.3873e-06 1.1474e-06 -1.1471e-06)
(2.3642e-06 8.8147e-07 -1.2689e-06)
(2.3396e-06 5.7659e-07 -1.4212e-06)
(2.3433e-06 2.8462e-07 -1.6616e-06)
(2.3547e-06 2.619e-11 -1.8244e-06)
(3.4524e-06 8.7611e-08 -9.3373e-09)
(3.4364e-06 -1.7984e-08 4.3047e-09)
(3.4497e-06 -9.0802e-08 5.2768e-08)
(3.4648e-06 -9.4468e-08 9.4858e-08)
(3.4496e-06 -5.2455e-08 9.1342e-08)
(3.4362e-06 -3.9861e-09 1.8597e-08)
(3.4521e-06 9.6638e-09 -8.7135e-08)
(3.4673e-06 -3.244e-12 -1.4798e-07)
(4.5181e-06 -3.2385e-06 6.0732e-07)
(4.48e-06 -3.0627e-06 1.2416e-06)
(4.4721e-06 -2.8701e-06 1.9336e-06)
(4.4742e-06 -2.5306e-06 2.5309e-06)
(4.472e-06 -1.9333e-06 2.8704e-06)
(4.4797e-06 -1.2412e-06 3.0627e-06)
(4.5176e-06 -6.0695e-07 3.238e-06)
(4.5387e-06 -4.5278e-11 3.3209e-06)
(5.555e-06 -7.6412e-06 1.4911e-06)
(5.5016e-06 -7.1716e-06 2.9436e-06)
(5.4638e-06 -6.4839e-06 4.3361e-06)
(5.4513e-06 -5.5469e-06 5.5472e-06)
(5.4636e-06 -4.3357e-06 6.4839e-06)
(5.5012e-06 -2.9431e-06 7.171e-06)
(5.5545e-06 -1.4907e-06 7.6397e-06)
(5.5817e-06 -1.1465e-10 7.8142e-06)
(6.4559e-06 -1.224e-05 2.4429e-06)
(6.3954e-06 -1.1463e-05 4.7455e-06)
(6.3427e-06 -1.0215e-05 6.8097e-06)
(6.3221e-06 -8.6354e-06 8.6356e-06)
(6.3425e-06 -6.8093e-06 1.0215e-05)
(6.3951e-06 -4.7451e-06 1.1462e-05)
(6.4555e-06 -2.4426e-06 1.2238e-05)
(6.4874e-06 -1.6757e-10 1.2504e-05)
(7.0525e-06 -1.6022e-05 3.2447e-06)
(7.0045e-06 -1.4972e-05 6.2343e-06)
(6.9606e-06 -1.3253e-05 8.8255e-06)
(6.9427e-06 -1.1131e-05 1.1131e-05)
(6.9605e-06 -8.8254e-06 1.3252e-05)
(7.0042e-06 -6.2341e-06 1.4971e-05)
(7.0522e-06 -3.2446e-06 1.602e-05)
(7.0743e-06 -2.4988e-10 1.6355e-05)
(7.2206e-06 -1.7835e-05 3.6212e-06)
(7.1953e-06 -1.6639e-05 6.9475e-06)
(7.1729e-06 -1.4663e-05 9.7667e-06)
(7.1667e-06 -1.2278e-05 1.2278e-05)
(7.1728e-06 -9.7668e-06 1.4662e-05)
(7.1951e-06 -6.9475e-06 1.6638e-05)
(7.2204e-06 -3.6213e-06 1.7834e-05)
(7.234e-06 -3.3748e-10 1.8221e-05)
(6.9318e-06 -1.66e-05 3.3103e-06)
(6.934e-06 -1.5374e-05 6.3767e-06)
(6.9275e-06 -1.3567e-05 9.0545e-06)
(6.9217e-06 -1.1429e-05 1.1428e-05)
(6.9274e-06 -9.0547e-06 1.3566e-05)
(6.9338e-06 -6.3768e-06 1.5372e-05)
(6.9316e-06 -3.3106e-06 1.6598e-05)
(6.9268e-06 -3.8871e-10 1.705e-05)
(6.2925e-06 -1.1704e-05 2.2919e-06)
(6.3251e-06 -1.0718e-05 4.411e-06)
(6.3176e-06 -9.4328e-06 6.3065e-06)
(6.3103e-06 -7.9969e-06 7.9962e-06)
(6.3176e-06 -6.3067e-06 9.4314e-06)
(6.325e-06 -4.411e-06 1.0716e-05)
(6.2923e-06 -2.2921e-06 1.1701e-05)
(6.2703e-06 -5.0644e-10 1.213e-05)
(5.4644e-06 -3.1565e-06 6.2826e-07)
(5.5218e-06 -2.7516e-06 1.14e-06)
(5.5062e-06 -2.2742e-06 1.5102e-06)
(5.4758e-06 -1.8549e-06 1.8545e-06)
(5.5062e-06 -1.5104e-06 2.2722e-06)
(5.5217e-06 -1.14e-06 2.7483e-06)
(5.4643e-06 -6.2847e-07 3.152e-06)
(5.4159e-06 -2.1226e-10 3.3204e-06)
(4.5545e-06 7.97e-06 -1.5201e-06)
(4.6337e-06 7.6014e-06 -3.1081e-06)
(4.6068e-06 7.0503e-06 -4.7422e-06)
(4.559e-06 6.1438e-06 -6.1448e-06)
(4.6068e-06 4.742e-06 -7.0526e-06)
(4.6337e-06 3.1082e-06 -7.6052e-06)
(4.5545e-06 1.5198e-06 -7.9753e-06)
(4.4854e-06 -7.604e-10 -8.1343e-06)
(1.1724e-06 -2.3873e-07 -1.3666e-06)
(2.2648e-10 2.6862e-09 -1.0914e-08)
(1.1732e-06 -4.9094e-07 -1.2098e-06)
(3.9544e-13 -7.4247e-13 -1.8695e-12)
(1.1883e-06 -7.51e-07 -1.0889e-06)
(1.0846e-09 -9.1996e-09 -2.8495e-09)
(1.1986e-06 -9.6393e-07 -9.6389e-07)
(5.2653e-13 1.2691e-12 1.2691e-12)
(1.1883e-06 -1.0889e-06 -7.5091e-07)
(1.0868e-09 -2.8493e-09 -9.1962e-09)
(1.1731e-06 -1.2097e-06 -4.9086e-07)
(3.9533e-13 -1.8697e-12 -7.4252e-13)
(1.1722e-06 -1.3666e-06 -2.3871e-07)
(2.2399e-10 -1.091e-08 2.6866e-09)
(2.3433e-06 -2.848e-07 -1.6626e-06)
(2.3394e-06 -5.7729e-07 -1.423e-06)
(2.364e-06 -8.8274e-07 -1.2709e-06)
(2.3869e-06 -1.149e-06 -1.1489e-06)
(2.3639e-06 -1.2709e-06 -8.825e-07)
(2.3392e-06 -1.4228e-06 -5.7706e-07)
(2.343e-06 -1.6624e-06 -2.8469e-07)
(3.4521e-06 -9.9936e-09 -8.8724e-08)
(3.436e-06 2.8933e-09 1.591e-08)
(3.4494e-06 5.0552e-08 8.8351e-08)
(3.4645e-06 9.2068e-08 9.2267e-08)
(3.4493e-06 8.8461e-08 5.0977e-08)
(3.4359e-06 1.6296e-08 3.3372e-09)
(3.4519e-06 -8.8236e-08 -9.7503e-09)
(4.5176e-06 6.0646e-07 3.2361e-06)
(4.4796e-06 1.2399e-06 3.0595e-06)
(4.4719e-06 1.9309e-06 2.8668e-06)
(4.474e-06 2.5276e-06 2.5278e-06)
(4.4719e-06 2.867e-06 1.9315e-06)
(4.4796e-06 3.0601e-06 1.2405e-06)
(4.5175e-06 3.2369e-06 6.0683e-07)
(5.5545e-06 1.4901e-06 7.6378e-06)
(5.5012e-06 2.9416e-06 7.1678e-06)
(5.4636e-06 4.3332e-06 6.4803e-06)
(5.4512e-06 5.5437e-06 5.5441e-06)
(5.4636e-06 6.4804e-06 4.3339e-06)
(5.5012e-06 7.1686e-06 2.9423e-06)
(5.5544e-06 7.6388e-06 1.4905e-06)
(6.4556e-06 2.4419e-06 1.2237e-05)
(6.3951e-06 4.7436e-06 1.1459e-05)
(6.3425e-06 6.8068e-06 1.0211e-05)
(6.3221e-06 8.6323e-06 8.6328e-06)
(6.3425e-06 1.0212e-05 6.8076e-06)
(6.395e-06 1.146e-05 4.7442e-06)
(6.4553e-06 1.2238e-05 2.4423e-06)
(7.0523e-06 3.2439e-06 1.6019e-05)
(7.0043e-06 6.2327e-06 1.4969e-05)
(6.9605e-06 8.8232e-06 1.325e-05)
(6.9426e-06 1.1128e-05 1.1128e-05)
(6.9604e-06 1.325e-05 8.8239e-06)
(7.004e-06 1.497e-05 6.2334e-06)
(7.0518e-06 1.6019e-05 3.2443e-06)
(7.2204e-06 3.6204e-06 1.7833e-05)
(7.1951e-06 6.9461e-06 1.6637e-05)
(7.1726e-06 9.7648e-06 1.466e-05)
(7.1664e-06 1.2275e-05 1.2276e-05)
(7.1724e-06 1.466e-05 9.7655e-06)
(7.1947e-06 1.6637e-05 6.9468e-06)
(7.2199e-06 1.7832e-05 3.6209e-06)
(6.9316e-06 3.3096e-06 1.6597e-05)
(6.9337e-06 6.3753e-06 1.5371e-05)
(6.9271e-06 9.0526e-06 1.3565e-05)
(6.9212e-06 1.1426e-05 1.1427e-05)
(6.927e-06 1.3565e-05 9.0534e-06)
(6.9334e-06 1.5371e-05 6.3761e-06)
(6.9312e-06 1.6597e-05 3.3101e-06)
(6.2922e-06 2.2909e-06 1.17e-05)
(6.3248e-06 4.4093e-06 1.0714e-05)
(6.3172e-06 6.3044e-06 9.4297e-06)
(6.3099e-06 7.9941e-06 7.9947e-06)
(6.3171e-06 9.4299e-06 6.3054e-06)
(6.3246e-06 1.0715e-05 4.4103e-06)
(6.292e-06 1.1701e-05 2.2917e-06)
(5.4642e-06 6.2703e-07 3.1513e-06)
(5.5216e-06 1.138e-06 2.747e-06)
(5.5059e-06 1.5078e-06 2.2704e-06)
(5.4755e-06 1.8518e-06 1.8528e-06)
(5.5058e-06 2.2709e-06 1.5089e-06)
(5.5214e-06 2.7485e-06 1.1393e-06)
(5.4641e-06 3.1533e-06 6.2802e-07)
(4.5545e-06 -1.5214e-06 -7.976e-06)
(4.6336e-06 -3.1102e-06 -7.6065e-06)
(4.6067e-06 -4.7447e-06 -7.0543e-06)
(4.5588e-06 -6.1469e-06 -6.1465e-06)
(4.6066e-06 -7.0535e-06 -4.7434e-06)
(4.6335e-06 -7.6042e-06 -3.1087e-06)
(4.5543e-06 -7.9727e-06 -1.5202e-06)
)
;
    }
    procBoundary0to1
    {
        type            processor;
    }
}


// ************************************************************************* //
