/*--------------------------------*- C++ -*----------------------------------*\
| =========                 |                                                 |
| \\      /  F ield         | OpenFOAM: The Open Source CFD Toolbox           |
|  \\    /   O peration     | Version:  4.1                                   |
|   \\  /    A nd           | Web:      www.OpenFOAM.org                      |
|    \\/     M anipulation  |                                                 |
\*---------------------------------------------------------------------------*/
FoamFile
{
    version     2.0;
    format      ascii;
    class       volVectorField;
    location    "0.0061";
    object      U;
}
// * * * * * * * * * * * * * * * * * * * * * * * * * * * * * * * * * * * * * //

dimensions      [0 1 -1 0 0 0 0];

internalField   nonuniform List<vector> 
1536
(
(0.029604 0.024584 -2.368e-06)
(0.011063 0.019022 -1.6849e-06)
(-0.0033582 0.011779 -1.0138e-06)
(-0.012711 0.004878 -6.5579e-07)
(-0.017893 -0.00030622 -3.5548e-07)
(-0.019507 -0.0032083 -3.783e-07)
(-0.017495 -0.004872 -1.4303e-06)
(-0.013548 -0.0055856 -1.3132e-06)
(-0.0092192 -0.0054003 -1.7966e-06)
(-0.0051816 -0.0048216 -1.1978e-06)
(-0.0018138 -0.0050981 -5.2855e-07)
(0.0033622 -0.0039486 -2.1982e-07)
(0.030337 0.017066 -0.0004136)
(0.0121 0.013552 0.00066079)
(-0.0022844 0.0092216 0.0017809)
(-0.011787 0.0053336 0.0027588)
(-0.016938 0.002509 0.0029367)
(-0.018597 -1.8948e-05 0.0020111)
(-0.016963 -0.0019035 0.001258)
(-0.013414 -0.002701 0.0010485)
(-0.0094399 -0.0028002 0.00080926)
(-0.0056622 -0.0025704 0.00067084)
(-0.0023995 -0.0030123 0.00057556)
(0.0031729 -0.0028179 0.00040199)
(0.030865 0.0144 -0.0037717)
(0.012871 0.011558 -0.002466)
(-0.0013922 0.008043 -0.0010277)
(-0.010909 0.0047589 0.00019248)
(-0.015945 0.0020857 0.00089086)
(-0.017623 -0.00029734 0.00079393)
(-0.01646 -0.0019425 0.00074056)
(-0.013378 -0.0026706 0.00087159)
(-0.0096391 -0.0027034 0.00082849)
(-0.006044 -0.0025948 0.00077043)
(-0.0029582 -0.0028508 0.00089105)
(0.0027454 -0.002336 0.00083469)
(0.031122 0.010127 -0.0069023)
(0.013242 0.0078373 -0.005117)
(-0.0009773 0.0050673 -0.0030201)
(-0.01051 0.0025417 -0.0011357)
(-0.015546 0.00063644 0.0001534)
(-0.017327 -0.0007302 0.00086708)
(-0.016333 -0.0015383 0.001353)
(-0.013374 -0.002027 0.0016612)
(-0.0097337 -0.0019764 0.0015742)
(-0.0061982 -0.0018898 0.0014759)
(-0.0031618 -0.0021102 0.0015601)
(0.0025773 -0.0018609 0.0012671)
(0.031122 0.0068941 -0.010136)
(0.013242 0.0051078 -0.007847)
(-0.00097762 0.0030111 -0.0050767)
(-0.01051 0.001128 -0.00255)
(-0.015547 -0.00015959 -0.00064279)
(-0.017327 -0.00087237 0.00072518)
(-0.016333 -0.001358 0.0015336)
(-0.013375 -0.001664 0.0020242)
(-0.0097341 -0.0015756 0.0019751)
(-0.0061985 -0.0014761 0.0018898)
(-0.0031618 -0.0015598 0.0021107)
(0.0025774 -0.0012669 0.0018612)
(0.030865 0.0037645 -0.014408)
(0.012872 0.0024578 -0.011567)
(-0.0013928 0.0010199 -0.0080516)
(-0.01091 -0.00019908 -0.0047666)
(-0.015947 -0.00089746 -0.0020932)
(-0.017624 -0.0008004 0.00029043)
(-0.016461 -0.00074622 0.0019375)
(-0.013379 -0.00087621 0.002667)
(-0.0096403 -0.00083166 0.0027008)
(-0.0060448 -0.00077236 0.0025932)
(-0.0029583 -0.00089199 0.0028501)
(0.0027458 -0.0008351 0.0023357)
(0.030338 0.00040868 -0.017072)
(0.0121 -0.00066816 -0.01356)
(-0.0022856 -0.0017873 -0.0092294)
(-0.011788 -0.0027635 -0.0053395)
(-0.016939 -0.0029434 -0.002517)
(-0.018598 -0.0020183 1.1561e-05)
(-0.016965 -0.0012635 0.0018973)
(-0.013416 -0.0010534 0.0026952)
(-0.0094417 -0.00081221 0.002796)
(-0.0056637 -0.00067371 0.0025676)
(-0.0024003 -0.00057645 0.0030117)
(0.0031724 -0.0004026 0.0028174)
(0.029602 -3.8908e-06 -0.024593)
(0.011064 -5.0273e-06 -0.019031)
(-0.0033604 -6.0144e-06 -0.011789)
(-0.012712 -6.5816e-06 -0.0048878)
(-0.017893 -6.4382e-06 0.00029702)
(-0.019509 -6.0939e-06 0.0031999)
(-0.017497 -4.9532e-06 0.0048644)
(-0.013551 -4.3008e-06 0.0055786)
(-0.0092219 -2.8353e-06 0.0053953)
(-0.0051839 -1.8524e-06 0.0048179)
(-0.001815 -1.1942e-06 0.0050969)
(0.0033618 -4.1772e-07 0.0039478)
(0.030339 0.017069 0.00040811)
(0.012101 0.013555 -0.00066522)
(-0.0022831 0.0092245 -0.001784)
(-0.011786 0.0053366 -0.0027609)
(-0.016937 0.0025126 -0.0029384)
(-0.018596 -1.5523e-05 -0.0020135)
(-0.016962 -0.0019002 -0.0012611)
(-0.013414 -0.0026977 -0.0010518)
(-0.0094401 -0.0027975 -0.00081277)
(-0.0056624 -0.0025683 -0.00067337)
(-0.0023998 -0.0030114 -0.00057696)
(0.0031733 -0.0028179 -0.00040235)
(0.030847 0.015204 -2.9691e-06)
(0.012836 0.01273 -2.303e-06)
(-0.0015311 0.0095849 -1.6124e-06)
(-0.011242 0.0066767 -1.1346e-06)
(-0.016506 0.0042208 -1.0061e-06)
(-0.018171 0.0014105 -1.2012e-06)
(-0.016775 -0.00088836 -1.5082e-06)
(-0.013574 -0.0019644 -1.8673e-06)
(-0.0097563 -0.0020381 -1.7277e-06)
(-0.0060556 -0.0021052 -1.0345e-06)
(-0.0029105 -0.0024709 -5.2398e-07)
(0.0029794 -0.0022098 -3.6851e-08)
(0.031423 0.011977 -0.0019949)
(0.013644 0.0099163 -0.0015785)
(-0.00061246 0.007297 -0.0011346)
(-0.01033 0.0048414 -0.00081296)
(-0.015544 0.0026943 -0.0007357)
(-0.017328 0.00057173 -0.00081102)
(-0.016325 -0.0010393 -0.00051572)
(-0.013541 -0.0019542 -0.00029569)
(-0.0099561 -0.0019345 -0.00021273)
(-0.0063999 -0.0019738 -0.0001421)
(-0.0034825 -0.0021762 4.1387e-05)
(0.0024601 -0.0018333 0.00033252)
(0.031686 0.0083123 -0.0052351)
(0.01402 0.006793 -0.0042544)
(-0.00019744 0.0049123 -0.0030836)
(-0.009941 0.0031938 -0.0020275)
(-0.015197 0.0017966 -0.00125)
(-0.017119 0.00061396 -0.00060165)
(-0.016235 -0.00039387 0.00021011)
(-0.013541 -0.0010843 0.0006882)
(-0.010046 -0.0010923 0.00069864)
(-0.0065329 -0.0011641 0.00073463)
(-0.0036592 -0.0013754 0.00084223)
(0.0022787 -0.0013449 0.00077477)
(0.031686 0.0052268 -0.008321)
(0.01402 0.0042457 -0.0068023)
(-0.00019758 0.0030748 -0.0049212)
(-0.0099412 0.0020191 -0.003202)
(-0.015197 0.0012423 -0.0018038)
(-0.017119 0.00059445 -0.0006202)
(-0.016235 -0.00021703 0.00038767)
(-0.013541 -0.00069359 0.0010798)
(-0.010046 -0.00070254 0.0010897)
(-0.0065331 -0.00073714 0.0011628)
(-0.0036594 -0.00084374 0.0013749)
(0.0022785 -0.00077528 0.0013447)
(0.031423 0.0019861 -0.011985)
(0.013644 0.0015696 -0.0099254)
(-0.0006128 0.0011261 -0.0073059)
(-0.01033 0.00080462 -0.0048493)
(-0.015544 0.00072675 -0.002701)
(-0.017328 0.0008021 -0.00057772)
(-0.016326 0.00050833 0.0010346)
(-0.013543 0.0002891 0.0019509)
(-0.0099576 0.00020786 0.0019326)
(-0.0064009 0.00013818 0.0019728)
(-0.0034831 -4.3654e-05 0.0021758)
(0.0024596 -0.0003336 0.0018332)
(0.030847 -5.7992e-06 -0.01521)
(0.012836 -7.0896e-06 -0.012739)
(-0.0015318 -7.9801e-06 -0.0095933)
(-0.011243 -8.5401e-06 -0.0066837)
(-0.016507 -8.8303e-06 -0.0042278)
(-0.018172 -8.2777e-06 -0.0014171)
(-0.016777 -5.9323e-06 0.000883)
(-0.013576 -4.6335e-06 0.0019602)
(-0.0097581 -3.8026e-06 0.0020352)
(-0.0060571 -2.8944e-06 0.0021038)
(-0.0029118 -1.9227e-06 0.0024707)
(0.0029782 -7.8805e-07 0.0022097)
(0.030339 -0.00041909 -0.017073)
(0.012102 0.00065573 -0.013562)
(-0.002284 0.0017732 -0.0092307)
(-0.011787 0.0027483 -0.0053409)
(-0.016938 0.0029278 -0.0025178)
(-0.018598 0.0020038 1.0392e-05)
(-0.016965 0.0012522 0.0018946)
(-0.013417 0.001044 0.002693)
(-0.0094431 0.00080602 0.0027943)
(-0.0056651 0.0006691 0.0025668)
(-0.0024016 0.00057365 0.0030118)
(0.0031719 0.0004017 0.0028176)
(0.030867 0.014403 0.003764)
(0.012873 0.011561 0.0024605)
(-0.0013905 0.0080457 0.001024)
(-0.010908 0.0047619 -0.00019484)
(-0.015945 0.0020886 -0.00089296)
(-0.017623 -0.00029401 -0.00079636)
(-0.01646 -0.0019406 -0.00074355)
(-0.013378 -0.0026684 -0.00087517)
(-0.0096398 -0.0027019 -0.00083255)
(-0.0060447 -0.0025936 -0.00077385)
(-0.0029581 -0.0028502 -0.00089295)
(0.0027463 -0.0023361 -0.00083554)
(0.031424 0.01198 0.0019883)
(0.013646 0.0099188 0.0015734)
(-0.0006107 0.0072995 0.0011312)
(-0.010328 0.0048441 0.00081066)
(-0.015542 0.0026969 0.00073344)
(-0.017326 0.00057433 0.00080855)
(-0.016324 -0.001037 0.000513)
(-0.013541 -0.0019521 0.00029275)
(-0.0099562 -0.0019334 0.00021026)
(-0.0064004 -0.001973 0.00013986)
(-0.0034822 -0.0021757 -4.2745e-05)
(0.0024609 -0.0018332 -0.00033284)
(0.031999 0.00905 -3.5017e-06)
(0.01442 0.0074829 -2.6435e-06)
(0.0002427 0.0054949 -1.6552e-06)
(-0.0095349 0.0035615 -1.1931e-06)
(-0.014826 0.0018655 -1.1362e-06)
(-0.016679 0.00036427 -1.2464e-06)
(-0.0159 -0.00085102 -1.0388e-06)
(-0.013459 -0.0015393 -1.3367e-06)
(-0.010095 -0.0015671 -9.2943e-07)
(-0.0066882 -0.0015725 -7.7548e-07)
(-0.003915 -0.0016821 -5.6782e-07)
(0.0021047 -0.0014005 -1.7899e-07)
(0.032269 0.0058112 -0.0029617)
(0.014789 0.0047741 -0.0024505)
(0.00064772 0.0034857 -0.0018228)
(-0.0091576 0.0022172 -0.0011919)
(-0.014514 0.001125 -0.00066533)
(-0.016479 0.00019025 -0.00016549)
(-0.015791 -0.0005545 0.00034553)
(-0.013456 -0.0010118 0.0005882)
(-0.010191 -0.0010311 0.00060946)
(-0.0068294 -0.0010369 0.00059245)
(-0.0040975 -0.0011186 0.00058543)
(0.0019241 -0.00095372 0.00041031)
(0.032269 0.0029529 -0.0058198)
(0.014789 0.0024415 -0.0047832)
(0.00064764 0.0018139 -0.0034946)
(-0.0091578 0.0011835 -0.0022254)
(-0.014514 0.00065758 -0.0011327)
(-0.016479 0.00015821 -0.00019719)
(-0.015792 -0.00035241 0.0005482)
(-0.013456 -0.00059356 0.0010072)
(-0.010191 -0.00061335 0.0010279)
(-0.0068297 -0.00059486 0.0010349)
(-0.0040978 -0.00058665 0.0011177)
(0.0019238 -0.00041075 0.00095336)
(0.031999 -5.5669e-06 -0.0090584)
(0.01442 -6.5565e-06 -0.0074918)
(0.00024234 -7.1554e-06 -0.0055037)
(-0.0095355 -7.3502e-06 -0.0035697)
(-0.014826 -7.396e-06 -0.0018733)
(-0.016679 -7.1654e-06 -0.00037114)
(-0.015901 -5.4242e-06 0.00084543)
(-0.013461 -4.0578e-06 0.0015351)
(-0.010096 -3.4239e-06 0.0015643)
(-0.0066893 -2.4682e-06 0.0015708)
(-0.0039158 -1.4853e-06 0.0016813)
(0.0021042 -6.0314e-07 0.0014001)
(0.031425 -0.0019972 -0.011988)
(0.013646 -0.001583 -0.0099279)
(-0.00061123 -0.0011411 -0.0073089)
(-0.010329 -0.00082043 -0.0048528)
(-0.015543 -0.00074305 -0.0027052)
(-0.017327 -0.00081741 -0.00058159)
(-0.016326 -0.0005201 0.0010316)
(-0.013543 -0.00029886 0.0019477)
(-0.009958 -0.00021531 0.0019306)
(-0.006402 -0.00014328 0.0019709)
(-0.0034836 4.0513e-05 0.0021747)
(0.0024596 0.0003325 0.001833)
(0.030867 -0.003775 -0.01441)
(0.012874 -0.0024703 -0.01157)
(-0.001391 -0.0010339 -0.0080543)
(-0.010909 0.00018486 -0.0047698)
(-0.015946 0.00088388 -0.0020964)
(-0.017625 0.00078743 0.0002875)
(-0.016462 0.000735 0.0019342)
(-0.013381 0.00086675 0.002663)
(-0.0096426 0.00082606 0.0026985)
(-0.0060471 0.00076894 0.0025918)
(-0.0029602 0.00089022 0.0028498)
(0.0027448 0.00083473 0.0023357)
(0.031124 0.010128 0.0068932)
(0.013244 0.0078383 0.0051105)
(-0.00097604 0.0050684 0.0030155)
(-0.010509 0.002543 0.0011326)
(-0.015546 0.00063765 -0.00015569)
(-0.017327 -0.0007295 -0.00087036)
(-0.016333 -0.0015377 -0.0013568)
(-0.013375 -0.0020271 -0.0016657)
(-0.0097341 -0.0019769 -0.0015797)
(-0.0061979 -0.0018906 -0.0014792)
(-0.0031612 -0.0021105 -0.001562)
(0.0025784 -0.0018611 -0.0012679)
(0.031687 0.0083137 0.005227)
(0.014021 0.0067945 0.0042484)
(-0.00019624 0.0049138 0.0030792)
(-0.0099402 0.0031954 0.0020243)
(-0.015196 0.0017983 0.0012473)
(-0.017118 0.00061525 0.00059859)
(-0.016235 -0.00039236 -0.00021343)
(-0.013541 -0.0010837 -0.00069176)
(-0.010046 -0.0010927 -0.00070206)
(-0.0065328 -0.0011643 -0.00073725)
(-0.0036582 -0.0013753 -0.00084373)
(0.00228 -0.0013447 -0.00077523)
(0.03227 0.005812 0.0029537)
(0.014789 0.0047749 0.0024445)
(0.00064839 0.0034866 0.0018185)
(-0.0091572 0.0022181 0.0011886)
(-0.014513 0.0011258 0.00066242)
(-0.016479 0.000191 0.00016246)
(-0.015791 -0.00055338 -0.00034885)
(-0.013456 -0.0010111 -0.00059123)
(-0.010191 -0.00103 -0.00061169)
(-0.0068284 -0.0010365 -0.00059417)
(-0.0040961 -0.0011185 -0.00058665)
(0.0019251 -0.00095366 -0.00041075)
(0.032545 0.0028014 -4.2039e-06)
(0.015157 0.0022817 -3.2949e-06)
(0.0010517 0.0016437 -2.4132e-06)
(-0.0087815 0.0010153 -1.9262e-06)
(-0.01419 0.00047297 -1.6594e-06)
(-0.016262 5.4134e-06 -1.7044e-06)
(-0.015676 -0.00023073 -1.9894e-06)
(-0.013449 -0.00045555 -1.7088e-06)
(-0.010291 -0.0004662 -1.3301e-06)
(-0.0069829 -0.00048612 -8.8148e-07)
(-0.0042898 -0.00055486 -6.0536e-07)
(0.0017347 -0.00053326 -2.5779e-07)
(0.032545 -4.9051e-06 -0.0028101)
(0.015157 -5.848e-06 -0.0022908)
(0.0010517 -6.4392e-06 -0.0016527)
(-0.0087817 -6.6371e-06 -0.0010238)
(-0.01419 -6.3415e-06 -0.00048086)
(-0.016262 -6.0442e-06 -1.2986e-05)
(-0.015676 -5.5079e-06 0.00022367)
(-0.013449 -4.3246e-06 0.00044995)
(-0.010291 -3.1717e-06 0.00046202)
(-0.0069835 -2.1662e-06 0.00048341)
(-0.0042904 -1.2125e-06 0.00055312)
(0.0017343 -4.2038e-07 0.00053274)
(0.03227 -0.0029629 -0.0058208)
(0.014789 -0.0024536 -0.0047841)
(0.00064819 -0.0018273 -0.0034956)
(-0.0091575 -0.0011972 -0.0022266)
(-0.014514 -0.00067091 -0.001134)
(-0.016479 -0.00017097 -0.00019863)
(-0.015792 0.00034156 0.0005474)
(-0.013457 0.00058492 0.0010065)
(-0.010192 0.00060658 0.0010268)
(-0.0068299 0.0005905 0.0010345)
(-0.0040976 0.00058406 0.0011175)
(0.0019239 0.00040981 0.00095329)
(0.031688 -0.0052368 -0.0083224)
(0.014021 -0.0042581 -0.0068041)
(-0.00019653 -0.0030888 -0.0049236)
(-0.0099406 -0.0020335 -0.0032047)
(-0.015197 -0.0012563 -0.0018068)
(-0.017119 -0.00060762 -0.00062323)
(-0.016237 0.00020553 0.00038626)
(-0.013542 0.00068447 0.0010785)
(-0.010048 0.00069604 0.0010888)
(-0.0065347 0.00073307 0.0011618)
(-0.0036601 0.00084137 0.0013741)
(0.0022781 0.00077454 0.0013445)
(0.031125 -0.0069043 -0.010137)
(0.013244 -0.0051199 -0.0078482)
(-0.00097653 -0.0030241 -0.0050785)
(-0.01051 -0.0011409 -0.0025524)
(-0.015547 0.00014781 -0.00064603)
(-0.017329 0.00086124 0.00072243)
(-0.016335 0.0013473 0.0015318)
(-0.013378 0.0016558 0.0020223)
(-0.009737 0.0015716 0.0019741)
(-0.0062007 0.0014732 0.001889)
(-0.0031637 0.0015586 0.0021102)
(0.0025761 0.0012666 0.0018612)
(0.031125 0.0068945 0.010126)
(0.013244 0.0051085 0.00784)
(-0.0009759 0.003012 0.0050718)
(-0.010509 0.0011293 0.0025463)
(-0.015547 -0.00015805 0.00063963)
(-0.017328 -0.00087159 -0.00072853)
(-0.016334 -0.0013579 -0.001538)
(-0.013376 -0.001665 -0.0020282)
(-0.0097341 -0.0015783 -0.0019794)
(-0.0061976 -0.0014775 -0.0018927)
(-0.003161 -0.0015604 -0.0021124)
(0.0025787 -0.0012674 -0.0018618)
(0.031688 0.0052278 0.0083131)
(0.014022 0.0042469 0.0067963)
(-0.00019598 0.0030761 0.0049171)
(-0.0099403 0.0020207 0.0031989)
(-0.015196 0.0012437 0.0018012)
(-0.017118 0.00059532 0.00061755)
(-0.016235 -0.00021608 -0.00039064)
(-0.013541 -0.0006939 -0.0010827)
(-0.010046 -0.00070308 -0.0010936)
(-0.0065329 -0.00073762 -0.0011651)
(-0.0036582 -0.00084383 -0.0013763)
(0.00228 -0.0007754 -0.001345)
(0.032271 0.0029538 0.0058116)
(0.01479 0.0024426 0.0047767)
(0.00064862 0.001815 0.00349)
(-0.0091571 0.0011848 0.0022217)
(-0.014513 0.00065863 0.0011292)
(-0.016479 0.00015895 0.00019409)
(-0.015791 -0.00035119 -0.00055123)
(-0.013456 -0.00059317 -0.0010098)
(-0.010191 -0.00061242 -0.00103)
(-0.0068284 -0.00059463 -0.0010366)
(-0.0040962 -0.00058659 -0.001119)
(0.001925 -0.00041091 -0.00095365)
(0.032546 -4.5325e-06 0.0028013)
(0.015157 -5.3966e-06 0.0022838)
(0.001052 -5.916e-06 0.0016472)
(-0.0087815 -6.0566e-06 0.0010192)
(-0.01419 -5.7598e-06 0.00047686)
(-0.016262 -5.6982e-06 9.1392e-06)
(-0.015676 -5.42e-06 -0.0002279)
(-0.013449 -4.4171e-06 -0.00045334)
(-0.010291 -3.055e-06 -0.00046517)
(-0.0069828 -2.0754e-06 -0.00048541)
(-0.0042896 -1.0735e-06 -0.00055452)
(0.0017347 -5.5547e-07 -0.0005331)
(0.032546 -0.0028106 -4.4191e-06)
(0.015157 -0.002293 -3.6123e-06)
(0.001052 -0.0016561 -2.7921e-06)
(-0.0087816 -0.0010277 -2.3854e-06)
(-0.01419 -0.00048491 -2.0942e-06)
(-0.016262 -1.6909e-05 -1.9705e-06)
(-0.015676 0.00022022 -1.986e-06)
(-0.013449 0.00044691 -1.5472e-06)
(-0.010291 0.00046015 -1.3887e-06)
(-0.0069835 0.00048193 -8.8239e-07)
(-0.0042903 0.00055241 -6.6715e-07)
(0.0017342 0.00053229 -1.6737e-07)
(0.03227 -0.0058207 -0.0029623)
(0.01479 -0.0047856 -0.0024513)
(0.00064803 -0.0034981 -0.0018237)
(-0.0091579 -0.0022297 -0.0011928)
(-0.014514 -0.0011373 -0.00066667)
(-0.016479 -0.00020189 -0.00016662)
(-0.015792 0.00054449 0.00034521)
(-0.013458 0.001004 0.00058837)
(-0.010192 0.0010252 0.00060873)
(-0.0068301 0.0010331 0.00059234)
(-0.004098 0.0011166 0.00058528)
(0.0019233 0.00095272 0.00041037)
(0.031688 -0.0083218 -0.0052362)
(0.014021 -0.0068045 -0.0042555)
(-0.00019707 -0.0049249 -0.0030849)
(-0.0099412 -0.0032064 -0.002029)
(-0.015197 -0.0018088 -0.0012517)
(-0.01712 -0.00062536 -0.0006031)
(-0.016237 0.00038387 0.00021001)
(-0.013542 0.0010759 0.00068859)
(-0.010048 0.001088 0.00069912)
(-0.0065347 0.0011608 0.00073476)
(-0.0036604 0.0013736 0.00084224)
(0.0022775 0.0013442 0.00077489)
(0.031125 -0.010137 -0.0069042)
(0.013244 -0.0078493 -0.0051186)
(-0.00097659 -0.0050802 -0.0030219)
(-0.01051 -0.0025544 -0.0011381)
(-0.015547 -0.00064763 0.00015074)
(-0.017329 0.00071991 0.00086445)
(-0.016335 0.0015293 0.0013512)
(-0.013378 0.0020192 0.0016593)
(-0.0097366 0.0019724 0.0015744)
(-0.0062001 0.001887 0.0014756)
(-0.0031637 0.0021089 0.0015599)
(0.0025757 0.0018604 0.0012673)
(0.030869 0.0037649 0.0144)
(0.012875 0.0024588 0.011562)
(-0.0013897 0.0010213 0.0080483)
(-0.010908 -0.00019721 0.0047647)
(-0.015946 -0.00089489 0.002091)
(-0.017623 -0.00079864 -0.0002926)
(-0.01646 -0.00074589 -0.0019389)
(-0.013379 -0.00087685 -0.0026697)
(-0.0096403 -0.00083274 -0.0027025)
(-0.0060447 -0.00077333 -0.0025949)
(-0.0029575 -0.0008924 -0.0028511)
(0.0027474 -0.0008357 -0.0023362)
(0.031426 0.0019874 0.011978)
(0.013647 0.0015715 0.0099204)
(-0.00060981 0.001128 0.0073027)
(-0.010328 0.00080675 0.0048473)
(-0.015542 0.00072914 0.002699)
(-0.017326 0.00080421 0.00057525)
(-0.016325 0.00050932 -0.001036)
(-0.013542 0.00028972 -0.0019528)
(-0.0099573 0.00020818 -0.001934)
(-0.0064006 0.0001382 -0.0019743)
(-0.0034821 -4.3579e-05 -0.0021766)
(0.0024612 -0.0003335 -0.0018335)
(0.032 -4.2096e-06 0.0090493)
(0.014421 -5.064e-06 0.0074845)
(0.00024359 -5.4161e-06 0.0054982)
(-0.0095348 -5.5302e-06 0.003565)
(-0.014826 -5.4846e-06 0.0018687)
(-0.016679 -5.6638e-06 0.00036694)
(-0.0159 -4.6114e-06 -0.00084918)
(-0.01346 -3.2643e-06 -0.0015385)
(-0.010096 -2.823e-06 -0.0015672)
(-0.0066885 -2.0106e-06 -0.001573)
(-0.0039151 -1.3018e-06 -0.0016827)
(0.0021049 -5.2365e-07 -0.0014005)
(0.032271 -0.0029626 0.005811)
(0.01479 -0.0024532 0.0047761)
(0.00064852 -0.0018267 0.0034892)
(-0.0091575 -0.0011965 0.0022211)
(-0.014514 -0.00067002 0.0011287)
(-0.016479 -0.00017014 0.00019358)
(-0.015792 0.0003409 -0.00055194)
(-0.013457 0.00058504 -0.001011)
(-0.010192 0.00060616 -0.0010301)
(-0.0068294 0.00059045 -0.0010369)
(-0.0040974 0.00058402 -0.0011189)
(0.0019241 0.00040983 -0.00095363)
(0.032271 -0.0058213 0.0029534)
(0.01479 -0.0047861 0.0024441)
(0.0006488 -0.0034988 0.0018179)
(-0.0091572 -0.0022303 0.0011879)
(-0.014513 -0.0011377 0.00066209)
(-0.016479 -0.00020236 0.00016244)
(-0.015792 0.00054336 -0.00034888)
(-0.013457 0.0010035 -0.0005916)
(-0.010192 0.0010242 -0.00061132)
(-0.0068298 0.0010325 -0.00059404)
(-0.0040976 0.001116 -0.00058638)
(0.0019239 0.00095273 -0.00041061)
(0.032 -0.0090593 -4.0424e-06)
(0.014421 -0.0074942 -3.2812e-06)
(0.00024326 -0.0055072 -2.3947e-06)
(-0.0095351 -0.003574 -2.1012e-06)
(-0.014826 -0.0018777 -2.0994e-06)
(-0.016679 -0.00037583 -1.8609e-06)
(-0.015901 0.00084093 -1.2347e-06)
(-0.013461 0.0015309 -1.3992e-06)
(-0.010097 0.0015611 -7.849e-07)
(-0.0066897 0.0015687 -5.2291e-07)
(-0.0039164 0.0016799 -2.7879e-07)
(0.0021034 0.0013996 -5.9048e-08)
(0.031425 -0.011986 -0.0019953)
(0.013646 -0.009928 -0.0015795)
(-0.00061175 -0.0073099 -0.001136)
(-0.01033 -0.0048539 -0.0008147)
(-0.015544 -0.0027061 -0.00073689)
(-0.017329 -0.00058301 -0.00081131)
(-0.016327 0.0010299 -0.00051495)
(-0.013544 0.0019473 -0.00029549)
(-0.009959 0.0019295 -0.00021258)
(-0.0064022 0.0019705 -0.00014162)
(-0.0034842 0.002174 4.1546e-05)
(0.0024584 0.0018324 0.00033283)
(0.030868 -0.01441 -0.0037738)
(0.012874 -0.011571 -0.0024675)
(-0.0013912 -0.0080567 -0.0010292)
(-0.010909 -0.0047722 0.00019001)
(-0.015947 -0.0020987 0.00088906)
(-0.017625 0.00028553 0.00079193)
(-0.016462 0.001932 0.00073966)
(-0.013381 0.0026631 0.00087072)
(-0.0096425 0.0026971 0.00082918)
(-0.0060465 0.0025909 0.00077059)
(-0.0029602 0.0028485 0.00089133)
(0.0027434 0.0023351 0.00083518)
(0.030342 0.00040793 0.017064)
(0.012104 -0.0006673 0.013555)
(-0.002282 -0.0017859 0.0092257)
(-0.011786 -0.002762 0.005338)
(-0.016938 -0.002941 0.002515)
(-0.018597 -0.0020165 -1.2349e-05)
(-0.016964 -0.0012635 -0.0018991)
(-0.013415 -0.0010543 -0.0026965)
(-0.0094408 -0.00081371 -0.0027986)
(-0.0056625 -0.00067421 -0.0025691)
(-0.002399 -0.00057703 -0.0030124)
(0.0031741 -0.00040291 -0.002818)
(0.03085 -4.9614e-06 0.015201)
(0.012839 -5.4206e-06 0.012731)
(-0.0015298 -6.025e-06 0.0095876)
(-0.011242 -6.6089e-06 0.0066794)
(-0.016507 -6.9406e-06 0.0042228)
(-0.018171 -6.745e-06 0.0014117)
(-0.016777 -5.3192e-06 -0.0008868)
(-0.013576 -4.8425e-06 -0.0019649)
(-0.0097568 -4.3945e-06 -0.0020396)
(-0.0060562 -3.1445e-06 -0.0021066)
(-0.0029105 -1.8983e-06 -0.0024722)
(0.0029794 -5.6941e-07 -0.0022099)
(0.031426 -0.001996 0.011976)
(0.013646 -0.0015818 0.0099183)
(-0.00061106 -0.0011395 0.0073006)
(-0.010329 -0.00081874 0.0048455)
(-0.015544 -0.00074149 0.0026978)
(-0.017328 -0.00081643 0.00057401)
(-0.016327 -0.0005195 -0.0010382)
(-0.013542 -0.00029842 -0.0019539)
(-0.0099567 -0.00021545 -0.0019352)
(-0.0064004 -0.00014334 -0.0019747)
(-0.0034826 4.0261e-05 -0.0021766)
(0.0024599 0.00033232 -0.0018335)
(0.031689 -0.0052365 0.0083119)
(0.014022 -0.0042577 0.0067952)
(-0.00019613 -0.0030882 0.0049163)
(-0.0099408 -0.002033 0.0031982)
(-0.015197 -0.0012556 0.0018004)
(-0.017119 -0.00060698 0.00061735)
(-0.016237 0.00020498 -0.00039163)
(-0.013542 0.00068439 -0.0010832)
(-0.010047 0.00069595 -0.0010935)
(-0.0065339 0.00073268 -0.0011648)
(-0.0036595 0.00084093 -0.0013758)
(0.0022783 0.00077424 -0.0013449)
(0.031689 -0.008323 0.0052269)
(0.014023 -0.0068057 0.0042479)
(-0.00019563 -0.004926 0.0030786)
(-0.0099401 -0.0032075 0.0020237)
(-0.015196 -0.0018097 0.0012467)
(-0.017119 -0.00062666 0.00059866)
(-0.016236 0.00038198 -0.00021314)
(-0.013542 0.0010744 -0.00069151)
(-0.010047 0.0010866 -0.00070149)
(-0.0065345 0.0011598 -0.00073659)
(-0.0036599 0.0013727 -0.00084336)
(0.0022782 0.0013438 -0.00077515)
(0.031427 -0.011988 0.001987)
(0.013647 -0.00993 0.0015726)
(-0.00061003 -0.0073119 0.0011306)
(-0.010328 -0.0048559 0.00080986)
(-0.015543 -0.0027081 0.00073213)
(-0.017327 -0.00058549 0.0008074)
(-0.016326 0.0010275 0.00051212)
(-0.013543 0.0019444 0.00029304)
(-0.0099588 0.0019272 0.00021105)
(-0.0064025 0.0019691 0.00014042)
(-0.0034841 0.0021734 -4.2146e-05)
(0.0024589 0.0018323 -0.00033298)
(0.03085 -0.015212 -4.1975e-06)
(0.012838 -0.012742 -3.4859e-06)
(-0.0015306 -0.0095979 -3.0134e-06)
(-0.011242 -0.0066885 -2.7541e-06)
(-0.016507 -0.004233 -2.5618e-06)
(-0.018172 -0.0014214 -1.9549e-06)
(-0.016779 0.00087878 -1.6753e-06)
(-0.013578 0.0019579 -1.4872e-06)
(-0.0097588 0.0020332 -1.4227e-06)
(-0.0060584 0.0021017 -7.3699e-07)
(-0.0029126 0.002469 -2.9478e-07)
(0.0029771 0.0022088 2.4304e-08)
(0.030341 -0.017075 -0.00041767)
(0.012103 -0.013566 0.00065897)
(-0.0022836 -0.0092375 0.0017797)
(-0.011788 -0.0053484 0.0027556)
(-0.016939 -0.0025239 0.0029354)
(-0.018599 5.929e-06 0.0020095)
(-0.016966 0.0018928 0.0012561)
(-0.013418 0.0026897 0.0010478)
(-0.0094434 0.0027936 0.00080868)
(-0.0056653 0.0025658 0.00067071)
(-0.0024021 0.0030102 0.00057559)
(0.0031702 0.002817 0.00040275)
(0.029607 -3.266e-06 0.024579)
(0.011068 -3.6808e-06 0.01902)
(-0.0033572 -4.4531e-06 0.011781)
(-0.01271 -5.1353e-06 0.0048815)
(-0.017893 -4.7819e-06 -0.00030109)
(-0.019508 -4.9766e-06 -0.0032038)
(-0.017496 -4.5555e-06 -0.0048707)
(-0.01355 -5.1542e-06 -0.0055841)
(-0.0092209 -4.003e-06 -0.0053996)
(-0.0051818 -2.8605e-06 -0.0048208)
(-0.0018129 -1.4605e-06 -0.0050978)
(0.0033633 -5.4859e-07 -0.0039485)
(0.030342 -0.00041656 0.017061)
(0.012104 0.00065764 0.013551)
(-0.0022824 0.0017749 0.009222)
(-0.011787 0.0027503 0.005334)
(-0.016938 0.0029289 0.0025102)
(-0.018598 0.0020045 -1.7179e-05)
(-0.016964 0.0012531 -0.0019026)
(-0.013416 0.0010443 -0.0026999)
(-0.0094415 0.00080609 -0.0028019)
(-0.0056627 0.00066846 -0.0025713)
(-0.0023995 0.00057355 -0.0030135)
(0.003173 0.0004017 -0.0028181)
(0.030869 -0.0037732 0.014399)
(0.012875 -0.0024692 0.01156)
(-0.0013899 -0.0010326 0.0080461)
(-0.010908 0.00018623 0.0047627)
(-0.015946 0.00088507 0.002089)
(-0.017625 0.00078773 -0.00029479)
(-0.016462 0.00073549 -0.0019411)
(-0.01338 0.00086703 -0.0026695)
(-0.0096407 0.00082592 -0.0027031)
(-0.0060449 0.00076836 -0.0025951)
(-0.0029584 0.00088956 -0.0028514)
(0.0027454 0.00083439 -0.0023361)
(0.031127 -0.0069037 0.010127)
(0.013246 -0.0051193 0.0078399)
(-0.00097519 -0.0030235 0.0050719)
(-0.010509 -0.0011401 0.0025468)
(-0.015547 0.00014887 0.00064061)
(-0.017328 0.00086173 -0.00072735)
(-0.016334 0.0013471 -0.0015374)
(-0.013377 0.0016554 -0.0020262)
(-0.0097358 0.0015723 -0.0019775)
(-0.006199 0.0014729 -0.0018911)
(-0.0031625 0.0015581 -0.0021114)
(0.0025767 0.0012664 -0.0018615)
(0.031126 -0.010137 0.0068947)
(0.013246 -0.0078495 0.005111)
(-0.00097537 -0.0050804 0.0030159)
(-0.010509 -0.0025544 0.0011333)
(-0.015546 -0.00064734 -0.00015527)
(-0.017328 0.0007197 -0.00086871)
(-0.016334 0.0015286 -0.0013544)
(-0.013378 0.0020182 -0.0016619)
(-0.0097366 0.0019709 -0.0015775)
(-0.0061999 0.0018863 -0.001477)
(-0.0031633 0.0021082 -0.0015609)
(0.0025763 0.0018602 -0.0012674)
(0.030869 -0.014412 0.0037653)
(0.012875 -0.011573 0.0024605)
(-0.0013897 -0.0080585 0.0010238)
(-0.010908 -0.0047739 -0.00019476)
(-0.015945 -0.0021002 -0.00089429)
(-0.017623 0.00028277 -0.00079592)
(-0.016461 0.0019304 -0.00074235)
(-0.013381 0.0026601 -0.00087264)
(-0.009643 0.0026953 -0.00083033)
(-0.0060474 0.0025893 -0.0007716)
(-0.0029605 0.002848 -0.00089184)
(0.002744 0.002335 -0.00083532)
(0.030342 -0.017077 0.00040957)
(0.012104 -0.013568 -0.00066591)
(-0.0022825 -0.0092402 -0.0017856)
(-0.011786 -0.0053511 -0.0027612)
(-0.016937 -0.002527 -0.0029407)
(-0.018598 2.7232e-06 -0.0020136)
(-0.016965 0.0018893 -0.001259)
(-0.013418 0.0026863 -0.0010497)
(-0.0094439 0.0027912 -0.00081038)
(-0.0056656 0.0025637 -0.00067167)
(-0.0024022 0.0030092 -0.00057598)
(0.0031707 0.0028168 -0.00040267)
(0.029607 -0.024594 -2.7976e-06)
(0.011069 -0.019036 -2.3177e-06)
(-0.0033573 -0.011797 -2.0536e-06)
(-0.012712 -0.0048967 -2.0344e-06)
(-0.017894 0.00028938 -2.2346e-06)
(-0.019511 0.0031915 -1.347e-06)
(-0.017498 0.0048581 -1.6602e-06)
(-0.013552 0.0055716 -4.6428e-07)
(-0.0092244 0.0053907 -1.1951e-06)
(-0.0051851 0.0048149 -4.9229e-07)
(-0.0018165 0.0050952 -2.5475e-07)
(0.0033591 0.0039473 -1.9501e-09)
(0.0062239 -0.0053199 0.00083547)
(0.0018938 -0.0076637 0.0016132)
(-0.0019272 -0.0075342 0.0017559)
(-0.007152 -0.008359 0.0021421)
(-0.012686 -0.0079735 0.0022349)
(-0.017455 -0.0052325 0.0019413)
(-0.020157 0.00054072 0.0014104)
(-0.020365 0.0093132 0.00026002)
(-0.017329 0.020212 -0.0015208)
(-0.0087489 0.030428 -0.0035675)
(0.0063982 0.038848 -0.0053072)
(0.02637 0.04424 -0.0067961)
(0.0057982 -0.0048304 0.00099975)
(0.0011319 -0.0067252 0.0013272)
(-0.0020683 -0.0065253 0.0010565)
(-0.0068474 -0.0072131 0.0011017)
(-0.011984 -0.00704 0.00077066)
(-0.016109 -0.0047043 0.00018148)
(-0.018153 -4.0317e-05 -0.00090215)
(-0.017769 0.0070804 -0.0027113)
(-0.014449 0.016171 -0.0047579)
(-0.0060254 0.025303 -0.0063058)
(0.0085333 0.032916 -0.0072653)
(0.027719 0.038067 -0.0081248)
(0.0053473 -0.0042003 0.0021994)
(0.00057787 -0.0056641 0.0031184)
(-0.0026699 -0.005333 0.0028345)
(-0.0073313 -0.005807 0.0029439)
(-0.012228 -0.0055583 0.0025974)
(-0.01623 -0.0034737 0.0014414)
(-0.018324 0.00063656 -0.0010823)
(-0.017771 0.0067703 -0.0049761)
(-0.013889 0.014417 -0.0096019)
(-0.0049886 0.022105 -0.013609)
(0.0095317 0.028525 -0.016622)
(0.028487 0.032994 -0.018619)
(0.0052904 -0.0036459 0.0029114)
(0.00035856 -0.0048831 0.0040799)
(-0.0027638 -0.0045099 0.0038674)
(-0.0072823 -0.0047992 0.0041834)
(-0.012041 -0.0044697 0.004053)
(-0.015894 -0.0026402 0.0027253)
(-0.017883 0.00099793 7.7625e-07)
(-0.01729 0.0064734 -0.00433)
(-0.01345 0.013176 -0.009722)
(-0.0046072 0.019655 -0.015115)
(0.0098756 0.025009 -0.019509)
(0.028724 0.028716 -0.02255)
(0.00529 -0.0029121 0.0036451)
(0.0003581 -0.0040818 0.0048815)
(-0.0027644 -0.0038703 0.004507)
(-0.0072826 -0.0041876 0.0047952)
(-0.012042 -0.0040585 0.0044645)
(-0.015895 -0.0027318 0.0026343)
(-0.017883 -7.8932e-06 -0.0010048)
(-0.017291 0.004322 -0.0064811)
(-0.01345 0.0097142 -0.013183)
(-0.0046072 0.015107 -0.019662)
(0.0098756 0.019501 -0.025016)
(0.028724 0.022542 -0.028723)
(0.0053459 -0.0022001 0.0041996)
(0.00057663 -0.0031197 0.0056628)
(-0.0026712 -0.002837 0.0053307)
(-0.0073329 -0.0029479 0.0058034)
(-0.01223 -0.0026025 0.0055536)
(-0.016231 -0.0014475 0.0034682)
(-0.018324 0.0010758 -0.0006434)
(-0.017771 0.0049687 -0.006778)
(-0.013888 0.0095942 -0.014425)
(-0.0049884 0.013601 -0.022112)
(0.0095317 0.016614 -0.028532)
(0.028488 0.018611 -0.033001)
(0.0057962 -0.00099996 0.0048301)
(0.0011301 -0.0013282 0.0067247)
(-0.0020709 -0.001059 0.0065239)
(-0.0068497 -0.0011059 0.0072102)
(-0.011985 -0.00077614 0.0070356)
(-0.016111 -0.00018828 0.0046992)
(-0.018155 0.00089397 3.4166e-05)
(-0.017771 0.0027026 -0.0070876)
(-0.014449 0.0047473 -0.01618)
(-0.0060255 0.006295 -0.025311)
(0.0085334 0.0072543 -0.032923)
(0.02772 0.0081139 -0.038074)
(0.0062217 -0.00083556 0.0053198)
(0.001891 -0.0016142 0.0076628)
(-0.0019307 -0.0017584 0.0075331)
(-0.0071559 -0.0021459 0.0083564)
(-0.012689 -0.0022401 0.0079694)
(-0.017458 -0.0019477 0.0052269)
(-0.020159 -0.0014173 -0.00054725)
(-0.020366 -0.00026667 -0.0093205)
(-0.01733 0.0015128 -0.020221)
(-0.0087485 0.003559 -0.030436)
(0.0063983 0.0052983 -0.038855)
(0.026372 0.006788 -0.044248)
(0.0052605 -0.0028524 0.00041714)
(0.0059625 -0.0034779 0.00048246)
(-0.0013948 -0.0036896 0.00068627)