/*--------------------------------*- C++ -*----------------------------------*\
| =========                 |                                                 |
| \\      /  F ield         | foam-extend: Open Source CFD                    |
|  \\    /   O peration     | Version:     4.1-20200408                       |
|   \\  /    A nd           | Web:         http://www.foam-extend.org         |
|    \\/     M anipulation  |                                                 |
\*---------------------------------------------------------------------------*/
FoamFile
{
    version     2.0;
    format      ascii;
    class       volTensorField;
    location    "0.0560000";
    object      F;
}
// * * * * * * * * * * * * * * * * * * * * * * * * * * * * * * * * * * * * * //

dimensions      [0 0 0 0 0 0 0];

internalField   nonuniform List<tensor> 
1952
(
(1.07479 -0.00486208 -2.5822e-10 -0.000422402 0.962936 -6.48532e-11 7.09046e-11 8.59337e-10 0.962876)
(1.0748 -0.00819005 -1.20843e-10 -0.000664627 0.963009 -1.24721e-09 4.25183e-11 -8.74025e-10 0.962923)
(1.07481 -0.0110237 2.10515e-10 -0.000947358 0.963147 4.26427e-10 -7.17301e-11 -6.14463e-09 0.962951)
(1.07483 -0.0136752 5.19242e-10 -0.00118563 0.963282 2.02233e-09 -1.96691e-10 2.32706e-09 0.963022)
(1.07485 -0.0159 -1.98809e-10 -0.00146651 0.963478 -5.22533e-10 -3.47428e-12 1.18265e-08 0.963071)
(1.07487 -0.0177495 -9.06683e-10 -0.00169664 0.963661 -2.18643e-09 2.00807e-10 1.71004e-09 0.963163)
(1.0749 -0.0190622 -3.29367e-10 -0.0019707 0.963917 -8.70718e-10 4.66224e-11 -1.22112e-08 0.963229)
(1.07492 -0.0198846 6.36211e-10 -0.00218919 0.964185 1.14686e-09 -1.46973e-10 -2.06646e-09 0.963341)
(1.07495 -0.0198811 -8.36335e-11 -0.00245196 0.96452 -2.32723e-10 -6.25198e-11 1.17211e-08 0.963432)
(1.07497 -0.0190595 -9.35558e-10 -0.00265098 0.964914 -1.25085e-09 6.59215e-11 -2.51529e-09 0.963567)
(1.07499 -0.0169365 2.91869e-10 -0.0028962 0.965388 2.8823e-10 -2.43482e-11 -1.19201e-08 0.963692)
(1.075 -0.0138772 8.4043e-10 -0.0030706 0.966073 8.51109e-10 -1.07513e-10 2.05146e-09 0.963861)
(1.07502 -0.00935305 -3.39144e-11 -0.00329852 0.966816 -7.70477e-11 -1.02579e-10 1.15063e-08 0.964048)
(1.07504 -0.00398393 -6.2652e-10 -0.00345102 0.967634 -8.92668e-10 -2.08798e-11 1.80073e-09 0.964271)
(1.07507 6.24312e-05 -3.0195e-10 -0.00370082 0.968046 -2.49556e-10 -1.8509e-11 -3.67603e-09 0.964512)
(1.07478 -0.00263956 -8.10573e-11 -0.000173562 0.962875 -2.99686e-09 1.50436e-11 -1.25574e-09 0.962888)
(1.07488 -0.00486621 -2.58397e-10 -0.000403317 0.962914 -6.49236e-11 -9.24873e-12 8.59966e-10 0.962856)
(1.07488 -0.00819703 -1.20879e-10 -0.00065468 0.962988 -1.24811e-09 -1.23462e-11 -8.7436e-10 0.962902)
(1.0749 -0.0110332 2.10727e-10 -0.000910222 0.963125 4.26846e-10 -1.20735e-11 -6.14834e-09 0.96293)
(1.07492 -0.0136872 5.19622e-10 -0.00116025 0.96326 2.02441e-09 -2.81089e-11 2.3274e-09 0.963001)
(1.07494 -0.015914 -1.98944e-10 -0.00141187 0.963456 -5.22766e-10 -5.01428e-11 1.18335e-08 0.96305)
(1.07496 -0.0177651 -9.07315e-10 -0.00165335 0.963639 -2.1887e-09 -3.97189e-11 1.71281e-09 0.963141)
(1.07499 -0.0190799 -3.29561e-10 -0.00189625 0.963895 -8.70695e-10 -1.21763e-11 -1.22177e-08 0.963208)
(1.07501 -0.0199048 6.36404e-10 -0.00212398 0.964162 1.14921e-09 -3.03281e-11 -2.06866e-09 0.963319)
(1.07504 -0.0199017 -8.36841e-11 -0.00235364 0.964496 -2.32767e-10 -8.38491e-11 1.17281e-08 0.963411)
(1.07507 -0.0190821 -9.35167e-10 -0.00256064 0.964887 -1.2532e-09 -6.34664e-11 -2.51584e-09 0.963545)
(1.07509 -0.0169633 2.91955e-10 -0.00277132 0.965359 2.8773e-10 -7.88805e-12 -1.19274e-08 0.96367)
(1.07511 -0.0139117 8.39616e-10 -0.00294905 0.966041 8.52739e-10 -4.43892e-11 2.05242e-09 0.963838)
(1.07513 -0.00940095 -3.38679e-11 -0.003137 0.966781 -7.7072e-11 -1.10064e-10 1.15138e-08 0.964025)
(1.07515 -0.00406287 -6.21683e-10 -0.00328267 0.967591 -8.93386e-10 -1.06358e-10 1.80194e-09 0.964246)
(1.07519 -8.62131e-05 -2.97577e-10 -0.00347811 0.967995 -2.49161e-10 -4.34196e-11 -3.6791e-09 0.964486)
(1.07487 -0.00264207 -8.1087e-11 -0.000172942 0.962854 -2.99825e-09 -3.39727e-12 -1.25644e-09 0.962867)
(1.07497 -0.00487085 -2.58606e-10 -0.000398337 0.962883 -6.49253e-11 -9.26706e-12 8.60662e-10 0.962825)
(1.07497 -0.00820502 -1.20908e-10 -0.000647057 0.962957 -1.24915e-09 -1.23753e-11 -8.75121e-10 0.962871)
(1.07499 -0.0110441 2.10949e-10 -0.000898727 0.963094 4.27316e-10 -1.21073e-11 -6.15346e-09 0.9629)
(1.07501 -0.0137007 5.20009e-10 -0.00114639 0.963229 2.02643e-09 -2.81629e-11 2.32932e-09 0.96297)
(1.07503 -0.0159295 -1.99101e-10 -0.00139396 0.963424 -5.23152e-10 -5.02253e-11 1.18433e-08 0.963019)
(1.07505 -0.0177826 -9.07904e-10 -0.00163313 0.963607 -2.19084e-09 -3.97993e-11 1.71424e-09 0.96311)
(1.07508 -0.0190997 -3.29856e-10 -0.00187178 0.963862 -8.71224e-10 -1.22326e-11 -1.22281e-08 0.963177)
(1.07511 -0.0199271 6.36512e-10 -0.00209732 0.964129 1.15075e-09 -3.03989e-11 -2.07047e-09 0.963288)
(1.07513 -0.0199252 -8.37439e-11 -0.00232278 0.964461 -2.32905e-10 -8.39838e-11 1.17382e-08 0.963379)
(1.07516 -0.0191075 -9.35018e-10 -0.00252759 0.964852 -1.25482e-09 -6.35977e-11 -2.51809e-09 0.963513)
(1.07518 -0.0169913 2.92207e-10 -0.00273446 0.965322 2.87739e-10 -7.94748e-12 -1.19381e-08 0.963638)
(1.0752 -0.0139426 8.39668e-10 -0.00291095 0.966003 8.5408e-10 -4.44734e-11 2.05426e-09 0.963805)
(1.07522 -0.00943223 -3.38311e-11 -0.00309656 0.966741 -7.71159e-11 -1.10238e-10 1.15244e-08 0.963992)
(1.07524 -0.00409531 -6.21358e-10 -0.0032426 0.967551 -8.95019e-10 -1.06561e-10 1.80362e-09 0.964213)
(1.07527 -0.000122558 -2.97715e-10 -0.00343876 0.967958 -2.49529e-10 -4.35207e-11 -3.68261e-09 0.964452)
(1.07496 -0.00264491 -8.1186e-11 -0.000170866 0.962824 -3.00041e-09 -3.40489e-12 -1.25748e-09 0.962836)
(1.07506 -0.00487551 -2.58807e-10 -0.000394225 0.96285 -6.48934e-11 -9.28571e-12 8.6142e-10 0.962791)
(1.07507 -0.00821303 -1.20946e-10 -0.000640658 0.962924 -1.25021e-09 -1.24037e-11 -8.75947e-10 0.962837)
(1.07508 -0.0110548 2.11167e-10 -0.000889421 0.96306 4.2779e-10 -1.21407e-11 -6.15907e-09 0.962866)
(1.0751 -0.0137146 5.20303e-10 -0.00113495 0.963195 2.02835e-09 -2.8218e-11 2.3314e-09 0.962936)
(1.07512 -0.0159456 -1.99266e-10 -0.00137927 0.963389 -5.23584e-10 -5.03087e-11 1.18541e-08 0.962986)
(1.07515 -0.0178008 -9.08473e-10 -0.0016164 0.963572 -2.19287e-09 -3.98792e-11 1.71579e-09 0.963076)
(1.07517 -0.0191204 -3.30175e-10 -0.00185181 0.963826 -8.71943e-10 -1.22869e-11 -1.22395e-08 0.963143)
(1.0752 -0.0199505 6.36473e-10 -0.00207549 0.964093 1.15195e-09 -3.04701e-11 -2.07245e-09 0.963253)
(1.07523 -0.0199491 -8.38209e-11 -0.00229778 0.964424 -2.33071e-10 -8.41203e-11 1.17493e-08 0.963344)
(1.07525 -0.0191329 -9.34601e-10 -0.00250098 0.964813 -1.25631e-09 -6.37293e-11 -2.52054e-09 0.963478)
(1.07528 -0.017019 2.9257e-10 -0.00270522 0.965283 2.87902e-10 -8.00358e-12 -1.19497e-08 0.963602)
(1.0753 -0.0139731 8.39491e-10 -0.00288098 0.965964 8.55348e-10 -4.45564e-11 2.05624e-09 0.963769)
(1.07531 -0.00946365 -3.37967e-11 -0.00306515 0.966702 -7.71669e-11 -1.10415e-10 1.15359e-08 0.963956)
(1.07533 -0.00412679 -6.21237e-10 -0.00321199 0.967511 -8.96378e-10 -1.06766e-10 1.80541e-09 0.964176)
(1.07535 -0.000154032 -2.9818e-10 -0.00340821 0.96792 -2.49803e-10 -4.36205e-11 -3.68642e-09 0.964415)
(1.07505 -0.00264771 -8.12176e-11 -0.000169137 0.96279 -3.00278e-09 -3.41249e-12 -1.25862e-09 0.962802)
(1.07515 -0.00488032 -2.59026e-10 -0.000390723 0.962814 -6.48612e-11 -9.30462e-12 8.62233e-10 0.962755)
(1.07516 -0.00822141 -1.20982e-10 -0.000635022 0.962888 -1.25136e-09 -1.24315e-11 -8.76833e-10 0.962801)
(1.07518 -0.0110661 2.11398e-10 -0.000881534 0.963024 4.28295e-10 -1.21733e-11 -6.16507e-09 0.96283)
(1.0752 -0.0137288 5.20676e-10 -0.00112499 0.963158 2.03035e-09 -2.82744e-11 2.33363e-09 0.9629)
(1.07522 -0.0159619 -1.99431e-10 -0.00136701 0.963352 -5.24051e-10 -5.03934e-11 1.18657e-08 0.962949)
(1.07524 -0.0178193 -9.09027e-10 -0.00160224 0.963535 -2.19499e-09 -3.99585e-11 1.71745e-09 0.963039)
(1.07527 -0.019141 -3.30529e-10 -0.00183547 0.963788 -8.7275e-10 -1.23389e-11 -1.22517e-08 0.963106)
(1.0753 -0.0199739 6.36361e-10 -0.00205746 0.964054 1.15313e-09 -3.05413e-11 -2.07456e-09 0.963217)
(1.07533 -0.0199736 -8.38935e-11 -0.00227783 0.964384 -2.33257e-10 -8.42592e-11 1.17611e-08 0.963307)
(1.07535 -0.0191585 -9.34498e-10 -0.00247984 0.964774 -1.25767e-09 -6.38609e-11 -2.52315e-09 0.963441)
(1.07537 -0.0170462 2.92923e-10 -0.00268284 0.965242 2.88172e-10 -8.05668e-12 -1.1962e-08 0.963565)
(1.07539 -0.014002 8.39587e-10 -0.00285814 0.965924 8.56545e-10 -4.46387e-11 2.05834e-09 0.963732)
(1.07541 -0.00949098 -3.37614e-11 -0.00304206 0.966661 -7.7221e-11 -1.10595e-10 1.1548e-08 0.963918)
(1.07542 -0.00415148 -6.21303e-10 -0.00318962 0.967472 -8.97777e-10 -1.06973e-10 1.8073e-09 0.964138)
(1.07544 -0.000177628 -2.98561e-10 -0.00338621 0.967883 -2.50109e-10 -4.37193e-11 -3.69038e-09 0.964377)
(1.07514 -0.00265057 -8.128e-11 -0.000167642 0.962754 -3.00535e-09 -3.42007e-12 -1.25984e-09 0.962766)
(1.07525 -0.00488513 -2.59255e-10 -0.000387878 0.962776 -6.48232e-11 -9.32379e-12 8.6309e-10 0.962717)
(1.07526 -0.00822974 -1.21027e-10 -0.000630411 0.96285 -1.25255e-09 -1.24589e-11 -8.77769e-10 0.962763)
(1.07528 -0.0110773 2.11629e-10 -0.000875085 0.962986 4.28818e-10 -1.22055e-11 -6.17142e-09 0.962792)
(1.07529 -0.0137433 5.21009e-10 -0.00111679 0.96312 2.03246e-09 -2.83319e-11 2.33598e-09 0.962862)
(1.07532 -0.0159786 -1.99608e-10 -0.00135711 0.963314 -5.24541e-10 -5.0479e-11 1.18779e-08 0.962911)
(1.07534 -0.0178381 -9.09586e-10 -0.00159073 0.963495 -2.19719e-09 -4.00374e-11 1.71919e-09 0.963001)
(1.07537 -0.0191622 -3.30888e-10 -0.00182243 0.963749 -8.7361e-10 -1.23896e-11 -1.22645e-08 0.963068)
(1.0754 -0.0199979 6.36252e-10 -0.00204309 0.964014 1.15436e-09 -3.06125e-11 -2.07677e-09 0.963178)
(1.07543 -0.0199977 -8.39812e-11 -0.00226236 0.964344 -2.3345e-10 -8.43995e-11 1.17735e-08 0.963269)
(1.07545 -0.0191832 -9.34129e-10 -0.00246377 0.964733 -1.25923e-09 -6.39928e-11 -2.52589e-09 0.963402)
(1.07547 -0.017072 2.93398e-10 -0.00266622 0.965202 2.88444e-10 -8.10801e-12 -1.19749e-08 0.963526)
(1.07549 -0.0140287 8.39524e-10 -0.00284164 0.965884 8.57883e-10 -4.47204e-11 2.06053e-09 0.963692)
(1.0755 -0.0095161 -3.37234e-11 -0.00302554 0.966622 -7.72754e-11 -1.10776e-10 1.15605e-08 0.963878)
(1.07551 -0.00417273 -6.21517e-10 -0.0031736 0.967433 -8.99005e-10 -1.07182e-10 1.80925e-09 0.964099)
(1.07552 -0.000196434 -2.98967e-10 -0.00337007 0.967845 -2.50396e-10 -4.38175e-11 -3.69449e-09 0.964338)
(1.07524 -0.00265339 -8.13453e-11 -0.000166428 0.962716 -3.00808e-09 -3.42764e-12 -1.26113e-09 0.962728)
(1.07535 -0.00489005 -2.59476e-10 -0.000385558 0.962736 -6.479e-11 -9.34313e-12 8.63982e-10 0.962678)
(1.07536 -0.00823835 -1.21061e-10 -0.000626675 0.96281 -1.25381e-09 -1.24858e-11 -8.78746e-10 0.962724)
(1.07538 -0.011089 2.11865e-10 -0.000869887 0.962946 4.29366e-10 -1.22372e-11 -6.17803e-09 0.962752)
(1.07539 -0.013758 5.21403e-10 -0.00111029 0.963079 2.03467e-09 -2.83903e-11 2.33844e-09 0.962822)
(1.07542 -0.0159952 -1.99781e-10 -0.00134941 0.963273 -5.25053e-10 -5.05656e-11 1.18906e-08 0.962871)
(1.07544 -0.0178569 -9.10104e-10 -0.00158192 0.963455 -2.19951e-09 -4.01159e-11 1.72101e-09 0.962961)
(1.07547 -0.019183 -3.31287e-10 -0.00181265 0.963708 -8.74504e-10 -1.24388e-11 -1.22779e-08 0.963028)
(1.0755 -0.0200213 6.36068e-10 -0.00203255 0.963974 1.15571e-09 -3.06837e-11 -2.07908e-09 0.963138)
(1.07553 -0.0200216 -8.40602e-11 -0.00225119 0.964303 -2.33652e-10 -8.45411e-11 1.17863e-08 0.963228)
(1.07555 -0.0192074 -9.34069e-10 -0.00245215 0.964692 -1.26064e-09 -6.41246e-11 -2.52871e-09 0.963361)
(1.07557 -0.0170967 2.93834e-10 -0.00265432 0.965161 2.88805e-10 -8.15754e-12 -1.19882e-08 0.963485)
(1.07558 -0.0140535 8.39739e-10 -0.00282978 0.965844 8.59032e-10 -4.48016e-11 2.06277e-09 0.963652)
(1.07559 -0.00953777 -3.36807e-11 -0.00301362 0.966582 -7.7331e-11 -1.10958e-10 1.15733e-08 0.963838)
(1.0756 -0.0041901 -6.21674e-10 -0.00316193 0.967395 -9.00215e-10 -1.07391e-10 1.81124e-09 0.964059)
(1.07561 -0.000211338 -2.9933e-10 -0.00335812 0.967808 -2.50677e-10 -4.39151e-11 -3.69869e-09 0.964298)
(1.07534 -0.00265628 -8.13877e-11 -0.000165436 0.962677 -3.01093e-09 -3.43519e-12 -1.26248e-09 0.962689)
(1.07545 -0.00489501 -2.5969e-10 -0.000383885 0.962695 -6.47483e-11 -9.36262e-12 8.64905e-10 0.962637)
(1.07546 -0.00824693 -1.21107e-10 -0.000623976 0.962769 -1.2551e-09 -1.25125e-11 -8.79755e-10 0.962683)
(1.07548 -0.0111005 2.12103e-10 -0.000866228 0.962905 4.29918e-10 -1.22688e-11 -6.18487e-09 0.962711)
(1.07549 -0.0137728 5.21737e-10 -0.00110567 0.963038 2.03694e-09 -2.84493e-11 2.34096e-09 0.962781)
(1.07552 -0.016012 -1.99958e-10 -0.00134379 0.963232 -5.25574e-10 -5.06525e-11 1.19037e-08 0.96283)
(1.07554 -0.0178757 -9.10669e-10 -0.00157547 0.963414 -2.20187e-09 -4.01941e-11 1.72288e-09 0.96292)
(1.07557 -0.0192038 -3.31668e-10 -0.00180545 0.963667 -8.7543e-10 -1.24874e-11 -1.22916e-08 0.962987)
(1.0756 -0.0200444 6.36037e-10 -0.00202472 0.963932 1.15703e-09 -3.07551e-11 -2.08143e-09 0.963097)
(1.07563 -0.0200442 -8.41453e-11 -0.00224292 0.964261 -2.33854e-10 -8.46834e-11 1.17994e-08 0.963187)
(1.07565 -0.01923 -9.33754e-10 -0.00244353 0.96465 -1.26229e-09 -6.42566e-11 -2.5316e-09 0.96332)
(1.07567 -0.0171195 2.94363e-10 -0.00264565 0.96512 2.89119e-10 -8.20626e-12 -1.20017e-08 0.963444)
(1.07568 -0.0140765 8.39642e-10 -0.00282091 0.965804 8.60337e-10 -4.48826e-11 2.06507e-09 0.963611)
(1.07569 -0.00955773 -3.36399e-11 -0.00300495 0.966543 -7.73865e-11 -1.11142e-10 1.15864e-08 0.963797)
(1.07569 -0.00420472 -6.2181e-10 -0.00315336 0.967356 -9.01291e-10 -1.07601e-10 1.81327e-09 0.964018)
(1.0757 -0.00022342 -2.99661e-10 -0.00334921 0.96777 -2.50967e-10 -4.40125e-11 -3.70296e-09 0.964257)
(1.07544 -0.00265917 -8.14505e-11 -0.000164719 0.962636 -3.01389e-09 -3.44273e-12 -1.26388e-09 0.962648)
(1.07555 -0.0048999 -2.59929e-10 -0.000382606 0.962653 -6.4713e-11 -9.38221e-12 8.65844e-10 0.962595)
(1.07556 -0.00825555 -1.21139e-10 -0.000621896 0.962727 -1.25643e-09 -1.25389e-11 -8.80784e-10 0.962641)
(1.07558 -0.0111119 2.12326e-10 -0.000863377 0.962864 4.30492e-10 -1.23e-11 -6.19182e-09 0.96267)
(1.0756 -0.0137873 5.22064e-10 -0.00110204 0.962996 2.03926e-09 -2.85088e-11 2.34354e-09 0.962739)
(1.07562 -0.0160283 -2.00129e-10 -0.00133955 0.96319 -5.2611e-10 -5.07401e-11 1.19171e-08 0.962789)
(1.07564 -0.0178941 -9.11143e-10 -0.00157052 0.963371 -2.20431e-09 -4.02722e-11 1.72479e-09 0.962878)
(1.07567 -0.019224 -3.32096e-10 -0.00180008 0.963624 -8.76368e-10 -1.25348e-11 -1.23055e-08 0.962945)
(1.0757 -0.0200671 6.3571e-10 -0.00201882 0.963891 1.15849e-09 -3.08263e-11 -2.08384e-09 0.963055)
(1.07573 -0.0200671 -8.42298e-11 -0.00223685 0.964219 -2.34062e-10 -8.4827e-11 1.18128e-08 0.963145)
(1.07575 -0.019252 -9.33708e-10 -0.00243756 0.964609 -1.26382e-09 -6.43885e-11 -2.53453e-09 0.963278)
(1.07576 -0.0171413 2.94847e-10 -0.00263971 0.965079 2.89466e-10 -8.25399e-12 -1.20155e-08 0.963402)
(1.07578 -0.0140972 8.39909e-10 -0.00281526 0.965764 8.61593e-10 -4.49633e-11 2.06739e-09 0.963569)
(1.07578 -0.00957474 -3.35914e-11 -0.0029994 0.966504 -7.74418e-11 -1.11325e-10 1.15997e-08 0.963756)
(1.07578 -0.00421709 -6.21943e-10 -0.00314741 0.967317 -9.02376e-10 -1.07811e-10 1.81532e-09 0.963976)
(1.07579 -0.000233113 -2.99969e-10 -0.00334292 0.967731 -2.51256e-10 -4.41097e-11 -3.70728e-09 0.964216)
(1.07554 -0.00266206 -8.15235e-11 -0.000164171 0.962594 -3.01691e-09 -3.45026e-12 -1.2653e-09 0.962606)
(1.07566 -0.0049049 -2.60169e-10 -0.000381627 0.962611 -6.46716e-11 -9.40188e-12 8.66802e-10 0.962552)
(1.07566 -0.0082642 -1.21184e-10 -0.000620366 0.962685 -1.25777e-09 -1.25651e-11 -8.81834e-10 0.962598)
(1.07568 -0.0111237 2.12575e-10 -0.000861211 0.962821 4.31065e-10 -1.23308e-11 -6.19893e-09 0.962627)
(1.0757 -0.0138023 5.22474e-10 -0.00109946 0.962954 2.04166e-09 -2.85686e-11 2.34617e-09 0.962697)
(1.07572 -0.0160449 -2.00303e-10 -0.00133666 0.963147 -5.26647e-10 -5.08279e-11 1.19307e-08 0.962746)
(1.07575 -0.0179124 -9.11679e-10 -0.00156742 0.963329 -2.20681e-09 -4.03501e-11 1.72672e-09 0.962836)
(1.07577 -0.019244 -3.32508e-10 -0.0017968 0.963582 -8.77304e-10 -1.25823e-11 -1.23197e-08 0.962902)
(1.0758 -0.0200887 6.35736e-10 -0.00201557 0.963849 1.15997e-09 -3.08978e-11 -2.08628e-09 0.963012)
(1.07582 -0.0200878 -8.43046e-11 -0.00223357 0.964177 -2.34269e-10 -8.49698e-11 1.18264e-08 0.963103)
(1.07584 -0.0192725 -9.33417e-10 -0.00243394 0.964567 -1.26544e-09 -6.45206e-11 -2.5375e-09 0.963236)
(1.07586 -0.0171613 2.95392e-10 -0.002636 0.965038 2.8981e-10 -8.30178e-12 -1.20294e-08 0.96336)
(1.07587 -0.0141166 8.39845e-10 -0.00281136 0.965724 8.62829e-10 -4.50438e-11 2.06973e-09 0.963527)
(1.07588 -0.00959072 -3.35436e-11 -0.00299514 0.966464 -7.74957e-11 -1.1151e-10 1.1613e-08 0.963714)
(1.07588 -0.00422744 -6.22053e-10 -0.00314298 0.967277 -9.03475e-10 -1.08022e-10 1.81738e-09 0.963934)
(1.07588 -0.000241022 -3.00224e-10 -0.00333821 0.967692 -2.51545e-10 -4.42068e-11 -3.71163e-09 0.964175)
(1.07565 -0.00266498 -8.15939e-11 -0.000163756 0.962551 -3.02e-09 -3.45777e-12 -1.26675e-09 0.962563)
(1.07576 -0.00490974 -2.60382e-10 -0.000381135 0.962568 -6.46292e-11 -9.42158e-12 8.67768e-10 0.962509)
(1.07577 -0.00827272 -1.21207e-10 -0.000619542 0.962642 -1.25913e-09 -1.25912e-11 -8.82892e-10 0.962555)
(1.07578 -0.0111347 2.12777e-10 -0.000860247 0.962778 4.31644e-10 -1.2362e-11 -6.20609e-09 0.962584)
(1.0758 -0.0138163 5.22673e-10 -0.00109814 0.962911 2.04404e-09 -2.86286e-11 2.34881e-09 0.962654)
(1.07582 -0.0160609 -2.00472e-10 -0.00133494 0.963105 -5.27191e-10 -5.09155e-11 1.19444e-08 0.962703)
(1.07585 -0.0179302 -9.12114e-10 -0.0015654 0.963286 -2.20928e-09 -4.04278e-11 1.72867e-09 0.962793)
(1.07587 -0.0192634 -3.32935e-10 -0.00179453 0.96354 -8.78268e-10 -1.26294e-11 -1.2334e-08 0.962859)
(1.0759 -0.0201102 6.3546e-10 -0.00201308 0.963807 1.16142e-09 -3.09691e-11 -2.08873e-09 0.96297)
(1.07592 -0.0201087 -8.43877e-11 -0.0022309 0.964135 -2.34474e-10 -8.51137e-11 1.184e-08 0.96306)
(1.07594 -0.0192921 -9.33274e-10 -0.0024313 0.964525 -1.26708e-09 -6.46527e-11 -2.54049e-09 0.963193)
(1.07596 -0.0171803 2.95902e-10 -0.00263313 0.964997 2.9015e-10 -8.34879e-12 -1.20434e-08 0.963318)
(1.07597 -0.0141345 8.39943e-10 -0.00280846 0.965684 8.64047e-10 -4.51244e-11 2.07208e-09 0.963484)
(1.07597 -0.00960522 -3.34917e-11 -0.00299177 0.966425 -7.75524e-11 -1.11695e-10 1.16265e-08 0.963672)
(1.07597 -0.00423665 -6.22263e-10 -0.00313973 0.967238 -9.04525e-10 -1.08233e-10 1.81946e-09 0.963892)
(1.07597 -0.000247478 -3.0045e-10 -0.00333494 0.967653 -2.51826e-10 -4.43038e-11 -3.71602e-09 0.964133)
(1.07575 -0.00266787 -8.16405e-11 -0.00016354 0.962509 -3.02312e-09 -3.46529e-12 -1.26822e-09 0.96252)
(1.07586 -0.00491468 -2.6061e-10 -0.000380699 0.962525 -6.4591e-11 -9.44134e-12 8.6874e-10 0.962466)
(1.07587 -0.00828135 -1.21251e-10 -0.000618866 0.962599 -1.26051e-09 -1.26172e-11 -8.83958e-10 0.962512)
(1.07588 -0.0111463 2.13014e-10 -0.000859311 0.962735 4.32232e-10 -1.23927e-11 -6.21329e-09 0.962541)
(1.0759 -0.0138309 5.23074e-10 -0.00109703 0.962868 2.04647e-09 -2.86889e-11 2.35148e-09 0.962611)
(1.07593 -0.0160769 -2.00642e-10 -0.00133379 0.963061 -5.27738e-10 -5.10038e-11 1.19581e-08 0.96266)
(1.07595 -0.0179477 -9.12576e-10 -0.00156405 0.963243 -2.21183e-09 -4.05057e-11 1.73064e-09 0.96275)
(1.07597 -0.0192822 -3.33378e-10 -0.00179319 0.963497 -8.79219e-10 -1.26762e-11 -1.23483e-08 0.962816)
(1.076 -0.0201307 6.35258e-10 -0.00201149 0.963765 1.16292e-09 -3.10405e-11 -2.0912e-09 0.962927)
(1.07602 -0.0201285 -8.44629e-11 -0.00222929 0.964093 -2.34685e-10 -8.5258e-11 1.18537e-08 0.963017)
(1.07604 -0.0193108 -9.33063e-10 -0.00242957 0.964484 -1.2686e-09 -6.47849e-11 -2.54349e-09 0.963151)
(1.07606 -0.0171981 2.96443e-10 -0.00263153 0.964956 2.90522e-10 -8.39581e-12 -1.20574e-08 0.963275)
(1.07607 -0.0141513 8.39912e-10 -0.00280658 0.965644 8.6517e-10 -4.5205e-11 2.07445e-09 0.963442)
(1.07607 -0.00961797 -3.34389e-11 -0.00299013 0.966385 -7.76093e-11 -1.11881e-10 1.164e-08 0.963629)
(1.07606 -0.00424386 -6.22208e-10 -0.00313815 0.967198 -9.05577e-10 -1.08445e-10 1.82155e-09 0.96385)
(1.07606 -0.000252711 -3.00668e-10 -0.00333307 0.967614 -2.52112e-10 -4.44008e-11 -3.72042e-09 0.964091)
(1.07585 -0.00267078 -8.17099e-11 -0.000163355 0.962465 -3.02625e-09 -3.47279e-12 -1.2697e-09 0.962477)
(1.07596 -0.00491943 -2.6082e-10 -0.000380497 0.962481 -6.45447e-11 -9.46113e-12 8.69718e-10 0.962423)
(1.07597 -0.00828971 -1.21268e-10 -0.000618531 0.962555 -1.26189e-09 -1.26432e-11 -8.85031e-10 0.962469)
(1.07599 -0.0111574 2.13225e-10 -0.000858794 0.962692 4.32813e-10 -1.24236e-11 -6.22054e-09 0.962498)
(1.076 -0.013845 5.23316e-10 -0.00109635 0.962825 2.04891e-09 -2.87493e-11 2.35415e-09 0.962567)
(1.07603 -0.0160925 -2.00809e-10 -0.00133308 0.963018 -5.28283e-10 -5.1092e-11 1.1972e-08 0.962617)
(1.07605 -0.0179649 -9.12988e-10 -0.0015632 0.963201 -2.21437e-09 -4.05835e-11 1.7326e-09 0.962707)
(1.07608 -0.0193008 -3.33807e-10 -0.00179234 0.963455 -8.80158e-10 -1.27229e-11 -1.23627e-08 0.962773)
(1.0761 -0.0201509 6.35046e-10 -0.00201043 0.963722 1.16447e-09 -3.11119e-11 -2.09367e-09 0.962884)
(1.07612 -0.0201477 -8.4539e-11 -0.00222841 0.964051 -2.34889e-10 -8.54025e-11 1.18674e-08 0.962974)
(1.07614 -0.0193287 -9.32869e-10 -0.00242876 0.964442 -1.27034e-09 -6.49172e-11 -2.5465e-09 0.963108)
(1.07616 -0.0172151 2.9697e-10 -0.00263098 0.964914 2.90814e-10 -8.44265e-12 -1.20715e-08 0.963232)
(1.07616 -0.0141671 8.39922e-10 -0.0028061 0.965603 8.66527e-10 -4.52856e-11 2.07682e-09 0.963399)
(1.07616 -0.00962981 -3.33854e-11 -0.00298997 0.966345 -7.76648e-11 -1.12066e-10 1.16535e-08 0.963587)
(1.07616 -0.00425013 -6.22244e-10 -0.00313779 0.967159 -9.06526e-10 -1.08657e-10 1.82364e-09 0.963808)
(1.07616 -0.000256697 -3.00864e-10 -0.00333247 0.967575 -2.52408e-10 -4.4498e-11 -3.72482e-09 0.964049)
(1.07595 -0.00267365 -8.17706e-11 -0.00016327 0.962422 -3.02941e-09 -3.4803e-12 -1.27118e-09 0.962433)
(1.07606 -0.00492422 -2.61028e-10 -0.000380356 0.962438 -6.45069e-11 -9.48096e-12 8.70695e-10 0.962379)
(1.07607 -0.00829817 -1.21285e-10 -0.000618325 0.962512 -1.26327e-09 -1.26693e-11 -8.86103e-10 0.962425)
(1.07609 -0.0111686 2.13443e-10 -0.000858497 0.962649 4.33405e-10 -1.24544e-11 -6.22778e-09 0.962454)
(1.0761 -0.0138592 5.23593e-10 -0.00109606 0.962781 2.05138e-09 -2.88097e-11 2.35683e-09 0.962524)
(1.07613 -0.016108 -2.00976e-10 -0.00133295 0.962975 -5.2883e-10 -5.11804e-11 1.19858e-08 0.962573)
(1.07615 -0.0179819 -9.13353e-10 -0.00156312 0.963158 -2.21697e-09 -4.06615e-11 1.73458e-09 0.962663)
(1.07618 -0.0193189 -3.34281e-10 -0.00179252 0.963412 -8.81089e-10 -1.27698e-11 -1.23771e-08 0.96273)
(1.0762 -0.0201705 6.34729e-10 -0.00201083 0.96368 1.16613e-09 -3.11836e-11 -2.09616e-09 0.96284)
(1.07622 -0.0201664 -8.46145e-11 -0.00222909 0.964009 -2.35097e-10 -8.55468e-11 1.18812e-08 0.962931)
(1.07624 -0.019346 -9.32624e-10 -0.00242961 0.9644 -1.27192e-09 -6.50498e-11 -2.54951e-09 0.963065)
(1.07625 -0.0172313 2.97519e-10 -0.002632 0.964873 2.91165e-10 -8.49006e-12 -1.20856e-08 0.963189)
(1.07626 -0.0141813 8.40051e-10 -0.00280746 0.965563 8.67702e-10 -4.53662e-11 2.07919e-09 0.963357)
(1.07626 -0.00964005 -3.33269e-11 -0.00299119 0.966306 -7.77194e-11 -1.12251e-10 1.16671e-08 0.963545)
(1.07625 -0.00425559 -6.222e-10 -0.00313842 0.967119 -9.07569e-10 -1.08869e-10 1.82573e-09 0.963766)
(1.07625 -0.000259985 -3.0107e-10 -0.00333279 0.967535 -2.52692e-10 -4.45953e-11 -3.72923e-09 0.964007)
(1.07605 -0.00267654 -8.18497e-11 -0.000163211 0.962378 -3.03257e-09 -3.48783e-12 -1.27267e-09 0.96239)
(1.07616 -0.00492901 -2.61245e-10 -0.000380504 0.962394 -6.4458e-11 -9.50083e-12 8.71677e-10 0.962336)
(1.07617 -0.00830658 -1.21306e-10 -0.000618603 0.962469 -1.26465e-09 -1.26953e-11 -8.87179e-10 0.962381)
(1.07619 -0.0111796 2.1365e-10 -0.000858979 0.962606 4.33984e-10 -1.24853e-11 -6.23506e-09 0.962411)
(1.0762 -0.0138731 5.23816e-10 -0.00109674 0.962738 2.05386e-09 -2.88702e-11 2.35952e-09 0.962481)
(1.07623 -0.0161233 -2.01143e-10 -0.00133375 0.962932 -5.29371e-10 -5.12688e-11 1.19996e-08 0.96253)
(1.07625 -0.0179985 -9.13737e-10 -0.00156427 0.963115 -2.21954e-09 -4.07396e-11 1.73655e-09 0.96262)
(1.07628 -0.0193366 -3.34717e-10 -0.0017939 0.96337 -8.82013e-10 -1.2817e-11 -1.23915e-08 0.962687)
(1.0763 -0.020189 6.34712e-10 -0.00201261 0.963638 1.16769e-09 -3.12554e-11 -2.09863e-09 0.962797)
(1.07632 -0.0201838 -8.46738e-11 -0.00223105 0.963967 -2.35298e-10 -8.56905e-11 1.18949e-08 0.962889)
(1.07634 -0.0193624 -9.32376e-10 -0.00243125 0.964359 -1.27365e-09 -6.51825e-11 -2.55251e-09 0.963022)
(1.07635 -0.0172468 2.98034e-10 -0.00263362 0.964833 2.91475e-10 -8.53762e-12 -1.20996e-08 0.963147)
(1.07636 -0.0141959 8.39943e-10 -0.00280857 0.965523 8.68917e-10 -4.5447e-11 2.08155e-09 0.963314)
(1.07636 -0.00965057 -3.32718e-11 -0.00299203 0.966265 -7.77736e-11 -1.12437e-10 1.16805e-08 0.963502)
(1.07635 -0.00426023 -6.22149e-10 -0.00313921 0.967078 -9.08605e-10 -1.09082e-10 1.82782e-09 0.963724)
(1.07635 -0.000262735 -3.01228e-10 -0.00333331 0.967495 -2.52988e-10 -4.46926e-11 -3.73363e-09 0.963965)
(1.07615 -0.00267944 -8.18695e-11 -0.000163273 0.962335 -3.03574e-09 -3.49537e-12 -1.27416e-09 0.962346)
(1.07626 -0.0049336 -2.61437e-10 -0.000380986 0.962351 -6.44157e-11 -9.52069e-12 8.72649e-10 0.962292)
(1.07627 -0.0083148 -1.21304e-10 -0.000619331 0.962426 -1.26603e-09 -1.27216e-11 -8.88246e-10 0.962338)
(1.07629 -0.0111899 2.13824e-10 -0.000860152 0.962563 4.34571e-10 -1.25166e-11 -6.24225e-09 0.962367)
(1.0763 -0.0138864 5.23875e-10 -0.00109803 0.962695 2.05629e-09 -2.89306e-11 2.36218e-09 0.962437)
(1.07633 -0.0161383 -2.01306e-10 -0.00133515 0.962889 -5.29915e-10 -5.13571e-11 1.20134e-08 0.962487)
(1.07635 -0.0180149 -9.13993e-10 -0.00156566 0.963073 -2.22207e-09 -4.08179e-11 1.73851e-09 0.962577)
(1.07637 -0.0193542 -3.35197e-10 -0.00179542 0.963327 -8.82949e-10 -1.28644e-11 -1.24058e-08 0.962644)
(1.0764 -0.0202084 6.3421e-10 -0.00201398 0.963597 1.16924e-09 -3.13271e-11 -2.10108e-09 0.962755)
(1.07642 -0.0202019 -8.47552e-11 -0.00223245 0.963925 -2.35499e-10 -8.58355e-11 1.19085e-08 0.962846)
(1.07644 -0.0193784 -9.3205e-10 -0.00243294 0.964317 -1.27534e-09 -6.53154e-11 -2.5555e-09 0.962979)
(1.07645 -0.0172617 2.98584e-10 -0.00263527 0.964791 2.91772e-10 -8.58515e-12 -1.21136e-08 0.963104)
(1.07646 -0.014209 8.39961e-10 -0.00281032 0.965482 8.70174e-10 -4.55279e-11 2.08391e-09 0.963272)
(1.07645 -0.00966015 -3.32123e-11 -0.00299364 0.966225 -7.78294e-11 -1.12623e-10 1.1694e-08 0.96346)
(1.07645 -0.00426464 -6.22208e-10 -0.00314073 0.967038 -9.0958e-10 -1.09294e-10 1.8299e-09 0.963682)
(1.07644 -0.000264752 -3.01394e-10 -0.00333474 0.967455 -2.53277e-10 -4.47902e-11 -3.73802e-09 0.963923)
(1.07625 -0.00268226 -8.19461e-11 -0.000163474 0.962291 -3.03888e-09 -3.50294e-12 -1.27563e-09 0.962303)
(1.07636 -0.00493831 -2.61637e-10 -0.000381381 0.962308 -6.43735e-11 -9.5406e-12 8.73617e-10 0.962249)
(1.07637 -0.0083232 -1.21311e-10 -0.000620013 0.962383 -1.26741e-09 -1.2748e-11 -8.89308e-10 0.962295)
(1.07639 -0.0112012 2.14046e-10 -0.000860943 0.96252 4.35156e-10 -1.25477e-11 -6.24941e-09 0.962325)
(1.0764 -0.0139005 5.24203e-10 -0.00109917 0.962653 2.05875e-09 -2.89912e-11 2.36482e-09 0.962395)
(1.07643 -0.0161532 -2.01464e-10 -0.0013368 0.962847 -5.30453e-10 -5.14459e-11 1.20271e-08 0.962444)
(1.07645 -0.0180309 -9.14297e-10 -0.00156753 0.96303 -2.22467e-09 -4.08965e-11 1.74046e-09 0.962534)
(1.07647 -0.0193713 -3.35667e-10 -0.00179769 0.963285 -8.83839e-10 -1.29123e-11 -1.242e-08 0.962601)
(1.0765 -0.0202262 6.34015e-10 -0.00201636 0.963555 1.17087e-09 -3.13992e-11 -2.10353e-09 0.962712)
(1.07652 -0.020219 -8.48148e-11 -0.00223513 0.963884 -2.35702e-10 -8.59797e-11 1.19221e-08 0.962803)
(1.07654 -0.0193943 -9.31877e-10 -0.00243543 0.964276 -1.27693e-09 -6.54486e-11 -2.55847e-09 0.962937)
(1.07655 -0.0172766 2.99084e-10 -0.00263791 0.964751 2.92101e-10 -8.63359e-12 -1.21275e-08 0.963062)
(1.07655 -0.0142226 8.39958e-10 -0.00281265 0.965442 8.71319e-10 -4.56091e-11 2.08625e-09 0.96323)
(1.07655 -0.00966921 -3.31561e-11 -0.002996 0.966185 -7.78839e-11 -1.12808e-10 1.17074e-08 0.963418)
(1.07654 -0.00426821 -6.22033e-10 -0.0031428 0.966997 -9.1061e-10 -1.09507e-10 1.83197e-09 0.96364)
(1.07654 -0.000266605 -3.0157e-10 -0.00333645 0.967414 -2.53569e-10 -4.4888e-11 -3.7424e-09 0.963881)
(1.07635 -0.00268515 -8.20214e-11 -0.000163649 0.962248 -3.04201e-09 -3.51052e-12 -1.27711e-09 0.96226)
(1.07646 -0.00494279 -2.61827e-10 -0.000382106 0.962265 -6.43257e-11 -9.56051e-12 8.74578e-10 0.962206)
(1.07647 -0.00833128 -1.21303e-10 -0.000621147 0.96234 -1.26875e-09 -1.27746e-11 -8.90361e-10 0.962252)
(1.07649 -0.0112114 2.14218e-10 -0.000862528 0.962478 4.35728e-10 -1.25793e-11 -6.25654e-09 0.962282)
(1.0765 -0.0139138 5.24179e-10 -0.00110105 0.96261 2.06118e-09 -2.90517e-11 2.36745e-09 0.962352)
(1.07653 -0.0161681 -2.01628e-10 -0.00133896 0.962805 -5.30984e-10 -5.15345e-11 1.20406e-08 0.962401)
(1.07655 -0.0180472 -9.14485e-10 -0.00156987 0.962988 -2.22722e-09 -4.09754e-11 1.74239e-09 0.962492)
(1.07657 -0.0193888 -3.36154e-10 -0.00180023 0.963243 -8.84729e-10 -1.29604e-11 -1.24341e-08 0.962559)
(1.07659 -0.0202452 6.33609e-10 -0.0020189 0.963514 1.17248e-09 -3.14713e-11 -2.10596e-09 0.96267)
(1.07662 -0.0202363 -8.48929e-11 -0.00223784 0.963842 -2.35895e-10 -8.61244e-11 1.19355e-08 0.962761)
(1.07663 -0.0194097 -9.31435e-10 -0.00243817 0.964234 -1.27876e-09 -6.55818e-11 -2.56143e-09 0.962895)
(1.07665 -0.0172909 2.99651e-10 -0.00264067 0.964709 2.92346e-10 -8.6821e-12 -1.21413e-08 0.96302)
(1.07665 -0.0142353 8.39857e-10 -0.00281527 0.965401 8.7267e-10 -4.56905e-11 2.08859e-09 0.963188)
(1.07665 -0.00967847 -3.30958e-11 -0.00299853 0.966145 -7.79385e-11 -1.12994e-10 1.17207e-08 0.963376)
(1.07664 -0.00427194 -6.22082e-10 -0.00314509 0.966956 -9.11569e-10 -1.0972e-10 1.83404e-09 0.963598)