/*--------------------------------*- C++ -*----------------------------------*\
| =========                 |                                                 |
| \\      /  F ield         | foam-extend: Open Source CFD                    |
|  \\    /   O peration     | Version:     4.1-20200408                       |
|   \\  /    A nd           | Web:         http://www.foam-extend.org         |
|    \\/     M anipulation  |                                                 |
\*---------------------------------------------------------------------------*/
FoamFile
{
    version     2.0;
    format      ascii;
    class       volTensorField;
    location    "0.0560000";
    object      grad(DU);
}
// * * * * * * * * * * * * * * * * * * * * * * * * * * * * * * * * * * * * * //

dimensions      [0 0 0 0 0 0 0];

internalField   nonuniform List<tensor> 
1952
(
(1.8526e-06 -7.35215e-06 6.40365e-11 9.36662e-08 -7.91864e-06 3.46579e-13 -9.67627e-15 8.10275e-14 -8.59176e-06)
(1.84883e-06 1.37386e-06 4.43906e-11 2.38358e-07 -8.87726e-06 -3.7612e-14 -2.06367e-14 -7.94755e-14 -7.95372e-06)
(1.62653e-06 -1.28191e-05 -4.63375e-11 2.4186e-07 -8.52531e-06 -1.72412e-12 6.29829e-15 1.66564e-14 -8.75501e-06)
(1.62951e-06 -2.074e-06 -1.34357e-10 6.09645e-07 -9.15036e-06 -2.97572e-13 1.32334e-13 -3.04299e-13 -8.17765e-06)
(1.0927e-06 -1.78384e-05 4.06033e-11 7.78472e-07 -9.31346e-06 3.21236e-12 1.53897e-14 -1.61105e-13 -8.8932e-06)
(9.86577e-07 -8.80694e-06 2.03082e-10 1.19001e-06 -9.59727e-06 2.04317e-12 -1.56958e-13 3.05131e-13 -8.48648e-06)
(1.14231e-07 -2.47514e-05 4.805e-11 1.55061e-06 -9.90775e-06 -2.67431e-12 9.21638e-14 -5.96806e-13 -9.06175e-06)
(-2.57434e-07 -1.92017e-05 -1.06413e-10 1.93078e-06 -9.85295e-06 -1.49253e-12 2.81028e-13 -9.18094e-13 -8.76911e-06)
(-1.4667e-06 -3.5484e-05 2.15639e-11 2.62168e-06 -9.93211e-06 3.21987e-12 1.77377e-14 -1.05327e-13 -9.19086e-06)
(-2.29361e-06 -3.30502e-05 1.34626e-10 4.04722e-06 -9.24958e-06 5.89348e-13 -4.69931e-13 6.43328e-13 -8.92653e-06)
(-4.23727e-06 -4.89545e-05 -4.54463e-12 6.38905e-06 -8.62503e-06 -3.11998e-12 4.61907e-14 4.62513e-13 -9.14782e-06)
(-6.1587e-06 -5.19135e-05 -7.91236e-11 1.02824e-05 -6.58753e-06 -6.54842e-14 6.1209e-13 -1.7721e-13 -8.81039e-06)
(-9.41326e-06 -7.00861e-05 1.05715e-11 1.80691e-05 -4.35803e-06 2.90914e-12 2.20697e-14 -2.45173e-14 -8.70989e-06)
(-1.33083e-05 -8.32819e-05 1.22321e-10 3.62078e-05 8.25544e-07 8.59806e-13 -2.7875e-12 -4.35237e-13 -8.1367e-06)
(-1.96956e-05 -0.000109193 3.07211e-11 7.68301e-05 7.08141e-06 -5.29182e-13 -2.53615e-12 -4.86483e-13 -7.4306e-06)
(1.91768e-06 1.67941e-06 1.51597e-11 1.88455e-07 -8.77568e-06 -2.61431e-13 7.01812e-15 -6.96002e-13 -8.11742e-06)
(-1.23968e-07 -1.96413e-06 -3.82094e-16 1.55159e-07 -4.87816e-06 1.18327e-13 -1.43346e-14 2.28351e-14 -5.10393e-06)
(-1.57741e-07 -2.80587e-06 8.0428e-16 4.90531e-07 -5.10453e-06 -1.21164e-13 -4.21596e-14 -1.13017e-13 -4.89116e-06)
(-4.09423e-07 -4.65906e-06 2.65127e-16 4.65979e-07 -4.85909e-06 -8.70464e-13 1.41811e-14 2.99923e-14 -5.09336e-06)
(-4.4299e-07 -5.38981e-06 -1.58044e-15 1.1589e-06 -4.93927e-06 3.11119e-13 2.67316e-13 4.53137e-14 -4.85666e-06)
(-8.31014e-07 -7.6677e-06 1.04614e-18 1.38405e-06 -4.77493e-06 1.64622e-12 2.90858e-14 -7.78599e-14 -5.01337e-06)
(-8.68074e-07 -8.57084e-06 1.072e-15 2.13638e-06 -4.68139e-06 2.2586e-13 -3.40124e-13 -3.0587e-14 -4.79713e-06)
(-1.44544e-06 -1.11457e-05 5.75175e-16 2.71645e-06 -4.42647e-06 -1.67006e-12 1.96657e-13 -2.4939e-13 -4.88746e-06)
(-1.55471e-06 -1.23575e-05 -6.6098e-16 3.50362e-06 -4.11578e-06 -2.71665e-13 6.56879e-13 -2.27286e-13 -4.66295e-06)
(-2.43549e-06 -1.51259e-05 5.7418e-17 4.4972e-06 -3.54152e-06 1.53506e-12 3.89543e-14 -4.36993e-14 -4.67593e-06)
(-2.78411e-06 -1.66397e-05 -8.33157e-16 6.04968e-06 -2.80514e-06 -3.14803e-13 -7.41245e-13 1.98756e-13 -4.39371e-06)
(-3.64746e-06 -1.93637e-05 8.32585e-16 8.28769e-06 -1.89416e-06 -1.44748e-12 -8.76949e-14 2.24123e-13 -4.2958e-06)
(-3.81969e-06 -2.08502e-05 1.57469e-15 1.07135e-05 -7.83431e-07 2.26397e-13 4.67991e-13 -1.44567e-13 -3.939e-06)
(-3.87945e-06 -2.27926e-05 -2.33218e-16 1.38239e-05 3.91087e-07 1.21989e-12 2.8807e-14 -6.85092e-15 -3.72776e-06)
(-2.13056e-06 -2.33312e-05 -1.76314e-15 1.71594e-05 1.21775e-06 1.69325e-13 -3.58904e-13 2.92693e-13 -3.30348e-06)
(3.99872e-06 -2.30297e-05 4.2341e-16 2.17125e-05 -5.56917e-08 -3.56903e-13 -9.03206e-15 3.63754e-14 -3.06577e-06)
(-1.04645e-07 -7.91142e-07 1.05645e-17 3.06495e-07 -5.16278e-06 -1.75552e-13 8.60782e-15 -4.20248e-13 -4.95801e-06)
(-1.75709e-06 -1.74234e-06 -2.78094e-16 1.78224e-07 -3.79624e-06 8.89677e-14 -1.07643e-14 -9.48524e-16 -3.83695e-06)
(-1.84991e-06 -2.63587e-06 6.01507e-16 6.79749e-07 -3.75373e-06 -9.4154e-14 -5.2179e-14 -1.28197e-13 -3.79731e-06)
(-2.12256e-06 -4.08666e-06 2.67158e-16 6.59205e-07 -3.56654e-06 -6.46066e-13 1.68964e-14 3.64958e-14 -3.7802e-06)
(-2.23361e-06 -4.91651e-06 -1.19035e-15 1.35478e-06 -3.44844e-06 2.3567e-13 2.93307e-13 1.75537e-13 -3.67782e-06)
(-2.6149e-06 -6.62759e-06 -1.12337e-16 1.55387e-06 -3.18683e-06 1.19464e-12 3.32665e-14 -4.86725e-14 -3.6381e-06)
(-2.71702e-06 -7.57015e-06 7.91132e-16 2.36361e-06 -2.95126e-06 1.64609e-13 -3.85419e-13 -1.51135e-13 -3.49739e-06)
(-3.23584e-06 -9.46468e-06 5.18849e-16 2.92829e-06 -2.53543e-06 -1.16935e-12 2.29062e-13 -1.25179e-13 -3.42196e-06)
(-3.34242e-06 -1.05713e-05 -3.31947e-16 3.8759e-06 -2.12879e-06 -1.88232e-13 8.02407e-13 1.79568e-14 -3.23119e-06)
(-4.05773e-06 -1.25606e-05 -2.18953e-16 5.00977e-06 -1.43048e-06 1.02019e-12 4.54758e-14 -2.14764e-14 -3.10755e-06)
(-4.25424e-06 -1.36962e-05 -4.22805e-16 6.4971e-06 -7.622e-07 -2.03649e-13 -7.98178e-13 4.24463e-14 -2.8418e-06)
(-4.73377e-06 -1.54789e-05 6.40759e-16 8.60197e-06 5.22383e-08 -8.94398e-13 -1.29612e-13 1.24154e-13 -2.6543e-06)
(-4.48436e-06 -1.63227e-05 9.38764e-16 1.07819e-05 6.97329e-07 1.34208e-13 4.8717e-13 -1.17242e-13 -2.33479e-06)
(-4.09543e-06 -1.73843e-05 -2.28918e-16 1.3771e-05 1.28519e-06 6.93908e-13 2.92997e-14 -1.29338e-15 -2.12041e-06)
(-2.78194e-06 -1.73321e-05 -9.61222e-16 1.65573e-05 1.44975e-06 9.25881e-14 -2.80535e-13 2.54666e-13 -1.8065e-06)
(-2.25508e-07 -1.71931e-05 2.78317e-16 1.83135e-05 7.42242e-07 -1.78975e-13 2.48985e-13 -4.88724e-15 -1.64203e-06)
(-1.75595e-06 -7.19099e-07 7.45563e-18 2.94996e-07 -3.84263e-06 -1.35509e-13 1.2189e-14 -3.19488e-13 -3.82461e-06)
(-3.29465e-06 -1.61199e-06 -1.90802e-16 2.44046e-07 -2.60166e-06 6.10168e-14 -4.31205e-15 -9.36179e-16 -2.63159e-06)
(-3.41777e-06 -2.61017e-06 4.13609e-16 8.72221e-07 -2.48764e-06 -6.46256e-14 -5.27614e-14 -9.58656e-14 -2.60486e-06)
(-3.65332e-06 -3.72691e-06 1.81756e-16 8.56893e-07 -2.31956e-06 -4.34224e-13 1.6889e-14 2.54261e-14 -2.54062e-06)
(-3.79941e-06 -4.7175e-06 -7.98001e-16 1.65983e-06 -2.12478e-06 1.57864e-13 3.21938e-13 1.53444e-13 -2.46292e-06)
(-4.19938e-06 -5.93222e-06 -7.67589e-17 1.86709e-06 -1.82135e-06 7.77924e-13 3.92203e-14 -2.77428e-14 -2.36901e-06)
(-4.3503e-06 -6.95087e-06 5.07364e-16 2.76167e-06 -1.52828e-06 1.05355e-13 -4.27901e-13 -1.22748e-13 -2.23939e-06)
(-4.86739e-06 -8.2166e-06 3.27476e-16 3.34402e-06 -1.06826e-06 -7.22624e-13 2.654e-13 -6.92509e-14 -2.11454e-06)
(-5.00856e-06 -9.22582e-06 -1.96448e-16 4.34097e-06 -6.48595e-07 -1.12369e-13 8.98247e-13 4.67169e-14 -1.9292e-06)
(-5.55855e-06 -1.04383e-05 -1.29401e-16 5.44171e-06 -1.32932e-08 5.80771e-13 5.22303e-14 -8.95624e-15 -1.76902e-06)
(-5.5819e-06 -1.12431e-05 -2.24821e-16 6.73884e-06 5.05848e-07 -1.09358e-13 -8.35947e-13 4.22755e-14 -1.52559e-06)
(-5.75788e-06 -1.21456e-05 3.2865e-16 8.50581e-06 1.11704e-06 -4.50206e-13 -1.85089e-13 7.54843e-14 -1.33603e-06)
(-5.17427e-06 -1.25208e-05 4.29565e-16 9.99143e-06 1.43401e-06 6.14174e-14 4.416e-13 -1.34801e-13 -1.06822e-06)
(-4.2574e-06 -1.28816e-05 -9.98193e-17 1.19501e-05 1.61131e-06 2.93583e-13 2.82339e-14 1.27648e-15 -8.97097e-07)
(-2.20893e-06 -1.264e-05 -3.60694e-16 1.29117e-05 1.08639e-06 3.47227e-14 -8.91145e-14 3.19606e-13 -6.77579e-07)
(1.08958e-06 -1.23527e-05 1.05426e-16 1.35567e-05 -7.76671e-08 -7.44477e-14 2.18085e-13 9.95558e-15 -6.29133e-07)
(-3.27521e-06 -6.86025e-07 5.2988e-18 2.9863e-07 -2.62982e-06 -9.3421e-14 8.72578e-15 -2.19587e-13 -2.6362e-06)
(-4.65957e-06 -1.4156e-06 -1.12831e-16 3.24404e-07 -1.5246e-06 3.60626e-14 1.61112e-15 4.66528e-16 -1.55543e-06)
(-4.77349e-06 -2.30315e-06 2.43565e-16 1.05701e-06 -1.38757e-06 -3.80032e-14 -5.39593e-14 -6.13976e-14 -1.53056e-06)
(-4.98267e-06 -3.22032e-06 1.04987e-16 1.05138e-06 -1.22116e-06 -2.48204e-13 1.6458e-14 1.29108e-14 -1.45221e-06)
(-5.12226e-06 -4.10569e-06 -4.47692e-16 1.92089e-06 -1.00173e-06 8.85109e-14 3.39123e-13 1.04231e-13 -1.38021e-06)
(-5.45328e-06 -5.03473e-06 -4.27956e-17 2.11901e-06 -6.99073e-07 4.17296e-13 4.38432e-14 -1.12322e-14 -1.27079e-06)
(-5.57657e-06 -5.88943e-06 2.6062e-16 3.05101e-06 -4.05668e-07 5.39885e-14 -4.54435e-13 -6.89927e-14 -1.14853e-06)
(-5.95935e-06 -6.77954e-06 1.59754e-16 3.60466e-06 1.88767e-08 -3.46702e-13 2.94022e-13 -3.22297e-14 -1.01443e-06)
(-6.00876e-06 -7.53098e-06 -8.54557e-17 4.58418e-06 3.74749e-07 -4.92095e-14 9.60112e-13 2.44058e-14 -8.45228e-07)
(-6.3127e-06 -8.27685e-06 -5.20413e-17 5.59887e-06 8.71646e-07 2.27109e-13 5.68826e-14 -9.59611e-16 -6.91765e-07)
(-6.14428e-06 -8.76234e-06 -7.13264e-17 6.67877e-06 1.20855e-06 -3.49733e-14 -8.55214e-13 7.17006e-14 -4.87473e-07)
(-6.018e-06 -9.19615e-06 8.2842e-17 8.13338e-06 1.56505e-06 -1.1192e-13 -2.26165e-13 4.16169e-14 -3.3214e-07)
(-5.25236e-06 -9.27258e-06 5.3483e-17 9.1211e-06 1.61133e-06 7.6632e-15 4.24483e-13 -1.45631e-13 -1.32963e-07)
(-4.22465e-06 -9.31802e-06 -2.64166e-18 1.05134e-05 1.50723e-06 7.60476e-15 2.67465e-14 2.22738e-15 -2.32408e-08)
(-2.47294e-06 -9.01451e-06 5.76469e-17 1.06952e-05 9.31824e-07 -5.55671e-15 -4.87325e-14 2.58509e-13 1.08226e-07)
(-1.5925e-07 -8.999e-06 -1.89514e-17 1.05948e-05 5.90147e-08 1.13284e-14 2.38837e-13 1.38495e-15 1.08307e-07)
(-4.62669e-06 -6.04755e-07 3.23497e-18 3.33034e-07 -1.5494e-06 -5.55996e-14 1.15678e-14 -1.30145e-13 -1.56857e-06)
(-5.75014e-06 -1.19135e-06 -4.56053e-17 3.98429e-07 -5.96736e-07 1.45657e-14 5.36298e-15 1.93304e-15 -6.28294e-07)
(-5.8429e-06 -1.93675e-06 9.62767e-17 1.21384e-06 -4.64645e-07 -1.50245e-14 -5.44925e-14 -2.92124e-14 -6.03856e-07)
(-6.01539e-06 -2.67503e-06 3.85573e-17 1.21763e-06 -3.10363e-07 -9.03835e-14 1.5641e-14 1.89765e-15 -5.28861e-07)
(-6.12404e-06 -3.40239e-06 -1.50315e-16 2.14994e-06 -1.03171e-07 2.97387e-14 3.53944e-13 5.15379e-14 -4.62887e-07)
(-6.39107e-06 -4.10148e-06 -1.2474e-17 2.33528e-06 1.74015e-07 1.18057e-13 4.8307e-14 1.39288e-15 -3.59548e-07)
(-6.4651e-06 -4.76368e-06 5.65753e-17 3.28308e-06 4.31348e-07 1.16393e-14 -4.7516e-13 -1.32178e-14 -2.48939e-07)
(-6.73646e-06 -5.37309e-06 2.04042e-17 3.78697e-06 7.91493e-07 -4.37293e-14 3.19569e-13 -7.7986e-15 -1.27863e-07)
(-6.69708e-06 -5.89668e-06 1.86499e-18 4.69595e-06 1.06323e-06 1.1232e-15 9.99903e-13 -1.25572e-14 1.85908e-08)
(-6.81632e-06 -6.33727e-06 1.12645e-17 5.56854e-06 1.42084e-06 -4.81364e-14 6.01792e-14 4.07203e-15 1.46595e-07)
(-6.50144e-06 -6.60995e-06 4.50423e-17 6.39527e-06 1.60445e-06 2.21242e-14 -8.64607e-13 1.03946e-13 3.09252e-07)
(-6.17776e-06 -6.79504e-06 -1.06373e-16 7.51988e-06 1.77033e-06 1.42259e-13 -2.61991e-13 2.20949e-14 4.22107e-07)
(-5.30574e-06 -6.76652e-06 -2.26323e-16 8.01816e-06 1.65411e-06 -3.22946e-14 4.072e-13 -1.51108e-13 5.62244e-07)
(-4.20643e-06 -6.7307e-06 7.15335e-17 8.89836e-06 1.39796e-06 -2.02837e-13 2.4433e-14 2.64699e-15 6.19765e-07)
(-2.56555e-06 -6.52257e-06 3.66755e-16 8.4511e-06 7.82597e-07 -3.52772e-14 -2.87558e-14 2.28241e-13 6.88041e-07)
(-5.70771e-07 -6.53724e-06 -1.12496e-16 8.10329e-06 5.32487e-09 7.09235e-14 2.13946e-13 1.12985e-15 6.46429e-07)
(-5.71694e-06 -5.10339e-07 1.34967e-18 3.71109e-07 -6.21257e-07 -2.27993e-14 1.09461e-14 -5.2884e-14 -6.42952e-07)
(-6.57405e-06 -9.532e-07 9.4931e-18 4.58058e-07 1.5984e-07 -3.03021e-15 7.7429e-15 2.86686e-15 1.3069e-07)
(-6.64005e-06 -1.54468e-06 -2.43761e-17 1.33865e-06 2.77583e-07 3.74114e-15 -5.52296e-14 -2.33031e-15 1.52619e-07)
(-6.77614e-06 -2.11839e-06 -1.60892e-17 1.343e-06 4.15134e-07 3.74796e-14 1.60552e-14 -6.91912e-15 2.19167e-07)
(-6.84026e-06 -2.68104e-06 9.02197e-17 2.31399e-06 5.92821e-07 -1.7706e-14 3.66679e-13 4.80416e-15 2.77531e-07)
(-7.03421e-06 -3.19274e-06 1.301e-17 2.47141e-06 8.30493e-07 -1.20357e-13 5.13837e-14 1.08689e-14 3.66435e-07)
(-7.04004e-06 -3.67534e-06 -1.05053e-16 3.40628e-06 1.03305e-06 -2.18054e-14 -4.93799e-13 3.49664e-14 4.61662e-07)
(-7.19627e-06 -4.07822e-06 -9.03101e-17 3.83869e-06 1.31605e-06 1.91449e-13 3.40408e-13 9.19624e-15 5.6026e-07)
(-7.05965e-06 -4.41877e-06 6.81016e-17 4.65021e-06 1.49571e-06 3.96624e-14 1.02917e-12 -4.93689e-14 6.79977e-07)
(-7.02814e-06 -4.65891e-06 6.04588e-17 5.37197e-06 1.72652e-06 -2.54461e-13 6.20458e-14 7.11775e-15 7.74996e-07)
(-6.61011e-06 -4.79018e-06 1.30183e-16 5.96545e-06 1.78718e-06 6.42288e-14 -8.75436e-13 1.30012e-13 8.96658e-07)
(-6.17356e-06 -4.83946e-06 -2.45438e-16 6.81814e-06 1.81249e-06 3.25875e-13 -2.88478e-13 1.05382e-14 9.66923e-07)
(-5.29352e-06 -4.76528e-06 -4.25753e-16 6.95358e-06 1.6083e-06 -6.07202e-14 4.05254e-13 -1.49042e-13 1.0568e-06)
(-4.26756e-06 -4.70802e-06 1.25097e-16 7.50364e-06 1.29198e-06 -3.50998e-13 2.233e-14 2.75748e-15 1.07245e-06)
(-2.87715e-06 -4.57806e-06 5.84822e-16 6.70664e-06 7.53419e-07 -5.62092e-14 -3.9097e-14 1.8899e-13 1.09638e-06)
(-1.32631e-06 -4.67355e-06 -1.80639e-16 6.238e-06 1.3999e-07 1.14641e-13 1.97753e-13 -4.24535e-16 1.03501e-06)
(-6.54506e-06 -4.08833e-07 -2.56161e-19 4.07987e-07 1.37819e-07 4.10655e-15 1.37478e-14 1.04098e-14 1.16174e-07)
(-7.12723e-06 -7.20938e-07 5.24216e-17 4.99577e-07 7.4539e-07 -1.67146e-14 1.01416e-14 3.32357e-15 7.21031e-07)
(-7.16721e-06 -1.16422e-06 -1.18211e-16 1.42942e-06 8.44626e-07 1.82902e-14 -5.67702e-14 1.88485e-14 7.3886e-07)
(-7.2686e-06 -1.58648e-06 -5.867e-17 1.42524e-06 9.60831e-07 1.35904e-13 1.67143e-14 -1.34145e-14 7.94921e-07)
(-7.2881e-06 -1.99511e-06 2.74538e-16 2.42035e-06 1.10219e-06 -5.39845e-14 3.79898e-13 -3.25705e-14 8.43608e-07)
(-7.42105e-06 -2.34928e-06 3.30125e-17 2.54012e-06 1.29743e-06 -3.00548e-13 5.31237e-14 1.7628e-14 9.15099e-07)
(-7.3649e-06 -2.67931e-06 -2.26392e-16 3.44584e-06 1.44241e-06 -4.6833e-14 -5.12483e-13 7.25445e-14 9.93533e-07)
(-7.43518e-06 -2.92768e-06 -1.73248e-16 3.79702e-06 1.655e-06 3.64806e-13 3.58337e-13 2.04091e-14 1.06745e-06)
(-7.22541e-06 -3.13492e-06 1.15993e-16 4.49894e-06 1.75542e-06 6.77298e-14 1.05421e-12 -7.97738e-14 1.16161e-06)
(-7.09819e-06 -3.24901e-06 9.65116e-17 5.0708e-06 1.88935e-06 -4.02201e-13 6.30077e-14 8.85406e-15 1.22494e-06)
(-6.62358e-06 -3.30172e-06 1.90202e-16 5.45072e-06 1.86572e-06 9.40292e-14 -8.88779e-13 1.48471e-13 1.31233e-06)
(-6.14058e-06 -3.29069e-06 -3.43749e-16 6.0751e-06 1.80359e-06 4.54086e-13 -3.09263e-13 4.7494e-15 1.3473e-06)
(-5.29292e-06 -3.22243e-06 -5.64577e-16 5.92316e-06 1.563e-06 -8.04523e-14 4.10642e-13 -1.44792e-13 1.4001e-06)
(-4.35995e-06 -3.18285e-06 1.62996e-16 6.24279e-06 1.23305e-06 -4.53702e-13 1.99964e-14 2.79285e-15 1.38622e-06)
(-3.17048e-06 -3.12606e-06 7.37565e-16 5.22323e-06 7.708e-07 -7.0835e-14 -5.83985e-14 1.61648e-13 1.38169e-06)
(-1.91446e-06 -3.24409e-06 -2.29479e-16 4.74926e-06 2.67035e-07 1.44857e-13 1.78113e-13 -2.74672e-16 1.30911e-06)
(-7.10498e-06 -3.09555e-07 -1.5452e-18 4.37491e-07 7.27634e-07 2.50772e-14 1.66671e-14 5.96752e-14 7.07708e-07)
(-7.43694e-06 -5.05254e-07 8.37991e-17 5.24307e-07 1.17045e-06 -2.66904e-14 1.04347e-14 3.47011e-15 1.15145e-06)
(-7.4548e-06 -8.13053e-07 -1.86607e-16 1.49062e-06 1.25151e-06 2.88665e-14 -5.93149e-14 3.44514e-14 1.16483e-06)
(-7.52787e-06 -1.1005e-06 -8.96537e-17 1.468e-06 1.347e-06 2.06994e-13 1.77088e-14 -1.79214e-14 1.21073e-06)
(-7.50856e-06 -1.37519e-06 4.07214e-16 2.47421e-06 1.45263e-06 -8.00287e-14 3.94351e-13 -6.06524e-14 1.24994e-06)
(-7.59378e-06 -1.59922e-06 4.75214e-17 2.5477e-06 1.60943e-06 -4.28435e-13 5.41829e-14 2.21518e-14 1.30447e-06)
(-7.48701e-06 -1.80732e-06 -3.12014e-16 3.41364e-06 1.70207e-06 -6.44286e-14 -5.33581e-13 1.0032e-13 1.36754e-06)
(-7.4965e-06 -1.94068e-06 -2.31312e-16 3.68086e-06 1.85695e-06 4.84789e-13 3.73774e-13 2.70906e-14 1.41843e-06)
(-7.2373e-06 -2.05426e-06 1.48547e-16 4.27398e-06 1.89483e-06 8.69259e-14 1.07952e-12 -1.03656e-13 1.49096e-06)
(-7.05708e-06 -2.08775e-06 1.21237e-16 4.71167e-06 1.95987e-06 -5.01407e-13 6.34569e-14 9.6857e-15 1.52704e-06)
(-6.56538e-06 -2.09801e-06 2.29951e-16 4.91063e-06 1.88411e-06 1.13802e-13 -9.0769e-13 1.60832e-13 1.58806e-06)
(-6.08682e-06 -2.06119e-06 -4.08965e-16 5.35877e-06 1.7734e-06 5.37941e-13 -3.25082e-13 2.67119e-15 1.59605e-06)
(-5.30808e-06 -2.01235e-06 -6.55228e-16 4.99589e-06 1.53131e-06 -9.32857e-14 4.23558e-13 -1.39252e-13 1.62339e-06)
(-4.49834e-06 -1.9968e-06 1.88211e-16 5.16987e-06 1.21732e-06 -5.20632e-13 1.81505e-14 2.80856e-15 1.59067e-06)
(-3.50461e-06 -1.99582e-06 8.38839e-16 4.02275e-06 8.40443e-07 -8.04941e-14 -8.32304e-14 1.39633e-13 1.5701e-06)
(-2.50644e-06 -2.13596e-06 -2.62909e-16 3.58564e-06 4.32695e-07 1.65241e-13 1.6161e-13 6.81053e-17 1.49511e-06)
(-7.42112e-06 -2.17164e-07 -2.50121e-18 4.59512e-07 1.15738e-06 4.03896e-14 1.29063e-14 9.5613e-14 1.13953e-06)
(-7.52903e-06 -3.12102e-07 1.04661e-16 5.35435e-07 1.45066e-06 -3.32971e-14 1.00134e-14 3.43127e-15 1.43656e-06)
(-7.53066e-06 -5.00122e-07 -2.31928e-16 1.52877e-06 1.51573e-06 3.58493e-14 -6.15977e-14 4.49584e-14 1.44589e-06)
(-7.58394e-06 -6.70109e-07 -1.10096e-16 1.48044e-06 1.5937e-06 2.53526e-13 2.04112e-14 -2.07514e-14 1.48286e-06)
(-7.53642e-06 -8.31168e-07 4.93755e-16 2.49046e-06 1.66834e-06 -9.69565e-14 4.10026e-13 -8.01156e-14 1.51399e-06)
(-7.59199e-06 -9.48293e-07 5.70352e-17 2.51381e-06 1.79536e-06 -5.10311e-13 5.45795e-14 2.48325e-14 1.55373e-06)
(-7.45257e-06 -1.06088e-06 -3.66565e-16 3.33646e-06 1.84607e-06 -7.55823e-14 -5.56751e-13 1.19551e-13 1.60468e-06)
(-7.43042e-06 -1.10862e-06 -2.67997e-16 3.52343e-06 1.96025e-06 5.59299e-13 3.87369e-13 3.00147e-14 1.63636e-06)
(-7.14925e-06 -1.15859e-06 1.68418e-16 4.01475e-06 1.9553e-06 9.87093e-14 1.10674e-12 -1.21693e-13 1.69308e-06)
(-6.95447e-06 -1.142e-06 1.36503e-16 4.33682e-06 1.9783e-06 -5.6091e-13 6.34679e-14 9.90074e-15 1.70822e-06)
(-6.47724e-06 -1.13408e-06 2.53642e-16 4.3838e-06 1.87769e-06 1.25539e-13 -9.30419e-13 1.69108e-13 1.75167e-06)
(-6.03626e-06 -1.09166e-06 -4.47619e-16 4.6967e-06 1.74744e-06 5.8695e-13 -3.3787e-13 3.12851e-15 1.74139e-06)
(-5.3416e-06 -1.06933e-06 -7.08694e-16 4.17604e-06 1.52476e-06 -1.00788e-13 4.40145e-13 -1.34331e-13 1.75393e-06)
(-4.65491e-06 -1.07847e-06 2.03148e-16 4.25845e-06 1.23913e-06 -5.60161e-13 1.63515e-14 2.84024e-15 1.71139e-06)
(-3.82769e-06 -1.11939e-06 9.00522e-16 3.03688e-06 9.38879e-07 -8.63444e-14 -1.08802e-13 1.2413e-13 1.68421e-06)
(-3.02872e-06 -1.26812e-06 -2.84114e-16 2.66069e-06 6.02034e-07 1.77762e-13 1.46964e-13 9.01367e-16 1.61218e-06)
(-7.51834e-06 -1.34351e-07 -3.14387e-18 4.74796e-07 1.44181e-06 5.05535e-14 1.60588e-14 1.19436e-13 1.42605e-06)
(-7.43462e-06 -1.43239e-07 1.16227e-16 5.37657e-07 1.60401e-06 -3.69337e-14 9.12846e-15 3.31422e-15 1.59355e-06)
(-7.42689e-06 -2.27732e-07 -2.56994e-16 1.55293e-06 1.65663e-06 3.96782e-14 -6.4515e-14 5.09535e-14 1.59984e-06)
(-7.47024e-06 -2.97367e-07 -1.21322e-16 1.47391e-06 1.72245e-06 2.78643e-13 2.28345e-14 -2.22329e-14 1.62971e-06)
(-7.40665e-06 -3.64157e-07 5.40345e-16 2.48495e-06 1.77306e-06 -1.06012e-13 4.28055e-13 -9.21311e-14 1.65521e-06)
(-7.45046e-06 -3.94189e-07 6.2148e-17 2.45741e-06 1.88106e-06 -5.52854e-13 5.52766e-14 2.60254e-14 1.68322e-06)
(-7.2968e-06 -4.33244e-07 -3.94813e-16 3.23808e-06 1.90193e-06 -8.13027e-14 -5.82267e-13 1.31883e-13 1.72635e-06)
(-7.26855e-06 -4.1666e-07 -2.86321e-16 3.35238e-06 1.99239e-06 5.95931e-13 4.00251e-13 2.98671e-14 1.74345e-06)
(-6.98983e-06 -4.24044e-07 1.77942e-16 3.75279e-06 1.96292e-06 1.04407e-13 1.13681e-12 -1.35238e-13 1.79074e-06)
(-6.81037e-06 -3.75488e-07 1.43556e-16 3.97965e-06 1.96601e-06 -5.88244e-13 6.32995e-14 9.68419e-15 1.79141e-06)
(-6.37228e-06 -3.62334e-07 2.6465e-16 3.90172e-06 1.86178e-06 1.30844e-13 -9.5698e-13 1.74829e-13 1.82554e-06)
(-5.99205e-06 -3.22443e-07 -4.64431e-16 4.11397e-06 1.73224e-06 6.08345e-13 -3.48392e-13 5.29014e-15 1.8048e-06)
(-5.39189e-06 -3.25813e-07 -7.32784e-16 3.4758e-06 1.54231e-06 -1.0409e-13 4.58965e-13 -1.30346e-13 1.8114e-06)
(-4.82756e-06 -3.56189e-07 2.09761e-16 3.50302e-06 1.29123e-06 -5.7817e-13 1.49005e-14 2.89463e-15 1.76637e-06)
(-4.14709e-06 -4.28567e-07 9.30997e-16 2.23784e-06 1.06052e-06 -8.91973e-14 -1.33564e-13 1.13172e-13 1.73983e-06)
(-3.51187e-06 -5.83435e-07 -2.95643e-16 1.92755e-06 7.7896e-07 1.84212e-13 1.35062e-13 1.92347e-15 1.67517e-06)
(-7.4271e-06 -6.1901e-08 -3.51285e-18 4.85619e-07 1.59822e-06 5.61713e-14 1.9288e-14 1.32573e-13 1.58433e-06)
(-7.18026e-06 2.16019e-09 1.19723e-16 5.36062e-07 1.64801e-06 -3.79977e-14 8.06304e-15 3.18455e-15 1.63955e-06)
(-7.17023e-06 5.99207e-09 -2.64424e-16 1.57219e-06 1.69213e-06 4.07837e-14 -6.68427e-14 5.30387e-14 1.64408e-06)
(-7.21387e-06 2.13155e-08 -1.24408e-16 1.46076e-06 1.75215e-06 2.85348e-13 2.53647e-14 -2.26342e-14 1.66885e-06)
(-7.14674e-06 3.22036e-08 5.52796e-16 2.47419e-06 1.78637e-06 -1.08352e-13 4.46776e-13 -9.78678e-14 1.69164e-06)
(-7.19651e-06 7.3312e-08 6.3249e-17 2.39864e-06 1.88694e-06 -5.62062e-13 5.53583e-14 2.6012e-14 1.71121e-06)
(-7.04677e-06 9.08166e-08 -4.00949e-16 3.14209e-06 1.89019e-06 -8.24717e-14 -6.09096e-13 1.38826e-13 1.75128e-06)
(-7.03572e-06 1.56566e-07 -2.88856e-16 3.19404e-06 1.97316e-06 6.0111e-13 4.12771e-13 2.71078e-14 1.75853e-06)
(-6.78129e-06 1.77362e-07 1.7903e-16 3.51533e-06 1.93565e-06 1.05118e-13 1.16898e-12 -1.45691e-13 1.80284e-06)
(-6.64117e-06 2.46764e-07 1.43762e-16 3.66609e-06 1.93716e-06 -5.89488e-13 6.33487e-14 9.152e-15 1.79515e-06)
(-6.26107e-06 2.57824e-07 2.65453e-16 3.4851e-06 1.84589e-06 1.30994e-13 -9.84947e-13 1.79412e-13 1.82753e-06)
(-5.95648e-06 2.91682e-07 -4.63942e-16 3.62233e-06 1.73112e-06 6.07791e-13 -3.57887e-13 8.70821e-15 1.80309e-06)
(-5.45508e-06 2.6476e-07 -7.33497e-16 2.89375e-06 1.58205e-06 -1.04078e-13 4.78122e-13 -1.2774e-13 1.8112e-06)
(-5.00693e-06 2.16662e-07 2.1008e-16 2.88675e-06 1.36693e-06 -5.79218e-13 1.38218e-14 2.97146e-15 1.76952e-06)
(-4.45381e-06 1.2037e-07 9.36818e-16 1.59281e-06 1.19763e-06 -8.96821e-14 -1.55792e-13 1.06045e-13 1.74926e-06)
(-3.9514e-06 -3.80108e-08 -2.99538e-16 1.34359e-06 9.57195e-07 1.85818e-13 1.25514e-13 3.1355e-15 1.69517e-06)
(-7.17374e-06 5.06405e-10 -3.62517e-18 4.9436e-07 1.64377e-06 5.78479e-14 1.91489e-14 1.36451e-13 1.63143e-06)
(-6.78967e-06 1.26348e-07 1.16292e-16 5.35849e-07 1.59889e-06 -3.68614e-14 5.93486e-15 3.0868e-15 1.5906e-06)
(-6.78423e-06 2.05051e-07 -2.56746e-16 1.59627e-06 1.63856e-06 3.95662e-14 -7.0857e-14 5.17821e-14 1.59478e-06)
(-6.83803e-06 2.92048e-07 -1.2053e-16 1.45328e-06 1.69943e-06 2.76403e-13 2.79559e-14 -2.21783e-14 1.61646e-06)
(-6.77932e-06 3.66797e-07 5.36343e-16 2.4744e-06 1.72483e-06 -1.05023e-13 4.67147e-13 -9.84146e-14 1.63964e-06)
(-6.85125e-06 4.665e-07 6.10092e-17 2.35618e-06 1.82926e-06 -5.43279e-13 5.57884e-14 2.50216e-14 1.65398e-06)
(-6.72197e-06 5.27714e-07 -3.88625e-16 3.06978e-06 1.82624e-06 -7.98552e-14 -6.37183e-13 1.41624e-13 1.69574e-06)
(-6.74798e-06 6.3223e-07 -2.7866e-16 3.07104e-06 1.91608e-06 5.8029e-13 4.25874e-13 2.21541e-14 1.69756e-06)
(-6.53649e-06 6.71759e-07 1.73303e-16 3.32498e-06 1.88467e-06 1.01747e-13 1.20335e-12 -1.54067e-13 1.74489e-06)
(-6.45458e-06 7.55887e-07 1.38672e-16 3.41692e-06 1.89918e-06 -5.69519e-13 6.36872e-14 8.38411e-15 1.73429e-06)
(-6.1474e-06 7.6151e-07 2.57936e-16 3.15007e-06 1.83384e-06 1.26985e-13 -1.01378e-12 1.83548e-13 1.77152e-06)
(-5.92892e-06 7.88858e-07 -4.49903e-16 3.23106e-06 1.74368e-06 5.89609e-13 -3.6683e-13 1.30395e-14 1.74908e-06)
(-5.52919e-06 7.41356e-07 -7.15494e-16 2.42929e-06 1.64092e-06 -1.0141e-13 4.96503e-13 -1.26386e-13 1.76481e-06)
(-5.1919e-06 6.78469e-07 2.05391e-16 2.39853e-06 1.46174e-06 -5.66701e-13 1.2887e-14 3.06941e-15 1.73124e-06)
(-4.75171e-06 5.62989e-07 9.22802e-16 1.07943e-06 1.34739e-06 -8.82708e-14 -1.75042e-13 1.01763e-13 1.7217e-06)
(-4.36e-06 4.00783e-07 -2.97324e-16 8.79167e-07 1.13787e-06 1.83563e-13 1.18569e-13 4.47539e-15 1.68083e-06)
(-6.78198e-06 5.38256e-08 -3.51014e-18 5.03794e-07 1.59453e-06 5.61506e-14 1.89922e-14 1.32407e-13 1.58341e-06)
(-6.28049e-06 2.32273e-07 1.06928e-16 5.41953e-07 1.47058e-06 -3.38486e-14 5.2719e-15 3.04227e-15 1.46066e-06)
(-6.28594e-06 3.74471e-07 -2.36263e-16 1.63378e-06 1.50955e-06 3.63712e-14 -7.39607e-14 4.76849e-14 1.46588e-06)
(-6.35929e-06 5.22213e-07 -1.1085e-16 1.4629e-06 1.57785e-06 2.5416e-13 3.05198e-14 -2.1039e-14 1.48631e-06)
(-6.31983e-06 6.49736e-07 4.95368e-16 2.49993e-06 1.60126e-06 -9.69048e-14 4.8837e-13 -9.47477e-14 1.51293e-06)
(-6.4288e-06 7.98605e-07 5.60748e-17 2.34694e-06 1.72015e-06 -5.00895e-13 5.68856e-14 2.32252e-14 1.5249e-06)
(-6.33473e-06 8.93993e-07 -3.60822e-16 3.03942e-06 1.72087e-06 -7.40739e-14 -6.65473e-13 1.41378e-13 1.57291e-06)
(-6.41513e-06 1.03045e-06 -2.57935e-16 3.00271e-06 1.83024e-06 5.37783e-13 4.39884e-13 1.52402e-14 1.57315e-06)
(-6.26272e-06 1.08247e-06 1.61871e-16 3.20004e-06 1.81689e-06 9.50012e-14 1.23846e-12 -1.6142e-13 1.62906e-06)
(-6.25444e-06 1.17819e-06 1.29201e-16 3.24832e-06 1.85616e-06 -5.32052e-13 6.43268e-14 7.41973e-15 1.62015e-06)
(-6.03254e-06 1.17683e-06 2.43545e-16 2.90837e-06 1.82722e-06 1.19569e-13 -1.04099e-12 1.87964e-13 1.66801e-06)
(-5.90804e-06 1.19829e-06 -4.24615e-16 2.94564e-06 1.76875e-06 5.57008e-13 -3.7576e-13 1.81666e-14 1.6523e-06)
(-5.61237e-06 1.13264e-06 -6.82211e-16 2.08045e-06 1.71651e-06 -9.65793e-14 5.12749e-13 -1.26289e-13 1.68078e-06)
(-5.38146e-06 1.0569e-06 1.96532e-16 2.02784e-06 1.57251e-06 -5.43136e-13 1.23572e-14 3.18511e-15 1.6592e-06)
(-5.04345e-06 9.24908e-07 8.92605e-16 6.79943e-07 1.50824e-06 -8.53168e-14 -1.90528e-13 9.97196e-14 1.66404e-06)
(-4.74585e-06 7.57557e-07 -2.90157e-16 5.11004e-07 1.32162e-06 1.78166e-13 1.14058e-13 5.9367e-15 1.63861e-06)
(-6.26953e-06 9.93119e-08 -3.21976e-18 5.16379e-07 1.46445e-06 5.15739e-14 1.87882e-14 1.21606e-13 1.45421e-06)
(-5.6658e-06 3.22797e-07 9.24781e-17 5.58885e-07 1.27489e-06 -2.92348e-14 6.27994e-15 3.06234e-15 1.26161e-06)
(-5.68784e-06 5.19051e-07 -2.04777e-16 1.69332e-06 1.31648e-06 3.14913e-14 -7.7075e-14 4.11808e-14 1.2692e-06)
(-5.78943e-06 7.18668e-07 -9.61644e-17 1.50025e-06 1.3984e-06 2.20597e-13 3.25531e-14 -1.93538e-14 1.28996e-06)
(-5.77892e-06 8.90223e-07 4.33582e-16 2.56448e-06 1.42575e-06 -8.4731e-14 5.10952e-13 -8.77054e-14 1.32296e-06)
(-5.93829e-06 1.08123e-06 4.88137e-17 2.38634e-06 1.56877e-06 -4.38523e-13 5.86851e-14 2.07528e-14 1.33497e-06)
(-5.89259e-06 1.20391e-06 -3.19966e-16 3.06777e-06 1.58183e-06 -6.56302e-14 -6.93174e-13 1.38942e-13 1.39347e-06)
(-6.04245e-06 1.36793e-06 -2.28245e-16 3.00629e-06 1.72161e-06 4.77029e-13 4.55298e-13 6.55811e-15 1.39539e-06)
(-5.96341e-06 1.42865e-06 1.45617e-16 3.15674e-06 1.73653e-06 8.54336e-14 1.27447e-12 -1.68437e-13 1.46482e-06)
(-6.04182e-06 1.5346e-06 1.16096e-16 3.17461e-06 1.81008e-06 -4.79966e-13 6.5502e-14 6.28664e-15 1.4615e-06)
(-5.91641e-06 1.52603e-06 2.23326e-16 2.77049e-06 1.8264e-06 1.09319e-13 -1.06636e-12 1.92929e-13 1.52499e-06)
(-5.89284e-06 1.54257e-06 -3.90127e-16 2.77192e-06 1.80504e-06 5.12427e-13 -3.84872e-13 2.39744e-14 1.52e-06)
(-5.70466e-06 1.46081e-06 -6.36118e-16 1.84692e-06 1.8072e-06 -8.99553e-14 5.26151e-13 -1.27214e-13 1.56556e-06)
(-5.57792e-06 1.37308e-06 1.84427e-16 1.76845e-06 1.69788e-06 -5.10445e-13 1.19932e-14 3.31852e-15 1.5593e-06)
(-5.33549e-06 1.22567e-06 8.49106e-16 3.8205e-07 1.68061e-06 -8.10932e-14 -2.02119e-13 9.93164e-14 1.58162e-06)
(-5.12094e-06 1.05055e-06 -2.78985e-16 2.22701e-07 1.51122e-06 1.70193e-13 1.12314e-13 7.52584e-15 1.57367e-06)
(-5.64963e-06 1.38189e-07 -2.77196e-18 5.34684e-07 1.26541e-06 4.45394e-14 1.849e-14 1.05039e-13 1.25576e-06)
(-4.95351e-06 4.00453e-07 7.36465e-17 5.90757e-07 1.02155e-06 -2.32503e-14 6.89096e-15 3.1445e-15 1.00337e-06)
(-4.99709e-06 6.42983e-07 -1.63811e-16 1.78214e-06 1.06852e-06 2.51692e-14 -8.10063e-14 3.26316e-14 1.01452e-06)
(-5.13497e-06 8.87399e-07 -7.71912e-17 1.57485e-06 1.16973e-06 1.77334e-13 3.44777e-14 -1.72239e-14 1.03691e-06)
(-5.16187e-06 1.09599e-06 3.53973e-16 2.6796e-06 1.20585e-06 -6.90946e-14 5.33619e-13 -7.79825e-14 1.07898e-06)
(-5.38382e-06 1.32413e-06 3.96702e-17 2.488e-06 1.38162e-06 -3.59036e-13 6.08834e-14 1.7698e-14 1.09295e-06)
(-5.39816e-06 1.46887e-06 -2.6794e-16 3.16898e-06 1.41421e-06 -5.49181e-14 -7.19814e-13 1.34999e-13 1.1658e-06)
(-5.63099e-06 1.65804e-06 -1.91235e-16 3.09678e-06 1.59377e-06 4.00669e-13 4.72605e-13 -3.78542e-15 1.17199e-06)
(-5.63836e-06 1.72477e-06 1.25316e-16 3.20891e-06 1.64569e-06 7.34626e-14 1.30985e-12 -1.75715e-13 1.25939e-06)
(-5.81533e-06 1.84095e-06 1.0011e-16 3.20818e-06 1.7614e-06 -4.15389e-13 6.7204e-14 4.99441e-15 1.26483e-06)
(-5.79735e-06 1.82507e-06 1.98075e-16 2.74597e-06 1.83093e-06 9.66537e-14 -1.08764e-12 1.98675e-13 1.34831e-06)
(-5.88198e-06 1.83789e-06 -3.48015e-16 2.71551e-06 1.85121e-06 4.57624e-13 -3.94591e-13 3.04445e-14 1.35738e-06)
(-5.8064e-06 1.74111e-06 -5.79142e-16 1.73035e-06 1.91197e-06 -8.18057e-14 5.35725e-13 -1.28985e-13 1.42379e-06)
(-5.78439e-06 1.6415e-06 1.69524e-16 1.61689e-06 1.83745e-06 -4.70021e-13 1.17981e-14 3.46944e-15 1.43577e-06)
(-5.63498e-06 1.47843e-06 7.94339e-16 1.78594e-07 1.86598e-06 -7.58019e-14 -2.08976e-13 1.00095e-13 1.47836e-06)
(-5.49726e-06 1.29211e-06 -2.64461e-16 3.155e-09 1.71007e-06 1.60066e-13 1.13049e-13 9.26097e-15 1.4899e-06)
(-4.93034e-06 1.71541e-07 -2.18844e-18 5.60853e-07 1.0073e-06 3.53989e-14 1.80606e-14 8.35337e-14 9.97982e-07)
(-4.14785e-06 4.66866e-07 5.10269e-17 6.41109e-07 7.18687e-07 -1.60873e-14 8.38012e-15 3.28626e-15 6.94247e-07)
(-4.21722e-06 7.48973e-07 -1.14731e-16 1.90737e-06 7.73176e-07 1.76076e-14 -8.39662e-14 2.23541e-14 7.10006e-07)