/*--------------------------------*- C++ -*----------------------------------*\
| =========                 |                                                 |
| \\      /  F ield         | foam-extend: Open Source CFD                    |
|  \\    /   O peration     | Version:     4.1-20200408                       |
|   \\  /    A nd           | Web:         http://www.foam-extend.org         |
|    \\/     M anipulation  |                                                 |
\*---------------------------------------------------------------------------*/
FoamFile
{
    version     2.0;
    format      ascii;
    class       pointVectorField;
    location    "0.0560000";
    object      pointDU;
}
// * * * * * * * * * * * * * * * * * * * * * * * * * * * * * * * * * * * * * //

dimensions      [0 1 0 0 0 0 0];

internalField   nonuniform List<vector> 
4059
(
(0 8.32121e-18 -2.17742e-16)
(0 -1.53672e-14 6.57564e-16)
(0 -2.32821e-08 1.01652e-09)
(0 8.33812e-18 -2.18171e-16)
(0 -1.53672e-14 -8.88833e-16)
(0 -2.32821e-08 -1.01652e-09)
(0 1.46204e-14 -6.51724e-16)
(0 5.42282e-15 -2.50149e-16)
(0 3.05281e-15 -1.46672e-16)
(0 1.78231e-15 -9.12002e-17)
(0 9.62109e-16 -5.53901e-17)
(0 3.26356e-16 -2.76327e-17)
(0 -1.67398e-16 -6.07411e-18)
(0 -5.53957e-16 1.08039e-17)
(0 -8.81702e-16 2.51122e-17)
(0 -1.05762e-15 3.27929e-17)
(0 -1.22402e-15 4.00595e-17)
(0 -1.15782e-15 3.71688e-17)
(0 -1.14281e-15 3.65124e-17)
(0 -8.25917e-16 2.26767e-17)
(0 -7.86133e-16 2.09403e-17)
(0 -2.18983e-08 9.561e-10)
(0 -2.05238e-08 8.96089e-10)
(0 -1.9153e-08 8.36237e-10)
(0 -1.775e-08 7.74982e-10)
(0 -1.63252e-08 7.12774e-10)
(0 -1.48866e-08 6.49964e-10)
(0 -1.34392e-08 5.86769e-10)
(0 -1.19865e-08 5.23341e-10)
(0 -1.05164e-08 4.59155e-10)
(0 -9.03443e-09 3.94452e-10)
(0 -7.54344e-09 3.29353e-10)
(0 -6.04371e-09 2.63874e-10)
(0 -4.53737e-09 1.98106e-10)
(0 -3.02967e-09 1.32278e-10)
(0 -1.51672e-09 6.62216e-11)
(0 1.46204e-14 4.20458e-16)
(0 5.42282e-15 1.88812e-17)
(0 3.05281e-15 -8.45958e-17)
(0 1.78231e-15 -1.40067e-16)
(0 9.62109e-16 -1.75879e-16)
(0 3.26356e-16 -2.03636e-16)
(0 -1.67398e-16 -2.25193e-16)
(0 -5.53957e-16 -2.4207e-16)
(0 -8.81702e-16 -2.56381e-16)
(0 -1.05762e-15 -2.64063e-16)
(0 -1.22402e-15 -2.71326e-16)
(0 -1.15782e-15 -2.68436e-16)
(0 -1.14281e-15 -2.67782e-16)
(0 -8.25917e-16 -2.53946e-16)
(0 -7.86133e-16 -2.52208e-16)
(0 -2.18983e-08 -9.56103e-10)
(0 -2.05238e-08 -8.96091e-10)
(0 -1.9153e-08 -8.3624e-10)
(0 -1.775e-08 -7.74985e-10)
(0 -1.63252e-08 -7.12776e-10)
(0 -1.48866e-08 -6.49966e-10)
(0 -1.34392e-08 -5.86771e-10)
(0 -1.19865e-08 -5.23342e-10)
(0 -1.05164e-08 -4.59156e-10)
(0 -9.03443e-09 -3.94453e-10)
(0 -7.54344e-09 -3.29355e-10)
(0 -6.04371e-09 -2.63875e-10)
(0 -4.53737e-09 -1.98106e-10)
(0 -3.02967e-09 -1.32279e-10)
(0 -1.51672e-09 -6.6222e-11)
(4.99997e-05 -3.9778e-10 1.73674e-11)
(4.99997e-05 -3.9778e-10 -1.73677e-11)
(4.99997e-05 -2.01121e-10 -8.78136e-12)
(4.99997e-05 -2.01121e-10 8.78109e-12)
(4.99997e-05 -5.97275e-10 2.60776e-11)
(4.99997e-05 -5.97275e-10 -2.60779e-11)
(4.99997e-05 -7.87997e-10 3.44047e-11)
(4.99997e-05 -7.87997e-10 -3.4405e-11)
(4.99998e-05 -9.7628e-10 4.26253e-11)
(4.99998e-05 -9.7628e-10 -4.26256e-11)
(4.99999e-05 -1.15406e-09 5.03872e-11)
(4.99999e-05 -1.15406e-09 -5.03875e-11)
(5e-05 -1.3231e-09 5.7768e-11)
(5e-05 -1.3231e-09 -5.77684e-11)
(5.00001e-05 -1.47454e-09 6.43797e-11)
(5.00001e-05 -1.47454e-09 -6.43801e-11)
(5.00003e-05 -1.60807e-09 7.021e-11)
(5.00003e-05 -1.60807e-09 -7.02105e-11)
(5.00005e-05 -1.70819e-09 7.45813e-11)
(5.00005e-05 -1.70819e-09 -7.45818e-11)
(5.00008e-05 -1.77751e-09 7.76076e-11)
(5.00008e-05 -1.77751e-09 -7.76081e-11)
(5.00011e-05 -1.8048e-09 7.87991e-11)
(5.00011e-05 -1.8048e-09 -7.87996e-11)
(5.00016e-05 -1.79545e-09 7.8391e-11)
(5.00016e-05 -1.79545e-09 -7.83914e-11)
(5.00023e-05 -1.74532e-09 7.62022e-11)
(5.00023e-05 -1.74532e-09 -7.62026e-11)
(5.00031e-05 -1.67999e-09 7.33499e-11)
(5.00031e-05 -1.67999e-09 -7.33504e-11)
(5.0004e-05 -1.66089e-09 7.2516e-11)
(5.0004e-05 -1.66089e-09 -7.25165e-11)
(4.99997e-05 8.79543e-18 -2.30151e-16)
(4.99998e-05 -2.91659e-10 1.27341e-11)
(4.99998e-05 -2.91659e-10 -1.27344e-11)
(4.99998e-05 -1.46633e-10 -6.40236e-12)
(4.99998e-05 -1.46633e-10 6.4021e-12)
(4.99998e-05 -4.32801e-10 1.88965e-11)
(4.99998e-05 -4.32801e-10 -1.88968e-11)
(4.99998e-05 -5.6562e-10 2.46955e-11)
(4.99998e-05 -5.6562e-10 -2.46958e-11)
(4.99999e-05 -6.90464e-10 3.01463e-11)
(4.99999e-05 -6.90464e-10 -3.01466e-11)
(5e-05 -8.01249e-10 3.49833e-11)
(5e-05 -8.01249e-10 -3.49836e-11)
(5.00001e-05 -8.98757e-10 3.92406e-11)
(5.00001e-05 -8.98757e-10 -3.92409e-11)
(5.00002e-05 -9.74457e-10 4.25457e-11)
(5.00002e-05 -9.74457e-10 -4.2546e-11)
(5.00004e-05 -1.0298e-09 4.4962e-11)
(5.00004e-05 -1.0298e-09 -4.49624e-11)
(5.00007e-05 -1.05194e-09 4.59286e-11)
(5.00007e-05 -1.05194e-09 -4.5929e-11)
(5.0001e-05 -1.04713e-09 4.57188e-11)
(5.0001e-05 -1.04713e-09 -4.57192e-11)
(5.00014e-05 -1.00848e-09 4.40312e-11)
(5.00014e-05 -1.00848e-09 -4.40315e-11)
(5.00019e-05 -9.50644e-10 4.1506e-11)
(5.00019e-05 -9.50644e-10 -4.15064e-11)
(5.00025e-05 -8.75711e-10 3.82343e-11)
(5.00025e-05 -8.75711e-10 -3.82347e-11)
(5.00031e-05 -8.15054e-10 3.5586e-11)
(5.00031e-05 -8.15054e-10 -3.55864e-11)
(5.00039e-05 -7.97346e-10 3.48129e-11)
(5.00039e-05 -7.97346e-10 -3.48132e-11)
(4.99997e-05 8.79545e-18 -2.30151e-16)
(4.99999e-05 -1.8913e-10 8.25757e-12)
(4.99999e-05 -1.8913e-10 -8.25783e-12)
(4.99999e-05 -9.53401e-11 -4.16288e-12)
(4.99999e-05 -9.53401e-11 4.16262e-12)
(5e-05 -2.76952e-10 1.2092e-11)
(5e-05 -2.76952e-10 -1.20922e-11)
(5e-05 -3.56501e-10 1.55652e-11)
(5e-05 -3.56501e-10 -1.55654e-11)
(5.00001e-05 -4.25872e-10 1.85939e-11)
(5.00001e-05 -4.25872e-10 -1.85942e-11)
(5.00002e-05 -4.80318e-10 2.09711e-11)
(5.00002e-05 -4.80318e-10 -2.09714e-11)
(5.00003e-05 -5.20184e-10 2.27117e-11)
(5.00003e-05 -5.20184e-10 -2.2712e-11)
(5.00005e-05 -5.38418e-10 2.35078e-11)
(5.00005e-05 -5.38418e-10 -2.35081e-11)
(5.00007e-05 -5.37702e-10 2.34766e-11)
(5.00007e-05 -5.37702e-10 -2.34769e-11)
(5.0001e-05 -5.09512e-10 2.22457e-11)
(5.0001e-05 -5.09512e-10 -2.2246e-11)
(5.00013e-05 -4.61825e-10 2.01637e-11)
(5.00013e-05 -4.61825e-10 -2.0164e-11)
(5.00017e-05 -3.91407e-10 1.70892e-11)
(5.00017e-05 -3.91407e-10 -1.70895e-11)
(5.00021e-05 -3.15034e-10 1.37547e-11)
(5.00021e-05 -3.15034e-10 -1.37549e-11)
(5.00026e-05 -2.37459e-10 1.03677e-11)
(5.00026e-05 -2.37459e-10 -1.03679e-11)
(5.00032e-05 -1.89853e-10 8.28915e-12)
(5.00032e-05 -1.89853e-10 -8.28942e-12)
(5.00037e-05 -1.88596e-10 8.23427e-12)
(5.00037e-05 -1.88596e-10 -8.23454e-12)
(4.99999e-05 8.79548e-18 -2.30152e-16)
(5.00002e-05 -9.8419e-11 4.29705e-12)
(5.00002e-05 -9.8419e-11 -4.29731e-12)
(5.00001e-05 -5.00293e-11 -2.18456e-12)
(5.00001e-05 -5.00293e-11 2.18431e-12)
(5.00002e-05 -1.40474e-10 6.13322e-12)
(5.00002e-05 -1.40474e-10 -6.13348e-12)
(5.00003e-05 -1.74562e-10 7.62151e-12)
(5.00003e-05 -1.74562e-10 -7.62178e-12)
(5.00004e-05 -1.98287e-10 8.6574e-12)
(5.00004e-05 -1.98287e-10 -8.65767e-12)
(5.00005e-05 -2.07819e-10 9.07357e-12)
(5.00005e-05 -2.07819e-10 -9.07384e-12)
(5.00006e-05 -2.03757e-10 8.89621e-12)
(5.00006e-05 -2.03757e-10 -8.89648e-12)
(5.00008e-05 -1.80667e-10 7.88807e-12)
(5.00008e-05 -1.80667e-10 -7.88834e-12)
(5.0001e-05 -1.42269e-10 6.21157e-12)
(5.0001e-05 -1.42269e-10 -6.21183e-12)
(5.00013e-05 -8.32434e-11 3.63447e-12)
(5.00013e-05 -8.32434e-11 -3.63472e-12)
(5.00016e-05 -1.24548e-11 5.43775e-13)
(5.00016e-05 -1.24548e-11 -5.44022e-13)
(5.00019e-05 7.05745e-11 -3.08136e-12)
(5.00019e-05 7.05745e-11 3.08112e-12)
(5.00023e-05 1.50063e-10 -6.55192e-12)
(5.00023e-05 1.50063e-10 6.55169e-12)
(5.00028e-05 2.20943e-10 -9.64658e-12)
(5.00028e-05 2.20943e-10 9.64636e-12)
(5.00032e-05 2.60953e-10 -1.13935e-11)
(5.00032e-05 2.60953e-10 1.13933e-11)
(5.00036e-05 2.6365e-10 -1.15112e-11)
(5.00036e-05 2.6365e-10 1.1511e-11)
(5.00001e-05 8.79552e-18 -2.30153e-16)
(5.00005e-05 -2.20839e-11 9.64189e-13)
(5.00005e-05 -2.20839e-11 -9.64436e-13)
(5.00004e-05 -1.18389e-11 -5.1713e-13)
(5.00004e-05 -1.18389e-11 5.16884e-13)
(5.00005e-05 -2.64361e-11 1.15421e-12)
(5.00005e-05 -2.64361e-11 -1.15446e-12)
(5.00006e-05 -2.35015e-11 1.02608e-12)
(5.00006e-05 -2.35015e-11 -1.02633e-12)
(5.00007e-05 -1.12406e-11 4.90762e-13)
(5.00007e-05 -1.12406e-11 -4.91008e-13)
(5.00008e-05 1.35655e-11 -5.92297e-13)
(5.00008e-05 1.35655e-11 5.92054e-13)
(5.00009e-05 4.97015e-11 -2.17003e-12)
(5.00009e-05 4.97015e-11 2.16979e-12)
(5.00011e-05 1.01357e-10 -4.42535e-12)
(5.00011e-05 1.01357e-10 4.42512e-12)
(5.00013e-05 1.63995e-10 -7.16017e-12)
(5.00013e-05 1.63995e-10 7.15995e-12)
(5.00016e-05 2.40791e-10 -1.05132e-11)
(5.00016e-05 2.40791e-10 1.0513e-11)
(5.00019e-05 3.22943e-10 -1.41e-11)
(5.00019e-05 3.22943e-10 1.40998e-11)
(5.00022e-05 4.09683e-10 -1.78871e-11)
(5.00022e-05 4.09683e-10 1.78869e-11)
(5.00026e-05 4.87517e-10 -2.12855e-11)
(5.00026e-05 4.87517e-10 2.12853e-11)
(5.00029e-05 5.52131e-10 -2.41066e-11)
(5.00029e-05 5.52131e-10 2.41064e-11)
(5.00033e-05 5.87607e-10 -2.56555e-11)
(5.00033e-05 5.87607e-10 2.56553e-11)
(5.00036e-05 5.91803e-10 -2.58387e-11)
(5.00036e-05 5.91803e-10 2.58385e-11)
(5.00004e-05 8.79557e-18 -2.30155e-16)
(5.00008e-05 3.9036e-11 -1.70436e-12)
(5.00008e-05 3.9036e-11 1.70412e-12)
(5.00008e-05 1.88128e-11 8.21156e-13)
(5.00008e-05 1.88128e-11 -8.21398e-13)
(5.00008e-05 6.43604e-11 -2.81005e-12)
(5.00008e-05 6.43604e-11 2.80981e-12)
(5.00009e-05 9.59974e-11 -4.19135e-12)
(5.00009e-05 9.59974e-11 4.19112e-12)
(5.0001e-05 1.35353e-10 -5.90966e-12)
(5.0001e-05 1.35353e-10 5.90943e-12)
(5.00011e-05 1.85205e-10 -8.08624e-12)
(5.00011e-05 1.85205e-10 8.08602e-12)
(5.00013e-05 2.43633e-10 -1.06372e-11)
(5.00013e-05 2.43633e-10 1.0637e-11)
(5.00015e-05 3.13986e-10 -1.37089e-11)
(5.00015e-05 3.13986e-10 1.37087e-11)
(5.00017e-05 3.91184e-10 -1.70795e-11)
(5.00017e-05 3.91184e-10 1.70793e-11)
(5.00019e-05 4.77232e-10 -2.08364e-11)
(5.00019e-05 4.77232e-10 2.08362e-11)
(5.00022e-05 5.63834e-10 -2.46175e-11)
(5.00022e-05 5.63834e-10 2.46173e-11)
(5.00025e-05 6.49818e-10 -2.83717e-11)
(5.00025e-05 6.49818e-10 2.83715e-11)
(5.00028e-05 7.24344e-10 -3.16256e-11)
(5.00028e-05 7.24344e-10 3.16254e-11)
(5.00031e-05 7.84183e-10 -3.42382e-11)
(5.00031e-05 7.84183e-10 3.4238e-11)
(5.00034e-05 8.1907e-10 -3.57614e-11)
(5.00034e-05 8.1907e-10 3.57612e-11)
(5.00036e-05 8.28993e-10 -3.61946e-11)
(5.00036e-05 8.28993e-10 3.61945e-11)
(5.00007e-05 8.79562e-18 -2.30156e-16)
(5.00011e-05 8.51953e-11 -3.71972e-12)
(5.00011e-05 8.51953e-11 3.71949e-12)
(5.00011e-05 4.20185e-11 1.83434e-12)
(5.00011e-05 4.20185e-11 -1.83458e-12)
(5.00012e-05 1.32593e-10 -5.78915e-12)
(5.00012e-05 1.32593e-10 5.78892e-12)
(5.00013e-05 1.85245e-10 -8.08799e-12)
(5.00013e-05 1.85245e-10 8.08777e-12)
(5.00014e-05 2.43869e-10 -1.06476e-11)
(5.00014e-05 2.43869e-10 1.06473e-11)
(5.00015e-05 3.10977e-10 -1.35776e-11)
(5.00015e-05 3.10977e-10 1.35773e-11)
(5.00017e-05 3.8398e-10 -1.67649e-11)
(5.00017e-05 3.8398e-10 1.67647e-11)
(5.00019e-05 4.65797e-10 -2.03372e-11)
(5.00019e-05 4.65797e-10 2.0337e-11)
(5.00021e-05 5.5103e-10 -2.40585e-11)
(5.00021e-05 5.5103e-10 2.40583e-11)
(5.00023e-05 6.41194e-10 -2.79951e-11)
(5.00023e-05 6.41194e-10 2.7995e-11)
(5.00025e-05 7.28745e-10 -3.18177e-11)
(5.00025e-05 7.28745e-10 3.18175e-11)
(5.00028e-05 8.12632e-10 -3.54803e-11)
(5.00028e-05 8.12632e-10 3.54801e-11)
(5.00031e-05 8.84431e-10 -3.86151e-11)
(5.00031e-05 8.84431e-10 3.86149e-11)
(5.00033e-05 9.41806e-10 -4.11201e-11)
(5.00033e-05 9.41806e-10 4.112e-11)
(5.00035e-05 9.78434e-10 -4.27193e-11)
(5.00035e-05 9.78434e-10 4.27192e-11)
(5.00037e-05 9.94842e-10 -4.34358e-11)
(5.00037e-05 9.94842e-10 4.34356e-11)
(5.00011e-05 8.79569e-18 -2.30158e-16)
(5.00015e-05 1.17528e-10 -5.13141e-12)
(5.00015e-05 1.17528e-10 5.13118e-12)
(5.00015e-05 5.83138e-11 2.54581e-12)
(5.00015e-05 5.83138e-11 -2.54605e-12)
(5.00016e-05 1.80131e-10 -7.8647e-12)
(5.00016e-05 1.80131e-10 7.86448e-12)
(5.00017e-05 2.47009e-10 -1.07846e-11)
(5.00017e-05 2.47009e-10 1.07844e-11)
(5.00018e-05 3.18235e-10 -1.38945e-11)
(5.00018e-05 3.18235e-10 1.38942e-11)
(5.00019e-05 3.96235e-10 -1.73e-11)
(5.00019e-05 3.96235e-10 1.72998e-11)
(5.0002e-05 4.77833e-10 -2.08627e-11)
(5.0002e-05 4.77833e-10 2.08625e-11)
(5.00022e-05 5.65854e-10 -2.47057e-11)
(5.00022e-05 5.65854e-10 2.47055e-11)
(5.00024e-05 6.54741e-10 -2.85866e-11)
(5.00024e-05 6.54741e-10 2.85865e-11)
(5.00026e-05 7.45958e-10 -3.25692e-11)
(5.00026e-05 7.45958e-10 3.25691e-11)
(5.00028e-05 8.32774e-10 -3.63597e-11)
(5.00028e-05 8.32774e-10 3.63596e-11)
(5.00031e-05 9.14454e-10 -3.99259e-11)
(5.00031e-05 9.14454e-10 3.99258e-11)
(5.00033e-05 9.84629e-10 -4.29898e-11)
(5.00033e-05 9.84629e-10 4.29897e-11)
(5.00035e-05 1.04157e-09 -4.54761e-11)
(5.00035e-05 1.04157e-09 4.5476e-11)
(5.00037e-05 1.08185e-09 -4.72346e-11)
(5.00037e-05 1.08185e-09 4.72345e-11)
(5.00038e-05 1.10576e-09 -4.82783e-11)
(5.00038e-05 1.10576e-09 4.82782e-11)
(5.00015e-05 8.79575e-18 -2.30159e-16)
(5.00019e-05 1.37473e-10 -6.00222e-12)
(5.00019e-05 1.37473e-10 6.00199e-12)
(5.00019e-05 6.83962e-11 2.98602e-12)
(5.00019e-05 6.83962e-11 -2.98626e-12)
(5.0002e-05 2.09241e-10 -9.13565e-12)
(5.0002e-05 2.09241e-10 9.13543e-12)
(5.0002e-05 2.84509e-10 -1.24219e-11)
(5.0002e-05 2.84509e-10 1.24217e-11)
(5.00021e-05 3.62783e-10 -1.58394e-11)
(5.00021e-05 3.62783e-10 1.58392e-11)
(5.00023e-05 4.46581e-10 -1.94981e-11)
(5.00023e-05 4.46581e-10 1.9498e-11)
(5.00024e-05 5.3222e-10 -2.32372e-11)
(5.00024e-05 5.3222e-10 2.3237e-11)
(5.00026e-05 6.22694e-10 -2.71874e-11)
(5.00026e-05 6.22694e-10 2.71872e-11)
(5.00028e-05 7.12384e-10 -3.11034e-11)
(5.00028e-05 7.12384e-10 3.11032e-11)
(5.0003e-05 8.02954e-10 -3.50577e-11)
(5.0003e-05 8.02954e-10 3.50576e-11)
(5.00032e-05 8.88447e-10 -3.87905e-11)
(5.00032e-05 8.88447e-10 3.87903e-11)
(5.00034e-05 9.68467e-10 -4.22842e-11)
(5.00034e-05 9.68467e-10 4.22841e-11)
(5.00035e-05 1.0383e-09 -4.53332e-11)
(5.00035e-05 1.0383e-09 4.53331e-11)
(5.00037e-05 1.0965e-09 -4.78743e-11)
(5.00037e-05 1.0965e-09 4.78742e-11)
(5.00038e-05 1.14165e-09 -4.98455e-11)
(5.00038e-05 1.14165e-09 4.98454e-11)
(5.00039e-05 1.17334e-09 -5.12291e-11)
(5.00039e-05 1.17334e-09 5.12289e-11)
(5.00018e-05 8.79582e-18 -2.30161e-16)
(5.00023e-05 1.4661e-10 -6.40114e-12)
(5.00023e-05 1.4661e-10 6.40091e-12)
(5.00022e-05 7.30431e-11 3.18891e-12)
(5.00022e-05 7.30431e-11 -3.18914e-12)
(5.00023e-05 2.22345e-10 -9.70779e-12)
(5.00023e-05 2.22345e-10 9.70757e-12)
(5.00024e-05 3.0108e-10 -1.31454e-11)
(5.00024e-05 3.0108e-10 1.31452e-11)
(5.00025e-05 3.81825e-10 -1.66709e-11)
(5.00025e-05 3.81825e-10 1.66707e-11)
(5.00026e-05 4.67371e-10 -2.04059e-11)
(5.00026e-05 4.67371e-10 2.04057e-11)
(5.00028e-05 5.53579e-10 -2.41698e-11)
(5.00028e-05 5.53579e-10 2.41696e-11)
(5.00029e-05 6.43821e-10 -2.81098e-11)
(5.00029e-05 6.43821e-10 2.81097e-11)
(5.00031e-05 7.32445e-10 -3.19793e-11)
(5.00031e-05 7.32445e-10 3.19791e-11)
(5.00033e-05 8.21453e-10 -3.58654e-11)
(5.00033e-05 8.21453e-10 3.58653e-11)
(5.00035e-05 9.05571e-10 -3.95381e-11)
(5.00035e-05 9.05571e-10 3.95379e-11)
(5.00036e-05 9.84666e-10 -4.29914e-11)
(5.00036e-05 9.84666e-10 4.29913e-11)
(5.00038e-05 1.05534e-09 -4.60772e-11)
(5.00038e-05 1.05534e-09 4.60771e-11)
(5.00039e-05 1.11614e-09 -4.87315e-11)
(5.00039e-05 1.11614e-09 4.87314e-11)
(5.0004e-05 1.16706e-09 -5.09551e-11)
(5.0004e-05 1.16706e-09 5.0955e-11)
(5.00041e-05 1.20677e-09 -5.26885e-11)
(5.00041e-05 1.20677e-09 5.26884e-11)
(5.00022e-05 8.79588e-18 -2.30163e-16)
(5.00026e-05 1.4645e-10 -6.39414e-12)
(5.00026e-05 1.4645e-10 6.39392e-12)
(5.00026e-05 7.30038e-11 3.18719e-12)
(5.00026e-05 7.30038e-11 -3.18743e-12)
(5.00027e-05 2.21732e-10 -9.68103e-12)
(5.00027e-05 2.21732e-10 9.68081e-12)
(5.00028e-05 2.99819e-10 -1.30904e-11)
(5.00028e-05 2.99819e-10 1.30902e-11)
(5.00029e-05 3.79283e-10 -1.65599e-11)
(5.00029e-05 3.79283e-10 1.65597e-11)
(5.0003e-05 4.6336e-10 -2.02307e-11)
(5.0003e-05 4.6336e-10 2.02306e-11)
(5.00031e-05 5.4748e-10 -2.39035e-11)
(5.00031e-05 5.4748e-10 2.39033e-11)
(5.00033e-05 6.35549e-10 -2.77487e-11)
(5.00033e-05 6.35549e-10 2.77485e-11)
(5.00034e-05 7.2188e-10 -3.1518e-11)
(5.00034e-05 7.2188e-10 3.15178e-11)
(5.00036e-05 8.08867e-10 -3.53159e-11)
(5.00036e-05 8.08867e-10 3.53158e-11)
(5.00038e-05 8.91819e-10 -3.89377e-11)
(5.00038e-05 8.91819e-10 3.89375e-11)
(5.00039e-05 9.70749e-10 -4.23838e-11)
(5.00039e-05 9.70749e-10 4.23837e-11)
(5.00041e-05 1.0433e-09 -4.55514e-11)
(5.00041e-05 1.0433e-09 4.55513e-11)
(5.00042e-05 1.10774e-09 -4.83649e-11)
(5.00042e-05 1.10774e-09 4.83648e-11)
(5.00042e-05 1.16511e-09 -5.08699e-11)
(5.00042e-05 1.16511e-09 5.08698e-11)
(5.00043e-05 1.21293e-09 -5.29576e-11)
(5.00043e-05 1.21293e-09 5.29575e-11)
(5.00026e-05 8.79595e-18 -2.30164e-16)
(5.0003e-05 1.38356e-10 -6.04077e-12)
(5.0003e-05 1.38356e-10 6.04055e-12)
(5.00029e-05 6.89587e-11 3.01058e-12)
(5.00029e-05 6.89587e-11 -3.01082e-12)
(5.0003e-05 2.09444e-10 -9.14454e-12)
(5.0003e-05 2.09444e-10 9.14432e-12)
(5.00031e-05 2.8345e-10 -1.23757e-11)
(5.00031e-05 2.8345e-10 1.23755e-11)
(5.00032e-05 3.58543e-10 -1.56543e-11)
(5.00032e-05 3.58543e-10 1.56541e-11)
(5.00033e-05 4.38573e-10 -1.91485e-11)
(5.00033e-05 4.38573e-10 1.91483e-11)
(5.00035e-05 5.18529e-10 -2.26395e-11)
(5.00035e-05 5.18529e-10 2.26393e-11)
(5.00036e-05 6.02984e-10 -2.63269e-11)
(5.00036e-05 6.02984e-10 2.63267e-11)
(5.00038e-05 6.86187e-10 -2.99596e-11)
(5.00038e-05 6.86187e-10 2.99594e-11)
(5.00039e-05 7.70935e-10 -3.36598e-11)
(5.00039e-05 7.70935e-10 3.36596e-11)
(5.00041e-05 8.5303e-10 -3.72441e-11)
(5.00041e-05 8.5303e-10 3.72439e-11)
(5.00042e-05 9.32489e-10 -4.07133e-11)
(5.00042e-05 9.32489e-10 4.07132e-11)
(5.00043e-05 1.0078e-09 -4.40016e-11)
(5.00043e-05 1.0078e-09 4.40015e-11)
(5.00044e-05 1.07675e-09 -4.70118e-11)
(5.00044e-05 1.07675e-09 4.70117e-11)
(5.00045e-05 1.14112e-09 -4.98226e-11)
(5.00045e-05 1.14112e-09 4.98225e-11)
(5.00045e-05 1.1972e-09 -5.22708e-11)
(5.00045e-05 1.1972e-09 5.22707e-11)
(5.00029e-05 8.796e-18 -2.30166e-16)
(5.00033e-05 1.23503e-10 -5.39227e-12)
(5.00033e-05 1.23503e-10 5.39204e-12)
(5.00032e-05 6.14959e-11 2.68475e-12)
(5.00032e-05 6.14959e-11 -2.68498e-12)
(5.00033e-05 1.87225e-10 -8.17443e-12)
(5.00033e-05 1.87225e-10 8.1742e-12)
(5.00034e-05 2.54273e-10 -1.11018e-11)
(5.00034e-05 2.54273e-10 1.11016e-11)
(5.00035e-05 3.22425e-10 -1.40774e-11)
(5.00035e-05 3.22425e-10 1.40772e-11)
(5.00036e-05 3.96305e-10 -1.73031e-11)
(5.00036e-05 3.96305e-10 1.73029e-11)
(5.00038e-05 4.70437e-10 -2.05397e-11)
(5.00038e-05 4.70437e-10 2.05395e-11)
(5.00039e-05 5.50165e-10 -2.40207e-11)
(5.00039e-05 5.50165e-10 2.40205e-11)
(5.00041e-05 6.29636e-10 -2.74905e-11)
(5.00041e-05 6.29636e-10 2.74904e-11)
(5.00042e-05 7.12038e-10 -3.10883e-11)
(5.00042e-05 7.12038e-10 3.10881e-11)
(5.00044e-05 7.93601e-10 -3.46494e-11)
(5.00044e-05 7.93601e-10 3.46492e-11)
(5.00045e-05 8.74204e-10 -3.81686e-11)
(5.00045e-05 8.74204e-10 3.81684e-11)
(5.00046e-05 9.53056e-10 -4.16113e-11)
(5.00046e-05 9.53056e-10 4.16112e-11)
(5.00047e-05 1.02725e-09 -4.48506e-11)
(5.00047e-05 1.02725e-09 4.48505e-11)
(5.00047e-05 1.09916e-09 -4.79903e-11)
(5.00047e-05 1.09916e-09 4.79901e-11)
(5.00047e-05 1.1637e-09 -5.08084e-11)
(5.00047e-05 1.1637e-09 5.08082e-11)
(5.00032e-05 8.79606e-18 -2.30167e-16)
(5.00036e-05 1.02873e-10 -4.49154e-12)
(5.00036e-05 1.02873e-10 4.49131e-12)
(5.00035e-05 5.11095e-11 2.23126e-12)
(5.00035e-05 5.11095e-11 -2.2315e-12)
(5.00036e-05 1.56522e-10 -6.8339e-12)
(5.00036e-05 1.56522e-10 6.83367e-12)
(5.00037e-05 2.1418e-10 -9.3513e-12)
(5.00037e-05 2.1418e-10 9.35108e-12)
(5.00038e-05 2.73216e-10 -1.19289e-11)
(5.00038e-05 2.73216e-10 1.19287e-11)
(5.00039e-05 3.39198e-10 -1.48097e-11)
(5.00039e-05 3.39198e-10 1.48095e-11)
(5.00041e-05 4.06126e-10 -1.77318e-11)
(5.00041e-05 4.06126e-10 1.77316e-11)
(5.00042e-05 4.80219e-10 -2.09668e-11)
(5.00042e-05 4.80219e-10 2.09666e-11)
(5.00044e-05 5.55486e-10 -2.42531e-11)
(5.00044e-05 5.55486e-10 2.42529e-11)
(5.00045e-05 6.35477e-10 -2.77455e-11)
(5.00045e-05 6.35477e-10 2.77454e-11)
(5.00047e-05 7.16816e-10 -3.12968e-11)
(5.00047e-05 7.16816e-10 3.12967e-11)
(5.00048e-05 7.99102e-10 -3.48896e-11)
(5.00048e-05 7.99102e-10 3.48894e-11)
(5.00049e-05 8.82198e-10 -3.85176e-11)
(5.00049e-05 8.82198e-10 3.85175e-11)
(5.0005e-05 9.6233e-10 -4.20162e-11)
(5.0005e-05 9.6233e-10 4.20161e-11)
(5.0005e-05 1.04235e-09 -4.55098e-11)
(5.0005e-05 1.04235e-09 4.55097e-11)
(5.0005e-05 1.11572e-09 -4.87133e-11)
(5.0005e-05 1.11572e-09 4.87132e-11)
(5.00035e-05 8.79611e-18 -2.30169e-16)
(5.00038e-05 7.72919e-11 -3.37465e-12)
(5.00038e-05 7.72919e-11 3.37441e-12)
(5.00038e-05 3.82166e-11 1.66835e-12)
(5.00038e-05 3.82166e-11 -1.66859e-12)
(5.00039e-05 1.18543e-10 -5.1757e-12)
(5.00039e-05 1.18543e-10 5.17547e-12)
(5.0004e-05 1.64735e-10 -7.19249e-12)
(5.0004e-05 1.64735e-10 7.19226e-12)
(5.00041e-05 2.12786e-10 -9.29047e-12)
(5.00041e-05 2.12786e-10 9.29025e-12)
(5.00042e-05 2.69375e-10 -1.17612e-11)
(5.00042e-05 2.69375e-10 1.1761e-11)
(5.00044e-05 3.27913e-10 -1.4317e-11)
(5.00044e-05 3.27913e-10 1.43168e-11)
(5.00045e-05 3.95591e-10 -1.72719e-11)
(5.00045e-05 3.95591e-10 1.72717e-11)
(5.00047e-05 4.66246e-10 -2.03567e-11)
(5.00047e-05 4.66246e-10 2.03566e-11)
(5.00048e-05 5.4376e-10 -2.37411e-11)
(5.00048e-05 5.4376e-10 2.37409e-11)
(5.0005e-05 6.25151e-10 -2.72947e-11)
(5.0005e-05 6.25151e-10 2.72945e-11)
(5.00051e-05 7.096e-10 -3.09818e-11)
(5.00051e-05 7.096e-10 3.09817e-11)
(5.00052e-05 7.97612e-10 -3.48245e-11)
(5.00052e-05 7.97612e-10 3.48243e-11)
(5.00052e-05 8.84381e-10 -3.86129e-11)
(5.00052e-05 8.84381e-10 3.86127e-11)
(5.00053e-05 9.73169e-10 -4.24895e-11)
(5.00053e-05 9.73169e-10 4.24893e-11)
(5.00053e-05 1.0559e-09 -4.61016e-11)
(5.00053e-05 1.0559e-09 4.61015e-11)
(5.00037e-05 8.79615e-18 -2.3017e-16)
(5.0004e-05 4.74712e-11 -2.07265e-12)
(5.0004e-05 4.74712e-11 2.07241e-12)
(5.0004e-05 2.31771e-11 1.0117e-12)
(5.0004e-05 2.31771e-11 -1.01195e-12)
(5.00041e-05 7.432e-11 -3.2449e-12)
(5.00041e-05 7.432e-11 3.24466e-12)
(5.00042e-05 1.07265e-10 -4.68331e-12)
(5.00042e-05 1.07265e-10 4.68308e-12)
(5.00043e-05 1.42703e-10 -6.23058e-12)
(5.00043e-05 1.42703e-10 6.23035e-12)
(5.00045e-05 1.88601e-10 -8.23449e-12)
(5.00045e-05 1.88601e-10 8.23427e-12)
(5.00046e-05 2.37697e-10 -1.03781e-11)
(5.00046e-05 2.37697e-10 1.03779e-11)
(5.00048e-05 2.98256e-10 -1.30221e-11)
(5.00048e-05 2.98256e-10 1.30219e-11)
(5.00049e-05 3.63921e-10 -1.58891e-11)
(5.00049e-05 3.63921e-10 1.58889e-11)
(5.00051e-05 4.38874e-10 -1.91617e-11)
(5.00051e-05 4.38874e-10 1.91615e-11)
(5.00053e-05 5.20564e-10 -2.27283e-11)
(5.00053e-05 5.20564e-10 2.27281e-11)
(5.00054e-05 6.07614e-10 -2.6529e-11)
(5.00054e-05 6.07614e-10 2.65288e-11)
(5.00055e-05 7.01216e-10 -3.06158e-11)
(5.00055e-05 7.01216e-10 3.06156e-11)
(5.00055e-05 7.95363e-10 -3.47263e-11)
(5.00055e-05 7.95363e-10 3.47261e-11)
(5.00056e-05 8.93728e-10 -3.9021e-11)
(5.00056e-05 8.93728e-10 3.90209e-11)
(5.00055e-05 9.86567e-10 -4.30744e-11)
(5.00055e-05 9.86567e-10 4.30743e-11)
(5.0004e-05 8.79619e-18 -2.30171e-16)
(5.00042e-05 1.40816e-11 -6.14831e-13)
(5.00042e-05 1.40816e-11 6.14588e-13)
(5.00041e-05 6.33132e-12 2.76202e-13)
(5.00041e-05 6.33132e-12 -2.76446e-13)
(5.00043e-05 2.48214e-11 -1.08374e-12)
(5.00043e-05 2.48214e-11 1.0835e-12)
(5.00044e-05 4.30069e-11 -1.87773e-12)
(5.00044e-05 4.30069e-11 1.87749e-12)
(5.00045e-05 6.44141e-11 -2.81239e-12)
(5.00045e-05 6.44141e-11 2.81216e-12)
(5.00047e-05 9.84856e-11 -4.29999e-12)
(5.00047e-05 9.84856e-11 4.29975e-12)
(5.00048e-05 1.37194e-10 -5.99003e-12)
(5.00048e-05 1.37194e-10 5.9898e-12)
(5.0005e-05 1.8998e-10 -8.2947e-12)
(5.0005e-05 1.8998e-10 8.29448e-12)
(5.00052e-05 2.50288e-10 -1.09278e-11)
(5.00052e-05 2.50288e-10 1.09276e-11)
(5.00054e-05 3.22568e-10 -1.40836e-11)
(5.00054e-05 3.22568e-10 1.40834e-11)
(5.00055e-05 4.04776e-10 -1.76729e-11)
(5.00055e-05 4.04776e-10 1.76727e-11)
(5.00057e-05 4.94836e-10 -2.1605e-11)
(5.00057e-05 4.94836e-10 2.16048e-11)
(5.00058e-05 5.94729e-10 -2.59664e-11)
(5.00058e-05 5.94729e-10 2.59662e-11)
(5.00059e-05 6.97067e-10 -3.04346e-11)
(5.00059e-05 6.97067e-10 3.04345e-11)
(5.00059e-05 8.05979e-10 -3.51898e-11)
(5.00059e-05 8.05979e-10 3.51897e-11)
(5.00059e-05 9.09918e-10 -3.97279e-11)
(5.00059e-05 9.09918e-10 3.97278e-11)
(5.00041e-05 8.79622e-18 -2.30172e-16)
(5.00043e-05 -2.21752e-11 9.68176e-13)
(5.00043e-05 -2.21752e-11 -9.68423e-13)
(5.00043e-05 -1.19643e-11 -5.22606e-13)
(5.00043e-05 -1.19643e-11 5.2236e-13)
(5.00044e-05 -2.89445e-11 1.26373e-12)
(5.00044e-05 -2.89445e-11 -1.26398e-12)
(5.00045e-05 -2.67541e-11 1.16809e-12)
(5.00045e-05 -2.67541e-11 -1.16834e-12)
(5.00047e-05 -2.05828e-11 8.98651e-13)
(5.00047e-05 -2.05828e-11 -8.98898e-13)
(5.00048e-05 6.93721e-13 -3.03025e-14)
(5.00048e-05 6.93721e-13 3.00584e-14)
(5.0005e-05 2.81683e-11 -1.22987e-12)
(5.0005e-05 2.81683e-11 1.22963e-12)
(5.00052e-05 7.25759e-11 -3.16875e-12)
(5.00052e-05 7.25759e-11 3.16851e-12)
(5.00054e-05 1.27169e-10 -5.55235e-12)
(5.00054e-05 1.27169e-10 5.55212e-12)
(5.00056e-05 1.96637e-10 -8.58537e-12)
(5.00056e-05 1.96637e-10 8.58515e-12)
(5.00058e-05 2.79561e-10 -1.22059e-11)
(5.00058e-05 2.79561e-10 1.22057e-11)
(5.0006e-05 3.73025e-10 -1.62866e-11)
(5.0006e-05 3.73025e-10 1.62864e-11)
(5.00061e-05 4.79947e-10 -2.0955e-11)
(5.00061e-05 4.79947e-10 2.09548e-11)
(5.00062e-05 5.91383e-10 -2.58204e-11)
(5.00062e-05 5.91383e-10 2.58202e-11)
(5.00062e-05 7.12003e-10 -3.10867e-11)
(5.00062e-05 7.12003e-10 3.10865e-11)
(5.00062e-05 8.28301e-10 -3.61644e-11)
(5.00062e-05 8.28301e-10 3.61642e-11)
(5.00042e-05 8.79624e-18 -2.30172e-16)
(5.00044e-05 -6.04646e-11 2.63993e-12)
(5.00044e-05 -6.04646e-11 -2.64018e-12)
(5.00043e-05 -3.12861e-11 -1.36621e-12)
(5.00043e-05 -3.12861e-11 1.36597e-12)
(5.00045e-05 -8.57765e-11 3.74507e-12)
(5.00045e-05 -8.57765e-11 -3.74532e-12)
(5.00046e-05 -1.00487e-10 4.38736e-12)
(5.00046e-05 -1.00487e-10 -4.38762e-12)
(5.00048e-05 -1.105e-10 4.82453e-12)
(5.00048e-05 -1.105e-10 -4.82479e-12)
(5.0005e-05 -1.0279e-10 4.48791e-12)
(5.0005e-05 -1.0279e-10 -4.48817e-12)
(5.00052e-05 -8.72679e-11 3.81018e-12)
(5.00052e-05 -8.72679e-11 -3.81044e-12)
(5.00054e-05 -5.17811e-11 2.2608e-12)
(5.00054e-05 -5.17811e-11 -2.26105e-12)
(5.00057e-05 -3.23986e-12 1.41441e-13)
(5.00057e-05 -3.23986e-12 -1.41686e-13)
(5.00059e-05 6.32524e-11 -2.76167e-12)
(5.00059e-05 6.32524e-11 2.76144e-12)
(5.00061e-05 1.47073e-10 -6.42134e-12)
(5.00061e-05 1.47073e-10 6.42111e-12)
(5.00063e-05 2.44316e-10 -1.06671e-11)
(5.00063e-05 2.44316e-10 1.06669e-11)
(5.00064e-05 3.59052e-10 -1.56765e-11)
(5.00064e-05 3.59052e-10 1.56763e-11)
(5.00065e-05 4.80589e-10 -2.0983e-11)
(5.00065e-05 4.80589e-10 2.09828e-11)
(5.00066e-05 6.14274e-10 -2.68198e-11)
(5.00066e-05 6.14274e-10 2.68196e-11)
(5.00066e-05 7.44478e-10 -3.25046e-11)
(5.00066e-05 7.44478e-10 3.25044e-11)
(5.00043e-05 8.79624e-18 -2.30172e-16)
(5.00044e-05 -9.97213e-11 4.35391e-12)
(5.00044e-05 -9.97213e-11 -4.35417e-12)
(5.00043e-05 -5.10934e-11 -2.23102e-12)
(5.00043e-05 -5.10934e-11 2.23077e-12)
(5.00045e-05 -1.44139e-10 6.29325e-12)
(5.00045e-05 -1.44139e-10 -6.29351e-12)
(5.00046e-05 -1.76233e-10 7.69449e-12)
(5.00046e-05 -1.76233e-10 -7.69476e-12)
(5.00048e-05 -2.03043e-10 8.86503e-12)
(5.00048e-05 -2.03043e-10 -8.8653e-12)
(5.00051e-05 -2.09408e-10 9.14292e-12)
(5.00051e-05 -2.09408e-10 -9.14319e-12)
(5.00053e-05 -2.06381e-10 9.01079e-12)
(5.00053e-05 -2.06381e-10 -9.01106e-12)
(5.00056e-05 -1.80261e-10 7.87033e-12)
(5.00056e-05 -1.80261e-10 -7.8706e-12)
(5.00059e-05 -1.38071e-10 6.02829e-12)
(5.00059e-05 -1.38071e-10 -6.02855e-12)
(5.00061e-05 -7.47324e-11 3.26287e-12)
(5.00061e-05 -7.47324e-11 -3.26312e-12)
(5.00064e-05 1.01455e-11 -4.42978e-13)
(5.00064e-05 1.01455e-11 4.42734e-13)
(5.00066e-05 1.11519e-10 -4.86905e-12)
(5.00066e-05 1.11519e-10 4.86882e-12)
(5.00068e-05 2.3489e-10 -1.02555e-11)
(5.00068e-05 2.3489e-10 1.02553e-11)
(5.00069e-05 3.67618e-10 -1.60505e-11)
(5.00069e-05 3.67618e-10 1.60503e-11)
(5.0007e-05 5.15933e-10 -2.25261e-11)
(5.0007e-05 5.15933e-10 2.25259e-11)
(5.0007e-05 6.61881e-10 -2.88984e-11)
(5.0007e-05 6.61881e-10 2.88982e-11)
(5.00043e-05 8.79624e-18 -2.30172e-16)
(5.00043e-05 -1.38508e-10 6.04736e-12)
(5.00043e-05 -1.38508e-10 -6.04762e-12)
(5.00042e-05 -7.06574e-11 -3.08521e-12)
(5.00042e-05 -7.06574e-11 3.08496e-12)
(5.00045e-05 -2.01954e-10 8.81749e-12)
(5.00045e-05 -2.01954e-10 -8.81776e-12)
(5.00046e-05 -2.51331e-10 1.09733e-11)
(5.00046e-05 -2.51331e-10 -1.09736e-11)
(5.00049e-05 -2.9508e-10 1.28834e-11)
(5.00049e-05 -2.9508e-10 -1.28837e-11)
(5.00051e-05 -3.1565e-10 1.37816e-11)
(5.00051e-05 -3.1565e-10 -1.37819e-11)
(5.00054e-05 -3.25402e-10 1.42073e-11)
(5.00054e-05 -3.25402e-10 -1.42076e-11)
(5.00057e-05 -3.08933e-10 1.34883e-11)
(5.00057e-05 -3.08933e-10 -1.34886e-11)
(5.0006e-05 -2.73317e-10 1.19332e-11)
(5.0006e-05 -2.73317e-10 -1.19335e-11)
(5.00063e-05 -2.13309e-10 9.31326e-12)
(5.00063e-05 -2.13309e-10 -9.31353e-12)
(5.00066e-05 -1.27231e-10 5.55501e-12)
(5.00066e-05 -1.27231e-10 -5.55527e-12)
(5.00069e-05 -2.14163e-11 9.3504e-13)
(5.00069e-05 -2.14163e-11 -9.35288e-13)
(5.00071e-05 1.11427e-10 -4.86502e-12)
(5.00071e-05 1.11427e-10 4.86479e-12)
(5.00073e-05 2.56503e-10 -1.11992e-11)
(5.00073e-05 2.56503e-10 1.1199e-11)
(5.00074e-05 4.21197e-10 -1.83899e-11)
(5.00074e-05 4.21197e-10 1.83897e-11)
(5.00074e-05 5.85024e-10 -2.55427e-11)
(5.00074e-05 5.85024e-10 2.55425e-11)
(5.00042e-05 8.79623e-18 -2.30172e-16)
(5.00042e-05 -1.74871e-10 7.63504e-12)
(5.00042e-05 -1.74871e-10 -7.6353e-12)
(5.00041e-05 -8.89893e-11 -3.8856e-12)
(5.00041e-05 -8.89893e-11 3.88534e-12)
(5.00043e-05 -2.56392e-10 1.11943e-11)
(5.00043e-05 -2.56392e-10 -1.11946e-11)
(5.00045e-05 -3.22156e-10 1.40656e-11)
(5.00045e-05 -3.22156e-10 -1.40659e-11)
(5.00048e-05 -3.8233e-10 1.66928e-11)
(5.00048e-05 -3.8233e-10 -1.66931e-11)
(5.00051e-05 -4.16711e-10 1.8194e-11)
(5.00051e-05 -4.16711e-10 -1.81942e-11)
(5.00054e-05 -4.39144e-10 1.91734e-11)
(5.00054e-05 -4.39144e-10 -1.91737e-11)