/*--------------------------------*- C++ -*----------------------------------*\
| =========                 |                                                 |
| \\      /  F ield         | OpenFOAM: The Open Source CFD Toolbox           |
|  \\    /   O peration     | Version:  4.1                                   |
|   \\  /    A nd           | Web:      www.OpenFOAM.org                      |
|    \\/     M anipulation  |                                                 |
\*---------------------------------------------------------------------------*/
FoamFile
{
    version     2.0;
    format      ascii;
    class       volVectorField;
    location    "0.0064";
    object      U;
}
// * * * * * * * * * * * * * * * * * * * * * * * * * * * * * * * * * * * * * //

dimensions      [0 1 -1 0 0 0 0];

internalField   nonuniform List<vector> 
1536
(
(0.0047536 0.01656 2.3771e-06)
(-0.0078432 0.0093994 2.0151e-06)
(-0.015734 0.0032374 1.8761e-06)
(-0.020067 -0.0012717 1.213e-06)
(-0.020602 -0.0037593 2.0685e-06)
(-0.017781 -0.0055738 1.9438e-06)
(-0.013586 -0.006068 1.66e-06)
(-0.0091161 -0.0052345 1.9226e-06)
(-0.0053002 -0.0040526 1.4356e-06)
(-0.0023138 -0.0031324 1.4969e-06)
(-0.00017514 -0.0038526 1.2151e-06)
(0.0041878 -0.0034429 3.8738e-07)
(0.0057806 0.012026 0.0009745)
(-0.0068406 0.0077082 0.0020449)
(-0.014902 0.004415 0.0027766)
(-0.019152 0.0017679 0.0027858)
(-0.019727 -0.00066725 0.001762)
(-0.017221 -0.0023171 0.0013168)
(-0.013422 -0.0030271 0.00099551)
(-0.0092734 -0.002751 0.0007238)
(-0.0056798 -0.0021397 0.00042043)
(-0.0028174 -0.0016538 0.00030245)
(-0.00070195 -0.0023198 0.00030341)
(0.0041031 -0.0025191 0.00029786)
(0.0065642 0.01029 -0.0019565)
(-0.0059851 0.0067796 -0.0005982)
(-0.014056 0.0038969 0.00042572)
(-0.018126 0.0013855 0.00092944)
(-0.018838 -0.00093797 0.00075643)
(-0.016796 -0.0023411 0.00095165)
(-0.013338 -0.002933 0.00095605)
(-0.0094401 -0.0027655 0.0007954)
(-0.0059914 -0.0022149 0.00053888)
(-0.0032154 -0.0018688 0.0004267)
(-0.0012068 -0.0022866 0.00060827)
(0.0037541 -0.0021079 0.00071992)
(0.0069449 0.006849 -0.0043585)
(-0.0055816 0.0041185 -0.0023293)
(-0.013686 0.0019097 -0.00070514)
(-0.017745 0.00020308 0.00041351)
(-0.01857 -0.0010159 0.001014)
(-0.01667 -0.0018252 0.0015998)
(-0.013306 -0.0021536 0.0017404)
(-0.0095247 -0.0020019 0.0015891)
(-0.0061382 -0.0015248 0.0011895)
(-0.0033773 -0.0012744 0.00098893)
(-0.0013832 -0.0016263 0.0011705)
(0.0036255 -0.0016669 0.0011135)
(0.0069452 0.0043597 -0.0068484)
(-0.0055816 0.0023293 -0.0041189)
(-0.013686 0.0007056 -0.0019097)
(-0.017745 -0.00041241 -0.0002017)
(-0.01857 -0.0010121 0.0010181)
(-0.01667 -0.0015977 0.001829)
(-0.013306 -0.0017374 0.0021569)
(-0.0095248 -0.0015853 0.0020057)
(-0.0061382 -0.0011858 0.0015285)
(-0.0033771 -0.00098571 0.0012778)
(-0.0013828 -0.0011681 0.001629)
(0.003626 -0.0011126 0.0016678)
(0.0065646 0.0019592 -0.010288)
(-0.0059848 0.00059866 -0.0067795)
(-0.014057 -0.00042425 -0.0038961)
(-0.018127 -0.00092694 -0.0013841)
(-0.018838 -0.00075475 0.00094035)
(-0.016796 -0.00094845 0.002343)
(-0.013339 -0.00095426 0.0029356)
(-0.0094404 -0.00079344 0.0027683)
(-0.0059912 -0.00053687 0.0022174)
(-0.0032149 -0.0004251 0.0018706)
(-0.0012056 -0.00060697 0.002288)
(0.0037558 -0.00071967 0.0021083)
(0.0057806 -0.00096873 -0.012021)
(-0.00684 -0.0020446 -0.007708)
(-0.014903 -0.002775 -0.0044122)
(-0.019152 -0.0027825 -0.0017634)
(-0.019728 -0.0017611 0.00066812)
(-0.017222 -0.0013172 0.0023185)
(-0.013422 -0.00099395 0.0030283)
(-0.0092734 -0.00072237 0.002752)
(-0.0056793 -0.00041812 0.002141)
(-0.0028167 -0.00030158 0.0016545)
(-0.00070069 -0.00030192 0.002321)
(0.0041047 -0.00029779 0.0025191)
(0.0047514 -1.1264e-07 -0.01656)
(-0.007841 -1.4781e-07 -0.0093982)
(-0.015736 3.4684e-07 -0.0032365)
(-0.020067 1.453e-06 0.0012734)
(-0.020601 -8.3162e-07 0.0037581)
(-0.017782 -2.6901e-06 0.0055733)
(-0.013587 -1.5394e-06 0.0060678)
(-0.0091166 -2.065e-06 0.0052338)
(-0.0052996 -1.5461e-06 0.0040523)
(-0.0023129 -1.3649e-06 0.0031319)
(-0.0001733 -1.0806e-06 0.003853)
(0.0041904 -4.3213e-07 0.0034428)
(0.0057818 0.012027 -0.00096787)
(-0.00684 0.0077103 -0.0020396)
(-0.014901 0.0044174 -0.0027712)
(-0.019151 0.0017697 -0.0027819)
(-0.019726 -0.00066457 -0.0017573)
(-0.017221 -0.0023146 -0.001312)
(-0.013421 -0.0030243 -0.00099058)
(-0.0092732 -0.0027482 -0.00071874)
(-0.0056803 -0.0021373 -0.00041611)
(-0.0028183 -0.001652 -0.00029868)
(-0.00070303 -0.002319 -0.00030076)
(0.0041026 -0.0025191 -0.00029689)
(0.0065107 0.011556 3.8246e-06)
(-0.0061555 0.0084014 3.2127e-06)
(-0.01444 0.005821 3.0167e-06)
(-0.018729 0.0034279 2.5422e-06)
(-0.019316 0.00059878 3.2434e-06)
(-0.017022 -0.0012048 2.4531e-06)
(-0.013562 -0.0020937 2.6283e-06)
(-0.0096854 -0.0022356 2.5304e-06)
(-0.006148 -0.0017322 2.339e-06)
(-0.003243 -0.0015196 2.2569e-06)
(-0.0011639 -0.0020324 1.6085e-06)
(0.0039987 -0.0020268 6.5502e-07)
(0.0073234 0.0089484 -0.0014011)
(-0.0052681 0.0063588 -0.00099416)
(-0.013559 0.0040954 -0.00075358)
(-0.017744 0.0020473 -0.0007168)
(-0.018534 -0.00010552 -0.00069765)
(-0.016687 -0.00138 -0.00041909)
(-0.013494 -0.0019755 -0.00025649)
(-0.0098586 -0.0021195 -0.00019223)
(-0.0064582 -0.0016464 -0.00021054)
(-0.0036001 -0.0014582 -0.00018812)
(-0.0016653 -0.0017937 5.1062e-06)
(0.0035747 -0.0016768 0.00030131)
(0.0076988 0.0061005 -0.003803)
(-0.0048597 0.0042749 -0.0026815)
(-0.013195 0.0026823 -0.0017411)
(-0.017451 0.001403 -0.0010147)
(-0.018351 0.00021243 -0.00023856)
(-0.016595 -0.00063128 0.00040824)
(-0.013471 -0.001059 0.00069236)
(-0.0099419 -0.0012087 0.00080064)
(-0.0065974 -0.00088847 0.00059148)
(-0.0037369 -0.00080079 0.00052378)
(-0.0018104 -0.0011087 0.00068514)
(0.0034396 -0.0012236 0.00070075)
(0.0076989 0.0038051 -0.0060994)
(-0.0048597 0.0026829 -0.0042746)
(-0.013195 0.0017426 -0.0026813)
(-0.017451 0.0010163 -0.0014015)
(-0.018351 0.00023986 -0.0002112)
(-0.016596 -0.00040653 0.00063359)
(-0.013471 -0.00069113 0.0010607)
(-0.0099418 -0.00079924 0.001211)
(-0.0065972 -0.00059012 0.00089098)
(-0.0037367 -0.00052266 0.00080297)
(-0.0018103 -0.00068436 0.0011103)
(0.0034398 -0.00070062 0.0012241)
(0.0073234 0.0014035 -0.0089471)
(-0.005268 0.00099612 -0.0063592)
(-0.013559 0.00075626 -0.0040953)
(-0.017744 0.00071958 -0.0020461)
(-0.018535 0.00069979 0.00010766)
(-0.016687 0.00041995 0.001382)
(-0.013494 0.00025706 0.0019782)
(-0.0098589 0.00019254 0.0021226)
(-0.0064582 0.00021108 0.0016495)
(-0.0035998 0.00018808 0.0014606)
(-0.0016646 -5.0414e-06 0.0017955)
(0.0035755 -0.00030173 0.0016773)
(0.0065108 -9.1784e-07 -0.011553)
(-0.0061553 -1.1248e-06 -0.0084029)
(-0.014441 -8.4522e-07 -0.0058212)
(-0.01873 2.4488e-09 -0.0034263)
(-0.019316 -1.9166e-06 -0.00059692)
(-0.017022 -4.4918e-06 0.0012061)
(-0.013562 -1.8959e-06 0.0020956)
(-0.0096854 -1.7369e-06 0.0022379)
(-0.0061475 -1.8639e-06 0.0017346)
(-0.0032423 -1.9732e-06 0.0015216)
(-0.001163 -1.5316e-06 0.0020342)
(0.0039997 -7.4754e-07 0.0020275)
(0.0057816 0.00096727 -0.012024)
(-0.0068389 0.0020432 -0.0077111)
(-0.014902 0.0027731 -0.0044166)
(-0.019151 0.0027837 -0.0017664)
(-0.019725 0.0017585 0.00066408)
(-0.017221 0.0013128 0.002315)
(-0.013421 0.00099025 0.003025)
(-0.0092735 0.00071824 0.0027491)
(-0.0056801 0.00041514 0.0021388)
(-0.0028176 0.00029847 0.0016533)
(-0.0007017 0.00029968 0.0023208)
(0.0041043 0.00029694 0.0025193)
(0.0065652 0.010292 0.0019616)
(-0.0059849 0.0067816 0.00060301)
(-0.014055 0.0038985 -0.00042113)
(-0.018125 0.0013868 -0.00092619)
(-0.018837 -0.00093584 -0.0007529)
(-0.016795 -0.0023391 -0.00094598)
(-0.013338 -0.0029312 -0.00095065)
(-0.0094404 -0.0027631 -0.00079035)
(-0.0059928 -0.0022129 -0.00053511)
(-0.0032172 -0.0018671 -0.00042409)
(-0.0012083 -0.0022857 -0.00060638)
(0.0037534 -0.0021079 -0.00071953)
(0.0073246 0.0089512 0.0014084)
(-0.005267 0.0063611 0.0010003)
(-0.013558 0.0040977 0.00075965)
(-0.017743 0.0020495 0.00072213)
(-0.018533 -0.00010376 0.00070344)
(-0.016686 -0.0013778 0.00042491)
(-0.013493 -0.0019731 0.00026223)
(-0.0098584 -0.0021171 0.00019787)
(-0.0064587 -0.0016448 0.0002157)
(-0.0036011 -0.0014569 0.00019194)
(-0.0016658 -0.001793 -2.6137e-06)
(0.0035748 -0.0016766 -0.00030041)
(0.0080894 0.0067481 3.504e-06)
(-0.0044555 0.0047995 3.1416e-06)
(-0.0128 0.0029852 3.2521e-06)
(-0.016981 0.0013632 2.9915e-06)
(-0.017892 -0.00027047 3.4708e-06)
(-0.016355 -0.0011645 3.1976e-06)
(-0.013409 -0.0015693 3.1566e-06)
(-0.0099717 -0.0016762 2.8284e-06)
(-0.006702 -0.0013629 2.6482e-06)
(-0.0039039 -0.0012015 2.0093e-06)
(-0.0020522 -0.001416 1.2136e-06)
(0.003293 -0.0012754 3.8228e-07)
(0.0084555 0.0042958 -0.0022023)
(-0.0040632 0.0030405 -0.0015976)
(-0.01245 0.0018455 -0.0010154)
(-0.01669 0.00080788 -0.00048545)
(-0.017709 -0.00022146 0.00013146)
(-0.016265 -0.00075685 0.00050722)
(-0.013378 -0.0010064 0.00061678)
(-0.01005 -0.0010929 0.00065359)
(-0.0068446 -0.00088579 0.00055579)
(-0.0040471 -0.00078899 0.00048519)
(-0.0022068 -0.00094239 0.00050826)
(0.0031555 -0.00086837 0.00037264)
(0.0084555 0.0022045 -0.0042941)
(-0.0040631 0.0015995 -0.0030393)
(-0.01245 0.0010175 -0.0018439)
(-0.01669 0.00048779 -0.00080593)
(-0.017709 -0.00012909 0.00022325)
(-0.016266 -0.00050469 0.0007585)
(-0.013378 -0.0006152 0.0010082)
(-0.01005 -0.00065192 0.001095)
(-0.0068445 -0.00055422 0.00088791)
(-0.004047 -0.00048379 0.00079067)
(-0.0022066 -0.00050712 0.00094376)
(0.0031557 -0.00037242 0.00086865)
(0.0080893 -9.4982e-07 -0.0067466)
(-0.0044555 -7.1327e-07 -0.004799)
(-0.012801 -3.0039e-07 -0.0029841)
(-0.016982 7.2429e-08 -0.0013615)
(-0.017892 -1.3288e-06 0.00027175)
(-0.016355 -1.7113e-06 0.0011653)
(-0.013409 -1.5191e-06 0.0015713)
(-0.0099719 -1.1861e-06 0.0016786)
(-0.0067019 -1.381e-06 0.0013652)
(-0.0039036 -1.2826e-06 0.0012034)
(-0.0020515 -8.4296e-07 0.0014175)
(0.0032938 -4.6086e-07 0.0012757)
(0.0073245 -0.001405 -0.0089492)
(-0.0052669 -0.00099732 -0.0063615)
(-0.013558 -0.00075675 -0.0040976)
(-0.017743 -0.00071893 -0.002048)
(-0.018532 -0.00070175 0.00010548)
(-0.016686 -0.00042416 0.0013795)
(-0.013494 -0.00026075 0.0019755)
(-0.0098582 -0.00019645 0.0021195)
(-0.0064581 -0.00021459 0.0016474)
(-0.0036005 -0.00019108 0.0014585)
(-0.0016649 2.9167e-06 0.0017942)
(0.0035757 0.00030082 0.0016771)
(0.0065651 -0.0019602 -0.01029)
(-0.0059843 -0.00059892 -0.0067826)
(-0.014056 0.00042526 -0.0038988)
(-0.018126 0.00093029 -0.0013854)
(-0.018836 0.00075548 0.00093594)
(-0.016794 0.00094827 0.0023403)
(-0.013338 0.00095095 0.0029322)
(-0.0094405 0.00078954 0.0027643)
(-0.0059922 0.00053462 0.0022148)
(-0.0032162 0.00042335 0.0018686)
(-0.001207 0.00060596 0.0022872)
(0.0037551 0.00071943 0.0021082)
(0.0069449 0.0068495 0.0043627)
(-0.005582 0.0041183 0.0023336)
(-0.013686 0.0019092 0.00070917)
(-0.017745 0.00020187 -0.00041108)
(-0.018569 -0.0010167 -0.0010109)
(-0.01667 -0.0018254 -0.0015951)
(-0.013307 -0.002153 -0.0017354)
(-0.009526 -0.0020013 -0.0015848)
(-0.0061398 -0.0015241 -0.0011871)
(-0.0033787 -0.0012741 -0.0009864)
(-0.0013847 -0.0016259 -0.0011687)
(0.0036243 -0.0016668 -0.0011131)
(0.0076991 0.0061015 0.0038089)
(-0.0048595 0.0042757 0.002687)
(-0.013195 0.002683 0.0017464)
(-0.017451 0.0014033 0.001019)
(-0.01835 0.00021251 0.00024312)
(-0.016595 -0.00063044 -0.00040306)
(-0.013471 -0.0010576 -0.00068712)
(-0.0099422 -0.0012076 -0.00079577)
(-0.0065984 -0.00088806 -0.00058749)
(-0.0037379 -0.00080023 -0.00052073)
(-0.0018108 -0.0011081 -0.00068308)
(0.0034394 -0.0012233 -0.00070006)
(0.0084556 0.0042964 0.0022086)
(-0.0040631 0.0030409 0.0016035)
(-0.01245 0.001846 0.0010212)
(-0.01669 0.00080828 0.00049083)
(-0.017709 -0.00022082 -0.00012538)
(-0.016265 -0.00075627 -0.00050142)
(-0.013378 -0.0010054 -0.00061148)
(-0.01005 -0.0010919 -0.0006485)
(-0.006845 -0.00088447 -0.00055115)
(-0.0040467 -0.00078828 -0.00048168)
(-0.002206 -0.00094203 -0.00050616)
(0.0031559 -0.00086823 -0.00037202)
(0.0088166 0.0020493 2.972e-06)
(-0.0036725 0.0014338 2.8177e-06)
(-0.012093 0.00081863 2.8502e-06)
(-0.016389 0.00032029 2.6658e-06)
(-0.017497 -0.00010596 2.9048e-06)
(-0.016166 -0.00031986 2.8084e-06)
(-0.013354 -0.00041853 2.362e-06)
(-0.010126 -0.00047705 2.2652e-06)
(-0.006992 -0.00037463 1.9664e-06)
(-0.0042019 -0.00034911 1.5642e-06)
(-0.0023715 -0.00045762 9.2764e-07)
(0.0030081 -0.00048794 2.3267e-07)
(0.0088166 -5.0162e-07 -0.0020471)
(-0.0036725 -3.4345e-07 -0.0014319)
(-0.012093 -1.122e-07 -0.00081654)
(-0.016389 3.2854e-09 -0.00031803)
(-0.017497 -8.1217e-07 0.00010783)
(-0.016166 1.7145e-07 0.00032248)
(-0.013353 -1.3255e-06 0.00041982)
(-0.010126 -1.2116e-06 0.0004784)
(-0.006992 -9.6494e-07 0.00037588)
(-0.0042021 -7.7081e-07 0.00035019)
(-0.0023717 -4.0751e-07 0.00045822)
(0.0030081 -2.1802e-07 0.00048811)
(0.0084556 -0.0022055 -0.0042948)
(-0.004063 -0.0016003 -0.0030399)
(-0.01245 -0.0010177 -0.0018443)
(-0.01669 -0.00048745 -0.00080633)
(-0.017709 0.0001275 0.00022244)
(-0.016265 0.00050276 0.00075596)
(-0.013377 0.00061244 0.0010072)
(-0.01005 0.00064925 0.0010942)
(-0.0068449 0.00055167 0.00088671)
(-0.0040467 0.00048194 0.00078999)
(-0.002206 0.00050595 0.00094339)
(0.0031561 0.00037181 0.00086853)
(0.0076991 -0.0038057 -0.0061004)
(-0.0048595 -0.0026834 -0.0042756)
(-0.013195 -0.0017425 -0.0026823)
(-0.01745 -0.0010152 -0.0014018)
(-0.018349 -0.00023995 -0.00021094)
(-0.016595 0.00040264 0.0006305)
(-0.013471 0.00068779 0.0010594)
(-0.0099419 0.00079593 0.0012094)
(-0.0065978 0.00058745 0.00088981)
(-0.0037374 0.00052069 0.00080158)
(-0.0018103 0.00068309 0.0011092)
(0.0034399 0.00070011 0.0012238)
(0.0069449 -0.0043603 -0.0068489)
(-0.005582 -0.002329 -0.004119)
(-0.013687 -0.00070384 -0.0019091)
(-0.017745 0.00041609 -0.00020031)
(-0.018568 0.0010139 0.0010178)
(-0.016668 0.0015961 0.0018278)
(-0.013306 0.0017347 0.0021553)
(-0.0095257 0.0015826 0.0020039)
(-0.0061394 0.001185 0.0015271)
(-0.003378 0.00098452 0.0012763)
(-0.0013839 0.0011676 0.0016278)
(0.0036252 0.0011125 0.0016676)
(0.006945 0.0043595 0.0068534)
(-0.005582 0.0023287 0.0041238)
(-0.013686 0.00070481 0.0019142)
(-0.017746 -0.00041426 0.00020482)
(-0.01857 -0.0010137 -0.001014)
(-0.01667 -0.0015979 -0.0018235)
(-0.013307 -0.0017371 -0.002152)
(-0.0095263 -0.0015851 -0.0020008)
(-0.0061399 -0.0011868 -0.0015249)
(-0.0033786 -0.00098569 -0.0012749)
(-0.0013847 -0.0011677 -0.001627)
(0.0036245 -0.0011127 -0.0016673)
(0.0076991 0.0038054 0.0061057)
(-0.0048595 0.002683 0.0042804)
(-0.013195 0.0017428 0.0026872)
(-0.017451 0.0010159 0.0014065)
(-0.01835 0.00023918 0.00021633)
(-0.016595 -0.00040652 -0.00062752)
(-0.013471 -0.00069042 -0.001055)
(-0.0099424 -0.00079885 -0.0012055)
(-0.0065984 -0.00058963 -0.00088761)
(-0.0037381 -0.0005221 -0.00079986)
(-0.0018109 -0.00068373 -0.0011084)
(0.0034393 -0.00070047 -0.0012233)
(0.0084557 0.002205 0.0043003)
(-0.004063 0.0015999 0.0030451)
(-0.01245 0.0010179 0.0018498)
(-0.01669 0.00048806 0.00081129)
(-0.017709 -0.0001282 -0.00021751)
(-0.016266 -0.00050429 -0.0007527)
(-0.013378 -0.0006141 -0.0010027)
(-0.01005 -0.00065114 -0.0010898)
(-0.006845 -0.00055282 -0.00088336)
(-0.0040468 -0.00048293 -0.00078744)
(-0.0022061 -0.0005066 -0.00094196)
(0.0031557 -0.00037241 -0.00086798)
(0.0088166 -3.2469e-07 0.0020528)
(-0.0036725 -1.8248e-07 0.0014375)
(-0.012093 4.889e-09 0.00082195)
(-0.016389 1.0639e-07 0.00032315)
(-0.017497 -4.3755e-07 -0.0001025)
(-0.016166 3.7547e-07 -0.00031719)
(-0.013354 -1.1187e-06 -0.00041539)
(-0.010126 -1.0911e-06 -0.00047408)
(-0.006992 -5.8125e-07 -0.00037269)
(-0.004202 -3.8642e-07 -0.00034759)
(-0.0023715 -4.9414e-08 -0.00045677)
(0.0030079 -2.776e-07 -0.00048757)
(0.0088165 -0.0020499 2.9518e-06)
(-0.0036725 -0.0014343 2.7941e-06)
(-0.012093 -0.00081885 2.8714e-06)
(-0.016389 -0.00031997 2.6841e-06)
(-0.017497 0.00010493 2.7269e-06)
(-0.016166 0.00032007 2.7612e-06)
(-0.013354 0.00041638 2.293e-06)
(-0.010126 0.00047478 2.2049e-06)
(-0.006992 0.00037323 1.6506e-06)
(-0.0042021 0.00034797 1.2718e-06)
(-0.0023716 0.000457 6.4777e-07)
(0.0030079 0.00048744 2.4972e-07)
(0.0084551 -0.0042964 -0.0022026)
(-0.0040634 -0.0030409 -0.0015977)
(-0.01245 -0.0018452 -0.0010153)
(-0.01669 -0.00080699 -0.00048511)
(-0.017709 0.000221 0.00013016)
(-0.016265 0.00075316 0.00050595)
(-0.013378 0.0010043 0.00061609)
(-0.01005 0.0010911 0.00065327)
(-0.0068449 0.0008842 0.00055466)
(-0.004047 0.00078779 0.00048452)
(-0.0022065 0.0009419 0.00050766)
(0.0031554 0.00086772 0.0003726)
(0.0076982 -0.0061007 -0.0038034)
(-0.0048603 -0.004275 -0.0026813)
(-0.013196 -0.0026815 -0.0017405)
(-0.017451 -0.001401 -0.0010133)
(-0.018349 -0.00021199 -0.00023704)
(-0.016595 0.00062905 0.00040612)
(-0.013472 0.0010569 0.00069215)
(-0.009942 0.0012061 0.00080055)
(-0.0065976 0.00088784 0.0005913)
(-0.0037375 0.00079965 0.00052318)
(-0.0018107 0.0011081 0.00068452)
(0.0034391 0.0012231 0.00070072)
(0.0069443 -0.0068493 -0.0043592)
(-0.0055825 -0.0041186 -0.0023287)
(-0.013687 -0.0019086 -0.00070364)
(-0.017745 -0.00019928 0.00041652)
(-0.018568 0.0010166 0.001016)
(-0.016668 0.001826 0.0015999)
(-0.013306 0.0021525 0.001739)
(-0.0095255 0.0019997 0.0015871)
(-0.006139 0.0015241 0.0011892)
(-0.0033776 0.0012733 0.00098791)
(-0.001384 0.0016258 0.0011696)
(0.0036247 0.0016666 0.0011135)
(0.0065653 0.0019593 0.010295)
(-0.0059842 0.00059875 0.0067869)
(-0.014056 -0.00042451 0.0039026)
(-0.018126 -0.00092846 0.0013895)
(-0.018837 -0.00075576 -0.0009338)
(-0.016795 -0.00094789 -0.0023354)
(-0.013338 -0.00095328 -0.0029272)
(-0.0094412 -0.0007924 -0.0027616)
(-0.0059934 -0.00053587 -0.0022111)
(-0.0032176 -0.00042422 -0.0018665)
(-0.0012081 -0.00060602 -0.0022855)
(0.0037541 -0.00071975 -0.0021077)
(0.0073245 0.0014039 0.0089545)
(-0.0052669 0.00099682 0.0063665)
(-0.013558 0.00075657 0.0041023)
(-0.017743 0.00071932 0.0020525)
(-0.018533 0.00070049 -0.00010131)
(-0.016686 0.00042062 -0.0013747)
(-0.013493 0.00025806 -0.0019708)
(-0.0098592 0.00019395 -0.0021162)
(-0.0064597 0.00021269 -0.001644)
(-0.0036016 0.00018941 -0.0014569)
(-0.0016661 -3.9996e-06 -0.0017932)
(0.0035747 -0.0003013 -0.0016767)
(0.0080892 -1.8921e-07 0.0067522)
(-0.0044556 -3.9427e-08 0.0048041)
(-0.012801 2.7195e-07 0.0029894)
(-0.016982 5.49e-07 0.0013662)
(-0.017892 2.5568e-07 -0.00026681)
(-0.016355 -5.9031e-07 -0.0011602)
(-0.01341 -4.9817e-07 -0.0015665)
(-0.0099724 1.864e-07 -0.0016741)
(-0.0067027 8.7186e-08 -0.0013617)
(-0.0039045 9.4358e-08 -0.0012009)
(-0.0020525 4.5151e-08 -0.001416)
(0.0032929 -1.5764e-07 -0.0012752)
(0.0084552 -0.0022056 0.0042999)
(-0.0040635 -0.0016003 0.0030446)
(-0.01245 -0.001018 0.0018493)
(-0.01669 -0.0004877 0.00081082)
(-0.017709 0.0001277 -0.0002183)
(-0.016265 0.00050307 -0.00075168)
(-0.013378 0.00061219 -0.0010034)
(-0.010051 0.00064977 -0.0010911)
(-0.0068455 0.0005519 -0.00088393)
(-0.0040473 0.00048248 -0.00078809)
(-0.0022069 0.00050637 -0.00094216)
(0.0031552 0.00037198 -0.00086806)
(0.0084554 -0.0042973 0.0022086)
(-0.0040631 -0.0030418 0.0016036)
(-0.01245 -0.0018463 0.0010212)
(-0.01669 -0.00080806 0.00049079)
(-0.017709 0.00022005 -0.00012468)
(-0.016265 0.00075262 -0.00050078)
(-0.013377 0.0010033 -0.00061143)
(-0.010051 0.0010907 -0.00064919)
(-0.0068454 0.00088346 -0.0005515)
(-0.0040473 0.00078744 -0.0004822)
(-0.0022066 0.00094161 -0.00050637)
(0.0031555 0.00086779 -0.00037208)
(0.0080888 -0.0067485 3.5267e-06)
(-0.0044558 -0.0048002 3.3746e-06)
(-0.012801 -0.0029853 3.6598e-06)
(-0.016981 -0.0013627 3.446e-06)
(-0.017892 0.00026876 3.2494e-06)
(-0.016354 0.0011606 2.998e-06)
(-0.013409 0.0015668 2.833e-06)
(-0.0099724 0.0016738 2.1664e-06)
(-0.0067026 0.0013612 1.9398e-06)
(-0.0039042 0.0012004 1.344e-06)
(-0.0020524 0.0014154 7.9914e-07)
(0.0032927 0.0012748 2.8123e-07)
(0.0073227 -0.008948 -0.001401)
(-0.0052685 -0.0063596 -0.00099373)
(-0.01356 -0.0040958 -0.00075309)
(-0.017744 -0.0020459 -0.00071559)
(-0.018533 0.00010627 -0.00069868)
(-0.016687 0.0013784 -0.00041967)
(-0.013494 0.0019737 -0.00025595)
(-0.0098591 0.002118 -0.0001927)
(-0.006459 0.0016451 -0.0002114)
(-0.0036008 0.001457 -0.00018881)
(-0.0016657 0.0017928 4.3588e-06)
(0.0035741 0.0016762 0.00030136)
(0.0065638 -0.010289 -0.0019579)
(-0.0059854 -0.0067805 -0.00059709)
(-0.014057 -0.0038969 0.0004279)
(-0.018126 -0.0013831 0.0009326)
(-0.018836 0.00093744 0.00075842)
(-0.016794 0.0023392 0.00095078)
(-0.013338 0.0029301 0.00095548)
(-0.0094405 0.0027634 0.00079414)
(-0.0059921 0.002212 0.00053866)
(-0.0032159 0.0018667 0.00042583)
(-0.0012074 0.0022852 0.00060769)
(0.0037533 0.0021073 0.00072015)
(0.0057815 -0.00096961 0.01203)
(-0.0068394 -0.0020437 0.0077161)
(-0.014903 -0.0027744 0.0044197)
(-0.019152 -0.0027836 0.0017706)
(-0.019726 -0.0017607 -0.00066033)
(-0.017221 -0.0013158 -0.0023101)
(-0.013422 -0.00099309 -0.0030199)
(-0.0092747 -0.00072126 -0.0027437)
(-0.0056812 -0.00041716 -0.0021353)
(-0.002819 -0.00029992 -0.0016503)
(-0.00070303 -0.00030084 -0.0023186)
(0.0041028 -0.00029749 -0.0025187)
(0.0065107 -1.371e-06 0.011559)
(-0.0061555 -8.1207e-07 0.008408)
(-0.014441 -8.8189e-07 0.0058258)
(-0.01873 -6.9125e-07 0.0034306)
(-0.019316 -1.2736e-06 0.00060117)
(-0.017021 -4.1631e-06 -0.0012013)
(-0.013563 -1.3196e-06 -0.0020902)
(-0.0096863 -9.2877e-07 -0.002234)
(-0.0061486 -8.0445e-07 -0.0017319)
(-0.003244 -5.0631e-07 -0.0015195)
(-0.0011646 -2.1101e-07 -0.0020329)
(0.0039981 -8.6288e-08 -0.0020268)
(0.0073232 -0.0014047 0.0089529)
(-0.0052683 -0.00099719 0.0063645)
(-0.01356 -0.00075681 0.0041004)
(-0.017745 -0.00071913 0.0020505)
(-0.018534 -0.00070155 -0.00010263)
(-0.016688 -0.00042357 -0.0013767)
(-0.013496 -0.0002598 -0.0019731)
(-0.0098594 -0.00019521 -0.0021178)
(-0.0064588 -0.00021352 -0.0016458)
(-0.003601 -0.00018983 -0.0014579)
(-0.001666 3.6816e-06 -0.0017936)
(0.003574 0.00030097 -0.0016768)
(0.0076984 -0.0038061 0.0061048)
(-0.0048601 -0.0026837 0.0042796)
(-0.013196 -0.0017435 0.0026867)
(-0.017451 -0.0010162 0.0014058)
(-0.01835 -0.00024084 0.0002147)
(-0.016595 0.00040296 -0.00062679)
(-0.013472 0.00068782 -0.0010563)
(-0.0099426 0.00079642 -0.0012066)
(-0.0065982 0.0005882 -0.00088858)
(-0.0037382 0.00052118 -0.0008005)
(-0.0018112 0.00068336 -0.0011086)
(0.0034386 0.00070004 -0.0012235)
(0.0076989 -0.0061024 0.0038093)
(-0.0048595 -0.0042767 0.002687)
(-0.013195 -0.0026835 0.0017464)
(-0.01745 -0.0014031 0.0010189)
(-0.018349 -0.0002141 0.00024239)
(-0.016595 0.00062775 -0.00040097)
(-0.013472 0.0010553 -0.00068722)
(-0.0099423 0.0012049 -0.0007963)
(-0.0065982 0.00088701 -0.00058817)
(-0.0037383 0.00079917 -0.00052125)
(-0.0018111 0.0011077 -0.00068349)
(0.003439 0.001223 -0.00070031)
(0.0073239 -0.0089505 0.001408)
(-0.0052671 -0.006362 0.0010004)
(-0.013558 -0.0040982 0.00076013)
(-0.017742 -0.0020484 0.00072237)
(-0.018532 0.00010386 0.00070495)
(-0.016685 0.0013759 0.00042522)
(-0.013493 0.0019713 0.00026123)
(-0.0098589 0.0021154 0.00019717)
(-0.0064594 0.0016432 0.000215)
(-0.0036016 0.0014559 0.00019106)
(-0.001666 0.0017924 -3.0484e-06)
(0.0035743 0.0016761 -0.00030091)
(0.0065099 -0.011554 3.5077e-06)
(-0.0061556 -0.0084025 3.336e-06)
(-0.014441 -0.0058216 3.2526e-06)
(-0.018729 -0.0034259 3.2447e-06)
(-0.019314 -0.00059771 3.1502e-06)
(-0.01702 0.0012036 2.0567e-06)
(-0.013562 0.0020917 2.263e-06)
(-0.0096858 0.0022346 1.7752e-06)
(-0.0061481 0.0017311 9.8998e-07)
(-0.0032438 0.0015185 7.6168e-07)
(-0.0011643 0.0020316 4.8119e-07)
(0.003998 0.0020262 2.6695e-07)
(0.0057794 -0.012024 0.00097018)
(-0.0068401 -0.0077103 0.0020454)
(-0.014903 -0.0044173 0.0027786)
(-0.019151 -0.0017668 0.0027883)
(-0.019725 0.00066196 0.001763)
(-0.01722 0.0023131 0.0013181)
(-0.013421 0.0030242 0.0009939)
(-0.009274 0.0027464 0.00072229)
(-0.0056803 0.0021374 0.00041858)
(-0.0028181 0.0016516 0.00030087)
(-0.00070271 0.0023186 0.00030219)
(0.0041018 0.0025185 0.0002982)
(0.0047516 -5.5877e-07 0.016566)
(-0.0078421 -2.5629e-07 0.0094051)
(-0.015737 -6.1783e-07 0.0032424)
(-0.020067 -7.0294e-07 -0.0012673)
(-0.020601 -1.3847e-06 -0.0037511)
(-0.017782 -2.7525e-06 -0.0055664)
(-0.013587 -1.0826e-06 -0.0060615)
(-0.009118 -1.7039e-06 -0.0052276)
(-0.005302 -9.0259e-07 -0.0040469)
(-0.002315 -5.7536e-07 -0.0031282)
(-0.00017538 -3.359e-08 -0.0038503)
(0.004188 -9.2762e-08 -0.0034422)
(0.0057803 0.0009676 0.012028)
(-0.0068404 0.0020423 0.007714)
(-0.014903 0.002772 0.0044185)
(-0.019152 0.0027822 0.0017687)
(-0.019726 0.0017573 -0.00066226)
(-0.017221 0.0013118 -0.0023127)
(-0.013423 0.00099062 -0.0030228)
(-0.0092753 0.00071895 -0.0027468)
(-0.0056815 0.00041641 -0.0021383)
(-0.0028186 0.00029942 -0.0016524)
(-0.00070289 0.00030074 -0.0023197)
(0.0041024 0.00029732 -0.0025189)
(0.0065641 -0.0019599 0.010295)
(-0.0059852 -0.00059954 0.006786)
(-0.014057 0.00042392 0.0039019)
(-0.018127 0.00092879 0.0013885)
(-0.018837 0.00075453 -0.00093318)
(-0.016796 0.0009485 -0.0023369)
(-0.013339 0.00095174 -0.0029293)
(-0.0094414 0.00079049 -0.0027625)
(-0.005993 0.00053564 -0.0022128)
(-0.0032167 0.00042407 -0.0018676)
(-0.0012077 0.00060625 -0.0022864)
(0.0037535 0.00071939 -0.0021079)
(0.0069446 -0.0043605 0.0068542)
(-0.005582 -0.0023295 0.0041241)
(-0.013687 -0.00070521 0.0019148)
(-0.017745 0.00041457 0.00020577)
(-0.018568 0.001013 -0.0010124)
(-0.016669 0.0015964 -0.0018227)
(-0.013307 0.001735 -0.0021517)
(-0.0095267 0.0015828 -0.0020003)
(-0.0061403 0.0011866 -0.0015248)
(-0.0033784 0.00098517 -0.0012747)
(-0.0013845 0.0011679 -0.0016269)
(0.0036241 0.0011125 -0.0016673)
(0.0069443 -0.0068501 0.0043647)
(-0.0055822 -0.0041193 0.0023343)
(-0.013687 -0.0019096 0.00071012)
(-0.017745 -0.00020051 -0.00041013)
(-0.018568 0.001016 -0.0010099)
(-0.016669 0.0018256 -0.0015944)
(-0.013306 0.002152 -0.0017341)
(-0.0095266 0.0019995 -0.0015828)
(-0.0061406 0.0015236 -0.0011869)
(-0.0033789 0.0012735 -0.00098596)
(-0.0013849 0.0016258 -0.0011688)
(0.0036241 0.0016667 -0.0011131)
(0.0065642 -0.010291 0.0019641)
(-0.0059846 -0.0067824 0.00060319)
(-0.014056 -0.0038986 -0.00042093)
(-0.018125 -0.0013854 -0.0009256)
(-0.018835 0.00093566 -0.00075258)
(-0.016794 0.0023376 -0.00094457)
(-0.013338 0.0029289 -0.00095053)
(-0.009441 0.0027614 -0.00078965)
(-0.0059937 0.0022113 -0.00053516)
(-0.0032177 0.0018661 -0.00042376)
(-0.0012085 0.0022852 -0.00060653)
(0.0037532 0.0021074 -0.0007198)
(0.0057801 -0.012025 -0.0009641)
(-0.0068394 -0.0077121 -0.0020397)
(-0.014902 -0.0044187 -0.002773)
(-0.01915 -0.0017688 -0.0027825)
(-0.019724 0.00065983 -0.0017578)
(-0.017219 0.0023109 -0.0013137)
(-0.01342 0.0030215 -0.0009894)
(-0.0092742 0.0027439 -0.0007184)
(-0.0056813 0.0021357 -0.00041612)
(-0.0028189 0.0016501 -0.00029925)
(-0.00070317 0.0023181 -0.0003013)
(0.0041021 0.0025184 -0.00029775)
(0.0047512 -0.016563 2.9519e-06)
(-0.0078403 -0.0094032 2.84e-06)
(-0.015735 -0.0032413 2.7586e-06)
(-0.020067 0.0012681 2.9992e-06)
(-0.020599 0.0037506 2.587e-06)
(-0.017782 0.0055659 1.6357e-06)
(-0.013587 0.0060626 1.2652e-06)
(-0.0091167 0.0052279 1.6057e-06)
(-0.0053016 0.004048 3.1371e-07)
(-0.0023145 0.0031286 2.9871e-07)
(-0.00017554 0.003851 2.8179e-08)
(0.0041867 0.0034422 6.0309e-08)
(0.0063013 -0.0047915 0.0006769)
(0.0029924 -0.0063006 0.0011879)
(0.00082212 -0.0056752 0.0012175)
(-0.0028167 -0.0071596 0.0016432)
(-0.0074229 -0.008425 0.0020453)
(-0.012757 -0.0084286 0.0022389)
(-0.017857 -0.0061625 0.0021357)
(-0.02118 -0.0011498 0.001676)
(-0.021953 0.0068345 0.0006198)
(-0.019705 0.017205 -0.0012013)
(-0.012892 0.027385 -0.0029865)
(0.00012703 0.035448 -0.0045902)
(0.0060485 -0.0043347 0.00091223)
(0.0023698 -0.0054654 0.0010978)
(0.00064728 -0.0047673 0.00084535)
(-0.0027791 -0.006035 0.00099684)
(-0.0071752 -0.0072671 0.0010301)
(-0.012072 -0.007302 0.0009822)
(-0.016523 -0.0055336 0.00053605)
(-0.01932 -0.0015103 -0.00046427)
(-0.019646 0.004971 -0.0022036)
(-0.016958 0.013694 -0.0043474)
(-0.010136 0.022485 -0.0058144)
(0.0023093 0.029941 -0.0066621)
(0.0057743 -0.0037933 0.0020165)
(0.0019735 -0.0046549 0.0026427)
(0.00013448 -0.0039274 0.0022698)
(-0.003281 -0.0049227 0.0026884)
(-0.0075077 -0.0058997 0.0030321)
(-0.012261 -0.0058683 0.0029865)
(-0.01675 -0.0042716 0.0019954)
(-0.019546 -0.00077984 -0.00030064)
(-0.019657 0.0049555 -0.0038983)
(-0.016533 0.012335 -0.0083404)
(-0.0092279 0.019616 -0.012286)
(0.0032848 0.026003 -0.015239)
(0.0057221 -0.0033185 0.0026275)
(0.0017566 -0.0040814 0.0033487)
(1.997e-05 -0.0034207 0.0028957)
(-0.0033158 -0.00419 0.0035693)
(-0.0074636 -0.0049359 0.0042658)
(-0.012095 -0.0048692 0.0042994)
(-0.016435 -0.0034079 0.0032998)
(-0.019109 -0.00024868 0.00091491)
(-0.019178 0.0048904 -0.0030625)
(-0.016102 0.011328 -0.0082596)
(-0.0088304 0.017508 -0.013326)
(0.0036213 0.022844 -0.017699)
(0.0057221 -0.0026277 0.0033181)
(0.0017566 -0.0033489 0.004081)
(1.9895e-05 -0.0028957 0.0034203)
(-0.0033156 -0.0035692 0.0041896)
(-0.0074632 -0.0042657 0.0049356)
(-0.012095 -0.0042989 0.0048696)
(-0.016436 -0.003299 0.0034088)
(-0.019109 -0.00091365 0.00024961)
(-0.019178 0.0030639 -0.0048894)
(-0.016102 0.0082616 -0.011327)
(-0.0088305 0.013327 -0.017507)
(0.0036214 0.0177 -0.022843)
(0.0057741 -0.0020165 0.0037929)
(0.0019736 -0.002642 0.0046544)
(0.00013458 -0.0022688 0.003927)
(-0.0032812 -0.0026872 0.0049223)
(-0.0075077 -0.0030306 0.0058994)
(-0.012261 -0.0029853 0.005868)
(-0.016749 -0.001994 0.0042707)
(-0.019545 0.00030334 0.00078029)
(-0.019657 0.0039022 -0.0049554)
(-0.016533 0.0083443 -0.012334)
(-0.0092284 0.012288 -0.019616)
(0.0032842 0.01524 -0.026003)
(0.0060485 -0.00091153 0.0043345)
(0.0023703 -0.001096 0.0054653)
(0.00064743 -0.00084325 0.0047673)
(-0.0027787 -0.00099456 0.006035)
(-0.0071748 -0.0010276 0.0072671)
(-0.012072 -0.00098047 0.0073019)
(-0.016522 -0.0005342 0.0055333)
(-0.019318 0.00046396 0.0015094)
(-0.019645 0.0022043 -0.0049722)
(-0.016959 0.0043464 -0.013696)
(-0.010137 0.005814 -0.022486)
(0.0023088 0.0066619 -0.029942)
(0.0063022 -0.00067592 0.0047913)
(0.0029929 -0.0011858 0.0062999)
(0.00082235 -0.0012153 0.0056749)
(-0.0028168 -0.0016407 0.0071591)
(-0.0074232 -0.0020429 0.0084245)
(-0.012758 -0.0022363 0.0084279)
(-0.017857 -0.0021336 0.006161)
(-0.02118 -0.0016749 0.0011474)