/*--------------------------------*- C++ -*----------------------------------*\
  =========                 |
  \\      /  F ield         | OpenFOAM: The Open Source CFD Toolbox
   \\    /   O peration     | Website:  https://openfoam.org
    \\  /    A nd           | Version:  8
     \\/     M anipulation  |
\*---------------------------------------------------------------------------*/
FoamFile
{
    version     2.0;
    format      ascii;
    class       volVectorField;
    location    "0.0385000";
    object      U_0;
}
// * * * * * * * * * * * * * * * * * * * * * * * * * * * * * * * * * * * * * //

dimensions      [0 1 -1 0 0 0 0];

internalField   nonuniform List<vector> 
900
(
(0.750932882514152 0.000348100368072888 -2.27708610371477e-18)
(0.751537546890096 0.000203913886361222 4.27731671075947e-18)
(0.751603188052503 0.00015829174910021 2.83710608644931e-18)
(0.751777468597736 0.000180906077948771 1.39387187014803e-17)
(0.751815591025419 0.000188200003758962 1.38089665058032e-18)
(0.751814223437211 0.000194181416347182 1.91377232561677e-17)
(0.751797962878028 0.000198017974991982 2.51271183052311e-17)
(0.751779174414734 0.000200514889733919 5.06342884392548e-18)
(0.751760464477763 0.000202902985096654 -5.29583910318162e-18)
(0.751742190347328 0.000205779874294804 6.02804994950536e-18)
(0.75172457805635 0.000208031436784544 3.79562787017074e-17)
(0.751707518289394 0.000209791645447282 1.15639329022978e-18)
(0.751690403978779 0.000211716167357339 -2.74190043886727e-17)
(0.751674141595052 0.000213949445978088 3.32132431780324e-17)
(0.751658515959339 0.000215632949575148 3.97786462381341e-17)
(0.751642416836835 0.000217314812473075 7.5099257414798e-18)
(0.751625774231698 0.000219353980856171 -1.55855373199616e-17)
(0.751609551277818 0.000221222319139955 6.40376852925638e-17)
(0.751593848683833 0.000222670685856729 -1.44228664707958e-17)
(0.751577814726709 0.000224186215615825 6.6718552027392e-17)
(0.751562782912344 0.000226278821052611 -2.26943346660604e-17)
(0.751548312928928 0.000228043918629746 -6.01518911372647e-17)
(0.751532903421192 0.000229563767213631 -2.57723218998554e-17)
(0.751518190295191 0.000231342294018917 -6.71662057699437e-17)
(0.751504474178178 0.000233584181633266 -3.32550202446796e-17)
(0.751490858603115 0.00023528149484635 5.05535234058971e-18)
(0.751477583026685 0.000236957877082693 -2.06135295241442e-18)
(0.751465140718036 0.000239409816536535 -1.14287520307073e-16)
(0.751453763492154 0.000241631469533782 -1.2367835322732e-17)
(0.751442894475202 0.00024357272671599 1.31897886912007e-18)
(0.751432240206778 0.000245833483464347 4.80859730730413e-17)
(0.751423914655786 0.000248850809327892 -5.13417153332325e-17)
(0.751418221785017 0.000251164152215689 -1.68417447511797e-17)
(0.751413623027269 0.000253638596616794 -3.8857597950809e-17)
(0.751410702396202 0.000257166399256345 -1.5897022705382e-17)
(0.751411147888983 0.000260813605109662 -6.30516249706047e-17)
(0.751414884436643 0.000263840290383805 -4.62046181875444e-17)
(0.751421064040184 0.000267345841835266 1.04023531356968e-17)
(0.75143218345335 0.000273217587316892 -6.01355821475049e-17)
(0.751449037268591 0.000277846370334485 6.93453880868187e-17)
(0.751470302843112 0.000282499808145927 9.85657713251043e-18)
(0.75149719587617 0.000288965976517527 -5.25441925011467e-17)
(0.751532938033319 0.000297218064930036 -5.25417723273493e-17)
(0.751577587068514 0.000304216152313063 5.71129558853067e-17)
(0.751630211513488 0.000311914739773355 1.58396018963569e-17)
(0.751696891374782 0.000324117287900913 -9.47267154077505e-18)
(0.751780431621775 0.000335859273729352 -1.1598066698888e-16)
(0.751878478736538 0.000347104860711676 7.28479006915463e-17)
(0.75199374452765 0.000361730967476517 1.50259344660705e-17)
(0.752132766019042 0.000383132571600689 -4.69434141293052e-18)
(0.752297720450045 0.00040083659944788 -4.0208640777842e-17)
(0.752490989020092 0.000419913985853082 -4.02583228200521e-18)
(0.752721104731434 0.000449497813850921 7.6426578666809e-18)
(0.75299443457077 0.000481186502965036 -7.07672385050864e-17)
(0.753312921812421 0.000509433723734029 -3.0420669449211e-17)
(0.753687291759395 0.000543489897371406 1.90442079260895e-17)
(0.754130162404801 0.000599924745478974 9.38528830875365e-17)
(0.754648891182862 0.000644533149533975 6.33342916185765e-17)
(0.755259128221058 0.000691041621305169 1.33049017877513e-17)
(0.75597680107859 0.000760686981477505 3.88935130320575e-17)
(0.756816917100557 0.000841175024177265 -4.10070148495219e-17)
(0.75779629649544 0.000907776691757314 -2.00611933960668e-18)
(0.758963940277536 0.000981500711642496 1.21947021338081e-16)
(0.760338892617789 0.00112235127096674 -3.67428633221981e-18)
(0.761966798528724 0.00123759523579955 -5.56632953075187e-17)
(0.764009763084091 0.00136463802802832 -7.08708139066218e-17)
(0.766693382022127 0.00158478702581891 1.0154319249498e-16)
(0.770189791993123 0.00192078065558322 2.84375181715232e-17)
(0.774527781490031 0.00218532663976907 6.26949941932904e-17)
(0.779850121501917 0.00245043853046435 4.91269257888694e-17)
(0.785910824433347 0.00289298805526094 8.05992287621816e-17)
(0.792685302158045 0.00306207700046444 2.60196580961514e-17)
(0.800450910133491 0.00315789146565763 3.66710812553254e-17)
(0.809109700270711 0.00324829209549935 1.62447401608728e-17)
(0.818594391924868 0.00323185216098597 -1.59736717720003e-17)
(0.829103038008381 0.00308597235559248 1.38783798556991e-17)
(0.840353734514204 0.00290407967728129 3.37823968794287e-17)
(0.852648696211358 0.00260454479112994 5.61757100992389e-17)
(0.865462697258021 0.00227303983020837 1.49714444691934e-17)
(0.879660928537531 0.00189340680540839 -7.72828876123214e-18)
(0.893761098628917 0.0014921900921423 3.68918213025483e-17)
(0.910395449516603 0.001002746140883 6.33327735380956e-18)
(0.925736815184653 0.000698779414350129 1.848240069965e-17)
(0.946365459648152 0.000231893950728984 -3.95708448020853e-17)
(0.962783807263241 9.61702352667917e-05 2.56632164651985e-18)
(0.991049209368851 -0.000264883763006422 -9.26222816478068e-18)
(1.00168857807215 0.000161803297957513 -2.62676651815179e-17)
(0.997266046906665 6.22908755817443e-05 -3.53133350144755e-18)
(1.00118381298829 0.000131770688556193 -1.50696142076796e-17)
(0.99920518692122 4.79295989774035e-05 4.36942229634737e-18)
(1.00024035515957 8.91436905841375e-05 9.9818759445137e-18)
(0.998820445836108 5.4233386800164e-05 -1.26449075332863e-17)
(0.998424268377231 4.7483338039659e-05 -8.39809080318502e-18)
(0.997080868095626 2.63023314309323e-05 -1.64004150182813e-19)
(0.996061862916381 1.88083650691175e-05 -2.18847390363007e-18)
(0.99465560886587 -4.87409421830482e-06 5.33890303086114e-18)
(0.993411263884256 -1.17126509287797e-05 -8.23451101309066e-18)
(0.992025109347044 -2.503970368813e-05 -1.36928110982109e-18)
(0.990843763147226 -2.80191503120792e-05 -1.31935107531246e-18)
(0.989611139232462 0.000197203854956046 -7.70830350875415e-19)
(0.394271705344209 0.00182527395220808 -3.19494750924569e-18)
(0.396307160324466 0.00196034465035019 5.76701339440499e-18)
(0.396613309462655 0.00201347617003028 7.80218358034602e-18)
(0.396964482424684 0.00214047120736511 1.43903490441395e-17)
(0.396995398005751 0.00221799765800435 1.21717466245221e-19)
(0.39692016161031 0.00225724712220092 2.90896340118904e-17)
(0.396802476293501 0.00227596943455002 2.77400315175475e-17)
(0.396673940464204 0.00228577530527828 7.70558190549202e-18)
(0.396543214445936 0.00229342545642173 -1.91524347282076e-17)
(0.396413156415578 0.00230150504797758 2.04703738155832e-17)
(0.396284015086375 0.00230861710335594 5.39880567048371e-17)
(0.396154525553344 0.00231498278085966 4.93222870235863e-17)
(0.396024146807468 0.00232160943476933 2.47206472299266e-17)
(0.395893848098857 0.00232879231528829 1.42485054255317e-16)
(0.395763220951033 0.00233507977725614 6.01978918423105e-17)
(0.395631130863225 0.00234137905310853 7.56161798826306e-18)
(0.395497906908002 0.00234829929699533 1.56192430043882e-17)
(0.395364335492883 0.00235496542699957 1.13381717284664e-16)
(0.395229921267979 0.0023609381186214 6.00768514139035e-17)
(0.395094001523888 0.00236706643878786 1.10994648161036e-16)
(0.394957792119454 0.00237428337419808 -1.21675423878866e-16)
(0.394821252697436 0.00238097390782684 -7.29447836211051e-17)
(0.394683045047252 0.00238731668528999 -6.41073315900208e-17)
(0.394543911922299 0.00239420210181823 -9.46061021103909e-17)
(0.394404788235817 0.00240199027017628 -9.03213521885115e-17)
(0.394265040393233 0.00240889989373837 -1.04488943535731e-16)
(0.394124166337586 0.00241587416082113 7.07532193107493e-18)
(0.39398310033569 0.00242436563912673 -1.7238955173428e-16)
(0.393842443100082 0.00243255451128748 -7.76790037532983e-17)
(0.393701282747129 0.00244034275824715 1.59064501655935e-18)
(0.393559524685771 0.00244884793396783 5.55312304770073e-17)
(0.393419331150702 0.0024589148051574 -7.01032520342069e-17)
(0.393280810824796 0.00246781679401778 -3.31304425030333e-17)
(0.393142614050653 0.00247717639179399 -1.20775975838684e-16)
(0.393006020196744 0.00248872521980216 -1.31206400550775e-16)
(0.392873077017913 0.00250070009005689 -2.01598229462929e-16)
(0.392743155498433 0.00251168483184052 -1.36439408298018e-16)
(0.392615761721255 0.00252385604989951 -4.96917789763617e-17)
(0.392494762058747 0.0025408615677464 -1.36609566533134e-16)
(0.392381519482285 0.00255575639730058 1.10092995102006e-16)
(0.392274436553912 0.00257092990387294 2.63034129395793e-17)
(0.392175844550758 0.00259003866936347 -1.05340681333297e-17)
(0.392091018446839 0.00261301682392442 -9.43015777595737e-17)
(0.392020554867824 0.00263387355562621 4.35604917306148e-17)
(0.391964281085774 0.00265657153640081 4.40899806925246e-17)
(0.391930605341472 0.002688691016518 -2.41201336528165e-17)
(0.391925354996478 0.00272043191842555 -2.18353763065625e-16)
(0.391947537476379 0.00275154503724655 1.91791369658368e-16)
(0.392002624202332 0.0027902790908587 4.45882467719698e-17)
(0.39210478849553 0.00284319001803936 -1.28726462019607e-17)
(0.392259830358898 0.00288929040027357 -1.22318411747946e-16)
(0.392471344471487 0.00293879561925412 -1.11286324014814e-17)
(0.392757815758789 0.00301051381664207 2.69216517367706e-17)
(0.393138239135573 0.00308735266865157 -2.18952667214306e-16)
(0.393618908442752 0.00315733442247938 -8.93928867329308e-17)
(0.39421742266672 0.0032410468299048 9.4037416952226e-17)
(0.394974071036406 0.00337070108792315 1.72172127076447e-16)
(0.395912555730297 0.0034774373553129 1.90997035048501e-16)
(0.397053081043569 0.00358795126763192 3.82442379772374e-17)
(0.398444341662034 0.00374756991277406 1.18926846945283e-16)
(0.400145565473225 0.00392987279496789 -1.26116017909781e-16)
(0.402193324424753 0.00408199271812924 8.68746114462376e-17)
(0.404653794619678 0.00425333158790354 2.07547444000234e-16)
(0.407648782188688 0.00456037235848038 -1.24786015757258e-17)
(0.411297506979658 0.00481960199055637 -8.01061971294262e-17)
(0.415795281073768 0.00510422186548957 -2.07737773818577e-16)
(0.421501312654382 0.00559505118639486 1.63939883417984e-16)
(0.428850835826323 0.00632043297941268 8.50418721029787e-17)
(0.438078704534025 0.00689486478003065 3.83444580545076e-17)
(0.449461373323884 0.0074755790803145 1.31428001022145e-17)
(0.463154678795831 0.00836391960287841 2.43058590410122e-16)
(0.479235912892223 0.00867976405031613 7.67942627757499e-17)
(0.497726446169464 0.00878487599588145 1.17933221740425e-16)
(0.518655907364763 0.00883700462014809 4.84620892145961e-17)
(0.541859987833883 0.00862697018171782 -4.87270891910353e-17)
(0.567596283304824 0.00811009328695773 1.79318727107152e-16)
(0.595202132969535 0.00746885691865106 1.01291730799261e-16)
(0.625432925398887 0.00655146674461982 1.71194971125217e-16)
(0.656839480767823 0.00554266002206823 1.39172533385894e-16)
(0.691705864825312 0.00438775786616165 -2.45687087462427e-17)
(0.72628923367635 0.00318128355650671 1.13340574192698e-16)
(0.766941906666531 0.00175600181119345 9.58774191059702e-17)
(0.804245173824261 0.000727933647836194 5.15128209241223e-17)
(0.854616303589234 -0.000711235740688947 -1.13725848031565e-16)
(0.894270210779685 -0.00142391826246938 7.6610851847719e-18)
(0.963319669897597 -0.00243420256523449 -2.72093497771601e-17)
(0.98823818189407 9.62485655834e-05 -7.76927971193817e-17)
(0.975347407993698 -0.000100622830520595 -1.03966254237008e-17)
(0.983491203014568 7.4150770701866e-05 -4.49341902418692e-17)
(0.976970244725227 -5.24233547341839e-05 1.30155747864659e-17)
(0.978262152200172 3.98469317994259e-05 3.09910226505655e-17)
(0.973769809007277 -8.38062230835191e-06 -5.73437842366302e-18)
(0.972039516127158 -5.70078181730504e-07 -2.52686375366904e-17)
(0.968059192066883 -2.91844051006403e-05 -1.52324658652142e-17)
(0.965028473193635 -3.27082606169227e-05 -6.59556216642327e-18)
(0.961085456522936 -6.36718297136175e-05 8.5097132748984e-18)
(0.957576848157178 -7.06029647218891e-05 -1.67717947284727e-17)
(0.953745840266532 -8.57784860355083e-05 -3.91727232845052e-18)
(0.950471014632262 -8.02842873449122e-05 -4.63164127404368e-18)
(0.947542320045749 0.000219856444635422 -1.36834867323655e-18)
(0.111808403593152 0.00389780726848622 -3.29701122046228e-18)
(0.115113414376026 0.00443118317795017 7.76416398936402e-19)
(0.115653120137678 0.00484865008571926 7.78129021452137e-18)
(0.116051908707191 0.00518793899897017 2.24032984030945e-17)
(0.116015748803541 0.00537882223900433 2.76921130281946e-17)
(0.115840542605104 0.00546740463486519 1.91237192567061e-17)
(0.115610342426633 0.00550568164831233 -1.9130074927136e-18)
(0.115364774529283 0.0055236037841191 7.83377762000305e-18)
(0.115115175098875 0.00553576432587979 -4.11951794914628e-17)
(0.11486569306583 0.00554745649671937 -2.87314006404957e-17)
(0.11461679352336 0.00555824180288442 7.32261483976692e-17)
(0.114366918118187 0.00556834665520376 1.00978347782229e-16)
(0.114115545449469 0.00557875655244108 4.92199096402767e-17)
(0.113863618575498 0.00558965895371898 9.06342125817734e-17)
(0.113610700282819 0.00559979067464116 5.99471742834361e-17)
(0.113355644200451 0.00560991992974418 -4.37571791281581e-18)
(0.113098955881294 0.00562064719631561 5.11026778624895e-17)
(0.112841299484066 0.00563113207148265 9.49536709665066e-17)
(0.112581929108085 0.00564094920463532 1.03662774549834e-16)
(0.112320185023466 0.00565098476959844 7.65411969834317e-17)
(0.112057272229365 0.00566206634242971 -6.42726430450602e-17)
(0.111793353882262 0.00567275559298918 -8.18114463013673e-17)
(0.111527119720818 0.00568310522999843 -9.98599680598878e-17)
(0.111258925581177 0.00569407966795594 -1.6455555307684e-16)
(0.110990008603227 0.00570596717466524 -1.4640443555305e-16)
(0.110719893619007 0.00571708710296513 -1.27401334620612e-16)
(0.110447604817776 0.0057283553070453 -5.50046363097515e-17)
(0.110174407378678 0.00574117495131885 -2.00929263941455e-16)
(0.109901135086239 0.00575383099805779 -2.75558094291049e-17)
(0.109626641427709 0.00576612186466595 1.74087875507591e-18)
(0.109350829441991 0.00577930845135006 8.1420705449248e-17)
(0.10907607289874 0.00579406134942857 -9.3816512012905e-18)
(0.108802455589899 0.00580783945655386 -4.4714623505114e-17)
(0.108528408123786 0.00582219542475478 -8.94055197621873e-17)
(0.108255831528951 0.00583894133663166 -1.48659110796975e-16)
(0.107987165750122 0.00585626740243141 -3.17953453576124e-16)
(0.107721475969993 0.0058726552430605 -2.27447607908412e-16)
(0.107457915045786 0.00589070925686013 -9.09863261730699e-17)
(0.107201885846136 0.00591371070577526 -2.66382033091167e-16)
(0.106955422716685 0.00593498842208852 5.27980741458469e-18)
(0.106715890713714 0.00595658880093774 4.6468176991096e-17)
(0.106486592829954 0.0059827871700416 3.28026945672526e-17)
(0.106274886512645 0.00601317705753892 -2.52845656425125e-17)
(0.106081856216479 0.00604166122331966 6.12327553489975e-18)
(0.105906081872881 0.00607268956936646 7.91703272043752e-17)
(0.105759158790327 0.00611373350380099 -3.06568042233502e-17)
(0.105649998846534 0.00615507672141522 -3.57069048583102e-16)
(0.105576808191514 0.0061958230966106 9.26630008406418e-17)
(0.105545711599776 0.00624597600739116 6.53148707422133e-17)
(0.10557961554784 0.00631097760840632 -1.79550375723338e-17)
(0.105687635249964 0.00636960760820821 -2.04413445369125e-16)
(0.105867983607419 0.00643259033771749 -1.54793763671718e-17)
(0.106150036796134 0.0065198307982554 5.55529000017786e-17)
(0.106565936921144 0.00661334869223618 -2.19163444208859e-16)
(0.107121559823859 0.00669892240149484 -1.60041216943595e-16)
(0.107829525119136 0.00680289430877429 3.78123480759973e-17)
(0.108764442092041 0.00695362650377253 1.7756076380536e-16)
(0.109966066363409 0.00708234174190076 2.07703148693844e-16)
(0.111434423686457 0.00721439180897326 2.57249728073318e-17)
(0.113251470427372 0.00740073955489796 1.73769707414809e-16)
(0.115525204005609 0.00761061383075593 -1.25488239814832e-16)
(0.118299964248857 0.00778434077167177 8.33427092190737e-17)
(0.121606936379358 0.00798881139784029 3.22949786571709e-16)
(0.125691221369436 0.0083286327021747 -2.42408746332375e-17)
(0.130742606476957 0.00862674356527812 -9.76082120156438e-17)
(0.136884582196037 0.00895271231719483 -2.71144728090727e-16)
(0.144566205205436 0.0095228608487845 2.47087740674095e-16)
(0.154557255329364 0.0103292413014596 1.42332700826356e-16)
(0.167243817870111 0.0109723562606072 3.21560794384399e-17)
(0.182730862770374 0.0116403873898534 -2.50845351655873e-18)
(0.201814848800921 0.0125288993071035 4.12883096723242e-16)
(0.224662594946833 0.0128117204854563 2.60798009265919e-16)
(0.250742128371674 0.012772655035555 3.58517588615834e-17)
(0.280412517650068 0.0126124875493269 -4.35861619126537e-17)
(0.313494359686789 0.0121139357331002 -8.52971357806339e-17)
(0.350142789448956 0.0112296141416131 2.27583585939187e-16)
(0.389475782408951 0.0101363432238045 1.32931959693653e-16)
(0.432578269112694 0.00869960214848794 2.09133684401104e-16)
(0.477264205157644 0.00713332297409614 2.50643793200759e-16)
(0.526913798905071 0.00533234283502538 -4.59579007034756e-17)
(0.576180605439797 0.00348586853821772 2.01713685233011e-16)
(0.633819947753411 0.00133167457426499 1.66281742613275e-16)
(0.686675573054939 -0.000338275810532946 1.39643258266311e-16)
(0.758073506815112 -0.00259253063002468 -1.90024677787028e-16)
(0.814013822214077 -0.00391397654676014 1.30065309344207e-17)
(0.911465140586162 -0.00539920983980369 -4.4508131329066e-17)
(0.946514010013029 9.54499248946136e-05 -9.3876248300225e-17)
(0.927681610065109 -0.00020737555384186 -1.66802623921087e-17)
(0.938685770563807 3.33557136200205e-05 -7.4714956621774e-17)
(0.928984555822751 -8.64372223070704e-05 2.17242147212561e-17)
(0.930417499976871 9.16166603547885e-06 4.53443747536047e-17)
(0.923761871805351 -4.21011132029095e-05 6.77394676704975e-19)
(0.921078360293776 -2.17207447251523e-05 -3.94134975722968e-17)
(0.915243108379813 -5.67124357779755e-05 -3.77166985659692e-17)
(0.910788860754203 -6.43079369273176e-05 -1.10271602328644e-17)
(0.905055595846409 -9.39049833314676e-05 9.45090218344571e-18)
(0.899942501855335 -0.000110774395679716 -1.68604118645104e-17)
(0.894370537217505 -0.000128375114604721 -6.40477724761699e-18)
(0.889588814047659 -0.000132725642525301 -3.8365348009745e-18)
(0.885158121015543 -5.74011906902557e-05 -2.8555337753221e-19)
(-0.096432792386731 0.00677886201090906 -1.67816121377063e-18)
(-0.0930726007822961 0.00706052069468063 -2.72841013670101e-18)
(-0.0926231992944235 0.00802575896283677 -3.21736677973542e-18)
(-0.0923889636838862 0.00863411923820864 2.95812252821826e-18)
(-0.0925639777948887 0.00895154222550206 2.05675040819707e-17)
(-0.0928578062105831 0.00909142960293391 1.27976798355553e-17)
(-0.0931972397967134 0.00914935978275361 -6.39968660016177e-18)
(-0.0935495261975584 0.00917534593713308 1.88041080622969e-17)
(-0.0939057530181168 0.0091918708030974 -4.16089200942915e-17)
(-0.0942624589813631 0.00920688821584869 -2.81762867715226e-17)
(-0.0946192422340803 0.00922114794385808 4.56461907375763e-17)
(-0.0949774456744976 0.00923493632769701 1.03396521883547e-16)
(-0.0953375149929833 0.00924903926583221 5.40231769174545e-17)
(-0.0956987185013205 0.00926353969591993 7.42687317532738e-17)
(-0.0960614275115105 0.00927748397101157 6.5390630810947e-17)
(-0.0964265854906902 0.00929142539552316 4.29687592328433e-17)
(-0.0967937398040433 0.00930585815078548 9.04893613100263e-17)
(-0.0971624178916407 0.00932010639885005 8.67063434404567e-17)
(-0.0975333424018647 0.00933382249825195 6.15789453333391e-17)
(-0.0979070865971788 0.00934776717837432 5.76066520256164e-17)
(-0.0982826537545513 0.00936257896206041 -6.42867900960576e-17)
(-0.0986598204398096 0.0093771531809452 -9.11066960603013e-17)
(-0.0990396631862332 0.0093914667723156 -8.68504373577183e-17)
(-0.0994220296690987 0.00940636819149524 -1.17552206310586e-16)
(-0.0998057647962862 0.00942205976545854 -2.0315445563426e-16)
(-0.100191178784319 0.00943718781491993 -1.80624860808259e-16)
(-0.100579264613138 0.00945250735988833 -7.71974968146654e-17)
(-0.100968794945171 0.00946917297512814 -1.41589370464047e-16)
(-0.101358926936071 0.00948579826103519 1.63573163652555e-17)
(-0.101750680988071 0.00950215246600852 -1.0190267337232e-18)
(-0.102144119483798 0.00951938039119153 3.05656223369014e-17)
(-0.102537063553251 0.00953795999040124 4.10114488679656e-17)
(-0.102929377023949 0.00955583512153147 6.69827232671628e-17)
(-0.103322432448815 0.00957428261425633 -6.42447782991396e-17)
(-0.103714191932948 0.00959489034143655 -1.51001850828808e-16)
(-0.104102246153386 0.00961609461803263 -4.03895082394084e-16)
(-0.104487388522815 0.0096365344174855 -3.44978638385958e-16)
(-0.104870406183704 0.00965866855246597 -1.08295784857704e-16)
(-0.105245581222814 0.00968510932306676 -2.07164459536408e-16)
(-0.105610538720803 0.00971027608037699 -3.49367871557551e-17)
(-0.105967862821742 0.00973572535370261 7.54500203025038e-17)
(-0.106313848427367 0.00976546850047118 6.71981211847604e-17)
(-0.10664052534284 0.00979896510973585 8.76265376807062e-17)
(-0.106946170408401 0.00983086986621715 1.33764688784887e-16)
(-0.107232317307878 0.00986527793816079 1.23698016260091e-16)
(-0.10748627185704 0.00990858804098255 -2.37301628676021e-17)
(-0.1076976812482 0.0099523818431367 -4.07962721055847e-16)
(-0.107867773021729 0.00999548782748345 1.20261608079153e-16)
(-0.107989863900265 0.0100475225254658 9.09249484593538e-17)
(-0.108037201678165 0.0101125918474095 -1.74302963581886e-17)
(-0.107998284474313 0.0101719270386359 -1.73637387350275e-16)
(-0.107876714747787 0.010235126225353 -1.4519274524359e-17)
(-0.107637770515339 0.0103201323934004 9.63764118930971e-17)
(-0.107242544570732 0.0104105403025537 -2.3621653197348e-16)
(-0.106683575658852 0.0104924807167296 -2.30870495195669e-16)
(-0.105950571564927 0.010592045475939 2.31511775241634e-17)
(-0.104951001901142 0.0107321346609813 1.88171921702135e-16)
(-0.103634888873111 0.0108513992646401 2.71597366404324e-16)
(-0.102011955305085 0.0109715224622705 7.07417692743277e-18)
(-0.0999817782940521 0.0111402961935764 2.22025929016906e-16)
(-0.0974091057544774 0.0113275632339635 -1.38888812118997e-16)
(-0.0942417567116331 0.0114759542351742 -1.49485321058206e-17)
(-0.0904697147630696 0.0116534324056361 4.50047154493173e-16)
(-0.0857765976676907 0.0119475512428709 -4.10619883627345e-17)
(-0.0799291954214335 0.0121996358825191 -1.22135266852463e-16)
(-0.0728486985831867 0.0124699056558737 -3.45803448504018e-16)
(-0.0640428117080649 0.0129682377515442 3.36361742766806e-16)
(-0.0525460677949155 0.0136674736271994 2.02150206281665e-16)
(-0.0378694999292181 0.0141921146457788 1.79688459704533e-17)
(-0.0200220598428753 0.0147275612055535 3.77080924580897e-17)
(0.00220071670321484 0.015404633794468 5.96653889260099e-16)
(0.0290314480189131 0.0154817167775973 3.13626902102524e-16)
(0.059580758752882 0.0151958410787065 8.88516214707075e-17)
(0.0944166962043346 0.0147471501743195 -1.35735598705081e-16)
(0.13335356510706 0.0139295510374006 -1.257546503856e-16)
(0.17647193340206 0.0127025968201275 2.78717961168019e-16)
(0.22276308286899 0.0112275210949075 1.37653874127207e-16)
(0.273505879111722 0.00938822632973873 2.39005136705456e-16)
(0.326065888743586 0.00739420195014685 3.39072812113309e-16)
(0.384480517088548 0.00512930523442227 -7.56428550878948e-17)
(0.442452901280867 0.00280272821194972 2.04976414663769e-16)
(0.510125632849684 0.000136303420339041 2.37509714559612e-16)
(0.572156044939212 -0.00207223218676211 1.03117571023269e-16)
(0.655940523840583 -0.0049404809872168 -2.09030282213575e-16)
(0.721436493668681 -0.006850715595825 1.91231502386373e-17)
(0.835681611821079 -0.00861573724924671 -6.09174407346953e-17)
(0.876854355880568 3.19132044988945e-05 -1.08880670804101e-16)
(0.85439334943895 -0.000184470628196564 -2.26568696108779e-17)
(0.867011829075708 1.85265737217762e-06 -7.11792039722179e-17)
(0.855405657048308 -7.29526820522879e-05 3.11417617125917e-17)
(0.856880579051068 -5.17472604266947e-06 4.50200182684078e-17)
(0.84893196698874 -4.11777597904401e-05 8.98526758315567e-18)
(0.845669229590052 -2.81026083312281e-05 -3.89662797443377e-17)
(0.838730967380203 -5.81210533880764e-05 -2.5179521378394e-17)
(0.83342902253955 -6.96611997061734e-05 -1.53279991977413e-17)
(0.82663342465526 -9.65157610593943e-05 1.10803520418929e-17)
(0.820565880677813 -0.000115903236730903 -1.67826641604016e-17)
(0.813956147488181 -0.000133974314294658 -8.84398376481923e-18)
(0.808262957825093 -0.000146106413406681 -3.61152698446416e-18)
(0.80289534696594 -0.000103395141813236 7.9476943378951e-19)
(-0.231557807113649 0.00888657871753499 -2.41500250127953e-18)
(-0.229595971143636 0.00938567213237393 -3.82155096450806e-18)
(-0.229655963451613 0.0108580309031019 -1.11868709614124e-17)
(-0.229803583640072 0.011682833674343 -1.38285712744094e-17)
(-0.230170771756023 0.0120890887061794 2.12921026473942e-17)
(-0.230581998198841 0.0122618043979127 7.58939908420627e-18)
(-0.231009126392813 0.0123320714550777 -2.05490756943029e-17)
(-0.23144011444588 0.0123636722022412 1.96463272266274e-17)
(-0.231873126056605 0.0123837794543582 -5.66898228762576e-17)
(-0.232306934231142 0.01240178273086 -3.97052297694268e-17)
(-0.232741500941769 0.0124192053740182 2.1258120177049e-17)
(-0.233177821700574 0.0124363823333273 6.46197405499125e-17)
(-0.233616221224132 0.0124538672973875 4.68159590700942e-17)
(-0.234056187419174 0.0124716873545509 5.82764887787291e-17)
(-0.234497994890144 0.0124891373913514 7.41978881037934e-17)
(-0.234942333864846 0.0125066020760752 7.49133469425597e-17)
(-0.235388871722937 0.012524453755402 1.24589711374815e-16)
(-0.235837319729095 0.0125421923341089 -1.50360476544982e-17)
(-0.236288276933014 0.0125595541921906 1.02152077612792e-17)
(-0.236742204947746 0.0125771241566898 5.72911924535004e-17)
(-0.237198362698045 0.0125953836039607 -7.83815514774181e-17)
(-0.237656530934214 0.0126135128483045 -9.57609809204691e-17)
(-0.238117504458564 0.0126314794669751 -9.50222981298753e-17)
(-0.238581240825428 0.0126499427763843 -1.25684977289426e-16)
(-0.239046803885969 0.0126690504926977 -2.588371499534e-16)
(-0.239514362334574 0.0126877758062938 -1.47523871012481e-16)
(-0.239984749975292 0.0127066961694541 -7.96283687604979e-17)
(-0.240456925027183 0.0127266994221831 -1.03673647347742e-16)
(-0.240930135917311 0.0127467262411224 -4.72216990500484e-17)
(-0.241405156480071 0.0127665791099164 -6.82952951327672e-18)
(-0.24188201115647 0.0127871648847096 -2.2765049203416e-17)
(-0.242358875628793 0.0128088435584206 8.7016546000956e-17)
(-0.242835552797164 0.012830023400251 9.26768205422927e-17)
(-0.24331308381355 0.0128516919502698 -3.67997366757845e-17)
(-0.243789552304009 0.0128751072992061 -1.41369109526587e-16)
(-0.244262790275192 0.0128990333943222 -3.30764183099467e-16)
(-0.244733305427684 0.0129223703801983 -3.23588048506567e-16)
(-0.24520168910376 0.012947108312482 -9.76628067997011e-17)
(-0.24566257076391 0.012975279623521 -1.78681003180736e-16)
(-0.246113494935503 0.0130024551080202 -1.80905104028551e-17)
(-0.246556562578005 0.0130298184564821 -3.85090550135189e-17)
(-0.246988082327649 0.0130606293377304 1.07104663873719e-16)
(-0.247400360488457 0.0130943992536538 1.11501880067175e-16)
(-0.247791173131043 0.0131267874795505 2.11105722375742e-16)
(-0.248161740383536 0.0131611116700384 1.7749517283996e-16)
(-0.248499644426714 0.0132024761299772 -1.75444700857247e-18)
(-0.248794295335537 0.0132440274377901 -3.73107237474256e-16)
(-0.249045975832162 0.0132846847055469 6.02436523997886e-17)
(-0.249247880636045 0.0133323628416412 1.21027515312357e-16)
(-0.249372782944803 0.0133901611898161 -1.45454666463167e-17)
(-0.249407977406054 0.0134426223259013 -1.48342099546975e-16)
(-0.249357245151344 0.013497546077534 -1.20845631080751e-17)
(-0.249184762268912 0.0135694913213973 1.9571490396382e-16)
(-0.248849754361475 0.0136446709857545 -2.92214256709608e-16)
(-0.248343057072015 0.0137112491016498 -1.30935971514328e-16)
(-0.247655893198507 0.0137910469546353 -5.98511597763873e-19)
(-0.24669031283967 0.0139019633869331 1.94777699419827e-16)
(-0.245391850670896 0.0139928303611251 2.20730787010626e-16)
(-0.243774264757491 0.0140812586760897 -2.69626846029586e-17)
(-0.241731230298667 0.014206504058626 1.61384768866825e-16)
(-0.2391178621718 0.0143420790132126 -1.64918774432272e-16)
(-0.235877404157679 0.0144389249052763 -2.90295035064592e-17)
(-0.232013004967598 0.0145547125147768 4.18058937439544e-16)
(-0.22718064714549 0.0147589650067604 -6.56670659489556e-17)
(-0.221129886275548 0.0149171921283161 -1.14915501385988e-16)
(-0.213811685011393 0.015078484994224 -3.26569735461547e-16)
(-0.204734158509495 0.0154171976865563 3.56293911311289e-16)
(-0.192857541058907 0.0158996577968268 2.66366206267917e-16)
(-0.177643783914391 0.0162029972800706 8.64617118361157e-18)
(-0.159174471937898 0.0164857240386134 9.78608301134704e-17)
(-0.136042757365722 0.0168389648067439 6.38701250890654e-16)
(-0.107977476768179 0.0166363553061886 2.42806788913475e-16)
(-0.0760552667024607 0.0160835534305282 1.38599780944627e-16)
(-0.0396044095333169 0.0153477893213215 -1.06765112108476e-16)