/*--------------------------------*- C++ -*----------------------------------*\
| =========                 |                                                 |
| \\      /  F ield         | foam-extend: Open Source CFD                    |
|  \\    /   O peration     | Version:     4.1-20200408                       |
|   \\  /    A nd           | Web:         http://www.foam-extend.org         |
|    \\/     M anipulation  |                                                 |
\*---------------------------------------------------------------------------*/
FoamFile
{
    version     2.0;
    format      ascii;
    class       volScalarField;
    location    "0.0980000";
    object      ccy;
}
// * * * * * * * * * * * * * * * * * * * * * * * * * * * * * * * * * * * * * //

dimensions      [0 1 0 0 0 0 0];

internalField   nonuniform List<scalar> 
1952
(
6.9304e-05
0.000112872
0.000157011
0.000201347
0.000245778
0.000290267
0.000334796
0.000379358
0.000423947
0.000468565
0.000513212
0.000557893
0.000602611
0.000647365
0.000692145
2.9701e-05
6.93015e-05
0.000112868
0.000157004
0.000201339
0.000245769
0.000290258
0.000334787
0.000379346
0.000423937
0.000468554
0.000513203
0.000557885
0.000602606
0.000647363
0.000692146
2.97e-05
6.93027e-05
0.000112867
0.000157006
0.00020134
0.000245772
0.000290259
0.000334787
0.000379349
0.000423938
0.000468557
0.000513205
0.000557887
0.000602608
0.000647365
0.000692147
2.97002e-05
6.93023e-05
0.000112868
0.000157007
0.000201341
0.000245771
0.00029026
0.000334789
0.000379349
0.000423939
0.000468557
0.000513205
0.000557887
0.000602608
0.000647364
0.000692147
2.96999e-05
6.93024e-05
0.000112868
0.000157006
0.000201341
0.000245772
0.000290261
0.000334788
0.00037935
0.000423938
0.000468557
0.000513204
0.000557887
0.000602606
0.000647364
0.000692146
2.97004e-05
6.93023e-05
0.000112868
0.000157006
0.000201341
0.000245772
0.000290259
0.000334789
0.000379348
0.000423938
0.000468555
0.000513204
0.000557885
0.000602605
0.000647362
0.000692144
2.97009e-05
6.93021e-05
0.000112868
0.000157007
0.00020134
0.00024577
0.00029026
0.000334786
0.000379348
0.000423936
0.000468554
0.000513202
0.000557883
0.000602603
0.00064736
0.000692142
2.96998e-05
6.93019e-05
0.000112867
0.000157005
0.000201339
0.00024577
0.000290257
0.000334785
0.000379346
0.000423934
0.000468552
0.000513199
0.00055788
0.000602601
0.000647356
0.000692139
2.97007e-05
6.93008e-05
0.000112868
0.000157004
0.000201339
0.000245768
0.000290255
0.000334784
0.000379344
0.000423932
0.00046855
0.000513197
0.000557878
0.000602598
0.000647354
0.000692137
2.97e-05
6.93011e-05
0.000112866
0.000157005
0.000201337
0.000245767
0.000290255
0.000334781
0.000379341
0.00042393
0.000468548
0.000513194
0.000557875
0.000602594
0.000647352
0.000692134
2.96999e-05
6.93008e-05
0.000112865
0.000157003
0.000201337
0.000245766
0.000290253
0.000334781
0.000379339
0.000423928
0.000468545
0.000513191
0.000557872
0.000602593
0.000647348
0.000692131
2.96997e-05
6.93011e-05
0.000112864
0.000157002
0.000201336
0.000245766
0.000290251
0.000334778
0.000379338
0.000423926
0.000468542
0.000513189
0.00055787
0.000602588
0.000647346
0.000692128
2.96995e-05
6.93e-05
0.000112864
0.000157001
0.000201334
0.000245763
0.00029025
0.000334777
0.000379336
0.000423924
0.000468541
0.000513186
0.000557867
0.000602587
0.000647342
0.000692124
2.96994e-05
6.9299e-05
0.000112864
0.000157
0.000201333
0.000245762
0.000290248
0.000334775
0.000379334
0.000423922
0.000468538
0.000513184
0.000557865
0.000602584
0.00064734
0.000692121
2.96993e-05
6.93001e-05
0.000112863
0.000157
0.000201332
0.000245761
0.000290248
0.000334773
0.000379332
0.000423921
0.000468535
0.000513183
0.000557862
0.000602581
0.000647338
0.000692119
2.96991e-05
6.92984e-05
0.000112864
0.000156999
0.000201331
0.00024576
0.000290245
0.000334773
0.000379331
0.000423918
0.000468534
0.000513179
0.00055786
0.000602579
0.000647334
0.000692116
2.9699e-05
6.92996e-05
0.000112862
0.000156998
0.000201332
0.000245759
0.000290245
0.000334771
0.000379329
0.000423916
0.000468533
0.000513177
0.000557857
0.000602576
0.000647331
0.000692113
2.96984e-05
6.92986e-05
0.000112862
0.000156998
0.00020133
0.000245758
0.000290245
0.00033477
0.000379328
0.000423915
0.000468531
0.000513176
0.000557856
0.000602574
0.00064733
0.000692111
2.96993e-05
6.92984e-05
0.000112862
0.000156998
0.000201329
0.000245759
0.000290243
0.000334769
0.000379327
0.000423914
0.000468529
0.000513174
0.000557854
0.000602572
0.000647327
0.000692108
2.96987e-05
6.92983e-05
0.000112862
0.000156997
0.000201329
0.000245757
0.000290243
0.000334768
0.000379326
0.000423913
0.000468528
0.000513173
0.000557852
0.00060257
0.000647324
0.000692106
2.96986e-05
6.92975e-05
0.000112862
0.000156997
0.000201329
0.000245757
0.000290242
0.000334767
0.000379325
0.000423912
0.000468527
0.000513171
0.00055785
0.000602568
0.000647323
0.000692103
2.96986e-05
6.92981e-05
0.000112861
0.000156997
0.000201329
0.000245756
0.000290241
0.000334767
0.000379324
0.000423912
0.000468525
0.00051317
0.000557849
0.000602567
0.000647321
0.000692101
2.96986e-05
6.92988e-05
0.000112861
0.000156997
0.000201328
0.000245756
0.000290241
0.000334766
0.000379324
0.00042391
0.000468526
0.000513168
0.000557848
0.000602565
0.00064732
0.000692099
2.9698e-05
6.9298e-05
0.000112861
0.000156997
0.000201328
0.000245756
0.000290241
0.000334766
0.000379323
0.00042391
0.000468524
0.000513169
0.000557847
0.000602564
0.000647317
0.000692097
2.96985e-05
6.9298e-05
0.000112861
0.000156996
0.000201328
0.000245756
0.000290241
0.000334766
0.000379324
0.000423908
0.000468524
0.000513167
0.000557846
0.000602563
0.000647317
0.000692095
2.96985e-05
6.9298e-05
0.000112861
0.000156996
0.000201328
0.000245756
0.000290241
0.000334766
0.000379322
0.000423909
0.000468523
0.000513166
0.000557845
0.000602561
0.000647314
0.000692093
2.9699e-05
6.9298e-05
0.00011286
0.000156997
0.000201328
0.000245756
0.00029024
0.000334765
0.000379322
0.000423908
0.000468522
0.000513166
0.000557844
0.000602561
0.000647313
0.000692091
2.96985e-05
6.92979e-05
0.000112862
0.000156995
0.000201328
0.000245756
0.00029024
0.000334764
0.000379323
0.000423908
0.000468522
0.000513165
0.000557842
0.000602558
0.000647311
0.000692088
2.96985e-05
6.92977e-05
0.00011286
0.000156996
0.000201327
0.000245755
0.00029024
0.000334764
0.000379321
0.000423907
0.00046852
0.000513163
0.000557842
0.000602556
0.000647308
0.000692085
2.96984e-05
6.92974e-05
0.00011286
0.000156995
0.000201327
0.000245754
0.000290238
0.000334764
0.000379319
0.000423906
0.000468519
0.000513161
0.000557838
0.000602554
0.000647305
0.000692083
2.96983e-05
6.92961e-05
0.00011286
0.000156994
0.000201325
0.000245752
0.000290236
0.000334761
0.000379318
0.000423902
0.000468517
0.000513158
0.000557835
0.00060255
0.000647302
0.000692077
2.9698e-05
6.92959e-05
0.000112858
0.000156992
0.000201323
0.000245749
0.000290233
0.000334758
0.000379314
0.0004239
0.000468512
0.000513154
0.000557831
0.000602545
0.000647296
0.000692072
2.96976e-05
6.92953e-05
0.000112856
0.000156989
0.000201319
0.000245745
0.00029023
0.000334753
0.000379309
0.000423893
0.000468506
0.000513149
0.000557825
0.000602539
0.000647289
0.000692064
2.96966e-05
6.92927e-05
0.000112852
0.000156985
0.000201315
0.000245739
0.000290222
0.000334745
0.000379301
0.000423886
0.000468498
0.00051314
0.000557816
0.00060253
0.000647281
0.000692055
2.96968e-05
6.929e-05
0.000112849
0.000156979
0.000201307
0.000245732
0.000290213
0.000334735
0.000379291
0.000423875
0.000468488
0.00051313
0.000557805
0.00060252
0.000647268
0.000692043
2.96951e-05
6.92865e-05
0.000112843
0.000156972
0.000201298
0.00024572
0.000290201
0.000334722
0.000379276
0.00042386
0.000468473
0.000513115
0.000557791
0.000602504
0.000647253
0.000692027
2.96936e-05
6.92819e-05
0.000112835
0.000156961
0.000201285
0.000245705
0.000290184
0.000334704
0.000379257
0.00042384
0.000468453
0.000513095
0.000557771
0.000602484
0.000647233
0.000692007
2.96916e-05
6.92758e-05
0.000112826
0.000156948
0.000201269
0.000245686
0.000290162
0.00033468
0.000379232
0.000423814
0.000468426
0.000513068
0.000557744
0.000602458
0.000647208
0.000691981
2.9689e-05
6.92682e-05
0.000112813
0.000156931
0.000201248
0.000245662
0.000290135
0.00033465
0.0003792
0.000423781
0.000468392
0.000513033
0.00055771
0.000602425
0.000647174
0.000691948
2.96857e-05
6.92586e-05
0.000112798
0.00015691
0.000201221
0.00024563
0.000290099
0.000334611
0.000379159
0.000423738
0.000468347
0.000512989
0.000557666
0.000602381
0.000647132
0.000691906
2.96815e-05
6.92468e-05
0.000112779
0.000156884
0.000201189
0.000245591
0.000290055
0.000334563
0.000379106
0.000423683
0.000468291
0.000512931
0.000557609
0.000602325
0.000647077
0.000691852
2.96765e-05
6.92325e-05
0.000112756
0.000156853
0.000201149
0.000245545
0.000290001
0.000334503
0.000379041
0.000423614
0.000468219
0.000512859
0.000557536
0.000602253
0.000647007
0.000691784
2.96704e-05
6.9216e-05
0.000112729
0.000156816
0.000201102
0.000245489
0.000289937
0.00033443
0.000378962
0.000423529
0.000468131
0.000512767
0.000557443
0.000602161
0.000646916
0.000691695
2.96632e-05
6.91967e-05
0.000112698
0.000156773
0.000201048
0.000245423
0.000289861
0.000334345
0.000378868
0.000423428
0.000468022
0.000512654
0.000557327
0.000602043
0.000646797
0.000691577
2.9655e-05
6.91751e-05
0.000112663
0.000156724
0.000200986
0.000245349
0.000289774
0.000334247
0.000378759
0.000423308
0.000467894
0.000512518
0.000557183
0.000601894
0.000646643
0.000691419
2.96457e-05
6.91514e-05
0.000112624
0.000156671
0.000200919
0.000245267
0.000289678
0.000334137
0.000378637
0.000423174
0.000467747
0.00051236
0.000557015
0.000601716
0.000646456
0.000691222
2.96355e-05
6.91264e-05
0.000112584
0.000156615
0.000200847
0.000245179
0.000289575
0.000334019
0.000378504
0.000423027
0.000467587
0.000512187
0.000556829
0.000601519
0.000646248
0.000691004
2.96248e-05
6.91009e-05
0.000112542
0.000156557
0.000200772
0.000245089
0.000289469
0.000333896
0.000378366
0.000422873
0.000467419
0.000512005
0.000556634
0.000601312
0.000646031
0.000690777
2.96139e-05
6.90759e-05
0.000112502
0.0001565
0.0002007
0.000245
0.000289364
0.000333775
0.000378228
0.00042272
0.00046725
0.000511822
0.000556438
0.000601105
0.000645814
0.000690553
2.96031e-05
6.90528e-05
0.000112464
0.000156448
0.000200632
0.000244918
0.000289266
0.000333662
0.0003781
0.000422575
0.000467091
0.000511647
0.000556251
0.000600907
0.000645606
0.000690345
2.95933e-05
6.90334e-05
0.000112432
0.000156403
0.000200575
0.000244847
0.000289183
0.000333565
0.000377989
0.00042245
0.000466952
0.000511494
0.000556084
0.000600728
0.000645423
0.000690171
2.95849e-05
6.9019e-05
0.000112409
0.000156371
0.000200533
0.000244796
0.000289121
0.000333493
0.000377906
0.000422356
0.000466845
0.000511374
0.000555954
0.000600588
0.000645288
0.000690066
2.95788e-05
6.90117e-05
0.000112397
0.000156354
0.000200511
0.000244769
0.000289089
0.000333455
0.00037786
0.000422303
0.000466785
0.000511309
0.000555886
0.000600526
0.000645252
0.000690082
2.95757e-05
6.9013e-05
0.000112399
0.000156357
0.000200514
0.000244772
0.000289092
0.000333459
0.000377866
0.000422312
0.000466802
0.000511339
0.000555937
0.00060061
0.000645386
0.000690288
2.95762e-05
6.90241e-05
0.000112417
0.000156383
0.000200549
0.000244816
0.000289148
0.00033353
0.000377959
0.000422431
0.000466953
0.000511532
0.000556182
0.000600916
0.000645766
0.000690753
2.9581e-05
6.90506e-05
0.000112461
0.000156447
0.000200637
0.000244931
0.000289296
0.000333719
0.000378195
0.000422723
0.000467309
0.000511959
0.000556688
0.000601507
0.000646447
0.000691525
2.95922e-05
6.91047e-05
0.000112552
0.000156579
0.000200814
0.000245162
0.000289588
0.00033408
0.000378632
0.000423245
0.000467923
0.00051267
0.000557499
0.000602418
0.000647455
0.000692623
2.96151e-05
6.92013e-05
0.000112712
0.000156808
0.000201119
0.00024555
0.000290066
0.000334653
0.000379309
0.000424031
0.000468822
0.000513684
0.000558627
0.000603654
0.00064879
0.00069404
2.9656e-05
6.93517e-05
0.000112959
0.000157157
0.000201575
0.000246117
0.000290748
0.000335457
0.000380238
0.000425087
0.000470006
0.000514994
0.000560058
0.000605197
0.000650429
0.000695753
2.97201e-05
6.95589e-05
0.000113298
0.000157629
0.000202183
0.000246863
0.000291634
0.000336483
0.000381404
0.000426393
0.000471449
0.00051657
0.000561759
0.00060701
0.000652334
0.000697726
2.98087e-05
6.98177e-05
0.000113718
0.000158212
0.000202927
0.000247767
0.000292695
0.0003377
0.000382772
0.000427909
0.000473108
0.000518365
0.000563678
0.000609041
0.000654455
0.000699909
2.99198e-05
7.01155e-05
0.000114201
0.000158879
0.000203774
0.000248788
0.000293887
0.000339057
0.000384289
0.000429579
0.000474924
0.000520318
0.000565757
0.00061123
0.000656733
0.000702246
3.00477e-05
7.04352e-05
0.000114719
0.000159592
0.000204679
0.000249878
0.000295155
0.000340495
0.000385891
0.000431337
0.000476829
0.000522362
0.000567927
0.000613511
0.000659101
0.000704676
3.01852e-05
7.07585e-05
0.000115242
0.000160314
0.000205594
0.000250981
0.000296439
0.000341952
0.000387512
0.000433115
0.000478756
0.000524428
0.000570118
0.000615814
0.000661494
0.000707133
3.03241e-05
7.1068e-05
0.000115744
0.000161008
0.000206476
0.000252047
0.000297681
0.000343365
0.000389089
0.000434848
0.000480636
0.000526446
0.000572264
0.000618073
0.000663847
0.000709555
3.04572e-05
7.13506e-05
0.000116203
0.000161645
0.000207289
0.000253032
0.000298836
0.000344684
0.000390566
0.000436478
0.000482411
0.000528358
0.000574302
0.000620225
0.000666097
0.000711882
3.05784e-05
7.15979e-05
0.000116606
0.000162206
0.000208008
0.000253908
0.000299868
0.000345869
0.000391901
0.000437958
0.00048403
0.000530111
0.000576181
0.00062222
0.000668191
0.000714061
3.06843e-05
7.18077e-05
0.000116948
0.000162683
0.000208621
0.000254659
0.000300757
0.000346896
0.000393064
0.000439256
0.00048546
0.000531668
0.00057786
0.000624014
0.00067009
0.000716051
3.07742e-05
7.19818e-05
0.000117233
0.000163079
0.000209131
0.000255285
0.000301499
0.000347756
0.000394044
0.000440355
0.000486679
0.000533005
0.000579313
0.00062558
0.000671761
0.000717821
3.08488e-05
7.2125e-05
0.000117466
0.000163404
0.000209548
0.000255795
0.000302105
0.000348458
0.000394845
0.000441256
0.000487683
0.000534114
0.000580529
0.000626902
0.000673188
0.000719351
3.09101e-05
7.2243e-05
0.000117657
0.000163669
0.000209887
0.000256208
0.000302591
0.000349019
0.000395482
0.000441973
0.000488482
0.000535
0.000581507
0.000627977
0.000674366
0.000720636
3.09608e-05
7.23406e-05
0.000117815
0.000163887
0.000210164
0.000256542
0.000302982
0.000349466
0.000395985
0.000442533
0.000489101
0.000535683
0.000582261
0.000628813
0.000675298
0.000721677
3.10028e-05
7.24215e-05
0.000117946
0.000164068
0.000210393
0.000256817
0.000303301
0.000349827
0.000396386
0.000442972
0.000489578
0.0005362
0.000582824
0.000629437
0.000676003
0.000722486
3.10376e-05
7.2488e-05
0.000118054
0.000164217
0.000210582
0.000257045
0.000303566
0.000350125
0.000396715
0.000443328
0.000489959
0.000536602
0.000583251
0.000629898
0.000676522
0.000723091
3.1066e-05
7.25431e-05
0.000118144
0.000164341
0.00021074
0.000257236
0.000303787
0.000350376
0.000396991
0.000443626
0.000490275
0.000536934
0.000583596
0.000630258
0.000676911
0.000723537
3.10898e-05
7.25909e-05
0.00011822
0.000164447
0.000210875
0.000257397
0.000303974
0.000350586
0.000397223
0.000443876
0.00049054
0.000537212
0.000583885
0.000630555
0.000677221
0.000723874
3.11096e-05
7.26313e-05
0.000118287
0.000164537
0.000210988
0.000257536
0.000304133
0.000350763
0.000397417
0.000444085
0.000490762
0.000537443
0.000584125
0.000630806
0.000677479
0.000724145
3.11282e-05
7.2665e-05
0.000118343
0.000164614
0.000211086
0.00025765
0.000304266
0.000350912
0.000397579
0.000444258
0.000490946
0.000537637
0.000584327
0.000631014
0.000677697
0.000724371
3.11425e-05
7.26955e-05
0.000118388
0.000164678
0.000211167
0.000257746
0.000304376
0.000351035
0.000397713
0.000444402
0.000491099
0.000537796
0.000584496
0.000631191
0.000677879
0.000724562
3.11549e-05
7.27186e-05
0.000118428
0.000164731
0.000211233
0.000257826
0.000304466
0.000351135
0.000397824
0.000444522
0.000491225
0.000537931
0.000584635
0.000631337
0.000678034
0.000724724
3.11652e-05
7.27382e-05
0.00011846
0.000164774
0.000211287
0.00025789
0.000304541
0.000351219
0.000397913
0.00044462
0.000491329
0.000538042
0.000584752
0.000631461
0.000678164
0.000724863
3.11736e-05
7.27541e-05
0.000118485
0.00016481
0.000211331
0.000257942
0.000304601
0.000351287
0.00039799
0.000444699
0.000491416
0.000538134
0.000584851
0.000631564
0.000678276
0.000724982
3.11805e-05
7.2767e-05
0.000118506
0.000164838
0.000211368
0.000257985
0.000304651
0.000351342
0.00039805
0.000444766
0.000491488
0.00053821
0.000584932
0.000631654
0.000678371
0.000725084
3.1186e-05
7.27782e-05
0.000118521
0.000164862
0.000211396
0.000258021
0.000304691
0.000351387
0.000398099
0.000444821
0.000491546
0.000538275
0.000585002
0.000631729
0.000678451
0.000725173
3.11905e-05
7.27857e-05
0.000118537
0.000164879
0.00021142
0.000258048
0.000304722
0.000351424
0.000398142
0.000444866
0.000491596
0.000538328
0.000585062
0.000631793
0.000678523
0.000725249
3.11941e-05
7.27916e-05
0.000118547
0.000164895
0.000211438
0.000258072
0.00030475
0.000351455
0.000398174
0.000444904
0.000491638
0.000538376
0.000585112
0.000631849
0.000678584
0.000725318
3.11975e-05
7.27985e-05
0.000118556
0.000164906
0.000211454
0.000258091
0.000304772
0.000351479
0.000398204
0.000444936
0.000491673
0.000538415
0.000585156
0.000631897
0.000678638
0.000725377
3.11987e-05
7.2802e-05
0.000118563
0.000164916
0.000211467
0.000258106
0.000304789
0.0003515
0.000398226
0.000444963
0.000491704
0.000538449
0.000585194
0.00063194
0.000678686
0.000725431
3.12011e-05
7.28056e-05
0.000118568
0.000164924
0.000211477
0.000258117
0.000304804
0.000351518
0.000398247
0.000444986
0.000491731
0.000538478
0.000585228
0.000631978
0.000678728
0.000725479
3.12026e-05
7.28085e-05
0.000118573
0.000164932
0.000211486
0.000258128
0.000304818
0.000351533
0.000398264
0.000445006
0.000491754
0.000538505
0.000585258
0.000632013
0.000678768
0.000725522
3.12039e-05
7.28109e-05
0.000118578
0.000164937
0.000211493
0.000258138
0.000304828
0.000351546
0.000398281
0.000445025
0.000491774
0.00053853
0.000585286
0.000632044
0.000678803
0.000725562
3.12049e-05
7.28139e-05
0.00011858
0.000164942
0.0002115
0.000258145
0.000304839
0.000351558
0.000398294
0.00044504
0.000491794
0.000538551
0.000585312
0.000632072
0.000678836
0.000725598
3.12058e-05
7.28141e-05
0.000118584
0.000164946
0.000211505
0.000258153
0.000304847
0.000351568
0.000398308
0.000445056
0.000491812
0.000538573
0.000585334
0.0006321
0.000678866
0.000725632
3.12072e-05
7.28166e-05
0.000118586
0.00016495
0.000211511
0.000258159
0.000304856
0.000351578
0.000398319
0.000445071
0.000491828
0.000538591
0.000585357
0.000632125
0.000678894
0.000725664
3.12074e-05
7.28191e-05
0.000118589
0.000164953
0.000211515
0.000258167
0.000304863
0.000351588
0.000398331
0.000445083
0.000491844
0.000538608
0.000585377
0.000632148
0.000678921
0.000725695
3.12075e-05
7.28198e-05
0.000118592
0.000164958
0.000211519
0.000258172
0.000304871
0.000351598
0.00039834
0.000445097
0.000491858
0.000538626
0.000585398
0.000632171
0.000678946
0.000725722
3.12093e-05
7.28204e-05
0.000118595
0.000164961
0.000211525
0.000258179
0.000304877
0.000351606
0.000398352
0.000445108
0.000491872
0.000538643
0.000585416
0.000632192
0.000678972
0.000725749
3.12093e-05
7.28227e-05
0.000118596
0.000164964
0.00021153
0.000258183
0.000304886
0.000351615
0.000398362
0.00044512
0.000491886
0.000538659
0.000585434
0.000632213
0.000678994
0.000725775
3.121e-05
7.2825e-05
0.000118599
0.000164967
0.000211534
0.00025819
0.000304891
0.000351624
0.000398372
0.000445132
0.0004919
0.000538675
0.000585452
0.000632233
0.000679016
0.0007258
3.121e-05
7.28257e-05
0.000118601
0.000164971
0.000211538
0.000258195
0.0003049
0.000351631
0.000398381
0.000445145
0.000491914
0.000538688
0.00058547
0.000632252
0.000679037
0.000725824
3.12112e-05
7.28272e-05
0.000118604
0.000164974
0.000211543
0.000258201
0.000304906
0.00035164
0.000398393
0.000445155
0.000491926
0.000538704
0.000585486
0.000632271
0.000679059
0.000725846
3.12124e-05
7.28286e-05
0.000118606
0.000164978
0.000211547
0.000258207
0.000304913
0.000351648
0.000398401
0.000445166
0.000491939
0.000538719
0.000585502
0.00063229
0.000679077
0.000725869
3.12125e-05
7.28301e-05
0.000118608
0.000164982
0.000211552
0.000258212
0.00030492
0.000351656
0.00039841
0.000445177
0.000491952
0.000538734
0.000585518
0.000632306
0.000679098
0.000725888
3.12131e-05
7.28316e-05
0.000118611
0.000164985
0.000211557
0.000258217
0.000304927
0.000351665
0.00039842
0.000445188
0.000491964
0.000538747
0.000585533
0.000632323
0.000679116
0.000725909
3.12137e-05
7.28331e-05
0.000118615
0.000164989
0.00021156
0.000258224
0.000304933
0.000351672
0.000398429
0.000445198
0.000491977
0.00053876
0.000585548
0.00063234
0.000679133
0.00072593
3.12138e-05
7.28346e-05
0.000118616
0.000164992
0.000211565
0.000258229
0.00030494
0.00035168
0.000398438
0.00044521
0.000491987
0.000538773
0.000585563
0.000632356
0.000679152
0.000725948
3.12156e-05
7.28361e-05
0.000118618
0.000164994
0.000211571
0.000258234
0.000304947
0.000351687
0.000398447
0.000445219
0.000491999
0.000538787
0.000585577
0.000632371
0.000679168
0.000725966
3.12156e-05
7.28375e-05
0.000118621
0.000164999
0.000211574
0.000258239
0.000304953
0.000351695
0.000398456
0.000445228
0.00049201
0.000538798
0.000585591
0.000632386
0.000679185
0.000725985
3.12157e-05
7.28388e-05
0.000118623
0.000165002
0.000211577
0.000258244
0.00030496
0.000351702
0.000398464
0.000445238
0.00049202
0.00053881
0.000585603
0.0006324
0.000679201
0.000726
3.12174e-05
7.28401e-05
0.000118625
0.000165005
0.000211583
0.000258249
0.000304965
0.000351708
0.000398473
0.000445247
0.000492031
0.000538821
0.000585616
0.000632415
0.000679214
0.000726018
3.12174e-05
7.28413e-05
0.000118626
0.000165007
0.000211585
0.000258254
0.00030497
0.000351716
0.000398479
0.000445255
0.000492041
0.000538832
0.000585628
0.000632426
0.00067923
0.000726033
3.12179e-05
7.28425e-05
0.00011863
0.00016501
0.000211589
0.000258258
0.000304974
0.000351721
0.000398486
0.000445264
0.000492049
0.000538841
0.00058564
0.00063244
0.000679243
0.000726047
3.12184e-05
7.28435e-05
0.000118631
0.000165013
0.000211592
0.000258262
0.000304981
0.000351727
0.000398493
0.00044527
0.000492058
0.000538852
0.00058565
0.000632452
0.000679256
0.000726061
3.12188e-05
7.28445e-05
0.000118632
0.000165015
0.000211595
0.000258265
0.000304984
0.000351732
0.000398498
0.000445278
0.000492066
0.000538859
0.000585659
0.000632463
0.000679267
0.000726074
3.12193e-05
7.28454e-05
0.000118634
0.000165016
0.000211597
0.000258269
0.000304988
0.000351737
0.000398504
0.000445284
0.000492072
0.000538869
0.000585668
0.000632471
0.000679279
0.000726086
3.1219e-05
7.28461e-05
0.000118635
0.000165018
0.0002116
0.000258271
0.000304991
0.00035174
0.000398508
0.000445289
0.000492078
0.000538875
0.000585676
0.000632481
0.000679288
0.000726096
3.12205e-05
7.28466e-05
0.000118636
0.000165019
0.000211601
0.000258274
0.000304995
0.000351743
0.000398512
0.000445292
0.000492083
0.00053888
0.000585682
0.000632488
0.000679296
0.000726105
3.12202e-05
7.28471e-05
0.000118636
0.00016502
0.000211603
0.000258275
0.000304996
0.000351745
0.000398514
0.000445297
0.000492087
0.000538884
0.000585687
0.000632493
0.000679302
0.000726114
3.12203e-05
7.28473e-05
0.000118637
0.000165021
0.000211604
0.000258276
0.000304997
0.000351747
0.000398516
0.000445298
0.000492089
0.000538887
0.00058569
0.000632497
0.000679308
0.000726117
3.12204e-05
7.28475e-05
0.000118637
0.000165022
0.000211604
0.000258277
0.000304998
0.000351748
0.000398517
0.000445299
0.00049209
0.000538889
0.000585692
0.000632499
0.000679309
0.000726122
3.12205e-05
7.28475e-05
0.000118637
0.000165022
0.000211604
0.000258277
0.000304998
0.000351748
0.000398518
0.0004453
0.000492091
0.000538889
0.000585692
0.000632499
0.00067931
0.000726122
3.12205e-05
7.28475e-05
0.000118637
0.000165022
0.000211604
0.000258277
0.000304998
0.000351748
0.000398518
0.0004453
0.000492091
0.000538889
0.000585692
0.000632499
0.00067931
0.000726122
3.12205e-05
)
;

boundaryField
{
    wireUpstream
    {
        type            calculated;
        value           nonuniform List<scalar> 
16
(
7.28475e-05
0.000118637
0.000165022
0.000211604
0.000258277
0.000304998
0.000351748
0.000398518
0.0004453
0.000492091
0.000538889
0.000585692
0.000632499
0.00067931
0.000726122
3.12205e-05
)
;
    }
    wireDownstream
    {
        type            calculated;
        value           nonuniform List<scalar> 
16
(
6.93003e-05
0.000112865
0.000157002
0.000201336
0.000245765
0.000290253
0.000334781
0.000379341
0.000423931
0.000468549
0.000513197
0.000557879
0.0006026
0.000647357
0.00069214
2.96995e-05
)
;
    }
    wireTopContact
    {
        type            calculated;
        value           nonuniform List<scalar> 
122
(
0.000714307
0.000714308
0.000714308
0.000714308
0.000714306
0.000714304
0.000714301
0.000714298
0.000714296
0.000714293
0.000714289
0.000714286
0.000714283
0.00071428
0.000714277
0.000714275
0.000714272
0.000714269
0.000714267
0.000714264
0.000714262
0.00071426
0.000714257
0.000714255
0.000714253
0.000714251
0.000714248
0.000714245
0.000714241
0.000714236
0.00071423
0.000714222
0.000714213
0.0007142
0.000714184
0.000714164
0.000714137
0.000714104
0.000714062
0.000714008
0.00071394
0.000713853
0.000713735
0.000713574
0.000713374
0.000713152
0.000712922
0.000712697
0.000712492
0.000712329
0.000712247
0.000712298
0.000712549
0.000713061
0.000713879
0.000715019
0.000716472
0.000718214
0.000720211
0.000722415
0.000724772
0.000727221
0.0007297
0.000732147
0.000734504
0.00073672
0.00073875
0.000740565
0.000742145
0.000743484
0.000744583
0.000745449
0.000746105
0.000746589
0.000746949
0.000747229
0.00074746
0.000747655
0.000747823
0.000747966
0.000748089
0.000748196
0.000748288
0.000748369
0.00074844
0.000748503
0.000748559
0.00074861
0.000748656
0.000748698
0.000748737
0.000748772
0.000748806
0.000748837
0.000748867
0.000748895
0.000748922
0.000748948
0.000748973
0.000748997
0.00074902
0.000749042
0.000749063
0.000749083
0.000749103
0.000749122
0.00074914
0.000749158
0.000749175
0.000749191
0.000749206
0.00074922
0.000749234
0.000749246
0.000749257
0.000749267
0.000749275
0.00074928
0.000749283
0.000749284
0.000749284
0.000714304
)
;
    }
    front
    {
        type            wedge;
    }
    back
    {
        type            wedge;
    }
}


// ************************************************************************* //
