/*--------------------------------*- C++ -*----------------------------------*\
| =========                 |                                                 |
| \\      /  F ield         | foam-extend: Open Source CFD                    |
|  \\    /   O peration     | Version:     4.1-20200408                       |
|   \\  /    A nd           | Web:         http://www.foam-extend.org         |
|    \\/     M anipulation  |                                                 |
\*---------------------------------------------------------------------------*/
FoamFile
{
    version     2.0;
    format      ascii;
    class       volVectorField;
    location    "0.0980000";
    object      U;
}
// * * * * * * * * * * * * * * * * * * * * * * * * * * * * * * * * * * * * * //

dimensions      [0 1 0 0 0 0 0];

internalField   nonuniform List<vector> 
1952
(
(0.093907 -3.56242e-06 0)
(0.0939066 -5.79473e-06 0)
(0.0939061 -8.0535e-06 0)
(0.0939054 -1.03081e-05 0)
(0.0939046 -1.25638e-05 0)
(0.0939037 -1.48008e-05 0)
(0.0939027 -1.70379e-05 0)
(0.0939016 -1.92484e-05 0)
(0.0939005 -2.14563e-05 0)
(0.0938995 -2.36304e-05 0)
(0.0938985 -2.57949e-05 0)
(0.0938976 -2.79198e-05 0)
(0.093897 -3.00131e-05 0)
(0.0938966 -3.20697e-05 0)
(0.0938965 -3.40978e-05 0)
(0.0939071 -1.52667e-06 0)
(0.0939024 -3.5605e-06 0)
(0.093902 -5.79171e-06 0)
(0.0939015 -8.04917e-06 0)
(0.0939008 -1.03028e-05 0)
(0.0939001 -1.25572e-05 0)
(0.0938991 -1.47933e-05 0)
(0.0938981 -1.70293e-05 0)
(0.0938971 -1.92391e-05 0)
(0.093896 -2.14459e-05 0)
(0.0938949 -2.36197e-05 0)
(0.0938939 -2.57834e-05 0)
(0.0938931 -2.79084e-05 0)
(0.0938924 -3.00013e-05 0)
(0.093892 -3.20585e-05 0)
(0.0938919 -3.40872e-05 0)
(0.0939025 -1.52585e-06 0)
(0.0938978 -3.55972e-06 0)
(0.0938975 -5.79049e-06 0)
(0.093897 -8.04746e-06 0)
(0.0938963 -1.03007e-05 0)
(0.0938955 -1.25546e-05 0)
(0.0938946 -1.47905e-05 0)
(0.0938936 -1.70261e-05 0)
(0.0938925 -1.92359e-05 0)
(0.0938914 -2.14424e-05 0)
(0.0938903 -2.36162e-05 0)
(0.0938893 -2.57798e-05 0)
(0.0938885 -2.7905e-05 0)
(0.0938878 -2.99979e-05 0)
(0.0938875 -3.20555e-05 0)
(0.0938874 -3.4084e-05 0)
(0.093898 -1.52552e-06 0)
(0.0938933 -3.55922e-06 0)
(0.0938929 -5.7897e-06 0)
(0.0938924 -8.04637e-06 0)
(0.0938917 -1.02994e-05 0)
(0.0938909 -1.25531e-05 0)
(0.09389 -1.47888e-05 0)
(0.093889 -1.70242e-05 0)
(0.0938879 -1.92339e-05 0)
(0.0938869 -2.14404e-05 0)
(0.0938858 -2.36144e-05 0)
(0.0938848 -2.5778e-05 0)
(0.0938839 -2.79034e-05 0)
(0.0938832 -2.99965e-05 0)
(0.0938829 -3.20543e-05 0)
(0.0938828 -3.40828e-05 0)
(0.0938934 -1.52531e-06 0)
(0.0938887 -3.55894e-06 0)
(0.0938883 -5.78926e-06 0)
(0.0938878 -8.04577e-06 0)
(0.0938872 -1.02987e-05 0)
(0.0938864 -1.25523e-05 0)
(0.0938854 -1.4788e-05 0)
(0.0938844 -1.70233e-05 0)
(0.0938834 -1.92332e-05 0)
(0.0938823 -2.14397e-05 0)
(0.0938812 -2.36138e-05 0)
(0.0938802 -2.57776e-05 0)
(0.0938794 -2.79033e-05 0)
(0.0938787 -2.99965e-05 0)
(0.0938783 -3.20544e-05 0)
(0.0938782 -3.4083e-05 0)
(0.0938889 -1.52519e-06 0)
(0.0938842 -3.55885e-06 0)
(0.0938838 -5.78914e-06 0)
(0.0938833 -8.04562e-06 0)
(0.0938826 -1.02985e-05 0)
(0.0938818 -1.25521e-05 0)
(0.0938809 -1.47879e-05 0)
(0.0938799 -1.70234e-05 0)
(0.0938788 -1.92334e-05 0)
(0.0938777 -2.144e-05 0)
(0.0938766 -2.36144e-05 0)
(0.0938756 -2.57783e-05 0)
(0.0938748 -2.79042e-05 0)
(0.0938741 -2.99975e-05 0)
(0.0938737 -3.20556e-05 0)
(0.0938736 -3.4084e-05 0)
(0.0938843 -1.52515e-06 0)
(0.0938796 -3.55893e-06 0)
(0.0938792 -5.78927e-06 0)
(0.0938787 -8.04582e-06 0)
(0.093878 -1.02988e-05 0)
(0.0938772 -1.25525e-05 0)
(0.0938763 -1.47885e-05 0)
(0.0938753 -1.7024e-05 0)
(0.0938742 -1.92342e-05 0)
(0.0938731 -2.14411e-05 0)
(0.0938721 -2.36156e-05 0)
(0.0938711 -2.57797e-05 0)
(0.0938702 -2.79058e-05 0)
(0.0938695 -2.99992e-05 0)
(0.0938692 -3.20574e-05 0)
(0.0938691 -3.40858e-05 0)
(0.0938797 -1.52518e-06 0)
(0.093875 -3.55913e-06 0)
(0.0938746 -5.78961e-06 0)
(0.0938741 -8.04629e-06 0)
(0.0938735 -1.02994e-05 0)
(0.0938727 -1.25533e-05 0)
(0.0938717 -1.47894e-05 0)
(0.0938707 -1.70252e-05 0)
(0.0938697 -1.92356e-05 0)
(0.0938686 -2.14426e-05 0)
(0.0938675 -2.36174e-05 0)
(0.0938665 -2.57816e-05 0)
(0.0938656 -2.79079e-05 0)
(0.093865 -3.00014e-05 0)
(0.0938646 -3.20597e-05 0)
(0.0938645 -3.40881e-05 0)
(0.0938752 -1.52527e-06 0)
(0.0938705 -3.55942e-06 0)
(0.0938701 -5.79008e-06 0)
(0.0938696 -8.04695e-06 0)
(0.0938689 -1.03003e-05 0)
(0.0938681 -1.25544e-05 0)
(0.0938672 -1.47907e-05 0)
(0.0938662 -1.70267e-05 0)
(0.0938651 -1.92373e-05 0)
(0.093864 -2.14445e-05 0)
(0.0938629 -2.36195e-05 0)
(0.0938619 -2.57839e-05 0)
(0.0938611 -2.79103e-05 0)
(0.0938604 -3.00039e-05 0)
(0.09386 -3.20623e-05 0)
(0.0938599 -3.40907e-05 0)
(0.0938706 -1.52539e-06 0)
(0.0938659 -3.55977e-06 0)
(0.0938655 -5.79066e-06 0)
(0.093865 -8.04775e-06 0)
(0.0938643 -1.03014e-05 0)
(0.0938635 -1.25556e-05 0)
(0.0938626 -1.47922e-05 0)
(0.0938616 -1.70284e-05 0)
(0.0938605 -1.92392e-05 0)
(0.0938594 -2.14466e-05 0)
(0.0938584 -2.36218e-05 0)
(0.0938573 -2.57863e-05 0)
(0.0938565 -2.79129e-05 0)
(0.0938558 -3.00066e-05 0)
(0.0938554 -3.20651e-05 0)
(0.0938553 -3.40935e-05 0)
(0.093866 -1.52554e-06 0)
(0.0938613 -3.56015e-06 0)
(0.0938609 -5.79127e-06 0)
(0.0938604 -8.0486e-06 0)
(0.0938597 -1.03024e-05 0)
(0.093859 -1.25569e-05 0)
(0.093858 -1.47938e-05 0)
(0.093857 -1.70301e-05 0)
(0.093856 -1.92412e-05 0)
(0.0938549 -2.14488e-05 0)
(0.0938538 -2.36242e-05 0)
(0.0938528 -2.57889e-05 0)
(0.0938519 -2.79156e-05 0)
(0.0938512 -3.00094e-05 0)
(0.0938509 -3.2068e-05 0)
(0.0938508 -3.40964e-05 0)
(0.0938614 -1.5257e-06 0)
(0.0938567 -3.56053e-06 0)
(0.0938564 -5.79189e-06 0)
(0.0938559 -8.04946e-06 0)
(0.0938552 -1.03035e-05 0)
(0.0938544 -1.25583e-05 0)
(0.0938535 -1.47954e-05 0)
(0.0938525 -1.70319e-05 0)
(0.0938514 -1.92433e-05 0)
(0.0938503 -2.1451e-05 0)
(0.0938492 -2.36266e-05 0)
(0.0938482 -2.57914e-05 0)
(0.0938473 -2.79184e-05 0)
(0.0938467 -3.00122e-05 0)
(0.0938463 -3.20709e-05 0)
(0.0938462 -3.40994e-05 0)
(0.0938569 -1.52587e-06 0)
(0.0938522 -3.56091e-06 0)
(0.0938518 -5.79252e-06 0)
(0.0938513 -8.05032e-06 0)
(0.0938506 -1.03047e-05 0)
(0.0938498 -1.25596e-05 0)
(0.0938489 -1.47969e-05 0)
(0.0938479 -1.70337e-05 0)
(0.0938468 -1.92453e-05 0)
(0.0938457 -2.14532e-05 0)
(0.0938446 -2.3629e-05 0)
(0.0938436 -2.57939e-05 0)
(0.0938428 -2.7921e-05 0)
(0.0938421 -3.0015e-05 0)
(0.0938417 -3.20738e-05 0)
(0.0938416 -3.41024e-05 0)
(0.0938523 -1.52603e-06 0)
(0.0938476 -3.56126e-06 0)
(0.0938472 -5.79309e-06 0)
(0.0938467 -8.05111e-06 0)
(0.093846 -1.03057e-05 0)
(0.0938452 -1.25608e-05 0)
(0.0938443 -1.47984e-05 0)
(0.0938433 -1.70353e-05 0)
(0.0938422 -1.92471e-05 0)
(0.0938411 -2.14552e-05 0)
(0.0938401 -2.36313e-05 0)
(0.0938391 -2.57964e-05 0)
(0.0938382 -2.79237e-05 0)
(0.0938375 -3.00177e-05 0)
(0.0938371 -3.20767e-05 0)
(0.093837 -3.41055e-05 0)
(0.0938477 -1.52618e-06 0)
(0.093843 -3.56159e-06 0)
(0.0938426 -5.79363e-06 0)
(0.0938421 -8.05185e-06 0)
(0.0938415 -1.03066e-05 0)
(0.0938407 -1.2562e-05 0)
(0.0938397 -1.47998e-05 0)
(0.0938387 -1.70369e-05 0)
(0.0938377 -1.9249e-05 0)
(0.0938366 -2.14572e-05 0)
(0.0938355 -2.36335e-05 0)
(0.0938345 -2.57987e-05 0)
(0.0938336 -2.79262e-05 0)
(0.0938329 -3.00204e-05 0)
(0.0938326 -3.20795e-05 0)
(0.0938325 -3.41084e-05 0)
(0.0938432 -1.52633e-06 0)
(0.0938385 -3.5619e-06 0)
(0.0938381 -5.79413e-06 0)
(0.0938376 -8.05254e-06 0)
(0.0938369 -1.03075e-05 0)
(0.0938361 -1.25631e-05 0)
(0.0938352 -1.48011e-05 0)
(0.0938342 -1.70384e-05 0)
(0.0938331 -1.92507e-05 0)
(0.093832 -2.1459e-05 0)
(0.0938309 -2.36355e-05 0)
(0.0938299 -2.58009e-05 0)
(0.093829 -2.79286e-05 0)
(0.0938284 -3.0023e-05 0)
(0.093828 -3.20823e-05 0)
(0.0938279 -3.41114e-05 0)
(0.0938386 -1.52646e-06 0)
(0.0938339 -3.56217e-06 0)
(0.0938335 -5.79458e-06 0)
(0.093833 -8.05316e-06 0)
(0.0938323 -1.03083e-05 0)
(0.0938315 -1.2564e-05 0)
(0.0938306 -1.48023e-05 0)
(0.0938296 -1.70397e-05 0)
(0.0938285 -1.92522e-05 0)
(0.0938274 -2.14608e-05 0)
(0.0938263 -2.36375e-05 0)
(0.0938253 -2.5803e-05 0)
(0.0938245 -2.7931e-05 0)
(0.0938238 -3.00255e-05 0)
(0.0938234 -3.2085e-05 0)
(0.0938233 -3.41142e-05 0)
(0.093834 -1.52657e-06 0)
(0.0938293 -3.56241e-06 0)
(0.0938289 -5.79499e-06 0)
(0.0938284 -8.05372e-06 0)
(0.0938277 -1.03091e-05 0)
(0.0938269 -1.25649e-05 0)
(0.093826 -1.48034e-05 0)
(0.093825 -1.70409e-05 0)
(0.0938239 -1.92537e-05 0)
(0.0938228 -2.14624e-05 0)
(0.0938218 -2.36394e-05 0)
(0.0938207 -2.5805e-05 0)
(0.0938199 -2.79332e-05 0)
(0.0938192 -3.00279e-05 0)
(0.0938188 -3.20876e-05 0)
(0.0938187 -3.4117e-05 0)
(0.0938294 -1.52668e-06 0)
(0.0938247 -3.56263e-06 0)
(0.0938243 -5.79535e-06 0)
(0.0938238 -8.05422e-06 0)
(0.0938232 -1.03098e-05 0)
(0.0938224 -1.25657e-05 0)
(0.0938214 -1.48044e-05 0)
(0.0938204 -1.70421e-05 0)
(0.0938193 -1.92551e-05 0)
(0.0938183 -2.14638e-05 0)
(0.0938172 -2.36411e-05 0)
(0.0938162 -2.58069e-05 0)
(0.0938153 -2.79353e-05 0)
(0.0938146 -3.00301e-05 0)
(0.0938143 -3.20901e-05 0)
(0.0938141 -3.41196e-05 0)
(0.0938249 -1.52677e-06 0)
(0.0938201 -3.56283e-06 0)
(0.0938198 -5.79568e-06 0)
(0.0938193 -8.05466e-06 0)
(0.0938186 -1.03104e-05 0)
(0.0938178 -1.25664e-05 0)
(0.0938168 -1.48053e-05 0)
(0.0938158 -1.7043e-05 0)
(0.0938148 -1.92563e-05 0)
(0.0938137 -2.14651e-05 0)
(0.0938126 -2.36426e-05 0)
(0.0938116 -2.58085e-05 0)
(0.0938107 -2.79372e-05 0)
(0.09381 -3.00322e-05 0)
(0.0938097 -3.20924e-05 0)
(0.0938096 -3.41221e-05 0)
(0.0938203 -1.52686e-06 0)
(0.0938156 -3.56299e-06 0)
(0.0938152 -5.79595e-06 0)
(0.0938147 -8.05502e-06 0)
(0.093814 -1.03109e-05 0)
(0.0938132 -1.2567e-05 0)
(0.0938123 -1.4806e-05 0)
(0.0938113 -1.70439e-05 0)
(0.0938102 -1.92573e-05 0)
(0.0938091 -2.14663e-05 0)
(0.093808 -2.3644e-05 0)
(0.093807 -2.581e-05 0)
(0.0938061 -2.79389e-05 0)
(0.0938055 -3.00341e-05 0)
(0.0938051 -3.20945e-05 0)
(0.093805 -3.41245e-05 0)
(0.0938157 -1.52693e-06 0)
(0.093811 -3.56311e-06 0)
(0.0938106 -5.79615e-06 0)
(0.0938101 -8.0553e-06 0)
(0.0938094 -1.03113e-05 0)
(0.0938086 -1.25674e-05 0)
(0.0938077 -1.48067e-05 0)
(0.0938067 -1.70445e-05 0)
(0.0938056 -1.92582e-05 0)
(0.0938045 -2.14672e-05 0)
(0.0938034 -2.36451e-05 0)
(0.0938024 -2.58113e-05 0)
(0.0938016 -2.79404e-05 0)
(0.0938009 -3.00358e-05 0)
(0.0938005 -3.20965e-05 0)
(0.0938004 -3.41267e-05 0)
(0.0938111 -1.52698e-06 0)
(0.0938064 -3.5632e-06 0)
(0.093806 -5.79631e-06 0)
(0.0938055 -8.0555e-06 0)
(0.0938048 -1.03116e-05 0)
(0.093804 -1.25678e-05 0)
(0.0938031 -1.48071e-05 0)
(0.0938021 -1.7045e-05 0)
(0.093801 -1.92589e-05 0)
(0.0937999 -2.14679e-05 0)
(0.0937989 -2.36461e-05 0)
(0.0937978 -2.58124e-05 0)
(0.093797 -2.79418e-05 0)
(0.0937963 -3.00374e-05 0)
(0.0937959 -3.20983e-05 0)
(0.0937958 -3.41288e-05 0)
(0.0938065 -1.52702e-06 0)
(0.0938018 -3.56324e-06 0)
(0.0938015 -5.79638e-06 0)
(0.0938009 -8.05559e-06 0)
(0.0938003 -1.03117e-05 0)
(0.0937995 -1.25679e-05 0)
(0.0937985 -1.48075e-05 0)
(0.0937975 -1.70454e-05 0)
(0.0937964 -1.92594e-05 0)
(0.0937954 -2.14685e-05 0)
(0.0937943 -2.3647e-05 0)
(0.0937933 -2.58134e-05 0)
(0.0937924 -2.79431e-05 0)
(0.0937917 -3.00388e-05 0)
(0.0937913 -3.21001e-05 0)
(0.0937912 -3.41308e-05 0)
(0.093802 -1.52703e-06 0)
(0.0937973 -3.56326e-06 0)
(0.0937969 -5.79643e-06 0)
(0.0937964 -8.05564e-06 0)
(0.0937957 -1.03119e-05 0)
(0.0937949 -1.2568e-05 0)
(0.0937939 -1.48077e-05 0)
(0.0937929 -1.70456e-05 0)
(0.0937919 -1.92598e-05 0)
(0.0937908 -2.1469e-05 0)
(0.0937897 -2.36477e-05 0)
(0.0937887 -2.58142e-05 0)
(0.0937878 -2.79442e-05 0)
(0.0937871 -3.00401e-05 0)
(0.0937868 -3.21017e-05 0)
(0.0937867 -3.41327e-05 0)
(0.0937974 -1.52704e-06 0)
(0.0937927 -3.56325e-06 0)
(0.0937923 -5.79642e-06 0)
(0.0937918 -8.05562e-06 0)
(0.0937911 -1.03119e-05 0)
(0.0937903 -1.2568e-05 0)
(0.0937894 -1.48079e-05 0)
(0.0937884 -1.70457e-05 0)
(0.0937873 -1.92602e-05 0)
(0.0937862 -2.14693e-05 0)
(0.0937851 -2.36483e-05 0)
(0.0937841 -2.58149e-05 0)
(0.0937832 -2.79452e-05 0)
(0.0937825 -3.00413e-05 0)
(0.0937822 -3.21032e-05 0)
(0.0937821 -3.41347e-05 0)
(0.0937928 -1.52704e-06 0)
(0.0937881 -3.56324e-06 0)
(0.0937877 -5.79642e-06 0)
(0.0937872 -8.0556e-06 0)
(0.0937865 -1.03119e-05 0)
(0.0937857 -1.2568e-05 0)
(0.0937848 -1.4808e-05 0)
(0.0937838 -1.70457e-05 0)
(0.0937827 -1.92604e-05 0)
(0.0937816 -2.14696e-05 0)
(0.0937805 -2.36488e-05 0)
(0.0937795 -2.58155e-05 0)
(0.0937786 -2.79461e-05 0)
(0.093778 -3.00426e-05 0)
(0.0937776 -3.21049e-05 0)
(0.0937775 -3.41367e-05 0)
(0.0937882 -1.52704e-06 0)
(0.0937835 -3.56325e-06 0)
(0.0937831 -5.79645e-06 0)
(0.0937826 -8.05561e-06 0)
(0.0937819 -1.0312e-05 0)
(0.0937811 -1.25681e-05 0)
(0.0937802 -1.48082e-05 0)
(0.0937792 -1.70458e-05 0)
(0.0937781 -1.92608e-05 0)
(0.093777 -2.14699e-05 0)
(0.0937759 -2.36495e-05 0)
(0.0937749 -2.58162e-05 0)
(0.0937741 -2.79473e-05 0)
(0.0937734 -3.00439e-05 0)
(0.093773 -3.21066e-05 0)
(0.0937729 -3.41389e-05 0)
(0.0937836 -1.52704e-06 0)
(0.0937789 -3.56331e-06 0)
(0.0937786 -5.79656e-06 0)
(0.0937781 -8.05572e-06 0)
(0.0937774 -1.03122e-05 0)
(0.0937766 -1.25682e-05 0)
(0.0937756 -1.48085e-05 0)
(0.0937746 -1.70461e-05 0)
(0.0937735 -1.92614e-05 0)
(0.0937724 -2.14704e-05 0)
(0.0937714 -2.36503e-05 0)
(0.0937703 -2.58172e-05 0)
(0.0937695 -2.79486e-05 0)
(0.0937688 -3.00455e-05 0)
(0.0937684 -3.21087e-05 0)
(0.0937683 -3.41414e-05 0)
(0.0937791 -1.52707e-06 0)
(0.0937744 -3.56349e-06 0)
(0.093774 -5.79685e-06 0)
(0.0937735 -8.05608e-06 0)
(0.0937728 -1.03128e-05 0)
(0.093772 -1.25687e-05 0)
(0.093771 -1.48093e-05 0)
(0.09377 -1.70468e-05 0)
(0.093769 -1.92623e-05 0)
(0.0937679 -2.14713e-05 0)
(0.0937668 -2.36515e-05 0)
(0.0937658 -2.58185e-05 0)
(0.0937649 -2.79503e-05 0)
(0.0937642 -3.00475e-05 0)
(0.0937638 -3.21111e-05 0)
(0.0937637 -3.41444e-05 0)
(0.0937745 -1.52714e-06 0)
(0.0937698 -3.5638e-06 0)
(0.0937694 -5.79737e-06 0)
(0.0937689 -8.05674e-06 0)
(0.0937682 -1.03137e-05 0)
(0.0937674 -1.25697e-05 0)
(0.0937665 -1.48105e-05 0)
(0.0937655 -1.7048e-05 0)
(0.0937644 -1.92638e-05 0)
(0.0937633 -2.14728e-05 0)
(0.0937622 -2.36534e-05 0)
(0.0937612 -2.58204e-05 0)
(0.0937603 -2.79526e-05 0)
(0.0937596 -3.00501e-05 0)
(0.0937592 -3.21142e-05 0)
(0.0937591 -3.4148e-05 0)
(0.0937699 -1.52728e-06 0)
(0.0937652 -3.56437e-06 0)
(0.0937648 -5.79828e-06 0)
(0.0937643 -8.05792e-06 0)
(0.0937636 -1.03152e-05 0)
(0.0937628 -1.25713e-05 0)
(0.0937619 -1.48126e-05 0)
(0.0937609 -1.705e-05 0)
(0.0937598 -1.92663e-05 0)
(0.0937587 -2.14751e-05 0)
(0.0937576 -2.36562e-05 0)
(0.0937566 -2.58232e-05 0)
(0.0937557 -2.79558e-05 0)
(0.093755 -3.00536e-05 0)
(0.0937546 -3.21181e-05 0)
(0.0937545 -3.41524e-05 0)
(0.0937653 -1.52752e-06 0)
(0.0937606 -3.56524e-06 0)
(0.0937602 -5.7997e-06 0)
(0.0937597 -8.05977e-06 0)
(0.093759 -1.03176e-05 0)
(0.0937582 -1.2574e-05 0)
(0.0937573 -1.48157e-05 0)
(0.0937563 -1.70532e-05 0)
(0.0937552 -1.927e-05 0)
(0.0937541 -2.14787e-05 0)
(0.093753 -2.36602e-05 0)
(0.093752 -2.58272e-05 0)
(0.0937511 -2.79602e-05 0)
(0.0937504 -3.00582e-05 0)
(0.09375 -3.21232e-05 0)
(0.0937499 -3.41581e-05 0)
(0.0937608 -1.5279e-06 0)
(0.093756 -3.56655e-06 0)
(0.0937557 -5.80181e-06 0)
(0.0937552 -8.06256e-06 0)
(0.0937545 -1.03212e-05 0)
(0.0937537 -1.25779e-05 0)
(0.0937527 -1.48204e-05 0)
(0.0937517 -1.7058e-05 0)
(0.0937506 -1.92753e-05 0)
(0.0937495 -2.1484e-05 0)
(0.0937484 -2.36659e-05 0)
(0.0937474 -2.58328e-05 0)
(0.0937465 -2.79662e-05 0)
(0.0937458 -3.00644e-05 0)
(0.0937455 -3.21298e-05 0)
(0.0937453 -3.41654e-05 0)
(0.0937562 -1.52846e-06 0)
(0.0937515 -3.56842e-06 0)
(0.0937511 -5.80482e-06 0)
(0.0937506 -8.06655e-06 0)
(0.0937499 -1.03263e-05 0)
(0.0937491 -1.25836e-05 0)
(0.0937481 -1.4827e-05 0)
(0.0937471 -1.70648e-05 0)
(0.093746 -1.92828e-05 0)
(0.0937449 -2.14915e-05 0)
(0.0937438 -2.36739e-05 0)
(0.0937428 -2.58407e-05 0)
(0.0937419 -2.79744e-05 0)
(0.0937412 -3.00728e-05 0)
(0.0937409 -3.21386e-05 0)
(0.0937407 -3.41747e-05 0)
(0.0937516 -1.52926e-06 0)
(0.0937469 -3.57101e-06 0)
(0.0937465 -5.80898e-06 0)
(0.093746 -8.07211e-06 0)
(0.0937453 -1.03333e-05 0)
(0.0937445 -1.25916e-05 0)
(0.0937435 -1.48362e-05 0)
(0.0937425 -1.70744e-05 0)
(0.0937414 -1.92933e-05 0)
(0.0937403 -2.15019e-05 0)
(0.0937392 -2.36848e-05 0)
(0.0937382 -2.58515e-05 0)
(0.0937373 -2.79855e-05 0)
(0.0937366 -3.00839e-05 0)
(0.0937363 -3.215e-05 0)
(0.0937361 -3.41867e-05 0)
(0.093747 -1.53037e-06 0)
(0.0937423 -3.57449e-06 0)
(0.0937419 -5.81458e-06 0)
(0.0937414 -8.07961e-06 0)
(0.0937407 -1.03427e-05 0)
(0.0937399 -1.26024e-05 0)
(0.093739 -1.48486e-05 0)
(0.093738 -1.70874e-05 0)
(0.0937369 -1.93075e-05 0)
(0.0937358 -2.15161e-05 0)
(0.0937347 -2.36997e-05 0)
(0.0937336 -2.58661e-05 0)
(0.0937327 -2.80004e-05 0)
(0.093732 -3.00987e-05 0)
(0.0937317 -3.2165e-05 0)
(0.0937315 -3.42022e-05 0)
(0.0937424 -1.53187e-06 0)
(0.0937377 -3.57911e-06 0)
(0.0937373 -5.822e-06 0)
(0.0937368 -8.0896e-06 0)
(0.0937361 -1.03553e-05 0)
(0.0937353 -1.26168e-05 0)
(0.0937344 -1.48651e-05 0)
(0.0937334 -1.7105e-05 0)
(0.0937323 -1.93265e-05 0)
(0.0937312 -2.15353e-05 0)
(0.0937301 -2.37197e-05 0)
(0.093729 -2.58857e-05 0)
(0.0937282 -2.80201e-05 0)
(0.0937274 -3.01181e-05 0)
(0.0937271 -3.21845e-05 0)
(0.0937269 -3.42222e-05 0)
(0.0937378 -1.53385e-06 0)
(0.0937331 -3.58509e-06 0)
(0.0937327 -5.83163e-06 0)
(0.0937322 -8.10259e-06 0)
(0.0937315 -1.03716e-05 0)
(0.0937307 -1.26357e-05 0)
(0.0937298 -1.48867e-05 0)
(0.0937288 -1.71281e-05 0)
(0.0937277 -1.93515e-05 0)
(0.0937266 -2.15607e-05 0)
(0.0937255 -2.3746e-05 0)
(0.0937244 -2.59115e-05 0)
(0.0937236 -2.80462e-05 0)
(0.0937228 -3.01436e-05 0)
(0.0937224 -3.22098e-05 0)
(0.0937223 -3.42478e-05 0)
(0.0937332 -1.53642e-06 0)
(0.0937285 -3.59272e-06 0)
(0.0937281 -5.84392e-06 0)
(0.0937276 -8.11923e-06 0)
(0.0937269 -1.03925e-05 0)
(0.0937261 -1.26601e-05 0)
(0.0937252 -1.49145e-05 0)
(0.0937242 -1.71581e-05 0)
(0.0937231 -1.93839e-05 0)
(0.093722 -2.15938e-05 0)
(0.0937209 -2.37804e-05 0)
(0.0937199 -2.59454e-05 0)
(0.093719 -2.80802e-05 0)
(0.0937182 -3.01768e-05 0)
(0.0937178 -3.22425e-05 0)
(0.0937177 -3.42805e-05 0)
(0.0937286 -1.53969e-06 0)
(0.0937239 -3.60226e-06 0)
(0.0937235 -5.85931e-06 0)
(0.093723 -8.14013e-06 0)
(0.0937223 -1.04188e-05 0)
(0.0937215 -1.26909e-05 0)
(0.0937206 -1.49498e-05 0)
(0.0937196 -1.71963e-05 0)
(0.0937185 -1.94254e-05 0)
(0.0937174 -2.16365e-05 0)
(0.0937163 -2.38248e-05 0)
(0.0937153 -2.59894e-05 0)
(0.0937144 -2.81244e-05 0)
(0.0937136 -3.02198e-05 0)
(0.0937132 -3.22847e-05 0)
(0.0937131 -3.43224e-05 0)
(0.093724 -1.54378e-06 0)
(0.0937193 -3.61399e-06 0)
(0.0937189 -5.87825e-06 0)
(0.0937184 -8.16595e-06 0)
(0.0937177 -1.04514e-05 0)
(0.0937169 -1.27292e-05 0)
(0.093716 -1.49939e-05 0)
(0.093715 -1.72445e-05 0)
(0.0937139 -1.94778e-05 0)
(0.0937128 -2.16908e-05 0)
(0.0937117 -2.38816e-05 0)
(0.0937107 -2.6046e-05 0)
(0.0937098 -2.81813e-05 0)
(0.093709 -3.02751e-05 0)
(0.0937086 -3.23389e-05 0)
(0.0937085 -3.43757e-05 0)
(0.0937194 -1.54882e-06 0)
(0.0937147 -3.62814e-06 0)
(0.0937143 -5.90112e-06 0)
(0.0937138 -8.19722e-06 0)
(0.0937131 -1.04909e-05 0)
(0.0937123 -1.2776e-05 0)
(0.0937114 -1.50478e-05 0)
(0.0937104 -1.73039e-05 0)
(0.0937093 -1.95428e-05 0)
(0.0937082 -2.17589e-05 0)
(0.0937071 -2.39531e-05 0)
(0.0937061 -2.61178e-05 0)
(0.0937052 -2.8254e-05 0)
(0.0937044 -3.03459e-05 0)
(0.093704 -3.24082e-05 0)
(0.0937038 -3.44432e-05 0)
(0.0937148 -1.55489e-06 0)
(0.09371 -3.64485e-06 0)
(0.0937096 -5.92817e-06 0)
(0.0937091 -8.23434e-06 0)
(0.0937085 -1.05379e-05 0)
(0.0937077 -1.2832e-05 0)
(0.0937068 -1.51126e-05 0)
(0.0937058 -1.73759e-05 0)
(0.0937047 -1.96221e-05 0)
(0.0937036 -2.18427e-05 0)
(0.0937025 -2.4042e-05 0)
(0.0937015 -2.62081e-05 0)
(0.0937006 -2.83463e-05 0)
(0.0936998 -3.04366e-05 0)
(0.0936994 -3.24971e-05 0)
(0.0936992 -3.45292e-05 0)
(0.0937101 -1.56205e-06 0)
(0.0937053 -3.66415e-06 0)
(0.093705 -5.95944e-06 0)
(0.0937045 -8.27738e-06 0)
(0.0937038 -1.05926e-05 0)
(0.093703 -1.28975e-05 0)
(0.0937021 -1.51888e-05 0)
(0.0937011 -1.74612e-05 0)
(0.0937001 -1.97167e-05 0)
(0.093699 -2.1944e-05 0)
(0.0936979 -2.41508e-05 0)
(0.0936969 -2.63204e-05 0)
(0.093696 -2.84632e-05 0)
(0.0936952 -3.05536e-05 0)
(0.0936948 -3.26143e-05 0)
(0.0936946 -3.46438e-05 0)
(0.0937055 -1.57033e-06 0)
(0.0937006 -3.68586e-06 0)
(0.0937003 -5.99468e-06 0)
(0.0936998 -8.32604e-06 0)
(0.0936991 -1.06545e-05 0)
(0.0936983 -1.29721e-05 0)
(0.0936975 -1.5276e-05 0)
(0.0936965 -1.75597e-05 0)
(0.0936954 -1.98267e-05 0)
(0.0936944 -2.20633e-05 0)
(0.0936933 -2.42804e-05 0)
(0.0936923 -2.64566e-05 0)
(0.0936914 -2.86082e-05 0)
(0.0936907 -3.07029e-05 0)
(0.0936902 -3.27698e-05 0)
(0.09369 -3.48026e-05 0)
(0.0937008 -1.57963e-06 0)
(0.0936959 -3.70965e-06 0)
(0.0936955 -6.03333e-06 0)
(0.0936951 -8.37953e-06 0)
(0.0936944 -1.07228e-05 0)
(0.0936937 -1.30547e-05 0)
(0.0936928 -1.53728e-05 0)
(0.0936918 -1.76699e-05 0)
(0.0936908 -1.99505e-05 0)
(0.0936897 -2.21987e-05 0)
(0.0936887 -2.4429e-05 0)
(0.0936877 -2.66146e-05 0)
(0.0936868 -2.87791e-05 0)
(0.0936861 -3.08821e-05 0)
(0.0936856 -3.29615e-05 0)
(0.0936854 -3.50043e-05 0)
(0.093696 -1.58983e-06 0)
(0.0936911 -3.73487e-06 0)
(0.0936908 -6.07434e-06 0)
(0.0936903 -8.43645e-06 0)
(0.0936897 -1.07955e-05 0)
(0.0936889 -1.31432e-05 0)
(0.0936881 -1.54768e-05 0)
(0.0936871 -1.77888e-05 0)
(0.0936861 -2.00847e-05 0)
(0.0936851 -2.23464e-05 0)
(0.093684 -2.45918e-05 0)
(0.093683 -2.67886e-05 0)
(0.0936822 -2.89682e-05 0)
(0.0936814 -3.10801e-05 0)
(0.093681 -3.31732e-05 0)
(0.0936807 -3.52251e-05 0)
(0.0936913 -1.60064e-06 0)
(0.0936863 -3.76068e-06 0)
(0.093686 -6.11635e-06 0)
(0.0936855 -8.49486e-06 0)
(0.0936849 -1.08703e-05 0)
(0.0936842 -1.32344e-05 0)
(0.0936833 -1.55842e-05 0)
(0.0936824 -1.79124e-05 0)
(0.0936814 -2.02244e-05 0)
(0.0936804 -2.25011e-05 0)
(0.0936793 -2.47626e-05 0)
(0.0936784 -2.69717e-05 0)
(0.0936775 -2.91674e-05 0)
(0.0936768 -3.12874e-05 0)
(0.0936764 -3.33943e-05 0)
(0.0936761 -3.54532e-05 0)
(0.0936865 -1.61169e-06 0)
(0.0936815 -3.78596e-06 0)
(0.0936812 -6.15751e-06 0)
(0.0936807 -8.55221e-06 0)
(0.0936801 -1.09438e-05 0)
(0.0936794 -1.33244e-05 0)
(0.0936785 -1.56904e-05 0)
(0.0936776 -1.80352e-05 0)
(0.0936767 -2.03634e-05 0)
(0.0936757 -2.26559e-05 0)
(0.0936747 -2.49338e-05 0)
(0.0936737 -2.71557e-05 0)
(0.0936729 -2.93679e-05 0)
(0.0936722 -3.14942e-05 0)
(0.0936718 -3.3616e-05 0)
(0.0936715 -3.56787e-05 0)
(0.0936816 -1.62252e-06 0)
(0.0936766 -3.80935e-06 0)
(0.0936763 -6.19561e-06 0)
(0.0936759 -8.6054e-06 0)
(0.0936753 -1.1012e-05 0)
(0.0936745 -1.34082e-05 0)
(0.0936737 -1.57894e-05 0)
(0.0936728 -1.81504e-05 0)
(0.0936719 -2.04942e-05 0)
(0.0936709 -2.28027e-05 0)
(0.09367 -2.50963e-05 0)
(0.0936691 -2.73316e-05 0)
(0.0936682 -2.95597e-05 0)
(0.0936676 -3.16914e-05 0)
(0.0936672 -3.38303e-05 0)
(0.093667 -3.58905e-05 0)
(0.0936768 -1.63254e-06 0)
(0.0936717 -3.82932e-06 0)
(0.0936714 -6.22814e-06 0)
(0.093671 -8.65091e-06 0)
(0.0936704 -1.10704e-05 0)
(0.0936697 -1.34802e-05 0)
(0.0936689 -1.58745e-05 0)
(0.093668 -1.825e-05 0)
(0.0936671 -2.06075e-05 0)
(0.0936662 -2.29307e-05 0)
(0.0936652 -2.52386e-05 0)
(0.0936644 -2.74877e-05 0)
(0.0936636 -2.97306e-05 0)
(0.093663 -3.18704e-05 0)
(0.0936626 -3.40272e-05 0)
(0.0936624 -3.60712e-05 0)
(0.0936718 -1.64109e-06 0)
(0.0936668 -3.84411e-06 0)
(0.0936665 -6.25219e-06 0)
(0.093666 -8.68459e-06 0)
(0.0936655 -1.11135e-05 0)
(0.0936648 -1.35335e-05 0)
(0.093664 -1.59373e-05 0)
(0.0936632 -1.83241e-05 0)
(0.0936623 -2.06918e-05 0)
(0.0936614 -2.30277e-05 0)
(0.0936605 -2.53474e-05 0)
(0.0936597 -2.76101e-05 0)
(0.0936589 -2.98671e-05 0)
(0.0936584 -3.20186e-05 0)
(0.093658 -3.41843e-05 0)
(0.0936579 -3.61896e-05 0)
(0.0936669 -1.64741e-06 0)
(0.0936618 -3.85175e-06 0)
(0.0936615 -6.26458e-06 0)
(0.0936611 -8.70201e-06 0)
(0.0936605 -1.11356e-05 0)
(0.0936599 -1.35612e-05 0)
(0.0936591 -1.59698e-05 0)
(0.0936583 -1.8364e-05 0)
(0.0936574 -2.07382e-05 0)
(0.0936566 -2.30841e-05 0)
(0.0936557 -2.54121e-05 0)
(0.0936549 -2.76844e-05 0)
(0.0936543 -2.9949e-05 0)
(0.0936538 -3.21002e-05 0)
(0.0936535 -3.42499e-05 0)
(0.0936535 -3.61914e-05 0)
(0.0936619 -1.65068e-06 0)
(0.0936568 -3.85054e-06 0)
(0.0936565 -6.26267e-06 0)
(0.0936561 -8.69987e-06 0)
(0.0936555 -1.11332e-05 0)
(0.0936549 -1.35601e-05 0)
(0.0936542 -1.59691e-05 0)
(0.0936534 -1.83653e-05 0)
(0.0936526 -2.07391e-05 0)
(0.0936517 -2.30874e-05 0)
(0.0936509 -2.54109e-05 0)
(0.0936502 -2.76757e-05 0)
(0.0936496 -2.99206e-05 0)
(0.0936492 -3.20405e-05 0)
(0.0936491 -3.4143e-05 0)
(0.0936493 -3.60028e-05 0)
(0.0936569 -1.65015e-06 0)
(0.0936517 -3.84022e-06 0)
(0.0936515 -6.24589e-06 0)
(0.0936511 -8.67674e-06 0)
(0.0936505 -1.11033e-05 0)
(0.0936499 -1.35245e-05 0)
(0.0936492 -1.59243e-05 0)
(0.0936485 -1.8309e-05 0)
(0.0936477 -2.06635e-05 0)
(0.0936469 -2.29896e-05 0)
(0.0936462 -2.5279e-05 0)
(0.0936455 -2.75057e-05 0)
(0.0936451 -2.96954e-05 0)
(0.0936448 -3.1754e-05 0)
(0.0936448 -3.37815e-05 0)
(0.0936452 -3.55504e-05 0)
(0.0936518 -1.64569e-06 0)
(0.0936467 -3.81742e-06 0)
(0.0936464 -6.20767e-06 0)
(0.093646 -8.62097e-06 0)
(0.0936455 -1.10263e-05 0)
(0.093645 -1.34226e-05 0)
(0.0936443 -1.57905e-05 0)
(0.0936436 -1.81379e-05 0)
(0.0936429 -2.0444e-05 0)
(0.0936422 -2.27159e-05 0)
(0.0936415 -2.49378e-05 0)
(0.093641 -2.70947e-05 0)
(0.0936406 -2.91994e-05 0)
(0.0936405 -3.11747e-05 0)
(0.0936407 -3.3107e-05 0)
(0.0936413 -3.47829e-05 0)
(0.0936468 -1.63593e-06 0)
(0.0936416 -3.7679e-06 0)
(0.0936414 -6.1243e-06 0)
(0.093641 -8.49919e-06 0)
(0.0936406 -1.08592e-05 0)
(0.09364 -1.32037e-05 0)
(0.0936394 -1.55103e-05 0)
(0.0936388 -1.77898e-05 0)
(0.0936382 -2.00169e-05 0)
(0.0936375 -2.22046e-05 0)
(0.093637 -2.43307e-05 0)
(0.0936365 -2.63924e-05 0)
(0.0936363 -2.83904e-05 0)
(0.0936364 -3.02682e-05 0)
(0.0936368 -3.20948e-05 0)
(0.0936377 -3.36842e-05 0)
(0.0936417 -1.61482e-06 0)
(0.0936367 -3.67463e-06 0)
(0.0936364 -5.96898e-06 0)
(0.0936361 -8.2763e-06 0)
(0.0936357 -1.05613e-05 0)
(0.0936352 -1.28237e-05 0)
(0.0936347 -1.50395e-05 0)
(0.0936342 -1.72222e-05 0)
(0.0936336 -1.93432e-05 0)
(0.0936331 -2.14222e-05 0)
(0.0936326 -2.34304e-05 0)
(0.0936323 -2.53791e-05 0)
(0.0936323 -2.72562e-05 0)
(0.0936325 -2.90298e-05 0)
(0.0936331 -3.07478e-05 0)
(0.0936342 -3.22617e-05 0)
(0.0936367 -1.57506e-06 0)
(0.0936318 -3.52556e-06 0)
(0.0936317 -5.72349e-06 0)
(0.0936314 -7.92965e-06 0)
(0.093631 -1.01077e-05 0)
(0.0936306 -1.22582e-05 0)
(0.0936302 -1.4356e-05 0)
(0.0936297 -1.64171e-05 0)
(0.0936293 -1.84108e-05 0)
(0.0936289 -2.03627e-05 0)
(0.0936286 -2.22386e-05 0)
(0.0936284 -2.4063e-05 0)
(0.0936285 -2.58118e-05 0)
(0.0936288 -2.74791e-05 0)
(0.0936297 -2.90897e-05 0)
(0.093631 -3.05391e-05 0)
(0.0936319 -1.51142e-06 0)
(0.0936273 -3.31706e-06 0)
(0.0936271 -5.38296e-06 0)
(0.0936269 -7.45433e-06 0)
(0.0936266 -9.49515e-06 0)
(0.0936263 -1.15068e-05 0)
(0.093626 -1.34637e-05 0)
(0.0936256 -1.53837e-05 0)
(0.0936253 -1.72345e-05 0)
(0.093625 -1.90469e-05 0)
(0.0936248 -2.07816e-05 0)
(0.0936247 -2.24756e-05 0)
(0.0936249 -2.40931e-05 0)
(0.0936255 -2.56544e-05 0)
(0.0936265 -2.71604e-05 0)
(0.093628 -2.85544e-05 0)
(0.0936273 -1.42224e-06 0)
(0.093623 -3.05482e-06 0)
(0.0936229 -4.95696e-06 0)
(0.0936228 -6.86405e-06 0)
(0.0936226 -8.74178e-06 0)
(0.0936223 -1.05925e-05 0)
(0.0936221 -1.23904e-05 0)
(0.0936218 -1.41547e-05 0)
(0.0936216 -1.5852e-05 0)
(0.0936214 -1.75166e-05 0)
(0.0936213 -1.91054e-05 0)
(0.0936214 -2.06659e-05 0)
(0.0936217 -2.21515e-05 0)
(0.0936224 -2.3608e-05 0)
(0.0936236 -2.5012e-05 0)
(0.0936252 -2.63567e-05 0)
(0.0936231 -1.30989e-06 0)
(0.0936192 -2.75214e-06 0)
(0.0936192 -4.46675e-06 0)
(0.093619 -6.18753e-06 0)
(0.0936189 -7.88305e-06 0)
(0.0936187 -9.55646e-06 0)
(0.0936185 -1.11826e-05 0)
(0.0936184 -1.27812e-05 0)
(0.0936182 -1.43178e-05 0)
(0.0936181 -1.58296e-05 0)
(0.0936181 -1.72699e-05 0)
(0.0936183 -1.86951e-05 0)
(0.0936188 -2.00493e-05 0)
(0.0936196 -2.14016e-05 0)
(0.0936209 -2.27053e-05 0)
(0.0936226 -2.40036e-05 0)
(0.0936193 -1.18006e-06 0)
(0.0936159 -2.42699e-06 0)
(0.0936158 -3.94075e-06 0)
(0.0936157 -5.46269e-06 0)
(0.0936156 -6.96496e-06 0)
(0.0936155 -8.4515e-06 0)
(0.0936154 -9.89828e-06 0)
(0.0936153 -1.13249e-05 0)
(0.0936152 -1.26968e-05 0)
(0.0936153 -1.40527e-05 0)
(0.0936154 -1.53433e-05 0)
(0.0936157 -1.66322e-05 0)
(0.0936162 -1.78555e-05 0)
(0.0936171 -1.9103e-05 0)
(0.0936185 -2.03068e-05 0)
(0.0936203 -2.1558e-05 0)
(0.0936159 -1.04051e-06 0)
(0.093613 -2.09881e-06 0)
(0.0936129 -3.40965e-06 0)
(0.0936129 -4.73032e-06 0)
(0.0936128 -6.03687e-06 0)
(0.0936128 -7.33388e-06 0)
(0.0936127 -8.59897e-06 0)
(0.0936127 -9.85141e-06 0)
(0.0936127 -1.10573e-05 0)
(0.0936128 -1.22558e-05 0)
(0.0936129 -1.33966e-05 0)
(0.0936133 -1.45482e-05 0)
(0.0936139 -1.56411e-05 0)
(0.0936149 -1.67819e-05 0)
(0.0936163 -1.78848e-05 0)
(0.0936182 -1.90848e-05 0)
(0.093613 -8.99657e-07 0)
(0.0936105 -1.78546e-06 0)
(0.0936105 -2.90172e-06 0)
(0.0936105 -4.02824e-06 0)
(0.0936104 -5.14476e-06 0)
(0.0936104 -6.2564e-06 0)
(0.0936104 -7.34284e-06 0)
(0.0936104 -8.42299e-06 0)
(0.0936105 -9.46441e-06 0)
(0.0936106 -1.05062e-05 0)
(0.0936109 -1.14983e-05 0)
(0.0936113 -1.25121e-05 0)
(0.0936119 -1.34748e-05 0)
(0.0936129 -1.45064e-05 0)
(0.0936144 -1.55065e-05 0)
(0.0936162 -1.66484e-05 0)
(0.0936105 -7.65208e-07 0)
(0.0936085 -1.50068e-06 0)
(0.0936085 -2.439e-06 0)
(0.0936085 -3.38635e-06 0)
(0.0936085 -4.32572e-06 0)
(0.0936085 -5.26247e-06 0)
(0.0936085 -6.1787e-06 0)
(0.0936086 -7.09288e-06 0)
(0.0936087 -7.97488e-06 0)
(0.0936088 -8.86325e-06 0)
(0.0936091 -9.70936e-06 0)
(0.0936096 -1.05861e-05 0)
(0.0936103 -1.14196e-05 0)
(0.0936113 -1.23388e-05 0)
(0.0936127 -1.32338e-05 0)
(0.0936145 -1.43089e-05 0)
(0.0936085 -6.431e-07 0)
(0.0936068 -1.25263e-06 0)
(0.0936069 -2.03495e-06 0)
(0.0936069 -2.82364e-06 0)
(0.0936069 -3.60433e-06 0)
(0.0936069 -4.38223e-06 0)
(0.0936069 -5.14184e-06 0)
(0.093607 -5.90107e-06 0)
(0.0936072 -6.63266e-06 0)
(0.0936074 -7.3741e-06 0)
(0.0936077 -8.07962e-06 0)
(0.0936082 -8.82173e-06 0)
(0.0936089 -9.52817e-06 0)
(0.0936099 -1.03328e-05 0)
(0.0936112 -1.11208e-05 0)
(0.0936129 -1.2119e-05 0)