/*--------------------------------*- C++ -*----------------------------------*\
| =========                 |                                                 |
| \\      /  F ield         | foam-extend: Open Source CFD                    |
|  \\    /   O peration     | Version:     4.1-20200408                       |
|   \\  /    A nd           | Web:         http://www.foam-extend.org         |
|    \\/     M anipulation  |                                                 |
\*---------------------------------------------------------------------------*/
FoamFile
{
    version     2.0;
    format      ascii;
    class       volScalarField;
    location    "0.0535000";
    object      ccz;
}
// * * * * * * * * * * * * * * * * * * * * * * * * * * * * * * * * * * * * * //

dimensions      [0 1 0 0 0 0 0];

internalField   nonuniform List<scalar> 
1952
(
-2.78229e-13
2.83489e-12
-2.98039e-12
-1.1203e-11
8.04155e-12
1.21708e-11
3.03813e-22
-4.89038e-22
1.27294e-11
2.5e-11
1.23097e-11
-1.26749e-11
1.29817e-11
3.73519e-11
1.23632e-11
1.56283e-12
-9.78341e-23
4e-12
-1.66701e-12
-1.12963e-11
6.81823e-12
1.21788e-11
4.38802e-23
6.96809e-22
2.54389e-11
2.4602e-11
1.20012e-21
-1.26668e-11
3.09546e-13
3.76442e-11
1.20957e-11
-1.03923e-13
-1.38888e-12
4.1667e-12
-1.78575e-12
-1.25e-11
6.81847e-12
1.21795e-11
-1.31674e-22
3.87174e-22
2.54398e-11
2.46036e-11
-1.65757e-21
-2.53339e-11
-1.20362e-11
2.5e-11
-2.69646e-13
-1.03923e-13
-2.77805e-13
2.83335e-12
-4.28575e-12
-1.24073e-11
-4.84861e-12
1.28205e-11
1.2222e-11
-1.27455e-11
4.38438e-13
1.23011e-11
-6.85937e-22
-1.26671e-11
3.10165e-13
1.2356e-11
-2.62105e-21
1.56273e-12
1.11112e-12
4e-12
-4.28578e-12
-1.24074e-11
8.03033e-12
2.5e-11
1.22218e-11
-1.2745e-11
4.3964e-13
1.23012e-11
8.57391e-22
-2.10208e-22
1.94478e-22
9.94853e-22
8.45546e-23
1.56277e-12
1.1111e-12
4.00003e-12
-4.28575e-12
-1.37037e-11
1.96983e-11
2.43588e-11
-3.5116e-22
3.09771e-22
1.27192e-11
1.23015e-11
-1.26817e-11
-1.23329e-11
1.26545e-11
2.49998e-11
1.23646e-11
1.56274e-12
-2.77751e-13
1.50003e-12
-4.16672e-12
-1.25e-11
1.96972e-11
3.71793e-11
1.22219e-11
2.32367e-22
1.27197e-11
2.49999e-11
-1.30443e-11
-2.46661e-11
2.53093e-11
5e-11
1.20957e-11
1.56278e-12
-1.38891e-12
2.83333e-12
-1.66672e-12
-1.12963e-11
1.96972e-11
3.71795e-11
1.22218e-11
-1.93614e-22
2.54389e-11
3.73016e-11
-1.30428e-11
-2.46653e-11
1.26548e-11
2.50003e-11
-2.69646e-13
-1.03907e-13
1.11114e-12
5.33351e-12
-4.76237e-13
-1.12963e-11
6.81849e-12
1.21795e-11
-5.70696e-22
-2.32352e-22
1.27192e-11
1.23011e-11
-2.53628e-11
-2.46661e-11
-8.7537e-22
-1.35697e-21
-1.26347e-11
1.56278e-12
2.22222e-12
5.33335e-12
-4.76237e-13
-1e-11
-4.84845e-12
1.28205e-11
1.22219e-11
-1.27451e-11
4.3978e-13
1.23017e-11
-2.53636e-11
-2.46661e-11
1.26545e-11
1.23558e-11
-1.2635e-11
3.22944e-12
8.33346e-13
4.1667e-12
-1.78575e-12
-1.12037e-11
-4.84828e-12
1.28208e-11
1.22222e-11
-2.54905e-11
8.77912e-13
2.46028e-11
-1.26815e-11
-1.23332e-11
1.26548e-11
1.23556e-11
6.76568e-22
3.22944e-12
-2.77863e-13
4.16647e-12
-1.78578e-12
-1.12037e-11
-4.84861e-12
5.06871e-23
-1.18575e-21
-2.54913e-11
-1.18414e-11
1.23015e-11
-6.8623e-22
1.05153e-22
1.26466e-21
4.52409e-22
-1.60728e-21
1.5628e-12
-4.12119e-23
5.33351e-12
-4.76236e-13
-1e-11
-4.84845e-12
1.0137e-22
-1.75646e-22
-2.54897e-11
-2.4561e-11
-3.13368e-22
-8.00655e-22
-1.26668e-11
3.09338e-13
1.23558e-11
2.53794e-22
-1.03884e-13
-2.77696e-13
4.1667e-12
-4.76237e-13
-1e-11
-4.84845e-12
1.28205e-11
1.2222e-11
-2.54905e-11
-1.18417e-11
1.23012e-11
5.71934e-22
-1.26671e-11
3.09341e-13
1.2356e-11
-1.94589e-21
1.56277e-12
8.33195e-13
4.16647e-12
-4.76566e-13
-1.12963e-11
-6.06054e-12
1.28207e-11
1.22222e-11
-2.54913e-11
8.77899e-13
3.73013e-11
1.23185e-11
6.31041e-22
-1.94602e-22
-5.42993e-22
1.69219e-22
3.22946e-12
1.11112e-12
5.33352e-12
-1.78538e-12
-1.25e-11
-6.06057e-12
-6.5897e-22
-4.39202e-22
-2.54905e-11
-1.18415e-11
2.50002e-11
1.23188e-11
1.57769e-21
-5.83844e-22
1.26439e-11
1.23651e-11
1.56281e-12
-1.38883e-12
4.1667e-12
-1.78615e-12
-1.12038e-11
-4.84828e-12
1.28205e-11
-5.55801e-13
-3.77451e-11
-1.18417e-11
1.23012e-11
-1.26813e-11
-1.23329e-11
1.26546e-11
3.7644e-11
2.47304e-11
-1.03869e-13
-2.77888e-13
4.16667e-12
-4.75907e-13
-1e-11
-4.84861e-12
1.28208e-11
-5.56637e-13
-3.77454e-11
-1.18415e-11
1.23015e-11
-2.53628e-11
-2.46661e-11
2.53102e-11
3.73561e-11
1.23653e-11
1.56278e-12
-2.77754e-13
4.1667e-12
-4.76567e-13
-1e-11
-4.84828e-12
1.28205e-11
1.22219e-11
-2.54905e-11
-1.18417e-11
1.23012e-11
-1.26819e-11
-1.23332e-11
2.53085e-11
2.47118e-11
-8.46305e-22
1.56282e-12
-2.77778e-12
3.00003e-12
-4.75906e-13
-1e-11
-4.84845e-12
1.28207e-11
1.22226e-11
-1.27454e-11
4.39793e-13
2.5e-11
1.23185e-11
-9.4686e-22
1.26548e-11
1.2356e-11
5.07822e-22
-1.03857e-13
-2.77805e-13
4.16668e-12
-4.76565e-13
-1e-11
8.02975e-12
2.49996e-11
1.2222e-11
3.87561e-22
1.27194e-11
3.76985e-11
2.46372e-11
-1.26668e-11
-1.23452e-11
1.26444e-11
1.23651e-11
1.5628e-12
-2.77674e-13
4.1667e-12
-4.76237e-13
-1e-11
8.03114e-12
2.50002e-11
1.22218e-11
-1.27451e-11
1.31586e-11
5e-11
2.46372e-11
-1.26671e-11
-1.2345e-11
1.26438e-11
1.23653e-11
1.56287e-12
-1.38894e-12
2.83335e-12
-1.6664e-12
-1e-11
-4.84844e-12
-4.05709e-22
-9.22745e-22
-1.27454e-11
4.38961e-13
2.50003e-11
1.23191e-11
-7.36516e-22
1.26541e-11
2.49998e-11
1.23651e-11
-1.03849e-13
6.78677e-23
4e-12
-1.667e-12
-1e-11
-4.84845e-12
1.2821e-11
1.22219e-11
6.58974e-22
1.27194e-11
1.23012e-11
-1.26817e-11
-2.49997e-11
1.29654e-11
3.73561e-11
1.23653e-11
-1.03841e-13
-1.24603e-22
5.33351e-12
-1.78538e-12
-1.12036e-11
8.03033e-12
2.5e-11
1.22223e-11
-1.27451e-11
1.31585e-11
2.46028e-11
-1.26815e-11
-3.76671e-11
6.1868e-13
2.47118e-11
5.92651e-22
-1.03837e-13
1.22317e-22
5.33319e-12
-3.09571e-12
-1.24075e-11
8.0306e-12
1.21795e-11
2.63748e-22
-1.27458e-11
1.31595e-11
2.46036e-11
-1.26812e-11
-2.5e-11
3.09343e-13
1.2356e-11
-1.35445e-21
-1.03833e-13
-1.38888e-12
4.1667e-12
-1.78578e-12
-1.25e-11
6.81823e-12
2.49997e-11
1.2222e-11
-1.27451e-11
1.31586e-11
2.4602e-11
-1.26815e-11
-1.23336e-11
-5.84268e-22
4.52802e-22
-1.69317e-22
-1.03829e-13
-1.66668e-12
3.00027e-12
-4.76236e-13
-1.12963e-11
6.8191e-12
3.78208e-11
2.44442e-11
-1.27454e-11
4.38961e-13
1.23015e-11
-1.26812e-11
-1.23325e-11
3.89455e-22
1.26435e-11
1.23646e-11
1.56282e-12
8.33315e-13
4.16668e-12
-4.76236e-13
-1e-11
-4.84861e-12
1.28207e-11
1.22218e-11
-1.27451e-11
-1.22804e-11
1.26985e-11
-3.63832e-13
-1.23332e-11
-9.737e-22
1.26442e-11
1.23653e-11
3.22951e-12
1.11112e-12
5.33335e-12
-4.76235e-13
-1e-11
-4.84828e-12
1.28205e-11
1.2222e-11
-1.27454e-11
4.38636e-13
3.76989e-11
2.46381e-11
-1.05277e-22
-6.81709e-22
0
0
1.56287e-12
1.2463e-22
5.33319e-12
-4.76236e-13
-1e-11
-4.84845e-12
1.28212e-11
1.22223e-11
8.14392e-22
1.27196e-11
2.50003e-11
1.23183e-11
-1.26668e-11
3.08502e-13
1.23553e-11
3.38726e-22
-1.03814e-13
-2.77777e-13
4.1667e-12
-1.78612e-12
-1.12037e-11
-4.84844e-12
-1.11642e-21
0
-1.27455e-11
-1.228e-11
8.15603e-22
-6.29872e-22
-2.53347e-11
-1.20358e-11
1.23561e-11
-7.62195e-22
1.56284e-12
8.33311e-13
2.83335e-12
-2.97624e-12
-1.25e-11
-6.06054e-12
1.28209e-11
1.22219e-11
-1.27454e-11
4.38615e-13
2.49997e-11
1.23185e-11
-1.26671e-11
-1.23455e-11
1.2644e-11
1.2365e-11
3.22953e-12
1.11113e-12
2.66668e-12
-2.85718e-12
-1.25926e-11
-7.27267e-12
2.56412e-11
2.44434e-11
-1.27451e-11
1.31586e-11
3.73016e-11
1.23184e-11
-1.26341e-21
-1.07135e-21
1.26443e-11
1.23654e-11
1.56289e-12
1.94692e-22
2.66668e-12
-2.85718e-12
-1.12963e-11
6.81868e-12
3.78204e-11
2.44442e-11
-1.27455e-11
1.31583e-11
2.46019e-11
-1.26808e-11
-1.23325e-11
1.85083e-21
-5.43632e-22
7.62304e-22
-1.03798e-13
6.87913e-23
4.00011e-12
-2.97591e-12
-1.24999e-11
1.96962e-11
5e-11
2.4445e-11
-1.27455e-11
4.39275e-13
1.23016e-11
-1.2682e-11
-1.23332e-11
1.26545e-11
1.23553e-11
1.69399e-22
-1.03791e-13
-1.38886e-12
4.16672e-12
-3.09571e-12
-1.37038e-11
6.81919e-12
2.50006e-11
1.22218e-11
-2.54905e-11
-1.18418e-11
1.23008e-11
-1.71811e-22
9.47781e-22
1.26553e-11
1.23561e-11
-1.69414e-22
-1.0379e-13
-2.77872e-13
4.16666e-12
-3.09518e-12
-1.24073e-11
8.02987e-12
1.21789e-11
5.71871e-22
-2.54904e-11
8.79299e-13
2.46033e-11
2.29127e-22
1.47445e-21
9.7427e-23
-6.34257e-22
1.18588e-21
1.56281e-12
8.33379e-13
4.16672e-12
-3.09531e-12
-1.37036e-11
1.96973e-11
3.7179e-11
1.22218e-11
-2.54906e-11
-1.18409e-11
1.23015e-11
-1.26813e-11
-1.23326e-11
9.74341e-23
-1.08742e-21
-1.69426e-22
3.22955e-12
-2.77786e-13
2.83335e-12
-2.97622e-12
-1.25001e-11
6.81876e-12
3.7821e-11
2.44442e-11
-1.27457e-11
4.3851e-13
1.2301e-11
-1.26818e-11
-2.5e-11
-1.23448e-11
-5.43739e-22
-9.31869e-22
1.56297e-12
1.11106e-12
2.66668e-12
-4.1666e-12
-1.12036e-11
-4.84845e-12
2.56412e-11
2.44442e-11
-1.27449e-11
4.39827e-13
1.23016e-11
0
-2.53344e-11
-2.46901e-11
1.26442e-11
1.23645e-11
1.5628e-12
1.11118e-12
3.99992e-12
-4.28579e-12
-1.37036e-11
6.81759e-12
2.5e-11
1.22227e-11
-2.54905e-11
-1.18418e-11
1.23009e-11
6.87661e-22
-2.53344e-11
-2.469e-11
1.26448e-11
1.23649e-11
1.563e-12
1.11103e-12
4.0001e-12
-2.97621e-12
-1.25002e-11
6.81892e-12
2.5e-11
-5.55609e-13
-2.5e-11
4.38885e-13
1.23018e-11
1.94867e-21
-1.26675e-11
-1.23453e-11
-5.4388e-22
1.01677e-21
1.56277e-12
2.22223e-12
3.99988e-12
-1.66669e-12
-1e-11
-4.8485e-12
1.28214e-11
-5.55613e-13
-1.22556e-11
7.64167e-22
1.25644e-22
-3.43941e-22
7.37749e-22
-3.8994e-22
0
-5.08432e-22
3.22957e-12
8.33485e-13
4.16676e-12
-1.7855e-12
-1.12036e-11
8.02905e-12
2.49979e-11
1.22213e-11
-1.27441e-11
4.38613e-13
1.23008e-11
2.29353e-22
9.48754e-22
5.85035e-22
1.08809e-21
-1.69494e-22
3.22957e-12
8.33195e-13
2.83331e-12
-4.28551e-12
-1.24074e-11
2.09087e-11
3.7181e-11
1.22236e-11
-1.27461e-11
1.31566e-11
3.73006e-11
-3.626e-13
-1.23322e-11
9.75338e-23
3.62787e-22
3.39033e-22
3.22957e-12
2.22224e-12
3.99981e-12
-4.28571e-12
-1.24074e-11
8.03148e-12
1.21811e-11
-1.27761e-11
-2.49974e-11
1.31587e-11
3.7303e-11
-3.62364e-13
-1.23342e-11
9.75666e-23
-3.62918e-22
-6.78266e-22
3.22958e-12
2.22225e-12
5.33329e-12
-1.7857e-12
-1.25e-11
-6.06059e-12
5.08622e-22
-1.27791e-11
-2.5003e-11
1.31554e-11
2.46037e-11
8.60933e-22
-5.27659e-22
4.88065e-22
1.81558e-22
1.69678e-22
3.22958e-12
2.22225e-12
5.33326e-12
-4.76026e-13
-1.12964e-11
-6.06094e-12
-1.52616e-22
-3.52647e-22
-1.27429e-11
1.31583e-11
2.46039e-11
1.43548e-21
2.11167e-22
1.2653e-11
1.23542e-11
-3.39643e-22
3.22959e-12
-2.7743e-13
4.16673e-12
-4.75992e-13
-1e-11
-4.84864e-12
1.28183e-11
1.2221e-11
-1.27464e-11
1.31544e-11
2.46042e-11
-3.4468e-22
7.39474e-22
1.26558e-11
1.23574e-11
2.54957e-22
1.56314e-12
-1.38905e-12
4.16643e-12
-1.78529e-12
-1.12036e-11
8.02794e-12
2.50001e-11
1.22245e-11
-5.0577e-22
1.27204e-11
1.23041e-11
-1.26786e-11
-2.49967e-11
-1.23446e-11
1.26422e-11
1.23643e-11
-1.03733e-13
-1.38872e-12
2.83353e-12
-2.97596e-12
-1.12039e-11
2.0908e-11
2.43602e-11
-8.82116e-23
-1.27427e-11
-1.22799e-11
3.77922e-22
-1.26819e-11
-3.76672e-11
-2.4693e-11
1.26444e-11
1.23669e-11
-1.03728e-13
-1.66672e-12
3.33238e-13
-4.16634e-12
-1.12036e-11
8.03088e-12
2.49999e-11
1.22217e-11
-2.54884e-11
-2.45634e-11
4.41042e-22
7.47852e-22
-1.26668e-11
-1.23485e-11
-1.09364e-21
5.11352e-22
1.56279e-12
8.33309e-13
2.83309e-12
-2.97608e-12
-1.12038e-11
8.02873e-12
2.5e-11
1.2224e-11
-1.27452e-11
-1.22829e-11
-6.93202e-22
1.72634e-22
-1.27033e-21
9.80155e-22
1.2641e-11
1.23686e-11
3.2296e-12
8.33398e-13
4.16656e-12
-1.78533e-12
-1.12037e-11
8.02991e-12
1.21805e-11
2.20498e-22
-3.11319e-22
6.96495e-22
-8.19255e-22
-6.90632e-22
-1.2707e-21
9.80721e-23
1.26395e-11
1.23688e-11
3.22961e-12
8.33426e-13
4.16656e-12
-1.78535e-12
-1.12037e-11
-4.84874e-12
-3.05176e-22
0
-4.27969e-22
-4.87475e-22
-3.78097e-22
-1.26798e-11
-1.23371e-11
-5.88735e-22
1.37027e-21
2.5658e-22
3.22961e-12
1.11103e-12
3.99978e-12
-2.97603e-12
-1.12039e-11
-4.8488e-12
4.06757e-22
6.17035e-22
-1.27456e-11
-1.22845e-11
3.78097e-22
-1.26758e-11
-1.23339e-11
-1.9634e-22
1.26411e-11
1.23761e-11
1.56281e-12
-2.77776e-13
2.83318e-12
-2.97516e-12
-1.12035e-11
-4.84891e-12
4.06652e-22
-5.72859e-22
-1.27396e-11
4.4222e-13
1.23082e-11
-1.26826e-11
-1.23415e-11
1.26542e-11
3.7642e-11
2.47471e-11
1.56325e-12
-5.55411e-13
1.66592e-12
-1.66647e-12
-1.12966e-11
-6.06173e-12
1.2824e-11
1.22291e-11
3.11156e-22
2.54337e-11
2.46089e-11
-1.26716e-11
-1.23313e-11
2.52989e-11
3.73566e-11
1.23684e-11
3.22961e-12
-5.55377e-13
1.66693e-12
-2.97544e-12
-1.25e-11
-6.06076e-12
1.28118e-11
1.22176e-11
-1.27499e-11
4.1874e-13
2.50003e-11
-3.55654e-13
-1.23444e-11
1.26426e-11
1.23555e-11
-2.57319e-22
3.2296e-12
-2.77509e-13
4.16699e-12
-3.09408e-12
-1.24077e-11
-4.84918e-12
-2.54141e-22
-8.81366e-23
-1.2734e-11
4.50279e-13
2.49997e-11
-1.30418e-11
-2.46739e-11
1.26581e-11
1.23675e-11
-2.57314e-21
1.56191e-12
1.112e-12
5.333e-12
-3.09408e-12
-1.24077e-11
-4.84918e-12
2.54184e-22
4.40761e-23
-1.27522e-11
1.31406e-11
2.46091e-11
-2.53563e-11
-2.46731e-11
1.26428e-11
1.23527e-11
-8.57554e-22
1.56422e-12
2.22231e-12
5.33301e-12
-1.78364e-12
-8.6084e-12
-2.42258e-12
1.2829e-11
1.22343e-11
-1.27325e-11
1.31598e-11
2.46084e-11
-2.53569e-11
-2.46719e-11
1.26603e-11
2.50143e-11
1.23738e-11
3.2296e-12
2.22231e-12
5.33304e-12
-1.78592e-12
-6.0202e-12
-9.01453e-23
1.2808e-11
1.22142e-11
2.725e-22
2.5434e-11
2.46079e-11
-1.26695e-11
-1.23266e-11
1.26445e-11
2.49856e-11
1.23599e-11
3.22961e-12
8.32293e-13
4.16534e-12
-1.78377e-12
-6.01812e-12
1.28881e-11
1.21911e-11
-1.27863e-11
-2.502e-11
4.15114e-13
1.22942e-11
0
4.2432e-22
7.85934e-22
1.37261e-21
-8.56332e-23
3.22962e-12
8.34513e-13
2.83296e-12
-2.97738e-12
-6.01999e-12
1.28676e-11
2.50005e-11
-5.33425e-13
-2.49812e-11
-1.22733e-11
1.32525e-21
8.06834e-22
2.12159e-22
1.26626e-11
1.23617e-11
3.42309e-22
3.22963e-12
2.22229e-12
4.00073e-12
-2.97384e-12
-6.01821e-12
1.28864e-11
3.78276e-11
2.44473e-11
-3.89703e-23
1.18573e-21
-5.04964e-22
-1.26888e-11
-1.23407e-11
2.53114e-11
3.73604e-11
1.23678e-11
3.22963e-12
2.2223e-12
3.99903e-12
-2.97705e-12
-1.89894e-11
7.40624e-13
2.49853e-11
1.22163e-11
-7.79764e-23
-2.79103e-22
6.31383e-22
-2.53622e-11
-3.73395e-11
2.99642e-13
3.76411e-11
2.47215e-11
3.22964e-12
2.2223e-12
4.00051e-12
-4.28444e-12
-2.01783e-11
-1.21162e-11
1.52997e-22
-3.09424e-22
6.63146e-22
1.27246e-11
1.23079e-11
-1.26754e-11
-2.49879e-11
-1.23368e-11
1.2642e-11
1.23544e-11
3.22964e-12
1.11066e-12
5.33311e-12
-3.09455e-12
-7.22269e-12
-3.01496e-23
-1.02057e-22
-1.01724e-21
-1.27489e-11
1.31514e-11
2.46036e-11
-1.26865e-11
-1.23362e-11
1.26629e-11
1.23569e-11
2.04858e-21
1.56226e-12
-1.38236e-22
5.33315e-12
-1.78472e-12
-6.01849e-12
4.82709e-22
0
8.85078e-23
-2.5489e-11
8.75839e-13
2.46029e-11
-2.53639e-11
-3.73352e-11
1.29685e-11
3.73565e-11
1.23649e-11
-1.03666e-13
-1.3893e-12
4.16615e-12
-1.7857e-12
-6.01912e-12
-7.84762e-22
1.28233e-11
1.22256e-11
-1.27421e-11
1.3161e-11
2.46023e-11
-1.26797e-11
-2.49955e-11
1.29722e-11
3.73491e-11
1.23562e-11
-1.03665e-13
-2.77104e-13
4.16691e-12
-1.78519e-12
-6.01833e-12
1.28817e-11
3.78231e-11
2.44444e-11
5.07385e-22
1.27175e-11
2.5e-11
1.23198e-11
-1.26695e-11
3.08759e-13
1.23519e-11
-6.82634e-22
1.56343e-12
-2.78306e-13
4.16638e-12
-4.76145e-13
-4.81483e-12
1.28762e-11
3.78183e-11
2.44442e-11
8.19149e-22
1.27216e-11
2.5e-11
1.23165e-11
-1.26664e-11
-1.23431e-11
1.26465e-11
1.23652e-11
1.56264e-12
-1.38863e-12
4.16686e-12
-1.78592e-12
-6.01874e-12
1.2881e-11
2.49999e-11
1.22202e-11
4.67886e-22
1.27182e-11
1.22996e-11
-1.26833e-11
-2.50025e-11
-1.23456e-11
1.26438e-11
1.23629e-11
-1.03664e-13
1.21583e-23
3.99979e-12
-2.97621e-12
-1.89831e-11
1.3635e-11
2.43586e-11
8.83621e-23
-7.01558e-22
1.32484e-21
5.04568e-22
-1.26809e-11
-2.4998e-11
-1.23436e-11
1.26459e-11
1.23652e-11
-1.03663e-13
-2.77813e-13
2.83336e-12
-2.97626e-12
-1.89801e-11
7.57858e-13
2.50001e-11
1.22231e-11
-1.27467e-11
-1.22812e-11
1.27e-11
-3.639e-13
-1.23333e-11
9.79939e-22
2.52895e-11
2.4729e-11
1.56322e-12
-1.66681e-12
1.66653e-12
-2.97633e-12
-6.01835e-12
1.50556e-22
1.28196e-11
1.22208e-11
-1.27444e-11
-1.22789e-11
2.5398e-11
1.19557e-11
-1.23317e-11
1.26559e-11
2.5e-11
1.23641e-11
1.56283e-12
-2.77559e-13
2.83355e-12
-1.66657e-12
-4.81464e-12
1.28802e-11
2.50018e-11
1.22231e-11
4.28333e-22
1.3934e-22
1.26982e-11
1.23173e-11
9.52637e-22
2.53103e-11
2.47111e-11
-1.70588e-22
1.56315e-12
-2.77952e-13
4.1668e-12
-4.76186e-13
-4.81481e-12
1.28784e-11
2.49985e-11
1.22207e-11
-2.33604e-22
1.27203e-11
1.23014e-11
-4.02659e-22
-5.29137e-22
1.26545e-11
1.23553e-11
2.55928e-22
1.56289e-12
-2.77777e-12
3e-12
-1.78616e-12
-6.01859e-12
3.00906e-23
2.54596e-22
-2.20639e-22
-1.55722e-22
1.27192e-11
1.23006e-11
-2.24352e-21
6.34988e-22
0
-6.38365e-22
-5.11854e-22
-1.03663e-13
-2.7766e-13
4.16672e-12
-1.78564e-12
-6.01826e-12
-4.81368e-22
1.28214e-11
1.22223e-11
-1.27455e-11
4.40284e-13
2.50009e-11
1.23189e-11
-2.11633e-22
9.79707e-22
9.11984e-23
-2.30316e-21
1.56308e-12
8.33288e-13
4.16662e-12
-4.76521e-13
-4.81482e-12
-2.10574e-22
2.56418e-11
2.44445e-11
-2.54919e-11
-1.18426e-11
2.49992e-11
1.2318e-11
-1.26978e-21
-6.85784e-22
4.56023e-22
-2.5592e-21
3.22973e-12
-1.66669e-12
3.00025e-12
-4.76172e-13
-4.81482e-12
-1.20317e-22
2.5641e-11
2.44428e-11
-1.27447e-11
4.4e-13
1.23016e-11
-1.26819e-11
-1.23334e-11
1.26551e-11
1.23564e-11
1.70645e-21
1.56292e-12
-2.77786e-12
2.99973e-12
-4.76171e-13
-1.77783e-11
-1.21211e-11
1.28206e-11
1.2222e-11
-3.5025e-22
1.27198e-11
1.23013e-11
-1.26812e-11
-1.23322e-11
1.26538e-11
1.23556e-11
1.19439e-21
-1.03663e-13
-1.66664e-12
2.99999e-12
-4.76519e-13
-3.07407e-11
-2.42425e-11
1.28207e-11
1.22221e-11
-1.27462e-11
-1.2281e-11
6.29907e-23
-6.90085e-22
-3.1744e-22
-9.79728e-23
-3.64829e-22
1.70646e-22
1.56307e-12
-2.77769e-13
4.1669e-12
-1.78572e-12
-1.89815e-11
7.5801e-13
2.5e-11
1.22221e-11
-2.54901e-11
-2.45606e-11
-1.88986e-22
1.66781e-21
-1.26669e-11
-1.23456e-11
1.64181e-21
2.2182e-21
1.56294e-12
-2.77778e-13
2.83329e-12
-2.97617e-12
-6.01851e-12
1.2879e-11
2.5e-11
1.22221e-11
-1.27453e-11
-1.22805e-11
2.51977e-22
0
-1.26668e-11
-1.2345e-11
1.2644e-11
1.2366e-11
1.56306e-12
-1.66667e-12
1.66689e-12
-1.66663e-12
-4.81483e-12
-3.30781e-22
2.56418e-11
2.44445e-11
-1.55643e-22
1.27195e-11
2.50005e-11
1.23191e-11
-1.26989e-21
9.79819e-23
1.26437e-11
1.23654e-11
1.56298e-12
-1.38887e-12
4.16668e-12
-1.78571e-12
-6.01833e-12
3.00653e-23
2.5641e-11
2.44445e-11
-1.27453e-11
1.31589e-11
3.7301e-11
1.23187e-11
-1.26669e-11
-1.23456e-11
1.26439e-11
1.23655e-11
-1.03663e-13
9.59869e-23
5.33333e-12
-3.09565e-12
-7.22223e-12
1.20279e-22
1.28208e-11
1.22217e-11
-1.27449e-11
1.31593e-11
2.46033e-11
4.02599e-22
-1.26668e-11
-1.23455e-11
1.26434e-11
-2.69288e-13
-1.03663e-13
-2.77776e-13
2.83331e-12
-2.97617e-12
-6.01852e-12
5.11147e-22
5.08814e-23
-2.20491e-22
3.1127e-22
2.54385e-11
2.46033e-11
6.32656e-22
1.26987e-21
-1.17584e-21
1.26443e-11
-1.29029e-11
1.56302e-12
-2.77856e-13
2.83336e-12
-1.66664e-12
-4.81482e-12
1.28789e-11
1.21796e-11
-2.205e-22
2.33458e-22
2.54386e-11
2.46024e-11
-1.26813e-11
-1.23331e-11
1.26545e-11
3.76439e-11
1.20971e-11
1.56299e-12
-1.3889e-12
4.16665e-12
-1.78571e-12
-1.89818e-11
7.57354e-13
1.21789e-11
4.40923e-23
-1.55644e-22
1.27196e-11
1.23014e-11
-1.26814e-11
-1.23336e-11
2.53095e-11
5e-11
2.47304e-11
-1.03666e-13
-2.77777e-12
3e-12
-1.78569e-12
-1.89813e-11
-1.21206e-11
-5.08872e-23
-1.27783e-11
-2.50003e-11
4.38565e-13
1.23017e-11
1.84055e-21
-7.40782e-22
1.26541e-11
2.49996e-11
1.23658e-11
-1.03663e-13
-2.77777e-12
3e-12
-1.78571e-12
-6.01853e-12
2.10489e-22
0
-1.27772e-11
-3.77454e-11
8.77132e-13
2.46032e-11
-6.90298e-22
5.29252e-22
-4.90058e-22
-3.65024e-22
-1.70728e-22
-1.03659e-13
-2.77669e-13
2.8335e-12
-2.97618e-12
-6.01852e-12
1.28789e-11
1.21796e-11
-5.29235e-22
-1.27449e-11
1.3158e-11
2.46023e-11
7.47767e-22
0
5.87955e-22
-9.12287e-23
5.12091e-22
1.56302e-12
2.22223e-12
4.00001e-12
-1.66665e-12
-4.81482e-12
2.57576e-11
3.71796e-11
1.22219e-11
-1.08956e-21
2.54394e-11
2.46041e-11
-1.26817e-11
-1.23335e-11
5.88036e-22
-2.73748e-22
-2.56077e-22
3.22967e-12
8.33202e-13
4.16665e-12
-1.78571e-12
-1.89816e-11
1.36376e-11
3.71794e-11
1.22221e-11
3.89147e-22
1.27192e-11
1.2301e-11
-1.2681e-11
-2.5e-11
-1.23454e-11
9.12428e-22
-1.26345e-11
3.22967e-12
-2.77687e-13
4.16667e-12
-1.78608e-12
-1.89813e-11
7.56683e-13
1.21794e-11
-1.32341e-22
-1.05085e-21
6.96425e-23
1.26985e-11
1.2319e-11
-1.26669e-11
3.0804e-13
2.50002e-11
-2.68375e-13
1.56299e-12
-1.3889e-12
4.16666e-12
-4.76181e-13
-1.77778e-11
-1.21209e-11
1.28206e-11
1.22224e-11
7.7829e-23
1.27194e-11
2.5e-11
1.23187e-11
-8.46856e-22
1.26542e-11
3.76435e-11
2.47312e-11
-1.03663e-13
-2.7784e-13
4.16668e-12
-4.75833e-13
-1.77779e-11
-1.21216e-11
1.28208e-11
1.22221e-11
-1.27452e-11
1.31578e-11
2.46032e-11
-1.26812e-11
-1.23335e-11
5.88117e-22
2.52873e-11
2.47312e-11
1.56302e-12
-2.77709e-13
4.16666e-12
-4.7653e-13
-4.81499e-12
1.28793e-11
2.50003e-11
1.22219e-11
-1.27449e-11
4.38583e-13
1.23015e-11
-1.2681e-11
-2.5e-11
-1.23458e-11
1.26436e-11
-2.69948e-13
1.56299e-12
-1.38892e-12
4.16667e-12
-4.76183e-13
-4.81482e-12
2.57576e-11
3.7179e-11
1.22226e-11
-1.27452e-11
-1.22804e-11
1.00815e-21
-1.26813e-11
-3.76668e-11
-1.20369e-11
1.23564e-11
-1.26338e-11
-1.03666e-13
1.11112e-12
5.33333e-12
-4.75834e-13
-4.81464e-12
2.57576e-11
2.43599e-11
8.8232e-23
-1.2745e-11
-1.22806e-11
-5.04153e-22
-2.53623e-11
-3.73332e-11
3.08622e-13
1.23562e-11
-8.53821e-22
1.56305e-12
8.33329e-13
4.16666e-12
-4.76531e-13
-4.81499e-12
1.28787e-11
2.5e-11
1.22228e-11
-1.27456e-11
4.37714e-13
1.23017e-11
-2.53632e-11
-2.46667e-11
1.66647e-21
-3.65082e-22
0
3.22967e-12
-2.77773e-13
4.16667e-12
-1.78532e-12
-1.89818e-11
-1.21213e-11
2.5641e-11
2.44445e-11
-2.54902e-11
8.7718e-13
2.46023e-11
-1.26806e-11
-1.23332e-11
9.80323e-23
-1.09518e-21
-1.70785e-22
1.56299e-12
-1.3889e-12
4.16666e-12
-3.09566e-12
-3.31481e-11
-1.13648e-11
3.78206e-11
2.44436e-11
-2.54893e-11
-1.18408e-11
2.5e-11
1.23189e-11
5.29411e-22
1.26544e-11
1.23564e-11
-1.70793e-22
-1.03663e-13
-2.77777e-12
3e-12
-3.09523e-12
-3.31481e-11
-1.13637e-11
3.78204e-11
2.44445e-11
-2.54911e-11
-1.18433e-11
2.5e-11
1.23188e-11
-1.05887e-22
1.26538e-11
1.23562e-11
2.56199e-22
-1.03663e-13
-1.38888e-12
4.16667e-12
-1.7857e-12
-3.19444e-11
-2.42415e-11
2.5641e-11
2.44445e-11
-1.27445e-11
1.31593e-11
2.46032e-11
-1.151e-22
-1.05894e-21
6.86354e-22
1.26438e-11
1.23657e-11
-1.03663e-13
1.11112e-12
5.33316e-12
-4.76184e-13
-1.77777e-11
7.57751e-13
2.5e-11
1.22222e-11
-1.27456e-11
1.31565e-11
2.46032e-11
9.20844e-22
-1.26663e-11
3.09515e-13
2.5e-11
1.23655e-11
1.56301e-12
2.22223e-12
5.33351e-12
-1.78571e-12
-6.01853e-12
2.57576e-11
3.71796e-11
1.22223e-11
-2.54902e-11
-1.18422e-11
1.23015e-11
-2.30229e-22
-2.53342e-11
-1.20384e-11
2.5e-11
1.23657e-11
3.22967e-12
2.22222e-12
5.33333e-12
-3.09523e-12
-2.01853e-11
7.57436e-13
3.782e-11
2.44445e-11
-2.54902e-11
-2.45605e-11
3.78213e-22
-1.26813e-11
-2.5e-11
-1.23451e-11
1.26436e-11
1.23655e-11
3.22967e-12
2.22223e-12
5.33333e-12
-3.09523e-12
-2.01852e-11
-1.21212e-11
2.56419e-11
2.44453e-11
-1.27451e-11
-1.22806e-11
1.70226e-21
-1.26811e-11
-1.23328e-11
1.26539e-11
1.2356e-11
1.28114e-21
3.22967e-12
8.33461e-13
4.16666e-12
-1.7857e-12
-6.01851e-12
1.28789e-11
2.5e-11
1.22218e-11
-1.27452e-11
-1.22808e-11
1.1348e-21
1.15127e-22
5.29592e-22
1.26542e-11
1.23563e-11
1.87935e-21
3.22967e-12
-5.55718e-13
1.66666e-12
-2.9762e-12
-6.01852e-12
2.57576e-11
2.4359e-11
-3.97169e-22
-2.54902e-11
-2.45614e-11
1.89147e-22
-1.26812e-11
-1.23334e-11
1.26548e-11
1.23564e-11
1.70844e-22
3.22967e-12
-1.66666e-12
1.66667e-12
-4.28571e-12
-7.22222e-12
2.57576e-11
2.4359e-11
4.41382e-23
-1.27451e-11
-1.22806e-11
1.89142e-22
-1.26811e-11
-1.23337e-11
2.53086e-11
2.47127e-11
1.19599e-21
1.563e-12
-2.77777e-12
3e-12
-1.78571e-12
-1.89815e-11
7.57559e-13
2.5e-11
1.22222e-11
3.11622e-22
-6.97071e-23
-1.70279e-21
-1.26812e-11
-1.23329e-11
2.53086e-11
2.47126e-11
6.83475e-22
-1.03663e-13
-2.77773e-13
4.16667e-12
-1.78571e-12
-1.89815e-11
7.57593e-13
2.5e-11
-5.55657e-13
-1.22549e-11
2.09074e-22
3.1526e-22
-2.53623e-11
-2.46667e-11
1.26543e-11
2.5e-11
1.23661e-11
1.56301e-12
1.11111e-12
5.33333e-12
-3.09523e-12
-7.22222e-12
1.28788e-11
1.21795e-11
-1.27778e-11
-1.22549e-11
-6.97051e-23
1.26984e-11
-3.6222e-13
-2.5e-11
3.08648e-13
2.5e-11
1.23652e-11
1.563e-12
2.84628e-23
5.33333e-12
-3.09523e-12
-7.22222e-12
2.10699e-22
-1.52813e-22
8.82921e-22
0
-2.7882e-22
2.53968e-11
2.46377e-11
-2.53333e-11
6.17296e-13
2.47126e-11
-6.8359e-22
-1.03663e-13
1.37986e-23
5.33333e-12
-3.09523e-12
-7.22222e-12
-2.10743e-22
-7.64218e-22
0
-7.79204e-22
-6.97198e-23
2.53968e-11
2.46377e-11
-2.53333e-11
6.17296e-13
2.47126e-11
5.128e-22
-1.03663e-13
)
;

boundaryField
{
    wireUpstream
    {
        type            calculated;
        value           nonuniform List<scalar> 
16
(
0
5.33333e-12
-3.09523e-12
-7.22222e-12
0
0
0
-2.48339e-22
0
2.53968e-11
2.46377e-11
-2.53333e-11
6.17296e-13
2.47126e-11
5.63006e-22
-1.03663e-13
)
;
    }
    wireDownstream
    {
        type            calculated;
        value           nonuniform List<scalar> 
16
(
-5.5556e-13
3.00003e-12
-3.09529e-12
-1.24074e-11
2.09093e-11
2.43588e-11
3.84784e-22
0
0
2.53972e-11
2.46372e-11
-2.53339e-11
6.18665e-13
2.47118e-11
-7.41312e-22
3.2294e-12
)
;
    }
    wireTopContact
    {
        type            calculated;
        value           nonuniform List<scalar> 
122
(
-2.49999e-11
-2.50001e-11
0
-6.56333e-22
0
-2.49999e-11
-2.50001e-11
-2.49999e-11
-2.50001e-11
0
0
6.56506e-22
0
-6.56549e-22
0
-6.56593e-22
-1.31297e-21
0
6.56657e-22
0
6.56699e-22
0
0
0
0
0
-6.56695e-22
6.56717e-22
0
6.5676e-22
0
6.56807e-22
-6.56701e-22
-1.97018e-21
6.56756e-22
-6.56787e-22
-6.5673e-22
0
6.56734e-22
0
-6.56763e-22
0
0
-6.56853e-22
0
0
0
6.57876e-22
0
0
0
0
0
0
0
-6.65953e-22
0
0
0
6.69262e-22
-6.69435e-22
0
0
0
0
6.69203e-22
6.69303e-22
0
6.70089e-22
0
0
0
0
0
-6.74003e-22
0
0
0
0
0
-6.74861e-22
0
0
-6.75223e-22
1.35091e-21
0
6.75645e-22
-6.75747e-22
-6.7571e-22
-2.50002e-11
-5e-11
-2.49998e-11
0
0
0
0
0
-2.50001e-11
-2.49999e-11
1.35311e-21
0
-2.50001e-11
-2.49999e-11
-6.76622e-22
0
0
0
0
0
-6.76954e-22
0
6.7707e-22
-6.77059e-22
-6.77191e-22
2.03154e-21
0
6.77307e-22
-2.03233e-21
0
0
0
7.34734e-22
)
;
    }
    front
    {
        type            wedge;
    }
    back
    {
        type            wedge;
    }
}


// ************************************************************************* //
