/*--------------------------------*- C++ -*----------------------------------*\
| =========                 |                                                 |
| \\      /  F ield         | foam-extend: Open Source CFD                    |
|  \\    /   O peration     | Version:     4.1-20200408                       |
|   \\  /    A nd           | Web:         http://www.foam-extend.org         |
|    \\/     M anipulation  |                                                 |
\*---------------------------------------------------------------------------*/
FoamFile
{
    version     2.0;
    format      ascii;
    class       volVectorField;
    location    "0.0535000";
    object      DU_0;
}
// * * * * * * * * * * * * * * * * * * * * * * * * * * * * * * * * * * * * * //

dimensions      [0 1 0 0 0 0 0];

internalField   nonuniform List<vector> 
1952
(
(4.99998e-05 -2.70525e-10 0)
(4.99998e-05 -4.19649e-10 0)
(4.99998e-05 -6.16797e-10 0)
(4.99998e-05 -7.54756e-10 0)
(4.99999e-05 -9.58132e-10 0)
(4.99999e-05 -1.08876e-09 0)
(5e-05 -1.28763e-09 0)
(5e-05 -1.40552e-09 0)
(5.00003e-05 -1.5802e-09 0)
(5.00004e-05 -1.66912e-09 0)
(5.00007e-05 -1.7823e-09 0)
(5.00009e-05 -1.80291e-09 0)
(5.00015e-05 -1.8318e-09 0)
(5.0002e-05 -1.75955e-09 0)
(5.00027e-05 -1.73034e-09 0)
(4.99998e-05 -1.13314e-10 0)
(4.99998e-05 -2.06347e-10 0)
(4.99998e-05 -3.3284e-10 0)
(4.99999e-05 -4.63504e-10 0)
(4.99998e-05 -5.82087e-10 0)
(5e-05 -7.03643e-10 0)
(4.99999e-05 -8.0278e-10 0)
(5.00001e-05 -9.08486e-10 0)
(5.00001e-05 -9.76206e-10 0)
(5.00004e-05 -1.05291e-09 0)
(5.00005e-05 -1.07375e-09 0)
(5.00008e-05 -1.09655e-09 0)
(5.00011e-05 -1.05145e-09 0)
(5.00016e-05 -1.02626e-09 0)
(5.00021e-05 -9.35609e-10 0)
(5.00029e-05 -9.01553e-10 0)
(4.99998e-05 -8.81745e-11 0)
(4.99999e-05 -1.43423e-10 0)
(4.99999e-05 -2.31791e-10 0)
(5e-05 -3.14695e-10 0)
(5e-05 -3.93319e-10 0)
(5.00001e-05 -4.60735e-10 0)
(5.00001e-05 -5.1593e-10 0)
(5.00003e-05 -5.61366e-10 0)
(5.00003e-05 -5.80814e-10 0)
(5.00006e-05 -5.95065e-10 0)
(5.00007e-05 -5.67758e-10 0)
(5.00011e-05 -5.41065e-10 0)
(5.00013e-05 -4.64666e-10 0)
(5.00018e-05 -4.14532e-10 0)
(5.00022e-05 -3.24402e-10 0)
(5.00028e-05 -3.16101e-10 0)
(4.99999e-05 -6.15353e-11 0)
(5.00001e-05 -8.54526e-11 0)
(5.00001e-05 -1.37294e-10 0)
(5.00002e-05 -1.80771e-10 0)
(5.00002e-05 -2.21481e-10 0)
(5.00003e-05 -2.47099e-10 0)
(5.00003e-05 -2.63649e-10 0)
(5.00005e-05 -2.66297e-10 0)
(5.00006e-05 -2.48911e-10 0)
(5.00009e-05 -2.24307e-10 0)
(5.0001e-05 -1.68771e-10 0)
(5.00013e-05 -1.17305e-10 0)
(5.00016e-05 -3.25647e-11 0)
(5.0002e-05 2.18492e-11 0)
(5.00024e-05 9.79526e-11 0)
(5.00028e-05 1.06648e-10 0)
(5.00001e-05 -3.68479e-11 0)
(5.00003e-05 -3.48752e-11 0)
(5.00003e-05 -5.47583e-11 0)
(5.00004e-05 -6.58742e-11 0)
(5.00004e-05 -7.41418e-11 0)
(5.00006e-05 -6.79956e-11 0)
(5.00006e-05 -5.373e-11 0)
(5.00008e-05 -2.67586e-11 0)
(5.00008e-05 1.67647e-11 0)
(5.00011e-05 6.52141e-11 0)
(5.00012e-05 1.372e-10 0)
(5.00016e-05 2.00596e-10 0)
(5.00018e-05 2.86695e-10 0)
(5.00022e-05 3.40944e-10 0)
(5.00025e-05 4.06931e-10 0)
(5.00028e-05 4.13042e-10 0)
(5.00003e-05 -1.52128e-11 0)
(5.00006e-05 7.03525e-12 0)
(5.00006e-05 1.34204e-11 0)
(5.00007e-05 2.80506e-11 0)
(5.00007e-05 4.55542e-11 0)
(5.00008e-05 7.54058e-11 0)
(5.00008e-05 1.12636e-10 0)
(5.00011e-05 1.59464e-10 0)
(5.00011e-05 2.20236e-10 0)
(5.00014e-05 2.81932e-10 0)
(5.00015e-05 3.61889e-10 0)
(5.00019e-05 4.29196e-10 0)
(5.0002e-05 5.1235e-10 0)
(5.00024e-05 5.64036e-10 0)
(5.00026e-05 6.22655e-10 0)
(5.00029e-05 6.32436e-10 0)
(5.00006e-05 2.74824e-12 0)
(5.00009e-05 3.96692e-11 0)
(5.00009e-05 6.62954e-11 0)
(5.0001e-05 1.00375e-10 0)
(5.0001e-05 1.37057e-10 0)
(5.00011e-05 1.8372e-10 0)
(5.00011e-05 2.36996e-10 0)
(5.00014e-05 2.964e-10 0)
(5.00014e-05 3.6789e-10 0)
(5.00017e-05 4.36331e-10 0)
(5.00018e-05 5.19774e-10 0)
(5.00021e-05 5.87449e-10 0)
(5.00023e-05 6.67378e-10 0)
(5.00026e-05 7.16933e-10 0)
(5.00027e-05 7.71626e-10 0)
(5.0003e-05 7.85523e-10 0)
(5.00008e-05 1.67532e-11 0)
(5.00011e-05 6.3336e-11 0)
(5.00012e-05 1.04493e-10 0)
(5.00013e-05 1.52244e-10 0)
(5.00013e-05 2.02206e-10 0)
(5.00015e-05 2.59875e-10 0)
(5.00015e-05 3.23555e-10 0)
(5.00017e-05 3.9004e-10 0)
(5.00017e-05 4.67571e-10 0)
(5.0002e-05 5.3846e-10 0)
(5.00021e-05 6.22794e-10 0)
(5.00024e-05 6.89063e-10 0)
(5.00025e-05 7.66253e-10 0)
(5.00028e-05 8.14557e-10 0)
(5.00029e-05 8.6804e-10 0)
(5.00031e-05 8.8753e-10 0)
(5.00011e-05 2.69214e-11 0)
(5.00015e-05 7.86433e-11 0)
(5.00015e-05 1.29097e-10 0)
(5.00016e-05 1.85354e-10 0)
(5.00016e-05 2.43485e-10 0)
(5.00018e-05 3.07323e-10 0)
(5.00018e-05 3.76941e-10 0)
(5.0002e-05 4.4643e-10 0)
(5.0002e-05 5.26829e-10 0)
(5.00023e-05 5.97557e-10 0)
(5.00024e-05 6.81636e-10 0)
(5.00027e-05 7.45997e-10 0)
(5.00027e-05 8.21577e-10 0)
(5.0003e-05 8.69721e-10 0)
(5.0003e-05 9.24053e-10 0)
(5.00032e-05 9.49503e-10 0)
(5.00014e-05 3.35074e-11 0)
(5.00018e-05 8.64639e-11 0)
(5.00018e-05 1.4159e-10 0)
(5.00019e-05 2.01847e-10 0)
(5.00019e-05 2.63832e-10 0)
(5.00021e-05 3.29839e-10 0)
(5.00021e-05 4.01911e-10 0)
(5.00023e-05 4.71319e-10 0)
(5.00023e-05 5.52432e-10 0)
(5.00026e-05 6.21319e-10 0)
(5.00026e-05 7.04712e-10 0)
(5.00029e-05 7.6714e-10 0)
(5.0003e-05 8.42263e-10 0)
(5.00032e-05 8.91242e-10 0)
(5.00032e-05 9.48009e-10 0)
(5.00033e-05 9.79828e-10 0)
(5.00017e-05 3.68822e-11 0)
(5.00021e-05 8.76705e-11 0)
(5.00021e-05 1.43431e-10 0)
(5.00022e-05 2.03793e-10 0)
(5.00022e-05 2.66023e-10 0)
(5.00024e-05 3.30892e-10 0)
(5.00024e-05 4.02716e-10 0)
(5.00026e-05 4.69694e-10 0)
(5.00026e-05 5.50096e-10 0)
(5.00029e-05 6.16083e-10 0)
(5.00029e-05 6.98796e-10 0)
(5.00032e-05 7.59538e-10 0)
(5.00032e-05 8.35312e-10 0)
(5.00034e-05 8.85996e-10 0)
(5.00034e-05 9.46397e-10 0)
(5.00035e-05 9.84796e-10 0)
(5.0002e-05 3.74188e-11 0)
(5.00023e-05 8.31276e-11 0)
(5.00024e-05 1.3604e-10 0)
(5.00025e-05 1.93173e-10 0)
(5.00025e-05 2.52632e-10 0)
(5.00027e-05 3.13607e-10 0)
(5.00027e-05 3.83066e-10 0)
(5.00029e-05 4.45755e-10 0)
(5.00029e-05 5.2448e-10 0)
(5.00032e-05 5.86827e-10 0)
(5.00032e-05 6.69057e-10 0)
(5.00034e-05 7.28412e-10 0)
(5.00034e-05 8.05817e-10 0)
(5.00036e-05 8.58945e-10 0)
(5.00036e-05 9.23948e-10 0)
(5.00037e-05 9.69169e-10 0)
(5.00023e-05 3.5487e-11 0)
(5.00026e-05 7.35618e-11 0)
(5.00026e-05 1.20606e-10 0)
(5.00027e-05 1.71623e-10 0)
(5.00027e-05 2.25774e-10 0)
(5.00029e-05 2.80512e-10 0)
(5.00029e-05 3.45925e-10 0)
(5.00032e-05 4.02795e-10 0)
(5.00032e-05 4.79187e-10 0)
(5.00034e-05 5.37343e-10 0)
(5.00034e-05 6.19384e-10 0)
(5.00037e-05 6.77659e-10 0)
(5.00037e-05 7.5757e-10 0)
(5.00038e-05 8.13804e-10 0)
(5.00038e-05 8.84239e-10 0)
(5.00039e-05 9.36572e-10 0)
(5.00026e-05 3.13985e-11 0)
(5.00028e-05 5.96331e-11 0)
(5.00029e-05 9.81948e-11 0)
(5.0003e-05 1.40596e-10 0)
(5.0003e-05 1.87283e-10 0)
(5.00032e-05 2.33752e-10 0)
(5.00032e-05 2.93751e-10 0)
(5.00034e-05 3.43471e-10 0)
(5.00034e-05 4.17059e-10 0)
(5.00037e-05 4.70532e-10 0)
(5.00037e-05 5.52704e-10 0)
(5.00039e-05 6.10155e-10 0)
(5.00039e-05 6.93354e-10 0)
(5.00041e-05 7.53302e-10 0)
(5.0004e-05 8.29941e-10 0)
(5.00041e-05 8.89789e-10 0)
(5.00028e-05 2.54362e-11 0)
(5.0003e-05 4.18481e-11 0)
(5.00031e-05 6.96235e-11 0)
(5.00032e-05 1.01193e-10 0)
(5.00032e-05 1.38548e-10 0)
(5.00034e-05 1.7493e-10 0)
(5.00034e-05 2.28369e-10 0)
(5.00037e-05 2.69731e-10 0)
(5.00036e-05 3.40154e-10 0)
(5.00039e-05 3.88486e-10 0)
(5.00039e-05 4.71099e-10 0)
(5.00042e-05 5.27959e-10 0)
(5.00041e-05 6.15163e-10 0)
(5.00043e-05 6.79449e-10 0)
(5.00043e-05 7.63061e-10 0)
(5.00043e-05 8.3099e-10 0)
(5.0003e-05 1.78179e-11 0)
(5.00032e-05 2.06882e-11 0)
(5.00032e-05 3.56601e-11 0)
(5.00034e-05 5.44345e-11 0)
(5.00034e-05 8.08425e-11 0)
(5.00036e-05 1.0547e-10 0)
(5.00036e-05 1.51387e-10 0)
(5.00039e-05 1.83218e-10 0)
(5.00039e-05 2.50208e-10 0)
(5.00042e-05 2.92889e-10 0)
(5.00042e-05 3.76259e-10 0)
(5.00044e-05 4.32692e-10 0)
(5.00044e-05 5.24598e-10 0)
(5.00046e-05 5.93858e-10 0)
(5.00045e-05 6.8527e-10 0)
(5.00046e-05 7.62029e-10 0)
(5.00032e-05 8.75002e-12 0)
(5.00033e-05 -3.45341e-12 0)
(5.00034e-05 -3.07076e-12 0)
(5.00035e-05 1.14898e-12 0)
(5.00035e-05 1.51861e-11 0)
(5.00038e-05 2.65186e-11 0)
(5.00038e-05 6.40648e-11 0)
(5.00041e-05 8.52438e-11 0)
(5.00041e-05 1.4855e-10 0)
(5.00044e-05 1.85072e-10 0)
(5.00044e-05 2.69467e-10 0)
(5.00047e-05 3.25641e-10 0)
(5.00047e-05 4.22909e-10 0)
(5.00048e-05 4.97866e-10 0)
(5.00048e-05 5.97969e-10 0)
(5.00048e-05 6.8454e-10 0)
(5.00033e-05 -1.59847e-12 0)
(5.00034e-05 -3.01236e-11 0)
(5.00034e-05 -4.58477e-11 0)
(5.00036e-05 -5.77285e-11 0)
(5.00036e-05 -5.7249e-11 0)
(5.00039e-05 -6.06671e-11 0)
(5.00039e-05 -3.21627e-11 0)
(5.00043e-05 -2.27999e-11 0)
(5.00043e-05 3.66755e-11 0)
(5.00046e-05 6.64179e-11 0)
(5.00046e-05 1.52152e-10 0)
(5.00049e-05 2.08156e-10 0)
(5.00049e-05 3.11486e-10 0)
(5.00051e-05 3.92913e-10 0)
(5.00051e-05 5.02719e-10 0)
(5.00051e-05 6.00328e-10 0)
(5.00034e-05 -1.30328e-11 0)
(5.00034e-05 -5.88345e-11 0)
(5.00035e-05 -9.19027e-11 0)
(5.00037e-05 -1.21177e-10 0)
(5.00037e-05 -1.35228e-10 0)
(5.0004e-05 -1.54691e-10 0)
(5.0004e-05 -1.35797e-10 0)
(5.00044e-05 -1.39339e-10 0)
(5.00044e-05 -8.3854e-11 0)
(5.00048e-05 -6.14858e-11 0)
(5.00048e-05 2.58228e-11 0)
(5.00052e-05 8.17793e-11 0)
(5.00052e-05 1.91829e-10 0)
(5.00054e-05 2.8062e-10 0)
(5.00054e-05 4.01227e-10 0)
(5.00054e-05 5.11375e-10 0)
(5.00034e-05 -2.53439e-11 0)
(5.00034e-05 -8.8921e-11 0)
(5.00035e-05 -1.40173e-10 0)
(5.00037e-05 -1.87821e-10 0)
(5.00037e-05 -2.17014e-10 0)
(5.00041e-05 -2.53688e-10 0)
(5.00041e-05 -2.44686e-10 0)
(5.00045e-05 -2.62269e-10 0)
(5.00046e-05 -2.1075e-10 0)
(5.0005e-05 -1.96491e-10 0)
(5.00051e-05 -1.07273e-10 0)
(5.00054e-05 -5.13471e-11 0)
(5.00055e-05 6.61518e-11 0)
(5.00057e-05 1.63254e-10 0)
(5.00057e-05 2.95902e-10 0)
(5.00058e-05 4.20373e-10 0)
(5.00034e-05 -3.82457e-11 0)
(5.00033e-05 -1.19496e-10 0)
(5.00034e-05 -1.89256e-10 0)
(5.00036e-05 -2.55786e-10 0)
(5.00037e-05 -3.00332e-10 0)
(5.00041e-05 -3.55053e-10 0)
(5.00041e-05 -3.56015e-10 0)
(5.00046e-05 -3.88594e-10 0)
(5.00047e-05 -3.40994e-10 0)
(5.00052e-05 -3.3551e-10 0)
(5.00053e-05 -2.44143e-10 0)
(5.00057e-05 -1.88198e-10 0)
(5.00057e-05 -6.26069e-11 0)
(5.0006e-05 4.38613e-11 0)
(5.00061e-05 1.89846e-10 0)
(5.00061e-05 3.30715e-10 0)
(5.00033e-05 -5.1358e-11 0)
(5.00032e-05 -1.49338e-10 0)
(5.00033e-05 -2.37199e-10 0)
(5.00035e-05 -3.22508e-10 0)
(5.00036e-05 -3.81961e-10 0)
(5.0004e-05 -4.55229e-10 0)
(5.00041e-05 -4.65722e-10 0)
(5.00046e-05 -5.14193e-10 0)
(5.00048e-05 -4.70154e-10 0)
(5.00053e-05 -4.74235e-10 0)
(5.00055e-05 -3.80343e-10 0)
(5.00059e-05 -3.2447e-10 0)
(5.0006e-05 -1.90092e-10 0)
(5.00064e-05 -7.31906e-11 0)
(5.00064e-05 8.75319e-11 0)
(5.00065e-05 2.47163e-10 0)
(5.00031e-05 -6.41564e-11 0)
(5.0003e-05 -1.7674e-10 0)
(5.00031e-05 -2.81286e-10 0)
(5.00033e-05 -3.84351e-10 0)
(5.00035e-05 -4.57447e-10 0)
(5.00039e-05 -5.49105e-10 0)
(5.00041e-05 -5.68192e-10 0)
(5.00046e-05 -6.33094e-10 0)
(5.00048e-05 -5.92091e-10 0)
(5.00054e-05 -6.06427e-10 0)
(5.00056e-05 -5.09712e-10 0)
(5.00062e-05 -4.54038e-10 0)
(5.00064e-05 -3.10338e-10 0)
(5.00067e-05 -1.81921e-10 0)
(5.00068e-05 -5.09256e-12 0)
(5.0007e-05 1.75919e-10 0)
(5.00029e-05 -7.5908e-11 0)
(5.00027e-05 -1.9943e-10 0)
(5.00028e-05 -3.17888e-10 0)
(5.00031e-05 -4.36489e-10 0)
(5.00033e-05 -5.20779e-10 0)
(5.00038e-05 -6.29879e-10 0)
(5.0004e-05 -6.55769e-10 0)
(5.00046e-05 -7.37297e-10 0)
(5.00049e-05 -6.98333e-10 0)
(5.00055e-05 -7.23638e-10 0)
(5.00058e-05 -6.23673e-10 0)
(5.00064e-05 -5.68508e-10 0)
(5.00067e-05 -4.15014e-10 0)
(5.00071e-05 -2.7409e-10 0)
(5.00073e-05 -7.98118e-11 0)
(5.00075e-05 1.25431e-10 0)
(5.00026e-05 -8.56383e-11 0)
(5.00023e-05 -2.1429e-10 0)
(5.00025e-05 -3.42021e-10 0)
(5.00028e-05 -4.7225e-10 0)
(5.0003e-05 -5.63719e-10 0)
(5.00036e-05 -6.88105e-10 0)
(5.00038e-05 -7.17953e-10 0)
(5.00045e-05 -8.15669e-10 0)
(5.00048e-05 -7.77268e-10 0)
(5.00056e-05 -8.14145e-10 0)
(5.0006e-05 -7.10507e-10 0)
(5.00067e-05 -6.56368e-10 0)
(5.0007e-05 -4.92877e-10 0)
(5.00076e-05 -3.38653e-10 0)
(5.00078e-05 -1.25797e-10 0)
(5.0008e-05 1.0666e-10 0)
(5.00023e-05 -9.2008e-11 0)
(5.00019e-05 -2.17299e-10 0)
(5.00021e-05 -3.47262e-10 0)
(5.00025e-05 -4.83014e-10 0)
(5.00026e-05 -5.75604e-10 0)
(5.00033e-05 -7.11517e-10 0)
(5.00036e-05 -7.41065e-10 0)
(5.00044e-05 -8.53663e-10 0)
(5.00048e-05 -8.13645e-10 0)
(5.00056e-05 -8.62523e-10 0)
(5.00061e-05 -7.54709e-10 0)
(5.00069e-05 -7.02378e-10 0)
(5.00074e-05 -5.2899e-10 0)
(5.0008e-05 -3.60979e-10 0)
(5.00083e-05 -1.28716e-10 0)
(5.00087e-05 1.34002e-10 0)
(5.00018e-05 -9.32919e-11 0)
(5.00014e-05 -2.03109e-10 0)
(5.00016e-05 -3.25044e-10 0)
(5.0002e-05 -4.57299e-10 0)
(5.00022e-05 -5.42188e-10 0)
(5.0003e-05 -6.83759e-10 0)
(5.00033e-05 -7.06799e-10 0)
(5.00042e-05 -8.31863e-10 0)
(5.00047e-05 -7.87045e-10 0)
(5.00056e-05 -8.48211e-10 0)
(5.00062e-05 -7.35594e-10 0)
(5.00072e-05 -6.86343e-10 0)
(5.00078e-05 -5.03623e-10 0)
(5.00085e-05 -3.21929e-10 0)
(5.0009e-05 -6.99814e-11 0)
(5.00094e-05 2.25906e-10 0)
(5.00014e-05 -8.71933e-11 0)
(5.00009e-05 -1.64985e-10 0)
(5.00011e-05 -2.64599e-10 0)
(5.00016e-05 -3.80571e-10 0)
(5.00018e-05 -4.45535e-10 0)
(5.00026e-05 -5.84002e-10 0)
(5.0003e-05 -5.92e-10 0)
(5.0004e-05 -7.25406e-10 0)
(5.00046e-05 -6.71486e-10 0)
(5.00056e-05 -7.4476e-10 0)
(5.00064e-05 -6.26677e-10 0)
(5.00074e-05 -5.82231e-10 0)
(5.00082e-05 -3.91434e-10 0)
(5.00091e-05 -1.96893e-10 0)
(5.00096e-05 7.42198e-11 0)
(5.00102e-05 4.05893e-10 0)
(5.00008e-05 -7.08224e-11 0)
(5.00003e-05 -9.42707e-11 0)
(5.00005e-05 -1.52032e-10 0)
(5.0001e-05 -2.34141e-10 0)
(5.00013e-05 -2.62411e-10 0)
(5.00022e-05 -3.85429e-10 0)
(5.00026e-05 -3.66564e-10 0)
(5.00037e-05 -5.02214e-10 0)
(5.00044e-05 -4.33114e-10 0)
(5.00056e-05 -5.17999e-10 0)
(5.00065e-05 -3.93498e-10 0)
(5.00077e-05 -3.5647e-10 0)
(5.00086e-05 -1.59671e-10 0)
(5.00097e-05 4.56491e-11 0)
(5.00104e-05 3.34257e-10 0)
(5.00111e-05 7.03684e-10 0)
(5.00003e-05 -4.04602e-11 0)
(4.99998e-05 1.97149e-11 0)
(5e-05 2.97666e-11 0)
(5.00005e-05 5.18069e-12 0)
(5.00008e-05 3.58511e-11 0)
(5.00017e-05 -5.45492e-11 0)
(5.00022e-05 6.83361e-12 0)
(5.00034e-05 -1.21982e-10 0)
(5.00042e-05 -2.96876e-11 0)
(5.00055e-05 -1.24812e-10 0)
(5.00065e-05 7.18024e-12 0)
(5.00079e-05 3.33428e-11 0)
(5.0009e-05 2.32834e-10 0)
(5.00103e-05 4.45348e-10 0)
(5.00113e-05 7.48161e-10 0)
(5.00122e-05 1.15634e-09 0)
(4.99997e-05 8.47645e-12 0)
(4.99993e-05 1.90249e-10 0)
(4.99995e-05 3.02143e-10 0)
(5e-05 3.66268e-10 0)
(5.00003e-05 4.85197e-10 0)
(5.00013e-05 4.50487e-10 0)
(5.00018e-05 5.75274e-10 0)
(5.00031e-05 4.65891e-10 0)
(5.0004e-05 5.92333e-10 0)
(5.00054e-05 4.89167e-10 0)
(5.00066e-05 6.30269e-10 0)
(5.00082e-05 6.40745e-10 0)
(5.00095e-05 8.38205e-10 0)
(5.0011e-05 1.05208e-09 0)
(5.00122e-05 1.36363e-09 0)
(5.00134e-05 1.81004e-09 0)
(4.99992e-05 8.16901e-11 0)
(4.99989e-05 4.33329e-10 0)
(4.9999e-05 6.90809e-10 0)
(4.99996e-05 8.84129e-10 0)
(4.99999e-05 1.12912e-09 0)
(5.00009e-05 1.18081e-09 0)
(5.00014e-05 1.39614e-09 0)
(5.00028e-05 1.32375e-09 0)
(5.00037e-05 1.49877e-09 0)
(5.00053e-05 1.39138e-09 0)
(5.00066e-05 1.54377e-09 0)
(5.00084e-05 1.53233e-09 0)
(5.001e-05 1.72113e-09 0)
(5.00118e-05 1.92768e-09 0)
(5.00132e-05 2.23956e-09 0)
(5.00147e-05 2.72156e-09 0)
(4.99988e-05 1.86048e-10 0)
(4.99987e-05 7.68135e-10 0)
(4.99988e-05 1.22668e-09 0)
(4.99994e-05 1.60092e-09 0)
(4.99996e-05 2.02027e-09 0)
(5.00006e-05 2.19847e-09 0)
(5.00011e-05 2.53957e-09 0)
(5.00025e-05 2.52794e-09 0)
(5.00035e-05 2.77086e-09 0)
(5.00051e-05 2.66511e-09 0)
(5.00067e-05 2.83216e-09 0)
(5.00086e-05 2.79074e-09 0)
(5.00105e-05 2.96205e-09 0)
(5.00126e-05 3.14875e-09 0)
(5.00144e-05 3.44872e-09 0)
(5.00162e-05 3.96063e-09 0)
(4.99986e-05 3.29785e-10 0)
(4.99988e-05 1.21703e-09 0)
(4.99988e-05 1.94587e-09 0)
(4.99994e-05 2.56616e-09 0)
(4.99995e-05 3.22068e-09 0)
(5.00005e-05 3.57713e-09 0)
(5.00009e-05 4.08919e-09 0)
(5.00022e-05 4.17034e-09 0)
(5.00033e-05 4.50679e-09 0)
(5.0005e-05 4.41189e-09 0)
(5.00067e-05 4.59885e-09 0)
(5.00088e-05 4.51749e-09 0)
(5.0011e-05 4.65995e-09 0)
(5.00134e-05 4.80935e-09 0)
(5.00156e-05 5.08017e-09 0)
(5.00179e-05 5.61225e-09 0)
(4.99987e-05 5.22497e-10 0)
(4.99993e-05 1.80558e-09 0)
(4.99992e-05 2.88982e-09 0)
(4.99998e-05 3.83698e-09 0)
(4.99997e-05 4.80232e-09 0)
(5.00006e-05 5.40299e-09 0)
(5.00009e-05 6.14365e-09 0)
(5.00022e-05 6.36029e-09 0)
(5.00032e-05 6.82448e-09 0)
(5.00049e-05 6.75454e-09 0)
(5.00067e-05 6.96988e-09 0)
(5.0009e-05 6.83685e-09 0)
(5.00115e-05 6.93644e-09 0)
(5.00143e-05 7.02483e-09 0)
(5.0017e-05 7.24285e-09 0)
(5.00198e-05 7.77985e-09 0)
(4.99992e-05 7.75165e-10 0)
(5.00005e-05 2.5621e-09 0)
(5.00003e-05 4.10456e-09 0)
(5.00007e-05 5.47734e-09 0)
(5.00004e-05 6.84638e-09 0)
(5.00011e-05 7.77434e-09 0)
(5.00012e-05 8.81655e-09 0)
(5.00023e-05 9.22536e-09 0)
(5.00032e-05 9.86304e-09 0)
(5.00048e-05 9.83981e-09 0)
(5.00067e-05 1.00974e-08 0)
(5.00092e-05 9.89996e-09 0)
(5.00119e-05 9.94038e-09 0)
(5.00151e-05 9.93631e-09 0)
(5.00184e-05 1.00699e-08 0)
(5.00218e-05 1.05892e-08 0)
(5.00004e-05 1.09993e-09 0)
(5.00025e-05 3.5166e-09 0)
(5.00021e-05 5.63917e-09 0)
(5.00023e-05 7.55613e-09 0)
(5.00017e-05 9.4412e-09 0)
(5.00022e-05 1.07998e-08 0)
(5.0002e-05 1.22353e-08 0)
(5.00028e-05 1.29111e-08 0)
(5.00034e-05 1.37837e-08 0)
(5.00049e-05 1.38406e-08 0)
(5.00068e-05 1.41634e-08 0)
(5.00093e-05 1.38897e-08 0)
(5.00124e-05 1.38538e-08 0)
(5.0016e-05 1.37168e-08 0)
(5.00199e-05 1.37249e-08 0)
(5.00241e-05 1.41943e-08 0)
(5.00025e-05 1.50965e-09 0)
(5.00056e-05 4.69906e-09 0)
(5.00049e-05 7.54313e-09 0)
(5.00049e-05 1.01438e-08 0)
(5.00039e-05 1.26785e-08 0)
(5.0004e-05 1.45944e-08 0)
(5.00033e-05 1.65375e-08 0)
(5.00037e-05 1.75785e-08 0)
(5.0004e-05 1.87689e-08 0)
(5.00051e-05 1.8957e-08 0)
(5.00069e-05 1.93825e-08 0)
(5.00093e-05 1.90255e-08 0)
(5.00127e-05 1.88979e-08 0)
(5.00168e-05 1.85769e-08 0)
(5.00214e-05 1.84071e-08 0)
(5.00264e-05 1.87809e-08 0)
(5.00056e-05 2.01719e-09 0)
(5.00102e-05 6.13637e-09 0)
(5.00091e-05 9.86139e-09 0)
(5.00088e-05 1.33059e-08 0)
(5.00073e-05 1.66459e-08 0)
(5.00069e-05 1.92719e-08 0)
(5.00055e-05 2.18636e-08 0)
(5.00053e-05 2.33979e-08 0)
(5.0005e-05 2.50176e-08 0)
(5.00056e-05 2.54149e-08 0)
(5.00071e-05 2.60043e-08 0)
(5.00093e-05 2.55688e-08 0)
(5.00129e-05 2.5342e-08 0)
(5.00174e-05 2.47752e-08 0)
(5.00228e-05 2.43612e-08 0)
(5.0029e-05 2.45738e-08 0)
(5.00103e-05 2.63404e-09 0)
(5.00165e-05 7.84828e-09 0)
(5.00151e-05 1.2628e-08 0)
(5.00144e-05 1.70946e-08 0)
(5.00121e-05 2.14167e-08 0)
(5.0011e-05 2.49329e-08 0)
(5.00089e-05 2.83447e-08 0)
(5.00078e-05 3.05375e-08 0)
(5.00067e-05 3.27366e-08 0)
(5.00066e-05 3.34608e-08 0)
(5.00074e-05 3.43136e-08 0)
(5.00093e-05 3.38306e-08 0)
(5.00129e-05 3.35175e-08 0)
(5.00178e-05 3.26367e-08 0)
(5.00241e-05 3.18998e-08 0)
(5.00316e-05 3.18592e-08 0)
(5.00167e-05 3.3686e-09 0)
(5.0025e-05 9.84096e-09 0)
(5.00231e-05 1.58556e-08 0)
(5.00219e-05 2.15344e-08 0)
(5.00189e-05 2.70314e-08 0)
(5.00169e-05 3.16444e-08 0)
(5.00137e-05 3.60796e-08 0)
(5.00116e-05 3.91406e-08 0)
(5.00093e-05 4.21188e-08 0)
(5.00081e-05 4.33461e-08 0)
(5.00081e-05 4.4622e-08 0)
(5.00093e-05 4.41754e-08 0)
(5.00127e-05 4.38382e-08 0)
(5.00178e-05 4.25903e-08 0)
(5.0025e-05 4.14615e-08 0)
(5.00341e-05 4.10519e-08 0)
(5.00253e-05 4.22343e-09 0)
(5.00361e-05 1.20998e-08 0)
(5.00337e-05 1.95238e-08 0)
(5.00318e-05 2.66054e-08 0)
(5.00279e-05 3.34777e-08 0)
(5.00249e-05 3.94139e-08 0)
(5.00204e-05 4.51061e-08 0)
(5.00169e-05 4.9293e-08 0)
(5.00132e-05 5.33098e-08 0)
(5.00106e-05 5.52923e-08 0)
(5.00093e-05 5.7236e-08 0)
(5.00094e-05 5.69939e-08 0)
(5.00123e-05 5.67775e-08 0)
(5.00174e-05 5.51547e-08 0)
(5.00256e-05 5.36087e-08 0)
(5.00364e-05 5.26893e-08 0)
(5.00365e-05 5.19214e-09 0)
(5.00503e-05 1.45796e-08 0)
(5.00472e-05 2.35628e-08 0)
(5.00447e-05 3.22202e-08 0)
(5.00397e-05 4.06587e-08 0)
(5.00354e-05 4.81514e-08 0)
(5.00295e-05 5.53539e-08 0)
(5.00244e-05 6.09716e-08 0)
(5.00188e-05 6.63508e-08 0)
(5.00143e-05 6.94364e-08 0)
(5.00113e-05 7.24039e-08 0)
(5.00098e-05 7.26532e-08 0)
(5.00117e-05 7.28069e-08 0)
(5.00164e-05 7.08467e-08 0)
(5.00254e-05 6.88537e-08 0)
(5.00383e-05 6.71544e-08 0)
(5.00509e-05 6.2552e-09 0)
(5.00678e-05 1.71956e-08 0)
(5.00642e-05 2.78379e-08 0)
(5.00609e-05 3.82011e-08 0)
(5.00547e-05 4.83624e-08 0)
(5.00491e-05 5.76274e-08 0)
(5.00414e-05 6.65948e-08 0)
(5.00344e-05 7.39835e-08 0)
(5.00267e-05 8.11162e-08 0)
(5.00199e-05 8.57759e-08 0)
(5.00145e-05 9.02932e-08 0)
(5.00107e-05 9.15358e-08 0)
(5.00109e-05 9.25351e-08 0)
(5.00145e-05 9.04258e-08 0)
(5.00242e-05 8.79071e-08 0)
(5.00394e-05 8.48356e-08 0)
(5.00686e-05 7.37606e-09 0)
(5.00891e-05 1.98139e-08 0)
(5.00849e-05 3.21331e-08 0)
(5.00807e-05 4.42537e-08 0)
(5.00734e-05 5.62218e-08 0)
(5.00663e-05 6.74176e-08 0)
(5.00568e-05 7.83621e-08 0)
(5.00478e-05 8.78612e-08 0)
(5.00376e-05 9.718e-08 0)
(5.00281e-05 1.04023e-07 0)
(5.00197e-05 1.10872e-07 0)
(5.00129e-05 1.14053e-07 0)
(5.00103e-05 1.17062e-07 0)
(5.00116e-05 1.15889e-07 0)
(5.00209e-05 1.13705e-07 0)
(5.00391e-05 1.09249e-07 0)
(5.00901e-05 8.4972e-09 0)
(5.01143e-05 2.22477e-08 0)
(5.01094e-05 3.61431e-08 0)
(5.01045e-05 4.99523e-08 0)
(5.0096e-05 6.36896e-08 0)
(5.00875e-05 7.6855e-08 0)
(5.00761e-05 8.98709e-08 0)
(5.0065e-05 1.01722e-07 0)
(5.00522e-05 1.1358e-07 0)
(5.00399e-05 1.23222e-07 0)
(5.00282e-05 1.33312e-07 0)
(5.00177e-05 1.39794e-07 0)
(5.00114e-05 1.46934e-07 0)
(5.0009e-05 1.49598e-07 0)
(5.00158e-05 1.51887e-07 0)
(5.00357e-05 1.50441e-07 0)
(5.01154e-05 9.5385e-09 0)
(5.01433e-05 2.42621e-08 0)
(5.01378e-05 3.9481e-08 0)
(5.01321e-05 5.47478e-08 0)
(5.01225e-05 7.00435e-08 0)
(5.01126e-05 8.50261e-08 0)
(5.00996e-05 9.99899e-08 0)
(5.00864e-05 1.14186e-07 0)
(5.00711e-05 1.28619e-07 0)
(5.00561e-05 1.41303e-07 0)
(5.00412e-05 1.5503e-07 0)
(5.00273e-05 1.65573e-07 0)
(5.00174e-05 1.78277e-07 0)
(5.00111e-05 1.87151e-07 0)
(5.00143e-05 1.98607e-07 0)
(5.00313e-05 2.07498e-07 0)
(5.01445e-05 1.03994e-08 0)
(5.01757e-05 2.55891e-08 0)
(5.01697e-05 4.17032e-08 0)
(5.01633e-05 5.8007e-08 0)
(5.01528e-05 7.44423e-08 0)
(5.01416e-05 9.08538e-08 0)
(5.0127e-05 1.07361e-07 0)
(5.01119e-05 1.23549e-07 0)
(5.00943e-05 1.40115e-07 0)
(5.00767e-05 1.55423e-07 0)
(5.00586e-05 1.72094e-07 0)
(5.00413e-05 1.85725e-07 0)
(5.00278e-05 2.02326e-07 0)
(5.00174e-05 2.14424e-07 0)
(5.00158e-05 2.30061e-07 0)
(5.00257e-05 2.41797e-07 0)
(5.01771e-05 1.09654e-08 0)
(5.02108e-05 2.59516e-08 0)
(5.02044e-05 4.23518e-08 0)
(5.01975e-05 5.9076e-08 0)
(5.01861e-05 7.60259e-08 0)
(5.01739e-05 9.32485e-08 0)
(5.01578e-05 1.10652e-07 0)
(5.0141e-05 1.28214e-07 0)
(5.0121e-05 1.46183e-07 0)
(5.01008e-05 1.63431e-07 0)
(5.00791e-05 1.82061e-07 0)
(5.0058e-05 1.97681e-07 0)
(5.00397e-05 2.16561e-07 0)
(5.00233e-05 2.29309e-07 0)
(5.00151e-05 2.45742e-07 0)
(5.00164e-05 2.55886e-07 0)
(5.02124e-05 1.11179e-08 0)
(5.02478e-05 2.50844e-08 0)
(5.02411e-05 4.09886e-08 0)
(5.02336e-05 5.73303e-08 0)
(5.02216e-05 7.39739e-08 0)
(5.02084e-05 9.11762e-08 0)
(5.01911e-05 1.08611e-07 0)
(5.01726e-05 1.26706e-07 0)
(5.01504e-05 1.45141e-07 0)
(5.01275e-05 1.63506e-07 0)
(5.01019e-05 1.83026e-07 0)
(5.00764e-05 1.99815e-07 0)
(5.0052e-05 2.19918e-07 0)
(5.0028e-05 2.32069e-07 0)
(5.00118e-05 2.49004e-07 0)
(5.00048e-05 2.56529e-07 0)
(5.02494e-05 1.07435e-08 0)
(5.02853e-05 2.27631e-08 0)
(5.02783e-05 3.72426e-08 0)
(5.02704e-05 5.22355e-08 0)
(5.02579e-05 6.75792e-08 0)
(5.02439e-05 8.3731e-08 0)
(5.02256e-05 1.00134e-07 0)
(5.02056e-05 1.17697e-07 0)
(5.01813e-05 1.3547e-07 0)
(5.01557e-05 1.53983e-07 0)
(5.0126e-05 1.73228e-07 0)
(5.00957e-05 1.90633e-07 0)
(5.00638e-05 2.11032e-07 0)
(5.00308e-05 2.22277e-07 0)
(5.00053e-05 2.40735e-07 0)
(4.99875e-05 2.4413e-07 0)
(5.02871e-05 9.74637e-09 0)
(5.03219e-05 1.88027e-08 0)
(5.03146e-05 3.08028e-08 0)
(5.03065e-05 4.33336e-08 0)
(5.02935e-05 5.62155e-08 0)
(5.02788e-05 7.00758e-08 0)
(5.02598e-05 8.41531e-08 0)
(5.02385e-05 9.98153e-08 0)
(5.02124e-05 1.15495e-07 0)
(5.01841e-05 1.32828e-07 0)
(5.01505e-05 1.50401e-07 0)
(5.01153e-05 1.67914e-07 0)
(5.0075e-05 1.87513e-07 0)
(5.00322e-05 1.99063e-07 0)
(4.99958e-05 2.19686e-07 0)
(4.99609e-05 2.17585e-07 0)
(5.03237e-05 8.0474e-09 0)
(5.03558e-05 1.30446e-08 0)
(5.03483e-05 2.13872e-08 0)
(5.03399e-05 3.01938e-08 0)
(5.03266e-05 3.92908e-08 0)
(5.03114e-05 4.94407e-08 0)
(5.02917e-05 5.97335e-08 0)
(5.02692e-05 7.19172e-08 0)
(5.02415e-05 8.39297e-08 0)
(5.0211e-05 9.85416e-08 0)
(5.01741e-05 1.12976e-07 0)
(5.01341e-05 1.29746e-07 0)
(5.00856e-05 1.47198e-07 0)
(5.0033e-05 1.61395e-07 0)
(4.99818e-05 1.81197e-07 0)
(4.99208e-05 1.69754e-07 0)
(5.03577e-05 5.58097e-09 0)
(5.03851e-05 5.51357e-09 0)
(5.03773e-05 9.06442e-09 0)
(5.03684e-05 1.29761e-08 0)
(5.03548e-05 1.71063e-08 0)
(5.03389e-05 2.2328e-08 0)
(5.03187e-05 2.76636e-08 0)
(5.02952e-05 3.51612e-08 0)
(5.02666e-05 4.2557e-08 0)
(5.02347e-05 5.33646e-08 0)
(5.01964e-05 6.30512e-08 0)
(5.01534e-05 7.60433e-08 0)
(5.00988e-05 8.69953e-08 0)
(5.0035e-05 9.91076e-08 0)
(4.99551e-05 1.07198e-07 0)
(4.98583e-05 8.29867e-08 0)
(5.03871e-05 2.36011e-09 0)
(5.04077e-05 -3.11083e-09 0)
(5.03996e-05 -4.79924e-09 0)
(5.03907e-05 -6.13869e-09 0)
(5.03773e-05 -7.43042e-09 0)
(5.03618e-05 -7.85785e-09 0)
(5.03421e-05 -8.58511e-09 0)
(5.03191e-05 -7.65775e-09 0)
(5.02904e-05 -7.50976e-09 0)
(5.0256e-05 -4.8043e-09 0)
(5.02133e-05 -5.8318e-09 0)
(5.01638e-05 -5.26239e-09 0)
(5.00996e-05 -1.08364e-08 0)
(5.0021e-05 -1.65062e-08 0)
(4.99081e-05 -3.09335e-08 0)
(4.97714e-05 -6.40427e-08 0)
(5.04098e-05 -1.34435e-09 0)
(5.04272e-05 -1.2913e-08 0)
(5.04191e-05 -2.07062e-08 0)
(5.04092e-05 -2.86126e-08 0)
(5.03944e-05 -3.73101e-08 0)
(5.03765e-05 -4.63533e-08 0)
(5.03541e-05 -5.73179e-08 0)
(5.03274e-05 -6.88097e-08 0)
(5.02947e-05 -8.39233e-08 0)
(5.02545e-05 -9.94998e-08 0)
(5.02039e-05 -1.21142e-07 0)
(5.01434e-05 -1.4235e-07 0)
(5.00656e-05 -1.72362e-07 0)
(4.99695e-05 -2.00888e-07 0)
(4.98343e-05 -2.37479e-07 0)
(4.9668e-05 -2.75248e-07 0)
(5.04292e-05 -5.55598e-09 0)
(5.04311e-05 -2.80348e-08 0)
(5.04213e-05 -4.63789e-08 0)
(5.04082e-05 -6.61614e-08 0)
(5.03891e-05 -8.80394e-08 0)
(5.03652e-05 -1.11913e-07 0)
(5.03357e-05 -1.3955e-07 0)
(5.03004e-05 -1.69865e-07 0)
(5.02583e-05 -2.05829e-07 0)
(5.02079e-05 -2.44052e-07 0)
(5.01475e-05 -2.89301e-07 0)
(5.00754e-05 -3.34208e-07 0)
(4.99858e-05 -3.88335e-07 0)
(4.98767e-05 -4.37394e-07 0)
(4.97289e-05 -4.94681e-07 0)
(4.95469e-05 -5.39135e-07 0)
(5.04337e-05 -1.19966e-08 0)
(5.03987e-05 -5.26212e-08 0)
(5.03852e-05 -8.71193e-08 0)
(5.0367e-05 -1.24036e-07 0)
(5.03417e-05 -1.64042e-07 0)
(5.03102e-05 -2.07073e-07 0)
(5.02722e-05 -2.54707e-07 0)
(5.02272e-05 -3.05905e-07 0)
(5.01751e-05 -3.63066e-07 0)
(5.01144e-05 -4.22737e-07 0)
(5.00441e-05 -4.89233e-07 0)
(4.99615e-05 -5.54588e-07 0)
(4.98629e-05 -6.27928e-07 0)
(4.97447e-05 -6.92385e-07 0)
(4.95934e-05 -7.63912e-07 0)
(4.94104e-05 -8.10664e-07 0)
(5.04027e-05 -2.24815e-08 0)
(5.0317e-05 -8.48729e-08 0)
(5.03e-05 -1.39593e-07 0)
(5.02766e-05 -1.96911e-07 0)
(5.0245e-05 -2.57357e-07 0)
(5.0206e-05 -3.20793e-07 0)
(5.01597e-05 -3.88386e-07 0)
(5.01057e-05 -4.59144e-07 0)
(5.00447e-05 -5.34936e-07 0)
(4.9975e-05 -6.12499e-07 0)
(4.9897e-05 -6.95606e-07 0)
(4.98072e-05 -7.7603e-07 0)
(4.97046e-05 -8.62146e-07 0)
(4.95843e-05 -9.35376e-07 0)
(4.94397e-05 -1.01263e-06 0)
(4.92698e-05 -1.05596e-06 0)
(5.03224e-05 -3.62792e-08 0)
(5.01779e-05 -1.19809e-07 0)
(5.01586e-05 -1.95982e-07 0)
(5.01315e-05 -2.74313e-07 0)
(5.00953e-05 -3.54845e-07 0)
(5.00509e-05 -4.37375e-07 0)
(4.99988e-05 -5.22608e-07 0)
(4.99387e-05 -6.09715e-07 0)
(4.98716e-05 -7.00076e-07 0)
(4.97963e-05 -7.9079e-07 0)
(4.97142e-05 -8.85036e-07 0)
(4.96217e-05 -9.74848e-07 0)
(4.95208e-05 -1.06771e-06 0)
(4.94059e-05 -1.14461e-06 0)
(4.9277e-05 -1.22255e-06 0)
(4.91305e-05 -1.26151e-06 0)
(5.01846e-05 -5.12581e-08 0)
(4.99833e-05 -1.51487e-07 0)
(4.99632e-05 -2.46881e-07 0)
(4.99346e-05 -3.43747e-07 0)
(4.98967e-05 -4.41487e-07 0)
(4.98501e-05 -5.39854e-07 0)
(4.97955e-05 -6.39082e-07 0)
(4.9733e-05 -7.3857e-07 0)
(4.96638e-05 -8.39224e-07 0)
(4.95869e-05 -9.38632e-07 0)
(4.95048e-05 -1.03931e-06 0)
(4.94145e-05 -1.13402e-06 0)
(4.93206e-05 -1.22927e-06 0)
(4.92174e-05 -1.30692e-06 0)
(4.91104e-05 -1.3834e-06 0)
(4.89943e-05 -1.41937e-06 0)
(4.99905e-05 -6.48655e-08 0)
(4.97432e-05 -1.74639e-07 0)
(4.97238e-05 -2.84064e-07 0)
(4.96959e-05 -3.94471e-07 0)
(4.96588e-05 -5.04677e-07 0)
(4.96132e-05 -6.14404e-07 0)
(4.95597e-05 -7.23395e-07 0)
(4.94983e-05 -8.31245e-07 0)
(4.94307e-05 -9.38338e-07 0)
(4.93562e-05 -1.04281e-06 0)
(4.92782e-05 -1.14643e-06 0)
(4.91945e-05 -1.24307e-06 0)
(4.91117e-05 -1.33807e-06 0)
(4.90249e-05 -1.41525e-06 0)
(4.8944e-05 -1.48969e-06 0)
(4.88623e-05 -1.52451e-06 0)
(4.97504e-05 -7.48234e-08 0)
(4.94739e-05 -1.86149e-07 0)
(4.94559e-05 -3.02644e-07 0)
(4.94301e-05 -4.2007e-07 0)
(4.93956e-05 -5.36863e-07 0)
(4.9353e-05 -6.52761e-07 0)
(4.9303e-05 -7.67019e-07 0)
(4.92456e-05 -8.79352e-07 0)
(4.91825e-05 -9.89544e-07 0)
(4.91137e-05 -1.09625e-06 0)
(4.90429e-05 -1.20037e-06 0)
(4.8969e-05 -1.29713e-06 0)
(4.89004e-05 -1.39051e-06 0)
(4.88332e-05 -1.46706e-06 0)
(4.87806e-05 -1.53971e-06 0)
(4.87355e-05 -1.57549e-06 0)
(4.94806e-05 -7.97759e-08 0)
(4.91937e-05 -1.8564e-07 0)
(4.91773e-05 -3.0196e-07 0)
(4.91536e-05 -4.19524e-07 0)
(4.91221e-05 -5.36652e-07 0)
(4.90833e-05 -6.53191e-07 0)
(4.90379e-05 -7.68018e-07 0)
(4.89859e-05 -8.80949e-07 0)
(4.89292e-05 -9.9114e-07 0)
(4.8868e-05 -1.09766e-06 0)
(4.88065e-05 -1.20045e-06 0)
(4.87447e-05 -1.29616e-06 0)
(4.86921e-05 -1.3872e-06 0)
(4.86461e-05 -1.46328e-06 0)
(4.86228e-05 -1.53454e-06 0)
(4.86146e-05 -1.57308e-06 0)
(4.91999e-05 -7.95563e-08 0)
(4.89194e-05 -1.75188e-07 0)
(4.8904e-05 -2.85174e-07 0)
(4.8882e-05 -3.96769e-07 0)
(4.88529e-05 -5.08382e-07 0)
(4.88174e-05 -6.20072e-07 0)
(4.87762e-05 -7.30587e-07 0)
(4.87299e-05 -8.3998e-07 0)
(4.86799e-05 -9.46908e-07 0)
(4.86272e-05 -1.0508e-06 0)
(4.85759e-05 -1.15056e-06 0)