/*--------------------------------*- C++ -*----------------------------------*\
| =========                 |                                                 |
| \\      /  F ield         | foam-extend: Open Source CFD                    |
|  \\    /   O peration     | Version:     4.1-20200408                       |
|   \\  /    A nd           | Web:         http://www.foam-extend.org         |
|    \\/     M anipulation  |                                                 |
\*---------------------------------------------------------------------------*/
FoamFile
{
    version     2.0;
    format      ascii;
    class       volTensorField;
    location    "0.0535000";
    object      F;
}
// * * * * * * * * * * * * * * * * * * * * * * * * * * * * * * * * * * * * * //

dimensions      [0 0 0 0 0 0 0];

internalField   nonuniform List<tensor> 
1952
(
(1.04958 -0.00358014 -1.98092e-10 -0.000415376 0.974918 -6.39448e-11 6.04486e-11 5.87221e-10 0.974882)
(1.04958 -0.00605651 -9.91186e-11 -0.000660761 0.97496 -8.58877e-10 3.92034e-11 -5.83027e-10 0.974912)
(1.0496 -0.0081837 1.52686e-10 -0.000933404 0.975045 2.75468e-10 -5.13953e-11 -4.15087e-09 0.974926)
(1.04961 -0.0102169 3.83292e-10 -0.0011776 0.975125 1.35583e-09 -1.49442e-10 1.58424e-09 0.974971)
(1.04963 -0.0119772 -1.58183e-10 -0.00144692 0.975254 -3.65937e-10 1.44684e-11 8.01459e-09 0.974999)
(1.04965 -0.0134071 -7.09921e-10 -0.00168596 0.975378 -1.49157e-09 1.88838e-10 1.1649e-09 0.975058)
(1.04967 -0.0144671 -2.45768e-10 -0.0019477 0.975558 -6.01954e-10 4.83426e-11 -8.25993e-09 0.9751)
(1.04969 -0.0151222 5.11344e-10 -0.00217811 0.975752 7.66591e-10 -1.25684e-10 -1.39214e-09 0.975176)
(1.04971 -0.0151978 -7.18142e-11 -0.00242699 0.97601 -1.68422e-10 -2.42798e-11 7.94446e-09 0.975239)
(1.04972 -0.014624 -7.74944e-10 -0.00264664 0.976326 -8.6155e-10 1.11506e-10 -1.69433e-09 0.975336)
(1.04974 -0.0130399 1.92983e-10 -0.00287492 0.976708 1.90119e-10 5.4524e-13 -8.06233e-09 0.975429)
(1.04974 -0.0106203 7.01799e-10 -0.0030757 0.977255 5.70359e-10 -1.14552e-10 1.39628e-09 0.975558)
(1.04975 -0.00713323 -4.98423e-11 -0.00328305 0.977896 -5.58236e-11 -5.06467e-11 7.78343e-09 0.975702)
(1.04975 -0.00289477 -5.61861e-10 -0.00346741 0.978721 -6.49589e-10 7.63582e-11 1.22231e-09 0.975883)
(1.04976 0.00068409 -2.9584e-10 -0.00368651 0.979181 -1.58968e-10 1.47733e-11 -2.46966e-09 0.976093)
(1.04957 -0.00188432 -6.20858e-11 -0.000173033 0.974878 -2.08211e-09 1.39485e-11 -8.46342e-10 0.974897)
(1.04964 -0.00358426 -1.98273e-10 -0.000409462 0.974891 -6.40396e-11 -4.36899e-12 5.87917e-10 0.974856)
(1.04965 -0.00606365 -9.91621e-11 -0.000664816 0.974935 -8.59943e-10 -5.77436e-12 -5.83552e-10 0.974885)
(1.04966 -0.00819287 1.52841e-10 -0.000924328 0.975019 2.75873e-10 -4.45151e-12 -4.15535e-09 0.9749)
(1.04968 -0.0102281 3.83537e-10 -0.00117892 0.9751 1.35792e-09 -1.35709e-11 1.5853e-09 0.974944)
(1.04969 -0.0119899 -1.58335e-10 -0.00143481 0.975229 -3.66254e-10 -2.7654e-11 8.02305e-09 0.974973)
(1.04971 -0.0134219 -7.10198e-10 -0.00168203 0.975354 -1.49371e-09 -2.02688e-11 1.16727e-09 0.975032)
(1.04973 -0.0144828 -2.46258e-10 -0.00193037 0.975534 -6.02206e-10 -9.8404e-13 -8.26804e-09 0.975075)
(1.04975 -0.0151387 5.11032e-10 -0.00216512 0.975728 7.68469e-10 -1.28682e-11 -1.39428e-09 0.975151)
(1.04978 -0.015215 -7.18942e-11 -0.00240134 0.975987 -1.68526e-10 -4.69252e-11 7.95257e-09 0.975214)
(1.04979 -0.0146401 -7.75375e-10 -0.00261906 0.976302 -8.62826e-10 -3.013e-11 -1.69524e-09 0.975312)
(1.04981 -0.0130553 1.93242e-10 -0.00283772 0.976685 1.90138e-10 3.13392e-12 -8.07044e-09 0.975405)
(1.04982 -0.0106372 7.01558e-10 -0.00303077 0.97723 5.70977e-10 -2.38005e-11 1.39734e-09 0.975533)
(1.04982 -0.00715364 -4.98309e-11 -0.00322736 0.97787 -5.5879e-11 -6.23797e-11 7.79135e-09 0.975678)
(1.04983 -0.00292603 -5.5986e-10 -0.0033935 0.978691 -6.49701e-10 -5.3395e-11 1.2235e-09 0.975858)
(1.04985 0.000623587 -2.94034e-10 -0.00359673 0.979146 -1.58891e-10 -1.91666e-11 -2.47252e-09 0.976068)
(1.04963 -0.00188682 -6.21303e-11 -0.000175481 0.974852 -2.08411e-09 -1.53774e-12 -8.47236e-10 0.97487)
(1.04971 -0.00358837 -1.98446e-10 -0.00040791 0.974863 -6.40816e-11 -4.37941e-12 5.88576e-10 0.974827)
(1.04971 -0.00607097 -9.91784e-11 -0.000662677 0.974906 -8.60955e-10 -5.78918e-12 -5.8424e-10 0.974857)
(1.04973 -0.00820244 1.52992e-10 -0.000920528 0.974991 2.76263e-10 -4.46733e-12 -4.16007e-09 0.974872)
(1.04974 -0.0102401 3.83723e-10 -0.00117455 0.975071 1.35974e-09 -1.3602e-11 1.58708e-09 0.974916)
(1.04976 -0.0120029 -1.585e-10 -0.00142886 0.9752 -3.6663e-10 -2.77065e-11 8.03214e-09 0.974944)
(1.04978 -0.0134377 -7.10202e-10 -0.00167501 0.975325 -1.49565e-09 -2.03122e-11 1.16858e-09 0.975004)
(1.0498 -0.0144995 -2.46878e-10 -0.00192109 0.975506 -6.02733e-10 -1.00784e-12 -8.27746e-09 0.975047)
(1.04982 -0.0151563 5.1036e-10 -0.00215496 0.9757 7.69751e-10 -1.29027e-11 -1.39589e-09 0.975123)
(1.04984 -0.0152338 -7.19911e-11 -0.00238872 0.975959 -1.68677e-10 -4.70095e-11 7.96163e-09 0.975185)
(1.04986 -0.014658 -7.75518e-10 -0.00260513 0.976274 -8.64033e-10 -3.02023e-11 -1.69721e-09 0.975283)
(1.04988 -0.0130725 1.9361e-10 -0.00282182 0.976656 1.9022e-10 3.11219e-12 -8.07973e-09 0.975376)
(1.04989 -0.0106549 7.01388e-10 -0.00301335 0.9772 5.71843e-10 -2.38483e-11 1.39894e-09 0.975505)
(1.04989 -0.00717096 -4.98261e-11 -0.00320889 0.97784 -5.59419e-11 -6.24889e-11 7.80045e-09 0.975649)
(1.0499 -0.00294228 -5.59758e-10 -0.00337422 0.978661 -6.50529e-10 -5.3511e-11 1.22493e-09 0.975829)
(1.04991 0.000604962 -2.94049e-10 -0.00357767 0.979116 -1.59195e-10 -1.92193e-11 -2.47547e-09 0.976039)
(1.0497 -0.00188941 -6.22226e-11 -0.000174869 0.974823 -2.08628e-09 -1.54176e-12 -8.48205e-10 0.974841)
(1.04978 -0.00359253 -1.98631e-10 -0.000406527 0.974833 -6.4099e-11 -4.38989e-12 5.89259e-10 0.974798)
(1.04978 -0.00607844 -9.91868e-11 -0.000660642 0.974877 -8.61935e-10 -5.80378e-12 -5.84949e-10 0.974827)
(1.0498 -0.00821213 1.53151e-10 -0.00091727 0.974961 2.76639e-10 -4.48327e-12 -4.16498e-09 0.974842)
(1.04981 -0.0102522 3.83881e-10 -0.00117073 0.975042 1.36148e-09 -1.36335e-11 1.58893e-09 0.974886)
(1.04983 -0.0120163 -1.58663e-10 -0.00142378 0.975171 -3.67024e-10 -2.77578e-11 8.04156e-09 0.974915)
(1.04985 -0.0134536 -7.10259e-10 -0.00166922 0.975296 -1.49751e-09 -2.03558e-11 1.16995e-09 0.974974)
(1.04987 -0.0145164 -2.47497e-10 -0.00191392 0.975477 -6.03358e-10 -1.03055e-12 -8.28725e-09 0.975017)
(1.04989 -0.0151742 5.09626e-10 -0.00214692 0.975671 7.70841e-10 -1.29377e-11 -1.39756e-09 0.975093)
(1.04991 -0.0152524 -7.20932e-11 -0.0023794 0.975929 -1.68843e-10 -4.70937e-11 7.97106e-09 0.975156)
(1.04993 -0.0146757 -7.75402e-10 -0.00259479 0.976244 -8.6507e-10 -3.0275e-11 -1.69926e-09 0.975254)
(1.04995 -0.0130899 1.94015e-10 -0.00280965 0.976625 1.90371e-10 3.09146e-12 -8.08942e-09 0.975347)
(1.04996 -0.0106727 7.01178e-10 -0.00300019 0.97717 5.7274e-10 -2.38957e-11 1.40061e-09 0.975475)
(1.04996 -0.0071889 -4.98194e-11 -0.00319453 0.97781 -5.60077e-11 -6.25996e-11 7.80992e-09 0.975619)
(1.04997 -0.0029587 -5.59878e-10 -0.00335966 0.978631 -6.51352e-10 -5.36279e-11 1.22642e-09 0.975799)
(1.04998 0.000588869 -2.94261e-10 -0.00356332 0.979086 -1.59451e-10 -1.92715e-11 -2.47856e-09 0.976009)
(1.04977 -0.00189202 -6.2294e-11 -0.000174304 0.974794 -2.08854e-09 -1.54577e-12 -8.49204e-10 0.974811)
(1.04985 -0.00359671 -1.98811e-10 -0.000405457 0.974803 -6.41166e-11 -4.40041e-12 5.89959e-10 0.974767)
(1.04985 -0.00608602 -9.92045e-11 -0.000658875 0.974847 -8.62943e-10 -5.81817e-12 -5.85677e-10 0.974796)
(1.04987 -0.00822152 1.53282e-10 -0.000914937 0.974931 2.77024e-10 -4.49929e-12 -4.17002e-09 0.974812)
(1.04988 -0.010264 3.83877e-10 -0.00116762 0.975012 1.36321e-09 -1.36653e-11 1.59083e-09 0.974856)
(1.0499 -0.0120298 -1.58838e-10 -0.00141945 0.975141 -3.67434e-10 -2.7809e-11 8.05125e-09 0.974885)
(1.04992 -0.0134698 -7.10263e-10 -0.0016641 0.975266 -1.49939e-09 -2.03994e-11 1.17135e-09 0.974944)
(1.04994 -0.0145335 -2.48157e-10 -0.00190771 0.975447 -6.03999e-10 -1.05255e-12 -8.29733e-09 0.974987)
(1.04996 -0.0151925 5.08759e-10 -0.00213974 0.975641 7.72035e-10 -1.29728e-11 -1.39928e-09 0.975063)
(1.04998 -0.0152718 -7.2201e-11 -0.00237112 0.975899 -1.69011e-10 -4.71794e-11 7.98076e-09 0.975126)
(1.05 -0.0146939 -7.75463e-10 -0.00258546 0.976213 -8.66065e-10 -3.03474e-11 -1.70137e-09 0.975223)
(1.05002 -0.0131072 1.94459e-10 -0.00279948 0.976594 1.90578e-10 3.07233e-12 -8.09942e-09 0.975316)
(1.05003 -0.0106898 7.01005e-10 -0.00298943 0.977139 5.73599e-10 -2.3943e-11 1.40234e-09 0.975445)
(1.05003 -0.00720539 -4.98115e-11 -0.00318329 0.977779 -5.60778e-11 -6.27121e-11 7.81971e-09 0.975589)
(1.05004 -0.00297246 -5.601e-10 -0.00334854 0.9786 -6.52293e-10 -5.37458e-11 1.22796e-09 0.975769)
(1.05005 0.000576117 -2.94454e-10 -0.00355265 0.979057 -1.59708e-10 -1.93231e-11 -2.48173e-09 0.975979)
(1.04984 -0.00189462 -6.23311e-11 -0.000173841 0.974763 -2.09085e-09 -1.54977e-12 -8.5023e-10 0.974781)
(1.04992 -0.00360094 -1.99006e-10 -0.000404395 0.974772 -6.41395e-11 -4.41101e-12 5.90673e-10 0.974736)
(1.04992 -0.00609375 -9.92115e-11 -0.000657126 0.974816 -8.63985e-10 -5.83247e-12 -5.86421e-10 0.974765)
(1.04994 -0.00823151 1.53436e-10 -0.000912405 0.9749 2.77425e-10 -4.51493e-12 -4.17515e-09 0.974781)
(1.04995 -0.0102765 3.84014e-10 -0.00116435 0.97498 1.36494e-09 -1.36976e-11 1.59277e-09 0.974825)
(1.04997 -0.0120436 -1.59015e-10 -0.00141541 0.975109 -3.6786e-10 -2.78611e-11 8.06119e-09 0.974854)
(1.04999 -0.0134862 -7.10275e-10 -0.00165927 0.975234 -1.50129e-09 -2.04431e-11 1.17278e-09 0.974913)
(1.05001 -0.0145508 -2.48822e-10 -0.00190201 0.975415 -6.04687e-10 -1.07353e-12 -8.30768e-09 0.974956)
(1.05003 -0.0152109 5.07901e-10 -0.00213335 0.975609 7.7314e-10 -1.30078e-11 -1.40104e-09 0.975032)
(1.05006 -0.0152915 -7.2306e-11 -0.00236374 0.975867 -1.69191e-10 -4.72667e-11 7.99075e-09 0.975094)
(1.05007 -0.0147128 -7.75513e-10 -0.0025776 0.976181 -8.6725e-10 -3.04196e-11 -1.70354e-09 0.975192)
(1.05009 -0.0131246 1.94961e-10 -0.00279163 0.976562 1.90772e-10 3.05425e-12 -8.1097e-09 0.975285)
(1.0501 -0.0107064 7.00848e-10 -0.00298149 0.977107 5.74548e-10 -2.39901e-11 1.4041e-09 0.975413)
(1.0501 -0.00722053 -4.98061e-11 -0.00317584 0.977748 -5.6147e-11 -6.28248e-11 7.82973e-09 0.975558)
(1.05011 -0.002984 -5.60279e-10 -0.0033413 0.97857 -6.53182e-10 -5.38641e-11 1.22952e-09 0.975737)
(1.05011 0.000566046 -2.94672e-10 -0.0035453 0.979027 -1.59969e-10 -1.93745e-11 -2.48496e-09 0.975947)
(1.04991 -0.00189723 -6.24337e-11 -0.000173389 0.974732 -2.09322e-09 -1.55377e-12 -8.51279e-10 0.97475)
(1.04999 -0.0036052 -1.99191e-10 -0.00040338 0.97474 -6.41615e-11 -4.4217e-12 5.91404e-10 0.974704)
(1.04999 -0.00610153 -9.92113e-11 -0.000655494 0.974784 -8.65033e-10 -5.84667e-12 -5.87183e-10 0.974734)
(1.05001 -0.00824173 1.53596e-10 -0.000909924 0.974868 2.77828e-10 -4.53029e-12 -4.18044e-09 0.974749)
(1.05002 -0.0102894 3.84152e-10 -0.00116133 0.974949 1.36674e-09 -1.37304e-11 1.59475e-09 0.974793)
(1.05004 -0.0120576 -1.59192e-10 -0.00141201 0.975077 -3.68292e-10 -2.79137e-11 8.07136e-09 0.974822)
(1.05006 -0.013503 -7.10259e-10 -0.00165537 0.975202 -1.50324e-09 -2.04868e-11 1.17426e-09 0.974881)
(1.05009 -0.0145684 -2.4952e-10 -0.00189771 0.975383 -6.05386e-10 -1.09412e-12 -8.31827e-09 0.974924)
(1.05011 -0.0152296 5.06965e-10 -0.00212866 0.975577 7.74269e-10 -1.3043e-11 -1.40285e-09 0.975)
(1.05013 -0.015311 -7.24238e-11 -0.00235892 0.975836 -1.69376e-10 -4.73538e-11 8.00096e-09 0.975063)
(1.05015 -0.0147307 -7.75447e-10 -0.00257279 0.976149 -8.68454e-10 -3.04922e-11 -1.70576e-09 0.97516)
(1.05016 -0.0131412 1.95471e-10 -0.0027865 0.97653 1.90968e-10 3.03633e-12 -8.12017e-09 0.975253)
(1.05017 -0.0107221 7.00724e-10 -0.00297641 0.977076 5.75556e-10 -2.4037e-11 1.4059e-09 0.975381)
(1.05017 -0.00723455 -4.9796e-11 -0.00317066 0.977718 -5.62144e-11 -6.29379e-11 7.83988e-09 0.975526)
(1.05018 -0.00299389 -5.60599e-10 -0.00333615 0.97854 -6.54025e-10 -5.39827e-11 1.23111e-09 0.975706)
(1.05018 0.000558135 -2.94855e-10 -0.00354006 0.978998 -1.60233e-10 -1.94258e-11 -2.48824e-09 0.975916)
(1.04998 -0.00189987 -6.24764e-11 -0.00017296 0.9747 -2.09565e-09 -1.55776e-12 -8.52353e-10 0.974718)
(1.05006 -0.0036096 -1.99378e-10 -0.000402714 0.974707 -6.41836e-11 -4.43242e-12 5.92148e-10 0.974672)
(1.05007 -0.00610956 -9.92205e-11 -0.000654421 0.974752 -8.66098e-10 -5.86074e-12 -5.87958e-10 0.974701)
(1.05008 -0.00825183 1.53743e-10 -0.000908596 0.974836 2.78233e-10 -4.54581e-12 -4.18581e-09 0.974717)
(1.05009 -0.010302 3.84207e-10 -0.00115965 0.974916 1.36857e-09 -1.37632e-11 1.59678e-09 0.974761)
(1.05012 -0.0120718 -1.59376e-10 -0.00140981 0.975045 -3.6873e-10 -2.79662e-11 8.0817e-09 0.97479)
(1.05013 -0.0135198 -7.10289e-10 -0.00165286 0.97517 -1.50522e-09 -2.05304e-11 1.17575e-09 0.974849)
(1.05016 -0.014586 -2.50208e-10 -0.00189495 0.975351 -6.06095e-10 -1.1147e-12 -8.32901e-09 0.974892)
(1.05018 -0.0152483 5.06072e-10 -0.00212557 0.975545 7.75492e-10 -1.30783e-11 -1.40468e-09 0.974967)
(1.0502 -0.0153303 -7.25391e-11 -0.00235583 0.975804 -1.69559e-10 -4.74409e-11 8.01128e-09 0.97503)
(1.05022 -0.0147485 -7.75332e-10 -0.00256939 0.976117 -8.69519e-10 -3.05648e-11 -1.70799e-09 0.975128)
(1.05023 -0.0131575 1.96017e-10 -0.00278257 0.976498 1.91211e-10 3.01901e-12 -8.13074e-09 0.975221)
(1.05024 -0.010737 7.00579e-10 -0.00297239 0.977045 5.76461e-10 -2.40839e-11 1.40772e-09 0.975349)
(1.05024 -0.00724811 -4.97831e-11 -0.00316595 0.977687 -5.6284e-11 -6.30524e-11 7.85014e-09 0.975494)
(1.05025 -0.00300308 -5.61028e-10 -0.00333152 0.97851 -6.54877e-10 -5.41018e-11 1.23271e-09 0.975674)
(1.05025 0.000551226 -2.95008e-10 -0.00353569 0.978968 -1.60478e-10 -1.94769e-11 -2.49156e-09 0.975884)
(1.05005 -0.00190259 -6.25598e-11 -0.00017267 0.974668 -2.09813e-09 -1.56175e-12 -8.53446e-10 0.974686)
(1.05013 -0.00361403 -1.99581e-10 -0.000402274 0.974675 -6.42059e-11 -4.44318e-12 5.929e-10 0.974639)
(1.05014 -0.00611763 -9.92261e-11 -0.000653679 0.974719 -8.67189e-10 -5.87476e-12 -5.88741e-10 0.974669)
(1.05015 -0.00826197 1.53891e-10 -0.000907709 0.974803 2.78648e-10 -4.56134e-12 -4.19122e-09 0.974684)
(1.05017 -0.0103148 3.84248e-10 -0.00115838 0.974884 1.37038e-09 -1.37962e-11 1.59881e-09 0.974728)
(1.05019 -0.0120861 -1.59561e-10 -0.00140806 0.975012 -3.69175e-10 -2.8019e-11 8.09213e-09 0.974757)
(1.05021 -0.0135367 -7.10272e-10 -0.00165075 0.975138 -1.50723e-09 -2.0574e-11 1.17725e-09 0.974816)
(1.05023 -0.0146036 -2.50929e-10 -0.0018924 0.975318 -6.06797e-10 -1.13492e-12 -8.33985e-09 0.974859)
(1.05025 -0.0152669 5.05094e-10 -0.00212269 0.975513 7.76773e-10 -1.31135e-11 -1.40653e-09 0.974935)
(1.05027 -0.0153499 -7.26505e-11 -0.00235237 0.975772 -1.69741e-10 -4.75296e-11 8.0217e-09 0.974998)
(1.05029 -0.0147665 -7.75421e-10 -0.00256557 0.976084 -8.7067e-10 -3.06372e-11 -1.71026e-09 0.975095)
(1.05031 -0.0131732 1.9658e-10 -0.0027791 0.976466 1.91465e-10 3.00245e-12 -8.14143e-09 0.975189)
(1.05031 -0.0107511 7.00443e-10 -0.00296892 0.977013 5.77321e-10 -2.4131e-11 1.40955e-09 0.975317)
(1.05032 -0.00726005 -4.97701e-11 -0.00316279 0.977656 -5.63559e-11 -6.31674e-11 7.86052e-09 0.975461)
(1.05031 -0.0030106 -5.61251e-10 -0.0033286 0.97848 -6.5575e-10 -5.42212e-11 1.23433e-09 0.975641)
(1.05032 0.000545467 -2.95163e-10 -0.0035327 0.978939 -1.60722e-10 -1.95279e-11 -2.4949e-09 0.975852)
(1.05012 -0.00190531 -6.26542e-11 -0.000172479 0.974636 -2.10063e-09 -1.56575e-12 -8.54551e-10 0.974653)
(1.0502 -0.00361843 -1.99772e-10 -0.000401696 0.974642 -6.42323e-11 -4.45401e-12 5.93657e-10 0.974606)
(1.05021 -0.00612573 -9.92316e-11 -0.000652762 0.974686 -8.68288e-10 -5.88879e-12 -5.8953e-10 0.974636)
(1.05023 -0.00827263 1.54054e-10 -0.000906177 0.974771 2.7907e-10 -4.57646e-12 -4.19668e-09 0.974652)
(1.05024 -0.0103281 3.84417e-10 -0.00115657 0.974851 1.37223e-09 -1.38296e-11 1.60087e-09 0.974695)
(1.05026 -0.0121004 -1.59745e-10 -0.00140624 0.974979 -3.69626e-10 -2.80726e-11 8.10268e-09 0.974724)
(1.05028 -0.0135536 -7.10253e-10 -0.00164873 0.975105 -1.50923e-09 -2.06177e-11 1.17878e-09 0.974783)
(1.05031 -0.0146213 -2.5165e-10 -0.00189017 0.975285 -6.07536e-10 -1.15428e-12 -8.35082e-09 0.974826)
(1.05032 -0.0152854 5.04199e-10 -0.00212041 0.97548 7.77922e-10 -1.31488e-11 -1.4084e-09 0.974902)
(1.05035 -0.0153692 -7.27629e-11 -0.0023499 0.975739 -1.69934e-10 -4.76187e-11 8.03227e-09 0.974965)
(1.05036 -0.0147843 -7.7543e-10 -0.00256338 0.976052 -8.72008e-10 -3.07098e-11 -1.71255e-09 0.975062)
(1.05038 -0.0131888 1.9717e-10 -0.00277735 0.976434 1.91667e-10 2.98585e-12 -8.15222e-09 0.975156)
(1.05038 -0.0107647 7.00324e-10 -0.00296751 0.976982 5.783e-10 -2.4178e-11 1.4114e-09 0.975284)
(1.05039 -0.00727083 -4.97567e-11 -0.00316207 0.977626 -5.64243e-11 -6.32815e-11 7.87094e-09 0.975429)
(1.05038 -0.00301639 -5.61427e-10 -0.00332803 0.97845 -6.5651e-10 -5.43407e-11 1.23595e-09 0.975609)
(1.05038 0.0005415 -2.95313e-10 -0.00353172 0.978909 -1.6098e-10 -1.9579e-11 -2.49825e-09 0.97582)
(1.0502 -0.00190804 -6.2711e-11 -0.000172239 0.974603 -2.10315e-09 -1.56975e-12 -8.55665e-10 0.97462)
(1.05028 -0.00362298 -1.99979e-10 -0.00040131 0.974608 -6.42521e-11 -4.46488e-12 5.94425e-10 0.974573)
(1.05028 -0.00613399 -9.92407e-11 -0.000652185 0.974653 -8.69378e-10 -5.90273e-12 -5.90331e-10 0.974602)
(1.0503 -0.00828327 1.54218e-10 -0.000905341 0.974737 2.79482e-10 -4.59158e-12 -4.20224e-09 0.974618)
(1.05031 -0.0103416 3.84538e-10 -0.00115568 0.974818 1.37413e-09 -1.38631e-11 1.60295e-09 0.974662)
(1.05033 -0.012115 -1.59934e-10 -0.00140539 0.974946 -3.70072e-10 -2.8126e-11 8.11333e-09 0.974691)
(1.05035 -0.0135708 -7.10247e-10 -0.00164789 0.975072 -1.51127e-09 -2.06613e-11 1.18031e-09 0.97475)
(1.05038 -0.014639 -2.52394e-10 -0.00188958 0.975252 -6.08263e-10 -1.1742e-12 -8.36186e-09 0.974793)
(1.0504 -0.0153039 5.03227e-10 -0.0021199 0.975447 7.79154e-10 -1.31843e-11 -1.41028e-09 0.974869)
(1.05042 -0.0153875 -7.28844e-11 -0.00235 0.975707 -1.70122e-10 -4.77065e-11 8.04285e-09 0.974932)
(1.05044 -0.0148005 -7.75169e-10 -0.00256369 0.976021 -8.73195e-10 -3.07827e-11 -1.71484e-09 0.97503)
(1.05045 -0.0132034 1.97742e-10 -0.00277732 0.976402 1.91905e-10 2.96885e-12 -8.16301e-09 0.975123)
(1.05045 -0.0107775 7.00188e-10 -0.00296746 0.976951 5.7923e-10 -2.42248e-11 1.41324e-09 0.975251)
(1.05046 -0.00728143 -4.97398e-11 -0.00316172 0.977596 -5.64919e-11 -6.33961e-11 7.88135e-09 0.975396)
(1.05045 -0.00302231 -5.61708e-10 -0.00332735 0.97842 -6.57226e-10 -5.44604e-11 1.23758e-09 0.975577)
(1.05045 0.000537727 -2.95456e-10 -0.00353087 0.978879 -1.61235e-10 -1.96301e-11 -2.50161e-09 0.975787)
(1.05027 -0.00191084 -6.28097e-11 -0.000172075 0.974569 -2.10572e-09 -1.57374e-12 -8.56795e-10 0.974586)
(1.05035 -0.00362751 -2.00178e-10 -0.000401369 0.974575 -6.4273e-11 -4.47571e-12 5.95193e-10 0.97454)
(1.05036 -0.00614225 -9.92448e-11 -0.000652255 0.97462 -8.70486e-10 -5.91664e-12 -5.91132e-10 0.974569)
(1.05037 -0.00829331 1.54352e-10 -0.000905754 0.974704 2.799e-10 -4.60708e-12 -4.20778e-09 0.974585)
(1.05039 -0.0103542 3.84476e-10 -0.00115606 0.974784 1.37601e-09 -1.38963e-11 1.60504e-09 0.974629)
(1.05041 -0.0121294 -1.60121e-10 -0.00140546 0.974913 -3.70522e-10 -2.81791e-11 8.12397e-09 0.974657)
(1.05042 -0.0135878 -7.10229e-10 -0.00164798 0.975039 -1.51332e-09 -2.07048e-11 1.18185e-09 0.974716)
(1.05045 -0.0146565 -2.5313e-10 -0.00188965 0.975219 -6.08976e-10 -1.19436e-12 -8.37289e-09 0.97476)
(1.05047 -0.0153221 5.02284e-10 -0.00211998 0.975415 7.80494e-10 -1.32197e-11 -1.41216e-09 0.974835)
(1.05049 -0.0154063 -7.29984e-11 -0.00235015 0.975675 -1.70304e-10 -4.77948e-11 8.05341e-09 0.974899)
(1.05051 -0.0148172 -7.75166e-10 -0.00256361 0.975988 -8.74326e-10 -3.08555e-11 -1.71713e-09 0.974997)
(1.05052 -0.0132177 1.9833e-10 -0.00277718 0.97637 1.92148e-10 2.95227e-12 -8.17379e-09 0.97509)
(1.05053 -0.0107898 7.00018e-10 -0.00296709 0.976919 5.80137e-10 -2.42717e-11 1.41509e-09 0.975218)
(1.05053 -0.00729151 -4.97227e-11 -0.00316106 0.977565 -5.65612e-11 -6.35114e-11 7.89178e-09 0.975363)
(1.05053 -0.00302768 -5.61938e-10 -0.00332648 0.978389 -6.58033e-10 -5.45804e-11 1.2392e-09 0.975544)
(1.05052 0.000534172 -2.95572e-10 -0.00353 0.978849 -1.61487e-10 -1.96811e-11 -2.50497e-09 0.975755)
(1.05034 -0.00191362 -6.28378e-11 -0.000172092 0.974536 -2.10828e-09 -1.57774e-12 -8.57926e-10 0.974553)
(1.05042 -0.00363207 -2.00383e-10 -0.000401411 0.974542 -6.42965e-11 -4.48658e-12 5.9596e-10 0.974506)
(1.05043 -0.00615058 -9.9267e-11 -0.000652317 0.974587 -8.71605e-10 -5.93058e-12 -5.91932e-10 0.974535)
(1.05044 -0.00830399 1.54514e-10 -0.000905838 0.974671 2.80323e-10 -4.62227e-12 -4.2133e-09 0.974552)
(1.05046 -0.0103676 3.84596e-10 -0.00115614 0.974751 1.37785e-09 -1.39297e-11 1.60711e-09 0.974595)
(1.05048 -0.0121438 -1.60309e-10 -0.00140564 0.97488 -3.70975e-10 -2.82326e-11 8.13461e-09 0.974624)
(1.0505 -0.0136047 -7.1018e-10 -0.00164816 0.975006 -1.51535e-09 -2.07485e-11 1.18338e-09 0.974683)
(1.05052 -0.0146739 -2.53894e-10 -0.00188984 0.975187 -6.09704e-10 -1.21396e-12 -8.38392e-09 0.974726)
(1.05054 -0.0153401 5.01278e-10 -0.00212015 0.975382 7.81751e-10 -1.3255e-11 -1.41403e-09 0.974802)
(1.05056 -0.0154246 -7.31152e-11 -0.00235013 0.975642 -1.70489e-10 -4.78837e-11 8.06399e-09 0.974866)
(1.05058 -0.0148336 -7.75053e-10 -0.00256349 0.975956 -8.75588e-10 -3.09282e-11 -1.71942e-09 0.974964)
(1.05059 -0.0132318 1.98943e-10 -0.0027772 0.976338 1.92367e-10 2.93564e-12 -8.18459e-09 0.975057)
(1.0506 -0.0108017 6.99831e-10 -0.00296706 0.976888 5.81066e-10 -2.43187e-11 1.41694e-09 0.975185)
(1.0506 -0.00730114 -4.97043e-11 -0.00316106 0.977534 -5.66303e-11 -6.36264e-11 7.90222e-09 0.975331)
(1.0506 -0.00303237 -5.62181e-10 -0.00332651 0.978359 -6.58811e-10 -5.47004e-11 1.24083e-09 0.975512)
(1.05059 0.000531389 -2.9568e-10 -0.00352997 0.978819 -1.61741e-10 -1.97323e-11 -2.50834e-09 0.975723)
(1.05041 -0.00191641 -6.29388e-11 -0.000172111 0.974502 -2.11084e-09 -1.58174e-12 -8.59055e-10 0.97452)
(1.05049 -0.00363655 -2.00582e-10 -0.000401521 0.974508 -6.43179e-11 -4.49747e-12 5.96727e-10 0.974473)
(1.0505 -0.00615879 -9.92675e-11 -0.000652488 0.974553 -8.7271e-10 -5.94458e-12 -5.92732e-10 0.974502)
(1.05052 -0.00831454 1.5467e-10 -0.000905941 0.974638 2.80742e-10 -4.63751e-12 -4.21883e-09 0.974518)
(1.05053 -0.0103809 3.84676e-10 -0.00115633 0.974718 1.37975e-09 -1.39633e-11 1.60919e-09 0.974562)
(1.05055 -0.0121582 -1.60496e-10 -0.00140603 0.974847 -3.71423e-10 -2.82861e-11 8.14524e-09 0.974591)
(1.05057 -0.0136216 -7.10105e-10 -0.00164858 0.974973 -1.5174e-09 -2.07922e-11 1.18492e-09 0.97465)
(1.0506 -0.0146913 -2.54659e-10 -0.00189031 0.975154 -6.10414e-10 -1.2339e-12 -8.39494e-09 0.974693)
(1.05061 -0.0153582 5.00249e-10 -0.00212062 0.97535 7.83029e-10 -1.32904e-11 -1.41591e-09 0.974769)
(1.05064 -0.015443 -7.32312e-11 -0.00235062 0.97561 -1.70673e-10 -4.79725e-11 8.07455e-09 0.974833)
(1.05065 -0.0148497 -7.74995e-10 -0.00256408 0.975924 -8.76811e-10 -3.10011e-11 -1.72171e-09 0.974931)
(1.05067 -0.0132455 1.99544e-10 -0.00277785 0.976306 1.92588e-10 2.91878e-12 -8.19537e-09 0.975024)
(1.05067 -0.0108133 6.99654e-10 -0.00296768 0.976857 5.8199e-10 -2.43658e-11 1.41878e-09 0.975153)
(1.05067 -0.00731026 -4.96849e-11 -0.00316168 0.977504 -5.66994e-11 -6.37415e-11 7.91265e-09 0.975298)
(1.05067 -0.00303664 -5.62383e-10 -0.00332703 0.978329 -6.59587e-10 -5.48205e-11 1.24246e-09 0.975479)
(1.05067 0.000528951 -2.95791e-10 -0.0035304 0.978788 -1.61996e-10 -1.97835e-11 -2.51171e-09 0.97569)
(1.05049 -0.00191918 -6.30078e-11 -0.00017216 0.974469 -2.1134e-09 -1.58576e-12 -8.60185e-10 0.974486)
(1.05057 -0.00364116 -2.00795e-10 -0.000401731 0.974475 -6.43416e-11 -4.50837e-12 5.9749e-10 0.97444)
(1.05057 -0.00616718 -9.92793e-11 -0.000652822 0.97452 -8.73813e-10 -5.95862e-12 -5.93528e-10 0.974469)
(1.05059 -0.00832516 1.54829e-10 -0.000906433 0.974605 2.81159e-10 -4.65289e-12 -4.22434e-09 0.974485)
(1.0506 -0.0103943 3.84749e-10 -0.00115699 0.974685 1.38161e-09 -1.39968e-11 1.61126e-09 0.974529)
(1.05062 -0.0121727 -1.60687e-10 -0.00140678 0.974814 -3.71871e-10 -2.83396e-11 8.15583e-09 0.974558)
(1.05064 -0.0136387 -7.10033e-10 -0.0016494 0.97494 -1.51944e-09 -2.0836e-11 1.18644e-09 0.974617)
(1.05067 -0.0147087 -2.5544e-10 -0.00189122 0.975121 -6.11134e-10 -1.25405e-12 -8.40593e-09 0.97466)
(1.05069 -0.0153762 4.99217e-10 -0.00212158 0.975317 7.84293e-10 -1.33259e-11 -1.41778e-09 0.974736)
(1.05071 -0.0154612 -7.33473e-11 -0.00235168 0.975578 -1.70858e-10 -4.80612e-11 8.08509e-09 0.9748)
(1.05072 -0.0148658 -7.74838e-10 -0.00256519 0.975892 -8.78048e-10 -3.10742e-11 -1.72399e-09 0.974898)
(1.05074 -0.0132591 2.00174e-10 -0.00277896 0.976274 1.92797e-10 2.90181e-12 -8.20613e-09 0.974991)
(1.05074 -0.0108246 6.99462e-10 -0.00296883 0.976825 5.82925e-10 -2.44129e-11 1.42063e-09 0.97512)
(1.05074 -0.00731914 -4.96663e-11 -0.00316271 0.977473 -5.6768e-11 -6.38566e-11 7.92306e-09 0.975266)
(1.05074 -0.00304045 -5.62615e-10 -0.00332802 0.978298 -6.60363e-10 -5.49407e-11 1.24408e-09 0.975447)
(1.05074 0.000527045 -2.95887e-10 -0.00353127 0.978758 -1.62249e-10 -1.98348e-11 -2.51507e-09 0.975658)
(1.05056 -0.00192199 -6.30654e-11 -0.000172249 0.974436 -2.11594e-09 -1.58978e-12 -8.61308e-10 0.974453)
(1.05064 -0.00364578 -2.01006e-10 -0.000401998 0.974442 -6.43633e-11 -4.51927e-12 5.98251e-10 0.974407)
(1.05064 -0.00617553 -9.92989e-11 -0.000653246 0.974487 -8.74913e-10 -5.9727e-12 -5.94322e-10 0.974436)
(1.05066 -0.0083358 1.5499e-10 -0.000907083 0.974572 2.81574e-10 -4.66833e-12 -4.22983e-09 0.974452)
(1.05067 -0.0104078 3.84827e-10 -0.00115782 0.974652 1.38347e-09 -1.40303e-11 1.61332e-09 0.974496)
(1.05069 -0.0121873 -1.60881e-10 -0.00140778 0.974781 -3.72316e-10 -2.83931e-11 8.16637e-09 0.974525)
(1.05071 -0.0136558 -7.09944e-10 -0.00165054 0.974907 -1.52148e-09 -2.08799e-11 1.18796e-09 0.974584)
(1.05074 -0.0147262 -2.56235e-10 -0.00189258 0.975088 -6.11836e-10 -1.27423e-12 -8.41686e-09 0.974627)
(1.05076 -0.0153942 4.9814e-10 -0.002123 0.975285 7.85587e-10 -1.33615e-11 -1.41964e-09 0.974703)
(1.05078 -0.0154794 -7.34691e-11 -0.00235327 0.975546 -1.71041e-10 -4.81498e-11 8.09558e-09 0.974767)
(1.0508 -0.0148816 -7.74665e-10 -0.00256674 0.97586 -8.79252e-10 -3.11473e-11 -1.72627e-09 0.974865)
(1.05081 -0.0132726 2.00798e-10 -0.00278051 0.976242 1.93023e-10 2.88457e-12 -8.21685e-09 0.974959)
(1.05081 -0.0108358 6.9927e-10 -0.00297033 0.976794 5.83806e-10 -2.44601e-11 1.42246e-09 0.975087)
(1.05081 -0.00732777 -4.9646e-11 -0.00316411 0.977442 -5.68376e-11 -6.39716e-11 7.93344e-09 0.975233)
(1.05081 -0.00304408 -5.62809e-10 -0.00332929 0.978267 -6.61118e-10 -5.50609e-11 1.2457e-09 0.975414)
(1.05081 0.000525273 -2.9599e-10 -0.00353232 0.978727 -1.62504e-10 -1.98862e-11 -2.51842e-09 0.975626)
(1.05063 -0.0019248 -6.31727e-11 -0.000172363 0.974403 -2.11848e-09 -1.5938e-12 -8.62428e-10 0.97442)
(1.05071 -0.00365043 -2.01212e-10 -0.000402392 0.974409 -6.43874e-11 -4.53017e-12 5.99006e-10 0.974374)
(1.05071 -0.00618394 -9.93242e-11 -0.000653848 0.974455 -8.76011e-10 -5.98683e-12 -5.9511e-10 0.974403)
(1.05073 -0.00834646 1.5515e-10 -0.000907966 0.974539 2.81988e-10 -4.6839e-12 -4.23527e-09 0.974419)
(1.05074 -0.0104215 3.84869e-10 -0.00115889 0.974619 1.38531e-09 -1.40636e-11 1.61537e-09 0.974463)
(1.05077 -0.012202 -1.61076e-10 -0.00140906 0.974748 -3.72759e-10 -2.84464e-11 8.17684e-09 0.974492)
(1.05078 -0.0136731 -7.09841e-10 -0.00165195 0.974875 -1.52352e-09 -2.09239e-11 1.18948e-09 0.974551)
(1.05081 -0.0147439 -2.57041e-10 -0.00189419 0.975056 -6.1253e-10 -1.29466e-12 -8.42772e-09 0.974595)
(1.05083 -0.0154123 4.97067e-10 -0.00212469 0.975253 7.86896e-10 -1.33971e-11 -1.4215e-09 0.974671)
(1.05085 -0.0154977 -7.35893e-11 -0.00235507 0.975514 -1.71222e-10 -4.82385e-11 8.10601e-09 0.974734)
(1.05087 -0.0148977 -7.74515e-10 -0.00256855 0.975828 -8.80501e-10 -3.12205e-11 -1.72853e-09 0.974833)
(1.05088 -0.0132862 2.01435e-10 -0.00278241 0.97621 1.93229e-10 2.86723e-12 -8.22752e-09 0.974926)
(1.05088 -0.010847 6.99073e-10 -0.00297217 0.976762 5.84729e-10 -2.45074e-11 1.42429e-09 0.975055)
(1.05089 -0.00733619 -4.96267e-11 -0.00316601 0.977411 -5.69064e-11 -6.40866e-11 7.94379e-09 0.975201)
(1.05088 -0.00304726 -5.62983e-10 -0.00333106 0.978236 -6.6187e-10 -5.51813e-11 1.24732e-09 0.975382)
(1.05088 0.000523835 -2.96083e-10 -0.00353367 0.978697 -1.62766e-10 -1.99378e-11 -2.52176e-09 0.975594)
(1.0507 -0.00192761 -6.32408e-11 -0.000172531 0.97437 -2.12099e-09 -1.59784e-12 -8.6354e-10 0.974387)
(1.05078 -0.00365514 -2.01433e-10 -0.000402856 0.974376 -6.44126e-11 -4.54108e-12 5.99755e-10 0.974341)
(1.05078 -0.00619224 -9.93654e-11 -0.000654694 0.974422 -8.77103e-10 -6.00103e-12 -5.95892e-10 0.97437)
(1.0508 -0.00835729 1.55335e-10 -0.000908885 0.974507 2.82401e-10 -4.69948e-12 -4.24067e-09 0.974387)
(1.05081 -0.0104356 3.84976e-10 -0.00115988 0.974587 1.38715e-09 -1.4097e-11 1.6174e-09 0.974431)
(1.05084 -0.012217 -1.61275e-10 -0.00141053 0.974715 -3.73198e-10 -2.84997e-11 8.18723e-09 0.97446)
(1.05085 -0.0136906 -7.09709e-10 -0.0016535 0.974843 -1.52556e-09 -2.09679e-11 1.19098e-09 0.974519)
(1.05088 -0.0147617 -2.57875e-10 -0.00189612 0.975024 -6.1321e-10 -1.3156e-12 -8.43851e-09 0.974562)
(1.0509 -0.0154306 4.95936e-10 -0.00212671 0.975221 7.88194e-10 -1.34328e-11 -1.42334e-09 0.974638)
(1.05092 -0.0155161 -7.37129e-11 -0.00235735 0.975482 -1.71402e-10 -4.83268e-11 8.11637e-09 0.974702)
(1.05094 -0.0149136 -7.743e-10 -0.00257088 0.975796 -8.81739e-10 -3.12939e-11 -1.73078e-09 0.9748)
(1.05095 -0.0132998 2.02075e-10 -0.00278472 0.976179 1.93436e-10 2.84937e-12 -8.23813e-09 0.974894)
(1.05096 -0.0108582 6.98868e-10 -0.00297441 0.976731 5.85642e-10 -2.45547e-11 1.42611e-09 0.975023)
(1.05096 -0.00734483 -4.96062e-11 -0.00316806 0.97738 -5.69751e-11 -6.42015e-11 7.95408e-09 0.975169)
(1.05095 -0.00305059 -5.63227e-10 -0.00333298 0.978205 -6.62551e-10 -5.53018e-11 1.24892e-09 0.97535)
(1.05095 0.000522523 -2.96177e-10 -0.00353521 0.978665 -1.63041e-10 -1.99896e-11 -2.52508e-09 0.975562)