/*--------------------------------*- C++ -*----------------------------------*\
| =========                 |                                                 |
| \\      /  F ield         | foam-extend: Open Source CFD                    |
|  \\    /   O peration     | Version:     4.1-20200408                       |
|   \\  /    A nd           | Web:         http://www.foam-extend.org         |
|    \\/     M anipulation  |                                                 |
\*---------------------------------------------------------------------------*/
FoamFile
{
    version     2.0;
    format      ascii;
    class       pointVectorField;
    location    "0.0535000";
    object      pointDU;
}
// * * * * * * * * * * * * * * * * * * * * * * * * * * * * * * * * * * * * * //

dimensions      [0 1 0 0 0 0 0];

internalField   nonuniform List<vector> 
4059
(
(0 9.94366e-18 -2.59583e-16)
(0 -1.65474e-14 7.06789e-16)
(0 -2.93378e-08 1.28092e-09)
(0 9.97783e-18 -2.60448e-16)
(0 -1.65474e-14 -9.82231e-16)
(0 -2.93378e-08 -1.28092e-09)
(0 1.60312e-14 -7.15625e-16)
(0 5.97344e-15 -2.76492e-16)
(0 3.38618e-15 -1.6353e-16)
(0 1.99354e-15 -1.02726e-16)
(0 1.08887e-15 -6.32275e-17)
(0 3.73384e-16 -3.19889e-17)
(0 -1.93976e-16 -7.21653e-18)
(0 -6.49795e-16 1.26855e-17)
(0 -1.04976e-15 3.01467e-17)
(0 -1.27528e-15 3.99931e-17)
(0 -1.4979e-15 4.97146e-17)
(0 -1.43962e-15 4.71696e-17)
(0 -1.44064e-15 4.72129e-17)
(0 -1.06444e-15 3.07879e-17)
(0 -9.80395e-16 2.71191e-17)
(0 -2.75532e-08 1.203e-09)
(0 -2.57773e-08 1.12546e-09)
(0 -2.39875e-08 1.04732e-09)
(0 -2.21869e-08 9.68699e-10)
(0 -2.03681e-08 8.89288e-10)
(0 -1.8543e-08 8.09604e-10)
(0 -1.67347e-08 7.30653e-10)
(0 -1.49053e-08 6.50781e-10)
(0 -1.30646e-08 5.70413e-10)
(0 -1.1213e-08 4.89569e-10)
(0 -9.35518e-09 4.08456e-10)
(0 -7.50275e-09 3.27577e-10)
(0 -5.64084e-09 2.46284e-10)
(0 -3.76505e-09 1.64386e-10)
(0 -1.8848e-09 8.22922e-11)
(0 1.60312e-14 4.40186e-16)
(0 5.97344e-15 1.05166e-18)
(0 3.38618e-15 -1.11911e-16)
(0 1.99354e-15 -1.72714e-16)
(0 1.08887e-15 -2.12214e-16)
(0 3.73384e-16 -2.43453e-16)
(0 -1.93976e-16 -2.68224e-16)
(0 -6.49795e-16 -2.88125e-16)
(0 -1.04976e-15 -3.05589e-16)
(0 -1.27528e-15 -3.15436e-16)
(0 -1.4979e-15 -3.25154e-16)
(0 -1.43962e-15 -3.2261e-16)
(0 -1.44064e-15 -3.22655e-16)
(0 -1.06444e-15 -3.0623e-16)
(0 -9.80395e-16 -3.0256e-16)
(0 -2.75532e-08 -1.203e-09)
(0 -2.57773e-08 -1.12546e-09)
(0 -2.39875e-08 -1.04732e-09)
(0 -2.21869e-08 -9.68702e-10)
(0 -2.03681e-08 -8.89291e-10)
(0 -1.8543e-08 -8.09607e-10)
(0 -1.67347e-08 -7.30655e-10)
(0 -1.49053e-08 -6.50783e-10)
(0 -1.30646e-08 -5.70415e-10)
(0 -1.1213e-08 -4.89571e-10)
(0 -9.35518e-09 -4.08457e-10)
(0 -7.50275e-09 -3.27578e-10)
(0 -5.64084e-09 -2.46285e-10)
(0 -3.76505e-09 -1.64386e-10)
(0 -1.8848e-09 -8.22927e-11)
(4.99999e-05 -7.0037e-10 3.05788e-11)
(4.99999e-05 -7.0037e-10 -3.05792e-11)
(4.99998e-05 -3.54676e-10 -1.54858e-11)
(4.99998e-05 -3.54676e-10 1.54854e-11)
(5e-05 -1.0455e-09 4.56474e-11)
(5e-05 -1.0455e-09 -4.56479e-11)
(5.00001e-05 -1.3717e-09 5.98897e-11)
(5.00001e-05 -1.3717e-09 -5.98901e-11)
(5.00002e-05 -1.68603e-09 7.36136e-11)
(5.00002e-05 -1.68603e-09 -7.36141e-11)
(5.00004e-05 -1.96726e-09 8.58924e-11)
(5.00004e-05 -1.96726e-09 -8.58929e-11)
(5.00007e-05 -2.22363e-09 9.70856e-11)
(5.00007e-05 -2.22363e-09 -9.70862e-11)
(5.0001e-05 -2.43891e-09 1.06485e-10)
(5.0001e-05 -2.43891e-09 -1.06486e-10)
(5.00014e-05 -2.61786e-09 1.14298e-10)
(5.00014e-05 -2.61786e-09 -1.14299e-10)
(5.00019e-05 -2.74243e-09 1.19737e-10)
(5.00019e-05 -2.74243e-09 -1.19738e-10)
(5.00025e-05 -2.81353e-09 1.22841e-10)
(5.00025e-05 -2.81353e-09 -1.22842e-10)
(5.00032e-05 -2.81631e-09 1.22963e-10)
(5.00032e-05 -2.81631e-09 -1.22963e-10)
(5.00041e-05 -2.76805e-09 1.20856e-10)
(5.00041e-05 -2.76805e-09 -1.20856e-10)
(5.00052e-05 -2.66284e-09 1.16262e-10)
(5.00052e-05 -2.66284e-09 -1.16262e-10)
(5.00065e-05 -2.56499e-09 1.1199e-10)
(5.00065e-05 -2.56499e-09 -1.11991e-10)
(5.00079e-05 -2.57036e-09 1.12224e-10)
(5.00079e-05 -2.57036e-09 -1.12225e-10)
(4.99998e-05 1.06979e-17 -2.79273e-16)
(5.00001e-05 -4.80368e-10 2.09733e-11)
(5.00001e-05 -4.80368e-10 -2.09737e-11)
(5e-05 -2.42564e-10 -1.05909e-11)
(5e-05 -2.42564e-10 1.05905e-11)
(5.00002e-05 -7.10494e-10 3.10208e-11)
(5.00002e-05 -7.10494e-10 -3.10212e-11)
(5.00003e-05 -9.24033e-10 4.03441e-11)
(5.00003e-05 -9.24033e-10 -4.03445e-11)
(5.00005e-05 -1.12047e-09 4.89207e-11)
(5.00005e-05 -1.12047e-09 -4.89212e-11)
(5.00007e-05 -1.28549e-09 5.61259e-11)
(5.00007e-05 -1.28549e-09 -5.61263e-11)
(5.0001e-05 -1.42308e-09 6.2133e-11)
(5.0001e-05 -1.42308e-09 -6.21334e-11)
(5.00013e-05 -1.52093e-09 6.64053e-11)
(5.00013e-05 -1.52093e-09 -6.64057e-11)
(5.00017e-05 -1.58329e-09 6.91279e-11)
(5.00017e-05 -1.58329e-09 -6.91284e-11)
(5.00023e-05 -1.59783e-09 6.97626e-11)
(5.00023e-05 -1.59783e-09 -6.9763e-11)
(5.00029e-05 -1.56971e-09 6.85348e-11)
(5.00029e-05 -1.56971e-09 -6.85353e-11)
(5.00036e-05 -1.49381e-09 6.52211e-11)
(5.00036e-05 -1.49381e-09 -6.52216e-11)
(5.00044e-05 -1.39432e-09 6.08773e-11)
(5.00044e-05 -1.39432e-09 -6.08778e-11)
(5.00055e-05 -1.27599e-09 5.57108e-11)
(5.00055e-05 -1.27599e-09 -5.57112e-11)
(5.00066e-05 -1.19558e-09 5.22002e-11)
(5.00066e-05 -1.19558e-09 -5.22006e-11)
(5.00077e-05 -1.1911e-09 5.20044e-11)
(5.00077e-05 -1.1911e-09 -5.20048e-11)
(5e-05 1.0698e-17 -2.79274e-16)
(5.00004e-05 -2.8396e-10 1.23979e-11)
(5.00004e-05 -2.8396e-10 -1.23983e-11)
(5.00004e-05 -1.43995e-10 -6.28726e-12)
(5.00004e-05 -1.43995e-10 6.28695e-12)
(5.00005e-05 -4.14743e-10 1.81081e-11)
(5.00005e-05 -4.14743e-10 -1.81084e-11)
(5.00007e-05 -5.30151e-10 2.31469e-11)
(5.00007e-05 -5.30151e-10 -2.31472e-11)
(5.00009e-05 -6.27885e-10 2.7414e-11)
(5.00009e-05 -6.27885e-10 -2.74144e-11)
(5.00011e-05 -6.97987e-10 3.04747e-11)
(5.00011e-05 -6.97987e-10 -3.04751e-11)
(5.00014e-05 -7.42757e-10 3.24295e-11)
(5.00014e-05 -7.42757e-10 -3.24298e-11)
(5.00018e-05 -7.52941e-10 3.28741e-11)
(5.00018e-05 -7.52941e-10 -3.28745e-11)
(5.00022e-05 -7.33395e-10 3.20207e-11)
(5.00022e-05 -7.33395e-10 -3.20211e-11)
(5.00027e-05 -6.76552e-10 2.95389e-11)
(5.00027e-05 -6.76552e-10 -2.95392e-11)
(5.00033e-05 -5.91425e-10 2.58222e-11)
(5.00033e-05 -5.91425e-10 -2.58225e-11)
(5.0004e-05 -4.7793e-10 2.08669e-11)
(5.0004e-05 -4.7793e-10 -2.08672e-11)
(5.00048e-05 -3.60985e-10 1.57609e-11)
(5.00048e-05 -3.60985e-10 -1.57613e-11)
(5.00057e-05 -2.49678e-10 1.09012e-11)
(5.00057e-05 -2.49678e-10 -1.09015e-11)
(5.00066e-05 -1.93756e-10 8.45955e-12)
(5.00066e-05 -1.93756e-10 -8.45987e-12)
(5.00074e-05 -2.131e-10 9.30411e-12)
(5.00074e-05 -2.131e-10 -9.30443e-12)
(5.00003e-05 1.0698e-17 -2.79276e-16)
(5.00009e-05 -1.18338e-10 5.16672e-12)
(5.00009e-05 -1.18338e-10 -5.16703e-12)
(5.00008e-05 -6.09787e-11 -2.66267e-12)
(5.00008e-05 -6.09787e-11 2.66237e-12)
(5.0001e-05 -1.66969e-10 7.28999e-12)
(5.0001e-05 -1.66969e-10 -7.2903e-12)
(5.00012e-05 -2.01923e-10 8.81613e-12)
(5.00012e-05 -2.01923e-10 -8.81645e-12)
(5.00014e-05 -2.21061e-10 9.65172e-12)
(5.00014e-05 -2.21061e-10 -9.65204e-12)
(5.00016e-05 -2.16857e-10 9.46818e-12)
(5.00016e-05 -2.16857e-10 -9.4685e-12)
(5.00019e-05 -1.91768e-10 8.37277e-12)
(5.00019e-05 -1.91768e-10 -8.37309e-12)
(5.00023e-05 -1.39042e-10 6.07067e-12)
(5.00023e-05 -1.39042e-10 -6.07098e-12)
(5.00027e-05 -6.46145e-11 2.82111e-12)
(5.00027e-05 -6.46145e-11 -2.82141e-12)
(5.00032e-05 3.54376e-11 -1.54726e-12)
(5.00032e-05 3.54376e-11 1.54696e-12)
(5.00038e-05 1.50273e-10 -6.56108e-12)
(5.00038e-05 1.50273e-10 6.5608e-12)
(5.00044e-05 2.76935e-10 -1.20913e-11)
(5.00044e-05 2.76935e-10 1.2091e-11)
(5.00051e-05 3.93431e-10 -1.71776e-11)
(5.00051e-05 3.93431e-10 1.71773e-11)
(5.00059e-05 4.90995e-10 -2.14373e-11)
(5.00059e-05 4.90995e-10 2.14371e-11)
(5.00066e-05 5.36164e-10 -2.34094e-11)
(5.00066e-05 5.36164e-10 2.34092e-11)
(5.00073e-05 5.22873e-10 -2.28291e-11)
(5.00073e-05 5.22873e-10 2.28289e-11)
(5.00008e-05 1.06981e-17 -2.79279e-16)
(5.00015e-05 1.62181e-11 -7.08113e-13)
(5.00015e-05 1.62181e-11 7.07819e-13)
(5.00014e-05 6.5374e-12 2.8515e-13)
(5.00014e-05 6.5374e-12 -2.85446e-13)
(5.00016e-05 3.32596e-11 -1.45216e-12)
(5.00016e-05 3.32596e-11 1.45187e-12)
(5.00017e-05 6.19401e-11 -2.70438e-12)
(5.00017e-05 6.19401e-11 2.70409e-12)
(5.00019e-05 1.03311e-10 -4.51066e-12)
(5.00019e-05 1.03311e-10 4.51038e-12)
(5.00022e-05 1.6336e-10 -7.13247e-12)
(5.00022e-05 1.6336e-10 7.13219e-12)
(5.00025e-05 2.38856e-10 -1.04287e-11)
(5.00025e-05 2.38856e-10 1.04284e-11)
(5.00029e-05 3.34902e-10 -1.46222e-11)
(5.00029e-05 3.34902e-10 1.46219e-11)
(5.00033e-05 4.44644e-10 -1.94136e-11)
(5.00033e-05 4.44644e-10 1.94133e-11)
(5.00038e-05 5.699e-10 -2.48824e-11)
(5.00038e-05 5.699e-10 2.48822e-11)
(5.00043e-05 6.99523e-10 -3.05419e-11)
(5.00043e-05 6.99523e-10 3.05416e-11)
(5.00049e-05 8.29529e-10 -3.6218e-11)
(5.00049e-05 8.29529e-10 3.62178e-11)
(5.00055e-05 9.41879e-10 -4.11233e-11)
(5.00055e-05 9.41879e-10 4.11231e-11)
(5.00061e-05 1.02914e-09 -4.49332e-11)
(5.00061e-05 1.02914e-09 4.4933e-11)
(5.00067e-05 1.06859e-09 -4.66559e-11)
(5.00067e-05 1.06859e-09 4.66557e-11)
(5.00072e-05 1.05963e-09 -4.62642e-11)
(5.00072e-05 1.05963e-09 4.62641e-11)
(5.00014e-05 1.06982e-17 -2.79282e-16)
(5.00021e-05 1.21052e-10 -5.28527e-12)
(5.00021e-05 1.21052e-10 5.28499e-12)
(5.0002e-05 5.92337e-11 2.58592e-12)
(5.0002e-05 5.92337e-11 -2.58621e-12)
(5.00022e-05 1.88545e-10 -8.23205e-12)
(5.00022e-05 1.88545e-10 8.23177e-12)
(5.00023e-05 2.65444e-10 -1.15895e-11)
(5.00023e-05 2.65444e-10 1.15893e-11)
(5.00026e-05 3.51533e-10 -1.53483e-11)
(5.00026e-05 3.51533e-10 1.5348e-11)
(5.00028e-05 4.51873e-10 -1.97292e-11)
(5.00028e-05 4.51873e-10 1.9729e-11)
(5.00031e-05 5.62213e-10 -2.45468e-11)
(5.00031e-05 5.62213e-10 2.45465e-11)
(5.00035e-05 6.86636e-10 -2.99792e-11)
(5.00035e-05 6.86636e-10 2.9979e-11)
(5.00039e-05 8.17649e-10 -3.56993e-11)
(5.00039e-05 8.17649e-10 3.56991e-11)
(5.00043e-05 9.56009e-10 -4.17403e-11)
(5.00043e-05 9.56009e-10 4.17401e-11)
(5.00048e-05 1.09124e-09 -4.76444e-11)
(5.00048e-05 1.09124e-09 4.76442e-11)
(5.00053e-05 1.21936e-09 -5.32385e-11)
(5.00053e-05 1.21936e-09 5.32384e-11)
(5.00059e-05 1.32665e-09 -5.79229e-11)
(5.00059e-05 1.32665e-09 5.79228e-11)
(5.00064e-05 1.40746e-09 -6.14509e-11)
(5.00064e-05 1.40746e-09 6.14508e-11)
(5.00068e-05 1.44807e-09 -6.32241e-11)
(5.00068e-05 1.44807e-09 6.32239e-11)
(5.00072e-05 1.45034e-09 -6.33233e-11)
(5.00072e-05 1.45034e-09 6.33231e-11)
(5.0002e-05 1.06984e-17 -2.79285e-16)
(5.00027e-05 1.98769e-10 -8.67847e-12)
(5.00027e-05 1.98769e-10 8.6782e-12)
(5.00027e-05 9.8377e-11 4.29496e-12)
(5.00027e-05 9.8377e-11 -4.29525e-12)
(5.00029e-05 3.03148e-10 -1.32358e-11)
(5.00029e-05 3.03148e-10 1.32355e-11)
(5.0003e-05 4.14801e-10 -1.81106e-11)
(5.0003e-05 4.14801e-10 1.81104e-11)
(5.00032e-05 5.32282e-10 -2.324e-11)
(5.00032e-05 5.32282e-10 2.32397e-11)
(5.00035e-05 6.60147e-10 -2.88226e-11)
(5.00035e-05 6.60147e-10 2.88224e-11)
(5.00038e-05 7.93183e-10 -3.46311e-11)
(5.00038e-05 7.93183e-10 3.46309e-11)
(5.00041e-05 9.35045e-10 -4.0825e-11)
(5.00041e-05 9.35045e-10 4.08248e-11)
(5.00045e-05 1.07791e-09 -4.70626e-11)
(5.00045e-05 1.07791e-09 4.70624e-11)
(5.00049e-05 1.22226e-09 -5.33652e-11)
(5.00049e-05 1.22226e-09 5.3365e-11)
(5.00053e-05 1.35875e-09 -5.93242e-11)
(5.00053e-05 1.35875e-09 5.9324e-11)
(5.00058e-05 1.48392e-09 -6.47895e-11)
(5.00058e-05 1.48392e-09 6.47894e-11)
(5.00062e-05 1.58782e-09 -6.93259e-11)
(5.00062e-05 1.58782e-09 6.93258e-11)
(5.00067e-05 1.66614e-09 -7.27452e-11)
(5.00067e-05 1.66614e-09 7.27451e-11)
(5.0007e-05 1.71135e-09 -7.47193e-11)
(5.0007e-05 1.71135e-09 7.47193e-11)
(5.00073e-05 1.72566e-09 -7.53441e-11)
(5.00073e-05 1.72566e-09 7.53441e-11)
(5.00026e-05 1.06985e-17 -2.79289e-16)
(5.00034e-05 2.52672e-10 -1.10319e-11)
(5.00034e-05 2.52672e-10 1.10316e-11)
(5.00034e-05 1.25584e-10 5.48283e-12)
(5.00034e-05 1.25584e-10 -5.48311e-12)
(5.00035e-05 3.82237e-10 -1.66888e-11)
(5.00035e-05 3.82237e-10 1.66886e-11)
(5.00037e-05 5.17246e-10 -2.25835e-11)
(5.00037e-05 5.17246e-10 2.25832e-11)
(5.00039e-05 6.55167e-10 -2.86052e-11)
(5.00039e-05 6.55167e-10 2.8605e-11)
(5.00041e-05 8.00396e-10 -3.49461e-11)
(5.00041e-05 8.00396e-10 3.49459e-11)
(5.00044e-05 9.46873e-10 -4.13414e-11)
(5.00044e-05 9.46873e-10 4.13412e-11)
(5.00047e-05 1.09827e-09 -4.79515e-11)
(5.00047e-05 1.09827e-09 4.79514e-11)
(5.00051e-05 1.24664e-09 -5.44294e-11)
(5.00051e-05 1.24664e-09 5.44293e-11)
(5.00055e-05 1.39267e-09 -6.08052e-11)
(5.00055e-05 1.39267e-09 6.08051e-11)
(5.00058e-05 1.52827e-09 -6.67255e-11)
(5.00058e-05 1.52827e-09 6.67254e-11)
(5.00062e-05 1.65067e-09 -7.20698e-11)
(5.00062e-05 1.65067e-09 7.20697e-11)
(5.00066e-05 1.75311e-09 -7.65426e-11)
(5.00066e-05 1.75311e-09 7.65425e-11)
(5.0007e-05 1.83216e-09 -7.99938e-11)
(5.0007e-05 1.83216e-09 7.99937e-11)
(5.00072e-05 1.88481e-09 -8.22927e-11)
(5.00072e-05 1.88481e-09 8.22926e-11)
(5.00075e-05 1.91262e-09 -8.35068e-11)
(5.00075e-05 1.91262e-09 8.35068e-11)
(5.00033e-05 1.06987e-17 -2.79293e-16)
(5.00041e-05 2.86223e-10 -1.24968e-11)
(5.00041e-05 2.86223e-10 1.24965e-11)
(5.0004e-05 1.42564e-10 6.22419e-12)
(5.0004e-05 1.42564e-10 -6.22447e-12)
(5.00042e-05 4.31119e-10 -1.88231e-11)
(5.00042e-05 4.31119e-10 1.88228e-11)
(5.00044e-05 5.80064e-10 -2.53261e-11)
(5.00044e-05 5.80064e-10 2.53259e-11)
(5.00046e-05 7.29582e-10 -3.18543e-11)
(5.00046e-05 7.29582e-10 3.1854e-11)
(5.00048e-05 8.84227e-10 -3.86062e-11)
(5.00048e-05 8.84227e-10 3.8606e-11)
(5.00051e-05 1.0372e-09 -4.5285e-11)
(5.00051e-05 1.0372e-09 4.52849e-11)
(5.00053e-05 1.19254e-09 -5.20676e-11)
(5.00053e-05 1.19254e-09 5.20675e-11)
(5.00057e-05 1.3423e-09 -5.86061e-11)
(5.00057e-05 1.3423e-09 5.8606e-11)
(5.0006e-05 1.48764e-09 -6.49517e-11)
(5.0006e-05 1.48764e-09 6.49516e-11)
(5.00063e-05 1.62167e-09 -7.08037e-11)
(5.00063e-05 1.62167e-09 7.08036e-11)
(5.00067e-05 1.74225e-09 -7.60684e-11)
(5.00067e-05 1.74225e-09 7.60683e-11)
(5.0007e-05 1.84519e-09 -8.05627e-11)
(5.0007e-05 1.84519e-09 8.05626e-11)
(5.00073e-05 1.92739e-09 -8.41518e-11)
(5.00073e-05 1.92739e-09 8.41518e-11)
(5.00075e-05 1.98907e-09 -8.68447e-11)
(5.00075e-05 1.98907e-09 8.68446e-11)
(5.00076e-05 2.03051e-09 -8.86541e-11)
(5.00076e-05 2.03051e-09 8.8654e-11)
(5.0004e-05 1.06988e-17 -2.79297e-16)
(5.00048e-05 3.02764e-10 -1.3219e-11)
(5.00048e-05 3.02764e-10 1.32187e-11)
(5.00047e-05 1.50976e-10 6.5915e-12)
(5.00047e-05 1.50976e-10 -6.59178e-12)
(5.00049e-05 4.54854e-10 -1.98594e-11)
(5.00049e-05 4.54854e-10 1.98591e-11)
(5.0005e-05 6.10086e-10 -2.66369e-11)
(5.0005e-05 6.10086e-10 2.66367e-11)
(5.00052e-05 7.6417e-10 -3.33644e-11)
(5.00052e-05 7.6417e-10 3.33642e-11)
(5.00054e-05 9.22093e-10 -4.02595e-11)
(5.00054e-05 9.22093e-10 4.02593e-11)
(5.00057e-05 1.07639e-09 -4.69961e-11)
(5.00057e-05 1.07639e-09 4.69959e-11)
(5.0006e-05 1.23174e-09 -5.37791e-11)
(5.0006e-05 1.23174e-09 5.3779e-11)
(5.00062e-05 1.38021e-09 -6.02613e-11)
(5.00062e-05 1.38021e-09 6.02612e-11)
(5.00065e-05 1.52357e-09 -6.65204e-11)
(5.00065e-05 1.52357e-09 6.65203e-11)
(5.00068e-05 1.65601e-09 -7.23028e-11)
(5.00068e-05 1.65601e-09 7.23027e-11)
(5.00071e-05 1.77583e-09 -7.75343e-11)
(5.00071e-05 1.77583e-09 7.75342e-11)
(5.00074e-05 1.8809e-09 -8.21219e-11)
(5.00074e-05 1.8809e-09 8.21218e-11)
(5.00076e-05 1.96806e-09 -8.59272e-11)
(5.00076e-05 1.96806e-09 8.59271e-11)
(5.00078e-05 2.03982e-09 -8.90607e-11)
(5.00078e-05 2.03982e-09 8.90606e-11)
(5.00079e-05 2.09493e-09 -9.14665e-11)
(5.00079e-05 2.09493e-09 9.14664e-11)
(5.00047e-05 1.0699e-17 -2.793e-16)
(5.00054e-05 3.05322e-10 -1.33306e-11)
(5.00054e-05 3.05322e-10 1.33304e-11)
(5.00054e-05 1.52333e-10 6.65075e-12)
(5.00054e-05 1.52333e-10 -6.65103e-12)
(5.00055e-05 4.57983e-10 -1.9996e-11)
(5.00055e-05 4.57983e-10 1.99957e-11)
(5.00057e-05 6.13374e-10 -2.67805e-11)
(5.00057e-05 6.13374e-10 2.67803e-11)
(5.00058e-05 7.66481e-10 -3.34653e-11)
(5.00058e-05 7.66481e-10 3.34651e-11)
(5.0006e-05 9.2298e-10 -4.02982e-11)
(5.0006e-05 9.2298e-10 4.0298e-11)
(5.00063e-05 1.07476e-09 -4.6925e-11)
(5.00063e-05 1.07476e-09 4.69248e-11)
(5.00065e-05 1.22736e-09 -5.35879e-11)
(5.00065e-05 1.22736e-09 5.35877e-11)
(5.00068e-05 1.37283e-09 -5.99388e-11)
(5.00068e-05 1.37283e-09 5.99387e-11)
(5.00071e-05 1.51357e-09 -6.6084e-11)
(5.00071e-05 1.51357e-09 6.60839e-11)
(5.00073e-05 1.64472e-09 -7.181e-11)
(5.00073e-05 1.64472e-09 7.18099e-11)
(5.00076e-05 1.7648e-09 -7.7053e-11)
(5.00076e-05 1.7648e-09 7.70529e-11)
(5.00078e-05 1.87335e-09 -8.17923e-11)
(5.00078e-05 1.87335e-09 8.17923e-11)
(5.0008e-05 1.96674e-09 -8.58698e-11)
(5.0008e-05 1.96674e-09 8.58697e-11)
(5.00081e-05 2.04922e-09 -8.94708e-11)
(5.00081e-05 2.04922e-09 8.94707e-11)
(5.00082e-05 2.11772e-09 -9.24617e-11)
(5.00082e-05 2.11772e-09 9.24616e-11)
(5.00053e-05 1.06991e-17 -2.79304e-16)
(5.0006e-05 2.96524e-10 -1.29465e-11)
(5.0006e-05 2.96524e-10 1.29463e-11)
(5.0006e-05 1.47951e-10 6.4594e-12)
(5.0006e-05 1.47951e-10 -6.45968e-12)
(5.00062e-05 4.4442e-10 -1.94038e-11)
(5.00062e-05 4.4442e-10 1.94036e-11)
(5.00063e-05 5.951e-10 -2.59826e-11)
(5.00063e-05 5.951e-10 2.59824e-11)
(5.00065e-05 7.42881e-10 -3.24349e-11)
(5.00065e-05 7.42881e-10 3.24347e-11)
(5.00066e-05 8.94359e-10 -3.90485e-11)
(5.00066e-05 8.94359e-10 3.90484e-11)
(5.00069e-05 1.04076e-09 -4.54408e-11)
(5.00069e-05 1.04076e-09 4.54406e-11)
(5.00071e-05 1.18866e-09 -5.18979e-11)
(5.00071e-05 1.18866e-09 5.18977e-11)
(5.00073e-05 1.32999e-09 -5.80688e-11)
(5.00073e-05 1.32999e-09 5.80687e-11)
(5.00076e-05 1.46785e-09 -6.40877e-11)
(5.00076e-05 1.46785e-09 6.40876e-11)
(5.00078e-05 1.59811e-09 -6.97749e-11)
(5.00078e-05 1.59811e-09 6.97748e-11)
(5.00081e-05 1.71934e-09 -7.50681e-11)
(5.00081e-05 1.71934e-09 7.5068e-11)
(5.00082e-05 1.83243e-09 -8.00056e-11)
(5.00082e-05 1.83243e-09 8.00055e-11)
(5.00084e-05 1.93299e-09 -8.43962e-11)
(5.00084e-05 1.93299e-09 8.43961e-11)
(5.00085e-05 2.02659e-09 -8.84827e-11)
(5.00085e-05 2.02659e-09 8.84826e-11)
(5.00085e-05 2.10824e-09 -9.20476e-11)
(5.00085e-05 2.10824e-09 9.20475e-11)
(5.0006e-05 1.06992e-17 -2.79308e-16)
(5.00066e-05 2.78579e-10 -1.2163e-11)
(5.00066e-05 2.78579e-10 1.21628e-11)
(5.00066e-05 1.38938e-10 6.06592e-12)
(5.00066e-05 1.38938e-10 -6.0662e-12)
(5.00067e-05 4.17434e-10 -1.82256e-11)
(5.00067e-05 4.17434e-10 1.82253e-11)
(5.00069e-05 5.59552e-10 -2.44306e-11)
(5.00069e-05 5.59552e-10 2.44303e-11)
(5.0007e-05 6.98588e-10 -3.0501e-11)
(5.0007e-05 6.98588e-10 3.05008e-11)
(5.00072e-05 8.42286e-10 -3.6775e-11)
(5.00072e-05 8.42286e-10 3.67748e-11)
(5.00074e-05 9.81161e-10 -4.28384e-11)
(5.00074e-05 9.81161e-10 4.28382e-11)
(5.00076e-05 1.12293e-09 -4.90283e-11)
(5.00076e-05 1.12293e-09 4.90281e-11)
(5.00079e-05 1.2594e-09 -5.49866e-11)
(5.00079e-05 1.2594e-09 5.49864e-11)
(5.00081e-05 1.39426e-09 -6.08747e-11)
(5.00081e-05 1.39426e-09 6.08745e-11)
(5.00083e-05 1.52405e-09 -6.65413e-11)
(5.00083e-05 1.52405e-09 6.65412e-11)
(5.00085e-05 1.64716e-09 -7.19167e-11)
(5.00085e-05 1.64716e-09 7.19166e-11)
(5.00087e-05 1.76565e-09 -7.709e-11)
(5.00087e-05 1.76565e-09 7.70899e-11)
(5.00088e-05 1.8741e-09 -8.18248e-11)
(5.00088e-05 1.8741e-09 8.18247e-11)
(5.00089e-05 1.97912e-09 -8.64104e-11)
(5.00089e-05 1.97912e-09 8.64103e-11)
(5.00089e-05 2.07372e-09 -9.05404e-11)
(5.00089e-05 2.07372e-09 9.05404e-11)
(5.00065e-05 1.06994e-17 -2.79311e-16)
(5.00072e-05 2.53312e-10 -1.10599e-11)
(5.00072e-05 2.53312e-10 1.10596e-11)
(5.00071e-05 1.26216e-10 5.51044e-12)
(5.00071e-05 1.26216e-10 -5.51072e-12)
(5.00073e-05 3.79712e-10 -1.65786e-11)
(5.00073e-05 3.79712e-10 1.65783e-11)
(5.00074e-05 5.10225e-10 -2.22769e-11)
(5.00074e-05 5.10225e-10 2.22767e-11)
(5.00076e-05 6.37818e-10 -2.78478e-11)
(5.00076e-05 6.37818e-10 2.78475e-11)
(5.00077e-05 7.71602e-10 -3.36889e-11)
(5.00077e-05 7.71602e-10 3.36887e-11)
(5.00079e-05 9.01291e-10 -3.93512e-11)
(5.00079e-05 9.01291e-10 3.9351e-11)
(5.00082e-05 1.03589e-09 -4.52279e-11)
(5.00082e-05 1.03589e-09 4.52278e-11)
(5.00084e-05 1.16697e-09 -5.09509e-11)
(5.00084e-05 1.16697e-09 5.09508e-11)
(5.00086e-05 1.2988e-09 -5.67068e-11)
(5.00086e-05 1.2988e-09 5.67067e-11)
(5.00088e-05 1.4285e-09 -6.23696e-11)
(5.00088e-05 1.4285e-09 6.23695e-11)
(5.0009e-05 1.5541e-09 -6.78536e-11)
(5.0009e-05 1.5541e-09 6.78535e-11)
(5.00091e-05 1.67871e-09 -7.3294e-11)
(5.00091e-05 1.67871e-09 7.32939e-11)
(5.00092e-05 1.79564e-09 -7.83993e-11)
(5.00092e-05 1.79564e-09 7.83992e-11)
(5.00093e-05 1.91242e-09 -8.34982e-11)
(5.00093e-05 1.91242e-09 8.34981e-11)
(5.00093e-05 2.01991e-09 -8.81912e-11)
(5.00093e-05 2.01991e-09 8.81912e-11)
(5.00071e-05 1.06995e-17 -2.79314e-16)
(5.00077e-05 2.22219e-10 -9.7023e-12)
(5.00077e-05 2.22219e-10 9.70203e-12)
(5.00076e-05 1.10539e-10 4.82595e-12)
(5.00076e-05 1.10539e-10 -4.82623e-12)
(5.00078e-05 3.3344e-10 -1.45583e-11)
(5.00078e-05 3.3344e-10 1.45581e-11)
(5.00079e-05 4.49949e-10 -1.96452e-11)
(5.00079e-05 4.49949e-10 1.9645e-11)
(5.00081e-05 5.63957e-10 -2.46229e-11)
(5.00081e-05 5.63957e-10 2.46227e-11)
(5.00082e-05 6.86158e-10 -2.99583e-11)
(5.00082e-05 6.86158e-10 2.99581e-11)
(5.00084e-05 8.05356e-10 -3.51626e-11)
(5.00084e-05 8.05356e-10 3.51624e-11)
(5.00087e-05 9.31971e-10 -4.06907e-11)
(5.00087e-05 9.31971e-10 4.06905e-11)
(5.00089e-05 1.05726e-09 -4.61612e-11)
(5.00089e-05 1.05726e-09 4.6161e-11)
(5.00091e-05 1.18605e-09 -5.17843e-11)
(5.00091e-05 1.18605e-09 5.17841e-11)
(5.00093e-05 1.316e-09 -5.74578e-11)
(5.00093e-05 1.316e-09 5.74577e-11)
(5.00095e-05 1.44459e-09 -6.30723e-11)
(5.00095e-05 1.44459e-09 6.30721e-11)
(5.00096e-05 1.57596e-09 -6.88077e-11)
(5.00096e-05 1.57596e-09 6.88076e-11)
(5.00097e-05 1.70193e-09 -7.43078e-11)
(5.00097e-05 1.70193e-09 7.43077e-11)
(5.00097e-05 1.83089e-09 -7.99384e-11)
(5.00097e-05 1.83089e-09 7.99383e-11)
(5.00097e-05 1.95143e-09 -8.5201e-11)
(5.00097e-05 1.95143e-09 8.5201e-11)
(5.00076e-05 1.06996e-17 -2.79317e-16)
(5.00081e-05 1.86567e-10 -8.14569e-12)
(5.00081e-05 1.86567e-10 8.14542e-12)
(5.00081e-05 9.25482e-11 4.04047e-12)
(5.00081e-05 9.25482e-11 -4.04076e-12)
(5.00082e-05 2.80465e-10 -1.22454e-11)
(5.00082e-05 2.80465e-10 1.22451e-11)
(5.00083e-05 3.811e-10 -1.66392e-11)
(5.00083e-05 3.811e-10 1.66389e-11)
(5.00085e-05 4.79818e-10 -2.09493e-11)
(5.00085e-05 4.79818e-10 2.09491e-11)
(5.00087e-05 5.89128e-10 -2.57219e-11)
(5.00087e-05 5.89128e-10 2.57217e-11)
(5.00089e-05 6.96787e-10 -3.04224e-11)
(5.00089e-05 6.96787e-10 3.04222e-11)
(5.00091e-05 8.14766e-10 -3.55735e-11)
(5.00091e-05 8.14766e-10 3.55733e-11)
(5.00093e-05 9.33954e-10 -4.07773e-11)
(5.00093e-05 9.33954e-10 4.07771e-11)
(5.00096e-05 1.05968e-09 -4.62665e-11)
(5.00096e-05 1.05968e-09 4.62664e-11)
(5.00098e-05 1.19016e-09 -5.19634e-11)
(5.00098e-05 1.19016e-09 5.19632e-11)
(5.00099e-05 1.32216e-09 -5.77269e-11)
(5.00099e-05 1.32216e-09 5.77268e-11)
(5.00101e-05 1.4609e-09 -6.37842e-11)
(5.00101e-05 1.4609e-09 6.37841e-11)
(5.00102e-05 1.59649e-09 -6.97045e-11)
(5.00102e-05 1.59649e-09 6.97044e-11)
(5.00102e-05 1.73819e-09 -7.58911e-11)
(5.00102e-05 1.73819e-09 7.5891e-11)
(5.00102e-05 1.87218e-09 -8.17413e-11)
(5.00102e-05 1.87218e-09 8.17413e-11)
(5.0008e-05 1.06997e-17 -2.79319e-16)
(5.00085e-05 1.47475e-10 -6.43893e-12)
(5.00085e-05 1.47475e-10 6.43865e-12)
(5.00085e-05 7.28121e-11 3.17877e-12)
(5.00085e-05 7.28121e-11 -3.17906e-12)
(5.00086e-05 2.22408e-10 -9.71055e-12)
(5.00086e-05 2.22408e-10 9.71028e-12)
(5.00087e-05 3.05753e-10 -1.33495e-11)
(5.00087e-05 3.05753e-10 1.33492e-11)
(5.00089e-05 3.87846e-10 -1.69338e-11)
(5.00089e-05 3.87846e-10 1.69335e-11)
(5.00091e-05 4.83251e-10 -2.10992e-11)
(5.00091e-05 4.83251e-10 2.1099e-11)
(5.00093e-05 5.78523e-10 -2.52589e-11)
(5.00093e-05 5.78523e-10 2.52586e-11)
(5.00096e-05 6.87327e-10 -3.00093e-11)
(5.00096e-05 6.87327e-10 3.00091e-11)
(5.00098e-05 8.00128e-10 -3.49344e-11)
(5.00098e-05 8.00128e-10 3.49342e-11)
(5.001e-05 9.22737e-10 -4.02876e-11)
(5.001e-05 9.22737e-10 4.02874e-11)
(5.00102e-05 1.054e-09 -4.60186e-11)
(5.00102e-05 1.054e-09 4.60184e-11)
(5.00104e-05 1.18979e-09 -5.19475e-11)
(5.00104e-05 1.18979e-09 5.19473e-11)
(5.00106e-05 1.33652e-09 -5.83535e-11)
(5.00106e-05 1.33652e-09 5.83534e-11)
(5.00107e-05 1.48238e-09 -6.4722e-11)
(5.00107e-05 1.48238e-09 6.47219e-11)
(5.00107e-05 1.63756e-09 -7.14975e-11)
(5.00107e-05 1.63756e-09 7.14974e-11)
(5.00107e-05 1.78571e-09 -7.79656e-11)
(5.00107e-05 1.78571e-09 7.79655e-11)
(5.00084e-05 1.06998e-17 -2.79321e-16)
(5.00088e-05 1.06052e-10 -4.63035e-12)
(5.00088e-05 1.06052e-10 4.63007e-12)
(5.00088e-05 5.18927e-11 2.26541e-12)
(5.00088e-05 5.18927e-11 -2.2657e-12)
(5.0009e-05 1.60869e-10 -7.02369e-12)
(5.0009e-05 1.60869e-10 7.02342e-12)
(5.00091e-05 2.25952e-10 -9.8653e-12)
(5.00091e-05 2.25952e-10 9.86503e-12)
(5.00093e-05 2.9044e-10 -1.26809e-11)
(5.00093e-05 2.9044e-10 1.26806e-11)
(5.00095e-05 3.71202e-10 -1.6207e-11)
(5.00095e-05 3.71202e-10 1.62068e-11)
(5.00097e-05 4.53422e-10 -1.97969e-11)
(5.00097e-05 4.53422e-10 1.97966e-11)
(5.001e-05 5.52614e-10 -2.41277e-11)
(5.001e-05 5.52614e-10 2.41274e-11)
(5.00102e-05 6.58785e-10 -2.87632e-11)
(5.00102e-05 6.58785e-10 2.8763e-11)
(5.00105e-05 7.78208e-10 -3.39773e-11)
(5.00105e-05 7.78208e-10 3.39771e-11)
(5.00107e-05 9.10467e-10 -3.97518e-11)
(5.00107e-05 9.10467e-10 3.97516e-11)
(5.00109e-05 1.05038e-09 -4.58608e-11)
(5.00109e-05 1.05038e-09 4.58606e-11)
(5.00111e-05 1.20574e-09 -5.26438e-11)
(5.00111e-05 1.20574e-09 5.26436e-11)
(5.00112e-05 1.3626e-09 -5.94924e-11)
(5.00112e-05 1.3626e-09 5.94922e-11)
(5.00112e-05 1.53223e-09 -6.68985e-11)
(5.00112e-05 1.53223e-09 6.68984e-11)
(5.00112e-05 1.69553e-09 -7.40285e-11)
(5.00112e-05 1.69553e-09 7.40284e-11)
(5.00087e-05 1.06998e-17 -2.79323e-16)
(5.00091e-05 6.34969e-11 -2.77235e-12)
(5.00091e-05 6.34969e-11 2.77206e-12)
(5.0009e-05 3.03983e-11 1.32694e-12)
(5.0009e-05 3.03983e-11 -1.32723e-12)
(5.00092e-05 9.75793e-11 -4.26042e-12)
(5.00092e-05 9.75793e-11 4.26013e-12)
(5.00094e-05 1.43911e-10 -6.28329e-12)
(5.00094e-05 1.43911e-10 6.28301e-12)
(5.00096e-05 1.90193e-10 -8.30403e-12)
(5.00096e-05 1.90193e-10 8.30376e-12)
(5.00098e-05 2.55879e-10 -1.11719e-11)
(5.00098e-05 2.55879e-10 1.11716e-11)
(5.00101e-05 3.24583e-10 -1.41716e-11)
(5.00101e-05 3.24583e-10 1.41713e-11)
(5.00104e-05 4.13839e-10 -1.80686e-11)
(5.00104e-05 4.13839e-10 1.80683e-11)
(5.00106e-05 5.13178e-10 -2.24058e-11)
(5.00106e-05 5.13178e-10 2.24056e-11)
(5.00109e-05 6.29324e-10 -2.74769e-11)
(5.00109e-05 6.29324e-10 2.74767e-11)
(5.00112e-05 7.62771e-10 -3.33033e-11)
(5.00112e-05 7.62771e-10 3.33031e-11)
(5.00114e-05 9.07115e-10 -3.96055e-11)
(5.00114e-05 9.07115e-10 3.96053e-11)
(5.00116e-05 1.07178e-09 -4.67951e-11)
(5.00116e-05 1.07178e-09 4.67949e-11)
(5.00117e-05 1.24046e-09 -5.41595e-11)
(5.00117e-05 1.24046e-09 5.41594e-11)
(5.00117e-05 1.42571e-09 -6.22479e-11)
(5.00117e-05 1.42571e-09 6.22477e-11)
(5.00117e-05 1.60551e-09 -7.00981e-11)
(5.00117e-05 1.60551e-09 7.0098e-11)
(5.0009e-05 1.06999e-17 -2.79325e-16)
(5.00093e-05 2.12629e-11 -9.28376e-13)
(5.00093e-05 2.12629e-11 9.28082e-13)
(5.00092e-05 9.06618e-12 3.95559e-13)
(5.00092e-05 9.06618e-12 -3.95855e-13)
(5.00094e-05 3.46405e-11 -1.51245e-12)
(5.00094e-05 3.46405e-11 1.51216e-12)
(5.00096e-05 6.23143e-11 -2.72072e-12)
(5.00096e-05 6.23143e-11 2.72043e-12)
(5.00098e-05 9.02639e-11 -3.94102e-12)
(5.00098e-05 9.02639e-11 3.94074e-12)
(5.00101e-05 1.40814e-10 -6.14807e-12)
(5.00101e-05 1.40814e-10 6.14779e-12)
(5.00104e-05 1.95794e-10 -8.54856e-12)
(5.00104e-05 1.95794e-10 8.54828e-12)
(5.00107e-05 2.74943e-10 -1.20043e-11)
(5.00107e-05 2.74943e-10 1.2004e-11)
(5.0011e-05 3.67317e-10 -1.60374e-11)
(5.0011e-05 3.67317e-10 1.60372e-11)
(5.00113e-05 4.8009e-10 -2.09612e-11)
(5.00113e-05 4.8009e-10 2.0961e-11)
(5.00116e-05 6.14891e-10 -2.68468e-11)
(5.00116e-05 6.14891e-10 2.68465e-11)
(5.00119e-05 7.63921e-10 -3.33535e-11)
(5.00119e-05 7.63921e-10 3.33533e-11)
(5.00121e-05 9.38607e-10 -4.09805e-11)
(5.00121e-05 9.38607e-10 4.09803e-11)
(5.00123e-05 1.12e-09 -4.89001e-11)
(5.00123e-05 1.12e-09 4.89e-11)
(5.00123e-05 1.32227e-09 -5.77318e-11)
(5.00123e-05 1.32227e-09 5.77316e-11)
(5.00123e-05 1.52023e-09 -6.63748e-11)
(5.00123e-05 1.52023e-09 6.63747e-11)
(5.00092e-05 1.06999e-17 -2.79326e-16)
(5.00094e-05 -1.87945e-11 8.20566e-13)
(5.00094e-05 -1.87945e-11 -8.20865e-13)
(5.00094e-05 -1.11636e-11 -4.87695e-13)
(5.00094e-05 -1.11636e-11 4.87397e-13)
(5.00096e-05 -2.52602e-11 1.10287e-12)
(5.00096e-05 -2.52602e-11 -1.10317e-12)
(5.00098e-05 -1.5393e-11 6.72055e-13)
(5.00098e-05 -1.5393e-11 -6.72354e-13)
(5.001e-05 -5.28428e-12 2.30699e-13)
(5.001e-05 -5.28428e-12 -2.30997e-13)
(5.00103e-05 3.0571e-11 -1.33477e-12)
(5.00103e-05 3.0571e-11 1.33448e-12)
(5.00107e-05 7.19731e-11 -3.14243e-12)
(5.00107e-05 7.19731e-11 3.14214e-12)
(5.0011e-05 1.41069e-10 -6.15921e-12)
(5.0011e-05 1.41069e-10 6.15893e-12)
(5.00114e-05 2.26456e-10 -9.88731e-12)
(5.00114e-05 2.26456e-10 9.88704e-12)
(5.00117e-05 3.35771e-10 -1.46601e-11)
(5.00117e-05 3.35771e-10 1.46598e-11)
(5.00121e-05 4.72067e-10 -2.06109e-11)
(5.00121e-05 4.72067e-10 2.06107e-11)
(5.00124e-05 6.25983e-10 -2.7331e-11)
(5.00124e-05 6.25983e-10 2.73308e-11)
(5.00127e-05 8.11388e-10 -3.5426e-11)
(5.00127e-05 8.11388e-10 3.54258e-11)
(5.00128e-05 1.00644e-09 -4.39423e-11)
(5.00128e-05 1.00644e-09 4.39421e-11)
(5.00129e-05 1.22733e-09 -5.35865e-11)
(5.00129e-05 1.22733e-09 5.35863e-11)
(5.0013e-05 1.44543e-09 -6.31086e-11)
(5.0013e-05 1.44543e-09 6.31085e-11)
(5.00093e-05 1.06999e-17 -2.79326e-16)
(5.00095e-05 -5.42276e-11 2.36761e-12)
(5.00095e-05 -5.42276e-11 -2.36791e-12)
(5.00094e-05 -2.90515e-11 -1.2687e-12)
(5.00094e-05 -2.90515e-11 1.2684e-12)
(5.00097e-05 -7.85689e-11 3.43038e-12)
(5.00097e-05 -7.85689e-11 -3.43068e-12)
(5.00099e-05 -8.46516e-11 3.69595e-12)
(5.00099e-05 -8.46516e-11 -3.69626e-12)
(5.00102e-05 -9.10553e-11 3.97554e-12)
(5.00102e-05 -9.10553e-11 -3.97585e-12)
(5.00105e-05 -6.8773e-11 3.00267e-12)
(5.00105e-05 -6.8773e-11 -3.00298e-12)
(5.00109e-05 -4.03115e-11 1.76002e-12)
(5.00109e-05 -4.03115e-11 -1.76032e-12)
(5.00113e-05 1.91065e-11 -8.34226e-13)
(5.00113e-05 1.91065e-11 8.3393e-13)