/*--------------------------------*- C++ -*----------------------------------*\
| =========                 |                                                 |
| \\      /  F ield         | foam-extend: Open Source CFD                    |
|  \\    /   O peration     | Version:     4.1-20200408                       |
|   \\  /    A nd           | Web:         http://www.foam-extend.org         |
|    \\/     M anipulation  |                                                 |
\*---------------------------------------------------------------------------*/
FoamFile
{
    version     2.0;
    format      ascii;
    class       volScalarField;
    location    "0.0535000";
    object      rho_0_0;
}
// * * * * * * * * * * * * * * * * * * * * * * * * * * * * * * * * * * * * * //

dimensions      [1 -3 0 0 0 0 0];

internalField   nonuniform List<scalar> 
1952
(
7852.11
7851.49
7850.62
7849.55
7848.18
7846.62
7844.68
7842.42
7839.7
7836.27
7832.35
7826.85
7820.46
7812.32
7806.82
7852.36
7852.07
7851.46
7850.58
7849.51
7848.14
7846.57
7844.64
7842.37
7839.65
7836.22
7832.3
7826.81
7820.42
7812.28
7806.8
7852.32
7852.04
7851.43
7850.55
7849.48
7848.1
7846.54
7844.6
7842.33
7839.61
7836.19
7832.26
7826.77
7820.39
7812.26
7806.79
7852.3
7852.02
7851.4
7850.52
7849.45
7848.07
7846.51
7844.57
7842.3
7839.57
7836.16
7832.23
7826.74
7820.36
7812.24
7806.78
7852.27
7852
7851.38
7850.5
7849.43
7848.05
7846.48
7844.54
7842.27
7839.55
7836.13
7832.21
7826.72
7820.34
7812.22
7806.76
7852.25
7851.99
7851.36
7850.48
7849.41
7848.03
7846.46
7844.52
7842.25
7839.52
7836.11
7832.19
7826.7
7820.31
7812.2
7806.75
7852.24
7851.97
7851.35
7850.46
7849.4
7848.01
7846.44
7844.5
7842.23
7839.5
7836.09
7832.17
7826.68
7820.29
7812.18
7806.73
7852.22
7851.96
7851.34
7850.45
7849.39
7848
7846.43
7844.49
7842.22
7839.48
7836.07
7832.15
7826.66
7820.27
7812.16
7806.72
7852.21
7851.96
7851.33
7850.44
7849.38
7847.99
7846.42
7844.47
7842.2
7839.46
7836.05
7832.13
7826.64
7820.25
7812.14
7806.7
7852.21
7851.95
7851.33
7850.44
7849.37
7847.98
7846.41
7844.46
7842.19
7839.45
7836.04
7832.12
7826.62
7820.23
7812.11
7806.68
7852.2
7851.95
7851.32
7850.43
7849.36
7847.98
7846.4
7844.45
7842.18
7839.43
7836.03
7832.11
7826.61
7820.2
7812.09
7806.65
7852.2
7851.95
7851.32
7850.43
7849.36
7847.97
7846.4
7844.44
7842.17
7839.42
7836.01
7832.09
7826.59
7820.18
7812.07
7806.63
7852.2
7851.95
7851.32
7850.43
7849.36
7847.97
7846.39
7844.43
7842.15
7839.4
7836
7832.07
7826.57
7820.16
7812.04
7806.61
7852.2
7851.95
7851.32
7850.42
7849.35
7847.96
7846.38
7844.43
7842.14
7839.39
7835.98
7832.06
7826.55
7820.13
7812.02
7806.58
7852.21
7851.95
7851.32
7850.42
7849.35
7847.96
7846.38
7844.42
7842.13
7839.37
7835.97
7832.04
7826.53
7820.1
7811.99
7806.55
7852.21
7851.96
7851.32
7850.43
7849.35
7847.96
7846.37
7844.41
7842.12
7839.36
7835.95
7832.02
7826.51
7820.07
7811.96
7806.52
7852.21
7851.97
7851.33
7850.43
7849.35
7847.96
7846.37
7844.4
7842.11
7839.34
7835.94
7832
7826.48
7820.04
7811.93
7806.49
7852.22
7851.97
7851.33
7850.43
7849.36
7847.96
7846.37
7844.4
7842.1
7839.33
7835.92
7831.98
7826.46
7820.01
7811.89
7806.45
7852.23
7851.98
7851.34
7850.44
7849.36
7847.96
7846.37
7844.39
7842.09
7839.31
7835.9
7831.96
7826.43
7819.97
7811.86
7806.41
7852.24
7851.99
7851.35
7850.44
7849.37
7847.96
7846.36
7844.38
7842.08
7839.29
7835.88
7831.93
7826.4
7819.94
7811.82
7806.37
7852.25
7852.01
7851.36
7850.45
7849.37
7847.96
7846.36
7844.38
7842.07
7839.28
7835.86
7831.91
7826.37
7819.9
7811.77
7806.33
7852.26
7852.02
7851.38
7850.47
7849.38
7847.97
7846.36
7844.37
7842.06
7839.26
7835.84
7831.88
7826.34
7819.85
7811.73
7806.28
7852.28
7852.04
7851.4
7850.48
7849.4
7847.98
7846.37
7844.37
7842.05
7839.24
7835.82
7831.85
7826.3
7819.81
7811.68
7806.23
7852.31
7852.07
7851.42
7850.51
7849.42
7847.99
7846.38
7844.37
7842.05
7839.23
7835.8
7831.82
7826.26
7819.76
7811.63
7806.17
7852.33
7852.11
7851.45
7850.53
7849.44
7848.01
7846.39
7844.38
7842.05
7839.21
7835.78
7831.79
7826.23
7819.7
7811.57
7806.1
7852.37
7852.15
7851.49
7850.57
7849.48
7848.03
7846.41
7844.39
7842.05
7839.2
7835.77
7831.76
7826.19
7819.65
7811.5
7806.03
7852.42
7852.21
7851.55
7850.62
7849.52
7848.07
7846.44
7844.4
7842.06
7839.2
7835.75
7831.74
7826.15
7819.59
7811.43
7805.95
7852.47
7852.28
7851.61
7850.68
7849.58
7848.12
7846.48
7844.43
7842.07
7839.2
7835.74
7831.71
7826.11
7819.53
7811.36
7805.86
7852.55
7852.37
7851.7
7850.76
7849.65
7848.18
7846.53
7844.47
7842.09
7839.2
7835.74
7831.68
7826.06
7819.46
7811.28
7805.77
7852.64
7852.47
7851.8
7850.86
7849.74
7848.25
7846.6
7844.52
7842.13
7839.22
7835.75
7831.66
7826.03
7819.39
7811.2
7805.66
7852.75
7852.6
7851.93
7850.98
7849.85
7848.36
7846.69
7844.59
7842.19
7839.26
7835.76
7831.65
7825.99
7819.32
7811.11
7805.55
7852.88
7852.77
7852.09
7851.13
7850
7848.48
7846.8
7844.68
7842.26
7839.31
7835.79
7831.65
7825.97
7819.26
7811.02
7805.43
7853.04
7852.96
7852.28
7851.31
7850.17
7848.64
7846.95
7844.81
7842.37
7839.38
7835.85
7831.66
7825.95
7819.2
7810.93
7805.29
7853.24
7853.2
7852.51
7851.54
7850.39
7848.84
7847.13
7844.96
7842.5
7839.49
7835.92
7831.7
7825.95
7819.14
7810.84
7805.16
7853.48
7853.48
7852.79
7851.81
7850.65
7849.08
7847.36
7845.17
7842.68
7839.63
7836.04
7831.76
7825.98
7819.11
7810.76
7805.02
7853.77
7853.81
7853.12
7852.13
7850.96
7849.38
7847.64
7845.42
7842.91
7839.82
7836.2
7831.87
7826.03
7819.09
7810.69
7804.88
7854.1
7854.2
7853.51
7852.51
7851.34
7849.74
7847.98
7845.74
7843.2
7840.08
7836.41
7832.02
7826.14
7819.11
7810.64
7804.74
7854.5
7854.66
7853.97
7852.96
7851.78
7850.17
7848.4
7846.13
7843.57
7840.4
7836.7
7832.24
7826.3
7819.17
7810.63
7804.62
7854.95
7855.17
7854.49
7853.47
7852.3
7850.68
7848.9
7846.61
7844.02
7840.82
7837.07
7832.54
7826.53
7819.29
7810.67
7804.52
7855.47
7855.76
7855.08
7854.06
7852.89
7851.27
7849.49
7847.18
7844.58
7841.34
7837.56
7832.96
7826.88
7819.51
7810.78
7804.46
7856.05
7856.41
7855.74
7854.73
7853.57
7851.96
7850.18
7847.88
7845.26
7842
7838.19
7833.52
7827.36
7819.84
7810.99
7804.46
7856.7
7857.12
7856.47
7855.47
7854.34
7852.74
7850.98
7848.7
7846.09
7842.82
7838.99
7834.25
7828.02
7820.35
7811.35
7804.56
7857.41
7857.87
7857.25
7856.28
7855.17
7853.62
7851.89
7849.65
7847.07
7843.83
7839.99
7835.22
7828.93
7821.09
7811.92
7804.79
7858.16
7858.65
7858.06
7857.12
7856.07
7854.57
7852.91
7850.74
7848.22
7845.05
7841.25
7836.48
7830.15
7822.15
7812.78
7805.19
7858.93
7859.42
7858.87
7857.99
7857
7855.59
7854.03
7851.97
7849.55
7846.5
7842.81
7838.1
7831.81
7823.7
7814.14
7805.94
7859.68
7860.14
7859.65
7858.83
7857.94
7856.64
7855.2
7853.31
7851.05
7848.21
7844.69
7840.18
7834.05
7825.98
7816.44
7807.76
7860.39
7860.75
7860.32
7859.59
7858.81
7857.67
7856.4
7854.73
7852.69
7850.14
7846.9
7842.76
7837.01
7829.38
7820.46
7812.45
7860.98
7861.19
7860.83
7860.19
7859.56
7858.59
7857.53
7856.13
7854.38
7852.21
7849.35
7845.71
7840.48
7833.49
7825.43
7818.39
7861.39
7861.35
7861.08
7860.56
7860.08
7859.32
7858.51
7857.43
7856.02
7854.32
7851.91
7848.91
7844.29
7838.09
7830.92
7824.68
7861.53
7861.15
7860.96
7860.57
7860.27
7859.75
7859.21
7858.5
7857.47
7856.31
7854.43
7852.17
7848.24
7842.99
7836.75
7831.23
7861.3
7860.48
7860.38
7860.13
7860.02
7859.74
7859.49
7859.17
7858.58
7858.01
7856.71
7855.33
7852.14
7848.11
7842.78
7838.03
7860.6
7859.21
7859.21
7859.09
7859.17
7859.15
7859.21
7859.3
7859.16
7859.22
7858.56
7858.15
7855.81
7853.33
7848.89
7845.21
7859.3
7857.22
7857.32
7857.34
7857.62
7857.85
7858.23
7858.71
7859.04
7859.69
7859.66
7860.19
7858.84
7858.21
7855.06
7852.98
7857.28
7854.43
7854.63
7854.76
7855.19
7855.6
7856.22
7857.02
7857.78
7859.05
7859.74
7861.24
7861.09
7862.3
7860.86
7861.3
7854.46
7850.51
7850.81
7851.09
7851.72
7852.4
7853.34
7854.54
7855.82
7857.73
7859.2
7861.7
7862.75
7865.63
7865.97
7869.62
7850.5
7845.85
7846.34
7846.91
7847.89
7849.02
7850.48
7852.25
7854.15
7856.67
7858.88
7862.27
7864.39
7868.82
7870.73
7877.61
7845.78
7841.78
7842.49
7843.36
7844.73
7846.32
7848.29
7850.61
7853.1
7856.2
7859.07
7863.14
7866.1
7871.62
7874.7
7883.78
7841.61
7838.84
7839.75
7840.88
7842.55
7844.5
7846.87
7849.59
7852.54
7856.05
7859.43
7863.97
7867.57
7873.76
7877.64
7887.79
7838.57
7837.07
7838.08
7839.4
7841.28
7843.47
7846.11
7849.1
7852.37
7856.14
7859.88
7864.66
7868.68
7875.13
7879.47
7889.85
7836.73
7836.48
7837.53
7838.94
7840.92
7843.23
7846.01
7849.11
7852.56
7856.42
7860.36
7865.15
7869.38
7875.7
7880.19
7890.13
7836.09
7836.99
7838.03
7839.45
7841.43
7843.74
7846.55
7849.63
7853.11
7856.91
7860.88
7865.47
7869.7
7875.55
7879.91
7888.83
7836.58
7838.55
7839.52
7840.88
7842.77
7844.98
7847.69
7850.64
7854.02
7857.6
7861.45
7865.66
7869.69
7874.79
7878.73
7886.17
7838.15
7841.05
7841.93
7843.16
7844.89
7846.91
7849.42
7852.12
7855.28
7858.53
7862.12
7865.78
7869.43
7873.51
7876.78
7882.36
7840.69
7844.4
7845.16
7846.21
7847.73
7849.48
7851.72
7854.08
7856.91
7859.72
7862.91
7865.9
7868.98
7871.83
7874.19
7877.63
7844.08
7848.42
7849.06
7849.93
7851.21
7852.66
7854.57
7856.52
7858.94
7861.21
7863.9
7866.07
7868.4
7869.84
7871.08
7872.23
7848.16
7852.93
7853.47
7854.18
7855.24
7856.41
7857.98
7859.49
7861.44
7863.11
7865.16
7866.41
7867.79
7867.63
7867.59
7866.48
7852.71
7857.72
7858.21
7858.79
7859.69
7860.63
7861.9
7863.02
7864.49
7865.5
7866.82
7867.01
7867.24
7865.33
7863.88
7860.68
7857.53
7862.59
7863.04
7863.55
7864.32
7865.09
7866.11
7866.91
7867.99
7868.42
7868.97
7868.04
7866.93
7863.17
7860.28
7855.22
7862.41
7867.3
7867.74
7868.19
7868.88
7869.52
7870.39
7871.04
7871.96
7871.99
7871.83
7869.75
7867.12
7861.46
7857.24
7850.61
7867.13
7872.13
7872.58
7873.05
7873.74
7874.37
7875.11
7875.61
7875.93
7875.1
7873.75
7870.42
7866.55
7860.1
7855.02
7847.32
7871.95
7876.71
7876.98
7877.21
7877.53
7877.65
7877.6
7876.97
7875.9
7873.91
7871.47
7867.65
7863.74
7857.78
7853.13
7845.45
7876.59
7877.39
7877.25
7876.91
7876.47
7875.7
7874.7
7873.05
7871.23
7868.8
7866.25
7862.75
7859.53
7854.58
7850.92
7844.64
7877.43
7873.55
7873.24
7872.69
7871.94
7870.88
7869.61
7867.94
7866.31
7864.1
7861.77
7858.64
7855.63
7851.56
7848.29
7843.7
7873.66
7869.05
7868.76
7868.26
7867.58
7866.64
7865.5
7863.99
7862.35
7860.24
7858.05
7855.25
7852.55
7849.08
7845.92
7842.25
7869.16
7865.34
7865.01
7864.49
7863.78
7862.83
7861.71
7860.3
7858.77
7856.85
7854.86
7852.38
7849.96
7846.96
7844.21
7840.81
7865.46
7861.83
7861.5
7861.02
7860.34
7859.48
7858.44
7857.14
7855.72
7853.98
7852.18
7849.99
7847.85
7845.26
7842.85
7839.97
7861.94
7858.73
7858.41
7857.95
7857.31
7856.5
7855.53
7854.35
7853.06
7851.51
7849.89
7847.97
7846.09
7843.86
7841.79
7839.3
7858.84
7855.94
7855.63
7855.21
7854.62
7853.88
7853
7851.94
7850.77
7849.39
7847.96
7846.28
7844.64
7842.72
7840.95
7838.84
7856.03
7853.46
7853.16
7852.79
7852.24
7851.58
7850.77
7849.83
7848.78
7847.57
7846.31
7844.85
7843.43
7841.78
7840.27
7838.48
7853.55
7851.25
7850.98
7850.64
7850.14
7849.55
7848.83
7847.99
7847.07
7846
7844.9
7843.64
7842.41
7841.01
7839.72
7838.21
7851.33
7849.3
7849.05
7848.75
7848.3
7847.78
7847.13
7846.4
7845.58
7844.65
7843.69
7842.6
7841.55
7840.35
7839.26
7837.99
7849.37
7847.57
7847.35
7847.08
7846.68
7846.22
7845.65
7845
7844.29
7843.48
7842.65
7841.72
7840.81
7839.8
7838.88
7837.8
7847.64
7846.05
7845.84
7845.61
7845.25
7844.85
7844.35
7843.79
7843.16
7842.46
7841.75
7840.95
7840.18
7839.32
7838.54
7837.63
7846.1
7844.7
7844.52
7844.31
7844
7843.65
7843.21
7842.72
7842.18
7841.58
7840.96
7840.28
7839.62
7838.9
7838.24
7837.47
7844.75
7843.51
7843.35
7843.17
7842.89
7842.59
7842.2
7841.78
7841.31
7840.8
7840.27
7839.69
7839.13
7838.52
7837.97
7837.32
7843.55
7842.46
7842.31
7842.16
7841.92
7841.65
7841.32
7840.96
7840.55
7840.11
7839.66
7839.16
7838.69
7838.17
7837.71
7837.16
7842.49
7841.52
7841.39
7841.26
7841.05
7840.82
7840.54
7840.22
7839.88
7839.5
7839.11
7838.69
7838.29
7837.86
7837.46
7836.99
7841.55
7840.69
7840.58
7840.47
7840.28
7840.09
7839.84
7839.57
7839.27
7838.95
7838.62
7838.27
7837.93
7837.56
7837.23
7836.82
7840.72
7839.95
7839.85
7839.76
7839.6
7839.43
7839.22
7838.99
7838.73
7838.46
7838.18
7837.87
7837.59
7837.28
7836.99
7836.65
7839.98
7839.29
7839.2
7839.12
7838.98
7838.84
7838.66
7838.46
7838.24
7838.01
7837.77
7837.51
7837.27
7837.01
7836.77
7836.47
7839.31
7838.7
7838.62
7838.55
7838.43
7838.31
7838.15
7837.98
7837.8
7837.6
7837.39
7837.18
7836.97
7836.75
7836.54
7836.28
7838.71
7838.16
7838.1
7838.04
7837.93
7837.83
7837.69
7837.55
7837.39
7837.22
7837.05
7836.86
7836.69
7836.5
7836.32
7836.09
7838.18
7837.68
7837.62
7837.57
7837.48
7837.39
7837.27
7837.15
7837.01
7836.87
7836.72
7836.56
7836.42
7836.25
7836.1
7835.89
7837.69
7837.24
7837.19
7837.14
7837.07
7836.99
7836.89
7836.79
7836.67
7836.54
7836.42
7836.28
7836.15
7836.01
7835.88
7835.69
7837.25
7836.84
7836.79
7836.76
7836.69
7836.62
7836.54
7836.45
7836.35
7836.24
7836.13
7836.01
7835.9
7835.78
7835.66
7835.5
7836.85
7836.47
7836.43
7836.4
7836.34
7836.28
7836.21
7836.13
7836.04
7835.95
7835.86
7835.76
7835.66
7835.56
7835.45
7835.3
7836.48
7836.13
7836.1
7836.07
7836.02
7835.97
7835.9
7835.84
7835.76
7835.68
7835.6
7835.51
7835.43
7835.33
7835.24
7835.1
7836.14
7835.81
7835.79
7835.76
7835.72
7835.67
7835.62
7835.56
7835.49
7835.42
7835.35
7835.28
7835.2
7835.12
7835.03
7834.9
7835.82
7835.52
7835.5
7835.48
7835.44
7835.4
7835.35
7835.3
7835.24
7835.18
7835.12
7835.05
7834.98
7834.91
7834.83
7834.7
7835.53
7835.25
7835.23
7835.21
7835.18
7835.14
7835.1
7835.05
7835
7834.95
7834.89
7834.83
7834.77
7834.7
7834.63
7834.51
7835.26
7835
7834.98
7834.96
7834.93
7834.9
7834.86
7834.82
7834.77
7834.72
7834.67
7834.62
7834.56
7834.5
7834.43
7834.31
7835
7834.76
7834.74
7834.73
7834.7
7834.67
7834.64
7834.6
7834.56
7834.51
7834.47
7834.42
7834.37
7834.31
7834.24
7834.13
7834.76
7834.54
7834.52
7834.51
7834.48
7834.46
7834.42
7834.39
7834.35
7834.31
7834.27
7834.22
7834.17
7834.12
7834.05
7833.94
7834.54
7834.33
7834.31
7834.3
7834.28
7834.25
7834.22
7834.19
7834.16
7834.12
7834.08
7834.03
7833.99
7833.93
7833.87
7833.76
7834.33
7834.13
7834.12
7834.11
7834.09
7834.06
7834.03
7834
7833.97
7833.93
7833.89
7833.85
7833.81
7833.76
7833.69
7833.59
7834.14
7833.95
7833.94
7833.92
7833.9
7833.88
7833.86
7833.83
7833.79
7833.76
7833.72
7833.68
7833.63
7833.58
7833.52
7833.41
7833.95
7833.78
7833.77
7833.75
7833.73
7833.71
7833.69
7833.66
7833.63
7833.59
7833.55
7833.51
7833.47
7833.42
7833.35
7833.25
7833.78
7833.62
7833.61
7833.59
7833.58
7833.55
7833.53
7833.5
7833.47
7833.43
7833.39
7833.35
7833.31
7833.26
7833.19
7833.08
7833.62
7833.47
7833.46
7833.45
7833.43
7833.41
7833.38
7833.35
7833.32
7833.28
7833.24
7833.2
7833.15
7833.1
7833.03
7832.92
7833.47
7833.33
7833.32
7833.31
7833.29
7833.27
7833.24
7833.21
7833.18
7833.14
7833.1
7833.06
7833.01
7832.95
7832.88
7832.77
7833.33
7833.2
7833.19
7833.18
7833.16
7833.14
7833.12
7833.09
7833.05
7833.01
7832.97
7832.92
7832.87
7832.81
7832.74
7832.62
7833.21
7833.09
7833.08
7833.07
7833.05
7833.03
7833
7832.97
7832.93
7832.89
7832.85
7832.8
7832.74
7832.68
7832.6
7832.47
7833.09
7832.98
7832.97
7832.96
7832.94
7832.92
7832.9
7832.86
7832.83
7832.79
7832.74
7832.69
7832.63
7832.56
7832.47
7832.34
7832.99
7832.89
7832.88
7832.87
7832.85
7832.83
7832.8
7832.77
7832.73
7832.69
7832.64
7832.59
7832.52
7832.45
7832.35
7832.21
7832.89
7832.81
7832.8
7832.79
7832.77
7832.75
7832.72
7832.69
7832.65
7832.61
7832.56
7832.5
7832.43
7832.35
7832.24
7832.09
7832.81
7832.74
7832.73
7832.72
7832.7
7832.68
7832.65
7832.62
7832.59
7832.54
7832.49
7832.43
7832.36
7832.27
7832.16
7831.98
7832.74
7832.68
7832.67
7832.66
7832.64
7832.62
7832.6
7832.57
7832.53
7832.49
7832.44
7832.38
7832.31
7832.22
7832.09
7831.89
7832.68
7832.63
7832.62
7832.61
7832.6
7832.58
7832.55
7832.53
7832.49
7832.45
7832.41
7832.35
7832.28
7832.19
7832.06
7831.85
7832.63
7832.58
7832.58
7832.57
7832.55
7832.54
7832.52
7832.49
7832.46
7832.43
7832.39
7832.35
7832.29
7832.22
7832.12
7831.97
7832.58
7832.56
7832.56
7832.55
7832.54
7832.52
7832.5
7832.48
7832.46
7832.43
7832.39
7832.35
7832.31
7832.26
7832.2
7832.08
7832.57
7832.56
7832.56
7832.55
7832.54
7832.52
7832.5
7832.48
7832.46
7832.43
7832.39
7832.35
7832.31
7832.26
7832.2
7832.08
7832.57
7832.56
7832.56
7832.55
7832.54
7832.52
7832.5
7832.48
7832.46
7832.43
7832.39
7832.35
7832.31
7832.26
7832.2
7832.08
7832.57
)
;

boundaryField
{
    wireUpstream
    {
        type            calculated;
        value           nonuniform List<scalar> 
16
(
7832.54
7832.54
7832.53
7832.52
7832.5
7832.49
7832.47
7832.45
7832.42
7832.39
7832.36
7832.32
7832.29
7832.26
7832.24
7832.54
)
;
    }
    wireDownstream
    {
        type            calculated;
        value           nonuniform List<scalar> 
16
(
7852.11
7851.49
7850.62
7849.55
7848.18
7846.62
7844.68
7842.42
7839.7
7836.27
7832.35
7826.85
7820.46
7812.32
7806.82
7852.36
)
;
    }
    wireTopContact
    {
        type            calculated;
        value           nonuniform List<scalar> 
122
(
7806.39
7806.38
7806.36
7806.35
7806.33
7806.32
7806.3
7806.28
7806.26
7806.24
7806.21
7806.19
7806.16
7806.13
7806.1
7806.07
7806.03
7805.99
7805.95
7805.9
7805.85
7805.8
7805.74
7805.67
7805.6
7805.51
7805.43
7805.33
7805.22
7805.11
7804.99
7804.86
7804.72
7804.59
7804.45
7804.32
7804.2
7804.12
7804.08
7804.1
7804.23
7804.51
7804.99
7805.82
7807.52
7812.38
7818.46
7824.86
7831.56
7838.38
7845.4
7852.87
7860.89
7868.93
7876.95
7883.06
7886.97
7889.02
7889.36
7888.14
7885.58
7881.86
7877.25
7871.99
7866.4
7860.82
7855.66
7851.35
7848.27
7846.42
7845.22
7843.57
7842.19
7840.81
7839.96
7839.27
7838.8
7838.43
7838.15
7837.93
7837.74
7837.58
7837.42
7837.27
7837.11
7836.95
7836.78
7836.61
7836.43
7836.25
7836.06
7835.87
7835.67
7835.47
7835.28
7835.08
7834.88
7834.69
7834.49
7834.3
7834.12
7833.93
7833.75
7833.58
7833.4
7833.24
7833.07
7832.91
7832.76
7832.61
7832.47
7832.33
7832.2
7832.09
7831.98
7831.9
7831.85
7831.95
7832.03
7832.03
7832.03
7806.41
)
;
    }
    front
    {
        type            wedge;
    }
    back
    {
        type            wedge;
    }
}


// ************************************************************************* //
