/*--------------------------------*- C++ -*----------------------------------*\
  =========                 |
  \\      /  F ield         | OpenFOAM: The Open Source CFD Toolbox
   \\    /   O peration     | Website:  https://openfoam.org
    \\  /    A nd           | Version:  8
     \\/     M anipulation  |
\*---------------------------------------------------------------------------*/
FoamFile
{
    version     2.0;
    format      ascii;
    class       volVectorField;
    location    "0.0595000";
    object      U;
}
// * * * * * * * * * * * * * * * * * * * * * * * * * * * * * * * * * * * * * //

dimensions      [0 1 -1 0 0 0 0];

internalField   nonuniform List<vector> 
900
(
(0.72534104823646 0.000364541059827518 4.10777196407693e-18)
(0.725857469426482 0.000208618703183482 3.04738578093217e-18)
(0.725858323875483 0.000167525940916731 -5.25815005843255e-18)
(0.725951468475452 0.000190964827048154 -4.16234839776865e-18)
(0.725904943507719 0.000198416363016103 -5.6478831090571e-18)
(0.725818214349351 0.000204350372691006 -1.42698159997708e-17)
(0.725714600300904 0.000208763605157941 -3.56105691045239e-18)
(0.725606673357962 0.000212152891424351 6.64649314884132e-18)
(0.725496593173593 0.000214748660907803 -5.18494667758023e-18)
(0.725384741223916 0.000217255816309213 -4.01725588313409e-18)
(0.725271729463103 0.000220131492867158 2.41336278575378e-17)
(0.725157306533746 0.00022253123644284 3.24020815001262e-17)
(0.725040303749225 0.0002245979711375 -4.78442227136594e-18)
(0.724920300984687 0.000226772508780319 8.56818750786133e-18)
(0.724797866265916 0.000229383507256153 -2.98301322883802e-17)
(0.724673008695602 0.00023144280942486 -1.28881210675027e-17)
(0.724544947834652 0.000233261145653258 5.57384190712385e-18)
(0.72441357550161 0.000235278032323477 -1.16786314991261e-17)
(0.724279402636962 0.00023777162354338 1.25898189576142e-17)
(0.724142312023391 0.000239718802827079 -1.8969811182603e-17)
(0.724001591526062 0.000241539816874154 -1.55941129046287e-17)
(0.723857123016225 0.000243671454558257 -1.38030957820635e-17)
(0.723709400725363 0.000246230191442766 -2.12290842743486e-18)
(0.723558257670425 0.000248306503453952 -2.15519141299481e-17)
(0.723403029139758 0.000250282843976841 -6.97783479449002e-18)
(0.72324394151063 0.000252632820090434 6.69722238473908e-18)
(0.723081698382467 0.000255466504836975 -1.52497307835662e-17)
(0.722915402837278 0.000257927443521553 8.52740492044717e-18)
(0.722743849262328 0.00026037213946598 3.43140565396661e-17)
(0.72256820776114 0.000263363600714557 -4.14524591156746e-17)
(0.722389730961584 0.000266817602147645 -1.37694317744639e-17)
(0.722207218381605 0.000269910376858894 -4.45312705313954e-17)
(0.722019290363685 0.000273191176958924 -6.75150985164936e-17)
(0.721827446055481 0.000277568738009451 -9.28788717020213e-17)
(0.72163331218297 0.00028233351392898 -3.82118648630754e-17)
(0.721435744818724 0.000286743025018266 -2.04417097303263e-17)
(0.721233446083826 0.000291756910246244 -5.84822890402945e-17)
(0.721027812701798 0.000299000822497115 3.16013904301331e-17)
(0.720820656704874 0.000306351618693929 3.0510377469412e-17)
(0.720611703328618 0.000313247357749262 -2.42924784627887e-17)
(0.720400962255879 0.0003213984485445 4.48532451444785e-17)
(0.720190860358441 0.000334119424101929 5.53866411729779e-17)
(0.719982816145598 0.00034628647027529 4.52047526312648e-17)
(0.71977607379899 0.000358213684822038 -1.01460733460009e-17)
(0.71957184666258 0.000372677988446344 1.40538739707206e-16)
(0.719375560839463 0.000396025920300809 8.36914439276281e-17)
(0.719189758135305 0.000416496875404463 1.40745320482069e-16)
(0.719014393829499 0.000437526089330736 7.70481254763276e-17)
(0.718853458657948 0.000464366963107748 5.1710726760765e-18)
(0.718715200469768 0.000504447970292915 -1.86355648939025e-17)
(0.718603232233825 0.000539679758819176 -4.9330999777158e-17)
(0.718521841746561 0.000576769360926746 3.6544508635522e-18)
(0.718481121319071 0.000626630770059198 -3.50082175918345e-17)
(0.718491866784078 0.000694416046260312 3.77631153537401e-18)
(0.718561051021384 0.000753944101741603 -1.81666145279347e-17)
(0.718704552589066 0.000818200299545151 5.64961142182486e-17)
(0.718939580649436 0.000909995399413493 -3.05207956060664e-17)
(0.719284027800898 0.00101976644942527 1.5847068964785e-17)
(0.719758271003771 0.00111808137596538 -4.93731811218542e-18)
(0.72041718783974 0.00122934793175039 -1.60658208963192e-16)
(0.721361559452203 0.00142286194588548 -9.50980768703447e-17)
(0.722802551393563 0.0016871436793972 -4.93765244268149e-17)
(0.724973926202619 0.00196914636017488 -9.07064449831507e-17)
(0.728165782868163 0.00232015167289624 6.50352357294013e-17)
(0.732406838237395 0.00296962326266981 -3.30719005651523e-17)
(0.737566013057298 0.00346350596005889 -1.20158368769779e-16)
(0.743758984756066 0.00386768228989838 -3.608228440968e-17)
(0.751008252702772 0.00428379263896687 6.51679643021166e-17)
(0.759212423057621 0.00477228413984372 -3.0071761305817e-17)
(0.768426368694251 0.00495625886202576 -8.07740654866931e-17)
(0.778820156880441 0.005042324839911 -3.81141367711486e-17)
(0.790186050408025 0.00511892451733141 8.69630674325787e-17)
(0.802417224432033 0.00502668786016738 -6.53297193721557e-17)
(0.815532201842673 0.00476372703527344 -2.70077271594225e-18)
(0.829342911955037 0.00443207225431494 4.20141506432753e-17)
(0.843782946766625 0.00399648090565436 -8.25048547888046e-18)
(0.858693073849399 0.00347492159601303 1.19345131666482e-17)
(0.874192476429632 0.0029243345024974 -2.19788189627262e-17)
(0.889833342532643 0.0023464101075227 -1.09582445764538e-17)
(0.906288915655743 0.00170717909833282 1.81434420962858e-17)
(0.922564482227144 0.00119075489767007 -1.48727115108812e-17)
(0.940441018486091 0.000635844042000817 5.62719262078099e-17)
(0.957228479696651 0.000249139343041916 -1.72358312686681e-17)
(0.97785004530677 -0.000210936582213136 -2.6070760171989e-18)
(0.995066180259137 -0.000324415926942307 -2.98360825850504e-17)
(1.02144227717804 -0.00063216347478066 -3.29003116601594e-17)
(1.03170737826146 9.97525926632553e-05 5.77151381794073e-18)
(1.02865012694467 -6.7442979170082e-05 -2.42038992935625e-17)
(1.03325949744674 0.000105135586968265 8.05127572933424e-18)
(1.03241799157217 0.000156057866195445 -3.70230036061967e-17)
(1.03405418229264 0.000194647319538719 -1.00467211946878e-17)
(1.03368407275149 0.00018189568570329 9.9487502515905e-18)
(1.03406343449752 0.000222460382614826 -1.15585706606686e-19)
(1.0335330562393 0.000210027661092114 -2.30810008266826e-17)
(1.03328684479334 0.000207518609128046 -1.8275874156558e-17)
(1.03269405086007 0.000199646051892485 6.91055805098922e-18)
(1.03220467632858 0.000183773568668281 1.45052613294497e-17)
(1.03158122128819 0.000168992980154356 6.5432464697112e-18)
(1.0309970809092 0.000193401062230234 3.75675666173782e-18)
(1.0300019345012 0.000259426616658976 8.74833805634951e-19)
(0.369078337466781 0.00190698293803674 4.28571222844017e-18)
(0.370920310200685 0.00202551530456291 -4.58178275478969e-19)
(0.371052980238399 0.00209119592081054 -3.36792931333077e-18)
(0.371198192989166 0.0022234318381352 -5.93393587966379e-18)
(0.371012652466927 0.00230182139894032 -1.47820770387107e-17)
(0.370718747986364 0.00234122067937038 -4.58628768079417e-17)
(0.370378852229637 0.00236179753476958 -1.1099609253421e-17)
(0.370024653838862 0.00237449981476903 3.52232164162696e-17)
(0.369663317050669 0.00238424426662112 -2.65725345261437e-17)
(0.369296063497485 0.00239358235120608 -1.10074317924418e-17)
(0.368923532922738 0.00240363357680125 1.86547904253476e-17)
(0.368545190374654 0.00241298796106423 3.38053474202728e-17)
(0.368159320515148 0.00242187157488148 -2.66191264233869e-17)
(0.367765236635947 0.00243099089266267 1.33218850597486e-17)
(0.367363592535399 0.00244093917204019 -8.18448348895958e-17)
(0.366954087188869 0.00245000082243044 -4.0344266244611e-17)
(0.366535327275618 0.00245873125971631 4.97953857622574e-18)
(0.366106952824489 0.00246789231030408 -4.12120121395811e-17)
(0.365669633002316 0.00247801689497712 4.55685033198774e-17)
(0.365222896395319 0.00248729465436836 -6.03707432562521e-17)
(0.364765370916978 0.00249647947599858 -4.53616548907265e-17)
(0.364296773178191 0.00250636074755941 -4.16226866663349e-17)
(0.363817684904723 0.00251718087925186 8.41420931262096e-18)
(0.363327503826755 0.0025272863190439 -6.56623768889829e-17)
(0.362824891848342 0.00253737914693531 -4.80365593387581e-17)
(0.362309727655264 0.00254835955578259 2.32054178233135e-17)
(0.361782629326086 0.00256045456835102 5.23629064793345e-17)
(0.361242561434585 0.00257207347922018 2.99102119608384e-17)
(0.360687903450095 0.00258389669026742 -1.39885822955571e-17)
(0.360119117973523 0.00259702312912952 -4.25802764272216e-17)
(0.359537158384807 0.00261130489285921 -3.11212248675069e-17)
(0.358940656862272 0.00262519170116017 -1.30428312477455e-16)
(0.358327881651414 0.00263976787498588 -2.01298850367058e-16)
(0.357699934183704 0.00265682769336974 -1.91040831651767e-16)
(0.357058207512323 0.0026750269366785 -1.07108830952013e-16)
(0.356401058496904 0.0026929418420038 -5.86926164413998e-17)
(0.355726916226837 0.00271252218517444 -4.83924147933736e-17)
(0.355037939323384 0.00273697617502958 9.5993630902243e-17)
(0.354336200307853 0.00276218961034263 5.33627990370268e-17)
(0.353620077433136 0.00278702594021071 9.24796537741162e-17)
(0.352889167392433 0.0028151093074238 1.38579318273312e-16)
(0.352148665494966 0.00285297478766027 1.74253303505438e-16)
(0.351401697815834 0.00289056956232288 -2.45800656421275e-17)
(0.350645989920456 0.00292830567222423 -4.13122756102454e-17)
(0.34988332057607 0.00297240204266896 2.84976624881472e-16)
(0.349125831884215 0.00303525693134682 2.41577402216253e-16)
(0.348379254773816 0.00309356557091992 2.85790615309354e-16)
(0.347641898908445 0.00315361352706552 2.23610328091993e-16)
(0.346921607977674 0.0032274019656709 1.34259520696841e-17)
(0.346240559632624 0.00332923405087307 -5.4159006912049e-17)
(0.345608936628889 0.00342283692397711 -1.4531759504579e-16)
(0.34503082363517 0.00352099534980375 2.73410711501806e-20)
(0.344528551219808 0.00364806355155907 -1.11294234223032e-16)
(0.344140772233526 0.00381320595198107 -1.09613076050922e-16)
(0.343886933446119 0.00396311907461107 -6.6152569858972e-17)
(0.343787276772278 0.00412406130848371 1.73051871960521e-16)
(0.343894287673151 0.00434484520842241 -5.42584047379744e-18)
(0.344276107125473 0.00460440629321563 4.97521617744977e-17)
(0.344976560488073 0.00484115990787455 -1.22871614918126e-17)
(0.346071908326536 0.00511074584069996 -2.65446610095911e-16)
(0.347772236142881 0.00556015463286521 -2.81002212337757e-16)
(0.350416680997065 0.006167119865825 -1.46587488629972e-16)
(0.354349865819291 0.00681575139859482 -1.01763319980156e-16)
(0.360010707605217 0.00764383964473886 1.1656818207725e-16)
(0.367936436775054 0.00906873561457757 -8.86991492696856e-17)
(0.378341000806017 0.0101792110567624 -3.58400395854326e-16)
(0.391329295366707 0.0110550124727491 -1.09196771889542e-16)
(0.407028793850528 0.0119451902086693 3.5140653398398e-17)
(0.425612773121526 0.0129144212727145 5.35252102723717e-17)
(0.447049543606511 0.0132213453020118 -2.43950371133326e-16)
(0.471230060586236 0.0132640747027078 -1.1585846389598e-16)
(0.497985938504515 0.0132307753074647 1.2756993083115e-16)
(0.527102407050508 0.0127958899133259 -1.96943547099781e-16)
(0.558354427822544 0.0119583475659732 -8.94833626680946e-18)
(0.591286886151365 0.0109300295908497 1.26244617890477e-16)
(0.625788551019541 0.00964941462023527 -2.49855815737987e-17)
(0.661322683000144 0.00816922233122251 3.70901569916637e-17)
(0.69820845734626 0.00660289230030612 -6.53110322770339e-17)
(0.735385520493418 0.00496653397788728 -3.30445607938263e-17)
(0.774340590333372 0.00320059539570446 4.9699439379311e-17)
(0.812643668514287 0.00170261085805411 -4.39280053657562e-17)
(0.854777152837152 0.000109170950660766 1.65242295901166e-16)
(0.894038239652307 -0.00112498211173322 -5.14571328358333e-17)
(0.942548139353325 -0.00251565196523745 1.06961140325599e-17)
(0.982415340615813 -0.00311005180325041 -8.86612335294544e-17)
(1.04469658447614 -0.00386001999892596 -3.82330070636435e-17)
(1.06754279511744 -0.000200914302702876 1.70135576828404e-17)
(1.05725027891212 -0.000407926979638118 -2.89121408457115e-17)
(1.06574456847339 -6.81351943832504e-06 -2.64880389276546e-17)
(1.061347865349 0.00011992043887204 -9.43257069186276e-17)
(1.06363771482354 0.000256334922888033 8.36687616833685e-18)
(1.06119321555309 0.000265668364211313 2.93918719958105e-17)
(1.06106749957183 0.000367042915895019 -2.30194845716046e-17)
(1.05905750598137 0.000370183753719715 -4.63602502737207e-17)
(1.05789364146317 0.00038674401841877 -5.4180158901354e-17)
(1.05600792707675 0.000386417287125192 5.45874492270824e-18)
(1.05447873507693 0.000372984997131449 4.32304241261353e-17)
(1.05264858008902 0.000358680646398876 8.33336426246982e-18)
(1.05111458594896 0.000397903092773309 1.07822099618782e-17)
(1.04932756578212 0.000429974370537681 3.7321383413692e-18)
(0.0873827352729631 0.00406711630511544 4.77255467955611e-18)
(0.0904447084459725 0.00459392433529206 4.1062066066588e-18)
(0.0907295329417786 0.00503779384505797 1.38708275381258e-18)
(0.0908317931476284 0.00538546742315675 -6.18224234481881e-18)
(0.0904874433353234 0.00557742938243762 -2.11708276693126e-17)
(0.0900005421410985 0.00566633004626456 -5.74253435644904e-17)
(0.0894535315495343 0.0057077332743302 -1.16167926893068e-17)
(0.088885909158707 0.00573071521685657 1.10473080278772e-17)
(0.0883071500371097 0.00574764877266978 5.37834991611062e-18)
(0.0877191023446364 0.00576362144299167 -1.79745089709508e-17)
(0.0871225020750208 0.00578027984619776 1.52924008872768e-17)
(0.0865167476109911 0.00579648057037618 4.57274331142197e-17)
(0.0858999398304451 0.0058123044294701 -6.26516502805603e-17)
(0.0852712353500916 0.00582850913027998 -7.92931338605531e-18)
(0.0846312281675439 0.00584553686003229 -1.02496180452466e-16)
(0.0839794285290541 0.00586186322201291 4.29699374534937e-17)
(0.083314115079685 0.00587790253377213 -3.19492306092236e-17)
(0.0826347355123146 0.00589454899111161 -9.29793346908021e-17)
(0.0819419435663804 0.00591220553231835 -6.68971584252748e-18)
(0.0812350652111065 0.00592924273775202 -1.22282902261978e-16)
(0.0805123257820314 0.00594627797390633 -7.28219446735258e-17)
(0.0797732992833999 0.00596423916509939 -7.18300795798066e-17)
(0.0790185463939211 0.00598326425306711 8.67508596460769e-18)
(0.0782472065289146 0.00600181353151357 -1.22428307809689e-16)
(0.0774574696077 0.00602049584702206 -5.85165214154883e-18)
(0.0766489692980652 0.00604035118777579 4.42721123901495e-17)
(0.0758222756413885 0.00606153250742854 1.26724741050044e-16)
(0.0749762377586483 0.00608253482499131 5.20375265953127e-17)
(0.0741088240638013 0.00610397718181626 8.57139551744683e-18)
(0.0732200919519232 0.0061270722443363 -4.65082393198224e-17)
(0.0723108763495633 0.00615163048080441 -3.66535445133306e-17)
(0.0713796373709448 0.00617614477380247 -2.1025232759727e-16)
(0.0704241564436973 0.00620175546256301 -3.70776271803614e-16)
(0.0694453963916341 0.00623032631447382 -2.05320309916143e-16)
(0.0684447698569136 0.00626051267376994 -1.73336864168631e-16)
(0.0674202143570871 0.00629082315545416 -9.53337540774376e-17)
(0.0663695456589784 0.00632354184882058 -3.48791089422665e-17)
(0.065295734218977 0.00636182283088576 5.98671876228384e-17)
(0.0642013460710498 0.00640157443849162 3.40253995380991e-17)
(0.0630836276028428 0.00644132370724519 2.40940634569707e-17)
(0.061941032008808 0.00648569438645113 2.3630977826424e-16)
(0.0607815974344359 0.00654086840458358 1.44730047323487e-16)
(0.0596102159307282 0.006596961089055 7.53413675958563e-17)
(0.0584227560561358 0.00665343410087866 -9.21242262271168e-17)
(0.0572195973978285 0.00671892443409055 3.0755675359571e-16)
(0.056020306739028 0.00680452534883828 2.53112151858349e-16)
(0.0548340607196745 0.00688735105391645 4.32941487069488e-16)
(0.0536545790438887 0.00697194174435021 2.32722006899984e-16)
(0.0524907690502328 0.00707465852504111 1.49472174102871e-17)
(0.0513799145527294 0.00720745024766641 -8.68167528376275e-17)
(0.0503384870171066 0.00733406441798889 -2.87879034759099e-16)
(0.0493624489233749 0.00746568381041947 5.75083658340389e-17)
(0.0484820897815294 0.00763290281320893 -1.66280086043006e-16)
(0.0477664385123891 0.00784102028640928 -1.11683965192654e-16)
(0.0472444614971402 0.00803529252778025 -1.18936804086121e-17)
(0.0469214960283465 0.00824295462300258 1.9803619441607e-16)
(0.0468813543820868 0.00851917801481993 1.85521525970008e-17)
(0.0472466780517282 0.00883790586880229 8.50508884073288e-17)
(0.0480706712281411 0.00913221977851847 8.28263506414586e-17)
(0.0493995770868721 0.00947239642341277 -2.99703396616032e-16)
(0.0515247864870415 0.0100190701536022 -3.77118449652612e-16)
(0.054926127784582 0.0107491685016752 -2.40105294177421e-16)
(0.0600261274744029 0.0115269310595733 -1.4005761989835e-16)
(0.0671863751845269 0.0125677592392391 1.77793913332407e-16)
(0.0775591470447617 0.0141970077752957 -5.74734651014917e-17)
(0.0917260263242432 0.0155149878098717 -3.98262696226375e-16)
(0.109471393638334 0.0165010618121691 -1.86924518122364e-16)
(0.131004759299362 0.0174938681687857 3.58025841888278e-17)
(0.156985473541034 0.0184523517658491 1.41739676361243e-16)
(0.187254841255733 0.0186696599572441 -2.76663107859062e-16)
(0.221191865690963 0.0185041737087928 -1.95417280937573e-16)
(0.258921334714709 0.0181713907246173 1.75470040837e-16)
(0.300200585657799 0.0173381820042417 -3.33366360934045e-16)
(0.344449933596749 0.0160001539663951 -1.57523290721112e-17)
(0.391057062199262 0.014381955055968 2.12929387779109e-16)
(0.439936386175583 0.012440062623437 -6.10206121276809e-17)
(0.490188545530466 0.0102541889391579 -6.00254293572671e-17)
(0.542299762542342 0.00793171753995794 -1.09722769085691e-16)
(0.594839148659333 0.00552043685758206 -5.56225012211548e-17)
(0.649674899627798 0.00296032986125684 7.63981337886739e-17)
(0.703443868776077 0.000714618772143033 -7.22706188181778e-17)
(0.762631585669522 -0.00166413936228285 3.06271098873376e-16)
(0.817556204828821 -0.00360512931628555 -7.04774274718181e-17)
(0.885259471905751 -0.00577255750844671 3.47267352488279e-17)
(0.940725881868454 -0.00687126853601342 -1.47375065161424e-16)
(1.02756931797154 -0.00787843469190729 -4.58676936664361e-17)
(1.05920837936248 -0.000383866756219626 7.39739203155337e-17)
(1.04392703493274 -0.000541563435194413 -2.14935773694624e-17)
(1.05500069631741 -4.00044847081236e-05 -5.07581420553331e-17)
(1.04821681075567 6.3222651100967e-05 -1.43501406251977e-16)
(1.05099197006865 0.000276987742165044 1.46123081007433e-17)
(1.04714138752716 0.000304097535329471 2.4982511217039e-17)
(1.04668487956883 0.000415469522511195 -6.88434560994651e-17)
(1.04369094093989 0.000431582261408431 -6.99717067698499e-17)
(1.04191950686574 0.000457197773365865 -6.8150102286874e-17)
(1.03917244532403 0.000453784453811353 4.24506936337414e-18)
(1.03695759998035 0.0004431617727757 6.03562443728934e-17)
(1.03433270424797 0.000424304466055078 2.98863175517983e-18)
(1.03223310899182 0.000415620103234455 1.7631696240423e-17)
(1.03011311317731 0.000284755547047421 6.40888622980726e-18)
(-0.119504212708408 0.00703767114293561 7.38731065181828e-18)
(-0.116438075600252 0.00733720217131283 9.18566360244668e-18)
(-0.116295409238779 0.00834777642319291 6.99343402354126e-18)
(-0.116411461053646 0.00896615157539999 -4.10807558051616e-18)
(-0.116946301805293 0.00928428342832802 -2.38715658546372e-17)
(-0.117604916761145 0.00942472365634281 -5.31915367287824e-17)
(-0.118315974092195 0.00948716946554291 -2.45565359898789e-19)
(-0.11904699200629 0.00952047442950567 4.3475540485627e-18)
(-0.119790704543086 0.00954475406054523 3.37008546470581e-17)
(-0.120545773639518 0.00956748905955838 2.84390871140613e-17)
(-0.121311721021234 0.00959082498992512 1.3042640799837e-17)
(-0.12208914466558 0.00961403845932061 1.98522057400179e-17)
(-0.122879744164036 0.00963710153876937 -5.24386393992819e-17)
(-0.123684384752974 0.00966065265164777 -2.48636167634605e-17)
(-0.124502737929124 0.00968497231214519 -4.34031142218215e-17)
(-0.125335409934909 0.00970889927758152 1.00147621145936e-16)
(-0.126184075020698 0.00973270252402562 -2.43803504857937e-17)
(-0.127049409178889 0.00975720535231258 -5.19866889915604e-17)
(-0.127931019364421 0.00978268233027252 -2.83162707545125e-17)
(-0.128829678387012 0.00980787808573442 -9.65675269767316e-17)
(-0.129747159921233 0.00983323688347387 -9.10641223968622e-17)
(-0.130684026373128 0.00985961883082502 -1.14230482761439e-16)
(-0.13163995843016 0.0098870908276554 -4.26172440840602e-17)
(-0.132615926199692 0.00991442785653613 -1.43768243395638e-16)
(-0.133613804443148 0.00994209457769774 -5.46915154105259e-18)
(-0.134634165909411 0.00997105384718468 6.2284460376508e-17)
(-0.135676684652058 0.010001403621081 1.21421768862169e-16)
(-0.136742518196734 0.0100319241741916 7.02428826194755e-17)
(-0.137833725180829 0.0100631115782977 3.08304525885178e-17)
(-0.138950588943977 0.0100960678207265 -5.75783387827744e-17)
(-0.140092583523197 0.0101306183050542 -2.33308635164733e-17)
(-0.141261226653749 0.0101655105299846 -1.95640401412759e-16)
(-0.142458776962421 0.0102017554871204 -3.16497531725757e-16)
(-0.143684569002287 0.010240994270334 -2.11291412098226e-16)
(-0.144937451621072 0.0102820890108936 -2.39727530195776e-16)
(-0.146219467295091 0.0103237300100995 -1.2238542831496e-16)
(-0.147532860856388 0.0103680664862265 -6.31980086508701e-17)
(-0.148874598705347 0.0104177863958343 2.48534733133188e-17)
(-0.150242142183021 0.0104693942647857 1.55098233932775e-17)
(-0.151638394645019 0.0105214342736847 -1.99486122880036e-17)
(-0.153065221432892 0.0105784480720188 1.95204305240685e-16)
(-0.154513702890168 0.0106455902760388 1.27513642750631e-16)
(-0.155978236775539 0.0107143952147548 1.18159191906064e-16)
(-0.157463029893384 0.0107838586242956 -3.11149168897341e-17)
(-0.15896812166172 0.010862780848279 2.15374905663385e-16)
(-0.160471037771706 0.0109601048571828 2.50202942029976e-16)
(-0.161960760408177 0.0110560470943809 4.61969192656904e-16)
(-0.163444535968421 0.0111535958951893 2.37963508085953e-16)
(-0.164912740287878 0.0112693325433862 1.17921700024641e-17)
(-0.166321169894862 0.0114124333493659 -1.14603064350747e-16)
(-0.167649356707819 0.0115509025514706 -2.23869415662685e-16)
(-0.168903832973811 0.0116936470759219 -1.21896907133177e-16)
(-0.17005011970219 0.0118707327947263 -1.03773894765467e-16)
(-0.171003595144209 0.0120846608861576 -1.19843260943581e-16)
(-0.171728319475106 0.0122858258851535 3.91644051378673e-17)
(-0.172225244251653 0.0124986840916425 2.47256965197596e-16)
(-0.172393553822917 0.0127751374038742 1.00942483959658e-16)
(-0.172080494286347 0.0130889100793336 1.21474055263352e-16)
(-0.171223998218508 0.0133768289225274 1.8669048360715e-16)
(-0.169793009416876 0.0137081127832934 -2.17427135022867e-16)
(-0.167453052290915 0.0142323703550552 -4.66692102582683e-16)
(-0.163651120043553 0.0149262666942809 -3.28505770182999e-16)
(-0.157915694582357 0.0156541718185281 -9.15705859629948e-17)
(-0.149941379918722 0.0166431439826078 2.4373603526282e-16)
(-0.138211063263538 0.0181442278057865 -4.32018879064201e-17)
(-0.121904844854582 0.0193344461867981 -3.06917703613662e-16)
(-0.101420897076272 0.0201540541368401 -2.73164678087295e-16)
(-0.0765047621851095 0.0209496145865619 2.40826163621455e-17)
(-0.0461986166802856 0.0216358524651666 2.38249269510646e-16)
(-0.0107307002946455 0.021576500655929 -3.20387144389168e-16)
(0.0289517606398484 0.0210928620087857 -2.79268385363365e-16)
(0.0731587716993556 0.0203923798475006 2.34769651759861e-16)
(0.121635324737032 0.0191655429917491 -4.78352274330716e-16)
(0.173578114957919 0.0174139204790827 -2.2141046171256e-17)
(0.228279488392794 0.0153520591717978 1.75593020325133e-16)
(0.285670439843978 0.0129496304111088 -6.23528791731786e-17)
(0.344623902201533 0.0102940794367686 -1.54446844302649e-16)
(0.405722112813651 0.00748464499189643 -1.55336553827434e-16)
(0.467319659415452 0.00457575533224567 -7.82633555457558e-17)
(0.531480757676498 0.00152189807636759 -2.50950250549929e-17)
(0.59429580401947 -0.00123784317277906 -9.93761026618296e-17)
(0.663434024195467 -0.00414400083577407 4.40717802944174e-16)
(0.727442441343652 -0.00662728627018708 -9.17072281653665e-17)
(0.806205461593796 -0.00936314611958088 2.03881432062241e-17)
(0.870612081228318 -0.0110195675981299 -1.54276743655175e-16)
(0.971733288324069 -0.0120335993819787 -5.07929224733215e-17)
(1.00855651844052 -0.000484464887063841 8.68805427634746e-17)
(0.990148389063723 -0.000508392576432937 -1.86023152688637e-17)
(1.00260560257739 -6.78052778424899e-05 -7.93236650970899e-17)
(0.994399935114734 6.29977147666967e-05 -1.7305743814017e-16)
(0.997416660201337 0.000256237971261176 6.68494334161213e-17)
(0.992733203924132 0.000301989570170049 1.96889951342614e-17)
(0.992075334442193 0.000399123469175843 -8.94545056833834e-17)
(0.988518874437565 0.000422376403608712 -9.33128864167862e-17)
(0.986404623653376 0.000445079864240083 -8.30604351903945e-17)
(0.983173078959082 0.000442378461805075 5.34113200841192e-18)
(0.980577382059067 0.000431428465235808 5.62446613762428e-17)
(0.977508805307649 0.000410250347987984 -1.63744873402219e-18)
(0.975102715775592 0.000384724729920087 2.49611062015903e-17)
(0.972829005153547 0.000235594227466668 8.02307078567137e-18)
(-0.252528098965388 0.00922815705054806 9.4789913788834e-18)
(-0.25093401089919 0.00977012493639337 1.52844288460882e-17)
(-0.251323108684816 0.0113022633121697 1.53322654373198e-17)
(-0.25183702551522 0.0121374528029417 1.12931587540405e-19)
(-0.252576043380461 0.012544104839163 -2.45629037322617e-17)
(-0.253366091362415 0.0127181065574282 -3.45591969173856e-17)
(-0.254180732334691 0.0127944597910318 -2.94786729880311e-17)
(-0.255007939758991 0.0128354796356549 -7.43505378189886e-18)
(-0.255846884077236 0.0128659987140014 8.74907637095481e-18)
(-0.256697894001116 0.0128947161643972 1.58722255885058e-17)
(-0.257560976824592 0.0129240063703254 7.32437638481614e-18)
(-0.258436680653951 0.0129534616239797 6.82322573694355e-18)
(-0.25932635378026 0.0129830124776319 1.57713474802816e-17)
(-0.260230790981705 0.0130131196583107 -2.86792810019263e-17)
(-0.261149929433576 0.0130439700848151 -5.15921042061914e-18)
(-0.262084419078775 0.01307471464245 1.17646224638038e-16)
(-0.263035725856697 0.0131055410129619 -1.78830479587468e-17)
(-0.264004576584244 0.0131371013873856 -2.07841231353889e-17)
(-0.264990864479155 0.0131696036497464 -3.59063297832513e-17)
(-0.26599537975327 0.0132021241911293 -8.13615002351883e-17)
(-0.267019709567443 0.0132349900334083 -1.04618384466255e-16)
(-0.268064499961381 0.0132688894802919 -1.97885178209733e-16)
(-0.269129695163514 0.0133038751692963 -9.30167811764722e-17)
(-0.270216269034291 0.0133390274155222 -2.03269065078938e-16)
(-0.271325953032664 0.0133747002313434 -2.29113430310447e-17)
(-0.272459448274556 0.0134116716296376 7.39047494901854e-17)
(-0.273616689231035 0.0134500247837085 1.31674539412811e-16)
(-0.274798761794184 0.013488829804182 8.71136286110512e-17)
(-0.276007551323698 0.0135284756023073 -3.76723044353433e-17)
(-0.277243576855342 0.0135698548250871 -8.15840759300158e-17)
(-0.278506629279114 0.0136128412942677 1.08222699108437e-17)
(-0.279798091056209 0.013656465826336 -1.7936150115322e-16)
(-0.281120031834944 0.0137015445733415 -3.12696545721226e-16)
(-0.282472093474327 0.0137493995850536 -1.19884778392873e-16)
(-0.283853455420431 0.0137991467015628 -2.26183541175196e-16)
(-0.285265926881864 0.0138497470830334 -1.7479035651138e-16)
(-0.286711550675963 0.0139029594929235 6.44764085699071e-17)
(-0.288187593108658 0.0139609299448197 8.18360414946956e-18)
(-0.289691787135716 0.0140208799994382 -1.56178847737835e-19)
(-0.291226723953675 0.0140816049441666 -9.18938778840417e-17)
(-0.292794208696054 0.0141468697778912 1.52816911770204e-16)
(-0.294385582158993 0.0142207706832383 2.05215855908948e-16)
(-0.295995213732836 0.0142964946612679 1.43828506120952e-16)
(-0.297626623008714 0.0143730992440831 4.08526999861784e-18)
(-0.299279916636952 0.0144579519689238 1.36129005633027e-16)
(-0.300932594427371 0.0145580978262676 2.35112505406637e-16)
(-0.302573077420014 0.0146574253699522 5.77518181600223e-16)
(-0.304207921486288 0.0147581244248079 2.39770845486212e-16)
(-0.305827502412225 0.0148740845381718 5.62663018414908e-18)
(-0.307386391656681 0.0150123583075371 -1.40219155041385e-16)
(-0.308862396787829 0.0151465384755421 -2.03804471720824e-16)
(-0.31026197860417 0.0152836356925188 -6.03727019940712e-17)
(-0.311549995952469 0.0154486918779149 -1.32069749379801e-17)
(-0.312637334144286 0.0156428672902399 -1.37112106901896e-16)
(-0.313484566199821 0.0158246390774421 8.07017269050447e-17)
(-0.314094946354426 0.0160140350722963 2.14475672470784e-16)
(-0.314362778441736 0.0162537990273148 1.86653784956781e-16)
(-0.314124867649292 0.0165205282860181 1.55996641743957e-16)
(-0.313314435301103 0.0167604379635777 3.97656399438057e-16)
(-0.311909503148111 0.0170315735559459 -1.49380528124423e-16)
(-0.309566900310587 0.0174571785167032 -4.76716646089502e-16)
(-0.305717972567368 0.0180134546797057 -4.12231963148606e-16)
(-0.29987859164138 0.0185805759307545 -1.28514772412975e-16)
(-0.291795059352923 0.0193510168349225 3.31872607857576e-16)
(-0.279797701016874 0.0205162902575021 -1.17548416340977e-16)
(-0.262947255964326 0.0213753442977975 -2.44248958139228e-16)
(-0.241727408165991 0.0218741352457991 -2.34347594126628e-16)
(-0.215872225683482 0.0223075525194691 1.430811127187e-17)
(-0.184282331934765 0.0225878594507389 2.03987526337438e-16)
(-0.147211916678441 0.0221813756130471 -3.78399014656818e-16)
(-0.105773271357605 0.0213683499147795 -3.70100121852337e-16)
(-0.0595580992954748 0.0203216274285692 1.75086825130422e-16)
(-0.00881620756577804 0.0187806464339656 -5.04590811368221e-16)
(0.0455446352303161 0.0167574442662356 -2.5840740864961e-17)
(0.102784842463832 0.0144383503280207 1.42647076859126e-16)