/*--------------------------------*- C++ -*----------------------------------*\
  =========                 |
  \\      /  F ield         | OpenFOAM: The Open Source CFD Toolbox
   \\    /   O peration     | Website:  https://openfoam.org
    \\  /    A nd           | Version:  8
     \\/     M anipulation  |
\*---------------------------------------------------------------------------*/
FoamFile
{
    version     2.0;
    format      ascii;
    class       surfaceVectorField;
    location    "0.0595000";
    object      Uf_0;
}
// * * * * * * * * * * * * * * * * * * * * * * * * * * * * * * * * * * * * * //

dimensions      [0 1 -1 0 0 0 0];

internalField   nonuniform List<vector> 
1094
(
(0.604215907970829 0.00053557331510337 -1.6508784413377e-18)
(0.372061175897286 0.0017701104743941 -2.37334379741016e-18)
(0.604448872639692 0.000384790408268162 -8.72648979473105e-19)
(0.373952931976826 0.00189527543992038 -4.97904396520977e-18)
(0.604571739016648 0.000375952071360514 -6.73071484753894e-18)
(0.37405170985282 0.00199364376256912 -2.74349548202293e-18)
(0.604504061269207 0.000408984967702336 -1.68960013933936e-17)
(0.373982655968257 0.00213968755019258 -3.60811722608679e-18)
(0.604322536383075 0.000426772346756078 -1.83734003861581e-17)
(0.373674646505335 0.00222711288200383 -1.59480845678216e-17)
(0.604090960584815 0.000436146530989744 2.06420257061189e-18)
(0.373238145744461 0.00226984425429556 -1.52353960947221e-17)
(0.603840489743121 0.000442662465355863 6.57274831466403e-18)
(0.37275158204745 0.00229144673649288 6.89674961981249e-18)
(0.603583534025452 0.000448423872913762 9.12677072542315e-18)
(0.372246741872574 0.00230611854796055 -2.8217148579679e-17)
(0.603318956186679 0.000453618171863482 3.54034172456539e-17)
(0.371730663317071 0.00231838540169184 1.26887409787836e-17)
(0.603047341043907 0.000458070582951367 2.98645321844696e-17)
(0.37120247443803 0.00232957319753345 5.05610202506756e-17)
(0.602769916383456 0.000462185690858459 4.0160700462143e-17)
(0.370663763195329 0.00233989047980438 1.98643538105347e-17)
(0.602488159660656 0.000466241068835735 -2.21956390513331e-17)
(0.370114769461933 0.00235056265413039 2.63609275406855e-17)
(0.60219981302597 0.000470444305968252 -6.27734540677046e-17)
(0.36955489018879 0.00236103663906383 -8.60137939043529e-17)
(0.601902558153964 0.000474982355975663 3.38380946313322e-17)
(0.368982426462122 0.00237226864602746 -2.38904121075642e-17)
(0.601595723856283 0.000479339769792727 7.42895949784848e-17)
(0.368394576783467 0.0023838295826964 9.34531189784694e-17)
(0.601281903628956 0.000483170134120628 8.15231506267386e-17)
(0.367792819431984 0.00239499503850101 1.17429980581509e-16)
(0.600960372509652 0.000486724052809797 4.61347823717296e-17)
(0.367177872455317 0.00240553484968457 1.29757191640682e-16)
(0.600629878737291 0.000490310090400721 1.17985776405616e-18)
(0.366547615777398 0.00241613774248428 -3.28075607186593e-17)
(0.600290009964285 0.000494037838822614 1.35834150338365e-17)
(0.365901325782405 0.00242703835822776 1.59188257348553e-17)
(0.59994191416941 0.000497864890536657 4.76680307411021e-17)
(0.365238709766061 0.00243848630555721 3.34821109513318e-17)
(0.599584695764705 0.000501914970131755 3.40010655753256e-17)
(0.364560250352955 0.00245019381780977 8.93105632309628e-17)
(0.599215287609407 0.000506202599945702 -1.78303703955989e-17)
(0.363863912144037 0.00246260517115734 -2.39687608542309e-17)
(0.598833198663426 0.000510386706047435 -8.93149646897001e-17)
(0.363146462745231 0.00247531945886711 -1.20759741035209e-16)
(0.598440909106847 0.000514410616373462 -8.69997327193478e-17)
(0.362409595782075 0.00248802327514573 -1.78030331274655e-16)
(0.598038979505227 0.000518309010747056 -8.0608136212827e-18)
(0.361653969198245 0.00250093456388385 -3.19258890890218e-17)
(0.597625495707559 0.000522538543500304 3.30211848338621e-17)
(0.36087787923979 0.00251381764774171 1.22104802486756e-17)
(0.597197978337074 0.00052772758351192 8.03770058302418e-17)
(0.360080230507762 0.00252817092508585 1.14616594889938e-16)
(0.596755862026163 0.000533322847726257 8.70457066366523e-17)
(0.359257703415049 0.00254432346148314 2.09096155069195e-16)
(0.596301950267928 0.000538424586395213 5.74874873634681e-17)
(0.358411563563414 0.00256063384020695 1.40845863253159e-16)
(0.595835373396504 0.000543282267523733 1.09254130736411e-16)
(0.357542909393326 0.00257616996983707 7.00794710635877e-17)
(0.595355416647185 0.000549074654401762 1.24415104828169e-16)
(0.356648526402276 0.00259251667769449 2.31617484316095e-16)
(0.594860433825507 0.000556808769468888 6.11713283258044e-17)
(0.355729133334835 0.00261148993158759 1.36083193001588e-16)
(0.594350785375269 0.000565137257602839 5.56040496650327e-17)
(0.354782548354951 0.00263438312985908 9.06606619766701e-17)
(0.593825018578571 0.000572729500078238 6.44794551845129e-17)
(0.353807511161021 0.00265603108558659 1.27700117506155e-16)
(0.593284421541661 0.0005808341323648 1.06752014734228e-16)
(0.352804766610981 0.00267779939503246 -4.42613842511036e-19)
(0.5927291780718 0.000591554775622954 2.7221936970713e-17)
(0.35177245469997 0.00270192422662514 6.83917362652631e-17)
(0.592163940930475 0.000604364177388188 -2.38138272182581e-17)
(0.350714911190899 0.00273272028097431 -2.11557091268292e-16)
(0.591580473765733 0.000617273517506501 6.90113910021003e-17)
(0.349629685735666 0.00276418647600364 -2.58064587836619e-17)
(0.59098023922062 0.00063102259452368 7.06386487794734e-17)
(0.348510761599757 0.00279645173495379 1.89651695995283e-16)
(0.590365338684143 0.000649389053975224 -1.75686288243819e-17)
(0.347363596651302 0.00283175137426703 9.98497908100909e-17)
(0.589743277926132 0.000671437852056729 9.16759793706364e-19)
(0.346192310247837 0.00287952555437735 -6.91350889306687e-17)
(0.589106902731576 0.000693396365604472 1.39150925524362e-17)
(0.344995708711451 0.00292744088737618 7.58440841940733e-17)
(0.588459295765032 0.000717160399921043 -1.37316309671695e-18)
(0.343772924548357 0.00297644911546735 -1.23607066249676e-16)
(0.587803170299367 0.000748726532052271 -3.67348094035481e-17)
(0.342527959373706 0.00303138628999994 1.36965259841303e-17)
(0.587153512007894 0.000787071962933959 -4.3906311653498e-17)
(0.341272204301762 0.0031060966907399 -1.65776907683083e-16)
(0.58650359107765 0.000826491663183233 -5.76033702020875e-17)
(0.340009976215456 0.00318373531610797 8.96401807028429e-17)
(0.585855860224944 0.000869494278689599 -1.00852354718638e-16)
(0.338740804884521 0.00326354976837115 -1.19123425742527e-16)
(0.585214534227772 0.000925911237826743 3.32146168720655e-17)
(0.337474113408008 0.00335386201045554 -1.03147062142023e-16)
(0.584604691638027 0.000994599805204403 9.34063902110261e-17)
(0.336229360629478 0.00347703256957068 5.89829625747288e-17)
(0.584027619691423 0.00106521450619643 5.72810760525546e-17)
(0.335022742150538 0.00360756683516345 1.35569391717824e-16)
(0.583488472961042 0.00114078694856665 6.31056463911855e-17)
(0.333864039187309 0.00373872693048498 8.62594854520689e-17)
(0.582995806944373 0.00123819056769159 1.24678841492016e-16)
(0.332771196769642 0.00388621717434927 1.58730191974091e-16)
(0.582589441691259 0.0013586645118511 1.4451206424054e-16)
(0.331781990309654 0.00408666254921165 1.73598880453869e-16)
(0.582289009046347 0.00148336174832119 9.82225852329852e-17)
(0.330934720765134 0.00430794188936107 2.39191561338282e-16)
(0.582107493888009 0.00161288372480299 -7.15539008085459e-17)
(0.330261576432386 0.00452344780063398 1.57220684401169e-16)
(0.582078571817593 0.00177897237039537 -1.3740657707151e-16)
(0.329805653036919 0.00476139582897585 -2.9350770338329e-16)
(0.582295568835117 0.00200689252164321 -6.68488980846793e-17)
(0.32966634048801 0.00509202891045745 -1.11005405836914e-16)
(0.582913706509818 0.00228836582422982 -1.5901408505445e-17)
(0.329996966584003 0.00552480826983652 -1.52310581682144e-16)
(0.584171616718639 0.00263508807413077 2.21774668135326e-17)
(0.331031099638545 0.00602760681139939 8.73761607295118e-17)
(0.586382886087234 0.0031678840550529 6.31316208774533e-18)
(0.333159892884897 0.00667033377745177 3.29993494434974e-18)
(0.589985000036757 0.00394793549583306 2.35062836277328e-17)
(0.336991998068281 0.0077512084287672 1.97515576130755e-17)
(0.59522808894492 0.00477826976127547 4.68257098982544e-18)
(0.343003226806912 0.00915124166742167 7.43658215331403e-17)
(0.602050553078258 0.00554935800080653 6.92855581914032e-18)
(0.351435050630356 0.0103778341189045 -5.59934366935289e-17)
(0.610527797344349 0.00640415376543508 6.70488484130924e-17)
(0.36259826869596 0.0115758878087031 7.9949806371879e-17)
(0.620896751288154 0.00728025150769783 5.43825091166507e-17)
(0.376734703278728 0.0130109166259086 1.88157010772078e-16)
(0.633154189271545 0.00792435287791015 -3.94615555887855e-17)
(0.393963193059282 0.0142122844784752 3.11402978313148e-17)
(0.647196720066225 0.0083373686577096 -1.16517839533753e-16)
(0.41428608147396 0.0148789386233628 -7.98259639717215e-17)
(0.662974163806083 0.00870322603385233 -1.87827824942857e-16)
(0.437699724345804 0.015308987887639 -5.78999947075562e-17)
(0.680559507828157 0.00890466898076596 -7.97166019515447e-17)
(0.464022508545521 0.0157376175403073 -3.69689184572835e-16)
(0.699615364584444 0.00877824973722703 8.87756499525383e-17)
(0.492994388473099 0.0155768289217271 1.5375028410615e-16)
(0.719913186882325 0.0084367762410461 3.0402172891048e-17)
(0.524299971236248 0.0149389640864255 2.03854106859783e-16)
(0.741228003931584 0.00796028223717416 2.61145929343842e-17)
(0.557486423430756 0.0140459150019848 -8.25560458918406e-17)
(0.763391280904085 0.00729013239931949 -6.26992548483207e-18)
(0.592129889660221 0.0129244157125093 8.25959871250456e-17)
(0.786076053786752 0.00644672419564707 -1.08661922360589e-17)
(0.627865748891606 0.0113868436260777 -1.09737138481189e-16)
(0.809145971306506 0.00552627869481786 6.71688674572043e-18)
(0.66436480647951 0.00970403127245056 1.69017325216913e-16)
(0.83246936434035 0.00452047438925827 -1.04515585816328e-16)
(0.701240944725695 0.0079012284325864 -1.35857373832375e-16)
(0.855879455802421 0.00349285813836686 -1.10022908170287e-16)
(0.738338347609405 0.00594174107744573 -2.80066121348405e-16)
(0.879422228336782 0.00251592220094225 -1.0784288717629e-16)
(0.775578295973877 0.00407619490340563 -1.57558203896855e-16)
(0.903127405261986 0.00156969007221189 2.70169731363893e-17)
(0.812881279945474 0.0022824306302818 -2.75354246609325e-16)
(0.926978848494416 0.000700021513503255 1.49339449417987e-16)
(0.850391445875553 0.000507780587502662 1.77015380455064e-16)
(0.951143875824007 -4.91990430353469e-05 4.70370102990409e-17)
(0.888100452091321 -0.00104310691873089 2.10774203767151e-17)
(0.976036815373099 -0.000661969245059776 -9.29699081822021e-17)
(0.926755382757023 -0.00240811800111624 -1.2756984960728e-16)
(1.00165918359141 -0.00111474115014369 -5.22145658243447e-17)
(0.965937657119816 -0.00353233416439087 -3.43042188671071e-16)
(1.02880897613795 -0.00133506703481797 6.27180150428687e-19)
(1.00822818292199 -0.00445353152609732 1.30593589168863e-16)
(1.05670189084489 -0.00162142202999716 -3.08926015317845e-17)
(1.04917105933699 -0.004895840743892 -1.25135388862891e-16)
(1.08564055242088 -0.000736155086609859 -5.94038451842133e-17)
(1.10092309070364 -0.00524939069457947 8.69134063485473e-17)
(1.08554171933326 1.59314723200964e-05 -4.20318706835969e-17)
(1.12228491619321 -0.00066146872958798 -2.36417172123008e-16)
(1.08821026656184 0.000100958335940585 1.41910730540493e-18)
(1.11674437947139 -0.000600827273863517 -1.47720381673583e-17)
(1.08918753980278 0.000266881553202195 -1.55684929820873e-17)
(1.12101288436056 -0.000119602020855628 -6.35191605181894e-17)
(1.09024201761296 0.000398185155213566 3.65307007255022e-17)
(1.12025565531286 9.6453239789787e-05 2.30436572208572e-19)
(1.09063571529828 0.000484772632472976 5.74722768093068e-17)
(1.12095663137377 0.000369581308039917 6.20643805043331e-17)
(1.09080201396419 0.000504465720911522 8.36072290269848e-18)
(1.12046950930729 0.000471477365120348 8.37735284194507e-17)
(1.0907048332328 0.000530193573672537 -5.49767953448047e-17)
(1.12016509438756 0.000560524328126025 -5.07286041961341e-17)
(1.09042086977906 0.000532194664047456 -4.80124164094801e-17)
(1.11949045747819 0.000628953955750621 -1.2831587022438e-16)
(1.0900408966932 0.00051117387281153 -1.36529048136912e-17)
(1.11875069071897 0.000647762471922302 -2.20373427214741e-17)
(1.08961751411423 0.000488422217016626 -4.75351335317623e-18)
(1.11796060093928 0.000651491015249778 -3.10999011277211e-17)
(1.08914541542587 0.000455821498509684 1.12378205354929e-17)
(1.11714007586262 0.00064549601873421 -7.18349119878479e-18)
(1.08861920615095 0.000425308487321148 9.90035482795113e-18)
(1.11625975184803 0.000616279314515201 1.24071450619638e-17)
(1.08789021140594 0.000436847557825816 3.15454674276803e-18)
(1.11546564703928 0.000588858484373436 6.95071662121953e-18)
(1.11420964715239 0.000452142153849112 3.43511563343796e-18)
(0.139013748847677 0.00341096552562777 -5.73579982045824e-18)
(-0.0132559945541952 0.00517998540587165 -3.40504084956832e-18)
(0.140063060120336 0.0039096203237431 -6.88730351724839e-18)
(-0.0104184668552832 0.00570012506936367 -5.52564610541441e-18)
(0.140291767012264 0.0042664591305925 4.26805680579863e-19)
(-0.0103775851635277 0.00639097312929322 -9.74386941685722e-18)
(0.139998818941745 0.00451335574184358 -2.58860999802182e-18)
(-0.0106849475627165 0.00690393962680902 -4.04375991573229e-19)
(0.139445594444216 0.00464405606000666 -1.27703884679873e-17)
(-0.0113169265046593 0.00717367267383705 -1.17193115116443e-17)
(0.138779076855869 0.00470698623169883 -1.04380421585349e-17)
(-0.0121116006846819 0.00729718669117934 -1.26336329256986e-17)
(0.138065501977261 0.00474065736636752 -2.8203665795181e-17)
(-0.0129718831864752 0.00735505145274758 -1.11784852785707e-17)
(0.137330186927855 0.0047642244385375 -2.47861321501726e-17)
(-0.0138607556178885 0.00738906500629825 -4.25147050676768e-17)
(0.136578955642657 0.0047845582717164 2.7884201768756e-17)
(-0.0147681547726991 0.00741584659443378 -1.35945527477002e-17)
(0.135812216207298 0.00480367083112174 4.05584648677465e-17)
(-0.0156933218153044 0.0074404405227558 3.34034865723202e-17)
(0.135029689790384 0.00482256228454964 5.86054528587213e-18)
(-0.0166365064531457 0.00746437927651858 2.93036276775616e-17)
(0.134231401620885 0.00484166018503646 -3.78247821674104e-17)
(-0.0175981333788841 0.00748870324382892 -6.08757539697223e-18)
(0.133415580328556 0.00486121929956747 -4.68806777914135e-17)
(-0.0185791426695996 0.00751336247951224 -5.50189111966277e-17)
(0.132580839001565 0.00488144104174061 3.60263179490685e-17)
(-0.0195810325809372 0.00753895540085809 2.95550662948039e-17)
(0.131726550629937 0.0049017233999832 1.37037779291268e-16)
(-0.0206052093743845 0.00756517519438648 1.24753778355671e-16)
(0.130852552695538 0.00492156355347718 1.66208558744877e-16)
(-0.0216518557993447 0.00759116423970271 2.36403309278414e-16)
(0.129957555765593 0.00494119862694567 5.04242366897959e-17)
(-0.0227218306204654 0.00761684966788837 1.44272957572399e-16)
(0.129040185808704 0.00496113527361986 -1.80560066053607e-17)
(-0.023817030755081 0.00764279598006873 -5.48999263403723e-17)
(0.128099649418145 0.00498167336761357 3.59952066206707e-17)
(-0.0249386040200231 0.00766940301367756 4.13530316510548e-17)
(0.12713570855519 0.00500283189365466 7.54349671990644e-17)
(-0.0260872349391168 0.00769685932061358 5.84208517402314e-17)
(0.12614700720302 0.00502471107727279 3.1015790123394e-17)
(-0.027263564045018 0.00772506149903996 6.64636785186827e-17)
(0.125131630843084 0.00504730660541475 -1.27786970954928e-16)
(-0.02846933582184 0.0077543799042373 -5.31895727677258e-17)
(0.124088421906995 0.00507024036184618 -2.10311765864463e-16)
(-0.0297067047226536 0.00778442335407351 -1.80415743723342e-16)
(0.123017210610186 0.00509344132143657 -1.22737483537264e-16)
(-0.0309761266670875 0.00781483290969383 -1.7840306040723e-16)
(0.121917173018154 0.00511696941152412 -1.15458092901914e-17)
(-0.0322783615333994 0.00784581515928344 -3.34683607309503e-17)
(0.120785978370385 0.0051415713658875 9.4437715185434e-17)
(-0.0336155599609046 0.00787741235579996 8.79912991264243e-18)
(0.119622014198695 0.00516821220000878 2.44490357973435e-16)
(-0.0349894732178982 0.00791108563637547 2.28228084929606e-16)
(0.118424943402925 0.00519615851080058 2.63614574554046e-16)
(-0.036401589569205 0.00794718247073829 3.10742958264897e-16)
(0.117194248647944 0.00522404599511109 1.53716711544767e-16)
(-0.0378521393850017 0.00798391066049136 2.78829729266627e-16)
(0.115927505805485 0.00525226919031999 1.93381600331546e-16)
(-0.0393428063914792 0.00802055901671064 9.17264734513829e-17)
(0.114622881681611 0.00528279750605993 2.43579073416121e-16)
(-0.0408770774494728 0.00805866246302791 2.40540859676272e-16)
(0.113279909950985 0.00531728845251015 1.65944538262418e-16)
(-0.0424554480722161 0.00810056007829305 2.57057460716578e-16)
(0.111899253369613 0.00535363712549652 1.63408017791355e-16)
(-0.044077697132995 0.00814697529348667 3.54557320597397e-17)
(0.110477540782879 0.00538978751844453 6.23331734368347e-17)
(-0.0457455009289485 0.00819329813561681 1.58967487518133e-16)
(0.109012767865237 0.00542781724774013 -3.92595715210776e-17)
(-0.0474620877261027 0.00824026614473864 -3.82097533534176e-17)
(0.107505396606871 0.00547135286479559 -1.7231049309024e-16)
(-0.0492298208537491 0.00829122050187136 6.42285023390745e-17)
(0.105959149159545 0.00551952571608664 -2.13759321464889e-16)
(-0.0510446961299902 0.00834957394646506 -2.57249178974204e-16)
(0.104369433205224 0.00556913428156158 9.57459145458432e-17)
(-0.0529068854972838 0.00841055282485234 -1.75348124151438e-16)
(0.102733867640549 0.00562165547444426 2.19192036536762e-16)
(-0.0548222843030876 0.00847297570554407 1.90567403564079e-16)
(0.101054708823099 0.00568358600272174 4.79260813217859e-17)
(-0.05679068966464 0.00854096136363761 2.09259401240668e-16)
(0.0993413907828976 0.00575330480913314 6.38215653132411e-18)
(-0.0588042974842976 0.00862245538594328 -6.56151848044332e-17)
(0.0975900928464048 0.00582450578781409 -6.28015118803832e-17)
(-0.0608597057226626 0.00870672935630309 8.61069782781297e-17)
(0.0957995163569629 0.00590064280521902 -1.08427487080359e-16)
(-0.0629615816674457 0.00879271741082021 -1.8327182907216e-16)
(0.0939761701963494 0.0059923908640153 -1.1642370577994e-16)
(-0.0651091299670006 0.00888827100240593 -4.13200199814138e-17)
(0.0921397231519305 0.00609800148758608 -3.10906287048663e-17)
(-0.0672844233220293 0.00900552871091347 -1.79681433960731e-16)
(0.0902909045214976 0.00620749612422719 2.75513739196209e-17)
(-0.0694745522190669 0.00912928459138006 2.28100602851387e-16)
(0.0884309797384775 0.0063254810221104 -1.21428072577217e-16)
(-0.0716819541816715 0.00925607119962902 -6.43006358612354e-17)
(0.0865751438018321 0.00646978099057121 -7.70674783105745e-17)
(-0.073900250352561 0.00939856349935399 -2.16295059536094e-16)
(0.0847633481400514 0.0066383479131775 1.01533366129614e-16)
(-0.0760933128633202 0.00957744973224444 -6.06101547413378e-17)
(0.083009862408924 0.00681240719278789 1.6471490194541e-16)
(-0.0782265869643155 0.00976799132166162 2.78682241447823e-16)
(0.0813230345892467 0.00699745197649252 1.82678469359382e-16)
(-0.0802930742836804 0.00995957998742287 1.60939105241232e-16)
(0.0797356613974969 0.0072245128197064 2.08027489568343e-16)
(-0.082276913101271 0.0101740139909794 3.20637286062778e-16)
(0.0783262531005406 0.00749572319776693 2.69058880510935e-16)
(-0.0841063475696905 0.0104479768925445 1.76485421382536e-16)
(0.0771445242137224 0.00777596558101407 2.98467162008305e-16)
(-0.0856986387152744 0.0107475317548207 3.27692523651429e-16)
(0.0762168038728654 0.0080663345584825 -6.71189987699949e-17)
(-0.0870200140864201 0.0110403673467702 3.37801481635644e-16)
(0.0756205025074197 0.00842669100093354 -2.66563150263639e-16)
(-0.0880335858167645 0.0113620981404024 -4.71193485507295e-16)
(0.0755470260986379 0.00890524536648419 -1.97153787976319e-16)
(-0.0885878229163753 0.011792966780809 -2.07491299095908e-16)
(0.076257172078307 0.00948766120984833 -4.78058535224861e-17)
(-0.088421433462649 0.0123449672212349 -3.19601601988178e-16)
(0.0780650961706467 0.0101985427706994 6.81924181853432e-17)
(-0.087244523096081 0.0129790635524084 1.89347932085028e-16)
(0.0814939396584639 0.0112646947467421 1.68748808635862e-17)
(-0.0846913479662722 0.0138002052789417 1.64254129644571e-18)
(0.0874768451336947 0.0127905923120246 7.11113335736277e-17)
(-0.0798864140927003 0.0151352237812515 1.63218823312142e-16)
(0.0967667156512301 0.0143909256291504 1.30707437302936e-17)
(-0.0716767389208746 0.0168168706550285 1.56986426202865e-16)
(0.109518196060737 0.0158483090383998 1.77378452763285e-17)
(-0.0596042587032103 0.0182844244757376 -1.22503512191091e-16)
(0.126096887191899 0.0174185234486034 2.02163507157422e-16)
(-0.0434973997649649 0.0196867499425372 1.5901937754614e-16)
(0.147192906345118 0.0189676721991941 1.64802221365929e-16)
(-0.0225756282090821 0.0212901732393713 3.85294149748761e-16)
(0.172856012716136 0.020006954146537 -9.4908734940128e-18)
(0.0037503336019797 0.0225475351832635 6.09329197814704e-17)
(0.202685940258266 0.0205406471238325 -2.07618410760959e-17)
(0.0350784484060186 0.0230971557759021 -5.44795373385201e-17)
(0.2366156061955 0.0209095323520857 -2.40781062195481e-16)
(0.0710168439309349 0.0233082949445784 7.6874941609105e-18)
(0.274778821876301 0.0208846582061405 -1.35333462381561e-16)
(0.111840305226237 0.0233915460366904 -5.50387811926001e-16)
(0.316438706007014 0.0201667716563781 2.69375228868049e-16)
(0.157236349926206 0.0227251195710482 3.17119177654935e-16)
(0.360893146402499 0.0189782818669688 9.05836839185033e-17)
(0.206162149912839 0.0214057679831703 3.14883009155695e-16)
(0.407687602892234 0.0174764876027127 -2.59432098542879e-17)
(0.257960065224104 0.0197275847302518 -2.79954823862955e-16)
(0.456364139285283 0.015560220196261 -2.10964045001231e-17)
(0.312225461857912 0.0177015107340604 6.81339697301509e-17)
(0.506182656134389 0.0132867369624682 7.04051381401642e-17)
(0.368189190466695 0.0151659734280658 -1.285764582864e-16)
(0.556745557713416 0.0108443169423663 2.61303181434457e-17)
(0.425143502517045 0.0124155892936163 2.50236304866534e-16)
(0.607700011759308 0.00823007871633748 -3.11047373839061e-16)
(0.482711164805288 0.009496836255241 -2.71879768407681e-16)
(0.658689304885569 0.00557927639878688 -3.2665703888894e-16)
(0.540407281243232 0.00640823680905333 -3.58723064444528e-16)
(0.709769216234724 0.00302847019916919 -3.2427859641521e-16)
(0.598062739686227 0.00342435443653001 -3.04758181855955e-16)
(0.760982020211598 0.000540280849160859 -1.23383783684141e-16)
(0.655786667884176 0.000525341257322133 -4.61230423882414e-16)
(0.812305733349094 -0.00178952470499827 4.89752376966187e-17)
(0.713596409906621 -0.00232632162302694 1.64024318731216e-16)
(0.864173230107855 -0.003877744619904 -1.52515987287732e-16)
(0.771402078673347 -0.00490405858152848 -1.54203318924902e-16)
(0.917229352186544 -0.00571347597406983 -3.7587278334039e-16)
(0.830501336159849 -0.00725452098903175 -2.49846480738384e-16)
(0.972025575772656 -0.00725688313769725 -1.56425407450164e-16)
(0.890176271438671 -0.00930893110419819 -6.92185574353764e-16)
(1.02941579326924 -0.00835389635314604 3.00190949176505e-18)
(0.954444157721007 -0.0111502908492733 2.70698443490263e-16)
(1.09016228437671 -0.00901580194402794 -6.19040977447657e-18)
(1.01656876782556 -0.0123239069941156 -2.53865922538222e-16)
(1.14716866663976 -0.00480892387344246 -9.05374918397504e-17)
(1.09546549022975 -0.0125306009106021 9.81949019152763e-17)
(1.14896115774654 -0.000728294064982148 -2.07073997065722e-16)
(1.12729374279492 -0.000943850677188188 -3.91771561590887e-16)
(1.15027793471781 -0.000344568910744765 -7.87337868235767e-17)
(1.11717355106011 -0.000781891654331066 -1.07803839639238e-16)
(1.15059641675143 4.98031011620409e-05 -4.73338532757478e-17)
(1.12255021589864 -0.000160292962161681 3.55006294247574e-17)
(1.15051405837441 0.000370173512295088 2.59212462643944e-17)
(1.12025213924111 0.000116832276587375 4.24120752654371e-17)
(1.15004361712653 0.000590566425589569 8.80993759977464e-17)
(1.12060140217935 0.000445137789306409 4.16502290211041e-17)
(1.14930219567342 0.000689040200826265 2.43868084225669e-17)
(1.11938599305891 0.00058280888659083 1.26287052109113e-16)
(1.14838018783459 0.000783177753318335 -1.23543311150255e-16)
(1.11852350676811 0.000693819317373345 -6.17764787987722e-17)
(1.14732866785152 0.000832976378266292 -1.01740471104006e-16)
(1.11729819604949 0.000776994556567284 -1.75656578033951e-16)
(1.14619603522093 0.000838474894893383 -3.92814969125296e-17)
(1.11608000320796 0.000803548378517212 -4.09471773101513e-17)
(1.14502988027632 0.000836039413819705 -3.32682743078429e-17)
(1.11477473951004 0.000808440434124936 -6.11762756466916e-17)
(1.14385488962451 0.000814365580839394 -5.85567215960754e-18)
(1.1134909961435 0.000800565357120857 -3.33893936087228e-17)
(1.1427036330894 0.000793799036420271 9.45568231710043e-18)
(1.11216812006473 0.000765675890686303 5.05214982398666e-18)
(1.14163652984687 0.000793115855224714 7.20276876416746e-18)
(1.11109249274331 0.00072639747544563 1.37200829490717e-17)
(1.10998607326922 0.000521553460828995 4.70383518907998e-18)
(-0.16410619267552 0.00756584816891601 -3.18245141813724e-18)
(-0.236677543821454 0.00845301335921072 -2.95063290259922e-18)
(-0.163157280152377 0.0083644765079306 -8.40135492869803e-18)
(-0.235126915170821 0.00931333966767734 -4.0256207797828e-18)
(-0.163277354468688 0.0092760895717014 -1.06266979898695e-17)
(-0.235733188904326 0.0107609944554877 -2.1303317476495e-17)
(-0.163930356125584 0.00982580024183465 -9.6055884124309e-18)
(-0.23652623264091 0.0116407380817096 -1.23724139120857e-17)
(-0.164810014965556 0.0100936527610323 -1.15769282366544e-17)
(-0.23747426683411 0.0120631709124607 -1.22807040836523e-17)
(-0.165785396435501 0.0102160321106071 -1.33894900865726e-17)
(-0.238498709271451 0.0122500167520786 -9.47076739214672e-18)
(-0.166804382359403 0.0102775741731545 -2.55449641105924e-17)
(-0.239557840542386 0.0123364963982718 -1.36849013339715e-17)
(-0.167848183780986 0.0103178366508095 -3.12961889782445e-17)
(-0.240638570861155 0.0123866732451558 -3.60561475217442e-17)
(-0.168912057066172 0.0103517824675845 -8.18655869988921e-18)
(-0.241738330383407 0.0124259549666672 -4.63594400914597e-17)
(-0.169996090679747 0.0103841296251624 2.20258135034791e-17)
(-0.242857772156347 0.0124625607569538 -1.13020659329102e-17)
(-0.171101097265923 0.0104164840511747 1.73390970222122e-17)
(-0.243997965096094 0.0124988526169434 4.5915614208045e-18)
(-0.172227772891536 0.0104493737175678 -2.33150493107638e-17)
(-0.245159756284562 0.0125357785638354 1.35207279210807e-17)
(-0.173377459507977 0.0104830428543809 2.20343037034842e-17)
(-0.246344112761514 0.0125733798979146 8.48577763244335e-18)
(-0.174551248841923 0.010517610131561 1.19007591970914e-16)
(-0.24755215308059 0.0126120254306208 8.04282615300809e-17)
(-0.175749950645017 0.0105525654540222 2.2491260310138e-16)
(-0.248784821491865 0.012651492806594 1.4901089795017e-16)
(-0.17697469205723 0.0105874849919721 2.1450567462519e-16)
(-0.250042987286794 0.0126911807296191 2.59893357439719e-16)
(-0.178227054292865 0.0106225746566305 3.83577755560209e-17)
(-0.251328062115198 0.0127310233417968 1.13624218587056e-16)
(-0.179508561569692 0.0106582984122015 4.8937486444826e-18)
(-0.252641758451477 0.0127714396983037 -1.05413947552267e-17)
(-0.180820299055505 0.010694963413669 6.39796196193728e-17)
(-0.253985347932849 0.0128127814035809 9.01145396215822e-17)
(-0.182163159767028 0.0107326370159077 4.9328967259269e-17)
(-0.255359819545131 0.0128552302582003 8.81578317287428e-17)
(-0.183538567013661 0.0107714330793867 -1.83412999813939e-17)
(-0.256766242709083 0.0128987565552394 8.04426087902142e-17)
(-0.184948103471902 0.0108113421938771 -1.0606175029821e-16)
(-0.258206071350728 0.0129436151800222 -8.09377484368773e-18)
(-0.186393268365961 0.0108520459011194 -1.48173531983971e-16)
(-0.259680950388081 0.0129895410804031 -4.91623364638281e-17)
(-0.187875387085131 0.0108934879186409 -8.8533560660204e-17)
(-0.26119222165297 0.0130362892067549 -1.40282160934657e-16)
(-0.189396077880887 0.0109357971415399 -1.300582337169e-17)
(-0.262741397344184 0.0130840291732792 -7.34747364353589e-18)
(-0.190957624256684 0.0109796963799803 1.43498670281299e-16)
(-0.264330637035596 0.0131328767076328 -4.03898609200402e-17)
(-0.192561400010543 0.0110260335150383 2.94986326412741e-16)
(-0.265961657088936 0.0131839447330166 2.33335628296925e-16)
(-0.194208068862422 0.0110741642783496 3.26168445904957e-16)
(-0.267635420583867 0.0132375103825604 2.95561054092584e-16)
(-0.195899473681871 0.0111229344708227 2.16554875828002e-16)
(-0.269352985729259 0.0132922499494737 4.49151537027613e-16)
(-0.197638656326576 0.0111727498466027 1.39103082827906e-16)
(-0.271116965500451 0.0133476656100772 4.24898470802435e-17)
(-0.199427867858206 0.011225456014094 2.54123335185705e-16)
(-0.272930604743599 0.013404965791231 1.40812165422437e-16)
(-0.201267290353821 0.0112825198012533 1.2564127412443e-16)
(-0.274794875122414 0.0134660282951507 2.97537769170541e-16)
(-0.203156679043449 0.011342118441005 3.08217489638254e-17)
(-0.276709161314703 0.0135313657514841 -8.80751078473293e-17)
(-0.205099749907765 0.0114024570954344 5.77216183311855e-17)
(-0.278675202920168 0.0135975537398401 1.18938777009111e-16)
(-0.207099853358377 0.01146547557663 6.61119918651681e-17)
(-0.280697128443331 0.0136651023476056 -6.18081461233817e-18)
(-0.209156751131199 0.0115344324429187 -2.11970109713941e-17)
(-0.282777424817362 0.0137367442282885 1.62189309330579e-17)
(-0.211267609355785 0.0116086783081668 -2.18558640930026e-16)
(-0.284913262132913 0.0138150557200604 -2.43594158809181e-16)
(-0.213435156303128 0.0116854102738272 -7.99122078481141e-17)
(-0.287103986686136 0.0138965395372122 -2.50288969603058e-16)
(-0.215662966406519 0.0117660605880036 1.80542823169726e-16)
(-0.289354168041678 0.0139801348461471 1.15148149185075e-17)