/*--------------------------------*- C++ -*----------------------------------*\
| =========                 |                                                 |
| \\      /  F ield         | OpenFOAM: The Open Source CFD Toolbox           |
|  \\    /   O peration     | Version:  4.1                                   |
|   \\  /    A nd           | Web:      www.OpenFOAM.org                      |
|    \\/     M anipulation  |                                                 |
\*---------------------------------------------------------------------------*/
FoamFile
{
    version     2.0;
    format      ascii;
    class       volScalarField;
    location    "0.000650";
    object      p;
}
// * * * * * * * * * * * * * * * * * * * * * * * * * * * * * * * * * * * * * //

dimensions      [0 2 -2 0 0 0 0];

internalField   nonuniform List<scalar> 
3072
(
16.022238
50.21706
103.98497
162.58822
225.2114
292.11572
362.6388
436.017
511.49732
588.14259
665.17704
741.74135
816.97649
890.10932
960.4063
1027.3055
1090.2962
1148.9531
1202.8546
1251.6039
1294.8881
1332.463
1364.1655
1390.2182
16.023705
51.896964
103.79172
161.79438
224.17634
290.9283
361.38466
434.77389
510.30095
587.05784
664.25635
741.02085
816.48304
889.84334
960.35664
1027.4478
1090.6068
1149.4114
1203.4439
1252.307
1295.6826
1333.3489
1365.1408
1391.2165
16.630263
53.591189
104.10711
161.43957
223.60761
290.27511
360.75086
434.21641
509.82579
586.68922
663.9974
740.88347
816.47656
889.96613
960.60526
1027.8147
1091.0847
1149.9989
1204.1242
1253.0589
1296.4672
1334.2559
1366.1436
1392.2202
17.261135
55.078004
104.61199
161.40598
223.31828
289.87699
360.34695
433.86671
509.54509
586.50087
663.89585
740.86024
816.52728
890.09431
960.82277
1028.1329
1091.4972
1150.53
1204.7457
1253.7633
1297.269
1335.0756
1367.0211
1393.116
17.859234
56.367951
105.30326
161.63854
223.31517
289.76917
360.22974
433.77727
509.49819
586.51778
663.95564
740.93664
816.60949
890.20092
960.98305
1028.3837
1091.8592
1150.9573
1205.2404
1254.3283
1297.912
1335.7751
1367.7826
1393.9209
18.484106
57.601517
106.15479
162.09955
223.59903
289.93645
360.37832
433.90539
509.62535
586.67095
664.10072
741.0415
816.68294
890.25934
961.06557
1028.5189
1092.0735
1151.2487
1205.5969
1254.7412
1298.3951
1336.3329
1368.4066
1394.5492
19.194058
58.79018
107.20737
162.8715
224.12661
290.36264
360.83661
434.26874
509.90013
586.88555
664.24935
741.12489
816.70785
890.24919
961.05268
1028.5225
1092.1251
1151.3738
1205.7876
1254.9815
1298.7039
1336.7144
1368.8127
1394.9008
19.964868
60.110145
108.51927
163.99728
225.09373
291.52111
361.83606
434.84728
510.34397
587.21008
664.45723
741.22085
816.70499
890.18108
960.95766
1028.424
1092.0553
1151.368
1205.8429
1255.0746
1298.8244
1336.8524
1368.9473
1394.9919
16.026324
51.898418
103.8069
161.81683
224.21247
290.9636
361.4005
434.75866
510.24916
586.97727
664.17342
740.96603
816.47006
889.86537
960.39547
1027.4846
1090.6282
1149.4132
1203.4302
1252.2857
1295.658
1333.3313
1365.1417
1391.2303
16.330117
52.788267
103.46304
160.93157
223.17455
289.8821
360.34853
433.78128
509.36163
586.21591
663.56402
740.53676
816.24628
889.85089
960.58468
1027.8579
1091.1599
1150.0685
1204.2008
1253.1697
1296.6616
1334.392
1366.2887
1392.3608
16.875574
53.864315
103.46994
160.42186
222.5103
289.18105
359.69769
433.2311
508.91948
585.89232
663.35253
740.44069
816.27372
890.00474
960.8704
1028.2748
1091.703
1150.7152
1204.9372
1253.9801
1297.5492
1335.2992
1367.2279
1393.296
17.337048
54.848931
103.66812
160.23384
222.14104
288.73887
359.26546
432.86293
508.63278
585.69977
663.23996
740.39345
816.28975
890.09204
961.04572
1028.5576
1092.1155
1151.2151
1205.5089
1254.5995
1298.1701
1335.9876
1367.9575
1394.0186
17.743852
55.757807
104.1516
160.37047
222.10449
288.6298
359.15356
432.78809
508.60976
585.74163
663.32297
740.48462
816.37125
890.17687
961.16696
1028.7498
1092.3821
1151.5695
1205.9084
1255.0323
1298.6321
1336.4888
1368.4858
1394.5526
18.152264
56.664806
104.85489
160.80901
222.39917
288.85678
359.34866
432.97133
508.7956
585.94526
663.51927
740.63886
816.47175
890.23727
961.22212
1028.8314
1092.5098
1151.7473
1206.1096
1255.2443
1298.8723
1336.7759
1368.8121
1394.885
18.590228
57.61754
105.81846
161.60346
223.03348
289.3476
359.829
433.42877
509.20515
586.31128
663.80947
740.83611
816.57772
890.27366
961.21428
1028.7943
1092.4676
1151.7273
1206.1083
1255.2517
1298.9085
1336.8606
1368.9322
1395.0043
19.184237
58.75578
107.15918
162.82423
224.09973
290.34102
360.80829
434.23174
509.84225
586.82074
664.17735
741.0517
816.64652
890.22684
961.0845
1028.6005
1092.2327
1151.4888
1205.8894
1255.0634
1298.7666
1336.7661
1368.8635
1394.9413
16.640013
53.601565
104.12702
161.47755
223.672
290.33561
360.77013
434.17037
509.70757
586.51978
663.82712
740.77196
816.45751
890.02622
960.69682
1027.8915
1091.12
1149.9946
1204.0933
1253.0184
1296.4258
1334.2282
1366.1463
1392.2547
16.88196
53.870547
103.47753
160.44005
222.54169
289.20814
359.70211
433.2023
508.85713
585.80859
663.2679
740.38327
816.26959
890.05071
960.93002
1028.3142
1091.7134
1150.6982
1204.914
1253.9646
1297.5378
1335.2881
1367.2279
1393.3157
17.195258
54.363577
103.20551
159.75754
221.74588
288.40026
358.94998
432.5507
508.32034
585.39034
662.95796
740.17875
816.18125
890.09217
961.12049
1028.6592
1092.1959
1151.2927
1205.5926
1254.6991
1298.2838
1336.0867
1368.0704
1394.1105
17.444874
54.862759
103.11589
159.4385
221.30516
287.91387
358.48136
432.14574
507.99931
585.15917
662.79559
740.06367
816.10966
890.08019
961.20008
1028.8571
1092.5221
1151.7241
1206.0873
1255.2249
1298.8151
1336.6396
1368.6134
1394.6393
17.662028
55.382581
103.39233
159.49733
221.2565
287.8137
358.38079
432.07964
507.97816
585.1953
662.85994
740.11553
816.13
890.08658
961.23714
1028.9669
1092.717
1151.9846
1206.3705
1255.5166
1299.1157
1336.9527
1368.9252
1394.945
17.892281
55.9643
103.94581
159.93066
221.59521
288.10977
358.65822
432.35993
508.23397
585.45252
663.09493
740.28959
816.21786
890.10394
961.22706
1028.9684
1092.7453
1152.0293
1206.4087
1255.5447
1299.1473
1337.0083
1369.0084
1395.0418
18.136533
56.622305
104.79933
160.75479
222.34566
288.7915
359.30458
432.93012
508.76513
585.92768
663.48979
740.57315
816.37548
890.15301
961.19444
1028.8741
1092.608
1151.8711
1206.2331
1255.3515
1298.9543
1336.8422
1368.8757
1394.9364
18.45667
57.528281
106.05451
161.99556
223.50431
289.85783
360.30691
433.83053
509.54714
586.59406
664.00615
740.90874
816.52858
890.15092
961.06179
1028.628
1092.2678
1151.4798
1205.8127
1254.9151
1298.5274
1336.4487
1368.5242
1394.643
17.278553
55.099581
104.63236
161.44686
223.38986
289.94359
360.35791
433.78544
509.36651
586.26177
663.66488
740.71572
816.5155
890.19644
960.96679
1028.2473
1091.5378
1150.5231
1204.7037
1253.7085
1297.2178
1335.0449
1367.029
1393.1701
17.350473
54.865169
103.68039
160.25553
222.17844
288.76955
359.261
432.8019
508.51737
585.55704
663.1031
740.30537
816.29349
890.18382
961.1617
1028.6338
1092.1438
1151.1868
1205.4671
1254.5679
1298.1445
1335.9695
1367.9623
1394.0597
17.451907
54.871892
103.11988
159.44179
221.30994
287.91603
358.47284
432.11623
507.95306
585.10872
662.74846
740.03118
816.11582
890.13185
961.26355
1028.8937
1092.5246
1151.6997
1206.0615
1255.2103
1298.8034
1336.6305
1368.6168
1394.6615
17.519847
54.944219
102.88694
159.03266
220.84279
287.44323
358.03461
431.74568
507.67015
584.9089
662.59867
739.89906
815.99437
890.04732
961.26903
1029.0265
1092.7801
1152.0594
1206.4737
1255.6371
1299.2325
1337.0499
1369.0024
1395.0058
17.577657
55.092464
102.95531
159.02825
220.79826
287.38356
357.9843
431.72389
507.68966
584.97135
662.66861
739.92874
815.95959
889.97104
961.2141
1029.0459
1092.8799
1152.2086
1206.632
1255.7873
1299.3763
1337.1889
1369.1288
1395.1162
17.64633
55.338391
103.33504
159.43142
221.17735
287.74132
358.32769
432.0537
508.00038
585.26798
662.92355
740.09682
816.01171
889.92716
961.12661
1028.9579
1092.8
1152.1145
1206.5077
1255.6383
1299.2148
1337.037
1369.0006
1395.0028
17.713478
55.673547
104.04076
160.25465
221.98064
288.50752
359.05734
432.72381
508.60292
585.79345
663.35491
740.4017
816.16522
889.94376
961.03416
1028.7807
1092.5562
1151.8143
1206.1554
1255.2435
1298.8021
1336.6401
1368.6296
1394.6658
17.819198
56.252697
105.15095
161.49998
223.16406
289.6268
360.10949
433.68242
509.4448
586.50553
663.91822
740.79107
816.35962
889.95914
960.8787
1028.4699
1092.1041
1151.2853
1205.5577
1254.5848
1298.1151
1335.9681
1367.9795
1394.0783
17.883046
56.400854
105.32216
161.6656
223.36378
289.81474
360.22336
433.67673
509.2982
586.26324
663.71916
740.80109
816.61893
890.33189
961.1557
1028.515
1091.9119
1150.9451
1205.1913
1254.2699
1297.8599
1335.7463
1367.7962
1393.9853
17.763985
55.786136
104.16374
160.37622
222.11333
288.63264
359.12796
432.71009
508.48191
585.59983
663.19795
740.4153
816.39637
890.28828
961.29942
1028.8337
1092.3965
1151.5302
1205.8572
1254.9932
1298.6003
1336.4686
1368.4966
1394.6065
17.6765
55.403563
103.39697
159.48336
221.22834
287.78307
358.34817
432.03151
507.92872
585.15847
662.83627
740.10596
816.15618
890.15852
961.31751
1029.0078
1092.7067
1151.9416
1206.3289
1255.4912
1299.0975
1336.9425
1368.9352
1394.9824
17.585429
55.104992
102.95608
159.01176
220.76754
287.35094
357.96034
431.70843
507.68976
584.99014
662.69261
739.94386
815.97372
889.99831
961.24376
1029.0556
1092.8648
1152.1824
1206.6107
1255.7745
1299.3694
1337.1888
1369.136
1395.132
17.503871
54.900543
102.82498
158.95051
220.73678
287.33995
357.96681
431.73717
507.75104
585.07314
662.75451
739.93438
815.87106
889.83298
961.09033
1028.9686
1092.84
1152.1881
1206.6199
1255.7667
1299.3435
1337.1495
1369.0828
1395.0568
17.413574
54.777602
103.00298
159.29323
221.12539
287.73877
358.35756
432.10821
508.09797
585.38655
663.0049
740.07866
815.88072
889.7283
960.92813
1028.7932
1092.6572
1151.9663
1206.3516
1255.459
1299.0153
1336.8213
1368.7694
1394.752
17.292424
54.725832
103.50612
160.0439
221.9214
288.52212
359.10023
432.78824
508.69943
585.89474
663.40609
740.34678
815.99341
889.69629
960.77145
1028.5325
1092.3304
1151.5486
1205.8557
1254.8985
1298.4254
1336.2309
1368.1864
1394.1944
17.211408
54.929695
104.4131
161.19057
223.08431
289.64835
360.16411
433.76189
509.55446
586.61071
663.97405
740.75015
816.20889
889.72109
960.59725
1028.1602
1091.7421
1150.9127
1205.133
1254.0855
1297.5382
1335.3464
1367.2995
1393.3389
18.511761
57.643106
106.17097
162.10288
223.6008
289.93558
360.34377
433.80688
509.45924
586.47297
663.92108
740.95581
816.71474
890.38663
961.22048
1028.629
1092.1073
1151.2205
1205.5431
1254.6917
1298.3581
1336.3166
1368.4274
1394.6124
18.176882
56.703417
104.8638
160.78719
222.35735
288.80742
359.29035
432.90025
508.70721
585.88187
663.47677
740.6334
816.51974
890.33139
961.31847
1028.8812
1092.497
1151.6938
1206.0543
1255.2077
1298.8493
1336.7669
1368.8306
1394.939
17.912219
55.996355
103.94797
159.88922
221.51872
288.02165
358.58865
432.30137
508.2323
585.49903
663.16366
740.34991
816.27012
890.15585
961.26465
1028.9699
1092.7076
1151.9739
1206.361
1255.5137
1299.1334
1337.0117
1369.0276
1395.0803
17.659672
55.361508
103.33481
159.38983
221.09824
287.65269
358.26643
432.03685
508.04757
585.36845
663.0368
740.17691
816.0516
889.9452
961.12716
1028.9339
1092.7539
1152.0678
1206.4758
1255.6191
1299.2105
1337.0478
1369.0145
1395.0198
17.419218
54.788317
103.00315
159.26907
221.07829
287.68507
358.3218
432.10872
508.14338
585.46535
663.08701
740.13287
815.903
889.7331
960.91971
1028.7692
1092.621
1151.9355
1206.3365
1255.457
1299.0196
1336.8279
1368.7722
1394.7526
17.148246
54.241961
103.0121
159.5271
221.44935
288.10413
358.74395
432.5105
508.51639
585.78728
663.32732
740.25629
815.88698
889.59704
960.7159
1028.5354
1092.3508
1151.614
1205.9554
1255.0273
1298.5742
1336.3576
1368.2922
1394.2673
16.818186
53.709893
103.24249
160.15548
222.18468
288.85445
359.45598
433.15314
509.07187
586.23481
663.65828
740.45617
815.9378
889.5036
960.4902
1028.1922
1091.9126
1151.0952
1205.3514
1254.3495
1297.8794
1335.6221
1367.5329
1393.5217
16.574212
53.42011
103.8586
161.15443
223.28041
289.94997
360.50058
434.10707
509.90517
586.92042
664.19208
740.8321
816.13818
889.51701
960.2942
1027.7856
1091.3246
1150.4021
1204.5514
1253.428
1296.7895
1334.5909
1366.491
1392.493
19.221154
58.834813
107.21888
162.84874
224.08252
290.30383
360.76861
434.18855
509.78676
586.79243
664.18751
741.11489
816.75656
890.34181
961.14929
1028.5805
1092.1266
1151.3321
1205.7338
1254.9414
1298.6848
1336.7174
1368.8414
1394.9551
18.613898
57.659625
105.82256
161.5551
222.93957
289.24058
359.73377
433.37089
509.20394
586.36696
663.89286
740.9138
816.64098
890.32102
961.23799
1028.7845
1092.4236
1151.6671
1206.0547
1255.2162
1298.8957
1336.8701
1368.9597
1395.0492
18.157108
56.659605
104.79737
160.68818
222.21662
288.64133
359.19547
432.91225
508.84788
586.09064
663.68328
740.71972
816.44909
890.1621
961.16024
1028.8161
1092.5389
1151.808
1206.1851
1255.3195
1298.9484
1336.8605
1368.8993
1394.9639
17.7281
55.702289
104.03701
160.18855
221.85212
288.35886
358.95521
432.72214
508.72168
586.00281
663.58321
740.56669
816.23514
889.93333
960.97524
1028.703
1092.477
1151.7523
1206.1191
1255.2277
1298.808
1336.6589
1368.6406
1394.6703
17.300351
54.743345
103.50182
159.99399
221.82392
288.4093
359.02501
432.79828
508.80965
586.07459
663.59334
740.47842
816.04749
889.68767
960.72252
1028.4655
1092.2573
1151.4936
1205.8319
1254.9043
1298.4436
1336.2421
1368.1812
1394.181
16.820917
53.716843
103.23822
160.12868
222.13443
288.79715
359.41946
433.16389
509.13657
586.33449
663.7591
740.52659
815.96786
889.50112
960.46477
1028.1561
1091.8758
1151.0648
1205.3393
1254.3605
1297.8954
1335.6257
1367.5219
1393.5061
16.265335
52.611673
103.19337
160.59316
222.75208
289.45692
360.04156
433.70466
509.58105
586.66145
663.97015
740.61664
815.92413
889.32544
960.16513
1027.7438
1091.3623
1150.4694
1204.6533
1253.5854
1297.0402
1334.7687
1366.6439
1392.6231
15.966341
51.71307
103.50379
161.44423
223.7647
290.52058
361.07957
434.66359
510.43165
587.37028
664.53384
741.03017
816.17064
889.38728
960.0172
1027.3866
1090.8302
1149.8143
1203.886
1252.7047
1296.0439
1333.7277
1365.532
1391.5139
19.987252
60.148944
108.52196
163.95229
225.00836
291.40458
361.75201
434.79291
510.33699
587.25097
664.5213
741.28431
816.7586
890.22041
960.97611
1028.4144
1092.0176
1151.3159
1205.7955
1255.0451
1298.8189
1336.8703
1368.9797
1395.032
19.199394
58.792818
107.15502
162.75509
223.97027
290.20187
360.70187
434.20399
509.94382
587.00263
664.38012
741.20073
816.71499
890.22211
961.03208
1028.5269
1092.1545
1151.4219
1205.8429
1255.0366
1298.7643
1336.7875
1368.892
1394.9696
18.473297
57.563442
106.04453
161.90867
223.33946
289.67201
360.17576
433.82733
509.69643
586.86492
664.30764
741.12056
816.61319
890.12039
960.96503
1028.5167
1092.1694
1151.408
1205.7697
1254.8955
1298.5343
1336.4725
1368.54
1394.6501
17.831757
56.280375
105.13893
161.41358
222.99948
289.43751
359.98057
433.69413
509.62221
586.80222
664.2335
741.01646
816.44797
889.92314
960.77201
1028.3522
1092.0072
1151.2172
1205.5235
1254.581
1298.134
1335.9888
1367.9798
1394.0614
17.218502
54.9487
104.40043
161.11661
222.94602
289.49069
360.06035
433.7821
509.71764
586.87022
664.2428
740.9425
816.28559
889.69422
960.51122
1028.0654
1091.6715
1150.8593
1205.1111
1254.0985
1297.5668
1335.3597
1367.284
1393.3058
16.575919
53.428861
103.84514
161.10141
223.18618
289.84531
360.43534
434.12887
510.02516
587.1033
664.37781
740.96489
816.19319
889.50326
960.24045
1027.7263
1091.28
1150.3693
1204.5411
1253.4472
1296.8166
1334.5957
1366.4691
1392.4585
15.965143
51.713932
103.49234
161.41775
223.7206
290.47302
361.05194
434.6775
510.49165
587.45919
664.62343
741.09468
816.19821
889.38225
959.99416
1027.3626
1090.814
1149.8037
1203.8852
1252.7154
1296.0544
1333.7255
1365.5182
1391.4963
15.970454
50.031601
103.67282
162.18501
224.73824
291.65379
362.29978
435.9017
511.64459
588.48371
665.49301
741.79957
816.71991
889.70133
960.08684
1027.2328
1090.4932
1149.3308
1203.2844
1252.0051
1295.2609
1332.8511
1364.5631
1390.5248
1388.4721
1362.6154
1331.1638
1293.832
1250.8392
1202.4196
1148.8878
1090.6109
1028.0398
961.60342
891.84053
819.3215
744.72478
668.83027
592.39163
516.28233
441.25881
368.30044
298.23753
231.82514
169.45093
110.37913
47.305458
12.281249
1389.1977
1363.1132
1331.5495
1294.0742
1250.9518
1202.3561
1148.6229
1090.1454
1027.3789
960.75244
890.80643
818.12088
743.38653
667.37831
590.86934
514.73623
439.76269
366.9091
296.9976
230.77646
168.63151
110.33169
50.810764
13.729325
1390.1175
1364.108
1332.3167
1294.588
1251.4279
1202.7263
1148.8474
1090.2193
1027.3054
960.51449
890.38161
817.49312
742.54931
666.30984
589.57465
513.2229
438.09174
365.10035
295.11267
228.89976
166.96475
109.05977
54.136772
15.295779
1391.1369
1365.0999
1333.2126
1295.4629
1252.0953
1203.235
1149.197
1090.421
1027.3912
960.44912
890.15249
817.0867
741.98506
665.55207
588.61034
512.04258
436.73933
363.58922
293.5057
227.33003
165.72831
108.81384
56.973286
16.807008
1392.2948
1366.1321
1334.1263
1296.2846
1252.7621
1203.7706
1149.6148
1090.6987
1027.4791
960.38239
889.94136
816.7172
741.56637
665.02217
587.95309
511.23535
435.81812
362.55589
292.41107
226.30011
165.01178
108.89388
58.78443
18.130038
1393.5435
1367.2623
1335.0764
1297.0794
1253.3979
1204.2708
1149.9745
1090.9048
1027.529
960.30926
889.7766
816.52699
741.27356
664.67973
587.55394
510.74755
435.31712
362.01187
291.87594
225.854
164.84197
109.30568
60.213646
19.376851
1394.5539
1368.3897
1336.1353
1297.8979
1253.9889
1204.7072
1150.2466
1091.0115
1027.5065
960.20327
889.62037
816.36247
741.1081
664.55181
587.46696
510.70489
435.21191
361.87753
291.81117
225.85852
165.12125
109.94834
61.353976
20.513589
1395.0671
1369.0119
1336.8127
1298.595
1254.6221
1205.1907
1150.5295
1091.0951
1027.4855
960.15632
889.58756
816.38519
741.21489
664.76505
587.80344
511.17121
435.76077
362.46078
292.48529
226.47826
165.96682
110.88507
62.346941
21.508237
1387.4483
1362.2124
1331.217
1294.7706
1252.9902
1206.0136
1154.0473
1097.3429
1036.1752
970.86633
901.75383
829.29174
754.00519
676.55584
597.73426
518.36483
439.51915
362.25823
287.93977
218.19353
154.79365
102.66495
63.928141
37.240116
1388.0832
1362.9444
1331.8464
1295.2219
1253.1693
1205.8899
1153.6087
1096.5834
1035.1088
969.528
900.2086
827.62352
752.32624
675.00309
596.45199
517.53221
439.28555
362.77798
289.31441
220.42373
157.71065
104.83092
63.051414
32.454773
1389.2274
1363.8778
1332.7482
1296.025
1253.5451
1205.8181
1153.0933
1095.6296
1033.7398
967.8217
898.27353
825.58679
750.34386
673.24699
595.1017
516.77907
439.27891
363.66819
291.16317
223.14668
161.05593
107.27754
62.767097
28.087294
1390.7119
1365.265
1333.8998
1296.759
1253.9629
1205.8186
1152.6341
1094.6913
1032.322
966.04796
896.28842
823.55742
748.42626
671.64324
594.00914
516.37321
439.68694
365.00699
293.44674
226.23872
164.63414
110.23061
63.749941
25.494405
1392.1747
1366.7594
1335.2178
1297.7358
1254.5392
1205.915
1152.2098
1093.7855
1031.0409
964.46236
894.54458
821.85959
746.84888
670.42415
593.32143
516.3597
440.43271
366.59156
295.85969
229.31971
168.08089
113.28111
65.545079
24.26009
1393.3917
1368.018
1336.4278
1298.7236
1255.1911
1206.1452
1151.9962
1093.1604
1030.073
963.23529
893.17602
820.46655
745.71038
669.65071
593.04185
516.69571
441.37472
368.21411
298.12986
232.0933
171.07578
115.9672
67.202856
23.939685
1394.5282
1368.9358
1337.1957
1299.4366
1255.7484
1206.4091
1151.9458
1092.8183
1029.4779
962.44711
892.28925
819.59648
745.00221
669.20158
592.93547
516.99986
442.22303
369.61324
300.01699
234.34364
173.40122
118.01809
68.576514
24.170301
1395.1502
1369.5212
1337.6562
1299.6898
1255.8192
1206.3785
1151.8813
1092.7413
1029.3226
962.19229
891.97668
819.28411
744.76131
669.0983
593.02395
517.3161
442.81404
370.43006
301.14466
235.86652
174.86196
119.25665
69.475217
24.586851
1395.0721
1369.0214
1336.8277
1298.6174
1254.6534
1205.2309
1150.5773
1091.1424
1027.5251
960.18741
889.60485
816.38384
741.19543
664.73211
587.76406
511.13434
435.72993
362.43936
292.46587
226.45775
165.95049
110.87047
62.33324
21.501514
1394.5897
1368.4414
1336.1986
1297.9784
1254.0938
1204.8403
1150.3973
1091.1571
1027.6269
960.28597
889.65129
816.33642
741.03445
664.44481
587.34881
510.60165
435.12909
361.81673
291.75793
225.80623
165.06182
109.88284
61.305339
20.491727
1393.6274
1367.3739
1335.1958
1297.2198
1253.5807
1204.5014
1150.2266
1091.1322
1027.6933
960.38858
889.76263
816.43681
741.1399
664.52315
587.38968
510.5996
435.1972
361.91355
291.78148
225.75321
164.73577
109.19284
60.124585
19.341169
1392.4328
1366.3102
1334.3104
1296.4853
1253.0125
1204.079
1149.9375
1090.9633
1027.6293
960.39493
889.83256
816.54775
741.40339
664.88118
587.81651
511.09495
435.67898
362.41587
292.26168
226.14099
164.84852
108.7332
58.65718
18.083359
1391.3267
1365.3451
1333.4581
1295.7152
1252.3945
1203.5884
1149.5457
1090.6753
1027.4865
960.36892
889.94779
816.86538
741.8397
665.48591
588.56103
511.95544
436.59927
363.40363
293.28716
227.09724
165.49967
108.6109
56.814932
16.75521
1390.3408
1364.405
1332.6101
1294.8785
1251.7559
1203.0943
1149.1908
1090.4443
1027.3489
960.37507
890.1358
817.27238
742.45353
666.32932
589.61499
513.19273
437.95489
364.86862
294.81934
228.58609
166.66656
108.82556
53.958848
15.244883
1389.4265
1363.4325
1331.8675
1294.3886
1251.2925
1202.7176
1148.942
1090.3362
1027.3902
960.59967
890.57638
817.94156
743.34766
667.45875
590.96225
514.73533
439.61908
366.63606
296.64458
230.39512
168.2707
110.02608
50.625824
13.683742
1388.6712
1362.9219
1331.4815
1294.1533
1251.1788
1202.7621
1149.1734
1090.767
1028.0312
961.45856
891.64819
819.19567
744.737
668.94973
592.50855
516.28864
441.10406
367.99955
297.84478
231.39855
169.04851
110.05765
47.118581
12.238326
1395.154
1369.5291
1337.6689
1299.7101
1255.8493
1206.4151
1151.9154
1092.7704
1029.3475
962.20929
891.98357
819.28017
744.74695
669.07524
592.99526
517.28633
442.78605
370.4058
301.12257
235.85156
174.8426
119.23944
69.462596
24.5817
1394.5453
1368.9673
1337.2401
1299.5019
1255.8414
1206.5208
1152.0603
1092.9201
1029.5567
962.4961
892.30454
819.57876
744.9567
669.13429
592.8547
516.91645
442.14431
369.54297
299.95746
234.28575
173.34317
117.96533
68.537999
24.154805
1393.4245
1368.0836
1336.5218
1298.8462
1255.3453
1206.3233
1152.1757
1093.3137
1030.181
963.28933
893.17612
820.42209
745.63325
669.54968
592.92483
516.5738
441.25545
368.103
298.02581
231.99162
170.97579
115.87643
67.137593
23.914196
1392.2311
1366.8669
1335.3582
1297.9068
1254.7433
1206.1417
1152.4292
1093.9612
1031.1478
964.49297
894.50869
821.78137
746.74885
670.31161
593.19605
516.22327
440.29023
366.44664
295.71142
229.16888
167.93434
113.152
65.453131
24.22518
1390.7886
1365.4077
1334.0793
1296.969
1254.2034
1206.0751
1152.871
1094.8657
1032.4064
966.04052
896.21163
823.45054
748.31998
671.54308
593.90091
516.24386
439.53407
364.83095
293.2511
226.03551
164.43918
110.06308
63.633944
25.450643
1389.3133
1364.0425
1332.9554
1296.2633
1253.8096
1206.0887
1153.3303
1095.789
1033.7971
967.78093
898.16851
825.46831
750.24859
673.17605
595.02678
516.67098
439.12388
363.46472
290.92028
222.88918
160.81208
107.0724
62.628312
28.034712
1388.1671
1363.1208
1332.0704
1295.4766
1253.4465
1206.1655
1153.8398
1096.7268
1035.1442
969.46692
900.09351
827.51226
752.2567
674.97079
596.41784
517.45203
439.1339
362.55188
289.02866
220.11544
157.42492
104.59562
62.891585
32.393477
1387.522
1362.3846
1331.4435
1295.0326
1253.2739
1206.2897
1154.2709
1097.4723
1036.195
970.79538
901.64195
829.20073
753.97242
676.57094
597.74717
518.31843
439.37643
362.01563
287.62012
217.84626
154.47375
102.40612
63.750317
37.171589
1388.6602
1362.9112
1331.4753
1294.1512
1251.1788
1202.7615
1149.1707
1090.7613
1028.0217
961.44794
891.64413
819.20571
744.76247
668.98637
592.54618
516.31558
441.11351
367.99188
297.8272
231.38094
169.03676
110.05293
47.115805
12.235664
1389.3901
1363.406
1331.8557
1294.3891
1251.2971
1202.7172
1148.9331
1090.317
1027.3597
960.56852
890.56725
817.97534
743.42992
667.57472
591.07911
514.81594
439.64123
366.60373
296.58281
230.33407
168.23052
110.00786
50.621172
13.677869
1390.2881
1364.3707
1332.6008
1294.8879
1251.7653
1203.0891
1149.1677
1090.4018
1027.2873
960.31477
890.11614
817.32875
742.59434
666.52801
589.81475
513.32866
437.98841
364.80794
294.70963
228.48018
166.59881
108.80022
53.957461
15.240714
1391.2742
1365.3168
1333.4589
1295.7321
1252.4031
1203.5709
1149.4985
1090.5991
1027.3865
960.27506
889.91271
816.93683
742.02695
665.75195
588.82856
512.1358
436.64206
363.32088
293.14098
226.95829
165.41301
108.58241
56.81986
16.755709
1392.3974
1366.2995
1334.3242
1296.5059
1253.0159
1204.0476
1149.8656
1090.8554
1027.4991
960.27676
889.78312
816.62138
741.6067
665.17316
588.11066
511.2886
435.7216
362.32245
292.10101
225.99041
164.75711
108.7065
58.667498
18.089176
1393.6154
1367.382
1335.2204
1297.2402
1253.5789
1204.4642
1150.1474
1091.0176
1027.5622
960.27268
889.71071
816.49444
741.31601
664.77755
587.64872
510.75919
435.22475
361.82235
291.63169
225.616
164.6546
109.17194
60.138809
19.351997
1394.6036
1368.4682
1336.2247
1297.9921
1254.0879
1204.8047
1150.3287
1091.0652
1027.5305
960.20721
889.61913
816.37677
741.15363
664.61574
587.51581
510.69215
435.13214
361.73716
291.63583
225.69877
164.99936
109.86982
61.322929
20.507618
1395.1002
1369.055
1336.8553
1298.6281
1254.643
1205.1999
1150.5301
1091.0935
1027.4886
960.17035
889.61141
816.41553
741.25581
664.80588
587.8245
511.15275
435.70156
362.37105
292.37415
226.38318
165.90952
110.86566
62.353134
21.516615
1387.5093
1362.3756
1331.4378
1295.0298
1253.2723
1206.2879
1154.2684
1097.4684
1036.1894
970.79007
901.64147
829.20952
753.99227
676.59936
597.77707
518.34131
439.38654
362.01265
287.60921
217.83353
154.46391
102.40089
63.749056
37.172
1388.1339
1363.096
1332.0549
1295.4696
1253.4425
1206.1597
1153.8302
1096.7119
1035.1245
969.44945
900.0919
827.53946
752.31751
675.05669
596.50732
517.51979
439.16328
362.54224
288.99446
220.07487
157.39262
104.57813
62.887236
32.393872
1389.2675
1364.0109
1332.9376
1296.2549
1253.8028
1206.0755
1153.3075
1095.7563
1033.7579
967.7483
898.16364
825.51014
750.34289
673.3084
595.16394
516.77403
439.1672
363.44795
290.86564
222.82559
160.76223
107.04574
62.620315
28.033501
1390.7427
1365.3798
1334.067
1296.9644
1254.1943
1206.0515
1152.8298
1094.8101
1032.3448
965.99101
896.19992
823.49797
748.43243
671.70136
594.06451
516.36585
439.58354
364.80831
293.18339
225.95857
164.38057
110.03241
63.624103
25.448994
1392.1995
1366.8539
1335.3576
1297.9083
1254.7328
1206.1091
1152.373
1093.8873
1031.0687
964.42982
894.488
821.82281
746.86051
670.47061
593.36014
516.34446
440.33613
366.41855
295.63796
229.08784
167.87449
113.12239
65.445393
24.224894
1393.4145
1368.0936
1336.5369
1298.8554
1255.3356
1206.2872
1152.114
1093.2348
1030.0992
963.2245
893.15157
820.45526
745.72713
669.6847
593.06437
516.67722
441.28861
368.07032
297.95395
231.91472
170.9204
115.85112
67.133566
23.916283
1394.549
1368.9909
1337.2737
1299.5239
1255.8359
1206.4889
1152.0069
1092.855
1029.4929
962.4485
892.28769
819.60287
745.02176
669.22535
592.94424
516.97416
442.15181
369.50274
299.89141
234.2196
173.297
117.94618
68.538366
24.159294
1395.1721
1369.5601
1337.7012
1299.7296
1255.8477
1206.3938
1151.8828
1092.7365
1029.3207
962.19628
891.98741
819.30096
744.78175
669.11526
593.02669
517.29477
442.76427
370.35815
301.06355
235.79832
174.80719
119.22718
69.466969
24.587765
1395.1043
1369.0436
1336.8331
1298.5974
1254.6071
1205.1661
1150.5119
1091.0972
1027.5121
960.20275
889.63933
816.42861
741.23599
664.76314
587.77561
511.12301
435.69509
362.37826
292.41065
226.42346
165.93954
110.88831
62.371135
21.524052
1394.6021
1368.416
1336.1405
1297.8836
1253.9626
1204.6852
1150.2519
1091.0599
1027.5969
960.3151
889.71575
816.40406
741.07505
664.45357
587.33213
510.58424
435.11547
361.81024
291.76784
225.83316
165.11125
109.95769
61.383622
20.531336
1393.5978
1367.2802
1335.0616
1297.0436
1253.3595
1204.2539
1150.0033
1090.9927
1027.6692
960.46852
889.89719
816.55195
741.1735
664.47967
587.30971
510.55145
435.19989
361.9712
291.87906
225.86872
164.85466
109.32266
60.243708
19.394668
1392.3503
1366.1436
1334.0969
1296.2318
1252.7147
1203.7596
1149.6607
1090.8064
1027.6355
960.54973
890.0552
816.71548
741.41232
664.75114
587.64939
510.99977
435.69883
362.54487
292.45931
226.35515
165.04666
108.91449
58.80772
18.144635
1391.1861
1365.1085
1333.1789
1295.4059
1252.0482
1203.2283
1149.2449
1090.5218
1027.5248
960.57874
890.22484
817.05115
741.81611
665.28196
588.32389
511.83152
436.64591
363.60255
293.57839
227.40656
165.77467
108.83415
56.986826
16.816778
1390.1531
1364.1147
1332.2864
1294.5386
1251.3904
1202.7225
1148.8865
1090.2948
1027.3971
960.59225
890.41137
817.44554
742.40949
666.10141
589.36402
513.07837
438.03967
365.12708
295.18225
228.96973
167.00661
109.07548
54.137505
15.299768
1389.2178
1363.118
1331.5304
1294.0439
1250.9298
1202.355
1148.647
1090.1893
1027.4282
960.7885
890.81184
818.08387
743.30131
667.25743
590.75175
514.66142
439.74274
366.93353
297.04437
230.82085
168.65747
110.33219
50.804184
13.729101
1388.4777
1362.6181
1331.1592
1293.8238
1250.8336
1202.4206
1148.8961
1090.6244
1028.0535
961.61141
891.838
819.30638
744.6964
668.79209
592.355
516.25939
441.2531
368.30781
298.25028
231.83834
169.45924
110.38053
47.30576
12.28147
1395.1776
1369.5495
1337.6786
1299.7
1255.8168
1206.3683
1151.8701
1092.7384
1029.3338
962.21399
892.0013
819.30446
744.77185
669.09571
593.00617
517.28414
442.77029
370.37792
301.09446
235.8253
174.8363
119.25034
69.482666
24.593801
1394.5613
1368.9578
1337.2048
1299.4352
1255.7444
1206.4107
1151.9616
1092.8538
1029.5312
962.50651
892.3368
819.61502
744.98311
669.14715
592.85841
516.91853
442.15218
369.55846
299.97769
234.31656
173.38764
118.01852
68.586772
24.177261
1393.4307
1368.036
1336.4285
1298.7153
1255.1864
1206.1566
1152.032
1093.2222
1030.1534
963.31611
893.23195
820.47389
745.6588
669.54646
592.90963
516.56724
441.28291
368.16102