/*--------------------------------*- C++ -*----------------------------------*\
| =========                 |                                                 |
| \\      /  F ield         | OpenFOAM: The Open Source CFD Toolbox           |
|  \\    /   O peration     | Version:  4.1                                   |
|   \\  /    A nd           | Web:      www.OpenFOAM.org                      |
|    \\/     M anipulation  |                                                 |
\*---------------------------------------------------------------------------*/
FoamFile
{
    version     2.0;
    format      ascii;
    class       surfaceScalarField;
    location    "0.0060";
    object      phi;
}
// * * * * * * * * * * * * * * * * * * * * * * * * * * * * * * * * * * * * * //

dimensions      [0 3 -1 0 0 0 0];

internalField   nonuniform List<scalar> 
17536
(
-4.5782e-09
-1.6478e-11
-1.6443e-11
2.8961e-11
2.8996e-11
-4.2407e-09
-1.0623e-11
-1.0523e-11
2.3981e-11
2.4101e-11
-4.0113e-09
8.108e-12
8.4342e-12
6.5909e-12
6.6265e-12
-3.8932e-09
5.5221e-11
5.573e-11
-7.0588e-11
-7.0522e-11
-3.9095e-09
1.0052e-10
1.013e-10
-1.4036e-10
-1.3996e-10
-4.0465e-09
1.4665e-10
1.4752e-10
-2.0556e-10
-2.0512e-10
-4.2886e-09
1.9596e-10
1.9676e-10
-2.6935e-10
-2.6878e-10
-4.6293e-09
2.5107e-10
2.5215e-10
-3.3971e-10
-3.3889e-10
-5.075e-09
3.0736e-10
3.0853e-10
-4.1657e-10
-4.1571e-10
-5.6487e-09
3.687e-10
3.6991e-10
-5.0532e-10
-5.0427e-10
-6.3862e-09
4.3978e-10
4.4096e-10
-6.1036e-10
-6.0955e-10
-7.3248e-09
5.2322e-10
5.2453e-10
-7.3414e-10
-7.3409e-10
-8.4957e-09
6.1895e-10
6.2057e-10
-8.7656e-10
-8.7575e-10
-9.9196e-09
7.223e-10
7.2421e-10
-1.0294e-09
-1.0293e-09
-1.1606e-08
8.2648e-10
8.2857e-10
-1.1856e-09
-1.1843e-09
-1.3553e-08
9.2167e-10
9.2395e-10
-1.331e-09
-1.3298e-09
-1.5743e-08
9.9837e-10
1.0009e-09
-1.4538e-09
-1.4522e-09
-1.8135e-08
1.0473e-09
1.0502e-09
-1.5404e-09
-1.5386e-09
-2.0663e-08
1.061e-09
1.0642e-09
-1.5796e-09
-1.5779e-09
-2.3241e-08
1.0342e-09
1.0375e-09
-1.5635e-09
-1.5618e-09
-2.5777e-08
9.6465e-10
9.6803e-10
-1.4888e-09
-1.4869e-09
-2.8185e-08
8.5136e-10
8.5468e-10
-1.3538e-09
-1.3523e-09
-3.0377e-08
6.9558e-10
6.9859e-10
-1.1614e-09
-1.1591e-09
-3.2224e-08
5.0257e-10
5.0525e-10
-9.2137e-10
-9.144e-10
-3.3552e-08
2.6999e-10
2.7203e-10
-6.1403e-10
-6.1906e-10
-3.4289e-08
-1.9577e-11
-1.877e-11
-1.5523e-10
-1.5472e-10
-3.4341e-08
-3.1821e-11
-3.2254e-11
1.2053e-10
1.1933e-10
-3.3285e-08
-4.4553e-10
-4.4677e-10
6.671e-10
6.6637e-10
-3.1243e-08
-8.0489e-10
-8.078e-10
1.2026e-09
1.2014e-09
-2.8389e-08
-1.085e-09
-1.0886e-09
1.6298e-09
1.6282e-09
-2.4987e-08
-1.2841e-09
-1.2887e-09
1.9466e-09
1.9442e-09
-2.1257e-08
-1.4047e-09
-1.4099e-09
2.1531e-09
2.1497e-09
-1.7323e-08
-1.4524e-09
-1.458e-09
2.2586e-09
2.2551e-09
-1.3241e-08
-1.4318e-09
-1.4372e-09
2.2746e-09
2.2713e-09
-9.0801e-09
-1.3385e-09
-1.3436e-09
2.1949e-09
2.1912e-09
-4.9896e-09
-1.1584e-09
-1.1635e-09
1.9995e-09
1.9911e-09
-1.2127e-09
-8.8471e-10
-8.8995e-10
1.6591e-09
1.6652e-09
1.9328e-09
-5.5724e-10
-5.6123e-10
1.2401e-09
1.2376e-09
4.0732e-09
-2.479e-10
-2.5047e-10
8.4749e-10
8.4459e-10
5.156e-09
-3.1828e-11
-3.3023e-11
4.7257e-10
4.7192e-10
5.6387e-09
2.8663e-10
2.8652e-10
-2.2511e-10
-2.2427e-10
5.497e-09
2.8765e-10
2.8845e-10
-4.7709e-10
-4.7575e-10
4.6152e-09
3.14e-10
3.1539e-10
-5.1077e-10
-5.0986e-10
3.521e-09
5.0566e-10
5.0754e-10
-7.7706e-10
-7.7624e-10
2.4043e-09
4.8738e-10
4.8926e-10
-7.6503e-10
-7.6383e-10
1.3568e-09
2.986e-10
2.9989e-10
-5.0858e-10
-5.0788e-10
3.0824e-10
-3.5944e-10
-3.5871e-10
3.3883e-10
3.3935e-10
-7.0783e-10
-7.0765e-10
8.2934e-10
8.3007e-10
-4.5876e-09
-1.5339e-11
-1.7965e-11
4.0545e-11
-4.2641e-09
-1.5299e-11
-1.3384e-11
4.1625e-11
-4.0383e-09
6.5191e-13
9.625e-12
1.3357e-11
-3.9236e-09
4.7451e-11
6.5917e-11
-1.0255e-10
-3.94e-09
9.6662e-11
1.254e-10
-2.2202e-10
-4.0768e-09
1.4202e-10
1.8331e-10
-3.2814e-10
-4.3196e-09
1.8539e-10
2.4232e-10
-4.2415e-10
-4.6641e-09
2.3116e-10
3.0811e-10
-5.2452e-10
-5.1164e-09
2.8115e-10
3.8349e-10
-6.501e-10
-5.6996e-09
3.3917e-10
4.7384e-10
-8.0871e-10
-6.4469e-09
4.0915e-10
5.8198e-10
-1.0041e-09
-7.3942e-09
4.9177e-10
7.0835e-10
-1.2343e-09
-8.5713e-09
5.8518e-10
8.5041e-10
-1.4923e-09
-9.9985e-09
6.8524e-10
1.003e-09
-1.7687e-09
-1.1685e-08
7.8624e-10
1.1589e-09
-2.052e-09
-1.3628e-08
8.8082e-10
1.309e-09
-2.3288e-09
-1.5809e-08
9.6109e-10
1.443e-09
-2.5823e-09
-1.8186e-08
1.0186e-09
1.5498e-09
-2.7921e-09
-2.0695e-08
1.0457e-09
1.6191e-09
-2.9382e-09
-2.3252e-08
1.0367e-09
1.6422e-09
-3.0038e-09
-2.5768e-08
9.8866e-10
1.6133e-09
-2.9782e-09
-2.8157e-08
8.9999e-10
1.5285e-09
-2.8558e-09
-3.0322e-08
7.6918e-10
1.3848e-09
-2.6303e-09
-3.214e-08
5.9232e-10
1.1767e-09
-2.2862e-09
-3.3447e-08
3.5858e-10
8.8072e-10
-1.7694e-09
-3.4151e-08
4.4352e-11
4.3093e-10
-8.8724e-10
-3.4116e-08
-2.4719e-10
-5.529e-11
4.2163e-10
-3.3052e-08
-6.4098e-10
-5.9378e-10
1.3472e-09
-3.1038e-08
-9.8872e-10
-1.1103e-09
2.3011e-09
-2.8229e-08
-1.2775e-09
-1.5572e-09
3.1333e-09
-2.4872e-08
-1.4863e-09
-1.9249e-09
3.8168e-09
-2.1175e-08
-1.6239e-09
-2.1954e-09
4.3258e-09
-1.7264e-08
-1.6955e-09
-2.3701e-09
4.6728e-09
-1.3207e-08
-1.7066e-09
-2.4539e-09
4.8761e-09
-9.0889e-09
-1.6541e-09
-2.4449e-09
4.933e-09
-5.06e-09
-1.5255e-09
-2.3341e-09
4.8165e-09
-1.3566e-09
-1.3106e-09
-2.119e-09
4.5014e-09
1.7281e-09
-1.0245e-09
-1.817e-09
3.985e-09
3.922e-09
-6.9014e-10
-1.449e-09
3.2637e-09
5.0808e-09
-3.6819e-10
-1.1016e-09
2.4298e-09
5.5097e-09
1.371e-10
-4.3937e-10
9.1204e-10
5.3462e-09
3.6674e-10
1.2453e-10
-4.5757e-10
4.5167e-09
4.7253e-10
3.8468e-10
-9.3249e-10
3.5326e-09
5.5709e-10
5.506e-10
-1.2401e-09
2.4582e-09
5.6436e-10
6.3476e-10
-1.3222e-09
1.4561e-09
4.2065e-10
4.3384e-10
-1.0441e-09
3.8931e-10
-4.3597e-11
-1.7261e-10
-1.831e-10
-4.2543e-10
-5.8991e-10
5.8124e-10
-4.5908e-09
-8.151e-12
-2.0061e-11
3.625e-11
-4.2798e-09
-8.4665e-12
-1.5375e-11
3.2999e-11
-4.0589e-09
-3.1377e-13
6.7428e-12
1.3119e-12
-3.9472e-09
2.4904e-11
7.3596e-11
-1.0731e-10
-3.9613e-09
5.1244e-11
1.4538e-10
-2.2215e-10
-4.0952e-09
7.6388e-11
2.1204e-10
-3.2704e-10
-4.3382e-09
9.9991e-11
2.7667e-10
-4.2347e-10
-4.6861e-09
1.2348e-10
3.4523e-10
-5.2368e-10
-5.1435e-09
1.4848e-10
4.2873e-10
-6.5162e-10
-5.7328e-09
1.7765e-10
5.3255e-10
-8.1261e-10
-6.4867e-09
2.1311e-10
6.5775e-10
-1.0081e-09
-7.4394e-09
2.5525e-10
8.0368e-10
-1.2372e-09
-8.6205e-09
3.0295e-10
9.6684e-10
-1.4936e-09
-1.005e-08
3.5411e-10
1.1414e-09
-1.7686e-09
-1.1737e-08
4.0554e-10
1.3197e-09
-2.05e-09
-1.3677e-08
4.5353e-10
1.4922e-09
-2.3244e-09
-1.5852e-08
4.9374e-10
1.6477e-09
-2.5744e-09
-1.822e-08
5.2183e-10
1.7735e-09
-2.7799e-09
-2.0717e-08
5.3399e-10
1.8574e-09
-2.9212e-09
-2.3261e-08
5.2734e-10
1.8886e-09
-2.9814e-09
-2.5763e-08
5.0022e-10
1.8588e-09
-2.9484e-09
-2.8136e-08
4.5155e-10
1.7617e-09
-2.8141e-09
-3.0281e-08
3.7982e-10
1.5906e-09
-2.5699e-09
-3.2072e-08
2.8209e-10
1.3344e-09
-2.2021e-09
-3.335e-08
1.5258e-10
9.5797e-10
-1.6572e-09
-3.3998e-08
-2.0071e-11
3.8589e-10
-7.8349e-10
-3.3934e-08
-2.0151e-10
-2.8677e-10
4.0759e-10
-3.2903e-08
-3.4623e-10
-9.1389e-10
1.3099e-09
-3.0911e-08
-5.2098e-10
-1.4927e-09
2.2067e-09
-2.8134e-08
-6.6662e-10
-2.0042e-09
3.0181e-09
-2.4806e-08
-7.7228e-10
-2.4234e-09
3.6919e-09
-2.1129e-08
-8.3611e-10
-2.7386e-09
4.1949e-09
-1.723e-08
-8.6717e-10
-2.9433e-09
4.5337e-09
-1.3191e-08
-8.6457e-10
-3.0428e-09
4.723e-09
-9.1007e-09
-8.2947e-10
-3.0353e-09
4.7585e-09
-5.1134e-09
-7.5449e-10
-2.9101e-09
4.616e-09
-1.4616e-09
-6.3574e-10
-2.6575e-09
4.2731e-09
1.5762e-09
-4.7734e-10
-2.2776e-09
3.7186e-09
3.7604e-09
-2.8923e-10
-1.778e-09
2.9573e-09
4.9325e-09
-1.0037e-10
-1.2623e-09
2.1293e-09
5.3557e-09
1.6196e-10
-4.4188e-10
8.6122e-10
5.1999e-09
3.2658e-10
2.8006e-10
-4.2683e-10
4.4667e-09
2.879e-10
5.6096e-10
-8.2612e-10
3.5331e-09
2.83e-10
7.7646e-10
-1.1876e-09
2.5103e-09
2.9152e-10
8.593e-10
-1.2658e-09
1.5449e-09
2.0809e-10
6.1017e-10
-9.4564e-10
4.9079e-10
-2.6578e-11
-6.1629e-12
-8.0563e-11
-2.0839e-10
-5.3468e-10
6.0787e-10
-4.5937e-09
-6.6164e-14
-1.8949e-11
3.3472e-11
-4.2865e-09
-1.6901e-13
-1.2915e-11
2.6919e-11
-4.0681e-09
-2.6187e-13
1.1732e-11
-9.1219e-12
-3.9577e-09
-2.8847e-13
7.7968e-11
-1.157e-10
-3.9716e-09
-3.42e-13
1.5188e-10
-2.3317e-10
-4.1051e-09
-4.4868e-13
2.2196e-10
-3.4103e-10
-4.3482e-09
-5.383e-13
2.8966e-10
-4.4217e-10
-4.6976e-09
-4.7145e-13
3.6151e-10
-5.5018e-10
-5.1576e-09
-4.857e-13
4.5107e-10
-6.9055e-10
-5.75e-09
-4.8051e-13
5.6389e-10
-8.6779e-10
-6.5071e-09
-3.9961e-13
6.9964e-10
-1.0816e-09
-7.4627e-09
-2.7392e-13
8.5734e-10
-1.3306e-09
-8.6459e-09
-1.8667e-13
1.0333e-09
-1.6087e-09
-1.0076e-08
-2.7289e-14
1.2217e-09
-1.9065e-09
-1.1763e-08
1.3585e-13
1.4146e-09
-2.2122e-09
-1.3703e-08
3.8354e-13
1.6025e-09
-2.5118e-09
-1.5875e-08
6.0127e-13
1.7739e-09
-2.7872e-09
-1.8239e-08
7.2234e-13
1.9156e-09
-3.0175e-09
-2.073e-08
7.642e-13
2.0144e-09
-3.1811e-09
-2.3268e-08
7.4384e-13
2.0589e-09
-3.2599e-09
-2.5764e-08
7.1618e-13
2.0398e-09
-3.2404e-09
-2.8129e-08
7.0799e-13
1.9497e-09
-3.1136e-09
-3.0264e-08
7.4499e-13
1.7809e-09
-2.8706e-09
-3.2043e-08
6.654e-13
1.5206e-09
-2.4966e-09
-3.3307e-08
5.6297e-13
1.1298e-09
-1.934e-09
-3.394e-08
3.0925e-13
5.3114e-10
-1.0368e-09
-3.3871e-08
2.9737e-14
-1.798e-10
1.6301e-10
-3.2834e-08
-2.6962e-13
-8.8417e-10
1.2759e-09
-3.085e-08
-6.7181e-13
-1.5025e-09
2.2521e-09
-2.8087e-08
-1.138e-12
-2.0605e-09
3.1416e-09
-2.4771e-08
-9.8848e-13
-2.5307e-09
3.8905e-09
-2.1102e-08
-9.4694e-13
-2.8929e-09
4.4718e-09
-1.7212e-08
-6.0347e-13
-3.1439e-09
4.8834e-09
-1.3183e-08
-4.251e-13
-3.283e-09
5.1346e-09
-9.1069e-09
-3.6942e-13
-3.3078e-09
5.2197e-09
-5.1403e-09
-2.4586e-13
-3.2083e-09
5.1159e-09
-1.5128e-09
-1.4985e-13
-2.9754e-09
4.7997e-09
1.5036e-09
-3.7564e-13
-2.6084e-09
4.265e-09
3.6815e-09
-4.5163e-13
-2.1108e-09
3.5112e-09
4.8533e-09
-2.9554e-13
-1.5918e-09
2.7088e-09
5.2832e-09
2.7268e-14
-7.3409e-10
1.3948e-09
5.1667e-09
2.9537e-13
6.2655e-11
7.8087e-11
4.4582e-09
-5.2937e-14
4.921e-10
-6.574e-10
3.5284e-09
7.541e-14
7.1539e-10
-1.1169e-09
2.5384e-09
2.1475e-13
8.2323e-10
-1.2499e-09
1.5775e-09
3.6173e-13
5.9375e-10
-9.4824e-10
5.25e-10
2.6884e-13
-2.1717e-12
-1.0382e-10
1.3568e-13
-5.2064e-10
6.0269e-10
-4.5937e-09
8.0262e-12
-1.8965e-11
3.3485e-11
-4.2865e-09
8.1394e-12
-1.2951e-11
2.6948e-11
-4.0682e-09
-2.0517e-13
1.1658e-11
-9.0414e-12
-3.9578e-09
-2.5497e-11
7.7823e-11
-1.1551e-10
-3.9716e-09
-5.1944e-11
1.5179e-10
-2.3306e-10
-4.1052e-09
-7.7289e-11
2.2187e-10
-3.4093e-10
-4.3482e-09
-1.0107e-10
2.8957e-10
-4.4212e-10
-4.6976e-09
-1.2458e-10
3.6136e-10
-5.4987e-10
-5.1576e-09
-1.496e-10
4.509e-10
-6.9023e-10
-5.7501e-09
-1.7869e-10
5.6376e-10
-8.6761e-10
-6.5071e-09
-2.1396e-10
6.9951e-10
-1.0814e-09
-7.4627e-09
-2.5579e-10
8.572e-10
-1.3305e-09
-8.6458e-09
-3.0328e-10
1.0332e-09
-1.6087e-09
-1.0076e-08
-3.5416e-10
1.2215e-09
-1.9063e-09
-1.1763e-08
-4.0538e-10
1.4144e-09
-2.212e-09
-1.3703e-08
-4.5297e-10
1.6023e-09
-2.5114e-09
-1.5875e-08
-4.9286e-10
1.7737e-09
-2.7867e-09
-1.8239e-08
-5.2077e-10
1.9153e-09
-3.0169e-09
-2.073e-08
-5.329e-10
2.0141e-09
-3.1804e-09
-2.3268e-08
-5.2633e-10
2.0586e-09
-3.2591e-09
-2.5764e-08
-4.9927e-10
2.0395e-09
-3.2397e-09
-2.8129e-08
-4.5057e-10
1.9494e-09
-3.113e-09
-3.0264e-08
-3.7871e-10
1.7806e-09
-2.8701e-09
-3.2043e-08
-2.8121e-10
1.5204e-09
-2.4961e-09
-3.3308e-08
-1.5177e-10
1.1297e-09
-1.9337e-09
-3.394e-08
2.0609e-11
5.3118e-10
-1.0369e-09
-3.3871e-08
2.0205e-10
-1.7982e-10
1.6252e-10
-3.2834e-08
3.4601e-10
-8.8388e-10
1.2753e-09
-3.085e-08
5.2023e-10
-1.5021e-09
2.2511e-09
-2.8087e-08
6.6475e-10
-2.0599e-09
3.1406e-09
-2.4771e-08
7.7097e-10
-2.5302e-09
3.8893e-09
-2.1102e-08
8.349e-10
-2.8924e-09
4.4707e-09
-1.7212e-08
8.6643e-10
-3.1436e-09
4.8827e-09
-1.3183e-08
8.64e-10
-3.2827e-09
5.1342e-09
-9.107e-09
8.2893e-10
-3.3077e-09
5.2195e-09
-5.1404e-09
7.5431e-10
-3.2083e-09
5.1157e-09
-1.5128e-09
6.3548e-10
-2.9753e-09
4.7995e-09
1.5036e-09
4.7664e-10
-2.6083e-09
4.2648e-09
3.6815e-09
2.8864e-10
-2.1109e-09
3.511e-09
4.8533e-09
1.0009e-10
-1.5921e-09
2.7087e-09
5.2833e-09
-1.6202e-10
-7.3438e-10
1.3952e-09
5.1667e-09
-3.2655e-10
6.2198e-11
7.9269e-11
4.4582e-09
-2.8757e-10
4.9189e-10
-6.5767e-10
3.5285e-09
-2.8339e-10
7.1529e-10
-1.1162e-09
2.5384e-09
-2.9145e-10
8.2287e-10
-1.2492e-09
1.5775e-09
-2.078e-10
5.9343e-10
-9.4745e-10
5.2494e-10
2.6809e-11
-2.4254e-12
-1.032e-10
2.0849e-10
-5.2074e-10
6.0296e-10
-4.5908e-09
1.5236e-11
-2.0098e-11
3.6279e-11
-4.2798e-09
1.4994e-11
-1.5468e-11
3.3078e-11
-4.0589e-09
-1.2234e-12
6.4975e-12
1.6306e-12
-3.9472e-09
-4.8273e-11
7.3188e-11
-1.0664e-10
-3.9614e-09
-9.759e-11
1.4493e-10
-2.2141e-10
-4.0953e-09
-1.4308e-10
2.1158e-10
-3.2643e-10
-4.3382e-09
-1.8648e-10
2.7632e-10
-4.232e-10
-4.6863e-09
-2.3236e-10
3.4499e-10
-5.2334e-10
-5.1436e-09
-2.8236e-10
4.2837e-10
-6.5126e-10
-5.7329e-09
-3.4015e-10
5.3224e-10
-8.1245e-10
-6.4867e-09
-4.0981e-10
6.5744e-10
-1.0081e-09
-7.4394e-09
-4.9202e-10
8.033e-10
-1.2371e-09
-8.6204e-09
-5.8542e-10
9.6639e-10
-1.4934e-09
-1.005e-08
-6.8556e-10
1.1409e-09
-1.7678e-09
-1.1736e-08
-7.8655e-10
1.3191e-09
-2.0491e-09
-1.3677e-08
-8.8093e-10
1.4917e-09
-2.3233e-09
-1.5852e-08
-9.6091e-10
1.6471e-09
-2.5733e-09
-1.822e-08
-1.0182e-09
1.7729e-09
-2.7787e-09
-2.0717e-08
-1.0453e-09
1.8567e-09
-2.92e-09
-2.3261e-08
-1.0365e-09
1.8879e-09
-2.9802e-09
-2.5763e-08
-9.8842e-10
1.8583e-09
-2.9474e-09
-2.8136e-08
-8.997e-10
1.7612e-09
-2.8132e-09
-3.0281e-08
-7.6843e-10
1.5902e-09
-2.5693e-09
-3.2072e-08
-5.9157e-10
1.3342e-09
-2.2021e-09
-3.335e-08
-3.5877e-10
9.5782e-10
-1.6563e-09
-3.3998e-08
-4.3899e-11
3.8609e-10
-7.8396e-10
-3.3935e-08
2.49e-10
-2.8695e-10
4.0647e-10
-3.2903e-08
6.4136e-10
-9.1376e-10
1.3093e-09
-3.0911e-08
9.889e-10
-1.4918e-09
2.2048e-09
-2.8134e-08
1.2754e-09
-2.0024e-09
3.016e-09
-2.4807e-08
1.4862e-09
-2.4225e-09
3.6902e-09
-2.1129e-08
1.6228e-09
-2.7376e-09
4.1938e-09
-1.723e-08
1.6951e-09
-2.9426e-09
4.5331e-09
-1.3191e-08
1.706e-09
-3.0426e-09
4.7231e-09
-9.1009e-09
1.6531e-09
-3.0352e-09
4.7591e-09
-5.1134e-09
1.5243e-09
-2.9102e-09
4.6172e-09
-1.4618e-09
1.3114e-09
-2.6575e-09
4.2723e-09
1.5762e-09
1.0244e-09
-2.2775e-09
3.7179e-09
3.7605e-09
6.9004e-10
-1.7781e-09
2.9568e-09
4.9327e-09
3.6834e-10
-1.2626e-09
2.1292e-09
5.356e-09
-1.3748e-10
-4.4267e-10
8.6246e-10
5.1999e-09
-3.6775e-10
2.7899e-10
-4.2436e-10
4.4669e-09
-4.7314e-10
5.6036e-10
-8.2478e-10
3.5332e-09
-5.5794e-10
7.757e-10
-1.1863e-09
2.5104e-09
-5.6495e-10
8.5837e-10
-1.2641e-09
1.5449e-09
-4.21e-10
6.0927e-10
-9.4397e-10
4.9061e-10
4.3365e-11
-6.7639e-12
-7.9303e-11
4.252e-10
-5.3491e-10
6.0841e-10
-4.5877e-09
1.6339e-11
-1.8043e-11
4.0662e-11
-4.2642e-09
1.0258e-11
-1.3539e-11
4.1835e-11
-4.0384e-09
-8.7578e-12
9.3e-12
1.3766e-11
-3.9238e-09
-5.6036e-11
6.5421e-11
-1.0207e-10
-3.9402e-09
-1.0154e-10
1.2501e-10
-2.2153e-10
-4.0769e-09
-1.4775e-10
1.8284e-10
-3.2772e-10
-4.3197e-09
-1.9698e-10
2.4189e-10
-4.2395e-10
-4.6643e-09
-2.5212e-10
3.0766e-10
-5.2436e-10
-5.1166e-09
-3.0847e-10
3.83e-10
-6.4989e-10
-5.6997e-09
-3.6969e-10
4.7332e-10
-8.0836e-10
-6.447e-09
-4.4053e-10
5.8139e-10
-1.0036e-09
-7.3942e-09
-5.2357e-10
7.0757e-10
-1.2335e-09
-8.5712e-09
-6.195e-10
8.4958e-10
-1.4913e-09
-9.9983e-09
-7.228e-10
1.0022e-09
-1.7679e-09
-1.1685e-08
-8.2703e-10
1.1583e-09
-2.0514e-09
-1.3628e-08
-9.2211e-10
1.3085e-09
-2.3283e-09
-1.5808e-08
-9.9866e-10
1.4425e-09
-2.5816e-09
-1.8186e-08
-1.0474e-09
1.5493e-09
-2.7914e-09
-2.0695e-08
-1.061e-09
1.6186e-09
-2.9376e-09
-2.3252e-08
-1.0342e-09
1.6418e-09
-3.0033e-09
-2.5768e-08
-9.6464e-10
1.6129e-09
-2.9778e-09
-2.8156e-08
-8.5142e-10
1.5282e-09
-2.8554e-09
-3.0322e-08
-6.9522e-10
1.3843e-09
-2.6297e-09
-3.214e-08
-5.0191e-10
1.1763e-09
-2.286e-09
-3.3448e-08
-2.7078e-10
8.8076e-10
-1.7696e-09
-3.4151e-08
1.9987e-11
4.3084e-10
-8.8792e-10
-3.4117e-08
3.5476e-11
-5.6256e-11
4.2123e-10
-3.3052e-08
4.4574e-10
-5.9329e-10
1.3463e-09
-3.1038e-08
8.0572e-10
-1.1102e-09
2.3003e-09
-2.823e-08
1.0845e-09
-1.5571e-09
3.1321e-09
-2.4873e-08
1.2838e-09
-1.9239e-09
3.8156e-09
-2.1176e-08
1.4041e-09
-2.1949e-09
4.325e-09
-1.7264e-08
1.4521e-09
-2.3695e-09
4.6723e-09
-1.3208e-08
1.4314e-09
-2.4534e-09
4.8758e-09
-9.0892e-09
1.3375e-09
-2.4444e-09
4.9327e-09
-5.0599e-09
1.1564e-09
-2.3336e-09
4.8167e-09
-1.3568e-09
8.8569e-10
-2.1189e-09
4.5017e-09
1.7282e-09
5.57e-10
-1.8168e-09
3.9847e-09
3.9221e-09
2.478e-10
-1.4494e-09
3.264e-09
5.081e-09
3.2168e-11
-1.1025e-09
2.4304e-09
5.5099e-09
-2.8747e-10
-4.4036e-10
9.1356e-10
5.3463e-09
-2.8871e-10
1.2361e-10
-4.5638e-10
4.517e-09
-3.1509e-10
3.8404e-10
-9.3152e-10
3.5327e-09
-5.067e-10
5.5007e-10
-1.2392e-09
2.4582e-09
-4.8808e-10
6.3417e-10
-1.3214e-09
1.4561e-09
-2.9941e-10
4.3339e-10
-1.0431e-09
3.8918e-10
3.5912e-10
-1.7309e-10
-1.8224e-10
7.0737e-10
-5.8999e-10
5.8153e-10
-4.5784e-09
-1.6563e-11
2.9075e-11
2.8889e-11
-4.2408e-09
-1.0807e-11
2.4224e-11
2.374e-11
-4.0115e-09
8.0353e-12
6.8638e-12
6.1039e-12
-3.8935e-09
5.511e-11
-7.0234e-11
-7.1144e-11
-3.9097e-09
1.0056e-10
-1.3984e-10
-1.4085e-10
-4.0467e-09
1.4678e-10
-2.0499e-10
-2.0619e-10
-4.2889e-09
1.9606e-10
-2.6866e-10
-2.6993e-10
-4.6296e-09
2.5142e-10
-3.3894e-10
-3.4023e-10
-5.0752e-09
3.0772e-10
-4.1555e-10
-4.1723e-10
-5.6489e-09
3.6905e-10
-5.0393e-10
-5.06e-10
-6.3862e-09
4.4009e-10
-6.091e-10
-6.1088e-10
-7.3249e-09
5.2343e-10
-7.3319e-10
-7.3415e-10
-8.4956e-09
6.1959e-10
-8.7518e-10
-8.769e-10
-9.9193e-09
7.233e-10
-1.0292e-09
-1.0292e-09
-1.1605e-08
8.2799e-10
-1.185e-09
-1.1851e-09
-1.3552e-08
9.2363e-10
-1.3306e-09
-1.3304e-09
-1.5742e-08
1.0007e-09
-1.4531e-09
-1.4531e-09
-1.8134e-08
1.0498e-09
-1.5395e-09
-1.5393e-09
-2.0663e-08
1.0638e-09
-1.5788e-09
-1.5783e-09
-2.324e-08
1.0372e-09
-1.5629e-09
-1.5622e-09
-2.5776e-08
9.6781e-10
-1.4883e-09
-1.4873e-09
-2.8185e-08
8.5463e-10
-1.3537e-09
-1.3525e-09
-3.0376e-08
6.9831e-10
-1.1604e-09
-1.1594e-09
-3.2225e-08
5.0476e-10
-9.1845e-10
-9.1566e-10
-3.3552e-08
2.7299e-10
-6.1964e-10
-6.1667e-10
-3.4289e-08
-1.9023e-11
-1.5538e-10
-1.5484e-10
-3.4341e-08
-3.5651e-11
1.2363e-10
1.2342e-10
-3.3285e-08
-4.4742e-10
6.6752e-10
6.666e-10
-3.1243e-08
-8.078e-10
1.2027e-09
1.2016e-09
-2.839e-08
-1.0886e-09
1.6297e-09
1.6281e-09
-2.4988e-08
-1.2884e-09
1.946e-09
1.9443e-09
-2.1258e-08
-1.4091e-09
2.1517e-09
2.1498e-09
-1.7323e-08
-1.4571e-09
2.2568e-09
2.2561e-09
-1.3242e-08
-1.4365e-09
2.2725e-09
2.2727e-09
-9.0806e-09
-1.3428e-09
2.1924e-09
2.192e-09
-4.9885e-09
-1.162e-09
1.9949e-09
1.9908e-09
-1.2133e-09
-8.9093e-10
1.6647e-09
1.6632e-09
1.9329e-09
-5.6171e-10
1.2403e-09
1.2368e-09
4.0733e-09
-2.5181e-10
8.4825e-10
8.4494e-10
5.1561e-09
-3.5549e-11
4.756e-10
4.7163e-10
5.6387e-09
2.8478e-10
-2.2282e-10
-2.2565e-10
5.4973e-09
2.8699e-10
-4.7535e-10
-4.7737e-10
4.6157e-09
3.144e-10
-5.0964e-10
-5.1146e-10
3.5212e-09
5.0697e-10
-7.7576e-10
-7.777e-10
2.4044e-09
4.8832e-10
-7.6335e-10
-7.6505e-10
1.3569e-09
2.9936e-10
-5.074e-10
-5.0931e-10
3.0811e-10
-3.5941e-10
3.4002e-10
3.3891e-10
-7.0758e-10
8.2997e-10
8.2897e-10
-4.5876e-09
-1.8022e-11
-1.5297e-11
4.0615e-11
-4.264e-09
-1.3665e-11
-1.5161e-11
4.1804e-11
-4.0383e-09
9.3168e-12
9.7417e-13
1.3571e-11
-3.9236e-09
6.5402e-11
4.7939e-11
-1.0227e-10
-3.94e-09
1.248e-10
9.7287e-11
-2.2157e-10
-4.0768e-09
1.8246e-10
1.4268e-10
-3.2767e-10
-4.3196e-09
2.4124e-10
1.861e-10
-4.2376e-10
-4.664e-09
3.0696e-10
2.3205e-10
-5.2422e-10
-5.1164e-09
3.8219e-10
2.8202e-10
-6.4966e-10
-5.6996e-09
4.7243e-10
3.3998e-10
-8.0837e-10
-6.447e-09
5.8054e-10
4.0989e-10
-1.004e-09
-7.3942e-09
7.067e-10
4.925e-10
-1.2343e-09
-8.5713e-09
8.4833e-10
5.8598e-10
-1.4919e-09
-9.9987e-09
1.0005e-09
6.8619e-10
-1.7682e-09
-1.1685e-08
1.1562e-09
7.8721e-10
-2.0516e-09
-1.3628e-08
1.306e-09
8.8191e-10
-2.3285e-09
-1.5809e-08
1.4398e-09
9.6243e-10
-2.5821e-09
-1.8187e-08
1.5463e-09
1.0203e-09
-2.792e-09
-2.0695e-08
1.6154e-09
1.0477e-09
-2.938e-09
-2.3252e-08
1.6384e-09
1.0389e-09
-3.0036e-09
-2.5769e-08
1.6095e-09
9.9096e-10
-2.9779e-09
-2.8157e-08
1.5249e-09
9.0228e-10
-2.8554e-09
-3.0323e-08
1.3816e-09
7.7122e-10
-2.6301e-09
-3.214e-08
1.174e-09
5.9377e-10
-2.2854e-09
-3.3448e-08
8.7878e-10
3.5974e-10
-1.7686e-09
-3.4152e-08
4.3039e-10
4.4776e-11
-8.8722e-10
-3.4117e-08
-5.4668e-11
-2.4726e-10
4.2117e-10
-3.3053e-08
-5.9168e-10
-6.4184e-10
1.3466e-09
-3.1039e-08
-1.1072e-09
-9.9043e-10
2.3001e-09
-2.823e-08
-1.5531e-09
-1.2791e-09
3.132e-09
-2.4873e-08
-1.9192e-09
-1.4896e-09
3.8153e-09
-2.1175e-08
-2.189e-09
-1.6273e-09
4.3242e-09
-1.7264e-08
-2.3632e-09
-1.6991e-09
4.6709e-09
-1.3207e-08
-2.4468e-09
-1.7102e-09
4.8744e-09
-9.089e-09
-2.438e-09
-1.6575e-09
4.9317e-09
-5.0602e-09
-2.3273e-09
-1.5282e-09
4.8145e-09
-1.3566e-09
-2.1121e-09
-1.3133e-09
4.4982e-09
1.728e-09
-1.8112e-09
-1.0265e-09
3.9828e-09
3.9218e-09
-1.4446e-09
-6.914e-10
3.2623e-09
5.0805e-09
-1.0986e-09
-3.6868e-10
2.4289e-09
5.5094e-09
-4.3759e-10
1.373e-10
9.1146e-10
5.346e-09
1.2524e-10
3.6756e-10
-4.5803e-10
4.5165e-09
3.8462e-10
4.7417e-10
-9.3322e-10
3.5326e-09
5.4996e-10
5.5902e-10
-1.2407e-09
2.4582e-09
6.3414e-10
5.6639e-10
-1.3229e-09
1.4561e-09
4.3325e-10
4.2204e-10
-1.0447e-09
3.8934e-10
-1.7308e-10
-4.2697e-11
-1.8348e-10
-5.9004e-10
-4.2518e-10
5.8113e-10
-4.5966e-09
-1.1325e-11
-1.1276e-11
-4.2862e-09
-8.652e-12
-8.5198e-12
-4.0647e-09
1.0635e-11
1.0975e-11
-3.9535e-09
4.7926e-11
4.8459e-11
-3.9702e-09
8.9502e-11
9.0305e-11
-4.1065e-09
1.3066e-10
1.3165e-10
-4.349e-09
1.7335e-10
1.7439e-10
-4.694e-09
2.2178e-10
2.2289e-10
-5.1511e-09
2.7638e-10
2.7776e-10
-5.7416e-09
3.404e-10
3.4191e-10
-6.4968e-09
4.1657e-10
4.182e-10
-7.4505e-09
5.0537e-10
5.0723e-10
-8.6312e-09
6.0513e-10
6.0733e-10
-1.0059e-08
7.123e-10
7.1487e-10
-1.1741e-08
8.2164e-10
8.2451e-10
-1.3675e-08
9.2649e-10
9.2971e-10
-1.584e-08
1.0194e-09
1.023e-09
-1.8196e-08
1.0926e-09
1.0966e-09
-2.0677e-08
1.1388e-09
1.143e-09
-2.3205e-08
1.1521e-09
1.1565e-09
-2.5691e-08
1.1287e-09
1.1331e-09
-2.8047e-08
1.066e-09
1.0702e-09
-3.0175e-08
9.6184e-10
9.6557e-10
-3.1953e-08
8.1203e-10
8.1501e-10
-3.3234e-08
6.0403e-10
6.0612e-10
-3.3932e-08
3.1884e-10
3.1957e-10
-3.3787e-08
-2.107e-11
-2.1935e-11
-3.2726e-08
-3.8841e-10
-3.9047e-10
-3.0754e-08
-7.4813e-10
-7.5175e-10
-2.8007e-08
-1.0622e-09
-1.0671e-09
-2.4708e-08
-1.3183e-09
-1.3241e-09
-2.1051e-08
-1.5047e-09
-1.5114e-09
-1.7168e-08
-1.6237e-09
-1.6309e-09
-1.3142e-08
-1.6791e-09
-1.6866e-09
-9.066e-09
-1.6693e-09
-1.6766e-09
-5.0946e-09
-1.5876e-09
-1.5947e-09
-1.4545e-09
-1.4338e-09
-1.4404e-09
1.5845e-09
-1.2225e-09
-1.2279e-09
3.7877e-09
-9.7027e-10
-9.7431e-10
5.0145e-09
-7.485e-10
-7.5107e-10
5.4872e-09
-3.1507e-10
-3.1619e-10
5.3291e-09
5.382e-11
5.3612e-11
4.5217e-09
2.814e-10
2.8249e-10
3.5762e-09
3.2848e-10
3.2993e-10
2.5263e-09
4.261e-10
4.2789e-10
1.5417e-09
2.6957e-10
2.7097e-10
4.6688e-10
-1.2957e-10
-1.2868e-10
-4.0742e-10
-4.0716e-10
-4.6004e-09
-5.5156e-12
-1.2307e-11
-4.3009e-09
-3.6169e-12
-9.4228e-12
-4.0851e-09
4.921e-12
1.0767e-11
-3.9767e-09
2.5276e-11
5.4776e-11
-3.9916e-09
4.7367e-11
1.047e-10
-4.1253e-09
6.9236e-11
1.5244e-10
-4.3675e-09
9.2212e-11
1.9976e-10
-4.7154e-09
1.1777e-10
2.5158e-10
-5.177e-09
1.4598e-10
3.1301e-10
-5.7733e-09
1.7887e-10
3.8758e-10
-6.5346e-09
2.1803e-10
4.7681e-10
-7.4934e-09
2.6376e-10
5.8064e-10
-8.6778e-09
3.1514e-10
6.9679e-10
-1.0107e-08
3.7024e-10
8.2112e-10
-1.1789e-08
4.2621e-10
9.4795e-10
-1.372e-08
4.7957e-10
1.0703e-09
-1.5878e-08
5.263e-10
1.1801e-09
-1.8223e-08
5.6224e-10
1.2682e-09
-2.0692e-08
5.8354e-10
1.3261e-09
-2.3205e-08
5.8716e-10
1.3464e-09
-2.5676e-08
5.7103e-10
1.3234e-09
-2.8014e-08
5.3375e-10
1.2528e-09
-3.0121e-08
4.7386e-10
1.1299e-09
-3.1872e-08
3.8881e-10
9.4653e-10
-3.3124e-08
2.7254e-10
6.8266e-10
-3.3761e-08
1.1747e-10
3.0845e-10
-3.3622e-08
-5.8885e-11
-1.4365e-10
-3.2576e-08
-2.2579e-10
-6.0124e-10
-3.0626e-08
-4.1062e-10
-1.0151e-09
-2.7913e-08
-5.696e-10
-1.3812e-09
-2.4643e-08
-6.9558e-10
-1.6821e-09
-2.1008e-08
-7.8373e-10
-1.9067e-09
-1.7141e-08
-8.3569e-10
-2.0531e-09
-1.3135e-08
-8.5297e-10
-2.1261e-09
-9.089e-09
-8.3707e-10
-2.1221e-09
-5.1597e-09
-7.831e-10
-2.0344e-09
-1.5691e-09
-6.9037e-10
-1.8584e-09
1.426e-09
-5.6481e-10
-1.5981e-09
3.6091e-09
-4.1565e-10
-1.2646e-09
4.8345e-09
-2.8222e-10
-9.4086e-10
5.313e-09
-5.5183e-11
-3.8908e-10
5.1862e-09
1.2561e-10
9.1671e-11
4.49e-09
1.5015e-10
4.1363e-10
3.5614e-09
1.6975e-10
4.9469e-10
2.5922e-09
2.1917e-10
5.7458e-10
1.625e-09
1.3067e-10
4.023e-10
5.6993e-10
-6.595e-11
-5.0396e-12
-2.0257e-10
-3.7185e-10
-4.6032e-09
-7.4292e-14
-1.1301e-11
-4.3074e-09
-1.8231e-13
-6.697e-12
-4.0946e-09
-2.9861e-13
1.303e-11
-3.9876e-09
-3.6243e-13
5.8409e-11
-4.0023e-09
-4.687e-13
1.1079e-10
-4.1352e-09
-5.2088e-13
1.6153e-10
-4.3772e-09
-5.6975e-13
2.1218e-10
-4.7262e-09
-5.904e-13
2.6692e-10
-5.1902e-09
-5.6229e-13
3.3258e-10
-5.7894e-09
-5.4528e-13
4.1339e-10
-6.5536e-09
-4.7307e-13
5.1018e-10
-7.515e-09
-3.8323e-13
6.2258e-10
-8.7012e-09
-3.2204e-13
7.4808e-10
-1.0131e-08
-2.3704e-13
8.8235e-10
-1.1813e-08
-1.5415e-13
1.0195e-09
-1.3742e-08
-5.7947e-15
1.1525e-09
-1.5897e-08
1.2384e-13
1.2727e-09
-1.8238e-08
2.1186e-13
1.3706e-09
-2.07e-08
2.2585e-13
1.4368e-09
-2.3206e-08
2.1296e-13
1.4634e-09
-2.5669e-08
2.0844e-13
1.4438e-09
-2.7998e-08
2.264e-13
1.3728e-09
-3.0094e-08
2.7738e-13
1.2447e-09
-3.1832e-08
2.6891e-13
1.0496e-09
-3.307e-08
2.4816e-13
7.6447e-10
-3.3694e-08
2.559e-13
3.5744e-10
-3.3549e-08
4.0598e-13
-1.2394e-10
-3.2503e-08
1.2271e-13
-6.0384e-10
-3.0562e-08
-1.3726e-13
-1.0451e-09
-2.7862e-08
-3.2488e-13
-1.4404e-09
-2.4607e-08
-2.2371e-13
-1.7711e-09
-2.0983e-08
-1.1509e-13
-2.0207e-09
-1.7125e-08
-2.9554e-14
-2.19e-09
-1.3128e-08
5.3836e-14
-2.2786e-09
-9.0968e-09
3.8281e-14
-2.2852e-09
-5.188e-09
4.9556e-14
-2.2019e-09
-1.6212e-09
3.8638e-14
-2.0232e-09
1.3531e-09
-1.014e-13
-1.7507e-09
3.5256e-09
-1.9912e-13
-1.3931e-09
4.7415e-09
-2.2154e-13
-1.03e-09
5.2412e-09
-2.3763e-13
-4.5847e-10
5.16e-09
-2.7003e-13
5.6287e-11
4.5036e-09
-4.4831e-13
3.4392e-10
3.5734e-09
-4.2984e-13
4.562e-10
2.6167e-09
-2.3318e-13
5.404e-10
1.6516e-09
-1.2793e-13
3.7402e-10
6.0734e-10
-1.0617e-13
-1.5936e-11
-4.9377e-14
-3.5513e-10
-4.6033e-09
5.3658e-12
-1.1312e-11
-4.3074e-09
3.2543e-12
-6.7255e-12
-4.0947e-09
-5.5134e-12
1.2972e-11
-3.9877e-09
-2.6014e-11
5.8319e-11
-4.0023e-09
-4.828e-11
1.107e-10
-4.1352e-09
-7.0252e-11
1.6145e-10
-4.3772e-09
-9.3335e-11
2.121e-10
-4.7262e-09
-1.1901e-10
2.6684e-10
-5.1902e-09
-1.4715e-10
3.3247e-10
-5.7894e-09
-1.7997e-10
4.1328e-10
-6.5536e-09
-2.1897e-10
5.1004e-10
-7.515e-09
-2.645e-10
6.2241e-10
-8.7012e-09
-3.1576e-10
7.4789e-10
-1.0131e-08
-3.7072e-10
8.8214e-10
-1.1813e-08
-4.2655e-10
1.0193e-09
-1.3742e-08
-4.7965e-10
1.1523e-09
-1.5897e-08
-5.2614e-10
1.2725e-09
-1.8237e-08
-5.6195e-10
1.3703e-09
-2.07e-08
-5.8324e-10
1.4366e-09
-2.3206e-08
-5.869e-10
1.4632e-09
-2.5669e-08
-5.7079e-10
1.4436e-09
-2.7998e-08
-5.3346e-10
1.3726e-09
-3.0094e-08
-4.7343e-10
1.2445e-09
-3.1832e-08
-3.884e-10
1.0495e-09
-3.3071e-08
-2.7218e-10
7.6441e-10
-3.3694e-08
-1.1699e-10
3.5744e-10
-3.3549e-08
5.9809e-11
-1.2399e-10
-3.2503e-08
2.2622e-10
-6.0373e-10
-3.0562e-08
4.1044e-10
-1.0449e-09
-2.7862e-08
5.694e-10
-1.4401e-09
-2.4607e-08
6.9531e-10
-1.7708e-09
-2.0983e-08
7.8381e-10
-2.0204e-09
-1.7125e-08
8.3558e-10
-2.1897e-09
-1.3128e-08
8.5323e-10
-2.2784e-09
-9.0969e-09
8.3717e-10
-2.2851e-09
-5.188e-09
7.8318e-10
-2.2018e-09
-1.6212e-09
6.905e-10
-2.023e-09
1.3531e-09
5.6457e-10
-1.7505e-09
3.5257e-09
4.1526e-10
-1.3931e-09
4.7416e-09
2.8176e-10
-1.0301e-09
5.2412e-09
5.4548e-11
-4.5857e-10
5.16e-09
-1.2632e-10
5.6083e-11
4.5036e-09
-1.5108e-10
3.4377e-10
3.5734e-09
-1.7049e-10
4.56e-10
2.6167e-09
-2.1967e-10
5.4011e-10
1.6516e-09
-1.3103e-10
3.7379e-10
6.0734e-10
6.5691e-11
-1.6125e-11
2.0242e-10
-3.5518e-10
-4.6005e-09
1.1194e-11
-1.2354e-11
-4.301e-09
8.3575e-12
-9.5447e-12
-4.0852e-09
-1.1234e-11
1.0576e-11
-3.9768e-09
-4.8724e-11
5.4517e-11
-3.9917e-09
-9.047e-11
1.0435e-10
-4.1254e-09
-1.3173e-10
1.5211e-10
-4.3676e-09
-1.7452e-10
1.9948e-10
-4.7155e-09
-2.229e-10
2.5126e-10
-5.1771e-09
-2.7759e-10
3.1271e-10
-5.7734e-09
-3.4149e-10
3.8724e-10
-6.5346e-09
-4.1743e-10
4.764e-10
-7.4934e-09
-5.0595e-10
5.8012e-10
-8.6777e-09
-6.0568e-10
6.9621e-10
-1.0107e-08
-7.1279e-10
8.2049e-10
-1.1789e-08
-8.2204e-10
9.4735e-10
-1.3719e-08
-9.2669e-10
1.0697e-09
-1.5878e-08
-1.0194e-09
1.1795e-09
-1.8223e-08
-1.0925e-09
1.2676e-09
-2.0692e-08
-1.1387e-09
1.3255e-09
-2.3205e-08
-1.1521e-09
1.3458e-09
-2.5676e-08
-1.1287e-09
1.3229e-09
-2.8014e-08
-1.066e-09
1.2523e-09
-3.0121e-08
-9.6157e-10
1.1294e-09
-3.1872e-08
-8.117e-10
9.4626e-10
-3.3124e-08
-6.0393e-10
6.8254e-10
-3.3761e-08
-3.1839e-10
3.0845e-10
-3.3623e-08
2.2157e-11
-1.4379e-10
-3.2577e-08
3.8863e-10
-6.0088e-10
-3.0626e-08
7.4847e-10
-1.0147e-09
-2.7913e-08
1.0623e-09
-1.38e-09
-2.4643e-08
1.3184e-09
-1.6813e-09
-2.1008e-08
1.5047e-09
-1.9056e-09
-1.7142e-08
1.6238e-09
-2.0524e-09
-1.3135e-08
1.6793e-09
-2.1255e-09
-9.0891e-09
1.6691e-09
-2.1216e-09
-5.1598e-09
1.5874e-09
-2.034e-09
-1.5692e-09
1.434e-09
-1.8582e-09
1.4261e-09
1.2221e-09
-1.5978e-09
3.6091e-09
9.6988e-10
-1.2645e-09
4.8346e-09
7.4806e-10
-9.4108e-10
5.3131e-09
3.1425e-10
-3.895e-10
5.1862e-09
-5.4816e-11
9.1083e-11
4.4899e-09
-2.8227e-10
4.1311e-10
3.5616e-09
-3.2961e-10
4.9417e-10
2.5923e-09
-4.2692e-10
5.7406e-10
1.625e-09
-2.7017e-10
4.0172e-10
5.699e-10
1.2922e-10
-5.4714e-12
4.0722e-10
-3.7203e-10
-4.5967e-09
1.7891e-11
-1.1356e-11
-4.2863e-09
1.3471e-11
-8.753e-12
-4.0648e-09
-9.901e-12
1.069e-11
-3.9537e-09
-6.6223e-11
4.8066e-11
-3.9703e-09
-1.2565e-10
8.9841e-11
-4.1066e-09
-1.8349e-10
1.3116e-10
-4.3491e-09
-2.4243e-10
1.7399e-10
-4.6941e-09
-3.0823e-10
2.2256e-10
-5.1513e-09
-3.8345e-10
2.7729e-10
-5.7417e-09
-4.7358e-10
3.4137e-10
-6.4969e-09
-5.8137e-10
4.175e-10
-7.4505e-09
-7.0713e-10
5.0629e-10
-8.6311e-09
-8.4886e-10
6.0637e-10
-1.0058e-08
-1.001e-09
7.1388e-10
-1.1741e-08
-1.1565e-09
8.2367e-10
-1.3675e-08
-1.3062e-09
9.2895e-10
-1.584e-08
-1.4398e-09
1.0223e-09
-1.8195e-08
-1.5462e-09
1.0958e-09
-2.0677e-08
-1.6153e-09
1.1422e-09
-2.3204e-08