/*--------------------------------*- C++ -*----------------------------------*\
| =========                 |                                                 |
| \\      /  F ield         | OpenFOAM: The Open Source CFD Toolbox           |
|  \\    /   O peration     | Version:  4.1                                   |
|   \\  /    A nd           | Web:      www.OpenFOAM.org                      |
|    \\/     M anipulation  |                                                 |
\*---------------------------------------------------------------------------*/
FoamFile
{
    version     2.0;
    format      ascii;
    class       pointVectorField;
    location    "0.0060";
    object      pointDisplacement_Next;
}
// * * * * * * * * * * * * * * * * * * * * * * * * * * * * * * * * * * * * * //

dimensions      [0 1 0 0 0 0 0];

internalField   uniform (0 0 0);

boundaryField
{
    inlet
    {
        type            fixedValue;
        value           uniform (0 0 0);
    }
    outlet
    {
        type            fixedValue;
        value           uniform (0 0 0);
    }
    mantle
    {
        type            fixedValue;
        value           nonuniform List<vector> 
1568
(
(3.4934e-13 -3.5206e-13 -2.6777e-17)
(9.5036e-07 -8.8364e-07 -5.7022e-11)
(9.5124e-07 -8.1934e-07 1.339e-07)
(-1.4484e-10 -8.9579e-09 -2.575e-09)
(9.5332e-07 -7.1221e-07 2.8515e-07)
(2.612e-13 -1.8294e-12 7.2861e-13)
(9.5865e-07 -6.461e-07 4.5061e-07)
(3.1306e-10 -2.8175e-09 7.7764e-09)
(9.6131e-07 -5.8286e-07 5.8287e-07)
(4.8953e-13 1.5851e-12 -1.585e-12)
(9.5875e-07 -4.5054e-07 6.4604e-07)
(3.1278e-10 -7.7729e-09 2.8144e-09)
(9.5352e-07 -2.8506e-07 7.1211e-07)
(2.6124e-13 -7.2872e-13 1.8296e-12)
(9.5152e-07 -1.3383e-07 8.1923e-07)
(-1.4185e-10 2.5748e-09 8.9603e-09)
(9.5066e-07 9.6151e-11 8.8353e-07)
(3.4944e-13 5.663e-17 3.5204e-13)
(1.9833e-06 -7.3548e-07 -7.3915e-11)
(1.981e-06 -6.1943e-07 8.0619e-08)
(1.9793e-06 -4.7497e-07 1.8235e-07)
(1.9865e-06 -4.3267e-07 3.1565e-07)
(1.993e-06 -4.3034e-07 4.3029e-07)
(1.9867e-06 -3.1555e-07 4.3241e-07)
(1.9797e-06 -1.822e-07 4.7455e-07)
(1.9816e-06 -8.0508e-08 6.1896e-07)
(1.9839e-06 9.7542e-11 7.3501e-07)
(3.0539e-06 1.2832e-06 -6.5423e-11)
(3.0402e-06 1.3006e-06 -2.7245e-07)
(3.0214e-06 1.2887e-06 -5.3857e-07)
(3.023e-06 1.1979e-06 -7.959e-07)
(3.0302e-06 1.0217e-06 -1.0219e-06)
(3.0232e-06 7.9599e-07 -1.1985e-06)
(3.0219e-06 5.3875e-07 -1.2897e-06)
(3.0408e-06 2.7257e-07 -1.3017e-06)
(3.0545e-06 3.6813e-11 -1.2844e-06)
(4.0811e-06 4.9659e-06 -4.409e-11)
(4.0544e-06 4.8439e-06 -9.3728e-07)
(4.0112e-06 4.5359e-06 -1.8634e-06)
(3.9997e-06 4.1434e-06 -2.7846e-06)
(4.0036e-06 3.5813e-06 -3.5817e-06)
(3.9999e-06 2.7847e-06 -4.1444e-06)
(4.0117e-06 1.8636e-06 -4.5375e-06)
(4.0549e-06 9.3737e-07 -4.8457e-06)
(4.0816e-06 -6.9438e-11 -4.9678e-06)
(4.9652e-06 9.5542e-06 -4.3104e-11)
(4.9363e-06 9.3171e-06 -1.8228e-06)
(4.8814e-06 8.6926e-06 -3.5751e-06)
(4.8433e-06 7.8058e-06 -5.2214e-06)
(4.8317e-06 6.6558e-06 -6.6564e-06)
(4.8435e-06 5.2213e-06 -7.8071e-06)
(4.8818e-06 3.5752e-06 -8.6946e-06)
(4.9368e-06 1.8228e-06 -9.3195e-06)
(4.9657e-06 -1.8884e-10 -9.5567e-06)
(5.6047e-06 1.3975e-05 -4.8594e-11)
(5.5758e-06 1.363e-05 -2.7067e-06)
(5.5196e-06 1.2701e-05 -5.2529e-06)
(5.4668e-06 1.1292e-05 -7.5353e-06)
(5.4451e-06 9.5556e-06 -9.5563e-06)
(5.467e-06 7.5352e-06 -1.1294e-05)
(5.5199e-06 5.2529e-06 -1.2703e-05)
(5.5761e-06 2.7066e-06 -1.3633e-05)
(5.605e-06 -3.0541e-10 -1.3978e-05)
(5.8747e-06 1.6958e-05 -7.1318e-11)
(5.8596e-06 1.6579e-05 -3.3498e-06)
(5.8209e-06 1.544e-05 -6.4285e-06)
(5.777e-06 1.3637e-05 -9.0878e-06)
(5.756e-06 1.1452e-05 -1.1453e-05)
(5.7771e-06 9.0875e-06 -1.3639e-05)
(5.8211e-06 6.4284e-06 -1.5443e-05)
(5.8598e-06 3.3495e-06 -1.6582e-05)
(5.8749e-06 -4.4566e-10 -1.6961e-05)
(5.725e-06 1.7464e-05 -1.053e-10)
(5.7216e-06 1.7078e-05 -3.4784e-06)
(5.7098e-06 1.5896e-05 -6.6497e-06)
(5.688e-06 1.3956e-05 -9.2979e-06)
(5.6775e-06 1.166e-05 -1.1661e-05)
(5.688e-06 9.2975e-06 -1.3958e-05)
(5.7097e-06 6.6495e-06 -1.5898e-05)
(5.7216e-06 3.478e-06 -1.7081e-05)
(5.725e-06 -5.8912e-10 -1.7466e-05)
(5.1576e-06 1.4681e-05 -1.5263e-10)
(5.1711e-06 1.4276e-05 -2.8599e-06)
(5.1869e-06 1.3175e-05 -5.4755e-06)
(5.1855e-06 1.1563e-05 -7.7153e-06)
(5.1789e-06 9.7079e-06 -9.7089e-06)
(5.1854e-06 7.7147e-06 -1.1565e-05)
(5.1867e-06 5.475e-06 -1.3178e-05)
(5.1709e-06 2.8593e-06 -1.4278e-05)
(5.1574e-06 -6.7267e-10 -1.4683e-05)
(4.2821e-06 8.196e-06 -1.6449e-10)
(4.3108e-06 7.8559e-06 -1.5357e-06)
(4.3561e-06 7.1032e-06 -2.9176e-06)
(4.3557e-06 6.1712e-06 -4.123e-06)
(4.3509e-06 5.2084e-06 -5.2096e-06)
(4.3555e-06 4.1222e-06 -6.1728e-06)
(4.3557e-06 2.9169e-06 -7.1051e-06)
(4.3104e-06 1.5348e-06 -7.8578e-06)
(4.2817e-06 -7.8807e-10 -8.1975e-06)
(3.2222e-06 -1.8489e-06 -6.6437e-10)
(3.276e-06 -1.9075e-06 3.7734e-07)
(3.3431e-06 -1.9997e-06 8.2972e-07)
(3.3329e-06 -1.9901e-06 1.3417e-06)
(3.3034e-06 -1.7707e-06 1.769e-06)
(3.3326e-06 -1.3426e-06 1.9887e-06)
(3.3426e-06 -8.306e-07 1.9981e-06)
(3.2754e-06 -3.7834e-07 1.9059e-06)
(3.2216e-06 -4.0284e-10 1.8477e-06)
(2.0621e-06 -1.4085e-05 -2.546e-10)
(2.1352e-06 -1.3802e-05 2.6838e-06)
(2.2206e-06 -1.3074e-05 5.3801e-06)
(2.1955e-06 -1.1946e-05 8.0133e-06)
(2.1468e-06 -1.0295e-05 1.0293e-05)
(2.1952e-06 -8.0143e-06 1.1945e-05)
(2.22e-06 -5.3811e-06 1.3073e-05)
(2.1345e-06 -2.685e-06 1.3801e-05)
(2.0614e-06 -9.1457e-10 1.4085e-05)
(7.8816e-07 -2.7024e-05 -1.653e-10)
(8.3997e-07 -2.6468e-05 5.2004e-06)
(9.0881e-07 -2.4936e-05 1.0298e-05)
(9.0865e-07 -2.2571e-05 1.5115e-05)
(8.8574e-07 -1.9304e-05 1.9303e-05)
(9.0828e-07 -1.5116e-05 2.257e-05)
(9.0816e-07 -1.0299e-05 2.4936e-05)
(8.3917e-07 -5.2017e-06 2.6468e-05)
(7.8734e-07 -1.042e-09 2.7023e-05)
(-8.7175e-07 -3.9808e-05 -3.3104e-10)
(-8.3995e-07 -3.8965e-05 7.6969e-06)
(-7.8522e-07 -3.6638e-05 1.5169e-05)
(-7.684e-07 -3.3057e-05 2.2138e-05)
(-7.6699e-07 -2.8216e-05 2.8215e-05)
(-7.6877e-07 -2.214e-05 3.3057e-05)
(-7.8588e-07 -1.517e-05 3.6638e-05)
(-8.4077e-07 -7.6984e-06 3.8966e-05)
(-8.7261e-07 -8.8819e-10 3.9808e-05)
(-3.205e-06 -5.2006e-05 -4.09e-10)
(-3.1596e-06 -5.093e-05 1.0098e-05)
(-3.0962e-06 -4.7877e-05 1.9843e-05)
(-3.0987e-06 -4.3104e-05 2.8855e-05)
(-3.1188e-06 -3.6722e-05 3.6721e-05)
(-3.0991e-06 -2.8857e-05 4.3104e-05)
(-3.0968e-06 -1.9845e-05 4.7877e-05)
(-3.1604e-06 -1.0099e-05 5.0931e-05)
(-3.2059e-06 -8.0191e-10 5.2007e-05)
(-6.2967e-06 -6.3767e-05 -2.9561e-10)
(-6.2357e-06 -6.2461e-05 1.2402e-05)
(-6.1571e-06 -5.8697e-05 2.433e-05)
(-6.1835e-06 -5.2789e-05 3.5318e-05)
(-6.2249e-06 -4.4918e-05 4.4918e-05)
(-6.1838e-06 -3.532e-05 5.2789e-05)
(-6.1577e-06 -2.4332e-05 5.8698e-05)
(-6.2365e-06 -1.2403e-05 6.2463e-05)
(-6.2976e-06 -8.6116e-10 6.3768e-05)
(-1.0066e-05 -7.5207e-05 1.2481e-10)
(-1.0013e-05 -7.3669e-05 1.4629e-05)
(-9.9454e-06 -6.9222e-05 2.8672e-05)
(-9.9528e-06 -6.2203e-05 4.1587e-05)
(-9.98e-06 -5.2893e-05 5.2893e-05)
(-9.9531e-06 -4.1588e-05 6.2203e-05)
(-9.9459e-06 -2.8673e-05 6.9223e-05)
(-1.0014e-05 -1.463e-05 7.367e-05)
(-1.0067e-05 -1.1546e-09 7.5209e-05)
(-1.4297e-05 -8.5948e-05 -9.3177e-11)
(-1.4253e-05 -8.4173e-05 1.6717e-05)
(-1.419e-05 -7.9064e-05 3.2742e-05)
(-1.4188e-05 -7.1014e-05 4.7469e-05)
(-1.4197e-05 -6.0368e-05 6.0367e-05)
(-1.4188e-05 -4.747e-05 7.1014e-05)
(-1.419e-05 -3.2744e-05 7.9065e-05)
(-1.4254e-05 -1.6718e-05 8.4174e-05)
(-1.4298e-05 -7.4758e-10 8.5948e-05)
(-1.8692e-05 -9.532e-05 4.7762e-10)
(-1.8646e-05 -9.3349e-05 1.8556e-05)
(-1.8588e-05 -8.7663e-05 3.6335e-05)
(-1.8593e-05 -7.8695e-05 5.2622e-05)
(-1.8616e-05 -6.6884e-05 6.6882e-05)
(-1.8594e-05 -5.2623e-05 7.8695e-05)
(-1.8589e-05 -3.6335e-05 8.7663e-05)
(-1.8646e-05 -1.8557e-05 9.3348e-05)
(-1.8692e-05 -1.0848e-09 9.5319e-05)
(-2.3006e-05 -0.00010266 1.8003e-10)
(-2.2961e-05 -0.00010052 1.9986e-05)
(-2.2918e-05 -9.4365e-05 3.9137e-05)
(-2.2942e-05 -8.4704e-05 5.6659e-05)
(-2.2977e-05 -7.1991e-05 7.1991e-05)
(-2.2942e-05 -5.6659e-05 8.4704e-05)
(-2.2919e-05 -3.9138e-05 9.4364e-05)
(-2.2962e-05 -1.9986e-05 0.00010052)
(-2.3006e-05 -5.2488e-10 0.00010266)
(-2.7118e-05 -0.00010725 2.1959e-10)
(-2.7102e-05 -0.00010497 2.0821e-05)
(-2.7094e-05 -9.8504e-05 4.0813e-05)
(-2.7119e-05 -8.8468e-05 5.9186e-05)
(-2.7144e-05 -7.5253e-05 7.5253e-05)
(-2.712e-05 -5.9186e-05 8.8467e-05)
(-2.7095e-05 -4.0813e-05 9.8503e-05)
(-2.7102e-05 -2.0821e-05 0.00010496)
(-2.7119e-05 -4.0615e-10 0.00010724)
(-3.1179e-05 -0.00010846 3.2341e-10)
(-3.1195e-05 -0.0001061 2.1004e-05)
(-3.1214e-05 -9.9547e-05 4.1218e-05)
(-3.1242e-05 -8.9464e-05 5.9861e-05)
(-3.1244e-05 -7.6174e-05 7.6173e-05)
(-3.1242e-05 -5.986e-05 8.9463e-05)
(-3.1214e-05 -4.1218e-05 9.9545e-05)
(-3.1196e-05 -2.1004e-05 0.00010609)
(-3.118e-05 -3.8502e-10 0.00010846)
(-3.5366e-05 -0.00010608 2.9354e-10)
(-3.5388e-05 -0.00010385 2.0588e-05)
(-3.5424e-05 -9.7518e-05 4.0392e-05)
(-3.5439e-05 -8.7647e-05 5.8637e-05)
(-3.5439e-05 -7.4584e-05 7.4584e-05)
(-3.5439e-05 -5.8636e-05 8.7647e-05)
(-3.5424e-05 -4.0392e-05 9.7516e-05)
(-3.5389e-05 -2.0588e-05 0.00010385)
(-3.5367e-05 -2.8317e-10 0.00010608)
(-3.9667e-05 -0.00010138 3.3819e-10)
(-3.9695e-05 -9.9324e-05 1.9731e-05)
(-3.9734e-05 -9.3337e-05 3.8692e-05)
(-3.9742e-05 -8.39e-05 5.6125e-05)
(-3.9735e-05 -7.1356e-05 7.1356e-05)
(-3.9743e-05 -5.6125e-05 8.3899e-05)
(-3.9735e-05 -3.8692e-05 9.3336e-05)
(-3.9695e-05 -1.9731e-05 9.9323e-05)
(-3.9668e-05 -2.8686e-10 0.00010138)
(-4.3949e-05 -9.563e-05 3.6039e-10)
(-4.3955e-05 -9.3693e-05 1.8613e-05)
(-4.3977e-05 -8.8083e-05 3.6508e-05)
(-4.4002e-05 -7.92e-05 5.2978e-05)
(-4.4016e-05 -6.7378e-05 6.7378e-05)
(-4.4002e-05 -5.2978e-05 7.92e-05)
(-4.3978e-05 -3.6508e-05 8.8083e-05)
(-4.3955e-05 -1.8612e-05 9.3692e-05)
(-4.395e-05 -2.3812e-10 9.563e-05)
(-4.789e-05 -8.9194e-05 2.7998e-10)
(-4.788e-05 -8.7364e-05 1.7331e-05)
(-4.789e-05 -8.2138e-05 3.4028e-05)
(-4.7925e-05 -7.3891e-05 4.9432e-05)
(-4.7955e-05 -6.2902e-05 6.2902e-05)
(-4.7925e-05 -4.9432e-05 7.3891e-05)
(-4.789e-05 -3.4028e-05 8.2138e-05)
(-4.7881e-05 -1.7331e-05 8.7365e-05)
(-4.7891e-05 -9.6479e-11 8.9194e-05)
(-5.1207e-05 -8.2034e-05 2.3207e-10)
(-5.1215e-05 -8.0352e-05 1.5923e-05)
(-5.1236e-05 -7.5546e-05 3.1287e-05)
(-5.1251e-05 -6.8001e-05 4.55e-05)
(-5.1259e-05 -5.7911e-05 5.7911e-05)
(-5.1252e-05 -4.55e-05 6.8002e-05)
(-5.1236e-05 -3.1287e-05 7.5546e-05)
(-5.1216e-05 -1.5923e-05 8.0353e-05)
(-5.1208e-05 4.0011e-11 8.2035e-05)
(-5.3887e-05 -7.4339e-05 1.2982e-10)
(-5.3918e-05 -7.2797e-05 1.4415e-05)
(-5.3958e-05 -6.8437e-05 2.8345e-05)
(-5.3946e-05 -6.1645e-05 4.1263e-05)
(-5.3926e-05 -5.2536e-05 5.2537e-05)
(-5.3947e-05 -4.1262e-05 6.1645e-05)
(-5.3958e-05 -2.8345e-05 6.8438e-05)
(-5.3919e-05 -1.4415e-05 7.2798e-05)
(-5.3888e-05 1.3177e-10 7.434e-05)
(-5.6011e-05 -6.6283e-05 1.3757e-10)
(-5.6031e-05 -6.494e-05 1.2868e-05)
(-5.606e-05 -6.1096e-05 2.5309e-05)
(-5.6058e-05 -5.5037e-05 3.6836e-05)
(-5.605e-05 -4.6894e-05 4.6894e-05)
(-5.6058e-05 -3.6836e-05 5.5038e-05)
(-5.6061e-05 -2.5309e-05 6.1097e-05)
(-5.6031e-05 -1.2868e-05 6.4941e-05)
(-5.6012e-05 1.9826e-10 6.6284e-05)
(-5.7581e-05 -5.8202e-05 1.268e-10)
(-5.7594e-05 -5.7043e-05 1.1309e-05)
(-5.7612e-05 -5.3695e-05 2.2243e-05)
(-5.762e-05 -4.8389e-05 3.2379e-05)
(-5.7619e-05 -4.1225e-05 4.1225e-05)
(-5.762e-05 -3.2379e-05 4.839e-05)
(-5.7612e-05 -2.2242e-05 5.3696e-05)
(-5.7594e-05 -1.1309e-05 5.7044e-05)
(-5.7581e-05 2.9336e-10 5.8203e-05)
(-5.8578e-05 -5.0373e-05 -8.7416e-10)
(-5.8592e-05 -4.937e-05 9.7803e-06)
(-5.8614e-05 -4.6483e-05 1.9248e-05)
(-5.861e-05 -4.1916e-05 2.8049e-05)
(-5.8603e-05 -3.5727e-05 3.5729e-05)
(-5.861e-05 -2.8048e-05 4.1917e-05)
(-5.8614e-05 -1.9247e-05 4.6484e-05)
(-5.8592e-05 -9.7798e-06 4.9371e-05)
(-5.8578e-05 1.3654e-09 5.0374e-05)
(-5.8984e-05 -4.3027e-05 2.0592e-10)
(-5.9006e-05 -4.2146e-05 8.3297e-06)
(-5.9033e-05 -3.9667e-05 1.6419e-05)
(-5.9013e-05 -3.5808e-05 2.3978e-05)
(-5.8994e-05 -3.0562e-05 3.0563e-05)
(-5.9013e-05 -2.3977e-05 3.5809e-05)
(-5.9033e-05 -1.6418e-05 3.9667e-05)
(-5.9006e-05 -8.3291e-06 4.2147e-05)
(-5.8984e-05 3.4684e-10 4.3028e-05)
(-5.8793e-05 -3.6285e-05 2.9153e-10)
(-5.8802e-05 -3.5565e-05 7.0401e-06)
(-5.8814e-05 -3.3508e-05 1.3877e-05)
(-5.8804e-05 -3.0247e-05 2.025e-05)
(-5.8796e-05 -2.5804e-05 2.5805e-05)
(-5.8804e-05 -2.0249e-05 3.0248e-05)
(-5.8814e-05 -1.3876e-05 3.3508e-05)
(-5.8802e-05 -7.0395e-06 3.5566e-05)
(-5.8792e-05 3.2861e-10 3.6286e-05)
(-5.7996e-05 -3.0228e-05 3.166e-10)
(-5.7998e-05 -2.9649e-05 5.8796e-06)
(-5.8e-05 -2.7954e-05 1.1582e-05)
(-5.7999e-05 -2.5241e-05 1.6893e-05)
(-5.7996e-05 -2.1522e-05 2.1523e-05)
(-5.7999e-05 -1.6892e-05 2.5242e-05)
(-5.8e-05 -1.1581e-05 2.7955e-05)
(-5.7998e-05 -5.879e-06 2.965e-05)
(-5.7996e-05 3.3603e-10 3.0229e-05)
(-5.6614e-05 -2.4842e-05 4.0847e-10)
(-5.6618e-05 -2.4364e-05 4.8277e-06)
(-5.6623e-05 -2.2979e-05 9.5148e-06)
(-5.6617e-05 -2.0761e-05 1.3891e-05)
(-5.6612e-05 -1.771e-05 1.771e-05)
(-5.6617e-05 -1.3891e-05 2.0762e-05)
(-5.6623e-05 -9.5143e-06 2.298e-05)
(-5.6617e-05 -4.8272e-06 2.4366e-05)
(-5.6614e-05 2.1478e-10 2.4844e-05)
(-5.47e-05 -1.9928e-05 3.3786e-10)
(-5.4711e-05 -1.9523e-05 3.8512e-06)
(-5.4726e-05 -1.8403e-05 7.6114e-06)
(-5.4709e-05 -1.6649e-05 1.115e-05)
(-5.4696e-05 -1.4233e-05 1.4234e-05)
(-5.4709e-05 -1.1149e-05 1.6649e-05)
(-5.4725e-05 -7.611e-06 1.8404e-05)
(-5.4711e-05 -3.8508e-06 1.9524e-05)
(-5.4699e-05 1.9883e-10 1.993e-05)
(-5.2324e-05 -1.5384e-05 -1.7101e-11)
(-5.2332e-05 -1.5089e-05 2.9846e-06)
(-5.234e-05 -1.4246e-05 5.8966e-06)
(-5.233e-05 -1.2895e-05 8.6318e-06)
(-5.2321e-05 -1.1016e-05 1.1016e-05)
(-5.2329e-05 -8.6315e-06 1.2896e-05)
(-5.234e-05 -5.8964e-06 1.4247e-05)
(-5.2331e-05 -2.9843e-06 1.509e-05)
(-5.2324e-05 4.1712e-10 1.5385e-05)
(-4.9565e-05 -1.1284e-05 2.2287e-10)
(-4.9574e-05 -1.1084e-05 2.2033e-06)
(-4.9576e-05 -1.0486e-05 4.3502e-06)
(-4.9573e-05 -9.5132e-06 6.3596e-06)
(-4.9562e-05 -8.1166e-06 8.1169e-06)
(-4.9573e-05 -6.3595e-06 9.5138e-06)
(-4.9576e-05 -4.3502e-06 1.0487e-05)
(-4.9573e-05 -2.2031e-06 1.1085e-05)
(-4.9564e-05 1.3301e-11 1.1285e-05)
(-4.645e-05 -7.7263e-06 7.5133e-10)
(-4.6463e-05 -7.588e-06 1.4851e-06)
(-4.6476e-05 -7.1741e-06 2.9687e-06)
(-4.646e-05 -6.5265e-06 4.3876e-06)
(-4.6445e-05 -5.5983e-06 5.5975e-06)
(-4.646e-05 -4.3877e-06 6.5268e-06)
(-4.6476e-05 -2.9688e-06 7.1747e-06)
(-4.6463e-05 -1.4851e-06 7.5887e-06)
(-4.645e-05 -6.8428e-10 7.727e-06)
(-4.3055e-05 -4.7517e-06 3.4015e-11)
(-4.3062e-05 -4.6199e-06 8.5212e-07)
(-4.3063e-05 -4.3073e-06 1.7738e-06)
(-4.3056e-05 -3.9771e-06 2.7254e-06)
(-4.3047e-05 -3.4878e-06 3.4876e-06)
(-4.3056e-05 -2.7257e-06 3.9772e-06)
(-4.3063e-05 -1.7741e-06 4.3076e-06)
(-4.3062e-05 -8.5232e-07 4.6203e-06)
(-4.3055e-05 -1.3479e-10 4.752e-06)
(-3.9416e-05 -2.225e-06 -8.9869e-11)
(-3.9363e-05 -1.9939e-06 2.7075e-07)
(-3.931e-05 -1.7017e-06 7.0032e-07)
(-3.9353e-05 -1.6916e-06 1.2739e-06)
(-3.94e-05 -1.6813e-06 1.681e-06)
(-3.9353e-05 -1.2742e-06 1.6914e-06)
(-3.9309e-05 -7.0072e-07 1.7016e-06)
(-3.9363e-05 -2.7109e-07 1.9939e-06)
(-3.9415e-05 -1.7795e-10 2.2249e-06)
(-3.5383e-05 5.2932e-07 -2.0811e-10)
(-3.5268e-05 8.3285e-07 -2.934e-07)
(-3.5172e-05 1.0227e-06 -4.219e-07)
(-3.5255e-05 7.288e-07 -3.3278e-07)
(-3.5364e-05 2.8936e-07 -2.898e-07)
(-3.5255e-05 3.3228e-07 -7.2914e-07)
(-3.5172e-05 4.214e-07 -1.023e-06)
(-3.5268e-05 2.9294e-07 -8.3307e-07)
(-3.5383e-05 -1.9712e-10 -5.2959e-07)
(-3.1122e-05 3.267e-06 -3.0029e-10)
(-3.1102e-05 3.207e-06 -6.7768e-07)
(-3.1068e-05 3.045e-06 -1.2583e-06)
(-3.1091e-05 2.6991e-06 -1.7542e-06)
(-3.1105e-05 2.2505e-06 -2.251e-06)
(-3.109e-05 1.7536e-06 -2.6996e-06)
(-3.1067e-05 1.2578e-06 -3.0454e-06)
(-3.1102e-05 6.7714e-07 -3.2073e-06)
(-3.1121e-05 -1.9824e-10 -3.2673e-06)
(-2.7759e-05 2.498e-06 -3.6393e-10)
(-2.7815e-05 2.1968e-06 -4.4532e-07)
(-2.7788e-05 2.0112e-06 -8.3565e-07)
(-2.7806e-05 1.8359e-06 -1.2202e-06)
(-2.7747e-05 1.7286e-06 -1.7291e-06)
(-2.7806e-05 1.2196e-06 -1.8364e-06)
(-2.7788e-05 8.3506e-07 -2.0116e-06)
(-2.7815e-05 4.4474e-07 -2.1972e-06)
(-2.7759e-05 -1.702e-10 -2.4983e-06)
(-2.5385e-05 -3.4326e-06 -3.7855e-10)
(-2.5212e-05 -3.0836e-06 4.2436e-07)
(-2.5047e-05 -2.5797e-06 1.0653e-06)
(-2.5205e-05 -2.5009e-06 1.8892e-06)
(-2.5375e-05 -2.4495e-06 2.449e-06)
(-2.5205e-05 -1.8897e-06 2.5005e-06)
(-2.5047e-05 -1.0659e-06 2.5793e-06)
(-2.5212e-05 -4.249e-07 3.0833e-06)
(-2.5385e-05 -1.2236e-10 3.4324e-06)
(-2.0979e-05 -8.4456e-06 -3.2661e-10)
(-2.0583e-05 -7.4522e-06 1.1347e-06)
(-2.0276e-05 -6.31e-06 2.6117e-06)
(-2.0577e-05 -6.0833e-06 4.4717e-06)
(-2.0971e-05 -5.9843e-06 5.9839e-06)
(-2.0577e-05 -4.4721e-06 6.0829e-06)
(-2.0276e-05 -2.6122e-06 6.3097e-06)
(-2.0583e-05 -1.1351e-06 7.4521e-06)
(-2.0979e-05 -6.6555e-11 8.4455e-06)
(-1.1966e-05 -6.4582e-06 -1.9427e-10)
(-1.1791e-05 -5.9432e-06 9.5067e-07)
(-1.1618e-05 -5.1743e-06 2.1425e-06)
(-1.1788e-05 -4.8793e-06 3.532e-06)
(-1.1962e-05 -4.5715e-06 4.5713e-06)
(-1.1788e-05 -3.5322e-06 4.8791e-06)
(-1.1618e-05 -2.1428e-06 5.1741e-06)
(-1.1791e-05 -9.5089e-07 5.9431e-06)
(-1.1966e-05 -1.5478e-11 6.4581e-06)
(-4.7815e-12 -2.6164e-12 -8.1335e-17)
(-1.9535e-08 -4.9457e-08 -3.9235e-08)
(-5.6675e-12 -5.1537e-12 1.9615e-12)
(-1.9403e-08 -7.557e-09 6.2699e-08)
(-3.4306e-12 1.2643e-12 -1.2644e-12)
(-1.9403e-08 -6.2699e-08 7.5552e-09)
(-5.6675e-12 -1.9615e-12 5.1537e-12)
(-1.9534e-08 3.9234e-08 4.9458e-08)
(-4.7815e-12 2.7109e-18 2.6164e-12)
(9.5157e-07 1.3406e-07 8.1941e-07)
(-1.423e-10 -2.5789e-09 8.9606e-09)
(9.5363e-07 2.8542e-07 7.1245e-07)
(2.6124e-13 7.2893e-13 1.8297e-12)
(9.5892e-07 4.5103e-07 6.4649e-07)
(3.1326e-10 7.7782e-09 2.8194e-09)
(9.6152e-07 5.8346e-07 5.8337e-07)
(4.8972e-13 -1.5848e-12 -1.5849e-12)
(9.5888e-07 6.4675e-07 4.5106e-07)
(3.1418e-10 2.8177e-09 7.7812e-09)
(9.5356e-07 7.1288e-07 2.8549e-07)
(2.6123e-13 1.8297e-12 7.2886e-13)
(9.5148e-07 8.1999e-07 1.3413e-07)
(-1.4464e-10 8.9659e-09 -2.5768e-09)
(9.5059e-07 8.8417e-07 9.7972e-11)
(3.4942e-13 3.5227e-13 4.7662e-17)
(1.9817e-06 8.079e-08 6.193e-07)
(1.9799e-06 1.8268e-07 4.7516e-07)
(1.987e-06 3.1628e-07 4.332e-07)
(1.9935e-06 4.3127e-07 4.3114e-07)
(1.987e-06 4.3368e-07 3.164e-07)
(1.9798e-06 4.76e-07 1.8291e-07)
(1.9815e-06 6.2042e-07 8.0979e-08)
(1.9838e-06 7.3623e-07 1.4978e-10)
(3.041e-06 -2.7241e-07 -1.3013e-06)
(3.0222e-06 -5.3839e-07 -1.289e-06)
(3.0237e-06 -7.954e-07 -1.1977e-06)
(3.0308e-06 -1.0209e-06 -1.0211e-06)
(3.0236e-06 -1.1971e-06 -7.9518e-07)
(3.0221e-06 -1.2879e-06 -5.3799e-07)
(3.0409e-06 -1.2998e-06 -2.7207e-07)
(3.0545e-06 -1.2828e-06 1.7454e-10)
(4.0551e-06 -9.3744e-07 -4.8454e-06)
(4.012e-06 -1.8635e-06 -4.5369e-06)
(4.0005e-06 -2.7845e-06 -4.1439e-06)
(4.0043e-06 -3.5811e-06 -3.5812e-06)
(4.0005e-06 -4.1432e-06 -2.7842e-06)
(4.012e-06 -4.5357e-06 -1.863e-06)
(4.0552e-06 -4.8438e-06 -9.3699e-07)
(4.0818e-06 -4.9662e-06 1.7144e-10)
(4.937e-06 -1.8231e-06 -9.3194e-06)
(4.8822e-06 -3.5755e-06 -8.6944e-06)
(4.8441e-06 -5.2217e-06 -7.807e-06)
(4.8325e-06 -6.6563e-06 -6.6565e-06)
(4.8442e-06 -7.8063e-06 -5.2215e-06)
(4.8823e-06 -8.6931e-06 -3.575e-06)
(4.9372e-06 -9.3178e-06 -1.8227e-06)
(4.966e-06 -9.5551e-06 1.4347e-10)
(5.5764e-06 -2.7072e-06 -1.3633e-05)
(5.5203e-06 -5.2536e-06 -1.2703e-05)
(5.4676e-06 -7.536e-06 -1.1294e-05)
(5.446e-06 -9.5567e-06 -9.5569e-06)
(5.4678e-06 -1.1294e-05 -7.5359e-06)
(5.5206e-06 -1.2702e-05 -5.2532e-06)
(5.5767e-06 -1.3632e-05 -2.7068e-06)
(5.6054e-06 -1.3977e-05 8.646e-11)
(5.86e-06 -3.3504e-06 -1.6582e-05)
(5.8215e-06 -6.4294e-06 -1.5443e-05)
(5.7777e-06 -9.0888e-06 -1.364e-05)
(5.7568e-06 -1.1453e-05 -1.1454e-05)
(5.7779e-06 -1.3639e-05 -9.0887e-06)
(5.8219e-06 -1.5443e-05 -6.4291e-06)
(5.8605e-06 -1.6581e-05 -3.3501e-06)
(5.8755e-06 -1.696e-05 -2.4763e-11)
(5.7218e-06 -3.4791e-06 -1.7081e-05)
(5.7101e-06 -6.6506e-06 -1.5899e-05)
(5.6886e-06 -9.299e-06 -1.3959e-05)
(5.6782e-06 -1.1662e-05 -1.1662e-05)
(5.6889e-06 -1.3959e-05 -9.299e-06)
(5.7106e-06 -1.5898e-05 -6.6505e-06)
(5.7225e-06 -1.7081e-05 -3.4788e-06)
(5.7258e-06 -1.7466e-05 -1.4082e-10)
(5.1711e-06 -2.8606e-06 -1.4278e-05)
(5.187e-06 -5.4764e-06 -1.3178e-05)
(5.1858e-06 -7.7164e-06 -1.1566e-05)
(5.1795e-06 -9.71e-06 -9.71e-06)
(5.1862e-06 -1.1566e-05 -7.7164e-06)
(5.1876e-06 -1.3178e-05 -5.4762e-06)
(5.1719e-06 -1.4278e-05 -2.8603e-06)
(5.1583e-06 -1.4683e-05 -2.6034e-10)
(4.3105e-06 -1.5363e-06 -7.8578e-06)
(4.356e-06 -2.9184e-06 -7.1053e-06)
(4.3558e-06 -4.1239e-06 -6.1734e-06)
(4.3513e-06 -5.2105e-06 -5.2104e-06)
(4.3562e-06 -6.1736e-06 -4.1239e-06)
(4.3566e-06 -7.1058e-06 -2.9182e-06)
(4.3113e-06 -7.8583e-06 -1.536e-06)
(4.2826e-06 -8.1982e-06 -2.8919e-10)
(3.2755e-06 3.7672e-07 1.9061e-06)
(3.3428e-06 8.291e-07 1.9981e-06)
(3.3328e-06 1.341e-06 1.9884e-06)
(3.3037e-06 1.7688e-06 1.7684e-06)
(3.3331e-06 1.9879e-06 1.3411e-06)
(3.3434e-06 1.9974e-06 8.2929e-07)
(3.2763e-06 1.9053e-06 3.7711e-07)
(3.2225e-06 1.847e-06 1.4553e-10)
(2.1346e-06 2.6833e-06 1.3802e-05)
(2.22e-06 5.3796e-06 1.3073e-05)
(2.1953e-06 8.0127e-06 1.1945e-05)
(2.147e-06 1.0293e-05 1.0293e-05)
(2.1957e-06 1.1945e-05 8.0129e-06)
(2.2207e-06 1.3072e-05 5.3798e-06)
(2.1354e-06 1.3801e-05 2.6837e-06)
(2.0623e-06 1.4084e-05 -3.3446e-10)
(8.3919e-07 5.2e-06 2.6468e-05)
(9.082e-07 1.0298e-05 2.4936e-05)
(9.0834e-07 1.5114e-05 2.257e-05)
(8.8581e-07 1.9302e-05 1.9302e-05)
(9.087e-07 2.257e-05 1.5114e-05)
(9.0886e-07 2.4935e-05 1.0298e-05)
(8.4005e-07 2.6467e-05 5.2004e-06)
(7.883e-07 2.7023e-05 -2.3954e-10)
(-8.4078e-07 7.6966e-06 3.8966e-05)
(-7.8589e-07 1.5168e-05 3.6638e-05)
(-7.688e-07 2.2138e-05 3.3057e-05)
(-7.6705e-07 2.8214e-05 2.8215e-05)
(-7.6848e-07 3.3056e-05 2.2138e-05)
(-7.8528e-07 3.6637e-05 1.5169e-05)
(-8.3993e-07 3.8965e-05 7.6971e-06)
(-8.7165e-07 3.9807e-05 -3.988e-10)
(-3.1604e-06 1.0098e-05 5.0931e-05)
(-3.0969e-06 1.9843e-05 4.7878e-05)
(-3.0991e-06 2.8855e-05 4.3104e-05)
(-3.1189e-06 3.672e-05 3.6721e-05)
(-3.0989e-06 4.3103e-05 2.8856e-05)
(-3.0964e-06 4.7876e-05 1.9844e-05)
(-3.1598e-06 5.093e-05 1.0098e-05)
(-3.2051e-06 5.2006e-05 -4.7127e-10)
(-6.2365e-06 1.2402e-05 6.2463e-05)
(-6.1578e-06 2.4331e-05 5.8699e-05)
(-6.1839e-06 3.5318e-05 5.2789e-05)
(-6.2251e-06 4.4917e-05 4.4918e-05)
(-6.1838e-06 5.2788e-05 3.5319e-05)
(-6.1575e-06 5.8697e-05 2.4331e-05)
(-6.2361e-06 6.2462e-05 1.2402e-05)
(-6.2971e-06 6.3767e-05 -3.6506e-10)
(-1.0014e-05 1.4629e-05 7.3671e-05)
(-9.9461e-06 2.8672e-05 6.9223e-05)
(-9.9533e-06 4.1587e-05 6.2204e-05)
(-9.9803e-06 5.2892e-05 5.2893e-05)
(-9.9532e-06 6.2203e-05 4.1587e-05)
(-9.9458e-06 6.9222e-05 2.8673e-05)
(-1.0014e-05 7.367e-05 1.463e-05)
(-1.0067e-05 7.5208e-05 9.4698e-11)
(-1.4254e-05 1.6717e-05 8.4174e-05)
(-1.419e-05 3.2742e-05 7.9065e-05)
(-1.4188e-05 4.7469e-05 7.1014e-05)
(-1.4198e-05 6.0367e-05 6.0368e-05)
(-1.4188e-05 7.1014e-05 4.7469e-05)
(-1.419e-05 7.9065e-05 3.2743e-05)
(-1.4254e-05 8.4175e-05 1.6718e-05)
(-1.4297e-05 8.5949e-05 -1.2189e-10)
(-1.8646e-05 1.8556e-05 9.3348e-05)
(-1.8589e-05 3.6334e-05 8.7663e-05)
(-1.8594e-05 5.2621e-05 7.8695e-05)
(-1.8617e-05 6.6883e-05 6.6883e-05)
(-1.8594e-05 7.8695e-05 5.2622e-05)
(-1.8589e-05 8.7663e-05 3.6335e-05)
(-1.8646e-05 9.3349e-05 1.8557e-05)
(-1.8692e-05 9.532e-05 4.112e-10)
(-2.2962e-05 1.9985e-05 0.00010052)
(-2.2919e-05 3.9137e-05 9.4364e-05)
(-2.2942e-05 5.6658e-05 8.4703e-05)
(-2.2978e-05 7.199e-05 7.1991e-05)
(-2.2942e-05 8.4703e-05 5.6659e-05)
(-2.2919e-05 9.4365e-05 3.9138e-05)
(-2.2962e-05 0.00010052 1.9986e-05)
(-2.3006e-05 0.00010266 1.88e-11)
(-2.7102e-05 2.082e-05 0.00010496)
(-2.7095e-05 4.0812e-05 9.8502e-05)
(-2.712e-05 5.9185e-05 8.8467e-05)
(-2.7144e-05 7.5252e-05 7.5252e-05)
(-2.712e-05 8.8467e-05 5.9186e-05)
(-2.7095e-05 9.8503e-05 4.0813e-05)
(-2.7102e-05 0.00010497 2.0821e-05)
(-2.7119e-05 0.00010725 2.3644e-11)
(-3.1196e-05 2.1003e-05 0.00010609)
(-3.1215e-05 4.1217e-05 9.9545e-05)
(-3.1242e-05 5.9859e-05 8.9462e-05)
(-3.1244e-05 7.6172e-05 7.6173e-05)
(-3.1242e-05 8.9463e-05 5.986e-05)
(-3.1215e-05 9.9546e-05 4.1218e-05)
(-3.1196e-05 0.00010609 2.1004e-05)
(-3.118e-05 0.00010846 1.0766e-10)
(-3.5389e-05 2.0587e-05 0.00010385)
(-3.5424e-05 4.0391e-05 9.7516e-05)
(-3.5439e-05 5.8635e-05 8.7646e-05)
(-3.5439e-05 7.4583e-05 7.4583e-05)
(-3.5439e-05 8.7646e-05 5.8636e-05)
(-3.5424e-05 9.7517e-05 4.0392e-05)
(-3.5389e-05 0.00010385 2.0588e-05)
(-3.5367e-05 0.00010608 2.2014e-10)
(-3.9695e-05 1.9731e-05 9.9323e-05)
(-3.9735e-05 3.8691e-05 9.3336e-05)
(-3.9743e-05 5.6124e-05 8.3899e-05)
(-3.9735e-05 7.1355e-05 7.1355e-05)
(-3.9743e-05 8.3899e-05 5.6124e-05)
(-3.9735e-05 9.3336e-05 3.8692e-05)
(-3.9695e-05 9.9324e-05 1.9731e-05)
(-3.9667e-05 0.00010138 2.1885e-10)
(-4.3956e-05 1.8612e-05 9.3692e-05)
(-4.3978e-05 3.6507e-05 8.8083e-05)
(-4.4003e-05 5.2978e-05 7.9199e-05)
(-4.4017e-05 6.7378e-05 6.7377e-05)
(-4.4002e-05 7.9199e-05 5.2978e-05)
(-4.3978e-05 8.8083e-05 3.6508e-05)
(-4.3955e-05 9.3692e-05 1.8612e-05)
(-4.3949e-05 9.563e-05 2.8056e-10)
(-4.7881e-05 1.7331e-05 8.7364e-05)
(-4.789e-05 3.4028e-05 8.2138e-05)
(-4.7925e-05 4.9431e-05 7.3891e-05)
(-4.7955e-05 6.2901e-05 6.2901e-05)
(-4.7925e-05 7.389e-05 4.9431e-05)
(-4.789e-05 8.2137e-05 3.4028e-05)
(-4.7881e-05 8.7364e-05 1.7331e-05)
(-4.789e-05 8.9193e-05 2.0778e-10)
(-5.1216e-05 1.5923e-05 8.0352e-05)
(-5.1236e-05 3.1287e-05 7.5546e-05)
(-5.1252e-05 4.5499e-05 6.8001e-05)
(-5.1259e-05 5.791e-05 5.791e-05)
(-5.1252e-05 6.8e-05 4.5499e-05)
(-5.1236e-05 7.5545e-05 3.1286e-05)
(-5.1215e-05 8.0352e-05 1.5923e-05)
(-5.1208e-05 8.2034e-05 1.4498e-10)
(-5.3919e-05 1.4415e-05 7.2797e-05)
(-5.3958e-05 2.8345e-05 6.8437e-05)
(-5.3947e-05 4.1262e-05 6.1644e-05)
(-5.3927e-05 5.2535e-05 5.2535e-05)
(-5.3947e-05 6.1644e-05 4.1262e-05)
(-5.3958e-05 6.8437e-05 2.8344e-05)
(-5.3919e-05 7.2797e-05 1.4415e-05)
(-5.3887e-05 7.434e-05 1.4206e-10)
(-5.6031e-05 1.2869e-05 6.494e-05)
(-5.6061e-05 2.5309e-05 6.1096e-05)
(-5.6058e-05 3.6835e-05 5.5036e-05)
(-5.605e-05 4.6893e-05 4.6893e-05)
(-5.6058e-05 5.5036e-05 3.6835e-05)
(-5.6061e-05 6.1096e-05 2.5308e-05)
(-5.6031e-05 6.494e-05 1.2868e-05)
(-5.6011e-05 6.6284e-05 1.0761e-10)
(-5.7594e-05 1.131e-05 5.7044e-05)
(-5.7612e-05 2.2242e-05 5.3695e-05)
(-5.762e-05 3.2379e-05 4.8389e-05)
(-5.7619e-05 4.1224e-05 4.1224e-05)
(-5.762e-05 4.8389e-05 3.2379e-05)
(-5.7612e-05 5.3695e-05 2.2242e-05)
(-5.7594e-05 5.7044e-05 1.1309e-05)
(-5.758e-05 5.8203e-05 1.464e-10)
(-5.8592e-05 9.7804e-06 4.937e-05)
(-5.8614e-05 1.9248e-05 4.6483e-05)
(-5.861e-05 2.8048e-05 4.1916e-05)
(-5.8603e-05 3.5728e-05 3.5727e-05)
(-5.861e-05 4.1916e-05 2.8048e-05)
(-5.8614e-05 4.6483e-05 1.9248e-05)
(-5.8592e-05 4.9371e-05 9.7803e-06)
(-5.8577e-05 5.0375e-05 1.2137e-09)
(-5.9006e-05 8.3297e-06 4.2147e-05)
(-5.9033e-05 1.6419e-05 3.9667e-05)
(-5.9013e-05 2.3977e-05 3.5808e-05)
(-5.8994e-05 3.0563e-05 3.0563e-05)
(-5.9013e-05 3.5808e-05 2.3977e-05)
(-5.9032e-05 3.9667e-05 1.6419e-05)
(-5.9006e-05 4.2147e-05 8.3298e-06)
(-5.8984e-05 4.3028e-05 2.2798e-10)
(-5.8802e-05 7.0402e-06 3.5566e-05)
(-5.8814e-05 1.3876e-05 3.3508e-05)
(-5.8804e-05 2.025e-05 3.0247e-05)
(-5.8796e-05 2.5804e-05 2.5804e-05)
(-5.8804e-05 3.0247e-05 2.025e-05)
(-5.8814e-05 3.3509e-05 1.3877e-05)
(-5.8802e-05 3.5567e-05 7.0403e-06)
(-5.8792e-05 3.6287e-05 3.0638e-10)
(-5.7998e-05 5.8796e-06 2.965e-05)
(-5.8e-05 1.1582e-05 2.7955e-05)
(-5.7999e-05 1.6893e-05 2.5242e-05)
(-5.7996e-05 2.1523e-05 2.1523e-05)
(-5.7999e-05 2.5242e-05 1.6893e-05)
(-5.8e-05 2.7955e-05 1.1582e-05)
(-5.7998e-05 2.9651e-05 5.8798e-06)
(-5.7996e-05 3.023e-05 3.2671e-10)
(-5.6617e-05 4.8278e-06 2.4366e-05)
(-5.6623e-05 9.5148e-06 2.298e-05)
(-5.6616e-05 1.3891e-05 2.0762e-05)
(-5.6612e-05 1.7711e-05 1.771e-05)
(-5.6616e-05 2.0762e-05 1.3892e-05)
(-5.6623e-05 2.298e-05 9.5151e-06)
(-5.6617e-05 2.4366e-05 4.828e-06)
(-5.6614e-05 2.4845e-05 2.7571e-10)
(-5.4711e-05 3.8512e-06 1.9524e-05)
(-5.4725e-05 7.6114e-06 1.8404e-05)
(-5.4709e-05 1.115e-05 1.665e-05)
(-5.4696e-05 1.4234e-05 1.4234e-05)
(-5.4709e-05 1.665e-05 1.115e-05)
(-5.4725e-05 1.8404e-05 7.6117e-06)
(-5.4711e-05 1.9524e-05 3.8515e-06)
(-5.4699e-05 1.993e-05 3.2281e-10)
(-5.2331e-05 2.9845e-06 1.509e-05)
(-5.234e-05 5.8966e-06 1.4247e-05)
(-5.2329e-05 8.6318e-06 1.2896e-05)
(-5.2321e-05 1.1017e-05 1.1017e-05)
(-5.2329e-05 1.2896e-05 8.6321e-06)
(-5.234e-05 1.4247e-05 5.8969e-06)
(-5.2331e-05 1.509e-05 2.9848e-06)
(-5.2324e-05 1.5386e-05 5.8448e-10)
(-4.9573e-05 2.2031e-06 1.1085e-05)
(-4.9576e-05 4.3502e-06 1.0487e-05)
(-4.9573e-05 6.3595e-06 9.5137e-06)
(-4.9562e-05 8.1169e-06 8.117e-06)
(-4.9573e-05 9.5137e-06 6.3598e-06)
(-4.9576e-05 1.0487e-05 4.3505e-06)
(-4.9574e-05 1.1086e-05 2.2034e-06)
(-4.9565e-05 1.1285e-05 1.9436e-10)
(-4.6463e-05 1.485e-06 7.5886e-06)
(-4.6476e-05 2.9686e-06 7.1746e-06)
(-4.6459e-05 4.3875e-06 6.5267e-06)
(-4.6445e-05 5.5982e-06 5.5975e-06)
(-4.646e-05 6.5267e-06 4.3878e-06)
(-4.6476e-05 7.1747e-06 2.9689e-06)
(-4.6463e-05 7.5889e-06 1.4852e-06)
(-4.645e-05 7.7275e-06 7.0695e-10)
(-4.3062e-05 8.5202e-07 4.6202e-06)
(-4.3063e-05 1.7738e-06 4.3075e-06)
(-4.3056e-05 2.7253e-06 3.9771e-06)
(-4.3047e-05 3.4875e-06 3.4877e-06)
(-4.3056e-05 3.9772e-06 2.7256e-06)
(-4.3063e-05 4.3078e-06 1.774e-06)
(-4.3062e-05 4.6206e-06 8.5224e-07)
(-4.3055e-05 4.7526e-06 -2.5035e-11)
(-3.9363e-05 2.7071e-07 1.9938e-06)
(-3.931e-05 7.0032e-07 1.7015e-06)
(-3.9353e-05 1.2739e-06 1.6914e-06)
(-3.9401e-05 1.681e-06 1.681e-06)
(-3.9353e-05 1.6916e-06 1.274e-06)
(-3.931e-05 1.7019e-06 7.005e-07)
(-3.9363e-05 1.9944e-06 2.7085e-07)
(-3.9416e-05 2.2256e-06 -1.4909e-10)
(-3.5268e-05 -2.9335e-07 -8.3307e-07)
(-3.5172e-05 -4.2181e-07 -1.023e-06)
(-3.5255e-05 -3.3264e-07 -7.2909e-07)
(-3.5364e-05 -2.896e-07 -2.8968e-07)
(-3.5255e-05 -7.2884e-07 -3.326e-07)
(-3.5173e-05 -1.0226e-06 -4.2172e-07)
(-3.5268e-05 -8.3247e-07 -2.933e-07)
(-3.5383e-05 -5.288e-07 -2.5968e-10)
(-3.1102e-05 -6.7753e-07 -3.2073e-06)
(-3.1067e-05 -1.2581e-06 -3.0452e-06)
(-3.1091e-05 -1.7539e-06 -2.6994e-06)
(-3.1105e-05 -2.2506e-06 -2.2508e-06)
(-3.1091e-05 -2.6991e-06 -1.7539e-06)
(-3.1068e-05 -3.0447e-06 -1.2581e-06)
(-3.1102e-05 -3.2066e-06 -6.7755e-07)
(-3.1122e-05 -3.2664e-06 -3.3911e-10)
(-2.7815e-05 -4.4506e-07 -2.1971e-06)
(-2.7788e-05 -8.3531e-07 -2.0113e-06)
(-2.7806e-05 -1.2197e-06 -1.836e-06)