/*--------------------------------*- C++ -*----------------------------------*\
| =========                 |                                                 |
| \\      /  F ield         | OpenFOAM: The Open Source CFD Toolbox           |
|  \\    /   O peration     | Version:  4.1                                   |
|   \\  /    A nd           | Web:      www.OpenFOAM.org                      |
|    \\/     M anipulation  |                                                 |
\*---------------------------------------------------------------------------*/
FoamFile
{
    version     2.0;
    format      ascii;
    class       volVectorField;
    location    "0.0060";
    object      U;
}
// * * * * * * * * * * * * * * * * * * * * * * * * * * * * * * * * * * * * * //

dimensions      [0 1 -1 0 0 0 0];

internalField   nonuniform List<vector> 
6144
(
(0.025158 1.9535e-05 -3.7318e-08)
(0.025137 1.334e-06 -2.0558e-08)
(0.025243 -0.00028084 -2.3436e-07)
(0.025677 -0.00089247 -4.973e-07)
(0.02655 -0.0017189 -8.6126e-07)
(0.028018 -0.0025765 -7.1409e-07)
(0.030104 -0.0034091 -7.5627e-07)
(0.032809 -0.0042364 -8.407e-07)
(0.036172 -0.0051433 -1.0669e-06)
(0.040283 -0.0062065 -1.0722e-06)
(0.045294 -0.0074771 -9.357e-07)
(0.051381 -0.0089658 -8.8314e-07)
(0.058704 -0.010633 -6.8391e-07)
(0.067375 -0.012402 -6.0184e-07)
(0.077441 -0.014169 -2.7172e-07)
(0.088876 -0.015818 6.4109e-08)
(0.10157 -0.017214 3.9264e-07)
(0.11531 -0.018206 7.6264e-07)
(0.12978 -0.018649 1.1281e-06)
(0.14453 -0.018441 1.401e-06)
(0.15909 -0.017543 1.488e-06)
(0.17295 -0.015938 1.4091e-06)
(0.18559 -0.013553 1.2925e-06)
(0.19636 -0.010199 9.5141e-07)
(0.20447 -0.0057012 3.1684e-07)
(0.20942 -0.00038432 5.733e-07)
(0.211 0.0047504 4.7715e-07)
(0.20815 0.010636 5.9121e-07)
(0.20021 0.016819 4.7895e-07)
(0.18772 0.022045 -1.6841e-08)
(0.17149 0.025967 1.5186e-07)
(0.15245 0.02864 -5.252e-08)
(0.1314 0.03034 -4.74e-07)
(0.10892 0.031232 -9.404e-07)
(0.085556 0.031193 -1.4176e-06)
(0.062054 0.02986 -1.6266e-06)
(0.039491 0.026847 -1.6106e-06)
(0.019259 0.021953 -2.0026e-06)
(0.0026847 0.01521 -2.1928e-06)
(-0.0088063 0.0075685 -2.075e-06)
(-0.015517 0.0016046 -1.6333e-06)
(-0.018818 -0.0022782 -9.7908e-07)
(-0.018327 -0.0041393 -1.0032e-06)
(-0.014922 -0.0052931 -4.0579e-07)
(-0.010689 -0.0055566 -7.9263e-07)
(-0.0065184 -0.005186 -3.1514e-07)
(-0.0028442 -0.0054989 1.832e-08)
(0.0026086 -0.0041113 -3.8981e-08)
(0.025177 -1.8551e-05 3.6868e-06)
(0.025183 -7.1417e-05 9.7771e-06)
(0.025321 -0.00029448 2.3127e-05)
(0.025782 -0.0006586 0.00012112)
(0.02669 -0.00117 0.00024749)
(0.028181 -0.001742 0.00037468)
(0.030283 -0.002336 0.00049063)
(0.033008 -0.0029546 0.00058714)
(0.0364 -0.0036358 0.00066441)
(0.040549 -0.0044271 0.00074377)
(0.045603 -0.0053619 0.00083599)
(0.051728 -0.0064467 0.00094706)
(0.059074 -0.0076565 0.0010753)
(0.067749 -0.0089403 0.0012094)
(0.077795 -0.010229 0.0013312)
(0.089183 -0.011445 0.0014187)
(0.1018 -0.012493 0.0014517)
(0.11542 -0.013272 0.0014122)
(0.12974 -0.01368 0.001288)
(0.14431 -0.013643 0.0010754)
(0.15868 -0.013125 0.00077655)
(0.17235 -0.012103 0.0003916)
(0.18478 -0.010526 -8.7971e-05)
(0.19533 -0.0083093 -0.00067994)
(0.20329 -0.0054305 -0.0013773)
(0.2081 -0.0021957 -0.0020181)
(0.20942 0.0011269 -0.0020942)
(0.20638 0.005444 -0.0023148)
(0.19851 0.0097761 -0.0027727)
(0.18624 0.01356 -0.00307)
(0.17029 0.016506 -0.0031477)
(0.15154 0.018623 -0.0030602)
(0.13076 0.020058 -0.0028688)
(0.10853 0.020904 -0.0025964)
(0.085449 0.021081 -0.0022141)
(0.062278 0.020365 -0.0016558)
(0.040083 0.01851 -0.00086154)
(0.020194 0.015415 0.00015738)
(0.0038198 0.011323 0.001306)
(-0.0077851 0.0067721 0.0024735)
(-0.014598 0.003641 0.0030114)
(-0.017858 0.0010728 0.0025301)
(-0.017654 -0.0011574 0.0014257)
(-0.014679 -0.002385 0.0011438)
(-0.010831 -0.0028081 0.00092817)
(-0.0069626 -0.0027313 0.00078985)
(-0.0034266 -0.0032214 0.00068143)
(0.0023899 -0.0029131 0.00043558)
(0.025174 -1.3466e-05 1.1854e-05)
(0.025211 -5.5833e-05 3.5547e-05)
(0.025385 -0.00023604 9.0442e-05)
(0.025872 -0.00054263 0.00021695)
(0.026795 -0.00096486 0.00038926)
(0.028286 -0.0014272 0.00058233)
(0.03039 -0.0018997 0.0007816)
(0.033129 -0.0023903 0.00097639)
(0.036543 -0.0029342 0.0011723)
(0.040719 -0.0035707 0.0013929)
(0.0458 -0.0043228 0.0016524)
(0.051947 -0.0051939 0.0019551)
(0.059307 -0.0061631 0.0022941)
(0.067982 -0.0071895 0.0026525)
(0.078012 -0.008219 0.0030058)
(0.089366 -0.0091884 0.0033254)
(0.10192 -0.010024 0.0035799)
(0.11547 -0.010645 0.0037368)
(0.12968 -0.01097 0.0037667)
(0.14414 -0.010943 0.0036505)
(0.15838 -0.010529 0.0033808)
(0.1719 -0.0097042 0.0029543)
(0.18416 -0.0084248 0.0023586)
(0.19455 -0.006621 0.0015707)
(0.20233 -0.0042786 0.00061404)
(0.20693 -0.0015991 -0.00033329)
(0.20806 0.0013646 -0.001025)
(0.20505 0.0049111 -0.0020566)
(0.19735 0.0084326 -0.0033015)
(0.18524 0.011488 -0.0043234)
(0.16949 0.013864 -0.0050464)
(0.15094 0.015591 -0.0054903)
(0.13033 0.016778 -0.0057168)
(0.10827 0.017482 -0.0057629)
(0.085385 0.017635 -0.0055982)
(0.062441 0.017062 -0.0051423)
(0.040505 0.015568 -0.0043187)
(0.020872 0.01308 -0.0031298)
(0.0047125 0.0097913 -0.0017031)
(-0.0068737 0.0059977 -0.00020113)
(-0.013698 0.0031574 0.00070482)
(-0.01684 0.00076395 0.00091998)
(-0.01693 -0.0012753 0.00066619)
(-0.014511 -0.0023894 0.00082047)
(-0.010975 -0.0026864 0.00087168)
(-0.0073188 -0.0027176 0.00085888)
(-0.0039854 -0.003008 0.00098195)
(0.0019425 -0.0024028 0.00087008)
(0.025181 -1.5048e-05 9.1045e-06)
(0.025226 -5.4862e-05 3.5036e-05)
(0.025412 -0.00018613 0.00013063)
(0.02591 -0.00042418 0.00031384)
(0.026843 -0.00074893 0.00056196)
(0.028339 -0.0011088 0.00083402)
(0.030447 -0.0014786 0.0011085)
(0.033193 -0.0018582 0.0013852)
(0.036618 -0.0022716 0.00168)
(0.040807 -0.0027522 0.0020188)
(0.045901 -0.0033191 0.0024184)
(0.05206 -0.0039757 0.0028826)
(0.059426 -0.0047066 0.0034004)
(0.068101 -0.0054802 0.0039484)
(0.078125 -0.006254 0.0044936)
(0.089461 -0.0069783 0.0049978)
(0.10199 -0.007596 0.0054176)
(0.1155 -0.0080442 0.0057063)
(0.12966 -0.0082627 0.0058203)
(0.14405 -0.0082074 0.0057285)
(0.15823 -0.0078532 0.0054149)
(0.17168 -0.0071814 0.0048677)
(0.18387 -0.0061588 0.0040638)
(0.19417 -0.0047337 0.0029655)
(0.20187 -0.0029086 0.0015861)
(0.2064 -0.00087185 0.00010072)
(0.20748 0.0012236 -0.0013233)
(0.20446 0.0037561 -0.003152)
(0.19678 0.0063762 -0.0050355)
(0.18475 0.0086398 -0.0066325)
(0.16908 0.010382 -0.0078202)
(0.15062 0.01162 -0.0086124)
(0.1301 0.012437 -0.0090844)
(0.10814 0.012875 -0.0092923)
(0.085349 0.012887 -0.0091938)
(0.062521 0.012334 -0.0086812)
(0.040712 0.011071 -0.0076426)
(0.021198 0.0090514 -0.0060505)
(0.0051319 0.0064454 -0.0040475)
(-0.0064486 0.0034614 -0.0017898)
(-0.013306 0.0013536 -0.00029877)
(-0.016497 -0.00017883 0.00060841)
(-0.016736 -0.0011551 0.0010829)
(-0.01448 -0.0018547 0.0015578)
(-0.011046 -0.0019956 0.0016143)
(-0.0074611 -0.0020131 0.0015878)
(-0.0041899 -0.0022496 0.0016786)
(0.0017652 -0.0019174 0.0013132)
(0.025181 -9.325e-06 1.4836e-05)
(0.025226 -3.5623e-05 5.4285e-05)
(0.025412 -0.00013154 0.00018518)
(0.025911 -0.00031499 0.00042312)
(0.026844 -0.00056332 0.00074761)
(0.028339 -0.00083584 0.001107)
(0.030448 -0.0011109 0.0014763)
(0.033193 -0.0013878 0.0018558)
(0.036618 -0.0016832 0.0022685)
(0.040807 -0.0020226 0.0027485)
(0.045902 -0.0024225 0.003315)
(0.05206 -0.0028868 0.0039714)
(0.059426 -0.0034046 0.0047023)
(0.068101 -0.0039521 0.0054765)
(0.078124 -0.0044965 0.0062512)
(0.089461 -0.0049993 0.006977)
(0.10199 -0.0054174 0.0075964)
(0.1155 -0.0057045 0.0080462)
(0.12965 -0.0058172 0.0082661)
(0.14405 -0.0057244 0.0082117)
(0.15823 -0.0054102 0.0078582)
(0.17168 -0.0048627 0.0071869)
(0.18387 -0.0040586 0.0061646)
(0.19417 -0.0029609 0.0047391)
(0.20187 -0.0015822 0.0029136)
(0.2064 -9.7783e-05 0.00087568)
(0.20748 0.0013257 -0.0012209)
(0.20446 0.003153 -0.0037546)
(0.19678 0.0050348 -0.0063768)
(0.18475 0.0066297 -0.0086427)
(0.16908 0.0078179 -0.010385)
(0.15062 0.0086092 -0.011624)
(0.1301 0.0090812 -0.012441)
(0.10814 0.009289 -0.012879)
(0.085349 0.0091901 -0.012891)
(0.062521 0.0086774 -0.012338)
(0.040712 0.0076389 -0.011075)
(0.021198 0.0060461 -0.0090561)
(0.0051317 0.0040431 -0.0064498)
(-0.0064489 0.0017863 -0.0034649)
(-0.013306 0.0002967 -0.0013556)
(-0.016498 -0.00060943 0.00017826)
(-0.016736 -0.0010842 0.0011543)
(-0.01448 -0.0015576 0.0018549)
(-0.011046 -0.0016134 0.0019966)
(-0.0074611 -0.0015864 0.0020146)
(-0.0041897 -0.0016776 0.0022508)
(0.0017654 -0.0013127 0.0019178)
(0.025175 -1.2091e-05 1.3255e-05)
(0.025212 -3.6134e-05 5.5255e-05)
(0.025385 -9.1569e-05 0.00023507)
(0.025872 -0.00021843 0.00054141)
(0.026795 -0.00039132 0.00096369)
(0.028286 -0.0005848 0.0014255)
(0.03039 -0.00078448 0.0018975)
(0.03313 -0.00097971 0.0023877)
(0.036544 -0.001176 0.002931)
(0.04072 -0.0013968 0.003567)
(0.0458 -0.0016564 0.0043186)
(0.051947 -0.0019589 0.0051895)
(0.059307 -0.0022981 0.0061586)
(0.067981 -0.0026564 0.0071854)
(0.078011 -0.0030093 0.0082156)
(0.089364 -0.0033277 0.0091863)
(0.10192 -0.0035808 0.010024)
(0.11547 -0.0037362 0.010646)
(0.12968 -0.0037649 0.010973)
(0.14414 -0.0036477 0.010946)
(0.15838 -0.0033774 0.010533)
(0.1719 -0.0029505 0.0097091)
(0.18416 -0.0023545 0.0084304)
(0.19455 -0.001567 0.0066264)
(0.20233 -0.00061165 0.0042832)
(0.20693 0.00033571 0.0016032)
(0.20806 0.0010284 -0.0013602)
(0.20506 0.0020575 -0.0049086)
(0.19735 0.0033023 -0.0084301)
(0.18524 0.0043244 -0.011486)
(0.16949 0.0050453 -0.013864)
(0.15094 0.0054893 -0.015592)
(0.13033 0.0057153 -0.016781)
(0.10827 0.0057605 -0.017485)
(0.085385 0.0055948 -0.01764)
(0.062441 0.0051385 -0.017066)
(0.040506 0.004316 -0.015571)
(0.020873 0.0031263 -0.013084)
(0.004712 0.0016999 -0.0097947)
(-0.0068749 0.00019874 -0.0060002)
(-0.013699 -0.0007071 -0.0031601)
(-0.016841 -0.00092218 -0.00076575)
(-0.016931 -0.00066809 0.0012739)
(-0.014512 -0.0008218 0.0023889)
(-0.010975 -0.00087228 0.002686)
(-0.0073189 -0.00085897 0.0027174)
(-0.0039849 -0.00098195 0.0030079)
(0.0019434 -0.00087019 0.0024026)
(0.025177 -3.9373e-06 1.8415e-05)
(0.025184 -1.049e-05 7.0936e-05)
(0.025321 -2.4456e-05 0.00029368)
(0.025783 -0.00012282 0.00065731)
(0.02669 -0.00024966 0.0011683)
(0.028181 -0.00037714 0.0017403)
(0.030283 -0.00049338 0.0023341)
(0.033009 -0.00059067 0.0029521)
(0.0364 -0.00066805 0.003633)
(0.04055 -0.00074758 0.0044237)
(0.045603 -0.0008397 0.0053579)
(0.051728 -0.00095033 0.0064426)
(0.059074 -0.0010792 0.0076518)
(0.067748 -0.0012133 0.0089358)
(0.077794 -0.0013349 0.010225)
(0.089181 -0.0014215 0.011442)
(0.1018 -0.0014532 0.012492)
(0.11542 -0.0014123 0.013272)
(0.12973 -0.0012868 0.013682)
(0.14431 -0.0010733 0.013646)
(0.15868 -0.00077377 0.01313)
(0.17235 -0.00038855 0.012108)
(0.18478 9.1686e-05 0.010533)
(0.19533 0.00068324 0.0083166)
(0.20329 0.0013771 0.0054352)
(0.2081 0.002019 0.0022005)
(0.20942 0.0020963 -0.0011221)
(0.20638 0.0023157 -0.0054411)
(0.19851 0.0027722 -0.0097735)
(0.18624 0.0030708 -0.013557)
(0.17029 0.0031473 -0.016506)
(0.15154 0.0030595 -0.018625)
(0.13076 0.0028673 -0.020062)
(0.10853 0.0025942 -0.020909)
(0.08545 0.0022101 -0.021087)
(0.062278 0.0016506 -0.020372)
(0.040083 0.0008607 -0.018512)
(0.020194 -0.00016028 -0.015418)
(0.0038188 -0.0013083 -0.011325)
(-0.007786 -0.0024742 -0.0067728)
(-0.014599 -0.0030142 -0.0036444)
(-0.017859 -0.0025333 -0.001076)
(-0.017654 -0.001428 0.0011552)
(-0.01468 -0.0011458 0.0023828)
(-0.010831 -0.00092857 0.0028062)
(-0.0069629 -0.00079082 0.0027299)
(-0.0034263 -0.00068131 0.0032213)
(0.0023902 -0.00043585 0.0029127)
(0.025159 -2.8644e-07 -1.9771e-05)
(0.025137 -7.2504e-07 -2.1641e-06)
(0.025244 -1.0025e-06 0.00027966)
(0.025678 -1.436e-06 0.00089098)
(0.026551 -1.6811e-06 0.0017175)
(0.028019 -1.8094e-06 0.002575)
(0.030104 -1.9424e-06 0.0034074)
(0.03281 -2.0885e-06 0.0042339)
(0.036173 -2.5129e-06 0.0051404)
(0.040284 -2.9323e-06 0.0062026)
(0.045294 -3.3775e-06 0.0074717)
(0.051381 -3.7747e-06 0.0089589)
(0.058704 -4.073e-06 0.010626)
(0.067374 -4.0533e-06 0.012395)
(0.077439 -3.7988e-06 0.014163)
(0.088874 -3.2365e-06 0.015813)
(0.10157 -2.35e-06 0.017211)
(0.11531 -1.4735e-06 0.018205)
(0.12977 -6.5485e-07 0.018649)
(0.14453 1.7504e-07 0.018443)
(0.15909 8.3421e-07 0.017547)
(0.17295 1.3577e-06 0.015943)
(0.18559 1.5987e-06 0.013559)
(0.19636 1.5329e-06 0.010207)
(0.20448 1.1111e-06 0.0057107)
(0.20942 5.2788e-07 0.00039431)
(0.211 2.2834e-07 -0.0047451)
(0.20816 -2.5565e-07 -0.010629)
(0.20021 -7.4741e-07 -0.016814)
(0.18772 -1.5629e-06 -0.02204)
(0.17149 -1.1642e-06 -0.025963)
(0.15246 -1.1935e-06 -0.028639)
(0.1314 -9.5876e-07 -0.030341)
(0.10892 -7.3246e-07 -0.031236)
(0.085557 -6.6261e-07 -0.031198)
(0.062051 -4.7205e-07 -0.029865)
(0.039489 -6.9682e-07 -0.026851)
(0.01926 -1.1277e-06 -0.021956)
(0.002683 -1.7653e-06 -0.015214)
(-0.0088071 -2.3408e-06 -0.0075723)
(-0.015517 -2.3429e-06 -0.0016087)
(-0.018819 -2.8511e-06 0.0022748)
(-0.018328 -1.6856e-06 0.0041366)
(-0.014924 -2.1527e-06 0.0052902)
(-0.01069 -1.3767e-06 0.0055541)
(-0.006519 -9.6045e-07 0.0051834)
(-0.0028439 -7.6301e-07 0.0054979)
(0.0026093 -2.9482e-07 0.0041106)
(0.025177 -1.8556e-05 -3.8453e-06)
(0.025183 -7.1462e-05 -1.0244e-05)
(0.025321 -0.00029442 -2.408e-05)
(0.025782 -0.00065847 -0.00012243)
(0.02669 -0.0011696 -0.00024934)
(0.028181 -0.0017417 -0.00037679)
(0.030283 -0.0023362 -0.00049257)
(0.033008 -0.0029543 -0.0005897)
(0.036399 -0.0036357 -0.00066722)
(0.040549 -0.0044269 -0.00074655)
(0.045603 -0.0053616 -0.00083841)
(0.051727 -0.0064465 -0.00094912)
(0.059074 -0.0076563 -0.0010772)
(0.067748 -0.0089401 -0.0012107)
(0.077795 -0.010229 -0.0013316)
(0.089183 -0.011445 -0.0014183)
(0.1018 -0.012493 -0.0014504)
(0.11542 -0.013272 -0.0014102)
(0.12973 -0.013679 -0.0012852)
(0.14431 -0.013643 -0.001072)
(0.15868 -0.013125 -0.00077292)
(0.17235 -0.012102 -0.00038817)
(0.18477 -0.010526 9.1243e-05)
(0.19533 -0.0083086 0.00068272)
(0.20328 -0.0054297 0.0013787)
(0.2081 -0.0021952 0.0020196)
(0.20941 0.0011272 0.0020952)
(0.20637 0.0054445 0.0023158)
(0.19851 0.0097764 0.0027739)
(0.18623 0.01356 0.0030717)
(0.17028 0.016507 0.0031491)
(0.15154 0.018625 0.0030605)
(0.13075 0.02006 0.002868)
(0.10853 0.020906 0.0025945)
(0.085448 0.021084 0.0022108)
(0.062278 0.020367 0.0016513)
(0.040083 0.018513 0.00085795)
(0.020194 0.015418 -0.00016227)
(0.0038206 0.011326 -0.0013112)
(-0.0077839 0.006775 -0.0024785)
(-0.014597 0.0036445 -0.0030156)
(-0.017857 0.0010757 -0.0025336)
(-0.017653 -0.0011541 -0.0014283)
(-0.014679 -0.0023816 -0.0011453)
(-0.010831 -0.0028053 -0.00092942)
(-0.006963 -0.002729 -0.00079039)
(-0.003427 -0.0032205 -0.00068157)
(0.0023902 -0.0029131 -0.0004355)
(0.0252 -2.0301e-05 -8.9214e-08)
(0.025229 -6.8456e-05 -1.832e-07)
(0.025397 -0.00026603 -4.784e-07)
(0.025885 -0.00053579 -6.9381e-07)
(0.026825 -0.00091367 -9.1417e-07)
(0.02834 -0.0013489 -1.0234e-06)
(0.03046 -0.0018171 -1.1796e-06)
(0.0332 -0.0023217 -1.2074e-06)
(0.036616 -0.0028808 -1.4442e-06)
(0.040804 -0.0035332 -1.4508e-06)
(0.045903 -0.0043028 -1.2592e-06)
(0.052071 -0.0051907 -1.0973e-06)
(0.059452 -0.0061757 -1.0262e-06)
(0.068148 -0.0072186 -7.6549e-07)
(0.078199 -0.0082694 -2.7164e-07)
(0.089572 -0.0092693 2.223e-07)
(0.10215 -0.010149 7.4189e-07)
(0.11572 -0.010829 1.2449e-06)
(0.12996 -0.011233 1.6532e-06)
(0.14446 -0.011302 1.9579e-06)
(0.15874 -0.011 2.0548e-06)
(0.17231 -0.0103 1.946e-06)
(0.18462 -0.0091598 1.7895e-06)
(0.19506 -0.0075177 1.2883e-06)
(0.20295 -0.0053615 6.587e-07)
(0.20778 -0.0028422 8.7746e-07)
(0.20887 0.00010403 1.0335e-06)
(0.20557 0.0037991 8.6456e-07)
(0.19772 0.0073724 1.0425e-06)
(0.18555 0.010548 8.6639e-07)
(0.16973 0.013096 2.3245e-07)
(0.1511 0.015024 9.7115e-08)
(0.13041 0.016421 -4.9379e-07)
(0.10829 0.01734 -1.0968e-06)
(0.085357 0.01772 -1.8338e-06)
(0.062404 0.017407 -2.1523e-06)
(0.040481 0.016222 -1.8273e-06)
(0.02085 0.01409 -2.4103e-06)
(0.0046413 0.011192 -2.6179e-06)
(-0.0071105 0.0077873 -2.4729e-06)
(-0.014172 0.0052683 -2.1637e-06)
(-0.017445 0.0027669 -1.6199e-06)
(-0.017366 -4.3044e-05 -1.1e-06)
(-0.014717 -0.0016111 -9.9081e-07)
(-0.011073 -0.0019542 -6.5949e-07)
(-0.007319 -0.0021741 -1.2124e-07)
(-0.003935 -0.0025827 3.4651e-08)
(0.0021722 -0.0022594 1.5295e-07)
(0.025201 -1.543e-05 1.4694e-05)
(0.025257 -5.8459e-05 3.4938e-05)
(0.02546 -0.00021118 6.8232e-05)
(0.025975 -0.00043571 0.00010453)
(0.02693 -0.00074376 0.00015933)
(0.028447 -0.0010944 0.00023767)
(0.030569 -0.0014667 0.00033733)
(0.033321 -0.0018645 0.00044678)
(0.036757 -0.0023066 0.00055419)
(0.040971 -0.0028223 0.00067301)
(0.046097 -0.0034299 0.00081125)
(0.052289 -0.0041302 0.00097046)
(0.059686 -0.0049064 0.0011475)
(0.068385 -0.0057278 0.001335)
(0.078425 -0.0065546 0.001523)
(0.08977 -0.0073396 0.0016993)
(0.1023 -0.0080275 0.0018504)
(0.1158 -0.0085558 0.0019619)
(0.12995 -0.0088638 0.0020204)
(0.14434 -0.0089041 0.0020167)
(0.15851 -0.0086467 0.0019464)
(0.17195 -0.0080668 0.0018071)
(0.18413 -0.007129 0.0015948)
(0.19441 -0.0057857 0.0013053)
(0.20214 -0.0040285 0.0009574)
(0.20676 -0.0019519 0.00063139)
(0.20774 0.00052358 0.00045775)
(0.2045 0.0033335 -7.1919e-05)
(0.19675 0.0061265 -0.00071298)
(0.18473 0.0086151 -0.0012789)
(0.16909 0.010625 -0.0017303)
(0.15062 0.012143 -0.002063)
(0.13009 0.01323 -0.002296)
(0.10812 0.013919 -0.0024393)
(0.085369 0.014168 -0.0024845)
(0.062632 0.013849 -0.0024034)
(0.040956 0.012826 -0.0021715)
(0.021566 0.011047 -0.0017993)
(0.0055685 0.0086465 -0.0013495)
(-0.0061577 0.0057756 -0.00089492)
(-0.013275 0.0035865 -0.00073826)
(-0.016524 0.0015782 -0.00079341)
(-0.016712 -0.00042095 -0.00065322)
(-0.014576 -0.0016893 -0.00036988)
(-0.011218 -0.0018801 -0.00023898)
(-0.0076395 -0.002047 -0.00013938)
(-0.0045149 -0.0022731 5.2714e-05)
(0.0016293 -0.0018719 0.00033993)
(0.025207 -1.7126e-05 1.2459e-05)
(0.025271 -5.5402e-05 3.7452e-05)
(0.025488 -0.00016617 0.00011306)
(0.026016 -0.0003274 0.00021514)
(0.026981 -0.0005492 0.00035659)
(0.028501 -0.00080936 0.00052595)
(0.030625 -0.0010912 0.00071421)
(0.033382 -0.0013925 0.00091667)
(0.036829 -0.0017198 0.0011313)
(0.041056 -0.0020982 0.0013756)
(0.046195 -0.0025428 0.0016621)
(0.052399 -0.0030549 0.0019923)
(0.059803 -0.0036224 0.0023588)
(0.068504 -0.0042226 0.0027466)
(0.078537 -0.0048255 0.0031356)
(0.089868 -0.0053956 0.003502)
(0.10237 -0.0058916 0.0038182)
(0.11584 -0.0062677 0.0040541)
(0.12994 -0.0064798 0.0041812)
(0.14428 -0.0064941 0.0041782)
(0.15839 -0.0062892 0.0040324)
(0.17177 -0.0058479 0.0037342)
(0.18387 -0.0051456 0.0032692)
(0.19408 -0.0041513 0.0026198)
(0.20173 -0.0028704 0.0017994)
(0.20629 -0.0013971 0.00089188)
(0.20722 0.00022276 -7.0356e-05)
(0.20397 0.0022217 -0.0013666)
(0.19625 0.0042538 -0.0027016)
(0.1843 0.006064 -0.0038792)
(0.16874 0.0075209 -0.0048162)
(0.15036 0.0086058 -0.0055037)
(0.1299 0.0093673 -0.0059796)
(0.10802 0.0098385 -0.0062712)
(0.085354 0.0099869 -0.0063525)
(0.062725 0.0097208 -0.0061645)
(0.041169 0.0089423 -0.0056452)
(0.021895 0.0076221 -0.0047854)
(0.0059937 0.0058764 -0.0036732)
(-0.0057335 0.003828 -0.0023977)
(-0.012912 0.0023546 -0.0015513)
(-0.016269 0.0011613 -0.00093769)
(-0.016575 1.214e-05 -9.2585e-05)
(-0.014547 -0.00089376 0.00055445)
(-0.011284 -0.0010533 0.00066891)
(-0.0077622 -0.0012178 0.00076638)
(-0.0046951 -0.0014447 0.00088493)
(0.0014365 -0.0013734 0.00079179)
(0.025207 -1.2762e-05 1.6864e-05)
(0.025272 -3.8234e-05 5.4725e-05)
(0.025488 -0.00011441 0.00016504)
(0.026016 -0.00021689 0.000326)
(0.026981 -0.00035876 0.00054734)
(0.028501 -0.00052845 0.0008072)
(0.030625 -0.00071713 0.0010886)
(0.033383 -0.00092008 0.0013896)
(0.036829 -0.0011353 0.0017164)
(0.041056 -0.0013801 0.0020943)
(0.046195 -0.0016669 0.0025385)
(0.052399 -0.0019973 0.0030504)
(0.059803 -0.0023639 0.0036179)
(0.068503 -0.0027514 0.0042185)
(0.078537 -0.0031397 0.0048222)
(0.089868 -0.003505 0.0053937)
(0.10237 -0.0038196 0.0058912)
(0.11584 -0.004054 0.006269)
(0.12994 -0.0041797 0.0064824)
(0.14428 -0.0041757 0.0064977)
(0.15839 -0.0040291 0.0062935)
(0.17177 -0.0037304 0.0058527)
(0.18387 -0.0032652 0.0051506)
(0.19408 -0.0026161 0.0041559)
(0.20173 -0.0017963 0.0028744)
(0.20629 -0.00088908 0.0014004)
(0.20722 7.3291e-05 -0.0002198)
(0.20398 0.0013684 -0.0022201)
(0.19625 0.0027024 -0.0042536)
(0.1843 0.0038789 -0.0060653)
(0.16874 0.0048155 -0.0075225)
(0.15036 0.0055022 -0.0086081)
(0.1299 0.0059775 -0.00937)
(0.10802 0.0062685 -0.0098416)
(0.085354 0.006349 -0.0099905)
(0.062725 0.0061607 -0.0097246)
(0.041169 0.0056416 -0.0089463)
(0.021895 0.0047814 -0.0076265)
(0.0059936 0.003669 -0.0058805)
(-0.0057336 0.0023938 -0.0038315)
(-0.012912 0.0015479 -0.0023575)
(-0.016269 0.00093451 -0.0011634)
(-0.016576 8.9742e-05 -1.4383e-05)
(-0.014547 -0.00055647 0.00089249)
(-0.011284 -0.00067014 0.0010532)
(-0.0077623 -0.00076701 0.0012182)
(-0.0046951 -0.00088545 0.001445)
(0.0014365 -0.00079199 0.0013735)
(0.025201 -1.5069e-05 1.5199e-05)
(0.025257 -3.586e-05 5.7882e-05)
(0.025461 -6.9883e-05 0.00021022)
(0.025975 -0.00010673 0.00043457)
(0.02693 -0.00016208 0.00074242)
(0.028447 -0.00024078 0.0010926)
(0.030569 -0.00034074 0.0014644)
(0.033321 -0.00045078 0.0018619)
(0.036758 -0.00055857 0.0023035)
(0.040971 -0.00067784 0.0028187)
(0.046097 -0.00081645 0.0034261)
(0.052289 -0.00097591 0.0041263)
(0.059685 -0.0011531 0.0049025)
(0.068384 -0.0013405 0.0057243)
(0.078424 -0.001528 0.0065518)
(0.089769 -0.0017032 0.0073382)
(0.1023 -0.0018529 0.0080277)
(0.1158 -0.001963 0.0085576)
(0.12995 -0.0020201 0.0088668)
(0.14434 -0.0020152 0.0089081)
(0.15851 -0.001944 0.0086513)
(0.17195 -0.0018041 0.0080719)
(0.18413 -0.0015915 0.0071344)
(0.19441 -0.0013022 0.0057907)
(0.20214 -0.00095511 0.0040328)
(0.20676 -0.00062896 0.0019555)
(0.20774 -0.00045479 -0.00052009)
(0.2045 7.3933e-05 -0.0033316)
(0.19675 0.00071491 -0.0061259)
(0.18473 0.0012813 -0.008616)
(0.16909 0.0017309 -0.010626)
(0.15063 0.0020632 -0.012145)
(0.13009 0.0022949 -0.013232)
(0.10812 0.0024372 -0.013922)
(0.085369 0.0024813 -0.014172)
(0.062632 0.0023995 -0.013853)
(0.040956 0.0021676 -0.01283)
(0.021566 0.0017952 -0.011051)
(0.0055683 0.0013456 -0.0086505)
(-0.0061582 0.00089091 -0.0057787)
(-0.013276 0.00073378 -0.0035887)
(-0.016524 0.00078917 -0.0015793)
(-0.016712 0.00064988 0.00041992)
(-0.014576 0.00036697 0.001689)
(-0.011219 0.00023711 0.0018805)
(-0.0076398 0.00013756 0.0020475)
(-0.0045148 -5.3817e-05 0.0022734)
(0.0016294 -0.00034065 0.0018719)
(0.025201 -3.5867e-07 2.0116e-05)
(0.025229 -9.1902e-07 6.8019e-05)
(0.025398 -1.3088e-06 0.00026521)
(0.025886 -1.7479e-06 0.00053472)
(0.026826 -1.9713e-06 0.0009122)
(0.028341 -2.1508e-06 0.0013473)
(0.030461 -2.3838e-06 0.0018151)
(0.033201 -2.6417e-06 0.0023194)
(0.036616 -3.2225e-06 0.0028781)
(0.040805 -3.7268e-06 0.0035302)
(0.045903 -4.2319e-06 0.0042996)
(0.052071 -4.6167e-06 0.0051878)
(0.059452 -5.0273e-06 0.0061724)
(0.068147 -5.1268e-06 0.0072156)
(0.078197 -4.906e-06 0.0082668)
(0.08957 -4.3009e-06 0.009268)
(0.10215 -3.3813e-06 0.010149)
(0.11572 -2.3769e-06 0.010831)
(0.12996 -1.3509e-06 0.011236)
(0.14445 -3.7303e-07 0.011306)
(0.15874 4.5779e-07 0.011005)
(0.17231 1.0985e-06 0.010306)
(0.18462 1.4653e-06 0.0091659)
(0.19506 1.5971e-06 0.0075234)
(0.20295 1.3351e-06 0.0053655)
(0.20778 6.6986e-07 0.0028457)
(0.20887 1.2318e-07 -9.9849e-05)
(0.20557 -5.1291e-08 -0.0037976)
(0.19772 -4.4389e-07 -0.0073714)
(0.18555 -8.9188e-07 -0.010547)
(0.16973 -7.5601e-08 -0.013097)
(0.1511 -1.065e-06 -0.015025)
(0.13041 -1.2237e-06 -0.016423)
(0.10829 -1.3965e-06 -0.017343)
(0.085358 -1.5621e-06 -0.017725)
(0.062404 -1.7419e-06 -0.017411)
(0.040481 -1.934e-06 -0.016225)
(0.02085 -2.2914e-06 -0.014094)
(0.0046408 -2.6468e-06 -0.011196)
(-0.007111 -3.2192e-06 -0.0077895)
(-0.014173 -3.7485e-06 -0.005271)
(-0.017446 -3.6943e-06 -0.0027693)
(-0.017367 -2.6398e-06 4.1321e-05)
(-0.014718 -1.7357e-06 0.0016099)
(-0.011074 -1.7806e-06 0.0019533)
(-0.0073193 -1.5725e-06 0.0021741)
(-0.0039351 -1.2381e-06 0.0025829)
(0.0021719 -5.7758e-07 0.0022595)
(0.025178 3.3482e-06 1.8472e-05)
(0.025184 8.9775e-06 7.1127e-05)
(0.025322 2.2141e-05 0.00029394)
(0.025783 0.00011978 0.00065784)
(0.026691 0.00024623 0.0011691)
(0.028181 0.00037341 0.0017411)
(0.030284 0.00048894 0.002335)
(0.033009 0.00058594 0.0029526)
(0.036401 0.00066229 0.0036336)
(0.04055 0.00074085 0.0044242)
(0.045603 0.00083187 0.0053583)
(0.051728 0.00094151 0.0064431)
(0.059074 0.0010696 0.0076523)
(0.067748 0.0012033 0.0089363)
(0.077793 0.0013253 0.010226)
(0.08918 0.0014132 0.011442)
(0.10179 0.0014469 0.012492)
(0.11542 0.0014079 0.013272)
(0.12973 0.0012844 0.013681)
(0.14431 0.0010727 0.013646)
(0.15868 0.00077472 0.013129)
(0.17235 0.00039062 0.012107)
(0.18477 -8.8937e-05 0.010532)
(0.19533 -0.0006804 0.0083156)
(0.20328 -0.0013745 0.0054345)
(0.2081 -0.0020171 0.0022002)
(0.20941 -0.002095 -0.0011223)
(0.20638 -0.0023143 -0.0054408)
(0.19851 -0.0027725 -0.0097732)
(0.18624 -0.003071 -0.013558)
(0.17028 -0.0031484 -0.016506)
(0.15154 -0.0030604 -0.018626)
(0.13075 -0.0028689 -0.020062)
(0.10853 -0.0025965 -0.02091)
(0.08545 -0.0022126 -0.021088)
(0.062278 -0.0016532 -0.020373)
(0.040083 -0.00086342 -0.018514)
(0.020195 0.00015715 -0.01542)
(0.0038202 0.0013046 -0.011327)
(-0.0077845 0.0024696 -0.0067742)
(-0.014598 0.0030087 -0.0036452)
(-0.017858 0.0025277 -0.0010772)
(-0.017654 0.0014239 0.0011528)
(-0.01468 0.0011418 0.00238)
(-0.010832 0.00092612 0.0028042)
(-0.0069639 0.00078848 0.0027287)
(-0.0034273 0.00067962 0.0032212)
(0.00239 0.00043527 0.0029128)
(0.025174 -1.3454e-05 -1.2006e-05)
(0.025211 -5.5718e-05 -3.6043e-05)
(0.025385 -0.00023597 -9.1437e-05)
(0.025871 -0.00054257 -0.00021835)
(0.026795 -0.00096509 -0.00039137)
(0.028286 -0.0014271 -0.00058469)
(0.03039 -0.0018995 -0.00078353)
(0.033129 -0.0023899 -0.00097941)
(0.036543 -0.0029339 -0.0011754)
(0.040719 -0.0035703 -0.001396)
(0.0458 -0.0043224 -0.0016553)
(0.051947 -0.0051935 -0.0019576)
(0.059307 -0.0061629 -0.0022961)
(0.067982 -0.0071895 -0.0026537)
(0.078012 -0.0082191 -0.0030061)
(0.089365 -0.0091886 -0.0033247)
(0.10192 -0.010025 -0.0035784)
(0.11547 -0.010645 -0.0037345)
(0.12968 -0.01097 -0.0037637)
(0.14413 -0.010943 -0.0036468)
(0.15837 -0.010529 -0.0033769)
(0.17189 -0.0097041 -0.0029505)
(0.18416 -0.0084248 -0.002355)
(0.19454 -0.0066212 -0.0015673)
(0.20232 -0.0042789 -0.00061125)
(0.20693 -0.0015993 0.00033546)
(0.20805 0.0013643 0.0010264)
(0.20505 0.0049111 0.002058)
(0.19734 0.0084323 0.0033026)
(0.18524 0.011488 0.0043248)
(0.16949 0.013865 0.0050477)
(0.15094 0.015592 0.0054904)
(0.13033 0.016779 0.0057157)
(0.10827 0.017483 0.0057604)
(0.085383 0.017637 0.0055945)
(0.062441 0.017064 0.0051374)
(0.040506 0.015571 0.0043134)
(0.020873 0.013082 0.0031241)
(0.0047134 0.0097935 0.0016974)
(-0.0068726 0.0059997 0.00019589)
(-0.013696 0.0031593 -0.00070898)
(-0.016839 0.00076615 -0.00092285)
(-0.016929 -0.0012739 -0.00066813)
(-0.014511 -0.002387 -0.00082211)
(-0.010975 -0.0026845 -0.00087343)
(-0.0073198 -0.0027161 -0.00086033)
(-0.0039858 -0.0030072 -0.00098262)
(0.001943 -0.0024028 -0.0008705)
(0.025201 -1.5409e-05 -1.4865e-05)
(0.025257 -5.8395e-05 -3.5417e-05)
(0.02546 -0.00021116 -6.9258e-05)
(0.025975 -0.00043572 -0.00010596)
(0.02693 -0.00074401 -0.00016123)
(0.028446 -0.0010945 -0.00023995)
(0.030568 -0.0014662 -0.0003395)
(0.033321 -0.0018646 -0.00044959)
(0.036757 -0.0023065 -0.00055722)
(0.040971 -0.0028222 -0.0006761)
(0.046097 -0.0034297 -0.00081406)
(0.052289 -0.00413 -0.00097293)
(0.059685 -0.0049063 -0.0011495)
(0.068384 -0.0057278 -0.0013364)
(0.078424 -0.0065546 -0.0015233)
(0.089769 -0.0073397 -0.0016986)
(0.1023 -0.0080275 -0.0018487)
(0.1158 -0.0085559 -0.0019594)
(0.12995 -0.0088638 -0.0020171)
(0.14434 -0.008904 -0.0020128)
(0.15851 -0.0086465 -0.0019422)
(0.17195 -0.0080667 -0.001803)
(0.18412 -0.0071288 -0.0015909)
(0.19441 -0.0057855 -0.0013019)
(0.20213 -0.0040287 -0.00095506)
(0.20675 -0.0019517 -0.00062894)
(0.20773 0.00052366 -0.00045533)
(0.20449 0.0033341 7.3883e-05)
(0.19674 0.0061272 0.00071518)
(0.18472 0.0086165 0.0012815)
(0.16908 0.010627 0.0017319)
(0.15062 0.012144 0.0020636)
(0.13009 0.013231 0.0022951)
(0.10812 0.01392 0.0024373)
(0.085368 0.014169 0.002481)
(0.062633 0.013851 0.002399)
(0.040956 0.012829 0.0021674)
(0.021567 0.011049 0.0017943)
(0.0055699 0.0086486 0.0013445)
(-0.0061562 0.0057777 0.0008903)
(-0.013273 0.0035885 0.00073426)
(-0.016522 0.0015804 0.00079072)
(-0.016711 -0.00041896 0.00065148)
(-0.014575 -0.0016871 0.00036868)
(-0.011218 -0.0018788 0.00023855)
(-0.0076402 -0.002046 0.00013882)
(-0.0045149 -0.0022725 -5.305e-05)
(0.00163 -0.0018717 -0.0003399)
(0.025209 -1.0475e-05 -9.7161e-08)
(0.025286 -4.3697e-05 -2.8181e-07)
(0.025518 -0.0001581 -5.3679e-07)
(0.026056 -0.0003326 -7.0939e-07)
(0.027029 -0.00056869 -8.1906e-07)
(0.028551 -0.00083243 -1.0812e-06)
(0.030679 -0.0011076 -1.3343e-06)
(0.033442 -0.0014028 -1.4489e-06)
(0.036895 -0.0017342 -1.5265e-06)
(0.041132 -0.0021207 -1.5652e-06)
(0.046284 -0.0025749 -1.4679e-06)
(0.052497 -0.0030975 -1.305e-06)
(0.059908 -0.0036762 -1.0395e-06)
(0.068609 -0.0042883 -6.6288e-07)
(0.078635 -0.0049039 -1.3419e-07)
(0.08995 -0.0054877 4.0474e-07)
(0.10243 -0.0059982 9.1901e-07)
(0.11586 -0.006389 1.3807e-06)
(0.12992 -0.0066149 1.7688e-06)
(0.1442 -0.0066402 2.0411e-06)
(0.15825 -0.0064409 2.1705e-06)
(0.17157 -0.0059968 2.1643e-06)
(0.1836 -0.0052804 2.07e-06)
(0.19375 -0.0042573 1.8419e-06)
(0.20135 -0.0029208 1.4833e-06)
(0.20583 -0.001321 1.4305e-06)
(0.2067 0.00059431 1.4663e-06)
(0.20344 0.0027174 1.0891e-06)
(0.19578 0.0047951 1.2083e-06)
(0.1839 0.0066462 1.3463e-06)
(0.16844 0.0081504 6.6708e-07)
(0.15015 0.0092802 3.9443e-07)
(0.12978 0.010082 -3.0391e-07)
(0.10797 0.010582 -9.5371e-07)
(0.085403 0.010746 -1.6669e-06)
(0.062881 0.010484 -1.9699e-06)
(0.041438 0.0096963 -2.1029e-06)
(0.022265 0.0083435 -2.4271e-06)
(0.0064497 0.0065168 -2.2953e-06)
(-0.0052975 0.0043027 -2.0335e-06)
(-0.012568 0.0025645 -1.7149e-06)
(-0.015851 0.0010789 -1.1219e-06)
(-0.016172 -0.00039452 -4.2066e-07)