/*--------------------------------*- C++ -*----------------------------------*\
| =========                 |                                                 |
| \\      /  F ield         | OpenFOAM: The Open Source CFD Toolbox           |
|  \\    /   O peration     | Version:  4.1                                   |
|   \\  /    A nd           | Web:      www.OpenFOAM.org                      |
|    \\/     M anipulation  |                                                 |
\*---------------------------------------------------------------------------*/
FoamFile
{
    version     2.0;
    format      ascii;
    class       pointVectorField;
    location    "0.0042";
    object      pointDisplacement_Next;
}
// * * * * * * * * * * * * * * * * * * * * * * * * * * * * * * * * * * * * * //

dimensions      [0 1 0 0 0 0 0];

internalField   uniform (0 0 0);

boundaryField
{
    inlet
    {
        type            fixedValue;
        value           nonuniform 0();
    }
    outlet
    {
        type            fixedValue;
        value           nonuniform 0();
    }
    mantle
    {
        type            fixedValue;
        value           nonuniform List<vector> 
416
(
(-5.8504e-05 -3.3297e-05 -4.2803e-10)
(-5.8561e-05 -2.7084e-05 -8.3889e-12)
(-5.8573e-05 -2.6577e-05 5.2622e-06)
(-5.853e-05 -3.2624e-05 6.4341e-06)
(-5.8586e-05 -2.5098e-05 1.0389e-05)
(-5.8559e-05 -3.0747e-05 1.2715e-05)
(-5.8569e-05 -2.2698e-05 1.5189e-05)
(-5.8532e-05 -2.7811e-05 1.8625e-05)
(-5.8555e-05 -1.9374e-05 1.9373e-05)
(-5.8507e-05 -2.3772e-05 2.3772e-05)
(-5.8569e-05 -1.5188e-05 2.2697e-05)
(-5.8532e-05 -1.8625e-05 2.7811e-05)
(-5.8586e-05 -1.0389e-05 2.5096e-05)
(-5.8558e-05 -1.2715e-05 3.0746e-05)
(-5.8573e-05 -5.2622e-06 2.6573e-05)
(-5.8529e-05 -6.4341e-06 3.2621e-05)
(-5.856e-05 -4.4878e-10 2.7079e-05)
(-5.8503e-05 1.2798e-10 3.3294e-05)
(-5.825e-05 -2.1779e-05 -4.5961e-10)
(-5.8255e-05 -2.1413e-05 4.2588e-06)
(-5.8255e-05 -2.0259e-05 8.4025e-06)
(-5.8247e-05 -1.833e-05 1.2253e-05)
(-5.8237e-05 -1.5612e-05 1.5611e-05)
(-5.8247e-05 -1.2252e-05 1.8329e-05)
(-5.8255e-05 -8.4022e-06 2.0256e-05)
(-5.8255e-05 -4.2587e-06 2.1408e-05)
(-5.825e-05 -1.0377e-10 2.1774e-05)
(-5.7573e-05 -1.7629e-05 -4.9846e-10)
(-5.7573e-05 -1.7312e-05 3.4335e-06)
(-5.7573e-05 -1.6369e-05 6.7779e-06)
(-5.7562e-05 -1.4826e-05 9.9176e-06)
(-5.7557e-05 -1.2656e-05 1.2656e-05)
(-5.7562e-05 -9.9174e-06 1.4824e-05)
(-5.7573e-05 -6.7775e-06 1.6366e-05)
(-5.7573e-05 -3.4333e-06 1.7308e-05)
(-5.7572e-05 -1.4627e-10 1.7624e-05)
(-5.6491e-05 -1.4365e-05 -5.1344e-10)
(-5.6494e-05 -1.4067e-05 2.7615e-06)
(-5.65e-05 -1.3268e-05 5.4816e-06)
(-5.6482e-05 -1.2044e-05 8.0747e-06)
(-5.6473e-05 -1.0327e-05 1.0327e-05)
(-5.6482e-05 -8.0745e-06 1.2043e-05)
(-5.65e-05 -5.4812e-06 1.3266e-05)
(-5.6494e-05 -2.7614e-06 1.4063e-05)
(-5.649e-05 -1.1195e-10 1.4361e-05)
(-5.5002e-05 -1.1667e-05 -4.7039e-10)
(-5.5001e-05 -1.1431e-05 2.2459e-06)
(-5.5e-05 -1.079e-05 4.461e-06)
(-5.4988e-05 -9.7937e-06 6.5665e-06)
(-5.4983e-05 -8.3935e-06 8.393e-06)
(-5.4988e-05 -6.5665e-06 9.7926e-06)
(-5.5e-05 -4.4608e-06 1.0788e-05)
(-5.5001e-05 -2.246e-06 1.1429e-05)
(-5.5001e-05 -4.442e-11 1.1664e-05)
(-5.32e-05 -9.3842e-06 -4.0134e-10)
(-5.3202e-05 -9.2072e-06 1.8168e-06)
(-5.3197e-05 -8.6937e-06 3.6011e-06)
(-5.3192e-05 -7.9016e-06 5.2943e-06)
(-5.3183e-05 -6.7583e-06 6.758e-06)
(-5.3192e-05 -5.2946e-06 7.9014e-06)
(-5.3197e-05 -3.6015e-06 8.6936e-06)
(-5.3202e-05 -1.8171e-06 9.2072e-06)
(-5.32e-05 5.2832e-11 9.3843e-06)
(-5.1208e-05 -7.477e-06 -9.3192e-10)
(-5.1207e-05 -7.3356e-06 1.4491e-06)
(-5.1207e-05 -6.9333e-06 2.8711e-06)
(-5.1198e-05 -6.2955e-06 4.2187e-06)
(-5.1196e-05 -5.3891e-06 5.39e-06)
(-5.1198e-05 -4.2193e-06 6.2964e-06)
(-5.1207e-05 -2.872e-06 6.9352e-06)
(-5.1207e-05 -1.4498e-06 7.3384e-06)
(-5.1208e-05 7.5721e-10 7.4803e-06)
(-4.9079e-05 -5.8808e-06 -2.0176e-10)
(-4.9082e-05 -5.7626e-06 1.1308e-06)
(-4.9085e-05 -5.4412e-06 2.2491e-06)
(-4.9075e-05 -4.9462e-06 3.3187e-06)
(-4.907e-05 -4.2446e-06 4.2449e-06)
(-4.9075e-05 -3.3195e-06 4.9482e-06)
(-4.9085e-05 -2.2505e-06 5.4452e-06)
(-4.9082e-05 -1.1317e-06 5.7684e-06)
(-4.9079e-05 2.4313e-10 5.8876e-06)
(-4.6832e-05 -4.5841e-06 -1.2823e-10)
(-4.6825e-05 -4.4999e-06 8.8794e-07)
(-4.6819e-05 -4.2586e-06 1.7622e-06)
(-4.6818e-05 -3.8682e-06 2.5916e-06)
(-4.6821e-05 -3.3125e-06 3.3132e-06)
(-4.6818e-05 -2.5927e-06 3.8714e-06)
(-4.6819e-05 -1.7638e-06 4.2646e-06)
(-4.6825e-05 -8.8905e-07 4.5085e-06)
(-4.6832e-05 4.4407e-10 4.5943e-06)
(-4.4456e-05 -3.5808e-06 -4.0908e-11)
(-4.4447e-05 -3.5223e-06 6.999e-07)
(-4.4436e-05 -3.3384e-06 1.3846e-06)
(-4.4439e-05 -3.0314e-06 2.0295e-06)
(-4.4444e-05 -2.5905e-06 2.5915e-06)
(-4.4439e-05 -2.0307e-06 3.0355e-06)
(-4.4436e-05 -1.3865e-06 3.346e-06)
(-4.4447e-05 -7.0109e-07 3.533e-06)
(-4.4456e-05 6.6148e-10 3.5935e-06)
(-4.1954e-05 -2.8619e-06 6.3616e-11)
(-4.1946e-05 -2.8098e-06 5.5671e-07)
(-4.1939e-05 -2.6593e-06 1.1019e-06)
(-4.194e-05 -2.4167e-06 1.6189e-06)
(-4.1945e-05 -2.0692e-06 2.0705e-06)
(-4.1939e-05 -1.6201e-06 2.4214e-06)
(-4.1939e-05 -1.1039e-06 2.6678e-06)
(-4.1946e-05 -5.5791e-07 2.8217e-06)
(-4.1954e-05 8.5742e-10 2.8761e-06)
(-3.9348e-05 -2.2887e-06 5.7404e-11)
(-3.9348e-05 -2.237e-06 4.385e-07)
(-3.9349e-05 -2.1103e-06 8.7207e-07)
(-3.9344e-05 -1.9201e-06 1.2889e-06)
(-3.9342e-05 -1.6526e-06 1.654e-06)
(-3.9344e-05 -1.2901e-06 1.925e-06)
(-3.9349e-05 -8.7414e-07 2.119e-06)
(-3.9348e-05 -4.396e-07 2.2491e-06)
(-3.9347e-05 1.0555e-09 2.303e-06)
(-5.8573e-05 5.2621e-06 2.6572e-05)
(-5.8529e-05 6.4341e-06 3.262e-05)
(-5.8586e-05 1.0388e-05 2.5094e-05)
(-5.8558e-05 1.2715e-05 3.0744e-05)
(-5.8569e-05 1.5188e-05 2.2695e-05)
(-5.8532e-05 1.8624e-05 2.7808e-05)
(-5.8555e-05 1.9373e-05 1.9372e-05)
(-5.8507e-05 2.377e-05 2.3769e-05)
(-5.8569e-05 2.2698e-05 1.5188e-05)
(-5.8532e-05 2.781e-05 1.8624e-05)
(-5.8586e-05 2.5099e-05 1.0389e-05)
(-5.8559e-05 3.0748e-05 1.2715e-05)
(-5.8573e-05 2.6579e-05 5.262e-06)
(-5.853e-05 3.2625e-05 6.4337e-06)
(-5.8561e-05 2.7088e-05 -6.17e-10)
(-5.8503e-05 3.3301e-05 -1.0712e-09)
(-5.8255e-05 4.2584e-06 2.1408e-05)
(-5.8255e-05 8.4016e-06 2.0254e-05)
(-5.8247e-05 1.2252e-05 1.8327e-05)
(-5.8237e-05 1.5611e-05 1.561e-05)
(-5.8247e-05 1.833e-05 1.2252e-05)
(-5.8255e-05 2.0259e-05 8.402e-06)
(-5.8255e-05 2.1414e-05 4.2585e-06)
(-5.825e-05 2.1782e-05 -1.011e-09)
(-5.7573e-05 3.4329e-06 1.7307e-05)
(-5.7573e-05 6.7767e-06 1.6365e-05)
(-5.7562e-05 9.9162e-06 1.4822e-05)
(-5.7557e-05 1.2655e-05 1.2654e-05)
(-5.7562e-05 1.4825e-05 9.9163e-06)
(-5.7573e-05 1.6368e-05 6.777e-06)
(-5.7573e-05 1.7312e-05 3.4329e-06)
(-5.7572e-05 1.763e-05 -9.4966e-10)
(-5.6494e-05 2.761e-06 1.4062e-05)
(-5.65e-05 5.4803e-06 1.3264e-05)
(-5.6482e-05 8.073e-06 1.204e-05)
(-5.6473e-05 1.0325e-05 1.0324e-05)
(-5.6482e-05 1.2042e-05 8.0727e-06)
(-5.65e-05 1.3266e-05 5.4802e-06)
(-5.6494e-05 1.4065e-05 2.7607e-06)
(-5.649e-05 1.4363e-05 -8.7606e-10)
(-5.5001e-05 2.2457e-06 1.1428e-05)
(-5.5e-05 4.4599e-06 1.0786e-05)
(-5.4988e-05 6.5648e-06 9.7901e-06)
(-5.4983e-05 8.391e-06 8.3903e-06)
(-5.4988e-05 9.7905e-06 6.5641e-06)
(-5.5e-05 1.0786e-05 4.4592e-06)
(-5.5001e-05 1.1428e-05 2.2449e-06)
(-5.5001e-05 1.1663e-05 -7.7215e-10)
(-5.3202e-05 1.817e-06 9.2063e-06)
(-5.3197e-05 3.6008e-06 8.6919e-06)
(-5.3192e-05 5.2932e-06 7.899e-06)
(-5.3183e-05 6.756e-06 6.7555e-06)
(-5.3192e-05 7.8985e-06 5.292e-06)
(-5.3197e-05 8.6901e-06 3.5994e-06)
(-5.3202e-05 9.2032e-06 1.8157e-06)
(-5.32e-05 9.3804e-06 -6.4454e-10)
(-5.1208e-05 1.4499e-06 7.3378e-06)
(-5.1207e-05 2.8718e-06 6.934e-06)
(-5.1199e-05 4.2185e-06 6.2948e-06)
(-5.1196e-05 5.3887e-06 5.3874e-06)
(-5.1199e-05 6.2936e-06 4.217e-06)
(-5.1207e-05 6.9308e-06 2.8698e-06)
(-5.1208e-05 7.3328e-06 1.4483e-06)
(-5.1209e-05 7.4742e-06 1.2224e-10)
(-4.9082e-05 1.1322e-06 5.7683e-06)
(-4.9085e-05 2.251e-06 5.4449e-06)
(-4.9075e-05 3.3199e-06 4.9478e-06)
(-4.907e-05 4.2447e-06 4.2444e-06)
(-4.9075e-05 4.9461e-06 3.3181e-06)
(-4.9085e-05 5.4409e-06 2.2485e-06)
(-4.9082e-05 5.7622e-06 1.1303e-06)
(-4.9079e-05 5.8802e-06 -3.7532e-10)
(-4.6825e-05 8.9005e-07 4.5089e-06)
(-4.6819e-05 1.7651e-06 4.2653e-06)
(-4.6818e-05 2.5943e-06 3.8723e-06)
(-4.6822e-05 3.3145e-06 3.3141e-06)
(-4.6818e-05 3.8705e-06 2.5924e-06)
(-4.6819e-05 4.2611e-06 1.7626e-06)
(-4.6825e-05 4.5024e-06 8.8806e-07)
(-4.6832e-05 4.5866e-06 -2.7813e-10)
(-4.4447e-05 7.0261e-07 3.5339e-06)
(-4.4436e-05 1.3886e-06 3.3476e-06)
(-4.4439e-05 2.0336e-06 3.0377e-06)
(-4.4444e-05 2.5942e-06 2.5937e-06)
(-4.4439e-05 3.036e-06 2.0316e-06)
(-4.4436e-05 3.3436e-06 1.3861e-06)
(-4.4447e-05 3.5278e-06 7.006e-07)
(-4.4456e-05 3.5864e-06 -1.745e-10)
(-4.1946e-05 5.5991e-07 2.823e-06)
(-4.1939e-05 1.1066e-06 2.6701e-06)
(-4.194e-05 1.6238e-06 2.4244e-06)
(-4.1945e-05 2.0743e-06 2.0736e-06)
(-4.194e-05 2.4231e-06 1.6218e-06)
(-4.194e-05 2.6667e-06 1.1041e-06)
(-4.1946e-05 2.8178e-06 5.5791e-07)
(-4.1954e-05 2.8701e-06 -1.0351e-10)
(-3.9348e-05 4.4192e-07 2.2504e-06)
(-3.9349e-05 8.7714e-07 2.1215e-06)
(-3.9344e-05 1.2943e-06 1.9283e-06)
(-3.9342e-05 1.6584e-06 1.6575e-06)
(-3.9344e-05 1.9274e-06 1.2923e-06)
(-3.9349e-05 2.119e-06 8.7477e-07)
(-3.9348e-05 2.2465e-06 4.3996e-07)
(-3.9348e-05 2.2984e-06 -4.804e-13)
(-5.8573e-05 2.6582e-05 -5.2645e-06)
(-5.853e-05 3.2628e-05 -6.4363e-06)
(-5.8586e-05 2.5104e-05 -1.0393e-05)
(-5.8559e-05 3.0753e-05 -1.2719e-05)
(-5.8569e-05 2.2705e-05 -1.5194e-05)
(-5.8532e-05 2.7817e-05 -1.863e-05)
(-5.8555e-05 1.938e-05 -1.938e-05)
(-5.8507e-05 2.3777e-05 -2.3777e-05)
(-5.8569e-05 1.5193e-05 -2.2705e-05)
(-5.8532e-05 1.863e-05 -2.7817e-05)
(-5.8586e-05 1.0392e-05 -2.5104e-05)
(-5.8559e-05 1.2718e-05 -3.0753e-05)
(-5.8573e-05 5.2641e-06 -2.6581e-05)
(-5.853e-05 6.4361e-06 -3.2629e-05)
(-5.8561e-05 1.0739e-09 -2.7087e-05)
(-5.8503e-05 7.5612e-10 -3.3301e-05)
(-5.8255e-05 2.1417e-05 -4.2609e-06)
(-5.8255e-05 2.0263e-05 -8.4057e-06)
(-5.8247e-05 1.8335e-05 -1.2257e-05)
(-5.8237e-05 1.5617e-05 -1.5617e-05)
(-5.8247e-05 1.2256e-05 -1.8335e-05)
(-5.8255e-05 8.4049e-06 -2.0263e-05)
(-5.8255e-05 4.2602e-06 -2.1416e-05)
(-5.825e-05 4.609e-10 -2.1781e-05)
(-5.7573e-05 1.7314e-05 -3.4351e-06)
(-5.7573e-05 1.6372e-05 -6.7802e-06)
(-5.7562e-05 1.4829e-05 -9.9206e-06)
(-5.7557e-05 1.2659e-05 -1.266e-05)
(-5.7562e-05 9.9197e-06 -1.4829e-05)
(-5.7573e-05 6.7792e-06 -1.6371e-05)
(-5.7573e-05 3.4343e-06 -1.7313e-05)
(-5.7573e-05 3.2459e-10 -1.7629e-05)
(-5.6494e-05 1.4066e-05 -2.7627e-06)
(-5.65e-05 1.3268e-05 -5.4827e-06)
(-5.6482e-05 1.2044e-05 -8.0758e-06)
(-5.6473e-05 1.0327e-05 -1.0328e-05)
(-5.6482e-05 8.0749e-06 -1.2044e-05)
(-5.65e-05 5.4817e-06 -1.3268e-05)
(-5.6495e-05 2.7618e-06 -1.4066e-05)
(-5.6491e-05 2.1774e-10 -1.4363e-05)
(-5.5001e-05 1.1428e-05 -2.2465e-06)
(-5.5e-05 1.0787e-05 -4.461e-06)
(-5.4988e-05 9.7913e-06 -6.566e-06)
(-5.4983e-05 8.3916e-06 -8.3922e-06)
(-5.4989e-05 6.5653e-06 -9.7918e-06)
(-5.5e-05 4.4603e-06 -1.0787e-05)
(-5.5001e-05 2.2459e-06 -1.1429e-05)
(-5.5002e-05 2.2065e-10 -1.1664e-05)
(-5.3203e-05 9.203e-06 -1.817e-06)
(-5.3197e-05 8.6897e-06 -3.6005e-06)
(-5.3192e-05 7.898e-06 -5.2928e-06)
(-5.3183e-05 6.7553e-06 -6.7559e-06)
(-5.3192e-05 5.2925e-06 -7.8989e-06)
(-5.3198e-05 3.6003e-06 -8.691e-06)
(-5.3203e-05 1.8167e-06 -9.2047e-06)
(-5.3201e-05 2.7148e-10 -9.3822e-06)
(-5.1208e-05 7.3321e-06 -1.4492e-06)
(-5.1207e-05 6.9295e-06 -2.8702e-06)
(-5.1199e-05 6.2919e-06 -4.2168e-06)
(-5.1196e-05 5.3869e-06 -5.3864e-06)
(-5.1199e-05 4.2169e-06 -6.293e-06)
(-5.1207e-05 2.8704e-06 -6.9312e-06)
(-5.1208e-05 1.4492e-06 -7.3342e-06)
(-5.1209e-05 -2.9828e-10 -7.4762e-06)
(-4.9082e-05 5.761e-06 -1.1309e-06)
(-4.9085e-05 5.4388e-06 -2.2484e-06)
(-4.9075e-05 4.9435e-06 -3.3171e-06)
(-4.907e-05 4.242e-06 -4.2422e-06)
(-4.9075e-05 3.3174e-06 -4.9444e-06)
(-4.9085e-05 2.2489e-06 -5.4403e-06)
(-4.9082e-05 1.1312e-06 -5.7627e-06)
(-4.9079e-05 4.2883e-10 -5.8817e-06)
(-4.6826e-05 4.501e-06 -8.8831e-07)
(-4.6819e-05 4.2584e-06 -1.762e-06)
(-4.6818e-05 3.8671e-06 -2.5906e-06)
(-4.6822e-05 3.3109e-06 -3.3109e-06)
(-4.6818e-05 2.591e-06 -3.8675e-06)
(-4.6819e-05 1.7625e-06 -4.2591e-06)
(-4.6825e-05 8.8869e-07 -4.5017e-06)
(-4.6832e-05 5.9955e-10 -4.5867e-06)
(-4.4447e-05 3.5262e-06 -7.0063e-07)
(-4.4436e-05 3.3406e-06 -1.3852e-06)
(-4.444e-05 3.0321e-06 -2.0292e-06)
(-4.4445e-05 2.59e-06 -2.5896e-06)
(-4.444e-05 2.0296e-06 -3.0317e-06)
(-4.4436e-05 1.3855e-06 -3.3401e-06)
(-4.4447e-05 7.0098e-07 -3.5253e-06)
(-4.4456e-05 7.8832e-10 -3.5846e-06)
(-4.1946e-05 2.8162e-06 -5.5774e-07)
(-4.194e-05 2.6636e-06 -1.1031e-06)
(-4.194e-05 2.419e-06 -1.6192e-06)
(-4.1945e-05 2.0698e-06 -2.069e-06)
(-4.194e-05 1.6195e-06 -2.4178e-06)
(-4.194e-05 1.1032e-06 -2.6619e-06)
(-4.1946e-05 5.5808e-07 -2.8136e-06)
(-4.1954e-05 1.0185e-09 -2.8663e-06)
(-3.9348e-05 2.2449e-06 -4.3971e-07)
(-3.9349e-05 2.1159e-06 -8.7366e-07)
(-3.9344e-05 1.9234e-06 -1.2897e-06)
(-3.9342e-05 1.6539e-06 -1.653e-06)
(-3.9344e-05 1.2899e-06 -1.9217e-06)
(-3.9349e-05 8.7368e-07 -2.1132e-06)
(-3.9348e-05 4.4002e-07 -2.2409e-06)
(-3.9348e-05 1.1109e-09 -2.293e-06)
(-5.8573e-05 -5.2625e-06 -2.6579e-05)
(-5.853e-05 -6.4343e-06 -3.2627e-05)
(-5.8587e-05 -1.0389e-05 -2.51e-05)
(-5.8559e-05 -1.2716e-05 -3.075e-05)
(-5.8569e-05 -1.5189e-05 -2.27e-05)
(-5.8532e-05 -1.8626e-05 -2.7813e-05)
(-5.8555e-05 -1.9375e-05 -1.9375e-05)
(-5.8507e-05 -2.3772e-05 -2.3773e-05)
(-5.8569e-05 -2.2699e-05 -1.519e-05)
(-5.8533e-05 -2.7811e-05 -1.8626e-05)
(-5.8587e-05 -2.5098e-05 -1.039e-05)
(-5.8559e-05 -3.0748e-05 -1.2716e-05)
(-5.8573e-05 -2.6577e-05 -5.2632e-06)
(-5.853e-05 -3.2624e-05 -6.435e-06)
(-5.8255e-05 -4.259e-06 -2.1414e-05)
(-5.8255e-05 -8.4028e-06 -2.0259e-05)
(-5.8247e-05 -1.2253e-05 -1.8331e-05)
(-5.8238e-05 -1.5612e-05 -1.5613e-05)
(-5.8247e-05 -1.8331e-05 -1.2254e-05)
(-5.8255e-05 -2.0259e-05 -8.4037e-06)
(-5.8255e-05 -2.1413e-05 -4.2598e-06)
(-5.7573e-05 -3.4334e-06 -1.7312e-05)
(-5.7573e-05 -6.7777e-06 -1.6369e-05)
(-5.7562e-05 -9.9176e-06 -1.4826e-05)
(-5.7557e-05 -1.2656e-05 -1.2657e-05)
(-5.7562e-05 -1.4826e-05 -9.9187e-06)
(-5.7573e-05 -1.6369e-05 -6.7789e-06)
(-5.7573e-05 -1.7312e-05 -3.4344e-06)
(-5.6495e-05 -2.7612e-06 -1.4065e-05)
(-5.65e-05 -5.4808e-06 -1.3267e-05)
(-5.6482e-05 -8.0739e-06 -1.2043e-05)
(-5.6473e-05 -1.0326e-05 -1.0327e-05)
(-5.6482e-05 -1.2043e-05 -8.0752e-06)
(-5.65e-05 -1.3268e-05 -5.4823e-06)
(-5.6494e-05 -1.4066e-05 -2.7625e-06)
(-5.5002e-05 -2.2455e-06 -1.1429e-05)
(-5.5e-05 -4.4598e-06 -1.0787e-05)
(-5.4989e-05 -6.5651e-06 -9.7919e-06)
(-5.4983e-05 -8.3918e-06 -8.3925e-06)
(-5.4989e-05 -9.792e-06 -6.5664e-06)
(-5.5e-05 -1.0788e-05 -4.4613e-06)
(-5.5001e-05 -1.1431e-05 -2.2467e-06)
(-5.3203e-05 -1.8162e-06 -9.2049e-06)
(-5.3198e-05 -3.5999e-06 -8.6913e-06)
(-5.3192e-05 -5.2925e-06 -7.8994e-06)
(-5.3183e-05 -6.7559e-06 -6.7567e-06)
(-5.3192e-05 -7.8993e-06 -5.2937e-06)
(-5.3197e-05 -8.6919e-06 -3.6012e-06)
(-5.3203e-05 -9.2062e-06 -1.8174e-06)
(-5.1208e-05 -1.4486e-06 -7.3343e-06)
(-5.1207e-05 -2.8699e-06 -6.9315e-06)
(-5.1199e-05 -4.2166e-06 -6.2934e-06)
(-5.1196e-05 -5.3862e-06 -5.3879e-06)
(-5.1199e-05 -6.2928e-06 -4.2175e-06)
(-5.1207e-05 -6.9312e-06 -2.8709e-06)
(-5.1208e-05 -7.3346e-06 -1.4495e-06)
(-4.9082e-05 -1.1303e-06 -5.7627e-06)
(-4.9085e-05 -2.248e-06 -5.4402e-06)
(-4.9075e-05 -3.3164e-06 -4.9442e-06)
(-4.907e-05 -4.2412e-06 -4.2421e-06)
(-4.9075e-05 -4.9431e-06 -3.3171e-06)
(-4.9085e-05 -5.4389e-06 -2.2487e-06)
(-4.9082e-05 -5.7614e-06 -1.131e-06)
(-4.6825e-05 -8.8743e-07 -4.5013e-06)
(-4.6819e-05 -1.761e-06 -4.2584e-06)
(-4.6818e-05 -2.5891e-06 -3.8665e-06)
(-4.6822e-05 -3.3088e-06 -3.3098e-06)
(-4.6818e-05 -3.8649e-06 -2.5897e-06)
(-4.6819e-05 -4.2561e-06 -1.7615e-06)
(-4.6825e-05 -4.4986e-06 -8.8796e-07)
(-4.4447e-05 -6.9926e-07 -3.5245e-06)
(-4.4436e-05 -1.3834e-06 -3.3387e-06)
(-4.4439e-05 -2.0268e-06 -3.0298e-06)
(-4.4445e-05 -2.5864e-06 -2.5875e-06)
(-4.4439e-05 -3.0278e-06 -2.0273e-06)
(-4.4436e-05 -3.3357e-06 -1.3837e-06)
(-4.4447e-05 -3.5209e-06 -6.9974e-07)
(-4.1946e-05 -5.5593e-07 -2.8124e-06)
(-4.194e-05 -1.1005e-06 -2.6598e-06)
(-4.194e-05 -1.6159e-06 -2.4151e-06)
(-4.1945e-05 -2.0649e-06 -2.0661e-06)
(-4.194e-05 -2.4129e-06 -1.6164e-06)
(-4.194e-05 -2.6565e-06 -1.1008e-06)
(-4.1946e-05 -2.8083e-06 -5.5642e-07)
(-3.9348e-05 -4.376e-07 -2.2396e-06)
(-3.9349e-05 -8.7061e-07 -2.1107e-06)
(-3.9344e-05 -1.2858e-06 -1.9185e-06)
(-3.9342e-05 -1.6483e-06 -1.6496e-06)
(-3.9344e-05 -1.9163e-06 -1.2864e-06)
(-3.9349e-05 -2.1075e-06 -8.7096e-07)
(-3.9348e-05 -2.2355e-06 -4.3817e-07)
)
;
    }
    procBoundary2to1
    {
        type            processor;
    }
    procBoundary2to3
    {
        type            processor;
    }
}


// ************************************************************************* //
