/*--------------------------------*- C++ -*----------------------------------*\
| =========                 |                                                 |
| \\      /  F ield         | foam-extend: Open Source CFD                    |
|  \\    /   O peration     | Version:     4.1-20200408                       |
|   \\  /    A nd           | Web:         http://www.foam-extend.org         |
|    \\/     M anipulation  |                                                 |
\*---------------------------------------------------------------------------*/
FoamFile
{
    version     2.0;
    format      ascii;
    class       volScalarField;
    location    "0.0200000";
    object      ccy;
}
// * * * * * * * * * * * * * * * * * * * * * * * * * * * * * * * * * * * * * //

dimensions      [0 1 0 0 0 0 0];

internalField   nonuniform List<scalar> 
1952
(
7.2616e-05
0.000118259
0.000164496
0.000210927
0.000257449
0.000304016
0.000350612
0.000397225
0.000443849
0.000490481
0.000537119
0.000583765
0.000630417
0.00067708
0.000723761
3.1121e-05
7.26074e-05
0.000118246
0.000164476
0.000210904
0.000257418
0.000303983
0.000350572
0.000397182
0.000443801
0.000490429
0.000537064
0.000583706
0.000630355
0.000677019
0.0007237
3.11177e-05
7.26004e-05
0.000118236
0.000164462
0.000210885
0.000257398
0.000303957
0.000350544
0.000397148
0.000443765
0.000490391
0.000537022
0.000583662
0.000630311
0.000676972
0.000723653
3.11155e-05
7.25962e-05
0.000118226
0.00016445
0.000210869
0.000257378
0.000303934
0.000350518
0.00039712
0.000443733
0.000490355
0.000536987
0.000583624
0.00063027
0.000676932
0.000723609
3.1112e-05
7.25904e-05
0.000118219
0.000164437
0.000210856
0.00025736
0.000303914
0.000350494
0.000397094
0.000443706
0.000490325
0.000536953
0.000583589
0.000630235
0.000676894
0.000723572
3.11104e-05
7.2585e-05
0.000118211
0.000164428
0.000210842
0.000257346
0.000303895
0.000350475
0.000397071
0.000443679
0.000490299
0.000536924
0.000583558
0.000630202
0.00067686
0.000723536
3.11089e-05
7.25824e-05
0.000118203
0.000164419
0.00021083
0.00025733
0.000303879
0.000350455
0.00039705
0.000443657
0.000490273
0.000536898
0.00058353
0.000630172
0.000676829
0.000723504
3.11061e-05
7.25772e-05
0.000118199
0.00016441
0.000210819
0.000257318
0.000303864
0.000350438
0.000397031
0.000443635
0.00049025
0.000536873
0.000583505
0.000630145
0.000676799
0.000723473
3.11056e-05
7.25752e-05
0.000118192
0.000164403
0.000210809
0.000257306
0.00030385
0.000350422
0.000397013
0.000443616
0.000490229
0.00053685
0.000583478
0.000630118
0.000676771
0.000723443
3.1103e-05
7.25705e-05
0.000118188
0.000164394
0.000210801
0.000257294
0.000303836
0.000350408
0.000396996
0.000443597
0.000490208
0.000536828
0.000583456
0.000630092
0.000676744
0.000723414
3.11027e-05
7.25689e-05
0.000118182
0.000164388
0.000210791
0.000257284
0.000303824
0.000350393
0.00039698
0.000443579
0.000490189
0.000536806
0.000583431
0.000630068
0.000676718
0.000723386
3.11003e-05
7.25653e-05
0.000118177
0.000164382
0.000210782
0.000257274
0.000303813
0.000350378
0.000396965
0.000443561
0.000490168
0.000536785
0.000583409
0.000630042
0.000676692
0.000723358
3.10996e-05
7.25625e-05
0.000118172
0.000164376
0.000210775
0.000257263
0.0003038
0.000350365
0.000396948
0.000443544
0.000490151
0.000536763
0.000583387
0.00063002
0.000676665
0.000723331
3.10984e-05
7.25591e-05
0.000118169
0.000164369
0.000210767
0.000257254
0.000303788
0.000350353
0.000396933
0.000443527
0.000490131
0.000536744
0.000583364
0.000629995
0.000676641
0.000723304
3.10978e-05
7.25579e-05
0.000118164
0.000164363
0.000210759
0.000257244
0.000303777
0.000350339
0.000396918
0.000443511
0.000490113
0.000536723
0.000583342
0.000629971
0.000676616
0.000723277
3.10956e-05
7.25545e-05
0.00011816
0.000164357
0.000210752
0.000257234
0.000303766
0.000350326
0.000396904
0.000443493
0.000490094
0.000536705
0.00058332
0.000629947
0.00067659
0.00072325
3.1095e-05
7.25519e-05
0.000118155
0.000164351
0.000210743
0.000257225
0.000303755
0.000350312
0.000396889
0.000443477
0.000490077
0.000536682
0.000583298
0.000629925
0.000676565
0.000723224
3.10938e-05
7.25492e-05
0.000118151
0.000164345
0.000210736
0.000257216
0.000303742
0.0003503
0.000396873
0.000443462
0.000490057
0.000536662
0.000583277
0.000629901
0.000676539
0.000723198
3.10927e-05
7.25466e-05
0.000118147
0.000164339
0.000210728
0.000257206
0.000303733
0.000350285
0.00039686
0.000443444
0.000490039
0.000536643
0.000583254
0.000629877
0.000676515
0.00072317
3.10916e-05
7.25439e-05
0.000118143
0.000164333
0.00021072
0.000257197
0.000303721
0.000350274
0.000396844
0.000443428
0.000490021
0.000536622
0.000583233
0.000629853
0.000676489
0.000723143
3.10909e-05
7.25413e-05
0.000118138
0.000164327
0.000210714
0.000257187
0.00030371
0.00035026
0.000396829
0.000443411
0.000490003
0.000536602
0.00058321
0.000629829
0.000676463
0.000723116
3.10893e-05
7.25387e-05
0.000118134
0.000164322
0.000210704
0.000257178
0.000303698
0.000350247
0.000396816
0.000443395
0.000489983
0.000536582
0.000583189
0.000629806
0.000676439
0.000723088
3.10882e-05
7.25361e-05
0.00011813
0.000164315
0.000210697
0.000257169
0.000303687
0.000350235
0.0003968
0.000443378
0.000489966
0.000536562
0.000583166
0.000629782
0.000676411
0.000723061
3.10871e-05
7.25335e-05
0.000118126
0.000164309
0.00021069
0.000257158
0.000303677
0.000350222
0.000396785
0.000443361
0.000489947
0.000536542
0.000583144
0.000629757
0.000676386
0.000723035
3.1086e-05
7.25309e-05
0.000118122
0.000164303
0.000210682
0.000257151
0.000303665
0.000350208
0.000396771
0.000443345
0.000489929
0.000536521
0.000583122
0.000629734
0.000676362
0.000723006
3.10849e-05
7.25284e-05
0.000118117
0.000164298
0.000210674
0.000257141
0.000303654
0.000350196
0.000396757
0.000443327
0.000489911
0.000536501
0.0005831
0.000629711
0.000676335
0.000722978
3.10838e-05
7.25258e-05
0.000118113
0.000164292
0.000210668
0.000257132
0.000303643
0.000350183
0.000396742
0.000443312
0.000489892
0.000536481
0.000583079
0.000629685
0.00067631
0.000722952
3.10827e-05
7.25233e-05
0.000118109
0.000164286
0.00021066
0.000257123
0.000303633
0.00035017
0.000396727
0.000443296
0.000489873
0.000536461
0.000583055
0.000629663
0.000676284
0.000722925
3.10816e-05
7.25208e-05
0.000118105
0.00016428
0.000210653
0.000257113
0.000303622
0.000350158
0.000396713
0.000443279
0.000489856
0.00053644
0.000583035
0.000629639
0.000676259
0.000722897
3.10805e-05
7.25182e-05
0.0001181
0.000164274
0.000210645
0.000257105
0.000303611
0.000350146
0.000396697
0.000443264
0.000489837
0.00053642
0.000583012
0.000629616
0.000676233
0.00072287
3.10795e-05
7.25165e-05
0.000118096
0.000164269
0.000210638
0.000257095
0.0003036
0.000350134
0.000396684
0.000443247
0.00048982
0.000536402
0.000582991
0.000629592
0.000676208
0.000722843
3.10779e-05
7.25132e-05
0.000118092
0.000164264
0.00021063
0.000257086
0.000303589
0.00035012
0.000396669
0.000443232
0.000489802
0.000536381
0.00058297
0.000629568
0.000676182
0.000722815
3.10778e-05
7.25098e-05
0.000118089
0.000164257
0.000210622
0.000257077
0.000303579
0.000350107
0.000396656
0.000443214
0.000489783
0.000536361
0.000582947
0.000629544
0.000676156
0.000722787
3.10762e-05
7.25085e-05
0.000118084
0.00016425
0.000210615
0.000257068
0.000303567
0.000350094
0.00039664
0.000443197
0.000489766
0.00053634
0.000582925
0.00062952
0.000676129
0.000722757
3.1075e-05
7.25049e-05
0.000118078
0.000164245
0.000210606
0.000257057
0.000303555
0.000350082
0.000396624
0.000443181
0.000489745
0.000536319
0.000582902
0.000629494
0.000676102
0.000722729
3.10738e-05
7.25018e-05
0.000118075
0.000164237
0.000210597
0.000257046
0.000303543
0.000350066
0.000396609
0.000443162
0.000489725
0.000536297
0.000582877
0.000629467
0.000676072
0.000722697
3.10724e-05
7.24983e-05
0.000118068
0.00016423
0.000210588
0.000257035
0.000303528
0.00035005
0.00039659
0.000443143
0.000489704
0.000536273
0.00058285
0.000629439
0.000676042
0.000722665
3.10704e-05
7.24944e-05
0.000118062
0.00016422
0.000210577
0.000257021
0.000303512
0.000350033
0.000396571
0.00044312
0.000489679
0.000536247
0.000582824
0.000629409
0.000676011
0.00072263
3.10697e-05
7.24898e-05
0.000118055
0.000164212
0.000210564
0.000257006
0.000303495
0.000350012
0.000396548
0.000443096
0.000489654
0.000536219
0.000582792
0.000629377
0.000675975
0.000722594
3.10673e-05
7.24846e-05
0.000118046
0.000164199
0.000210549
0.000256988
0.000303474
0.000349989
0.000396523
0.000443068
0.000489623
0.000536186
0.000582759
0.000629341
0.000675938
0.000722553
3.1065e-05
7.24783e-05
0.000118036
0.000164185
0.000210531
0.000256967
0.00030345
0.000349962
0.000396493
0.000443036
0.000489589
0.000536151
0.000582721
0.000629301
0.000675897
0.00072251
3.10623e-05
7.24707e-05
0.000118024
0.000164168
0.00021051
0.000256942
0.000303422
0.00034993
0.000396458
0.000442999
0.00048955
0.000536109
0.000582678
0.000629256
0.00067585
0.000722461
3.1059e-05
7.24617e-05
0.000118009
0.000164148
0.000210485
0.000256912
0.000303388
0.000349892
0.000396417
0.000442955
0.000489504
0.000536061
0.000582628
0.000629205
0.000675796
0.000722406
3.10552e-05
7.2451e-05
0.000117992
0.000164125
0.000210456
0.000256877
0.000303347
0.000349847
0.000396368
0.000442903
0.000489449
0.000536004
0.000582569
0.000629145
0.000675735
0.000722342
3.10505e-05
7.24382e-05
0.000117971
0.000164097
0.00021042
0.000256834
0.000303298
0.000349793
0.000396309
0.00044284
0.000489383
0.000535936
0.0005825
0.000629074
0.000675663
0.000722268
3.1045e-05
7.24232e-05
0.000117947
0.000164063
0.000210378
0.000256784
0.000303241
0.000349728
0.000396239
0.000442765
0.000489304
0.000535855
0.000582416
0.00062899
0.000675577
0.000722181
3.10386e-05
7.24058e-05
0.000117919
0.000164024
0.000210328
0.000256725
0.000303172
0.000349652
0.000396155
0.000442675
0.000489209
0.000535756
0.000582315
0.000628887
0.000675475
0.000722078
3.10311e-05
7.23858e-05
0.000117886
0.000163979
0.000210271
0.000256656
0.000303093
0.000349562
0.000396056
0.000442568
0.000489095
0.000535637
0.000582192
0.000628762
0.000675349
0.000721953
3.10225e-05
7.23632e-05
0.00011785
0.000163929
0.000210207
0.000256578
0.000303001
0.000349458
0.00039594
0.000442441
0.000488959
0.000535493
0.000582042
0.000628608
0.000675192
0.000721794
3.10128e-05
7.23383e-05
0.000117809
0.000163872
0.000210135
0.000256491
0.000302899
0.000349341
0.000395808
0.000442295
0.0004888
0.000535323
0.000581862
0.000628419
0.000674996
0.000721592
3.10021e-05
7.23114e-05
0.000117765
0.000163811
0.000210056
0.000256395
0.000302786
0.00034921
0.00039566
0.000442131
0.00048862
0.000535127
0.000581651
0.000628195
0.000674759
0.000721344
3.09907e-05
7.22832e-05
0.000117719
0.000163747
0.000209974
0.000256293
0.000302664
0.000349069
0.0003955
0.000441951
0.00048842
0.000534908
0.000581414
0.00062794
0.000674488
0.000721058
3.09785e-05
7.22547e-05
0.000117672
0.000163681
0.000209889
0.000256188
0.000302539
0.000348923
0.000395332
0.000441761
0.000488208
0.000534673
0.000581157
0.000627661
0.00067419
0.000720743
3.09663e-05
7.22267e-05
0.000117627
0.000163617
0.000209805
0.000256085
0.000302415
0.000348777
0.000395163
0.000441567
0.00048799
0.000534429
0.000580889
0.00062737
0.000673876
0.000720411
3.09544e-05
7.22008e-05
0.000117584
0.000163557
0.000209727
0.000255987
0.000302297
0.000348637
0.000395
0.00044138
0.000487776
0.00053419
0.000580622
0.000627077
0.00067356
0.000720074
3.09434e-05
7.21782e-05
0.000117547
0.000163505
0.000209659
0.000255901
0.000302192
0.000348512
0.000394853
0.000441209
0.00048758
0.000533967
0.000580371
0.000626798
0.000673255
0.000719748
3.09337e-05
7.21607e-05
0.000117518
0.000163464
0.000209604
0.000255833
0.000302108
0.000348411
0.000394733
0.000441068
0.000487416
0.000533776
0.000580154
0.000626553
0.000672983
0.000719451
3.09263e-05
7.21493e-05
0.000117499
0.000163437
0.000209568
0.000255787
0.000302051
0.000348342
0.000394649
0.000440968
0.000487297
0.000533637
0.000579991
0.000626364
0.000672767
0.000719211
3.09214e-05
7.21452e-05
0.000117492
0.000163426
0.000209555
0.000255769
0.000302027
0.000348311
0.000394612
0.000440921
0.00048724
0.000533566
0.000579905
0.000626261
0.000672646
0.000719072
3.09197e-05
7.21492e-05
0.000117499
0.000163436
0.000209566
0.000255782
0.000302043
0.000348329
0.000394629
0.00044094
0.000487258
0.000533585
0.000579923
0.000626278
0.000672663
0.00071909
3.09214e-05
7.21618e-05
0.00011752
0.000163465
0.000209604
0.00025583
0.000302101
0.000348397
0.000394709
0.000441032
0.000487364
0.000533706
0.000580062
0.000626437
0.000672844
0.000719292
3.09268e-05
7.21832e-05
0.000117555
0.000163515
0.00020967
0.000255912
0.000302202
0.000348518
0.000394853
0.000441201
0.00048756
0.000533933
0.000580323
0.000626734
0.000673177
0.000719654
3.09359e-05
7.22126e-05
0.000117603
0.000163584
0.00020976
0.000256027
0.000302342
0.000348688
0.000395054
0.000441437
0.000487836
0.000534252
0.000580686
0.000627142
0.000673625
0.000720132
3.09485e-05
7.2249e-05
0.000117663
0.000163669
0.000209872
0.000256168
0.000302514
0.000348895
0.0003953
0.000441725
0.00048817
0.000534635
0.000581119
0.000627624
0.000674147
0.000720682
3.0964e-05
7.22909e-05
0.000117732
0.000163766
0.00021
0.000256328
0.000302709
0.000349127
0.000395573
0.000442043
0.000488536
0.00053505
0.000581584
0.000628136
0.000674697
0.000721259
3.09817e-05
7.23367e-05
0.000117807
0.000163872
0.000210138
0.000256499
0.000302915
0.000349371
0.000395857
0.000442369
0.000488907
0.000535466
0.000582045
0.000628637
0.000675234
0.000721822
3.10014e-05
7.23847e-05
0.000117885
0.000163981
0.000210279
0.000256674
0.000303126
0.000349617
0.000396139
0.000442689
0.000489263
0.000535859
0.000582472
0.000629095
0.00067572
0.000722334
3.10219e-05
7.24337e-05
0.000117965
0.000164092
0.000210421
0.000256848
0.000303332
0.000349856
0.000396411
0.000442992
0.000489593
0.000536215
0.000582849
0.000629491
0.000676135
0.000722771
3.10429e-05
7.24815e-05
0.000118043
0.0001642
0.000210559
0.000257016
0.000303528
0.000350081
0.000396663
0.000443267
0.00048989
0.000536527
0.000583175
0.000629829
0.000676484
0.000723133
3.10633e-05
7.25258e-05
0.000118115
0.000164301
0.000210687
0.00025717
0.000303708
0.000350283
0.000396885
0.000443508
0.000490147
0.000536797
0.000583456
0.00063012
0.000676783
0.00072344
3.10823e-05
7.25648e-05
0.000118179
0.000164388
0.000210799
0.000257304
0.000303863
0.000350458
0.000397078
0.000443716
0.000490368
0.000537031
0.0005837
0.000630372
0.000677042
0.000723707
3.1099e-05
7.25989e-05
0.000118234
0.000164464
0.000210895
0.00025742
0.000303998
0.000350609
0.000397244
0.000443896
0.00049056
0.000537233
0.00058391
0.00063059
0.000677268
0.00072394
3.11138e-05
7.26287e-05
0.000118282
0.00016453
0.000210979
0.000257521
0.000304114
0.00035074
0.000397388
0.000444051
0.000490725
0.000537407
0.000584092
0.000630779
0.000677464
0.000724144
3.11266e-05
7.26546e-05
0.000118324
0.000164588
0.000211052
0.000257608
0.000304214
0.000350852
0.000397511
0.000444185
0.000490867
0.000537557
0.000584249
0.000630943
0.000677635
0.000724322
3.11377e-05
7.26769e-05
0.00011836
0.000164637
0.000211114
0.000257682
0.0003043
0.000350949
0.000397617
0.000444299
0.00049099
0.000537687
0.000584386
0.000631086
0.000677785
0.00072448
3.11473e-05
7.26959e-05
0.000118391
0.000164679
0.000211167
0.000257746
0.000304374
0.000351032
0.000397709
0.000444398
0.000491096
0.000537799
0.000584504
0.000631211
0.000677916
0.000724618
3.11554e-05
7.27121e-05
0.000118417
0.000164716
0.000211213
0.0002578
0.000304437
0.000351102
0.000397787
0.000444483
0.000491187
0.000537896
0.000584607
0.00063132
0.000678031
0.00072474
3.11625e-05
7.27259e-05
0.000118439
0.000164747
0.000211252
0.000257847
0.000304491
0.000351163
0.000397854
0.000444556
0.000491266
0.00053798
0.000584698
0.000631416
0.000678133
0.000724849
3.11684e-05
7.27377e-05
0.000118458
0.000164773
0.000211285
0.000257887
0.000304537
0.000351215
0.000397912
0.000444619
0.000491334
0.000538054
0.000584777
0.0006315
0.000678224
0.000724945
3.11733e-05
7.27478e-05
0.000118475
0.000164796
0.000211313
0.000257922
0.000304576
0.00035126
0.000397962
0.000444675
0.000491394
0.000538119
0.000584847
0.000631576
0.000678304
0.000725032
3.1178e-05
7.27563e-05
0.000118489
0.000164815
0.000211338
0.00025795
0.000304612
0.0003513
0.000398004
0.000444723
0.000491448
0.000538177
0.000584909
0.000631642
0.000678376
0.00072511
3.11814e-05
7.27637e-05
0.000118501
0.000164831
0.000211359
0.000257977
0.000304641
0.000351333
0.000398044
0.000444765
0.000491494
0.000538228
0.000584964
0.000631703
0.000678442
0.00072518
3.11846e-05
7.27702e-05
0.000118512
0.000164846
0.000211377
0.000257998
0.000304668
0.000351363
0.000398078
0.000444802
0.000491536
0.000538273
0.000585014
0.000631756
0.0006785
0.000725243
3.11874e-05
7.27758e-05
0.00011852
0.000164858
0.000211394
0.000258018
0.00030469
0.00035139
0.000398108
0.000444837
0.000491572
0.000538315
0.000585058
0.000631805
0.000678553
0.000725301
3.11898e-05
7.27808e-05
0.000118528
0.00016487
0.000211408
0.000258036
0.00030471
0.000351415
0.000398135
0.000444867
0.000491606
0.000538351
0.0005851
0.00063185
0.000678602
0.000725353
3.11919e-05
7.27859e-05
0.000118536
0.00016488
0.000211421
0.000258051
0.000304729
0.000351436
0.000398159
0.000444894
0.000491638
0.000538385
0.000585137
0.000631892
0.000678648
0.000725402
3.11933e-05
7.27892e-05
0.000118542
0.000164889
0.000211433
0.000258066
0.000304746
0.000351455
0.000398183
0.00044492
0.000491666
0.000538417
0.000585172
0.000631929
0.000678688
0.000725448
3.11955e-05
7.27921e-05
0.000118548
0.000164897
0.000211443
0.000258079
0.000304763
0.000351473
0.000398203
0.000444943
0.000491692
0.000538446
0.000585204
0.000631964
0.000678727
0.00072549
3.11976e-05
7.27961e-05
0.000118554
0.000164904
0.000211453
0.000258091
0.000304777
0.00035149
0.000398221
0.000444966
0.000491716
0.000538473
0.000585234
0.000631997
0.000678763
0.000725529
3.11985e-05
7.28e-05
0.000118558
0.000164912
0.000211462
0.000258102
0.00030479
0.000351506
0.000398239
0.000444984
0.000491739
0.000538499
0.000585261
0.000632029
0.000678797
0.000725566
3.11998e-05
7.28021e-05
0.000118563
0.000164918
0.00021147
0.000258113
0.000304801
0.000351521
0.000398256
0.000445005
0.00049176
0.000538521
0.000585289
0.000632057
0.000678829
0.000725601
3.12011e-05
7.28041e-05
0.000118568
0.000164924
0.000211479
0.000258122
0.000304814
0.000351534
0.000398272
0.000445022
0.00049178
0.000538545
0.000585313
0.000632085
0.000678859
0.000725632
3.12022e-05
7.28082e-05
0.000118572
0.00016493
0.000211486
0.000258132
0.000304826
0.000351546
0.000398288
0.000445039
0.0004918
0.000538566
0.000585337
0.00063211
0.000678886
0.000725665
3.12028e-05
7.28099e-05
0.000118575
0.000164936
0.000211494
0.000258141
0.000304835
0.00035156
0.000398302
0.000445056
0.000491819
0.000538587
0.000585358
0.000632135
0.000678916
0.000725693
3.12049e-05
7.28115e-05
0.00011858
0.000164941
0.0002115
0.000258149
0.000304847
0.000351571
0.000398315
0.000445072
0.000491835
0.000538606
0.000585381
0.00063216
0.000678939
0.000725722
3.12054e-05
7.28153e-05
0.000118583
0.000164947
0.000211506
0.000258158
0.000304856
0.000351583
0.000398329
0.000445086
0.000491852
0.000538625
0.000585402
0.000632181
0.000678964
0.000725749
3.12064e-05
7.2816e-05
0.000118588
0.000164952
0.000211514
0.000258165
0.000304866
0.000351595
0.000398341
0.0004451
0.000491868
0.000538643
0.000585421
0.000632203
0.000678988
0.000725773
3.12073e-05
7.28196e-05
0.00011859
0.000164956
0.00021152
0.000258174
0.000304875
0.000351604
0.000398353
0.000445115
0.000491884
0.00053866
0.00058544
0.000632224
0.000679011
0.000725797
3.12082e-05
7.28209e-05
0.000118595
0.000164961
0.000211526
0.00025818
0.000304885
0.000351615
0.000398365
0.000445128
0.000491899
0.000538676
0.000585458
0.000632244
0.000679031
0.000725821
3.12091e-05
7.28229e-05
0.000118597
0.000164966
0.000211532
0.000258189
0.000304891
0.000351625
0.000398377
0.000445141
0.000491913
0.000538692
0.000585476
0.000632262
0.000679054
0.000725843
3.121e-05
7.28249e-05
0.000118599
0.00016497
0.000211538
0.000258194
0.000304901
0.000351635
0.000398387
0.000445154
0.000491927
0.000538708
0.000585493
0.000632282
0.000679072
0.000725865
3.12108e-05
7.2826e-05
0.000118604
0.000164974
0.000211543
0.000258202
0.000304909
0.000351644
0.000398399
0.000445165
0.000491941
0.000538722
0.000585509
0.000632299
0.000679093
0.000725885
3.12116e-05
7.28294e-05
0.000118605
0.000164978
0.000211548
0.000258208
0.000304916
0.000351653
0.00039841
0.000445176
0.000491954
0.000538737
0.000585525
0.000632316
0.00067911
0.000725905
3.12124e-05
7.28304e-05
0.00011861
0.000164982
0.000211553
0.000258215
0.000304924
0.000351662
0.000398419
0.000445188
0.000491966
0.000538751
0.00058554
0.000632332
0.000679128
0.000725925
3.12132e-05
7.28321e-05
0.000118612
0.000164987
0.00021156
0.00025822
0.000304931
0.000351671
0.000398429
0.000445199
0.000491978
0.000538764
0.000585554
0.000632349
0.000679145
0.000725942
3.12139e-05
7.28338e-05
0.000118614
0.00016499
0.000211564
0.000258228
0.000304938
0.00035168
0.000398438
0.000445209
0.00049199
0.000538777
0.000585569
0.000632363
0.000679161
0.00072596
3.12146e-05
7.28354e-05
0.000118618
0.000164994
0.000211568
0.000258233
0.000304945
0.000351686
0.000398447
0.000445219
0.000492001
0.000538789
0.000585582
0.000632378
0.000679177
0.000725978
3.12153e-05
7.28369e-05
0.00011862
0.000164997
0.000211573
0.000258238
0.000304952
0.000351694
0.000398455
0.00044523
0.000492011
0.000538802
0.000585595
0.000632391
0.000679193
0.000725994
3.1216e-05
7.28383e-05
0.000118622
0.000165001
0.000211576
0.000258243
0.000304959
0.000351702
0.000398464
0.000445238
0.000492023
0.000538812
0.000585608
0.000632406
0.000679208
0.000726009
3.12166e-05
7.28397e-05
0.000118624
0.000165004
0.000211581
0.000258248
0.000304964
0.000351709
0.000398472
0.000445247
0.000492032
0.000538824
0.000585618
0.000632419
0.00067922
0.000726025
3.12172e-05
7.2841e-05
0.000118626
0.000165007
0.000211586
0.000258253
0.00030497
0.000351714
0.000398479
0.000445257
0.000492041
0.000538833
0.000585631
0.000632431
0.000679234
0.000726038
3.12177e-05
7.28422e-05
0.000118628
0.00016501
0.000211589
0.000258258
0.000304974
0.000351722
0.000398486
0.000445264
0.00049205
0.000538844
0.000585641
0.000632443
0.000679247
0.000726052
3.12182e-05
7.28433e-05
0.00011863
0.000165012
0.000211592
0.000258262
0.00030498
0.000351726
0.000398493
0.000445271
0.000492058
0.000538853
0.000585651
0.000632453
0.00067926
0.000726064
3.12187e-05
7.28443e-05
0.000118632
0.000165014
0.000211595
0.000258265
0.000304984
0.000351733
0.000398498
0.000445278
0.000492066
0.000538861
0.00058566
0.000632465
0.000679269
0.000726077
3.12191e-05
7.28452e-05
0.000118633
0.000165016
0.000211597
0.000258269
0.000304988
0.000351736
0.000398503
0.000445284
0.000492073
0.000538868
0.000585668
0.000632473
0.000679281
0.000726087
3.12195e-05
7.28459e-05
0.000118634
0.000165018
0.0002116
0.000258271
0.000304991
0.00035174
0.000398508
0.000445289
0.000492078
0.000538875
0.000585676
0.000632481
0.000679289
0.000726097
3.12198e-05
7.28465e-05
0.000118636
0.000165019
0.000211601
0.000258273
0.000304994
0.000351743
0.000398512
0.000445293
0.000492083
0.00053888
0.000585682
0.000632488
0.000679296
0.000726106
3.12201e-05
7.2847e-05
0.000118636
0.00016502
0.000211603
0.000258275
0.000304996
0.000351745
0.000398514
0.000445296
0.000492087
0.000538884
0.000585687
0.000632494
0.000679303
0.000726114
3.12203e-05
7.28473e-05
0.000118638
0.000165021
0.000211604
0.000258276
0.000304997
0.000351747
0.000398516
0.000445298
0.000492089
0.000538887
0.00058569
0.000632497
0.000679307
0.000726118
3.12204e-05
7.28474e-05
0.000118637
0.000165022
0.000211604
0.000258277
0.000304997
0.000351748
0.000398517
0.000445299
0.00049209
0.000538889
0.000585692
0.000632499
0.000679309
0.000726121
3.12205e-05
7.28475e-05
0.000118637
0.000165022
0.000211604
0.000258277
0.000304998
0.000351748
0.000398518
0.0004453
0.000492091
0.000538889
0.000585692
0.000632499
0.00067931
0.000726122
3.12205e-05
7.28475e-05
0.000118637
0.000165022
0.000211604
0.000258277
0.000304998
0.000351748
0.000398518
0.0004453
0.000492091
0.000538889
0.000585692
0.000632499
0.00067931
0.000726122
3.12205e-05
)
;

boundaryField
{
    wireUpstream
    {
        type            calculated;
        value           nonuniform List<scalar> 
16
(
7.28475e-05
0.000118637
0.000165022
0.000211604
0.000258277
0.000304998
0.000351748
0.000398518
0.0004453
0.000492091
0.000538889
0.000585692
0.000632499
0.00067931
0.000726122
3.12205e-05
)
;
    }
    wireDownstream
    {
        type            calculated;
        value           nonuniform List<scalar> 
16
(
7.26177e-05
0.000118263
0.0001645
0.000210933
0.000257456
0.000304025
0.000350622
0.000397236
0.000443861
0.000490495
0.000537135
0.000583782
0.000630437
0.000677103
0.000723786
3.11221e-05
)
;
    }
    wireTopContact
    {
        type            calculated;
        value           nonuniform List<scalar> 
122
(
0.000746803
0.000746754
0.000746711
0.000746672
0.000746636
0.000746602
0.000746571
0.00074654
0.00074651
0.000746481
0.000746453
0.000746425
0.000746397
0.000746369
0.000746342
0.000746314
0.000746287
0.000746259
0.000746231
0.000746203
0.000746175
0.000746147
0.000746119
0.000746091
0.000746062
0.000746034
0.000746006
0.000745978
0.00074595
0.000745922
0.000745893
0.000745864
0.000745834
0.000745803
0.000745771
0.000745738
0.000745702
0.000745664
0.000745623
0.000745578
0.000745528
0.000745471
0.000745406
0.000745331
0.000745243
0.000745139
0.000745013
0.000744853
0.000744648
0.000744396
0.000744103
0.000743782
0.000743442
0.000743097
0.000742762
0.000742457
0.000742208
0.000742063
0.000742084
0.000742293
0.000742665
0.000743153
0.00074371
0.000744295
0.000744867
0.00074539
0.000745838
0.000746209
0.000746522
0.000746793
0.00074703
0.000747238
0.000747421
0.000747582
0.000747724
0.00074785
0.000747962
0.000748062
0.000748152
0.000748232
0.000748305
0.000748371
0.000748431
0.000748486
0.000748537
0.000748584
0.000748628
0.000748669
0.000748707
0.000748743
0.000748777
0.000748809
0.00074884
0.000748869
0.000748897
0.000748923
0.000748948
0.000748972
0.000748995
0.000749017
0.000749039
0.000749059
0.000749079
0.000749098
0.000749116
0.000749134
0.000749151
0.000749167
0.000749183
0.000749197
0.000749211
0.000749224
0.000749236
0.000749248
0.000749258
0.000749267
0.000749275
0.00074928
0.000749283
0.000749284
0.000749284
0.000746858
)
;
    }
    front
    {
        type            wedge;
    }
    back
    {
        type            wedge;
    }
}


// ************************************************************************* //
