/*--------------------------------*- C++ -*----------------------------------*\
| =========                 |                                                 |
| \\      /  F ield         | foam-extend: Open Source CFD                    |
|  \\    /   O peration     | Version:     4.1-20200408                       |
|   \\  /    A nd           | Web:         http://www.foam-extend.org         |
|    \\/     M anipulation  |                                                 |
\*---------------------------------------------------------------------------*/
FoamFile
{
    version     2.0;
    format      ascii;
    class       volScalarField;
    location    "0.0200000";
    object      ccz;
}
// * * * * * * * * * * * * * * * * * * * * * * * * * * * * * * * * * * * * * //

dimensions      [0 1 0 0 0 0 0];

internalField   nonuniform List<scalar> 
1952
(
1.11107e-12
5.33361e-12
-4.76739e-13
-1.77789e-11
7.59734e-13
2.5e-11
1.22204e-11
-1.27475e-11
4.43494e-13
1.22994e-11
-3.70474e-22
0
1.26567e-11
1.2354e-11
2.73464e-22
1.64355e-12
-1.38882e-12
2.83339e-12
-2.97613e-12
-6.0185e-12
2.57575e-11
3.71792e-11
1.2222e-11
-1.27449e-11
4.38553e-13
2.49995e-11
1.23182e-11
-1.61296e-21
9.33379e-23
-4.34404e-22
-8.12711e-23
-2.31503e-14
-2.77817e-13
2.83329e-12
-2.97655e-12
-1.89811e-11
1.36366e-11
5e-11
2.44445e-11
-1.27457e-11
1.31577e-11
3.73018e-11
1.23195e-11
-1.2667e-11
3.07816e-13
1.23562e-11
-2.43824e-22
1.64349e-12
2.22223e-12
4.00002e-12
-2.97614e-12
-1.89817e-11
7.58398e-13
3.78207e-11
2.44445e-11
-1.03787e-21
2.54386e-11
2.46032e-11
-2.73987e-22
-1.26664e-11
3.0866e-13
2.5e-11
1.23654e-11
3.31018e-12
-2.77822e-13
1.50001e-12
-4.16638e-12
-1.89816e-11
7.56709e-13
3.78203e-11
2.44445e-11
-7.41376e-23
1.27194e-11
1.23017e-11
-1.26806e-11
-2.49998e-11
-1.23456e-11
2.52866e-11
2.47302e-11
1.64351e-12
-1.66655e-12
1.66665e-12
-2.97651e-12
-1.89814e-11
7.5839e-13
2.50001e-11
-5.55209e-13
-1.22552e-11
1.27192e-11
1.23015e-11
-2.53631e-11
-3.73334e-11
3.08572e-13
2.5e-11
1.2366e-11
1.64353e-12
-1.66665e-12
3e-12
-1.78571e-12
-1.89816e-11
-1.21216e-11
1.28204e-11
-5.55619e-13
-2.5e-11
1.3158e-11
3.73015e-11
-1.30422e-11
-2.46667e-11
1.26544e-11
1.23559e-11
-1.30033e-21
1.6435e-12
-2.77792e-13
4.16666e-12
-1.78569e-12
-1.89814e-11
-1.21209e-11
2.5641e-11
2.44445e-11
-1.27448e-11
1.31578e-11
3.73016e-11
-3.62307e-13
-1.23334e-11
-1.02707e-21
-1.99891e-21
-2.43842e-22
1.64353e-12
8.33349e-13
4.16667e-12
-1.7857e-12
-1.89816e-11
-1.21216e-11
1.28205e-11
1.22224e-11
-1.27454e-11
1.31567e-11
2.46024e-11
4.38423e-22
-1.00841e-21
4.66865e-22
-1.4775e-21
-3.25135e-22
3.31019e-12
-1.66665e-12
3e-12
-4.76179e-13
-1.77779e-11
-1.21213e-11
8.24212e-22
-5.88287e-22
-1.27451e-11
1.31591e-11
3.73019e-11
1.23188e-11
-2.01686e-22
1.96069e-21
-5.21482e-22
9.75431e-22
1.6435e-12
-2.77785e-12
3e-12
-4.76179e-13
-4.81498e-12
-4.01096e-22
-4.36361e-22
-1.26064e-22
-1.27446e-11
4.3873e-13
2.5e-11
1.23189e-11
-5.04279e-22
1.26547e-11
1.23566e-11
-1.62559e-22
-2.31461e-14
-2.77784e-13
4.16666e-12
-4.7618e-13
-4.81482e-12
-2.5788e-22
2.42455e-22
5.04314e-22
-2.54902e-11
-1.18422e-11
1.23016e-11
2.19271e-22
5.04296e-22
1.26544e-11
2.5e-11
1.23655e-11
1.64351e-12
-2.77683e-13
4.16667e-12
-1.7857e-12
-6.01851e-12
1.28788e-11
2.5e-11
1.22222e-11
-2.54902e-11
-1.18421e-11
2.5e-11
1.23188e-11
-7.05961e-22
1.26543e-11
2.5e-11
1.2366e-11
1.64356e-12
-2.77863e-13
4.16666e-12
-1.78571e-12
-6.01852e-12
1.28789e-11
2.50001e-11
1.22223e-11
-2.5491e-11
-2.45623e-11
1.26985e-11
1.23189e-11
-1.00854e-22
2.53078e-11
3.73562e-11
1.23655e-11
1.64349e-12
2.22231e-12
5.3335e-12
-1.78533e-12
-6.01831e-12
1.14621e-22
1.28205e-11
-5.55521e-13
-3.77447e-11
-1.18397e-11
1.2302e-11
-1.26811e-11
-1.23333e-11
1.26544e-11
2.50002e-11
1.23655e-11
3.31019e-12
2.22223e-12
5.33317e-12
-1.78608e-12
-6.01853e-12
1.28788e-11
2.5e-11
-5.55527e-13
-3.77451e-11
8.75496e-13
2.46024e-11
-1.26812e-11
-1.23334e-11
4.66902e-22
1.26433e-11
1.2365e-11
3.31025e-12
-2.77767e-13
4.16667e-12
-4.76179e-13
-4.81482e-12
2.57567e-11
3.71791e-11
1.22222e-11
-2.54902e-11
8.77168e-13
2.46032e-11
-7.67532e-22
5.04357e-22
1.26543e-11
2.5e-11
1.23656e-11
1.64353e-12
-2.77777e-12
3.00025e-12
-4.76179e-13
-4.81498e-12
1.28792e-11
2.50001e-11
-5.55396e-13
-2.5e-11
1.31578e-11
3.73015e-11
-3.62297e-13
-1.23333e-11
2.53087e-11
2.47117e-11
0
-2.31429e-14
-1.38889e-12
4.16646e-12
-4.76179e-13
-4.81465e-12
5.73145e-23
-3.39487e-22
-1.27778e-11
-1.2255e-11
1.27194e-11
2.5e-11
-3.62302e-13
-1.23334e-11
1.26544e-11
1.23563e-11
-4.06521e-22
-2.31407e-14
-1.14819e-23
5.3335e-12
-4.76179e-13
-4.81482e-12
-3.43929e-22
1.28209e-11
1.22222e-11
-1.0014e-21
6.6372e-22
1.26983e-11
1.23188e-11
-4.03516e-22
5.60389e-22
-4.3468e-22
-3.25224e-22
-2.31417e-14
1.7283e-22
3.99988e-12
-2.97617e-12
-6.01852e-12
1.28791e-11
2.5e-11
1.22219e-11
0
1.27196e-11
2.5e-11
1.23189e-11
-9.07942e-22
1.26543e-11
2.49999e-11
1.2365e-11
-2.31396e-14
1.11111e-12
4e-12
-4.28571e-12
-7.22222e-12
2.57576e-11
3.7179e-11
1.22226e-11
-7.41882e-23
2.54386e-11
2.4604e-11
-1.26815e-11
-1.23333e-11
1.26548e-11
2.5e-11
1.23656e-11
1.64352e-12
8.33344e-13
4.16667e-12
-1.78608e-12
-6.01853e-12
1.28788e-11
2.50001e-11
1.22218e-11
1.03855e-21
2.54377e-11
2.46024e-11
-1.26812e-11
-1.23334e-11
1.12086e-21
1.26437e-11
1.23655e-11
3.31019e-12
8.33335e-13
4.16686e-12
-1.78533e-12
-6.01852e-12
-3.15325e-22
1.28209e-11
1.22226e-11
-8.16197e-22
1.27197e-11
1.23017e-11
1.1515e-21
1.0089e-21
1.26543e-11
3.76441e-11
2.47319e-11
3.31019e-12
-2.77767e-13
4.16667e-12
-3.09522e-12
-7.22223e-12
2.29332e-22
1.28206e-11
1.22219e-11
-1.27451e-11
-1.22807e-11
-1.32125e-21
-5.4835e-23
-9.08031e-22
1.26544e-11
2.50002e-11
1.23656e-11
1.64353e-12
-2.77781e-13
2.83333e-12
-2.97618e-12
-6.01853e-12
-1.14668e-22
-9.70305e-23
-3.36379e-22
-2.54902e-11
-2.45614e-11
-1.68197e-21
-1.26815e-11
-1.23333e-11
1.26543e-11
2.5e-11
1.2365e-11
1.64353e-12
2.22223e-12
3.99987e-12
-1.66695e-12
-4.81482e-12
3.15343e-22
1.28204e-11
1.22222e-11
-2.5491e-11
-2.45614e-11
1.26984e-11
-3.61591e-13
-1.2333e-11
1.26544e-11
3.76437e-11
2.47311e-11
3.3102e-12
8.33222e-13
4.16667e-12
-4.76176e-13
-1.77777e-11
-1.21212e-11
2.56418e-11
2.44453e-11
-1.27451e-11
-1.22807e-11
1.26989e-11
1.23189e-11
8.07209e-22
9.34178e-22
1.26438e-11
1.23655e-11
3.31014e-12
-2.77694e-13
4.16687e-12
-1.78532e-12
-1.89817e-11
-1.21213e-11
2.5641e-11
2.44437e-11
-1.27451e-11
-1.22807e-11
-2.40251e-22
-1.26811e-11
-1.23333e-11
1.26542e-11
2.5e-11
1.23655e-11
1.64356e-12
-9.03261e-23
3.99988e-12
-2.97651e-12
-6.01853e-12
2.29356e-22
1.28206e-11
1.22223e-11
-1.27451e-11
-1.22808e-11
-1.20153e-22
-1.26816e-11
-1.23334e-11
2.53087e-11
3.73559e-11
1.23656e-11
-2.31358e-14
1.11115e-12
4.00012e-12
-1.66636e-12
-4.81482e-12
9.17529e-22
4.85243e-23
-1.68224e-22
6.6789e-22
1.27197e-11
2.49999e-11
-3.62277e-13
-1.23333e-11
1.26544e-11
1.23564e-11
4.87973e-22
1.64356e-12
8.33342e-13
4.16667e-12
-4.76506e-13
-4.81482e-12
-5.16122e-22
-5.82293e-22
-8.41054e-23
-1.33582e-21
2.54386e-11
3.73012e-11
-3.62283e-13
-1.23334e-11
2.80262e-22
1.26433e-11
-2.68942e-13
3.3102e-12
8.33337e-13
2.83333e-12
-1.66665e-12
-4.81482e-12
1.28792e-11
1.21795e-11
1.26159e-22
2.96857e-22
2.54394e-11
2.46041e-11
-1.26815e-11
-1.23332e-11
1.26543e-11
3.7644e-11
1.20966e-11
3.3102e-12
1.11108e-12
4e-12
-1.66666e-12
-4.81482e-12
2.57576e-11
2.43582e-11
-1.1775e-21
-1.27455e-11
1.31566e-11
2.46024e-11
-1.26808e-11
-1.2333e-11
1.26544e-11
2.50001e-11
1.23656e-11
1.64351e-12
1.11111e-12
5.33333e-12
-1.7857e-12
-1.89814e-11
1.36376e-11
2.43598e-11
-8.8333e-22
-1.27455e-11
1.31578e-11
2.46032e-11
-9.87399e-22
1.00912e-21
1.26543e-11
1.23562e-11
-4.87936e-22
1.64356e-12
1.11116e-12
5.33333e-12
-1.78608e-12
-3.19444e-11
-1.13637e-11
2.5e-11
1.22218e-11
-7.05143e-22
2.54394e-11
2.46024e-11
-7.67927e-22
-5.0462e-22
1.26544e-11
2.5e-11
1.2365e-11
1.64354e-12
-2.77853e-13
4.16667e-12
-4.75844e-13
-1.7778e-11
-1.21213e-11
2.56418e-11
2.44453e-11
-4.45366e-22
1.27198e-11
1.23021e-11
9.32606e-22
-4.0371e-22
1.26547e-11
2.5e-11
1.23656e-11
1.64353e-12
-2.77775e-13
2.83333e-12
-1.66694e-12
-1.77774e-11
-1.21211e-11
1.28209e-11
1.22219e-11
4.82444e-22
3.32068e-22
-3.60499e-22
-9.87392e-22
-2.01862e-22
1.26544e-11
2.5e-11
1.23654e-11
1.64355e-12
-1.38888e-12
2.83333e-12
-1.66666e-12
-1.77782e-11
-1.21213e-11
-4.85377e-23
3.36539e-22
-1.27454e-11
-1.22807e-11
-3.60549e-22
-5.48626e-22
-3.02771e-22
1.26543e-11
3.76436e-11
2.47311e-11
-2.31297e-14
-1.66667e-12
3.00012e-12
-4.7611e-13
-4.81479e-12
1.28788e-11
2.49998e-11
1.22218e-11
-1.27451e-11
-1.22805e-11
6.00893e-23
-1.64582e-21
-1.00936e-22
1.26547e-11
3.76441e-11
2.47307e-11
1.64352e-12
8.33319e-13
4.16669e-12
-1.78572e-12
-6.01847e-12
1.2879e-11
2.50002e-11
1.22222e-11
-1.27451e-11
4.38888e-13
1.23013e-11
1.04243e-21
-1.26668e-11
-1.23453e-11
1.26441e-11
1.23655e-11
3.3102e-12
1.11113e-12
5.33333e-12
-1.7858e-12
-6.01851e-12
1.28787e-11
1.21793e-11
2.52452e-22
-2.54906e-11
8.77811e-13
2.46028e-11
-8.23008e-22
-1.2667e-11
-1.23456e-11
1.30459e-21
8.1333e-23
1.64357e-12
-2.77768e-13
2.83341e-12
-2.97613e-12
-6.01845e-12
2.57577e-11
2.43587e-11
2.10397e-22
-2.54904e-11
8.77998e-13
2.46027e-11
-1.26812e-11
-1.23329e-11
1.02796e-21
8.69719e-23
-1.62663e-22
1.6435e-12
-2.77792e-13
2.83326e-12
-2.97629e-12
-6.01853e-12
1.28792e-11
2.5e-11
1.22219e-11
-1.27455e-11
1.31584e-11
2.46028e-11
-1.26816e-11
-1.23332e-11
-3.73819e-22
1.13066e-21
1.62664e-21
1.64359e-12
1.11107e-12
5.33335e-12
-1.78567e-12
-6.01845e-12
-7.7489e-22
2.56411e-11
2.44442e-11
-1.18831e-21
1.27197e-11
1.23016e-11
-1.26812e-11
-1.23328e-11
-2.80376e-22
1.26439e-11
1.23649e-11
1.64348e-12
2.22222e-12
5.33334e-12
-1.78578e-12
-6.01859e-12
-5.45376e-22
2.56411e-11
1.1667e-11
-1.22543e-11
1.27191e-11
1.2301e-11
-1.26817e-11
-1.23332e-11
1.26547e-11
2.5e-11
1.23652e-11
3.3102e-12
8.3342e-13
4.16672e-12
-4.76163e-13
-4.81481e-12
1.2878e-11
2.5e-11
-5.55638e-13
-1.22554e-11
1.272e-11
1.23018e-11
-9.88058e-22
-6.05875e-22
2.53096e-11
3.73554e-11
1.23646e-11
3.31021e-12
-1.66658e-12
2.99999e-12
-1.7856e-12
-6.01846e-12
2.57576e-11
3.71787e-11
1.22215e-11
-1.27444e-11
-1.22801e-11
2.40559e-22
-3.84319e-22
1.41395e-21
2.53099e-11
5e-11
2.47293e-11
1.64366e-12
-1.389e-12
2.83334e-12
-2.97618e-12
-6.01864e-12
1.28797e-11
3.78214e-11
1.16677e-11
-2.5e-11
4.37156e-13
1.23007e-11
-1.26807e-11
-1.23324e-11
2.53097e-11
3.73558e-11
1.23647e-11
-2.31236e-14
-1.38876e-12
1.50009e-12
-2.85708e-12
-1.77765e-11
7.57436e-13
2.50001e-11
-5.55377e-13
-1.2256e-11
2.54385e-11
2.46031e-11
-1.26823e-11
-1.23338e-11
1.26556e-11
2.5e-11
1.23636e-11
-2.31229e-14
-1.66677e-12
1.6665e-12
-1.66675e-12
-1.77791e-11
7.57423e-13
1.21808e-11
7.16393e-22
-1.27437e-11
1.31589e-11
2.46032e-11
-1.268e-11
-1.2332e-11
1.26537e-11
2.5e-11
1.23651e-11
1.64337e-12
8.33192e-13
4.1665e-12
-4.76136e-13
-4.81487e-12
1.28771e-11
1.21782e-11
8.43073e-23
-2.54899e-11
-1.1841e-11
1.23032e-11
-2.53624e-11
-2.46665e-11
1.26561e-11
1.23568e-11
-1.6284e-22
3.31021e-12
1.11125e-12
5.33331e-12
-1.78545e-12
-1.89797e-11
7.60353e-13
1.21812e-11
2.52996e-22
-1.27466e-11
-1.22826e-11
6.02337e-22
-1.26828e-11
-1.2335e-11
4.68248e-22
1.26427e-11
1.2363e-11
1.64374e-12
6.58931e-23
4.00014e-12
-2.97614e-12
-1.89832e-11
-1.2123e-11
1.28186e-11
1.22208e-11
6.32708e-22
1.27171e-11
2.49961e-11
1.23172e-11
-1.26644e-11
-1.23438e-11
2.52878e-11
2.47297e-11
-2.31195e-14
-1.38872e-12
2.8333e-12
-1.66674e-12
-4.81486e-12
1.2877e-11
2.50001e-11
1.22241e-11
9.3074e-22
1.2721e-11
3.77e-11
2.46386e-11
-1.26684e-11
-1.23481e-11
1.26455e-11
1.23672e-11
-2.31184e-14
-2.78028e-13
4.16652e-12
-1.78552e-12
-6.01845e-12
1.28803e-11
2.49999e-11
1.22208e-11
-1.2743e-11
4.37704e-13
2.50001e-11
1.23215e-11
-1.26638e-11
-1.2344e-11
1.26408e-11
1.2364e-11
1.64338e-12
2.22223e-12
5.33331e-12
-1.78578e-12
-6.01867e-12
1.28774e-11
3.7819e-11
2.44448e-11
-1.27464e-11
4.37952e-13
1.2304e-11
-4.40802e-22
-1.2668e-11
-1.2349e-11
1.26447e-11
1.23689e-11
3.31022e-12
-2.77598e-13
4.16675e-12
-1.78555e-12
-6.01844e-12
1.28798e-11
2.50021e-11
1.22236e-11
9.68752e-22
1.27175e-11
1.23006e-11
-1.26787e-11
-1.23324e-11
-2.81922e-22
1.26397e-11
1.23659e-11
1.64367e-12
-2.77887e-13
4.1666e-12
-1.78574e-12
-6.0186e-12
1.28781e-11
1.21789e-11
6.33386e-22
3.72648e-23
2.54379e-11
2.46042e-11
-2.53608e-11
-2.46688e-11
1.26512e-11
2.5e-11
1.23706e-11
1.64348e-12
1.11114e-12
5.33333e-12
-1.78566e-12
-6.01852e-12
1.2879e-11
1.21798e-11
-8.44551e-23
-1.27446e-11
4.38458e-13
1.23023e-11
-1.26806e-11
-2.5e-11
3.05582e-13
2.5e-11
1.23697e-11
1.64359e-12
-1.3889e-12
4.16665e-12
-3.0952e-12
-2.01853e-11
7.57426e-13
1.21798e-11
5.48971e-22
-1.27445e-11
4.38773e-13
1.23027e-11
-2.20584e-22
-1.26644e-11
3.07011e-13
2.5e-11
1.23688e-11
-2.31109e-14
-2.77777e-12
2.99998e-12
-1.78559e-12
-1.89809e-11
7.57221e-13
1.2179e-11
4.64557e-22
-1.49088e-22
1.27176e-11
1.2301e-11
-7.72141e-22
-1.26671e-11
3.00338e-13
2.50001e-11
1.23706e-11
-2.31095e-14
-2.77777e-12
1.66655e-12
-1.66664e-12
-4.81487e-12
2.87901e-23
-6.82208e-22
-5.06876e-22
-1.2746e-11
-1.22831e-11
3.01961e-22
2.20646e-22
-2.53303e-11
-1.20396e-11
3.76441e-11
2.47351e-11
-2.31082e-14
-2.77548e-13
2.83349e-12
-1.66646e-12
-4.81492e-12
1.28799e-11
2.50029e-11
1.22244e-11
-1.27425e-11
4.40834e-13
2.50046e-11
1.23226e-11
-2.53307e-11
6.12422e-13
3.7355e-11
1.23643e-11
1.6437e-12
1.111e-12
5.33329e-12
-4.75998e-13
-4.81494e-12
1.28767e-11
3.78183e-11
2.44458e-11
-1.27463e-11
4.32078e-13
2.49953e-11
-3.64687e-13
-2.49999e-11
3.07534e-13
1.23546e-11
-9.01021e-22
1.64338e-12
-2.77787e-13
4.1664e-12
-1.78564e-12
-1.89833e-11
7.56816e-13
2.49999e-11
1.22211e-11
-2.54883e-11
-1.18427e-11
1.23046e-11
-1.26784e-11
-1.23319e-11
1.12832e-21
1.66309e-21
8.18647e-22
1.64376e-12
-5.55505e-13
1.66635e-12
-2.97587e-12
-1.89791e-11
7.56287e-13
1.21782e-11
-3.80621e-22
-2.54888e-11
8.74784e-13
2.4604e-11
-1.26826e-11
-1.23347e-11
-1.12782e-21
-1.3998e-21
1.30921e-21
3.31022e-12
8.33579e-13
2.83362e-12
-2.97594e-12
-6.01891e-12
1.44172e-22
-1.95206e-22
3.3837e-22
-1.27431e-11
1.31588e-11
2.46033e-11
-2.53623e-11
-3.73344e-11
3.09381e-13
1.23569e-11
-2.45385e-22
3.31022e-12
8.33172e-13
4.16645e-12
-1.78538e-12
-1.8983e-11
-1.2123e-11
1.2822e-11
1.22239e-11
2.61165e-22
2.54385e-11
2.46032e-11
-2.53625e-11
-3.73319e-11
3.09375e-13
1.23547e-11
-1.63537e-22
3.31023e-12
8.33523e-13
4.16675e-12
-1.7858e-12
-1.898e-11
7.60454e-13
3.78218e-11
2.44447e-11
-1.27464e-11
1.31566e-11
3.73027e-11
-1.30429e-11
-2.46661e-11
1.31442e-21
1.26451e-11
1.23659e-11
3.31023e-12
1.11099e-12
3.99983e-12
-4.28577e-12
-7.22227e-12
1.28774e-11
2.49975e-11
1.22211e-11
-1.27439e-11
4.38631e-13
3.76975e-11
-7.25375e-13
-2.46661e-11
-2.53429e-21
2.52884e-11
2.47298e-11
1.64337e-12
1.11123e-12
4.00013e-12
-4.28554e-12
-7.22227e-12
-5.76224e-22
1.28217e-11
1.22233e-11
-1.27462e-11
4.38831e-13
3.76995e-11
1.19568e-11
-1.23322e-11
-7.50723e-22
1.26434e-11
1.23642e-11
1.64374e-12
2.22222e-12
5.33331e-12
-1.78558e-12
-6.01842e-12
1.28798e-11
3.78216e-11
2.44444e-11
-1.27442e-11
1.31591e-11
3.73005e-11
1.23178e-11
-4.05382e-22
7.50587e-22
1.26449e-11
1.23658e-11
3.31023e-12
2.22223e-12
5.33334e-12
-1.78579e-12
-6.01862e-12
1.28779e-11
2.49981e-11
1.22213e-11
-9.68869e-22
1.27186e-11
1.23007e-11
-1.26821e-11
-1.23338e-11
-9.38089e-23
1.26434e-11
1.23644e-11
3.31023e-12
1.11103e-12
5.33334e-12
-1.78563e-12
-6.01842e-12
1.28797e-11
1.21802e-11
6.33422e-22
1.15499e-21
1.27201e-11
2.50013e-11
-3.6136e-13
-1.23324e-11
0
-2.61959e-22
1.06182e-21
1.64345e-12
-3.95898e-23
5.33334e-12
-1.7858e-12
-6.01856e-12
1.2878e-11
1.21787e-11
-1.22443e-21
-1.27459e-11
1.31578e-11
3.73008e-11
1.2318e-11
-6.07801e-22
6.56506e-22
0
-1.38845e-21
-2.30998e-14
1.11118e-12
5.33334e-12
-1.78568e-12
-6.01845e-12
1.28795e-11
2.50012e-11
1.22227e-11
-1.27445e-11
4.38849e-13
1.23007e-11
-1.26818e-11
-1.23337e-11
1.26552e-11
1.23565e-11
-3.26661e-22
1.64366e-12
1.11105e-12
5.33335e-12
-1.78577e-12
-6.01856e-12
1.28783e-11
2.49989e-11
1.22216e-11
-1.1173e-22
1.272e-11
1.23019e-11
-2.53627e-11
-3.73336e-11
3.08124e-13
1.23556e-11
4.08301e-22
1.64348e-12
-1.38895e-12
4.16662e-12
-3.09527e-12
-7.22217e-12
1.28794e-11
2.5001e-11
1.22226e-11
-1.27458e-11
4.37891e-13
2.5e-11
-3.61851e-13
-3.76664e-11
-2.4691e-11
1.26444e-11
1.23658e-11
-2.30993e-14
-2.77661e-13
4.16679e-12
-3.09519e-12
-7.22212e-12
2.57576e-11
5e-11
2.44445e-11
-2.54906e-11
-2.45614e-11
2.53971e-11
2.46371e-11
-2.53334e-11
-2.46902e-11
1.26435e-11
1.23649e-11
1.64364e-12
1.11103e-12
5.33317e-12
-1.78604e-12
-6.01848e-12
1.28783e-11
2.49992e-11
1.22219e-11
-2.5491e-11
-2.45614e-11
1.26984e-11
1.23184e-11
-1.26667e-11
-1.23457e-11
-9.6024e-22
1.30659e-21
1.64348e-12
-1.60479e-22
5.33333e-12
-4.76182e-13
-4.81482e-12
6.61786e-22
-2.9214e-22
4.21936e-22
-1.27447e-11
-1.228e-11
-4.82162e-22
-1.26815e-11
-1.23337e-11
1.40618e-21
5.23617e-22
1.46949e-21
-2.30989e-14
-1.88023e-22
5.3335e-12
-1.78537e-12
-6.01855e-12
-6.04201e-22
1.28209e-11
1.22221e-11
1.48914e-22
1.27201e-11
1.23019e-11
-1.26813e-11
-2.5e-11
-1.2346e-11
-1.30935e-21
-1.26352e-11
-2.30988e-14
-1.38892e-12
4.16663e-12
-3.09523e-12
-2.01857e-11
-1.2122e-11
1.28202e-11
1.2222e-11
-1.27458e-11
1.31576e-11
2.46032e-11
-1.10061e-22
-1.26667e-11
-1.23454e-11
-2.61797e-22
-1.26337e-11
-2.30987e-14
-1.38882e-12
4.16669e-12
-1.78604e-12
-3.19438e-11
-1.13621e-11
1.21798e-11
2.10935e-22
-1.27449e-11
1.31582e-11
2.46032e-11
-6.05308e-22
-1.2667e-11
-1.23456e-11
-1.13463e-21
5.71525e-22
-2.30978e-14
-2.77861e-13
4.16664e-12
-1.78573e-12
-1.89813e-11
7.58389e-13
2.5e-11
1.22229e-11
-4.83963e-22
1.2719e-11
1.23009e-11
6.05223e-22
-1.26664e-11
-1.23454e-11
-9.60032e-22
2.44929e-22
1.64357e-12
8.33486e-13
2.83349e-12
-2.97618e-12
-6.01849e-12
-5.75287e-23
1.28203e-11
1.22216e-11
7.44469e-22
5.99508e-22
-4.21846e-22
-1.26814e-11
-1.23332e-11
-3.74933e-22
1.26439e-11
1.23659e-11
3.31029e-12
1.11109e-12
4.00002e-12
-1.66663e-12
-4.81465e-12
1.28786e-11
2.50005e-11
1.22224e-11
-1.27457e-11
-1.22809e-11
-1.80806e-22
-1.26814e-11
-2.5e-11
-1.23459e-11
2.52873e-11
2.47304e-11
1.64354e-12
-1.3183e-23
5.33333e-12
-4.76181e-13
-4.81498e-12
2.57584e-11
5e-11
2.44445e-11
-1.27449e-11
4.39064e-13
2.50004e-11
-3.62293e-13
-2.5e-11
-1.2345e-11
1.26434e-11
1.23654e-11
-2.30982e-14
1.11109e-12
5.33317e-12
-1.78572e-12
-6.01833e-12
1.28785e-11
2.49996e-11
1.22216e-11
-1.27453e-11
4.38211e-13
2.49995e-11
-3.6228e-13
-1.23331e-11
-1.31234e-21
6.9822e-22
-3.26571e-21
1.64359e-12
1.11114e-12
5.3335e-12
-3.09523e-12
-7.22223e-12
1.2879e-11
1.21793e-11
-2.10925e-22
-2.5491e-11
-2.45614e-11
-6.02623e-22
-1.26813e-11
-1.23332e-11
9.374e-22
1.26443e-11
1.23658e-11
1.64355e-12
1.11109e-12
5.33333e-12
-1.78568e-12
-6.01851e-12
2.57576e-11
2.4359e-11
-8.4371e-23
-1.27449e-11
4.38937e-13
1.23018e-11
-1.26813e-11
-1.23332e-11
-1.87461e-22
1.26431e-11
1.23654e-11
1.64359e-12
-2.77725e-13
4.16665e-12
-4.76182e-13
-4.81482e-12
1.28786e-11
1.21793e-11
1.68746e-22
-1.27453e-11
4.3833e-13
1.2301e-11
7.70261e-22
1.61999e-21
1.26545e-11
1.23561e-11
-1.63286e-22
1.64355e-12
-1.66677e-12
3e-12
-4.76182e-13
-4.81482e-12
9.20334e-22
-1.94669e-22
-2.95283e-22
-2.54902e-11
-1.18407e-11
1.23022e-11
-1.26817e-11
-1.23336e-11
1.26541e-11
1.23562e-11
-1.30644e-21
1.64356e-12
-5.55549e-13
2.99975e-12
-4.76515e-13
-4.81482e-12
6.3281e-22
-7.30254e-22
-1.26566e-22
-1.27449e-11
4.38582e-13
1.23011e-11
-2.53615e-11
-2.46667e-11
-5.62463e-22
6.98164e-22
1.388e-21
3.31029e-12
8.33354e-13
2.83333e-12
-1.66668e-12
-4.81482e-12
1.15048e-22
4.86701e-23
2.10909e-22
-1.27452e-11
-1.22809e-11
6.02678e-23
-1.26814e-11
-2.5e-11
-1.23459e-11
8.7282e-22
4.89941e-22
3.31024e-12
1.1111e-12
4.00001e-12
-1.66664e-12
-4.81482e-12
-1.72579e-22
1.28206e-11
1.22224e-11
-2.54902e-11
-2.45614e-11
4.21841e-22
-1.26808e-11
-2.5e-11
-1.23456e-11
1.26438e-11
1.23658e-11
1.64355e-12
1.11112e-12
5.3335e-12
-1.78534e-12
-1.89819e-11
-1.21217e-11
1.28203e-11
1.22217e-11
-2.54902e-11
-1.1842e-11
2.50002e-11
-1.30446e-11
-2.46675e-11
-6.56252e-22
1.26435e-11
1.23651e-11
1.64359e-12
2.22223e-12
5.33333e-12
-1.7857e-12
-3.19444e-11
-2.42424e-11
1.2821e-11
1.22228e-11
-1.2745e-11
1.3158e-11
5e-11
1.19567e-11
-2.5e-11
-1.23458e-11
1.26438e-11
1.23658e-11
3.31024e-12
-2.77798e-13
4.16645e-12
-4.76516e-13
-3.07407e-11
-2.42424e-11
2.5641e-11
2.44445e-11
-1.27452e-11
1.31578e-11
3.73015e-11
-3.62514e-13
-3.76668e-11
-2.46914e-11
1.2644e-11
1.23659e-11
1.64355e-12
-2.77753e-13
4.16688e-12
-4.75849e-13
-1.77776e-11
7.57778e-13
3.78206e-11
2.44445e-11
-2.5491e-11
8.77182e-13
3.73017e-11
-1.30434e-11
-3.73332e-11
-1.23456e-11
-2.09489e-21
1.63321e-22
1.64358e-12
-2.77796e-13
4.16645e-12
-1.78609e-12
-6.01853e-12
1.28786e-11
3.78204e-11
2.44445e-11
-2.54902e-11
-1.18423e-11
2.49998e-11
-3.63134e-13
-1.23332e-11
-9.37459e-22
1.26434e-11
1.23653e-11
1.64355e-12
-2.77753e-13
4.16689e-12
-1.7857e-12
-6.01872e-12
-4.02742e-22
1.28204e-11
1.22221e-11
-2.54902e-11
-1.1842e-11
1.23017e-11
1.48584e-21
3.03778e-22
1.87518e-22
2.52873e-11
2.47312e-11
1.64358e-12
2.22223e-12
5.33333e-12
-4.76183e-13
-4.81465e-12
6.32855e-22
-1.46059e-22
2.53144e-22
-1.27445e-11
1.31592e-11
3.73017e-11
1.23194e-11
-1.01274e-22
1.26544e-11
3.76442e-11
2.47312e-11
3.31018e-12
2.22223e-12
3.99999e-12
-2.97619e-12
-6.01853e-12
3.45208e-22
-1.46051e-22
3.37548e-22
-1.27452e-11
1.31578e-11
3.73015e-11
1.23188e-11
-1.01258e-22
2.53086e-11
3.73562e-11
1.23659e-11
3.31029e-12
1.1111e-12
2.66667e-12
-5.47585e-12
-7.22222e-12
-1.72613e-22
1.28206e-11
1.22228e-11
-1.27454e-11
1.31567e-11
2.46024e-11
1.15571e-21
-1.26667e-11
3.08356e-13
2.5e-11
1.23653e-11
1.64356e-12
1.11112e-12
4.00001e-12
-4.2857e-12
-7.22223e-12
4.31558e-22
1.28204e-11
1.22217e-11
-4.83988e-22
1.27196e-11
1.23019e-11
-1.26816e-11
-2.5e-11
-1.23456e-11
1.26436e-11
1.23655e-11
1.64358e-12
2.22223e-12
5.33333e-12
-3.09565e-12
-2.01853e-11
7.57596e-13
1.21796e-11
-3.37599e-22
-3.72356e-23
1.27194e-11
1.23016e-11
-1.2681e-11
-2.5e-11
-1.23458e-11
1.26442e-11
1.23661e-11
3.31024e-12
1.11111e-12
5.33333e-12
-1.7857e-12
-3.19438e-11
-1.13637e-11
1.21794e-11
-5.90771e-22
-2.23379e-22
2.54378e-11
2.46024e-11
-3.3026e-22
-1.2667e-11
-1.23456e-11
1.26432e-11
1.23651e-11
1.64356e-12
1.11112e-12
5.33333e-12
-1.78572e-12
-3.19444e-11
-2.42424e-11
1.28205e-11
1.22224e-11
-1.27451e-11
4.38418e-13
1.23015e-11
8.25613e-22
-1.72171e-21
4.68869e-22
-1.74602e-22
-8.16726e-23
1.64358e-12
1.11111e-12
3.99999e-12
-2.97618e-12
-1.89816e-11
7.57751e-13
2.5e-11
1.22222e-11
-2.54902e-11
-1.1842e-11
1.23016e-11
-1.26812e-11
-2.50002e-11
3.08637e-13
1.23564e-11
-4.90114e-22
1.64356e-12
-2.77776e-13
1.49999e-12
-2.85689e-12
-4.81482e-12
2.57576e-11
3.71796e-11
1.22223e-11
-1.27451e-11
4.39436e-13
2.5e-11
-3.61305e-13
-2.49998e-11
1.29618e-11
3.7356e-11
1.23657e-11
1.64358e-12
-5.55549e-13
3.33168e-13
-4.16696e-12
-1.89816e-11
7.57436e-13
3.78205e-11
2.44445e-11
0
1.27194e-11
2.5e-11
1.23188e-11
-1.26667e-11
1.29641e-11
3.73567e-11
1.23655e-11
3.31024e-12
-2.77774e-13
2.83351e-12
-2.97617e-12
-1.89814e-11
-1.21212e-11
2.5641e-11
2.44444e-11
-1.27452e-11
1.31579e-11
3.73017e-11
-3.62311e-13
-2.5e-11
3.08635e-13
2.5e-11
1.23653e-11
1.64356e-12
-2.77776e-13
2.83332e-12
-2.97619e-12
-6.01852e-12
1.28789e-11
2.5e-11
1.22222e-11
-2.54902e-11
-1.18422e-11
2.49999e-11
-3.63148e-13
-1.23332e-11
-1.87589e-22
1.26441e-11
1.23659e-11
1.64358e-12
8.33342e-13
2.83334e-12
-4.2857e-12
-7.22222e-12
2.57576e-11
2.4359e-11
-2.11048e-22
-2.54902e-11
-2.45614e-11
1.08538e-21
-1.26812e-11
-2.5e-11
3.09482e-13
1.23568e-11
-3.26783e-22
3.31024e-12
1.11111e-12
5.33333e-12
-3.09523e-12
-7.22222e-12
2.57576e-11
2.4359e-11
8.44175e-23
-1.27451e-11
-1.22806e-11
9.64763e-22
-1.26811e-11
-2.49999e-11
1.2963e-11
3.73564e-11
1.23657e-11
1.64357e-12
-1.38889e-12
4.16666e-12
-1.78571e-12
-6.01852e-12
1.28788e-11
2.5e-11
1.22222e-11
2.97997e-22
-2.66637e-22
-7.23706e-22
-1.26812e-11
-1.23333e-11
2.53086e-11
3.73559e-11
1.23655e-11
-2.30972e-14
-2.77772e-13
4.16667e-12
-1.78571e-12
-6.01852e-12
1.28788e-11
2.5e-11
-5.55657e-13
-1.22549e-11
1.33316e-21
-8.4431e-22
-2.53623e-11
-2.46667e-11
1.26543e-11
2.5e-11
1.23657e-11
1.64357e-12
1.11111e-12
5.33333e-12
-3.09523e-12
-7.22222e-12
1.28788e-11
1.21795e-11
-1.27778e-11
-1.22549e-11
0
1.26984e-11
-3.6222e-13
-2.5e-11
3.08648e-13
2.5e-11
1.23656e-11
1.64357e-12
2.6385e-23
5.33333e-12
-3.09523e-12
-7.22222e-12
-5.46891e-22
-1.46132e-22
6.75453e-22
2.97991e-22
2.06638e-21
2.53968e-11
2.46377e-11
-2.53333e-11
6.17296e-13
2.47126e-11
-3.2685e-22
-2.30972e-14
1.31952e-23
5.33333e-12
-3.09523e-12
-7.22222e-12
1.06521e-21
9.74396e-23
-1.68899e-22
2.23538e-22
-2.66683e-22
2.53968e-11
2.46377e-11
-2.53333e-11
6.17296e-13
2.47126e-11
3.26916e-22
-2.30972e-14
)
;

boundaryField
{
    wireUpstream
    {
        type            calculated;
        value           nonuniform List<scalar> 
16
(
0
5.33333e-12
-3.09523e-12
-7.22222e-12
0
0
0
-2.48339e-22
0
2.53968e-11
2.46377e-11
-2.53333e-11
6.17296e-13
2.47126e-11
5.63006e-22
-2.30972e-14
)
;
    }
    wireDownstream
    {
        type            calculated;
        value           nonuniform List<scalar> 
16
(
2.22223e-12
5.33333e-12
-4.76175e-13
-3.07407e-11
-2.42424e-11
2.5641e-11
2.44445e-11
-2.54902e-11
8.771e-13
2.46032e-11
0
-8.8188e-22
2.53086e-11
2.47126e-11
-7.10879e-22
3.31018e-12
)
;
    }
    wireTopContact
    {
        type            calculated;
        value           nonuniform List<scalar> 
122
(
6.43524e-22
-6.43551e-22
0
0
0
0
0
-6.4351e-22
0
6.434e-22
0
0
0
0
0
0
0
0
0
6.43475e-22
0
-6.43619e-22
0
0
6.43514e-22
0
0
0
6.43544e-22
-1.28736e-21
-2.49999e-11
-2.50001e-11
0
6.43585e-22
0
-6.43604e-22
0
6.43628e-22
0
0
0
0
0
0
-6.43351e-22
-6.43318e-22
6.433e-22
-1.28655e-21
0
-6.4347e-22
0
0
0
0
0
6.45739e-22
-6.46303e-22
0
0
0
-6.4755e-22
0
0
0
0
0
0
0
6.45956e-22
0
-6.4591e-22
0
0
6.45979e-22
0
-1.29213e-21
0
0
6.46154e-22
0
-1.2924e-21
-2.50003e-11
-2.49997e-11
0
1.29304e-21
6.46611e-22
0
0
0
0
1.29366e-21
0
0
0
6.46988e-22
6.46964e-22
0
-6.47051e-22
0
-6.47141e-22
0
0
-6.47218e-22
6.47332e-22
0
-1.29486e-21
-6.47416e-22
-1.29481e-21
-6.47389e-22
-1.29501e-21
-6.47494e-22
0
6.47472e-22
0
0
-6.47706e-22
6.47699e-22
0
0
0
0
0
)
;
    }
    front
    {
        type            wedge;
    }
    back
    {
        type            wedge;
    }
}


// ************************************************************************* //
