/*--------------------------------*- C++ -*----------------------------------*\
| =========                 |                                                 |
| \\      /  F ield         | foam-extend: Open Source CFD                    |
|  \\    /   O peration     | Version:     4.1-20200408                       |
|   \\  /    A nd           | Web:         http://www.foam-extend.org         |
|    \\/     M anipulation  |                                                 |
\*---------------------------------------------------------------------------*/
FoamFile
{
    version     2.0;
    format      ascii;
    class       volScalarField;
    location    "0.0200000";
    object      epsilonPEq;
}
// * * * * * * * * * * * * * * * * * * * * * * * * * * * * * * * * * * * * * //

dimensions      [0 0 0 0 0 0 0];

internalField   nonuniform List<scalar> 
1952
(
0.00594852
0.005975
0.00602326
0.00608023
0.00615013
0.00621941
0.00629621
0.00635194
0.00639109
0.00636333
0.00626105
0.00596557
0.00548874
0.00450282
0.00306386
0.00593709
0.00604305
0.00607268
0.00612114
0.00617588
0.00624444
0.00631384
0.00638996
0.00644488
0.00648338
0.00645358
0.00634834
0.00604918
0.00556727
0.00457467
0.00312913
0.00603024
0.00614312
0.00617182
0.0062182
0.00627173
0.00633956
0.006409
0.00648444
0.00653864
0.00657636
0.00654442
0.00643659
0.00613362
0.00564681
0.00464731
0.00319495
0.00613036
0.00624338
0.00627028
0.00631551
0.00636818
0.00643538
0.00650471
0.0065792
0.00663283
0.00666964
0.00663568
0.00652551
0.00621844
0.00572662
0.00472013
0.00326622
0.00623114
0.00634298
0.00636898
0.00641339
0.00646553
0.00653207
0.00660134
0.0066748
0.00672803
0.00676353
0.0067271
0.00661526
0.00630403
0.00580694
0.00479374
0.00334035
0.00633095
0.00644215
0.00646762
0.00651182
0.00656361
0.00662979
0.00669903
0.00677141
0.00682418
0.00685793
0.00681904
0.00670583
0.00639046
0.00588788
0.00486788
0.00341436
0.00643019
0.00654125
0.00656655
0.00661081
0.00666234
0.00672843
0.00679757
0.00686923
0.00692152
0.00695358
0.00691325
0.00679739
0.00647787
0.00596967
0.00494247
0.00348763
0.00652926
0.00663927
0.00666458
0.00670911
0.00676041
0.00682683
0.0068957
0.00696644
0.00701889
0.00704936
0.00700761
0.0068888
0.00656498
0.00605106
0.00501648
0.00356044
0.00662719
0.0067369
0.00676232
0.00680725
0.0068585
0.0069254
0.00699383
0.00706334
0.00711674
0.00714566
0.00710196
0.00698083
0.00665206
0.00613193
0.00509041
0.00363497
0.00672472
0.00683614
0.00686169
0.0069069
0.00695844
0.00702559
0.00709379
0.00716304
0.00721662
0.00724421
0.00719856
0.00707502
0.00674084
0.00621417
0.00516634
0.00371063
0.00682387
0.00693652
0.00696224
0.00700764
0.00705965
0.00712695
0.00719519
0.00726484
0.0073177
0.00734399
0.00729674
0.00717039
0.00683092
0.00629861
0.00524342
0.00378555
0.00692415
0.0070367
0.00706283
0.00710844
0.00716089
0.00722852
0.0072967
0.00736669
0.00741892
0.00744382
0.00739512
0.00726568
0.00692136
0.00638383
0.0053201
0.00386028
0.00702419
0.00713693
0.00716401
0.00720979
0.00726262
0.00733065
0.00739873
0.007469
0.00752057
0.00754404
0.00749364
0.00736087
0.00701169
0.00646858
0.00539621
0.00393631
0.00712377
0.00723753
0.00726602
0.00731221
0.00736504
0.00743362
0.00750161
0.00757207
0.007623
0.00764503
0.00759281
0.00745661
0.00710266
0.0065541
0.00547326
0.00401263
0.00722385
0.00733881
0.00736798
0.0074148
0.00746735
0.00753654
0.00760437
0.00767483
0.00772516
0.00774564
0.00769163
0.0075519
0.0071934
0.0066389
0.00554917
0.00408861
0.0073251
0.00744116
0.00746997
0.00751747
0.00757003
0.00763939
0.00770718
0.00777752
0.00782725
0.0078462
0.00779028
0.00764716
0.00728372
0.00672302
0.00562495
0.00416544
0.00742747
0.00754436
0.00757244
0.00762128
0.00767402
0.00774307
0.00781103
0.0078812
0.0079301
0.00794766
0.00788958
0.00774331
0.00737486
0.00680833
0.00570301
0.00424302
0.00753099
0.00764797
0.00767569
0.00772546
0.00777826
0.00784703
0.00791521
0.00798526
0.00803285
0.0080494
0.00798905
0.00783955
0.00746645
0.00689376
0.00578124
0.00432048
0.0076348
0.00775153
0.00777963
0.00782902
0.0078822
0.0079508
0.00801908
0.00808921
0.00813519
0.00815139
0.00808831
0.00793524
0.00755815
0.00697914
0.00586509
0.00439955
0.00773819
0.00785499
0.00788345
0.00793261
0.00798642
0.00805472
0.00812334
0.00819324
0.00823728
0.00825387
0.00818781
0.00803093
0.00765046
0.00706528
0.00595413
0.0044809
0.00784145
0.00796002
0.00798812
0.00803625
0.00809178
0.00816
0.00822861
0.00829801
0.00834019
0.00835735
0.00828851
0.0081285
0.00774417
0.00715239
0.00604267
0.00456221
0.00794629
0.0080653
0.0080929
0.00814018
0.00819738
0.00826566
0.00833389
0.00840318
0.00844457
0.00846123
0.0083899
0.00822742
0.00783865
0.0072398
0.00613059
0.00464331
0.00805144
0.00817046
0.00819824
0.00824628
0.00830326
0.00837166
0.00843994
0.00850897
0.00855035
0.00856581
0.00849214
0.00832705
0.0079335
0.00732738
0.00621811
0.00472442
0.00815664
0.00827591
0.00830392
0.00835274
0.00840958
0.00847814
0.00854671
0.00861543
0.00865679
0.00867112
0.00859513
0.00842716
0.0080286
0.00741509
0.00630541
0.00480544
0.00826206
0.00838184
0.00840988
0.00845937
0.00851617
0.00858514
0.0086538
0.0087225
0.00876373
0.00877677
0.00869853
0.00852738
0.00812375
0.00750284
0.0063927
0.00488652
0.00836794
0.00848803
0.00851622
0.0085663
0.0086229
0.00869255
0.0087612
0.00882998
0.00887097
0.0088826
0.00880211
0.00862761
0.00821886
0.00759057
0.00647942
0.00496696
0.00847411
0.00859439
0.00862281
0.00867297
0.00872899
0.00880003
0.00886871
0.00893728
0.00897797
0.00898803
0.00890522
0.00872726
0.00831327
0.00767775
0.00656663
0.00504785
0.00858051
0.00870201
0.0087306
0.00878047
0.0088356
0.00890833
0.00897684
0.00904484
0.00908531
0.00909365
0.0090085
0.00882716
0.00840801
0.0077655
0.00665394
0.00512851
0.00868818
0.00880959
0.00883816
0.008888
0.00894328
0.00901638
0.00908463
0.00915213
0.00919222
0.00919891
0.00911137
0.00892671
0.0085026
0.00785304
0.00674086
0.00520912
0.00879564
0.00891707
0.00894555
0.0089955
0.00905138
0.00912414
0.00919213
0.00925924
0.0092988
0.00930384
0.00921393
0.00902596
0.00859685
0.00794304
0.00682917
0.0052914
0.00890299
0.00902558
0.00905404
0.00910398
0.00916036
0.00923288
0.00930061
0.00936722
0.00940642
0.00940949
0.00931739
0.00912619
0.00869185
0.00804068
0.00691801
0.00537283
0.0090114
0.00913333
0.00916184
0.00921186
0.00926872
0.00934095
0.00940835
0.00947445
0.00951332
0.00951421
0.00942058
0.00922613
0.00878666
0.00813851
0.0070068
0.00545414
0.00911903
0.009241
0.00926949
0.00931955
0.0093768
0.00944863
0.00951593
0.00958168
0.00962031
0.0096191
0.00952457
0.00932643
0.00888029
0.00823463
0.00709572
0.00553618
0.0092266
0.00934874
0.00937711
0.00942724
0.00948482
0.00955642
0.00962395
0.00968952
0.00972764
0.00972403
0.00962891
0.00942694
0.00898149
0.00833193
0.00718504
0.00561852
0.00933426
0.009457
0.00948521
0.00953566
0.00959321
0.00966396
0.00973281
0.00979813
0.00983511
0.00983022
0.00973355
0.00953258
0.00908731
0.00842999
0.00727479
0.00570118
0.00944242
0.00956587
0.0095946
0.00964599
0.00970307
0.00977296
0.00984258
0.00990747
0.00994356
0.00993872
0.00983934
0.00964399
0.00919359
0.00852876
0.00736584
0.00578435
0.00955118
0.00967911
0.00970896
0.00976058
0.00981784
0.00988795
0.00995583
0.0100196
0.0100536
0.0100495
0.00994758
0.00975268
0.00929735
0.00862612
0.00745521
0.0058656
0.00966364
0.00979481
0.00982478
0.00987627
0.00993381
0.0100047
0.0100726
0.0101362
0.0101677
0.0101656
0.0100615
0.0098605
0.00940007
0.00872314
0.00754392
0.00594659
0.00977931
0.00991297
0.00994282
0.00999441
0.0100521
0.0101239
0.0101924
0.0102564
0.0102875
0.0102843
0.0101771
0.0099703
0.0095049
0.0088221
0.00763463
0.00602956
0.00989757
0.0100326
0.0100627
0.0101147
0.0101727
0.0102456
0.0103141
0.0103784
0.010409
0.0104036
0.0102932
0.0100814
0.00961155
0.00892214
0.00772596
0.00611312
0.0100171
0.010153
0.0101834
0.0102358
0.0102943
0.0103681
0.0104365
0.0105006
0.0105301
0.0105229
0.0104094
0.0101932
0.00971879
0.00902238
0.00781709
0.00619652
0.0101375
0.010274
0.0103046
0.0103575
0.0104161
0.0104905
0.0105586
0.0106219
0.0106499
0.010641
0.0105243
0.0103044
0.00982477
0.00912072
0.00790747
0.00627922
0.0102584
0.010396
0.0104268
0.0104798
0.0105385
0.0106133
0.0106804
0.010743
0.0107694
0.0107591
0.0106392
0.0104156
0.00993035
0.0092185
0.00799825
0.00636246
0.0103803
0.0105219
0.0105526
0.0106056
0.0106641
0.0107388
0.010805
0.010867
0.0108918
0.0108802
0.0107575
0.01053
0.0100395
0.00932087
0.0080931
0.00644931
0.0105061
0.0106478
0.0106785
0.0107311
0.0107896
0.0108639
0.0109286
0.0109908
0.011014
0.011001
0.0108756
0.0106441
0.0101487
0.00942386
0.0081884
0.0065364
0.010632
0.0107738
0.0108045
0.0108568
0.0109152
0.0109887
0.0110518
0.0111146
0.0111364
0.0111219
0.010994
0.0107585
0.0102581
0.00952706
0.00828378
0.00662368
0.010758
0.0108998
0.0109304
0.0109826
0.0110407
0.0111135
0.0111761
0.0112386
0.011259
0.0112431
0.0111125
0.0108734
0.010368
0.00963087
0.00837972
0.00671338
0.010884
0.0110257
0.0110561
0.0111083
0.0111661
0.0112384
0.0113012
0.0113625
0.0113817
0.0113645
0.0112308
0.0109887
0.0104779
0.00973471
0.00847592
0.00681001
0.0110098
0.011152
0.0111822
0.0112345
0.0112921
0.0113641
0.0114271
0.0114872
0.0115057
0.011487
0.01135
0.0111057
0.0105898
0.00984067
0.00857432
0.00690765
0.011136
0.0112781
0.0113083
0.0113606
0.0114183
0.0114901
0.0115534
0.0116126
0.0116304
0.0116101
0.0114701
0.011224
0.0107031
0.00994816
0.00867398
0.00700481
0.011262
0.0114041
0.0114343
0.0114868
0.0115446
0.0116164
0.0116799
0.0117386
0.0117555
0.0117337
0.0115917
0.011343
0.0108173
0.0100565
0.00877404
0.00710343
0.0113879
0.0115302
0.0115605
0.0116131
0.011671
0.0117429
0.0118065
0.011865
0.011881
0.0118578
0.0117144
0.0114623
0.0109318
0.0101652
0.00887392
0.00720195
0.0115139
0.0116563
0.0116867
0.0117395
0.0117976
0.0118697
0.0119335
0.0119917
0.0120069
0.0119823
0.0118374
0.011582
0.0110465
0.0102739
0.00897377
0.00730035
0.0116399
0.0117825
0.011813
0.0118661
0.0119244
0.0119966
0.0120608
0.0121186
0.0121332
0.0121072
0.0119609
0.0117021
0.0111616
0.0103827
0.00907363
0.00739873
0.011766
0.0119088
0.0119394
0.0119928
0.0120512
0.0121237
0.0121884
0.0122457
0.0122595
0.0122324
0.0120845
0.0118223
0.0112766
0.0104914
0.0091735
0.00749797
0.0118922
0.0120363
0.012067
0.0121206
0.0121791
0.0122519
0.0123169
0.0123734
0.0123869
0.0123584
0.0122088
0.0119433
0.0113923
0.0106008
0.00927418
0.00759755
0.0120195
0.0121643
0.012195
0.0122489
0.0123074
0.0123804
0.0124455
0.0125014
0.0125148
0.0124847
0.0123334
0.0120644
0.0115082
0.0107105
0.0093751
0.00769708
0.0121474
0.0122926
0.0123234
0.0123776
0.012436
0.0125094
0.0125742
0.0126288
0.0126429
0.0126114
0.0124581
0.012186
0.0116243
0.0108204
0.00947614
0.00779624
0.0122756
0.0124208
0.0124517
0.0125061
0.0125645
0.0126381
0.0127024
0.0127561
0.0127707
0.0127377
0.0125821
0.012307
0.0117398
0.0109297
0.0095766
0.00779541
0.0124036
0.012401
0.012431
0.0124847
0.0125433
0.012615
0.012678
0.0127265
0.0127342
0.0126824
0.012508
0.0121903
0.0115815
0.0107071
0.00923807
0.00735886
0.0123845
0.0120783
0.0121009
0.0121446
0.0121906
0.0122448
0.0122879
0.0123101
0.0122853
0.0121842
0.0119538
0.011545
0.0108518
0.00985245
0.00833254
0.0065248
0.012064
0.0114446
0.0114522
0.0114742
0.0114915
0.0115083
0.0115076
0.0114782
0.0113943
0.0112196
0.0109126
0.0104048
0.00964057
0.00856866
0.00715163
0.00560092
0.0114347
0.010523
0.0105088
0.0104992
0.0104741
0.0104361
0.0103708
0.0102677
0.0101022
0.00984048
0.00945481
0.00887343
0.00809288
0.00706109
0.00588283
0.00470763
0.0105195
0.00935133
0.00931098
0.00926368
0.00918862
0.00908727
0.00894617
0.00875613
0.00849499
0.00814151
0.00768355
0.00706351
0.00632179
0.00543256
0.00458469
0.00385119
0.0093559
0.00797911
0.00791186
0.00782571
0.00770103
0.00753974
0.00732754
0.00705457
0.00669804
0.00625812
0.00573655
0.00510461
0.00443546
0.00375168
0.00327978
0.00302505
0.00799268
0.00646188
0.00637317
0.00625319
0.00608623
0.00587768
0.0056131
0.00528001
0.00485066
0.0043428
0.00376961
0.00314703
0.00256825
0.00210592
0.00198708
0.00219378
0.00648243
0.00485841
0.0047626
0.00462238
0.00442508
0.00418178
0.00387878
0.00350702
0.00304137
0.00250642
0.00191827
0.00135272
0.000929687
0.000696138
0.000796974
0.00131601
0.0048807
0.00320515
0.00311261
0.00296746
0.00275471
0.00248545
0.00214397
0.00174132
0.00129565
0.000862643
0.000414428
4.4537e-05
0
0
0
0.000483026
0.00322622
0.00149554
0.00140495
0.00128329
0.00110466
0.000872765
0.000573738
0.000240508
0
0
0
0
0
0
0
0
0.00152072
4.85825e-05
0
0
0
0
0
0
0
0
0
0
0
0
0
0
7.51666e-05
0
0
0
0
0
0
0
0
0
0
0
0
0
0
0
0
0
0
0
0
0
0
0
0
0
0
0
0
0
0
0
0
0
0
0
0
0
0
0
0
0
0
0
0
0
0
0
0
0
0
0
0
0
0
0
0
0
0
0
0
0
0
0
0
0
0
0
0
0
0
0
0
0
0
0
0
0
0
0
0
0
0
0
0
0
0
0
0
0
0
0
0
0
0
0
0
0
0
0
0
0
0
0
0
0
0
0
0
0
0
0
0
0
0
0
0
0
0
0
0
0
0
0
0
0
0
0
0
0
0
0
0
0
0
0
0
0
0
0
0
0
0
0
0
0
0
0
0
0
0
0
0
0
0
0
0
0
0
0
0
0
0
0
0
0
0
0
0
0
0
0
0
0
0
0
0
0
0
0
0
0
0
0
0
0
0
0
0
0
0
0
0
0
0
0
0
0
0
0
0
0
0
0
0
0
0
0
0
0
0
0
0
0
0
0
0
0
0
0
0
0
0
0
0
0
0
0
0
0
0
0
0
0
0
0
0
0
0
0
0
0
0
0
0
0
0
0
0
0
0
0
0
0
0
0
0
0
0
0
0
0
0
0
0
0
0
0
0
0
0
0
0
0
0
0
0
0
0
0
0
0
0
0
0
0
0
0
0
0
0
0
0
0
0
0
0
0
0
0
0
0
0
0
0
0
0
0
0
0
0
0
0
0
0
0
0
0
0
0
0
0
0
0
0
0
0
0
0
0
0
0
0
0
0
0
0
0
0
0
0
0
0
0
0
0
0
0
0
0
0
0
0
0
0
0
0
0
0
0
0
0
0
0
0
0
0
0
0
0
0
0
0
0
0
0
0
0
0
0
0
0
0
0
0
0
0
0
0
0
0
0
0
0
0
0
0
0
0
0
0
0
0
0
0
0
0
0
0
0
0
0
0
0
0
0
0
0
0
0
0
0
0
0
0
0
0
0
0
0
0
0
0
0
0
0
0
0
0
0
0
0
0
0
0
0
0
0
0
0
0
0
0
0
0
0
0
0
0
0
0
0
0
0
0
0
0
0
0
0
0
0
0
0
0
0
0
0
0
0
0
0
0
0
0
0
0
0
0
0
0
0
0
0
0
0
0
0
0
0
0
0
0
0
0
0
0
0
0
0
0
0
0
0
0
0
0
0
0
0
0
0
0
0
0
0
0
0
0
0
0
0
0
0
0
0
0
0
0
0
0
0
0
0
0
0
0
0
0
0
0
0
0
0
0
0
0
0
0
0
0
0
0
0
0
0
0
0
0
0
0
0
0
0
0
0
0
0
0
0
0
0
0
0
0
0
0
0
0
0
0
0
0
0
0
0
0
0
0
0
0
0
0
0
0
0
0
0
0
0
0
0
0
0
0
0
0
0
0
0
0
0
0
0
0
0
0
0
0
0
0
0
0
0
0
0
0
0
0
0
0
0
0
0
0
0
0
0
0
0
0
0
0
0
0
0
0
0
0
0
0
0
0
0
0
0
0
0
0
0
0
0
0
0
0
0
0
0
0
0
0
0
0
0
0
0
0
0
0
0
0
0
0
0
0
0
0
0
0
0
0
0
0
0
0
0
0
0
0
0
0
0
0
0
0
0
0
0
0
0
0
0
0
0
0
0
0
0
0
0
0
0
0
0
0
0
0
0
0
0
0
0
0
0
0
0
0
0
0
0
0
0
0
0
0
0
0
0
0
0
0
0
0
0
0
0
0
0
0
0
0
0
0
0
0
0
0
0
0
0
0
0
0
0
0
0
0
0
0
0
0
0
0
0
0
0
0
0
0
0
0
0
0
0
0
0
0
0
0
0
0
0
0
0
0
0
0
0
0
0
0
0
0
0
0
0
0
0
0
0
0
0
0
)
;

boundaryField
{
    wireUpstream
    {
        type            calculated;
        value           uniform 0;
    }
    wireDownstream
    {
        type            calculated;
        value           nonuniform List<scalar> 
16
(
0.00594852
0.005975
0.00602326
0.00608023
0.00615013
0.00621941
0.00629621
0.00635194
0.00639109
0.00636333
0.00626105
0.00596557
0.00548874
0.00450282
0.00306386
0.00593709
)
;
    }
    wireTopContact
    {
        type            calculated;
        value           nonuniform List<scalar> 
122
(
0.00313056
0.00319597
0.0032615
0.00332807
0.00339422
0.00346032
0.00352536
0.00359958
0.00367509
0.00374987
0.00382454
0.00390053
0.00397679
0.00405271
0.00412946
0.00420694
0.0042843
0.00436309
0.00444403
0.00452499
0.00460577
0.00468658
0.00476729
0.00484807
0.00492821
0.00500878
0.00508916
0.00516954
0.00525162
0.00533294
0.00541409
0.00549594
0.00557805
0.00566046
0.00574338
0.00582443
0.00590522
0.00598794
0.00607125
0.0061544
0.00623686
0.00631985
0.00640642
0.00649325
0.00658027
0.00666774
0.00675565
0.0068449
0.00693557
0.00703391
0.00713213
0.00723022
0.00732827
0.00742718
0.00752643
0.00762562
0.00772444
0.0077484
0.00732994
0.00647701
0.00553299
0.00462904
0.00377127
0.00295448
0.00214348
0.00128993
0.000472214
0
0
0
0
0
0
0
0
0
0
0
0
0
0
0
0
0
0
0
0
0
0
0
0
0
0
0
0
0
0
0
0
0
0
0
0
0
0
0
0
0
0
0
0
0
0
0
0
0
0
0
0
0
0
0.00306569
)
;
    }
    front
    {
        type            wedge;
    }
    back
    {
        type            wedge;
    }
}


// ************************************************************************* //
