/*--------------------------------*- C++ -*----------------------------------*\
| =========                 |                                                 |
| \\      /  F ield         | foam-extend: Open Source CFD                    |
|  \\    /   O peration     | Version:     4.1-20200408                       |
|   \\  /    A nd           | Web:         http://www.foam-extend.org         |
|    \\/     M anipulation  |                                                 |
\*---------------------------------------------------------------------------*/
FoamFile
{
    version     2.0;
    format      ascii;
    class       volTensorField;
    location    "0.0200000";
    object      grad(DU);
}
// * * * * * * * * * * * * * * * * * * * * * * * * * * * * * * * * * * * * * //

dimensions      [0 0 0 0 0 0 0];

internalField   nonuniform List<tensor> 
1952
(
(-5.60163e-05 1.89994e-05 7.78215e-12 1.13282e-10 5.98968e-05 -1.41985e-12 -6.79365e-15 2.39557e-13 6.02724e-05)
(-5.57473e-05 3.00026e-05 5.31435e-12 -1.32828e-07 6.02492e-05 1.37389e-12 3.50404e-15 2.0661e-12 5.99396e-05)
(-5.5508e-05 4.45628e-05 -5.9088e-12 -2.9191e-07 5.9672e-05 9.97351e-12 6.54434e-15 -5.47337e-13 6.02537e-05)
(-5.48779e-05 5.6469e-05 -1.6297e-11 -3.80516e-07 5.98635e-05 -3.84233e-12 2.14216e-14 -2.78871e-12 5.981e-05)
(-5.42499e-05 7.35266e-05 6.95393e-12 -5.62896e-07 5.86451e-05 -1.93541e-11 -7.37683e-15 9.48749e-13 6.0098e-05)
(-5.30457e-05 8.43777e-05 2.90088e-11 -7.41338e-07 5.81485e-05 -2.77247e-12 -4.78697e-14 2.97936e-12 5.94326e-05)
(-5.18376e-05 0.000103231 3.4016e-12 -9.79451e-07 5.64728e-05 1.982e-11 4.18623e-15 1.84979e-12 5.9555e-05)
(-4.98817e-05 0.000113623 -1.70061e-11 -1.2676e-06 5.56722e-05 3.22891e-12 2.15639e-14 -4.67041e-13 5.87069e-05)
(-4.77147e-05 0.000135321 3.92084e-12 -1.70663e-06 5.36621e-05 -1.89158e-11 -6.43542e-15 4.81066e-13 5.87048e-05)
(-4.42871e-05 0.000145852 2.9244e-11 -2.41467e-06 5.24552e-05 4.03187e-12 3.0685e-14 3.93345e-13 5.77076e-05)
(-3.98169e-05 0.000172604 9.8748e-12 -3.87597e-06 5.02535e-05 1.89248e-11 -1.15075e-13 -1.03e-12 5.75777e-05)
(-3.20686e-05 0.000187954 -2.65692e-11 -7.18547e-06 4.74574e-05 -3.29847e-12 -4.232e-13 -1.2372e-13 5.64701e-05)
(-1.93198e-05 0.00022907 1.41522e-11 -1.73842e-05 4.2427e-05 -1.80137e-11 -3.28145e-14 1.97368e-13 5.60331e-05)
(7.23221e-06 0.000279156 3.9769e-12 -5.96318e-05 2.76822e-05 -2.78085e-12 7.62522e-12 2.38533e-12 5.44797e-05)
(7.04542e-05 0.000440346 4.60773e-11 -0.000267165 -1.63833e-05 3.60865e-12 1.73813e-11 4.21628e-12 5.22991e-05)
(-5.60547e-05 7.81322e-06 2.07555e-12 6.75188e-08 6.03346e-05 2.0484e-12 5.76175e-15 5.41602e-12 6.0101e-05)
(-4.52397e-05 1.32154e-05 3.42944e-16 -3.77185e-07 4.98597e-05 -1.18298e-12 -2.62507e-14 2.0301e-13 5.01667e-05)
(-4.47737e-05 2.14118e-05 -2.02802e-15 -5.10653e-07 4.97677e-05 1.14206e-12 -2.82076e-14 1.75626e-12 4.99098e-05)
(-4.43841e-05 3.04695e-05 -2.95545e-15 -8.19144e-07 4.90752e-05 8.26883e-12 2.38309e-14 -4.57845e-13 4.99335e-05)
(-4.35077e-05 3.90384e-05 2.59678e-15 -1.21995e-06 4.85623e-05 -3.16996e-12 6.52321e-14 -2.49528e-12 4.9526e-05)
(-4.25996e-05 4.90913e-05 4.78029e-15 -1.77505e-06 4.71982e-05 -1.59201e-11 -2.32604e-14 7.58911e-13 4.94156e-05)
(-4.10852e-05 5.79251e-05 -2.24989e-15 -2.34149e-06 4.60139e-05 -2.30235e-12 -1.41872e-13 2.68386e-12 4.87828e-05)
(-3.94415e-05 6.89741e-05 -1.11678e-14 -3.07512e-06 4.39295e-05 1.61294e-11 7.45205e-15 1.39342e-12 4.84748e-05)
(-3.694e-05 7.84256e-05 3.07423e-16 -4.02501e-06 4.1869e-05 2.64189e-12 3.33455e-14 -1.04904e-12 4.75995e-05)
(-3.39799e-05 9.11326e-05 5.94779e-15 -5.49362e-06 3.86595e-05 -1.51615e-11 -2.38753e-14 3.52782e-13 4.70364e-05)
(-2.95822e-05 0.000102086 -3.71072e-15 -7.77887e-06 3.49379e-05 3.16462e-12 1.14664e-13 1.22348e-12 4.58416e-05)
(-2.38464e-05 0.000117622 -1.3823e-14 -1.19774e-05 2.94654e-05 1.47412e-11 -3.0763e-13 -8.40059e-13 4.48722e-05)
(-1.53316e-05 0.000131836 -1.14072e-15 -1.96372e-05 2.16373e-05 -2.48949e-12 -7.80216e-13 -1.07436e-12 4.3155e-05)
(-3.8755e-06 0.00015124 9.13512e-15 -3.49847e-05 1.05849e-05 -1.33094e-11 -8.78078e-14 8.13805e-14 4.13601e-05)
(9.93057e-06 0.000168568 2.53032e-15 -6.46809e-05 -6.46968e-06 -1.97544e-12 3.39709e-12 2.03355e-12 3.85884e-05)
(8.42421e-06 0.000182982 -5.41258e-15 -0.000131679 -1.74014e-05 3.71949e-12 4.25913e-12 1.41946e-13 3.51195e-05)
(-4.53567e-05 5.63837e-06 -2.58769e-16 -1.52802e-07 5.01859e-05 1.70744e-12 -7.70799e-15 4.5103e-12 5.00963e-05)
(-3.14564e-05 1.29429e-05 2.31235e-16 -6.78502e-07 4.05389e-05 -9.62357e-13 -5.2454e-14 1.63542e-13 4.08159e-05)
(-3.08986e-05 2.10551e-05 -1.4159e-15 -1.08625e-06 4.01722e-05 9.29287e-13 -4.18386e-14 1.45072e-12 4.05942e-05)
(-3.02675e-05 2.969e-05 -2.66534e-15 -1.69061e-06 3.93213e-05 6.69844e-12 4.15597e-14 -3.66425e-13 4.04459e-05)
(-2.91569e-05 3.81601e-05 2.04177e-15 -2.36491e-06 3.84071e-05 -2.56157e-12 1.19683e-13 -2.10486e-12 4.00179e-05)
(-2.79689e-05 4.74119e-05 4.24754e-15 -3.2687e-06 3.68962e-05 -1.27865e-11 -4.37634e-14 5.92667e-13 3.96865e-05)
(-2.61868e-05 5.61695e-05 -1.86615e-15 -4.27627e-06 3.52465e-05 -1.84195e-12 -2.29823e-13 2.25639e-12 3.90317e-05)
(-2.4167e-05 6.61055e-05 -8.79139e-15 -5.62797e-06 3.2843e-05 1.28016e-11 1.83103e-15 1.05438e-12 3.84699e-05)
(-2.12874e-05 7.53368e-05 -6.68799e-16 -7.40469e-06 3.0091e-05 2.08357e-12 8.10388e-15 -1.18272e-12 3.75357e-05)
(-1.78668e-05 8.61567e-05 6.45169e-15 -1.00036e-05 2.62912e-05 -1.18174e-11 -4.53365e-14 2.49062e-13 3.66597e-05)
(-1.32167e-05 9.6037e-05 -3.71179e-15 -1.38884e-05 2.17036e-05 2.44008e-12 1.92881e-13 1.32699e-12 3.53411e-05)
(-7.51088e-06 0.000107581 -1.0233e-14 -2.01205e-05 1.55457e-05 1.11705e-11 -4.08836e-13 -6.56914e-13 3.40009e-05)
(-4.89636e-07 0.000117573 -1.01594e-15 -3.01389e-05 7.9159e-06 -1.85249e-12 -8.48601e-13 -9.50057e-13 3.2112e-05)
(7.15051e-06 0.000127304 6.82881e-15 -4.66955e-05 -1.28746e-06 -9.67781e-12 -1.29833e-13 2.55829e-14 3.00739e-05)
(1.24377e-05 0.000132815 1.91983e-15 -7.33731e-05 -1.10242e-05 -1.40495e-12 2.34283e-12 6.33193e-13 2.74452e-05)
(8.98406e-06 0.000129851 -4.09347e-15 -0.000107905 -1.51592e-05 2.70112e-12 1.10492e-12 -6.82471e-14 2.47213e-05)
(-3.15672e-05 5.53352e-06 -1.90064e-16 -2.30605e-07 4.08155e-05 1.39062e-12 -9.75562e-15 3.6706e-12 4.07906e-05)
(-1.98381e-05 1.18081e-05 1.98831e-16 -1.10106e-06 3.19894e-05 -7.61181e-13 -8.09105e-14 1.21659e-13 3.22878e-05)
(-1.92222e-05 1.92404e-05 -1.07657e-15 -1.77608e-06 3.14878e-05 7.34108e-13 -6.30969e-14 1.15439e-12 3.20559e-05)
(-1.85167e-05 2.69383e-05 -1.91367e-15 -2.66312e-06 3.05563e-05 5.27217e-12 6.11755e-14 -2.80142e-13 3.18309e-05)
(-1.73498e-05 3.45975e-05 1.60726e-15 -3.65127e-06 2.94338e-05 -2.00888e-12 1.75096e-13 -1.692e-12 3.13812e-05)
(-1.60547e-05 4.25958e-05 2.97176e-15 -4.91648e-06 2.77805e-05 -9.97028e-12 -6.68756e-14 4.48101e-13 3.09438e-05)
(-1.42194e-05 5.04233e-05 -1.44201e-15 -6.36658e-06 2.58718e-05 -1.42739e-12 -3.24208e-13 1.77619e-12 3.02508e-05)
(-1.21432e-05 5.8703e-05 -6.10292e-15 -8.2693e-06 2.32773e-05 9.83819e-12 -1.49593e-14 7.9745e-13 2.95622e-05)
(-9.37483e-06 6.66471e-05 -3.00809e-16 -1.07156e-05 2.02662e-05 1.58628e-12 1.19349e-14 -1.05232e-12 2.85745e-05)
(-6.23122e-06 7.50329e-05 4.31962e-15 -1.40789e-05 1.63478e-05 -8.88571e-12 -6.83331e-14 1.68467e-13 2.75639e-05)
(-2.3625e-06 8.27309e-05 -2.45781e-15 -1.88158e-05 1.18405e-05 1.80913e-12 1.40098e-13 1.06023e-12 2.6199e-05)
(1.83905e-06 9.03839e-05 -6.63106e-15 -2.5562e-05 6.22655e-06 8.14124e-12 -3.98593e-13 -5.087e-13 2.47791e-05)
(5.9173e-06 9.64223e-05 -7.77458e-16 -3.5309e-05 3.31524e-07 -1.32406e-12 -6.12744e-13 -5.29058e-13 2.29512e-05)
(8.77871e-06 0.000100612 4.24404e-15 -4.88062e-05 -5.92667e-06 -6.79222e-12 -1.4714e-13 -7.9594e-16 2.11063e-05)
(6.95282e-06 0.000101382 1.41263e-15 -6.66008e-05 -9.35346e-06 -9.68697e-13 8.37404e-13 -4.75554e-13 1.89234e-05)
(-3.92029e-06 9.69789e-05 -2.61288e-15 -8.49594e-05 -7.76395e-06 1.92858e-12 1.87131e-13 -1.58793e-13 1.71434e-05)
(-1.9993e-05 5.05347e-06 -1.36283e-16 -4.08064e-07 3.22751e-05 1.10094e-12 -1.6918e-14 2.9041e-12 3.22861e-05)
(-9.11324e-06 1.06178e-05 1.6199e-16 -1.51992e-06 2.42045e-05 -5.77591e-13 -1.08253e-13 8.50844e-14 2.45032e-05)
(-8.52594e-06 1.72779e-05 -7.85872e-16 -2.49829e-06 2.36508e-05 5.56112e-13 -7.95996e-14 8.80371e-13 2.42745e-05)
(-7.80684e-06 2.40851e-05 -1.31708e-15 -3.67993e-06 2.26891e-05 3.97844e-12 8.04808e-14 -2.0211e-13 2.40179e-05)
(-6.69139e-06 3.08535e-05 1.21187e-15 -4.97816e-06 2.14979e-05 -1.50856e-12 2.23855e-13 -1.29197e-12 2.35636e-05)
(-5.42493e-06 3.77261e-05 1.99104e-15 -6.59058e-06 1.98223e-05 -7.43955e-12 -9.10643e-14 3.22186e-13 2.30884e-05)
(-3.72068e-06 4.44436e-05 -1.06463e-15 -8.42936e-06 1.78759e-05 -1.05646e-12 -4.19037e-13 1.31191e-12 2.23928e-05)
(-1.83287e-06 5.12317e-05 -4.05668e-15 -1.07762e-05 1.53434e-05 7.21315e-12 -4.00505e-14 5.81541e-13 2.16727e-05)
(5.33026e-07 5.76568e-05 -8.98317e-17 -1.36945e-05 1.24708e-05 1.14937e-12 4.45923e-14 -8.25323e-13 2.07029e-05)
(3.04261e-06 6.39595e-05 2.76556e-15 -1.74725e-05 8.922e-06 -6.35072e-12 -8.94129e-14 1.05681e-13 1.96995e-05)
(5.8182e-06 6.94626e-05 -1.55417e-15 -2.24955e-05 5.10918e-06 1.27205e-12 1.35352e-14 7.05965e-13 1.84189e-05)
(8.35179e-06 7.42799e-05 -4.11728e-15 -2.89587e-05 7.17057e-07 5.62495e-12 -3.42794e-13 -3.65239e-13 1.71195e-05)
(1.00336e-05 7.74415e-05 -5.56334e-16 -3.755e-05 -3.20312e-06 -8.96752e-13 -3.34271e-13 -1.71566e-13 1.55438e-05)
(9.86215e-06 7.88686e-05 2.54575e-15 -4.77785e-05 -6.75033e-06 -4.52758e-12 -1.52253e-13 -1.15742e-14 1.40688e-05)
(5.50915e-06 7.77106e-05 9.70808e-16 -5.97159e-05 -7.24773e-06 -6.36569e-13 9.36333e-14 -7.58609e-13 1.24356e-05)
(-4.58386e-06 7.48853e-05 -1.58558e-15 -6.87488e-05 -4.67498e-06 1.26613e-12 -3.32437e-13 -9.57543e-14 1.12955e-05)
(-9.27211e-06 4.54694e-06 -9.30597e-17 -5.92789e-07 2.44847e-05 8.36073e-13 -2.39748e-14 2.20418e-12 2.45137e-05)
(-1.05437e-08 9.29623e-06 1.2353e-16 -1.91757e-06 1.73279e-05 -4.15208e-13 -1.34209e-13 5.36713e-14 1.76166e-05)
(5.08767e-07 1.51051e-05 -5.44768e-16 -3.17392e-06 1.67783e-05 3.98714e-13 -9.48095e-14 6.35097e-13 1.73974e-05)
(1.15833e-06 2.09769e-05 -8.60425e-16 -4.61523e-06 1.585e-05 2.83939e-12 9.73673e-14 -1.34898e-13 1.71402e-05)
(2.12554e-06 2.67742e-05 8.6281e-16 -6.183e-06 1.46972e-05 -1.06958e-12 2.68092e-13 -9.27559e-13 1.67048e-05)
(3.22103e-06 3.2531e-05 1.26233e-15 -8.07292e-06 1.31127e-05 -5.23333e-12 -1.12577e-13 2.15795e-13 1.62408e-05)
(4.63178e-06 3.80835e-05 -7.39427e-16 -1.01844e-05 1.12984e-05 -7.35032e-13 -5.0902e-13 8.95238e-13 1.55827e-05)
(6.12286e-06 4.34868e-05 -2.54479e-15 -1.27928e-05 9.01419e-06 4.95965e-12 -6.79033e-14 4.01049e-13 1.49008e-05)
(7.87097e-06 4.84583e-05 1.09713e-17 -1.59043e-05 6.51735e-06 7.77849e-13 1.12035e-13 -5.76171e-13 1.40105e-05)
(9.51897e-06 5.30416e-05 1.66349e-15 -1.97072e-05 3.57803e-06 -4.22503e-12 -1.05475e-13 5.81085e-14 1.31053e-05)
(1.10761e-05 5.67851e-05 -9.20914e-16 -2.44735e-05 6.55031e-07 8.2818e-13 -1.65178e-13 3.75439e-13 1.19899e-05)
(1.19811e-05 5.97067e-05 -2.38923e-15 -3.00515e-05 -2.4543e-06 3.58327e-12 -2.64442e-13 -2.46733e-13 1.09052e-05)
(1.17174e-05 6.11928e-05 -3.60596e-16 -3.69027e-05 -4.71233e-06 -5.56452e-13 -4.33909e-14 8.28936e-14 9.64479e-06)
(9.41584e-06 6.14334e-05 1.41754e-15 -4.39268e-05 -6.32465e-06 -2.75505e-12 -1.45818e-13 -1.53832e-14 8.56071e-06)
(3.76122e-06 5.99772e-05 5.98334e-16 -5.10694e-05 -5.16966e-06 -3.79694e-13 -4.14536e-13 -8.50388e-13 7.4177e-06)
(-6.03993e-06 5.81236e-05 -8.92617e-16 -5.46813e-05 -2.07663e-06 7.64094e-13 -5.04893e-13 -6.73388e-14 6.77326e-06)
(-1.61251e-07 3.98267e-06 -6.02745e-17 -7.80759e-07 1.75954e-05 6.01528e-13 -3.09771e-14 1.58485e-12 1.76336e-05)
(7.67241e-06 7.96034e-06 8.57624e-17 -2.2545e-06 1.13926e-05 -2.74685e-13 -1.53953e-13 2.81195e-14 1.1656e-05)
(8.0868e-06 1.29095e-05 -3.486e-16 -3.74977e-06 1.08895e-05 2.62682e-13 -1.06523e-13 4.21523e-13 1.14569e-05)
(8.61756e-06 1.78644e-05 -5.19149e-16 -5.40143e-06 1.00447e-05 1.85892e-12 1.10629e-13 -7.8822e-14 1.12208e-05)
(9.37279e-06 2.27075e-05 5.61625e-16 -7.17173e-06 9.01119e-06 -6.93243e-13 3.05567e-13 -6.06538e-13 1.08254e-05)
(1.02117e-05 2.74213e-05 7.34479e-16 -9.25453e-06 7.61032e-06 -3.35392e-12 -1.30099e-13 1.28143e-13 1.0408e-05)
(1.12426e-05 3.18805e-05 -4.65665e-16 -1.15138e-05 6.04579e-06 -4.63167e-13 -5.8797e-13 5.37589e-13 9.82192e-06)
(1.22463e-05 3.60754e-05 -1.45039e-15 -1.42198e-05 4.13358e-06 3.0711e-12 -9.32129e-14 2.51954e-13 9.22613e-06)
(1.33268e-05 3.97945e-05 4.20226e-17 -1.73057e-05 2.13494e-06 4.6974e-13 1.99004e-13 -3.4228e-13 8.46114e-06)
(1.4124e-05 4.30356e-05 8.94965e-16 -2.08795e-05 -1.04059e-07 -2.48504e-12 -1.15589e-13 2.30708e-14 7.70793e-06)
(1.46217e-05 4.54715e-05 -4.82325e-16 -2.51085e-05 -2.14046e-06 4.6996e-13 -3.47425e-13 1.08927e-13 6.80239e-06)
(1.42793e-05 4.71663e-05 -1.2085e-15 -2.96215e-05 -4.11379e-06 1.96084e-12 -1.8982e-13 -1.53376e-13 5.96734e-06)
(1.27747e-05 4.77062e-05 -1.94592e-16 -3.47753e-05 -5.15456e-06 -2.90187e-13 1.92011e-13 2.31308e-13 5.0292e-06)
(9.43074e-06 4.74918e-05 6.61311e-16 -3.92187e-05 -5.53199e-06 -1.38268e-12 -1.34235e-13 -1.61213e-14 4.29627e-06)
(3.6607e-06 4.61985e-05 2.9417e-16 -4.31036e-05 -3.76501e-06 -1.81934e-13 -6.73405e-13 -7.86282e-13 3.55455e-06)
(-4.82798e-06 4.52435e-05 -4.06878e-16 -4.33916e-05 -9.26039e-07 3.69137e-13 -5.77782e-13 -3.86106e-14 3.24493e-06)
(7.54525e-06 3.4117e-06 -3.61584e-17 -9.47043e-07 1.16348e-05 3.98341e-13 -4.16485e-14 1.04872e-12 1.16752e-05)
(1.38808e-05 6.66729e-06 5.06126e-17 -2.51158e-06 6.38477e-06 -1.55828e-13 -1.68975e-13 7.81797e-15 6.61355e-06)
(1.41715e-05 1.07913e-05 -1.91385e-16 -4.18542e-06 5.95567e-06 1.47769e-13 -1.14999e-13 2.39799e-13 6.44098e-06)
(1.45489e-05 1.4882e-05 -2.6849e-16 -5.98396e-06 5.23023e-06 1.03383e-12 1.20157e-13 -3.32954e-14 6.24011e-06)
(1.50583e-05 1.88353e-05 3.07546e-16 -7.87717e-06 4.36532e-06 -3.77928e-13 3.3527e-13 -3.32264e-13 5.89971e-06)
(1.55945e-05 2.26117e-05 3.5921e-16 -1.00586e-05 3.20275e-06 -1.78868e-12 -1.42291e-13 5.75424e-14 5.55059e-06)
(1.62124e-05 2.61076e-05 -2.39971e-16 -1.23438e-05 1.94703e-06 -2.38375e-13 -6.51265e-13 2.41171e-13 5.05798e-06)
(1.67071e-05 2.92951e-05 -6.69219e-16 -1.50036e-05 4.54467e-07 1.52275e-12 -1.12583e-13 1.31388e-13 4.57419e-06)
(1.71458e-05 3.20095e-05 3.30294e-17 -1.78932e-05 -1.0238e-06 2.19601e-13 2.93507e-13 -1.41392e-13 3.95644e-06)
(1.71805e-05 3.42557e-05 3.63192e-16 -2.10714e-05 -2.59191e-06 -1.08817e-12 -1.1952e-13 -2.26318e-15 3.37513e-06)
(1.68165e-05 3.57942e-05 -1.78383e-16 -2.46172e-05 -3.86004e-06 1.85756e-13 -5.12303e-13 -8.93572e-14 2.68734e-06)
(1.55616e-05 3.67472e-05 -3.97855e-16 -2.80483e-05 -4.93567e-06 6.88426e-13 -1.27306e-13 -8.41675e-14 2.095e-06)
(1.32842e-05 3.68299e-05 -5.75248e-17 -3.16792e-05 -5.14111e-06 -8.35471e-14 3.71756e-13 3.10545e-13 1.44721e-06)
(9.45294e-06 3.65136e-05 1.45968e-16 -3.41242e-05 -4.77471e-06 -3.23587e-13 -1.19641e-13 -1.57676e-14 1.00544e-06)
(3.95138e-06 3.55372e-05 4.86861e-17 -3.57424e-05 -2.81097e-06 -2.94549e-14 -8.04285e-13 -6.95048e-13 5.75912e-07)
(-3.37578e-06 3.51042e-05 -6.45618e-17 -3.40433e-05 -2.95045e-07 6.6213e-14 -5.77507e-13 -2.38332e-14 5.05126e-07)
(1.37853e-05 2.85854e-06 -1.87816e-17 -1.07955e-06 6.59422e-06 2.2632e-13 -4.61989e-14 5.95113e-13 6.63211e-06)
(1.87715e-05 5.46734e-06 1.92751e-17 -2.67776e-06 2.2504e-06 -5.74349e-14 -1.78898e-13 -7.79637e-15 2.43863e-06)
(1.89316e-05 8.83102e-06 -6.69839e-17 -4.46346e-06 1.91087e-06 5.27818e-14 -1.20524e-13 8.86552e-14 2.29664e-06)
(1.91445e-05 1.21381e-05 -8.64711e-17 -6.34338e-06 1.32378e-06 3.54365e-13 1.25464e-13 2.78989e-15 2.13892e-06)
(1.94023e-05 1.52963e-05 9.75491e-17 -8.2799e-06 6.51682e-07 -1.19403e-13 3.57733e-13 -1.03728e-13 1.86149e-06)
(1.96317e-05 1.82595e-05 9.55631e-17 -1.04759e-05 -2.50196e-07 -5.12857e-13 -1.48735e-13 1.90841e-15 1.59157e-06)
(1.98534e-05 2.09416e-05 -5.71629e-17 -1.26884e-05 -1.18137e-06 -5.64444e-14 -6.96899e-13 2.26289e-15 1.20191e-06)
(1.98796e-05 2.33155e-05 -1.15743e-16 -1.52008e-05 -2.2572e-06 2.79568e-13 -1.24256e-13 3.61078e-14 8.39496e-07)
(1.97664e-05 2.52537e-05 4.09828e-18 -1.7793e-05 -3.24952e-06 2.06049e-14 3.84912e-13 2.18799e-14 3.73181e-07)
(1.91907e-05 2.67807e-05 -3.81217e-18 -2.05059e-05 -4.23069e-06 1.21795e-14 -1.18558e-13 -2.02071e-14 -3.76946e-08)
(1.82e-05 2.77217e-05 3.28458e-17 -2.33521e-05 -4.88219e-06 -3.58479e-14 -6.45974e-13 -2.28184e-13 -5.20832e-07)
(1.63636e-05 2.82373e-05 1.62019e-16 -2.58122e-05 -5.29299e-06 -2.94808e-13 -8.08121e-14 -3.47082e-14 -8.97039e-07)
(1.37045e-05 2.81245e-05 5.27885e-17 -2.82005e-05 -4.96751e-06 7.49274e-14 4.952e-13 3.42916e-13 -1.29985e-06)
(9.8078e-06 2.78541e-05 -2.10138e-16 -2.91817e-05 -4.19857e-06 4.86992e-13 -1.04244e-13 -1.52329e-14 -1.51307e-06)
(4.82216e-06 2.7194e-05 -1.47032e-16 -2.93131e-05 -2.29519e-06 8.7521e-14 -8.46003e-13 -5.94306e-13 -1.70916e-06)
(-1.34161e-06 2.7139e-05 1.82121e-16 -2.64594e-05 -1.79493e-07 -1.67796e-13 -5.47267e-13 -1.41931e-14 -1.61952e-06)
(1.87116e-05 2.34488e-06 -6.42866e-18 -1.17084e-06 2.4223e-06 8.37926e-14 -5.14098e-14 2.19504e-13 2.45481e-06)
(2.24763e-05 4.39162e-06 -7.67685e-18 -2.75168e-06 -1.09206e-06 2.23244e-14 -1.82708e-13 -1.95097e-14 -9.46132e-07)
(2.25102e-05 7.07915e-06 3.04028e-17 -4.58137e-06 -1.33684e-06 -2.41036e-14 -1.2266e-13 -3.44024e-14 -1.05649e-06)
(2.25621e-05 9.69867e-06 4.48777e-17 -6.48034e-06 -1.78087e-06 -1.93629e-13 1.26748e-13 3.07816e-14 -1.16832e-06)
(2.25833e-05 1.21707e-05 -7.27959e-17 -8.38814e-06 -2.25722e-06 8.81954e-14 3.71933e-13 8.21705e-14 -1.38099e-06)
(2.25279e-05 1.44503e-05 -8.85748e-17 -1.05284e-05 -2.90228e-06 5.05989e-13 -1.49657e-13 -4.10726e-14 -1.56981e-06)
(2.23979e-05 1.64678e-05 8.87594e-17 -1.25939e-05 -3.52468e-06 8.78654e-14 -7.23401e-13 -1.85505e-13 -1.85714e-06)
(2.2024e-05 1.82039e-05 2.76558e-16 -1.48934e-05 -4.22081e-06 -6.99432e-13 -1.2716e-13 -3.75652e-14 -2.10128e-06)
(2.14674e-05 1.95621e-05 -3.15692e-17 -1.7137e-05 -4.79306e-06 -1.34815e-13 4.66254e-13 1.48866e-13 -2.42506e-06)
(2.0434e-05 2.05841e-05 -2.58451e-16 -1.93734e-05 -5.29394e-06 8.64391e-13 -1.13277e-13 -3.27335e-14 -2.68074e-06)
(1.90178e-05 2.11439e-05 1.81251e-16 -2.15668e-05 -5.47854e-06 -2.06064e-13 -7.45381e-13 -3.20615e-13 -2.98467e-06)
(1.68465e-05 2.14159e-05 5.53314e-16 -2.32067e-05 -5.42234e-06 -1.04511e-12 -4.96497e-14 -4.47752e-16 -3.18005e-06)
(1.40549e-05 2.12509e-05 1.39944e-16 -2.4625e-05 -4.78048e-06 1.95287e-13 5.72983e-13 3.48606e-13 -3.38621e-06)
(1.03092e-05 2.10753e-05 -4.60998e-16 -2.45711e-05 -3.81908e-06 1.10291e-12 -8.91564e-14 -1.48634e-14 -3.42665e-06)
(5.90314e-06 2.06796e-05 -3.01485e-16 -2.37558e-05 -2.0777e-06 1.76776e-13 -8.36894e-13 -5.03854e-13 -3.4527e-06)
(7.5406e-07 2.0855e-05 3.62364e-16 -2.02889e-05 -3.26497e-07 -3.46408e-13 -5.00026e-13 -1.01361e-14 -3.25641e-06)
(2.24523e-05 1.88414e-06 2.29066e-18 -1.21868e-06 -9.58867e-07 -3.18386e-14 -5.06526e-14 -8.50497e-14 -9.33359e-07)
(2.51786e-05 3.45685e-06 -3.01641e-17 -2.73895e-06 -3.73946e-06 8.56666e-14 -1.80797e-13 -2.80617e-14 -3.63459e-06)
(2.50979e-05 5.56113e-06 1.05929e-16 -4.54984e-06 -3.89191e-06 -8.50739e-14 -1.2129e-13 -1.32517e-13 -3.71438e-06)
(2.50042e-05 7.59486e-06 1.39571e-16 -6.4137e-06 -4.19892e-06 -6.26653e-13 1.25266e-13 5.20545e-14 -3.78141e-06)
(2.48174e-05 9.4916e-06 -2.08535e-16 -8.23275e-06 -4.49078e-06 2.51549e-13 3.78373e-13 2.30099e-13 -3.93221e-06)
(2.45163e-05 1.12115e-05 -2.17299e-16 -1.02649e-05 -4.8998e-06 1.30344e-12 -1.45901e-13 -7.36298e-14 -4.04407e-06)
(2.40951e-05 1.27e-05 2.03799e-16 -1.21344e-05 -5.24704e-06 2.00098e-13 -7.32817e-13 -3.29794e-13 -4.2365e-06)
(2.34036e-05 1.39466e-05 5.55755e-16 -1.41882e-05 -5.61688e-06 -1.45577e-12 -1.21592e-13 -9.32773e-14 -4.37295e-06)
(2.2516e-05 1.48805e-05 -6.66543e-17 -1.60724e-05 -5.84502e-06 -2.53994e-13 5.33847e-13 2.44259e-13 -4.57049e-06)
(2.11686e-05 1.55537e-05 -4.36325e-16 -1.78623e-05 -5.97141e-06 1.51315e-12 -1.04746e-13 -4.13353e-14 -4.69267e-06)
(1.94972e-05 1.58763e-05 2.86578e-16 -1.94873e-05 -5.81921e-06 -3.34767e-13 -8.12219e-13 -3.78818e-13 -4.84726e-06)
(1.71801e-05 1.6019e-05 8.29274e-16 -2.047e-05 -5.45119e-06 -1.60978e-12 -3.18447e-14 2.25603e-14 -4.89805e-06)
(1.44273e-05 1.58688e-05 2.07656e-16 -2.1167e-05 -4.64221e-06 2.85632e-13 6.15141e-13 3.39288e-13 -4.95231e-06)
(1.09611e-05 1.57932e-05 -6.39787e-16 -2.04137e-05 -3.61962e-06 1.56654e-12 -7.49256e-14 -1.47766e-14 -4.86696e-06)
(7.14373e-06 1.56036e-05 -4.22926e-16 -1.90394e-05 -2.08605e-06 2.4438e-13 -7.9729e-13 -4.25953e-13 -4.77326e-06)
(2.88723e-06 1.5926e-05 4.95635e-16 -1.5314e-05 -6.64264e-07 -4.82252e-13 -4.4606e-13 -9.09032e-15 -4.51071e-06)
(2.51878e-05 1.48358e-06 8.41931e-18 -1.22481e-06 -3.64358e-06 -1.23744e-13 -5.05604e-14 -3.26976e-13 -3.62565e-06)
(2.70531e-05 2.66765e-06 -4.84642e-17 -2.64963e-06 -5.79456e-06 1.34966e-13 -1.73754e-13 -3.41439e-14 -5.72736e-06)
(2.68741e-05 4.28305e-06 1.63941e-16 -4.38722e-06 -5.86225e-06 -1.32461e-13 -1.17478e-13 -2.09163e-13 -5.77921e-06)
(2.66559e-05 5.83112e-06 2.07938e-16 -6.17147e-06 -6.04524e-06 -9.62039e-13 1.19926e-13 6.79004e-14 -5.80505e-06)
(2.62964e-05 7.2584e-06 -3.14957e-16 -7.85513e-06 -6.1727e-06 3.77551e-13 3.77215e-13 3.4528e-13 -5.89991e-06)
(2.57951e-05 8.53099e-06 -3.07804e-16 -9.74282e-06 -6.37585e-06 1.91545e-12 -1.38664e-13 -9.78219e-14 -5.94279e-06)
(2.51466e-05 9.60852e-06 2.93502e-16 -1.13883e-05 -6.48999e-06 2.85709e-13 -7.26873e-13 -4.38211e-13 -6.05169e-06)
(2.42177e-05 1.04873e-05 7.55354e-16 -1.31868e-05 -6.59211e-06 -2.02921e-12 -1.09162e-13 -1.3455e-13 -6.09508e-06)
(2.31003e-05 1.11173e-05 -9.78807e-17 -1.47261e-05 -6.55062e-06 -3.43748e-13 5.86537e-13 3.13474e-13 -6.18592e-06)
(2.15572e-05 1.1554e-05 -5.61342e-16 -1.61204e-05 -6.397e-06 1.99872e-12 -9.41753e-14 -4.71596e-14 -6.19838e-06)
(1.97591e-05 1.17344e-05 3.61851e-16 -1.72727e-05 -6.01306e-06 -4.30574e-13 -8.51488e-13 -4.12844e-13 -6.23349e-06)
(1.7425e-05 1.1814e-05 1.02501e-15 -1.77503e-05 -5.44855e-06 -2.0289e-12 -2.48131e-14 3.75529e-14 -6.17303e-06)
(1.48118e-05 1.17059e-05 2.5966e-16 -1.79339e-05 -4.57001e-06 3.52642e-13 6.3109e-13 3.22829e-13 -6.11392e-06)
(1.16796e-05 1.17156e-05 -7.67519e-16 -1.67361e-05 -3.56167e-06 1.91208e-12 -6.20058e-14 -1.49588e-14 -5.94033e-06)
(8.41655e-06 1.1676e-05 -5.18542e-16 -1.50737e-05 -2.24213e-06 2.9516e-13 -7.41521e-13 -3.61726e-13 -5.76516e-06)
(4.92281e-06 1.20791e-05 5.94286e-16 -1.13216e-05 -1.10115e-06 -5.84556e-13 -3.90197e-13 -1.03681e-14 -5.46482e-06)
(2.70914e-05 1.14526e-06 1.26758e-17 -1.19351e-06 -5.73273e-06 -1.95335e-13 -5.10598e-14 -5.15319e-13 -5.72228e-06)
(2.82752e-05 2.02004e-06 -6.30203e-17 -2.49611e-06 -7.35899e-06 1.72591e-13 -1.63379e-13 -3.83568e-14 -7.3248e-06)
(2.80157e-05 3.23693e-06 2.08072e-16 -4.11541e-06 -7.35219e-06 -1.68579e-13 -1.11603e-13 -2.67883e-13 -7.35223e-06)
(2.76967e-05 4.39305e-06 2.57467e-16 -5.786e-06 -7.42786e-06 -1.21677e-12 1.12984e-13 7.94833e-14 -7.34182e-06)
(2.72008e-05 5.44703e-06 -3.97268e-16 -7.30022e-06 -7.41489e-06 4.72869e-13 3.70091e-13 4.33236e-13 -7.38833e-06)
(2.65452e-05 6.37076e-06 -3.71866e-16 -9.0216e-06 -7.44573e-06 2.37614e-12 -1.27629e-13 -1.15449e-13 -7.37191e-06)
(2.57296e-05 7.13601e-06 3.62828e-16 -1.04315e-05 -7.37006e-06 3.49781e-13 -7.08318e-13 -5.18065e-13 -7.41034e-06)
(2.46355e-05 7.74368e-06 8.98705e-16 -1.19816e-05 -7.26061e-06 -2.45593e-12 -9.07364e-14 -1.64432e-13 -7.3764e-06)
(2.33732e-05 8.16015e-06 -1.24037e-16 -1.32061e-05 -7.01572e-06 -4.10134e-13 6.25648e-13 3.62249e-13 -7.38048e-06)
(2.17275e-05 8.4392e-06 -6.49752e-16 -1.42646e-05 -6.66067e-06 2.35594e-12 -8.23043e-14 -5.10348e-14 -7.30595e-06)
(1.98971e-05 8.53737e-06 4.15985e-16 -1.504e-05 -6.1258e-06 -5.00758e-13 -8.68253e-13 -4.30632e-13 -7.24872e-06)
(1.76311e-05 8.58996e-06 1.16472e-15 -1.5146e-05 -5.44736e-06 -2.33551e-12 -2.6239e-14 4.68798e-14 -7.1056e-06)
(1.52147e-05 8.52927e-06 2.99494e-16 -1.49851e-05 -4.56148e-06 4.0172e-13 6.28434e-13 3.03808e-13 -6.96471e-06)
(1.2432e-05 8.60366e-06 -8.59331e-16 -1.35335e-05 -3.60907e-06 2.16695e-12 -5.0426e-14 -1.53586e-14 -6.73196e-06)
(9.67415e-06 8.66796e-06 -5.93614e-16 -1.17728e-05 -2.49371e-06 3.32989e-13 -6.78094e-13 -3.09741e-13 -6.50403e-06)
(6.82929e-06 9.10783e-06 6.67679e-16 -8.14567e-06 -1.58992e-06 -6.61091e-13 -3.35709e-13 -1.29651e-14 -6.18611e-06)
(2.83376e-05 8.67526e-07 1.56556e-17 -1.13044e-06 -7.32689e-06 -2.50021e-13 -4.53885e-14 -6.59101e-13 -7.32338e-06)
(2.90035e-05 1.50408e-06 -7.43729e-17 -2.29116e-06 -8.52834e-06 2.00786e-13 -1.49252e-13 -4.1192e-14 -8.52211e-06)
(2.8681e-05 2.40553e-06 2.41459e-16 -3.7571e-06 -8.45839e-06 -1.95613e-13 -1.03992e-13 -3.12057e-13 -8.5289e-06)
(2.82836e-05 3.25412e-06 2.93702e-16 -5.28927e-06 -8.44433e-06 -1.40675e-12 1.03791e-13 8.77921e-14 -8.48772e-06)
(2.76854e-05 4.01948e-06 -4.60345e-16 -6.61115e-06 -8.31551e-06 5.43673e-13 3.57122e-13 4.99119e-13 -8.49386e-06)
(2.69166e-05 4.67806e-06 -4.17616e-16 -8.15545e-06 -8.20673e-06 2.71669e-12 -1.14924e-13 -1.28053e-13 -8.42823e-06)
(2.59859e-05 5.21209e-06 4.16092e-16 -9.3297e-06 -7.98158e-06 3.96874e-13 -6.79786e-13 -5.75625e-13 -8.40907e-06)
(2.47856e-05 5.62454e-06 1.00204e-15 -1.06484e-05 -7.71013e-06 -2.76791e-12 -6.73028e-14 -1.85656e-13 -8.313e-06)
(2.34445e-05 5.8946e-06 -1.45193e-16 -1.15953e-05 -7.31703e-06 -4.58397e-13 6.52571e-13 3.95342e-13 -8.24866e-06)
(2.17642e-05 6.07072e-06 -7.12426e-16 -1.23788e-05 -6.82266e-06 2.61444e-12 -6.93861e-14 -5.35768e-14 -8.10732e-06)
(1.99645e-05 6.12423e-06 4.55041e-16 -1.28647e-05 -6.19609e-06 -5.51386e-13 -8.68032e-13 -4.37799e-13 -7.98084e-06)
(1.78169e-05 6.16791e-06 1.26476e-15 -1.27115e-05 -5.46055e-06 -2.55674e-12 -3.39377e-14 5.23622e-14 -7.77833e-06)
(1.56214e-05 6.15003e-06 3.30098e-16 -1.23394e-05 -4.60411e-06 4.37238e-13 6.13238e-13 2.84854e-13 -7.58045e-06)
(1.31775e-05 6.26778e-06 -9.25691e-16 -1.07747e-05 -3.72738e-06 2.35316e-12 -4.01627e-14 -1.59077e-14 -7.31022e-06)
(1.08675e-05 6.39834e-06 -6.52619e-16 -9.04752e-06 -2.79711e-06 3.60961e-13 -6.12695e-13 -2.68387e-13 -7.05036e-06)
(8.56861e-06 6.84246e-06 7.22542e-16 -5.64193e-06 -2.08988e-06 -7.17929e-13 -2.8374e-13 -1.63489e-14 -6.72846e-06)
(2.90851e-05 6.46179e-07 1.79135e-17 -1.04173e-06 -8.52132e-06 -2.91043e-13 -4.68061e-14 -7.66882e-13 -8.52396e-06)
(2.93808e-05 1.1066e-06 -8.32033e-17 -2.04664e-06 -9.38933e-06 2.21595e-13 -1.33098e-13 -4.30598e-14 -9.40601e-06)
(2.90106e-05 1.76659e-06 2.66724e-16 -3.33268e-06 -9.26714e-06 -2.15547e-13 -9.44019e-14 -3.44823e-13 -9.39595e-06)
(2.85548e-05 2.38168e-06 3.20357e-16 -4.70985e-06 -9.18025e-06 -1.54629e-12 9.40548e-14 9.36789e-14 -9.32924e-06)
(2.78833e-05 2.93102e-06 -5.08637e-16 -5.82515e-06 -8.95829e-06 5.9548e-13 3.40523e-13 5.47871e-13 -9.3027e-06)
(2.70355e-05 3.39438e-06 -4.50533e-16 -7.18977e-06 -8.73939e-06 2.96463e-12 -1.0026e-13 -1.36914e-13 -9.19718e-06)
(2.60315e-05 3.76245e-06 4.57015e-16 -8.13608e-06 -8.39955e-06 4.30974e-13 -6.43761e-13 -6.16591e-13 -9.13234e-06)
(2.47704e-05 4.03855e-06 1.0767e-15 -9.24545e-06 -8.00739e-06 -2.99264e-12 -4.05013e-14 -2.00367e-13 -8.98752e-06)
(2.33989e-05 4.21141e-06 -1.62089e-16 -9.95418e-06 -7.50967e-06 -4.9299e-13 6.69497e-13 4.1733e-13 -8.87067e-06)
(2.17299e-05 4.32234e-06 -7.56724e-16 -1.05195e-05 -6.92284e-06 2.79897e-12 -5.65559e-14 -5.52126e-14 -8.67928e-06)
(1.99999e-05 4.35383e-06 4.83229e-16 -1.07927e-05 -6.24617e-06 -5.87463e-13 -8.54951e-13 -4.38824e-13 -8.50232e-06)
(1.79955e-05 4.39645e-06 1.33632e-15 -1.04721e-05 -5.49077e-06 -2.71466e-12 -4.6598e-14 5.51994e-14 -8.25843e-06)
(1.60238e-05 4.41229e-06 3.54099e-16 -9.99254e-06 -4.68351e-06 4.62727e-13 5.89711e-13 2.67557e-13 -8.02234e-06)
(1.38935e-05 4.55421e-06 -9.73798e-16 -8.41783e-06 -3.88865e-06 2.48841e-12 -3.12868e-14 -1.65409e-14 -7.73016e-06)
(1.1973e-05 4.7217e-06 -6.9911e-16 -6.81488e-06 -3.1214e-06 3.81578e-13 -5.48228e-13 -2.35946e-13 -7.45299e-06)
(1.01301e-05 5.14738e-06 7.64137e-16 -3.69136e-06 -2.57555e-06 -7.60047e-13 -2.35262e-13 -2.00399e-14 -7.13575e-06)
(2.9477e-05 4.75607e-07 1.96977e-17 -9.33066e-07 -9.40276e-06 -3.21356e-13 -3.85196e-14 -8.46464e-13 -9.41075e-06)
(2.953e-05 8.1274e-07 -9.01761e-17 -1.77275e-06 -1.00185e-05 2.36835e-13 -1.15464e-13 -4.42692e-14 -1.00535e-05)
(2.91248e-05 1.29545e-06 2.85906e-16 -2.8598e-06 -9.85386e-06 -2.30137e-13 -8.39248e-14 -3.68952e-13 -1.003e-05)
(2.86265e-05 1.74036e-06 3.39952e-16 -4.07166e-06 -9.70893e-06 -1.64802e-12 8.30225e-14 9.78221e-14 -9.94249e-06)
(2.79047e-05 2.13479e-06 -5.45828e-16 -4.97273e-06 -9.41356e-06 6.331e-13 3.21054e-13 5.83645e-13 -9.89e-06)
(2.70038e-05 2.4603e-06 -4.74373e-16 -6.16051e-06 -9.10916e-06 3.14381e-12 -8.45603e-14 -1.43093e-13 -9.75278e-06)
(2.59575e-05 2.71451e-06 4.88825e-16 -6.89078e-06 -8.68302e-06 4.55485e-13 -6.02937e-13 -6.45388e-13 -9.65227e-06)
(2.46672e-05 2.89946e-06 1.13128e-15 -7.81474e-06 -8.2025e-06 -3.15343e-12 -1.13658e-14 -2.10493e-13 -9.46995e-06)
(2.32971e-05 3.01129e-06 -1.75511e-16 -8.32331e-06 -7.63273e-06 -5.1763e-13 6.78237e-13 4.31391e-13 -9.31345e-06)
(2.16668e-05 3.08287e-06 -7.88326e-16 -8.7211e-06 -6.98709e-06 2.92998e-12 -4.35395e-14 -5.62666e-14 -9.08525e-06)
(2.00256e-05 3.10591e-06 5.03754e-16 -8.84649e-06 -6.2875e-06 -6.13065e-13 -8.33359e-13 -4.3646e-13 -8.87218e-06)
(1.81705e-05 3.14959e-06 1.38824e-15 -8.43235e-06 -5.53496e-06 -2.82714e-12 -6.24627e-14 5.63685e-14 -8.6002e-06)
(1.64104e-05 3.18906e-06 3.73734e-16 -7.9248e-06 -4.78456e-06 4.81013e-13 5.61418e-13 2.52596e-13 -8.33941e-06)
(1.45599e-05 3.33877e-06 -1.00979e-15 -6.41503e-06 -4.06941e-06 2.58685e-12 -2.34709e-14 -1.72e-14 -8.03573e-06)
(1.29715e-05 3.52041e-06 -7.35472e-16 -4.99852e-06 -3.44218e-06 3.96832e-13 -4.86861e-13 -2.1084e-13 -7.75088e-06)
(1.15057e-05 3.9113e-06 7.96879e-16 -2.19278e-06 -3.02724e-06 -7.91392e-13 -1.90393e-13 -2.37124e-14 -7.44308e-06)
(2.9637e-05 3.49465e-07 2.10273e-17 -8.09554e-07 -1.00482e-05 -3.43588e-13 -3.71531e-14 -9.04775e-13 -1.00607e-05)