/*--------------------------------*- C++ -*----------------------------------*\
| =========                 |                                                 |
| \\      /  F ield         | foam-extend: Open Source CFD                    |
|  \\    /   O peration     | Version:     4.1-20200408                       |
|   \\  /    A nd           | Web:         http://www.foam-extend.org         |
|    \\/     M anipulation  |                                                 |
\*---------------------------------------------------------------------------*/
FoamFile
{
    version     2.0;
    format      ascii;
    class       volScalarField;
    location    "0.0050000";
    object      ccz;
}
// * * * * * * * * * * * * * * * * * * * * * * * * * * * * * * * * * * * * * //

dimensions      [0 1 0 0 0 0 0];

internalField   nonuniform List<scalar> 
1952
(
-1.38888e-12
-1.38886e-12
-1.38892e-12
-1.3889e-12
-1.83177e-22
-2.77696e-13
8.33209e-13
8.33338e-13
-1.66666e-12
-2.77703e-13
8.33216e-13
-2.77777e-13
1.11115e-12
2.22222e-12
8.33334e-13
-5.55555e-13
-1.66667e-12
-1.66678e-12
-2.77776e-13
-1.3889e-12
-2.77756e-13
1.1111e-12
-1.38891e-12
4.16668e-12
4.16666e-12
4.16667e-12
4.16666e-12
3.99989e-12
2.8335e-12
4.16646e-12
4.16688e-12
3e-12
4.16667e-12
2.83333e-12
2.83316e-12
4.00012e-12
4e-12
4.16667e-12
3e-12
1.66667e-12
3.33171e-13
2.83335e-12
4.16686e-12
4.16668e-12
5.33333e-12
4.16665e-12
-1.78571e-12
-4.76186e-13
-4.76186e-13
-4.75856e-13
-1.66695e-12
-1.66667e-12
-4.76187e-13
-1.78533e-12
-3.09523e-12
-1.78609e-12
-1.66637e-12
-2.97652e-12
-2.97619e-12
-2.97586e-12
-1.78571e-12
-4.76186e-13
-1.66666e-12
-2.85739e-12
-1.66665e-12
-4.75855e-13
-4.76184e-13
-1.78572e-12
-1.786e-12
-6.01853e-12
-4.81481e-12
-4.81481e-12
-4.81482e-12
-4.81482e-12
-4.81481e-12
-4.81481e-12
-6.01851e-12
-7.22222e-12
-1.89813e-11
-1.7778e-11
-1.89812e-11
-1.89815e-11
-6.01831e-12
-6.01852e-12
-1.77778e-11
-1.77777e-11
-1.77776e-11
-1.77777e-11
-4.81482e-12
-4.81481e-12
-6.01853e-12
-1.89818e-11
-5.19278e-22
1.28787e-11
2.57568e-11
2.57584e-11
1.28789e-11
1.28784e-11
1.28789e-11
2.85487e-22
-5.70979e-23
7.5842e-13
7.56767e-13
-1.21208e-11
-1.21216e-11
1.42723e-22
8.56335e-23
-1.21212e-11
-1.21212e-11
-1.21213e-11
-1.21212e-11
1.28788e-11
1.28786e-11
1.28789e-11
7.57953e-13
1.28207e-11
1.21794e-11
3.71794e-11
5e-11
3.78202e-11
2.5e-11
2.5e-11
2.5641e-11
1.28206e-11
2.5e-11
3.78205e-11
1.28205e-11
1.28205e-11
1.28206e-11
5.79685e-22
1.28205e-11
2.56402e-11
1.28209e-11
7.24579e-22
1.21796e-11
2.5e-11
2.5e-11
1.2179e-11
1.22223e-11
-1.27781e-11
-5.55719e-13
2.44453e-11
2.44436e-11
1.22227e-11
1.22222e-11
2.44444e-11
1.22222e-11
1.22222e-11
2.44444e-11
1.22223e-11
1.22222e-11
1.22222e-11
-2.09347e-22
1.22222e-11
2.44436e-11
1.22226e-11
-1.13031e-21
2.09311e-22
1.22223e-11
1.22221e-11
3.54001e-22
8.89345e-22
-1.22552e-11
-1.22546e-11
-5.91176e-22
1.47783e-22
-6.65037e-22
-1.47775e-22
-1.27447e-11
-2.54902e-11
-1.27451e-11
-2.95565e-22
5.17143e-22
-1.27451e-11
-1.27447e-11
1.32995e-21
-1.03431e-21
0
-1.27451e-11
-1.27451e-11
-1.27452e-11
-1.2745e-11
-1.27452e-11
-2.54909e-11
1.27192e-11
1.27194e-11
1.27188e-11
1.27198e-11
1.27193e-11
2.54378e-11
2.54386e-11
4.39489e-13
-1.18434e-11
4.38622e-13
6.61128e-23
1.27188e-11
4.39549e-13
4.38609e-13
1.27189e-11
1.27193e-11
1.27193e-11
4.38605e-13
4.38601e-13
4.38595e-13
1.3158e-11
1.31578e-11
8.7999e-13
2.49998e-11
2.50003e-11
1.23015e-11
1.23021e-11
1.23016e-11
2.46023e-11
2.4604e-11
1.23016e-11
1.23016e-11
1.23016e-11
-4.18704e-22
1.23016e-11
1.2302e-11
1.23015e-11
1.23012e-11
1.2302e-11
2.5e-11
2.5e-11
1.23016e-11
1.23016e-11
2.46032e-11
2.46032e-11
3.73011e-11
1.23187e-11
1.23189e-11
2.73083e-22
-1.26811e-11
-2.53623e-11
-1.26808e-11
0
-1.20145e-21
-1.26812e-11
-1.26812e-11
-1.26811e-11
-1.26812e-11
-5.46146e-23
-5.46148e-23
-1.26807e-11
-2.53623e-11
-3.62399e-13
1.23188e-11
-1.26808e-11
-1.26811e-11
-1.26812e-11
-1.2681e-11
1.23179e-11
8.27222e-25
-1.40701e-21
-1.00494e-21
-1.23333e-11
-2.46667e-11
-1.23333e-11
-1.26666e-11
-2.53325e-11
-2.5e-11
-1.23338e-11
-1.23333e-11
-1.23334e-11
-1.26667e-11
-2.53333e-11
-2.5e-11
-3.73333e-11
-2.5e-11
1.60775e-21
-1.23329e-11
-1.23333e-11
-1.23338e-11
-1.23333e-11
-6.78536e-22
1.26542e-11
1.26544e-11
-4.6524e-22
1.26539e-11
2.53087e-11
1.26544e-11
3.08663e-13
-1.2037e-11
-1.23461e-11
9.30509e-22
1.26543e-11
1.26539e-11
3.0866e-13
-1.2037e-11
3.08737e-13
3.08753e-13
-1.23461e-11
0
1.20951e-21
1.26543e-11
1.26543e-11
1.26544e-11
2.53107e-11
2.49995e-11
2.50002e-11
1.03966e-21
1.23562e-11
2.47126e-11
1.23564e-11
1.23563e-11
1.23563e-11
2.59919e-22
1.26433e-11
2.5e-11
1.23564e-11
2.50001e-11
2.5e-11
1.23563e-11
2.5e-11
2.52874e-11
1.26433e-11
-4.33161e-22
2.5e-11
3.76437e-11
2.5e-11
2.47099e-11
1.23658e-11
1.23656e-11
-8.91592e-22
5.67391e-22
1.05366e-21
-1.29672e-21
0
0
-3.24198e-22
1.23652e-11
1.23661e-11
-1.78298e-21
1.23659e-11
1.23656e-11
5.67277e-22
1.23656e-11
2.47312e-11
1.23656e-11
4.86242e-22
1.23664e-11
2.47312e-11
1.23656e-11
-2.73133e-22
3.6707e-15
3.67407e-15
3.67745e-15
3.68075e-15
3.68387e-15
1.67035e-12
3.33702e-12
3.33702e-12
1.67036e-12
1.67036e-12
3.33703e-12
1.67037e-12
1.67036e-12
3.33703e-12
3.33703e-12
3.33703e-12
1.67036e-12
1.67037e-12
1.67035e-12
3.69183e-15
1.67034e-12
1.67034e-12
3.68786e-15
-2.77778e-13
4.16688e-12
-1.78571e-12
-6.01851e-12
-4.75754e-22
2.5641e-11
2.44453e-11
-1.27455e-11
4.38609e-13
2.5e-11
-3.62327e-13
-1.23329e-11
1.26549e-11
1.23563e-11
-3.20537e-21
1.67034e-12
-5.55555e-13
2.99976e-12
-4.76185e-13
-4.81481e-12
4.56797e-22
1.28204e-11
1.22222e-11
-1.27447e-11
1.3158e-11
5e-11
-7.24648e-13
-3.7333e-11
3.07798e-13
1.23562e-11
2.10705e-21
3.337e-12
-2.77776e-13
4.16667e-12
-4.76186e-13
-4.81482e-12
-3.42695e-22
0
-1.67539e-22
-1.1087e-22
2.54386e-11
3.73015e-11
-3.6232e-13
-2.5e-11
-1.23456e-11
-1.81977e-21
1.1349e-21
1.67032e-12
-2.77778e-13
4.16667e-12
-4.76187e-13
-4.81482e-12
1.28784e-11
1.21795e-11
-1.67571e-22
-1.10878e-22
2.54386e-11
2.46032e-11
6.55543e-22
1.80929e-21
-6.51471e-22
1.26433e-11
1.23652e-11
1.67033e-12
-2.77775e-13
4.16667e-12
-4.76186e-13
-1.77781e-11
7.57443e-13
2.5e-11
1.22223e-11
2.95672e-22
1.27193e-11
1.23015e-11
-1.26812e-11
-1.23334e-11
1.86166e-22
1.26437e-11
1.23656e-11
1.67032e-12
1.11112e-12
5.3335e-12
-4.76185e-13
-1.77775e-11
-1.21212e-11
2.5641e-11
2.44444e-11
-3.69621e-22
1.27194e-11
1.23016e-11
-2.53623e-11
-2.46667e-11
1.26544e-11
1.23564e-11
-1.13495e-21
1.67033e-12
2.22222e-12
5.33333e-12
-4.76186e-13
-4.81482e-12
1.28789e-11
3.78206e-11
2.44445e-11
-1.27452e-11
1.31579e-11
2.46032e-11
-2.53623e-11
-2.46667e-11
1.26543e-11
1.23559e-11
1.05376e-21
3.33699e-12
8.33327e-13
4.16646e-12
-4.76186e-13
-4.81465e-12
1.28788e-11
3.78204e-11
2.44445e-11
-2.54902e-11
-1.18421e-11
1.23015e-11
-1.26811e-11
-1.23333e-11
1.26544e-11
2.5e-11
1.23652e-11
3.33699e-12
-2.77776e-13
4.16667e-12
-4.76185e-13
-1.77776e-11
-1.21213e-11
2.5641e-11
2.44436e-11
-1.27451e-11
-1.22806e-11
1.26984e-11
1.23189e-11
1.00524e-22
1.26543e-11
2.49999e-11
-2.68874e-13
1.67031e-12
1.11112e-12
5.33333e-12
-4.76184e-13
-1.77777e-11
-1.21207e-11
1.28204e-11
1.22226e-11
2.95724e-22
7.2757e-22
1.26983e-11
-3.62378e-13
-1.23334e-11
8.37676e-22
-2.59962e-22
-1.26344e-11
1.67033e-12
1.11111e-12
5.33333e-12
-4.76184e-13
-4.81482e-12
2.85631e-22
1.28206e-11
1.22223e-11
1.885e-21
1.2719e-11
1.23016e-11
-1.26815e-11
-2.5e-11
3.08657e-13
2.50001e-11
1.23656e-11
1.67031e-12
3.84557e-23
5.3335e-12
-4.76184e-13
-4.81481e-12
1.28789e-11
2.5e-11
1.22222e-11
8.5016e-22
2.54386e-11
2.46023e-11
-2.18543e-22
-1.2667e-11
3.08653e-13
2.5e-11
-2.68865e-13
3.65182e-15
1.11108e-12
3.99987e-12
-1.66666e-12
-1.77781e-11
1.3635e-11
2.43582e-11
1.25671e-22
6.28355e-22
1.27193e-11
1.23015e-11
9.28782e-22
0
2.79239e-22
3.46603e-22
-1.26344e-11
1.67033e-12
2.22222e-12
4.00001e-12
-1.66665e-12
-1.77777e-11
1.36364e-11
3.71796e-11
1.22218e-11
-1.27452e-11
-1.22808e-11
5.38577e-22
4.37107e-22
-1.26671e-11
3.08644e-13
1.23567e-11
-1.29711e-21
3.33699e-12
8.33449e-13
4.16687e-12
-4.76184e-13
-1.77779e-11
7.57525e-13
3.78205e-11
1.16666e-11
-3.77451e-11
-2.45606e-11
1.26985e-11
1.23189e-11
-1.26666e-11
3.08641e-13
2.5e-11
1.23656e-11
3.33699e-12
-5.55713e-13
2.99976e-12
-1.78608e-12
-1.89812e-11
7.58635e-13
2.5e-11
-5.55546e-13
-3.77454e-11
-1.1842e-11
2.5e-11
1.23188e-11
-6.03132e-22
1.86134e-22
2.52873e-11
2.47312e-11
3.33699e-12
8.33434e-13
4.16677e-12
-1.78559e-12
-1.89817e-11
1.36363e-11
3.71795e-11
1.22222e-11
-2.54898e-11
8.78036e-13
3.73014e-11
-3.62807e-13
-1.23335e-11
-2.79231e-22
2.52878e-11
2.47315e-11
3.337e-12
2.22222e-12
4e-12
-1.66669e-12
-3.07408e-11
-1.13634e-11
2.49999e-11
1.22221e-11
-1.27451e-11
1.31583e-11
3.73014e-11
-3.62637e-13
-1.23332e-11
2.79218e-22
1.26438e-11
1.23655e-11
3.33699e-12
1.11112e-12
2.66668e-12
-4.16666e-12
-1.89816e-11
-1.21212e-11
-1.4504e-22
1.25695e-22
-1.03509e-21
2.54389e-11
2.46029e-11
-1.26814e-11
-2.5e-11
3.09047e-13
2.49999e-11
1.23654e-11
1.67033e-12
1.1111e-12
2.66666e-12
-4.1667e-12
-6.0185e-12
5.71423e-23
0
-2.51402e-22
5.91504e-22
1.27195e-11
1.23013e-11
-1.26813e-11
-3.76669e-11
6.18093e-13
3.73561e-11
1.23655e-11
1.67032e-12
-2.77755e-13
2.83335e-12
-1.66675e-12
-4.81477e-12
-1.34679e-22
1.28206e-11
1.2222e-11
-1.27453e-11
-1.22804e-11
-7.05031e-22
0
-1.2667e-11
1.29641e-11
3.73559e-11
1.23652e-11
1.67035e-12
-1.38892e-12
4.16667e-12
-4.76193e-13
-1.77776e-11
-1.2121e-11
1.28207e-11
1.22223e-11
-1.27453e-11
4.38701e-13
1.23014e-11
-1.26813e-11
-1.2333e-11
2.53093e-11
5e-11
2.47305e-11
3.66343e-15
1.11108e-12
5.33334e-12
-4.7623e-13
-1.77781e-11
7.56932e-13
2.49994e-11
1.2222e-11
-3.34058e-22
1.27196e-11
1.23015e-11
-1.26815e-11
-2.5e-11
3.0951e-13
2.50002e-11
1.23653e-11
1.67028e-12
2.22223e-12
5.33334e-12
-4.76165e-13
-4.81479e-12
1.28792e-11
2.50008e-11
1.22225e-11
-1.4084e-21
1.27193e-11
2.49996e-11
-3.62876e-13
-2.5e-11
-1.23453e-11
-8.68339e-22
-2.9239e-21
3.337e-12
2.22222e-12
4.00007e-12
-1.66659e-12
-1.77772e-11
7.577e-13
2.4999e-11
1.22217e-11
-1.27447e-11
1.31587e-11
3.73017e-11
-3.62823e-13
-2.5e-11
3.09626e-13
1.23555e-11
1.70524e-21
3.337e-12
1.11117e-12
3.99992e-12
-1.66677e-12
-3.07407e-11
1.51497e-12
5e-11
2.44445e-11
-1.27458e-11
1.31576e-11
2.46029e-11
-1.2681e-11
-2.5e-11
1.29643e-11
3.73553e-11
1.23643e-11
1.67043e-12
1.11104e-12
5.33334e-12
-4.76138e-13
-1.77786e-11
7.57629e-13
3.78213e-11
2.44444e-11
-1.27443e-11
4.40233e-13
1.23022e-11
-1.2682e-11
-1.23336e-11
2.53096e-11
5e-11
2.47288e-11
1.67022e-12
2.22222e-12
5.33331e-12
-1.78559e-12
-6.01843e-12
-1.14638e-22
2.5641e-11
2.44445e-11
-2.54902e-11
-1.1843e-11
1.23006e-11
-5.47966e-23
-3.02429e-22
1.26557e-11
3.76452e-11
2.47289e-11
3.337e-12
2.22223e-12
5.33333e-12
-3.09521e-12
-7.22225e-12
1.28777e-11
3.78194e-11
2.44445e-11
-2.54901e-11
8.77144e-13
2.4603e-11
-1.09624e-22
-6.05027e-22
7.46791e-22
2.52887e-11
2.47293e-11
3.337e-12
1.11121e-12
4.00013e-12
-2.97615e-12
-1.89803e-11
1.36374e-11
3.71808e-11
1.22234e-11
-1.27463e-11
1.31565e-11
2.46031e-11
4.38641e-22
-1.26655e-11
-1.23441e-11
1.26454e-11
1.2366e-11
1.67048e-12
-2.77742e-13
2.83331e-12
-2.97615e-12
-1.89826e-11
7.57547e-13
2.49999e-11
1.2221e-11
-7.42214e-23
2.54385e-11
2.46033e-11
-7.67911e-22
-1.26682e-11
-1.2347e-11
3.47901e-22
-4.06747e-22
1.67018e-12
-5.55553e-13
2.99998e-12
-1.78581e-12
-6.01867e-12
1.28774e-11
2.50001e-11
1.22237e-11
-1.27436e-11
4.41461e-13
1.23033e-11
2.74364e-22
7.06756e-22
1.26526e-11
2.49968e-11
1.23638e-11
3.337e-12
-2.77802e-13
4.16654e-12
-1.78558e-12
-1.89801e-11
7.59971e-13
1.21808e-11
6.3123e-22
-2.549e-11
-1.1844e-11
1.23002e-11
-1.26792e-11
-1.23319e-11
2.53082e-11
3.73582e-11
1.23672e-11
1.67049e-12
2.24013e-22
5.33335e-12
-1.78577e-12
-3.19446e-11
-2.42425e-11
1.28192e-11
-5.55305e-13
-3.77436e-11
8.76689e-13
2.46036e-11
-1.26826e-11
-1.23353e-11
1.26557e-11
2.5e-11
1.23644e-11
3.67087e-15
-1.99398e-22
4.00009e-12
-1.66657e-12
-3.07407e-11
-1.13647e-11
3.78194e-11
1.16656e-11
-3.77462e-11
8.76548e-13
2.46035e-11
6.59248e-22
-3.03302e-22
1.26519e-11
3.7641e-11
2.47335e-11
3.67092e-15
1.11104e-12
3.99991e-12
-2.97617e-12
-1.89822e-11
1.36355e-11
3.71804e-11
1.22232e-11
-1.2746e-11
4.38381e-13
1.23029e-11
-1.26796e-11
-1.23326e-11
1.2655e-11
2.5003e-11
1.2369e-11
1.67024e-12
1.11116e-12
4.00006e-12
-2.97619e-12
-1.89809e-11
7.58857e-13
1.21801e-11
8.42322e-23
-1.27443e-11
-1.22802e-11
-3.61136e-22
-1.26815e-11
-1.23346e-11
-1.31188e-21
0
1.14402e-21
1.67042e-12
1.11108e-12
3.99996e-12
-1.66669e-12
-1.77782e-11
-1.21216e-11
1.28201e-11
1.22219e-11
-2.549e-11
-2.45617e-11
3.61189e-22
-1.26805e-11
-2.49998e-11
3.06895e-13
1.23578e-11
-3.18733e-21
1.67029e-12
-2.77741e-13
4.16667e-12
-1.78568e-12
-1.89813e-11
-1.21212e-11
1.28206e-11
1.22224e-11
-2.54899e-11
-1.18427e-11
1.2302e-11
-1.26806e-11
-2.49994e-11
1.29607e-11
2.47151e-11
-7.3536e-22
1.67036e-12
-2.77768e-13
4.16667e-12
-1.78569e-12
-1.89813e-11
-1.21212e-11
-5.34641e-22
-7.16134e-22
-2.54899e-11
8.76256e-13
2.46038e-11
0
-1.0118e-21
2.53071e-11
2.47147e-11
1.0618e-21
1.67034e-12
2.22223e-12
5.33333e-12
-4.76178e-13
-4.81484e-12
-5.74363e-22
-7.29049e-22
-1.13738e-21
-2.54898e-11
-1.18433e-11
1.23013e-11
5.49728e-23
3.03506e-22
1.26529e-11
2.5e-11
1.23671e-11
3.337e-12
2.22223e-12
5.33332e-12
-1.78571e-12
-6.01858e-12
2.29739e-22
-4.37415e-22
-5.05489e-22
-1.27443e-11
4.3925e-13
1.23027e-11
7.14563e-22
2.02299e-22
1.26546e-11
3.76439e-11
2.47324e-11
3.337e-12
1.11107e-12
5.33332e-12
-1.78558e-12
-6.01848e-12
-2.01011e-22
1.2821e-11
1.22231e-11
-8.92041e-22
1.27183e-11
1.23012e-11
-4.39653e-22
2.02258e-22
1.26531e-11
3.76424e-11
2.47317e-11
1.67027e-12
-1.85978e-22
5.33332e-12
-1.78574e-12
-6.01864e-12
1.72284e-22
1.28197e-11
1.22217e-11
-1.27457e-11
4.38194e-13
1.23027e-11
0
1.01109e-22
-2.80878e-22
2.52869e-11
2.47315e-11
3.66991e-15
-1.38896e-12
4.16659e-12
-1.78561e-12
-6.01848e-12
1.28794e-11
2.50015e-11
1.22231e-11
-1.27442e-11
4.38146e-13
1.2301e-11
-4.39495e-22
-8.08696e-22
-9.36009e-22
2.52871e-11
2.47313e-11
3.66978e-15
-1.6666e-12
1.66658e-12
-1.66669e-12
-4.81484e-12
1.28779e-11
2.49985e-11
1.22217e-11
-1.27458e-11
4.38294e-13
1.23025e-11
9.33733e-22
-4.0426e-22
1.2655e-11
2.5e-11
1.23648e-11
1.67043e-12
-5.55537e-13
1.66673e-12
-1.66654e-12
-4.81484e-12
-8.89864e-22
1.28212e-11
1.22231e-11
-1.27442e-11
1.31583e-11
2.46034e-11
-1.26818e-11
-2.50014e-11
1.29622e-11
3.7357e-11
1.23661e-11
3.337e-12
-2.77752e-13
4.16672e-12
-4.76163e-13
-1.77785e-11
-1.21221e-11
1.28197e-11
1.22216e-11
-1.27457e-11
4.36978e-13
1.2301e-11
-2.53622e-11
-5e-11
-1.20377e-11
2.49988e-11
1.23648e-11
1.67024e-12
1.11118e-12
3.99992e-12
-2.97627e-12
-1.89808e-11
7.58993e-13
1.21803e-11
1.05225e-21
-1.27443e-11
-1.22801e-11
-1.08226e-21
-2.53622e-11
-3.73327e-11
3.0994e-13
1.23568e-11
8.95921e-22
1.67043e-12
1.11105e-12
4.00005e-12
-2.97602e-12
-1.89821e-11
7.56053e-13
1.21788e-11
-2.94592e-22
-1.27457e-11
-1.22813e-11
-3.60692e-22
-2.53623e-11
-3.73339e-11
1.29627e-11
2.47124e-11
1.14005e-21
1.67024e-12
0
3.99992e-12
-1.66674e-12
-1.77771e-11
7.58834e-13
2.50012e-11
1.22229e-11
-1.27444e-11
4.39853e-13
1.23022e-11
-1.26806e-11
-2.49989e-11
1.29638e-11
2.47123e-11
1.95405e-21
3.6696e-15
-2.77782e-13
2.83335e-12
-1.66658e-12
-4.81481e-12
1.28781e-11
3.78199e-11
2.44446e-11
-1.27457e-11
1.31574e-11
3.73021e-11
1.23193e-11
-1.26672e-11
3.07942e-13
2.5e-11
1.23659e-11
1.67042e-12
8.33403e-13
4.16673e-12
-4.76161e-13
-1.77783e-11
-1.21217e-11
2.56409e-11
2.44443e-11
-2.54902e-11
-1.18425e-11
2.4999e-11
-3.63433e-13
-2.5e-11
3.09822e-13
2.5e-11
1.2365e-11
3.337e-12
-2.77887e-13
4.1666e-12
-1.78577e-12
-1.89809e-11
-1.21207e-11
1.282e-11
1.22218e-11
-2.54903e-11
-1.18415e-11
2.5001e-11
-3.61485e-13
-1.23328e-11
2.53089e-11
2.47123e-11
-1.54634e-21
1.67026e-12
-2.77672e-13
2.83333e-12
-2.97619e-12
-1.89819e-11
-1.21217e-11
4.85294e-23
-1.09351e-21
-1.27446e-11
1.31585e-11
3.73011e-11
1.23184e-11
0
2.53089e-11
3.73566e-11
1.23658e-11
1.67041e-12
2.22222e-12
4.00005e-12
-1.66659e-12
-1.77773e-11
7.58521e-13
1.21798e-11
2.1027e-22
-4.08151e-22
2.54387e-11
2.46031e-11
-1.26817e-11
-2.50008e-11
3.08227e-13
3.76435e-11
2.47309e-11
3.337e-12
2.22218e-12
5.33332e-12
-1.78587e-12
-1.89818e-11
7.56732e-13
1.2179e-11
-3.7845e-22
-2.22617e-22
2.5439e-11
2.46032e-11
-1.2681e-11
-3.76662e-11
-2.46905e-11
2.52877e-11
2.47314e-11
3.33696e-12
2.22222e-12
5.33334e-12
-1.78567e-12
-1.89811e-11
7.5835e-13
1.21799e-11
-7.98867e-22
6.67775e-22
1.27189e-11
1.23013e-11
-7.67704e-22
-2.53333e-11
-2.46914e-11
2.52874e-11
2.47304e-11
3.33706e-12
2.22231e-12
3.99996e-12
-2.97627e-12
-6.01835e-12
1.28784e-11
1.21796e-11
-1.26129e-22
-1.27455e-11
-1.2281e-11
1.26991e-11
1.23196e-11
-1.26668e-11
3.09333e-13
2.5e-11
1.23649e-11
3.337e-12
2.22214e-12
2.66667e-12
-4.16663e-12
-1.89818e-11
-1.21215e-11
1.28213e-11
1.2223e-11
-2.5491e-11
-1.18417e-11
2.5e-11
1.23181e-11
-1.51317e-21
1.26541e-11
1.23556e-11
4.88066e-22
3.33695e-12
-2.77838e-13
2.83334e-12
-1.66663e-12
-1.77772e-11
-1.21205e-11
1.28202e-11
1.22219e-11
-1.27448e-11
4.38602e-13
2.5e-11
1.23195e-11
2.42098e-21
1.26546e-11
1.23566e-11
-2.44046e-22
1.67032e-12
-1.38886e-12
4.1667e-12
-1.78574e-12
-6.01834e-12
1.28787e-11
2.50005e-11
1.22221e-11
-5.19226e-22
1.272e-11
2.5e-11
1.23182e-11
9.0776e-22
1.26545e-11
1.23561e-11
-8.13299e-23
3.67047e-15
1.05612e-22
3.99997e-12
-4.28573e-12
-2.01855e-11
7.57061e-13
3.78203e-11
2.44444e-11
-1.27458e-11
4.37245e-13
1.23009e-11
-1.26814e-11
-1.23332e-11
-6.53655e-22
-1.73884e-22
8.1328e-23
3.67052e-15
-2.777e-13
2.8335e-12
-2.97613e-12
-1.8981e-11
7.58847e-13
2.5e-11
1.2222e-11
-1.27449e-11
-1.22801e-11
1.02055e-21
-2.53623e-11
-2.46658e-11
2.80106e-22
1.26436e-11
1.23658e-11
1.67037e-12
8.33242e-13
2.83317e-12
-1.66668e-12
-4.81465e-12
1.28785e-11
2.5e-11
1.22224e-11
2.22469e-22
1.27195e-11
1.23014e-11
-2.53623e-11
-2.46675e-11
9.33868e-23
2.5289e-11
2.47312e-11
3.337e-12
1.11109e-12
4.00002e-12
-2.97652e-12
-6.01875e-12
3.43844e-22
1.28208e-11
1.2222e-11
1.48297e-22
1.27191e-11
1.23014e-11
-2.53623e-11
-2.46658e-11
1.86717e-22
2.52865e-11
2.47312e-11
1.67028e-12
-1.38891e-12
4.16665e-12
-3.09523e-12
-7.22198e-12
-2.29183e-22
1.28207e-11
1.22224e-11
1.48313e-22
1.27195e-11
1.23018e-11
-1.26814e-11
-1.23331e-11
1.26545e-11
2.5e-11
1.23654e-11
3.67051e-15
-1.38887e-12
2.83333e-12
-2.97585e-12
-6.01829e-12
1.28789e-11
2.5e-11
1.2222e-11
5.93139e-22
2.54386e-11
2.46032e-11
1.64393e-22
-1.26668e-11
3.08182e-13
2.5e-11
1.23658e-11
3.67063e-15
1.11117e-12
4.00014e-12
-1.66664e-12
-4.81498e-12
2.57584e-11
2.4359e-11
-3.36116e-22
-1.27453e-11
4.3825e-13
1.23015e-11
1.53451e-21
-2.53333e-11
-2.46905e-11
1.26435e-11
1.23654e-11
1.67036e-12
2.22214e-12
3.99986e-12
-2.97654e-12
-6.01854e-12
2.57576e-11
3.71797e-11
1.22224e-11
-1.2745e-11
-1.22805e-11
1.26986e-11
1.23186e-11
-1.26665e-11
-1.23455e-11
6.95344e-22
2.43942e-22
3.337e-12
8.3332e-13
1.49999e-12
-4.16664e-12
-6.0185e-12
1.28786e-11
2.49998e-11
1.22217e-11
-1.27448e-11
4.39438e-13
2.5e-11
1.23191e-11
-8.06679e-22
-7.46846e-22
-8.69107e-23
-1.62599e-22
3.337e-12
8.33354e-13
2.83336e-12
-1.66665e-12
-1.77779e-11
7.57593e-13
1.21796e-11
-2.52079e-22
-1.27449e-11
4.38597e-13
1.2301e-11
-1.26813e-11
-1.23339e-11
3.73468e-22
1.12999e-21
2.43927e-21
3.337e-12
2.22231e-12
5.3335e-12
-1.78535e-12
-1.89815e-11
1.36365e-11
2.4359e-11
1.26031e-22
-1.27456e-11
-1.22813e-11
-5.40143e-22
-1.26814e-11
-1.23332e-11
-1.86684e-22
6.08415e-22
1.05705e-21
3.337e-12
1.11106e-12
3.99999e-12
-2.97618e-12
-6.01851e-12
2.57576e-11
3.71796e-11
1.22224e-11
-2.54902e-11
-1.18407e-11
1.23022e-11
-8.21914e-22
1.51236e-21
3.73381e-22
1.73802e-22
1.38221e-21
1.67032e-12
-2.77778e-13
2.83317e-12
-1.66694e-12
-1.77777e-11
7.58195e-13
2.49998e-11
1.22221e-11
-1.27449e-11
1.3158e-11
3.73017e-11
1.2319e-11
-7.05651e-22
4.66698e-22
1.26442e-11
1.23657e-11
1.67035e-12
-5.55549e-13
3.00025e-12
-4.75854e-13
-3.07414e-11
-2.42433e-11
-1.93898e-22
1.68043e-22
-1.27456e-11
1.31565e-11
3.7301e-11
-3.62518e-13
-1.23334e-11
1.26545e-11
2.5e-11
-2.69004e-13
3.337e-12
-2.77692e-13
4.16668e-12
-4.76516e-13
-1.77774e-11
7.58623e-13
1.21796e-11
2.51999e-22
-2.54894e-11
8.78863e-13
3.73017e-11
-1.30433e-11
-3.73334e-11
3.08428e-13
2.5e-11
-2.68493e-13
1.67032e-12
1.11112e-12
5.33333e-12
-4.76184e-13
-4.81482e-12
2.57576e-11
2.4359e-11
1.26017e-22
-2.5491e-11
-1.18422e-11
2.49998e-11
-3.62302e-13
-2.49997e-11
3.09673e-13
2.5e-11
1.23655e-11
1.67035e-12
-2.77797e-13
4.16666e-12
-4.76184e-13
-4.81481e-12
1.28787e-11
2.5e-11
1.22219e-11
-2.54893e-11
-1.1842e-11
2.50003e-11
-3.62307e-13
-1.2333e-11
1.26542e-11
1.23562e-11
0
1.67032e-12
-1.38892e-12
2.83333e-12
-1.66667e-12
-4.81482e-12
8.59107e-23
1.28204e-11
1.22221e-11
-1.2745e-11
1.3158e-11
3.73015e-11
-3.62305e-13
-2.5e-11
-1.23458e-11
1.26438e-11
1.23653e-11
3.67038e-15
-1.3889e-12
2.83334e-12
-2.97619e-12
-6.01853e-12
2.29085e-22
1.28206e-11
1.22223e-11
-1.27452e-11
1.31578e-11
2.46032e-11
-1.47902e-21
-1.26665e-11
-1.23456e-11
1.26436e-11
1.23659e-11
3.67037e-15
-2.77756e-13
4.16647e-12
-3.09523e-12
-7.22197e-12
1.71823e-22
1.28208e-11
1.22225e-11
-1.27454e-11
1.3158e-11
2.46032e-11
-1.26813e-11
-1.23334e-11
-2.0533e-21
-8.68973e-22
7.31653e-22
1.67035e-12
2.22223e-12
5.3335e-12
-3.09523e-12
-7.22248e-12
1.28793e-11
1.21796e-11
5.03948e-22
-3.70555e-23
1.27192e-11
1.23015e-11
-1.26811e-11
-1.23332e-11
-1.86656e-22
-1.73787e-22
-1.26349e-11
3.337e-12
2.22223e-12
5.33333e-12
-1.7857e-12
-1.89818e-11
7.56577e-13
1.21794e-11
-3.77986e-22
7.41153e-22
-3.31601e-22
2.9999e-22
7.66952e-22
5.04048e-22
1.26548e-11
2.50002e-11
-2.67779e-13
3.337e-12
1.1111e-12
3.99999e-12
-2.97587e-12
-1.89814e-11
7.58677e-13
1.21799e-11
8.82011e-22
-1.27456e-11
4.38604e-13
1.23016e-11
1.86231e-21
1.00785e-21
1.26542e-11
2.49998e-11
1.23655e-11
1.67033e-12
1.11112e-12
2.66667e-12
-5.47652e-12
-7.22247e-12
1.28787e-11
1.2179e-11
-6.71914e-22
-1.2745e-11
1.31592e-11
2.4604e-11
5.4777e-22
-1.26668e-11
-1.23462e-11
-5.21399e-22
-1.38191e-21
1.67035e-12
8.33329e-13
2.83334e-12
-4.2857e-12
-2.01853e-11
-1.21213e-11
1.28206e-11
1.22219e-11
-1.27448e-11
1.31578e-11
2.46032e-11
1.09561e-21
-2.53333e-11
-1.20357e-11
1.23564e-11
1.86938e-21
3.337e-12
-1.66667e-12
3e-12
-3.09523e-12
-2.01851e-11
7.57751e-13
2.5e-11
1.22221e-11
-1.2745e-11
4.38605e-13
1.23011e-11
5.47722e-23
-1.2667e-11
1.29618e-11
3.73564e-11
1.23652e-11
1.67033e-12
-2.7776e-13
4.16667e-12
-3.09482e-12
-7.22197e-12
2.57576e-11
3.71796e-11
1.22223e-11
-7.41076e-22
1.27194e-11
1.23017e-11
0
-1.00791e-22
2.53095e-11
3.73562e-11
-2.68115e-13
1.67035e-12
1.11111e-12
5.33333e-12
-3.09564e-12
-2.01852e-11
7.57436e-13
3.78204e-11
2.44445e-11
-1.27452e-11
1.31578e-11
2.46032e-11
0
1.51166e-21
1.26543e-11
2.5e-11
-2.68636e-13
1.67033e-12
6.63882e-23
5.33333e-12
-1.7857e-12
-1.89813e-11
-1.21212e-11
2.5641e-11
2.44453e-11
-1.27454e-11
1.31579e-11
3.73017e-11
1.23189e-11
6.04703e-22
6.5323e-22
1.26436e-11
1.23651e-11
3.67027e-15
0
5.33317e-12
-1.78572e-12
-6.01851e-12
0
1.28204e-11
1.22217e-11
-1.27451e-11
4.38468e-13
2.49999e-11
1.23192e-11
-5.03951e-22
-8.39838e-22
1.26438e-11
1.23657e-11
3.67027e-15
6.59606e-23
5.3335e-12
-3.09523e-12
-7.22222e-12
1.28789e-11
2.5e-11
1.22223e-11
-2.54902e-11
-2.45622e-11
1.31994e-21
-1.26817e-11
-2.5e-11
3.08643e-13
2.5e-11
1.23656e-11
3.67027e-15
1.11112e-12
5.33333e-12
-1.7857e-12
-6.01852e-12
2.57576e-11
3.71794e-11
1.22222e-11
-1.2745e-11
4.39468e-13
1.23016e-11
-1.26811e-11
-2.49999e-11
1.29617e-11
2.47118e-11
3.25106e-22
1.67034e-12
2.22222e-12
5.33333e-12
-1.78571e-12
-6.01852e-12
1.28788e-11
2.5e-11
1.22227e-11
-2.22335e-22
1.27192e-11
1.23016e-11
-1.26812e-11
-1.23333e-11
2.53095e-11
2.47126e-11
9.75287e-22
3.337e-12
8.33336e-13
4.16667e-12
-1.7857e-12
-6.01852e-12
1.28788e-11
2.5e-11
1.22218e-11
7.0391e-22
1.12705e-21
0
-2.53623e-11
-2.46667e-11
1.26543e-11
2.5e-11
-2.67964e-13
3.337e-12
8.33338e-13
4.16667e-12
-1.78571e-12
-6.01852e-12
1.28788e-11
1.21795e-11
1.67983e-22
2.22329e-22
-1.9893e-22
1.26984e-11
-3.62309e-13
-2.5e-11
-1.23457e-11
1.26437e-11
-2.69632e-13
3.337e-12
1.11111e-12
5.33333e-12
-3.09523e-12
-7.22222e-12
-2.29024e-22
-4.84469e-22
5.03849e-22
5.18662e-22
-3.31483e-22
2.53968e-11
2.46377e-11
-2.53333e-11
-1.2037e-11
1.23564e-11
6.50164e-22
1.67034e-12
-1.46104e-22
5.33333e-12
-3.09523e-12
-7.22222e-12
0
8.7221e-22
1.25989e-22
0
-8.62029e-22
2.53968e-11
2.46377e-11
-2.53333e-11
6.17296e-13
2.47126e-11
-8.12867e-22
3.67027e-15
)
;

boundaryField
{
    wireUpstream
    {
        type            calculated;
        value           nonuniform List<scalar> 
16
(
0
5.33333e-12
-3.09523e-12
-7.22222e-12
0
0
0
-2.48339e-22
0
2.53968e-11
2.46377e-11
-2.53333e-11
6.17296e-13
2.47126e-11
5.63006e-22
3.67027e-15
)
;
    }
    wireDownstream
    {
        type            calculated;
        value           nonuniform List<scalar> 
16
(
-2.77778e-12
3e-12
-4.76184e-13
-3.07407e-11
-2.42424e-11
-4.2301e-22
3.6661e-22
-2.54902e-11
8.77186e-13
5e-11
2.46377e-11
8.79917e-22
2.53086e-11
2.47127e-11
-7.09669e-22
3.68733e-15
)
;
    }
    wireTopContact
    {
        type            calculated;
        value           nonuniform List<scalar> 
122
(
-1.41171e-22
-7.83446e-22
-6.42283e-22
0
-1.42551e-21
1.41172e-22
-7.83353e-22
0
0
0
1.41172e-22
0
7.83249e-22
-1.41172e-22
1.41172e-22
0
1.41172e-22
-1.41172e-22
-1.41173e-22
0
-1.14294e-21
0
0
-6.42229e-22
0
0
0
0
0
0
-2.5e-11
-2.5e-11
-6.42424e-22
-2.5e-11
-2.5e-11
0
0
0
0
6.42332e-22
0
0
0
-6.54546e-22
0
6.43479e-22
0
0
-6.43258e-22
0
6.43506e-22
-6.43685e-22
0
0
1.28893e-21
-6.44781e-22
0
0
0
6.45714e-22
6.45592e-22
6.45427e-22
0
0
0
0
6.44663e-22
-6.44534e-22
0
0
0
-1.2885e-21
0
0
1.28832e-21
6.4415e-22
6.44132e-22
0
0
6.44118e-22
-6.44066e-22
0
0
1.28812e-21
0
0
6.44076e-22
0
0
0
-6.44212e-22
-6.44186e-22
0
-6.44267e-22
-1.28849e-21
0
0
-2.50001e-11
-2.49999e-11
-6.44275e-22
6.44258e-22
-6.44241e-22
1.93306e-21
1.28868e-21
-2.50001e-11
-2.49999e-11
-1.93289e-21
0
-6.44271e-22
-6.44259e-22
-2.50001e-11
-2.49999e-11
6.44226e-22
6.44347e-22
6.44339e-22
0
6.44324e-22
-2.5e-11
-2.5e-11
0
0
-1.41175e-22
)
;
    }
    front
    {
        type            wedge;
    }
    back
    {
        type            wedge;
    }
}


// ************************************************************************* //
