/*--------------------------------*- C++ -*----------------------------------*\
| =========                 |                                                 |
| \\      /  F ield         | foam-extend: Open Source CFD                    |
|  \\    /   O peration     | Version:     4.1-20200408                       |
|   \\  /    A nd           | Web:         http://www.foam-extend.org         |
|    \\/     M anipulation  |                                                 |
\*---------------------------------------------------------------------------*/
FoamFile
{
    version     2.0;
    format      ascii;
    class       pointVectorField;
    location    "0.0050000";
    object      pointDU;
}
// * * * * * * * * * * * * * * * * * * * * * * * * * * * * * * * * * * * * * //

dimensions      [0 1 0 0 0 0 0];

internalField   nonuniform List<vector> 
4059
(
(0 -5.46679e-18 1.89991e-16)
(0 -9.57552e-13 4.18399e-14)
(0 -6.52995e-10 2.85104e-11)
(0 -5.64489e-18 1.94076e-16)
(0 -9.57552e-13 -4.16177e-14)
(0 -6.52995e-10 -2.85102e-11)
(0 2.4922e-13 -1.0849e-14)
(0 9.0934e-14 -3.93802e-15)
(0 5.4877e-14 -2.36374e-15)
(0 2.93111e-14 -1.2475e-15)
(0 1.88712e-14 -7.917e-16)
(0 5.2131e-15 -1.95376e-16)
(0 -3.85488e-15 2.00556e-16)
(0 -8.92021e-15 4.21718e-16)
(0 -2.36985e-14 1.06693e-15)
(0 -1.69849e-14 7.73806e-16)
(0 -4.19324e-14 1.86308e-15)
(0 -1.96271e-14 8.89187e-16)
(0 -5.5766e-14 2.46701e-15)
(0 -2.03234e-14 9.19571e-16)
(0 -8.18683e-14 3.60671e-15)
(4.99758e-05 -6.83196e-09 2.9829e-10)
(4.9977e-05 -6.75399e-09 2.94886e-10)
(4.99782e-05 -6.68532e-09 2.91887e-10)
(4.99794e-05 -6.62234e-09 2.89137e-10)
(4.99806e-05 -6.56042e-09 2.86434e-10)
(4.99817e-05 -6.49328e-09 2.83503e-10)
(4.99829e-05 -6.41328e-09 2.8001e-10)
(4.99839e-05 -6.31065e-09 2.75529e-10)
(4.9985e-05 -6.1735e-09 2.69541e-10)
(4.9986e-05 -5.98699e-09 2.61398e-10)
(4.99869e-05 -5.73295e-09 2.50306e-10)
(4.99878e-05 -5.3888e-09 2.3528e-10)
(4.99885e-05 -4.92675e-09 2.15107e-10)
(4.99892e-05 -4.31198e-09 1.88265e-10)
(4.99898e-05 -3.50144e-09 1.52876e-10)
(4.99903e-05 -2.43951e-09 1.06511e-10)
(4.99906e-05 -1.05731e-09 4.61633e-11)
(4.99909e-05 7.41374e-10 -3.2369e-11)
(4.9991e-05 3.07343e-09 -1.34189e-10)
(4.9991e-05 6.13935e-09 -2.6805e-10)
(4.99908e-05 1.01753e-08 -4.44262e-10)
(4.99908e-05 1.58782e-08 -6.93255e-10)
(0 -6.4459e-10 2.81434e-11)
(0 -6.34234e-10 2.76913e-11)
(0 -6.23076e-10 2.72041e-11)
(0 -6.10479e-10 2.66541e-11)
(0 -5.94619e-10 2.59616e-11)
(0 -5.73975e-10 2.50603e-11)
(0 -5.47097e-10 2.38868e-11)
(0 -5.13121e-10 2.24034e-11)
(0 -4.71308e-10 2.05778e-11)
(0 -4.21839e-10 1.84179e-11)
(0 -3.64618e-10 1.59196e-11)
(0 -3.00825e-10 1.31343e-11)
(0 -2.30859e-10 1.00796e-11)
(0 -1.56633e-10 6.83877e-12)
(0 -7.89406e-11 3.44665e-12)
(5.00024e-05 -5.47878e-18 1.90408e-16)
(5.0003e-05 -5.47885e-18 1.9041e-16)
(5.00032e-05 -5.47887e-18 1.90411e-16)
(5.0003e-05 -5.47885e-18 1.9041e-16)
(5.00025e-05 -5.47879e-18 1.90408e-16)
(5.00017e-05 -5.47871e-18 1.90405e-16)
(5.00006e-05 -5.47859e-18 1.90401e-16)
(4.99994e-05 -5.47845e-18 1.90396e-16)
(4.9998e-05 -5.4783e-18 1.90391e-16)
(4.99964e-05 -5.47813e-18 1.90385e-16)
(4.99948e-05 -5.47795e-18 1.90379e-16)
(4.99932e-05 -5.47777e-18 1.90373e-16)
(4.99915e-05 -5.47758e-18 1.90366e-16)
(4.99897e-05 -5.4774e-18 1.9036e-16)
(4.9988e-05 -5.47721e-18 1.90353e-16)
(4.99863e-05 -5.47702e-18 1.90347e-16)
(4.99845e-05 -5.47683e-18 1.9034e-16)
(4.99828e-05 -5.47664e-18 1.90333e-16)
(4.99811e-05 -5.47645e-18 1.90327e-16)
(4.99793e-05 -5.47626e-18 1.9032e-16)
(4.99776e-05 -5.47607e-18 1.90313e-16)
(4.99758e-05 -5.47587e-18 1.90307e-16)
(0 2.4922e-13 1.10712e-14)
(0 9.0934e-14 4.16029e-15)
(0 5.4877e-14 2.58601e-15)
(0 2.93111e-14 1.46978e-15)
(0 1.88712e-14 1.01395e-15)
(0 5.2131e-15 4.1762e-16)
(0 -3.85488e-15 2.17187e-17)
(0 -8.92021e-15 -1.99433e-16)
(0 -2.36985e-14 -8.44696e-16)
(0 -1.69849e-14 -5.51568e-16)
(0 -4.19324e-14 -1.64076e-15)
(0 -1.96271e-14 -6.66913e-16)
(0 -5.5766e-14 -2.2448e-15)
(0 -2.03234e-14 -6.97326e-16)
(0 -8.18683e-14 -3.38441e-15)
(4.99758e-05 -6.83196e-09 -2.9829e-10)
(4.9977e-05 -6.75399e-09 -2.94886e-10)
(4.99782e-05 -6.68532e-09 -2.91888e-10)
(4.99794e-05 -6.62234e-09 -2.89138e-10)
(4.99806e-05 -6.56042e-09 -2.86434e-10)
(4.99817e-05 -6.49328e-09 -2.83503e-10)
(4.99829e-05 -6.41328e-09 -2.8001e-10)
(4.99839e-05 -6.31065e-09 -2.75529e-10)
(4.9985e-05 -6.1735e-09 -2.69541e-10)
(4.9986e-05 -5.98699e-09 -2.61398e-10)
(4.99869e-05 -5.73295e-09 -2.50306e-10)
(4.99878e-05 -5.3888e-09 -2.3528e-10)
(4.99885e-05 -4.92675e-09 -2.15107e-10)
(4.99892e-05 -4.31198e-09 -1.88266e-10)
(4.99898e-05 -3.50144e-09 -1.52877e-10)
(4.99903e-05 -2.43951e-09 -1.06511e-10)
(4.99906e-05 -1.05731e-09 -4.61632e-11)
(4.99909e-05 7.41374e-10 3.23694e-11)
(4.9991e-05 3.07343e-09 1.34189e-10)
(4.9991e-05 6.13935e-09 2.68051e-10)
(4.99908e-05 1.01753e-08 4.44263e-10)
(4.99908e-05 1.58782e-08 6.93258e-10)
(0 -6.4459e-10 -2.81433e-11)
(0 -6.34234e-10 -2.76911e-11)
(0 -6.23076e-10 -2.72039e-11)
(0 -6.10479e-10 -2.66539e-11)
(0 -5.94619e-10 -2.59615e-11)
(0 -5.73975e-10 -2.50601e-11)
(0 -5.47097e-10 -2.38866e-11)
(0 -5.13121e-10 -2.24032e-11)
(0 -4.71308e-10 -2.05776e-11)
(0 -4.21839e-10 -1.84178e-11)
(0 -3.64618e-10 -1.59194e-11)
(0 -3.00825e-10 -1.31341e-11)
(0 -2.30859e-10 -1.00794e-11)
(0 -1.56633e-10 -6.83857e-12)
(0 -7.89406e-11 -3.44643e-12)
(4.99758e-05 -5.85928e-10 2.55822e-11)
(4.99776e-05 -5.68701e-10 2.483e-11)
(4.99793e-05 -5.54098e-10 2.41925e-11)
(4.99811e-05 -5.41399e-10 2.3638e-11)
(4.99828e-05 -5.29672e-10 2.3126e-11)
(4.99845e-05 -5.17719e-10 2.26041e-11)
(4.99862e-05 -5.04117e-10 2.20102e-11)
(4.9988e-05 -4.87115e-10 2.12679e-11)
(4.99897e-05 -4.64686e-10 2.02886e-11)
(4.99914e-05 -4.34443e-10 1.89682e-11)
(4.99931e-05 -3.93696e-10 1.71891e-11)
(4.99948e-05 -3.39451e-10 1.48208e-11)
(4.99964e-05 -2.68533e-10 1.17244e-11)
(4.99979e-05 -1.77719e-10 7.75942e-12)
(4.99993e-05 -6.40218e-11 2.79528e-12)
(5.00006e-05 7.4962e-11 -3.27287e-12)
(5.00017e-05 2.40559e-10 -1.0503e-11)
(5.00025e-05 4.32429e-10 -1.88802e-11)
(5.0003e-05 6.47978e-10 -2.82913e-11)
(5.00032e-05 8.81834e-10 -3.85017e-11)
(5.0003e-05 1.12524e-09 -4.91291e-11)
(5.00024e-05 1.36839e-09 -5.97453e-11)
(4.99758e-05 -1.16762e-09 5.09795e-11)
(4.99776e-05 -1.13353e-09 4.94911e-11)
(4.99793e-05 -1.10468e-09 4.82315e-11)
(4.99811e-05 -1.07964e-09 4.71382e-11)
(4.99828e-05 -1.05657e-09 4.61308e-11)
(4.99845e-05 -1.03309e-09 4.51055e-11)
(4.99862e-05 -1.00638e-09 4.39393e-11)
(4.99879e-05 -9.72964e-10 4.24805e-11)
(4.99896e-05 -9.28822e-10 4.05533e-11)
(4.99913e-05 -8.69199e-10 3.79501e-11)
(4.9993e-05 -7.88727e-10 3.44366e-11)
(4.99947e-05 -6.81414e-10 2.97512e-11)
(4.99963e-05 -5.40875e-10 2.36151e-11)
(4.99979e-05 -3.60601e-10 1.57442e-11)
(4.99993e-05 -1.34499e-10 5.87238e-12)
(5.00005e-05 1.42399e-10 -6.21723e-12)
(5.00016e-05 4.72956e-10 -2.06497e-11)
(5.00024e-05 8.56729e-10 -3.74055e-11)
(5.0003e-05 1.28875e-09 -5.62679e-11)
(5.00032e-05 1.75842e-09 -7.6774e-11)
(5.0003e-05 2.24828e-09 -9.81617e-11)
(5.00024e-05 2.73892e-09 -1.19584e-10)
(4.99759e-05 -1.73609e-09 7.57994e-11)
(4.99776e-05 -1.68625e-09 7.3623e-11)
(4.99793e-05 -1.6442e-09 7.17873e-11)
(4.9981e-05 -1.60785e-09 7.02002e-11)
(4.99827e-05 -1.57449e-09 6.87435e-11)
(4.99844e-05 -1.54061e-09 6.72646e-11)
(4.99861e-05 -1.50208e-09 6.55823e-11)
(4.99878e-05 -1.45377e-09 6.34729e-11)
(4.99895e-05 -1.38972e-09 6.06763e-11)
(4.99912e-05 -1.30287e-09 5.68844e-11)
(4.99929e-05 -1.18522e-09 5.17478e-11)
(4.99945e-05 -1.02778e-09 4.48739e-11)
(4.99962e-05 -8.20887e-10 3.58407e-11)
(4.99977e-05 -5.54586e-10 2.42138e-11)
(4.99991e-05 -2.19405e-10 9.57943e-12)
(5.00004e-05 1.92597e-10 -8.40894e-12)
(5.00015e-05 6.86356e-10 -2.99669e-11)
(5.00024e-05 1.26193e-09 -5.50969e-11)
(5.00029e-05 1.91255e-09 -8.35037e-11)
(5.00031e-05 2.62272e-09 -1.1451e-10)
(5.0003e-05 3.36609e-09 -1.46966e-10)
(5.00024e-05 4.11248e-09 -1.79555e-10)
(4.99759e-05 -2.28991e-09 9.99795e-11)
(4.99776e-05 -2.22567e-09 9.71749e-11)
(4.99793e-05 -2.17171e-09 9.48187e-11)
(4.9981e-05 -2.12528e-09 9.27918e-11)
(4.99826e-05 -2.0829e-09 9.09412e-11)
(4.99843e-05 -2.04002e-09 8.90692e-11)
(4.9986e-05 -1.99128e-09 8.69411e-11)
(4.99876e-05 -1.93001e-09 8.42659e-11)
(4.99893e-05 -1.84842e-09 8.07038e-11)
(4.9991e-05 -1.73727e-09 7.58508e-11)
(4.99927e-05 -1.58597e-09 6.9245e-11)
(4.99943e-05 -1.38256e-09 6.03637e-11)
(4.99959e-05 -1.11401e-09 4.86385e-11)
(4.99975e-05 -7.66714e-10 3.34755e-11)
(4.99989e-05 -3.2745e-10 1.42968e-11)
(5.00002e-05 2.15287e-10 -9.39957e-12)
(5.00014e-05 8.69308e-10 -3.79547e-11)
(5.00023e-05 1.63613e-09 -7.1435e-11)
(5.00029e-05 2.5082e-09 -1.0951e-10)
(5.00031e-05 3.46583e-09 -1.51321e-10)
(5.0003e-05 4.47397e-09 -1.95338e-10)
(5.00025e-05 5.49074e-09 -2.39731e-10)
(4.9976e-05 -2.82002e-09 1.23125e-10)
(4.99776e-05 -2.74327e-09 1.19773e-10)
(4.99793e-05 -2.67914e-09 1.16974e-10)
(4.99809e-05 -2.62435e-09 1.14581e-10)
(4.99825e-05 -2.57468e-09 1.12413e-10)
(4.99841e-05 -2.52469e-09 1.1023e-10)
(4.99858e-05 -2.46789e-09 1.0775e-10)
(4.99874e-05 -2.39622e-09 1.04621e-10)
(4.99891e-05 -2.30024e-09 1.00431e-10)
(4.99908e-05 -2.16863e-09 9.46842e-11)
(4.99924e-05 -1.98834e-09 8.68129e-11)
(4.99941e-05 -1.74448e-09 7.61656e-11)
(4.99957e-05 -1.42061e-09 6.20252e-11)
(4.99972e-05 -9.9925e-10 4.36282e-11)
(4.99987e-05 -4.62938e-10 2.02123e-11)
(5e-05 2.04138e-10 -8.9128e-12)
(5.00012e-05 1.01375e-09 -4.42614e-11)
(5.00021e-05 1.97024e-09 -8.60225e-11)
(5.00028e-05 3.06673e-09 -1.33896e-10)
(5.00031e-05 4.28053e-09 -1.86892e-10)
(5.0003e-05 5.56829e-09 -2.43116e-10)
(5.00025e-05 6.87526e-09 -3.0018e-10)
(4.9976e-05 -3.32604e-09 1.45218e-10)
(4.99776e-05 -3.23891e-09 1.41414e-10)
(4.99792e-05 -3.16657e-09 1.38255e-10)
(4.99808e-05 -3.10524e-09 1.35578e-10)
(4.99824e-05 -3.05012e-09 1.33171e-10)
(4.9984e-05 -2.99497e-09 1.30763e-10)
(4.99856e-05 -2.93239e-09 1.28031e-10)
(4.99872e-05 -2.8531e-09 1.24569e-10)
(4.99888e-05 -2.74618e-09 1.19901e-10)
(4.99905e-05 -2.59847e-09 1.13451e-10)
(4.99921e-05 -2.39465e-09 1.04552e-10)
(4.99937e-05 -2.11698e-09 9.24295e-11)
(4.99953e-05 -1.74564e-09 7.62162e-11)
(4.99969e-05 -1.25905e-09 5.49712e-11)
(4.99983e-05 -6.35036e-10 2.77263e-11)
(4.99997e-05 1.47408e-10 -6.43593e-12)
(5.00009e-05 1.1054e-09 -4.82625e-11)
(5.00019e-05 2.24792e-09 -9.8146e-11)
(5.00026e-05 3.571e-09 -1.55913e-10)
(5.0003e-05 5.05102e-09 -2.20532e-10)
(5.0003e-05 6.63753e-09 -2.898e-10)
(5.00025e-05 8.26188e-09 -3.60721e-10)
(4.9976e-05 -3.80107e-09 1.65958e-10)
(4.99776e-05 -3.70603e-09 1.61809e-10)
(4.99791e-05 -3.62765e-09 1.58387e-10)
(4.99807e-05 -3.5618e-09 1.55512e-10)
(4.99822e-05 -3.50319e-09 1.52952e-10)
(4.99838e-05 -3.44497e-09 1.5041e-10)
(4.99853e-05 -3.37896e-09 1.47529e-10)
(4.99869e-05 -3.29494e-09 1.4386e-10)
(4.99885e-05 -3.18073e-09 1.38874e-10)
(4.99901e-05 -3.02159e-09 1.31926e-10)
(4.99917e-05 -2.80017e-09 1.22258e-10)
(4.99933e-05 -2.49612e-09 1.08983e-10)
(4.99949e-05 -2.08627e-09 9.10883e-11)
(4.99964e-05 -1.54487e-09 6.74503e-11)
(4.99979e-05 -8.44599e-10 3.6876e-11)
(4.99993e-05 4.16631e-11 -1.81901e-12)
(5.00005e-05 1.13793e-09 -4.96829e-11)
(5.00016e-05 2.46011e-09 -1.07411e-10)
(5.00024e-05 4.01016e-09 -1.75087e-10)
(5.00029e-05 5.76662e-09 -2.51776e-10)
(5.00029e-05 7.6745e-09 -3.35075e-10)
(5.00025e-05 9.6511e-09 -4.21376e-10)
(4.99761e-05 -4.2459e-09 1.8538e-10)
(4.99776e-05 -4.14536e-09 1.8099e-10)
(4.99791e-05 -4.06304e-09 1.77396e-10)
(4.99806e-05 -3.99453e-09 1.74405e-10)
(4.99821e-05 -3.93419e-09 1.7177e-10)
(4.99836e-05 -3.87475e-09 1.69175e-10)
(4.99851e-05 -3.80748e-09 1.66238e-10)
(4.99866e-05 -3.72143e-09 1.62481e-10)
(4.99881e-05 -3.60348e-09 1.57331e-10)
(4.99897e-05 -3.43763e-09 1.5009e-10)
(4.99912e-05 -3.20484e-09 1.39926e-10)
(4.99928e-05 -2.88246e-09 1.25851e-10)
(4.99944e-05 -2.44426e-09 1.06718e-10)
(4.99959e-05 -1.86036e-09 8.12251e-11)
(4.99974e-05 -1.09804e-09 4.79413e-11)
(4.99988e-05 -1.23227e-10 5.38025e-12)
(5.00001e-05 1.09662e-09 -4.78795e-11)
(5.00012e-05 2.58709e-09 -1.12954e-10)
(5.00021e-05 4.36004e-09 -1.90363e-10)
(5.00027e-05 6.40107e-09 -2.79476e-10)
(5.00029e-05 8.65551e-09 -3.77907e-10)
(5.00025e-05 1.10286e-08 -4.81517e-10)
(4.99761e-05 -4.65656e-09 2.0331e-10)
(4.99776e-05 -4.55323e-09 1.98798e-10)
(4.9979e-05 -4.46918e-09 1.95129e-10)
(4.99804e-05 -4.39985e-09 1.92101e-10)
(4.99819e-05 -4.33941e-09 1.89463e-10)
(4.99833e-05 -4.28033e-09 1.86883e-10)
(4.99848e-05 -4.21355e-09 1.83968e-10)
(4.99863e-05 -4.12767e-09 1.80218e-10)
(4.99877e-05 -4.00895e-09 1.75034e-10)
(4.99892e-05 -3.8405e-09 1.6768e-10)
(4.99907e-05 -3.602e-09 1.57267e-10)
(4.99923e-05 -3.26898e-09 1.42727e-10)
(4.99938e-05 -2.81255e-09 1.22799e-10)
(4.99953e-05 -2.19903e-09 9.60118e-11)
(4.99967e-05 -1.39029e-09 6.07016e-11)
(4.99982e-05 -3.44852e-10 1.50566e-11)
(4.99995e-05 9.79865e-10 -4.27818e-11)
(5.00007e-05 2.6219e-09 -1.14475e-10)
(5.00017e-05 4.60791e-09 -2.01186e-10)
(5.00024e-05 6.93714e-09 -3.02882e-10)
(5.00027e-05 9.56344e-09 -4.17549e-10)
(5.00025e-05 1.23858e-08 -5.40774e-10)
(4.99761e-05 -5.0355e-09 2.19854e-10)
(4.99775e-05 -4.93157e-09 2.15317e-10)
(4.99789e-05 -4.84752e-09 2.11647e-10)
(4.99803e-05 -4.77872e-09 2.08643e-10)
(4.99817e-05 -4.71928e-09 2.06048e-10)
(4.99831e-05 -4.66159e-09 2.03529e-10)
(4.99845e-05 -4.59647e-09 2.00686e-10)
(4.99859e-05 -4.51233e-09 1.97012e-10)
(4.99873e-05 -4.39516e-09 1.91897e-10)
(4.99887e-05 -4.22759e-09 1.8458e-10)
(4.99902e-05 -3.98854e-09 1.74143e-10)
(4.99916e-05 -3.65228e-09 1.59462e-10)
(4.99931e-05 -3.18794e-09 1.39188e-10)
(4.99945e-05 -2.55867e-09 1.11714e-10)
(4.9996e-05 -1.72143e-09 7.5159e-11)
(4.99974e-05 -6.27339e-10 2.73902e-11)
(4.99988e-05 7.77109e-10 -3.39293e-11)
(5e-05 2.54504e-09 -1.11119e-10)
(5.00011e-05 4.72344e-09 -2.06229e-10)
(5.0002e-05 7.33418e-09 -3.20217e-10)
(5.00024e-05 1.03531e-08 -4.52024e-10)
(5.00024e-05 1.36864e-08 -5.9756e-10)
(4.99761e-05 -5.38305e-09 2.35029e-10)
(4.99775e-05 -5.2809e-09 2.30569e-10)
(4.99788e-05 -5.19852e-09 2.26972e-10)
(4.99801e-05 -5.13133e-09 2.24038e-10)
(4.99815e-05 -5.07352e-09 2.21515e-10)
(4.99828e-05 -5.01755e-09 2.19071e-10)
(4.99842e-05 -4.95432e-09 2.1631e-10)
(4.99855e-05 -4.87232e-09 2.1273e-10)
(4.99869e-05 -4.75755e-09 2.07719e-10)
(4.99882e-05 -4.59259e-09 2.00517e-10)
(4.99896e-05 -4.35611e-09 1.90192e-10)
(4.9991e-05 -4.0218e-09 1.75595e-10)
(4.99924e-05 -3.55758e-09 1.55327e-10)
(4.99937e-05 -2.92442e-09 1.27683e-10)
(4.99951e-05 -2.07537e-09 9.06124e-11)
(4.99965e-05 -9.55e-10 4.16962e-11)
(4.99978e-05 5.00993e-10 -2.18738e-11)
(4.99991e-05 2.36221e-09 -1.03136e-10)
(5.00003e-05 4.70076e-09 -2.05239e-10)
(5.00013e-05 7.57107e-09 -3.3056e-10)
(5.0002e-05 1.09894e-08 -4.79805e-10)
(5.00022e-05 1.48943e-08 -6.50299e-10)
(4.99761e-05 -5.70267e-09 2.48984e-10)
(4.99774e-05 -5.60394e-09 2.44673e-10)
(4.99787e-05 -5.52426e-09 2.41194e-10)
(4.998e-05 -5.45917e-09 2.38352e-10)
(4.99813e-05 -5.40304e-09 2.35902e-10)
(4.99825e-05 -5.3485e-09 2.33521e-10)
(4.99838e-05 -5.28671e-09 2.30823e-10)
(4.99851e-05 -5.20641e-09 2.27317e-10)
(4.99864e-05 -5.09392e-09 2.22405e-10)
(4.99877e-05 -4.93212e-09 2.15341e-10)
(4.9989e-05 -4.69995e-09 2.05204e-10)
(4.99903e-05 -4.37123e-09 1.90852e-10)
(4.99916e-05 -3.91366e-09 1.70874e-10)
(4.99929e-05 -3.28727e-09 1.43525e-10)
(4.99941e-05 -2.44283e-09 1.06656e-10)
(4.99954e-05 -1.32022e-09 5.76421e-11)
(4.99967e-05 1.53977e-10 -6.72272e-12)
(4.9998e-05 2.06526e-09 -9.01709e-11)
(4.99992e-05 4.51385e-09 -1.97079e-10)
(5.00004e-05 7.5966e-09 -3.31675e-10)
(5.00012e-05 1.13954e-08 -4.97533e-10)
(5.00017e-05 1.59243e-08 -6.95271e-10)
(4.99761e-05 -6.00097e-09 2.62008e-10)
(4.99773e-05 -5.90697e-09 2.57904e-10)
(4.99786e-05 -5.83052e-09 2.54566e-10)
(4.99798e-05 -5.76735e-09 2.51808e-10)
(4.9981e-05 -5.71207e-09 2.49394e-10)
(4.99823e-05 -5.65759e-09 2.47015e-10)
(4.99835e-05 -5.59538e-09 2.44299e-10)
(4.99848e-05 -5.5146e-09 2.40772e-10)
(4.9986e-05 -5.40202e-09 2.35857e-10)
(4.99872e-05 -5.2411e-09 2.28831e-10)
(4.99884e-05 -5.01142e-09 2.18803e-10)
(4.99896e-05 -4.68748e-09 2.0466e-10)
(4.99907e-05 -4.23763e-09 1.85019e-10)
(4.99919e-05 -3.62223e-09 1.5815e-10)
(4.99931e-05 -2.79166e-09 1.21886e-10)
(4.99942e-05 -1.68372e-09 7.35129e-11)
(4.99954e-05 -2.19484e-10 9.58289e-12)
(4.99966e-05 1.69862e-09 -7.41632e-11)
(4.99978e-05 4.19594e-09 -1.83198e-10)
(4.99989e-05 7.415e-09 -3.23746e-10)
(5e-05 1.15239e-08 -5.03143e-10)
(5.00009e-05 1.66714e-08 -7.27887e-10)
(4.9976e-05 -6.28129e-09 2.74247e-10)
(4.99772e-05 -6.19287e-09 2.70387e-10)
(4.99784e-05 -6.11985e-09 2.67198e-10)
(4.99796e-05 -6.05816e-09 2.64505e-10)
(4.99809e-05 -6.00271e-09 2.62084e-10)
(4.99821e-05 -5.9467e-09 2.59638e-10)
(4.99832e-05 -5.88197e-09 2.56812e-10)
(4.99844e-05 -5.79812e-09 2.53151e-10)
(4.99856e-05 -5.68248e-09 2.48102e-10)
(4.99867e-05 -5.5192e-09 2.40973e-10)
(4.99878e-05 -5.28874e-09 2.30911e-10)
(4.99889e-05 -4.9667e-09 2.16851e-10)
(4.99899e-05 -4.52274e-09 1.97467e-10)
(4.9991e-05 -3.91871e-09 1.71094e-10)
(4.99919e-05 -3.10656e-09 1.35635e-10)
(4.99929e-05 -2.0251e-09 8.84176e-11)
(4.99939e-05 -5.94895e-10 2.59737e-11)
(4.99949e-05 1.28668e-09 -5.61776e-11)
(4.99959e-05 3.76092e-09 -1.64205e-10)
(4.9997e-05 7.00896e-09 -3.06018e-10)
(4.99981e-05 1.12981e-08 -4.93284e-10)
(4.99992e-05 1.69713e-08 -7.40982e-10)
(4.99759e-05 -6.55721e-09 2.86294e-10)
(4.99771e-05 -6.47409e-09 2.82665e-10)
(4.99783e-05 -6.40356e-09 2.79585e-10)
(4.99795e-05 -6.34179e-09 2.76888e-10)
(4.99807e-05 -6.28392e-09 2.74361e-10)
(4.99819e-05 -6.22343e-09 2.71721e-10)
(4.9983e-05 -6.15249e-09 2.68623e-10)
(4.99841e-05 -6.06105e-09 2.64631e-10)
(4.99852e-05 -5.93691e-09 2.59211e-10)
(4.99863e-05 -5.76483e-09 2.51698e-10)
(4.99873e-05 -5.52607e-09 2.41273e-10)
(4.99883e-05 -5.19728e-09 2.26918e-10)
(4.99892e-05 -4.74955e-09 2.0737e-10)
(4.999e-05 -4.14659e-09 1.81044e-10)
(4.99908e-05 -3.34287e-09 1.45953e-10)
(4.99916e-05 -2.28006e-09 9.95496e-11)
(4.99922e-05 -8.82963e-10 3.8551e-11)
(4.99929e-05 9.48801e-10 -4.14255e-11)
(4.99936e-05 3.35273e-09 -1.46383e-10)
(4.99943e-05 6.52563e-09 -2.84915e-10)
(4.9995e-05 1.0772e-08 -4.70315e-10)
(4.99962e-05 1.66392e-08 -7.26482e-10)
(4.99758e-05 -5.85928e-10 -2.5582e-11)
(4.99776e-05 -5.68701e-10 -2.48299e-11)
(4.99793e-05 -5.54098e-10 -2.41923e-11)
(4.99811e-05 -5.41399e-10 -2.36378e-11)
(4.99828e-05 -5.29672e-10 -2.31259e-11)
(4.99845e-05 -5.17719e-10 -2.2604e-11)
(4.99862e-05 -5.04117e-10 -2.20101e-11)
(4.9988e-05 -4.87115e-10 -2.12678e-11)
(4.99897e-05 -4.64686e-10 -2.02885e-11)
(4.99914e-05 -4.34443e-10 -1.8968e-11)
(4.99931e-05 -3.93696e-10 -1.7189e-11)
(4.99948e-05 -3.39451e-10 -1.48206e-11)
(4.99964e-05 -2.68533e-10 -1.17242e-11)
(4.99979e-05 -1.77719e-10 -7.75922e-12)
(4.99993e-05 -6.40218e-11 -2.79507e-12)
(5.00006e-05 7.4962e-11 3.27311e-12)
(5.00017e-05 2.40559e-10 1.05032e-11)
(5.00025e-05 4.32429e-10 1.88805e-11)
(5.0003e-05 6.47978e-10 2.82916e-11)
(5.00032e-05 8.81834e-10 3.8502e-11)
(5.0003e-05 1.12524e-09 4.91295e-11)
(5.00024e-05 1.36839e-09 5.97457e-11)
(4.99758e-05 -1.16762e-09 -5.09794e-11)
(4.99776e-05 -1.13353e-09 -4.9491e-11)
(4.99793e-05 -1.10468e-09 -4.82314e-11)
(4.99811e-05 -1.07964e-09 -4.71381e-11)
(4.99828e-05 -1.05657e-09 -4.61307e-11)
(4.99845e-05 -1.03309e-09 -4.51054e-11)
(4.99862e-05 -1.00638e-09 -4.39392e-11)
(4.99879e-05 -9.72964e-10 -4.24804e-11)
(4.99896e-05 -9.28822e-10 -4.05532e-11)
(4.99913e-05 -8.69199e-10 -3.795e-11)
(4.9993e-05 -7.88727e-10 -3.44364e-11)
(4.99947e-05 -6.81414e-10 -2.97511e-11)
(4.99963e-05 -5.40875e-10 -2.3615e-11)
(4.99979e-05 -3.60601e-10 -1.5744e-11)
(4.99993e-05 -1.34499e-10 -5.87218e-12)
(5.00005e-05 1.42399e-10 6.21747e-12)
(5.00016e-05 4.72956e-10 2.065e-11)
(5.00024e-05 8.56729e-10 3.74059e-11)
(5.0003e-05 1.28875e-09 5.62683e-11)
(5.00032e-05 1.75842e-09 7.67745e-11)
(5.0003e-05 2.24828e-09 9.81623e-11)
(5.00024e-05 2.73892e-09 1.19584e-10)
(4.99759e-05 -1.73609e-09 -7.57994e-11)
(4.99776e-05 -1.68625e-09 -7.3623e-11)
(4.99793e-05 -1.6442e-09 -7.17873e-11)
(4.9981e-05 -1.60785e-09 -7.02002e-11)
(4.99827e-05 -1.57449e-09 -6.87435e-11)
(4.99844e-05 -1.54061e-09 -6.72646e-11)
(4.99861e-05 -1.50208e-09 -6.55823e-11)
(4.99878e-05 -1.45377e-09 -6.34729e-11)
(4.99895e-05 -1.38972e-09 -6.06762e-11)
(4.99912e-05 -1.30287e-09 -5.68844e-11)
(4.99929e-05 -1.18522e-09 -5.17477e-11)
(4.99945e-05 -1.02778e-09 -4.48738e-11)
(4.99962e-05 -8.20887e-10 -3.58406e-11)
(4.99977e-05 -5.54586e-10 -2.42136e-11)
(4.99991e-05 -2.19405e-10 -9.57924e-12)
(5.00004e-05 1.92597e-10 8.40919e-12)
(5.00015e-05 6.86356e-10 2.99672e-11)
(5.00024e-05 1.26193e-09 5.50973e-11)
(5.00029e-05 1.91255e-09 8.35042e-11)
(5.00031e-05 2.62272e-09 1.14511e-10)
(5.0003e-05 3.36609e-09 1.46967e-10)
(5.00024e-05 4.11248e-09 1.79556e-10)
(4.99759e-05 -2.28991e-09 -9.99795e-11)
(4.99776e-05 -2.22567e-09 -9.71749e-11)
(4.99793e-05 -2.17171e-09 -9.48187e-11)
(4.9981e-05 -2.12528e-09 -9.27918e-11)
(4.99826e-05 -2.0829e-09 -9.09412e-11)
(4.99843e-05 -2.04002e-09 -8.90693e-11)
(4.9986e-05 -1.99128e-09 -8.69411e-11)
(4.99876e-05 -1.93001e-09 -8.42659e-11)
(4.99893e-05 -1.84842e-09 -8.07038e-11)
(4.9991e-05 -1.73727e-09 -7.58508e-11)
(4.99927e-05 -1.58597e-09 -6.9245e-11)
(4.99943e-05 -1.38256e-09 -6.03636e-11)
(4.99959e-05 -1.11401e-09 -4.86384e-11)
(4.99975e-05 -7.66714e-10 -3.34753e-11)
(4.99989e-05 -3.2745e-10 -1.42966e-11)
(5.00002e-05 2.15287e-10 9.39983e-12)
(5.00014e-05 8.69308e-10 3.79551e-11)
(5.00023e-05 1.63613e-09 7.14354e-11)
(5.00029e-05 2.5082e-09 1.09511e-10)
(5.00031e-05 3.46583e-09 1.51322e-10)
(5.0003e-05 4.47397e-09 1.95338e-10)
(5.00025e-05 5.49074e-09 2.39732e-10)
(4.9976e-05 -2.82002e-09 -1.23125e-10)
(4.99776e-05 -2.74327e-09 -1.19774e-10)
(4.99793e-05 -2.67914e-09 -1.16974e-10)
(4.99809e-05 -2.62435e-09 -1.14582e-10)
(4.99825e-05 -2.57468e-09 -1.12413e-10)
(4.99841e-05 -2.52469e-09 -1.1023e-10)
(4.99858e-05 -2.46789e-09 -1.0775e-10)
(4.99874e-05 -2.39622e-09 -1.04621e-10)
(4.99891e-05 -2.30024e-09 -1.00431e-10)
(4.99908e-05 -2.16863e-09 -9.46843e-11)
(4.99924e-05 -1.98834e-09 -8.68129e-11)
(4.99941e-05 -1.74448e-09 -7.61657e-11)
(4.99957e-05 -1.42061e-09 -6.20252e-11)
(4.99972e-05 -9.9925e-10 -4.36281e-11)
(4.99987e-05 -4.62938e-10 -2.02122e-11)
(5e-05 2.04138e-10 8.91305e-12)
(5.00012e-05 1.01375e-09 4.42617e-11)
(5.00021e-05 1.97024e-09 8.6023e-11)
(5.00028e-05 3.06673e-09 1.33897e-10)
(5.00031e-05 4.28053e-09 1.86893e-10)
(5.0003e-05 5.56829e-09 2.43117e-10)
(5.00025e-05 6.87526e-09 3.00181e-10)
(4.9976e-05 -3.32604e-09 -1.45218e-10)
(4.99776e-05 -3.23891e-09 -1.41414e-10)
(4.99792e-05 -3.16657e-09 -1.38256e-10)
(4.99808e-05 -3.10524e-09 -1.35578e-10)
(4.99824e-05 -3.05012e-09 -1.33171e-10)
(4.9984e-05 -2.99497e-09 -1.30764e-10)
(4.99856e-05 -2.93239e-09 -1.28031e-10)
(4.99872e-05 -2.8531e-09 -1.24569e-10)
(4.99888e-05 -2.74618e-09 -1.19901e-10)
(4.99905e-05 -2.59847e-09 -1.13452e-10)
(4.99921e-05 -2.39465e-09 -1.04553e-10)
(4.99937e-05 -2.11698e-09 -9.24295e-11)
(4.99953e-05 -1.74564e-09 -7.62162e-11)
(4.99969e-05 -1.25905e-09 -5.49711e-11)
(4.99983e-05 -6.35036e-10 -2.77261e-11)
(4.99997e-05 1.47408e-10 6.43618e-12)
(5.00009e-05 1.1054e-09 4.82629e-11)
(5.00019e-05 2.24792e-09 9.81465e-11)
(5.00026e-05 3.571e-09 1.55914e-10)
(5.0003e-05 5.05102e-09 2.20533e-10)
(5.0003e-05 6.63753e-09 2.89802e-10)
(5.00025e-05 8.26188e-09 3.60722e-10)
(4.9976e-05 -3.80107e-09 -1.65958e-10)
(4.99776e-05 -3.70603e-09 -1.61809e-10)
(4.99791e-05 -3.62765e-09 -1.58387e-10)
(4.99807e-05 -3.5618e-09 -1.55512e-10)
(4.99822e-05 -3.50319e-09 -1.52953e-10)
(4.99838e-05 -3.44497e-09 -1.50411e-10)
(4.99853e-05 -3.37896e-09 -1.47529e-10)
(4.99869e-05 -3.29494e-09 -1.4386e-10)
(4.99885e-05 -3.18073e-09 -1.38874e-10)
(4.99901e-05 -3.02159e-09 -1.31926e-10)
(4.99917e-05 -2.80017e-09 -1.22258e-10)
(4.99933e-05 -2.49612e-09 -1.08983e-10)
(4.99949e-05 -2.08627e-09 -9.10883e-11)
(4.99964e-05 -1.54487e-09 -6.74503e-11)
(4.99979e-05 -8.44599e-10 -3.68759e-11)
(4.99993e-05 4.16631e-11 1.81924e-12)
(5.00005e-05 1.13793e-09 4.96832e-11)
(5.00016e-05 2.46011e-09 1.07411e-10)
(5.00024e-05 4.01016e-09 1.75088e-10)
(5.00029e-05 5.76662e-09 2.51777e-10)
(5.00029e-05 7.6745e-09 3.35077e-10)
(5.00025e-05 9.6511e-09 4.21377e-10)
(4.99761e-05 -4.2459e-09 -1.8538e-10)
(4.99776e-05 -4.14536e-09 -1.80991e-10)
(4.99791e-05 -4.06304e-09 -1.77396e-10)
(4.99806e-05 -3.99453e-09 -1.74405e-10)
(4.99821e-05 -3.93419e-09 -1.71771e-10)
(4.99836e-05 -3.87475e-09 -1.69175e-10)
(4.99851e-05 -3.80748e-09 -1.66239e-10)
(4.99866e-05 -3.72143e-09 -1.62481e-10)
(4.99881e-05 -3.60348e-09 -1.57332e-10)
(4.99897e-05 -3.43763e-09 -1.5009e-10)
(4.99912e-05 -3.20484e-09 -1.39926e-10)
(4.99928e-05 -2.88246e-09 -1.25851e-10)
(4.99944e-05 -2.44426e-09 -1.06719e-10)
(4.99959e-05 -1.86036e-09 -8.12252e-11)
(4.99974e-05 -1.09804e-09 -4.79412e-11)
(4.99988e-05 -1.23227e-10 -5.38004e-12)
(5.00001e-05 1.09662e-09 4.78799e-11)
(5.00012e-05 2.58709e-09 1.12955e-10)
(5.00021e-05 4.36004e-09 1.90364e-10)
(5.00027e-05 6.40107e-09 2.79477e-10)
(5.00029e-05 8.65551e-09 3.77909e-10)
(5.00025e-05 1.10286e-08 4.81519e-10)
(4.99761e-05 -4.65656e-09 -2.0331e-10)
(4.99776e-05 -4.55323e-09 -1.98798e-10)
(4.9979e-05 -4.46918e-09 -1.95129e-10)
(4.99804e-05 -4.39985e-09 -1.92102e-10)
(4.99819e-05 -4.33941e-09 -1.89463e-10)
(4.99833e-05 -4.28033e-09 -1.86883e-10)
(4.99848e-05 -4.21355e-09 -1.83968e-10)
(4.99863e-05 -4.12767e-09 -1.80218e-10)
(4.99877e-05 -4.00895e-09 -1.75035e-10)
(4.99892e-05 -3.8405e-09 -1.6768e-10)
(4.99907e-05 -3.602e-09 -1.57267e-10)
(4.99923e-05 -3.26898e-09 -1.42727e-10)
(4.99938e-05 -2.81255e-09 -1.22799e-10)
(4.99953e-05 -2.19903e-09 -9.60119e-11)
(4.99967e-05 -1.39029e-09 -6.07015e-11)
(4.99982e-05 -3.44852e-10 -1.50564e-11)
(4.99995e-05 9.79865e-10 4.27821e-11)
(5.00007e-05 2.6219e-09 1.14475e-10)
(5.00017e-05 4.60791e-09 2.01186e-10)
(5.00024e-05 6.93714e-09 3.02883e-10)
(5.00027e-05 9.56344e-09 4.1755e-10)
(5.00025e-05 1.23858e-08 5.40776e-10)
(4.99761e-05 -5.0355e-09 -2.19855e-10)
(4.99775e-05 -4.93157e-09 -2.15317e-10)
(4.99789e-05 -4.84752e-09 -2.11648e-10)
(4.99803e-05 -4.77872e-09 -2.08644e-10)
(4.99817e-05 -4.71928e-09 -2.06049e-10)
(4.99831e-05 -4.66159e-09 -2.0353e-10)
(4.99845e-05 -4.59647e-09 -2.00686e-10)
(4.99859e-05 -4.51233e-09 -1.97013e-10)
(4.99873e-05 -4.39516e-09 -1.91897e-10)
(4.99887e-05 -4.22759e-09 -1.84581e-10)
(4.99902e-05 -3.98854e-09 -1.74143e-10)
(4.99916e-05 -3.65228e-09 -1.59462e-10)
(4.99931e-05 -3.18794e-09 -1.39189e-10)
(4.99945e-05 -2.55867e-09 -1.11714e-10)
(4.9996e-05 -1.72143e-09 -7.51591e-11)
(4.99974e-05 -6.27339e-10 -2.73901e-11)
(4.99988e-05 7.77109e-10 3.39296e-11)
(5e-05 2.54504e-09 1.11119e-10)
(5.00011e-05 4.72344e-09 2.0623e-10)
(5.0002e-05 7.33418e-09 3.20218e-10)
(5.00024e-05 1.03531e-08 4.52026e-10)
(5.00024e-05 1.36864e-08 5.97562e-10)
(4.99761e-05 -5.38305e-09 -2.35029e-10)
(4.99775e-05 -5.2809e-09 -2.30569e-10)
(4.99788e-05 -5.19852e-09 -2.26972e-10)
(4.99801e-05 -5.13133e-09 -2.24039e-10)
(4.99815e-05 -5.07352e-09 -2.21515e-10)
(4.99828e-05 -5.01755e-09 -2.19071e-10)
(4.99842e-05 -4.95432e-09 -2.16311e-10)
(4.99855e-05 -4.87232e-09 -2.1273e-10)
(4.99869e-05 -4.75755e-09 -2.0772e-10)
(4.99882e-05 -4.59259e-09 -2.00517e-10)
(4.99896e-05 -4.35611e-09 -1.90192e-10)
(4.9991e-05 -4.0218e-09 -1.75596e-10)
(4.99924e-05 -3.55758e-09 -1.55327e-10)
(4.99937e-05 -2.92442e-09 -1.27683e-10)
(4.99951e-05 -2.07537e-09 -9.06125e-11)
(4.99965e-05 -9.55e-10 -4.16961e-11)
(4.99978e-05 5.00993e-10 2.18741e-11)
(4.99991e-05 2.36221e-09 1.03137e-10)
(5.00003e-05 4.70076e-09 2.0524e-10)
(5.00013e-05 7.57107e-09 3.30561e-10)
(5.0002e-05 1.09894e-08 4.79807e-10)
(5.00022e-05 1.48943e-08 6.50302e-10)
(4.99761e-05 -5.70267e-09 -2.48984e-10)
(4.99774e-05 -5.60394e-09 -2.44674e-10)
(4.99787e-05 -5.52426e-09 -2.41195e-10)
(4.998e-05 -5.45917e-09 -2.38353e-10)
(4.99813e-05 -5.40304e-09 -2.35902e-10)
(4.99825e-05 -5.3485e-09 -2.33521e-10)
(4.99838e-05 -5.28671e-09 -2.30823e-10)
(4.99851e-05 -5.20641e-09 -2.27317e-10)
(4.99864e-05 -5.09392e-09 -2.22406e-10)
(4.99877e-05 -4.93212e-09 -2.15341e-10)
(4.9989e-05 -4.69995e-09 -2.05205e-10)
(4.99903e-05 -4.37123e-09 -1.90852e-10)
(4.99916e-05 -3.91366e-09 -1.70874e-10)
(4.99929e-05 -3.28727e-09 -1.43526e-10)
(4.99941e-05 -2.44283e-09 -1.06657e-10)
(4.99954e-05 -1.32022e-09 -5.7642e-11)
(4.99967e-05 1.53977e-10 6.72297e-12)
(4.9998e-05 2.06526e-09 9.01714e-11)
(4.99992e-05 4.51385e-09 1.9708e-10)
(5.00004e-05 7.5966e-09 3.31676e-10)
(5.00012e-05 1.13954e-08 4.97534e-10)
(5.00017e-05 1.59243e-08 6.95274e-10)
(4.99761e-05 -6.00097e-09 -2.62008e-10)
(4.99773e-05 -5.90697e-09 -2.57904e-10)
(4.99786e-05 -5.83052e-09 -2.54566e-10)
(4.99798e-05 -5.76735e-09 -2.51808e-10)
(4.9981e-05 -5.71207e-09 -2.49395e-10)
(4.99823e-05 -5.65759e-09 -2.47016e-10)
(4.99835e-05 -5.59538e-09 -2.443e-10)
(4.99848e-05 -5.5146e-09 -2.40773e-10)
(4.9986e-05 -5.40202e-09 -2.35858e-10)
(4.99872e-05 -5.2411e-09 -2.28832e-10)
(4.99884e-05 -5.01142e-09 -2.18804e-10)
(4.99896e-05 -4.68748e-09 -2.0466e-10)
(4.99907e-05 -4.23763e-09 -1.85019e-10)
(4.99919e-05 -3.62223e-09 -1.5815e-10)
(4.99931e-05 -2.79166e-09 -1.21887e-10)
(4.99942e-05 -1.68372e-09 -7.35129e-11)
(4.99954e-05 -2.19484e-10 -9.5827e-12)
(4.99966e-05 1.69862e-09 7.41636e-11)
(4.99978e-05 4.19594e-09 1.83199e-10)
(4.99989e-05 7.415e-09 3.23747e-10)
(5e-05 1.15239e-08 5.03145e-10)
(5.00009e-05 1.66714e-08 7.2789e-10)
(4.9976e-05 -6.28129e-09 -2.74248e-10)
(4.99772e-05 -6.19287e-09 -2.70387e-10)
(4.99784e-05 -6.11985e-09 -2.67199e-10)
(4.99796e-05 -6.05816e-09 -2.64506e-10)
(4.99809e-05 -6.00271e-09 -2.62084e-10)
(4.99821e-05 -5.9467e-09 -2.59639e-10)
(4.99832e-05 -5.88197e-09 -2.56813e-10)
(4.99844e-05 -5.79812e-09 -2.53152e-10)
(4.99856e-05 -5.68248e-09 -2.48103e-10)
(4.99867e-05 -5.5192e-09 -2.40974e-10)
(4.99878e-05 -5.28874e-09 -2.30912e-10)
(4.99889e-05 -4.9667e-09 -2.16851e-10)
(4.99899e-05 -4.52274e-09 -1.97467e-10)
(4.9991e-05 -3.91871e-09 -1.71095e-10)
(4.99919e-05 -3.10656e-09 -1.35636e-10)
(4.99929e-05 -2.0251e-09 -8.84176e-11)
(4.99939e-05 -5.94895e-10 -2.59735e-11)
(4.99949e-05 1.28668e-09 5.61779e-11)
(4.99959e-05 3.76092e-09 1.64206e-10)