/*--------------------------------*- C++ -*----------------------------------*\
| =========                 |                                                 |
| \\      /  F ield         | foam-extend: Open Source CFD                    |
|  \\    /   O peration     | Version:     4.1-20200408                       |
|   \\  /    A nd           | Web:         http://www.foam-extend.org         |
|    \\/     M anipulation  |                                                 |
\*---------------------------------------------------------------------------*/
FoamFile
{
    version     2.0;
    format      ascii;
    class       volScalarField;
    location    "0.0050000";
    object      rho_0_0;
}
// * * * * * * * * * * * * * * * * * * * * * * * * * * * * * * * * * * * * * //

dimensions      [1 -3 0 0 0 0 0];

internalField   nonuniform List<scalar> 
1952
(
7826.87
7826.94
7827
7827.04
7827.07
7827.07
7827.07
7827.04
7827
7826.94
7826.87
7826.78
7826.68
7826.56
7826.42
7826.27
7826.1
7825.9
7825.69
7825.45
7825.19
7824.91
7824.6
7826.88
7826.96
7827.02
7827.06
7827.09
7827.09
7827.09
7827.06
7827.02
7826.96
7826.89
7826.8
7826.7
7826.58
7826.44
7826.29
7826.12
7825.92
7825.71
7825.47
7825.21
7824.93
7824.62
7826.9
7826.98
7827.04
7827.08
7827.11
7827.11
7827.11
7827.08
7827.04
7826.98
7826.91
7826.82
7826.72
7826.6
7826.46
7826.31
7826.14
7825.95
7825.74
7825.5
7825.24
7824.96
7824.65
7826.93
7827.01
7827.07
7827.11
7827.14
7827.14
7827.14
7827.1
7827.06
7827
7826.93
7826.84
7826.75
7826.63
7826.5
7826.35
7826.18
7825.99
7825.78
7825.54
7825.28
7825
7824.69
7826.96
7827.04
7827.12
7827.15
7827.18
7827.18
7827.17
7827.14
7827.1
7827.04
7826.97
7826.88
7826.78
7826.66
7826.53
7826.39
7826.22
7826.04
7825.83
7825.6
7825.34
7825.05
7824.74
7827.01
7827.09
7827.16
7827.2
7827.23
7827.23
7827.22
7827.18
7827.14
7827.07
7827
7826.92
7826.82
7826.71
7826.58
7826.44
7826.28
7826.09
7825.89
7825.66
7825.4
7825.12
7824.8
7827.07
7827.15
7827.23
7827.26
7827.29
7827.28
7827.27
7827.23
7827.18
7827.12
7827.05
7826.96
7826.87
7826.76
7826.63
7826.5
7826.34
7826.16
7825.96
7825.74
7825.48
7825.2
7824.88
7827.13
7827.22
7827.3
7827.33
7827.35
7827.34
7827.32
7827.28
7827.23
7827.16
7827.09
7827.01
7826.91
7826.81
7826.69
7826.56
7826.41
7826.24
7826.05
7825.83
7825.58
7825.29
7824.97
7827.22
7827.31
7827.39
7827.42
7827.44
7827.41
7827.39
7827.34
7827.29
7827.22
7827.14
7827.06
7826.97
7826.87
7826.76
7826.63
7826.49
7826.33
7826.15
7825.94
7825.69
7825.41
7825.08
7827.33
7827.41
7827.5
7827.51
7827.52
7827.49
7827.45
7827.4
7827.34
7827.27
7827.19
7827.11
7827.02
7826.93
7826.82
7826.71
7826.58
7826.43
7826.26
7826.06
7825.82
7825.55
7825.21
7827.47
7827.55
7827.63
7827.63
7827.62
7827.58
7827.53
7827.47
7827.4
7827.33
7827.25
7827.17
7827.08
7827
7826.9
7826.8
7826.68
7826.55
7826.39
7826.21
7825.99
7825.72
7825.39
7827.65
7827.7
7827.77
7827.75
7827.72
7827.66
7827.6
7827.53
7827.45
7827.38
7827.3
7827.22
7827.14
7827.06
7826.97
7826.88
7826.78
7826.66
7826.53
7826.37
7826.17
7825.92
7825.6
7827.9
7827.92
7827.96
7827.9
7827.85
7827.77
7827.68
7827.6
7827.51
7827.43
7827.35
7827.27
7827.2
7827.12
7827.05
7826.97
7826.89
7826.8
7826.69
7826.56
7826.39
7826.18
7825.88
7828.21
7828.16
7828.15
7828.05
7827.96
7827.85
7827.75
7827.65
7827.56
7827.47
7827.39
7827.31
7827.24
7827.18
7827.11
7827.05
7826.99
7826.92
7826.84
7826.75
7826.63
7826.46
7826.21
7828.7
7828.56
7828.4
7828.25
7828.08
7827.95
7827.82
7827.71
7827.6
7827.51
7827.43
7827.36
7827.29
7827.23
7827.18
7827.14
7827.1
7827.07
7827.03
7826.99
7826.92
7826.84
7826.67
7826.86
7826.94
7827
7827.04
7827.07
7827.07
7827.06
7827.03
7827
7826.94
7826.87
7826.78
7826.67
7826.55
7826.42
7826.26
7826.09
7825.9
7825.68
7825.44
7825.18
7824.9
7824.59
7826.92
7826.93
7826.95
7826.98
7827.02
7827.06
7827.12
7827.19
7827.29
7827.4
7827.56
7827.75
7828.01
7828.34
7828.84
7826.91
7826.97
7826.99
7827.01
7827.03
7827.07
7827.12
7827.18
7827.26
7827.36
7827.48
7827.65
7827.85
7828.12
7828.46
7828.94
7826.97
7827.02
7827.04
7827.06
7827.09
7827.12
7827.17
7827.24
7827.32
7827.42
7827.55
7827.72
7827.93
7828.21
7828.55
7829.03
7827.02
7827.09
7827.1
7827.12
7827.15
7827.19
7827.24
7827.3
7827.39
7827.49
7827.63
7827.8
7828.01
7828.29
7828.63
7829.09
7827.08
7827.15
7827.16
7827.18
7827.21
7827.24
7827.3
7827.36
7827.45
7827.56
7827.7
7827.87
7828.08
7828.36
7828.69
7829.15
7827.14
7827.22
7827.23
7827.25
7827.28
7827.32
7827.37
7827.43
7827.52
7827.63
7827.77
7827.94
7828.15
7828.42
7828.75
7829.19
7827.21
7827.3
7827.31
7827.33
7827.35
7827.39
7827.44
7827.51
7827.59
7827.7
7827.84
7828.01
7828.22
7828.48
7828.79
7829.21
7827.29
7827.39
7827.4
7827.42
7827.44
7827.48
7827.53
7827.59
7827.67
7827.78
7827.91
7828.08
7828.27
7828.52
7828.82
7829.22
7827.39
7827.49
7827.5
7827.52
7827.54
7827.57
7827.62
7827.68
7827.76
7827.85
7827.98
7828.14
7828.32
7828.56
7828.84
7829.22
7827.49
7827.62
7827.63
7827.64
7827.66
7827.68
7827.73
7827.77
7827.85
7827.94
7828.05
7828.2
7828.37
7828.59
7828.85
7829.2
7827.62
7827.76
7827.77
7827.77
7827.79
7827.81
7827.84
7827.88
7827.95
7828.02
7828.13
7828.25
7828.41
7828.61
7828.84
7829.17
7827.76
7827.93
7827.94
7827.94
7827.95
7827.96
7827.98
7828.01
7828.06
7828.12
7828.21
7828.31
7828.44
7828.61
7828.82
7829.12
7827.94
7828.13
7828.13
7828.13
7828.13
7828.13
7828.14
7828.15
7828.19
7828.23
7828.29
7828.37
7828.48
7828.62
7828.79
7829.06
7828.14
7828.37
7828.36
7828.35
7828.35
7828.33
7828.33
7828.32
7828.34
7828.35
7828.39
7828.43
7828.51
7828.61
7828.74
7828.97
7828.38
7828.65
7828.64
7828.62
7828.6
7828.57
7828.55
7828.52
7828.51
7828.49
7828.5
7828.5
7828.54
7828.6
7828.69
7828.87
7828.65
7828.98
7828.96
7828.93
7828.9
7828.85
7828.82
7828.76
7828.72
7828.66
7828.63
7828.59
7828.58
7828.58
7828.62
7828.74
7828.99
7829.36
7829.34
7829.3
7829.26
7829.19
7829.13
7829.04
7828.97
7828.87
7828.8
7828.7
7828.63
7828.57
7828.54
7828.59
7829.37
7829.81
7829.78
7829.73
7829.67
7829.59
7829.5
7829.38
7829.27
7829.13
7829
7828.84
7828.71
7828.56
7828.46
7828.43
7829.82
7830.33
7830.3
7830.23
7830.16
7830.05
7829.94
7829.79
7829.64
7829.44
7829.25
7829.02
7828.81
7828.57
7828.37
7828.24
7830.35
7830.94
7830.9
7830.82
7830.74
7830.61
7830.48
7830.28
7830.09
7829.83
7829.59
7829.26
7828.96
7828.6
7828.3
7828.03
7830.96
7831.65
7831.61
7831.52
7831.43
7831.28
7831.12
7830.89
7830.66
7830.34
7830.03
7829.62
7829.22
7828.73
7828.29
7827.85
7831.67
7832.46
7832.42
7832.32
7832.22
7832.05
7831.88
7831.62
7831.35
7830.98
7830.6
7830.09
7829.59
7828.94
7828.33
7827.67
7832.48
7833.45
7833.41
7833.31
7833.2
7833.03
7832.83
7832.55
7832.24
7831.82
7831.37
7830.76
7830.13
7829.29
7828.47
7827.51
7833.47
7834.57
7834.53
7834.44
7834.33
7834.15
7833.95
7833.66
7833.33
7832.87
7832.36
7831.65
7830.9
7829.86
7828.78
7827.39
7834.59
7835.82
7835.79
7835.7
7835.6
7835.43
7835.24
7834.95
7834.62
7834.14
7833.6
7832.83
7831.97
7830.74
7829.38
7827.48
7835.84
7837.18
7837.16
7837.09
7837.01
7836.87
7836.7
7836.44
7836.13
7835.68
7835.15
7834.36
7833.46
7832.11
7830.58
7828.22
7837.2
7838.65
7838.65
7838.6
7838.55
7838.45
7838.32
7838.12
7837.87
7837.48
7837.02
7836.3
7835.48
7834.2
7832.79
7830.58
7838.66
7840.21
7840.22
7840.21
7840.2
7840.15
7840.09
7839.97
7839.81
7839.54
7839.19
7838.62
7837.95
7836.85
7835.65
7833.69
7840.21
7841.83
7841.87
7841.89
7841.94
7841.96
7841.99
7841.98
7841.94
7841.82
7841.65
7841.3
7840.86
7840.05
7839.17
7837.58
7841.82
7843.48
7843.55
7843.62
7843.72
7843.83
7843.96
7844.08
7844.2
7844.28
7844.32
7844.25
7844.12
7843.71
7843.24
7842.15
7843.46
7845.13
7845.23
7845.35
7845.52
7845.72
7845.96
7846.24
7846.53
7846.84
7847.14
7847.41
7847.66
7847.73
7847.78
7847.33
7845.1
7846.73
7846.86
7847.04
7847.28
7847.58
7847.94
7848.37
7848.85
7849.41
7850
7850.66
7851.34
7851.99
7852.67
7853
7846.69
7848.26
7848.42
7848.64
7848.95
7849.35
7849.83
7850.41
7851.08
7851.9
7852.79
7853.86
7855.02
7856.35
7857.81
7859.25
7848.2
7849.66
7849.84
7850.11
7850.49
7850.97
7851.55
7852.29
7853.13
7854.18
7855.36
7856.83
7858.48
7860.52
7862.85
7865.62
7849.59
7850.9
7851.11
7851.41
7851.84
7852.39
7853.06
7853.91
7854.9
7856.14
7857.56
7859.37
7861.42
7864.08
7867.15
7871.06
7850.82
7851.95
7852.18
7852.5
7852.97
7853.57
7854.31
7855.23
7856.32
7857.7
7859.28
7861.34
7863.7
7866.93
7870.78
7876.38
7851.87
7852.79
7853.03
7853.37
7853.85
7854.47
7855.25
7856.21
7857.34
7858.76
7860.38
7862.47
7864.85
7868.05
7871.72
7877
7852.71
7853.4
7853.65
7853.99
7854.48
7855.1
7855.87
7856.82
7857.94
7859.33
7860.9
7862.89
7865.1
7867.99
7871.09
7875.32
7853.33
7853.8
7854.04
7854.37
7854.85
7855.44
7856.18
7857.09
7858.15
7859.44
7860.88
7862.68
7864.61
7867.08
7869.57
7872.83
7853.72
7853.97
7854.2
7854.51
7854.96
7855.52
7856.21
7857.04
7858.01
7859.17
7860.44
7861.99
7863.61
7865.61
7867.52
7869.93
7853.9
7853.94
7854.16
7854.44
7854.86
7855.36
7855.98
7856.72
7857.58
7858.58
7859.67
7860.95
7862.26
7863.81
7865.22
7866.91
7853.88
7853.72
7853.93
7854.17
7854.55
7854.99
7855.54
7856.18
7856.91
7857.75
7858.65
7859.68
7860.69
7861.85
7862.84
7863.98
7853.67
7853.35
7853.53
7853.74
7854.07
7854.45
7854.92
7855.45
7856.06
7856.75
7857.46
7858.26
7859.02
7859.85
7860.51
7861.22
7853.3
7852.83
7852.99
7853.17
7853.45
7853.76
7854.16
7854.6
7855.09
7855.63
7856.18
7856.77
7857.32
7857.88
7858.28
7858.66
7852.79
7852.2
7852.34
7852.49
7852.72
7852.97
7853.29
7853.64
7854.03
7854.44
7854.85
7855.27
7855.64
7855.98
7856.18
7856.32
7852.17
7851.49
7851.6
7851.72
7851.91
7852.11
7852.36
7852.63
7852.92
7853.22
7853.51
7853.79
7854.01
7854.19
7854.24
7854.2
7851.46
7850.71
7850.8
7850.89
7851.04
7851.19
7851.39
7851.58
7851.79
7851.99
7852.18
7852.35
7852.46
7852.51
7852.45
7852.29
7850.68
7849.88
7849.96
7850.02
7850.14
7850.25
7850.39
7850.52
7850.67
7850.79
7850.9
7850.97
7850.99
7850.95
7850.81
7850.57
7849.86
7849.03
7849.09
7849.13
7849.22
7849.29
7849.39
7849.47
7849.56
7849.62
7849.67
7849.67
7849.63
7849.51
7849.32
7849.02
7849.02
7848.16
7848.21
7848.24
7848.3
7848.34
7848.4
7848.44
7848.49
7848.5
7848.5
7848.45
7848.36
7848.2
7847.97
7847.64
7848.16
7847.3
7847.33
7847.35
7847.39
7847.41
7847.44
7847.45
7847.46
7847.43
7847.39
7847.3
7847.18
7846.99
7846.75
7846.4
7847.3
7846.45
7846.47
7846.48
7846.5
7846.5
7846.51
7846.49
7846.47
7846.42
7846.36
7846.24
7846.1
7845.89
7845.64
7845.29
7846.45
7845.62
7845.63
7845.63
7845.63
7845.62
7845.61
7845.58
7845.54
7845.47
7845.39
7845.26
7845.1
7844.89
7844.64
7844.29
7845.62
7844.82
7844.82
7844.81
7844.81
7844.78
7844.76
7844.72
7844.66
7844.58
7844.48
7844.34
7844.18
7843.97
7843.72
7843.4
7844.82
7844.04
7844.04
7844.03
7844.01
7843.98
7843.95
7843.9
7843.84
7843.75
7843.64
7843.5
7843.34
7843.13
7842.9
7842.59
7844.05
7843.3
7843.3
7843.28
7843.26
7843.23
7843.19
7843.13
7843.06
7842.97
7842.86
7842.72
7842.57
7842.36
7842.14
7841.85
7843.31
7842.6
7842.59
7842.57
7842.55
7842.51
7842.47
7842.41
7842.34
7842.24
7842.14
7842
7841.85
7841.66
7841.46
7841.19
7842.6
7841.93
7841.92
7841.9
7841.87
7841.83
7841.79
7841.73
7841.66
7841.57
7841.47
7841.34
7841.2
7841.02
7840.83
7840.58
7841.93
7841.3
7841.29
7841.27
7841.24
7841.2
7841.15
7841.09
7841.03
7840.94
7840.84
7840.72
7840.59
7840.43
7840.26
7840.02
7841.3
7840.7
7840.69
7840.67
7840.64
7840.6
7840.56
7840.5
7840.44
7840.35
7840.26
7840.15
7840.03
7839.88
7839.73
7839.51
7840.71
7840.14
7840.13
7840.11
7840.08
7840.05
7840
7839.95
7839.89
7839.81
7839.73
7839.62
7839.51
7839.38
7839.24
7839.04
7840.14
7839.61
7839.6
7839.58
7839.55
7839.52
7839.48
7839.43
7839.37
7839.3
7839.23
7839.13
7839.03
7838.91
7838.78
7838.61
7839.62
7839.12
7839.1
7839.09
7839.06
7839.03
7838.99
7838.95
7838.89
7838.83
7838.76
7838.68
7838.59
7838.48
7838.36
7838.2
7839.12
7838.65
7838.64
7838.62
7838.6
7838.57
7838.54
7838.49
7838.45
7838.39
7838.33
7838.25
7838.17
7838.07
7837.97
7837.83
7838.65
7838.21
7838.2
7838.19
7838.17
7838.14
7838.11
7838.07
7838.03
7837.98
7837.92
7837.85
7837.78
7837.7
7837.6
7837.47
7838.22
7837.8
7837.79
7837.78
7837.76
7837.74
7837.71
7837.67
7837.63
7837.59
7837.54
7837.48
7837.42
7837.34
7837.26
7837.14
7837.81
7837.42
7837.41
7837.4
7837.38
7837.36
7837.33
7837.3
7837.27
7837.23
7837.18
7837.13
7837.08
7837.01
7836.94
7836.83
7837.42
7837.05
7837.05
7837.04
7837.02
7837
7836.98
7836.95
7836.92
7836.89
7836.85
7836.8
7836.76
7836.7
7836.63
7836.53
7837.06
7836.71
7836.71
7836.7
7836.68
7836.67
7836.65
7836.62
7836.6
7836.57
7836.53
7836.49
7836.45
7836.4
7836.34
7836.25
7836.72
7836.39
7836.39
7836.38
7836.37
7836.35
7836.33
7836.32
7836.29
7836.26
7836.24
7836.2
7836.17
7836.12
7836.07
7835.98
7836.4
7836.09
7836.09
7836.08
7836.07
7836.06
7836.04
7836.02
7836
7835.98
7835.95
7835.93
7835.89
7835.86
7835.81
7835.73
7836.09
7835.81
7835.8
7835.8
7835.79
7835.78
7835.76
7835.75
7835.73
7835.71
7835.69
7835.66
7835.64
7835.6
7835.56
7835.49
7835.81
7835.54
7835.53
7835.53
7835.52
7835.51
7835.5
7835.49
7835.47
7835.46
7835.44
7835.42
7835.39
7835.36
7835.32
7835.26
7835.54
7835.29
7835.28
7835.28
7835.27
7835.26
7835.25
7835.24
7835.23
7835.21
7835.2
7835.18
7835.16
7835.13
7835.1
7835.03
7835.29
7835.05
7835.04
7835.04
7835.03
7835.03
7835.02
7835.01
7835
7834.98
7834.97
7834.95
7834.94
7834.92
7834.88
7834.82
7835.05
7834.82
7834.82
7834.81
7834.81
7834.8
7834.79
7834.79
7834.78
7834.77
7834.75
7834.74
7834.72
7834.71
7834.68
7834.62
7834.82
7834.61
7834.6
7834.6
7834.59
7834.59
7834.58
7834.58
7834.57
7834.56
7834.55
7834.54
7834.52
7834.51
7834.48
7834.42
7834.61
7834.4
7834.4
7834.4
7834.39
7834.39
7834.38
7834.38
7834.37
7834.36
7834.35
7834.34
7834.33
7834.31
7834.29
7834.23
7834.4
7834.21
7834.21
7834.21
7834.2
7834.2
7834.19
7834.19
7834.18
7834.17
7834.16
7834.15
7834.14
7834.13
7834.1
7834.05
7834.21
7834.03
7834.03
7834.03
7834.02
7834.02
7834.01
7834.01
7834
7833.99
7833.98
7833.97
7833.96
7833.95
7833.92
7833.87
7834.03
7833.86
7833.86
7833.85
7833.85
7833.85
7833.84
7833.83
7833.83
7833.82
7833.81
7833.8
7833.79
7833.78
7833.75
7833.7
7833.86
7833.7
7833.7
7833.69
7833.69
7833.68
7833.68
7833.67
7833.66
7833.66
7833.65
7833.64
7833.63
7833.62
7833.59
7833.54
7833.7
7833.55
7833.54
7833.54
7833.54
7833.53
7833.52
7833.52
7833.51
7833.5
7833.49
7833.48
7833.47
7833.46
7833.43
7833.38
7833.55
7833.4
7833.4
7833.4
7833.39
7833.39
7833.38
7833.37
7833.36
7833.35
7833.34
7833.33
7833.32
7833.3
7833.28
7833.22
7833.4
7833.27
7833.27
7833.26
7833.26
7833.25
7833.24
7833.23
7833.22
7833.21
7833.2
7833.19
7833.17
7833.16
7833.13
7833.07
7833.27
7833.15
7833.14
7833.14
7833.13
7833.13
7833.12
7833.11
7833.09
7833.08
7833.07
7833.05
7833.04
7833.02
7832.98
7832.92
7833.15
7833.03
7833.03
7833.02
7833.02
7833.01
7833
7832.99
7832.97
7832.96
7832.94
7832.93
7832.91
7832.88
7832.85
7832.78
7833.03
7832.93
7832.92
7832.92
7832.91
7832.9
7832.89
7832.88
7832.86
7832.85
7832.83
7832.81
7832.78
7832.75
7832.71
7832.64
7832.93
7832.83
7832.83
7832.82
7832.81
7832.8
7832.79
7832.78
7832.76
7832.74
7832.72
7832.69
7832.67
7832.63
7832.59
7832.51
7832.83
7832.75
7832.74
7832.74
7832.73
7832.72
7832.7
7832.69
7832.67
7832.65
7832.62
7832.59
7832.56
7832.52
7832.47
7832.38
7832.75
7832.68
7832.67
7832.66
7832.65
7832.64
7832.63
7832.61
7832.59
7832.56
7832.53
7832.5
7832.46
7832.42
7832.36
7832.26
7832.68
7832.61
7832.61
7832.6
7832.59
7832.58
7832.56
7832.54
7832.52
7832.49
7832.46
7832.42
7832.38
7832.33
7832.25
7832.15
7832.61
7832.56
7832.55
7832.55
7832.54
7832.52
7832.5
7832.48
7832.46
7832.43
7832.4
7832.36
7832.31
7832.25
7832.17
7832.04
7832.56
7832.52
7832.51
7832.5
7832.49
7832.48
7832.46
7832.44
7832.42
7832.39
7832.35
7832.31
7832.26
7832.19
7832.1
7831.95
7832.52
7832.49
7832.48
7832.47
7832.46
7832.45
7832.43
7832.41
7832.39
7832.36
7832.32
7832.28
7832.23
7832.16
7832.06
7831.89
7832.49
7832.46
7832.46
7832.45
7832.44
7832.43
7832.41
7832.39
7832.37
7832.34
7832.31
7832.28
7832.23
7832.18
7832.1
7831.97
7832.47
7832.46
7832.46
7832.45
7832.44
7832.43
7832.41
7832.39
7832.37
7832.35
7832.32
7832.28
7832.25
7832.21
7832.16
7832.06
7832.46
7832.46
7832.46
7832.45
7832.44
7832.43
7832.41
7832.39
7832.37
7832.35
7832.32
7832.28
7832.25
7832.21
7832.16
7832.06
7832.46
7832.46
7832.46
7832.45
7832.44
7832.43
7832.41
7832.39
7832.37
7832.35
7832.32
7832.28
7832.25
7832.21
7832.16
7832.06
7832.46
)
;

boundaryField
{
    wireUpstream
    {
        type            calculated;
        value           nonuniform List<scalar> 
16
(
7832.45
7832.45
7832.44
7832.43
7832.42
7832.41
7832.39
7832.37
7832.34
7832.32
7832.29
7832.26
7832.23
7832.21
7832.19
7832.46
)
;
    }
    wireDownstream
    {
        type            calculated;
        value           nonuniform List<scalar> 
16
(
7824.6
7824.62
7824.65
7824.69
7824.74
7824.8
7824.88
7824.97
7825.08
7825.21
7825.39
7825.6
7825.88
7826.21
7826.67
7824.59
)
;
    }
    wireTopContact
    {
        type            calculated;
        value           nonuniform List<scalar> 
122
(
7828.58
7828.4
7828.25
7828.09
7827.96
7827.83
7827.72
7827.61
7827.52
7827.43
7827.36
7827.29
7827.24
7827.19
7827.14
7827.1
7827.07
7827.03
7826.98
7826.91
7826.83
7828.72
7828.84
7828.95
7829.03
7829.1
7829.15
7829.19
7829.21
7829.22
7829.22
7829.2
7829.16
7829.11
7829.04
7828.95
7828.85
7828.72
7828.57
7828.4
7828.21
7828.01
7827.83
7827.66
7827.52
7827.44
7827.56
7828.22
7830.66
7833.78
7837.68
7842.26
7847.43
7853.06
7859.3
7865.68
7870.93
7876.71
7877.11
7875.26
7872.76
7869.88
7866.87
7863.95
7861.21
7858.66
7856.33
7854.21
7852.3
7850.58
7849.03
7847.65
7846.41
7845.3
7844.3
7843.4
7842.59
7841.85
7841.18
7840.57
7840.02
7839.51
7839.04
7838.6
7838.2
7837.82
7837.47
7837.13
7836.82
7836.52
7836.24
7835.98
7835.72
7835.48
7835.25
7835.03
7834.82
7834.61
7834.42
7834.23
7834.04
7833.87
7833.7
7833.53
7833.37
7833.22
7833.07
7832.92
7832.78
7832.64
7832.51
7832.38
7832.26
7832.15
7832.04
7831.96
7831.89
7831.97
7832.03
7832.03
7832.03
7826.66
)
;
    }
    front
    {
        type            wedge;
    }
    back
    {
        type            wedge;
    }
}


// ************************************************************************* //
