/*--------------------------------*- C++ -*----------------------------------*\
| =========                 |                                                 |
| \\      /  F ield         | foam-extend: Open Source CFD                    |
|  \\    /   O peration     | Version:     4.1-20200408                       |
|   \\  /    A nd           | Web:         http://www.foam-extend.org         |
|    \\/     M anipulation  |                                                 |
\*---------------------------------------------------------------------------*/
FoamFile
{
    version     2.0;
    format      ascii;
    class       volScalarField;
    location    "0.0700000";
    object      rho;
}
// * * * * * * * * * * * * * * * * * * * * * * * * * * * * * * * * * * * * * //

dimensions      [1 -3 0 0 0 0 0];

internalField   nonuniform List<scalar> 
1952
(
7859.2
7858.26
7856.95
7855.31
7853.25
7851.01
7848.4
7845.36
7841.86
7837.49
7832.65
7825.86
7818.26
7809.56
7803.99
7859.63
7858.93
7857.99
7856.67
7855.03
7852.96
7850.72
7848.1
7845.06
7841.54
7837.18
7832.33
7825.55
7817.95
7809.28
7803.72
7859.35
7858.79
7857.85
7856.53
7854.89
7852.81
7850.57
7847.95
7844.92
7841.4
7837.05
7832.21
7825.44
7817.86
7809.24
7803.74
7859.21
7858.67
7857.73
7856.41
7854.76
7852.69
7850.46
7847.84
7844.81
7841.29
7836.95
7832.12
7825.37
7817.8
7809.2
7803.72
7859.09
7858.56
7857.62
7856.3
7854.66
7852.59
7850.35
7847.74
7844.71
7841.2
7836.87
7832.05
7825.31
7817.76
7809.17
7803.73
7858.98
7858.47
7857.52
7856.21
7854.56
7852.5
7850.26
7847.65
7844.63
7841.12
7836.8
7831.99
7825.26
7817.72
7809.15
7803.73
7858.89
7858.38
7857.44
7856.12
7854.48
7852.42
7850.19
7847.58
7844.56
7841.06
7836.74
7831.94
7825.21
7817.69
7809.14
7803.73
7858.8
7858.31
7857.37
7856.05
7854.41
7852.35
7850.12
7847.52
7844.51
7841
7836.7
7831.9
7825.18
7817.66
7809.12
7803.72
7858.73
7858.25
7857.31
7855.99
7854.35
7852.29
7850.07
7847.46
7844.46
7840.95
7836.65
7831.86
7825.15
7817.64
7809.11
7803.72
7858.67
7858.2
7857.26
7855.94
7854.3
7852.24
7850.02
7847.42
7844.41
7840.91
7836.62
7831.83
7825.11
7817.61
7809.09
7803.71
7858.62
7858.15
7857.21
7855.9
7854.25
7852.2
7849.98
7847.38
7844.37
7840.87
7836.58
7831.79
7825.08
7817.59
7809.07
7803.69
7858.58
7858.11
7857.17
7855.85
7854.21
7852.16
7849.94
7847.34
7844.33
7840.83
7836.55
7831.76
7825.05
7817.56
7809.05
7803.68
7858.54
7858.08
7857.14
7855.82
7854.18
7852.12
7849.91
7847.3
7844.3
7840.8
7836.52
7831.73
7825.02
7817.53
7809.02
7803.66
7858.5
7858.05
7857.11
7855.79
7854.14
7852.09
7849.87
7847.27
7844.27
7840.77
7836.49
7831.7
7824.99
7817.5
7809
7803.63
7858.47
7858.02
7857.08
7855.76
7854.11
7852.06
7849.85
7847.24
7844.24
7840.73
7836.46
7831.67
7824.96
7817.47
7808.97
7803.6
7858.44
7858
7857.05
7855.73
7854.09
7852.03
7849.82
7847.21
7844.21
7840.7
7836.43
7831.64
7824.93
7817.44
7808.94
7803.58
7858.42
7857.97
7857.03
7855.71
7854.06
7852.01
7849.79
7847.19
7844.18
7840.67
7836.39
7831.61
7824.89
7817.4
7808.91
7803.54
7858.4
7857.96
7857.01
7855.69
7854.04
7851.98
7849.77
7847.16
7844.15
7840.64
7836.36
7831.57
7824.86
7817.36
7808.87
7803.51
7858.38
7857.94
7856.99
7855.67
7854.02
7851.96
7849.74
7847.13
7844.13
7840.61
7836.33
7831.54
7824.82
7817.32
7808.83
7803.47
7858.36
7857.92
7856.98
7855.65
7854
7851.94
7849.72
7847.1
7844.1
7840.57
7836.29
7831.5
7824.78
7817.28
7808.79
7803.43
7858.35
7857.91
7856.96
7855.63
7853.98
7851.92
7849.7
7847.08
7844.07
7840.54
7836.26
7831.46
7824.73
7817.23
7808.75
7803.38
7858.34
7857.9
7856.95
7855.62
7853.96
7851.9
7849.68
7847.05
7844.04
7840.5
7836.22
7831.42
7824.69
7817.18
7808.7
7803.33
7858.33
7857.9
7856.95
7855.61
7853.95
7851.89
7849.66
7847.03
7844.01
7840.47
7836.19
7831.38
7824.64
7817.13
7808.65
7803.27
7858.32
7857.89
7856.94
7855.6
7853.94
7851.87
7849.64
7847.01
7843.99
7840.43
7836.15
7831.34
7824.59
7817.08
7808.6
7803.21
7858.32
7857.9
7856.94
7855.6
7853.93
7851.86
7849.63
7846.99
7843.96
7840.4
7836.12
7831.29
7824.54
7817.02
7808.54
7803.15
7858.33
7857.91
7856.95
7855.61
7853.93
7851.86
7849.62
7846.98
7843.94
7840.37
7836.08
7831.25
7824.49
7816.95
7808.47
7803.08
7858.34
7857.93
7856.97
7855.62
7853.94
7851.86
7849.62
7846.96
7843.92
7840.34
7836.05
7831.2
7824.44
7816.89
7808.4
7803
7858.36
7857.96
7857
7855.64
7853.96
7851.88
7849.63
7846.96
7843.91
7840.32
7836.02
7831.16
7824.38
7816.82
7808.33
7802.92
7858.39
7858.01
7857.04
7855.68
7853.99
7851.9
7849.64
7846.97
7843.91
7840.3
7835.99
7831.11
7824.32
7816.75
7808.25
7802.82
7858.44
7858.07
7857.1
7855.73
7854.04
7851.93
7849.67
7846.98
7843.91
7840.29
7835.97
7831.07
7824.27
7816.67
7808.17
7802.72
7858.5
7858.15
7857.18
7855.8
7854.1
7851.99
7849.72
7847.01
7843.93
7840.29
7835.96
7831.03
7824.22
7816.59
7808.08
7802.61
7858.59
7858.25
7857.28
7855.89
7854.19
7852.06
7849.78
7847.06
7843.96
7840.3
7835.95
7831
7824.17
7816.52
7807.99
7802.49
7858.69
7858.39
7857.41
7856.01
7854.3
7852.16
7849.87
7847.13
7844.01
7840.33
7835.97
7830.98
7824.13
7816.44
7807.9
7802.37
7858.83
7858.55
7857.57
7856.17
7854.44
7852.29
7849.99
7847.22
7844.09
7840.38
7836
7830.98
7824.1
7816.37
7807.8
7802.23
7858.99
7858.75
7857.77
7856.36
7854.62
7852.46
7850.14
7847.35
7844.2
7840.46
7836.06
7831
7824.08
7816.31
7807.71
7802.09
7859.2
7859
7858.01
7856.59
7854.85
7852.67
7850.34
7847.53
7844.36
7840.58
7836.15
7831.04
7824.09
7816.26
7807.62
7801.95
7859.45
7859.3
7858.31
7856.88
7855.13
7852.93
7850.59
7847.75
7844.56
7840.75
7836.28
7831.12
7824.13
7816.23
7807.55
7801.8
7859.75
7859.65
7858.66
7857.22
7855.46
7853.26
7850.9
7848.03
7844.81
7840.97
7836.47
7831.25
7824.21
7816.24
7807.5
7801.66
7860.1
7860.06
7859.07
7857.62
7855.86
7853.65
7851.27
7848.39
7845.15
7841.26
7836.73
7831.45
7824.35
7816.29
7807.48
7801.54
7860.51
7860.53
7859.55
7858.1
7856.34
7854.11
7851.73
7848.83
7845.56
7841.65
7837.07
7831.72
7824.56
7816.4
7807.51
7801.43
7860.99
7861.08
7860.1
7858.64
7856.89
7854.66
7852.28
7849.37
7846.08
7842.13
7837.53
7832.11
7824.88
7816.59
7807.62
7801.37
7861.53
7861.68
7860.72
7859.26
7857.52
7855.3
7852.92
7850.01
7846.72
7842.75
7838.11
7832.63
7825.33
7816.9
7807.82
7801.37
7862.13
7862.33
7861.39
7859.95
7858.23
7856.03
7853.68
7850.78
7847.5
7843.53
7838.87
7833.32
7825.96
7817.38
7808.17
7801.46
7862.79
7863.04
7862.12
7860.7
7859.01
7856.85
7854.54
7851.68
7848.43
7844.48
7839.83
7834.25
7826.83
7818.09
7808.72
7801.68
7863.48
7863.76
7862.88
7861.49
7859.85
7857.76
7855.5
7852.72
7849.53
7845.65
7841.03
7835.45
7828.01
7819.12
7809.56
7802.05
7864.2
7864.47
7863.64
7862.3
7860.73
7858.72
7856.56
7853.9
7850.8
7847.04
7842.53
7837.02
7829.61
7820.62
7810.9
7802.79
7864.9
7865.14
7864.35
7863.08
7861.6
7859.71
7857.67
7855.18
7852.24
7848.68
7844.34
7839.03
7831.78
7822.85
7813.18
7804.62
7865.55
7865.68
7864.96
7863.77
7862.41
7860.67
7858.8
7856.53
7853.8
7850.55
7846.48
7841.54
7834.66
7826.19
7817.19
7809.39
7866.07
7866.04
7865.4
7864.31
7863.09
7861.53
7859.87
7857.87
7855.42
7852.55
7848.84
7844.39
7838
7830.14
7821.93
7814.96
7866.41
7866.13
7865.58
7864.6
7863.54
7862.2
7860.78
7859.1
7856.98
7854.58
7851.31
7847.48
7841.66
7834.55
7827.16
7820.82
7866.47
7865.84
7865.38
7864.53
7863.65
7862.55
7861.41
7860.1
7858.37
7856.5
7853.73
7850.65
7845.46
7839.28
7832.68
7826.88
7866.15
7865.05
7864.69
7863.98
7863.3
7862.46
7861.62
7860.72
7859.41
7858.15
7855.95
7853.74
7849.25
7844.29
7838.38
7833.15
7865.33
7863.63
7863.39
7862.82
7862.36
7861.77
7861.26
7860.77
7859.93
7859.32
7857.77
7856.54
7852.9
7849.49
7844.26
7839.81
7863.88
7861.46
7861.32
7860.91
7860.67
7860.36
7860.18
7860.11
7859.75
7859.78
7858.86
7858.59
7856.06
7854.51
7850.3
7847.12
7861.67
7858.42
7858.4
7858.14
7858.11
7858.01
7858.08
7858.34
7858.42
7859.12
7858.97
7859.79
7858.51
7858.83
7856.05
7855.15
7858.59
7854.21
7854.29
7854.15
7854.35
7854.58
7855.02
7855.73
7856.39
7857.81
7858.53
7860.45
7860.35
7862.4
7861.25
7863.42
7854.36
7848.97
7849.23
7849.4
7850
7850.76
7851.81
7853.2
7854.58
7856.69
7858.21
7861.13
7862.18
7865.87
7866.22
7871.62
7849.06
7843.92
7844.5
7845.1
7846.19
7847.51
7849.17
7851.22
7853.32
7856.11
7858.35
7862.05
7864.03
7868.97
7870.54
7878.39
7843.88
7839.92
7840.79
7841.8
7843.36
7845.15
7847.32
7849.86
7852.5
7855.8
7858.66
7862.93
7865.68
7871.52
7874.06
7883.52
7839.73
7837.2
7838.24
7839.52
7841.38
7843.52
7846.06
7848.96
7852.03
7855.68
7859.03
7863.68
7867.02
7873.38
7876.67
7887.03
7836.89
7835.69
7836.81
7838.25
7840.29
7842.63
7845.42
7848.52
7851.89
7855.74
7859.44
7864.25
7868.02
7874.55
7878.34
7888.96
7835.28
7835.29
7836.42
7837.94
7840.05
7842.48
7845.38
7848.57
7852.08
7855.98
7859.88
7864.66
7868.67
7875.05
7879.12
7889.4
7834.83
7835.91
7837.02
7838.54
7840.63
7843.05
7845.96
7849.1
7852.64
7856.43
7860.38
7864.94
7869.02
7874.95
7879.05
7888.47
7835.44
7837.49
7838.53
7839.99
7841.99
7844.3
7847.11
7850.1
7853.54
7857.11
7860.96
7865.13
7869.1
7874.31
7878.19
7886.26
7837.03
7839.96
7840.9
7842.23
7844.07
7846.18
7848.8
7851.55
7854.78
7858.02
7861.65
7865.28
7868.96
7873.21
7876.61
7882.93
7839.55
7843.26
7844.06
7845.2
7846.81
7848.65
7850.99
7853.41
7856.34
7859.16
7862.43
7865.41
7868.63
7871.7
7874.4
7878.63
7842.91
7847.26
7847.91
7848.83
7850.17
7851.68
7853.67
7855.68
7858.22
7860.53
7863.35
7865.56
7868.14
7869.86
7871.64
7873.59
7846.97
7851.79
7852.32
7853.03
7854.1
7855.26
7856.86
7858.4
7860.48
7862.2
7864.44
7865.78
7867.54
7867.74
7868.42
7868.06
7851.57
7856.65
7857.1
7857.66
7858.51
7859.36
7860.58
7861.66
7863.22
7864.29
7865.82
7866.17
7866.9
7865.44
7864.87
7862.32
7856.47
7861.66
7862.06
7862.51
7863.23
7863.86
7864.8
7865.47
7866.5
7866.89
7867.63
7866.86
7866.34
7863.09
7861.18
7856.69
7861.5
7866.6
7866.95
7867.32
7867.93
7868.44
7869.22
7869.61
7870.24
7870.04
7869.97
7868.04
7866.09
7860.97
7857.69
7851.55
7866.46
7871.31
7871.63
7871.93
7872.46
7872.93
7873.74
7874.09
7874.52
7873.9
7873.09
7869.97
7866.43
7859.47
7854.92
7847.39
7871.2
7876.4
7876.72
7877.02
7877.49
7877.88
7878.31
7878.16
7877.82
7876.3
7874.33
7870.15
7865.63
7858.29
7853.03
7844.58
7876.27
7879.94
7880.08
7880.1
7880.05
7879.65
7878.98
7877.76
7876.2
7873.66
7870.86
7866.6
7862.48
7856.11
7851.48
7843.17
7879.87
7878.2
7877.97
7877.51
7876.86
7875.78
7874.52
7872.79
7870.86
7868.18
7865.45
7861.68
7858.39
7853.16
7849.55
7842.81
7878.28
7873.6
7873.21
7872.57
7871.73
7870.59
7869.42
7867.82
7866.05
7863.64
7861.14
7857.76
7854.63
7850.32
7847.03
7842.2
7873.73
7869.27
7868.92
7868.35
7867.59
7866.53
7865.32
7863.73
7861.98
7859.72
7857.41
7854.43
7851.63
7847.98
7844.75
7840.96
7869.4
7865.37
7864.99
7864.43
7863.66
7862.66
7861.5
7860.03
7858.41
7856.37
7854.28
7851.64
7849.13
7845.97
7843.15
7839.62
7865.5
7861.85
7861.49
7860.97
7860.25
7859.32
7858.22
7856.85
7855.35
7853.51
7851.62
7849.31
7847.08
7844.37
7841.9
7838.91
7861.97
7858.69
7858.34
7857.86
7857.17
7856.32
7855.3
7854.06
7852.7
7851.06
7849.37
7847.35
7845.39
7843.06
7840.92
7838.35
7858.81
7855.87
7855.54
7855.1
7854.47
7853.69
7852.76
7851.64
7850.41
7848.96
7847.46
7845.7
7843.99
7841.99
7840.16
7837.98
7855.98
7853.37
7853.05
7852.65
7852.07
7851.37
7850.53
7849.53
7848.44
7847.16
7845.84
7844.31
7842.83
7841.12
7839.56
7837.71
7853.46
7851.14
7850.85
7850.5
7849.97
7849.34
7848.59
7847.7
7846.73
7845.61
7844.45
7843.13
7841.86
7840.4
7839.07
7837.51
7851.23
7849.17
7848.91
7848.59
7848.12
7847.56
7846.89
7846.11
7845.25
7844.28
7843.27
7842.13
7841.04
7839.79
7838.67
7837.35
7849.25
7847.43
7847.19
7846.91
7846.49
7846
7845.4
7844.72
7843.97
7843.12
7842.25
7841.28
7840.34
7839.28
7838.33
7837.22
7847.5
7845.89
7845.68
7845.43
7845.06
7844.63
7844.1
7843.51
7842.85
7842.12
7841.37
7840.54
7839.73
7838.84
7838.04
7837.1
7845.95
7844.54
7844.34
7844.13
7843.8
7843.42
7842.96
7842.45
7841.88
7841.25
7840.6
7839.89
7839.21
7838.46
7837.78
7836.99
7844.59
7843.34
7843.17
7842.98
7842.69
7842.36
7841.96
7841.52
7841.03
7840.48
7839.93
7839.32
7838.75
7838.11
7837.54
7836.87
7843.38
7842.28
7842.13
7841.97
7841.71
7841.43
7841.08
7840.7
7840.27
7839.81
7839.34
7838.82
7838.33
7837.79
7837.32
7836.75
7842.32
7841.34
7841.21
7841.07
7840.84
7840.6
7840.3
7839.97
7839.61
7839.21
7838.81
7838.37
7837.95
7837.5
7837.1
7836.62
7841.38
7840.51
7840.39
7840.27
7840.08
7839.87
7839.61
7839.33
7839.01
7838.68
7838.33
7837.96
7837.61
7837.23
7836.89
7836.47
7840.54
7839.77
7839.66
7839.56
7839.39
7839.22
7838.99
7838.75
7838.48
7838.19
7837.9
7837.59
7837.29
7836.97
7836.68
7836.32
7839.79
7839.11
7839.02
7838.93
7838.78
7838.63
7838.44
7838.23
7838
7837.76
7837.51
7837.24
7836.99
7836.72
7836.47
7836.16
7839.13
7838.52
7838.44
7838.36
7838.23
7838.1
7837.94
7837.76
7837.57
7837.36
7837.14
7836.92
7836.71
7836.48
7836.26
7836
7838.53
7837.98
7837.91
7837.85
7837.74
7837.63
7837.49
7837.33
7837.17
7836.99
7836.81
7836.62
7836.44
7836.24
7836.06
7835.82
7838
7837.5
7837.44
7837.39
7837.29
7837.2
7837.07
7836.94
7836.8
7836.65
7836.49
7836.33
7836.18
7836.01
7835.85
7835.65
7837.51
7837.06
7837.01
7836.96
7836.88
7836.8
7836.7
7836.59
7836.46
7836.33
7836.2
7836.06
7835.93
7835.79
7835.65
7835.46
7837.08
7836.67
7836.62
7836.58
7836.51
7836.44
7836.35
7836.25
7836.15
7836.04
7835.92
7835.8
7835.69
7835.57
7835.44
7835.28
7836.68
7836.3
7836.26
7836.23
7836.17
7836.1
7836.03
7835.94
7835.85
7835.76
7835.66
7835.56
7835.46
7835.35
7835.24
7835.09
7836.31
7835.97
7835.93
7835.9
7835.85
7835.79
7835.73
7835.66
7835.58
7835.49
7835.41
7835.32
7835.23
7835.14
7835.04
7834.9
7835.97
7835.66
7835.62
7835.6
7835.55
7835.51
7835.45
7835.38
7835.32
7835.24
7835.17
7835.09
7835.01
7834.93
7834.84
7834.71
7835.66
7835.37
7835.34
7835.32
7835.28
7835.24
7835.18
7835.13
7835.07
7835.01
7834.94
7834.87
7834.8
7834.73
7834.64
7834.52
7835.37
7835.1
7835.08
7835.06
7835.02
7834.99
7834.94
7834.89
7834.84
7834.78
7834.72
7834.66
7834.6
7834.53
7834.45
7834.33
7835.11
7834.85
7834.83
7834.81
7834.78
7834.75
7834.71
7834.66
7834.61
7834.56
7834.51
7834.45
7834.4
7834.33
7834.26
7834.14
7834.86
7834.62
7834.6
7834.59
7834.56
7834.53
7834.49
7834.45
7834.4
7834.36
7834.31
7834.26
7834.2
7834.14
7834.07
7833.96
7834.63
7834.4
7834.39
7834.37
7834.34
7834.32
7834.28
7834.25
7834.2
7834.16
7834.11
7834.07
7834.02
7833.96
7833.89
7833.78
7834.41
7834.2
7834.19
7834.17
7834.15
7834.12
7834.09
7834.05
7834.01
7833.97
7833.93
7833.88
7833.83
7833.78
7833.71
7833.6
7834.21
7834.01
7834
7833.98
7833.96
7833.94
7833.9
7833.87
7833.83
7833.79
7833.75
7833.71
7833.66
7833.6
7833.54
7833.43
7834.02
7833.83
7833.82
7833.81
7833.79
7833.76
7833.73
7833.7
7833.66
7833.62
7833.58
7833.54
7833.49
7833.44
7833.37
7833.26
7833.84
7833.67
7833.66
7833.64
7833.62
7833.6
7833.57
7833.54
7833.5
7833.46
7833.42
7833.38
7833.33
7833.27
7833.2
7833.09
7833.67
7833.52
7833.5
7833.49
7833.47
7833.45
7833.42
7833.39
7833.35
7833.31
7833.27
7833.22
7833.17
7833.12
7833.04
7832.93
7833.52
7833.38
7833.36
7833.35
7833.33
7833.31
7833.28
7833.25
7833.21
7833.17
7833.13
7833.08
7833.03
7832.97
7832.89
7832.77
7833.38
7833.25
7833.23
7833.22
7833.2
7833.18
7833.15
7833.12
7833.08
7833.04
7832.99
7832.94
7832.89
7832.82
7832.74
7832.62
7833.25
7833.13
7833.12
7833.1
7833.08
7833.06
7833.03
7833
7832.96
7832.92
7832.87
7832.82
7832.76
7832.69
7832.6
7832.47
7833.13
7833.02
7833.01
7833
7832.98
7832.95
7832.93
7832.89
7832.85
7832.81
7832.76
7832.7
7832.64
7832.57
7832.47
7832.33
7833.02
7832.92
7832.91
7832.9
7832.88
7832.86
7832.83
7832.8
7832.76
7832.71
7832.66
7832.6
7832.54
7832.46
7832.35
7832.2
7832.93
7832.84
7832.83
7832.82
7832.8
7832.78
7832.75
7832.72
7832.68
7832.63
7832.58
7832.52
7832.45
7832.36
7832.25
7832.08
7832.84
7832.77
7832.76
7832.75
7832.73
7832.71
7832.68
7832.65
7832.61
7832.56
7832.51
7832.45
7832.37
7832.28
7832.16
7831.97
7832.77
7832.7
7832.7
7832.68
7832.67
7832.65
7832.62
7832.59
7832.55
7832.51
7832.46
7832.4
7832.32
7832.23
7832.09
7831.89
7832.71
7832.65
7832.64
7832.63
7832.62
7832.6
7832.58
7832.55
7832.51
7832.47
7832.42
7832.37
7832.29
7832.2
7832.07
7831.85
7832.65
7832.6
7832.6
7832.59
7832.57
7832.56
7832.54
7832.51
7832.48
7832.45
7832.41
7832.36
7832.3
7832.23
7832.13
7831.97
7832.6
7832.58
7832.58
7832.57
7832.56
7832.54
7832.52
7832.5
7832.47
7832.44
7832.41
7832.37
7832.32
7832.27
7832.2
7832.09
7832.58
)
;

boundaryField
{
    wireUpstream
    {
        type            calculated;
        value           nonuniform List<scalar> 
16
(
7832.56
7832.55
7832.54
7832.53
7832.52
7832.5
7832.48
7832.46
7832.43
7832.4
7832.37
7832.33
7832.3
7832.27
7832.24
7832.56
)
;
    }
    wireDownstream
    {
        type            calculated;
        value           nonuniform List<scalar> 
16
(
7859.19
7858.26
7856.95
7855.3
7853.24
7851
7848.4
7845.37
7841.87
7837.51
7832.68
7825.92
7818.37
7809.78
7804.43
7859.62
)
;
    }
    wireTopContact
    {
        type            calculated;
        value           nonuniform List<scalar> 
122
(
7803.21
7803.22
7803.21
7803.22
7803.22
7803.21
7803.21
7803.2
7803.19
7803.18
7803.16
7803.14
7803.12
7803.09
7803.06
7803.03
7803
7802.96
7802.92
7802.87
7802.82
7802.77
7802.71
7802.64
7802.57
7802.5
7802.41
7802.32
7802.22
7802.11
7801.99
7801.87
7801.74
7801.6
7801.46
7801.32
7801.19
7801.07
7800.98
7800.94
7800.96
7801.08
7801.35
7801.81
7802.62
7804.34
7809.34
7815.04
7821.04
7827.26
7833.56
7840.06
7847.06
7854.71
7862.62
7870.76
7877.39
7882.4
7885.91
7887.9
7888.42
7887.6
7885.51
7882.31
7878.16
7873.28
7867.95
7862.44
7857.09
7852.27
7848.39
7845.75
7844.32
7843.48
7842.03
7840.88
7839.62
7838.89
7838.32
7837.94
7837.66
7837.45
7837.29
7837.16
7837.05
7836.93
7836.82
7836.7
7836.57
7836.43
7836.28
7836.13
7835.97
7835.8
7835.62
7835.44
7835.25
7835.07
7834.88
7834.69
7834.5
7834.32
7834.13
7833.95
7833.77
7833.59
7833.42
7833.25
7833.08
7832.92
7832.76
7832.61
7832.47
7832.33
7832.2
7832.08
7831.97
7831.89
7831.85
7831.95
7832.04
7803.42
)
;
    }
    front
    {
        type            wedge;
    }
    back
    {
        type            wedge;
    }
}


// ************************************************************************* //
