/*--------------------------------*- C++ -*----------------------------------*\
| =========                 |                                                 |
| \\      /  F ield         | OpenFOAM: The Open Source CFD Toolbox           |
|  \\    /   O peration     | Version:  4.1                                   |
|   \\  /    A nd           | Web:      www.OpenFOAM.org                      |
|    \\/     M anipulation  |                                                 |
\*---------------------------------------------------------------------------*/
FoamFile
{
    version     2.0;
    format      ascii;
    class       surfaceScalarField;
    location    "0.0089";
    object      phi;
}
// * * * * * * * * * * * * * * * * * * * * * * * * * * * * * * * * * * * * * //

dimensions      [0 3 -1 0 0 0 0];

internalField   nonuniform List<scalar> 
4288
(
-4.0775e-08
-2.9345e-10
-2.945e-10
4.245e-10
4.237e-10
-3.9443e-08
-5.3255e-10
-5.3455e-10
7.8217e-10
7.8079e-10
-3.7476e-08
-7.6883e-10
-7.7149e-10
1.1249e-09
1.1234e-09
-3.4888e-08
-9.8059e-10
-9.8522e-10
1.449e-09
1.4464e-09
-3.1731e-08
-1.1506e-09
-1.1558e-09
1.7242e-09
1.7217e-09
-2.811e-08
-1.2611e-09
-1.2669e-09
1.9254e-09
1.9226e-09
-2.4172e-08
-1.3065e-09
-1.3129e-09
2.0357e-09
2.0325e-09
-2.0093e-08
-1.2809e-09
-1.2874e-09
2.0433e-09
2.0402e-09
-1.6048e-08
-1.1868e-09
-1.1932e-09
1.9503e-09
1.9476e-09
-1.2193e-08
-1.0364e-09
-1.0423e-09
1.771e-09
1.7683e-09
-8.6465e-09
-8.4518e-10
-8.5074e-10
1.5261e-09
1.5236e-09
-6.3777e-10
-6.4272e-10
1.2517e-09
1.2442e-09
-4.0672e-08
-4.2221e-10
-4.1254e-10
8.9794e-10
-3.9321e-08
-6.5369e-10
-7.5524e-10
1.5143e-09
-3.7351e-08
-8.8404e-10
-1.0984e-09
2.1375e-09
-3.477e-08
-1.0985e-09
-1.4298e-09
2.755e-09
-3.1631e-08
-1.2835e-09
-1.7284e-09
3.3325e-09
-2.8041e-08
-1.4243e-09
-1.9666e-09
3.8262e-09
-2.4142e-08
-1.5053e-09
-2.1292e-09
4.1844e-09
-2.0104e-08
-1.5144e-09
-2.2054e-09
4.3772e-09
-1.6096e-08
-1.4597e-09
-2.1885e-09
4.3994e-09
-1.2268e-08
-1.3476e-09
-2.0897e-09
4.2626e-09
-8.7423e-09
-1.1829e-09
-1.9313e-09
3.9965e-09
-9.9133e-10
-1.7342e-09
3.6405e-09
-4.0607e-08
-2.3261e-10
-5.9772e-10
8.5321e-10
-3.9252e-08
-3.5343e-10
-9.8791e-10
1.4496e-09
-3.728e-08
-4.6813e-10
-1.3775e-09
2.0577e-09
-3.4703e-08
-5.751e-10
-1.7582e-09
2.6632e-09
-3.1578e-08
-6.6625e-10
-2.1066e-09
3.2263e-09
-2.8005e-08
-7.3176e-10
-2.3978e-09
3.7021e-09
-2.4129e-08
-7.6655e-10
-2.604e-09
4.047e-09
-2.0114e-08
-7.6499e-10
-2.7066e-09
4.2322e-09
-1.6131e-08
-7.2711e-10
-2.7035e-09
4.2493e-09
-1.2326e-08
-6.616e-10
-2.5987e-09
4.1056e-09
-8.8163e-09
-5.7246e-10
-2.4053e-09
3.829e-09
-4.7008e-10
-2.1519e-09
3.4591e-09
-4.0577e-08
6.8118e-13
-6.0949e-10
8.5447e-10
-3.9219e-08
7.4729e-13
-1.0186e-09
1.4899e-09
-3.7247e-08
9.5931e-13
-1.4353e-09
2.1525e-09
-3.4672e-08
1.0861e-12
-1.8488e-09
2.8154e-09
-3.1551e-08
1.2718e-12
-2.2333e-09
3.4385e-09
-2.7989e-08
1.4073e-12
-2.5555e-09
3.9749e-09
-2.4124e-08
1.4262e-12
-2.7937e-09
4.3747e-09
-2.0122e-08
1.3398e-12
-2.9245e-09
4.6082e-09
-1.6149e-08
1.2221e-12
-2.9427e-09
4.6652e-09
-1.2353e-08
8.839e-13
-2.8567e-09
4.5546e-09
-8.851e-09
7.6389e-13
-2.6815e-09
4.3007e-09
5.1535e-13
-2.4425e-09
3.9431e-09
-4.0577e-08
2.3383e-10
-6.0953e-10
8.5463e-10
-3.9219e-08
3.548e-10
-1.0188e-09
1.4902e-09
-3.7247e-08
4.6912e-10
-1.4349e-09
2.153e-09
-3.4672e-08
5.766e-10
-1.849e-09
2.8163e-09
-3.1551e-08
6.6794e-10
-2.2335e-09
3.4395e-09
-2.7989e-08
7.3366e-10
-2.5557e-09
3.976e-09
-2.4124e-08
7.6855e-10
-2.7939e-09
4.3758e-09
-2.0122e-08
7.6688e-10
-2.9247e-09
4.6092e-09
-1.6149e-08
7.289e-10
-2.943e-09
4.6662e-09
-1.2353e-08
6.6296e-10
-2.8569e-09
4.5552e-09
-8.8511e-09
5.7372e-10
-2.6816e-09
4.3012e-09
4.711e-10
-2.4426e-09
3.9432e-09
-4.0607e-08
4.2306e-10
-5.9764e-10
8.5356e-10
-3.9252e-08
6.541e-10
-9.8776e-10
1.4503e-09
-3.728e-08
8.8486e-10
-1.3783e-09
2.0588e-09
-3.4703e-08
1.099e-09
-1.7581e-09
2.664e-09
-3.1577e-08
1.2842e-09
-2.1068e-09
3.2274e-09
-2.8005e-08
1.4253e-09
-2.3981e-09
3.7033e-09
-2.413e-08
1.5065e-09
-2.6042e-09
4.0482e-09
-2.0114e-08
1.5154e-09
-2.7069e-09
4.2333e-09
-1.6132e-08
1.4613e-09
-2.7039e-09
4.2502e-09
-1.2326e-08
1.3482e-09
-2.5987e-09
4.1062e-09
-8.8164e-09
1.1841e-09
-2.4053e-09
3.8291e-09
9.926e-10
-2.1517e-09
3.4588e-09
-4.0672e-08
2.9417e-10
-4.1232e-10
8.9789e-10
-3.9321e-08
5.3315e-10
-7.5537e-10
1.514e-09
-3.7351e-08
7.691e-10
-1.0971e-09
2.1368e-09
-3.477e-08
9.8116e-10
-1.4297e-09
2.7546e-09
-3.1631e-08
1.1513e-09
-1.7282e-09
3.3322e-09
-2.8041e-08
1.2618e-09
-1.9662e-09
3.8261e-09
-2.4142e-08
1.3072e-09
-2.1291e-09
4.1847e-09
-2.0104e-08
1.2815e-09
-2.2054e-09
4.3777e-09
-1.6096e-08
1.1876e-09
-2.1885e-09
4.4001e-09
-1.2268e-08
1.0366e-09
-2.09e-09
4.2636e-09
-8.7424e-09
8.4541e-10
-1.9315e-09
3.9977e-09
6.3794e-10
-1.7344e-09
3.6418e-09
-4.0775e-08
-2.9422e-10
4.2395e-10
4.2508e-10
-3.9443e-08
-5.3415e-10
7.8149e-10
7.8148e-10
-3.7476e-08
-7.7189e-10
1.1247e-09
1.1241e-09
-3.4888e-08
-9.8492e-10
1.4486e-09
1.4468e-09
-3.1731e-08
-1.1559e-09
1.7247e-09
1.7217e-09
-2.811e-08
-1.2673e-09
1.9265e-09
1.9222e-09
-2.4172e-08
-1.3131e-09
2.037e-09
2.0318e-09
-2.0093e-08
-1.2876e-09
2.045e-09
2.0392e-09
-1.6049e-08
-1.1935e-09
1.9523e-09
1.9466e-09
-1.2193e-08
-1.0424e-09
1.7727e-09
1.767e-09
-8.6465e-09
-8.505e-10
1.5275e-09
1.5221e-09
-6.4235e-10
1.2499e-09
1.2454e-09
-4.0673e-08
-4.1111e-10
-4.2304e-10
8.9779e-10
-3.9322e-08
-7.5294e-10
-6.551e-10
1.5138e-09
-3.7352e-08
-1.0935e-09
-8.8666e-10
2.1363e-09
-3.4771e-08
-1.4258e-09
-1.1012e-09
2.753e-09
-3.1632e-08
-1.7225e-09
-1.2869e-09
3.33e-09
-2.8041e-08
-1.9595e-09
-1.4284e-09
3.8234e-09
-2.4142e-08
-2.1218e-09
-1.5096e-09
4.1812e-09
-2.0104e-08
-2.1977e-09
-1.5186e-09
4.3738e-09
-1.6096e-08
-2.1808e-09
-1.4639e-09
4.3961e-09
-1.2269e-08
-2.0825e-09
-1.3511e-09
4.2595e-09
-8.7425e-09
-1.9244e-09
-1.1867e-09
3.9937e-09
-1.7281e-09
-9.9482e-10
3.6384e-09
-4.0417e-08
-2.7357e-10
-2.7532e-10
-3.9061e-08
-5.1487e-10
-5.1744e-10
-3.7093e-08
-7.5794e-10
-7.6141e-10
-3.4531e-08
-9.8923e-10
-9.9477e-10
-3.1428e-08
-1.195e-09
-1.2012e-09
-2.7878e-08
-1.3582e-09
-1.365e-09
-2.4026e-08
-1.4662e-09
-1.4738e-09
-2.0038e-08
-1.5134e-09
-1.5212e-09
-1.6074e-08
-1.4969e-09
-1.5047e-09
-1.2283e-08
-1.4249e-09
-1.4323e-09
-8.7828e-09
-1.3134e-09
-1.3203e-09
-1.1774e-09
-1.1835e-09
-4.0337e-08
-1.4414e-10
-4.085e-10
-3.8976e-08
-2.6988e-10
-6.8898e-10
-3.701e-08
-3.9437e-10
-9.6964e-10
-3.4454e-08
-5.1295e-10
-1.2399e-09
-3.1363e-08
-6.156e-10
-1.4861e-09
-2.7836e-08
-6.9695e-10
-1.6878e-09
-2.4011e-08
-7.4953e-10
-1.8277e-09
-2.0049e-08
-7.6831e-10
-1.8966e-09
-1.6111e-08
-7.5353e-10
-1.8922e-09
-1.2341e-08
-7.0859e-10
-1.818e-09
-8.8586e-09
-6.3968e-10
-1.6871e-09
-5.5665e-10
-1.5178e-09
-4.0299e-08
5.3026e-13
-4.1105e-10
-3.8935e-08
5.8534e-13
-7.0656e-10
-3.6968e-08
5.6643e-13
-1.0062e-09
-3.4416e-08
7.3301e-13
-1.2994e-09
-3.1332e-08
8.241e-13
-1.5675e-09
-2.7814e-08
8.8077e-13
-1.791e-09
-2.4001e-08
9.301e-13
-1.9525e-09
-2.0052e-08
9.0741e-13
-2.0358e-09
-1.6125e-08
8.7925e-13
-2.0397e-09
-1.2366e-08
7.9125e-13
-1.9705e-09
-8.8919e-09
7.8882e-13
-1.8377e-09
6.9434e-13
-1.6612e-09
-4.0299e-08
1.4506e-10
-4.1098e-10
-3.8935e-08
2.7067e-10
-7.0651e-10
-3.6969e-08
3.9643e-10
-1.0065e-09
-3.4415e-08
5.1394e-10
-1.2994e-09
-3.1332e-08
6.172e-10
-1.5676e-09
-2.7814e-08
6.9855e-10
-1.791e-09
-2.4001e-08
7.5119e-10
-1.9525e-09
-2.0052e-08
7.6995e-10
-2.0358e-09
-1.6125e-08
7.5501e-10
-2.0397e-09
-1.2366e-08
7.101e-10
-1.9705e-09
-8.8919e-09
6.4115e-10
-1.8377e-09
5.5795e-10
-1.6612e-09
-4.0337e-08
2.7454e-10
-4.0848e-10
-3.8976e-08
5.1575e-10
-6.8876e-10
-3.701e-08
7.5815e-10
-9.6908e-10
-3.4454e-08
9.9038e-10
-1.2398e-09
-3.1363e-08
1.1961e-09
-1.4859e-09
-2.7836e-08
1.3593e-09
-1.6877e-09
-2.4011e-08
1.4675e-09
-1.8276e-09
-2.0049e-08
1.5146e-09
-1.8964e-09
-1.6111e-08
1.4982e-09
-1.892e-09
-1.2341e-08
1.4261e-09
-1.8177e-09
-8.8586e-09
1.3147e-09
-1.6867e-09
1.1786e-09
-1.5174e-09
-4.0417e-08
4.1212e-10
-2.7517e-10
-3.9061e-08
7.5317e-10
-5.1714e-10
-3.7094e-08
1.0951e-09
-7.6124e-10
-3.4531e-08
1.4262e-09
-9.9421e-10
-3.1428e-08
1.7232e-09
-1.2007e-09
-2.7878e-08
1.9606e-09
-1.3646e-09
-2.4026e-08
2.1225e-09
-1.4732e-09
-2.0038e-08
2.1984e-09
-1.5205e-09
-1.6074e-08
2.1815e-09
-1.504e-09
-1.2283e-08
2.083e-09
-1.4317e-09
-8.7828e-09
1.9251e-09
-1.3199e-09
1.7288e-09
-1.1833e-09
-4.0673e-08
-4.2292e-10
8.9911e-10
-3.9322e-08
-6.5495e-10
1.5144e-09
-3.7352e-08
-8.8582e-10
2.136e-09
-3.4771e-08
-1.1003e-09
2.7529e-09
-3.1632e-08
-1.2859e-09
3.3295e-09
-2.8041e-08
-1.4271e-09
3.8226e-09
-2.4142e-08
-1.5086e-09
4.1806e-09
-2.0104e-08
-1.5176e-09
4.3733e-09
-1.6097e-08
-1.4631e-09
4.3957e-09
-1.2269e-08
-1.3503e-09
4.2592e-09
-8.7426e-09
-1.1858e-09
3.9938e-09
-9.9418e-10
3.6385e-09
-4.0608e-08
-5.9647e-10
-2.3291e-10
8.5317e-10
-3.9253e-08
-9.8637e-10
-3.5378e-10
1.4497e-09
-3.7281e-08
-1.3758e-09
-4.6809e-10
2.0575e-09
-3.4704e-08
-1.7542e-09
-5.7596e-10
2.6623e-09
-3.1578e-08
-2.1026e-09
-6.6683e-10
3.2257e-09
-2.8006e-08
-2.3935e-09
-7.324e-10
3.7013e-09
-2.413e-08
-2.5993e-09
-7.6715e-10
4.0461e-09
-2.0115e-08
-2.7016e-09
-7.6564e-10
4.2312e-09
-1.6132e-08
-2.6986e-09
-7.2761e-10
4.2484e-09
-1.2327e-08
-2.5937e-09
-6.6202e-10
4.1048e-09
-8.8166e-09
-2.4007e-09
-5.731e-10
3.8281e-09
-2.1477e-09
-4.7098e-10
3.4585e-09
-4.0338e-08
-4.0658e-10
-1.4478e-10
-3.8977e-08
-6.8603e-10
-2.7092e-10
-3.7011e-08
-9.6522e-10
-3.9619e-10
-3.4456e-08
-1.2349e-09
-5.1369e-10
-3.1364e-08
-1.4797e-09
-6.1767e-10
-2.7837e-08
-1.6805e-09
-6.9933e-10
-2.4012e-08
-1.8198e-09
-7.5208e-10
-2.005e-08
-1.8882e-09
-7.7088e-10
-1.6111e-08
-1.8838e-09
-7.5608e-10
-1.2341e-08
-1.8099e-09
-7.1098e-10
-8.859e-09
-1.6794e-09
-6.4192e-10
-1.5108e-09
-5.5866e-10
-4.027e-08
-2.2011e-10
-2.2128e-10
-3.8906e-08
-3.6854e-10
-3.7037e-10
-3.6943e-08
-5.1587e-10
-5.1843e-10
-3.4394e-08
-6.5674e-10
-6.6015e-10
-3.1316e-08
-7.838e-10
-7.8783e-10
-2.7809e-08
-8.869e-10
-8.9141e-10
-2.4008e-08
-9.568e-10
-9.6167e-10
-2.007e-08
-9.8999e-10
-9.951e-10
-1.6155e-08
-9.8529e-10
-9.9034e-10
-1.2405e-08
-9.4419e-10
-9.4908e-10
-8.9364e-09
-8.7439e-10
-8.79e-10
-7.8464e-10
-7.8891e-10
-4.0242e-08
5.5531e-13
-2.2567e-10
-3.8876e-08
6.7775e-13
-3.8467e-10
-3.6911e-08
7.7306e-13
-5.4459e-10
-3.4365e-08
8.8395e-13
-6.996e-10
-3.1294e-08
1.0177e-12
-8.4028e-10
-2.7795e-08
1.1146e-12
-9.562e-10
-2.4006e-08
1.1626e-12
-1.0381e-09
-2.0079e-08
1.1431e-12
-1.0792e-09
-1.6174e-08
1.0984e-12
-1.0787e-09
-1.2433e-08
9.8284e-13
-1.0391e-09
-8.9725e-09
9.1791e-13
-9.6715e-10
8.0084e-13
-8.7207e-10
-4.0242e-08
2.2122e-10
-2.2562e-10
-3.8875e-08
3.6983e-10
-3.846e-10
-3.6911e-08
5.1719e-10
-5.446e-10
-3.4365e-08
6.5841e-10
-6.995e-10
-3.1294e-08
7.8573e-10
-8.4019e-10
-2.7795e-08
8.8904e-10
-9.5609e-10
-2.4006e-08
9.5905e-10
-1.038e-09
-2.0079e-08
9.9217e-10
-1.0791e-09
-1.6174e-08
9.8742e-10
-1.0786e-09
-1.2433e-08
9.4613e-10
-1.0391e-09
-8.9725e-09
8.7615e-10
-9.6705e-10
7.8619e-10
-8.7197e-10
-4.027e-08
4.075e-10
-2.2114e-10
-3.8907e-08
6.8739e-10
-3.7017e-10
-3.6943e-08
9.6658e-10
-5.1804e-10
-3.4394e-08
1.2362e-09
-6.5968e-10
-3.1316e-08
1.4813e-09
-7.8731e-10
-2.7809e-08
1.6823e-09
-8.9092e-10
-2.4008e-08
1.8217e-09
-9.6112e-10
-2.007e-08
1.8901e-09
-9.9454e-10
-1.6155e-08
1.8857e-09
-9.8976e-10
-1.2405e-08
1.8115e-09
-9.4839e-10
-8.9364e-09
1.6809e-09
-8.7832e-10
1.5122e-09
-7.882e-10
-4.0338e-08
5.9698e-10
-1.4432e-10
-3.8977e-08
9.8745e-10
-2.7046e-10
-3.7011e-08
1.376e-09
-3.9489e-10
-3.4456e-08
1.7553e-09
-5.1288e-10
-3.1364e-08
2.1039e-09
-6.1669e-10
-2.7837e-08
2.3947e-09
-6.9818e-10
-2.4012e-08
2.6006e-09
-7.5083e-10
-2.005e-08
2.703e-09
-7.6958e-10
-1.6111e-08
2.6999e-09
-7.5476e-10
-1.2341e-08
2.5948e-09
-7.098e-10
-8.859e-09
2.4017e-09
-6.4089e-10
2.1484e-09
-5.5781e-10
-4.0608e-08
-2.3278e-10
8.5378e-10
-3.9253e-08
-3.5309e-10
1.4501e-09
-3.7281e-08
-4.6771e-10
2.0579e-09
-3.4704e-08
-5.7497e-10
2.6633e-09
-3.1578e-08
-6.6576e-10
3.2267e-09
-2.8006e-08
-7.3119e-10
3.7025e-09
-2.413e-08
-7.6599e-10
4.0474e-09
-2.0115e-08
-7.6443e-10
4.2324e-09
-1.6132e-08
-7.264e-10
4.2493e-09
-1.2327e-08
-6.6076e-10
4.1053e-09
-8.8166e-09
-5.7172e-10
3.8287e-09
-4.6938e-10
3.4582e-09
-4.0578e-08
-6.0896e-10
3.2463e-13
8.546e-10
-3.922e-08
-1.0177e-09
3.5927e-13
1.49e-09
-3.7247e-08
-1.4333e-09
5.5087e-13
2.1525e-09
-3.4672e-08
-1.8478e-09
6.2208e-13
2.8153e-09
-3.1551e-08
-2.2312e-09
5.922e-13
3.4385e-09
-2.7989e-08
-2.5531e-09
5.7675e-13
3.975e-09
-2.4124e-08
-2.7911e-09
6.0991e-13
4.3748e-09
-2.0122e-08
-2.9219e-09
5.9796e-13
4.6082e-09
-1.6149e-08
-2.9401e-09
5.205e-13
4.6652e-09
-1.2353e-08
-2.8542e-09
3.1188e-13
4.5546e-09
-8.8512e-09
-2.679e-09
1.2117e-15
4.3006e-09
-2.4402e-09
-2.0482e-13
3.9427e-09
-4.0299e-08
-4.0967e-10
7.4475e-14
-3.8936e-08
-7.0447e-10
1.5189e-13
-3.6969e-08
-1.0031e-09
-2.3958e-14
-3.4416e-08
-1.295e-09
-1.4134e-13
-3.1332e-08
-1.5627e-09
-9.7173e-14
-2.7814e-08
-1.7856e-09
-1.7e-13
-2.4001e-08
-1.9466e-09
-2.4499e-13
-2.0052e-08
-2.0297e-09
-2.9736e-13
-1.6126e-08
-2.0336e-09
-3.1392e-13
-1.2366e-08
-1.9645e-09
-3.4433e-13
-8.8921e-09
-1.8321e-09
-3.8261e-13
-1.656e-09
-3.961e-13
-4.0243e-08
-2.2449e-10
7.2796e-14
-3.8876e-08
-3.8283e-10
3.9427e-14
-3.6912e-08
-5.4185e-10
-1.5678e-13
-3.4365e-08
-6.9594e-10
-2.455e-13
-3.1294e-08
-8.3613e-10
-3.1804e-13
-2.7796e-08
-9.5156e-10
-3.9827e-13
-2.4006e-08
-1.0331e-09
-4.5728e-13
-2.0079e-08
-1.0741e-09
-5.4383e-13
-1.6174e-08
-1.0735e-09
-5.7875e-13
-1.2433e-08
-1.0341e-09
-6.1075e-13
-8.9726e-09
-9.6236e-10
-6.796e-13
-8.6765e-10
-7.0702e-13
-4.0223e-08
6.0873e-13
2.0434e-14
-3.8854e-08
7.2845e-13
-1.0459e-13
-3.6889e-08
8.2035e-13
-3.359e-13
-3.4346e-08
1.0181e-12
-4.9733e-13
-3.128e-08
1.1394e-12
-6.0849e-13
-2.779e-08
1.2183e-12
-7.0024e-13
-2.401e-08
1.2975e-12
-8.0509e-13
-2.0094e-08
1.317e-12
-8.5226e-13
-1.6198e-08
1.2767e-12
-9.0602e-13
-1.2465e-08
1.1926e-12
-9.1966e-13
-9.0107e-09
1.1121e-12
-9.365e-13
1.007e-12
-9.0264e-13
-4.0223e-08
2.2575e-10
1.234e-14
-3.8854e-08
3.8435e-10
-1.1783e-13
-3.6889e-08
5.4351e-10
-3.6698e-13
-3.4346e-08
6.9811e-10
-5.4017e-13
-3.128e-08
8.3856e-10
-6.6389e-13
-2.779e-08
9.5418e-10
-7.6944e-13
-2.401e-08
1.0359e-09
-8.6917e-13
-2.0094e-08
1.077e-09
-9.1565e-13
-1.6198e-08
1.0763e-09
-9.6955e-13
-1.2465e-08
1.0367e-09
-9.8819e-13
-9.0108e-09
9.6477e-10
-9.9911e-13
8.6986e-10
-9.6734e-13
-4.0243e-08
4.1081e-10
2.8771e-13
-3.8876e-08
7.0585e-10
3.8236e-13
-3.6912e-08
1.0045e-09
3.3497e-13
-3.4366e-08
1.2971e-09
3.2667e-13
-3.1294e-08
1.565e-09
3.2994e-13
-2.7796e-08
1.788e-09
3.2522e-13
-2.4006e-08
1.9492e-09
3.0446e-13
-2.0079e-08
2.0324e-09
2.9727e-13
-1.6174e-08
2.0362e-09
2.8156e-13
-1.2433e-08
1.967e-09
2.3185e-13
-8.9726e-09
1.8344e-09
1.9572e-13
1.6581e-09
1.3764e-13
-4.0299e-08
6.0988e-10
6.831e-13
-3.8936e-08
1.0183e-09
1.0661e-12
-3.6969e-08
1.4351e-09
1.2998e-12
-3.4416e-08
1.8488e-09
1.5097e-12
-3.1332e-08
2.2327e-09
1.7684e-12
-2.7814e-08
2.5547e-09
1.9371e-12
-2.4001e-08
2.7928e-09
2.0382e-12
-2.0052e-08
2.9236e-09
2.1048e-12
-1.6126e-08
2.9417e-09
2.0923e-12
-1.2366e-08
2.8556e-09
1.9814e-12
-8.8922e-09
2.6804e-09
1.7172e-12
2.4413e-09
1.4905e-12
-4.0578e-08
8.2018e-13
8.5508e-10
-3.922e-08
1.1058e-12
1.4906e-09
-3.7247e-08
1.4148e-12
2.1532e-09
-3.4672e-08
1.6153e-12
2.8166e-09
-3.1551e-08
1.7815e-12
3.4398e-09
-2.7989e-08
1.8707e-12
3.9765e-09
-2.4124e-08
1.9595e-12
4.3763e-09
-2.0122e-08
2.0695e-12
4.6097e-09
-1.6149e-08
2.0845e-12
4.6666e-09
-1.2353e-08
1.9743e-12
4.5556e-09
-8.8511e-09
1.8869e-12
4.3016e-09
1.757e-12
3.9435e-09
-4.0578e-08
-6.0904e-10
2.3352e-10
8.5469e-10
-3.922e-08
-1.0181e-09
3.5423e-10
1.4905e-09
-3.7247e-08
-1.4334e-09
4.686e-10
2.1532e-09
-3.4672e-08
-1.8474e-09
5.7603e-10
2.816e-09
-3.1551e-08
-2.2314e-09
6.6719e-10
3.4395e-09
-2.7989e-08
-2.5535e-09
7.328e-10
3.9761e-09
-2.4124e-08
-2.7915e-09
7.6764e-10
4.3759e-09
-2.0122e-08
-2.9222e-09
7.6591e-10
4.6094e-09
-1.6149e-08
-2.9405e-09
7.28e-10
4.6664e-09
-1.2353e-08
-2.8546e-09
6.6213e-10
4.5555e-09
-8.8512e-09
-2.6793e-09
5.7273e-10
4.3013e-09
-2.4405e-09
4.7034e-10
3.9432e-09
-4.0299e-08
-4.0957e-10
1.4473e-10
-3.8936e-08
-7.0437e-10
2.7058e-10
-3.6969e-08
-1.0035e-09
3.9649e-10
-3.4416e-08
-1.2955e-09
5.1438e-10
-3.1332e-08
-1.563e-09
6.1737e-10
-2.7814e-08
-1.7859e-09
6.9884e-10
-2.4001e-08
-1.9469e-09
7.5145e-10
-2.0052e-08
-2.03e-09
7.702e-10
-1.6126e-08
-2.0339e-09
7.5518e-10
-1.2366e-08
-1.9648e-09
7.1016e-10
-8.8921e-09
-1.8324e-09
6.4112e-10
-1.6563e-09
5.5788e-10
-4.0243e-08
-2.2447e-10
2.2147e-10
-3.8876e-08
-3.8281e-10
3.7047e-10
-3.6912e-08
-5.4208e-10
5.1796e-10
-3.4366e-08
-6.9622e-10
6.5944e-10
-3.1294e-08
-8.3633e-10
7.8705e-10
-2.7796e-08
-9.5177e-10
8.9051e-10
-2.4006e-08
-1.0333e-09
9.6069e-10
-2.0079e-08
-1.0742e-09
9.9387e-10
-1.6174e-08
-1.0737e-09
9.8911e-10
-1.2433e-08
-1.0343e-09
9.4778e-10
-8.9726e-09
-9.6261e-10
8.7757e-10
-8.6789e-10
7.8743e-10
-4.0223e-08
6.2397e-13
2.2568e-10
-3.8854e-08
7.5658e-13
3.8443e-10
-3.6889e-08
8.3572e-13
5.4364e-10
-3.4346e-08
1.0279e-12
6.9829e-10
-3.128e-08
1.1459e-12
8.3883e-10
-2.779e-08
1.2343e-12
9.5455e-10
-2.401e-08
1.3124e-12
1.0362e-09
-2.0094e-08
1.3274e-12
1.0774e-09
-1.6198e-08
1.2868e-12
1.0766e-09
-1.2465e-08
1.2064e-12
1.037e-09
-9.0108e-09
1.0935e-12
9.6503e-10
9.8708e-13
8.7003e-10
-4.0223e-08
2.26e-10
2.2536e-10
-3.8854e-08
3.8479e-10
3.8393e-10
-3.6889e-08
5.443e-10
5.4306e-10
-3.4346e-08
6.9911e-10
6.974e-10
-3.128e-08
8.3962e-10
8.3778e-10
-2.779e-08
9.5537e-10
9.5335e-10
-2.401e-08
1.0372e-09
1.0349e-09
-2.0094e-08
1.0782e-09
1.076e-09
-1.6198e-08
1.0776e-09
1.0753e-09
-1.2465e-08
1.038e-09
1.0358e-09
-9.0108e-09
9.6599e-10
9.6379e-10
8.7097e-10
8.6888e-10
-4.0242e-08
4.1114e-10
2.2107e-10
-3.8876e-08
7.0639e-10
3.699e-10
-3.6911e-08
1.0057e-09
5.1698e-10
-3.4365e-08
1.2987e-09
6.581e-10
-3.1294e-08
1.5666e-09
7.8542e-10
-2.7795e-08
1.7898e-09
8.8868e-10
-2.4006e-08
1.9512e-09
9.5865e-10
-2.0079e-08
2.0344e-09
9.918e-10
-1.6174e-08
2.0382e-09
9.8707e-10
-1.2433e-08
1.969e-09
9.4571e-10
-8.9725e-09
1.8363e-09
8.7576e-10
1.6599e-09
7.8583e-10
-4.0299e-08
6.1015e-10
1.4469e-10
-3.8935e-08
1.0189e-09
2.7061e-10
-3.6969e-08
1.4354e-09
3.9594e-10
-3.4416e-08
1.8486e-09
5.1451e-10
-3.1332e-08
2.233e-09
6.1733e-10
-2.7814e-08
2.555e-09
6.9894e-10
-2.4001e-08
2.7932e-09
7.5159e-10
-2.0052e-08
2.924e-09
7.704e-10
-1.6125e-08
2.9422e-09
7.5541e-10
-1.2366e-08
2.8561e-09
7.1052e-10
-8.892e-09
2.6809e-09
6.4137e-10
2.4417e-09
5.5814e-10
-4.0577e-08
2.3394e-10
8.5523e-10
-3.922e-08
3.5478e-10
1.4906e-09
-3.7247e-08
4.6968e-10
2.153e-09
-3.4672e-08
5.7688e-10
2.8159e-09
-3.1551e-08
6.683e-10
3.4391e-09
-2.7989e-08
7.3384e-10
3.9756e-09
-2.4124e-08
7.6878e-10
4.3753e-09
-2.0122e-08
7.6725e-10
4.6088e-09
-1.6149e-08
7.2935e-10
4.6657e-09
-1.2353e-08
6.6355e-10
4.5548e-09
-8.8511e-09
5.7429e-10
4.3009e-09
4.7174e-10
3.943e-09
-4.0608e-08
-5.9623e-10
4.2315e-10
8.5345e-10
-3.9253e-08
-9.8602e-10
6.5493e-10
1.4499e-09
-3.7281e-08
-1.3762e-09
8.8631e-10
2.0584e-09
-3.4704e-08
-1.7555e-09
1.1011e-09
2.6636e-09
-3.1578e-08
-2.1034e-09
1.2866e-09
3.2269e-09
-2.8006e-08
-2.3942e-09
1.428e-09
3.7027e-09
-2.413e-08
-2.6001e-09
1.5093e-09
4.0477e-09
-2.0115e-08
-2.7026e-09
1.5183e-09
4.2329e-09
-1.6132e-08
-2.6996e-09
1.4638e-09
4.2499e-09
-1.2327e-08
-2.5946e-09
1.3508e-09
4.1061e-09
-8.8168e-09
-2.4013e-09
1.1859e-09
3.829e-09
-2.1481e-09
9.9465e-10
3.4585e-09
-4.0338e-08
-4.0679e-10
2.7571e-10
-3.8977e-08
-6.862e-10
5.1793e-10
-3.7011e-08
-9.6527e-10
7.6098e-10
-3.4455e-08
-1.2349e-09
9.9395e-10
-3.1364e-08
-1.4802e-09
1.2007e-09
-2.7837e-08
-1.6812e-09
1.3645e-09
-2.4012e-08
-1.8206e-09
1.473e-09
-2.005e-08
-1.8891e-09
1.5202e-09
-1.6111e-08
-1.8847e-09
1.5037e-09
-1.2341e-08
-1.8107e-09
1.4313e-09
-8.859e-09
-1.6801e-09
1.3194e-09
-1.5114e-09
1.1829e-09
-4.027e-08
-2.2029e-10
4.0853e-10
-3.8907e-08
-3.6893e-10
6.8945e-10
-3.6943e-08
-5.1614e-10
9.691e-10
-3.4394e-08
-6.5723e-10
1.2395e-09
-3.1316e-08
-7.8446e-10
1.4854e-09
-2.7809e-08
-8.8767e-10
1.687e-09
-2.4008e-08
-9.5767e-10
1.8267e-09
-2.007e-08
-9.9095e-10
1.8954e-09
-1.6155e-08
-9.862e-10
1.891e-09
-1.2405e-08
-9.4501e-10
1.8167e-09
-8.9365e-09
-8.7511e-10
1.6857e-09
-7.8532e-10
1.5165e-09
-4.0242e-08
3.7454e-13
4.1091e-10
-3.8876e-08
3.9448e-13
7.0631e-10
-3.6911e-08
3.0558e-13
1.0052e-09
-3.4365e-08
2.3811e-13
1.2981e-09
-3.1294e-08
2.0052e-13
1.5662e-09
-2.7795e-08
1.4209e-13
1.7895e-09
-2.4006e-08
9.9282e-14
1.9507e-09
-2.0079e-08
6.5196e-14
2.034e-09
-1.6174e-08
1.8124e-14
2.0378e-09
-1.2433e-08
-5.0822e-14
1.9685e-09
-8.9725e-09
-1.6751e-14
1.8357e-09
-1.0023e-14
1.6593e-09
-4.0243e-08
2.2174e-10
4.1039e-10
-3.8876e-08
3.7088e-10
7.055e-10
-3.6912e-08
5.1825e-10
1.0045e-09
-3.4366e-08
6.5979e-10
1.2967e-09
-3.1294e-08
7.8735e-10
1.5647e-09
-2.7796e-08
8.9079e-10
1.7877e-09
-2.4006e-08
9.6093e-10
1.9488e-09
-2.0079e-08
9.9421e-10
2.032e-09
-1.6174e-08
9.8945e-10
2.0357e-09
-1.2433e-08
9.4803e-10
1.9666e-09
-8.9726e-09
8.7793e-10
1.8339e-09
7.8788e-10
1.6575e-09
-4.027e-08
4.089e-10
4.0738e-10
-3.8907e-08
6.8964e-10
6.8747e-10
-3.6943e-08
9.6932e-10
9.6603e-10
-3.4394e-08
1.2396e-09
1.2361e-09
-3.1316e-08
1.4856e-09
1.4812e-09
-2.7809e-08
1.6873e-09
1.6822e-09
-2.4008e-08
1.827e-09
1.8216e-09
-2.007e-08
1.8957e-09
1.89e-09
-1.6155e-08
1.8913e-09
1.8856e-09
-1.2405e-08
1.817e-09
1.8114e-09
-8.9364e-09
1.6861e-09
1.6807e-09
1.517e-09
1.5119e-09
-4.0337e-08
5.9762e-10
2.7447e-10
-3.8976e-08
9.8831e-10
5.1588e-10
-3.701e-08
1.3779e-09
7.5841e-10
-3.4454e-08
1.7582e-09
9.9024e-10
-3.1363e-08
2.1064e-09
1.1964e-09
-2.7836e-08
2.3975e-09
1.3598e-09
-2.4011e-08
2.6037e-09
1.4677e-09
-2.0049e-08
2.7064e-09
1.5148e-09
-1.6111e-08
2.7033e-09
1.4982e-09
-1.2341e-08
2.5983e-09
1.4261e-09
-8.8587e-09
2.4049e-09
1.3145e-09
2.1514e-09
1.1784e-09
-4.0607e-08
4.224e-10
8.5433e-10
-3.9252e-08
6.5417e-10
1.4506e-09
-3.728e-08
8.8457e-10
2.0587e-09
-3.4703e-08
1.0991e-09
2.6643e-09
-3.1578e-08
1.2842e-09
3.2273e-09
-2.8005e-08
1.4251e-09
3.7031e-09
-2.413e-08
1.5063e-09
4.0481e-09
-2.0115e-08
1.5153e-09
4.2333e-09
-1.6132e-08
1.4609e-09
4.2503e-09
-1.2326e-08
1.348e-09
4.1064e-09
-8.8163e-09
1.1834e-09
3.8299e-09
9.9222e-10
3.4596e-09
-4.0673e-08
-4.1106e-10
2.9492e-10
8.9766e-10
-3.9322e-08
-7.5318e-10
5.3483e-10
1.5132e-09
-3.7352e-08
-1.0936e-09
7.7156e-10
2.1359e-09
-3.4771e-08
-1.4256e-09
9.8494e-10
2.7528e-09
-3.1632e-08
-1.7231e-09
1.1556e-09
3.3304e-09
-2.8041e-08
-1.9605e-09
1.2666e-09
3.8241e-09
-2.4142e-08
-2.1226e-09
1.3125e-09
4.1821e-09
-2.0104e-08
-2.1986e-09
1.2869e-09
4.3749e-09
-1.6097e-08
-2.1817e-09
1.1928e-09
4.3972e-09
-1.2269e-08
-2.0833e-09
1.0416e-09
4.2607e-09
-8.7427e-09
-1.9251e-09
8.496e-10
3.9948e-09
-1.7288e-09
6.4237e-10
3.6392e-09
-4.0417e-08
-2.7398e-10
4.135e-10
-3.9061e-08
-5.1509e-10
7.5536e-10
-3.7093e-08
-7.58e-10
1.0979e-09
-3.4531e-08
-9.8976e-10
1.4298e-09
-3.1428e-08
-1.1957e-09
1.7278e-09
-2.7878e-08
-1.359e-09
1.9657e-09
-2.4026e-08
-1.467e-09
2.1283e-09
-2.0038e-08
-1.5142e-09
2.2044e-09
-1.6074e-08
-1.4977e-09
2.1875e-09
-1.2283e-08
-1.4257e-09
2.0886e-09
-8.7828e-09
-1.3143e-09
1.9304e-09
-1.1784e-09
1.7338e-09
-4.0337e-08
-1.4396e-10
5.971e-10
-3.8975e-08
-2.7033e-10
9.8834e-10
-3.701e-08
-3.9482e-10
1.3774e-09
-3.4454e-08
-5.1332e-10
1.7575e-09
-3.1363e-08
-6.1661e-10
2.106e-09
-2.7836e-08
-6.9817e-10
2.3972e-09
-2.4011e-08
-7.5082e-10
2.6033e-09
-2.0049e-08
-7.6961e-10
2.7059e-09
-1.6111e-08
-7.5481e-10
2.7027e-09
-1.2341e-08
-7.0985e-10
2.5977e-09
-8.8586e-09
-6.4101e-10
2.4043e-09
-5.5802e-10
2.1509e-09
-4.0299e-08
9.5018e-14
6.0995e-10
-3.8935e-08
-1.6516e-13
1.0183e-09
-3.6968e-08
-5.6019e-13
1.435e-09
-3.4416e-08
-7.9623e-13
1.8488e-09
-3.1332e-08
-1.1454e-12
2.2327e-09
-2.7814e-08
-1.4278e-12
2.555e-09
-2.4001e-08
-1.5879e-12
2.7931e-09
-2.0052e-08
-1.6752e-12
2.9238e-09
-1.6125e-08
-1.7079e-12
2.942e-09
-1.2366e-08
-1.7367e-12
2.8558e-09
-8.8919e-09
-1.7348e-12
2.6806e-09
-1.6222e-12
2.4414e-09
-4.0299e-08
1.4477e-10
6.0985e-10
-3.8936e-08
2.7073e-10
1.0184e-09
-3.6969e-08
3.9638e-10
1.4344e-09
-3.4416e-08
5.1351e-10
1.8487e-09
-3.1332e-08
6.17e-10
2.2324e-09
-2.7814e-08
6.9841e-10
2.5545e-09
-2.4001e-08
7.51e-10
2.7927e-09
-2.0052e-08
7.6972e-10
2.9234e-09
-1.6126e-08
7.5473e-10
2.9415e-09
-1.2366e-08
7.0978e-10
2.8554e-09
-8.8921e-09
6.4065e-10
2.6801e-09
5.5738e-10
2.441e-09
-4.0338e-08
2.7593e-10
5.9663e-10
-3.8977e-08
5.1796e-10
9.8715e-10
-3.7011e-08
7.6101e-10
1.3768e-09
-3.4456e-08
9.9425e-10
1.7556e-09
-3.1364e-08
1.2006e-09
2.1041e-09
-2.7837e-08
1.3642e-09
2.3951e-09
-2.4012e-08
1.4728e-09
2.6009e-09
-2.005e-08
1.5201e-09
2.7032e-09
-1.6111e-08
1.5036e-09
2.7002e-09
-1.2341e-08
1.4313e-09
2.5949e-09
-8.859e-09
1.3193e-09
2.4017e-09
1.1827e-09
2.1484e-09
-4.0417e-08
4.1321e-10
4.119e-10
-3.9061e-08
7.5562e-10
7.5352e-10
-3.7093e-08
1.0981e-09
1.0941e-09
-3.4531e-08
1.4295e-09
1.4264e-09
-3.1428e-08
1.7279e-09
1.7234e-09
-2.7878e-08
1.9662e-09
1.9605e-09
-2.4026e-08
2.1284e-09
2.123e-09
-2.0038e-08
2.2047e-09
2.1989e-09
-1.6074e-08
2.1877e-09
2.1818e-09
-1.2283e-08
2.089e-09
2.0834e-09
-8.7828e-09
1.9306e-09
1.9251e-09
1.7338e-09
1.7286e-09
-4.0672e-08
2.9347e-10
8.9904e-10
-3.9321e-08
5.3267e-10
1.5148e-09
-3.7351e-08
7.6926e-10
2.1369e-09
-3.477e-08
9.81e-10
2.7545e-09
-3.1631e-08
1.1511e-09
3.3322e-09
-2.8041e-08
1.2617e-09
3.8258e-09
-2.4142e-08
1.307e-09
4.184e-09
-2.0104e-08
1.2813e-09
4.3769e-09
-1.6096e-08
1.1872e-09
4.3993e-09
-1.2268e-08
1.0364e-09
4.2626e-09
-8.7423e-09
8.4494e-10
3.9965e-09
6.3765e-10
3.6411e-09
-4.0775e-08
-2.9293e-10
4.2528e-10
4.2317e-10
-3.9444e-08
-5.3215e-10
7.8237e-10
7.8033e-10
-3.7476e-08
-7.6905e-10
1.125e-09
1.1236e-09
-3.4888e-08
-9.8156e-10
1.4487e-09
1.4474e-09
-3.1731e-08
-1.1516e-09
1.7237e-09
1.7229e-09
-2.8109e-08
-1.2623e-09
1.9247e-09
1.9241e-09
-2.4172e-08
-1.3078e-09
2.0349e-09
2.0341e-09
-2.0093e-08
-1.2821e-09
2.0426e-09
2.0416e-09
-1.6049e-08
-1.188e-09
1.9499e-09
1.9487e-09
-1.2194e-08
-1.0373e-09
1.7705e-09
1.7693e-09
-8.6464e-09
-8.4573e-10
1.5249e-09
1.5238e-09
-6.3866e-10
1.2502e-09
1.2466e-09
-4.0672e-08
-4.2204e-10
8.9969e-10
-3.9321e-08
-6.5402e-10
1.5152e-09
-3.7351e-08
-8.8434e-10
2.1371e-09
-3.477e-08
-1.0986e-09
2.7538e-09
-3.1631e-08
-1.2836e-09
3.331e-09
-2.8041e-08
-1.4246e-09
3.8246e-09
-2.4142e-08
-1.5056e-09
4.1825e-09
-2.0104e-08
-1.5147e-09
4.3753e-09
-1.6096e-08
-1.4601e-09
4.3977e-09
-1.2268e-08
-1.3481e-09
4.2612e-09
-8.7423e-09
-1.1833e-09
3.9954e-09
-9.9279e-10
3.641e-09
-4.0607e-08
-2.3323e-10
8.5364e-10
-3.9252e-08
-3.5368e-10
1.4499e-09
-3.728e-08
-4.6876e-10
2.0578e-09
-3.4703e-08
-5.7613e-10
2.6633e-09
-3.1577e-08
-6.6713e-10
3.2266e-09
-2.8005e-08
-7.3281e-10
3.7023e-09
-2.4129e-08
-7.6761e-10
4.0471e-09
-2.0114e-08
-7.6601e-10
4.2322e-09
-1.6131e-08
-7.2805e-10
4.2491e-09
-1.2327e-08
-6.6251e-10
4.105e-09
-8.8164e-09
-5.7326e-10
3.8283e-09
-4.7112e-10
3.4578e-09
-4.0577e-08
1.4192e-13
8.5485e-10
-3.922e-08
-1.3204e-13
1.4903e-09
-3.7247e-08
-3.9763e-13
2.1528e-09
-3.4672e-08
-7.2128e-13
2.8157e-09
-3.1551e-08
-9.7933e-13
3.4393e-09
-2.7989e-08
-1.2519e-12
3.976e-09
-2.4124e-08
-1.438e-12
4.3758e-09
-2.0122e-08
-1.4896e-12
4.6092e-09
-1.6149e-08
-1.4316e-12
4.6661e-09
-1.2353e-08
-1.6016e-12
4.5552e-09
-8.8511e-09
-1.289e-12
4.301e-09
-1.1003e-12
3.9426e-09
-4.0578e-08
2.3368e-10
8.5507e-10
-3.922e-08
3.5423e-10
1.4905e-09
-3.7247e-08
4.6852e-10
2.1529e-09
-3.4672e-08
5.7615e-10
2.8159e-09
-3.1551e-08
6.6697e-10
3.4393e-09
-2.7989e-08
7.3228e-10
3.9758e-09
-2.4124e-08
7.6691e-10
4.3756e-09
-2.0122e-08
7.6532e-10
4.6092e-09
-1.6149e-08
7.2726e-10
4.6661e-09
-1.2353e-08
6.6135e-10
4.5552e-09
-8.8512e-09
5.7226e-10
4.3012e-09
4.6995e-10
3.9432e-09
-4.0608e-08
4.2321e-10
8.5396e-10
-3.9253e-08
6.5523e-10
1.4506e-09
-3.7281e-08
8.8655e-10
2.0586e-09
-3.4704e-08
1.1009e-09
2.6639e-09
-3.1578e-08
1.2864e-09
3.2275e-09
-2.8006e-08
1.4278e-09
3.7033e-09
-2.413e-08
1.5088e-09
4.0482e-09
-2.0115e-08
1.5177e-09
4.2333e-09
-1.6132e-08
1.4634e-09
4.2503e-09
-1.2327e-08
1.3499e-09
4.1062e-09
-8.8166e-09
1.1855e-09
3.8293e-09
9.94e-10
3.4589e-09
-4.0673e-08
2.9458e-10
8.988e-10
-3.9322e-08
5.3462e-10
1.5142e-09
-3.7352e-08
7.7169e-10
2.136e-09
-3.477e-08
9.8477e-10
2.7534e-09
-3.1632e-08
1.155e-09
3.331e-09
-2.8041e-08
1.266e-09
3.8245e-09
-2.4142e-08
1.3119e-09
4.1824e-09
-2.0104e-08
1.2863e-09
4.375e-09
-1.6096e-08
1.1922e-09
4.3973e-09
-1.2269e-08
1.0412e-09
4.2604e-09
-8.7426e-09
8.4961e-10
3.9941e-09
6.4204e-10
3.6384e-09
-4.0775e-08
4.2443e-10
4.2392e-10
-3.9443e-08
7.8223e-10
7.8055e-10
-3.7476e-08
1.1251e-09
1.1235e-09
-3.4888e-08
1.4485e-09
1.4464e-09
-3.1731e-08
1.7237e-09
1.7216e-09
-2.811e-08
1.9247e-09
1.9226e-09
-2.4172e-08
2.0349e-09
2.0325e-09
-2.0093e-08
2.0426e-09
2.0401e-09
-1.6049e-08
1.9499e-09
1.9473e-09
-1.2193e-08
1.7703e-09
1.7678e-09
-8.6464e-09
1.5253e-09
1.5228e-09
1.2493e-09
1.2457e-09
2.8043e-08
-8.9659e-10
1.4851e-09
-3.9242e-12
4.0346e-08
-1.0102e-09
1.8063e-09
-3.7408e-12
5.3785e-08
-1.1105e-09
2.0782e-09
-3.5784e-12
6.7953e-08
-1.1792e-09
2.2571e-09
-3.8956e-12
8.2299e-08
-1.1991e-09
2.3199e-09
-4.2276e-12
9.6174e-08
-1.1675e-09
2.2608e-09
-4.222e-12
1.0891e-07
-1.0845e-09
2.0946e-09
-3.9586e-12
1.1996e-07
-9.5886e-10
1.8445e-09
-3.8007e-12
1.2895e-07
-8.1581e-10
1.5438e-09
-2.8598e-12
1.3573e-07
-6.771e-10
1.243e-09
-2.4388e-12
1.4027e-07
-5.6885e-10
1.0091e-09
-1.7334e-12
-4.5781e-10
9.9647e-10
-1.3556e-12
3.394e-08
-7.3606e-10
4.0377e-09
4.8346e-08
-8.4451e-10
4.4468e-09
6.4052e-08
-9.3834e-10
4.7528e-09
8.0582e-08
-1.0014e-09
4.8858e-09
9.7307e-08
-1.0218e-09
4.8157e-09
1.1349e-07
-9.9687e-10
4.5374e-09
1.2838e-07
-9.2646e-10
4.0727e-09
1.4134e-07
-8.1622e-10
3.4667e-09
1.5195e-07
-6.8291e-10
2.7831e-09
1.5998e-07
-5.3847e-10
2.097e-09
1.6536e-07
-3.9367e-10
1.4835e-09
-2.7127e-10
1.0765e-09
3.8046e-08
-5.5908e-10
4.2497e-09
5.3975e-08
-6.1493e-10
4.6747e-09
7.1326e-08
-6.6132e-10
4.9863e-09
8.9566e-08
-6.8908e-10
5.1208e-09
1.08e-07
-6.9315e-10
5.0479e-09
1.2583e-07
-6.7058e-10
4.7593e-09
1.4223e-07
-6.2011e-10
4.278e-09
1.5651e-07
-5.4445e-10
3.6514e-09
1.6821e-07
-4.5674e-10
2.9469e-09
1.771e-07
-3.6538e-10
2.2428e-09