/*--------------------------------*- C++ -*----------------------------------*\
| =========                 |                                                 |
| \\      /  F ield         | OpenFOAM: The Open Source CFD Toolbox           |
|  \\    /   O peration     | Version:  4.1                                   |
|   \\  /    A nd           | Web:      www.OpenFOAM.org                      |
|    \\/     M anipulation  |                                                 |
\*---------------------------------------------------------------------------*/
FoamFile
{
    version     2.0;
    format      ascii;
    class       pointVectorField;
    location    "0.0009";
    object      pointDisplacement;
}
// * * * * * * * * * * * * * * * * * * * * * * * * * * * * * * * * * * * * * //

dimensions      [0 1 0 0 0 0 0];

internalField   nonuniform List<vector> 
1885
(
(-1.8094e-07 -2.1641e-06 -9.8819e-11)
(2.41e-07 -3.1839e-06 9.0549e-11)
(8.5612e-07 -4.4468e-06 3.6278e-10)
(1.8647e-06 -6.0771e-06 7.2448e-10)
(3.5351e-06 -8.519e-06 1.1998e-09)
(5.9968e-06 -1.247e-05 1.8282e-09)
(8.9603e-06 -1.8425e-05 2.5911e-09)
(1.1576e-05 -2.5894e-05 3.3452e-09)
(1.2724e-05 -3.2781e-05 3.8108e-09)
(1.1713e-05 -3.5574e-05 3.7133e-09)
(8.7362e-06 -3.0904e-05 2.9931e-09)
(4.5813e-06 -1.8016e-05 1.7133e-09)
(0 0 0)
(-1.3863e-07 -1.9801e-06 2.5109e-07)
(3.0597e-07 -2.8976e-06 3.6634e-07)
(9.6263e-07 -4.0512e-06 5.111e-07)
(2.0148e-06 -5.5679e-06 7.0233e-07)
(3.6889e-06 -7.8347e-06 9.8979e-07)
(6.0667e-06 -1.1424e-05 1.4447e-06)
(8.8457e-06 -1.6692e-05 2.1087e-06)
(1.124e-05 -2.3138e-05 2.9158e-06)
(1.225e-05 -2.8916e-05 3.634e-06)
(1.1262e-05 -3.105e-05 3.8939e-06)
(8.4296e-06 -2.678e-05 3.3541e-06)
(4.4415e-06 -1.5557e-05 1.9475e-06)
(0 0 0)
(-1.081e-07 -1.7743e-06 5.7732e-07)
(3.5272e-07 -2.5867e-06 8.4109e-07)
(1.038e-06 -3.6197e-06 1.1768e-06)
(2.1192e-06 -4.995e-06 1.6242e-06)
(3.7943e-06 -7.0459e-06 2.2909e-06)
(6.113e-06 -1.0241e-05 3.3259e-06)
(8.7653e-06 -1.4837e-05 4.809e-06)
(1.1008e-05 -2.0355e-05 6.5827e-06)
(1.1925e-05 -2.5186e-05 8.1323e-06)
(1.0951e-05 -2.6827e-05 8.6547e-06)
(8.2143e-06 -2.3006e-05 7.4204e-06)
(4.3413e-06 -1.3325e-05 4.2982e-06)
(0 0 0)
(-8.7939e-08 -1.5201e-06 9.0749e-07)
(3.8355e-07 -2.2123e-06 1.3212e-06)
(1.0864e-06 -3.0987e-06 1.8514e-06)
(2.1842e-06 -4.2863e-06 2.5613e-06)
(3.8576e-06 -6.0517e-06 3.6145e-06)
(6.1378e-06 -8.7719e-06 5.2329e-06)
(8.7122e-06 -1.2638e-05 7.5287e-06)
(1.0865e-05 -1.7224e-05 1.0249e-05)
(1.1725e-05 -2.1186e-05 1.2599e-05)
(1.0757e-05 -2.246e-05 1.3356e-05)
(8.0776e-06 -1.92e-05 1.142e-05)
(4.2761e-06 -1.1101e-05 6.6047e-06)
(0 0 0)
(-8.0884e-08 -1.2269e-06 1.2266e-06)
(3.9435e-07 -1.7852e-06 1.785e-06)
(1.1031e-06 -2.5022e-06 2.5021e-06)
(2.2063e-06 -3.464e-06 3.464e-06)
(3.8786e-06 -4.8903e-06 4.8906e-06)
(6.1454e-06 -7.0774e-06 7.0779e-06)
(8.6934e-06 -1.0171e-05 1.0172e-05)
(1.0816e-05 -1.3827e-05 1.3828e-05)
(1.1657e-05 -1.6972e-05 1.6973e-05)
(1.0692e-05 -1.7966e-05 1.7967e-05)
(8.0305e-06 -1.5345e-05 1.5346e-05)
(4.2534e-06 -8.8686e-06 8.869e-06)
(0 0 0)
(-8.7955e-08 -9.0764e-07 1.5195e-06)
(3.8354e-07 -1.3213e-06 2.2118e-06)
(1.0864e-06 -1.8513e-06 3.0984e-06)
(2.1842e-06 -2.5611e-06 4.2862e-06)
(3.8576e-06 -3.614e-06 6.0518e-06)
(6.1378e-06 -5.2323e-06 8.7722e-06)
(8.7122e-06 -7.5278e-06 1.2639e-05)
(1.0865e-05 -1.0248e-05 1.7225e-05)
(1.1725e-05 -1.2598e-05 2.1187e-05)
(1.0757e-05 -1.3355e-05 2.2461e-05)
(8.0776e-06 -1.1419e-05 1.9201e-05)
(4.2761e-06 -6.6042e-06 1.1101e-05)
(0 0 0)
(-1.0813e-07 -5.7738e-07 1.7735e-06)
(3.5269e-07 -8.4107e-07 2.5859e-06)
(1.038e-06 -1.1766e-06 3.6191e-06)
(2.1192e-06 -1.6238e-06 4.9946e-06)
(3.7943e-06 -2.2903e-06 7.0459e-06)
(6.113e-06 -3.3251e-06 1.0241e-05)
(8.7653e-06 -4.808e-06 1.4838e-05)
(1.1008e-05 -6.5817e-06 2.0355e-05)
(1.1925e-05 -8.1311e-06 2.5187e-05)
(1.0951e-05 -8.6536e-06 2.6827e-05)
(8.2143e-06 -7.4196e-06 2.3007e-05)
(4.3413e-06 -4.2977e-06 1.3325e-05)
(0 0 0)
(-1.3867e-07 -2.5114e-07 1.9791e-06)
(3.0593e-07 -3.6631e-07 2.8966e-06)
(9.6259e-07 -5.1094e-07 4.0505e-06)
(2.0148e-06 -7.02e-07 5.5674e-06)
(3.6889e-06 -9.8927e-07 7.8345e-06)
(6.0667e-06 -1.444e-06 1.1424e-05)
(8.8457e-06 -2.1078e-06 1.6692e-05)
(1.124e-05 -2.9148e-06 2.3139e-05)
(1.225e-05 -3.6329e-06 2.8916e-05)
(1.1262e-05 -3.8929e-06 3.1051e-05)
(8.4295e-06 -3.3533e-06 2.678e-05)
(4.4415e-06 -1.947e-06 1.5557e-05)
(0 0 0)
(-1.81e-07 1.1681e-12 2.1628e-06)
(2.4094e-07 -1.1294e-10 3.1827e-06)
(8.5607e-07 -2.6234e-10 4.4459e-06)
(1.8647e-06 -4.6496e-10 6.0764e-06)
(3.5351e-06 -7.6095e-10 8.5186e-06)
(5.9968e-06 -1.2148e-09 1.247e-05)
(8.9603e-06 -1.8362e-09 1.8425e-05)
(1.1576e-05 -2.5026e-09 2.5894e-05)
(1.2724e-05 -2.9473e-09 3.2782e-05)
(1.1713e-05 -2.9089e-09 3.5574e-05)
(8.7362e-06 -2.3552e-09 3.0904e-05)
(4.5813e-06 -1.3587e-09 1.8017e-05)
(0 0 0)
(-1.3865e-07 -1.9803e-06 -2.5117e-07)
(3.0594e-07 -2.8977e-06 -3.6594e-07)
(9.6258e-07 -4.0514e-06 -5.1001e-07)
(2.0147e-06 -5.568e-06 -7.0032e-07)
(3.6888e-06 -7.8349e-06 -9.8655e-07)
(6.0667e-06 -1.1424e-05 -1.4398e-06)
(8.8458e-06 -1.6692e-05 -2.1018e-06)
(1.124e-05 -2.3139e-05 -2.9069e-06)
(1.225e-05 -2.8916e-05 -3.6238e-06)
(1.1262e-05 -3.1051e-05 -3.884e-06)
(8.4297e-06 -2.6781e-05 -3.3461e-06)
(4.4416e-06 -1.5557e-05 -1.9429e-06)
(0 0 0)
(-7.2446e-08 -1.6852e-06 3.1669e-10)
(4.0664e-07 -2.4487e-06 7.4775e-10)
(1.1222e-06 -3.4315e-06 1.3418e-09)
(2.2316e-06 -4.7551e-06 2.1523e-09)
(3.9018e-06 -6.7205e-06 3.2891e-09)
(6.1498e-06 -9.7287e-06 4.8733e-09)
(8.6611e-06 -1.3969e-05 6.8769e-09)
(1.0742e-05 -1.8957e-05 8.9431e-09)
(1.156e-05 -2.322e-05 1.0331e-08)
(1.0603e-05 -2.4527e-05 1.0281e-08)
(7.9719e-06 -2.091e-05 8.4224e-09)
(4.2263e-06 -1.2069e-05 4.8078e-09)
(0 0 0)
(-4.0357e-08 -1.4566e-06 2.9355e-07)
(4.5478e-07 -2.1112e-06 4.2571e-07)
(1.1954e-06 -2.9619e-06 5.9747e-07)
(2.3269e-06 -4.117e-06 8.3065e-07)
(3.9908e-06 -5.8256e-06 1.1751e-06)
(6.1786e-06 -8.403e-06 1.6938e-06)
(8.5735e-06 -1.1973e-05 2.4107e-06)
(1.0522e-05 -1.6101e-05 3.2383e-06)
(1.1258e-05 -1.9551e-05 3.9297e-06)
(1.0312e-05 -2.0504e-05 4.1206e-06)
(7.7649e-06 -1.7393e-05 3.4959e-06)
(4.1267e-06 -1.0012e-05 2.0133e-06)
(0 0 0)
(-1.999e-08 -1.193e-06 5.9836e-07)
(4.8514e-07 -1.727e-06 8.6657e-07)
(1.2407e-06 -2.4247e-06 1.217e-06)
(2.3846e-06 -3.3762e-06 1.6948e-06)
(4.0434e-06 -4.7794e-06 2.3986e-06)
(6.1938e-06 -6.8773e-06 3.4494e-06)
(8.5186e-06 -9.753e-06 4.8885e-06)
(1.0388e-05 -1.3042e-05 6.5337e-06)
(1.1075e-05 -1.5755e-05 7.8907e-06)
(1.0135e-05 -1.6454e-05 8.2403e-06)
(7.638e-06 -1.3915e-05 6.9702e-06)
(4.0649e-06 -7.9981e-06 4.0073e-06)
(0 0 0)
(-1.3016e-08 -9.0313e-07 9.0275e-07)
(4.955e-07 -1.307e-06 1.3067e-06)
(1.2561e-06 -1.8356e-06 1.8355e-06)
(2.4039e-06 -2.5573e-06 2.5575e-06)
(4.0607e-06 -3.62e-06 3.6205e-06)
(6.1985e-06 -5.2034e-06 5.2042e-06)
(8.4999e-06 -7.3657e-06 7.3667e-06)
(1.0343e-05 -9.83e-06 9.8313e-06)
(1.1015e-05 -1.1854e-05 1.1855e-05)
(1.0076e-05 -1.2361e-05 1.2363e-05)
(7.5951e-06 -1.0445e-05 1.0446e-05)
(4.0439e-06 -6.0009e-06 6.0015e-06)
(0 0 0)
(-2.0003e-08 -5.9862e-07 1.1925e-06)
(4.8512e-07 -8.667e-07 1.7266e-06)
(1.2407e-06 -1.217e-06 2.4244e-06)
(2.3846e-06 -1.6945e-06 3.3762e-06)
(4.0434e-06 -2.398e-06 4.7796e-06)
(6.1938e-06 -3.4485e-06 6.8778e-06)
(8.5186e-06 -4.8873e-06 9.7538e-06)
(1.0388e-05 -6.5323e-06 1.3043e-05)
(1.1075e-05 -7.8891e-06 1.5756e-05)
(1.0135e-05 -8.2387e-06 1.6454e-05)
(7.638e-06 -6.9688e-06 1.3916e-05)
(4.0649e-06 -4.0066e-06 7.9985e-06)
(0 0 0)
(-4.0383e-08 -2.9373e-07 1.4558e-06)
(4.5476e-07 -4.2576e-07 2.1106e-06)
(1.1954e-06 -5.9733e-07 2.9614e-06)
(2.3269e-06 -8.3025e-07 4.1167e-06)
(3.9908e-06 -1.1744e-06 5.8257e-06)
(6.1786e-06 -1.6927e-06 8.4034e-06)
(8.5734e-06 -2.4094e-06 1.1974e-05)
(1.0521e-05 -3.2368e-06 1.6101e-05)
(1.1258e-05 -3.928e-06 1.9551e-05)
(1.0312e-05 -4.1189e-06 2.0504e-05)
(7.7649e-06 -3.4945e-06 1.7393e-05)
(4.1267e-06 -2.0125e-06 1.0012e-05)
(0 0 0)
(-7.2484e-08 -4.9678e-10 1.6842e-06)
(4.0661e-07 -8.0037e-10 2.4478e-06)
(1.1222e-06 -1.2013e-09 3.4308e-06)
(2.2316e-06 -1.7629e-09 4.7546e-06)
(3.9018e-06 -2.6095e-09 6.7203e-06)
(6.1497e-06 -3.8868e-09 9.7288e-06)
(8.6611e-06 -5.6039e-09 1.3969e-05)
(1.0742e-05 -7.4502e-09 1.8958e-05)
(1.156e-05 -8.7337e-09 2.3221e-05)
(1.0603e-05 -8.7281e-09 2.4528e-05)
(7.9718e-06 -7.1466e-09 2.091e-05)
(4.2263e-06 -4.0883e-09 1.2069e-05)
(0 0 0)
(-1.387e-07 2.5094e-07 1.979e-06)
(3.0589e-07 3.6581e-07 2.8966e-06)
(9.6254e-07 5.1006e-07 4.0504e-06)
(2.0147e-06 7.0058e-07 5.5674e-06)
(3.6888e-06 9.8705e-07 7.8345e-06)
(6.0667e-06 1.4406e-06 1.1424e-05)
(8.8458e-06 2.1028e-06 1.6692e-05)
(1.124e-05 2.908e-06 2.3139e-05)
(1.225e-05 3.625e-06 2.8917e-05)
(1.1262e-05 3.8851e-06 3.1051e-05)
(8.4297e-06 3.347e-06 2.6781e-05)
(4.4416e-06 1.9434e-06 1.5558e-05)
(0 0 0)
(-1.0816e-07 -1.7747e-06 -5.7804e-07)
(3.5263e-07 -2.587e-06 -8.4152e-07)
(1.0379e-06 -3.6201e-06 -1.1768e-06)
(2.119e-06 -4.9953e-06 -1.6236e-06)
(3.7941e-06 -7.0463e-06 -2.2895e-06)
(6.113e-06 -1.0241e-05 -3.3237e-06)
(8.7655e-06 -1.4838e-05 -4.806e-06)
(1.1009e-05 -2.0356e-05 -6.5792e-06)
(1.1925e-05 -2.5188e-05 -8.1286e-06)
(1.0951e-05 -2.6829e-05 -8.6513e-06)
(8.2148e-06 -2.3009e-05 -7.4178e-06)
(4.3415e-06 -1.3326e-05 -4.2967e-06)
(0 0 0)
(-4.0413e-08 -1.4567e-06 -2.9342e-07)
(4.547e-07 -2.1113e-06 -4.2487e-07)
(1.1953e-06 -2.9618e-06 -5.9564e-07)
(2.3267e-06 -4.1169e-06 -8.2744e-07)
(3.9907e-06 -5.8254e-06 -1.1701e-06)
(6.1786e-06 -8.4028e-06 -1.6862e-06)
(8.5736e-06 -1.1973e-05 -2.4002e-06)
(1.0522e-05 -1.6101e-05 -3.2249e-06)
(1.1258e-05 -1.9551e-05 -3.9143e-06)
(1.0312e-05 -2.0505e-05 -4.1052e-06)
(7.7653e-06 -1.7394e-05 -3.4831e-06)
(4.1269e-06 -1.0013e-05 -2.006e-06)
(0 0 0)
(-5.977e-09 -1.2125e-06 2.9652e-10)
(5.0584e-07 -1.7533e-06 7.7962e-10)
(1.2714e-06 -2.4625e-06 1.4523e-09)
(2.4234e-06 -3.4329e-06 2.3751e-09)
(4.0781e-06 -4.8618e-06 3.6563e-09)
(6.2024e-06 -6.9859e-06 5.3979e-09)
(8.4785e-06 -9.877e-06 7.55e-09)
(1.0293e-05 -1.3159e-05 9.7491e-09)
(1.0948e-05 -1.5839e-05 1.1321e-08)
(1.0012e-05 -1.6491e-05 1.2025e-08)
(7.551e-06 -1.3917e-05 1.0529e-08)
(4.0228e-06 -7.9899e-06 5.9162e-09)
(0 0 0)
(1.5699e-08 -9.3445e-07 3.1271e-07)
(5.3779e-07 -1.3496e-06 4.5204e-07)
(1.3181e-06 -1.8969e-06 6.3574e-07)
(2.4814e-06 -2.6487e-06 8.8797e-07)
(4.1293e-06 -3.7523e-06 1.2579e-06)
(6.2144e-06 -5.3787e-06 1.8025e-06)
(8.4195e-06 -7.5693e-06 2.5355e-06)
(1.0156e-05 -1.0029e-05 3.3583e-06)
(1.0762e-05 -1.2009e-05 4.0205e-06)
(9.8318e-06 -1.2448e-05 4.1678e-06)
(7.4206e-06 -1.0471e-05 3.5069e-06)
(3.9591e-06 -6.0025e-06 2.0106e-06)
(0 0 0)
(2.3097e-08 -6.3017e-07 6.2978e-07)
(5.4866e-07 -9.0989e-07 9.0964e-07)
(1.3338e-06 -1.2792e-06 1.2792e-06)
(2.5007e-06 -1.7871e-06 1.7874e-06)
(4.1461e-06 -2.5317e-06 2.5324e-06)
(6.2181e-06 -3.6256e-06 3.6266e-06)
(8.3995e-06 -5.0936e-06 5.095e-06)
(1.011e-05 -6.7361e-06 6.7377e-06)
(1.07e-05 -8.0516e-06 8.0534e-06)
(9.7714e-06 -8.3328e-06 8.3347e-06)
(7.3767e-06 -7.0021e-06 7.0038e-06)
(3.9376e-06 -4.0123e-06 4.0132e-06)
(0 0 0)
(1.5687e-08 -3.13e-07 9.339e-07)
(5.3778e-07 -4.5216e-07 1.3492e-06)
(1.3181e-06 -6.3562e-07 1.8967e-06)
(2.4814e-06 -8.8753e-07 2.6488e-06)
(4.1293e-06 -1.2571e-06 3.7527e-06)
(6.2144e-06 -1.8013e-06 5.3795e-06)
(8.4195e-06 -2.5339e-06 7.5704e-06)
(1.0156e-05 -3.3563e-06 1.0031e-05)
(1.0762e-05 -4.0183e-06 1.2011e-05)
(9.8318e-06 -4.1654e-06 1.2449e-05)
(7.4205e-06 -3.5047e-06 1.0472e-05)
(3.9591e-06 -2.0094e-06 6.003e-06)
(0 0 0)
(-5.9995e-09 -5.3792e-10 1.2117e-06)
(5.0582e-07 -8.4567e-10 1.7526e-06)
(1.2714e-06 -1.2571e-09 2.462e-06)
(2.4234e-06 -1.8398e-09 3.4327e-06)
(4.0781e-06 -2.7125e-09 4.8619e-06)
(6.2023e-06 -3.9999e-09 6.9863e-06)
(8.4784e-06 -5.6971e-09 9.8776e-06)
(1.0293e-05 -7.5152e-09 1.316e-05)
(1.0948e-05 -8.8584e-09 1.584e-05)
(1.0012e-05 -9.4428e-09 1.6491e-05)
(7.5509e-06 -8.2493e-09 1.3917e-05)
(4.0228e-06 -4.6333e-09 7.99e-06)
(0 0 0)
(-4.0446e-08 2.9315e-07 1.4557e-06)
(4.5467e-07 4.2478e-07 2.1104e-06)
(1.1953e-06 5.958e-07 2.9612e-06)
(2.3267e-06 8.2795e-07 4.1165e-06)
(3.9907e-06 1.171e-06 5.8252e-06)
(6.1786e-06 1.6875e-06 8.4028e-06)
(8.5736e-06 2.402e-06 1.1973e-05)
(1.0522e-05 3.227e-06 1.6101e-05)
(1.1258e-05 3.9166e-06 1.9551e-05)
(1.0312e-05 4.1074e-06 2.0505e-05)
(7.7653e-06 3.485e-06 1.7394e-05)
(4.1269e-06 2.0071e-06 1.0013e-05)
(0 0 0)
(-1.0821e-07 5.7763e-07 1.7734e-06)
(3.5258e-07 8.4127e-07 2.5859e-06)
(1.0378e-06 1.1768e-06 3.6192e-06)
(2.119e-06 1.6238e-06 4.9947e-06)
(3.7941e-06 2.2901e-06 7.0459e-06)
(6.113e-06 3.3247e-06 1.0241e-05)
(8.7655e-06 4.8073e-06 1.4838e-05)
(1.1009e-05 6.5807e-06 2.0356e-05)
(1.1925e-05 8.1301e-06 2.5188e-05)
(1.0951e-05 8.6527e-06 2.6829e-05)
(8.2147e-06 7.4189e-06 2.3009e-05)
(4.3415e-06 4.2973e-06 1.3326e-05)
(0 0 0)
(-8.8003e-08 -1.5205e-06 -9.0881e-07)
(3.8345e-07 -2.2127e-06 -1.3224e-06)
(1.0863e-06 -3.0992e-06 -1.8523e-06)
(2.184e-06 -4.2866e-06 -2.5619e-06)
(3.8574e-06 -6.052e-06 -3.6147e-06)
(6.1378e-06 -8.7722e-06 -5.2329e-06)
(8.7124e-06 -1.2639e-05 -7.5287e-06)
(1.0865e-05 -1.7225e-05 -1.025e-05)
(1.1726e-05 -2.1188e-05 -1.26e-05)
(1.0758e-05 -2.2463e-05 -1.3358e-05)
(8.0781e-06 -1.9203e-05 -1.1421e-05)
(4.2763e-06 -1.1103e-05 -6.6055e-06)
(0 0 0)
(-2.0055e-08 -1.193e-06 -5.9931e-07)
(4.8504e-07 -1.7269e-06 -8.672e-07)
(1.2406e-06 -2.4244e-06 -1.2172e-06)
(2.3844e-06 -3.3757e-06 -1.6943e-06)
(4.0432e-06 -4.7785e-06 -2.3972e-06)
(6.1938e-06 -6.8761e-06 -3.4472e-06)
(8.5188e-06 -9.7515e-06 -4.8855e-06)
(1.0388e-05 -1.3041e-05 -6.5302e-06)
(1.1076e-05 -1.5754e-05 -7.8872e-06)
(1.0136e-05 -1.6454e-05 -8.2374e-06)
(7.6385e-06 -1.3916e-05 -6.968e-06)
(4.0651e-06 -7.9986e-06 -4.0061e-06)
(0 0 0)
(1.5675e-08 -9.3422e-07 -3.1294e-07)
(5.3775e-07 -1.3493e-06 -4.5161e-07)
(1.318e-06 -1.8964e-06 -6.3437e-07)
(2.4813e-06 -2.6479e-06 -8.853e-07)
(4.1292e-06 -3.7511e-06 -1.2535e-06)
(6.2144e-06 -5.377e-06 -1.7959e-06)
(8.4196e-06 -7.567e-06 -2.5263e-06)
(1.0156e-05 -1.0027e-05 -3.3466e-06)
(1.0762e-05 -1.2006e-05 -4.007e-06)
(9.8323e-06 -1.2446e-05 -4.1528e-06)
(7.4208e-06 -1.047e-05 -3.4932e-06)
(3.959e-06 -6.0018e-06 -2.0029e-06)
(0 0 0)
(3.822e-08 -6.4263e-07 -1.3548e-10)
(5.7077e-07 -9.2704e-07 2.0113e-10)
(1.3656e-06 -1.3039e-06 6.8189e-10)
(2.5397e-06 -1.8234e-06 1.3372e-09)
(4.1796e-06 -2.5838e-06 2.2152e-09)
(6.2245e-06 -3.695e-06 3.3501e-09)
(8.358e-06 -5.1763e-06 4.6879e-09)
(1.0015e-05 -6.8217e-06 6.0134e-09)
(1.0573e-05 -8.1262e-06 7.0349e-09)
(9.6487e-06 -8.3842e-06 8.7103e-09)
(7.288e-06 -7.029e-06 8.7441e-09)
(3.894e-06 -4.0231e-06 4.8038e-09)
(0 0 0)
(4.5932e-08 -3.2572e-07 3.2535e-07)
(5.8202e-07 -4.6974e-07 4.6956e-07)
(1.3817e-06 -6.6088e-07 6.6097e-07)
(2.5592e-06 -9.2469e-07 9.2514e-07)
(4.1963e-06 -1.3104e-06 1.3113e-06)
(6.2275e-06 -1.8724e-06 1.8737e-06)
(8.337e-06 -2.6189e-06 2.6207e-06)
(9.968e-06 -3.4451e-06 3.4473e-06)
(1.051e-05 -4.0967e-06 4.0992e-06)
(9.587e-06 -4.2203e-06 4.223e-06)
(7.2433e-06 -3.5343e-06 3.5369e-06)
(3.8723e-06 -2.022e-06 2.0235e-06)
(0 0 0)
(3.821e-08 -1.5324e-10 6.4216e-07)
(5.7076e-07 -2.8489e-10 9.2673e-07)
(1.3656e-06 -4.6184e-10 1.3038e-06)
(2.5397e-06 -7.1978e-10 1.8237e-06)
(4.1796e-06 -1.1152e-09 2.5845e-06)
(6.2245e-06 -1.7033e-09 3.6961e-06)
(8.3579e-06 -2.4808e-09 5.1778e-06)
(1.0015e-05 -3.3229e-09 6.8235e-06)
(1.0573e-05 -4.011e-09 8.1282e-06)
(9.6486e-06 -5.0399e-09 8.3858e-06)
(7.2879e-06 -5.0746e-09 7.0301e-06)
(3.894e-06 -2.7903e-09 4.0238e-06)
(0 0 0)
(1.5656e-08 3.127e-07 9.3353e-07)
(5.3774e-07 4.5161e-07 1.3487e-06)
(1.318e-06 6.3472e-07 1.896e-06)
(2.4813e-06 8.8611e-07 2.6478e-06)
(4.1292e-06 1.2549e-06 3.7513e-06)
(6.2144e-06 1.7979e-06 5.3775e-06)
(8.4196e-06 2.529e-06 7.5677e-06)
(1.0156e-05 3.3499e-06 1.0027e-05)
(1.0762e-05 4.0107e-06 1.2007e-05)
(9.8321e-06 4.1569e-06 1.2446e-05)
(7.4207e-06 3.497e-06 1.047e-05)
(3.959e-06 2.005e-06 6.0015e-06)
(0 0 0)
(-2.0081e-08 5.99e-07 1.1921e-06)
(4.8502e-07 8.6713e-07 1.7261e-06)
(1.2406e-06 1.2175e-06 2.4237e-06)
(2.3844e-06 1.695e-06 3.3752e-06)
(4.0432e-06 2.3985e-06 4.7783e-06)
(6.1938e-06 3.4491e-06 6.8759e-06)
(8.5188e-06 4.8881e-06 9.7514e-06)
(1.0388e-05 6.5334e-06 1.304e-05)
(1.1076e-05 7.8906e-06 1.5753e-05)
(1.0135e-05 8.2406e-06 1.6453e-05)
(7.6384e-06 6.9707e-06 1.3915e-05)
(4.065e-06 4.0076e-06 7.9979e-06)
(0 0 0)
(-8.8046e-08 9.0824e-07 1.5194e-06)
(3.8342e-07 1.322e-06 2.2116e-06)
(1.0862e-06 1.8523e-06 3.0983e-06)
(2.184e-06 2.5622e-06 4.286e-06)
(3.8574e-06 3.6154e-06 6.0516e-06)
(6.1377e-06 5.2341e-06 8.772e-06)
(8.7123e-06 7.5303e-06 1.2638e-05)
(1.0865e-05 1.0252e-05 1.7225e-05)
(1.1725e-05 1.2602e-05 2.1188e-05)
(1.0758e-05 1.3359e-05 2.2462e-05)
(8.078e-06 1.1423e-05 1.9202e-05)
(4.2763e-06 6.6063e-06 1.1102e-05)
(0 0 0)
(-8.0926e-08 -1.2274e-06 -1.2281e-06)
(3.9428e-07 -1.7857e-06 -1.7863e-06)
(1.103e-06 -2.5026e-06 -2.503e-06)
(2.2062e-06 -3.4642e-06 -3.4645e-06)
(3.8785e-06 -4.8905e-06 -4.8906e-06)
(6.1454e-06 -7.0776e-06 -7.0774e-06)
(8.6936e-06 -1.0171e-05 -1.0171e-05)
(1.0816e-05 -1.3827e-05 -1.3827e-05)
(1.1658e-05 -1.6973e-05 -1.6972e-05)
(1.0692e-05 -1.7968e-05 -1.7967e-05)
(8.0309e-06 -1.5347e-05 -1.5346e-05)
(4.2535e-06 -8.8698e-06 -8.8694e-06)
(0 0 0)
(-1.305e-08 -9.0317e-07 -9.0393e-07)
(4.9545e-07 -1.3069e-06 -1.3076e-06)
(1.256e-06 -1.8354e-06 -1.8359e-06)
(2.4038e-06 -2.5569e-06 -2.5572e-06)
(4.0606e-06 -3.6194e-06 -3.6193e-06)
(6.1985e-06 -5.2024e-06 -5.2021e-06)
(8.5001e-06 -7.3645e-06 -7.3639e-06)
(1.0343e-05 -9.8287e-06 -9.8279e-06)
(1.1015e-05 -1.1853e-05 -1.1852e-05)
(1.0076e-05 -1.2362e-05 -1.2361e-05)
(7.5956e-06 -1.0446e-05 -1.0445e-05)
(4.044e-06 -6.0015e-06 -6.0009e-06)
(0 0 0)
(2.3088e-08 -6.2988e-07 -6.3065e-07)
(5.4864e-07 -9.0943e-07 -9.1006e-07)
(1.3338e-06 -1.2785e-06 -1.279e-06)
(2.5007e-06 -1.7861e-06 -1.7863e-06)
(4.1461e-06 -2.5302e-06 -2.53e-06)
(6.2181e-06 -3.6234e-06 -3.6229e-06)
(8.3996e-06 -5.0906e-06 -5.0897e-06)
(1.011e-05 -6.7324e-06 -6.7312e-06)
(1.07e-05 -8.0475e-06 -8.0461e-06)
(9.7719e-06 -8.3295e-06 -8.3279e-06)
(7.3769e-06 -6.9999e-06 -6.9984e-06)
(3.9373e-06 -4.0107e-06 -4.0098e-06)
(0 0 0)
(4.593e-08 -3.2546e-07 -3.262e-07)
(5.8201e-07 -4.6937e-07 -4.6995e-07)
(1.3817e-06 -6.6034e-07 -6.607e-07)
(2.5592e-06 -9.2391e-07 -9.2397e-07)
(4.1963e-06 -1.3093e-06 -1.3089e-06)
(6.2275e-06 -1.8708e-06 -1.87e-06)
(8.3371e-06 -2.6167e-06 -2.6154e-06)
(9.9681e-06 -3.4423e-06 -3.4406e-06)
(1.051e-05 -4.0935e-06 -4.0915e-06)
(9.5873e-06 -4.2162e-06 -4.2137e-06)
(7.2433e-06 -3.53e-06 -3.5276e-06)
(3.872e-06 -2.0196e-06 -2.0182e-06)
(0 0 0)
(5.3763e-08 1.9616e-10 -5.1125e-10)
(5.9341e-07 2.1946e-10 -3.2361e-10)
(1.398e-06 2.5115e-10 -4.2215e-11)
(2.5788e-06 2.8362e-10 3.3516e-10)
(4.2128e-06 3.0928e-10 8.0767e-10)
(6.2303e-06 3.2089e-10 1.3608e-09)
(8.3158e-06 3.1373e-10 1.9457e-09)
(9.9205e-06 2.8748e-10 2.4685e-09)
(1.0446e-05 2.455e-10 2.8659e-09)
(9.5251e-06 1.9245e-10 3.9113e-09)
(7.1983e-06 1.3207e-10 4.212e-09)
(3.8502e-06 6.6968e-11 2.2695e-09)
(0 0 0)
(4.5921e-08 3.2592e-07 3.2516e-07)
(5.8201e-07 4.6991e-07 4.6929e-07)
(1.3817e-06 6.61e-07 6.606e-07)
(2.5592e-06 9.2472e-07 9.2463e-07)
(4.1963e-06 1.3102e-06 1.3105e-06)
(6.2275e-06 1.8719e-06 1.8727e-06)
(8.337e-06 2.6181e-06 2.6193e-06)
(9.9681e-06 3.4438e-06 3.4455e-06)
(1.051e-05 4.0951e-06 4.0971e-06)
(9.5872e-06 4.2179e-06 4.2204e-06)
(7.2433e-06 3.5317e-06 3.5341e-06)
(3.8722e-06 2.0206e-06 2.0219e-06)
(0 0 0)
(2.3071e-08 6.3051e-07 6.293e-07)
(5.4863e-07 9.1026e-07 9.0897e-07)
(1.3338e-06 1.2797e-06 1.2783e-06)
(2.5007e-06 1.7876e-06 1.7861e-06)
(4.1461e-06 2.5322e-06 2.5305e-06)
(6.218e-06 3.626e-06 3.624e-06)
(8.3995e-06 5.094e-06 5.0915e-06)
(1.011e-05 6.7365e-06 6.7333e-06)
(1.07e-05 8.0522e-06 8.0483e-06)
(9.7716e-06 8.3339e-06 8.3294e-06)
(7.3768e-06 7.0034e-06 6.9992e-06)
(3.9375e-06 4.0128e-06 4.0105e-06)
(0 0 0)
(-1.3066e-08 9.0367e-07 9.0224e-07)
(4.9544e-07 1.3077e-06 1.306e-06)
(1.256e-06 1.8364e-06 1.8346e-06)
(2.4038e-06 2.5584e-06 2.5562e-06)
(4.0607e-06 3.6213e-06 3.6187e-06)
(6.1985e-06 5.2051e-06 5.2017e-06)
(8.5e-06 7.368e-06 7.3634e-06)
(1.0343e-05 9.8329e-06 9.827e-06)
(1.1015e-05 1.1857e-05 1.185e-05)
(1.0076e-05 1.2366e-05 1.2359e-05)
(7.5953e-06 1.0449e-05 1.0443e-05)
(4.0439e-06 6.003e-06 5.9996e-06)
(0 0 0)
(-8.0954e-08 1.2274e-06 1.2263e-06)
(3.9426e-07 1.7858e-06 1.7847e-06)
(1.103e-06 2.5029e-06 2.5017e-06)
(2.2062e-06 3.4649e-06 3.4635e-06)
(3.8785e-06 4.8914e-06 4.8899e-06)
(6.1453e-06 7.0788e-06 7.077e-06)
(8.6935e-06 1.0173e-05 1.0171e-05)
(1.0816e-05 1.3829e-05 1.3826e-05)
(1.1658e-05 1.6974e-05 1.6971e-05)
(1.0692e-05 1.7969e-05 1.7966e-05)
(8.0307e-06 1.5347e-05 1.5345e-05)
(4.2534e-06 8.8701e-06 8.8687e-06)
(0 0 0)
(-8.801e-08 -9.0818e-07 -1.5214e-06)
(3.8344e-07 -1.3218e-06 -2.2135e-06)
(1.0862e-06 -1.8519e-06 -3.0998e-06)
(2.184e-06 -2.5616e-06 -4.287e-06)
(3.8574e-06 -3.6147e-06 -6.0522e-06)
(6.1378e-06 -5.2331e-06 -8.7722e-06)
(8.7124e-06 -7.5291e-06 -1.2638e-05)
(1.0865e-05 -1.025e-05 -1.7225e-05)
(1.1726e-05 -1.2601e-05 -2.1188e-05)
(1.0758e-05 -1.3358e-05 -2.2462e-05)
(8.0781e-06 -1.1422e-05 -1.9202e-05)
(4.2763e-06 -6.6059e-06 -1.1102e-05)
(0 0 0)
(-2.0062e-08 -5.9863e-07 -1.1939e-06)
(4.8503e-07 -8.6663e-07 -1.7277e-06)
(1.2406e-06 -1.2168e-06 -2.425e-06)
(2.3844e-06 -1.6941e-06 -3.376e-06)
(4.0432e-06 -2.3973e-06 -4.7786e-06)
(6.1938e-06 -3.4476e-06 -6.8759e-06)
(8.5189e-06 -4.8862e-06 -9.7511e-06)
(1.0388e-05 -6.5312e-06 -1.304e-05)
(1.1076e-05 -7.8884e-06 -1.5753e-05)
(1.0136e-05 -8.2387e-06 -1.6453e-05)
(7.6385e-06 -6.9693e-06 -1.3916e-05)
(4.0651e-06 -4.0068e-06 -7.9983e-06)
(0 0 0)
(1.5667e-08 -3.1225e-07 -9.3508e-07)
(5.3774e-07 -4.5105e-07 -1.35e-06)
(1.318e-06 -6.3402e-07 -1.8969e-06)
(2.4813e-06 -8.8523e-07 -2.6482e-06)
(4.1292e-06 -1.2538e-06 -3.7511e-06)
(6.2144e-06 -1.7966e-06 -5.3767e-06)
(8.4196e-06 -2.5274e-06 -7.5664e-06)
(1.0156e-05 -3.3481e-06 -1.0026e-05)
(1.0762e-05 -4.0087e-06 -1.2005e-05)
(9.8323e-06 -4.1549e-06 -1.2445e-05)
(7.4208e-06 -3.4951e-06 -1.047e-05)
(3.959e-06 -2.004e-06 -6.0014e-06)
(0 0 0)
(3.821e-08 5.5343e-10 -6.4343e-07)
(5.7075e-07 7.2882e-10 -9.277e-07)
(1.3656e-06 9.6571e-10 -1.3043e-06)
(2.5397e-06 1.2856e-09 -1.8236e-06)
(4.1796e-06 1.7302e-09 -2.5836e-06)
(6.2245e-06 2.3404e-09 -3.6944e-06)
(8.358e-06 3.1027e-09 -5.1753e-06)
(1.0015e-05 3.8917e-09 -6.8203e-06)
(1.0573e-05 4.4957e-09 -8.1246e-06)
(9.6488e-06 5.4189e-09 -8.3829e-06)
(7.288e-06 5.3343e-09 -7.0281e-06)
(3.894e-06 2.9223e-09 -4.0225e-06)
(0 0 0)
(4.5922e-08 3.2604e-07 -3.2638e-07)
(5.82e-07 4.7007e-07 -4.7021e-07)
(1.3817e-06 6.6122e-07 -6.6106e-07)
(2.5592e-06 9.2502e-07 -9.2448e-07)
(4.1963e-06 1.3106e-06 -1.3097e-06)
(6.2275e-06 1.8725e-06 -1.871e-06)
(8.337e-06 2.6188e-06 -2.6168e-06)
(9.9681e-06 3.4447e-06 -3.4424e-06)
(1.051e-05 4.0961e-06 -4.0935e-06)
(9.5872e-06 4.2193e-06 -4.2164e-06)
(7.2433e-06 3.5331e-06 -3.5305e-06)
(3.8721e-06 2.0213e-06 -2.0198e-06)
(0 0 0)
(3.8201e-08 6.4301e-07 -3.9094e-10)
(5.7075e-07 9.2747e-07 -1.6366e-10)
(1.3656e-06 1.3044e-06 1.6792e-10)
(2.5397e-06 1.824e-06 6.149e-10)
(4.1796e-06 2.5844e-06 1.1984e-09)
(6.2245e-06 3.6957e-06 1.9335e-09)
(8.358e-06 5.1769e-06 2.7848e-09)
(1.0015e-05 6.8223e-06 3.6186e-09)
(1.0573e-05 8.1267e-06 4.2149e-09)
(9.6487e-06 8.3846e-06 4.6641e-09)
(7.288e-06 7.0293e-06 4.2687e-09)
(3.894e-06 4.0232e-06 2.4036e-09)
(0 0 0)
(1.5666e-08 9.3482e-07 3.1237e-07)
(5.3775e-07 1.3501e-06 4.5156e-07)
(1.318e-06 1.8974e-06 6.3509e-07)
(2.4813e-06 2.6493e-06 8.8706e-07)
(4.1292e-06 3.753e-06 1.2566e-06)
(6.2144e-06 5.3794e-06 1.8007e-06)
(8.4195e-06 7.5701e-06 2.5332e-06)
(1.0156e-05 1.003e-05 3.3553e-06)
(1.0762e-05 1.201e-05 4.017e-06)
(9.8319e-06 1.2449e-05 4.1636e-06)
(7.4206e-06 1.0473e-05 3.5029e-06)
(3.959e-06 6.0032e-06 2.0084e-06)
(0 0 0)
(-2.0039e-08 1.1935e-06 5.9801e-07)
(4.8508e-07 1.7276e-06 8.661e-07)
(1.2407e-06 2.4253e-06 1.2164e-06)
(2.3845e-06 3.377e-06 1.694e-06)
(4.0433e-06 4.7803e-06 2.3974e-06)
(6.1938e-06 6.8784e-06 3.4478e-06)
(8.5187e-06 9.7544e-06 4.8864e-06)
(1.0388e-05 1.3044e-05 6.5311e-06)
(1.1076e-05 1.5757e-05 7.8877e-06)
(1.0135e-05 1.6456e-05 8.2373e-06)
(7.6381e-06 1.3917e-05 6.9676e-06)
(4.0649e-06 7.9991e-06 4.0059e-06)
(0 0 0)
(-8.8004e-08 1.5204e-06 9.0721e-07)
(3.8348e-07 2.2128e-06 1.3209e-06)
(1.0863e-06 3.0994e-06 1.851e-06)
(2.1841e-06 4.2871e-06 2.5608e-06)
(3.8575e-06 6.0527e-06 3.6139e-06)
(6.1378e-06 8.773e-06 5.2321e-06)
(8.7122e-06 1.2639e-05 7.5276e-06)
(1.0865e-05 1.7226e-05 1.0248e-05)
(1.1725e-05 2.1188e-05 1.2598e-05)
(1.0757e-05 2.2462e-05 1.3355e-05)
(8.0777e-06 1.9202e-05 1.1419e-05)
(4.2762e-06 1.1102e-05 6.6041e-06)
(0 0 0)
(-1.0818e-07 -5.7746e-07 -1.7757e-06)
(3.5261e-07 -8.4103e-07 -2.588e-06)
(1.0379e-06 -1.1764e-06 -3.6208e-06)
(2.119e-06 -1.6234e-06 -4.9959e-06)
(3.7941e-06 -2.2895e-06 -7.0466e-06)
(6.113e-06 -3.3239e-06 -1.0241e-05)
(8.7655e-06 -4.8064e-06 -1.4838e-05)
(1.1009e-05 -6.5798e-06 -2.0355e-05)
(1.1925e-05 -8.1293e-06 -2.5188e-05)
(1.0951e-05 -8.6521e-06 -2.6829e-05)
(8.2148e-06 -7.4185e-06 -2.3009e-05)
(4.3415e-06 -4.2971e-06 -1.3326e-05)
(0 0 0)
(-4.0427e-08 -2.9278e-07 -1.4577e-06)
(4.5468e-07 -4.2434e-07 -2.1122e-06)
(1.1953e-06 -5.9528e-07 -2.9626e-06)
(2.3267e-06 -8.2731e-07 -4.1174e-06)
(3.9907e-06 -1.1702e-06 -5.8257e-06)
(6.1786e-06 -1.6866e-06 -8.4028e-06)
(8.5736e-06 -2.401e-06 -1.1973e-05)
(1.0522e-05 -3.2259e-06 -1.61e-05)
(1.1258e-05 -3.9156e-06 -1.9551e-05)
(1.0312e-05 -4.1066e-06 -2.0505e-05)
(7.7654e-06 -3.4844e-06 -1.7394e-05)
(4.1269e-06 -2.0068e-06 -1.0013e-05)
(0 0 0)
(-5.9935e-09 9.6087e-10 -1.2135e-06)
(5.0582e-07 1.3041e-09 -1.7542e-06)
(1.2714e-06 1.7656e-09 -2.4632e-06)
(2.4233e-06 2.4014e-09 -3.4334e-06)
(4.0781e-06 3.3179e-09 -4.862e-06)
(6.2023e-06 4.6242e-09 -6.9859e-06)
(8.4785e-06 6.304e-09 -9.8768e-06)
(1.0293e-05 8.0671e-09 -1.3159e-05)
(1.0948e-05 9.3265e-09 -1.5839e-05)
(1.0013e-05 9.8089e-09 -1.6491e-05)
(7.551e-06 8.5019e-09 -1.3917e-05)
(4.0229e-06 4.7627e-09 -7.99e-06)
(0 0 0)
(1.568e-08 3.1335e-07 -9.3541e-07)
(5.3777e-07 4.525e-07 -1.3505e-06)
(1.3181e-06 6.3593e-07 -1.8976e-06)
(2.4814e-06 8.8778e-07 -2.6492e-06)
(4.1292e-06 1.2572e-06 -3.7525e-06)
(6.2144e-06 1.8012e-06 -5.3787e-06)
(8.4195e-06 2.5335e-06 -7.5691e-06)
(1.0156e-05 3.3556e-06 -1.0029e-05)
(1.0762e-05 4.0173e-06 -1.2009e-05)
(9.832e-06 4.1641e-06 -1.2448e-05)
(7.4206e-06 3.5034e-06 -1.0472e-05)
(3.959e-06 2.0086e-06 -6.0028e-06)
(0 0 0)
(2.3077e-08 6.3032e-07 -6.3107e-07)
(5.4863e-07 9.0992e-07 -9.1068e-07)
(1.3338e-06 1.2791e-06 -1.2799e-06)
(2.5007e-06 1.7868e-06 -1.7875e-06)
(4.1461e-06 2.531e-06 -2.5318e-06)
(6.218e-06 3.6242e-06 -3.6254e-06)
(8.3996e-06 5.0914e-06 -5.0932e-06)
(1.011e-05 6.7331e-06 -6.7356e-06)
(1.07e-05 8.048e-06 -8.0513e-06)
(9.7717e-06 8.3292e-06 -8.3332e-06)
(7.3768e-06 6.9991e-06 -7.0029e-06)
(3.9375e-06 4.0104e-06 -4.0126e-06)
(0 0 0)
(1.5652e-08 9.3458e-07 -3.1324e-07)
(5.3773e-07 1.3497e-06 -4.5205e-07)
(1.318e-06 1.8969e-06 -6.3501e-07)
(2.4813e-06 2.6484e-06 -8.8621e-07)
(4.1292e-06 3.7517e-06 -1.2548e-06)
(6.2144e-06 5.3776e-06 -1.7977e-06)
(8.4196e-06 7.5675e-06 -2.5287e-06)
(1.0156e-05 1.0027e-05 -3.3496e-06)
(1.0762e-05 1.2006e-05 -4.0104e-06)
(9.8322e-06 1.2445e-05 -4.1569e-06)
(7.4208e-06 1.0469e-05 -3.4972e-06)
(3.959e-06 6.0014e-06 -2.0051e-06)
(0 0 0)
(-6.0138e-09 1.2128e-06 2.1686e-11)
(5.058e-07 1.7537e-06 3.8831e-10)
(1.2714e-06 2.463e-06 9.0213e-10)
(2.4233e-06 3.4335e-06 1.6043e-09)
(4.0781e-06 4.8624e-06 2.5779e-09)
(6.2023e-06 6.9866e-06 3.911e-09)
(8.4784e-06 9.8777e-06 5.5789e-09)
(1.0293e-05 1.316e-05 7.3046e-09)
(1.0948e-05 1.584e-05 8.5233e-09)
(1.0012e-05 1.6491e-05 8.8816e-09)
(7.551e-06 1.3917e-05 7.601e-09)
(4.0228e-06 7.9901e-06 4.2672e-09)
(0 0 0)
(-4.0408e-08 1.4569e-06 2.9329e-07)
(4.5472e-07 2.1117e-06 4.2536e-07)
(1.1954e-06 2.9624e-06 5.97e-07)
(2.3268e-06 4.1177e-06 8.3001e-07)
(3.9908e-06 5.8264e-06 1.1742e-06)
(6.1786e-06 8.4039e-06 1.6926e-06)
(8.5735e-06 1.1974e-05 2.4092e-06)
(1.0522e-05 1.6102e-05 3.2364e-06)
(1.1258e-05 1.9552e-05 3.9275e-06)
(1.0312e-05 2.0505e-05 4.1184e-06)
(7.765e-06 1.7393e-05 3.494e-06)
(4.1267e-06 1.0013e-05 2.0122e-06)
(0 0 0)
(-1.0817e-07 1.7746e-06 5.771e-07)
(3.5265e-07 2.5871e-06 8.4084e-07)
(1.0379e-06 3.6202e-06 1.1765e-06)
(2.1191e-06 4.9957e-06 1.6238e-06)
(3.7942e-06 7.0468e-06 2.2904e-06)
(6.113e-06 1.0242e-05 3.3252e-06)
(8.7653e-06 1.4838e-05 4.8081e-06)
(1.1008e-05 2.0356e-05 6.5817e-06)
(1.1925e-05 2.5187e-05 8.1311e-06)
(1.0951e-05 2.6828e-05 8.6536e-06)
(8.2144e-06 2.3007e-05 7.4195e-06)
(4.3413e-06 1.3325e-05 4.2977e-06)
(0 0 0)
(-1.3867e-07 -2.5058e-07 -1.9815e-06)
(3.0592e-07 -3.6543e-07 -2.8988e-06)
(9.6255e-07 -5.0963e-07 -4.0523e-06)
(2.0147e-06 -7.001e-07 -5.5687e-06)
(3.6888e-06 -9.865e-07 -7.8353e-06)
(6.0667e-06 -1.4399e-06 -1.1424e-05)
(8.8458e-06 -2.1022e-06 -1.6692e-05)
(1.124e-05 -2.9074e-06 -2.3138e-05)
(1.225e-05 -3.6245e-06 -2.8916e-05)
(1.1262e-05 -3.8847e-06 -3.1051e-05)
(8.4298e-06 -3.3467e-06 -2.6781e-05)
(4.4416e-06 -1.9432e-06 -1.5557e-05)
(0 0 0)
(-7.2466e-08 9.5659e-10 -1.6864e-06)
(4.0661e-07 1.2823e-09 -2.4498e-06)
(1.1222e-06 1.7165e-09 -3.4324e-06)
(2.2316e-06 2.3167e-09 -4.7557e-06)
(3.9018e-06 3.1995e-09 -6.7209e-06)
(6.1498e-06 4.4922e-09 -9.7289e-06)
(8.6611e-06 6.1889e-09 -1.3969e-05)
(1.0742e-05 7.9775e-09 -1.8957e-05)
(1.156e-05 9.1769e-09 -2.322e-05)
(1.0603e-05 9.0755e-09 -2.4527e-05)
(7.9719e-06 7.3901e-09 -2.091e-05)
(4.2263e-06 4.2149e-09 -1.2069e-05)
(0 0 0)
(-4.0381e-08 2.9423e-07 -1.4577e-06)
(4.5475e-07 4.2626e-07 -2.1123e-06)
(1.1954e-06 5.9783e-07 -2.9628e-06)
(2.3268e-06 8.3073e-07 -4.1177e-06)
(3.9908e-06 1.1749e-06 -5.8261e-06)
(6.1786e-06 1.6931e-06 -8.4033e-06)
(8.5735e-06 2.4096e-06 -1.1974e-05)
(1.0522e-05 3.2368e-06 -1.6101e-05)
(1.1258e-05 3.9279e-06 -1.9551e-05)
(1.0312e-05 4.1188e-06 -2.0504e-05)
(7.765e-06 3.4944e-06 -1.7393e-05)
(4.1267e-06 2.0124e-06 -1.0013e-05)
(0 0 0)
(-2.002e-08 5.9906e-07 -1.1942e-06)
(4.851e-07 8.671e-07 -1.7281e-06)
(1.2407e-06 1.2173e-06 -2.4257e-06)
(2.3845e-06 1.6947e-06 -3.377e-06)
(4.0433e-06 2.398e-06 -4.78e-06)
(6.1938e-06 3.4483e-06 -6.8778e-06)
(8.5187e-06 4.8867e-06 -9.7536e-06)
(1.0388e-05 6.5313e-06 -1.3043e-05)
(1.1076e-05 7.8879e-06 -1.5756e-05)