/*--------------------------------*- C++ -*----------------------------------*\
| =========                 |                                                 |
| \\      /  F ield         | OpenFOAM: The Open Source CFD Toolbox           |
|  \\    /   O peration     | Version:  4.1                                   |
|   \\  /    A nd           | Web:      www.OpenFOAM.org                      |
|    \\/     M anipulation  |                                                 |
\*---------------------------------------------------------------------------*/
FoamFile
{
    version     2.0;
    format      ascii;
    class       volVectorField;
    location    "0.0066";
    object      wallShearStress;
}
// * * * * * * * * * * * * * * * * * * * * * * * * * * * * * * * * * * * * * //

dimensions      [0 2 -2 0 0 0 0];

internalField   uniform (0 0 0);

boundaryField
{
    inlet
    {
        type            calculated;
        value           nonuniform 0();
    }
    outlet
    {
        type            calculated;
        value           nonuniform 0();
    }
    mantle
    {
        type            calculated;
        value           nonuniform List<vector> 
384
(
(-0.00074709 1.7706e-05 -2.0662e-06)
(-0.00066935 1.1979e-05 -5.1003e-06)
(-0.00062331 8.5795e-06 -6.0733e-06)
(-0.00060112 7.9454e-06 -6.017e-06)
(-0.00060112 6.0071e-06 -7.9516e-06)
(-0.0006233 6.0758e-06 -8.5756e-06)
(-0.00066934 5.1018e-06 -1.212e-05)
(-0.0007471 2.0308e-06 -1.7865e-05)
(-0.00072555 -2.3794e-05 -9.3683e-07)
(-0.00065137 -2.6266e-05 5.7987e-06)
(-0.00060679 -2.5734e-05 1.166e-05)
(-0.0005853 -2.1755e-05 1.8333e-05)
(-0.00058531 -1.8332e-05 2.1744e-05)
(-0.00060679 -1.1664e-05 2.5719e-05)
(-0.00065137 -5.8142e-06 2.6267e-05)
(-0.00072555 9.1085e-07 2.3799e-05)
(-0.00069011 -5.3233e-05 -1.813e-08)
(-0.00062058 -5.3242e-05 1.3671e-05)
(-0.00057837 -4.9675e-05 2.3939e-05)
(-0.00055814 -4.2335e-05 3.4992e-05)
(-0.00055813 -3.4968e-05 4.2333e-05)
(-0.00057837 -2.392e-05 4.9656e-05)
(-0.00062057 -1.3676e-05 5.324e-05)
(-0.0006901 -3.4724e-09 5.3237e-05)
(-0.00064916 -7.5265e-05 1.0908e-06)
(-0.0005843 -7.3343e-05 2.0029e-05)
(-0.00054471 -6.7233e-05 3.3164e-05)
(-0.00052592 -5.7187e-05 4.6978e-05)
(-0.00052591 -4.6972e-05 5.7179e-05)
(-0.00054471 -3.3131e-05 6.7228e-05)
(-0.00058429 -2.0025e-05 7.3328e-05)
(-0.00064914 -1.1156e-06 7.5233e-05)
(-0.00060407 -9.6413e-05 2.3372e-06)
(-0.00054426 -9.2003e-05 2.5912e-05)
(-0.00050748 -8.3276e-05 4.1801e-05)
(-0.00049017 -7.0992e-05 5.8248e-05)
(-0.00049017 -5.8249e-05 7.0988e-05)
(-0.00050748 -4.1771e-05 8.3264e-05)
(-0.00054425 -2.59e-05 9.1959e-05)
(-0.00060406 -2.3581e-06 9.6364e-05)
(-0.00055339 -0.00011754 3.5968e-06)
(-0.00049919 -0.00011018 3.1395e-05)
(-0.00046563 -9.876e-05 5.0232e-05)
(-0.00044987 -8.4579e-05 6.9446e-05)
(-0.00044987 -6.9424e-05 8.4585e-05)
(-0.00046563 -5.021e-05 9.8736e-05)
(-0.00049919 -3.1385e-05 0.00011015)
(-0.00055341 -3.6049e-06 0.00011752)
(-0.00049701 -0.00013373 4.6708e-06)
(-0.00044898 -0.00012418 3.5642e-05)
(-0.00041903 -0.00011062 5.6733e-05)
(-0.00040495 -9.4839e-05 7.7922e-05)
(-0.00040494 -7.7911e-05 9.4835e-05)
(-0.00041903 -5.6722e-05 0.0001106)
(-0.00044899 -3.5634e-05 0.00012415)
(-0.00049703 -4.6751e-06 0.00013373)
(-0.00043766 -0.00014127 5.3216e-06)
(-0.00039608 -0.00013074 3.7757e-05)
(-0.00036997 -0.00011606 5.9822e-05)
(-0.00035762 -9.9385e-05 8.1636e-05)
(-0.00035763 -8.1654e-05 9.9393e-05)
(-0.00036997 -5.9825e-05 0.00011606)
(-0.0003961 -3.7751e-05 0.00013072)
(-0.00043768 -5.3152e-06 0.00014126)
(-0.00037986 -0.00013992 5.4017e-06)
(-0.00034444 -0.00012931 3.7471e-05)
(-0.00032201 -0.00011461 5.9227e-05)
(-0.00031143 -9.8076e-05 8.0534e-05)
(-0.00031143 -8.0553e-05 9.8082e-05)
(-0.00032201 -5.9233e-05 0.00011462)
(-0.00034446 -3.7468e-05 0.00012932)
(-0.00037987 -5.4083e-06 0.00013992)
(-0.00032733 -0.00013164 5.0303e-06)
(-0.00029736 -0.00012155 3.521e-05)
(-0.00027826 -0.00010767 5.5669e-05)
(-0.00026929 -9.219e-05 7.5671e-05)
(-0.0002693 -7.5673e-05 9.2172e-05)
(-0.00027824 -5.5648e-05 0.00010766)
(-0.00029736 -3.5209e-05 0.00012155)
(-0.00032735 -5.0326e-06 0.00013162)
(-0.00028202 -0.00011947 4.4191e-06)
(-0.00025662 -0.00011023 3.1878e-05)
(-0.00024031 -9.7634e-05 5.0441e-05)
(-0.00023269 -8.3707e-05 6.867e-05)
(-0.00023269 -6.8666e-05 8.3697e-05)
(-0.00024031 -5.0442e-05 9.7632e-05)
(-0.00025662 -3.1872e-05 0.00011026)
(-0.00028204 -4.4227e-06 0.00011946)
(-0.00024421 -0.00010663 3.851e-06)
(-0.00022249 -9.8284e-05 2.8384e-05)
(-0.00020843 -8.704e-05 4.496e-05)
(-0.00020185 -7.4748e-05 6.1298e-05)
(-0.00020185 -6.1299e-05 7.4747e-05)
(-0.00020844 -4.4971e-05 8.7053e-05)
(-0.0002225 -2.8398e-05 9.8311e-05)
(-0.00024421 -3.8549e-06 0.00010664)
(-0.0007471 -2.0208e-06 -1.7863e-05)
(-0.00066935 -5.1063e-06 -1.2117e-05)
(-0.00062331 -6.0767e-06 -8.5625e-06)
(-0.00060112 -5.9898e-06 -7.9402e-06)
(-0.00060112 -7.9231e-06 -6.0215e-06)
(-0.00062331 -8.5546e-06 -6.0993e-06)
(-0.00066935 -1.212e-05 -5.1283e-06)
(-0.00074713 -1.7855e-05 -2.0659e-06)
(-0.00072556 -9.1287e-07 2.3802e-05)
(-0.00065137 5.7962e-06 2.6268e-05)
(-0.00060679 1.1662e-05 2.5735e-05)
(-0.00058532 1.836e-05 2.177e-05)
(-0.00058532 2.1759e-05 1.833e-05)
(-0.00060679 2.5734e-05 1.1639e-05)
(-0.00065139 2.63e-05 5.7766e-06)
(-0.00072557 2.3819e-05 -9.3618e-07)
(-0.0006901 -8.1914e-10 5.3241e-05)
(-0.00062057 1.3676e-05 5.3243e-05)
(-0.00057837 2.3948e-05 4.9677e-05)
(-0.00055814 3.5013e-05 4.2352e-05)
(-0.00055814 4.2347e-05 3.4992e-05)
(-0.00057838 4.9675e-05 2.3941e-05)
(-0.0006206 5.3271e-05 1.3681e-05)
(-0.00069012 5.3271e-05 -1.071e-08)
(-0.00064914 1.1081e-06 7.5254e-05)
(-0.0005843 2.0027e-05 7.3344e-05)
(-0.00054469 3.315e-05 6.7232e-05)
(-0.0005259 4.6991e-05 5.7196e-05)
(-0.0005259 5.7201e-05 4.6988e-05)
(-0.0005447 6.7229e-05 3.3158e-05)
(-0.00058431 7.3356e-05 2.0021e-05)
(-0.00064918 7.5296e-05 1.1021e-06)
(-0.00060407 2.3464e-06 9.6385e-05)
(-0.00054426 2.5897e-05 9.1972e-05)
(-0.00050745 4.1767e-05 8.3264e-05)
(-0.00049015 5.8247e-05 7.1e-05)
(-0.00049014 7.1003e-05 5.8261e-05)
(-0.00050745 8.3284e-05 4.1783e-05)
(-0.00054427 9.2009e-05 2.59e-05)
(-0.00060408 9.6441e-05 2.3433e-06)
(-0.00055342 3.6023e-06 0.00011753)
(-0.0004992 3.1368e-05 0.00011016)
(-0.00046561 5.0191e-05 9.8766e-05)
(-0.00044985 6.9442e-05 8.4579e-05)
(-0.00044985 8.4591e-05 6.9433e-05)
(-0.00046561 9.8783e-05 5.0195e-05)
(-0.00049918 0.00011019 3.1378e-05)
(-0.0005534 0.00011755 3.616e-06)
(-0.00049702 4.6696e-06 0.00013372)
(-0.00044897 3.5616e-05 0.00012417)
(-0.00041903 5.6723e-05 0.00011063)
(-0.00040494 7.7908e-05 9.4836e-05)
(-0.00040495 9.4837e-05 7.7896e-05)
(-0.00041903 0.00011063 5.6717e-05)
(-0.00044895 0.00012418 3.5629e-05)
(-0.000497 0.00013371 4.6744e-06)
(-0.00043768 5.3142e-06 0.00014125)
(-0.00039609 3.7752e-05 0.00013071)
(-0.00036996 5.9829e-05 0.00011606)
(-0.00035762 8.1643e-05 9.9378e-05)
(-0.00035762 9.9388e-05 8.1635e-05)
(-0.00036996 0.00011607 5.9823e-05)
(-0.00039606 0.00013071 3.7757e-05)
(-0.00043765 0.00014123 5.3255e-06)
(-0.00037988 5.4056e-06 0.00013993)
(-0.00034446 3.746e-05 0.00012933)
(-0.00032202 5.9215e-05 0.00011461)
(-0.00031143 8.0534e-05 9.8062e-05)
(-0.00031142 9.8064e-05 8.0521e-05)
(-0.00032199 0.0001146 5.9209e-05)
(-0.00034442 0.0001293 3.746e-05)
(-0.00037984 0.0001399 5.414e-06)
(-0.00032735 5.027e-06 0.00013165)
(-0.00029736 3.5204e-05 0.00012157)
(-0.00027824 5.5643e-05 0.00010765)
(-0.0002693 7.564e-05 9.2154e-05)
(-0.00026928 9.2143e-05 7.5638e-05)
(-0.00027824 0.00010764 5.5639e-05)
(-0.00029735 0.00012155 3.52e-05)
(-0.00032732 0.00013162 5.031e-06)
(-0.00028204 4.4218e-06 0.00011948)
(-0.00025661 3.187e-05 0.00011027)
(-0.00024028 5.0448e-05 9.763e-05)
(-0.00023267 6.8662e-05 8.3679e-05)
(-0.00023266 8.3671e-05 6.8657e-05)
(-0.00024029 9.7622e-05 5.0441e-05)
(-0.0002566 0.00011023 3.188e-05)
(-0.00028203 0.00011946 4.4251e-06)
(-0.00024422 3.8495e-06 0.00010666)
(-0.00022249 2.8382e-05 9.8322e-05)
(-0.00020842 4.4965e-05 8.7035e-05)
(-0.00020183 6.1301e-05 7.4735e-05)
(-0.00020184 7.4739e-05 6.1299e-05)
(-0.0002084 8.7028e-05 4.4957e-05)
(-0.00022248 9.8266e-05 2.8394e-05)
(-0.00024424 0.00010664 3.8459e-06)
(-0.00074713 -1.7859e-05 2.0308e-06)
(-0.00066936 -1.2151e-05 5.1003e-06)
(-0.00062333 -8.602e-06 6.08e-06)
(-0.00060115 -7.9654e-06 6.0032e-06)
(-0.00060114 -6.0387e-06 7.921e-06)
(-0.00062333 -6.0946e-06 8.5356e-06)
(-0.00066938 -5.1419e-06 1.2242e-05)
(-0.00074711 -2.0669e-06 1.8171e-05)
(-0.00072557 2.3802e-05 9.0943e-07)
(-0.00065141 2.6256e-05 -5.8018e-06)
(-0.00060681 2.5706e-05 -1.1674e-05)
(-0.00058535 2.1741e-05 -1.8344e-05)
(-0.00058534 1.8324e-05 -2.1775e-05)
(-0.00060683 1.1642e-05 -2.5759e-05)
(-0.00065143 5.7696e-06 -2.6167e-05)
(-0.00072562 -9.2656e-07 -2.355e-05)
(-0.00069013 5.3255e-05 -3.9154e-09)
(-0.00062062 5.3241e-05 -1.3673e-05)
(-0.00057839 4.9673e-05 -2.3936e-05)
(-0.00055816 4.2356e-05 -3.5e-05)
(-0.00055817 3.5009e-05 -4.2374e-05)
(-0.00057842 2.3935e-05 -4.9703e-05)
(-0.00062063 1.3681e-05 -5.3268e-05)
(-0.00069017 7.4375e-09 -5.3314e-05)
(-0.00064918 7.5281e-05 -1.1144e-06)
(-0.00058432 7.3344e-05 -2.0026e-05)
(-0.00054474 6.7258e-05 -3.3154e-05)
(-0.00052594 5.7225e-05 -4.7004e-05)
(-0.00052594 4.7007e-05 -5.7235e-05)
(-0.00054474 3.3153e-05 -6.7267e-05)
(-0.00058435 2.0022e-05 -7.3351e-05)
(-0.00064919 1.093e-06 -7.5277e-05)
(-0.00060409 9.6427e-05 -2.343e-06)
(-0.00054428 9.2018e-05 -2.5916e-05)
(-0.00050749 8.3313e-05 -4.1802e-05)
(-0.00049017 7.1034e-05 -5.8265e-05)
(-0.00049018 5.8288e-05 -7.1037e-05)
(-0.0005075 4.1802e-05 -8.3321e-05)
(-0.00054429 2.5906e-05 -9.2022e-05)
(-0.00060409 2.3597e-06 -9.6397e-05)
(-0.0005534 0.00011755 -3.6085e-06)
(-0.0004992 0.00011021 -3.1386e-05)
(-0.00046562 9.8805e-05 -5.02e-05)
(-0.00044986 8.4615e-05 -6.9468e-05)
(-0.00044986 6.9468e-05 -8.4627e-05)
(-0.00046563 5.0223e-05 -9.8798e-05)
(-0.0004992 3.1394e-05 -0.00011021)
(-0.00055341 3.6137e-06 -0.00011754)
(-0.00049701 0.00013373 -4.667e-06)
(-0.00044894 0.00012418 -3.5632e-05)
(-0.00041903 0.00011063 -5.6724e-05)
(-0.00040494 9.4862e-05 -7.7927e-05)
(-0.00040493 7.7916e-05 -9.4861e-05)
(-0.00041902 5.6714e-05 -0.00011063)
(-0.00044896 3.5639e-05 -0.00012419)
(-0.00049702 4.6795e-06 -0.00013374)
(-0.00043765 0.00014126 -5.3169e-06)
(-0.00039607 0.00013073 -3.7772e-05)
(-0.00036993 0.00011607 -5.9838e-05)
(-0.0003576 9.9395e-05 -8.1656e-05)
(-0.00035761 8.1653e-05 -9.9399e-05)
(-0.00036995 5.9838e-05 -0.00011607)
(-0.00039608 3.7764e-05 -0.00013077)
(-0.00043765 5.3265e-06 -0.0001413)
(-0.00037984 0.00013992 -5.4085e-06)
(-0.0003444 0.00012932 -3.7479e-05)
(-0.00032197 0.00011461 -5.922e-05)
(-0.0003114 9.8071e-05 -8.0528e-05)
(-0.0003114 8.0539e-05 -9.8089e-05)
(-0.00032201 5.9236e-05 -0.00011463)
(-0.00034443 3.7494e-05 -0.00012935)
(-0.00037985 5.4216e-06 -0.00013997)
(-0.00032732 0.00013162 -5.0252e-06)
(-0.00029733 0.00012154 -3.5194e-05)
(-0.00027823 0.00010764 -5.5625e-05)
(-0.00026928 9.2172e-05 -7.5627e-05)
(-0.00026928 7.566e-05 -9.2166e-05)
(-0.00027822 5.5665e-05 -0.00010766)
(-0.00029735 3.5234e-05 -0.00012157)
(-0.00032733 5.0309e-06 -0.00013169)
(-0.00028202 0.00011946 -4.427e-06)
(-0.0002566 0.00011022 -3.1884e-05)
(-0.00024029 9.7613e-05 -5.0436e-05)
(-0.00023267 8.3686e-05 -6.8647e-05)
(-0.00023266 6.8664e-05 -8.3668e-05)
(-0.00024027 5.0461e-05 -9.7621e-05)
(-0.0002566 3.1892e-05 -0.00011026)
(-0.000282 4.4306e-06 -0.0001195)
(-0.00024422 0.00010664 -3.8512e-06)
(-0.00022247 9.8272e-05 -2.8406e-05)
(-0.0002084 8.7034e-05 -4.4982e-05)
(-0.00020183 7.4744e-05 -6.1284e-05)
(-0.00020184 6.1287e-05 -7.4728e-05)
(-0.00020839 4.4969e-05 -8.7053e-05)
(-0.00022246 2.8395e-05 -9.8329e-05)
(-0.00024419 3.8459e-06 -0.00010665)
(-0.00074711 2.0606e-06 1.8175e-05)
(-0.00066937 5.1477e-06 1.2251e-05)
(-0.00062333 6.1088e-06 8.5683e-06)
(-0.00060113 6.0627e-06 7.9588e-06)
(-0.00060114 7.9943e-06 6.0219e-06)
(-0.00062332 8.6232e-06 6.0771e-06)
(-0.00066936 1.2161e-05 5.1062e-06)
(-0.00074711 1.7875e-05 2.0101e-06)
(-0.00072561 9.3258e-07 -2.3529e-05)
(-0.00065143 -5.7528e-06 -2.6145e-05)
(-0.00060685 -1.1627e-05 -2.5741e-05)
(-0.00058535 -1.8306e-05 -2.1747e-05)
(-0.00058534 -2.1726e-05 -1.8325e-05)
(-0.00060681 -2.5689e-05 -1.1657e-05)
(-0.00065139 -2.6231e-05 -5.8076e-06)
(-0.00072556 -2.3793e-05 8.9723e-07)
(-0.00069017 -2.0847e-09 -5.3297e-05)
(-0.00062064 -1.3665e-05 -5.3247e-05)
(-0.00057843 -2.3928e-05 -4.9671e-05)
(-0.0005582 -3.4977e-05 -4.2334e-05)
(-0.00055817 -4.2322e-05 -3.4975e-05)
(-0.00057839 -4.9645e-05 -2.393e-05)
(-0.00062061 -5.321e-05 -1.3682e-05)
(-0.00069013 -5.322e-05 -1.0274e-08)
(-0.00064919 -1.0894e-06 -7.5275e-05)
(-0.00058434 -2.0019e-05 -7.3332e-05)
(-0.00054476 -3.3158e-05 -6.7234e-05)
(-0.00052596 -4.6991e-05 -5.7207e-05)
(-0.00052595 -5.7189e-05 -4.6982e-05)
(-0.00054473 -6.7231e-05 -3.3147e-05)
(-0.00058432 -7.333e-05 -2.0035e-05)
(-0.00064918 -7.525e-05 -1.1248e-06)
(-0.00060409 -2.3579e-06 -9.6394e-05)
(-0.00054429 -2.5913e-05 -9.1988e-05)
(-0.0005075 -4.18e-05 -8.3277e-05)
(-0.00049019 -5.8259e-05 -7.1008e-05)
(-0.00049019 -7.0999e-05 -5.8253e-05)
(-0.00050749 -8.328e-05 -4.1797e-05)
(-0.00054427 -9.199e-05 -2.5923e-05)
(-0.00060408 -9.6398e-05 -2.3581e-06)
(-0.00055341 -3.6187e-06 -0.00011753)
(-0.00049922 -3.1399e-05 -0.00011019)
(-0.00046564 -5.0221e-05 -9.8768e-05)
(-0.00044988 -6.9446e-05 -8.459e-05)
(-0.00044988 -8.4599e-05 -6.9437e-05)
(-0.00046564 -9.8766e-05 -5.0221e-05)
(-0.0004992 -0.00011015 -3.1396e-05)
(-0.00055339 -0.00011751 -3.6143e-06)
(-0.00049702 -4.6861e-06 -0.00013374)
(-0.00044898 -3.5642e-05 -0.00012419)
(-0.00041905 -5.6723e-05 -0.00011064)
(-0.00040495 -7.7935e-05 -9.4861e-05)
(-0.00040496 -9.4864e-05 -7.7933e-05)
(-0.00041903 -0.00011063 -5.6729e-05)
(-0.00044899 -0.00012415 -3.564e-05)
(-0.00049702 -0.0001337 -4.6778e-06)
(-0.00043767 -5.3118e-06 -0.0001413)
(-0.0003961 -3.7771e-05 -0.00013076)
(-0.00036997 -5.9849e-05 -0.00011609)
(-0.00035763 -8.1676e-05 -9.9406e-05)
(-0.00035762 -9.9407e-05 -8.1647e-05)
(-0.00036997 -0.00011608 -5.982e-05)
(-0.0003961 -0.00013075 -3.7737e-05)
(-0.00043768 -0.00014125 -5.3162e-06)
(-0.00037986 -5.4072e-06 -0.00013996)
(-0.00034445 -3.7482e-05 -0.00012935)
(-0.000322 -5.9246e-05 -0.00011464)
(-0.00031144 -8.0548e-05 -9.8081e-05)
(-0.00031143 -9.8084e-05 -8.0531e-05)
(-0.00032201 -0.00011462 -5.9218e-05)
(-0.00034444 -0.00012934 -3.747e-05)
(-0.00037986 -0.00013994 -5.4014e-06)
(-0.00032733 -5.0237e-06 -0.00013168)
(-0.00029735 -3.5223e-05 -0.00012157)
(-0.00027823 -5.5663e-05 -0.00010767)
(-0.00026929 -7.566e-05 -9.2179e-05)
(-0.0002693 -9.2181e-05 -7.5672e-05)
(-0.00027824 -0.00010768 -5.5657e-05)
(-0.00029734 -0.00012157 -3.5216e-05)
(-0.00032733 -0.00013166 -5.0345e-06)
(-0.000282 -4.4343e-06 -0.0001195)
(-0.00025659 -3.189e-05 -0.00011025)
(-0.00024027 -5.0456e-05 -9.7625e-05)
(-0.00023266 -6.8675e-05 -8.3697e-05)
(-0.00023268 -8.3699e-05 -6.8674e-05)
(-0.0002403 -9.7625e-05 -5.0457e-05)
(-0.0002566 -0.00011023 -3.188e-05)
(-0.00028202 -0.00011947 -4.4176e-06)
(-0.00024419 -3.853e-06 -0.00010665)
(-0.00022245 -2.8406e-05 -9.8303e-05)
(-0.00020839 -4.4984e-05 -8.7036e-05)
(-0.00020183 -6.1315e-05 -7.4741e-05)
(-0.00020184 -7.4733e-05 -6.1308e-05)
(-0.00020843 -8.7021e-05 -4.4984e-05)
(-0.00022249 -9.8288e-05 -2.8395e-05)
(-0.0002442 -0.00010663 -3.8551e-06)
)
;
    }
    procBoundary2to1
    {
        type            processor;
        value           uniform (0 0 0);
    }
    procBoundary2to3
    {
        type            processor;
        value           uniform (0 0 0);
    }
}


// ************************************************************************* //
