/*--------------------------------*- C++ -*----------------------------------*\
| =========                 |                                                 |
| \\      /  F ield         | OpenFOAM: The Open Source CFD Toolbox           |
|  \\    /   O peration     | Version:  4.1                                   |
|   \\  /    A nd           | Web:      www.OpenFOAM.org                      |
|    \\/     M anipulation  |                                                 |
\*---------------------------------------------------------------------------*/
FoamFile
{
    version     2.0;
    format      ascii;
    class       volScalarField;
    location    "0.0064";
    object      p;
}
// * * * * * * * * * * * * * * * * * * * * * * * * * * * * * * * * * * * * * //

dimensions      [0 2 -2 0 0 0 0];

internalField   nonuniform List<scalar> 
6144
(
0.0089701
0.027149
0.046239
0.066975
0.090316
0.11708
0.14792
0.18346
0.22434
0.27111
0.32407
0.38324
0.4483
0.51874
0.59379
0.6724
0.75305
0.83365
0.9116
0.98401
1.048
1.1006
1.1386
1.1587
1.1632
1.1459
1.1048
1.0396
0.95428
0.85375
0.74276
0.62535
0.50505
0.38554
0.27132
0.16775
0.080339
0.010978
-0.030174
-0.056148
-0.068414
-0.061249
-0.047493
-0.031122
-0.016572
-0.0063531
-0.0010739
-5.5953e-05
0.0090376
0.027377
0.046661
0.067663
0.09125
0.11823
0.14927
0.185
0.22603
0.27289
0.32588
0.38498
0.44992
0.52017
0.59493
0.67312
0.7532
0.83309
0.91025
0.98188
1.0451
1.097
1.1343
1.1544
1.158
1.1395
1.0982
1.0337
0.94951
0.85026
0.74049
0.62425
0.50511
0.38685
0.27395
0.17159
0.084901
0.01616
-0.026564
-0.052475
-0.065191
-0.058767
-0.046407
-0.031116
-0.01718
-0.007152
-0.0016075
-0.0003166
0.0090912
0.027545
0.046953
0.068106
0.091842
0.11896
0.15013
0.18598
0.22711
0.27402
0.32701
0.38607
0.45093
0.52104
0.5956
0.67352
0.75322
0.83265
0.9093
0.98039
1.043
1.0943
1.1311
1.1507
1.1526
1.1352
1.0939
1.03
0.94655
0.84811
0.73912
0.62361
0.50522
0.38779
0.2758
0.17432
0.088277
0.020414
-0.022842
-0.048314
-0.060513
-0.056923
-0.045673
-0.031147
-0.017639
-0.0077867
-0.002024
-0.00048943
0.0091147
0.027621
0.047091
0.068314
0.092124
0.11931
0.15054
0.18645
0.22763
0.27458
0.32757
0.38662
0.45143
0.52147
0.59594
0.67372
0.75324
0.83245
0.90885
0.97966
1.042
1.093
1.1296
1.149
1.1504
1.1331
1.0919
1.0281
0.94503
0.84699
0.73838
0.62324
0.50523
0.38822
0.27668
0.17563
0.089893
0.022417
-0.021088
-0.046682
-0.059195
-0.056277
-0.045353
-0.031187
-0.017873
-0.0081099
-0.0022436
-0.00057873
0.0091112
0.027611
0.047073
0.06829
0.092095
0.11928
0.15051
0.18642
0.2276
0.27454
0.32754
0.38659
0.4514
0.52145
0.59592
0.6737
0.75322
0.83243
0.90883
0.97965
1.042
1.093
1.1296
1.149
1.1504
1.1331
1.0919
1.0281
0.94504
0.84699
0.73838
0.62322
0.50521
0.3882
0.27666
0.17561
0.089867
0.022391
-0.021111
-0.046703
-0.05921
-0.056288
-0.045361
-0.031192
-0.017876
-0.0081121
-0.0022451
-0.00057926
0.0090805
0.027513
0.0469
0.068033
0.091753
0.11886
0.15002
0.18587
0.227
0.27392
0.32692
0.38599
0.45085
0.52096
0.59553
0.67345
0.75315
0.83259
0.90925
0.98035
1.043
1.0943
1.1311
1.1507
1.1526
1.1352
1.094
1.03
0.94656
0.84811
0.7391
0.62357
0.50517
0.38773
0.27573
0.17425
0.088198
0.020337
-0.022915
-0.048378
-0.06056
-0.056952
-0.045695
-0.031161
-0.017649
-0.0077936
-0.0020289
-0.00049108
0.0090193
0.027322
0.046572
0.067544
0.091103
0.11806
0.14909
0.18482
0.22586
0.27273
0.32573
0.38485
0.4498
0.52005
0.59482
0.67301
0.75309
0.83298
0.91016
0.98181
1.0451
1.097
1.1344
1.1545
1.158
1.1396
1.0982
1.0337
0.94953
0.85025
0.74046
0.62419
0.50502
0.38674
0.27383
0.17146
0.084767
0.016033
-0.026685
-0.052578
-0.065258
-0.058817
-0.046438
-0.031137
-0.017196
-0.0071628
-0.0016151
-0.00031916
0.0089449
0.027072
0.046115
0.066806
0.090109
0.11685
0.14767
0.18321
0.2241
0.27088
0.32386
0.38304
0.44812
0.51857
0.59363
0.67224
0.75289
0.8335
0.91146
0.98391
1.0479
1.1006
1.1386
1.1588
1.1632
1.146
1.1049
1.0396
0.9543
0.85374
0.74271
0.62526
0.50492
0.38538
0.27115
0.16758
0.080147
0.010807
-0.030339
-0.056296
-0.068503
-0.061317
-0.047536
-0.031152
-0.016594
-0.0063686
-0.0010845
-5.9173e-05
0.0090367
0.027375
0.046657
0.067658
0.091241
0.11822
0.14925
0.18498
0.226
0.27286
0.32584
0.38494
0.44988
0.52013
0.5949
0.6731
0.75318
0.83308
0.91025
0.98189
1.0451
1.097
1.1344
1.1545
1.158
1.1396
1.0982
1.0337
0.94953
0.85027
0.7405
0.62426
0.50512
0.38686
0.27396
0.1716
0.084911
0.016166
-0.026562
-0.05248
-0.065192
-0.058768
-0.046405
-0.031111
-0.017174
-0.0071456
-0.0016029
-0.000315
0.0091065
0.027613
0.047096
0.068315
0.092109
0.11927
0.15048
0.18637
0.22753
0.27447
0.32746
0.3865
0.45131
0.52134
0.59581
0.6736
0.75314
0.83239
0.90885
0.97975
1.0422
1.0934
1.1303
1.1505
1.1544
1.1337
1.0922
1.0285
0.94543
0.84735
0.73868
0.62344
0.50533
0.3882
0.2765
0.17523
0.08915
0.020916
-0.023275
-0.049944
-0.062411
-0.056703
-0.045429
-0.031089
-0.017697
-0.0078991
-0.0020431
-0.00054054
0.0091614
0.027784
0.047392
0.068752
0.092687
0.11998
0.15131
0.18731
0.22857
0.27556
0.32855
0.38755
0.45227
0.52216
0.59643
0.67393
0.75311
0.8319
0.90785
0.9782
1.0401
1.0907
1.127
1.1467
1.1488
1.1294
1.0882
1.025
0.94265
0.84538
0.73748
0.62297
0.50561
0.38933
0.27854
0.17815
0.092746
0.025223
-0.0193
-0.0458
-0.057953
-0.054978
-0.044773
-0.031246
-0.018277
-0.0086635
-0.0025274
-0.0007265
0.0091868
0.027863
0.047532
0.068959
0.092961
0.12032
0.15171
0.18777
0.22907
0.27609
0.32909
0.38807
0.45274
0.52257
0.59674
0.6741
0.75309
0.83166
0.90735
0.97744
1.0391
1.0894
1.1255
1.1449
1.1467
1.1274
1.0862
1.0232
0.94126
0.84438
0.73685
0.62271
0.50572
0.38984
0.27951
0.17954
0.094463
0.027252
-0.017503
-0.044283
-0.05731
-0.054386
-0.044529
-0.031354
-0.018575
-0.0090411
-0.0027637
-0.00083152
0.0091831
0.027852
0.047513
0.068934
0.092931
0.12028
0.15167
0.18773
0.22904
0.27606
0.32906
0.38804
0.45271
0.52254
0.59671
0.67408
0.75307
0.83164
0.90733
0.97742
1.0391
1.0894
1.1255
1.1449
1.1467
1.1275
1.0862
1.0232
0.94126
0.84438
0.73684
0.62269
0.50571
0.38982
0.27948
0.17951
0.094435
0.027226
-0.017527
-0.044304
-0.057324
-0.054395
-0.044536
-0.031358
-0.018577
-0.0090428
-0.0027648
-0.00083186
0.0091502
0.02775
0.047337
0.068678
0.092596
0.11988
0.1512
0.1872
0.22846
0.27546
0.32847
0.38747
0.45219
0.52209
0.59636
0.67387
0.75304
0.83184
0.90779
0.97816
1.0401
1.0907
1.127
1.1467
1.1488
1.1295
1.0882
1.025
0.94266
0.84537
0.73746
0.62294
0.50556
0.38926
0.27847
0.17807
0.092664
0.025144
-0.019375
-0.045865
-0.058
-0.055005
-0.044793
-0.031259
-0.018285
-0.0086686
-0.0025307
-0.00072761
0.0090879
0.027557
0.047004
0.068191
0.091957
0.1191
0.1503
0.18619
0.22736
0.27431
0.32732
0.38637
0.45118
0.52122
0.5957
0.67348
0.75303
0.83228
0.90875
0.97967
1.0422
1.0934
1.1303
1.1505
1.1544
1.1337
1.0923
1.0285
0.94545
0.84735
0.73865
0.62338
0.50524
0.38809
0.27638
0.17509
0.089011
0.020784
-0.023399
-0.05005
-0.062473
-0.056754
-0.045461
-0.031109
-0.01771
-0.0079075
-0.0020486
-0.00054236
0.0090109
0.027296
0.046528
0.067482
0.091025
0.11797
0.14899
0.18471
0.22575
0.27263
0.32563
0.38475
0.44971
0.51996
0.59474
0.67294
0.75302
0.83292
0.91011
0.98178
1.045
1.097
1.1344
1.1545
1.158
1.1396
1.0983
1.0337
0.94956
0.85027
0.74047
0.62418
0.50499
0.3867
0.27378
0.17141
0.084715
0.015982
-0.026737
-0.05264
-0.065283
-0.058838
-0.046451
-0.031139
-0.017194
-0.0071581
-0.0016111
-0.00031755
0.00909
0.027541
0.046946
0.068094
0.091825
0.11894
0.1501
0.18593
0.22705
0.27396
0.32694
0.386
0.45085
0.52096
0.59554
0.67347
0.75319
0.83264
0.90931
0.98041
1.0431
1.0944
1.1312
1.1508
1.1527
1.1353
1.094
1.03
0.94658
0.84814
0.73915
0.62364
0.50525
0.38783
0.27584
0.17435
0.088301
0.020429
-0.022839
-0.048322
-0.060515
-0.056919
-0.045665
-0.031135
-0.017625
-0.0077739
-0.0020154
-0.00048652
0.0091607
0.027782
0.047389
0.068747
0.092679
0.11997
0.1513
0.18729
0.22854
0.27553
0.32852
0.38751
0.45223
0.52213
0.5964
0.67391
0.75309
0.8319
0.90785
0.97821
1.0401
1.0908
1.1271
1.1467
1.1488
1.1295
1.0882
1.025
0.94267
0.84539
0.73749
0.62299
0.50563
0.38934
0.27856
0.17817
0.09276
0.025232
-0.019296
-0.045799
-0.057944
-0.054974
-0.044767
-0.031239
-0.01827
-0.0086574
-0.0025232
-0.00072507
0.0092129
0.027948
0.047682
0.069177
0.093244
0.12066
0.1521
0.1882
0.22954
0.27658
0.32958
0.38853
0.45316
0.52291
0.59698
0.67421
0.75303
0.83139
0.90684
0.97668
1.0381
1.0882
1.124
1.1434
1.1446
1.1254
1.0843
1.0216
0.94
0.84351
0.73635
0.62256
0.50593
0.39044
0.28051
0.18092
0.096097
0.029027
-0.016
-0.042791
-0.054293
-0.053288
-0.044053
-0.031275
-0.018701
-0.0092568
-0.0028248
-0.00095011
0.0092378
0.028026
0.04782
0.069381
0.093512
0.12098
0.15248
0.18864
0.23003
0.2771
0.3301
0.38903
0.45361
0.5233
0.59727
0.67435
0.75299
0.83112
0.90633
0.97591
1.037
1.0869
1.1225
1.1417
1.1428
1.1234
1.0824
1.0199
0.93868
0.84258
0.73579
0.62234
0.50608
0.39098
0.28148
0.18229
0.09776
0.030923
-0.014358
-0.04144
-0.05338
-0.052735
-0.043803
-0.031361
-0.018979
-0.0096001
-0.0029986
-0.0010822
0.009234
0.028015
0.047801
0.069356
0.093482
0.12095
0.15245
0.18861
0.22999
0.27706
0.33007
0.389
0.45359
0.52327
0.59724
0.67433
0.75296
0.8311
0.90631
0.97589
1.037
1.0868
1.1225
1.1417
1.1428
1.1235
1.0824
1.0199
0.93869
0.84258
0.73578
0.62233
0.50606
0.39096
0.28145
0.18226
0.097731
0.030895
-0.014384
-0.041463
-0.053396
-0.052744
-0.04381
-0.031365
-0.018981
-0.0096014
-0.0029995
-0.0010823
0.0092013
0.027913
0.047625
0.069102
0.093152
0.12055
0.15199
0.18809
0.22944
0.27649
0.32949
0.38845
0.45308
0.52284
0.59692
0.67415
0.75296
0.83132
0.90678
0.97663
1.038
1.0881
1.124
1.1434
1.1446
1.1254
1.0843
1.0216
0.94002
0.84351
0.73634
0.62252
0.50588
0.39037
0.28043
0.18084
0.096011
0.028944
-0.016078
-0.042858
-0.05434
-0.053317
-0.044073
-0.031286
-0.018708
-0.0092607
-0.0028276
-0.00095033
0.0091413
0.027724
0.047294
0.06862
0.092524
0.11979
0.15111
0.18711
0.22837
0.27537
0.32838
0.38738
0.45211
0.52201
0.59629
0.6738
0.75298
0.83178
0.90774
0.97813
1.0401
1.0907
1.1271
1.1467
1.1488
1.1295
1.0883
1.025
0.9427
0.8454
0.73747
0.62293
0.50555
0.38923
0.27843
0.17803
0.092616
0.025092
-0.019428
-0.045912
-0.058006
-0.05503
-0.0448
-0.031258
-0.018281
-0.0086637
-0.002527
-0.00072622
0.0090625
0.027459
0.046812
0.067914
0.091605
0.11869
0.14983
0.18567
0.2268
0.27373
0.32673
0.38581
0.45068
0.52081
0.59539
0.67331
0.75303
0.83248
0.90916
0.98029
1.043
1.0943
1.1312
1.1508
1.1527
1.1353
1.0941
1.0301
0.94662
0.84815
0.73912
0.62356
0.50513
0.38767
0.27565
0.17415
0.088097
0.020231
-0.023029
-0.048495
-0.060621
-0.056997
-0.045709
-0.031161
-0.017641
-0.0077838
-0.0020211
-0.00048806
0.009113
0.027616
0.04708
0.068298
0.092101
0.11928
0.1505
0.18639
0.22755
0.27448
0.32746
0.3865
0.45132
0.52137
0.59585
0.67365
0.7532
0.83243
0.90885
0.9797
1.0421
1.0931
1.1297
1.1491
1.1506
1.1333
1.092
1.0282
0.9451
0.84704
0.73843
0.62329
0.50528
0.38828
0.27674
0.17568
0.089933
0.022443
-0.021079
-0.046688
-0.059198
-0.056267
-0.045337
-0.031166
-0.017851
-0.008091
-0.0022309
-0.00057433
0.0091857
0.02786
0.047525
0.068949
0.092947
0.1203
0.15168
0.18773
0.22902
0.27603
0.32902
0.38799
0.45267
0.5225
0.59668
0.67406
0.75306
0.83165
0.90736
0.97746
1.0391
1.0895
1.1255
1.145
1.1468
1.1275
1.0863
1.0233
0.94131
0.84442
0.73689
0.62274
0.50576
0.38989
0.27955
0.17958
0.094493
0.027275
-0.01749
-0.044277
-0.057297
-0.054374
-0.044515
-0.031338
-0.01856
-0.0090286
-0.0027553
-0.00082863
0.0092373
0.028025
0.047817
0.069376
0.093505
0.12097
0.15247
0.18862
0.23
0.27707
0.33007
0.38899
0.45358
0.52326
0.59724
0.67433
0.75297
0.83112
0.90634
0.97592
1.0371
1.0869
1.1225
1.1417
1.1428
1.1235
1.0824
1.0199
0.93871
0.8426
0.73581
0.62236
0.5061
0.391
0.2815
0.18231
0.097777
0.030936
-0.01435
-0.041434
-0.053372
-0.052726
-0.043795
-0.031352
-0.018971
-0.0095937
-0.0029945
-0.0010807
0.0092619
0.028103
0.047954
0.069577
0.09377
0.1213
0.15285
0.18906
0.23048
0.27757
0.33058
0.38949
0.45402
0.52364
0.59751
0.67446
0.75292
0.83084
0.90581
0.97514
1.036
1.0856
1.121
1.1401
1.141
1.1216
1.0805
1.0183
0.93742
0.84169
0.73527
0.62217
0.50627
0.39156
0.28247
0.18366
0.099414
0.032778
-0.012777
-0.040086
-0.052285
-0.052136
-0.043549
-0.031433
-0.019253
-0.0099316
-0.0031597
-0.0012111
0.009258
0.028091
0.047935
0.069551
0.093738
0.12126
0.15281
0.18902
0.23045
0.27754
0.33055
0.38946
0.454
0.52362
0.59749
0.67444
0.7529
0.83082
0.90579
0.97513
1.036
1.0856
1.121
1.1401
1.141
1.1216
1.0805
1.0183
0.93743
0.8417
0.73527
0.62216
0.50625
0.39154
0.28244
0.18363
0.099384
0.032749
-0.012804
-0.040109
-0.0523
-0.052144
-0.043556
-0.031436
-0.019255
-0.0099323
-0.0031601
-0.0012111
0.0092253
0.027989
0.047759
0.069298
0.093411
0.12087
0.15236
0.18851
0.2299
0.27697
0.32998
0.38892
0.45351
0.5232
0.59718
0.67427
0.75291
0.83105
0.90627
0.97587
1.037
1.0868
1.1225
1.1417
1.1428
1.1235
1.0824
1.02
0.93873
0.84261
0.7358
0.62233
0.50605
0.39094
0.28142
0.18222
0.097687
0.030848
-0.014432
-0.041504
-0.053416
-0.052757
-0.043814
-0.031362
-0.018976
-0.0095959
-0.0029958
-0.0010807
0.0091655
0.0278
0.047428
0.068819
0.092789
0.12012
0.15149
0.18754
0.22885
0.27587
0.32888
0.38787
0.45256
0.5224
0.59658
0.67395
0.75295
0.83153
0.90725
0.97736
1.039
1.0894
1.1255
1.145
1.1468
1.1276
1.0863
1.0233
0.94134
0.84443
0.73687
0.6227
0.50568
0.38978
0.27942
0.17943
0.094343
0.027127
-0.017629
-0.044396
-0.057364
-0.054432
-0.044546
-0.031354
-0.018568
-0.0090323
-0.0027572
-0.0008289
0.0090845
0.027531
0.046944
0.068115
0.091878
0.11903
0.15023
0.18613
0.2273
0.27426
0.32727
0.38633
0.45116
0.52122
0.59571
0.6735
0.75304
0.83227
0.9087
0.97956
1.042
1.0931
1.1296
1.1491
1.1506
1.1333
1.092
1.0282
0.94514
0.84706
0.73841
0.62322
0.50517
0.38812
0.27655
0.17548
0.08972
0.022233
-0.021281
-0.046871
-0.059316
-0.056346
-0.045378
-0.031188
-0.017862
-0.0080965
-0.0022335
-0.00057475
0.0091089
0.027604
0.04706
0.06827
0.092065
0.11923
0.15045
0.18634
0.22749
0.27442
0.3274
0.38644
0.45126
0.52131
0.5958
0.67361
0.75316
0.83241
0.90884
0.97969
1.0421
1.0932
1.1297
1.1492
1.1507
1.1333
1.092
1.0282
0.94513
0.84707
0.73845
0.6233
0.50529
0.38828
0.27674
0.17568
0.089927
0.022435
-0.021089
-0.0467
-0.059201
-0.056267
-0.045333
-0.031161
-0.017845
-0.0080863
-0.0022279
-0.00057335
0.0091815
0.027847
0.047504
0.06892
0.09291
0.12025
0.15163
0.18768
0.22896
0.27597
0.32896
0.38794
0.45261
0.52245
0.59663
0.67402
0.75303
0.83162
0.90734
0.97746
1.0391
1.0895
1.1256
1.145
1.1469
1.1276
1.0863
1.0233
0.94135
0.84445
0.73691
0.62276
0.50577
0.38989
0.27955
0.17958
0.094486
0.027266
-0.017501
-0.044287
-0.057298
-0.054373
-0.044511
-0.031332
-0.018554
-0.0090235
-0.0027521
-0.00082752
0.009233
0.028012
0.047795
0.069346
0.093468
0.12093
0.15242
0.18857
0.22995
0.27701
0.33001
0.38894
0.45352
0.52321
0.59719
0.67429
0.75294
0.83109
0.90632
0.97592
1.0371
1.0869
1.1226
1.1418
1.1429
1.1236
1.0825
1.02
0.93875
0.84263
0.73583
0.62238
0.50611
0.39101
0.2815
0.1823
0.097769
0.030926
-0.014361
-0.041445
-0.053376
-0.052724
-0.04379
-0.031346
-0.018964
-0.0095884
-0.0029911
-0.0010794
0.0092575
0.028089
0.047932
0.069547
0.093732
0.12125
0.1528
0.189
0.23042
0.27751
0.33052
0.38943
0.45397
0.52359
0.59746
0.67442
0.75288
0.83082
0.9058
0.97514
1.036
1.0856
1.1211
1.1401
1.141
1.1216
1.0806
1.0183
0.93746
0.84173
0.73529
0.62219
0.50628
0.39157
0.28247
0.18366
0.099405
0.032766
-0.01279
-0.040097
-0.052289
-0.052133
-0.043544
-0.031426
-0.019246
-0.0099258
-0.0031559
-0.0012097
0.0092534
0.028077
0.047912
0.069521
0.093701
0.12122
0.15276
0.18897
0.23039
0.27748
0.33049
0.38941
0.45395
0.52357
0.59744
0.6744
0.75286
0.83079
0.90577
0.97512
1.036
1.0856
1.1211
1.1401
1.141
1.1216
1.0806
1.0184
0.93747
0.84173
0.73529
0.62218
0.50626
0.39154
0.28244
0.18363
0.099374
0.032736
-0.012818
-0.040121
-0.052304
-0.052141
-0.043551
-0.031429
-0.019247
-0.009926
-0.0031559
-0.0012096
0.0092206
0.027975
0.047736
0.069268
0.093373
0.12082
0.15231
0.18846
0.22984
0.27692
0.32993
0.38887
0.45346
0.52315
0.59713
0.67423
0.75287
0.83102
0.90625
0.97585
1.037
1.0869
1.1226
1.1417
1.1429
1.1236
1.0825
1.02
0.93877
0.84264
0.73583
0.62235
0.50606
0.39094
0.28142
0.18221
0.097676
0.030834
-0.014447
-0.041517
-0.053422
-0.052755
-0.043808
-0.031355
-0.018967
-0.009589
-0.0029912
-0.001079
0.0091608
0.027786
0.047405
0.068787
0.09275
0.12007
0.15144
0.18749
0.22879
0.27582
0.32883
0.38782
0.45251
0.52235
0.59653
0.67391
0.75291
0.8315
0.90722
0.97735
1.039
1.0894
1.1255
1.145
1.1469
1.1276
1.0864
1.0234
0.94138
0.84447
0.7369
0.62272
0.5057
0.38978
0.27941
0.17943
0.094331
0.027112
-0.017645
-0.04441
-0.057368
-0.054431
-0.04454
-0.031345
-0.018558
-0.0090244
-0.0027519
-0.00082705
0.0090796
0.027517
0.046921
0.068083
0.091839
0.11898
0.15018
0.18607
0.22725
0.2742
0.32722
0.38628
0.45112
0.52118
0.59567
0.67346
0.753
0.83224
0.90867
0.97954
1.042
1.0931
1.1296
1.1491
1.1506
1.1333
1.0921
1.0283
0.94519
0.8471
0.73845
0.62324
0.50518
0.38813
0.27655
0.17547
0.089707
0.022217
-0.021299
-0.046887
-0.05932
-0.056344
-0.045371
-0.031178
-0.017851
-0.0080875
-0.0022275
-0.00057262
0.0090778
0.027504
0.046884
0.068009
0.091718
0.11881
0.14995
0.18577
0.22688
0.27378
0.32675
0.38581
0.45067
0.5208
0.59539
0.67334
0.75309
0.83256
0.90926
0.9804
1.0431
1.0945
1.1313
1.151
1.1529
1.1355
1.0942
1.0302
0.9467
0.84822
0.73921
0.62368
0.50528
0.38784
0.27584
0.17435
0.088283
0.020404
-0.022873
-0.048356
-0.06053
-0.056915
-0.045652
-0.031117
-0.017607
-0.0077603
-0.002007
-0.00048368
0.0091481
0.027744
0.047326
0.06866
0.09257
0.11984
0.15115
0.18713
0.22837
0.27535
0.32834
0.38734
0.45206
0.52197
0.59626
0.67379
0.75299
0.83182
0.9078
0.9782
1.0402
1.0908
1.1272
1.1469
1.149
1.1297
1.0884
1.0251
0.94278
0.84548
0.73755
0.62303
0.50566
0.38936
0.27856
0.17816
0.092739
0.025205
-0.019329
-0.04583
-0.057957
-0.054968
-0.044754
-0.031221
-0.018251
-0.008642
-0.0025135
-0.00072181
0.0091998
0.027909
0.047617
0.069089
0.093133
0.12053
0.15195
0.18804
0.22937
0.27641
0.3294
0.38836
0.45299
0.52276
0.59684
0.67409
0.75293
0.83131
0.90679
0.97667
1.0381
1.0882
1.1241
1.1435
1.1448
1.1256
1.0845
1.0217
0.94012
0.8436
0.73642
0.6226
0.50596
0.39045
0.28051
0.18091
0.096074
0.028997
-0.016035
-0.042823
-0.054307
-0.053282
-0.044039
-0.031256
-0.018682
-0.0092407
-0.0028147
-0.00094615
0.0092244
0.027986
0.047754
0.069291
0.0934
0.12085
0.15234
0.18848
0.22986
0.27692
0.32992
0.38886
0.45345
0.52315
0.59713
0.67423
0.75288
0.83104
0.90628
0.97589
1.0371
1.0869
1.1226
1.1418
1.1429
1.1236
1.0825
1.0201
0.9388
0.84267
0.73586
0.62239
0.50611
0.391
0.28148
0.18227
0.097733
0.030888
-0.014397
-0.041474
-0.05339
-0.052731
-0.043789
-0.031341
-0.018958
-0.0095826
-0.0029874
-0.001078
0.0092203
0.027974
0.047734
0.069264
0.093368
0.12082
0.1523
0.18844
0.22982
0.27689
0.3299
0.38884
0.45343
0.52313
0.59711
0.67421
0.75286
0.83102
0.90625
0.97587
1.037
1.0869
1.1226
1.1418
1.1429
1.1236
1.0825
1.0201
0.93881
0.84268
0.73586
0.62239
0.50609
0.39097
0.28145
0.18224
0.097701
0.030857
-0.014427
-0.041499
-0.053406
-0.05274
-0.043795
-0.031343
-0.018958
-0.0095822
-0.002987
-0.0010776
0.0091873
0.027872
0.047557
0.069009
0.093037
0.12042
0.15184
0.18793
0.22927
0.27632
0.32933
0.38829
0.45293
0.5227
0.59679
0.67403
0.75286
0.83124
0.90672
0.9766
1.038
1.0882
1.1241
1.1435
1.1448
1.1255
1.0845
1.0217
0.94014
0.84362
0.73642
0.62258
0.50592
0.39039
0.28043
0.18082
0.095978
0.028902
-0.016124
-0.042897
-0.054359
-0.053312
-0.044056
-0.031262
-0.018682
-0.0092393
-0.0028135
-0.00094514
0.009127
0.027681
0.047225
0.068526
0.092408
0.11966
0.15096
0.18694
0.2282
0.2752
0.32821
0.38723
0.45196
0.52188
0.59617
0.67369
0.75288
0.8317
0.90768
0.97809
1.0401
1.0907
1.1271
1.1468
1.1489
1.1296
1.0884
1.0252
0.94282
0.84551
0.73756
0.623
0.50559
0.38925
0.27843
0.178
0.092579
0.025047
-0.019477
-0.045955
-0.058025
-0.055023
-0.044781
-0.031231
-0.018253
-0.0086396
-0.002511
-0.00072052
0.0090479
0.027415
0.046742
0.067819
0.091488
0.11855
0.14968
0.18551
0.22664
0.27356
0.32658
0.38566
0.45055
0.52068
0.59527
0.6732
0.75293
0.83239
0.90909
0.98024
1.043
1.0943
1.1312
1.1509
1.1528
1.1354
1.0942
1.0302
0.94676
0.84827
0.73922
0.62363
0.50518
0.38769
0.27565
0.17413
0.088056
0.020179
-0.023086
-0.048546
-0.060639
-0.056991
-0.045688
-0.031129
-0.017608
-0.0077561
-0.0020028
-0.00048152
0.0090159
0.027313
0.046555
0.067517
0.091064
0.11801
0.14901
0.18471
0.22572
0.27256
0.32554
0.38464
0.44959
0.51986
0.59465
0.67288
0.75301
0.83295
0.91017
0.98187
1.0452
1.0971
1.1346
1.1548
1.1583
1.1399
1.0985
1.0339
0.94971
0.8504
0.7406
0.62433
0.50516
0.38689
0.27397
0.17159
0.084879
0.016126
-0.026619
-0.052531
-0.065201
-0.05876
-0.046378
-0.031078
-0.017143
-0.0071214
-0.0015885
-0.0003102
0.0090853
0.02755
0.046991
0.06817
0.091927
0.11906
0.15024
0.1861
0.22725
0.27418
0.32716
0.38621
0.45102
0.52107
0.59557
0.67339
0.75297
0.83226
0.90877
0.97973
1.0423
1.0936
1.1305
1.1507
1.1547
1.134
1.0925
1.0287
0.94562
0.8475
0.73879
0.62352
0.50537
0.38822
0.2765
0.17521
0.089115
0.020872
-0.023329
-0.049991
-0.062413
-0.056696
-0.045405
-0.031057
-0.017666
-0.0078733
-0.0020269
-0.00053513
0.0091395
0.027718
0.047285
0.068604
0.092501
0.11976
0.15106
0.18704
0.22828
0.27527
0.32826
0.38726
0.45199
0.5219
0.59619
0.67373
0.75294
0.83177
0.90776
0.97817
1.0402
1.0908
1.1272
1.1469
1.149
1.1297
1.0885
1.0252
0.94284
0.84552
0.73759
0.62305
0.50566
0.38935
0.27854
0.17813
0.092707
0.025172
-0.01936
-0.045854
-0.057955
-0.054976
-0.04475
-0.031214
-0.018245
-0.0086365
-0.00251
-0.00072053
0.0091645
0.027797
0.047422
0.068808
0.092773
0.1201
0.15146
0.1875
0.22879
0.2758
0.3288
0.38778
0.45247
0.52232
0.59651
0.6739
0.75292
0.83153
0.90726
0.9774
1.0391
1.0895
1.1256
1.1451
1.147
1.1277
1.0865
1.0234
0.94146
0.84453
0.73697
0.62279
0.50577
0.38987
0.2795
0.17951
0.094418
0.027194
-0.01757
-0.044343
-0.057318
-0.054387
-0.044506
-0.03132
-0.01854
-0.0090118
-0.0027446
-0.00082475
0.0091603
0.027784
0.047402
0.068781
0.092741
0.12006
0.15142
0.18746
0.22875
0.27577
0.32878
0.38776
0.45245
0.5223
0.59649
0.67388
0.7529
0.8315
0.90724
0.97738
1.0391
1.0895
1.1256
1.1451
1.147
1.1277
1.0865
1.0235
0.94147
0.84454
0.73697
0.62279
0.50576
0.38985
0.27948
0.17948
0.094385
0.027162
-0.0176
-0.044369
-0.057333
-0.054397
-0.044511
-0.031321
-0.01854
-0.0090106
-0.0027436
-0.00082429
0.0091268
0.027681
0.047224
0.068523
0.092404
0.11965
0.15095
0.18693
0.22818
0.27518
0.32819
0.3872
0.45194
0.52186
0.59615
0.67367
0.75287
0.8317
0.90769
0.9781
1.0401
1.0908
1.1272
1.1469
1.149
1.1297
1.0885
1.0252
0.94287
0.84555
0.7376
0.62304
0.50562
0.38928
0.27846
0.17803
0.092608
0.025074
-0.019452
-0.045931
-0.058006
-0.055004
-0.044766
-0.031218
-0.018243
-0.0086327
-0.0025069
-0.00071919
0.0090641
0.027486
0.046889
0.068034
0.091763
0.11888
0.15005
0.18592
0.22708
0.27403
0.32704
0.38611
0.45094
0.521
0.59549
0.67329
0.75286
0.83214
0.90864
0.97961
1.0422
1.0935
1.1304
1.1506
1.1546
1.134
1.0925
1.0288
0.94567
0.84754
0.7388
0.62349
0.50531
0.38811
0.27637
0.17505
0.08895
0.020709
-0.02348
-0.050117
-0.062485
-0.056749
-0.04543
-0.031064
-0.017663
-0.0078674
-0.002022
-0.00053291
0.0089863
0.027223
0.04641
0.067324
0.090831
0.11775
0.14874
0.18445
0.22548
0.27236
0.32537
0.3845
0.44948
0.51975
0.59454
0.67275
0.75285
0.83278
0.90999
0.9817
1.045
1.097
1.1345
1.1547
1.1582
1.1399
1.0985
1.034
0.94978
0.85046
0.74062
0.6243
0.50507
0.38674
0.27377
0.17136
0.084645
0.015895
-0.026832
-0.052721
-0.065305
-0.05883
-0.046413
-0.031086
-0.017139
-0.0071126
-0.0015809
-0.00030678
0.0089414
0.027062
0.046095
0.066777
0.090067
0.11679
0.14759
0.18309
0.22394
0.27069
0.32365
0.38281
0.44789
0.51835
0.59345
0.6721
0.75281
0.83347
0.91149
0.98398
1.0481
1.1008
1.1389
1.1592
1.1636
1.1464
1.1052
1.0399
0.95453
0.85394
0.74289
0.62545
0.50511
0.38557
0.27133
0.16774
0.080294
0.010928
-0.030245
-0.056218
-0.06842
-0.061232
-0.047454
-0.031077
-0.016529
-0.0063186
-0.0010534
-4.8788e-05
0.009008
0.027288
0.046513
0.067459
0.090992
0.11793
0.14892
0.18462
0.22563
0.27248
0.32545
0.38457
0.44952
0.51979
0.59459
0.67283
0.75296
0.8329
0.91014
0.98185
1.0452
1.0972
1.1346
1.1548
1.1584
1.14
1.0986
1.034
0.94977
0.85045
0.74064
0.62435
0.50517
0.38688
0.27395
0.17156
0.084852
0.0161
-0.026639
-0.052553
-0.065198
-0.058754
-0.046373
-0.031071
-0.017137
-0.0071161
-0.0015852
-0.00030901
0.0090607
0.027453
0.046801
0.067897
0.09158
0.11865
0.14978
0.1856
0.2267
0.27361
0.32659
0.38567
0.45054
0.52067
0.59527
0.67322
0.75298
0.83247
0.90919
0.98035
1.0431
1.0945
1.1314
1.1511
1.153
1.1356
1.0943
1.0303
0.94682
0.84832
0.73928
0.62372
0.50528
0.38782
0.2758
0.17429
0.088222
0.020342
-0.022931
-0.048406
-0.060539
-0.056921
-0.045641
-0.031102
-0.017594
-0.0077494
-0.0020001
-0.00048109
0.0090835
0.027528
0.046936
0.068102
0.091859
0.119
0.15019
0.18607
0.22723
0.27417
0.32716
0.38622
0.45105
0.52112
0.59562
0.67344
0.753
0.83226
0.90872
0.97961
1.0421
1.0932
1.1298
1.1493
1.1509
1.1335
1.0922
1.0284
0.94531
0.84721
0.73855
0.62335
0.5053
0.38825
0.27668
0.17559
0.089829
0.022333
-0.02119
-0.046786
-0.059239
-0.056278
-0.04532
-0.031139
-0.017824
-0.0080688
-0.0022169
-0.00056926
0.0090791
0.027515
0.046916
0.068075
0.091827
0.11896
0.15015
0.18603
0.2272
0.27414
0.32714
0.3862
0.45104
0.52111
0.59561
0.67342
0.75298
0.83224
0.90869
0.97958
1.042
1.0931
1.1298
1.1493
1.1508
1.1335
1.0922
1.0284
0.94532
0.84722
0.73855
0.62335
0.50529
0.38823
0.27665
0.17556
0.089794
0.022298
-0.021222
-0.046814
-0.059257
-0.056288
-0.045325
-0.03114
-0.017822
-0.0080665
-0.0022151
-0.00056859
0.0090477
0.027414
0.046739
0.067815
0.091481
0.11854
0.14966
0.18549
0.2266
0.27352
0.32653
0.38562
0.4505
0.52063
0.59523
0.67317
0.75292
0.8324
0.90911
0.98027
1.043
1.0944
1.1313
1.151
1.1529
1.1356
1.0943
1.0303
0.94685
0.84835
0.73929
0.62371
0.50525
0.38776
0.27572
0.17419
0.088118
0.020237
-0.023031
-0.048492
-0.060596
-0.05695
-0.045655
-0.031103
-0.017588
-0.0077423
-0.0019948
-0.00047893
0.0089861
0.027223
0.046409
0.067322
0.090828
0.11774
0.14874
0.18444
0.22546
0.27234
0.32534
0.38448
0.44945
0.51973
0.59452
0.67274
0.75285
0.83278
0.91
0.98171
1.045
1.097
1.1345
1.1547
1.1583
1.1399
1.0986
1.034
0.94983
0.8505
0.74066
0.62434
0.50511
0.38677
0.27381
0.1714
0.084678
0.015925
-0.026804
-0.05269
-0.065285
-0.058811
-0.046395
-0.031073
-0.017129
-0.007106
-0.0015772
-0.00030557
0.0089112
0.026969
0.04595
0.066584
0.089835
0.11653
0.14732
0.18283
0.22371
0.27049
0.32349
0.38269
0.4478
0.51826
0.59334
0.67198
0.75266
0.8333
0.9113
0.98379
1.0479
1.1007
1.1387
1.159
1.1635
1.1463
1.1052
1.04
0.95461
0.85401
0.74293
0.62543
0.50502
0.38542
0.27113
0.16751
0.080051
0.010687
-0.030466
-0.056409
-0.068534
-0.061306
-0.047485
-0.031081
-0.016519
-0.0063052
-0.0010423
-4.4406e-05
0.0013359
0.0025507
-0.00080532
-0.011432
-0.027764
-0.047528
-0.065362
-0.072159
-0.068729
-0.053047
-0.016959
0.057052
0.14838
0.2568
0.37581
0.49959
0.62355
0.74446
0.85945
0.96469
1.0549
1.1241
1.1664
1.1795
1.1801
1.1585
1.117
1.061
0.99409
0.91893
0.83826
0.75511
0.67229
0.59197
0.51561
0.44418
0.3784
0.31881
0.26577
0.21925
0.17884
0.14387
0.11356
0.087305
0.064526
0.044475
0.026173
0.008662
0.00096034
0.0015509
-0.0022202
-0.012435
-0.027888
-0.045894
-0.061141
-0.065855
-0.059778
-0.041395
-0.0061119
0.064858
0.15358
0.25988
0.37703
0.49913
0.62161
0.74105
0.85441
0.95785
1.0463
1.1142
1.1559
1.17
1.1702
1.151
1.1117
1.0574
0.99166
0.91753
0.83789
0.75566
0.67357
0.59376
0.51774
0.44655
0.38092
0.32142
0.26836
0.2217
0.18105
0.14578
0.11517
0.088612
0.065505
0.045104
0.026504
0.0087617
0.00061451
0.0006594
-0.0036223
-0.013934
-0.029296
-0.046883
-0.062005
-0.066337
-0.059512
-0.038989
-0.00065666
0.068897
0.15755
0.26309
0.37937
0.50073
0.62257
0.74142
0.8541
0.95673
1.0444
1.1117
1.1541
1.1685
1.1667
1.1473
1.1087
1.0548
0.98959
0.91597
0.83682
0.75507
0.67339
0.59391
0.51815
0.44716
0.38168
0.32227
0.26921
0.2225
0.18178
0.14642
0.11574
0.089118
0.065937
0.045439
0.026689
0.0088185
0.00055512
0.00056511
-0.0036842
-0.013884
-0.028971
-0.046065
-0.060453
-0.06445
-0.057334
-0.037173
0.0012009
0.070183
0.15869
0.2638
0.37958
0.50046
0.62189
0.74034
0.85259
0.95473
1.0419
1.1089
1.1513
1.1664
1.1648
1.1457
1.1073
1.0538
0.98883
0.91549
0.83663
0.75515
0.67369
0.59437
0.51872
0.4478
0.38237
0.32298
0.26991
0.22316
0.18236
0.14693
0.11617
0.089468
0.066198
0.045602
0.026775
0.0088433
0.0005544
0.00056314
-0.0036869
-0.013888
-0.028976
-0.046074
-0.060464
-0.064468
-0.057363
-0.037196
0.0011726
0.070154
0.15866
0.26377
0.37955
0.50044
0.62187
0.74033
0.85258
0.95473
1.0419
1.1089
1.1514
1.1664
1.1648
1.1457
1.1073
1.0537
0.98881
0.91547
0.8366
0.75512
0.67366
0.59434
0.51869
0.44777
0.38234
0.32294
0.26987
0.22311
0.18231
0.14688
0.11613
0.08943
0.066167
0.04558
0.026761
0.0088388
0.00061214
0.00065223
-0.0036341
-0.013948
-0.029314
-0.046914
-0.062059
-0.066415
-0.059604
-0.039086
-0.00075746
0.068801
0.15746
0.263
0.37929
0.50066
0.62252
0.74139
0.85408
0.95673
1.0444
1.1117
1.1542
1.1685
1.1667
1.1473
1.1087
1.0548
0.98954
0.9159
0.83673
0.75498
0.67329
0.59381
0.51805
0.44705
0.38157
0.32215
0.26908
0.22236
0.18163
0.14628
0.11561
0.089003
0.065845
0.045374
0.02665
0.0088058
0.00095672
0.0015405
-0.0022367
-0.012455
-0.027913
-0.045929
-0.06121
-0.06597
-0.059922
-0.041577
-0.0062784
0.064699
0.15342
0.25974
0.3769
0.49902
0.62152
0.741
0.85439
0.95786
1.0464
1.1143
1.156
1.1701
1.1702
1.151
1.1118
1.0573
0.99158
0.91742
0.83775
0.75552
0.67343
0.59361
0.51758
0.44638
0.38074
0.32124
0.26816
0.22148
0.18082
0.14555
0.11497
0.088434
0.065361
0.045
0.026442
0.0087402
0.0013304
0.0025346
-0.00082849
-0.01146
-0.027799
-0.047574
-0.065435
-0.072259
-0.068912
-0.05321
-0.01715
0.056844
0.14817
0.25659
0.37561
0.49942
0.62343
0.74438
0.85942
0.96471
1.055
1.1242
1.1665
1.1796
1.1803
1.1585
1.117
1.0609
0.99397
0.91876
0.83807
0.75491
0.67208
0.59175
0.51538
0.44394
0.37815
0.31855
0.26548
0.21893
0.17851
0.14354
0.11326
0.087042
0.064314
0.04432
0.026076
0.0086294
0.0042098
0.010204
0.0098489
-0.0031252
-0.027148
-0.061272
-0.099121
-0.13313
-0.14922
-0.13281
-0.080372
0.0033221
0.11278
0.23785
0.37223
0.50882
0.64345
0.77465
0.90139
1.0198
1.1224
1.2003
1.248
1.2639