/*--------------------------------*- C++ -*----------------------------------*\
| =========                 |                                                 |
| \\      /  F ield         | OpenFOAM: The Open Source CFD Toolbox           |
|  \\    /   O peration     | Version:  4.1                                   |
|   \\  /    A nd           | Web:      www.OpenFOAM.org                      |
|    \\/     M anipulation  |                                                 |
\*---------------------------------------------------------------------------*/
FoamFile
{
    version     2.0;
    format      ascii;
    class       pointVectorField;
    location    "0.0064";
    object      pointDisplacement;
}
// * * * * * * * * * * * * * * * * * * * * * * * * * * * * * * * * * * * * * //

dimensions      [0 1 0 0 0 0 0];

internalField   nonuniform List<vector> 
7105
(
(0 0 0)
(-7.4905e-06 -1.4093e-06 2.6184e-10)
(-1.4101e-05 -2.0233e-06 4.7028e-10)
(-1.9434e-05 -1.7419e-06 6.1176e-10)
(-2.37e-05 -1.2536e-06 7.1512e-10)
(-2.7372e-05 -1.3743e-06 8.249e-10)
(-3.0765e-05 -2.3902e-06 9.6958e-10)
(-3.3937e-05 -4.1122e-06 1.1547e-09)
(-3.6834e-05 -6.3004e-06 1.3748e-09)
(-3.9398e-05 -8.8624e-06 1.6172e-09)
(-4.1585e-05 -1.1802e-05 1.875e-09)
(-4.3357e-05 -1.5138e-05 2.1671e-09)
(-4.4679e-05 -1.8873e-05 2.5168e-09)
(-4.5519e-05 -2.2992e-05 2.9244e-09)
(-4.5845e-05 -2.7472e-05 3.3867e-09)
(-4.5639e-05 -3.2276e-05 3.9098e-09)
(-4.4896e-05 -3.7335e-05 4.4901e-09)
(-4.3623e-05 -4.2537e-05 5.123e-09)
(-4.1833e-05 -4.7738e-05 5.7958e-09)
(-3.9544e-05 -5.2782e-05 6.4689e-09)
(-3.6784e-05 -5.7522e-05 7.1095e-09)
(-3.36e-05 -6.1796e-05 7.6985e-09)
(-3.0077e-05 -6.5407e-05 8.2021e-09)
(-2.6328e-05 -6.8115e-05 8.57e-09)
(-2.2481e-05 -6.9643e-05 8.7565e-09)
(-1.8636e-05 -6.9701e-05 8.7424e-09)
(-1.4846e-05 -6.8065e-05 8.5335e-09)
(-1.1124e-05 -6.4692e-05 8.1541e-09)
(-7.4919e-06 -5.9777e-05 7.6198e-09)
(-4.0108e-06 -5.3669e-05 6.9291e-09)
(-7.9241e-07 -4.6727e-05 6.105e-09)
(2.0362e-06 -3.9242e-05 5.1947e-09)
(4.3798e-06 -3.1433e-05 4.2409e-09)
(6.2062e-06 -2.3506e-05 3.2895e-09)
(7.5491e-06 -1.5703e-05 2.3808e-09)
(8.4887e-06 -8.3484e-06 1.5428e-09)
(9.1164e-06 -1.8488e-06 8.1096e-10)
(9.4976e-06 3.358e-06 2.2841e-10)
(9.6502e-06 6.9107e-06 -1.7233e-10)
(9.5517e-06 8.6637e-06 -3.8693e-10)
(9.1701e-06 8.7676e-06 -4.3963e-10)
(8.5019e-06 7.6248e-06 -3.7351e-10)
(7.5929e-06 5.7578e-06 -2.3936e-10)
(6.5238e-06 3.6719e-06 -8.6456e-11)
(5.3687e-06 1.7776e-06 4.407e-11)
(4.1537e-06 3.8268e-07 1.2294e-10)
(2.8582e-06 -3.2817e-07 1.3546e-10)
(1.464e-06 -3.7061e-07 8.6302e-11)
(0 0 0)
(0 0 0)
(-7.3156e-06 -1.183e-06 1.4669e-07)
(-1.3837e-05 -1.7227e-06 2.1379e-07)
(-1.9191e-05 -1.5388e-06 1.9144e-07)
(-2.3535e-05 -1.1856e-06 1.4841e-07)
(-2.727e-05 -1.3302e-06 1.6741e-07)
(-3.0687e-05 -2.2293e-06 2.806e-07)
(-3.3857e-05 -3.7517e-06 4.719e-07)
(-3.6744e-05 -5.704e-06 7.1711e-07)
(-3.9297e-05 -8.0016e-06 1.0054e-06)
(-4.1474e-05 -1.064e-05 1.336e-06)
(-4.3236e-05 -1.3633e-05 1.7104e-06)
(-4.455e-05 -1.6982e-05 2.129e-06)
(-4.5382e-05 -2.0674e-05 2.5906e-06)
(-4.5703e-05 -2.4688e-05 3.0921e-06)
(-4.5496e-05 -2.8989e-05 3.6291e-06)
(-4.4755e-05 -3.3514e-05 4.1936e-06)
(-4.3485e-05 -3.8164e-05 4.7735e-06)
(-4.1701e-05 -4.2812e-05 5.3527e-06)
(-3.9421e-05 -4.7319e-05 5.914e-06)
(-3.6674e-05 -5.155e-05 6.4405e-06)
(-3.3513e-05 -5.5359e-05 6.9142e-06)
(-3.0018e-05 -5.8568e-05 7.313e-06)
(-2.6299e-05 -6.0961e-05 7.6102e-06)
(-2.2477e-05 -6.2295e-05 7.775e-06)
(-1.8647e-05 -6.232e-05 7.7767e-06)
(-1.4865e-05 -6.0845e-05 7.5923e-06)
(-1.1152e-05 -5.784e-05 7.2184e-06)
(-7.5364e-06 -5.3469e-05 6.675e-06)
(-4.0807e-06 -4.8032e-05 5.9985e-06)
(-8.9023e-07 -4.1841e-05 5.2276e-06)
(1.9174e-06 -3.5156e-05 4.3948e-06)
(4.2534e-06 -2.818e-05 3.5256e-06)
(6.0863e-06 -2.1102e-05 2.6433e-06)
(7.4457e-06 -1.4146e-05 1.7755e-06)
(8.4044e-06 -7.6015e-06 9.5837e-07)
(9.0461e-06 -1.8261e-06 2.3714e-07)
(9.4323e-06 2.8005e-06 -3.4057e-07)
(9.5822e-06 5.97e-06 -7.37e-07)
(9.4792e-06 7.5606e-06 -9.3758e-07)
(9.0983e-06 7.7027e-06 -9.5802e-07)
(8.4399e-06 6.7423e-06 -8.4052e-07)
(7.5472e-06 5.1321e-06 -6.4122e-07)
(6.4936e-06 3.315e-06 -4.1555e-07)
(5.3465e-06 1.6558e-06 -2.0924e-07)
(4.132e-06 4.266e-07 -5.6294e-08)
(2.8369e-06 -2.1419e-07 2.3919e-08)
(1.4501e-06 -2.8332e-07 3.3668e-08)
(0 0 0)
(0 0 0)
(-7.1968e-06 -9.9078e-07 3.1989e-07)
(-1.3658e-05 -1.4597e-06 4.7141e-07)
(-1.9024e-05 -1.3419e-06 4.3383e-07)
(-2.3419e-05 -1.0859e-06 3.5224e-07)
(-2.7197e-05 -1.2383e-06 4.0299e-07)
(-3.063e-05 -2.0247e-06 6.5798e-07)
(-3.38e-05 -3.3533e-06 1.0869e-06)
(-3.6681e-05 -5.0682e-06 1.6398e-06)
(-3.9227e-05 -7.0938e-06 2.2927e-06)
(-4.1396e-05 -9.4219e-06 3.0429e-06)
(-4.3152e-05 -1.2061e-05 3.893e-06)
(-4.446e-05 -1.5013e-05 4.8434e-06)
(-4.5287e-05 -1.8267e-05 5.891e-06)
(-4.5605e-05 -2.1803e-05 7.0291e-06)
(-4.5396e-05 -2.559e-05 8.2471e-06)
(-4.4656e-05 -2.9571e-05 9.5271e-06)
(-4.3389e-05 -3.3659e-05 1.0841e-05)
(-4.1608e-05 -3.7744e-05 1.2154e-05)
(-3.9335e-05 -4.1704e-05 1.3426e-05)
(-3.6599e-05 -4.542e-05 1.4618e-05)
(-3.3453e-05 -4.876e-05 1.569e-05)
(-2.9977e-05 -5.1567e-05 1.659e-05)
(-2.6279e-05 -5.3653e-05 1.7258e-05)
(-2.2474e-05 -5.4804e-05 1.7625e-05)
(-1.8654e-05 -5.4806e-05 1.7624e-05)
(-1.4878e-05 -5.3502e-05 1.7203e-05)
(-1.1171e-05 -5.0865e-05 1.6357e-05)
(-7.5673e-06 -4.7039e-05 1.5129e-05)
(-4.129e-06 -4.2274e-05 1.3599e-05)
(-9.5748e-07 -3.6841e-05 1.1855e-05)
(1.8357e-06 -3.0968e-05 9.9689e-06)
(4.1664e-06 -2.4838e-05 8.0004e-06)
(6.0037e-06 -1.8622e-05 6.0038e-06)
(7.3744e-06 -1.2519e-05 4.0429e-06)
(8.3459e-06 -6.7848e-06 2.1998e-06)
(8.9971e-06 -1.7296e-06 5.747e-07)
(9.3865e-06 2.3205e-06 -7.2759e-07)
(9.5344e-06 5.104e-06 -1.6239e-06)
(9.4281e-06 6.5196e-06 -2.0822e-06)
(9.0476e-06 6.6789e-06 -2.1379e-06)
(8.3957e-06 5.8771e-06 -1.885e-06)
(7.5141e-06 4.5025e-06 -1.4474e-06)
(6.4714e-06 2.9384e-06 -9.4805e-07)
(5.3303e-06 1.5032e-06 -4.8889e-07)
(4.1168e-06 4.3425e-07 -1.4585e-07)
(2.8225e-06 -1.3357e-07 3.7724e-08)
(1.4408e-06 -2.1615e-07 6.6565e-08)
(0 0 0)
(0 0 0)
(-7.1263e-06 -8.1659e-07 4.879e-07)
(-1.355e-05 -1.2117e-06 7.2382e-07)
(-1.8922e-05 -1.1328e-06 6.7648e-07)
(-2.3346e-05 -9.4229e-07 5.6297e-07)
(-2.715e-05 -1.0849e-06 6.4896e-07)
(-3.0594e-05 -1.7499e-06 1.0457e-06)
(-3.3764e-05 -2.8693e-06 1.7114e-06)
(-3.664e-05 -4.3183e-06 2.5719e-06)
(-3.9182e-05 -6.0339e-06 3.5908e-06)
(-4.1347e-05 -8.0069e-06 4.7627e-06)
(-4.3099e-05 -1.0243e-05 6.0912e-06)
(-4.4403e-05 -1.2744e-05 7.5763e-06)
(-4.5227e-05 -1.55e-05 9.2128e-06)
(-4.5542e-05 -1.8494e-05 1.0991e-05)
(-4.5333e-05 -2.1699e-05 1.2893e-05)
(-4.4593e-05 -2.5067e-05 1.4892e-05)
(-4.3328e-05 -2.8524e-05 1.6943e-05)
(-4.155e-05 -3.1977e-05 1.8992e-05)
(-3.9281e-05 -3.5325e-05 2.0978e-05)
(-3.6552e-05 -3.8464e-05 2.2839e-05)
(-3.3415e-05 -4.1283e-05 2.451e-05)
(-2.9952e-05 -4.3649e-05 2.5912e-05)
(-2.6267e-05 -4.5402e-05 2.6949e-05)
(-2.2471e-05 -4.6363e-05 2.7518e-05)
(-1.8659e-05 -4.6355e-05 2.7511e-05)
(-1.4886e-05 -4.5247e-05 2.6854e-05)
(-1.1184e-05 -4.3021e-05 2.5533e-05)
(-7.5873e-06 -3.9793e-05 2.3619e-05)
(-4.1597e-06 -3.5772e-05 2.1234e-05)
(-9.9972e-07 -3.1184e-05 1.8513e-05)
(1.7846e-06 -2.6221e-05 1.557e-05)
(4.1119e-06 -2.104e-05 1.2498e-05)
(5.9519e-06 -1.5789e-05 9.383e-06)
(7.3294e-06 -1.0636e-05 6.3266e-06)
(8.3087e-06 -5.7982e-06 3.4566e-06)
(8.9656e-06 -1.5357e-06 9.2758e-07)
(9.357e-06 1.8802e-06 -1.0996e-06)
(9.5038e-06 4.2331e-06 -2.497e-06)
(9.3958e-06 5.4397e-06 -3.2154e-06)
(9.0157e-06 5.5934e-06 -3.3101e-06)
(8.3677e-06 4.9394e-06 -2.9261e-06)
(7.4928e-06 3.8009e-06 -2.2547e-06)
(6.4569e-06 2.498e-06 -1.4851e-06)
(5.3198e-06 1.2982e-06 -7.7525e-07)
(4.1075e-06 4.0026e-07 -2.4277e-07)
(2.814e-06 -8.3108e-08 4.5218e-08)
(1.4354e-06 -1.6507e-07 9.5785e-08)
(0 0 0)
(0 0 0)
(-7.1031e-06 -6.5192e-07 6.5194e-07)
(-1.3515e-05 -9.6957e-07 9.696e-07)
(-1.8888e-05 -9.1107e-07 9.111e-07)
(-2.3321e-05 -7.6437e-07 7.6439e-07)
(-2.7134e-05 -8.8312e-07 8.8311e-07)
(-3.0582e-05 -1.4178e-06 1.4177e-06)
(-3.3751e-05 -2.315e-06 2.3149e-06)
(-3.6627e-05 -3.4768e-06 3.4767e-06)
(-3.9167e-05 -4.8533e-06 4.8533e-06)
(-4.133e-05 -6.4371e-06 6.4371e-06)
(-4.3081e-05 -8.2324e-06 8.2325e-06)
(-4.4383e-05 -1.0239e-05 1.024e-05)
(-4.5206e-05 -1.2451e-05 1.2451e-05)
(-4.5521e-05 -1.4854e-05 1.4854e-05)
(-4.5312e-05 -1.7425e-05 1.7425e-05)
(-4.4572e-05 -2.0126e-05 2.0127e-05)
(-4.3307e-05 -2.2898e-05 2.2899e-05)
(-4.153e-05 -2.5667e-05 2.5668e-05)
(-3.9262e-05 -2.8351e-05 2.8352e-05)
(-3.6536e-05 -3.0867e-05 3.0868e-05)
(-3.3403e-05 -3.3125e-05 3.3126e-05)
(-2.9944e-05 -3.5018e-05 3.502e-05)
(-2.6262e-05 -3.642e-05 3.6421e-05)
(-2.2471e-05 -3.7186e-05 3.7188e-05)
(-1.8661e-05 -3.7176e-05 3.7178e-05)
(-1.4889e-05 -3.6287e-05 3.6288e-05)
(-1.1189e-05 -3.4503e-05 3.4504e-05)
(-7.5944e-06 -3.1916e-05 3.1918e-05)
(-4.1703e-06 -2.8695e-05 2.8696e-05)
(-1.0142e-06 -2.5018e-05 2.5019e-05)
(1.7671e-06 -2.1041e-05 2.1041e-05)
(4.0932e-06 -1.6888e-05 1.6888e-05)
(5.9341e-06 -1.2679e-05 1.2679e-05)
(7.3139e-06 -8.5501e-06 8.55e-06)
(8.2959e-06 -4.6743e-06 4.6741e-06)
(8.9546e-06 -1.2597e-06 1.2593e-06)
(9.3468e-06 1.4773e-06 -1.4777e-06)
(9.4933e-06 3.3645e-06 -3.3649e-06)
(9.3848e-06 4.3357e-06 -4.3361e-06)
(9.0047e-06 4.4657e-06 -4.4659e-06)
(8.3581e-06 3.9498e-06 -3.9499e-06)
(7.4854e-06 3.0455e-06 -3.0456e-06)
(6.4518e-06 2.0082e-06 -2.0081e-06)
(5.3162e-06 1.0509e-06 -1.0508e-06)
(4.1044e-06 3.3257e-07 -3.3239e-07)
(2.8112e-06 -5.6663e-08 5.6826e-08)
(1.4337e-06 -1.2664e-07 1.2674e-07)
(0 0 0)
(0 0 0)
(-7.1263e-06 -4.8787e-07 8.166e-07)
(-1.355e-05 -7.2378e-07 1.2118e-06)
(-1.8922e-05 -6.7644e-07 1.1328e-06)
(-2.3346e-05 -5.6294e-07 9.423e-07)
(-2.715e-05 -6.4896e-07 1.0849e-06)
(-3.0594e-05 -1.0458e-06 1.7499e-06)
(-3.3764e-05 -1.7114e-06 2.8692e-06)
(-3.664e-05 -2.572e-06 4.3182e-06)
(-3.9182e-05 -3.5908e-06 6.0338e-06)
(-4.1347e-05 -4.7627e-06 8.0069e-06)
(-4.3099e-05 -6.0911e-06 1.0243e-05)
(-4.4403e-05 -7.5761e-06 1.2744e-05)
(-4.5226e-05 -9.2125e-06 1.55e-05)
(-4.5542e-05 -1.099e-05 1.8495e-05)
(-4.5333e-05 -1.2892e-05 2.1699e-05)
(-4.4593e-05 -1.4891e-05 2.5067e-05)
(-4.3328e-05 -1.6942e-05 2.8525e-05)
(-4.155e-05 -1.8991e-05 3.1978e-05)
(-3.9281e-05 -2.0976e-05 3.5326e-05)
(-3.6552e-05 -2.2837e-05 3.8465e-05)
(-3.3415e-05 -2.4508e-05 4.1285e-05)
(-2.9952e-05 -2.591e-05 4.365e-05)
(-2.6267e-05 -2.6948e-05 4.5403e-05)
(-2.2472e-05 -2.7516e-05 4.6364e-05)
(-1.8659e-05 -2.7509e-05 4.6356e-05)
(-1.4886e-05 -2.6852e-05 4.5248e-05)
(-1.1184e-05 -2.5531e-05 4.3022e-05)
(-7.5875e-06 -2.3617e-05 3.9793e-05)
(-4.1598e-06 -2.1233e-05 3.5772e-05)
(-9.999e-07 -1.8512e-05 3.1184e-05)
(1.7844e-06 -1.5569e-05 2.6221e-05)
(4.1117e-06 -1.2497e-05 2.104e-05)
(5.9517e-06 -9.3828e-06 1.5788e-05)
(7.3292e-06 -6.3266e-06 1.0636e-05)
(8.3086e-06 -3.4568e-06 5.7978e-06)
(8.9655e-06 -9.2784e-07 1.5351e-06)
(9.3569e-06 1.0993e-06 -1.8808e-06)
(9.5038e-06 2.4967e-06 -4.2336e-06)
(9.3958e-06 3.2152e-06 -5.4402e-06)
(9.0157e-06 3.31e-06 -5.5938e-06)
(8.3677e-06 2.9261e-06 -4.9397e-06)
(7.4928e-06 2.2548e-06 -3.8011e-06)
(6.4569e-06 1.4853e-06 -2.4981e-06)
(5.3198e-06 7.7553e-07 -1.2982e-06)
(4.1075e-06 2.4305e-07 -4.0019e-07)
(2.814e-06 -4.4977e-08 8.3188e-08)
(1.4354e-06 -9.5647e-08 1.6512e-07)
(0 0 0)
(0 0 0)
(-7.1967e-06 -3.1986e-07 9.9079e-07)
(-1.3658e-05 -4.7136e-07 1.4597e-06)
(-1.9024e-05 -4.3378e-07 1.3419e-06)
(-2.3419e-05 -3.522e-07 1.0859e-06)
(-2.7197e-05 -4.0298e-07 1.2383e-06)
(-3.063e-05 -6.5801e-07 2.0246e-06)
(-3.38e-05 -1.087e-06 3.3533e-06)
(-3.668e-05 -1.6399e-06 5.0681e-06)
(-3.9227e-05 -2.2928e-06 7.0937e-06)
(-4.1396e-05 -3.0429e-06 9.4218e-06)
(-4.3152e-05 -3.8929e-06 1.2061e-05)
(-4.446e-05 -4.8432e-06 1.5013e-05)
(-4.5287e-05 -5.8907e-06 1.8267e-05)
(-4.5604e-05 -7.0286e-06 2.1804e-05)
(-4.5396e-05 -8.2465e-06 2.559e-05)
(-4.4656e-05 -9.5263e-06 2.9571e-05)
(-4.3389e-05 -1.084e-05 3.3659e-05)
(-4.1608e-05 -1.2152e-05 3.7744e-05)
(-3.9335e-05 -1.3424e-05 4.1705e-05)
(-3.6599e-05 -1.4617e-05 4.542e-05)
(-3.3453e-05 -1.5688e-05 4.8761e-05)
(-2.9977e-05 -1.6588e-05 5.1568e-05)
(-2.6279e-05 -1.7255e-05 5.3653e-05)
(-2.2474e-05 -1.7623e-05 5.4804e-05)
(-1.8655e-05 -1.7621e-05 5.4806e-05)
(-1.4878e-05 -1.7201e-05 5.3502e-05)
(-1.1172e-05 -1.6355e-05 5.0866e-05)
(-7.5675e-06 -1.5127e-05 4.7039e-05)
(-4.1293e-06 -1.3598e-05 4.2274e-05)
(-9.5784e-07 -1.1854e-05 3.6841e-05)
(1.8353e-06 -9.9681e-06 3.0968e-05)
(4.166e-06 -7.9999e-06 2.4838e-05)
(6.0033e-06 -6.0035e-06 1.8621e-05)
(7.374e-06 -4.0428e-06 1.2519e-05)
(8.3456e-06 -2.1999e-06 6.7842e-06)
(8.9969e-06 -5.7487e-07 1.729e-06)
(9.3863e-06 7.2739e-07 -2.3212e-06)
(9.5343e-06 1.6237e-06 -5.1047e-06)
(9.4281e-06 2.0821e-06 -6.5202e-06)
(9.0476e-06 2.1379e-06 -6.6794e-06)
(8.3957e-06 1.8851e-06 -5.8776e-06)
(7.5141e-06 1.4477e-06 -4.5029e-06)
(6.4715e-06 9.4838e-07 -2.9386e-06)
(5.3304e-06 4.8927e-07 -1.5033e-06)
(4.1169e-06 1.4623e-07 -4.3431e-07)
(2.8225e-06 -3.7415e-08 1.3357e-07)
(1.4408e-06 -6.6392e-08 2.1616e-07)
(0 0 0)
(0 0 0)
(-7.3156e-06 -1.4666e-07 1.183e-06)
(-1.3837e-05 -2.1374e-07 1.7227e-06)
(-1.9191e-05 -1.9137e-07 1.5388e-06)
(-2.3535e-05 -1.4836e-07 1.1856e-06)
(-2.727e-05 -1.6739e-07 1.3301e-06)
(-3.0686e-05 -2.8063e-07 2.2293e-06)
(-3.3856e-05 -4.7197e-07 3.7516e-06)
(-3.6744e-05 -7.172e-07 5.7039e-06)
(-3.9297e-05 -1.0055e-06 8.0014e-06)
(-4.1474e-05 -1.3361e-06 1.064e-05)
(-4.3236e-05 -1.7104e-06 1.3633e-05)
(-4.455e-05 -2.1289e-06 1.6982e-05)
(-4.5382e-05 -2.5903e-06 2.0674e-05)
(-4.5703e-05 -3.0918e-06 2.4688e-05)
(-4.5496e-05 -3.6285e-06 2.8989e-05)
(-4.4754e-05 -4.1929e-06 3.3515e-05)
(-4.3485e-05 -4.7726e-06 3.8165e-05)
(-4.1701e-05 -5.3516e-06 4.2812e-05)
(-3.9421e-05 -5.9127e-06 4.7319e-05)
(-3.6675e-05 -6.439e-06 5.155e-05)
(-3.3513e-05 -6.9124e-06 5.5359e-05)
(-3.0018e-05 -7.3111e-06 5.8568e-05)
(-2.6299e-05 -7.6082e-06 6.0961e-05)
(-2.2477e-05 -7.773e-06 6.2295e-05)
(-1.8647e-05 -7.7747e-06 6.2319e-05)
(-1.4865e-05 -7.5905e-06 6.0845e-05)
(-1.1152e-05 -7.2167e-06 5.7839e-05)
(-7.5367e-06 -6.6736e-06 5.3469e-05)
(-4.0812e-06 -5.9973e-06 4.8032e-05)
(-8.9075e-07 -5.2266e-06 4.1841e-05)
(1.9168e-06 -4.3941e-06 3.5155e-05)
(4.2528e-06 -3.5252e-06 2.8179e-05)
(6.0857e-06 -2.6431e-06 2.1101e-05)
(7.4452e-06 -1.7754e-06 1.4145e-05)
(8.404e-06 -9.5843e-07 7.6008e-06)
(9.0458e-06 -2.3726e-07 1.8253e-06)
(9.4321e-06 3.4044e-07 -2.8013e-06)
(9.582e-06 7.3692e-07 -5.9707e-06)
(9.4791e-06 9.376e-07 -7.5613e-06)
(9.0983e-06 9.5815e-07 -7.7034e-06)
(8.4399e-06 8.4077e-07 -6.7429e-06)
(7.5472e-06 6.4158e-07 -5.1326e-06)
(6.4937e-06 4.1599e-07 -3.3154e-06)
(5.3466e-06 2.0972e-07 -1.656e-06)
(4.1321e-06 5.6753e-08 -4.2676e-07)
(2.8369e-06 -2.3556e-08 2.1411e-07)
(1.4501e-06 -3.3467e-08 2.8329e-07)
(0 0 0)
(0 0 0)
(-7.4904e-06 -2.3057e-10 1.4093e-06)
(-1.4101e-05 -4.152e-10 2.0233e-06)
(-1.9434e-05 -5.4858e-10 1.7419e-06)
(-2.37e-05 -6.6694e-10 1.2536e-06)
(-2.7372e-05 -8.1624e-10 1.3743e-06)
(-3.0765e-05 -1.0166e-09 2.3901e-06)
(-3.3937e-05 -1.2585e-09 4.1121e-06)
(-3.6834e-05 -1.5229e-09 6.3003e-06)
(-3.9398e-05 -1.7892e-09 8.8623e-06)
(-4.1584e-05 -2.046e-09 1.1802e-05)
(-4.3356e-05 -2.3068e-09 1.5138e-05)
(-4.4679e-05 -2.5948e-09 1.8873e-05)
(-4.5518e-05 -2.9182e-09 2.2992e-05)
(-4.5844e-05 -3.2796e-09 2.7472e-05)
(-4.5639e-05 -3.6801e-09 3.2276e-05)
(-4.4896e-05 -4.1043e-09 3.7335e-05)
(-4.3623e-05 -4.5484e-09 4.2537e-05)
(-4.1833e-05 -5.0203e-09 4.7738e-05)
(-3.9544e-05 -5.4986e-09 5.2783e-05)
(-3.6784e-05 -5.9597e-09 5.7522e-05)
(-3.36e-05 -6.3943e-09 6.1796e-05)
(-3.0077e-05 -6.7836e-09 6.5407e-05)
(-2.6328e-05 -7.0899e-09 6.8115e-05)
(-2.2481e-05 -7.2729e-09 6.9642e-05)
(-1.8637e-05 -7.3197e-09 6.9701e-05)
(-1.4846e-05 -7.2348e-09 6.8065e-05)
(-1.1125e-05 -7.0181e-09 6.4691e-05)
(-7.4923e-06 -6.6593e-09 5.9776e-05)
(-4.0113e-06 -6.1513e-09 5.3668e-05)
(-7.9307e-07 -5.5215e-09 4.6726e-05)
(2.0354e-06 -4.8115e-09 3.9241e-05)
(4.3791e-06 -4.0435e-09 3.1433e-05)
(6.2055e-06 -3.2401e-09 2.3505e-05)
(7.5485e-06 -2.4343e-09 1.5702e-05)
(8.4882e-06 -1.6529e-09 8.3476e-06)
(9.116e-06 -9.2696e-10 1.848e-06)
(9.4973e-06 -3.0184e-10 -3.3588e-06)
(9.65e-06 1.8181e-10 -6.9115e-06)
(9.5516e-06 5.079e-10 -8.6645e-06)
(9.1701e-06 6.8575e-10 -8.7684e-06)
(8.502e-06 7.4143e-10 -7.6255e-06)
(7.593e-06 7.1019e-10 -5.7585e-06)
(6.5239e-06 6.2715e-10 -3.6724e-06)
(5.3688e-06 5.1856e-10 -1.778e-06)
(4.1538e-06 3.9845e-10 -3.8293e-07)
(2.8583e-06 2.7133e-10 3.2803e-07)
(1.464e-06 1.3781e-10 3.7054e-07)
(0 0 0)
(0 0 0)
(-7.3157e-06 -1.183e-06 -1.4612e-07)
(-1.3838e-05 -1.7227e-06 -2.1277e-07)
(-1.9192e-05 -1.5388e-06 -1.9013e-07)
(-2.3535e-05 -1.1856e-06 -1.4689e-07)
(-2.7271e-05 -1.3302e-06 -1.6563e-07)
(-3.0687e-05 -2.2294e-06 -2.7845e-07)
(-3.3857e-05 -3.7518e-06 -4.6924e-07)
(-3.6744e-05 -5.7041e-06 -7.1382e-07)
(-3.9297e-05 -8.0017e-06 -1.0014e-06)
(-4.1474e-05 -1.064e-05 -1.3312e-06)
(-4.3237e-05 -1.3633e-05 -1.7047e-06)
(-4.455e-05 -1.6982e-05 -2.1222e-06)
(-4.5382e-05 -2.0674e-05 -2.5826e-06)
(-4.5703e-05 -2.4689e-05 -3.0828e-06)
(-4.5496e-05 -2.899e-05 -3.6183e-06)
(-4.4755e-05 -3.3515e-05 -4.1812e-06)
(-4.3485e-05 -3.8165e-05 -4.7594e-06)
(-4.1701e-05 -4.2812e-05 -5.3368e-06)
(-3.9421e-05 -4.7319e-05 -5.8963e-06)
(-3.6675e-05 -5.1551e-05 -6.4212e-06)
(-3.3513e-05 -5.536e-05 -6.8933e-06)
(-3.0018e-05 -5.8569e-05 -7.2908e-06)
(-2.6299e-05 -6.0962e-05 -7.587e-06)
(-2.2476e-05 -6.2296e-05 -7.7514e-06)
(-1.8647e-05 -6.2321e-05 -7.7531e-06)
(-1.4864e-05 -6.0846e-05 -7.5693e-06)
(-1.1152e-05 -5.7841e-05 -7.1965e-06)
(-7.5363e-06 -5.347e-05 -6.6546e-06)
(-4.0806e-06 -4.8033e-05 -5.98e-06)
(-8.901e-07 -4.1842e-05 -5.2113e-06)
(1.9175e-06 -3.5156e-05 -4.3811e-06)
(4.2535e-06 -2.818e-05 -3.5145e-06)
(6.0864e-06 -2.1102e-05 -2.6347e-06)
(7.4458e-06 -1.4146e-05 -1.7694e-06)
(8.4045e-06 -7.6016e-06 -9.5454e-07)
(9.0462e-06 -1.8261e-06 -2.353e-07)
(9.4324e-06 2.8007e-06 3.4082e-07)
(9.5823e-06 5.9702e-06 7.3615e-07)
(9.4793e-06 7.5608e-06 9.3613e-07)
(9.0984e-06 7.7029e-06 9.5642e-07)
(8.44e-06 6.7424e-06 8.391e-07)
(7.5472e-06 5.1322e-06 6.4019e-07)
(6.4937e-06 3.315e-06 4.1497e-07)
(5.3465e-06 1.6557e-06 2.0907e-07)
(4.132e-06 4.2655e-07 5.6394e-08)
(2.8369e-06 -2.1425e-07 -2.3714e-08)
(1.4501e-06 -2.8336e-07 -3.3518e-08)
(0 0 0)
(0 0 0)
(-7.0661e-06 -8.7852e-07 4.4279e-10)
(-1.3459e-05 -1.3119e-06 7.4978e-10)
(-1.8836e-05 -1.2445e-06 9.0157e-10)
(-2.3285e-05 -1.058e-06 9.9986e-10)
(-2.7111e-05 -1.2253e-06 1.1848e-09)
(-3.0563e-05 -1.9555e-06 1.541e-09)
(-3.3733e-05 -3.1846e-06 2.0767e-09)
(-3.6606e-05 -4.7818e-06 2.7643e-09)
(-3.9144e-05 -6.677e-06 3.5771e-09)
(-4.1305e-05 -8.8584e-06 4.5048e-09)
(-4.3054e-05 -1.1332e-05 5.5555e-09)
(-4.4354e-05 -1.4097e-05 6.7439e-09)
(-4.5175e-05 -1.7145e-05 8.0744e-09)
(-4.5489e-05 -2.0457e-05 9.5395e-09)
(-4.5279e-05 -2.4002e-05 1.1129e-08)
(-4.454e-05 -2.7727e-05 1.2826e-08)
(-4.3276e-05 -3.1551e-05 1.46e-08)
(-4.15e-05 -3.5372e-05 1.6398e-08)
(-3.9234e-05 -3.9077e-05 1.8157e-08)
(-3.651e-05 -4.2551e-05 1.9814e-08)
(-3.3382e-05 -4.5671e-05 2.1308e-08)
(-2.9928e-05 -4.8287e-05 2.2557e-08)
(-2.6253e-05 -5.0223e-05 2.3458e-08)
(-2.2467e-05 -5.1281e-05 2.3902e-08)
(-1.8661e-05 -5.1266e-05 2.3815e-08)
(-1.4893e-05 -5.0038e-05 2.3192e-08)
(-1.1196e-05 -4.7576e-05 2.2072e-08)
(-7.6059e-06 -4.4008e-05 2.0486e-08)
(-4.1879e-06 -3.9562e-05 1.8487e-08)
(-1.038e-06 -3.4487e-05 1.6171e-08)
(1.7388e-06 -2.8995e-05 1.3649e-08)
(4.0631e-06 -2.3264e-05 1.102e-08)
(5.9049e-06 -1.7457e-05 8.3812e-09)
(7.2879e-06 -1.1764e-05 5.8259e-09)
(8.2741e-06 -6.4247e-06 3.4555e-09)
(8.9368e-06 -1.7245e-06 1.3858e-09)
(9.3314e-06 2.0403e-06 -2.7015e-10)
(9.4789e-06 4.6355e-06 -1.4267e-09)
(9.371e-06 5.9717e-06 -2.0527e-09)
(8.9927e-06 6.1509e-06 -2.1956e-09)
(8.3492e-06 5.4406e-06 -1.9695e-09)
(7.4801e-06 4.1941e-06 -1.5189e-09)
(6.4486e-06 2.7637e-06 -9.8746e-10)
(5.313e-06 1.4452e-06 -4.9631e-10)
(4.0997e-06 4.5822e-07 -1.3386e-10)
(2.8058e-06 -7.5383e-08 5.4149e-11)
(1.43e-06 -1.7188e-07 7.7219e-11)
(0 0 0)
(0 0 0)
(-6.9599e-06 -7.1553e-07 1.4424e-07)
(-1.3295e-05 -1.0809e-06 2.1782e-07)
(-1.8679e-05 -1.0523e-06 2.1197e-07)
(-2.3169e-05 -9.3014e-07 1.8743e-07)
(-2.7033e-05 -1.091e-06 2.2013e-07)
(-3.0504e-05 -1.7109e-06 3.4507e-07)
(-3.3674e-05 -2.7497e-06 5.5374e-07)
(-3.6543e-05 -4.1059e-06 8.2577e-07)
(-3.9073e-05 -5.7207e-06 1.1495e-06)
(-4.1228e-05 -7.581e-06 1.5225e-06)
(-4.2969e-05 -9.6899e-06 1.9453e-06)
(-4.4264e-05 -1.2047e-05 2.4178e-06)
(-4.508e-05 -1.4645e-05 2.9384e-06)
(-4.5391e-05 -1.7466e-05 3.5039e-06)
(-4.5179e-05 -2.0485e-05 4.1088e-06)
(-4.444e-05 -2.3654e-05 4.7438e-06)
(-4.3179e-05 -2.6907e-05 5.3954e-06)
(-4.1407e-05 -3.0155e-05 6.0461e-06)
(-3.9148e-05 -3.3305e-05 6.6769e-06)
(-3.6435e-05 -3.6257e-05 7.2679e-06)
(-3.3321e-05 -3.8904e-05 7.7976e-06)
(-2.9887e-05 -4.1119e-05 8.2408e-06)
(-2.6232e-05 -4.2751e-05 8.5672e-06)
(-2.2462e-05 -4.3636e-05 8.7437e-06)
(-1.8667e-05 -4.361e-05 8.7379e-06)
(-1.4906e-05 -4.256e-05 8.5272e-06)
(-1.1217e-05 -4.047e-05 8.1086e-06)
(-7.6392e-06 -3.7446e-05 7.5032e-06)
(-4.238e-06 -3.3676e-05 6.7483e-06)
(-1.106e-06 -2.9367e-05 5.8855e-06)
(1.6574e-06 -2.47e-05 4.9513e-06)
(3.9765e-06 -1.9828e-05 3.9761e-06)
(5.8221e-06 -1.4895e-05 2.9885e-06)
(7.2153e-06 -1.0063e-05 2.0213e-06)
(8.2136e-06 -5.5364e-06 1.1151e-06)
(8.8855e-06 -1.5554e-06 3.1799e-07)
(9.284e-06 1.6341e-06 -3.2074e-07)
(9.431e-06 3.839e-06 -7.6267e-07)
(9.3216e-06 4.9872e-06 -9.935e-07)
(8.9447e-06 5.1634e-06 -1.0302e-06)
(8.3077e-06 4.5891e-06 -9.1676e-07)
(7.4487e-06 3.5583e-06 -7.1192e-07)
(6.4269e-06 2.3659e-06 -4.7452e-07)
(5.2967e-06 1.2617e-06 -2.5427e-07)
(4.0847e-06 4.3061e-07 -8.8077e-08)
(2.7922e-06 -2.6305e-08 3.7547e-09)
(1.4214e-06 -1.2343e-07 2.3889e-08)
(0 0 0)
(0 0 0)
(-6.8969e-06 -5.6592e-07 2.8427e-07)
(-1.3198e-05 -8.6089e-07 4.3227e-07)
(-1.8583e-05 -8.5095e-07 4.2701e-07)
(-2.3097e-05 -7.6886e-07 3.8569e-07)
(-2.6985e-05 -9.0851e-07 4.5595e-07)
(-3.0466e-05 -1.4112e-06 7.0812e-07)
(-3.3638e-05 -2.2504e-06 1.1282e-06)
(-3.6503e-05 -3.3485e-06 1.6775e-06)
(-3.9029e-05 -4.6585e-06 2.3327e-06)
(-4.118e-05 -6.1688e-06 3.0881e-06)
(-4.2917e-05 -7.8808e-06 3.9443e-06)
(-4.4208e-05 -9.7942e-06 4.9013e-06)
(-4.5021e-05 -1.1902e-05 5.9555e-06)
(-4.533e-05 -1.4192e-05 7.1004e-06)
(-4.5118e-05 -1.664e-05 8.3247e-06)
(-4.4379e-05 -1.921e-05 9.6098e-06)
(-4.3119e-05 -2.1846e-05 1.0928e-05)
(-4.135e-05 -2.4479e-05 1.2244e-05)
(-3.9095e-05 -2.7031e-05 1.352e-05)
(-3.6388e-05 -2.9423e-05 1.4715e-05)
(-3.3284e-05 -3.1566e-05 1.5786e-05)
(-2.9861e-05 -3.3356e-05 1.6681e-05)
(-2.6218e-05 -3.4673e-05 1.7338e-05)
(-2.2459e-05 -3.5382e-05 1.7692e-05)
(-1.8671e-05 -3.5354e-05 1.7678e-05)
(-1.4915e-05 -3.45e-05 1.725e-05)
(-1.123e-05 -3.2808e-05 1.6404e-05)
(-7.6601e-06 -3.0361e-05 1.5181e-05)
(-4.269e-06 -2.731e-05 1.3656e-05)
(-1.1477e-06 -2.3821e-05 1.1912e-05)
(1.6075e-06 -2.004e-05 1.0023e-05)
(3.9235e-06 -1.6093e-05 8.0499e-06)
(5.7713e-06 -1.2097e-05 6.053e-06)
(7.1706e-06 -8.1866e-06 4.0986e-06)
(8.176e-06 -4.5256e-06 2.2689e-06)
(8.8535e-06 -1.3075e-06 6.6043e-07)
(9.2544e-06 1.2711e-06 -6.2855e-07)
(9.4012e-06 3.057e-06 -1.5217e-06)
(9.291e-06 3.9935e-06 -1.9907e-06)
(8.9151e-06 4.1485e-06 -2.0695e-06)
(8.282e-06 3.6986e-06 -1.8463e-06)
(7.4291e-06 2.8785e-06 -1.4382e-06)
(6.4132e-06 1.9251e-06 -9.6312e-07)
(5.2864e-06 1.0392e-06 -5.2128e-07)
(4.0755e-06 3.6987e-07 -1.8687e-07)
(2.7841e-06 -2.2146e-09 -4.5417e-10)
(1.4164e-06 -8.8618e-08 4.3472e-08)
(0 0 0)
(0 0 0)
(-6.876e-06 -4.2378e-07 4.2382e-07)
(-1.3165e-05 -6.4607e-07 6.4613e-07)
(-1.8552e-05 -6.4161e-07 6.4168e-07)
(-2.3073e-05 -5.8371e-07 5.8378e-07)
(-2.6968e-05 -6.9148e-07 6.9154e-07)
(-3.0453e-05 -1.0708e-06 1.0708e-06)
(-3.3626e-05 -1.7027e-06 1.7027e-06)
(-3.649e-05 -2.5298e-06 2.5298e-06)
(-3.9015e-05 -3.5171e-06 3.5172e-06)
(-4.1163e-05 -4.6556e-06 4.6558e-06)
(-4.29e-05 -5.9462e-06 5.9466e-06)
(-4.4189e-05 -7.3886e-06 7.3891e-06)
(-4.5001e-05 -8.9775e-06 8.9782e-06)
(-4.5309e-05 -1.0703e-05 1.0704e-05)
(-4.5097e-05 -1.2548e-05 1.2549e-05)
(-4.4358e-05 -1.4485e-05 1.4486e-05)
(-4.3099e-05 -1.6471e-05 1.6473e-05)
(-4.1331e-05 -1.8454e-05 1.8456e-05)
(-3.9077e-05 -2.0377e-05 2.0379e-05)
(-3.6373e-05 -2.2178e-05 2.218e-05)
(-3.3272e-05 -2.3791e-05 2.3794e-05)
(-2.9853e-05 -2.5138e-05 2.5141e-05)
(-2.6214e-05 -2.6128e-05 2.6131e-05)
(-2.2458e-05 -2.666e-05 2.6663e-05)
(-1.8672e-05 -2.6638e-05 2.664e-05)
(-1.4918e-05 -2.5993e-05 2.5996e-05)
(-1.1235e-05 -2.4719e-05 2.4721e-05)
(-7.6672e-06 -2.2877e-05 2.2879e-05)
(-4.2796e-06 -2.058e-05 2.0581e-05)
(-1.1619e-06 -1.7952e-05 1.7953e-05)
(1.5906e-06 -1.5105e-05 1.5106e-05)
(3.9055e-06 -1.2132e-05 1.2133e-05)
(5.7541e-06 -9.1227e-06 9.1231e-06)
(7.1554e-06 -6.1783e-06 6.1785e-06)
(8.1633e-06 -3.4226e-06 3.4225e-06)
(8.8426e-06 -1.0006e-06 1.0003e-06)
(9.2444e-06 9.4034e-07 -9.407e-07)
(9.3911e-06 2.2857e-06 -2.2861e-06)
(9.2807e-06 2.9931e-06 -2.9935e-06)
(8.9051e-06 3.1136e-06 -3.1139e-06)
(8.2734e-06 2.7795e-06 -2.7798e-06)
(7.4225e-06 2.1667e-06 -2.1668e-06)
(6.4084e-06 1.4526e-06 -1.4526e-06)
(5.2828e-06 7.8816e-07 -7.8805e-07)
(4.0725e-06 2.8504e-07 -2.8489e-07)
(2.7814e-06 4.0171e-09 -3.87e-09)
(1.4147e-06 -6.3433e-08 6.3522e-08)
(0 0 0)
(0 0 0)
(-6.8968e-06 -2.8422e-07 5.6594e-07)
(-1.3198e-05 -4.322e-07 8.6093e-07)
(-1.8583e-05 -4.2692e-07 8.51e-07)
(-2.3097e-05 -3.856e-07 7.689e-07)
(-2.6984e-05 -4.5588e-07 9.0854e-07)
(-3.0466e-05 -7.0805e-07 1.4112e-06)
(-3.3638e-05 -1.1282e-06 2.2504e-06)
(-3.6503e-05 -1.6774e-06 3.3485e-06)
(-3.9029e-05 -2.3325e-06 4.6586e-06)
(-4.118e-05 -3.0878e-06 6.1689e-06)
(-4.2917e-05 -3.9439e-06 7.881e-06)
(-4.4208e-05 -4.9006e-06 9.7945e-06)
(-4.5021e-05 -5.9547e-06 1.1903e-05)
(-4.533e-05 -7.0994e-06 1.4192e-05)
(-4.5118e-05 -8.3234e-06 1.6641e-05)
(-4.4379e-05 -9.6082e-06 1.9211e-05)
(-4.3119e-05 -1.0926e-05 2.1848e-05)
(-4.135e-05 -1.2242e-05 2.4481e-05)
(-3.9095e-05 -1.3518e-05 2.7033e-05)
(-3.6388e-05 -1.4713e-05 2.9425e-05)
(-3.3284e-05 -1.5783e-05 3.1567e-05)
(-2.9861e-05 -1.6678e-05 3.3358e-05)
(-2.6218e-05 -1.7335e-05 3.4674e-05)
(-2.2459e-05 -1.7689e-05 3.5383e-05)
(-1.8671e-05 -1.7675e-05 3.5356e-05)
(-1.4915e-05 -1.7247e-05 3.4502e-05)
(-1.1231e-05 -1.6401e-05 3.2809e-05)
(-7.6602e-06 -1.5179e-05 3.0363e-05)
(-4.2692e-06 -1.3654e-05 2.7312e-05)
(-1.1479e-06 -1.191e-05 2.3822e-05)
(1.6073e-06 -1.0021e-05 2.0041e-05)
(3.9233e-06 -8.0489e-06 1.6094e-05)
(5.7712e-06 -6.0523e-06 1.2097e-05)
(7.1704e-06 -4.0982e-06 8.1866e-06)
(8.1759e-06 -2.2688e-06 4.5254e-06)
(8.8534e-06 -6.6059e-07 1.3071e-06)
(9.2544e-06 6.2826e-07 -1.2715e-06)
(9.4012e-06 1.5213e-06 -3.0575e-06)
(9.291e-06 1.9904e-06 -3.9939e-06)
(8.9151e-06 2.0693e-06 -4.1489e-06)
(8.2821e-06 1.8462e-06 -3.6989e-06)
(7.4291e-06 1.4382e-06 -2.8787e-06)
(6.4132e-06 9.6323e-07 -1.9252e-06)
(5.2864e-06 5.2148e-07 -1.0392e-06)
(4.0756e-06 1.871e-07 -3.6979e-07)
(2.7841e-06 6.5664e-10 2.3048e-09)
(1.4164e-06 -4.3353e-08 8.8676e-08)
(0 0 0)
(0 0 0)
(-6.9599e-06 -1.4419e-07 7.1554e-07)
(-1.3295e-05 -2.1773e-07 1.0809e-06)
(-1.8679e-05 -2.1186e-07 1.0523e-06)
(-2.3169e-05 -1.8733e-07 9.3017e-07)
(-2.7033e-05 -2.2004e-07 1.091e-06)
(-3.0504e-05 -3.4499e-07 1.7109e-06)
(-3.3674e-05 -5.5365e-07 2.7497e-06)
(-3.6542e-05 -8.2564e-07 4.1059e-06)
(-3.9073e-05 -1.1493e-06 5.7206e-06)
(-4.1228e-05 -1.5222e-06 7.581e-06)
(-4.2969e-05 -1.9448e-06 9.69e-06)
(-4.4264e-05 -2.4171e-06 1.2047e-05)
(-4.508e-05 -2.9375e-06 1.4645e-05)
(-4.539e-05 -3.5028e-06 1.7467e-05)
(-4.5179e-05 -4.1073e-06 2.0485e-05)
(-4.444e-05 -4.7421e-06 2.3655e-05)
(-4.3179e-05 -5.3933e-06 2.6908e-05)
(-4.1407e-05 -6.0437e-06 3.0156e-05)
(-3.9148e-05 -6.6741e-06 3.3306e-05)
(-3.6435e-05 -7.2648e-06 3.6258e-05)
(-3.3321e-05 -7.7943e-06 3.8905e-05)
(-2.9887e-05 -8.2373e-06 4.112e-05)
(-2.6232e-05 -8.5636e-06 4.2752e-05)
(-2.2462e-05 -8.7401e-06 4.3636e-05)
(-1.8668e-05 -8.7344e-06 4.3611e-05)
(-1.4907e-05 -8.5239e-06 4.256e-05)
(-1.1217e-05 -8.1055e-06 4.0471e-05)
(-7.6394e-06 -7.5004e-06 3.7447e-05)
(-4.2383e-06 -6.746e-06 3.3677e-05)
(-1.1063e-06 -5.8836e-06 2.9367e-05)
(1.657e-06 -4.9498e-06 2.47e-05)
(3.9762e-06 -3.975e-06 1.9828e-05)
(5.8218e-06 -2.9878e-06 1.4894e-05)
(7.215e-06 -2.0209e-06 1.0063e-05)
(8.2133e-06 -1.115e-06 5.536e-06)
(8.8853e-06 -3.1807e-07 1.5549e-06)
(9.2839e-06 3.2052e-07 -1.6346e-06)
(9.4309e-06 7.6241e-07 -3.8396e-06)
(9.3215e-06 9.9326e-07 -4.9876e-06)
(8.9447e-06 1.03e-06 -5.1638e-06)
(8.3077e-06 9.1671e-07 -4.5895e-06)
(7.4488e-06 7.1201e-07 -3.5585e-06)
(6.427e-06 4.7472e-07 -2.3661e-06)
(5.2967e-06 2.5455e-07 -1.2618e-06)
(4.0848e-06 8.8378e-08 -4.3061e-07)
(2.7922e-06 -3.5004e-09 2.6339e-08)
(1.4214e-06 -2.3744e-08 1.2346e-07)
(0 0 0)
(0 0 0)
(-7.0661e-06 -3.9218e-10 8.7852e-07)
(-1.3459e-05 -6.6008e-10 1.3119e-06)
(-1.8836e-05 -7.921e-10 1.2445e-06)
(-2.3284e-05 -8.9167e-10 1.058e-06)
(-2.711e-05 -1.0927e-09 1.2253e-06)
(-3.0563e-05 -1.4662e-09 1.9554e-06)
(-3.3732e-05 -2.0042e-09 3.1845e-06)
(-3.6606e-05 -2.6664e-09 4.7817e-06)
(-3.9144e-05 -3.4197e-09 6.6769e-06)
(-4.1305e-05 -4.2513e-09 8.8583e-06)
(-4.3054e-05 -5.1664e-09 1.1332e-05)
(-4.4354e-05 -6.1803e-09 1.4097e-05)
(-4.5175e-05 -7.3023e-09 1.7145e-05)
(-4.5489e-05 -8.5297e-09 2.0457e-05)
(-4.5279e-05 -9.8493e-09 2.4002e-05)
(-4.454e-05 -1.124e-08 2.7727e-05)
(-4.3276e-05 -1.268e-08 3.1551e-05)
(-4.15e-05 -1.414e-08 3.5372e-05)
(-3.9234e-05 -1.5578e-08 3.9077e-05)
(-3.651e-05 -1.6948e-08 4.2552e-05)
(-3.3382e-05 -1.8198e-08 4.5672e-05)
(-2.9928e-05 -1.9261e-08 4.8288e-05)
(-2.6254e-05 -2.0054e-08 5.0223e-05)
(-2.2467e-05 -2.0487e-08 5.1281e-05)
(-1.8662e-05 -2.0492e-08 5.1266e-05)
(-1.4893e-05 -2.0062e-08 5.0037e-05)
(-1.1196e-05 -1.9212e-08 4.7575e-05)
(-7.6062e-06 -1.7951e-08 4.4008e-05)
(-4.1883e-06 -1.6313e-08 3.9562e-05)
(-1.0385e-06 -1.4383e-08 3.4487e-05)
(1.7383e-06 -1.2257e-08 2.8995e-05)
(4.0626e-06 -1.0013e-08 2.3263e-05)
(5.9044e-06 -7.7244e-09 1.7456e-05)
(7.2874e-06 -5.469e-09 1.1763e-05)
(8.2738e-06 -3.3392e-09 6.4241e-06)
(8.9366e-06 -1.4407e-09 1.7239e-06)
(9.3312e-06 1.1838e-10 -2.0409e-06)
(9.4787e-06 1.2498e-09 -4.6361e-06)
(9.371e-06 1.914e-09 -5.9722e-06)
(8.9927e-06 2.1446e-09 -6.1514e-06)
(8.3492e-06 2.0359e-09 -5.4409e-06)