/*--------------------------------*- C++ -*----------------------------------*\
| =========                 |                                                 |
| \\      /  F ield         | OpenFOAM: The Open Source CFD Toolbox           |
|  \\    /   O peration     | Version:  4.1                                   |
|   \\  /    A nd           | Web:      www.OpenFOAM.org                      |
|    \\/     M anipulation  |                                                 |
\*---------------------------------------------------------------------------*/
FoamFile
{
    version     2.0;
    format      ascii;
    class       pointVectorField;
    location    "0.0064";
    object      pointDisplacement_Next_Iter1;
}
// * * * * * * * * * * * * * * * * * * * * * * * * * * * * * * * * * * * * * //

dimensions      [0 1 0 0 0 0 0];

internalField   uniform (0 0 0);

boundaryField
{
    inlet
    {
        type            fixedValue;
        value           uniform (0 0 0);
    }
    outlet
    {
        type            fixedValue;
        value           uniform (0 0 0);
    }
    mantle
    {
        type            fixedValue;
        value           nonuniform List<vector> 
1568
(
(7.8654e-13 -9.2397e-13 8.6176e-17)
(2.0141e-06 -2.3968e-06 2.2473e-10)
(1.9917e-06 -2.2665e-06 4.0736e-07)
(2.2263e-09 -1.4015e-08 -4.4732e-09)
(1.976e-06 -2.0269e-06 8.3238e-07)
(8.96e-13 -1.7037e-12 6.6693e-13)
(2.0143e-06 -1.8314e-06 1.2644e-06)
(3.3508e-09 -2.8431e-09 1.2735e-08)
(2.0466e-06 -1.618e-06 1.6184e-06)
(6.4341e-13 4.277e-13 -4.2742e-13)
(2.0143e-06 -1.2639e-06 1.8316e-06)
(3.3511e-09 -1.273e-08 2.8454e-09)
(1.9761e-06 -8.3183e-07 2.0269e-06)
(8.9596e-13 -6.6692e-13 1.704e-12)
(1.9918e-06 -4.0682e-07 2.2664e-06)
(2.2275e-09 4.4744e-09 1.4009e-08)
(2.0142e-06 2.6338e-10 2.3967e-06)
(7.8656e-13 1.0559e-16 9.2394e-13)
(3.7048e-06 -3.6589e-06 4.2805e-10)
(3.651e-06 -3.4091e-06 6.2061e-07)
(3.6198e-06 -3.016e-06 1.2448e-06)
(3.6861e-06 -2.7114e-06 1.871e-06)
(3.7578e-06 -2.4134e-06 2.4142e-06)
(3.6862e-06 -1.87e-06 2.7117e-06)
(3.6199e-06 -1.2437e-06 3.0159e-06)
(3.6512e-06 -6.1961e-07 3.4087e-06)
(3.705e-06 4.551e-10 3.6585e-06)
(4.8749e-06 -2.7161e-06 5.7047e-10)
(4.848e-06 -2.5917e-06 5.1201e-07)
(4.8274e-06 -2.307e-06 9.7134e-07)
(4.8667e-06 -1.9794e-06 1.3443e-06)
(4.9025e-06 -1.6638e-06 1.6647e-06)
(4.8668e-06 -1.343e-06 1.9797e-06)
(4.8276e-06 -9.6992e-07 2.3067e-06)
(4.8483e-06 -5.107e-07 2.591e-06)
(4.8752e-06 5.1411e-10 2.7154e-06)
(5.9284e-06 -1.9156e-07 6.687e-10)
(5.9269e-06 -2.2368e-07 9.2192e-08)
(5.9073e-06 -1.6393e-07 1.0494e-07)
(5.9091e-06 1.664e-08 -2.6558e-08)
(5.9033e-06 1.478e-07 -1.4692e-07)
(5.9092e-06 2.7984e-08 -1.6516e-08)
(5.9075e-06 -1.0333e-07 1.6333e-07)
(5.9271e-06 -9.0746e-08 2.2264e-07)
(5.9286e-06 4.7066e-10 1.9046e-07)
(7.2959e-06 3.0159e-06 7.5172e-10)
(7.281e-06 2.9812e-06 -5.7697e-07)
(7.2472e-06 2.875e-06 -1.1693e-06)
(7.223e-06 2.6743e-06 -1.7837e-06)
(7.2126e-06 2.3176e-06 -2.3168e-06)
(7.2232e-06 1.7851e-06 -2.6743e-06)
(7.2475e-06 1.1709e-06 -2.8759e-06)
(7.2813e-06 5.7846e-07 -2.9826e-06)
(7.2962e-06 3.8794e-10 -3.0173e-06)
(8.8875e-06 6.9552e-06 8.2207e-10)
(8.8563e-06 6.9089e-06 -1.4115e-06)
(8.8043e-06 6.5956e-06 -2.7393e-06)
(8.7726e-06 5.9002e-06 -3.9101e-06)
(8.7654e-06 4.9456e-06 -4.9449e-06)
(8.7728e-06 3.9115e-06 -5.9005e-06)
(8.8046e-06 2.7409e-06 -6.5968e-06)
(8.8565e-06 1.413e-06 -6.9107e-06)
(8.8877e-06 2.796e-10 -6.957e-06)
(1.0377e-05 1.1583e-05 8.7717e-10)
(1.0345e-05 1.1415e-05 -2.3319e-06)
(1.0292e-05 1.0774e-05 -4.4881e-06)
(1.0264e-05 9.5853e-06 -6.3658e-06)
(1.026e-05 8.0424e-06 -8.0418e-06)
(1.0264e-05 6.3671e-06 -9.5858e-06)
(1.0292e-05 4.4896e-06 -1.0776e-05)
(1.0345e-05 2.3333e-06 -1.1417e-05)
(1.0377e-05 1.0976e-10 -1.1585e-05)
(1.1503e-05 1.5877e-05 9.0402e-10)
(1.1471e-05 1.5568e-05 -3.1401e-06)
(1.1424e-05 1.4596e-05 -6.0709e-06)
(1.1406e-05 1.2969e-05 -8.6382e-06)
(1.1411e-05 1.0915e-05 -1.0915e-05)
(1.1406e-05 8.6393e-06 -1.2969e-05)
(1.1424e-05 6.0722e-06 -1.4598e-05)
(1.1471e-05 3.1413e-06 -1.557e-05)
(1.1503e-05 -9.8905e-11 -1.5879e-05)
(1.2115e-05 1.8469e-05 9.1828e-10)
(1.2101e-05 1.8004e-05 -3.5614e-06)
(1.2075e-05 1.6759e-05 -6.932e-06)
(1.2054e-05 1.4922e-05 -9.9705e-06)
(1.2048e-05 1.2646e-05 -1.2646e-05)
(1.2054e-05 9.9714e-06 -1.4923e-05)
(1.2075e-05 6.9331e-06 -1.6761e-05)
(1.2101e-05 3.5624e-06 -1.8006e-05)
(1.2115e-05 -3.3131e-10 -1.8471e-05)
(1.2322e-05 1.8006e-05 8.6377e-10)
(1.2329e-05 1.7465e-05 -3.4264e-06)
(1.2327e-05 1.6171e-05 -6.6684e-06)
(1.2299e-05 1.4391e-05 -9.6324e-06)
(1.2281e-05 1.225e-05 -1.225e-05)
(1.2299e-05 9.6331e-06 -1.4392e-05)
(1.2327e-05 6.6692e-06 -1.6173e-05)
(1.2328e-05 3.427e-06 -1.7467e-05)
(1.2322e-05 -5.1868e-10 -1.8008e-05)
(1.2304e-05 1.3582e-05 4.9246e-10)
(1.2333e-05 1.3214e-05 -2.6334e-06)
(1.2359e-05 1.2221e-05 -5.0711e-06)
(1.2328e-05 1.0788e-05 -7.2046e-06)
(1.2297e-05 9.0923e-06 -9.0929e-06)
(1.2328e-05 7.2051e-06 -1.0789e-05)
(1.2358e-05 5.0717e-06 -1.2223e-05)
(1.2333e-05 2.6338e-06 -1.3216e-05)
(1.2304e-05 -3.6136e-10 -1.3583e-05)
(1.2208e-05 5.8063e-06 7.9041e-10)
(1.2257e-05 5.6836e-06 -1.2023e-06)
(1.2309e-05 5.2314e-06 -2.2171e-06)
(1.228e-05 4.445e-06 -2.9398e-06)
(1.2242e-05 3.6061e-06 -3.6065e-06)
(1.228e-05 2.9401e-06 -4.4463e-06)
(1.2308e-05 2.2176e-06 -5.2333e-06)
(1.2256e-05 1.2025e-06 -5.6856e-06)
(1.2208e-05 -8.3298e-10 -5.808e-06)
(1.2091e-05 -4.2811e-06 8.9847e-10)
(1.2133e-05 -4.2123e-06 7.8029e-07)
(1.2187e-05 -4.0669e-06 1.6545e-06)
(1.2185e-05 -3.8707e-06 2.6176e-06)
(1.2165e-05 -3.4256e-06 3.4251e-06)
(1.2184e-05 -2.6175e-06 3.8696e-06)
(1.2187e-05 -1.6543e-06 4.0652e-06)
(1.2132e-05 -7.8024e-07 4.2105e-06)
(1.209e-05 -1.0202e-09 4.2796e-06)
(1.1803e-05 -1.5811e-05 7.6417e-10)
(1.184e-05 -1.5509e-05 3.0504e-06)
(1.1895e-05 -1.4664e-05 6.0749e-06)
(1.1907e-05 -1.3344e-05 8.9573e-06)
(1.1901e-05 -1.1451e-05 1.145e-05)
(1.1906e-05 -8.9574e-06 1.3343e-05)
(1.1894e-05 -6.0749e-06 1.4663e-05)
(1.1839e-05 -3.0505e-06 1.5507e-05)
(1.1802e-05 -9.2606e-10 1.581e-05)
(1.1131e-05 -2.8009e-05 3.6637e-10)
(1.118e-05 -2.7445e-05 5.4308e-06)
(1.1246e-05 -2.5854e-05 1.0715e-05)
(1.124e-05 -2.3354e-05 1.5648e-05)
(1.1217e-05 -1.9942e-05 1.9941e-05)
(1.124e-05 -1.5648e-05 2.3354e-05)
(1.1245e-05 -1.0715e-05 2.5853e-05)
(1.1178e-05 -5.431e-06 2.7444e-05)
(1.1129e-05 -5.4629e-10 2.8008e-05)
(9.8831e-06 -4.0242e-05 6.4818e-10)
(9.9448e-06 -3.9403e-05 7.8008e-06)
(1.0023e-05 -3.7056e-05 1.5347e-05)
(9.9972e-06 -3.3388e-05 2.2349e-05)
(9.9556e-06 -2.8464e-05 2.8464e-05)
(9.9965e-06 -2.2349e-05 3.3388e-05)
(1.0022e-05 -1.5347e-05 3.7056e-05)
(9.9433e-06 -7.8009e-06 3.9402e-05)
(9.8814e-06 -8.0463e-10 4.0241e-05)
(7.9412e-06 -5.211e-05 1.1424e-09)
(7.9798e-06 -5.1057e-05 1.0132e-05)
(8.0347e-06 -4.8013e-05 1.9879e-05)
(8.0363e-06 -4.3189e-05 2.8873e-05)
(8.0212e-06 -3.6744e-05 3.6745e-05)
(8.0357e-06 -2.8873e-05 4.3189e-05)
(8.0337e-06 -1.9879e-05 4.8013e-05)
(7.9785e-06 -1.0132e-05 5.1057e-05)
(7.9398e-06 -1.2233e-09 5.211e-05)
(5.2422e-06 -6.3646e-05 4.7701e-10)
(5.2609e-06 -6.2367e-05 1.2395e-05)
(5.3043e-06 -5.8631e-05 2.4284e-05)
(5.3219e-06 -5.2697e-05 3.5222e-05)
(5.3335e-06 -4.4796e-05 4.4796e-05)
(5.3215e-06 -3.5222e-05 5.2697e-05)
(5.3036e-06 -2.4284e-05 5.8632e-05)
(5.2601e-06 -1.2395e-05 6.2367e-05)
(5.2412e-06 -4.8564e-10 6.3646e-05)
(1.8834e-06 -7.4917e-05 7.3112e-10)
(1.9254e-06 -7.3393e-05 1.4597e-05)
(1.9828e-06 -6.8967e-05 2.8593e-05)
(1.9837e-06 -6.1948e-05 4.1428e-05)
(1.9666e-06 -5.2661e-05 5.2661e-05)
(1.9836e-06 -4.1427e-05 6.1949e-05)
(1.9826e-06 -2.8593e-05 6.8967e-05)
(1.9251e-06 -1.4597e-05 7.3393e-05)
(1.883e-06 -7.2217e-10 7.4916e-05)
(-1.7769e-06 -8.5683e-05 1.4883e-10)
(-1.7114e-06 -8.3913e-05 1.6679e-05)
(-1.6388e-06 -7.8796e-05 3.2678e-05)
(-1.6647e-06 -7.0774e-05 4.7348e-05)
(-1.7107e-06 -6.0171e-05 6.0171e-05)
(-1.6647e-06 -4.7347e-05 7.0774e-05)
(-1.6387e-06 -3.2678e-05 7.8796e-05)
(-1.7113e-06 -1.6679e-05 8.3912e-05)
(-1.7769e-06 -1.6415e-10 8.5682e-05)
(-5.3925e-06 -9.5278e-05 -1.8947e-10)
(-5.3456e-06 -9.3244e-05 1.8483e-05)
(-5.2931e-06 -8.7499e-05 3.6246e-05)
(-5.3118e-06 -7.861e-05 5.2597e-05)
(-5.3442e-06 -6.6888e-05 6.6889e-05)
(-5.3117e-06 -5.2597e-05 7.861e-05)
(-5.2929e-06 -3.6246e-05 8.7499e-05)
(-5.3454e-06 -1.8482e-05 9.3242e-05)
(-5.3925e-06 1.196e-10 9.5276e-05)
(-8.9369e-06 -0.0001024 -1.5114e-10)
(-8.9127e-06 -0.00010014 1.9816e-05)
(-8.8811e-06 -9.3928e-05 3.889e-05)
(-8.8973e-06 -8.4404e-05 5.6481e-05)
(-8.9112e-06 -7.1874e-05 7.1874e-05)
(-8.8972e-06 -5.6481e-05 8.4403e-05)
(-8.881e-06 -3.8889e-05 9.3927e-05)
(-8.9127e-06 -1.9815e-05 0.00010014)
(-8.9369e-06 1.9706e-11 0.0001024)
(-1.2514e-05 -0.00010587 -4.0175e-10)
(-1.2508e-05 -0.00010362 2.0547e-05)
(-1.2505e-05 -9.7253e-05 4.0289e-05)
(-1.2515e-05 -8.7358e-05 5.8444e-05)
(-1.2523e-05 -7.4318e-05 7.4317e-05)
(-1.2515e-05 -5.8444e-05 8.7357e-05)
(-1.2504e-05 -4.0289e-05 9.7251e-05)
(-1.2508e-05 -2.0547e-05 0.00010362)
(-1.2514e-05 2.2724e-10 0.00010587)
(-1.6302e-05 -0.00010611 -3.7328e-10)
(-1.6314e-05 -0.00010393 2.066e-05)
(-1.6331e-05 -9.7609e-05 4.0475e-05)
(-1.6346e-05 -8.7654e-05 5.8628e-05)
(-1.6347e-05 -7.4509e-05 7.4509e-05)
(-1.6346e-05 -5.8628e-05 8.7653e-05)
(-1.6331e-05 -4.0474e-05 9.7607e-05)
(-1.6314e-05 -2.0659e-05 0.00010392)
(-1.6302e-05 1.4599e-10 0.00010611)
(-2.0394e-05 -0.00010388 -4.4146e-10)
(-2.0402e-05 -0.00010176 2.0229e-05)
(-2.0424e-05 -9.562e-05 3.9631e-05)
(-2.045e-05 -8.5892e-05 5.7434e-05)
(-2.0464e-05 -7.3018e-05 7.3018e-05)
(-2.045e-05 -5.7434e-05 8.5891e-05)
(-2.0424e-05 -3.9631e-05 9.5618e-05)
(-2.0402e-05 -2.0229e-05 0.00010176)
(-2.0394e-05 1.5686e-10 0.00010388)
(-2.4591e-05 -9.9792e-05 -5.7936e-10)
(-2.4595e-05 -9.7748e-05 1.9407e-05)
(-2.4618e-05 -9.1866e-05 3.805e-05)
(-2.4648e-05 -8.2564e-05 5.5205e-05)
(-2.4668e-05 -7.0224e-05 7.0223e-05)
(-2.4648e-05 -5.5205e-05 8.2562e-05)
(-2.4618e-05 -3.805e-05 9.1864e-05)
(-2.4595e-05 -1.9407e-05 9.7746e-05)
(-2.4591e-05 2.1335e-10 9.979e-05)
(-2.8601e-05 -9.4293e-05 -6.571e-10)
(-2.8615e-05 -9.2363e-05 1.8322e-05)
(-2.8644e-05 -8.6812e-05 3.5956e-05)
(-2.8659e-05 -7.8068e-05 5.2214e-05)
(-2.8663e-05 -6.643e-05 6.643e-05)
(-2.8659e-05 -5.2215e-05 7.8067e-05)
(-2.8644e-05 -3.5956e-05 8.6811e-05)
(-2.8615e-05 -1.8323e-05 9.2362e-05)
(-2.8601e-05 2.3026e-10 9.4292e-05)
(-3.2219e-05 -8.7919e-05 -7.8771e-10)
(-3.2246e-05 -8.6103e-05 1.7073e-05)
(-3.2286e-05 -8.0919e-05 3.3526e-05)
(-3.228e-05 -7.2817e-05 4.8726e-05)
(-3.2265e-05 -6.2002e-05 6.2001e-05)
(-3.228e-05 -4.8727e-05 7.2816e-05)
(-3.2287e-05 -3.3527e-05 8.0918e-05)
(-3.2246e-05 -1.7074e-05 8.6103e-05)
(-3.2219e-05 1.567e-10 8.7919e-05)
(-3.5342e-05 -8.0956e-05 -8.0462e-10)
(-3.5364e-05 -7.929e-05 1.5715e-05)
(-3.5398e-05 -7.4541e-05 3.0881e-05)
(-3.5398e-05 -6.7094e-05 4.4904e-05)
(-3.539e-05 -5.7145e-05 5.7145e-05)
(-3.5398e-05 -4.4905e-05 6.7094e-05)
(-3.5398e-05 -3.0882e-05 7.454e-05)
(-3.5364e-05 -1.5716e-05 7.929e-05)
(-3.5342e-05 7.6115e-11 8.0957e-05)
(-3.7943e-05 -7.3477e-05 -8.7538e-10)
(-3.7964e-05 -7.1959e-05 1.4253e-05)
(-3.7992e-05 -6.7658e-05 2.8023e-05)
(-3.7998e-05 -6.0925e-05 4.0777e-05)
(-3.7995e-05 -5.1913e-05 5.1912e-05)
(-3.7998e-05 -4.0778e-05 6.0925e-05)
(-3.7992e-05 -2.8025e-05 6.7658e-05)
(-3.7963e-05 -1.4254e-05 7.1959e-05)
(-3.7943e-05 5.4462e-11 7.3478e-05)
(-4.0043e-05 -6.5463e-05 -1.7588e-09)
(-4.0068e-05 -6.4129e-05 1.2701e-05)
(-4.0101e-05 -6.0319e-05 2.4978e-05)
(-4.0096e-05 -5.4338e-05 3.6363e-05)
(-4.0083e-05 -4.6299e-05 4.6299e-05)
(-4.0096e-05 -3.6364e-05 5.4338e-05)
(-4.0101e-05 -2.4979e-05 6.0319e-05)
(-4.0068e-05 -1.2702e-05 6.4129e-05)
(-4.0043e-05 8.5021e-10 6.5464e-05)
(-4.1651e-05 -5.7291e-05 -7.9856e-10)
(-4.1684e-05 -5.612e-05 1.1107e-05)
(-4.1722e-05 -5.279e-05 2.186e-05)
(-4.1702e-05 -4.7586e-05 3.1854e-05)
(-4.1676e-05 -4.0569e-05 4.0568e-05)
(-4.1702e-05 -3.1855e-05 4.7585e-05)
(-4.1722e-05 -2.1861e-05 5.279e-05)
(-4.1683e-05 -1.1109e-05 5.612e-05)
(-4.1651e-05 -1.8114e-10 5.7291e-05)
(-4.2763e-05 -4.9319e-05 -7.0438e-10)
(-4.278e-05 -4.8337e-05 9.5792e-06)
(-4.2803e-05 -4.5511e-05 1.8851e-05)
(-4.2795e-05 -4.1027e-05 2.7457e-05)
(-4.2784e-05 -3.4966e-05 3.4965e-05)
(-4.2795e-05 -2.7458e-05 4.1026e-05)
(-4.2803e-05 -1.8853e-05 4.5511e-05)
(-4.278e-05 -9.5805e-06 4.8337e-05)
(-4.2762e-05 -3.1814e-10 4.932e-05)
(-4.3319e-05 -4.1808e-05 -5.3463e-10)
(-4.3325e-05 -4.0992e-05 8.1289e-06)
(-4.3336e-05 -3.8616e-05 1.5997e-05)
(-4.334e-05 -3.4829e-05 2.3304e-05)
(-4.334e-05 -2.9681e-05 2.968e-05)
(-4.334e-05 -2.3305e-05 3.4828e-05)
(-4.3336e-05 -1.5998e-05 3.8616e-05)
(-4.3325e-05 -8.1302e-06 4.0992e-05)
(-4.3319e-05 -5.0681e-10 4.1809e-05)
(-4.3285e-05 -3.4878e-05 -2.5165e-10)
(-4.3296e-05 -3.4193e-05 6.7716e-06)
(-4.3311e-05 -3.2219e-05 1.3339e-05)
(-4.3306e-05 -2.9083e-05 1.946e-05)
(-4.3299e-05 -2.4802e-05 2.4801e-05)
(-4.3306e-05 -1.9461e-05 2.9083e-05)
(-4.3311e-05 -1.334e-05 3.2219e-05)
(-4.3296e-05 -6.7729e-06 3.4193e-05)
(-4.3285e-05 -7.7232e-10 3.4879e-05)
(-4.27e-05 -2.8504e-05 -8.255e-11)
(-4.2721e-05 -2.792e-05 5.5101e-06)
(-4.2744e-05 -2.6298e-05 1.0879e-05)
(-4.2725e-05 -2.3773e-05 1.5919e-05)
(-4.2706e-05 -2.0313e-05 2.0312e-05)
(-4.2725e-05 -1.592e-05 2.3772e-05)
(-4.2744e-05 -1.088e-05 2.6298e-05)
(-4.2721e-05 -5.5114e-06 2.792e-05)
(-4.27e-05 -8.8878e-10 2.8504e-05)
(-4.1626e-05 -2.2696e-05 -2.0675e-10)
(-4.164e-05 -2.2258e-05 4.405e-06)
(-4.1655e-05 -2.1e-05 8.694e-06)
(-4.1642e-05 -1.8988e-05 1.2709e-05)
(-4.1628e-05 -1.6211e-05 1.621e-05)
(-4.1642e-05 -1.2711e-05 1.8988e-05)
(-4.1655e-05 -8.6952e-06 2.1e-05)
(-4.164e-05 -4.4062e-06 2.2258e-05)
(-4.1626e-05 -6.9583e-10 2.2696e-05)
(-4.0101e-05 -1.758e-05 3.9631e-10)
(-4.0112e-05 -1.7268e-05 3.4328e-06)
(-4.0119e-05 -1.6323e-05 6.7705e-06)
(-4.0111e-05 -1.4775e-05 9.8783e-06)
(-4.01e-05 -1.2596e-05 1.2595e-05)
(-4.0111e-05 -9.8793e-06 1.4775e-05)
(-4.0119e-05 -6.7716e-06 1.6323e-05)
(-4.0112e-05 -3.4337e-06 1.7269e-05)
(-4.0101e-05 -1.172e-09 1.7581e-05)
(-3.8116e-05 -1.3225e-05 1.1828e-09)
(-3.8131e-05 -1.2985e-05 2.5597e-06)
(-3.8144e-05 -1.2269e-05 5.0789e-06)
(-3.8127e-05 -1.1123e-05 7.4578e-06)
(-3.8111e-05 -9.5113e-06 9.5099e-06)
(-3.8127e-05 -7.4586e-06 1.1123e-05)
(-3.8144e-05 -5.0798e-06 1.2269e-05)
(-3.813e-05 -2.5605e-06 1.2985e-05)
(-3.8116e-05 -1.7616e-09 1.3225e-05)
(-3.5729e-05 -9.5145e-06 8.5207e-10)
(-3.5738e-05 -9.2906e-06 1.7814e-06)
(-3.5742e-05 -8.7184e-06 3.599e-06)
(-3.5731e-05 -7.9571e-06 5.3824e-06)
(-3.5719e-05 -6.8794e-06 6.879e-06)
(-3.5731e-05 -5.383e-06 7.9567e-06)
(-3.5741e-05 -3.5996e-06 8.7182e-06)
(-3.5738e-05 -1.7819e-06 9.2904e-06)
(-3.5729e-05 -1.2075e-09 9.5143e-06)
(-3.2985e-05 -6.1962e-06 1.003e-09)
(-3.2945e-05 -5.9101e-06 1.0594e-06)
(-3.2903e-05 -5.4194e-06 2.2393e-06)
(-3.2935e-05 -5.0387e-06 3.4982e-06)
(-3.297e-05 -4.5137e-06 4.5134e-06)
(-3.2935e-05 -3.4985e-06 5.0384e-06)
(-3.2903e-05 -2.2396e-06 5.4192e-06)
(-3.2945e-05 -1.0597e-06 5.9098e-06)
(-3.2985e-05 -1.1605e-09 6.1959e-06)
(-2.9811e-05 -2.6829e-06 1.0742e-09)
(-2.9717e-05 -2.3588e-06 3.5376e-07)
(-2.9639e-05 -2.0211e-06 8.391e-07)
(-2.9705e-05 -2.0078e-06 1.4823e-06)
(-2.9794e-05 -2.0095e-06 2.0094e-06)
(-2.9705e-05 -1.4824e-06 2.0077e-06)
(-2.9639e-05 -8.3919e-07 2.0209e-06)
(-2.9717e-05 -3.5379e-07 2.3585e-06)
(-2.9811e-05 -1.0595e-09 2.6826e-06)
(-2.6399e-05 7.3556e-07 1.0634e-09)
(-2.6387e-05 7.226e-07 -1.827e-07)
(-2.6361e-05 6.9228e-07 -2.838e-07)
(-2.6377e-05 5.6663e-07 -3.2989e-07)
(-2.6385e-05 4.289e-07 -4.2892e-07)
(-2.6377e-05 3.2994e-07 -5.6673e-07)
(-2.6361e-05 2.839e-07 -6.9246e-07)
(-2.6387e-05 1.8283e-07 -7.2284e-07)
(-2.6399e-05 -9.2098e-10 -7.3583e-07)
(-2.374e-05 9.115e-07 9.8617e-10)
(-2.3791e-05 6.7086e-07 -1.4556e-07)
(-2.377e-05 5.7348e-07 -2.4185e-07)
(-2.3783e-05 5.1746e-07 -3.3524e-07)
(-2.3729e-05 5.729e-07 -5.7283e-07)
(-2.3783e-05 3.354e-07 -5.175e-07)
(-2.377e-05 2.4206e-07 -5.7364e-07)
(-2.3791e-05 1.4578e-07 -6.711e-07)
(-2.374e-05 -7.7372e-10 -9.1178e-07)
(-2.1894e-05 -3.6743e-06 8.6994e-10)
(-2.1743e-05 -3.3573e-06 4.9946e-07)
(-2.1597e-05 -2.8856e-06 1.1925e-06)
(-2.1734e-05 -2.7701e-06 2.0466e-06)
(-2.1881e-05 -2.649e-06 2.6491e-06)
(-2.1734e-05 -2.0464e-06 2.7701e-06)
(-2.1597e-05 -1.1922e-06 2.8854e-06)
(-2.1743e-05 -4.9921e-07 3.357e-06)
(-2.1894e-05 -6.4312e-10 3.674e-06)
(-1.8207e-05 -7.6875e-06 6.6298e-10)
(-1.7859e-05 -6.8141e-06 1.0508e-06)
(-1.7588e-05 -5.8035e-06 2.404e-06)
(-1.7849e-05 -5.5871e-06 4.0932e-06)
(-1.8192e-05 -5.4678e-06 5.4679e-06)
(-1.7849e-05 -4.0931e-06 5.5871e-06)
(-1.7588e-05 -2.4038e-06 5.8034e-06)
(-1.7859e-05 -1.0506e-06 6.8139e-06)
(-1.8207e-05 -4.8083e-10 7.6872e-06)
(-1.0423e-05 -5.7478e-06 3.3941e-10)
(-1.0268e-05 -5.2961e-06 8.5149e-07)
(-1.0115e-05 -4.6215e-06 1.9152e-06)
(-1.0263e-05 -4.3579e-06 3.1515e-06)
(-1.0414e-05 -4.0781e-06 4.0781e-06)
(-1.0263e-05 -3.1514e-06 4.3579e-06)
(-1.0115e-05 -1.9151e-06 4.6215e-06)
(-1.0268e-05 -8.514e-07 5.296e-06)
(-1.0423e-05 -2.4815e-10 5.7477e-06)
(-4.175e-12 -2.3167e-12 1.2078e-16)
(-1.7216e-08 -4.2726e-08 -3.466e-08)
(-4.9025e-12 -4.5109e-12 1.7166e-12)
(-1.695e-08 -6.4701e-09 5.4761e-08)
(-3.0643e-12 1.0456e-12 -1.0456e-12)
(-1.6949e-08 -5.4761e-08 6.4707e-09)
(-4.9025e-12 -1.7166e-12 4.5109e-12)
(-1.7217e-08 3.4661e-08 4.2725e-08)
(-4.175e-12 -9.1225e-17 2.3167e-12)
(1.9918e-06 4.0734e-07 2.2664e-06)
(2.2287e-09 -4.4742e-09 1.4009e-08)
(1.9761e-06 8.3235e-07 2.027e-06)
(8.959e-13 6.6707e-13 1.704e-12)
(2.0143e-06 1.2644e-06 1.8316e-06)
(3.3493e-09 1.2732e-08 2.847e-09)
(2.0466e-06 1.6185e-06 1.6185e-06)
(6.4353e-13 -4.2746e-13 -4.2748e-13)
(2.0143e-06 1.8317e-06 1.2644e-06)
(3.3503e-09 2.8462e-09 1.2734e-08)
(1.976e-06 2.0271e-06 8.3237e-07)
(8.9585e-13 1.7039e-12 6.6704e-13)
(1.9917e-06 2.2666e-06 4.0737e-07)
(2.2259e-09 1.401e-08 -4.4742e-09)
(2.014e-06 2.3969e-06 2.9269e-10)
(7.8651e-13 9.2403e-13 1.1293e-16)
(3.6512e-06 6.2052e-07 3.4088e-06)
(3.62e-06 1.2447e-06 3.016e-06)
(3.6863e-06 1.8709e-06 2.7118e-06)
(3.7578e-06 2.4143e-06 2.4142e-06)
(3.6862e-06 2.712e-06 1.871e-06)
(3.6199e-06 3.0163e-06 1.2447e-06)
(3.6511e-06 3.4092e-06 6.2059e-07)
(3.7048e-06 3.659e-06 5.2708e-10)
(4.8484e-06 5.1175e-07 2.591e-06)
(4.8277e-06 9.7101e-07 2.3068e-06)
(4.867e-06 1.3441e-06 1.9798e-06)
(4.9027e-06 1.6648e-06 1.6647e-06)
(4.867e-06 1.9801e-06 1.3441e-06)
(4.8277e-06 2.3073e-06 9.7111e-07)
(4.8483e-06 2.5917e-06 5.1187e-07)
(4.8752e-06 2.7161e-06 6.4254e-10)
(5.9273e-06 9.1714e-08 2.2267e-07)
(5.9078e-06 1.0433e-07 1.6337e-07)
(5.9096e-06 -2.6995e-08 -1.6513e-08)
(5.9038e-06 -1.4698e-07 -1.4703e-07)
(5.9096e-06 -1.6205e-08 -2.6901e-08)
(5.9079e-06 1.6392e-07 1.0449e-07)
(5.9274e-06 2.2336e-07 9.1915e-08)
(5.9289e-06 1.9117e-07 6.943e-10)
(7.2814e-06 -5.7767e-07 -2.9826e-06)
(7.2478e-06 -1.1702e-06 -2.876e-06)
(7.2236e-06 -1.7845e-06 -2.6746e-06)
(7.2132e-06 -2.3173e-06 -2.3173e-06)
(7.2237e-06 -2.6743e-06 -1.7843e-06)
(7.2479e-06 -2.8755e-06 -1.1699e-06)
(7.2817e-06 -2.9821e-06 -5.7733e-07)
(7.2966e-06 -3.0169e-06 7.4271e-10)
(8.8567e-06 -1.4124e-06 -6.9106e-06)
(8.8048e-06 -2.7404e-06 -6.5968e-06)
(8.7732e-06 -3.9112e-06 -5.9008e-06)
(8.766e-06 -4.9456e-06 -4.9455e-06)
(8.7732e-06 -5.9006e-06 -3.9108e-06)
(8.805e-06 -6.5964e-06 -2.7399e-06)
(8.8569e-06 -6.9101e-06 -1.4119e-06)
(8.8881e-06 -6.9567e-06 7.9477e-10)
(1.0345e-05 -2.333e-06 -1.1417e-05)
(1.0292e-05 -4.4893e-06 -1.0776e-05)
(1.0264e-05 -6.3669e-06 -9.5857e-06)
(1.0261e-05 -8.0424e-06 -8.0421e-06)
(1.0265e-05 -9.5855e-06 -6.3662e-06)
(1.0292e-05 -1.0775e-05 -4.4885e-06)
(1.0346e-05 -1.1416e-05 -2.3323e-06)
(1.0377e-05 -1.1585e-05 8.1239e-10)
(1.1471e-05 -3.1414e-06 -1.557e-05)
(1.1424e-05 -6.0721e-06 -1.4597e-05)
(1.1406e-05 -8.6391e-06 -1.2969e-05)
(1.1411e-05 -1.0915e-05 -1.0915e-05)
(1.1406e-05 -1.2969e-05 -8.6382e-06)
(1.1425e-05 -1.4596e-05 -6.0711e-06)
(1.1471e-05 -1.5569e-05 -3.1404e-06)
(1.1503e-05 -1.5878e-05 8.1084e-10)
(1.2101e-05 -3.5628e-06 -1.8006e-05)
(1.2075e-05 -6.9333e-06 -1.676e-05)
(1.2055e-05 -9.9714e-06 -1.4922e-05)
(1.2048e-05 -1.2646e-05 -1.2645e-05)
(1.2055e-05 -1.4922e-05 -9.9703e-06)
(1.2076e-05 -1.6759e-05 -6.9321e-06)
(1.2102e-05 -1.8005e-05 -3.5616e-06)
(1.2115e-05 -1.8469e-05 8.4956e-10)
(1.2328e-05 -3.4279e-06 -1.7467e-05)
(1.2327e-05 -6.6698e-06 -1.6172e-05)
(1.2299e-05 -9.6334e-06 -1.4391e-05)
(1.2281e-05 -1.225e-05 -1.225e-05)
(1.2299e-05 -1.4391e-05 -9.6322e-06)
(1.2328e-05 -1.6171e-05 -6.6683e-06)
(1.2329e-05 -1.7466e-05 -3.4264e-06)
(1.2323e-05 -1.8007e-05 8.3379e-10)
(1.2333e-05 -2.635e-06 -1.3215e-05)
(1.2359e-05 -5.0726e-06 -1.2222e-05)
(1.2328e-05 -7.2057e-06 -1.0788e-05)
(1.2297e-05 -9.0929e-06 -9.0923e-06)
(1.2329e-05 -1.0789e-05 -7.2043e-06)
(1.2359e-05 -1.2222e-05 -5.0709e-06)
(1.2334e-05 -1.3215e-05 -2.6334e-06)
(1.2305e-05 -1.3582e-05 1.1651e-09)
(1.2256e-05 -1.204e-06 -5.6848e-06)
(1.2308e-05 -2.2187e-06 -5.2321e-06)
(1.228e-05 -2.941e-06 -4.4452e-06)
(1.2242e-05 -3.607e-06 -3.6058e-06)
(1.2281e-05 -4.4461e-06 -2.9394e-06)
(1.2309e-05 -5.2326e-06 -2.2169e-06)
(1.2257e-05 -5.6847e-06 -1.2022e-06)
(1.2209e-05 -5.8074e-06 8.2013e-10)
(1.2132e-05 7.786e-07 4.2112e-06)
(1.2187e-05 1.653e-06 4.0664e-06)
(1.2184e-05 2.6164e-06 3.8707e-06)
(1.2165e-05 3.4246e-06 3.4259e-06)
(1.2185e-05 3.8696e-06 2.6181e-06)
(1.2188e-05 4.0656e-06 1.6549e-06)
(1.2133e-05 4.211e-06 7.8047e-07)
(1.2092e-05 4.2799e-06 9.2271e-10)
(1.1839e-05 3.0488e-06 1.5508e-05)
(1.1894e-05 6.0735e-06 1.4664e-05)
(1.1906e-05 8.9563e-06 1.3344e-05)
(1.19e-05 1.145e-05 1.1451e-05)
(1.1907e-05 1.3343e-05 8.9581e-06)
(1.1895e-05 1.4663e-05 6.0753e-06)
(1.184e-05 1.5507e-05 3.0506e-06)
(1.1803e-05 1.581e-05 7.9353e-10)
(1.1178e-05 5.4293e-06 2.7444e-05)
(1.1245e-05 1.0713e-05 2.5855e-05)
(1.124e-05 1.5647e-05 2.3355e-05)
(1.1217e-05 1.994e-05 1.9942e-05)
(1.124e-05 2.3353e-05 1.5649e-05)
(1.1245e-05 2.5853e-05 1.0715e-05)
(1.1179e-05 2.7443e-05 5.4311e-06)
(1.113e-05 2.8008e-05 4.277e-10)
(9.9432e-06 7.7994e-06 3.9403e-05)
(1.0021e-05 1.5346e-05 3.7057e-05)
(9.9961e-06 2.2348e-05 3.3389e-05)
(9.955e-06 2.8464e-05 2.8466e-05)
(9.9964e-06 3.3387e-05 2.235e-05)
(1.0022e-05 3.7055e-05 1.5347e-05)
(9.9441e-06 3.9401e-05 7.8011e-06)
(9.8825e-06 4.024e-05 7.7807e-10)
(7.9784e-06 1.0131e-05 5.1058e-05)
(8.0335e-06 1.9878e-05 4.8014e-05)
(8.0353e-06 2.8872e-05 4.319e-05)
(8.0205e-06 3.6743e-05 3.6746e-05)
(8.0355e-06 4.3188e-05 2.8874e-05)
(8.0339e-06 4.8012e-05 1.988e-05)
(7.9789e-06 5.1056e-05 1.0132e-05)
(7.9405e-06 5.2108e-05 1.378e-09)
(5.2599e-06 1.2394e-05 6.2368e-05)
(5.3034e-06 2.4284e-05 5.8632e-05)
(5.3211e-06 3.5221e-05 5.2698e-05)
(5.333e-06 4.4796e-05 4.4797e-05)
(5.3212e-06 5.2696e-05 3.5222e-05)
(5.3035e-06 5.863e-05 2.4285e-05)
(5.2602e-06 6.2366e-05 1.2396e-05)
(5.2415e-06 6.3644e-05 7.9358e-10)
(1.9249e-06 1.4597e-05 7.3393e-05)
(1.9824e-06 2.8592e-05 6.8968e-05)
(1.9832e-06 4.1427e-05 6.195e-05)
(1.9661e-06 5.2661e-05 5.2662e-05)
(1.9832e-06 6.1948e-05 4.1428e-05)
(1.9823e-06 6.8966e-05 2.8593e-05)
(1.9248e-06 7.3391e-05 1.4598e-05)
(1.8829e-06 7.4915e-05 1.0817e-09)
(-1.7114e-06 1.6679e-05 8.3912e-05)
(-1.639e-06 3.2677e-05 7.8797e-05)
(-1.665e-06 4.7347e-05 7.0775e-05)
(-1.7111e-06 6.017e-05 6.0171e-05)
(-1.6652e-06 7.0773e-05 4.7348e-05)
(-1.6393e-06 7.8795e-05 3.2678e-05)
(-1.7118e-06 8.3911e-05 1.6679e-05)
(-1.7773e-06 8.5681e-05 4.8637e-10)
(-5.3455e-06 1.8482e-05 9.3243e-05)
(-5.2931e-06 3.6246e-05 8.7499e-05)
(-5.312e-06 5.2597e-05 7.861e-05)
(-5.3446e-06 6.6889e-05 6.6889e-05)
(-5.3122e-06 7.861e-05 5.2597e-05)
(-5.2935e-06 8.7498e-05 3.6246e-05)
(-5.3461e-06 9.3242e-05 1.8483e-05)
(-5.3931e-06 9.5276e-05 8.3988e-11)
(-8.9128e-06 1.9816e-05 0.00010014)
(-8.8811e-06 3.889e-05 9.3927e-05)
(-8.8974e-06 5.6481e-05 8.4404e-05)
(-8.9115e-06 7.1874e-05 7.1874e-05)
(-8.8976e-06 8.4404e-05 5.6481e-05)
(-8.8815e-06 9.3927e-05 3.889e-05)
(-8.9133e-06 0.00010014 1.9816e-05)
(-8.9375e-06 0.0001024 4.8654e-11)
(-1.2508e-05 2.0547e-05 0.00010362)
(-1.2504e-05 4.0289e-05 9.7251e-05)
(-1.2515e-05 5.8444e-05 8.7357e-05)
(-1.2523e-05 7.4318e-05 7.4317e-05)
(-1.2515e-05 8.7357e-05 5.8444e-05)
(-1.2505e-05 9.7252e-05 4.0289e-05)
(-1.2509e-05 0.00010362 2.0547e-05)
(-1.2514e-05 0.00010587 -1.4481e-11)
(-1.6314e-05 2.066e-05 0.00010392)
(-1.6331e-05 4.0475e-05 9.7607e-05)
(-1.6346e-05 5.8628e-05 8.7652e-05)
(-1.6347e-05 7.4509e-05 7.4508e-05)
(-1.6346e-05 8.7653e-05 5.8628e-05)
(-1.6331e-05 9.7609e-05 4.0474e-05)
(-1.6315e-05 0.00010392 2.0659e-05)
(-1.6302e-05 0.00010611 -3.2867e-10)
(-2.0402e-05 2.0229e-05 0.00010176)
(-2.0424e-05 3.9631e-05 9.5618e-05)
(-2.045e-05 5.7434e-05 8.589e-05)
(-2.0464e-05 7.3018e-05 7.3016e-05)
(-2.045e-05 8.5891e-05 5.7433e-05)
(-2.0424e-05 9.562e-05 3.9631e-05)
(-2.0402e-05 0.00010176 2.0228e-05)
(-2.0395e-05 0.00010388 -4.5309e-10)
(-2.4595e-05 1.9407e-05 9.7745e-05)
(-2.4618e-05 3.805e-05 9.1863e-05)
(-2.4648e-05 5.5205e-05 8.2562e-05)
(-2.4668e-05 7.0224e-05 7.0222e-05)
(-2.4648e-05 8.2563e-05 5.5204e-05)
(-2.4618e-05 9.1866e-05 3.8049e-05)
(-2.4595e-05 9.7748e-05 1.9406e-05)
(-2.4591e-05 9.9792e-05 -6.195e-10)
(-2.8615e-05 1.8323e-05 9.2362e-05)
(-2.8644e-05 3.5957e-05 8.6811e-05)
(-2.8659e-05 5.2215e-05 7.8067e-05)
(-2.8663e-05 6.6431e-05 6.6429e-05)
(-2.8659e-05 7.8069e-05 5.2214e-05)
(-2.8644e-05 8.6813e-05 3.5956e-05)
(-2.8615e-05 9.2364e-05 1.8322e-05)
(-2.8601e-05 9.4294e-05 -7.6731e-10)
(-3.2246e-05 1.7074e-05 8.6103e-05)
(-3.2286e-05 3.3527e-05 8.0918e-05)
(-3.228e-05 4.8727e-05 7.2816e-05)
(-3.2265e-05 6.2003e-05 6.2001e-05)
(-3.228e-05 7.2818e-05 4.8726e-05)
(-3.2286e-05 8.0921e-05 3.3526e-05)
(-3.2246e-05 8.6105e-05 1.7073e-05)
(-3.2219e-05 8.7921e-05 -8.1918e-10)
(-3.5364e-05 1.5717e-05 7.929e-05)
(-3.5398e-05 3.0883e-05 7.454e-05)
(-3.5398e-05 4.4906e-05 6.7094e-05)
(-3.539e-05 5.7146e-05 5.7145e-05)
(-3.5397e-05 6.7095e-05 4.4905e-05)
(-3.5397e-05 7.4542e-05 3.0882e-05)
(-3.5363e-05 7.9292e-05 1.5716e-05)
(-3.5341e-05 8.0958e-05 -8.8285e-10)
(-3.7963e-05 1.4254e-05 7.1959e-05)
(-3.7992e-05 2.8025e-05 6.7658e-05)
(-3.7998e-05 4.0779e-05 6.0925e-05)
(-3.7994e-05 5.1913e-05 5.1912e-05)
(-3.7997e-05 6.0926e-05 4.0778e-05)
(-3.7992e-05 6.766e-05 2.8024e-05)
(-3.7963e-05 7.196e-05 1.4253e-05)
(-3.7942e-05 7.3479e-05 -8.2356e-10)
(-4.0068e-05 1.2702e-05 6.413e-05)
(-4.0101e-05 2.4979e-05 6.0319e-05)
(-4.0096e-05 3.6364e-05 5.4338e-05)
(-4.0082e-05 4.63e-05 4.6298e-05)
(-4.0096e-05 5.4339e-05 3.6364e-05)
(-4.0101e-05 6.032e-05 2.4979e-05)
(-4.0068e-05 6.413e-05 1.2701e-05)
(-4.0043e-05 6.5465e-05 1.1476e-10)
(-4.1683e-05 1.1108e-05 5.612e-05)
(-4.1722e-05 2.1861e-05 5.279e-05)
(-4.1702e-05 3.1855e-05 4.7586e-05)
(-4.1676e-05 4.0569e-05 4.0568e-05)
(-4.1702e-05 4.7587e-05 3.1854e-05)
(-4.1722e-05 5.2791e-05 2.186e-05)
(-4.1683e-05 5.6121e-05 1.1108e-05)
(-4.165e-05 5.7292e-05 -7.1926e-10)
(-4.278e-05 9.5799e-06 4.8338e-05)
(-4.2803e-05 1.8852e-05 4.5511e-05)
(-4.2795e-05 2.7458e-05 4.1027e-05)
(-4.2784e-05 3.4966e-05 3.4965e-05)
(-4.2795e-05 4.1027e-05 2.7458e-05)
(-4.2802e-05 4.5512e-05 1.8852e-05)
(-4.2779e-05 4.8338e-05 9.5796e-06)
(-4.2762e-05 4.932e-05 -6.2464e-10)
(-4.3325e-05 8.1293e-06 4.0992e-05)
(-4.3336e-05 1.5997e-05 3.8616e-05)
(-4.334e-05 2.3305e-05 3.4829e-05)
(-4.3339e-05 2.9681e-05 2.9681e-05)
(-4.3339e-05 3.4829e-05 2.3305e-05)
(-4.3336e-05 3.8616e-05 1.5998e-05)
(-4.3325e-05 4.0992e-05 8.1294e-06)
(-4.3318e-05 4.1809e-05 -4.6294e-10)
(-4.3296e-05 6.7715e-06 3.4194e-05)
(-4.3311e-05 1.3339e-05 3.222e-05)
(-4.3306e-05 1.946e-05 2.9084e-05)
(-4.3299e-05 2.4801e-05 2.4802e-05)
(-4.3306e-05 2.9083e-05 1.9461e-05)
(-4.3311e-05 3.222e-05 1.334e-05)
(-4.3296e-05 3.4194e-05 6.7721e-06)
(-4.3285e-05 3.4879e-05 -3.2987e-10)
(-4.2721e-05 5.5096e-06 2.792e-05)
(-4.2744e-05 1.0878e-05 2.6299e-05)
(-4.2725e-05 1.5919e-05 2.3773e-05)
(-4.2706e-05 2.0312e-05 2.0313e-05)
(-4.2725e-05 2.3772e-05 1.592e-05)
(-4.2744e-05 2.6299e-05 1.0879e-05)
(-4.272e-05 2.792e-05 5.5106e-06)
(-4.2699e-05 2.8504e-05 -1.8738e-11)
(-4.164e-05 4.4041e-06 2.2258e-05)
(-4.1655e-05 8.6933e-06 2.1001e-05)
(-4.1641e-05 1.2709e-05 1.8988e-05)
(-4.1628e-05 1.621e-05 1.6211e-05)
(-4.1641e-05 1.8987e-05 1.271e-05)
(-4.1655e-05 2.1e-05 8.6949e-06)
(-4.164e-05 2.2258e-05 4.4056e-06)
(-4.1626e-05 2.2696e-05 5.8965e-10)
(-4.0112e-05 3.4314e-06 1.7269e-05)
(-4.0119e-05 6.7695e-06 1.6324e-05)
(-4.0111e-05 9.8775e-06 1.4776e-05)
(-4.01e-05 1.2594e-05 1.2596e-05)
(-4.0111e-05 1.4775e-05 9.8794e-06)
(-4.0119e-05 1.6323e-05 6.7715e-06)
(-4.0112e-05 1.7269e-05 3.4333e-06)
(-4.0101e-05 1.7581e-05 4.7234e-10)
(-3.813e-05 2.5581e-06 1.2986e-05)
(-3.8144e-05 5.0775e-06 1.227e-05)
(-3.8127e-05 7.4567e-06 1.1124e-05)
(-3.8111e-05 9.51e-06 9.511e-06)
(-3.8127e-05 1.1122e-05 7.4589e-06)
(-3.8144e-05 1.2269e-05 5.0799e-06)
(-3.813e-05 1.2985e-05 2.5603e-06)
(-3.8116e-05 1.3225e-05 1.2341e-09)
(-3.5738e-05 1.7795e-06 9.2907e-06)
(-3.5741e-05 3.5973e-06 8.7188e-06)
(-3.5731e-05 5.3811e-06 7.9576e-06)
(-3.5719e-05 6.878e-06 6.8801e-06)
(-3.5731e-05 7.9562e-06 5.3835e-06)
(-3.5741e-05 8.718e-06 3.5999e-06)
(-3.5738e-05 9.2904e-06 1.7819e-06)
(-3.5729e-05 9.5144e-06 8.7089e-10)
(-3.2945e-05 1.0574e-06 5.9101e-06)
(-3.2903e-05 2.2375e-06 5.4198e-06)
(-3.2934e-05 3.4967e-06 5.0393e-06)
(-3.297e-05 4.5124e-06 4.5144e-06)
(-3.2934e-05 5.0379e-06 3.4992e-06)
(-3.2903e-05 5.419e-06 2.2402e-06)
(-3.2945e-05 5.9099e-06 1.0599e-06)
(-3.2985e-05 6.1961e-06 1.0123e-09)
(-2.9717e-05 3.5172e-07 2.3588e-06)
(-2.9639e-05 8.3729e-07 2.0215e-06)
(-2.9705e-05 1.4809e-06 2.0085e-06)
(-2.9794e-05 2.0084e-06 2.0103e-06)
(-2.9705e-05 2.0071e-06 1.4833e-06)
(-2.9639e-05 2.0208e-06 8.3987e-07)
(-2.9717e-05 2.3587e-06 3.5419e-07)
(-2.9811e-05 2.6829e-06 1.087e-09)
(-2.6387e-05 -1.8461e-07 -7.225e-07)
(-2.6361e-05 -2.855e-07 -6.9183e-07)
(-2.6377e-05 -3.3122e-07 -5.659e-07)
(-2.6385e-05 -4.298e-07 -4.28e-07)
(-2.6377e-05 -5.6714e-07 -3.29e-07)
(-2.6361e-05 -6.9248e-07 -2.831e-07)
(-2.6387e-05 -7.2259e-07 -1.8231e-07)
(-2.6399e-05 -7.3549e-07 1.085e-09)
(-2.3791e-05 -1.4728e-07 -6.7077e-07)
(-2.377e-05 -2.4338e-07 -5.7303e-07)
(-2.3783e-05 -3.3643e-07 -5.1672e-07)
(-2.3729e-05 -5.7358e-07 -5.7198e-07)
(-2.3783e-05 -5.1782e-07 -3.3444e-07)
(-2.377e-05 -5.7357e-07 -2.4122e-07)
(-2.3791e-05 -6.7077e-07 -1.452e-07)