/*--------------------------------*- C++ -*----------------------------------*\
  =========                 |
  \\      /  F ield         | OpenFOAM: The Open Source CFD Toolbox
   \\    /   O peration     | Website:  https://openfoam.org
    \\  /    A nd           | Version:  8
     \\/     M anipulation  |
\*---------------------------------------------------------------------------*/
FoamFile
{
    version     2.0;
    format      ascii;
    class       volScalarField::Internal;
    location    "0.0800000";
    object      V0;
}
// * * * * * * * * * * * * * * * * * * * * * * * * * * * * * * * * * * * * * //

dimensions      [0 3 0 0 0 0 0];

value           nonuniform List<scalar> 
900
(
3.8634861875434e-14
3.8164817178017e-14
3.7694816971354e-14
3.72249621464508e-14
3.67554183144542e-14
3.62860597603114e-14
3.58169201451773e-14
3.53481406895138e-14
3.48796944367278e-14
3.44114223272796e-14
3.39433480798609e-14
3.34755611899885e-14
3.30080707556472e-14
3.25407712862761e-14
3.20736623251182e-14
3.16068052385531e-14
3.11402326287322e-14
3.06738727057671e-14
3.0207696715174e-14
2.97417498817925e-14
2.92760924935793e-14
2.88106744673271e-14
2.83454457000617e-14
2.78804354086184e-14
2.74157346692451e-14
2.69513133064495e-14
2.64870987831539e-14
2.60230967266913e-14
2.55594482715113e-14
2.50961509509991e-14
2.46330990471537e-14
2.41702482645101e-14
2.37078447508851e-14
2.32459357014524e-14
2.27843221011476e-14
2.23229485517617e-14
2.18621394973639e-14
2.14020460400662e-14
2.09424092968855e-14
2.04831088736543e-14
2.00245604820533e-14
1.95671243900095e-14
1.911048886537e-14
1.86543663709003e-14
1.81993076995459e-14
1.77460746683719e-14
1.72942952626906e-14
1.68434225816483e-14
1.63940627077125e-14
1.59477852642584e-14
1.55042243545399e-14
1.50622263274309e-14
1.46223592265709e-14
1.41876917681777e-14
1.3757954802036e-14
1.33309430092581e-14
1.29050328125646e-14
1.2486860956053e-14
1.20812219483611e-14
1.16850309762583e-14
1.12963956995161e-14
1.09468209746063e-14
1.06393902516595e-14
1.03483262724577e-14
1.00794980652024e-14
9.85981319192212e-15
9.6801572795578e-15
9.51127317149705e-15
9.37084717978798e-15
9.27183186013636e-15
9.19434255416717e-15
9.12311426330444e-15
9.07314987061297e-15
9.03438222687604e-15
8.9904870407257e-15
8.95445714565576e-15
8.90595982134193e-15
8.82936445982394e-15
8.74579953527092e-15
8.65050372330097e-15
8.5036976479781e-15
8.31438571516673e-15
8.12691132873152e-15
7.88555959160237e-15
7.57183353851355e-15
7.26689931363058e-15
7.1525827138874e-15
7.16346217409942e-15
7.14009352805139e-15
7.11905553012086e-15
7.07710852013524e-15
7.02354707459486e-15
6.97542056089838e-15
6.92455740754362e-15
6.87132649106727e-15
6.8191301590604e-15
6.76584509288585e-15
6.71181954534998e-15
6.65381935029156e-15
6.5461294857916e-15
3.95785691243137e-14
3.90861274989592e-14
3.85943547280095e-14
3.81031591952771e-14
3.76125623800479e-14
3.71225148512963e-14
3.66330026591683e-14
3.61440282478495e-14
3.56555802949942e-14
3.51676365433029e-14
3.46801884098159e-14
3.41932407118506e-14
3.37067905345722e-14
3.32208259146152e-14
3.27353420169429e-14
3.22503446022736e-14
3.1765835474742e-14
3.12818076509498e-14
3.07982571119913e-14
3.03151905447426e-14
2.98326146887428e-14
2.93505272479705e-14
2.88689253131731e-14
2.8387817412192e-14
2.79072158790249e-14
2.74271234386387e-14
2.69475386106076e-14
2.64684737238166e-14
2.59899502810285e-14
2.5511978855569e-14
2.5034560196039e-14
2.45577143039068e-14
2.40814800046512e-14
2.36058812845908e-14
2.31309227927964e-14
2.26566354308084e-14
2.21830849489398e-14
2.17103225567206e-14
2.1238369346613e-14
2.07672771925144e-14
2.02971559789274e-14
1.9828106701093e-14
1.93601819207986e-14
1.8893467532832e-14
1.84281484619135e-14
1.79644169254398e-14
1.75023854188304e-14
1.70421914676791e-14
1.65841410737491e-14
1.61285831313224e-14
1.56757295974848e-14
1.52257826638544e-14
1.47792352462009e-14
1.433670856461e-14
1.38986031524513e-14
1.34652576214085e-14
1.30378699582958e-14
1.26187391755496e-14
1.22106251447317e-14
1.18167125691073e-14
1.14422850603944e-14
1.10932315471304e-14
1.07726134359575e-14
1.04807186225148e-14
1.0218889381706e-14
9.98918254492758e-15
9.79041753097638e-15
9.61958641038853e-15
9.47537718098307e-15
9.35667731664016e-15
9.25909449895235e-15
9.17740051715111e-15
9.10770012825485e-15
9.04519145983441e-15
8.98418207550788e-15
8.9195899502191e-15
8.84479449805107e-15
8.7541148943377e-15
8.64502091320577e-15
8.51260409641863e-15
8.34911648319374e-15
8.15321692112757e-15
7.92655652319248e-15
7.66187175648259e-15
7.35583716447531e-15
7.04278664020117e-15
6.92108838114534e-15
6.95542610431161e-15
6.96074016451964e-15
6.94857334745136e-15
6.92208645159479e-15
6.88557171532871e-15
6.84416399376598e-15
6.79952507962798e-15
6.75278381500485e-15
6.70533230174174e-15
6.65801085098036e-15
6.61166636193109e-15
6.56674762072051e-15
6.53084433596638e-15
4.05136879493007e-14
3.99998478620483e-14
3.94866875407161e-14
3.89743803682018e-14
3.84629263210207e-14
3.79522750385098e-14
3.7442413052601e-14
3.69333448254644e-14
3.64250581391515e-14
3.59175279966323e-14
3.54107459021779e-14
3.49047181886888e-14
3.43994417885087e-14
3.38949028541252e-14
3.33910963341661e-14
3.2888029151673e-14
3.23857034688072e-14
3.18841108904863e-14
3.13832467317404e-14
3.08831186202173e-14
3.03837342688728e-14
2.98850903167175e-14
2.93871827230453e-14
2.88900207326255e-14
2.83936183528281e-14
2.78979775654179e-14
2.74030951504442e-14
2.69089837611602e-14
2.64156677359635e-14
2.59231574337994e-14
2.54314507659553e-14
2.49405671373257e-14
2.44505506489191e-14
2.39614260056127e-14
2.3473192561271e-14
2.29858798303399e-14
2.24995612663411e-14
2.20142910245171e-14
2.15300825514559e-14
2.10469838227803e-14
2.05651153099935e-14
2.00845860230389e-14
1.96054377499435e-14
1.91277461364013e-14
1.86517107190012e-14
1.81775424463777e-14
1.7705338752021e-14
1.72352145864863e-14
1.67674923822544e-14
1.63025637606819e-14
1.58406214912443e-14
1.53818162788942e-14
1.49266551962493e-14
1.4475850628231e-14
1.40297806797017e-14
1.35886584564552e-14
1.31535921003399e-14
1.27270673740836e-14
1.23119373380476e-14
1.19111100954221e-14
1.15297758298921e-14
1.11748748061972e-14
1.08494875977208e-14
1.05528436748655e-14
1.02864528570356e-14
1.00532085487405e-14
9.85156688125863e-15
9.67765628364724e-15
9.53056312751714e-15
9.40933188947978e-15
9.30914398717016e-15
9.22451783909326e-15
9.15147611484329e-15
9.08508826970614e-15
9.01955431281697e-15
8.94938747184115e-15
8.86827976731352e-15
8.7707397096915e-15
8.65322732312375e-15
8.51083754840067e-15
8.33772389321903e-15
8.13162336687382e-15
7.89163096934966e-15
7.61412069790488e-15
7.29763238920747e-15
6.97433197391244e-15
6.84837126197705e-15
6.88518155862531e-15
6.89568237104585e-15
6.88732059039076e-15
6.86491109490513e-15
6.83255510053542e-15
6.79408077823484e-15
6.75185632010394e-15
6.70741641761275e-15
6.66210820332881e-15
6.61712451344475e-15
6.57387727354057e-15
6.53492699425339e-15
6.5083084342674e-15
4.14511457015299e-14
4.09158158801248e-14
4.03812018284011e-14
3.98477313006824e-14
3.93153701658549e-14
3.87840678036145e-14
3.82538102715575e-14
3.77246018002278e-14
3.71964295804767e-14
3.6669267977395e-14
3.61431082621436e-14
3.56179567109734e-14
3.50938099755237e-14
3.45706538407497e-14
3.40484831245317e-14
3.35273047733813e-14
3.30071208203168e-14
3.24879226164189e-14
3.19697053763359e-14
3.14524768101865e-14
3.09362446292272e-14
3.04210053113501e-14
2.99067547429052e-14
2.93935023127018e-14
2.88812621399501e-14
2.83700361214914e-14
2.7859820994589e-14
2.73506296507146e-14
2.68424866951914e-14
2.6335402496767e-14
2.58293749625393e-14
2.53244239060256e-14
2.48205939448269e-14
2.43179099122919e-14
2.38163712052382e-14
2.33160079526684e-14
2.28168944793635e-14
2.23190853483095e-14
2.18225942323339e-14
2.13274700387719e-14
2.08338346255676e-14
2.0341797832408e-14
1.98514019332675e-14
1.93627239588085e-14
1.88759655908402e-14
1.83913392067784e-14
1.79089430895043e-14
1.74288941495013e-14
1.69515179716519e-14
1.64772082029383e-14
1.60061587239389e-14
1.5538522872266e-14
1.50748121306642e-14
1.46157412582546e-14
1.41616899474124e-14
1.37128770374311e-14
1.327042522513e-14
1.28368365107885e-14
1.24149833182251e-14
1.20078043321246e-14
1.16205228402588e-14
1.12600775749125e-14
1.09295485626434e-14
1.06281683320455e-14
1.03574110223426e-14
1.01201278766838e-14
9.91474899531262e-15
9.73735579035522e-15
9.58696182393828e-15
9.46256475260467e-15
9.35929331466987e-15
9.2715839698985e-15
9.19538033385151e-15
9.12568096311088e-15
9.05660948259868e-15
8.98260252058065e-15
8.89729517908264e-15
8.79512952367703e-15
8.672470870884e-15
8.52439262275959e-15
8.34511626771563e-15
8.13225359811338e-15
7.88471070914631e-15
7.5991387627023e-15
7.27435842957058e-15
6.94336637079967e-15
6.81439993471901e-15
6.85052368241027e-15
6.86175258424774e-15
6.85448013473323e-15
6.83337203520928e-15
6.80242188800556e-15
6.76525804117123e-15
6.7242585268868e-15
6.6810112066322e-15
6.63687962648977e-15
6.59312316951835e-15
6.55130925778239e-15
6.51419495230056e-15
6.48926989803015e-15
4.23906419084022e-14
4.18337538036653e-14
4.12776303323997e-14
4.07229505645131e-14
4.01696371042628e-14
3.96176389675716e-14
3.90669416479334e-14
3.85175492016215e-14
3.79694483038099e-14
3.74226126357961e-14
3.68770331702174e-14
3.63327161556993e-14
3.57896580180664e-14
3.52478441519746e-14
3.47072691972317e-14
3.41679401380384e-14
3.36298589261403e-14
3.30930166520155e-14
3.25574083840404e-14
3.20230419124712e-14
3.14899249938428e-14
3.0958053951475e-14
3.04274245501265e-14
2.98980463050151e-14
2.9369933499576e-14
2.88430879660215e-14
2.83175063382476e-14
2.77932017045916e-14
2.72701990051864e-14
2.67485086627616e-14
2.62281284916525e-14
2.57090786241649e-14
2.51914043077786e-14
2.46751305963609e-14
2.41602567813051e-14
2.36468134493125e-14
2.31348759528492e-14
2.26244994272509e-14
2.21156975609454e-14
2.16085199178867e-14
2.11030899486867e-14
2.05995186472105e-14
2.00978484791432e-14
1.95981573243734e-14
1.91006492819501e-14
1.86055388413508e-14
1.81129247356244e-14
1.76229247768019e-14
1.71358679885842e-14
1.66521515771855e-14
1.61719700731426e-14
1.56954771851198e-14
1.52231889061695e-14
1.47558257641193e-14
1.42937684622582e-14
1.38372350325244e-14
1.33873572512566e-14
1.29466589999083e-14
1.25180345557978e-14
1.21044400224728e-14
1.1711132648102e-14
1.13450954983055e-14
1.10094134348486e-14
1.0703281521106e-14
1.04281441863194e-14
1.01868400151831e-14
9.97775825077869e-15
9.79690526961344e-15
9.64323080855012e-15
9.51568787404489e-15
9.40934384757056e-15
9.31855453845881e-15
9.23919419008606e-15
9.16620274121047e-15
9.09364711424337e-15
9.01591617897814e-15
8.92660122531679e-15
8.82010268684472e-15
8.69276428216645e-15
8.53965751613595e-15
8.35499667497507e-15
8.13636821748672e-15
7.88265489286192e-15
7.590524113381e-15
7.25887379073868e-15
6.92154228864474e-15
6.7902887550609e-15
6.82535937223128e-15
6.83644854313273e-15
6.82948587752229e-15
6.80895124043453e-15
6.778736476669e-15
6.74238429045244e-15
6.70222863191016e-15
6.65983936580064e-15
6.61656765304397e-15
6.5736704806724e-15
6.5327190820962e-15
6.49642715240355e-15
6.47206999792049e-15
4.33321115137331e-14
4.27535991915572e-14
4.2175912815867e-14
4.15999800465145e-14
4.10256713572685e-14
4.04529350752254e-14
3.98817560214809e-14
3.93121380988466e-14
3.87440675490946e-14
3.81775173551323e-14
3.76124781198084e-14
3.70489560662759e-14
3.64869474491163e-14
3.59264372747856e-14
3.53674199593908e-14
3.4809902518013e-14
3.42538868620038e-14
3.36993638358667e-14
3.31463283270196e-14
3.25947881861298e-14
3.20447512451243e-14
3.14962136979429e-14
3.09491711612433e-14
3.04036332455101e-14
2.98596144207174e-14
2.93171164902708e-14
2.87761359628717e-14
2.82366860766897e-14
2.76987921205813e-14
2.71624646231566e-14
2.66277012885464e-14
2.60945224930995e-14
2.55629741187143e-14
2.50330815213056e-14
2.45048438782752e-14
2.39782921241476e-14
2.34535026194419e-14
2.29305311760836e-14
2.24093915121505e-14
2.18901337074406e-14
2.1372882745374e-14
2.0857750904825e-14
2.03447809049712e-14
1.98340512980819e-14
1.93257684694338e-14
1.88201491813507e-14
1.83172927702456e-14
1.78173177494698e-14
1.73205563365439e-14
1.68274094833808e-14
1.63380726921999e-14
1.58526998505036e-14
1.53718110295279e-14
1.48961326814118e-14
1.44260470974541e-14
1.39617712921086e-14
1.35044448811607e-14
1.30566127587644e-14
1.26211914934107e-14
1.22011546866506e-14
1.18017926378135e-14
1.14301334587505e-14
1.10892702873254e-14
1.07783628779193e-14
1.04988253388067e-14
1.02534830986485e-14
1.0040684965519e-14
9.85636294175555e-15
9.69940296993503e-15
9.56871202022662e-15
9.45929426628369e-15
9.36542441725012e-15
9.28290695056453e-15
9.20662237480673e-15
9.13058186289814e-15
9.04912929449779e-15
8.95581680301631e-15
8.84501222702086e-15
8.71305051200531e-15
8.55501249077341e-15
8.36511605629e-15
8.14094805655607e-15
7.88139584869833e-15
7.58313580327877e-15
7.24512378928127e-15
6.9019816740047e-15
6.7687808135264e-15
6.80281652587629e-15
6.81360264201435e-15
6.80675378539237e-15
6.78659900603864e-15
6.75693959130828e-15
6.72124807272669e-15
6.68181061973623e-15
6.64016662594635e-15
6.59764380812416e-15
6.55547763955856e-15
6.51520984050389e-15
6.47949502561458e-15
6.45549516931125e-15
4.42754804864901e-14
4.36752800686801e-14
4.30759785998024e-14
4.24787505806217e-14
4.18834055391503e-14
4.12898904674933e-14
4.06981894022382e-14
4.01083061125206e-14
3.95202264927363e-14
3.89339228104596e-14
3.83493852215195e-14
3.77666199244285e-14
3.71856230594796e-14
3.66063792459211e-14
3.60288826262585e-14
3.54531402382379e-14
3.48791539953172e-14
3.43069145099822e-14
3.37364164504202e-14
3.31676677056928e-14
3.26006762139382e-14
3.20354380645373e-14
3.14719486962124e-14
3.09102177804782e-14
3.03502599957968e-14
2.97920771523121e-14
2.92356656079905e-14
2.86810386992727e-14
2.81282220770941e-14
2.75772264280312e-14
2.70280493233885e-14
2.64807113017889e-14
2.59352588834898e-14
2.5391717809128e-14
2.48500871264023e-14
2.43103979974199e-14
2.37727277704441e-14
2.32371330410471e-14
2.27036275611573e-14
2.21722617704796e-14
2.16431621257817e-14
2.11164423290763e-14
2.059214540171e-14
2.00703503677903e-14
1.95512657719913e-14
1.9035110830756e-14
1.8521985620848e-14
1.80120091169636e-14
1.75055164974793e-14
1.70029127038132e-14
1.65043945178705e-14
1.60101157359252e-14
1.55206001025489e-14
1.50365803021793e-14
1.45584407788867e-14
1.40863970500485e-14
1.36215951766822e-14
1.31666005638385e-14
1.27243528000151e-14
1.22978428645014e-14
1.18923940174868e-14
1.15150827767341e-14
1.11690146990199e-14
1.08533148337348e-14
1.05693664713275e-14
1.03199822539444e-14
1.01034697084047e-14
9.91568497382134e-15
9.75544911771834e-15
9.62162035657547e-15
9.50913590340692e-15
9.41218701360228e-15
9.32650606360729e-15
9.24691101176004e-15
9.1673552420899e-15
9.08213662405537e-15
8.98476872318217e-15
8.86959006724182e-15
8.73293069941285e-15
8.56988531776836e-15
8.37468302359329e-15
8.1449207874572e-15
7.87950100627066e-15
7.57512163668261e-15
7.23081591392764e-15
6.88199079045525e-15
6.74693176587202e-15
6.77992225211994e-15
6.79035503800784e-15
6.78356703988499e-15
6.76373897484e-15
6.7345825269152e-15
6.69950285859923e-15
6.66073905138581e-15
6.61979839740876e-15
6.57798208851497e-15
6.53649678576213e-15
6.49683673837737e-15
6.46157463371223e-15
6.43780274981992e-15
4.52211325159978e-14
4.45992559850878e-14
4.39783191208625e-14
4.33597643654081e-14
4.27433532459435e-14
4.2129030319972e-14
4.15167787213732e-14
4.09066021075557e-14
4.02984861192575e-14
3.96924023082509e-14
3.90883403186221e-14
3.84863063252878e-14
3.78862964167931e-14
3.72882948436421e-14
3.66922954447924e-14
3.60983052753567e-14
3.55063262980656e-14
3.49163489233563e-14
3.4328367583149e-14
3.37423901928958e-14
3.31584248377043e-14
3.25764675469672e-14
3.19965135620278e-14
3.14185725946881e-14
3.0842659589753e-14
3.02687764183958e-14
2.96969192713025e-14
2.91271015509831e-14
2.85593492971584e-14
2.79936734349519e-14
2.74300714096718e-14
2.68685638615296e-14
2.63091979695848e-14
2.57519999727153e-14
2.51969688050492e-14
2.46441357653242e-14
2.40935791871302e-14
2.35453565689784e-14
2.29994817505508e-14
2.24560054138242e-14
2.19150554298537e-14
2.13767470669942e-14
2.08411237416375e-14
2.03082647801741e-14
1.97783807314805e-14
1.92516934359697e-14
1.87283038715087e-14
1.82083312317258e-14
1.76921133525994e-14
1.71800592833732e-14
1.66723673360165e-14
1.61691909191037e-14
1.56710568531734e-14
1.51787040183193e-14
1.46925193013787e-14
1.42127161203577e-14
1.37404450511701e-14
1.32782900260243e-14
1.28292124248945e-14
1.23962182510599e-14
1.19846596423104e-14
1.1601658601259e-14
1.12503322802065e-14
1.09297694112901e-14
1.06413181690244e-14
1.03877729630096e-14
1.01673963948187e-14
9.97596704462225e-15
9.8122378414578e-15
9.67501339576744e-15
9.5591620932134e-15
9.45879297006742e-15
9.36956716430082e-15
9.2862419305879e-15
9.2027173326876e-15
9.11325097667625e-15
9.01132607858478e-15
8.89126133281314e-15
8.74938939657177e-15
8.58082733912578e-15
8.37982579279087e-15
8.14399852711488e-15
7.87226997809783e-15
7.56138740924761e-15
7.21055859807754e-15
6.85605076367226e-15
6.71900792014662e-15
6.75069235733315e-15
6.76067221265611e-15
6.75392010601516e-15
6.73439981590164e-15
6.70572354318104e-15
6.67122992073165e-15
6.63311315031111e-15
6.59284974739343e-15
6.55171414026982e-15
6.51087843290386e-15
6.47175119770602e-15
6.43662475392611e-15
6.41240910622624e-15
4.61462191107792e-14
4.54947959575014e-14
4.48522574661019e-14
4.42123499089167e-14
4.3574848063282e-14
4.29396922716107e-14
4.23068652210386e-14
4.16763703562539e-14
4.1048193746907e-14
4.0422305944167e-14
3.97986954095347e-14
3.91773687591427e-14
3.85583225340429e-14
3.79415404542721e-14
3.73270152226836e-14
3.67147543405035e-14
3.61047603407931e-14
3.54970234730729e-14
3.4891537346819e-14
3.42883099689251e-14
3.36873499468487e-14
3.30886530459141e-14
3.24922146596103e-14
3.1898044704779e-14
3.13061572274468e-14
3.07165544936123e-14
3.01292332640422e-14
2.95442065298872e-14
2.89615011254088e-14
2.83811280333392e-14
2.78030845636183e-14
2.7227391276391e-14
2.66540960947456e-14
2.60832256989545e-14
2.55147791679391e-14
2.49487875383638e-14
2.43853297387647e-14
2.38244651180897e-14
2.32662071867642e-14
2.27106061785158e-14
2.21577913327825e-14
2.16078800025766e-14
2.10609159487048e-14
2.05169780886956e-14
1.99762788822221e-14
1.94390423972029e-14
1.89053706763955e-14
1.83753831521629e-14
1.78494187758746e-14
1.73278908374003e-14
1.68110001207775e-14
1.62988988112157e-14
1.57921146562629e-14
1.52913917140606e-14
1.4797121715055e-14
1.43095146778104e-14
1.3829718136441e-14
1.33603278406315e-14
1.29043228047426e-14
1.24647185464434e-14
1.20468792111824e-14
1.16579643366806e-14
1.13011191373723e-14
1.09753995891594e-14
1.06821041276545e-14
1.04240103509196e-14
1.01993538397827e-14
1.00038401990292e-14
9.83614989588025e-15
9.69504744662367e-15
9.57535247384058e-15
9.47110234785797e-15
9.37790076842625e-15
9.29046599244042e-15
9.20266149653867e-15
9.10872089097491e-15
9.00211630978389e-15
8.87715522799502e-15
8.73018074207576e-15
8.55634437699533e-15
8.34992064942264e-15
8.1085352503571e-15
7.83114184564236e-15
7.51456626918416e-15
7.15855850494008e-15
6.80131350331322e-15
6.66266718410044e-15
6.6913510678467e-15
6.70082048774015e-15
6.69408261763045e-15
6.67479030501309e-15
6.64646810806826e-15
6.61240471035489e-15
6.574763258336e-15
6.53499831942482e-15
6.49436470932545e-15
6.45400521925354e-15
6.41522518329441e-15
6.37967271345971e-15
6.34909485062288e-15
)
;


// ************************************************************************* //
