/*--------------------------------*- C++ -*----------------------------------*\
| =========                 |                                                 |
| \\      /  F ield         | OpenFOAM: The Open Source CFD Toolbox           |
|  \\    /   O peration     | Version:  4.1                                   |
|   \\  /    A nd           | Web:      www.OpenFOAM.org                      |
|    \\/     M anipulation  |                                                 |
\*---------------------------------------------------------------------------*/
FoamFile
{
    version     2.0;
    format      ascii;
    class       surfaceVectorField;
    location    "0.0050";
    object      Uf;
}
// * * * * * * * * * * * * * * * * * * * * * * * * * * * * * * * * * * * * * //

dimensions      [0 1 -1 0 0 0 0];

internalField   nonuniform List<vector> 
17536
(
(0.012002 -0.00041758 -8.819e-07)
(0.011832 -0.00025047 -2.7623e-05)
(0.011832 -0.00025034 2.6515e-05)
(0.011709 -0.00036562 1.406e-05)
(0.011709 -0.00036566 -1.51e-05)
(0.012741 -0.00056218 -1.7122e-06)
(0.01238 -0.00054438 -5.8268e-05)
(0.01238 -0.00054401 5.5007e-05)
(0.012338 -0.00079225 2.7826e-05)
(0.012338 -0.00079193 -3.0487e-05)
(0.013402 -0.00038672 -2.3806e-06)
(0.01307 -0.00051029 -3.888e-05)
(0.01307 -0.00050966 3.3744e-05)
(0.013124 -0.00072548 1.5733e-05)
(0.013124 -0.00072535 -2.0279e-05)
(0.013576 -4.9055e-05 -2.7774e-06)
(0.013477 -0.00018538 1.0257e-05)
(0.013477 -0.00018468 -1.6719e-05)
(0.01358 -0.00022985 -9.6789e-06)
(0.01358 -0.00023019 3.3689e-06)
(0.013303 0.00020241 -2.9609e-06)
(0.013421 0.00014095 4.5561e-05)
(0.013421 0.00014177 -5.2384e-05)
(0.013499 0.00025281 -2.2605e-05)
(0.013499 0.00025225 1.5691e-05)
(0.012879 0.00021471 -2.9936e-06)
(0.013086 0.00027493 4.8046e-05)
(0.013086 0.00027579 -5.5258e-05)
(0.013092 0.00044049 -1.7061e-05)
(0.013092 0.00043985 9.7525e-06)
(0.012614 -5.4681e-05 -2.6494e-06)
(0.012764 0.00014552 3.8245e-05)
(0.012765 0.00014638 -4.5267e-05)
(0.012685 0.00026423 -6.6281e-06)
(0.012685 0.00026363 -5.1274e-07)
(0.012706 -0.00056837 -2.2378e-06)
(0.012699 -0.00021233 4.2026e-05)
(0.012699 -0.00021132 -4.8233e-05)
(0.012547 -0.00019513 -4.6543e-06)
(0.012547 -0.00019644 -2.0862e-06)
(0.013317 -0.0012822 -1.889e-06)
(0.013069 -0.0007425 7.3486e-05)
(0.013069 -0.00074202 -7.8588e-05)
(0.012857 -0.00085747 -1.0986e-05)
(0.012857 -0.00085761 6.0161e-06)
(0.014543 -0.0021526 -1.4051e-06)
(0.014001 -0.0014136 0.00013389)
(0.014002 -0.0014132 -0.0001378)
(0.013743 -0.0016733 -3.0301e-05)
(0.013743 -0.0016731 2.681e-05)
(0.016467 -0.0031363 -1.0254e-06)
(0.015586 -0.0021856 0.00021427)
(0.015586 -0.0021855 -0.00021697)
(0.015295 -0.0026008 -5.5607e-05)
(0.015295 -0.0026005 5.318e-05)
(0.019155 -0.0042091 -7.6349e-07)
(0.017899 -0.0030386 0.00030416)
(0.017899 -0.0030386 -0.00030601)
(0.017582 -0.003621 -8.3428e-05)
(0.017582 -0.0036213 8.102e-05)
(0.022667 -0.005361 -7.233e-07)
(0.021004 -0.0039649 0.00039359)
(0.021004 -0.0039648 -0.00039521)
(0.020666 -0.0047314 -0.00010805)
(0.020666 -0.0047309 0.00010707)
(0.027063 -0.0065991 -9.2812e-07)
(0.024962 -0.0049651 0.00047873)
(0.024962 -0.0049649 -0.00048064)
(0.024601 -0.0059333 -0.00013015)
(0.024601 -0.0059337 0.00012806)
(0.032414 -0.0079505 -1.2654e-06)
(0.029842 -0.0060526 0.00056206)
(0.029842 -0.0060523 -0.00056458)
(0.029451 -0.0072431 -0.00014951)
(0.029451 -0.0072447 0.00014568)
(0.038824 -0.0094525 -1.6327e-06)
(0.03573 -0.0072546 0.00065019)
(0.03573 -0.0072541 -0.00065369)
(0.035301 -0.0086953 -0.00016797)
(0.035301 -0.0086959 0.00016426)
(0.046426 -0.011127 -1.8907e-06)
(0.042745 -0.0085975 0.00074974)
(0.042745 -0.008597 -0.00075396)
(0.042273 -0.010323 -0.00019251)
(0.042273 -0.010324 0.0001878)
(0.05537 -0.012951 -2.0236e-06)
(0.051022 -0.010088 0.00085654)
(0.051022 -0.010088 -0.00086122)
(0.050518 -0.012144 -0.00022121)
(0.050518 -0.012144 0.00021654)
(0.065775 -0.014846 -2.031e-06)
(0.060692 -0.011693 0.00095617)
(0.060692 -0.011692 -0.00096096)
(0.060185 -0.014122 -0.00024869)
(0.060185 -0.014121 0.00024471)
(0.077686 -0.016686 -1.9122e-06)
(0.071832 -0.01333 0.0010302)
(0.071832 -0.01333 -0.0010348)
(0.071366 -0.016167 -0.00026795)
(0.071366 -0.016165 0.00026468)
(0.091035 -0.018325 -1.6727e-06)
(0.084428 -0.014887 0.0010616)
(0.084427 -0.014887 -0.0010657)
(0.084056 -0.018139 -0.00027184)
(0.084056 -0.018138 0.00026827)
(0.10564 -0.019626 -1.3282e-06)
(0.098355 -0.016243 0.0010379)
(0.098354 -0.016243 -0.0010413)
(0.098129 -0.01989 -0.00025307)
(0.098129 -0.019889 0.00025039)
(0.12122 -0.020487 -8.7828e-07)
(0.11338 -0.017291 0.0009545)
(0.11338 -0.017291 -0.00095703)
(0.11335 -0.021288 -0.00021307)
(0.11335 -0.021289 0.00020907)
(0.13744 -0.020836 -2.3393e-07)
(0.12921 -0.017963 0.00080869)
(0.12921 -0.017962 -0.00081019)
(0.1294 -0.022247 -0.00015001)
(0.1294 -0.022251 0.00014443)
(0.15394 -0.020594 4.6694e-07)
(0.14549 -0.018198 0.00059981)
(0.14549 -0.018198 -0.00059991)
(0.14594 -0.022709 -6.2422e-05)
(0.14594 -0.022709 6.3135e-05)
(0.17029 -0.019621 1.0111e-06)
(0.16183 -0.017912 0.0003246)
(0.16182 -0.017912 -0.00032314)
(0.16259 -0.022572 3.6484e-05)
(0.16259 -0.02257 -3.2762e-05)
(0.18595 -0.017671 1.2767e-06)
(0.17772 -0.016947 -3.4907e-05)
(0.17772 -0.016947 3.7673e-05)
(0.17889 -0.021656 0.00014672)
(0.17889 -0.021655 -0.00014349)
(0.20011 -0.014399 1.1931e-06)
(0.1925 -0.015055 -0.00051148)
(0.19249 -0.015056 0.0005144)
(0.19417 -0.019663 0.00028136)
(0.19417 -0.019658 -0.00027431)
(0.2116 -0.0095134 7.8282e-07)
(0.2052 -0.011939 -0.0011202)
(0.20519 -0.011939 0.0011227)
(0.20745 -0.016178 0.00044696)
(0.20745 -0.016176 -0.00044336)
(0.21904 -0.0032946 4.1907e-07)
(0.21459 -0.0074596 -0.0018083)
(0.21459 -0.0074597 0.0018097)
(0.21733 -0.0109 0.00068776)
(0.21733 -0.010899 -0.00068608)
(0.22232 0.0030279 3.8655e-07)
(0.21995 -0.0021289 -0.0022407)
(0.21995 -0.0021285 0.0022414)
(0.22277 -0.0043028 0.0011076)
(0.22277 -0.0043033 -0.0011075)
(0.2209 0.0092986 4.7876e-07)
(0.22085 0.0037406 -0.0013401)
(0.22084 0.0037411 0.0013411)
(0.22366 0.0033248 0.00050036)
(0.22366 0.0033247 -0.00049942)
(0.2138 0.015638 7.171e-07)
(0.21661 0.0092654 -0.0016189)
(0.21661 0.0092661 0.0016201)
(0.21942 0.01051 0.00068433)
(0.21942 0.010509 -0.00068414)
(0.2019 0.021091 1.2723e-06)
(0.20727 0.014452 -0.0018291)
(0.20727 0.014453 0.0018309)
(0.20976 0.017052 0.00076723)
(0.20976 0.017051 -0.00076689)
(0.18624 0.02541 2.0665e-06)
(0.19367 0.018698 -0.0018797)
(0.19367 0.018699 0.001883)
(0.19573 0.022365 0.00073523)
(0.19573 0.022365 -0.00073229)
(0.16757 0.028964 2.6652e-06)
(0.17664 0.02216 -0.001827)
(0.17664 0.02216 0.0018319)
(0.17836 0.026711 0.00065344)
(0.17836 0.026715 -0.00064474)
(0.14613 0.032019 3.1474e-06)
(0.15669 0.025163 -0.0017322)
(0.15669 0.025163 0.0017392)
(0.15814 0.030567 0.00057287)
(0.15814 0.030565 -0.00056923)
(0.12207 0.034351 3.4538e-06)
(0.13407 0.027762 -0.0015886)
(0.13407 0.027762 0.0015965)
(0.13517 0.034039 0.0005191)
(0.13517 0.034037 -0.00051396)
(0.095923 0.03526 3.3312e-06)
(0.10915 0.029577 -0.0013032)
(0.10915 0.029578 0.0013109)
(0.10971 0.036668 0.00043692)
(0.10971 0.03667 -0.00042777)
(0.068947 0.033944 2.9577e-06)
(0.082847 0.029958 -0.00075988)
(0.082847 0.029959 0.00076718)
(0.082632 0.037632 0.00024323)
(0.082632 0.037628 -0.00024078)
(0.04318 0.029999 2.1795e-06)
(0.05673 0.028315 7.9616e-05)
(0.05673 0.028317 -7.3769e-05)
(0.055648 0.03611 -8.2034e-05)
(0.055648 0.036109 8.6699e-05)
(0.020774 0.023625 1.0793e-06)
(0.032779 0.024498 0.00114)
(0.032779 0.0245 -0.0011371)
(0.030939 0.031889 -0.00051094)
(0.030939 0.031888 0.00051323)
(0.0038547 0.015586 3.7031e-08)
(0.012946 0.018885 0.0022793)
(0.012945 0.018888 -0.002279)
(0.01065 0.025284 -0.00097077)
(0.01065 0.025286 0.00097338)
(-0.006799 0.0080473 -7.6685e-07)
(-0.0015392 0.012287 0.0031837)
(-0.0015393 0.012288 -0.0031851)
(-0.0035315 0.017158 -0.0015062)
(-0.0035318 0.017161 0.0015079)
(-0.013313 0.0027195 -1.2697e-06)
(-0.010758 0.0069906 0.0033487)
(-0.010758 0.0069918 -0.003351)
(-0.011766 0.010399 -0.0018888)
(-0.011766 0.010398 0.0018853)
(-0.016622 -0.00082332 -1.3383e-06)
(-0.016194 0.0030212 0.0026792)
(-0.016194 0.0030222 -0.0026824)
(-0.01614 0.0049384 -0.0017524)
(-0.01614 0.0049378 0.0017482)
(-0.016522 -0.0027994 -8.3564e-07)
(-0.018469 -0.00077626 0.0013122)
(-0.018469 -0.0007758 -0.0013146)
(-0.01788 -0.00018178 -0.00068947)
(-0.01788 -0.00018198 0.00068652)
(-0.01687 -0.0025614 0.00050669)
(-0.01687 -0.0025613 -0.00050756)
(-0.016526 -0.0027907 -0.00022825)
(-0.016526 -0.0027906 0.00022734)
(0.012092 -0.0003165 -2.4219e-05)
(0.011931 -0.00017161 1.4401e-05)
(0.011945 -0.00020136 6.9536e-06)
(0.011862 -0.00026345 1.5092e-07)
(0.012727 -0.0004211 -2.3978e-05)
(0.012411 -0.00037387 3.2857e-05)
(0.012416 -0.00043688 1.5064e-05)
(0.012386 -0.00056906 -2.1801e-07)
(0.013303 -0.00028141 1.3012e-06)
(0.013022 -0.00035409 4.149e-05)
(0.013015 -0.00040204 1.5573e-05)
(0.013049 -0.00052038 4.4675e-06)
(0.013474 -2.5388e-05 2.8569e-05)
(0.013393 -0.00013743 3.2156e-05)
(0.013381 -0.00013657 6.4162e-06)
(0.013449 -0.00016684 8.7051e-06)
(0.013266 0.00015418 3.7307e-05)
(0.013365 8.3938e-05 1.4195e-05)
(0.013356 0.00012345 -1.9407e-06)
(0.013409 0.00017595 1.4703e-05)
(0.012919 0.00014995 3.3514e-05)
(0.013088 0.00017288 1.2294e-07)
(0.013088 0.0002198 -9.1179e-06)
(0.013091 0.00030298 1.6586e-05)
(0.01271 -5.2555e-05 4.2461e-05)
(0.012821 7.6722e-05 1.2414e-05)
(0.012829 0.00010956 -4.8408e-06)
(0.012769 0.00016731 2.2586e-05)
(0.012848 -0.00042409 8.0056e-05)
(0.012797 -0.00018879 6.3414e-05)
(0.012813 -0.0001722 1.5515e-05)
(0.012693 -0.00017881 4.6742e-05)
(0.01349 -0.00093263 0.00015043)
(0.013198 -0.00058874 0.00015788)
(0.01322 -0.00058383 4.6336e-05)
(0.01305 -0.00068412 9.2069e-05)
(0.014739 -0.0015465 0.00024955)
(0.014153 -0.0010987 0.00029076)
(0.014179 -0.0010904 8.571e-05)
(0.013969 -0.001301 0.00015132)
(0.016683 -0.0022402 0.00036686)
(0.015755 -0.0016897 0.00045154)
(0.015786 -0.0016717 0.00013274)
(0.015548 -0.0020078 0.00022809)
(0.019391 -0.0030004 0.00049227)
(0.018084 -0.0023446 0.00063027)
(0.018119 -0.0023153 0.00018477)
(0.017859 -0.0027882 0.00031476)
(0.022923 -0.0038223 0.00061941)
(0.021206 -0.0030553 0.00081919)
(0.021243 -0.0030176 0.0002399)
(0.020966 -0.0036364 0.00040454)
(0.027342 -0.004712 0.0007478)
(0.025182 -0.0038216 0.0010158)
(0.025223 -0.0037811 0.00029815)
(0.024928 -0.0045548 0.00049637)
(0.032721 -0.0056875 0.00088197)
(0.030082 -0.0046545 0.0012231)
(0.030129 -0.0046161 0.00036044)
(0.02981 -0.0055571 0.0005925)
(0.039163 -0.0067716 0.0010284)
(0.035996 -0.0055749 0.0014486)
(0.03605 -0.0055413 0.0004285)
(0.035698 -0.0066693 0.00069751)
(0.046799 -0.0079773 0.0011886)
(0.043036 -0.0066018 0.0016997)
(0.0431 -0.0065736 0.00050421)
(0.042713 -0.0079167 0.00081424)
(0.055767 -0.0092899 0.0013532)
(0.051336 -0.0077373 0.0019745)
(0.05141 -0.0077172 0.00058694)
(0.050998 -0.0093059 0.00093839)
(0.066174 -0.010658 0.0015047)
(0.061016 -0.0089519 0.002259)
(0.061099 -0.0089486 0.00067332)
(0.060685 -0.010807 0.0010596)
(0.078056 -0.012 0.0016225)
(0.072143 -0.010183 0.0025295)
(0.072237 -0.010212 0.00075782)
(0.071854 -0.012349 0.001166)
(0.091341 -0.013216 0.0016875)
(0.084699 -0.011346 0.0027593)
(0.084802 -0.011428 0.00083379)
(0.08449 -0.013834 0.0012466)
(0.10585 -0.014212 0.001687)
(0.098557 -0.012351 0.0029232)
(0.098671 -0.01251 0.00089494)
(0.098468 -0.015153 0.0012938)
(0.1213 -0.014915 0.0016139)
(0.11349 -0.013121 0.003004)
(0.11362 -0.013379 0.00093604)
(0.11356 -0.016209 0.0013019)
(0.13737 -0.015268 0.0014645)
(0.12921 -0.0136 0.0029901)
(0.12935 -0.013977 0.00095225)
(0.12945 -0.016937 0.001265)
(0.15369 -0.015208 0.0012336)
(0.14535 -0.013742 0.0028723)
(0.14552 -0.014253 0.0009391)
(0.1458 -0.017281 0.0011766)
(0.16983 -0.014627 0.00090278)
(0.16151 -0.013477 0.0026363)
(0.1617 -0.014134 0.00089091)
(0.16223 -0.017159 0.0010259)
(0.18522 -0.013358 0.00043324)
(0.17719 -0.01268 0.0022478)
(0.17741 -0.013502 0.00079293)
(0.17823 -0.016425 0.00078601)
(0.19905 -0.011192 -0.00021557)
(0.19171 -0.011164 0.0016534)
(0.19195 -0.012178 0.00062341)
(0.19315 -0.014853 0.000421)
(0.21023 -0.0080184 -0.0010426)
(0.20413 -0.0087364 0.00081096)
(0.2044 -0.0099734 0.00035912)
(0.206 -0.012181 -7.8767e-05)
(0.21754 -0.0041573 -0.0018889)
(0.21331 -0.005385 -0.00023102)
(0.21364 -0.0068492 -1.5925e-05)
(0.21548 -0.0083278 -0.00063491)
(0.22072 -0.00014532 -0.0022955)
(0.21848 -0.0016179 -0.0011315)
(0.21895 -0.0031739 -0.00048537)
(0.22071 -0.0038858 -0.00086577)
(0.21895 0.0041946 -0.0024666)
(0.2192 0.002265 -0.0013972)
(0.21964 0.0011592 -0.0010432)
(0.22143 0.00094274 -0.00083433)
(0.21195 0.0087144 -0.0028068)
(0.21498 0.0063777 -0.0023528)
(0.21524 0.0055661 -0.0012661)
(0.21715 0.0063845 -0.0011721)
(0.2003 0.012671 -0.0030908)
(0.20582 0.010269 -0.0031859)
(0.20602 0.0096067 -0.0015095)
(0.20775 0.011292 -0.0014997)
(0.18489 0.015924 -0.0032272)
(0.19243 0.013475 -0.0037893)
(0.1926 0.01302 -0.0017042)
(0.19406 0.015365 -0.001751)
(0.1664 0.018654 -0.003264)
(0.17559 0.016095 -0.0042126)
(0.17571 0.015877 -0.0018488)
(0.17696 0.018747 -0.0019241)
(0.14513 0.020997 -0.0032316)
(0.1558 0.018346 -0.0045329)
(0.15587 0.018364 -0.0019569)
(0.15694 0.021729 -0.0020346)
(0.12133 0.022802 -0.0030808)
(0.13337 0.020247 -0.0047544)
(0.13339 0.020502 -0.0020314)
(0.13423 0.024355 -0.0020663)
(0.095591 0.023635 -0.0027056)
(0.10874 0.021509 -0.0047725)
(0.10873 0.022042 -0.0020495)
(0.10917 0.026285 -0.0019666)
(0.06916 0.023009 -0.0020013)
(0.082827 0.021669 -0.0044284)
(0.082803 0.022554 -0.0019769)
(0.082679 0.026937 -0.0016916)
(0.043922 0.02067 -0.00092143)
(0.057141 0.020326 -0.0036162)
(0.057139 0.021644 -0.0017529)
(0.056376 0.025788 -0.0011981)
(0.021959 0.016744 0.00041358)
(0.033587 0.017396 -0.0023375)
(0.033606 0.01917 -0.0013168)
(0.03231 0.022691 -0.00046482)
(0.0050427 0.011876 0.0017645)
(0.013987 0.013187 -0.00081749)
(0.013983 0.015412 -0.00079278)
(0.012468 0.017935 0.00034849)
(-0.0061629 0.0074678 0.0027805)
(-0.0006184 0.0084983 0.0005849)
(-0.00068026 0.010987 -0.00014161)
(-0.0018316 0.012406 0.00093665)
(-0.012588 0.004296 0.003039)
(-0.010116 0.0049738 0.0013977)
(-0.010215 0.0074513 0.00045932)
(-0.010556 0.0080644 0.0011881)
(-0.016411 0.0014799 0.0024064)
(-0.015656 0.0023868 0.0015147)
(-0.015795 0.0043945 0.00072485)
(-0.015415 0.004893 0.00073157)
(-0.016353 -0.0010574 0.0013006)
(-0.018035 -0.00035785 0.0010773)
(-0.018153 0.00076591 0.00071348)
(-0.017508 0.00082219 0.00062146)
(-0.01637 -0.0019278 0.00071437)
(-0.016283 -0.001588 0.00028036)
(-0.015893 -0.0019477 0.00033687)
(0.012142 -0.00023992 6.0487e-05)
(0.011984 -0.00012878 5.3641e-05)
(0.012012 -0.00014929 4.3444e-05)
(0.011926 -0.0002007 7.0058e-05)
(0.012721 -0.00032058 8.4612e-05)
(0.012429 -0.00028127 0.00011867)
(0.012438 -0.0003247 9.4308e-05)
(0.012407 -0.00043416 0.00015163)
(0.01325 -0.00021729 6.5178e-05)
(0.012997 -0.00026799 0.00011896)
(0.012984 -0.00030091 8.7066e-05)
(0.013021 -0.00039992 0.00014052)
(0.013419 -2.5215e-05 2.0671e-05)
(0.01335 -0.0001074 5.6797e-05)
(0.013326 -0.0001071 3.0312e-05)
(0.013397 -0.00013473 4.8921e-05)
(0.013243 0.00011146 -1.416e-05)
(0.013334 5.8322e-05 -1.0609e-05)
(0.013318 8.4252e-05 -2.4819e-05)
(0.013371 0.00012536 -3.8643e-05)
(0.012941 0.00010802 -1.2616e-05)
(0.013088 0.00012514 -4.016e-05)
(0.013089 0.00015587 -4.3292e-05)
(0.01309 0.00022349 -6.82e-05)
(0.012771 -5.3761e-05 3.908e-05)
(0.012853 4.9881e-05 -6.6713e-06)
(0.012871 7.0628e-05 -1.6324e-05)
(0.01281 0.00011574 -2.67e-05)
(0.012938 -0.00035189 0.00014272)
(0.012855 -0.00015768 9.4025e-05)
(0.012888 -0.00015127 5.0569e-05)
(0.012771 -0.00016394 7.6021e-05)
(0.013601 -0.00075911 0.00029378)
(0.013274 -0.00047313 0.0002548)
(0.01332 -0.00047942 0.00015356)
(0.013155 -0.00058082 0.00023658)
(0.014866 -0.0012514 0.00048321)
(0.014242 -0.0008754 0.00046718)
(0.014298 -0.00088466 0.00028037)
(0.014097 -0.0010913 0.00043144)
(0.016823 -0.0018086 0.0007004)
(0.015856 -0.0013429 0.00071821)
(0.015919 -0.0013521 0.0004286)
(0.015691 -0.0016792 0.00066032)
(0.019543 -0.0024194 0.00093717)
(0.018194 -0.0018614 0.0009973)
(0.018264 -0.0018705 0.00059328)
(0.018015 -0.0023293 0.00091451)
(0.023088 -0.0030807 0.0011893)
(0.021325 -0.0024239 0.0012979)
(0.021401 -0.0024354 0.00077132)
(0.021135 -0.0030347 0.0011883)
(0.027521 -0.0037972 0.0014578)
(0.025312 -0.0030306 0.0016181)
(0.025395 -0.0030487 0.00096268)
(0.025109 -0.0037976 0.0014819)
(0.032918 -0.0045828 0.0017485)
(0.030225 -0.0036899 0.0019623)
(0.030317 -0.0037187 0.0011701)
(0.030006 -0.0046289 0.0017994)
(0.03938 -0.0054549 0.0020694)
(0.036152 -0.0044177 0.0023402)
(0.036258 -0.0044603 0.0013988)
(0.035915 -0.0055493 0.0021491)
(0.047035 -0.0064228 0.002424)
(0.043208 -0.005229 0.0027603)
(0.043328 -0.005287 0.0016537)
(0.042951 -0.0065796 0.0025395)
(0.056015 -0.0074741 0.0028046)
(0.051521 -0.0061246 0.0032218)
(0.051654 -0.0062005 0.0019346)
(0.051251 -0.0077234 0.0029702)
(0.066421 -0.0085682 0.0031912)
(0.061205 -0.0070807 0.0037091)
(0.061351 -0.0071802 0.0022337)
(0.060941 -0.0089538 0.0034282)
(0.07828 -0.0096399 0.0035547)
(0.072324 -0.0080481 0.0041922)
(0.072478 -0.008181 0.0025352)
(0.072093 -0.010212 0.0038884)
(0.091518 -0.010612 0.0038636)
(0.084854 -0.0089603 0.0046328)
(0.085012 -0.0091397 0.0028187)
(0.084688 -0.011415 0.0043186)
(0.10596 -0.011409 0.0040901)
(0.09867 -0.009747 0.004993)
(0.098829 -0.0099877 0.0030628)
(0.0986 -0.012474 0.0046853)
(0.12132 -0.011972 0.0042133)
(0.11355 -0.010348 0.0052421)
(0.11371 -0.010664 0.0032497)
(0.1136 -0.013313 0.0049615)
(0.13729 -0.012254 0.0042173)
(0.12919 -0.010718 0.0053581)
(0.12935 -0.011121 0.0033652)
(0.12939 -0.013876 0.0051255)
(0.15349 -0.012203 0.0040841)
(0.14525 -0.010819 0.0053224)
(0.14541 -0.011318 0.0033967)
(0.14562 -0.014114 0.0051572)
(0.16947 -0.01173 0.0037815)
(0.1613 -0.010594 0.0051059)
(0.16147 -0.011195 0.0033273)
(0.16189 -0.013962 0.0050329)
(0.18466 -0.010698 0.003256)
(0.17686 -0.0099462 0.0046556)
(0.17701 -0.010654 0.0031268)
(0.17771 -0.013296 0.0047047)
(0.19826 -0.0089427 0.0024473)
(0.19122 -0.008729 0.0038927)
(0.19134 -0.0095531 0.0027528)
(0.19239 -0.011929 0.0041018)
(0.20919 -0.0063783 0.0013484)
(0.20345 -0.0067996 0.0027432)
(0.20356 -0.0077506 0.0021689)
(0.20496 -0.0096593 0.0031572)
(0.2163 -0.0032258 0.000146)
(0.21247 -0.0041664 0.001238)
(0.21259 -0.0052316 0.0013978)
(0.21421 -0.0064451 0.0018999)
(0.21916 0.00021608 -0.00081245)
(0.21746 -0.0012465 -0.00028494)
(0.21764 -0.0022671 0.00060796)
(0.21929 -0.0027413 0.00067927)
(0.21749 0.0039246 -0.0018109)
(0.21812 0.0017066 -0.0015562)
(0.21824 0.0013429 -0.00022292)
(0.21999 0.0013997 -0.00048719)
(0.21069 0.0076251 -0.0030422)
(0.21398 0.0050862 -0.0031646)
(0.214 0.004796 -0.0011468)
(0.21582 0.0059019 -0.0021654)
(0.19921 0.010846 -0.0041134)
(0.20494 0.008167 -0.0046899)
(0.20495 0.0080146 -0.0021073)
(0.20659 0.0099483 -0.0036831)
(0.18397 0.013492 -0.0049315)
(0.19168 0.010703 -0.0058865)
(0.19168 0.010731 -0.0028983)
(0.19307 0.013297 -0.0048973)
(0.16562 0.015702 -0.0055691)
(0.17495 0.012771 -0.0068123)
(0.17494 0.012996 -0.0035397)
(0.17613 0.016067 -0.0058713)
(0.14449 0.017577 -0.0060763)
(0.15527 0.014532 -0.0075717)
(0.15523 0.014951 -0.004085)
(0.15625 0.018479 -0.006694)
(0.12089 0.019003 -0.0063983)
(0.13297 0.016002 -0.0081743)
(0.13291 0.016607 -0.0045386)
(0.13371 0.020567 -0.0073776)
(0.095426 0.019648 -0.0063896)
(0.10851 0.016957 -0.008487)
(0.10848 0.017764 -0.0048292)
(0.10892 0.022054 -0.0078091)
(0.069347 0.019133 -0.0058929)
(0.082833 0.017041 -0.0082995)
(0.082857 0.018085 -0.0048535)
(0.082788 0.022473 -0.0078163)
(0.044432 0.017255 -0.0048236)
(0.057404 0.015954 -0.0074301)
(0.057522 0.017254 -0.0045058)
(0.05687 0.021412 -0.0072479)
(0.022737 0.014123 -0.0032791)
(0.034079 0.0136 -0.0058759)
(0.034283 0.015257 -0.0038164)
(0.033141 0.01877 -0.0060584)
(0.005945 0.010225 -0.0015777)
(0.01463 0.010287 -0.0038295)
(0.014867 0.012235 -0.0028216)
(0.013519 0.014833 -0.0044145)
(-0.0053608 0.0066062 -0.00019583)
(-1.6277e-05 0.0066427 -0.0017462)
(0.0001617 0.0087155 -0.0017823)
(-0.00089232 0.010333 -0.0027656)
(-0.012007 0.0037879 0.00059518)
(-0.0096508 0.0039249 -0.00031724)
(-0.0095285 0.005938 -0.0010574)
(-0.0099902 0.0066937 -0.0015223)
(-0.015894 0.0012231 0.00085795)
(-0.015242 0.0017967 0.00048817)
(-0.015177 0.0033061 -0.0004685)
(-0.015097 0.0037734 -0.00071315)
(-0.01615 -0.00085866 0.00085974)
(-0.017741 -0.00026175 0.00089865)
(-0.017751 0.0004814 -6.1573e-06)
(-0.017393 0.0005557 -1.635e-06)
(-0.016145 -0.0015167 0.00098922)
(-0.016039 -0.0012708 0.0004506)
(-0.01587 -0.0016163 0.00071057)
(0.012166 -0.00017045 0.00011147)
(0.012001 -8.8164e-05 8.821e-05)
(0.012045 -0.00010837 7.3457e-05)
(0.011964 -0.00015242 0.00010609)
(0.012717 -0.0002295 0.00015221)
(0.012434 -0.00019365 0.00019386)
(0.012449 -0.00023639 0.00016057)
(0.01242 -0.00033133 0.0002314)
(0.013224 -0.00015908 0.00010962)
(0.012989 -0.00018785 0.00018809)
(0.012969 -0.00022038 0.00015021)
(0.013003 -0.00030726 0.00021641)
(0.013392 -2.4948e-05 2.4432e-05)
(0.013335 -8.0552e-05 8.0925e-05)
(0.013299 -8.0612e-05 5.5576e-05)
(0.013364 -0.000107 7.8201e-05)
(0.013231 7.092e-05 -3.7684e-05)
(0.013324 3.1467e-05 -3.1201e-05)
(0.013299 5.7393e-05 -3.696e-05)
(0.013348 8.7811e-05 -5.4718e-05)
(0.012952 6.6597e-05 -3.4626e-05)
(0.013088 7.7274e-05 -7.7236e-05)
(0.013089 0.000108 -7.0361e-05)
(0.01309 0.00015852 -0.00010175)
(0.012802 -5.3916e-05 4.8353e-05)
(0.012864 2.3797e-05 -2.4128e-05)
(0.012892 4.3532e-05 -2.6156e-05)
(0.012835 7.4059e-05 -4.1688e-05)
(0.012983 -0.000278 0.00020696)
(0.012874 -0.00012645 0.00012608)
(0.012926 -0.00012272 8.7614e-05)
(0.012814 -0.00014297 0.00011231)
(0.013657 -0.00058734 0.0004302)
(0.0133 -0.00035898 0.0003585)
(0.01337 -0.00037199 0.00026167)
(0.013213 -0.00046949 0.00034978)
(0.01493 -0.00096399 0.00070498)
(0.014273 -0.00065931 0.00065837)
(0.014357 -0.0006809 0.00047708)
(0.014165 -0.00087091 0.00064182)
(0.016894 -0.001392 0.0010187)
(0.015889 -0.0010108 0.0010095)
(0.015986 -0.0010389 0.00072797)
(0.015768 -0.0013363 0.00098351)
(0.01962 -0.0018613 0.0013624)
(0.018231 -0.0014014 0.0013997)
(0.018337 -0.0014364 0.0010069)
(0.018099 -0.001852 0.001363)
(0.023172 -0.0023683 0.001732)
(0.021365 -0.0018242 0.0018221)
(0.021481 -0.0018691 0.0013098)
(0.021225 -0.0024116 0.0017738)
(0.027612 -0.0029163 0.0021294)
(0.025356 -0.0022783 0.0022759)
(0.025482 -0.0023377 0.0016367)
(0.025208 -0.0030154 0.002215)
(0.033018 -0.003516 0.0025626)
(0.030273 -0.0027698 0.0027674)
(0.030413 -0.0028487 0.0019923)
(0.030115 -0.0036718 0.002693)
(0.039491 -0.0041806 0.0030417)
(0.036205 -0.0033111 0.0033088)
(0.036363 -0.0034132 0.0023846)
(0.036035 -0.0043973 0.0032201)
(0.047156 -0.0049169 0.0035713)
(0.043266 -0.0039135 0.0039114)
(0.043443 -0.0040417 0.002821)
(0.043083 -0.0052071 0.0038072)
(0.056142 -0.0057142 0.0041426)
(0.051583 -0.0045767 0.0045751)
(0.051778 -0.0047346 0.0033014)
(0.051394 -0.0061031 0.0044548)
(0.066548 -0.0065401 0.0047298)
(0.061268 -0.0052814 0.0052807)
(0.061478 -0.0054753 0.0038135)
(0.061088 -0.0070632 0.005145)
(0.078395 -0.0073439 0.0052939)
(0.072385 -0.0059889 0.0059893)
(0.0726 -0.0062282 0.0043314)
(0.072234 -0.0080395 0.0058408)
(0.091611 -0.0080662 0.0057908)
(0.084907 -0.0066483 0.0066498)
(0.085119 -0.0069447 0.0048203)
(0.084811 -0.0089663 0.006493)
(0.10602 -0.0086509 0.0061794)
(0.098709 -0.0072069 0.0072097)
(0.09891 -0.0075727 0.0052438)
(0.098693 -0.0097745 0.0070514)
(0.12134 -0.0090527 0.0064277)
(0.11357 -0.0076204 0.0076242)
(0.11375 -0.0080665 0.0055704)
(0.11365 -0.010405 0.0074733)
(0.13726 -0.0092357 0.00651)
(0.12919 -0.0078562 0.0078605)
(0.12935 -0.0083906 0.0057753)
(0.12939 -0.010813 0.0077274)
(0.15339 -0.0091584 0.0063967)
(0.14521 -0.0078856 0.0078895)
(0.14536 -0.0085125 0.0058364)
(0.14556 -0.010961 0.0077857)
(0.1693 -0.0087533 0.0060381)
(0.16124 -0.0076662 0.0076688)
(0.16135 -0.0083873 0.0057223)
(0.16176 -0.010796 0.0076075)
(0.18439 -0.0079142 0.0053563)
(0.17675 -0.0071234 0.0071236)
(0.17681 -0.0079402 0.005381)
(0.17748 -0.010219 0.0071213)
(0.19787 -0.0065164 0.0042603)
(0.19105 -0.0061477 0.0061446)
(0.19104 -0.0070656 0.0047394)
(0.19204 -0.0090872 0.0062207)
(0.20869 -0.0045049 0.002718)
(0.20323 -0.0046325 0.004626)
(0.20314 -0.0056625 0.0037301)
(0.20449 -0.0072479 0.0047962)
(0.21572 -0.0020808 0.00091512)
(0.2122 -0.002597 0.0025875)
(0.21207 -0.0037376 0.0023697)
(0.21363 -0.0046893 0.0028553)
(0.2185 0.00042723 -0.00084453)
(0.21715 -0.00040808 0.00039715)
(0.21705 -0.0015362 0.00086375)
(0.21863 -0.0018234 0.00077537)
(0.21686 0.0030772 -0.002701)
(0.2178 0.0016701 -0.0016798)
(0.21763 0.00096022 -0.00082735)
(0.21928 0.0012682 -0.0013827)
(0.21007 0.0057952 -0.0046467)
(0.21366 0.004099 -0.0041072)
(0.2134 0.0034977 -0.0025986)
(0.21512 0.0046036 -0.0037855)
(0.19867 0.0081758 -0.0063126)
(0.20465 0.006335 -0.006341)
(0.2044 0.0058879 -0.0042497)
(0.20594 0.0077208 -0.0060056)
(0.18351 0.010112 -0.0076387)
(0.19142 0.0081477 -0.0081517)
(0.19122 0.007903 -0.0056268)
(0.19252 0.01029 -0.0078095)
(0.16523 0.011708 -0.0087106)
(0.17474 0.009599 -0.0096022)
(0.17455 0.0095757 -0.0067608)
(0.17566 0.012397 -0.0092693)
(0.14418 0.013041 -0.0095878)
(0.15509 0.010816 -0.010819)
(0.1549 0.011008 -0.0077253)
(0.15585 0.014214 -0.010512)
(0.12066 0.014021 -0.010199)
(0.13283 0.011808 -0.011814)
(0.13266 0.012204 -0.0085228)
(0.1334 0.015761 -0.011549)
(0.095336 0.014396 -0.010349)
(0.10843 0.012405 -0.012413)
(0.10833 0.01301 -0.0090393)
(0.10873 0.016821 -0.012213)
(0.069429 0.013874 -0.0098213)
(0.08283 0.012333 -0.012342)
(0.082864 0.013176 -0.0090957)
(0.082781 0.017035 -0.012239)
(0.044698 0.012277 -0.0084989)
(0.057491 0.011355 -0.011363)
(0.057707 0.012474 -0.0085454)
(0.057066 0.016074 -0.011391)
(0.023138 0.0097067 -0.0064784)
(0.034246 0.0094163 -0.0094231)
(0.034624 0.010828 -0.0073543)
(0.033512 0.013844 -0.0096169)
(0.0063715 0.0065967 -0.0041024)
(0.014841 0.0067661 -0.0067714)
(0.015291 0.0084437 -0.00566)
(0.013983 0.01061 -0.0071169)
(-0.0049268 0.003802 -0.0020256)
(0.00017147 0.003931 -0.0039349)
(0.00054252 0.0057599 -0.0037847)
(-0.00047549 0.0070182 -0.0044084)
(-0.011868 0.0017568 -0.00060143)
(-0.0095166 0.0018941 -0.0018974)
(-0.0092505 0.0037058 -0.0023869)
(-0.0096903 0.004245 -0.0023978)
(-0.015728 0.0001365 0.0003527)
(-0.01514 0.00046129 -0.00046426)
(-0.014985 0.0018446 -0.0011357)
(-0.014877 0.0020674 -0.00093722)
(-0.015977 -0.0010337 0.00091348)
(-0.017688 -0.00068009 0.00067784)
(-0.017665 7.496e-05 -1.2688e-05)
(-0.017261 -6.3587e-05 0.00033951)
(-0.016091 -0.0012686 0.001268)
(-0.015965 -0.0010798 0.00070556)
(-0.015707 -0.0014253 0.0010751)
(0.012166 -0.00011136 0.00017057)
(0.011984 -5.3616e-05 0.00012881)
(0.012045 -7.3478e-05 0.00010841)
(0.011964 -0.00010612 0.00015249)
(0.012717 -0.00015203 0.00022971)
(0.012429 -0.00011853 0.00028143)
(0.012449 -0.00016056 0.00023657)
(0.01242 -0.00023144 0.0003316)
(0.013224 -0.00010938 0.00015935)
(0.012997 -0.00011885 0.00026812)
(0.012969 -0.00015032 0.00022056)
(0.013003 -0.00021662 0.00030759)
(0.013392 -2.4213e-05 2.5216e-05)
(0.01335 -5.6611e-05 0.00010752)
(0.013299 -5.5761e-05 8.0903e-05)
(0.013364 -7.8617e-05 0.00010756)
(0.013232 3.774e-05 -7.0829e-05)
(0.013335 1.0674e-05 -5.8299e-05)
(0.013299 3.6705e-05 -5.725e-05)
(0.013348 5.4263e-05 -8.7406e-05)
(0.012952 3.4408e-05 -6.6814e-05)
(0.013088 4.002e-05 -0.00012533)
(0.013089 6.9903e-05 -0.00010804)
(0.01309 0.0001011 -0.00015832)
(0.012802 -4.8759e-05 5.3531e-05)
(0.012853 6.2069e-06 -5.0377e-05)
(0.012893 2.539e-05 -4.3941e-05)
(0.012835 4.0848e-05 -7.4297e-05)
(0.012983 -0.00020747 0.00027751)
(0.012855 -9.4696e-05 0.00015724)
(0.012926 -8.851e-05 0.00012226)
(0.012814 -0.00011323 0.00014286)
(0.013657 -0.000431 0.00058653)
(0.013274 -0.00025552 0.00047245)
(0.01337 -0.00026275 0.0003714)
(0.013213 -0.00035102 0.00046924)
(0.01493 -0.00070617 0.00096278)
(0.014243 -0.00046823 0.00087429)
(0.014357 -0.00047844 0.00067989)
(0.014165 -0.00064325 0.00087009)
(0.016894 -0.0010202 0.0013904)
(0.015856 -0.00071957 0.0013414)
(0.015986 -0.00072959 0.0010375)
(0.015768 -0.00098515 0.001335)
(0.01962 -0.0013642 0.0018593)
(0.018195 -0.00099887 0.0018595)
(0.018338 -0.0010087 0.0014346)
(0.018099 -0.0013649 0.0018503)
(0.023172 -0.0017341 0.002366)
(0.021325 -0.0012998 0.0024216)
(0.021481 -0.001312 0.001867)
(0.021225 -0.001776 0.0024095)
(0.027612 -0.0021316 0.0029138)
(0.025312 -0.0016202 0.003028)
(0.025482 -0.0016393 0.0023353)
(0.025208 -0.0022176 0.0030129)
(0.033018 -0.0025648 0.0035135)
(0.030225 -0.0019645 0.0036871)
(0.030413 -0.0019949 0.0028462)
(0.030115 -0.0026959 0.0036693)
(0.039491 -0.0030437 0.0041783)
(0.036152 -0.0023424 0.0044148)
(0.036363 -0.0023873 0.0034108)
(0.036035 -0.003223 0.004395)
(0.047156 -0.003573 0.0049148)
(0.043208 -0.0027623 0.0052261)
(0.043443 -0.0028235 0.0040396)
(0.043083 -0.0038103 0.0052052)
(0.056142 -0.0041437 0.0057127)
(0.05152 -0.0032235 0.0061219)
(0.051778 -0.0033036 0.004733)
(0.051394 -0.0044579 0.0061019)
(0.066547 -0.00473 0.0065396)
(0.061204 -0.0037101 0.0070789)
(0.061478 -0.003815 0.0054745)
(0.061088 -0.0051475 0.0070629)
(0.078395 -0.0052931 0.0073446)
(0.072323 -0.0041922 0.0080475)
(0.0726 -0.0043319 0.0062284)
(0.072234 -0.0058422 0.0080401)
(0.091611 -0.0057887 0.0080682)
(0.084853 -0.0046315 0.0089611)
(0.085119 -0.0048196 0.0069461)
(0.084811 -0.0064929 0.008968)
(0.10602 -0.0061762 0.0086541)
(0.098669 -0.0049905 0.0097493)
(0.09891 -0.0052418 0.0075753)
(0.098693 -0.0070498 0.0097774)
(0.12134 -0.0064238 0.0090568)
(0.11355 -0.0052385 0.010351)
(0.11375 -0.0055673 0.0080703)
(0.11365 -0.0074705 0.010409)
(0.13726 -0.0065063 0.0092398)
(0.12919 -0.0053542 0.010722)
(0.12935 -0.0057719 0.0083948)
(0.12939 -0.0077245 0.010818)
(0.15339 -0.0063937 0.0091617)
(0.14525 -0.0053191 0.010822)
(0.14536 -0.0058335 0.0085162)
(0.14556 -0.0077833 0.010966)
(0.1693 -0.0060369 0.0087546)