/*--------------------------------*- C++ -*----------------------------------*\
| =========                 |                                                 |
| \\      /  F ield         | OpenFOAM: The Open Source CFD Toolbox           |
|  \\    /   O peration     | Version:  4.1                                   |
|   \\  /    A nd           | Web:      www.OpenFOAM.org                      |
|    \\/     M anipulation  |                                                 |
\*---------------------------------------------------------------------------*/
FoamFile
{
    version     2.0;
    format      ascii;
    class       volVectorField;
    location    "0.000410";
    object      U;
}
// * * * * * * * * * * * * * * * * * * * * * * * * * * * * * * * * * * * * * //

dimensions      [0 1 -1 0 0 0 0];

internalField   nonuniform List<vector> 
3072
(
(12.14688 0.031998214 -4.5760587e-06)
(12.210187 0.027320688 -0.00020916287)
(12.277533 0.022735584 -0.00031302567)
(12.332943 0.018004396 -0.00033337036)
(12.391628 0.012795413 -0.00041641701)
(12.436097 0.0070399467 -0.00058386227)
(12.479332 0.00022321667 -0.00069085492)
(12.518641 -0.0074020417 -0.00070349716)
(12.555393 -0.016217478 -0.00073787728)
(12.594589 -0.022774429 -0.00088687137)
(12.622015 -0.032093792 -0.00095888213)
(12.67334 -0.040674299 -0.0007875854)
(12.731623 -0.04653817 -0.00047907111)
(12.797502 -0.05102034 -5.5761906e-05)
(12.881248 -0.049245319 0.00030126645)
(12.956009 -0.042450545 0.00060451349)
(13.042321 -0.023081125 0.000828826)
(13.09868 0.01407593 0.00097112994)
(13.108267 0.074220656 0.0009910783)
(13.008109 0.13310462 0.00097797989)
(12.756153 0.13572708 0.0010939345)
(12.464049 0.083192847 0.0011790875)
(12.213154 0.019701033 0.00099219875)
(11.810764 -0.1058286 0.00060028721)
(11.207127 0.046317037 -0.012330383)
(11.247222 0.04056264 -0.0081232293)
(11.300126 0.034374394 -0.003840765)
(11.354889 0.027700174 0.00058878235)
(11.417389 0.020191353 0.0048560592)
(11.476271 0.011900575 0.0087855734)
(11.538215 0.0032768431 0.013036656)
(11.599818 -0.0060162918 0.017120726)
(11.660237 -0.015076905 0.020973682)
(11.72327 -0.022503754 0.024400798)
(11.78052 -0.031276939 0.026852715)
(11.859527 -0.037084189 0.031063454)
(11.940318 -0.041305658 0.032843201)
(12.029468 -0.043224182 0.035730877)
(12.125767 -0.040370139 0.037123346)
(12.215803 -0.03330474 0.037823841)
(12.307416 -0.017692431 0.036812739)
(12.368591 0.0077052218 0.033156177)
(12.383154 0.044796453 0.028004733)
(12.303819 0.073209877 0.021265877)
(12.130792 0.059327941 0.017861035)
(11.995067 0.012958267 0.021373446)
(11.960558 -0.033403198 0.032289371)
(11.747782 -0.12895755 0.032718172)
(10.692109 0.046378575 -0.021406473)
(10.696116 0.0410866 -0.012775321)
(10.715442 0.035110504 -0.0039612853)
(10.744384 0.028546391 0.0051020168)
(10.785247 0.020820619 0.013714672)
(10.831245 0.012272605 0.02167251)
(10.884965 0.0032596275 0.029772778)
(10.943928 -0.0062239929 0.036943884)
(11.006221 -0.014802942 0.043292727)
(11.075316 -0.023220574 0.049124598)
(11.150111 -0.03049031 0.053522321)
(11.246078 -0.035074465 0.058100703)
(11.345682 -0.038429618 0.061539714)
(11.459293 -0.038638974 0.063741395)
(11.575296 -0.036552083 0.064810816)
(11.692041 -0.030447694 0.063960373)
(11.803769 -0.017969441 0.060370878)
(11.891126 0.00018650552 0.053482019)
(11.94007 0.024314698 0.04423708)
(11.91464 0.040817295 0.035687527)
(11.829021 0.028866561 0.039195064)
(11.795605 -0.0028244444 0.057730122)
(11.857676 -0.042635428 0.069334002)
(11.724773 -0.11750897 0.060260805)
(10.391187 0.045799676 -0.028391068)
(10.366354 0.040860672 -0.01508637)
(10.358066 0.035038652 -0.0016066309)
(10.363091 0.028458574 0.012004431)
(10.38272 0.020771383 0.024952285)
(10.412608 0.01272452 0.036632162)
(10.453175 0.0039329723 0.047844106)
(10.503213 -0.0050262654 0.057797802)
(10.560813 -0.013251078 0.066830929)
(10.63012 -0.020901774 0.074414913)
(10.71736 -0.026227623 0.081294197)
(10.818934 -0.029559972 0.087117821)
(10.9312 -0.031728757 0.091178194)
(11.056737 -0.031468031 0.094132131)
(11.185518 -0.029511532 0.094646123)
(11.319596 -0.02423805 0.092727949)
(11.445553 -0.01453959 0.087433824)
(11.554082 -0.0020701053 0.077428757)
(11.631476 0.012591209 0.06429451)
(11.650011 0.020848413 0.054260268)
(11.62609 0.009312823 0.065528108)
(11.659093 -0.01732599 0.099754343)
(11.786901 -0.050201171 0.11047498)
(11.71152 -0.098944192 0.092942231)
(10.180968 0.040175788 -0.038720073)
(10.131352 0.0362779 -0.020594375)
(10.099271 0.031394321 -0.0024476914)
(10.082168 0.025641638 0.015332964)
(10.081118 0.019087297 0.032216052)
(10.09465 0.011843636 0.047781707)
(10.122125 0.0040692822 0.062032296)
(10.163376 -0.0037468297 0.07471733)
(10.217937 -0.010731008 0.085881366)
(10.29022 -0.016221315 0.095777903)
(10.383111 -0.01970173 0.10510459)
(10.489329 -0.0216702 0.11257302)
(10.611971 -0.022660909 0.1180864)
(10.74287 -0.022117924 0.12161569)
(10.881205 -0.019890332 0.12251476)
(11.022525 -0.015340185 0.1205706)
(11.15869 -0.0078776213 0.11457004)
(11.282922 0.00030707802 0.10252813)
(11.378877 0.007982427 0.086483809)
(11.429844 0.0098070908 0.076290611)
(11.453164 -0.0038660382 0.094374963)
(11.541563 -0.029556739 0.13639618)
(11.727312 -0.052998288 0.14733417)
(11.700657 -0.078694352 0.12448476)
(10.042197 0.026716702 -0.050098724)
(9.972621 0.024247351 -0.027616544)
(9.9212034 0.020897435 -0.0052981274)
(9.8873108 0.016752069 0.016304144)
(9.871258 0.012028697 0.036518584)
(9.8729969 0.0066375863 0.054914516)
(9.8925308 0.0010546712 0.071738492)
(9.9297594 -0.0039570227 0.086692981)
(9.9860768 -0.007832392 0.10038512)
(10.062597 -0.010342785 0.11330726)
(10.157543 -0.011542261 0.12497181)
(10.268723 -0.011999726 0.13470122)
(10.392451 -0.012031266 0.14200115)
(10.525432 -0.011282305 0.14673081)
(10.664629 -0.0090522383 0.14823534)
(10.805751 -0.00501049 0.14658812)
(10.944317 0.00096397969 0.14136825)
(11.073123 0.0065444144 0.12791424)
(11.178326 0.0092213784 0.10899454)
(11.247989 0.0062938167 0.098794501)
(11.30284 -0.0085789033 0.12231619)
(11.437575 -0.030875601 0.17241262)
(11.675463 -0.047361009 0.18534279)
(11.690673 -0.056268666 0.1558845)
(9.9912779 0.0066910775 -0.059644736)
(9.9100454 0.0058499115 -0.033736624)
(9.8485611 0.004668906 -0.0078825009)
(9.8082406 0.0031296042 0.017057874)
(9.7892123 0.0015821553 0.04017642)
(9.7907737 6.2322238e-05 0.061140497)
(9.8124166 -0.0013652471 0.080485894)
(9.8526586 -0.0021823926 0.098467808)
(9.9107865 -0.0021057168 0.11549674)
(9.9869789 -0.001314035 0.13164146)
(10.07952 -2.6980846e-05 0.14629522)
(10.18596 0.0014453509 0.15848457)
(10.302944 0.0028953227 0.16776647)
(10.428365 0.0048230492 0.17429393)
(10.558519 0.0083057355 0.17807125)
(10.688487 0.014096389 0.18049229)
(10.816396 0.01783128 0.17577495)
(10.937034 0.018537839 0.15703494)
(11.036763 0.016278715 0.13243031)
(11.105982 0.0090112229 0.12061277)
(11.172927 -0.0049717083 0.15055793)
(11.340945 -0.022387169 0.2130354)
(11.625399 -0.033487853 0.2265908)
(11.67622 -0.032204974 0.18379832)
(10.074004 -0.0005000127 -0.065730742)
(9.992374 0.00023188453 -0.03552405)
(9.9340353 0.00077144138 -0.0053962885)
(9.8968326 0.0010012585 0.023258505)
(9.8787212 0.0009100336 0.050042027)
(9.878882 0.00057430592 0.074589654)
(9.8972496 0.00010857352 0.09707425)
(9.9329565 -0.00024630859 0.11775362)
(9.9846789 -0.0002594417 0.13690743)
(10.051871 8.3568242e-05 0.15430294)
(10.133276 0.00049912588 0.16935446)
(10.227078 0.00064588224 0.18131094)
(10.331123 0.00055576778 0.18926428)
(10.442892 0.00051943484 0.19302196)
(10.557855 0.00075378188 0.19277639)
(10.674209 0.0011948338 0.19169625)
(10.791111 0.0018783094 0.18003074)
(10.897738 0.0024827259 0.15997944)
(10.979086 0.0028434787 0.13869562)
(11.028304 0.0023158314 0.13459047)
(11.08325 0.00073679404 0.18097332)
(11.267538 -0.0012497442 0.2642797)
(11.594654 -0.0021313783 0.27360701)
(11.669347 -0.0014509758 0.19866203)
(11.208861 0.046178714 0.01229918)
(11.248993 0.04051838 0.0076658369)
(11.301308 0.034417425 0.0031301449)
(11.355673 0.02782898 -0.0014076773)
(11.418152 0.020367746 -0.0058764484)
(11.476638 0.012126581 -0.010179109)
(11.537544 0.0035612969 -0.014703031)
(11.598068 -0.0056787978 -0.018867463)
(11.657492 -0.01477134 -0.02273609)
(11.719285 -0.022212991 -0.026367414)
(11.774845 -0.030959115 -0.028974934)
(11.852365 -0.0368311 -0.032815265)
(11.931581 -0.041157372 -0.033857252)
(12.019921 -0.043177004 -0.035815935)
(12.115669 -0.040425036 -0.036360919)
(12.205552 -0.033431017 -0.036358813)
(12.296958 -0.017890846 -0.034845303)
(12.358371 0.0074020478 -0.030935581)
(12.373313 0.044381294 -0.025810247)
(12.29413 0.072695345 -0.019119591)
(12.121658 0.058773639 -0.015424117)
(11.987928 0.012529754 -0.018770138)
(11.956353 -0.033587648 -0.030241832)
(11.74632 -0.12896538 -0.031588856)
(10.448706 0.045535305 7.0118614e-05)
(10.451273 0.04104088 -0.00020933136)
(10.469547 0.035534741 -0.00039165149)
(10.499975 0.029053472 -0.00049502425)
(10.542975 0.021318043 -0.00062270148)
(10.594634 0.012708843 -0.00083780168)
(10.65728 0.0037652172 -0.0010315345)
(10.727895 -0.0058595014 -0.0010782272)
(10.805893 -0.014178246 -0.0011375354)
(10.892005 -0.022037595 -0.001233732)
(10.98287 -0.028316099 -0.0012176016)
(11.083954 -0.031522152 -0.00099368812)
(11.189683 -0.033874248 -0.00060080122)
(11.299814 -0.03293779 -6.9192378e-05)
(11.41037 -0.029642423 0.00039824847)
(11.515432 -0.022760126 0.00083589382)
(11.610247 -0.01010098 0.0011167707)
(11.678375 0.0071159628 0.001267253)
(11.702356 0.028362537 0.0012306657)
(11.658794 0.040166057 0.0012159784)
(11.571849 0.026570349 0.0013631125)
(11.558868 -0.0016565844 0.0013890654)
(11.675418 -0.037736693 0.00098767668)
(11.650267 -0.1169275 0.00048778863)
(10.118618 0.034645124 -0.01287741)
(10.093314 0.030893294 -0.0084473214)
(10.084021 0.02617987 -0.0038788558)
(10.090546 0.020558712 0.00083497942)
(10.113145 0.013827674 0.0052950393)
(10.150625 0.0065898738 0.0097509046)
(10.20295 -0.0012638985 0.013934253)
(10.268318 -0.009466705 0.017977137)
(10.347299 -0.016805865 0.02139917)
(10.439685 -0.023220956 0.0240229)
(10.542974 -0.027484673 0.025903907)
(10.657537 -0.028995939 0.028080775)
(10.77932 -0.030312491 0.02921516)
(10.906371 -0.028750906 0.030113954)
(11.034283 -0.025831752 0.029947731)
(11.158399 -0.019785323 0.029270375)
(11.271266 -0.0097328858 0.027128226)
(11.361983 0.0026835028 0.023578284)
(11.417145 0.0164828 0.01905873)
(11.424496 0.023621006 0.015606387)
(11.407649 0.014775103 0.016615161)
(11.459162 -0.0044363188 0.02170363)
(11.622924 -0.035443696 0.027292722)
(11.640556 -0.09295967 0.026618893)
(9.9842968 0.028382453 -0.021628385)
(9.9427414 0.024929111 -0.012535115)
(9.9178936 0.02068144 -0.0032510533)
(9.9102042 0.015678009 0.0063322053)
(9.920433 0.010063439 0.01542516)
(9.947845 0.0038855708 0.023895429)
(9.9912285 -0.0028267176 0.031966347)
(10.049778 -0.0095999137 0.039281434)
(10.12422 -0.015711519 0.045469501)
(10.214169 -0.020331756 0.05091086)
(10.3179 -0.022905815 0.055141458)
(10.433457 -0.023865745 0.05858708)
(10.557756 -0.02398064 0.061116635)
(10.687981 -0.022906502 0.062387793)
(10.820251 -0.020296056 0.062253751)
(10.950502 -0.015472554 0.060567116)
(11.071692 -0.0080680789 0.056379607)
(11.175388 0.00077248243 0.049356256)
(11.25112 0.0098985126 0.040494921)
(11.29117 0.014515614 0.03374293)
(11.315888 0.0082595442 0.036983984)
(11.404181 -0.0074352397 0.051511369)
(11.596302 -0.031892268 0.060537706)
(11.639418 -0.069398405 0.059320748)
(9.9065614 0.020818274 -0.03106096)
(9.8551814 0.018233176 -0.017490051)
(9.8217662 0.015104974 -0.0038216202)
(9.8058917 0.011438829 0.0099187304)
(9.8079099 0.0074053442 0.023132157)
(9.8274821 0.0024730723 0.035258463)
(9.8640844 -0.0027423137 0.046699588)
(9.9174396 -0.0080364603 0.056875631)
(9.9873618 -0.012289248 0.065892669)
(10.073313 -0.015078571 0.073854136)
(10.173891 -0.016500429 0.080699706)
(10.286963 -0.0170347 0.08612988)
(10.409695 -0.01706684 0.090073906)
(10.538788 -0.016360763 0.092462182)
(10.67116 -0.014421494 0.092909453)
(10.8027 -0.01107235 0.090929534)
(10.927804 -0.0061485767 0.08563361)
(11.039415 3.0072024e-05 0.076192914)
(11.128368 0.006010205 0.064062454)
(11.189136 0.0088546746 0.055449424)
(11.240878 0.0034516198 0.062593938)
(11.357985 -0.0089301973 0.085869474)
(11.576471 -0.02598875 0.097280498)
(11.639197 -0.04625295 0.094278289)
(9.8646025 0.01105574 -0.040371334)
(9.806221 0.010079773 -0.022777266)
(9.7666865 0.0086612528 -0.0052959302)
(9.7456113 0.0067286297 0.011843995)
(9.7426067 0.0044183193 0.028149508)
(9.7566061 0.0015273817 0.043305487)
(9.7875734 -0.0016378764 0.057479996)
(9.8358119 -0.0046086359 0.07036795)
(9.9008889 -0.0066922106 0.082114641)
(9.9826954 -0.0077680324 0.092938474)
(10.079882 -0.0081718739 0.10258106)
(10.189621 -0.0084518468 0.11051457)
(10.309152 -0.0088669524 0.11649891)
(10.436186 -0.0089260733 0.12042092)
(10.567466 -0.0080951836 0.12176379)
(10.698603 -0.0064221007 0.1200466)
(10.825061 -0.0039603225 0.11452259)
(10.940826 0.00040434954 0.10379826)
(11.037117 0.0043177769 0.088814143)
(11.10914 0.0057078216 0.078513428)
(11.177671 0.001284818 0.090647682)
(11.319171 -0.0075719506 0.12319681)
(11.563384 -0.01724806 0.13698463)
(11.639684 -0.024099492 0.12925974)
(9.8863389 -0.00056139984 -0.048435166)
(9.8199377 0.0005370705 -0.027437475)
(9.7722048 0.0013087309 -0.0066536977)
(9.7440544 0.0016320705 0.013540085)
(9.7353018 0.0015149678 0.03258836)
(9.7438444 0.00099404263 0.050327939)
(9.7691268 0.00025246275 0.067082126)
(9.8115365 -0.00031490951 0.082756227)
(9.8709565 -0.00031044967 0.097478391)
(9.9471879 0.0002377385 0.11135697)
(10.038807 0.00081659427 0.12398084)
(10.143132 0.00093177404 0.13462465)
(10.258038 0.00065403383 0.14298371)
(10.38179 0.00054563398 0.14893246)
(10.510736 0.00096693084 0.15189365)
(10.640058 0.001786371 0.15191658)
(10.764996 0.0029676455 0.14862877)
(10.880502 0.004049472 0.13524279)
(10.978018 0.0046674606 0.11426633)
(11.05169 0.0037567649 0.10055557)
(11.126155 0.00096633157 0.11863134)
(11.287505 -0.0025746675 0.16341333)
(11.558645 -0.0041669104 0.17918153)
(11.641668 -0.0029118694 0.16087747)
(9.9963057 -0.0079052043 -0.059779247)
(9.9146296 -0.0052893976 -0.034229023)
(9.85154 -0.0028115467 -0.0085679476)
(9.808985 -0.00067065563 0.016325079)
(9.7878541 0.00074621598 0.039492817)
(9.7880549 0.0015237059 0.060632964)
(9.8089952 0.0018319461 0.080303005)
(9.8495519 0.0017680708 0.098540756)
(9.9085189 0.0016492605 0.1155936)
(9.9849883 0.0016554361 0.13151897)
(10.076139 0.0013087312 0.14594028)
(10.18077 0.00011367583 0.1581188)
(10.296997 -0.0016247781 0.16761629)
(10.423166 -0.0036524181 0.17423004)
(10.554597 -0.0065118468 0.17781395)
(10.685768 -0.011059347 0.17974468)
(10.813232 -0.013052912 0.17435183)
(10.930504 -0.012089477 0.15496476)
(11.024571 -0.0091122322 0.13008091)
(11.087397 -0.0031953084 0.11863304)
(11.149701 0.0065699023 0.15005119)
(11.31859 0.018679021 0.21433933)
(11.610581 0.027470848 0.22885795)
(11.670504 0.028079468 0.18545543)
(10.693929 0.046139348 0.021295315)
(10.698203 0.040993758 0.012291718)
(10.717294 0.035183199 0.0032277031)
(10.745911 0.028784715 -0.0059808072)
(10.786434 0.021090071 -0.014771725)
(10.831572 0.01253114 -0.023072359)
(10.883557 0.0035168241 -0.031419323)
(10.940652 -0.0059956988 -0.038671742)
(11.001151 -0.014482871 -0.04500546)
(11.068014 -0.02293148 -0.050890254)
(11.140252 -0.030368968 -0.055305781)
(11.233032 -0.035057321 -0.059469866)
(11.329797 -0.038489825 -0.062236245)
(11.442302 -0.038732026 -0.063641278)
(11.557336 -0.03675255 -0.063847835)
(11.673705 -0.030728622 -0.062374282)
(11.785035 -0.018346053 -0.058264982)
(11.873184 -0.00034153809 -0.051208115)
(11.923322 0.023624983 -0.042069245)
(11.898439 0.039983276 -0.033614412)
(11.814236 0.028229225 -0.036975821)
(11.784913 -0.0029079712 -0.055562679)
(11.852216 -0.042175405 -0.067851119)
(11.723126 -0.11707242 -0.059499345)
(10.120355 0.034565945 0.013060076)
(10.095571 0.030894559 0.0080562257)
(10.086647 0.026254616 0.0030908876)
(10.093016 0.020686601 -0.0018764124)
(10.115222 0.013958223 -0.0066031186)
(10.15252 0.0066151388 -0.011431958)
(10.204343 -0.0013035296 -0.015989465)
(10.268756 -0.0095185901 -0.020244561)
(10.346743 -0.016797344 -0.023690981)
(10.438152 -0.023224984 -0.026354414)
(10.540312 -0.027645307 -0.028149658)
(10.653424 -0.029207301 -0.029800392)
(10.774045 -0.030535008 -0.030104705)
(10.900659 -0.028928017 -0.030047539)
(11.028311 -0.025982099 -0.028958367)
(11.152262 -0.019970182 -0.027426396)
(11.265237 -0.0099128671 -0.024739778)
(11.356583 0.0024262565 -0.020921432)
(11.412493 0.016135487 -0.016485321)
(11.420454 0.023249592 -0.013125547)
(11.404615 0.0146808 -0.014081615)
(11.457786 -0.0041145822 -0.019404319)
(11.62295 -0.034855772 -0.025958257)
(11.640796 -0.09255386 -0.026118444)
(9.8919454 0.023950978 0.00019045558)
(9.8534095 0.020874963 -0.00016049905)
(9.8312039 0.017027477 -0.00041228511)
(9.8266951 0.012505586 -0.00058195156)
(9.8407961 0.0072485254 -0.00070599709)
(9.8737487 0.0013849241 -0.00085112924)
(9.9238821 -0.0047443439 -0.0010246382)
(9.9903691 -0.011000896 -0.0011089245)
(10.07424 -0.01672259 -0.0011935961)
(10.174656 -0.020789057 -0.0012068143)
(10.289001 -0.023248329 -0.0010514352)
(10.413958 -0.023809386 -0.00070932504)
(10.54685 -0.02333651 -0.00032479983)
(10.683915 -0.021969103 0.00015519186)
(10.821585 -0.019105089 0.00060673106)
(10.955047 -0.014109784 0.0010119622)
(11.076922 -0.0066195165 0.0012885162)
(11.178959 0.0018413708 0.0014586055)
(11.251854 0.010112567 0.0014185595)
(11.290878 0.013285464 0.001346983)
(11.316516 0.0056377714 0.0012065116)
(11.401533 -0.0099616819 0.00086678566)
(11.585616 -0.033245916 0.00028296702)
(11.632189 -0.071374192 -2.5256779e-05)
(9.8114446 0.017467893 -0.010474492)
(9.7646234 0.015136399 -0.0060757067)
(9.7355545 0.012251022 -0.001496187)
(9.7257787 0.0089714514 0.0032779931)
(9.7361617 0.0053298215 0.007858208)
(9.7663422 0.000793645 0.012388416)
(9.8148271 -0.0039536653 0.016403032)
(9.8810667 -0.0086689533 0.020219685)
(9.9652455 -0.012329071 0.023467955)
(10.066147 -0.01489978 0.026015609)
(10.181269 -0.016012334 0.028422427)
(10.307457 -0.016083544 0.030312098)
(10.440935 -0.015424164 0.031634713)
(10.57789 -0.01418124 0.032416402)
(10.715581 -0.012004451 0.032352193)
(10.849866 -0.0083414695 0.031568293)
(10.974237 -0.0032994526 0.029559044)
(11.081601 0.002342661 0.026163478)
(11.165033 0.0072587914 0.021861804)
(11.221871 0.0084989005 0.018912636)
(11.269467 0.002510132 0.021007433)
(11.371911 -0.0089374786 0.02756105)
(11.568507 -0.025907641 0.03112399)
(11.630521 -0.049167595 0.031122299)
(9.7720625 0.0095251078 -0.021435275)
(9.7212619 0.0085177957 -0.012353754)
(9.6899752 0.007150225 -0.0030645438)
(9.6782352 0.0054885113 0.0063939814)
(9.686056 0.0035310036 0.015528885)
(9.7128846 0.00081176984 0.024144435)
(9.758318 -0.0022559162 0.032096039)
(9.8221314 -0.0051123454 0.039259158)
(9.9033436 -0.0071040108 0.045414845)
(10.000866 -0.0080837896 0.050779524)
(10.11261 -0.0082190142 0.05544278)
(10.235072 -0.0080908624 0.058921437)
(10.365027 -0.0078467432 0.061235208)
(10.499442 -0.0072129353 0.062557186)
(10.635497 -0.0058254673 0.062637165)
(10.769417 -0.003476664 0.061179658)
(10.895371 -0.0004387265 0.057412285)
(11.007115 0.0029131491 0.051243967)
(11.098324 0.0054771919 0.043505384)
(11.166234 0.005655216 0.038638797)
(11.227682 0.0012944991 0.043497999)
(11.345429 -0.0064684527 0.057359952)
(11.557064 -0.016061739 0.064543176)
(11.630282 -0.025843861 0.065303522)
(9.7767345 -0.00041603627 -0.03177806)
(9.7237245 0.00064243408 -0.01821867)
(9.6904531 0.0013760362 -0.0046024468)
(9.6759832 0.0017292063 0.0089009493)
(9.6801065 0.0016996889 0.021834249)
(9.7022193 0.0011076808 0.034063101)
(9.7420079 0.00020911606 0.045483766)
(9.7996742 -0.00046047277 0.055772995)
(9.8747294 -0.00048993489 0.064844237)
(9.9663601 5.8031387e-05 0.07296593)
(10.072392 0.00068281437 0.08001738)
(10.189261 0.00088078952 0.085505879)
(10.314457 0.00069142746 0.089321156)
(10.445749 0.00064386766 0.09160596)
(10.580064 0.001127219 0.092047978)
(10.713272 0.0020791021 0.090130425)
(10.840093 0.0033417213 0.085188688)
(10.954517 0.004424806 0.076581783)
(11.049344 0.0048675936 0.065766401)
(11.121554 0.0038340491 0.059228049)
(11.190063 0.00093957836 0.067565056)
(11.321755 -0.0028225624 0.089767089)
(11.550592 -0.0046216166 0.10031271)
(11.630982 -0.003362738 0.099203818)
(9.8625987 -0.01208531 -0.040482589)
(9.8041437 -0.0089263672 -0.02288747)
(9.7639786 -0.0059932307 -0.0053910102)
(9.7419772 -0.0033831431 0.011725595)
(9.7385076 -0.0011665952 0.027913516)
(9.7529544 0.00065330455 0.043197036)
(9.7844921 0.0022102276 0.057551741)
(9.8333206 0.0039655289 0.070554543)
(9.8994062 0.0060149573 0.082317653)
(9.9816076 0.0081186179 0.093116783)
(10.078041 0.0096378077 0.10273972)
(10.186577 0.01023142 0.1105598)
(10.305294 0.010203483 0.11647794)
(10.432157 0.010162973 0.12034225)
(10.563776 0.010238405 0.12160012)
(10.695421 0.010373665 0.11972266)
(10.821539 0.010201717 0.11418257)
(10.935395 0.0079540468 0.10345971)
(11.028515 0.0048805013 0.08851487)
(11.097002 0.0016178803 0.078419365)
(11.163244 0.00050552595 0.09055711)
(11.305461 0.0022429447 0.12325809)
(11.553796 0.0086132353 0.13731648)
(11.635068 0.017953011 0.12969748)
(10.049011 -0.027919777 -0.050204858)
(9.9789085 -0.023664116 -0.02813318)
(9.9253541 -0.018992267 -0.0060757386)
(9.8885133 -0.014193741 0.015411739)
(9.8695658 -0.0095101392 0.035622586)
(9.869304 -0.0047363974 0.054214953)
(9.8879232 -0.0003369421 0.071569585)
(9.9257988 0.0037605483 0.086883466)
(9.9836535 0.0075236318 0.10057633)
(10.060542 0.010651938 0.11332548)
(10.153687 0.012696508 0.1248051)
(10.262169 0.013485261 0.13444668)
(10.384811 0.013388303 0.14181741)
(10.518595 0.01269597 0.1465087)
(10.659159 0.011113421 0.14772095)
(10.800867 0.008341704 0.14554733)
(10.937441 0.0039387508 0.13970558)
(11.060325 -0.00013826565 0.12562217)
(11.156171 -0.0025570339 0.10667251)
(11.215625 -0.0011562549 0.097031976)
(11.263827 0.0097785181 0.12187584)
(11.400755 0.027025829 0.17387661)
(11.650797 0.041342598 0.18794604)
(11.680412 0.052054129 0.15793599)
(10.392225 0.04557877 0.028162095)
(10.367815 0.04088924 0.014515871)
(10.359684 0.035260476 0.00080255321)
(10.364613 0.028803619 -0.012931774)
(10.383837 0.021118166 -0.025975156)
(10.412501 0.012925952 -0.037903407)
(10.450843 0.0040522742 -0.049277855)
(10.498549 -0.0049096178 -0.059193183)
(10.554048 -0.013087249 -0.068285961)
(10.620815 -0.020814018 -0.075873887)
(10.704973 -0.026445834 -0.082499081)
(10.803074 -0.029954691 -0.087877113)
(10.913374 -0.03215815 -0.091455747)
(11.037006 -0.03181786 -0.093772382)
(11.164921 -0.029830799 -0.093567719)
(11.298802 -0.024689383 -0.091052076)
(11.424976 -0.015067423 -0.085220588)
(11.535304 -0.0027607608 -0.075163485)
(11.614626 0.011685303 -0.062229659)
(11.634725 0.019873627 -0.052404429)
(11.613682 0.008920064 -0.063794823)
(11.651595 -0.016793322 -0.098295013)
(11.784427 -0.04902087 -0.10963543)
(11.711222 -0.098031242 -0.092414698)
(9.9855956 0.028306477 0.021668239)
(9.944826 0.025058101 0.012014291)
(9.9205349 0.020916662 0.0023560813)
(9.9128952 0.015941855 -0.0074356414)
(9.9229591 0.010270177 -0.016696256)
(9.9501487 0.0038767579 -0.025469462)
(9.9926037 -0.002970289 -0.03380266)
(10.049626 -0.0097092398 -0.041255574)
(10.122527 -0.015843597 -0.047466362)
(10.210889 -0.020557843 -0.052866548)
(10.31285 -0.023325006 -0.056850619)
(10.426599 -0.024450891 -0.059750402)
(10.549763 -0.024517591 -0.061566604)
(10.679584 -0.023317956 -0.062067959)
(10.811995 -0.02060195 -0.061070451)
(10.942581 -0.01575877 -0.058623542)
(11.064611 -0.0083423352 -0.053894488)
(11.169758 0.00038364802 -0.046724405)
(11.247149 0.0093092407 -0.037962118)
(11.289164 0.013964812 -0.031417002)
(11.316482 0.0083166298 -0.034882284)
(11.407085 -0.0066159435 -0.04990222)
(11.599809 -0.030768301 -0.059833925)
(11.641203 -0.068647288 -0.059138203)
(9.8121034 0.017464618 0.010809439)
(9.7658907 0.015238771 0.0056602414)
(9.7371015 0.012382775 0.00058113339)
(9.7271816 0.0091107569 -0.0045101153)
(9.7374397 0.0054234161 -0.0093169656)
(9.7677174 0.00079352752 -0.014019826)
(9.8157941 -0.0040578363 -0.018254037)
(9.8809978 -0.008820918 -0.022248026)
(9.9640978 -0.012486567 -0.025583796)
(10.064031 -0.015112097 -0.028060722)
(10.178429 -0.016320951 -0.030053172)
(10.304267 -0.016448463 -0.031260188)
(10.437562 -0.015696305 -0.031844284)
(10.574604 -0.01436484 -0.031827417)
(10.712553 -0.012140436 -0.030947322)
(10.847298 -0.0083966677 -0.029401474)
(10.972399 -0.0033388348 -0.026915169)
(11.080515 0.0022654966 -0.02323721)
(11.164887 0.0070821625 -0.018964653)
(11.223284 0.0083542173 -0.016263901)
(11.272572 0.0026587223 -0.018993782)
(11.37578 -0.0084618615 -0.026505597)
(11.57185 -0.025417462 -0.031180024)
(11.6321 -0.048871206 -0.031530683)
(9.7416369 0.0090254235 0.00024691529)
(9.6908463 0.0081917189 -0.00019328608)
(9.6592739 0.0069122719 -0.00046994952)
(9.6487426 0.0054311659 -0.00065891357)
(9.6598333 0.0036739925 -0.00077857616)
(9.6918968 0.0010230797 -0.00082871556)
(9.7439577 -0.0020707733 -0.00087908629)
(9.8152385 -0.0048127132 -0.00093559141)
(9.9044323 -0.00670491 -0.00096346652)
(10.01003 -0.0076450088 -0.0008979304)
(10.129901 -0.0077082677 -0.00066155026)
(10.260011 -0.0074883937 -0.00026604418)
(10.395862 -0.007029613 5.3089899e-05)
(10.53386 -0.0061776198 0.00043092553)
(10.671975 -0.0046933338 0.00080510058)
(10.806903 -0.0022547208 0.0011314976)
(10.932173 0.00073259216 0.0013401672)
(11.041098 0.0039057605 0.0014817624)
(11.128758 0.0061635013 0.0015182399)
(11.194071 0.0059020799 0.0013551882)
(11.252002 0.0014858607 0.00085362756)
(11.360025 -0.0060623164 0.0001973275)
(11.558551 -0.01593468 -0.0003390134)
(11.628127 -0.027050438 -0.00040460185)
(9.7224743 -0.00019967786 -0.010896861)
(9.670472 0.00075286228 -0.0065669594)
(9.6390979 0.0013811361 -0.0019760468)
(9.6289459 0.0017690737 0.0027784922)
(9.6397254 0.001868728 0.0073957676)
(9.6708099 0.0012240855 0.011843278)
(9.7222228 0.00013497284 0.015989338)
(9.7934347 -0.00065813615 0.019654062)
(9.8823777 -0.00076768644 0.022796333)
(9.9875676 -0.00025103356 0.025545739)
(10.106614 0.00044207091 0.027945528)
(10.235037 0.00069868443 0.029781164)
(10.369099 0.00063133213 0.030856953)
(10.505891 0.00068017701 0.03156064)
(10.643262 0.0012941229 0.031647795)
(10.777949 0.0023742666 0.030874649)
(10.903563 0.0036468638 0.028961191)
(11.013687 0.0046917083 0.025967564)
(11.103189 0.0050401433 0.022235755)
(11.170938 0.0039401308 0.019819313)
(11.232767 0.0010972192 0.021846708)
(11.346315 -0.0027081295 0.02809472)
(11.551342 -0.0046307357 0.031576437)
(11.626301 -0.0034302165 0.033027394)
(9.767649 -0.010153461 -0.021603825)
(9.7167471 -0.0070493878 -0.012434656)
(9.6859091 -0.0042836046 -0.0030660839)
(9.6744727 -0.001931132 0.0063607737)
(9.6820989 0.00010924075 0.015382224)
(9.7087891 0.001583792 0.024042444)
(9.7542643 0.002705679 0.032192641)
(9.8183834 0.0041473616 0.039483783)
(9.9005025 0.0060461002 0.04570719)
(9.9989669 0.0080351183 0.051116432)
(10.110981 0.0093539706 0.055719778)
(10.232964 0.0096495734 0.059175094)
(10.362181 0.0091360804 0.061346796)
(10.496072 0.0085362616 0.062577282)
(10.631897 0.0082762141 0.06248989)
(10.765713 0.0079707064 0.060915261)
(10.891141 0.0072951715 0.057081434)
(11.001432 0.0060158787 0.050946583)
(11.090077 0.0041287166 0.04333179)
(11.155442 0.0018178572 0.038526238)
(11.21593 0.00064936996 0.043298745)
(11.334594 0.0011229907 0.057155067)
(11.549275 0.0070860542 0.064494653)
(11.626133 0.019257523 0.065294087)
(9.9044486 -0.021805743 -0.031354402)
(9.8523672 -0.016951455 -0.017730712)
(9.8184751 -0.012268567 -0.0039791207)
(9.8020512 -0.0079465678 0.009762038)
(9.8032725 -0.0038226855 0.022601475)
(9.8223683 2.9537344e-05 0.035126458)
(9.8590814 0.0036009137 0.046864339)
(9.9135806 0.0076956747 0.057244573)
(9.9855352 0.011869601 0.06632753)
(10.072771 0.015461352 0.074289607)
(10.172718 0.017725608 0.081192146)
(10.283708 0.018591383 0.08643571)
(10.404673 0.018340929 0.090260942)
(10.533179 0.017762061 0.092519008)
(10.66554 0.016917221 0.092648365)
(10.796881 0.015321314 0.090318139)
(10.920444 0.012375706 0.084885038)
(11.028329 0.0080197327 0.075545017)
(11.111524 0.002427302 0.063559755)
(11.166431 -0.0024281413 0.055207418)
(11.21501 -0.0019616129 0.062382823)
(11.333541 0.0040160138 0.085676246)
(11.558891 0.018078263 0.097363119)
(11.630355 0.040571904 0.094611304)
(10.192594 -0.041451948 -0.038819807)
(10.142329 -0.035645305 -0.02117556)
(10.107922 -0.029281721 -0.0033862274)
(10.087356 -0.022798355 0.014232763)
(10.082116 -0.016415439 0.031089364)
(10.091835 -0.0095359863 0.046864997)
(10.117149 -0.0029838741 0.061890188)
(10.158855 0.0040690809 0.074914049)
(10.21521 0.010982032 0.086054532)
(10.287185 0.016758958 0.095897779)
(10.378119 0.02075579 0.10516436)
(10.481456 0.02289231 0.11260341)
(10.603124 0.023913638 0.11817289)
(10.734435 0.023633614 0.12154179)
(10.872605 0.022185642 0.12184425)
(11.012788 0.018756597 0.11911952)
(11.145356 0.01251458 0.11269879)
(11.262629 0.005410034 0.10036563)
(11.346897 -0.0022700803 0.084293612)
(11.386273 -0.0056967935 0.074839421)
(11.403313 0.0047547539 0.093921792)
(11.495214 0.026175569 0.13755746)
(11.695545 0.047836664 0.14956636)
(11.686707 0.075129659 0.12630859)
(10.181722 0.040039092 0.038463989)
(10.132111 0.036490635 0.020011819)
(10.099668 0.03181911 0.0016221137)
(10.082244 0.02617526 -0.016296287)
(10.081348 0.019568722 -0.033280563)
(10.094503 0.012014197 -0.048913258)
(10.119963 0.004000352 -0.063187502)
(10.158447 -0.0038584431 -0.075822975)
(10.210398 -0.010844725 -0.086933331)
(10.279569 -0.016460922 -0.096749996)
(10.368989 -0.020242446 -0.10580086)
(10.47234 -0.022395545 -0.11287338)
(10.59331 -0.023373844 -0.11796075)
(10.722972 -0.022690556 -0.1209964)
(10.861089 -0.020394718 -0.12136867)
(11.002265 -0.015864819 -0.11883478)