/*--------------------------------*- C++ -*----------------------------------*\
| =========                 |                                                 |
| \\      /  F ield         | OpenFOAM: The Open Source CFD Toolbox           |
|  \\    /   O peration     | Version:  4.1                                   |
|   \\  /    A nd           | Web:      www.OpenFOAM.org                      |
|    \\/     M anipulation  |                                                 |
\*---------------------------------------------------------------------------*/
FoamFile
{
    version     2.0;
    format      ascii;
    class       volScalarField;
    location    "0.000590";
    object      nut;
}
// * * * * * * * * * * * * * * * * * * * * * * * * * * * * * * * * * * * * * //

dimensions      [0 2 -1 0 0 0 0];

internalField   nonuniform List<scalar> 
3072
(
0.00024062219
0.00021318982
0.00020782746
0.00020824943
0.0002112795
0.00021521184
0.00021959146
0.00022414626
0.00022910509
0.00023437422
0.00024002547
0.00024591962
0.00025192769
0.00025795304
0.00026363964
0.00026875109
0.00027091073
0.00027168409
0.00027012714
0.00026617872
0.00026067752
0.00025296912
0.00024529722
0.00023750868
0.00031765175
0.00029178595
0.0002821818
0.0002806142
0.00028251154
0.0002856168
0.00028938907
0.00029355294
0.00029841313
0.00030386697
0.00031012508
0.00031700896
0.00032442813
0.00033227873
0.00034016582
0.0003477641
0.00035241084
0.00035579622
0.00035630639
0.00035391382
0.00034911664
0.00034109133
0.00033280226
0.00032400758
0.00037274779
0.00034209073
0.00032897691
0.00032548055
0.00032592403
0.00032788151
0.00033070588
0.00033418427
0.0003385122
0.00034370229
0.00034987201
0.00035685033
0.00036455414
0.00037286869
0.0003814668
0.00038998981
0.0003959407
0.0004008352
0.0004031471
0.00040249625
0.00039931769
0.0003925403
0.00038517776
0.00037727273
0.00042498752
0.00039189087
0.00037547612
0.00036958749
0.00036806816
0.00036825668
0.00036953755
0.00037178346
0.00037497286
0.00037940549
0.0003850037
0.00039173508
0.00039948136
0.00040814993
0.00041751943
0.00042715153
0.00043479828
0.00044169119
0.00044640918
0.00044804328
0.00044696817
0.00044206257
0.00043576857
0.00042874725
0.00047079146
0.00044027169
0.00042134051
0.00041231648
0.00040755535
0.00040461255
0.00040291792
0.00040243078
0.00040306347
0.00040537865
0.00040926969
0.00041482991
0.00042197896
0.00043055131
0.00044049079
0.00045130932
0.00046128934
0.00047102953
0.00047944606
0.00048487018
0.00048748547
0.00048611803
0.00048217382
0.00047715061
0.00049844223
0.00047870345
0.0004587647
0.00044591586
0.00043629904
0.00042848735
0.00042202186
0.00041691653
0.00041374503
0.00041256241
0.00041385113
0.00041740091
0.00042343409
0.00043168425
0.00044221267
0.00045453799
0.00046751348
0.00048109236
0.00049448781
0.00050541204
0.00051356985
0.00051775531
0.00051779008
0.00051614035
0.00047934708
0.00048063532
0.0004629344
0.00044648484
0.00043179778
0.00041823721
0.00040627562
0.00039620274
0.00038881024
0.00038425643
0.00038288042
0.0003845226
0.00038935171
0.00039741784
0.00040857165
0.00042273187
0.00043911815
0.00045731979
0.0004765438
0.00049498466
0.00051054713
0.00052197901
0.00052899557
0.00053310192
0.00036612569
0.00038698563
0.00037412372
0.00035967418
0.00034515343
0.00033185559
0.00032027888
0.00031090526
0.00030419058
0.0003003823
0.00029968668
0.00030176286
0.00030635243
0.00031400272
0.00032473278
0.00033872013
0.00035617424
0.00037712136
0.00040100719
0.00042633454
0.00045063122
0.00047132703
0.00048690762
0.0004983126
0.00031766078
0.00029175248
0.00028212115
0.00028053646
0.00028241362
0.00028548043
0.0002891996
0.00029328866
0.00029810359
0.00030353974
0.00030978363
0.00031665132
0.00032406157
0.00033191812
0.00033983609
0.00034748403
0.00035219575
0.00035563529
0.00035618134
0.00035383972
0.00034907373
0.00034106748
0.00033278419
0.00032397723
0.0004393099
0.00041567885
0.00040093807
0.00039628549
0.00039570535
0.00039680752
0.00039874972
0.00040135057
0.00040501692
0.00040962289
0.00041562841
0.00042270418
0.00043083352
0.00043981946
0.00044921583
0.00045875216
0.00046577977
0.00047183728
0.00047484208
0.00047484542
0.00047170934
0.00046484026
0.00045722863
0.00044882184
0.0005318557
0.00050119093
0.00048124957
0.0004738089
0.00047133216
0.00047125998
0.00047230902
0.0004742099
0.0004772958
0.00048147215
0.00048712685
0.00049390412
0.00050174238
0.00051044415
0.0005195532
0.00052887037
0.0005360511
0.00054234324
0.00054595924
0.00054671369
0.0005444019
0.00053837376
0.00053139905
0.0005236861
0.00060838775
0.00057716194
0.00055551577
0.00054622004
0.00054235368
0.00054084822
0.00054060385
0.00054143056
0.00054335447
0.00054663649
0.00055133493
0.00055729604
0.00056442067
0.00057254918
0.00058137171
0.0005905453
0.00059831142
0.00060541015
0.00061044024
0.00061276627
0.00061214258
0.00060784274
0.00060201383
0.000595308
0.00066289306
0.00063563078
0.00061406169
0.00060289663
0.00059672077
0.00059268409
0.0005898302
0.00058809618
0.00058744743
0.0005883855
0.00059086075
0.00059500975
0.00060072585
0.00060777665
0.00061605059
0.00062513161
0.00063391734
0.00064249714
0.00064989498
0.00065496535
0.00065730085
0.00065619178
0.00065280832
0.00064847061
0.00068382761
0.00066490954
0.00064431168
0.00063073075
0.00062123681
0.00061332614
0.00060651418
0.00060079032
0.00059652629
0.00059415195
0.00059378846
0.00059571197
0.00059987095
0.00060610727
0.00061425662
0.00062398022
0.00063457051
0.00064555902
0.00065623503
0.00066507542
0.00067123497
0.00067392944
0.00067353116
0.0006717484
0.00063381589
0.00062627911
0.00060841799
0.00059368009
0.0005818101
0.00057080743
0.00056058236
0.00055153852
0.0005439474
0.0005383787
0.00053533639
0.00053511816
0.00053780802
0.00054315511
0.00055120746
0.00056182824
0.0005746958
0.00058912211
0.00060399799
0.00061792429
0.00062921593
0.00063657497
0.00064009085
0.00064142769
0.00047937765
0.00048034632
0.00046254872
0.00044609726
0.00043155213
0.00041814022
0.0004062368
0.00039611346
0.00038863261
0.0003839946
0.00038249232
0.00038424717
0.00038920184
0.00039732816
0.00040852936
0.00042270482
0.00043920965
0.00045734545
0.00047650287
0.00049502587
0.00051084624
0.0005223542
0.00052944226
0.00053370475
0.00037264191
0.00034184956
0.00032865523
0.0003251107
0.000325491
0.00032734953
0.00033003845
0.00033333328
0.00033756286
0.00034270746
0.00034883709
0.00035578412
0.00036349164
0.0003718458
0.0003805332
0.0003891858
0.00039529784
0.00040032122
0.00040271382
0.00040215558
0.00039902173
0.00039224724
0.00038488222
0.0003769717
0.00053173124
0.00050094597
0.00048090398
0.00047339607
0.00047086324
0.00047068464
0.00047158459
0.00047334006
0.00047632984
0.00048045359
0.00048605911
0.00049280856
0.00050067084
0.00050942881
0.00051862902
0.0005280654
0.00053538666
0.00054179979
0.00054550142
0.00054632934
0.00054404489
0.00053801989
0.0005310403
0.00052333208
0.00065137659
0.00061709943
0.00059176263
0.00058067425
0.0005758159
0.00057449611
0.00057490546
0.0005765238
0.0005795587
0.00058370146
0.0005893498
0.00059611468
0.00060385457
0.00061235733
0.00062109264
0.00062994741
0.00063687218
0.00064288792
0.00064649671
0.0006475171
0.00064566069
0.00064045601
0.0006342389
0.00062729091
0.00073457366
0.00070605249
0.00068164117
0.00066970034
0.00066385979
0.00066152463
0.00066113339
0.00066222787
0.0006646956
0.0006684181
0.00067343716
0.00067954508
0.00068655259
0.00069427063
0.00070230187
0.00071043221
0.00071730713
0.00072344217
0.00072776297
0.00072988745
0.00072957645
0.00072637944
0.00072199741
0.00071698116
0.00077697821
0.00075547967
0.0007338504
0.00072200004
0.00071520398
0.00071145755
0.00070944064
0.00070887113
0.00070955188
0.00071155715
0.00071484507
0.00071941046
0.00072508337
0.00073158174
0.00073873081
0.00074619366
0.00075331214
0.00075997966
0.00076548549
0.0007691446
0.00077065201
0.00076975626
0.00076731597
0.00076438016
0.00076999531
0.00075230202
0.00073262253
0.00072083651
0.00071299176
0.00070735947
0.00070304801
0.00069986533
0.0006978846
0.00069733714
0.00069840822
0.00070116579
0.00070544042
0.00071105676
0.00071784562
0.0007255734
0.00073386798
0.00074214222
0.00074972064
0.0007557318
0.00075938851
0.00076040104
0.00075933243
0.00075746632
0.00068342582
0.00066434291
0.00064370235
0.00063024676
0.00062066004
0.00061283511
0.00060601079
0.00060026379
0.00059590791
0.0005934839
0.00059320554
0.00059528806
0.0005995313
0.00060585137
0.00061405264
0.00062387445
0.00063464177
0.00064560688
0.00065630676
0.00066532047
0.00067147064
0.00067415589
0.00067375789
0.00067195319
0.00049839104
0.00047845864
0.00045834525
0.00044529836
0.00043569536
0.0004279203
0.00042150464
0.00041637516
0.00041311183
0.00041184693
0.00041311143
0.00041673808
0.00042286572
0.00043122188
0.00044183565
0.00045423809
0.00046739064
0.00048099328
0.00049441295
0.00050553355
0.0005137807
0.00051802978
0.00051808215
0.00051636981
0.00042484305
0.0003915744
0.00037503796
0.00036905924
0.00036743676
0.00036747533
0.00036853159
0.00037054788
0.00037359464
0.00037793958
0.00038347684
0.00039019999
0.0003979949
0.00040675696
0.0004162796
0.00042610482
0.00043396555
0.0004410172
0.00044583
0.00044756476
0.00044654118
0.00044160041
0.00043529426
0.00042826071
0.0006082555
0.00057689366
0.00055509413
0.00054565768
0.00054166537
0.00054000385
0.0005394976
0.00054002327
0.00054176118
0.00054491159
0.00054952555
0.00055549177
0.00056271386
0.00057099138
0.00058001355
0.00058941254
0.00059740807
0.00060467957
0.00060982155
0.00061224908
0.00061169457
0.00060734825
0.00060151644
0.00059480398
0.00073455278
0.00070601804
0.00068152746
0.00066947899
0.0006635513
0.00066114524
0.00066063755
0.00066153242
0.00066388235
0.00066752573
0.00067251602
0.0006786591
0.00068574751
0.00069355305
0.00070168819
0.00070993302
0.00071692943
0.00072315641
0.00072754139
0.0007297201
0.00072943402
0.00072626459
0.00072190377
0.00071687327
0.0008020915
0.00078129065
0.0007595024
0.00074805134
0.00074214309
0.0007400574
0.00074017857
0.00074189114
0.00074497093
0.00074910259
0.00075424136
0.00076019022
0.00076673907
0.00077363582
0.0007805752
0.00078738719
0.00079328201
0.0007984334
0.00080215731
0.00080419083
0.00080433654
0.00080251143
0.00079972785
0.00079663854
0.00081753883
0.0008004373
0.00078072369
0.00077000974
0.0007642348
0.00076197485
0.0007618428
0.00076322026
0.00076581421
0.00076940487
0.00077385006
0.00077906085
0.00078481709
0.00079084746
0.00079701201
0.00080310698
0.00080880291
0.00081383158
0.00081777318
0.0008201951
0.00082092735
0.00081995194
0.00081791822
0.00081568909
0.00077660979
0.00075514373
0.00073349963
0.00072154139
0.00071459252
0.00071079866
0.00070886491
0.00070837261
0.00070911997
0.00071116901
0.00071458847
0.0007192498
0.00072497858
0.00073144225
0.00073856198
0.00074603911
0.00075329392
0.00076000829
0.00076559988
0.00076926675
0.00077078591
0.00076988028
0.0007673709
0.00076436684
0.00066218529
0.00063477082
0.00061300508
0.00060165526
0.00059537904
0.00059139141
0.00058865931
0.00058701124
0.00058639377
0.00058733515
0.00058992982
0.00059425874
0.00060012991
0.00060728362
0.00061562496
0.00062478523
0.00063378712
0.00064243864
0.00064992573
0.0006550489
0.0006574379
0.00065633459
0.00065289673
0.00064850101
0.00047026376
0.00043936776
0.00042017972
0.00041103496
0.00040627653
0.00040343233
0.00040189028
0.00040145911
0.00040209261
0.00040439249
0.00040833385
0.00041400976
0.00042127273
0.00042993006
0.00043992963
0.00045082044
0.00046099337
0.00047080523
0.00047936309
0.00048490659
0.00048761622
0.00048627951
0.00048228562
0.00047717556
0.00047065461
0.00044000691
0.00042089134
0.0004117202
0.00040680896
0.00040367527
0.00040172572
0.00040096197
0.00040143757
0.00040364155
0.000407473
0.00041305467
0.00042029635
0.00042901835
0.00043916172
0.00045021503
0.00046042972
0.00047032656
0.00047882448
0.00048433424
0.00048699687
0.00048558674
0.00048165125
0.00047661448
0.00066277082
0.00063544595
0.00061371372
0.00060229609
0.0005959037
0.00059165013
0.00058850029
0.00058645755
0.00058553918
0.00058627695
0.00058866383
0.0005928722
0.00059874307
0.00060602525
0.0006145803
0.00062395364
0.00063299635
0.00064174602
0.00064924156
0.00065439842
0.0006567889
0.00065567335
0.00065231533
0.00064795421
0.00077693248
0.0007554439
0.00073371866
0.00072170358
0.00071471227
0.00071079685
0.00070860776
0.00070779793
0.00070825486
0.00071016021
0.0007134393
0.00071811004
0.00072393679
0.00073059763
0.00073791986
0.00074556767
0.0007528353
0.0007596034
0.00076516531
0.0007688727
0.00077041619
0.00076952627
0.00076711097
0.00076416
0.00081749009
0.00080038837
0.00078058046
0.00076973059
0.00076384201
0.00076150673
0.0007613145
0.0007626339
0.00076516722
0.00076875815
0.00077324128
0.00077851059
0.00078434132
0.00079044846
0.00079667655
0.00080284034
0.00080859853
0.00081368898
0.00081765769
0.00082008457
0.00082081293
0.00081983328
0.00081778383
0.00081556328
0.00080160413
0.00078084733
0.00075895673
0.00074730875
0.0007412416
0.00073914253
0.00073946937
0.00074140542
0.00074464848
0.00074899108
0.000754275
0.00076036802
0.0007669198
0.00077374814
0.0007806208
0.00078737061
0.00079332082
0.00079847749
0.00080222807
0.00080425788
0.00080445454
0.00080261496
0.00079978314
0.00079658679
0.00073369672
0.00070516652
0.00068058647
0.00066844182
0.00066241759
0.00066012525
0.00066000583
0.00066135677
0.00066396863
0.00066783849
0.00067300935
0.00067931344
0.00068640026
0.00069409772
0.00070211131
0.00071023532
0.00071726279
0.00072345492
0.0007278326
0.00072998857
0.00072973158
0.00072654762
0.00072209733
0.00071695885
0.00060697227
0.00057546378
0.00055351688
0.00054403327
0.0005401042
0.0005387433
0.00053877279
0.00053988347
0.00054200694
0.00054546962
0.00055036019
0.0005565663
0.00056386439
0.00057204586
0.0005808775
0.00059006472
0.0005979996
0.00060516443
0.00061031234
0.0006127568
0.00061224339
0.00060795104
0.00060204233
0.00059526373
0.00042391091
0.00039037732
0.0003737016
0.00036772442
0.00036624188
0.00036658393
0.00036807939
0.00037049741
0.00037380271
0.00037833498
0.00038405975
0.00039094614
0.00039880407
0.00040751243
0.00041688787
0.00042653833
0.00043432955
0.00044129269
0.00044616578
0.00044794821
0.00044699233
0.0004421082
0.00043573268
0.00042858214
0.0004983233
0.00047849791
0.00045840177
0.00044538785
0.00043562836
0.00042761613
0.00042092786
0.00041554102
0.00041214402
0.0004108765
0.0004121164
0.00041570232
0.00042184891
0.00043028599
0.00044102882
0.00045357818
0.000466759
0.00048046145
0.00049393213
0.00050489776
0.00051310589
0.00051723987
0.00051734565
0.00051567736
0.00068366901
0.00066471535
0.00064397863
0.00063021428
0.00062049216
0.00061235194
0.00060524746
0.00059928549
0.00059474378
0.00059212406
0.00059172983
0.0005937535
0.00059810103
0.00060459514
0.00061302109
0.00062302583
0.00063381061
0.00064489504
0.00065566821
0.0006645688
0.00067080668
0.00067353246
0.00067311523
0.00067131371
0.00076989506
0.00075224262
0.00073248684
0.00072033751
0.00071219766
0.00070640913
0.00070199051
0.00069866843
0.00069656389
0.00069598102
0.00069712628
0.00069999186
0.00070442735
0.00071022677
0.0007171928
0.00072505735
0.00073346324
0.00074181894
0.00074944719
0.00075544851
0.00075913153
0.00076015794
0.0007590856
0.00075722978
0.00077646459
0.00075494759
0.00073318415
0.00072107936
0.00071399499
0.00071015177
0.00070820456
0.0007076318
0.00070836249
0.0007104483
0.00071392831
0.00071864304
0.00072446022
0.00073102643
0.00073825012
0.0007457938
0.00075308566
0.00075985125
0.00076544034
0.00076911411
0.00077066001
0.00076979361
0.00076730652
0.00076436937
0.00073358706
0.00070502368
0.00068039746
0.00066819774
0.00066218513
0.00065985653
0.00065973466
0.00066103531
0.00066365536
0.00066756178
0.00067275688
0.00067906343
0.00068617689
0.00069390347
0.00070196527
0.00071011233
0.00071715286
0.00072337659
0.00072776865
0.00072993913
0.00072969875
0.00072657838
0.00072215149
0.00071704648
0.00064994017
0.00061554248
0.00058999912
0.00057872408
0.00057382309
0.00057266937
0.00057350003
0.00057544171
0.00057874902
0.0005832331
0.00058913239
0.00059611735
0.00060389777
0.00061235494
0.00062105155
0.00062984356
0.00063685833
0.0006429138
0.00064660413
0.00064771909
0.00064599365
0.00064086644
0.00063464037
0.00062756316
0.00052963429
0.00049864714
0.00047844878
0.00047088722
0.00046845321
0.00046861779
0.00047009943
0.00047241892
0.00047587162
0.00048041734
0.0004863983
0.00049345641
0.00050142293
0.00051012148
0.00051916988
0.00052840156
0.00053562065
0.00054194449
0.00054570432
0.00054662361
0.00054447214
0.00053849284
0.00053146605
0.00052364058
0.00037110674
0.00034011391
0.0003268375
0.00032331149
0.00032383583
0.00032596977
0.00032905621
0.00033280595
0.00033734852
0.00034273727
0.00034910199
0.00035626129
0.00036406794
0.00037239742
0.0003809535
0.00038943929
0.00039544201
0.0004003859
0.00040284397
0.00040233714
0.00039927889
0.00039251022
0.0003850586
0.00037699653
0.0004792755
0.00048043482
0.00046268396
0.00044616918
0.00043139599
0.00041773476
0.00040559477
0.00039523825
0.00038771879
0.00038304917
0.0003815878
0.00038327204
0.00038823138
0.00039646264
0.00040780542
0.00042211883
0.00043861534
0.00045679459
0.00047608615
0.00049462006
0.00051023659
0.00052168619
0.00052871783
0.00053274121
0.00063368621
0.00062616816
0.00060827058
0.00059337426
0.00058124109
0.00056989962
0.0005595456
0.00055049844
0.00054267946
0.00053702544
0.00053403459
0.00053392066
0.00053673105
0.00054225975
0.0005504991
0.00056127789
0.00057426049
0.00058875276
0.00060367931
0.00061760833
0.00062892857
0.00063631505
0.00063986187
0.00064116515
0.00068323935
0.00066414738
0.00064343691
0.0006298484
0.00062017109
0.00061224937
0.00060534336
0.00059961646
0.00059521857
0.00059282953
0.00059257939
0.0005946928
0.00059902065
0.00060547479
0.00061379934
0.0006236901
0.00063447618
0.00064550955
0.0006562448
0.0006651945
0.00067133813
0.00067403949
0.00067365198
0.00067190412
0.00066202482
0.00063458746
0.00061284021
0.00060147148
0.00059516135
0.00059119916
0.00058841459
0.00058675878
0.00058617822
0.0005871768
0.00058980842
0.0005941345
0.00060002434
0.00060723736
0.00061566092
0.00062484452
0.00063381476
0.0006424679
0.00064993643
0.00065505258
0.00065747553
0.00065644395
0.00065304629
0.00064873978
0.00060694293
0.00057547957
0.00055356449
0.00054407368
0.00054015096
0.00053877765
0.0005388164
0.00053990855
0.00054206296
0.00054557078
0.00055047219
0.00055664155
0.00056391187
0.00057209363
0.00058095871
0.00059014714
0.00059805609
0.00060523235
0.00061038308
0.00061285105
0.00061238674
0.00060818225
0.00060231151
0.00059559474
0.00052968071
0.00049872344
0.00047854408
0.00047097621
0.0004685934
0.00046875624
0.00047024516
0.00047251861
0.00047596873
0.00048052247
0.00048648982
0.00049350915
0.00050143909
0.0005101175
0.00051916091
0.0005283905
0.00053560901
0.00054195948
0.0005457529
0.00054671945
0.00054463767
0.00053870849
0.00053171288
0.00052392363
0.00043649344
0.00041266943
0.00039784868
0.0003932145
0.0003928367
0.000394295
0.00039675185
0.00039986547
0.00040399287
0.00040905755
0.00041546301
0.00042285329
0.00043112397
0.00044008422
0.00044935406
0.00045870571
0.00046563518
0.00047163715
0.00047477428
0.00047492435
0.00047195384
0.0004650618
0.00045730084
0.00044871541
0.00031582829
0.0002897923
0.00028016908
0.0002786532
0.00028066293
0.0002839692
0.00028801703
0.00029248231
0.00029758656
0.00030325606
0.00030971604
0.00031678499
0.00032432059
0.00033220121
0.00034005572
0.00034759615
0.00035222969
0.00035561825
0.00035624729
0.000353942
0.00034923458
0.0003411414
0.00033269515
0.00032372243
0.00036595234
0.00038676981
0.00037387578
0.00035936139
0.00034478303
0.00033143324
0.00031980305
0.00031037062
0.0003036004
0.00029973915
0.00029896562
0.00030107262
0.00030586483
0.0003135561
0.00032434397
0.00033840986
0.0003559262
0.00037692639
0.0004007495
0.00042603997
0.00045038637
0.00047113172
0.00048674239
0.00049817615
0.0004790749
0.0004800331
0.00046220339
0.00044557707
0.00043096577
0.00041752284
0.00040560396
0.00039548459
0.00038803516
0.00038340288
0.00038196273
0.00038377798
0.00038881281
0.00039701492
0.00040828453
0.0004225124
0.00043902866
0.00045725901
0.00047649101
0.00049499596
0.00051071618
0.00052223986
0.00052935726
0.00053361232
0.00049807803
0.00047812231
0.00045803841
0.00044501376
0.00043541601
0.00042757841
0.00042115883
0.0004159678
0.00041274809
0.00041151783
0.00041284134
0.00041652871
0.0004227318
0.00043117392
0.00044185197
0.0004542779
0.00046740461
0.00048103317
0.00049447483
0.00050555586
0.00051381867
0.00051809563
0.0005181671
0.00051656725
0.00047012342
0.00043930027
0.00042014075
0.00041096774
0.00040619795
0.00040335795
0.00040175096
0.00040131338
0.00040199296
0.0004043453
0.00040832927
0.00041402801
0.00042132393
0.00043003172
0.00044007887
0.00045097654
0.00046110551
0.00047092234
0.00047946955
0.00048500838
0.00048775123
0.00048648047
0.00048251905
0.00047751732
0.00042385746
0.00039042229
0.00037379618
0.00036782007
0.00036632815
0.0003666495
0.0003681256
0.00037054849
0.00037388276
0.00037844097
0.00038417117
0.00039104458
0.00039889863
0.00040762137
0.000417021
0.0004266694
0.00043442263
0.00044139446
0.00044627771
0.00044806993
0.00044715055
0.00044233579
0.00043597822
0.0004288891
0.00037109777
0.00034015516
0.00032691357
0.00032339119
0.00032391026
0.00032603834
0.00032914458
0.00033289711
0.00033744081
0.00034282636
0.00034917479
0.00035630899
0.00036409902
0.00037242722
0.00038100041
0.00038948705
0.00039547376
0.00040043585
0.00040292346
0.00040243504
0.00039940227
0.00039270663
0.00038526445
0.00037722725
0.00031575952
0.00028973565
0.00028013271
0.00027860393
0.00028063854
0.00028395649
0.00028802218
0.00029248914
0.00029758837
0.00030325129
0.00030970411
0.00031676662
0.00032430115
0.00033218749
0.00034005441
0.00034759979
0.00035223268
0.00035563406
0.00035628447
0.00035398995
0.00034930678
0.00034121329
0.00033276735
0.00032380095
0.000239581
0.00021202628
0.00020666486
0.00020711586
0.00021021963
0.00021428077
0.00021883648
0.00022358465
0.00022868102
0.00023403988
0.00023977311
0.00024576304
0.00025185223
0.00025792359
0.00026361686
0.00026870817
0.00027086085
0.00027163283
0.00027014726
0.00026621532
0.00026074612
0.00025297014
0.00024521455
0.00023736918
0.0001510987
0.0001531663
0.00015541972
0.0001577661
0.00015942425
0.0001605801
0.00016065521
0.00016004952
0.00015882025
0.00015696541
0.00015505491
0.00015315882
0.00015140602
0.00014987579
0.0001486316
0.00014778158
0.00014725801
0.00014711622
0.00014727749
0.0001477629
0.0001486675
0.00015006686
0.00015221804
0.00015817247
0.00017487766
0.00017748887
0.00018017094
0.00018274426
0.00018435613
0.0001852119
0.00018482647
0.00018365366
0.00018185823
0.00017938236
0.00017685576
0.00017437309
0.00017206096
0.00016999397
0.00016820614
0.00016679882
0.00016570739
0.00016497902
0.00016454084
0.00016443883
0.00016481846
0.00016597118
0.00016828281
0.00017683503
0.00019791532
0.0002006419
0.00020331792
0.00020571159
0.00020691351
0.00020719787
0.00020622148
0.00020444746
0.00020221252
0.00019929525
0.00019641656
0.00019367652
0.00019118106
0.0001889752
0.00018708137
0.00018556601
0.00018439439
0.00018359094
0.00018307575
0.0001829295
0.00018332868
0.00018465897
0.0001875787
0.00019742781
0.00022465611
0.0002271148
0.0002295287
0.00023143362
0.00023194257
0.00023144298
0.00022972214
0.00022730074
0.0002246439
0.00022140936
0.00021833634
0.00021554609
0.00021310622
0.00021100373
0.00020929392
0.00020797087
0.00020705312
0.00020646353
0.00020620104
0.00020632645
0.00020696367
0.00020866756
0.00021204029
0.00022130847
0.00025609033
0.00025720017
0.0002584252
0.00025885624
0.00025791755
0.00025600839
0.00025308323
0.00024979017
0.00024664711
0.00024321635
0.00024016187
0.0002376044
0.00023554467
0.00023399295
0.00023297189
0.00023242082
0.00023235347
0.00023258409
0.00023316377
0.00023405196
0.0002354448
0.00023791521
0.00024119096
0.00024615176
0.00028932113
0.0002872386
0.00028554287
0.00028295612
0.00027937786
0.00027523916
0.00027063161
0.00026629243
0.00026260597
0.00025929935
0.00025662948
0.00025472952
0.00025358405
0.00025317611
0.000253523
0.00025451451
0.00025611475
0.00025811289
0.00026041272
0.00026301527
0.00026579244
0.00026949799
0.00027134245
0.00026473287
0.00031253951
0.00030562361
0.00029942623
0.00029287156
0.00028587351
0.0002790516
0.00027305426
0.00026809065
0.00026428969
0.00026158349
0.00025987049
0.00025908607
0.00025928201
0.00026045087
0.00026255236
0.0002655066
0.00026923165
0.00027344509
0.00027790711
0.00028246759
0.00028655206
0.00029097326
0.00028790845
0.00026410721
0.00029417833
0.00028477571
0.00027666289
0.00026888194
0.00026168447
0.00025556951
0.00025084223
0.00024738382
0.00024501708
0.00024344068
0.00024284932
0.0002433421
0.000244899
0.00024751847
0.00025105825
0.00025534458
0.0002602882
0.00026565497
0.00027100489
0.00027610629
0.00028013835
0.00028435568
0.00027608146
0.00024422636
8.8827592e-05
8.8068748e-05
8.7424287e-05
8.6909414e-05
8.6520669e-05
8.6250156e-05
8.6091927e-05
8.6038276e-05
8.6101104e-05
8.6266223e-05
8.6513174e-05
8.6838915e-05
8.7244451e-05
8.7731517e-05
8.8302417e-05
8.8957666e-05
8.9699594e-05
9.0528818e-05
9.1450279e-05
9.2490952e-05
9.372652e-05
9.5396904e-05
9.7975758e-05
0.00010569576
9.6926542e-05
9.6108121e-05
9.5402545e-05
9.4825754e-05
9.4379076e-05
9.4056232e-05
9.3853533e-05
9.3764609e-05
9.3800891e-05
9.3952523e-05
9.4192152e-05
9.4515972e-05
9.4920778e-05
9.5404489e-05
9.5965005e-05
9.659836e-05
9.7304202e-05
9.8082847e-05
9.8941349e-05
9.9911292e-05
0.00010107067
0.00010264876
0.00010505769
0.00011170153
0.00010306462
0.00010235028
0.00010173698
0.00010124308
0.00010087203
0.00010062073
0.00010048523
0.00010046062
0.00010054991
0.00010074449
0.00010102298
0.00010137909
0.0001018045
0.00010229159
0.00010283282
0.00010342009
0.00010404707
0.00010471029
0.00010541506
0.0001061862
0.0001070865
0.00010827754
0.00011004785
0.00011467037
0.00010662618
0.00010616339
0.00010578633
0.00010551157
0.00010534067
0.00010527004
0.00010529367
0.00010540632
0.00010560305
0.00010588353
0.00010622488
0.000106617
0.00010704863
0.00010750783
0.00010798107
0.00010845561
0.00010891991
0.00010936725
0.0001097988
0.00011022722
0.00011068596
0.0001112517
0.00011205432
0.00011410957
0.00010705102
0.00010691402
0.00010685271
0.00010687777
0.000106984
0.00010716051
0.00010739615
0.0001076815
0.00010800299
0.00010837304
0.0001087618
0.00010915614
0.00010954473
0.00010991375
0.0001102471
0.00011053139
0.0001107544
0.00011090904
0.0001109926
0.00011100621
0.00011094984
0.00011080206
0.00011053619
0.00010996408
0.00010407449
0.00010423844
0.00010446844
0.00010477951
0.00010515698
0.00010557713
0.00010601893
0.00010646285
0.00010689115
0.00010730986
0.00010770063
0.00010804474
0.00010833127
0.00010854889
0.00010868787
0.00010873858
0.00010869441
0.00010855157
0.00010830627
0.00010793984
0.00010743209
0.00010670216
0.00010556766
0.00010268433
9.7915209e-05
9.8211747e-05
9.8597473e-05
9.9068473e-05
9.959918e-05
0.00010015409
0.00010070183
0.00010121434
0.0001016725
0.000102061
0.00010237385
0.00010261088
0.00010275408
0.00010279955
0.00010274267
0.00010258033
0.00010231741
0.00010195544
0.00010149779
0.00010092756
0.00010019846
9.9187029e-05
9.7592527e-05
9.3104962e-05
8.9144326e-05
8.9372538e-05
8.971194e-05
9.01439e-05
9.06353e-05
9.1145311e-05
9.1635177e-05
9.2091834e-05
9.2491368e-05
9.2832765e-05
9.3095396e-05
9.3256667e-05
9.3319097e-05
9.3283294e-05
9.3151165e-05
9.2928287e-05
9.2620381e-05
9.2231766e-05
9.1759375e-05
9.1183736e-05
9.044996e-05
8.9396279e-05
8.767191e-05
8.2223088e-05
0.00029414019
0.000284761
0.00027665839
0.00026887594
0.00026166696
0.0002555303
0.00025077931
0.00024729412
0.00024490938
0.00024330122
0.00024269255
0.00024317565
0.0002447429
0.00024737814
0.00025093845
0.00025525286
0.00026022719
0.00026561416
0.00027097626
0.00027608864
0.00028013364
0.00028436077
0.00027608798
0.00024423411
0.0003123851
0.00030555794
0.00029940721
0.00029286723
0.00028583815
0.00027898628
0.00027293408
0.00026791538
0.00026405771
0.00026129977
0.00025957046
0.00025877216
0.00025897361
0.00026016048
0.00026230063
0.00026529207
0.00026905761
0.00027330754
0.00027779967
0.00028236884
0.00028647232
0.00029091046
0.00028784446
0.00026403809
0.00028925338
0.00028721024
0.00028552357
0.00028294417
0.0002793431
0.00027517232
0.00027048275
0.00026607835
0.00026232874
0.00025896348
0.00025625353
0.00025432367
0.00025316581
0.00025277063
0.00025314972
0.0002541734
0.00025580451
0.00025783956
0.00026016056
0.00026275943
0.00026553154
0.00026920972
0.00027105748
0.00026449604
0.00025604307
0.00025717348
0.00025840512
0.0002588277
0.00025786188
0.00025590636
0.00025291329
0.00024955747
0.00024635324
0.00024287823
0.00023978975
0.00023720527
0.0002351222
0.00023356174
0.00023255029
0.00023201858
0.00023196886
0.00023221155
0.00023279159
0.00023366791
0.00023504453
0.00023749734
0.00024079291
0.00024582302
0.00022459835
0.00022708093
0.00022949476
0.00023138262
0.00023185934
0.00023131522
0.00022953474
0.00022705973
0.0002243602
0.0002210984
0.00021800581
0.00021519574
0.00021273302
0.0002106127
0.00020889629
0.00020757372
0.00020665136
0.00020604976
0.00020576931
0.0002058725
0.00020648904
0.00020818553
0.00021158523
0.00022092225
0.00019787427
0.00020061842
0.00020328684
0.00020566005
0.0002068293
0.00020707475
0.00020605347
0.00020423866
0.00020197727
0.00019904619
0.00019615878
0.00019340544
0.00019088934
0.0001886616
0.00018675014
0.00018521794
0.00018402115
0.00018318458
0.00018263435
0.00018245548
0.00018282817
0.00018414607
0.00018708339
0.00019698323
0.00017485872
0.00017748484
0.00018015623
0.00018270943
0.00018429865
0.00018512884
0.00018471985
0.00018352538
0.00018171615
0.00017923416
0.00017670253
0.0001742065
0.00017187151
0.00016977958
0.00016797124
0.00016654114
0.00016541371
0.00016463476
0.00016414399
0.00016399688
0.00016434151
0.00016547035
0.00016778113
0.00017635998
0.00015108968
0.00015315852
0.00015540407
0.00015773425
0.00015938221
0.00016052342
0.00016058916
0.00015997593
0.0001587415
0.00015688513
0.00015497121