/*--------------------------------*- C++ -*----------------------------------*\
| =========                 |                                                 |
| \\      /  F ield         | foam-extend: Open Source CFD                    |
|  \\    /   O peration     | Version:     4.1-20200408                       |
|   \\  /    A nd           | Web:         http://www.foam-extend.org         |
|    \\/     M anipulation  |                                                 |
\*---------------------------------------------------------------------------*/
FoamFile
{
    version     2.0;
    format      ascii;
    class       volVectorField;
    location    "0.0925000";
    object      Velocity;
}
// * * * * * * * * * * * * * * * * * * * * * * * * * * * * * * * * * * * * * //

dimensions      [0 1 -1 0 0 0 0];

internalField   nonuniform List<vector> 
1952
(
(1.00004 -3.87034e-05 0)
(1.00004 -6.07432e-05 0)
(1.00004 -8.71599e-05 0)
(1.00005 -0.00010673 0)
(1.00005 -0.000133387 0)
(1.00006 -0.000149973 0)
(1.00006 -0.000175248 0)
(1.00007 -0.000188113 0)
(1.00009 -0.000210183 0)
(1.0001 -0.000217793 0)
(1.00012 -0.000234336 0)
(1.00015 -0.000234507 0)
(1.0002 -0.000241514 0)
(1.00028 -0.000231094 0)
(1.00041 -0.000220218 0)
(1.00004 -1.63769e-05 0)
(1.00007 -1.56544e-05 0)
(1.00007 -2.4536e-05 0)
(1.00007 -3.47179e-05 0)
(1.00008 -4.21694e-05 0)
(1.00009 -5.171e-05 0)
(1.00009 -5.70825e-05 0)
(1.0001 -6.50599e-05 0)
(1.00012 -6.78157e-05 0)
(1.00013 -7.34998e-05 0)
(1.00015 -7.31107e-05 0)
(1.00017 -7.578e-05 0)
(1.00019 -7.18751e-05 0)
(1.00022 -7.185e-05 0)
(1.00025 -6.59657e-05 0)
(1.00029 -6.75712e-05 0)
(1.00007 -6.64018e-06 0)
(1.00007 -1.01349e-05 0)
(1.00007 -1.61034e-05 0)
(1.00008 -2.21683e-05 0)
(1.00008 -2.70811e-05 0)
(1.00009 -3.22122e-05 0)
(1.0001 -3.53484e-05 0)
(1.00011 -3.88457e-05 0)
(1.00012 -3.966e-05 0)
(1.00014 -4.11518e-05 0)
(1.00016 -3.94757e-05 0)
(1.00018 -3.87753e-05 0)
(1.0002 -3.4916e-05 0)
(1.00023 -3.32076e-05 0)
(1.00026 -2.89704e-05 0)
(1.00029 -2.89953e-05 0)
(1.00007 -4.33951e-06 0)
(1.00009 -5.49064e-06 0)
(1.00009 -8.64431e-06 0)
(1.00009 -1.16849e-05 0)
(1.0001 -1.39368e-05 0)
(1.00011 -1.60628e-05 0)
(1.00011 -1.68042e-05 0)
(1.00013 -1.75323e-05 0)
(1.00014 -1.63895e-05 0)
(1.00015 -1.55197e-05 0)
(1.00017 -1.25166e-05 0)
(1.00019 -1.02495e-05 0)
(1.00021 -6.06883e-06 0)
(1.00024 -3.86204e-06 0)
(1.00026 -5.9285e-07 0)
(1.00029 -1.77702e-06 0)
(1.00008 -2.35515e-06 0)
(1.0001 -1.69215e-06 0)
(1.0001 -2.52005e-06 0)
(1.00011 -3.18557e-06 0)
(1.00011 -3.24458e-06 0)
(1.00012 -3.13578e-06 0)
(1.00013 -1.9797e-06 0)
(1.00014 -8.05588e-07 0)
(1.00015 1.74791e-06 0)
(1.00017 3.98361e-06 0)
(1.00018 7.67775e-06 0)
(1.0002 1.05277e-05 0)
(1.00022 1.44945e-05 0)
(1.00024 1.66037e-05 0)
(1.00026 1.9166e-05 0)
(1.00028 1.84806e-05 0)
(1.0001 -7.30647e-07 0)
(1.00012 1.32486e-06 0)
(1.00012 2.34764e-06 0)
(1.00013 3.50998e-06 0)
(1.00013 5.1776e-06 0)
(1.00014 6.91884e-06 0)
(1.00015 9.51914e-06 0)
(1.00016 1.19767e-05 0)
(1.00017 1.55369e-05 0)
(1.00019 1.85875e-05 0)
(1.0002 2.27267e-05 0)
(1.00022 2.58372e-05 0)
(1.00023 2.96629e-05 0)
(1.00025 3.16602e-05 0)
(1.00027 3.37971e-05 0)
(1.00028 3.31585e-05 0)
(1.00012 5.62584e-07 0)
(1.00014 3.62985e-06 0)
(1.00014 6.05998e-06 0)
(1.00014 8.58362e-06 0)
(1.00015 1.15355e-05 0)
(1.00016 1.44303e-05 0)
(1.00017 1.80527e-05 0)
(1.00018 2.13338e-05 0)
(1.00019 2.55343e-05 0)
(1.0002 2.90012e-05 0)
(1.00022 3.33293e-05 0)
(1.00023 3.64616e-05 0)
(1.00024 4.01015e-05 0)
(1.00026 4.19994e-05 0)
(1.00027 4.39594e-05 0)
(1.00029 4.37147e-05 0)
(1.00014 1.55154e-06 0)
(1.00016 5.3091e-06 0)
(1.00016 8.75826e-06 0)
(1.00017 1.22501e-05 0)
(1.00017 1.61092e-05 0)
(1.00018 1.9781e-05 0)
(1.00019 2.40918e-05 0)
(1.0002 2.78728e-05 0)
(1.00021 3.24663e-05 0)
(1.00022 3.61287e-05 0)
(1.00023 4.05396e-05 0)
(1.00024 4.36318e-05 0)
(1.00026 4.7154e-05 0)
(1.00027 4.90186e-05 0)
(1.00028 5.09439e-05 0)
(1.00029 5.10474e-05 0)
(1.00016 2.2728e-06 0)
(1.00018 6.45353e-06 0)
(1.00018 1.05921e-05 0)
(1.00019 1.47243e-05 0)
(1.00019 1.91792e-05 0)
(1.0002 2.33288e-05 0)
(1.00021 2.80654e-05 0)
(1.00021 3.21052e-05 0)
(1.00022 3.69108e-05 0)
(1.00024 4.06183e-05 0)
(1.00025 4.50434e-05 0)
(1.00026 4.8063e-05 0)
(1.00027 5.15201e-05 0)
(1.00028 5.3413e-05 0)
(1.00029 5.54239e-05 0)
(1.00029 5.59368e-05 0)
(1.00018 2.76489e-06 0)
(1.0002 7.15286e-06 0)
(1.0002 1.17086e-05 0)
(1.00021 1.6215e-05 0)
(1.00021 2.1017e-05 0)
(1.00022 2.54129e-05 0)
(1.00022 3.03792e-05 0)
(1.00023 3.4507e-05 0)
(1.00024 3.94078e-05 0)
(1.00025 4.30737e-05 0)
(1.00026 4.74913e-05 0)
(1.00027 5.04414e-05 0)
(1.00028 5.38929e-05 0)
(1.00029 5.58621e-05 0)
(1.0003 5.80285e-05 0)
(1.0003 5.89394e-05 0)
(1.0002 3.06611e-06 0)
(1.00022 7.48941e-06 0)
(1.00022 1.22423e-05 0)
(1.00023 1.69097e-05 0)
(1.00023 2.18638e-05 0)
(1.00024 2.63267e-05 0)
(1.00024 3.1378e-05 0)
(1.00025 3.5469e-05 0)
(1.00026 4.0388e-05 0)
(1.00027 4.39557e-05 0)
(1.00028 4.83618e-05 0)
(1.00028 5.12507e-05 0)
(1.00029 5.47459e-05 0)
(1.0003 5.68273e-05 0)
(1.0003 5.92006e-05 0)
(1.00031 6.05077e-05 0)
(1.00022 3.21166e-06 0)
(1.00024 7.53592e-06 0)
(1.00024 1.23113e-05 0)
(1.00025 1.69719e-05 0)
(1.00025 2.1928e-05 0)
(1.00026 2.63219e-05 0)
(1.00026 3.13535e-05 0)
(1.00027 3.53185e-05 0)
(1.00028 4.02082e-05 0)
(1.00028 4.36438e-05 0)
(1.00029 4.80461e-05 0)
(1.0003 5.0886e-05 0)
(1.0003 5.44658e-05 0)
(1.00031 5.6683e-05 0)
(1.00031 5.92941e-05 0)
(1.00032 6.09816e-05 0)
(1.00024 3.2327e-06 0)
(1.00026 7.35405e-06 0)
(1.00026 1.20153e-05 0)
(1.00026 1.65386e-05 0)
(1.00027 2.13831e-05 0)
(1.00027 2.5604e-05 0)
(1.00028 3.05417e-05 0)
(1.00029 3.43151e-05 0)
(1.00029 3.91476e-05 0)
(1.0003 4.24277e-05 0)
(1.0003 4.68394e-05 0)
(1.00031 4.96397e-05 0)
(1.00032 5.33372e-05 0)
(1.00032 5.57055e-05 0)
(1.00032 5.85755e-05 0)
(1.00033 6.06287e-05 0)
(1.00026 3.15565e-06 0)
(1.00028 6.99472e-06 0)
(1.00028 1.14364e-05 0)
(1.00028 1.5722e-05 0)
(1.00029 2.03694e-05 0)
(1.00029 2.43386e-05 0)
(1.0003 2.91305e-05 0)
(1.0003 3.26637e-05 0)
(1.00031 3.74239e-05 0)
(1.00031 4.05324e-05 0)
(1.00032 4.4968e-05 0)
(1.00033 4.7736e-05 0)
(1.00033 5.15774e-05 0)
(1.00033 5.41061e-05 0)
(1.00034 5.72485e-05 0)
(1.00034 5.96528e-05 0)
(1.00028 3.00237e-06 0)
(1.00029 6.49917e-06 0)
(1.0003 1.06409e-05 0)
(1.0003 1.46117e-05 0)
(1.0003 1.89991e-05 0)
(1.00031 2.2656e-05 0)
(1.00031 2.72669e-05 0)
(1.00032 3.0522e-05 0)
(1.00032 3.52039e-05 0)
(1.00033 3.81269e-05 0)
(1.00033 4.2602e-05 0)
(1.00034 4.53414e-05 0)
(1.00034 4.93486e-05 0)
(1.00035 5.20433e-05 0)
(1.00035 5.54687e-05 0)
(1.00035 5.82131e-05 0)
(1.00029 2.79055e-06 0)
(1.00031 5.90052e-06 0)
(1.00031 9.68157e-06 0)
(1.00031 1.32793e-05 0)
(1.00032 1.73608e-05 0)
(1.00032 2.06585e-05 0)
(1.00033 2.50651e-05 0)
(1.00033 2.80117e-05 0)
(1.00034 3.26147e-05 0)
(1.00034 3.534e-05 0)
(1.00035 3.98691e-05 0)
(1.00035 4.25814e-05 0)
(1.00036 4.67727e-05 0)
(1.00036 4.96378e-05 0)
(1.00036 5.33554e-05 0)
(1.00036 5.64337e-05 0)
(1.00031 2.53443e-06 0)
(1.00032 5.22573e-06 0)
(1.00033 8.60156e-06 0)
(1.00033 1.17823e-05 0)
(1.00033 1.55257e-05 0)
(1.00034 1.84272e-05 0)
(1.00034 2.26157e-05 0)
(1.00035 2.52277e-05 0)
(1.00035 2.97552e-05 0)
(1.00036 3.22699e-05 0)
(1.00036 3.68677e-05 0)
(1.00037 3.95516e-05 0)
(1.00037 4.39435e-05 0)
(1.00037 4.69832e-05 0)
(1.00037 5.10031e-05 0)
(1.00037 5.44151e-05 0)
(1.00032 2.24558e-06 0)
(1.00034 4.49771e-06 0)
(1.00034 7.43734e-06 0)
(1.00034 1.01692e-05 0)
(1.00034 1.35536e-05 0)
(1.00035 1.60297e-05 0)
(1.00035 1.99938e-05 0)
(1.00036 2.22477e-05 0)
(1.00036 2.67064e-05 0)
(1.00037 2.89968e-05 0)
(1.00037 3.36775e-05 0)
(1.00038 3.63302e-05 0)
(1.00038 4.09383e-05 0)
(1.00039 4.41575e-05 0)
(1.00039 4.84917e-05 0)
(1.00039 5.22443e-05 0)
(1.00034 1.93385e-06 0)
(1.00035 3.73772e-06 0)
(1.00035 6.22259e-06 0)
(1.00035 8.48483e-06 0)
(1.00036 1.14995e-05 0)
(1.00036 1.35278e-05 0)
(1.00037 1.72676e-05 0)
(1.00037 1.91425e-05 0)
(1.00038 2.35413e-05 0)
(1.00038 2.55926e-05 0)
(1.00039 3.03703e-05 0)
(1.00039 3.29871e-05 0)
(1.0004 3.78265e-05 0)
(1.0004 4.12318e-05 0)
(1.0004 4.58947e-05 0)
(1.0004 5.00023e-05 0)
(1.00035 1.60835e-06 0)
(1.00036 2.9677e-06 0)
(1.00036 4.99232e-06 0)
(1.00036 6.77529e-06 0)
(1.00037 9.42065e-06 0)
(1.00037 1.0985e-05 0)
(1.00038 1.45083e-05 0)
(1.00038 1.59845e-05 0)
(1.00039 2.03365e-05 0)
(1.0004 2.2132e-05 0)
(1.0004 2.70215e-05 0)
(1.00041 2.95961e-05 0)
(1.00041 3.46823e-05 0)
(1.00041 3.82818e-05 0)
(1.00042 4.32911e-05 0)
(1.00042 4.77757e-05 0)
(1.00036 1.27854e-06 0)
(1.00037 2.21319e-06 0)
(1.00037 3.78694e-06 0)
(1.00037 5.09449e-06 0)
(1.00038 7.38301e-06 0)
(1.00038 8.47623e-06 0)
(1.00039 1.17984e-05 0)
(1.0004 1.28599e-05 0)
(1.0004 1.71808e-05 0)
(1.00041 1.87039e-05 0)
(1.00041 2.37199e-05 0)
(1.00042 2.62446e-05 0)
(1.00043 3.15925e-05 0)
(1.00043 3.5396e-05 0)
(1.00043 4.07713e-05 0)
(1.00043 4.56627e-05 0)
(1.00037 9.55348e-07 0)
(1.00037 1.50598e-06 0)
(1.00038 2.65729e-06 0)
(1.00038 3.50951e-06 0)
(1.00038 5.47023e-06 0)
(1.00039 6.09493e-06 0)
(1.0004 9.24325e-06 0)
(1.00041 9.87736e-06 0)
(1.00041 1.41896e-05 0)
(1.00042 1.54216e-05 0)
(1.00043 2.05811e-05 0)
(1.00043 2.30452e-05 0)
(1.00044 2.86703e-05 0)
(1.00045 3.26878e-05 0)
(1.00045 3.84513e-05 0)
(1.00045 4.37866e-05 0)
(1.00037 6.52438e-07 0)
(1.00038 8.87827e-07 0)
(1.00038 1.66976e-06 0)
(1.00039 2.10938e-06 0)
(1.00039 3.79172e-06 0)
(1.0004 3.9665e-06 0)
(1.0004 6.98171e-06 0)
(1.00041 7.18369e-06 0)
(1.00042 1.15158e-05 0)
(1.00043 1.24394e-05 0)
(1.00044 1.77596e-05 0)
(1.00045 2.01506e-05 0)
(1.00046 2.60662e-05 0)
(1.00046 3.03077e-05 0)
(1.00047 3.64815e-05 0)
(1.00047 4.23043e-05 0)
(1.00038 3.87713e-07 0)
(1.00038 4.13713e-07 0)
(1.00038 9.12332e-07 0)
(1.00039 1.01128e-06 0)
(1.00039 2.49323e-06 0)
(1.0004 2.25651e-06 0)
(1.00041 5.19975e-06 0)
(1.00042 4.97386e-06 0)
(1.00043 9.36554e-06 0)
(1.00044 9.96291e-06 0)
(1.00045 1.54644e-05 0)
(1.00046 1.77645e-05 0)
(1.00047 2.39826e-05 0)
(1.00048 2.84547e-05 0)
(1.00048 3.50605e-05 0)
(1.00049 4.14193e-05 0)
(1.00038 1.84781e-07 0)
(1.00038 1.56761e-07 0)
(1.00039 5.01721e-07 0)
(1.00039 3.72105e-07 0)
(1.0004 1.76852e-06 0)
(1.00041 1.18817e-06 0)
(1.00042 4.14606e-06 0)
(1.00043 3.51256e-06 0)
(1.00044 8.0163e-06 0)
(1.00045 8.27286e-06 0)
(1.00046 1.39781e-05 0)
(1.00048 1.61646e-05 0)
(1.00049 2.26923e-05 0)
(1.0005 2.7397e-05 0)
(1.0005 3.44518e-05 0)
(1.00051 4.13981e-05 0)
(1.00038 7.50055e-08 0)
(1.00039 2.12647e-07 0)
(1.00039 5.91071e-07 0)
(1.0004 3.97414e-07 0)
(1.0004 1.87243e-06 0)
(1.00041 1.05467e-06 0)
(1.00042 4.14859e-06 0)
(1.00044 3.14828e-06 0)
(1.00045 7.83487e-06 0)
(1.00046 7.73906e-06 0)
(1.00048 1.36738e-05 0)
(1.00049 1.57159e-05 0)
(1.0005 2.2554e-05 0)
(1.00051 2.74836e-05 0)
(1.00052 3.49967e-05 0)
(1.00053 4.25823e-05 0)
(1.00038 9.94514e-08 0)
(1.00038 7.0569e-07 0)
(1.00039 1.37937e-06 0)
(1.0004 1.35539e-06 0)
(1.0004 3.13705e-06 0)
(1.00042 2.24045e-06 0)
(1.00042 5.63706e-06 0)
(1.00044 4.34042e-06 0)
(1.00045 9.30491e-06 0)
(1.00047 8.85126e-06 0)
(1.00049 1.50463e-05 0)
(1.0005 1.69022e-05 0)
(1.00052 2.40423e-05 0)
(1.00053 2.91745e-05 0)
(1.00055 3.71427e-05 0)
(1.00055 4.54147e-05 0)
(1.00038 3.11464e-07 0)
(1.00038 1.79504e-06 0)
(1.00039 3.12159e-06 0)
(1.0004 3.59018e-06 0)
(1.0004 5.98881e-06 0)
(1.00042 5.2403e-06 0)
(1.00043 9.16466e-06 0)
(1.00044 7.68193e-06 0)
(1.00046 1.30501e-05 0)
(1.00048 1.22423e-05 0)
(1.0005 1.87326e-05 0)
(1.00052 2.03469e-05 0)
(1.00054 2.77657e-05 0)
(1.00055 3.30576e-05 0)
(1.00057 4.14572e-05 0)
(1.00058 5.04533e-05 0)
(1.00038 7.79342e-07 0)
(1.00038 3.68144e-06 0)
(1.00039 6.13975e-06 0)
(1.0004 7.53742e-06 0)
(1.0004 1.09681e-05 0)
(1.00042 1.06836e-05 0)
(1.00043 1.54364e-05 0)
(1.00045 1.39312e-05 0)
(1.00047 1.98705e-05 0)
(1.00049 1.87251e-05 0)
(1.00051 2.55549e-05 0)
(1.00053 2.68524e-05 0)
(1.00056 3.45094e-05 0)
(1.00057 3.9887e-05 0)
(1.00059 4.86674e-05 0)
(1.00061 5.84076e-05 0)
(1.00038 1.58925e-06 0)
(1.00038 6.61523e-06 0)
(1.00038 1.08356e-05 0)
(1.0004 1.37422e-05 0)
(1.0004 1.87515e-05 0)
(1.00042 1.93616e-05 0)
(1.00043 2.53396e-05 0)
(1.00045 2.40462e-05 0)
(1.00047 3.07776e-05 0)
(1.00049 2.93307e-05 0)
(1.00052 3.65536e-05 0)
(1.00054 3.74359e-05 0)
(1.00057 4.52643e-05 0)
(1.0006 5.06129e-05 0)
(1.00062 5.96825e-05 0)
(1.00064 7.01597e-05 0)
(1.00038 2.84861e-06 0)
(1.00038 1.09024e-05 0)
(1.00039 1.77012e-05 0)
(1.0004 2.28738e-05 0)
(1.0004 3.01715e-05 0)
(1.00042 3.22518e-05 0)
(1.00043 3.9973e-05 0)
(1.00045 3.92197e-05 0)
(1.00048 4.70341e-05 0)
(1.0005 4.53507e-05 0)
(1.00053 5.30375e-05 0)
(1.00056 5.3376e-05 0)
(1.00059 6.12794e-05 0)
(1.00062 6.6427e-05 0)
(1.00065 7.56422e-05 0)
(1.00068 8.68091e-05 0)
(1.00038 4.68876e-06 0)
(1.00039 1.69125e-05 0)
(1.00039 2.73315e-05 0)
(1.0004 3.57446e-05 0)
(1.0004 4.62415e-05 0)
(1.00042 5.055e-05 0)
(1.00043 6.06871e-05 0)
(1.00046 6.09237e-05 0)
(1.00048 7.02065e-05 0)
(1.00051 6.83932e-05 0)
(1.00054 7.66401e-05 0)
(1.00057 7.62713e-05 0)
(1.00061 8.41146e-05 0)
(1.00064 8.88149e-05 0)
(1.00068 9.79591e-05 0)
(1.00071 0.000109711 0)
(1.00038 7.2683e-06 0)
(1.0004 2.50806e-05 0)
(1.0004 4.04288e-05 0)
(1.00041 5.33172e-05 0)
(1.00041 6.81654e-05 0)
(1.00043 7.56873e-05 0)
(1.00044 8.91033e-05 0)
(1.00046 9.09423e-05 0)
(1.00049 0.000102199 0)
(1.00051 0.000100429 0)
(1.00055 0.000109372 0)
(1.00058 0.000108095 0)
(1.00063 0.0001157 0)
(1.00067 0.000119609 0)
(1.00072 0.000128373 0)
(1.00075 0.000140527 0)
(1.00039 1.07739e-05 0)
(1.00042 3.59096e-05 0)
(1.00041 5.78065e-05 0)
(1.00042 7.67134e-05 0)
(1.00042 9.73544e-05 0)
(1.00044 0.000109353 0)
(1.00045 0.000127153 0)
(1.00047 0.000131415 0)
(1.00049 0.000145321 0)
(1.00052 0.000143863 0)
(1.00056 0.000153706 0)
(1.0006 0.000151284 0)
(1.00065 0.00015843 0)
(1.0007 0.000161078 0)
(1.00075 0.000169031 0)
(1.0008 0.000181297 0)
(1.00041 1.54214e-05 0)
(1.00045 4.99607e-05 0)
(1.00044 8.0376e-05 0)
(1.00045 0.000107198 0)
(1.00044 0.000135409 0)
(1.00046 0.000153485 0)
(1.00046 0.000177067 0)
(1.00048 0.000184851 0)
(1.0005 0.000202301 0)
(1.00053 0.000201577 0)
(1.00057 0.000212633 0)
(1.00061 0.00020881 0)
(1.00067 0.000215242 0)
(1.00072 0.000216006 0)
(1.00079 0.00022257 0)
(1.00085 0.000234514 0)
(1.00044 2.14514e-05 0)
(1.00049 6.78371e-05 0)
(1.00048 0.000109122 0)
(1.00049 0.00014615 0)
(1.00048 0.000184091 0)
(1.00049 0.000210245 0)
(1.00048 0.000241371 0)
(1.0005 0.000254133 0)
(1.00051 0.000276326 0)
(1.00054 0.000276989 0)
(1.00058 0.000289755 0)
(1.00062 0.000284293 0)
(1.00069 0.000289751 0)
(1.00075 0.000287826 0)
(1.00083 0.000292241 0)
(1.0009 0.000303235 0)
(1.00049 2.91226e-05 0)
(1.00056 9.01476e-05 0)
(1.00054 0.000145044 0)
(1.00055 0.000194989 0)
(1.00053 0.000245241 0)
(1.00053 0.000281934 0)
(1.00052 0.000322803 0)
(1.00053 0.000342459 0)
(1.00053 0.000371005 0)
(1.00055 0.00037406 0)
(1.00059 0.000389323 0)
(1.00063 0.000382082 0)
(1.0007 0.000386362 0)
(1.00077 0.000380728 0)
(1.00086 0.000382016 0)
(1.00096 0.000391153 0)
(1.00056 3.86956e-05 0)
(1.00065 0.000117455 0)
(1.00063 0.000189077 0)
(1.00063 0.00025507 0)
(1.0006 0.000320647 0)
(1.00059 0.000370858 0)
(1.00057 0.00042418 0)
(1.00057 0.000453238 0)
(1.00056 0.000490298 0)
(1.00057 0.000497289 0)
(1.0006 0.000516314 0)
(1.00064 0.000507406 0)
(1.00072 0.0005105 0)
(1.00079 0.000499932 0)
(1.0009 0.000496862 0)
(1.00101 0.000502837 0)
(1.00065 5.04113e-05 0)
(1.00078 0.000150185 0)
(1.00075 0.000241947 0)
(1.00074 0.000327487 0)
(1.0007 0.000411818 0)
(1.00068 0.000479066 0)
(1.00064 0.000548132 0)
(1.00062 0.000589821 0)
(1.0006 0.000638298 0)
(1.0006 0.000651562 0)
(1.00062 0.000676393 0)
(1.00065 0.000666505 0)
(1.00073 0.000668916 0)
(1.00081 0.000652161 0)
(1.00094 0.000643413 0)
(1.00107 0.000644466 0)
(1.00078 6.4451e-05 0)
(1.00095 0.000188519 0)
(1.00092 0.000303991 0)
(1.0009 0.000412828 0)
(1.00084 0.000519664 0)
(1.0008 0.000607977 0)
(1.00074 0.000696667 0)
(1.0007 0.00075507 0)
(1.00066 0.000818786 0)
(1.00064 0.000841795 0)
(1.00064 0.000875644 0)
(1.00066 0.000866533 0)
(1.00073 0.000869818 0)
(1.00082 0.000846025 0)
(1.00096 0.00083068 0)
(1.00113 0.000824644 0)
(1.00096 8.08908e-05 0)
(1.00118 0.000232231 0)
(1.00113 0.000374898 0)
(1.0011 0.000510811 0)
(1.00102 0.000644039 0)
(1.00097 0.000757818 0)
(1.00088 0.000870553 0)
(1.00082 0.000950645 0)
(1.00075 0.00103451 0)
(1.00069 0.00107217 0)
(1.00068 0.00111985 0)
(1.00067 0.00111487 0)
(1.00073 0.0011221 0)
(1.00082 0.0010911 0)
(1.00098 0.00106868 0)
(1.00119 0.0010523 0)
(1.00118 9.96317e-05 0)
(1.00146 0.000280528 0)
(1.0014 0.000453434 0)
(1.00136 0.000619883 0)
(1.00126 0.000783199 0)
(1.00118 0.000926949 0)
(1.00107 0.00106846 0)
(1.00097 0.00117607 0)
(1.00087 0.00128615 0)
(1.00078 0.00134526 0)
(1.00073 0.00141382 0)
(1.00069 0.00141885 0)
(1.00073 0.00143552 0)
(1.00081 0.00139823 0)
(1.00099 0.00136758 0)
(1.00123 0.00133384 0)
(1.00147 0.000120331 0)
(1.00181 0.000331845 0)
(1.00174 0.0005371 0)
(1.00168 0.000736721 0)
(1.00156 0.000933113 0)
(1.00146 0.00111094 0)
(1.00131 0.00128582 0)
(1.00118 0.00142732 0)
(1.00103 0.00157081 0)
(1.0009 0.00166054 0)
(1.0008 0.00176067 0)
(1.00072 0.00178694 0)
(1.00073 0.00182558 0)
(1.00078 0.00179021 0)
(1.00097 0.00175534 0)
(1.00126 0.00169677 0)
(1.00183 0.000142315 0)
(1.00224 0.000383703 0)
(1.00215 0.000621879 0)
(1.00208 0.000855797 0)
(1.00193 0.0010868 0)
(1.0018 0.00130153 0)
(1.00162 0.00151329 0)
(1.00144 0.00169456 0)
(1.00125 0.00187872 0)
(1.00107 0.0020101 0)
(1.00092 0.00215646 0)
(1.00077 0.00222344 0)
(1.00074 0.00231164 0)
(1.00073 0.0023098 0)
(1.00092 0.00230891 0)
(1.00125 0.00225484 0)
(1.00226 0.000164519 0)
(1.00275 0.000432646 0)
(1.00265 0.000702102 0)
(1.00255 0.000969163 0)
(1.00238 0.00123393 0)
(1.00222 0.00148593 0)
(1.002 0.00173539 0)
(1.00179 0.00195965 0)
(1.00154 0.00218871 0)
(1.00131 0.00237028 0)
(1.0011 0.00257527 0)
(1.0009 0.00270301 0)
(1.0008 0.00287483 0)
(1.00073 0.00295633 0)
(1.00087 0.00307272 0)
(1.00121 0.00312881 0)
(1.00277 0.000185463 0)
(1.00333 0.000474374 0)
(1.00322 0.000770679 0)
(1.00311 0.00106675 0)
(1.00291 0.00136121 0)
(1.00272 0.00164726 0)
(1.00246 0.00193097 0)
(1.00221 0.00219633 0)
(1.00192 0.00246746 0)
(1.00163 0.00269847 0)
(1.00136 0.00295973 0)
(1.0011 0.00314697 0)
(1.00094 0.00340278 0)
(1.00081 0.0035677 0)
(1.00089 0.00381636 0)
(1.00115 0.00401513 0)
(1.00335 0.000203307 0)
(1.00399 0.000504035 0)
(1.00386 0.000819616 0)
(1.00374 0.00113722 0)
(1.00352 0.00145371 0)
(1.0033 0.0017666 0)
(1.003 0.00207655 0)
(1.00271 0.00237576 0)
(1.00236 0.00267903 0)
(1.00202 0.00294956 0)
(1.00168 0.00324975 0)
(1.00136 0.00347306 0)
(1.00114 0.00377374 0)
(1.00092 0.00395347 0)
(1.00093 0.00422735 0)
(1.00105 0.00441149 0)
(1.00402 0.000215975 0)
(1.00471 0.000516539 0)
(1.00457 0.000840557 0)
(1.00443 0.00116876 0)
(1.00419 0.00149611 0)
(1.00393 0.00182491 0)
(1.0036 0.00214946 0)
(1.00326 0.00247175 0)
(1.00286 0.00279425 0)
(1.00247 0.00309313 0)
(1.00205 0.00341531 0)
(1.00165 0.00365952 0)
(1.00133 0.00398317 0)
(1.001 0.00414469 0)
(1.00091 0.0044214 0)
(1.0009 0.00456393 0)
(1.00474 0.000221289 0)
(1.00548 0.000506804 0)
(1.00533 0.000825177 0)
(1.00517 0.00114966 0)
(1.0049 0.00147326 0)
(1.00462 0.00180349 0)
(1.00425 0.00212767 0)
(1.00387 0.00245922 0)
(1.00341 0.00278595 0)
(1.00295 0.00310132 0)
(1.00244 0.00342896 0)
(1.00195 0.00368595 0)
(1.0015 0.00401562 0)
(1.00104 0.00414241 0)
(1.00084 0.00443833 0)
(1.00071 0.00451794 0)
(1.00551 0.000217074 0)
(1.00627 0.000470096 0)
(1.00611 0.000765728 0)
(1.00593 0.00106898 0)
(1.00565 0.00137108 0)
(1.00534 0.00168479 0)
(1.00494 0.00199034 0)
(1.00451 0.00231384 0)
(1.00399 0.00262731 0)
(1.00346 0.00294534 0)
(1.00286 0.00326241 0)
(1.00226 0.00353016 0)
(1.00165 0.00384868 0)
(1.00103 0.00395593 0)
(1.00072 0.00429801 0)
(1.00039 0.00425295 0)
(1.00631 0.0002013 0)
(1.00706 0.000402319 0)
(1.00689 0.000655359 0)
(1.0067 0.000916742 0)
(1.00639 0.00117601 0)
(1.00606 0.00145076 0)
(1.00562 0.00171421 0)
(1.00515 0.00200558 0)
(1.00458 0.00228096 0)
(1.00398 0.00257898 0)
(1.00327 0.00286572 0)
(1.00256 0.00314086 0)
(1.00176 0.00343838 0)
(1.00099 0.00359912 0)
(1.00051 0.0039563 0)
(0.99981 0.00364461 0)
(1.00711 0.00017222 0)
(1.00783 0.000299621 0)
(1.00764 0.000487396 0)
(1.00743 0.00068266 0)
(1.00711 0.000873009 0)
(1.00674 0.00108012 0)
(1.00628 0.00127189 0)
(1.00577 0.00150122 0)
(1.00514 0.00170943 0)
(1.00446 0.00196169 0)
(1.00367 0.0022013 0)
(1.00285 0.00247241 0)
(1.00189 0.00275805 0)
(1.00095 0.0029948 0)
(1 0.00318012 0)
(0.998677 0.00241976 0)
(1.00787 0.000128217 0)
(1.00852 0.00015742 0)
(1.00832 0.00025508 0)
(1.0081 0.000358973 0)
(1.00775 0.000455131 0)
(1.00734 0.000570082 0)
(1.00685 0.000669533 0)
(1.0063 0.000819056 0)
(1.00564 0.000949007 0)
(1.00491 0.00115336 0)
(1.00408 0.00132692 0)
(1.00319 0.00151992 0)
(1.00206 0.0016816 0)
(1.00072 0.00169162 0)
(0.998947 0.00138837 0)
(0.996711 0.000125958 0)
(1.00857 6.73279e-05 0)
(1.0091 -1.96153e-05 0)
(1.00888 -3.09658e-05 0)
(1.00864 -3.25398e-05 0)
(1.00827 -3.54551e-05 0)
(1.00785 -5.67061e-06 0)
(1.00736 6.44865e-06 0)
(1.00681 5.2078e-05 0)
(1.00615 4.64319e-05 0)
(1.00537 0.000102402 0)
(1.00437 2.72863e-05 0)
(1.00324 -0.000106071 0)
(1.00177 -0.000484741 0)
(0.999834 -0.00109482 0)
(0.997142 -0.00202103 0)
(0.993916 -0.00364997 0)
(1.00915 -8.76634e-06 0)
(1.00957 -0.000200787 0)
(1.00937 -0.0003269 0)
(1.00913 -0.000450056 0)
(1.00877 -0.000582568 0)
(1.00833 -0.000691778 0)
(1.00775 -0.000864665 0)
(1.00707 -0.00108338 0)
(1.00627 -0.00145547 0)
(1.00528 -0.00188525 0)
(1.00399 -0.0025534 0)
(1.00243 -0.00329865 0)
(1.00042 -0.00438645 0)
(0.997914 -0.00560003 0)
(0.994512 -0.00708789 0)
(0.990476 -0.00890318 0)
(1.00962 -8.66534e-05 0)
(1.00995 -0.000446755 0)
(1.00969 -0.000748666 0)
(1.00937 -0.00109226 0)
(1.00891 -0.00150885 0)
(1.00832 -0.0019944 0)
(1.00752 -0.00262238 0)
(1.00656 -0.00335478 0)
(1.00541 -0.00430824 0)
(1.00405 -0.00537996 0)
(1.0024 -0.00671662 0)
(1.00042 -0.00809918 0)
(0.997965 -0.00978704 0)
(0.99499 -0.0114464 0)
(0.991092 -0.0133447 0)
(0.98651 -0.0152077 0)
(1.01001 -0.000191348 0)
(1.00973 -0.000975694 0)
(1.00934 -0.00164257 0)
(1.00883 -0.00240001 0)
(1.00811 -0.00329251 0)
(1.00721 -0.00432035 0)
(1.00611 -0.00553331 0)
(1.00481 -0.00687847 0)
(1.00331 -0.00844708 0)
(1.00158 -0.010119 0)
(0.999587 -0.0120292 0)
(0.99726 -0.0139232 0)
(0.994481 -0.0160536 0)
(0.991188 -0.0179988 0)
(0.987037 -0.0201118 0)
(0.982214 -0.0218475 0)
(1.00985 -0.000415931 0)
(1.00828 -0.00184638 0)
(1.00773 -0.0030754 0)
(1.00698 -0.00441499 0)
(1.00598 -0.00590452 0)
(1.00477 -0.00753438 0)
(1.00335 -0.00934121 0)
(1.00172 -0.0112691 0)
(0.999899 -0.0133808 0)
(0.997868 -0.0155494 0)
(0.995613 -0.0178986 0)
(0.993053 -0.0201568 0)
(0.990111 -0.0225713 0)
(0.986694 -0.0246568 0)
(0.982553 -0.0268285 0)
(0.977792 -0.0283428 0)
(1.00845 -0.000787015 0)
(1.00516 -0.0029619 0)
(1.00449 -0.00487846 0)
(1.00354 -0.0068904 0)
(1.00231 -0.0090183 0)
(1.00084 -0.011247 0)
(0.999168 -0.0136001 0)
(0.997296 -0.0160256 0)
(0.995258 -0.0185673 0)
(0.993031 -0.0211044 0)
(0.990632 -0.0237489 0)
(0.987974 -0.0262332 0)
(0.985028 -0.0287994 0)
(0.981676 -0.0309272 0)
(0.977767 -0.0330763 0)
(0.97332 -0.0343708 0)
(1.0054 -0.00126451 0)
(1.00019 -0.00415358 0)
(0.999449 -0.00678444 0)
(0.998399 -0.00947137 0)
(0.997048 -0.0122084 0)
(0.995452 -0.014978 0)
(0.99365 -0.0177917 0)
(0.991664 -0.0206097 0)
(0.989538 -0.0234649 0)
(0.987247 -0.0262543 0)
(0.984834 -0.0290773 0)
(0.982212 -0.031686 0)
(0.979403 -0.0343132 0)
(0.976272 -0.036433 0)
(0.972768 -0.0385285 0)
(0.968838 -0.0396409 0)
(1.00047 -0.00177659 0)
(0.993465 -0.00523344 0)
(0.992733 -0.00850208 0)
(0.991689 -0.0117818 0)
(0.99035 -0.0150386 0)
(0.988767 -0.0182549 0)
(0.986986 -0.0214307 0)
(0.985028 -0.0245416 0)
(0.982948 -0.0276131 0)
(0.980723 -0.0305663 0)
(0.978418 -0.0334873 0)
(0.97595 -0.0361589 0)
(0.973395 -0.0387973 0)
(0.97061 -0.0408954 0)
(0.967645 -0.0429375 0)
(0.964387 -0.0439241 0)
(0.993755 -0.00224211 0)
(0.985328 -0.00604834 0)
(0.984676 -0.00979597 0)
(0.983735 -0.0135194 0)
(0.982524 -0.0171615 0)
(0.98108 -0.0207054 0)
(0.979446 -0.0241399 0)
(0.977642 -0.0274555 0)
(0.975724 -0.0306683 0)
(0.973676 -0.0337256 0)
(0.971578 -0.0366969 0)
(0.96936 -0.0394019 0)
(0.967148 -0.0420318 0)
(0.964803 -0.0441184 0)
(0.962474 -0.046126 0)
(0.960005 -0.0470557 0)
(0.985595 -0.00259422 0)
(0.976292 -0.00650314 0)
(0.975761 -0.0105203 0)
(0.974986 -0.0144975 0)
(0.973976 -0.0183627 0)
(0.972754 -0.0221004 0)
(0.971354 -0.0256888 0)
(0.969789 -0.0291284 0)
(0.968114 -0.0324234 0)
(0.96632 -0.0355437 0)
(0.9645 -0.0385381 0)
(0.962603 -0.0412663 0)
(0.960796 -0.0438852 0)
(0.958957 -0.0459823 0)
(0.95733 -0.0479813 0)
(0.955725 -0.0489231 0)
(0.976514 -0.00279099 0)
(0.966925 -0.00656791 0)
(0.966526 -0.010629 0)
(0.965933 -0.0146567 0)
(0.965147 -0.0185735 0)
(0.964176 -0.0223659 0)
(0.963043 -0.0260016 0)
(0.961755 -0.0294867 0)
(0.960363 -0.0328091 0)
(0.958865 -0.0359574 0)
(0.957364 -0.0389551 0)
(0.955827 -0.0417023 0)
(0.954461 -0.0443141 0)
(0.953166 -0.046447 0)
(0.952272 -0.0484659 0)
(0.951568 -0.0494903 0)
(0.967094 -0.00281903 0)
(0.957761 -0.00627411 0)
(0.957473 -0.0101698 0)
(0.957039 -0.0140568 0)
(0.956454 -0.0178607 0)
(0.955714 -0.0215713 0)
(0.954834 -0.0251467 0)
(0.953816 -0.0285948 0)
(0.952708 -0.0318858 0)
(0.951511 -0.0350216 0)
(0.950336 -0.0379986 0)
(0.949173 -0.0407551 0)
(0.948256 -0.0433591 0)
(0.947517 -0.0455455 0)
(0.947359 -0.0476022 0)
(0.947555 -0.0487616 0)
(0.957882 -0.00269199 0)
(0.949229 -0.00570334 0)
(0.949014 -0.00926684 0)
(0.94869 -0.0128547 0)
(0.948248 -0.0164018 0)
(0.947684 -0.0199031 0)
(0.947007 -0.0233106 0)
(0.946219 -0.0266328 0)
(0.945361 -0.0298236 0)
(0.944443 -0.0328951 0)
(0.943574 -0.0358155 0)
(0.942771 -0.0385595 0)
(0.942286 -0.0411449 0)
(0.942091 -0.0433908 0)
(0.942641 -0.0454933 0)
(0.943696 -0.0468296 0)
(0.949316 -0.00244555 0)
(0.941612 -0.00496829 0)
(0.941427 -0.00809285 0)
(0.941155 -0.0112702 0)
(0.940789 -0.014448 0)
(0.940331 -0.0176287 0)
(0.939789 -0.0207644 0)
(0.939169 -0.0238663 0)
(0.938506 -0.0268772 0)
(0.93782 -0.029818 0)
(0.937215 -0.0326318 0)
(0.936737 -0.0353256 0)
(0.936646 -0.0378675 0)
(0.936958 -0.0401618 0)
(0.938159 -0.0423019 0)
(0.939993 -0.0438367 0)
(0.941684 -0.00212886 0)
(0.935039 -0.0041873 0)
(0.93485 -0.00683206 0)
(0.934582 -0.00954204 0)
(0.934234 -0.0122781 0)
(0.933817 -0.0150524 0)
(0.933342 -0.0178242 0)
(0.932823 -0.0206117 0)
(0.932289 -0.0233551 0)
(0.931774 -0.0260863 0)
(0.931376 -0.0287289 0)
(0.931171 -0.0313191 0)
(0.931418 -0.0337784 0)
(0.932185 -0.0360923 0)
(0.933952 -0.0382462 0)
(0.936447 -0.0399788 0)
(0.935109 -0.00179324 0)
(0.9295 -0.00345787 0)
(0.929292 -0.00564095 0)
(0.929004 -0.00788127 0)
(0.92864 -0.0101506 0)
(0.92822 -0.0124699 0)
(0.927759 -0.0148105 0)
(0.92728 -0.017202 0)
(0.926812 -0.0195916 0)
(0.926403 -0.0220254 0)
(0.926146 -0.0244186 0)
(0.926152 -0.0268355 0)
(0.926669 -0.0291591 0)
(0.927824 -0.0314482 0)
(0.93005 -0.0335838 0)
(0.933056 -0.0354989 0)
(0.929575 -0.00148062 0)
(0.924885 -0.00283752 0)
(0.924665 -0.00461807 0)
(0.92436 -0.00643268 0)
(0.923976 -0.00825927 0)
(0.923537 -0.0101223 0)
(0.923062 -0.0120056 0)
(0.922584 -0.0139497 0)
(0.922131 -0.0159152 0)
(0.921768 -0.0179659 0)
(0.921586 -0.0200207 0)
(0.921735 -0.0221772 0)
(0.922448 -0.0242946 0)
(0.923909 -0.026497 0)
(0.926465 -0.0285797 0)
(0.929812 -0.0306577 0)
(0.924964 -0.00121539 0)
(0.921039 -0.00233903 0)
(0.920827 -0.00379306 0)
(0.92053 -0.00525459 0)
(0.920149 -0.00670223 0)
(0.919707 -0.00815591 0)
(0.919222 -0.00960607 0)
(0.918736 -0.011099 0)
(0.918272 -0.0126083 0)
(0.917916 -0.0142138 0)
(0.917751 -0.0158416 0)
(0.917973 -0.0176324 0)
(0.918796 -0.0194497 0)
(0.920456 -0.0214797 0)
(0.923181 -0.0234707 0)
(0.92669 -0.0256958 0)
(0.921114 -0.00100257 0)
(0.917823 -0.00194206 0)
(0.917641 -0.00314032 0)
(0.917383 -0.00432747 0)
(0.917039 -0.00548024 0)
(0.916629 -0.00660691 0)
(0.916163 -0.00769585 0)
(0.915684 -0.00878919 0)
(0.915211 -0.00986709 0)
(0.914847 -0.0110137 0)
(0.914668 -0.0121534 0)
(0.914904 -0.0134649 0)
(0.915744 -0.0148563 0)
(0.917461 -0.0165976 0)
(0.92015 -0.018442 0)
(0.923635 -0.0207794 0)
(0.917886 -0.000832928 0)
(0.915063 -0.00161383 0)
(0.914914 -0.00261057 0)
(0.914702 -0.0035924 0)
(0.914412 -0.00453793 0)
(0.914058 -0.00544202 0)
(0.913641 -0.00628481 0)
(0.913205 -0.00709023 0)
(0.912766 -0.00783082 0)
(0.912453 -0.00856872 0)
(0.912352 -0.00925094 0)
(0.912599 -0.0100281 0)
(0.913366 -0.0108548 0)
(0.914946 -0.0121482 0)
(0.917347 -0.0137307 0)
(0.920608 -0.0160566 0)
(0.915113 -0.000692067 0)
(0.912603 -0.00131365 0)
(0.912515 -0.00213539 0)
(0.912392 -0.00295417 0)
(0.912229 -0.00375816 0)
(0.912038 -0.00453539 0)
(0.911827 -0.00526174 0)
(0.911628 -0.00593809 0)
(0.911463 -0.00651686 0)
(0.911416 -0.00702612 0)
(0.911493 -0.00743557 0)
(0.911779 -0.00785045 0)
(0.912296 -0.00816299 0)
(0.913232 -0.00884689 0)
(0.914969 -0.00984887 0)
(0.917764 -0.0118663 0)
(0.912635 -0.000562717 0)
(0.911327 -0.00107424 0)
(0.911281 -0.00174759 0)
(0.911221 -0.00242383 0)
(0.911151 -0.00309356 0)
(0.911082 -0.00375032 0)
(0.911024 -0.00437457 0)
(0.911002 -0.00496919 0)
(0.911025 -0.0054855 0)
(0.91113 -0.00595761 0)
(0.911292 -0.00630111 0)
(0.911621 -0.00663873 0)
(0.912006 -0.00681266 0)
(0.912586 -0.00708525 0)
(0.913472 -0.00729232 0)
(0.915463 -0.00864939 0)
(0.911344 -0.000460452 0)
(0.910793 -0.000951477 0)
(0.91075 -0.00154075 0)
(0.910693 -0.0021265 0)
(0.910627 -0.0026924 0)
(0.910564 -0.00323766 0)
(0.910516 -0.0037393 0)
(0.91051 -0.00421149 0)
(0.910552 -0.00461195 0)
(0.910698 -0.00498977 0)
(0.910917 -0.00526475 0)
(0.911298 -0.00555701 0)
(0.911753 -0.00570623 0)
(0.912411 -0.00598279 0)
(0.912927 -0.00593771 0)
(0.913925 -0.00655742 0)
(0.910809 -0.000408041 0)
(0.910115 -0.000816069 0)
(0.910097 -0.00131933 0)
(0.910075 -0.0018169 0)
(0.910058 -0.0022929 0)
(0.910055 -0.00274776 0)