/*--------------------------------*- C++ -*----------------------------------*\
| =========                 |                                                 |
| \\      /  F ield         | foam-extend: Open Source CFD                    |
|  \\    /   O peration     | Version:     4.1-20200408                       |
|   \\  /    A nd           | Web:         http://www.foam-extend.org         |
|    \\/     M anipulation  |                                                 |
\*---------------------------------------------------------------------------*/
FoamFile
{
    version     2.0;
    format      ascii;
    class       volTensorField;
    location    "0.0640000";
    object      F;
}
// * * * * * * * * * * * * * * * * * * * * * * * * * * * * * * * * * * * * * //

dimensions      [0 0 0 0 0 0 0];

internalField   nonuniform List<tensor> 
1952
(
(1.0633 -0.00432098 -2.32817e-10 -0.000434595 0.968321 -6.36165e-11 6.68726e-11 7.38463e-10 0.968272)
(1.06331 -0.00728472 -1.12629e-10 -0.000687339 0.968379 -1.07258e-09 4.18419e-11 -7.42289e-10 0.968311)
(1.06332 -0.00980943 1.85446e-10 -0.00097535 0.96849 3.58531e-10 -6.20359e-11 -5.24768e-09 0.968333)
(1.06333 -0.0121984 4.60159e-10 -0.00122455 0.9686 1.72318e-09 -1.75291e-10 1.99436e-09 0.96839)
(1.06335 -0.0142493 -1.82209e-10 -0.00151206 0.968775 -4.52662e-10 5.40839e-12 1.01149e-08 0.96843)
(1.06337 -0.015982 -8.17372e-10 -0.00175339 0.968947 -1.87559e-09 1.95156e-10 1.46585e-09 0.968509)
(1.06339 -0.0172018 -2.99766e-10 -0.00203438 0.969172 -7.49484e-10 5.19023e-11 -1.04332e-08 0.968568)
(1.06341 -0.0179082 5.91472e-10 -0.0022629 0.969403 9.74919e-10 -1.37315e-10 -1.76199e-09 0.968666)
(1.06343 -0.0178347 -8.03989e-11 -0.00253117 0.969699 -2.04386e-10 -4.40759e-11 1.00224e-08 0.968745)
(1.06344 -0.0170931 -8.42507e-10 -0.00274394 0.970065 -1.08083e-09 7.37884e-11 -2.14497e-09 0.968864)
(1.06346 -0.0152882 2.45546e-10 -0.00299502 0.970519 2.44091e-10 -1.1969e-11 -1.01821e-08 0.968977)
(1.06347 -0.0124581 7.99567e-10 -0.00318656 0.971141 7.20449e-10 -1.17085e-10 1.75731e-09 0.969131)
(1.06348 -0.00832294 -4.18635e-11 -0.00341568 0.971846 -6.82877e-11 -7.79857e-11 9.82933e-09 0.969301)
(1.06349 -0.00342022 -6.08133e-10 -0.00358814 0.972686 -7.82888e-10 2.97379e-11 1.54059e-09 0.969508)
(1.06351 0.000460909 -2.99855e-10 -0.00383582 0.973121 -2.09277e-10 -2.59017e-12 -3.13091e-09 0.969739)
(1.06329 -0.00231826 -7.24813e-11 -0.00017974 0.968269 -2.57934e-09 1.46393e-11 -1.06988e-09 0.968285)
(1.06336 -0.0043244 -2.32948e-10 -0.000420897 0.968305 -6.37064e-11 -6.82406e-12 7.3894e-10 0.968257)
(1.06337 -0.00729025 -1.12664e-10 -0.00068323 0.968364 -1.0733e-09 -9.05266e-12 -7.42517e-10 0.968295)
(1.06338 -0.00981676 1.8559e-10 -0.000949606 0.968475 3.58851e-10 -8.14492e-12 -5.25041e-09 0.968317)
(1.0634 -0.0122077 4.60379e-10 -0.00121071 0.968585 1.72498e-09 -2.09933e-11 1.99454e-09 0.968375)
(1.06341 -0.0142601 -1.82321e-10 -0.00147393 0.96876 -4.52822e-10 -3.93407e-11 1.012e-08 0.968415)
(1.06343 -0.0159947 -8.17682e-10 -0.00172643 0.968932 -1.87762e-09 -3.01222e-11 1.46808e-09 0.968493)
(1.06345 -0.0172153 -3.0012e-10 -0.00198153 0.969157 -7.49295e-10 -6.13241e-12 -1.04377e-08 0.968553)
(1.06347 -0.0179234 5.91022e-10 -0.00222046 0.969387 9.77159e-10 -2.13763e-11 -1.76373e-09 0.96865)
(1.06349 -0.0178511 -8.04637e-11 -0.0024623 0.969683 -2.04402e-10 -6.61813e-11 1.00273e-08 0.96873)
(1.06351 -0.0171114 -8.41902e-10 -0.00268173 0.970048 -1.08293e-09 -4.68922e-11 -2.14523e-09 0.968849)
(1.06353 -0.0153091 2.45799e-10 -0.0029055 0.970501 2.43632e-10 -1.75629e-12 -1.01872e-08 0.968962)
(1.06355 -0.0124821 7.99182e-10 -0.0030977 0.97112 7.21654e-10 -3.43571e-11 1.75784e-09 0.969115)
(1.06356 -0.00835705 -4.18412e-11 -0.00329689 0.971823 -6.83108e-11 -8.72775e-11 9.83449e-09 0.969285)
(1.06357 -0.00347894 -6.04473e-10 -0.00345871 0.972655 -7.83107e-10 -8.02403e-11 1.5414e-09 0.969491)
(1.06361 0.000345782 -2.9622e-10 -0.00366409 0.973082 -2.08917e-10 -3.12085e-11 -3.13311e-09 0.969721)
(1.06335 -0.00232057 -7.25689e-11 -0.000180405 0.968254 -2.58041e-09 -2.46428e-12 -1.0704e-09 0.968269)
(1.06343 -0.00432824 -2.33099e-10 -0.000417341 0.968282 -6.37363e-11 -6.83569e-12 7.39442e-10 0.968235)
(1.06343 -0.0072966 -1.12697e-10 -0.000677883 0.968342 -1.07407e-09 -9.07153e-12 -7.43056e-10 0.968273)
(1.06345 -0.00982504 1.85747e-10 -0.000941253 0.968452 3.59184e-10 -8.16631e-12 -5.25408e-09 0.968295)
(1.06346 -0.0122183 4.60545e-10 -0.00120092 0.968563 1.72654e-09 -2.1027e-11 1.99593e-09 0.968352)
(1.06348 -0.0142724 -1.8246e-10 -0.00146089 0.968737 -4.53101e-10 -3.93946e-11 1.0127e-08 0.968393)
(1.0635 -0.0160088 -8.18048e-10 -0.00171212 0.968909 -1.87938e-09 -3.01733e-11 1.46911e-09 0.968471)
(1.06352 -0.0172301 -3.00525e-10 -0.0019638 0.969134 -7.49556e-10 -6.16712e-12 -1.04451e-08 0.968531)
(1.06354 -0.0179405 5.90294e-10 -0.00220063 0.969364 9.78641e-10 -2.14219e-11 -1.76502e-09 0.968628)
(1.06356 -0.0178699 -8.05455e-11 -0.00243889 0.969658 -2.04495e-10 -6.62696e-11 1.00345e-08 0.968708)
(1.06358 -0.017132 -8.41204e-10 -0.00265615 0.970023 -1.08448e-09 -4.69779e-11 -2.14683e-09 0.968826)
(1.0636 -0.0153318 2.46172e-10 -0.00287651 0.970475 2.4351e-10 -1.79279e-12 -1.01947e-08 0.968939)
(1.06361 -0.012505 7.99325e-10 -0.00306688 0.971092 7.22474e-10 -3.44114e-11 1.75915e-09 0.969092)
(1.06362 -0.00838173 -4.18245e-11 -0.00326306 0.971794 -6.83552e-11 -8.73933e-11 9.84204e-09 0.969261)
(1.06364 -0.00350618 -6.04378e-10 -0.00342428 0.972625 -7.84186e-10 -8.03709e-11 1.5426e-09 0.969467)
(1.06366 0.000314837 -2.96258e-10 -0.00363028 0.973055 -2.09208e-10 -3.12732e-11 -3.13561e-09 0.969696)
(1.06342 -0.00232314 -7.25897e-11 -0.000178923 0.968232 -2.58199e-09 -2.46913e-12 -1.07114e-09 0.968247)
(1.06349 -0.00433221 -2.33269e-10 -0.000414335 0.968258 -6.37365e-11 -6.84745e-12 7.3999e-10 0.968211)
(1.0635 -0.00730318 -1.12755e-10 -0.000673306 0.968318 -1.07484e-09 -9.0899e-12 -7.4364e-10 0.968249)
(1.06351 -0.0098332 1.85885e-10 -0.000934462 0.968428 3.59507e-10 -8.18718e-12 -5.25809e-09 0.968271)
(1.06352 -0.0122289 4.60621e-10 -0.00119269 0.968539 1.72794e-09 -2.10614e-11 1.99743e-09 0.968328)
(1.06354 -0.0142848 -1.82602e-10 -0.00145005 0.968713 -4.53415e-10 -3.94493e-11 1.01347e-08 0.968369)
(1.06356 -0.0160233 -8.18275e-10 -0.00169987 0.968885 -1.8809e-09 -3.02239e-11 1.47023e-09 0.968447)
(1.06359 -0.0172456 -3.00982e-10 -0.00194858 0.969108 -7.49938e-10 -6.1994e-12 -1.04532e-08 0.968507)
(1.06361 -0.0179582 5.89523e-10 -0.00218363 0.969337 9.79934e-10 -2.14675e-11 -1.76642e-09 0.968603)
(1.06363 -0.0178893 -8.063e-11 -0.00241873 0.969631 -2.04614e-10 -6.63602e-11 1.00424e-08 0.968683)
(1.06365 -0.0171533 -8.40503e-10 -0.00263423 0.969995 -1.08589e-09 -4.70636e-11 -2.14858e-09 0.968801)
(1.06367 -0.0153559 2.46483e-10 -0.00285157 0.970447 2.43511e-10 -1.82505e-12 -1.0203e-08 0.968914)
(1.06368 -0.0125293 7.99674e-10 -0.00304086 0.971062 7.23343e-10 -3.44651e-11 1.76058e-09 0.969066)
(1.06369 -0.00840607 -4.1812e-11 -0.00323635 0.971763 -6.84054e-11 -8.75118e-11 9.85031e-09 0.969235)
(1.06371 -0.00353193 -6.04284e-10 -0.00339802 0.972596 -7.85233e-10 -8.05029e-11 1.54391e-09 0.969441)
(1.06372 0.000288281 -2.9659e-10 -0.00360425 0.973026 -2.09432e-10 -3.13366e-11 -3.13835e-09 0.96967)
(1.06348 -0.00232561 -7.26395e-11 -0.000177678 0.968208 -2.58374e-09 -2.47391e-12 -1.07196e-09 0.968223)
(1.06356 -0.00433634 -2.33452e-10 -0.000411547 0.968233 -6.37301e-11 -6.8594e-12 7.40579e-10 0.968185)
(1.06357 -0.00731006 -1.12822e-10 -0.000668824 0.968292 -1.07566e-09 -9.10789e-12 -7.44268e-10 0.968223)
(1.06358 -0.0098416 1.86028e-10 -0.000928281 0.968402 3.59856e-10 -8.2074e-12 -5.2624e-09 0.968245)
(1.06359 -0.0122398 4.60692e-10 -0.0011846 0.968512 1.7294e-09 -2.10968e-11 1.99904e-09 0.968302)
(1.06361 -0.0142977 -1.82748e-10 -0.00144002 0.968686 -4.5376e-10 -3.95054e-11 1.01431e-08 0.968343)
(1.06363 -0.016039 -8.1836e-10 -0.00168762 0.968858 -1.8825e-09 -3.02744e-11 1.47143e-09 0.968421)
(1.06366 -0.0172624 -3.01552e-10 -0.00193432 0.96908 -7.50445e-10 -6.22897e-12 -1.0462e-08 0.968481)
(1.06368 -0.0179765 5.88777e-10 -0.00216821 0.969309 9.81024e-10 -2.15132e-11 -1.76794e-09 0.968577)
(1.0637 -0.0179092 -8.07186e-11 -0.00240156 0.969602 -2.04755e-10 -6.64525e-11 1.0051e-08 0.968656)
(1.06372 -0.0171743 -8.40029e-10 -0.00261611 0.969966 -1.08711e-09 -4.71491e-11 -2.15047e-09 0.968774)
(1.06374 -0.0153788 2.46821e-10 -0.0028323 0.970417 2.43661e-10 -1.85536e-12 -1.0212e-08 0.968886)
(1.06375 -0.0125521 7.99979e-10 -0.00302161 0.971033 7.2431e-10 -3.45177e-11 1.76212e-09 0.969039)
(1.06376 -0.00842808 -4.17972e-11 -0.00321677 0.971734 -6.84558e-11 -8.76316e-11 9.85914e-09 0.969207)
(1.06377 -0.00355258 -6.04563e-10 -0.00337923 0.972567 -7.86232e-10 -8.06358e-11 1.54529e-09 0.969413)
(1.06378 0.000268614 -2.96859e-10 -0.0035857 0.972999 -2.09672e-10 -3.13994e-11 -3.14124e-09 0.969642)
(1.06355 -0.00232802 -7.26964e-11 -0.000176513 0.968183 -2.58562e-09 -2.47863e-12 -1.07283e-09 0.968197)
(1.06363 -0.00434054 -2.33657e-10 -0.000409197 0.968205 -6.37244e-11 -6.87159e-12 7.41208e-10 0.968157)
(1.06364 -0.00731717 -1.12887e-10 -0.000665029 0.968264 -1.07654e-09 -9.12555e-12 -7.44939e-10 0.968195)
(1.06365 -0.00985026 1.86172e-10 -0.000923006 0.968374 3.60233e-10 -8.22726e-12 -5.267e-09 0.968218)
(1.06366 -0.0122511 4.60723e-10 -0.00117789 0.968484 1.73101e-09 -2.1133e-11 2.00077e-09 0.968274)
(1.06369 -0.0143108 -1.82901e-10 -0.00143189 0.968657 -4.54127e-10 -3.95619e-11 1.01519e-08 0.968315)
(1.0637 -0.0160544 -8.18521e-10 -0.00167823 0.968829 -1.88433e-09 -3.03242e-11 1.47271e-09 0.968393)
(1.06373 -0.0172791 -3.02042e-10 -0.00192378 0.969051 -7.51001e-10 -6.25823e-12 -1.04713e-08 0.968453)
(1.06375 -0.0179953 5.88083e-10 -0.00215642 0.96928 9.8218e-10 -2.15586e-11 -1.76955e-09 0.968548)
(1.06377 -0.0179293 -8.08125e-11 -0.00238904 0.969572 -2.049e-10 -6.65452e-11 1.006e-08 0.968628)
(1.06379 -0.0171954 -8.39562e-10 -0.00260267 0.969936 -1.08851e-09 -4.72344e-11 -2.15246e-09 0.968745)
(1.06381 -0.0154008 2.47261e-10 -0.00281872 0.970387 2.43814e-10 -1.88486e-12 -1.02214e-08 0.968858)
(1.06382 -0.012573 8.00273e-10 -0.00300754 0.971003 7.25089e-10 -3.45696e-11 1.76373e-09 0.96901)
(1.06383 -0.00844785 -4.17806e-11 -0.00320254 0.971704 -6.85095e-11 -8.77524e-11 9.86834e-09 0.969179)
(1.06384 -0.00357075 -6.04784e-10 -0.00336486 0.972538 -7.87095e-10 -8.07697e-11 1.54673e-09 0.969384)
(1.06385 0.000252033 -2.97175e-10 -0.00357114 0.972971 -2.09898e-10 -3.14613e-11 -3.14424e-09 0.969613)
(1.06362 -0.00233048 -7.27765e-11 -0.000175519 0.968155 -2.58765e-09 -2.48336e-12 -1.07376e-09 0.96817)
(1.0637 -0.00434486 -2.33867e-10 -0.00040731 0.968176 -6.37157e-11 -6.88394e-12 7.41864e-10 0.968129)
(1.06371 -0.0073245 -1.12957e-10 -0.000661995 0.968235 -1.07746e-09 -9.14294e-12 -7.4564e-10 0.968167)
(1.06372 -0.00985923 1.86328e-10 -0.000918748 0.968345 3.60617e-10 -8.24697e-12 -5.27182e-09 0.968189)
(1.06374 -0.0122628 4.60769e-10 -0.00117262 0.968455 1.73264e-09 -2.11697e-11 2.00256e-09 0.968245)
(1.06376 -0.0143244 -1.83059e-10 -0.00142542 0.968628 -4.5451e-10 -3.96189e-11 1.01612e-08 0.968286)
(1.06378 -0.0160701 -8.18751e-10 -0.00167112 0.9688 -1.8861e-09 -3.03736e-11 1.47405e-09 0.968364)
(1.0638 -0.0172956 -3.02582e-10 -0.00191553 0.969021 -7.51551e-10 -6.28645e-12 -1.0481e-08 0.968424)
(1.06382 -0.0180136 5.87312e-10 -0.00214743 0.969249 9.83543e-10 -2.1604e-11 -1.77123e-09 0.968519)
(1.06385 -0.0179491 -8.09008e-11 -0.00237899 0.969541 -2.05048e-10 -6.66393e-11 1.00695e-08 0.968599)
(1.06387 -0.017215 -8.39493e-10 -0.00259247 0.969905 -1.09007e-09 -4.73194e-11 -2.15453e-09 0.968715)
(1.06388 -0.015422 2.47482e-10 -0.00280755 0.970357 2.43929e-10 -1.91196e-12 -1.02311e-08 0.968828)
(1.06389 -0.012594 8.00797e-10 -0.00299539 0.970973 7.26157e-10 -3.46214e-11 1.7654e-09 0.96898)
(1.0639 -0.0084659 -4.17641e-11 -0.00319117 0.971675 -6.85606e-11 -8.78748e-11 9.87783e-09 0.969149)
(1.0639 -0.00358602 -6.05012e-10 -0.00335322 0.972509 -7.88081e-10 -8.09044e-11 1.54821e-09 0.969354)
(1.06391 0.000238407 -2.97443e-10 -0.00355961 0.972943 -2.10126e-10 -3.15227e-11 -3.14734e-09 0.969584)
(1.06369 -0.00233298 -7.28312e-11 -0.000174716 0.968126 -2.58978e-09 -2.48809e-12 -1.07474e-09 0.968141)
(1.06378 -0.00434921 -2.34078e-10 -0.000405705 0.968146 -6.37073e-11 -6.89639e-12 7.42547e-10 0.968099)
(1.06378 -0.00733192 -1.13024e-10 -0.000659419 0.968205 -1.07842e-09 -9.16007e-12 -7.4637e-10 0.968137)
(1.0638 -0.00986818 1.86468e-10 -0.000915206 0.968315 3.61014e-10 -8.26634e-12 -5.27683e-09 0.968159)
(1.06381 -0.0122745 4.60766e-10 -0.00116815 0.968425 1.73432e-09 -2.1207e-11 2.00443e-09 0.968215)
(1.06383 -0.0143379 -1.83217e-10 -0.00142001 0.968598 -4.54908e-10 -3.96769e-11 1.01709e-08 0.968256)
(1.06385 -0.0160862 -8.18782e-10 -0.00166483 0.968769 -1.8879e-09 -3.04231e-11 1.47543e-09 0.968333)
(1.06388 -0.017313 -3.03171e-10 -0.00190836 0.96899 -7.52196e-10 -6.31287e-12 -1.04911e-08 0.968393)
(1.0639 -0.0180323 5.86638e-10 -0.00214009 0.969218 9.84631e-10 -2.16493e-11 -1.77296e-09 0.968489)
(1.06392 -0.0179691 -8.09939e-11 -0.00237079 0.96951 -2.05213e-10 -6.67348e-11 1.00792e-08 0.968568)
(1.06394 -0.0172346 -8.39506e-10 -0.00258471 0.969874 -1.09119e-09 -4.74044e-11 -2.15666e-09 0.968685)
(1.06395 -0.0154412 2.47891e-10 -0.00279894 0.970326 2.44097e-10 -1.93811e-12 -1.02412e-08 0.968798)
(1.06397 -0.0126124 8.00977e-10 -0.00298663 0.970942 7.27422e-10 -3.46727e-11 1.76712e-09 0.96895)
(1.06397 -0.0084824 -4.1743e-11 -0.00318233 0.971646 -6.861e-11 -8.79982e-11 9.88757e-09 0.969118)
(1.06397 -0.00359899 -6.05389e-10 -0.00334467 0.97248 -7.89043e-10 -8.10396e-11 1.54973e-09 0.969324)
(1.06398 0.000227726 -2.97673e-10 -0.00355117 0.972915 -2.10345e-10 -3.15839e-11 -3.15051e-09 0.969553)
(1.06377 -0.00233552 -7.28882e-11 -0.000174031 0.968096 -2.592e-09 -2.49281e-12 -1.07576e-09 0.968111)
(1.06385 -0.00435365 -2.34281e-10 -0.00040443 0.968115 -6.36961e-11 -6.90894e-12 7.4325e-10 0.968068)
(1.06386 -0.00733949 -1.13087e-10 -0.000657399 0.968174 -1.0794e-09 -9.177e-12 -7.47122e-10 0.968106)
(1.06387 -0.00987741 1.86625e-10 -0.000912412 0.968284 3.61421e-10 -8.28559e-12 -5.28198e-09 0.968128)
(1.06389 -0.0122864 4.60801e-10 -0.00116476 0.968394 1.73605e-09 -2.12447e-11 2.00635e-09 0.968184)
(1.06391 -0.0143516 -1.83382e-10 -0.00141594 0.968566 -4.55316e-10 -3.97349e-11 1.01808e-08 0.968225)
(1.06393 -0.0161021 -8.18969e-10 -0.00166039 0.968738 -1.88977e-09 -3.04725e-11 1.47685e-09 0.968302)
(1.06395 -0.0173297 -3.03734e-10 -0.00190342 0.968958 -7.52855e-10 -6.33977e-12 -1.05014e-08 0.968362)
(1.06397 -0.0180503 5.85936e-10 -0.00213476 0.969187 9.8575e-10 -2.16946e-11 -1.77474e-09 0.968458)
(1.06399 -0.0179884 -8.10825e-11 -0.00236491 0.969479 -2.05382e-10 -6.68306e-11 1.00892e-08 0.968537)
(1.06401 -0.0172537 -8.39389e-10 -0.00257875 0.969843 -1.09226e-09 -4.74893e-11 -2.15884e-09 0.968654)
(1.06403 -0.0154594 2.48393e-10 -0.00279259 0.970294 2.44307e-10 -1.96392e-12 -1.02514e-08 0.968766)
(1.06404 -0.012629 8.0113e-10 -0.00298054 0.970912 7.28512e-10 -3.47238e-11 1.76886e-09 0.968918)
(1.06404 -0.00849732 -4.17193e-11 -0.00317544 0.971616 -6.86623e-11 -8.81226e-11 9.89749e-09 0.969087)
(1.06404 -0.00361033 -6.05819e-10 -0.00333801 0.972451 -7.89964e-10 -8.11754e-11 1.55127e-09 0.969293)
(1.06404 0.000218879 -2.97872e-10 -0.00354457 0.972887 -2.10552e-10 -3.16448e-11 -3.15373e-09 0.969522)
(1.06384 -0.0023381 -7.29387e-11 -0.000173486 0.968065 -2.5943e-09 -2.49753e-12 -1.07681e-09 0.96808)
(1.06392 -0.00435803 -2.34491e-10 -0.000403488 0.968083 -6.3683e-11 -6.92157e-12 7.43969e-10 0.968036)
(1.06393 -0.00734706 -1.13134e-10 -0.00065588 0.968143 -1.08041e-09 -9.19376e-12 -7.47892e-10 0.968074)
(1.06395 -0.00988652 1.86766e-10 -0.000910286 0.968252 3.61829e-10 -8.30473e-12 -5.28725e-09 0.968096)
(1.06396 -0.0122983 4.6076e-10 -0.00116215 0.968362 1.73778e-09 -2.12827e-11 2.00832e-09 0.968153)
(1.06398 -0.0143652 -1.83543e-10 -0.00141273 0.968535 -4.55731e-10 -3.97933e-11 1.01909e-08 0.968193)
(1.064 -0.0161179 -8.19014e-10 -0.00165687 0.968707 -1.89159e-09 -3.05218e-11 1.4783e-09 0.968271)
(1.06403 -0.0173466 -3.04319e-10 -0.00189943 0.968927 -7.53533e-10 -6.36606e-12 -1.05119e-08 0.968331)
(1.06405 -0.0180683 5.85325e-10 -0.00213037 0.969155 9.86808e-10 -2.174e-11 -1.77654e-09 0.968426)
(1.06407 -0.0180074 -8.11687e-11 -0.00236018 0.969447 -2.05557e-10 -6.69275e-11 1.00993e-08 0.968505)
(1.06409 -0.0172728 -8.39226e-10 -0.0025736 0.969811 -1.09327e-09 -4.75742e-11 -2.16105e-09 0.968622)
(1.0641 -0.0154766 2.49029e-10 -0.00278761 0.970262 2.44559e-10 -1.98871e-12 -1.02618e-08 0.968735)
(1.06411 -0.0126438 8.01111e-10 -0.00297588 0.970881 7.29488e-10 -3.4775e-11 1.77063e-09 0.968887)
(1.06411 -0.00851013 -4.1694e-11 -0.00317077 0.971587 -6.8717e-11 -8.82476e-11 9.90756e-09 0.969056)
(1.06411 -0.00361937 -6.0603e-10 -0.00333359 0.972422 -7.90865e-10 -8.13117e-11 1.55283e-09 0.969262)
(1.06411 0.00021173 -2.9806e-10 -0.00353985 0.972859 -2.10766e-10 -3.17055e-11 -3.15699e-09 0.969491)
(1.06392 -0.00234068 -7.30311e-11 -0.000173081 0.968034 -2.59665e-09 -2.50225e-12 -1.07788e-09 0.968048)
(1.064 -0.00436245 -2.34688e-10 -0.000402758 0.968051 -6.36713e-11 -6.93429e-12 7.44699e-10 0.968004)
(1.06401 -0.00735465 -1.1319e-10 -0.000654663 0.96811 -1.08143e-09 -9.21045e-12 -7.48673e-10 0.968042)
(1.06402 -0.00989569 1.86909e-10 -0.000908586 0.96822 3.62244e-10 -8.32376e-12 -5.29261e-09 0.968064)
(1.06404 -0.0123102 4.60756e-10 -0.00115993 0.96833 1.73954e-09 -2.13211e-11 2.01031e-09 0.968121)
(1.06406 -0.0143788 -1.83707e-10 -0.00141003 0.968503 -4.56154e-10 -3.98523e-11 1.02011e-08 0.968161)
(1.06408 -0.0161339 -8.19021e-10 -0.00165355 0.968675 -1.89347e-09 -3.05715e-11 1.47977e-09 0.968239)
(1.0641 -0.0173636 -3.04942e-10 -0.00189584 0.968894 -7.54221e-10 -6.3913e-12 -1.05226e-08 0.968299)
(1.06412 -0.0180859 5.8474e-10 -0.00212686 0.969122 9.87972e-10 -2.17855e-11 -1.77838e-09 0.968394)
(1.06414 -0.0180257 -8.12548e-11 -0.0023568 0.969415 -2.0573e-10 -6.70248e-11 1.01096e-08 0.968473)
(1.06416 -0.0172908 -8.39001e-10 -0.0025704 0.96978 -1.09458e-09 -4.76591e-11 -2.16329e-09 0.96859)
(1.06417 -0.0154929 2.49648e-10 -0.00278503 0.970231 2.44785e-10 -2.01386e-12 -1.02723e-08 0.968703)
(1.06418 -0.0126575 8.01134e-10 -0.00297348 0.970851 7.30477e-10 -3.48261e-11 1.77242e-09 0.968855)
(1.06418 -0.0085214 -4.16682e-11 -0.00316869 0.971557 -6.877e-11 -8.83724e-11 9.9177e-09 0.969024)
(1.06418 -0.0036265 -6.06233e-10 -0.00333154 0.972393 -7.91635e-10 -8.14483e-11 1.5544e-09 0.96923)
(1.06418 0.000206627 -2.98229e-10 -0.00353736 0.97283 -2.10992e-10 -3.17664e-11 -3.16027e-09 0.96946)
(1.06399 -0.00234327 -7.30654e-11 -0.000172766 0.968001 -2.59904e-09 -2.50698e-12 -1.07897e-09 0.968016)
(1.06408 -0.00436687 -2.34903e-10 -0.000402165 0.968019 -6.36622e-11 -6.94705e-12 7.4544e-10 0.967971)
(1.06408 -0.00736232 -1.13242e-10 -0.000653701 0.968078 -1.08247e-09 -9.22712e-12 -7.49466e-10 0.968009)
(1.0641 -0.00990484 1.8705e-10 -0.000907354 0.968187 3.62666e-10 -8.34267e-12 -5.29804e-09 0.968031)
(1.06411 -0.0123222 4.60669e-10 -0.00115838 0.968297 1.74134e-09 -2.13599e-11 2.01233e-09 0.968088)
(1.06413 -0.014392 -1.83873e-10 -0.00140846 0.96847 -4.56582e-10 -3.99114e-11 1.02116e-08 0.968128)
(1.06415 -0.0161493 -8.18882e-10 -0.00165178 0.968642 -1.89544e-09 -3.0621e-11 1.48127e-09 0.968206)
(1.06418 -0.0173805 -3.05551e-10 -0.00189397 0.968862 -7.54944e-10 -6.41688e-12 -1.05334e-08 0.968266)
(1.06419 -0.0181034 5.84206e-10 -0.00212531 0.96909 9.89045e-10 -2.18311e-11 -1.78023e-09 0.968361)
(1.06422 -0.0180436 -8.1341e-11 -0.00235546 0.969384 -2.05904e-10 -6.71217e-11 1.01199e-08 0.968441)
(1.06423 -0.017308 -8.38918e-10 -0.00256969 0.969749 -1.09574e-09 -4.77441e-11 -2.16555e-09 0.968558)
(1.06425 -0.0155076 2.50292e-10 -0.00278436 0.970201 2.44975e-10 -2.03957e-12 -1.02829e-08 0.968671)
(1.06425 -0.0126696 8.01029e-10 -0.00297267 0.970821 7.31479e-10 -3.4877e-11 1.77421e-09 0.968823)
(1.06425 -0.00853171 -4.16366e-11 -0.00316747 0.971528 -6.88226e-11 -8.84979e-11 9.92786e-09 0.968992)
(1.06425 -0.00363301 -6.06416e-10 -0.00332996 0.972364 -7.9241e-10 -8.15852e-11 1.55598e-09 0.969198)
(1.06425 0.000202198 -2.98402e-10 -0.00353567 0.972801 -2.11212e-10 -3.18272e-11 -3.16357e-09 0.969428)
(1.06407 -0.00234589 -7.31507e-11 -0.00017251 0.967969 -2.60147e-09 -2.51171e-12 -1.08008e-09 0.967984)
(1.06415 -0.00437138 -2.35102e-10 -0.000401922 0.967986 -6.36511e-11 -6.95986e-12 7.46187e-10 0.967938)
(1.06416 -0.00737007 -1.1329e-10 -0.000653305 0.968045 -1.08352e-09 -9.24385e-12 -7.50266e-10 0.967976)
(1.06417 -0.00991406 1.87188e-10 -0.000906981 0.968155 3.63091e-10 -8.36181e-12 -5.30351e-09 0.967999)
(1.06419 -0.0123343 4.60607e-10 -0.00115786 0.968265 1.7432e-09 -2.13987e-11 2.01437e-09 0.968055)
(1.06421 -0.014405 -1.84036e-10 -0.0014083 0.968438 -4.57006e-10 -3.99699e-11 1.0222e-08 0.968095)
(1.06423 -0.0161639 -8.18818e-10 -0.00165153 0.96861 -1.89735e-09 -3.06705e-11 1.48276e-09 0.968173)
(1.06425 -0.0173964 -3.06118e-10 -0.00189355 0.96883 -7.55677e-10 -6.44284e-12 -1.05443e-08 0.968233)
(1.06427 -0.01812 5.83657e-10 -0.00212483 0.969059 9.90146e-10 -2.18766e-11 -1.78209e-09 0.968329)
(1.06429 -0.0180606 -8.14222e-11 -0.00235505 0.969353 -2.06078e-10 -6.72197e-11 1.01303e-08 0.968408)
(1.06431 -0.0173249 -8.38504e-10 -0.00256907 0.969718 -1.09679e-09 -4.7829e-11 -2.1678e-09 0.968525)
(1.06432 -0.0155224 2.50994e-10 -0.00278356 0.97017 2.45183e-10 -2.06428e-12 -1.02935e-08 0.968638)
(1.06432 -0.0126811 8.00992e-10 -0.00297217 0.97079 7.32397e-10 -3.49281e-11 1.77601e-09 0.968791)
(1.06432 -0.00854091 -4.16064e-11 -0.00316676 0.971498 -6.88771e-11 -8.86235e-11 9.93805e-09 0.96896)
(1.06432 -0.00363834 -6.06535e-10 -0.00332928 0.972335 -7.93251e-10 -8.17224e-11 1.55756e-09 0.969166)
(1.06431 0.000198653 -2.98548e-10 -0.00353481 0.972772 -2.11434e-10 -3.18879e-11 -3.16687e-09 0.969397)
(1.06414 -0.00234854 -7.32216e-11 -0.000172404 0.967936 -2.60392e-09 -2.51646e-12 -1.0812e-09 0.967951)
(1.06423 -0.00437572 -2.35311e-10 -0.000401899 0.967953 -6.36426e-11 -6.97277e-12 7.46934e-10 0.967905)
(1.06423 -0.00737763 -1.13341e-10 -0.000653213 0.968012 -1.08459e-09 -9.26069e-12 -7.51067e-10 0.967944)
(1.06425 -0.00992295 1.8732e-10 -0.000906893 0.968122 3.63521e-10 -8.38092e-12 -5.30898e-09 0.967966)
(1.06426 -0.012346 4.60455e-10 -0.00115757 0.968232 1.74513e-09 -2.14376e-11 2.01641e-09 0.968022)
(1.06428 -0.014418 -1.84196e-10 -0.00140804 0.968405 -4.57427e-10 -4.00296e-11 1.02325e-08 0.968063)
(1.0643 -0.0161786 -8.18721e-10 -0.00165091 0.968578 -1.89932e-09 -3.07202e-11 1.48426e-09 0.968141)
(1.06432 -0.0174123 -3.06701e-10 -0.00189316 0.968798 -7.56419e-10 -6.46821e-12 -1.05552e-08 0.968201)
(1.06434 -0.0181364 5.83123e-10 -0.00212426 0.969027 9.9127e-10 -2.19223e-11 -1.78395e-09 0.968296)
(1.06436 -0.0180773 -8.15018e-11 -0.00235499 0.969321 -2.06249e-10 -6.73178e-11 1.01407e-08 0.968376)
(1.06438 -0.0173415 -8.38139e-10 -0.00256894 0.969687 -1.09798e-09 -4.79139e-11 -2.17006e-09 0.968493)
(1.06439 -0.0155365 2.51714e-10 -0.00278378 0.970139 2.45431e-10 -2.08931e-12 -1.03041e-08 0.968606)
(1.0644 -0.0126919 8.0089e-10 -0.00297269 0.97076 7.33258e-10 -3.49792e-11 1.7778e-09 0.968759)
(1.06439 -0.00854896 -4.15757e-11 -0.00316767 0.971468 -6.8931e-11 -8.87489e-11 9.94825e-09 0.968928)
(1.06439 -0.00364213 -6.06559e-10 -0.00333034 0.972305 -7.93965e-10 -8.18596e-11 1.55914e-09 0.969135)
(1.06438 0.000196524 -2.98694e-10 -0.00353555 0.972743 -2.11665e-10 -3.19489e-11 -3.17017e-09 0.969365)
(1.06422 -0.00235113 -7.32634e-11 -0.000172391 0.967903 -2.60637e-09 -2.52123e-12 -1.08231e-09 0.967918)
(1.0643 -0.00438016 -2.35514e-10 -0.000401932 0.96792 -6.36379e-11 -6.9857e-12 7.47682e-10 0.967872)
(1.06431 -0.00738532 -1.13382e-10 -0.000653318 0.967979 -1.08565e-09 -9.27764e-12 -7.51869e-10 0.967911)
(1.06432 -0.00993197 1.87444e-10 -0.000907067 0.968089 3.63957e-10 -8.40002e-12 -5.31446e-09 0.967933)
(1.06434 -0.0123578 4.60332e-10 -0.00115788 0.9682 1.74707e-09 -2.14767e-11 2.01845e-09 0.967989)
(1.06436 -0.0144313 -1.84362e-10 -0.00140838 0.968373 -4.57851e-10 -4.00898e-11 1.0243e-08 0.96803)
(1.06438 -0.016193 -8.18843e-10 -0.00165154 0.968545 -1.9014e-09 -3.07699e-11 1.48576e-09 0.968108)
(1.0644 -0.0174273 -3.07232e-10 -0.00189413 0.968766 -7.57102e-10 -6.49484e-12 -1.05661e-08 0.968168)
(1.06442 -0.0181522 5.82564e-10 -0.00212542 0.968995 9.92636e-10 -2.19683e-11 -1.78581e-09 0.968264)
(1.06444 -0.0180934 -8.1579e-11 -0.00235652 0.96929 -2.06412e-10 -6.74147e-11 1.01511e-08 0.968344)
(1.06445 -0.0173569 -8.37916e-10 -0.00257102 0.969657 -1.09918e-09 -4.79991e-11 -2.17232e-09 0.968461)
(1.06447 -0.0155495 2.52357e-10 -0.0027859 0.970108 2.4563e-10 -2.11545e-12 -1.03146e-08 0.968574)
(1.06447 -0.0127021 8.00782e-10 -0.00297451 0.97073 7.34179e-10 -3.50301e-11 1.77959e-09 0.968727)
(1.06446 -0.00855682 -4.15423e-11 -0.00316926 0.971439 -6.89833e-11 -8.88745e-11 9.9584e-09 0.968897)
(1.06446 -0.00364602 -6.06619e-10 -0.00333147 0.972276 -7.94672e-10 -8.19969e-11 1.56072e-09 0.969103)
(1.06445 0.000194504 -2.98848e-10 -0.00353649 0.972714 -2.11891e-10 -3.201e-11 -3.17346e-09 0.969334)
(1.06429 -0.0023538 -7.33451e-11 -0.000172407 0.96787 -2.60883e-09 -2.52601e-12 -1.08343e-09 0.967885)
(1.06438 -0.00438457 -2.35708e-10 -0.000402321 0.967887 -6.36233e-11 -6.99864e-12 7.48428e-10 0.96784)
(1.06438 -0.00739299 -1.13423e-10 -0.000653963 0.967947 -1.08671e-09 -9.2947e-12 -7.52668e-10 0.967878)
(1.0644 -0.00994085 1.87567e-10 -0.000908122 0.968056 3.64383e-10 -8.41951e-12 -5.31991e-09 0.9679)
(1.06441 -0.0123694 4.60158e-10 -0.00115921 0.968167 1.74896e-09 -2.15157e-11 2.02048e-09 0.967957)
(1.06443 -0.0144438 -1.84523e-10 -0.00141031 0.968341 -4.58269e-10 -4.01489e-11 1.02534e-08 0.967997)
(1.06445 -0.0162065 -8.18715e-10 -0.00165385 0.968513 -1.90334e-09 -3.08198e-11 1.48725e-09 0.968075)
(1.06447 -0.0174419 -3.07789e-10 -0.00189637 0.968734 -7.57816e-10 -6.5227e-12 -1.05768e-08 0.968136)
(1.06449 -0.0181672 5.82055e-10 -0.00212779 0.968964 9.93812e-10 -2.20141e-11 -1.78766e-09 0.968231)
(1.06451 -0.0181093 -8.16421e-11 -0.00235857 0.96926 -2.0658e-10 -6.75116e-11 1.01613e-08 0.968311)
(1.06453 -0.0173731 -8.37662e-10 -0.00257271 0.969626 -1.10015e-09 -4.80851e-11 -2.17455e-09 0.968429)
(1.06454 -0.0155625 2.53119e-10 -0.00278755 0.970078 2.45841e-10 -2.14012e-12 -1.03251e-08 0.968542)
(1.06454 -0.0127117 8.00582e-10 -0.00297613 0.970699 7.35065e-10 -3.50812e-11 1.78137e-09 0.968695)
(1.06454 -0.00856393 -4.15092e-11 -0.00317073 0.971409 -6.90371e-11 -8.90001e-11 9.96852e-09 0.968865)
(1.06453 -0.00364911 -6.06582e-10 -0.00333281 0.972246 -7.95471e-10 -8.21343e-11 1.56229e-09 0.969072)
(1.06453 0.000192806 -2.98977e-10 -0.00353758 0.972684 -2.12123e-10 -3.2071e-11 -3.17675e-09 0.969302)
(1.06437 -0.00235645 -7.34071e-11 -0.000172571 0.967837 -2.61128e-09 -2.53083e-12 -1.08455e-09 0.967852)
(1.06445 -0.00438881 -2.35905e-10 -0.000402839 0.967855 -6.3617e-11 -7.01163e-12 7.49164e-10 0.967807)
(1.06446 -0.00740049 -1.13443e-10 -0.000654778 0.967915 -1.08777e-09 -9.31188e-12 -7.53457e-10 0.967845)
(1.06447 -0.00994965 1.87688e-10 -0.00090917 0.968024 3.64815e-10 -8.43903e-12 -5.32529e-09 0.967868)
(1.06448 -0.012381 4.59972e-10 -0.00116054 0.968136 1.75094e-09 -2.15547e-11 2.02249e-09 0.967924)
(1.06451 -0.0144569 -1.84684e-10 -0.00141176 0.968309 -4.58678e-10 -4.02089e-11 1.02636e-08 0.967965)
(1.06452 -0.0162205 -8.18882e-10 -0.00165555 0.968481 -1.90529e-09 -3.08702e-11 1.48873e-09 0.968043)
(1.06455 -0.0174561 -3.08318e-10 -0.00189846 0.968702 -7.58518e-10 -6.5503e-12 -1.05875e-08 0.968103)
(1.06456 -0.0181818 5.815e-10 -0.00212997 0.968933 9.9501e-10 -2.20603e-11 -1.78949e-09 0.968199)
(1.06458 -0.0181246 -8.17093e-11 -0.00236085 0.969228 -2.06747e-10 -6.76087e-11 1.01716e-08 0.968279)
(1.0646 -0.0173888 -8.3728e-10 -0.00257469 0.969595 -1.10149e-09 -4.81713e-11 -2.17678e-09 0.968397)
(1.06461 -0.0155756 2.53833e-10 -0.00278992 0.970047 2.46043e-10 -2.16471e-12 -1.03355e-08 0.96851)
(1.06461 -0.0127215 8.00425e-10 -0.00297833 0.970669 7.35956e-10 -3.51327e-11 1.78314e-09 0.968663)
(1.06461 -0.00857097 -4.14768e-11 -0.00317307 0.971379 -6.90899e-11 -8.91259e-11 9.9786e-09 0.968833)
(1.0646 -0.00365158 -6.06605e-10 -0.00333518 0.972216 -7.96146e-10 -8.22716e-11 1.56385e-09 0.96904)
(1.0646 0.000192064 -2.99106e-10 -0.00353976 0.972654 -2.12356e-10 -3.21325e-11 -3.18002e-09 0.969271)
(1.06444 -0.00235904 -7.34602e-11 -0.000172793 0.967805 -2.61369e-09 -2.53566e-12 -1.08565e-09 0.967819)
(1.06452 -0.00439311 -2.36104e-10 -0.000403474 0.967823 -6.36049e-11 -7.02461e-12 7.49895e-10 0.967775)
(1.06453 -0.00740805 -1.1347e-10 -0.00065584 0.967883 -1.08881e-09 -9.32918e-12 -7.5424e-10 0.967813)
(1.06454 -0.00995841 1.87804e-10 -0.000910595 0.967992 3.65233e-10 -8.45867e-12 -5.33065e-09 0.967836)
(1.06456 -0.0123924 4.59796e-10 -0.00116242 0.968104 1.75276e-09 -2.15936e-11 2.02448e-09 0.967892)
(1.06458 -0.0144697 -1.84844e-10 -0.00141385 0.968277 -4.59093e-10 -4.02686e-11 1.02739e-08 0.967933)
(1.0646 -0.0162345 -8.18913e-10 -0.00165803 0.96845 -1.90723e-09 -3.09206e-11 1.49019e-09 0.968011)
(1.06462 -0.0174705 -3.08883e-10 -0.00190125 0.968671 -7.59186e-10 -6.57805e-12 -1.05981e-08 0.968072)
(1.06464 -0.0181966 5.80976e-10 -0.00213299 0.968901 9.96182e-10 -2.21071e-11 -1.7913e-09 0.968167)
(1.06466 -0.0181402 -8.17715e-11 -0.00236403 0.969198 -2.06911e-10 -6.77063e-11 1.01817e-08 0.968248)
(1.06467 -0.017404 -8.37169e-10 -0.00257797 0.969565 -1.10271e-09 -4.82574e-11 -2.17899e-09 0.968365)
(1.06468 -0.0155877 2.54533e-10 -0.00279318 0.970016 2.46188e-10 -2.19092e-12 -1.03459e-08 0.968479)
(1.06468 -0.0127305 8.00213e-10 -0.00298125 0.970639 7.36922e-10 -3.51842e-11 1.7849e-09 0.968632)
(1.06468 -0.00857766 -4.14423e-11 -0.00317572 0.971349 -6.91428e-11 -8.92515e-11 9.98861e-09 0.968802)
(1.06467 -0.00365438 -6.06556e-10 -0.00333739 0.972186 -7.96881e-10 -8.2409e-11 1.56541e-09 0.969009)