/*--------------------------------*- C++ -*----------------------------------*\
| =========                 |                                                 |
| \\      /  F ield         | foam-extend: Open Source CFD                    |
|  \\    /   O peration     | Version:     4.1-20200408                       |
|   \\  /    A nd           | Web:         http://www.foam-extend.org         |
|    \\/     M anipulation  |                                                 |
\*---------------------------------------------------------------------------*/
FoamFile
{
    version     2.0;
    format      ascii;
    class       volVectorField;
    location    "0.0725000";
    object      U_0_0;
}
// * * * * * * * * * * * * * * * * * * * * * * * * * * * * * * * * * * * * * //

dimensions      [0 1 0 0 0 0 0];

internalField   nonuniform List<vector> 
1952
(
(0.0695569 -3.60699e-06 0)
(0.0695565 -5.86745e-06 0)
(0.069556 -8.15446e-06 0)
(0.0695553 -1.04378e-05 0)
(0.0695545 -1.27219e-05 0)
(0.0695536 -1.49882e-05 0)
(0.0695526 -1.72541e-05 0)
(0.0695515 -1.94943e-05 0)
(0.0695504 -2.17311e-05 0)
(0.0695493 -2.39359e-05 0)
(0.0695483 -2.61297e-05 0)
(0.0695474 -2.82857e-05 0)
(0.0695467 -3.04087e-05 0)
(0.0695463 -3.24968e-05 0)
(0.0695462 -3.45563e-05 0)
(0.069557 -1.54579e-06 0)
(0.0695523 -3.60914e-06 0)
(0.0695519 -5.87097e-06 0)
(0.0695514 -8.15936e-06 0)
(0.0695507 -1.04441e-05 0)
(0.0695499 -1.27297e-05 0)
(0.0695489 -1.49975e-05 0)
(0.0695479 -1.72648e-05 0)
(0.0695468 -1.95067e-05 0)
(0.0695457 -2.1745e-05 0)
(0.0695446 -2.39516e-05 0)
(0.0695436 -2.6147e-05 0)
(0.0695427 -2.83049e-05 0)
(0.069542 -3.04296e-05 0)
(0.0695417 -3.25196e-05 0)
(0.0695415 -3.45806e-05 0)
(0.0695524 -1.54671e-06 0)
(0.0695476 -3.61153e-06 0)
(0.0695472 -5.87486e-06 0)
(0.0695467 -8.16478e-06 0)
(0.069546 -1.04511e-05 0)
(0.0695452 -1.27382e-05 0)
(0.0695443 -1.50077e-05 0)
(0.0695433 -1.72766e-05 0)
(0.0695422 -1.95202e-05 0)
(0.0695411 -2.17603e-05 0)
(0.06954 -2.39686e-05 0)
(0.0695389 -2.61658e-05 0)
(0.0695381 -2.83256e-05 0)
(0.0695374 -3.0452e-05 0)
(0.069537 -3.25437e-05 0)
(0.0695369 -3.46064e-05 0)
(0.0695477 -1.54774e-06 0)
(0.069543 -3.61411e-06 0)
(0.0695426 -5.87907e-06 0)
(0.0695421 -8.17064e-06 0)
(0.0695414 -1.04587e-05 0)
(0.0695406 -1.27475e-05 0)
(0.0695396 -1.50186e-05 0)
(0.0695386 -1.72893e-05 0)
(0.0695375 -1.95347e-05 0)
(0.0695364 -2.17765e-05 0)
(0.0695353 -2.39867e-05 0)
(0.0695343 -2.61856e-05 0)
(0.0695334 -2.83472e-05 0)
(0.0695327 -3.04753e-05 0)
(0.0695323 -3.25688e-05 0)
(0.0695322 -3.46331e-05 0)
(0.0695431 -1.54884e-06 0)
(0.0695383 -3.61683e-06 0)
(0.0695379 -5.88351e-06 0)
(0.0695374 -8.17683e-06 0)
(0.0695367 -1.04666e-05 0)
(0.0695359 -1.27572e-05 0)
(0.069535 -1.50302e-05 0)
(0.0695339 -1.73026e-05 0)
(0.0695329 -1.95499e-05 0)
(0.0695317 -2.17934e-05 0)
(0.0695307 -2.40055e-05 0)
(0.0695296 -2.62062e-05 0)
(0.0695288 -2.83696e-05 0)
(0.069528 -3.04994e-05 0)
(0.0695277 -3.25947e-05 0)
(0.0695275 -3.46605e-05 0)
(0.0695384 -1.55001e-06 0)
(0.0695336 -3.61968e-06 0)
(0.0695333 -5.88815e-06 0)
(0.0695327 -8.18327e-06 0)
(0.069532 -1.04749e-05 0)
(0.0695312 -1.27673e-05 0)
(0.0695303 -1.50421e-05 0)
(0.0695293 -1.73164e-05 0)
(0.0695282 -1.95655e-05 0)
(0.0695271 -2.18108e-05 0)
(0.069526 -2.40248e-05 0)
(0.069525 -2.62273e-05 0)
(0.0695241 -2.83925e-05 0)
(0.0695234 -3.0524e-05 0)
(0.069523 -3.26209e-05 0)
(0.0695229 -3.46884e-05 0)
(0.0695338 -1.55123e-06 0)
(0.069529 -3.62259e-06 0)
(0.0695286 -5.8929e-06 0)
(0.0695281 -8.18988e-06 0)
(0.0695274 -1.04834e-05 0)
(0.0695266 -1.27776e-05 0)
(0.0695256 -1.50544e-05 0)
(0.0695246 -1.73305e-05 0)
(0.0695235 -1.95815e-05 0)
(0.0695224 -2.18286e-05 0)
(0.0695213 -2.40445e-05 0)
(0.0695203 -2.62486e-05 0)
(0.0695194 -2.84156e-05 0)
(0.0695187 -3.05489e-05 0)
(0.0695183 -3.26475e-05 0)
(0.0695182 -3.47166e-05 0)
(0.0695291 -1.55248e-06 0)
(0.0695243 -3.62557e-06 0)
(0.0695239 -5.89775e-06 0)
(0.0695234 -8.19662e-06 0)
(0.0695227 -1.0492e-05 0)
(0.0695219 -1.27881e-05 0)
(0.069521 -1.50668e-05 0)
(0.0695199 -1.73448e-05 0)
(0.0695189 -1.95976e-05 0)
(0.0695177 -2.18466e-05 0)
(0.0695166 -2.40643e-05 0)
(0.0695156 -2.62702e-05 0)
(0.0695147 -2.8439e-05 0)
(0.069514 -3.05739e-05 0)
(0.0695136 -3.26743e-05 0)
(0.0695135 -3.47451e-05 0)
(0.0695244 -1.55376e-06 0)
(0.0695196 -3.62857e-06 0)
(0.0695193 -5.90262e-06 0)
(0.0695187 -8.20339e-06 0)
(0.069518 -1.05007e-05 0)
(0.0695172 -1.27987e-05 0)
(0.0695163 -1.50793e-05 0)
(0.0695153 -1.73591e-05 0)
(0.0695142 -1.96139e-05 0)
(0.0695131 -2.18646e-05 0)
(0.069512 -2.40842e-05 0)
(0.0695109 -2.62919e-05 0)
(0.0695101 -2.84625e-05 0)
(0.0695093 -3.05991e-05 0)
(0.069509 -3.27012e-05 0)
(0.0695088 -3.47737e-05 0)
(0.0695198 -1.55504e-06 0)
(0.069515 -3.63158e-06 0)
(0.0695146 -5.90752e-06 0)
(0.0695141 -8.21019e-06 0)
(0.0695134 -1.05094e-05 0)
(0.0695126 -1.28093e-05 0)
(0.0695116 -1.50918e-05 0)
(0.0695106 -1.73735e-05 0)
(0.0695095 -1.96301e-05 0)
(0.0695084 -2.18826e-05 0)
(0.0695073 -2.41041e-05 0)
(0.0695062 -2.63135e-05 0)
(0.0695054 -2.8486e-05 0)
(0.0695047 -3.06243e-05 0)
(0.0695043 -3.27282e-05 0)
(0.0695041 -3.48024e-05 0)
(0.0695151 -1.55633e-06 0)
(0.0695103 -3.63458e-06 0)
(0.0695099 -5.9124e-06 0)
(0.0695094 -8.21697e-06 0)
(0.0695087 -1.05181e-05 0)
(0.0695079 -1.28198e-05 0)
(0.0695069 -1.51042e-05 0)
(0.0695059 -1.73878e-05 0)
(0.0695048 -1.96464e-05 0)
(0.0695037 -2.19007e-05 0)
(0.0695026 -2.4124e-05 0)
(0.0695016 -2.63352e-05 0)
(0.0695007 -2.85095e-05 0)
(0.0695 -3.06495e-05 0)
(0.0694996 -3.27552e-05 0)
(0.0694994 -3.48311e-05 0)
(0.0695104 -1.55762e-06 0)
(0.0695056 -3.63756e-06 0)
(0.0695052 -5.91726e-06 0)
(0.0695047 -8.22371e-06 0)
(0.069504 -1.05267e-05 0)
(0.0695032 -1.28303e-05 0)
(0.0695022 -1.51167e-05 0)
(0.0695012 -1.74021e-05 0)
(0.0695001 -1.96626e-05 0)
(0.069499 -2.19186e-05 0)
(0.0694979 -2.41439e-05 0)
(0.0694969 -2.63568e-05 0)
(0.069496 -2.85329e-05 0)
(0.0694953 -3.06746e-05 0)
(0.0694949 -3.2782e-05 0)
(0.0694948 -3.48597e-05 0)
(0.0695057 -1.5589e-06 0)
(0.0695009 -3.64054e-06 0)
(0.0695005 -5.92211e-06 0)
(0.0695 -8.23044e-06 0)
(0.0694993 -1.05353e-05 0)
(0.0694985 -1.28408e-05 0)
(0.0694975 -1.51291e-05 0)
(0.0694965 -1.74163e-05 0)
(0.0694954 -1.96786e-05 0)
(0.0694943 -2.19365e-05 0)
(0.0694932 -2.41636e-05 0)
(0.0694922 -2.63782e-05 0)
(0.0694913 -2.85561e-05 0)
(0.0694906 -3.06997e-05 0)
(0.0694902 -3.28089e-05 0)
(0.0694901 -3.48883e-05 0)
(0.069501 -1.56017e-06 0)
(0.0694962 -3.64348e-06 0)
(0.0694958 -5.9269e-06 0)
(0.0694953 -8.23708e-06 0)
(0.0694946 -1.05438e-05 0)
(0.0694938 -1.28512e-05 0)
(0.0694928 -1.51413e-05 0)
(0.0694918 -1.74303e-05 0)
(0.0694907 -1.96946e-05 0)
(0.0694896 -2.19542e-05 0)
(0.0694885 -2.41832e-05 0)
(0.0694875 -2.63996e-05 0)
(0.0694866 -2.85793e-05 0)
(0.0694859 -3.07246e-05 0)
(0.0694855 -3.28356e-05 0)
(0.0694854 -3.49168e-05 0)
(0.0694963 -1.56143e-06 0)
(0.0694915 -3.6464e-06 0)
(0.0694911 -5.93165e-06 0)
(0.0694906 -8.24367e-06 0)
(0.0694899 -1.05523e-05 0)
(0.0694891 -1.28614e-05 0)
(0.0694881 -1.51535e-05 0)
(0.0694871 -1.74443e-05 0)
(0.069486 -1.97104e-05 0)
(0.0694849 -2.19717e-05 0)
(0.0694838 -2.42027e-05 0)
(0.0694828 -2.64207e-05 0)
(0.0694819 -2.86024e-05 0)
(0.0694812 -3.07494e-05 0)
(0.0694808 -3.28622e-05 0)
(0.0694806 -3.49452e-05 0)
(0.0694916 -1.56269e-06 0)
(0.0694868 -3.64928e-06 0)
(0.0694864 -5.93634e-06 0)
(0.0694859 -8.25018e-06 0)
(0.0694852 -1.05607e-05 0)
(0.0694844 -1.28716e-05 0)
(0.0694834 -1.51655e-05 0)
(0.0694824 -1.7458e-05 0)
(0.0694813 -1.97261e-05 0)
(0.0694802 -2.19891e-05 0)
(0.0694791 -2.4222e-05 0)
(0.0694781 -2.64418e-05 0)
(0.0694772 -2.86253e-05 0)
(0.0694765 -3.0774e-05 0)
(0.0694761 -3.28887e-05 0)
(0.0694759 -3.49735e-05 0)
(0.0694869 -1.56392e-06 0)
(0.0694821 -3.65212e-06 0)
(0.0694817 -5.94097e-06 0)
(0.0694812 -8.2566e-06 0)
(0.0694805 -1.05689e-05 0)
(0.0694797 -1.28816e-05 0)
(0.0694787 -1.51774e-05 0)
(0.0694777 -1.74717e-05 0)
(0.0694766 -1.97416e-05 0)
(0.0694755 -2.20064e-05 0)
(0.0694744 -2.42411e-05 0)
(0.0694733 -2.64627e-05 0)
(0.0694725 -2.8648e-05 0)
(0.0694718 -3.07985e-05 0)
(0.0694714 -3.2915e-05 0)
(0.0694712 -3.50016e-05 0)
(0.0694822 -1.56514e-06 0)
(0.0694774 -3.65492e-06 0)
(0.069477 -5.94554e-06 0)
(0.0694765 -8.26295e-06 0)
(0.0694758 -1.05771e-05 0)
(0.069475 -1.28915e-05 0)
(0.069474 -1.51892e-05 0)
(0.069473 -1.74852e-05 0)
(0.0694719 -1.9757e-05 0)
(0.0694708 -2.20235e-05 0)
(0.0694697 -2.42601e-05 0)
(0.0694686 -2.64833e-05 0)
(0.0694677 -2.86705e-05 0)
(0.069467 -3.08228e-05 0)
(0.0694666 -3.29411e-05 0)
(0.0694665 -3.50296e-05 0)
(0.0694775 -1.56634e-06 0)
(0.0694727 -3.65769e-06 0)
(0.0694723 -5.95006e-06 0)
(0.0694718 -8.26922e-06 0)
(0.0694711 -1.05851e-05 0)
(0.0694702 -1.29013e-05 0)
(0.0694693 -1.52008e-05 0)
(0.0694683 -1.74985e-05 0)
(0.0694672 -1.97722e-05 0)
(0.0694661 -2.20403e-05 0)
(0.069465 -2.42789e-05 0)
(0.0694639 -2.65038e-05 0)
(0.069463 -2.86928e-05 0)
(0.0694623 -3.08469e-05 0)
(0.0694619 -3.29671e-05 0)
(0.0694618 -3.50574e-05 0)
(0.0694728 -1.56753e-06 0)
(0.0694679 -3.66042e-06 0)
(0.0694676 -5.9545e-06 0)
(0.069467 -8.27537e-06 0)
(0.0694663 -1.0593e-05 0)
(0.0694655 -1.29109e-05 0)
(0.0694646 -1.52122e-05 0)
(0.0694636 -1.75116e-05 0)
(0.0694625 -1.97872e-05 0)
(0.0694613 -2.20569e-05 0)
(0.0694602 -2.42974e-05 0)
(0.0694592 -2.6524e-05 0)
(0.0694583 -2.8715e-05 0)
(0.0694576 -3.08708e-05 0)
(0.0694572 -3.29929e-05 0)
(0.0694571 -3.5085e-05 0)
(0.0694681 -1.5687e-06 0)
(0.0694632 -3.6631e-06 0)
(0.0694628 -5.95888e-06 0)
(0.0694623 -8.28144e-06 0)
(0.0694616 -1.06009e-05 0)
(0.0694608 -1.29204e-05 0)
(0.0694598 -1.52235e-05 0)
(0.0694588 -1.75245e-05 0)
(0.0694577 -1.98019e-05 0)
(0.0694566 -2.20734e-05 0)
(0.0694555 -2.43158e-05 0)
(0.0694545 -2.6544e-05 0)
(0.0694536 -2.87369e-05 0)
(0.0694529 -3.08945e-05 0)
(0.0694525 -3.30185e-05 0)
(0.0694523 -3.51126e-05 0)
(0.0694634 -1.56985e-06 0)
(0.0694585 -3.66574e-06 0)
(0.0694581 -5.96317e-06 0)
(0.0694576 -8.2874e-06 0)
(0.0694569 -1.06085e-05 0)
(0.0694561 -1.29297e-05 0)
(0.0694551 -1.52347e-05 0)
(0.0694541 -1.75373e-05 0)
(0.069453 -1.98166e-05 0)
(0.0694519 -2.20896e-05 0)
(0.0694508 -2.43339e-05 0)
(0.0694497 -2.65638e-05 0)
(0.0694488 -2.87587e-05 0)
(0.0694481 -3.0918e-05 0)
(0.0694477 -3.3044e-05 0)
(0.0694476 -3.51399e-05 0)
(0.0694586 -1.57098e-06 0)
(0.0694538 -3.66834e-06 0)
(0.0694534 -5.96742e-06 0)
(0.0694529 -8.29329e-06 0)
(0.0694522 -1.06161e-05 0)
(0.0694513 -1.29389e-05 0)
(0.0694504 -1.52456e-05 0)
(0.0694494 -1.75499e-05 0)
(0.0694483 -1.9831e-05 0)
(0.0694471 -2.21057e-05 0)
(0.069446 -2.43519e-05 0)
(0.069445 -2.65835e-05 0)
(0.0694441 -2.87803e-05 0)
(0.0694434 -3.09415e-05 0)
(0.069443 -3.30694e-05 0)
(0.0694429 -3.5167e-05 0)
(0.0694539 -1.5721e-06 0)
(0.069449 -3.67092e-06 0)
(0.0694486 -5.97163e-06 0)
(0.0694481 -8.29912e-06 0)
(0.0694474 -1.06237e-05 0)
(0.0694466 -1.2948e-05 0)
(0.0694457 -1.52566e-05 0)
(0.0694446 -1.75624e-05 0)
(0.0694435 -1.98454e-05 0)
(0.0694424 -2.21216e-05 0)
(0.0694413 -2.43698e-05 0)
(0.0694402 -2.6603e-05 0)
(0.0694394 -2.88018e-05 0)
(0.0694386 -3.09647e-05 0)
(0.0694383 -3.30945e-05 0)
(0.0694381 -3.51938e-05 0)
(0.0694492 -1.5732e-06 0)
(0.0694443 -3.6735e-06 0)
(0.0694439 -5.97584e-06 0)
(0.0694434 -8.30494e-06 0)
(0.0694427 -1.06312e-05 0)
(0.0694419 -1.29571e-05 0)
(0.0694409 -1.52674e-05 0)
(0.0694399 -1.75748e-05 0)
(0.0694388 -1.98596e-05 0)
(0.0694377 -2.21374e-05 0)
(0.0694366 -2.43875e-05 0)
(0.0694355 -2.66224e-05 0)
(0.0694346 -2.8823e-05 0)
(0.0694339 -3.09875e-05 0)
(0.0694335 -3.31191e-05 0)
(0.0694334 -3.52201e-05 0)
(0.0694444 -1.57431e-06 0)
(0.0694396 -3.67608e-06 0)
(0.0694392 -5.98005e-06 0)
(0.0694387 -8.31077e-06 0)
(0.0694379 -1.06387e-05 0)
(0.0694371 -1.29662e-05 0)
(0.0694362 -1.52783e-05 0)
(0.0694351 -1.75872e-05 0)
(0.069434 -1.98739e-05 0)
(0.0694329 -2.21532e-05 0)
(0.0694318 -2.4405e-05 0)
(0.0694308 -2.66413e-05 0)
(0.0694299 -2.88437e-05 0)
(0.0694292 -3.10097e-05 0)
(0.0694288 -3.3143e-05 0)
(0.0694286 -3.52456e-05 0)
(0.0694397 -1.57542e-06 0)
(0.0694348 -3.67873e-06 0)
(0.0694344 -5.98437e-06 0)
(0.0694339 -8.3167e-06 0)
(0.0694332 -1.06464e-05 0)
(0.0694324 -1.29754e-05 0)
(0.0694314 -1.52892e-05 0)
(0.0694304 -1.75994e-05 0)
(0.0694293 -1.98878e-05 0)
(0.0694282 -2.21684e-05 0)
(0.0694271 -2.4422e-05 0)
(0.069426 -2.66597e-05 0)
(0.0694251 -2.88638e-05 0)
(0.0694244 -3.10314e-05 0)
(0.069424 -3.31664e-05 0)
(0.0694239 -3.52704e-05 0)
(0.0694349 -1.57655e-06 0)
(0.0694301 -3.68138e-06 0)
(0.0694297 -5.98866e-06 0)
(0.0694292 -8.3226e-06 0)
(0.0694285 -1.06539e-05 0)
(0.0694276 -1.29844e-05 0)
(0.0694267 -1.52999e-05 0)
(0.0694256 -1.76115e-05 0)
(0.0694245 -1.99015e-05 0)
(0.0694234 -2.21834e-05 0)
(0.0694223 -2.44387e-05 0)
(0.0694213 -2.66778e-05 0)
(0.0694204 -2.88835e-05 0)
(0.0694196 -3.10525e-05 0)
(0.0694192 -3.3189e-05 0)
(0.0694191 -3.52944e-05 0)
(0.0694302 -1.57769e-06 0)
(0.0694253 -3.68407e-06 0)
(0.0694249 -5.99303e-06 0)
(0.0694244 -8.32857e-06 0)
(0.0694237 -1.06616e-05 0)
(0.0694229 -1.29934e-05 0)
(0.0694219 -1.53107e-05 0)
(0.0694209 -1.76235e-05 0)
(0.0694198 -1.99153e-05 0)
(0.0694187 -2.21983e-05 0)
(0.0694175 -2.44551e-05 0)
(0.0694165 -2.66953e-05 0)
(0.0694156 -2.89025e-05 0)
(0.0694149 -3.10727e-05 0)
(0.0694145 -3.32107e-05 0)
(0.0694143 -3.53173e-05 0)
(0.0694255 -1.57884e-06 0)
(0.0694206 -3.68683e-06 0)
(0.0694202 -5.99752e-06 0)
(0.0694197 -8.33469e-06 0)
(0.0694189 -1.06695e-05 0)
(0.0694181 -1.30027e-05 0)
(0.0694172 -1.53216e-05 0)
(0.0694161 -1.76356e-05 0)
(0.069415 -1.99289e-05 0)
(0.0694139 -2.22129e-05 0)
(0.0694128 -2.44711e-05 0)
(0.0694117 -2.67124e-05 0)
(0.0694108 -2.89208e-05 0)
(0.0694101 -3.10922e-05 0)
(0.0694097 -3.32315e-05 0)
(0.0694096 -3.53394e-05 0)
(0.0694207 -1.58003e-06 0)
(0.0694158 -3.68971e-06 0)
(0.0694154 -6.00217e-06 0)
(0.0694149 -8.34101e-06 0)
(0.0694142 -1.06775e-05 0)
(0.0694134 -1.30122e-05 0)
(0.0694124 -1.53327e-05 0)
(0.0694114 -1.76478e-05 0)
(0.0694103 -1.99425e-05 0)
(0.0694091 -2.22274e-05 0)
(0.069408 -2.4487e-05 0)
(0.069407 -2.67291e-05 0)
(0.0694061 -2.89387e-05 0)
(0.0694054 -3.11111e-05 0)
(0.069405 -3.32515e-05 0)
(0.0694048 -3.53608e-05 0)
(0.0694159 -1.58127e-06 0)
(0.069411 -3.69278e-06 0)
(0.0694107 -6.00713e-06 0)
(0.0694101 -8.34772e-06 0)
(0.0694094 -1.0686e-05 0)
(0.0694086 -1.30221e-05 0)
(0.0694076 -1.53443e-05 0)
(0.0694066 -1.76604e-05 0)
(0.0694055 -1.99566e-05 0)
(0.0694044 -2.22422e-05 0)
(0.0694033 -2.4503e-05 0)
(0.0694022 -2.67457e-05 0)
(0.0694013 -2.89565e-05 0)
(0.0694006 -3.11297e-05 0)
(0.0694002 -3.32712e-05 0)
(0.0694 -3.53817e-05 0)
(0.0694112 -1.58258e-06 0)
(0.0694063 -3.69612e-06 0)
(0.0694059 -6.01252e-06 0)
(0.0694054 -8.355e-06 0)
(0.0694047 -1.06953e-05 0)
(0.0694038 -1.30328e-05 0)
(0.0694029 -1.53567e-05 0)
(0.0694019 -1.76738e-05 0)
(0.0694007 -1.99715e-05 0)
(0.0693996 -2.22577e-05 0)
(0.0693985 -2.45197e-05 0)
(0.0693974 -2.67629e-05 0)
(0.0693965 -2.89746e-05 0)
(0.0693958 -3.11486e-05 0)
(0.0693954 -3.32911e-05 0)
(0.0693953 -3.54028e-05 0)
(0.0694064 -1.58402e-06 0)
(0.0694015 -3.69989e-06 0)
(0.0694011 -6.0186e-06 0)
(0.0694006 -8.36321e-06 0)
(0.0693999 -1.07056e-05 0)
(0.0693991 -1.30448e-05 0)
(0.0693981 -1.53706e-05 0)
(0.0693971 -1.76888e-05 0)
(0.069396 -1.99879e-05 0)
(0.0693948 -2.22747e-05 0)
(0.0693937 -2.45378e-05 0)
(0.0693927 -2.67813e-05 0)
(0.0693918 -2.89939e-05 0)
(0.069391 -3.11684e-05 0)
(0.0693906 -3.33118e-05 0)
(0.0693905 -3.54248e-05 0)
(0.0694017 -1.58564e-06 0)
(0.0693968 -3.70428e-06 0)
(0.0693964 -6.02568e-06 0)
(0.0693958 -8.37276e-06 0)
(0.0693951 -1.07177e-05 0)
(0.0693943 -1.30588e-05 0)
(0.0693934 -1.53867e-05 0)
(0.0693923 -1.7706e-05 0)
(0.0693912 -2.00068e-05 0)
(0.0693901 -2.22941e-05 0)
(0.0693889 -2.45583e-05 0)
(0.0693879 -2.6802e-05 0)
(0.069387 -2.90153e-05 0)
(0.0693863 -3.11903e-05 0)
(0.0693858 -3.33344e-05 0)
(0.0693857 -3.54486e-05 0)
(0.0693969 -1.58752e-06 0)
(0.069392 -3.70954e-06 0)
(0.0693916 -6.03414e-06 0)
(0.0693911 -8.38421e-06 0)
(0.0693904 -1.07321e-05 0)
(0.0693895 -1.30755e-05 0)
(0.0693886 -1.54059e-05 0)
(0.0693875 -1.77267e-05 0)
(0.0693864 -2.00293e-05 0)
(0.0693853 -2.23172e-05 0)
(0.0693842 -2.45827e-05 0)
(0.0693831 -2.68264e-05 0)
(0.0693822 -2.90404e-05 0)
(0.0693815 -3.12155e-05 0)
(0.0693811 -3.33601e-05 0)
(0.0693809 -3.54754e-05 0)
(0.0693921 -1.58978e-06 0)
(0.0693872 -3.71597e-06 0)
(0.0693868 -6.0445e-06 0)
(0.0693863 -8.39824e-06 0)
(0.0693856 -1.07498e-05 0)
(0.0693848 -1.3096e-05 0)
(0.0693838 -1.54295e-05 0)
(0.0693828 -1.77521e-05 0)
(0.0693817 -2.0057e-05 0)
(0.0693805 -2.23456e-05 0)
(0.0693794 -2.46124e-05 0)
(0.0693783 -2.68561e-05 0)
(0.0693774 -2.90705e-05 0)
(0.0693767 -3.12456e-05 0)
(0.0693763 -3.33904e-05 0)
(0.0693761 -3.55066e-05 0)
(0.0693873 -1.59254e-06 0)
(0.0693824 -3.72389e-06 0)
(0.069382 -6.05727e-06 0)
(0.0693815 -8.41557e-06 0)
(0.0693808 -1.07716e-05 0)
(0.06938 -1.31216e-05 0)
(0.069379 -1.54588e-05 0)
(0.069378 -1.77838e-05 0)
(0.0693769 -2.00915e-05 0)
(0.0693758 -2.2381e-05 0)
(0.0693746 -2.46494e-05 0)
(0.0693736 -2.6893e-05 0)
(0.0693727 -2.91079e-05 0)
(0.0693719 -3.12825e-05 0)
(0.0693715 -3.34272e-05 0)
(0.0693713 -3.55441e-05 0)
(0.0693826 -1.59594e-06 0)
(0.0693776 -3.73364e-06 0)
(0.0693772 -6.073e-06 0)
(0.0693767 -8.43699e-06 0)
(0.069376 -1.07986e-05 0)
(0.0693752 -1.31532e-05 0)
(0.0693743 -1.54952e-05 0)
(0.0693732 -1.78235e-05 0)
(0.0693721 -2.01346e-05 0)
(0.069371 -2.24256e-05 0)
(0.0693699 -2.46961e-05 0)
(0.0693688 -2.69395e-05 0)
(0.0693679 -2.91549e-05 0)
(0.0693671 -3.13287e-05 0)
(0.0693667 -3.3473e-05 0)
(0.0693665 -3.55901e-05 0)
(0.0693778 -1.60012e-06 0)
(0.0693728 -3.74555e-06 0)
(0.0693724 -6.09223e-06 0)
(0.0693719 -8.46323e-06 0)
(0.0693712 -1.08317e-05 0)
(0.0693704 -1.31923e-05 0)
(0.0693695 -1.55402e-05 0)
(0.0693684 -1.78728e-05 0)
(0.0693673 -2.01884e-05 0)
(0.0693662 -2.24817e-05 0)
(0.0693651 -2.47549e-05 0)
(0.069364 -2.69983e-05 0)
(0.0693631 -2.92145e-05 0)
(0.0693623 -3.1387e-05 0)
(0.0693619 -3.35306e-05 0)
(0.0693617 -3.56474e-05 0)
(0.069373 -1.60522e-06 0)
(0.069368 -3.75987e-06 0)
(0.0693676 -6.11538e-06 0)
(0.0693671 -8.49494e-06 0)
(0.0693664 -1.08718e-05 0)
(0.0693656 -1.32399e-05 0)
(0.0693647 -1.55952e-05 0)
(0.0693636 -1.79335e-05 0)
(0.0693625 -2.0255e-05 0)
(0.0693614 -2.25515e-05 0)
(0.0693603 -2.48286e-05 0)
(0.0693592 -2.70727e-05 0)
(0.0693583 -2.929e-05 0)
(0.0693576 -3.14611e-05 0)
(0.0693571 -3.36034e-05 0)
(0.0693569 -3.57189e-05 0)
(0.0693681 -1.61136e-06 0)
(0.0693632 -3.77679e-06 0)
(0.0693628 -6.14278e-06 0)
(0.0693623 -8.53258e-06 0)
(0.0693616 -1.09195e-05 0)
(0.0693608 -1.32968e-05 0)
(0.0693599 -1.56611e-05 0)
(0.0693588 -1.80069e-05 0)
(0.0693578 -2.0336e-05 0)
(0.0693566 -2.26375e-05 0)
(0.0693555 -2.49202e-05 0)
(0.0693545 -2.7166e-05 0)
(0.0693535 -2.93859e-05 0)
(0.0693528 -3.15558e-05 0)
(0.0693523 -3.36968e-05 0)
(0.0693521 -3.58097e-05 0)
(0.0693633 -1.61862e-06 0)
(0.0693583 -3.79634e-06 0)
(0.0693579 -6.17446e-06 0)
(0.0693574 -8.57624e-06 0)
(0.0693568 -1.09749e-05 0)
(0.069356 -1.33634e-05 0)
(0.069355 -1.57386e-05 0)
(0.069354 -1.80939e-05 0)
(0.0693529 -2.04327e-05 0)
(0.0693518 -2.27413e-05 0)
(0.0693507 -2.5032e-05 0)
(0.0693497 -2.7282e-05 0)
(0.0693488 -2.95072e-05 0)
(0.069348 -3.1678e-05 0)
(0.0693475 -3.38202e-05 0)
(0.0693473 -3.59317e-05 0)
(0.0693584 -1.627e-06 0)
(0.0693534 -3.81838e-06 0)
(0.0693531 -6.21022e-06 0)
(0.0693526 -8.62566e-06 0)
(0.0693519 -1.10379e-05 0)
(0.0693511 -1.34393e-05 0)
(0.0693502 -1.58273e-05 0)
(0.0693492 -1.81944e-05 0)
(0.0693481 -2.05451e-05 0)
(0.069347 -2.28633e-05 0)
(0.0693459 -2.5165e-05 0)
(0.0693449 -2.74221e-05 0)
(0.069344 -2.9657e-05 0)
(0.0693432 -3.18333e-05 0)
(0.0693427 -3.39832e-05 0)
(0.0693425 -3.60999e-05 0)
(0.0693536 -1.63644e-06 0)
(0.0693485 -3.84251e-06 0)
(0.0693481 -6.24941e-06 0)
(0.0693477 -8.67997e-06 0)
(0.069347 -1.11072e-05 0)
(0.0693462 -1.35232e-05 0)
(0.0693453 -1.59258e-05 0)
(0.0693443 -1.83066e-05 0)
(0.0693433 -2.06712e-05 0)
(0.0693422 -2.30015e-05 0)
(0.0693411 -2.53168e-05 0)
(0.0693401 -2.75838e-05 0)
(0.0693392 -2.98322e-05 0)
(0.0693384 -3.20172e-05 0)
(0.069338 -3.418e-05 0)
(0.0693377 -3.63069e-05 0)
(0.0693486 -1.64678e-06 0)
(0.0693436 -3.8681e-06 0)
(0.0693432 -6.29103e-06 0)
(0.0693427 -8.73775e-06 0)
(0.0693421 -1.1181e-05 0)
(0.0693413 -1.36131e-05 0)
(0.0693404 -1.60314e-05 0)
(0.0693395 -1.84275e-05 0)
(0.0693384 -2.08076e-05 0)
(0.0693374 -2.31519e-05 0)
(0.0693363 -2.54825e-05 0)
(0.0693353 -2.7761e-05 0)
(0.0693344 -3.00248e-05 0)
(0.0693336 -3.22189e-05 0)
(0.0693332 -3.43956e-05 0)
(0.0693329 -3.65314e-05 0)
(0.0693437 -1.65775e-06 0)
(0.0693386 -3.89427e-06 0)
(0.0693382 -6.3336e-06 0)
(0.0693377 -8.79697e-06 0)
(0.0693371 -1.12568e-05 0)
(0.0693364 -1.37056e-05 0)
(0.0693355 -1.61403e-05 0)
(0.0693345 -1.85529e-05 0)
(0.0693335 -2.09492e-05 0)
(0.0693325 -2.33088e-05 0)
(0.0693314 -2.56557e-05 0)
(0.0693304 -2.79467e-05 0)
(0.0693296 -3.02267e-05 0)
(0.0693289 -3.24287e-05 0)
(0.0693284 -3.46193e-05 0)
(0.0693281 -3.6762e-05 0)
(0.0693387 -1.66896e-06 0)
(0.0693336 -3.91985e-06 0)
(0.0693332 -6.37524e-06 0)
(0.0693327 -8.855e-06 0)
(0.0693321 -1.13311e-05 0)
(0.0693314 -1.37966e-05 0)
(0.0693305 -1.62476e-05 0)
(0.0693296 -1.86771e-05 0)
(0.0693286 -2.10897e-05 0)
(0.0693276 -2.34653e-05 0)
(0.0693266 -2.58286e-05 0)
(0.0693256 -2.81326e-05 0)
(0.0693247 -3.04291e-05 0)
(0.0693241 -3.2637e-05 0)
(0.0693236 -3.4843e-05 0)
(0.0693233 -3.69888e-05 0)
(0.0693337 -1.67991e-06 0)
(0.0693285 -3.94347e-06 0)
(0.0693282 -6.41369e-06 0)
(0.0693277 -8.90868e-06 0)
(0.0693271 -1.13999e-05 0)
(0.0693264 -1.38811e-05 0)
(0.0693255 -1.63473e-05 0)
(0.0693246 -1.87931e-05 0)
(0.0693237 -2.12212e-05 0)
(0.0693227 -2.36129e-05 0)
(0.0693217 -2.59917e-05 0)
(0.0693207 -2.83093e-05 0)
(0.0693199 -3.06215e-05 0)
(0.0693193 -3.28347e-05 0)
(0.0693188 -3.50586e-05 0)
(0.0693186 -3.72003e-05 0)
(0.0693286 -1.69003e-06 0)
(0.0693234 -3.9635e-06 0)
(0.0693231 -6.44631e-06 0)
(0.0693226 -8.95427e-06 0)
(0.069322 -1.14583e-05 0)
(0.0693213 -1.39531e-05 0)
(0.0693205 -1.64323e-05 0)
(0.0693196 -1.88926e-05 0)
(0.0693187 -2.13339e-05 0)
(0.0693177 -2.37404e-05 0)
(0.0693168 -2.61331e-05 0)
(0.0693159 -2.84646e-05 0)
(0.0693151 -3.07914e-05 0)
(0.0693145 -3.30135e-05 0)
(0.0693141 -3.52552e-05 0)
(0.0693139 -3.73766e-05 0)
(0.0693235 -1.6986e-06 0)
(0.0693182 -3.97815e-06 0)
(0.0693179 -6.47011e-06 0)
(0.0693175 -8.98752e-06 0)
(0.0693169 -1.15006e-05 0)
(0.0693162 -1.40054e-05 0)
(0.0693154 -1.64938e-05 0)
(0.0693146 -1.89653e-05 0)
(0.0693137 -2.14163e-05 0)
(0.0693128 -2.38353e-05 0)
(0.0693118 -2.62393e-05 0)
(0.069311 -2.85849e-05 0)
(0.0693102 -3.09252e-05 0)
(0.0693097 -3.31583e-05 0)
(0.0693093 -3.54061e-05 0)
(0.0693092 -3.74826e-05 0)
(0.0693184 -1.70487e-06 0)
(0.0693131 -3.98538e-06 0)
(0.0693128 -6.48182e-06 0)
(0.0693123 -9.00387e-06 0)
(0.0693118 -1.15212e-05 0)
(0.0693111 -1.40312e-05 0)
(0.0693104 -1.65243e-05 0)
(0.0693095 -1.9003e-05 0)
(0.0693087 -2.14602e-05 0)
(0.0693078 -2.38892e-05 0)
(0.0693069 -2.62999e-05 0)
(0.0693061 -2.86545e-05 0)
(0.0693054 -3.09994e-05 0)
(0.0693049 -3.32268e-05 0)
(0.0693046 -3.54519e-05 0)
(0.0693046 -3.74584e-05 0)
(0.0693132 -1.70797e-06 0)
(0.0693079 -3.98353e-06 0)
(0.0693076 -6.47896e-06 0)
(0.0693072 -9.00035e-06 0)
(0.0693066 -1.15173e-05 0)
(0.069306 -1.40282e-05 0)
(0.0693052 -1.65207e-05 0)
(0.0693044 -1.90004e-05 0)
(0.0693036 -2.14566e-05 0)
(0.0693027 -2.38859e-05 0)
(0.0693019 -2.62877e-05 0)
(0.0693012 -2.863e-05 0)
(0.0693006 -3.09489e-05 0)
(0.0693002 -3.3138e-05 0)
(0.0693001 -3.53079e-05 0)
(0.0693002 -3.72264e-05 0)
(0.069308 -1.70716e-06 0)
(0.0693026 -3.97222e-06 0)
(0.0693024 -6.46062e-06 0)
(0.0693019 -8.97493e-06 0)
(0.0693014 -1.14848e-05 0)
(0.0693008 -1.39884e-05 0)
(0.0693001 -1.64688e-05 0)
(0.0692993 -1.89336e-05 0)
(0.0692985 -2.13665e-05 0)
(0.0692977 -2.37687e-05 0)
(0.069297 -2.61305e-05 0)
(0.0692963 -2.84277e-05 0)
(0.0692958 -3.06844e-05 0)
(0.0692956 -3.28055e-05 0)
(0.0692956 -3.4893e-05 0)
(0.069296 -3.67145e-05 0)
(0.0693027 -1.70228e-06 0)
(0.0692974 -3.94705e-06 0)
(0.0692971 -6.41828e-06 0)
(0.0692967 -8.91285e-06 0)
(0.0692962 -1.13987e-05 0)
(0.0692956 -1.38739e-05 0)
(0.069295 -1.6318e-05 0)
(0.0692943 -1.87402e-05 0)
(0.0692935 -2.11185e-05 0)
(0.0692928 -2.34603e-05 0)
(0.0692922 -2.57485e-05 0)
(0.0692916 -2.79691e-05 0)
(0.0692912 -3.01343e-05 0)
(0.0692911 -3.21663e-05 0)
(0.0692914 -3.4153e-05 0)
(0.069292 -3.58776e-05 0)
(0.0692975 -1.69152e-06 0)
(0.0692922 -3.89224e-06 0)
(0.0692919 -6.32594e-06 0)
(0.0692916 -8.77794e-06 0)
(0.0692911 -1.12135e-05 0)
(0.0692906 -1.36316e-05 0)
(0.06929 -1.6009e-05 0)
(0.0692893 -1.83573e-05 0)
(0.0692887 -2.06499e-05 0)
(0.069288 -2.29012e-05 0)
(0.0692875 -2.50871e-05 0)
(0.069287 -2.72067e-05 0)
(0.0692868 -2.92593e-05 0)
(0.0692869 -3.11893e-05 0)
(0.0692874 -3.30662e-05 0)
(0.0692882 -3.47023e-05 0)
(0.0692923 -1.66816e-06 0)
(0.069287 -3.79012e-06 0)
(0.0692868 -6.15599e-06 0)
(0.0692865 -8.53439e-06 0)
(0.0692861 -1.08886e-05 0)
(0.0692856 -1.32183e-05 0)
(0.0692851 -1.54985e-05 0)
(0.0692845 -1.77434e-05 0)
(0.069284 -1.99235e-05 0)
(0.0692834 -2.20599e-05 0)
(0.069283 -2.41223e-05 0)
(0.0692827 -2.61235e-05 0)
(0.0692826 -2.80505e-05 0)
(0.0692829 -2.98726e-05 0)
(0.0692836 -3.16379e-05 0)
(0.0692847 -3.3197e-05 0)
(0.0692871 -1.62464e-06 0)
(0.0692821 -3.62899e-06 0)
(0.0692819 -5.89089e-06 0)
(0.0692816 -8.16065e-06 0)
(0.0692813 -1.04005e-05 0)
(0.0692809 -1.26112e-05 0)
(0.0692804 -1.47666e-05 0)
(0.06928 -1.68835e-05 0)
(0.0692795 -1.89301e-05 0)
(0.0692791 -2.09337e-05 0)
(0.0692788 -2.28585e-05 0)
(0.0692786 -2.4731e-05 0)
(0.0692787 -2.65255e-05 0)
(0.0692791 -2.82384e-05 0)
(0.06928 -2.98937e-05 0)
(0.0692814 -3.13873e-05 0)
(0.0692821 -1.55583e-06 0)
(0.0692774 -3.40624e-06 0)
(0.0692772 -5.5274e-06 0)
(0.069277 -7.65391e-06 0)
(0.0692767 -9.74849e-06 0)
(0.0692764 -1.18129e-05 0)
(0.0692761 -1.38203e-05 0)
(0.0692757 -1.57898e-05 0)
(0.0692754 -1.76877e-05 0)
(0.0692751 -1.95466e-05 0)
(0.0692749 -2.13254e-05 0)
(0.0692749 -2.30634e-05 0)
(0.0692751 -2.47229e-05 0)
(0.0692757 -2.63272e-05 0)
(0.0692767 -2.78755e-05 0)
(0.0692783 -2.93129e-05 0)
(0.0692774 -1.46053e-06 0)
(0.069273 -3.12883e-06 0)
(0.0692729 -5.07703e-06 0)
(0.0692728 -7.03041e-06 0)
(0.0692726 -8.95362e-06 0)
(0.0692723 -1.08493e-05 0)
(0.0692721 -1.26909e-05 0)
(0.0692718 -1.44985e-05 0)
(0.0692716 -1.62372e-05 0)
(0.0692714 -1.79434e-05 0)
(0.0692713 -1.95717e-05 0)
(0.0692714 -2.11724e-05 0)
(0.0692718 -2.26966e-05 0)
(0.0692725 -2.41936e-05 0)
(0.0692737 -2.56376e-05 0)
(0.0692754 -2.70248e-05 0)
(0.0692731 -1.34166e-06 0)
(0.0692691 -2.81123e-06 0)
(0.069269 -4.56287e-06 0)
(0.0692689 -6.32124e-06 0)
(0.0692688 -8.05411e-06 0)
(0.0692686 -9.76505e-06 0)
(0.0692685 -1.14281e-05 0)
(0.0692683 -1.30637e-05 0)
(0.0692682 -1.46364e-05 0)
(0.0692681 -1.61848e-05 0)
(0.0692681 -1.76602e-05 0)
(0.0692683 -1.9122e-05 0)
(0.0692688 -2.05114e-05 0)
(0.0692696 -2.19015e-05 0)
(0.0692709 -2.32428e-05 0)
(0.0692728 -2.45826e-05 0)
(0.0692691 -1.20541e-06 0)
(0.0692657 -2.47238e-06 0)
(0.0692656 -4.01482e-06 0)
(0.0692656 -5.56624e-06 0)
(0.0692655 -7.09823e-06 0)
(0.0692654 -8.61518e-06 0)
(0.0692653 -1.00923e-05 0)
(0.0692652 -1.15501e-05 0)
(0.0692651 -1.29526e-05 0)
(0.0692651 -1.43402e-05 0)
(0.0692653 -1.56617e-05 0)
(0.0692656 -1.69833e-05 0)
(0.0692661 -1.82384e-05 0)
(0.069267 -1.95209e-05 0)
(0.0692684 -2.07598e-05 0)
(0.0692704 -2.20512e-05 0)
(0.0692657 -1.05996e-06 0)
(0.0692627 -2.13234e-06 0)
(0.0692627 -3.46457e-06 0)
(0.0692627 -4.80755e-06 0)
(0.0692626 -6.13693e-06 0)
(0.0692626 -7.45783e-06 0)
(0.0692625 -8.74714e-06 0)
(0.0692625 -1.0025e-05 0)
(0.0692625 -1.12563e-05 0)
(0.0692626 -1.24818e-05 0)
(0.0692628 -1.3649e-05 0)
(0.0692632 -1.48293e-05 0)
(0.0692638 -1.59503e-05 0)
(0.0692648 -1.71233e-05 0)
(0.0692662 -1.82584e-05 0)
(0.0692682 -1.9497e-05 0)
(0.0692627 -9.14001e-07 0)
(0.0692603 -1.80928e-06 0)
(0.0692602 -2.9409e-06 0)
(0.0692602 -4.08368e-06 0)
(0.0692602 -5.21713e-06 0)
(0.0692602 -6.34686e-06 0)
(0.0692602 -7.45199e-06 0)
(0.0692602 -8.55226e-06 0)
(0.0692603 -9.61408e-06 0)
(0.0692604 -1.06781e-05 0)
(0.0692607 -1.16921e-05 0)
(0.0692611 -1.27306e-05 0)
(0.0692618 -1.37176e-05 0)
(0.0692628 -1.47779e-05 0)
(0.0692642 -1.58072e-05 0)
(0.0692662 -1.69857e-05 0)
(0.0692603 -7.7539e-07 0)
(0.0692582 -1.51703e-06 0)
(0.0692582 -2.46599e-06 0)
(0.0692582 -3.42476e-06 0)
(0.0692582 -4.37619e-06 0)
(0.0692582 -5.32614e-06 0)
(0.0692582 -6.25623e-06 0)
(0.0692583 -7.18572e-06 0)
(0.0692584 -8.08348e-06 0)
(0.0692586 -8.98943e-06 0)
(0.0692589 -9.85324e-06 0)
(0.0692594 -1.07503e-05 0)
(0.0692601 -1.16042e-05 0)
(0.0692611 -1.25486e-05 0)
(0.0692625 -1.34692e-05 0)
(0.0692644 -1.45781e-05 0)
(0.0692582 -6.50079e-07 0)
(0.0692566 -1.26353e-06 0)
(0.0692566 -2.05298e-06 0)
(0.0692566 -2.84943e-06 0)
(0.0692566 -3.63839e-06 0)
(0.0692566 -4.42555e-06 0)
(0.0692567 -5.195e-06 0)
(0.0692568 -5.96541e-06 0)
(0.0692569 -6.70863e-06 0)
(0.0692571 -7.46345e-06 0)
(0.0692574 -8.18257e-06 0)
(0.0692579 -8.94089e-06 0)
(0.0692586 -9.66364e-06 0)
(0.0692596 -1.04893e-05 0)
(0.069261 -1.12991e-05 0)
(0.0692628 -1.23278e-05 0)
(0.0692566 -5.41462e-07 0)
(0.0692552 -1.05068e-06 0)
(0.0692553 -1.70561e-06 0)
(0.0692553 -2.36413e-06 0)
(0.0692553 -3.01369e-06 0)
(0.0692553 -3.65931e-06 0)
(0.0692554 -4.28718e-06 0)
(0.0692555 -4.915e-06 0)
(0.0692557 -5.5177e-06 0)
(0.069256 -6.13242e-06 0)
(0.0692563 -6.71583e-06 0)
(0.0692568 -7.34079e-06 0)
(0.0692575 -7.93669e-06 0)
(0.0692584 -8.64258e-06 0)
(0.0692597 -9.34055e-06 0)
(0.0692614 -1.02788e-05 0)
(0.0692552 -4.50313e-07 0)
(0.0692542 -8.75475e-07 0)
(0.0692542 -1.41974e-06 0)
(0.0692543 -1.96461e-06 0)
(0.0692543 -2.49893e-06 0)
(0.0692544 -3.02661e-06 0)
(0.0692545 -3.53529e-06 0)
(0.0692546 -4.0411e-06 0)
(0.0692548 -4.52168e-06 0)
(0.0692551 -5.01182e-06 0)
(0.0692554 -5.47254e-06 0)
(0.0692559 -5.97324e-06 0)
(0.0692566 -6.44941e-06 0)
(0.0692575 -7.03684e-06 0)
(0.0692586 -7.62396e-06 0)
(0.0692601 -8.46213e-06 0)