/*--------------------------------*- C++ -*----------------------------------*\
  =========                 |
  \\      /  F ield         | OpenFOAM: The Open Source CFD Toolbox
   \\    /   O peration     | Website:  https://openfoam.org
    \\  /    A nd           | Version:  8
     \\/     M anipulation  |
\*---------------------------------------------------------------------------*/
FoamFile
{
    version     2.0;
    format      ascii;
    class       volScalarField;
    location    "0.0310000";
    object      p;
}
// * * * * * * * * * * * * * * * * * * * * * * * * * * * * * * * * * * * * * //

dimensions      [0 2 -2 0 0 0 0];

internalField   nonuniform List<scalar> 
600
(
1275443.07972946
3874569.46338253
6563956.21491115
9315083.91609097
12133256.2876023
15023573.5677976
17988972.4277556
21032030.4590129
24155666.0314166
27362988.0377544
30657179.1809848
34041683.6011517
37520184.8566976
41096583.557718
44774836.1928112
48559295.8246184
52454540.0771722
56465350.8268172
60596768.8291858
64854215.6828999
69243449.4382913
73770430.7613366
78441591.7493394
83263838.0213932
88244481.0531352
93391045.3297267
98711820.1892148
104215697.949269
109911979.396633
115810606.998069
121922346.517838
128258794.747472
134831981.240219
141655214.749442
148742726.644362
156109693.820936
163772278.195671
171748303.520466
180057069.876435
188718827.306204
197755771.324681
207192195.109533
217054626.415999
227370491.043909
238170927.679485
249490010.538302
261363854.561509
273831390.346958
286936431.164572
300728165.64682
315255019.257385
330574074.517823
346748453.81176
363846000.993044
381935920.051569
401100272.804936
421431980.988969
443018101.875317
465960371.541662
490374845.968748
516387944.487673
544104976.011435
573667063.518458
605231312.984597
638921878.581031
674845723.057024
713116837.414062
753863754.782576
796819887.73324
841853715.213657
888759032.647245
936955763.538656
985894493.197457
1035078542.5221
1083842700.75937
1131304833.86866
1176765098.88555
1219329023.5486
1257998490.48484
1291801184.83288
1319225906.5582
1338750591.75909
1347688065.32986
1344071168.99189
1318587288.86805
1272724428.01152
1169952200.65399
1088782685.54492
998505850.01777
912606425.044359
824860304.537515
737944260.820594
650570290.878265
563323482.105177
475993213.882634
388758663.474547
301667526.296468
214837479.549238
128410031.137608
42486739.2456945
1288941.47649775
3890592.92947127
6586982.47900339
9341552.87003026
12161311.0824354
15052438.0577509
18018272.846937
21061632.698411
24185494.8662875
27392987.9697823
30687355.6750998
34072047.4933197
37550738.1937975
41127295.261458
44805745.216329
48590402.3359434
52485831.5206028
56496824.1336265
60628443.7280981
64886093.7605773
69275500.4796692
73802677.2137143
78474045.6254136
83296485.4618909
88277271.7834196
93424027.1971187
98745001.4358636
104249037.987757
109945471.813832
115844271.018464
121956182.839905
128292717.501737
134866047.368999
141689402.603602
148776990.017489
156143973.913805
163806629.356636
171782707.402515
180091376.417153
188753048.026487
197789909.86344
207226210.393407
217088218.255653
227403811.218032
238203918.536005
249522379.030586
261395411.02434
273862218.889996
286966528.112022
300756483.773265
315281985.136593
330599519.709966
346771808.747251
363866174.310559
381953433.293782
401115012.644322
421441315.485731
443022402.223775
465959585.462283
490368079.190922
516370281.372977
544079096.405467
573632484.612081
605181746.135008
638854218.626884
674759699.366374
713014161.216358
753704236.101375
796628361.93127
841629618.922131
888477257.534109
936634543.837499
985550698.498501
1034710938.62002
1083446690.73586
1130912780.2184
1176373756.74106
1218950269.55546
1257649223.74275
1291479483.77363
1318938532.6002
1338525140.82374
1347507954.85963
1343952352.3733
1318528634.13906
1272775372.25412
1170200973.84853
1088992361.91665
998691978.987257
912787225.093141
825022743.018401
738079871.218825
650696647.949049
563432614.01837
476081922.975836
388834005.999891
301723910.099248
214873177.6749
128424572.320648
42336913.8288047
1290052.38069122
3894663.06268827
6591472.17930161
9346010.26103496
12166043.8814356
15057422.5794585
18023374.5992416
21066764.266415
24190592.8642438
27398002.8704694
30692272.7262639
34076863.6813348
37555442.123229
41131867.2264429
44810191.8140009
48594718.0587535
52489999.1657726
56500832.425988
60632291.7005296
64889769.1442588
69278978.2523375
73805954.0553861
78477117.9319494
83299324.5820423
88279836.6793424
93426325.3310423
98747024.4895992
104250744.647925
109946836.635988
115845285.057846
121956816.63798
128292911.148192
134865795.505496
141688668.109314
148775708.758418
156142092.141258
163804137.524883
171779549.906099
180087438.074269
188748279.823647
197784273.109827
207219602.431717
217080449.906094
227394869.03712
238193704.502131
249510649.710874
261381980.03247
273847043.58156
286949411.274697
300736864.497088
315259834.984392
330574652.565775
346743671.452288
363834106.390798
381917419.995024
401074587.737805
421395090.004294
442970042.376484
465900831.588079
490301637.979504
516293938.633665
543993094.809475
573535803.905324
605070778.535375
638726368.768226
674613946.638284
712845001.350892
753499186.361586
796390800.224134
841359388.871058
888169056.157316
936295708.960271
985191588.407192
1034335873.29672
1083062031.08259
1130531581.48058
1176004855.75804
1218603643.86446
1257335091.28683
1291205256.68358
1318713744.60708
1338364275.85875
1347409613.14103
1343938406.91072
1318605564.12534
1273025784.90589
1170414969.52025
1089232618.2994
998905229.2475
912980604.128363
825195345.642283
738236046.167051
650832845.281108
563551538.961903
476184117.15808
388918320.529372
301791573.977605
214924263.478168
128456995.780468
42386238.5452264
1283181.09424875
3879985.70159879
6561855.59396984
9311083.35568864
12129537.3100594
15020197.2950377
17985580.5204831
21028393.4119957
24151596.7591954
27358331.2298521
30651891.8232101
34035748.982506
37513565.6969444
41089200.0756952
44766712.3562132
48550401.0598571
52444812.3153449
56454745.0947982
60585275.9283793
64841790.6745241
69229997.3853012
73755936.9795568
78426030.8133078
83247118.7881835
88226458.745666
93371739.0999094
98691186.644285
104193594.335692
109888317.048762
115785344.928027
121895390.573578
128229922.758986
134801182.881626
141622355.88285
148707602.964689
156072104.752668
163732190.949497
171705541.17383
180011238.021888
188669777.226239
197703360.988765
207136129.694916
216994238.137162
227305790.986808
238101598.134492
249415278.673844
261283126.211194
273744544.43599
286842998.326014
300626161.222597
315144616.011238
330454660.896342
346618439.284803
363703162.718967
381780511.843808
400931222.762334
421244489.881342
442811744.794446
465734489.395473
490126290.09841
516108571.473537
543797403.917334
573329051.259453
604851295.663208
638492921.251935
674366315.958925
712579825.072562
753214020.210705
796086698.233619
841038042.428865
887831829.568089
935948068.18917
984841055.253712
1033987888.88992
1082724342.34858
1130212409.86661
1175713484.07163
1218348889.87264
1257125749.28447
1291050975.99061
1318626169.57479
1338356675.38029
1347493259.19754
1344141959.88244
1318953566.20232
1273581710.12456
1170620821.90552
1089455115.364
999115151.890201
913166425.137264
825364038.176434
738388094.949714
650966187.598889
563667569.867551
476283677.090458
389000183.035943
301856856.344615
214973379.255441
128491899.576028
42426077.7161509
1247514.40218511
3825817.3621006
6487944.76019478
9230553.57722932
12046991.6431148
14936466.3050209
17900714.0530771
20942319.4245293
24064232.1383947
27269606.9763061
30561755.5375427
33944156.0342241
37420471.0021566
40994557.3186168
44670476.6993896
48452524.5390902
52345242.5625868
56353428.5899444
60482158.1764784
64736812.7739915
69123096.0857707
73647048.8773654
78315090.2102804
83134052.1307283
88111187.6363624
93254188.5276663
98571275.0916648
104071230.462077
109763407.673472
115657794.924601
121765095.544357
128096769.61941
134665059.540024
141483139.687277
148565159.692936
155926296.066915
163582875.095141
171552561.044451
179854421.034466
188508949.042994
197538339.396744
206966710.4565
216820198.025603
227126913.796524
237917643.627045
249225974.968959
261088194.765578
273543708.743524
286635939.953274
300412519.0898
314924060.55223
330226827.726384
346382904.224961
363459492.843156
381528312.104142
400670018.767888
420973758.635585
442531040.16768
465443355.837145
489824165.994069
515794977.439279
543472012.756443
572991441.961169
604501148.687546
638130304.783494
673991793.074883
712193900.071802
752819033.28271
795685982.886289
840635123.012383
887431740.516432
935557024.296844
984465094.477936
1033633244.78119
1082398817.2471
1129923470.57388
1175469122.62425
1218157830.23964
1256997248.43885
1290996077.91939
1318658747.81902
1338493456.70862
1347755402.10554
1344567924.40966
1319588440.62683
1274477496.25737
1170838974.02062
1089673792.45355
999333407.806005
913357255.315799
825540121.706214
738544792.107157
651105066.233341
563787818.76023
476385829.506479
389083767.331818
301922147.638404
215020683.030114
128523650.174267
42440594.3575001
1183724.69357287
3736660.64090219
6380827.08333468
9118274.76189116
11933127.1758115
14821409.0772569
17784349.1466861
20824505.0907959
23944860.7907936
27148602.3292434
30439058.3522478
33819712.9551908
37294229.2820321
40866462.56753
44540472.4025769
48320551.3142009
52211238.3526629
56217328.5898359
60343894.4110614
64596314.1389135
68980287.9552955
73501853.0853413
78167424.8164074
82983831.5327673
87958321.6743781
93098582.4599399
98412828.0474554
103909836.64803
109598956.065054
115490167.999662
121594169.736497
127922414.78557
134487138.027643
141301505.090024
148379659.089756
155736766.88789
163389142.634859
171354441.348083
179651722.420814
188301466.169456
197325851.044235
206748987.060494
216596999.114516
226897976.230719
237682686.842871
248984714.909353
260840327.016023
273288894.228552
286373833.703822
300142786.296143
314646311.927165
329940637.805725
346087879.997858
363155240.72856
381214344.327074
400345857.58554
420639056.033407
442185345.66456
465086123.513565
489455033.764843
515413822.91033
543078403.448134
572585049.812654
604082408.961718
637699950.150791
673550573.595406
711744008.94539
752365986.127127
795233525.267617
840187383.154254
886996149.384135
935139642.703075
984070601.759487
1033268247.17239
1082071160.71403
1129639345.16013
1175235757.29587
1217983523.10184
1256890599.98758
1290968907.29198
1318724434.57214
1338671025.86586
1348065864.85509
1345061998.73283
1320299650.67056
1275509748.08268
1171030155.58077
1089892571.7429
999543504.131074
913545304.956676
825712301.241538
738698553.745771
651241255.060116
563905705.737102
476485535.967332
389165086.997921
301985079.331888
215065437.813522
128552736.342561
42456414.3411619
)
;

boundaryField
{
    dieWall
    {
        type            zeroGradient;
    }
    outlet
    {
        type            fixedValue;
        value           uniform 0;
    }
    Wire
    {
        type            zeroGradient;
    }
    inlet
    {
        type            fixedValue;
        value           uniform 0;
    }
    back
    {
        type            wedge;
    }
    front
    {
        type            wedge;
    }
}


// ************************************************************************* //
