/*--------------------------------*- C++ -*----------------------------------*\
  =========                 |
  \\      /  F ield         | OpenFOAM: The Open Source CFD Toolbox
   \\    /   O peration     | Website:  https://openfoam.org
    \\  /    A nd           | Version:  8
     \\/     M anipulation  |
\*---------------------------------------------------------------------------*/
FoamFile
{
    version     2.0;
    format      ascii;
    class       surfaceVectorField;
    location    "0.0310000";
    object      Uf;
}
// * * * * * * * * * * * * * * * * * * * * * * * * * * * * * * * * * * * * * //

dimensions      [0 1 -1 0 0 0 0];

internalField   nonuniform List<vector> 
1691
(
(0.761830322953917 0.000270680704279502 -4.95886380323396e-18)
(0.584262907116657 0.000903712650397134 -4.34817013670927e-18)
(0.762047723685717 0.000177154423964518 -2.4227510167586e-18)
(0.585632284568714 0.000955448024366406 -4.65651695633586e-18)
(0.762293672367265 0.000164150306628349 -2.13490195651682e-19)
(0.585862834883882 0.000958380070489829 1.05785860534785e-18)
(0.762419769074582 0.000178888061785431 -3.72685170070985e-20)
(0.586183060688412 0.00102452988268001 -8.78339812554341e-19)
(0.762479793138626 0.00018575229031777 1.4037200736673e-18)
(0.586280012683854 0.00106322936188443 7.60242638980333e-19)
(0.762510999748332 0.000190754233191768 -3.04983106973603e-18)
(0.586305331753769 0.00108457133060119 3.61307118233289e-18)
(0.762533946112381 0.000194001396173719 -6.5727634240516e-18)
(0.58630253155875 0.00109508711735205 -5.86658917322322e-19)
(0.762554900831214 0.000196428464599765 1.89798356798458e-18)
(0.58629347174336 0.00110111633177472 -8.33889027087235e-18)
(0.762577691403885 0.000198438906446875 8.5193238181005e-18)
(0.586283991640048 0.00110535848600685 2.36547597617641e-17)
(0.762605734006846 0.000200252866924167 -7.39723111268675e-19)
(0.586279168335232 0.00110929402642599 1.27592917802574e-17)
(0.762635543880297 0.000202167609244012 1.56759492490813e-18)
(0.586278939023609 0.00111284223816058 1.21731173972669e-17)
(0.762665192491097 0.000204440596647473 5.78677969927341e-18)
(0.586279357921737 0.00111701219153093 3.28347854938905e-17)
(0.762695201172756 0.000206747190568601 -6.24759073441736e-18)
(0.586281094310709 0.00112173335385821 -3.088415415841e-18)
(0.762725966790311 0.000208374895163692 1.00483234196951e-18)
(0.58628407611386 0.00112605836703663 -2.25607215761647e-17)
(0.762758963425926 0.000209569508773421 -2.83651501555298e-17)
(0.586288436113045 0.00112885416059111 -7.14811193390583e-18)
(0.762793842380866 0.000211487639209783 -2.65014915077348e-17)
(0.58629653063177 0.00113190899886682 -9.25428606725443e-17)
(0.762829533596063 0.000213495851859539 6.73626155927163e-18)
(0.586306153621323 0.00113680362256362 -1.6329357181342e-17)
(0.762866455592681 0.000214577517922282 -8.03707163999974e-18)
(0.586316705434087 0.00114011300684016 -9.39187099241731e-18)
(0.762907100818056 0.000215594194616284 -1.64385861790729e-17)
(0.586330797509327 0.00114233049216028 -2.63738157050189e-17)
(0.762951236862819 0.00021726786334902 -4.49164015000511e-17)
(0.586349073236018 0.00114555110518013 -3.75134310104629e-17)
(0.762996651064538 0.000219104865699397 -6.06018129529953e-17)
(0.586370404324268 0.00114973406516437 -8.71978472862868e-17)
(0.763042390314731 0.000220719432018648 -8.81997443508171e-18)
(0.586392949578839 0.00115351153871271 -4.3598825063212e-17)
(0.763089433949819 0.000222570817043496 1.77608769817093e-17)
(0.586417601160668 0.00115710041536835 6.10436638215915e-17)
(0.763139551681227 0.000224435229188926 1.34333645571919e-18)
(0.586445472699006 0.00116173856738128 8.99463823075265e-18)
(0.76319166468217 0.000225963727606124 -9.23070274602528e-18)
(0.586476836546663 0.00116543350619422 2.9756477301056e-18)
(0.763245852632636 0.000227692887099607 -7.10895109127374e-18)
(0.586511351296463 0.00116905422576463 -2.73958933327116e-17)
(0.76330298875125 0.000229724835035034 4.67099707122054e-18)
(0.586549458263 0.00117346828516259 1.24620181896224e-17)
(0.763363408150258 0.000231596674170633 8.50459010810446e-18)
(0.586592023609562 0.00117812211316853 8.20617616726161e-18)
(0.763426342586657 0.000233459578386559 -2.93961340736061e-18)
(0.586638722881367 0.00118216783413969 1.40310967960787e-17)
(0.763490964866974 0.000236056028768171 -3.89380125840219e-18)
(0.586689590565099 0.00118681882358635 -4.07108144160942e-17)
(0.763559143219446 0.000238514556939316 -1.40393909946941e-17)
(0.586744452810071 0.00119326231771956 2.21261108239656e-17)
(0.763631949611912 0.00024008274458381 -2.11052612335699e-17)
(0.586804778910577 0.00119760862567377 -2.74946084300286e-17)
(0.763711464637048 0.000241997494498879 6.27685662311841e-18)
(0.586872763834036 0.00120135437989327 -5.02542373805663e-18)
(0.763797642479423 0.000244947516675452 1.04694884091557e-17)
(0.586949483078071 0.00120693868115756 -1.25072325182021e-17)
(0.763888025722663 0.000248143443316624 7.33401394937888e-18)
(0.587034034339053 0.00121404710067093 5.58455030683127e-18)
(0.76398066355181 0.00025109278538112 4.67431923406408e-17)
(0.587124124546592 0.00122055610920594 1.81600851115509e-17)
(0.764077865157642 0.000254719501428669 6.11195326239276e-17)
(0.58722060814721 0.00122696345052394 1.44437412425624e-16)
(0.764185244426241 0.000258435480036306 4.03719335248072e-17)
(0.587327834622064 0.00123586524550757 3.66970199143775e-17)
(0.764301286619491 0.000261524537821905 6.54437568924116e-17)
(0.587447878433951 0.0012427344936198 2.49688125979094e-17)
(0.764426581137859 0.000265443028690644 4.55544515562491e-17)
(0.587579989964635 0.00124970048219366 9.46931805333978e-17)
(0.764562915984383 0.000270756060017917 1.28281320106231e-17)
(0.587726922692193 0.00125942575707239 -1.22020433158689e-17)
(0.764709486240193 0.000276111916143437 4.2312346074549e-17)
(0.587889365947705 0.00127105286692441 4.50591062069104e-17)
(0.764865559925293 0.000281270642915988 8.14355343897699e-17)
(0.588066167178699 0.00128118133237801 1.20942871102239e-16)
(0.765032893057341 0.000288772011490544 1.36996900884794e-16)
(0.588260891857314 0.00129228867366151 2.03558527868299e-16)
(0.765216605052316 0.000297138787446546 5.1686816302265e-17)
(0.588476735487382 0.00131025255949244 2.67044073294445e-16)
(0.765414447900918 0.000304246625038924 -5.94475229541396e-17)
(0.588714959522011 0.00132444277705882 -6.85496329728118e-17)
(0.765630882344483 0.000313082204803771 -2.72402230854631e-17)
(0.588978792290141 0.00133848511579427 -1.02368030591787e-16)
(0.765871704390581 0.000324756968542515 -2.22695161343148e-17)
(0.589275483308215 0.00135854142936864 -2.96108848644527e-17)
(0.766136596291659 0.00033647119212947 -6.55642003330687e-17)
(0.589608115461314 0.00138203610949664 -8.15196038491734e-17)
(0.766425553163059 0.000348138598021833 -5.56946288910933e-17)
(0.58997634597881 0.00140261501448844 -1.12369958536589e-16)
(0.766742222621089 0.000365294006095649 -1.6995489321024e-17)
(0.590389897804377 0.00142613258095825 -3.96161489688362e-17)
(0.767097284372584 0.000384422279001185 2.23121355829797e-17)
(0.590854524054306 0.00146482100205777 -2.517510773344e-17)
(0.767489089466272 0.000401385262055354 8.30782662389409e-17)
(0.591375108154689 0.00149523579350774 1.11501184431586e-16)
(0.767922044314419 0.000423450288533282 -1.56995326460637e-17)
(0.591964235522966 0.00152714401161705 1.6215039053821e-16)
(0.768406743515322 0.000451420564048166 -7.27483634421602e-17)
(0.592628432303343 0.00157432076580269 -2.23689126678483e-16)
(0.768952087801314 0.000478650161479812 -1.31597095317428e-17)
(0.593380432235482 0.00162568199128307 -9.9117682267441e-18)
(0.769563150843264 0.00050667612826784 -1.6344840199451e-17)
(0.594234266268795 0.00167101034680099 -4.05017396214113e-17)
(0.770246575264764 0.000547258526980007 7.75530760541529e-18)
(0.595210552139442 0.00172531678501234 -2.68267745150225e-17)
(0.771025721723879 0.000591429725209235 -6.34264103635749e-18)
(0.59632303802947 0.00181107050168841 5.70668307877354e-17)
(0.771904621932635 0.000630277946106888 -8.93176053903505e-17)
(0.597588294375943 0.00187754619010926 -2.27711366851494e-17)
(0.772897784585903 0.000681810276469812 -9.18180170503274e-17)
(0.599048726394067 0.00194682201036415 -1.87854834556392e-16)
(0.774026231463878 0.000746679950239505 -4.57141387318398e-18)
(0.600724986153221 0.00205351411329296 -4.36937117375518e-17)
(0.775307711583777 0.000807520883502032 4.19967669889029e-17)
(0.60263835711288 0.00216528045601838 7.51939516107974e-17)
(0.77677367990905 0.000869083502173562 -9.00177078859386e-18)
(0.604840364113874 0.00225962873715364 1.18459504231983e-17)
(0.778452465535582 0.000958171559582434 -2.50694379882204e-17)
(0.607410523670534 0.00237453588008238 -8.33840009970405e-17)
(0.78038878185586 0.00105285295700818 2.24316888136663e-17)
(0.610378876924503 0.00255323867743954 2.82525925795676e-17)
(0.782632246804608 0.0011355062842793 2.1694779067794e-18)
(0.613795707538598 0.0026863403179912 1.45570326775886e-17)
(0.785308078189805 0.00127305452803591 -4.89585690957045e-18)
(0.61788274924932 0.00283470586809254 -5.07104656381928e-17)
(0.78861651956009 0.00147324829807707 3.54586748995135e-17)
(0.622819564224291 0.00313882802253125 3.27331022011973e-17)
(0.792730950226438 0.00167010757973695 -5.89752707102958e-18)
(0.628821639633887 0.00348046020300532 1.07481899975291e-16)
(0.797709620450179 0.00188197619058999 1.25353592772643e-18)
(0.636175677704943 0.00378149018288575 -9.66183670807918e-17)
(0.803482498177267 0.00213672530935311 7.2205507057014e-17)
(0.645068162337093 0.00416425585760235 1.23716308851683e-16)
(0.810001695855739 0.0023125996782286 6.5122150301179e-17)
(0.655255030882784 0.00455942031883577 9.77892777713003e-17)
(0.817346968470168 0.00237556654791402 1.2152642518904e-17)
(0.666974928983549 0.0046765437787396 1.06779691969765e-16)
(0.825535494570562 0.00240380203934433 1.68628934750016e-17)
(0.680308497936148 0.00469373770847364 -5.70599567557863e-17)
(0.834650012594192 0.00235463920293693 2.58362539651077e-17)
(0.695331884889399 0.00463631332967771 6.56438686606979e-17)
(0.844626731080174 0.00220689845992655 -4.24755814209756e-17)
(0.711678219485352 0.00437334352736175 9.10120400581698e-18)
(0.855647583372768 0.00201622231646542 -3.37606797027551e-17)
(0.730225394485322 0.00398169347145057 -9.94466073222187e-17)
(0.867466664053435 0.00173884631353561 1.81803613077512e-17)
(0.749563207200548 0.00351487480033096 3.91677617173663e-17)
(0.880581964987433 0.00144336046922005 -2.25269878189903e-18)
(0.77191958163569 0.00284784113166841 2.80585635025884e-17)
(0.894360931699892 0.00111414454431785 -9.01944315246425e-19)
(0.794131462601908 0.00225938988946397 -5.8848398236266e-17)
(0.910079502812981 0.000785174256510524 -7.27006753118017e-18)
(0.821441998842993 0.00148444295058378 6.4353864182634e-17)
(0.926309777445405 0.000387418038021827 -3.43036704756314e-17)
(0.846055277662201 0.00079054992480966 -6.26228786604144e-17)
(0.946157937566752 0.000182003087838351 -3.4433062564354e-17)
(0.881800740561749 -5.92388079394229e-05 -4.83735560447575e-17)
(0.966278193068719 -9.96401850235853e-05 -3.4843943392302e-18)
(0.908912237854038 -0.000438106881957459 -8.75164012867031e-17)
(0.990864241740675 0.000129196452718881 3.42932241648342e-17)
(0.960580201817371 -0.00112648469084532 7.07669323754577e-17)
(0.988784531339434 5.37839526405181e-05 1.56497018151364e-17)
(0.978484096123818 9.39792848046577e-05 5.03215499274368e-17)
(0.990330736859587 8.36226633652793e-05 -9.99901419002697e-18)
(0.968070369545171 -0.000131375235321696 -2.88138864115195e-18)
(0.989104748870175 4.17963276679584e-05 -7.79273200504763e-18)
(0.973660789725276 -1.87294194544796e-05 -2.2340404085189e-17)
(0.988835102678444 3.19107511878469e-05 4.57736360920522e-18)
(0.968113577949962 -0.000113721182874469 5.50376740405086e-18)
(0.987413643427549 -3.80345852820914e-06 3.11253970715778e-18)
(0.968423370888923 -7.77285606012899e-05 1.5131791628114e-17)
(0.986255093275565 -1.65922567441138e-05 -3.78584499182248e-18)
(0.964416590205352 -0.000126600975320173 -9.21978904703031e-19)
(0.984574740158056 -3.8936027573856e-05 -5.77089808326996e-19)
(0.962470046207999 -0.000128635715964473 -1.23806146351591e-17)
(0.982951204584859 -6.05706532311673e-05 1.74073509394221e-18)
(0.95879225217078 -0.000160116003064447 9.35969392776993e-18)
(0.981125042655518 -7.75656978242458e-05 1.13225048825168e-19)
(0.955857792378302 -0.000173028487364437 -6.54158054423724e-18)
(0.979315772966272 -9.48884400461523e-05 1.25638390004775e-18)
(0.952243354907284 -0.000193681798575479 3.53305960715278e-18)
(0.977469884256724 -0.000105935697678616 -3.75175617621108e-19)
(0.948976075590713 -0.000203039048513231 -1.14118870776852e-18)
(0.975694085135024 -0.000103502651622099 -5.44944122708958e-19)
(0.945477343796516 -0.000212702338302769 -3.5594651920479e-19)
(0.974217545984804 -1.30873758286714e-06 -4.66605279426043e-19)
(0.942454339476342 -0.000212318042119782 -1.81169597420353e-18)
(0.940355893525367 -0.000146223978564659 -6.00032030952558e-20)
(0.406848883095511 0.00185476036665966 -4.04248073183024e-18)
(0.26509118705814 0.00286991672553116 -3.74126531244212e-18)
(0.407743942944666 0.00194754283822596 -1.15927827257146e-18)
(0.267847401424208 0.00314219050602144 -4.5007404313046e-18)
(0.408311791575406 0.0020325221928593 3.91705595105018e-19)
(0.268359635041892 0.00332314352203788 1.89434795519033e-18)
(0.408570734621407 0.00213275107031669 -7.76966288530495e-20)
(0.268842507771211 0.00354638100145066 -2.83897532298399e-18)
(0.408650907988869 0.00219085533955557 2.98191667633492e-18)
(0.268954990995764 0.00367700409660488 1.4866018229153e-18)
(0.408656137589355 0.00221960461254984 6.10494620920932e-18)
(0.268947689053898 0.00373980453269508 6.15871289246731e-18)
(0.408637165910133 0.00223341198472164 -2.35188519228408e-18)
(0.268893642292686 0.00376699136873146 1.4916884505711e-17)
(0.408613368909367 0.00224128533067417 1.35318438403256e-17)
(0.268828476449686 0.00377971872158354 -1.5984142262995e-18)
(0.408591739994235 0.00224724215573508 2.7948152037249e-17)
(0.268762899121793 0.00378746163855367 2.92733524658619e-17)
(0.408574806409202 0.00225269708322964 2.57743062249042e-17)
(0.26870175104287 0.00379396979712673 1.67555826832151e-17)
(0.408560821669953 0.00225836045928664 4.36478365839158e-17)
(0.268645088287393 0.00380026938557482 4.29099953239044e-17)
(0.408548764236753 0.00226470725555243 2.3949235898337e-17)
(0.268590641394292 0.0038073232622256 4.81849333538357e-17)
(0.408539151222142 0.00227111438715468 -1.94951748207052e-17)
(0.268539020325527 0.00381501888459746 -1.05651831516202e-17)
(0.408532106278258 0.00227637739009398 -3.07970538210782e-17)
(0.268490654242414 0.00382217498374746 -4.82194025853327e-17)
(0.408527279598923 0.00228091119908384 -7.16818189174757e-17)
(0.268444749224758 0.00382755497147922 -4.4118892909341e-17)
(0.408524985376892 0.00228658237165998 -8.23960741539293e-17)
(0.268401666617833 0.0038332550760149 -1.6222725598985e-16)
(0.408526086598364 0.00229235592800833 -3.25822404717698e-17)
(0.268362045752602 0.00384077561240109 -7.53927856491524e-17)
(0.408529969378517 0.00229658766449418 -2.78394992788763e-17)
(0.268325934201111 0.00384663395483728 -1.96451046059999e-17)
(0.408537117438781 0.00230072411190792 -4.75847299101535e-17)
(0.268293050325087 0.00385108844889637 -5.03970106420709e-17)
(0.408548328677597 0.00230600941382557 -8.00386373212296e-17)
(0.268264082351053 0.00385666026946297 -1.274089216657e-16)
(0.408563137216175 0.0023116630519255 -7.01183592317199e-17)
(0.268239713118205 0.00386343526304948 -1.32319079904349e-16)
(0.408580640537987 0.00231702292268685 2.66494704215566e-17)
(0.268218925628451 0.00386984452596677 -3.40189731232016e-17)
(0.408601458392597 0.00232284641828443 5.22580236146803e-17)
(0.268201595070947 0.00387613042685256 8.68878148898817e-17)
(0.408627224551704 0.00232870890631375 1.06416597855494e-17)
(0.268189325934796 0.00388337191107439 1.36263980432871e-17)
(0.408657170327705 0.00233400145196157 -1.52896028596144e-17)
(0.268182586690753 0.00388970885739565 1.09037644753167e-17)
(0.408691330857711 0.00233969660149788 -7.71959582324392e-18)
(0.268180457440028 0.00389587431056199 -2.18210847294783e-17)
(0.408730946800916 0.00234599844718613 1.60212030362465e-17)
(0.268183859496615 0.0039029677888096 2.84183358971018e-17)
(0.408776490444967 0.00235209847613344 1.37651605139627e-17)
(0.268194243277288 0.00391034071495919 1.42577178853392e-17)
(0.408827237984075 0.00235826566522195 -2.39585928050027e-17)
(0.268211083654476 0.00391706752835933 1.06017657706002e-17)
(0.408883636293083 0.00236582857011107 -1.45426774249379e-17)
(0.268234138173221 0.00392471774217768 -1.00449017415713e-16)
(0.408947922131329 0.00237316641416273 8.59311065916645e-18)
(0.268265426365874 0.00393417500083494 5.46665127294283e-17)
(0.409020023446015 0.00237890131327382 -1.13196518793145e-17)
(0.268306053564709 0.00394130088316746 2.44744057396906e-17)
(0.409100904326037 0.00238537487005788 -2.39185334608693e-17)
(0.268355621274218 0.00394753501806999 -3.02507679762937e-18)
(0.409192119041495 0.00239393258393002 -1.7415253956183e-17)
(0.268415905906937 0.00395610777271126 -2.84549403755601e-17)
(0.40929350366042 0.0024031041100735 1.64752648201697e-17)
(0.268488709059366 0.00396668669410008 1.07168279708812e-17)
(0.409403939169439 0.00241194235013231 1.1644603267525e-16)
(0.268572961183378 0.00397665845824522 2.88338298120934e-17)
(0.409525575147778 0.00242217900638833 1.19823358732464e-16)
(0.268668507983912 0.00398676371895048 1.97220049577191e-16)
(0.409663251490622 0.00243266246107818 2.12047360333796e-17)
(0.268780541298741 0.00399936100043889 6.46299735696991e-17)
(0.409816260186911 0.00244204115798575 5.44242371774378e-17)
(0.268911364060296 0.00400990250801856 -9.57119285570558e-18)
(0.40998556607169 0.0024531968156521 3.65472108536755e-17)
(0.269059161853099 0.00402044780913481 8.10230533537526e-17)
(0.410174750219286 0.00246728063536085 2.02476429429241e-17)
(0.269227810191733 0.00403461019428381 -9.34939799289589e-17)
(0.410385414435385 0.00248164696492062 1.24160744431462e-16)
(0.269421667737559 0.00405124392977891 8.87949431367817e-17)
(0.410617354803621 0.00249588166178055 2.43757169583432e-16)
(0.269640411951617 0.0040661041950012 2.49085314656211e-16)
(0.410874232660754 0.00251498175358039 3.34307792855714e-16)
(0.269885138040307 0.00408293217442757 3.3224126307381e-16)
(0.411163708405013 0.00253599406046398 1.45751896472721e-16)
(0.270165045800337 0.00410758261214958 3.86696240380186e-16)
(0.411485253878991 0.00255470914413686 -1.11719850160086e-16)
(0.270484267008295 0.00412838872153209 -8.53636126769647e-17)
(0.411843396665056 0.00257711796023024 -1.04622370522346e-16)
(0.270841606723223 0.00414876284432655 -1.38289751183439e-16)
(0.412247708030724 0.00260553715907312 -8.92173973283552e-17)
(0.271247278321915 0.00417702833261641 -9.31709723847523e-17)
(0.412703038079693 0.00263428721843282 -1.28587653425249e-16)
(0.271712440676349 0.00420986969568208 -1.64872527619905e-16)
(0.413211466082101 0.00266336252454858 -9.60669211568464e-17)
(0.272238236768392 0.0042389768088857 -1.75261057236682e-16)
(0.413782607850551 0.00270393207338213 -4.77963253684029e-17)
(0.272829509822015 0.00427350030875199 -7.70776844513125e-17)
(0.41443455558375 0.00274880606697619 6.47062592135638e-17)
(0.273508702346765 0.00432583450391084 -5.53521026488231e-17)
(0.41516965851072 0.00278960245300906 1.91015754165241e-16)
(0.274287503106157 0.0043692603288414 2.18130255681692e-16)
(0.415998784113298 0.00284110990004646 -4.77054108899169e-17)
(0.275167623820054 0.00441437118240903 2.61668681702285e-16)
(0.416945353428469 0.00290510428948568 -1.59994030981893e-16)
(0.276172535757678 0.00447952513644576 -3.34604418867376e-16)
(0.418027160643167 0.00296769424667341 -3.74486481793314e-17)
(0.277333051144533 0.00455027125870227 -4.56896108581899e-18)
(0.419257270337687 0.00303246910981724 -5.09773023671359e-17)
(0.278661486734558 0.00461256045398589 -8.82745283777667e-17)
(0.420662426403881 0.00312336972778315 2.29462379297516e-17)
(0.280174405499564 0.00468985152979645 -5.06292920837711e-17)
(0.422288005791592 0.00322161099413983 4.02962201188743e-17)
(0.281931541477554 0.00480439664654633 1.11617898194406e-16)
(0.424150413610555 0.00330902258282021 -1.22266954538042e-16)
(0.283967578003533 0.00489614077079845 4.73626599046558e-18)
(0.426286527828884 0.00342247766924464 -1.39001856891193e-16)
(0.286297433631122 0.00499098787128742 -2.94176215008593e-16)
(0.428759445068115 0.00356334964931019 3.68241510528226e-17)
(0.288994638441944 0.0051344541785464 -3.80707565864646e-17)
(0.431619132337508 0.00369478705480342 4.46736479347061e-17)
(0.292139873165975 0.00528413383375005 1.08487568135038e-16)
(0.434921447890463 0.00382763833065845 -6.32048541353254e-17)
(0.295778678322277 0.00540748987631864 -3.3226440527001e-18)
(0.438752889289058 0.00401609059370446 -2.93732490549446e-17)
(0.299981694464787 0.00556311253482009 -1.24652611464308e-16)
(0.443235673350667 0.00421385936560073 2.02877389868019e-17)
(0.304916658070317 0.00579376330737245 5.87981445137346e-17)
(0.448471319036474 0.0043886041014922 -3.88259943023501e-17)
(0.310690341374735 0.00596461503283357 3.36081238818987e-17)
(0.454682312006871 0.00467847455510393 -1.25289660651933e-17)
(0.31742855957324 0.00616252450908777 -1.12685190034244e-16)
(0.462245781610802 0.00509710005024427 1.05422905818018e-16)
(0.325520655419608 0.00656745756068888 6.75236569961209e-17)
(0.471494703605112 0.00550691241701895 1.54109012974755e-17)
(0.335477310050797 0.00702104284820125 1.20817432250411e-16)
(0.482670756704007 0.0059403278669233 2.74457986181371e-17)
(0.347557950467445 0.00741844958310582 -1.61607548704541e-16)
(0.495985124983705 0.00643707211223114 1.49327967947058e-16)
(0.362142555915646 0.00791540532779591 2.02584576061766e-16)
(0.511578378300029 0.00674009142434075 1.39654594777417e-16)
(0.379482210405021 0.00838362969923923 1.38731035745155e-16)
(0.529462486503278 0.00677600109314697 3.6476630239029e-17)
(0.399781763753359 0.00844733191600856 1.61846782698893e-16)
(0.549665771383174 0.00669319545832282 -7.46501220951769e-18)
(0.422696705592014 0.00832782708270074 -1.18995510266539e-16)
(0.572279255909823 0.00641264289217605 4.8518422440508e-17)
(0.448836451524844 0.0080505364398922 7.48850019569386e-17)
(0.597212471493919 0.00589194208403714 -4.86631919500136e-17)
(0.477389846710723 0.00747132118394082 4.64550624580949e-17)
(0.62457334431485 0.00523749325160164 -2.54795183506619e-17)
(0.509631089077326 0.00665514178682384 -1.73760925634951e-16)
(0.654229854831292 0.00437423737588897 4.89027598748779e-17)
(0.54339910763248 0.00571134589601945 7.63890281618767e-17)
(0.686542484899785 0.00344188491964167 -2.92318213619875e-17)
(0.582260647092812 0.0044441481656178 -4.75258778221242e-18)
(0.721324857500472 0.00240402924671888 7.50723596551805e-18)
(0.620729967769457 0.00329325237395315 -6.42273399193154e-17)
(0.759599673108769 0.00133017612060923 7.55489778096603e-18)
(0.668308819172119 0.001776955830918 1.25932750061531e-16)
(0.800928456843824 0.000109440441071067 -7.61951390782768e-17)
(0.710936646641927 0.000463772593827792 -9.84328816849871e-17)
(0.848073894809706 -0.000777877760382992 -1.01349924928814e-16)
(0.772302029607212 -0.00124069212826865 -9.72606147951118e-17)
(0.900394638440157 -0.00171135030469222 -1.07465111748495e-17)
(0.819034141615192 -0.0021169138975921 -1.55063046816674e-16)
(0.955879064770957 -0.000784106917426665 8.60303826061213e-17)
(0.907544909565029 -0.00346361478205358 1.2816272222157e-16)
(0.954254192312146 -6.70218885078253e-05 3.15964370416529e-17)
(0.937873141011492 0.000155559655514206 6.958878810199e-17)
(0.954093121229449 -2.95618240670487e-05 -1.52052293410266e-17)
(0.919192699776162 -0.000208434656392013 8.79903866607323e-18)
(0.951466610144353 -7.84282090203706e-05 -8.97990657675025e-18)
(0.928145352788333 -2.72608401475342e-05 -2.98361551604884e-17)
(0.9488333343363 -8.85476755856469e-05 1.60138534509517e-17)
(0.917988230859074 -0.000175866445725176 5.7214593391996e-18)
(0.945097149950751 -0.00013173002224716 1.10191291862251e-17)
(0.918064097221411 -0.000118953547959667 2.44898842823222e-17)
(0.94118676146146 -0.000150236486531816 -9.51822369353602e-18)
(0.910778605162357 -0.000194919781362267 -4.1351468180566e-18)
(0.936683258075856 -0.000180365103705521 -2.37754897767177e-18)
(0.907113075436969 -0.000196752300333319 -2.34197351128955e-17)
(0.932009902323488 -0.000211145135218982 1.03672669014141e-18)
(0.900482524797945 -0.000245907975310658 1.1923487852378e-17)
(0.927077765862941 -0.000234839720375261 -3.08320323187898e-18)
(0.895161526172433 -0.000264985663975515 -1.47158632410676e-17)
(0.922093921416459 -0.00025785650486847 1.12326576025837e-18)
(0.888665051102942 -0.000296757675261595 4.6864641734975e-18)
(0.91710575115785 -0.000270662033195775 -1.11811889594738e-18)
(0.882789900912826 -0.000311397277558232 -6.10468376199763e-19)
(0.912294624045204 -0.00026419525752101 -1.62585754826753e-18)
(0.876510142218126 -0.000326801840811686 -6.65173068428927e-19)
(0.908257001898725 -0.000108805207729793 -1.40042157881623e-18)
(0.870959763943175 -0.000333404040855928 -3.62443810126153e-18)
(0.866210554249623 -0.000204837089750271 -1.18486747974219e-19)
(0.125363191905548 0.0040794810852899 -4.20171220719691e-18)
(0.0196725198608999 0.00526697428888933 -4.46054414642293e-18)
(0.127054521295801 0.00454569462503735 -1.43537905154648e-18)
(0.0231192665080469 0.00564671849894165 -6.16729209100405e-18)
(0.127818182643918 0.00491336989485822 -1.35307000061239e-18)
(0.0237353619531041 0.00630177179908025 1.79763965938072e-18)
(0.128098870784618 0.00517415224795009 -1.27059106034468e-18)
(0.0241947216976456 0.00676535878690075 -9.02573716566989e-18)
(0.128137719455583 0.00531262138034929 4.67988994378177e-18)
(0.0242392111929876 0.00701689743903662 2.1245411167917e-18)
(0.128080175335995 0.00537512187049346 1.50242890619477e-17)
(0.0241583797105598 0.0071301888533842 8.51691906640877e-18)
(0.127991314612392 0.00540183859778144 1.57057601393397e-17)
(0.0240302648147301 0.00717658342436167 1.683740950582e-17)
(0.127895941408859 0.00541479106152246 1.42121648749977e-17)
(0.0238912190756186 0.00719636888810214 -1.48620732024688e-18)
(0.127802488146615 0.00542343086173135 1.80155592406686e-17)
(0.0237521149648733 0.00720733946330818 1.21270698370341e-17)
(0.12771340147442 0.00543110542808724 3.39799347986541e-17)
(0.0236170514996139 0.00721614436315686 1.09136143492825e-17)
(0.127627877526592 0.0054390546704221 4.74731622600072e-17)
(0.0234862456379311 0.00722471967163222 5.97023052849676e-17)
(0.127545468020644 0.00544773529753885 1.34992267923804e-17)
(0.02335853012285 0.00723404907410522 4.22291051870452e-17)
(0.127466757503076 0.0054564644537049 -3.94484016329559e-17)
(0.0232345075386256 0.00724399305078494 -2.31979366460454e-17)
(0.127391654801478 0.00546402396166203 -6.16431398064939e-17)
(0.0231146824603264 0.00725340632771205 -8.00119427079336e-17)
(0.127319243427665 0.00547084045163149 -1.35167883614865e-16)
(0.0229980553449019 0.00726120519058334 -6.4907541014128e-17)
(0.127250072308696 0.00547867908234184 -1.55274661743953e-16)
(0.0228842971917814 0.00726923564575872 -2.15885875939872e-16)
(0.12718551235129 0.00548655627888901 -6.24254096341589e-17)
(0.0227748875057192 0.00727875394086347 -1.23308597292562e-16)
(0.127124704299808 0.00549288945822231 -4.23274821893184e-17)
(0.0226701268457312 0.00728677932941885 -1.69242733314935e-17)
(0.127067344558249 0.00549906749044643 -1.30694048319729e-16)
(0.0225688000610236 0.00729348041481241 -6.48031162711606e-17)
(0.127014566806072 0.00550640445174041 -1.80037235129809e-16)
(0.0224714654940539 0.00730114647246025 -2.27568249544289e-16)
(0.126966737349295 0.0055141798346337 -9.60557226184509e-17)
(0.0223794488968709 0.00730992580562562 -1.94862427090255e-16)
(0.12692319179902 0.00552172604600875 2.65307439791348e-17)
(0.0222923763611129 0.00731841833645083 -2.74176057463337e-17)
(0.126884463391649 0.00552968648258723 4.80509782787954e-17)
(0.0222099021576682 0.00732681116594556 8.03888395857183e-17)
(0.126852022710091 0.00553765194968498 1.38916057999411e-17)
(0.022133578780548 0.0073359810253135 2.52895490343057e-17)
(0.126825314470577 0.00554505984513359 4.34577636572578e-18)
(0.0220639379122654 0.00734432448475313 3.00668670910722e-17)
(0.126804384311263 0.00555284376506113 1.4523115102635e-17)
(0.0220000880984237 0.00735245688603431 -2.14337282165933e-18)
(0.12679066405672 0.00556123651765358 2.66479889143054e-17)
(0.0219430746414193 0.00736141738654589 6.71748828601184e-17)
(0.126784761600829 0.00556944624914159 1.10759343439184e-17)
(0.0218944629741318 0.00737061883408091 1.82609433574026e-17)
(0.126786102359558 0.00557780464815803 -6.63325298825804e-17)
(0.0218538861721058 0.00737922318529856 6.88451582604025e-18)
(0.126795812816293 0.00558754799398842 -3.08359111703084e-17)
(0.0218212195582297 0.0073887121349769 -1.45620885459414e-16)
(0.126816267074404 0.00559698621238309 7.06371501106026e-17)
(0.0217992089359891 0.00739976444799888 9.11698979880835e-17)
(0.12684682982432 0.00560474437288612 3.28114399897715e-17)
(0.0217887470873526 0.00740858897441864 6.63350890923168e-17)
(0.126887885145897 0.00561324862821767 -7.59371721679455e-18)
(0.021788485081934 0.00741647161258582 -7.41601459847574e-19)
(0.126941973264448 0.00562401305746307 -1.53470996122442e-19)
(0.0218004041894399 0.00742658769909524 -3.44065621624713e-18)
(0.127010350003135 0.00563551542008193 2.31508215158814e-17)
(0.0218275525637181 0.00743865660955435 1.88011280668487e-17)
(0.127092387737322 0.00564677617800872 1.10133941671996e-16)
(0.021869937798809 0.0074501485256852 2.87173968086575e-17)
(0.127190278296981 0.00565938026424488 1.41648478129146e-16)
(0.0219272509879877 0.00746177460104115 1.98899679773229e-16)
(0.127308621246891 0.00567216700825401 3.36379502040782e-17)
(0.022004582134162 0.007475569489962 1.32626498413052e-16)