/*--------------------------------*- C++ -*----------------------------------*\
| =========                 |                                                 |
| \\      /  F ield         | foam-extend: Open Source CFD                    |
|  \\    /   O peration     | Version:     4.1-20200408                       |
|   \\  /    A nd           | Web:         http://www.foam-extend.org         |
|    \\/     M anipulation  |                                                 |
\*---------------------------------------------------------------------------*/
FoamFile
{
    version     2.0;
    format      ascii;
    class       pointVectorField;
    location    "0.0745000";
    object      pointDU;
}
// * * * * * * * * * * * * * * * * * * * * * * * * * * * * * * * * * * * * * //

dimensions      [0 1 0 0 0 0 0];

internalField   nonuniform List<vector> 
4059
(
(0 -1.07788e-18 2.77394e-17)
(0 -9.5994e-15 4.2062e-16)
(0 -2.63298e-09 1.14958e-10)
(0 -2.12436e-18 5.4885e-17)
(0 -9.5994e-15 -3.91361e-16)
(0 -2.63298e-09 -1.14959e-10)
(0 2.46931e-15 -1.06312e-16)
(0 8.95629e-16 -3.7603e-17)
(0 5.11462e-16 -2.08299e-17)
(0 2.77265e-16 -1.06046e-17)
(0 1.58128e-16 -5.40307e-18)
(0 4.57173e-17 -4.95124e-19)
(0 -2.88875e-17 2.76232e-18)
(0 -7.31733e-17 4.69592e-18)
(0 -1.50053e-16 8.05237e-18)
(0 -1.24285e-16 6.92731e-18)
(0 -2.26121e-16 1.13738e-17)
(0 -1.22157e-16 6.83453e-18)
(0 -2.61453e-16 1.29162e-17)
(0 -7.84912e-17 4.92797e-18)
(0 -3.32929e-16 1.60371e-17)
(0 -2.04758e-09 8.93991e-11)
(0 -1.57117e-09 6.85985e-11)
(0 -1.20666e-09 5.26839e-11)
(0 -8.88412e-10 3.87888e-11)
(0 -6.44503e-10 2.81396e-11)
(0 -4.24371e-10 1.85284e-11)
(0 -2.41339e-10 1.0537e-11)
(0 -1.04012e-10 4.5412e-12)
(0 8.50774e-12 -3.7149e-13)
(0 9.19052e-11 -4.0127e-12)
(0 1.42797e-10 -6.23467e-12)
(0 1.52531e-10 -6.65968e-12)
(0 1.36982e-10 -5.98076e-12)
(0 1.04517e-10 -4.56334e-12)
(0 5.51646e-11 -2.40854e-12)
(0 2.46931e-15 1.35571e-16)
(0 8.95629e-16 6.68627e-17)
(0 5.11462e-16 5.00896e-17)
(0 2.77265e-16 3.98643e-17)
(0 1.58128e-16 3.46626e-17)
(0 4.57173e-17 2.97546e-17)
(0 -2.88875e-17 2.64974e-17)
(0 -7.31733e-17 2.45639e-17)
(0 -1.50053e-16 2.1207e-17)
(0 -1.24285e-16 2.23321e-17)
(0 -2.26121e-16 1.78861e-17)
(0 -1.22157e-16 2.24251e-17)
(0 -2.61453e-16 1.63432e-17)
(0 -7.84912e-17 2.43316e-17)
(0 -3.32929e-16 1.32227e-17)
(0 -2.04758e-09 -8.93993e-11)
(0 -1.57117e-09 -6.85987e-11)
(0 -1.20666e-09 -5.26841e-11)
(0 -8.88412e-10 -3.87889e-11)
(0 -6.44503e-10 -2.81396e-11)
(0 -4.24371e-10 -1.85284e-11)
(0 -2.41339e-10 -1.05371e-11)
(0 -1.04012e-10 -4.5412e-12)
(0 8.50774e-12 3.71512e-13)
(0 9.19052e-11 4.01273e-12)
(0 1.42797e-10 6.23472e-12)
(0 1.52531e-10 6.65974e-12)
(0 1.36982e-10 5.98082e-12)
(0 1.04517e-10 4.5634e-12)
(0 5.51646e-11 2.4086e-12)
(5.00049e-05 -7.59464e-10 3.31589e-11)
(5.00049e-05 -7.59464e-10 -3.3159e-11)
(5.00048e-05 -3.8622e-10 -1.68627e-11)
(5.00048e-05 -3.8622e-10 1.68627e-11)
(5.0005e-05 -1.12639e-09 4.91792e-11)
(5.0005e-05 -1.12639e-09 -4.91793e-11)
(5.00053e-05 -1.46205e-09 6.38344e-11)
(5.00053e-05 -1.46205e-09 -6.38346e-11)
(5.00056e-05 -1.77394e-09 7.7452e-11)
(5.00056e-05 -1.77394e-09 -7.74522e-11)
(5.00059e-05 -2.03448e-09 8.88272e-11)
(5.00059e-05 -2.03448e-09 -8.88274e-11)
(5.00064e-05 -2.25468e-09 9.84413e-11)
(5.00064e-05 -2.25468e-09 -9.84416e-11)
(5.0007e-05 -2.41318e-09 1.05361e-10)
(5.0007e-05 -2.41318e-09 -1.05362e-10)
(5.00077e-05 -2.52034e-09 1.10041e-10)
(5.00077e-05 -2.52034e-09 -1.10041e-10)
(5.00085e-05 -2.55127e-09 1.11391e-10)
(5.00085e-05 -2.55127e-09 -1.11391e-10)
(5.00094e-05 -2.52452e-09 1.10223e-10)
(5.00094e-05 -2.52452e-09 -1.10223e-10)
(5.00105e-05 -2.42771e-09 1.05996e-10)
(5.00105e-05 -2.42771e-09 -1.05996e-10)
(5.00118e-05 -2.29154e-09 1.00051e-10)
(5.00118e-05 -2.29154e-09 -1.00051e-10)
(5.00133e-05 -2.13258e-09 9.31106e-11)
(5.00133e-05 -2.13258e-09 -9.31108e-11)
(5.0015e-05 -2.0393e-09 8.90378e-11)
(5.0015e-05 -2.0393e-09 -8.9038e-11)
(5.00166e-05 -2.11469e-09 9.23295e-11)
(5.00166e-05 -2.11469e-09 -9.23297e-11)
(5.00047e-05 -1.19069e-18 3.06427e-17)
(5.00053e-05 -4.46048e-10 1.94749e-11)
(5.00053e-05 -4.46048e-10 -1.94749e-11)
(5.00052e-05 -2.26912e-10 -9.90717e-12)
(5.00052e-05 -2.26912e-10 9.90717e-12)
(5.00055e-05 -6.53817e-10 2.85463e-11)
(5.00055e-05 -6.53817e-10 -2.85463e-11)
(5.00058e-05 -8.36274e-10 3.65125e-11)
(5.00058e-05 -8.36274e-10 -3.65126e-11)
(5.00061e-05 -9.93802e-10 4.33903e-11)
(5.00061e-05 -9.93802e-10 -4.33904e-11)
(5.00065e-05 -1.1078e-09 4.83677e-11)
(5.00065e-05 -1.1078e-09 -4.83678e-11)
(5.0007e-05 -1.18448e-09 5.17157e-11)
(5.0007e-05 -1.18448e-09 -5.17158e-11)
(5.00076e-05 -1.21029e-09 5.28426e-11)
(5.00076e-05 -1.21029e-09 -5.28427e-11)
(5.00083e-05 -1.19305e-09 5.20896e-11)
(5.00083e-05 -1.19305e-09 -5.20897e-11)
(5.00091e-05 -1.11896e-09 4.88547e-11)
(5.00091e-05 -1.11896e-09 -4.88548e-11)
(5.001e-05 -1.00531e-09 4.38928e-11)
(5.001e-05 -1.00531e-09 -4.38929e-11)
(5.00111e-05 -8.52892e-10 3.7238e-11)
(5.00111e-05 -8.52892e-10 -3.72381e-11)
(5.00123e-05 -6.9326e-10 3.02684e-11)
(5.00123e-05 -6.9326e-10 -3.02684e-11)
(5.00136e-05 -5.46708e-10 2.38698e-11)
(5.00136e-05 -5.46708e-10 -2.38698e-11)
(5.0015e-05 -4.78242e-10 2.08805e-11)
(5.0015e-05 -4.78242e-10 -2.08805e-11)
(5.00164e-05 -5.13872e-10 2.24361e-11)
(5.00164e-05 -5.13872e-10 -2.24362e-11)
(5.00052e-05 -1.19071e-18 3.0643e-17)
(5.00061e-05 -1.83232e-10 8.0001e-12)
(5.00061e-05 -1.83232e-10 -8.00008e-12)
(5.0006e-05 -9.47404e-11 -4.13643e-12)
(5.0006e-05 -9.47404e-11 4.13645e-12)
(5.00063e-05 -2.6079e-10 1.13863e-11)
(5.00063e-05 -2.6079e-10 -1.13863e-11)
(5.00065e-05 -3.17005e-10 1.38407e-11)
(5.00065e-05 -3.17005e-10 -1.38407e-11)
(5.00069e-05 -3.51559e-10 1.53494e-11)
(5.00069e-05 -3.51559e-10 -1.53494e-11)
(5.00073e-05 -3.51221e-10 1.53346e-11)
(5.00073e-05 -3.51221e-10 -1.53347e-11)
(5.00078e-05 -3.21115e-10 1.40202e-11)
(5.00078e-05 -3.21115e-10 -1.40202e-11)
(5.00084e-05 -2.51371e-10 1.09751e-11)
(5.00084e-05 -2.51371e-10 -1.09751e-11)
(5.00091e-05 -1.50291e-10 6.56187e-12)
(5.00091e-05 -1.50291e-10 -6.56185e-12)
(5.00098e-05 -1.14744e-11 5.00985e-13)
(5.00098e-05 -1.14744e-11 -5.00951e-13)
(5.00107e-05 1.48497e-10 -6.48352e-12)
(5.00107e-05 1.48497e-10 6.48357e-12)
(5.00117e-05 3.23688e-10 -1.41325e-11)
(5.00117e-05 3.23688e-10 1.41326e-11)
(5.00128e-05 4.84528e-10 -2.11549e-11)
(5.00128e-05 4.84528e-10 2.1155e-11)
(5.00139e-05 6.12371e-10 -2.67367e-11)
(5.00139e-05 6.12371e-10 2.67368e-11)
(5.0015e-05 6.54685e-10 -2.85841e-11)
(5.0015e-05 6.54685e-10 2.85843e-11)
(5.0016e-05 6.00241e-10 -2.62071e-11)
(5.0016e-05 6.00241e-10 2.62072e-11)
(5.00059e-05 -1.19072e-18 3.06435e-17)
(5.00069e-05 2.78893e-11 -1.21767e-12)
(5.00069e-05 2.78893e-11 1.21771e-12)
(5.00068e-05 1.13631e-11 4.96157e-13)
(5.00068e-05 1.13631e-11 -4.96123e-13)
(5.00071e-05 5.33184e-11 -2.32793e-12)
(5.00071e-05 5.33184e-11 2.32797e-12)
(5.00074e-05 9.6132e-11 -4.19721e-12)
(5.00074e-05 9.6132e-11 4.19725e-12)
(5.00077e-05 1.55607e-10 -6.79393e-12)
(5.00077e-05 1.55607e-10 6.79398e-12)
(5.00081e-05 2.4199e-10 -1.05655e-11)
(5.00081e-05 2.4199e-10 1.05656e-11)
(5.00086e-05 3.49396e-10 -1.52549e-11)
(5.00086e-05 3.49396e-10 1.5255e-11)
(5.00092e-05 4.84987e-10 -2.1175e-11)
(5.00092e-05 4.84987e-10 2.11751e-11)
(5.00099e-05 6.39356e-10 -2.79149e-11)
(5.00099e-05 6.39356e-10 2.7915e-11)
(5.00106e-05 8.14589e-10 -3.55657e-11)
(5.00106e-05 8.14589e-10 3.55658e-11)
(5.00115e-05 9.95054e-10 -4.3445e-11)
(5.00115e-05 9.95054e-10 4.34451e-11)
(5.00123e-05 1.17281e-09 -5.12058e-11)
(5.00123e-05 1.17281e-09 5.1206e-11)
(5.00133e-05 1.32414e-09 -5.78133e-11)
(5.00133e-05 1.32414e-09 5.78135e-11)
(5.00142e-05 1.43483e-09 -6.2646e-11)
(5.00142e-05 1.43483e-09 6.26462e-11)
(5.00151e-05 1.4732e-09 -6.43213e-11)
(5.00151e-05 1.4732e-09 6.43215e-11)
(5.00158e-05 1.44003e-09 -6.28733e-11)
(5.00158e-05 1.44003e-09 6.28735e-11)
(5.00068e-05 -1.19074e-18 3.0644e-17)
(5.00079e-05 1.91544e-10 -8.36297e-12)
(5.00079e-05 1.91544e-10 8.36302e-12)
(5.00078e-05 9.36854e-11 4.09043e-12)
(5.00078e-05 9.36854e-11 -4.09039e-12)
(5.00081e-05 2.95691e-10 -1.29101e-11)
(5.00081e-05 2.95691e-10 1.29102e-11)
(5.00083e-05 4.13483e-10 -1.8053e-11)
(5.00083e-05 4.13483e-10 1.80531e-11)
(5.00087e-05 5.42389e-10 -2.36812e-11)
(5.00087e-05 5.42389e-10 2.36813e-11)
(5.00091e-05 6.90908e-10 -3.01657e-11)
(5.00091e-05 6.90908e-10 3.01658e-11)
(5.00096e-05 8.51905e-10 -3.7195e-11)
(5.00096e-05 8.51905e-10 3.71951e-11)
(5.00101e-05 1.03107e-09 -4.50173e-11)
(5.00101e-05 1.03107e-09 4.50174e-11)
(5.00107e-05 1.21818e-09 -5.31869e-11)
(5.00107e-05 1.21818e-09 5.31871e-11)
(5.00114e-05 1.4133e-09 -6.17058e-11)
(5.00114e-05 1.4133e-09 6.1706e-11)
(5.00122e-05 1.60246e-09 -6.99647e-11)
(5.00122e-05 1.60246e-09 6.99649e-11)
(5.0013e-05 1.77769e-09 -7.76154e-11)
(5.0013e-05 1.77769e-09 7.76156e-11)
(5.00138e-05 1.92113e-09 -8.38783e-11)
(5.00138e-05 1.92113e-09 8.38786e-11)
(5.00145e-05 2.02187e-09 -8.82768e-11)
(5.00145e-05 2.02187e-09 8.82771e-11)
(5.00152e-05 2.06052e-09 -8.99641e-11)
(5.00152e-05 2.06052e-09 8.99643e-11)
(5.00158e-05 2.04086e-09 -8.9106e-11)
(5.00158e-05 2.04086e-09 8.91062e-11)
(5.00077e-05 -1.19077e-18 3.06446e-17)
(5.00089e-05 3.12776e-10 -1.36561e-11)
(5.00089e-05 3.12776e-10 1.36561e-11)
(5.00088e-05 1.54768e-10 6.75738e-12)
(5.00088e-05 1.54768e-10 -6.75733e-12)
(5.00091e-05 4.74439e-10 -2.07144e-11)
(5.00091e-05 4.74439e-10 2.07145e-11)
(5.00093e-05 6.463e-10 -2.82181e-11)
(5.00093e-05 6.463e-10 2.82182e-11)
(5.00097e-05 8.24007e-10 -3.59769e-11)
(5.00097e-05 8.24007e-10 3.5977e-11)
(5.00101e-05 1.01514e-09 -4.4322e-11)
(5.00101e-05 1.01514e-09 4.43222e-11)
(5.00105e-05 1.2112e-09 -5.28822e-11)
(5.00105e-05 1.2112e-09 5.28823e-11)
(5.0011e-05 1.41717e-09 -6.1875e-11)
(5.0011e-05 1.41717e-09 6.18752e-11)
(5.00116e-05 1.62237e-09 -7.08342e-11)
(5.00116e-05 1.62237e-09 7.08344e-11)
(5.00123e-05 1.82621e-09 -7.9734e-11)
(5.00123e-05 1.82621e-09 7.97343e-11)
(5.00129e-05 2.01676e-09 -8.80536e-11)
(5.00129e-05 2.01676e-09 8.80538e-11)
(5.00136e-05 2.1869e-09 -9.54822e-11)
(5.00136e-05 2.1869e-09 9.54825e-11)
(5.00143e-05 2.3246e-09 -1.01494e-10)
(5.00143e-05 2.3246e-09 1.01495e-10)
(5.00149e-05 2.42165e-09 -1.05731e-10)
(5.00149e-05 2.42165e-09 1.05732e-10)
(5.00155e-05 2.46875e-09 -1.07788e-10)
(5.00155e-05 2.46875e-09 1.07788e-10)
(5.00159e-05 2.47044e-09 -1.07862e-10)
(5.00159e-05 2.47044e-09 1.07862e-10)
(5.00087e-05 -1.19079e-18 3.06452e-17)
(5.00099e-05 3.97481e-10 -1.73544e-11)
(5.00099e-05 3.97481e-10 1.73545e-11)
(5.00098e-05 1.97529e-10 8.62435e-12)
(5.00098e-05 1.97529e-10 -8.6243e-12)
(5.00101e-05 5.98733e-10 -2.61412e-11)
(5.00101e-05 5.98733e-10 2.61413e-11)
(5.00104e-05 8.07276e-10 -3.52464e-11)
(5.00104e-05 8.07276e-10 3.52466e-11)
(5.00107e-05 1.01711e-09 -4.44079e-11)
(5.00107e-05 1.01711e-09 4.44081e-11)
(5.0011e-05 1.23548e-09 -5.39422e-11)
(5.0011e-05 1.23548e-09 5.39423e-11)
(5.00115e-05 1.45267e-09 -6.3425e-11)
(5.00115e-05 1.45267e-09 6.34252e-11)
(5.0012e-05 1.67366e-09 -7.30737e-11)
(5.0012e-05 1.67366e-09 7.30739e-11)
(5.00125e-05 1.88762e-09 -8.24153e-11)
(5.00125e-05 1.88762e-09 8.24155e-11)
(5.00131e-05 2.09418e-09 -9.14337e-11)
(5.00131e-05 2.09418e-09 9.1434e-11)
(5.00137e-05 2.28347e-09 -9.96982e-11)
(5.00137e-05 2.28347e-09 9.96985e-11)
(5.00142e-05 2.44944e-09 -1.06945e-10)
(5.00142e-05 2.44944e-09 1.06945e-10)
(5.00148e-05 2.58487e-09 -1.12858e-10)
(5.00148e-05 2.58487e-09 1.12858e-10)
(5.00153e-05 2.68308e-09 -1.17146e-10)
(5.00153e-05 2.68308e-09 1.17146e-10)
(5.00157e-05 2.74156e-09 -1.19699e-10)
(5.00157e-05 2.74156e-09 1.19699e-10)
(5.0016e-05 2.76369e-09 -1.20665e-10)
(5.0016e-05 2.76369e-09 1.20666e-10)
(5.00098e-05 -1.19082e-18 3.06458e-17)
(5.0011e-05 4.51533e-10 -1.97144e-11)
(5.0011e-05 4.51533e-10 1.97144e-11)
(5.00109e-05 2.24881e-10 9.81857e-12)
(5.00109e-05 2.24881e-10 -9.81851e-12)
(5.00112e-05 6.77534e-10 -2.95818e-11)
(5.00112e-05 6.77534e-10 2.95819e-11)
(5.00114e-05 9.08592e-10 -3.967e-11)
(5.00114e-05 9.08592e-10 3.96701e-11)
(5.00117e-05 1.13728e-09 -4.96545e-11)
(5.00117e-05 1.13728e-09 4.96547e-11)
(5.0012e-05 1.37098e-09 -5.98582e-11)
(5.0012e-05 1.37098e-09 5.98584e-11)
(5.00124e-05 1.59892e-09 -6.98103e-11)
(5.00124e-05 1.59892e-09 6.98105e-11)
(5.00129e-05 1.82657e-09 -7.97497e-11)
(5.00129e-05 1.82657e-09 7.975e-11)
(5.00134e-05 2.0431e-09 -8.92038e-11)
(5.00134e-05 2.0431e-09 8.92041e-11)
(5.00139e-05 2.24883e-09 -9.8186e-11)
(5.00139e-05 2.24883e-09 9.81863e-11)
(5.00144e-05 2.43581e-09 -1.0635e-10)
(5.00144e-05 2.43581e-09 1.0635e-10)
(5.00149e-05 2.59899e-09 -1.13474e-10)
(5.00149e-05 2.59899e-09 1.13475e-10)
(5.00154e-05 2.73509e-09 -1.19417e-10)
(5.00154e-05 2.73509e-09 1.19417e-10)
(5.00158e-05 2.83818e-09 -1.23918e-10)
(5.00158e-05 2.83818e-09 1.23918e-10)
(5.00161e-05 2.91069e-09 -1.27084e-10)
(5.00161e-05 2.91069e-09 1.27084e-10)
(5.00163e-05 2.95417e-09 -1.28982e-10)
(5.00163e-05 2.95417e-09 1.28982e-10)
(5.00108e-05 -1.19084e-18 3.06465e-17)
(5.0012e-05 4.80487e-10 -2.09785e-11)
(5.0012e-05 4.80487e-10 2.09786e-11)
(5.00119e-05 2.3959e-10 1.04608e-11)
(5.00119e-05 2.3959e-10 -1.04607e-11)
(5.00122e-05 7.19238e-10 -3.14026e-11)
(5.00122e-05 7.19238e-10 3.14027e-11)
(5.00124e-05 9.61538e-10 -4.19816e-11)
(5.00124e-05 9.61538e-10 4.19818e-11)
(5.00127e-05 1.19873e-09 -5.23377e-11)
(5.00127e-05 1.19873e-09 5.23378e-11)
(5.0013e-05 1.43876e-09 -6.28174e-11)
(5.0013e-05 1.43876e-09 6.28176e-11)
(5.00134e-05 1.66989e-09 -7.29088e-11)
(5.00134e-05 1.66989e-09 7.2909e-11)
(5.00138e-05 1.89848e-09 -8.28892e-11)
(5.00138e-05 1.89848e-09 8.28895e-11)
(5.00142e-05 2.11375e-09 -9.22884e-11)
(5.00142e-05 2.11375e-09 9.22887e-11)
(5.00147e-05 2.31692e-09 -1.01159e-10)
(5.00147e-05 2.31692e-09 1.01159e-10)
(5.00151e-05 2.5017e-09 -1.09227e-10)
(5.00151e-05 2.5017e-09 1.09227e-10)
(5.00155e-05 2.66377e-09 -1.16303e-10)
(5.00155e-05 2.66377e-09 1.16303e-10)
(5.00159e-05 2.803e-09 -1.22381e-10)
(5.00159e-05 2.803e-09 1.22382e-10)
(5.00162e-05 2.91344e-09 -1.27203e-10)
(5.00162e-05 2.91344e-09 1.27204e-10)
(5.00165e-05 3.00106e-09 -1.31029e-10)
(5.00165e-05 3.00106e-09 1.31029e-10)
(5.00166e-05 3.06509e-09 -1.33825e-10)
(5.00166e-05 3.06509e-09 1.33825e-10)
(5.00119e-05 -1.19087e-18 3.06471e-17)
(5.0013e-05 4.89281e-10 -2.13624e-11)
(5.0013e-05 4.89281e-10 2.13625e-11)
(5.0013e-05 2.44124e-10 1.06587e-11)
(5.0013e-05 2.44124e-10 -1.06587e-11)
(5.00132e-05 7.3124e-10 -3.19266e-11)
(5.00132e-05 7.3124e-10 3.19267e-11)
(5.00134e-05 9.75956e-10 -4.26111e-11)
(5.00134e-05 9.75956e-10 4.26113e-11)
(5.00136e-05 1.2137e-09 -5.29911e-11)
(5.00136e-05 1.2137e-09 5.29912e-11)
(5.00139e-05 1.4533e-09 -6.34525e-11)
(5.00139e-05 1.4533e-09 6.34527e-11)
(5.00143e-05 1.68215e-09 -7.3444e-11)
(5.00143e-05 1.68215e-09 7.34443e-11)
(5.00146e-05 1.90775e-09 -8.32941e-11)
(5.00146e-05 1.90775e-09 8.32943e-11)
(5.0015e-05 2.11936e-09 -9.25331e-11)
(5.0015e-05 2.11936e-09 9.25333e-11)
(5.00154e-05 2.31912e-09 -1.01255e-10)
(5.00154e-05 2.31912e-09 1.01255e-10)
(5.00158e-05 2.50218e-09 -1.09248e-10)
(5.00158e-05 2.50218e-09 1.09248e-10)
(5.00162e-05 2.66461e-09 -1.1634e-10)
(5.00162e-05 2.66461e-09 1.1634e-10)
(5.00165e-05 2.80884e-09 -1.22636e-10)
(5.00165e-05 2.80884e-09 1.22637e-10)
(5.00168e-05 2.92832e-09 -1.27853e-10)
(5.00168e-05 2.92832e-09 1.27854e-10)
(5.00169e-05 3.03168e-09 -1.32366e-10)
(5.00169e-05 3.03168e-09 1.32366e-10)
(5.0017e-05 3.11561e-09 -1.3603e-10)
(5.0017e-05 3.11561e-09 1.36031e-10)
(5.00129e-05 -1.19089e-18 3.06478e-17)
(5.0014e-05 4.8216e-10 -2.10515e-11)
(5.0014e-05 4.8216e-10 2.10516e-11)
(5.00139e-05 2.40612e-10 1.05054e-11)
(5.00139e-05 2.40612e-10 -1.05053e-11)
(5.00141e-05 7.19864e-10 -3.14299e-11)
(5.00141e-05 7.19864e-10 3.143e-11)
(5.00143e-05 9.60191e-10 -4.19228e-11)
(5.00143e-05 9.60191e-10 4.1923e-11)
(5.00146e-05 1.19243e-09 -5.20625e-11)
(5.00146e-05 1.19243e-09 5.20626e-11)
(5.00148e-05 1.42663e-09 -6.2288e-11)
(5.00148e-05 1.42663e-09 6.22882e-11)
(5.00152e-05 1.64926e-09 -7.20083e-11)
(5.00152e-05 1.64926e-09 7.20086e-11)
(5.00155e-05 1.86923e-09 -8.16125e-11)
(5.00155e-05 1.86923e-09 8.16127e-11)
(5.00158e-05 2.0757e-09 -9.06272e-11)
(5.00158e-05 2.0757e-09 9.06274e-11)
(5.00162e-05 2.27178e-09 -9.91879e-11)
(5.00162e-05 2.27178e-09 9.91882e-11)
(5.00165e-05 2.45374e-09 -1.07133e-10)
(5.00165e-05 2.45374e-09 1.07133e-10)
(5.00168e-05 2.61779e-09 -1.14295e-10)
(5.00168e-05 2.61779e-09 1.14295e-10)
(5.00171e-05 2.76838e-09 -1.2087e-10)
(5.00171e-05 2.76838e-09 1.20871e-10)
(5.00173e-05 2.89798e-09 -1.26529e-10)
(5.00173e-05 2.89798e-09 1.26529e-10)
(5.00174e-05 3.01722e-09 -1.31735e-10)
(5.00174e-05 3.01722e-09 1.31735e-10)
(5.00175e-05 3.12009e-09 -1.36226e-10)
(5.00175e-05 3.12009e-09 1.36227e-10)
(5.00139e-05 -1.19091e-18 3.06484e-17)
(5.00149e-05 4.62649e-10 -2.01997e-11)
(5.00149e-05 4.62649e-10 2.01998e-11)
(5.00148e-05 2.30826e-10 1.00781e-11)
(5.00148e-05 2.30826e-10 -1.00781e-11)
(5.00151e-05 6.90325e-10 -3.01402e-11)
(5.00151e-05 6.90325e-10 3.01404e-11)
(5.00152e-05 9.21075e-10 -4.0215e-11)
(5.00152e-05 9.21075e-10 4.02151e-11)
(5.00155e-05 1.14324e-09 -4.99149e-11)
(5.00155e-05 1.14324e-09 4.99151e-11)
(5.00157e-05 1.36838e-09 -5.97448e-11)
(5.00157e-05 1.36838e-09 5.9745e-11)
(5.0016e-05 1.58198e-09 -6.90708e-11)
(5.0016e-05 1.58198e-09 6.9071e-11)
(5.00163e-05 1.79452e-09 -7.83505e-11)
(5.00163e-05 1.79452e-09 7.83508e-11)
(5.00166e-05 1.99496e-09 -8.71017e-11)
(5.00166e-05 1.99496e-09 8.71019e-11)
(5.00169e-05 2.1873e-09 -9.54994e-11)
(5.00169e-05 2.1873e-09 9.54996e-11)
(5.00172e-05 2.36877e-09 -1.03423e-10)
(5.00172e-05 2.36877e-09 1.03423e-10)
(5.00175e-05 2.5354e-09 -1.10698e-10)
(5.00175e-05 2.5354e-09 1.10698e-10)
(5.00177e-05 2.69338e-09 -1.17596e-10)
(5.00177e-05 2.69338e-09 1.17596e-10)
(5.00179e-05 2.83379e-09 -1.23726e-10)
(5.00179e-05 2.83379e-09 1.23726e-10)
(5.0018e-05 2.96889e-09 -1.29625e-10)
(5.0018e-05 2.96889e-09 1.29625e-10)
(5.0018e-05 3.0899e-09 -1.34908e-10)
(5.0018e-05 3.0899e-09 1.34908e-10)
(5.00148e-05 -1.19094e-18 3.06489e-17)
(5.00158e-05 4.33617e-10 -1.89321e-11)
(5.00158e-05 4.33617e-10 1.89322e-11)
(5.00157e-05 2.16213e-10 9.4401e-12)
(5.00157e-05 2.16213e-10 -9.44004e-12)
(5.00159e-05 6.46849e-10 -2.8242e-11)
(5.00159e-05 6.46849e-10 2.82422e-11)
(5.00161e-05 8.64107e-10 -3.77277e-11)
(5.00161e-05 8.64107e-10 3.77278e-11)
(5.00163e-05 1.07277e-09 -4.68382e-11)
(5.00163e-05 1.07277e-09 4.68384e-11)
(5.00165e-05 1.28618e-09 -5.61556e-11)
(5.00165e-05 1.28618e-09 5.61558e-11)
(5.00168e-05 1.48871e-09 -6.49985e-11)
(5.00168e-05 1.48871e-09 6.49987e-11)
(5.00171e-05 1.6926e-09 -7.39005e-11)
(5.00171e-05 1.6926e-09 7.39007e-11)
(5.00174e-05 1.88645e-09 -8.2364e-11)
(5.00174e-05 1.88645e-09 8.23642e-11)
(5.00177e-05 2.07512e-09 -9.06018e-11)
(5.00177e-05 2.07512e-09 9.0602e-11)
(5.00179e-05 2.25664e-09 -9.85269e-11)
(5.00179e-05 2.25664e-09 9.85272e-11)
(5.00182e-05 2.4266e-09 -1.05948e-10)
(5.00182e-05 2.4266e-09 1.05948e-10)
(5.00184e-05 2.59273e-09 -1.13201e-10)
(5.00184e-05 2.59273e-09 1.13201e-10)
(5.00185e-05 2.74442e-09 -1.19824e-10)
(5.00185e-05 2.74442e-09 1.19824e-10)
(5.00186e-05 2.89531e-09 -1.26412e-10)
(5.00186e-05 2.89531e-09 1.26412e-10)
(5.00185e-05 3.03376e-09 -1.32457e-10)
(5.00185e-05 3.03376e-09 1.32457e-10)
(5.00157e-05 -1.19096e-18 3.06495e-17)
(5.00166e-05 3.97367e-10 -1.73494e-11)
(5.00166e-05 3.97367e-10 1.73495e-11)
(5.00165e-05 1.97935e-10 8.64209e-12)
(5.00165e-05 1.97935e-10 -8.64203e-12)
(5.00167e-05 5.92814e-10 -2.58828e-11)
(5.00167e-05 5.92814e-10 2.58829e-11)
(5.00169e-05 7.93656e-10 -3.46518e-11)
(5.00169e-05 7.93656e-10 3.46519e-11)
(5.00171e-05 9.86252e-10 -4.30607e-11)
(5.00171e-05 9.86252e-10 4.30608e-11)
(5.00173e-05 1.18597e-09 -5.17804e-11)
(5.00173e-05 1.18597e-09 5.17805e-11)
(5.00176e-05 1.37596e-09 -6.00755e-11)
(5.00176e-05 1.37596e-09 6.00757e-11)
(5.00178e-05 1.57034e-09 -6.85626e-11)
(5.00178e-05 1.57034e-09 6.85628e-11)
(5.00181e-05 1.75724e-09 -7.67229e-11)
(5.00181e-05 1.75724e-09 7.67231e-11)
(5.00184e-05 1.94236e-09 -8.4805e-11)
(5.00184e-05 1.94236e-09 8.48053e-11)
(5.00186e-05 2.12436e-09 -9.27516e-11)
(5.00186e-05 2.12436e-09 9.27519e-11)
(5.00188e-05 2.29822e-09 -1.00343e-10)
(5.00188e-05 2.29822e-09 1.00343e-10)
(5.0019e-05 2.47311e-09 -1.07978e-10)
(5.0019e-05 2.47311e-09 1.07979e-10)
(5.00191e-05 2.63643e-09 -1.15109e-10)
(5.00191e-05 2.63643e-09 1.15109e-10)
(5.00192e-05 2.80315e-09 -1.22388e-10)
(5.00192e-05 2.80315e-09 1.22388e-10)
(5.00191e-05 2.95861e-09 -1.29176e-10)
(5.00191e-05 2.95861e-09 1.29176e-10)
(5.00165e-05 -1.19098e-18 3.06499e-17)
(5.00173e-05 3.55757e-10 -1.55327e-11)
(5.00173e-05 3.55757e-10 1.55328e-11)
(5.00173e-05 1.76934e-10 7.72514e-12)
(5.00173e-05 1.76934e-10 -7.72508e-12)
(5.00175e-05 5.30924e-10 -2.31806e-11)
(5.00175e-05 5.30924e-10 2.31807e-11)
(5.00176e-05 7.13207e-10 -3.11393e-11)
(5.00176e-05 7.13207e-10 3.11394e-11)
(5.00178e-05 8.87819e-10 -3.8763e-11)
(5.00178e-05 8.87819e-10 3.87631e-11)
(5.0018e-05 1.07243e-09 -4.68231e-11)
(5.0018e-05 1.07243e-09 4.68233e-11)
(5.00183e-05 1.24878e-09 -5.45229e-11)
(5.00183e-05 1.24878e-09 5.45231e-11)
(5.00186e-05 1.43305e-09 -6.25685e-11)
(5.00186e-05 1.43305e-09 6.25686e-11)
(5.00188e-05 1.61277e-09 -7.04149e-11)
(5.00188e-05 1.61277e-09 7.04151e-11)
(5.00191e-05 1.79439e-09 -7.83449e-11)
(5.00191e-05 1.79439e-09 7.83451e-11)
(5.00193e-05 1.97726e-09 -8.63291e-11)
(5.00193e-05 1.97726e-09 8.63294e-11)
(5.00195e-05 2.15547e-09 -9.41096e-11)
(5.00195e-05 2.15547e-09 9.41099e-11)
(5.00197e-05 2.33964e-09 -1.02151e-10)
(5.00197e-05 2.33964e-09 1.02151e-10)
(5.00198e-05 2.51495e-09 -1.09805e-10)
(5.00198e-05 2.51495e-09 1.09805e-10)
(5.00198e-05 2.69765e-09 -1.17782e-10)
(5.00198e-05 2.69765e-09 1.17782e-10)
(5.00198e-05 2.86999e-09 -1.25307e-10)
(5.00198e-05 2.86999e-09 1.25307e-10)
(5.00172e-05 -1.19099e-18 3.06504e-17)
(5.0018e-05 3.10344e-10 -1.35499e-11)
(5.0018e-05 3.10344e-10 1.355e-11)
(5.00179e-05 1.53998e-10 6.72376e-12)
(5.00179e-05 1.53998e-10 -6.72371e-12)
(5.00181e-05 4.63445e-10 -2.02344e-11)
(5.00181e-05 4.63445e-10 2.02345e-11)
(5.00183e-05 6.25658e-10 -2.73168e-11)
(5.00183e-05 6.25658e-10 2.73169e-11)
(5.00185e-05 7.80894e-10 -3.40946e-11)
(5.00185e-05 7.80894e-10 3.40947e-11)
(5.00187e-05 9.49396e-10 -4.14515e-11)
(5.00187e-05 9.49396e-10 4.14517e-11)
(5.0019e-05 1.1113e-09 -4.85205e-11)
(5.0019e-05 1.1113e-09 4.85207e-11)
(5.00193e-05 1.28502e-09 -5.61053e-11)
(5.00193e-05 1.28502e-09 5.61055e-11)
(5.00195e-05 1.45736e-09 -6.36298e-11)
(5.00195e-05 1.45736e-09 6.363e-11)
(5.00198e-05 1.63555e-09 -7.14098e-11)
(5.00198e-05 1.63555e-09 7.141e-11)
(5.002e-05 1.81958e-09 -7.94448e-11)
(5.002e-05 1.81958e-09 7.9445e-11)
(5.00202e-05 2.00249e-09 -8.74304e-11)
(5.00202e-05 2.00249e-09 8.74307e-11)
(5.00204e-05 2.19646e-09 -9.58994e-11)
(5.00204e-05 2.19646e-09 9.58997e-11)
(5.00205e-05 2.38416e-09 -1.04095e-10)
(5.00205e-05 2.38416e-09 1.04095e-10)
(5.00205e-05 2.58324e-09 -1.12787e-10)
(5.00205e-05 2.58324e-09 1.12787e-10)
(5.00205e-05 2.77267e-09 -1.21058e-10)
(5.00205e-05 2.77267e-09 1.21058e-10)
(5.00179e-05 -1.19101e-18 3.06508e-17)
(5.00186e-05 2.62519e-10 -1.14618e-11)
(5.00186e-05 2.62519e-10 1.14619e-11)
(5.00185e-05 1.29835e-10 5.66875e-12)
(5.00185e-05 1.29835e-10 -5.66871e-12)
(5.00187e-05 3.92386e-10 -1.71319e-11)
(5.00187e-05 3.92386e-10 1.7132e-11)
(5.00189e-05 5.33577e-10 -2.32964e-11)
(5.00189e-05 5.33577e-10 2.32965e-11)
(5.00191e-05 6.68493e-10 -2.9187e-11)
(5.00191e-05 6.68493e-10 2.91871e-11)
(5.00194e-05 8.20238e-10 -3.58124e-11)
(5.00194e-05 8.20238e-10 3.58125e-11)
(5.00196e-05 9.67122e-10 -4.22254e-11)
(5.00196e-05 9.67122e-10 4.22256e-11)
(5.00199e-05 1.12997e-09 -4.93357e-11)
(5.00199e-05 1.12997e-09 4.93359e-11)
(5.00202e-05 1.29479e-09 -5.65319e-11)
(5.00202e-05 1.29479e-09 5.6532e-11)
(5.00205e-05 1.46956e-09 -6.41625e-11)
(5.00205e-05 1.46956e-09 6.41627e-11)
(5.00207e-05 1.65501e-09 -7.22592e-11)
(5.00207e-05 1.65501e-09 7.22594e-11)
(5.00209e-05 1.84291e-09 -8.0463e-11)
(5.00209e-05 1.84291e-09 8.04632e-11)
(5.00211e-05 2.04721e-09 -8.93829e-11)
(5.00211e-05 2.04721e-09 8.93832e-11)
(5.00212e-05 2.24781e-09 -9.81413e-11)
(5.00212e-05 2.24781e-09 9.81416e-11)
(5.00212e-05 2.4639e-09 -1.07576e-10)
(5.00212e-05 2.4639e-09 1.07577e-10)
(5.00212e-05 2.67102e-09 -1.16619e-10)
(5.00212e-05 2.67102e-09 1.16619e-10)
(5.00185e-05 -1.19102e-18 3.06512e-17)
(5.00191e-05 2.13681e-10 -9.32949e-12)
(5.00191e-05 2.13681e-10 9.32955e-12)
(5.00191e-05 1.05154e-10 4.59116e-12)
(5.00191e-05 1.05154e-10 -4.59111e-12)
(5.00193e-05 3.19768e-10 -1.39614e-11)
(5.00193e-05 3.19768e-10 1.39615e-11)
(5.00195e-05 4.39543e-10 -1.91908e-11)
(5.00195e-05 4.39543e-10 1.91909e-11)
(5.00197e-05 5.53639e-10 -2.41724e-11)
(5.00197e-05 5.53639e-10 2.41725e-11)
(5.00199e-05 6.88327e-10 -3.0053e-11)
(5.00199e-05 6.88327e-10 3.00531e-11)
(5.00202e-05 8.19838e-10 -3.57949e-11)
(5.00202e-05 8.19838e-10 3.5795e-11)
(5.00205e-05 9.71632e-10 -4.24224e-11)
(5.00205e-05 9.71632e-10 4.24225e-11)
(5.00208e-05 1.12883e-09 -4.92856e-11)
(5.00208e-05 1.12883e-09 4.92858e-11)
(5.00211e-05 1.30016e-09 -5.67663e-11)
(5.00211e-05 1.30016e-09 5.67665e-11)
(5.00214e-05 1.48724e-09 -6.49341e-11)
(5.00214e-05 1.48724e-09 6.49343e-11)
(5.00216e-05 1.68038e-09 -7.33671e-11)
(5.00216e-05 1.68038e-09 7.33673e-11)
(5.00218e-05 1.89558e-09 -8.27628e-11)
(5.00218e-05 1.89558e-09 8.2763e-11)
(5.00219e-05 2.10969e-09 -9.21109e-11)
(5.00219e-05 2.10969e-09 9.21111e-11)
(5.0022e-05 2.34371e-09 -1.02328e-10)
(5.0022e-05 2.34371e-09 1.02329e-10)
(5.00219e-05 2.56949e-09 -1.12186e-10)
(5.00219e-05 2.56949e-09 1.12186e-10)
(5.0019e-05 -1.19104e-18 3.06515e-17)
(5.00196e-05 1.65385e-10 -7.22085e-12)
(5.00196e-05 1.65385e-10 7.2209e-12)
(5.00195e-05 8.0745e-11 3.52544e-12)
(5.00195e-05 8.0745e-11 -3.5254e-12)
(5.00198e-05 2.47842e-10 -1.0821e-11)
(5.00198e-05 2.47842e-10 1.08211e-11)
(5.00199e-05 3.46429e-10 -1.51254e-11)
(5.00199e-05 3.46429e-10 1.51255e-11)
(5.00202e-05 4.39705e-10 -1.91979e-11)
(5.00202e-05 4.39705e-10 1.9198e-11)
(5.00205e-05 5.57431e-10 -2.43379e-11)
(5.00205e-05 5.57431e-10 2.4338e-11)
(5.00208e-05 6.73485e-10 -2.9405e-11)
(5.00208e-05 6.73485e-10 2.94051e-11)
(5.00211e-05 8.14192e-10 -3.55484e-11)
(5.00211e-05 8.14192e-10 3.55485e-11)
(5.00214e-05 9.63718e-10 -4.20768e-11)
(5.00214e-05 9.63718e-10 4.2077e-11)
(5.00218e-05 1.13159e-09 -4.94064e-11)
(5.00218e-05 1.13159e-09 4.94066e-11)
(5.00221e-05 1.32048e-09 -5.76533e-11)
(5.00221e-05 1.32048e-09 5.76534e-11)
(5.00223e-05 1.51909e-09 -6.63248e-11)
(5.00223e-05 1.51909e-09 6.6325e-11)
(5.00226e-05 1.74579e-09 -7.6223e-11)
(5.00226e-05 1.74579e-09 7.62232e-11)
(5.00227e-05 1.97413e-09 -8.61921e-11)
(5.00227e-05 1.97413e-09 8.61924e-11)
(5.00228e-05 2.22724e-09 -9.72433e-11)
(5.00228e-05 2.22724e-09 9.72436e-11)
(5.00227e-05 2.47306e-09 -1.07976e-10)
(5.00227e-05 2.47306e-09 1.07976e-10)
(5.00195e-05 -1.19105e-18 3.06518e-17)
(5.002e-05 1.19551e-10 -5.21972e-12)
(5.002e-05 1.19551e-10 5.21976e-12)
(5.00199e-05 5.75822e-11 2.51413e-12)
(5.00199e-05 5.75822e-11 -2.51409e-12)
(5.00202e-05 1.79387e-10 -7.83219e-12)
(5.00202e-05 1.79387e-10 7.83224e-12)
(5.00204e-05 2.57795e-10 -1.12555e-11)
(5.00204e-05 2.57795e-10 1.12556e-11)
(5.00206e-05 3.30888e-10 -1.44469e-11)
(5.00206e-05 3.30888e-10 1.44469e-11)
(5.00209e-05 4.32255e-10 -1.88727e-11)
(5.00209e-05 4.32255e-10 1.88728e-11)
(5.00213e-05 5.33124e-10 -2.32767e-11)
(5.00213e-05 5.33124e-10 2.32768e-11)
(5.00216e-05 6.62934e-10 -2.89443e-11)
(5.00216e-05 6.62934e-10 2.89444e-11)
(5.0022e-05 8.04854e-10 -3.51407e-11)
(5.0022e-05 8.04854e-10 3.51408e-11)
(5.00224e-05 9.69249e-10 -4.23183e-11)
(5.00224e-05 9.69249e-10 4.23185e-11)
(5.00227e-05 1.1601e-09 -5.0651e-11)
(5.00227e-05 1.1601e-09 5.06512e-11)
(5.00231e-05 1.36433e-09 -5.9568e-11)
(5.00231e-05 1.36433e-09 5.95681e-11)
(5.00233e-05 1.60317e-09 -6.99959e-11)
(5.00233e-05 1.60317e-09 6.99961e-11)
(5.00235e-05 1.84652e-09 -8.06208e-11)
(5.00235e-05 1.84652e-09 8.0621e-11)
(5.00236e-05 2.12014e-09 -9.25673e-11)
(5.00236e-05 2.12014e-09 9.25676e-11)
(5.00236e-05 2.38776e-09 -1.04252e-10)
(5.00236e-05 2.38776e-09 1.04252e-10)
(5.00199e-05 -1.19106e-18 3.0652e-17)
(5.00203e-05 7.86557e-11 -3.43418e-12)
(5.00203e-05 7.86557e-11 3.43422e-12)
(5.00202e-05 3.69192e-11 1.61196e-12)
(5.00202e-05 3.69192e-11 -1.61193e-12)
(5.00205e-05 1.17997e-10 -5.15186e-12)
(5.00205e-05 1.17997e-10 5.1519e-12)
(5.00207e-05 1.78249e-10 -7.78251e-12)
(5.00207e-05 1.78249e-10 7.78257e-12)
(5.0021e-05 2.32639e-10 -1.01572e-11)
(5.0021e-05 2.32639e-10 1.01573e-11)
(5.00213e-05 3.1894e-10 -1.39252e-11)
(5.00213e-05 3.1894e-10 1.39253e-11)
(5.00217e-05 4.05386e-10 -1.76995e-11)
(5.00217e-05 4.05386e-10 1.76996e-11)
(5.00221e-05 5.24815e-10 -2.29139e-11)
(5.00221e-05 5.24815e-10 2.2914e-11)
(5.00226e-05 6.59355e-10 -2.87881e-11)
(5.00226e-05 6.59355e-10 2.87882e-11)
(5.0023e-05 8.20283e-10 -3.58143e-11)
(5.0023e-05 8.20283e-10 3.58144e-11)
(5.00234e-05 1.01322e-09 -4.42382e-11)
(5.00234e-05 1.01322e-09 4.42383e-11)
(5.00238e-05 1.22314e-09 -5.34035e-11)
(5.00238e-05 1.22314e-09 5.34037e-11)
(5.00241e-05 1.47472e-09 -6.43875e-11)
(5.00241e-05 1.47472e-09 6.43877e-11)
(5.00243e-05 1.7339e-09 -7.57037e-11)
(5.00243e-05 1.7339e-09 7.57039e-11)
(5.00245e-05 2.02964e-09 -8.8616e-11)
(5.00245e-05 2.02964e-09 8.86163e-11)
(5.00245e-05 2.32115e-09 -1.01344e-10)
(5.00245e-05 2.32115e-09 1.01344e-10)
(5.00201e-05 -1.19106e-18 3.06522e-17)
(5.00205e-05 4.59669e-11 -2.00695e-12)
(5.00205e-05 4.59669e-11 2.00699e-12)
(5.00204e-05 2.04114e-11 8.91213e-13)
(5.00204e-05 2.04114e-11 -8.91179e-13)
(5.00207e-05 6.84305e-11 -2.98774e-12)
(5.00207e-05 6.84305e-11 2.98778e-12)
(5.0021e-05 1.13903e-10 -4.97313e-12)
(5.0021e-05 1.13903e-10 4.97317e-12)
(5.00213e-05 1.52214e-10 -6.6458e-12)
(5.00213e-05 1.52214e-10 6.64585e-12)
(5.00217e-05 2.25674e-10 -9.85311e-12)
(5.00217e-05 2.25674e-10 9.85317e-12)
(5.00221e-05 2.99152e-10 -1.30612e-11)
(5.00221e-05 2.99152e-10 1.30613e-11)
(5.00226e-05 4.09182e-10 -1.78653e-11)
(5.00226e-05 4.09182e-10 1.78653e-11)
(5.00231e-05 5.36815e-10 -2.34378e-11)