/*--------------------------------*- C++ -*----------------------------------*\
| =========                 |                                                 |
| \\      /  F ield         | foam-extend: Open Source CFD                    |
|  \\    /   O peration     | Version:     4.1-20200408                       |
|   \\  /    A nd           | Web:         http://www.foam-extend.org         |
|    \\/     M anipulation  |                                                 |
\*---------------------------------------------------------------------------*/
FoamFile
{
    version     2.0;
    format      ascii;
    class       pointVectorField;
    location    "0.0745000";
    object      pointDU;
}
// * * * * * * * * * * * * * * * * * * * * * * * * * * * * * * * * * * * * * //

dimensions      [0 1 0 0 0 0 0];

internalField   nonuniform List<vector> 
4059
(
(0 6.60088e-18 -1.71783e-16)
(0 -8.72939e-15 3.70988e-16)
(0 -2.13561e-08 9.32428e-10)
(0 6.61428e-18 -1.72119e-16)
(0 -8.72939e-15 -5.53032e-16)
(0 -2.13561e-08 -9.32431e-10)
(0 1.18662e-14 -5.28236e-16)
(0 4.42845e-15 -2.03495e-16)
(0 2.51448e-15 -1.1993e-16)
(0 1.48545e-15 -7.50009e-17)
(0 8.12981e-16 -4.56409e-17)
(0 2.79958e-16 -2.23688e-17)
(0 -1.4651e-16 -3.74807e-18)
(0 -4.93171e-16 1.13879e-17)
(0 -7.98254e-16 2.47069e-17)
(0 -9.78632e-16 3.25822e-17)
(0 -1.15246e-15 4.01733e-17)
(0 -1.12273e-15 3.88745e-17)
(0 -1.1261e-15 3.9021e-17)
(0 -8.5833e-16 2.733e-17)
(0 -7.64635e-16 2.32397e-17)
(0 -2.00484e-08 8.75331e-10)
(0 -1.87432e-08 8.18347e-10)
(0 -1.74541e-08 7.62064e-10)
(0 -1.61632e-08 7.05701e-10)
(0 -1.48508e-08 6.48399e-10)
(0 -1.35321e-08 5.90823e-10)
(0 -1.22069e-08 5.32964e-10)
(0 -1.08761e-08 4.74862e-10)
(0 -9.53127e-09 4.16144e-10)
(0 -8.17866e-09 3.57088e-10)
(0 -6.82051e-09 2.9779e-10)
(0 -5.45766e-09 2.38286e-10)
(0 -4.09956e-09 1.78991e-10)
(0 -2.7364e-09 1.19474e-10)
(0 -1.36901e-09 5.97722e-11)
(0 1.18662e-14 3.46194e-16)
(0 4.42845e-15 2.14533e-17)
(0 2.51448e-15 -6.21126e-17)
(0 1.48545e-15 -1.07041e-16)
(0 8.12981e-16 -1.36402e-16)
(0 2.79958e-16 -1.59675e-16)
(0 -1.4651e-16 -1.78294e-16)
(0 -4.93171e-16 -1.93429e-16)
(0 -7.98254e-16 -2.06751e-16)
(0 -9.78632e-16 -2.14626e-16)
(0 -1.15246e-15 -2.22215e-16)
(0 -1.12273e-15 -2.20917e-16)
(0 -1.1261e-15 -2.21065e-16)
(0 -8.5833e-16 -2.09374e-16)
(0 -7.64635e-16 -2.05282e-16)
(0 -2.00484e-08 -8.75334e-10)
(0 -1.87432e-08 -8.18349e-10)
(0 -1.74541e-08 -7.62066e-10)
(0 -1.61632e-08 -7.05703e-10)
(0 -1.48508e-08 -6.48401e-10)
(0 -1.35321e-08 -5.90824e-10)
(0 -1.22069e-08 -5.32966e-10)
(0 -1.08761e-08 -4.74863e-10)
(0 -9.53127e-09 -4.16145e-10)
(0 -8.17866e-09 -3.57089e-10)
(0 -6.82051e-09 -2.97791e-10)
(0 -5.45766e-09 -2.38287e-10)
(0 -4.09956e-09 -1.78991e-10)
(0 -2.7364e-09 -1.19474e-10)
(0 -1.36901e-09 -5.97725e-11)
(5.00003e-05 -7.81135e-10 3.41051e-11)
(5.00003e-05 -7.81135e-10 -3.41053e-11)
(5.00003e-05 -3.95336e-10 -1.7261e-11)
(5.00003e-05 -3.95336e-10 1.72607e-11)
(5.00004e-05 -1.16328e-09 5.079e-11)
(5.00004e-05 -1.16328e-09 -5.07903e-11)
(5.00006e-05 -1.52263e-09 6.64793e-11)
(5.00006e-05 -1.52263e-09 -6.64796e-11)
(5.00008e-05 -1.8622e-09 8.13054e-11)
(5.00008e-05 -1.8622e-09 -8.13058e-11)
(5.0001e-05 -2.16669e-09 9.45996e-11)
(5.0001e-05 -2.16669e-09 -9.46001e-11)
(5.00013e-05 -2.44011e-09 1.06538e-10)
(5.00013e-05 -2.44011e-09 -1.06538e-10)
(5.00017e-05 -2.66453e-09 1.16336e-10)
(5.00017e-05 -2.66453e-09 -1.16336e-10)
(5.00022e-05 -2.84384e-09 1.24165e-10)
(5.00022e-05 -2.84384e-09 -1.24165e-10)
(5.00028e-05 -2.95644e-09 1.29081e-10)
(5.00028e-05 -2.95644e-09 -1.29082e-10)
(5.00035e-05 -3.01209e-09 1.31511e-10)
(5.00035e-05 -3.01209e-09 -1.31511e-10)
(5.00043e-05 -2.99519e-09 1.30773e-10)
(5.00043e-05 -2.99519e-09 -1.30773e-10)
(5.00054e-05 -2.92904e-09 1.27885e-10)
(5.00054e-05 -2.92904e-09 -1.27885e-10)
(5.00066e-05 -2.80934e-09 1.22659e-10)
(5.00066e-05 -2.80934e-09 -1.22659e-10)
(5.0008e-05 -2.70845e-09 1.18253e-10)
(5.0008e-05 -2.70845e-09 -1.18254e-10)
(5.00096e-05 -2.72794e-09 1.19104e-10)
(5.00096e-05 -2.72794e-09 -1.19105e-10)
(5.00003e-05 7.13145e-18 -1.8559e-16)
(5.00006e-05 -5.24795e-10 2.2913e-11)
(5.00006e-05 -5.24795e-10 -2.29133e-11)
(5.00005e-05 -2.65248e-10 -1.15812e-11)
(5.00005e-05 -2.65248e-10 1.15809e-11)
(5.00007e-05 -7.74603e-10 3.38199e-11)
(5.00007e-05 -7.74603e-10 -3.38201e-11)
(5.00009e-05 -1.00415e-09 4.38423e-11)
(5.00009e-05 -1.00415e-09 -4.38426e-11)
(5.00011e-05 -1.21124e-09 5.28838e-11)
(5.00011e-05 -1.21124e-09 -5.28841e-11)
(5.00013e-05 -1.38463e-09 6.04544e-11)
(5.00013e-05 -1.38463e-09 -6.04547e-11)
(5.00017e-05 -1.52617e-09 6.66339e-11)
(5.00017e-05 -1.52617e-09 -6.66342e-11)
(5.00021e-05 -1.62241e-09 7.08359e-11)
(5.00021e-05 -1.62241e-09 -7.08363e-11)
(5.00026e-05 -1.67747e-09 7.32399e-11)
(5.00026e-05 -1.67747e-09 -7.32403e-11)
(5.00032e-05 -1.67688e-09 7.32141e-11)
(5.00032e-05 -1.67688e-09 -7.32145e-11)
(5.00039e-05 -1.63224e-09 7.12651e-11)
(5.00039e-05 -1.63224e-09 -7.12654e-11)
(5.00047e-05 -1.53905e-09 6.71961e-11)
(5.00047e-05 -1.53905e-09 -6.71965e-11)
(5.00057e-05 -1.42559e-09 6.22425e-11)
(5.00057e-05 -1.42559e-09 -6.22429e-11)
(5.00068e-05 -1.2979e-09 5.66676e-11)
(5.00068e-05 -1.2979e-09 -5.6668e-11)
(5.00081e-05 -1.21783e-09 5.31717e-11)
(5.00081e-05 -1.21783e-09 -5.31721e-11)
(5.00093e-05 -1.22413e-09 5.34464e-11)
(5.00093e-05 -1.22413e-09 -5.34468e-11)
(5.00005e-05 7.13149e-18 -1.85591e-16)
(5.0001e-05 -2.99681e-10 1.30844e-11)
(5.0001e-05 -2.99681e-10 -1.30846e-11)
(5.00009e-05 -1.52267e-10 -6.64833e-12)
(5.00009e-05 -1.52267e-10 6.64812e-12)
(5.00011e-05 -4.3641e-10 1.90541e-11)
(5.00011e-05 -4.3641e-10 -1.90543e-11)
(5.00013e-05 -5.55047e-10 2.42339e-11)
(5.00013e-05 -5.55047e-10 -2.42341e-11)
(5.00015e-05 -6.52709e-10 2.84979e-11)
(5.00015e-05 -6.52709e-10 -2.84981e-11)
(5.00018e-05 -7.20471e-10 3.14564e-11)
(5.00018e-05 -7.20471e-10 -3.14567e-11)
(5.00022e-05 -7.59875e-10 3.31768e-11)
(5.00022e-05 -7.59875e-10 -3.31771e-11)
(5.00026e-05 -7.60993e-10 3.32256e-11)
(5.00026e-05 -7.60993e-10 -3.32259e-11)
(5.00031e-05 -7.29089e-10 3.18327e-11)
(5.00031e-05 -7.29089e-10 -3.1833e-11)
(5.00037e-05 -6.55819e-10 2.86336e-11)
(5.00037e-05 -6.55819e-10 -2.86339e-11)
(5.00044e-05 -5.54378e-10 2.42046e-11)
(5.00044e-05 -5.54378e-10 -2.42049e-11)
(5.00052e-05 -4.2546e-10 1.85759e-11)
(5.00052e-05 -4.2546e-10 -1.85762e-11)
(5.00061e-05 -2.9706e-10 1.29699e-11)
(5.00061e-05 -2.9706e-10 -1.29701e-11)
(5.00071e-05 -1.79647e-10 7.84355e-12)
(5.00071e-05 -1.79647e-10 -7.84377e-12)
(5.0008e-05 -1.26607e-10 5.52777e-12)
(5.0008e-05 -1.26607e-10 -5.52798e-12)
(5.0009e-05 -1.57947e-10 6.8961e-12)
(5.0009e-05 -1.57947e-10 -6.89631e-12)
(5.00009e-05 7.13155e-18 -1.85593e-16)
(5.00016e-05 -1.12199e-10 4.89871e-12)
(5.00016e-05 -1.12199e-10 -4.89892e-12)
(5.00015e-05 -5.82217e-11 -2.54221e-12)
(5.00015e-05 -5.82217e-11 2.542e-12)
(5.00017e-05 -1.56475e-10 6.83181e-12)
(5.00017e-05 -1.56475e-10 -6.83203e-12)
(5.00019e-05 -1.85125e-10 8.08274e-12)
(5.00019e-05 -1.85125e-10 -8.08296e-12)
(5.00021e-05 -1.95994e-10 8.55725e-12)
(5.00021e-05 -1.95994e-10 -8.55747e-12)
(5.00024e-05 -1.81843e-10 7.93944e-12)
(5.00024e-05 -1.81843e-10 -7.93966e-12)
(5.00028e-05 -1.45092e-10 6.33483e-12)
(5.00028e-05 -1.45092e-10 -6.33504e-12)
(5.00032e-05 -7.85205e-11 3.42827e-12)
(5.00032e-05 -7.85205e-11 -3.42848e-12)
(5.00037e-05 1.117e-11 -4.87702e-13)
(5.00037e-05 1.117e-11 4.87507e-13)
(5.00043e-05 1.28109e-10 -5.59337e-12)
(5.00043e-05 1.28109e-10 5.59319e-12)
(5.0005e-05 2.58596e-10 -1.12905e-11)
(5.0005e-05 2.58596e-10 1.12904e-11)
(5.00057e-05 3.9884e-10 -1.74137e-11)
(5.00057e-05 3.9884e-10 1.74136e-11)
(5.00065e-05 5.24709e-10 -2.29093e-11)
(5.00065e-05 5.24709e-10 2.29092e-11)
(5.00073e-05 6.26448e-10 -2.73513e-11)
(5.00073e-05 6.26448e-10 2.73512e-11)
(5.00081e-05 6.68872e-10 -2.92036e-11)
(5.00081e-05 6.68872e-10 2.92034e-11)
(5.00088e-05 6.46479e-10 -2.82259e-11)
(5.00088e-05 6.46479e-10 2.82257e-11)
(5.00015e-05 7.13163e-18 -1.85595e-16)
(5.00022e-05 3.85317e-11 -1.68234e-12)
(5.00022e-05 3.85317e-11 1.68215e-12)
(5.00021e-05 1.74775e-11 7.629e-13)
(5.00021e-05 1.74775e-11 -7.63094e-13)
(5.00024e-05 6.74833e-11 -2.9464e-12)
(5.00024e-05 6.74833e-11 2.94621e-12)
(5.00025e-05 1.09336e-10 -4.77372e-12)
(5.00025e-05 1.09336e-10 4.77353e-12)
(5.00028e-05 1.64836e-10 -7.19689e-12)
(5.00028e-05 1.64836e-10 7.19672e-12)
(5.00031e-05 2.40116e-10 -1.04837e-11)
(5.00031e-05 2.40116e-10 1.04835e-11)
(5.00034e-05 3.31506e-10 -1.44739e-11)
(5.00034e-05 3.31506e-10 1.44737e-11)
(5.00039e-05 4.44425e-10 -1.9404e-11)
(5.00039e-05 4.44425e-10 1.94039e-11)
(5.00044e-05 5.71113e-10 -2.49353e-11)
(5.00044e-05 5.71113e-10 2.49352e-11)
(5.00049e-05 7.13297e-10 -3.11432e-11)
(5.00049e-05 7.13297e-10 3.11431e-11)
(5.00055e-05 8.57899e-10 -3.74567e-11)
(5.00055e-05 8.57899e-10 3.74566e-11)
(5.00062e-05 1.00021e-09 -4.36703e-11)
(5.00062e-05 1.00021e-09 4.36702e-11)
(5.00069e-05 1.12081e-09 -4.89354e-11)
(5.00069e-05 1.12081e-09 4.89354e-11)
(5.00075e-05 1.21149e-09 -5.28947e-11)
(5.00075e-05 1.21149e-09 5.28947e-11)
(5.00082e-05 1.24867e-09 -5.45179e-11)
(5.00082e-05 1.24867e-09 5.45179e-11)
(5.00087e-05 1.23242e-09 -5.38086e-11)
(5.00087e-05 1.23242e-09 5.38086e-11)
(5.00021e-05 7.13172e-18 -1.85597e-16)
(5.00029e-05 1.54836e-10 -6.76029e-12)
(5.00029e-05 1.54836e-10 6.76011e-12)
(5.00029e-05 7.59869e-11 3.31748e-12)
(5.00029e-05 7.59869e-11 -3.31767e-12)
(5.00031e-05 2.39526e-10 -1.04579e-11)
(5.00031e-05 2.39526e-10 1.04578e-11)
(5.00033e-05 3.34366e-10 -1.45987e-11)
(5.00033e-05 3.34366e-10 1.45986e-11)
(5.00035e-05 4.38617e-10 -1.91504e-11)
(5.00035e-05 4.38617e-10 1.91503e-11)
(5.00038e-05 5.5764e-10 -2.43471e-11)
(5.00038e-05 5.5764e-10 2.4347e-11)
(5.00042e-05 6.86485e-10 -2.99726e-11)
(5.00042e-05 6.86485e-10 2.99725e-11)
(5.00046e-05 8.29506e-10 -3.6217e-11)
(5.00046e-05 8.29506e-10 3.62169e-11)
(5.0005e-05 9.78259e-10 -4.27117e-11)
(5.0005e-05 9.78259e-10 4.27116e-11)
(5.00055e-05 1.13335e-09 -4.94832e-11)
(5.00055e-05 1.13335e-09 4.94832e-11)
(5.00061e-05 1.28296e-09 -5.60154e-11)
(5.00061e-05 1.28296e-09 5.60154e-11)
(5.00067e-05 1.42253e-09 -6.21092e-11)
(5.00067e-05 1.42253e-09 6.21091e-11)
(5.00073e-05 1.53752e-09 -6.71293e-11)
(5.00073e-05 1.53752e-09 6.71293e-11)
(5.00078e-05 1.62173e-09 -7.08063e-11)
(5.00078e-05 1.62173e-09 7.08063e-11)
(5.00083e-05 1.6613e-09 -7.25337e-11)
(5.00083e-05 1.6613e-09 7.25337e-11)
(5.00087e-05 1.65876e-09 -7.24231e-11)
(5.00087e-05 1.65876e-09 7.24231e-11)
(5.00028e-05 7.13182e-18 -1.856e-16)
(5.00037e-05 2.40266e-10 -1.04902e-11)
(5.00037e-05 2.40266e-10 1.04901e-11)
(5.00036e-05 1.19045e-10 5.19746e-12)
(5.00036e-05 1.19045e-10 -5.19764e-12)
(5.00038e-05 3.65348e-10 -1.59514e-11)
(5.00038e-05 3.65348e-10 1.59513e-11)
(5.0004e-05 4.98058e-10 -2.17457e-11)
(5.0004e-05 4.98058e-10 2.17456e-11)
(5.00043e-05 6.36273e-10 -2.77803e-11)
(5.00043e-05 6.36273e-10 2.77802e-11)
(5.00045e-05 7.84939e-10 -3.42712e-11)
(5.00045e-05 7.84939e-10 3.4271e-11)
(5.00049e-05 9.37978e-10 -4.0953e-11)
(5.00049e-05 9.37978e-10 4.09529e-11)
(5.00053e-05 1.09932e-09 -4.79975e-11)
(5.00053e-05 1.09932e-09 4.79974e-11)
(5.00057e-05 1.26022e-09 -5.50222e-11)
(5.00057e-05 1.26022e-09 5.50222e-11)
(5.00062e-05 1.42102e-09 -6.2043e-11)
(5.00062e-05 1.42102e-09 6.2043e-11)
(5.00067e-05 1.57145e-09 -6.86108e-11)
(5.00067e-05 1.57145e-09 6.86108e-11)
(5.00072e-05 1.70758e-09 -7.45546e-11)
(5.00072e-05 1.70758e-09 7.45546e-11)
(5.00077e-05 1.8191e-09 -7.94238e-11)
(5.00077e-05 1.8191e-09 7.94238e-11)
(5.00081e-05 1.90129e-09 -8.3012e-11)
(5.00081e-05 1.90129e-09 8.30121e-11)
(5.00085e-05 1.94688e-09 -8.50024e-11)
(5.00085e-05 1.94688e-09 8.50025e-11)
(5.00088e-05 1.95862e-09 -8.55154e-11)
(5.00088e-05 1.95862e-09 8.55154e-11)
(5.00036e-05 7.13193e-18 -1.85603e-16)
(5.00045e-05 2.98931e-10 -1.30516e-11)
(5.00045e-05 2.98931e-10 1.30514e-11)
(5.00044e-05 1.48675e-10 6.4911e-12)
(5.00044e-05 1.48675e-10 -6.49128e-12)
(5.00046e-05 4.51315e-10 -1.97048e-11)
(5.00046e-05 4.51315e-10 1.97047e-11)
(5.00048e-05 6.0923e-10 -2.65995e-11)
(5.00048e-05 6.0923e-10 2.65994e-11)
(5.0005e-05 7.69335e-10 -3.35899e-11)
(5.0005e-05 7.69335e-10 3.35898e-11)
(5.00053e-05 9.3649e-10 -4.0888e-11)
(5.00053e-05 9.3649e-10 4.08879e-11)
(5.00056e-05 1.10366e-09 -4.81868e-11)
(5.00056e-05 1.10366e-09 4.81867e-11)
(5.0006e-05 1.27485e-09 -5.56611e-11)
(5.0006e-05 1.27485e-09 5.56611e-11)
(5.00064e-05 1.44121e-09 -6.29244e-11)
(5.00064e-05 1.44121e-09 6.29243e-11)
(5.00068e-05 1.60337e-09 -7.00046e-11)
(5.00068e-05 1.60337e-09 7.00046e-11)
(5.00072e-05 1.75261e-09 -7.65207e-11)
(5.00072e-05 1.75261e-09 7.65207e-11)
(5.00077e-05 1.88578e-09 -8.2335e-11)
(5.00077e-05 1.88578e-09 8.2335e-11)
(5.00081e-05 1.99611e-09 -8.71518e-11)
(5.00081e-05 1.99611e-09 8.71518e-11)
(5.00085e-05 2.07978e-09 -9.08052e-11)
(5.00085e-05 2.07978e-09 9.08052e-11)
(5.00088e-05 2.1344e-09 -9.31898e-11)
(5.00088e-05 2.1344e-09 9.31898e-11)
(5.0009e-05 2.16189e-09 -9.439e-11)
(5.0009e-05 2.16189e-09 9.43901e-11)
(5.00044e-05 7.13204e-18 -1.85606e-16)
(5.00052e-05 3.3499e-10 -1.4626e-11)
(5.00052e-05 3.3499e-10 1.46258e-11)
(5.00052e-05 1.66935e-10 7.28837e-12)
(5.00052e-05 1.66935e-10 -7.28854e-12)
(5.00054e-05 5.03768e-10 -2.1995e-11)
(5.00054e-05 5.03768e-10 2.19949e-11)
(5.00055e-05 6.76513e-10 -2.95372e-11)
(5.00055e-05 6.76513e-10 2.95371e-11)
(5.00058e-05 8.48835e-10 -3.70609e-11)
(5.00058e-05 8.48835e-10 3.70608e-11)
(5.0006e-05 1.02582e-09 -4.47884e-11)
(5.0006e-05 1.02582e-09 4.47883e-11)
(5.00063e-05 1.19962e-09 -5.23768e-11)
(5.00063e-05 1.19962e-09 5.23767e-11)
(5.00067e-05 1.37471e-09 -6.0021e-11)
(5.00067e-05 1.37471e-09 6.00209e-11)
(5.0007e-05 1.54223e-09 -6.73351e-11)
(5.0007e-05 1.54223e-09 6.73351e-11)
(5.00074e-05 1.7034e-09 -7.43718e-11)
(5.00074e-05 1.7034e-09 7.43718e-11)
(5.00078e-05 1.8509e-09 -8.08122e-11)
(5.00078e-05 1.8509e-09 8.08122e-11)
(5.00082e-05 1.98227e-09 -8.65478e-11)
(5.00082e-05 1.98227e-09 8.65478e-11)
(5.00085e-05 2.09356e-09 -9.14069e-11)
(5.00085e-05 2.09356e-09 9.14069e-11)
(5.00088e-05 2.18132e-09 -9.52384e-11)
(5.00088e-05 2.18132e-09 9.52384e-11)
(5.00091e-05 2.24657e-09 -9.80872e-11)
(5.00091e-05 2.24657e-09 9.80872e-11)
(5.00092e-05 2.28977e-09 -9.99736e-11)
(5.00092e-05 2.28977e-09 9.99737e-11)
(5.00051e-05 7.13215e-18 -1.85609e-16)
(5.0006e-05 3.52354e-10 -1.53841e-11)
(5.0006e-05 3.52354e-10 1.5384e-11)
(5.0006e-05 1.75774e-10 7.67429e-12)
(5.0006e-05 1.75774e-10 -7.67447e-12)
(5.00061e-05 5.2861e-10 -2.30796e-11)
(5.00061e-05 5.2861e-10 2.30795e-11)
(5.00063e-05 7.07837e-10 -3.09048e-11)
(5.00063e-05 7.07837e-10 3.09047e-11)
(5.00065e-05 8.84739e-10 -3.86285e-11)
(5.00065e-05 8.84739e-10 3.86284e-11)
(5.00068e-05 1.06493e-09 -4.64957e-11)
(5.00068e-05 1.06493e-09 4.64956e-11)
(5.0007e-05 1.23981e-09 -5.41315e-11)
(5.0007e-05 1.23981e-09 5.41314e-11)
(5.00073e-05 1.41461e-09 -6.17633e-11)
(5.00073e-05 1.41461e-09 6.17633e-11)
(5.00077e-05 1.58052e-09 -6.90068e-11)
(5.00077e-05 1.58052e-09 6.90068e-11)
(5.0008e-05 1.73943e-09 -7.59449e-11)
(5.0008e-05 1.73943e-09 7.59449e-11)
(5.00083e-05 1.88527e-09 -8.23127e-11)
(5.00083e-05 1.88527e-09 8.23127e-11)
(5.00087e-05 2.01604e-09 -8.80223e-11)
(5.00087e-05 2.01604e-09 8.80224e-11)
(5.0009e-05 2.13009e-09 -9.30016e-11)
(5.0009e-05 2.13009e-09 9.30016e-11)
(5.00092e-05 2.22379e-09 -9.70929e-11)
(5.00092e-05 2.22379e-09 9.7093e-11)
(5.00094e-05 2.30072e-09 -1.00452e-10)
(5.00094e-05 2.30072e-09 1.00452e-10)
(5.00095e-05 2.35953e-09 -1.03019e-10)
(5.00095e-05 2.35953e-09 1.03019e-10)
(5.00059e-05 7.13226e-18 -1.85611e-16)
(5.00068e-05 3.54519e-10 -1.54786e-11)
(5.00068e-05 3.54519e-10 1.54785e-11)
(5.00067e-05 1.76939e-10 7.72516e-12)
(5.00067e-05 1.76939e-10 -7.72533e-12)
(5.00069e-05 5.3107e-10 -2.3187e-11)
(5.00069e-05 5.3107e-10 2.31869e-11)
(5.0007e-05 7.10157e-10 -3.10061e-11)
(5.0007e-05 7.10157e-10 3.1006e-11)
(5.00072e-05 8.85673e-10 -3.86693e-11)
(5.00072e-05 8.85673e-10 3.86692e-11)
(5.00075e-05 1.06403e-09 -4.64563e-11)
(5.00075e-05 1.06403e-09 4.64563e-11)
(5.00077e-05 1.23592e-09 -5.39614e-11)
(5.00077e-05 1.23592e-09 5.39614e-11)
(5.0008e-05 1.40753e-09 -6.14541e-11)
(5.0008e-05 1.40753e-09 6.14541e-11)
(5.00083e-05 1.57005e-09 -6.85498e-11)
(5.00083e-05 1.57005e-09 6.85498e-11)
(5.00086e-05 1.72611e-09 -7.53635e-11)
(5.00086e-05 1.72611e-09 7.53635e-11)
(5.00089e-05 1.87067e-09 -8.16753e-11)
(5.00089e-05 1.87067e-09 8.16753e-11)
(5.00092e-05 2.00197e-09 -8.7408e-11)
(5.00092e-05 2.00197e-09 8.7408e-11)
(5.00094e-05 2.12018e-09 -9.25692e-11)
(5.00094e-05 2.12018e-09 9.25692e-11)
(5.00096e-05 2.22115e-09 -9.69773e-11)
(5.00096e-05 2.22115e-09 9.69773e-11)
(5.00097e-05 2.31029e-09 -1.0087e-10)
(5.00097e-05 2.31029e-09 1.0087e-10)
(5.00098e-05 2.38428e-09 -1.041e-10)
(5.00098e-05 2.38428e-09 1.041e-10)
(5.00067e-05 7.13237e-18 -1.85614e-16)
(5.00075e-05 3.4448e-10 -1.50403e-11)
(5.00075e-05 3.4448e-10 1.50402e-11)
(5.00074e-05 1.71933e-10 7.50657e-12)
(5.00074e-05 1.71933e-10 -7.50675e-12)
(5.00076e-05 5.15603e-10 -2.25117e-11)
(5.00076e-05 5.15603e-10 2.25116e-11)
(5.00077e-05 6.89344e-10 -3.00974e-11)
(5.00077e-05 6.89344e-10 3.00973e-11)
(5.00079e-05 8.58839e-10 -3.74977e-11)
(5.00079e-05 8.58839e-10 3.74976e-11)
(5.00081e-05 1.03154e-09 -4.50382e-11)
(5.00081e-05 1.03154e-09 4.50381e-11)
(5.00084e-05 1.19744e-09 -5.22812e-11)
(5.00084e-05 1.19744e-09 5.22811e-11)
(5.00086e-05 1.36382e-09 -5.95459e-11)
(5.00086e-05 1.36382e-09 5.95458e-11)
(5.00089e-05 1.52182e-09 -6.64442e-11)
(5.00089e-05 1.52182e-09 6.64441e-11)
(5.00092e-05 1.67478e-09 -7.31224e-11)
(5.00092e-05 1.67478e-09 7.31224e-11)
(5.00094e-05 1.81852e-09 -7.93984e-11)
(5.00094e-05 1.81852e-09 7.93984e-11)
(5.00097e-05 1.95129e-09 -8.51953e-11)
(5.00097e-05 1.95129e-09 8.51953e-11)
(5.00099e-05 2.07477e-09 -9.05864e-11)
(5.00099e-05 2.07477e-09 9.05865e-11)
(5.00101e-05 2.18391e-09 -9.53516e-11)
(5.00101e-05 2.18391e-09 9.53516e-11)
(5.00101e-05 2.28561e-09 -9.97917e-11)
(5.00101e-05 2.28561e-09 9.97918e-11)
(5.00102e-05 2.37436e-09 -1.03667e-10)
(5.00102e-05 2.37436e-09 1.03667e-10)
(5.00074e-05 7.13247e-18 -1.85617e-16)
(5.00081e-05 3.24736e-10 -1.41783e-11)
(5.00081e-05 3.24736e-10 1.41781e-11)
(5.00081e-05 1.62012e-10 7.07343e-12)
(5.00081e-05 1.62012e-10 -7.07361e-12)
(5.00083e-05 4.85905e-10 -2.12151e-11)
(5.00083e-05 4.85905e-10 2.12149e-11)
(5.00084e-05 6.50235e-10 -2.83899e-11)
(5.00084e-05 6.50235e-10 2.83897e-11)
(5.00086e-05 8.10114e-10 -3.53703e-11)
(5.00086e-05 8.10114e-10 3.53702e-11)
(5.00088e-05 9.7429e-10 -4.25384e-11)
(5.00088e-05 9.7429e-10 4.25383e-11)
(5.0009e-05 1.13194e-09 -4.94214e-11)
(5.0009e-05 1.13194e-09 4.94214e-11)
(5.00092e-05 1.29166e-09 -5.63951e-11)
(5.00092e-05 1.29166e-09 5.63951e-11)
(5.00095e-05 1.4444e-09 -6.30637e-11)
(5.00095e-05 1.4444e-09 6.30636e-11)
(5.00098e-05 1.59418e-09 -6.96034e-11)
(5.00098e-05 1.59418e-09 6.96034e-11)
(5.001e-05 1.73756e-09 -7.58636e-11)
(5.001e-05 1.73756e-09 7.58636e-11)
(5.00102e-05 1.87257e-09 -8.17582e-11)
(5.00102e-05 1.87257e-09 8.17582e-11)
(5.00104e-05 2.00218e-09 -8.74172e-11)
(5.00104e-05 2.00218e-09 8.74172e-11)
(5.00105e-05 2.12018e-09 -9.25688e-11)
(5.00105e-05 2.12018e-09 9.25689e-11)
(5.00106e-05 2.23464e-09 -9.75663e-11)
(5.00106e-05 2.23464e-09 9.75664e-11)
(5.00106e-05 2.3378e-09 -1.02071e-10)
(5.00106e-05 2.3378e-09 1.02071e-10)
(5.0008e-05 7.13257e-18 -1.85619e-16)
(5.00088e-05 2.97335e-10 -1.2982e-11)
(5.00088e-05 2.97335e-10 1.29818e-11)
(5.00087e-05 1.48209e-10 6.47079e-12)
(5.00087e-05 1.48209e-10 -6.47097e-12)
(5.00089e-05 4.44984e-10 -1.94284e-11)
(5.00089e-05 4.44984e-10 1.94283e-11)
(5.0009e-05 5.96739e-10 -2.60542e-11)
(5.0009e-05 5.96739e-10 2.60541e-11)
(5.00092e-05 7.44208e-10 -3.24928e-11)
(5.00092e-05 7.44208e-10 3.24927e-11)
(5.00094e-05 8.97657e-10 -3.91925e-11)
(5.00094e-05 8.97657e-10 3.91925e-11)
(5.00096e-05 1.04537e-09 -4.56417e-11)
(5.00096e-05 1.04537e-09 4.56416e-11)
(5.00098e-05 1.19737e-09 -5.22784e-11)
(5.00098e-05 1.19737e-09 5.22784e-11)
(5.00101e-05 1.34434e-09 -5.8695e-11)
(5.00101e-05 1.34434e-09 5.8695e-11)
(5.00103e-05 1.49094e-09 -6.5096e-11)
(5.00103e-05 1.49094e-09 6.5096e-11)
(5.00105e-05 1.63438e-09 -7.13584e-11)
(5.00105e-05 1.63438e-09 7.13584e-11)
(5.00107e-05 1.77224e-09 -7.73776e-11)
(5.00107e-05 1.77224e-09 7.73776e-11)
(5.00109e-05 1.90869e-09 -8.33353e-11)
(5.00109e-05 1.90869e-09 8.33353e-11)
(5.0011e-05 2.03609e-09 -8.88974e-11)
(5.0011e-05 2.03609e-09 8.88975e-11)
(5.0011e-05 2.16354e-09 -9.44624e-11)
(5.0011e-05 2.16354e-09 9.44624e-11)
(5.0011e-05 2.28094e-09 -9.95878e-11)
(5.0011e-05 2.28094e-09 9.95878e-11)
(5.00087e-05 7.13265e-18 -1.85622e-16)
(5.00093e-05 2.6395e-10 -1.15243e-11)
(5.00093e-05 2.6395e-10 1.15242e-11)
(5.00093e-05 1.3137e-10 5.73556e-12)
(5.00093e-05 1.3137e-10 -5.73574e-12)
(5.00094e-05 3.95288e-10 -1.72586e-11)
(5.00094e-05 3.95288e-10 1.72585e-11)
(5.00096e-05 5.32021e-10 -2.32285e-11)
(5.00096e-05 5.32021e-10 2.32284e-11)
(5.00097e-05 6.64897e-10 -2.903e-11)
(5.00097e-05 6.64897e-10 2.90299e-11)
(5.00099e-05 8.0594e-10 -3.51881e-11)
(5.00099e-05 8.0594e-10 3.5188e-11)
(5.00102e-05 9.42406e-10 -4.11463e-11)
(5.00102e-05 9.42406e-10 4.11462e-11)
(5.00104e-05 1.0859e-09 -4.74114e-11)
(5.00104e-05 1.0859e-09 4.74113e-11)
(5.00106e-05 1.22672e-09 -5.35599e-11)
(5.00106e-05 1.22672e-09 5.35598e-11)
(5.00109e-05 1.37016e-09 -5.98227e-11)
(5.00109e-05 1.37016e-09 5.98226e-11)
(5.00111e-05 1.514e-09 -6.61026e-11)
(5.00111e-05 1.514e-09 6.61026e-11)
(5.00113e-05 1.65522e-09 -7.22683e-11)
(5.00113e-05 1.65522e-09 7.22683e-11)
(5.00114e-05 1.79913e-09 -7.85519e-11)
(5.00114e-05 1.79913e-09 7.85519e-11)
(5.00115e-05 1.93643e-09 -8.45465e-11)
(5.00115e-05 1.93643e-09 8.45465e-11)
(5.00115e-05 2.07722e-09 -9.06933e-11)
(5.00115e-05 2.07722e-09 9.06933e-11)
(5.00115e-05 2.20887e-09 -9.64411e-11)
(5.00115e-05 2.20887e-09 9.64412e-11)
(5.00092e-05 7.13274e-18 -1.85624e-16)
(5.00098e-05 2.25974e-10 -9.86626e-12)
(5.00098e-05 2.25974e-10 9.86609e-12)
(5.00098e-05 1.122e-10 4.89857e-12)
(5.00098e-05 1.122e-10 -4.89875e-12)
(5.001e-05 3.38846e-10 -1.47943e-11)
(5.001e-05 3.38846e-10 1.47942e-11)
(5.00101e-05 4.58686e-10 -2.00267e-11)
(5.00101e-05 4.58686e-10 2.00265e-11)
(5.00103e-05 5.75273e-10 -2.51169e-11)
(5.00103e-05 5.75273e-10 2.51168e-11)
(5.00105e-05 7.02618e-10 -3.0677e-11)
(5.00105e-05 7.02618e-10 3.06769e-11)
(5.00107e-05 8.26815e-10 -3.60995e-11)
(5.00107e-05 8.26815e-10 3.60994e-11)
(5.00109e-05 9.61173e-10 -4.19657e-11)
(5.00109e-05 9.61173e-10 4.19656e-11)
(5.00112e-05 1.09556e-09 -4.78331e-11)
(5.00112e-05 1.09556e-09 4.7833e-11)
(5.00114e-05 1.23583e-09 -5.39576e-11)
(5.00114e-05 1.23583e-09 5.39575e-11)
(5.00116e-05 1.38037e-09 -6.02681e-11)
(5.00116e-05 1.38037e-09 6.02681e-11)
(5.00118e-05 1.52536e-09 -6.65985e-11)
(5.00118e-05 1.52536e-09 6.65985e-11)
(5.00119e-05 1.67732e-09 -7.32335e-11)
(5.00119e-05 1.67732e-09 7.32335e-11)
(5.0012e-05 1.82505e-09 -7.96835e-11)
(5.0012e-05 1.82505e-09 7.96835e-11)
(5.0012e-05 1.97965e-09 -8.64333e-11)
(5.0012e-05 1.97965e-09 8.64333e-11)
(5.0012e-05 2.12586e-09 -9.2817e-11)
(5.0012e-05 2.12586e-09 9.28171e-11)
(5.00098e-05 7.13281e-18 -1.85626e-16)
(5.00103e-05 1.8464e-10 -8.06156e-12)
(5.00103e-05 1.8464e-10 8.06139e-12)
(5.00102e-05 9.13233e-11 3.98709e-12)
(5.00102e-05 9.13233e-11 -3.98727e-12)
(5.00104e-05 2.77443e-10 -1.21134e-11)
(5.00104e-05 2.77443e-10 1.21132e-11)
(5.00106e-05 3.79022e-10 -1.65485e-11)
(5.00106e-05 3.79022e-10 1.65483e-11)
(5.00107e-05 4.78024e-10 -2.0871e-11)
(5.00107e-05 4.78024e-10 2.08709e-11)
(5.00109e-05 5.90708e-10 -2.57909e-11)
(5.00109e-05 5.90708e-10 2.57907e-11)
(5.00112e-05 7.01825e-10 -3.06423e-11)
(5.00112e-05 7.01825e-10 3.06422e-11)
(5.00114e-05 8.26551e-10 -3.6088e-11)
(5.00114e-05 8.26551e-10 3.60879e-11)
(5.00117e-05 9.54247e-10 -4.16633e-11)
(5.00117e-05 9.54247e-10 4.16632e-11)
(5.00119e-05 1.09133e-09 -4.76483e-11)
(5.00119e-05 1.09133e-09 4.76482e-11)
(5.00121e-05 1.23682e-09 -5.40005e-11)
(5.00121e-05 1.23682e-09 5.40005e-11)
(5.00123e-05 1.38594e-09 -6.05113e-11)
(5.00123e-05 1.38594e-09 6.05113e-11)
(5.00125e-05 1.54654e-09 -6.75235e-11)
(5.00125e-05 1.54654e-09 6.75235e-11)
(5.00126e-05 1.70529e-09 -7.44547e-11)
(5.00126e-05 1.70529e-09 7.44547e-11)
(5.00126e-05 1.87438e-09 -8.18373e-11)
(5.00126e-05 1.87438e-09 8.18374e-11)
(5.00126e-05 2.03577e-09 -8.88837e-11)
(5.00126e-05 2.03577e-09 8.88838e-11)
(5.00102e-05 7.13287e-18 -1.85627e-16)
(5.00107e-05 1.4114e-10 -6.1623e-12)
(5.00107e-05 1.4114e-10 6.16212e-12)
(5.00106e-05 6.93467e-11 3.02756e-12)
(5.00106e-05 6.93467e-11 -3.02775e-12)
(5.00108e-05 2.12802e-10 -9.29115e-12)
(5.00108e-05 2.12802e-10 9.29098e-12)
(5.0011e-05 2.95229e-10 -1.289e-11)
(5.0011e-05 2.95229e-10 1.28898e-11)
(5.00112e-05 3.75736e-10 -1.6405e-11)
(5.00112e-05 3.75736e-10 1.64048e-11)
(5.00114e-05 4.73089e-10 -2.06555e-11)
(5.00114e-05 4.73089e-10 2.06554e-11)
(5.00116e-05 5.70516e-10 -2.49093e-11)
(5.00116e-05 5.70516e-10 2.49092e-11)
(5.00119e-05 6.85221e-10 -2.99174e-11)
(5.00119e-05 6.85221e-10 2.99173e-11)
(5.00122e-05 8.06014e-10 -3.51914e-11)
(5.00122e-05 8.06014e-10 3.51912e-11)
(5.00124e-05 9.39842e-10 -4.10344e-11)
(5.00124e-05 9.39842e-10 4.10343e-11)
(5.00126e-05 1.08651e-09 -4.74379e-11)
(5.00126e-05 1.08651e-09 4.74378e-11)
(5.00129e-05 1.24008e-09 -5.41429e-11)
(5.00129e-05 1.24008e-09 5.41428e-11)
(5.0013e-05 1.40994e-09 -6.15593e-11)
(5.0013e-05 1.40994e-09 6.15592e-11)
(5.00131e-05 1.58039e-09 -6.90013e-11)
(5.00131e-05 1.58039e-09 6.90012e-11)
(5.00132e-05 1.76488e-09 -7.70563e-11)
(5.00132e-05 1.76488e-09 7.70563e-11)
(5.00131e-05 1.94239e-09 -8.48067e-11)
(5.00131e-05 1.94239e-09 8.48067e-11)
(5.00106e-05 7.13293e-18 -1.85629e-16)
(5.0011e-05 9.67649e-11 -4.22486e-12)
(5.0011e-05 9.67649e-11 4.22467e-12)
(5.0011e-05 4.69246e-11 2.04859e-12)
(5.0011e-05 4.69246e-11 -2.04878e-12)
(5.00112e-05 1.46788e-10 -6.40893e-12)
(5.00112e-05 1.46788e-10 6.40875e-12)
(5.00113e-05 2.09687e-10 -9.15516e-12)
(5.00113e-05 2.09687e-10 9.15498e-12)
(5.00115e-05 2.712e-10 -1.18408e-11)
(5.00115e-05 2.712e-10 1.18407e-11)
(5.00118e-05 3.5288e-10 -1.54071e-11)
(5.00118e-05 3.5288e-10 1.54069e-11)
(5.0012e-05 4.36224e-10 -1.9046e-11)
(5.0012e-05 4.36224e-10 1.90458e-11)
(5.00123e-05 5.4064e-10 -2.36049e-11)
(5.00123e-05 5.4064e-10 2.36047e-11)
(5.00126e-05 6.54366e-10 -2.85702e-11)
(5.00126e-05 6.54366e-10 2.85701e-11)
(5.00129e-05 7.84871e-10 -3.42682e-11)
(5.00129e-05 7.84871e-10 3.42681e-11)
(5.00132e-05 9.32898e-10 -4.07312e-11)
(5.00132e-05 9.32898e-10 4.07311e-11)
(5.00134e-05 1.0912e-09 -4.76428e-11)
(5.00134e-05 1.0912e-09 4.76427e-11)
(5.00136e-05 1.27097e-09 -5.54918e-11)
(5.00136e-05 1.27097e-09 5.54917e-11)
(5.00137e-05 1.4539e-09 -6.34785e-11)
(5.00137e-05 1.4539e-09 6.34784e-11)
(5.00138e-05 1.65493e-09 -7.22556e-11)
(5.00138e-05 1.65493e-09 7.22556e-11)
(5.00137e-05 1.84985e-09 -8.07662e-11)
(5.00137e-05 1.84985e-09 8.07662e-11)
(5.00109e-05 7.13297e-18 -1.8563e-16)
(5.00113e-05 5.30517e-11 -2.3163e-12)
(5.00113e-05 5.30517e-11 2.31611e-12)
(5.00112e-05 2.48367e-11 1.08421e-12)
(5.00112e-05 2.48367e-11 -1.08441e-12)
(5.00114e-05 8.16239e-11 -3.56379e-12)
(5.00114e-05 8.16239e-11 3.5636e-12)
(5.00116e-05 1.25239e-10 -5.46807e-12)
(5.00116e-05 1.25239e-10 5.46789e-12)
(5.00118e-05 1.67757e-10 -7.32446e-12)
(5.00118e-05 1.67757e-10 7.32428e-12)
(5.00121e-05 2.33821e-10 -1.02089e-11)
(5.00121e-05 2.33821e-10 1.02087e-11)
(5.00124e-05 3.02958e-10 -1.32275e-11)
(5.00124e-05 3.02958e-10 1.32273e-11)
(5.00127e-05 3.96986e-10 -1.73328e-11)
(5.00127e-05 3.96986e-10 1.73326e-11)
(5.00131e-05 5.03549e-10 -2.19854e-11)
(5.00131e-05 5.03549e-10 2.19853e-11)
(5.00134e-05 6.30653e-10 -2.75349e-11)
(5.00134e-05 6.30653e-10 2.75348e-11)
(5.00137e-05 7.80207e-10 -3.40646e-11)
(5.00137e-05 7.80207e-10 3.40645e-11)
(5.0014e-05 9.43476e-10 -4.1193e-11)
(5.0014e-05 9.43476e-10 4.11929e-11)
(5.00142e-05 1.13383e-09 -4.95042e-11)
(5.00142e-05 1.13383e-09 4.95042e-11)
(5.00143e-05 1.33009e-09 -5.8073e-11)
(5.00143e-05 1.33009e-09 5.8073e-11)
(5.00144e-05 1.54902e-09 -6.76318e-11)
(5.00144e-05 1.54902e-09 6.76318e-11)
(5.00144e-05 1.763e-09 -7.6974e-11)
(5.00144e-05 1.763e-09 7.6974e-11)
(5.00112e-05 7.13301e-18 -1.85631e-16)
(5.00115e-05 1.19571e-11 -5.22067e-13)
(5.00115e-05 1.19571e-11 5.21872e-13)
(5.00114e-05 4.07448e-12 1.7771e-13)
(5.00114e-05 4.07448e-12 -1.77907e-13)
(5.00116e-05 2.01441e-11 -8.79522e-13)
(5.00116e-05 2.01441e-11 8.79327e-13)
(5.00118e-05 4.55169e-11 -1.98732e-12)
(5.00118e-05 4.55169e-11 1.98713e-12)
(5.00121e-05 6.96971e-11 -3.04305e-12)
(5.00121e-05 6.96971e-11 3.04286e-12)
(5.00124e-05 1.20727e-10 -5.27107e-12)
(5.00124e-05 1.20727e-10 5.27088e-12)
(5.00127e-05 1.7591e-10 -7.68043e-12)
(5.00127e-05 1.7591e-10 7.68025e-12)
(5.00131e-05 2.59684e-10 -1.1338e-11)
(5.00131e-05 2.59684e-10 1.13379e-11)
(5.00135e-05 3.59106e-10 -1.56789e-11)
(5.00135e-05 3.59106e-10 1.56788e-11)
(5.00139e-05 4.82744e-10 -2.1077e-11)
(5.00139e-05 4.82744e-10 2.10769e-11)
(5.00142e-05 6.33959e-10 -2.76793e-11)
(5.00142e-05 6.33959e-10 2.76791e-11)
(5.00145e-05 8.02369e-10 -3.50322e-11)
(5.00145e-05 8.02369e-10 3.50321e-11)
(5.00148e-05 1.00398e-09 -4.38349e-11)
(5.00148e-05 1.00398e-09 4.38348e-11)
(5.0015e-05 1.21448e-09 -5.30254e-11)
(5.0015e-05 1.21448e-09 5.30254e-11)
(5.00151e-05 1.45288e-09 -6.34342e-11)
(5.00151e-05 1.45288e-09 6.34342e-11)
(5.00151e-05 1.68786e-09 -7.36936e-11)
(5.00151e-05 1.68786e-09 7.36936e-11)
(5.00113e-05 7.13303e-18 -1.85632e-16)
(5.00116e-05 -2.39479e-11 1.04558e-12)
(5.00116e-05 -2.39479e-11 -1.04578e-12)
(5.00115e-05 -1.406e-11 -6.14059e-13)
(5.00115e-05 -1.406e-11 6.13861e-13)
(5.00118e-05 -3.39168e-11 1.48083e-12)
(5.00118e-05 -3.39168e-11 -1.48103e-12)
(5.0012e-05 -2.46867e-11 1.07783e-12)
(5.0012e-05 -2.46867e-11 -1.07803e-12)
(5.00123e-05 -1.73079e-11 7.55669e-13)
(5.00123e-05 -1.73079e-11 -7.55868e-13)
(5.00126e-05 1.99916e-11 -8.7286e-13)
(5.00126e-05 1.99916e-11 8.72667e-13)
(5.0013e-05 6.19919e-11 -2.70663e-12)
(5.0013e-05 6.19919e-11 2.70644e-12)
(5.00134e-05 1.3599e-10 -5.93747e-12)
(5.00134e-05 1.3599e-10 5.93729e-12)