/*--------------------------------*- C++ -*----------------------------------*\
  =========                 |
  \\      /  F ield         | OpenFOAM: The Open Source CFD Toolbox
   \\    /   O peration     | Website:  https://openfoam.org
    \\  /    A nd           | Version:  8
     \\/     M anipulation  |
\*---------------------------------------------------------------------------*/
FoamFile
{
    version     2.0;
    format      ascii;
    class       volVectorField;
    location    "0.0275000";
    object      cellDisplacement;
}
// * * * * * * * * * * * * * * * * * * * * * * * * * * * * * * * * * * * * * //

dimensions      [0 1 0 0 0 0 0];

internalField   nonuniform List<vector> 
600
(
(1.700762065214e-28 -7.22400963310807e-07 -4.81745861735322e-14)
(1.67606511823749e-28 -7.24292903227353e-07 -4.52692289711964e-14)
(1.64459325886395e-28 -7.28094268735145e-07 -5.47470633419717e-15)
(1.61256979151075e-28 -7.32844385410481e-07 -5.66362254441084e-14)
(1.58172642265503e-28 -7.38139400316635e-07 7.49546238837256e-14)
(1.55038277508659e-28 -7.4400578843884e-07 2.03437391917724e-13)
(1.52072907170222e-28 -7.50472664568242e-07 1.1831388715152e-13)
(1.49042891842131e-28 -7.5743356562807e-07 4.18702188408768e-14)
(1.46166371011659e-28 -7.64785269123185e-07 9.0454801809425e-14)
(1.4322633316526e-28 -7.72600721193744e-07 7.80996426269646e-14)
(1.40432662236198e-28 -7.80863578906946e-07 -1.41167830692127e-14)
(1.3756379819146e-28 -7.89459027049826e-07 -1.63111814605561e-15)
(1.3483603309236e-28 -7.98393539720316e-07 7.22079443393475e-14)
(1.32037505805092e-28 -8.07721353220921e-07 -5.27620011252305e-14)
(1.29370281572131e-28 -8.17402937065924e-07 -1.19589368069557e-13)
(1.26628119071831e-28 -8.27367781992488e-07 1.7356429500286e-14)
(1.24017020516153e-28 -8.37680755793252e-07 1.08454317823133e-14)
(1.21332280687408e-28 -8.48364579384916e-07 -1.06876551619901e-13)
(1.18770870814665e-28 -8.59352340595594e-07 -9.92256397302887e-14)
(1.16138677959952e-28 -8.70635399791963e-07 6.66311470322417e-14)
(1.13630020891527e-28 -8.82294622288413e-07 4.14222307913938e-14)
(1.11047407767428e-28 -8.9432316053876e-07 1.29537450360271e-14)
(1.0858480285555e-28 -9.06650201790993e-07 -4.41910688700388e-15)
(1.06054538567477e-28 -9.19340942272903e-07 -2.97608449477205e-14)
(1.03639846878567e-28 -9.32445398897147e-07 1.01903146894224e-13)
(1.01156339262801e-28 -9.45915616416885e-07 1.98720332672182e-13)
(9.87898352073521e-29 -9.59726895167301e-07 1.03918752195637e-13)
(9.63587883379895e-29 -9.74000665698751e-07 -2.27094550200226e-15)
(9.40371361126594e-29 -9.88750905067944e-07 -1.56397330242475e-14)
(9.1654622306463e-29 -1.00388538519741e-06 -8.80824739900753e-15)
(8.93845549901645e-29 -1.01948756861611e-06 6.29276469946795e-15)
(8.70524711391416e-29 -1.03565400736327e-06 -1.65346111874594e-15)
(8.48265086503778e-29 -1.05234589789278e-06 -6.01466095529598e-14)
(8.25467676176134e-29 -1.06951228169659e-06 -5.93552132221835e-14)
(8.03741412868685e-29 -1.08735206679503e-06 -6.74701409097577e-14)
(7.81442077300592e-29 -1.10592554286721e-06 -7.84061122230981e-14)
(7.6020149800472e-29 -1.12510765531641e-06 4.55138219338463e-15)
(7.38480836722818e-29 -1.14501895032243e-06 -1.04448606247475e-13)
(7.17763048981733e-29 -1.16586217161557e-06 -6.20013142027581e-14)
(6.96563978103558e-29 -1.18762492539559e-06 1.19965914367407e-13)
(6.76398255534661e-29 -1.21022378243797e-06 9.94449989507089e-14)
(6.55797742629196e-29 -1.23401472039438e-06 -9.36661481964692e-14)
(6.36148687988797e-29 -1.25917562897879e-06 -1.86681842328439e-13)
(6.16146297452042e-29 -1.28554322885488e-06 1.92094132671148e-14)
(5.9714783501484e-29 -1.31331560042101e-06 1.96995348281278e-14)
(5.777496642608e-29 -1.34298314315512e-06 -4.88361436633044e-14)
(5.59319142103378e-29 -1.37461496585436e-06 -5.12454384313604e-14)
(5.40616803926466e-29 -1.40803977395504e-06 1.73379125401284e-14)
(5.22841508181968e-29 -1.44400986777832e-06 4.54828563479043e-14)
(5.04764069379216e-29 -1.48302597401032e-06 4.88815422299568e-14)
(4.87669333706909e-29 -1.52483317773818e-06 7.5932281275802e-14)
(4.7038158529938e-29 -1.56977631703235e-06 -3.48506889068429e-14)
(4.53936001506704e-29 -1.61910451615184e-06 -1.21984212968102e-13)
(4.37357349045205e-29 -1.67310008979412e-06 -8.55020032750225e-14)
(4.21718676149626e-29 -1.73130843431102e-06 1.3138234676336e-13)
(4.05906062794613e-29 -1.79543670392563e-06 1.98615982501778e-13)
(3.90922858453926e-29 -1.866783454376e-06 2.01069444031858e-13)
(3.75944821036857e-29 -1.94483900986162e-06 7.00337049549043e-14)
(3.61805647526453e-29 -2.03022327386037e-06 -7.02967624265588e-14)
(3.4745387764662e-29 -2.12601834612022e-06 -3.28977326243172e-14)
(3.33955315862463e-29 -2.23294965038242e-06 -1.03300732221938e-13)
(3.19934975747439e-29 -2.34975807905052e-06 -8.07755121152777e-14)
(3.06423766760038e-29 -2.48044717994004e-06 -1.16005403252255e-13)
(2.94128412397016e-29 -2.62809166372918e-06 -1.48973862884438e-13)
(2.82095720786914e-29 -2.79151783793741e-06 4.50912817380858e-14)
(2.70579432017569e-29 -2.97225000972548e-06 7.78408349038958e-14)
(2.59097266614649e-29 -3.18206422483949e-06 -1.18474083781958e-15)
(2.48296275832468e-29 -3.42918351992042e-06 -2.87005355120496e-14)
(2.37736572525741e-29 -3.7139729299125e-06 2.02357877124096e-14)
(2.27433232865301e-29 -4.05728525799373e-06 1.1373158502924e-13)
(2.1741610384965e-29 -4.47021622038016e-06 2.22220367575938e-14)
(2.08229603970594e-29 -4.93880933051498e-06 -2.24656555941739e-13)
(1.99428912925031e-29 -5.46014172277385e-06 -1.84482278140575e-13)
(1.91521789444587e-29 -6.03567763166863e-06 5.9121834444107e-14)
(1.84553224144773e-29 -6.65046867293212e-06 -6.07250198472212e-14)
(1.77785400142127e-29 -7.28957077684158e-06 -5.22107175378357e-14)
(1.70613746822597e-29 -7.94761316379494e-06 3.10484772453205e-16)
(1.6294567121799e-29 -8.60968246875218e-06 -3.71354173023076e-14)
(1.54087798073003e-29 -9.26153310342992e-06 1.62325666562319e-13)
(1.44244599035142e-29 -9.89045056755748e-06 1.27605517512976e-13)
(1.32770486442581e-29 -1.04742837965738e-05 -5.23588353172112e-14)
(1.19811408399269e-29 -1.10024720843368e-05 -2.29123187718446e-14)
(1.05621618704316e-29 -1.14710531734669e-05 5.53737790126876e-14)
(9.06668942994375e-30 -1.18444313003164e-05 -5.9866184951708e-14)
(7.41008785557825e-30 -1.21111009863414e-05 -9.72181059156006e-14)
(5.83489279869277e-30 -1.22889362817276e-05 -8.84810380696649e-15)
(4.7504715029648e-30 -1.23649567178045e-05 1.58906143909689e-13)
(4.55198989227276e-30 -1.23500160909275e-05 2.25425214507569e-13)
(4.30449375087431e-30 -1.22789339888997e-05 6.72856018499561e-14)
(4.06308549985382e-30 -1.21644661830265e-05 -5.7528012988204e-14)
(3.80768004762771e-30 -1.2015035487793e-05 -3.61780699663401e-14)
(3.55286317452493e-30 -1.18441303213216e-05 8.88559883037803e-14)
(3.30636612394968e-30 -1.16598410463986e-05 1.03802791147396e-13)
(3.07649336532119e-30 -1.14643329961244e-05 3.58462560755167e-14)
(2.85819156470867e-30 -1.12628553072707e-05 1.54854003575842e-14)
(2.66512012039795e-30 -1.10604213432849e-05 -8.21474260180923e-14)
(2.48541192862335e-30 -1.08608428249036e-05 -1.05924842359861e-15)
(2.330031148837e-30 -1.06694288709177e-05 1.03346615619641e-13)
(2.19756368928736e-30 -1.04904816316838e-05 5.62403206822584e-14)
(2.05811772879067e-30 -1.03364287947966e-05 7.17296552201392e-15)
(4.70864476281566e-28 -1.90740093567683e-06 -1.40791583040842e-13)
(4.63977681530152e-28 -1.90790578449247e-06 -1.32663489201886e-13)
(4.55067092142527e-28 -1.91008716108277e-06 -1.57716186937711e-14)
(4.46092690944581e-28 -1.91302986805042e-06 -1.66473954429304e-13)
(4.37349064381275e-28 -1.91641098645927e-06 2.17616574311273e-13)
(4.28554636638448e-28 -1.920253389742e-06 5.95414236834614e-13)
(4.20090100908632e-28 -1.92458108394001e-06 3.47354284957244e-13)
(4.11545165615354e-28 -1.92930798626047e-06 1.22585792624642e-13)
(4.03301470886378e-28 -1.93435061536568e-06 2.64810921606877e-13)
(3.94979579203125e-28 -1.93976880221545e-06 2.29599195751538e-13)
(3.86945624289553e-28 -1.94554952178997e-06 -4.10270415642653e-14)
(3.78810496167453e-28 -1.95159957346237e-06 -5.4029460618615e-15)
(3.70954107636502e-28 -1.95792463764371e-06 2.12339754487528e-13)
(3.63004449056847e-28 -1.96456912184242e-06 -1.53677654888327e-13)
(3.55315585432154e-28 -1.97150101686247e-06 -3.51602721496328e-13)
(3.47525552440691e-28 -1.97866294545892e-06 5.03362383806774e-14)
(3.39996194896942e-28 -1.98610812822759e-06 3.2723998618521e-14)
(3.32367568327544e-28 -1.99385524520527e-06 -3.13382925765886e-13)
(3.24986183040939e-28 -2.00184977876016e-06 -2.92720070673466e-13)
(3.17510994657288e-28 -2.01008481161234e-06 1.95195838236122e-13)
(3.10283325705605e-28 -2.01862658112554e-06 1.22081565940821e-13)
(3.02955733979892e-28 -2.02746961323219e-06 3.83451754086149e-14)
(2.95870546810908e-28 -2.03655593039993e-06 -1.27418651083724e-14)
(2.88697064962245e-28 -2.04593911973026e-06 -8.83285763960759e-14)
(2.81757345062102e-28 -2.05566020310421e-06 2.98645145064436e-13)
(2.74727864170337e-28 -2.06567997127653e-06 5.85201564451373e-13)
(2.67936288835838e-28 -2.07597804307602e-06 3.07171183514041e-13)
(2.61061900563178e-28 -2.08665413871298e-06 -6.10140902808033e-15)
(2.5441154908169e-28 -2.09771982098554e-06 -4.60650157791167e-14)
(2.47686461855918e-28 -2.10909911953573e-06 -2.60904012367201e-14)
(2.4119190381148e-28 -2.12086071297806e-06 1.85321609915886e-14)
(2.34619581707843e-28 -2.13308387663422e-06 -4.47738976021148e-15)
(2.28266557977304e-28 -2.14573675677295e-06 -1.77176949174192e-13)
(2.21852166934731e-28 -2.15877682809277e-06 -1.75117721526452e-13)
(2.15659541708727e-28 -2.1723677672448e-06 -1.99067284386543e-13)
(2.09398753079862e-28 -2.18655919544805e-06 -2.31965869012261e-13)
(2.03358307309009e-28 -2.20124736504951e-06 1.36998416511028e-14)
(1.97267095410212e-28 -2.21653133100891e-06 -3.08351254236704e-13)
(1.91386667940547e-28 -2.23257784957944e-06 -1.84489504235194e-13)
(1.85455904011072e-28 -2.24937649505363e-06 3.53947550193743e-13)
(1.79741825906974e-28 -2.26685653384647e-06 2.95270529020711e-13)
(1.73985755644827e-28 -2.28531135595742e-06 -2.75677660660195e-13)
(1.68432919981954e-28 -2.30488743250097e-06 -5.53118067772831e-13)
(1.62854088833246e-28 -2.3254477624549e-06 5.59174509419779e-14)
(1.57487553251086e-28 -2.34715412977366e-06 5.86954477014227e-14)
(1.52086992701093e-28 -2.37041083105585e-06 -1.44315238140837e-13)
(1.46894104343582e-28 -2.39527402558712e-06 -1.52174269847059e-13)
(1.41690587734228e-28 -2.42159616584001e-06 5.09223762813308e-14)
(1.36687010943128e-28 -2.44999820168633e-06 1.34684462186493e-13)
(1.31668832233987e-28 -2.48089343094884e-06 1.44791152044666e-13)
(1.268622413895e-28 -2.51406480609743e-06 2.25674565956678e-13)
(1.22060217356231e-28 -2.54979071832283e-06 -1.02459038179768e-13)
(1.17445028202297e-28 -2.58910412015692e-06 -3.61831439655102e-13)
(1.12847307638963e-28 -2.63223677267444e-06 -2.55096364266223e-13)
(1.08454019131944e-28 -2.67879395197277e-06 3.888491189195e-13)
(1.04070643645187e-28 -2.7301877078715e-06 5.89690332471626e-13)
(9.98729751365082e-29 -2.78749359523164e-06 5.98107167178385e-13)
(9.57185961501686e-29 -2.85027250249885e-06 2.09455375738603e-13)
(9.17512675700178e-29 -2.91901666046942e-06 -2.08551252418865e-13)
(8.77883979601196e-29 -2.99628255084206e-06 -9.76658052674693e-14)
(8.40142849103193e-29 -3.08267031364035e-06 -3.07094935779111e-13)
(8.01794969473058e-29 -3.17708274222928e-06 -2.40308177135426e-13)
(7.64550756629985e-29 -3.28283757535809e-06 -3.44992371961339e-13)
(7.30272905642597e-29 -3.40249068789112e-06 -4.44382701938417e-13)
(6.96795332468954e-29 -3.53502225868009e-06 1.33208534325413e-13)
(6.64717270703671e-29 -3.681598208929e-06 2.32168101577556e-13)
(6.33057051312394e-29 -3.85193077810373e-06 -2.99729293971459e-15)
(6.03035129679661e-29 -4.05282149034498e-06 -8.56830919148375e-14)
(5.73800327221091e-29 -4.28430464793653e-06 5.9628314539535e-14)
(5.45513821413725e-29 -4.56356348999905e-06 3.39404414405597e-13)
(5.18033753783821e-29 -4.89992765341778e-06 6.82607107679697e-14)
(4.9247965069899e-29 -5.28170287977541e-06 -6.6936933799271e-13)
(4.68085056377898e-29 -5.70649010171518e-06 -5.52458698444655e-13)
(4.45627846559741e-29 -6.17558460394749e-06 1.75728163236714e-13)
(4.25078857992701e-29 -6.67680999609287e-06 -1.80574955017397e-13)
(4.0550561854982e-29 -7.19782095762671e-06 -1.56208313497369e-13)
(3.85342329814016e-29 -7.73421303680591e-06 8.34150973996107e-16)
(3.64540696294446e-29 -8.2739126893848e-06 -1.11745493295616e-13)
(3.4193576957421e-29 -8.80513820740776e-06 4.8319204266391e-13)
(3.17413613344798e-29 -9.3174329545782e-06 3.8162516924875e-13)
(2.90416235086903e-29 -9.79308095261423e-06 -1.55229808623145e-13)
(2.60973578218435e-29 -1.02232465283188e-05 -6.88190896147162e-14)
(2.28853726095144e-29 -1.06036557661273e-05 1.64979893295832e-13)
(1.95770140839388e-29 -1.09070803307304e-05 -1.7739934219787e-13)
(1.60906041179832e-29 -1.11242819633586e-05 -2.89394730756985e-13)
(1.2681388725188e-29 -1.12676658555757e-05 -2.7334027968194e-14)
(1.03715211333159e-29 -1.1329790750972e-05 4.71742019474403e-13)
(9.97610652590006e-30 -1.13196560110503e-05 6.71069004847456e-13)
(9.4919585744428e-30 -1.12627991796306e-05 2.00928075680189e-13)
(8.98126765528801e-30 -1.11703303574713e-05 -1.71199023159564e-13)
(8.43199707297691e-30 -1.10496307920468e-05 -1.08042280883322e-13)
(7.89401067769462e-30 -1.0911138417858e-05 2.64782127623288e-13)
(7.3642003015895e-30 -1.07613897112061e-05 3.09644585048781e-13)
(6.86760706090836e-30 -1.06026044599883e-05 1.07013074085906e-13)
(6.40037611427016e-30 -1.04389216352749e-05 4.62941619516359e-14)
(5.9803246113993e-30 -1.02743296242787e-05 -2.45212777823217e-13)
(5.58923630136904e-30 -1.01120902485585e-05 -3.21419715593281e-15)
(5.26035729939423e-30 -9.95643916733466e-06 3.08689157961919e-13)
(4.96962797402345e-30 -9.8113614318541e-06 1.68084490880398e-13)
(4.66969388313835e-30 -9.69037541270517e-06 2.14355586334844e-14)
(6.97016862658663e-28 -3.05493931742246e-06 -2.3054493704261e-13)
(6.87616258846247e-28 -3.05455378127939e-06 -2.18341683372588e-13)
(6.74362337482444e-28 -3.05557272220325e-06 -2.50526003361763e-14)
(6.61016007511373e-28 -3.05717557219898e-06 -2.75353859188117e-13)
(6.47975833289268e-28 -3.05911510188774e-06 3.51154441139048e-13)
(6.34869176679021e-28 -3.06140801509798e-06 9.75890023802897e-13)
(6.22189449928658e-28 -3.06407279396122e-06 5.72538841482043e-13)
(6.09412173351941e-28 -3.06704388819925e-06 2.00892894371794e-13)
(5.97031095519904e-28 -3.07025751828021e-06 4.33763994453102e-13)
(5.8455548884229e-28 -3.0737592712872e-06 3.7897983828761e-13)
(5.72460907094409e-28 -3.07753942445411e-06 -6.62147323310055e-14)
(5.60247630122047e-28 -3.08152685664378e-06 -1.08230846751749e-14)
(5.48405255800552e-28 -3.08572580782885e-06 3.50291384245443e-13)
(5.36453345634592e-28 -3.09017034186637e-06 -2.48831109832777e-13)
(5.24852433983479e-28 -3.09483617561945e-06 -5.79365735587559e-13)
(5.13134771311974e-28 -3.09967948162395e-06 8.08003880648463e-14)
(5.01767622619845e-28 -3.10474095744321e-06 5.6459364967796e-14)
(4.90286382036397e-28 -3.11003511832907e-06 -5.1323513906902e-13)
(4.79141112533048e-28 -3.11552038274376e-06 -4.84642727800218e-13)
(4.67889214340336e-28 -3.12119146785103e-06 3.18951808541012e-13)
(4.56973190875772e-28 -3.12709920629238e-06 2.01604030811511e-13)
(4.45944589488148e-28 -3.13323965680561e-06 6.37986848529556e-14)
(4.35246348501585e-28 -3.13956851588572e-06 -2.01739752027833e-14)
(4.24449553188224e-28 -3.14612686766104e-06 -1.47575089317839e-13)
(4.13973788914588e-28 -3.15294640910263e-06 4.87521323507821e-13)
(4.03398830200983e-28 -3.1599972858868e-06 9.63375654135672e-13)
(3.93149058665088e-28 -3.16726394063274e-06 5.08836116485007e-13)
(3.82809097909852e-28 -3.17482300127551e-06 -8.35390765520512e-15)
(3.72779278578767e-28 -3.182683693064e-06 -7.57813853146643e-14)
(3.62669342142648e-28 -3.1907878897143e-06 -4.33324427302617e-14)
(3.52876665893853e-28 -3.1991883525201e-06 3.04639231003155e-14)
(3.43001769639804e-28 -3.20794629278211e-06 -6.22377311617718e-15)
(3.33431563125812e-28 -3.21703757849422e-06 -2.91191763199794e-13)
(3.23798648825681e-28 -3.22642968308461e-06 -2.88467563657276e-13)
(3.14473229421642e-28 -3.23624856058072e-06 -3.27841625877537e-13)
(3.05078844908541e-28 -3.24653291353518e-06 -3.83710830030687e-13)
(2.95990458752901e-28 -3.25720329860715e-06 2.33620424052604e-14)
(2.86853642777378e-28 -3.26833598522709e-06 -5.07925781630466e-13)
(2.7801223644863e-28 -3.2800597638379e-06 -3.07787838675395e-13)
(2.69124503840413e-28 -3.29236724246874e-06 5.82135829167625e-13)
(2.60538542118016e-28 -3.30520427868973e-06 4.90538838554504e-13)
(2.51916748772846e-28 -3.31879702803049e-06 -4.51346246257591e-13)
(2.43581978818476e-28 -3.33325926364103e-06 -9.15219531110705e-13)
(2.35231147864042e-28 -3.34848615530877e-06 8.99296705138213e-14)
(2.27177298880909e-28 -3.36460258095892e-06 9.79255923675686e-14)
(2.19099831756123e-28 -3.38192098732035e-06 -2.37602939971394e-13)
(2.11314263963109e-28 -3.40048603147636e-06 -2.52383952155252e-13)
(2.03532928509083e-28 -3.42018463371999e-06 8.30106489662907e-14)
(1.96034919259345e-28 -3.44149615458381e-06 2.22293238148637e-13)
(1.88538428148013e-28 -3.46474140315715e-06 2.39008500963414e-13)
(1.8133837062833e-28 -3.48975453780952e-06 3.74359688609611e-13)
(1.74162987356914e-28 -3.5167508810412e-06 -1.67185176632469e-13)
(1.67256605812783e-28 -3.54652939701971e-06 -5.98165240573174e-13)
(1.60391323377156e-28 -3.57927225481313e-06 -4.25175253186717e-13)
(1.53814528875858e-28 -3.6146761165713e-06 6.40546897364522e-13)
(1.47272444840817e-28 -3.65383235783261e-06 9.75511168801979e-13)
(1.40997954892748e-28 -3.69757623380802e-06 9.91859423965088e-13)
(1.34797271468283e-28 -3.74557220182666e-06 3.49816509608033e-13)
(1.28865247094667e-28 -3.79820127186758e-06 -3.44489083177869e-13)
(1.22964932369346e-28 -3.85744266548661e-06 -1.6140799302635e-13)
(1.17334566858151e-28 -3.92376791677407e-06 -5.08464283107421e-13)
(1.11650818369128e-28 -3.99633109738068e-06 -3.98159755763352e-13)
(1.06156467029135e-28 -4.07769851858754e-06 -5.71267151657848e-13)
(1.01045869864046e-28 -4.16985672819725e-06 -7.38546588278357e-13)
(9.6066442751188e-29 -4.27202452735087e-06 2.18757584969976e-13)
(9.12927823885844e-29 -4.38510068326889e-06 3.85638041486524e-13)
(8.66092011302925e-29 -4.5166034600702e-06 -3.96016910677855e-15)
(8.21579741730742e-29 -4.67181855632676e-06 -1.42426243014854e-13)
(7.78367860751964e-29 -4.85077414383166e-06 9.76050653111713e-14)
(7.36725893453258e-29 -5.06676930136457e-06 5.63687800723452e-13)
(6.9644203066277e-29 -5.32707102072341e-06 1.16677962018335e-13)
(6.58798633207843e-29 -5.6226443060837e-06 -1.10976754708959e-12)
(6.22947491609949e-29 -5.95160766381665e-06 -9.2048290249754e-13)
(5.89813583350205e-29 -6.31497173726005e-06 2.90714111032708e-13)
(5.59265755781433e-29 -6.70331635408878e-06 -2.98821103116432e-13)
(5.30232707377714e-29 -7.10705331114242e-06 -2.59977779972681e-13)
(5.00997287584472e-29 -7.52275643711876e-06 1.25673743248451e-15)
(4.71331200561153e-29 -7.94107111481418e-06 -1.869689521937e-13)
(4.39884920217841e-29 -8.35285267239077e-06 8.00337090086998e-13)
(4.06590011623516e-29 -8.74999523133174e-06 6.3477291515181e-13)
(3.7056232928714e-29 -9.11876587745834e-06 -2.5611971281974e-13)
(3.3203472976456e-29 -9.45228182641836e-06 -1.14914703032459e-13)
(2.90667199550567e-29 -9.74721546470319e-06 2.734413678774e-13)
(2.48300327622654e-29 -9.98251659473091e-06 -2.92450033866332e-13)
(2.03980774722959e-29 -1.01509921248673e-05 -4.79204260758388e-13)
(1.61116525502653e-29 -1.02622215404397e-05 -4.66430236914169e-14)
(1.32193974387244e-29 -1.03105990818178e-05 7.79042716338052e-13)
(1.27602279435906e-29 -1.03029267042609e-05 1.11106020006568e-12)
(1.21757966531027e-29 -1.02590908221917e-05 3.33538659868558e-13)
(1.15503824841334e-29 -1.01876614058976e-05 -2.83358183592852e-13)
(1.08790972096508e-29 -1.00943716399872e-05 -1.79416641643012e-13)
(1.02153705233292e-29 -9.98727209033348e-06 4.38782447143538e-13)
(9.55944499189017e-30 -9.8714204318908e-06 5.13608766997488e-13)
(8.94368533315982e-30 -9.74855299525069e-06 1.77642027442261e-13)
(8.36029639187138e-30 -9.62186778697426e-06 7.69510000230407e-14)
(7.83520728052163e-30 -9.49444819599187e-06 -4.06987254650917e-13)
(7.34769870663947e-30 -9.36882903452221e-06 -5.45045144016211e-15)
(6.9319235637045e-30 -9.24830027455321e-06 5.12625961505071e-13)
(6.56545711257199e-30 -9.13600724915858e-06 2.7934428557778e-13)
(6.23764191607166e-30 -9.04238291423292e-06 3.58598268454437e-14)
(7.72517623849e-28 -4.16716409683183e-06 -3.1762568171815e-13)
(7.6408179902569e-28 -4.16635928579974e-06 -3.03102624699475e-13)
(7.49376400748356e-28 -4.16662926333217e-06 -3.28775999842284e-14)
(7.34611729691234e-28 -4.16731205878593e-06 -3.84861433453617e-13)
(7.20123761758755e-28 -4.16823214880216e-06 4.72786894423752e-13)
(7.05612797567965e-28 -4.16940042753342e-06 1.3455143502096e-12)
(6.91479279923269e-28 -4.17083011811627e-06 7.96019814341463e-13)
(6.77296354958341e-28 -4.17247545821018e-06 2.76918592394281e-13)
(6.63465545580679e-28 -4.17429148648245e-06 5.97306134353583e-13)
(6.49587945828115e-28 -4.17631008589569e-06 5.27788848899704e-13)
(6.36050052747011e-28 -4.17852475995779e-06 -8.90786060783969e-14)
(6.22445089006335e-28 -4.18088559045767e-06 -1.89840679533572e-14)
(6.0917206332889e-28 -4.18339534964034e-06 4.87207807677768e-13)
(5.95839651417996e-28 -4.18607810329826e-06 -3.36462965307648e-13)
(5.82823057636885e-28 -4.18891702454669e-06 -8.04305214600627e-13)
(5.69741691628141e-28 -4.19188124374577e-06 1.07745564177608e-13)
(5.5697625004229e-28 -4.19499930016059e-06 8.35163209819291e-14)
(5.44148225201032e-28 -4.19828166520388e-06 -7.05786537579758e-13)
(5.31624961864505e-28 -4.20169920678989e-06 -6.77184128535995e-13)
(5.1904619331256e-28 -4.20524809689795e-06 4.37043402573165e-13)
(5.06772566877294e-28 -4.20896419409961e-06 2.8055420272017e-13)
(4.94438499818511e-28 -4.21284501354677e-06 8.97430648878607e-14)
(4.82406068357227e-28 -4.2168593721138e-06 -2.62774686088761e-14)
(4.7032565254801e-28 -4.22103613282342e-06 -2.08745987270282e-13)
(4.58539858895045e-28 -4.22539788689683e-06 6.6672134541362e-13)
(4.46705911578472e-28 -4.22992379250735e-06 1.33382670233096e-12)
(4.35170908561158e-28 -4.23460280254469e-06 7.10823827790981e-13)
(4.23595893309805e-28 -4.23948900702617e-06 -8.13649995417629e-15)
(4.12308086494548e-28 -4.24458930422123e-06 -1.0476853795652e-13)
(4.00989457821376e-28 -4.2498627625715e-06 -6.0739240267658e-14)
(3.89965172452682e-28 -4.25534650442583e-06 4.20558991282456e-14)
(3.78908627554446e-28 -4.26108403772193e-06 -6.30440882187362e-15)
(3.68136475728309e-28 -4.26705865422021e-06 -4.01896126213572e-13)
(3.57349475154076e-28 -4.27324732282216e-06 -3.99411315596538e-13)
(3.46850468497963e-28 -4.27973904145514e-06 -4.5371589044162e-13)
(3.36331664246353e-28 -4.28656173492452e-06 -5.34392903638881e-13)
(3.26100655406003e-28 -4.29365944819158e-06 3.39434027606862e-14)
(3.15867917312681e-28 -4.30108594112267e-06 -7.02945410824105e-13)
(3.05915094175577e-28 -4.30893268096821e-06 -4.33660060345037e-13)
(2.95963139601485e-28 -4.31719503791816e-06 8.03698638517885e-13)
(2.86297398685701e-28 -4.32583469473975e-06 6.86902905006936e-13)
(2.76641911085514e-28 -4.3350116826489e-06 -6.18926457004471e-13)
(2.67261420189665e-28 -4.34480746115023e-06 -1.27410422317303e-12)
(2.5790918689636e-28 -4.35514828271504e-06 1.20120376499602e-13)
(2.48841472317721e-28 -4.36612235017433e-06 1.37856016134565e-13)
(2.39795991638572e-28 -4.37795157169661e-06 -3.28346435168966e-13)
(2.31032097751367e-28 -4.39066883993506e-06 -3.52338990085221e-13)
(2.2231515543292e-28 -4.40419413163542e-06 1.13085127414581e-13)
(2.13873634068575e-28 -4.41886711870832e-06 3.08172650621041e-13)
(2.05477445502394e-28 -4.43491701192658e-06 3.31367657092892e-13)
(1.97369438106025e-28 -4.45222738580428e-06 5.22540132846346e-13)
(1.89327413404007e-28 -4.47095053890107e-06 -2.28033350402861e-13)
(1.8155136672771e-28 -4.49165424975639e-06 -8.3081536812235e-13)
(1.73856385714819e-28 -4.51447065117883e-06 -5.97081769738267e-13)
(1.66445630367903e-28 -4.53918484376371e-06 8.85240463668933e-13)
(1.59111193975568e-28 -4.56657112428801e-06 1.35581555000982e-12)
(1.52044233263818e-28 -4.59722619514216e-06 1.38298606944322e-12)
(1.45088200857398e-28 -4.63091454733033e-06 4.92302025889162e-13)
(1.3840218077787e-28 -4.66790572451449e-06 -4.7774943858396e-13)
(1.31791950373907e-28 -4.70960748383547e-06 -2.23951269959935e-13)
(1.25454055015577e-28 -4.75636134052156e-06 -7.07264809511015e-13)
(1.19122335662492e-28 -4.80756667236289e-06 -5.54261248413658e-13)
(1.12991128627876e-28 -4.86504593106953e-06 -7.94556548120043e-13)
(1.07237892596289e-28 -4.93021901521985e-06 -1.0320278998308e-12)
(1.01644783789837e-28 -5.00253602200746e-06 3.01032245640187e-13)
(9.62755900914213e-29 -5.08262952924521e-06 5.38343761647433e-13)
(9.1031046556552e-29 -5.17584447489417e-06 -3.7740553437953e-15)
(8.60337595245331e-29 -5.28595636872111e-06 -1.9895834775813e-13)
(8.11962683600933e-29 -5.41298226299817e-06 1.33779826934194e-13)
(7.65423205782403e-29 -5.56637544669555e-06 7.86288432198387e-13)
(7.20532836949979e-29 -5.75134089133489e-06 1.68165013336074e-13)
(6.7841353971581e-29 -5.96146639748101e-06 -1.54501523502587e-12)
(6.38356734528717e-29 -6.195394442395e-06 -1.28866950268898e-12)
(6.01174548171053e-29 -6.45385017094653e-06 4.03809409907324e-13)
(5.66734866332374e-29 -6.73014130680861e-06 -4.15269829370273e-13)
(5.34100944496905e-29 -7.01742826180324e-06 -3.63592885028149e-13)
(5.01744314079889e-29 -7.31326440246814e-06 1.56956678204389e-15)
(4.69379556069707e-29 -7.61099533455315e-06 -2.63106101828823e-13)
(4.35792961849278e-29 -7.90410623336798e-06 1.11400003169366e-12)
(4.00908968195581e-29 -8.18683151577788e-06 8.87950155800104e-13)
(3.63866857338677e-29 -8.44939501285627e-06 -3.55160341049821e-13)
(3.24893121802731e-29 -8.68688246216665e-06 -1.61501392087845e-13)
(2.83681954695555e-29 -8.89694012631114e-06 3.81415217843383e-13)
(2.41775153497737e-29 -9.06459132745289e-06 -4.05647760278963e-13)
(1.98377670657099e-29 -9.18468648893879e-06 -6.67986760997089e-13)
(1.56842845791099e-29 -9.26407614311576e-06 -6.72577783587111e-14)
(1.29899727046651e-29 -9.29871386228273e-06 1.08353220716725e-12)
(1.25662338922903e-29 -9.29326708166415e-06 1.54823122641129e-12)
(1.20189705606119e-29 -9.26215574880588e-06 4.65871282974887e-13)
(1.14274374302642e-29 -9.21143316988703e-06 -3.94583831643184e-13)
(1.0793429696679e-29 -9.14516546107559e-06 -2.50609875818637e-13)
(1.01624754062146e-29 -9.06907050116428e-06 6.11495940119618e-13)
(9.53808397169447e-30 -8.98674143088286e-06 7.16434236859237e-13)
(8.94979342839562e-30 -8.89941017200529e-06 2.47964933939202e-13)
(8.39122409167553e-30 -8.80934896465799e-06 1.07562001838348e-13)
(7.88640545437059e-30 -8.71874974052605e-06 -5.67892145391948e-13)
(7.41870043828876e-30 -8.62941591785006e-06 -7.79240310260161e-15)
(7.01623070120466e-30 -8.54368982284501e-06 7.1553277049371e-13)
(6.66221104485754e-30 -8.46380498602529e-06 3.90117596304179e-13)
(6.36493664565461e-30 -8.3970887379102e-06 5.02311143827223e-14)
(6.61014907812413e-28 -5.24612013190826e-06 -4.0219133057899e-13)
(6.56468731168247e-28 -5.24534177531202e-06 -3.87734302275748e-13)
(6.43906020191402e-28 -5.24523395059545e-06 -3.87870787662615e-14)
(6.31311325288175e-28 -5.24537242473204e-06 -4.96394702147889e-13)
(6.18912393768617e-28 -5.24565126266981e-06 5.7977316693774e-13)
(6.06523967539212e-28 -5.24607617991851e-06 1.70474828438218e-12)
(5.94394200186778e-28 -5.24665521218725e-06 1.01988049474412e-12)
(5.82257972624946e-28 -5.24736160184396e-06 3.50848384092948e-13)
(5.70364374400774e-28 -5.24816860843725e-06 7.55377843143661e-13)
(5.584660491943e-28 -5.24909493325474e-06 6.77494102036508e-13)
(5.46802713859462e-28 -5.25013705321977e-06 -1.08957839331752e-13)
(5.35121759792328e-28 -5.25126551404076e-06 -3.09612996465705e-14)
(5.23671400431077e-28 -5.25248173985992e-06 6.24102467953045e-13)
(5.12208498408832e-28 -5.25380004637391e-06 -4.14798683591874e-13)
(5.00966320321773e-28 -5.25521071215408e-06 -1.0277193694467e-12)
(4.89708803902656e-28 -5.25669540693586e-06 1.30116662008446e-13)
(4.78672596987596e-28 -5.2582708991376e-06 1.15261954503304e-13)
(4.67622557991532e-28 -5.25994360387187e-06 -8.90307604067865e-13)
(4.56787482662651e-28 -5.26169639102555e-06 -8.72421197099981e-13)
(4.45943968173401e-28 -5.26352685341058e-06 5.48571643636895e-13)
(4.3531626172097e-28 -5.26545624422423e-06 3.59445908027201e-13)
(4.24677013458099e-28 -5.26748334360806e-06 1.16595163893712e-13)
(4.14252147517375e-28 -5.2695896717705e-06 -3.05807644318876e-14)
(4.03824569315782e-28 -5.27179220649185e-06 -2.72985509807479e-13)
(3.93607880168519e-28 -5.27410453074983e-06 8.34448731819105e-13)
(3.83388552698136e-28 -5.27651445863073e-06 1.69703480146024e-12)
(3.7338346172586e-28 -5.27901531528879e-06 9.1498358394119e-13)
(3.63381918236203e-28 -5.28163916058592e-06 -4.53926798737418e-15)
(3.53587939022344e-28 -5.28439041286199e-06 -1.32981932387313e-13)
(3.43803896950561e-28 -5.28724482529944e-06 -7.85093020473177e-14)
(3.34233163634183e-28 -5.2902242571838e-06 5.32572038034475e-14)
(3.2467202502359e-28 -5.29335473806452e-06 -4.15555887242704e-15)
(3.15318284499577e-28 -5.29662662047058e-06 -5.08993989429782e-13)
(3.05986240991087e-28 -5.30002610219692e-06 -5.07955387788266e-13)
(2.96865213036105e-28 -5.30360596232027e-06 -5.76601781853443e-13)
(2.87763042959474e-28 -5.30738325186083e-06 -6.84758921947649e-13)
(2.78872701629939e-28 -5.31132484257455e-06 4.58186417588486e-14)
(2.70013836355081e-28 -5.31546243489789e-06 -8.93147729904338e-13)
(2.61362646101507e-28 -5.31985064447785e-06 -5.63810073902109e-13)
(2.52745290994959e-28 -5.32448719071639e-06 1.01776046929498e-12)
(2.44340747338625e-28 -5.3293491561305e-06 8.85933199291375e-13)
(2.35976872973672e-28 -5.33453156217508e-06 -7.76663807587458e-13)