/*--------------------------------*- C++ -*----------------------------------*\
  =========                 |
  \\      /  F ield         | OpenFOAM: The Open Source CFD Toolbox
   \\    /   O peration     | Website:  https://openfoam.org
    \\  /    A nd           | Version:  8
     \\/     M anipulation  |
\*---------------------------------------------------------------------------*/
FoamFile
{
    version     2.0;
    format      ascii;
    class       volScalarField;
    location    "0.0275000";
    object      p;
}
// * * * * * * * * * * * * * * * * * * * * * * * * * * * * * * * * * * * * * //

dimensions      [0 2 -2 0 0 0 0];

internalField   nonuniform List<scalar> 
600
(
1254931.63040473
3810609.35366112
6454707.41758072
9158812.6632715
11927975.9647411
14767178.0772193
17679259.5788035
20666752.1374235
23732442.3570894
26879293.8782732
30110297.96945
33428789.3831442
36838301.2526368
40342519.7869561
43945266.0912448
47650684.1796259
51463152.6457127
55387178.8935753
59427612.1116107
63589610.4971175
67878630.9835291
72300320.6112577
76860826.7315428
81566676.9462581
86424690.0278915
91442153.2239564
96626894.9280348
101987289.990682
107531993.88416
113270526.14505
119213049.950474
125370282.890102
131753672.466779
138375666.306521
145249728.392036
152389751.830924
159811186.36948
167530676.665982
175565953.142338
183935918.00363
192661468.449089
201765429.786412
211271309.996761
221205533.603562
231596999.469456
242476786.201303
253877658.239524
265836711.406952
278395054.690597
291594514.636309
305482627.18904
320112376.991725
335541325.651075
351827881.223416
369041120.101154
387258718.921433
406556154.185331
427020444.808706
448750846.435653
471854985.09752
496431117.928129
522604784.070195
550517946.458774
580286922.302484
612048386.724433
645958260.148442
682184570.223979
720768474.825581
761786341.533743
805325642.280427
851055721.138268
898680510.679196
947900804.666072
998182727.924075
1048822944.84382
1099256107.6472
1148713610.79408
1196251779.96185
1240926511.54194
1281534794.57026
1316457079.65811
1344281399.09353
1361373296.72866
1365524672.31389
1346100448.03594
1304323748.1698
1193685093.49338
1109442963.26281
1013875410.25155
923906300.736761
831836037.413272
741185685.940195
650438129.970919
560427247.746298
470982708.565275
382430101.016927
294903219.349069
208612219.400008
123731761.610553
40485217.0477343
1268283.07660711
3826304.29659294
6477314.8405751
9184830.13207774
11955564.082624
14795570.9843274
17708099.2760171
20695885.1116927
23761785.332151
26908782.0481177
30139957.11837
33458624.9272435
36868305.1914933
40372679.8204286
43975608.4015637
47681210.9111365
51493839.3929571
55418043.3435089
59458662.3271909
63620842.226074
67910015.5204537
72331889.1934474
76892578.9301104
81598585.2430233
86456758.8583507
91474395.3635611
96659308.4409245
102019816.130088
107564680.195413
113303365.23057
119245999.529779
125403327.34871
131786835.907798
138408947.588161
145283004.893985
152423095.872684
159844580.406226
167564047.642
175599229.176609
183969148.822302
192694638.72764
201798277.941453
211303935.898432
221237911.11005
231628975.889374
242508095.665393
253908430.617744
265866906.91796
278424028.456871
291622395.087453
305509377.827695
320137656.292261
335564185.901133
351848784.720631
369059955.776507
387273672.549754
406567414.723218
427028021.259222
448753913.525213
471850362.296265
496420518.69458
522587957.303979
550489346.082673
580247294.120423
611997933.790274
645896409.318966
682095885.971492
720658087.604924
761657379.042353
805140636.031305
850831450.00885
898426285.887874
947607594.564381
997850138.694027
1048478412.3345
1098897222.53408
1148343418.99899
1195893097.46019
1240576647.25662
1281207401.41666
1316172284.31648
1344031465.76759
1361162646.60328
1365389556.16754
1346031437.2431
1304399265.13313
1193897116.25804
1109662777.7464
1014091269.73143
924093901.069742
832003329.877472
741342884.448291
650577351.658376
560544147.915615
471087127.451486
382514492.393916
294971714.898482
208663946.459188
123749603.906453
40343857.0552357
1269335.72895905
3830319.44841764
6481733.4717839
9189203.21174855
11960204.3305757
14800467.3408277
17713125.9817645
20700945.3297675
23766807.0394243
26913713.6145653
30144793.5663512
33463362.8798532
36872930.1672199
40377179.013995
43979985.2354939
47685457.8808224
51497937.0300268
55421988.6730184
59462451.1467602
63624458.3980836
67913436.232736
72335114.8997901
76895597.7055026
81601369.8628431
86459295.5733228
91476676.90755
96661312.1380865
102021500.624588
107566044.935262
113304389.34838
119246637.802081
125403548.784011
131786630.56163
138408279.099603
145281792.755626
152421334.900736
159842235.022191
167561037.317666
175595481.836131
183964648.686284
192689314.095664
201791961.308863
211296604.283154
221229503.585572
231619325.238286
242497009.113437
253895884.827402
265852756.490919
278407885.898449
291604170.391231
305488956.360627
320114650.44789
335538042.410407
351819507.064487
369027208.059933
387236451.245533
406525450.790612
426981103.455305
448701062.658921
471790042.315255
496352880.311644
522512156.92704
550402747.722629
580149273.940072
611888198.219287
645772150.6217
681951077.600409
720492399.320902
761466892.929205
804913803.142828
850570746.592543
898136902.412604
947289719.607218
997508915.367339
1048125285.19677
1098539037.21215
1147987875.52195
1195551311.89767
1240257149.72759
1280922099.46849
1315931268.72092
1343843764.52432
1361036140.44685
1365358421.49698
1346087073.26622
1304647099.50012
1194127663.72736
1109913572.80593
1014314397.64403
924301215.828628
832190168.624672
741509786.090525
650725536.531358
560675449.724385
471199379.21561
382609906.409561
295049267.241462
208723603.743814
123794342.354053
40402914.8895993
1262693.15433215
3816081.864926
6452727.81616587
9154912.25927915
11924343.0895284
14763906.1958444
17676021.6511856
20663288.8411047
23728547.0428369
26874800.7294385
30105198.6788222
33423062.8894872
36831897.5675585
40335388.0731858
43937415.26229
47642083.3773121
51453727.2450185
55376917.1901383
59416491.0739606
63577575.3855219
67865593.7126299
72286282.4648679
76845739.6866195
81550442.5847605
86407258.5903114
91423491.57618
96606929.5789979
101965865.546339
107509112.975068
113246108.076405
119186940.748662
125342373.20137
131723920.258571
138343960.351664
145215776.201909
152353552.115474
159772606.42023
167489456.312951
175521844.052921
183888867.768057
192611269.359
201711496.994751
211213608.058386
221143850.040956
231530826.749235
242405471.809541
253801170.451293
265754658.040819
278306109.358178
291498510.770276
305379209.244384
320000454.066994
335419002.626132
351695411.826793
368897677.305691
387100879.073947
406383457.930095
426832374.48747
448544851.889599
471625561.694807
496179855.928438
522329882.170601
550210027.304387
579945516.440931
611673187.908897
645544114.65636
681708164.817655
720234472.221349
761191807.495758
804619605.089965
850259205.243367
897812515.209017
946955755.813617
997171574.17529
1047792023.458
1098217467.40251
1147686172.32227
1195278141.8525
1240022677.65388
1280737911.64549
1315808086.48261
1343796667.8668
1361082195.2104
1365532472.07072
1346410785.42339
1305207108.26661
1194353017.35853
1110146401.88447
1014532849.71578
924498518.466131
832370354.748185
741669208.194284
650866817.871437
560799360.309839
471304424.548122
382697587.63774
295119027.941986
208776009.872713
123835177.052903
40445787.4185228
1227769.56716964
3763075.7030446
6380201.08998415
9075807.65827984
11843250.5750488
14681667.695418
17592694.1680179
20578802.8696885
23642820.5876771
26787766.9344473
30016808.5968957
33333274.108847
36740666.9924497
40242672.7570061
43843172.9954912
47546268.6169858
51356290.8129648
55277809.9376156
59315661.8668455
63474968.4841679
67761150.4663681
72179944.472734
76737444.1881668
81440121.4155049
86294842.2420411
91308908.5325946
96490101.7275208
101846709.097856
107387545.034042
113122038.972413
119060272.097742
125213003.864757
131591747.083003
138208869.564277
145077643.190976
152212254.838858
159628012.407426
167341418.276235
175370208.781889
183733481.31307
192451959.218686
201548070.84091
211045880.333085
220971619.484477
231353864.726283
242223537.667788
253614029.865026
265562043.890716
278107718.58146
291294055.946602
305168383.862656
319782900.541479
335194344.885706
351463308.690329
368657722.336465
386852614.089414
406126478.223936
426566259.522595
448269092.873857
471339682.665823
495883488.490129
522022540.915132
549891269.476227
579615095.690134
611330942.865887
645189814.255958
681342239.242732
719858092.024713
760806152.933886
804227702.803877
849865410.204383
897421456.890492
946572736.151002
996803469.407572
1047445589.90794
1097899952.64209
1147406122.70468
1195044551.98725
1239846028.6104
1280630732.83328
1315784435.71239
1343876523.03451
1361291493.99843
1365914644.88128
1347015326.98126
1306117186.67484
1194588420.08069
1110375674.3819
1014761791.62225
924698555.206612
832554782.706307
741831676.111589
651010249.54577
560922860.234711
471408202.754166
382781760.020789
295183857.549072
208822200.617856
123866315.386992
40459629.978756
1165204.27975834
3675505.3315423
6274844.43185716
8965327.37024018
11731222.608223
14568497.7952122
17478273.8297835
20462993.8077164
23525518.0305798
26668897.2743209
29896315.3400658
33211106.5022678
36616775.0465087
40117005.3019019
43715676.922423
47416888.3740056
51224968.2767486
55144484.5341296
59180270.049801
63337444.0163746
67621423.9036766
72037943.1441949
76593091.6338327
81293337.6109824
86145543.1348052
91157005.7808748
96335502.7267449
101689316.454633
107227256.090157
112958745.119063
118893859.709414
125043352.912054
131418730.10336
138032352.840927
144897486.118149
152028307.690263
159440115.591834
167149405.547835
175173903.684805
183532694.295216
192246491.761176
201337716.524351
210830415.344738
220750802.622274
231127449.562463
241991264.579794
253375611.706819
265317181.74079
277856115.683789
291035380.833125
304902271.764146
319509000.215251
334912306.120285
351172708.528097
368358131.92946
386543680.5845
405807775.485276
426237288.381885
447929465.6757
470989136.321897
495521541.927622
521648779.301072
549505721.011227
579217642.115416
610921342.892056
644768523.421379
680911086.993847
719418599.074729
760360814.177364
803782766.160326
849426021.881788
896991798.987841
946159264.691976
996413314.073832
1047084311.74604
1097574535.79949
1147125038.84067
1194816232.31818
1239680677.53747
1280541060.21731
1315784018.01124
1343989418.04461
1361541734.15495
1366358019.26715
1347690672.6953
1307167040.85674
1194795183.62168
1110605241.56327
1014982426.51736
924894673.101967
832733645.52496
741989879.019476
651149101.164779
561041720.73834
471507349.962933
382861109.096406
295243818.422849
208863487.898016
123891811.500482
40472655.9059647
)
;

boundaryField
{
    dieWall
    {
        type            zeroGradient;
    }
    outlet
    {
        type            fixedValue;
        value           uniform 0;
    }
    Wire
    {
        type            zeroGradient;
    }
    inlet
    {
        type            fixedValue;
        value           uniform 0;
    }
    back
    {
        type            wedge;
    }
    front
    {
        type            wedge;
    }
}


// ************************************************************************* //
