/*--------------------------------*- C++ -*----------------------------------*\
  =========                 |
  \\      /  F ield         | OpenFOAM: The Open Source CFD Toolbox
   \\    /   O peration     | Website:  https://openfoam.org
    \\  /    A nd           | Version:  8
     \\/     M anipulation  |
\*---------------------------------------------------------------------------*/
FoamFile
{
    version     2.0;
    format      ascii;
    class       surfaceScalarField;
    location    "0.0275000";
    object      phi;
}
// * * * * * * * * * * * * * * * * * * * * * * * * * * * * * * * * * * * * * //

dimensions      [0 3 -1 0 0 0 0];

internalField   nonuniform List<scalar> 
1094
(
1.14519586801621e-09
1.26319044226089e-11
1.13250168966396e-09
1.3069131314027e-11
1.11967310404606e-09
1.32973487886383e-11
1.1065439042293e-09
1.36370759851358e-11
1.09323568739009e-09
1.38531694257729e-11
1.07985813894583e-09
1.39651741393827e-11
1.06646631585289e-09
1.40205589495678e-11
1.05307453016045e-09
1.40483554627922e-11
1.03968918256975e-09
1.40686155279732e-11
1.02632049610632e-09
1.40898150243472e-11
1.01295923243368e-09
1.41067865718474e-11
9.99605538052384e-10
1.41209572844705e-11
9.86261179898514e-10
1.41366558363851e-11
9.72929460316706e-10
1.41533613894521e-11
9.59603849341025e-10
1.41671239374825e-11
9.46284481523859e-10
1.41805180321154e-11
9.32977929520406e-10
1.41962192993103e-11
9.19679792860755e-10
1.42104503265874e-11
9.0638848309397e-10
1.4223111924476e-11
8.93104381081386e-10
1.42374422381839e-11
8.79834005196654e-10
1.42540906132116e-11
8.66570026825982e-10
1.42680965640469e-11
8.53312812306295e-10
1.42821798766179e-11
8.40067821037008e-10
1.4299754559025e-11
8.26833272690028e-10
1.43172627945411e-11
8.13606295561786e-10
1.43326930776005e-11
8.00386104247943e-10
1.43502039384217e-11
7.87183253010093e-10
1.43726109556346e-11
7.73987662824975e-10
1.4391810302178e-11
7.60800000636386e-10
1.44109276372966e-11
7.47625693139473e-10
1.44351924504571e-11
7.34465664995664e-10
1.4461130296481e-11
7.21314969190172e-10
1.44842508384418e-11
7.08171345876839e-10
1.45107133029697e-11
6.95051640141997e-10
1.45467276435167e-11
6.81941822704079e-10
1.45787806066995e-11
6.68842635527671e-10
1.46110395192155e-11
6.5576033421673e-10
1.46526256551401e-11
6.42701170986423e-10
1.47002781875991e-11
6.29655589557042e-10
1.47436718956901e-11
6.16619627628822e-10
1.47937966680578e-11
6.03619464483039e-10
1.48638562084659e-11
5.90637357362993e-10
1.49301536509126e-11
5.77672452120314e-10
1.49970119672359e-11
5.64732668157629e-10
1.50839287581917e-11
5.51837885291754e-10
1.51906323851973e-11
5.3896621161991e-10
1.52897166666039e-11
5.26111264905596e-10
1.54026441523179e-11
5.13323107968292e-10
1.55618132599407e-11
5.00575076762066e-10
1.57212032515467e-11
4.87860481226061e-10
1.58808172843253e-11
4.75188904533021e-10
1.60854475326336e-11
4.62618562222464e-10
1.63481570150265e-11
4.50094739995268e-10
1.65899511756123e-11
4.37605903139232e-10
1.68616675656094e-11
4.25256083276813e-10
1.72464483647151e-11
4.13000462692565e-10
1.76384404751397e-11
4.00817703561887e-10
1.802352891861e-11
3.88719732347772e-10
1.85138145356811e-11
3.76859057870806e-10
1.91578858572682e-11
3.65098304240595e-10
1.97372646940929e-11
3.53412976838818e-10
2.03814860034144e-11
3.42038230827256e-10
2.13004844818751e-11
3.30875917466214e-10
2.22338840410685e-11
3.19883709082003e-10
2.31440125774072e-11
3.09020843715012e-10
2.43855521596995e-11
2.98905637812603e-10
2.63450282480911e-11
2.89284261185495e-10
2.83853658906493e-11
2.79941470084513e-10
3.09365284663956e-11
2.72099606233078e-10
3.48582925127828e-11
2.65002065495592e-10
3.85009752413979e-11
2.58356357200896e-10
4.15893520557956e-11
2.52495097956353e-10
4.47668223123053e-11
2.47528835325846e-10
4.75886406994384e-11
2.42699039087296e-10
4.93391181252674e-11
2.38225486340522e-10
5.06066565310849e-11
2.34151367434651e-10
5.13418215029751e-11
2.29840016204652e-10
5.11239352831753e-11
2.25551027087787e-10
5.02489746755788e-11
2.2097144500843e-10
4.83458063779188e-11
2.15320233798849e-10
4.54390533413069e-11
2.09240861723783e-10
4.21936682621181e-11
2.03003957330721e-10
3.7984763151077e-11
1.93938978091511e-10
3.19856651864014e-11
1.83941417512668e-10
2.68078727982963e-11
1.75526970391561e-10
1.92114430014492e-11
1.74594600207442e-10
3.39477150739816e-12
1.73791520055131e-10
-1.30838597307613e-12
1.72441839777291e-10
-3.84235239733972e-12
1.70456810115369e-10
-6.13333209770662e-12
1.6799594301931e-10
-7.65823821316147e-12
1.65554678291726e-10
-8.66083307805552e-12
1.62929961148808e-10
-9.33398809085107e-12
1.60052691292986e-10
-9.8028311032169e-12
1.57260041678618e-10
-9.98831260510428e-12
1.54393631617056e-10
-9.95149597075038e-12
1.51628814925339e-10
-9.64954887396793e-12
1.49007598923672e-10
-9.05951417726709e-12
1.46213166105963e-10
-7.92552967089507e-12
-3.20306300845187e-12
3.35310472259165e-10
1.33707568050529e-11
3.33853390662758e-10
1.46390411534824e-11
3.31056042946686e-10
1.62073552197677e-11
3.27385178557254e-10
1.74204249202547e-11
3.23278029390224e-10
1.80726029808966e-11
3.18994643541613e-10
1.83606355447783e-11
3.14656742351971e-10
1.84703306602787e-11
3.10311054879042e-10
1.85057097055892e-11
3.05974404250906e-10
1.85167298339084e-11
3.01652877922951e-10
1.85225997415063e-11
2.97344900802907e-10
1.85258246964286e-11
2.93049107213989e-10
1.85276387823764e-11
2.88766283586975e-10
1.8530202174924e-11
2.8449683193075e-10
1.85333414609733e-11
2.80238990263605e-10
1.85352702491321e-11
2.75992750447815e-10
1.8536854030623e-11
2.71759656516978e-10
1.85392361295725e-11
2.67538874272177e-10
1.85409736297876e-11
2.63329461733725e-10
1.85420501403339e-11
2.5913223657307e-10
1.85439890489318e-11
2.54948496784085e-10
1.85469870878382e-11
2.50776756593295e-10
1.85488280169916e-11
2.46616964762434e-10
1.85507530148438e-11
2.42470754558154e-10
1.85544980781776e-11
2.38337934030358e-10
1.8558372332879e-11
2.34217426208992e-10
1.85612780274614e-11
2.30110076576538e-10
1.85654351695349e-11
2.26018066358183e-10
1.85722864230573e-11
2.21939605700985e-10
1.85777037571645e-11
2.1787458121869e-10
1.85831764215561e-11
2.13825131856376e-10
1.85916893906513e-11
2.09791743756813e-10
1.86013892119985e-11
2.05772947940316e-10
1.86097155071181e-11
2.01769808603791e-10
1.86202991577534e-11
1.97786050349527e-10
1.86367057828199e-11
1.93819577897095e-10
1.86512445992937e-11
1.89870240307238e-10
1.86661403931795e-11
1.85941313785082e-10
1.86870961966639e-11
1.82034754502231e-10
1.87121635726617e-11
1.78148535389435e-10
1.87349832813311e-11
1.74284389907936e-10
1.8762793883035e-11
1.70448813773931e-10
1.88040538170863e-11
1.66639925601416e-10
1.88434244586798e-11
1.62857677392831e-10
1.88833717360247e-11
1.59108080752358e-10
1.89373472834316e-11
1.55396837228672e-10
1.90053969546501e-11
1.51720749787402e-10
1.90689759119182e-11
1.48083566133448e-10
1.91425952218209e-11
1.44498735213806e-10
1.92489687960003e-11
1.40965236587818e-10
1.93564837999016e-11
1.37483008183974e-10
1.94642131495405e-11
1.34064378669363e-10
1.96047130625788e-11
1.30724589726687e-10
1.97880725342765e-11
1.27457718222807e-10
1.99562239949051e-11
1.24272175678503e-10
2.01456644511526e-11
1.21196933124716e-10
2.04191423547785e-11
1.18233435277219e-10
2.06983200966035e-11
1.15381961775651e-10
2.09701894417623e-11
1.12669043076309e-10
2.13206434696049e-11
1.10131090362495e-10
2.17882927385275e-11
1.07755992464394e-10
2.2203016624588e-11
1.05562757199151e-10
2.26632835352329e-11
1.03614414319759e-10
2.33350553754289e-11
1.0191739777568e-10
2.40143871234466e-11
1.00480192237534e-10
2.46615842833714e-11
9.93948525201152e-11
2.5547675381687e-11
9.88406445699514e-11
2.69709564957051e-11
9.88812728961818e-11
2.84087501287232e-11
9.96548555639623e-11
3.02170420154192e-11
1.0142703623373e-10
3.31290905520587e-11
1.04125586189856e-10
3.58327179921931e-11
1.07632029233414e-10
3.80991417821989e-11
1.11937221935293e-10
4.0463948601218e-11
1.16949059148724e-10
4.25653469600395e-11
1.22436447523775e-10
4.38259875875009e-11
1.28264338583989e-10
4.47389250234523e-11
1.34284751218841e-10
4.52681220563989e-11
1.40267858963913e-10
4.50746068310322e-11
1.46028218850672e-10
4.44095972279665e-11
1.51310882544252e-10
4.29713442681644e-11
1.55860216672792e-10
4.07868653148814e-11
1.59575919032127e-10
3.83654745907184e-11
1.6219471860139e-10
3.5242474863502e-11
1.63297202531237e-10
3.07507543298583e-11
1.62919237538288e-10
2.704874423979e-11
1.61526848108561e-10
2.04614343962791e-11
1.61954361854092e-10
2.81663620603612e-12
1.61332920461343e-10
-8.45334905765507e-13
1.59926263461119e-10
-2.5997406579228e-12
1.57915298402368e-10
-4.29110358109386e-12
1.55462545847203e-10
-5.37592710730585e-12
1.5274797423836e-10
-6.11671373751007e-12
1.49840874347321e-10
-6.60034535975583e-12
1.46795641563538e-10
-6.93547447635938e-12
1.43700419771745e-10
-7.07244512160601e-12
1.40617044291337e-10
-7.04572086708871e-12
1.37618747373526e-10
-6.82706787515983e-12
1.34777620197683e-10
-6.39421904583155e-12
1.32221877485901e-10
-5.54632220072903e-12
-2.0704994645292e-12
-2.31861369026842e-10
7.21642366174213e-12
-2.26251394896175e-10
9.14586948872932e-12
-2.22457676597224e-10
1.25302289650028e-11
-2.19599570609579e-10
1.46786943354723e-11
-2.17133019856165e-10
1.57221838033625e-11
-2.14812502685578e-10
1.61559974026017e-11
-2.1253699824177e-10
1.63104566235868e-11
-2.10269149683154e-10
1.63532441185015e-11
-2.07995849387514e-10
1.63585660388163e-11
-2.05712715672306e-10
1.6354353654386e-11
-2.0342019206074e-10
1.63479481794819e-11
-2.01119226426847e-10
1.63411052812327e-11
-1.98809428400439e-10
1.63346292332399e-11
-1.96490659518386e-10
1.63285598515384e-11
-1.94163844022156e-10
1.63221736997314e-11
-1.91829050498851e-10
1.63155274592398e-11
-1.89485551142119e-10
1.6308988775446e-11
-1.87133741557342e-10
1.63021918287357e-11
-1.84774178329495e-10
1.62952549436597e-11
-1.82406281140594e-10
1.62886124684302e-11
-1.80029374058398e-10
1.62823942179242e-11
-1.77644180619899e-10
1.62757415728929e-11
-1.75250756466574e-10
1.62691819542607e-11
-1.72848140216412e-10
1.62634416880949e-11
-1.70436340322095e-10
1.62578433799885e-11
-1.68015955892865e-10
1.62519095263758e-11
-1.65586272398305e-10
1.62465296920454e-11
-1.63146032761972e-10
1.62425646004145e-11
-1.6069611167275e-10
1.62380234117047e-11
-1.58236548607662e-10
1.62336027563749e-11
-1.5576581066133e-10
1.62307224216493e-11
-1.53283462887933e-10
1.62285935622874e-11
-1.50790393651036e-10
1.62259532066432e-11
-1.48285561620919e-10
1.6224507576264e-11
-1.45766487387379e-10
1.62264015878489e-11
-1.43234185362183e-10
1.62274408103399e-11
-1.40688691904212e-10
1.6228873041317e-11
-1.38127338749583e-10
1.62337070393579e-11
-1.35548563904304e-10
1.62410918042747e-11
-1.32953607964174e-10
1.62474521016756e-11
-1.30340469516676e-10
1.62567950854582e-11
-1.2770400763162e-10
1.62744584179828e-11
-1.25045124419764e-10
1.62911259548171e-11
-1.22363800769827e-10
1.63083166209086e-11
-1.19654457250121e-10
1.63339374156486e-11
-1.1691210788518e-10
1.63686360993547e-11
-1.14138821145757e-10
1.64008828651127e-11
-1.11330589628364e-10
1.64391043976305e-11
-1.0847563755247e-10
1.64982689767669e-11
-1.0557382975665e-10
1.65583348846367e-11
-1.02625231355521e-10
1.66185997568873e-11
-9.96172365991287e-11
1.66991284311399e-11
-9.65354377067905e-11
1.68081369239642e-11
-9.33850398357588e-11
1.6906910421516e-11
-9.01575162523027e-11
1.70182129520354e-11
-8.68244121958141e-11
1.71850507307153e-11
-8.33833508680972e-11
1.73551489907324e-11
-7.98357925411969e-11
1.75192630273522e-11
-7.61529080072633e-11
1.77330596688012e-11
-7.22974972451026e-11
1.80266737666661e-11
-6.82843841644428e-11
1.8281829939572e-11
-6.40947238542822e-11
1.85633850193967e-11
-5.96605213452082e-11
1.89882171227909e-11
-5.49766726586606e-11
1.94150907485511e-11
-5.00473522955772e-11
1.98136083742891e-11
-4.47793544682295e-11
2.0357411196929e-11
-3.89942635336257e-11
2.12584950219737e-11
-3.2662372047525e-11
2.21416450146471e-11
-2.56395663272088e-11
2.32489228834552e-11
-1.75964062907371e-11
2.512938488935e-11
-8.59958545319768e-12
2.68665346159309e-11
1.20953246282682e-12
2.83063900787057e-11
1.18457521542596e-11
2.98300648395005e-11
2.32116692568211e-11
3.11879104738514e-11
3.5039113275717e-11
3.19726477854286e-11
4.71947028624663e-11
3.25432888339085e-11
5.95353681909896e-11
3.2873947542074e-11
7.18165764319218e-11
3.27269706216281e-11
8.38603438985956e-11
3.22866458138471e-11
9.53884727170938e-11
3.13514719069707e-11
1.06164254811475e-10
2.9908455866342e-11
1.16047125489882e-10
2.8370213425777e-11
1.24852322322071e-10
2.63144094059924e-11
1.3198321999747e-10
2.34884464089814e-11
1.37887978095644e-10
2.10076694843525e-11
1.41303849706717e-10
1.69041456109939e-11
1.42226479918602e-10
1.7451489581799e-12
1.41425313087236e-10
-2.00610463510227e-13
1.40090629892751e-10
-1.4278960855792e-12
1.38055349039432e-10
-2.42340121206678e-12
1.35643555745713e-10
-3.13353614057619e-12
1.32942351403773e-10
-3.58542210045609e-12
1.30062779212105e-10
-3.89352509082606e-12
1.27049952475597e-10
-4.09958180609301e-12
1.23985529598205e-10
-4.18652703646092e-12
1.20933322194143e-10
-4.17051765411624e-12
1.17964592348502e-10
-4.03371398351032e-12
1.15156287355898e-10
-3.76131942621217e-12
1.12671637822075e-10
-3.23796418173133e-12
-1.05262788180428e-12
-5.33627398688718e-10
-4.16999602933752e-13
-5.26970285886265e-10
2.60940836363762e-12
-5.20884358335278e-10
6.56470476670005e-12
-5.14927758615127e-10
8.84224138275239e-12
-5.089528992869e-10
9.86718667620561e-12
-5.02947871397891e-10
1.02705380533676e-11
-4.9692565399437e-10
1.04075180429429e-11
-4.90895803472831e-10
1.0442383929691e-11
-4.84862237280439e-10
1.04437026654068e-11
-4.78825912207157e-10
1.04364414746186e-11
-4.72787555970199e-10
1.04277235805078e-11
-4.66747611904166e-10
1.04190378608837e-11
-4.60705946686275e-10
1.04105936968796e-11
-4.54662471962295e-10
1.04024361743028e-11
-4.48617548623624e-10
1.03942914755148e-11
-4.42571266143152e-10
1.03859929542641e-11
-4.36523391161619e-10
1.03776065473207e-11
-4.30474103493847e-10
1.03691321424691e-11
-4.24423605738252e-10
1.03606840737785e-11
-4.18371642675978e-10
1.03522878754796e-11
-4.1231787765356e-10
1.03440212010423e-11
-4.06262604131748e-10
1.03356126379477e-11
-4.002058390101e-10
1.03272660986826e-11
-3.94147125870915e-10
1.03192421719655e-11
-3.88086405144095e-10
1.03113050504676e-11
-3.82023867016484e-10
1.03032572948668e-11
-3.7595911412933e-10
1.02953836747369e-11
-3.69891415813491e-10
1.02881713276194e-11
-3.63821147384521e-10
1.02807410387082e-11
-3.57748221684973e-10
1.02733704882448e-11
-3.51671718331165e-10
1.02666535104355e-11
-3.45591273408838e-10
1.02603236076539e-11
-3.39507244596359e-10
1.02538129448591e-11
-3.33418945656495e-10
1.02477889474159e-11
-3.27324709449221e-10
1.02434333679471e-11
-3.21224984393366e-10
1.02386699734825e-11
-3.15119585123834e-10
1.0234113932418e-11
-3.09006689921792e-10
1.02311481835502e-11
-3.02885066590095e-10
1.02295021346218e-11
-2.96755252548103e-10
1.02273512332244e-11
-2.9061562795657e-10
1.02265562496702e-11
-2.84462229785957e-10
1.02301307376385e-11
-2.78295458151708e-10
1.02331007008312e-11
-2.72115011217199e-10
1.02362568933155e-11
-2.65916604380265e-10
1.02435395009901e-11
-2.59696037324589e-10
1.02556891020605e-11
-2.53454400035346e-10
1.02664261051595e-11
-2.47188414168162e-10
1.02798003466386e-11
-2.40888371089456e-10
1.03043727858067e-11
-2.34553729667311e-10
1.03291983713869e-11
-2.28184136416649e-10
1.03537879064134e-11
-2.21769168633141e-10
1.03883197265825e-11
-2.15295988213886e-10
1.04385216896028e-11
-2.08768812939738e-10
1.04824703558749e-11
-2.02180711427764e-10
1.05317796963733e-11
-1.95506452192671e-10
1.06113447916463e-11
-1.88743764666244e-10
1.06918365383558e-11
-1.81894304602993e-10
1.0767862295961e-11
-1.74933116237592e-10
1.08685414270623e-11
-1.67825355654572e-10
1.10140144413494e-11
-1.60586187329481e-10
1.11358338737047e-11
-1.53200394142998e-10
1.1268532701865e-11
-1.45604121056591e-10
1.14804180659617e-11
-1.37794314277402e-10
1.16908731592577e-11
-1.29780278909625e-10
1.18818798206209e-11
-1.21484578149945e-10
1.2140329453745e-11
-1.12745922913498e-10
1.25932650267876e-11
-1.03559022127899e-10
1.30202143109778e-11
-9.38022590440837e-11
1.3547403054256e-11
-8.31403740174335e-11
1.45113829650006e-11
-7.16335877263831e-11
1.53906827850831e-11
-5.94185779484753e-11
1.61079126909137e-11
-4.64678640676911e-11
1.68817384669772e-11
-3.28674973946944e-11
1.75759789782524e-11
-1.88789621070997e-11
1.79580902174521e-11
-4.61595518230758e-12
1.82400472130262e-11
9.79963868414733e-12
1.84046182442024e-11
2.41414862513501e-11
1.83184557508001e-11
3.82601922766151e-11
1.80885269961522e-11
5.19031645826798e-11
1.76165711915095e-11
6.48549608152529e-11
1.68539329925841e-11
7.70046223764229e-11
1.61081514342628e-11
8.81954876816767e-11
1.50007252660893e-11
9.78616717095649e-11
1.36909876968706e-11
1.06506742776215e-10
1.2226600713959e-11
1.12527844109263e-10
1.07422172578551e-11
1.13371736194834e-10
7.53145265059596e-13
1.12610966803011e-10
4.04446314667731e-13
1.11437613375685e-10
-4.16784908610129e-13
1.09647776067999e-10
-8.00726528132954e-13
1.07542646877924e-10
-1.19742946819045e-12
1.0518702871729e-10
-1.39924435834564e-12
1.02680228379854e-10
-1.55903801058071e-12
1.00058879926618e-10
-1.65486081350289e-12
9.73929717278222e-11
-1.69887521888452e-12
9.47371252449414e-11
-1.69140315240025e-12
9.21531503587306e-11
-1.62484863641098e-12
8.9707122124359e-11
-1.49049182822118e-12
8.75305315592588e-11
-1.23753604899229e-12
-1.74549136291837e-13
-5.540616636066e-10
-3.39433368696563e-12
-5.50774302259633e-10
-5.53569916642785e-13
-5.46028880475291e-10
1.9433819335024e-12
-5.40291495805795e-10
3.22866155851306e-12
-5.34051808317526e-10
3.75098112589418e-12
-5.27600668166636e-10
3.94254733755928e-12
-5.21073903209292e-10
4.00357393147975e-12
-5.14526238674088e-10
4.0172128768911e-12
-5.07976433885775e-10
4.01606494063999e-12
-5.01429555532091e-10
4.01140122556734e-12
-4.94886610680608e-10
4.00629668405817e-12
-4.8834765959605e-10
4.00131158238512e-12
-4.81812588682557e-10
3.9964629106585e-12
-4.75281285360665e-10
3.99175584811156e-12
-4.68753808429029e-10
3.98708799391947e-12
-4.62230236391856e-10
3.98236173436751e-12
-4.55710568065198e-10
3.97758532315365e-12
-4.49194875902811e-10
3.97278383644881e-12
-4.42683196563242e-10
3.96800809705305e-12
-4.36175463031298e-10
3.96322989253862e-12
-4.29671529375622e-10
3.95847820635542e-12
-4.23171487214993e-10
3.95367550957046e-12
-4.16675349824682e-10
3.94889909588777e-12
-4.10182945931502e-10
3.94423245334002e-12
-4.03694211565796e-10
3.93959286671323e-12
-3.97209162248443e-10
3.93489365518895e-12
-3.90727629505014e-10
3.9302181234593e-12
-3.84249204674451e-10
3.92577193896644e-12
-3.77774038752423e-10
3.92124110921629e-12
-3.71302036626566e-10
3.9167017128651e-12
-3.64832697111647e-10
3.91234914893464e-12
-3.58365756281666e-10
3.90811937742965e-12
-3.51901343115933e-10
3.903810325465e-12
-3.45439104012215e-10
3.89961189368187e-12
-3.38977948949285e-10
3.89598745734501e-12
-3.32518101276884e-10
3.89217695682646e-12
-3.26059376981669e-10
3.88838949939668e-12
-3.19600655371219e-10
3.88508212865692e-12
-3.13141050098646e-10
3.88220927845539e-12
-3.06680836659495e-10
3.87908880884469e-12
-3.00218990972545e-10
3.87629290749141e-12
-2.93752632504932e-10
3.87499823179639e-12
-2.87282048966421e-10
3.87337778892379e-12
-2.80807033671004e-10
3.87170120287636e-12
-2.74324722629226e-10
3.87126743891267e-12
-2.67831910424977e-10
3.87248437219819e-12
-2.61329386947485e-10
3.87302700429028e-12
-2.54815139415175e-10
3.87413384516039e-12
-2.48281832142745e-10
3.87906633454436e-12
-2.41729175486124e-10
3.88385327995221e-12
-2.35157113514394e-10
3.88826503241212e-12
-2.28558434902906e-10
3.89551042909633e-12
-2.21922851680341e-10
3.90816756775731e-12
-2.15254226772315e-10
3.918195439143e-12
-2.08548483083528e-10
3.92926609202842e-12
-2.0178572118253e-10
3.95064363892176e-12
-1.94964806552025e-10
3.97174889449821e-12
-1.88088135663266e-10
3.99064578653525e-12
-1.81138144630396e-10
4.01655838560351e-12
-1.74085911572855e-10
4.05816152486221e-12
-1.66946093058898e-10
4.09040373190271e-12
-1.59709952229255e-10
4.12448320625063e-12
-1.52325511440464e-10
4.18553463113355e-12
-1.44792786010348e-10
4.24474919277314e-12
-1.37123561626233e-10
4.29590074648057e-12
-1.29267451012438e-10
4.36370264416884e-12
-1.21096732110542e-10
4.49675308238919e-12
-1.1262518088071e-10
4.61480908368253e-12
-1.03776770631922e-10
4.75478913275009e-12
-9.42658499212611e-11
5.04477397531924e-12
-8.41462079182228e-11
5.30227589627174e-12
-7.35286212844925e-11
5.50703173230425e-12
-6.23796815955302e-11
5.73524923704221e-12
-5.07583383362839e-11
5.94304316602216e-12
-3.88759821651995e-11
6.04961090666215e-12
-2.68080599497954e-11
6.13173658785467e-12
-1.46389226656672e-11
6.18156305980305e-12
-2.54148459037792e-12
6.1541655109402e-12
9.38078758377321e-12
6.08667759191933e-12
2.09502387412068e-11
5.95506901665038e-12
3.19832057297557e-11
5.71818713135283e-12
4.24537679152606e-11
5.52522298962951e-12
5.21690850470307e-11
5.16271778233848e-12
6.08639784902397e-11
4.86506687809944e-12
6.86587873046988e-11
4.29618433279977e-12
7.49655543517812e-11
4.29515602786775e-12
7.51893728931382e-11
3.81811168110811e-13
7.47417770572674e-11
6.96946554047209e-13
7.38397553476952e-11
3.23597290718913e-13
7.25861640976284e-11
2.86272779611222e-13
7.10754361256294e-11
1.44825344756735e-13
6.94054888661117e-11
1.01794438517782e-13
6.76225055433445e-11
5.21297821506729e-14
6.5761962149806e-11
2.9512388283707e-14
6.38685359790693e-11
1.67204877292483e-14
6.19822847550085e-11
1.85154765873412e-14
6.01462286002405e-11
3.64655442279181e-14
5.84065253264711e-11
7.43434263944594e-14
5.68490151060973e-11
1.44119423536457e-13
4.23200452427539e-13
-2.80895170687544e-10
-2.82032722335875e-10
-2.80672203591885e-10
-2.78025296318874e-10
-2.7485499020807e-10
-2.71492049020909e-10
-2.68067008505012e-10
-2.64627255145878e-10
-2.61187574932079e-10
-2.57751486387135e-10
-2.54319421743964e-10
-2.50891233842962e-10
-2.47466776737032e-10
-2.4404594163941e-10
-2.4062872337862e-10
-2.37215164100906e-10
-2.33805273800763e-10
-2.30399086227452e-10
-2.26996614046572e-10
-2.23597847885268e-10
-2.2020271720887e-10
-2.16811272737901e-10
-2.13423537965003e-10
-2.10039446384457e-10
-2.06658967528268e-10
-2.03282124901577e-10
-1.99908875800232e-10
-1.96539014326301e-10
-1.93172643867515e-10
-1.89809746169889e-10
-1.86450098901703e-10
-1.83093579064654e-10
-1.79740293890107e-10
-1.76390156030271e-10
-1.73042596332917e-10
-1.69697802572789e-10
-1.6635575215011e-10
-1.63015954311969e-10
-1.59677973071491e-10
-1.56342074734828e-10
-1.53007942686149e-10
-1.49674063326397e-10
-1.46340771057632e-10
-1.43008158249744e-10
-1.39675002403816e-10
-1.36339663785098e-10
-1.33002868711238e-10
-1.29664114471994e-10
-1.26319612836008e-10
-1.22969619680786e-10
-1.19614596468667e-10
-1.16251606256994e-10
-1.12875204250213e-10
-1.09488259859402e-10
-1.06089976215214e-10
-1.02670098238787e-10
-9.92289627010153e-11
-9.57689183517427e-11
-9.22830238669134e-11
-8.8755769891086e-11
-8.51968840063204e-11
-8.16048381459671e-11
-7.79528986893684e-11
-7.42433262773829e-11
-7.04845874791709e-11
-6.66604346106084e-11
-6.27071338164777e-11
-5.86424810297125e-11
-5.44468637261094e-11
-4.9971416330228e-11
-4.52502116288291e-11
-4.0337453262296e-11
-3.52093949618363e-11
-2.98862244607662e-11
-2.44696392871922e-11
-1.89838008653625e-11
-1.34602507676119e-11
-7.97559387163447e-12
-2.56969053464944e-12
2.69360455916787e-12
7.71078384245295e-12
1.25269287695864e-11
1.69717702724677e-11
2.11121522281174e-11
2.46805950460582e-11
2.82445829094962e-11
2.78879727568629e-11
2.78390215167232e-11
2.74101845291988e-11
2.69390620518398e-11
2.63245976385501e-11
2.56666461829736e-11
2.49560996293658e-11
2.42185607237317e-11
2.34665490986684e-11
2.27178060800256e-11
2.19885777541606e-11
2.12970788045585e-11
2.06743680711554e-11
)
;

boundaryField
{
    dieWall
    {
        type            calculated;
        value           nonuniform List<scalar> 
100
(
7.13786617101462e-13
7.123497333955e-13
7.10912861241256e-13
7.09475967699035e-13
7.0803907827189e-13
7.06602200548303e-13
7.05165320862057e-13
7.03728441173164e-13
7.02291555145676e-13
7.00854668390303e-13
6.99417788877958e-13
6.97980908305417e-13
6.96544021205771e-13
6.9510713155592e-13
6.9367025154785e-13
6.92233373134413e-13
6.90796489475211e-13
6.89359601442194e-13
6.8792271777461e-13
6.86485836071148e-13
6.8504895136629e-13
6.83612069086787e-13
6.82175182308048e-13
6.80738286478108e-13
6.79301402592308e-13
6.77864527550675e-13
6.76427648272417e-13
6.74990769820198e-13
6.73553885406203e-13
6.72117001445912e-13
6.70680118525434e-13
6.69243235146394e-13
6.67806348640975e-13
6.66369464979554e-13
6.64932580940848e-13
6.63495696643315e-13
6.62058815256401e-13
6.6062192638873e-13
6.59185039635819e-13
6.57748158252657e-13
6.56311275872244e-13
6.54874389553418e-13
6.53437505400444e-13
6.52000624180673e-13
6.50563733871091e-13
6.49126846820646e-13
6.47689970225835e-13
6.46253090183742e-13
6.44816207894045e-13
6.43379324085923e-13
6.41942441787267e-13
6.40505560262455e-13
6.39068672402986e-13
6.37631790222336e-13
6.36194904793906e-13
6.34758017862972e-13
6.33321133954733e-13
6.31884239335003e-13
6.30447361388108e-13
6.29010490889708e-13
6.2757360395784e-13
6.26136721333607e-13
6.24699836060569e-13
6.23262946068572e-13
6.21826064104268e-13
6.20389186759e-13
6.18952306700157e-13
6.17515414194418e-13
6.16078528355651e-13
6.14641644124921e-13
6.13204751853611e-13
6.11767869267098e-13
6.10330995240683e-13
6.08894116994414e-13
6.07457228896528e-13
6.06020344933851e-13
6.04583456773189e-13
6.03146574862056e-13
6.01709695448961e-13
6.00272813202012e-13
5.98835933052441e-13
5.97399047664067e-13
5.9596215171671e-13
5.94525265972929e-13
5.93088393885997e-13
5.91844428758226e-13
5.9192301893901e-13
5.91923015957294e-13
5.91923022865027e-13
5.91923023325071e-13
5.91923010670871e-13
5.91923008746266e-13
5.91923019827261e-13
5.91923024257724e-13
5.91923025150731e-13
5.91923020829027e-13
5.91923017250287e-13
5.91923012532053e-13
5.91923014605855e-13
5.91923021790557e-13
)
;
    }
    outlet
    {
        type            calculated;
        value           nonuniform List<scalar> 6(1.4069010743921e-10 1.30912718520373e-10 1.11476922737443e-10 8.64756626895146e-11 5.60747788433372e-11 2.03302150176994e-11);
    }
    Wire
    {
        type            calculated;
        value           nonuniform List<scalar> 
100
(
-1.02887120199079e-13
-2.6594448836458e-13
-3.59826549129934e-13
-3.98993109154968e-13
-4.36316342209475e-13
-4.79163796634015e-13
-5.20407770866602e-13
-5.48435103353684e-13
-5.75255814753257e-13
-6.13302573776861e-13
-6.37907434668075e-13
-6.59751717621647e-13
-6.84808589319141e-13
-7.14301323361099e-13
-7.34456380751258e-13
-7.54336426435128e-13
-7.82859212311681e-13
-8.05548400060964e-13
-8.25369466266712e-13
-8.47130409992379e-13
-8.77523692990459e-13
-8.97955232172246e-13
-9.18989957766727e-13
-9.49086209271008e-13
-9.77290970807211e-13
-1.00044538176717e-12
-1.02478222688521e-12
-1.06471307669895e-12
-1.09148649864132e-12
-1.11869737388633e-12
-1.15638146969151e-12
-1.19668294726279e-12
-1.22931464024482e-12
-1.2630713684553e-12
-1.32318741307446e-12
-1.36529050738992e-12
-1.4084242230602e-12
-1.46704558853678e-12
-1.53796219390217e-12
-1.59514852971206e-12
-1.65516186390579e-12
-1.76115927013631e-12
-1.84562171563961e-12
-1.92998599399045e-12
-2.04229826937955e-12
-2.19418015782765e-12
-2.31658306687274e-12
-2.44681828494996e-12
-2.67296066775808e-12
-2.87277527543706e-12
-3.06713166237679e-12
-3.31502312487705e-12
-3.67879732810774e-12
-3.96781159906708e-12
-4.2759633099049e-12
-4.80062757558669e-12
-5.28736690307944e-12
-5.74707219907994e-12
-6.32297503735483e-12
-7.20531266673468e-12
-7.88659262957203e-12
-8.60855485883743e-12
-9.83996820757259e-12
-1.09880296314868e-11
-1.20727517795376e-11
-1.34446377617686e-11
-1.61540614327272e-11
-1.86964850481455e-11
-2.15400113545239e-11
-2.69714372150033e-11
-3.1368964355033e-11
-3.49304294952158e-11
-3.89034929377633e-11
-4.26317711193857e-11
-4.45364541747255e-11
-4.6174279257823e-11
-4.73219398805915e-11
-4.6880219254381e-11
-4.60379804921107e-11
-4.38624005109898e-11
-3.9897665664256e-11
-3.62202636150683e-11
-3.18777087388679e-11
-2.30671633651912e-11
-1.69464443589069e-11
-1.09348773351887e-11
-2.61720509418446e-12
1.94466268682504e-12
5.02619288293136e-12
7.93957629595775e-12
9.94053824893842e-12
1.0938247172253e-11
1.17864206408649e-11
1.24927245128237e-11
1.25920071171613e-11
1.2638927481297e-11
1.22407677770971e-11
1.15038469565816e-11
1.05400942798019e-11
8.54803828425564e-12
)
;
    }
    inlet
    {
        type            calculated;
        value           nonuniform List<scalar> 6(-1.15761564140539e-09 -3.35936274513258e-10 2.38132777988421e-10 5.41381794058942e-10 5.57163746999189e-10 2.76915510421967e-10);
    }
    back
    {
        type            wedge;
        value           nonuniform List<scalar> 
600
(
-1.53395190124243e-25
-3.52996343593297e-25
-8.99495098860143e-25
-1.10057039574294e-24
-8.20326986253026e-25
-3.45596828034192e-25
-1.01647312966173e-26
-4.83308528948592e-25
-9.49778909299764e-25
-1.15731957872172e-24
-1.25827347120227e-24
-6.24909247003136e-25
1.30132972983681e-25
-6.1150745140541e-25
-1.05917012143848e-24
-1.32515400554075e-24
-1.34468475264317e-24
-5.90301414709089e-25
-4.0451329878658e-26
-4.0083752403273e-25
-9.79211043532373e-25
-1.22373352062488e-24
-1.24912975260902e-24
-6.50387240676148e-25
-2.67000180007496e-25
-5.0747930937498e-25
-8.90605904806223e-25
-1.38521064179944e-24
-1.1823646514898e-24
-4.93604907762693e-25
-1.85298554686113e-25
-7.26550034224422e-25
-9.4718717257202e-25
-1.45986963001749e-24
-1.10176707427031e-24
-5.16127016106795e-25
-2.82170128782865e-25
-5.01128189317006e-25
-1.14204576338193e-24
-1.28097305948893e-24
-1.26019607747323e-24
-6.91697170551235e-25
-1.57524284012619e-25
-4.86879639217594e-25