/*--------------------------------*- C++ -*----------------------------------*\
  =========                 |
  \\      /  F ield         | OpenFOAM: The Open Source CFD Toolbox
   \\    /   O peration     | Website:  https://openfoam.org
    \\  /    A nd           | Version:  8
     \\/     M anipulation  |
\*---------------------------------------------------------------------------*/
FoamFile
{
    version     2.0;
    format      ascii;
    class       surfaceScalarField;
    location    "0.0275000";
    object      phi;
}
// * * * * * * * * * * * * * * * * * * * * * * * * * * * * * * * * * * * * * //

dimensions      [0 3 -1 0 0 0 0];

internalField   nonuniform List<scalar> 
1691
(
9.0251900356525e-10
1.0203774257688e-11
8.92414940057946e-10
1.04277653698696e-11
8.82339137446511e-10
1.04882640878195e-11
8.72119738872533e-10
1.0672217355983e-11
8.6182790361246e-10
1.0781824034107e-11
8.51513876980492e-10
1.08514337534025e-11
8.41195652569774e-10
1.08919454135348e-11
8.30879035623327e-10
1.09177941095915e-11
8.20567639634603e-10
1.09415568068897e-11
8.10268081064314e-10
1.09665488662276e-11
7.99971085929711e-10
1.09864463830905e-11
7.8967735890943e-10
1.10052084424289e-11
7.79393137730185e-10
1.10267642340796e-11
7.69113516617757e-10
1.10456922454896e-11
7.58837277186993e-10
1.10618156343172e-11
7.48565845802518e-10
1.10798063609992e-11
7.38303586244002e-10
1.110013789266e-11
7.28044141976648e-10
1.11170809502851e-11
7.17787293954752e-10
1.11336004517214e-11
7.07540202655582e-10
1.11537069644385e-11
6.97297506410014e-10
1.11718636683129e-11
6.87058338820114e-10
1.11884052069767e-11
6.76824425234541e-10
1.12082110727364e-11
6.66599889578524e-10
1.12313823779053e-11
6.56378698730641e-10
1.12515853941886e-11
6.46159969247429e-10
1.12719264052399e-11
6.35953359069186e-10
1.12972362112442e-11
6.257508786733e-10
1.13199999217314e-11
6.15552077457172e-10
1.1341997308805e-11
6.05360488219913e-10
1.13690297046064e-11
5.95179350052267e-10
1.13988144772999e-11
5.85001920290758e-10
1.14249737367164e-11
5.74826613124906e-10
1.14535810983544e-11
5.64669802893978e-10
1.14914335539632e-11
5.54516646994811e-10
1.15251705222971e-11
5.44367865653083e-10
1.15576899605864e-11
5.34231184064246e-10
1.15992162164296e-11
5.2410773445013e-10
1.16464112563414e-11
5.13989507602924e-10
1.16890558374423e-11
5.03873595650014e-10
1.17371941062349e-11
4.93784329856013e-10
1.18015541155012e-11
4.83699783161331e-10
1.18584638855574e-11
4.73620123926377e-10
1.1917890024447e-11
4.63561975262016e-10
1.19970774713851e-11
4.53522101446329e-10
1.20809309626956e-11
4.43490881181306e-10
1.21598824454255e-11
4.33466405777193e-10
1.22563323912596e-11
4.23485157585569e-10
1.23822764449108e-11
4.13512662989256e-10
1.2495401886208e-11
4.03544549111827e-10
1.26186637106322e-11
3.93623781985297e-10
1.27876429133373e-11
3.83729828596798e-10
1.29609622309442e-11
3.7385003582443e-10
1.31301231311536e-11
3.63992263515341e-10
1.33425479660332e-11
3.54211352300565e-10
1.36101407717135e-11
3.44448660341878e-10
1.38548181531974e-11
3.34685091807439e-10
1.41320373849079e-11
3.25040642101979e-10
1.45204394600616e-11
3.15432386682094e-10
1.48953840827749e-11
3.05845031762294e-10
1.52747680804407e-11
2.96331720148721e-10
1.57685804939091e-11
2.86951808644559e-10
1.63444844322633e-11
2.77617557287309e-10
1.68706519916804e-11
2.68260792987464e-10
1.74946987815191e-11
2.59206291142262e-10
1.8377935247764e-11
2.50179079205268e-10
1.91585936838224e-11
2.41182938794767e-10
1.99734904560689e-11
2.32414491330647e-10
2.10906343301122e-11
2.23833065075102e-10
2.23663025179171e-11
2.15382237378807e-10
2.37427800651577e-11
2.06932136832844e-10
2.57485244474989e-11
1.99552182249852e-10
2.8706792830579e-11
1.92280383236439e-10
3.13533409096982e-11
1.85163537754434e-10
3.39042101972934e-11
1.7889176638778e-10
3.65155943299841e-11
1.7255736213641e-10
3.80896116759576e-11
1.66305961434693e-10
3.89491366049499e-11
1.60330086811672e-10
3.91979457971989e-11
1.54059991138381e-10
3.86112541289224e-11
1.47690680608441e-10
3.73506104127322e-11
1.41558951079568e-10
3.53277064718679e-11
1.34224645958596e-10
3.16967494352391e-11
1.26524730612738e-10
2.81062769501771e-11
1.19298324778008e-10
2.33435468411838e-11
1.09655347606832e-10
1.77036420118803e-11
1.00695679116741e-10
1.04982157832791e-11
9.98323354958138e-11
-1.83315485070869e-12
9.87856799968783e-11
-5.49424355147546e-12
9.70411483018774e-11
-7.62171590571637e-12
9.55697548503643e-11
-9.23504842567625e-12
9.38893982592652e-11
-1.01680757784605e-11
9.19917141178215e-11
-1.09524441744512e-11
9.01797316825884e-11
-1.1280216607625e-11
8.83195552187719e-11
-1.14089402384121e-11
8.64544334020145e-11
-1.1286695961654e-11
8.47250228549674e-11
-1.09507251242097e-11
8.29842119494805e-11
-1.04138196667379e-11
8.12940620589837e-11
-9.54175390877853e-12
7.99312592513519e-11
-8.25910163428111e-12
-3.45593109357337e-12
4.97583126976105e-10
1.44686876097649e-11
4.92838701832097e-10
1.52267295536726e-11
4.87699790391876e-10
1.56816332929476e-11
4.82196692193338e-10
1.62296467104078e-11
4.76488850703409e-10
1.65438911206375e-11
4.70700596299416e-10
1.66938364150303e-11
4.648910959936e-10
1.67555177098516e-11
4.59082590991251e-10
1.67803271526056e-11
4.53282783123339e-10
1.67953945143608e-11
4.4749367101392e-10
1.68096590069062e-11
4.41713379804716e-10
1.68206299285732e-11
4.35941413304227e-10
1.6830949983832e-11
4.30178663775557e-10
1.68431992975817e-11
4.24424304638014e-10
1.68536614308668e-11
4.18677637568984e-10
1.68620394199641e-11
4.12939317084147e-10
1.68716365467723e-11
4.0720989011662e-10
1.68829590723811e-11
4.01488236748143e-10
1.68919692426703e-11
3.95774431281059e-10
1.690055426041e-11
3.90069653101618e-10
1.6911614343151e-11
3.84373265914932e-10
1.69213407132568e-11
3.7868479108123e-10
1.69299083287262e-11
3.73005007042218e-10
1.69409406664457e-11
3.6733449254224e-10
1.69546682249986e-11
3.61672284623946e-10
1.6966352799737e-11
3.56018655689028e-10
1.6978016067395e-11
3.50375009589404e-10
1.69933320259633e-11
3.44740500635585e-10
1.70069206523793e-11
3.39114793832705e-10
1.70200455703439e-11
3.33499032629025e-10
1.70370714420768e-11
3.27893711695512e-10
1.70563752949728e-11
3.22297754866946e-10
1.70731306404849e-11
3.16712012800515e-10
1.70914469106335e-11
3.11138718939946e-10
1.71167440277983e-11
3.05576360444196e-10
1.71394959388849e-11
3.00024874961845e-10
1.71611664359801e-11
2.94486335101953e-10
1.71897139638462e-11
2.88961005202356e-10
1.72235599508468e-11
2.83447688728966e-10
1.72540752599457e-11
2.77947752491119e-10
1.72888129377018e-11
2.72464159330219e-10
1.73368192147728e-11
2.66995375236517e-10
1.73788612172047e-11
2.61541867870144e-10
1.74229506375244e-11
2.56106946997094e-10
1.74835108800939e-11
2.50691226802272e-10
1.75481049672185e-11
2.45294017137932e-10
1.76084690445263e-11
2.39918083280862e-10
1.76835790646602e-11
2.34567711497263e-10
1.77838895688924e-11
2.29241234321031e-10
1.78729860526492e-11
2.23940543605857e-10
1.79703427419191e-11
2.18671926130405e-10
1.81072098249382e-11
2.13435973573204e-10
1.82476807325171e-11
2.08233440015513e-10
1.83831055557713e-11
2.03070773731552e-10
1.8555534758493e-11
1.97954280021981e-10
1.87768342491181e-11
1.92882334423701e-10
1.89765312674356e-11
1.87860756269661e-10
1.92027646075042e-11
1.82902784871389e-10
1.9526777523131e-11
1.78008144009836e-10
1.98373538739982e-11
1.73180240998539e-10
2.01490109134417e-11
1.68433293358966e-10
2.05611412880042e-11
1.63777195162468e-10
2.10452981585408e-11
1.59212554207539e-10
2.1478584038129e-11
1.54752748428402e-10
2.19961560087167e-11
1.50423659605119e-10
2.2747162206572e-11
1.46223342893097e-10
2.33977224257586e-11
1.4216462866999e-10
2.40700237748758e-11
1.38280566585845e-10
2.50114369322208e-11
1.34596613154945e-10
2.60844835491363e-11
1.31161681993204e-10
2.72076788918257e-11
1.28067431394326e-10
2.88676315022968e-11
1.25412721957657e-10
3.13799772134247e-11
1.2317016497352e-10
3.36051615304203e-11
1.21310014501172e-10
3.57626702349591e-11
1.19794653981548e-10
3.80201839646791e-11
1.18525495362665e-10
3.93410320924985e-11
1.17385019488426e-10
4.00640953902884e-11
1.16297312534162e-10
4.02507355883601e-11
1.15108331706738e-10
3.97555168885977e-11
1.1376312859946e-10
3.86417054129994e-11
1.12053300243245e-10
3.69743934840586e-11
1.09899633131874e-10
3.37791540730318e-11
1.07075756269101e-10
3.08519444834491e-11
1.03710358078918e-10
2.66238035618447e-11
9.92151857250756e-11
2.21065846676947e-11
9.4763354299906e-11
1.48522851090758e-11
9.40692020188743e-11
-1.24015124108179e-12
9.31320033807752e-11
-4.65968011409765e-12
9.16655245914708e-11
-6.25681160449502e-12
9.00579990834112e-11
-7.72727938963269e-12
8.82358943672255e-11
-8.4461764729772e-12
8.63213087540942e-11
-9.14013481755562e-12
8.43325925603976e-11
-9.39526234031752e-12
8.23379344563752e-11
-9.51789722819425e-12
8.03572272588289e-11
-9.40734804217663e-12
7.84390911385598e-11
-9.13114701409904e-12
7.66054565386305e-11
-8.67738013910148e-12
7.49117233315985e-11
-7.94488396324109e-12
7.34432942760781e-11
-6.88665221329899e-12
-2.8340565265864e-12
1.62645074215232e-10
1.4050546947382e-11
1.62816971234391e-10
1.51106712425091e-11
1.61842816638578e-10
1.67115300334369e-11
1.60280939268932e-10
1.78471218524979e-11
1.58431395923466e-10
1.84489120038707e-11
1.56472041978246e-10
1.87085768624613e-11
1.54480977697006e-10
1.88018775312915e-11
1.52487528680803e-10
1.88290140716778e-11
1.50501795719192e-10
1.88363567170741e-11
1.48526391563893e-10
1.88402472113086e-11
1.46559956623145e-10
1.88421256488624e-11
1.44601976129521e-10
1.88438580976568e-11
1.42653129414885e-10
1.88468699888989e-11
1.40712737131386e-10
1.88487879176146e-11
1.38780113455862e-10
1.88493299016093e-11
1.36855845998021e-10
1.8850511927652e-11
1.34940369846938e-10
1.88529110767681e-11
1.33032737325052e-10
1.88538986554151e-11
1.31133031832948e-10
1.88544571611964e-11
1.29242271691166e-10
1.88565421506561e-11
1.27359938285841e-10
1.88577884358105e-11
1.25485547245574e-10
1.88583369068248e-11
1.23619868128501e-10
1.88605619786859e-11
1.21763430365408e-10
1.88648555270951e-11
1.19915386676516e-10
1.88679121005317e-11
1.18076019250004e-10
1.88707886690787e-11
1.1624657770269e-10
1.88761583795246e-11
1.14426374017959e-10
1.88804567853695e-11
1.12615070602956e-10
1.88845957960029e-11
1.10813806248491e-10
1.88915074153857e-11
1.09023102496606e-10
1.8900197050157e-11
1.07242019175952e-10
1.89072794505975e-11
1.05471206073316e-10
1.89152348411622e-11
1.03712566519586e-10
1.89282334068971e-11
1.019650931245e-10
1.89397549088482e-11
1.00228580420292e-10
1.8950481910977e-11
9.85049011668025e-11
1.89661498616213e-11
9.67946732013011e-11
1.89863846076295e-11
9.50967526500795e-11
1.90044596625169e-11
9.3412522288314e-11
1.90254776899142e-11
9.17449374543042e-11
1.90568164288809e-11
9.0092424345045e-11
1.90837110500775e-11
8.84553657404933e-11
1.9112271724892e-11
8.68374061126492e-11
1.91536799169808e-11
8.52391970868247e-11
1.91984505753391e-11
8.36596612286667e-11
1.92400484452093e-11
8.21020622094751e-11
1.92931445004446e-11
8.05711867935867e-11
1.93666477134606e-11
7.90647278568708e-11
1.94311762968277e-11
7.75845633078773e-11
1.95020990008876e-11
7.61382719645703e-11
1.96050514319033e-11
7.47262818923421e-11
1.97110258086405e-11
7.33480275582568e-11
1.98123556634302e-11
7.20112737328707e-11
1.99431559254656e-11
7.07241261438699e-11
2.01147315968779e-11
6.94828933066151e-11
2.02680460877238e-11
6.82935637487442e-11
2.04417419273319e-11
6.71727742540443e-11
2.06964152116875e-11
6.61186779644223e-11
2.09392223240688e-11
6.51329534937655e-11
2.11814805072541e-11
6.42339313153647e-11
2.15061865545597e-11
6.34335852486284e-11
2.18907712198231e-11
6.27262123460557e-11
2.22296090351256e-11
6.21282434637625e-11
2.26360997599333e-11
6.16758555806737e-11
2.32399868388492e-11
6.13582541844657e-11
2.37544076861276e-11
6.11849070380468e-11
2.4281452149686e-11
6.11999044979656e-11
2.50334865059452e-11
6.14288374398243e-11
2.58900770627722e-11
6.1900902301713e-11
2.67657728607024e-11
6.27213513574937e-11
2.80722122821945e-11
6.40211077814706e-11
3.00988717603936e-11
6.57582431170662e-11
3.1877392384421e-11
6.79056922776498e-11
3.36135006656847e-11
7.04560194978526e-11
3.54589881003777e-11
7.3262132143161e-11
3.65170986038516e-11
7.62137970605651e-11
3.70868036896659e-11
7.91984309997786e-11
3.72310936274666e-11
8.20966544731323e-11
3.68125357830566e-11
8.47762771641656e-11
3.59079613446648e-11
8.71281173396276e-11
3.45595656979513e-11
8.88856801656107e-11
3.19506172755573e-11
9.00719947679955e-11
2.95876915050812e-11
9.04349966555872e-11
2.6176116179537e-11
8.99022276433842e-11
2.25480529874118e-11
8.84803103823406e-11
1.61775800018455e-11
8.79918565137984e-11
-8.51721791830003e-13
8.68776813263388e-11
-3.64691119716353e-12
8.5422842270267e-11
-4.90267333364666e-12
8.36777824666288e-11
-6.08168024340261e-12
8.17837587142869e-11
-6.65205088025029e-12
7.97495372159349e-11
-7.20764643275136e-12
7.76610985003658e-11
-7.41002018089803e-12
7.55490806940875e-11
-7.50892437774321e-12
7.346153769595e-11
-7.42083404360822e-12
7.14323132215729e-11
-7.20043960048839e-12
6.94961926433372e-11
-6.83842219891889e-12
6.77072880721516e-11
-6.25274647084292e-12
6.61550955078496e-11
-5.43050688785178e-12
-2.1889578224582e-12
-9.6538876392583e-11
1.05418946023037e-11
-9.30797567503451e-11
1.1708659902715e-11
-9.10238101806019e-11
1.47125809998127e-11
-8.95896504095777e-11
1.64698000555342e-11
-8.84238591143365e-11
1.73398240521527e-11
-8.73539324721222e-11
1.7695248643278e-11
-8.63110806606305e-11
1.78155196213436e-11
-8.52707703716376e-11
1.78451274957128e-11
-8.42248140818475e-11
1.78468033300687e-11
-8.31710518212421e-11
1.7842829136726e-11
-8.21103947254524e-11
1.78376745924656e-11
-8.10432361027354e-11
1.78327576184591e-11
-7.99691114832917e-11
1.78286857481984e-11
-7.8888532441008e-11
1.78240457603355e-11
-7.78020273710971e-11
1.78185810360216e-11
-7.67091916284824e-11
1.78133597462307e-11
-7.56097034348162e-11
1.78089590309966e-11
-7.45042680783047e-11
1.78038051184059e-11
-7.33928214632556e-11
1.77982393928439e-11
-7.22745818772696e-11
1.77934889949943e-11
-7.11499402185841e-11
1.7788266550357e-11
-7.00192594513552e-11
1.77826853628955e-11
-6.88819291738323e-11
1.77781508244735e-11
-6.77374974374198e-11
1.77751337517585e-11
-6.65865951438088e-11
1.77714698125975e-11
-6.54289883081242e-11
1.77675178870128e-11
-6.4263653678649e-11
1.77651268279797e-11
-6.30911038218521e-11
1.77621442829659e-11
-6.19115661529607e-11
1.77591960872356e-11
-6.07240851466996e-11
1.77580757023284e-11
-5.95281609423607e-11
1.77582553599463e-11
-5.832448340481e-11
1.77575185247523e-11
-5.71126250628144e-11
1.77571882739509e-11
-5.58910317206597e-11
1.77603125264033e-11
-5.46603339738445e-11
1.77626524476516e-11
-5.3420690251602e-11
1.77644384236956e-11
-5.21705696144496e-11
1.77695694226122e-11
-5.09091889943183e-11
1.77783690451289e-11
-4.96374012040304e-11
1.77858899924203e-11
-4.83540085776487e-11
1.77952609139448e-11
-4.70562808562291e-11
1.78122293671296e-11
-4.57456017184368e-11
1.78260830793088e-11
-4.44215650877903e-11
1.78411983618019e-11
-4.30807101596553e-11
1.78657216408115e-11
-4.17223382633258e-11
1.7892888555478e-11
-4.03474338708044e-11
1.79178469200264e-11
-3.89528114848832e-11
1.79511341177177e-11
-3.7533666019089e-11
1.8000016357474e-11
-3.60923099648762e-11
1.80421679479329e-11
-3.46269244485017e-11
1.80889072234634e-11
-3.31297395586114e-11
1.81600051379977e-11
-3.16003070738725e-11
1.82335203707482e-11
-3.00396180517483e-11
1.8303217585158e-11
-2.84397975460773e-11
1.83947440720688e-11
-2.67920029998113e-11
1.8518212694379e-11
-2.51005511575569e-11
1.8627383148362e-11
-2.33597542672456e-11
1.87510796824265e-11
-2.15518401358513e-11
1.89378140662218e-11
-1.96792443957885e-11
1.91148395517894e-11
-1.77410479275217e-11
1.92904480125166e-11
-1.57176196531598e-11
1.952918122738e-11
-1.35960994353011e-11
1.98147564813171e-11
-1.13852302259676e-11
2.00627448598737e-11
-9.06777226212515e-12
2.03609435502436e-11
-6.60264551046292e-12
2.08155998377007e-11
-4.00532882498578e-12
2.11964567896009e-11
-1.26868125879405e-12
2.15831502507932e-11
1.65621405568949e-12
2.21458845867825e-11
4.79432033744284e-12
2.27867141951861e-11
8.16116189440271e-12
2.34292688709635e-11
1.18650870471349e-11
2.43934571778092e-11
1.60531932625064e-11
2.5929516053416e-11
2.06768019553625e-11
2.72631980574472e-11
2.57127120411211e-11
2.85758625665052e-11
3.11741915057079e-11
2.9986593801603e-11
3.68874652878635e-11
3.07859357077281e-11
4.27495727805419e-11
3.11989838701305e-11
4.86304321133848e-11
3.13151265478299e-11
5.44329118782337e-11
3.09651916371864e-11
5.9985419238928e-11
3.03012299305894e-11
6.5245769123117e-11
2.92361465816214e-11
6.98298324530486e-11
2.72955373717224e-11
7.39226146362362e-11
2.54169703135621e-11
7.70624428971461e-11
2.29516456373773e-11
7.94564779359076e-11
2.00628577008247e-11
8.03626604652981e-11
1.51750065968102e-11
8.00120910698742e-11
-6.00951316367979e-13
7.88115781737181e-11
-2.54758085443264e-12
7.7395673434039e-11
-3.58724379416316e-12
7.56188607936016e-11
-4.40413227696333e-12
7.37396723637783e-11
-4.87260752060653e-12
7.16945178050934e-11
-5.2641189670869e-12
6.96117372784779e-11
-5.43037142922573e-12
6.74957519203248e-11
-5.49594695494998e-12
6.54099928339607e-11
-5.43608273209312e-12
6.33792630455982e-11
-5.26821978568456e-12
6.1442581391627e-11
-4.99891892574523e-12
5.96516645022332e-11
-4.55864411905642e-12
5.80816252511496e-11
-3.95659466293201e-12
-1.52666633818373e-12
-2.75339610811818e-10
5.5800839623836e-12
-2.70693910636446e-10
7.1213115954773e-12
-2.66954707805441e-10
1.10316060691696e-11
-2.63577314933731e-10
1.31504609583253e-11
-2.60327617253328e-10
1.41480315188456e-11
-2.57113455180656e-10
1.45388733849286e-11
-2.53906035905605e-10
1.46657694981795e-11
-2.50697280970469e-10
1.46939592337725e-11
-2.47484829118799e-10
1.46919056970915e-11
-2.44268068732543e-10
1.46835516038482e-11
-2.41047674943598e-10
1.46746114002811e-11
-2.37823888493039e-10
1.46661395961197e-11
-2.34596410697038e-10
1.46582448980819e-11
-2.31365568116535e-10
1.46501233067898e-11
-2.28131712426746e-10
1.46415519162757e-11
-2.24894617731881e-10
1.46330059130608e-11
-2.21654077404581e-10
1.46249976229351e-11
-2.18410554032756e-10
1.46166513421958e-11
-2.15164009561875e-10
1.4607938143513e-11
-2.11913913536886e-10
1.45995814625979e-11
-2.08660525492718e-10
1.45909875972974e-11
-2.05404076993489e-10
1.45822421996633e-11
-2.02144141305444e-10
1.45740963918231e-11
-1.98880364022465e-10
1.45670128542628e-11
-1.95613150921451e-10
1.45596473417411e-11
-1.92342326107712e-10
1.45519461509267e-11
-1.89067123796748e-10
1.45451322952286e-11
-1.85787876051281e-10
1.45380257938206e-11
-1.82504697489573e-10
1.45310340957688e-11
-1.7921686020422e-10
1.45251531687747e-11
-1.75923921018143e-10
1.45201513149212e-11
-1.72626318013045e-10
1.45146718415726e-11
-1.69323805645729e-10
1.45093137630865e-11
-1.6601519818478e-10
1.45061896167152e-11
-1.62700820281102e-10
1.45026690683449e-11
-1.59380750056932e-10
1.44987557527044e-11
-1.56053820406652e-10
1.44969540860542e-11
-1.52719205054303e-10
1.44978781984699e-11
-1.49377438196493e-10
1.44980867068818e-11
-1.4602755464073e-10
1.44992859825522e-11
-1.42667197903657e-10
1.45057332842629e-11
-1.3929745563702e-10
1.45100985467212e-11
-1.35917908751887e-10
1.45153079310965e-11
-1.32525526490824e-10
1.4526915986163e-11
-1.29119584975019e-10
1.45404232847845e-11
-1.25700841646175e-10
1.45524591744044e-11
-1.22266449889652e-10
1.45699936413936e-11
-1.1881192896715e-10
1.45986350069541e-11
-1.15339310253064e-10
1.46225077607555e-11
-1.11846927590771e-10
1.4649314866416e-11
-1.0832747901129e-10
1.46932783009853e-11
-1.0478043955726e-10
1.473897547933e-11
-1.0120688748031e-10
1.47817673747593e-11
-9.75995048227743e-11
1.48393070092098e-11
-9.39494905294401e-11
1.49199960922428e-11
-9.02611104368288e-11
1.49902959271359e-11
-8.65293069809283e-11
1.50698953566769e-11
-8.27366921882157e-11
1.51949753675424e-11
-7.88857930242278e-11
1.53125930284157e-11
-7.49761602309173e-11
1.54283967054813e-11
-7.09886607591654e-11
1.55885031160547e-11
-6.69104740611646e-11
1.57824529417938e-11
-6.27516373356453e-11
1.59482660662047e-11
-5.84956915215242e-11
1.61476267955204e-11
-5.41005235692992e-11
1.64614750156076e-11
-4.95836954962646e-11
1.6719276126614e-11
-4.49401351195965e-11
1.69781992500327e-11
-4.01205498074818e-11
1.73638394562033e-11
-3.51017123955297e-11
1.78028399065603e-11
-2.98780284554051e-11
1.8236105602834e-11
-2.43463066221609e-11
1.88870511431943e-11
-1.83555838272524e-11
1.9957650138611e-11
-1.19569256084307e-11
2.08740098372537e-11
-5.16886669831509e-12
2.17860747065787e-11
2.03427297258251e-12
2.27724984939869e-11
9.47188695792044e-12
2.33303698144872e-11
1.7047997435394e-11
2.35970818683971e-11
2.46328487689159e-11
2.36950744150968e-11
3.21412118757092e-11
2.34118634570633e-11
3.93963028549404e-11
2.29918160424747e-11
4.63860095860046e-11
2.21832839226747e-11
5.26933321723335e-11
2.09171366846167e-11
5.85647237638077e-11
1.94676131749904e-11
6.34784032983591e-11
1.79533380589369e-11
6.77503404233639e-11
1.56998257868384e-11
7.02829290487441e-11
1.25461450811846e-11
7.00151393992333e-11
-4.32832899321073e-13
6.88383762404929e-11
-1.47187845479363e-12
6.75148480627272e-11
-2.36407793947629e-12
6.58225184150047e-11
-2.81097027128231e-12
6.40534201094164e-11
-3.20318073111254e-12
6.21172267310455e-11
-3.42950422974684e-12
6.01525364074253e-11
-3.56878644254893e-12
5.81525140977136e-11
-3.59892536718098e-12
5.61833721083875e-11
-3.56795749355132e-12
5.42648242034648e-11
-3.44820571770824e-12
5.24351517252989e-11
-3.26646575881782e-12
5.07421304855056e-11
-2.96249525713093e-12
4.9246593408379e-11
-2.55725453763056e-12
-8.92647640328876e-13
-3.70770692240756e-10
8.16653010741345e-13
-3.66424099253177e-10
2.83428859531442e-12
-3.62236924069565e-10
6.90386469916659e-12
-3.57973781357527e-10
8.94656398317613e-12
-3.53621295267908e-10
9.85462890254565e-12
-3.49218447496301e-10
1.01949777758869e-11
-3.44794515652582e-10
1.03006593918584e-11
-3.40363584999772e-10
1.03217557723068e-11
-3.35930657181587e-10
1.03176614567549e-11
-3.31497020148503e-10
1.03085150004609e-11
-3.27063246194722e-10
1.0299272258005e-11
-3.22629414129e-10
1.02905663361987e-11
-3.18195318171947e-10
1.02822629175816e-11
-3.13761117465955e-10
1.02739067978937e-11
-3.09327011338039e-10
1.0265323932365e-11
-3.04892911366052e-10
1.02566859935342e-11
-3.00458705519151e-10
1.02483961624721e-11
-2.96024661066299e-10
1.02399872972695e-11
-2.91590764785141e-10
1.02312825425746e-11
-2.87156698286554e-10
1.02226889391744e-11
-2.82722614700051e-10
1.02139863941894e-11
-2.78288640965407e-10
1.02052344402145e-11
-2.73854511983001e-10
1.01967961025098e-11
-2.69419967752139e-10
1.01890575245979e-11
-2.64985233361941e-10
1.01812204741074e-11
-2.6055019028749e-10
1.01730593352831e-11
-2.5611430509566e-10
1.01653460180982e-11
-2.51677765236316e-10
1.01574940765825e-11
-2.4724060305844e-10
1.0149754526141e-11
-2.42802305336536e-10
1.01426233961977e-11
-2.3836250213481e-10
1.01360239419826e-11
-2.33921432129928e-10
1.01291863908944e-11
-2.29478991944021e-10
1.01223265728753e-11
-2.25034327262365e-10
1.01168109258905e-11
-2.20587547778989e-10
1.01110727463934e-11
-2.16138669966384e-10
1.01050425453135e-11
-2.11686860830339e-10
1.01002238292832e-11
-2.07231334535633e-10
1.00972268022562e-11
-2.0277237211152e-10
1.00938243216025e-11
-1.98309254332569e-10
1.00908007405756e-11
-1.93840040975293e-10
1.00910921178823e-11
-1.89365542462965e-10
1.00900562747393e-11
-1.84885372986603e-10
1.00894803033919e-11
-1.80397029631899e-10
1.00928217012182e-11
-1.75899819048152e-10
1.00973481874372e-11
-1.71394286243166e-10
1.01009278205077e-11
-1.66878073405819e-10
1.010766475333e-11
-1.62347224608551e-10
1.01215450079563e-11
-1.57803432047606e-10
1.01322786398325e-11
-1.53245297953645e-10
1.01445618251622e-11
-1.48666382753389e-10
1.01676625245096e-11
-1.44066142952344e-10
1.01917929562727e-11
-1.39445632203341e-10
1.02139047107946e-11
-1.34798543278627e-10
1.02446958329893e-11
-1.30116705655119e-10
1.02904740657637e-11
-1.25404035908227e-10
1.03294196981696e-11
-1.20656411519992e-10
1.03733718603181e-11
-1.15857917692168e-10
1.04467186899769e-11
-1.11010993086173e-10
1.05147590371664e-11
-1.0611558756504e-10
1.05809882132422e-11
-1.01154448322307e-10
1.06745816473157e-11
-9.61156391377559e-11
1.07899033881565e-11
-9.10092998491407e-11
1.08866371582588e-11
-8.58211510097212e-11
1.10024339397403e-11
-8.05112094404535e-11
1.11928792541973e-11
-7.50972500094804e-11
1.13452445595878e-11
-6.95761880318905e-11
1.14960089579413e-11
-6.39021351921257e-11
1.17275731799437e-11
-5.80549465878645e-11
1.19908357340067e-11
-5.20357555678933e-11
1.22476212768322e-11
-4.57542635470282e-11
1.26310242494091e-11
-3.90666412599858e-11
1.32889961693581e-11
-3.20233370274413e-11
1.38402380213013e-11
-2.46373689510384e-11
1.43983834256046e-11
-1.68780522286169e-11
1.50021905316312e-11
-8.91386475053387e-12
1.53481723416148e-11
-8.3388261590649e-13
1.54912345663859e-11
7.25077721224792e-12
1.5575127084861e-11
1.52563317831492e-11
1.53612497365705e-11
2.30352606878055e-11
1.51584719732977e-11
3.05685673438975e-11
1.45867407428402e-11
3.74909263072968e-11
1.39236429649481e-11
4.40098225519714e-11
1.28707282455852e-11
4.96917174547259e-11
1.21868306010959e-11
5.47884301973069e-11
1.05120798811278e-11
5.82369322695264e-11
9.0014786709404e-12
5.79923642834191e-11
-2.87820051756114e-13
5.69518056816746e-11
-5.32270782875024e-13
5.57757018577875e-11
-1.288235424776e-12
5.42846448016362e-11
-1.41899433326264e-12
5.27214624716839e-11
-1.7396043643286e-12
5.10145708384629e-11
-1.82414797292012e-12
4.92807567224896e-11
-1.93805443470472e-12
4.75168830933465e-11
-1.9380475838794e-12
4.57794365054451e-11
-1.93153882938465e-12
4.40869563260895e-11
-1.85428533829667e-12
4.24721316668977e-11
-1.74890270059335e-12
4.09773487040218e-11
-1.56464263624879e-12
3.96492262567588e-11
-1.32539778176989e-12
-3.33106148870322e-13
-3.79676892664227e-10
-2.10512701943454e-12
-3.76926477729763e-10
1.4463645758412e-13
-3.73333184241217e-10
3.37118661903461e-12
-3.69180512410303e-10
4.85430614351899e-12
-3.64729463602164e-10
5.46381850796847e-12
-3.60154291802309e-10
5.6799004934836e-12
-3.55536657174057e-10
5.74297643226247e-12
-3.5090853715828e-10
5.75348099691541e-12
-3.46280228313163e-10
5.74914354109796e-12
-3.41654182991337e-10
5.74216652664646e-12
-3.37030807515221e-10
5.73541538043816e-12
-3.32410010537069e-10
5.72909852280882e-12
-3.27791610806464e-10
5.72303451233386e-12
-3.23175646209926e-10
5.71697112242082e-12
-3.18562209780134e-10
5.71079822716252e-12
-3.13951295887799e-10
5.70457300559545e-12
-3.09342852457705e-10
5.69856504108462e-12
-3.04737020651766e-10
5.69252949372097e-12
-3.00133806728335e-10
5.68628954601434e-12
-2.95533036010787e-10
5.68006076498113e-12
-2.90934794849863e-10
5.67378453380236e-12
-2.86339146008123e-10
5.6674963732126e-12
-2.81745943168251e-10
5.66135432587289e-12
-2.7715500264823e-10
5.65562413809549e-12
-2.72566438275336e-10
5.64986637467936e-12
-2.67980184182618e-10
5.64385039063686e-12
-2.63395881431286e-10
5.63801928520354e-12
-2.58813631671434e-10
5.63211783980325e-12
-2.54233427762693e-10
5.62628618452159e-12
-2.49654930750581e-10
5.62073475220725e-12
-2.45077848939574e-10
5.61544617368622e-12
-2.40502299075647e-10
5.61003727489831e-12
-2.35928283410258e-10
5.60456752687655e-12
-2.31355205464386e-10
5.59980918578535e-12
-2.2678306663635e-10
5.59489451565242e-12
-2.22211861022113e-10
5.5897676855631e-12
-2.17641034658623e-10
5.58523072314574e-12
-2.13069905190528e-10
5.5817129445429e-12
-2.08498609484359e-10
5.57795548613164e-12
-2.03926676085897e-10
5.57421425185126e-12
-1.99352560162305e-10
5.57225077752157e-12
-1.94776884241371e-10
5.56952634818179e-12
-1.90199354151815e-10
5.56696896044707e-12
-1.85618016089494e-10
5.56639696396256e-12
-1.81032283410201e-10
5.56640239290823e-12
-1.76442571512742e-10
5.56585564316106e-12
-1.71847110289919e-10
5.56671273480021e-12
-1.67242590040313e-10
5.57139572472581e-12
-1.62630428185471e-10
5.57427839966566e-12
-1.58009615720568e-10
5.57771451021174e-12
-1.53374832068063e-10
5.58674968286942e-12
-1.48725643543645e-10
5.59621880191293e-12
-1.44063067466285e-10
5.6045173954205e-12
-1.39382154582216e-10
5.61678719296657e-12
-1.34675862349123e-10
5.63701033232126e-12
-1.29947650235521e-10
5.6534975830994e-12
-1.25194612642339e-10
5.67191336315412e-12
-1.20403178738636e-10
5.70598011700793e-12
-1.15575701829612e-10
5.73680819763421e-12
-1.10712536938527e-10
5.7662331437933e-12
-1.05799482365037e-10
5.80913849756084e-12
-1.00826322689253e-10
5.86337781095005e-12
-9.58023579762971e-11
5.90773403792569e-12
-9.07167553728236e-11
5.96011314556793e-12
-8.55345124484253e-11
6.05228339153535e-12
-8.02721287897143e-11
6.12306732059448e-12
-7.49284386429277e-11
6.19145066389188e-12
-6.94643932290508e-11
6.30155940102955e-12
-6.386446549459e-11
6.42631441748923e-12
-5.81334600685533e-11
6.54751074461849e-12
-5.22013617292761e-11
6.72454318974659e-12
-4.59420194264227e-11
7.04873765081469e-12
-3.94030199016969e-11
7.31083907926512e-12
-3.25907517800055e-11
7.58440402389141e-12
-2.54767391297675e-11
7.87715587833983e-12
-1.81985272026752e-11
8.05189634034167e-12
-1.08383408124373e-11
8.10511453494357e-12
-3.46964723716821e-12
8.17106606478281e-12
3.81434558794306e-12
8.0321117133334e-12
1.09307870906331e-11
7.98753262609353e-12
1.78159143126484e-11
7.63830774342451e-12
2.42417985978481e-11
7.42658028049296e-12
3.02754106206512e-11
6.75912000606051e-12
3.57207321350219e-11
6.65693166585492e-12
4.05847174586817e-11
5.55714544402606e-12
4.42272539432271e-11
5.26290830685209e-12
4.3941602283046e-11
-1.01587873511882e-13
4.31518520427527e-11
1.56656426829519e-13
4.21778534603439e-11
-4.14380174812023e-13
4.10045343928353e-11
-3.44654413927276e-13
3.97428138927939e-11
-5.77409027751189e-13
3.83853151467163e-11
-5.68125680486841e-13
3.69949623899116e-11
-6.50745637915114e-13
3.55872854385931e-11
-6.33347880871565e-13
3.41965349979613e-11